/*--------------------------------*- C++ -*----------------------------------*\
| =========                 |                                                 |
| \\      /  F ield         | OpenFOAM: The Open Source CFD Toolbox           |
|  \\    /   O peration     | Version:  2406                                  |
|   \\  /    A nd           | Website:  www.openfoam.com                      |
|    \\/     M anipulation  |                                                 |
\*---------------------------------------------------------------------------*/
FoamFile
{
    version     2.0;
    format      ascii;
    arch        "LSB;label=32;scalar=64";
    class       volScalarField;
    location    "8.1";
    object      p;
}
// * * * * * * * * * * * * * * * * * * * * * * * * * * * * * * * * * * * * * //

dimensions      [0 2 -2 0 0 0 0];

internalField   nonuniform List<scalar> 
3600
(
0.0118895
0.0118816
0.0118785
0.0118714
0.0118726
0.0118715
0.011878
0.0118826
0.0118933
0.0119026
0.0119169
0.0119303
0.0119478
0.0119651
0.0119858
0.0120067
0.0120306
0.012055
0.0120819
0.0121094
0.012139
0.0121692
0.0122009
0.012233
0.0122659
0.0122986
0.0123314
0.0123632
0.0123941
0.0124232
0.0124501
0.0124743
0.0124952
0.0125124
0.0125255
0.0125341
0.012538
0.012537
0.0125312
0.0125207
0.0125056
0.0124865
0.0124635
0.0124377
0.012409
0.0123788
0.0123468
0.0123147
0.012282
0.0122507
0.0122196
0.0121912
0.0121637
0.0121402
0.012118
0.0121014
0.0120866
0.0120792
0.0120735
0.012076
0.0118972
0.0118891
0.0118888
0.0118834
0.0118866
0.0118863
0.0118935
0.0118982
0.011909
0.0119181
0.0119323
0.0119454
0.0119627
0.0119795
0.0119999
0.0120203
0.0120436
0.0120673
0.0120935
0.0121201
0.0121488
0.0121778
0.0122083
0.012239
0.0122705
0.0123016
0.0123327
0.0123628
0.0123918
0.012419
0.012444
0.0124663
0.0124855
0.012501
0.0125125
0.0125197
0.0125224
0.0125205
0.0125139
0.012503
0.0124876
0.0124686
0.0124459
0.0124206
0.0123925
0.0123632
0.0123322
0.0123013
0.0122699
0.0122399
0.0122102
0.0121834
0.0121576
0.0121359
0.0121155
0.0121008
0.0120875
0.0120812
0.0120757
0.0120783
0.0119007
0.0118893
0.0118893
0.0118831
0.011887
0.0118865
0.0118942
0.0118989
0.01191
0.0119191
0.0119334
0.0119464
0.0119638
0.0119805
0.0120009
0.0120211
0.0120444
0.012068
0.0120941
0.0121207
0.0121493
0.0121783
0.0122088
0.0122394
0.0122709
0.0123021
0.0123332
0.0123633
0.0123924
0.0124196
0.0124448
0.0124671
0.0124862
0.0125017
0.0125131
0.0125202
0.0125227
0.0125205
0.0125135
0.0125022
0.0124864
0.0124668
0.0124436
0.0124177
0.0123891
0.0123593
0.0123278
0.0122965
0.0122647
0.0122345
0.0122046
0.0121776
0.0121517
0.01213
0.0121097
0.0120951
0.0120819
0.0120757
0.0120703
0.0120732
0.0119071
0.0118929
0.0118942
0.0118878
0.0118932
0.0118931
0.0119017
0.0119065
0.0119181
0.0119271
0.0119415
0.0119544
0.0119716
0.0119881
0.0120082
0.0120281
0.012051
0.0120741
0.0120998
0.0121258
0.0121538
0.0121822
0.012212
0.0122419
0.0122726
0.012303
0.0123333
0.0123626
0.0123908
0.0124172
0.0124414
0.0124629
0.0124811
0.0124957
0.0125062
0.0125124
0.0125139
0.0125109
0.0125031
0.012491
0.0124745
0.0124543
0.0124305
0.0124043
0.0123753
0.0123453
0.0123138
0.0122826
0.012251
0.0122212
0.0121918
0.0121656
0.0121404
0.0121196
0.0121002
0.0120865
0.0120741
0.0120685
0.0120633
0.012066
0.0119039
0.0118867
0.0118881
0.0118806
0.0118866
0.0118861
0.0118954
0.0119001
0.0119122
0.0119212
0.0119359
0.0119487
0.0119662
0.0119827
0.0120029
0.0120228
0.0120459
0.0120691
0.0120949
0.0121211
0.0121493
0.012178
0.0122081
0.0122384
0.0122696
0.0123005
0.0123314
0.0123613
0.0123901
0.0124171
0.0124419
0.0124638
0.0124825
0.0124974
0.012508
0.0125142
0.0125155
0.0125121
0.0125037
0.0124908
0.0124734
0.0124522
0.0124273
0.0123999
0.0123698
0.0123386
0.012306
0.0122739
0.0122413
0.0122108
0.0121807
0.0121539
0.0121283
0.0121072
0.0120876
0.0120737
0.0120611
0.0120554
0.0120502
0.0120525
0.0118996
0.0118803
0.0118824
0.0118744
0.0118814
0.011881
0.0118911
0.011896
0.0119085
0.0119176
0.0119326
0.0119454
0.011963
0.0119794
0.0119997
0.0120195
0.0120426
0.0120657
0.0120914
0.0121175
0.0121458
0.0121744
0.0122045
0.0122349
0.0122661
0.0122971
0.012328
0.012358
0.0123869
0.0124139
0.0124387
0.0124606
0.012479
0.0124936
0.0125037
0.0125093
0.0125099
0.0125056
0.0124962
0.0124823
0.0124637
0.0124413
0.0124152
0.0123866
0.0123554
0.0123233
0.0122899
0.0122571
0.0122241
0.0121932
0.012163
0.0121364
0.0121109
0.0120902
0.0120709
0.0120574
0.0120452
0.0120397
0.0120346
0.0120368
0.0118837
0.0118623
0.0118647
0.0118557
0.0118634
0.0118626
0.0118733
0.0118781
0.0118912
0.0119004
0.0119158
0.0119288
0.0119468
0.0119635
0.0119842
0.0120044
0.0120279
0.0120515
0.0120779
0.0121046
0.0121336
0.012163
0.0121941
0.0122255
0.0122578
0.0122899
0.0123221
0.0123533
0.0123834
0.0124116
0.0124374
0.0124602
0.0124793
0.0124943
0.0125047
0.0125102
0.0125104
0.0125055
0.0124951
0.01248
0.01246
0.0124361
0.0124083
0.012378
0.0123451
0.0123114
0.0122763
0.0122422
0.0122079
0.012176
0.0121449
0.0121176
0.0120915
0.0120705
0.0120508
0.0120372
0.0120248
0.0120193
0.0120142
0.0120164
0.0118643
0.0118415
0.0118444
0.0118351
0.0118435
0.0118428
0.0118542
0.0118592
0.0118728
0.0118821
0.011898
0.0119113
0.0119297
0.0119466
0.0119677
0.0119883
0.0120123
0.0120363
0.0120633
0.0120906
0.0121203
0.0121505
0.0121825
0.0122147
0.012248
0.0122811
0.0123144
0.0123465
0.0123776
0.0124065
0.012433
0.0124562
0.0124756
0.0124906
0.0125007
0.0125056
0.012505
0.0124989
0.0124872
0.0124705
0.0124487
0.0124231
0.0123934
0.0123614
0.0123267
0.0122915
0.012255
0.0122197
0.0121844
0.012152
0.0121204
0.012093
0.0120668
0.0120459
0.0120264
0.0120131
0.0120008
0.0119957
0.0119907
0.0119932
0.011832
0.011808
0.0118111
0.0118013
0.0118102
0.0118093
0.0118213
0.0118264
0.0118406
0.0118502
0.0118668
0.0118805
0.0118996
0.0119171
0.0119391
0.0119604
0.0119855
0.0120105
0.0120387
0.0120673
0.0120985
0.0121302
0.0121639
0.012198
0.0122332
0.0122682
0.0123034
0.0123375
0.0123704
0.012401
0.012429
0.0124534
0.0124736
0.0124891
0.0124993
0.0125038
0.0125024
0.0124952
0.012482
0.0124636
0.0124398
0.0124121
0.0123801
0.0123459
0.0123089
0.0122717
0.0122333
0.0121965
0.0121597
0.0121263
0.0120937
0.0120657
0.012039
0.012018
0.0119982
0.011985
0.0119726
0.0119678
0.0119628
0.011966
0.0117947
0.0117698
0.0117734
0.0117634
0.0117729
0.0117722
0.0117848
0.0117901
0.011805
0.011815
0.0118322
0.0118464
0.0118663
0.0118845
0.0119073
0.0119295
0.0119556
0.0119818
0.0120113
0.0120412
0.012074
0.0121073
0.0121428
0.0121787
0.0122159
0.0122529
0.01229
0.0123259
0.0123606
0.0123927
0.0124218
0.0124471
0.0124678
0.0124833
0.012493
0.0124968
0.012494
0.0124852
0.0124701
0.0124495
0.0124233
0.0123932
0.0123587
0.0123222
0.012283
0.0122438
0.0122036
0.0121655
0.0121276
0.0120935
0.0120604
0.0120323
0.0120055
0.0119849
0.0119652
0.0119526
0.0119403
0.0119361
0.0119313
0.0119353
0.0117436
0.011718
0.0117218
0.0117114
0.0117214
0.0117207
0.0117339
0.0117395
0.0117551
0.0117656
0.0117836
0.0117986
0.0118195
0.0118387
0.0118628
0.0118863
0.011914
0.0119418
0.0119731
0.0120051
0.0120401
0.0120758
0.0121138
0.0121524
0.0121923
0.0122321
0.012272
0.0123106
0.0123477
0.0123819
0.0124129
0.0124395
0.012461
0.0124768
0.0124862
0.0124891
0.012485
0.0124745
0.0124571
0.0124341
0.0124053
0.0123725
0.0123353
0.0122962
0.0122545
0.0122131
0.0121709
0.0121313
0.012092
0.0120571
0.0120233
0.0119951
0.0119681
0.0119477
0.011928
0.0119159
0.0119037
0.0119002
0.0118954
0.0119005
0.0116866
0.0116604
0.0116646
0.0116542
0.0116647
0.0116643
0.0116781
0.011684
0.0117003
0.0117113
0.0117302
0.0117459
0.0117677
0.011788
0.0118134
0.0118382
0.0118674
0.0118969
0.0119302
0.0119643
0.0120015
0.0120398
0.0120804
0.0121218
0.0121646
0.0122072
0.0122499
0.0122911
0.0123306
0.0123669
0.0123994
0.012427
0.0124489
0.0124644
0.012473
0.0124744
0.0124684
0.0124555
0.0124355
0.0124097
0.012378
0.0123423
0.0123023
0.0122606
0.0122165
0.0121733
0.0121293
0.0120885
0.0120483
0.0120131
0.011979
0.0119512
0.0119245
0.0119048
0.0118855
0.0118743
0.0118624
0.01186
0.0118554
0.0118618
0.0116148
0.0115881
0.0115924
0.011582
0.0115929
0.0115926
0.0116069
0.0116132
0.0116302
0.0116419
0.0116617
0.0116783
0.0117014
0.011723
0.0117498
0.0117764
0.0118075
0.0118391
0.0118748
0.0119115
0.0119516
0.0119929
0.0120368
0.0120816
0.0121279
0.0121741
0.0122203
0.0122648
0.0123072
0.012346
0.0123804
0.0124093
0.0124316
0.0124469
0.0124544
0.0124543
0.012446
0.0124306
0.0124077
0.0123791
0.0123443
0.0123058
0.012263
0.0122189
0.0121725
0.0121274
0.0120818
0.01204
0.011999
0.0119636
0.0119295
0.0119023
0.0118759
0.0118572
0.0118384
0.0118282
0.0118167
0.0118153
0.011811
0.0118187
0.0115367
0.0115097
0.0115143
0.0115039
0.0115153
0.0115151
0.01153
0.0115367
0.0115543
0.0115665
0.0115871
0.0116046
0.0116287
0.0116514
0.0116797
0.0117077
0.0117407
0.0117743
0.0118122
0.0118514
0.0118944
0.0119387
0.0119859
0.0120341
0.012084
0.0121337
0.0121833
0.0122311
0.0122763
0.0123173
0.0123532
0.0123827
0.0124048
0.012419
0.0124247
0.0124222
0.0124112
0.0123929
0.012367
0.0123356
0.0122981
0.0122571
0.0122119
0.0121658
0.0121174
0.012071
0.0120242
0.0119819
0.0119406
0.0119058
0.0118722
0.0118461
0.0118207
0.0118035
0.0117857
0.0117769
0.011766
0.0117659
0.011762
0.011771
0.0114427
0.0114153
0.0114201
0.0114095
0.0114212
0.0114212
0.0114365
0.0114435
0.0114617
0.0114745
0.0114959
0.0115143
0.0115395
0.0115634
0.0115932
0.011623
0.0116579
0.0116937
0.0117341
0.0117761
0.0118221
0.0118697
0.0119206
0.0119726
0.0120264
0.0120801
0.0121336
0.0121849
0.0122331
0.0122764
0.0123136
0.0123434
0.0123648
0.0123773
0.0123806
0.0123754
0.0123616
0.0123406
0.0123125
0.0122792
0.0122402
0.012198
0.0121515
0.0121044
0.0120548
0.0120074
0.0119596
0.0119171
0.0118755
0.0118414
0.0118085
0.011784
0.0117599
0.0117445
0.0117279
0.0117208
0.0117106
0.0117119
0.0117082
0.0117188
0.0113426
0.011315
0.01132
0.0113095
0.0113214
0.0113215
0.011337
0.0113443
0.0113628
0.0113759
0.0113978
0.0114167
0.0114427
0.0114675
0.0114983
0.0115293
0.0115657
0.0116033
0.0116458
0.0116901
0.0117387
0.0117893
0.0118434
0.0118989
0.0119563
0.0120137
0.0120706
0.0121249
0.0121753
0.0122198
0.0122569
0.0122852
0.0123038
0.0123126
0.0123117
0.0123024
0.0122852
0.012262
0.012233
0.0122002
0.0121626
0.0121225
0.012078
0.0120325
0.0119836
0.0119365
0.0118881
0.0118453
0.0118034
0.0117699
0.0117378
0.0117152
0.0116926
0.0116796
0.0116644
0.0116593
0.0116501
0.0116528
0.0116496
0.0116616
0.0112251
0.0111972
0.0112022
0.0111915
0.0112035
0.0112035
0.0112192
0.0112265
0.0112452
0.0112586
0.0112809
0.0113002
0.0113268
0.0113523
0.0113841
0.0114162
0.0114539
0.0114931
0.0115374
0.0115839
0.0116349
0.0116883
0.0117454
0.0118042
0.011865
0.0119257
0.0119856
0.0120421
0.0120935
0.0121372
0.0121715
0.0121948
0.0122065
0.0122071
0.0121975
0.0121801
0.0121565
0.0121301
0.0121015
0.0120732
0.0120436
0.0120141
0.0119807
0.0119455
0.0119044
0.0118623
0.0118159
0.0117734
0.0117304
0.0116965
0.0116639
0.0116424
0.0116208
0.01161
0.0115963
0.0115933
0.0115849
0.011589
0.0115861
0.0115994
0.0111024
0.0110745
0.0110795
0.0110688
0.0110807
0.0110806
0.011096
0.0111031
0.0111216
0.0111347
0.0111567
0.0111759
0.0112023
0.0112278
0.0112597
0.011292
0.0113301
0.0113699
0.011415
0.0114626
0.011515
0.0115701
0.0116291
0.01169
0.0117529
0.0118155
0.0118763
0.0119321
0.0119804
0.0120177
0.0120414
0.0120497
0.012042
0.0120195
0.0119848
0.0119428
0.0118984
0.0118585
0.0118265
0.0118067
0.0117969
0.0117966
0.0117977
0.0117977
0.0117876
0.0117696
0.011738
0.011703
0.0116611
0.0116261
0.0115911
0.0115687
0.0115466
0.011537
0.0115242
0.0115228
0.0115151
0.0115203
0.0115174
0.0115317
0.0109603
0.0109322
0.0109371
0.0109261
0.0109377
0.0109372
0.0109522
0.0109588
0.0109768
0.0109894
0.011011
0.0110296
0.0110556
0.0110807
0.0111121
0.0111441
0.011182
0.0112217
0.0112668
0.0113145
0.0113673
0.0114229
0.0114825
0.011544
0.0116072
0.011669
0.0117271
0.0117767
0.0118134
0.0118317
0.0118268
0.0117952
0.0117357
0.0116507
0.0115467
0.011435
0.0113289
0.0112439
0.011191
0.0111791
0.0112068
0.0112706
0.0113549
0.0114476
0.0115277
0.0115882
0.0116154
0.0116184
0.0115946
0.0115652
0.0115275
0.0115016
0.0114755
0.0114645
0.0114506
0.0114495
0.0114414
0.0114469
0.0114435
0.0114584
0.0108149
0.010787
0.0107917
0.0107805
0.0107916
0.0107904
0.0108046
0.0108102
0.010827
0.0108384
0.0108585
0.0108756
0.0109
0.0109234
0.010953
0.0109833
0.0110193
0.011057
0.0111003
0.0111462
0.0111971
0.0112508
0.0113084
0.0113674
0.0114269
0.0114825
0.0115295
0.0115601
0.0115655
0.011535
0.0114586
0.0113285
0.0111423
0.0109071
0.0106392
0.0103655
0.0101159
0.00992258
0.009809
0.00979318
0.00987631
0.0100523
0.0102958
0.0105802
0.0108639
0.0111187
0.0113108
0.0114373
0.0114912
0.011501
0.0114747
0.0114471
0.0114138
0.0113972
0.0113785
0.011375
0.0113646
0.0113688
0.0113641
0.0113787
0.0106478
0.0106198
0.0106242
0.0106125
0.0106227
0.0106207
0.0106336
0.0106379
0.0106532
0.010663
0.0106812
0.0106964
0.0107186
0.0107395
0.0107666
0.010794
0.0108269
0.0108613
0.010901
0.010943
0.0109896
0.0110387
0.0110908
0.0111429
0.0111923
0.0112319
0.0112524
0.0112389
0.0111734
0.0110341
0.0108004
0.0104594
0.0100122
0.00948105
0.00890485
0.00833692
0.00783173
0.00744296
0.0072096
0.00716118
0.00730372
0.00763216
0.0081137
0.00870821
0.00934959
0.00997858
0.0105238
0.0109488
0.0112228
0.0113706
0.0114109
0.0114042
0.0113673
0.0113413
0.0113125
0.0113018
0.0112857
0.0112859
0.0112783
0.0112917
0.0104804
0.0104528
0.0104567
0.0104446
0.0104538
0.0104505
0.0104616
0.0104639
0.0104767
0.0104838
0.0104989
0.0105107
0.0105289
0.0105457
0.0105681
0.0105904
0.0106177
0.0106461
0.0106791
0.0107138
0.0107523
0.0107921
0.0108332
0.0108707
0.0108988
0.0109045
0.010869
0.0107639
0.0105528
0.010196
0.00966105
0.00893812
0.0080484
0.00704658
0.00600775
0.00501876
0.00415907
0.00350046
0.0030919
0.00297119
0.00314867
0.00362564
0.00437075
0.00534334
0.00646366
0.00764673
0.00877583
0.00975811
0.0105041
0.0109982
0.0112494
0.0113416
0.011331
0.0112998
0.0112563
0.0112324
0.0112054
0.0111976
0.0111847
0.0111954
0.0102884
0.0102609
0.0102642
0.0102513
0.010259
0.0102541
0.0102631
0.0102631
0.010273
0.010277
0.0102884
0.0102962
0.0103098
0.0103215
0.0103379
0.0103537
0.0103736
0.0103936
0.0104171
0.010441
0.0104671
0.0104922
0.0105145
0.0105263
0.0105153
0.0104577
0.0103171
0.0100413
0.00956682
0.00883509
0.00781452
0.00652234
0.00502476
0.00342752
0.00184729
0.000398911
-0.00082748
-0.0017581
-0.00234992
-0.00256725
-0.00240144
-0.00184167
-0.000908186
0.000378778
0.0019523
0.00373332
0.00558296
0.00735647
0.0088799
0.010042
0.0107797
0.0111583
0.0112706
0.0112661
0.0112107
0.0111673
0.0111232
0.0111018
0.0110806
0.0110867
0.0101005
0.0100737
0.0100763
0.0100628
0.0100687
0.0100618
0.0100679
0.0100646
0.0100705
0.01007
0.0100761
0.010078
0.0100848
0.010089
0.0100969
0.0101032
0.0101121
0.0101199
0.0101294
0.0101374
0.0101447
0.0101471
0.0101396
0.0101089
0.0100312
0.00986415
0.009543
0.00898153
0.00808866
0.00680345
0.0051275
0.0031404
0.000976792
-0.00120265
-0.00325377
-0.00505755
-0.00653974
-0.00764692
-0.00835997
-0.00865687
-0.00853943
-0.00799021
-0.00701775
-0.00560958
-0.003797
-0.00161083
0.000840425
0.00341589
0.00588738
0.00802785
0.00962656
0.010624
0.0110826
0.0112072
0.0111677
0.0111046
0.011037
0.0109951
0.0109616
0.0109607
0.00988461
0.00985811
0.00985976
0.00984516
0.00984885
0.00983966
0.00984243
0.00983571
0.00983715
0.00983185
0.00983217
0.00982767
0.00982692
0.0098226
0.00982047
0.00981541
0.00981106
0.0098037
0.00979519
0.00978225
0.00976405
0.00973431
0.00968287
0.00958668
0.00940385
0.0090637
0.00846293
0.00747996
0.00601326
0.00403806
0.0016323
-0.00103404
-0.00375819
-0.00634757
-0.00866579
-0.0106219
-0.0121816
-0.0133241
-0.0140607
-0.0143847
-0.0143132
-0.0138276
-0.0129357
-0.0116006
-0.00982336
-0.00757096
-0.0048826
-0.00181862
0.00143116
0.00460178
0.00733938
0.00935873
0.0105393
0.0110317
0.0111007
0.0110337
0.0109411
0.0108708
0.0108207
0.0108092
0.00967911
0.0096537
0.00965442
0.009639
0.00964013
0.00962822
0.00962681
0.00961556
0.00961115
0.00959942
0.00959195
0.00957883
0.00956791
0.00955221
0.00953682
0.00951675
0.00949489
0.00946745
0.00943527
0.00939439
0.00934177
0.00926762
0.00915365
0.00896209
0.00862482
0.00803356
0.00704302
0.00551079
0.00336317
0.000659614
-0.00241447
-0.00560185
-0.00866524
-0.0114254
-0.0137922
-0.0157233
-0.0172288
-0.0183133
-0.0190085
-0.0193136
-0.0192575
-0.0188228
-0.0180296
-0.0168353
-0.0152394
-0.0131691
-0.0106095
-0.00751336
-0.00395523
-0.000100282
0.00369179
0.0069593
0.00928118
0.0105366
0.0109438
0.0109349
0.0108256
0.010721
0.0106488
0.0106218
0.00944115
0.0094162
0.00941562
0.00939882
0.0093971
0.00938216
0.00937645
0.00936056
0.00935026
0.00933203
0.00931664
0.00929463
0.00927303
0.00924519
0.00921529
0.00917851
0.0091367
0.00908593
0.00902556
0.00895068
0.00885483
0.0087232
0.00852566
0.00820447
0.00765774
0.0067355
0.00525893
0.00309701
0.000249997
-0.00310357
-0.00667427
-0.0101564
-0.0133325
-0.0160785
-0.0183698
-0.0202086
-0.021634
-0.0226554
-0.0233076
-0.0235812
-0.0235108
-0.0230774
-0.0223215
-0.0212081
-0.0197631
-0.0179094
-0.0156263
-0.012796
-0.00938735
-0.00539361
-0.00101936
0.00330206
0.00695987
0.00939865
0.0105471
0.0107661
0.0106706
0.0105337
0.0104336
0.0103838
0.00922233
0.00919891
0.00919716
0.0091794
0.00917445
0.00915611
0.00914507
0.0091234
0.00910552
0.00907895
0.00905334
0.00901995
0.00898478
0.00894163
0.00889362
0.00883614
0.00876974
0.00869032
0.00859537
0.00847855
0.00832893
0.00812473
0.00782055
0.0073337
0.00652411
0.00520327
0.00318016
0.000374434
-0.00310358
-0.00695288
-0.0108174
-0.0144
-0.0175495
-0.0202151
-0.0224303
-0.0242202
-0.025629
-0.026649
-0.0273032
-0.0275622
-0.0274613
-0.026977
-0.0261733
-0.0250275
-0.0236073
-0.0218529
-0.01978
-0.0172532
-0.0142021
-0.0104786
-0.00608943
-0.00124803
0.00349642
0.00732298
0.00963155
0.0104582
0.0104466
0.0102942
0.0101636
0.010078
0.00896494
0.00894214
0.00893883
0.0089195
0.00891116
0.00888928
0.00887311
0.00884595
0.00882095
0.00878656
0.00875121
0.00870686
0.00865829
0.00859981
0.00853316
0.00845403
0.0083613
0.00825072
0.00811728
0.00795298
0.00774102
0.00745125
0.00701975
0.00633645
0.00522288
0.00346414
0.000884021
-0.00251334
-0.00649691
-0.0106695
-0.0146635
-0.018238
-0.0213305
-0.0239544
-0.0261799
-0.0280271
-0.0295258
-0.0306332
-0.031352
-0.0316236
-0.031484
-0.0309007
-0.0299657
-0.0286682
-0.027126
-0.0253042
-0.0232759
-0.0209215
-0.0181926
-0.0148749
-0.0108384
-0.00604025
-0.00076104
0.00422597
0.00793935
0.00980697
0.0101351
0.0099633
0.00982891
0.00968269
0.00873849
0.00871766
0.00871305
0.00869277
0.00868069
0.00865494
0.00863251
0.0085986
0.0085646
0.00852034
0.00847273
0.00841476
0.00834972
0.00827268
0.00818378
0.00807915
0.0079557
0.00780909
0.00763135
0.00741257
0.0071291
0.00674131
0.00616519
0.00526311
0.0038232
0.00162031
-0.00148203
-0.00537875
-0.00973138
-0.0140898
-0.0181236
-0.0216739
-0.0247641
-0.0274497
-0.0298132
-0.0318478
-0.0335546
-0.0348434
-0.0356931
-0.0360103
-0.0358325
-0.0351147
-0.0339792
-0.0324243
-0.0306231
-0.0285668
-0.0263981
-0.0240266
-0.0214605
-0.018476
-0.0148961
-0.0104941
-0.00523762
0.000361699
0.0053893
0.00852318
0.00971236
0.00949612
0.00941482
0.00917625
0.00846491
0.00844481
0.00843848
0.00841657
0.00840085
0.00837139
0.00834345
0.00830373
0.00826198
0.00820928
0.0081509
0.00808087
0.00800072
0.00790644
0.00779615
0.00766667
0.00751243
0.00732933
0.00710568
0.00682996
0.00647055
0.00597873
0.00524974
0.00412205
0.00235786
-0.000261125
-0.00381771
-0.00810649
-0.0127121
-0.0171723
-0.021226
-0.0247978
-0.0279822
-0.0308515
-0.0334828
-0.0358246
-0.0378427
-0.0393907
-0.0404262
-0.0408161
-0.0406054
-0.0397305
-0.0383491
-0.0364603
-0.0342953
-0.0318664
-0.0293909
-0.026813
-0.0242151
-0.0213943
-0.0181945
-0.0142902
-0.00943551
-0.00376714
0.00208376
0.00654581
0.00890856
0.00894893
0.00883285
0.00855808
0.00823783
0.0082202
0.00821255
0.0081899
0.00817019
0.00813674
0.008102
0.00805505
0.00800341
0.00794
0.00786806
0.00778315
0.00768474
0.0075701
0.00743505
0.00727747
0.00708894
0.0068659
0.00659257
0.00625611
0.00581671
0.00521751
0.00433467
0.00298807
0.000923094
-0.00206028
-0.00598851
-0.0105719
-0.0153513
-0.0198824
-0.0239841
-0.0276528
-0.0310351
-0.0341997
-0.0372065
-0.0399467
-0.0423499
-0.044209
-0.0454667
-0.0459475
-0.045712
-0.0446725
-0.0430267
-0.040765
-0.0381776
-0.0352867
-0.0323858
-0.0294512
-0.0266461
-0.0238038
-0.0208234
-0.0173554
-0.0130497
-0.00771022
-0.00163259
0.00395061
0.00744559
0.00836819
0.00800045
0.00782317
0.00795145
0.00793452
0.00792515
0.00790102
0.00787779
0.00784099
0.00780097
0.00774869
0.00768957
0.00761822
0.00753565
0.00743907
0.00732544
0.00719371
0.00703676
0.00685413
0.00663378
0.00637358
0.00605274
0.00565843
0.00514208
0.00444164
0.00341609
0.00187472
-0.000447611
-0.00372581
-0.0079404
-0.0127379
-0.0176462
-0.0222505
-0.0264482
-0.0302862
-0.0339498
-0.0374861
-0.0409345
-0.0441198
-0.0469419
-0.0491297
-0.0506227
-0.0511988
-0.0509453
-0.0497427
-0.047837
-0.0451977
-0.0421753
-0.0387866
-0.0353984
-0.0320111
-0.0288705
-0.0258529
-0.0229226
-0.0197569
-0.01597
-0.0111858
-0.00531462
0.000868667
0.00542293
0.00752134
0.00700983
0.00690785
0.00773192
0.00771795
0.0077074
0.00768296
0.00765586
0.00761538
0.00756851
0.00750919
0.00743995
0.007358
0.00726155
0.00715021
0.00701798
0.00686616
0.00668423
0.00647407
0.00621954
0.00592068
0.00555132
0.00509985
0.00450931
0.00371563
0.00256432
0.000861464
-0.0016635
-0.00516125
-0.00958245
-0.0145338
-0.0195508
-0.024248
-0.0285884
-0.0326488
-0.0366425
-0.0405843
-0.0444948
-0.0481291
-0.0513682
-0.053876
-0.0556005
-0.0562684
-0.0560039
-0.0546481
-0.0525047
-0.0495111
-0.0460819
-0.0422104
-0.0383328
-0.0344572
-0.0309114
-0.0276137
-0.0245974
-0.0215929
-0.0182137
-0.0140506
-0.00863897
-0.00244809
0.00301897
0.00609839
0.00597033
0.00570493
0.00743558
0.00742213
0.00741002
0.00738448
0.00735448
0.00731165
0.00726054
0.0071974
0.00712203
0.00703405
0.00692855
0.00680781
0.00666218
0.00649599
0.00629437
0.00606266
0.00577941
0.00544852
0.00503708
0.00453734
0.00388331
0.00301422
0.0017642
-5.45439e-05
-0.00271795
-0.00635465
-0.0109086
-0.0159645
-0.0210816
-0.0258897
-0.0304041
-0.034707
-0.0390383
-0.0433706
-0.0477178
-0.0517627
-0.0553852
-0.0581792
-0.0601173
-0.0608646
-0.0605948
-0.0590977
-0.0567474
-0.053438
-0.0496559
-0.0453526
-0.0410321
-0.0366872
-0.0327273
-0.0290986
-0.0259112
-0.0229493
-0.0198564
-0.016266
-0.0114371
-0.00567405
0.00037413
0.00411824
0.00486859
0.00419938
0.0072327
0.00722269
0.0072097
0.00718454
0.00715111
0.00710541
0.00704792
0.00697863
0.00689366
0.0067962
0.00667753
0.00654364
0.0063806
0.0061968
0.00597231
0.00571706
0.00540351
0.00504075
0.00458846
0.00404487
0.0033352
0.00240656
0.00108494
-0.000803967
-0.00354111
-0.00723911
-0.0118564
-0.0169739
-0.0221827
-0.0271116
-0.03181
-0.0363453
-0.040983
-0.0456507
-0.0503716
-0.0547586
-0.0587081
-0.0617411
-0.0638677
-0.0646813
-0.0644152
-0.0627959
-0.0602787
-0.0567037
-0.0526395
-0.0479794
-0.0432967
-0.0385433
-0.0342113
-0.0302518
-0.0268626
-0.0238627
-0.0209602
-0.0178395
-0.0136369
-0.00853031
-0.00237097
0.00176246
0.00347751
0.00238433
0.00692787
0.00691793
0.00690373
0.00687811
0.00684297
0.0067967
0.00673693
0.00666654
0.00657799
0.00647802
0.00635337
0.00621441
0.00604166
0.00584887
0.00560941
0.00533975
0.0050042
0.00461987
0.00413663
0.00356288
0.00281305
0.00184917
0.000488844
-0.00141842
-0.00416295
-0.00784199
-0.0124536
-0.0175839
-0.0228684
-0.0279109
-0.0327835
-0.0375112
-0.0423931
-0.0473057
-0.0523076
-0.0569396
-0.0611401
-0.0643474
-0.0666283
-0.067489
-0.0672367
-0.0655177
-0.0628808
-0.0590976
-0.0548313
-0.0499007
-0.0449558
-0.0398803
-0.035255
-0.0310047
-0.0274306
-0.0243529
-0.0215804
-0.0188182
-0.0152293
-0.0108552
-0.00504836
-0.000797008
0.00158523
0.000269596
0.00675149
0.00674545
0.00673079
0.00670649
0.00666866
0.00662082
0.00655555
0.00648062
0.00638353
0.00627617
0.00613982
0.00599067
0.00580283
0.00559686
0.00533834
0.00505198
0.00469259
0.00428741
0.003775
0.00317695
0.00239587
0.00141391
4.10856e-05
-0.00184158
-0.00453488
-0.00812153
-0.0126571
-0.0177449
-0.023075
-0.02821
-0.0332303
-0.0380949
-0.0431395
-0.0481875
-0.0533568
-0.0581198
-0.0624794
-0.0657854
-0.0681781
-0.0690648
-0.0688393
-0.0670522
-0.0643545
-0.0604327
-0.0560542
-0.0509469
-0.0458487
-0.0405503
-0.0357314
-0.031257
-0.0275495
-0.0243897
-0.0217208
-0.0192241
-0.016202
-0.0125444
-0.00741697
-0.00331654
-0.00066927
-0.00196406
0.00643726
0.00643054
0.00641516
0.00639134
0.0063536
0.00630786
0.00624326
0.00617134
0.00607445
0.00596981
0.00583193
0.00568402
0.00549165
0.00528441
0.00501734
0.00472654
0.00435394
0.00394117
0.00341145
0.0028054
0.00200924
0.00103381
-0.000323055
-0.00213643
-0.00472406
-0.00814386
-0.01253
-0.0175037
-0.0228336
-0.0280201
-0.0331526
-0.0380884
-0.0432102
-0.0482731
-0.0534883
-0.0582534
-0.0626689
-0.0659832
-0.0684356
-0.069318
-0.0691304
-0.0673075
-0.0646149
-0.0606293
-0.0562346
-0.0510442
-0.0459025
-0.0404811
-0.0355775
-0.0309595
-0.0271931
-0.0239737
-0.0214104
-0.0191094
-0.0165886
-0.0135766
-0.00927977
-0.00554856
-0.00294049
-0.00406166
0.00629796
0.00629559
0.00628025
0.0062589
0.0062194
0.00617382
0.00610484
0.00603057
0.00592641
0.00581721
0.00566934
0.0055152
0.00531039
0.0050957
0.00481389
0.0045149
0.00412556
0.00370491
0.00315807
0.00254862
0.00174325
0.000787014
-0.000537387
-0.00225284
-0.00469572
-0.00788889
-0.0120542
-0.0168341
-0.022098
-0.0272812
-0.0324818
-0.0374292
-0.0425505
-0.0475197
-0.0526622
-0.0573025
-0.0616649
-0.0648934
-0.067347
-0.0681925
-0.0680517
-0.0662274
-0.0636091
-0.0596383
-0.0553245
-0.0501411
-0.0450599
-0.039608
-0.0347254
-0.0300457
-0.0263034
-0.023061
-0.0206245
-0.0184722
-0.0163883
-0.0139255
-0.0104779
-0.00724785
-0.0048617
-0.00575476
0.0059699
0.00596567
0.00595027
0.00593067
0.00589373
0.00585408
0.00578975
0.00572423
0.00562519
0.00552581
0.00538188
0.00523718
0.00503383
0.00482743
0.00454399
0.00425223
0.00385846
0.00344554
0.00289384
0.00229809
0.00149723
0.000581032
-0.000693169
-0.00228145
-0.00454914
-0.00746057
-0.0113384
-0.0158311
-0.0209473
-0.0260482
-0.031268
-0.0361698
-0.0412357
-0.0460213
-0.050996
-0.0553936
-0.059604
-0.0626506
-0.0650476
-0.0658165
-0.0657286
-0.0639275
-0.0614467
-0.0575567
-0.0534123
-0.0483103
-0.0433826
-0.0379786
-0.033218
-0.028554
-0.0249247
-0.0217019
-0.0194286
-0.0173915
-0.0156881
-0.0136604
-0.0109926
-0.00829211
-0.0062233
-0.00688426
0.00587918
0.00587979
0.00586493
0.00584923
0.00581147
0.00577412
0.0057064
0.00564113
0.00553578
0.00543509
0.00528241
0.00513585
0.00492208
0.00471442
0.00441963
0.00412854
0.00372362
0.00331556
0.0027557
0.00217492
0.00137886
0.000507972
-0.000712813
-0.0021648
-0.00424733
-0.00684823
-0.010389
-0.014509
-0.0193816
-0.0243054
-0.0294799
-0.034287
-0.0392623
-0.0438132
-0.0485581
-0.05263
-0.0566077
-0.0593936
-0.0616804
-0.0623369
-0.0623018
-0.0605403
-0.0582449
-0.0544842
-0.0505772
-0.0456111
-0.0409106
-0.0356147
-0.0310623
-0.0264779
-0.0230423
-0.0198757
-0.0178057
-0.0158588
-0.0144963
-0.0127948
-0.0108102
-0.00859783
-0.00688351
-0.00732118
0.005528
0.00552502
0.00551091
0.00549876
0.00546682
0.00544075
0.00538281
0.00533409
0.00523984
0.00515817
0.00501552
0.00488846
0.00468216
0.00449371
0.00420345
0.00393197
0.00352954
0.00314403
0.00258781
0.00203912
0.00125791
0.000448654
-0.000712375
-0.00201509
-0.00391089
-0.00618107
-0.0093554
-0.0130225
-0.017556
-0.022183
-0.0272328
-0.0318817
-0.0367498
-0.0410401
-0.0455418
-0.0492416
-0.0529481
-0.0554141
-0.0575579
-0.0580644
-0.0580816
-0.0563551
-0.0542757
-0.0506604
-0.047037
-0.0422329
-0.0378208
-0.0326761
-0.0284159
-0.0239644
-0.0208074
-0.0177262
-0.0159102
-0.0140265
-0.0129818
-0.0114901
-0.0100742
-0.00823452
-0.00684418
-0.00705695
0.00549881
0.00550129
0.00548816
0.00548177
0.00544972
0.00542857
0.00536762
0.00532205
0.00522136
0.0051417
0.00499005
0.00486547
0.00464888
0.00446514
0.00416456
0.00390192
0.00349064
0.00312098
0.00256038
0.00204062
0.00126832
0.000518651
-0.000590939
-0.00175205
-0.00347855
-0.00542948
-0.00823883
-0.0114109
-0.0155246
-0.0197373
-0.0245583
-0.0289707
-0.0337045
-0.0377306
-0.0420053
-0.0453378
-0.0487731
-0.0509015
-0.0528874
-0.0532211
-0.0532819
-0.0515754
-0.0497149
-0.0462378
-0.0429144
-0.0382788
-0.034196
-0.0292308
-0.0253292
-0.0210441
-0.0182317
-0.0152443
-0.0137242
-0.0118702
-0.0111375
-0.00975345
-0.00882246
-0.00722625
-0.00610009
-0.00607248
0.00510868
0.00510506
0.00509373
0.00509361
0.00507166
0.00506951
0.00502471
0.00500643
0.00492367
0.00487494
0.00473952
0.00464652
0.00444257
0.00429018
0.00399838
0.00376793
0.0033628
0.00302926
0.00247544
0.00200222
0.0012457
0.000569254
-0.000490381
-0.00150684
-0.00308342
-0.00472778
-0.00719739
-0.00985588
-0.0135054
-0.0171915
-0.0216775
-0.0257392
-0.0302947
-0.0340306
-0.0381136
-0.0410981
-0.0443084
-0.0461046
-0.0479556
-0.0480971
-0.0482064
-0.0464861
-0.0448446
-0.0414736
-0.0384663
-0.0339904
-0.0302902
-0.0255235
-0.0220627
-0.0179639
-0.0155767
-0.0126754
-0.0115114
-0.00963754
-0.00923582
-0.00783774
-0.00732153
-0.00578502
-0.0048219
-0.00450864
0.00515601
0.00515882
0.00514879
0.0051573
0.00513545
0.00514171
0.00509289
0.00508095
0.00498935
0.00494583
0.0047983
0.0047117
0.0044944
0.00435198
0.0040472
0.0038326
0.00341642
0.00310753
0.00254708
0.00211256
0.00136019
0.000749302
-0.000275817
-0.00116439
-0.00262282
-0.00399918
-0.00617858
-0.0083562
-0.0115423
-0.0146445
-0.0187012
-0.0222989
-0.0265929
-0.0299905
-0.033885
-0.0365466
-0.0395772
-0.0410753
-0.0428223
-0.042778
-0.0429376
-0.0411837
-0.0397496
-0.0364618
-0.0337774
-0.0294599
-0.0261832
-0.0216271
-0.0186605
-0.0147401
-0.01282
-0.00996414
-0.00919031
-0.00722873
-0.00718547
-0.00566348
-0.00555226
-0.00392251
-0.00306972
-0.00241662
0.00470223
0.00469529
0.00468853
0.00470786
0.00470173
0.00473876
0.00471369
0.00474435
0.00467789
0.00468116
0.00455528
0.0045152
0.00431377
0.00421648
0.00392172
0.00375231
0.00334176
0.00308162
0.00252541
0.00214914
0.00140577
0.00087444