/*--------------------------------*- C++ -*----------------------------------*\
| =========                 |                                                 |
| \\      /  F ield         | OpenFOAM: The Open Source CFD Toolbox           |
|  \\    /   O peration     | Version:  2406                                  |
|   \\  /    A nd           | Website:  www.openfoam.com                      |
|    \\/     M anipulation  |                                                 |
\*---------------------------------------------------------------------------*/
FoamFile
{
    version     2.0;
    format      ascii;
    arch        "LSB;label=32;scalar=64";
    class       volVectorField;
    location    "22.2";
    object      U;
}
// * * * * * * * * * * * * * * * * * * * * * * * * * * * * * * * * * * * * * //

dimensions      [0 1 -1 0 0 0 0];

internalField   nonuniform List<vector> 
3600
(
(1.39166e-05 -1.38031e-05 0)
(0.00011388 -3.3485e-05 0)
(0.000268419 -4.28225e-05 0)
(0.000431527 -3.85284e-05 0)
(0.000560045 -2.77131e-05 0)
(0.000637414 -1.39669e-05 0)
(0.000656481 1.45343e-07 0)
(0.000615516 1.41274e-05 0)
(0.000514633 2.76329e-05 0)
(0.000353451 4.07237e-05 0)
(0.000130819 5.37351e-05 0)
(-0.000155938 6.72367e-05 0)
(-0.000512117 8.21251e-05 0)
(-0.000946865 9.9637e-05 0)
(-0.00147409 0.000121171 0)
(-0.00211261 0.000148015 0)
(-0.00288512 0.000181046 0)
(-0.003816 0.000220492 0)
(-0.00492833 0.000265811 0)
(-0.00624027 0.000315643 0)
(-0.00776128 0.000367814 0)
(-0.00948814 0.000419331 0)
(-0.0114011 0.000466358 0)
(-0.0134602 0.000504196 0)
(-0.0156028 0.000527286 0)
(-0.0177423 0.000529319 0)
(-0.0197692 0.00050345 0)
(-0.0215555 0.000442933 0)
(-0.0229628 0.000343588 0)
(-0.0238484 0.000206168 0)
(-0.0240747 2.96538e-05 0)
(-0.0235376 -0.00018806 0)
(-0.0221757 -0.000428637 0)
(-0.019965 -0.000673875 0)
(-0.0169461 -0.000903479 0)
(-0.0132232 -0.001095 0)
(-0.0089628 -0.00122708 0)
(-0.00438577 -0.00128264 0)
(0.00024893 -0.00125205 0)
(0.00466694 -0.00113563 0)
(0.00860654 -0.000944668 0)
(0.0118481 -0.000700564 0)
(0.0142397 -0.000431441 0)
(0.0157146 -0.000166615 0)
(0.0162994 6.6625e-05 0)
(0.0160877 0.000244194 0)
(0.0152319 0.00036668 0)
(0.013921 0.000440096 0)
(0.0123369 0.000469102 0)
(0.0106364 0.000463732 0)
(0.00894138 0.000435828 0)
(0.00733545 0.000395548 0)
(0.00586633 0.000350745 0)
(0.00455291 0.000306939 0)
(0.00339432 0.000267149 0)
(0.00238056 0.0002315 0)
(0.00150574 0.000195632 0)
(0.000779287 0.000152888 0)
(0.000266914 8.74143e-05 0)
(2.06069e-05 1.8747e-05 0)
(3.46587e-05 -0.000114683 0)
(0.000276686 -0.000272084 0)
(0.00059238 -0.000324791 0)
(0.00090266 -0.000284991 0)
(0.00112188 -0.000191839 0)
(0.00121401 -7.37262e-05 0)
(0.00115862 5.40646e-05 0)
(0.000943079 0.000186299 0)
(0.000556273 0.000322161 0)
(-1.38777e-05 0.000462949 0)
(-0.000782045 0.00061115 0)
(-0.00176648 0.000770828 0)
(-0.00299072 0.000948198 0)
(-0.00448547 0.00115155 0)
(-0.00628959 0.00139001 0)
(-0.00844899 0.00167138 0)
(-0.0110127 0.00199969 0)
(-0.0140259 0.00237304 0)
(-0.0175217 0.00278218 0)
(-0.0215105 0.00320978 0)
(-0.0259707 0.00363034 0)
(-0.03084 0.00401059 0)
(-0.0360093 0.00431066 0)
(-0.0413212 0.00448616 0)
(-0.0465737 0.00449157 0)
(-0.0515292 0.00428482 0)
(-0.05593 0.00383259 0)
(-0.0595147 0.00311584 0)
(-0.062037 0.00213505 0)
(-0.0632872 0.000912749 0)
(-0.063106 -0.000510842 0)
(-0.061382 -0.0020766 0)
(-0.0580781 -0.00369655 0)
(-0.0532316 -0.00527393 0)
(-0.0469548 -0.00670293 0)
(-0.0394368 -0.00787748 0)
(-0.0309409 -0.00869966 0)
(-0.0217977 -0.00909049 0)
(-0.0123911 -0.00900092 0)
(-0.00313848 -0.00842196 0)
(0.0055369 -0.00739123 0)
(0.0132395 -0.0059939 0)
(0.0196375 -0.0043556 0)
(0.024496 -0.00262726 0)
(0.0277004 -0.000963688 0)
(0.0292722 0.000495119 0)
(0.0293625 0.00166154 0)
(0.02821 0.0024988 0)
(0.0261117 0.00300555 0)
(0.0233856 0.00322336 0)
(0.020323 0.00321755 0)
(0.0171615 0.00305915 0)
(0.0140746 0.00281327 0)
(0.0111726 0.00253165 0)
(0.00851367 0.00224757 0)
(0.00612339 0.00197129 0)
(0.00402092 0.00168408 0)
(0.00223517 0.00133626 0)
(0.000907147 0.00085421 0)
(0.000103477 0.000278732 0)
(4.57257e-05 -0.000274956 0)
(0.000336798 -0.000590816 0)
(0.00067032 -0.000659668 0)
(0.00095896 -0.000541614 0)
(0.00110327 -0.0003116 0)
(0.00105848 -2.25132e-05 0)
(0.000791766 0.000298644 0)
(0.000275212 0.00064296 0)
(-0.000520404 0.00101111 0)
(-0.00162761 0.00140735 0)
(-0.00308338 0.00183797 0)
(-0.00493014 0.00231222 0)
(-0.0072173 0.00284323 0)
(-0.0100024 0.00344729 0)
(-0.0133499 0.00414042 0)
(-0.017327 0.00493302 0)
(-0.021994 0.00582388 0)
(-0.0273917 0.00679521 0)
(-0.033527 0.00780971 0)
(-0.0403583 0.00881011 0)
(-0.0477851 0.00972108 0)
(-0.0556425 0.0104538 0)
(-0.0637048 0.0109131 0)
(-0.0716973 0.0110067 0)
(-0.0793154 0.0106562 0)
(-0.0862469 0.00980605 0)
(-0.0921932 0.00843079 0)
(-0.0968854 0.00653794 0)
(-0.100096 0.00416801 0)
(-0.101648 0.00139129 0)
(-0.101415 -0.00169362 0)
(-0.0993197 -0.00496045 0)
(-0.0953401 -0.00826665 0)
(-0.0895151 -0.0114514 0)
(-0.0819447 -0.014343 0)
(-0.0727967 -0.0167672 0)
(-0.0623098 -0.0185586 0)
(-0.050796 -0.019575 0)
(-0.0386358 -0.0197151 0)
(-0.0262676 -0.0189361 0)
(-0.0141664 -0.017268 0)
(-0.00281419 -0.0148214 0)
(0.00733772 -0.0117837 0)
(0.0159087 -0.00840189 0)
(0.0226256 -0.00495235 0)
(0.0273548 -0.00170191 0)
(0.0301123 0.00112345 0)
(0.0310423 0.00336581 0)
(0.0303993 0.00496682 0)
(0.0285229 0.00594621 0)
(0.0257723 0.00638649 0)
(0.0224875 0.00640803 0)
(0.0189584 0.00614161 0)
(0.0154071 0.00570531 0)
(0.0119883 0.00518654 0)
(0.00880246 0.00462723 0)
(0.00592442 0.0040103 0)
(0.00341377 0.0032543 0)
(0.00147597 0.00222264 0)
(0.000186094 0.000859255 0)
(4.26201e-05 -0.000447473 0)
(0.000293871 -0.000901129 0)
(0.000529021 -0.000940939 0)
(0.000659246 -0.000690808 0)
(0.000587727 -0.000263588 0)
(0.000266017 0.000266535 0)
(-0.00035063 0.000865574 0)
(-0.00130906 0.00152598 0)
(-0.00266235 0.00225294 0)
(-0.00447036 0.00305606 0)
(-0.00679956 0.00394747 0)
(-0.00972332 0.00494333 0)
(-0.0133225 0.00606463 0)
(-0.0176843 0.00733441 0)
(-0.0228966 0.00877042 0)
(-0.0290369 0.0103747 0)
(-0.0361564 0.0121232 0)
(-0.0442607 0.0139586 0)
(-0.0532926 0.0157878 0)
(-0.0631204 0.0174862 0)
(-0.0735363 0.0189073 0)
(-0.0842667 0.0198974 0)
(-0.0949928 0.0203128 0)
(-0.105377 0.0200366 0)
(-0.115087 0.0189898 0)
(-0.123817 0.0171376 0)
(-0.131293 0.0144884 0)
(-0.137284 0.0110906 0)
(-0.141595 0.0070275 0)
(-0.144069 0.00241347 0)
(-0.144584 -0.00260962 0)
(-0.14305 -0.00787456 0)
(-0.139412 -0.0131878 0)
(-0.133666 -0.0183356 0)
(-0.125853 -0.023085 0)
(-0.116075 -0.0271921 0)
(-0.104507 -0.0304145 0)
(-0.0914075 -0.0325296 0)
(-0.0771231 -0.0333586 0)
(-0.0620886 -0.0327934 0)
(-0.0468134 -0.0308225 0)
(-0.0318562 -0.0275495 0)
(-0.0177844 -0.0231976 0)
(-0.00512422 -0.0180949 0)
(0.00569021 -0.0126381 0)
(0.0143609 -0.00724223 0)
(0.0207419 -0.00228804 0)
(0.0248628 0.00192542 0)
(0.0268977 0.00522387 0)
(0.0271267 0.00755513 0)
(0.0259063 0.00897435 0)
(0.0236188 0.00961839 0)
(0.0206297 0.00966758 0)
(0.017256 0.00930679 0)
(0.0137512 0.00869007 0)
(0.0103059 0.00790945 0)
(0.00706943 0.00696787 0)
(0.00415299 0.0057621 0)
(0.00183744 0.00408163 0)
(0.000236516 0.00169171 0)
(3.01163e-05 -0.000581265 0)
(0.000171113 -0.00109356 0)
(0.0002111 -0.00103234 0)
(6.7273e-05 -0.000586912 0)
(-0.000341848 9.75241e-05 0)
(-0.00106791 0.000935623 0)
(-0.00217 0.00189643 0)
(-0.00371922 0.00298135 0)
(-0.00579909 0.00420468 0)
(-0.00850324 0.00558394 0)
(-0.0119335 0.00713862 0)
(-0.0161989 0.00889219 0)
(-0.0214141 0.0108714 0)
(-0.0276929 0.0130994 0)
(-0.035136 0.0155819 0)
(-0.0438107 0.0182911 0)
(-0.0537284 0.0211524 0)
(-0.0648234 0.0240384 0)
(-0.0769414 0.0267745 0)
(-0.0898418 0.0291547 0)
(-0.103215 0.030965 0)
(-0.116709 0.0320091 0)
(-0.129963 0.0321299 0)
(-0.142628 0.0312216 0)
(-0.154384 0.0292332 0)
(-0.16495 0.0261648 0)
(-0.174081 0.022062 0)
(-0.181567 0.0170078 0)
(-0.187234 0.011117 0)
(-0.190934 0.00453383 0)
(-0.192548 -0.00256887 0)
(-0.191975 -0.00999414 0)
(-0.18913 -0.0175199 0)
(-0.183968 -0.0248933 0)
(-0.176464 -0.0318338 0)
(-0.166642 -0.0380357 0)
(-0.154584 -0.0431809 0)
(-0.140454 -0.0469561 0)
(-0.124519 -0.0490818 0)
(-0.107162 -0.0493473 0)
(-0.0888888 -0.0476517 0)
(-0.0703125 -0.0440395 0)
(-0.0521194 -0.0387231 0)
(-0.035008 -0.0320796 0)
(-0.0196149 -0.0246161 0)
(-0.00644266 -0.0169056 0)
(0.00419138 -0.00950658 0)
(0.012178 -0.00288301 0)
(0.0175992 0.00263113 0)
(0.0206841 0.00687164 0)
(0.021766 0.0098286 0)
(0.0212379 0.0116173 0)
(0.0195062 0.0124363 0)
(0.0169545 0.0125181 0)
(0.0139187 0.0120782 0)
(0.0106758 0.0112656 0)
(0.0074566 0.0101166 0)
(0.00444063 0.00851722 0)
(0.00198497 0.00617799 0)
(0.000256918 0.0026513 0)
(9.86509e-06 -0.000642943 0)
(-1.61933e-05 -0.00109488 0)
(-0.000253304 -0.00083955 0)
(-0.000769955 -0.000124545 0)
(-0.00162362 0.000885658 0)
(-0.00287208 0.00211011 0)
(-0.00459426 0.00353398 0)
(-0.00689247 0.00517582 0)
(-0.00988739 0.00706344 0)
(-0.0137118 0.0092241 0)
(-0.0185068 0.0116848 0)
(-0.0244181 0.0144743 0)
(-0.0315899 0.017618 0)
(-0.0401508 0.0211244 0)
(-0.0501915 0.0249635 0)
(-0.0617366 0.0290467 0)
(-0.07472 0.0332153 0)
(-0.0889716 0.0372459 0)
(-0.104222 0.0408716 0)
(-0.120125 0.0438144 0)
(-0.13629 0.0458191 0)
(-0.152317 0.0466801 0)
(-0.167821 0.0462555 0)
(-0.182451 0.0444699 0)
(-0.195901 0.0413104 0)
(-0.207915 0.0368185 0)
(-0.218285 0.0310801 0)
(-0.226852 0.0242162 0)
(-0.233495 0.016373 0)
(-0.238116 0.00771946 0)
(-0.240637 -0.00155159 0)
(-0.240992 -0.011226 0)
(-0.2391 -0.0210764 0)
(-0.234885 -0.0308342 0)
(-0.228258 -0.0401985 0)
(-0.219147 -0.0488257 0)
(-0.207502 -0.0563397 0)
(-0.193334 -0.0623407 0)
(-0.176745 -0.0664354 0)
(-0.157972 -0.0682753 0)
(-0.13742 -0.0676118 0)
(-0.115674 -0.0643551 0)
(-0.0934926 -0.0586263 0)
(-0.0717517 -0.0507851 0)
(-0.0513504 -0.041414 0)
(-0.0330934 -0.0312507 0)
(-0.0175771 -0.0210775 0)
(-0.00512174 -0.0115994 0)
(0.0042335 -0.00335096 0)
(0.0106746 0.0033486 0)
(0.014536 0.00839357 0)
(0.0162354 0.0118536 0)
(0.0162197 0.0139227 0)
(0.0149272 0.0148614 0)
(0.0127614 0.0149344 0)
(0.0100759 0.0143439 0)
(0.0071801 0.013164 0)
(0.00432806 0.0112762 0)
(0.00194391 0.00831688 0)
(0.000250043 0.00363644 0)
(-1.81017e-05 -0.000602558 0)
(-0.000262881 -0.00083853 0)
(-0.00084967 -0.000276446 0)
(-0.00182801 0.000793509 0)
(-0.00322494 0.00220916 0)
(-0.00511035 0.00391495 0)
(-0.00759098 0.00592718 0)
(-0.0108081 0.00828956 0)
(-0.0149251 0.0110462 0)
(-0.0201172 0.0142337 0)
(-0.0265642 0.0178839 0)
(-0.0344432 0.0220233 0)
(-0.0439143 0.026661 0)
(-0.055096 0.0317654 0)
(-0.068033 0.0372368 0)
(-0.0826653 0.0428887 0)
(-0.0988109 0.0484498 0)
(-0.116169 0.0535891 0)
(-0.134348 0.0579559 0)
(-0.152897 0.0612238 0)
(-0.171352 0.0631245 0)
(-0.189262 0.0634679 0)
(-0.206225 0.0621488 0)
(-0.2219 0.059144 0)
(-0.236025 0.0545022 0)
(-0.248416 0.0483286 0)
(-0.258964 0.0407686 0)
(-0.267619 0.0319918 0)
(-0.274372 0.0221793 0)
(-0.279227 0.0115178 0)
(-0.282189 0.000198674 0)
(-0.283255 -0.0115793 0)
(-0.282381 -0.0236045 0)
(-0.279477 -0.0356355 0)
(-0.274406 -0.0473907 0)
(-0.266995 -0.0585342 0)
(-0.257044 -0.0686705 0)
(-0.244364 -0.0773454 0)
(-0.228814 -0.084063 0)
(-0.21037 -0.0883222 0)
(-0.189185 -0.0896752 0)
(-0.165654 -0.087807 0)
(-0.140455 -0.0826248 0)
(-0.114539 -0.0743364 0)
(-0.0890559 -0.0634892 0)
(-0.0652052 -0.0509364 0)
(-0.0440426 -0.0377176 0)
(-0.0262978 -0.0248753 0)
(-0.0122798 -0.0132704 0)
(-0.0019074 -0.00346992 0)
(0.00517107 0.00427191 0)
(0.00944441 0.00995899 0)
(0.0114426 0.0137745 0)
(0.0116831 0.0160018 0)
(0.0106452 0.0169481 0)
(0.00875731 0.016865 0)
(0.00640408 0.0158633 0)
(0.0039136 0.0138259 0)
(0.0017628 0.0103289 0)
(0.000223942 0.00456199 0)
(-5.42971e-05 -0.000431018 0)
(-0.000570138 -0.000261303 0)
(-0.00157638 0.000736754 0)
(-0.00310055 0.00225768 0)
(-0.0051364 0.00417281 0)
(-0.00777467 0.00647733 0)
(-0.0111589 0.009234 0)
(-0.0154762 0.0125175 0)
(-0.0209354 0.0163876 0)
(-0.0277529 0.0208865 0)
(-0.0361403 0.0260425 0)
(-0.046291 0.0318641 0)
(-0.058354 0.0383177 0)
(-0.0723984 0.0452945 0)
(-0.0883753 0.0525833 0)
(-0.106093 0.0598658 0)
(-0.125216 0.0667407 0)
(-0.14529 0.0727722 0)
(-0.165783 0.0775442 0)
(-0.186137 0.0807075 0)
(-0.205813 0.0820107 0)
(-0.224335 0.0813155 0)
(-0.241323 0.0785962 0)
(-0.256517 0.0739259 0)
(-0.269773 0.067453 0)
(-0.281055 0.0593737 0)
(-0.29041 0.049905 0)
(-0.297942 0.0392652 0)
(-0.303781 0.0276598 0)
(-0.308055 0.0152753 0)
(-0.310869 0.00227565 0)
(-0.312294 -0.0111858 0)
(-0.31234 -0.0249429 0)
(-0.310935 -0.0388202 0)
(-0.307932 -0.0525996 0)
(-0.303094 -0.0660068 0)
(-0.296106 -0.0786851 0)
(-0.28659 -0.0901854 0)
(-0.274144 -0.0999614 0)
(-0.258408 -0.10739 0)
(-0.239151 -0.111819 0)
(-0.216374 -0.112646 0)
(-0.190421 -0.109438 0)
(-0.162057 -0.102065 0)
(-0.132474 -0.0908205 0)
(-0.103197 -0.0764882 0)
(-0.0758497 -0.060281 0)
(-0.051847 -0.0436419 0)
(-0.0320969 -0.0279421 0)
(-0.016872 -0.0142042 0)
(-0.00590269 -0.00297695 0)
(0.00139417 0.00561646 0)
(0.00570242 0.0117433 0)
(0.00768587 0.0157241 0)
(0.00794351 0.0179219 0)
(0.00700125 0.0186446 0)
(0.00532606 0.0180455 0)
(0.00332075 0.0160173 0)
(0.00150318 0.0120972 0)
(0.000188185 0.0053726 0)
(-9.97369e-05 -9.6392e-05 0)
(-0.000942536 0.000700169 0)
(-0.00243831 0.00227762 0)
(-0.00459118 0.00435628 0)
(-0.00736152 0.006882 0)
(-0.0108717 0.00992932 0)
(-0.0153105 0.0136209 0)
(-0.0209146 0.0180635 0)
(-0.0279366 0.0233276 0)
(-0.0366255 0.0294507 0)
(-0.0472087 0.0364411 0)
(-0.0598673 0.0442622 0)
(-0.0746976 0.0527976 0)
(-0.0916663 0.0618145 0)
(-0.110575 0.0709479 0)
(-0.131051 0.079721 0)
(-0.152567 0.0875974 0)
(-0.174493 0.0940505 0)
(-0.196154 0.0986281 0)
(-0.216901 0.101002 0)
(-0.236175 0.100998 0)
(-0.253557 0.0985942 0)
(-0.268793 0.0939071 0)
(-0.281791 0.0871518 0)
(-0.2926 0.0786015 0)
(-0.301374 0.0685475 0)
(-0.308336 0.057269 0)
(-0.313735 0.0450132 0)
(-0.317823 0.0319866 0)
(-0.320829 0.0183517 0)
(-0.32294 0.00422902 0)
(-0.324286 -0.0102874 0)
(-0.32493 -0.0251072 0)
(-0.324855 -0.0401396 0)
(-0.323948 -0.0552657 0)
(-0.321985 -0.0703149 0)
(-0.318622 -0.0850325 0)
(-0.313388 -0.099051 0)
(-0.305703 -0.111865 0)
(-0.294916 -0.122818 0)
(-0.28038 -0.131124 0)
(-0.261579 -0.135917 0)
(-0.238279 -0.136368 0)
(-0.210704 -0.131847 0)
(-0.17968 -0.122127 0)
(-0.146681 -0.107582 0)
(-0.113709 -0.0892912 0)
(-0.0829599 -0.0689514 0)
(-0.0563257 -0.0485491 0)
(-0.0349305 -0.0298679 0)
(-0.018957 -0.0140802 0)
(-0.00785997 -0.00163969 0)
(-0.000762902 0.00754358 0)
(0.00323997 0.0138455 0)
(0.00495398 0.0177235 0)
(0.00505986 0.0195743 0)
(0.00413692 0.0196157 0)
(0.00267376 0.0177705 0)
(0.00122768 0.0135654 0)
(0.000152291 0.00604678 0)
(-0.000155744 0.00043674 0)
(-0.00138542 0.00211174 0)
(-0.00344141 0.0044234 0)
(-0.00630518 0.00717707 0)
(-0.00990549 0.0104436 0)
(-0.0144078 0.0144064 0)
(-0.0200518 0.0192566 0)
(-0.0271225 0.0251282 0)
(-0.0359074 0.0320896 0)
(-0.0466708 0.0401558 0)
(-0.059627 0.049287 0)
(-0.0749024 0.0593596 0)
(-0.092484 0.0701225 0)
(-0.112174 0.0811674 0)
(-0.133565 0.0919383 0)
(-0.15606 0.101785 0)
(-0.178917 0.11005 0)
(-0.201336 0.116152 0)
(-0.222548 0.119669 0)
(-0.241908 0.120379 0)
(-0.258958 0.118273 0)
(-0.273461 0.113521 0)
(-0.285387 0.106428 0)
(-0.29488 0.0973643 0)
(-0.302204 0.0867173 0)
(-0.307689 0.0748461 0)
(-0.31169 0.0620568 0)
(-0.314549 0.0485918 0)
(-0.316573 0.0346293 0)
(-0.31803 0.0202886 0)
(-0.319133 0.00564113 0)
(-0.320037 -0.00927664 0)
(-0.320839 -0.0244517 0)
(-0.32158 -0.0398759 0)
(-0.322218 -0.0555314 0)
(-0.322616 -0.0713664 0)
(-0.322512 -0.0872651 0)
(-0.321493 -0.103009 0)
(-0.318969 -0.118233 0)
(-0.314178 -0.132383 0)
(-0.306206 -0.144686 0)
(-0.294084 -0.154153 0)
(-0.276932 -0.159644 0)
(-0.254185 -0.160007 0)
(-0.225855 -0.154313 0)
(-0.192774 -0.14216 0)
(-0.15672 -0.123987 0)
(-0.120281 -0.101253 0)
(-0.086378 -0.0763117 0)
(-0.0575007 -0.0518763 0)
(-0.0349893 -0.0302258 0)
(-0.0188333 -0.0126248 0)
(-0.0081072 0.000687055 0)
(-0.0015962 0.0100985 0)
(0.00182973 0.016212 0)
(0.0031052 0.0195781 0)
(0.00298494 0.0205317 0)
(0.00207524 0.0190654 0)
(0.00098901 0.0147328 0)
(0.000124061 0.00659425 0)
(-0.000223467 0.00120704 0)
(-0.00190248 0.00404112 0)
(-0.00458816 0.00725049 0)
(-0.00824227 0.0108064 0)
(-0.0127648 0.0149635 0)
(-0.0183744 0.0200413 0)
(-0.0253626 0.0263007 0)
(-0.0340545 0.0338889 0)
(-0.0447545 0.0428514 0)
(-0.0577141 0.0531512 0)
(-0.0730927 0.0646581 0)
(-0.0909051 0.0771062 0)
(-0.110964 0.0900499 0)
(-0.132844 0.102857 0)
(-0.155883 0.114757 0)
(-0.179239 0.12494 0)
(-0.201985 0.132674 0)
(-0.223233 0.137417 0)
(-0.24225 0.138885 0)
(-0.258545 0.137075 0)
(-0.271907 0.132224 0)
(-0.282379 0.124739 0)
(-0.290207 0.115107 0)
(-0.295767 0.103825 0)
(-0.299492 0.0913439 0)
(-0.30182 0.0780352 0)
(-0.30315 0.0641828 0)
(-0.303826 0.0499854 0)
(-0.304129 0.0355679 0)
(-0.304284 0.0209967 0)
(-0.30447 0.00629559 0)
(-0.304816 -0.00854292 0)
(-0.305423 -0.0235535 0)
(-0.306363 -0.0387831 0)
(-0.307669 -0.0542829 0)
(-0.30932 -0.070095 0)
(-0.311207 -0.0862319 0)
(-0.313098 -0.102644 0)
(-0.314583 -0.119169 0)
(-0.315028 -0.135472 0)
(-0.313537 -0.150975 0)
(-0.308967 -0.164795 0)
(-0.300001 -0.175719 0)
(-0.285338 -0.182268 0)
(-0.263981 -0.182863 0)
(-0.23562 -0.176153 0)
(-0.201026 -0.161462 0)
(-0.162286 -0.139282 0)
(-0.122688 -0.111578 0)
(-0.0860418 -0.0816027 0)
(-0.0555246 -0.0530184 0)
(-0.0326148 -0.0286391 0)
(-0.0169348 -0.00967788 0)
(-0.00707425 0.00400127 0)
(-0.00147408 0.013148 0)
(0.00118842 0.0185564 0)
(0.00194714 0.0207694 0)
(0.00158846 0.01992 0)
(0.000821598 0.0156398 0)
(0.000108456 0.00704824 0)
(-0.000303518 0.00225508 0)
(-0.00249366 0.00655503 0)
(-0.0058736 0.0108314 0)
(-0.0103903 0.0153254 0)
(-0.015918 0.0205403 0)
(-0.0227352 0.0269534 0)
(-0.0311791 0.0348858 0)
(-0.0415983 0.0444743 0)
(-0.0542867 0.0557096 0)
(-0.0694436 0.0684605 0)
(-0.0871194 0.0824497 0)
(-0.107153 0.0972034 0)
(-0.129121 0.112023 0)
(-0.152324 0.126022 0)
(-0.175836 0.138226 0)
(-0.198619 0.147727 0)
(-0.219667 0.153833 0)
(-0.238163 0.156173 0)
(-0.253582 0.154736 0)
(-0.265741 0.149824 0)
(-0.274764 0.141958 0)
(-0.281002 0.131756 0)
(-0.284943 0.119837 0)
(-0.287119 0.106751 0)
(-0.288034 0.0929358 0)
(-0.288123 0.078711 0)
(-0.287734 0.0642901 0)
(-0.287128 0.0497982 0)
(-0.286491 0.0352952 0)
(-0.285957 0.0207966 0)
(-0.285621 0.00629045 0)
(-0.285561 -0.00825396 0)
(-0.285847 -0.0228848 0)
(-0.286554 -0.037663 0)
(-0.287757 -0.0526614 0)
(-0.289525 -0.0679635 0)
(-0.291899 -0.0836573 0)
(-0.294856 -0.0998178 0)
(-0.298253 -0.116473 0)
(-0.301758 -0.133544 0)
(-0.304766 -0.150763 0)
(-0.306324 -0.167564 0)
(-0.305103 -0.182976 0)
(-0.299456 -0.195558 0)
(-0.28762 -0.20343 0)
(-0.268083 -0.204479 0)
(-0.240111 -0.196793 0)
(-0.204342 -0.179315 0)
(-0.163198 -0.152605 0)
(-0.120795 -0.119334 0)
(-0.0819995 -0.0839871 0)
(-0.0506975 -0.0514109 0)
(-0.0282898 -0.0248744 0)
(-0.013788 -0.00526639 0)
(-0.00523786 0.00809582 0)
(-0.000790469 0.016318 0)
(0.00100809 0.0202786 0)
(0.00122509 0.0203603 0)
(0.000736379 0.0163468 0)
(0.000107014 0.00745462 0)
(-0.000395626 0.00362081 0)
(-0.00315329 0.00971494 0)
(-0.00728209 0.0152298 0)
(-0.0127205 0.0208039 0)
(-0.0193187 0.0272565 0)
(-0.0274162 0.0352342 0)
(-0.0373815 0.0450975 0)
(-0.0495617 0.0569371 0)
(-0.0642036 0.0706461 0)
(-0.0814052 0.0859429 0)
(-0.101049 0.102336 0)
(-0.12274 0.119078 0)
(-0.145775 0.13518 0)
(-0.169179 0.149505 0)
(-0.191825 0.160949 0)
(-0.2126 0.168632 0)
(-0.230597 0.17206 0)
(-0.245251 0.171183 0)
(-0.256396 0.166357 0)
(-0.264226 0.158218 0)
(-0.269198 0.147527 0)
(-0.271908 0.135041 0)
(-0.272979 0.121414 0)
(-0.272974 0.107152 0)
(-0.27235 0.0926069 0)
(-0.271443 0.0779952 0)
(-0.270474 0.0634298 0)
(-0.269575 0.0489537 0)
(-0.268813 0.0345676 0)
(-0.268219 0.0202512 0)
(-0.267809 0.00597607 0)
(-0.2676 -0.00829008 0)
(-0.267628 -0.0225838 0)
(-0.267948 -0.0369483 0)
(-0.268645 -0.0514402 0)
(-0.269827 -0.0661356 0)
(-0.271621 -0.0811361 0)
(-0.274153 -0.0965677 0)
(-0.277505 -0.112569 0)
(-0.281661 -0.129256 0)
(-0.286409 -0.146658 0)
(-0.291231 -0.164606 0)
(-0.295181 -0.182582 0)
(-0.296804 -0.199556 0)
(-0.294154 -0.213852 0)
(-0.284995 -0.223136 0)
(-0.267248 -0.224647 0)
(-0.239691 -0.21577 0)
(-0.202792 -0.194978 0)
(-0.159379 -0.162977 0)
(-0.11458 -0.123473 0)
(-0.0744708 -0.0826341 0)
(-0.0435227 -0.0466595 0)
(-0.0226445 -0.0189491 0)
(-0.00998408 0.000330634 0)
(-0.0030962 0.0125073 0)
(4.98587e-05 0.0189302 0)
(0.000939504 0.0203832 0)
(0.000718899 0.0169076 0)
(0.000117818 0.00785957 0)
(-0.000498296 0.00534013 0)
(-0.00386866 0.0135714 0)
(-0.00878501 0.0204944 0)
(-0.0151838 0.0272929 0)
(-0.0228906 0.0351668 0)
(-0.0322995 0.0449318 0)
(-0.0437886 0.0569528 0)
(-0.05767 0.0712289 0)
(-0.074101 0.0875006 0)
(-0.0930267 0.105271 0)
(-0.114109 0.123765 0)
(-0.13668 0.141916 0)
(-0.159761 0.158442 0)
(-0.182167 0.172032 0)
(-0.202696 0.181585 0)
(-0.220343 0.186425 0)
(-0.23448 0.186419 0)
(-0.244933 0.181943 0)
(-0.251947 0.173739 0)
(-0.256069 0.162723 0)
(-0.257993 0.1498 0)
(-0.258427 0.135745 0)
(-0.257987 0.121139 0)
(-0.257147 0.106363 0)
(-0.256223 0.0916317 0)
(-0.255395 0.0770349 0)
(-0.254736 0.0625871 0)
(-0.254251 0.0482642 0)
(-0.253908 0.0340295 0)
(-0.253663 0.0198496 0)
(-0.253476 0.00569936 0)
(-0.253327 -0.00843757 0)
(-0.253222 -0.0225718 0)
(-0.253195 -0.0367153 0)
(-0.253317 -0.0508901 0)
(-0.253695 -0.0651384 0)
(-0.25448 -0.0795338 0)
(-0.255853 -0.0941922 0)
(-0.258022 -0.109277 0)
(-0.261174 -0.124995 0)
(-0.265423 -0.141561 0)
(-0.270695 -0.159126 0)
(-0.276588 -0.177642 0)
(-0.2822 -0.196667 0)
(-0.285987 -0.215118 0)
(-0.285733 -0.231062 0)
(-0.278736 -0.241641 0)
(-0.262339 -0.243324 0)
(-0.234815 -0.232661 0)
(-0.196518 -0.207617 0)
(-0.150842 -0.169259 0)
(-0.104185 -0.122876 0)
(-0.0639399 -0.0768697 0)
(-0.0347565 -0.0387077 0)
(-0.0164302 -0.0112229 0)
(-0.00614256 0.00653875 0)
(-0.00114209 0.016465 0)
(0.000632381 0.0199168 0)
(0.000731794 0.0173422 0)
(0.000136294 0.00829749 0)
(-0.000608543 0.00744059 0)
(-0.00461917 0.018158 0)
(-0.0103398 0.0266527 0)
(-0.01771 0.0348162 0)
(-0.0265264 0.0442871 0)
(-0.0372244 0.0560354 0)
(-0.0501617 0.0703837 0)
(-0.0655794 0.0871839 0)
(-0.0835006 0.105962 0)
(-0.103673 0.125937 0)
(-0.125504 0.146 0)
(-0.14806 0.164754 0)
(-0.170144 0.180688 0)
(-0.190485 0.192449 0)
(-0.207979 0.199123 0)
(-0.221905 0.200417 0)
(-0.232041 0.196673 0)
(-0.238645 0.188712 0)
(-0.242324 0.177601 0)
(-0.24386 0.164414 0)
(-0.24404 0.150068 0)
(-0.24353 0.135231 0)
(-0.242822 0.120326 0)
(-0.242215 0.10556 0)
(-0.241849 0.0909984 0)
(-0.241747 0.0766189 0)
(-0.241858 0.0623651 0)
(-0.242102 0.0481767 0)
(-0.242387 0.0340079 0)
(-0.242635 0.0198327 0)
(-0.242785 0.00564404 0)
(-0.242802 -0.00854992 0)
(-0.242676 -0.0227314 0)
(-0.242425 -0.0368802 0)
(-0.242097 -0.050982 0)
(-0.241777 -0.0650382 0)
(-0.241591 -0.0790778 0)
(-0.241716 -0.0931726 0)
(-0.242378 -0.107454 0)
(-0.24385 -0.122126 0)
(-0.246419 -0.137468 0)
(-0.25032 -0.153806 0)
(-0.25562 -0.171428 0)
(-0.262036 -0.190425 0)
(-0.268715 -0.210429 0)
(-0.274028 -0.230285 0)
(-0.275484 -0.247736 0)
(-0.269917 -0.259286 0)
(-0.2541 -0.260486 0)
(-0.225873 -0.24694 0)
(-0.185642 -0.216181 0)
(-0.137683 -0.170121 0)
(-0.0900108 -0.116476 0)
(-0.0512591 -0.0664214 0)
(-0.0253904 -0.0280002 0)
(-0.0104384 -0.00244119 0)
(-0.00285166 0.0124496 0)
(0.000164936 0.0187894 0)
(0.000722698 0.0176144 0)
(0.000156591 0.00878072 0)
(-0.000721755 0.00993674 0)
(-0.00537632 0.0234849 0)
(-0.0118906 0.033704 0)
(-0.0202089 0.0433623 0)
(-0.0300913 0.0545841 0)
(-0.0419932 0.0684643 0)
(-0.0562197 0.0852274 0)
(-0.0729038 0.104517 0)
(-0.0918976 0.12558 0)
(-0.112724 0.147299 0)
(-0.134539 0.168209 0)
(-0.156191 0.186628 0)
(-0.176379 0.200939 0)
(-0.193901 0.209929 0)
(-0.207917 0.213057 0)
(-0.218105 0.210541 0)
(-0.224684 0.203228 0)
(-0.228285 0.19232 0)
(-0.229755 0.179074 0)
(-0.22995 0.164575 0)
(-0.229597 0.149612 0)
(-0.229207 0.134662 0)
(-0.229075 0.119939 0)
(-0.229309 0.10548 0)
(-0.229888 0.0912256 0)
(-0.230721 0.0770808 0)
(-0.231684 0.0629576 0)
(-0.232657 0.0487931 0)
(-0.233536 0.0345544 0)
(-0.234239 0.0202367 0)
(-0.23471 0.00585666 0)
(-0.234914 -0.00855332 0)
(-0.234838 -0.0229515 0)
(-0.234492 -0.0372928 0)
(-0.233903 -0.0515343 0)
(-0.233128 -0.065643 0)
(-0.232252 -0.0796048 0)
(-0.231406 -0.0934389 0)
(-0.230778 -0.107216 0)
(-0.230621 -0.121084 0)
(-0.231262 -0.135289 0)
(-0.233073 -0.150192 0)
(-0.236409 -0.166243 0)
(-0.241473 -0.183887 0)
(-0.248093 -0.203364 0)
(-0.255445 -0.224369 0)
(-0.261775 -0.245608 0)
(-0.264271 -0.26437 0)
(-0.259271 -0.276331 0)
(-0.243016 -0.275937 0)
(-0.213068 -0.257778 0)
(-0.170224 -0.219269 0)
(-0.120152 -0.164064 0)
(-0.0728656 -0.103539 0)
(-0.0377034 -0.0517346 0)
(-0.0165066 -0.0155564 0)
(-0.00538729 0.00625835 0)
(-0.000613371 0.0167081 0)
(0.000633335 0.0176198 0)
(0.000172395 0.00929472 0)
(-0.000831777 0.0128256 0)
(-0.00610475 0.0295336 0)
(-0.0133704 0.0416146 0)
(-0.0225751 0.0528787 0)
(-0.0334303 0.0659687 0)
(-0.046386 0.082064 0)
(-0.0616625 0.101229 0)
(-0.0792546 0.12284 0)
(-0.0988213 0.14581 0)
(-0.11966 0.168655 0)
(-0.140716 0.189577 0)
(-0.160711 0.206714 0)
(-0.178374 0.218511 0)
(-0.192726 0.224082 0)
(-0.203296 0.223404 0)
(-0.210201 0.217253 0)
(-0.214042 0.206923 0)
(-0.215696 0.19386 0)
(-0.216088 0.179351 0)
(-0.216004 0.164344 0)
(-0.215995 0.149406 0)
(-0.216363 0.134777 0)
(-0.217199 0.120475 0)
(-0.218451 0.1064 0)
(-0.219991 0.0924169 0)
(-0.221668 0.0784058 0)
(-0.223338 0.0642829 0)
(-0.22488 0.0500051 0)
(-0.226203 0.0355657 0)
(-0.227241 0.020985 0)
(-0.227951 0.00630274 0)
(-0.228312 -0.00842917 0)
(-0.228314 -0.023152 0)
(-0.227962 -0.0378045 0)
(-0.227275 -0.0523263 0)
(-0.226282 -0.0666621 0)
(-0.225035 -0.0807675 0)
(-0.223613 -0.0946179 0)
(-0.222137 -0.108225 0)
(-0.220794 -0.121659 0)
(-0.219853 -0.135083 0)
(-0.219681 -0.14879 0)
(-0.22073 -0.16323 0)
(-0.223466 -0.178995 0)
(-0.228222 -0.196709 0)
(-0.234922 -0.21677 0)
(-0.242727 -0.238899 0)
(-0.249681 -0.261544 0)
(-0.252559 -0.281325 0)
(-0.247146 -0.292806 0)
(-0.229221 -0.28909 0)
(-0.196352 -0.263824 0)
(-0.150291 -0.215019 0)
(-0.098813 -0.149656 0)
(-0.054155 -0.0841845 0)
(-0.0248317 -0.0342044 0)
(-0.00904179 -0.00291684 0)
(-0.00184348 0.0132524 0)
(0.000414023 0.0171841 0)
(0.000178427 0.00979932 0)
(-0.000931238 0.0160828 0)
(-0.00676432 0.0362532 0)
(-0.0147056 0.0503144 0)
(-0.0246942 0.0632683 0)
(-0.0363797 0.0782948 0)
(-0.0501788 0.0966099 0)
(-0.0662007 0.118058 0)
(-0.0842837 0.141694 0)
(-0.103892 0.166065 0)
(-0.124127 0.189323 0)
(-0.143794 0.209416 0)
(-0.161602 0.224441 0)
(-0.176441 0.233086 0)
(-0.187656 0.23495 0)
(-0.195193 0.2306 0)
(-0.199554 0.221333 0)
(-0.201605 0.208759 0)
(-0.202317 0.1944 0)
(-0.202546 0.179418 0)
(-0.2029 0.164518 0)
(-0.203711 0.150002 0)
(-0.20507 0.135884 0)
(-0.206908 0.122031 0)
(-0.209072 0.108264 0)
(-0.211386 0.0944241 0)
(-0.213689 0.0804025 0)
(-0.215849 0.0661422 0)
(-0.217766 0.0516314 0)
(-0.219371 0.0368913 0)
(-0.220619 0.0219662 0)
(-0.221484 0.00691452 0)
(-0.221953 -0.00819744 0)
(-0.222027 -0.0232997 0)
(-0.221711 -0.0383218 0)
(-0.221019 -0.0531947 0)
(-0.219971 -0.0678524 0)
(-0.218592 -0.0822343 0)
(-0.216923 -0.0962894 0)
(-0.215029 -0.109986 0)
(-0.213017 -0.123328 0)
(-0.211065 -0.136386 0)
(-0.209452 -0.149343 0)
(-0.208579 -0.162544 0)
(-0.208973 -0.176544 0)
(-0.211212 -0.192101 0)
(-0.215741 -0.210041 0)
(-0.222547 -0.230916 0)
(-0.230702 -0.254393 0)
(-0.237935 -0.278469 0)
(-0.240476 -0.298759 0)
(-0.233503 -0.308328 0)
(-0.212478 -0.298714 0)
(-0.175467 -0.262977 0)
(-0.126011 -0.201202 0)
(-0.0748578 -0.126144 0)
(-0.0359606 -0.0600306 0)
(-0.0140424 -0.0160541 0)
(-0.00365325 0.00788882 0)
(2.90852e-05 0.0160659 0)
(0.000171087 0.0102342 0)
(-0.00101213 0.0196606 0)
(-0.00731304 0.0435589 0)
(-0.015821 0.0596967 0)
(-0.0264524 0.074391 0)
(-0.0387812 0.0913647 0)
(-0.0531652 0.111821 0)
(-0.0695854 0.135333 0)
(-0.0877213 0.160597 0)
(-0.106863 0.185784 0)
(-0.125968 0.208731 0)
(-0.143792 0.227238 0)
(-0.159141 0.239528 0)
(-0.171165 0.244691 0)
(-0.179583 0.24291 0)
(-0.184719 0.235333 0)
(-0.187364 0.223667 0)
(-0.188503 0.209676 0)
(-0.18906 0.194791 0)
(-0.189723 0.17993 0)
(-0.190876 0.16551 0)
(-0.192639 0.151575 0)
(-0.194939 0.137968 0)
(-0.19761 0.124463 0)
(-0.200459 0.110859 0)
(-0.203308 0.0970121 0)
(-0.206016 0.0828461 0)
(-0.208477 0.0683391 0)
(-0.210617 0.0535099 0)
(-0.212388 0.0384047 0)
(-0.213759 0.0230868 0)
(-0.214715 0.00762906 0)
(-0.215253 -0.00789107 0)
(-0.215377 -0.0233955 0)
(-0.215099 -0.0388081 0)
(-0.214435 -0.0540561 0)
(-0.213402 -0.0690703 0)
(-0.212019 -0.0837856 0)
(-0.210306 -0.0981405 0)
(-0.208289 -0.112081 0)
(-0.206017 -0.125567 0)
(-0.203579 -0.138599 0)
(-0.201143 -0.151248 0)
(-0.198994 -0.163719 0)
(-0.197575 -0.176426 0)
(-0.197489 -0.190058 0)
(-0.199422 -0.205575 0)
(-0.203917 -0.224029 0)
(-0.210958 -0.246094 0)
(-0.219413 -0.271229 0)
(-0.226528 -0.296653 0)
(-0.227837 -0.316496 0)
(-0.217908 -0.321851 0)
(-0.192214 -0.302618 0)
(-0.150099 -0.252291 0)
(-0.0980534 -0.175757 0)
(-0.0504941 -0.0946178 0)
(-0.0205822 -0.0343536 0)
(-0.00616351 -1.39356e-05 0)
(-0.000555054 0.013966 0)
(0.000150663 0.0105247 0)
(-0.00106656 0.0234868 0)
(-0.00771052 0.0513325 0)
(-0.0166456 0.06962 0)
(-0.027745 0.0860684 0)
(-0.0404954 0.104939 0)
(-0.055175 0.127381 0)
(-0.0716318 0.152656 0)
(-0.0894001 0.179084 0)
(-0.107634 0.204485 0)
(-0.125218 0.226456 0)
(-0.140944 0.242784 0)
(-0.153806 0.251968 0)
(-0.163266 0.253622 0)
(-0.169402 0.248536 0)
(-0.17284 0.238364 0)
(-0.174527 0.225072 0)
(-0.175438 0.210407 0)
(-0.176349 0.195581 0)
(-0.177733 0.181209 0)
(-0.179762 0.167419 0)
(-0.182385 0.154053 0)
(-0.185435 0.140844 0)
(-0.188707 0.127538 0)
(-0.19201 0.113948 0)
(-0.195195 0.0999685 0)
(-0.198148 0.0855608 0)
(-0.20079 0.0707356 0)
(-0.203067 0.0555367 0)
(-0.204941 0.0400288 0)
(-0.206391 0.0242899 0)