/*--------------------------------*- C++ -*----------------------------------*\
| =========                 |                                                 |
| \\      /  F ield         | OpenFOAM: The Open Source CFD Toolbox           |
|  \\    /   O peration     | Version:  2406                                  |
|   \\  /    A nd           | Website:  www.openfoam.com                      |
|    \\/     M anipulation  |                                                 |
\*---------------------------------------------------------------------------*/
FoamFile
{
    version     2.0;
    format      ascii;
    arch        "LSB;label=32;scalar=64";
    class       volVectorField;
    location    "17.1";
    object      U;
}
// * * * * * * * * * * * * * * * * * * * * * * * * * * * * * * * * * * * * * //

dimensions      [0 1 -1 0 0 0 0];

internalField   nonuniform List<vector> 
14400
(
(2.89703e-06 -2.83335e-06 0)
(1.73009e-05 -6.89695e-06 0)
(3.73157e-05 -7.22646e-06 0)
(5.25382e-05 -5.33656e-06 0)
(6.13698e-05 -2.63305e-06 0)
(6.1194e-05 1.81941e-07 0)
(5.30782e-05 2.66743e-06 0)
(3.74066e-05 4.76663e-06 0)
(1.56326e-05 6.41671e-06 0)
(-1.12798e-05 7.72118e-06 0)
(-4.22746e-05 8.72302e-06 0)
(-7.66359e-05 9.53776e-06 0)
(-0.000113843 1.02228e-05 0)
(-0.000153594 1.08642e-05 0)
(-0.000195801 1.15035e-05 0)
(-0.000240497 1.21916e-05 0)
(-0.000287859 1.29493e-05 0)
(-0.000338118 1.38003e-05 0)
(-0.00039158 1.47503e-05 0)
(-0.000448559 1.58071e-05 0)
(-0.000509404 1.69695e-05 0)
(-0.000574454 1.82389e-05 0)
(-0.000644064 1.9613e-05 0)
(-0.000718578 2.10926e-05 0)
(-0.000798349 2.26774e-05 0)
(-0.00088373 2.43693e-05 0)
(-0.000975083 2.61703e-05 0)
(-0.00107277 2.80835e-05 0)
(-0.00117717 3.01118e-05 0)
(-0.00128867 3.22579e-05 0)
(-0.00140764 3.45235e-05 0)
(-0.00153446 3.69091e-05 0)
(-0.00166952 3.94131e-05 0)
(-0.00181317 4.20313e-05 0)
(-0.00196574 4.47565e-05 0)
(-0.00212753 4.75777e-05 0)
(-0.00229878 5.04793e-05 0)
(-0.00247965 5.34409e-05 0)
(-0.00267024 5.64361e-05 0)
(-0.00287051 5.94322e-05 0)
(-0.00308032 6.23894e-05 0)
(-0.00329935 6.52606e-05 0)
(-0.00352711 6.79906e-05 0)
(-0.00376292 7.05161e-05 0)
(-0.00400584 7.27657e-05 0)
(-0.00425472 7.466e-05 0)
(-0.0045081 7.61125e-05 0)
(-0.00476424 7.703e-05 0)
(-0.0050211 7.73144e-05 0)
(-0.00527632 7.68642e-05 0)
(-0.0055272 7.55767e-05 0)
(-0.00577078 7.33506e-05 0)
(-0.00600375 7.00891e-05 0)
(-0.00622258 6.57035e-05 0)
(-0.00642349 6.01168e-05 0)
(-0.00660251 5.32681e-05 0)
(-0.00675558 4.51164e-05 0)
(-0.00687858 3.56454e-05 0)
(-0.00696744 2.48672e-05 0)
(-0.00701824 1.28264e-05 0)
(-0.0070273 -3.97253e-07 0)
(-0.0069913 -1.46858e-05 0)
(-0.00690737 -2.98825e-05 0)
(-0.00677326 -4.57911e-05 0)
(-0.00658739 -6.21777e-05 0)
(-0.00634897 -7.87737e-05 0)
(-0.00605811 -9.52809e-05 0)
(-0.00571583 -0.000111377 0)
(-0.00532417 -0.000126726 0)
(-0.00488618 -0.000140986 0)
(-0.00440591 -0.000153821 0)
(-0.00388834 -0.000164912 0)
(-0.00333938 -0.000173972 0)
(-0.00276568 -0.000180753 0)
(-0.00217455 -0.000185062 0)
(-0.00157375 -0.000186767 0)
(-0.000971353 -0.000185805 0)
(-0.000375487 -0.000182187 0)
(0.000205841 -0.000175999 0)
(0.000764966 -0.000167399 0)
(0.00129477 -0.000156611 0)
(0.00178885 -0.000143919 0)
(0.00224169 -0.000129653 0)
(0.0026488 -0.000114177 0)
(0.00300676 -9.78728e-05 0)
(0.00331329 -8.11267e-05 0)
(0.00356726 -6.4314e-05 0)
(0.00376864 -4.7786e-05 0)
(0.00391842 -3.18586e-05 0)
(0.00401852 -1.6804e-05 0)
(0.00407168 -2.84397e-06 0)
(0.00408125 9.8524e-06 0)
(0.00405112 2.117e-05 0)
(0.00398548 3.10445e-05 0)
(0.00388875 3.94598e-05 0)
(0.00376538 4.64404e-05 0)
(0.00361974 5.20483e-05 0)
(0.00345604 5.6371e-05 0)
(0.00327822 5.95216e-05 0)
(0.0030899 6.16227e-05 0)
(0.00289429 6.28138e-05 0)
(0.00269425 6.32271e-05 0)
(0.00249214 6.30093e-05 0)
(0.00229004 6.22819e-05 0)
(0.00208942 6.11869e-05 0)
(0.00189168 5.98151e-05 0)
(0.00169749 5.82973e-05 0)
(0.00150777 5.6668e-05 0)
(0.00132256 5.50424e-05 0)
(0.00114273 5.33526e-05 0)
(0.000967917 5.1692e-05 0)
(0.000799661 4.97985e-05 0)
(0.00063764 4.77353e-05 0)
(0.000485235 4.48599e-05 0)
(0.000342934 4.12049e-05 0)
(0.000217607 3.53989e-05 0)
(0.000111655 2.76601e-05 0)
(3.62684e-05 1.57536e-05 0)
(-5.31015e-06 2.82773e-06 0)
(-8.741e-06 -8.66154e-06 0)
(7.18858e-06 -1.74472e-05 0)
(3.22844e-05 -3.18783e-05 0)
(6.14814e-05 -3.01944e-05 0)
(7.81769e-05 -1.83465e-05 0)
(7.86763e-05 -2.46215e-06 0)
(5.84142e-05 1.46074e-05 0)
(1.84856e-05 3.04347e-05 0)
(-4.02217e-05 4.44905e-05 0)
(-0.000115106 5.62388e-05 0)
(-0.00020396 6.60313e-05 0)
(-0.000304542 7.40552e-05 0)
(-0.000415111 8.08622e-05 0)
(-0.000534413 8.68085e-05 0)
(-0.00066164 9.23632e-05 0)
(-0.000796486 9.78215e-05 0)
(-0.00093895 0.000103488 0)
(-0.00108938 0.000109538 0)
(-0.00124829 0.000116129 0)
(-0.00141639 0.000123335 0)
(-0.00159444 0.000131221 0)
(-0.0017833 0.000139804 0)
(-0.00198384 0.000149105 0)
(-0.00219697 0.000159126 0)
(-0.00242359 0.000169874 0)
(-0.00266463 0.000181356 0)
(-0.00292103 0.000193582 0)
(-0.00319374 0.000206563 0)
(-0.00348372 0.000220314 0)
(-0.00379195 0.000234844 0)
(-0.00411942 0.00025016 0)
(-0.00446707 0.000266256 0)
(-0.00483587 0.000283117 0)
(-0.00522671 0.00030071 0)
(-0.00564041 0.000318981 0)
(-0.00607771 0.000337853 0)
(-0.00653917 0.000357218 0)
(-0.00702522 0.000376936 0)
(-0.00753601 0.000396829 0)
(-0.00807145 0.000416679 0)
(-0.0086311 0.000436225 0)
(-0.00921414 0.000455156 0)
(-0.00981929 0.000473114 0)
(-0.0104448 0.000489691 0)
(-0.0110882 0.00050443 0)
(-0.0117467 0.000516827 0)
(-0.0124166 0.000526338 0)
(-0.0130934 0.000532379 0)
(-0.0137723 0.000534342 0)
(-0.0144473 0.000531603 0)
(-0.0151119 0.000523535 0)
(-0.0157588 0.000509527 0)
(-0.0163801 0.000488998 0)
(-0.0169673 0.000461421 0)
(-0.0175113 0.000426346 0)
(-0.0180026 0.000383418 0)
(-0.0184317 0.000332403 0)
(-0.0187889 0.000273211 0)
(-0.0190645 0.000205915 0)
(-0.0192493 0.000130772 0)
(-0.0193346 4.82351e-05 0)
(-0.0193125 -4.10315e-05 0)
(-0.0191762 -0.000136151 0)
(-0.0189201 -0.000236034 0)
(-0.0185399 -0.000339384 0)
(-0.0180332 -0.000444717 0)
(-0.0173995 -0.000550381 0)
(-0.01664 -0.00065459 0)
(-0.0157582 -0.000755464 0)
(-0.0147596 -0.000851069 0)
(-0.0136519 -0.000939479 0)
(-0.012445 -0.00101882 0)
(-0.0111506 -0.00108735 0)
(-0.00978217 -0.00114348 0)
(-0.00835492 -0.00118589 0)
(-0.00688526 -0.0012135 0)
(-0.00539058 -0.0012256 0)
(-0.00388887 -0.00122183 0)
(-0.00239836 -0.00120222 0)
(-0.000937051 -0.00116719 0)
(0.00047764 -0.00111756 0)
(0.00182932 -0.0010545 0)
(0.00310299 -0.000979507 0)
(0.00428536 -0.000894361 0)
(0.00536515 -0.000801047 0)
(0.0063333 -0.00070169 0)
(0.00718312 -0.000598478 0)
(0.00791035 -0.000493589 0)
(0.00851315 -0.000389111 0)
(0.00899201 -0.000286986 0)
(0.00934963 -0.000188948 0)
(0.00959062 -9.64784e-05 0)
(0.00972132 -1.07854e-05 0)
(0.00974944 6.722e-05 0)
(0.00968377 0.000136919 0)
(0.00953385 0.00019798 0)
(0.00930964 0.000250329 0)
(0.00902123 0.000294132 0)
(0.00867858 0.000329748 0)
(0.00829123 0.000357706 0)
(0.00786823 0.000378649 0)
(0.00741783 0.000393321 0)
(0.00694754 0.000402498 0)
(0.00646385 0.000407009 0)
(0.00597253 0.000407625 0)
(0.00547816 0.000405144 0)
(0.00498488 0.000400208 0)
(0.00449549 0.000393486 0)
(0.00401296 0.000385336 0)
(0.00353874 0.000376194 0)
(0.00307556 0.000365911 0)
(0.00262423 0.000354556 0)
(0.00218877 0.000341099 0)
(0.00177049 0.000325111 0)
(0.00137697 0.000304085 0)
(0.00101133 0.000277191 0)
(0.000687397 0.000239743 0)
(0.000410479 0.000192079 0)
(0.000200857 0.000128313 0)
(6.04145e-05 5.99163e-05 0)
(2.80544e-06 -5.29695e-06 0)
(7.69799e-06 -3.7931e-05 0)
(3.04502e-05 -6.08972e-05 0)
(5.04164e-05 -5.08716e-05 0)
(4.94654e-05 -1.92262e-05 0)
(2.26653e-05 2.11247e-05 0)
(-3.44438e-05 6.44262e-05 0)
(-0.000120874 0.000105164 0)
(-0.000234943 0.000141914 0)
(-0.000373492 0.000173334 0)
(-0.00053335 0.000200036 0)
(-0.000711605 0.000222449 0)
(-0.000905767 0.000241784 0)
(-0.00111413 0.000258933 0)
(-0.00133551 0.000274997 0)
(-0.00156945 0.000290747 0)
(-0.0018159 0.000306932 0)
(-0.00207535 0.000324032 0)
(-0.00234848 0.000342452 0)
(-0.00263631 0.000362423 0)
(-0.00293995 0.000384117 0)
(-0.00326064 0.00040762 0)
(-0.0035997 0.000432992 0)
(-0.00395847 0.000460263 0)
(-0.00433834 0.000489462 0)
(-0.00474075 0.000520614 0)
(-0.00516712 0.000553749 0)
(-0.00561894 0.000588897 0)
(-0.0060977 0.000626086 0)
(-0.0066049 0.000665329 0)
(-0.00714203 0.000706624 0)
(-0.00771055 0.000749937 0)
(-0.00831186 0.000795197 0)
(-0.00894727 0.00084228 0)
(-0.00961794 0.000891005 0)
(-0.0103248 0.000941117 0)
(-0.0110686 0.000992282 0)
(-0.0118497 0.00104407 0)
(-0.012668 0.00109595 0)
(-0.0135231 0.00114729 0)
(-0.0144138 0.00119733 0)
(-0.0153385 0.00124518 0)
(-0.0162947 0.00128985 0)
(-0.017279 0.00133022 0)
(-0.0182874 0.00136503 0)
(-0.0193148 0.00139296 0)
(-0.0203548 0.00141254 0)
(-0.0214005 0.0014223 0)
(-0.0224436 0.00142067 0)
(-0.0234747 0.0014061 0)
(-0.0244837 0.00137707 0)
(-0.0254592 0.00133213 0)
(-0.0263893 0.00126996 0)
(-0.0272612 0.0011894 0)
(-0.0280617 0.00108952 0)
(-0.0287771 0.000969677 0)
(-0.0293939 0.00082955 0)
(-0.0298985 0.000669192 0)
(-0.0302778 0.000489074 0)
(-0.0305195 0.000290118 0)
(-0.0306122 7.3718e-05 0)
(-0.0305458 -0.000158246 0)
(-0.0303119 -0.000403409 0)
(-0.0299038 -0.000658937 0)
(-0.0293169 -0.000921553 0)
(-0.0285491 -0.00118759 0)
(-0.0276005 -0.00145304 0)
(-0.0264739 -0.00171365 0)
(-0.0251749 -0.00196498 0)
(-0.0237117 -0.00220255 0)
(-0.0220953 -0.0024219 0)
(-0.0203392 -0.00261875 0)
(-0.0184594 -0.0027891 0)
(-0.0164742 -0.00292938 0)
(-0.0144037 -0.00303654 0)
(-0.01227 -0.00310815 0)
(-0.010096 -0.00314252 0)
(-0.00790589 -0.00313879 0)
(-0.00572392 -0.00309691 0)
(-0.0035744 -0.00301772 0)
(-0.00148099 -0.00290294 0)
(0.000533743 -0.0027551 0)
(0.00244878 -0.00257748 0)
(0.00424509 -0.00237402 0)
(0.00590606 -0.00214919 0)
(0.00741774 -0.00190783 0)
(0.00876916 -0.00165499 0)
(0.00995242 -0.00139581 0)
(0.0109628 -0.00113528 0)
(0.0117988 -0.000878158 0)
(0.0124617 -0.000628772 0)
(0.0129558 -0.000390956 0)
(0.0132879 -0.000167937 0)
(0.0134668 3.77144e-05 0)
(0.0135034 0.000224105 0)
(0.0134096 0.000390024 0)
(0.0131985 0.000534899 0)
(0.0128837 0.000658763 0)
(0.012479 0.000762162 0)
(0.0119978 0.0008461 0)
(0.0114531 0.000911925 0)
(0.0108573 0.000961272 0)
(0.0102216 0.000995932 0)
(0.0095561 0.00101783 0)
(0.00886993 0.00102884 0)
(0.00817069 0.00103086 0)
(0.00746529 0.00102554 0)
(0.00675895 0.00101441 0)
(0.00605692 0.000998504 0)
(0.00536255 0.000978694 0)
(0.00468065 0.000954867 0)
(0.0040137 0.000926831 0)
(0.00336807 0.000892613 0)
(0.00274676 0.000850565 0)
(0.00216059 0.000795932 0)
(0.00161431 0.000725845 0)
(0.00112654 0.000632315 0)
(0.000703101 0.000514653 0)
(0.000371907 0.000365189 0)
(0.000132476 0.000201648 0)
(1.64846e-05 3.73657e-05 0)
(5.75446e-06 -5.34458e-05 0)
(1.66104e-05 -7.57493e-05 0)
(1.26174e-05 -4.82769e-05 0)
(-2.15878e-05 1.18903e-05 0)
(-9.15729e-05 8.48762e-05 0)
(-0.000199987 0.000162095 0)
(-0.000345904 0.00023494 0)
(-0.000526476 0.000301085 0)
(-0.000738327 0.00035836 0)
(-0.000977454 0.000407655 0)
(-0.00124065 0.00044969 0)
(-0.00152486 0.000486413 0)
(-0.0018282 0.000519354 0)
(-0.00214918 0.000550348 0)
(-0.00248732 0.000580747 0)
(-0.00284253 0.000611834 0)
(-0.00321539 0.000644479 0)
(-0.00360677 0.000679405 0)
(-0.00401789 0.000717052 0)
(-0.00445015 0.000757755 0)
(-0.00490513 0.000801701 0)
(-0.00538448 0.000849028 0)
(-0.00588999 0.000899819 0)
(-0.00642347 0.000954152 0)
(-0.0069868 0.00101209 0)
(-0.00758193 0.0010737 0)
(-0.00821083 0.00113904 0)
(-0.00887551 0.00120814 0)
(-0.00957797 0.00128103 0)
(-0.0103202 0.00135768 0)
(-0.0111041 0.00143798 0)
(-0.0119316 0.00152175 0)
(-0.0128043 0.00160873 0)
(-0.0137235 0.00169851 0)
(-0.0146905 0.00179055 0)
(-0.0157059 0.00188414 0)
(-0.01677 0.00197843 0)
(-0.0178824 0.00207234 0)
(-0.0190421 0.0021646 0)
(-0.0202471 0.00225374 0)
(-0.0214947 0.00233804 0)
(-0.0227811 0.00241562 0)
(-0.0241014 0.00248433 0)
(-0.0254496 0.00254189 0)
(-0.0268183 0.00258582 0)
(-0.0281989 0.00261353 0)
(-0.0295815 0.00262236 0)
(-0.0309549 0.0026096 0)
(-0.0323068 0.0025726 0)
(-0.0336235 0.00250881 0)
(-0.0348907 0.0024159 0)
(-0.0360928 0.00229177 0)
(-0.0372139 0.00213472 0)
(-0.0382376 0.00194346 0)
(-0.0391472 0.00171724 0)
(-0.0399266 0.00145591 0)
(-0.0405595 0.00115998 0)
(-0.0410309 0.000830656 0)
(-0.0413266 0.000469915 0)
(-0.0414339 8.04944e-05 0)
(-0.0413417 -0.000334092 0)
(-0.0410409 -0.000769576 0)
(-0.0405245 -0.00122098 0)
(-0.0397881 -0.00168265 0)
(-0.0388299 -0.00214838 0)
(-0.0376508 -0.00261149 0)
(-0.0362548 -0.00306493 0)
(-0.0346485 -0.00350145 0)
(-0.0328419 -0.00391376 0)
(-0.0308476 -0.00429464 0)
(-0.0286813 -0.00463719 0)
(-0.0263613 -0.00493498 0)
(-0.0239083 -0.00518222 0)
(-0.0213454 -0.00537394 0)
(-0.0186975 -0.00550616 0)
(-0.0159911 -0.00557604 0)
(-0.0132538 -0.00558196 0)
(-0.0105137 -0.00552366 0)
(-0.00779919 -0.0054022 0)
(-0.00513823 -0.00522005 0)
(-0.00255784 -0.004981 0)
(-8.3616e-05 -0.00469004 0)
(0.00226081 -0.00435328 0)
(0.00445422 -0.00397776 0)
(0.00647817 -0.00357119 0)
(0.00831742 -0.00314177 0)
(0.00996008 -0.0026979 0)
(0.0113978 -0.00224793 0)
(0.012626 -0.00179992 0)
(0.0136434 -0.0013614 0)
(0.0144523 -0.00093916 0)
(0.0150582 -0.000539093 0)
(0.0154694 -0.000166083 0)
(0.0156966 0.000176075 0)
(0.0157527 0.000484701 0)
(0.0156519 0.000758206 0)
(0.0154098 0.00099604 0)
(0.0150422 0.00119859 0)
(0.0145654 0.00136707 0)
(0.0139954 0.00150337 0)
(0.0133473 0.00160995 0)
(0.0126357 0.00168962 0)
(0.0118739 0.00174548 0)
(0.0110739 0.00178065 0)
(0.0102463 0.00179828 0)
(0.00940077 0.0018012 0)
(0.00854513 0.001792 0)
(0.00768711 0.00177254 0)
(0.00683221 0.00174424 0)
(0.00598754 0.00170712 0)
(0.00515741 0.00166074 0)
(0.00435057 0.00160223 0)
(0.00357144 0.00152865 0)
(0.00283364 0.00143315 0)
(0.00214256 0.00131069 0)
(0.00152062 0.00115046 0)
(0.000972695 0.000949962 0)
(0.000534018 0.000699633 0)
(0.000202185 0.000417597 0)
(2.96323e-05 0.000116634 0)
(2.42501e-06 -6.10059e-05 0)
(-4.7926e-06 -6.92709e-05 0)
(-4.28792e-05 -1.23325e-05 0)
(-0.000121655 8.70454e-05 0)
(-0.000247094 0.000202294 0)
(-0.000418655 0.00032207 0)
(-0.000635328 0.000434808 0)
(-0.000892525 0.00053736 0)
(-0.00118672 0.000626832 0)
(-0.00151298 0.000704488 0)
(-0.00186798 0.000771453 0)
(-0.00224822 0.000830528 0)
(-0.00265174 0.000883993 0)
(-0.0030769 0.000934531 0)
(-0.00352326 0.000984171 0)
(-0.00399075 0.00103482 0)
(-0.0044801 0.00108782 0)
(-0.0049923 0.00114428 0)
(-0.00552884 0.0012049 0)
(-0.00609133 0.00127023 0)
(-0.00668171 0.00134061 0)
(-0.00730196 0.00141629 0)
(-0.00795428 0.00149745 0)
(-0.00864091 0.00158426 0)
(-0.00936424 0.00167684 0)
(-0.0101267 0.00177532 0)
(-0.0109309 0.0018798 0)
(-0.0117792 0.00199035 0)
(-0.0126744 0.00210697 0)
(-0.0136189 0.00222957 0)
(-0.0146151 0.00235797 0)
(-0.0156654 0.0024918 0)
(-0.0167717 0.00263056 0)
(-0.0179358 0.00277352 0)
(-0.019159 0.0029197 0)
(-0.0204418 0.0030679 0)
(-0.0217845 0.0032166 0)
(-0.0231863 0.00336397 0)
(-0.0246454 0.00350788 0)
(-0.0261591 0.00364586 0)
(-0.0277237 0.00377512 0)
(-0.0293338 0.00389253 0)
(-0.0309831 0.0039947 0)
(-0.0326635 0.00407796 0)
(-0.0343657 0.00413845 0)
(-0.0360785 0.00417216 0)
(-0.0377897 0.00417504 0)
(-0.0394855 0.00414306 0)
(-0.0411506 0.00407233 0)
(-0.0427689 0.00395921 0)
(-0.0443229 0.00380043 0)
(-0.0457948 0.00359321 0)
(-0.0471659 0.00333536 0)
(-0.0484175 0.00302543 0)
(-0.0495308 0.00266276 0)
(-0.0504876 0.00224762 0)
(-0.0512701 0.00178125 0)
(-0.0518618 0.00126593 0)
(-0.0522473 0.000704989 0)
(-0.0524128 0.00010285 0)
(-0.0523466 -0.00053502 0)
(-0.0520389 -0.00120214 0)
(-0.0514824 -0.00189106 0)
(-0.0506723 -0.0025935 0)
(-0.0496067 -0.00330042 0)
(-0.0482864 -0.00400217 0)
(-0.0467154 -0.00468868 0)
(-0.0449006 -0.00534962 0)
(-0.0428522 -0.00597458 0)
(-0.0405832 -0.00655336 0)
(-0.0381101 -0.00707612 0)
(-0.0354519 -0.00753368 0)
(-0.0326306 -0.00791771 0)
(-0.0296706 -0.00822102 0)
(-0.0265987 -0.00843772 0)
(-0.0234433 -0.00856346 0)
(-0.0202346 -0.00859557 0)
(-0.0170037 -0.00853322 0)
(-0.0137822 -0.00837745 0)
(-0.0106016 -0.00813124 0)
(-0.00749291 -0.00779945 0)
(-0.00448597 -0.00738869 0)
(-0.00160881 -0.00690724 0)
(0.00111278 -0.00636472 0)
(0.00365581 -0.00577192 0)
(0.00600045 -0.0051404 0)
(0.00813045 -0.00448221 0)
(0.0100333 -0.0038095 0)
(0.0117006 -0.00313415 0)
(0.0131277 -0.00246746 0)
(0.014314 -0.00181985 0)
(0.0152627 -0.00120055 0)
(0.0159804 -0.000617452 0)
(0.0164768 -7.69357e-05 0)
(0.0167641 0.000416205 0)
(0.016857 0.000858762 0)
(0.0167717 0.00124908 0)
(0.0165254 0.00158693 0)
(0.0161361 0.0018734 0)
(0.015622 0.00211068 0)
(0.0150006 0.00230186 0)
(0.0142891 0.00245073 0)
(0.0135036 0.00256156 0)
(0.0126591 0.0026388 0)
(0.0117687 0.00268699 0)
(0.0108451 0.00271027 0)
(0.00989859 0.0027125 0)
(0.00893945 0.0026965 0)
(0.00797545 0.0026644 0)
(0.0070161 0.00261651 0)
(0.00606749 0.00255218 0)
(0.00514071 0.00246778 0)
(0.00424136 0.00235901 0)
(0.00338559 0.0022171 0)
(0.0025791 0.00203455 0)
(0.0018479 0.00179792 0)
(0.00119613 0.00150165 0)
(0.00066677 0.00113365 0)
(0.000257004 0.000707361 0)
(3.89041e-05 0.000230184 0)
(-1.66808e-06 -5.60586e-05 0)
(-3.1469e-05 -3.21932e-05 0)
(-0.000111713 6.84544e-05 0)
(-0.000244353 0.000218104 0)
(-0.000435474 0.000384424 0)
(-0.000680136 0.000553749 0)
(-0.000977107 0.000712135 0)
(-0.00131955 0.000855944 0)
(-0.00170382 0.000981884 0)
(-0.00212394 0.00109178 0)
(-0.00257659 0.00118734 0)
(-0.00305783 0.00127229 0)
(-0.00356584 0.00134977 0)
(-0.00409882 0.00142335 0)
(-0.0046565 0.0014958 0)
(-0.00523886 0.00156969 0)
(-0.00584683 0.00164686 0)
(-0.00648156 0.00172885 0)
(-0.00714478 0.00181666 0)
(-0.00783839 0.00191112 0)
(-0.00856466 0.00201274 0)
(-0.00932596 0.00212196 0)
(-0.0101249 0.0022391 0)
(-0.0109643 0.00236444 0)
(-0.0118471 0.00249824 0)
(-0.0127762 0.0026407 0)
(-0.013755 0.00279201 0)
(-0.0147864 0.00295226 0)
(-0.0158739 0.00312143 0)
(-0.0170206 0.00329936 0)
(-0.0182295 0.00348571 0)
(-0.0195034 0.0036799 0)
(-0.0208448 0.00388107 0)
(-0.0222558 0.00408804 0)
(-0.0237378 0.0042993 0)
(-0.0252915 0.00451291 0)
(-0.026917 0.00472655 0)
(-0.028613 0.00493743 0)
(-0.0303772 0.00514231 0)
(-0.0322062 0.00533749 0)
(-0.0340949 0.00551884 0)
(-0.0360369 0.0056818 0)
(-0.038024 0.00582143 0)
(-0.0400466 0.00593253 0)
(-0.0420931 0.00600964 0)
(-0.0441506 0.00604721 0)
(-0.0462043 0.00603968 0)
(-0.048238 0.00598164 0)
(-0.0502345 0.00586798 0)
(-0.0521749 0.005694 0)
(-0.0540398 0.00545561 0)
(-0.055809 0.00514945 0)
(-0.0574619 0.00477305 0)
(-0.058978 0.00432495 0)
(-0.0603366 0.00380483 0)
(-0.061518 0.00321356 0)
(-0.062503 0.00255331 0)
(-0.0632737 0.00182759 0)
(-0.0638135 0.00104126 0)
(-0.0641074 0.00020051 0)
(-0.0641426 -0.000687156 0)
(-0.0639081 -0.00161299 0)
(-0.0633955 -0.00256707 0)
(-0.0625988 -0.00353846 0)
(-0.061515 -0.00451529 0)
(-0.0601438 -0.00548498 0)
(-0.0584879 -0.00643441 0)
(-0.0565534 -0.0073501 0)
(-0.0543494 -0.00821852 0)
(-0.0518885 -0.00902631 0)
(-0.0491863 -0.00976054 0)
(-0.0462619 -0.0104091 0)
(-0.0431374 -0.0109607 0)
(-0.0398379 -0.0114058 0)
(-0.0363911 -0.0117361 0)
(-0.0328272 -0.0119453 0)
(-0.0291785 -0.0120292 0)
(-0.0254786 -0.0119861 0)
(-0.0217623 -0.0118164 0)
(-0.0180649 -0.0115233 0)
(-0.0144215 -0.0111122 0)
(-0.0108664 -0.0105911 0)
(-0.00743242 -0.00997007 0)
(-0.0041504 -0.00926119 0)
(-0.00104845 -0.00847818 0)
(0.00184849 -0.00763598 0)
(0.00451913 -0.00675038 0)
(0.0069462 -0.00583751 0)
(0.00911671 -0.00491338 0)
(0.011022 -0.00399348 0)
(0.012658 -0.00309228 0)
(0.0140247 -0.0022229 0)
(0.0151262 -0.00139683 0)
(0.0159705 -0.000623621 0)
(0.0165687 8.91742e-05 0)
(0.016935 0.000736121 0)
(0.0170855 0.00131387 0)
(0.0170383 0.00182105 0)
(0.0168126 0.00225812 0)
(0.0164281 0.00262717 0)
(0.0159045 0.00293163 0)
(0.0152613 0.00317599 0)
(0.0145171 0.00336556 0)
(0.0136897 0.00350602 0)
(0.0127949 0.00360325 0)
(0.0118481 0.0036628 0)
(0.0108623 0.0036898 0)
(0.00985044 0.0036882 0)
(0.00882262 0.00366097 0)
(0.00779083 0.00360886 0)
(0.00676302 0.00353119 0)
(0.00575257 0.0034238 0)
(0.00476627 0.00328115 0)
(0.00382265 0.00309286 0)
(0.00292775 0.00284884 0)
(0.00211096 0.00253299 0)
(0.00137617 0.0021354 0)
(0.00077352 0.00163995 0)
(0.000300796 0.00105109 0)
(4.60971e-05 0.000367103 0)
(-6.22028e-06 -3.7463e-05 0)
(-6.16446e-05 3.96146e-05 0)
(-0.000189765 0.000200519 0)
(-0.000383218 0.000413133 0)
(-0.000647961 0.00064043 0)
(-0.00097371 0.000866959 0)
(-0.00135885 0.00107706 0)
(-0.00179379 0.00126702 0)
(-0.00227475 0.00143357 0)
(-0.0027945 0.00157934 0)
(-0.00334981 0.00170684 0)
(-0.00393627 0.00182091 0)
(-0.00455227 0.00192561 0)
(-0.00519594 0.00202552 0)
(-0.00586724 0.00212417 0)
(-0.00656624 0.00222485 0)
(-0.00729414 0.00232995 0)
(-0.00805228 0.00244146 0)
(-0.00884272 0.00256077 0)
(-0.00966768 0.00268899 0)
(-0.0105298 0.00282692 0)
(-0.011432 0.0029752 0)
(-0.0123774 0.00313437 0)
(-0.0133694 0.00330492 0)
(-0.0144116 0.00348724 0)
(-0.0155078 0.00368172 0)
(-0.0166619 0.0038886 0)
(-0.0178779 0.00410805 0)
(-0.0191599 0.00434001 0)
(-0.0205119 0.00458423 0)
(-0.0219376 0.00484016 0)
(-0.0234406 0.00510689 0)
(-0.0250238 0.00538314 0)
(-0.02669 0.00566714 0)
(-0.0284406 0.00595664 0)
(-0.0302768 0.00624885 0)
(-0.0321982 0.00654038 0)
(-0.0342035 0.00682726 0)
(-0.0362899 0.0071049 0)
(-0.038453 0.00736814 0)
(-0.0406868 0.00761124 0)
(-0.0429837 0.00782796 0)
(-0.0453341 0.00801163 0)
(-0.0477266 0.00815527 0)
(-0.0501479 0.00825168 0)
(-0.0525832 0.00829363 0)
(-0.0550157 0.00827398 0)
(-0.0574273 0.0081859 0)
(-0.0597984 0.00802304 0)
(-0.0621085 0.00777967 0)
(-0.0643361 0.00745097 0)
(-0.066459 0.00703307 0)
(-0.068455 0.00652332 0)
(-0.0703015 0.00592037 0)
(-0.0719764 0.00522427 0)
(-0.0734582 0.00443661 0)
(-0.0747259 0.00356055 0)
(-0.0757599 0.00260083 0)
(-0.0765419 0.00156382 0)
(-0.077055 0.000457507 0)
(-0.0772842 -0.000708618 0)
(-0.0772167 -0.00192357 0)
(-0.0768417 -0.00317499 0)
(-0.0761512 -0.00444929 0)
(-0.0751398 -0.00573177 0)
(-0.0738048 -0.00700685 0)
(-0.0721469 -0.00825822 0)
(-0.07017 -0.00946913 0)
(-0.0678813 -0.0106227 0)
(-0.0652917 -0.011702 0)
(-0.0624156 -0.0126908 0)
(-0.0592712 -0.0135734 0)
(-0.0558802 -0.0143355 0)
(-0.0522679 -0.0149641 0)
(-0.0484628 -0.0154481 0)
(-0.0444965 -0.0157788 0)
(-0.0404034 -0.0159498 0)
(-0.03622 -0.0159578 0)
(-0.0319847 -0.0158021 0)
(-0.0277369 -0.0154853 0)
(-0.0235163 -0.0150134 0)
(-0.0193625 -0.014395 0)
(-0.015314 -0.0136419 0)
(-0.0114075 -0.0127685 0)
(-0.00767711 -0.0117915 0)
(-0.00415387 -0.0107291 0)
(-0.000864961 -0.0096013 0)
(0.00216669 -0.0084284 0)
(0.00492277 -0.00723104 0)
(0.00738985 -0.00602935 0)
(0.00955946 -0.00484248 0)
(0.011428 -0.00368808 0)
(0.0129968 -0.00258185 0)
(0.0142713 -0.00153726 0)
(0.0152612 -0.000565268 0)
(0.0159796 0.00032581 0)
(0.0164426 0.00113031 0)
(0.0166686 0.00184514 0)
(0.0166777 0.00246966 0)
(0.0164912 0.0030054 0)
(0.0161306 0.00345579 0)
(0.0156178 0.00382577 0)
(0.0149737 0.00412148 0)
(0.0142188 0.00434973 0)
(0.0133718 0.00451774 0)
(0.0124509 0.00463247 0)
(0.0114717 0.0047004 0)
(0.01045 0.00472677 0)
(0.00939834 0.00471549 0)
(0.00833126 0.00466798 0)
(0.00725864 0.00458365 0)
(0.0061962 0.00445808 0)
(0.00515204 0.00428458 0)
(0.00414704 0.00405127 0)
(0.00318791 0.00374528 0)
(0.00230732 0.00334766 0)
(0.00150967 0.00284302 0)
(0.000851475 0.00220998 0)
(0.000331704 0.00144145 0)
(5.07059e-05 0.000524002 0)
(-1.11159e-05 -3.18555e-06 0)
(-9.45987e-05 0.000150939 0)
(-0.000275216 0.00039027 0)
(-0.000535143 0.000679264 0)
(-0.000879978 0.000977398 0)
(-0.00129332 0.0012682 0)
(-0.001773 0.00153515 0)
(-0.00230631 0.00177503 0)
(-0.00288927 0.0019851 0)
(-0.00351326 0.00216919 0)
(-0.00417517 0.00233088 0)
(-0.00487012 0.00247625 0)
(-0.00559677 0.00261046 0)
(-0.00635321 0.00273911 0)
(-0.0071397 0.00286656 0)
(-0.00795647 0.00299685 0)
(-0.00880504 0.00313295 0)
(-0.00968702 0.00327736 0)
(-0.0106049 0.00343187 0)
(-0.0115613 0.00359798 0)
(-0.0125593 0.00377679 0)
(-0.0136025 0.00396928 0)
(-0.0146947 0.00417627 0)
(-0.0158401 0.00439851 0)
(-0.0170431 0.00463666 0)
(-0.0183085 0.00489126 0)
(-0.0196411 0.00516273 0)
(-0.0210461 0.00545128 0)
(-0.0225284 0.00575683 0)
(-0.024093 0.006079 0)
(-0.0257448 0.00641696 0)
(-0.027488 0.00676941 0)
(-0.0293265 0.00713449 0)
(-0.0312633 0.00750973 0)
(-0.0333008 0.00789196 0)
(-0.0354401 0.00827731 0)
(-0.0376809 0.00866115 0)
(-0.0400217 0.00903809 0)
(-0.0424592 0.00940195 0)
(-0.0449885 0.00974587 0)
(-0.0476027 0.0100623 0)
(-0.0502929 0.0103431 0)
(-0.0530483 0.0105797 0)
(-0.0558559 0.0107631 0)
(-0.0587009 0.0108844 0)
(-0.0615667 0.0109344 0)
(-0.0644346 0.0109046 0)
(-0.0672846 0.0107865 0)
(-0.0700954 0.0105726 0)
(-0.0728444 0.0102562 0)
(-0.0755082 0.00983175 0)
(-0.0780627 0.00929495 0)
(-0.0804836 0.00864296 0)
(-0.0827463 0.00787452 0)
(-0.0848268 0.00699008 0)
(-0.086701 0.00599186 0)
(-0.088346 0.00488391 0)
(-0.0897394 0.00367214 0)
(-0.0908605 0.0023643 0)
(-0.0916896 0.000969998 0)
(-0.0922088 -0.000499399 0)
(-0.0924023 -0.00203081 0)
(-0.0922564 -0.00360953 0)
(-0.0917597 -0.00521941 0)
(-0.0909038 -0.00684294 0)
(-0.0896828 -0.00846151 0)
(-0.0880946 -0.0100556 0)
(-0.08614 -0.011605 0)
(-0.0838238 -0.0130891 0)
(-0.0811545 -0.0144874 0)
(-0.0781447 -0.0157798 0)
(-0.074811 -0.0169466 0)
(-0.0711745 -0.0179697 0)
(-0.0672601 -0.0188324 0)
(-0.0630969 -0.01952 0)
(-0.0587177 -0.0200204 0)
(-0.0541591 -0.0203246 0)
(-0.0494604 -0.0204266 0)
(-0.0446639 -0.0203241 0)
(-0.0398135 -0.0200186 0)
(-0.0349543 -0.0195153 0)
(-0.0301319 -0.0188236 0)
(-0.0253913 -0.0179564 0)
(-0.0207761 -0.01693 0)
(-0.0163277 -0.0157638 0)
(-0.0120843 -0.0144798 0)
(-0.00808021 -0.0131019 0)
(-0.00434517 -0.0116551 0)
(-0.00090389 -0.010165 0)
(0.00222435 -0.00865703 0)
(0.00502591 -0.00715552 0)
(0.00749282 -0.00568336 0)
(0.00962265 -0.00426124 0)
(0.0114182 -0.00290725 0)
(0.0128872 -0.00163648 0)
(0.0140415 -0.000460885 0)
(0.0148968 0.000610887 0)
(0.0154718 0.00157341 0)
(0.0157875 0.00242435 0)
(0.0158667 0.0031642 0)
(0.0157328 0.00379596 0)
(0.01541 0.00432469 0)
(0.0149218 0.00475713 0)
(0.0142916 0.00510105 0)
(0.0135409 0.00536489 0)
(0.012691 0.00555702 0)
(0.0117604 0.00568536 0)
(0.0107678 0.00575648 0)
(0.0097284 0.00577541 0)
(0.00865941 0.00574445 0)
(0.0075729 0.0056633 0)
(0.00648696 0.00552748 0)
(0.00541129 0.00532931 0)
(0.00436912 0.00505559 0)
(0.00336824 0.00469048 0)
(0.00244437 0.00421187 0)
(0.00160294 0.00359811 0)
(0.000905693 0.00282139 0)
(0.000353066 0.00186159 0)
(5.3832e-05 0.000692488 0)
(-1.62831e-05 4.75243e-05 0)
(-0.000129659 0.000304407 0)
(-0.00036626 0.000641841 0)
(-0.000696991 0.00102172 0)
(-0.00112691 0.00140124 0)
(-0.0016329 0.00176376 0)
(-0.00221213 0.00209279 0)
(-0.00284843 0.00238626 0)
(-0.00353756 0.00264257 0)
(-0.00426938 0.00286712 0)
(-0.00504093 0.00306488 0)
(-0.00584682 0.0032434 0)
(-0.00668604 0.00340905 0)
(-0.00755664 0.00356854 0)
(-0.0084593 0.00372715 0)
(-0.00939442 0.0038897 0)
(-0.010364 0.00405978 0)
(-0.0113699 0.00424045 0)
(-0.0124152 0.004434 0)
(-0.0135031 0.00464236 0)
(-0.0146373 0.00486708 0)
(-0.0158222 0.00510954 0)
(-0.0170625 0.00537095 0)
(-0.0183634 0.00565243 0)
(-0.0197304 0.00595496 0)
(-0.0211694 0.00627935 0)
(-0.0226865 0.00662619 0)
(-0.0242882 0.00699578 0)
(-0.0259807 0.00738801 0)
(-0.0277702 0.00780231 0)
(-0.0296627 0.00823752 0)
(-0.0316636 0.00869183 0)
(-0.0337777 0.00916267 0)
(-0.0360089 0.00964669 0)
(-0.03836 0.0101396 0)
(-0.0408325 0.0106363 0)
(-0.0434265 0.0111307 0)
(-0.0461403 0.0116156 0)
(-0.0489702 0.0120831 0)
(-0.0519108 0.0125244 0)
(-0.0549543 0.0129298 0)
(-0.0580909 0.0132892 0)
(-0.0613083 0.0135917 0)
(-0.0645922 0.0138265 0)
(-0.0679263 0.0139825 0)
(-0.071292 0.0140487 0)
(-0.074669 0.0140148 0)
(-0.0780352 0.0138708 0)
(-0.0813672 0.0136081 0)
(-0.0846403 0.0132187 0)
(-0.0878289 0.0126964 0)
(-0.0909064 0.0120364 0)
(-0.093846 0.0112354 0)
(-0.0966206 0.0102924 0)
(-0.0992032 0.00920789 0)
(-0.101567 0.00798466 0)
(-0.103686 0.00662751 0)
(-0.105534 0.00514335 0)
(-0.107088 0.00354117 0)
(-0.108324 0.0018321 0)
(-0.109221 2.92605e-05 0)
(-0.10976 -0.00185222 0)
(-0.109923 -0.00379534 0)
(-0.109695 -0.00578136 0)
(-0.109065 -0.00778992 0)
(-0.108022 -0.00979927 0)
(-0.106562 -0.0117865 0)
(-0.104682 -0.0137276 0)
(-0.102384 -0.0155983 0)
(-0.0996733 -0.0173739 0)
(-0.0965607 -0.0190297 0)
(-0.0930608 -0.020542 0)
(-0.0891931 -0.021888 0)
(-0.0849818 -0.0230465 0)
(-0.080456 -0.0239986 0)
(-0.0756493 -0.0247281 0)
(-0.0706 -0.025222 0)
(-0.0653502 -0.0254711 0)
(-0.0599457 -0.0254704 0)
(-0.0544352 -0.0252192 0)
(-0.0488696 -0.0247219 0)
(-0.0433011 -0.0239872 0)
(-0.037782 -0.0230287 0)
(-0.0323639 -0.0218644 0)
(-0.0270966 -0.0205165 0)
(-0.0220268 -0.0190102 0)
(-0.0171975 -0.0173738 0)
(-0.0126467 -0.0156374 0)
(-0.00840696 -0.0138322 0)
(-0.00450481 -0.0119893 0)
(-0.000960253 -0.0101394 0)
(0.00221326 -0.00831127 0)
(0.00500878 -0.00653162 0)
(0.00742565 -0.00482401 0)
(0.00946904 -0.00320864 0)
(0.0111494 -0.00170187 0)
(0.0124818 -0.000316171 0)
(0.0134852 0.00093999 0)
(0.0141816 0.00206197 0)
(0.0145952 0.00304868 0)
(0.0147517 0.00390227 0)
(0.0146778 0.00462757 0)
(0.0143999 0.00523163 0)
(0.0139444 0.00572306 0)
(0.0133362 0.00611144 0)
(0.0125997 0.00640654 0)
(0.0117566 0.00661776 0)
(0.010829 0.00675318 0)
(0.00983478 0.00681908 0)
(0.00879414 0.00681884 0)
(0.00772157 0.00675266 0)
(0.00663772 0.00661622 0)
(0.0055542 0.00640097 0)
(0.00449664 0.00609244 0)
(0.00347439 0.00567178 0)
(0.00252598 0.00511343 0)
(0.00165838 0.00438904 0)
(0.000937395 0.0034637 0)
(0.000365014 0.00230383 0)
(5.53267e-05 0.000869788 0)
(-2.17062e-05 0.000115839 0)
(-0.000166573 0.00050282 0)
(-0.000462074 0.000959044 0)
(-0.000867132 0.00144483 0)
(-0.00138612 0.00191634 0)
(-0.00198873 0.00235771 0)
(-0.00267135 0.00275354 0)
(-0.00341409 0.00310361 0)
(-0.00421247 0.00340814 0)
(-0.0050547 0.00367453 0)
(-0.005938 0.00390952 0)
(-0.00685647 0.00412234 0)