/*--------------------------------*- C++ -*----------------------------------*\
| =========                 |                                                 |
| \\      /  F ield         | OpenFOAM: The Open Source CFD Toolbox           |
|  \\    /   O peration     | Version:  2406                                  |
|   \\  /    A nd           | Website:  www.openfoam.com                      |
|    \\/     M anipulation  |                                                 |
\*---------------------------------------------------------------------------*/
FoamFile
{
    version     2.0;
    format      ascii;
    arch        "LSB;label=32;scalar=64";
    class       volScalarField;
    location    "2";
    object      p;
}
// * * * * * * * * * * * * * * * * * * * * * * * * * * * * * * * * * * * * * //

dimensions      [0 2 -2 0 0 0 0];

internalField   nonuniform List<scalar> 
1024
(
-9.71495e-09
-3.11278e-06
1.38794e-06
1.32384e-05
3.24821e-05
5.92218e-05
9.35821e-05
0.000135688
0.000185651
0.000243555
0.000309439
0.000383279
0.000464963
0.000554274
0.000650859
0.000754211
0.00086364
0.000978254
0.00109695
0.00121838
0.00134097
0.00146293
0.00158225
0.00169677
0.0018042
0.00190222
0.00198855
0.00206107
0.00211787
0.00215744
0.00217874
0.0021812
3.26316e-06
1.04321e-07
4.34952e-06
1.59655e-05
3.49001e-05
6.12476e-05
9.51453e-05
0.00013673
0.000186126
0.000243431
0.0003087
0.000381926
0.000463018
0.000551779
0.000647878
0.000750831
0.000859968
0.000974424
0.00109309
0.00121466
0.00133756
0.00145997
0.00157989
0.00169513
0.00180336
0.00190223
0.00198939
0.00206266
0.00212008
0.00216001
0.00218123
0.00218371
-1.87303e-06
-5.01186e-06
-9.61565e-07
1.04009e-05
2.89815e-05
5.48865e-05
8.8278e-05
0.000129317
0.000178153
0.000234911
0.000299679
0.000372483
0.000453272
0.000541888
0.000638042
0.000741291
0.000851003
0.000966339
0.00108623
0.00120938
0.00133421
0.00145889
0.00158136
0.00169934
0.00181044
0.00191216
0.00200205
0.00207777
0.00213723
0.00217866
0.0022007
0.00220363
-1.5225e-05
-1.85386e-05
-1.48074e-05
-3.81978e-06
1.43061e-05
3.96843e-05
7.25014e-05
0.000112949
0.000161211
0.000217457
0.00028182
0.000354381
0.000435145
0.000524017
0.00062077
0.000725024
0.000836207
0.000953529
0.00107597
0.00120223
0.00133072
0.00145959
0.00158668
0.00170961
0.00182581
0.0019326
0.00202728
0.00210729
0.0021703
0.00221432
0.00223781
0.0022412
-3.68356e-05
-4.04277e-05
-3.70911e-05
-2.65757e-05
-9.00666e-06
1.57453e-05
4.78962e-05
8.7676e-05
0.000135317
0.000191042
0.000255049
0.000327489
0.000408447
0.00049791
0.00059574
0.000701642
0.000815126
0.000935476
0.00106171
0.00119258
0.00132649
0.0014615
0.00159537
0.00172554
0.00184922
0.00196343
0.00206516
0.00215148
0.00221972
0.00226757
0.00229327
0.00229729
-6.66836e-05
-7.06332e-05
-6.77666e-05
-5.78248e-05
-4.09314e-05
-1.69341e-05
1.44202e-05
5.34091e-05
0.000100323
0.000155453
0.000219077
0.000291439
0.00037272
0.000463018
0.000562308
0.00067041
0.000786945
0.000911297
0.00104256
0.00117954
0.00132063
0.00146385
0.00160679
0.00174671
0.00188049
0.00200479
0.00211613
0.00221109
0.00228652
0.00233967
0.00236844
0.00237335
-0.000104726
-0.000109115
-0.000106813
-9.75673e-05
-8.14971e-05
-5.84221e-05
-2.8045e-05
9.96801e-06
5.59758e-05
0.000110353
0.000173473
0.00024569
0.000327311
0.000418567
0.00051958
0.000630319
0.000750551
0.000879794
0.00101727
0.00116185
0.00131196
0.00146554
0.00162006
0.00177249
0.00191936
0.00205681
0.00218077
0.00228716
0.00237215
0.00243237
0.00246528
0.00247142
-0.000150909
-0.000155827
-0.000154203
-0.0001458
-0.000130736
-0.000108799
-7.96393e-05
-4.28611e-05
1.97431e-06
5.53369e-05
0.000117714
0.00018959
0.000271421
0.000363606
0.000466447
0.000580103
0.000704534
0.000839441
0.000984202
0.00113785
0.00129883
0.00146508
0.00163389
0.00180196
0.00196534
0.00211956
0.00225976
0.00238098
0.00247846
0.00254798
0.00258638
0.00259416
-0.000205168
-0.00021071
-0.000209894
-0.00020251
-0.000188676
-0.000168144
-0.000140512
-0.000105313
-6.20191e-05
-1.0054e-05
5.11993e-05
0.000122377
0.000204113
0.000297004
0.000401575
0.000518222
0.000647155
0.000788322
0.000941312
0.0011054
0.00127913
0.00146045
0.00164654
0.00183377
0.00201766
0.00219296
0.00235382
0.00249409
0.00260777
0.00268945
0.00273506
0.00274506
-0.000267419
-0.000273685
-0.000273828
-0.000267669
-0.00025533
-0.000236531
-0.000210812
-0.000177629
-0.000136363
-8.63174e-05
-2.67318e-05
4.32029e-05
0.000124323
0.00021746
0.000323406
0.000442852
0.000576324
0.000724088
0.000886051
0.0010618
0.00125009
0.00144898
0.00165557
0.00186594
0.00207502
0.00227661
0.00246361
0.0026283
0.00276297
0.00286053
0.00291563
0.00292864
-0.000337551
-0.000344652
-0.000345919
-0.00034122
-0.000330688
-0.000314009
-0.000290667
-0.000260043
-0.000221417
-0.000173968
-0.000116779
-4.88522e-05
3.08786e-05
0.000123516
0.000230165
0.000351877
0.000489576
0.000643954
0.000815326
0.00100366
0.00120815
0.0014271
0.00165766
0.00189565
0.00213538
0.00236958
0.00258956
0.00278556
0.00294749
0.00306593
0.0031336
0.0031507
-0.000415422
-0.000423473
-0.000426048
-0.000423072
-0.000414701
-0.000400591
-0.000380173
-0.000352755
-0.000317516
-0.000273508
-0.000219652
-0.000154743
-7.74654e-05
1.35876e-05
0.000119883
0.000242896
0.000384041
0.000544544
0.000725306
0.00092672
0.00114878
0.00139016
0.00164825
0.00191881
0.00219555
0.00247004
0.00273163
0.00296787
0.00316546
0.00331155
0.00339607
0.00341881
-0.000500852
-0.000509974
-0.000514053
-0.000513087
-0.000507267
-0.000496231
-0.000479364
-0.000455903
-0.000424938
-0.000385393
-0.000336024
-0.000275415
-0.000201985
-0.000113993
-9.56812e-06
0.000113255
0.000256466
0.000421984
0.000611525
0.000825858
0.00106626
0.00133207
0.00162121
0.00192963
0.00225069
0.00257471
0.00288879
0.00317702
0.00342162
0.00360479
0.00371217
0.00374287
-0.000593621
-0.000603937
-0.000609722
-0.000611069
-0.000608222
-0.000600812
-0.00058819
-0.00056954
-0.000543868
-0.000509985
-0.000466487
-0.000411751
-0.00034392
-0.000260908
-0.000160402
-3.98941e-05
0.000103269
0.000271784
0.000468229
0.000694723
0.0009535
0.00124501
0.00156828
0.00191995
0.00229344
0.00267803
0.0030583
0.00341399
0.00372117
0.00395482
0.00409382
0.00413608
-0.000693471
-0.000705101
-0.000712794
-0.000716761
-0.000717322
-0.000714121
-0.000706495
-0.000693592
-0.000674356
-0.000647503
-0.000611487
-0.000564491
-0.000504393
-0.000428756
-0.000334813
-0.000219467
-7.93208e-05
8.92623e-05
0.000289975
0.000526303
0.000801917
0.00111905
0.00147851
0.00187838
0.00231288
0.00277083
0.00323434
0.00367794
0.00406933
0.00437283
0.00455652
0.00461628
-0.000800114
-0.000813173
-0.000822962
-0.000829839
-0.000834236
-0.000835836
-0.000833985
-0.000827825
-0.000816268
-0.00079796
-0.000771248
-0.000734146
-0.000684297
-0.000618932
-0.000534838
-0.000428319
-0.000295179
-0.000130725
7.01426e-05
0.000312915
0.000601227
0.000941821
0.0013376
0.00178921
0.00229293
0.00283838
0.00340588
0.0039642
0.00447007
0.00487202
0.0051206
0.00520832
-0.000913252
-0.000927838
-0.000939879
-0.000949917
-0.00095854
-0.000965506
-0.000970205
-0.000971808
-0.000969233
-0.0009611
-0.000945688
-0.000920892
-0.000884167
-0.000832464
-0.000762167
-0.000669018
-0.00054804
-0.000393487
-0.000198837
4.3017e-05
0.000339215
0.000698201
0.00112726
0.00163118
0.00221036
0.00285749
0.00355309
0.00426066
0.00492341
0.00546678
0.00581244
0.00594799
-0.00103261
-0.00104879
-0.00106318
-0.00107656
-0.00108971
-0.00110254
-0.00111451
-0.00112487
-0.00113259
-0.00113632
-0.00113433
-0.00112445
-0.00110403
-0.00106982
-0.0010179
-0.000943544
-0.000841084
-0.000703773
-0.000523634
-0.000291442
3.24274e-06
0.000370581
0.00082479
0.00137617
0.00203215
0.00279232
0.00364152
0.00454102
0.00541934
0.00616964
0.00666561
0.00688875
-0.001158
-0.00117579
-0.00119253
-0.00120928
-0.00122715
-0.00124619
-0.00126603
-0.00128606
-0.00130534
-0.00132261
-0.0013362
-0.00134397
-0.00134325
-0.00133071
-0.00130227
-0.0012529
-0.00117644
-0.00106534
-0.000910338
-0.000700241
-0.000421714
-6.06243e-05
0.000403349
0.000988326
0.0017127
0.00258869
0.00361296
0.00475262
0.00592526
0.00698251
0.00772095
0.00811258
-0.00128939
-0.00130872
-0.00132766
-0.00134762
-0.00137015
-0.00139556
-0.00142369
-0.00145411
-0.00148607
-0.00151846
-0.00154974
-0.00157789
-0.00160034
-0.00161384
-0.00161433
-0.00159673
-0.00155469
-0.00148023
-0.00136327
-0.00119104
-0.000947481
-0.000612523
-0.000166389
0.000424207
0.00119137
0.00216721
0.00337141
0.00479427
0.00635899
0.0078734
0.00901682
0.00975231
-0.00142703
-0.00144772
-0.00146846
-0.00149116
-0.00151797
-0.00154957
-0.00158611
-0.0016274
-0.00167294
-0.00172183
-0.00177274
-0.00182387
-0.00187287
-0.00191673
-0.00195167
-0.00197288
-0.00197424
-0.0019479
-0.00188371
-0.00176837
-0.00158444
-0.00130915
-0.000913847
-0.00036452
0.000392363
0.0014169
0.00276331
0.00447669
0.00653002
0.00871453
0.0105561
0.0119926
-0.0015717
-0.00159332
-0.00161509
-0.00163958
-0.00166982
-0.001707
-0.00175165
-0.00180393
-0.00186362
-0.00193009
-0.00200228
-0.00207868
-0.0021573
-0.00223557
-0.00231019
-0.00237702
-0.00243067
-0.00246418
-0.00246834
-0.00243078
-0.00233472
-0.0021571
-0.00186632
-0.00141957
-0.000769445
0.000196233
0.00155376
0.0034538
0.00600052
0.00908086
0.012097
0.0147854
-0.00172499
-0.00174675
-0.00176816
-0.00179278
-0.00182489
-0.0018664
-0.00191833
-0.00198125
-0.00205525
-0.00213998
-0.00223469
-0.00233823
-0.00244905
-0.00256514
-0.002684
-0.00280246
-0.00291644
-0.00302069
-0.00310814
-0.00316919
-0.00319043
-0.00315274
-0.00302828
-0.00277569
-0.00233134
-0.00164598
-0.000588575
0.00112237
0.00378747
0.00768081
0.0123619
0.0170518
-0.0018898
-0.00191018
-0.00192882
-0.00195078
-0.00198225
-0.00202603
-0.00208376
-0.00215642
-0.0022444
-0.00234762
-0.0024656
-0.00259757
-0.00274246
-0.00289895
-0.00306547
-0.00324014
-0.00342069
-0.00360432
-0.00378738
-0.00396498
-0.0041303
-0.00427361
-0.00438076
-0.00443105
-0.00439557
-0.0042455
-0.00392701
-0.00338801
-0.00201608
0.00143902
0.00760729
0.0152413
-0.00207131
-0.00208783
-0.00209983
-0.00211462
-0.00214131
-0.00218403
-0.00224515
-0.00232597
-0.00242708
-0.00254852
-0.00269001
-0.00285105
-0.00303106
-0.00322942
-0.00344554
-0.003679
-0.00392961
-0.00419756
-0.00448356
-0.00478908
-0.00511679
-0.00547158
-0.00586271
-0.00630841
-0.00684806
-0.00758823
-0.00880302
-0.0108443
-0.013016
-0.012159
-0.0057613
0.00533486
-0.00227869
-0.0022845
-0.00228175
-0.00228203
-0.00229856
-0.00233633
-0.0023981
-0.00248529
-0.00259844
-0.00273752
-0.0029023
-0.00309246
-0.0033078
-0.00354829
-0.00381428
-0.00410671
-0.00442745
-0.00477974
-0.00516885
-0.00560313
-0.00609587
-0.00666892
-0.00736032
-0.00824002
-0.00944549
-0.0112772
-0.0144534
-0.0199661
-0.0275419
-0.030247
-0.0246819
-0.0100189
-0.00251578
-0.00251588
-0.00249064
-0.00246689
-0.0024619
-0.00248532
-0.00254133
-0.00263105
-0.00275406
-0.00290954
-0.00309683
-0.00331554
-0.00356559
-0.00384734
-0.00416181
-0.00451095
-0.00489832
-0.00532962
-0.00581408
-0.00636589
-0.00700758
-0.00777558
-0.00873344
-0.00999725
-0.0117934
-0.0145589
-0.0192735
-0.0273243
-0.0392549
-0.044956
-0.0405432
-0.0226205
-0.0029076
-0.00277893
-0.00269161
-0.00261307
-0.00258128
-0.00259504
-0.00265155
-0.00274806
-0.00288317
-0.00305597
-0.00326597
-0.0035129
-0.00379686
-0.00411832
-0.00447874
-0.00488036
-0.00532784
-0.00582803
-0.0063927
-0.0070391
-0.00779472
-0.00870163
-0.0098337
-0.011321
-0.0134247
-0.0165793
-0.0218501
-0.0299903
-0.0428883
-0.0492568
-0.0446964
-0.0231074
-0.00296889
-0.00312486
-0.0030155
-0.00291594
-0.00282538
-0.00278484
-0.00280149
-0.00287641
-0.00300602
-0.00318579
-0.00341243
-0.00368377
-0.00399873
-0.00435675
-0.00475949
-0.00520756
-0.00570683
-0.00626272
-0.00688869
-0.00760131
-0.00842914
-0.00940783
-0.0106057
-0.0121369
-0.0142587
-0.0172082
-0.0221089
-0.0291379
-0.0385494
-0.0428327
-0.0362412
-0.00927624
-0.00501234
-0.00361179
-0.00317582
-0.00277134
-0.00263161
-0.00262165
-0.00269515
-0.00282412
-0.0029999
-0.00321873
-0.00348148
-0.00378814
-0.00414044
-0.00453561
-0.00498014
-0.00546768
-0.00601229
-0.00661147
-0.00728313
-0.00803937
-0.00891079
-0.00991783
-0.011096
-0.0125658
-0.0145128
-0.0171405
-0.0209571
-0.0255909
-0.0303625
-0.0301304
-0.0175161
0.0214409
-0.00163948
-0.00434504
-0.00389861
-0.00366079
-0.00337001
-0.00320691
-0.00312824
-0.00313882
-0.00323392
-0.00340205
-0.00363542
-0.00393274
-0.00428795
-0.00469353
-0.00516341
-0.00566834
-0.0062474
-0.00686699
-0.00757095
-0.00834314
-0.00923592
-0.010234
-0.0114297
-0.012822
-0.0146566
-0.0168872
-0.0198605
-0.0226427
-0.0240753
-0.0133115
0.0182353
0.0871369
-0.0184879
-0.00456064
-0.00255534
-0.00219635
-0.00203979
-0.00198901
-0.00206051
-0.00221967
-0.00245238
-0.00272613
-0.0030574
-0.00342224
-0.00385871
-0.00430879
-0.00484799
-0.00539368
-0.0060134
-0.00669731
-0.0074015
-0.00825282
-0.00914861
-0.0102075
-0.0115207
-0.013031
-0.0150765
-0.0172074
-0.0188904
-0.0175263
-0.00803107
0.0234003
0.0941487
0.208258
)
;

boundaryField
{
    movingWall
    {
        type            zeroGradient;
    }
    fixedWalls
    {
        type            zeroGradient;
    }
    frontAndBack
    {
        type            empty;
    }
}


// ************************************************************************* //
