/*--------------------------------*- C++ -*----------------------------------*\
| =========                 |                                                 |
| \\      /  F ield         | OpenFOAM: The Open Source CFD Toolbox           |
|  \\    /   O peration     | Version:  2406                                  |
|   \\  /    A nd           | Website:  www.openfoam.com                      |
|    \\/     M anipulation  |                                                 |
\*---------------------------------------------------------------------------*/
FoamFile
{
    version     2.0;
    format      ascii;
    arch        "LSB;label=32;scalar=64";
    class       volVectorField;
    location    "23.65";
    object      Uold;
}
// * * * * * * * * * * * * * * * * * * * * * * * * * * * * * * * * * * * * * //

dimensions      [0 1 -1 0 0 0 0];

internalField   nonuniform List<vector> 
14400
(
(-5.39909e-06 5.36975e-06 0)
(2.09039e-05 -1.41573e-05 0)
(9.99377e-05 -2.98864e-05 0)
(0.000211246 -4.10422e-05 0)
(0.000347758 -4.57815e-05 0)
(0.00049108 -4.74259e-05 0)
(0.000637651 -4.62151e-05 0)
(0.000777633 -4.38042e-05 0)
(0.000910139 -4.03253e-05 0)
(0.00103061 -3.65225e-05 0)
(0.00113934 -3.24382e-05 0)
(0.00123453 -2.8401e-05 0)
(0.00131688 -2.44084e-05 0)
(0.00138592 -2.0594e-05 0)
(0.00144235 -1.69338e-05 0)
(0.0014862 -1.34692e-05 0)
(0.00151804 -1.01643e-05 0)
(0.00153798 -7.01162e-06 0)
(0.00154632 -3.9616e-06 0)
(0.00154299 -9.71579e-07 0)
(0.00152789 2.02911e-06 0)
(0.00150058 5.11549e-06 0)
(0.00146038 8.38299e-06 0)
(0.00140629 1.1934e-05 0)
(0.00133697 1.58833e-05 0)
(0.00125067 2.03483e-05 0)
(0.00114532 2.54487e-05 0)
(0.00101844 3.12994e-05 0)
(0.000867212 3.80082e-05 0)
(0.000688521 4.56713e-05 0)
(0.000478979 5.43718e-05 0)
(0.000234983 6.41771e-05 0)
(-4.72117e-05 7.51376e-05 0)
(-0.000371432 8.72858e-05 0)
(-0.000741507 0.000100633 0)
(-0.00116118 0.000115169 0)
(-0.00163403 0.000130857 0)
(-0.00216334 0.000147628 0)
(-0.00275199 0.000165383 0)
(-0.00340235 0.000183982 0)
(-0.00411611 0.000203247 0)
(-0.00489418 0.000222954 0)
(-0.00573649 0.000242837 0)
(-0.00664193 0.000262586 0)
(-0.00760816 0.000281848 0)
(-0.00863153 0.000300232 0)
(-0.00970698 0.000317311 0)
(-0.010828 0.000332632 0)
(-0.0119864 0.00034572 0)
(-0.0131728 0.000356087 0)
(-0.014376 0.000363243 0)
(-0.0155836 0.000366701 0)
(-0.0167816 0.000365994 0)
(-0.0179551 0.000360682 0)
(-0.019088 0.000350363 0)
(-0.0201633 0.000334688 0)
(-0.0211637 0.000313369 0)
(-0.0220712 0.0002862 0)
(-0.0228681 0.000253065 0)
(-0.0235369 0.000213953 0)
(-0.0240606 0.000168977 0)
(-0.0244234 0.000118387 0)
(-0.0246109 6.25835e-05 0)
(-0.0246106 2.12985e-06 0)
(-0.0244121 -6.22384e-05 0)
(-0.0240078 -0.00012961 0)
(-0.0233931 -0.0001989 0)
(-0.022567 -0.000268857 0)
(-0.021532 -0.000338088 0)
(-0.0202949 -0.00040508 0)
(-0.0188666 -0.000468242 0)
(-0.0172621 -0.000525954 0)
(-0.0155009 -0.000576626 0)
(-0.0136063 -0.000618765 0)
(-0.0116052 -0.000651038 0)
(-0.00952756 -0.000672352 0)
(-0.00740592 -0.000681911 0)
(-0.00527428 -0.000679277 0)
(-0.0031673 -0.000664408 0)
(-0.00111929 -0.000637683 0)
(0.000836912 -0.000599901 0)
(0.00267092 -0.000552255 0)
(0.00435581 -0.000496284 0)
(0.00586898 -0.000433802 0)
(0.0071928 -0.000366805 0)
(0.00831509 -0.000297379 0)
(0.00922935 -0.00022759 0)
(0.00993472 -0.000159388 0)
(0.0104357 -9.45178e-05 0)
(0.0107416 -3.44537e-05 0)
(0.0108661 1.96517e-05 0)
(0.010826 6.69876e-05 0)
(0.0106406 0.000107087 0)
(0.010331 0.000139806 0)
(0.00991842 0.000165285 0)
(0.0094244 0.000183903 0)
(0.0088693 0.000196226 0)
(0.00827213 0.000202943 0)
(0.00764998 0.000204826 0)
(0.00701784 0.000202668 0)
(0.00638834 0.000197265 0)
(0.00577192 0.000189354 0)
(0.00517663 0.000179639 0)
(0.00460865 0.000168716 0)
(0.00407194 0.000157153 0)
(0.00356925 0.000145372 0)
(0.00310122 0.000133815 0)
(0.00266816 0.000122718 0)
(0.00226827 0.000112418 0)
(0.00190063 0.000102911 0)
(0.00156194 9.44228e-05 0)
(0.00125179 8.65341e-05 0)
(0.000966784 7.93129e-05 0)
(0.00070952 7.15818e-05 0)
(0.000478661 6.32474e-05 0)
(0.000282961 5.18734e-05 0)
(0.000125419 3.78165e-05 0)
(2.11606e-05 1.77066e-05 0)
(-2.57732e-05 -2.29328e-06 0)
(-1.71249e-05 -1.68667e-05 0)
(1.39665e-05 -2.08031e-05 0)
(0.000117252 -0.00011763 0)
(0.000321427 -0.000194335 0)
(0.00058582 -0.00024957 0)
(0.00090021 -0.000277689 0)
(0.00123085 -0.000288357 0)
(0.00156821 -0.000283991 0)
(0.00189249 -0.000270709 0)
(0.00219877 -0.000250635 0)
(0.00247719 -0.00022695 0)
(0.00272606 -0.000200847 0)
(0.00294109 -0.000173815 0)
(0.00312215 -0.000146364 0)
(0.00326761 -0.000119081 0)
(0.00337777 -9.20754e-05 0)
(0.00345196 -6.54656e-05 0)
(0.00349026 -3.91302e-05 0)
(0.00349203 -1.29245e-05 0)
(0.0034567 1.34428e-05 0)
(0.00338303 4.03162e-05 0)
(0.00326946 6.8154e-05 0)
(0.00311364 9.74844e-05 0)
(0.00291264 0.000128927 0)
(0.00266263 0.00016316 0)
(0.00235897 0.000200914 0)
(0.0019961 0.000242936 0)
(0.0015676 0.00028997 0)
(0.00106618 0.000342715 0)
(0.000483803 0.000401807 0)
(-0.000188204 0.000467783 0)
(-0.000958984 0.000541064 0)
(-0.00183797 0.000621935 0)
(-0.00283466 0.000710523 0)
(-0.00395837 0.000806789 0)
(-0.00521798 0.000910503 0)
(-0.00662161 0.00102123 0)
(-0.00817635 0.0011383 0)
(-0.00988788 0.0012608 0)
(-0.0117602 0.00138758 0)
(-0.0137951 0.00151716 0)
(-0.015992 0.00164783 0)
(-0.0183476 0.00177759 0)
(-0.0208554 0.00190417 0)
(-0.0235059 0.00202508 0)
(-0.0262856 0.00213761 0)
(-0.029178 0.00223894 0)
(-0.0321624 0.00232611 0)
(-0.0352152 0.00239617 0)
(-0.0383089 0.00244617 0)
(-0.0414132 0.00247329 0)
(-0.044495 0.00247488 0)
(-0.047519 0.00244853 0)
(-0.050448 0.00239214 0)
(-0.0532436 0.002304 0)
(-0.0558668 0.0021828 0)
(-0.0582785 0.00202774 0)
(-0.0604405 0.00183851 0)
(-0.0623157 0.00161538 0)
(-0.0638688 0.00135924 0)
(-0.0650672 0.00107158 0)
(-0.0658817 0.000754575 0)
(-0.0662864 0.000411052 0)
(-0.0662601 4.45407e-05 0)
(-0.0657863 -0.000340745 0)
(-0.0648539 -0.000739915 0)
(-0.0634576 -0.00114743 0)
(-0.0615984 -0.00155716 0)
(-0.0592838 -0.00196243 0)
(-0.056528 -0.00235617 0)
(-0.0533525 -0.002731 0)
(-0.0497854 -0.00307942 0)
(-0.045862 -0.00339399 0)
(-0.0416242 -0.00366755 0)
(-0.0371202 -0.00389349 0)
(-0.0324037 -0.00406596 0)
(-0.0275333 -0.00418015 0)
(-0.0225714 -0.00423254 0)
(-0.0175833 -0.00422111 0)
(-0.0126352 -0.00414552 0)
(-0.00779343 -0.00400718 0)
(-0.00312246 -0.00380934 0)
(0.00131659 -0.00355704 0)
(0.00546757 -0.00325691 0)
(0.00928077 -0.00291703 0)
(0.0127143 -0.00254659 0)
(0.0157351 -0.00215552 0)
(0.0183201 -0.00175408 0)
(0.0204561 -0.00135246 0)
(0.0221404 -0.000960335 0)
(0.0233806 -0.000586491 0)
(0.0241932 -0.000238501 0)
(0.0246037 7.7512e-05 0)
(0.0246443 0.000357029 0)
(0.0243529 0.000597184 0)
(0.0237716 0.000796729 0)
(0.0229445 0.000955901 0)
(0.0219165 0.00107625 0)
(0.0207315 0.00116037 0)
(0.0194314 0.0012117 0)
(0.0180548 0.00123418 0)
(0.0166361 0.00123208 0)
(0.0152056 0.00120971 0)
(0.0137882 0.00117134 0)
(0.0124046 0.00112093 0)
(0.0110703 0.00106219 0)
(0.00979729 0.000998294 0)
(0.00859244 0.000932185 0)
(0.00746074 0.000865996 0)
(0.00640263 0.00080174 0)
(0.00541891 0.00074016 0)
(0.00450607 0.000682093 0)
(0.00366481 0.000626162 0)
(0.00289117 0.000571694 0)
(0.00219117 0.0005141 0)
(0.00156449 0.000451495 0)
(0.00102794 0.000375349 0)
(0.000586437 0.00028635 0)
(0.000266545 0.000175543 0)
(6.74835e-05 6.56679e-05 0)
(-2.28806e-06 -2.56858e-05 0)
(2.95193e-05 -9.9335e-05 0)
(0.00019351 -0.000321647 0)
(0.000493408 -0.000494282 0)
(0.000865603 -0.000615688 0)
(0.00129927 -0.000680972 0)
(0.00175061 -0.000704751 0)
(0.00220758 -0.000694289 0)
(0.00264449 -0.00066083 0)
(0.00305381 -0.000610528 0)
(0.00342216 -0.000549829 0)
(0.00374594 -0.000482272 0)
(0.0040187 -0.000410985 0)
(0.0042389 -0.000337549 0)
(0.00440335 -0.000263158 0)
(0.00451108 -0.000188214 0)
(0.00455998 -0.000112856 0)
(0.00454868 -3.68013e-05 0)
(0.0044749 4.04356e-05 0)
(0.00433625 0.000119622 0)
(0.00412938 0.000201726 0)
(0.00385034 0.000287956 0)
(0.00349407 0.00037972 0)
(0.00305452 0.000478622 0)
(0.00252438 0.000586411 0)
(0.00189513 0.000704933 0)
(0.00115699 0.000836058 0)
(0.000298954 0.000981596 0)
(-0.000691057 0.00114322 0)
(-0.00182603 0.00132236 0)
(-0.0031196 0.00152016 0)
(-0.00458575 0.00173737 0)
(-0.0062384 0.00197432 0)
(-0.00809102 0.00223085 0)
(-0.0101562 0.00250622 0)
(-0.0124449 0.00279915 0)
(-0.0149665 0.0031077 0)
(-0.0177275 0.00342923 0)
(-0.0207314 0.00376043 0)
(-0.0239783 0.00409724 0)
(-0.0274639 0.00443489 0)
(-0.0311795 0.00476793 0)
(-0.0351114 0.00509026 0)
(-0.0392407 0.00539528 0)
(-0.0435433 0.00567595 0)
(-0.0479899 0.00592502 0)
(-0.0525462 0.00613509 0)
(-0.0571731 0.00629892 0)
(-0.0618276 0.00640951 0)
(-0.0664631 0.00646037 0)
(-0.0710303 0.00644564 0)
(-0.0754782 0.00636028 0)
(-0.0797547 0.00620022 0)
(-0.0838075 0.00596243 0)
(-0.0875852 0.00564504 0)
(-0.0910382 0.00524739 0)
(-0.0941189 0.00477008 0)
(-0.096783 0.00421497 0)
(-0.0989899 0.00358518 0)
(-0.100703 0.0028851 0)
(-0.101891 0.00212037 0)
(-0.102526 0.00129786 0)
(-0.102588 0.000425612 0)
(-0.102061 -0.000487149 0)
(-0.100935 -0.00143009 0)
(-0.0992065 -0.00239181 0)
(-0.0968795 -0.00335994 0)
(-0.093963 -0.00432123 0)
(-0.0904735 -0.0052617 0)
(-0.0864344 -0.00616681 0)
(-0.0818756 -0.0070217 0)
(-0.0768345 -0.00781143 0)
(-0.0713548 -0.00852136 0)
(-0.0654871 -0.00913749 0)
(-0.059288 -0.00964685 0)
(-0.0528202 -0.010038 0)
(-0.0461511 -0.0103013 0)
(-0.0393527 -0.0104297 0)
(-0.0325 -0.0104188 0)
(-0.0256703 -0.0102672 0)
(-0.0189412 -0.00997705 0)
(-0.01239 -0.00955389 0)
(-0.00609126 -0.00900675 0)
(-0.000115634 -0.008348 0)
(0.00547186 -0.00759303 0)
(0.0106134 -0.00675982 0)
(0.0152599 -0.00586832 0)
(0.019372 -0.00493976 0)
(0.0229214 -0.00399589 0)
(0.0258913 -0.00305813 0)
(0.0282765 -0.00214683 0)
(0.0300839 -0.0012805 0)
(0.0313315 -0.000475155 0)
(0.0320478 0.000256158 0)
(0.0322705 0.000903706 0)
(0.0320446 0.00146123 0)
(0.0314212 0.00192588 0)
(0.0304552 0.00229808 0)
(0.0292031 0.00258109 0)
(0.0277215 0.00278061 0)
(0.0260653 0.00290417 0)
(0.0242856 0.00296069 0)
(0.0224293 0.00295978 0)
(0.0205377 0.00291141 0)
(0.0186463 0.00282533 0)
(0.016784 0.00271092 0)
(0.0149745 0.00257662 0)
(0.0132343 0.00243016 0)
(0.0115766 0.00227775 0)
(0.0100078 0.00212469 0)
(0.00853401 0.0019739 0)
(0.00715489 0.0018274 0)
(0.00587477 0.00168329 0)
(0.00469135 0.00153941 0)
(0.00361451 0.00138732 0)
(0.00264459 0.00122146 0)
(0.00180446 0.00102708 0)
(0.00109757 0.00080337 0)
(0.000561665 0.00053855 0)
(0.00019007 0.00026908 0)
(2.04419e-05 2.51253e-05 0)
(4.07074e-05 -0.000209985 0)
(0.000249169 -0.000585914 0)
(0.00061581 -0.000866584 0)
(0.00105725 -0.00105681 0)
(0.00156251 -0.00115879 0)
(0.00208082 -0.00119227 0)
(0.00259994 -0.00117028 0)
(0.00309053 -0.00110894 0)
(0.00354393 -0.00101873 0)
(0.00394422 -0.000909376 0)
(0.00428627 -0.000786949 0)
(0.00456158 -0.000656278 0)
(0.00476691 -0.000520075 0)
(0.00489713 -0.000380127 0)
(0.00494937 -0.000237081 0)
(0.00491944 -9.0991e-05 0)
(0.00480378 5.87289e-05 0)
(0.00459766 0.000213088 0)
(0.00429609 0.000373551 0)
(0.00389279 0.00054196 0)
(0.00338061 0.000720556 0)
(0.00275099 0.00091192 0)
(0.00199406 0.00111895 0)
(0.00109838 0.00134474 0)
(5.10516e-05 0.00159254 0)
(-0.0011623 0.00186551 0)
(-0.00255734 0.00216668 0)
(-0.00415082 0.00249868 0)
(-0.00596019 0.00286363 0)
(-0.0080032 0.00326298 0)
(-0.0102973 0.00369733 0)
(-0.0128591 0.00416635 0)
(-0.0157037 0.00466865 0)
(-0.0188437 0.00520168 0)
(-0.022289 0.00576168 0)
(-0.0260455 0.00634358 0)
(-0.0301145 0.00694097 0)
(-0.034492 0.00754614 0)
(-0.0391684 0.00815007 0)
(-0.0441274 0.00874258 0)
(-0.0493463 0.00931245 0)
(-0.0547956 0.00984764 0)
(-0.060439 0.0103356 0)
(-0.0662343 0.0107636 0)
(-0.0721335 0.011119 0)
(-0.0780837 0.0113895 0)
(-0.0840284 0.0115641 0)
(-0.0899083 0.0116324 0)
(-0.0956626 0.0115858 0)
(-0.10123 0.0114175 0)
(-0.106551 0.0111221 0)
(-0.111567 0.0106966 0)
(-0.116221 0.0101397 0)
(-0.120464 0.00945231 0)
(-0.124245 0.00863704 0)
(-0.127523 0.00769847 0)
(-0.130259 0.00664291 0)
(-0.13242 0.0054783 0)
(-0.133977 0.00421409 0)
(-0.134909 0.00286122 0)
(-0.135198 0.00143197 0)
(-0.134832 -6.00846e-05 0)
(-0.133802 -0.00160009 0)
(-0.132109 -0.00317201 0)
(-0.129755 -0.00475865 0)
(-0.126748 -0.00634178 0)
(-0.123104 -0.00790217 0)
(-0.118841 -0.00941977 0)
(-0.113986 -0.0108739 0)
(-0.108569 -0.0122435 0)
(-0.102628 -0.0135074 0)
(-0.0962056 -0.0146449 0)
(-0.0893524 -0.0156359 0)
(-0.0821234 -0.0164618 0)
(-0.0745797 -0.0171058 0)
(-0.066788 -0.0175536 0)
(-0.0588195 -0.0177942 0)
(-0.0507497 -0.0178201 0)
(-0.042657 -0.0176281 0)
(-0.0346218 -0.0172196 0)
(-0.0267251 -0.0166008 0)
(-0.0190469 -0.0157832 0)
(-0.0116651 -0.0147829 0)
(-0.00465338 -0.0136206 0)
(0.00192018 -0.0123213 0)
(0.00799456 -0.0109132 0)
(0.0135173 -0.00942721 0)
(0.0184457 -0.00789556 0)
(0.0227479 -0.00635107 0)
(0.0264036 -0.00482583 0)
(0.0294046 -0.00335017 0)
(0.0317546 -0.00195164 0)
(0.0334693 -0.000654057 0)
(0.0345758 0.000523124 0)
(0.0351111 0.00156538 0)
(0.0351211 0.00246334 0)
(0.034659 0.00321278 0)
(0.033783 0.00381441 0)
(0.0325545 0.00427334 0)
(0.0310361 0.00459846 0)
(0.0292891 0.00480168 0)
(0.0273724 0.004897 0)
(0.0253401 0.00489984 0)
(0.0232415 0.00482603 0)
(0.0211186 0.00469139 0)
(0.0190079 0.00451077 0)
(0.0169378 0.00429802 0)
(0.0149319 0.00406479 0)
(0.0130056 0.00382108 0)
(0.0111731 0.00357325 0)
(0.00944019 0.00332557 0)
(0.00781725 0.0030766 0)
(0.00630529 0.00282334 0)
(0.00491931 0.00255437 0)
(0.00366008 0.00226065 0)
(0.00255646 0.00192225 0)
(0.0016088 0.00153532 0)
(0.000867322 0.0010848 0)
(0.000320844 0.000610068 0)
(4.50147e-05 0.000143074 0)
(4.58794e-05 -0.000346477 0)
(0.000279173 -0.000901258 0)
(0.000684468 -0.00130125 0)
(0.0011633 -0.00156236 0)
(0.00170322 -0.00169868 0)
(0.00224792 -0.00173589 0)
(0.00278515 -0.00169426 0)
(0.00328327 -0.00159467 0)
(0.00373316 -0.00145238 0)
(0.00411715 -0.00128028 0)
(0.00442893 -0.0010871 0)
(0.0046581 -0.000879235 0)
(0.00479964 -0.000660509 0)
(0.00484618 -0.000433152 0)
(0.00479258 -0.000197928 0)
(0.00463202 4.53852e-05 0)
(0.00435816 0.000297878 0)
(0.00396322 0.000561334 0)
(0.00343887 0.00083818 0)
(0.00277526 0.00113144 0)
(0.00196136 0.00144469 0)
(0.000984449 0.00178202 0)
(-0.000169751 0.00214789 0)
(-0.00151727 0.00254705 0)
(-0.0030757 0.00298426 0)
(-0.0048641 0.00346413 0)
(-0.00690263 0.00399076 0)
(-0.00921216 0.00456753 0)
(-0.0118136 0.00519677 0)
(-0.0147274 0.00587951 0)
(-0.0179723 0.00661524 0)
(-0.021565 0.00740171 0)
(-0.0255187 0.00823478 0)
(-0.0298425 0.00910826 0)
(-0.0345401 0.0100139 0)
(-0.039609 0.0109412 0)
(-0.04504 0.0118777 0)
(-0.0508159 0.0128088 0)
(-0.0569118 0.0137185 0)
(-0.0632946 0.014589 0)
(-0.0699234 0.0154018 0)
(-0.0767499 0.0161376 0)
(-0.0837192 0.0167774 0)
(-0.0907712 0.0173028 0)
(-0.0978418 0.0176965 0)
(-0.104864 0.017943 0)
(-0.111771 0.0180291 0)
(-0.118495 0.0179439 0)
(-0.124971 0.0176795 0)
(-0.131137 0.0172307 0)
(-0.136934 0.0165954 0)
(-0.14231 0.0157742 0)
(-0.147216 0.0147703 0)
(-0.15161 0.0135893 0)
(-0.155454 0.0122391 0)
(-0.158715 0.0107295 0)
(-0.161368 0.00907189 0)
(-0.163388 0.00727945 0)
(-0.164759 0.00536658 0)
(-0.165466 0.00334901 0)
(-0.1655 0.0012437 0)
(-0.164853 -0.00093119 0)
(-0.163525 -0.00315631 0)
(-0.161515 -0.00541111 0)
(-0.158828 -0.00767381 0)
(-0.155472 -0.00992143 0)
(-0.151461 -0.0121299 0)
(-0.146809 -0.0142739 0)
(-0.14154 -0.0163274 0)
(-0.13568 -0.0182637 0)
(-0.129259 -0.0200557 0)
(-0.122317 -0.0216766 0)
(-0.114897 -0.0231002 0)
(-0.107048 -0.0243017 0)
(-0.098828 -0.0252585 0)
(-0.0902979 -0.0259507 0)
(-0.0815262 -0.0263622 0)
(-0.0725862 -0.0264815 0)
(-0.0635554 -0.0263021 0)
(-0.0545149 -0.0258234 0)
(-0.0455478 -0.0250512 0)
(-0.0367376 -0.0239977 0)
(-0.0281675 -0.0226817 0)
(-0.0199176 -0.0211281 0)
(-0.0120642 -0.0193676 0)
(-0.00467777 -0.0174357 0)
(0.00217863 -0.0153721 0)
(0.00845042 -0.0132189 0)
(0.0140928 -0.0110198 0)
(0.0190717 -0.00881854 0)
(0.0233644 -0.00665762 0)
(0.0269601 -0.00457674 0)
(0.0298599 -0.00261176 0)
(0.0320767 -0.000793561 0)
(0.0336351 0.000852821 0)
(0.0345699 0.0023088 0)
(0.0349255 0.00356258 0)
(0.0347543 0.00460913 0)
(0.0341146 0.00544994 0)
(0.0330693 0.00609238 0)
(0.0316829 0.00654893 0)
(0.0300204 0.0068361 0)
(0.028144 0.00697345 0)
(0.0261132 0.00698226 0)
(0.0239812 0.00688472 0)
(0.0217963 0.00670254 0)
(0.0195984 0.0064565 0)
(0.0174229 0.00616485 0)
(0.0152954 0.00584347 0)
(0.01324 0.00550354 0)
(0.0112703 0.00515274 0)
(0.00940453 0.00479142 0)
(0.00764854 0.00441651 0)
(0.00602372 0.00401481 0)
(0.00453217 0.00357377 0)
(0.00320981 0.00306916 0)
(0.00205533 0.00249177 0)
(0.00113351 0.00182209 0)
(0.000431823 0.00109222 0)
(6.43524e-05 0.000326761 0)
(4.83481e-05 -0.000491337 0)
(0.000292918 -0.00123479 0)
(0.000712971 -0.00175465 0)
(0.00120113 -0.0020808 0)
(0.00174281 -0.00224266 0)
(0.00227831 -0.00227336 0)
(0.00279528 -0.00220134 0)
(0.00326086 -0.00205223 0)
(0.00366568 -0.00184593 0)
(0.00399087 -0.00159808 0)
(0.00422896 -0.00131974 0)
(0.00436774 -0.00101849 0)
(0.00440014 -0.000698941 0)
(0.00431634 -0.000363456 0)
(0.00410843 -1.26441e-05 0)
(0.00376652 0.000354262 0)
(0.00328092 0.000739119 0)
(0.00264019 0.00114475 0)
(0.00183209 0.00157482 0)
(0.000842563 0.00203379 0)
(-0.000343874 0.00252683 0)
(-0.00174463 0.00305974 0)
(-0.00337877 0.00363872 0)
(-0.00526718 0.00427017 0)
(-0.00743215 0.00496031 0)
(-0.00989712 0.00571485 0)
(-0.012686 0.00653852 0)
(-0.0158227 0.00743465 0)
(-0.0193297 0.00840472 0)
(-0.0232278 0.00944801 0)
(-0.0275341 0.0105612 0)
(-0.0322615 0.0117383 0)
(-0.0374173 0.01297 0)
(-0.0430018 0.0142443 0)
(-0.0490074 0.0155458 0)
(-0.0554181 0.0168563 0)
(-0.0622084 0.0181549 0)
(-0.0693437 0.0194183 0)
(-0.07678 0.0206218 0)
(-0.0844648 0.0217393 0)
(-0.0923384 0.0227448 0)
(-0.100335 0.0236128 0)
(-0.108384 0.0243194 0)
(-0.116413 0.0248428 0)
(-0.124349 0.0251643 0)
(-0.132121 0.0252685 0)
(-0.13966 0.0251439 0)
(-0.146901 0.024783 0)
(-0.153785 0.0241819 0)
(-0.160259 0.0233406 0)
(-0.166275 0.0222625 0)
(-0.171793 0.0209539 0)
(-0.176776 0.0194239 0)
(-0.181194 0.0176836 0)
(-0.185023 0.015746 0)
(-0.188241 0.0136255 0)
(-0.190831 0.0113381 0)
(-0.192778 0.00890038 0)
(-0.194072 0.00633035 0)
(-0.194702 0.00364676 0)
(-0.194662 0.000869415 0)
(-0.193947 -0.00198085 0)
(-0.192554 -0.00488203 0)
(-0.19048 -0.00781082 0)
(-0.187729 -0.0107425 0)
(-0.184303 -0.013651 0)
(-0.180209 -0.0165085 0)
(-0.175458 -0.019286 0)
(-0.170064 -0.0219528 0)
(-0.164046 -0.0244773 0)
(-0.157427 -0.0268271 0)
(-0.150238 -0.0289694 0)
(-0.142514 -0.0308718 0)
(-0.134299 -0.0325032 0)
(-0.125642 -0.0338342 0)
(-0.1166 -0.0348387 0)
(-0.107237 -0.0354944 0)
(-0.097623 -0.0357841 0)
(-0.0878346 -0.035697 0)
(-0.077953 -0.0352287 0)
(-0.0680636 -0.0343828 0)
(-0.0582536 -0.0331708 0)
(-0.0486112 -0.0316121 0)
(-0.0392233 -0.0297345 0)
(-0.030174 -0.0275728 0)
(-0.0215424 -0.0251685 0)
(-0.0134014 -0.0225684 0)
(-0.00581608 -0.0198234 0)
(0.00115774 -0.0169869 0)
(0.00747425 -0.0141133 0)
(0.0130985 -0.0112562 0)
(0.0180068 -0.00846702 0)
(0.0221872 -0.00579337 0)
(0.0256394 -0.00327781 0)
(0.0283745 -0.000956663 0)
(0.030415 0.00114089 0)
(0.0317938 0.00299349 0)
(0.0325531 0.00458791 0)
(0.0327437 0.00591908 0)
(0.032423 0.00698975 0)
(0.031653 0.00780983 0)
(0.030499 0.00839537 0)
(0.0290267 0.00876746 0)
(0.0273011 0.00895077 0)
(0.025383 0.0089723 0)
(0.0233303 0.00885971 0)
(0.0211931 0.00864034 0)
(0.0190175 0.00833921 0)
(0.0168397 0.00797859 0)
(0.0146945 0.00757542 0)
(0.0126042 0.00714183 0)
(0.0105964 0.00668131 0)
(0.00868291 0.00619185 0)
(0.00689271 0.00565992 0)
(0.00523072 0.00506996 0)
(0.00374075 0.00439409 0)
(0.00242179 0.00361546 0)
(0.00135311 0.00270759 0)
(0.000523424 0.00168624 0)
(8.00675e-05 0.000560777 0)
(4.82352e-05 -0.000641679 0)
(0.000292039 -0.00157713 0)
(0.000706507 -0.00221363 0)
(0.00117997 -0.00259725 0)
(0.00169548 -0.0027743 0)
(0.0021917 -0.00278663 0)
(0.00265588 -0.00267154 0)
(0.0030547 -0.00245948 0)
(0.00337844 -0.00217493 0)
(0.00360735 -0.00183586 0)
(0.00373268 -0.0014553 0)
(0.00374041 -0.00104157 0)
(0.00362114 -0.000599679 0)
(0.00336229 -0.000131746 0)
(0.00295279 0.000362102 0)
(0.00237923 0.000883508 0)
(0.00162808 0.00143539 0)
(0.000683737 0.00202192 0)
(-0.000470463 0.00264826 0)
(-0.00185326 0.00332059 0)
(-0.003485 0.00404588 0)
(-0.00538804 0.00483177 0)
(-0.00758637 0.00568618 0)
(-0.0101056 0.00661702 0)
(-0.0129721 0.00763157 0)
(-0.0162129 0.00873599 0)
(-0.0198541 0.00993465 0)
(-0.0239205 0.0112295 0)
(-0.0284337 0.0126196 0)
(-0.0334111 0.0141004 0)
(-0.0388644 0.0156635 0)
(-0.0447979 0.0172964 0)
(-0.0512079 0.0189825 0)
(-0.0580807 0.0207008 0)
(-0.0653927 0.0224266 0)
(-0.0731094 0.0241316 0)
(-0.0811861 0.025785 0)
(-0.089568 0.027354 0)
(-0.0981921 0.0288051 0)
(-0.106988 0.0301052 0)
(-0.115882 0.0312225 0)
(-0.124795 0.0321281 0)
(-0.13365 0.0327967 0)
(-0.142372 0.0332072 0)
(-0.150889 0.0333433 0)
(-0.159133 0.033194 0)
(-0.167045 0.0327529 0)
(-0.174571 0.0320187 0)
(-0.181665 0.030994 0)
(-0.188287 0.0296854 0)
(-0.194403 0.0281023 0)
(-0.199986 0.0262569 0)
(-0.205011 0.0241632 0)
(-0.20946 0.0218368 0)
(-0.213316 0.0192944 0)
(-0.216566 0.0165534 0)
(-0.219197 0.0136322 0)
(-0.221199 0.0105495 0)
(-0.222563 0.00732489 0)
(-0.22328 0.00397856 0)
(-0.223343 0.000531622 0)
(-0.222743 -0.00299377 0)
(-0.221476 -0.00657417 0)
(-0.219535 -0.0101846 0)
(-0.216917 -0.0137984 0)
(-0.21362 -0.017387 0)
(-0.209643 -0.0209197 0)
(-0.204989 -0.024364 0)
(-0.199665 -0.0276851 0)
(-0.19368 -0.0308467 0)
(-0.18705 -0.0338107 0)
(-0.179795 -0.0365383 0)
(-0.171943 -0.0389904 0)
(-0.163528 -0.0411286 0)
(-0.154592 -0.042916 0)
(-0.145184 -0.0443186 0)
(-0.135364 -0.0453068 0)
(-0.125197 -0.0458561 0)
(-0.114759 -0.0459491 0)
(-0.10413 -0.0455764 0)
(-0.0933988 -0.0447373 0)
(-0.0826564 -0.043441 0)
(-0.0719972 -0.0417065 0)
(-0.0615163 -0.0395629 0)
(-0.0513067 -0.0370485 0)
(-0.0414579 -0.0342101 0)
(-0.0320535 -0.0311015 0)
(-0.0231695 -0.0277821 0)
(-0.0148728 -0.024315 0)
(-0.00722001 -0.0207651 0)
(-0.000256912 -0.0171971 0)
(0.00598228 -0.0136739 0)
(0.0114749 -0.0102548 0)
(0.0162099 -0.0069938 0)
(0.0201876 -0.00393864 0)
(0.0234194 -0.00112941 0)
(0.0259272 0.00140222 0)
(0.0277434 0.00363363 0)
(0.0289091 0.00555152 0)
(0.0294738 0.00715186 0)
(0.0294937 0.00843954 0)
(0.0290303 0.00942752 0)
(0.0281481 0.0101359 0)
(0.0269134 0.0105901 0)
(0.025391 0.0108202 0)
(0.0236446 0.0108581 0)
(0.0217319 0.0107365 0)
(0.0197081 0.0104869 0)
(0.0176187 0.0101378 0)
(0.0155084 0.00971225 0)
(0.0134089 0.00922754 0)
(0.0113569 0.00869136 0)
(0.00937152 0.00810362 0)
(0.00749012 0.0074517 0)
(0.00572209 0.0067173 0)
(0.00411984 0.00586932 0)
(0.00268497 0.00488151 0)
(0.00151034 0.00371857 0)
(0.00058773 0.00237399 0)
(9.04351e-05 0.000836513 0)
(4.69595e-05 -0.000787805 0)
(0.000281349 -0.00190737 0)
(0.000673252 -0.00264961 0)
(0.0011108 -0.00307755 0)
(0.0015747 -0.00325539 0)
(0.00200398 -0.00323457 0)
(0.00238537 -0.00306166 0)
(0.00268591 -0.00277183 0)
(0.00289528 -0.00239376 0)
(0.0029931 -0.00194723 0)
(0.00296904 -0.00144663 0)
(0.00280708 -0.000900407 0)
(0.00249513 -0.000313499 0)
(0.00201751 0.000312721 0)
(0.00135952 0.000979001 0)
(0.000503814 0.00168822 0)
(-0.000567472 0.00244468 0)
(-0.00187451 0.00325418 0)
(-0.00343881 0.00412362 0)
(-0.0052841 0.00506106 0)
(-0.00743577 0.00607534 0)
(-0.00992111 0.00717584 0)
(-0.0127687 0.00837194 0)
(-0.0160082 0.00967248 0)
(-0.019669 0.0110849 0)
(-0.0237798 0.0126147 0)
(-0.0283668 0.0142641 0)
(-0.0334524 0.0160318 0)
(-0.0390537 0.0179119 0)
(-0.0451805 0.0198935 0)
(-0.051834 0.0219603 0)
(-0.0590053 0.0240906 0)
(-0.0666744 0.0262572 0)
(-0.0748095 0.0284283 0)
(-0.0833672 0.0305679 0)
(-0.0922925 0.0326369 0)
(-0.101521 0.0345944 0)
(-0.110979 0.0363993 0)
(-0.12059 0.0380117 0)
(-0.13027 0.0393944 0)
(-0.139937 0.0405142 0)
(-0.149513 0.0413432 0)
(-0.15892 0.0418591 0)
(-0.168089 0.0420459 0)
(-0.176959 0.0418937 0)
(-0.185473 0.0413985 0)
(-0.193586 0.0405617 0)
(-0.201257 0.039389 0)
(-0.208455 0.03789 0)
(-0.215153 0.0360773 0)
(-0.221327 0.0339657 0)
(-0.226962 0.0315716 0)
(-0.23204 0.0289125 0)
(-0.236551 0.0260066 0)
(-0.240482 0.0228725 0)
(-0.243824 0.0195292 0)
(-0.246567 0.0159959 0)
(-0.248703 0.012292 0)
(-0.250221 0.00843737 0)
(-0.251114 0.00445255 0)
(-0.251372 0.000358894 0)
(-0.250986 -0.00382111 0)
(-0.249947 -0.00806355 0)
(-0.248247 -0.0123427 0)
(-0.245877 -0.0166309 0)
(-0.242829 -0.0208981 0)
(-0.239097 -0.0251117 0)
(-0.234677 -0.0292365 0)
(-0.229567 -0.0332345 0)
(-0.223767 -0.0370652 0)
(-0.217284 -0.0406857 0)
(-0.210126 -0.0440514 0)
(-0.20231 -0.0471165 0)
(-0.193861 -0.049835 0)
(-0.184808 -0.0521618 0)
(-0.175193 -0.0540542 0)
(-0.165065 -0.0554733 0)
(-0.154485 -0.0563859 0)
(-0.143522 -0.0567657 0)
(-0.132256 -0.0565955 0)
(-0.120775 -0.0558683 0)
(-0.109175 -0.0545882 0)
(-0.0975557 -0.0527716 0)
(-0.086022 -0.050447 0)
(-0.074678 -0.0476545 0)
(-0.0636257 -0.0444452 0)
(-0.0529623 -0.0408794 0)
(-0.0427776 -0.0370248 0)
(-0.033152 -0.0329544 0)
(-0.0241547 -0.028744 0)
(-0.0158431 -0.0244701 0)
(-0.00826205 -0.0202073 0)
(-0.00144368 -0.0160267 0)
(0.00459206 -0.0119942 0)
(0.00983703 -0.00816854 0)
(0.0142944 -0.00460078 0)
(0.0179777 -0.00133292 0)
(0.0209109 0.00160266 0)
(0.0231269 0.0041837 0)
(0.0246674 0.00639821 0)
(0.0255817 0.00824436 0)
(0.0259256 0.00972995 0)
(0.0257597 0.0108716 0)
(0.0251487 0.0116934 0)
(0.0241577 0.0122256 0)
(0.0228531 0.0125023 0)
(0.0212972 0.0125602 0)
(0.0195517 0.0124354 0)
(0.0176696 0.0121621 0)
(0.0157042 0.0117694 0)
(0.0136957 0.0112796 0)
(0.0116899 0.0107052 0)
(0.00971375 0.0100488 0)
(0.00781304 0.00929945 0)
(0.00600314 0.00843661 0)
(0.00434505 0.0074262 0)
(0.00284491 0.00623145 0)
(0.00160696 0.00480672 0)
(0.000627356 0.00311996 0)
(9.67252e-05 0.00113683 0)
(4.43747e-05 -0.000928196 0)
(0.000261447 -0.0022179 0)
(0.000615848 -0.0030502 0)
(0.00099843 -0.00350611 0)
(0.00138777 -0.00366803 0)
(0.00172499 -0.00359747 0)
(0.00199622 -0.00335023 0)
(0.00216953 -0.00296596 0)
(0.00223375 -0.00247703 0)
(0.0021679 -0.00190437 0)
(0.00195967 -0.00126313 0)
(0.00159084 -0.00056127 0)
(0.00104618 0.000196927 0)
(0.000306534 0.0010113 0)
(-0.000646866 0.00188388 0)
(-0.00183569 0.00281913 0)
(-0.00328252 0.00382304 0)
(-0.00501241 0.00490324 0)
(-0.00705192 0.00606855 0)
(-0.0094298 0.00732894 0)
(-0.0121764 0.00869497 0)
(-0.0153233 0.0101774 0)
(-0.018903 0.0117864 0)
(-0.0229476 0.0135308 0)
(-0.0274878 0.0154167 0)
(-0.0325511 0.0174469 0)
(-0.0381605 0.0196195 0)
(-0.0443323 0.0219271 0)
(-0.0510743 0.0243559 0)
(-0.058384 0.0268858 0)
(-0.0662473 0.0294894 0)
(-0.0746375 0.0321331 0)
(-0.0835147 0.0347775 0)
(-0.0928264 0.0373783 0)
(-0.102508 0.0398881 0)
(-0.112487 0.0422578 0)
(-0.122681 0.044439 0)
(-0.133005 0.0463853 0)
(-0.143372 0.0480546 0)
(-0.153697 0.0494103 0)
(-0.1639 0.0504226 0)
(-0.173906 0.0510689 0)
(-0.18365 0.0513341 0)
(-0.193074 0.0512102 0)
(-0.202127 0.0506955 0)
(-0.210771 0.0497941 0)
(-0.218971 0.0485149 0)
(-0.226701 0.0468701 0)
(-0.233938 0.044875 0)
(-0.240666 0.0425466 0)
(-0.246869 0.0399033 0)
(-0.252537 0.0369641 0)
(-0.25766 0.0337486 0)
(-0.262228 0.0302761 0)
(-0.266235 0.0265663 0)
(-0.269673 0.0226384 0)
(-0.272534 0.018512 0)
(-0.274811 0.0142063 0)
(-0.276498 0.00974106 0)
(-0.277585 0.00513657 0)
(-0.278065 0.000413813 0)
(-0.277927 -0.00440503 0)
(-0.277163 -0.0092963 0)
(-0.275761 -0.0142344 0)
(-0.27371 -0.0191916 0)
(-0.270999 -0.0241372 0)
(-0.267615 -0.0290379 0)
(-0.263548 -0.033857 0)
(-0.258786 -0.0385542 0)
(-0.253322 -0.043086 0)
(-0.247149 -0.0474055 0)
(-0.240266 -0.051463 0)
(-0.232675 -0.0552063 0)
(-0.224386 -0.0585819 0)
(-0.215417 -0.0615362 0)
(-0.205793 -0.0640168 0)
(-0.195553 -0.0659742 0)
(-0.184745 -0.067364 0)
(-0.173429 -0.0681491 0)
(-0.16168 -0.0683014 0)
(-0.149582 -0.0678042 0)
(-0.137233 -0.0666536 0)
(-0.124738 -0.0648598 0)
(-0.11221 -0.0624479 0)
(-0.0997654 -0.0594577 0)
(-0.0875225 -0.0559428 0)
(-0.0755951 -0.0519694 0)
(-0.0640914 -0.0476134 0)
(-0.05311 -0.0429585 0)
(-0.0427373 -0.0380929 0)
(-0.0330463 -0.0331062 0)
(-0.0240951 -0.0280866 0)
(-0.0159271 -0.0231187 0)
(-0.00857119 -0.0182811 0)
(-0.00204284 -0.0136448 0)
(0.00365496 -0.00927183 0)
(0.0085304 -0.00521472 0)
(0.0126019 -0.00151544 0)
(0.0158972 0.00179484 0)
(0.0184523 0.00469599 0)
(0.0203109 0.00717892 0)
(0.0215238 0.00924525 0)
(0.0221472 0.0109068 0)
(0.0222423 0.0121843 0)
(0.0218728 0.0131064 0)
(0.0211051 0.0137075 0)
(0.0200036 0.014026 0)
(0.0186338 0.0141015 0)
(0.0170542 0.0139723 0)
(0.0153247 0.0136727 0)
(0.0134929 0.0132297 0)
(0.0116127 0.0126608 0)
(0.00971873 0.0119713 0)
(0.0078651 0.0111525 0)
(0.00607408 0.0101819 0)
(0.00441485 0.00902255 0)
(0.00289955 0.00762699 0)
(0.00164116 0.00593876 0)
(0.000640886 0.00389963 0)
(9.84313e-05 0.00145152 0)
(4.09312e-05 -0.00105683 0)
(0.000233903 -0.00249444 0)
(0.000537093 -0.00339494 0)
(0.000846862 -0.00385773 0)
(0.00113983 -0.00398359 0)
(0.00136094 -0.00384419 0)
(0.00149576 -0.00350421 0)
(0.00151403 -0.00300721 0)
(0.0014034 -0.00238852 0)
(0.00114232 -0.00166942 0)
(0.000716 -0.000865015 0)
(0.000103741 1.79131e-05 0)
(-0.000713385 0.000976322 0)
(-0.00175833 0.00201176 0)
(-0.0030544 0.00312794 0)
(-0.00462788 0.00433123 0)
(-0.00650635 0.00562949 0)
(-0.00871985 0.00703236 0)
(-0.0113 0.00855053 0)
(-0.0142802 0.0101957 0)
(-0.0176952 0.0119796 0)
(-0.02158 0.0139137 0)
(-0.0259692 0.0160078 0)
(-0.0308954 0.0182688 0)
(-0.0363874 0.0206996 0)
(-0.0424685 0.0232978 0)
(-0.0491542 0.0260542 0)
(-0.05645 0.0289524 0)
(-0.0643497 0.0319675 0)
(-0.0728341 0.0350668 0)
(-0.0818698 0.0382098 0)
(-0.091409 0.0413491 0)
(-0.101391 0.0444322 0)
(-0.111743 0.0474032 0)
(-0.122382 0.050205 0)
(-0.133221 0.0527818 0)
(-0.144169 0.0550816 0)
(-0.155134 0.0570578 0)
(-0.166031 0.0586711 0)
(-0.17678 0.0598903 0)
(-0.187308 0.060693 0)
(-0.197552 0.0610653 0)
(-0.207458 0.0610011 0)
(-0.216983 0.0605012 0)