/*--------------------------------*- C++ -*----------------------------------*\
| =========                 |                                                 |
| \\      /  F ield         | OpenFOAM: The Open Source CFD Toolbox           |
|  \\    /   O peration     | Version:  2406                                  |
|   \\  /    A nd           | Website:  www.openfoam.com                      |
|    \\/     M anipulation  |                                                 |
\*---------------------------------------------------------------------------*/
FoamFile
{
    version     2.0;
    format      ascii;
    arch        "LSB;label=32;scalar=64";
    class       volVectorField;
    location    "11.6";
    object      U;
}
// * * * * * * * * * * * * * * * * * * * * * * * * * * * * * * * * * * * * * //

dimensions      [0 1 -1 0 0 0 0];

internalField   nonuniform List<vector> 
3600
(
(2.2298e-05 -2.0619e-05 0)
(3.25719e-05 -4.44805e-06 0)
(-1.38793e-05 1.65494e-05 0)
(-0.000121291 3.62359e-05 0)
(-0.000273491 4.58073e-05 0)
(-0.000448275 5.15552e-05 0)
(-0.000639246 5.27453e-05 0)
(-0.000833265 5.38617e-05 0)
(-0.0010341 5.41811e-05 0)
(-0.00123592 5.56924e-05 0)
(-0.00144491 5.73575e-05 0)
(-0.00165774 5.99655e-05 0)
(-0.00187914 6.26033e-05 0)
(-0.00210613 6.56085e-05 0)
(-0.00234119 6.83034e-05 0)
(-0.002581 7.08337e-05 0)
(-0.0028259 7.27013e-05 0)
(-0.00307202 7.39435e-05 0)
(-0.00331788 7.41806e-05 0)
(-0.00355897 7.3388e-05 0)
(-0.00379232 7.12739e-05 0)
(-0.00401283 6.77929e-05 0)
(-0.00421643 6.27355e-05 0)
(-0.00439768 5.60746e-05 0)
(-0.0045519 4.76955e-05 0)
(-0.00467369 3.7632e-05 0)
(-0.00475842 2.58923e-05 0)
(-0.00480131 1.26209e-05 0)
(-0.00479862 -2.01358e-06 0)
(-0.00474701 -1.77104e-05 0)
(-0.00464457 -3.41131e-05 0)
(-0.00449033 -5.07503e-05 0)
(-0.00428513 -6.70955e-05 0)
(-0.00403118 -8.25556e-05 0)
(-0.00373268 -9.65243e-05 0)
(-0.00339524 -0.000108414 0)
(-0.00302635 -0.000117695 0)
(-0.00263444 -0.000123961 0)
(-0.00222927 -0.000126926 0)
(-0.00182063 -0.000126514 0)
(-0.00141883 -0.000122782 0)
(-0.00103303 -0.000116027 0)
(-0.000672221 -0.000106612 0)
(-0.000343077 -9.51171e-05 0)
(-5.19113e-05 -8.20479e-05 0)
(0.000198114 -6.80876e-05 0)
(0.000403661 -5.36673e-05 0)
(0.000565124 -3.94025e-05 0)
(0.000681358 -2.54698e-05 0)
(0.000755592 -1.23444e-05 0)
(0.000787477 1.28476e-07 0)
(0.000782312 1.15191e-05 0)
(0.000739363 2.22413e-05 0)
(0.000666266 3.15379e-05 0)
(0.000562215 3.97706e-05 0)
(0.000439863 4.49734e-05 0)
(0.00030177 4.68849e-05 0)
(0.000171215 4.08925e-05 0)
(6.0263e-05 2.71308e-05 0)
(1.86421e-06 2.37235e-06 0)
(7.5295e-06 -3.39304e-05 0)
(-7.11789e-05 6.90358e-05 0)
(-0.000285054 0.000183685 0)
(-0.00062029 0.000289126 0)
(-0.00105548 0.000352491 0)
(-0.00154644 0.000393682 0)
(-0.00207946 0.000411989 0)
(-0.00262703 0.0004243 0)
(-0.00319119 0.000430939 0)
(-0.00375946 0.000439656 0)
(-0.00433944 0.000448366 0)
(-0.00492452 0.000459589 0)
(-0.00552075 0.000470593 0)
(-0.00612231 0.000481835 0)
(-0.00673142 0.000490892 0)
(-0.00734121 0.000497477 0)
(-0.00794993 0.000499615 0)
(-0.00854915 0.000496748 0)
(-0.00913369 0.000487306 0)
(-0.00969363 0.000470701 0)
(-0.0102212 0.000445775 0)
(-0.0107054 0.000412107 0)
(-0.011137 0.000369008 0)
(-0.0115047 0.000316394 0)
(-0.011799 0.000254138 0)
(-0.0120094 0.000182661 0)
(-0.0121275 0.000102515 0)
(-0.0121449 1.47956e-05 0)
(-0.0120557 -7.91324e-05 0)
(-0.0118553 -0.00017737 0)
(-0.0115418 -0.000277685 0)
(-0.0111157 -0.000377397 0)
(-0.0105807 -0.000473571 0)
(-0.00994359 -0.000563054 0)
(-0.0092145 -0.000642694 0)
(-0.00840641 -0.000709501 0)
(-0.00753546 -0.000760861 0)
(-0.00661963 -0.000794767 0)
(-0.00567904 -0.000809919 0)
(-0.00473395 -0.000805957 0)
(-0.00380526 -0.000783333 0)
(-0.00291194 -0.000743509 0)
(-0.00207221 -0.00068852 0)
(-0.00130043 -0.000621202 0)
(-0.000609659 -0.00054441 0)
(-7.66902e-06 -0.000461466 0)
(0.000498348 -0.000375029 0)
(0.000907311 -0.000288018 0)
(0.00121667 -0.000202078 0)
(0.00143076 -0.000119314 0)
(0.00154939 -4.0138e-05 0)
(0.0015811 3.36825e-05 0)
(0.00152643 0.00010228 0)
(0.00139918 0.000162452 0)
(0.00120201 0.00021314 0)
(0.000959458 0.000246515 0)
(0.000681784 0.000258737 0)
(0.000412644 0.000234691 0)
(0.000173611 0.000173014 0)
(2.61287e-05 5.97876e-05 0)
(-1.92713e-05 1.99298e-05 0)
(-0.000222012 0.000297159 0)
(-0.000643299 0.000577351 0)
(-0.00122604 0.000822669 0)
(-0.00194846 0.000980309 0)
(-0.0027449 0.00108285 0)
(-0.00360085 0.00113441 0)
(-0.00447731 0.00116635 0)
(-0.00537602 0.00118376 0)
(-0.00627844 0.00120125 0)
(-0.00719214 0.00121726 0)
(-0.00810679 0.00123586 0)
(-0.0090279 0.00125274 0)
(-0.00994649 0.00126775 0)
(-0.0108633 0.00127645 0)
(-0.011768 0.00127731 0)
(-0.0126564 0.00126649 0)
(-0.0135165 0.00124221 0)
(-0.0143398 0.00120142 0)
(-0.0151128 0.00114263 0)
(-0.0158245 0.00106376 0)
(-0.0164605 0.000963995 0)
(-0.0170088 0.000842431 0)
(-0.0174557 0.000699231 0)
(-0.0177898 0.000534786 0)
(-0.0179993 0.000350492 0)
(-0.018075 0.000148203 0)
(-0.0180083 -6.92216e-05 0)
(-0.0177938 -0.00029828 0)
(-0.0174279 -0.000534477 0)
(-0.0169104 -0.000772616 0)
(-0.0162439 -0.00100668 0)
(-0.0154352 -0.00123014 0)
(-0.0144942 -0.00143615 0)
(-0.0134354 -0.00161788 0)
(-0.0122763 -0.00176895 0)
(-0.0110383 -0.00188381 0)
(-0.00974495 -0.00195821 0)
(-0.00842247 -0.00198951 0)
(-0.00709717 -0.00197698 0)
(-0.00579609 -0.00192174 0)
(-0.00454395 -0.00182699 0)
(-0.00336441 -0.00169732 0)
(-0.00227647 -0.00153885 0)
(-0.00129722 -0.00135807 0)
(-0.000437404 -0.00116213 0)
(0.000293411 -0.000957252 0)
(0.000892923 -0.000749656 0)
(0.00135761 -0.000543545 0)
(0.00169205 -0.000343273 0)
(0.00189598 -0.000150724 0)
(0.0019794 3.05637e-05 0)
(0.00194356 0.000199126 0)
(0.00180547 0.000348423 0)
(0.00156983 0.000473236 0)
(0.00126794 0.000558207 0)
(0.000913922 0.00059147 0)
(0.000564028 0.000547196 0)
(0.000244319 0.000416185 0)
(4.09663e-05 0.00017262 0)
(-5.0589e-05 0.000161563 0)
(-0.000395394 0.000702861 0)
(-0.00104263 0.00119942 0)
(-0.00187911 0.00161056 0)
(-0.00288383 0.0018794 0)
(-0.00396932 0.00205318 0)
(-0.00512528 0.00214474 0)
(-0.0063025 0.00219942 0)
(-0.00750487 0.00222822 0)
(-0.00870747 0.00225229 0)
(-0.00991811 0.00227105 0)
(-0.0111218 0.00228997 0)
(-0.012323 0.00230328 0)
(-0.0135088 0.00231007 0)
(-0.0146783 0.00230381 0)
(-0.0158175 0.00228163 0)
(-0.0169201 0.00223781 0)
(-0.0179707 0.00216937 0)
(-0.0189589 0.00207196 0)
(-0.0198684 0.00194342 0)
(-0.0206869 0.00178119 0)
(-0.0213985 0.00158452 0)
(-0.0219907 0.00135282 0)
(-0.0224496 0.00108709 0)
(-0.0227643 0.000788759 0)
(-0.0229239 0.000460694 0)
(-0.0229205 0.000106457 0)
(-0.022747 -0.000269014 0)
(-0.0223996 -0.000659843 0)
(-0.0218762 -0.00105877 0)
(-0.0211783 -0.00145749 0)
(-0.02031 -0.00184652 0)
(-0.0192799 -0.00221562 0)
(-0.0180998 -0.00255402 0)
(-0.0167862 -0.00285103 0)
(-0.0153592 -0.00309657 0)
(-0.0138431 -0.0032819 0)
(-0.0122652 -0.00340027 0)
(-0.0106553 -0.00344745 0)
(-0.00904408 -0.00342224 0)
(-0.00746297 -0.00332649 0)
(-0.005941 -0.00316526 0)
(-0.0045059 -0.00294604 0)
(-0.00318011 -0.00267871 0)
(-0.00198369 -0.0023739 0)
(-0.000929335 -0.00204323 0)
(-2.80878e-05 -0.00169699 0)
(0.000717316 -0.00134526 0)
(0.00130307 -0.000995193 0)
(0.00173444 -0.000653772 0)
(0.00201149 -0.000324632 0)
(0.00214565 -1.34051e-05 0)
(0.00213866 0.000276445 0)
(0.00200997 0.000534593 0)
(0.00176497 0.000750906 0)
(0.00143921 0.000902122 0)
(0.0010477 0.000967062 0)
(0.000654327 0.000908779 0)
(0.000287072 0.000704753 0)
(4.93403e-05 0.000311027 0)
(-7.81382e-05 0.000393102 0)
(-0.000559147 0.00129954 0)
(-0.00142722 0.00207096 0)
(-0.00251008 0.00267742 0)
(-0.00378552 0.00307427 0)
(-0.00514223 0.00332705 0)
(-0.00657531 0.00346271 0)
(-0.00802542 0.00354054 0)
(-0.00950017 0.00357901 0)
(-0.0109685 0.00360521 0)
(-0.0124391 0.00362002 0)
(-0.013892 0.00362983 0)
(-0.0153312 0.00362759 0)
(-0.0167394 0.00361131 0)
(-0.0181141 0.00357248 0)
(-0.0194379 0.00350678 0)
(-0.0207028 0.00340681 0)
(-0.0218908 0.00326852 0)
(-0.0229903 0.00308668 0)
(-0.0239838 0.00285891 0)
(-0.0248588 0.00258275 0)
(-0.0255996 0.00225811 0)
(-0.0261952 0.00188537 0)
(-0.026633 0.00146685 0)
(-0.0269044 0.00100547 0)
(-0.0270006 0.000505806 0)
(-0.026916 -2.6771e-05 0)
(-0.0266452 -0.000585308 0)
(-0.0261859 -0.0011617 0)
(-0.0255367 -0.00174612 0)
(-0.0246994 -0.00232731 0)
(-0.0236778 -0.00289237 0)
(-0.0224799 -0.0034272 0)
(-0.0211173 -0.00391682 0)
(-0.0196063 -0.00434614 0)
(-0.0179675 -0.00470074 0)
(-0.0162269 -0.00496788 0)
(-0.014414 -0.00513755 0)
(-0.0125624 -0.00520324 0)
(-0.0107071 -0.00516284 0)
(-0.00888456 -0.00501871 0)
(-0.00712899 -0.004778 0)
(-0.00547318 -0.00445157 0)
(-0.00394375 -0.00405388 0)
(-0.00256409 -0.00360073 0)
(-0.00134885 -0.00310922 0)
(-0.000310066 -0.00259477 0)
(0.000549969 -0.00207215 0)
(0.00122827 -0.00155213 0)
(0.00173203 -0.0010447 0)
(0.00206272 -0.000555523 0)
(0.00223414 -9.23639e-05 0)
(0.002249 0.000339068 0)
(0.00212914 0.000724605 0)
(0.0018802 0.00104852 0)
(0.00154079 0.00127926 0)
(0.00112602 0.00138483 0)
(0.000705485 0.00131594 0)
(0.000309177 0.00103327 0)
(5.23761e-05 0.000470087 0)
(-0.000103975 0.000705674 0)
(-0.000714608 0.0020711 0)
(-0.00179093 0.00316612 0)
(-0.00310424 0.00398712 0)
(-0.00463009 0.00451827 0)
(-0.00623387 0.0048493 0)
(-0.00791653 0.00502656 0)
(-0.0096091 0.00512325 0)
(-0.0113237 0.0051661 0)
(-0.0130231 0.00518707 0)
(-0.0147175 0.00518849 0)
(-0.016382 0.00517712 0)
(-0.0180199 0.00514467 0)
(-0.0196101 0.00508797 0)
(-0.0211485 0.00499681 0)
(-0.0226147 0.00486561 0)
(-0.0239996 0.00468575 0)
(-0.0252834 0.00445268 0)
(-0.0264545 0.004161 0)
(-0.0274952 0.0038089 0)
(-0.0283946 0.00339484 0)
(-0.029139 0.00292022 0)
(-0.0297201 0.00238702 0)
(-0.0301289 0.00179932 0)
(-0.0303603 0.00116168 0)
(-0.0304086 0.000480154 0)
(-0.0302709 -0.000238623 0)
(-0.0299434 -0.000986495 0)
(-0.0294239 -0.00175411 0)
(-0.0287097 -0.00253008 0)
(-0.0278003 -0.00330111 0)
(-0.0266961 -0.00405151 0)
(-0.0254009 -0.00476366 0)
(-0.0239221 -0.00541821 0)
(-0.0222728 -0.00599509 0)
(-0.0204713 -0.00647451 0)
(-0.0185431 -0.00683841 0)
(-0.0165196 -0.00707199 0)
(-0.0144383 -0.00716503 0)
(-0.0123403 -0.0071133 0)
(-0.0102696 -0.00691893 0)
(-0.00826897 -0.00659094 0)
(-0.00637952 -0.00614409 0)
(-0.00463521 -0.00559836 0)
(-0.00306523 -0.00497612 0)
(-0.00168763 -0.00430153 0)
(-0.000515907 -0.00359664 0)
(0.000448671 -0.00288214 0)
(0.00120523 -0.00217329 0)
(0.00176469 -0.00148352 0)
(0.00213191 -0.000820561 0)
(0.00232489 -0.000194047 0)
(0.00234885 0.000388556 0)
(0.002229 0.0009097 0)
(0.00197176 0.00134852 0)
(0.00161851 0.00166521 0)
(0.00118425 0.00181666 0)
(0.00074259 0.00173964 0)
(0.000325087 0.0013763 0)
(5.43561e-05 0.000634021 0)
(-0.000126194 0.00109584 0)
(-0.0008533 0.00301137 0)
(-0.00211824 0.00447891 0)
(-0.00364074 0.00553582 0)
(-0.00539347 0.00620884 0)
(-0.00721942 0.00661793 0)
(-0.0091248 0.00683385 0)
(-0.0110313 0.00694432 0)
(-0.0129554 0.00698528 0)
(-0.0148543 0.00699276 0)
(-0.0167399 0.00697068 0)
(-0.0185827 0.00692551 0)
(-0.0203856 0.00684794 0)
(-0.0221239 0.00673346 0)
(-0.0237928 0.00657049 0)
(-0.0253693 0.00635246 0)
(-0.0268439 0.00607018 0)
(-0.0281959 0.00571925 0)
(-0.029415 0.00529504 0)
(-0.030485 0.00479723 0)
(-0.0313983 0.00422629 0)
(-0.032145 0.00358593 0)
(-0.0327224 0.00288043 0)
(-0.0331264 0.00211582 0)
(-0.0333575 0.00129803 0)
(-0.0334142 0.000433748 0)
(-0.0332963 -0.000470433 0)
(-0.0330004 -0.00140687 0)
(-0.0325223 -0.00236685 0)
(-0.0318545 -0.00333927 0)
(-0.0309892 -0.00431033 0)
(-0.0299177 -0.00526264 0)
(-0.0286339 -0.0061754 0)
(-0.0271346 -0.00702441 0)
(-0.0254238 -0.00778327 0)
(-0.023513 -0.00842464 0)
(-0.0214238 -0.00892233 0)
(-0.0191882 -0.00925355 0)
(-0.0168487 -0.00940118 0)
(-0.0144555 -0.00935607 0)
(-0.0120658 -0.00911823 0)
(-0.00973721 -0.00869779 0)
(-0.00752677 -0.00811387 0)
(-0.00548292 -0.00739376 0)
(-0.00364684 -0.00656901 0)
(-0.00204438 -0.00567403 0)
(-0.000692866 -0.00474062 0)
(0.000407137 -0.00379813 0)
(0.00125821 -0.00286827 0)
(0.00187765 -0.00196903 0)
(0.00227677 -0.00111045 0)
(0.00248107 -0.000303689 0)
(0.00250109 0.000442832 0)
(0.0023677 0.00110907 0)
(0.00208971 0.00166984 0)
(0.00171228 0.0020773 0)
(0.00125081 0.00227729 0)
(0.000783052 0.00219127 0)
(0.000341839 0.0017423 0)
(5.63889e-05 0.000808565 0)
(-0.000146575 0.00155208 0)
(-0.000979485 0.00409753 0)
(-0.00241399 0.00597863 0)
(-0.0041239 0.00728731 0)
(-0.00607886 0.00810509 0)
(-0.00810161 0.00858854 0)
(-0.0102032 0.00883723 0)
(-0.0122965 0.00895422 0)
(-0.0144027 0.00898527 0)
(-0.0164732 0.0089698 0)
(-0.018522 0.00891317 0)
(-0.0205152 0.00882115 0)
(-0.0224561 0.00868348 0)
(-0.0243163 0.00849434 0)
(-0.0260911 0.00824123 0)
(-0.0277555 0.0079171 0)
(-0.0293006 0.00751308 0)
(-0.0307063 0.00702591 0)
(-0.0319649 0.00645309 0)
(-0.033064 0.00579722 0)
(-0.0340022 0.00506219 0)
(-0.0347768 0.00425524 0)
(-0.0353938 0.00338362 0)
(-0.0358579 0.00245527 0)
(-0.0361775 0.0014765 0)
(-0.036357 0.000452748 0)
(-0.0363986 -0.000612192 0)
(-0.0362974 -0.00171451 0)
(-0.036043 -0.00284971 0)
(-0.0356172 -0.00401044 0)
(-0.0349972 -0.00518537 0)
(-0.0341561 -0.00635751 0)
(-0.0330673 -0.00750375 0)
(-0.0317073 -0.0085946 0)
(-0.0300611 -0.00959526 0)
(-0.0281246 -0.0104673 0)
(-0.0259101 -0.0111714 0)
(-0.0234464 -0.011671 0)
(-0.0207817 -0.011936 0)
(-0.0179796 -0.0119466 0)
(-0.0151181 -0.0116962 0)
(-0.0122811 -0.0111936 0)
(-0.00955474 -0.0104619 0)
(-0.00701546 -0.00953794 0)
(-0.00472901 -0.0084667 0)
(-0.00273895 -0.0072983 0)
(-0.00107294 -0.00608015 0)
(0.000266607 -0.00485559 0)
(0.00128653 -0.00365672 0)
(0.00201395 -0.00250855 0)
(0.00247158 -0.00142418 0)
(0.00269789 -0.000415804 0)
(0.00271384 0.000508704 0)
(0.0025604 0.00132853 0)
(0.00225194 0.00201603 0)
(0.00183975 0.00251644 0)
(0.00134085 0.00276525 0)
(0.000838022 0.00266775 0)
(0.00036543 0.00212729 0)
(5.99994e-05 0.000990412 0)
(-0.000164285 0.00207071 0)
(-0.00109085 0.00531935 0)
(-0.00267556 0.007652 0)
(-0.00455139 0.00922826 0)
(-0.00668531 0.0101946 0)
(-0.00888179 0.01075 0)
(-0.0111562 0.0110265 0)
(-0.0134134 0.0111435 0)
(-0.0156785 0.0111572 0)
(-0.0178982 0.01111 0)
(-0.0200884 0.0110086 0)
(-0.0222112 0.0108578 0)
(-0.0242706 0.0106466 0)
(-0.0262356 0.0103679 0)
(-0.0281019 0.010009 0)
(-0.0298433 0.00956288 0)
(-0.0314531 0.00902232 0)
(-0.0329133 0.00838669 0)
(-0.0342219 0.00765757 0)
(-0.035374 0.00684263 0)
(-0.0363789 0.00595136 0)
(-0.0372468 0.0049961 0)
(-0.0379981 0.00398774 0)
(-0.0386513 0.00293545 0)
(-0.0392266 0.00184367 0)
(-0.0397357 0.000712811 0)
(-0.0401824 -0.00046109 0)
(-0.0405561 -0.00168382 0)
(-0.0408332 -0.00296108 0)
(-0.0409749 -0.00429491 0)
(-0.0409312 -0.00568121 0)
(-0.0406427 -0.00710672 0)
(-0.0400477 -0.00854754 0)
(-0.0390865 -0.00996808 0)
(-0.0377104 -0.0113219 0)
(-0.035887 -0.0125537 0)
(-0.0336084 -0.0136032 0)
(-0.0308945 -0.0144103 0)
(-0.0277973 -0.0149211 0)
(-0.0243979 -0.0150947 0)
(-0.0208051 -0.0149089 0)
(-0.0171447 -0.0143647 0)
(-0.0135517 -0.013487 0)
(-0.0101533 -0.012324 0)
(-0.0070626 -0.0109404 0)
(-0.00436043 -0.00941132 0)
(-0.00209936 -0.00781047 0)
(-0.000291604 -0.00620557 0)
(0.00107238 -0.00464754 0)
(0.00203342 -0.00317395 0)
(0.00263288 -0.00180342 0)
(0.0029312 -0.000549065 0)
(0.00296854 0.000583794 0)
(0.00280385 0.00157641 0)
(0.00246309 0.00240174 0)
(0.00200848 0.00300035 0)
(0.00146138 0.00329898 0)
(0.000912343 0.00318658 0)
(0.000397633 0.00254601 0)
(6.52287e-05 0.00118853 0)
(-0.000180465 0.00264231 0)
(-0.00119108 0.00665757 0)
(-0.00290926 0.00947376 0)
(-0.00493205 0.01133 0)
(-0.00722407 0.0124466 0)
(-0.00957381 0.0130704 0)
(-0.0120007 0.0133692 0)
(-0.0144024 0.0134795 0)
(-0.0168079 0.0134685 0)
(-0.0191596 0.0133812 0)
(-0.0214752 0.0132258 0)
(-0.0237137 0.0130058 0)
(-0.0258801 0.0127097 0)
(-0.0279412 0.0123294 0)
(-0.0298939 0.0118526 0)
(-0.0317126 0.0112738 0)
(-0.0333943 0.0105891 0)
(-0.0349265 0.00980313 0)
(-0.0363178 0.00892476 0)
(-0.0375768 0.00797025 0)
(-0.0387321 0.00695795 0)
(-0.0398152 0.00590741 0)
(-0.0408695 0.00483345 0)
(-0.0419343 0.00374423 0)
(-0.0430457 0.00263766 0)
(-0.0442229 0.00150219 0)
(-0.0454677 0.000317594 0)
(-0.0467559 -0.000940844 0)
(-0.0480391 -0.00229831 0)
(-0.0492428 -0.00377485 0)
(-0.0502723 -0.00538064 0)
(-0.0510169 -0.00711108 0)
(-0.051359 -0.00894366 0)
(-0.0511833 -0.0108357 0)
(-0.0503883 -0.0127246 0)
(-0.0488966 -0.0145302 0)
(-0.0466662 -0.0161597 0)
(-0.0436977 -0.0175153 0)
(-0.0400412 -0.0185032 0)
(-0.0357962 -0.0190444 0)
(-0.03111 -0.0190849 0)
(-0.0261661 -0.0186049 0)
(-0.021173 -0.0176232 0)
(-0.0163402 -0.0161984 0)
(-0.0118629 -0.0144211 0)
(-0.00789408 -0.0124047 0)
(-0.00454015 -0.0102671 0)
(-0.00184268 -0.00811916 0)
(0.000201969 -0.00604704 0)
(0.00165006 -0.00411286 0)
(0.00257083 -0.00234697 0)
(0.00306011 -0.000764766 0)
(0.00319164 0.00063361 0)
(0.00305571 0.00183603 0)
(0.00270059 0.00282127 0)
(0.00220779 0.00352969 0)
(0.00160836 0.00388228 0)
(0.00100516 0.0037528 0)
(0.000438704 0.00300253 0)
(7.22747e-05 0.00140424 0)
(-0.00019465 0.00326326 0)
(-0.00127975 0.00810233 0)
(-0.00311621 0.0114308 0)
(-0.00526905 0.0135786 0)
(-0.00770117 0.0148479 0)
(-0.010187 0.015538 0)
(-0.0127498 0.0158551 0)
(-0.0152811 0.0159538 0)
(-0.0178134 0.0159126 0)
(-0.0202852 0.0157789 0)
(-0.0227166 0.0155625 0)
(-0.0250639 0.0152655 0)
(-0.0273333 0.0148762 0)
(-0.0294905 0.0143861 0)
(-0.0315348 0.0137845 0)
(-0.0334431 0.0130694 0)
(-0.0352199 0.0122434 0)
(-0.0368638 0.0113206 0)
(-0.0384017 0.0103227 0)
(-0.0398669 0.00928003 0)
(-0.0413191 0.00822412 0)
(-0.0428237 0.00718378 0)
(-0.0444576 0.00617626 0)
(-0.0462876 0.00520327 0)
(-0.0483674 0.00424718 0)
(-0.05072 0.00327272 0)
(-0.0533357 0.00223018 0)
(-0.0561623 0.00106231 0)
(-0.0591089 -0.00028844 0)
(-0.0620444 -0.00187135 0)
(-0.0648073 -0.00371967 0)
(-0.0672121 -0.00584308 0)
(-0.0690642 -0.00822224 0)
(-0.0701722 -0.0108051 0)
(-0.0703644 -0.0135066 0)
(-0.0695025 -0.0162112 0)
(-0.0674967 -0.0187797 0)
(-0.0643159 -0.0210588 0)
(-0.0599976 -0.0228943 0)
(-0.0546518 -0.024146 0)
(-0.0484622 -0.0247041 0)
(-0.041677 -0.0245051 0)
(-0.0345968 -0.0235435 0)
(-0.0275459 -0.021878 0)
(-0.0208464 -0.019627 0)
(-0.0147753 -0.0169561 0)
(-0.00954417 -0.0140524 0)
(-0.00526557 -0.0111009 0)
(-0.00196736 -0.00825347 0)
(0.000414486 -0.00562141 0)
(0.00198463 -0.00326181 0)
(0.00289179 -0.00119801 0)
(0.00326486 0.000577039 0)
(0.00324675 0.0020644 0)
(0.00292602 0.00325693 0)
(0.00241774 0.00410266 0)
(0.00177231 0.00452252 0)
(0.00111248 0.00437817 0)
(0.000487199 0.00350884 0)
(8.07813e-05 0.00164495 0)
(-0.000207654 0.00392698 0)
(-0.00135975 0.00964001 0)
(-0.00330181 0.0135057 0)
(-0.00557064 0.0159549 0)
(-0.00812783 0.0173786 0)
(-0.0107358 0.0181332 0)
(-0.0134214 0.0184653 0)
(-0.016071 0.0185487 0)
(-0.0187208 0.0184733 0)
(-0.0213059 0.0182891 0)
(-0.0238488 0.0180071 0)
(-0.0263038 0.0176284 0)
(-0.0286791 0.0171414 0)
(-0.0309403 0.0165384 0)
(-0.0330912 0.0158124 0)
(-0.0351146 0.0149682 0)
(-0.0370287 0.0140206 0)
(-0.0388525 0.0130004 0)
(-0.0406446 0.0119504 0)
(-0.0424781 0.0109225 0)
(-0.0444606 0.00996656 0)
(-0.0467055 0.0091205 0)
(-0.0493328 0.00839826 0)
(-0.0524389 0.00778376 0)
(-0.0560896 0.00722824 0)
(-0.0602993 0.00665479 0)
(-0.0650282 0.00596565 0)
(-0.0701736 0.00505335 0)
(-0.0755763 0.00381229 0)
(-0.0810227 0.00215146 0)
(-0.0862595 6.14816e-06 0)
(-0.0910059 -0.00265123 0)
(-0.0949744 -0.00580331 0)
(-0.0978875 -0.00938307 0)
(-0.0994977 -0.0132738 0)
(-0.0996021 -0.0173133 0)
(-0.0980577 -0.0213018 0)
(-0.0947919 -0.0250147 0)
(-0.0898142 -0.0282174 0)
(-0.0832244 -0.0306847 0)
(-0.0752202 -0.032222 0)
(-0.066096 -0.032689 0)
(-0.0562382 -0.0320224 0)
(-0.0460989 -0.030253 0)
(-0.0361653 -0.0275113 0)
(-0.0269009 -0.0240194 0)
(-0.0186989 -0.0200589 0)
(-0.01182 -0.0159322 0)
(-0.006384 -0.0119081 0)
(-0.00235207 -0.00819386 0)
(0.000411055 -0.0049066 0)
(0.00212392 -0.00209428 0)
(0.00299916 0.000255666 0)
(0.00326365 0.00216558 0)
(0.00307456 0.00365494 0)
(0.00260332 0.00469256 0)
(0.0019359 0.00520934 0)
(0.00122685 0.00506157 0)
(0.000540931 0.00406736 0)
(9.05569e-05 0.00191224 0)
(-0.000219137 0.0046298 0)
(-0.00143101 0.0112617 0)
(-0.00346755 0.0156868 0)
(-0.00584028 0.0184467 0)
(-0.00851012 0.0200273 0)
(-0.011229 0.0208461 0)
(-0.0140277 0.021192 0)
(-0.016788 0.0212587 0)
(-0.0195497 0.0211479 0)
(-0.0222457 0.0209117 0)
(-0.0249007 0.0205631 0)
(-0.0274679 0.0201018 0)
(-0.0299583 0.0195177 0)
(-0.0323395 0.0188054 0)
(-0.0346229 0.0179656 0)
(-0.0368036 0.017016 0)
(-0.0389235 0.0159926 0)
(-0.0410366 0.0149544 0)
(-0.0432513 0.0139768 0)
(-0.0457014 0.0131423 0)
(-0.0485597 0.0125214 0)
(-0.0519991 0.0121556 0)
(-0.0561841 0.0120415 0)
(-0.0612317 0.0121248 0)
(-0.0672019 0.0123019 0)
(-0.0740741 0.0124296 0)
(-0.0817477 0.0123388 0)
(-0.0900361 0.0118516 0)
(-0.0986786 0.0107987 0)
(-0.107351 0.00903775 0)
(-0.115687 0.00647013 0)
(-0.123303 0.00305489 0)
(-0.129825 -0.0011826 0)
(-0.134904 -0.00614767 0)
(-0.13824 -0.0116796 0)
(-0.139586 -0.0175592 0)
(-0.138761 -0.023519 0)
(-0.135649 -0.0292568 0)
(-0.130217 -0.0344496 0)
(-0.12252 -0.0387729 0)
(-0.112719 -0.0419232 0)
(-0.101096 -0.043647 0)
(-0.0880682 -0.0437748 0)
(-0.074178 -0.0422552 0)
(-0.0600742 -0.0391824 0)
(-0.0464489 -0.0348058 0)
(-0.0339656 -0.0295066 0)
(-0.0231513 -0.023748 0)
(-0.0143356 -0.0179883 0)
(-0.00759396 -0.0126124 0)
(-0.00280227 -0.0078658 0)
(0.000329742 -0.00386315 0)
(0.0021294 -0.000600288 0)
(0.00294983 0.00197293 0)
(0.00305876 0.0039198 0)
(0.00271876 0.00525035 0)
(0.0020774 0.00592239 0)
(0.00133944 0.00579924 0)
(0.00059734 0.00468212 0)
(0.000101294 0.00221053 0)
(-0.000229729 0.00536781 0)
(-0.00149563 0.012959 0)
(-0.00361726 0.0179637 0)
(-0.00608387 0.0210428 0)
(-0.00885615 0.0227833 0)
(-0.0116772 0.0236672 0)
(-0.0145817 0.0240275 0)
(-0.0174479 0.0240782 0)
(-0.0203193 0.0239331 0)
(-0.023127 0.0236468 0)
(-0.0258987 0.0232339 0)
(-0.0285873 0.022694 0)
(-0.031208 0.0220197 0)
(-0.0337334 0.0212115 0)
(-0.0361882 0.0202842 0)
(-0.0385896 0.0192786 0)
(-0.0410181 0.0182661 0)
(-0.0435833 0.0173498 0)
(-0.0464669 0.0166514 0)
(-0.0498838 0.0162902 0)
(-0.0540847 0.0163528 0)
(-0.0593022 0.0168675 0)
(-0.0657304 0.0177873 0)
(-0.0734803 0.0189885 0)
(-0.0825686 0.0202801 0)
(-0.0928968 0.0214224 0)
(-0.104257 0.0221493 0)
(-0.116334 0.0221933 0)
(-0.128728 0.0213116 0)
(-0.140982 0.0193126 0)
(-0.152617 0.0160775 0)
(-0.16317 0.0115746 0)
(-0.172225 0.00586281 0)
(-0.179421 -0.000913278 0)
(-0.184466 -0.00853538 0)
(-0.187126 -0.0167245 0)
(-0.187217 -0.0251536 0)
(-0.184603 -0.0334566 0)
(-0.179194 -0.0412387 0)
(-0.170962 -0.048086 0)
(-0.159961 -0.0535829 0)
(-0.146362 -0.0573388 0)
(-0.130495 -0.0590274 0)
(-0.112877 -0.0584393 0)
(-0.0942237 -0.0555387 0)
(-0.0754212 -0.0505127 0)
(-0.0574467 -0.0437858 0)
(-0.0412238 -0.0359852 0)
(-0.0274775 -0.0278317 0)
(-0.0165837 -0.0200095 0)
(-0.00855808 -0.01302 0)
(-0.00308846 -0.00713999 0)
(0.000283359 -0.00241985 0)
(0.00208646 0.00121389 0)
(0.00275768 0.00388858 0)
(0.00270202 0.00568545 0)
(0.00216828 0.00661617 0)
(0.00143934 0.00657248 0)
(0.000653751 0.00534851 0)
(0.000112904 0.00254025 0)
(-0.00023902 0.00613671 0)
(-0.00155308 0.0147231 0)
(-0.00375126 0.0203255 0)
(-0.00630287 0.0237321 0)
(-0.00916904 0.0256365 0)
(-0.0120853 0.0265879 0)
(-0.0150903 0.0269652 0)
(-0.0180599 0.0270034 0)
(-0.0210411 0.0268284 0)
(-0.0239641 0.0264973 0)
(-0.0268602 0.026027 0)
(-0.0296833 0.0254181 0)
(-0.0324553 0.0246688 0)
(-0.0351585 0.0237916 0)
(-0.0378396 0.0228258 0)
(-0.0405527 0.0218516 0)
(-0.0434376 0.0209952 0)
(-0.0466846 0.0204233 0)
(-0.0505716 0.0203158 0)
(-0.0554087 0.0208262 0)
(-0.061522 0.0220382 0)
(-0.069182 0.0239334 0)
(-0.0785744 0.0263802 0)
(-0.0897528 0.0291429 0)
(-0.102632 0.0319036 0)
(-0.116971 0.0342925 0)
(-0.132394 0.0359221 0)
(-0.148404 0.0364251 0)
(-0.164435 0.0354945 0)
(-0.179901 0.0329187 0)
(-0.194257 0.028603 0)
(-0.207037 0.0225747 0)
(-0.217876 0.0149691 0)
(-0.226506 0.00600797 0)
(-0.232736 -0.00402533 0)
(-0.236424 -0.0148044 0)
(-0.237447 -0.0259706 0)
(-0.235682 -0.0371363 0)
(-0.230998 -0.047881 0)
(-0.223255 -0.0577481 0)
(-0.212338 -0.0662445 0)
(-0.198198 -0.0728542 0)
(-0.180921 -0.0770702 0)
(-0.160801 -0.0784535 0)
(-0.138415 -0.0767163 0)
(-0.114661 -0.0718245 0)
(-0.0907305 -0.0640828 0)
(-0.0679834 -0.0541741 0)
(-0.0477307 -0.0430819 0)
(-0.0309443 -0.0319142 0)
(-0.0180676 -0.0216318 0)
(-0.00894956 -0.0128688 0)
(-0.00304956 -0.0058532 0)
(0.000376931 -0.000528888 0)
(0.00201125 0.00331044 0)
(0.00247384 0.00585787 0)
(0.00217406 0.00722019 0)
(0.00151455 0.0073523 0)
(0.000707754 0.00605993 0)
(0.000125466 0.00290345 0)
(-0.000247527 0.00693472 0)
(-0.00160472 0.0165494 0)
(-0.00387158 0.0227668 0)
(-0.00650031 0.0265095 0)
(-0.0094528 0.0285828 0)
(-0.0124585 0.0296062 0)
(-0.0155602 0.0300055 0)
(-0.0186318 0.0300372 0)
(-0.0217246 0.0298398 0)
(-0.0247685 0.0294732 0)
(-0.0277991 0.0289576 0)
(-0.0307736 0.0282964 0)
(-0.0337238 0.027499 0)
(-0.0366494 0.0265995 0)
(-0.0396317 0.0256781 0)
(-0.042781 0.0248765 0)
(-0.0463218 0.0244011 0)
(-0.0505496 0.0244996 0)
(-0.0558536 0.0254122 0)
(-0.0626347 0.0273066 0)
(-0.0712665 0.0302226 0)
(-0.0820067 0.0340426 0)
(-0.0949663 0.0384951 0)
(-0.110064 0.0431804 0)
(-0.12703 0.0476095 0)
(-0.1454 0.0512499 0)
(-0.164559 0.0535808 0)
(-0.183796 0.0541527 0)
(-0.202391 0.0526439 0)
(-0.219699 0.0488975 0)
(-0.235219 0.0429257 0)
(-0.248611 0.0348851 0)
(-0.259694 0.0250345 0)
(-0.268404 0.0136907 0)
(-0.274749 0.00119436 0)
(-0.278754 -0.0121107 0)
(-0.280422 -0.0258826 0)
(-0.279693 -0.0397732 0)
(-0.276429 -0.0534103 0)
(-0.2704 -0.0663735 0)
(-0.261308 -0.0781718 0)
(-0.248822 -0.0882306 0)
(-0.232657 -0.0958982 0)
(-0.212681 -0.100489 0)
(-0.189047 -0.10137 0)
(-0.162328 -0.0981013 0)
(-0.13361 -0.0906045 0)
(-0.104479 -0.0793351 0)
(-0.0768385 -0.0653385 0)
(-0.0525349 -0.0501421 0)
(-0.0328979 -0.0353843 0)
(-0.0183765 -0.0223921 0)
(-0.0085844 -0.0118561 0)
(-0.00259441 -0.00387903 0)
(0.000597603 0.00180677 0)
(0.00192664 0.00555392 0)
(0.00204937 0.00762392 0)
(0.00155021 0.00808988 0)
(0.000756917 0.00680128 0)
(0.000139357 0.00329997 0)
(-0.000254617 0.00775603 0)
(-0.00164906 0.0184271 0)
(-0.00397656 0.025275 0)
(-0.00667458 0.0293625 0)
(-0.00970627 0.0316108 0)
(-0.0127962 0.0327121 0)
(-0.0159912 0.0331406 0)
(-0.0191643 0.0331748 0)
(-0.022371 0.0329659 0)
(-0.0255423 0.0325774 0)
(-0.028719 0.0320342 0)
(-0.0318646 0.0313466 0)
(-0.0350262 0.0305432 0)
(-0.038231 0.0296948 0)
(-0.0416119 0.0289455 0)
(-0.045359 0.0285273 0)
(-0.0498061 0.0287516 0)
(-0.0553707 0.0299566 0)
(-0.0625486 0.0324243 0)
(-0.0717983 0.03629 0)
(-0.083479 0.0414842 0)
(-0.0977549 0.0477192 0)
(-0.114568 0.0545162 0)
(-0.133602 0.0612533 0)
(-0.154302 0.0672267 0)
(-0.175898 0.071725 0)
(-0.1975 0.0741194 0)
(-0.218212 0.0739531 0)
(-0.23727 0.0710033 0)
(-0.254126 0.0652894 0)
(-0.268485 0.0570305 0)
(-0.280283 0.0465748 0)
(-0.289628 0.034327 0)
(-0.29673 0.0206912 0)
(-0.301836 0.00603531 0)
(-0.305169 -0.00932249 0)
(-0.306882 -0.0251093 0)
(-0.307022 -0.0410785 0)
(-0.3055 -0.0569797 0)
(-0.302073 -0.0725193 0)
(-0.296334 -0.0873148 0)
(-0.287724 -0.100852 0)
(-0.27559 -0.11245 0)
(-0.259278 -0.121263 0)
(-0.238292 -0.126325 0)
(-0.212512 -0.126687 0)
(-0.182421 -0.12163 0)
(-0.149295 -0.11097 0)
(-0.115228 -0.0953381 0)
(-0.0828693 -0.0763286 0)
(-0.0548225 -0.0562506 0)
(-0.0328408 -0.0375083 0)
(-0.0173171 -0.0217931 0)
(-0.00741839 -0.00974924 0)
(-0.0017987 -0.00118001 0)
(0.000908932 0.00445975 0)
(0.00173141 0.00766637 0)
(0.0015263 0.00871498 0)
(0.000798092 0.00755183 0)
(0.000155172 0.00373104 0)
(-0.000260775 0.00860033 0)
(-0.00168684 0.0203545 0)
(-0.0040666 0.0278483 0)
(-0.00682588 0.0322903 0)
(-0.00992936 0.0347215 0)
(-0.013098 0.0359089 0)
(-0.0163828 0.0363763 0)
(-0.0196568 0.0364247 0)
(-0.0229798 0.036219 0)
(-0.0262852 0.0358268 0)
(-0.0296208 0.0352809 0)
(-0.0329601 0.0346044 0)
(-0.0363731 0.0338578 0)
(-0.0399277 0.03317 0)
(-0.043828 0.0327788 0)
(-0.0483675 0.0330376 0)
(-0.0540067 0.0343804 0)
(-0.0612822 0.0372237 0)
(-0.0707617 0.0418423 0)
(-0.0828929 0.0482617 0)
(-0.0979284 0.0562153 0)
(-0.115832 0.0651608 0)
(-0.136264 0.0743387 0)
(-0.158561 0.0828481 0)
(-0.181793 0.0897475 0)
(-0.20486 0.0941806 0)
(-0.226666 0.0955173 0)
(-0.246297 0.0934539 0)
(-0.263158 0.0880324 0)
(-0.277003 0.0795732 0)
(-0.287899 0.0685666 0)
(-0.296134 0.0555609 0)
(-0.302121 0.0410779 0)
(-0.306311 0.0255621 0)
(-0.309129 0.00936025 0)
(-0.310933 -0.00727681 0)
(-0.311989 -0.0241782 0)
(-0.312446 -0.041229 0)
(-0.312318 -0.0583371 0)
(-0.311452 -0.0753926 0)
(-0.309493 -0.0922122 0)
(-0.305852 -0.108475 0)
(-0.2997 -0.123644 0)
(-0.289998 -0.136908 0)
(-0.275621 -0.147147 0)
(-0.255566 -0.152996 0)
(-0.229279 -0.153014 0)
(-0.197037 -0.146048 0)
(-0.160288 -0.131695 0)
(-0.121774 -0.110847 0)
(-0.0851496 -0.0858909 0)
(-0.054012 -0.0603241 0)
(-0.0305744 -0.0375104 0)
(-0.0149318 -0.0194494 0)
(-0.00563757 -0.00646642 0)
(-0.000804011 0.00211302 0)
(0.00112524 0.00710913 0)
(0.00141104 0.0091221 0)
(0.000825332 0.00827788 0)
(0.000173429 0.00419626 0)
(-0.00026503 0.009459 0)
(-0.00171533 0.0223165 0)
(-0.00413773 0.0304696 0)
(-0.00694921 0.0352754 0)
(-0.0101163 0.0378983 0)
(-0.0133576 0.0391815 0)
(-0.0167279 0.0396997 0)
(-0.0201011 0.039777 0)
(-0.0235418 0.0395926 0)
(-0.026987 0.0392203 0)
(-0.0304939 0.0387046 0)
(-0.0340511 0.0380911 0)
(-0.0377605 0.0374895 0)
(-0.0417464 0.0371145 0)
(-0.0463041 0.0373319 0)
(-0.0518483 0.038643 0)
(-0.0589666 0.0416033 0)
(-0.068283 0.0466632 0)
(-0.0803671 0.0540062 0)
(-0.0955569 0.0634439 0)
(-0.113884 0.07441 0)
(-0.134993 0.0860173 0)
(-0.158149 0.097155 0)
(-0.182261 0.106613 0)
(-0.206024 0.113257 0)
(-0.228126 0.11623 0)
(-0.247501 0.115115 0)
(-0.263501 0.109974 0)
(-0.275943 0.101255 0)
(-0.285034 0.0896337 0)
(-0.291246 0.0758431 0)
(-0.29517 0.0605595 0)
(-0.29741 0.044334 0)