/*--------------------------------*- C++ -*----------------------------------*\
| =========                 |                                                 |
| \\      /  F ield         | OpenFOAM: The Open Source CFD Toolbox           |
|  \\    /   O peration     | Version:  2406                                  |
|   \\  /    A nd           | Website:  www.openfoam.com                      |
|    \\/     M anipulation  |                                                 |
\*---------------------------------------------------------------------------*/
FoamFile
{
    version     2.0;
    format      ascii;
    arch        "LSB;label=32;scalar=64";
    class       volVectorField;
    location    "45.05";
    object      Uold;
}
// * * * * * * * * * * * * * * * * * * * * * * * * * * * * * * * * * * * * * //

dimensions      [0 1 -1 0 0 0 0];

internalField   nonuniform List<vector> 
14400
(
(-1.83731e-05 1.83258e-05 0)
(-2.54169e-06 -1.0897e-05 0)
(0.000107223 -4.31149e-05 0)
(0.000297572 -7.19037e-05 0)
(0.000557102 -8.91772e-05 0)
(0.000852002 -9.88695e-05 0)
(0.00116672 -9.99446e-05 0)
(0.00147449 -9.5487e-05 0)
(0.00176403 -8.60291e-05 0)
(0.00201974 -7.39741e-05 0)
(0.00223753 -6.03775e-05 0)
(0.00241255 -4.69997e-05 0)
(0.00254762 -3.47062e-05 0)
(0.00264565 -2.44638e-05 0)
(0.00271357 -1.65865e-05 0)
(0.00275769 -1.12638e-05 0)
(0.00278543 -8.24203e-06 0)
(0.00280251 -7.13523e-06 0)
(0.00281376 -7.32119e-06 0)
(0.00282169 -8.14453e-06 0)
(0.00282706 -8.90921e-06 0)
(0.00282841 -9.011e-06 0)
(0.00282269 -7.94765e-06 0)
(0.00280539 -5.37675e-06 0)
(0.00277113 -1.09244e-06 0)
(0.00271394 4.9872e-06 0)
(0.00262764 1.28752e-05 0)
(0.00250594 2.25558e-05 0)
(0.00234254 3.4028e-05 0)
(0.00213107 4.73236e-05 0)
(0.00186504 6.25114e-05 0)
(0.00153777 7.96834e-05 0)
(0.00114242 9.89349e-05 0)
(0.000672015 0.000120342 0)
(0.000119598 0.000143941 0)
(-0.000521605 0.000169718 0)
(-0.00125798 0.000197596 0)
(-0.00209526 0.000227426 0)
(-0.00303834 0.00025899 0)
(-0.00409092 0.000291987 0)
(-0.00525532 0.000326042 0)
(-0.0065322 0.000360702 0)
(-0.00792034 0.000395439 0)
(-0.00941641 0.000429658 0)
(-0.0110148 0.000462708 0)
(-0.0127077 0.000493887 0)
(-0.0144846 0.000522462 0)
(-0.0163326 0.000547675 0)
(-0.0182366 0.000568763 0)
(-0.020179 0.000584968 0)
(-0.02214 0.000595548 0)
(-0.024098 0.000599792 0)
(-0.0260294 0.000597025 0)
(-0.0279094 0.000586623 0)
(-0.0297117 0.00056802 0)
(-0.0314094 0.000540721 0)
(-0.0329747 0.000504317 0)
(-0.0343802 0.000458504 0)
(-0.0355981 0.000403103 0)
(-0.0366019 0.000338085 0)
(-0.0373658 0.000263602 0)
(-0.037866 0.000180013 0)
(-0.0380808 8.79146e-05 0)
(-0.0379915 -1.1827e-05 0)
(-0.0375827 -0.000118056 0)
(-0.0368433 -0.000229306 0)
(-0.035767 -0.000343799 0)
(-0.034353 -0.000459447 0)
(-0.0326062 -0.000573882 0)
(-0.0305384 -0.000684496 0)
(-0.0281679 -0.000788512 0)
(-0.0255203 -0.000883066 0)
(-0.0226281 -0.000965322 0)
(-0.0195304 -0.00103259 0)
(-0.0162726 -0.00108248 0)
(-0.0129052 -0.001113 0)
(-0.00948305 -0.00112275 0)
(-0.0060634 -0.00111098 0)
(-0.00270469 -0.00107771 0)
(0.00053549 -0.00102375 0)
(0.00360227 -0.000950741 0)
(0.00644539 -0.000861047 0)
(0.00902089 -0.000757692 0)
(0.0112927 -0.000644188 0)
(0.0132339 -0.00052436 0)
(0.0148271 -0.000402131 0)
(0.0160654 -0.000281317 0)
(0.0169516 -0.000165429 0)
(0.017498 -5.751e-05 0)
(0.0177251 3.99896e-05 0)
(0.0176605 0.000125282 0)
(0.0173371 0.00019726 0)
(0.0167917 0.000255478 0)
(0.0160629 0.000300078 0)
(0.0151896 0.000331711 0)
(0.0142099 0.000351414 0)
(0.0131593 0.000360516 0)
(0.01207 0.000360512 0)
(0.0109703 0.000352983 0)
(0.00988425 0.000339488 0)
(0.00883109 0.000321527 0)
(0.00782599 0.00030045 0)
(0.00687971 0.000277479 0)
(0.00599961 0.000253615 0)
(0.00518936 0.000229744 0)
(0.00445044 0.0002065 0)
(0.00378134 0.000184484 0)
(0.00317973 0.000164004 0)
(0.00264064 0.000145463 0)
(0.00215997 0.000128834 0)
(0.00173093 0.000114352 0)
(0.00134998 0.000101455 0)
(0.0010106 9.01339e-05 0)
(0.000713132 7.8856e-05 0)
(0.000454404 6.73579e-05 0)
(0.000242413 5.26393e-05 0)
(8.02615e-05 3.51747e-05 0)
(-1.77953e-05 1.14915e-05 0)
(-4.81688e-05 -1.01437e-05 0)
(-2.26299e-05 -2.21576e-05 0)
(9.63219e-06 3.24814e-06 0)
(0.000152493 -0.000155889 0)
(0.000490122 -0.000319396 0)
(0.000983917 -0.000464868 0)
(0.00161828 -0.000561239 0)
(0.00232864 -0.000616192 0)
(0.00308058 -0.000626407 0)
(0.0038192 -0.000602567 0)
(0.00451573 -0.000549773 0)
(0.00513625 -0.00047883 0)
(0.0056673 -0.000397186 0)
(0.00609696 -0.000313738 0)
(0.00642748 -0.000234472 0)
(0.00666346 -0.000164636 0)
(0.00681716 -0.000106816 0)
(0.00690093 -6.21418e-05 0)
(0.00692891 -2.96527e-05 0)
(0.00691238 -7.16841e-06 0)
(0.00686026 8.69579e-06 0)
(0.00677666 2.18053e-05 0)
(0.00666144 3.62282e-05 0)
(0.00650953 5.56899e-05 0)
(0.00631193 8.33448e-05 0)
(0.00605612 0.000121537 0)
(0.00572723 0.000171826 0)
(0.00530872 0.00023507 0)
(0.00478324 0.000311662 0)
(0.00413299 0.000401736 0)
(0.00334008 0.00050537 0)
(0.00238654 0.000622677 0)
(0.00125452 0.000753826 0)
(-7.37142e-05 0.000898964 0)
(-0.00161545 0.00105811 0)
(-0.00338725 0.00123104 0)
(-0.0054044 0.00141716 0)
(-0.00768035 0.00161545 0)
(-0.010226 0.00182438 0)
(-0.0130492 0.00204191 0)
(-0.0161536 0.00226548 0)
(-0.0195386 0.00249198 0)
(-0.0231984 0.00271784 0)
(-0.0271216 0.00293905 0)
(-0.0312909 0.00315124 0)
(-0.0356829 0.00334978 0)
(-0.0402681 0.00352987 0)
(-0.0450112 0.0036867 0)
(-0.0498713 0.00381551 0)
(-0.0548026 0.00391174 0)
(-0.0597548 0.00397114 0)
(-0.0646743 0.00398985 0)
(-0.0695046 0.00396448 0)
(-0.0741874 0.00389219 0)
(-0.0786639 0.00377073 0)
(-0.0828749 0.00359848 0)
(-0.0867624 0.00337448 0)
(-0.0902701 0.00309846 0)
(-0.093344 0.00277088 0)
(-0.0959336 0.0023929 0)
(-0.0979922 0.00196649 0)
(-0.0994776 0.00149439 0)
(-0.100353 0.000980205 0)
(-0.100587 0.000428408 0)
(-0.100154 -0.000155593 0)
(-0.0990373 -0.000765434 0)
(-0.0972259 -0.00139376 0)
(-0.0947176 -0.00203225 0)
(-0.0915186 -0.00267161 0)
(-0.0876445 -0.00330168 0)
(-0.0831202 -0.00391155 0)
(-0.0779807 -0.00448971 0)
(-0.0722709 -0.00502433 0)
(-0.0660457 -0.00550355 0)
(-0.05937 -0.00591584 0)
(-0.0523177 -0.00625039 0)
(-0.0449716 -0.00649762 0)
(-0.0374217 -0.00664957 0)
(-0.029764 -0.00670042 0)
(-0.0220988 -0.00664683 0)
(-0.0145286 -0.00648833 0)
(-0.00715573 -0.00622749 0)
(-8.00139e-05 -0.00587003 0)
(0.00660389 -0.00542476 0)
(0.012809 -0.00490333 0)
(0.0184585 -0.00431982 0)
(0.023488 -0.0036902 0)
(0.0278472 -0.00303171 0)
(0.0315015 -0.00236207 0)
(0.0344328 -0.00169874 0)
(0.0366399 -0.00105819 0)
(0.038138 -0.000455218 0)
(0.038958 9.75994e-05 0)
(0.0391447 0.000590336 0)
(0.0387551 0.00101596 0)
(0.0378556 0.00137043 0)
(0.0365191 0.00165258 0)
(0.0348226 0.0018639 0)
(0.0328437 0.00200823 0)
(0.0306583 0.00209121 0)
(0.0283375 0.00211988 0)
(0.0259466 0.00210213 0)
(0.0235426 0.00204625 0)
(0.0211741 0.0019604 0)
(0.0188804 0.00185246 0)
(0.016692 0.00172952 0)
(0.0146304 0.00159798 0)
(0.0127102 0.00146317 0)
(0.0109379 0.00132972 0)
(0.00931615 0.00120098 0)
(0.00784061 0.00107987 0)
(0.00650659 0.000967551 0)
(0.00530373 0.000865143 0)
(0.00422616 0.000770844 0)
(0.00326297 0.00068355 0)
(0.00241474 0.000597166 0)
(0.00167612 0.000508877 0)
(0.00106115 0.000407909 0)
(0.000572465 0.00029544 0)
(0.000234073 0.000162212 0)
(4.16707e-05 3.90934e-05 0)
(-1.03813e-05 -4.81496e-05 0)
(3.88411e-05 -0.000101094 0)
(0.000305774 -0.000490385 0)
(0.000852298 -0.000870426 0)
(0.00159723 -0.00119888 0)
(0.0025234 -0.00142344 0)
(0.00354202 -0.00154916 0)
(0.00460882 -0.00157225 0)
(0.00565063 -0.00151158 0)
(0.00662807 -0.00138127 0)
(0.00749524 -0.00120419 0)
(0.00823201 -0.00099919 0)
(0.00882095 -0.000786298 0)
(0.00926248 -0.000580571 0)
(0.00956071 -0.000394221 0)
(0.00972939 -0.000234034 0)
(0.00978272 -0.000102709 0)
(0.009737 1.70388e-06 0)
(0.00960479 8.44801e-05 0)
(0.00939517 0.000153695 0)
(0.00911067 0.000218839 0)
(0.00874777 0.000289883 0)
(0.00829614 0.000376125 0)
(0.00773984 0.000485495 0)
(0.00705798 0.000624042 0)
(0.00622629 0.000795898 0)
(0.00521814 0.00100348 0)
(0.00400569 0.00124798 0)
(0.00256062 0.00152978 0)
(0.000854682 0.00184893 0)
(-0.00113989 0.00220527 0)
(-0.00344995 0.00259847 0)
(-0.00610098 0.00302784 0)
(-0.00911636 0.00349206 0)
(-0.0125166 0.00398888 0)
(-0.0163181 0.0045149 0)
(-0.0205326 0.0050654 0)
(-0.0251654 0.00563425 0)
(-0.0302149 0.00621391 0)
(-0.0356711 0.00679547 0)
(-0.0415155 0.00736885 0)
(-0.0477204 0.00792293 0)
(-0.0542485 0.00844588 0)
(-0.0610537 0.00892544 0)
(-0.0680811 0.00934927 0)
(-0.0752682 0.00970532 0)
(-0.082546 0.00998221 0)
(-0.0898404 0.0101695 0)
(-0.097074 0.0102581 0)
(-0.104167 0.0102403 0)
(-0.11104 0.0101101 0)
(-0.117614 0.00986331 0)
(-0.123813 0.00949731 0)
(-0.129565 0.00901139 0)
(-0.1348 0.00840643 0)
(-0.139458 0.00768494 0)
(-0.14348 0.00685088 0)
(-0.146816 0.00590963 0)
(-0.149421 0.0048679 0)
(-0.151258 0.00373364 0)
(-0.152296 0.0025161 0)
(-0.15251 0.00122575 0)
(-0.151883 -0.00012564 0)
(-0.150405 -0.00152499 0)
(-0.148071 -0.00295787 0)
(-0.144887 -0.00440846 0)
(-0.140864 -0.00585957 0)
(-0.13602 -0.00729267 0)
(-0.130385 -0.008688 0)
(-0.123993 -0.0100248 0)
(-0.116889 -0.0112814 0)
(-0.109127 -0.012436 0)
(-0.10077 -0.0134665 0)
(-0.0918893 -0.0143518 0)
(-0.082565 -0.015072 0)
(-0.0728858 -0.015609 0)
(-0.0629479 -0.0159479 0)
(-0.0528537 -0.0160771 0)
(-0.0427111 -0.0159895 0)
(-0.0326311 -0.0156828 0)
(-0.0227266 -0.0151601 0)
(-0.0131097 -0.0144302 0)
(-0.00388978 -0.0135076 0)
(0.00482925 -0.0124123 0)
(0.0129512 -0.0111691 0)
(0.0203898 -0.00980729 0)
(0.0270713 -0.00835915 0)
(0.0329361 -0.00685923 0)
(0.0379403 -0.00534294 0)
(0.0420572 -0.00384521 0)
(0.0452779 -0.00239928 0)
(0.0476112 -0.00103548 0)
(0.0490843 0.000219881 0)
(0.0497406 0.00134533 0)
(0.0496393 0.0023249 0)
(0.0488525 0.00314851 0)
(0.0474634 0.00381202 0)
(0.0455621 0.00431698 0)
(0.0432434 0.00467014 0)
(0.0406022 0.00488266 0)
(0.0377312 0.00496914 0)
(0.0347169 0.0049466 0)
(0.0316382 0.0048333 0)
(0.0285635 0.00464786 0)
(0.0255504 0.00440826 0)
(0.0226446 0.00413135 0)
(0.0198811 0.00383202 0)
(0.0172832 0.00352345 0)
(0.0148664 0.00321609 0)
(0.0126357 0.00291861 0)
(0.0105932 0.00263605 0)
(0.00873202 0.00237184 0)
(0.00704923 0.0021239 0)
(0.0055339 0.00188944 0)
(0.004189 0.00165725 0)
(0.00300734 0.0014197 0)
(0.0020078 0.00115778 0)
(0.00118877 0.000871262 0)
(0.000585708 0.00054788 0)
(0.000185576 0.000238644 0)
(1.55859e-05 -1.18971e-05 0)
(6.45099e-05 -0.00027875 0)
(0.000443094 -0.000973379 0)
(0.00117052 -0.00161263 0)
(0.002119 -0.00214472 0)
(0.00326876 -0.00250729 0)
(0.00450939 -0.002703 0)
(0.00579218 -0.00272972 0)
(0.00703099 -0.00261459 0)
(0.00818134 -0.00238226 0)
(0.00918942 -0.00206874 0)
(0.0100315 -0.00170582 0)
(0.0106861 -0.00132591 0)
(0.0111518 -0.000954292 0)
(0.011431 -0.000610942 0)
(0.0115366 -0.000307279 0)
(0.0114817 -4.75904e-05 0)
(0.0112811 0.000171477 0)
(0.010945 0.000359078 0)
(0.0104793 0.00052906 0)
(0.00988158 0.000697784 0)
(0.00914248 0.000882408 0)
(0.00824435 0.00109899 0)
(0.00716298 0.00136125 0)
(0.00586847 0.00167969 0)
(0.0043271 0.00206152 0)
(0.00250261 0.00251095 0)
(0.000357755 0.00302988 0)
(-0.00214472 0.00361867 0)
(-0.00504109 0.00427661 0)
(-0.0083658 0.00500222 0)
(-0.0121505 0.00579311 0)
(-0.0164229 0.00664565 0)
(-0.0212055 0.00755454 0)
(-0.026514 0.00851232 0)
(-0.0323562 0.00950912 0)
(-0.0387299 0.0105324 0)
(-0.045622 0.0115672 0)
(-0.0530077 0.012596 0)
(-0.0608496 0.0135995 0)
(-0.0690977 0.0145565 0)
(-0.0776903 0.0154455 0)
(-0.0865548 0.0162443 0)
(-0.0956094 0.0169317 0)
(-0.104765 0.0174877 0)
(-0.113928 0.0178942 0)
(-0.123002 0.0181359 0)
(-0.131891 0.0182004 0)
(-0.140502 0.0180786 0)
(-0.148745 0.0177647 0)
(-0.156536 0.0172562 0)
(-0.163799 0.0165536 0)
(-0.170465 0.0156604 0)
(-0.176473 0.0145823 0)
(-0.18177 0.0133273 0)
(-0.18631 0.0119049 0)
(-0.190057 0.0103265 0)
(-0.192978 0.00860423 0)
(-0.195049 0.00675177 0)
(-0.196253 0.00478358 0)
(-0.196575 0.00271519 0)
(-0.196008 0.000563167 0)
(-0.194549 -0.0016548 0)
(-0.192199 -0.00391976 0)
(-0.188964 -0.00621139 0)
(-0.184857 -0.00850786 0)
(-0.179893 -0.0107858 0)
(-0.174094 -0.0130201 0)
(-0.167488 -0.0151843 0)
(-0.160108 -0.0172504 0)
(-0.151996 -0.0191894 0)
(-0.143201 -0.0209713 0)
(-0.133777 -0.0225663 0)
(-0.123791 -0.0239449 0)
(-0.113315 -0.0250794 0)
(-0.102429 -0.025944 0)
(-0.091223 -0.0265166 0)
(-0.0797934 -0.0267797 0)
(-0.0682429 -0.026721 0)
(-0.0566792 -0.026335 0)
(-0.0452134 -0.0256231 0)
(-0.0339584 -0.0245944 0)
(-0.0230261 -0.0232661 0)
(-0.012526 -0.0216628 0)
(-0.00256221 -0.0198164 0)
(0.00676827 -0.0177653 0)
(0.0153779 -0.0155531 0)
(0.0231904 -0.0132273 0)
(0.0301424 -0.010838 0)
(0.036185 -0.00843598 0)
(0.0412847 -0.00607124 0)
(0.0454246 -0.00379147 0)
(0.0486047 -0.00164045 0)
(0.0508423 0.000343322 0)
(0.0521719 0.00212784 0)
(0.052644 0.00368859 0)
(0.0523249 0.00500923 0)
(0.0512935 0.00608194 0)
(0.0496398 0.00690739 0)
(0.047461 0.00749421 0)
(0.0448585 0.00785804 0)
(0.0419337 0.00802036 0)
(0.0387849 0.00800678 0)
(0.0355032 0.00784561 0)
(0.0321712 0.00756598 0)
(0.028859 0.00719673 0)
(0.0256257 0.00676474 0)
(0.0225163 0.00629463 0)
(0.0195656 0.0058071 0)
(0.0167944 0.00531964 0)
(0.0142185 0.00484404 0)
(0.0118405 0.00438845 0)
(0.00966617 0.00395274 0)
(0.0076886 0.00353387 0)
(0.00591645 0.00311717 0)
(0.00434164 0.00269065 0)
(0.00298908 0.00222837 0)
(0.00185164 0.00172652 0)
(0.00097948 0.0011687 0)
(0.000352875 0.000612533 0)
(4.67224e-05 0.000108256 0)
(8.07917e-05 -0.000522407 0)
(0.00054392 -0.00159995 0)
(0.00141592 -0.00254507 0)
(0.00252556 -0.00330345 0)
(0.00384675 -0.00381133 0)
(0.00524689 -0.00407051 0)
(0.00667298 -0.00408408 0)
(0.00802779 -0.00388867 0)
(0.00926417 -0.00352185 0)
(0.010323 -0.00303423 0)
(0.0111794 -0.0024723 0)
(0.0118093 -0.0018819 0)
(0.0122105 -0.00129944 0)
(0.0123836 -0.00075297 0)
(0.0123398 -0.000258497 0)
(0.0120892 0.000178655 0)
(0.0116429 0.000564114 0)
(0.011006 0.000912123 0)
(0.010178 0.00124365 0)
(0.00914902 0.00158334 0)
(0.00790114 0.00195679 0)
(0.00640738 0.00238786 0)
(0.00463389 0.00289673 0)
(0.00254113 0.00349874 0)
(8.61112e-05 0.00420413 0)
(-0.0027759 0.00501851 0)
(-0.00608955 0.00594381 0)
(-0.00989794 0.00697912 0)
(-0.0142411 0.00812136 0)
(-0.0191546 0.00936541 0)
(-0.0246677 0.0107039 0)
(-0.0308015 0.0121266 0)
(-0.0375671 0.0136198 0)
(-0.0449636 0.0151663 0)
(-0.0529764 0.0167444 0)
(-0.061576 0.0183287 0)
(-0.0707173 0.0198904 0)
(-0.0803395 0.0213978 0)
(-0.0903673 0.0228179 0)
(-0.100713 0.0241167 0)
(-0.111277 0.0252615 0)
(-0.121953 0.0262215 0)
(-0.132633 0.0269693 0)
(-0.143205 0.0274818 0)
(-0.153561 0.0277407 0)
(-0.163599 0.0277333 0)
(-0.173226 0.027452 0)
(-0.182355 0.0268945 0)
(-0.190913 0.0260633 0)
(-0.198835 0.0249648 0)
(-0.206066 0.0236086 0)
(-0.212562 0.0220074 0)
(-0.218288 0.0201754 0)
(-0.223214 0.0181287 0)
(-0.22732 0.015884 0)
(-0.230588 0.0134589 0)
(-0.233007 0.0108715 0)
(-0.234568 0.00814009 0)
(-0.235267 0.00528358 0)
(-0.235099 0.00232131 0)
(-0.234065 -0.000726602 0)
(-0.232165 -0.00383906 0)
(-0.229402 -0.0069937 0)
(-0.225782 -0.0101666 0)
(-0.221313 -0.0133321 0)
(-0.216006 -0.0164624 0)
(-0.209875 -0.0195276 0)
(-0.202938 -0.0224956 0)
(-0.195221 -0.0253323 0)
(-0.186753 -0.0280015 0)
(-0.177571 -0.0304661 0)
(-0.16772 -0.0326877 0)
(-0.157252 -0.0346285 0)
(-0.146229 -0.0362518 0)
(-0.134723 -0.037523 0)
(-0.122813 -0.0384118 0)
(-0.110589 -0.0388927 0)
(-0.0981477 -0.038947 0)
(-0.0855928 -0.0385639 0)
(-0.0730337 -0.0377414 0)
(-0.0605835 -0.0364874 0)
(-0.0483561 -0.0348197 0)
(-0.0364647 -0.0327664 0)
(-0.0250188 -0.030365 0)
(-0.0141224 -0.0276613 0)
(-0.00387148 -0.0247086 0)
(0.00564748 -0.021566 0)
(0.0143592 -0.0182962 0)
(0.0222006 -0.014964 0)
(0.029122 -0.0116345 0)
(0.0350875 -0.0083711 0)
(0.0400757 -0.00523384 0)
(0.0440806 -0.0022779 0)
(0.0471112 0.000448012 0)
(0.0491928 0.00290303 0)
(0.0503661 0.00505534 0)
(0.0506874 0.00688323 0)
(0.0502273 0.00837563 0)
(0.0490686 0.0095324 0)
(0.0473046 0.0103638 0)
(0.0450349 0.0108898 0)
(0.0423627 0.0111383 0)
(0.0393898 0.0111433 0)
(0.0362144 0.0109428 0)
(0.0329256 0.0105768 0)
(0.0296037 0.0100845 0)
(0.0263151 0.00950359 0)
(0.023116 0.00886726 0)
(0.0200465 0.0082045 0)
(0.0171399 0.00753683 0)
(0.0144129 0.00687984 0)
(0.0118844 0.00623812 0)
(0.00955514 0.00561037 0)
(0.00744303 0.0049807 0)
(0.00554167 0.00433327 0)
(0.00388483 0.00363654 0)
(0.00246235 0.00288003 0)
(0.00134311 0.00204143 0)
(0.000504821 0.00117145 0)
(7.34852e-05 0.00031414 0)
(9.32205e-05 -0.00080663 0)
(0.000623235 -0.00232341 0)
(0.00160842 -0.003603 0)
(0.00284066 -0.00459334 0)
(0.00428476 -0.00523683 0)
(0.00578711 -0.00553879 0)
(0.00728988 -0.00551184 0)
(0.00868634 -0.00520436 0)
(0.00992813 -0.00466901 0)
(0.010953 -0.003972 0)
(0.0117366 -0.00317512 0)
(0.0122539 -0.00233759 0)
(0.0125027 -0.00150646 0)
(0.0124817 -0.000716916 0)
(0.0121997 1.15836e-05 0)
(0.0116621 0.000674032 0)
(0.0108743 0.00127974 0)
(0.00983371 0.0018494 0)
(0.00853063 0.00241229 0)
(0.00694512 0.00300223 0)
(0.00504833 0.00365379 0)
(0.00280249 0.00439869 0)
(0.000163384 0.00526323 0)
(-0.00291785 0.00626676 0)
(-0.00649199 0.00742139 0)
(-0.0106096 0.00873262 0)
(-0.0153189 0.0102004 0)
(-0.0206633 0.0118201 0)
(-0.0266796 0.013583 0)
(-0.0333958 0.0154765 0)
(-0.0408283 0.0174835 0)
(-0.0489796 0.0195818 0)
(-0.0578362 0.021744 0)
(-0.0673667 0.0239367 0)
(-0.077521 0.0261216 0)
(-0.0882302 0.0282561 0)
(-0.0994079 0.0302944 0)
(-0.110953 0.0321899 0)
(-0.122751 0.0338967 0)
(-0.134682 0.0353717 0)
(-0.146621 0.0365763 0)
(-0.158445 0.0374784 0)
(-0.170038 0.038053 0)
(-0.18129 0.0382828 0)
(-0.192106 0.0381581 0)
(-0.2024 0.037677 0)
(-0.212102 0.0368435 0)
(-0.221154 0.0356674 0)
(-0.22951 0.0341629 0)
(-0.237135 0.0323471 0)
(-0.244004 0.0302394 0)
(-0.250097 0.0278607 0)
(-0.255402 0.0252323 0)
(-0.25991 0.0223755 0)
(-0.263617 0.0193115 0)
(-0.266518 0.016061 0)
(-0.268612 0.0126443 0)
(-0.269897 0.00908142 0)
(-0.270371 0.00539225 0)
(-0.270032 0.00159698 0)
(-0.268879 -0.00228359 0)
(-0.26691 -0.00622764 0)
(-0.264122 -0.0102118 0)
(-0.260516 -0.0142109 0)
(-0.25609 -0.0181973 0)
(-0.250846 -0.0221407 0)
(-0.244789 -0.026008 0)
(-0.237926 -0.029763 0)
(-0.230269 -0.0333664 0)
(-0.221835 -0.0367762 0)
(-0.212648 -0.0399478 0)
(-0.202739 -0.0428354 0)
(-0.192149 -0.0453921 0)
(-0.180926 -0.0475718 0)
(-0.169131 -0.0493305 0)
(-0.156833 -0.0506277 0)
(-0.144115 -0.0514288 0)
(-0.131066 -0.0517063 0)
(-0.117789 -0.0514421 0)
(-0.10439 -0.0506287 0)
(-0.0909855 -0.0492703 0)
(-0.0776921 -0.0473837 0)
(-0.0646287 -0.0449981 0)
(-0.051912 -0.0421548 0)
(-0.0396538 -0.038906 0)
(-0.0279588 -0.0353131 0)
(-0.0169219 -0.031445 0)
(-0.00662753 -0.0273757 0)
(0.00285223 -0.0231821 0)
(0.0114577 -0.0189417 0)
(0.0191421 -0.0147311 0)
(0.0258711 -0.0106238 0)
(0.0316235 -0.0066888 0)
(0.0363906 -0.00298914 0)
(0.0401771 0.000419546 0)
(0.0430014 0.00349038 0)
(0.0448958 0.00618657 0)
(0.0459072 0.00848259 0)
(0.0460965 0.0103651 0)
(0.045538 0.0118335 0)
(0.0443172 0.0128996 0)
(0.0425288 0.0135868 0)
(0.0402723 0.0139285 0)
(0.0376497 0.013966 0)
(0.0347597 0.013746 0)
(0.0316965 0.0133174 0)
(0.0285432 0.0127292 0)
(0.0253751 0.0120273 0)
(0.0222511 0.0112531 0)
(0.0192236 0.0104396 0)
(0.0163257 0.00961213 0)
(0.0135921 0.00878281 0)
(0.0110348 0.00795452 0)
(0.00868374 0.00711299 0)
(0.00653736 0.00623974 0)
(0.0046408 0.00529905 0)
(0.00298421 0.00427081 0)
(0.00165638 0.00312366 0)
(0.000636176 0.00188853 0)
(9.64023e-05 0.000592234 0)
(0.000101777 -0.00112825 0)
(0.000682095 -0.00313395 0)
(0.00175259 -0.00477319 0)
(0.00307307 -0.00599934 0)
(0.00459738 -0.00676527 0)
(0.00615171 -0.00708396 0)
(0.00767239 -0.00698201 0)
(0.00904414 -0.00652277 0)
(0.0102181 -0.00577686 0)
(0.0111305 -0.00482764 0)
(0.0117587 -0.0037532 0)
(0.0120782 -0.00262596 0)
(0.0120873 -0.00150292 0)
(0.011783 -0.000424984 0)
(0.0111707 0.000586646 0)
(0.0102502 0.00152925 0)
(0.00901903 0.00241773 0)
(0.00746445 0.00328096 0)
(0.0055655 0.00415788 0)
(0.00328995 0.00509221 0)
(0.000596752 0.00612759 0)
(-0.0025633 0.00730298 0)
(-0.0062441 0.0086495 0)
(-0.0105019 0.0101886 0)
(-0.0153919 0.011932 0)
(-0.0209656 0.0138821 0)
(-0.0272679 0.0160333 0)
(-0.0343344 0.0183731 0)
(-0.0421885 0.0208824 0)
(-0.0508386 0.0235352 0)
(-0.0602752 0.0262986 0)
(-0.0704684 0.0291325 0)
(-0.081367 0.0319893 0)
(-0.0928975 0.0348155 0)
(-0.104966 0.0375527 0)
(-0.117461 0.0401403 0)
(-0.130256 0.0425178 0)
(-0.143217 0.0446279 0)
(-0.156208 0.0464191 0)
(-0.169093 0.0478478 0)
(-0.181746 0.0488803 0)
(-0.194054 0.0494929 0)
(-0.205915 0.0496726 0)
(-0.217248 0.0494161 0)
(-0.227983 0.0487288 0)
(-0.238069 0.0476229 0)
(-0.247468 0.0461165 0)
(-0.256152 0.0442313 0)
(-0.264105 0.0419916 0)
(-0.271315 0.0394229 0)
(-0.277779 0.0365509 0)
(-0.283494 0.0334009 0)
(-0.288462 0.0299974 0)
(-0.292683 0.0263636 0)
(-0.296158 0.0225214 0)
(-0.29889 0.0184917 0)
(-0.300877 0.0142942 0)
(-0.302118 0.00994843 0)
(-0.302609 0.00547328 0)
(-0.302348 0.000888093 0)
(-0.301327 -0.00378706 0)
(-0.29954 -0.00853081 0)
(-0.29698 -0.0133199 0)
(-0.293639 -0.0181288 0)
(-0.289509 -0.0229289 0)
(-0.284582 -0.0276881 0)
(-0.278852 -0.032371 0)
(-0.272316 -0.0369376 0)
(-0.264974 -0.0413442 0)
(-0.256829 -0.0455431 0)
(-0.247891 -0.0494829 0)
(-0.238176 -0.0531094 0)
(-0.227711 -0.0563667 0)
(-0.216529 -0.0591981 0)
(-0.204676 -0.0615486 0)
(-0.192211 -0.063366 0)
(-0.179204 -0.0646041 0)
(-0.165739 -0.0652242 0)
(-0.151911 -0.065198 0)
(-0.137827 -0.0645095 0)
(-0.123605 -0.0631567 0)
(-0.109367 -0.0611529 0)
(-0.0952411 -0.0585269 0)
(-0.0813548 -0.0553227 0)
(-0.0678327 -0.0515985 0)
(-0.0547924 -0.0474242 0)
(-0.0423419 -0.0428794 0)
(-0.0305771 -0.0380504 0)
(-0.0195803 -0.0330271 0)
(-0.00941969 -0.0279005 0)
(-0.000149277 -0.0227599 0)
(0.00819011 -0.0176914 0)
(0.01557 -0.012776 0)
(0.0219734 -0.00808876 0)
(0.0273941 -0.00369715 0)
(0.0318369 0.0003395 0)
(0.0353173 0.0039714 0)
(0.037863 0.00715951 0)
(0.0395141 0.00987687 0)
(0.0403238 0.0121097 0)
(0.040358 0.0138581 0)
(0.0396949 0.015136 0)
(0.0384218 0.0159708 0)
(0.036634 0.0164011 0)
(0.0344289 0.0164748 0)
(0.0319053 0.0162461 0)
(0.0291554 0.0157719 0)
(0.0262676 0.0151087 0)
(0.0233157 0.0143093 0)
(0.0203693 0.0134189 0)
(0.0174775 0.0124735 0)
(0.0146914 0.0114947 0)
(0.0120361 0.0104915 0)
(0.00955567 0.00945361 0)
(0.00725667 0.00836109 0)
(0.00519746 0.00717519 0)
(0.00337243 0.005864 0)
(0.00188992 0.00438484 0)
(0.000732995 0.00273998 0)
(0.000112606 0.000931042 0)
(0.00010936 -0.00147355 0)
(0.000729861 -0.00400159 0)
(0.00186308 -0.00601229 0)
(0.00324031 -0.00746577 0)
(0.00480307 -0.00832918 0)
(0.00635905 -0.00862803 0)
(0.00783849 -0.00840769 0)
(0.00911919 -0.00775032 0)
(0.0101527 -0.00674743 0)
(0.0108754 -0.00550104 0)
(0.0112674 -0.00410598 0)
(0.0113055 -0.00264702 0)
(0.0109889 -0.00118953 0)
(0.0103124 0.000222115 0)
(0.00927706 0.00156753 0)
(0.00787525 0.00284886 0)
(0.00609449 0.00408889 0)
(0.00391007 0.00532644 0)
(0.00128778 0.00661102 0)
(-0.00181807 0.0079963 0)
(-0.0054609 0.00953396 0)
(-0.00970016 0.0112682 0)
(-0.0145968 0.0132322 0)
(-0.0202102 0.015446 0)
(-0.0265938 0.0179167 0)
(-0.0337923 0.0206389 0)
(-0.041838 0.0235964 0)
(-0.0507471 0.0267627 0)
(-0.0605173 0.0301015 0)
(-0.0711239 0.0335672 0)
(-0.0825186 0.0371047 0)
(-0.0946278 0.0406504 0)
(-0.107354 0.0441337 0)
(-0.120579 0.0474797 0)
(-0.134168 0.0506128 0)
(-0.147973 0.0534595 0)
(-0.161846 0.0559533 0)
(-0.175641 0.0580368 0)
(-0.18922 0.0596646 0)
(-0.202461 0.0608046 0)
(-0.21526 0.0614379 0)
(-0.22753 0.0615582 0)
(-0.239205 0.0611705 0)
(-0.250235 0.0602885 0)
(-0.260587 0.0589333 0)
(-0.270239 0.0571306 0)
(-0.27918 0.0549093 0)
(-0.287406 0.0522996 0)
(-0.294918 0.0493318 0)
(-0.30172 0.0460355 0)
(-0.307819 0.0424389 0)
(-0.313219 0.0385684 0)
(-0.317927 0.0344484 0)
(-0.321948 0.0301016 0)
(-0.325285 0.0255488 0)
(-0.32794 0.0208093 0)
(-0.329913 0.0159015 0)
(-0.331202 0.0108429 0)
(-0.331804 0.00565075 0)
(-0.331713 0.000342772 0)
(-0.330923 -0.00506257 0)
(-0.329423 -0.0105453 0)
(-0.327203 -0.0160833 0)
(-0.32425 -0.0216517 0)
(-0.320552 -0.0272224 0)
(-0.316093 -0.0327632 0)
(-0.31086 -0.0382373 0)
(-0.304838 -0.0436032 0)
(-0.298014 -0.0488143 0)
(-0.29038 -0.0538184 0)
(-0.281929 -0.0585589 0)
(-0.27266 -0.0629742 0)
(-0.262581 -0.0669998 0)
(-0.251709 -0.0705688 0)
(-0.240069 -0.0736141 0)
(-0.227703 -0.0760707 0)
(-0.214664 -0.0778783 0)
(-0.201022 -0.078984 0)
(-0.186864 -0.0793457 0)
(-0.17229 -0.0789347 0)
(-0.157416 -0.0777384 0)
(-0.14237 -0.0757621 0)
(-0.127288 -0.0730303 0)
(-0.112312 -0.0695867 0)
(-0.097584 -0.0654932 0)
(-0.0832414 -0.0608275 0)
(-0.0694125 -0.0556804 0)
(-0.0562128 -0.0501517 0)
(-0.0437419 -0.0443466 0)
(-0.0320821 -0.0383716 0)
(-0.0212979 -0.0323313 0)
(-0.0114373 -0.0263257 0)
(-0.00253287 -0.0204482 0)
(0.00539538 -0.0147847 0)
(0.0123384 -0.00941289 0)
(0.0182965 -0.00440161 0)
(0.0232784 0.000189477 0)
(0.0273014 0.00431074 0)
(0.030392 0.0079237 0)
(0.0325872 0.0110023 0)
(0.0339349 0.0135341 0)
(0.0344952 0.0155214 0)
(0.034339 0.0169812 0)
(0.0335482 0.0179448 0)
(0.0322113 0.0184559 0)
(0.030423 0.0185682 0)
(0.0282763 0.0183421 0)
(0.0258655 0.0178404 0)
(0.0232738 0.017125 0)
(0.0205833 0.0162513 0)
(0.0178566 0.015266 0)
(0.0151602 0.0142007 0)
(0.0125324 0.0130716 0)
(0.0100319 0.0118743 0)
(0.0076758 0.0105881 0)
(0.0055363 0.00917253 0)
(0.00361529 0.0075825 0)
(0.00203833 0.0057624 0)
(0.000794956 0.0036805 0)
(0.000122905 0.00130905 0)
(0.00011574 -0.00184289 0)
(0.000767054 -0.00491898 0)
(0.00194236 -0.00730486 0)
(0.00334594 -0.00896958 0)
(0.00490611 -0.00989808 0)
(0.00641382 -0.0101331 0)
(0.00779352 -0.0097437 0)
(0.00891791 -0.00883501 0)
(0.00974001 -0.00752257 0)
(0.0101978 -0.00592859 0)
(0.0102751 -0.00416483 0)
(0.00995055 -0.00232733 0)
(0.00922361 -0.000487713 0)
(0.00808636 0.00130895 0)
(0.00653401 0.00304609 0)
(0.00454965 0.00473361 0)
(0.00210907 0.00640457 0)
(-0.000826094 0.00810924 0)
(-0.0043041 0.00990804 0)
(-0.00838379 0.0118636 0)
(-0.0131292 0.0140333 0)
(-0.0186065 0.0164632 0)
(-0.0248785 0.0191839 0)
(-0.0320004 0.022209 0)
(-0.0400154 0.025535 0)
(-0.0489507 0.0291424 0)
(-0.0588138 0.0329974 0)
(-0.0695891 0.0370525 0)
(-0.0812352 0.0412476 0)
(-0.0936835 0.0455113 0)
(-0.106838 0.0497621 0)
(-0.120577 0.0539118 0)
(-0.13476 0.0578688 0)
(-0.149231 0.0615427 0)
(-0.163829 0.0648492 0)
(-0.178395 0.0677143 0)
(-0.192779 0.0700776 0)
(-0.206849 0.0718947 0)
(-0.220489 0.0731376 0)
(-0.233609 0.073794 0)
(-0.246139 0.0738659 0)
(-0.258027 0.0733666 0)
(-0.269242 0.0723186 0)
(-0.279764 0.0707507 0)
(-0.289586 0.0686955 0)
(-0.298706 0.0661877 0)
(-0.307131 0.0632622 0)
(-0.314868 0.0599532 0)
(-0.321927 0.0562934 0)
(-0.328319 0.052313 0)
(-0.334055 0.0480404 0)
(-0.339143 0.0435012 0)
(-0.343593 0.0387188 0)
(-0.347412 0.0337144 0)
(-0.350606 0.0285073 0)
(-0.353179 0.023115 0)
(-0.355133 0.0175541 0)
(-0.35647 0.01184 0)
(-0.357187 0.00598829 0)
(-0.357282 1.43233e-05 0)
(-0.356746 -0.00606549 0)
(-0.355573 -0.0122333 0)
(-0.353749 -0.0184691 0)
(-0.351261 -0.0247501 0)
(-0.348091 -0.0310497 0)
(-0.34422 -0.0373371 0)
(-0.339627 -0.0435763 0)
(-0.334289 -0.049726 0)
(-0.328181 -0.0557383 0)
(-0.321279 -0.0615591 0)
(-0.313562 -0.0671278 0)
(-0.305009 -0.0723776 0)
(-0.295609 -0.0772364 0)
(-0.285353 -0.0816276 0)
(-0.274245 -0.0854725 0)
(-0.262302 -0.0886921 0)
(-0.249555 -0.0912104 0)
(-0.23605 -0.0929574 0)
(-0.221857 -0.0938731 0)
(-0.207061 -0.0939113 0)
(-0.191771 -0.0930429 0)
(-0.176112 -0.0912596 0)
(-0.160226 -0.0885756 0)
(-0.144269 -0.0850289 0)
(-0.128401 -0.0806809 0)
(-0.112783 -0.0756145 0)
(-0.0975743 -0.0699309 0)
(-0.0829182 -0.0637448 0)
(-0.0689434 -0.0571794 0)
(-0.0557575 -0.0503613 0)
(-0.0434457 -0.0434149 0)
(-0.0320703 -0.0364589 0)
(-0.021673 -0.0296031 0)
(-0.0122772 -0.022947 0)
(-0.00389182 -0.016579 0)
(0.00348516 -0.0105768 0)
(0.00986408 -0.00500736 0)
(0.0152619 7.23492e-05 0)
(0.0197016 0.004616 0)
(0.0232126 0.00858853 0)
(0.025832 0.0119674 0)
(0.0276064 0.0147438 0)
(0.0285916 0.0169239 0)
(0.0288549 0.0185291 0)
(0.028472 0.0195952 0)
(0.0275279 0.0201712 0)
(0.0261102 0.0203159 0)
(0.024312 0.0200942 0)
(0.0222198 0.019573 0)
(0.0199227 0.0188157 0)
(0.0174929 0.017877 0)
(0.0150091 0.0167984 0)
(0.0125218 0.0156031 0)
(0.0101033 0.0142929 0)
(0.00778243 0.0128476 0)
(0.00564489 0.0112251 0)
(0.00370244 0.00936737 0)
(0.00209443 0.00720552 0)
(0.00081822 0.00467251 0)
(0.000126341 0.00170991 0)
(0.000121815 -0.00222891 0)
(0.000796147 -0.00586591 0)
(0.00199331 -0.00861792 0)
(0.00339183 -0.0104651 0)
(0.00490613 -0.0114147 0)
(0.00631281 -0.0115319 0)
(0.0075316 -0.010915 0)
(0.0084326 -0.00969612 0)
(0.00897165 -0.00801788 0)
(0.00908996 -0.00602368 0)
(0.00877551 -0.00384175 0)
(0.00800878 -0.00157742 0)
(0.00678873 0.000694279 0)
(0.00510322 0.00293103 0)
(0.00293978 0.00512351 0)
(0.000270439 0.00729242 0)
(-0.00294232 0.0094831 0)
(-0.00675115 0.011758 0)
(-0.0112178 0.0141874 0)
(-0.0164119 0.0168405 0)
(-0.0224039 0.0197761 0)
(-0.0292606 0.0230367 0)
(-0.0370385 0.0266439 0)
(-0.0457791 0.0305978 0)
(-0.0555036 0.0348769 0)
(-0.0662099 0.0394402 0)
(-0.077868 0.0442285 0)
(-0.0904189 0.0491667 0)
(-0.103773 0.0541658 0)
(-0.117813 0.0591262 0)
(-0.132394 0.0639414 0)
(-0.147356 0.0685034 0)
(-0.162526 0.0727086 0)
(-0.177733 0.0764631 0)
(-0.192813 0.0796879 0)
(-0.207616 0.0823219 0)
(-0.222018 0.0843237 0)
(-0.235914 0.0856711 0)
(-0.249227 0.0863593 0)
(-0.2619 0.0863986 0)
(-0.273898 0.0858106 0)
(-0.285199 0.0846256 0)
(-0.295796 0.0828791 0)
(-0.30569 0.0806097 0)
(-0.314887 0.0778569 0)
(-0.323398 0.0746598 0)
(-0.331236 0.071056 0)
(-0.338416 0.0670811 0)
(-0.344952 0.0627679 0)
(-0.350859 0.0581468 0)
(-0.356151 0.0532455 0)
(-0.360842 0.0480887 0)
(-0.364945 0.0426989 0)
(-0.368473 0.037096 0)
(-0.371436 0.0312978 0)
(-0.373843 0.0253202 0)
(-0.375702 0.019178 0)
(-0.377018 0.0128844 0)
(-0.377793 0.00645249 0)