/*--------------------------------*- C++ -*----------------------------------*\
| =========                 |                                                 |
| \\      /  F ield         | OpenFOAM: The Open Source CFD Toolbox           |
|  \\    /   O peration     | Version:  2406                                  |
|   \\  /    A nd           | Website:  www.openfoam.com                      |
|    \\/     M anipulation  |                                                 |
\*---------------------------------------------------------------------------*/
FoamFile
{
    version     2.0;
    format      ascii;
    arch        "LSB;label=32;scalar=64";
    class       surfaceScalarField;
    location    "6.35";
    object      phi;
}
// * * * * * * * * * * * * * * * * * * * * * * * * * * * * * * * * * * * * * //

dimensions      [0 3 -1 0 0 0 0];

oriented        oriented;

internalField   nonuniform List<scalar> 
28560
(
4.6266e-09
-4.62944e-09
2.18686e-09
2.69053e-09
-1.02839e-08
1.25466e-08
-3.27054e-08
2.28144e-08
-6.32475e-08
3.08151e-08
-1.00026e-07
3.72985e-08
-1.41474e-07
4.18877e-08
-1.86187e-07
4.53076e-08
-2.33221e-07
4.75759e-08
-2.81734e-07
4.91424e-08
-3.31214e-07
5.00762e-08
-3.81205e-07
5.06337e-08
-4.31454e-07
5.08701e-08
-4.81735e-07
5.09253e-08
-5.31938e-07
5.08329e-08
-5.81964e-07
5.06653e-08
-6.31773e-07
5.04385e-08
-6.81327e-07
5.01873e-08
-7.30618e-07
4.99166e-08
-7.79633e-07
4.96406e-08
-8.28371e-07
4.93584e-08
-8.76827e-07
4.90738e-08
-9.24997e-07
4.87832e-08
-9.72873e-07
4.84855e-08
-1.02044e-06
4.81764e-08
-1.0677e-06
4.78531e-08
-1.11461e-06
4.75112e-08
-1.16117e-06
4.71473e-08
-1.20734e-06
4.67573e-08
-1.25309e-06
4.6338e-08
-1.2984e-06
4.58855e-08
-1.34323e-06
4.53965e-08
-1.38754e-06
4.48675e-08
-1.43128e-06
4.42952e-08
-1.47441e-06
4.36762e-08
-1.51688e-06
4.30073e-08
-1.55864e-06
4.22853e-08
-1.59963e-06
4.15068e-08
-1.63979e-06
4.06686e-08
-1.67906e-06
3.97677e-08
-1.71738e-06
3.8801e-08
-1.75468e-06
3.77653e-08
-1.79088e-06
3.6658e-08
-1.82591e-06
3.54762e-08
-1.85971e-06
3.42174e-08
-1.89218e-06
3.28791e-08
-1.92325e-06
3.14594e-08
-1.95283e-06
2.99563e-08
-1.98085e-06
2.83685e-08
-2.00722e-06
2.66946e-08
-2.03184e-06
2.4934e-08
-2.05465e-06
2.30865e-08
-2.07554e-06
2.11521e-08
-2.09443e-06
1.91318e-08
-2.11125e-06
1.70267e-08
-2.12591e-06
1.48388e-08
-2.13833e-06
1.25707e-08
-2.14843e-06
1.02255e-08
-2.15614e-06
7.80724e-09
-2.1614e-06
5.32049e-09
-2.16413e-06
2.77056e-09
-2.1643e-06
1.63485e-10
-2.16183e-06
-2.494e-09
-2.1567e-06
-5.19451e-09
-2.14887e-06
-7.92996e-09
-2.13831e-06
-1.06917e-08
-2.12501e-06
-1.34705e-08
-2.10895e-06
-1.62566e-08
-2.09014e-06
-1.90399e-08
-2.0686e-06
-2.18099e-08
-2.04435e-06
-2.45558e-08
-2.01741e-06
-2.72667e-08
-1.98785e-06
-2.99316e-08
-1.95571e-06
-3.25395e-08
-1.92106e-06
-3.50797e-08
-1.88398e-06
-3.75417e-08
-1.84455e-06
-3.99154e-08
-1.80288e-06
-4.21912e-08
-1.75906e-06
-4.436e-08
-1.71322e-06
-4.64136e-08
-1.66547e-06
-4.83444e-08
-1.61593e-06
-5.01459e-08
-1.56476e-06
-5.18124e-08
-1.51208e-06
-5.33391e-08
-1.45803e-06
-5.47223e-08
-1.40275e-06
-5.59594e-08
-1.34641e-06
-5.70486e-08
-1.28913e-06
-5.79892e-08
-1.23108e-06
-5.87812e-08
-1.17239e-06
-5.94254e-08
-1.11321e-06
-5.99232e-08
-1.05368e-06
-6.02763e-08
-9.93939e-07
-6.04866e-08
-9.34134e-07
-6.05559e-08
-8.74401e-07
-6.04855e-08
-8.14875e-07
-6.02757e-08
-7.55696e-07
-5.99258e-08
-6.97005e-07
-5.94333e-08
-6.38946e-07
-5.87937e-08
-5.81672e-07
-5.79992e-08
-5.25347e-07
-5.70401e-08
-4.70147e-07
-5.59012e-08
-4.16267e-07
-5.45656e-08
-3.63925e-07
-5.30089e-08
-3.13364e-07
-5.12061e-08
-2.6486e-07
-4.91218e-08
-2.18727e-07
-4.67239e-08
-1.75317e-07
-4.3965e-08
-1.35024e-07
-4.0811e-08
-9.82911e-08
-3.7204e-08
-6.55946e-08
-3.31208e-08
-3.74586e-08
-2.85015e-08
-1.43966e-08
-2.33673e-08
3.04676e-09
-1.76853e-08
1.44997e-08
-1.16153e-08
1.96447e-08
-5.26382e-09
1.88658e-08
7.71407e-10
1.29993e-08
5.81518e-09
5.16599e-09
7.96023e-09
5.16358e-09
-2.65339e-09
-2.22661e-09
-2.35298e-08
2.35747e-08
-6.62375e-08
5.47117e-08
-1.30182e-07
8.63894e-08
-2.12822e-07
1.12643e-07
-3.10582e-07
1.34335e-07
-4.20349e-07
1.50647e-07
-5.39022e-07
1.63025e-07
-6.64324e-07
1.71758e-07
-7.94192e-07
1.77925e-07
-9.2722e-07
1.81931e-07
-1.06219e-06
1.8446e-07
-1.19833e-06
1.85815e-07
-1.33497e-06
1.86397e-07
-1.47173e-06
1.86394e-07
-1.60826e-06
1.86026e-07
-1.7444e-06
1.85392e-07
-1.87999e-06
1.84603e-07
-2.01494e-06
1.83703e-07
-2.1492e-06
1.82738e-07
-2.28272e-06
1.81722e-07
-2.41546e-06
1.80668e-07
-2.54739e-06
1.79572e-07
-2.67847e-06
1.78431e-07
-2.80866e-06
1.77236e-07
-2.9379e-06
1.75977e-07
-3.06614e-06
1.74642e-07
-3.19331e-06
1.73218e-07
-3.31934e-06
1.71693e-07
-3.44414e-06
1.70056e-07
-3.56762e-06
1.68293e-07
-3.68967e-06
1.66394e-07
-3.81019e-06
1.64345e-07
-3.92907e-06
1.62137e-07
-4.04616e-06
1.59756e-07
-4.16135e-06
1.57193e-07
-4.27448e-06
1.54435e-07
-4.38541e-06
1.51472e-07
-4.49397e-06
1.48292e-07
-4.60001e-06
1.44886e-07
-4.70335e-06
1.41241e-07
-4.80381e-06
1.3735e-07
-4.9012e-06
1.33201e-07
-4.99533e-06
1.28787e-07
-5.086e-06
1.24097e-07
-5.17301e-06
1.19126e-07
-5.25614e-06
1.13866e-07
-5.33518e-06
1.08312e-07
-5.40993e-06
1.02459e-07
-5.48015e-06
9.63039e-08
-5.54563e-06
8.98451e-08
-5.60616e-06
8.30824e-08
-5.66151e-06
7.60174e-08
-5.71147e-06
6.86537e-08
-5.75583e-06
6.09966e-08
-5.79438e-06
5.30536e-08
-5.82693e-06
4.48345e-08
-5.85329e-06
3.63513e-08
-5.87328e-06
2.76183e-08
-5.88673e-06
1.86522e-08
-5.89349e-06
9.47198e-09
-5.89343e-06
9.91826e-11
-5.88642e-06
-9.44246e-09
-5.87237e-06
-1.91269e-08
-5.85119e-06
-2.89261e-08
-5.82283e-06
-3.88098e-08
-5.78724e-06
-4.8746e-08
-5.74443e-06
-5.87012e-08
-5.69439e-06
-6.86405e-08
-5.63718e-06
-7.85277e-08
-5.57285e-06
-8.83261e-08
-5.50149e-06
-9.79984e-08
-5.42323e-06
-1.07507e-07
-5.33822e-06
-1.16815e-07
-5.24661e-06
-1.25886e-07
-5.14861e-06
-1.34684e-07
-5.04444e-06
-1.43175e-07
-4.93435e-06
-1.51326e-07
-4.81859e-06
-1.59107e-07
-4.69745e-06
-1.6649e-07
-4.57124e-06
-1.7345e-07
-4.44028e-06
-1.79964e-07
-4.3049e-06
-1.86012e-07
-4.16544e-06
-1.9158e-07
-4.02225e-06
-1.96653e-07
-3.87571e-06
-2.01222e-07
-3.72617e-06
-2.05281e-07
-3.57401e-06
-2.08827e-07
-3.41958e-06
-2.1186e-07
-3.26326e-06
-2.1438e-07
-3.10541e-06
-2.16391e-07
-2.94641e-06
-2.17898e-07
-2.78659e-06
-2.18905e-07
-2.62634e-06
-2.19416e-07
-2.46599e-06
-2.19434e-07
-2.30592e-06
-2.18956e-07
-2.14648e-06
-2.17976e-07
-1.98805e-06
-2.16483e-07
-1.83103e-06
-2.14457e-07
-1.67581e-06
-2.11868e-07
-1.52285e-06
-2.08675e-07
-1.37263e-06
-2.04824e-07
-1.22567e-06
-2.00248e-07
-1.08258e-06
-1.94863e-07
-9.44022e-07
-1.88574e-07
-8.10736e-07
-1.8126e-07
-6.83567e-07
-1.72803e-07
-5.6345e-07
-1.63052e-07
-4.51427e-07
-1.51881e-07
-3.48629e-07
-1.39127e-07
-2.56265e-07
-1.24708e-07
-1.75593e-07
-1.08495e-07
-1.07824e-07
-9.05768e-08
-5.40844e-08
-7.09868e-08
-1.50923e-08
-5.02918e-08
8.84243e-09
-2.90282e-08
1.87236e-08
-9.01308e-09
1.66207e-08
7.84053e-09
7.86586e-09
1.67203e-08
1.29029e-08
-1.28297e-08
1.05106e-08
-5.5724e-08
6.70184e-08
-1.30401e-07
1.29371e-07
-2.34123e-07
1.90752e-07
-3.6393e-07
2.42812e-07
-5.15011e-07
2.86183e-07
-6.8349e-07
3.19753e-07
-8.65175e-07
3.4557e-07
-1.05698e-06
3.64345e-07
-1.25598e-06
3.77842e-07
-1.46014e-06
3.86959e-07
-1.66766e-06
3.92907e-07
-1.8773e-06
3.96369e-07
-2.08806e-06
3.98094e-07
-2.29927e-06
3.98518e-07
-2.51038e-06
3.98065e-07
-2.72104e-06
3.96979e-07
-2.931e-06
3.95481e-07
-3.14007e-06
3.93688e-07
-3.34811e-06
3.91698e-07
-3.55504e-06
3.89553e-07
-3.76076e-06
3.87286e-07
-3.96519e-06
3.84898e-07
-4.16825e-06
3.82388e-07
-4.36987e-06
3.7974e-07
-4.56996e-06
3.76936e-07
-4.7684e-06
3.73954e-07
-4.96509e-06
3.70771e-07
-5.1599e-06
3.67363e-07
-5.3527e-06
3.63705e-07
-5.54334e-06
3.59773e-07
-5.73166e-06
3.55543e-07
-5.91749e-06
3.50991e-07
-6.10064e-06
3.46093e-07
-6.28091e-06
3.40826e-07
-6.4581e-06
3.35166e-07
-6.63198e-06
3.29091e-07
-6.80233e-06
3.22579e-07
-6.96891e-06
3.15607e-07
-7.13145e-06
3.08153e-07
-7.2897e-06
3.00197e-07
-7.44339e-06
2.9172e-07
-7.59222e-06
2.82701e-07
-7.73591e-06
2.73123e-07
-7.87417e-06
2.6297e-07
-8.00667e-06
2.52227e-07
-8.13312e-06
2.40882e-07
-8.25319e-06
2.28925e-07
-8.36657e-06
2.16346e-07
-8.47293e-06
2.03142e-07
-8.57194e-06
1.89309e-07
-8.66329e-06
1.7485e-07
-8.74667e-06
1.59769e-07
-8.82174e-06
1.44074e-07
-8.88822e-06
1.27778e-07
-8.9458e-06
1.10899e-07
-8.9942e-06
9.34567e-08
-9.03314e-06
7.54785e-08
-9.06238e-06
5.69947e-08
-9.08168e-06
3.80408e-08
-9.09082e-06
1.86572e-08
-9.0896e-06
-1.11109e-09
-9.07788e-06
-2.12145e-08
-9.0555e-06
-4.15989e-08
-9.02237e-06
-6.22059e-08
-8.9784e-06
-8.29734e-08
-8.92355e-06
-1.03836e-07
-8.85783e-06
-1.24724e-07
-8.78124e-06
-1.45566e-07
-8.69387e-06
-1.6629e-07
-8.59582e-06
-1.8682e-07
-8.48723e-06
-2.07079e-07
-8.36828e-06
-2.26994e-07
-8.2392e-06
-2.46488e-07
-8.10022e-06
-2.65487e-07
-7.95166e-06
-2.83921e-07
-7.79383e-06
-3.01719e-07
-7.6271e-06
-3.18818e-07
-7.45185e-06
-3.35154e-07
-7.2685e-06
-3.50674e-07
-7.07749e-06
-3.65324e-07
-6.8793e-06
-3.79061e-07
-6.6744e-06
-3.91846e-07
-6.46329e-06
-4.03645e-07
-6.24649e-06
-4.14434e-07
-6.02453e-06
-4.24193e-07
-5.79793e-06
-4.32908e-07
-5.56723e-06
-4.40573e-07
-5.33297e-06
-4.47186e-07
-5.09567e-06
-4.52748e-07
-4.85588e-06
-4.57265e-07
-4.61412e-06
-4.60744e-07
-4.37093e-06
-4.63193e-07
-4.12683e-06
-4.64615e-07
-3.88235e-06
-4.65012e-07
-3.63803e-06
-4.64377e-07
-3.3944e-06
-4.62693e-07
-3.15203e-06
-4.59931e-07
-2.91152e-06
-4.56044e-07
-2.67348e-06
-4.50967e-07
-2.43858e-06
-4.4461e-07
-2.20757e-06
-4.36856e-07
-1.98126e-06
-4.27563e-07
-1.76053e-06
-4.16553e-07
-1.54642e-06
-4.03626e-07
-1.34004e-06
-3.88538e-07
-1.14266e-06
-3.7104e-07
-9.55675e-07
-3.50839e-07
-7.80627e-07
-3.27679e-07
-6.19168e-07
-3.01264e-07
-4.73048e-07
-2.71441e-07
-3.44035e-07
-2.38029e-07
-2.33823e-07
-2.01233e-07
-1.43884e-07
-1.61262e-07
-7.51811e-08
-1.19245e-07
-2.79644e-08
-7.63901e-08
-1.04102e-09
-3.59913e-08
8.27218e-09
-1.48651e-09
5.82463e-09
1.92494e-08
1.87665e-08
-2.3835e-08
3.39401e-08
-8.98121e-08
1.33407e-07
-1.96334e-07
2.35234e-07
-3.3767e-07
3.32112e-07
-5.10325e-07
4.1486e-07
-7.08436e-07
4.84016e-07
-9.27788e-07
5.38476e-07
-1.16349e-06
5.80809e-07
-1.41202e-06
6.12218e-07
-1.66988e-06
6.35138e-07
-1.93461e-06
6.51021e-07
-2.20397e-06
6.61644e-07
-2.4764e-06
6.68134e-07
-2.75059e-06
6.71635e-07
-3.02562e-06
6.72885e-07
-3.30076e-06
6.72557e-07
-3.57552e-06
6.71076e-07
-3.84949e-06
6.68804e-07
-4.12241e-06
6.65954e-07
-4.39406e-06
6.62695e-07
-4.66426e-06
6.59114e-07
-4.93288e-06
6.55267e-07
-5.19979e-06
6.51172e-07
-5.46487e-06
6.4683e-07
-5.72798e-06
6.42222e-07
-5.98899e-06
6.37325e-07
-6.24776e-06
6.32104e-07
-6.50413e-06
6.26525e-07
-6.75792e-06
6.2055e-07
-7.00896e-06
6.1414e-07
-7.25704e-06
6.07256e-07
-7.50194e-06
5.9986e-07
-7.74344e-06
5.91912e-07
-7.9813e-06
5.83376e-07
-8.21525e-06
5.74212e-07
-8.44503e-06
5.64384e-07
-8.67034e-06
5.53854e-07
-8.89088e-06
5.42587e-07
-9.10634e-06
5.30546e-07
-9.3164e-06
5.17698e-07
-9.52071e-06
5.04009e-07
-9.71893e-06
4.89448e-07
-9.91068e-06
4.73985e-07
-1.00956e-05
4.57591e-07
-1.02733e-05
4.40242e-07
-1.04434e-05
4.21916e-07
-1.06055e-05
4.02593e-07
-1.07593e-05
3.82259e-07
-1.09042e-05
3.60902e-07
-1.10399e-05
3.38516e-07
-1.1166e-05
3.15101e-07
-1.12821e-05
2.90659e-07
-1.13878e-05
2.65201e-07
-1.14827e-05
2.38744e-07
-1.15665e-05
2.1131e-07
-1.16387e-05
1.8293e-07
-1.1699e-05
1.53641e-07
-1.17472e-05
1.23488e-07
-1.17828e-05
9.25236e-08
-1.18056e-05
6.0807e-08
-1.18154e-05
2.84061e-08
-1.18119e-05
-4.6039e-09
-1.1795e-05
-3.81405e-08
-1.17644e-05
-7.21143e-08
-1.172e-05
-1.06429e-07
-1.16619e-05
-1.40983e-07
-1.15899e-05
-1.75669e-07
-1.1504e-05
-2.10373e-07
-1.14044e-05
-2.44981e-07
-1.1291e-05
-2.79372e-07
-1.11641e-05
-3.13425e-07
-1.10238e-05
-3.47019e-07
-1.08704e-05
-3.8003e-07
-1.07041e-05
-4.12338e-07
-1.05254e-05
-4.43825e-07
-1.03344e-05
-4.74375e-07
-1.01318e-05
-5.03879e-07
-9.91781e-06
-5.32231e-07
-9.69307e-06
-5.59334e-07
-9.45805e-06
-5.851e-07
-9.21332e-06
-6.09445e-07
-8.95945e-06
-6.323e-07
-8.69703e-06
-6.53602e-07
-8.4267e-06
-6.733e-07
-8.14909e-06
-6.91352e-07
-7.86484e-06
-7.07727e-07
-7.57462e-06
-7.22405e-07
-7.27908e-06
-7.35374e-07
-6.97889e-06
-7.46629e-07
-6.67471e-06
-7.56172e-07
-6.3672e-06
-7.64011e-07
-6.05702e-06
-7.70155e-07
-5.74482e-06
-7.74612e-07
-5.43128e-06
-7.77387e-07
-5.11704e-06
-7.78475e-07
-4.80278e-06
-7.77863e-07
-4.48919e-06
-7.75516e-07
-4.17697e-06
-7.71381e-07
-3.86688e-06
-7.65377e-07
-3.55972e-06
-7.57388e-07
-3.25633e-06
-7.47264e-07
-2.95766e-06
-7.34807e-07
-2.66474e-06
-7.19779e-07
-2.37872e-06
-7.01888e-07
-2.10088e-06
-6.80802e-07
-1.83266e-06
-6.5613e-07
-1.57563e-06
-6.27469e-07
-1.33154e-06
-5.94359e-07
-1.1023e-06
-5.564e-07
-8.89918e-07
-5.13156e-07
-6.96534e-07
-4.64406e-07
-5.24231e-07
-4.09951e-07
-3.75021e-07
-3.50148e-07
-2.50551e-07
-2.85472e-07
-1.51973e-07
-2.17669e-07
-7.9485e-08
-1.48743e-07
-3.20509e-08
-8.34048e-08
-6.85102e-09
-2.66458e-08
1.22722e-09
1.11079e-08
1.99919e-08
-3.3113e-08
6.67411e-08
-1.2014e-07
2.21297e-07
-2.56187e-07
3.70854e-07
-4.32258e-07
5.08808e-07
-6.43944e-07
6.26516e-07
-8.8419e-07
7.24789e-07
-1.14847e-06
8.02959e-07
-1.43131e-06
8.64153e-07
-1.72894e-06
9.1019e-07
-2.03748e-06
9.44166e-07
-2.35419e-06
9.68144e-07
-2.67653e-06
9.84476e-07
-3.00273e-06
9.94778e-07
-3.33123e-06
1.00061e-06
-3.66095e-06
1.00306e-06
-3.99098e-06
1.00307e-06
-4.32071e-06
1.00127e-06
-4.64961e-06
9.98184e-07
-4.97734e-06
9.94147e-07
-5.30359e-06
9.8941e-07
-5.62813e-06
9.84113e-07
-5.95076e-06
9.78352e-07
-6.27129e-06
9.7216e-07
-6.58955e-06
9.65549e-07
-6.90538e-06
9.58499e-07
-7.21859e-06
9.50979e-07
-7.52899e-06
9.42947e-07
-7.83638e-06
9.34354e-07
-8.14054e-06
9.25148e-07
-8.44124e-06
9.15276e-07
-8.73824e-06
9.04681e-07
-9.03127e-06
8.9331e-07
-9.32005e-06
8.81108e-07
-9.60428e-06
8.68018e-07
-9.88365e-06
8.53988e-07
-1.01578e-05
8.38963e-07
-1.04265e-05
8.22891e-07
-1.06892e-05
8.0572e-07
-1.09457e-05
7.874e-07
-1.11955e-05
7.67882e-07
-1.14383e-05
7.47119e-07
-1.16735e-05
7.25067e-07
-1.19009e-05
7.01683e-07
-1.21199e-05
6.76931e-07
-1.23301e-05
6.50774e-07
-1.25311e-05
6.23184e-07
-1.27224e-05
5.94134e-07
-1.29034e-05
5.63607e-07
-1.30739e-05
5.31588e-07
-1.32332e-05
4.98071e-07
-1.33809e-05
4.63058e-07
-1.35166e-05
4.26558e-07
-1.36398e-05
3.88588e-07
-1.375e-05
3.49176e-07
-1.38469e-05
3.08358e-07
-1.39301e-05
2.66182e-07
-1.3999e-05
2.22704e-07
-1.40534e-05
1.77993e-07
-1.4093e-05
1.32127e-07
-1.41173e-05
8.51959e-08
-1.41262e-05
3.73007e-08
-1.41193e-05
-1.1448e-08
-1.40966e-05
-6.09285e-08
-1.40577e-05
-1.1101e-07
-1.40027e-05
-1.61552e-07
-1.39314e-05
-2.12405e-07
-1.38437e-05
-2.63414e-07
-1.37398e-05
-3.14415e-07
-1.36198e-05
-3.65241e-07
-1.34836e-05
-4.15721e-07
-1.33316e-05
-4.65678e-07
-1.31639e-05
-5.14939e-07
-1.29809e-05
-5.63327e-07
-1.27829e-05
-6.10671e-07
-1.25702e-05
-6.56801e-07
-1.23434e-05
-7.01553e-07
-1.21028e-05
-7.44772e-07
-1.18491e-05
-7.86308e-07
-1.15829e-05
-8.26024e-07
-1.13046e-05
-8.63793e-07
-1.1015e-05
-8.995e-07
-1.07147e-05
-9.33045e-07
-1.04044e-05
-9.64341e-07
-1.00849e-05
-9.93315e-07
-9.75682e-06
-1.01991e-06
-9.42098e-06
-1.04408e-06
-9.0781e-06
-1.0658e-06
-8.72895e-06
-1.08505e-06
-8.37429e-06
-1.10183e-06
-8.01488e-06
-1.11613e-06
-7.65148e-06
-1.12796e-06
-7.28484e-06
-1.13735e-06
-6.91572e-06
-1.14428e-06
-6.54489e-06
-1.14878e-06
-6.1731e-06
-1.15082e-06
-5.80113e-06
-1.15038e-06
-5.42978e-06
-1.14742e-06
-5.05988e-06
-1.14183e-06
-4.6923e-06
-1.1335e-06
-4.32796e-06
-1.12226e-06
-3.96787e-06
-1.10788e-06
-3.61313e-06
-1.09007e-06
-3.26493e-06
-1.06849e-06
-2.92461e-06
-1.0427e-06
-2.59366e-06
-1.01223e-06
-2.27372e-06
-9.76518e-07
-1.96663e-06
-9.34998e-07
-1.67436e-06
-8.8703e-07
-1.39909e-06
-8.32055e-07
-1.14308e-06
-7.69502e-07
-9.08717e-07
-6.99085e-07
-6.98305e-07
-6.20613e-07
-5.14089e-07
-5.34609e-07
-3.5784e-07
-4.41867e-07
-2.30937e-07
-3.44742e-07
-1.3363e-07
-2.46078e-07
-6.5305e-08
-1.5185e-07
-2.33158e-08
-6.85463e-08
-3.79542e-09
-8.5399e-09
1.62822e-08
-4.12859e-08
1.07461e-07
-1.47247e-07
3.28082e-07
-3.10015e-07
5.32787e-07
-5.17524e-07
7.16664e-07
-7.64279e-07
8.72722e-07
-1.04201e-06
1.00255e-06
-1.34584e-06
1.10636e-06
-1.66982e-06
1.18798e-06
-2.00999e-06
1.24997e-06
-2.36219e-06
1.29612e-06
-2.72353e-06
1.32912e-06
-3.09127e-06
1.35192e-06
-3.46347e-06
1.36662e-06
-3.83842e-06
1.37524e-06
-4.21489e-06
1.37919e-06
-4.59187e-06
1.37971e-06
-4.96862e-06
1.37767e-06
-5.34452e-06
1.37376e-06
-5.71915e-06
1.36844e-06
-6.09213e-06
1.36206e-06
-6.46316e-06
1.35481e-06
-6.83199e-06
1.34685e-06
-7.19837e-06
1.33822e-06
-7.5621e-06
1.32895e-06
-7.92295e-06
1.31903e-06
-8.2807e-06
1.30841e-06
-8.63512e-06
1.29705e-06
-8.98597e-06
1.28488e-06
-9.33298e-06
1.27185e-06
-9.67588e-06
1.25787e-06
-1.00144e-05
1.24288e-06
-1.03482e-05
1.2268e-06
-1.06769e-05
1.20956e-06
-1.10003e-05
1.1911e-06
-1.13179e-05
1.17133e-06
-1.16294e-05
1.15019e-06
-1.19344e-05
1.12761e-06
-1.22325e-05
1.10351e-06
-1.25232e-05
1.07784e-06
-1.28061e-05
1.05053e-06
-1.30808e-05
1.02152e-06
-1.33467e-05
9.90741e-07
-1.36034e-05
9.58154e-07
-1.38504e-05
9.23703e-07
-1.40872e-05
8.87347e-07
-1.43133e-05
8.49047e-07
-1.45281e-05
8.08774e-07
-1.47312e-05
7.66503e-07
-1.49221e-05
7.22223e-07
-1.51001e-05
6.75926e-07
-1.52648e-05
6.2762e-07
-1.54157e-05
5.77321e-07
-1.55523e-05
5.25057e-07
-1.56741e-05
4.70868e-07
-1.57807e-05
4.14808e-07
-1.58716e-05
3.56945e-07
-1.59463e-05
2.97358e-07
-1.60045e-05
2.36143e-07
-1.60458e-05
1.7341e-07
-1.607e-05
1.09283e-07
-1.60766e-05
4.38987e-08
-1.60654e-05
-2.25897e-08
-1.60363e-05
-9.00172e-08
-1.59891e-05
-1.58206e-07
-1.59236e-05
-2.26965e-07
-1.58399e-05
-2.96095e-07
-1.57378e-05
-3.65385e-07
-1.56175e-05
-4.34617e-07
-1.54791e-05
-5.03567e-07
-1.53226e-05
-5.72003e-07
-1.51484e-05
-6.39695e-07
-1.49568e-05
-7.06409e-07
-1.4748e-05
-7.71912e-07
-1.45225e-05
-8.35976e-07
-1.42807e-05
-8.98377e-07
-1.40231e-05
-9.58899e-07
-1.37503e-05
-1.01734e-06
-1.34628e-05
-1.07349e-06
-1.31614e-05
-1.12719e-06
-1.28466e-05
-1.17826e-06
-1.25192e-05
-1.22656e-06
-1.218e-05
-1.27194e-06
-1.18297e-05
-1.31431e-06
-1.14691e-05
-1.35356e-06
-1.1099e-05
-1.38962e-06
-1.07203e-05
-1.42244e-06
-1.03338e-05
-1.45198e-06
-9.94025e-06
-1.47821e-06
-9.54057e-06
-1.50112e-06
-9.13557e-06
-1.52073e-06
-8.72611e-06
-1.53704e-06
-8.313e-06
-1.55006e-06
-7.89709e-06
-1.5598e-06
-7.4792e-06
-1.56627e-06
-7.06019e-06
-1.56944e-06
-6.6409e-06
-1.56927e-06
-6.22223e-06
-1.56569e-06
-5.80509e-06
-1.55858e-06
-5.39045e-06
-1.54776e-06
-4.97932e-06
-1.53301e-06
-4.57283e-06
-1.514e-06
-4.17217e-06
-1.49036e-06
-3.7787e-06
-1.4616e-06
-3.39386e-06
-1.42718e-06
-3.01931e-06
-1.38645e-06
-2.65682e-06
-1.33868e-06
-2.30841e-06
-1.28311e-06
-1.97621e-06
-1.21894e-06
-1.66257e-06
-1.14543e-06
-1.36992e-06
-1.0619e-06
-1.10081e-06
-9.67992e-07
-8.57673e-07
-8.63539e-07
-6.42932e-07
-7.49225e-07
-4.58449e-07
-6.26181e-07
-3.05853e-07
-4.97307e-07
-1.85518e-07
-3.66264e-07
-9.73965e-08
-2.40057e-07
-3.92242e-08
-1.26533e-07
-8.58521e-09
-3.94032e-08
7.81774e-09
-4.79207e-08
1.54865e-07
-1.7012e-07
4.51417e-07
-3.56303e-07
7.18224e-07
-5.91692e-07
9.52747e-07
-8.69646e-07
1.1504e-06
-1.18065e-06
1.31401e-06
-1.51943e-06
1.4451e-06
-1.87949e-06
1.54839e-06
-2.25675e-06
1.62734e-06
-2.6468e-06
1.68646e-06
-3.04666e-06
1.72916e-06
-3.45342e-06
1.75895e-06
-3.86508e-06
1.77849e-06
-4.27978e-06
1.7902e-06
-4.69624e-06
1.79587e-06
-5.11333e-06
1.79705e-06
-5.53023e-06
1.79481e-06
-5.94627e-06
1.79004e-06
-6.36093e-06
1.78334e-06
-6.77379e-06
1.77515e-06
-7.18448e-06
1.76574e-06
-7.59271e-06
1.75531e-06
-7.99819e-06
1.74393e-06
-8.40065e-06
1.73165e-06
-8.79983e-06
1.71844e-06
-9.19548e-06
1.70429e-06
-9.58732e-06
1.68911e-06
-9.97506e-06
1.67285e-06
-1.03584e-05
1.65542e-06
-1.07371e-05
1.63673e-06
-1.11107e-05
1.6167e-06
-1.14789e-05
1.59523e-06
-1.18413e-05
1.57224e-06
-1.21977e-05
1.54763e-06
-1.25474e-05
1.52132e-06
-1.28903e-05
1.49321e-06
-1.32257e-05
1.46321e-06
-1.35532e-05
1.43125e-06
-1.38724e-05
1.39724e-06
-1.41828e-05
1.3611e-06
-1.44838e-05
1.32275e-06
-1.47751e-05
1.28212e-06
-1.50559e-05
1.23915e-06
-1.53258e-05
1.19378e-06
-1.55842e-05
1.14596e-06
-1.58307e-05
1.09563e-06
-1.60645e-05
1.04278e-06
-1.62852e-05
9.87359e-07
-1.64923e-05
9.29372e-07
-1.6685e-05
8.6881e-07
-1.6863e-05
8.05688e-07
-1.70256e-05
7.40029e-07
-1.71723e-05
6.71876e-07
-1.73026e-05
6.01285e-07
-1.74161e-05
5.28329e-07
-1.75122e-05
4.53099e-07
-1.75905e-05
3.75703e-07
-1.76505e-05
2.96267e-07
-1.7692e-05
2.14934e-07
-1.77146e-05
1.31868e-07
-1.77179e-05
4.7248e-08
-1.77018e-05
-3.87287e-08
-1.7666e-05
-1.25848e-07
-1.76103e-05
-2.13881e-07
-1.75347e-05
-3.02583e-07
-1.74392e-05
-3.91697e-07
-1.73237e-05
-4.80954e-07
-1.71883e-05
-5.70075e-07
-1.70332e-05
-6.58775e-07
-1.68585e-05
-7.46761e-07
-1.66646e-05
-8.3374e-07
-1.64517e-05
-9.19416e-07
-1.62203e-05
-1.00349e-06
-1.59707e-05
-1.08569e-06
-1.57035e-05
-1.16572e-06
-1.54193e-05
-1.24331e-06
-1.51186e-05
-1.3182e-06
-1.48022e-05
-1.39016e-06
-1.44706e-05
-1.45895e-06
-1.41247e-05
-1.52437e-06
-1.37653e-05
-1.58623e-06
-1.33931e-05
-1.64438e-06
-1.30089e-05
-1.69866e-06
-1.26138e-05
-1.74897e-06
-1.22085e-05
-1.79521e-06
-1.17938e-05
-1.83731e-06
-1.13709e-05
-1.87524e-06
-1.09404e-05
-1.90896e-06
-1.05033e-05
-1.93847e-06
-1.00605e-05
-1.96376e-06
-9.61301e-06
-1.98486e-06
-9.16158e-06
-2.00177e-06
-8.70716e-06
-2.01451e-06
-8.25063e-06
-2.02308e-06
-7.79292e-06
-2.02744e-06
-7.33493e-06
-2.02755e-06
-6.87761e-06
-2.02329e-06
-6.42195e-06
-2.01452e-06
-5.96898e-06
-2.00101e-06
-5.5198e-06
-1.98246e-06
-5.0756e-06
-1.95847e-06
-4.63767e-06
-1.92855e-06
-4.20743e-06
-1.8921e-06
-3.78645e-06
-1.84841e-06
-3.37645e-06
-1.79669e-06
-2.97934e-06
-1.73602e-06
-2.59721e-06
-1.66546e-06
-2.23231e-06
-1.58403e-06
-1.88711e-06
-1.49083e-06
-1.56413e-06
-1.38505e-06
-1.26604e-06
-1.26626e-06
-9.95357e-07
-1.13433e-06
-7.54663e-07
-9.90073e-07
-5.45917e-07
-8.34961e-07
-3.71022e-07
-6.72353e-07
-2.30549e-07
-5.06668e-07
-1.25057e-07
-3.45742e-07
-5.27449e-08
-1.98626e-07
-1.25265e-08
-7.99347e-08
-4.54198e-09
-5.35839e-08
2.07762e-07
-1.89763e-07
5.88736e-07
-3.96298e-07
9.2376e-07
-6.56121e-07
1.21314e-06
-9.61506e-07
1.45522e-06
-1.30178e-06
1.65449e-06
-1.6712e-06
1.81416e-06
-2.06279e-06
1.94001e-06
-2.4723e-06
2.03658e-06
-2.89511e-06
2.10919e-06
-3.32818e-06
2.162e-06
-3.76848e-06
2.19913e-06
-4.21395e-06
2.22376e-06
-4.66267e-06
2.23876e-06
-5.11328e-06
2.2463e-06
-5.56459e-06
2.24819e-06
-6.01574e-06
2.24578e-06
-6.46598e-06
2.24011e-06
-6.91475e-06
2.23194e-06
-7.36156e-06
2.22179e-06
-7.80602e-06
2.21003e-06
-8.24777e-06
2.19689e-06
-8.6865e-06
2.18248e-06
-9.12188e-06
2.16687e-06
-9.55364e-06
2.15003e-06
-9.98145e-06
2.13194e-06
-1.0405e-05
2.11252e-06
-1.0824e-05
2.0917e-06
-1.12381e-05
2.06937e-06
-1.1647e-05
2.04543e-06
-1.20502e-05
2.01979e-06
-1.24475e-05
1.99232e-06
-1.28383e-05
1.96293e-06
-1.32223e-05
1.9315e-06
-1.35991e-05
1.89791e-06
-1.39681e-05
1.86208e-06
-1.43289e-05
1.82388e-06
-1.4681e-05
1.78322e-06
-1.50239e-05
1.73999e-06
-1.53571e-05
1.69411e-06
-1.56799e-05
1.64548e-06
-1.5992e-05
1.59402e-06
-1.62926e-05
1.53965e-06
-1.65812e-05
1.48229e-06
-1.68573e-05
1.4219e-06
-1.71202e-05
1.35842e-06
-1.73693e-05
1.29181e-06
-1.76041e-05
1.22204e-06
-1.78239e-05
1.14911e-06
-1.80282e-05
1.07301e-06
-1.82164e-05
9.93777e-07
-1.83879e-05
9.11435e-07
-1.85421e-05
8.26044e-07
-1.86785e-05
7.37679e-07
-1.87967e-05
6.46436e-07
-1.88961e-05
5.52432e-07
-1.89762e-05
4.55804e-07
-1.90367e-05
3.56714e-07
-1.90771e-05
2.55343e-07
-1.90972e-05
1.51895e-07
-1.90965e-05
4.65966e-08
-1.9075e-05
-6.03072e-08
-1.90323e-05
-1.6855e-07
-1.89683e-05
-2.77846e-07
-1.88829e-05
-3.87894e-07
-1.87762e-05
-4.98376e-07
-1.86482e-05
-6.0896e-07
-1.84989e-05
-7.19304e-07
-1.83285e-05
-8.29057e-07
-1.81374e-05
-9.37861e-07
-1.79257e-05
-1.04536e-06
-1.76938e-05
-1.15118e-06
-1.74422e-05
-1.25498e-06
-1.71714e-05
-1.3564e-06
-1.68819e-05
-1.4551e-06
-1.65743e-05
-1.55076e-06
-1.62493e-05
-1.64305e-06
-1.59077e-05
-1.73169e-06
-1.55501e-05
-1.81641e-06
-1.51773e-05
-1.89695e-06
-1.47903e-05
-1.97309e-06
-1.43899e-05
-2.04464e-06
-1.3977e-05
-2.11143e-06
-1.35524e-05
-2.17333e-06
-1.31172e-05
-2.23022e-06
-1.26723e-05
-2.28204e-06
-1.22186e-05
-2.32872e-06
-1.17572e-05
-2.37024e-06
-1.12888e-05
-2.40659e-06
-1.08146e-05
-2.43777e-06
-1.03355e-05
-2.46381e-06
-9.85235e-06
-2.48471e-06
-9.36616e-06
-2.5005e-06
-8.87787e-06
-2.51117e-06
-8.38842e-06
-2.51668e-06
-7.8988e-06
-2.51697e-06
-7.40999e-06
-2.5119e-06
-6.92303e-06
-2.50128e-06
-6.439e-06
-2.48484e-06
-5.95906e-06
-2.46221e-06
-5.48444e-06
-2.43289e-06
-5.0165e-06
-2.3963e-06
-4.55671e-06
-2.3517e-06
-4.1067e-06
-2.29825e-06
-3.66826e-06
-2.23496e-06
-3.24334e-06
-2.16077e-06
-2.83411e-06
-2.07454e-06
-2.44289e-06
-1.9751e-06
-2.07219e-06
-1.8614e-06
-1.7246e-06
-1.7325e-06
-1.40289e-06
-1.58789e-06
-1.10961e-06
-1.42747e-06
-8.4749e-07
-1.25217e-06
-6.18584e-07
-1.06373e-06
-4.25067e-07
-8.6592e-07
-2.67734e-07
-6.63826e-07
-1.47719e-07
-4.65936e-07
-6.3682e-08
-2.82364e-07
-1.56347e-08
-1.28352e-07
-1.9968e-08
-5.82102e-08
2.65304e-07
-2.0618e-07
7.38048e-07
-4.30139e-07
1.14675e-06
-7.11116e-07
1.49489e-06
-1.04041e-06
1.78407e-06
-1.40628e-06
2.0208e-06
-1.8025e-06
2.21022e-06
-2.22162e-06
2.35941e-06
-2.65921e-06
2.47414e-06
-3.11043e-06
2.56061e-06
-3.57219e-06
2.62381e-06
-4.04136e-06
2.66847e-06
-4.51586e-06
2.69835e-06
-4.9937e-06
2.71675e-06
-5.4735e-06
2.72621e-06
-5.95402e-06
2.72884e-06
-6.43435e-06
2.72622e-06
-6.91371e-06
2.7196e-06
-7.3915e-06
2.70985e-06
-7.8672e-06
2.69761e-06
-8.34036e-06
2.68332e-06
-8.8106e-06
2.66725e-06
-9.27756e-06
2.64956e-06
-9.7409e-06
2.63032e-06
-1.02003e-05
2.60953e-06
-1.06554e-05
2.58714e-06
-1.11058e-05
2.5631e-06
-1.15513e-05
2.53729e-06
-1.19914e-05
2.50961e-06
-1.24258e-05
2.47995e-06
-1.28541e-05
2.44817e-06
-1.32758e-05
2.41416e-06
-1.36906e-05
2.37778e-06
-1.40979e-05
2.33891e-06
-1.44973e-05
2.29741e-06
-1.48883e-05
2.25317e-06
-1.52703e-05
2.20605e-06
-1.56429e-05
2.15594e-06
-1.60056e-05
2.10273e-06
-1.63577e-05
2.04629e-06
-1.66986e-05
1.98653e-06
-1.70279e-05
1.92335e-06
-1.73448e-05
1.85666e-06
-1.76488e-05
1.78637e-06
-1.79392e-05
1.71243e-06
-1.82155e-05
1.63478e-06
-1.8477e-05
1.55337e-06
-1.87231e-05
1.46818e-06
-1.89531e-05
1.3792e-06
-1.91665e-05
1.28645e-06
-1.93626e-05
1.18995e-06
-1.95408e-05
1.08975e-06
-1.97007e-05
9.8592e-07
-1.98415e-05
8.78564e-07
-1.99628e-05
7.67801e-07
-2.00641e-05
6.53775e-07
-2.0145e-05
5.36658e-07
-2.02049e-05
4.16647e-07
-2.02435e-05
2.93965e-07
-2.02604e-05
1.68862e-07
-2.02555e-05
4.16106e-08
-2.02283e-05
-8.74891e-08
-2.01787e-05
-2.18115e-07
-2.01067e-05
-3.49925e-07
-2.0012e-05
-4.82552e-07
-1.98948e-05
-6.15617e-07
-1.97551e-05
-7.4872e-07
-1.9593e-05
-8.81453e-07
-1.94087e-05
-1.01339e-06
-1.92025e-05
-1.14412e-06
-1.89747e-05
-1.2732e-06
-1.87257e-05
-1.4002e-06
-1.84561e-05
-1.5247e-06
-1.81663e-05
-1.64629e-06
-1.78569e-05
-1.76456e-06
-1.75286e-05
-1.87911e-06
-1.71822e-05
-1.9896e-06
-1.68183e-05
-2.09565e-06
-1.64379e-05
-2.19697e-06
-1.60417e-05
-2.29325e-06
-1.56307e-05
-2.38423e-06
-1.52057e-05
-2.46969e-06
-1.47678e-05
-2.54944e-06
-1.4318e-05
-2.62332e-06
-1.38571e-05
-2.69121e-06
-1.33863e-05
-2.75301e-06
-1.29065e-05
-2.80867e-06
-1.24187e-05
-2.85816e-06
-1.1924e-05
-2.90147e-06
-1.14233e-05
-2.93861e-06
-1.09176e-05
-2.96961e-06
-1.0408e-05
-2.99449e-06
-9.89536e-06
-3.01326e-06
-9.38075e-06
-3.02592e-06
-8.86515e-06
-3.03243e-06
-8.34955e-06
-3.03271e-06
-7.835e-06
-3.0266e-06
-7.32256e-06
-3.01387e-06
-6.81335e-06
-2.9942e-06
-6.30856e-06
-2.96714e-06
-5.80946e-06
-2.93213e-06
-5.31745e-06
-2.88845e-06
-4.83403e-06
-2.83526e-06
-4.36085e-06
-2.77155e-06
-3.89976e-06
-2.69619e-06
-3.45273e-06
-2.60791e-06
-3.02197e-06
-2.50542e-06
-2.60981e-06
-2.38735e-06
-2.21884e-06
-2.25249e-06
-1.85164e-06
-2.09977e-06
-1.51105e-06
-1.92858e-06
-1.1997e-06
-1.73885e-06
-9.20407e-07
-1.53157e-06
-6.75349e-07
-1.30876e-06
-4.6695e-07
-1.07447e-06
-2.96229e-07
-8.34412e-07
-1.64809e-07
-5.97603e-07
-7.17406e-08
-3.75116e-07
-1.78273e-08
-1.82701e-07
-3.75662e-08
-6.2134e-08
3.26663e-07
-2.20107e-07
8.97385e-07
-4.58949e-07
1.38446e-06
-7.5813e-07
1.7948e-06
-1.1081e-06
2.13344e-06
-1.49618e-06
2.40921e-06
-1.9157e-06
2.6294e-06
-2.35874e-06
2.80257e-06
-2.82067e-06
2.93586e-06
-3.29647e-06
3.03643e-06
-3.78297e-06
3.11016e-06
-4.27699e-06
3.16245e-06
-4.77639e-06
3.19764e-06
-5.27916e-06
3.21946e-06
-5.7839e-06
3.23084e-06
-6.28933e-06
3.23419e-06
-6.79453e-06
3.23133e-06
-7.29868e-06
3.22367e-06
-7.80117e-06
3.21224e-06
-8.30141e-06
3.19778e-06
-8.79897e-06
3.18079e-06
-9.29341e-06
3.16161e-06
-9.78435e-06
3.14041e-06
-1.02714e-05
3.1173e-06
-1.07542e-05
3.09227e-06
-1.12325e-05
3.06529e-06
-1.17057e-05
3.03627e-06
-1.21736e-05
3.00512e-06
-1.26358e-05
2.9717e-06
-1.30918e-05
2.93588e-06
-1.35413e-05
2.89753e-06
-1.39837e-05
2.85649e-06
-1.44186e-05
2.81263e-06
-1.48456e-05
2.76578e-06
-1.5264e-05
2.71582e-06
-1.56735e-05
2.66258e-06
-1.60735e-05
2.60593e-06
-1.64634e-05
2.54573e-06
-1.68425e-05
2.48185e-06
-1.72105e-05
2.41416e-06
-1.75666e-05
2.34254e-06
-1.79102e-05
2.26688e-06
-1.82406e-05
2.18708e-06
-1.85574e-05
2.10305e-06
-1.88597e-05
2.01472e-06
-1.9147e-05
1.92203e-06
-1.94186e-05
1.82493e-06
-1.96739e-05
1.7234e-06
-1.99122e-05
1.61744e-06
-2.01328e-05
1.50706e-06
-2.03352e-05
1.3923e-06
-2.05188e-05
1.27324e-06
-2.06828e-05
1.14995e-06
-2.08269e-05
1.02257e-06
-2.09503e-05
8.91228e-07
-2.10527e-05
7.56115e-07
-2.11335e-05
6.17432e-07
-2.11923e-05
4.75417e-07
-2.12287e-05
3.30337e-07
-2.12423e-05
1.82489e-07
-2.12329e-05
3.21975e-08
-2.12002e-05
-1.20182e-07
-2.1144e-05
-2.74268e-07
-2.10643e-05
-4.29656e-07
-2.09609e-05
-5.85915e-07
-2.08339e-05
-7.42597e-07
-2.06834e-05
-8.99235e-07
-2.05095e-05
-1.05535e-06
-2.03124e-05
-1.21044e-06
-2.00924e-05
-1.36402e-06
-1.985e-05
-1.51558e-06
-1.95856e-05
-1.66462e-06
-1.92996e-05
-1.81064e-06
-1.89926e-05
-1.95317e-06
-1.86654e-05
-2.09174e-06
-1.83186e-05
-2.22588e-06
-1.79529e-05
-2.35518e-06