/*--------------------------------*- C++ -*----------------------------------*\
| =========                 |                                                 |
| \\      /  F ield         | OpenFOAM: The Open Source CFD Toolbox           |
|  \\    /   O peration     | Version:  2406                                  |
|   \\  /    A nd           | Website:  www.openfoam.com                      |
|    \\/     M anipulation  |                                                 |
\*---------------------------------------------------------------------------*/
FoamFile
{
    version     2.0;
    format      ascii;
    arch        "LSB;label=32;scalar=64";
    class       volScalarField;
    location    "12.5";
    object      p;
}
// * * * * * * * * * * * * * * * * * * * * * * * * * * * * * * * * * * * * * //

dimensions      [0 2 -2 0 0 0 0];

internalField   nonuniform List<scalar> 
14400
(
0.019902
0.019901
0.0198979
0.0198932
0.0198878
0.0198819
0.0198761
0.0198704
0.019865
0.0198598
0.0198549
0.0198502
0.0198457
0.0198412
0.0198369
0.0198326
0.0198284
0.0198242
0.0198201
0.0198161
0.0198121
0.0198083
0.0198047
0.0198014
0.0197984
0.0197958
0.0197937
0.019792
0.019791
0.0197907
0.0197912
0.0197925
0.0197947
0.019798
0.0198024
0.019808
0.0198148
0.019823
0.0198326
0.0198437
0.0198565
0.0198708
0.0198869
0.0199047
0.0199243
0.0199458
0.0199691
0.0199943
0.0200214
0.0200503
0.0200811
0.0201136
0.0201478
0.0201836
0.0202209
0.0202596
0.0202995
0.0203405
0.0203822
0.0204246
0.0204674
0.0205102
0.020553
0.0205952
0.0206368
0.0206773
0.0207164
0.0207539
0.0207895
0.0208228
0.0208536
0.0208817
0.0209067
0.0209286
0.0209472
0.0209623
0.0209739
0.0209819
0.0209862
0.0209871
0.0209844
0.0209784
0.0209691
0.0209568
0.0209417
0.0209239
0.0209039
0.0208817
0.0208578
0.0208323
0.0208056
0.020778
0.0207497
0.0207209
0.020692
0.0206632
0.0206347
0.0206066
0.0205793
0.0205527
0.0205272
0.0205027
0.0204795
0.0204576
0.020437
0.020418
0.0204005
0.0203846
0.0203703
0.0203578
0.0203469
0.020338
0.0203307
0.0203255
0.0203219
0.0203206
0.0203203
0.0203222
0.0203238
0.0203263
0.019903
0.019902
0.0198996
0.0198959
0.0198917
0.0198868
0.0198821
0.0198771
0.0198723
0.0198675
0.019863
0.0198585
0.0198542
0.0198499
0.0198457
0.0198415
0.0198374
0.0198333
0.0198293
0.0198253
0.0198215
0.0198179
0.0198145
0.0198113
0.0198085
0.019806
0.019804
0.0198026
0.0198017
0.0198016
0.0198021
0.0198036
0.0198059
0.0198092
0.0198136
0.0198192
0.019826
0.0198341
0.0198437
0.0198546
0.0198671
0.0198812
0.019897
0.0199145
0.0199337
0.0199547
0.0199774
0.020002
0.0200285
0.0200567
0.0200866
0.0201183
0.0201516
0.0201865
0.0202228
0.0202604
0.0202992
0.0203389
0.0203795
0.0204207
0.0204622
0.0205038
0.0205452
0.0205863
0.0206266
0.0206659
0.0207038
0.0207402
0.0207747
0.0208071
0.020837
0.0208642
0.0208886
0.0209099
0.0209281
0.0209428
0.0209542
0.0209621
0.0209665
0.0209675
0.0209651
0.0209595
0.0209508
0.0209391
0.0209247
0.0209078
0.0208886
0.0208674
0.0208445
0.0208201
0.0207945
0.0207679
0.0207407
0.0207131
0.0206853
0.0206575
0.02063
0.020603
0.0205766
0.020551
0.0205264
0.0205028
0.0204804
0.0204593
0.0204395
0.0204212
0.0204043
0.0203891
0.0203753
0.0203633
0.0203527
0.0203441
0.0203369
0.0203317
0.0203277
0.0203259
0.0203247
0.0203258
0.0203263
0.0203289
0.0199063
0.0199044
0.019902
0.019898
0.019894
0.0198892
0.0198847
0.0198798
0.0198753
0.0198707
0.0198663
0.0198619
0.0198577
0.0198535
0.0198494
0.0198452
0.0198411
0.019837
0.019833
0.0198291
0.0198253
0.0198216
0.0198182
0.019815
0.0198122
0.0198097
0.0198077
0.0198062
0.0198053
0.0198051
0.0198056
0.019807
0.0198092
0.0198125
0.0198168
0.0198222
0.0198289
0.0198369
0.0198462
0.019857
0.0198694
0.0198833
0.0198988
0.0199161
0.019935
0.0199558
0.0199783
0.0200027
0.0200288
0.0200567
0.0200864
0.0201178
0.0201509
0.0201854
0.0202215
0.0202588
0.0202974
0.0203369
0.0203772
0.0204181
0.0204594
0.0205009
0.0205421
0.020583
0.0206232
0.0206623
0.0207002
0.0207365
0.0207709
0.0208031
0.020833
0.0208602
0.0208845
0.0209058
0.0209239
0.0209386
0.02095
0.0209579
0.0209623
0.0209633
0.0209609
0.0209553
0.0209466
0.020935
0.0209206
0.0209037
0.0208846
0.0208635
0.0208406
0.0208163
0.0207908
0.0207644
0.0207373
0.0207098
0.0206822
0.0206546
0.0206273
0.0206005
0.0205743
0.020549
0.0205245
0.0205012
0.020479
0.0204581
0.0204386
0.0204205
0.0204038
0.0203887
0.0203752
0.0203633
0.0203529
0.0203443
0.0203372
0.020332
0.020328
0.0203263
0.020325
0.0203263
0.0203269
0.0203305
0.0199112
0.019908
0.0199057
0.0199016
0.0198981
0.0198937
0.0198897
0.0198853
0.0198813
0.019877
0.019873
0.0198688
0.0198648
0.0198607
0.0198567
0.0198526
0.0198486
0.0198445
0.0198406
0.0198367
0.0198329
0.0198293
0.0198258
0.0198227
0.0198198
0.0198174
0.0198153
0.0198138
0.0198129
0.0198126
0.0198131
0.0198143
0.0198165
0.0198196
0.0198238
0.019829
0.0198355
0.0198433
0.0198524
0.0198629
0.0198749
0.0198884
0.0199036
0.0199204
0.0199389
0.0199592
0.0199812
0.020005
0.0200306
0.020058
0.020087
0.0201178
0.0201502
0.0201842
0.0202195
0.0202562
0.0202941
0.020333
0.0203727
0.020413
0.0204537
0.0204945
0.0205352
0.0205755
0.0206151
0.0206538
0.0206912
0.0207271
0.0207611
0.020793
0.0208226
0.0208495
0.0208737
0.0208948
0.0209127
0.0209274
0.0209387
0.0209465
0.020951
0.020952
0.0209498
0.0209443
0.0209358
0.0209243
0.0209102
0.0208936
0.0208748
0.0208541
0.0208316
0.0208077
0.0207826
0.0207567
0.0207301
0.0207031
0.020676
0.0206489
0.0206222
0.0205959
0.0205703
0.0205455
0.0205216
0.0204988
0.0204771
0.0204568
0.0204377
0.0204201
0.0204039
0.0203892
0.020376
0.0203645
0.0203543
0.020346
0.0203389
0.0203338
0.0203297
0.0203278
0.0203262
0.0203276
0.0203279
0.0203324
0.019917
0.0199121
0.0199096
0.0199048
0.0199014
0.0198967
0.0198929
0.0198886
0.0198848
0.0198806
0.0198768
0.0198727
0.0198688
0.0198648
0.0198609
0.0198568
0.0198528
0.0198488
0.0198448
0.0198408
0.019837
0.0198333
0.0198297
0.0198265
0.0198235
0.0198209
0.0198187
0.019817
0.0198159
0.0198154
0.0198157
0.0198167
0.0198186
0.0198215
0.0198254
0.0198304
0.0198365
0.019844
0.0198527
0.0198629
0.0198745
0.0198877
0.0199025
0.019919
0.0199371
0.019957
0.0199787
0.0200021
0.0200274
0.0200544
0.0200831
0.0201136
0.0201457
0.0201794
0.0202146
0.0202511
0.0202889
0.0203276
0.0203673
0.0204075
0.0204482
0.0204891
0.0205299
0.0205703
0.0206101
0.020649
0.0206866
0.0207227
0.020757
0.0207891
0.0208189
0.0208461
0.0208704
0.0208917
0.0209098
0.0209246
0.020936
0.0209439
0.0209484
0.0209494
0.0209471
0.0209416
0.0209329
0.0209214
0.0209071
0.0208904
0.0208714
0.0208505
0.0208278
0.0208038
0.0207786
0.0207525
0.0207258
0.0206987
0.0206716
0.0206445
0.0206178
0.0205916
0.020566
0.0205413
0.0205175
0.0204949
0.0204734
0.0204532
0.0204343
0.0204169
0.0204009
0.0203864
0.0203734
0.020362
0.020352
0.0203438
0.0203368
0.0203318
0.0203277
0.020326
0.0203244
0.0203262
0.0203267
0.0203322
0.0199233
0.0199168
0.0199141
0.0199086
0.0199053
0.0199006
0.0198971
0.019893
0.0198894
0.0198855
0.0198819
0.019878
0.0198743
0.0198704
0.0198665
0.0198625
0.0198585
0.0198545
0.0198504
0.0198464
0.0198425
0.0198387
0.019835
0.0198316
0.0198285
0.0198257
0.0198233
0.0198215
0.0198201
0.0198194
0.0198194
0.0198201
0.0198217
0.0198243
0.0198278
0.0198324
0.0198382
0.0198452
0.0198535
0.0198632
0.0198744
0.0198871
0.0199014
0.0199174
0.019935
0.0199544
0.0199755
0.0199984
0.0200231
0.0200496
0.0200779
0.0201079
0.0201396
0.0201729
0.0202077
0.0202439
0.0202813
0.0203198
0.0203592
0.0203993
0.0204399
0.0204807
0.0205215
0.020562
0.0206019
0.0206408
0.0206786
0.0207148
0.0207493
0.0207817
0.0208117
0.0208391
0.0208636
0.0208851
0.0209034
0.0209184
0.0209299
0.0209379
0.0209425
0.0209436
0.0209413
0.0209357
0.0209271
0.0209155
0.0209011
0.0208843
0.0208653
0.0208442
0.0208215
0.0207974
0.0207722
0.0207461
0.0207194
0.0206924
0.0206653
0.0206384
0.0206117
0.0205857
0.0205603
0.0205358
0.0205123
0.0204899
0.0204687
0.0204488
0.0204302
0.0204131
0.0203973
0.0203831
0.0203704
0.0203592
0.0203494
0.0203414
0.0203345
0.0203296
0.0203255
0.0203239
0.0203223
0.0203243
0.0203248
0.0203309
0.0199295
0.0199211
0.0199182
0.0199118
0.0199084
0.0199034
0.0199
0.0198958
0.0198924
0.0198886
0.0198851
0.0198814
0.0198777
0.0198739
0.01987
0.019866
0.019862
0.0198578
0.0198537
0.0198495
0.0198455
0.0198415
0.0198376
0.019834
0.0198306
0.0198275
0.0198249
0.0198226
0.019821
0.0198199
0.0198195
0.0198198
0.019821
0.0198231
0.0198261
0.0198303
0.0198356
0.0198421
0.0198499
0.0198591
0.0198698
0.0198819
0.0198957
0.0199111
0.0199282
0.0199471
0.0199678
0.0199903
0.0200146
0.0200407
0.0200686
0.0200983
0.0201298
0.0201629
0.0201975
0.0202336
0.0202711
0.0203096
0.0203492
0.0203895
0.0204304
0.0204715
0.0205127
0.0205536
0.020594
0.0206335
0.0206718
0.0207086
0.0207437
0.0207767
0.0208073
0.0208352
0.0208603
0.0208822
0.020901
0.0209163
0.0209281
0.0209363
0.020941
0.0209421
0.0209398
0.0209342
0.0209253
0.0209135
0.0208989
0.0208818
0.0208624
0.020841
0.0208179
0.0207934
0.0207678
0.0207413
0.0207143
0.020687
0.0206597
0.0206325
0.0206057
0.0205795
0.020554
0.0205295
0.0205059
0.0204836
0.0204624
0.0204426
0.0204241
0.0204071
0.0203915
0.0203774
0.0203648
0.0203538
0.0203441
0.0203362
0.0203294
0.0203247
0.0203207
0.0203193
0.0203177
0.0203201
0.0203206
0.0203272
0.0199353
0.0199252
0.0199219
0.0199147
0.0199113
0.019906
0.0199028
0.0198986
0.0198955
0.0198917
0.0198884
0.0198848
0.0198812
0.0198774
0.0198736
0.0198695
0.0198654
0.0198612
0.0198569
0.0198526
0.0198483
0.0198441
0.01984
0.019836
0.0198324
0.019829
0.0198259
0.0198233
0.0198212
0.0198197
0.0198189
0.0198187
0.0198194
0.0198209
0.0198235
0.019827
0.0198317
0.0198377
0.0198449
0.0198534
0.0198635
0.019875
0.0198882
0.019903
0.0199195
0.0199378
0.0199578
0.0199798
0.0200036
0.0200292
0.0200567
0.020086
0.0201171
0.02015
0.0201844
0.0202204
0.0202577
0.0202963
0.020336
0.0203765
0.0204176
0.0204591
0.0205007
0.0205421
0.020583
0.020623
0.020662
0.0206995
0.0207353
0.0207689
0.0208002
0.0208288
0.0208545
0.020877
0.0208963
0.020912
0.0209242
0.0209327
0.0209376
0.0209389
0.0209367
0.020931
0.020922
0.02091
0.0208952
0.0208778
0.020858
0.0208363
0.0208128
0.020788
0.020762
0.0207352
0.0207079
0.0206803
0.0206527
0.0206253
0.0205983
0.020572
0.0205465
0.0205219
0.0204984
0.0204761
0.020455
0.0204353
0.0204169
0.0204001
0.0203846
0.0203708
0.0203583
0.0203475
0.0203379
0.0203302
0.0203235
0.0203189
0.0203149
0.0203136
0.0203121
0.0203146
0.0203152
0.0203221
0.0199401
0.0199282
0.0199247
0.0199165
0.0199131
0.0199074
0.0199043
0.0199
0.0198969
0.0198932
0.01989
0.0198864
0.0198829
0.019879
0.0198752
0.019871
0.0198668
0.0198624
0.0198579
0.0198534
0.0198488
0.0198443
0.0198399
0.0198356
0.0198315
0.0198277
0.0198242
0.0198211
0.0198185
0.0198164
0.019815
0.0198143
0.0198143
0.0198153
0.0198171
0.01982
0.0198241
0.0198293
0.0198358
0.0198437
0.0198531
0.0198639
0.0198764
0.0198906
0.0199064
0.0199241
0.0199436
0.019965
0.0199883
0.0200135
0.0200407
0.0200697
0.0201006
0.0201332
0.0201676
0.0202036
0.0202411
0.0202799
0.0203198
0.0203607
0.0204023
0.0204444
0.0204867
0.0205288
0.0205705
0.0206115
0.0206514
0.0206899
0.0207266
0.0207612
0.0207935
0.020823
0.0208496
0.0208729
0.0208929
0.0209093
0.020922
0.020931
0.0209362
0.0209376
0.0209354
0.0209297
0.0209206
0.0209084
0.0208932
0.0208753
0.0208551
0.0208329
0.0208089
0.0207835
0.0207569
0.0207296
0.0207017
0.0206736
0.0206456
0.0206178
0.0205905
0.0205638
0.0205381
0.0205133
0.0204896
0.0204672
0.0204461
0.0204264
0.020408
0.0203912
0.0203758
0.0203621
0.0203497
0.020339
0.0203295
0.0203219
0.0203153
0.0203108
0.0203069
0.0203058
0.0203044
0.0203071
0.0203078
0.0203149
0.0199437
0.0199302
0.0199264
0.0199174
0.0199139
0.0199079
0.0199048
0.0199005
0.0198975
0.0198938
0.0198907
0.0198871
0.0198836
0.0198797
0.0198758
0.0198715
0.0198671
0.0198625
0.0198578
0.019853
0.0198481
0.0198433
0.0198384
0.0198337
0.0198292
0.0198248
0.0198208
0.0198172
0.019814
0.0198113
0.0198092
0.0198078
0.0198072
0.0198074
0.0198086
0.0198108
0.019814
0.0198185
0.0198243
0.0198314
0.01984
0.0198501
0.0198618
0.0198752
0.0198904
0.0199074
0.0199262
0.019947
0.0199698
0.0199945
0.0200211
0.0200498
0.0200804
0.0201128
0.0201471
0.0201831
0.0202206
0.0202596
0.0202999
0.0203412
0.0203833
0.020426
0.020469
0.020512
0.0205546
0.0205966
0.0206375
0.0206771
0.0207149
0.0207507
0.020784
0.0208146
0.0208423
0.0208666
0.0208874
0.0209046
0.020918
0.0209276
0.0209332
0.0209349
0.0209329
0.0209272
0.020918
0.0209056
0.0208901
0.0208719
0.0208512
0.0208284
0.0208039
0.0207779
0.0207507
0.0207228
0.0206944
0.0206658
0.0206372
0.020609
0.0205813
0.0205544
0.0205284
0.0205034
0.0204796
0.0204571
0.0204359
0.0204161
0.0203978
0.0203811
0.0203658
0.0203521
0.0203398
0.0203292
0.0203198
0.0203123
0.0203058
0.0203014
0.0202976
0.0202966
0.0202952
0.020298
0.0202988
0.020306
0.0199457
0.0199306
0.0199265
0.0199166
0.019913
0.0199067
0.0199036
0.0198991
0.0198962
0.0198925
0.0198894
0.0198857
0.0198822
0.0198782
0.0198742
0.0198698
0.0198652
0.0198603
0.0198553
0.0198502
0.0198449
0.0198396
0.0198343
0.0198291
0.019824
0.0198191
0.0198145
0.0198102
0.0198063
0.019803
0.0198002
0.019798
0.0197966
0.019796
0.0197964
0.0197977
0.0198002
0.0198038
0.0198087
0.019815
0.0198228
0.0198321
0.019843
0.0198556
0.0198701
0.0198863
0.0199045
0.0199247
0.0199468
0.019971
0.0199973
0.0200255
0.0200558
0.0200881
0.0201223
0.0201583
0.020196
0.0202353
0.0202759
0.0203178
0.0203605
0.020404
0.0204479
0.0204919
0.0205356
0.0205788
0.020621
0.0206619
0.0207011
0.0207382
0.020773
0.0208049
0.0208338
0.0208594
0.0208814
0.0208996
0.0209138
0.0209241
0.0209303
0.0209325
0.0209307
0.0209251
0.0209159
0.0209032
0.0208874
0.0208688
0.0208476
0.0208242
0.020799
0.0207723
0.0207444
0.0207158
0.0206867
0.0206574
0.0206283
0.0205995
0.0205713
0.020544
0.0205175
0.0204923
0.0204682
0.0204455
0.0204242
0.0204044
0.020386
0.0203692
0.0203539
0.0203403
0.020328
0.0203175
0.0203082
0.0203008
0.0202944
0.0202901
0.0202863
0.0202854
0.0202841
0.020287
0.0202878
0.0202952
0.0199458
0.0199291
0.0199248
0.0199141
0.0199104
0.0199038
0.0199008
0.0198962
0.0198933
0.0198895
0.0198865
0.0198827
0.0198791
0.019875
0.0198708
0.0198661
0.0198613
0.0198562
0.0198508
0.0198453
0.0198396
0.0198338
0.019828
0.0198222
0.0198165
0.019811
0.0198057
0.0198007
0.0197961
0.0197919
0.0197883
0.0197854
0.0197831
0.0197817
0.0197812
0.0197816
0.0197832
0.0197859
0.01979
0.0197953
0.0198022
0.0198106
0.0198207
0.0198324
0.019846
0.0198615
0.0198789
0.0198984
0.0199199
0.0199435
0.0199692
0.019997
0.0200269
0.0200589
0.020093
0.0201289
0.0201667
0.0202062
0.0202472
0.0202895
0.0203329
0.0203772
0.020422
0.020467
0.0205119
0.0205564
0.0206
0.0206423
0.020683
0.0207217
0.020758
0.0207915
0.020822
0.020849
0.0208723
0.0208917
0.0209071
0.0209184
0.0209254
0.0209282
0.0209268
0.0209215
0.0209123
0.0208996
0.0208835
0.0208645
0.0208428
0.0208189
0.020793
0.0207656
0.020737
0.0207077
0.0206778
0.0206479
0.0206181
0.0205887
0.02056
0.0205322
0.0205053
0.0204797
0.0204554
0.0204325
0.020411
0.0203911
0.0203727
0.0203559
0.0203407
0.020327
0.0203148
0.0203044
0.0202951
0.0202878
0.0202814
0.0202772
0.0202735
0.0202727
0.0202715
0.0202745
0.0202753
0.0202827
0.0199435
0.0199254
0.0199208
0.0199094
0.0199057
0.0198987
0.0198957
0.0198909
0.0198881
0.0198842
0.0198811
0.0198772
0.0198735
0.0198692
0.0198648
0.0198599
0.0198548
0.0198493
0.0198435
0.0198375
0.0198314
0.019825
0.0198187
0.0198122
0.0198059
0.0197996
0.0197936
0.0197878
0.0197824
0.0197774
0.019773
0.0197691
0.019766
0.0197636
0.0197622
0.0197617
0.0197623
0.0197641
0.0197671
0.0197716
0.0197775
0.0197849
0.0197941
0.0198049
0.0198176
0.0198322
0.0198488
0.0198675
0.0198882
0.0199111
0.0199362
0.0199635
0.0199929
0.0200246
0.0200584
0.0200942
0.020132
0.0201716
0.0202129
0.0202557
0.0202997
0.0203448
0.0203905
0.0204366
0.0204828
0.0205286
0.0205737
0.0206177
0.0206601
0.0207006
0.0207387
0.0207741
0.0208063
0.0208351
0.0208601
0.0208811
0.0208979
0.0209104
0.0209185
0.0209222
0.0209216
0.0209167
0.0209078
0.0208951
0.020879
0.0208596
0.0208375
0.020813
0.0207864
0.0207583
0.0207289
0.0206988
0.0206681
0.0206374
0.0206069
0.0205768
0.0205475
0.0205191
0.0204918
0.0204658
0.0204412
0.020418
0.0203963
0.0203763
0.0203578
0.0203409
0.0203256
0.020312
0.0202999
0.0202894
0.0202803
0.020273
0.0202666
0.0202625
0.0202589
0.0202581
0.0202569
0.02026
0.0202609
0.0202684
0.0199388
0.0199193
0.0199144
0.0199023
0.0198985
0.0198912
0.0198882
0.0198833
0.0198805
0.0198765
0.0198733
0.0198693
0.0198655
0.0198609
0.0198563
0.0198511
0.0198456
0.0198397
0.0198335
0.019827
0.0198203
0.0198134
0.0198064
0.0197993
0.0197922
0.0197852
0.0197784
0.0197718
0.0197655
0.0197596
0.0197542
0.0197495
0.0197454
0.019742
0.0197396
0.0197381
0.0197377
0.0197385
0.0197405
0.019744
0.0197488
0.0197553
0.0197634
0.0197733
0.019785
0.0197986
0.0198142
0.0198319
0.0198517
0.0198738
0.019898
0.0199246
0.0199534
0.0199845
0.0200178
0.0200533
0.0200908
0.0201304
0.0201717
0.0202148
0.0202592
0.0203048
0.0203514
0.0203985
0.0204458
0.020493
0.0205396
0.0205853
0.0206295
0.020672
0.0207121
0.0207496
0.020784
0.0208149
0.020842
0.020865
0.0208838
0.020898
0.0209076
0.0209127
0.0209131
0.0209091
0.0209008
0.0208885
0.0208725
0.0208531
0.0208307
0.0208057
0.0207785
0.0207497
0.0207196
0.0206886
0.0206571
0.0206256
0.0205943
0.0205635
0.0205335
0.0205046
0.0204768
0.0204503
0.0204254
0.0204019
0.0203801
0.0203599
0.0203413
0.0203244
0.0203091
0.0202954
0.0202833
0.0202729
0.0202638
0.0202565
0.0202502
0.0202462
0.0202426
0.0202419
0.0202408
0.020244
0.0202449
0.0202525
0.0199311
0.0199103
0.0199052
0.0198924
0.0198885
0.019881
0.0198779
0.0198729
0.01987
0.0198659
0.0198626
0.0198584
0.0198544
0.0198496
0.0198447
0.0198391
0.0198332
0.0198269
0.0198202
0.0198131
0.0198058
0.0197983
0.0197906
0.0197828
0.0197749
0.0197671
0.0197594
0.019752
0.0197448
0.019738
0.0197317
0.0197259
0.0197208
0.0197165
0.019713
0.0197105
0.0197091
0.0197088
0.0197097
0.0197121
0.0197159
0.0197212
0.0197282
0.0197369
0.0197475
0.01976
0.0197745
0.019791
0.0198097
0.0198307
0.0198539
0.0198794
0.0199072
0.0199374
0.0199699
0.0200047
0.0200417
0.0200808
0.0201218
0.0201647
0.0202092
0.0202551
0.0203021
0.0203499
0.0203982
0.0204466
0.0204947
0.020542
0.0205882
0.0206327
0.0206752
0.0207151
0.0207521
0.0207857
0.0208154
0.0208411
0.0208624
0.020879
0.0208909
0.020898
0.0209002
0.0208977
0.0208906
0.0208791
0.0208637
0.0208445
0.0208221
0.0207969
0.0207693
0.0207399
0.0207091
0.0206773
0.020645
0.0206126
0.0205805
0.020549
0.0205182
0.0204886
0.0204603
0.0204334
0.020408
0.0203842
0.0203621
0.0203418
0.0203231
0.0203061
0.0202907
0.0202771
0.020265
0.0202546
0.0202455
0.0202383
0.0202321
0.020228
0.0202245
0.0202239
0.0202228
0.0202261
0.020227
0.0202348
0.0199203
0.0198981
0.0198929
0.0198795
0.0198755
0.0198677
0.0198646
0.0198595
0.0198566
0.0198523
0.0198489
0.0198445
0.0198402
0.0198351
0.0198298
0.0198239
0.0198176
0.0198107
0.0198035
0.0197959
0.0197879
0.0197797
0.0197713
0.0197627
0.019754
0.0197454
0.0197368
0.0197284
0.0197203
0.0197126
0.0197052
0.0196985
0.0196924
0.019687
0.0196825
0.0196789
0.0196763
0.0196749
0.0196748
0.0196759
0.0196785
0.0196826
0.0196884
0.0196958
0.019705
0.0197162
0.0197292
0.0197444
0.0197616
0.0197811
0.0198028
0.0198268
0.0198532
0.0198819
0.019913
0.0199465
0.0199822
0.0200202
0.0200602
0.0201023
0.0201462
0.0201917
0.0202385
0.0202864
0.0203352
0.0203843
0.0204335
0.0204823
0.0205303
0.0205771
0.0206221
0.0206648
0.0207049
0.0207417
0.0207749
0.0208041
0.0208289
0.020849
0.0208642
0.0208744
0.0208795
0.0208794
0.0208745
0.0208648
0.0208507
0.0208325
0.0208107
0.0207858
0.0207581
0.0207284
0.0206971
0.0206646
0.0206316
0.0205984
0.0205654
0.0205331
0.0205016
0.0204713
0.0204423
0.0204149
0.0203891
0.020365
0.0203426
0.0203221
0.0203032
0.0202862
0.0202708
0.0202571
0.020245
0.0202346
0.0202256
0.0202184
0.0202122
0.0202082
0.0202047
0.0202041
0.0202031
0.0202065
0.0202075
0.0202154
0.0199059
0.0198826
0.0198772
0.0198631
0.0198592
0.019851
0.019848
0.0198426
0.0198396
0.0198352
0.0198316
0.019827
0.0198224
0.019817
0.0198114
0.019805
0.0197982
0.0197908
0.0197831
0.0197748
0.0197662
0.0197572
0.019748
0.0197386
0.0197292
0.0197196
0.0197102
0.0197008
0.0196917
0.019683
0.0196747
0.0196669
0.0196597
0.0196532
0.0196476
0.0196429
0.0196392
0.0196366
0.0196352
0.0196351
0.0196364
0.0196391
0.0196434
0.0196493
0.0196569
0.0196663
0.0196776
0.0196909
0.0197062
0.0197236
0.0197432
0.0197651
0.0197892
0.0198157
0.0198444
0.0198756
0.019909
0.0199448
0.0199827
0.0200228
0.0200649
0.0201088
0.0201544
0.0202014
0.0202496
0.0202987
0.0203484
0.0203982
0.0204478
0.0204966
0.0205443
0.0205903
0.020634
0.020675
0.0207127
0.0207467
0.0207764
0.0208015
0.0208216
0.0208366
0.0208461
0.0208503
0.020849
0.0208426
0.0208312
0.0208152
0.020795
0.0207711
0.0207442
0.0207147
0.0206833
0.0206505
0.0206169
0.0205829
0.0205492
0.020516
0.0204837
0.0204527
0.020423
0.020395
0.0203687
0.0203442
0.0203215
0.0203007
0.0202817
0.0202645
0.0202491
0.0202354
0.0202233
0.0202129
0.0202039
0.0201967
0.0201905
0.0201866
0.0201831
0.0201826
0.0201816
0.0201851
0.0201861
0.0201942
0.0198878
0.0198633
0.0198577
0.0198431
0.0198391
0.0198307
0.0198276
0.0198221
0.0198191
0.0198144
0.0198107
0.0198057
0.0198009
0.0197951
0.0197891
0.0197822
0.019775
0.019767
0.0197586
0.0197497
0.0197404
0.0197307
0.0197207
0.0197105
0.0197001
0.0196897
0.0196793
0.019669
0.0196589
0.0196492
0.0196398
0.019631
0.0196227
0.0196152
0.0196084
0.0196025
0.0195976
0.0195937
0.019591
0.0195895
0.0195892
0.0195903
0.0195929
0.0195969
0.0196025
0.0196097
0.0196187
0.0196295
0.0196421
0.0196566
0.0196731
0.0196917
0.0197124
0.0197353
0.0197603
0.0197876
0.0198171
0.0198489
0.0198828
0.019919
0.0199574
0.0199979
0.0200404
0.0200848
0.0201308
0.0201785
0.0202273
0.0202772
0.0203276
0.0203782
0.0204286
0.0204781
0.0205262
0.0205724
0.0206161
0.0206565
0.0206932
0.0207255
0.020753
0.0207752
0.0207918
0.0208027
0.0208077
0.0208068
0.0208004
0.0207886
0.0207718
0.0207506
0.0207257
0.0206975
0.0206668
0.0206342
0.0206005
0.0205661
0.0205318
0.0204978
0.0204648
0.0204329
0.0204025
0.0203739
0.020347
0.020322
0.0202989
0.0202778
0.0202586
0.0202413
0.0202258
0.0202121
0.0201999
0.0201895
0.0201805
0.0201733
0.0201671
0.0201632
0.0201597
0.0201593
0.0201583
0.0201619
0.020163
0.0201713
0.0198656
0.01984
0.0198343
0.0198192
0.0198151
0.0198065
0.0198034
0.0197977
0.0197945
0.0197896
0.0197857
0.0197805
0.0197753
0.0197692
0.0197627
0.0197553
0.0197475
0.019739
0.01973
0.0197204
0.0197103
0.0196998
0.019689
0.019678
0.0196667
0.0196554
0.019644
0.0196327
0.0196217
0.0196109
0.0196005
0.0195905
0.0195812
0.0195725
0.0195645
0.0195574
0.0195512
0.0195459
0.0195416
0.0195385
0.0195364
0.0195356
0.019536
0.0195377
0.0195407
0.019545
0.0195509
0.0195582
0.019567
0.0195774
0.0195895
0.0196032
0.0196187
0.019636
0.0196551
0.0196762
0.0196992
0.0197243
0.0197515
0.0197809
0.0198126
0.0198467
0.0198832
0.0199222
0.0199636
0.0200073
0.0200534
0.0201016
0.0201516
0.0202032
0.0202559
0.0203092
0.0203626
0.0204153
0.0204666
0.0205158
0.0205621
0.0206048
0.0206431
0.0206762
0.0207038
0.0207253
0.0207403
0.0207488
0.0207508
0.0207465
0.0207361
0.0207202
0.0206994
0.0206744
0.020646
0.0206149
0.0205819
0.0205477
0.0205131
0.0204787
0.020445
0.0204123
0.0203812
0.0203517
0.0203242
0.0202986
0.0202751
0.0202536
0.0202341
0.0202166
0.0202008
0.020187
0.0201748
0.0201644
0.0201553
0.0201482
0.020142
0.0201381
0.0201345
0.0201341
0.0201331
0.0201369
0.020138
0.0201465
0.019839
0.0198125
0.0198067
0.019791
0.0197869
0.019778
0.0197749
0.019769
0.0197657
0.0197606
0.0197564
0.0197509
0.0197454
0.0197388
0.0197319
0.019724
0.0197157
0.0197065
0.0196968
0.0196865
0.0196757
0.0196644
0.0196528
0.0196408
0.0196287
0.0196164
0.0196041
0.0195918
0.0195797
0.0195679
0.0195564
0.0195454
0.0195349
0.019525
0.0195158
0.0195073
0.0194996
0.0194927
0.0194867
0.0194816
0.0194774
0.0194741
0.0194718
0.0194704
0.01947
0.0194705
0.019472
0.0194745
0.019478
0.0194824
0.0194879
0.0194945
0.0195021
0.0195109
0.0195209
0.0195322
0.019545
0.0195594
0.0195757
0.019594
0.0196147
0.0196381
0.0196643
0.0196936
0.0197264
0.0197628
0.0198029
0.0198468
0.0198944
0.0199455
0.0199998
0.0200568
0.020116
0.0201767
0.020238
0.0202989
0.0203584
0.0204156
0.0204694
0.0205186
0.0205625
0.0206002
0.0206309
0.0206544
0.0206702
0.0206783
0.020679
0.0206726
0.0206597
0.0206411
0.0206175
0.02059
0.0205594
0.0205267
0.0204928
0.0204584
0.0204244
0.0203911
0.0203592
0.020329
0.0203006
0.0202743
0.0202502
0.0202282
0.0202083
0.0201904
0.0201745
0.0201605
0.0201482
0.0201377
0.0201285
0.0201213
0.020115
0.0201111
0.0201075
0.0201071
0.0201061
0.0201099
0.0201111
0.0201199
0.0198079
0.0197805
0.0197745
0.0197584
0.0197543
0.0197451
0.0197419
0.0197359
0.0197324
0.0197271
0.0197226
0.0197168
0.0197109
0.0197039
0.0196965
0.0196881
0.0196791
0.0196693
0.0196589
0.0196479
0.0196363
0.0196242
0.0196117
0.0195989
0.0195858
0.0195726
0.0195593
0.019546
0.0195329
0.01952
0.0195074
0.0194953
0.0194836
0.0194724
0.0194618
0.0194518
0.0194424
0.0194337
0.0194256
0.0194181
0.0194112
0.0194048
0.0193989
0.0193935
0.0193884
0.0193837
0.0193792
0.019375
0.0193708
0.0193667
0.0193626
0.0193586
0.0193545
0.0193506
0.0193468
0.0193433
0.0193405
0.0193386
0.019338
0.0193391
0.0193426
0.019349
0.0193588
0.0193728
0.0193915
0.0194154
0.0194451
0.0194808
0.0195228
0.0195711
0.0196255
0.0196858
0.0197514
0.0198215
0.0198952
0.0199712
0.0200485
0.0201255
0.0202008
0.0202728
0.0203403
0.0204018
0.0204562
0.0205024
0.0205398
0.020568
0.0205868
0.0205964
0.0205972
0.0205901
0.0205757
0.0205553
0.0205301
0.0205011
0.0204695
0.0204364
0.0204027
0.0203693
0.0203369
0.0203059
0.0202767
0.0202496
0.0202246
0.020202
0.0201815
0.0201632
0.0201469
0.0201326
0.02012
0.0201094
0.0201
0.0200927
0.0200863
0.0200823
0.0200787
0.0200783
0.0200772
0.0200811
0.0200822
0.0200913
0.019772
0.0197437
0.0197376
0.019721
0.0197169
0.0197075
0.0197042
0.019698
0.0196944
0.0196888
0.0196841
0.0196778
0.0196716
0.0196641
0.0196562
0.0196472
0.0196376
0.0196272
0.0196161
0.0196043
0.0195919
0.019579
0.0195656
0.0195519
0.0195379
0.0195237
0.0195094
0.0194951
0.019481
0.019467
0.0194533
0.0194399
0.0194269
0.0194143
0.0194022
0.0193904
0.0193791
0.0193681
0.0193574
0.019347
0.0193366
0.0193262
0.0193156
0.0193047
0.0192934
0.0192814
0.0192686
0.0192548
0.0192398
0.0192234
0.0192055
0.0191861
0.019165
0.0191423
0.0191183
0.0190931
0.0190672
0.0190412
0.0190156
0.0189913
0.0189692
0.0189504
0.0189358
0.0189266
0.0189239
0.0189287
0.0189418
0.0189641
0.0189961
0.0190382
0.0190906
0.019153
0.019225
0.0193058
0.0193944
0.0194895
0.0195894
0.0196924
0.0197965
0.0198998
0.02
0.0200952
0.0201835
0.0202632
0.020333
0.0203917
0.0204387
0.0204737
0.020497
0.0205091
0.0205108
0.0205034
0.0204882
0.0204667
0.0204405
0.0204108
0.0203791
0.0203466
0.0203142
0.0202828
0.0202528
0.0202248
0.0201989
0.0201753
0.020154
0.0201351
0.0201182
0.0201035
0.0200905
0.0200796
0.02007
0.0200625
0.0200559
0.0200518
0.0200479
0.0200474
0.0200463
0.0200502
0.0200514
0.0200607
0.019731
0.0197019
0.0196957
0.0196787
0.0196745
0.0196649
0.0196616
0.0196551
0.0196513
0.0196455
0.0196404
0.0196338
0.0196272
0.0196192
0.0196107
0.0196012
0.019591
0.0195798
0.019568
0.0195555
0.0195423
0.0195285
0.0195143
0.0194996
0.0194847
0.0194695
0.0194542
0.0194389
0.0194236
0.0194085
0.0193936
0.0193789
0.0193645
0.0193503
0.0193364
0.0193226
0.0193089
0.0192952
0.0192812
0.0192669
0.019252
0.0192362
0.0192194
0.0192012
0.0191812
0.0191592
0.0191348
0.0191076
0.0190773
0.0190434
0.0190059
0.0189645
0.018919
0.0188697
0.0188168
0.0187606
0.0187019
0.0186415
0.0185806
0.0185203
0.0184622
0.0184077
0.0183587
0.0183167
0.0182835
0.0182607
0.0182498
0.0182521
0.0182686
0.0183001
0.0183471
0.0184096
0.0184873
0.0185796
0.0186854
0.0188031
0.0189309
0.0190666
0.0192077
0.0193515
0.0194952
0.0196359
0.0197709
0.0198974
0.0200132
0.0201163
0.0202051
0.0202788
0.0203369
0.0203796
0.0204076
0.0204221
0.0204246
0.0204168
0.0204008
0.0203783
0.0203514
0.0203217
0.0202907
0.0202595
0.0202291
0.0202003
0.0201734
0.0201487
0.0201264
0.0201065
0.0200888
0.0200734
0.0200599
0.0200485
0.0200385
0.0200306
0.0200237
0.0200193
0.0200153
0.0200146
0.0200133
0.0200173
0.0200184
0.0200279
0.0196848
0.0196549
0.0196486
0.0196312
0.019627
0.0196172
0.0196138
0.019607
0.0196031
0.0195969
0.0195916
0.0195846
0.0195775
0.019569
0.01956
0.0195498
0.019539
0.0195271
0.0195146
0.0195012
0.0194872
0.0194725
0.0194574
0.0194418
0.0194259
0.0194097
0.0193934
0.019377
0.0193606
0.0193443
0.0193281
0.0193119
0.0192959
0.0192799
0.0192638
0.0192475
0.0192309
0.0192136
0.0191955
0.0191761
0.0191553
0.0191324
0.0191071
0.0190789
0.0190472
0.0190114
0.0189709
0.0189251
0.0188733
0.0188152
0.0187502
0.018678
0.0185987
0.0185124
0.0184194
0.0183206
0.0182169
0.0181097
0.0180007
0.0178918
0.0177851
0.0176829
0.0175876
0.0175018
0.0174278
0.017368
0.0173245
0.0172991
0.0172936
0.0173091
0.0173466
0.0174063
0.0174882
0.0175918
0.017716
0.0178593
0.0180194
0.018194
0.01838
0.018574
0.0187725
0.0189717
0.0191676
0.0193565
0.0195347
0.0196992
0.0198472
0.0199766
0.020086
0.020175
0.0202437
0.0202929
0.0203243
0.0203398
0.0203419
0.0203329
0.0203155
0.0202921
0.0202648
0.0202354
0.0202055
0.0201763
0.0201485
0.0201226
0.0200991
0.020078
0.0200592
0.0200428
0.0200284
0.0200162
0.0200056
0.0199973
0.0199899
0.0199851
0.0199807
0.0199798
0.0199782
0.0199822
0.0199832
0.0199929
0.019633
0.0196024
0.0195961
0.0195784
0.0195741
0.019564
0.0195605
0.0195536
0.0195494
0.0195429
0.0195372
0.0195298
0.0195223
0.0195132
0.0195037
0.0194929
0.0194813
0.0194687
0.0194554
0.0194412
0.0194264
0.0194108
0.0193948
0.0193782
0.0193613
0.0193441
0.0193267
0.0193091
0.0192915
0.0192739
0.0192562
0.0192384
0.0192205
0.0192023
0.0191836
0.0191643
0.0191439
0.0191221
0.0190985
0.0190726
0.0190438
0.0190114
0.0189748
0.018933
0.0188852
0.0188305
0.018768
0.0186966
0.0186155
0.018524
0.0184215
0.0183076
0.0181824
0.0180463
0.0178998
0.0177443
0.0175814
0.017413
0.0172416
0.0170699
0.016901
0.016738
0.0165842
0.0164429
0.0163175
0.0162108