/*--------------------------------*- C++ -*----------------------------------*\
| =========                 |                                                 |
| \\      /  F ield         | OpenFOAM: The Open Source CFD Toolbox           |
|  \\    /   O peration     | Version:  2406                                  |
|   \\  /    A nd           | Website:  www.openfoam.com                      |
|    \\/     M anipulation  |                                                 |
\*---------------------------------------------------------------------------*/
FoamFile
{
    version     2.0;
    format      ascii;
    arch        "LSB;label=32;scalar=64";
    class       volVectorField;
    location    "21.9";
    object      Uold;
}
// * * * * * * * * * * * * * * * * * * * * * * * * * * * * * * * * * * * * * //

dimensions      [0 1 -1 0 0 0 0];

internalField   nonuniform List<vector> 
3600
(
(1.77761e-05 -1.8138e-05 0)
(0.000202998 -8.4763e-05 0)
(0.000508179 -0.000107571 0)
(0.000803718 -0.000102055 0)
(0.00107422 -8.38071e-05 0)
(0.00126832 -6.19808e-05 0)
(0.00140432 -4.11764e-05 0)
(0.00146074 -2.02263e-05 0)
(0.00145045 -2.95573e-07 0)
(0.0013591 2.05188e-05 0)
(0.00119124 4.08425e-05 0)
(0.000937161 6.2073e-05 0)
(0.000596067 8.34925e-05 0)
(0.000159041 0.00010707 0)
(-0.000382067 0.000133352 0)
(-0.00104091 0.000164686 0)
(-0.00183391 0.000201823 0)
(-0.00277874 0.00024614 0)
(-0.00389351 0.000297124 0)
(-0.00519074 0.000354084 0)
(-0.00667709 0.000414372 0)
(-0.00834549 0.000474714 0)
(-0.0101753 0.000529972 0)
(-0.0121248 0.000574285 0)
(-0.0141329 0.00060032 0)
(-0.016114 0.000600456 0)
(-0.0179644 0.000566596 0)
(-0.019562 0.000491757 0)
(-0.0207782 0.000370689 0)
(-0.0214837 0.000201948 0)
(-0.0215645 -1.12756e-05 0)
(-0.0209302 -0.000259703 0)
(-0.0195309 -0.000528321 0)
(-0.0173621 -0.000796693 0)
(-0.0144774 -0.00104113 0)
(-0.0109843 -0.00123687 0)
(-0.00704902 -0.00136159 0)
(-0.00287803 -0.00139862 0)
(0.00128721 -0.00134027 0)
(0.00520451 -0.00119006 0)
(0.00864118 -0.000963167 0)
(0.0114172 -0.000685172 0)
(0.0134061 -0.000387455 0)
(0.0145714 -0.000102565 0)
(0.0149399 0.000142926 0)
(0.0146216 0.00033113 0)
(0.0137519 0.000456512 0)
(0.0125077 0.000522122 0)
(0.0110345 0.000539249 0)
(0.0094851 0.000520188 0)
(0.00794462 0.000479455 0)
(0.00650483 0.000426811 0)
(0.00517899 0.000373154 0)
(0.00401 0.000321795 0)
(0.00296267 0.000279573 0)
(0.00206258 0.000240317 0)
(0.00126828 0.000205121 0)
(0.0006319 0.000149369 0)
(0.000171727 7.5056e-05 0)
(-2.93783e-05 -3.14998e-05 0)
(8.68061e-05 -0.000203693 0)
(0.000486405 -0.000480048 0)
(0.00105731 -0.000562238 0)
(0.00158717 -0.000517399 0)
(0.00204851 -0.000413406 0)
(0.00235446 -0.00028056 0)
(0.00251854 -0.000142049 0)
(0.00249917 7.79071e-06 0)
(0.00230012 0.000162772 0)
(0.00188824 0.000331684 0)
(0.00125298 0.000509277 0)
(0.000365083 0.000701934 0)
(-0.000795236 0.000907336 0)
(-0.00225779 0.0011335 0)
(-0.00405261 0.00138254 0)
(-0.00621436 0.00166228 0)
(-0.00877859 0.00197306 0)
(-0.0117743 0.00231498 0)
(-0.0152208 0.00267848 0)
(-0.0191135 0.00304993 0)
(-0.0234218 0.00340572 0)
(-0.0280745 0.00371735 0)
(-0.032962 0.00394867 0)
(-0.0379287 0.0040616 0)
(-0.0427837 0.00401636 0)
(-0.0473043 0.00377841 0)
(-0.0512556 0.00332068 0)
(-0.0544012 0.00263042 0)
(-0.0565256 0.0017108 0)
(-0.0574435 0.00058504 0)
(-0.0570193 -0.00070499 0)
(-0.0551696 -0.00209826 0)
(-0.0518782 -0.00351917 0)
(-0.0471927 -0.00488005 0)
(-0.0412356 -0.00608857 0)
(-0.0341942 -0.00705303 0)
(-0.0263275 -0.00769243 0)
(-0.0179453 -0.00794407 0)
(-0.00940901 -0.0077744 0)
(-0.0010935 -0.0071854 0)
(0.00661787 -0.00622003 0)
(0.0133884 -0.00496048 0)
(0.0189303 -0.00352038 0)
(0.0230663 -0.00203085 0)
(0.0257088 -0.000620113 0)
(0.0269108 0.000603541 0)
(0.026802 0.00156966 0)
(0.0256249 0.00224788 0)
(0.0236285 0.00264996 0)
(0.0211134 0.00281325 0)
(0.0183041 0.00279537 0)
(0.0154381 0.0026516 0)
(0.0126281 0.00243981 0)
(0.0100123 0.00219542 0)
(0.00759418 0.00195442 0)
(0.0054535 0.00170939 0)
(0.00355022 0.00146352 0)
(0.0019889 0.00114176 0)
(0.000777458 0.000740367 0)
(9.20359e-05 0.000181182 0)
(0.000114869 -0.000518564 0)
(0.000577606 -0.00105399 0)
(0.00119988 -0.00118965 0)
(0.00173147 -0.00105943 0)
(0.00214429 -0.000809714 0)
(0.00234099 -0.000489107 0)
(0.00232534 -0.000144763 0)
(0.00204104 0.000238776 0)
(0.00147135 0.000650831 0)
(0.000562681 0.00111093 0)
(-0.000721239 0.00161073 0)
(-0.00243314 0.00216361 0)
(-0.00462036 0.00276621 0)
(-0.00733671 0.00343319 0)
(-0.0106369 0.00416679 0)
(-0.0145718 0.00497632 0)
(-0.0191854 0.00585331 0)
(-0.0244978 0.00678303 0)
(-0.0305005 0.00772782 0)
(-0.0371362 0.0086373 0)
(-0.044299 0.00944041 0)
(-0.0518209 0.0100576 0)
(-0.0594853 0.0104009 0)
(-0.0670289 0.0103889 0)
(-0.074168 0.00995154 0)
(-0.08061 0.00904282 0)
(-0.0860803 0.00764354 0)
(-0.0903297 0.00576748 0)
(-0.0931523 0.00345821 0)
(-0.0943846 0.000790079 0)
(-0.0939161 -0.00213794 0)
(-0.0916842 -0.00520301 0)
(-0.0876842 -0.0082656 0)
(-0.081964 -0.0111714 0)
(-0.0746368 -0.0137608 0)
(-0.0658749 -0.0158743 0)
(-0.0559236 -0.0173671 0)
(-0.0450869 -0.0181191 0)
(-0.0337373 -0.0180539 0)
(-0.022285 -0.0171497 0)
(-0.0111777 -0.015454 0)
(-0.000846967 -0.0130842 0)
(0.00829663 -0.0102243 0)
(0.0159347 -0.00710442 0)
(0.0218306 -0.00397418 0)
(0.0259002 -0.00106936 0)
(0.0281607 0.00142122 0)
(0.0287867 0.0033755 0)
(0.0280066 0.00475062 0)
(0.0261558 0.00557158 0)
(0.0235295 0.00592013 0)
(0.0204687 0.00590212 0)
(0.0171885 0.00563769 0)
(0.0139344 0.00522229 0)
(0.0107852 0.00474044 0)
(0.00789921 0.00420835 0)
(0.00526517 0.00363189 0)
(0.00305132 0.00290281 0)
(0.00125971 0.00197615 0)
(0.000192148 0.000695701 0)
(0.000115506 -0.000828532 0)
(0.000532033 -0.00157528 0)
(0.00103773 -0.00170683 0)
(0.00138873 -0.00143446 0)
(0.00156239 -0.000988636 0)
(0.00146584 -0.000424234 0)
(0.00108732 0.000194237 0)
(0.000355094 0.000900031 0)
(-0.000777903 0.00168091 0)
(-0.00238987 0.00256979 0)
(-0.00455109 0.00355599 0)
(-0.00734153 0.0046605 0)
(-0.0108415 0.00587804 0)
(-0.0151293 0.00722692 0)
(-0.0202817 0.0087026 0)
(-0.0263547 0.0103039 0)
(-0.0333823 0.011996 0)
(-0.0413468 0.0137274 0)
(-0.0501789 0.0154083 0)
(-0.0597349 0.0169291 0)
(-0.0698104 0.0181561 0)
(-0.0801367 0.0189549 0)
(-0.0904127 0.0191967 0)
(-0.100315 0.0187815 0)
(-0.109534 0.0176412 0)
(-0.117774 0.0157512 0)
(-0.124779 0.013125 0)
(-0.130326 0.00981578 0)
(-0.134231 0.00590752 0)
(-0.136345 0.0015156 0)
(-0.136557 -0.00322076 0)
(-0.134789 -0.00813649 0)
(-0.131006 -0.0130471 0)
(-0.125212 -0.0177471 0)
(-0.117469 -0.02202 0)
(-0.107894 -0.0256413 0)
(-0.0966786 -0.0283966 0)
(-0.0840865 -0.030094 0)
(-0.07047 -0.0305902 0)
(-0.0562489 -0.0298093 0)
(-0.0419162 -0.0277679 0)
(-0.0279867 -0.0245837 0)
(-0.0149882 -0.02048 0)
(-0.00338144 -0.0157643 0)
(0.00644326 -0.0107975 0)
(0.0142506 -0.00594709 0)
(0.0199214 -0.00153947 0)
(0.0235205 0.00217839 0)
(0.0251989 0.00506433 0)
(0.0252571 0.00708236 0)
(0.0239952 0.00829271 0)
(0.0218032 0.00881949 0)
(0.0189679 0.00882663 0)
(0.0158322 0.00847034 0)
(0.0125595 0.00789097 0)
(0.00940272 0.00715103 0)
(0.00640132 0.0062697 0)
(0.00379955 0.00512898 0)
(0.0016134 0.00360939 0)
(0.000265885 0.00143916 0)
(9.91039e-05 -0.00111697 0)
(0.000392673 -0.00199493 0)
(0.000665204 -0.00204548 0)
(0.000709891 -0.0015651 0)
(0.000507512 -0.000863451 0)
(-2.27217e-05 1.25752e-05 0)
(-0.000917673 0.000991411 0)
(-0.00226662 0.00213324 0)
(-0.00415733 0.00342793 0)
(-0.00669607 0.0049241 0)
(-0.00999436 0.00660894 0)
(-0.0141607 0.00851039 0)
(-0.0193103 0.0106183 0)
(-0.0255399 0.0129474 0)
(-0.0329384 0.0154732 0)
(-0.0415462 0.018164 0)
(-0.0513604 0.0209334 0)
(-0.0622942 0.0236653 0)
(-0.074191 0.0261941 0)
(-0.0868061 0.0283376 0)
(-0.099843 0.0299008 0)
(-0.112958 0.0307116 0)
(-0.125808 0.0306283 0)
(-0.13805 0.0295609 0)
(-0.149377 0.0274661 0)
(-0.159509 0.0243525 0)
(-0.16821 0.0202682 0)
(-0.17527 0.0153009 0)
(-0.18052 0.0095673 0)
(-0.183816 0.00321438 0)
(-0.185045 -0.00358757 0)
(-0.184111 -0.0106403 0)
(-0.180953 -0.017723 0)
(-0.175529 -0.0245868 0)
(-0.167843 -0.030963 0)
(-0.157935 -0.0365635 0)
(-0.14592 -0.0410982 0)
(-0.131984 -0.044288 0)
(-0.116419 -0.0458977 0)
(-0.0996163 -0.0457617 0)
(-0.0820852 -0.0438251 0)
(-0.0644137 -0.0401647 0)
(-0.0472562 -0.0350103 0)
(-0.0312449 -0.0287283 0)
(-0.0169609 -0.0217924 0)
(-0.00482512 -0.0147178 0)
(0.00488759 -0.00799712 0)
(0.0121258 -0.00203384 0)
(0.0169638 0.0028961 0)
(0.0196605 0.00666201 0)
(0.020503 0.00926659 0)
(0.0199006 0.0108218 0)
(0.0181822 0.011509 0)
(0.0157611 0.0115346 0)
(0.0128745 0.01109 0)
(0.00986505 0.0102974 0)
(0.00683659 0.0091948 0)
(0.00411623 0.00767274 0)
(0.00176113 0.00551939 0)
(0.000292156 0.00233269 0)
(7.22586e-05 -0.00130129 0)
(0.000180729 -0.00216262 0)
(0.000119739 -0.00202501 0)
(-0.000252124 -0.00126062 0)
(-0.000953307 -0.000239119 0)
(-0.0020483 0.00102112 0)
(-0.00361223 0.00245749 0)
(-0.00575635 0.00416621 0)
(-0.00862019 0.00614274 0)
(-0.0123408 0.0084511 0)
(-0.0170761 0.0110745 0)
(-0.0229608 0.0140434 0)
(-0.0301407 0.0173344 0)
(-0.0387167 0.0209438 0)
(-0.0487676 0.0248049 0)
(-0.0602859 0.0288269 0)
(-0.0731969 0.0328432 0)
(-0.0873124 0.0366511 0)
(-0.102371 0.0400009 0)
(-0.118024 0.0426469 0)
(-0.133901 0.0443563 0)
(-0.149603 0.0449493 0)
(-0.164762 0.0442981 0)
(-0.179029 0.0423423 0)
(-0.192107 0.0390749 0)
(-0.20374 0.0345446 0)
(-0.213727 0.028838 0)
(-0.221903 0.0220795 0)
(-0.22815 0.0144161 0)
(-0.232365 0.00602029 0)
(-0.234474 -0.00291899 0)
(-0.2344 -0.0121884 0)
(-0.232076 -0.0215536 0)
(-0.227426 -0.0307483 0)
(-0.220386 -0.0394775 0)
(-0.210902 -0.0474107 0)
(-0.198962 -0.054195 0)
(-0.184611 -0.0594632 0)
(-0.167999 -0.0628684 0)
(-0.149399 -0.0641151 0)
(-0.129249 -0.0630161 0)
(-0.108141 -0.0595345 0)
(-0.0868247 -0.0538337 0)
(-0.0661216 -0.0462839 0)
(-0.0468695 -0.0374477 0)
(-0.0297724 -0.028003 0)
(-0.0153553 -0.0186527 0)
(-0.00385093 -0.010012 0)
(0.00471856 -0.00254047 0)
(0.0105792 0.00349991 0)
(0.0140258 0.00802636 0)
(0.0154957 0.0111158 0)
(0.0153592 0.0129435 0)
(0.0140861 0.0137492 0)
(0.0119777 0.0137622 0)
(0.00945375 0.0131639 0)
(0.00668832 0.0120132 0)
(0.00408426 0.0102174 0)
(0.00175779 0.00747147 0)
(0.000290072 0.00324808 0)
(3.65713e-05 -0.00138746 0)
(-9.30355e-05 -0.00205884 0)
(-0.000569612 -0.00161081 0)
(-0.00144771 -0.000477161 0)
(-0.00275162 0.000942062 0)
(-0.00453065 0.00268243 0)
(-0.00691377 0.00470803 0)
(-0.0100388 0.00715836 0)
(-0.0141065 0.0100356 0)
(-0.0192836 0.013416 0)
(-0.0257748 0.0172737 0)
(-0.0337314 0.021632 0)
(-0.0433156 0.0264389 0)
(-0.0546054 0.0316473 0)
(-0.0676357 0.0371171 0)
(-0.0823104 0.0426658 0)
(-0.0984474 0.0480209 0)
(-0.115731 0.0528821 0)
(-0.133785 0.0569225 0)
(-0.152157 0.0598522 0)
(-0.170404 0.0614258 0)
(-0.18808 0.0614795 0)
(-0.204799 0.0599205 0)
(-0.220223 0.0567393 0)
(-0.234102 0.0519865 0)
(-0.246248 0.0457709 0)
(-0.256552 0.038234 0)
(-0.26495 0.0295457 0)
(-0.271425 0.0198847 0)
(-0.275968 0.00944061 0)
(-0.278578 -0.00159483 0)
(-0.279229 -0.0130166 0)
(-0.277872 -0.0246065 0)
(-0.274416 -0.0361153 0)
(-0.268736 -0.0472593 0)
(-0.260674 -0.0577035 0)
(-0.250065 -0.0670652 0)
(-0.23676 -0.0749117 0)
(-0.220681 -0.0807876 0)
(-0.201864 -0.0842438 0)
(-0.180535 -0.0849032 0)
(-0.15714 -0.0825242 0)
(-0.132395 -0.0770884 0)
(-0.107238 -0.0688531 0)
(-0.0827761 -0.0583837 0)
(-0.0601053 -0.0464969 0)
(-0.0401765 -0.0341539 0)
(-0.0235874 -0.0222825 0)
(-0.0105814 -0.0116363 0)
(-0.00100801 -0.00268927 0)
(0.00546047 0.00434748 0)
(0.00933509 0.00950258 0)
(0.0110701 0.0129401 0)
(0.0112111 0.0149303 0)
(0.0101335 0.0157351 0)
(0.00832726 0.0155926 0)
(0.00604059 0.0145826 0)
(0.00374107 0.0126338 0)
(0.00161173 0.00936248 0)
(0.000259199 0.00413555 0)
(-1.09854e-05 -0.00130495 0)
(-0.000437738 -0.00156051 0)
(-0.00141547 -0.000659705 0)
(-0.00289192 0.000939702 0)
(-0.00490697 0.0028493 0)
(-0.00749873 0.00518936 0)
(-0.0108663 0.00796858 0)
(-0.0151772 0.011373 0)
(-0.020699 0.0154085 0)
(-0.0276224 0.0201548 0)
(-0.0361917 0.0255658 0)
(-0.0465551 0.0316394 0)
(-0.0588645 0.0382689 0)
(-0.0731333 0.0453284 0)
(-0.0893065 0.0525683 0)
(-0.107151 0.0596839 0)
(-0.12634 0.0662825 0)
(-0.146405 0.0719698 0)
(-0.166838 0.0763596 0)
(-0.187082 0.0791446 0)
(-0.206629 0.0800987 0)
(-0.225008 0.0791105 0)
(-0.241869 0.0761639 0)
(-0.256948 0.0713402 0)
(-0.270113 0.0647823 0)
(-0.281314 0.0566831 0)
(-0.290594 0.0472498 0)
(-0.298034 0.0366967 0)
(-0.303752 0.0252227 0)
(-0.307852 0.0130159 0)
(-0.310428 0.000245702 0)
(-0.311524 -0.0129209 0)
(-0.311133 -0.026317 0)
(-0.309175 -0.0397511 0)
(-0.305499 -0.0529981 0)
(-0.299869 -0.0657717 0)
(-0.291991 -0.0777159 0)
(-0.281514 -0.0883871 0)
(-0.268096 -0.0972643 0)
(-0.251444 -0.103763 0)
(-0.23142 -0.107295 0)
(-0.20812 -0.107337 0)
(-0.181983 -0.103551 0)
(-0.153827 -0.0958946 0)
(-0.124866 -0.0847356 0)
(-0.0965583 -0.070873 0)
(-0.0704223 -0.055479 0)
(-0.0477007 -0.0398807 0)
(-0.0291671 -0.0253081 0)
(-0.0149662 -0.0126371 0)
(-0.00481122 -0.00233304 0)
(0.00191237 0.00553648 0)
(0.0058165 0.0111235 0)
(0.00758472 0.0147441 0)
(0.00771111 0.0167051 0)
(0.00677277 0.0173072 0)
(0.00510354 0.0166582 0)
(0.00322768 0.0147108 0)
(0.00139735 0.0110282 0)
(0.000218652 0.00490611 0)
(-7.09605e-05 -0.00105129 0)
(-0.000853039 -0.000644254 0)
(-0.00241265 0.000860925 0)
(-0.00457271 0.0030313 0)
(-0.00740294 0.0055434 0)
(-0.0109366 0.00863504 0)
(-0.0154582 0.0123746 0)
(-0.021164 0.0169914 0)
(-0.0283878 0.0224864 0)
(-0.0373295 0.0289274 0)
(-0.0482555 0.0362298 0)
(-0.0612778 0.0443361 0)
(-0.0764958 0.0530471 0)
(-0.0938044 0.0621145 0)
(-0.113005 0.0711412 0)
(-0.133678 0.0796767 0)
(-0.155319 0.0872054 0)
(-0.177283 0.0932539 0)
(-0.198935 0.0974078 0)
(-0.219635 0.0993864 0)
(-0.238865 0.0990384 0)
(-0.256215 0.0963656 0)
(-0.271455 0.0914833 0)
(-0.284486 0.0846054 0)
(-0.295362 0.07599 0)
(-0.304215 0.0659193 0)
(-0.311257 0.0546583 0)
(-0.316713 0.0424495 0)
(-0.320821 0.029492 0)
(-0.323784 0.0159524 0)
(-0.325775 0.0019588 0)
(-0.326902 -0.0123788 0)
(-0.327215 -0.0269648 0)
(-0.326673 -0.0416907 0)
(-0.325154 -0.0564241 0)
(-0.322415 -0.0709742 0)
(-0.318114 -0.0850747 0)
(-0.311783 -0.0983482 0)
(-0.302874 -0.110294 0)
(-0.290783 -0.120276 0)
(-0.274954 -0.12755 0)
(-0.254973 -0.131319 0)
(-0.230744 -0.13085 0)
(-0.202615 -0.125625 0)
(-0.17152 -0.115539 0)
(-0.138963 -0.101055 0)
(-0.106904 -0.0832899 0)
(-0.0773796 -0.0638782 0)
(-0.0520894 -0.0446675 0)
(-0.0319424 -0.027239 0)
(-0.0170171 -0.0126115 0)
(-0.00669947 -0.00112275 0)
(-0.000169069 0.00732181 0)
(0.00348972 0.0131086 0)
(0.00497588 0.0166287 0)
(0.00500686 0.018276 0)
(0.00403235 0.0182107 0)
(0.00264109 0.0164231 0)
(0.00115598 0.0124565 0)
(0.000175068 0.00556795 0)
(-0.000148623 -0.000549037 0)
(-0.00135444 0.00081414 0)
(-0.0035839 0.00308962 0)
(-0.00651877 0.00594916 0)
(-0.0102756 0.00919993 0)
(-0.0148889 0.0132296 0)
(-0.0207398 0.0181747 0)
(-0.0280457 0.0242954 0)
(-0.0371971 0.0315707 0)
(-0.0483789 0.0400317 0)
(-0.0618494 0.049525 0)
(-0.0776369 0.0598951 0)
(-0.0957329 0.0708027 0)
(-0.11585 0.0818301 0)
(-0.137591 0.092402 0)
(-0.160309 0.101913 0)
(-0.183301 0.109742 0)
(-0.205761 0.115375 0)
(-0.226978 0.118435 0)
(-0.24632 0.118749 0)
(-0.263378 0.116321 0)
(-0.277916 0.111337 0)
(-0.289927 0.104086 0)
(-0.299536 0.0949305 0)
(-0.307008 0.0842347 0)
(-0.312645 0.072346 0)
(-0.316794 0.0595557 0)
(-0.319771 0.0461025 0)
(-0.321878 0.0321592 0)
(-0.323356 0.0178514 0)
(-0.324413 0.00325433 0)
(-0.325187 -0.0115832 0)
(-0.325772 -0.0266374 0)
(-0.326184 -0.0418843 0)
(-0.326367 -0.0572914 0)
(-0.326157 -0.0727858 0)
(-0.325277 -0.0882331 0)
(-0.323287 -0.103393 0)
(-0.319599 -0.117889 0)
(-0.313454 -0.131158 0)
(-0.303986 -0.142443 0)
(-0.290299 -0.150794 0)
(-0.271641 -0.155143 0)
(-0.247601 -0.154445 0)
(-0.218371 -0.147911 0)
(-0.18493 -0.135288 0)
(-0.149139 -0.117145 0)
(-0.113539 -0.0949855 0)
(-0.0808831 -0.0711032 0)
(-0.0533834 -0.0480053 0)
(-0.0321475 -0.0277404 0)
(-0.0170008 -0.0113527 0)
(-0.00702477 0.000978491 0)
(-0.000999838 0.00968467 0)
(0.00209632 0.0152935 0)
(0.00321756 0.0183562 0)
(0.00299001 0.0191369 0)
(0.00209877 0.0176961 0)
(0.000948807 0.0135983 0)
(0.000143088 0.00609857 0)
(-0.000243038 0.000215321 0)
(-0.00193644 0.0028444 0)
(-0.004916 0.00605942 0)
(-0.00870769 0.00973396 0)
(-0.0134943 0.0138809 0)
(-0.0193154 0.0190646 0)
(-0.0266539 0.0254886 0)
(-0.0357317 0.033421 0)
(-0.0469767 0.0427934 0)
(-0.0605226 0.0535647 0)
(-0.0765755 0.0654705 0)
(-0.0950195 0.0782029 0)
(-0.115675 0.0912281 0)
(-0.138013 0.103917 0)
(-0.161395 0.115501 0)
(-0.184937 0.125236 0)
(-0.207773 0.132447 0)
(-0.229018 0.136668 0)
(-0.248016 0.137665 0)
(-0.264288 0.135473 0)
(-0.277673 0.130334 0)
(-0.288207 0.122651 0)
(-0.296151 0.112892 0)
(-0.301853 0.101533 0)
(-0.305746 0.0890016 0)
(-0.308231 0.0756563 0)
(-0.309707 0.0617674 0)
(-0.310491 0.0475333 0)
(-0.310866 0.0330768 0)
(-0.311038 0.0184731 0)
(-0.311187 0.00374858 0)
(-0.311434 -0.0110945 0)
(-0.311885 -0.026081 0)
(-0.312593 -0.041243 0)
(-0.313587 -0.0566205 0)
(-0.314817 -0.0722379 0)
(-0.316158 -0.08809 0)
(-0.317341 -0.104103 0)
(-0.317932 -0.120091 0)
(-0.317263 -0.135694 0)
(-0.314433 -0.150319 0)
(-0.308313 -0.163083 0)
(-0.297656 -0.172806 0)
(-0.281277 -0.178079 0)
(-0.258359 -0.177446 0)
(-0.228807 -0.16972 0)
(-0.193602 -0.154423 0)
(-0.154962 -0.132211 0)
(-0.116157 -0.105133 0)
(-0.0807822 -0.0763419 0)
(-0.0516896 -0.0492599 0)
(-0.0300379 -0.0263553 0)
(-0.0153286 -0.00866291 0)
(-0.00612442 0.00407272 0)
(-0.000972689 0.0125284 0)
(0.00144954 0.017505 0)
(0.00204259 0.0194591 0)
(0.00165484 0.018587 0)
(0.000800954 0.0145251 0)
(0.000126544 0.00655601 0)
(-0.000359185 0.0013261 0)
(-0.00260962 0.0055713 0)
(-0.00641956 0.00990511 0)
(-0.0111485 0.0145346 0)
(-0.0170634 0.019761 0)
(-0.0242083 0.0263423 0)
(-0.0331623 0.0345356 0)
(-0.0441262 0.0445802 0)
(-0.0575348 0.0563241 0)
(-0.0734244 0.069605 0)
(-0.0918948 0.0839929 0)
(-0.112621 0.0989654 0)
(-0.135196 0.113747 0)
(-0.158806 0.127475 0)
(-0.182578 0.139207 0)
(-0.205438 0.148127 0)
(-0.226473 0.153616 0)
(-0.244878 0.155389 0)
(-0.260219 0.153477 0)
(-0.27232 0.148208 0)
(-0.281351 0.140092 0)
(-0.287642 0.129734 0)
(-0.291693 0.117719 0)
(-0.293994 0.104572 0)
(-0.295049 0.0907064 0)
(-0.295253 0.0764314 0)
(-0.294958 0.0619491 0)
(-0.2944 0.0473882 0)
(-0.293774 0.0328099 0)
(-0.2932 0.0182405 0)
(-0.292787 0.00367152 0)
(-0.292607 -0.0109188 0)
(-0.292742 -0.0255727 0)
(-0.293258 -0.0403405 0)
(-0.294233 -0.0552893 0)
(-0.295717 -0.0704919 0)
(-0.297741 -0.0860255 0)
(-0.300248 -0.101947 0)
(-0.303069 -0.118262 0)
(-0.305823 -0.134861 0)
(-0.30787 -0.151443 0)
(-0.308218 -0.167411 0)
(-0.305536 -0.181777 0)
(-0.298212 -0.193114 0)
(-0.28459 -0.199609 0)
(-0.263339 -0.199277 0)
(-0.233977 -0.190406 0)
(-0.197405 -0.172182 0)
(-0.156243 -0.145399 0)
(-0.114614 -0.112822 0)
(-0.0771404 -0.0788371 0)
(-0.0472824 -0.0479052 0)
(-0.0260973 -0.0229483 0)
(-0.0124577 -0.00457536 0)
(-0.00449499 0.0078607 0)
(-0.000383179 0.0154915 0)
(0.00118644 0.0190854 0)
(0.00133104 0.0190815 0)
(0.000729829 0.0152576 0)
(0.00013068 0.00696106 0)
(-0.000492246 0.00279718 0)
(-0.00335296 0.00901283 0)
(-0.0080528 0.0146402 0)
(-0.0137765 0.020367 0)
(-0.020891 0.0268667 0)
(-0.0294369 0.0350922 0)
(-0.0400755 0.0453275 0)
(-0.0529509 0.0577353 0)
(-0.0684657 0.0720344 0)
(-0.0865037 0.0878828 0)
(-0.107001 0.104624 0)
(-0.129367 0.121463 0)
(-0.152934 0.137354 0)
(-0.176615 0.151219 0)
(-0.199369 0.162018 0)
(-0.220067 0.168991 0)
(-0.237924 0.171731 0)
(-0.252395 0.170271 0)
(-0.263412 0.164997 0)
(-0.271161 0.156552 0)
(-0.276143 0.14567 0)
(-0.27891 0.133077 0)
(-0.28009 0.119385 0)
(-0.280194 0.105072 0)
(-0.279677 0.0904658 0)
(-0.278834 0.0757761 0)
(-0.277895 0.0611109 0)
(-0.276967 0.0465225 0)
(-0.276138 0.0320173 0)
(-0.275427 0.0175889 0)
(-0.274873 0.0032149 0)
(-0.274491 -0.0111267 0)
(-0.274333 -0.0254683 0)
(-0.274451 -0.0398473 0)
(-0.274939 -0.0543189 0)
(-0.275894 -0.0689555 0)
(-0.277443 -0.083855 0)
(-0.279686 -0.0991355 0)
(-0.282687 -0.114921 0)
(-0.286389 -0.131308 0)
(-0.290541 -0.148291 0)
(-0.294571 -0.16566 0)
(-0.297489 -0.182855 0)
(-0.297806 -0.198809 0)
(-0.293588 -0.211838 0)
(-0.282681 -0.21966 0)
(-0.263178 -0.21965 0)
(-0.234128 -0.20942 0)
(-0.196317 -0.187762 0)
(-0.152835 -0.155663 0)
(-0.108847 -0.116995 0)
(-0.0701301 -0.0777053 0)
(-0.040637 -0.0435612 0)
(-0.0208819 -0.0174241 0)
(-0.00898265 0.000627851 0)
(-0.00254326 0.0120089 0)
(0.000300876 0.0179238 0)
(0.00107791 0.0192069 0)
(0.000717675 0.0158726 0)
(0.000151769 0.00738001 0)
(-0.000644951 0.00470765 0)
(-0.00416501 0.0132757 0)
(-0.00980155 0.0203761 0)
(-0.0165618 0.0273526 0)
(-0.0249204 0.0353312 0)
(-0.0348991 0.0454453 0)
(-0.0472146 0.0579633 0)
(-0.061914 0.0729111 0)
(-0.0793227 0.0898228 0)
(-0.0991197 0.108109 0)
(-0.12103 0.12683 0)
(-0.14417 0.144882 0)
(-0.167626 0.160969 0)
(-0.190113 0.173872 0)
(-0.210562 0.182598 0)
(-0.227969 0.186614 0)
(-0.241858 0.185882 0)
(-0.252071 0.180847 0)
(-0.258948 0.172259 0)
(-0.263005 0.161015 0)
(-0.264967 0.147973 0)
(-0.265478 0.133861 0)
(-0.265151 0.119211 0)
(-0.264397 0.104379 0)
(-0.263534 0.0895584 0)
(-0.262702 0.0748421 0)
(-0.261991 0.0602474 0)
(-0.261387 0.0457663 0)
(-0.260884 0.0313731 0)
(-0.260433 0.0170504 0)
(-0.260023 0.00278151 0)
(-0.259634 -0.0114398 0)
(-0.259293 -0.0256221 0)
(-0.259033 -0.0397755 0)
(-0.258941 -0.0539244 0)
(-0.259117 -0.0681136 0)
(-0.259713 -0.0824189 0)
(-0.260896 -0.0969571 0)
(-0.26286 -0.111886 0)
(-0.265761 -0.127403 0)
(-0.269682 -0.143698 0)
(-0.274501 -0.160893 0)
(-0.279767 -0.178889 0)
(-0.28452 -0.197193 0)
(-0.287173 -0.214665 0)
(-0.2855 -0.229344 0)
(-0.276854 -0.238406 0)
(-0.258741 -0.238451 0)
(-0.229706 -0.226306 0)
(-0.190472 -0.200304 0)
(-0.144749 -0.16192 0)
(-0.0990038 -0.116561 0)
(-0.0602381 -0.0723951 0)
(-0.0324678 -0.0361306 0)
(-0.0151326 -0.0102474 0)
(-0.00543379 0.00645721 0)
(-0.000820822 0.0156901 0)
(0.00080081 0.0188646 0)
(0.000731859 0.0163612 0)
(0.000185494 0.00782796 0)
(-0.000806248 0.00705196 0)
(-0.00500217 0.018337 0)
(-0.0115843 0.0270746 0)
(-0.0193813 0.0354416 0)
(-0.0289764 0.0450857 0)
(-0.0403494 0.0572857 0)
(-0.0542402 0.0722424 0)
(-0.0705554 0.0897798 0)
(-0.0894991 0.10919 0)
(-0.110503 0.129576 0)
(-0.133058 0.149674 0)
(-0.156002 0.168077 0)
(-0.178252 0.183312 0)
(-0.198458 0.194165 0)
(-0.215699 0.199869 0)
(-0.229267 0.200284 0)
(-0.239111 0.195842 0)
(-0.245483 0.187406 0)
(-0.249077 0.176018 0)
(-0.250611 0.162705 0)
(-0.250885 0.14831 0)
(-0.25048 0.133448 0)
(-0.249882 0.118491 0)
(-0.249324 0.103631 0)
(-0.248958 0.0889232 0)
(-0.24877 0.0743583 0)
(-0.248737 0.0598927 0)
(-0.248764 0.0454889 0)
(-0.248794 0.0311162 0)
(-0.248744 0.0167668 0)
(-0.248588 0.002443 0)
(-0.24829 -0.011838 0)
(-0.247867 -0.0260572 0)
(-0.247336 -0.040196 0)
(-0.246767 -0.0542452 0)
(-0.246239 -0.0682142 0)
(-0.245889 -0.0821384 0)
(-0.245877 -0.0960992 0)
(-0.246427 -0.110227 0)
(-0.247784 -0.12473 0)
(-0.25021 -0.139869 0)
(-0.253903 -0.155954 0)
(-0.258884 -0.173233 0)
(-0.264816 -0.19175 0)
(-0.270787 -0.211069 0)
(-0.275122 -0.22997 0)
(-0.275301 -0.246149 0)
(-0.268212 -0.256123 0)
(-0.250762 -0.25559 0)
(-0.221085 -0.240452 0)
(-0.179964 -0.208741 0)
(-0.13208 -0.162792 0)
(-0.0854777 -0.110534 0)
(-0.0482925 -0.0625326 0)
(-0.0237253 -0.0261243 0)
(-0.00955556 -0.00196171 0)
(-0.00245753 0.0119847 0)
(0.000361292 0.0179074 0)
(0.000719053 0.0167059 0)
(0.000222276 0.00833169 0)
(-0.000975414 0.00988311 0)
(-0.0058491 0.0242586 0)
(-0.013361 0.0347955 0)
(-0.0221653 0.0446919 0)
(-0.0329415 0.0561727 0)
(-0.0456001 0.070612 0)
(-0.0608654 0.088081 0)
(-0.0784666 0.108131 0)
(-0.0984536 0.129756 0)
(-0.119992 0.151704 0)
(-0.142356 0.172387 0)
(-0.164168 0.190158 0)
(-0.184298 0.203501 0)
(-0.201493 0.211387 0)
(-0.215137 0.213457 0)
(-0.224923 0.210075 0)
(-0.231242 0.202155 0)
(-0.234685 0.190896 0)
(-0.236161 0.177496 0)
(-0.23643 0.162957 0)
(-0.236217 0.147986 0)
(-0.235936 0.133001 0)
(-0.235882 0.118182 0)
(-0.2361 0.103559 0)
(-0.236596 0.0890801 0)
(-0.237247 0.0746734 0)
(-0.237969 0.0602722 0)
(-0.23863 0.0458393 0)
(-0.239163 0.0313602 0)
(-0.239484 0.016848 0)
(-0.23957 0.00232932 0)
(-0.239387 -0.0121564 0)
(-0.238954 -0.0265667 0)
(-0.238277 -0.040861 0)
(-0.237412 -0.0550037 0)
(-0.23641 -0.0689756 0)
(-0.235374 -0.0827726 0)
(-0.234424 -0.0964316 0)
(-0.233745 -0.110028 0)
(-0.233571 -0.123721 0)
(-0.234208 -0.137747 0)
(-0.235994 -0.152461 0)
(-0.239245 -0.168278 0)
(-0.244118 -0.185615 0)
(-0.25038 -0.204644 0)
(-0.257156 -0.224994 0)
(-0.262626 -0.245285 0)
(-0.263976 -0.262749 0)
(-0.257561 -0.273073 0)
(-0.239795 -0.270847 0)
(-0.208487 -0.251064 0)
(-0.164899 -0.211671 0)
(-0.115092 -0.156937 0)
(-0.0691089 -0.0981726 0)
(-0.0355267 -0.0487249 0)
(-0.0154154 -0.0143474 0)
(-0.00490472 0.00617631 0)
(-0.000384284 0.0160281 0)
(0.000626421 0.0167834 0)
(0.000254599 0.00886186 0)
(-0.00113458 0.0131525 0)
(-0.00664075 0.0309474 0)
(-0.0150158 0.0434178 0)
(-0.0247433 0.0549482 0)
(-0.0365793 0.0683767 0)
(-0.0503358 0.0851097 0)
(-0.0666863 0.105029 0)
(-0.0851551 0.127353 0)
(-0.105621 0.150739 0)
(-0.126997 0.173561 0)
(-0.14839 0.193957 0)
(-0.168312 0.210147 0)
(-0.185729 0.220747 0)
(-0.199625 0.225093 0)
(-0.209791 0.22336 0)
(-0.216335 0.21644 0)
(-0.220015 0.205655 0)
(-0.221623 0.192393 0)
(-0.222123 0.177844 0)
(-0.222173 0.162854 0)
(-0.222322 0.147905 0)
(-0.222769 0.133192 0)
(-0.223624 0.118715 0)
(-0.224781 0.104385 0)
(-0.226152 0.0900891 0)
(-0.227561 0.0757363 0)
(-0.228909 0.0612693 0)
(-0.230062 0.046672 0)
(-0.230968 0.0319573 0)
(-0.231554 0.0171627 0)
(-0.231815 0.00233921 0)
(-0.231722 -0.0124553 0)
(-0.231303 -0.0271602 0)
(-0.230561 -0.0417212 0)
(-0.229546 -0.0560851 0)
(-0.228288 -0.0702163 0)
(-0.22686 -0.0840828 0)
(-0.225334 -0.0976873 0)
(-0.223838 -0.11105 0)
(-0.222539 -0.124264 0)
(-0.221691 -0.137487 0)
(-0.221631 -0.151019 0)
(-0.222772 -0.165278 0)
(-0.225546 -0.18084 0)
(-0.230224 -0.198269 0)
(-0.236685 -0.21791 0)
(-0.244008 -0.239389 0)
(-0.250213 -0.261069 0)
(-0.252024 -0.279498 0)
(-0.24532 -0.289242 0)
(-0.225984 -0.283631 0)
(-0.191924 -0.256733 0)
(-0.145307 -0.207345 0)
(-0.0944165 -0.142888 0)
(-0.0512746 -0.0798005 0)
(-0.0234409 -0.0320245 0)
(-0.00844445 -0.00249926 0)
(-0.00156834 0.0128353 0)
(0.000406853 0.0164393 0)
(0.000274457 0.00938884 0)
(-0.00128073 0.0168666 0)
(-0.00735449 0.0384004 0)
(-0.0164962 0.0529313 0)
(-0.0270283 0.0661841 0)
(-0.0397513 0.0816313 0)
(-0.0543541 0.100645 0)
(-0.0714292 0.122859 0)
(-0.0902882 0.147105 0)
(-0.110646 0.171684 0)
(-0.131205 0.194622 0)
(-0.150989 0.21387 0)
(-0.168521 0.227668 0)
(-0.182985 0.234947 0)
(-0.1937 0.235544 0)
(-0.20088 0.230218 0)
(-0.204982 0.220332 0)
(-0.207001 0.207471 0)
(-0.207777 0.193044 0)
(-0.208186 0.178091 0)
(-0.208693 0.163207 0)
(-0.209637 0.148626 0)
(-0.211016 0.134336 0)
(-0.212799 0.120209 0)
(-0.214788 0.10609 0)
(-0.216861 0.0918507 0)
(-0.218832 0.0774145 0)
(-0.220615 0.0627529 0)
(-0.222094 0.0478784 0)
(-0.223238 0.0328333 0)
(-0.223988 0.0176776 0)
(-0.224354 0.00248331 0)
(-0.224317 -0.0126777 0)
(-0.223911 -0.0277308 0)
(-0.223145 -0.0426138 0)
(-0.222066 -0.0572633 0)
(-0.220696 -0.071638 0)
(-0.219092 -0.085691 0)
(-0.217293 -0.0994084 0)
(-0.215378 -0.112771 0)
(-0.21344 -0.125821 0)
(-0.211646 -0.138625 0)
(-0.210246 -0.151389 0)
(-0.209606 -0.164424 0)
(-0.210217 -0.178284 0)
(-0.212597 -0.193665 0)
(-0.217159 -0.211359 0)
(-0.223802 -0.231827 0)
(-0.231571 -0.254652 0)
(-0.2381 -0.27772 0)
(-0.239669 -0.296556 0)
(-0.231467 -0.304289 0)
(-0.209195 -0.292688 0)
(-0.171138 -0.255518 0)
(-0.121467 -0.193547 0)
(-0.0712408 -0.120259 0)
(-0.0340652 -0.0566809 0)
(-0.0133001 -0.014968 0)
(-0.00331612 0.00779289 0)
(2.87729e-05 0.0154349 0)
(0.000275984 0.00984359 0)
(-0.00139197 0.0209172 0)
(-0.0079159 0.0464375 0)
(-0.0176762 0.0631161 0)
(-0.0288422 0.0781233 0)
(-0.0422244 0.0955698 0)
(-0.0573705 0.116731 0)
(-0.0747734 0.140952 0)
(-0.0935417 0.16665 0)
(-0.113254 0.191787 0)
(-0.132468 0.214093 0)
(-0.15022 0.231463 0)
(-0.165152 0.242314 0)
(-0.176755 0.246035 0)
(-0.184707 0.243042 0)
(-0.189595 0.234645 0)
(-0.192114 0.222549 0)
(-0.193346 0.208433 0)
(-0.194048 0.193576 0)
(-0.194922 0.178766 0)
(-0.196206 0.164317 0)
(-0.19805 0.150236 0)
(-0.200302 0.136356 0)
(-0.202854 0.122481 0)
(-0.205472 0.108436 0)
(-0.208038 0.0941166 0)
(-0.210383 0.0794741 0)
(-0.212446 0.0645152 0)
(-0.214128 0.0492805 0)
(-0.215418 0.0338384 0)
(-0.216266 0.0182674 0)
(-0.216691 0.00265796 0)
(-0.216681 -0.0129065 0)
(-0.216276 -0.0283382 0)
(-0.215488 -0.0435699 0)
(-0.214371 -0.0585303 0)
(-0.212949 -0.0731791 0)
(-0.211276 -0.0874635 0)
(-0.209375 -0.101369 0)
(-0.207298 -0.114858 0)
(-0.205086 -0.127944 0)
(-0.202827 -0.140628 0)
(-0.200665 -0.153022 0)
(-0.19885 -0.165301 0)
(-0.197791 -0.17789 0)
(-0.198024 -0.191411 0)
(-0.20021 -0.206804 0)
(-0.204802 -0.225032 0)
(-0.211769 -0.2467 0)
(-0.219857 -0.271152 0)
(-0.22634 -0.295475 0)
(-0.22669 -0.313747 0)
(-0.215669 -0.317097 0)
(-0.188816 -0.295934 0)
(-0.145948 -0.244443 0)
(-0.0940247 -0.168599 0)
(-0.0478989 -0.0898976 0)
(-0.0195744 -0.0323775 0)
(-0.00578397 0.000325593 0)
(-0.00053053 0.0134867 0)
(0.000252935 0.0101639 0)
(-0.00146696 0.0252574 0)
(-0.00830892 0.0549911 0)
(-0.0185162 0.0738989 0)
(-0.0301204 0.0906726 0)
(-0.0439023 0.110057 0)
(-0.0592632 0.133182 0)
(-0.076589 0.159073 0)
(-0.0948166 0.185726 0)
(-0.113431 0.210798 0)
(-0.130927 0.231819 0)
(-0.146438 0.24676 0)
(-0.15881 0.254362 0)
(-0.167871 0.254577 0)
(-0.173631 0.248396 0)
(-0.176955 0.237588 0)
(-0.17864 0.224038 0)
(-0.179734 0.209364 0)
(-0.180824 0.194599 0)
(-0.182405 0.180239 0)
(-0.184513 0.166336 0)
(-0.187156 0.152721 0)
(-0.190097 0.139138 0)
(-0.193204 0.125372 0)
(-0.196247 0.111267 0)
(-0.199135 0.0967526 0)
(-0.20172 0.0818147 0)
(-0.203966 0.0664913 0)
(-0.205786 0.0508448 0)