/*--------------------------------*- C++ -*----------------------------------*\
| =========                 |                                                 |
| \\      /  F ield         | OpenFOAM: The Open Source CFD Toolbox           |
|  \\    /   O peration     | Version:  2406                                  |
|   \\  /    A nd           | Website:  www.openfoam.com                      |
|    \\/     M anipulation  |                                                 |
\*---------------------------------------------------------------------------*/
FoamFile
{
    version     2.0;
    format      ascii;
    arch        "LSB;label=32;scalar=64";
    class       volVectorField;
    location    "38.6";
    object      Uc;
}
// * * * * * * * * * * * * * * * * * * * * * * * * * * * * * * * * * * * * * //

dimensions      [0 1 -1 0 0 0 0];

internalField   nonuniform List<vector> 
900
(
(0.000286302 -0.000502098 0)
(0.00341446 -0.00120024 0)
(0.00697935 -0.000965111 0)
(0.00848544 -0.000561288 0)
(0.00899185 -0.000508903 0)
(0.00888918 -0.000799706 0)
(0.00885245 -0.00120647 0)
(0.00869267 -0.00167228 0)
(0.00765868 -0.00307613 0)
(0.00317324 -0.00488797 0)
(-0.00715385 -0.00312792 0)
(-0.0246127 0.00343311 0)
(-0.0481902 0.00995512 0)
(-0.073261 0.0125633 0)
(-0.0953842 0.0119319 0)
(-0.112268 0.00967734 0)
(-0.122579 0.00648406 0)
(-0.125456 0.00273755 0)
(-0.120588 -0.00131915 0)
(-0.107586 -0.00543626 0)
(-0.0871301 -0.00925203 0)
(-0.0596483 -0.012171 0)
(-0.0283131 -0.0133633 0)
(0.00426259 -0.0117965 0)
(0.030255 -0.00632715 0)
(0.0441216 0.00123175 0)
(0.040232 0.00716006 0)
(0.0260629 0.00740537 0)
(0.0122845 0.00494709 0)
(0.00153492 0.00188955 0)
(0.00114242 -0.00319183 0)
(0.0065495 -0.00564965 0)
(0.0117959 -0.004112 0)
(0.0134937 -0.00149106 0)
(0.0127942 0.000140294 0)
(0.00957889 0.000946618 0)
(0.00330503 0.00143245 0)
(-0.00959901 0.00284188 0)
(-0.0324921 0.00873177 0)
(-0.0653119 0.020198 0)
(-0.103244 0.0315313 0)
(-0.13905 0.0379627 0)
(-0.168562 0.0386463 0)
(-0.191167 0.0343392 0)
(-0.207224 0.0267757 0)
(-0.216647 0.0172443 0)
(-0.219281 0.00645706 0)
(-0.21495 -0.00511102 0)
(-0.203523 -0.0170949 0)
(-0.18477 -0.0290294 0)
(-0.1589 -0.039981 0)
(-0.126165 -0.0485676 0)
(-0.0882321 -0.0523183 0)
(-0.0474669 -0.0485848 0)
(-0.00904824 -0.0340535 0)
(0.0206971 -0.0114812 0)
(0.0329493 0.0113235 0)
(0.0275617 0.0202683 0)
(0.0160266 0.0199059 0)
(0.00236391 0.011861 0)
(0.00195902 -0.00810087 0)
(0.0078401 -0.0119464 0)
(0.0117894 -0.00787403 0)
(0.0106766 -0.00161393 0)
(0.00526153 0.00338682 0)
(-0.00656868 0.00859177 0)
(-0.0283568 0.0178928 0)
(-0.0627789 0.0340655 0)
(-0.106174 0.0521982 0)
(-0.14911 0.064663 0)
(-0.185545 0.069244 0)
(-0.214188 0.0675971 0)
(-0.235455 0.0608166 0)
(-0.250404 0.0498434 0)
(-0.260017 0.0360997 0)
(-0.264745 0.0205198 0)
(-0.264896 0.00368333 0)
(-0.260412 -0.0141586 0)
(-0.251126 -0.0326782 0)
(-0.236558 -0.0515423 0)
(-0.216211 -0.0694501 0)
(-0.189501 -0.0848116 0)
(-0.156019 -0.0936195 0)
(-0.116565 -0.0922766 0)
(-0.0724178 -0.0742321 0)
(-0.029776 -0.0403495 0)
(0.0027935 0.00107857 0)
(0.0108122 0.0237958 0)
(0.00887773 0.0300027 0)
(0.000228196 0.0196629 0)
(0.0024931 -0.0128977 0)
(0.00660204 -0.0155586 0)
(0.00601166 -0.00684198 0)
(-0.00160515 0.00510711 0)
(-0.0172476 0.0174846 0)
(-0.0444318 0.0346008 0)
(-0.0839881 0.0574701 0)
(-0.129453 0.0799182 0)
(-0.171327 0.0941481 0)
(-0.205172 0.0988255 0)
(-0.231139 0.0958452 0)
(-0.24984 0.0871035 0)
(-0.262413 0.0741645 0)
(-0.270282 0.0583302 0)
(-0.27464 0.0406603 0)
(-0.276196 0.0216819 0)
(-0.275429 0.00164797 0)
(-0.27242 -0.0195622 0)
(-0.267107 -0.0418417 0)
(-0.258969 -0.0653099 0)
(-0.247278 -0.088719 0)
(-0.230713 -0.110986 0)
(-0.207485 -0.127336 0)
(-0.175999 -0.134033 0)
(-0.134048 -0.121026 0)
(-0.0845594 -0.0862899 0)
(-0.0318162 -0.0277697 0)
(-0.00190607 0.0142329 0)
(0.00323821 0.0309329 0)
(-0.00147477 0.0209621 0)
(0.00222436 -0.0171749 0)
(0.00198491 -0.0155473 0)
(-0.00593078 0.00041451 0)
(-0.0230956 0.0216539 0)
(-0.0511841 0.0461023 0)
(-0.0902547 0.0748563 0)
(-0.134242 0.102114 0)
(-0.174192 0.120425 0)
(-0.205391 0.126684 0)
(-0.227885 0.123187 0)
(-0.242916 0.112895 0)
(-0.251825 0.0981825 0)
(-0.256434 0.0808055 0)
(-0.25806 0.0618048 0)
(-0.257978 0.0419222 0)
(-0.256794 0.0213117 0)
(-0.25514 1.11706e-05 0)
(-0.253117 -0.0224383 0)
(-0.250993 -0.0461004 0)
(-0.248383 -0.0716702 0)
(-0.244996 -0.0982115 0)
(-0.23929 -0.125734 0)
(-0.229295 -0.149689 0)
(-0.211419 -0.167344 0)
(-0.181123 -0.166658 0)
(-0.135622 -0.142877 0)
(-0.074457 -0.08131 0)
(-0.0147435 -0.0115197 0)
(0.00305735 0.0297674 0)
(-0.00158387 0.0211723 0)
(0.000403306 -0.0170053 0)
(-0.00691949 -0.00725203 0)
(-0.0238227 0.0185157 0)
(-0.0502267 0.050507 0)
(-0.0861459 0.084449 0)
(-0.126831 0.117118 0)
(-0.164732 0.140531 0)
(-0.193683 0.150094 0)
(-0.213027 0.147132 0)
(-0.224531 0.136044 0)
(-0.229945 0.119797 0)
(-0.231188 0.100919 0)
(-0.229995 0.0809079 0)
(-0.227514 0.0605317 0)
(-0.224763 0.0401751 0)
(-0.222052 0.0196569 0)
(-0.219882 -0.00113051 0)
(-0.21818 -0.0228885 0)
(-0.217436 -0.0456815 0)
(-0.217403 -0.0706854 0)
(-0.218611 -0.0972289 0)
(-0.219968 -0.126729 0)
(-0.220709 -0.155555 0)
(-0.216889 -0.18332 0)
(-0.203547 -0.19805 0)
(-0.173724 -0.194243 0)
(-0.120875 -0.149116 0)
(-0.0480958 -0.064026 0)
(0.00639449 0.018226 0)
(-0.00210517 0.0224107 0)
(-0.00232729 -0.0108095 0)
(-0.0171479 0.00870219 0)
(-0.0417072 0.043671 0)
(-0.0733362 0.0837418 0)
(-0.110338 0.122055 0)
(-0.145962 0.152499 0)
(-0.174229 0.167989 0)
(-0.192153 0.168039 0)
(-0.20177 0.157198 0)
(-0.205132 0.140147 0)
(-0.204431 0.119895 0)
(-0.201621 0.0987912 0)
(-0.198118 0.0778267 0)
(-0.194664 0.0573359 0)
(-0.191816 0.0373122 0)
(-0.189451 0.0172826 0)
(-0.187822 -0.0028792 0)
(-0.186543 -0.0239583 0)
(-0.186153 -0.045732 0)
(-0.186256 -0.069524 0)
(-0.187984 -0.0944088 0)
(-0.190602 -0.122845 0)
(-0.195122 -0.151932 0)
(-0.198606 -0.184491 0)
(-0.19832 -0.210307 0)
(-0.186383 -0.22703 0)
(-0.15219 -0.207835 0)
(-0.0934729 -0.14167 0)
(-0.00566907 -0.0149548 0)
(0.00365262 0.0248927 0)
(-0.00514328 0.00227562 0)
(-0.0261234 0.0322192 0)
(-0.0552604 0.0745015 0)
(-0.0877928 0.118751 0)
(-0.121521 0.156256 0)
(-0.149487 0.18022 0)
(-0.168277 0.186169 0)
(-0.177484 0.177559 0)
(-0.180321 0.160417 0)
(-0.178778 0.139308 0)
(-0.175268 0.117029 0)
(-0.171312 0.0954033 0)
(-0.167848 0.0747554 0)
(-0.165137 0.05498 0)
(-0.163332 0.0357223 0)
(-0.162025 0.016325 0)
(-0.161366 -0.00328434 0)
(-0.160763 -0.0239498 0)
(-0.160844 -0.0451198 0)
(-0.160897 -0.0682353 0)
(-0.162365 -0.0918255 0)
(-0.164236 -0.118916 0)
(-0.168724 -0.146388 0)
(-0.173467 -0.17959 0)
(-0.178896 -0.209963 0)
(-0.177799 -0.240606 0)
(-0.162356 -0.244274 0)
(-0.12335 -0.211562 0)
(-0.0435137 -0.0795685 0)
(0.0182233 0.0205277 0)
(-0.0067742 0.0197903 0)
(-0.0310568 0.0584324 0)
(-0.0614264 0.104501 0)
(-0.0918138 0.149113 0)
(-0.12038 0.18267 0)
(-0.140807 0.198536 0)
(-0.152224 0.19571 0)
(-0.155621 0.180287 0)
(-0.154695 0.158968 0)
(-0.151051 0.135737 0)
(-0.147136 0.113115 0)
(-0.143663 0.0920355 0)
(-0.141288 0.0723096 0)
(-0.139752 0.053407 0)
(-0.139103 0.0348361 0)
(-0.138712 0.0158501 0)
(-0.138839 -0.00345651 0)
(-0.138677 -0.0239797 0)
(-0.139065 -0.0448 0)
(-0.138887 -0.0675302 0)
(-0.13994 -0.0900804 0)
(-0.140626 -0.115997 0)
(-0.14408 -0.141463 0)
(-0.147759 -0.173742 0)
(-0.15477 -0.204946 0)
(-0.158575 -0.2433 0)
(-0.155663 -0.264103 0)
(-0.131866 -0.260548 0)
(-0.0784051 -0.161761 0)
(0.0111498 0.00135763 0)
(-0.00719793 0.0393998 0)
(-0.0321383 0.0864041 0)
(-0.0613655 0.134243 0)
(-0.0880396 0.1768 0)
(-0.111023 0.204354 0)
(-0.125076 0.211785 0)
(-0.131261 0.201178 0)
(-0.131286 0.180637 0)
(-0.128671 0.15659 0)
(-0.124688 0.13254 0)
(-0.121448 0.110381 0)
(-0.118994 0.0902119 0)
(-0.117823 0.0714703 0)
(-0.117324 0.0533131 0)
(-0.117652 0.035262 0)
(-0.118013 0.0164918 0)
(-0.118897 -0.00270686 0)
(-0.11924 -0.0233616 0)
(-0.120171 -0.0441918 0)
(-0.120054 -0.0670629 0)
(-0.121073 -0.0891753 0)
(-0.120768 -0.114501 0)
(-0.123034 -0.138052 0)
(-0.124547 -0.168492 0)
(-0.130866 -0.197755 0)
(-0.135946 -0.239219 0)
(-0.140546 -0.270893 0)
(-0.129422 -0.289996 0)
(-0.0936614 -0.225047 0)
(-0.0201526 -0.0451151 0)
(-0.00638306 0.0581799 0)
(-0.0296419 0.111788 0)
(-0.0557516 0.159102 0)
(-0.0779254 0.19773 0)
(-0.0957718 0.218909 0)
(-0.105064 0.218677 0)
(-0.108196 0.202245 0)
(-0.106717 0.178297 0)
(-0.103892 0.153007 0)
(-0.100483 0.129123 0)
(-0.098288 0.107967 0)
(-0.0968138 0.0888693 0)
(-0.0966019 0.0711132 0)
(-0.0967738 0.0536086 0)
(-0.0977451 0.0360204 0)
(-0.0985219 0.0174248 0)
(-0.0999319 -0.00164913 0)
(-0.100576 -0.0224312 0)
(-0.102022 -0.0432794 0)
(-0.102045 -0.0664491 0)
(-0.103427 -0.0884818 0)
(-0.102696 -0.113946 0)
(-0.104515 -0.136526 0)
(-0.104042 -0.165738 0)
(-0.108675 -0.192061 0)
(-0.111807 -0.233074 0)
(-0.119378 -0.269738 0)
(-0.115627 -0.30813 0)
(-0.0920709 -0.27258 0)
(-0.0358056 -0.113952 0)
(-0.00477856 0.0746844 0)
(-0.0247556 0.135062 0)
(-0.0469115 0.181371 0)
(-0.0646095 0.216031 0)
(-0.0780323 0.231058 0)
(-0.0839786 0.224517 0)
(-0.0853335 0.203465 0)
(-0.0833986 0.177152 0)
(-0.0809293 0.151128 0)
(-0.0783382 0.12763 0)
(-0.0770403 0.107326 0)
(-0.0762913 0.0890318 0)
(-0.0767132 0.0719657 0)
(-0.0772807 0.0548587 0)
(-0.0786992 0.037567 0)
(-0.0797418 0.0190153 0)
(-0.0816174 -9.83477e-06 0)
(-0.08249 -0.0210116 0)
(-0.0844602 -0.0419457 0)
(-0.0845984 -0.0655208 0)
(-0.0864833 -0.0875796 0)
(-0.0855608 -0.11343 0)
(-0.0875923 -0.135545 0)
(-0.0859451 -0.164392 0)
(-0.0896496 -0.188512 0)
(-0.0901834 -0.228182 0)
(-0.0979103 -0.265781 0)
(-0.0965164 -0.317479 0)
(-0.0815095 -0.308203 0)
(-0.0336298 -0.176919 0)
(-0.00258485 0.0869976 0)
(-0.0182237 0.153105 0)
(-0.0356994 0.197846 0)
(-0.0490697 0.2281 0)
(-0.0588359 0.237969 0)
(-0.0625497 0.226304 0)
(-0.06325 0.202221 0)
(-0.0615509 0.174515 0)
(-0.059843 0.148495 0)
(-0.0580613 0.125674 0)
(-0.0574837 0.10632 0)
(-0.0571841 0.0888345 0)
(-0.0579954 0.0724834 0)
(-0.0587299 0.0558311 0)
(-0.0604417 0.0389441 0)
(-0.0615873 0.0205482 0)
(-0.063836 0.00169708 0)
(-0.0648067 -0.0194429 0)
(-0.0672693 -0.040397 0)
(-0.0674544 -0.0643923 0)
(-0.069931 -0.0865445 0)
(-0.0688837 -0.112964 0)
(-0.0714886 -0.134947 0)
(-0.0690748 -0.163909 0)
(-0.0726321 -0.186346 0)
(-0.0709641 -0.224659 0)
(-0.0787907 -0.261689 0)
(-0.0784938 -0.323973 0)
(-0.0706039 -0.33772 0)
(-0.0300664 -0.232807 0)
(-0.000243939 0.0950672 0)
(-0.0109055 0.167552 0)
(-0.0236936 0.211387 0)
(-0.0331498 0.23871 0)
(-0.0398495 0.244542 0)
(-0.0421227 0.229544 0)
(-0.0425205 0.203243 0)
(-0.0412531 0.174553 0)
(-0.040173 0.148352 0)
(-0.0389975 0.125854 0)
(-0.038867 0.107005 0)
(-0.0387973 0.0899582 0)
(-0.0398199 0.0740408 0)
(-0.0405739 0.057632 0)
(-0.0424913 0.0410208 0)
(-0.0436293 0.0226696 0)
(-0.0462123 0.00393353 0)
(-0.0471846 -0.0174133 0)
(-0.0501453 -0.0384077 0)
(-0.050316 -0.0628423 0)
(-0.0534951 -0.0850723 0)
(-0.0523827 -0.112061 0)
(-0.055951 -0.134087 0)
(-0.0532274 -0.163615 0)
(-0.057464 -0.185147 0)
(-0.0540774 -0.222177 0)
(-0.0618344 -0.256495 0)
(-0.0612443 -0.324999 0)
(-0.0597722 -0.357943 0)
(-0.0259505 -0.280461 0)
(0.00220243 0.0977767 0)
(-0.00328083 0.175854 0)
(-0.0112104 0.219359 0)
(-0.0170742 0.243772 0)
(-0.0212378 0.246951 0)
(-0.0225069 0.229428 0)
(-0.023043 0.201928 0)
(-0.0223555 0.172689 0)
(-0.0220084 0.146686 0)
(-0.0213104 0.124657 0)
(-0.0215023 0.106439 0)
(-0.0214471 0.0899468 0)
(-0.0225213 0.0746089 0)
(-0.0230962 0.0586158 0)
(-0.0250898 0.0424715 0)
(-0.0260396 0.024347 0)
(-0.0288671 0.00590906 0)
(-0.0296907 -0.0154943 0)
(-0.0331331 -0.0363903 0)
(-0.0331936 -0.0611509 0)
(-0.0371721 -0.0833724 0)
(-0.0359648 -0.110802 0)
(-0.0407323 -0.132781 0)
(-0.0379145 -0.162876 0)
(-0.0436159 -0.183974 0)
(-0.0394419 -0.220645 0)
(-0.0481603 -0.252647 0)
(-0.0471019 -0.325409 0)
(-0.0510134 -0.373379 0)
(-0.0222568 -0.320745 0)
(0.00433059 0.0960004 0)
(0.00421697 0.18042 0)
(0.000887772 0.224693 0)
(-0.0016611 0.248492 0)
(-0.00346563 0.250215 0)
(-0.00396221 0.232032 0)
(-0.00448537 0.20389 0)
(-0.00428255 0.174269 0)
(-0.00439697 0.147999 0)
(-0.00397228 0.125854 0)
(-0.00429957 0.107706 0)
(-0.00410949 0.0913201 0)
(-0.00514844 0.0762654 0)
(-0.00542132 0.0604556 0)
(-0.00743716 0.0446447 0)
(-0.00805615 0.026622 0)
(-0.0110954 0.00842807 0)
(-0.0116472 -0.0130749 0)
(-0.0156303 -0.0338605 0)
(-0.0155339 -0.0588958 0)
(-0.0205104 -0.0810547 0)
(-0.0192773 -0.108823 0)
(-0.0255541 -0.130705 0)
(-0.0228013 -0.161302 0)
(-0.0304382 -0.182048 0)
(-0.0258547 -0.218251 0)
(-0.0362059 -0.247021 0)
(-0.0345691 -0.321817 0)
(-0.0438441 -0.382464 0)
(-0.0191185 -0.355334 0)
(0.00621813 0.0890512 0)
(0.011194 0.178587 0)
(0.0125345 0.224769 0)
(0.0130726 0.247725 0)
(0.0133224 0.249387 0)
(0.013603 0.230852 0)
(0.0129188 0.202794 0)
(0.0126912 0.173005 0)
(0.0120147 0.146775 0)
(0.0122485 0.124725 0)
(0.0118138 0.106877 0)
(0.0123259 0.0908304 0)
(0.0114658 0.0762834 0)
(0.0117558 0.0608871 0)
(0.00988798 0.0456337 0)
(0.00985728 0.0279503 0)
(0.00671627 0.0102492 0)
(0.00663794 -0.0110811 0)
(0.00210027 -0.0314997 0)
(0.00245388 -0.0565198 0)
(-0.00367338 -0.0783789 0)
(-0.00244155 -0.106212 0)
(-0.01051 -0.127784 0)
(-0.00797742 -0.158682 0)
(-0.0180834 -0.179264 0)
(-0.0135967 -0.215676 0)
(-0.0264323 -0.242034 0)
(-0.0241814 -0.317769 0)
(-0.0384075 -0.388005 0)
(-0.016333 -0.384966 0)
(0.00730696 0.0785708 0)
(0.0174096 0.173526 0)
(0.0231357 0.222522 0)
(0.0268075 0.247511 0)
(0.029369 0.249995 0)
(0.0306156 0.233069 0)
(0.0302651 0.205609 0)
(0.0298347 0.175871 0)
(0.028871 0.149175 0)
(0.0290431 0.126508 0)
(0.0285808 0.108265 0)
(0.0295044 0.0919422 0)
(0.0288326 0.0775079 0)
(0.0297923 0.0622015 0)
(0.0280597 0.0473489 0)
(0.0287477 0.0298802 0)
(0.025457 0.012654 0)
(0.0259798 -0.00847633 0)
(0.0207679 -0.0284449 0)
(0.0214196 -0.0533086 0)
(0.0139176 -0.0747218 0)
(0.0150784 -0.102434 0)
(0.00491916 -0.123553 0)
(0.00715892 -0.154493 0)
(-0.00575695 -0.174666 0)
(-0.00151038 -0.210926 0)
(-0.0175643 -0.234501 0)
(-0.0148018 -0.310257 0)
(-0.0343073 -0.389076 0)
(-0.0138553 -0.41109 0)
(0.00767323 0.064204 0)
(0.0222222 0.161917 0)
(0.032504 0.214992 0)
(0.0392288 0.241006 0)
(0.0438906 0.245709 0)
(0.0463809 0.230208 0)
(0.0462946 0.2041 0)
(0.0459078 0.174696 0)
(0.0445807 0.147987 0)
(0.0448027 0.125073 0)
(0.0442737 0.106759 0)
(0.0457839 0.0904849 0)
(0.0453882 0.0764244 0)
(0.0472951 0.0615013 0)
(0.0458313 0.0472952 0)
(0.0475349 0.0303474 0)
(0.044172 0.0138839 0)
(0.0455219 -0.00666073 0)
(0.0396117 -0.0258021 0)
(0.0406642 -0.0500694 0)
(0.0316582 -0.0706556 0)
(0.0327445 -0.0978501 0)
(0.0202618 -0.118254 0)
(0.0221389 -0.148952 0)
(0.00606816 -0.168747 0)
(0.00993763 -0.205125 0)
(-0.0099167 -0.226664 0)
(-0.00648109 -0.301887 0)
(-0.0313856 -0.387361 0)
(-0.0113855 -0.434061 0)
(0.00645816 0.0487603 0)
(0.025401 0.148079 0)
(0.0399482 0.205283 0)
(0.0501633 0.235892 0)
(0.0576571 0.24312 0)
(0.0619644 0.231174 0)
(0.0630661 0.206903 0)
(0.0631759 0.178231 0)
(0.0618605 0.151126 0)
(0.0622258 0.127225 0)
(0.0615793 0.108056 0)
(0.0636304 0.0910192 0)
(0.0633497 0.0768093 0)
(0.0662091 0.0618176 0)
(0.0648433 0.0480728 0)
(0.0676178 0.0315101 0)
(0.0639962 0.0158484 0)
(0.0662287 -0.0040403 0)
(0.059437 -0.0221717 0)
(0.0609357 -0.0456482 0)
(0.050237 -0.0651847 0)
(0.0512761 -0.0916275 0)
(0.0362525 -0.111137 0)
(0.0378014 -0.141296 0)
(0.0182881 -0.160422 0)
(0.0217697 -0.196417 0)
(-0.00257082 -0.215798 0)
(0.00151702 -0.290132 0)
(-0.0294298 -0.382172 0)
(-0.00881102 -0.45479 0)
(0.00407576 0.0323058 0)
(0.0259609 0.127482 0)
(0.0450698 0.189829 0)
(0.0587077 0.222603 0)
(0.0686853 0.233952 0)
(0.0752457 0.224795 0)
(0.0775216 0.203395 0)
(0.0787567 0.176069 0)
(0.0776192 0.149452 0)
(0.0785225 0.125318 0)
(0.0777591 0.105815 0)
(0.0805645 0.0884878 0)
(0.0803348 0.0743856 0)
(0.0843757 0.0596812 0)
(0.0830722 0.0466135 0)
(0.0871644 0.0308107 0)
(0.0832703 0.0162462 0)
(0.0865914 -0.00255224 0)
(0.0789021 -0.0192803 0)
(0.0810141 -0.0414688 0)
(0.0685903 -0.0595367 0)
(0.0697242 -0.0847513 0)
(0.0520829 -0.103064 0)
(0.0533993 -0.132292 0)
(0.0302421 -0.150652 0)
(0.0333973 -0.186134 0)
(0.00411073 -0.203948 0)
(0.00915739 -0.277006 0)
(-0.0283586 -0.374603 0)
(-0.00584469 -0.473366 0)
(0.000566564 0.019105 0)
(0.0240486 0.106604 0)
(0.0470786 0.172367 0)
(0.0647252 0.211993 0)
(0.0784678 0.226762 0)
(0.0881715 0.222642 0)
(0.0930773 0.204196 0)
(0.0962406 0.178674 0)
(0.0959962 0.152365 0)
(0.0977061 0.127438 0)
(0.0968007 0.106995 0)
(0.100207 0.0885368 0)
(0.0996473 0.0740021 0)
(0.104645 0.058999 0)
(0.103001 0.0464214 0)
(0.10827 0.0311283 0)
(0.103778 0.0177631 0)
(0.108157 5.12076e-05 0)
(0.0993246 -0.015031 0)
(0.102147 -0.0357846 0)
(0.0878477 -0.0521221 0)
(0.0892896 -0.0758939 0)
(0.0689178 -0.0927831 0)
(0.0701982 -0.120741 0)
(0.0431348 -0.138007 0)
(0.0459936 -0.172341 0)
(0.0110772 -0.188627 0)
(0.0171786 -0.260194 0)
(-0.027908 -0.364058 0)
(-0.00223111 -0.49024 0)
(-0.00121225 0.00782392 0)
(0.0195631 0.0798987 0)
(0.0459311 0.148792 0)
(0.0667796 0.190187 0)
(0.0830843 0.210414 0)
(0.0963434 0.209758 0)
(0.103776 0.195767 0)
(0.110126 0.173099 0)
(0.111483 0.148648 0)
(0.115208 0.124372 0)
(0.114585 0.103982 0)
(0.119256 0.0852844 0)
(0.118258 0.070655 0)
(0.124484 0.0558199 0)
(0.122188 0.0438344 0)
(0.128809 0.0294415 0)
(0.123457 0.0174048 0)
(0.129125 0.00122049 0)
(0.119039 -0.012011 0)
(0.122907 -0.030853 0)
(0.106776 -0.0452022 0)
(0.108904 -0.0670356 0)
(0.0858468 -0.0821994 0)
(0.087312 -0.108306 0)
(0.0561749 -0.124191 0)
(0.058783 -0.156819 0)
(0.0177915 -0.172108 0)
(0.0252801 -0.241592 0)
(-0.0281352 -0.351448 0)
(0.0023727 -0.505184 0)
(-0.00193741 0.00133481 0)
(0.0136929 0.0592268 0)
(0.0405399 0.125222 0)
(0.0647935 0.174639 0)
(0.0855972 0.197253 0)
(0.103344 0.201955 0)
(0.115141 0.191095 0)
(0.125646 0.171232 0)
(0.129737 0.148432 0)
(0.136187 0.124555 0)
(0.136332 0.104201 0)
(0.142472 0.0848466 0)
(0.14094 0.0700423 0)
(0.148161 0.0548422 0)
(0.144814 0.0434491 0)
(0.152463 0.0295019 0)
(0.145835 0.0189614 0)
(0.152642 0.00400071 0)
(0.140989 -0.00709365 0)
(0.145995 -0.024171 0)
(0.127792 -0.0361595 0)
(0.130848 -0.0559585 0)
(0.104809 -0.0688821 0)
(0.106686 -0.0926757 0)
(0.0710431 -0.106577 0)
(0.0735028 -0.136692 0)
(0.0257785 -0.151171 0)
(0.0350538 -0.218308 0)
(-0.0279412 -0.335999 0)
(0.00867521 -0.517999 0)
(0.00111941 -0.00393619 0)
(0.00915254 0.0362834 0)
(0.0317921 0.0974888 0)
(0.0569327 0.143763 0)
(0.0783373 0.171635 0)
(0.101026 0.179134 0)
(0.116679 0.173707 0)
(0.133408 0.157974 0)
(0.141435 0.138859 0)
(0.153023 0.117423 0)
(0.155086 0.0986249 0)
(0.164648 0.080183 0)
(0.162966 0.0659134 0)
(0.17241 0.051275 0)
(0.167673 0.04053 0)
(0.177092 0.0276261 0)
(0.168528 0.0183407 0)
(0.177063 0.0051501 0)
(0.16323 -0.00409119 0)
(0.169976 -0.0187936 0)
(0.149301 -0.0285885 0)
(0.153873 -0.0456312 0)
(0.124638 -0.0562738 0)
(0.127334 -0.0769464 0)
(0.0869354 -0.0886897 0)
(0.0892803 -0.11551 0)
(0.0345582 -0.130043 0)
(0.0456763 -0.19375 0)
(-0.0271814 -0.318971 0)
(0.0173332 -0.527403 0)
(-0.000399224 -0.00873229 0)
(0.00261359 0.0294316 0)
(0.0179863 0.0778164 0)
(0.0433558 0.128684 0)
(0.0692826 0.15309 0)
(0.0969753 0.163324 0)
(0.118223 0.15907 0)
(0.141355 0.146144 0)
(0.154178 0.129909 0)
(0.171579 0.110729 0)
(0.176426 0.0940462 0)
(0.190127 0.07675 0)
(0.189139 0.0638604 0)
(0.201162 0.049772 0)
(0.195627 0.0404204 0)
(0.206726 0.0281376 0)
(0.196526 0.0207755 0)
(0.206449 0.00863548 0)
(0.190467 0.00198147 0)
(0.19861 -0.0111378 0)
(0.175146 -0.0177805 0)
(0.18107 -0.0325888 0)
(0.147823 -0.0396129 0)
(0.151583 -0.0569831 0)
(0.105268 -0.0649721 0)
(0.108928 -0.0877381 0)
(0.0467257 -0.102098 0)
(0.0623606 -0.161967 0)
(-0.0205879 -0.29814 0)
(0.0306978 -0.531215 0)
(0.00478915 -0.00584756 0)
(0.00493318 0.0167806 0)
(-0.000323457 0.0570418 0)
(0.0206613 0.0908424 0)
(0.0415965 0.11766 0)
(0.0762464 0.128192 0)
(0.101807 0.129115 0)
(0.134539 0.120554 0)
(0.152745 0.109148 0)
(0.179097 0.094209 0)
(0.18752 0.0810412 0)
(0.208357 0.0666226 0)
(0.208404 0.0559648 0)
(0.225805 0.043865 0)
(0.219014 0.036077 0)
(0.234392 0.0256936 0)
(0.221212 0.0197812 0)
(0.235035 0.0100369 0)
(0.214862 0.00500173 0)
(0.227012 -0.00490071 0)
(0.198489 -0.00967287 0)
(0.208717 -0.0202768 0)
(0.169833 -0.025238 0)
(0.178291 -0.0375114 0)
(0.126239 -0.0440221 0)
(0.135093 -0.062305 0)
(0.0667073 -0.0795676 0)
(0.0863094 -0.134688 0)
(-0.00515395 -0.276842 0)
(0.0506499 -0.522267 0)
(-0.0235831 -0.0202941 0)
(-0.0232706 0.037578 0)
(-0.0175421 0.0627023 0)
(-0.0064312 0.0892296 0)
(0.0220935 0.0974254 0)
(0.0598986 0.102694 0)
(0.0907547 0.100505 0)
(0.1304 0.0938871 0)
(0.153292 0.0859435 0)
(0.186804 0.0749069 0)
(0.198529 0.0660904 0)
(0.225483 0.0551263 0)
(0.226921 0.0480782 0)
(0.249206 0.0384997 0)
(0.241965 0.033698 0)
(0.261408 0.0251824 0)
(0.246327 0.0221859 0)
(0.264092 0.013998 0)
(0.240955 0.0123182 0)
(0.257755 0.00385607 0)
(0.225378 0.00323056 0)
(0.241962 -0.00591624 0)
(0.198107 -0.00577432 0)
(0.215868 -0.0162304 0)
(0.156928 -0.0169533 0)
(0.179073 -0.032088 0)
(0.101149 -0.0451008 0)
(0.137316 -0.0939695 0)
(0.0446372 -0.240054 0)
(0.088471 -0.489641 0)
(-0.0864328 0.0454529 0)
(-0.0875017 0.00872651 0)
(-0.116199 0.0416956 0)
(-0.0710244 0.047434 0)
(-0.049415 0.0501621 0)
(0.00607525 0.0560386 0)
(0.0381699 0.0575623 0)
(0.091209 0.0552495 0)
(0.11593 0.0525167 0)
(0.162914 0.046915 0)
(0.175066 0.042772 0)
(0.216522 0.0365541 0)
(0.216297 0.0329649 0)
(0.254447 0.0272648 0)
(0.243126 0.0247556 0)
(0.280409 0.019755 0)
(0.258632 0.0180987 0)
(0.297154 0.0137219 0)
(0.264579 0.0124615 0)
(0.306205 0.00877006 0)
(0.261671 0.00735181 0)
(0.308327 0.00461262 0)
(0.250123 0.00217784 0)
(0.303956 0.000245908 0)
(0.230196 -0.00562022 0)
(0.293143 -0.0119221 0)
(0.202489 -0.0340486 0)
(0.272573 -0.082427 0)
(0.156683 -0.21005 0)
(0.148713 -0.4046 0)
(0.0819418 0.134265 0)
(0.120626 0.0751571 0)
(0.155385 0.049298 0)
(0.209083 0.0280019 0)
(0.226839 0.0203879 0)
(0.276804 0.0145803 0)
(0.293331 0.0141291 0)
(0.347132 0.0137691 0)
(0.359493 0.013949 0)
(0.413352 0.0137181 0)
(0.418008 0.0132524 0)
(0.469821 0.0124828 0)
(0.465321 0.011618 0)
(0.515233 0.010619 0)
(0.501625 0.00966023 0)
(0.550769 0.00866234 0)
(0.52845 0.00776777 0)
(0.578058 0.00680908 0)
(0.547272 0.00609976 0)
(0.598393 0.0050323 0)
(0.559149 0.00473484 0)
(0.61264 0.00310796 0)
(0.564639 0.00369486 0)
(0.621056 0.00030393 0)
(0.562662 0.00240691 0)
(0.620708 -0.00652907 0)
(0.541879 -0.0043425 0)
(0.585435 -0.0344515 0)
(0.420024 -0.0525882 0)
(0.307126 -0.177531 0)
)
;

boundaryField
{
    movingWall
    {
        type            fixedValue;
        value           uniform (1 0 0);
    }
    fixedWalls
    {
        type            noSlip;
    }
    frontAndBack
    {
        type            empty;
    }
}


// ************************************************************************* //
