/*--------------------------------*- C++ -*----------------------------------*\
| =========                 |                                                 |
| \\      /  F ield         | OpenFOAM: The Open Source CFD Toolbox           |
|  \\    /   O peration     | Version:  2406                                  |
|   \\  /    A nd           | Website:  www.openfoam.com                      |
|    \\/     M anipulation  |                                                 |
\*---------------------------------------------------------------------------*/
FoamFile
{
    version     2.0;
    format      ascii;
    arch        "LSB;label=32;scalar=64";
    class       volScalarField;
    location    "27.05";
    object      p;
}
// * * * * * * * * * * * * * * * * * * * * * * * * * * * * * * * * * * * * * //

dimensions      [0 2 -2 0 0 0 0];

internalField   nonuniform List<scalar> 
14400
(
0.0381908
0.0382001
0.0382066
0.038214
0.0382132
0.0382082
0.0381942
0.0381746
0.0381474
0.0381151
0.0380773
0.0380356
0.0379901
0.0379419
0.037891
0.0378379
0.0377825
0.0377245
0.0376636
0.0375994
0.037531
0.0374578
0.0373791
0.037294
0.0372018
0.0371018
0.0369932
0.0368753
0.0367477
0.0366097
0.0364609
0.0363008
0.0361293
0.0359461
0.0357512
0.0355449
0.0353275
0.0350999
0.034863
0.0346184
0.0343677
0.0341132
0.0338576
0.0336041
0.0333561
0.0331178
0.0328934
0.0326877
0.0325056
0.0323523
0.032233
0.0321527
0.0321163
0.0321285
0.0321933
0.032314
0.0324934
0.0327329
0.033033
0.0333932
0.0338112
0.0342836
0.0348053
0.0353698
0.035969
0.0365936
0.0372327
0.0378745
0.0385062
0.0391144
0.0396856
0.0402064
0.0406639
0.0410466
0.0413441
0.0415483
0.0416533
0.041656
0.041556
0.0413559
0.0410611
0.0406797
0.040222
0.0397004
0.0391284
0.0385204
0.0378908
0.0372537
0.0366219
0.0360071
0.0354193
0.0348664
0.0343543
0.033887
0.0334666
0.0330936
0.0327672
0.0324851
0.0322446
0.0320421
0.0318739
0.0317361
0.0316246
0.031536
0.0314665
0.0314133
0.0313733
0.0313445
0.0313242
0.0313115
0.0313042
0.0313024
0.031304
0.0313105
0.0313191
0.0313327
0.0313464
0.0313639
0.0313764
0.0313865
0.0381815
0.0381908
0.0381932
0.0381975
0.0381936
0.038187
0.0381725
0.0381535
0.0381277
0.0380975
0.038062
0.038023
0.0379802
0.0379347
0.0378864
0.0378357
0.0377824
0.0377265
0.0376676
0.0376052
0.0375388
0.0374678
0.0373914
0.0373091
0.03722
0.0371235
0.037019
0.0369059
0.0367835
0.0366514
0.036509
0.036356
0.0361921
0.036017
0.0358307
0.0356334
0.0354254
0.0352072
0.0349799
0.0347446
0.0345031
0.0342573
0.0340097
0.0337633
0.0335214
0.0332879
0.0330668
0.0328628
0.0326806
0.0325252
0.0324018
0.0323153
0.0322706
0.0322723
0.0323244
0.0324305
0.0325932
0.0328142
0.0330941
0.0334326
0.0338276
0.0342759
0.0347727
0.0353119
0.0358856
0.0364848
0.037099
0.0377166
0.0383253
0.038912
0.0394635
0.0399666
0.0404089
0.0407789
0.0410666
0.041264
0.0413654
0.0413678
0.0412707
0.0410768
0.0407914
0.0404225
0.0399803
0.0394768
0.0389253
0.0383397
0.0377341
0.0371218
0.0365155
0.0359261
0.0353629
0.0348335
0.0343433
0.0338959
0.033493
0.0331351
0.032821
0.0325487
0.0323154
0.0321178
0.0319523
0.0318153
0.0317032
0.0316126
0.0315402
0.0314833
0.0314392
0.031406
0.0313813
0.0313642
0.0313525
0.0313465
0.0313437
0.0313459
0.0313496
0.0313583
0.0313661
0.0313787
0.0313861
0.0313964
0.0381749
0.0381884
0.0381908
0.0381962
0.0381919
0.0381855
0.0381706
0.0381516
0.0381257
0.0380956
0.0380605
0.0380219
0.0379798
0.0379351
0.0378877
0.0378381
0.037786
0.0377315
0.037674
0.0376132
0.0375485
0.0374793
0.0374049
0.0373246
0.0372377
0.0371436
0.0370415
0.036931
0.0368114
0.0366822
0.0365428
0.0363929
0.0362319
0.0360597
0.0358762
0.0356812
0.0354752
0.0352584
0.0350319
0.0347966
0.0345542
0.0343065
0.034056
0.0338055
0.0335584
0.0333184
0.0330899
0.0328773
0.0326857
0.0325201
0.0323858
0.032288
0.0322319
0.032222
0.0322628
0.0323578
0.03251
0.0327213
0.0329924
0.033323
0.0337113
0.0341541
0.0346467
0.0351829
0.035755
0.0363538
0.0369689
0.0375887
0.0382006
0.0387914
0.0393478
0.0398563
0.0403043
0.04068
0.0409731
0.0411755
0.0412812
0.0412868
0.041192
0.0409992
0.0407139
0.0403441
0.0399002
0.0393946
0.0388407
0.038253
0.0376457
0.0370326
0.0364265
0.0358387
0.0352785
0.0347534
0.0342688
0.0338281
0.0334328
0.033083
0.0327773
0.0325133
0.032288
0.0320979
0.0319392
0.0318082
0.0317011
0.0316147
0.0315456
0.0314913
0.031449
0.031417
0.031393
0.0313762
0.0313643
0.0313579
0.0313543
0.0313557
0.0313581
0.0313662
0.0313727
0.0313863
0.0313934
0.0314092
0.0381669
0.0381837
0.0381853
0.0381907
0.0381851
0.0381781
0.0381625
0.0381434
0.0381177
0.0380883
0.038054
0.0380168
0.0379762
0.0379334
0.037888
0.0378406
0.0377909
0.0377389
0.0376841
0.0376261
0.0375643
0.0374982
0.0374271
0.0373504
0.0372673
0.0371773
0.0370797
0.0369739
0.0368592
0.0367352
0.0366011
0.0364565
0.0363008
0.0361336
0.0359546
0.0357636
0.0355606
0.0353459
0.0351201
0.0348842
0.0346394
0.0343875
0.0341309
0.0338723
0.0336152
0.0333632
0.0331208
0.0328928
0.0326842
0.0325004
0.032347
0.0322293
0.0321527
0.0321222
0.0321424
0.0322171
0.0323493
0.0325411
0.0327935
0.0331063
0.0334778
0.033905
0.0343833
0.0349066
0.0354674
0.0360567
0.0366641
0.037278
0.0378861
0.0384751
0.0390316
0.0395422
0.039994
0.0403751
0.040675
0.0408852
0.0409995
0.0410143
0.0409288
0.0407454
0.0404694
0.0401086
0.0396736
0.0391767
0.0386316
0.0380528
0.0374547
0.0368516
0.0362562
0.0356799
0.0351322
0.0346205
0.0341501
0.0337242
0.0333441
0.0330095
0.0327187
0.032469
0.032257
0.0320791
0.0319311
0.0318094
0.0317101
0.0316299
0.0315656
0.0315148
0.0314748
0.0314441
0.0314205
0.0314034
0.0313906
0.0313829
0.0313773
0.0313768
0.0313763
0.0313824
0.0313858
0.0313991
0.0314047
0.0314262
0.0381663
0.0381866
0.0381886
0.0381953
0.0381893
0.0381823
0.0381659
0.0381464
0.0381199
0.0380902
0.0380557
0.0380186
0.0379785
0.0379365
0.0378923
0.0378465
0.0377987
0.0377489
0.0376965
0.0376412
0.0375823
0.0375191
0.0374511
0.0373775
0.0372976
0.0372107
0.0371162
0.0370134
0.0369015
0.0367798
0.0366476
0.0365042
0.0363487
0.0361807
0.0359993
0.0358044
0.0355955
0.0353729
0.0351368
0.0348881
0.0346281
0.0343585
0.0340819
0.0338013
0.0335202
0.0332428
0.032974
0.0327188
0.0324829
0.032272
0.0320921
0.0319489
0.0318481
0.031795
0.0317942
0.0318497
0.0319647
0.0321413
0.0323805
0.0326822
0.0330447
0.033465
0.0339385
0.0344594
0.03502
0.0356114
0.0362233
0.0368442
0.0374615
0.0380622
0.0386324
0.0391587
0.0396279
0.0400277
0.0403471
0.0405772
0.0407111
0.0407447
0.0406768
0.0405094
0.0402472
0.0398981
0.0394724
0.0389826
0.0384425
0.0378672
0.0372714
0.0366698
0.0360759
0.0355015
0.0349565
0.0344487
0.0339838
0.0335649
0.0331935
0.0328692
0.0325899
0.0323527
0.0321538
0.0319892
0.0318544
0.0317452
0.0316576
0.0315881
0.0315333
0.0314907
0.0314576
0.0314326
0.0314135
0.0313999
0.0313896
0.0313837
0.031379
0.0313792
0.0313786
0.0313853
0.0313884
0.0314039
0.0314099
0.0314378
0.0381689
0.0381915
0.0381932
0.0382003
0.0381933
0.0381856
0.038168
0.0381477
0.0381204
0.0380903
0.0380558
0.0380192
0.0379799
0.0379392
0.0378969
0.0378533
0.037808
0.037761
0.0377118
0.0376598
0.0376043
0.0375447
0.0374803
0.0374104
0.0373341
0.0372507
0.0371595
0.0370595
0.03695
0.0368299
0.0366982
0.036554
0.0363962
0.0362238
0.0360358
0.0358315
0.0356105
0.0353726
0.035118
0.0348476
0.0345627
0.0342655
0.0339586
0.0336454
0.0333301
0.0330174
0.0327126
0.0324213
0.0321497
0.0319038
0.03169
0.0315142
0.0313825
0.0313
0.0312716
0.0313013
0.0313923
0.0315468
0.0317657
0.0320489
0.032395
0.0328009
0.0332624
0.0337737
0.0343274
0.034915
0.0355262
0.03615
0.0367738
0.0373848
0.0379692
0.0385135
0.0390042
0.0394287
0.0397757
0.0400355
0.0402007
0.0402663
0.0402304
0.0400941
0.0398617
0.0395404
0.03914
0.0386729
0.0381529
0.0375949
0.0370143
0.0364258
0.0358434
0.0352795
0.0347445
0.0342466
0.0337917
0.0333836
0.0330236
0.0327116
0.0324454
0.032222
0.0320373
0.0318871
0.0317665
0.0316711
0.0315965
0.0315389
0.0314949
0.0314617
0.0314367
0.0314185
0.0314047
0.0313954
0.0313881
0.0313844
0.0313809
0.0313818
0.031381
0.0313879
0.0313901
0.0314069
0.0314127
0.0314455
0.0381796
0.0382037
0.0382055
0.0382128
0.0382049
0.0381965
0.0381776
0.038156
0.0381274
0.0380964
0.0380611
0.0380243
0.0379854
0.0379455
0.0379045
0.0378627
0.0378198
0.0377754
0.037729
0.0376801
0.0376278
0.0375714
0.03751
0.0374427
0.0373688
0.0372872
0.0371969
0.0370969
0.0369859
0.0368626
0.0367258
0.0365739
0.0364054
0.036219
0.0360135
0.0357877
0.0355412
0.0352736
0.0349855
0.0346779
0.0343526
0.0340122
0.0336601
0.0333005
0.032938
0.0325782
0.0322269
0.0318904
0.0315752
0.0312877
0.0310346
0.030822
0.0306557
0.0305413
0.0304833
0.0304858
0.0305519
0.0306837
0.0308823
0.0311475
0.0314779
0.0318707
0.0323219
0.0328259
0.0333758
0.0339631
0.0345783
0.0352103
0.0358473
0.0364762
0.0370837
0.037656
0.0381796
0.0386415
0.0390298
0.0393339
0.0395457
0.0396591
0.0396712
0.039582
0.0393946
0.0391154
0.0387536
0.0383209
0.0378308
0.0372984
0.0367391
0.0361681
0.0355998
0.0350474
0.0345219
0.0340322
0.0335849
0.0331842
0.032832
0.0325285
0.0322718
0.0320589
0.0318858
0.031748
0.0316404
0.0315584
0.0314971
0.0314525
0.0314208
0.0313991
0.0313844
0.0313753
0.0313694
0.0313668
0.0313649
0.0313657
0.0313654
0.0313691
0.0313698
0.0313785
0.0313813
0.0314001
0.0314065
0.0314433
0.0381955
0.0382203
0.0382215
0.0382283
0.0382191
0.0382092
0.0381885
0.0381653
0.0381353
0.0381031
0.0380672
0.0380303
0.0379918
0.037953
0.0379135
0.0378738
0.0378333
0.0377917
0.0377483
0.0377024
0.0376531
0.0375995
0.0375405
0.0374751
0.0374022
0.0373206
0.0372289
0.0371256
0.0370091
0.0368777
0.0367294
0.0365623
0.0363745
0.0361643
0.0359301
0.0356708
0.0353859
0.0350754
0.0347403
0.0343821
0.0340034
0.0336075
0.0331987
0.0327819
0.0323626
0.0319469
0.0315413
0.0311523
0.0307869
0.0304516
0.030153
0.0298975
0.0296908
0.0295382
0.0294443
0.029413
0.0294474
0.0295496
0.0297206
0.0299604
0.0302677
0.0306402
0.031074
0.031564
0.0321039
0.0326857
0.0333003
0.0339375
0.0345858
0.0352327
0.0358651
0.0364695
0.0370323
0.0375403
0.037981
0.0383431
0.0386174
0.0387967
0.0388765
0.0388554
0.0387351
0.0385206
0.0382198
0.0378433
0.0374042
0.0369169
0.0363968
0.0358592
0.0353191
0.03479
0.0342837
0.0338099
0.0333758
0.0329865
0.0326446
0.0323506
0.0321033
0.0319001
0.031737
0.0316098
0.0315133
0.0314427
0.0313931
0.0313603
0.0313399
0.031329
0.0313244
0.0313245
0.0313267
0.0313311
0.0313351
0.0313407
0.0313441
0.0313507
0.0313534
0.0313636
0.031367
0.0313871
0.0313937
0.0314327
0.0382194
0.0382443
0.0382449
0.0382507
0.0382399
0.0382282
0.0382055
0.0381803
0.0381485
0.0381149
0.038078
0.0380406
0.0380021
0.037964
0.0379258
0.0378877
0.0378493
0.0378099
0.0377689
0.0377252
0.0376779
0.0376256
0.0375673
0.0375014
0.0374266
0.037341
0.037243
0.0371304
0.0370011
0.0368526
0.0366826
0.0364887
0.0362685
0.03602
0.0357419
0.0354331
0.0350935
0.0347239
0.0343259
0.033902
0.0334557
0.0329914
0.0325141
0.0320297
0.0315442
0.0310644
0.0305971
0.0301493
0.0297279
0.0293396
0.0289911
0.0286884
0.0284372
0.0282428
0.0281095
0.0280411
0.0280406
0.02811
0.0282505
0.028462
0.0287436
0.0290932
0.0295072
0.0299813
0.0305094
0.0310845
0.0316981
0.0323407
0.0330015
0.0336688
0.03433
0.034972
0.0355814
0.0361448
0.0366492
0.0370829
0.0374354
0.0376981
0.037865
0.0379328
0.0379012
0.0377734
0.0375555
0.0372566
0.0368886
0.036465
0.0360007
0.0355112
0.0350116
0.0345159
0.0340367
0.0335847
0.0331679
0.0327923
0.0324613
0.0321765
0.0319373
0.0317415
0.031586
0.0314664
0.0313782
0.0313164
0.0312762
0.0312531
0.0312426
0.0312417
0.0312467
0.031256
0.0312666
0.0312787
0.0312893
0.0313008
0.0313089
0.0313195
0.031325
0.0313376
0.0313424
0.0313637
0.0313707
0.0314107
0.0382501
0.0382742
0.0382738
0.038278
0.0382652
0.0382512
0.0382261
0.0381986
0.0381648
0.0381296
0.0380916
0.0380537
0.0380153
0.0379778
0.0379406
0.0379041
0.0378673
0.0378297
0.0377902
0.0377477
0.0377009
0.0376482
0.037588
0.0375185
0.0374376
0.0373431
0.0372324
0.037103
0.0369519
0.036776
0.0365726
0.0363387
0.0360719
0.0357705
0.0354331
0.0350596
0.0346505
0.0342075
0.0337333
0.0332314
0.0327065
0.0321639
0.0316094
0.0310496
0.0304911
0.0299411
0.0294067
0.0288949
0.0284127
0.0279669
0.0275639
0.0272096
0.0269096
0.0266688
0.0264914
0.0263811
0.0263406
0.026372
0.0264763
0.0266538
0.0269037
0.0272241
0.027612
0.0280636
0.0285736
0.0291357
0.0297424
0.0303851
0.031054
0.0317383
0.0324264
0.0331057
0.0337634
0.0343864
0.0349616
0.0354766
0.03592
0.0362819
0.0365546
0.0367327
0.0368135
0.0367978
0.0366894
0.0364952
0.036225
0.0358909
0.0355069
0.0350878
0.0346487
0.034204
0.0337669
0.0333489
0.0329592
0.0326049
0.0322904
0.0320183
0.031789
0.0316012
0.0314523
0.0313389
0.0312566
0.031201
0.0311672
0.0311509
0.0311478
0.0311544
0.0311671
0.0311839
0.0312018
0.0312206
0.0312374
0.0312542
0.031267
0.0312813
0.0312898
0.0313044
0.0313105
0.0313324
0.0313397
0.031379
0.0382892
0.0383121
0.0383104
0.0383124
0.0382974
0.0382807
0.0382531
0.038223
0.038187
0.0381498
0.0381106
0.0380718
0.0380332
0.0379959
0.0379593
0.0379234
0.0378874
0.0378504
0.0378109
0.0377677
0.0377189
0.0376626
0.0375965
0.0375183
0.0374252
0.0373143
0.0371821
0.0370253
0.0368403
0.0366237
0.036372
0.0360825
0.0357529
0.0353819
0.034969
0.034515
0.0340214
0.0334913
0.0329284
0.0323376
0.0317244
0.0310949
0.030456
0.0298145
0.0291778
0.0285531
0.0279478
0.027369
0.0268235
0.026318
0.0258588
0.0254515
0.0251013
0.024813
0.0245904
0.024437
0.0243553
0.0243472
0.0244138
0.0245552
0.0247709
0.0250593
0.025418
0.0258434
0.0263312
0.0268759
0.0274711
0.0281091
0.0287813
0.0294782
0.0301892
0.030903
0.0316074
0.0322899
0.0329379
0.0335388
0.0340806
0.0345523
0.0349444
0.0352495
0.0354625
0.0355812
0.0356066
0.0355427
0.0353965
0.0351781
0.0348994
0.0345742
0.034217
0.0338421
0.0334634
0.033093
0.0327414
0.0324168
0.0321251
0.0318701
0.0316533
0.0314746
0.0313324
0.031224
0.0311459
0.0310941
0.0310642
0.0310521
0.0310536
0.0310654
0.0310835
0.0311061
0.0311299
0.0311544
0.0311767
0.0311985
0.0312157
0.0312337
0.0312452
0.0312619
0.0312697
0.0312918
0.0312994
0.0313369
0.0383364
0.0383573
0.0383541
0.0383533
0.0383358
0.038316
0.0382856
0.0382527
0.0382143
0.0381752
0.0381345
0.0380947
0.0380556
0.038018
0.0379813
0.0379454
0.0379089
0.0378709
0.0378295
0.0377828
0.0377287
0.0376644
0.0375872
0.0374938
0.0373806
0.0372437
0.0370791
0.0368826
0.0366501
0.0363778
0.0360623
0.0357012
0.0352929
0.0348369
0.0343338
0.0337857
0.0331956
0.0325676
0.0319068
0.0312191
0.0305109
0.0297894
0.0290618
0.0283355
0.0276181
0.0269172
0.0262401
0.0255938
0.0249851
0.0244204
0.0239055
0.0234459
0.0230463
0.022711
0.0224436
0.0222471
0.0221238
0.0220753
0.0221026
0.0222058
0.0223845
0.0226374
0.0229623
0.0233565
0.0238162
0.0243368
0.024913
0.0255382
0.0262053
0.0269059
0.0276311
0.0283707
0.0291141
0.0298497
0.0305658
0.03125
0.0318904
0.0324754
0.0329942
0.0334375
0.0337979
0.0340702
0.034252
0.0343439
0.0343496
0.0342757
0.0341315
0.0339287
0.0336803
0.0334001
0.0331017
0.032798
0.0325005
0.0322188
0.0319602
0.0317301
0.0315315
0.0313656
0.0312322
0.0311295
0.0310551
0.0310057
0.0309777
0.0309674
0.0309708
0.0309849
0.031006
0.0310318
0.0310593
0.0310877
0.0311138
0.0311394
0.0311601
0.0311809
0.031195
0.0312132
0.0312223
0.031244
0.0312517
0.0312863
0.038393
0.0384112
0.0384062
0.0384022
0.038382
0.0383588
0.0383254
0.0382895
0.0382487
0.0382073
0.0381649
0.0381238
0.0380836
0.038045
0.0380072
0.0379697
0.0379311
0.0378896
0.0378432
0.0377893
0.037725
0.0376469
0.0375513
0.037434
0.0372905
0.037116
0.0369057
0.036655
0.0363594
0.0360152
0.0356195
0.0351707
0.0346682
0.0341127
0.0335064
0.0328527
0.0321559
0.0314217
0.0306562
0.0298664
0.0290596
0.0282435
0.0274259
0.0266148
0.0258177
0.0250424
0.0242961
0.0235856
0.0229174
0.0222975
0.0217314
0.0212238
0.0207792
0.0204011
0.0200928
0.0198568
0.019695
0.0196087
0.0195986
0.0196648
0.0198069
0.0200237
0.0203134
0.0206737
0.0211015
0.0215931
0.0221441
0.0227492
0.0234024
0.0240971
0.0248257
0.0255798
0.0263503
0.0271272
0.0279
0.0286575
0.0293883
0.0300808
0.0307238
0.0313068
0.0318202
0.0322563
0.0326094
0.0328763
0.0330566
0.033153
0.0331711
0.0331193
0.033008
0.0328493
0.0326561
0.0324413
0.0322171
0.0319942
0.0317817
0.0315866
0.0314137
0.0312661
0.031145
0.0310501
0.0309802
0.030933
0.0309057
0.0308954
0.0308988
0.0309129
0.0309344
0.0309613
0.0309903
0.0310206
0.0310491
0.0310769
0.0311001
0.0311229
0.031139
0.0311581
0.0311683
0.0311891
0.0311968
0.0312279
0.0384591
0.0384737
0.0384667
0.0384589
0.0384358
0.0384089
0.0383725
0.0383334
0.0382901
0.0382463
0.038202
0.038159
0.038117
0.0380764
0.0380362
0.0379954
0.037952
0.0379041
0.0378486
0.0377825
0.0377019
0.0376024
0.0374795
0.0373278
0.037142
0.0369165
0.0366459
0.0363254
0.0359507
0.0355186
0.0350273
0.0344762
0.0338661
0.0331995
0.0324799
0.0317122
0.0309024
0.0300573
0.0291841
0.0282908
0.0273855
0.0264763
0.0255717
0.0246795
0.0238077
0.0229637
0.0221545
0.0213866
0.020666
0.0199981
0.0193877
0.0188391
0.018356
0.0179413
0.0175978
0.0173273
0.0171313
0.0170108
0.0169662
0.0169974
0.0171039
0.0172846
0.0175381
0.0178624
0.0182549
0.0187127
0.0192322
0.0198093
0.0204394
0.0211172
0.0218367
0.0225913
0.0233736
0.0241757
0.0249885
0.0258027
0.026608
0.0273939
0.0281493
0.0288633
0.0295254
0.0301257
0.0306558
0.0311089
0.0314805
0.0317687
0.0319745
0.0321019
0.0321575
0.0321505
0.0320916
0.0319927
0.0318659
0.0317228
0.0315738
0.0314279
0.0312919
0.0311709
0.031068
0.0309849
0.0309217
0.0308777
0.0308512
0.0308401
0.0308418
0.0308541
0.030874
0.0308995
0.0309278
0.0309579
0.0309867
0.0310151
0.0310392
0.0310628
0.0310798
0.031099
0.0311097
0.0311292
0.0311366
0.0311638
0.0385354
0.0385456
0.0385364
0.0385243
0.0384983
0.0384674
0.0384281
0.0383857
0.0383396
0.0382932
0.0382465
0.0382009
0.0381562
0.0381122
0.0380676
0.0380208
0.0379695
0.0379109
0.0378412
0.0377564
0.0376516
0.0375216
0.0373604
0.0371619
0.03692
0.0366286
0.036282
0.0358758
0.0354062
0.0348712
0.0342702
0.0336042
0.0328758
0.032089
0.0312492
0.0303627
0.029437
0.0284799
0.0274999
0.0265056
0.0255058
0.0245093
0.0235243
0.0225591
0.0216212
0.0207178
0.0198555
0.0190401
0.0182771
0.017571
0.016926
0.0163456
0.0158327
0.0153897
0.0150185
0.0147205
0.0144966
0.0143475
0.0142732
0.0142735
0.0143476
0.0144947
0.0147134
0.0150018
0.015358
0.0157796
0.0162638
0.0168074
0.0174069
0.0180583
0.0187572
0.0194986
0.0202771
0.0210864
0.0219199
0.0227698
0.023628
0.0244854
0.0253323
0.0261583
0.026953
0.0277055
0.0284055
0.0290436
0.0296116
0.030103
0.0305139
0.0308431
0.0310922
0.0312658
0.0313712
0.0314177
0.031416
0.0313776
0.0313138
0.0312351
0.0311504
0.0310673
0.0309911
0.0309258
0.0308734
0.0308351
0.0308104
0.0307987
0.0307982
0.0308074
0.030824
0.0308464
0.030872
0.0308999
0.0309272
0.0309544
0.030978
0.031001
0.0310181
0.0310366
0.0310472
0.031065
0.0310718
0.031095
0.038622
0.0386267
0.0386152
0.0385984
0.0385694
0.0385345
0.0384922
0.0384463
0.0383974
0.0383479
0.0382982
0.0382491
0.0382003
0.038151
0.0380995
0.0380436
0.0379802
0.0379056
0.0378152
0.0377038
0.0375655
0.0373939
0.0371821
0.0369232
0.0366104
0.0362376
0.0357995
0.0352922
0.0347134
0.0340624
0.0333403
0.03255
0.0316958
0.0307837
0.0298207
0.0288146
0.0277742
0.0267085
0.0256268
0.0245385
0.0234527
0.0223783
0.0213237
0.0202968
0.0193047
0.0183541
0.0174507
0.0165997
0.0158057
0.0150725
0.0144034
0.0138009
0.0132674
0.0128044
0.0124133
0.0120948
0.0118495
0.0116774
0.0115784
0.0115521
0.0115976
0.0117138
0.0118997
0.0121535
0.0124736
0.012858
0.0133045
0.0138108
0.0143741
0.0149917
0.0156604
0.0163767
0.0171369
0.0179366
0.0187711
0.0196349
0.020522
0.0214255
0.0223375
0.0232494
0.0241516
0.0250338
0.0258852
0.0266947
0.0274516
0.0281458
0.0287687
0.0293136
0.0297765
0.0301563
0.030455
0.0306776
0.0308318
0.0309273
0.0309751
0.0309865
0.0309723
0.0309423
0.0309046
0.0308658
0.0308305
0.0308018
0.0307816
0.0307704
0.0307679
0.0307736
0.0307858
0.0308037
0.0308249
0.0308488
0.0308727
0.0308971
0.0309186
0.0309396
0.0309554
0.0309723
0.0309822
0.0309978
0.0310039
0.0310232
0.0387191
0.0387174
0.0387035
0.0386815
0.0386497
0.0386106
0.0385653
0.0385157
0.0384638
0.0384106
0.038357
0.0383032
0.0382484
0.0381913
0.0381297
0.0380605
0.0379797
0.0378826
0.0377636
0.0376163
0.0374336
0.0372081
0.036932
0.0365979
0.0361991
0.0357296
0.0351852
0.0345632
0.0338629
0.0330854
0.0322338
0.0313131
0.0303296
0.0292909
0.0282058
0.0270835
0.025934
0.0247672
0.0235932
0.0224216
0.0212618
0.0201225
0.0190117
0.0179368
0.0169043
0.01592
0.0149887
0.0141148
0.0133018
0.0125526
0.0118696
0.0112548
0.0107095
0.0102347
0.00983107
0.00949898
0.00923846
0.00904927
0.00893096
0.00888284
0.00890402
0.00899343
0.00914982
0.00937179
0.00965783
0.0100063
0.0104154
0.0108832
0.011408
0.0119876
0.0126199
0.0133026
0.0140334
0.0148096
0.0156282
0.016486
0.0173789
0.0183025
0.0192512
0.0202186
0.0211973
0.0221784
0.0231521
0.0241073
0.0250322
0.0259145
0.0267422
0.0275038
0.0281896
0.0287923
0.0293075
0.0297341
0.0300748
0.0303355
0.0305249
0.0306538
0.0307339
0.0307768
0.0307933
0.030793
0.0307836
0.0307709
0.0307591
0.0307509
0.0307477
0.0307501
0.0307576
0.03077
0.0307857
0.0308042
0.0308232
0.0308432
0.030861
0.0308788
0.0308923
0.0309067
0.0309152
0.0309283
0.0309335
0.0309493
0.0388263
0.0388171
0.0388007
0.0387732
0.0387387
0.0386952
0.038647
0.0385936
0.0385382
0.0384805
0.038422
0.0383616
0.0382986
0.0382306
0.0381549
0.0380672
0.0379627
0.0378354
0.0376786
0.0374846
0.0372453
0.0369524
0.0365978
0.0361738
0.0356742
0.035094
0.0344303
0.0336822
0.0328509
0.0319399
0.0309543
0.0299011
0.0287887
0.0276265
0.0264247
0.025194
0.0239451
0.0226887
0.0214352
0.0201943
0.0189751
0.0177859
0.016634
0.015526
0.0144673
0.0134628
0.0125163
0.0116312
0.01081
0.0100548
0.00936706
0.00874794
0.00819819
0.00771823
0.00730821
0.00696805
0.00669742
0.00649583
0.0063626
0.00629689
0.0062977
0.00636393
0.00649435
0.00668765
0.00694243
0.00725724
0.00763062
0.00806108
0.00854716
0.00908742
0.00968045
0.0103249
0.0110194
0.0117626
0.012553
0.013389
0.0142687
0.0151897
0.0161489
0.0171425
0.0181656
0.0192116
0.0202729
0.02134
0.0224016
0.0234451
0.0244566
0.0254217
0.0263261
0.0271564
0.0279015
0.0285533
0.0291076
0.0295642
0.0299274
0.0302051
0.0304079
0.0305485
0.0306398
0.0306943
0.0307229
0.030735
0.0307378
0.0307366
0.0307349
0.0307352
0.0307383
0.0307448
0.0307541
0.030766
0.0307789
0.0307932
0.030806
0.0308194
0.0308294
0.0308405
0.0308469
0.0308574
0.0308614
0.0308742
0.038943
0.0389252
0.0389065
0.0388732
0.0388361
0.0387882
0.038737
0.0386793
0.0386198
0.0385566
0.0384916
0.0384225
0.0383484
0.0382656
0.0381708
0.0380585
0.0379228
0.0377563
0.0375512
0.0372987
0.0369899
0.0366158
0.0361682
0.0356402
0.0350263
0.0343231
0.0335296
0.0326469
0.0316788
0.0306308
0.0295105
0.0283269
0.0270903
0.0258118
0.0245028
0.0231751
0.0218399
0.0205084
0.0191907
0.0178964
0.0166337
0.0154103
0.0142323
0.0131054
0.0120339
0.0110215
0.0100711
0.00918485
0.00836448
0.00761117
0.00692573
0.00630861
0.00576001
0.0052799
0.00486804
0.00452401
0.00424725
0.00403706
0.00389262
0.00381298
0.00379711
0.00384386
0.00395202
0.00412033
0.00434748
0.00463216
0.00497307
0.00536895
0.00581861
0.006321
0.00687516
0.00748029
0.00813577
0.0088411
0.0095959
0.0103999
0.0112526
0.0121537
0.0131021
0.0140965
0.0151344
0.0162124
0.0173254
0.0184666
0.019627
0.0207953
0.021958
0.0230996
0.0242031
0.0252508
0.0262258
0.0271126
0.0278992
0.0285776
0.029145
0.0296039
0.0299617
0.0302295
0.0304211
0.0305512
0.0306344
0.0306835
0.0307095
0.0307212
0.0307249
0.0307252
0.0307249
0.0307258
0.0307283
0.0307331
0.0307388
0.0307463
0.0307531
0.0307609
0.0307665
0.0307737
0.0307774
0.0307851
0.0307879
0.0307983
0.0390682
0.0390407
0.0390197
0.0389802
0.0389408
0.0388883
0.038834
0.0387715
0.0387071
0.0386371
0.0385636
0.038483
0.0383941
0.0382919
0.0381722
0.0380281
0.0378525
0.0376369
0.0373722
0.0370487
0.0366569
0.0361878
0.0356338
0.0349888
0.0342491
0.0334133
0.0324824
0.0314604
0.0303531
0.0291688
0.0279172
0.0266094
0.0252573
0.0238735
0.0224703
0.02106
0.0196543
0.0182639
0.0168986
0.015567
0.0142767
0.0130338
0.0118437
0.0107105
0.00963757
0.00862734
0.0076817
0.00680193
0.00598888
0.00524303
0.00456457
0.00395346
0.00340947
0.00293223
0.00252124
0.00217588
0.00189542
0.00167908
0.00152593
0.00143501
0.00140526
0.00143553
0.00152466
0.00167142
0.00187456
0.00213285
0.00244509
0.00281014
0.00322698
0.00369475
0.00421273
0.00478045
0.00539769
0.00606448
0.00678113
0.00754818
0.00836636
0.00923652
0.0101594
0.0111357
0.0121652
0.0132473
0.0143799
0.0155593
0.0167796
0.0180324
0.0193064
0.0205873
0.0218579
0.0230985
0.0242881
0.0254054
0.0264306
0.0273473
0.0281437
0.0288143
0.02936
0.0297879
0.0301101
0.0303422
0.0305011
0.0306037
0.0306651
0.030698
0.0307126
0.0307164
0.0307146
0.0307108
0.0307067
0.030704
0.030702
0.0307018
0.0307016
0.0307032
0.0307035
0.0307062
0.0307067
0.0307116
0.0307129
0.0307216
0.0392
0.0391618
0.0391387
0.0390928
0.0390513
0.038994
0.0389364
0.0388684
0.038798
0.0387192
0.0386348
0.0385394
0.0384314
0.0383043
0.038153
0.0379689
0.0377441
0.0374684
0.0371321
0.0367247
0.0362368
0.0356599
0.0349873
0.0342146
0.0333401
0.0323649
0.0312928
0.0301301
0.0288854
0.0275694
0.0261938
0.0247717
0.0233163
0.0218411
0.0203591
0.0188827
0.0174231
0.0159906
0.0145939
0.0132405
0.0119368
0.0106876
0.00949685
0.00836756
0.00730184
0.00630113
0.00536635
0.00449801
0.00369626
0.00296102
0.00229204
0.00168891
0.00115114
0.000678143
0.000269261
-7.62163e-05
-0.000359069
-0.000580137
-0.000740328
-0.000840612
-0.000882025
-0.000865658
-0.000792654
-0.00066419
-0.000481461
-0.00024565
4.20957e-05
0.000380703
0.000769214
0.00120683
0.00169294
0.0022272
0.00280956
0.0034403
0.00412004
0.0048498
0.00563094
0.00646516
0.00735437
0.00830056
0.00930563
0.010371
0.0114974
0.0126843
0.0139291
0.0152273
0.0165709
0.0179486
0.0193455
0.0207424
0.0221171
0.0234449
0.0246999
0.0258578
0.0268975
0.0278035
0.0285674
0.0291889
0.0296754
0.0300404
0.0303017
0.0304792
0.0305921
0.030658
0.0306913
0.0307038
0.0307035
0.0306967
0.0306868
0.0306766
0.0306666
0.0306583
0.0306506
0.0306452
0.0306396
0.0306374
0.0306342
0.0306363
0.030636
0.0306438
0.0393363
0.0392864
0.0392613
0.0392089
0.0391654
0.0391031
0.0390417
0.0389671
0.0388892
0.0387996
0.0387013
0.0385872
0.0384551
0.0382968
0.0381062
0.0378732
0.0375889
0.0372419
0.0368218
0.0363182
0.035722
0.0350256
0.0342242
0.0333156
0.0323005
0.0311827
0.0299689
0.0286681
0.0272916
0.0258521
0.0243634
0.0228399
0.021296
0.0197455
0.0182015
0.0166758
0.0151791
0.0137203
0.012307
0.0109453
0.00964012
0.00839495
0.00721241
0.00609427
0.0050416
0.00405492
0.0031344
0.0022799
0.00149107
0.000767434
0.000108443
-0.000486519
-0.0010181
-0.00148697
-0.00189382
-0.0022394
-0.00252446
-0.00274981
-0.0029163
-0.00302487
-0.00307648
-0.00307216
-0.00301299
-0.00290011
-0.00273464
-0.00251775
-0.00225053
-0.00193403
-0.00156922
-0.00115687
-0.000697601
-0.000191754
0.000360623
0.000959839
0.0016066
0.00230207
0.00304787
0.00384607
0.0046992
0.00561014
0.00658198
0.00761783
0.00872047
0.009892
0.0111332
0.0124431
0.0138179
0.0152506
0.0167298
0.0182397
0.0197595
0.0212642
0.0227249
0.0241116
0.0253947
0.0265484
0.0275534
0.0283988
0.0290835
0.0296155
0.0300107
0.0302897
0.0304754
0.03059
0.0306533
0.0306817
0.0306876
0.0306804
0.030666
0.0306489
0.0306309
0.0306143
0.0305986
0.0305859
0.030574
0.0305665
0.0305593
0.0305587
0.0305568
0.030564
0.039474
0.0394116
0.0393848
0.0393257
0.0392803
0.0392126
0.0391468
0.0390644
0.0389772
0.038874
0.0387583
0.0386208
0.0384589
0.0382624
0.0380242
0.0377329
0.0373784
0.0369487
0.0364332
0.0358217
0.0351063
0.034281
0.0333433
0.0322934
0.031135
0.029875
0.0285228
0.0270901
0.0255907
0.0240393
0.0224511
0.0208415
0.0192254
0.0176164
0.0160272
0.0144686
0.01295
0.011479
0.0100616
0.00870248
0.00740495
0.00617124
0.00500274
0.00390012
0.00286358
0.00189292
0.000987695
0.00014732
-0.000628881
-0.00134161
-0.00199159
-0.00257951
-0.00310606
-0.00357189
-0.00397768
-0.0043241
-0.00461184
-0.00484163
-0.00501424
-0.0051305
-0.0051913
-0.0051976
-0.0051504
-0.00505076
-0.00489978
-0.00469854
-0.00444815
-0.00414965
-0.00380399
-0.00341201
-0.00297437
-0.00249149
-0.00196351
-0.00139022
-0.00077101
-0.000104804
0.000609987
0.0013755
0.00219442
0.00307
0.00400595
0.00500635
0.0060754
0.00721714
0.00843498
0.00973109
0.0111057
0.0125562
0.0140761
0.0156543
0.017274
0.0189127
0.0205422
0.0221299
0.0236405
0.0250396
0.0262965
0.0273881
0.0283015
0.0290351
0.0295988
0.030011
0.0302959
0.0304799
0.0305882
0.0306428
0.0306615
0.0306579
0.0306412
0.0306184
0.0305929
0.0305681
0.0305443
0.030524
0.0305055
0.0304926
0.0304811
0.0304777
0.0304741
0.0304813
0.0396096
0.039534
0.0395057
0.0394397
0.0393924
0.0393187
0.0392475
0.0391558
0.0390571
0.0389373
0.0388002
0.0386341
0.038436
0.0381938
0.0378993
0.0375398
0.0371045
0.0365811
0.0359593
0.0352297
0.0343862
0.033425
0.0323461
0.0311529
0.0298522
0.0284536
0.0269697
0.0254147
0.0238043
0.0221549
0.0204827
0.0188034
0.0171318
0.0154809
0.0138623
0.0122855
0.0107582
0.00928647
0.00787475
0.00652609
0.0052424
0.0040247
0.0028733
0.00178802
0.000768346
-0.000186465
-0.00107724
-0.00190486
-0.00267015
-0.00337394
-0.00401695
-0.00459988
-0.00512335
-0.00558795
-0.00599425
-0.00634281
-0.00663422
-0.00686909
-0.00704808
-0.00717192
-0.0072414
-0.00725736
-0.00722075
-0.00713254
-0.00699376
-0.00680546
-0.00656873
-0.00628458
-0.00595401
-0.00557789
-0.00515696
-0.00469176
-0.00418255
-0.00362932
-0.00303164
-0.00238865
-0.00169899
-0.000960712
-0.000171262
0.000672565
0.00157462
0.00253935
0.00357168
0.00467683
0.00585997
0.00712576
0.00847766
0.00991717
0.0114427
0.0130485
0.0147233
0.0164497
0.018203
0.019952
0.0216596
0.0232856
0.0247901
0.0261377
0.0273017
0.0282678
0.0290349
0.0296153
0.030031
0.0303104
0.0304834
0.0305784
0.0306192
0.0306249
0.0306094
0.0305826
0.0305504
0.0305178
0.0304859
0.030458
0.0304328
0.0304143
0.0303984
0.0303922
0.0303867
0.0303943
0.0397388
0.0396494
0.0396199
0.0395468
0.0394974
0.039417
0.0393394
0.0392364
0.0391235
0.0389835
0.0388204
0.0386203
0.0383791
0.0380831
0.0377234
0.0372859
0.0367597
0.0361324
0.0353947
0.0345388
0.0335606
0.0324592
0.0312375