/*--------------------------------*- C++ -*----------------------------------*\
| =========                 |                                                 |
| \\      /  F ield         | OpenFOAM: The Open Source CFD Toolbox           |
|  \\    /   O peration     | Version:  2406                                  |
|   \\  /    A nd           | Website:  www.openfoam.com                      |
|    \\/     M anipulation  |                                                 |
\*---------------------------------------------------------------------------*/
FoamFile
{
    version     2.0;
    format      ascii;
    arch        "LSB;label=32;scalar=64";
    class       volVectorField;
    location    "40.5";
    object      U_0;
}
// * * * * * * * * * * * * * * * * * * * * * * * * * * * * * * * * * * * * * //

dimensions      [0 1 -1 0 0 0 0];

internalField   nonuniform List<vector> 
16384
(
(-1.51752e-05 1.49472e-05 0)
(-2.77226e-06 2.42106e-06 0)
(8.67105e-05 -1.40168e-05 0)
(0.000246862 -2.75974e-05 0)
(0.000462615 -3.68923e-05 0)
(0.000715745 -4.2144e-05 0)
(0.00098807 -4.394e-05 0)
(0.00126318 -4.29334e-05 0)
(0.00152733 -3.98051e-05 0)
(0.00176993 -3.52397e-05 0)
(0.0019837 -2.98964e-05 0)
(0.00216465 -2.43737e-05 0)
(0.00231175 -1.91755e-05 0)
(0.00242647 -1.46883e-05 0)
(0.00251214 -1.11706e-05 0)
(0.00257335 -8.75441e-06 0)
(0.00261527 -7.45605e-06 0)
(0.00264303 -7.19314e-06 0)
(0.0026612 -7.81377e-06 0)
(0.00267341 -9.0694e-06 0)
(0.00268206 -1.07438e-05 0)
(0.00268817 -1.26593e-05 0)
(0.00269122 -1.46416e-05 0)
(0.00268954 -1.62898e-05 0)
(0.00268053 -1.75168e-05 0)
(0.00266058 -1.82841e-05 0)
(0.00262555 -1.85517e-05 0)
(0.00257095 -1.8306e-05 0)
(0.0024921 -1.75424e-05 0)
(0.00238423 -1.6266e-05 0)
(0.00224249 -1.44659e-05 0)
(0.00206197 -1.21139e-05 0)
(0.00183765 -9.15899e-06 0)
(0.00156436 -5.53213e-06 0)
(0.00123685 -1.17848e-06 0)
(0.000849741 4.02812e-06 0)
(0.000397659 1.01482e-05 0)
(-0.000124682 1.72566e-05 0)
(-0.000722355 2.54263e-05 0)
(-0.00140006 3.47125e-05 0)
(-0.00216195 4.51487e-05 0)
(-0.00301152 5.67478e-05 0)
(-0.00395135 6.94981e-05 0)
(-0.00498301 8.33587e-05 0)
(-0.00610685 9.8256e-05 0)
(-0.00732188 0.000114082 0)
(-0.00862564 0.000130691 0)
(-0.0100141 0.000147902 0)
(-0.0114816 0.000165493 0)
(-0.0130207 0.000183209 0)
(-0.0146224 0.000200756 0)
(-0.016276 0.000217811 0)
(-0.0179691 0.000234023 0)
(-0.0196879 0.000249014 0)
(-0.0214171 0.00026239 0)
(-0.0231402 0.000273741 0)
(-0.0248395 0.000282652 0)
(-0.0264964 0.000288707 0)
(-0.0280916 0.000291499 0)
(-0.0296049 0.000290637 0)
(-0.0310162 0.000285759 0)
(-0.0323049 0.00027654 0)
(-0.0334507 0.000262731 0)
(-0.0344336 0.000244212 0)
(-0.0352345 0.000221031 0)
(-0.0358354 0.000193176 0)
(-0.0362197 0.000159858 0)
(-0.0363727 0.000120013 0)
(-0.0362764 7.97734e-05 0)
(-0.035917 3.21668e-05 0)
(-0.0352924 -2.08313e-05 0)
(-0.0343965 -7.6302e-05 0)
(-0.0332266 -0.000133302 0)
(-0.031785 -0.000190983 0)
(-0.0300783 -0.00024823 0)
(-0.028118 -0.000303755 0)
(-0.0259203 -0.000356157 0)
(-0.0235064 -0.000403979 0)
(-0.0209025 -0.000445763 0)
(-0.0181395 -0.00048012 0)
(-0.0152526 -0.000505792 0)
(-0.0122807 -0.000521732 0)
(-0.00926603 -0.000527159 0)
(-0.00625249 -0.000521608 0)
(-0.00328499 -0.000505031 0)
(-0.000408005 -0.000478015 0)
(0.00233467 -0.000441577 0)
(0.00490264 -0.000395955 0)
(0.00725998 -0.000343193 0)
(0.00937575 -0.00028551 0)
(0.0112256 -0.000224546 0)
(0.0127917 -0.000162462 0)
(0.0140641 -0.000101301 0)
(0.0150401 -4.29832e-05 0)
(0.0157246 1.0869e-05 0)
(0.0161293 5.89559e-05 0)
(0.0162722 0.000100333 0)
(0.0161758 0.00013414 0)
(0.0158673 0.000160199 0)
(0.0153763 0.000179202 0)
(0.0147332 0.000191367 0)
(0.0139691 0.000197257 0)
(0.0131145 0.000197742 0)
(0.0121981 0.000193754 0)
(0.011246 0.000186218 0)
(0.0102815 0.00017602 0)
(0.00932438 0.000163981 0)
(0.00839101 0.000150822 0)
(0.00749436 0.000137154 0)
(0.00664417 0.000123476 0)
(0.00584719 0.000110176 0)
(0.00510751 9.75431e-05 0)
(0.00442698 8.57852e-05 0)
(0.00380553 7.5041e-05 0)
(0.00324151 6.53959e-05 0)
(0.00273213 5.68927e-05 0)
(0.0022737 4.95348e-05 0)
(0.00186207 4.328e-05 0)
(0.001493 3.80248e-05 0)
(0.00116272 3.35783e-05 0)
(0.000868429 2.96305e-05 0)
(0.000609016 2.57188e-05 0)
(0.00038567 2.11992e-05 0)
(0.000202271 1.52629e-05 0)
(6.49594e-05 7.23423e-06 0)
(-1.80764e-05 -2.84639e-06 0)
(-4.30382e-05 -1.39956e-05 0)
(-1.86109e-05 -1.87039e-05 0)
(-3.5014e-06 2.99886e-06 0)
(0.000107145 -0.000111022 0)
(0.000383102 -0.000248858 0)
(0.000808667 -0.000368679 0)
(0.0013532 -0.000456871 0)
(0.00197908 -0.000510567 0)
(0.00264732 -0.000531453 0)
(0.00332145 -0.000523574 0)
(0.00396999 -0.000492334 0)
(0.00456787 -0.000443832 0)
(0.00509714 -0.000384329 0)
(0.00554699 -0.000319762 0)
(0.00591325 -0.000255352 0)
(0.00619742 -0.000195303 0)
(0.00640541 -0.000142632 0)
(0.00654611 -9.91002e-05 0)
(0.00662987 -6.52543e-05 0)
(0.00666713 -4.05489e-05 0)
(0.00666726 -2.35684e-05 0)
(0.00663738 -1.22105e-05 0)
(0.00658173 -3.92235e-06 0)
(0.00650137 3.90613e-06 0)
(0.00639417 1.38005e-05 0)
(0.00625479 2.82116e-05 0)
(0.00607517 4.89548e-05 0)
(0.0058452 7.7364e-05 0)
(0.00555327 0.00011435 0)
(0.0051867 0.000160449 0)
(0.00473222 0.000215997 0)
(0.00417621 0.000281154 0)
(0.00350487 0.000356074 0)
(0.00270435 0.000440927 0)
(0.00176073 0.000535925 0)
(0.000660133 0.000641281 0)
(-0.000611 0.000757149 0)
(-0.00206588 0.000883558 0)
(-0.00371706 0.00102036 0)
(-0.00557587 0.00116716 0)
(-0.00765215 0.00132329 0)
(-0.00995375 0.00148777 0)
(-0.0124861 0.00165927 0)
(-0.0152517 0.00183612 0)
(-0.0182498 0.00201633 0)
(-0.0214758 0.00219758 0)
(-0.0249214 0.00237724 0)
(-0.028574 0.00255243 0)
(-0.0324165 0.00272006 0)
(-0.0364279 0.0028769 0)
(-0.0405827 0.00301962 0)
(-0.0448517 0.00314487 0)
(-0.049202 0.00324938 0)
(-0.0535972 0.00332996 0)
(-0.0579985 0.00338364 0)
(-0.0623648 0.00340766 0)
(-0.0666532 0.00339958 0)
(-0.0708198 0.00335726 0)
(-0.07482 0.00327894 0)
(-0.0786094 0.00316322 0)
(-0.0821439 0.00300914 0)
(-0.0853805 0.00281613 0)
(-0.0882779 0.00258408 0)
(-0.0907964 0.00231332 0)
(-0.0928989 0.00200479 0)
(-0.094551 0.00165993 0)
(-0.0957224 0.00128043 0)
(-0.0963872 0.000867649 0)
(-0.0965238 0.000424465 0)
(-0.0961075 -3.80579e-05 0)
(-0.0951205 -0.000518117 0)
(-0.0935565 -0.00101781 0)
(-0.0914121 -0.00152954 0)
(-0.0886902 -0.00204562 0)
(-0.0854001 -0.00255894 0)
(-0.0815578 -0.0030618 0)
(-0.0771858 -0.00354603 0)
(-0.0723148 -0.0040031 0)
(-0.0669824 -0.00442424 0)
(-0.0612344 -0.0048007 0)
(-0.0551236 -0.00512397 0)
(-0.0487101 -0.00538606 0)
(-0.0420607 -0.00557981 0)
(-0.0352477 -0.00569921 0)
(-0.0283483 -0.0057397 0)
(-0.0214431 -0.00569846 0)
(-0.0146148 -0.00557474 0)
(-0.00794627 -0.00537016 0)
(-0.00151888 -0.00508884 0)
(0.00458848 -0.00473593 0)
(0.0103019 -0.00431819 0)
(0.0155566 -0.0038486 0)
(0.0202965 -0.00333739 0)
(0.0244751 -0.00279774 0)
(0.0280581 -0.00224313 0)
(0.031024 -0.00168736 0)
(0.0333647 -0.00114365 0)
(0.0350853 -0.000624435 0)
(0.0362039 -0.000140686 0)
(0.0367499 0.000298078 0)
(0.0367654 0.000685768 0)
(0.0363 0.00101863 0)
(0.0354087 0.00129387 0)
(0.0341525 0.00151047 0)
(0.0325956 0.00167017 0)
(0.030802 0.00177659 0)
(0.0288339 0.00183462 0)
(0.0267499 0.00185003 0)
(0.0246037 0.00182912 0)
(0.0224425 0.0017784 0)
(0.0203069 0.0017043 0)
(0.01823 0.00161286 0)
(0.0162383 0.00150962 0)
(0.014351 0.00139947 0)
(0.0125815 0.00128661 0)
(0.0109372 0.00117454 0)
(0.00942104 0.00106605 0)
(0.008032 0.000963258 0)
(0.00676599 0.00086756 0)
(0.00561692 0.000779583 0)
(0.00457783 0.000699058 0)
(0.00364204 0.000624684 0)
(0.00280458 0.000553999 0)
(0.0020635 0.000483355 0)
(0.00142108 0.000408139 0)
(0.00088436 0.000323506 0)
(0.000464435 0.000226175 0)
(0.000173758 0.000118289 0)
(1.8143e-05 1.35809e-05 0)
(-1.33777e-05 -4.31774e-05 0)
(1.13711e-05 -8.16442e-05 0)
(0.000236551 -0.000383357 0)
(0.000690103 -0.000705374 0)
(0.0013398 -0.000982458 0)
(0.00214167 -0.00118806 0)
(0.00304635 -0.00131416 0)
(0.00400269 -0.00136274 0)
(0.00496216 -0.00134186 0)
(0.00588222 -0.0012634 0)
(0.00672842 -0.00114135 0)
(0.00747546 -0.000990374 0)
(0.00810734 -0.000824582 0)
(0.00861679 -0.000656548 0)
(0.00900403 -0.000496537 0)
(0.00927518 -0.000352034 0)
(0.00944034 -0.000227536 0)
(0.00951167 -0.000124591 0)
(0.00950139 -4.20528e-05 0)
(0.00942018 2.35487e-05 0)
(0.00927579 7.72506e-05 0)
(0.00907193 0.000125322 0)
(0.00880776 0.000174448 0)
(0.00847785 0.000231148 0)
(0.00807238 0.000301215 0)
(0.00757767 0.000389514 0)
(0.00697702 0.00049974 0)
(0.00625148 0.000634462 0)
(0.00538061 0.000795235 0)
(0.00434304 0.000983122 0)
(0.00311696 0.00119856 0)
(0.00168051 0.00144185 0)
(1.20335e-05 0.00171315 0)
(-0.00190965 0.0020125 0)
(-0.00410494 0.00233974 0)
(-0.00659294 0.00269439 0)
(-0.00939103 0.00307532 0)
(-0.0125142 0.00348086 0)
(-0.0159743 0.00390848 0)
(-0.0197793 0.0043548 0)
(-0.0239326 0.00481547 0)
(-0.0284325 0.00528525 0)
(-0.0332712 0.00575796 0)
(-0.0384348 0.00622664 0)
(-0.0439026 0.00668364 0)
(-0.0496476 0.00712074 0)
(-0.0556359 0.0075294 0)
(-0.0618276 0.00790092 0)
(-0.0681772 0.0082267 0)
(-0.0746341 0.00849845 0)
(-0.0811437 0.00870838 0)
(-0.0876485 0.00884945 0)
(-0.0940886 0.00891546 0)
(-0.100403 0.00890122 0)
(-0.106532 0.00880263 0)
(-0.112414 0.00861668 0)
(-0.117992 0.00834151 0)
(-0.12321 0.00797634 0)
(-0.128014 0.00752145 0)
(-0.132355 0.00697811 0)
(-0.136187 0.00634851 0)
(-0.139469 0.00563575 0)
(-0.142162 0.00484378 0)
(-0.144234 0.00397745 0)
(-0.145657 0.00304229 0)
(-0.146407 0.00204398 0)
(-0.146467 0.000989214 0)
(-0.145814 -0.000110302 0)
(-0.144443 -0.00123999 0)
(-0.142353 -0.00239855 0)
(-0.139543 -0.0035736 0)
(-0.136019 -0.00475392 0)
(-0.131794 -0.00592698 0)
(-0.126887 -0.00707872 0)
(-0.121323 -0.00819423 0)
(-0.115134 -0.00925793 0)
(-0.108359 -0.0102538 0)
(-0.101044 -0.0111654 0)
(-0.0932415 -0.0119767 0)
(-0.0850118 -0.012672 0)
(-0.0764219 -0.0132363 0)
(-0.0675452 -0.0136563 0)
(-0.0584611 -0.0139205 0)
(-0.0492543 -0.0140201 0)
(-0.0400133 -0.013949 0)
(-0.03083 -0.0137048 0)
(-0.0217976 -0.0132888 0)
(-0.0130091 -0.0127069 0)
(-0.00455446 -0.0119686 0)
(0.00347525 -0.011087 0)
(0.0109985 -0.0100798 0)
(0.0179438 -0.00896804 0)
(0.0242444 -0.00777662 0)
(0.0298462 -0.00653098 0)
(0.0347075 -0.0052587 0)
(0.0387998 -0.00398702 0)
(0.0421091 -0.00274306 0)
(0.044636 -0.00155196 0)
(0.0463963 -0.000436294 0)
(0.0474213 0.000585006 0)
(0.0477526 0.00149314 0)
(0.047442 0.00228235 0)
(0.0465534 0.00294398 0)
(0.0451594 0.00347506 0)
(0.0433371 0.00387776 0)
(0.0411657 0.00415827 0)
(0.0387244 0.00432587 0)
(0.0360897 0.00439233 0)
(0.0333334 0.00437104 0)
(0.0305206 0.00427635 0)
(0.0277084 0.00412275 0)
(0.0249451 0.0039243 0)
(0.02227 0.00369415 0)
(0.0197133 0.00344415 0)
(0.0172966 0.00318463 0)
(0.0150339 0.00292425 0)
(0.0129324 0.00266991 0)
(0.0109939 0.00242658 0)
(0.0092162 0.00219713 0)
(0.00759444 0.00198205 0)
(0.00612317 0.00177925 0)
(0.00479804 0.00158384 0)
(0.00361762 0.0013883 0)
(0.00258487 0.00118321 0)
(0.00170785 0.00095904 0)
(0.000998973 0.000709777 0)
(0.000472402 0.00043949 0)
(0.000139265 0.000174264 0)
(-1.94508e-07 -1.29583e-05 0)
(2.30373e-05 -0.000231336 0)
(0.000348519 -0.000797924 0)
(0.000955927 -0.00135131 0)
(0.00179212 -0.00181703 0)
(0.0027978 -0.00215973 0)
(0.00391327 -0.00236728 0)
(0.00507856 -0.00244243 0)
(0.00623713 -0.00239802 0)
(0.00733943 -0.00225352 0)
(0.00834509 -0.00203224 0)
(0.00922414 -0.00175883 0)
(0.00995708 -0.00145719 0)
(0.0105342 -0.00114869 0)
(0.0109542 -0.000850886 0)
(0.0112224 -0.000576634 0)
(0.0113483 -0.000333691 0)
(0.0113437 -0.000124735 0)
(0.0112201 5.22324e-05 0)
(0.0109872 0.000203253 0)
(0.0106505 0.000337347 0)
(0.0102111 0.00046549 0)
(0.0096643 0.000599524 0)
(0.0089998 0.00075104 0)
(0.00820209 0.000930464 0)
(0.00725111 0.00114652 0)
(0.00612315 0.0014059 0)
(0.00479187 0.00171333 0)
(0.00322944 0.00207154 0)
(0.00140708 0.00248255 0)
(-0.000704267 0.00294685 0)
(-0.00313298 0.0034645 0)
(-0.00590648 0.00403502 0)
(-0.00905051 0.00465736 0)
(-0.0125884 0.00532972 0)
(-0.0165404 0.00604926 0)
(-0.0209223 0.00681182 0)
(-0.0257451 0.00761174 0)
(-0.0310133 0.00844162 0)
(-0.0367243 0.00929233 0)
(-0.0428677 0.010153 0)
(-0.0494243 0.011011 0)
(-0.0563661 0.0118525 0)
(-0.0636561 0.0126626 0)
(-0.0712488 0.0134256 0)
(-0.0790907 0.0141254 0)
(-0.0871214 0.0147465 0)
(-0.0952746 0.0152739 0)
(-0.10348 0.0156938 0)
(-0.111665 0.0159939 0)
(-0.119756 0.0161639 0)
(-0.127679 0.0161954 0)
(-0.135362 0.0160823 0)
(-0.142737 0.0158208 0)
(-0.14974 0.0154091 0)
(-0.156309 0.0148474 0)
(-0.162391 0.0141378 0)
(-0.167935 0.013284 0)
(-0.172898 0.012291 0)
(-0.17724 0.011165 0)
(-0.180927 0.00991336 0)
(-0.183932 0.00854409 0)
(-0.18623 0.0070662 0)
(-0.187801 0.00548943 0)
(-0.188631 0.00382402 0)
(-0.18871 0.00208062 0)
(-0.188028 0.000272057 0)
(-0.186578 -0.00158333 0)
(-0.184363 -0.00348038 0)
(-0.181389 -0.00540211 0)
(-0.177664 -0.00733163 0)
(-0.173198 -0.00925205 0)
(-0.168008 -0.0111454 0)
(-0.162114 -0.0129921 0)
(-0.155544 -0.0147717 0)
(-0.148327 -0.0164625 0)
(-0.140502 -0.018042 0)
(-0.132111 -0.0194874 0)
(-0.123204 -0.0207758 0)
(-0.113837 -0.0218848 0)
(-0.104072 -0.0227931 0)
(-0.0939786 -0.0234809 0)
(-0.0836312 -0.0239313 0)
(-0.0731107 -0.0241302 0)
(-0.0625028 -0.0240678 0)
(-0.0518972 -0.0237387 0)
(-0.0413866 -0.0231428 0)
(-0.0310648 -0.0222858 0)
(-0.0210257 -0.0211793 0)
(-0.0113625 -0.0198419 0)
(-0.00216325 -0.0182938 0)
(0.00648836 -0.0165654 0)
(0.0145159 -0.0146896 0)
(0.0218524 -0.0127028 0)
(0.0284402 -0.0106453 0)
(0.0342338 -0.00855686 0)
(0.0392 -0.0064794 0)
(0.0433196 -0.00445219 0)
(0.0465873 -0.0025123 0)
(0.0490099 -0.000693818 0)
(0.0506159 0.00097195 0)
(0.0514427 0.00245783 0)
(0.0515337 0.00375368 0)
(0.0509524 0.00484688 0)
(0.049771 0.00573195 0)
(0.0480683 0.00641095 0)
(0.0459277 0.00689222 0)
(0.0434347 0.00718932 0)
(0.0406743 0.00732 0)
(0.0377281 0.00730508 0)
(0.034672 0.00716724 0)
(0.031574 0.00692981 0)
(0.0284935 0.00661576 0)
(0.0254798 0.00624681 0)
(0.022572 0.00584269 0)
(0.0197999 0.00542066 0)
(0.0171838 0.00499501 0)
(0.0147365 0.00457673 0)
(0.0124645 0.00417301 0)
(0.0103696 0.00378683 0)
(0.00845125 0.00341656 0)
(0.00670849 0.00305578 0)
(0.00514222 0.0026936 0)
(0.00375694 0.00231599 0)
(0.00256184 0.00190861 0)
(0.0015708 0.00146191 0)
(0.000801451 0.000979699 0)
(0.000275652 0.000493582 0)
(1.37992e-05 8.83742e-05 0)
(3.10688e-05 -0.000433145 0)
(0.000436638 -0.00132995 0)
(0.00117011 -0.00215174 0)
(0.00215711 -0.00282504 0)
(0.00332199 -0.00331152 0)
(0.00459423 -0.00359799 0)
(0.00590586 -0.00368974 0)
(0.0071941 -0.00360565 0)
(0.00840453 -0.00337391 0)
(0.00949311 -0.00302816 0)
(0.0104272 -0.00260397 0)
(0.0111852 -0.0021358 0)
(0.011756 -0.00165445 0)
(0.0121371 -0.00118514 0)
(0.0123324 -0.000746287 0)
(0.0123501 -0.000348839 0)
(0.0122001 3.70569e-06 0)
(0.0118914 0.000314706 0)
(0.0114303 0.000593394 0)
(0.0108184 0.000853581 0)
(0.0100517 0.00111191 0)
(0.0091199 0.0013862 0)
(0.00800618 0.00169389 0)
(0.00668814 0.00205063 0)
(0.00513844 0.00246947 0)
(0.00332614 0.00296026 0)
(0.00121755 0.00352997 0)
(-0.00122163 0.00418267 0)
(-0.00402629 0.00492026 0)
(-0.00723097 0.00574296 0)
(-0.0108677 0.00664953 0)
(-0.0149662 0.00763746 0)
(-0.0195521 0.00870274 0)
(-0.024646 0.0098396 0)
(-0.0302624 0.0110401 0)
(-0.0364077 0.0122938 0)
(-0.0430796 0.0135875 0)
(-0.0502658 0.0149054 0)
(-0.0579428 0.0162286 0)
(-0.0660763 0.0175362 0)
(-0.0746204 0.0188054 0)
(-0.0835188 0.0200119 0)
(-0.0927055 0.0211311 0)
(-0.102107 0.0221389 0)
(-0.111642 0.023012 0)
(-0.121229 0.0237296 0)
(-0.130781 0.0242731 0)
(-0.140213 0.0246273 0)
(-0.149443 0.0247805 0)
(-0.158393 0.0247245 0)
(-0.16699 0.0244549 0)
(-0.175167 0.0239704 0)
(-0.182866 0.023273 0)
(-0.190035 0.0223672 0)
(-0.196627 0.0212596 0)
(-0.202605 0.0199589 0)
(-0.207935 0.0184748 0)
(-0.212593 0.0168184 0)
(-0.216554 0.0150014 0)
(-0.219804 0.013036 0)
(-0.222327 0.0109348 0)
(-0.224114 0.00871088 0)
(-0.225157 0.00637752 0)
(-0.225453 0.00394852 0)
(-0.224998 0.00143862 0)
(-0.223787 -0.00113661 0)
(-0.221824 -0.00375976 0)
(-0.219115 -0.00641984 0)
(-0.215664 -0.00909661 0)
(-0.211478 -0.0117709 0)
(-0.206567 -0.0144221 0)
(-0.200943 -0.0170282 0)
(-0.194624 -0.0195656 0)
(-0.187629 -0.0220092 0)
(-0.179983 -0.0243322 0)
(-0.171715 -0.0265069 0)
(-0.162861 -0.0285046 0)
(-0.153461 -0.0302962 0)
(-0.143564 -0.0318528 0)
(-0.133222 -0.0331465 0)
(-0.122497 -0.0341513 0)
(-0.111457 -0.0348438 0)
(-0.100176 -0.0352043 0)
(-0.0887336 -0.0352178 0)
(-0.077216 -0.034875 0)
(-0.0657131 -0.0341728 0)
(-0.0543176 -0.0331153 0)
(-0.0431238 -0.0317143 0)
(-0.0322262 -0.0299892 0)
(-0.0217169 -0.027966 0)
(-0.0116845 -0.0256793 0)
(-0.0022118 -0.0231683 0)
(0.00662419 -0.0204788 0)
(0.0147566 -0.0176602 0)
(0.0221275 -0.0147629 0)
(0.0286893 -0.0118429 0)
(0.0344082 -0.00895151 0)
(0.0392608 -0.00613992 0)
(0.0432367 -0.0034557 0)
(0.0463354 -0.000939889 0)
(0.0485809 0.00136336 0)
(0.0500053 0.00342333 0)
(0.0506433 0.00522336 0)
(0.0505514 0.00674706 0)
(0.0497965 0.00798716 0)
(0.0484537 0.00894571 0)
(0.0466042 0.00963299 0)
(0.0443339 0.0100664 0)
(0.04173 0.0102691 0)
(0.038878 0.0102689 0)
(0.0358593 0.0100965 0)
(0.0327489 0.00978382 0)
(0.029613 0.00936242 0)
(0.0265086 0.00886246 0)
(0.0234819 0.00831135 0)
(0.0205695 0.00773278 0)
(0.0177983 0.0071459 0)
(0.0151869 0.00656445 0)
(0.0127474 0.005996 0)
(0.0104874 0.00544127 0)
(0.00841233 0.00489396 0)
(0.00652754 0.00434115 0)
(0.00484093 0.003765 0)
(0.00336447 0.00314634 0)
(0.00211531 0.0024706 0)
(0.00111728 0.00173727 0)
(0.000406703 0.000974466 0)
(2.69168e-05 0.000262246 0)
(3.65883e-05 -0.000674765 0)
(0.000504238 -0.00195514 0)
(0.0013377 -0.00307554 0)
(0.0024429 -0.00396873 0)
(0.00372789 -0.00459822 0)
(0.00511086 -0.00495336 0)
(0.00651575 -0.0050446 0)
(0.00787417 -0.00489879 0)
(0.00912799 -0.00455434 0)
(0.0102309 -0.00405632 0)
(0.0111491 -0.00345199 0)
(0.0118602 -0.00278679 0)
(0.0123525 -0.00210106 0)
(0.0126227 -0.00142754 0)
(0.0126734 -0.000789783 0)
(0.0125108 -0.000201353 0)
(0.0121416 0.000334096 0)
(0.0115709 0.000822202 0)
(0.0107999 0.00127638 0)
(0.00982432 0.00171602 0)
(0.00863319 0.0021642 0)
(0.00720862 0.00264541 0)
(0.00552604 0.00318332 0)
(0.0035551 0.00379898 0)
(0.00126078 0.0045097 0)
(-0.0013949 0.00532827 0)
(-0.00445168 0.00626312 0)
(-0.0079493 0.0073189 0)
(-0.0119262 0.00849622 0)
(-0.0164182 0.00979346 0)
(-0.0214571 0.0112061 0)
(-0.0270687 0.0127271 0)
(-0.033272 0.0143464 0)
(-0.0400767 0.0160507 0)
(-0.0474822 0.017823 0)
(-0.0554757 0.0196424 0)
(-0.0640316 0.0214841 0)
(-0.0731105 0.0233196 0)
(-0.0826595 0.0251176 0)
(-0.092613 0.0268444 0)
(-0.102894 0.0284658 0)
(-0.113417 0.0299476 0)
(-0.12409 0.0312575 0)
(-0.134817 0.0323657 0)
(-0.145502 0.0332468 0)
(-0.15605 0.0338797 0)
(-0.166374 0.0342485 0)
(-0.176389 0.034343 0)
(-0.186023 0.0341577 0)
(-0.19521 0.033692 0)
(-0.203892 0.0329498 0)
(-0.212024 0.0319382 0)
(-0.219565 0.0306674 0)
(-0.226484 0.0291497 0)
(-0.232757 0.0273988 0)
(-0.238364 0.0254295 0)
(-0.243292 0.0232571 0)
(-0.247529 0.0208973 0)
(-0.251069 0.0183655 0)
(-0.253906 0.0156771 0)
(-0.256037 0.0128472 0)
(-0.25746 0.00989054 0)
(-0.258173 0.0068219 0)
(-0.258175 0.00365639 0)
(-0.257465 0.000411311 0)
(-0.256042 -0.00289446 0)
(-0.253905 -0.00625262 0)
(-0.25106 -0.00964178 0)
(-0.247506 -0.013043 0)
(-0.243244 -0.0164351 0)
(-0.238279 -0.0197954 0)
(-0.232617 -0.0230993 0)
(-0.226266 -0.0263201 0)
(-0.219238 -0.0294286 0)
(-0.211548 -0.0323939 0)
(-0.203215 -0.0351833 0)
(-0.194267 -0.0377622 0)
(-0.184732 -0.0400955 0)
(-0.17465 -0.0421476 0)
(-0.164065 -0.0438836 0)
(-0.153029 -0.0452703 0)
(-0.141602 -0.046277 0)
(-0.129852 -0.0468773 0)
(-0.117854 -0.0470499 0)
(-0.105691 -0.0467798 0)
(-0.0934484 -0.0460598 0)
(-0.0812201 -0.044891 0)
(-0.0691014 -0.0432837 0)
(-0.0571889 -0.0412574 0)
(-0.0455788 -0.038841 0)
(-0.0343649 -0.0360725 0)
(-0.0236363 -0.0329973 0)
(-0.013476 -0.0296686 0)
(-0.00395773 -0.0261434 0)
(0.00484943 -0.0224838 0)
(0.0128892 -0.0187535 0)
(0.0201192 -0.0150166 0)
(0.0265031 -0.0113363 0)
(0.0320176 -0.00777241 0)
(0.0366499 -0.00438 0)
(0.0403979 -0.00120596 0)
(0.0432808 0.00169863 0)
(0.0453229 0.00429823 0)
(0.0465538 0.0065713 0)
(0.0470228 0.00849919 0)
(0.0467898 0.0100737 0)
(0.0459234 0.0112974 0)
(0.0445005 0.0121823 0)
(0.0426034 0.0127494 0)
(0.0403177 0.013027 0)
(0.0377292 0.0130491 0)
(0.0349213 0.0128536 0)
(0.0319719 0.01248 0)
(0.0289515 0.011968 0)
(0.0259218 0.011355 0)
(0.0229347 0.010675 0)
(0.0200321 0.00995661 0)
(0.0172467 0.00922183 0)
(0.0146029 0.00848479 0)
(0.012119 0.00775063 0)
(0.00980913 0.00701505 0)
(0.00768564 0.0062647 0)
(0.00576202 0.00547897 0)
(0.00405522 0.00463381 0)
(0.00258788 0.00370791 0)
(0.00139215 0.00269201 0)
(0.000520188 0.00160238 0)
(3.79243e-05 0.000500867 0)
(4.06964e-05 -0.000946667 0)
(0.000556598 -0.00265287 0)
(0.00146778 -0.0040952 0)
(0.00266218 -0.00521473 0)
(0.00403221 -0.00598038 0)
(0.00548444 -0.00638751 0)
(0.00693469 -0.00645473 0)
(0.00830926 -0.00621936 0)
(0.00954709 -0.00573187 0)
(0.0106007 -0.00505012 0)
(0.011436 -0.0042338 0)
(0.0120311 -0.00333958 0)
(0.0123745 -0.00241712 0)
(0.0124623 -0.00150608 0)
(0.0122958 -0.00063429 0)
(0.0118784 0.000183172 0)
(0.011213 0.000943736 0)
(0.0102993 0.00165647 0)
(0.00913175 0.00234008 0)
(0.00769821 0.0030205 0)
(0.00597922 0.00372794 0)
(0.00394801 0.00449387 0)
(0.00157116 0.00534822 0)
(-0.00118986 0.0063171 0)
(-0.0043773 0.00742122 0)
(-0.00803508 0.00867528 0)
(-0.0122069 0.0100877 0)
(-0.0169344 0.0116617 0)
(-0.0222553 0.0133948 0)
(-0.0282015 0.0152806 0)
(-0.0347974 0.017308 0)
(-0.0420574 0.0194616 0)
(-0.0499841 0.0217211 0)
(-0.0585668 0.0240612 0)
(-0.0677796 0.0264511 0)
(-0.0775806 0.0288553 0)
(-0.0879125 0.0312337 0)
(-0.0987025 0.0335433 0)
(-0.109865 0.0357391 0)
(-0.121304 0.0377761 0)
(-0.132916 0.0396113 0)
(-0.144594 0.0412053 0)
(-0.156234 0.0425238 0)
(-0.167732 0.043539 0)
(-0.178993 0.0442298 0)
(-0.189933 0.0445826 0)
(-0.200474 0.0445906 0)
(-0.210554 0.0442535 0)
(-0.220118 0.0435764 0)
(-0.229124 0.0425692 0)
(-0.237539 0.0412451 0)
(-0.245338 0.0396203 0)
(-0.252504 0.0377125 0)
(-0.259025 0.0355402 0)
(-0.264893 0.0331226 0)
(-0.270104 0.0304785 0)
(-0.274656 0.0276262 0)
(-0.278549 0.0245836 0)
(-0.281783 0.0213675 0)
(-0.28436 0.0179941 0)
(-0.286278 0.014479 0)
(-0.287539 0.0108368 0)
(-0.288141 0.00708231 0)
(-0.288082 0.00323054 0)
(-0.287357 -0.000702015 0)
(-0.285969 -0.00469889 0)
(-0.283913 -0.00874863 0)
(-0.281185 -0.0128306 0)
(-0.27778 -0.0169255 0)
(-0.273695 -0.0210113 0)
(-0.268927 -0.0250641 0)
(-0.263474 -0.0290572 0)
(-0.257337 -0.0329613 0)
(-0.250518 -0.0367442 0)
(-0.243022 -0.040371 0)
(-0.234861 -0.043804 0)
(-0.226049 -0.0470034 0)
(-0.216605 -0.0499276 0)
(-0.206558 -0.0525341 0)
(-0.195943 -0.0547805 0)
(-0.184801 -0.0566253 0)
(-0.173183 -0.0580299 0)
(-0.161151 -0.0589595 0)
(-0.148774 -0.0593849 0)
(-0.136128 -0.0592841 0)
(-0.123301 -0.0586437 0)
(-0.110383 -0.0574601 0)
(-0.0974736 -0.0557405 0)
(-0.0846726 -0.0535035 0)
(-0.0720823 -0.0507789 0)
(-0.0598035 -0.0476076 0)
(-0.0479332 -0.0440406 0)
(-0.036563 -0.0401371 0)
(-0.025776 -0.0359634 0)
(-0.0156478 -0.0315921 0)
(-0.00624188 -0.027094 0)
(0.00238877 -0.0225455 0)
(0.0102015 -0.0180203 0)
(0.0171655 -0.013589 0)
(0.0232595 -0.00931794 0)
(0.0284726 -0.0052671 0)
(0.0328032 -0.00148919 0)
(0.0362668 0.00196269 0)
(0.0388842 0.00505073 0)
(0.0406813 0.00775001 0)
(0.0417017 0.0100411 0)
(0.0419984 0.0119162 0)
(0.041634 0.0133787 0)
(0.0406793 0.0144431 0)
(0.0392121 0.0151338 0)
(0.0373145 0.0154837 0)
(0.0350702 0.0155325 0)
(0.0325618 0.0153243 0)
(0.0298678 0.0149055 0)
(0.0270607 0.0143221 0)
(0.0242048 0.0136174 0)
(0.0213555 0.0128298 0)
(0.0185592 0.0119903 0)
(0.0158533 0.0111209 0)
(0.0132678 0.0102329 0)
(0.0108273 0.00932563 0)
(0.00855325 0.00838689 0)
(0.0064667 0.00739431 0)
(0.00459169 0.00631898 0)
(0.00295829 0.00513136 0)
(0.00160825 0.00380978 0)
(0.000608997 0.00235224 0)
(4.6268e-05 0.000792944 0)
(4.41657e-05 -0.00124227 0)
(0.000598284 -0.00340681 0)
(0.00156864 -0.00518692 0)
(0.00282643 -0.00653282 0)
(0.00424892 -0.00742148 0)
(0.0057313 -0.00785756 0)
(0.00718136 -0.00787107 0)
(0.00852056 -0.00751256 0)
(0.00968563 -0.00684681 0)
(0.0106288 -0.00594592 0)
(0.0113168 -0.00488278 0)
(0.0117289 -0.00372538 0)
(0.0118542 -0.00253215 0)
(0.0116888 -0.00134869 0)
(0.0112322 -0.000205756 0)
(0.0104845 0.000881531 0)
(0.00944337 0.00191337 0)
(0.00810186 0.00290369 0)
(0.00644618 0.00387774 0)
(0.00445495 0.0048689 0)
(0.00209891 0.00591494 0)
(-0.000658369 0.00705427 0)
(-0.00385914 0.00832242 0)
(-0.00754953 0.00974936 0)
(-0.0117773 0.0113576 0)
(-0.0165893 0.0131615 0)
(-0.0220295 0.0151671 0)
(-0.0281362 0.017373 0)
(-0.0349399 0.0197704 0)
(-0.0424611 0.0223437 0)
(-0.0507078 0.0250711 0)
(-0.0596731 0.0279238 0)
(-0.0693337 0.0308663 0)
(-0.0796484 0.0338566 0)
(-0.0905579 0.0368466 0)
(-0.101985 0.0397836 0)
(-0.113839 0.0426119 0)
(-0.126013 0.045275 0)
(-0.138396 0.047718 0)
(-0.150872 0.0498902 0)
(-0.163324 0.0517471 0)
(-0.175642 0.0532523 0)
(-0.187725 0.0543778 0)
(-0.199481 0.0551053 0)
(-0.210834 0.0554253 0)
(-0.221719 0.0553366 0)
(-0.232085 0.054845 0)
(-0.241892 0.0539621 0)
(-0.251113 0.0527043 0)
(-0.259727 0.051091 0)
(-0.267724 0.0491435 0)
(-0.275096 0.0468843 0)
(-0.281841 0.0443363 0)
(-0.287962 0.0415216 0)
(-0.29346 0.0384618 0)
(-0.29834 0.0351773 0)
(-0.302606 0.0316872 0)
(-0.306261 0.0280092 0)
(-0.309309 0.0241599 0)
(-0.311752 0.0201548 0)
(-0.313591 0.0160084 0)
(-0.314826 0.0117345 0)
(-0.315455 0.00734694 0)
(-0.315473 0.00285992 0)
(-0.314876 -0.00171253 0)
(-0.313661 -0.00635869 0)
(-0.311823 -0.01106 0)
(-0.309352 -0.0157999 0)
(-0.30624 -0.0205587 0)
(-0.302479 -0.0253148 0)
(-0.29806 -0.0300434 0)
(-0.292974 -0.0347167 0)
(-0.287213 -0.0393036 0)
(-0.280773 -0.0437695 0)
(-0.273649 -0.048076 0)
(-0.26584 -0.0521814 0)
(-0.257351 -0.0560408 0)
(-0.24819 -0.0596065 0)
(-0.238372 -0.0628291 0)
(-0.22792 -0.0656581 0)
(-0.216863 -0.0680436 0)
(-0.205242 -0.0699374 0)
(-0.193107 -0.0712952 0)
(-0.180519 -0.0720782 0)
(-0.167548 -0.072255 0)
(-0.154277 -0.0718037 0)
(-0.140796 -0.0707136 0)
(-0.127206 -0.0689865 0)
(-0.113612 -0.0666376 0)
(-0.100123 -0.0636961 0)
(-0.0868498 -0.0602045 0)
(-0.0739014 -0.0562182 0)
(-0.0613811 -0.0518032 0)
(-0.0493851 -0.0470345 0)
(-0.0379997 -0.0419939 0)
(-0.0272995 -0.0367653 0)
(-0.0173466 -0.0314356 0)
(-0.00819062 -0.0260891 0)
(0.000131223 -0.0208077 0)
(0.00759293 -0.015668 0)
(0.014179 -0.0107406 0)
(0.0198828 -0.00608865 0)
(0.0247061 -0.00176702 0)
(0.0286641 0.00217169 0)
(0.0317765 0.00568968 0)
(0.0340688 0.00876061 0)
(0.0355801 0.0113663 0)
(0.0363586 0.0135002 0)
(0.0364615 0.0151681 0)
(0.0359544 0.0163871 0)
(0.0349101 0.0171854 0)
(0.0334064 0.0176002 0)
(0.0315238 0.0176763 0)
(0.0293427 0.0174633 0)
(0.0269406 0.0170127 0)
(0.0243901 0.0163754 0)
(0.0217566 0.015598 0)
(0.0190978 0.0147206 0)
(0.0164632 0.0137732 0)
(0.0138946 0.012774 0)
(0.0114275 0.0117275 0)
(0.00909344 0.0106235 0)
(0.0069228 0.0094389 0)
(0.00494819 0.00814008 0)
(0.00320841 0.0066883 0)
(0.00175514 0.00504709 0)
(0.000669167 0.00319209 0)
(5.17415e-05 0.00112419 0)
(4.74603e-05 -0.00155721 0)
(0.000632341 -0.00420403 0)
(0.00164592 -0.00632993 0)
(0.00294312 -0.00789491 0)
(0.00438663 -0.00888646 0)
(0.00586057 -0.00932179 0)
(0.0072653 -0.00924567 0)
(0.0085182 -0.00872494 0)
(0.00955468 -0.00784102 0)
(0.0103276 -0.0066818 0)
(0.0108054 -0.00533405 0)
(0.010969 -0.0038769 0)
(0.0108087 -0.00237671 0)
(0.01032 -0.000883605 0)
(0.00950032 0.000570465 0)
(0.00834558 0.00197231 0)
(0.00684721 0.00332668 0)
(0.00498997 0.00465406 0)
(0.0027506 0.00598746 0)
(9.74343e-05 0.00736839 0)
(-0.00300907 0.00884214 0)
(-0.00661478 0.0104532 0)
(-0.0107697 0.0122413 0)
(-0.0155252 0.0142379 0)
(-0.020931 0.0164646 0)
(-0.0270326 0.0189322 0)
(-0.0338679 0.0216404 0)
(-0.0414647 0.024579 0)
(-0.0498381 0.0277277 0)
(-0.0589876 0.0310572 0)
(-0.0688952 0.0345292 0)
(-0.0795233 0.0380967 0)
(-0.0908143 0.0417049 0)
(-0.10269 0.0452924 0)
(-0.115056 0.0487928 0)
(-0.127801 0.0521378 0)
(-0.140804 0.0552598 0)
(-0.15394 0.0580953 0)
(-0.167083 0.0605876 0)
(-0.180113 0.0626894 0)
(-0.192922 0.0643638 0)
(-0.205411 0.0655856 0)
(-0.217498 0.0663406 0)
(-0.229118 0.0666249 0)
(-0.240219 0.0664437 0)
(-0.250762 0.0658096 0)
(-0.260721 0.0647407 0)
(-0.27008 0.0632594 0)
(-0.278832 0.0613903 0)
(-0.286974 0.0591597 0)
(-0.294508 0.0565939 0)
(-0.301439 0.0537189 0)
(-0.307775 0.0505596 0)
(-0.313523 0.0471395 0)
(-0.31869 0.0434805 0)
(-0.323284 0.0396027 0)
(-0.327312 0.0355244 0)
(-0.330778 0.0312626 0)
(-0.333689 0.0268326 0)
(-0.336046 0.0222485 0)
(-0.337851 0.0175233 0)
(-0.339105 0.0126694 0)
(-0.339805 0.00769908 0)
(-0.339946 0.0026251 0)
(-0.339526 -0.00254005 0)
(-0.33854 -0.0077849 0)
(-0.33698 -0.0130938 0)
(-0.334836 -0.0184506 0)
(-0.332096 -0.0238367 0)
(-0.328749 -0.029231 0)
(-0.324782 -0.034609 0)
(-0.32018 -0.039943 0)
(-0.314928 -0.045201 0)
(-0.309014 -0.0503471 0)
(-0.302423 -0.0553407 0)
(-0.295145 -0.0601371 0)
(-0.287171 -0.0646872 0)
(-0.278495 -0.0689381 0)
(-0.26912 -0.0728338 0)
(-0.259051 -0.076316 0)
(-0.248304 -0.079326 0)
(-0.236905 -0.0818054 0)
(-0.224887 -0.0836989 0)
(-0.212301 -0.084956 0)
(-0.199204 -0.0855338 0)
(-0.185672 -0.0853989 0)
(-0.171791 -0.0845302 0)
(-0.157659 -0.0829204 0)
(-0.143385 -0.0805782 0)
(-0.129086 -0.0775288 0)
(-0.114883 -0.0738139 0)
(-0.1009 -0.0694913 0)
(-0.0872571 -0.0646331 0)
(-0.0740683 -0.059323 0)
(-0.0614378 -0.0536537 0)
(-0.0494569 -0.0477227 0)
(-0.0382023 -0.04163 0)
(-0.0277351 -0.0354739 0)
(-0.0181012 -0.0293487 0)
(-0.00933204 -0.0233429 0)
(-0.00144634 -0.0175372 0)
(0.00554774 -0.0120046 0)
(0.0116507 -0.00680876 0)
(0.0168706 -0.00200414 0)
(0.021225 0.00235976 0)
(0.0247358 0.00624718 0)
(0.0274303 0.00963281 0)
(0.0293459 0.0125013 0)
(0.0305278 0.0148491 0)
(0.0310294 0.0166851 0)