/*--------------------------------*- C++ -*----------------------------------*\
| =========                 |                                                 |
| \\      /  F ield         | OpenFOAM: The Open Source CFD Toolbox           |
|  \\    /   O peration     | Version:  2406                                  |
|   \\  /    A nd           | Website:  www.openfoam.com                      |
|    \\/     M anipulation  |                                                 |
\*---------------------------------------------------------------------------*/
FoamFile
{
    version     2.0;
    format      ascii;
    arch        "LSB;label=32;scalar=64";
    class       surfaceScalarField;
    location    "11.25";
    object      phi;
}
// * * * * * * * * * * * * * * * * * * * * * * * * * * * * * * * * * * * * * //

dimensions      [0 3 -1 0 0 0 0];

oriented        oriented;

internalField   nonuniform List<scalar> 
7080
(
5.73586e-08
-5.74451e-08
2.42241e-08
3.44084e-08
-1.14632e-07
1.38563e-07
-3.47779e-07
2.35044e-07
-6.34501e-07
2.86709e-07
-9.52279e-07
3.19957e-07
-1.28266e-06
3.30667e-07
-1.6195e-06
3.39008e-07
-1.96064e-06
3.41649e-07
-2.30704e-06
3.48464e-07
-2.66103e-06
3.54699e-07
-3.02385e-06
3.64773e-07
-3.39719e-06
3.74223e-07
-3.78051e-06
3.85187e-07
-4.17358e-06
3.9409e-07
-4.57383e-06
4.02026e-07
-4.97892e-06
4.062e-07
-5.38437e-06
4.07117e-07
-5.78582e-06
4.02574e-07
-6.17708e-06
3.92759e-07
-6.55202e-06
3.75982e-07
-6.9031e-06
3.5235e-07
-7.22294e-06
3.20694e-07
-7.50324e-06
2.81253e-07
-7.73611e-06
2.33442e-07
-7.91339e-06
1.77822e-07
-8.02768e-06
1.14481e-07
-8.07208e-06
4.44724e-08
-8.04101e-06
-3.13462e-08
-7.93015e-06
-1.11303e-07
-7.73718e-06
-1.93742e-07
-7.46178e-06
-2.76377e-07
-7.10614e-06
-3.56883e-07
-6.67499e-06
-4.32601e-07
-6.17571e-06
-5.00927e-07
-5.61822e-06
-5.59336e-07
-5.01459e-06
-6.05559e-07
-4.3788e-06
-6.37879e-07
-3.72584e-06
-6.55008e-07
-3.07138e-06
-6.56613e-07
-2.4306e-06
-6.4277e-07
-1.81795e-06
-6.14715e-07
-1.24593e-06
-5.73776e-07
-7.25339e-07
-5.22433e-07
-2.64072e-07
-4.62662e-07
1.31892e-07
-3.97482e-07
4.59617e-07
-3.2867e-07
7.17519e-07
-2.59061e-07
9.06579e-07
-1.89512e-07
1.02807e-06
-1.22301e-07
1.08523e-06
-5.7102e-08
1.08071e-06
4.01759e-09
1.01916e-06
6.20916e-08
9.05158e-07
1.13732e-07
7.46999e-07
1.59126e-07
5.56523e-07
1.90295e-07
3.53217e-07
2.04535e-07
1.67327e-07
1.85604e-07
3.54346e-08
1.33099e-07
3.53927e-08
-3.47908e-08
-2.38512e-08
-2.96825e-07
2.9671e-07
-7.86077e-07
6.25321e-07
-1.46845e-06
9.16945e-07
-2.2779e-06
1.09292e-06
-3.16626e-06
1.20716e-06
-4.0961e-06
1.25702e-06
-5.0478e-06
1.28915e-06
-6.01228e-06
1.30267e-06
-6.9862e-06
1.32054e-06
-7.97056e-06
1.33568e-06
-8.96491e-06
1.35703e-06
-9.96994e-06
1.37596e-06
-1.09826e-05
1.39551e-06
-1.19997e-05
1.40803e-06
-1.30143e-05
1.41414e-06
-1.40188e-05
1.40759e-06
-1.5002e-05
1.38794e-06
-1.59526e-05
1.35024e-06
-1.6856e-05
1.29378e-06
-1.76975e-05
1.21494e-06
-1.84606e-05
1.11341e-06
-1.9129e-05
9.8707e-07
-1.96858e-05
8.36488e-07
-2.0115e-05
6.61268e-07
-2.04013e-05
4.63259e-07
-2.05313e-05
2.43951e-07
-2.04936e-05
6.77693e-09
-2.02798e-05
-2.44753e-07
-1.98846e-05
-5.05455e-07
-1.93071e-05
-7.69836e-07
-1.85504e-05
-1.03112e-06
-1.76226e-05
-1.28229e-06
-1.65366e-05
-1.51571e-06
-1.53103e-05
-1.72393e-06
-1.39662e-05
-1.89987e-06
-1.25306e-05
-2.03731e-06
-1.1033e-05
-2.13149e-06
-9.50471e-06
-2.1791e-06
-7.97802e-06
-2.17924e-06
-6.48413e-06
-2.13253e-06
-5.05271e-06
-2.04234e-06
-3.7098e-06
-1.91293e-06
-2.47797e-06
-1.75103e-06
-1.37453e-06
-1.56293e-06
-4.12805e-07
-1.35675e-06
3.99415e-07
-1.13845e-06
1.05741e-06
-9.15487e-07
1.56113e-06
-6.9157e-07
1.91185e-06
-4.72369e-07
2.11452e-06
-2.58843e-07
2.17425e-06
-5.5957e-08
2.10046e-06
1.3618e-07
1.90421e-06
3.08927e-07
1.60507e-06
4.58139e-07
1.22985e-06
5.63869e-07
8.20603e-07
6.13579e-07
4.31944e-07
5.72389e-07
1.3251e-07
4.32659e-07
1.66745e-07
-1.73002e-07
1.49003e-07
-7.26311e-07
8.52715e-07
-1.61281e-06
1.51134e-06
-2.75766e-06
2.065e-06
-4.07774e-06
2.41341e-06
-5.50509e-06
2.63793e-06
-6.99267e-06
2.74564e-06
-8.51046e-06
2.81033e-06
-1.00445e-05
2.83813e-06
-1.15861e-05
2.86543e-06
-1.31334e-05
2.88479e-06
-1.46825e-05
2.90925e-06
-1.62311e-05
2.92655e-06
-1.77723e-05
2.93978e-06
-1.92992e-05
2.93712e-06
-2.07999e-05
2.91785e-06
-2.22621e-05
2.872e-06
-2.36689e-05
2.7976e-06
-2.50033e-05
2.68686e-06
-2.6245e-05
2.53803e-06
-2.73739e-05
2.34585e-06
-2.83682e-05
2.10989e-06
-2.92072e-05
1.8278e-06
-2.98703e-05
1.50119e-06
-3.03388e-05
1.13085e-06
-3.05954e-05
7.2087e-07
-3.06263e-05
2.75254e-07
-3.04203e-05
-1.99158e-07
-2.99704e-05
-6.95109e-07
-2.92737e-05
-1.2029e-06
-2.83327e-05
-1.71215e-06
-2.71549e-05
-2.21062e-06
-2.57538e-05
-2.68561e-06
-2.41485e-05
-3.12357e-06
-2.23641e-05
-3.51127e-06
-2.04309e-05
-3.83626e-06
-1.8384e-05
-4.08762e-06
-1.62622e-05
-4.25703e-06
-1.41061e-05
-4.33883e-06
-1.19576e-05
-4.33147e-06
-9.85735e-06
-4.23638e-06
-7.8437e-06
-4.0596e-06
-5.95063e-06
-3.80918e-06
-4.20767e-06
-3.49717e-06
-2.6378e-06
-3.13537e-06
-1.25883e-06
-2.73829e-06
-8.17141e-08
-2.31739e-06
8.86667e-07
-1.88577e-06
1.6452e-06
-1.45109e-06
2.19468e-06
-1.02308e-06
2.54055e-06
-6.04869e-07
2.68883e-06
-2.04871e-07
2.65137e-06
1.74281e-07
2.44249e-06
5.17613e-07
2.08825e-06
8.13694e-07
1.62325e-06
1.02887e-06
1.10284e-06
1.13576e-06
5.94689e-07
1.08029e-06
1.9179e-07
8.3745e-07
3.5859e-07
-3.3107e-07
4.77989e-07
-1.20426e-06
1.72749e-06
-2.50328e-06
2.80682e-06
-4.10389e-06
3.66628e-06
-5.90808e-06
4.21415e-06
-7.83303e-06
4.5627e-06
-9.82808e-06
4.73736e-06
-1.18559e-05
4.83742e-06
-1.38997e-05
4.87874e-06
-1.59452e-05
4.90975e-06
-1.79872e-05
4.92389e-06
-2.00169e-05
4.93749e-06
-2.20284e-05
4.93518e-06
-2.40098e-05
4.91956e-06
-2.59502e-05
4.87482e-06
-2.78328e-05
4.7986e-06
-2.96407e-05
4.67741e-06
-3.13527e-05
4.50774e-06
-3.29476e-05
4.27946e-06
-3.44015e-05
3.99019e-06
-3.56916e-05
3.63389e-06
-3.6794e-05
3.21078e-06
-3.76872e-05
2.71934e-06
-3.83503e-05
2.16315e-06
-3.87657e-05
1.54514e-06
-3.89178e-05
8.72422e-07
-3.87952e-05
1.5214e-07
-3.83893e-05
-6.05044e-07
-3.76963e-05
-1.38785e-06
-3.67165e-05
-2.18196e-06
-3.54555e-05
-2.97205e-06
-3.39243e-05
-3.74038e-06
-3.21398e-05
-4.46841e-06
-3.01248e-05
-5.13647e-06
-2.79085e-05
-5.7252e-06
-2.55259e-05
-6.21629e-06
-2.30171e-05
-6.59358e-06
-2.04266e-05
-6.84462e-06
-1.78014e-05
-6.96097e-06
-1.51898e-05
-6.94013e-06
-1.26388e-05
-6.78434e-06
-1.01931e-05
-6.50256e-06
-7.89226e-06
-6.10722e-06
-5.77063e-06
-5.61646e-06
-3.85493e-06
-5.04868e-06
-2.16571e-06
-4.42574e-06
-7.15537e-07
-3.76566e-06
4.87856e-07
-3.08806e-06
1.44338e-06
-2.40524e-06
2.15219e-06
-1.73148e-06
2.62071e-06
-1.07251e-06
2.85596e-06
-4.40415e-07
2.87167e-06
1.59061e-07
2.6841e-06
7.04254e-07
2.32286e-06
1.17522e-06
1.82613e-06
1.52413e-06
1.25572e-06
1.70653e-06
6.86051e-07
1.64809e-06
2.24845e-07
1.29938e-06
5.8223e-07
-4.73717e-07
9.50885e-07
-1.652e-06
2.91011e-06
-3.34687e-06
4.49973e-06
-5.38139e-06
5.70471e-06
-7.63895e-06
6.47092e-06
-1.00215e-05
6.94875e-06
-1.24758e-05
7.19177e-06
-1.4959e-05
7.32385e-06
-1.74528e-05
7.37315e-06
-1.99383e-05
7.39819e-06
-2.24076e-05
7.39415e-06
-2.48467e-05
7.37939e-06
-2.72462e-05
7.33597e-06
-2.95894e-05
7.26535e-06
-3.18614e-05
7.14822e-06
-3.40408e-05
6.98038e-06
-3.61072e-05
6.74542e-06
-3.80359e-05
6.43863e-06
-3.98033e-05
6.04841e-06
-4.13837e-05
5.57254e-06
-4.27537e-05
5.00532e-06
-4.389e-05
4.34869e-06
-4.47725e-05
3.60307e-06
-4.5383e-05
2.77489e-06
-4.57071e-05
1.86998e-06
-4.57328e-05
8.98774e-07
-4.5452e-05
-1.28354e-07
-4.48597e-05
-1.19728e-06
-4.39546e-05
-2.29326e-06
-4.2739e-05
-3.39806e-06
-4.12199e-05
-4.4921e-06
-3.94087e-05
-5.5527e-06
-3.73229e-05
-6.55573e-06
-3.49858e-05
-7.47527e-06
-3.24277e-05
-8.28527e-06
-2.96856e-05
-8.96063e-06
-2.68027e-05
-9.47876e-06
-2.3828e-05
-9.82176e-06
-2.08143e-05
-9.97715e-06
-1.78164e-05
-9.94056e-06
-1.48886e-05
-9.7145e-06
-1.20827e-05
-9.31096e-06
-9.4446e-06
-8.74742e-06
-7.01396e-06
-8.04932e-06
-4.82119e-06
-7.24314e-06
-2.88893e-06
-6.35986e-06
-1.23016e-06
-5.4256e-06
1.48189e-07
-4.46786e-06
1.24693e-06
-3.50457e-06
2.06944e-06
-2.55502e-06
2.62475e-06
-1.62779e-06
2.92204e-06
-7.38418e-07
2.97737e-06
1.04355e-07
2.80863e-06
8.72491e-07
2.44775e-06
1.53727e-06
1.93498e-06
2.03638e-06
1.33625e-06
2.30689e-06
7.31584e-07
2.25193e-06
2.38711e-07
1.7942e-06
8.20679e-07
-6.07759e-07
1.55566e-06
-2.07178e-06
4.37733e-06
-4.13383e-06
6.55696e-06
-6.5669e-06
8.13972e-06
-9.2352e-06
9.1352e-06
-1.20268e-05
9.74122e-06
-1.4887e-05
1.00485e-05
-1.77683e-05
1.02052e-05
-2.06519e-05
1.02537e-05
-2.35146e-05
1.02605e-05
-2.63462e-05
1.0223e-05
-2.91281e-05
1.01604e-05
-3.18472e-05
1.00525e-05
-3.44822e-05
9.89928e-06
-3.70146e-05
9.67838e-06
-3.94194e-05
9.38395e-06
-4.16736e-05
8.9975e-06
-4.37501e-05
8.51378e-06
-4.56245e-05
7.92092e-06
-4.72712e-05
7.21798e-06
-4.86684e-05
6.40098e-06
-4.97957e-05
5.47483e-06
-5.06369e-05
4.44307e-06
-5.11786e-05
3.31578e-06
-5.14116e-05
2.10203e-06
-5.13286e-05
8.15373e-07
-5.09259e-05
-5.31433e-07
-5.0201e-05
-1.92216e-06
-4.91538e-05
-3.34028e-06
-4.77858e-05
-4.76556e-06
-4.61014e-05
-6.17587e-06
-4.41082e-05
-7.54488e-06
-4.18192e-05
-8.84357e-06
-3.92534e-05
-1.00396e-05
-3.64378e-05
-1.10993e-05
-3.34078e-05
-1.19889e-05
-3.02078e-05
-1.26768e-05
-2.68907e-05
-1.31369e-05
-2.35161e-05
-1.33497e-05
-2.0148e-05
-1.33066e-05
-1.68515e-05
-1.30089e-05
-1.36897e-05
-1.2471e-05
-1.0719e-05
-1.17161e-05
-7.98799e-06
-1.07788e-05
-5.53312e-06
-9.69626e-06
-3.38021e-06
-8.51161e-06
-1.54233e-06
-7.26203e-06
-2.41167e-08
-5.9854e-06
1.17949e-06
-4.70705e-06
2.0769e-06
-3.45228e-06
2.6826e-06
-2.23264e-06
3.01048e-06
-1.06668e-06
3.08077e-06
3.47378e-08
2.9142e-06
1.03816e-06
2.54509e-06
1.90702e-06
2.01541e-06
2.56468e-06
1.3934e-06
2.92972e-06
7.63093e-07
2.88039e-06
2.4793e-07
2.31052e-06
1.06745e-06
-7.23693e-07
2.27779e-06
-2.44193e-06
6.10145e-06
-4.83271e-06
8.94437e-06
-7.62337e-06
1.09352e-05
-1.06588e-05
1.21688e-05
-1.38136e-05
1.29e-05
-1.70307e-05
1.32649e-05
-2.02587e-05
1.34365e-05
-2.34784e-05
1.34733e-05
-2.66631e-05
1.34481e-05
-2.98007e-05
1.3361e-05
-3.28681e-05
1.32305e-05
-3.58498e-05
1.3035e-05
-3.87203e-05
1.27721e-05
-4.14586e-05
1.24176e-05
-4.40365e-05
1.19639e-05
-4.64296e-05
1.13917e-05
-4.86098e-05
1.06959e-05
-5.05537e-05
9.86596e-06
-5.22376e-05
8.90356e-06
-5.36439e-05
7.80827e-06
-5.47572e-05
6.58943e-06
-5.55684e-05
5.25511e-06
-5.60713e-05
3.81967e-06
-5.62641e-05
2.29544e-06
-5.6146e-05
6.97905e-07
-5.57175e-05
-9.59779e-07
-5.49773e-05
-2.66227e-06
-5.3923e-05
-4.39473e-06
-5.25503e-05
-6.13857e-06
-5.08545e-05
-7.87238e-06
-4.88314e-05
-9.56874e-06
-4.6481e-05
-1.1195e-05
-4.38096e-05
-1.27122e-05
-4.08332e-05
-1.4077e-05
-3.75801e-05
-1.52436e-05
-3.4092e-05
-1.61665e-05
-3.04252e-05
-1.68053e-05
-2.66486e-05
-1.7128e-05
-2.2841e-05
-1.7116e-05
-1.90864e-05
-1.67651e-05
-1.54685e-05
-1.60905e-05
-1.20645e-05
-1.51215e-05
-8.9405e-06
-1.39044e-05
-6.14625e-06
-1.24916e-05
-3.71524e-06
-1.0944e-05
-1.66226e-06
-9.3157e-06
1.12636e-08
-7.66007e-06
1.31757e-06
-6.01361e-06
2.27421e-06
-4.40985e-06
2.9057e-06
-2.86392e-06
3.23494e-06
-1.39671e-06
3.29e-06
-1.96383e-08
3.09717e-06
1.23024e-06
2.69499e-06
2.31035e-06
2.12824e-06
3.13056e-06
1.46799e-06
3.59158e-06
8.02155e-07
3.54499e-06
2.59283e-07
2.85538e-06
1.32622e-06
-8.29223e-07
3.10328e-06
-2.77509e-06
8.05191e-06
-5.45801e-06
1.16212e-05
-8.56516e-06
1.40454e-05
-1.19236e-05
1.55224e-05
-1.53961e-05
1.63742e-05
-1.89235e-05
1.67885e-05
-2.24509e-05
1.69646e-05
-2.59588e-05
1.6978e-05
-2.94176e-05
1.6907e-05
-3.28135e-05
1.67541e-05
-3.61202e-05
1.65368e-05
-3.93195e-05
1.62318e-05
-4.23828e-05
1.58348e-05
-4.52872e-05
1.53198e-05
-4.80025e-05
1.46784e-05
-5.05042e-05
1.38914e-05
-5.27646e-05
1.29555e-05
-5.47635e-05
1.18631e-05
-5.64817e-05
1.06209e-05
-5.79092e-05
9.23434e-06
-5.90401e-05
7.71954e-06
-5.9877e-05
6.09088e-06
-6.04257e-05
4.36769e-06
-6.06957e-05
2.56473e-06
-6.0695e-05
6.96826e-07
-6.04284e-05
-1.22682e-06
-5.98932e-05
-3.19751e-06
-5.90792e-05
-5.20867e-06
-5.79674e-05
-7.25005e-06
-5.65324e-05
-9.30698e-06
-5.47451e-05
-1.13555e-05
-5.25775e-05
-1.33618e-05
-5.00087e-05
-1.52801e-05
-4.703e-05
-1.70546e-05
-4.36513e-05
-1.86211e-05
-3.99047e-05
-1.99119e-05
-3.5847e-05
-2.08618e-05
-3.15591e-05
-2.14144e-05
-2.71433e-05
-2.15305e-05
-2.27154e-05
-2.11917e-05
-1.83971e-05
-2.04077e-05
-1.43045e-05
-1.92126e-05
-1.05402e-05
-1.76678e-05
-7.18242e-06
-1.5848e-05
-4.28366e-06
-1.38421e-05
-1.86651e-06
-1.17317e-05
6.98682e-08
-9.59611e-06
1.54812e-06
-7.49089e-06
2.60102e-06
-5.46281e-06
3.27051e-06
-3.53255e-06
3.59604e-06
-1.72274e-06
3.62017e-06
-4.29493e-08
3.38006e-06
1.46939e-06
2.92229e-06
2.76903e-06
2.29679e-06
3.75464e-06
1.57893e-06
4.31063e-06
8.60983e-07
4.26099e-06
2.77767e-07
3.44014e-06
1.60284e-06
-9.20175e-07
4.02131e-06
-3.06515e-06
1.02041e-05
-6.0041e-06
1.45557e-05
-9.38892e-06
1.7436e-05
-1.30306e-05
1.91615e-05
-1.67815e-05
2.01296e-05
-2.05801e-05
2.05857e-05
-2.43682e-05
2.07564e-05
-2.81264e-05
2.07356e-05
-3.18223e-05
2.06059e-05
-3.54412e-05
2.0373e-05
-3.89538e-05
2.0052e-05
-4.23406e-05
1.9619e-05
-4.55705e-05
1.9067e-05
-4.86194e-05
1.83695e-05
-5.14567e-05
1.75177e-05
-5.40588e-05
1.64943e-05
-5.64012e-05
1.52997e-05
-5.84697e-05
1.39324e-05
-6.02546e-05
1.24073e-05
-6.17595e-05
1.07401e-05
-6.29958e-05
8.95701e-06
-6.39856e-05
7.08144e-06
-6.47549e-05
5.1379e-06
-6.5331e-05
3.14121e-06
-6.57334e-05
1.09987e-06
-6.59709e-05
-9.89203e-07
-6.60337e-05
-3.13448e-06
-6.58935e-05
-5.34903e-06
-6.55015e-05
-7.64225e-06
-6.47929e-05
-1.0016e-05
-6.36916e-05
-1.24574e-05
-6.21188e-05
-1.49353e-05
-6.00026e-05
-1.73973e-05
-5.72881e-05
-1.97701e-05
-5.39481e-05
-2.19622e-05
-4.99916e-05
-2.38696e-05
-4.54695e-05
-2.53852e-05
-4.04762e-05
-2.64089e-05
-3.51472e-05
-2.68608e-05
-2.96493e-05
-2.66907e-05
-2.41684e-05
-2.58899e-05
-1.88913e-05
-2.44907e-05
-1.39893e-05
-2.25711e-05
-9.59991e-06
-2.02381e-05
-5.81876e-06
-1.76243e-05
-2.6918e-06
-1.4859e-05
-2.22114e-07
-1.20668e-05
1.62558e-06
-9.3386e-06
2.90768e-06
-6.7458e-06
3.69548e-06
-4.31998e-06
4.05773e-06
-2.08586e-06
4.06346e-06
-4.79046e-08
3.77049e-06
1.7614e-06
3.24111e-06
3.29965e-06
2.53551e-06
4.45903e-06
1.73736e-06
5.11051e-06
9.45679e-07
5.05103e-06
3.04965e-07
4.08303e-06
1.90702e-06
-1.00264e-06
5.01958e-06
-3.32418e-06
1.25313e-05
-6.48847e-06
1.77128e-05
-1.0117e-05
2.10684e-05
-1.40068e-05
2.30459e-05
-1.80014e-05
2.41265e-05
-2.20375e-05
2.46175e-05
-2.60544e-05
2.47745e-05
-3.00326e-05
2.47104e-05
-3.39379e-05
2.45117e-05
-3.77548e-05
2.4187e-05
-4.1452e-05
2.37492e-05
-4.5009e-05
2.31735e-05
-4.83931e-05
2.24507e-05
-5.15805e-05
2.15547e-05
-5.45409e-05
2.04774e-05
-5.72546e-05
1.92062e-05
-5.97039e-05
1.77482e-05
-6.18866e-05
1.61135e-05
-6.38113e-05
1.43312e-05
-6.55065e-05
1.24339e-05
-6.70138e-05
1.04636e-05
-6.83891e-05
8.45565e-06
-6.96902e-05
6.43836e-06
-7.097e-05
4.42028e-06
-7.22628e-05
2.39226e-06
-7.35762e-05
3.23766e-07
-7.48824e-05
-1.82843e-06
-7.61165e-05
-4.11516e-06
-7.71761e-05
-6.58248e-06
-7.79289e-05
-9.2632e-06
-7.82202e-05
-1.21657e-05
-7.7888e-05
-1.52672e-05
-7.67768e-05
-1.8508e-05
-7.47556e-05
-2.17907e-05
-7.17341e-05
-2.4983e-05
-6.76774e-05
-2.79255e-05
-6.26176e-05
-3.04443e-05
-5.66589e-05
-3.23667e-05
-4.99774e-05
-3.35416e-05
-4.28108e-05
-3.38565e-05
-3.54418e-05
-3.32583e-05
-2.81711e-05
-3.17604e-05
-2.12901e-05
-2.94516e-05
-1.50475e-05
-2.64798e-05
-9.6284e-06
-2.30431e-05
-5.13669e-06
-1.93498e-05
-1.59849e-06
-1.56049e-05
1.03062e-06
-1.19668e-05
2.83989e-06
-8.55534e-06
3.94737e-06
-5.42658e-06
4.47187e-06
-2.61101e-06
4.52934e-06
-1.04407e-07
4.21562e-06
2.07405e-06
3.62248e-06
3.89397e-06
2.83003e-06
5.24991e-06
1.93719e-06
6.00492e-06
1.05431e-06
5.93173e-06
3.40594e-07
4.79877e-06
2.24637e-06
-1.07387e-06
6.09091e-06
-3.5502e-06
1.50159e-05
-6.91235e-06
2.10696e-05
-1.07552e-05
2.49178e-05
-1.48639e-05
2.71513e-05
-1.90744e-05
2.83421e-05
-2.33221e-05
2.88633e-05
-2.75444e-05
2.90008e-05
-3.17218e-05
2.8887e-05
-3.5819e-05
2.86121e-05
-3.98202e-05
2.8188e-05
-4.36928e-05
2.76246e-05
-4.7416e-05
2.68969e-05
-5.09568e-05
2.59938e-05
-5.42926e-05
2.48909e-05
-5.73965e-05
2.35834e-05
-6.02567e-05
2.20671e-05
-6.28693e-05
2.03625e-05
-6.52553e-05
1.85003e-05
-6.74568e-05
1.65342e-05
-6.9546e-05
1.45238e-05
-7.16153e-05
1.25342e-05
-7.3773e-05
1.06139e-05
-7.61226e-05
8.78891e-06
-7.87491e-05
7.04722e-06
-8.16975e-05
5.34123e-06
-8.49616e-05
3.58808e-06
-8.84731e-05
1.68339e-06
-9.21015e-05
-4.86795e-07
-9.56566e-05
-3.0275e-06
-9.89001e-05
-6.02e-06
-0.000101561
-9.50553e-06
-0.000103354
-1.34741e-05
-0.000104007
-1.7856e-05
-0.000103278
-2.25194e-05
-0.000100988
-2.72742e-05
-9.70323e-05
-3.18818e-05
-9.14055e-05
-3.6072e-05
-8.42087e-05
-3.95644e-05
-7.56548e-05
-4.20965e-05
-6.60615e-05
-4.34506e-05
-5.58342e-05
-4.34867e-05
-4.54333e-05
-4.21621e-05
-3.53333e-05
-3.95528e-05
-2.59703e-05
-3.58433e-05
-1.76971e-05
-3.13174e-05
-1.07436e-05
-2.63035e-05
-5.20622e-06
-2.11432e-05
-1.05276e-06
-1.61201e-05
1.84199e-06
-1.1451e-05
3.66394e-06
-7.24801e-06
4.6125e-06
-3.56054e-06
4.88322e-06
-3.74203e-07
4.6393e-06
2.3168e-06
4.02596e-06
4.50871e-06
3.16052e-06
6.11382e-06
2.16978e-06
6.99764e-06
1.18374e-06
6.91563e-06
3.83786e-07
5.60128e-06
2.62908e-06
-1.13901e-06
7.22495e-06
-3.75331e-06
1.76367e-05
-7.2908e-06
2.4599e-05
-1.13235e-05
2.8955e-05
-1.56267e-05
3.14483e-05
-2.00305e-05
3.27486e-05
-2.44694e-05
3.32975e-05
-2.88796e-05
3.34125e-05
-3.32425e-05
3.32461e-05
-3.75218e-05
3.28921e-05
-4.17023e-05
3.23654e-05
-4.57508e-05
3.16731e-05
-4.9647e-05
3.07904e-05
-5.33587e-05
2.97052e-05
-5.6867e-05
2.8397e-05
-6.01527e-05
2.68685e-05
-6.32198e-05
2.51321e-05
-6.60911e-05
2.32331e-05
-6.88298e-05
2.12373e-05
-7.15358e-05
1.92394e-05
-7.43529e-05
1.73395e-05
-7.74509e-05
1.56315e-05
-8.10104e-05
1.41722e-05
-8.51901e-05
1.2968e-05
-9.01028e-05
1.19591e-05
-9.57874e-05
1.10253e-05
-0.000102195
9.99528e-06
-0.00010918
8.66848e-06
-0.000116505
6.83726e-06
-0.000123846
4.31334e-06
-0.000130816
9.5091e-07
-0.00013699
-3.33132e-06
-0.00014193
-8.53409e-06
-0.000145217
-1.45677e-05
-0.000146486
-2.12501e-05
-0.000145446
-2.83135e-05
-0.000141909
-3.54174e-05
-0.00013581
-4.21695e-05
-0.000127223
-4.81505e-05
-0.000116371
-5.29481e-05
-0.000103629
-5.61908e-05
-8.9521e-05
-5.75945e-05
-7.46838e-05
-5.69985e-05
-5.98275e-05
-5.4409e-05
-4.56612e-05
-5.0009e-05
-3.28163e-05
-4.41624e-05
-2.17653e-05
-3.73539e-05
-1.27747e-05
-3.01341e-05
-5.88871e-06
-2.30053e-05
-9.6791e-07
-1.63723e-05
2.25628e-06
-1.04713e-05
4.10209e-06
-5.40716e-06
4.89233e-06
-1.16333e-06
4.90356e-06
2.30434e-06
4.37329e-06
5.04043e-06
3.48521e-06
7.0001e-06
2.41489e-06
8.06996e-06
1.32592e-06
8.00204e-06
4.32626e-07
6.49718e-06
3.06026e-06
-1.19533e-06
8.41754e-06
-3.93168e-06
2.03823e-05
-7.62501e-06
2.82865e-05
-1.18273e-05
3.31646e-05
-1.63056e-05
3.59231e-05
-2.08855e-05
3.73342e-05
-2.55014e-05
3.79113e-05
-3.00889e-05
3.80045e-05
-3.46306e-05
3.77867e-05
-3.90902e-05
3.73553e-05
-4.34534e-05
3.67283e-05
-4.76872e-05
3.59099e-05
-5.17732e-05
3.48766e-05
-5.56822e-05
3.36168e-05
-5.94033e-05
3.21187e-05
-6.2933e-05
3.04004e-05
-6.63045e-05
2.85044e-05
-6.95892e-05
2.65198e-05
-7.29216e-05
2.45705e-05
-7.64939e-05
2.28134e-05
-8.05554e-05
2.14018e-05
-8.53787e-05
2.04562e-05
-9.12277e-05
2.00219e-05
-9.83088e-05
2.00502e-05
-0.000106737
2.03881e-05
-0.000116506
2.07944e-05
-0.000127473
2.0963e-05
-0.000139361
2.05573e-05
-0.00015177
1.9246e-05
-0.000164195
1.67393e-05
-0.000176066
1.28224e-05
-0.00018678
7.38258e-06
-0.000195741
4.27696e-07
-0.0002024
-7.90831e-06
-0.00020628
-1.73695e-05
-0.000207001
-2.7592e-05
-0.000204296
-3.81216e-05
-0.000198028
-4.84368e-05
-0.000188206
-5.7971e-05
-0.000175009
-6.61448e-05
-0.0001588
-7.23994e-05
-0.000140145
-7.62493e-05
-0.000119809
-7.73342e-05
-9.87256e-05
-7.54925e-05
-7.79278e-05
-7.08068e-05
-5.84406e-05
-6.36506e-05
-4.11443e-05
-5.46502e-05
-2.66548e-05
-4.46247e-05
-1.52413e-05
-3.44186e-05
-6.83753e-06
-2.47771e-05
-1.11067e-06
-1.61975e-05
2.41011e-06
-8.92903e-06
4.23637e-06
-2.98854e-06
4.82499e-06
1.71437e-06
4.56578e-06
5.30122e-06
3.75516e-06
7.80887e-06
2.65121e-06
9.1762e-06
1.47359e-06
9.17702e-06
4.85743e-07
7.48808e-06
3.5446e-06
-1.24754e-06
9.65952e-06
-4.09347e-06
2.32352e-05
-7.92638e-06
3.21104e-05
-1.22813e-05
3.75243e-05
-1.69188e-05
4.05538e-05
-2.16612e-05
4.20794e-05
-2.64435e-05
4.26883e-05
-3.12018e-05
4.27643e-05
-3.59201e-05
4.25009e-05
-4.05632e-05
4.19989e-05
-4.51182e-05
4.12799e-05
-4.95538e-05
4.03454e-05
-5.38549e-05
3.91748e-05
-5.79992e-05
3.77607e-05
-6.1991e-05
3.61079e-05
-6.58556e-05
3.42643e-05
-6.96784e-05
3.2325e-05
-7.36113e-05
3.04517e-05
-7.78998e-05
2.88571e-05
-8.2869e-05
2.77817e-05
-8.89041e-05
2.74352e-05
-9.63917e-05
2.79428e-05
-0.000105665
2.92937e-05
-0.000116939
3.13237e-05
-0.000130275
3.37226e-05
-0.000145548
3.6067e-05
-0.00016245
3.7865e-05
-0.0001805
3.86073e-05
-0.000199074
3.78198e-05
-0.000217448
3.51146e-05
-0.000234859
3.02332e-05
-0.000250549
2.30745e-05
-0.000263825
1.37043e-05
-0.000274077
2.34496e-06
-0.000280799
-1.06451e-05
-0.000283591
-2.47989e-05
-0.000282149
-3.95612e-05
-0.000276274
-5.43099e-05
-0.000265878
-6.83654e-05
-0.00025101
-8.10109e-05
-0.000231899
-9.15082e-05
-0.000209
-9.91458e-05
-0.000183042
-0.00010329
-0.000155045
-0.000103488
-0.000126297
-9.95534e-05
-9.8254e-05
-9.16933e-05
-7.23649e-05
-8.05385e-05
-4.98501e-05
-6.71399e-05
-3.14862e-05
-5.27818e-05
-1.75044e-05
-3.87597e-05
-7.62273e-06
-2.60783e-05
-1.2246e-06
-1.53281e-05
2.45365e-06
-6.66557e-06
4.13895e-06
2.7694e-08
4.46111e-06
4.98073e-06
3.89998e-06
8.36798e-06
2.8482e-06
1.02304e-05
1.61642e-06
1.04058e-05
5.41347e-07
8.56637e-06
4.08427e-06
-1.29199e-06
1.09487e-05
-4.23498e-06
2.61884e-05
-8.19299e-06
3.60622e-05
-1.26862e-05
4.20256e-05
-1.74702e-05
4.53341e-05
-2.23652e-05
4.69807e-05
-2.73074e-05
4.76285e-05
-3.2234e-05
4.76959e-05
-3.71314e-05
4.73973e-05
-4.19657e-05
4.68372e-05
-4.67269e-05
4.60409e-05
-5.13865e-05
4.50085e-05
-5.59363e-05
4.37249e-05
-6.0367e-05
4.21942e-05
-6.47101e-05
4.04517e-05
-6.90416e-05
3.85984e-05
-7.35313e-05
3.68156e-05
-7.84547e-05
3.53772e-05
-8.42136e-05
3.46171e-05
-9.13005e-05
3.48705e-05
-0.000100246
3.6382e-05
-0.000111528
3.92263e-05
-0.000125492
4.32588e-05
-0.000142282
4.81151e-05
-0.000161806
5.32472e-05
-0.000183721
5.79834e-05
-0.000207454
6.1599e-05
-0.000232237
6.33915e-05
-0.000257175
6.27585e-05
-0.000281324
5.92648e-05
-0.00030378
5.26897e-05
-0.000323741
4.30364e-05
-0.000340549
3.05123e-05
-0.000353688
1.54842e-05
-0.000362767
-1.56617e-06
-0.000367482
-2.00845e-05
-0.000367582
-3.94623e-05
-0.000362843
-5.90493e-05
-0.000353068
-7.81401e-05
-0.000338108
-9.59711e-05
-0.000317914
-0.000111702
-0.000292619
-0.00012444
-0.000262643
-0.000133264
-0.000228797
-0.000137333
-0.000192344
-0.000136004
-0.000155001
-0.000129036
-0.000118788
-0.00011675
-8.57559e-05
-0.000100172
-5.75911e-05
-8.0946e-05
-3.52692e-05
-6.10826e-05
-1.88934e-05
-4.24534e-05
-7.84338e-06
-2.63794e-05
-1.08109e-06
-1.34268e-05
2.49531e-06
-3.55016e-06
3.87817e-06
3.59956e-06
3.83537e-06
8.40872e-06
2.97286e-06
1.10954e-05
1.74539e-06
1.16302e-05
5.98766e-07
9.71653e-06
4.68133e-06
-1.33329e-06
1.22758e-05
-4.36277e-06
2.9225e-05
-8.43256e-06
4.01221e-05
-1.30508e-05
4.66487e-05
-1.79699e-05
5.02456e-05
-2.30085e-05
5.20221e-05
-2.81054e-05
5.27195e-05
-3.31993e-05
5.27912e-05
-3.82798e-05
5.24731e-05
-4.33155e-05
5.18733e-05
-4.83004e-05
5.10219e-05
-5.32116e-05
4.99194e-05
-5.80521e-05
4.85621e-05
-6.28357e-05
4.69772e-05
-6.76397e-05
4.52527e-05
-7.26211e-05
4.35788e-05
-7.80769e-05
4.22689e-05
-8.44536e-05
4.17527e-05
-9.23474e-05
4.25086e-05
-0.000102427
4.49491e-05
-0.000115338
4.92903e-05
-0.000131572
5.54592e-05
-0.000151381
6.30664e-05
-0.000174709
7.14421e-05
-0.000201176
7.97132e-05
-0.00023009
8.68971e-05
-0.000260502
9.20111e-05
-0.000291295
9.41843e-05
-0.000321307
9.27699e-05
-0.000349461
8.74185e-05
-0.000374871
7.80987e-05
-0.000396888
6.50532e-05
-0.000415102
4.87239e-05
-0.000429283
2.96639e-05
-0.000439324
8.47179e-06
-0.000445154
-1.42573e-05
-0.00044668
-3.79394e-05
-0.000443732
-6.20006e-05
-0.00043604
-8.58343e-05
-0.000423242
-0.000108772
-0.000404928
-0.000130019
-0.000380732
-0.000148638
-0.000350478
-0.000163518
-0.00031436
-0.000173451
-0.000273141
-0.000177221
-0.000228305
-0.000173871
-0.000182088
-0.000162964
-0.000137296
-0.000144964
-9.68303e-05
-0.00012141
-6.30411e-05
-9.48723e-05
-3.71147e-05
-6.83788e-05
-1.89045e-05
-4.45906e-05
-7.24941e-06
-2.50807e-05
-5.96933e-07
-1.0204e-05
2.56604e-06
4.38257e-07
3.44651e-06
7.52617e-06
2.98133e-06
1.15632e-05
1.84894e-06
1.27593e-05
6.57459e-07
1.09117e-05
5.33692e-06
-1.36622e-06
1.36395e-05
-4.47006e-06
3.234e-05
-8.63852e-06
4.42844e-05
-1.33697e-05
5.13889e-05
-1.84137e-05
5.5286e-05
-2.3589e-05
5.72045e-05
-2.8837e-05
5.79657e-05
-3.40989e-05
5.80587e-05
-3.93681e-05
5.77416e-05
-4.46169e-05
5.71268e-05
-4.98451e-05
5.62502e-05
-5.50389e-05
5.5117e-05
-6.02203e-05
5.37442e-05
-6.5441e-05
5.22012e-05
-7.08502e-05
5.0663e-05
-7.67253e-05
4.94569e-05
-8.35378e-05
4.90827e-05
-9.19455e-05
5.01631e-05
-0.000102749
5.33137e-05
-0.000116756
5.89579e-05
-0.00013463
6.71666e-05
-0.000156748
7.75786e-05
-0.000183105
8.9425e-05
-0.000213277
0.000101617
-0.000246436
0.000112873
-0.000281402
0.000121865
-0.000316776
0.000127385
-0.000351109
0.000128518
-0.000383111
0.000124771
-0.000411796
0.000116102
-0.000436557
0.000102858
-0.000457148
8.5642e-05
-0.000473607
6.51801e-05
-0.000486148
4.22013e-05
-0.000495052
1.73727e-05
-0.000500572
-8.74134e-06
-0.000502849
-3.56663e-05
-0.000501852
-6.30019e-05
-0.000497334
-9.03561e-05
-0.000488812
-0.0001173
-0.000475575
-0.00014326
-0.00045675
-0.000167468
-0.000431428
-0.000188845
-0.000398874
-0.000206008
-0.000358827
-0.000217271
-0.000311828
-0.000220871
-0.000259533
-0.000215257
-0.000204828
-0.000199668
-0.000151586
-0.00017465
-0.000103924
-0.000142534
-6.50744e-05
-0.000107227
-3.64166e-05
-7.32494e-05
-1.72982e-05
-4.41982e-05
-5.83187e-06
-2.16717e-05
1.75746e-07
-5.56791e-06
2.5782e-06
5.12173e-06
2.81713e-06
1.13268e-05
1.9139e-06
1.36593e-05
7.1772e-07
1.21116e-05
6.05275e-06
-1.39575e-06
1.50284e-05
-4.56244e-06
3.55137e-05
-8.81557e-06
4.85267e-05
-1.36463e-05
5.62242e-05
-1.88037e-05
6.04351e-05
-2.41071e-05
6.25104e-05
-2.95011e-05
6.33531e-05
-3.49304e-05
6.34889e-05
-4.03929e-05
6.31988e-05
-4.58661e-05
6.26e-05
-5.13582e-05
6.17378e-05
-5.68697e-05
6.06279e-05
-6.24524e-05
5.9323e-05
-6.82158e-05
5.79635e-05
-7.44137e-05
5.68574e-05
-8.14867e-05
5.65285e-05
-9.01213e-05
5.77141e-05
-0.0001012
6.12399e-05
-0.000115688
6.77988e-05
-0.000134427
7.76953e-05
-0.000157949
9.06863e-05
-0.000186325
0.000105953
-0.000219105
0.000122203
-0.00025531
0.00013782
-0.000293505
0.000151066
-0.000331952
0.00016031
-0.00036886
0.000164292
-0.000402671
0.000162327
-0.00043228
0.000154378
-0.000457127
0.000140947
-0.000477162
0.000122891
-0.000492717
0.000101195
-0.000504357
7.68194e-05
-0.000512739
5.05825e-05
-0.000518495
2.31288e-05
-0.000522152
-5.08402e-06
-0.000524074
-3.37439e-05
-0.000524411
-6.2664e-05
-0.000523059
-9.17078e-05
-0.000519604
-0.000120755
-0.000513285
-0.00014958
-0.000502973
-0.000177783
-0.000487219
-0.000204602
-0.000464389
-0.000228843
-0.000432958
-0.000248706
-0.000391935
-0.000261899
-0.000341425
-0.000265769
-0.000283169
-0.000257925
-0.000220844
-0.000236973
-0.000159766
-0.000203612
-0.000105699
-0.000161291
-6.29881e-05
-0.000115961
-3.2993e-05
-7.41923e-05
-1.42241e-05
-4.04416e-05
-3.81114e-06
-1.59797e-05
9.96621e-07
3.12229e-07
2.39256e-06
9.9331e-06
1.91743e-06
1.41312e-05
7.78484e-07
1.32543e-05
6.82936e-06
-1.41453e-06
1.64407e-05
-4.62935e-06
3.87406e-05
-8.9519e-06
5.28435e-05
-1.38683e-05
6.11504e-05
-1.91277e-05
6.56914e-05
-2.45507e-05
6.79412e-05
-3.00854e-05
6.88866e-05
-3.56806e-05
6.90904e-05
-4.13397e-05
6.88578e-05
-4.70472e-05
6.83128e-05
-5.28227e-05
6.75139e-05
-5.86885e-05
6.64981e-05
-6.47399e-05
6.53756e-05
-7.11695e-05
6.43969e-05
-7.83717e-05
6.40611e-05
-8.69889e-05
6.51492e-05
-9.79396e-05
6.86667e-05
-0.000112297
7.56002e-05
-0.000131086
8.65902e-05
-0.000155018
0.00010163
-0.000184288
0.000119958
-0.000218454
0.000140122
-0.000256422
0.000160173
-0.000296506
0.000177905
-0.000336619
0.00019118
-0.000374596
0.000198288
-0.000408582
0.000198279
-0.000437342
0.000191087
-0.000460373
0.000177409
-0.000477838
0.000158412
-0.000490371
0.000135424
-0.000498861
0.000109687
-0.000504266
8.2227e-05
-0.000507478
5.37972e-05
-0.000509256
2.49108e-05
-0.000510203
-4.13315e-06
-0.000510763
-3.31792e-05
-0.000511219
-6.22039e-05
-0.00051167
-9.12516e-05
-0.000511976
-0.000120445
-0.000511667
-0.000149884
-0.000509831
-0.000179616
-0.000505022
-0.000209409
-0.000495227
-0.000238637
-0.000478002
-0.000265932
-0.000450808
-0.000289097
-0.000411642
-0.00030494
-0.000359885
-0.000309687
-0.000297244
-0.000299615
-0.000228349
-0.000272508
-0.000160413
-0.000229226
-0.00010135
-0.000175023
-5.66543e-05
-0.000118886
-2.72141e-05
-6.98822e-05
-1.01567e-05
-3.30366e-05
-1.65302e-06
-8.19272e-06
1.56919e-06
6.71258e-06
1.81991e-06
1.38777e-05
8.35477e-07
1.42421e-05
7.66309e-06
-1.42861e-06
1.78617e-05
-4.67655e-06
4.1995e-05
-9.0505e-06
5.72057e-05
-1.40353e-05
6.61391e-05
-1.93813e-05
7.10282e-05
-2.49111e-05
7.34728e-05
-3.05771e-05
7.45451e-05
-3.63325e-05
7.4846e-05
-4.21875e-05
7.47066e-05
-4.81357e-05
7.42603e-05
-5.42126e-05
7.35856e-05
-6.04711e-05
7.27553e-05
-6.70669e-05
7.19669e-05
-7.43022e-05
7.16305e-05
-8.27439e-05
7.24989e-05
-9.32554e-05
7.56587e-05
-0.000106963
8.23703e-05
-0.000125034
9.36696e-05
-0.000148392
0.000109944
-0.000177407
0.000130643
-0.000211729
0.000154277
-0.000250212
0.000178603
-0.000290985
0.000200944
-0.000331654
0.000218572
-0.000369694
0.000229219
-0.000402949
0.00023154
-0.000430043
0.00022537
-0.000450539
0.000211582
-0.000464833
0.000191704
-0.000473878
0.000167458
-0.000478872
0.00014042
-0.000481006
0.000111823
-0.000481302