/*--------------------------------*- C++ -*----------------------------------*\
| =========                 |                                                 |
| \\      /  F ield         | OpenFOAM: The Open Source CFD Toolbox           |
|  \\    /   O peration     | Version:  2406                                  |
|   \\  /    A nd           | Website:  www.openfoam.com                      |
|    \\/     M anipulation  |                                                 |
\*---------------------------------------------------------------------------*/
FoamFile
{
    version     2.0;
    format      ascii;
    arch        "LSB;label=32;scalar=64";
    class       volVectorField;
    location    "79";
    object      U;
}
// * * * * * * * * * * * * * * * * * * * * * * * * * * * * * * * * * * * * * //

dimensions      [0 1 -1 0 0 0 0];

internalField   nonuniform List<vector> 
4096
(
(-1.56178e-05 8.08068e-06 0)
(0.000381329 -0.000100839 0)
(0.00122021 -0.000180051 0)
(0.00222702 -0.000200649 0)
(0.00319409 -0.000173694 0)
(0.00397416 -0.000125743 0)
(0.00450891 -7.989e-05 0)
(0.00481711 -5.06926e-05 0)
(0.00496023 -4.32553e-05 0)
(0.0050075 -5.48803e-05 0)
(0.00500782 -7.81948e-05 0)
(0.00497571 -0.0001038 0)
(0.00488977 -0.000125283 0)
(0.00470087 -0.000139656 0)
(0.00434426 -0.000145804 0)
(0.00374833 -0.000144033 0)
(0.00283842 -0.000132816 0)
(0.00153728 -0.000109984 0)
(-0.000232919 -7.30809e-05 0)
(-0.00254851 -2.0414e-05 0)
(-0.0054767 5.01981e-05 0)
(-0.00906624 0.000141918 0)
(-0.0133379 0.000262331 0)
(-0.0182726 0.000422695 0)
(-0.0238026 0.000631383 0)
(-0.0298072 0.000884984 0)
(-0.0361125 0.00116337 0)
(-0.0424956 0.00143216 0)
(-0.0486926 0.00165094 0)
(-0.0544126 0.00178306 0)
(-0.0593578 0.00180248 0)
(-0.063245 0.00169312 0)
(-0.0658252 0.00144406 0)
(-0.066888 0.00106487 0)
(-0.0662472 0.000629326 0)
(-0.0637258 0.000119455 0)
(-0.0593328 -0.000443373 0)
(-0.0531239 -0.00101808 0)
(-0.0452453 -0.00155867 0)
(-0.0359438 -0.00201644 0)
(-0.0255728 -0.00234316 0)
(-0.0145818 -0.00249504 0)
(-0.00346815 -0.00244659 0)
(0.00716577 -0.00220701 0)
(0.0167097 -0.00171552 0)
(0.0246577 -0.00106769 0)
(0.0305755 -0.000322868 0)
(0.0342013 0.000390001 0)
(0.0355282 0.000980305 0)
(0.0347465 0.00136384 0)
(0.032251 0.00154105 0)
(0.0285633 0.0015165 0)
(0.0242418 0.00133874 0)
(0.0197977 0.00108531 0)
(0.0156148 0.000824097 0)
(0.0119234 0.000595498 0)
(0.00881815 0.000415031 0)
(0.0062956 0.000282991 0)
(0.00429334 0.000191936 0)
(0.00272551 0.000131354 0)
(0.00151512 8.74209e-05 0)
(0.000624821 3.98599e-05 0)
(6.86782e-05 -3.02203e-05 0)
(-7.88032e-05 -9.34925e-05 0)
(7.37708e-05 -0.000369342 0)
(0.00116496 -0.00120802 0)
(0.00303873 -0.00174768 0)
(0.0051919 -0.00186695 0)
(0.00721282 -0.00164293 0)
(0.00881739 -0.00122941 0)
(0.00987816 -0.000779072 0)
(0.0104015 -0.000399935 0)
(0.0104709 -0.000138483 0)
(0.0101842 1.68313e-05 0)
(0.00960084 0.000117657 0)
(0.00870967 0.000231541 0)
(0.00742391 0.000418816 0)
(0.00559958 0.000718783 0)
(0.00305693 0.00115463 0)
(-0.000398409 0.00173541 0)
(-0.00496192 0.00246649 0)
(-0.0108191 0.00335081 0)
(-0.0181246 0.00438592 0)
(-0.026978 0.00556016 0)
(-0.0373889 0.0068486 0)
(-0.0492443 0.00820142 0)
(-0.0622909 0.00953591 0)
(-0.0761404 0.0107394 0)
(-0.0903015 0.0116875 0)
(-0.104229 0.0122657 0)
(-0.117381 0.0123856 0)
(-0.129258 0.0119915 0)
(-0.139438 0.0110613 0)
(-0.147576 0.00960434 0)
(-0.153413 0.00765687 0)
(-0.156765 0.0052792 0)
(-0.157504 0.00255567 0)
(-0.155525 -0.000403645 0)
(-0.150786 -0.00349723 0)
(-0.143314 -0.0066651 0)
(-0.13321 -0.00978295 0)
(-0.120624 -0.012721 0)
(-0.105789 -0.015329 0)
(-0.0890292 -0.0174494 0)
(-0.0707679 -0.0189234 0)
(-0.0515222 -0.0196062 0)
(-0.0318769 -0.0193884 0)
(-0.0124912 -0.0182361 0)
(0.00581863 -0.0161158 0)
(0.0223173 -0.0131376 0)
(0.036329 -0.00944327 0)
(0.0472486 -0.00544409 0)
(0.0547542 -0.00146885 0)
(0.0587254 0.00208794 0)
(0.0592955 0.00489806 0)
(0.0568108 0.00682465 0)
(0.0519144 0.00779903 0)
(0.0454259 0.00791784 0)
(0.0381786 0.00740176 0)
(0.030893 0.00650993 0)
(0.0240963 0.00547162 0)
(0.0180947 0.00445128 0)
(0.0130012 0.00354363 0)
(0.00879829 0.00277782 0)
(0.00541137 0.00212083 0)
(0.00278523 0.00148513 0)
(0.000948029 0.00077697 0)
(2.9179e-05 8.49523e-05 0)
(0.000148786 -0.0011516 0)
(0.00175156 -0.00306542 0)
(0.00425455 -0.00416032 0)
(0.00699406 -0.0043238 0)
(0.00944639 -0.00374253 0)
(0.0112719 -0.00273629 0)
(0.0123166 -0.001619 0)
(0.0125703 -0.000611544 0)
(0.012096 0.000192489 0)
(0.0109574 0.000823701 0)
(0.00915604 0.00140022 0)
(0.00659914 0.00207382 0)
(0.00309806 0.00298531 0)
(-0.0016009 0.00423049 0)
(-0.00778631 0.00586066 0)
(-0.0157475 0.00789396 0)
(-0.0257322 0.0103231 0)
(-0.0379025 0.0131138 0)
(-0.0522714 0.0161846 0)
(-0.0686446 0.0193811 0)
(-0.0865935 0.0224676 0)
(-0.105491 0.0251578 0)
(-0.124608 0.0271783 0)
(-0.14322 0.0283268 0)
(-0.1607 0.0284976 0)
(-0.176548 0.0276729 0)
(-0.190396 0.0258961 0)
(-0.201987 0.023245 0)
(-0.211149 0.0198115 0)
(-0.217773 0.0156927 0)
(-0.221792 0.0109921 0)
(-0.223167 0.00582948 0)
(-0.221879 0.000341182 0)
(-0.217965 -0.00535273 0)
(-0.211406 -0.011188 0)
(-0.202278 -0.0170105 0)
(-0.190619 -0.0226648 0)
(-0.176536 -0.0279612 0)
(-0.160172 -0.0326854 0)
(-0.141748 -0.0365983 0)
(-0.121564 -0.0394485 0)
(-0.100012 -0.0409913 0)
(-0.0775755 -0.0410226 0)
(-0.0548409 -0.0394237 0)
(-0.0324997 -0.0361816 0)
(-0.0112229 -0.0313308 0)
(0.00810958 -0.0251563 0)
(0.0248087 -0.0180468 0)
(0.038394 -0.0105319 0)
(0.0484031 -0.00323729 0)
(0.0547246 0.00325031 0)
(0.0574398 0.00844914 0)
(0.0567587 0.0121339 0)
(0.0532557 0.0142165 0)
(0.0476776 0.0148238 0)
(0.0408346 0.0142576 0)
(0.0334996 0.0129096 0)
(0.0263063 0.0111681 0)
(0.0196866 0.00934362 0)
(0.0138694 0.00762072 0)
(0.00893717 0.00603413 0)
(0.0049194 0.00447465 0)
(0.00191845 0.00275899 0)
(0.000162027 0.000860452 0)
(0.000201327 -0.00218763 0)
(0.00214149 -0.00538343 0)
(0.00498427 -0.00701773 0)
(0.00790842 -0.00707701 0)
(0.01031 -0.00592744 0)
(0.0118351 -0.0040949 0)
(0.0123354 -0.00206613 0)
(0.0117905 -0.000165978 0)
(0.0102224 0.00148564 0)
(0.00761692 0.00296907 0)
(0.0038631 0.00449558 0)
(-0.00126173 0.00632339 0)
(-0.00807384 0.00867607 0)
(-0.0169322 0.011698 0)
(-0.0281745 0.015441 0)
(-0.0420469 0.0198752 0)
(-0.058613 0.0248741 0)
(-0.0776639 0.0301858 0)
(-0.0986734 0.0354223 0)
(-0.120855 0.0401158 0)
(-0.143312 0.0438307 0)
(-0.16521 0.0462608 0)
(-0.185876 0.0472592 0)
(-0.204826 0.0468132 0)
(-0.221747 0.0449998 0)
(-0.236453 0.0419451 0)
(-0.248855 0.0377941 0)
(-0.258921 0.0326918 0)
(-0.26665 0.0267728 0)
(-0.272047 0.0201604 0)
(-0.275112 0.0129745 0)
(-0.275834 0.00533961 0)
(-0.274222 -0.00262508 0)
(-0.270321 -0.0108345 0)
(-0.264086 -0.0191775 0)
(-0.255508 -0.027493 0)
(-0.244552 -0.0356009 0)
(-0.231227 -0.0432739 0)
(-0.215561 -0.0502455 0)
(-0.197644 -0.0562057 0)
(-0.177632 -0.0608149 0)
(-0.155775 -0.0637244 0)
(-0.132434 -0.0646156 0)
(-0.10809 -0.0632497 0)
(-0.0833534 -0.0595078 0)
(-0.0589343 -0.0534374 0)
(-0.0356598 -0.0453527 0)
(-0.014275 -0.0356207 0)
(0.00444873 -0.0249912 0)
(0.0199416 -0.0142136 0)
(0.0318356 -0.0040441 0)
(0.0400702 0.00478955 0)
(0.0447412 0.0117915 0)
(0.0460606 0.0167153 0)
(0.0445059 0.0195255 0)
(0.0406973 0.0204186 0)
(0.0353462 0.019783 0)
(0.0291698 0.0181107 0)
(0.0227921 0.0158852 0)
(0.0166786 0.0134734 0)
(0.011132 0.0110416 0)
(0.00635438 0.00851595 0)
(0.00260096 0.00562621 0)
(0.000256775 0.00210191 0)
(0.000247254 -0.00339886 0)
(0.00239781 -0.00795061 0)
(0.00533073 -0.00998746 0)
(0.00808196 -0.00969178 0)
(0.00999545 -0.00769472 0)
(0.0107349 -0.00476812 0)
(0.0101763 -0.00156628 0)
(0.00828578 0.00151162 0)
(0.00502089 0.00437173 0)
(0.000250089 0.00719121 0)
(-0.0062914 0.0102997 0)
(-0.0149748 0.0140591 0)
(-0.0262108 0.0187414 0)
(-0.0403487 0.0244644 0)
(-0.0575632 0.0311563 0)
(-0.0777332 0.0385401 0)
(-0.10036 0.046128 0)
(-0.124598 0.0532852 0)
(-0.149427 0.0593747 0)
(-0.173872 0.0639112 0)
(-0.197161 0.0666298 0)
(-0.218765 0.0674666 0)
(-0.238371 0.066499 0)
(-0.255824 0.0638845 0)
(-0.271075 0.0598149 0)
(-0.284136 0.0544855 0)
(-0.295054 0.048079 0)
(-0.303886 0.0407566 0)
(-0.310687 0.0326565 0)
(-0.31549 0.0238983 0)
(-0.318304 0.0145888 0)
(-0.319128 0.00482546 0)
(-0.317981 -0.00530881 0)
(-0.314881 -0.0157394 0)
(-0.30977 -0.0263347 0)
(-0.302577 -0.0369522 0)
(-0.293217 -0.0473988 0)
(-0.281609 -0.0574339 0)
(-0.267677 -0.0667546 0)
(-0.251374 -0.0749974 0)
(-0.232698 -0.0817448 0)
(-0.211727 -0.0865469 0)
(-0.188648 -0.088958 0)
(-0.163786 -0.0885924 0)
(-0.137639 -0.0851893 0)
(-0.110888 -0.078691 0)
(-0.084372 -0.0693138 0)
(-0.0590183 -0.0575477 0)
(-0.0357668 -0.0442087 0)
(-0.0154005 -0.0302155 0)
(0.00152032 -0.0165841 0)
(0.0147165 -0.00414467 0)
(0.0242347 0.0063616 0)
(0.0302566 0.0145127 0)
(0.0330708 0.0201399 0)
(0.0330945 0.023306 0)
(0.0308621 0.0242996 0)
(0.0269943 0.0235903 0)
(0.022128 0.0217252 0)
(0.0168396 0.0191941 0)
(0.0115986 0.0162867 0)
(0.00678577 0.0129851 0)
(0.00283424 0.00894258 0)
(0.000287915 0.0035994 0)
(0.000295075 -0.00473047 0)
(0.00253765 -0.0105871 0)
(0.00529918 -0.0127695 0)
(0.00751078 -0.0117748 0)
(0.00850486 -0.00859029 0)
(0.00799198 -0.00426406 0)
(0.00587232 0.000406298 0)
(0.00208135 0.00500722 0)
(-0.00351474 0.00953934 0)
(-0.0112023 0.0143106 0)
(-0.0214014 0.0197726 0)
(-0.0345585 0.0263303 0)
(-0.0510135 0.0341794 0)
(-0.0708373 0.04321 0)
(-0.0937001 0.0529788 0)
(-0.118837 0.0627649 0)
(-0.145172 0.0717279 0)
(-0.171572 0.0791233 0)
(-0.197078 0.0844597 0)
(-0.221018 0.0875286 0)
(-0.24299 0.0883433 0)
(-0.262803 0.0870544 0)
(-0.2804 0.0838813 0)
(-0.295809 0.0790673 0)
(-0.309105 0.0728504 0)
(-0.320381 0.0654475 0)
(-0.32974 0.0570476 0)
(-0.337282 0.0478095 0)
(-0.343094 0.0378638 0)
(-0.347243 0.0273155 0)
(-0.349769 0.0162449 0)
(-0.350705 0.00471014 0)
(-0.350087 -0.00723975 0)
(-0.347935 -0.0195283 0)
(-0.34419 -0.0320523 0)
(-0.338767 -0.0446866 0)
(-0.331548 -0.057259 0)
(-0.322386 -0.0695384 0)
(-0.311111 -0.081219 0)
(-0.297541 -0.0919111 0)
(-0.281502 -0.101142 0)
(-0.262858 -0.108371 0)
(-0.241553 -0.113021 0)
(-0.217666 -0.114536 0)
(-0.191468 -0.112465 0)
(-0.163484 -0.106547 0)
(-0.134506 -0.0968198 0)
(-0.105579 -0.0837036 0)
(-0.0778982 -0.0680302 0)
(-0.0526355 -0.0509455 0)
(-0.0307374 -0.0337531 0)
(-0.0127641 -0.0176397 0)
(0.001185 -0.0034984 0)
(0.0113343 0.00806933 0)
(0.0180269 0.0167855 0)
(0.0216406 0.0226481 0)
(0.0226016 0.0258502 0)
(0.0214073 0.0267859 0)
(0.0186145 0.0259736 0)
(0.0148003 0.0239361 0)
(0.0105132 0.0210258 0)
(0.00626397 0.0172572 0)
(0.00262814 0.0122169 0)
(0.000258046 0.00509506 0)
(0.000342267 -0.00612338 0)
(0.00252311 -0.0130876 0)
(0.00480524 -0.0150331 0)
(0.00608185 -0.0129171 0)
(0.00572392 -0.00816386 0)
(0.00350854 -0.00209753 0)
(-0.000650193 0.00437759 0)
(-0.00687929 0.0109295 0)
(-0.0154409 0.0177028 0)
(-0.0267618 0.025141 0)
(-0.0413153 0.0337427 0)
(-0.0594281 0.0437863 0)
(-0.081081 0.0551458 0)
(-0.105772 0.0672438 0)
(-0.132536 0.0791648 0)
(-0.160146 0.0899029 0)
(-0.187411 0.0986307 0)
(-0.213402 0.104854 0)
(-0.237517 0.108409 0)
(-0.259435 0.109367 0)
(-0.279031 0.107937 0)
(-0.296306 0.104391 0)
(-0.311332 0.0990203 0)
(-0.324228 0.0921066 0)
(-0.335133 0.0839077 0)
(-0.344201 0.0746484 0)
(-0.351583 0.0645169 0)
(-0.357429 0.0536662 0)
(-0.361871 0.0422155 0)
(-0.365025 0.0302516 0)
(-0.366985 0.0178265 0)
(-0.367823 0.00496255 0)
(-0.367592 -0.008322 0)
(-0.366315 -0.021972 0)
(-0.363961 -0.035927 0)
(-0.360459 -0.050101 0)
(-0.355686 -0.0643697 0)
(-0.34947 -0.0785461 0)
(-0.341577 -0.0923625 0)
(-0.331724 -0.10545 0)
(-0.319584 -0.117326 0)
(-0.30481 -0.127398 0)
(-0.287083 -0.134982 0)
(-0.266164 -0.139349 0)
(-0.241974 -0.139809 0)
(-0.214697 -0.135819 0)
(-0.184874 -0.127114 0)
(-0.153457 -0.113846 0)
(-0.121783 -0.0966942 0)
(-0.0914368 -0.0768752 0)
(-0.063979 -0.0559992 0)
(-0.0406 -0.035749 0)
(-0.0218516 -0.0175006 0)
(-0.00764355 -0.00212947 0)
(0.00252944 0.00998983 0)
(0.00924501 0.0188328 0)
(0.0130045 0.0245766 0)
(0.0142872 0.0275849 0)
(0.0135857 0.0283176 0)
(0.01144 0.0272667 0)
(0.0084149 0.0247801 0)
(0.00509029 0.0208648 0)
(0.00212009 0.0150521 0)
(0.000190334 0.0063791 0)
(0.000378148 -0.00748582 0)
(0.00228008 -0.0151866 0)
(0.0037205 -0.0163985 0)
(0.00364772 -0.0126939 0)
(0.00152528 -0.00598238 0)
(-0.00281329 0.00216959 0)
(-0.00945696 0.0108507 0)
(-0.0186137 0.0198588 0)
(-0.0306779 0.0294986 0)
(-0.046112 0.0402772 0)
(-0.0652379 0.0525434 0)
(-0.087988 0.0661921 0)
(-0.113757 0.080568 0)
(-0.141451 0.0946105 0)
(-0.169741 0.107171 0)
(-0.197388 0.117335 0)
(-0.223466 0.124586 0)
(-0.247401 0.128778 0)
(-0.268909 0.130024 0)
(-0.287897 0.12858 0)
(-0.304396 0.124768 0)
(-0.318516 0.118935 0)
(-0.33042 0.111415 0)
(-0.340299 0.102518 0)
(-0.348363 0.0925145 0)
(-0.354823 0.0816322 0)
(-0.359886 0.0700537 0)
(-0.36374 0.0579193 0)
(-0.366558 0.0453307 0)
(-0.368492 0.0323517 0)
(-0.369672 0.0190094 0)
(-0.3702 0.00530172 0)
(-0.370138 -0.00877927 0)
(-0.369511 -0.0232187 0)
(-0.368327 -0.0380034 0)
(-0.36655 -0.0531022 0)
(-0.364092 -0.0684541 0)
(-0.360801 -0.0839425 0)
(-0.356448 -0.0993746 0)
(-0.350717 -0.114454 0)
(-0.343202 -0.128757 0)
(-0.333416 -0.141715 0)
(-0.320813 -0.152609 0)
(-0.304843 -0.160593 0)
(-0.285033 -0.164758 0)
(-0.261101 -0.164234 0)
(-0.233095 -0.15834 0)
(-0.201554 -0.146772 0)
(-0.167606 -0.12979 0)
(-0.132964 -0.108364 0)
(-0.0997323 -0.084187 0)
(-0.0699957 -0.0594307 0)
(-0.0452729 -0.0362414 0)
(-0.0261086 -0.016187 0)
(-0.0121176 1.05422e-05 0)
(-0.00245909 0.0122775 0)
(0.00373168 0.0208883 0)
(0.0071262 0.0262537 0)
(0.00825964 0.0288424 0)
(0.00767588 0.0291088 0)
(0.0059402 0.0273591 0)
(0.00365727 0.0235645 0)
(0.00149746 0.0172225 0)
(0.00011411 0.00733553 0)
(0.000385789 -0.0086766 0)
(0.00172282 -0.01655 0)
(0.00192173 -0.0164499 0)
(8.9295e-05 -0.010695 0)
(-0.00417882 -0.00165139 0)
(-0.0109823 0.00894478 0)
(-0.0204635 0.0202631 0)
(-0.0329246 0.0322505 0)
(-0.0487818 0.0453053 0)
(-0.0683488 0.0598055 0)
(-0.0915582 0.0756996 0)
(-0.117777 0.0923203 0)
(-0.145852 0.108514 0)
(-0.174383 0.123001 0)
(-0.202073 0.134758 0)
(-0.227963 0.143209 0)
(-0.251471 0.148201 0)
(-0.272316 0.149869 0)
(-0.290416 0.14851 0)
(-0.305827 0.144506 0)
(-0.318698 0.138262 0)
(-0.329241 0.130181 0)
(-0.337708 0.120633 0)
(-0.344369 0.109945 0)
(-0.349494 0.0983906 0)
(-0.353338 0.0861879 0)
(-0.356135 0.0735016 0)
(-0.358088 0.0604485 0)
(-0.359375 0.0471028 0)
(-0.360153 0.0335018 0)
(-0.360556 0.0196516 0)
(-0.360689 0.00553599 0)
(-0.360607 -0.00887031 0)
(-0.360337 -0.0235911 0)
(-0.359922 -0.0386574 0)
(-0.359372 -0.054089 0)
(-0.358654 -0.0698843 0)
(-0.357679 -0.0860023 0)
(-0.356284 -0.102342 0)
(-0.354211 -0.118715 0)
(-0.351087 -0.134814 0)
(-0.346405 -0.150178 0)
(-0.339522 -0.164165 0)
(-0.329687 -0.175935 0)
(-0.316092 -0.184475 0)
(-0.297986 -0.188657 0)
(-0.274826 -0.187377 0)
(-0.246477 -0.179751 0)
(-0.213436 -0.165371 0)
(-0.177009 -0.144571 0)
(-0.139347 -0.11865 0)
(-0.103193 -0.0898785 0)
(-0.0712907 -0.0611373 0)
(-0.0455496 -0.0351377 0)
(-0.0264421 -0.0135966 0)
(-0.0131832 0.00301758 0)
(-0.00448559 0.0150623 0)
(0.000794894 0.0231209 0)
(0.00348255 0.0278067 0)
(0.00422856 0.029605 0)
(0.00363586 0.0287992 0)
(0.00232073 0.0253286 0)
(0.000931719 0.0186896 0)
(5.34707e-05 0.00795475 0)
(0.000345732 -0.00950361 0)
(0.000780756 -0.0167956 0)
(-0.000668845 -0.0147888 0)
(-0.00462152 -0.0065529 0)
(-0.0113155 0.00516845 0)
(-0.0208396 0.0185635 0)
(-0.0333895 0.0329162 0)
(-0.0492883 0.0483014 0)
(-0.0688253 0.0650377 0)
(-0.091965 0.0831348 0)
(-0.118116 0.101977 0)
(-0.146134 0.120373 0)
(-0.174579 0.136928 0)
(-0.202085 0.150478 0)
(-0.227626 0.160345 0)
(-0.250581 0.166331 0)
(-0.270648 0.168577 0)
(-0.287749 0.167422 0)
(-0.301962 0.163307 0)
(-0.313479 0.156711 0)
(-0.322569 0.148114 0)
(-0.329546 0.137958 0)
(-0.334744 0.126632 0)
(-0.338486 0.114461 0)
(-0.341071 0.101701 0)
(-0.342761 0.0885399 0)
(-0.343776 0.0751104 0)
(-0.344298 0.0614941 0)
(-0.344476 0.047732 0)
(-0.344434 0.0338341 0)
(-0.344282 0.0197895 0)
(-0.344099 0.00557495 0)
(-0.343924 -0.00884264 0)
(-0.343792 -0.0235162 0)
(-0.343758 -0.0385028 0)
(-0.343863 -0.0538504 0)
(-0.344126 -0.0695964 0)
(-0.344532 -0.0857568 0)
(-0.345016 -0.102312 0)
(-0.345436 -0.119185 0)
(-0.345543 -0.136209 0)
(-0.344944 -0.153088 0)
(-0.343069 -0.169351 0)
(-0.339156 -0.184306 0)
(-0.332258 -0.197009 0)
(-0.321309 -0.206272 0)
(-0.305247 -0.210724 0)
(-0.28322 -0.208963 0)
(-0.254851 -0.199817 0)
(-0.220548 -0.182688 0)
(-0.181785 -0.157945 0)
(-0.141195 -0.127252 0)
(-0.102281 -0.0936112 0)
(-0.068568 -0.060813 0)
(-0.0423637 -0.0322315 0)
(-0.0239202 -0.00963968 0)
(-0.0118839 0.006934 0)
(-0.00449353 0.0183255 0)
(-0.000347189 0.0254471 0)
(0.00152383 0.0289798 0)
(0.00186322 0.0292746 0)
(0.00132712 0.0262901 0)
(0.000540263 0.0195651 0)
(2.24374e-05 0.00830985 0)
(0.000241943 -0.00973784 0)
(-0.000590831 -0.0155509 0)
(-0.00404206 -0.0110646 0)
(-0.01037 1.99599e-05 0)
(-0.0196689 0.0147014 0)
(-0.0320338 0.0311797 0)
(-0.0476723 0.0488631 0)
(-0.0668158 0.0678196 0)
(-0.089469 0.0880754 0)
(-0.115135 0.109109 0)
(-0.142741 0.129758 0)
(-0.170852 0.148537 0)
(-0.198034 0.164118 0)
(-0.223171 0.175667 0)
(-0.245567 0.1829 0)
(-0.264884 0.185941 0)
(-0.281039 0.185161 0)
(-0.29413 0.181065 0)
(-0.304392 0.174216 0)
(-0.312154 0.16518 0)
(-0.317796 0.154482 0)
(-0.321709 0.142582 0)
(-0.324267 0.129858 0)
(-0.325802 0.116602 0)
(-0.326596 0.103028 0)
(-0.326874 0.0892782 0)
(-0.326811 0.0754405 0)
(-0.326538 0.0615561 0)
(-0.326152 0.0476334 0)
(-0.325733 0.0336586 0)
(-0.325343 0.0196069 0)
(-0.325029 0.00544937 0)
(-0.324816 -0.00885083 0)
(-0.324738 -0.0233531 0)
(-0.324845 -0.0381158 0)
(-0.325186 -0.0531935 0)
(-0.325812 -0.0686372 0)
(-0.326761 -0.0844911 0)
(-0.32805 -0.100786 0)
(-0.329655 -0.117525 0)
(-0.331475 -0.134664 0)
(-0.333301 -0.152072 0)
(-0.334758 -0.169489 0)
(-0.335259 -0.186463 0)
(-0.333964 -0.202281 0)
(-0.329772 -0.215918 0)
(-0.321374 -0.226012 0)
(-0.307393 -0.230918 0)
(-0.286629 -0.22888 0)
(-0.258411 -0.21834 0)
(-0.223013 -0.198415 0)
(-0.182061 -0.169468 0)
(-0.138731 -0.133611 0)
(-0.0974111 -0.0948061 0)
(-0.0625152 -0.0580159 0)
(-0.0366517 -0.0273225 0)
(-0.019569 -0.00432213 0)
(-0.00918157 0.0116085 0)
(-0.00329711 0.0218167 0)
(-0.000335247 0.0274152 0)
(0.000764732 0.0290045 0)
(0.000787056 0.0266699 0)
(0.000374489 0.0200505 0)
(2.49592e-05 0.00851941 0)
(5.73393e-05 -0.00913531 0)
(-0.00237289 -0.0124863 0)
(-0.00807693 -0.00502371 0)
(-0.0169207 0.00918242 0)
(-0.0288639 0.0270133 0)
(-0.0440098 0.0467501 0)
(-0.0625018 0.0678545 0)
(-0.084362 0.0902103 0)
(-0.109214 0.113387 0)
(-0.13612 0.136314 0)
(-0.163702 0.157464 0)
(-0.19048 0.175334 0)
(-0.215232 0.188889 0)
(-0.237162 0.197695 0)
(-0.255872 0.201825 0)
(-0.271261 0.201668 0)
(-0.283438 0.19779 0)
(-0.292679 0.190843 0)
(-0.299367 0.18149 0)
(-0.303945 0.17035 0)
(-0.306859 0.157961 0)
(-0.308527 0.14476 0)
(-0.309308 0.131079 0)
(-0.309497 0.117152 0)
(-0.309316 0.103131 0)
(-0.308928 0.0891049 0)
(-0.308442 0.0751122 0)
(-0.30793 0.0611581 0)
(-0.307439 0.0472253 0)
(-0.307002 0.0332839 0)
(-0.306642 0.0193008 0)
(-0.306377 0.00524367 0)
(-0.30622 -0.00892406 0)
(-0.306198 -0.0232525 0)
(-0.306349 -0.0377891 0)
(-0.306721 -0.0525814 0)
(-0.307372 -0.0676756 0)
(-0.308364 -0.0831195 0)
(-0.30976 -0.0989602 0)
(-0.311606 -0.11524 0)
(-0.313918 -0.131986 0)
(-0.316646 -0.14919 0)
(-0.319631 -0.166769 0)
(-0.322541 -0.184516 0)
(-0.324809 -0.202017 0)
(-0.325561 -0.218567 0)
(-0.323584 -0.233074 0)
(-0.317364 -0.244007 0)
(-0.305221 -0.249424 0)
(-0.285598 -0.247144 0)
(-0.257493 -0.235132 0)
(-0.221015 -0.212133 0)
(-0.177957 -0.178489 0)
(-0.132126 -0.136928 0)
(-0.088963 -0.092727 0)
(-0.0538278 -0.0523218 0)
(-0.0293361 -0.0203803 0)
(-0.014321 0.0021087 0)
(-0.00588969 0.0166233 0)
(-0.00157045 0.0249313 0)
(0.000263913 0.0281587 0)
(0.000676811 0.0266967 0)
(0.000423708 0.0203695 0)
(5.71334e-05 0.00871142 0)
(-0.000212192 -0.00746419 0)
(-0.00449715 -0.00733961 0)
(-0.0125581 0.00349008 0)
(-0.023906 0.0209497 0)
(-0.0383924 0.0419968 0)
(-0.0560655 0.0649994 0)
(-0.0769334 0.0893477 0)
(-0.100731 0.114585 0)
(-0.126699 0.139765 0)
(-0.153582 0.163389 0)
(-0.179903 0.183804 0)
(-0.204334 0.199725 0)
(-0.225951 0.210507 0)
(-0.244271 0.21611 0)
(-0.259152 0.21691 0)
(-0.270702 0.213528 0)
(-0.279222 0.206702 0)
(-0.285145 0.197202 0)
(-0.288964 0.185751 0)
(-0.29118 0.172978 0)
(-0.292248 0.159386 0)
(-0.292554 0.145351 0)
(-0.292399 0.131132 0)
(-0.292 0.116887 0)
(-0.291505 0.102705 0)
(-0.291003 0.0886191 0)
(-0.290542 0.0746282 0)
(-0.290145 0.0607107 0)
(-0.289818 0.0468335 0)
(-0.289563 0.0329601 0)
(-0.289379 0.0190554 0)
(-0.289264 0.00508755 0)
(-0.289226 -0.00897562 0)
(-0.289286 -0.0231728 0)
(-0.289469 -0.0375379 0)
(-0.289816 -0.0521053 0)
(-0.290378 -0.066909 0)
(-0.291218 -0.0819869 0)
(-0.292411 -0.0973814 0)
(-0.294035 -0.113141 0)
(-0.296162 -0.129321 0)
(-0.298843 -0.14597 0)
(-0.302072 -0.163119 0)
(-0.305742 -0.180738 0)
(-0.309573 -0.198677 0)
(-0.313031 -0.216576 0)
(-0.315236 -0.233743 0)
(-0.3149 -0.249028 0)
(-0.310335 -0.26072 0)
(-0.299588 -0.266541 0)
(-0.280751 -0.263823 0)
(-0.252492 -0.249966 0)
(-0.214761 -0.223275 0)
(-0.169577 -0.184139 0)
(-0.121548 -0.136216 0)
(-0.0773814 -0.0866235 0)
(-0.0433253 -0.0435343 0)
(-0.0213842 -0.0117057 0)
(-0.0090085 0.00910739 0)
(-0.00268059 0.0212755 0)
(9.1827e-05 0.0267626 0)
(0.000858243 0.026527 0)
(0.000627893 0.0207058 0)
(0.0001102 0.00899297 0)
(-0.000549481 -0.00455371 0)
(-0.00680578 2.31564e-05 0)
(-0.0172042 0.0144694 0)
(-0.0309276 0.0351752 0)
(-0.0476853 0.059365 0)
(-0.067453 0.0854424 0)
(-0.0900434 0.112595 0)
(-0.114884 0.139935 0)
(-0.140909 0.166057 0)
(-0.166709 0.189219 0)
(-0.190883 0.207877 0)
(-0.212364 0.221094 0)
(-0.230544 0.22864 0)
(-0.245214 0.230828 0)
(-0.256459 0.228303 0)
(-0.264585 0.221887 0)
(-0.270057 0.212458 0)
(-0.273415 0.200858 0)
(-0.275205 0.187819 0)
(-0.275921 0.173924 0)
(-0.275971 0.159603 0)
(-0.275664 0.145143 0)
(-0.275214 0.130717 0)
(-0.274754 0.116408 0)
(-0.274356 0.102246 0)
(-0.274048 0.0882206 0)
(-0.273834 0.0743045 0)
(-0.273703 0.0604607 0)
(-0.273641 0.0466505 0)
(-0.273632 0.0328374 0)
(-0.273666 0.0189892 0)
(-0.273735 0.00507742 0)
(-0.273845 -0.00892474 0)
(-0.274009 -0.0230432 0)
(-0.274246 -0.0373002 0)
(-0.274585 -0.0517178 0)
(-0.275066 -0.0663173 0)
(-0.275742 -0.0811229 0)
(-0.276677 -0.0961641 0)
(-0.277948 -0.111479 0)
(-0.279646 -0.12712 0)
(-0.281861 -0.143153 0)
(-0.284673 -0.159654 0)
(-0.288117 -0.176693 0)
(-0.292135 -0.194295 0)
(-0.296496 -0.212374 0)
(-0.300702 -0.230617 0)
(-0.303868 -0.248341 0)
(-0.304641 -0.264317 0)
(-0.301175 -0.276617 0)
(-0.291264 -0.282572 0)
(-0.272675 -0.278945 0)
(-0.243775 -0.262492 0)
(-0.204424 -0.23107 0)
(-0.157015 -0.185313 0)
(-0.107234 -0.130379 0)
(-0.0633263 -0.0759583 0)
(-0.0320476 -0.0319115 0)
(-0.0137533 -0.001981 0)
(-0.00434835 0.0158563 0)
(-0.000154002 0.0246251 0)
(0.00111469 0.0261787 0)
(0.000895162 0.0211519 0)
(0.000172944 0.00942741 0)
(-0.000913798 -0.000306991 0)
(-0.00913031 0.00959505 0)
(-0.0217119 0.0277303 0)
(-0.0375416 0.0515614 0)
(-0.0561746 0.0786798 0)
(-0.077485 0.107452 0)
(-0.101066 0.136765 0)
(-0.126075 0.165298 0)
(-0.151256 0.191308 0)
(-0.175198 0.21302 0)
(-0.196697 0.229156 0)
(-0.214987 0.239189 0)
(-0.22975 0.243286 0)
(-0.241018 0.242074 0)
(-0.249078 0.236434 0)
(-0.254407 0.227352 0)
(-0.257578 0.215797 0)
(-0.259178 0.202622 0)
(-0.259739 0.188511 0)
(-0.259693 0.173962 0)
(-0.259363 0.159302 0)
(-0.258961 0.144721 0)
(-0.258611 0.130305 0)
(-0.258371 0.116076 0)
(-0.258255 0.102018 0)
(-0.258252 0.0880941 0)
(-0.258338 0.0742637 0)
(-0.25849 0.0604856 0)
(-0.258686 0.0467228 0)
(-0.258907 0.0329437 0)
(-0.259143 0.0191214 0)
(-0.259388 0.00523245 0)
(-0.259647 -0.00874436 0)
(-0.259929 -0.0228254 0)
(-0.260247 -0.0370249 0)
(-0.260623 -0.0513556 0)
(-0.261083 -0.0658292 0)
(-0.261665 -0.0804576 0)
(-0.262414 -0.0952563 0)
(-0.263392 -0.110248 0)
(-0.264674 -0.125468 0)
(-0.266354 -0.140971 0)
(-0.268536 -0.156838 0)
(-0.271326 -0.173173 0)
(-0.274798 -0.19009 0)
(-0.278943 -0.207675 0)
(-0.283576 -0.225903 0)
(-0.288225 -0.244506 0)
(-0.29199 -0.262784 0)
(-0.293432 -0.279381 0)
(-0.290536 -0.292078 0)
(-0.280838 -0.297716 0)
(-0.261812 -0.292383 0)
(-0.231598 -0.272128 0)
(-0.190107 -0.234446 0)
(-0.140378 -0.180661 0)
(-0.0896241 -0.118399 0)
(-0.04786 -0.0607549 0)
(-0.021242 -0.018343 0)
(-0.0072882 0.00774205 0)
(-0.000915165 0.0213131 0)
(0.00120492 0.0254949 0)
(0.00112553 0.0216813 0)
(0.000234154 0.0100231 0)
(-0.00126735 0.0052783 0)
(-0.0113026 0.021211 0)
(-0.0258002 0.0429913 0)
(-0.0433533 0.0697082 0)
(-0.0633767 0.099407 0)
(-0.0856235 0.130346 0)
(-0.109476 0.161065 0)
(-0.133897 0.189866 0)
(-0.157559 0.214833 0)
(-0.179165 0.234329 0)
(-0.197775 0.247437 0)
(-0.212914 0.254052 0)
(-0.224522 0.254705 0)
(-0.232836 0.250298 0)
(-0.238318 0.241909 0)
(-0.241556 0.230639 0)
(-0.243172 0.217481 0)
(-0.243737 0.203244 0)
(-0.243713 0.188515 0)
(-0.243441 0.173679 0)
(-0.24314 0.158954 0)
(-0.24293 0.144434 0)
(-0.242861 0.130138 0)
(-0.242936 0.116041 0)
(-0.243133 0.1021 0)
(-0.243422 0.0882686 0)
(-0.243772 0.0745019 0)
(-0.244156 0.0607631 0)
(-0.244556 0.047021 0)
(-0.244958 0.0332508 0)
(-0.245356 0.0194313 0)
(-0.245749 0.0055441 0)
(-0.24614 -0.00842698 0)
(-0.24654 -0.0224932 0)
(-0.246958 -0.0366644 0)
(-0.247409 -0.0509482 0)
(-0.247909 -0.0653503 0)
(-0.248482 -0.0798749 0)
(-0.249157 -0.0945269 0)
(-0.24997 -0.109314 0)
(-0.250975 -0.124254 0)
(-0.25224 -0.139379 0)
(-0.253858 -0.154749 0)
(-0.255945 -0.170458 0)
(-0.258628 -0.18664 0)
(-0.262021 -0.203461 0)
(-0.26616 -0.221068 0)
(-0.270907 -0.239504 0)
(-0.275804 -0.258532 0)
(-0.27991 -0.277398 0)
(-0.281659 -0.294543 0)
(-0.278823 -0.307336 0)
(-0.268666 -0.311972 0)
(-0.248397 -0.303732 0)
(-0.216043 -0.277922 0)
(-0.171819 -0.231934 0)
(-0.119864 -0.168663 0)
(-0.0695831 -0.0997199 0)
(-0.0325635 -0.0420089 0)
(-0.0121004 -0.00430559 0)
(-0.00256796 0.0161749 0)
(0.000922998 0.0241579 0)
(0.0012397 0.0221553 0)
(0.000286425 0.0107378 0)
(-0.00158934 0.0120626 0)
(-0.0131789 0.0345701 0)
(-0.0292184 0.0598635 0)
(-0.0480468 0.0891415 0)
(-0.0689386 0.120975 0)
(-0.0915244 0.153466 0)
(-0.115014 0.184812 0)
(-0.138258 0.213038 0)
(-0.159959 0.236213 0)
(-0.179018 0.25296 0)
(-0.194769 0.262767 0)
(-0.207003 0.26594 0)
(-0.215874 0.263329 0)
(-0.221793 0.256072 0)
(-0.225344 0.245394 0)
(-0.227168 0.232446 0)
(-0.227875 0.218184 0)
(-0.227965 0.203321 0)
(-0.227805 0.188321 0)
(-0.227632 0.173447 0)
(-0.227569 0.158812 0)
(-0.227662 0.144436 0)
(-0.22791 0.130287 0)
(-0.228283 0.116315 0)
(-0.228745 0.102466 0)
(-0.229261 0.088694 0)
(-0.229804 0.0749596 0)
(-0.230353 0.0612327 0)
(-0.230896 0.0474898 0)
(-0.231427 0.0337119 0)
(-0.231945 0.0198831 0)
(-0.232452 0.00598912 0)
(-0.232955 -0.00798255 0)
(-0.233463 -0.0220413 0)
(-0.233984 -0.0361952 0)
(-0.234529 -0.0504498 0)
(-0.235109 -0.0648087 0)
(-0.235735 -0.0792727 0)
(-0.236424 -0.0938408 0)
(-0.237194 -0.108512 0)
(-0.238074 -0.123289 0)
(-0.239103 -0.138184 0)
(-0.240345 -0.153229 0)
(-0.241888 -0.168487 0)
(-0.243857 -0.184069 0)
(-0.246401 -0.200143 0)
(-0.24967 -0.216926 0)
(-0.253746 -0.234638 0)
(-0.258527 -0.253383 0)
(-0.263553 -0.272939 0)
(-0.267801 -0.292444 0)
(-0.269526 -0.310018 0)
(-0.266225 -0.322442 0)
(-0.254857 -0.325055 0)
(-0.232413 -0.312165 0)
(-0.196999 -0.278389 0)
(-0.149523 -0.221617 0)
(-0.0959521 -0.147931 0)
(-0.0487188 -0.0749686 0)
(-0.0193024 -0.0218506 0)
(-0.00535961 0.00837946 0)
(0.000142223 0.0217286 0)
(0.0011953 0.0223547 0)
(0.000328311 0.0114971 0)
(-0.00183367 0.0198189 0)
(-0.0146213 0.0492994 0)
(-0.0317799 0.0779052 0)
(-0.0514103 0.109362 0)
(-0.0726567 0.14283 0)
(-0.0950421 0.176237 0)
(-0.117655 0.207479 0)
(-0.139313 0.234426 0)
(-0.15883 0.25526 0)
(-0.175338 0.26894 0)
(-0.188434 0.275376 0)
(-0.198133 0.275244 0)
(-0.204765 0.269678 0)
(-0.208869 0.259998 0)
(-0.211094 0.247517 0)
(-0.212078 0.23337 0)
(-0.212366 0.218427 0)
(-0.212364 0.203268 0)
(-0.212334 0.188228 0)
(-0.212414 0.173452 0)
(-0.212656 0.15897 0)
(-0.213054 0.144747 0)
(-0.213576 0.130725 0)
(-0.214183 0.116841 0)
(-0.214837 0.103046 0)
(-0.215508 0.0892982 0)
(-0.216178 0.0755679 0)
(-0.216834 0.0618327 0)
(-0.217471 0.0480756 0)
(-0.218091 0.0342827 0)
(-0.218695 0.0204416 0)
(-0.219291 0.00654085 0)
(-0.219886 -0.00743007 0)
(-0.220488 -0.0214802 0)
(-0.221107 -0.0356172 0)
(-0.221748 -0.0498469 0)
(-0.222422 -0.0641728 0)
(-0.223133 -0.0785956 0)
(-0.223888 -0.0931128 0)
(-0.224694 -0.10772 0)
(-0.225561 -0.122411 0)
(-0.226505 -0.137185 0)
(-0.227558 -0.15205 0)
(-0.228774 -0.167037 0)
(-0.230241 -0.182215 0)
(-0.232091 -0.197717 0)
(-0.234497 -0.213748 0)
(-0.237643 -0.230585 0)
(-0.241655 -0.248524 0)
(-0.246452 -0.267728 0)
(-0.251537 -0.287953 0)
(-0.255752 -0.308133 0)
(-0.257096 -0.325903 0)
(-0.252724 -0.337205 0)
(-0.239264 -0.336258 0)
(-0.213593 -0.316245 0)
(-0.174195 -0.271361 0)
(-0.123276 -0.201254 0)
(-0.0697848 -0.118001 0)
(-0.0295982 -0.0467793 0)
(-0.00942024 -0.0030887 0)
(-0.0011938 0.0176845 0)
(0.000987311 0.0220158 0)
(0.000364164 0.012217 0)
(-0.0019714 0.0282756 0)
(-0.0155436 0.0649764 0)
(-0.0333767 0.0966571 0)
(-0.0533426 0.129884 0)
(-0.0744721 0.164474 0)
(-0.0962046 0.198193 0)
(-0.117561 0.2287 0)
(-0.137392 0.253827 0)
(-0.154675 0.271965 0)
(-0.168779 0.28245 0)
(-0.179528 0.2856 0)
(-0.187122 0.282423 0)
(-0.192022 0.274283 0)
(-0.194847 0.262633 0)
(-0.196254 0.248807 0)
(-0.196832 0.23387 0)
(-0.197036 0.218565 0)
(-0.197165 0.203332 0)
(-0.197387 0.188378 0)
(-0.197762 0.173752 0)
(-0.198291 0.159423 0)
(-0.198942 0.145324 0)
(-0.199671 0.131385 0)
(-0.20044 0.117548 0)
(-0.201219 0.103769 0)
(-0.201987 0.0900172 0)
(-0.202735 0.0762716 0)
(-0.203459 0.0625165 0)
(-0.20416 0.0487399 0)
(-0.204843 0.0349312 0)
(-0.205514 0.0210803 0)