/*--------------------------------*- C++ -*----------------------------------*\
| =========                 |                                                 |
| \\      /  F ield         | OpenFOAM: The Open Source CFD Toolbox           |
|  \\    /   O peration     | Version:  2406                                  |
|   \\  /    A nd           | Website:  www.openfoam.com                      |
|    \\/     M anipulation  |                                                 |
\*---------------------------------------------------------------------------*/
FoamFile
{
    version     2.0;
    format      ascii;
    arch        "LSB;label=32;scalar=64";
    class       volVectorField;
    location    "14.25";
    object      U_0;
}
// * * * * * * * * * * * * * * * * * * * * * * * * * * * * * * * * * * * * * //

dimensions      [0 1 -1 0 0 0 0];

internalField   nonuniform List<vector> 
16384
(
(3.56323e-06 -3.52362e-06 0)
(1.82093e-05 -5.16232e-06 0)
(3.34039e-05 -4.71646e-06 0)
(4.25374e-05 -3.32622e-06 0)
(4.2657e-05 -1.74778e-06 0)
(3.33671e-05 -2.66539e-07 0)
(1.55233e-05 9.26496e-07 0)
(-9.56764e-06 1.80522e-06 0)
(-4.0466e-05 2.44141e-06 0)
(-7.57934e-05 2.86345e-06 0)
(-0.000114446 3.12092e-06 0)
(-0.000155559 3.27098e-06 0)
(-0.00019852 3.36053e-06 0)
(-0.000242949 3.42619e-06 0)
(-0.00028866 3.49548e-06 0)
(-0.000335619 3.58779e-06 0)
(-0.000383907 3.71566e-06 0)
(-0.00043368 3.88612e-06 0)
(-0.000485144 4.102e-06 0)
(-0.000538526 4.36316e-06 0)
(-0.000594064 4.66749e-06 0)
(-0.000651987 5.01177e-06 0)
(-0.00071251 5.39223e-06 0)
(-0.000775828 5.80502e-06 0)
(-0.000842112 6.24639e-06 0)
(-0.000911511 6.71292e-06 0)
(-0.000984152 7.20154e-06 0)
(-0.00106014 7.7096e-06 0)
(-0.00113955 8.23481e-06 0)
(-0.00122245 8.7752e-06 0)
(-0.00130888 9.32898e-06 0)
(-0.00139887 9.89448e-06 0)
(-0.00149242 1.047e-05 0)
(-0.00158952 1.10539e-05 0)
(-0.00169015 1.16441e-05 0)
(-0.00179424 1.22386e-05 0)
(-0.00190175 1.28348e-05 0)
(-0.00201256 1.34299e-05 0)
(-0.00212655 1.40201e-05 0)
(-0.00224358 1.46016e-05 0)
(-0.00236347 1.51694e-05 0)
(-0.00248597 1.57182e-05 0)
(-0.00261084 1.62416e-05 0)
(-0.00273776 1.67325e-05 0)
(-0.00286637 1.71828e-05 0)
(-0.00299623 1.75834e-05 0)
(-0.00312688 1.79246e-05 0)
(-0.00325775 1.81956e-05 0)
(-0.00338824 1.83847e-05 0)
(-0.00351765 1.84796e-05 0)
(-0.0036452 1.84671e-05 0)
(-0.00377006 1.83336e-05 0)
(-0.00389129 1.8065e-05 0)
(-0.00400791 1.76473e-05 0)
(-0.00411884 1.70666e-05 0)
(-0.00422295 1.63094e-05 0)
(-0.00431903 1.53632e-05 0)
(-0.00440586 1.42168e-05 0)
(-0.00448214 1.2861e-05 0)
(-0.00454658 1.12889e-05 0)
(-0.00459787 9.49727e-06 0)
(-0.00463475 7.48914e-06 0)
(-0.00465598 5.27023e-06 0)
(-0.00466037 2.80876e-06 0)
(-0.0046468 1.42343e-07 0)
(-0.00461431 -2.69955e-06 0)
(-0.0045621 -5.69631e-06 0)
(-0.00448951 -8.82188e-06 0)
(-0.0043961 -1.20434e-05 0)
(-0.00428163 -1.53223e-05 0)
(-0.00414614 -1.8615e-05 0)
(-0.00398993 -2.18738e-05 0)
(-0.00381355 -2.50479e-05 0)
(-0.00361787 -2.80846e-05 0)
(-0.00340404 -3.09305e-05 0)
(-0.00317348 -3.35326e-05 0)
(-0.00292792 -3.58409e-05 0)
(-0.00266929 -3.78088e-05 0)
(-0.0023998 -3.93955e-05 0)
(-0.00212182 -4.05671e-05 0)
(-0.00183788 -4.12978e-05 0)
(-0.00155064 -4.15711e-05 0)
(-0.00126278 -4.13806e-05 0)
(-0.000977038 -4.073e-05 0)
(-0.000696069 -3.96333e-05 0)
(-0.000422453 -3.81124e-05 0)
(-0.000158595 -3.62066e-05 0)
(9.32282e-05 -3.39839e-05 0)
(0.000330984 -3.14206e-05 0)
(0.000552959 -2.86302e-05 0)
(0.000757692 -2.56561e-05 0)
(0.000944026 -2.25514e-05 0)
(0.00111112 -1.9375e-05 0)
(0.00125843 -1.61833e-05 0)
(0.00138575 -1.30287e-05 0)
(0.00149313 -9.95808e-06 0)
(0.00158091 -7.01236e-06 0)
(0.00164966 -4.22599e-06 0)
(0.00170014 -1.62636e-06 0)
(0.00173332 7.66095e-07 0)
(0.00175025 2.93611e-06 0)
(0.00175212 4.87593e-06 0)
(0.00174017 6.59346e-06 0)
(0.00171568 8.08518e-06 0)
(0.00167991 9.3597e-06 0)
(0.00163412 1.0431e-05 0)
(0.0015795 1.13149e-05 0)
(0.00151718 1.20292e-05 0)
(0.00144822 1.25933e-05 0)
(0.00137357 1.30271e-05 0)
(0.00129412 1.33507e-05 0)
(0.00121063 1.35837e-05 0)
(0.00112379 1.37444e-05 0)
(0.0010342 1.38492e-05 0)
(0.000942414 1.39112e-05 0)
(0.00084894 1.39391e-05 0)
(0.00075429 1.39348e-05 0)
(0.00065902 1.38913e-05 0)
(0.000563798 1.37882e-05 0)
(0.000469483 1.35866e-05 0)
(0.000377224 1.3221e-05 0)
(0.00028859 1.25892e-05 0)
(0.000205714 1.15391e-05 0)
(0.000131441 9.85566e-06 0)
(6.9386e-05 7.26249e-06 0)
(2.37096e-05 3.52556e-06 0)
(-1.6005e-06 -1.09027e-06 0)
(-4.64061e-06 -4.64103e-06 0)
(5.34685e-06 -1.82948e-05 0)
(2.8142e-05 -2.78302e-05 0)
(4.58289e-05 -2.10523e-05 0)
(4.7262e-05 -6.04972e-06 0)
(2.68524e-05 1.17011e-05 0)
(-1.64015e-05 2.9076e-05 0)
(-8.09494e-05 4.44637e-05 0)
(-0.000163953 5.72113e-05 0)
(-0.000262283 6.73327e-05 0)
(-0.000372862 7.50876e-05 0)
(-0.000493021 8.09123e-05 0)
(-0.000620615 8.5295e-05 0)
(-0.000754061 8.87011e-05 0)
(-0.000892304 9.15387e-05 0)
(-0.00103475 9.41425e-05 0)
(-0.00118119 9.67714e-05 0)
(-0.00133169 9.96124e-05 0)
(-0.00148652 0.000102791 0)
(-0.00164612 0.000106379 0)
(-0.00181095 0.00011041 0)
(-0.00198156 0.000114886 0)
(-0.00215845 0.000119789 0)
(-0.00234212 0.000125086 0)
(-0.00253302 0.000130737 0)
(-0.00273153 0.000136696 0)
(-0.00293799 0.000142918 0)
(-0.00315267 0.000149358 0)
(-0.00337578 0.000155973 0)
(-0.00360748 0.000162723 0)
(-0.00384787 0.000169568 0)
(-0.00409699 0.000176472 0)
(-0.00435483 0.000183397 0)
(-0.00462133 0.000190308 0)
(-0.00489638 0.000197168 0)
(-0.00517981 0.000203938 0)
(-0.00547139 0.000210577 0)
(-0.00577085 0.00021704 0)
(-0.00607784 0.000223275 0)
(-0.00639192 0.000229228 0)
(-0.0067126 0.000234836 0)
(-0.00703929 0.000240027 0)
(-0.0073713 0.000244723 0)
(-0.00770782 0.000248836 0)
(-0.00804794 0.000252268 0)
(-0.0083906 0.000254915 0)
(-0.0087346 0.000256658 0)
(-0.00907859 0.000257375 0)
(-0.00942104 0.000256932 0)
(-0.00976029 0.00025519 0)
(-0.0100944 0.000252005 0)
(-0.0104215 0.00024723 0)
(-0.0107392 0.000240715 0)
(-0.0110451 0.000232314 0)
(-0.0113366 0.000221889 0)
(-0.0116112 0.000209306 0)
(-0.0118657 0.00019445 0)
(-0.0120974 0.00017722 0)
(-0.0123031 0.000157539 0)
(-0.0124797 0.000135358 0)
(-0.012624 0.000110661 0)
(-0.012733 8.34714e-05 0)
(-0.0128037 5.3861e-05 0)
(-0.0128332 2.19469e-05 0)
(-0.0128189 -1.21808e-05 0)
(-0.0127581 -4.82413e-05 0)
(-0.0126489 -8.59978e-05 0)
(-0.0124895 -0.000125144 0)
(-0.0122788 -0.000165314 0)
(-0.0120158 -0.000206092 0)
(-0.0117004 -0.000247018 0)
(-0.0113329 -0.000287597 0)
(-0.0109143 -0.000327303 0)
(-0.0104462 -0.000365591 0)
(-0.00993093 -0.000401909 0)
(-0.00937142 -0.000435706 0)
(-0.00877125 -0.000466451 0)
(-0.00813462 -0.000493641 0)
(-0.00746629 -0.000516819 0)
(-0.00677153 -0.000535583 0)
(-0.00605604 -0.000549604 0)
(-0.00532584 -0.00055863 0)
(-0.00458723 -0.000562497 0)
(-0.00384662 -0.000561139 0)
(-0.00311045 -0.000554586 0)
(-0.0023851 -0.000542966 0)
(-0.00167671 -0.000526506 0)
(-0.000991149 -0.000505524 0)
(-0.00033382 -0.00048045 0)
(0.000290258 -0.0004517 0)
(0.000876697 -0.000419792 0)
(0.00142184 -0.000385336 0)
(0.00192264 -0.000348908 0)
(0.00237675 -0.000311104 0)
(0.00278253 -0.00027252 0)
(0.00313911 -0.000233727 0)
(0.00344624 -0.00019526 0)
(0.00370436 -0.000157607 0)
(0.00391446 -0.0001212 0)
(0.00407806 -8.64072e-05 0)
(0.00419713 -5.35302e-05 0)
(0.00427401 -2.2805e-05 0)
(0.00431129 5.60137e-06 0)
(0.00431179 3.16154e-05 0)
(0.00427846 5.51872e-05 0)
(0.0042143 7.63265e-05 0)
(0.00412229 9.50977e-05 0)
(0.00400534 0.000111605 0)
(0.00386625 0.000125986 0)
(0.00370766 0.000138397 0)
(0.00353205 0.000149013 0)
(0.00334167 0.00015801 0)
(0.00313861 0.000165562 0)
(0.00292477 0.000171825 0)
(0.00270187 0.000176928 0)
(0.00247155 0.00018096 0)
(0.00223538 0.000183947 0)
(0.00199498 0.000185838 0)
(0.0017521 0.000186477 0)
(0.0015088 0.000185571 0)
(0.00126759 0.000182656 0)
(0.00103165 0.000177059 0)
(0.000805052 0.000167867 0)
(0.000592959 0.000153919 0)
(0.000401796 0.000133877 0)
(0.000239156 0.000106506 0)
(0.00011327 7.1454e-05 0)
(3.17432e-05 3.14948e-05 0)
(-1.06583e-06 -1.60529e-06 0)
(5.02698e-06 -3.39379e-05 0)
(2.10858e-05 -4.56652e-05 0)
(2.22433e-05 -2.34094e-05 0)
(-3.00825e-06 1.60264e-05 0)
(-6.05586e-05 6.15195e-05 0)
(-0.000151193 0.000106208 0)
(-0.000272785 0.000146437 0)
(-0.000421623 0.000180533 0)
(-0.000593461 0.000208243 0)
(-0.000784107 0.000230103 0)
(-0.000989841 0.000247076 0)
(-0.00120762 0.000260286 0)
(-0.00143512 0.000270851 0)
(-0.00167076 0.000279778 0)
(-0.00191358 0.000287915 0)
(-0.00216314 0.000295934 0)
(-0.00241944 0.000304333 0)
(-0.00268276 0.000313455 0)
(-0.0029536 0.000323511 0)
(-0.00323257 0.000334607 0)
(-0.00352035 0.000346768 0)
(-0.00381761 0.000359959 0)
(-0.00412499 0.000374105 0)
(-0.00444307 0.000389106 0)
(-0.00477235 0.000404847 0)
(-0.00511325 0.000421208 0)
(-0.00546608 0.000438067 0)
(-0.0058311 0.000455306 0)
(-0.00620843 0.000472809 0)
(-0.00659814 0.000490466 0)
(-0.0070002 0.00050817 0)
(-0.00741449 0.000525816 0)
(-0.00784083 0.0005433 0)
(-0.00827894 0.000560516 0)
(-0.00872846 0.000577354 0)
(-0.00918894 0.000593696 0)
(-0.00965985 0.000609416 0)
(-0.0101406 0.000624375 0)
(-0.0106303 0.000638421 0)
(-0.0111282 0.000651382 0)
(-0.0116333 0.000663068 0)
(-0.0121445 0.000673268 0)
(-0.0126604 0.000681749 0)
(-0.0131795 0.000688255 0)
(-0.0137002 0.000692506 0)
(-0.0142206 0.000694199 0)
(-0.0147386 0.000693013 0)
(-0.0152518 0.000688607 0)
(-0.0157577 0.000680626 0)
(-0.0162534 0.000668706 0)
(-0.0167358 0.000652479 0)
(-0.0172016 0.000631581 0)
(-0.0176473 0.000605658 0)
(-0.018069 0.000574377 0)
(-0.0184627 0.000537435 0)
(-0.0188244 0.00049457 0)
(-0.0191496 0.000445572 0)
(-0.0194341 0.000390294 0)
(-0.0196734 0.000328664 0)
(-0.0198631 0.000260695 0)
(-0.019999 0.000186495 0)
(-0.0200768 0.000106266 0)
(-0.0200929 2.0345e-05 0)
(-0.0200436 -7.06397e-05 0)
(-0.0199255 -0.000166262 0)
(-0.019736 -0.000265848 0)
(-0.0194732 -0.000368556 0)
(-0.0191353 -0.000473427 0)
(-0.0187217 -0.0005794 0)
(-0.0182324 -0.000685315 0)
(-0.017668 -0.000789934 0)
(-0.0170303 -0.000891961 0)
(-0.0163218 -0.00099006 0)
(-0.015546 -0.00108288 0)
(-0.014707 -0.00116911 0)
(-0.0138101 -0.00124745 0)
(-0.0128612 -0.0013167 0)
(-0.011867 -0.00137578 0)
(-0.0108349 -0.00142372 0)
(-0.00977298 -0.00145973 0)
(-0.00868949 -0.00148321 0)
(-0.00759323 -0.00149378 0)
(-0.00649314 -0.00149125 0)
(-0.00539822 -0.00147568 0)
(-0.00431736 -0.00144738 0)
(-0.00325924 -0.00140686 0)
(-0.00223212 -0.00135485 0)
(-0.00124376 -0.00129229 0)
(-0.000301285 -0.00122033 0)
(0.000588888 -0.00114012 0)
(0.00142124 -0.00105306 0)
(0.0021912 -0.000960586 0)
(0.00289508 -0.000864159 0)
(0.00353018 -0.000765232 0)
(0.00409477 -0.000665226 0)
(0.00458808 -0.000565485 0)
(0.00501026 -0.000467254 0)
(0.00536226 -0.00037165 0)
(0.00564583 -0.000279646 0)
(0.00586335 -0.00019206 0)
(0.00601778 -0.000109544 0)
(0.00611255 -3.25849e-05 0)
(0.00615141 3.85045e-05 0)
(0.00613834 0.000103551 0)
(0.00607747 0.000162515 0)
(0.00597298 0.000215486 0)
(0.005829 0.000262661 0)
(0.00564954 0.000304321 0)
(0.00543846 0.000340811 0)
(0.00519939 0.000372517 0)
(0.00493575 0.000399838 0)
(0.00465069 0.000423165 0)
(0.00434717 0.00044285 0)
(0.00402794 0.00045917 0)
(0.00369565 0.000472299 0)
(0.00335288 0.000482256 0)
(0.00300231 0.000488863 0)
(0.00264686 0.000491683 0)
(0.00228984 0.00048996 0)
(0.0019352 0.000482554 0)
(0.00158776 0.000467886 0)
(0.00125343 0.00044391 0)
(0.000939416 0.000408184 0)
(0.000654295 0.00035811 0)
(0.000407818 0.000291568 0)
(0.000210399 0.000208327 0)
(7.26985e-05 0.000113322 0)
(3.66204e-06 2.39994e-05 0)
(3.60215e-06 -4.30729e-05 0)
(3.73023e-06 -4.53978e-05 0)
(-2.40935e-05 3.08611e-06 0)
(-8.94459e-05 7.72132e-05 0)
(-0.000196789 0.000160196 0)
(-0.000345911 0.000241386 0)
(-0.000533798 0.000314794 0)
(-0.000755901 0.000377666 0)
(-0.00100713 0.000429466 0)
(-0.0012825 0.000471019 0)
(-0.00157756 0.000503903 0)
(-0.00188865 0.000530009 0)
(-0.00221295 0.000551249 0)
(-0.00254845 0.000569376 0)
(-0.00289392 0.000585886 0)
(-0.00324873 0.000601978 0)
(-0.00361277 0.000618557 0)
(-0.00398628 0.000636254 0)
(-0.00436976 0.000655468 0)
(-0.00476385 0.000676407 0)
(-0.00516929 0.000699131 0)
(-0.00558678 0.00072359 0)
(-0.00601703 0.000749655 0)
(-0.00646064 0.000777151 0)
(-0.00691812 0.00080587 0)
(-0.00738989 0.000835589 0)
(-0.00787624 0.000866084 0)
(-0.00837734 0.00089713 0)
(-0.00889326 0.000928508 0)
(-0.00942395 0.000960009 0)
(-0.00996924 0.000991427 0)
(-0.0105289 0.00102256 0)
(-0.0111025 0.00105321 0)
(-0.0116896 0.00108318 0)
(-0.0122896 0.00111226 0)
(-0.0129019 0.00114022 0)
(-0.0135255 0.00116683 0)
(-0.0141597 0.00119183 0)
(-0.0148034 0.00121495 0)
(-0.0154553 0.00123586 0)
(-0.0161141 0.00125421 0)
(-0.0167783 0.00126963 0)
(-0.0174461 0.00128167 0)
(-0.0181155 0.00128989 0)
(-0.0187844 0.00129376 0)
(-0.0194503 0.00129275 0)
(-0.0201105 0.00128628 0)
(-0.020762 0.00127373 0)
(-0.0214014 0.00125447 0)
(-0.0220253 0.00122787 0)
(-0.0226296 0.00119328 0)
(-0.0232102 0.00115007 0)
(-0.0237628 0.00109764 0)
(-0.0242824 0.00103542 0)
(-0.0247644 0.000962918 0)
(-0.0252034 0.000879721 0)
(-0.0255944 0.000785512 0)
(-0.0259321 0.000680093 0)
(-0.0262111 0.000563407 0)
(-0.0264262 0.000435555 0)
(-0.0265723 0.000296807 0)
(-0.0266447 0.00014761 0)
(-0.0266387 -1.13788e-05 0)
(-0.0265502 -0.000179126 0)
(-0.0263758 -0.000354709 0)
(-0.0261124 -0.000536819 0)
(-0.0257575 -0.000723936 0)
(-0.0253098 -0.000914357 0)
(-0.0247684 -0.0011062 0)
(-0.0241336 -0.00129742 0)
(-0.0234066 -0.00148587 0)
(-0.0225895 -0.00166928 0)
(-0.0216855 -0.00184535 0)
(-0.0206988 -0.00201175 0)
(-0.0196346 -0.00216622 0)
(-0.0184992 -0.00230656 0)
(-0.0172997 -0.00243071 0)
(-0.0160442 -0.0025368 0)
(-0.0147414 -0.00262319 0)
(-0.0134008 -0.00268854 0)
(-0.0120325 -0.00273179 0)
(-0.0106469 -0.00275226 0)
(-0.00925469 -0.00274963 0)
(-0.00786666 -0.00272396 0)
(-0.00649355 -0.00267571 0)
(-0.00514586 -0.00260574 0)
(-0.0038337 -0.00251525 0)
(-0.00256659 -0.0024058 0)
(-0.00135337 -0.00227926 0)
(-0.000202073 -0.00213773 0)
(0.000880239 -0.00198348 0)
(0.00188757 -0.00181897 0)
(0.002815 -0.00164673 0)
(0.00365876 -0.00146931 0)
(0.00441623 -0.00128919 0)
(0.00508591 -0.00110876 0)
(0.00566744 -0.000930226 0)
(0.00616147 -0.000755627 0)
(0.0065696 -0.000586745 0)
(0.0068943 -0.000425105 0)
(0.00713875 -0.00027195 0)
(0.00730676 -0.000128241 0)
(0.00740262 5.33374e-06 0)
(0.00743096 0.000128368 0)
(0.00739666 0.000240701 0)
(0.00730472 0.000342397 0)
(0.00716013 0.00043371 0)
(0.00696783 0.000515054 0)
(0.0067326 0.000586964 0)
(0.00645901 0.000650051 0)
(0.0061514 0.000704962 0)
(0.00581386 0.000752327 0)
(0.00545025 0.000792711 0)
(0.00506423 0.000826553 0)
(0.00465935 0.000854101 0)
(0.00423912 0.00087534 0)
(0.00380719 0.000889909 0)
(0.00336747 0.000897009 0)
(0.00292437 0.000895314 0)
(0.00248299 0.00088288 0)
(0.00204939 0.000857084 0)
(0.00163078 0.000814636 0)
(0.00123574 0.000751719 0)
(0.000874235 0.000664415 0)
(0.000557492 0.000549593 0)
(0.000297832 0.000406672 0)
(0.000109611 0.000241066 0)
(7.61571e-06 7.07623e-05 0)
(1.74566e-06 -4.13634e-05 0)
(-1.94781e-05 -1.80075e-05 0)
(-8.45436e-05 6.95123e-05 0)
(-0.000199465 0.000188848 0)
(-0.000366045 0.000318176 0)
(-0.000582366 0.000443486 0)
(-0.000844137 0.000556728 0)
(-0.00114583 0.000654192 0)
(-0.00148155 0.00073517 0)
(-0.00184566 0.000800864 0)
(-0.00223321 0.000853553 0)
(-0.00264006 0.000895984 0)
(-0.00306306 0.000930956 0)
(-0.00349994 0.000961054 0)
(-0.00394925 0.000988501 0)
(-0.00441023 0.00101509 0)
(-0.00488265 0.00104219 0)
(-0.0053667 0.00107076 0)
(-0.00586284 0.00110142 0)
(-0.00637167 0.00113448 0)
(-0.00689389 0.00117006 0)
(-0.00743021 0.00120808 0)
(-0.00798127 0.00124835 0)
(-0.00854762 0.0012906 0)
(-0.00912972 0.00133452 0)
(-0.0097279 0.00137976 0)
(-0.0103423 0.00142597 0)
(-0.0109731 0.0014728 0)
(-0.0116201 0.0015199 0)
(-0.0122831 0.00156695 0)
(-0.0129618 0.00161362 0)
(-0.0136557 0.00165959 0)
(-0.0143643 0.00170456 0)
(-0.0150869 0.0017482 0)
(-0.0158227 0.00179021 0)
(-0.0165708 0.00183024 0)
(-0.0173301 0.00186792 0)
(-0.0180995 0.00190287 0)
(-0.0188777 0.00193465 0)
(-0.0196632 0.00196278 0)
(-0.0204544 0.00198672 0)
(-0.0212494 0.0020059 0)
(-0.0220462 0.00201966 0)
(-0.0228423 0.00202729 0)
(-0.0236354 0.00202801 0)
(-0.0244225 0.00202101 0)
(-0.0252004 0.0020054 0)
(-0.0259657 0.00198026 0)
(-0.0267145 0.00194466 0)
(-0.0274427 0.00189763 0)
(-0.0281458 0.00183821 0)
(-0.028819 0.0017655 0)
(-0.0294573 0.0016786 0)
(-0.0300553 0.00157673 0)
(-0.0306074 0.00145917 0)
(-0.0311079 0.00132538 0)
(-0.0315509 0.00117493 0)
(-0.0319303 0.00100761 0)
(-0.0322405 0.000823409 0)
(-0.0324754 0.000622572 0)
(-0.0326295 0.000405594 0)
(-0.0326975 0.000173261 0)
(-0.0326743 -7.33626e-05 0)
(-0.0325555 -0.000332981 0)
(-0.0323372 -0.000603841 0)
(-0.032016 -0.000883952 0)
(-0.0315896 -0.00117104 0)
(-0.0310562 -0.00146254 0)
(-0.0304151 -0.00175566 0)
(-0.0296665 -0.00204736 0)
(-0.0288119 -0.00233445 0)
(-0.0278535 -0.0026136 0)
(-0.026795 -0.00288143 0)
(-0.0256409 -0.00313455 0)
(-0.024397 -0.00336961 0)
(-0.0230702 -0.0035834 0)
(-0.0216684 -0.00377291 0)
(-0.0202003 -0.0039354 0)
(-0.0186759 -0.00406845 0)
(-0.0171055 -0.00417006 0)
(-0.0155004 -0.00423865 0)
(-0.0138722 -0.00427316 0)
(-0.012233 -0.00427307 0)
(-0.010595 -0.00423839 0)
(-0.00897031 -0.00416972 0)
(-0.00737104 -0.00406821 0)
(-0.0058088 -0.00393556 0)
(-0.00429468 -0.00377396 0)
(-0.00283907 -0.00358605 0)
(-0.00145147 -0.00337488 0)
(-0.000140405 -0.00314377 0)
(0.00108676 -0.00289629 0)
(0.00222385 -0.00263616 0)
(0.00326597 -0.00236713 0)
(0.0042095 -0.00209294 0)
(0.00505213 -0.00181715 0)
(0.00579281 -0.00154316 0)
(0.00643171 -0.00127406 0)
(0.00697009 -0.00101264 0)
(0.00741027 -0.000761286 0)
(0.00775544 -0.000522003 0)
(0.00800956 -0.000296369 0)
(0.00817722 -8.55513e-05 0)
(0.00826347 0.00010969 0)
(0.0082737 0.000288974 0)
(0.00821353 0.000452262 0)
(0.00808864 0.000599815 0)
(0.00790467 0.000732142 0)
(0.00766717 0.000849941 0)
(0.00738149 0.000954039 0)
(0.00705279 0.00104532 0)
(0.00668593 0.00112466 0)
(0.00628559 0.00119284 0)
(0.00585624 0.00125044 0)
(0.00540222 0.00129779 0)
(0.00492789 0.0013348 0)
(0.00443772 0.00136091 0)
(0.00393648 0.00137491 0)
(0.00342947 0.00137487 0)
(0.0029227 0.00135799 0)
(0.00242315 0.00132058 0)
(0.00193901 0.00125807 0)
(0.00147982 0.00116523 0)
(0.00105663 0.0010367 0)
(0.00068196 0.000867972 0)
(0.000370156 0.000657168 0)
(0.000139474 0.000408051 0)
(1.04901e-05 0.0001351 0)
(-3.50141e-07 -2.65903e-05 0)
(-4.6022e-05 4.18855e-05 0)
(-0.000153577 0.000183038 0)
(-0.000324585 0.000358799 0)
(-0.000557228 0.000543241 0)
(-0.000847273 0.00071966 0)
(-0.00118879 0.000878446 0)
(-0.00157506 0.00101527 0)
(-0.00199933 0.00112949 0)
(-0.00245537 0.00122286 0)
(-0.00293777 0.00129847 0)
(-0.00344209 0.00136002 0)
(-0.00396493 0.00141127 0)
(-0.00450386 0.00145571 0)
(-0.00505729 0.00149631 0)
(-0.00562437 0.00153552 0)
(-0.00620479 0.00157517 0)
(-0.00679865 0.00161658 0)
(-0.00740635 0.00166058 0)
(-0.00802841 0.00170761 0)
(-0.00866546 0.00175783 0)
(-0.00931811 0.00181112 0)
(-0.00998688 0.00186723 0)
(-0.0106722 0.00192578 0)
(-0.0113745 0.00198633 0)
(-0.0120938 0.00204838 0)
(-0.0128301 0.00211146 0)
(-0.0135835 0.00217506 0)
(-0.0143536 0.0022387 0)
(-0.0151399 0.00230192 0)
(-0.0159421 0.00236427 0)
(-0.0167593 0.00242532 0)
(-0.017591 0.00248463 0)
(-0.0184361 0.00254179 0)
(-0.0192938 0.00259634 0)
(-0.020163 0.00264784 0)
(-0.0210424 0.0026958 0)
(-0.0219307 0.00273967 0)
(-0.0228265 0.00277888 0)
(-0.0237281 0.00281277 0)
(-0.0246338 0.00284062 0)
(-0.0255415 0.00286161 0)
(-0.0264491 0.00287487 0)
(-0.0273539 0.0028794 0)
(-0.0282532 0.00287416 0)
(-0.029144 0.00285801 0)
(-0.0300228 0.00282974 0)
(-0.0308858 0.0027881 0)
(-0.0317289 0.00273179 0)
(-0.0325477 0.00265952 0)
(-0.0333372 0.00257 0)
(-0.0340924 0.00246198 0)
(-0.0348076 0.00233431 0)
(-0.0354771 0.00218592 0)
(-0.0360948 0.00201591 0)
(-0.0366545 0.00182357 0)
(-0.0371499 0.0016084 0)
(-0.0375745 0.00137017 0)
(-0.0379219 0.00110894 0)
(-0.0381858 0.000825103 0)
(-0.0383601 0.000519415 0)
(-0.038439 0.000193007 0)
(-0.038417 -0.000152612 0)
(-0.0382892 -0.00051563 0)
(-0.0380513 -0.000893641 0)
(-0.0376996 -0.00128391 0)
(-0.0372311 -0.00168334 0)
(-0.036644 -0.00208846 0)
(-0.0359372 -0.00249546 0)
(-0.0351108 -0.00290028 0)
(-0.0341657 -0.00329861 0)
(-0.0331044 -0.00368599 0)
(-0.0319303 -0.00405788 0)
(-0.0306481 -0.00440971 0)
(-0.0292635 -0.004737 0)
(-0.0277839 -0.00503541 0)
(-0.0262173 -0.00530088 0)
(-0.0245731 -0.00552968 0)
(-0.0228617 -0.0057185 0)
(-0.0210944 -0.00586456 0)
(-0.0192832 -0.00596567 0)
(-0.0174408 -0.00602028 0)
(-0.0155805 -0.00602754 0)
(-0.0137156 -0.00598734 0)
(-0.0118599 -0.00590035 0)
(-0.0100268 -0.00576795 0)
(-0.0082294 -0.00559229 0)
(-0.00648051 -0.00537617 0)
(-0.00479209 -0.00512304 0)
(-0.00317524 -0.0048369 0)
(-0.00164002 -0.00452218 0)
(-0.000195301 -0.00418364 0)
(0.00115135 -0.0038263 0)
(0.00239375 -0.00345524 0)
(0.00352715 -0.00307556 0)
(0.00454826 -0.00269222 0)
(0.00545524 -0.0023099 0)
(0.00624759 -0.00193295 0)
(0.00692614 -0.00156532 0)
(0.00749291 -0.00121043 0)
(0.007951 -0.000871187 0)
(0.00830441 -0.000549944 0)
(0.00855791 -0.000248479 0)
(0.00871689 3.19834e-05 0)
(0.00878718 0.000290743 0)
(0.0087749 0.000527578 0)
(0.00868635 0.00074269 0)
(0.00852783 0.000936636 0)
(0.00830558 0.00111024 0)
(0.00802569 0.00126454 0)
(0.00769403 0.00140063 0)
(0.00731623 0.00151962 0)
(0.00689771 0.0016225 0)
(0.00644368 0.00171001 0)
(0.00595922 0.00178254 0)
(0.00544943 0.00183994 0)
(0.00491951 0.00188142 0)
(0.00437496 0.00190537 0)
(0.00382181 0.00190922 0)
(0.0032668 0.00188933 0)
(0.00271765 0.00184092 0)
(0.00218327 0.00175813 0)
(0.00167401 0.00163424 0)
(0.00120189 0.00146222 0)
(0.000780725 0.00123566 0)
(0.000426896 0.000950361 0)
(0.000162291 0.000606665 0)
(1.24627e-05 0.00021309 0)
(-2.48659e-06 2.42619e-06 0)
(-7.43931e-05 0.000137554 0)
(-0.000227808 0.000348361 0)
(-0.000459192 0.000592489 0)
(-0.000762587 0.000840961 0)
(-0.00113099 0.00107519 0)
(-0.00155649 0.00128464 0)
(-0.00203098 0.00146485 0)
(-0.00254675 0.00161559 0)
(-0.00309695 0.00173939 0)
(-0.00367576 0.00184035 0)
(-0.00427848 0.00192322 0)
(-0.00490156 0.00199279 0)
(-0.00554246 0.00205348 0)
(-0.00619953 0.00210907 0)
(-0.00687184 0.00216264 0)
(-0.00755901 0.00221653 0)
(-0.00826108 0.00227237 0)
(-0.00897835 0.00233123 0)
(-0.00971124 0.00239366 0)
(-0.0104602 0.00245981 0)
(-0.0112258 0.00252955 0)
(-0.0120084 0.00260253 0)
(-0.0128081 0.00267824 0)
(-0.0136253 0.00275611 0)
(-0.0144597 0.0028355 0)
(-0.0153113 0.00291576 0)
(-0.0161797 0.00299625 0)
(-0.0170645 0.00307636 0)
(-0.0179651 0.00315549 0)
(-0.0188807 0.00323306 0)
(-0.0198105 0.00330854 0)
(-0.0207537 0.00338138 0)
(-0.0217092 0.00345107 0)
(-0.022676 0.00351705 0)
(-0.0236528 0.00357878 0)
(-0.0246386 0.00363564 0)
(-0.0256318 0.00368699 0)
(-0.0266311 0.00373208 0)
(-0.0276348 0.00377009 0)
(-0.0286411 0.00380013 0)
(-0.0296481 0.00382114 0)
(-0.0306535 0.00383201 0)
(-0.0316549 0.00383147 0)
(-0.0326494 0.00381815 0)
(-0.0336339 0.0037906 0)
(-0.0346051 0.00374725 0)
(-0.0355589 0.00368648 0)
(-0.0364913 0.00360664 0)
(-0.0373975 0.00350603 0)
(-0.0382725 0.00338302 0)
(-0.039111 0.00323601 0)
(-0.039907 0.00306352 0)
(-0.0406547 0.00286422 0)
(-0.0413474 0.00263696 0)
(-0.0419788 0.00238086 0)
(-0.0425418 0.00209531 0)
(-0.0430297 0.00178006 0)
(-0.0434356 0.00143522 0)
(-0.0437525 0.00106133 0)
(-0.0439738 0.000659364 0)
(-0.0440932 0.000230819 0)
(-0.0441045 -0.000222352 0)
(-0.0440021 -0.000697875 0)
(-0.0437809 -0.00119266 0)
(-0.0434366 -0.00170323 0)
(-0.0429655 -0.00222563 0)
(-0.0423649 -0.00275548 0)
(-0.0416332 -0.00328796 0)
(-0.0407696 -0.00381789 0)
(-0.0397746 -0.00433984 0)
(-0.0386499 -0.00484812 0)
(-0.0373985 -0.00533695 0)
(-0.0360247 -0.00580051 0)
(-0.0345341 -0.00623305 0)
(-0.0329337 -0.006629 0)
(-0.0312316 -0.00698308 0)
(-0.0294376 -0.00729044 0)
(-0.0275623 -0.00754673 0)
(-0.0256176 -0.00774823 0)
(-0.0236163 -0.00789193 0)
(-0.0215722 -0.00797566 0)
(-0.0194997 -0.0079981 0)
(-0.0174135 -0.00795887 0)
(-0.0153289 -0.00785856 0)
(-0.0132609 -0.00769872 0)
(-0.0112245 -0.00748183 0)
(-0.00923436 -0.00721131 0)
(-0.00730427 -0.00689138 0)
(-0.00544726 -0.006527 0)
(-0.00367526 -0.00612374 0)
(-0.00199895 -0.00568769 0)
(-0.000427564 -0.00522524 0)
(0.00103114 -0.00474296 0)
(0.00237102 -0.00424744 0)
(0.00358761 -0.00374521 0)
(0.00467805 -0.00324244 0)
(0.00564107 -0.00274491 0)
(0.00647692 -0.00225791 0)
(0.00718726 -0.00178609 0)
(0.007775 -0.00133343 0)
(0.00824417 -0.00090322 0)
(0.00859974 -0.000497984 0)
(0.00884741 -0.000119541 0)
(0.00899348 0.000230984 0)
(0.00904463 0.000553102 0)
(0.00900779 0.000846887 0)
(0.00888996 0.00111289 0)
(0.00869812 0.00135205 0)
(0.00843912 0.00156555 0)
(0.00811958 0.00175472 0)
(0.00774592 0.00192092 0)
(0.00732428 0.00206532 0)
(0.00686063 0.00218885 0)
(0.00636077 0.00229195 0)
(0.00583047 0.00237443 0)
(0.00527562 0.00243529 0)
(0.00470236 0.00247253 0)
(0.00411736 0.00248295 0)
(0.00352797 0.00246208 0)
(0.00294251 0.00240405 0)
(0.00237054 0.00230164 0)
(0.00182314 0.00214651 0)
(0.00131323 0.0019297 0)
(0.000855923 0.00164236 0)
(0.000469515 0.00127709 0)
(0.000178977 0.000829597 0)
(1.37619e-05 0.000301162 0)
(-4.67185e-06 4.63413e-05 0)
(-0.000103813 0.000270882 0)
(-0.000305085 0.000568429 0)
(-0.000599547 0.000893483 0)
(-0.000976731 0.00121509 0)
(-0.00142653 0.00151368 0)
(-0.00193883 0.00177855 0)
(-0.00250393 0.00200563 0)
(-0.00311307 0.00219556 0)
(-0.00375873 0.00235193 0)
(-0.00443468 0.00248006 0)
(-0.005136 0.00258588 0)
(-0.00585903 0.00267531 0)
(-0.00660116 0.00275373 0)
(-0.0073607 0.00282574 0)
(-0.00813668 0.00289505 0)
(-0.00892869 0.00296447 0)
(-0.00973666 0.00303597 0)
(-0.0105608 0.00311079 0)
(-0.0114014 0.00318957 0)
(-0.0122587 0.00327247 0)
(-0.0131332 0.0033593 0)
(-0.0140248 0.0034496 0)
(-0.0149338 0.00354272 0)
(-0.0158599 0.00363794 0)
(-0.016803 0.00373447 0)
(-0.0177627 0.00383152 0)
(-0.0187383 0.00392829 0)
(-0.0197293 0.00402405 0)
(-0.0207349 0.00411809 0)
(-0.0217542 0.00420973 0)
(-0.0227863 0.00429834 0)
(-0.0238302 0.00438332 0)
(-0.0248849 0.00446408 0)
(-0.0259494 0.00454 0)
(-0.0270226 0.00461046 0)
(-0.0281033 0.00467477 0)
(-0.0291903 0.00473218 0)
(-0.0302823 0.00478184 0)
(-0.031378 0.00482279 0)
(-0.0324758 0.00485392 0)
(-0.033574 0.004874 0)
(-0.0346705 0.00488163 0)
(-0.0357631 0.00487528 0)
(-0.0368493 0.00485326 0)
(-0.0379261 0.00481375 0)
(-0.0389903 0.0047548 0)
(-0.040038 0.00467441 0)
(-0.0410653 0.00457048 0)
(-0.0420673 0.00444093 0)
(-0.0430392 0.0042837 0)
(-0.0439753 0.00409679 0)
(-0.0448698 0.00387836 0)
(-0.0457163 0.00362673 0)
(-0.0465081 0.00334048 0)
(-0.0472382 0.00301849 0)
(-0.0478993 0.00266 0)
(-0.048484 0.00226464 0)
(-0.0489847 0.00183253 0)
(-0.0493938 0.00136428 0)
(-0.0497038 0.000861058 0)
(-0.0499075 0.000324641 0)
(-0.0499978 -0.000242582 0)
(-0.0499681 -0.000838012 0)
(-0.0498119 -0.00145786 0)
(-0.0495239 -0.00209794 0)
(-0.0490991 -0.0027535 0)
(-0.0485336 -0.00341921 0)
(-0.0478246 -0.00408923 0)
(-0.04697 -0.00475727 0)
(-0.0459692 -0.00541666 0)
(-0.0448229 -0.00606045 0)
(-0.043533 -0.00668151 0)
(-0.042103 -0.00727262 0)
(-0.0405378 -0.00782662 0)
(-0.038844 -0.00833652 0)
(-0.0370294 -0.00879567 0)
(-0.0351038 -0.00919785 0)
(-0.0330781 -0.00953744 0)
(-0.0309646 -0.00980955 0)
(-0.028777 -0.0100102 0)
(-0.02653 -0.0101362 0)
(-0.0242395 -0.0101856 0)
(-0.0219218 -0.0101577 0)
(-0.0195938 -0.0100526 0)
(-0.0172728 -0.00987198 0)
(-0.0149759 -0.00961856 0)
(-0.01272 -0.00929625 0)
(-0.0105213 -0.00891001 0)
(-0.00839532 -0.00846581 0)
(-0.00635627 -0.00797041 0)
(-0.00441714 -0.00743126 0)
(-0.00258936 -0.00685631 0)
(-0.000882616 -0.0062538 0)
(0.000695118 -0.00563202 0)
(0.00213782 -0.00499922 0)
(0.0034414 -0.00436332 0)
(0.00460356 -0.00373178 0)
(0.0056238 -0.00311146 0)
(0.00650333 -0.00250846 0)
(0.00724484 -0.00192805 0)
(0.00785238 -0.00137464 0)
(0.00833114 -0.000851683 0)
(0.00868726 -0.000361733 0)
(0.00892759 9.35372e-05 0)
(0.00905949 0.000513273 0)
(0.00909066 0.000897355 0)
(0.00902895 0.00124628 0)
(0.0088822 0.00156106 0)
(0.00865815 0.00184304 0)
(0.00836432 0.00209377 0)
(0.00800798 0.00231485 0)
(0.00759612 0.00250771 0)
(0.00713549 0.00267345 0)
(0.00663265 0.00281262 0)
(0.0060941 0.00292501 0)
(0.00552637 0.00300944 0)
(0.00493625 0.00306353 0)
(0.00433097 0.00308352 0)
(0.00371847 0.00306408 0)
(0.00310762 0.00299825 0)
(0.00250858 0.0028774 0)
(0.00193313 0.00269142 0)
(0.00139508 0.00242909 0)
(0.000910748 0.00207873 0)
(0.000500128 0.00162905 0)
(0.000190635 0.00107043 0)
(1.45713e-05 0.00039636 0)
(-6.88029e-06 0.000105459 0)
(-0.000133792 0.000443001 0)
(-0.000384048 0.000845013 0)
(-0.000743149 0.00126396 0)
(-0.00119589 0.00166796 0)
(-0.00172887 0.00203738 0)
(-0.00232955 0.00236213 0)
(-0.00298653 0.00263918 0)
(-0.00368993 0.00287047 0)
(-0.00443147 0.00306106 0)
(-0.00520453 0.00321768 0)
(-0.00600397 0.00334762 0)
(-0.00682601 0.00345799 0)
(-0.00766803 0.00355519 0)
(-0.00852831 0.00364465 0)
(-0.00940585 0.00373068 0)
(-0.0103002 0.00381655 0)
(-0.0112112 0.00390452 0)
(-0.0121389 0.00399599 0)
(-0.0130834 0.00409165 0)
(-0.014045 0.00419165 0)
(-0.0150236 0.00429569 0)
(-0.0160192 0.0044032 0)
(-0.0170317 0.0045134 0)
(-0.0180606 0.0046254 0)
(-0.0191055 0.00473827 0)
(-0.0201658 0.00485108 0)
(-0.0212407 0.00496292 0)
(-0.0223295 0.00507294 0)
(-0.0234312 0.00518036 0)
(-0.0245449 0.00528445 0)
(-0.0256697 0.00538455 0)
(-0.0268047 0.00548003 0)
(-0.027949 0.00557029 0)
(-0.0291018 0.0056547 0)
(-0.0302622 0.00573262 0)
(-0.0314294 0.00580334 0)
(-0.0326026 0.00586606 0)
(-0.0337809 0.00591983 0)
(-0.0349633 0.00596359 0)
(-0.0361489 0.00599606 0)
(-0.0373363 0.0060158 0)
(-0.0385241 0.00602117 0)
(-0.0397105 0.00601034 0)
(-0.0408934 0.00598125 0)
(-0.0420704 0.00593171 0)
(-0.0432384 0.00585935 0)
(-0.0443941 0.0057617 0)
(-0.0455336 0.0056362 0)
(-0.0466523 0.00548029 0)
(-0.0477454 0.00529141 0)