/*--------------------------------*- C++ -*----------------------------------*\
| =========                 |                                                 |
| \\      /  F ield         | OpenFOAM: The Open Source CFD Toolbox           |
|  \\    /   O peration     | Version:  2406                                  |
|   \\  /    A nd           | Website:  www.openfoam.com                      |
|    \\/     M anipulation  |                                                 |
\*---------------------------------------------------------------------------*/
FoamFile
{
    version     2.0;
    format      ascii;
    arch        "LSB;label=32;scalar=64";
    class       volVectorField;
    location    "41.7";
    object      U;
}
// * * * * * * * * * * * * * * * * * * * * * * * * * * * * * * * * * * * * * //

dimensions      [0 1 -1 0 0 0 0];

internalField   nonuniform List<vector> 
14400
(
(-1.89658e-05 1.89246e-05 0)
(-5.02857e-06 -1.00314e-05 0)
(0.000102988 -4.25069e-05 0)
(0.000292798 -7.17326e-05 0)
(0.000552884 -8.93805e-05 0)
(0.000849262 -9.93185e-05 0)
(0.0011659 -0.000100475 0)
(0.00147563 -9.59568e-05 0)
(0.00176675 -8.6315e-05 0)
(0.00202337 -7.39916e-05 0)
(0.00224114 -6.00711e-05 0)
(0.00241513 -4.63476e-05 0)
(0.00254809 -3.37114e-05 0)
(0.00264296 -2.31537e-05 0)
(0.00270679 -1.5007e-05 0)
(0.00274605 -9.47851e-06 0)
(0.00276837 -6.32808e-06 0)
(0.00277974 -5.18105e-06 0)
(0.00278526 -5.4207e-06 0)
(0.00278776 -6.39087e-06 0)
(0.00278826 -7.38605e-06 0)
(0.00278556 -7.78442e-06 0)
(0.0027768 -7.05932e-06 0)
(0.00275759 -4.84119e-06 0)
(0.00272257 -8.98998e-07 0)
(0.00266575 4.86742e-06 0)
(0.00258088 1.24792e-05 0)
(0.00246159 2.19176e-05 0)
(0.00230153 3.31697e-05 0)
(0.00209429 4.62499e-05 0)
(0.0018334 6.12091e-05 0)
(0.00151227 7.81238e-05 0)
(0.00112413 9.70793e-05 0)
(0.000662145 0.000118147 0)
(0.000119462 0.000141366 0)
(-0.000510594 0.000166726 0)
(-0.00123433 0.000194158 0)
(-0.00205747 0.000223525 0)
(-0.00298489 0.00025462 0)
(-0.00402036 0.000287158 0)
(-0.00516634 0.000320779 0)
(-0.00642364 0.000355048 0)
(-0.0077913 0.000389455 0)
(-0.0092663 0.000423427 0)
(-0.0108434 0.000456329 0)
(-0.0125152 0.000487482 0)
(-0.0142717 0.000516169 0)
(-0.0161006 0.00054165 0)
(-0.0179873 0.000563176 0)
(-0.0199147 0.000580001 0)
(-0.0218638 0.000591393 0)
(-0.0238134 0.000596646 0)
(-0.0257407 0.00059509 0)
(-0.0276213 0.000586098 0)
(-0.0294295 0.0005691 0)
(-0.0311388 0.00054359 0)
(-0.032722 0.000509144 0)
(-0.0341516 0.000465435 0)
(-0.0354003 0.000412253 0)
(-0.0364415 0.000349532 0)
(-0.0372495 0.000277375 0)
(-0.0378 0.000196085 0)
(-0.0380712 0.000106194 0)
(-0.0380436 8.49546e-06 0)
(-0.0377012 -9.59333e-05 0)
(-0.0370319 -0.000205709 0)
(-0.0360283 -0.000319133 0)
(-0.0346883 -0.000434196 0)
(-0.0330155 -0.000548598 0)
(-0.03102 -0.000659788 0)
(-0.0287187 -0.000765023 0)
(-0.0261354 -0.000861455 0)
(-0.0233009 -0.000946231 0)
(-0.020253 -0.00101662 0)
(-0.0170356 -0.00107015 0)
(-0.0136982 -0.00110473 0)
(-0.0102946 -0.00111882 0)
(-0.00688169 -0.00111153 0)
(-0.00351773 -0.0010827 0)
(-0.000260526 -0.00103298 0)
(0.0028344 -0.000963845 0)
(0.00571579 -0.00087752 0)
(0.00833837 -0.000776913 0)
(0.0106645 -0.000665461 0)
(0.0126655 -0.000546949 0)
(0.0143222 -0.000425305 0)
(0.0156257 -0.000304387 0)
(0.0165773 -0.000187783 0)
(0.0171875 -7.86337e-05 0)
(0.0174755 2.04945e-05 0)
(0.0174679 0.000107695 0)
(0.0171968 0.000181749 0)
(0.0166983 0.000242106 0)
(0.0160107 0.000288824 0)
(0.015173 0.000322483 0)
(0.0142231 0.000344074 0)
(0.013197 0.000354893 0)
(0.0121272 0.000356415 0)
(0.0110425 0.000350217 0)
(0.00996733 0.00033786 0)
(0.00892148 0.000320854 0)
(0.00792062 0.000300562 0)
(0.00697599 0.000278222 0)
(0.00609537 0.000254854 0)
(0.00528285 0.000231362 0)
(0.00454026 0.000208398 0)
(0.0038664 0.000186582 0)
(0.0032592 0.000166235 0)
(0.00271391 0.00014778 0)
(0.00222661 0.000131197 0)
(0.0017906 0.000116743 0)
(0.0014025 0.000103862 0)
(0.00105572 9.25698e-05 0)
(0.000750763 8.13252e-05 0)
(0.000484292 6.98809e-05 0)
(0.000264625 5.51634e-05 0)
(9.47621e-05 3.76073e-05 0)
(-1.00696e-05 1.34927e-05 0)
(-4.592e-05 -8.95658e-06 0)
(-2.27325e-05 -2.22684e-05 0)
(8.7594e-06 5.74077e-06 0)
(0.000149413 -0.000152871 0)
(0.000485864 -0.000317921 0)
(0.000980923 -0.000465658 0)
(0.00161885 -0.000563988 0)
(0.00233464 -0.000620251 0)
(0.00309295 -0.00063092 0)
(0.00383802 -0.000606743 0)
(0.0045402 -0.000552908 0)
(0.00516487 -0.000480403 0)
(0.00569806 -0.00039684 0)
(0.00612751 -0.000311297 0)
(0.00645533 -0.000229915 0)
(0.00668616 -0.000158092 0)
(0.00683246 -9.85406e-05 0)
(0.00690694 -5.2509e-05 0)
(0.00692423 -1.9134e-05 0)
(0.00689623 3.68711e-06 0)
(0.00683254 1.92945e-05 0)
(0.00673801 3.15495e-05 0)
(0.00661322 4.4565e-05 0)
(0.00645375 6.21582e-05 0)
(0.00625113 8.76126e-05 0)
(0.00599321 0.000123419 0)
(0.00566534 0.000171272 0)
(0.00525106 0.000232136 0)
(0.004733 0.000306457 0)
(0.00409331 0.000394366 0)
(0.00331404 0.000495895 0)
(0.00237728 0.000611083 0)
(0.00126524 0.000740019 0)
(-3.96698e-05 0.000882787 0)
(-0.00155456 0.00103937 0)
(-0.00329582 0.00120954 0)
(-0.0052786 0.00139274 0)
(-0.00751631 0.001588 0)
(-0.0100199 0.00179387 0)
(-0.0127974 0.00200842 0)
(-0.015853 0.00222917 0)
(-0.0191863 0.00245315 0)
(-0.0227924 0.00267691 0)
(-0.0266607 0.00289657 0)
(-0.0307748 0.00310789 0)
(-0.0351126 0.00330635 0)
(-0.0396458 0.00348729 0)
(-0.0443404 0.00364595 0)
(-0.0491569 0.00377767 0)
(-0.0540508 0.00387795 0)
(-0.0589734 0.00394254 0)
(-0.0638721 0.0039676 0)
(-0.0686917 0.00394971 0)
(-0.0733751 0.00388596 0)
(-0.0778641 0.00377404 0)
(-0.0821004 0.0036122 0)
(-0.0860264 0.00339936 0)
(-0.0895859 0.0031351 0)
(-0.0927253 0.00281967 0)
(-0.0953935 0.00245406 0)
(-0.0975436 0.00204 0)
(-0.0991327 0.00157999 0)
(-0.100123 0.00107737 0)
(-0.100482 0.000536351 0)
(-0.100183 -3.79537e-05 0)
(-0.0992074 -0.000639466 0)
(-0.0975426 -0.00126113 0)
(-0.0951844 -0.00189488 0)
(-0.092137 -0.0025317 0)
(-0.0884137 -0.00316165 0)
(-0.084037 -0.00377401 0)
(-0.0790396 -0.00435739 0)
(-0.0734639 -0.00490002 0)
(-0.0673625 -0.00539001 0)
(-0.0607979 -0.0058157 0)
(-0.053842 -0.00616608 0)
(-0.0465757 -0.00643123 0)
(-0.0390873 -0.00660279 0)
(-0.0314718 -0.00667441 0)
(-0.0238284 -0.0066422 0)
(-0.0162595 -0.00650504 0)
(-0.00886753 -0.00626488 0)
(-0.00175296 -0.0059268 0)
(0.00498836 -0.00549904 0)
(0.0112679 -0.00499273 0)
(0.0170067 -0.00442158 0)
(0.0221379 -0.0038013 0)
(0.0266088 -0.003149 0)
(0.030382 -0.00248242 0)
(0.0334366 -0.00181919 0)
(0.0357685 -0.00117604 0)
(0.0373906 -0.000568129 0)
(0.0383312 -8.45012e-06 0)
(0.0386333 0.000492626 0)
(0.038352 0.000927627 0)
(0.0375524 0.00129208 0)
(0.0363066 0.00158444 0)
(0.0346909 0.0018059 0)
(0.0327825 0.00196 0)
(0.0306574 0.00205219 0)
(0.028387 0.00208937 0)
(0.0260371 0.00207932 0)
(0.0236652 0.00203027 0)
(0.0213208 0.0019504 0)
(0.0190438 0.00184759 0)
(0.0168659 0.00172896 0)
(0.0148092 0.00160101 0)
(0.0128892 0.0014691 0)
(0.0111132 0.00133797 0)
(0.00948451 0.00121103 0)
(0.0079994 0.00109131 0)
(0.00665378 0.000980033 0)
(0.00543764 0.000878413 0)
(0.00434558 0.000784716 0)
(0.00336681 0.000697926 0)
(0.0025023 0.000611947 0)
(0.00174669 0.000523959 0)
(0.00111469 0.00042293 0)
(0.000609018 0.000309772 0)
(0.000255437 0.000174431 0)
(5.01736e-05 4.74683e-05 0)
(-9.1321e-06 -4.58678e-05 0)
(3.81377e-05 -9.67295e-05 0)
(0.000303869 -0.00048607 0)
(0.000851298 -0.000870084 0)
(0.00160042 -0.00120383 0)
(0.00253392 -0.00143294 0)
(0.00356223 -0.0015617 0)
(0.00464002 -0.00158587 0)
(0.00569288 -0.00152441 0)
(0.00668037 -0.00139164 0)
(0.00755561 -0.00121083 0)
(0.00829779 -0.0010012 0)
(0.008889 -0.000783196 0)
(0.00932944 -0.00057226 0)
(0.00962324 -0.000380968 0)
(0.00978441 -0.000216435 0)
(0.00982764 -8.16693e-05 0)
(0.0097699 2.50144e-05 0)
(0.00962464 0.000108679 0)
(0.00940194 0.000177269 0)
(0.00910542 0.000240244 0)
(0.00873263 0.000307669 0)
(0.00827422 0.000389045 0)
(0.0077151 0.000492602 0)
(0.00703502 0.000624729 0)
(0.00621012 0.000789879 0)
(0.00521402 0.000990724 0)
(0.004019 0.00122858 0)
(0.00259677 0.00150386 0)
(0.000919161 0.00181652 0)
(-0.00104151 0.00216628 0)
(-0.00331198 0.00255267 0)
(-0.00591757 0.0029749 0)
(-0.00888155 0.00343162 0)
(-0.0122244 0.00392064 0)
(-0.0159627 0.00443871 0)
(-0.0201084 0.00498132 0)
(-0.0246674 0.00554259 0)
(-0.0296387 0.00611528 0)
(-0.0350137 0.00669081 0)
(-0.0407751 0.00725944 0)
(-0.0468966 0.00781039 0)
(-0.0533429 0.00833214 0)
(-0.0600695 0.00881271 0)
(-0.0670236 0.00924002 0)
(-0.0741448 0.00960219 0)
(-0.0813659 0.00988795 0)
(-0.0886147 0.0100869 0)
(-0.0958152 0.0101899 0)
(-0.102889 0.0101892 0)
(-0.109759 0.0100785 0)
(-0.116345 0.0098534 0)
(-0.122573 0.00951103 0)
(-0.128369 0.00905028 0)
(-0.133667 0.00847169 0)
(-0.138402 0.00777733 0)
(-0.142518 0.00697076 0)
(-0.145963 0.00605692 0)
(-0.148691 0.00504205 0)
(-0.150663 0.00393368 0)
(-0.151848 0.00274057 0)
(-0.152219 0.00147274 0)
(-0.151757 0.000141494 0)
(-0.15045 -0.00124056 0)
(-0.148294 -0.00265944 0)
(-0.14529 -0.00409976 0)
(-0.141448 -0.00554474 0)
(-0.136785 -0.00697623 0)
(-0.131327 -0.00837477 0)
(-0.125107 -0.00971982 0)
(-0.118169 -0.0109899 0)
(-0.110563 -0.0121632 0)
(-0.10235 -0.0132176 0)
(-0.0935999 -0.0141316 0)
(-0.0843904 -0.0148849 0)
(-0.0748086 -0.015459 0)
(-0.0649491 -0.0158381 0)
(-0.0549131 -0.0160098 0)
(-0.0448074 -0.0159659 0)
(-0.0347427 -0.0157031 0)
(-0.0248318 -0.0152233 0)
(-0.015187 -0.0145342 0)
(-0.00591872 -0.0136493 0)
(0.00286798 -0.0125874 0)
(0.0110752 -0.0113728 0)
(0.0186147 -0.010034 0)
(0.0254103 -0.00860306 0)
(0.0314001 -0.00711433 0)
(0.0365374 -0.00560332 0)
(0.0407928 -0.0041053 0)
(0.0441548 -0.00265401 0)
(0.0466299 -0.00128039 0)
(0.0482425 -1.14709e-05 0)
(0.0490343 0.00113051 0)
(0.0490623 0.00212881 0)
(0.0483971 0.00297262 0)
(0.0471205 0.0036571 0)
(0.0453216 0.00418318 0)
(0.0430943 0.00455709 0)
(0.0405334 0.00478953 0)
(0.0377313 0.00489475 0)
(0.0347747 0.00488949 0)
(0.0317428 0.00479185 0)
(0.0287046 0.00462036 0)
(0.0257187 0.00439294 0)
(0.0228313 0.0041265 0)
(0.0200787 0.00383602 0)
(0.0174849 0.0035348 0)
(0.0150666 0.00323343 0)
(0.0128295 0.00294076 0)
(0.0107767 0.002662 0)
(0.0089018 0.00240077 0)
(0.00720278 0.00215519 0)
(0.00566901 0.00192262 0)
(0.00430414 0.0016919 0)
(0.00310112 0.00145533 0)
(0.00207982 0.00119345 0)
(0.0012388 0.000905383 0)
(0.000615742 0.000577536 0)
(0.000198142 0.000259941 0)
(1.77333e-05 -3.95661e-06 0)
(6.41119e-05 -0.000273436 0)
(0.000442949 -0.000969779 0)
(0.00117386 -0.00161624 0)
(0.00212971 -0.0021572 0)
(0.00329052 -0.0025273 0)
(0.00454484 -0.002728 0)
(0.00584279 -0.00275651 0)
(0.00709683 -0.0026401 0)
(0.00826132 -0.00240371 0)
(0.00928134 -0.00208401 0)
(0.0101324 -0.00171337 0)
(0.0107924 -0.00132489 0)
(0.0112599 -0.000944492 0)
(0.011537 -0.000592772 0)
(0.0116372 -0.000281736 0)
(0.0115739 -1.62248e-05 0)
(0.011363 0.000206626 0)
(0.0110157 0.000395573 0)
(0.0105391 0.000564208 0)
(0.00993222 0.000728816 0)
(0.00918706 0.000906693 0)
(0.00828726 0.00111423 0)
(0.0072097 0.00136564 0)
(0.00592533 0.001672 0)
(0.00440104 0.00204104 0)
(0.00260101 0.00247738 0)
(0.000488237 0.0029832 0)
(-0.00197437 0.00355887 0)
(-0.00482293 0.00420363 0)
(-0.00809178 0.00491583 0)
(-0.0118125 0.00569298 0)
(-0.0160128 0.00653139 0)
(-0.0207154 0.00742587 0)
(-0.0259366 0.00836921 0)
(-0.0316845 0.00935191 0)
(-0.0379583 0.010362 0)
(-0.0447462 0.0113849 0)
(-0.0520252 0.0124038 0)
(-0.0597598 0.0133999 0)
(-0.0679025 0.0143529 0)
(-0.0763941 0.0152415 0)
(-0.0851644 0.0160441 0)
(-0.094134 0.0167398 0)
(-0.103216 0.0173087 0)
(-0.11232 0.0177328 0)
(-0.121349 0.0179967 0)
(-0.130211 0.0180877 0)
(-0.138812 0.0179963 0)
(-0.147062 0.0177162 0)
(-0.15488 0.0172445 0)
(-0.162187 0.016581 0)
(-0.168914 0.0157286 0)
(-0.174999 0.0146923 0)
(-0.180389 0.0134796 0)
(-0.185037 0.0120994 0)
(-0.188904 0.0105623 0)
(-0.191957 0.00888027 0)
(-0.194172 0.00706616 0)
(-0.195528 0.00513399 0)
(-0.196011 0.00309877 0)
(-0.195612 0.000976566 0)
(-0.194327 -0.00121545 0)
(-0.192155 -0.00345882 0)
(-0.189102 -0.00573374 0)
(-0.185178 -0.00801886 0)
(-0.180397 -0.0102913 0)
(-0.17478 -0.0125263 0)
(-0.168353 -0.0146979 0)
(-0.161148 -0.0167783 0)
(-0.153205 -0.0187386 0)
(-0.144569 -0.020549 0)
(-0.135296 -0.0221796 0)
(-0.125448 -0.0236005 0)
(-0.115096 -0.0247834 0)
(-0.104319 -0.025702 0)
(-0.0932047 -0.0263331 0)
(-0.0818482 -0.026658 0)
(-0.0703509 -0.0266633 0)
(-0.0588201 -0.0263418 0)
(-0.0473664 -0.0256934 0)
(-0.0361027 -0.0247258 0)
(-0.0251415 -0.0234545 0)
(-0.0145933 -0.0219029 0)
(-0.00456336 -0.0201018 0)
(0.00484952 -0.0180885 0)
(0.0135559 -0.0159062 0)
(0.0214773 -0.013602 0)
(0.0285483 -0.011226 0)
(0.0347175 -0.00882938 0)
(0.0399493 -0.0064626 0)
(0.0442245 -0.00417408 0)
(0.047541 -0.00200843 0)
(0.0499143 -5.05267e-06 0)
(0.0513769 0.00180309 0)
(0.0519779 0.00339055 0)
(0.0517817 0.00474007 0)
(0.050866 0.00584301 0)
(0.0493196 0.00669922 0)
(0.0472387 0.00731663 0)
(0.0447238 0.00771023 0)
(0.0418759 0.00790097 0)
(0.0387929 0.007914 0)
(0.0355661 0.00777729 0)
(0.0322781 0.00751975 0)
(0.0289997 0.00717009 0)
(0.0257907 0.00675517 0)
(0.0226968 0.00629966 0)
(0.0197539 0.00582442 0)
(0.0169837 0.00534712 0)
(0.014403 0.0048798 0)
(0.0120152 0.0044309 0)
(0.0098271 0.00400055 0)
(0.00783236 0.00358597 0)
(0.00604055 0.00317259 0)
(0.00444391 0.00274832 0)
(0.00306856 0.00228664 0)
(0.00190761 0.00178269 0)
(0.00101368 0.00121829 0)
(0.000367538 0.000649102 0)
(4.93502e-05 0.000123289 0)
(8.0646e-05 -0.000516947 0)
(0.000545366 -0.00159902 0)
(0.00142328 -0.00255548 0)
(0.00254328 -0.00332691 0)
(0.00387896 -0.00384573 0)
(0.00529643 -0.00411211 0)
(0.00674145 -0.00412827 0)
(0.00811526 -0.00393103 0)
(0.0093695 -0.00355843 0)
(0.0104439 -0.00306193 0)
(0.0113128 -0.00248889 0)
(0.0119516 -0.00188614 0)
(0.012358 -0.00129099 0)
(0.0125324 -0.000732433 0)
(0.0124864 -0.000227365 0)
(0.012231 0.000218028 0)
(0.0117782 0.000608607 0)
(0.0111345 0.000957979 0)
(0.0103008 0.00128671 0)
(0.00926911 0.00161929 0)
(0.00802288 0.00198152 0)
(0.00653674 0.00239776 0)
(0.00477814 0.00288891 0)
(0.00270853 0.00347113 0)
(0.000285704 0.00415545 0)
(-0.00253458 0.00494809 0)
(-0.00579661 0.00585135 0)
(-0.00954331 0.00686446 0)
(-0.0138146 0.00798432 0)
(-0.018646 0.00920575 0)
(-0.0240671 0.0105214 0)
(-0.0300994 0.0119211 0)
(-0.036755 0.0133919 0)
(-0.0440342 0.0149167 0)
(-0.0519241 0.0164748 0)
(-0.0603973 0.0180418 0)
(-0.0694112 0.0195897 0)
(-0.0789081 0.0210878 0)
(-0.0888154 0.0225037 0)
(-0.0990481 0.0238044 0)
(-0.10951 0.0249576 0)
(-0.120099 0.0259328 0)
(-0.130705 0.0267025 0)
(-0.141221 0.0272435 0)
(-0.15154 0.0275371 0)
(-0.161559 0.0275699 0)
(-0.171186 0.0273336 0)
(-0.180333 0.0268252 0)
(-0.188926 0.0260461 0)
(-0.1969 0.0250019 0)
(-0.204198 0.0237015 0)
(-0.210775 0.0221566 0)
(-0.216595 0.0203809 0)
(-0.221627 0.0183897 0)
(-0.225848 0.0161992 0)
(-0.229241 0.0138265 0)
(-0.231793 0.011289 0)
(-0.233496 0.00860462 0)
(-0.234342 0.0057918 0)
(-0.234329 0.00286939 0)
(-0.233454 -0.000142997 0)
(-0.231719 -0.00322479 0)
(-0.229125 -0.00635415 0)
(-0.225677 -0.00950775 0)
(-0.221383 -0.0126604 0)
(-0.216252 -0.0157851 0)
(-0.210297 -0.0188522 0)
(-0.203537 -0.0218304 0)
(-0.195993 -0.0246857 0)
(-0.187695 -0.0273826 0)
(-0.178677 -0.0298836 0)
(-0.168983 -0.0321508 0)
(-0.158663 -0.0341458 0)
(-0.147776 -0.0358314 0)
(-0.136393 -0.0371723 0)
(-0.124591 -0.0381369 0)
(-0.112457 -0.0386984 0)
(-0.100088 -0.0388365 0)
(-0.087586 -0.0385385 0)
(-0.0750596 -0.0378004 0)
(-0.0626214 -0.0366282 0)
(-0.050386 -0.0350377 0)
(-0.0384671 -0.033055 0)
(-0.0269754 -0.0307163 0)
(-0.0160167 -0.0280661 0)
(-0.00568866 -0.025157 0)
(0.00392002 -0.0220474 0)
(0.0127319 -0.0188002 0)
(0.0206817 -0.0154805 0)
(0.0277177 -0.0121538 0)
(0.033802 -0.00888459 0)
(0.0389117 -0.00573378 0)
(0.0430389 -0.00275761 0)
(0.0461915 -5.87097e-06 0)
(0.0483932 0.00247954 0)
(0.0496839 0.00466583 0)
(0.0501183 0.00653032 0)
(0.0497661 0.00806106 0)
(0.0487089 0.00925704 0)
(0.047039 0.0101278 0)
(0.044855 0.0106924 0)
(0.0422593 0.0109781 0)
(0.0393531 0.0110184 0)
(0.0362343 0.0108507 0)
(0.0329918 0.0105145 0)
(0.0297064 0.0100491 0)
(0.0264447 0.00949166 0)
(0.0232637 0.00887566 0)
(0.0202041 0.00823015 0)
(0.0173004 0.00757689 0)
(0.01457 0.00693177 0)
(0.0120328 0.00629972 0)
(0.00969039 0.00567976 0)
(0.00756171 0.00505618 0)
(0.00564079 0.00441299 0)
(0.00396279 0.00371797 0)
(0.00251784 0.00295923 0)
(0.00137736 0.00211226 0)
(0.000519615 0.00122463 0)
(7.61437e-05 0.000337106 0)
(9.32735e-05 -0.000801781 0)
(0.000626074 -0.00232702 0)
(0.0016194 -0.00362281 0)
(0.00286471 -0.00463083 0)
(0.00432644 -0.0052889 0)
(0.00584935 -0.00560033 0)
(0.00737437 -0.00557679 0)
(0.00879312 -0.00526694 0)
(0.0100561 -0.00472407 0)
(0.0110998 -0.0040155 0)
(0.0118992 -0.00320419 0)
(0.0124289 -0.0023506 0)
(0.0126863 -0.00150304 0)
(0.0126705 -0.00069793 0)
(0.0123907 4.40178e-05 0)
(0.0118532 0.000716598 0)
(0.0110647 0.00132803 0)
(0.0100241 0.00189811 0)
(0.0087236 0.00245554 0)
(0.00714504 0.00303394 0)
(0.00526148 0.00366818 0)
(0.00303679 0.00439066 0)
(0.000428181 0.00522868 0)
(-0.00261216 0.00620271 0)
(-0.00613424 0.00732591 0)
(-0.0101882 0.00860463 0)
(-0.0148217 0.0100393 0)
(-0.0200784 0.0116257 0)
(-0.0259952 0.0133552 0)
(-0.0326005 0.0152154 0)
(-0.0399116 0.0171896 0)
(-0.0479324 0.0192561 0)
(-0.0566513 0.0213884 0)
(-0.0660394 0.0235542 0)
(-0.0760494 0.0257165 0)
(-0.0866159 0.0278338 0)
(-0.0976559 0.0298617 0)
(-0.109071 0.0317546 0)
(-0.120752 0.0334671 0)
(-0.13258 0.0349567 0)
(-0.144432 0.036185 0)
(-0.156189 0.0371194 0)
(-0.167733 0.0377343 0)
(-0.178956 0.0380115 0)
(-0.18976 0.0379406 0)
(-0.200061 0.0375181 0)
(-0.209786 0.0367472 0)
(-0.218876 0.0356365 0)
(-0.227284 0.034199 0)
(-0.234973 0.0324511 0)
(-0.241916 0.0304114 0)
(-0.248093 0.0281 0)
(-0.25349 0.0255376 0)
(-0.258099 0.0227451 0)
(-0.261913 0.0197432 0)
(-0.264928 0.0165523 0)
(-0.267143 0.0131922 0)
(-0.268554 0.0096826 0)
(-0.269161 0.006043 0)
(-0.268961 0.00229309 0)
(-0.267953 -0.00154681 0)
(-0.266134 -0.00545544 0)
(-0.263503 -0.00941006 0)
(-0.260057 -0.0133861 0)
(-0.255796 -0.0173567 0)
(-0.250722 -0.0212923 0)
(-0.244837 -0.0251604 0)
(-0.238148 -0.0289256 0)
(-0.230666 -0.0325492 0)
(-0.222406 -0.0359895 0)
(-0.21339 -0.0392026 0)
(-0.203648 -0.0421425 0)
(-0.193218 -0.0447622 0)
(-0.182146 -0.0470151 0)
(-0.170492 -0.0488564 0)
(-0.158322 -0.0502444 0)
(-0.145715 -0.0511429 0)
(-0.132761 -0.0515225 0)
(-0.119559 -0.0513629 0)
(-0.106216 -0.050654 0)
(-0.0928452 -0.0493977 0)
(-0.079565 -0.0476082 0)
(-0.0664944 -0.0453123 0)
(-0.0537509 -0.0425495 0)
(-0.0414482 -0.0393701 0)
(-0.0296927 -0.0358347 0)
(-0.018582 -0.0320114 0)
(-0.00820286 -0.0279741 0)
(0.00137015 -0.0238001 0)
(0.0100751 -0.0195678 0)
(0.0178629 -0.0153549 0)
(0.0246978 -0.011236 0)
(0.0305569 -0.00728143 0)
(0.0354306 -0.00355549 0)
(0.0393228 -0.00011496 0)
(0.042251 0.00299222 0)
(0.044247 0.00572832 0)
(0.0453569 0.00806696 0)
(0.045641 0.00999402 0)
(0.0451726 0.011508 0)
(0.0440364 0.01262 0)
(0.0423261 0.0133526 0)
(0.0401404 0.0137385 0)
(0.0375804 0.0138182 0)
(0.0347443 0.0136377 0)
(0.0317259 0.0132454 0)
(0.0286084 0.01269 0)
(0.0254672 0.0120171 0)
(0.0223617 0.011268 0)
(0.0193449 0.0104761 0)
(0.0164508 0.00966669 0)
(0.0137148 0.00885234 0)
(0.0111499 0.00803624 0)
(0.00878699 0.00720436 0)
(0.00662514 0.00633803 0)
(0.00471085 0.00540083 0)
(0.00303467 0.00437085 0)
(0.00168784 0.00321412 0)
(0.000649878 0.00195732 0)
(9.88693e-05 0.000622678 0)
(0.000101989 -0.00112462 0)
(0.000686167 -0.00314372 0)
(0.00176686 -0.00480481 0)
(0.00310294 -0.00605375 0)
(0.00464782 -0.00683814 0)
(0.00622573 -0.00716869 0)
(0.00777171 -0.00707098 0)
(0.00916873 -0.00660879 0)
(0.0103668 -0.0058536 0)
(0.0113011 -0.00489016 0)
(0.0119483 -0.00379804 0)
(0.0122835 -0.00265123 0)
(0.012305 -0.0015083 0)
(0.0120102 -0.000411798 0)
(0.0114052 0.000615467 0)
(0.010491 0.00156918 0)
(0.00926651 0.0024628 0)
(0.00772105 0.00332404 0)
(0.00583564 0.00419108 0)
(0.00358016 0.00510748 0)
(0.000915536 0.0061173 0)
(-0.0022057 0.00726047 0)
(-0.0058361 0.00856944 0)
(-0.0100309 0.0100672 0)
(-0.0148448 0.0117666 0)
(-0.0203288 0.0136714 0)
(-0.0265281 0.0157768 0)
(-0.0334784 0.0180708 0)
(-0.0412041 0.0205347 0)
(-0.0497149 0.0231434 0)
(-0.0590031 0.0258648 0)
(-0.0690417 0.0286599 0)
(-0.0797823 0.0314828 0)
(-0.0911554 0.0342813 0)
(-0.103071 0.0369987 0)
(-0.115421 0.0395758 0)
(-0.128083 0.0419531 0)
(-0.140927 0.044074 0)
(-0.153817 0.0458871 0)
(-0.166621 0.0473486 0)
(-0.179213 0.0484238 0)
(-0.191479 0.0490881 0)
(-0.203317 0.0493272 0)
(-0.214642 0.0491364 0)
(-0.225386 0.0485194 0)
(-0.235495 0.0474874 0)
(-0.244927 0.046057 0)
(-0.253656 0.0442489 0)
(-0.261662 0.0420867 0)
(-0.268933 0.0395949 0)
(-0.275464 0.036799 0)
(-0.281253 0.0337237 0)
(-0.2863 0.030393 0)
(-0.290606 0.02683 0)
(-0.294174 0.0230562 0)
(-0.297002 0.0190923 0)
(-0.299093 0.0149579 0)
(-0.300443 0.0106718 0)
(-0.301051 0.00625263 0)
(-0.300913 0.00171932 0)
(-0.300022 -0.00290867 0)
(-0.298372 -0.0076106 0)
(-0.295956 -0.012364 0)
(-0.292765 -0.017144 0)
(-0.288792 -0.0219229 0)
(-0.284028 -0.0266696 0)
(-0.278467 -0.0313495 0)
(-0.272104 -0.0359236 0)
(-0.264938 -0.0403491 0)
(-0.256972 -0.0445788 0)
(-0.248214 -0.048562 0)
(-0.238678 -0.0522448 0)
(-0.228387 -0.0555714 0)
(-0.217375 -0.0584847 0)
(-0.205683 -0.0609289 0)
(-0.193369 -0.0628508 0)
(-0.180499 -0.0642022 0)
(-0.167155 -0.0649424 0)
(-0.153429 -0.0650406 0)
(-0.139428 -0.0644778 0)
(-0.125266 -0.0632489 0)
(-0.111066 -0.061364 0)
(-0.0969559 -0.0588491 0)
(-0.0830629 -0.0557453 0)
(-0.0695136 -0.0521086 0)
(-0.0564277 -0.0480075 0)
(-0.0439158 -0.0435205 0)
(-0.0320768 -0.0387338 0)
(-0.0209961 -0.0337377 0)
(-0.0107449 -0.0286242 0)
(-0.0013799 -0.0234841 0)
(0.00705582 -0.0184051 0)
(0.014532 -0.01347 0)
(0.0210306 -0.0087554 0)
(0.0265444 -0.00433027 0)
(0.031078 -0.00025516 0)
(0.0346467 0.00341912 0)
(0.0372782 0.0066527 0)
(0.0390122 0.00941794 0)
(0.039902 0.0117004 0)
(0.0400128 0.0134995 0)
(0.0394222 0.0148286 0)
(0.0382168 0.0157141 0)
(0.036491 0.0161939 0)
(0.0343413 0.0163151 0)
(0.031866 0.0161311 0)
(0.0291567 0.0156982 0)
(0.0263015 0.0150724 0)
(0.0233745 0.0143063 0)
(0.0204454 0.0134448 0)
(0.0175638 0.0125242 0)
(0.0147817 0.0115663 0)
(0.0121246 0.0105804 0)
(0.00963769 0.00955634 0)
(0.00732811 0.008474 0)
(0.00525556 0.00729389 0)
(0.00341487 0.005982 0)
(0.00191667 0.00449264 0)
(0.000744716 0.0028228 0)
(0.000114704 0.000968275 0)
(0.000109737 -0.0014717 0)
(0.000735198 -0.00401912 0)
(0.00188069 -0.006058 0)
(0.00327606 -0.0075398 0)
(0.00486226 -0.00842574 0)
(0.00644472 -0.00873885 0)
(0.00795234 -0.00852351 0)
(0.00926108 -0.00786254 0)
(0.0103215 -0.00684863 0)
(0.0110688 -0.0055855 0)
(0.0114828 -0.00416976 0)
(0.01154 -0.00268815 0)
(0.0112398 -0.00120795 0)
(0.0105776 0.0002244 0)
(0.00955554 0.00158649 0)
(0.0081675 0.00287845 0)
(0.00640285 0.00412128 0)
(0.00423907 0.00535237 0)
(0.00164425 0.00662041 0)
(-0.00142505 0.00797898 0)
(-0.00502025 0.00948042 0)
(-0.00919918 0.0111703 0)
(-0.0140217 0.0130836 0)
(-0.0195464 0.0152421 0)
(-0.0258266 0.0176548 0)
(-0.0329073 0.0203177 0)
(-0.0408212 0.0232159 0)
(-0.0495861 0.0263237 0)
(-0.059201 0.0296063 0)
(-0.0696442 0.0330192 0)
(-0.0808704 0.036509 0)
(-0.09281 0.0400137 0)
(-0.10537 0.0434647 0)
(-0.118436 0.0467891 0)
(-0.131877 0.0499124 0)
(-0.14555 0.0527623 0)
(-0.159309 0.0552725 0)
(-0.173008 0.0573854 0)
(-0.186512 0.0590548 0)
(-0.199698 0.0602473 0)
(-0.21246 0.0609424 0)
(-0.224709 0.0611322 0)
(-0.236378 0.0608197 0)
(-0.247415 0.0600172 0)
(-0.257784 0.0587443 0)
(-0.267461 0.0570256 0)
(-0.276435 0.0548888 0)
(-0.284701 0.0523635 0)
(-0.292257 0.0494796 0)
(-0.299109 0.046266 0)
(-0.305262 0.0427508 0)
(-0.310722 0.0389602 0)
(-0.315494 0.0349183 0)
(-0.319585 0.0306478 0)
(-0.322997 0.0261691 0)
(-0.325732 0.0215015 0)
(-0.327793 0.0166629 0)
(-0.329176 0.0116705 0)
(-0.329878 0.00654125 0)
(-0.329896 0.00129223 0)
(-0.32922 -0.00405868 0)
(-0.327844 -0.0094922 0)
(-0.325754 -0.0149871 0)
(-0.322941 -0.0205193 0)
(-0.319389 -0.0260617 0)
(-0.315085 -0.0315832 0)
(-0.310013 -0.0370482 0)
(-0.30416 -0.0424162 0)
(-0.297512 -0.0476416 0)
(-0.290059 -0.0526734 0)
(-0.281792 -0.0574556 0)
(-0.272711 -0.0619276 0)
(-0.26282 -0.0660249 0)
(-0.252134 -0.0696806 0)
(-0.240677 -0.0728272 0)
(-0.228486 -0.0753986 0)
(-0.215612 -0.0773328 0)
(-0.202122 -0.0785748 0)
(-0.188099 -0.0790797 0)
(-0.173641 -0.0788153 0)
(-0.158861 -0.0777655 0)
(-0.143884 -0.0759317 0)
(-0.128848 -0.0733346 0)
(-0.113892 -0.0700145 0)
(-0.0991591 -0.0660299 0)
(-0.0847893 -0.0614564 0)
(-0.0709131 -0.0563831 0)
(-0.0576494 -0.0509094 0)
(-0.0451015 -0.0451409 0)
(-0.0333556 -0.039185 0)
(-0.0224799 -0.0331483 0)
(-0.0125255 -0.0271329 0)
(-0.00352788 -0.0212345 0)
(0.00449122 -0.0155414 0)
(0.0115215 -0.0101331 0)
(0.0175627 -0.00508022 0)
(0.0226236 -0.000443723 0)
(0.0267218 0.00372586 0)
(0.0298843 0.00738941 0)
(0.0321483 0.0105204 0)
(0.033562 0.0131059 0)
(0.0341855 0.0151478 0)
(0.0340894 0.0166625 0)
(0.0333552 0.0176805 0)
(0.0320703 0.0182449 0)
(0.030329 0.0184084 0)
(0.0282236 0.0182305 0)
(0.0258478 0.0177735 0)
(0.0232844 0.0170985 0)
(0.0206156 0.0162609 0)
(0.017904 0.0153069 0)
(0.0152167 0.0142685 0)
(0.0125924 0.013162 0)
(0.0100906 0.0119829 0)
(0.00772891 0.0107106 0)
(0.00558071 0.00930351 0)
(0.00364838 0.00771432 0)
(0.0020595 0.00588398 0)
(0.00080432 0.00377471 0)
(0.000124577 0.00135181 0)
(0.000116309 -0.00184347 0)
(0.000773796 -0.00494595 0)
(0.0019636 -0.00736706 0)
(0.00338798 -0.00906604 0)
(0.00497457 -0.0100213 0)
(0.00651167 -0.0102729 0)
(0.0079224 -0.0098892 0)
(0.00907751 -0.0089762 0)
(0.00992914 -0.00765097 0)
(0.0104143 -0.00603784 0)
(0.0105166 -0.00425074 0)
(0.0102147 -0.00238804 0)
(0.0095085 -0.000523745 0)
(0.00839111 0.0012946 0)
(0.00685917 0.00304792 0)
(0.00489765 0.0047437 0)
(0.00248461 0.00641286 0)
(-0.000415849 0.00810407 0)
(-0.00384949 0.00987695 0)
(-0.0078729 0.0117943 0)
(-0.0125483 0.0139146 0)
(-0.0179405 0.0162857 0)
(-0.0241118 0.0189405 0)
(-0.0311173 0.0218951 0)
(-0.0390005 0.0251481 0)
(-0.0477898 0.0286822 0)
(-0.0574943 0.0324652 0)
(-0.0681008 0.0364513 0)
(-0.079571 0.0405824 0)
(-0.0918402 0.044789 0)
(-0.104817 0.0489921 0)
(-0.118384 0.0531053 0)
(-0.132406 0.0570391 0)
(-0.14673 0.0607044 0)
(-0.161198 0.0640176 0)
(-0.175654 0.0669046 0)
(-0.189949 0.0693044 0)
(-0.203949 0.071171 0)
(-0.217539 0.0724747 0)
(-0.230624 0.0732012 0)
(-0.243134 0.0733504 0)
(-0.255014 0.0729338 0)
(-0.266231 0.0719721 0)
(-0.276763 0.0704927 0)
(-0.2866 0.0685272 0)
(-0.295742 0.0661094 0)
(-0.304192 0.0632737 0)
(-0.311958 0.0600539 0)
(-0.319051 0.0564822 0)
(-0.32548 0.052589 0)
(-0.331257 0.0484023 0)
(-0.336391 0.0439477 0)
(-0.340891 0.0392484 0)
(-0.344765 0.0343256 0)
(-0.348019 0.0291982 0)
(-0.350658 0.0238838 0)
(-0.352685 0.0183985 0)
(-0.354099 0.0127575 0)
(-0.354901 0.00697576 0)
(-0.355087 0.00106818 0)
(-0.354651 -0.00494946 0)
(-0.353584 -0.0110601 0)
(-0.351875 -0.0172445 0)
(-0.34951 -0.0234809 0)
(-0.346473 -0.0297437 0)
(-0.342744 -0.0360034 0)
(-0.338301 -0.0422253 0)
(-0.333122 -0.0483691 0)
(-0.327183 -0.0543884 0)
(-0.320458 -0.0602304 0)
(-0.312925 -0.0658357 0)
(-0.304565 -0.0711384 0)
(-0.29536 -0.0760671 0)
(-0.285305 -0.0805457 0)
(-0.274398 -0.0844952 0)
(-0.262654 -0.087836 0)
(-0.250099 -0.0904907 0)
(-0.236779 -0.0923872 0)
(-0.222758 -0.0934628 0)
(-0.208117 -0.0936676 0)
(-0.192962 -0.0929687 0)
(-0.177414 -0.0913531 0)
(-0.161613 -0.0888304 0)
(-0.145712 -0.0854338 0)
(-0.129872 -0.0812208 0)
(-0.114255 -0.0762707 0)
(-0.0990206 -0.0706822 0)
(-0.0843163 -0.0645687 0)
(-0.0702745 -0.0580533 0)
(-0.0570075 -0.0512635 0)
(-0.0446051 -0.0443257 0)
(-0.0331343 -0.0373612 0)
(-0.0226408 -0.030483 0)
(-0.0131512 -0.0237936 0)
(-0.00467671 -0.0173843 0)
(0.00278342 -0.0113352 0)
(0.00923909 -0.0057152 0)
(0.0147076 -0.00058251 0)
(0.0192123 0.00401571 0)
(0.0227839 0.00804395 0)
(0.0254602 0.0114794 0)
(0.0272885 0.0143131 0)
(0.0283249 0.016551 0)
(0.0286369 0.0182138 0)
(0.0282997 0.019337 0)
(0.027398 0.0199687 0)
(0.0260188 0.0201667 0)
(0.0242547 0.0199954 0)
(0.0221914 0.0195206 0)
(0.0199178 0.0188054 0)
(0.0175061 0.0179041 0)
(0.015035 0.0168579 0)
(0.0125552 0.0156902 0)
(0.0101397 0.0144029 0)
(0.00781764 0.0129751 0)
(0.0056757 0.0113641 0)
(0.0037261 0.00950907 0)
(0.00210988 0.00733744 0)
(0.00082514 0.00477551 0)
(0.000127567 0.00175699 0)
(0.000122626 -0.00223265 0)
(0.000804536 -0.00590418 0)
(0.00201868 -0.00869919 0)
(0.00344091 -0.0105869 0)
(0.00498476 -0.0115675 0)
(0.00642383 -0.0117036 0)
(0.00767651 -0.0110928 0)
(0.00861091 -0.00986887 0)
(0.00918214 -0.00817611 0)
(0.0093306 -0.00616059 0)
(0.00904435 -0.00395313 0)
(0.00830412 -0.00166187 0)
(0.00710986 0.000635332 0)
(0.00545073 0.00289317 0)
(0.00331622 0.00509935 0)
(0.000680652 0.00727172 0)
(-0.00249085 0.00945325 0)
(-0.00624824 0.0117047 0)
(-0.0106507 0.014096 0)
(-0.0157659 0.0166966 0)
(-0.0216629 0.0195672 0)
(-0.0284078 0.0227527 0)
(-0.0360572 0.0262778 0)
(-0.0446533 0.0301456 0)
(-0.054219 0.0343375 0)
(-0.0647541 0.0388149 0)
(-0.0762319 0.0435214 0)
(-0.088597 0.0483843 0)
(-0.101764 0.0533172 0)
(-0.11562 0.058223 0)
(-0.130027 0.0629977 0)
(-0.144827 0.0675352 0)
(-0.159853 0.0717329 0)
(-0.174935 0.0754975 0)
(-0.18991 0.0787492 0)
(-0.204629 0.0814257 0)
(-0.218966 0.0834836 0)
(-0.232814 0.0848985 0)
(-0.246094 0.0856631 0)
(-0.258746 0.0857856 0)
(-0.270733 0.0852857 0)
(-0.28203 0.0841918 0)
(-0.29263 0.0825384 0)
(-0.30253 0.0803629 0)
(-0.311738 0.0777043 0)
(-0.320264 0.0746011 0)
(-0.328119 0.0710906 0)
(-0.33532 0.0672082 0)
(-0.341879 0.0629867 0)
(-0.347813 0.0584564 0)
(-0.353135 0.0536448 0)
(-0.35786 0.0485767 0)
(-0.362001 0.0432744 0)
(-0.365571 0.0377577 0)
(-0.36858 0.0320443 0)
(-0.371038 0.0261499 0)
(-0.372953 0.0200889 0)
(-0.37433 0.0138744 0)
(-0.375172 0.00751891 0)
(-0.37548 0.0010347 0)
(-0.375252 -0.00556535 0)