/*--------------------------------*- C++ -*----------------------------------*\
| =========                 |                                                 |
| \\      /  F ield         | OpenFOAM: The Open Source CFD Toolbox           |
|  \\    /   O peration     | Version:  2406                                  |
|   \\  /    A nd           | Website:  www.openfoam.com                      |
|    \\/     M anipulation  |                                                 |
\*---------------------------------------------------------------------------*/
FoamFile
{
    version     2.0;
    format      ascii;
    arch        "LSB;label=32;scalar=64";
    class       volVectorField;
    location    "25.8";
    object      Uold;
}
// * * * * * * * * * * * * * * * * * * * * * * * * * * * * * * * * * * * * * //

dimensions      [0 1 -1 0 0 0 0];

internalField   nonuniform List<vector> 
900
(
(0.000320227 -0.000454629 0)
(0.00285928 -0.00100614 0)
(0.00586974 -0.00087467 0)
(0.00733013 -0.000561383 0)
(0.00787806 -0.000474726 0)
(0.00772288 -0.000636079 0)
(0.00740037 -0.000931488 0)
(0.00679055 -0.00129802 0)
(0.00543295 -0.00218747 0)
(0.00161748 -0.00347892 0)
(-0.00658998 -0.00291095 0)
(-0.020313 0.00120429 0)
(-0.0393055 0.00665977 0)
(-0.0609093 0.0101108 0)
(-0.0814907 0.0107626 0)
(-0.0984803 0.00955243 0)
(-0.11036 0.00722044 0)
(-0.115955 0.00415326 0)
(-0.114679 0.000610574 0)
(-0.105817 -0.00318881 0)
(-0.0896053 -0.00692731 0)
(-0.0660541 -0.0101117 0)
(-0.0375679 -0.0119586 0)
(-0.0064109 -0.0114785 0)
(0.0205119 -0.00745442 0)
(0.0375355 -0.000714573 0)
(0.0375456 0.00561802 0)
(0.0256415 0.00685571 0)
(0.0124089 0.00500093 0)
(0.00176182 0.00216783 0)
(0.000989994 -0.00271475 0)
(0.00522987 -0.00461319 0)
(0.00952266 -0.00357007 0)
(0.0110635 -0.00145843 0)
(0.0104381 0.0001113 0)
(0.00739995 0.00113046 0)
(0.00155715 0.00190213 0)
(-0.0094275 0.00329573 0)
(-0.0281026 0.00744849 0)
(-0.0548502 0.015758 0)
(-0.0867782 0.0252138 0)
(-0.118812 0.0318759 0)
(-0.146795 0.0342292 0)
(-0.169128 0.0323025 0)
(-0.185706 0.0270307 0)
(-0.196504 0.0195195 0)
(-0.201359 0.0104671 0)
(-0.199979 0.000328191 0)
(-0.192148 -0.0105458 0)
(-0.17742 -0.0218021 0)
(-0.155778 -0.032671 0)
(-0.127105 -0.0420332 0)
(-0.0926475 -0.0476606 0)
(-0.0542602 -0.0469883 0)
(-0.0166407 -0.0364612 0)
(0.0142768 -0.0165592 0)
(0.0297629 0.00657715 0)
(0.0266129 0.018 0)
(0.0156555 0.0191635 0)
(0.00254923 0.0120074 0)
(0.00149258 -0.00663127 0)
(0.00581569 -0.00958795 0)
(0.00882962 -0.006678 0)
(0.00780156 -0.00151644 0)
(0.00287998 0.0031668 0)
(-0.00746553 0.00818996 0)
(-0.0256486 0.0158662 0)
(-0.0536309 0.0283892 0)
(-0.0894597 0.0431935 0)
(-0.126776 0.0548498 0)
(-0.160001 0.0605276 0)
(-0.187067 0.0607759 0)
(-0.207805 0.0565734 0)
(-0.222826 0.0485932 0)
(-0.232973 0.0377369 0)
(-0.238758 0.0248299 0)
(-0.240496 0.0103945 0)
(-0.23815 -0.00533233 0)
(-0.231555 -0.0220943 0)
(-0.22016 -0.0397168 0)
(-0.203426 -0.0571987 0)
(-0.180559 -0.0733203 0)
(-0.15106 -0.0846028 0)
(-0.115292 -0.0875714 0)
(-0.0744007 -0.0755833 0)
(-0.0336357 -0.0471001 0)
(-1.65524e-05 -0.00634758 0)
(0.0109624 0.0204493 0)
(0.00882916 0.0290273 0)
(0.000551828 0.0200234 0)
(0.00166888 -0.00998335 0)
(0.00419141 -0.0119919 0)
(0.00317857 -0.00549714 0)
(-0.00353846 0.00452641 0)
(-0.0169823 0.0154544 0)
(-0.0394404 0.029756 0)
(-0.0716458 0.0481732 0)
(-0.109558 0.0670877 0)
(-0.146128 0.0805569 0)
(-0.176817 0.0864471 0)
(-0.200891 0.0857134 0)
(-0.218744 0.0798442 0)
(-0.231167 0.0701101 0)
(-0.239244 0.0575784 0)
(-0.244076 0.0430812 0)
(-0.246397 0.0271247 0)
(-0.246715 0.00992313 0)
(-0.245142 -0.00864869 0)
(-0.241664 -0.0285759 0)
(-0.235758 -0.0501289 0)
(-0.226792 -0.0724199 0)
(-0.21342 -0.0947639 0)
(-0.194045 -0.113139 0)
(-0.166941 -0.124086 0)
(-0.130114 -0.118025 0)
(-0.0854039 -0.0909605 0)
(-0.0358851 -0.0373031 0)
(-0.00276012 0.0090018 0)
(0.00297213 0.0299516 0)
(-0.0010835 0.0214879 0)
(0.00124946 -0.0125164 0)
(1.49871e-05 -0.0111778 0)
(-0.00721702 0.001029 0)
(-0.0217872 0.0185984 0)
(-0.0450726 0.0390239 0)
(-0.0769462 0.0627651 0)
(-0.113534 0.0858551 0)
(-0.148075 0.102781 0)
(-0.176145 0.110295 0)
(-0.196868 0.109349 0)
(-0.211089 0.102183 0)
(-0.219814 0.0908438 0)
(-0.224549 0.0769076 0)
(-0.226488 0.0613489 0)
(-0.226822 0.0447749 0)
(-0.226214 0.0273625 0)
(-0.225284 0.00910419 0)
(-0.224171 -0.0104371 0)
(-0.223167 -0.0314181 0)
(-0.221904 -0.054611 0)
(-0.22022 -0.0794148 0)
(-0.216652 -0.106133 0)
(-0.209567 -0.131024 0)
(-0.195571 -0.151694 0)
(-0.170621 -0.157146 0)
(-0.131494 -0.141338 0)
(-0.0771867 -0.0887984 0)
(-0.0191304 -0.0186408 0)
(0.00291389 0.0274683 0)
(-0.00131435 0.0217441 0)
(-0.000218345 -0.0111848 0)
(-0.00717687 -0.00344492 0)
(-0.0217727 0.0164093 0)
(-0.0437156 0.042509 0)
(-0.0733046 0.0706861 0)
(-0.106961 0.0982922 0)
(-0.139325 0.119322 0)
(-0.165077 0.129694 0)
(-0.18287 0.129382 0)
(-0.193597 0.121526 0)
(-0.198832 0.108823 0)
(-0.200093 0.0934787 0)
(-0.199055 0.0769583 0)
(-0.196796 0.0600151 0)
(-0.194364 0.0429869 0)
(-0.192116 0.0257289 0)
(-0.190542 0.00806651 0)
(-0.189552 -0.0106639 0)
(-0.189633 -0.0306446 0)
(-0.190503 -0.0530366 0)
(-0.192822 -0.0774739 0)
(-0.195522 -0.105477 0)
(-0.198145 -0.134134 0)
(-0.197024 -0.163273 0)
(-0.187677 -0.182163 0)
(-0.163634 -0.184741 0)
(-0.117963 -0.149299 0)
(-0.0524963 -0.0714802 0)
(0.00466001 0.012528 0)
(-0.00103051 0.023066 0)
(-0.00219246 -0.0052125 0)
(-0.0149891 0.0103694 0)
(-0.0357053 0.0374845 0)
(-0.0618512 0.0701053 0)
(-0.0925352 0.10216 0)
(-0.122481 0.128679 0)
(-0.147201 0.143837 0)
(-0.163517 0.146259 0)
(-0.172422 0.138751 0)
(-0.175475 0.125264 0)
(-0.174701 0.108643 0)
(-0.171791 0.091051 0)
(-0.168353 0.0736137 0)
(-0.165122 0.0566575 0)
(-0.162767 0.0401387 0)
(-0.16109 0.0235562 0)
(-0.16026 0.00664915 0)
(-0.159737 -0.0113163 0)
(-0.160049 -0.0302634 0)
(-0.160753 -0.0513899 0)
(-0.163212 -0.0740888 0)
(-0.166762 -0.100779 0)
(-0.172671 -0.129195 0)
(-0.178182 -0.162152 0)
(-0.180553 -0.190391 0)
(-0.172717 -0.211323 0)
(-0.143803 -0.199564 0)
(-0.0921814 -0.142499 0)
(-0.0100743 -0.0230704 0)
(0.00600095 0.0250456 0)
(-0.00415472 0.00603512 0)
(-0.0216299 0.0302742 0)
(-0.0459364 0.0633054 0)
(-0.0728179 0.0994768 0)
(-0.101026 0.131305 0)
(-0.124909 0.153006 0)
(-0.141724 0.160385 0)
(-0.150216 0.155015 0)
(-0.152704 0.141443 0)
(-0.150975 0.123934 0)
(-0.147363 0.10525 0)
(-0.143442 0.0872258 0)
(-0.140473 0.0703705 0)
(-0.138688 0.0544663 0)
(-0.138238 0.0390097 0)
(-0.138387 0.0231938 0)
(-0.139029 0.00676232 0)
(-0.139269 -0.0109786 0)
(-0.139687 -0.0295506 0)
(-0.13959 -0.0500545 0)
(-0.140761 -0.0713062 0)
(-0.142531 -0.0962326 0)
(-0.14751 -0.122464 0)
(-0.153785 -0.155487 0)
(-0.161296 -0.187499 0)
(-0.163526 -0.22117 0)
(-0.151427 -0.230443 0)
(-0.117177 -0.204685 0)
(-0.0449211 -0.0860805 0)
(0.0171436 0.0193061 0)
(-0.00520436 0.0204134 0)
(-0.025049 0.0521893 0)
(-0.0502426 0.0884692 0)
(-0.0753648 0.125144 0)
(-0.0994015 0.154071 0)
(-0.117064 0.169304 0)
(-0.127441 0.169068 0)
(-0.130513 0.157226 0)
(-0.12937 0.139475 0)
(-0.125707 0.119896 0)
(-0.122026 0.101071 0)
(-0.119393 0.0841122 0)
(-0.118666 0.0688297 0)
(-0.11944 0.0543636 0)
(-0.121453 0.0398407 0)
(-0.123549 0.0242769 0)
(-0.125551 0.0075924 0)
(-0.126342 -0.0107649 0)
(-0.126647 -0.0298025 0)
(-0.125487 -0.0505052 0)
(-0.124933 -0.0709157 0)
(-0.124006 -0.0943153 0)
(-0.12624 -0.117624 0)
(-0.130134 -0.148612 0)
(-0.138236 -0.180367 0)
(-0.144979 -0.220981 0)
(-0.144644 -0.246506 0)
(-0.124548 -0.24799 0)
(-0.0749946 -0.160019 0)
(0.00664862 -0.00160185 0)
(-0.00538255 0.0363029 0)
(-0.0255146 0.0755382 0)
(-0.0496158 0.113551 0)
(-0.0716343 0.148744 0)
(-0.0910416 0.172962 0)
(-0.10331 0.181145 0)
(-0.109007 0.173909 0)
(-0.108905 0.157075 0)
(-0.106286 0.136725 0)
(-0.102707 0.116679 0)
(-0.100507 0.0989995 0)
(-0.100157 0.0839045 0)
(-0.102082 0.0704666 0)
(-0.105335 0.0572454 0)
(-0.109444 0.0431732 0)
(-0.113041 0.0272299 0)
(-0.116074 0.0096392 0)
(-0.117305 -0.0100269 0)
(-0.117681 -0.0302519 0)
(-0.115879 -0.0520263 0)
(-0.114179 -0.072523 0)
(-0.110978 -0.095308 0)
(-0.110343 -0.11596 0)
(-0.110486 -0.1439 0)
(-0.116401 -0.172242 0)
(-0.123564 -0.214814 0)
(-0.130208 -0.250591 0)
(-0.122231 -0.27417 0)
(-0.0887546 -0.217828 0)
(-0.0213526 -0.0479119 0)
(-0.0046091 0.051174 0)
(-0.0231486 0.0964571 0)
(-0.0445912 0.134353 0)
(-0.0628667 0.166513 0)
(-0.0779469 0.185583 0)
(-0.0861199 0.187245 0)
(-0.0890114 0.174611 0)
(-0.0875621 0.15448 0)
(-0.0850661 0.13321 0)
(-0.0827377 0.114048 0)
(-0.0826502 0.0984492 0)
(-0.0846181 0.0855972 0)
(-0.0887659 0.0739615 0)
(-0.0937376 0.0616257 0)
(-0.0991097 0.0475513 0)
(-0.103434 0.0307827 0)
(-0.106961 0.0119402 0)
(-0.108334 -0.00934399 0)
(-0.108832 -0.0310372 0)
(-0.106723 -0.0543125 0)
(-0.104629 -0.0754903 0)
(-0.100123 -0.0986095 0)
(-0.0977196 -0.11766 0)
(-0.0944463 -0.143095 0)
(-0.0971847 -0.166798 0)
(-0.101364 -0.207445 0)
(-0.110372 -0.247416 0)
(-0.109368 -0.289332 0)
(-0.0873049 -0.261127 0)
(-0.034327 -0.111604 0)
(-0.00329498 0.0641156 0)
(-0.0190215 0.115704 0)
(-0.0371302 0.153193 0)
(-0.0516672 0.182196 0)
(-0.0629839 0.19621 0)
(-0.0682298 0.19236 0)
(-0.0695108 0.175455 0)
(-0.0678275 0.153264 0)
(-0.0661491 0.131985 0)
(-0.0653818 0.114342 0)
(-0.0671293 0.100952 0)
(-0.0707402 0.0900558 0)
(-0.076157 0.0796666 0)
(-0.0818594 0.0675802 0)
(-0.0876498 0.0529797 0)
(-0.0920711 0.0350047 0)
(-0.0957597 0.0147093 0)
(-0.0971542 -0.00833594 0)
(-0.097942 -0.0315894 0)
(-0.0958388 -0.056562 0)
(-0.0940159 -0.0787101 0)
(-0.089067 -0.102731 0)
(-0.0862759 -0.121092 0)
(-0.0808941 -0.145089 0)
(-0.0814802 -0.164755 0)
(-0.081918 -0.202139 0)
(-0.0906514 -0.242168 0)
(-0.0920154 -0.297079 0)
(-0.0780276 -0.29381 0)
(-0.0327222 -0.170017 0)
(-0.0015492 0.0734238 0)
(-0.0136119 0.130277 0)
(-0.027818 0.166811 0)
(-0.0387684 0.192291 0)
(-0.0469667 0.202021 0)
(-0.0502804 0.193752 0)
(-0.051009 0.174145 0)
(-0.0497908 0.151052 0)
(-0.0492548 0.130669 0)
(-0.0498127 0.114918 0)
(-0.0527553 0.10372 0)
(-0.0570883 0.0944946 0)
(-0.0628343 0.0850362 0)
(-0.0684076 0.0729708 0)
(-0.0739885 0.0577954 0)
(-0.0780582 0.0387052 0)
(-0.0817176 0.0171659 0)
(-0.0830422 -0.00743715 0)
(-0.0842511 -0.0320602 0)
(-0.0823109 -0.058655 0)
(-0.0812033 -0.0817974 0)
(-0.0763041 -0.106942 0)
(-0.07416 -0.125213 0)
(-0.0677705 -0.148631 0)
(-0.0676024 -0.16511 0)
(-0.064794 -0.198924 0)
(-0.0728721 -0.236726 0)
(-0.0750837 -0.301599 0)
(-0.0679373 -0.320646 0)
(-0.0296009 -0.222582 0)
(0.000228591 0.0793848 0)
(-0.00773702 0.142077 0)
(-0.0180684 0.178331 0)
(-0.0257795 0.201423 0)
(-0.0313625 0.207771 0)
(-0.0333984 0.196574 0)
(-0.0338902 0.175094 0)
(-0.0332547 0.151647 0)
(-0.0335396 0.132117 0)
(-0.0348471 0.117926 0)
(-0.0381567 0.108341 0)
(-0.0423592 0.100174 0)
(-0.0476509 0.0911278 0)
(-0.0524605 0.0787164 0)
(-0.0574314 0.0628279 0)
(-0.0608923 0.042627 0)
(-0.0644893 0.0199821 0)
(-0.0657327 -0.00604934 0)
(-0.0675543 -0.0319022 0)
(-0.0659233 -0.0600406 0)
(-0.0659471 -0.0841424 0)
(-0.0614373 -0.110409 0)
(-0.0607681 -0.128908 0)
(-0.0543461 -0.152451 0)
(-0.0549092 -0.166969 0)
(-0.0499025 -0.197682 0)
(-0.0573921 -0.231235 0)
(-0.0590915 -0.301857 0)
(-0.0579148 -0.339348 0)
(-0.0259068 -0.267818 0)
(0.00204265 0.0809187 0)
(-0.00166845 0.148466 0)
(-0.00797649 0.184736 0)
(-0.0127278 0.205461 0)
(-0.0161463 0.209546 0)
(-0.0173082 0.196223 0)
(-0.0179568 0.173925 0)
(-0.0179358 0.150585 0)
(-0.0188697 0.132154 0)
(-0.0203576 0.119374 0)
(-0.0233609 0.111147 0)
(-0.0266657 0.103803 0)
(-0.0308931 0.0951159 0)
(-0.0344355 0.0825316 0)
(-0.0385247 0.0663072 0)
(-0.0411439 0.045474 0)
(-0.0446083 0.0222301 0)
(-0.0456462 -0.00477572 0)
(-0.0481715 -0.0314662 0)
(-0.046879 -0.0608246 0)
(-0.0483828 -0.0856871 0)
(-0.0444752 -0.112857 0)
(-0.0458346 -0.131535 0)
(-0.03998 -0.155373 0)
(-0.0424754 -0.168694 0)
(-0.0366211 -0.197361 0)
(-0.0446499 -0.226727 0)
(-0.0456988 -0.301114 0)
(-0.0496753 -0.353574 0)
(-0.0225529 -0.306771 0)
(0.00350608 0.0791658 0)
(0.00411063 0.152118 0)
(0.00157751 0.189454 0)
(-0.000439127 0.209652 0)
(-0.00185381 0.212455 0)
(-0.00228953 0.198558 0)
(-0.00286862 0.175888 0)
(-0.00318068 0.152699 0)
(-0.0042113 0.134702 0)
(-0.00531007 0.122499 0)
(-0.0074222 0.11483 0)
(-0.00933871 0.107727 0)
(-0.0121655 0.099127 0)
(-0.0141608 0.0862944 0)
(-0.0172314 0.0698525 0)
(-0.0187838 0.0485364 0)
(-0.0220427 0.0249174 0)
(-0.0227005 -0.00282585 0)
(-0.0260373 -0.0300857 0)
(-0.0251063 -0.0603709 0)
(-0.0284853 -0.0858071 0)
(-0.0254846 -0.113708 0)
(-0.0294195 -0.132519 0)
(-0.0246131 -0.156742 0)
(-0.0298596 -0.169355 0)
(-0.0240479 -0.196561 0)
(-0.0335683 -0.221252 0)
(-0.0339116 -0.297178 0)
(-0.0429189 -0.362018 0)
(-0.0196638 -0.340462 0)
(0.0047346 0.073317 0)
(0.00940163 0.150175 0)
(0.0107365 0.189234 0)
(0.0112779 0.208698 0)
(0.0116221 0.211325 0)
(0.0119137 0.197114 0)
(0.0112666 0.17474 0)
(0.0107615 0.151746 0)
(0.00968337 0.134184 0)
(0.00927092 0.122355 0)
(0.00829133 0.115117 0)
(0.00814708 0.108277 0)
(0.00699214 0.0999664 0)
(0.00690531 0.0872711 0)
(0.00507541 0.0710912 0)
(0.00491869 0.0498634 0)
(0.00200376 0.0264732 0)
(0.00198652 -0.00133874 0)
(-0.00217596 -0.0285369 0)
(-0.00151615 -0.0590914 0)
(-0.00697988 -0.0845886 0)
(-0.00507578 -0.112808 0)
(-0.0119866 -0.131499 0)
(-0.00857796 -0.155978 0)
(-0.0172243 -0.16819 0)
(-0.0122179 -0.194835 0)
(-0.0242857 -0.215771 0)
(-0.0240309 -0.292393 0)
(-0.0378038 -0.367104 0)
(-0.0170974 -0.369846 0)
(0.0052428 0.0652351 0)
(0.0138897 0.14608 0)
(0.0188063 0.187728 0)
(0.0219504 0.208818 0)
(0.0242506 0.211979 0)
(0.025462 0.19908 0)
(0.0252607 0.177267 0)
(0.0248786 0.154416 0)
(0.0241303 0.136436 0)
(0.0246132 0.123951 0)
(0.024905 0.116232 0)
(0.0266466 0.108999 0)
(0.027171 0.100719 0)
(0.0291005 0.0880796 0)
(0.0284808 0.0723003 0)
(0.0298728 0.051339 0)
(0.0272567 0.0284537 0)
(0.0280542 0.000913166 0)
(0.0229868 -0.0258209 0)
(0.0234226 -0.0562015 0)
(0.0157144 -0.0813338 0)
(0.0163967 -0.109553 0)
(0.00621697 -0.127951 0)
(0.00804583 -0.152586 0)
(-0.00437431 -0.164481 0)
(-0.000475641 -0.190822 0)
(-0.0159213 -0.208152 0)
(-0.0151776 -0.28462 0)
(-0.0339983 -0.367979 0)
(-0.0147885 -0.395912 0)
(0.00524499 0.0542048 0)
(0.0172289 0.136275 0)
(0.0259007 0.181165 0)
(0.0315889 0.202969 0)
(0.0356686 0.207762 0)
(0.038018 0.195882 0)
(0.0381465 0.175262 0)
(0.0380572 0.152601 0)
(0.0374278 0.134378 0)
(0.0387627 0.121243 0)
(0.0400913 0.113075 0)
(0.043744 0.105618 0)
(0.0458867 0.0976247 0)
(0.0500343 0.0854959 0)
(0.0506842 0.0705849 0)
(0.0538996 0.0505062 0)
(0.0516392 0.028732 0)
(0.0534598 0.00221263 0)
(0.0475378 -0.023275 0)
(0.0478861 -0.0526885 0)
(0.0379929 -0.0767396 0)
(0.0375554 -0.104365 0)
(0.0240679 -0.122106 0)
(0.0243474 -0.146664 0)
(0.00796133 -0.158341 0)
(0.0106669 -0.184839 0)
(-0.00876949 -0.199548 0)
(-0.00740271 -0.275661 0)
(-0.0314433 -0.366242 0)
(-0.0124891 -0.419282 0)
(0.00413477 0.0430329 0)
(0.0191957 0.125377 0)
(0.0312421 0.173601 0)
(0.0397844 0.199122 0)
(0.0462265 0.205776 0)
(0.0501798 0.196757 0)
(0.0514655 0.177539 0)
(0.0520437 0.155252 0)
(0.0518007 0.136093 0)
(0.0538722 0.121301 0)
(0.0559284 0.111669 0)
(0.0611734 0.103091 0)
(0.0645453 0.0949305 0)
(0.0707502 0.0830359 0)
(0.0723862 0.0690605 0)
(0.0773987 0.049991 0)
(0.0753037 0.0296638 0)
(0.078143 0.0044657 0)
(0.0712986 -0.0193226 0)
(0.0716604 -0.047382 0)
(0.0596221 -0.0699178 0)
(0.0582485 -0.0965921 0)
(0.0415033 -0.113448 0)
(0.0404602 -0.137764 0)
(0.0200707 -0.149186 0)
(0.021766 -0.1758 0)
(-0.00219027 -0.188187 0)
(-5.01591e-05 -0.263681 0)
(-0.0299168 -0.361249 0)
(-0.0100562 -0.440594 0)
(0.00267265 0.0308778 0)
(0.0193479 0.1087 0)
(0.0349392 0.160583 0)
(0.0462182 0.187568 0)
(0.0546549 0.197342 0)
(0.0605244 0.19028 0)
(0.0628018 0.173371 0)
(0.0644485 0.151857 0)
(0.0644198 0.132531 0)
(0.0671936 0.11663 0)
(0.0694554 0.105843 0)
(0.0760158 0.096443 0)
(0.0801172 0.0882635 0)
(0.0883113 0.077014 0)
(0.0907113 0.0643174 0)
(0.0976168 0.0468382 0)
(0.095697 0.028533 0)
(0.0997126 0.00533928 0)
(0.0920799 -0.0160803 0)
(0.0927145 -0.0420495 0)
(0.0787728 -0.0624215 0)
(0.0768713 -0.0875204 0)
(0.0571848 -0.103123 0)
(0.0552865 -0.126856 0)
(0.0310568 -0.13799 0)
(0.0321143 -0.164712 0)
(0.0033465 -0.175573 0)
(0.00672868 -0.250289 0)
(-0.0294707 -0.354203 0)
(-0.00725045 -0.460219 0)
(0.000565936 0.0213808 0)
(0.0177909 0.0931307 0)
(0.0359914 0.147061 0)
(0.0503553 0.179546 0)
(0.0618664 0.191779 0)
(0.0703737 0.188762 0)
(0.0749517 0.174037 0)
(0.0783142 0.153711 0)
(0.0790547 0.133869 0)
(0.0824998 0.116202 0)
(0.08455 0.103446 0)
(0.0917551 0.0922002 0)
(0.0957448 0.0833225 0)
(0.105242 0.0720546 0)
(0.107811 0.0605571 0)
(0.116203 0.0444754 0)
(0.114178 0.0285009 0)
(0.11928 0.00741722 0)
(0.110795 -0.0112409 0)
(0.111908 -0.0349087 0)
(0.0962131 -0.0527893 0)
(0.094274 -0.0761095 0)
(0.0719262 -0.0902507 0)
(0.0697517 -0.113182 0)
(0.0418093 -0.123852 0)
(0.0426579 -0.150334 0)
(0.00870887 -0.159956 0)
(0.0137978 -0.233664 0)
(-0.0297184 -0.344522 0)
(-0.00376431 -0.478445 0)
(-0.0001428 0.0124708 0)
(0.0147856 0.0726295 0)
(0.0349852 0.128033 0)
(0.0517427 0.161055 0)
(0.0650481 0.177328 0)
(0.0764577 0.176616 0)
(0.082987 0.165461 0)
(0.0889987 0.147168 0)
(0.090853 0.128423 0)
(0.0957172 0.110463 0)
(0.0974677 0.0967691 0)
(0.105337 0.0844895 0)
(0.108532 0.0751076 0)
(0.118962 0.0641071 0)
(0.121046 0.0538462 0)
(0.130751 0.039541 0)
(0.128298 0.0260908 0)
(0.134675 0.0076746 0)
(0.12538 -0.00792453 0)
(0.127491 -0.0287031 0)
(0.110404 -0.0437895 0)
(0.109185 -0.0647954 0)
(0.0846805 -0.0772289 0)
(0.0829473 -0.0988436 0)
(0.0515451 -0.108854 0)
(0.0526161 -0.134601 0)
(0.0132775 -0.143687 0)
(0.0206497 -0.215741 0)
(-0.0309134 -0.333382 0)
(0.000658322 -0.495326 0)
(-0.00123227 0.00714021 0)
(0.0104666 0.0582434 0)
(0.0301432 0.110528 0)
(0.0493841 0.149813 0)
(0.0664458 0.167462 0)
(0.081586 0.171011 0)
(0.0918743 0.162058 0)
(0.10139 0.145854 0)
(0.105418 0.127873 0)
(0.112246 0.109409 0)
(0.114002 0.0946521 0)
(0.122285 0.0807673 0)
(0.124243 0.0706089 0)
(0.134683 0.0590047 0)
(0.135524 0.0497759 0)
(0.1457 0.036549 0)
(0.14227 0.0257023 0)
(0.149594 0.00952493 0)
(0.139307 -0.00276261 0)
(0.14263 -0.0209258 0)
(0.12423 -0.0329105 0)
(0.124297 -0.0516872 0)
(0.0977172 -0.0619536 0)
(0.0970022 -0.0818938 0)
(0.0619795 -0.0906034 0)
(0.0637532 -0.114936 0)
(0.0186495 -0.123756 0)
(0.029214 -0.193698 0)
(-0.0316775 -0.319887 0)
(0.00679753 -0.510559 0)
(0.000869018 0.00310543 0)
(0.00751183 0.0404133 0)
(0.023755 0.0891015 0)
(0.0432683 0.123757 0)
(0.0600987 0.145133 0)
(0.0791832 0.150281 0)
(0.0923468 0.145766 0)
(0.106998 0.132796 0)
(0.114105 0.117799 0)
(0.124912 0.101002 0)
(0.127736 0.0870777 0)
(0.137962 0.0732767 0)
(0.138906 0.0631825 0)
(0.1501 0.0517749 0)
(0.149016 0.0434276 0)
(0.160027 0.0316677 0)
(0.154688 0.0229172 0)
(0.163455 0.0093939 0)
(0.151515 -9.11437e-05 0)
(0.156833 -0.0150936 0)
(0.136863 -0.0243519 0)
(0.139112 -0.0401767 0)
(0.110453 -0.0483946 0)
(0.111433 -0.065776 0)
(0.0727847 -0.0732091 0)
(0.07549 -0.0953866 0)
(0.0245016 -0.105171 0)
(0.0383467 -0.171587 0)
(-0.0322164 -0.305817 0)
(0.0150901 -0.523187 0)
(-0.00226714 -0.00117968 0)
(4.84168e-06 0.0362074 0)
(0.0119889 0.0751105 0)
(0.03174 0.114355 0)
(0.0529963 0.132007 0)
(0.0760749 0.13913 0)
(0.0940527 0.134982 0)
(0.113917 0.124036 0)
(0.124927 0.110931 0)
(0.140234 0.095447 0)
(0.145005 0.0827049 0)
(0.157821 0.0690758 0)
(0.158572 0.0596656 0)
(0.170729 0.0482216 0)
(0.168132 0.0411388 0)
(0.179585 0.0300587 0)
(0.172426 0.023698 0)
(0.181996 0.0117108 0)
(0.16835 0.00550809 0)
(0.175125 -0.00749921 0)
(0.15329 -0.0131519 0)
(0.157443 -0.0268653 0)
(0.125901 -0.0315528 0)
(0.128829 -0.0464267 0)
(0.0853676 -0.0507203 0)
(0.0906761 -0.0701268 0)
(0.0331982 -0.0805649 0)
(0.0535836 -0.142826 0)
(-0.0269042 -0.288531 0)
(0.0279736 -0.531184 0)
(0.00482773 0.00582236 0)
(0.00308362 0.0249197 0)
(-0.00237904 0.0575224 0)
(0.0139364 0.0810355 0)
(0.030012 0.100707 0)
(0.0587955 0.107785 0)
(0.0798593 0.108082 0)
(0.107707 0.100758 0)
(0.123198 0.0918934 0)
(0.14573 0.0797904 0)
(0.153496 0.0700443 0)
(0.171699 0.0585008 0)
(0.172937 0.0509155 0)
(0.188801 0.0409283 0)
(0.184447 0.0352972 0)
(0.198865 0.0260155 0)
(0.188515 0.0213345 0)
(0.201315 0.0119956 0)
(0.183719 0.00775069 0)
(0.194549 -0.00174625 0)
(0.168323 -0.00547486 0)
(0.177433 -0.0149925 0)
(0.1412 -0.0181888 0)
(0.149875 -0.0284721 0)
(0.101711 -0.0325986 0)
(0.113392 -0.0485595 0)
(0.0504235 -0.0637313 0)
(0.0761146 -0.120787 0)
(-0.0133176 -0.272972 0)
(0.0466564 -0.528475 0)
(-0.020191 -0.01123 0)
(-0.0199853 0.0455494 0)
(-0.0124951 0.0641126 0)
(-0.00512113 0.0842975 0)
(0.0179826 0.0878394 0)
(0.0483021 0.0901939 0)
(0.0736743 0.0870542 0)
(0.106097 0.080635 0)
(0.125386 0.0741578 0)
(0.152928 0.0646543 0)
(0.163216 0.0581473 0)
(0.185799 0.0489604 0)
(0.187713 0.0440861 0)
(0.207125 0.0359105 0)
(0.201709 0.0327186 0)
(0.219296 0.0250216 0)
(0.206695 0.0230805 0)
(0.22307 0.0152809 0)
(0.20257 0.0144289 0)
(0.218252 0.00628041 0)
(0.188623 0.00668296 0)
(0.204793 -0.00191466 0)
(0.164171 -0.000288252 0)
(0.183229 -0.00987299 0)
(0.12839 -0.00879675 0)
(0.154762 -0.0229366 0)
(0.0816965 -0.0350559 0)
(0.125026 -0.086193 0)
(0.0335794 -0.24223 0)
(0.082609 -0.50314 0)
(-0.0816113 0.0522796 0)
(-0.0781018 0.0144097 0)
(-0.104481 0.0429347 0)
(-0.0646551 0.0466415 0)
(-0.0464304 0.0466063 0)
(0.000824092 0.0497573 0)
(0.0284432 0.0503281 0)
(0.0733972 0.0474782 0)
(0.0949256 0.0455495 0)
(0.135171 0.0405151 0)
(0.14596 0.0378132 0)
(0.182518 0.032471 0)
(0.182583 0.0302847 0)
(0.217638 0.0252939 0)
(0.207746 0.023891 0)
(0.243338 0.0192855 0)
(0.223515 0.0184364 0)
(0.261356 0.0142341 0)
(0.23079 0.0135996 0)
(0.272684 0.0100835 0)
(0.230045 0.00920518 0)
(0.278293 0.00688165 0)
(0.221971 0.00482077 0)
(0.279303 0.00365707 0)
(0.207592 -0.00244397 0)
(0.276061 -0.00827337 0)
(0.187317 -0.0329462 0)
(0.262304 -0.0856495 0)
(0.14271 -0.225051 0)
(0.139342 -0.433331 0)
(0.0799127 0.135322 0)
(0.119207 0.0738337 0)
(0.159747 0.0511043 0)
(0.214571 0.0308611 0)
(0.235044 0.0236004 0)
(0.284212 0.0169481 0)
(0.300047 0.0155844 0)
(0.350544 0.0140548 0)
(0.360354 0.0136728 0)
(0.41059 0.0128978 0)
(0.412544 0.0123247 0)
(0.461717 0.0114544 0)
(0.455113 0.0106814 0)
(0.503753 0.00977463 0)
(0.488678 0.00893102 0)
(0.537763 0.00809897 0)
(0.514382 0.00726104 0)
(0.56485 0.00651143 0)
(0.533214 0.00577731 0)
(0.5859 0.00496511 0)
(0.546017 0.00457312 0)
(0.601691 0.00323609 0)
(0.553422 0.0036743 0)
(0.612442 0.000519452 0)
(0.554076 0.00230654 0)
(0.613934 -0.00685446 0)
(0.533065 -0.00615191 0)
(0.572458 -0.0390876 0)
(0.395835 -0.064211 0)
(0.291819 -0.197581 0)
)
;

boundaryField
{
    movingWall
    {
        type            fixedValue;
        value           uniform (1 0 0);
    }
    fixedWalls
    {
        type            noSlip;
    }
    frontAndBack
    {
        type            empty;
    }
}


// ************************************************************************* //
