/*--------------------------------*- C++ -*----------------------------------*\
| =========                 |                                                 |
| \\      /  F ield         | OpenFOAM: The Open Source CFD Toolbox           |
|  \\    /   O peration     | Version:  2406                                  |
|   \\  /    A nd           | Website:  www.openfoam.com                      |
|    \\/     M anipulation  |                                                 |
\*---------------------------------------------------------------------------*/
FoamFile
{
    version     2.0;
    format      ascii;
    arch        "LSB;label=32;scalar=64";
    class       volScalarField;
    location    "3.35";
    object      p;
}
// * * * * * * * * * * * * * * * * * * * * * * * * * * * * * * * * * * * * * //

dimensions      [0 2 -2 0 0 0 0];

internalField   nonuniform List<scalar> 
3600
(
0.00462156
0.00461697
0.0046172
0.00461636
0.00462213
0.00462813
0.0046402
0.00465302
0.00467109
0.00469033
0.0047142
0.00473963
0.0047692
0.00480062
0.0048358
0.00487302
0.00491367
0.00495645
0.00500235
0.00505039
0.00510123
0.0051541
0.00520946
0.00526665
0.00532597
0.00538683
0.0054494
0.00551314
0.00557811
0.00564379
0.00571018
0.00577672
0.00584339
0.00590959
0.00597532
0.0060399
0.0061034
0.00616506
0.00622505
0.0062825
0.00633779
0.00638985
0.00643936
0.00648504
0.00652793
0.00656643
0.00660211
0.00663291
0.00666108
0.00668392
0.00670453
0.00671935
0.00673256
0.00673948
0.00674557
0.00674488
0.00674452
0.00673764
0.0067336
0.00672651
0.00462616
0.00462153
0.00462336
0.00462346
0.00463021
0.00463658
0.00464896
0.00466179
0.0046799
0.00469906
0.00472287
0.00474816
0.00477763
0.00480889
0.00484392
0.00488095
0.00492141
0.00496397
0.00500963
0.00505739
0.00510794
0.00516049
0.0052155
0.00527231
0.00533122
0.00539164
0.00545374
0.00551697
0.00558141
0.00564651
0.00571229
0.00577819
0.0058442
0.0059097
0.00597471
0.00603854
0.00610128
0.00616215
0.00622135
0.00627799
0.00633247
0.00638373
0.00643245
0.00647734
0.00651948
0.00655724
0.00659224
0.00662237
0.00664996
0.00667221
0.00669238
0.00670677
0.00671977
0.00672653
0.00673292
0.00673271
0.00673367
0.00672819
0.00672636
0.00671934
0.00462587
0.00461957
0.00462149
0.00462111
0.00462807
0.0046343
0.00464683
0.0046596
0.00467779
0.00469691
0.00472077
0.00474606
0.00477556
0.00480683
0.0048419
0.00487896
0.00491947
0.00496207
0.0050078
0.00505563
0.00510627
0.00515892
0.00521405
0.00527099
0.00533004
0.00539062
0.0054529
0.00551632
0.00558096
0.00564628
0.00571229
0.00577843
0.00584467
0.00591041
0.00597565
0.00603971
0.00610266
0.00616373
0.0062231
0.00627989
0.00633448
0.00638582
0.00643458
0.00647946
0.00652156
0.00655922
0.00659411
0.00662406
0.00665146
0.00667347
0.00669342
0.00670749
0.00672027
0.00672665
0.00673286
0.00673214
0.00673297
0.00672657
0.00672452
0.00671534
0.00462648
0.00461909
0.00462158
0.00462119
0.00462876
0.0046351
0.00464796
0.00466075
0.00467907
0.00469815
0.00472205
0.00474727
0.00477676
0.00480797
0.00484301
0.00488001
0.00492049
0.00496303
0.00500873
0.00505652
0.00510714
0.00515976
0.00521487
0.0052718
0.00533085
0.00539143
0.00545371
0.00551715
0.0055818
0.00564714
0.00571316
0.0057793
0.00584553
0.00591125
0.00597645
0.00604045
0.0061033
0.00616423
0.00622343
0.00627999
0.00633432
0.00638532
0.00643372
0.00647816
0.0065198
0.00655693
0.00659127
0.00662061
0.00664745
0.00666882
0.00668824
0.00670171
0.00671411
0.00672001
0.00672616
0.00672518
0.00672638
0.00671973
0.00671813
0.00670763
0.00461975
0.00461124
0.00461367
0.00461273
0.00462039
0.0046265
0.00463948
0.00465219
0.00467063
0.0046897
0.00471371
0.00473897
0.00476859
0.00479988
0.00483508
0.00487222
0.00491289
0.00495564
0.0050016
0.00504966
0.00510061
0.00515358
0.00520911
0.00526648
0.00532603
0.00538715
0.00545002
0.00551408
0.0055794
0.00564543
0.00571218
0.00577907
0.00584607
0.00591256
0.00597852
0.00604325
0.00610681
0.0061684
0.0062282
0.00628529
0.00634006
0.00639141
0.00644005
0.00648463
0.0065263
0.00656333
0.0065975
0.00662654
0.00665302
0.0066739
0.00669285
0.0067057
0.00671757
0.00672274
0.00672836
0.00672649
0.00672717
0.00671936
0.00671725
0.00670536
0.00461228
0.00460324
0.0046059
0.00460483
0.00461281
0.00461891
0.00463213
0.00464484
0.00466344
0.00468252
0.00470663
0.00473192
0.00476163
0.00479298
0.00482829
0.00486553
0.00490636
0.00494927
0.00499544
0.00504374
0.00509497
0.00514826
0.00520415
0.00526193
0.00532194
0.00538356
0.00544697
0.00551162
0.00557756
0.00564425
0.00571168
0.00577926
0.00584695
0.00591413
0.00598075
0.00604612
0.00611025
0.00617235
0.00623258
0.00629
0.00634499
0.00639643
0.00644505
0.00648945
0.00653084
0.00656744
0.00660108
0.00662945
0.00665523
0.00667529
0.00669346
0.00670542
0.00671658
0.00672092
0.006726
0.00672343
0.00672383
0.00671541
0.00671317
0.00670065
0.00459735
0.00458782
0.00459044
0.00458903
0.00459704
0.00460297
0.00461628
0.00462895
0.00464767
0.00466679
0.00469108
0.00471648
0.00474641
0.00477796
0.00481355
0.00485108
0.00489228
0.00493559
0.00498223
0.00503105
0.00508289
0.00513685
0.00519349
0.00525209
0.005313
0.0053756
0.00544007
0.00550585
0.00557299
0.00564094
0.00570967
0.0057786
0.00584765
0.0059162
0.00598417
0.00605085
0.00611623
0.0061795
0.00624079
0.00629914
0.0063549
0.00640696
0.006456
0.00650064
0.00654206
0.0065785
0.00661182
0.00663966
0.0066648
0.00668404
0.00670135
0.0067123
0.0067225
0.00672574
0.00672988
0.0067262
0.00672577
0.00671635
0.00671355
0.00670041
0.00458114
0.00457144
0.00457416
0.00457269
0.00458087
0.0045868
0.00460029
0.00461298
0.00463187
0.00465104
0.00467549
0.004701
0.00473113
0.00476285
0.0047987
0.00483649
0.00487803
0.00492172
0.00496883
0.00501817
0.00507061
0.00512524
0.00518265
0.00524209
0.00530394
0.00536756
0.00543314
0.0055001
0.00556851
0.00563778
0.00570789
0.00577823
0.00584872
0.0059187
0.00598807
0.00605611
0.00612276
0.0061872
0.00624951
0.00630874
0.00636518
0.00641772
0.00646701
0.00651168
0.00655289
0.0065889
0.00662156
0.00664856
0.00667271
0.0066908
0.00670691
0.00671658
0.00672556
0.00672754
0.00673061
0.00672588
0.00672467
0.0067145
0.00671132
0.00669787
0.0045577
0.00454778
0.00455049
0.00454884
0.00455706
0.00456289
0.00457647
0.00458917
0.0046082
0.00462748
0.00465215
0.00467786
0.00470828
0.00474032
0.00477657
0.00481481
0.00485688
0.00490118
0.00494898
0.0049991
0.00505243
0.00510806
0.00516657
0.00522724
0.00529043
0.0053555
0.00542265
0.0054913
0.00556149
0.00563265
0.0057047
0.00577707
0.00584959
0.00592164
0.00599304
0.00606306
0.00613159
0.0061978
0.0062617
0.00632232
0.00637992
0.00643337
0.00648327
0.00652826
0.00656948
0.0066052
0.00663729
0.00666346
0.00668653
0.00670337
0.00671809
0.00672624
0.00673369
0.00673411
0.00673574
0.00672959
0.00672723
0.00671603
0.0067122
0.00669836
0.00453278
0.00452279
0.00452557
0.00452389
0.00453223
0.00453809
0.0045518
0.00456455
0.00458374
0.00460313
0.00462798
0.00465387
0.00468456
0.00471686
0.00475348
0.00479213
0.00483471
0.00487958
0.00492807
0.00497897
0.0050332
0.00508984
0.0051495
0.00521144
0.00527604
0.00534266
0.00541149
0.00548195
0.00555406
0.00562726
0.00570143
0.00577599
0.00585075
0.00592505
0.00599866
0.00607085
0.00614142
0.00620954
0.00627513
0.00633723
0.006396
0.00645033
0.00650076
0.00654594
0.00658697
0.00662216
0.00665337
0.00667837
0.0067
0.00671519
0.00672812
0.00673441
0.00673998
0.00673858
0.00673852
0.00673086
0.00672724
0.00671506
0.00671061
0.0066965
0.00450071
0.00449055
0.00449333
0.00449155
0.00449992
0.00450575
0.00451956
0.00453237
0.00455173
0.00457126
0.00459637
0.00462252
0.00465357
0.00468627
0.00472339
0.00476261
0.00480587
0.00485151
0.0049009
0.00495282
0.00500821
0.00506615
0.00512726
0.00519082
0.00525719
0.00532576
0.0053967
0.00546943
0.00554396
0.00561972
0.00569657
0.00577392
0.0058515
0.00592867
0.00600512
0.0060801
0.00615333
0.00622395
0.00629179
0.00635588
0.00641628
0.0064719
0.00652315
0.00656876
0.00660973
0.00664447
0.00667474
0.00669847
0.00671844
0.00673176
0.00674256
0.00674665
0.00674994
0.00674634
0.00674418
0.00673465
0.00672943
0.00671601
0.00671073
0.00669626
0.00446715
0.00445693
0.00445975
0.00445795
0.00446641
0.00447226
0.00448618
0.00449905
0.00451855
0.0045382
0.0045635
0.00458985
0.00462119
0.00465423
0.00469178
0.00473149
0.00477537
0.00482174
0.00487198
0.0049249
0.00498143
0.00504069
0.00510328
0.00516852
0.00523675
0.00530738
0.00538055
0.00545574
0.00553288
0.00561144
0.00569121
0.00577162
0.00585232
0.00593268
0.00601228
0.00609038
0.00616655
0.00623998
0.0063103
0.00637661
0.00643877
0.00649576
0.00654783
0.00659381
0.00663453
0.00666857
0.00669757
0.00671965
0.0067375
0.00674847
0.00675662
0.00675802
0.00675855
0.00675235
0.0067477
0.00673606
0.006729
0.00671427
0.00670808
0.0066933
0.0044262
0.00441581
0.00441863
0.00441675
0.00442526
0.00443109
0.00444511
0.00445805
0.00447771
0.00449752
0.00452309
0.00454973
0.00458146
0.00461494
0.00465305
0.00469341
0.00473807
0.00478533
0.00483662
0.00489074
0.00494865
0.00500947
0.00507383
0.00514105
0.00521147
0.00528453
0.00536036
0.00543843
0.00551867
0.00560055
0.0056838
0.00576787
0.00585232
0.00593652
0.00601993
0.00610183
0.00618162
0.0062585
0.00633193
0.00640102
0.00646543
0.00652421
0.00657741
0.00662396
0.00666452
0.00669784
0.0067254
0.00674558
0.00676095
0.00676916
0.00677415
0.00677239
0.00676959
0.00676031
0.00675267
0.0067385
0.00672922
0.00671294
0.00670565
0.0066905
0.00438402
0.00437355
0.0043764
0.00437448
0.00438304
0.00438888
0.00440297
0.00441593
0.00443569
0.00445559
0.00448132
0.00450813
0.00454013
0.00457393
0.00461247
0.00465336
0.00469867
0.00474672
0.00479897
0.00485422
0.00491346
0.00497582
0.00504194
0.00511117
0.00518385
0.00525946
0.00533807
0.00541923
0.00550279
0.00558827
0.00567533
0.00576342
0.00585202
0.00594051
0.0060282
0.00611437
0.00619825
0.00627904
0.00635598
0.00642823
0.00649518
0.00655596
0.00661036
0.00665748
0.00669769
0.00673003
0.00675572
0.00677352
0.00678576
0.00679058
0.0067917
0.0067861
0.00677927
0.00676633
0.00675512
0.00673804
0.00672618
0.00670817
0.00669962
0.00668417
0.00433389
0.00432323
0.00432607
0.00432405
0.00433265
0.00433846
0.00435262
0.00436563
0.00438553
0.00440558
0.00443153
0.00445862
0.00449098
0.00452522
0.00456431
0.00460586
0.00465198
0.00470098
0.00475435
0.00481091
0.00487167
0.0049358
0.00500392
0.00507544
0.00515068
0.00522916
0.00531095
0.00539562
0.00548298
0.00557259
0.00566402
0.00575679
0.00585021
0.00594371
0.00603642
0.00612766
0.00621641
0.0063019
0.00638309
0.00645919
0.00652927
0.00659257
0.00664851
0.00669642
0.00673632
0.00676758
0.0067911
0.00680611
0.00681464
0.00681545
0.00681193
0.00680178
0.00679014
0.00677289
0.00675745
0.00673698
0.00672206
0.00670207
0.00669205
0.00667629
0.00428309
0.00427234
0.0042752
0.00427313
0.00428173
0.00428749
0.00430165
0.00431463
0.00433454
0.00435458
0.0043806
0.00440777
0.0044403
0.00447478
0.00451421
0.00455622
0.00460293
0.0046527
0.00470702
0.00476475
0.0048269
0.00489269
0.00496276
0.00503654
0.00511436
0.0051958
0.00528088
0.00536925
0.00546064
0.00555471
0.00565089
0.00574877
0.00584752
0.00594662
0.00604496
0.00614193
0.00623621
0.0063271
0.00641316
0.00649371
0.00656738
0.00663358
0.00669126
0.00674002
0.00677942
0.00680928
0.00683005
0.0068416
0.00684553
0.00684141
0.00683221
0.00681656
0.00679911
0.00677674
0.00675625
0.00673184
0.00671335
0.00669116
0.00667945
0.00666347
0.00422343
0.00421246
0.00421529
0.00421308
0.00422169
0.00422738
0.00424157
0.00425454
0.00427452
0.00429464
0.00432081
0.00434818
0.00438099
0.00441582
0.00445573
0.00449833
0.00454577
0.00459645
0.00465186
0.00471091
0.00477462
0.00484226
0.00491445
0.00499074
0.00507139
0.00515608
0.00524479
0.00533726
0.00543315
0.00553219
0.00563372
0.0057374
0.00584223
0.00594775
0.00605262
0.00615628
0.00625706
0.00635433
0.00644622
0.00653214
0.0066102
0.00667997
0.00673985
0.00678976
0.00682868
0.00685695
0.00687448
0.00688193
0.00688036
0.00687037
0.00685437
0.00683219
0.00680782
0.00677943
0.00675302
0.00672407
0.00670143
0.00667679
0.00666314
0.006647
0.0041641
0.00415304
0.00415586
0.00415356
0.00416211
0.00416768
0.00418176
0.00419457
0.00421443
0.00423439
0.00426046
0.00428774
0.00432053
0.00435542
0.00439547
0.00443835
0.00448622
0.0045375
0.00459371
0.00465383
0.00471885
0.00478814
0.0048623
0.00494096
0.00502437
0.00511231
0.0052047
0.00530142
0.00540201
0.00550635
0.00561362
0.00572361
0.00583511
0.00594778
0.00605996
0.00617119
0.00627939
0.00638402
0.00648267
0.00657486
0.00665805
0.00673205
0.00679449
0.00684572
0.00688396
0.00691024
0.00692372
0.00692611
0.00691774
0.00690057
0.00687623
0.00684616
0.00681342
0.0067779
0.00674443
0.00671025
0.00668276
0.00665542
0.00663956
0.00662344
0.00409451
0.00408321
0.00408597
0.00408349
0.00409199
0.00409741
0.00411144
0.00412416
0.00414398
0.00416391
0.00418999
0.00421733
0.00425024
0.00428533
0.00432568
0.00436898
0.0044174
0.00446942
0.00452656
0.00458786
0.00465431
0.00472538
0.00480164
0.00488284
0.00496918
0.00506062
0.00515696
0.00525826
0.00536396
0.0054741
0.00558771
0.00570474
0.00582372
0.00594449
0.00606503
0.00618501
0.00630186
0.00641516
0.00652185
0.0066216
0.00671105
0.00679028
0.00685599
0.00690901
0.00694658
0.00697061
0.0069793
0.00697565
0.00695909
0.00693329
0.00689894
0.00685947
0.00681679
0.00677292
0.00673123
0.0066911
0.00665808
0.00662783
0.00660947
0.00659356
0.00402683
0.00401545
0.00401817
0.00401554
0.0040239
0.00402909
0.00404287
0.00405526
0.00407475
0.00409431
0.00412003
0.00414701
0.00417961
0.00421445
0.00425463
0.00429789
0.00434639
0.00439871
0.00445632
0.00451839
0.00458587
0.00465837
0.0047364
0.00481988
0.00490894
0.00500371
0.00510393
0.00520985
0.00532077
0.00543697
0.00555728
0.00568187
0.005809
0.00593872
0.00606858
0.00619845
0.00632518
0.00644851
0.00656457
0.00667324
0.00677014
0.00685563
0.00692529
0.00698047
0.00701723
0.00703847
0.00704124
0.00703013
0.00700345
0.00696705
0.00692041
0.00686954
0.00681486
0.00676112
0.00670972
0.0066628
0.00662342
0.00659005
0.00656891
0.00655351
0.00394693
0.00393525
0.00393788
0.003935
0.00394323
0.00394819
0.00396181
0.00397398
0.00399328
0.00401264
0.00403819
0.00406502
0.00409751
0.0041323
0.00417249
0.00421588
0.00426461
0.00431736
0.00437554
0.00443849
0.00450706
0.00458105
0.0046609
0.00474674
0.00483858
0.00493682
0.00504106
0.00515183
0.00526828
0.00539096
0.00551849
0.00565135
0.00578746
0.00592717
0.00606756
0.00620876
0.00634692
0.00648202
0.00660924
0.00672867
0.0068347
0.00692803
0.00700276
0.00706092
0.00709699
0.00711511
0.00711083
0.00709076
0.0070518
0.00700258
0.00694108
0.00687661
0.00680768
0.00674249
0.00667989
0.00662544
0.00657895
0.0065424
0.00651821
0.00650372
0.00387124
0.00385951
0.00386205
0.00385898
0.00386695
0.00387154
0.00388471
0.00389633
0.00391502
0.00393371
0.00395854
0.00398466
0.00401641
0.00405052
0.00409006
0.00413293
0.00418122
0.00423375
0.00429186
0.00435505
0.0044241
0.00449903
0.00458015
0.00466785
0.00476204
0.00486338
0.00497135
0.0050868
0.00520869
0.00533794
0.00547292
0.00561449
0.00576023
0.00591083
0.00606286
0.00621678
0.00636797
0.00651667
0.00665696
0.00678914
0.00690617
0.00700905
0.00709008
0.00715199
0.00718733
0.00720168
0.00718872
0.00715754
0.00710334
0.00703825
0.00695848
0.00687746
0.00679138
0.00671273
0.00663709
0.00657426
0.00651982
0.0064801
0.00645263
0.0064396
0.00378058
0.00376851
0.0037709
0.0037675
0.00377525
0.00377949
0.00379237
0.00380361
0.00382194
0.00384022
0.00386464
0.00389034
0.00392166
0.00395539
0.00399453
0.00403712
0.00408516
0.00413762
0.00419576
0.00425927
0.00432882
0.00440467
0.004487
0.00457653
0.00467297
0.00477738
0.00488902
0.00500918
0.00513659
0.00527265
0.00541542
0.00556627
0.00572235
0.00588489
0.00604985
0.00621815
0.00638427
0.00654884
0.00670462
0.00685224
0.00698282
0.00709772
0.007187
0.00725411
0.00728915
0.00729934
0.00727603
0.00723137
0.0071585
0.00707402
0.00697199
0.00687116
0.00676478
0.00667072
0.00658035
0.0065086
0.00644565
0.00640309
0.00637226
0.00636138
0.00369748
0.0036854
0.00368765
0.003684
0.00369135
0.00369504
0.00370721
0.00371764
0.00373499
0.00375222
0.00377546
0.00379996
0.00382998
0.00386246
0.0039003
0.00394171
0.00398857
0.00404007
0.00409731
0.00416027
0.00422942
0.00430536
0.00438806
0.00447863
0.00457656
0.00468335
0.00479804
0.0049224
0.00505492
0.00519755
0.00534801
0.00550832
0.00567518
0.00585044
0.00602943
0.00621365
0.0063966
0.00657939
0.0067533
0.00691925
0.00706627
0.00719598
0.00729571
0.00736959
0.00740465
0.00740991
0.0073739
0.00731239
0.00721616
0.00710742
0.00697784
0.00685282
0.00672216
0.00661028
0.00650326
0.00642217
0.00635025
0.00630548
0.00627131
0.00626358
0.00359559
0.00358308
0.00358514
0.00358105
0.00358808
0.00359131
0.00360304
0.00361293
0.00362971
0.00364631
0.00366885
0.00369262
0.00372182
0.0037535
0.00379043
0.00383103
0.00387698
0.00392774
0.00398421
0.00404669
0.0041154
0.00419135
0.00427424
0.00436564
0.00446475
0.00457365
0.00469102
0.00481932
0.00495663
0.00510569
0.00526379
0.00543376
0.00561177
0.00580055
0.00599468
0.00619651
0.00639842
0.0066022
0.0067974
0.00698543
0.00715272
0.0073012
0.00741474
0.00749805
0.00753425
0.00753425
0.007483
0.00740072
0.00727547
0.0071366
0.00697319
0.00681913
0.00665998
0.00652827
0.00640325
0.00631324
0.00623261
0.00618691
0.00614983
0.00614644
0.00350599
0.00349353
0.00349539
0.00349098
0.00349744
0.00349992
0.00351064
0.00351936
0.00353473
0.00354981
0.0035706
0.00359258
0.00361978
0.00364949
0.00368428
0.00372285
0.00376664
0.00381546
0.00386991
0.0039307
0.00399775
0.00407253
0.00415438
0.00424546
0.00434457
0.00445447
0.00457339
0.00470462
0.00484576
0.00500046
0.00516551
0.00534476
0.00553378
0.0057364
0.00594639
0.00616718
0.00638998
0.00661743
0.00683725
0.00705132
0.00724317
0.00741482
0.00754605
0.00764178
0.0076803
0.00767427
0.00760431
0.00749572
0.00733366
0.0071565
0.00695082
0.00676129
0.00656859
0.00641492
0.00627089
0.00617315
0.0060848
0.00604025
0.00600107
0.00600367
0.00339229
0.00337932
0.00338091
0.00337596
0.003382
0.00338389
0.00339404
0.00340207
0.00341667
0.0034309
0.00345069
0.00347162
0.00349755
0.003526
0.00355928
0.00359639
0.00363846
0.00368571
0.00373833
0.00379758
0.00386288
0.00393638
0.00401686
0.00410725
0.00420577
0.00431607
0.00443578
0.0045692
0.00471327
0.00487287
0.00504406
0.00523205
0.00543166
0.00564816
0.00587442
0.00611535
0.00636082
0.00661482
0.00686293
0.00710785
0.00732969
0.00753058
0.00768515
0.00779814
0.00784152
0.00782936
0.00773667
0.00759483
0.00738603
0.00716033
0.00690219
0.00667019
0.00643912
0.00626293
0.00610066
0.00599855
0.0059051
0.00586516
0.0058255
0.00583605
0.00329751
0.00328467
0.00328601
0.00328068
0.00328594
0.00328685
0.00329562
0.00330209
0.00331476
0.00332691
0.00334427
0.0033627
0.00338579
0.00341142
0.00344153
0.00347558
0.00351427
0.00355836
0.00360752
0.00366365
0.00372557
0.0037962
0.00387364
0.00396174
0.00405796
0.00416702
0.00428573
0.00441966
0.00456489
0.00472774
0.0049034
0.00509873
0.00530763
0.00553721
0.00577932
0.00604073
0.00631001
0.00659279
0.00687257
0.007153
0.00741054
0.00764709
0.00783139
0.00796695
0.00801807
0.00799905
0.0078782
0.00769323
0.00742382
0.00713499
0.00681077
0.00652741
0.00625319
0.00605545
0.00587808
0.00577763
0.00568395
0.00565392
0.00561639
0.00563747
0.00317129
0.00315778
0.00315879
0.00315281
0.00315757
0.00315781
0.0031659
0.00317159
0.00318331
0.00319447
0.00321054
0.00322765
0.00324903
0.00327295
0.00330087
0.00333279
0.00336881
0.00341036
0.00345641
0.00350969
0.0035682
0.00363586
0.00370981
0.0037951
0.00388813
0.00399502
0.00411142
0.00424453
0.00438921
0.00455366
0.00473181
0.0049327
0.00514894
0.00539009
0.00564665
0.00592806
0.00622126
0.00653446
0.00684875
0.0071696
0.00746927
0.00774971
0.00797233
0.0081386
0.00820234
0.00817646
0.00802017
0.00777843
0.00742981
0.0070589
0.00665215
0.00630899
0.00598949
0.00577667
0.00559244
0.00550505
0.00541946
0.00540728
0.00537594
0.00541039
0.00307319
0.00305993
0.00306061
0.0030542
0.00305795
0.00305697
0.00306327
0.00306695
0.00307612
0.00308459
0.00309742
0.00311125
0.00312879
0.00314891
0.00317247
0.00320018
0.00323136
0.00326835
0.00330917
0.00335761
0.00341059
0.00347326
0.00354155
0.00362195
0.00370946
0.00381192
0.00392345
0.00405324
0.00419452
0.00435778
0.00453531
0.00473874
0.00495908
0.00520883
0.00547696
0.00577611
0.00609166
0.00643496
0.00678496
0.00714942
0.00749655
0.00782816
0.0080976
0.00830231
0.00838342
0.00834912
0.00814775
0.0078302
0.00737647
0.00689696
0.00638684
0.0059749
0.00561237
0.00539799
0.00522294
0.00516707
0.00510298
0.00512016
0.00510077
0.00515187
0.00293341
0.00291929
0.00291958
0.0029124
0.00291563
0.00291395
0.00291955
0.00292246
0.00293063
0.00293806
0.00294943
0.00296179
0.00297723
0.00299531
0.00301601
0.00304096
0.00306845
0.00310192
0.00313816
0.00318234
0.00322989
0.00328761
0.00334973
0.00342467
0.0035055
0.00360231
0.00370707
0.00383158
0.00396674
0.00412605
0.00429934
0.00450173
0.00472174
0.00497588
0.00525071
0.00556338
0.00589694
0.00626755
0.00665145
0.0070606
0.00745859
0.00784848
0.00817383
0.00842695
0.00853144
0.00848674
0.00822615
0.00780831
0.00721923
0.00660153
0.00596712
0.00548258
0.0050876
0.00489828
0.0047583
0.00476255
0.00473758
0.00479897
0.00479853
0.00486881
0.0028345
0.00282078
0.00282069
0.00281304
0.00281501
0.00281185
0.00281518
0.00281561
0.00282051
0.00282458
0.00283178
0.00284001
0.00285049
0.00286375
0.00287872
0.00289823
0.00291923
0.00294663
0.00297561
0.00301307
0.00305255
0.00310289
0.00315613
0.00322306
0.00329426
0.00338257
0.00347718
0.00359304
0.00371802
0.00386924
0.00403332
0.0042295
0.00444309
0.00469527
0.00496957
0.00528842
0.00563219
0.00602277
0.00643387
0.00688269
0.00732893
0.00777732
0.00816133
0.00846535
0.00859293
0.00853199
0.00820245
0.00766708
0.00692044
0.00614384
0.00537301
0.00481718
0.00440661
0.00427301
0.00419922
0.00429656
0.00433102
0.00445276
0.00447757
0.00456769
0.00267965
0.00266479
0.00266427
0.00265577
0.00265727
0.00265351
0.00265626
0.00265613
0.00266014
0.00266339
0.00266911
0.00267597
0.00268411
0.0026952
0.00270675
0.00272308
0.00273938
0.00276243
0.00278529
0.00281711
0.00284892
0.00289226
0.0029362
0.00299472
0.00305496
0.00313346
0.0032155
0.00332029
0.00343132
0.00357061
0.00371997
0.00390426
0.00410369
0.00434587
0.00460919
0.00492346
0.00526418
0.00566158
0.00608489
0.00655999
0.00704103
0.00753799
0.00797094
0.00831672
0.0084542
0.00836322
0.00795141
0.00730317
0.00642634
0.00553131
0.00466539
0.00407269
0.00366914
0.00361213
0.00361396
0.00382256
0.00391892
0.00410837
0.00415809
0.00426296
0.00258327
0.00256901
0.00256806
0.0025591
0.00255905
0.00255355
0.00255347
0.00255035
0.00255028
0.00254945
0.00254996
0.00255182
0.00255373
0.00255898
0.00256331
0.00257299
0.00258102
0.00259653
0.00260992
0.00263316
0.00265411
0.00268762
0.00271903
0.00276623
0.00281199
0.00287741
0.00294275
0.00303245
0.00312434
0.00324639
0.00337413
0.00353914
0.00371491
0.00393653
0.00417552
0.00446998
0.00478888
0.00517157
0.00558153
0.00605404
0.00653687
0.00704395
0.00747631
0.00779594
0.00785637
0.00765071
0.0071082
0.00635611
0.00542969
0.00457626
0.00380998
0.00334941
0.00305842
0.00310485
0.00316239
0.00344914
0.00357415
0.00381342
0.00386987
0.00397516
0.00241107
0.00239529
0.00239388
0.00238403
0.0023837
0.00237791
0.0023776
0.00237444
0.00237385
0.0023728
0.00237209
0.00237311
0.00237269
0.00237608
0.00237661
0.00238308
0.00238554
0.00239623
0.002402
0.00241857
0.00242954
0.00245428
0.00247304
0.00250902
0.00253904
0.00259038
0.00263635
0.00270855
0.00277677
0.00287718
0.00297614
0.00311454
0.0032555
0.0034446
0.00364195
0.0038973
0.00416744
0.00450451
0.00485931
0.00528007
0.00569784
0.00612657
0.00642014
0.00650838
0.00620163
0.00554747
0.00455417
0.00355101
0.00267454
0.00218886
0.00199249
0.00217554
0.00242345
0.00282958
0.00301308
0.00333051
0.00338893
0.00361716
0.00363617
0.0037139
0.00232158
0.00230667
0.00230479
0.00229452
0.00229234
0.00228456
0.00228076
0.00227409
0.00226844
0.00226258
0.00225545
0.0022506
0.00224254
0.00223916
0.00223085
0.00222963
0.00222192
0.00222386
0.00221785
0.0022243
0.00222149
0.00223431
0.0022367
0.00225839
0.00226872
0.00230262
0.00232462
0.00237516
0.00241381
0.00248684
0.00254881
0.00265191
0.00274582
0.00288843
0.00302473
0.00321736
0.00340619
0.00365596
0.00389795
0.00418859
0.0044243
0.00458628
0.00441625
0.00374618
0.0023417
0.000490938
-0.00149493
-0.00296742
-0.00375194
-0.0035413
-0.00259409
-0.000989362
0.000666699
0.00216894
0.00298497
0.00348642
0.00343667
0.00356506
0.0034745
0.00348882
0.00212856
0.00211157
0.00210926
0.00209814
0.00209607
0.00208863
0.00208527
0.00207958
0.00207419
0.0020693
0.00206162
0.00205708
0.00204706
0.00204277
0.00203059
0.0020268
0.00201289
0.00201022
0.00199527
0.00199473
0.00197977
0.00198279
0.00196924
0.00197772
0.00196747
0.00198386
0.00197939
0.00200675
0.00201119
0.00205317
0.0020703
0.00213093
0.00216469
0.00224743
0.00230025
0.00240487
0.00247216
0.00258489
0.0026359
0.00268657
0.00255039
0.00211977
0.000910538
-0.0013525
-0.00475815
-0.00845585
-0.0118165
-0.013927
-0.014692
-0.0137213
-0.0114397
-0.0079088
-0.00400877
-0.000285653
0.00221516
0.00359042
0.00362136
0.0035754
0.00332547
0.0032439
0.00205161
0.00203585
0.00203305
0.00202164
0.00201734
0.00200767
0.002
0.00199024
0.0019786
0.00196816
0.00195259
0.0019414
0.00192212
0.0019103
0.00188752
0.00187532
0.00184927
0.00183708
0.00180805
0.00179648
0.00176485
0.0017547
0.00172101
0.00171331
0.00167827
0.00167418
0.00163855
0.00163923
0.00160361
0.0016097
0.00157384
0.00158433
0.00154541
0.00155477
0.00150288
0.00149366
0.0013994
0.00132072
0.00109381
0.000767294
1.38324e-05
-0.00143141
-0.0043303
-0.00890344
-0.014758
-0.0203206
-0.0248522
-0.027425
-0.0281996
-0.0267264
-0.0235994
-0.0186
-0.0126026
-0.00614027
-0.00069601
0.0026949
0.00372341
0.00354222
0.00308826
0.00292316
0.00183248
0.00181387
0.00181073
0.00179866
0.00179515
0.00178696
0.00178088
0.00177389
0.00176381
0.00175643
0.0017415
0.00173271
0.00171231
0.00170147
0.00167515
0.00166195
0.0016294
0.00161383
0.00157482
0.00155706
0.0015114
0.00149177
0.00143918
0.00141791
0.00135787
0.00133493
0.00126632
0.0012408
0.00116125
0.00113033
0.00103461
0.00099116
0.000867723
0.000794741
0.000617105
0.000473894
0.000177761
-0.000139906
-0.000734258
-0.00156783
-0.00317432
-0.00596433
-0.0109395
-0.0179326
-0.0258577
-0.0325534
-0.0376055
-0.0402067
-0.0408679
-0.0390719
-0.0356775
-0.0301695
-0.0233962
-0.0152002
-0.00692031
-0.000355449
0.0029427
0.00323005
0.00252486
0.00238765
0.00177533
0.00175843
0.00175479
0.00174268
0.00173646
0.00172585
0.00171437
0.00170272
0.00168481
0.00167112
0.00164646
0.00163033
0.00159871
0.00157986
0.00154091
0.00151908
0.00147225
0.00144716
0.0013917
0.00136304
0.00129791
0.00126525
0.00118903
0.00115155
0.00106212
0.00101821
0.000912188
0.000858535
0.000730014
0.000659808
0.000497854
0.00039692
0.000179891
1.79315e-05
-0.000300062
-0.000591209
-0.00111626
-0.00170544
-0.00272581
-0.00414651
-0.00672277
-0.0109509
-0.0179356
-0.0268852
-0.0361337
-0.0432699
-0.0484283
-0.0508534
-0.0513118
-0.049101
-0.045476
-0.0397946
-0.0331905
-0.0248075
-0.015452
-0.00601528
0.000202967
0.00281914
0.00150506
0.0015938
0.00152216
0.0015013
0.00149752
0.00148519
0.00148089
0.00147368
0.00146558
0.00145963
0.00144532
0.00143808
0.00141592
0.00140561
0.00137425
0.00135959
0.00131783
0.00129791
0.00124458
0.00121873
0.00115252
0.00112009
0.00103934
0.000999434
0.000901771
0.000852865
0.000734734
0.000673956
0.000529692
0.000451555
0.000271626
0.000165474
-6.71422e-05
-0.000222489
-0.000540218
-0.000788555
-0.00125792
-0.00169545
-0.00246629
-0.00332716
-0.00479575
-0.00679043
-0.0103051
-0.0157791
-0.0243762
-0.0346582
-0.0447602
-0.0521828
-0.0576443
-0.0601479
-0.0605565
-0.0577655
-0.0535246
-0.0472433
-0.0406745
-0.0327513
-0.0237014
-0.0134722
-0.00408987
0.000974483
0.000657888
0.000224412
0.00149409
0.00147562
0.00147132
0.00145942
0.00145173
0.00144201
0.00142694
0.00141574
0.00139136
0.00137708
0.00134264
0.00132447
0.00127929
0.00125655
0.00119964
0.00117154
0.00110145
0.00106708
0.000981841
0.00094003
0.000836974
0.000786079
0.00066149
0.000598936
0.000447434
0.000368857
0.000182209
7.98162e-05
-0.000155346
-0.000296016
-0.000602829
-0.000809652
-0.00123099
-0.00156029
-0.00218194
-0.00275508
-0.00376573
-0.00487156
-0.00675306
-0.00922471
-0.0134915
-0.0198225
-0.0294757
-0.0405612
-0.0513578
-0.0592258
-0.0653227
-0.0681858
-0.0687536
-0.0653766
-0.0603303
-0.0530287
-0.0460238
-0.0383097
-0.0301714
-0.0206583
-0.00961156
-0.00292197
0.000356855
-0.00218369
0.00119508
0.00117106
0.00116698
0.00115576
0.00115173
0.0011486
0.00113959
0.00113877
0.00112094
0.00111843
0.00108908
0.00108209
0.00103904
0.00102553
0.000966798
0.000945312
0.000868831
0.000838173
0.000741475
0.000700361
0.000580156
0.000526769
0.000378406
0.000309755
0.000126379
3.72441e-05
-0.000191672
-0.000310678
-0.000602086
-0.000768295
-0.00115104
-0.0013975
-0.00192387
-0.00231641
-0.00308841
-0.00376628
-0.00500147
-0.00628707
-0.00851552
-0.011286
-0.0160427
-0.0227219
-0.0328483
-0.0442322
-0.0556257
-0.0639798
-0.0707882
-0.0739793
-0.0747875
-0.0709435
-0.0652465
-0.0569142
-0.0493338
-0.0415031
-0.0343626
-0.0259275
-0.0155199
-0.00705992
-0.0014814
-0.00478161
0.00120784
0.00118717
0.00118255
0.00117265
0.00116421
0.00115873
0.00114039
0.00113377
0.0011025
0.00109227
0.00104689
0.00103177
0.000971212
0.000950106
0.000872756
0.000844469
0.000747965
0.000711098
0.000592174
0.000544968
0.000399173
0.00033917
0.00016036
8.37734e-05
-0.000136812
-0.000236251
-0.000511658
-0.000644847
-0.000995509
-0.00118211
-0.0016419
-0.00191874
-0.00254743
-0.00298642
-0.00389715
-0.00464673
-0.00607196
-0.00746321
-0.00993797
-0.0128127
-0.017758
-0.0242846
-0.0342772
-0.0454052
-0.0571274
-0.0658138
-0.0731693
-0.0764842
-0.0775289
-0.0734286
-0.0674518
-0.0584241
-0.0504533
-0.0424342
-0.0361567
-0.0288952
-0.0203075
-0.0110732
-0.00530201
-0.0065818
0.000845589
0.00081709
0.000813266
0.000805823
0.000803585
0.000810066
0.000801521
0.000812811
0.000792005
0.000801845
0.000764825
0.000768991
0.000712717
0.000708406