/*--------------------------------*- C++ -*----------------------------------*\
| =========                 |                                                 |
| \\      /  F ield         | OpenFOAM: The Open Source CFD Toolbox           |
|  \\    /   O peration     | Version:  2406                                  |
|   \\  /    A nd           | Website:  www.openfoam.com                      |
|    \\/     M anipulation  |                                                 |
\*---------------------------------------------------------------------------*/
FoamFile
{
    version     2.0;
    format      ascii;
    arch        "LSB;label=32;scalar=64";
    class       volVectorField;
    location    "40.45";
    object      Uold;
}
// * * * * * * * * * * * * * * * * * * * * * * * * * * * * * * * * * * * * * //

dimensions      [0 1 -1 0 0 0 0];

internalField   nonuniform List<vector> 
14400
(
(-1.87187e-05 1.86732e-05 0)
(-2.69754e-06 -1.10523e-05 0)
(0.000108837 -4.37934e-05 0)
(0.00030212 -7.29757e-05 0)
(0.000565419 -9.0412e-05 0)
(0.0008643 -0.000100133 0)
(0.00118299 -0.000101124 0)
(0.0014944 -9.65341e-05 0)
(0.00178719 -8.6908e-05 0)
(0.00204563 -7.46723e-05 0)
(0.0022656 -6.08781e-05 0)
(0.00244218 -4.72874e-05 0)
(0.00257815 -3.47582e-05 0)
(0.00267631 -2.42584e-05 0)
(0.00274354 -1.61047e-05 0)
(0.00278613 -1.04996e-05 0)
(0.00281148 -7.20651e-06 0)
(0.00282539 -5.86291e-06 0)
(0.00283283 -5.87008e-06 0)
(0.00283652 -6.59362e-06 0)
(0.00283749 -7.35072e-06 0)
(0.00283457 -7.54001e-06 0)
(0.002825 -6.65032e-06 0)
(0.00280453 -4.32053e-06 0)
(0.00276797 -3.20386e-07 0)
(0.00270946 5.45635e-06 0)
(0.00262291 1.30415e-05 0)
(0.00250202 2.24287e-05 0)
(0.00234053 3.36166e-05 0)
(0.00213206 4.66278e-05 0)
(0.00187017 6.15174e-05 0)
(0.00154828 7.83628e-05 0)
(0.00115964 9.72471e-05 0)
(0.000697438 0.000118238 0)
(0.000154859 0.000141369 0)
(-0.000474722 0.000166628 0)
(-0.00119756 0.00019394 0)
(-0.00201929 0.000223167 0)
(-0.00294473 0.000254099 0)
(-0.00397758 0.000286451 0)
(-0.00512021 0.000319862 0)
(-0.00637337 0.000353898 0)
(-0.00773603 0.000388052 0)
(-0.00920514 0.000421752 0)
(-0.0107755 0.000454371 0)
(-0.0124395 0.000485234 0)
(-0.0141873 0.00051363 0)
(-0.0160066 0.000538829 0)
(-0.0178829 0.000560089 0)
(-0.0197992 0.000576675 0)
(-0.0217367 0.000587864 0)
(-0.0236743 0.00059296 0)
(-0.0255894 0.000591305 0)
(-0.0274578 0.000582281 0)
(-0.0292542 0.000565329 0)
(-0.0309522 0.000539955 0)
(-0.032525 0.000505743 0)
(-0.0339454 0.000462376 0)
(-0.0351865 0.000409653 0)
(-0.0362218 0.000347512 0)
(-0.0370262 0.000276061 0)
(-0.0375756 0.000195603 0)
(-0.0378485 0.000106667 0)
(-0.0378256 1.00375e-05 0)
(-0.0374913 -9.32197e-05 0)
(-0.0368336 -0.000201741 0)
(-0.0358452 -0.000313852 0)
(-0.0345239 -0.000427575 0)
(-0.0328735 -0.000540647 0)
(-0.0309038 -0.000650557 0)
(-0.0286315 -0.00075461 0)
(-0.02608 -0.000850002 0)
(-0.0232799 -0.000933931 0)
(-0.0202681 -0.00100371 0)
(-0.017088 -0.0010569 0)
(-0.0137883 -0.00109145 0)
(-0.0104222 -0.00110584 0)
(-0.0070455 -0.00109917 0)
(-0.00371579 -0.0010713 0)
(-0.000490054 -0.00102283 0)
(0.00257693 -0.000955213 0)
(0.00543454 -0.000870613 0)
(0.00803801 -0.000771876 0)
(0.0103501 -0.000662366 0)
(0.0123422 -0.000545794 0)
(0.0139952 -0.000426016 0)
(0.0153002 -0.000306824 0)
(0.0162579 -0.000191748 0)
(0.0168785 -8.38879e-05 0)
(0.0171808 1.42176e-05 0)
(0.0171903 0.000100673 0)
(0.0169387 0.000174256 0)
(0.0164611 0.000234398 0)
(0.0157954 0.000281132 0)
(0.0149798 0.000315003 0)
(0.0140518 0.000336963 0)
(0.0130466 0.000348268 0)
(0.0119965 0.000350358 0)
(0.01093 0.000344773 0)
(0.00987138 0.000333043 0)
(0.00884033 0.000316656 0)
(0.00785251 0.000296952 0)
(0.00691921 0.000275159 0)
(0.00604833 0.000252286 0)
(0.00524407 0.000229234 0)
(0.00450844 0.000206653 0)
(0.00384037 0.000185163 0)
(0.00323798 0.000165089 0)
(0.00269666 0.000146855 0)
(0.00221266 0.000130447 0)
(0.00177942 0.000116121 0)
(0.00139367 0.000103331 0)
(0.00104898 9.20908e-05 0)
(0.000745903 8.08797e-05 0)
(0.000481176 6.94594e-05 0)
(0.000263054 5.47989e-05 0)
(9.44795e-05 3.73464e-05 0)
(-9.54499e-06 1.34365e-05 0)
(-4.52182e-05 -8.79147e-06 0)
(-2.24379e-05 -2.19821e-05 0)
(9.77056e-06 3.41428e-06 0)
(0.000154915 -0.000158375 0)
(0.000497941 -0.000324425 0)
(0.000999259 -0.00047181 0)
(0.00164279 -0.000569112 0)
(0.00236284 -0.000624297 0)
(0.00312453 -0.00063418 0)
(0.00387236 -0.000609691 0)
(0.00457737 -0.000556033 0)
(0.00520538 -0.000484104 0)
(0.00574285 -0.000401354 0)
(0.00617764 -0.000316676 0)
(0.00651187 -0.000236033 0)
(0.00674994 -0.000164676 0)
(0.00690395 -0.000105221 0)
(0.00698613 -5.88732e-05 0)
(0.00701065 -2.47814e-05 0)
(0.00698893 -9.03907e-07 0)
(0.00693023 1.60003e-05 0)
(0.00683917 2.96691e-05 0)
(0.00671623 4.40844e-05 0)
(0.00655706 6.29428e-05 0)
(0.00635338 8.9433e-05 0)
(0.00609332 0.000125988 0)
(0.00576257 0.000174287 0)
(0.00534502 0.000235316 0)
(0.00482359 0.000309565 0)
(0.0041807 0.000397227 0)
(0.0033986 0.000498387 0)
(0.00245951 0.000613126 0)
(0.00134577 0.000741557 0)
(3.98915e-05 0.000883767 0)
(-0.00147513 0.00103973 0)
(-0.00321556 0.0012092 0)
(-0.00519641 0.0013916 0)
(-0.00743092 0.00158594 0)
(-0.00992992 0.00179075 0)
(-0.0127011 0.00200409 0)
(-0.0157486 0.00222348 0)
(-0.0190719 0.00244596 0)
(-0.0226658 0.00266809 0)
(-0.0265197 0.002886 0)
(-0.0306171 0.0030955 0)
(-0.0349359 0.0032921 0)
(-0.0394479 0.00347117 0)
(-0.0441192 0.00362803 0)
(-0.0489106 0.00375807 0)
(-0.0537778 0.00385683 0)
(-0.0586724 0.00392014 0)
(-0.0635424 0.00394421 0)
(-0.0683331 0.00392569 0)
(-0.0729877 0.00386172 0)
(-0.0774488 0.00375003 0)
(-0.0816586 0.00358893 0)
(-0.08556 0.00337735 0)
(-0.0890977 0.00311492 0)
(-0.0922183 0.0028019 0)
(-0.0948717 0.00243928 0)
(-0.0970112 0.00202879 0)
(-0.0985945 0.00157293 0)
(-0.0995842 0.00107499 0)
(-0.0999482 0.000539157 0)
(-0.0996607 -2.95183e-05 0)
(-0.0987024 -0.000625027 0)
(-0.0970614 -0.00124039 0)
(-0.0947333 -0.00186767 0)
(-0.0917225 -0.00249795 0)
(-0.088042 -0.00312144 0)
(-0.0837142 -0.00372756 0)
(-0.0787711 -0.00430508 0)
(-0.073255 -0.00484241 0)
(-0.0672176 -0.00532783 0)
(-0.0607207 -0.00574984 0)
(-0.0538354 -0.0060976 0)
(-0.0466415 -0.00636132 0)
(-0.0392263 -0.00653275 0)
(-0.0316834 -0.00660563 0)
(-0.0241112 -0.00657609 0)
(-0.0166106 -0.00644301 0)
(-0.00928278 -0.00620825 0)
(-0.00222717 -0.00587679 0)
(0.00446153 -0.00545669 0)
(0.0106957 -0.00495887 0)
(0.0163972 -0.00439679 0)
(0.0214999 -0.00378586 0)
(0.0259513 -0.00314292 0)
(0.0297142 -0.00248542 0)
(0.0327676 -0.00183069 0)
(0.0351072 -0.00119525 0)
(0.036745 -0.000594034 0)
(0.0377089 -3.98901e-05 0)
(0.0380405 0.000456902 0)
(0.037794 0.000888903 0)
(0.0370332 0.00125161 0)
(0.0358289 0.00154341 0)
(0.0342562 0.00176536 0)
(0.0323911 0.00192084 0)
(0.0303086 0.00201514 0)
(0.0280791 0.00205497 0)
(0.0257677 0.00204791 0)
(0.0234315 0.00200205 0)
(0.0211197 0.0019254 0)
(0.0188719 0.00182573 0)
(0.0167197 0.00171009 0)
(0.0146856 0.00158487 0)
(0.0127851 0.00145543 0)
(0.0110259 0.00132646 0)
(0.00941154 0.00120138 0)
(0.00793865 0.00108321 0)
(0.00660346 0.000973204 0)
(0.00539631 0.000872573 0)
(0.00431208 0.000779623 0)
(0.00334027 0.000693371 0)
(0.00248202 0.000607808 0)
(0.0017321 0.000520194 0)
(0.00110514 0.000419675 0)
(0.000603772 0.000307243 0)
(0.000253345 0.000173024 0)
(4.99324e-05 4.7276e-05 0)
(-8.96401e-06 -4.5167e-05 0)
(3.94405e-05 -0.000102588 0)
(0.000310484 -0.00049818 0)
(0.000865343 -0.000883939 0)
(0.00162116 -0.00121658 0)
(0.00256028 -0.00144331 0)
(0.00359248 -0.00156963 0)
(0.00467306 -0.00159211 0)
(0.00572807 -0.00153008 0)
(0.00671797 -0.00139793 0)
(0.0075965 -0.00121869 0)
(0.00834343 -0.00101123 0)
(0.00894104 -0.000795543 0)
(0.00938954 -0.000586635 0)
(0.00969272 -0.000396724 0)
(0.0098641 -0.000232676 0)
(0.00991772 -9.73808e-05 0)
(0.0098699 1.08298e-05 0)
(0.00973344 9.68825e-05 0)
(0.0095179 0.000168486 0)
(0.00922655 0.000234806 0)
(0.00885683 0.000305585 0)
(0.00839944 0.000390031 0)
(0.00783953 0.000496136 0)
(0.00715722 0.00063014 0)
(0.00632911 0.000796444 0)
(0.00532928 0.000997754 0)
(0.00413045 0.00123548 0)
(0.00270469 0.00151016 0)
(0.00102416 0.00182186 0)
(-0.000938578 0.00217039 0)
(-0.00321001 0.00255533 0)
(-0.00581525 0.00297589 0)
(-0.00877734 0.0034307 0)
(-0.0121165 0.00391755 0)
(-0.0158491 0.00443313 0)
(-0.0199867 0.00497288 0)
(-0.024535 0.00553093 0)
(-0.0294928 0.00610002 0)
(-0.0348512 0.00667161 0)
(-0.0405928 0.00723597 0)
(-0.0466912 0.00778242 0)
(-0.053111 0.00829952 0)
(-0.059808 0.0087754 0)
(-0.0667295 0.0091981 0)
(-0.0738155 0.0095559 0)
(-0.0809992 0.00983766 0)
(-0.0882091 0.0100332 0)
(-0.0953696 0.0101334 0)
(-0.102404 0.0101307 0)
(-0.109233 0.010019 0)
(-0.11578 0.00979382 0)
(-0.121971 0.00945255 0)
(-0.127734 0.00899407 0)
(-0.133001 0.00841895 0)
(-0.137709 0.0077293 0)
(-0.141803 0.00692864 0)
(-0.14523 0.00602189 0)
(-0.147947 0.00501526 0)
(-0.149913 0.0039162 0)
(-0.151099 0.00273339 0)
(-0.151476 0.00147676 0)
(-0.151028 0.000157489 0)
(-0.149742 -0.00121195 0)
(-0.147613 -0.00261771 0)
(-0.144643 -0.00404462 0)
(-0.140842 -0.00547607 0)
(-0.136227 -0.00689413 0)
(-0.130823 -0.0082796 0)
(-0.124663 -0.00961219 0)
(-0.11779 -0.0108707 0)
(-0.110255 -0.0120336 0)
(-0.102117 -0.013079 0)
(-0.0934455 -0.0139859 0)
(-0.0843179 -0.014734 0)
(-0.0748201 -0.0153052 0)
(-0.0650455 -0.0156838 0)
(-0.0550945 -0.0158577 0)
(-0.0450727 -0.0158186 0)
(-0.0350896 -0.0155633 0)
(-0.0252567 -0.0150937 0)
(-0.0156854 -0.0144171 0)
(-0.00648474 -0.0135469 0)
(0.00224118 -0.0125016 0)
(0.0103954 -0.011305 0)
(0.0178905 -0.00998514 0)
(0.0246511 -0.00857358 0)
(0.0306154 -0.00710418 0)
(0.0357374 -0.00561189 0)
(0.0399875 -0.00413149 0)
(0.0433539 -0.00269624 0)
(0.0458429 -0.0013367 0)
(0.0474782 -7.95867e-05 0)
(0.0483004 0.00105308 0)
(0.0483655 0.00204467 0)
(0.0477431 0.00288437 0)
(0.0465132 0.00356721 0)
(0.0447638 0.00409393 0)
(0.0425873 0.00447044 0)
(0.0400772 0.00470711 0)
(0.0373247 0.0048178 0)
(0.0344156 0.00481887 0)
(0.0314283 0.00472803 0)
(0.0284312 0.0045635 0)
(0.0254826 0.00434293 0)
(0.0226287 0.00408299 0)
(0.0199057 0.00379851 0)
(0.0173379 0.00350267 0)
(0.0149422 0.00320603 0)
(0.0127248 0.00291739 0)
(0.0106891 0.00264197 0)
(0.00882912 0.00238343 0)
(0.00714323 0.00213994 0)
(0.00562121 0.00190896 0)
(0.00426691 0.00167952 0)
(0.0030735 0.00144412 0)
(0.00206074 0.00118368 0)
(0.00122716 0.000897519 0)
(0.00060989 0.000572361 0)
(0.000196314 0.000257769 0)
(1.76026e-05 -3.5415e-06 0)
(6.54311e-05 -0.000282887 0)
(0.000449419 -0.000988329 0)
(0.00118714 -0.00163686 0)
(0.0021486 -0.00217554 0)
(0.00331357 -0.0025416 0)
(0.00457009 -0.00273836 0)
(0.00586911 -0.00276429 0)
(0.00712373 -0.00264724 0)
(0.00828934 -0.00241222 0)
(0.00931177 -0.00209549 0)
(0.0101672 -0.00172883 0)
(0.0108336 -0.00134458 0)
(0.0113096 -0.000967919 0)
(0.011597 -0.000618847 0)
(0.0117086 -0.000308936 0)
(0.011657 -4.28144e-05 0)
(0.0114574 0.000182363 0)
(0.0111202 0.00037513 0)
(0.0106519 0.000548681 0)
(0.0100512 0.000718798 0)
(0.00930985 0.000902233 0)
(0.00841161 0.00111488 0)
(0.00733366 0.00137053 0)
(0.00604739 0.00168001 0)
(0.00452021 0.00205094 0)
(0.00271685 0.00248801 0)
(0.000600824 0.0029935 0)
(-0.00186448 0.00356798 0)
(-0.00471477 0.00421086 0)
(-0.007984 0.00492062 0)
(-0.0117034 0.0056948 0)
(-0.0159003 0.00652976 0)
(-0.0205971 0.00742023 0)
(-0.0258096 0.00835898 0)
(-0.0315458 0.00933645 0)
(-0.0378043 0.0103406 0)
(-0.0445732 0.011357 0)
(-0.051829 0.0123688 0)
(-0.0595364 0.0133573 0)
(-0.0676479 0.0143023 0)
(-0.0761042 0.0151828 0)
(-0.0848356 0.0159774 0)
(-0.0937632 0.0166652 0)
(-0.102801 0.0172269 0)
(-0.111858 0.0176446 0)
(-0.12084 0.0179031 0)
(-0.129654 0.01799 0)
(-0.138207 0.017896 0)
(-0.146413 0.0176149 0)
(-0.154187 0.0171439 0)
(-0.161453 0.016483 0)
(-0.168144 0.0156349 0)
(-0.174197 0.0146048 0)
(-0.179559 0.0133999 0)
(-0.184184 0.0120294 0)
(-0.188034 0.0105036 0)
(-0.191076 0.00883426 0)
(-0.193285 0.00703431 0)
(-0.194642 0.00511758 0)
(-0.195132 0.00309895 0)
(-0.194746 0.00099431 0)
(-0.193479 -0.00117931 0)
(-0.191332 -0.00340366 0)
(-0.188311 -0.00565911 0)
(-0.184424 -0.00792454 0)
(-0.179686 -0.0101773 0)
(-0.174119 -0.012393 0)
(-0.167746 -0.0145458 0)
(-0.160602 -0.0166084 0)
(-0.152724 -0.0185521 0)
(-0.144159 -0.0203477 0)
(-0.134961 -0.0219653 0)
(-0.125191 -0.0233758 0)
(-0.11492 -0.024551 0)
(-0.104227 -0.0254649 0)
(-0.0931984 -0.0260948 0)
(-0.0819281 -0.026422 0)
(-0.0705168 -0.0264333 0)
(-0.0590706 -0.0261216 0)
(-0.0476991 -0.0254867 0)
(-0.0365141 -0.0245361 0)
(-0.0256272 -0.023285 0)
(-0.0151475 -0.0217563 0)
(-0.00517976 -0.0199805 0)
(0.00417831 -0.0179943 0)
(0.0128379 -0.0158401 0)
(0.0207213 -0.0135645 0)
(0.0277632 -0.0112167 0)
(0.0339128 -0.00884735 0)
(0.0391345 -0.00650617 0)
(0.0434092 -0.00424098 0)
(0.0467344 -0.00209587 0)
(0.0491252 -0.000109805 0)
(0.0506134 0.00168458 0)
(0.0512472 0.003262 0)
(0.05109 0.00460525 0)
(0.0502184 0.00570554 0)
(0.0487197 0.00656247 0)
(0.0466888 0.00718355 0)
(0.0442248 0.00758331 0)
(0.0414275 0.00778211 0)
(0.0383937 0.00780454 0)
(0.0352137 0.00767802 0)
(0.0319695 0.00743094 0)
(0.0287313 0.00709158 0)
(0.0255588 0.00668644 0)
(0.0224977 0.00623996 0)
(0.0195839 0.00577281 0)
(0.0168394 0.00530255 0)
(0.0142814 0.00484118 0)
(0.0119137 0.00439716 0)
(0.00974339 0.00397071 0)
(0.00776465 0.0035592 0)
(0.00598726 0.00314835 0)
(0.00440374 0.0027264 0)
(0.0030401 0.00226738 0)
(0.0018895 0.00176682 0)
(0.00100389 0.00120701 0)
(0.000363988 0.000643142 0)
(4.88859e-05 0.000122502 0)
(8.18281e-05 -0.000529876 0)
(0.00055098 -0.00162347 0)
(0.00143429 -0.0025818 0)
(0.00255796 -0.00334932 0)
(0.00389548 -0.00386215 0)
(0.00531273 -0.00412295 0)
(0.00675644 -0.00413574 0)
(0.00812871 -0.00393804 0)
(0.00938233 -0.00356793 0)
(0.0104579 -0.00307628 0)
(0.0113302 -0.00250952 0)
(0.011975 -0.00191336 0)
(0.0123898 -0.00132407 0)
(0.0125746 -0.000769731 0)
(0.0125404 -0.000266617 0)
(0.0122971 0.000179397 0)
(0.011856 0.000573143 0)
(0.0112227 0.000927891 0)
(0.0103977 0.00126361 0)
(0.00937229 0.00160406 0)
(0.00813003 0.00197423 0)
(0.00664563 0.00239772 0)
(0.00488691 0.00289485 0)
(0.00281584 0.00348139 0)
(0.000390812 0.00416822 0)
(-0.0024318 0.00496162 0)
(-0.00569569 0.00586405 0)
(-0.00944323 0.00687497 0)
(-0.0137138 0.0079915 0)
(-0.0185425 0.0092086 0)
(-0.0239584 0.010519 0)
(-0.0299825 0.0119125 0)
(-0.0366263 0.0133761 0)
(-0.0438899 0.0148928 0)
(-0.0517599 0.0164418 0)
(-0.0602086 0.0179987 0)
(-0.0691933 0.0195356 0)
(-0.0786561 0.021022 0)
(-0.0885249 0.0224259 0)
(-0.0987149 0.0237146 0)
(-0.109131 0.0248559 0)
(-0.11967 0.0258199 0)
(-0.130225 0.0265794 0)
(-0.140688 0.0271116 0)
(-0.150954 0.0273981 0)
(-0.160922 0.0274257 0)
(-0.170499 0.0271865 0)
(-0.179598 0.0266775 0)
(-0.188147 0.0259001 0)
(-0.19608 0.0248601 0)
(-0.203341 0.0235663 0)
(-0.209887 0.0220302 0)
(-0.215679 0.0202655 0)
(-0.220689 0.0182874 0)
(-0.224893 0.0161119 0)
(-0.228274 0.0137559 0)
(-0.23082 0.0112368 0)
(-0.232521 0.00857233 0)
(-0.233371 0.00578071 0)
(-0.233366 0.00288067 0)
(-0.232505 -0.000108353 0)
(-0.230789 -0.00316595 0)
(-0.22822 -0.00627049 0)
(-0.224802 -0.00939883 0)
(-0.220543 -0.0125261 0)
(-0.215452 -0.0156254 0)
(-0.209542 -0.0186676 0)
(-0.202833 -0.0216215 0)
(-0.195345 -0.0244538 0)
(-0.187107 -0.0271291 0)
(-0.178155 -0.0296106 0)
(-0.16853 -0.0318607 0)
(-0.158284 -0.0338416 0)
(-0.147475 -0.0355163 0)
(-0.136172 -0.0368503 0)
(-0.124453 -0.0378121 0)
(-0.112403 -0.0383754 0)
(-0.100118 -0.0385199 0)
(-0.0877002 -0.0382331 0)
(-0.0752564 -0.037511 0)
(-0.0628985 -0.0363593 0)
(-0.0507398 -0.0347936 0)
(-0.0388932 -0.0328396 0)
(-0.0274685 -0.0305326 0)
(-0.0165706 -0.0279167 0)
(-0.00629659 -0.0250436 0)
(0.00326549 -0.021971 0)
(0.0120386 -0.0187609 0)
(0.019958 -0.0154775 0)
(0.0269719 -0.0121857 0)
(0.0330428 -0.00894902 0)
(0.0381476 -0.00582775 0)
(0.0422784 -0.00287751 0)
(0.0454428 -0.000147582 0)
(0.047664 0.00232051 0)
(0.0489812 0.00449419 0)
(0.0494485 0.00635082 0)
(0.0491345 0.00787832 0)
(0.0481197 0.00907535 0)
(0.046495 0.00995093 0)
(0.044358 0.0105236 0)
(0.0418098 0.0108198 0)
(0.0389503 0.0108723 0)
(0.0358766 0.0107179 0)
(0.0326768 0.0103953 0)
(0.0294312 0.00994322 0)
(0.026206 0.0093985 0)
(0.0230581 0.00879412 0)
(0.0200284 0.00815896 0)
(0.0171513 0.00751462 0)
(0.0144449 0.00687697 0)
(0.0119291 0.00625102 0)
(0.00960614 0.00563597 0)
(0.00749499 0.0050165 0)
(0.00559008 0.00437709 0)
(0.00392641 0.00368625 0)
(0.00249425 0.00293269 0)
(0.00136424 0.00209254 0)
(0.000514638 0.00121311 0)
(7.54179e-05 0.000334259 0)
(9.42874e-05 -0.00081758 0)
(0.000630537 -0.00235589 0)
(0.00162734 -0.00365266 0)
(0.00287388 -0.00465469 0)
(0.00433462 -0.00530459 0)
(0.00585448 -0.00560888 0)
(0.00737553 -0.00558142 0)
(0.00879046 -0.00527167 0)
(0.010051 -0.00473288 0)
(0.0110945 -0.00403146 0)
(0.0118965 -0.00322911 0)
(0.0124315 -0.0023848 0)
(0.0126971 -0.00154541 0)
(0.0126915 -0.000746217 0)
(0.0124231 -7.09235e-06 0)
(0.0118975 0.000666137 0)
(0.0111203 0.00128162 0)
(0.0100896 0.00185867 0)
(0.0087971 0.00242519 0)
(0.00722434 0.00301377 0)
(0.00534432 0.00365818 0)
(0.00312117 0.00438985 0)
(0.000512572 0.00523529 0)
(-0.00252867 0.00621448 0)
(-0.0060519 0.00734039 0)
(-0.0101065 0.00861941 0)
(-0.0147397 0.0100522 0)
(-0.0199943 0.0116348 0)
(-0.0259067 0.0133588 0)
(-0.0325046 0.015212 0)
(-0.0398049 0.0171776 0)
(-0.0478107 0.0192342 0)
(-0.0565101 0.021355 0)
(-0.0658737 0.0235081 0)
(-0.075854 0.0256563 0)
(-0.0863855 0.0277585 0)
(-0.0973853 0.0297705 0)
(-0.108756 0.0316471 0)
(-0.120388 0.0333434 0)
(-0.132163 0.0348175 0)
(-0.143962 0.0360313 0)
(-0.155662 0.0369528 0)
(-0.16715 0.0375568 0)
(-0.178318 0.0378257 0)
(-0.189069 0.037749 0)
(-0.199319 0.0373235 0)
(-0.208997 0.0365526 0)
(-0.218043 0.0354448 0)
(-0.226412 0.0340131 0)
(-0.234065 0.0322737 0)
(-0.240977 0.0302451 0)
(-0.247128 0.0279472 0)
(-0.252504 0.0254005 0)
(-0.257095 0.0226259 0)
(-0.260896 0.0196437 0)
(-0.263903 0.0164743 0)
(-0.266113 0.0131373 0)
(-0.267525 0.00965221 0)
(-0.268135 0.00603842 0)
(-0.267944 0.0023155 0)
(-0.266949 -0.0014964 0)
(-0.265147 -0.00537617 0)
(-0.262537 -0.00930125 0)
(-0.259117 -0.0132473 0)
(-0.254887 -0.0171876 0)
(-0.249847 -0.021093 0)
(-0.244002 -0.0249313 0)
(-0.237358 -0.0286674 0)
(-0.229925 -0.032263 0)
(-0.221719 -0.0356771 0)
(-0.212762 -0.0388661 0)
(-0.203084 -0.0417846 0)
(-0.192721 -0.0443862 0)
(-0.181722 -0.0466249 0)
(-0.170142 -0.0484564 0)
(-0.15805 -0.0498394 0)
(-0.145524 -0.0507383 0)
(-0.132651 -0.0511238 0)
(-0.119531 -0.0509758 0)
(-0.106269 -0.0502844 0)
(-0.0929784 -0.049051 0)
(-0.0797754 -0.0472897 0)
(-0.0667783 -0.0450267 0)
(-0.0541039 -0.0423008 0)
(-0.041865 -0.0391616 0)
(-0.0301674 -0.0356686 0)
(-0.0191082 -0.0318893 0)
(-0.00877364 -0.0278964 0)
(0.000761945 -0.0237665 0)
(0.00943676 -0.0195769 0)
(0.017202 -0.0154044 0)
(0.0240217 -0.011323 0)
(0.0298732 -0.00740229 0)
(0.0347467 -0.00370584 0)
(0.0386458 -0.000289986 0)
(0.041588 0.00279773 0)
(0.0436044 0.00551979 0)
(0.0447408 0.00784986 0)
(0.0450566 0.00977365 0)
(0.0446242 0.0112893 0)
(0.0435272 0.0124074 0)
(0.0418583 0.0131496 0)
(0.039715 0.013548 0)
(0.0371975 0.0136422 0)
(0.0344028 0.0134773 0)
(0.0314241 0.013101 0)
(0.028344 0.0125612 0)
(0.0252375 0.011903 0)
(0.0221639 0.0111674 0)
(0.0191762 0.0103872 0)
(0.0163085 0.00958791 0)
(0.0135965 0.00878198 0)
(0.0110533 0.00797281 0)
(0.00871016 0.0071468 0)
(0.00656644 0.00628589 0)
(0.00466845 0.00535453 0)
(0.00300691 0.00433168 0)
(0.00167219 0.00318423 0)
(0.00064381 0.00193888 0)
(9.79465e-05 0.000617122 0)
(0.000102819 -0.00114276 0)
(0.000689321 -0.00317555 0)
(0.0017713 -0.00483596 0)
(0.00310589 -0.00607633 0)
(0.00464668 -0.00685023 0)
(0.00621851 -0.00717219 0)
(0.00775778 -0.00707035 0)
(0.00914877 -0.00660931 0)
(0.0103428 -0.00586029 0)
(0.0112757 -0.00490679 0)
(0.0119247 -0.00382669 0)
(0.0122648 -0.00269208 0)
(0.012294 -0.00155977 0)
(0.0120089 -0.000470843 0)
(0.0114148 0.000552841 0)
(0.0105116 0.00150739 0)
(0.00929739 0.00240611 0)
(0.00776067 0.00327605 0)
(0.00588204 0.0041543 0)
(0.00363119 0.0050831 0)
(0.000969214 0.00610511 0)
(-0.00215095 0.00725904 0)
(-0.00578124 0.0085764 0)
(-0.00997622 0.0100796 0)
(-0.0147897 0.0117813 0)
(-0.0202721 0.0136852 0)
(-0.0264678 0.0157869 0)
(-0.0334119 0.0180746 0)
(-0.0411281 0.0205299 0)
(-0.0496253 0.0231277 0)
(-0.0588953 0.0258363 0)
(-0.0689105 0.0286166 0)
(-0.0796223 0.0314228 0)
(-0.0909609 0.034203 0)
(-0.102836 0.0369009 0)
(-0.115141 0.0394576 0)
(-0.127754 0.0418144 0)
(-0.140544 0.043915 0)
(-0.153378 0.045709 0)
(-0.166124 0.0471529 0)
(-0.178658 0.0482128 0)
(-0.190866 0.0488646 0)
(-0.202649 0.0490942 0)
(-0.213921 0.0488971 0)
(-0.224616 0.0482773 0)
(-0.234678 0.0472459 0)
(-0.244069 0.0458193 0)
(-0.25276 0.0440184 0)
(-0.260732 0.0418661 0)
(-0.267974 0.0393872 0)
(-0.27448 0.0366066 0)
(-0.280248 0.0335491 0)
(-0.285277 0.0302383 0)
(-0.28957 0.0266971 0)
(-0.293127 0.0229471 0)
(-0.295949 0.0190086 0)
(-0.298036 0.014901 0)
(-0.299386 0.0106432 0)
(-0.299998 0.00625376 0)
(-0.299866 0.00175133 0)
(-0.298986 -0.00284468 0)
(-0.29735 -0.00751369 0)
(-0.294952 -0.0122334 0)
(-0.291783 -0.016979 0)
(-0.287835 -0.0217233 0)
(-0.2831 -0.0264353 0)
(-0.277573 -0.0310807 0)
(-0.271249 -0.035621 0)
(-0.264126 -0.0400137 0)
(-0.256207 -0.0442124 0)
(-0.2475 -0.0481668 0)
(-0.23802 -0.0518238 0)
(-0.227791 -0.055128 0)
(-0.216843 -0.0580232 0)
(-0.205221 -0.0604541 0)
(-0.192979 -0.0623682 0)
(-0.180184 -0.0637179 0)
(-0.166917 -0.0644628 0)
(-0.153271 -0.0645723 0)
(-0.139348 -0.0640276 0)
(-0.125265 -0.0628234 0)
(-0.111141 -0.0609696 0)
(-0.0971046 -0.0584912 0)
(-0.0832816 -0.055429 0)
(-0.0697976 -0.0518379 0)
(-0.0567716 -0.0477852 0)
(-0.0443138 -0.0433486 0)
(-0.0325227 -0.0386131 0)
(-0.0214833 -0.033668 0)
(-0.0112668 -0.0286041 0)
(-0.00192991 -0.0235116 0)
(0.00648422 -0.0184771 0)
(0.0139453 -0.0135828 0)
(0.0204351 -0.00890455 0)
(0.0259466 -0.00451082 0)
(0.0304839 -0.000461688 0)
(0.0340624 0.00319238 0)
(0.0367095 0.00641171 0)
(0.0384645 0.00916865 0)
(0.0393801 0.0114485 0)
(0.0395209 0.0132504 0)
(0.0389635 0.0145869 0)
(0.0377937 0.0154837 0)
(0.0361049 0.0159778 0)
(0.0339926 0.0161154 0)
(0.0315543 0.0159487 0)
(0.0288808 0.0155335 0)
(0.0260598 0.0149248 0)
(0.0231648 0.0141746 0)
(0.0202654 0.0133276 0)
(0.0174112 0.0124195 0)
(0.0146542 0.0114723 0)
(0.0120202 0.0104953 0)
(0.00955446 0.00947902 0)
(0.00726434 0.00840385 0)
(0.00520932 0.00723137 0)
(0.00338447 0.0059287 0)
(0.00189942 0.00445124 0)
(0.000737978 0.00279643 0)
(0.000113666 0.000959535 0)
(0.000110381 -0.0014915 0)
(0.00073694 -0.00405206 0)
(0.00188133 -0.00608775 0)
(0.00327227 -0.00755796 0)
(0.00485112 -0.00843099 0)
(0.00642444 -0.0087343 0)
(0.00792272 -0.00851513 0)
(0.00922341 -0.00785695 0)
(0.0102783 -0.00685187 0)
(0.0110234 -0.00560193 0)
(0.0114387 -0.00420157 0)
(0.0115006 -0.00273519 0)
(0.0112077 -0.00126798 0)
(0.0105547 0.000155328 0)
(0.00954259 0.00151336 0)
(0.00816427 0.00280664 0)
(0.00640826 0.00405585 0)
(0.00425143 0.00529746 0)
(0.00166158 0.00657876 0)
(-0.00140468 0.00795167 0)
(-0.00499837 0.00946687 0)
(-0.00917673 0.0111685 0)
(-0.0139988 0.0130903 0)
(-0.0195224 0.0152537 0)
(-0.0258001 0.0176673 0)
(-0.0328759 0.0203273 0)
(-0.0407819 0.0232188 0)
(-0.049535 0.0263169 0)
(-0.0591337 0.0295866 0)
(-0.0695556 0.0329838 0)
(-0.0807548 0.0364553 0)
(-0.0926616 0.0399394 0)
(-0.105183 0.043368 0)
(-0.118204 0.0466684 0)
(-0.131595 0.049767 0)
(-0.145215 0.0525921 0)
(-0.158916 0.0550783 0)
(-0.172557 0.0571687 0)
(-0.186001 0.0588179 0)
(-0.199128 0.059993 0)
(-0.211833 0.0606742 0)
(-0.224028 0.0608536 0)
(-0.235645 0.0605345 0)
(-0.246634 0.0597294 0)
(-0.256959 0.0584576 0)
(-0.266598 0.0567435 0)
(-0.275537 0.0546148 0)
(-0.283771 0.0521007 0)
(-0.2913 0.0492308 0)
(-0.298128 0.0460339 0)
(-0.304261 0.0425378 0)
(-0.309704 0.0387684 0)
(-0.314463 0.0347498 0)
(-0.318543 0.0305044 0)
(-0.321947 0.0260525 0)
(-0.324678 0.0214134 0)
(-0.326736 0.0166047 0)
(-0.32812 0.0116437 0)
(-0.328826 0.00654721 0)
(-0.328849 0.00133215 0)
(-0.328183 -0.00398364 0)
(-0.326817 -0.009381 0)
(-0.324743 -0.0148388 0)
(-0.321947 -0.0203333 0)
(-0.318416 -0.0258374 0)
(-0.314136 -0.0313204 0)
(-0.309092 -0.0367469 0)
(-0.303271 -0.042077 0)
(-0.296658 -0.0472655 0)
(-0.289244 -0.0522619 0)
(-0.281021 -0.0570109 0)
(-0.271988 -0.0614526 0)
(-0.26215 -0.0655231 0)
(-0.251521 -0.0691565 0)
(-0.240125 -0.0722859 0)
(-0.227999 -0.074846 0)
(-0.215194 -0.0767756 0)
(-0.201776 -0.0780201 0)
(-0.187826 -0.0785349 0)
(-0.173444 -0.0782883 0)
(-0.158739 -0.0772639 0)
(-0.143838 -0.0754628 0)
(-0.128874 -0.0729052 0)
(-0.113989 -0.0696304 0)
(-0.0993222 -0.065696 0)
(-0.0850137 -0.0611763 0)
(-0.0711934 -0.0561593 0)
(-0.0579796 -0.050743 0)
(-0.0454753 -0.0450317 0)
(-0.0337668 -0.0391319 0)
(-0.0229223 -0.0331489 0)
(-0.0129932 -0.0271841 0)
(-0.00401505 -0.0213324 0)
(0.00399007 -0.0156815 0)
(0.0110118 -0.0103103 0)
(0.0170497 -0.00528914 0)
(0.0221124 -0.000678416 0)
(0.0262176 0.00347154 0)
(0.0293919 0.00712171 0)
(0.0316725 0.0102455 0)
(0.0331072 0.0128297 0)
(0.0337555 0.0148758 0)
(0.0336874 0.0163994 0)
(0.0329834 0.0174302 0)
(0.0317305 0.0180103 0)
(0.0300217 0.0181914 0)
(0.0279488 0.0180321 0)
(0.0256047 0.0175936 0)
(0.0230719 0.0169364 0)
(0.020432 0.0161152 0)
(0.0177476 0.0151759 0)
(0.0150856 0.0141502 0)
(0.0124847 0.0130545 0)
(0.0100045 0.011885 0)
(0.00766281 0.0106216 0)
(0.00553272 0.00922394 0)
(0.00361678 0.00764611 0)
(0.00204154 0.0058304 0)
(0.000797286 0.00373989 0)
(0.000123491 0.00133965 0)
(0.000116749 -0.00186426 0)
(0.000773995 -0.00497814 0)
(0.00196014 -0.00739269 0)
(0.003377 -0.00907662 0)
(0.00495292 -0.0100165 0)
(0.0064779 -0.0102576 0)
(0.00787683 -0.00987089 0)
(0.00902221 -0.008963 0)
(0.0098673 -0.0076499 0)
(0.0103498 -0.00605367 0)
(0.0104532 -0.00428553 0)
(0.0101558 -0.00244108 0)
(0.0094566 -0.000591907 0)
(0.0083476 0.00121629 0)
(0.00682435 0.00296551 0)
(0.00487084 0.00466349 0)
(0.00246436 0.0063406 0)
(-0.000431394 0.00804424 0)
(-0.00386222 0.00983229 0)
(-0.00788433 0.0117655 0)
(-0.0125593 0.0139005 0)
(-0.0179512 0.0162834 0)
(-0.0241212 0.018946 0)
(-0.0311236 0.0219038 0)
(-0.0390011 0.0251552 0)
(-0.0477811 0.0286831 0)
(-0.0574719 0.0324555 0)
(-0.0680598 0.036427 0)
(-0.0795059 0.0405398 0)
(-0.0917448 0.0447249 0)
(-0.104685 0.0489036 0)
(-0.118209 0.0529902 0)
(-0.132183 0.0568958 0)
(-0.146454 0.0605322 0)
(-0.160865 0.0638167 0)
(-0.175262 0.0666761 0)
(-0.189496 0.0690503 0)
(-0.203436 0.0708943 0)
(-0.216967 0.0721788 0)
(-0.229996 0.0728901 0)
(-0.242453 0.0730283 0)
(-0.254284 0.0726049 0)
(-0.265456 0.0716406 0)
(-0.275947 0.0701626 0)
(-0.285748 0.0682024 0)
(-0.294857 0.0657934 0)
(-0.303279 0.0629697 0)
(-0.311021 0.0597649 0)
(-0.318092 0.0562108 0)
(-0.324504 0.0523376 0)
(-0.330266 0.0481732 0)
(-0.335388 0.0437428 0)
(-0.339878 0.0390696 0)
(-0.343745 0.0341746 0)
(-0.346994 0.0290767 0)
(-0.349631 0.0237932 0)
(-0.351657 0.0183403 0)
(-0.353073 0.0127331 0)
(-0.353879 0.00698639 0)
(-0.354071 0.00111518 0)
(-0.353642 -0.0048649 0)
(-0.352585 -0.0109368 0)
(-0.350888 -0.0170816 0)
(-0.348537 -0.0232775 0)
(-0.345516 -0.0294991 0)
(-0.341805 -0.0357172 0)
(-0.337384 -0.0418974 0)
(-0.33223 -0.0479998 0)
(-0.326317 -0.0539785 0)
(-0.319624 -0.0597812 0)
(-0.312126 -0.0653491 0)
(-0.303804 -0.0706171 0)
(-0.294643 -0.0755146 0)
(-0.284635 -0.0799664 0)
(-0.27378 -0.0838944 0)
(-0.262092 -0.0872199 0)
(-0.249598 -0.0898662 0)
(-0.236343 -0.0917621 0)
(-0.222389 -0.0928453 0)
(-0.207819 -0.0930665 0)
(-0.192736 -0.0923926 0)
(-0.177261 -0.0908105 0)
(-0.161532 -0.0883291 0)
(-0.145701 -0.084981 0)
(-0.129928 -0.0808224 0)
(-0.114374 -0.0759312 0)
(-0.0991971 -0.0704046 0)
(-0.0845445 -0.0643546 0)
(-0.0705483 -0.0579027 0)
(-0.0573205 -0.0511751 0)
(-0.0449512 -0.0442971 0)
(-0.0335078 -0.0373889 0)
(-0.023036 -0.0305629 0)
(-0.0135631 -0.0239208 0)
(-0.00510068 -0.0175536 0)
(0.00235189 -0.0115409 0)
(0.00880431 -0.00595136 0)
(0.0142738 -0.00084294 0)
(0.0187837 0.00373736 0)
(0.0223647 0.00775404 0)
(0.0250544 0.0111842 0)
(0.0268998 0.0140184 0)
(0.0279568 0.0162622 0)
(0.0282923 0.0179355 0)
(0.0279808 0.0190729 0)
(0.0271064 0.0197214 0)
(0.0257554 0.0199379 0)
(0.0240195 0.0197856 0)
(0.0219841 0.0193297 0)
(0.0197376 0.0186323 0)
(0.0173517 0.0177472 0)
(0.0149049 0.0167155 0)
(0.0124481 0.0155604 0)
(0.010054 0.0142842 0)
(0.00775178 0.012867 0)
(0.00562789 0.0112672 0)
(0.00369465 0.00942568 0)
(0.00209203 0.00727145 0)
(0.000818172 0.00473208 0)
(0.000126498 0.00174135 0)
(0.000122838 -0.00225365 0)
(0.000803042 -0.00593351 0)
(0.00201079 -0.00871771 0)
(0.00342229 -0.0105865 0)
(0.00495215 -0.0115495 0)
(0.00637628 -0.0116748 0)
(0.00761501 -0.0110627 0)
(0.00853836 -0.00984688 0)
(0.00910243 -0.00817017 0)
(0.00924807 -0.00617562 0)
(0.00896299 -0.0039908 0)
(0.00822717 -0.00172062 0)
(0.0070394 0.000559709 0)
(0.00538764 0.00280682 0)
(0.0032602 0.00500939 0)
(0.000630497 0.0071853 0)
(-0.00253691 0.00937658 0)
(-0.00629211 0.0116424 0)
(-0.010694 0.0140503 0)
(-0.0158095 0.0166677 0)
(-0.0217068 0.019553 0)
(-0.0284509 0.0227493 0)
(-0.0360973 0.0262802 0)
(-0.0446872 0.0301483 0)
(-0.0542427 0.0343347 0)
(-0.0647628 0.0388014 0)
(-0.0762199 0.043492 0)
(-0.0885582 0.0483344 0)
(-0.101692 0.0532429 0)
(-0.115509 0.0581208 0)
(-0.129869 0.0628649 0)
(-0.144618 0.0673701 0)
(-0.159588 0.0715349 0)
(-0.17461 0.075267 0)
(-0.189524 0.0784879 0)
(-0.204183 0.0811363 0)
(-0.218459 0.0831694 0)
(-0.23225 0.0845635 0)
(-0.245475 0.0853119 0)
(-0.258077 0.0854228 0)
(-0.270017 0.0849158 0)
(-0.281273 0.0838195 0)
(-0.291835 0.0821679 0)
(-0.301702 0.0799981 0)
(-0.310881 0.0773489 0)
(-0.319382 0.0742584 0)
(-0.327216 0.0707636 0)
(-0.334398 0.0668995 0)
(-0.340943 0.0626988 0)
(-0.346864 0.0581914 0)
(-0.352177 0.0534047 0)
(-0.356895 0.0483634 0)
(-0.361031 0.0430894 0)
(-0.364597 0.0376027 0)
(-0.367605 0.0319206 0)
(-0.370063 0.0260591 0)
(-0.37198 0.0200322 0)
(-0.37336 0.0138532 0)