/*--------------------------------*- C++ -*----------------------------------*\
| =========                 |                                                 |
| \\      /  F ield         | OpenFOAM: The Open Source CFD Toolbox           |
|  \\    /   O peration     | Version:  2406                                  |
|   \\  /    A nd           | Website:  www.openfoam.com                      |
|    \\/     M anipulation  |                                                 |
\*---------------------------------------------------------------------------*/
FoamFile
{
    version     2.0;
    format      ascii;
    arch        "LSB;label=32;scalar=64";
    class       surfaceScalarField;
    location    "2.75";
    object      phi_0;
}
// * * * * * * * * * * * * * * * * * * * * * * * * * * * * * * * * * * * * * //

dimensions      [0 3 -1 0 0 0 0];

oriented        oriented;

internalField   nonuniform List<scalar> 
32512
(
1.58016e-09
-1.57643e-09
-8.44395e-10
2.42456e-09
-8.6285e-09
7.7841e-09
-2.1503e-08
1.28746e-08
-3.85784e-08
1.70754e-08
-5.88961e-08
2.03178e-08
-8.16048e-08
2.27086e-08
-1.06004e-07
2.43989e-08
-1.31544e-07
2.554e-08
-1.57811e-07
2.62672e-08
-1.84505e-07
2.66939e-08
-2.11416e-07
2.69112e-08
-2.38405e-07
2.69885e-08
-2.65381e-07
2.69766e-08
-2.92292e-07
2.69109e-08
-3.19107e-07
2.68146e-08
-3.45809e-07
2.67022e-08
-3.72391e-07
2.65817e-08
-3.98848e-07
2.64569e-08
-4.25177e-07
2.63291e-08
-4.51375e-07
2.61981e-08
-4.77438e-07
2.60632e-08
-5.03362e-07
2.59234e-08
-5.29139e-07
2.57775e-08
-5.54763e-07
2.56244e-08
-5.80227e-07
2.54631e-08
-6.0552e-07
2.5293e-08
-6.30633e-07
2.51131e-08
-6.55556e-07
2.4923e-08
-6.80278e-07
2.47219e-08
-7.04787e-07
2.45093e-08
-7.29072e-07
2.42847e-08
-7.53119e-07
2.40476e-08
-7.76917e-07
2.37973e-08
-8.0045e-07
2.35334e-08
-8.23705e-07
2.32554e-08
-8.46668e-07
2.29628e-08
-8.69323e-07
2.26551e-08
-8.91655e-07
2.23319e-08
-9.13647e-07
2.19924e-08
-9.35284e-07
2.16363e-08
-9.56547e-07
2.12631e-08
-9.77419e-07
2.08723e-08
-9.97883e-07
2.04635e-08
-1.01792e-06
2.0036e-08
-1.03751e-06
1.95896e-08
-1.05663e-06
1.91236e-08
-1.07527e-06
1.86376e-08
-1.0934e-06
1.81313e-08
-1.11101e-06
1.76043e-08
-1.12806e-06
1.70562e-08
-1.14455e-06
1.64865e-08
-1.16044e-06
1.5895e-08
-1.17572e-06
1.52815e-08
-1.19037e-06
1.46455e-08
-1.20436e-06
1.39869e-08
-1.21766e-06
1.33056e-08
-1.23026e-06
1.26013e-08
-1.24214e-06
1.1874e-08
-1.25326e-06
1.11237e-08
-1.26361e-06
1.03504e-08
-1.27317e-06
9.55402e-09
-1.2819e-06
8.7348e-09
-1.28979e-06
7.89294e-09
-1.29682e-06
7.02872e-09
-1.30296e-06
6.14245e-09
-1.3082e-06
5.23451e-09
-1.3125e-06
4.30534e-09
-1.31586e-06
3.3555e-09
-1.31825e-06
2.38564e-09
-1.31964e-06
1.39659e-09
-1.32003e-06
3.89275e-10
-1.3194e-06
-6.364e-10
-1.31772e-06
-1.67847e-09
-1.31498e-06
-2.73619e-09
-1.31117e-06
-3.80849e-09
-1.30628e-06
-4.89417e-09
-1.30029e-06
-5.99197e-09
-1.29319e-06
-7.10054e-09
-1.28497e-06
-8.21849e-09
-1.27562e-06
-9.34431e-09
-1.26515e-06
-1.04764e-08
-1.25353e-06
-1.16132e-08
-1.24078e-06
-1.27531e-08
-1.22689e-06
-1.38942e-08
-1.21185e-06
-1.50348e-08
-1.19568e-06
-1.61731e-08
-1.17837e-06
-1.73071e-08
-1.15994e-06
-1.84352e-08
-1.14038e-06
-1.95552e-08
-1.11971e-06
-2.06654e-08
-1.09795e-06
-2.17637e-08
-1.0751e-06
-2.28483e-08
-1.05119e-06
-2.39172e-08
-1.02622e-06
-2.49686e-08
-1.00022e-06
-2.60006e-08
-9.73205e-07
-2.70113e-08
-9.45206e-07
-2.79991e-08
-9.16244e-07
-2.89622e-08
-8.86345e-07
-2.98989e-08
-8.55537e-07
-3.08078e-08
-8.23849e-07
-3.16874e-08
-7.91313e-07
-3.25364e-08
-7.57959e-07
-3.33536e-08
-7.23822e-07
-3.4138e-08
-6.88933e-07
-3.48884e-08
-6.53329e-07
-3.5604e-08
-6.17046e-07
-3.62836e-08
-5.8012e-07
-3.69255e-08
-5.42593e-07
-3.75273e-08
-5.04508e-07
-3.80848e-08
-4.65917e-07
-3.85913e-08
-4.26881e-07
-3.90357e-08
-3.8748e-07
-3.94012e-08
-3.47818e-07
-3.96621e-08
-3.08036e-07
-3.97813e-08
-2.6833e-07
-3.97065e-08
-2.28963e-07
-3.93666e-08
-1.90295e-07
-3.86678e-08
-1.52806e-07
-3.74894e-08
-1.17124e-07
-3.56817e-08
-8.40596e-08
-3.3065e-08
-5.46237e-08
-2.9436e-08
-3.00342e-08
-2.45895e-08
-1.16521e-08
-1.83821e-08
-7.20946e-10
-1.09312e-08
2.47697e-09
-3.19796e-09
2.47694e-09
-2.43283e-09
8.56418e-10
-1.48996e-08
1.48914e-08
-3.94304e-08
3.23149e-08
-7.52704e-08
4.87146e-08
-1.20791e-07
6.25963e-08
-1.74121e-07
7.36473e-08
-2.33461e-07
8.20489e-08
-2.97238e-07
8.81756e-08
-3.64151e-07
9.24533e-08
-4.33175e-07
9.52918e-08
-5.03534e-07
9.70527e-08
-5.7466e-07
9.80369e-08
-6.46154e-07
9.84825e-08
-7.17747e-07
9.85691e-08
-7.89261e-07
9.84257e-08
-8.60587e-07
9.81406e-08
-9.31656e-07
9.77705e-08
-1.00242e-06
9.73498e-08
-1.07286e-06
9.68972e-08
-1.14296e-06
9.64214e-08
-1.21268e-06
9.59252e-08
-1.28203e-06
9.5408e-08
-1.35097e-06
9.48675e-08
-1.4195e-06
9.43009e-08
-1.48758e-06
9.37053e-08
-1.55519e-06
9.30779e-08
-1.62232e-06
9.24162e-08
-1.68892e-06
9.17177e-08
-1.75498e-06
9.09804e-08
-1.82046e-06
9.02022e-08
-1.88533e-06
8.93813e-08
-1.94956e-06
8.85159e-08
-2.01312e-06
8.76041e-08
-2.07596e-06
8.66443e-08
-2.13807e-06
8.56347e-08
-2.19938e-06
8.45736e-08
-2.25988e-06
8.34593e-08
-2.31952e-06
8.22902e-08
-2.37825e-06
8.10646e-08
-2.43604e-06
7.97807e-08
-2.49284e-06
7.8437e-08
-2.54861e-06
7.70317e-08
-2.6033e-06
7.55632e-08
-2.65686e-06
7.40299e-08
-2.70926e-06
7.24302e-08
-2.76043e-06
7.07626e-08
-2.81033e-06
6.90256e-08
-2.85891e-06
6.72178e-08
-2.90612e-06
6.53376e-08
-2.9519e-06
6.33839e-08
-2.9962e-06
6.13553e-08
-3.03896e-06
5.92508e-08
-3.08014e-06
5.70693e-08
-3.11966e-06
5.48098e-08
-3.15749e-06
5.24715e-08
-3.19356e-06
5.00538e-08
-3.22781e-06
4.7556e-08
-3.26018e-06
4.49778e-08
-3.29063e-06
4.23189e-08
-3.31908e-06
3.95793e-08
-3.34549e-06
3.67591e-08
-3.3698e-06
3.38586e-08
-3.39194e-06
3.08784e-08
-3.41187e-06
2.78192e-08
-3.42952e-06
2.46819e-08
-3.44485e-06
2.14678e-08
-3.45779e-06
1.81783e-08
-3.4683e-06
1.48152e-08
-3.47632e-06
1.13803e-08
-3.48181e-06
7.87596e-09
-3.48472e-06
4.30472e-09
-3.48501e-06
6.7203e-10
-3.48261e-06
-3.02754e-09
-3.47751e-06
-6.78155e-09
-3.46966e-06
-1.05897e-08
-3.45902e-06
-1.44483e-08
-3.44556e-06
-1.83531e-08
-3.42925e-06
-2.22995e-08
-3.41007e-06
-2.6283e-08
-3.38799e-06
-3.02984e-08
-3.36299e-06
-3.43407e-08
-3.33507e-06
-3.84044e-08
-3.30419e-06
-4.24838e-08
-3.27037e-06
-4.65731e-08
-3.2336e-06
-5.06663e-08
-3.19388e-06
-5.47572e-08
-3.15121e-06
-5.88394e-08
-3.10561e-06
-6.29064e-08
-3.0571e-06
-6.69517e-08
-3.00568e-06
-7.09686e-08
-2.9514e-06
-7.49504e-08
-2.89427e-06
-7.88905e-08
-2.83434e-06
-8.27821e-08
-2.77164e-06
-8.66184e-08
-2.70621e-06
-9.03929e-08
-2.63812e-06
-9.4099e-08
-2.5674e-06
-9.77304e-08
-2.49411e-06
-1.01281e-07
-2.41833e-06
-1.04744e-07
-2.34012e-06
-1.08115e-07
-2.25954e-06
-1.11387e-07
-2.17667e-06
-1.14556e-07
-2.09159e-06
-1.17617e-07
-2.00438e-06
-1.20564e-07
-1.91512e-06
-1.23395e-07
-1.8239e-06
-1.26104e-07
-1.73082e-06
-1.28688e-07
-1.63596e-06
-1.3114e-07
-1.53944e-06
-1.33453e-07
-1.44135e-06
-1.35616e-07
-1.34182e-06
-1.3761e-07
-1.241e-06
-1.39409e-07
-1.13907e-06
-1.40967e-07
-1.03626e-06
-1.42219e-07
-9.32848e-07
-1.4307e-07
-8.29246e-07
-1.43383e-07
-7.25981e-07
-1.42972e-07
-6.23759e-07
-1.41588e-07
-5.23517e-07
-1.3891e-07
-4.26465e-07
-1.34541e-07
-3.34143e-07
-1.28003e-07
-2.48457e-07
-1.18752e-07
-1.71677e-07
-1.06216e-07
-1.06379e-07
-8.98883e-08
-5.52224e-08
-6.95384e-08
-2.04885e-08
-4.56652e-08
-3.15883e-09
-2.05277e-08
-6.81892e-10
-7.86966e-09
8.72607e-09
-3.25659e-08
3.95879e-08
-7.39734e-08
7.37225e-08
-1.30722e-07
1.05463e-07
-2.00707e-07
1.32582e-07
-2.8157e-07
1.5451e-07
-3.70996e-07
1.71475e-07
-4.669e-07
1.8408e-07
-5.67508e-07
1.93061e-07
-6.71379e-07
1.99163e-07
-7.77393e-07
2.03066e-07
-8.84705e-07
2.0535e-07
-9.92707e-07
2.06484e-07
-1.10097e-06
2.06831e-07
-1.2092e-06
2.06657e-07
-1.31721e-06
2.06147e-07
-1.42486e-06
2.05426e-07
-1.53208e-06
2.04569e-07
-1.63881e-06
2.03622e-07
-1.745e-06
2.02609e-07
-1.85061e-06
2.0154e-07
-1.95562e-06
2.00415e-07
-2.05998e-06
1.99234e-07
-2.16368e-06
1.97992e-07
-2.26665e-06
1.96685e-07
-2.36888e-06
1.95307e-07
-2.47032e-06
1.93855e-07
-2.57093e-06
1.92323e-07
-2.67066e-06
1.90707e-07
-2.76946e-06
1.89005e-07
-2.86729e-06
1.87211e-07
-2.9641e-06
1.85323e-07
-3.05983e-06
1.83337e-07
-3.15443e-06
1.8125e-07
-3.24786e-06
1.79058e-07
-3.34004e-06
1.76759e-07
-3.43093e-06
1.74348e-07
-3.52046e-06
1.71822e-07
-3.60858e-06
1.69178e-07
-3.69521e-06
1.66414e-07
-3.7803e-06
1.63525e-07
-3.86377e-06
1.60508e-07
-3.94557e-06
1.5736e-07
-4.02562e-06
1.54079e-07
-4.10385e-06
1.50661e-07
-4.18019e-06
1.47102e-07
-4.25456e-06
1.43401e-07
-4.3269e-06
1.39553e-07
-4.39712e-06
1.35558e-07
-4.46515e-06
1.31411e-07
-4.5309e-06
1.27112e-07
-4.59431e-06
1.22657e-07
-4.65528e-06
1.18044e-07
-4.71375e-06
1.13272e-07
-4.76962e-06
1.0834e-07
-4.82281e-06
1.03246e-07
-4.87324e-06
9.79884e-08
-4.92083e-06
9.25676e-08
-4.96549e-06
8.69828e-08
-5.00715e-06
8.12342e-08
-5.04571e-06
7.53221e-08
-5.0811e-06
6.92474e-08
-5.11323e-06
6.30112e-08
-5.14203e-06
5.66152e-08
-5.16741e-06
5.00615e-08
-5.18929e-06
4.33526e-08
-5.20761e-06
3.64917e-08
-5.22227e-06
2.94823e-08
-5.23322e-06
2.23286e-08
-5.24038e-06
1.5035e-08
-5.24368e-06
7.60646e-09
-5.24307e-06
5.422e-11
-5.23846e-06
-7.62975e-09
-5.22982e-06
-1.54243e-08
-5.21708e-06
-2.33275e-08
-5.2002e-06
-3.13311e-08
-5.17913e-06
-3.94266e-08
-5.15382e-06
-4.7605e-08
-5.12425e-06
-5.58567e-08
-5.09037e-06
-6.41716e-08
-5.05218e-06
-7.25392e-08
-5.00963e-06
-8.09483e-08
-4.96273e-06
-8.93877e-08
-4.91146e-06
-9.78454e-08
-4.85581e-06
-1.06309e-07
-4.7958e-06
-1.14766e-07
-4.73144e-06
-1.23204e-07
-4.66273e-06
-1.3161e-07
-4.58972e-06
-1.3997e-07
-4.51241e-06
-1.48271e-07
-4.43087e-06
-1.56498e-07
-4.34512e-06
-1.6464e-07
-4.25522e-06
-1.72681e-07
-4.16123e-06
-1.80609e-07
-4.06321e-06
-1.8841e-07
-3.96124e-06
-1.9607e-07
-3.85539e-06
-2.03577e-07
-3.74575e-06
-2.10919e-07
-3.63242e-06
-2.18082e-07
-3.51548e-06
-2.25054e-07
-3.39504e-06
-2.31826e-07
-3.27121e-06
-2.38385e-07
-3.14411e-06
-2.44722e-07
-3.01384e-06
-2.50826e-07
-2.88055e-06
-2.5669e-07
-2.74435e-06
-2.62302e-07
-2.60539e-06
-2.67652e-07
-2.4638e-06
-2.72727e-07
-2.31974e-06
-2.77509e-07
-2.17339e-06
-2.81971e-07
-2.02493e-06
-2.86071e-07
-1.87459e-06
-2.89747e-07
-1.72265e-06
-2.92904e-07
-1.56947e-06
-2.954e-07
-1.41551e-06
-2.97035e-07
-1.26137e-06
-2.97526e-07
-1.10784e-06
-2.96494e-07
-9.55991e-07
-2.93441e-07
-8.07164e-07
-2.87737e-07
-6.63091e-07
-2.78615e-07
-5.25914e-07
-2.6518e-07
-3.98221e-07
-2.46445e-07
-2.83014e-07
-2.21423e-07
-1.83594e-07
-1.89308e-07
-1.03307e-07
-1.49825e-07
-4.50843e-08
-1.03888e-07
-1.07082e-08
-5.49038e-08
-1.13901e-08
-1.31339e-08
2.186e-08
-4.95173e-08
7.59713e-08
-1.06733e-07
1.30938e-07
-1.8231e-07
1.81041e-07
-2.73566e-07
2.23838e-07
-3.77745e-07
2.58689e-07
-4.92204e-07
2.85934e-07
-6.14548e-07
3.06424e-07
-7.42716e-07
3.21229e-07
-8.75005e-07
3.31453e-07
-1.01006e-06
3.38126e-07
-1.14686e-06
3.42145e-07
-1.28462e-06
3.44248e-07
-1.4228e-06
3.45012e-07
-1.56102e-06
3.44869e-07
-1.69899e-06
3.44124e-07
-1.83655e-06
3.42985e-07
-1.97357e-06
3.41586e-07
-2.10995e-06
3.40008e-07
-2.24564e-06
3.38294e-07
-2.38057e-06
3.36468e-07
-2.51469e-06
3.34536e-07
-2.64795e-06
3.32497e-07
-2.78031e-06
3.30349e-07
-2.91171e-06
3.28085e-07
-3.0421e-06
3.25698e-07
-3.17142e-06
3.23181e-07
-3.29963e-06
3.20529e-07
-3.42666e-06
3.17734e-07
-3.55244e-06
3.14792e-07
-3.67693e-06
3.11696e-07
-3.80005e-06
3.08441e-07
-3.92173e-06
3.05022e-07
-4.04191e-06
3.01433e-07
-4.16053e-06
2.97669e-07
-4.27749e-06
2.93726e-07
-4.39274e-06
2.89597e-07
-4.5062e-06
2.85277e-07
-4.61778e-06
2.80762e-07
-4.72741e-06
2.76047e-07
-4.83501e-06
2.71125e-07
-4.9405e-06
2.65993e-07
-5.04378e-06
2.60646e-07
-5.14478e-06
2.55077e-07
-5.24341e-06
2.49283e-07
-5.33956e-06
2.4326e-07
-5.43316e-06
2.37002e-07
-5.52412e-06
2.30505e-07
-5.61232e-06
2.23765e-07
-5.69769e-06
2.16778e-07
-5.78012e-06
2.09542e-07
-5.85951e-06
2.02051e-07
-5.93577e-06
1.94304e-07
-6.0088e-06
1.86298e-07
-6.07849e-06
1.78031e-07
-6.14474e-06
1.695e-07
-6.20746e-06
1.60705e-07
-6.26654e-06
1.51644e-07
-6.32187e-06
1.42318e-07
-6.37336e-06
1.32726e-07
-6.42091e-06
1.2287e-07
-6.46441e-06
1.12751e-07
-6.50377e-06
1.02371e-07
-6.53889e-06
9.17328e-08
-6.56967e-06
8.08407e-08
-6.59602e-06
6.96987e-08
-6.61784e-06
5.8312e-08
-6.63504e-06
4.66865e-08
-6.64754e-06
3.48291e-08
-6.65525e-06
2.27476e-08
-6.6581e-06
1.04506e-08
-6.65599e-06
-2.05156e-09
-6.64887e-06
-1.47521e-08
-6.63666e-06
-2.76362e-08
-6.61929e-06
-4.06928e-08
-6.59671e-06
-5.39089e-08
-6.56887e-06
-6.72708e-08
-6.53571e-06
-8.07638e-08
-6.4972e-06
-9.43722e-08
-6.45329e-06
-1.0808e-07
-6.40396e-06
-1.21869e-07
-6.34918e-06
-1.35723e-07
-6.28895e-06
-1.49622e-07
-6.22325e-06
-1.63547e-07
-6.15208e-06
-1.77479e-07
-6.07545e-06
-1.91397e-07
-5.99337e-06
-2.05281e-07
-5.90587e-06
-2.19108e-07
-5.81298e-06
-2.32858e-07
-5.71475e-06
-2.46509e-07
-5.61121e-06
-2.60039e-07
-5.50242e-06
-2.73425e-07
-5.38846e-06
-2.86646e-07
-5.26938e-06
-2.9968e-07
-5.14529e-06
-3.12505e-07
-5.01626e-06
-3.251e-07
-4.88239e-06
-3.37443e-07
-4.7438e-06
-3.49514e-07
-4.60059e-06
-3.61293e-07
-4.45288e-06
-3.72761e-07
-4.30081e-06
-3.83898e-07
-4.1445e-06
-3.94688e-07
-3.98411e-06
-4.05113e-07
-3.81978e-06
-4.15157e-07
-3.65167e-06
-4.24804e-07
-3.47993e-06
-4.34036e-07
-3.30475e-06
-4.42835e-07
-3.1263e-06
-4.51176e-07
-2.94478e-06
-4.59026e-07
-2.76042e-06
-4.66338e-07
-2.57345e-06
-4.73037e-07
-2.38418e-06
-4.79016e-07
-2.19297e-06
-4.84114e-07
-2.00028e-06
-4.88094e-07
-1.80669e-06
-4.90624e-07
-1.61297e-06
-4.91247e-07
-1.42011e-06
-4.89351e-07
-1.2294e-06
-4.84145e-07
-1.04249e-06
-4.74647e-07
-8.61438e-07
-4.59671e-07
-6.88753e-07
-4.37865e-07
-5.2743e-07
-4.07768e-07
-3.80897e-07
-3.67956e-07
-2.52909e-07
-3.17296e-07
-1.4734e-07
-2.55395e-07
-6.78886e-08
-1.83339e-07
-1.78017e-08
-1.04991e-07
-2.91917e-08
-1.76019e-08
3.94619e-08
-6.42496e-08
1.22619e-07
-1.35453e-07
2.02142e-07
-2.27529e-07
2.73116e-07
-3.37103e-07
3.33412e-07
-4.6101e-07
3.82596e-07
-5.96334e-07
4.21257e-07
-7.40467e-07
4.50558e-07
-8.91167e-07
4.71929e-07
-1.04657e-06
4.86856e-07
-1.20518e-06
4.96739e-07
-1.36585e-06
5.02808e-07
-1.52769e-06
5.06089e-07
-1.69007e-06
5.07391e-07
-1.85253e-06
5.07328e-07
-2.01474e-06
5.06341e-07
-2.17649e-06
5.04734e-07
-2.33761e-06
5.02706e-07
-2.49798e-06
5.00379e-07
-2.65752e-06
4.97826e-07
-2.81613e-06
4.95084e-07
-2.97376e-06
4.92167e-07
-3.13035e-06
4.89081e-07
-3.28582e-06
4.85821e-07
-3.44011e-06
4.82381e-07
-3.59317e-06
4.78753e-07
-3.74492e-06
4.74929e-07
-3.89529e-06
4.70901e-07
-4.04422e-06
4.66659e-07
-4.19162e-06
4.62198e-07
-4.33743e-06
4.57507e-07
-4.48157e-06
4.52582e-07
-4.62396e-06
4.47413e-07
-4.76453e-06
4.41993e-07
-4.90317e-06
4.36317e-07
-5.03982e-06
4.30375e-07
-5.17439e-06
4.24161e-07
-5.30678e-06
4.17669e-07
-5.43691e-06
4.1089e-07
-5.56468e-06
4.03818e-07
-5.69e-06
3.96446e-07
-5.81277e-06
3.88767e-07
-5.9329e-06
3.80773e-07
-6.05028e-06
3.72459e-07
-6.16482e-06
3.63818e-07
-6.2764e-06
3.54843e-07
-6.38493e-06
3.45529e-07
-6.49029e-06
3.35869e-07
-6.59238e-06
3.25858e-07
-6.6911e-06
3.15491e-07
-6.78632e-06
3.04763e-07
-6.87793e-06
2.93669e-07
-6.96584e-06
2.82205e-07
-7.04991e-06
2.70369e-07
-7.13003e-06
2.58157e-07
-7.2061e-06
2.45566e-07
-7.27799e-06
2.32597e-07
-7.34559e-06
2.19246e-07
-7.40879e-06
2.05516e-07
-7.46747e-06
1.91405e-07
-7.52152e-06
1.76916e-07
-7.57082e-06
1.62051e-07
-7.61526e-06
1.46814e-07
-7.65474e-06
1.31209e-07
-7.68914e-06
1.15242e-07
-7.71836e-06
9.89183e-08
-7.74229e-06
8.22468e-08
-7.76084e-06
6.52361e-08
-7.77391e-06
4.78961e-08
-7.7814e-06
3.02382e-08
-7.78322e-06
1.22749e-08
-7.7793e-06
-5.98005e-09
-7.76954e-06
-2.45123e-08
-7.75387e-06
-4.33049e-08
-7.73222e-06
-6.23403e-08
-7.70453e-06
-8.15999e-08
-7.67074e-06
-1.01064e-07
-7.63079e-06
-1.2071e-07
-7.58464e-06
-1.40518e-07
-7.53226e-06
-1.60462e-07
-7.47361e-06
-1.80519e-07
-7.40867e-06
-2.00662e-07
-7.33743e-06
-2.20865e-07
-7.25988e-06
-2.41101e-07
-7.17601e-06
-2.61341e-07
-7.08586e-06
-2.81555e-07
-6.98942e-06
-3.01715e-07
-6.88674e-06
-3.21789e-07
-6.77785e-06
-3.41747e-07
-6.6628e-06
-3.61558e-07
-6.54165e-06
-3.8119e-07
-6.41447e-06
-4.00611e-07
-6.28132e-06
-4.19791e-07
-6.1423e-06
-4.38698e-07
-5.99751e-06
-4.573e-07
-5.84704e-06
-4.75567e-07
-5.69102e-06
-4.93468e-07
-5.52956e-06
-5.10975e-07
-5.36279e-06
-5.28058e-07
-5.19086e-06
-5.44689e-07
-5.01392e-06
-5.60843e-07
-4.83212e-06
-5.76492e-07
-4.64562e-06
-5.91612e-07
-4.45459e-06
-6.0618e-07
-4.25923e-06
-6.20169e-07
-4.05971e-06
-6.33555e-07
-3.85624e-06
-6.46307e-07
-3.64903e-06
-6.58388e-07
-3.43831e-06
-6.69746e-07
-3.22434e-06
-6.80306e-07
-3.00742e-06
-6.8996e-07
-2.78789e-06
-6.98545e-07
-2.56618e-06
-7.05821e-07
-2.34283e-06
-7.11447e-07
-2.11851e-06
-7.14942e-07
-1.89411e-06
-7.15653e-07
-1.67074e-06
-7.12716e-07
-1.44986e-06
-7.05027e-07
-1.23328e-06
-6.91222e-07
-1.02327e-06
-6.69681e-07
-8.2257e-07
-6.38568e-07
-6.34411e-07
-5.95927e-07
-4.62505e-07
-5.39861e-07
-3.10965e-07
-4.68837e-07
-1.84193e-07
-3.82167e-07
-8.67732e-08
-2.80758e-07
-2.35173e-08
-1.68247e-07
-5.2709e-08
-2.11832e-08
6.06452e-08
-7.6387e-08
1.77823e-07
-1.59448e-07
2.85203e-07
-2.65549e-07
3.79217e-07
-3.90608e-07
4.58471e-07
-5.31031e-07
5.2302e-07
-6.83635e-07
5.73861e-07
-8.45639e-07
6.12561e-07
-1.01467e-06
6.40962e-07
-1.18877e-06
6.60953e-07
-1.36635e-06
6.74319e-07
-1.54618e-06
6.82636e-07
-1.72732e-06
6.87227e-07
-1.90907e-06
6.89144e-07
-2.09093e-06
6.8919e-07
-2.27254e-06
6.87948e-07
-2.45363e-06
6.85825e-07
-2.63401e-06
6.83092e-07
-2.81355e-06
6.79919e-07
-2.99213e-06
6.76407e-07
-3.16966e-06
6.72612e-07
-3.34605e-06
6.68559e-07
-3.52123e-06
6.64259e-07
-3.69512e-06
6.59709e-07
-3.86764e-06
6.54905e-07
-4.03873e-06
6.49836e-07
-4.20829e-06
6.44493e-07
-4.37626e-06
6.38867e-07
-4.54255e-06
6.32947e-07
-4.70707e-06
6.26724e-07
-4.86975e-06
6.20187e-07
-5.0305e-06
6.13329e-07
-5.18922e-06
6.06138e-07
-5.34584e-06
5.98606e-07
-5.50024e-06
5.90723e-07
-5.65235e-06
5.82482e-07
-5.80206e-06
5.73871e-07
-5.94927e-06
5.64883e-07
-6.09389e-06
5.55508e-07
-6.23581e-06
5.45737e-07
-6.37492e-06
5.35561e-07
-6.51113e-06
5.24971e-07
-6.64431e-06
5.13959e-07
-6.77437e-06
5.02516e-07
-6.90119e-06
4.90633e-07
-7.02465e-06
4.78303e-07
-7.14464e-06
4.65519e-07
-7.26104e-06
4.52271e-07
-7.37373e-06
4.38555e-07
-7.48261e-06
4.24362e-07
-7.58753e-06
4.09687e-07
-7.68839e-06
3.94525e-07
-7.78505e-06
3.7887e-07
-7.8774e-06
3.62719e-07
-7.96531e-06
3.46067e-07
-8.04866e-06
3.28914e-07
-8.12732e-06
3.11256e-07
-8.20116e-06
2.93093e-07
-8.27007e-06
2.74425e-07
-8.33392e-06
2.55254e-07
-8.39259e-06
2.35582e-07
-8.44595e-06
2.15413e-07
-8.49389e-06
1.94752e-07
-8.53628e-06
1.73604e-07
-8.57302e-06
1.51979e-07
-8.60399e-06
1.29884e-07
-8.62907e-06
1.0733e-07
-8.64816e-06
8.43299e-08
-8.66116e-06
6.08968e-08
-8.66797e-06
3.70461e-08
-8.66849e-06
1.27947e-08
-8.66263e-06
-1.1839e-08
-8.65031e-06
-3.68349e-08
-8.63144e-06
-6.21709e-08
-8.60596e-06
-8.78237e-08
-8.57379e-06
-1.13768e-07
-8.53488e-06
-1.39977e-07
-8.48917e-06
-1.66423e-07
-8.43661e-06
-1.93075e-07
-8.37717e-06
-2.19902e-07
-8.31082e-06
-2.46871e-07
-8.23753e-06
-2.73949e-07
-8.15729e-06
-3.01099e-07
-8.07011e-06
-3.28285e-07
-7.97598e-06
-3.5547e-07
-7.87492e-06
-3.82614e-07
-7.76696e-06
-4.09677e-07
-7.65213e-06
-4.36621e-07
-7.53047e-06
-4.63403e-07
-7.40205e-06
-4.89982e-07
-7.26692e-06
-5.16317e-07
-7.12517e-06
-5.42365e-07
-6.97687e-06
-5.68086e-07
-6.82214e-06
-5.93437e-07
-6.66106e-06
-6.18377e-07
-6.49376e-06
-6.42866e-07
-6.32036e-06
-6.66863e-07
-6.14101e-06
-6.90329e-07
-5.95584e-06
-7.13225e-07
-5.76502e-06
-7.35516e-07
-5.56869e-06
-7.57165e-07
-5.36705e-06
-7.78137e-07
-5.16026e-06
-7.98399e-07
-4.94853e-06
-8.17917e-07
-4.73204e-06
-8.36658e-07
-4.51101e-06
-8.54586e-07
-4.28565e-06
-8.71658e-07
-4.05622e-06
-8.87821e-07
-3.82297e-06
-9.03002e-07
-3.58617e-06
-9.17098e-07
-3.34618e-06
-9.29958e-07
-3.10336e-06
-9.4136e-07
-2.8582e-06
-9.50981e-07
-2.61128e-06
-9.58364e-07
-2.36335e-06
-9.62874e-07
-2.11535e-06
-9.63651e-07
-1.8685e-06
-9.59569e-07
-1.62433e-06
-9.49196e-07
-1.38477e-06
-9.30778e-07
-1.15221e-06
-9.02245e-07
-9.29515e-07
-8.61262e-07
-7.20095e-07
-8.05347e-07
-5.27882e-07
-7.32074e-07
-3.57323e-07
-6.39395e-07
-2.13358e-07
-5.26133e-07
-1.01451e-07
-3.92665e-07
-2.78067e-08
-2.41891e-07
-8.05157e-08
-2.39569e-08
8.46021e-08
-8.60282e-08
2.39894e-07
-1.78794e-07
3.77968e-07
-2.96478e-07
4.96901e-07
-4.34343e-07
5.96336e-07
-5.88372e-07
6.77049e-07
-7.5512e-07
7.40609e-07
-9.31644e-07
7.89085e-07
-1.11547e-06
8.24787e-07
-1.30456e-06
8.50043e-07
-1.49728e-06
8.67038e-07
-1.69235e-06
8.77707e-07
-1.8888e-06
8.83674e-07
-2.08589e-06
8.86238e-07
-2.2831e-06
8.86395e-07
-2.48002e-06
8.84876e-07
-2.67639e-06
8.82192e-07
-2.87198e-06
8.78687e-07
-3.06665e-06
8.74582e-07
-3.26025e-06
8.7001e-07
-3.45269e-06
8.65048e-07
-3.64386e-06
8.59732e-07
-3.83368e-06
8.54079e-07
-4.02206e-06
8.4809e-07
-4.20891e-06
8.4176e-07
-4.39416e-06
8.35081e-07
-4.57771e-06
8.28042e-07
-4.75947e-06
8.20631e-07
-4.93936e-06
8.12837e-07
-5.11729e-06
8.04648e-07
-5.29315e-06
7.96054e-07
-5.46687e-06
7.87042e-07
-5.63833e-06
7.77601e-07
-5.80744e-06
7.6772e-07
-5.97411e-06
7.57389e-07
-6.13822e-06
7.46595e-07
-6.29968e-06
7.35328e-07
-6.45837e-06
7.23576e-07
-6.61419e-06
7.11329e-07
-6.76703e-06
6.98576e-07
-6.91678e-06
6.85305e-07
-7.06331e-06
6.71507e-07
-7.20652e-06
6.57169e-07
-7.34629e-06
6.42283e-07
-7.4825e-06
6.26838e-07
-7.61502e-06
6.10824e-07
-7.74373e-06
5.94232e-07
-7.86851e-06
5.77054e-07
-7.98924e-06
5.59279e-07
-8.10578e-06
5.40902e-07
-8.21801e-06
5.21914e-07
-8.32579e-06
5.0231e-07
-8.429e-06
4.82083e-07
-8.52751e-06
4.61229e-07
-8.62119e-06
4.39744e-07
-8.7099e-06
4.17625e-07
-8.79352e-06
3.9487e-07
-8.8719e-06
3.7148e-07
-8.94493e-06
3.47454e-07
-9.01247e-06
3.22795e-07
-9.0744e-06
2.97507e-07
-9.13058e-06
2.71594e-07
-9.18089e-06
2.45063e-07
-9.22521e-06
2.17923e-07
-9.26341e-06
1.90183e-07
-9.29538e-06
1.61856e-07
-9.32101e-06
1.32955e-07
-9.34017e-06
1.03495e-07
-9.35277e-06
7.34954e-08
-9.3587e-06
4.29746e-08
-9.35786e-06
1.19544e-08
-9.35016e-06
-1.95415e-08
-9.33551e-06
-5.14873e-08
-9.31382e-06
-8.38553e-08
-9.28503e-06
-1.16615e-07
-9.24906e-06
-1.49736e-07
-9.20586e-06
-1.83182e-07
-9.15536e-06
-2.16919e-07
-9.09753e-06
-2.50909e-07
-9.03232e-06
-2.85111e-07
-8.95971e-06
-3.19484e-07
-8.87967e-06
-3.53984e-07
-8.7922e-06
-3.88568e-07
-8.6973e-06
-4.23189e-07
-8.59497e-06
-4.57798e-07
-8.48524e-06
-4.92348e-07
-8.36813e-06
-5.26788e-07
-8.24368e-06
-5.61067e-07
-8.11195e-06
-5.95135e-07
-7.97299e-06
-6.28938e-07
-7.82688e-06
-6.62424e-07
-7.67371e-06
-6.95541e-07
-7.51356e-06
-7.28237e-07
-7.34654e-06
-7.60457e-07
-7.17276e-06
-7.92152e-07
-6.99236e-06
-8.23269e-07
-6.80546e-06
-8.53758e-07
-6.61222e-06
-8.83569e-07
-6.41279e-06
-9.12655e-07
-6.20734e-06
-9.40968e-07
-5.99604e-06
-9.68463e-07
-5.77908e-06
-9.95096e-07
-5.55666e-06
-1.02082e-06
-5.32897e-06
-1.04561e-06
-5.09623e-06
-1.06939e-06
-4.85868e-06
-1.09214e-06
-4.61654e-06
-1.1138e-06
-4.37007e-06
-1.13429e-06
-4.11955e-06
-1.15352e-06
-3.8653e-06
-1.17135e-06
-3.60766e-06
-1.18759e-06
-3.34706e-06
-1.20196e-06
-3.08399e-06
-1.21405e-06
-2.81908e-06
-1.22327e-06
-2.55312e-06
-1.22884e-06
-2.28708e-06
-1.22969e-06
-2.02224e-06
-1.22441e-06
-1.76018e-06
-1.21125e-06
-1.5029e-06
-1.18806e-06
-1.25284e-06
-1.1523e-06
-1.01298e-06
-1.10112e-06
-7.86865e-07
-1.03147e-06
-5.78622e-07
-9.40316e-07
-3.93025e-07
-8.24993e-07
-2.35526e-07
-6.83632e-07
-1.12374e-07
-5.15816e-07
-3.08854e-08
-3.2338e-07
-1.11401e-07
-2.6047e-08
1.10649e-07
-9.34655e-08
3.07313e-07
-1.93939e-07
4.78442e-07
-3.20937e-07
6.23898e-07
-4.69155e-07
7.44554e-07
-6.3419e-07
8.42084e-07
-8.12346e-07
9.18765e-07
-1.00052e-06
9.77264e-07
-1.19616e-06
1.02042e-06
-1.39715e-06
1.05104e-06
-1.60183e-06
1.07172e-06
-1.8089e-06
1.08478e-06
-2.01736e-06
1.09213e-06
-2.22647e-06
1.09534e-06
-2.43566e-06
1.09559e-06
-2.64455e-06
1.09376e-06
-2.85283e-06
1.09047e-06
-3.06028e-06
1.08614e-06
-3.26673e-06
1.08103e-06
-3.47203e-06
1.07531e-06
-3.67607e-06
1.06909e-06
-3.87874e-06
1.0624e-06
-4.07995e-06
1.05528e-06
-4.27959e-06
1.04773e-06
-4.47758e-06
1.03975e-06
-4.67382e-06
1.03132e-06
-4.86821e-06
1.02244e-06
-5.06067e-06
1.01309e-06
-5.25109e-06
1.00326e-06
-5.43939e-06
9.92941e-07
-5.62545e-06
9.82115e-07
-5.80918e-06
9.70771e-07
-5.99047e-06
9.58895e-07
-6.16923e-06
9.46474e-07
-6.34533e-06
9.33495e-07
-6.51868e-06
9.19945e-07
-6.68917e-06
9.05811e-07
-6.85667e-06
8.91081e-07
-7.02108e-06
8.7574e-07
-7.18228e-06
8.59777e-07
-7.34015e-06
8.43178e-07
-7.49458e-06
8.25931e-07
-7.64543e-06
8.08024e-07
-7.79259e-06
7.89444e-07
-7.93594e-06
7.7018e-07
-8.07533e-06
7.5022e-07
-8.21065e-06
7.29553e-07
-8.34177e-06
7.0817e-07
-8.46855e-06
6.86059e-07
-8.59086e-06
6.63214e-07
-8.70857e-06
6.39624e-07
-8.82154e-06
6.15283e-07
-8.92964e-06
5.90185e-07
-9.03274e-06
5.64324e-07
-9.13069e-06
5.37695e-07
-9.22336e-06
5.10297e-07
-9.31062e-06
4.82127e-07
-9.39232e-06
4.53185e-07
-9.46834e-06
4.23473e-07
-9.53854e-06
3.92993e-07
-9.60279e-06
3.61751e-07
-9.66094e-06
3.29753e-07
-9.71289e-06
2.97008e-07
-9.75849e-06
2.63526e-07
-9.79763e-06
2.2932e-07
-9.83018e-06
1.94405e-07
-9.85602e-06
1.58798e-07
-9.87505e-06
1.22518e-07
-9.88714e-06
8.5587e-08
-9.89219e-06
4.80292e-08
-9.89011e-06
9.87137e-09
-9.88079e-06
-2.88575e-08
-9.86416e-06
-6.81258e-08
-9.84011e-06
-1.07899e-07
-9.80859e-06
-1.48141e-07
-9.76951e-06
-1.88813e-07
-9.72282e-06
-2.29872e-07
-9.66846e-06
-2.71276e-07
-9.60639e-06
-3.12977e-07
-9.53658e-06
-3.54928e-07
-9.45898e-06
-3.97077e-07
-9.37359e-06
-4.39372e-07
-9.2804e-06
-4.81758e-07
-9.17941e-06
-5.24179e-07
-9.07064e-06
-5.66577e-07
-8.95409e-06
-6.08893e-07
-8.82981e-06
-6.51066e-07
-8.69785e-06
-6.93033e-07
-8.55825e-06
-7.34733e-07
-8.41108e-06
-7.76102e-07
-8.25643e-06
-8.17077e-07
-8.09438e-06
-8.57593e-07
-7.92503e-06
-8.97587e-07
-7.74849e-06
-9.36994e-07
-7.56489e-06
-9.75753e-07
-7.37436e-06
-1.0138e-06
-7.17704e-06
-1.05108e-06
-6.97309e-06
-1.08752e-06
-6.76268e-06
-1.12307e-06
-6.54597e-06
-1.15767e-06
-6.32316e-06
-1.19127e-06
-6.09444e-06
-1.22382e-06
-5.86002e-06
-1.25525e-06
-5.6201e-06
-1.28552e-06
-5.37493e-06
-1.31457e-06
-5.12473e-06
-1.34234e-06
-4.86976e-06
-1.36877e-06
-4.61029e-06
-1.39376e-06
-4.34661e-06
-1.4172e-06
-4.07905e-06
-1.43891e-06
-3.80797e-06
-1.45867e-06
-3.53382e-06
-1.47611e-06
-3.25712e-06
-1.49075e-06
-2.97851e-06
-1.50188e-06
-2.6988e-06
-1.50856e-06
-2.41899e-06
-1.50949e-06
-2.14039e-06
-1.50302e-06
-1.8646e-06
-1.48704e-06
-1.59366e-06
-1.459e-06
-1.33007e-06
-1.41589e-06
-1.07689e-06
-1.3543e-06
-8.37758e-07
-1.27059e-06
-6.17024e-07
-1.16105e-06
-4.19755e-07
-1.02226e-06
-2.51861e-07
-8.51526e-07
-1.20238e-07
-6.47439e-07
-3.30187e-08
-4.10599e-07
-1.4442e-07
-2.75831e-08
1.38232e-07
-9.90566e-08
3.78786e-07
-2.05494e-07
5.8488e-07
-3.39797e-07
7.58201e-07
-4.96203e-07
9.00961e-07
-6.69976e-07
1.01586e-06
-8.5719e-07
1.10598e-06
-1.0546e-06
1.17467e-06
-1.25955e-06
1.22537e-06
-1.46989e-06
1.26138e-06
-1.68393e-06
1.28576e-06
-1.90035e-06
1.30119e-06
-2.11814e-06
1.30992e-06
-2.33655e-06
1.31375e-06
-2.55502e-06
1.31407e-06
-2.77315e-06
1.31189e-06
-2.99062e-06
1.30794e-06
-3.2072e-06
1.30272e-06
-3.42272e-06
1.29655e-06
-3.63703e-06
1.28962e-06
-3.85e-06
1.28206e-06
-4.06152e-06
1.27392e-06
-4.27148e-06
1.26524e-06
-4.47978e-06
1.25603e-06
-4.68632e-06
1.24629e-06
-4.891e-06
1.236e-06
-5.09373e-06
1.22516e-06
-5.29439e-06
1.21376e-06
-5.4929e-06
1.20177e-06
-5.68914e-06
1.18918e-06
-5.88302e-06
1.17599e-06
-6.07442e-06
1.16217e-06
-6.26324e-06
1.14771e-06
-6.44937e-06
1.1326e-06
-6.6327e-06
1.11682e-06
-6.81311e-06
1.10036e-06
-6.99048e-06
1.08319e-06
-7.16472e-06
1.06531e-06
-7.33568e-06
1.0467e-06
-7.50325e-06
1.02735e-06
-7.66732e-06
1.00724e-06
-7.82775e-06
9.86362e-07
-7.98442e-06
9.64694e-07
-8.1372e-06
9.42225e-07
-8.28597e-06
9.18943e-07
-8.43058e-06
8.94834e-07
-8.57091e-06
8.69885e-07
-8.70683e-06
8.44086e-07
-8.83819e-06
8.17425e-07
-8.96487e-06
7.89892e-07
-9.08673e-06
7.61478e-07
-9.20362e-06
7.32174e-07
-9.3154e-06
7.01974e-07
-9.42195e-06
6.70871e-07
-9.52312e-06
6.38861e-07
-9.61876e-06
6.05942e-07
-9.70875e-06
5.72112e-07
-9.79293e-06
5.3737e-07
-9.87118e-06
5.0172e-07
-9.94335e-06
4.65165e-07
-1.00093e-05
4.27712e-07
-1.00689e-05
3.89368e-07
-1.01221e-05
3.50145e-07
-1.01686e-05
3.10055e-07
-1.02084e-05
2.69113e-07
-1.02413e-05
2.27338e-07
-1.02673e-05
1.8475e-07
-1.02861e-05
1.41373e-07
-1.02978e-05
9.7232e-08
-1.03021e-05
5.23569e-08
-1.0299e-05
6.7792e-09
-1.02884e-05
-3.94663e-08
-1.02702e-05
-8.63418e-08
-1.02443e-05
-1.33807e-07
-1.02106e-05
-1.81817e-07
-1.01691e-05
-2.30327e-07
-1.01197e-05
-2.79287e-07
-1.00623e-05
-3.28645e-07
-9.99693e-06
-3.78345e-07
-9.92353e-06
-4.2833e-07
-9.84207e-06
-4.78541e-07
-9.75252e-06
-5.28914e-07
-9.6549e-06
-5.79385e-07
-9.54919e-06
-6.29888e-07
-9.43541e-06
-6.80353e-07
-9.3136e-06
-7.3071e-07
-9.18378e-06
-7.80887e-07
-9.046e-06
-8.30812e-07
-8.90032e-06
-8.8041e-07
-8.74682e-06
-9.29606e-07
-8.58557e-06
-9.78326e-07
-8.41667e-06
-1.02649e-06
-8.24022e-06
-1.07403e-06
-8.05635e-06
-1.12087e-06
-7.86517e-06
-1.16693e-06
-7.66684e-06
-1.21214e-06
-7.4615e-06
-1.25642e-06
-7.24931e-06
-1.29971e-06
-7.03044e-06
-1.34194e-06
-6.80508e-06
-1.38303e-06
-6.57343e-06
-1.42293e-06
-6.33568e-06
-1.46157e-06
-6.09205e-06
-1.49888e-06
-5.84276e-06
-1.5348e-06
-5.58805e-06
-1.56928e-06
-5.32817e-06
-1.60222e-06
-5.06338e-06
-1.63356e-06
-4.79396e-06
-1.66318e-06
-4.52021e-06
-1.69095e-06
-4.24248e-06
-1.71665e-06
-3.96114e-06
-1.74001e-06
-3.67664e-06
-1.76061e-06
-3.38951e-06
-1.77787e-06
-3.10042e-06
-1.79098e-06
-2.81018e-06
-1.7988e-06
-2.51982e-06
-1.79986e-06
-2.23063e-06
-1.79221e-06
-1.94426e-06
-1.77341e-06
-1.66277e-06
-1.7405e-06
-1.38869e-06
-1.68996e-06
-1.12516e-06
-1.61784e-06
-8.75944e-07
-1.51981e-06
-6.45559e-07
-1.39144e-06
-4.39353e-07
-1.22847e-06
-2.6362e-07
-1.02726e-06
-1.25755e-07
-7.85305e-07
-3.44532e-08
-5.01901e-07
-1.78873e-07
-2.86853e-08
1.66917e-07
-1.03162e-07
4.53263e-07
-2.14108e-07
6.95827e-07
-3.54017e-07