/*--------------------------------*- C++ -*----------------------------------*\
| =========                 |                                                 |
| \\      /  F ield         | OpenFOAM: The Open Source CFD Toolbox           |
|  \\    /   O peration     | Version:  2406                                  |
|   \\  /    A nd           | Website:  www.openfoam.com                      |
|    \\/     M anipulation  |                                                 |
\*---------------------------------------------------------------------------*/
FoamFile
{
    version     2.0;
    format      ascii;
    arch        "LSB;label=32;scalar=64";
    class       surfaceScalarField;
    location    "13.4";
    object      phi;
}
// * * * * * * * * * * * * * * * * * * * * * * * * * * * * * * * * * * * * * //

dimensions      [0 3 -1 0 0 0 0];

oriented        oriented;

internalField   nonuniform List<scalar> 
7080
(
2.62376e-08
-2.64359e-08
-4.01523e-08
6.98182e-08
-2.07202e-07
1.67314e-07
-4.5846e-07
2.5579e-07
-7.66745e-07
3.10422e-07
-1.10957e-06
3.4793e-07
-1.47434e-06
3.68233e-07
-1.85324e-06
3.84149e-07
-2.24576e-06
3.96788e-07
-2.65195e-06
4.11551e-07
-3.07439e-06
4.27278e-07
-3.51382e-06
4.44969e-07
-3.97105e-06
4.62553e-07
-4.44473e-06
4.79441e-07
-4.93277e-06
4.93703e-07
-5.43124e-06
5.04377e-07
-5.93533e-06
5.09871e-07
-6.43866e-06
5.09158e-07
-6.93393e-06
5.00866e-07
-7.41245e-06
4.83928e-07
-7.86452e-06
4.57082e-07
-8.27922e-06
4.19256e-07
-8.64461e-06
3.69328e-07
-8.9478e-06
3.06411e-07
-9.17526e-06
2.29798e-07
-9.31314e-06
1.39227e-07
-9.34788e-06
3.49493e-08
-9.26688e-06
-8.20204e-08
-9.05941e-06
-2.09803e-07
-8.71763e-06
-3.45493e-07
-8.23759e-06
-4.85149e-07
-7.62023e-06
-6.23825e-07
-6.87221e-06
-7.55775e-07
-6.00637e-06
-8.74756e-07
-5.04178e-06
-9.74475e-07
-4.0033e-06
-1.04912e-06
-2.92051e-06
-1.09391e-06
-1.82617e-06
-1.10564e-06
-7.5426e-07
-1.08309e-06
2.62168e-07
-1.02721e-06
1.19322e-06
-9.41096e-07
2.01388e-06
-8.29799e-07
2.7056e-06
-6.99653e-07
3.25674e-06
-5.57858e-07
3.66299e-06
-4.11468e-07
3.92619e-06
-2.67173e-07
4.054e-06
-1.30177e-07
4.0574e-06
-4.73701e-09
3.95059e-06
1.07115e-07
3.7476e-06
2.03818e-07
3.46395e-06
2.8626e-07
3.11211e-06
3.54181e-07
2.70664e-06
4.10038e-07
2.25753e-06
4.52094e-07
1.78133e-06
4.82446e-07
1.29078e-06
4.92925e-07
8.16418e-07
4.81945e-07
3.93168e-07
4.23171e-07
9.36286e-08
3.08018e-07
9.35785e-08
-7.00806e-08
4.02993e-08
-3.5795e-07
3.58292e-07
-8.60301e-07
6.62967e-07
-1.54022e-06
9.32581e-07
-2.35361e-06
1.11545e-06
-3.25568e-06
1.24394e-06
-4.21947e-06
1.32285e-06
-5.22507e-06
1.382e-06
-6.26675e-06
1.42889e-06
-7.34074e-06
1.47672e-06
-8.44853e-06
1.52509e-06
-9.589e-06
1.57573e-06
-1.0761e-05
1.62408e-06
-1.19594e-05
1.66745e-06
-1.31773e-05
1.70072e-06
-1.44041e-05
1.7203e-06
-1.5627e-05
1.72169e-06
-1.683e-05
1.70145e-06
-1.79955e-05
1.65573e-06
-1.9103e-05
1.58136e-06
-2.01304e-05
1.47501e-06
-2.10535e-05
1.33384e-06
-2.18468e-05
1.15516e-06
-2.24833e-05
9.36986e-07
-2.2936e-05
6.78061e-07
-2.31777e-05
3.78448e-07
-2.3183e-05
3.98128e-08
-2.29291e-05
-3.34009e-07
-2.23977e-05
-7.36717e-07
-2.1577e-05
-1.15923e-06
-2.04628e-05
-1.58968e-06
-1.90607e-05
-2.01363e-06
-1.73873e-05
-2.41461e-06
-1.54702e-05
-2.77503e-06
-1.33486e-05
-3.07731e-06
-1.10724e-05
-3.30531e-06
-8.69959e-06
-3.44574e-06
-6.29439e-06
-3.48956e-06
-3.92342e-06
-3.433e-06
-1.65217e-06
-3.27824e-06
4.58945e-07
-3.03331e-06
2.35776e-06
-2.71157e-06
4.00335e-06
-2.33033e-06
5.36729e-06
-1.90942e-06
6.43467e-06
-1.46896e-06
7.20267e-06
-1.02813e-06
7.68006e-06
-6.02875e-07
7.88327e-06
-2.06094e-07
7.83604e-06
1.54388e-07
7.56384e-06
4.73323e-07
7.09609e-06
7.50423e-07
6.45911e-06
9.84726e-07
5.68408e-06
1.17913e-06
4.79702e-06
1.32977e-06
3.83664e-06
1.43624e-06
2.83738e-06
1.48065e-06
1.8638e-06
1.45083e-06
9.79857e-07
1.2943e-06
3.10864e-07
9.77268e-07
3.96036e-07
-1.95549e-07
2.34514e-07
-7.46717e-07
9.16747e-07
-1.61268e-06
1.52781e-06
-2.7192e-06
2.04648e-06
-4.01e-06
2.40894e-06
-5.42279e-06
2.66431e-06
-6.92302e-06
2.82804e-06
-8.4818e-06
2.94847e-06
-1.00893e-05
3.04267e-06
-1.17371e-05
3.13238e-06
-1.34239e-05
3.21898e-06
-1.51446e-05
3.30457e-06
-1.68944e-05
3.38181e-06
-1.86636e-05
3.4451e-06
-2.044e-05
3.48543e-06
-2.22069e-05
3.49589e-06
-2.39452e-05
3.46854e-06
-2.56324e-05
3.39715e-06
-2.72438e-05
3.27528e-06
-2.87521e-05
3.0976e-06
-3.01286e-05
2.85884e-06
-3.13427e-05
2.55457e-06
-3.23627e-05
2.18077e-06
-3.31557e-05
1.73464e-06
-3.36891e-05
1.21474e-06
-3.39308e-05
6.21959e-07
-3.3851e-05
-3.99187e-08
-3.34234e-05
-7.63306e-07
-3.26276e-05
-1.53626e-06
-3.14506e-05
-2.34198e-06
-2.98892e-05
-3.15883e-06
-2.79519e-05
-3.9607e-06
-2.56603e-05
-4.718e-06
-2.30496e-05
-5.39912e-06
-2.01693e-05
-5.97245e-06
-1.70817e-05
-6.40877e-06
-1.38603e-05
-6.68371e-06
-1.05864e-05
-6.78026e-06
-7.34541e-06
-6.69061e-06
-4.22209e-06
-6.4175e-06
-1.29597e-06
-5.97424e-06
1.36303e-06
-5.384e-06
3.69854e-06
-4.67747e-06
5.66972e-06
-3.8904e-06
7.25292e-06
-3.05976e-06
8.44021e-06
-2.22113e-06
9.23893e-06
-1.40498e-06
9.66703e-06
-6.36015e-07
9.75248e-06
6.94449e-08
9.52653e-06
7.00683e-07
9.02614e-06
1.25465e-06
8.28557e-06
1.72896e-06
7.34588e-06
2.12543e-06
6.24282e-06
2.43747e-06
5.02868e-06
2.65933e-06
3.75007e-06
2.76299e-06
2.49184e-06
2.72016e-06
1.33242e-06
2.45326e-06
4.37974e-07
1.88479e-06
8.33711e-07
-3.39752e-07
5.68933e-07
-1.18573e-06
1.76875e-06
-2.44021e-06
2.77383e-06
-3.98024e-06
3.58799e-06
-5.73682e-06
4.1587e-06
-7.63216e-06
4.55796e-06
-9.62838e-06
4.81807e-06
-1.16898e-05
5.00643e-06
-1.38039e-05
5.15085e-06
-1.59571e-05
5.28108e-06
-1.81443e-05
5.40027e-06
-2.03554e-05
5.51044e-06
-2.25809e-05
5.60131e-06
-2.48057e-05
5.66419e-06
-2.70127e-05
5.68633e-06
-2.91805e-05
5.6577e-06
-3.12856e-05
5.56755e-06
-3.3302e-05
5.40757e-06
-3.52021e-05
5.16958e-06
-3.6957e-05
4.84704e-06
-3.85368e-05
4.43351e-06
-3.99104e-05
3.92358e-06
-4.10459e-05
3.31224e-06
-4.19103e-05
2.59588e-06
-4.24704e-05
1.77266e-06
-4.26935e-05
8.43802e-07
-4.2548e-05
-1.8543e-07
-4.20057e-05
-1.30438e-06
-4.10433e-05
-2.49612e-06
-3.96447e-05
-3.73658e-06
-3.78036e-05
-4.99455e-06
-3.55257e-05
-6.23194e-06
-3.28306e-05
-7.40515e-06
-2.97536e-05
-8.467e-06
-2.63464e-05
-9.36955e-06
-2.26769e-05
-1.00676e-05
-1.8827e-05
-1.05223e-05
-1.48905e-05
-1.07054e-05
-1.09678e-05
-1.06021e-05
-7.16121e-06
-1.02132e-05
-3.56864e-06
-9.55665e-06
-2.77822e-07
-8.66563e-06
2.63904e-06
-7.5862e-06
5.12839e-06
-6.37301e-06
7.15785e-06
-5.08369e-06
8.71483e-06
-3.77421e-06
9.80593e-06
-2.49326e-06
1.04514e-05
-1.28042e-06
1.06839e-05
-1.62695e-07
1.05407e-05
8.42387e-07
1.00656e-05
1.72835e-06
9.29952e-06
2.49118e-06
8.29111e-06
3.13151e-06
7.08256e-06
3.64006e-06
5.7348e-06
4.00516e-06
4.30078e-06
4.18879e-06
2.87703e-06
4.1446e-06
1.55053e-06
3.76827e-06
5.1499e-07
2.92623e-06
1.34086e-06
-4.79923e-07
1.0443e-06
-1.62512e-06
2.92564e-06
-3.2744e-06
4.41649e-06
-5.24872e-06
5.57024e-06
-7.46227e-06
6.37056e-06
-9.82002e-06
6.92158e-06
-1.22816e-05
7.28061e-06
-1.48054e-05
7.53515e-06
-1.73772e-05
7.72506e-06
-1.99786e-05
7.88706e-06
-2.2601e-05
8.02585e-06
-2.52288e-05
8.14265e-06
-2.7848e-05
8.22435e-06
-3.04388e-05
8.25936e-06
-3.29804e-05
8.23201e-06
-3.54485e-05
8.13025e-06
-3.78188e-05
7.94202e-06
-4.00655e-05
7.65856e-06
-4.21636e-05
7.27169e-06
-4.40877e-05
6.77499e-06
-4.58126e-05
6.16191e-06
-4.73122e-05
5.42636e-06
-4.85593e-05
4.562e-06
-4.95247e-05
3.56338e-06
-5.01771e-05
2.42654e-06
-5.04835e-05
1.15084e-06
-5.04095e-05
-2.59582e-07
-4.99212e-05
-1.79376e-06
-4.89869e-05
-3.43246e-06
-4.75798e-05
-5.14676e-06
-4.56808e-05
-6.89751e-06
-4.32823e-05
-8.63539e-06
-4.03912e-05
-1.03021e-05
-3.70323e-05
-1.18325e-05
-3.32505e-05
-1.31586e-05
-2.91124e-05
-1.42135e-05
-2.47053e-05
-1.49374e-05
-2.01354e-05
-1.52835e-05
-1.55222e-05
-1.52232e-05
-1.09928e-05
-1.47503e-05
-6.6727e-06
-1.3884e-05
-2.67769e-06
-1.26672e-05
8.9444e-07
-1.1164e-05
3.96958e-06
-9.45305e-06
6.50156e-06
-7.61943e-06
8.47118e-06
-5.74686e-06
9.88524e-06
-3.90904e-06
1.07694e-05
-2.16584e-06
1.11655e-05
-5.5853e-07
1.11212e-05
8.86861e-07
1.06914e-05
2.16022e-06
9.92675e-06
3.25687e-06
8.88464e-06
4.17754e-06
7.61371e-06
4.91188e-06
6.18179e-06
5.44302e-06
4.6463e-06
5.72348e-06
3.11268e-06
5.68702e-06
1.67627e-06
5.19927e-06
5.53156e-07
4.06232e-06
1.89069e-06
-6.19523e-07
1.65601e-06
-2.06169e-06
4.37999e-06
-4.09965e-06
6.44281e-06
-6.49684e-06
7.97319e-06
-9.1488e-06
9.01552e-06
-1.1943e-05
9.71741e-06
-1.48368e-05
1.01695e-05
-1.77833e-05
1.04811e-05
-2.07669e-05
1.07048e-05
-2.37648e-05
1.08832e-05
-2.67646e-05
1.10222e-05
-2.97459e-05
1.11216e-05
-3.2691e-05
1.11661e-05
-3.55763e-05
1.11419e-05
-3.83801e-05
1.10325e-05
-4.10785e-05
1.08258e-05
-4.36509e-05
1.05112e-05
-4.60775e-05
1.00822e-05
-4.83419e-05
9.53315e-06
-5.04291e-05
8.85951e-06
-5.23252e-05
8.05542e-06
-5.40149e-05
7.11382e-06
-5.54803e-05
6.02549e-06
-5.66988e-05
4.78038e-06
-5.76419e-05
3.36863e-06
-5.82746e-05
1.78303e-06
-5.85554e-05
2.13268e-08
-5.84376e-05
-1.91092e-06
-5.78709e-05
-3.99785e-06
-5.68049e-05
-6.21087e-06
-5.51929e-05
-8.50698e-06
-5.29972e-05
-1.08279e-05
-5.01948e-05
-1.31007e-05
-4.67837e-05
-1.52394e-05
-4.27881e-05
-1.71496e-05
-3.8263e-05
-1.87337e-05
-3.32961e-05
-1.98993e-05
-2.80067e-05
-2.05677e-05
-2.25412e-05
-2.06834e-05
-1.70647e-05
-2.02219e-05
-1.17488e-05
-1.91951e-05
-6.75875e-06
-1.76529e-05
-2.23957e-06
-1.56792e-05
1.69493e-06
-1.33843e-05
4.97025e-06
-1.08919e-05
7.55201e-06
-8.32666e-06
9.44475e-06
-5.80012e-06
1.06824e-05
-3.40297e-06
1.13224e-05
-1.1979e-06
1.14314e-05
7.76973e-07
1.10839e-05
2.50758e-06
1.0348e-05
3.99049e-06
9.29569e-06
5.2297e-06
7.98624e-06
6.21728e-06
6.49611e-06
6.93413e-06
4.8882e-06
7.32496e-06
3.2756e-06
7.30364e-06
1.76164e-06
6.70248e-06
5.78247e-07
5.25509e-06
2.46157e-06
-7.50908e-07
2.39909e-06
-2.47604e-06
6.12169e-06
-4.88429e-06
8.83943e-06
-7.68266e-06
1.07813e-05
-1.07473e-05
1.20752e-05
-1.39478e-05
1.29238e-05
-1.72392e-05
1.34594e-05
-2.0569e-05
1.38148e-05
-2.39206e-05
1.40567e-05
-2.72669e-05
1.42325e-05
-3.05927e-05
1.43492e-05
-3.38736e-05
1.44051e-05
-3.70898e-05
1.43839e-05
-4.0217e-05
1.42716e-05
-4.3236e-05
1.40534e-05
-4.6129e-05
1.37212e-05
-4.88855e-05
1.32697e-05
-5.14996e-05
1.26985e-05
-5.39719e-05
1.20074e-05
-5.63063e-05
1.11958e-05
-5.8508e-05
1.02588e-05
-6.05792e-05
9.1865e-06
-6.2516e-05
7.96345e-06
-6.43045e-05
6.56979e-06
-6.59184e-05
4.98306e-06
-6.73168e-05
3.18153e-06
-6.84433e-05
1.14748e-06
-6.92265e-05
-1.12856e-06
-6.95819e-05
-3.64378e-06
-6.94157e-05
-6.37881e-06
-6.86311e-05
-9.294e-06
-6.71353e-05
-1.23265e-05
-6.48502e-05
-1.5389e-05
-6.17225e-05
-1.83708e-05
-5.77344e-05
-2.11417e-05
-5.2913e-05
-2.35593e-05
-4.73367e-05
-2.54799e-05
-4.11373e-05
-2.67716e-05
-3.44961e-05
-2.7329e-05
-2.76344e-05
-2.70878e-05
-2.07975e-05
-2.60359e-05
-1.42346e-05
-2.42195e-05
-8.17509e-06
-2.17417e-05
-2.80913e-06
-1.87529e-05
1.72978e-06
-1.54328e-05
5.37064e-06
-1.19692e-05
8.10516e-06
-8.53546e-06
9.97527e-06
-5.27397e-06
1.10619e-05
-2.28421e-06
1.14635e-05
3.74995e-07
1.12892e-05
2.68335e-06
1.06384e-05
4.64103e-06
9.61021e-06
6.2607e-06
8.28356e-06
7.54298e-06
6.75004e-06
8.47236e-06
5.08236e-06
8.98958e-06
3.40345e-06
8.99051e-06
1.82559e-06
8.27243e-06
5.94955e-07
6.49872e-06
3.05148e-06
-8.7599e-07
3.26484e-06
-2.86772e-06
8.13122e-06
-5.62254e-06
1.15791e-05
-8.79424e-06
1.39623e-05
-1.22402e-05
1.55131e-05
-1.58132e-05
1.65008e-05
-1.94656e-05
1.71071e-05
-2.31398e-05
1.74903e-05
-2.68184e-05
1.77321e-05
-3.04702e-05
1.78842e-05
-3.40783e-05
1.79549e-05
-3.76159e-05
1.79419e-05
-4.10638e-05
1.78298e-05
-4.44015e-05
1.7608e-05
-4.7618e-05
1.72681e-05
-5.07095e-05
1.68113e-05
-5.36848e-05
1.62433e-05
-5.65628e-05
1.5575e-05
-5.93724e-05
1.48155e-05
-6.21473e-05
1.39694e-05
-6.49212e-05
1.30314e-05
-6.77214e-05
1.19856e-05
-7.05627e-05
1.08039e-05
-7.34417e-05
9.44799e-06
-7.63314e-05
7.87231e-06
-7.91781e-05
6.02794e-06
-8.18982e-05
3.86757e-06
-8.43782e-05
1.35164e-06
-8.64763e-05
-1.54514e-06
-8.80281e-05
-4.8262e-06
-8.88551e-05
-8.4659e-06
-8.87772e-05
-1.24029e-05
-8.76284e-05
-1.65362e-05
-8.52733e-05
-2.07241e-05
-8.16249e-05
-2.4788e-05
-7.66605e-05
-2.85216e-05
-7.04334e-05
-3.17049e-05
-6.30801e-05
-3.41227e-05
-5.48201e-05
-3.55871e-05
-4.59463e-05
-3.59598e-05
-3.68066e-05
-3.51738e-05
-2.77762e-05
-3.32484e-05
-1.92223e-05
-3.02942e-05
-1.14688e-05
-2.65053e-05
-4.76306e-06
-2.21373e-05
7.42576e-07
-1.74742e-05
4.99842e-06
-1.27904e-05
8.04351e-06
-8.31899e-06
9.98718e-06
-4.22724e-06
1.0976e-05
-6.14555e-07
1.11754e-05
2.48452e-06
1.07396e-05
5.07503e-06
9.81549e-06
7.18588e-06
8.51892e-06
8.83628e-06
6.96914e-06
1.00246e-05
5.25744e-06
1.06955e-05
3.52176e-06
1.0732e-05
1.88627e-06
9.89733e-06
6.11925e-07
7.78442e-06
3.65624e-06
-9.91488e-07
4.24565e-06
-3.22943e-06
1.03903e-05
-6.30318e-06
1.46369e-05
-9.81706e-06
1.74881e-05
-1.3611e-05
1.92996e-05
-1.75221e-05
2.04183e-05
-2.15002e-05
2.1082e-05
-2.54828e-05
2.14766e-05
-2.94519e-05
2.17001e-05
-3.33733e-05
2.18081e-05
-3.72299e-05
2.18114e-05
-4.09951e-05
2.17089e-05
-4.4655e-05
2.14902e-05
-4.81986e-05
2.11532e-05
-5.16327e-05
2.0703e-05
-5.49779e-05
2.01578e-05
-5.82762e-05
1.95425e-05
-6.15852e-05
1.88852e-05
-6.49765e-05
1.82077e-05
-6.85264e-05
1.75203e-05
-7.23083e-05
1.6814e-05
-7.63817e-05
1.60597e-05
-8.07839e-05
1.52065e-05
-8.55202e-05
1.41845e-05
-9.05564e-05
1.29086e-05
-9.58124e-05
1.12838e-05
-0.000101157
9.21211e-06
-0.000106408
6.60212e-06
-0.000111334
3.37993e-06
-0.000115663
-4.97785e-07
-0.000119099
-5.03071e-06
-0.00012134
-1.01634e-05
-0.000122099
-1.57778e-05
-0.000121134
-2.16909e-05
-0.000118263
-2.76596e-05
-0.000113394
-3.3392e-05
-0.000106535
-3.85648e-05
-9.7812e-05
-4.28473e-05
-8.74702e-05
-4.59306e-05
-7.58726e-05
-4.75592e-05
-6.34832e-05
-4.75652e-05
-5.08367e-05
-4.5897e-05
-3.84937e-05
-4.26392e-05
-2.69861e-05
-3.80149e-05
-1.6759e-05
-3.23658e-05
-8.12574e-06
-2.61088e-05
-1.24028e-06
-1.96764e-05
3.89689e-06
-1.3457e-05
7.41452e-06
-7.74455e-06
9.52108e-06
-2.72177e-06
1.04666e-05
1.5402e-06
1.04941e-05
5.04668e-06
9.83092e-06
7.85142e-06
8.65831e-06
1.0007e-05
7.145e-06
1.15422e-05
5.41651e-06
1.24197e-05
3.63636e-06
1.252e-05
1.94712e-06
1.15772e-05
6.29298e-07
9.1156e-06
4.27942e-06
-1.09861e-06
5.33183e-06
-3.56267e-06
1.28769e-05
-6.92758e-06
1.79834e-05
-1.07525e-05
2.13251e-05
-1.48616e-05
2.33992e-05
-1.90779e-05
2.46404e-05
-2.33493e-05
2.53483e-05
-2.76089e-05
2.57388e-05
-3.18387e-05
2.59268e-05
-3.60029e-05
2.59732e-05
-4.00864e-05
2.58929e-05
-4.40674e-05
2.56899e-05
-4.79432e-05
2.53646e-05
-5.17221e-05
2.49317e-05
-5.54405e-05
2.44202e-05
-5.91596e-05
2.38763e-05
-6.29713e-05
2.33532e-05
-6.699e-05
2.29031e-05
-7.13463e-05
2.25632e-05
-7.6173e-05
2.23463e-05
-8.15924e-05
2.22327e-05
-8.77011e-05
2.21678e-05
-9.45569e-05
2.20618e-05
-0.000102165
2.17927e-05
-0.000110468
2.12113e-05
-0.000119333
2.01483e-05
-0.000128546
1.84257e-05
-0.000137816
1.58723e-05
-0.000146778
1.23431e-05
-0.000155015
7.7411e-06
-0.000162082
2.03836e-06
-0.000167533
-4.70874e-06
-0.000170957
-1.23512e-05
-0.000171996
-2.06477e-05
-0.000170378
-2.92735e-05
-0.000165932
-3.78342e-05
-0.000158605
-4.58869e-05
-0.000148484
-5.29647e-05
-0.000135802
-5.86082e-05
-0.000120955
-6.24037e-05
-0.000104491
-6.40267e-05
-8.70969e-05
-6.32893e-05
-6.95524e-05
-6.01825e-05
-5.26633e-05
-5.49036e-05
-3.71742e-05
-4.78547e-05
-2.3681e-05
-3.96023e-05
-1.25589e-05
-3.07983e-05
-3.93716e-06
-2.20793e-05
2.28554e-06
-1.39668e-05
6.37455e-06
-6.81164e-06
8.69093e-06
-7.7529e-07
9.60957e-06
4.1264e-06
9.48595e-06
7.97672e-06
8.6094e-06
1.08805e-05
7.23294e-06
1.29221e-05
5.54192e-06
1.41051e-05
3.74318e-06
1.43257e-05
2.0094e-06
1.33e-05
6.48832e-07
1.0489e-05
4.92095e-06
-1.19619e-06
6.51502e-06
-3.86591e-06
1.55718e-05
-7.49475e-06
2.15928e-05
-1.16009e-05
2.54452e-05
-1.59945e-05
2.77836e-05
-2.04865e-05
2.91395e-05
-2.5023e-05
2.98805e-05
-2.95342e-05
3.02538e-05
-3.40027e-05
3.03934e-05
-3.83936e-05
3.03664e-05
-4.26974e-05
3.0196e-05
-4.69027e-05
2.98968e-05
-5.10277e-05
2.94895e-05
-5.51129e-05
2.9018e-05
-5.92417e-05
2.85493e-05
-6.35353e-05
2.81708e-05
-6.81567e-05
2.79751e-05
-7.32964e-05
2.80436e-05
-7.91602e-05
2.84274e-05
-8.59474e-05
2.91341e-05
-9.38333e-05
3.01189e-05
-0.000102947
3.12818e-05
-0.000113353
3.24682e-05
-0.000125032
3.34721e-05
-0.000137864
3.40429e-05
-0.000151613
3.38978e-05
-0.000165928
3.27418e-05
-0.000180351
3.02969e-05
-0.000194342
2.63356e-05
-0.000207314
2.07148e-05
-0.000218674
1.3401e-05
-0.000227863
4.48289e-06
-0.000234382
-5.82922e-06
-0.000237812
-1.72143e-05
-0.000237825
-2.92568e-05
-0.000234192
-4.14637e-05
-0.000226793
-5.32824e-05
-0.000215633
-6.412e-05
-0.00020087
-7.33673e-05
-0.000182837
-8.04329e-05
-0.000162071
-8.479e-05
-0.00013932
-8.60375e-05
-0.000115531
-8.39702e-05
-9.17877e-05
-7.86458e-05
-6.92131e-05
-7.04292e-05
-4.88293e-05
-5.99868e-05
-3.14145e-05
-4.82136e-05
-1.74013e-05
-3.60936e-05
-6.84273e-06
-2.45252e-05
5.24628e-07
-1.418e-05
5.17599e-06
-5.42552e-06
7.66192e-06
1.63908e-06
8.52669e-06
7.11427e-06
8.22889e-06
1.11757e-05
7.15756e-06
1.39977e-05
5.59751e-06
1.566e-05
3.82701e-06
1.61042e-05
2.0677e-06
1.50488e-05
6.68907e-07
1.19018e-05
5.58293e-06
-1.28529e-06
7.78599e-06
-4.14165e-06
1.84546e-05
-8.00926e-06
2.54391e-05
-1.23695e-05
2.98198e-05
-1.70206e-05
3.24239e-05
-2.17628e-05
3.38887e-05
-2.65419e-05
3.4654e-05
-3.1286e-05
3.50012e-05
-3.59804e-05
3.50847e-05
-4.05938e-05
3.49813e-05
-4.51276e-05
3.47279e-05
-4.95898e-05
3.43594e-05
-5.4032e-05
3.39305e-05
-5.85449e-05
3.35308e-05
-6.32799e-05
3.32834e-05
-6.84419e-05
3.33325e-05
-7.42871e-05
3.38193e-05
-8.10991e-05
3.48553e-05
-8.91689e-05
3.64966e-05
-9.87637e-05
3.87285e-05
-0.000110101
4.14559e-05
-0.00012332
4.45004e-05
-0.000138452
4.76007e-05
-0.000155397
5.04172e-05
-0.000173898
5.25442e-05
-0.000193535
5.35364e-05
-0.000213741
5.29501e-05
-0.000233838
5.03963e-05
-0.000253093
4.55937e-05
-0.000270783
3.84076e-05
-0.000286244
2.88648e-05
-0.000298903
1.7146e-05
-0.000308291
3.5617e-06
-0.000314028
-1.14749e-05
-0.00031581
-2.74719e-05
-0.000313396
-4.3874e-05
-0.000306605
-6.007e-05
-0.000295325
-7.53961e-05
-0.000279546
-8.91413e-05
-0.00025941
-0.000100564
-0.000235268
-0.000108926
-0.000207744
-0.000113556
-0.00017777
-0.000113938
-0.000146587
-0.000109825
-0.000115661
-0.000101352
-8.6537e-05
-8.91095e-05
-6.06069e-05
-7.41429e-05
-3.88839e-05
-5.78172e-05
-2.18371e-05
-4.15717e-05
-9.38198e-06
-2.66363e-05
-9.97274e-07
-1.38092e-05
4.06242e-06
-3.42245e-06
6.59659e-06
4.58217e-06
7.31318e-06
1.0456e-05
6.81047e-06
1.45044e-05
5.53088e-06
1.69337e-05
3.86616e-06
1.77767e-05
2.11564e-06
1.67879e-05
6.89027e-07
1.33424e-05
6.26436e-06
-1.36564e-06
9.13676e-06
-4.39049e-06
2.15079e-05
-8.47365e-06
2.95e-05
-1.30636e-05
3.44255e-05
-1.79485e-05
3.7298e-05
-2.292e-05
3.88683e-05
-2.79246e-05
3.96533e-05
-3.28898e-05
3.99707e-05
-3.78062e-05
3.99986e-05
-4.26505e-05
3.98281e-05
-4.74426e-05
3.95188e-05
-5.22213e-05
3.91396e-05
-5.70891e-05
3.8798e-05
-6.22086e-05
3.86514e-05
-6.78246e-05
3.88995e-05
-7.42492e-05
3.97579e-05
-8.18494e-05
4.14199e-05
-9.10113e-05
4.40179e-05
-0.000102107
4.75926e-05
-0.000115453
5.20752e-05
-0.000131275
5.72777e-05
-0.000149662
6.28886e-05
-0.000170534
6.84733e-05
-0.000193601
7.34852e-05
-0.000218354
7.72982e-05
-0.000244082
7.9266e-05
-0.000269934
7.88038e-05
-0.000295009
7.5473e-05
-0.000318455
6.90396e-05
-0.00033954
5.94921e-05
-0.000357693
4.70172e-05
-0.000372503
3.19528e-05
-0.00038368
1.47348e-05
-0.000391015
-4.14436e-06
-0.000394331
-2.41617e-05
-0.000393441
-4.47693e-05
-0.000388131
-6.53856e-05
-0.000378157
-8.53748e-05
-0.000363277
-0.000104025
-0.00034331
-0.000120532
-0.000318227
-0.000134008
-0.000288263
-0.000143517
-0.000254034
-0.000148164
-0.000216624
-0.00014723
-0.000177611
-0.00014036
-0.000138963
-0.000127753
-0.0001028
-0.000110303
-7.1029e-05
-8.95879e-05
-4.49589e-05
-6.76411e-05
-2.50705e-05
-4.65261e-05
-1.10312e-05
-2.78474e-05
-1.96702e-06
-1.24885e-05
3.22409e-06
-6.06515e-07
5.5946e-06
8.08238e-06
6.05062e-06
1.40529e-05
5.27469e-06
1.77039e-05
3.83315e-06
1.92266e-05
2.14492e-06
1.84647e-05
7.08025e-07
1.4794e-05
6.96489e-06
-1.43802e-06
1.05589e-05
-4.61461e-06
2.47141e-05
-8.8923e-06
3.37539e-05
-1.36906e-05
3.924e-05
-1.87893e-05
4.23849e-05
-2.39736e-05
4.40605e-05
-2.91917e-05
4.48653e-05
-3.43732e-05
4.51561e-05
-3.9517e-05
4.51391e-05
-4.46141e-05
4.49269e-05
-4.97123e-05
4.46151e-05
-5.48974e-05
4.43254e-05
-6.03436e-05
4.42429e-05
-6.63106e-05
4.46184e-05
-7.31611e-05
4.5749e-05
-8.13331e-05
4.79296e-05
-9.13118e-05
5.13978e-05
-0.000103576
5.62822e-05
-0.000118553
6.25687e-05
-0.000136558
7.008e-05
-0.000157745
7.84651e-05
-0.000182049
8.71922e-05
-0.000209131
9.55562e-05
-0.000238361
0.000102716
-0.00026884
0.000107779
-0.000299493
0.00010992
-0.000329207
0.000108518
-0.00035698
0.000103244
-0.000382028
9.4084e-05
-0.00040383
8.1289e-05
-0.000422114
6.52945e-05
-0.000436798
4.66292e-05
-0.000447917
2.58444e-05
-0.00045554
3.4677e-06
-0.000459699
-2.00134e-05
-0.000460337
-4.41437e-05
-0.000457262
-6.8472e-05
-0.000450141
-9.25088e-05
-0.000438503
-0.000115675
-0.000421797
-0.000137249
-0.000399484
-0.00015633
-0.000371176
-0.000171832
-0.00033682
-0.000182522
-0.000296902
-0.000187147
-0.000252616
-0.000184642
-0.000205936
-0.000174428
-0.000159497
-0.000156738
-0.000116219
-0.000132863
-7.87137e-05
-0.000105144
-4.86668e-05
-7.65737e-05
-2.64859e-05
-5.0027e-05
-1.14576e-05
-2.75192e-05
-2.21828e-06
-9.8434e-06
2.71942e-06
3.14107e-06
4.6947e-06
1.2082e-05
4.74414e-06
1.76483e-05
3.69556e-06
2.02835e-05
2.1476e-06
2.00008e-05
7.26091e-07
1.62302e-05
7.68315e-06
-1.50216e-06
1.20447e-05
-4.8143e-06
2.80575e-05
-9.26689e-06
3.8182e-05
-1.42542e-05
4.42444e-05
-1.95495e-05
4.76684e-05
-2.49334e-05
4.94532e-05
-3.03576e-05
5.02836e-05
-3.57564e-05
5.05595e-05
-4.11413e-05
5.05212e-05
-4.65257e-05
5.03139e-05
-5.19985e-05
5.00867e-05
-5.77109e-05
5.00395e-05
-6.39332e-05
5.04648e-05
-7.10469e-05
5.17334e-05
-7.9552e-05
5.42543e-05
-9.00182e-05
5.83967e-05
-0.000103035
6.44153e-05
-0.000119139
7.23872e-05
-0.000138747
8.21768e-05
-0.000162078
9.34118e-05
-0.000189081
0.000105469
-0.00021936
0.000117472
-0.000252136
0.000128333
-0.00028628
0.000136861
-0.000320439
0.000141936
-0.000353237
0.000142715
-0.00038349
0.000138767
-0.000410354
0.000130103
-0.000433378
0.000117101
-0.000452469
0.000100372
-0.000467806
8.06236e-05
-0.000479733
5.85484e-05
-0.000488654
3.4758e-05
-0.000494944
9.75066e-06
-0.000498876
-1.60883e-05
-0.000500564
-4.24629e-05
-0.000499918
-6.91262e-05
-0.000496612
-9.58251e-05
-0.000490066
-0.000122232
-0.000479461
-0.000147866
-0.000463797
-0.000172009
-0.000442005
-0.000193638
-0.000413152
-0.000211388
-0.000376708
-0.0002236
-0.000332876
-0.00022848
-0.000282893
-0.000224411
-0.000229201
-0.000210426
-0.000175312
-0.000186748
-0.000125241
-0.00015521
-8.25485e-05
-0.000119265
-4.93273e-05
-8.32458e-05
-2.57731e-05
-5.10757e-05
-1.05727e-05
-2.50411e-05
-1.78644e-06
-5.64909e-06
2.5e-06
7.80033e-06
3.82944e-06
1.63125e-05
3.41305e-06
2.07085e-05
2.11458e-06
2.12873e-05
7.43772e-07
1.7616e-05
8.41921e-06
-1.55828e-06
1.35858e-05
-4.99024e-06
3.15216e-05
-9.59916e-06
4.27652e-05
-1.47578e-05
4.94205e-05
-2.02347e-05
5.31326e-05
-2.58079e-05
5.5035e-05
-3.14344e-05
5.59035e-05
-3.70567e-05
5.6186e-05
-4.27047e-05
5.61656e-05
-4.84238e-05
5.6035e-05
-5.43599e-05
5.60205e-05
-6.07509e-05
5.64313e-05
-6.79867e-05
5.7699e-05
-7.65904e-05
6.0337e-05
-8.72047e-05
6.48673e-05
-0.000100515
7.17066e-05
-0.000117173
8.10724e-05
-0.000137698
9.2912e-05
-0.000162388
0.000106866
-0.000191212
0.000122236
-0.000223722
0.000137979
-0.000258985
0.000152735
-0.000295619
0.000164967
-0.000331959
0.000173199
-0.000366329
0.000176303
-0.000397335
0.000173717
-0.000424063
0.000165491
-0.000446139
0.000152175
-0.000463661
0.00013462
-0.000477074
0.000113784
-0.000487022
9.05712e-05
-0.000494216
6.57452e-05
-0.000499341
3.98873e-05
-0.000502983
1.33985e-05
-0.000505587
-1.34779e-05
-0.00050742
-4.0622e-05
-0.000508543
-6.7996e-05
-0.000508767
-9.55955e-05
-0.000507606
-0.000123388
-0.000504239
-0.000151231
-0.000497486
-0.000178764
-0.000485844
-0.000205286
-0.000467611
-0.000229631
-0.000441135
-0.000250089
-0.000405203
-0.000264424
-0.000359542
-0.000270083
-0.000305333
-0.000264641
-0.00024555
-0.00024653
-0.000184842
-0.000215914
-0.000128681
-0.000175424
-8.18095e-05
-0.000130113
-4.66846e-05
-8.62019e-05
-2.29821e-05
-4.87404e-05
-8.57583e-06
-2.00598e-05
-8.6882e-07
9.80844e-08
2.37933e-06
1.30577e-05
2.93036e-06
2.0166e-05
2.03356e-06
2.2172e-05
7.62024e-07
1.89022e-05
9.17355e-06
-1.60545e-06
1.51738e-05
-5.14079e-06
3.50902e-05
-9.88728e-06
4.74855e-05
-1.51999e-05
5.47515e-05
-2.08443e-05
5.87643e-05
-2.65977e-05
6.07978e-05
-3.24247e-05
6.17243e-05
-3.82799e-05
6.20462e-05
-4.42185e-05
6.21013e-05
-5.03301e-05
6.21494e-05
-5.68345e-05
6.25237e-05
-6.40783e-05
6.3677e-05
-7.25897e-05
6.62102e-05
-8.30406e-05
7.07894e-05
-9.62009e-05
7.8028e-05
-0.000112826
8.83331e-05
-0.00013355
0.000101797
-0.000158759
0.000118122
-0.000188469
0.000136577
-0.000222203
0.000155971
-0.000258902
0.000174678
-0.000296949
0.000190782
-0.000334368
0.000202384
-0.000369168
0.000207997
-0.000399735
0.000206867
-0.000425084
0.000199063
-0.000444923
0.00018533
-0.000459554
0.000166807
-0.000469681
0.000144751
-0.000476214
0.000120321
-0.000480097
9.44614e-05
-0.000482204
6.78615e-05
-0.000483282
4.09745e-05
-0.000483928
1.4056e-05
-0.000484604
-1.27906e-05
-0.000485637
-3.95771e-05
-0.000487218
-6.64017e-05
-0.000489374
-9.34258e-05
-0.000491906
-0.000120842
-0.000494303
-0.00014882
-0.000495637
-0.000177418
-0.000494477
-0.000206436
-0.000488868
-0.000235235
-0.00047643
-0.000262527
-0.000454655
-0.000286205
-0.00042143
-0.000303319
-0.000375776
-0.000310307
-0.00031868
-0.000303636
-0.000253717
-0.000280879
-0.00018698
-0.00024216
-0.0001258
-0.000191286
-7.62884e-05
-0.000135713
-4.09627e-05
-8.40611e-05
-1.85485e-05
-4.24784e-05
-5.88407e-06
-1.25616e-05
1.76743e-07
6.98998e-06
2.16539e-06
1.81857e-05
1.88381e-06
2.24418e-05
7.80405e-07
2.00198e-05
9.94671e-06
-1.64321e-06
1.67989e-05
-5.26453e-06
3.87454e-05
-1.01291e-05
5.23228e-05
-1.5578e-05
6.02189e-05
-2.13757e-05
6.45485e-05
-2.73007e-05
6.67318e-05
-3.33275e-05
6.77441e-05
-3.94275e-05
6.81505e-05
-4.56892e-05
6.83591e-05
-5.22593e-05
6.87215e-05
-5.94494e-05
6.97112e-05
-6.77317e-05
7.19599e-05
-7.77818e-05
7.62583e-05
-9.04069e-05
8.34143e-05
-0.00010646
9.40796e-05
-0.000126688
0.00010856
-0.00015159
0.000126698
-0.00018126
0.000147792
-0.000215243
0.00017056
-0.000252414
0.000193141
-0.000290982
0.000213245
-0.000328703
0.0002285
-0.00036329
0.000236968
-0.000392899
0.000237604
-0.000416467
0.000230435
-0.000433792
0.000216389
-0.000445388
0.000196928
-0.000452224
0.000173648
-0.000455455
0.000147988
-0.000456206
0.000121079
-0.000455443
9.37036e-05
-0.000453919
6.6343e-05
-0.000452191
3.92518e-05
-0.000450664
1.25335e-05
-0.000449646
-1.38042e-05
-0.000449399
-3.98198e-05
-0.000450164
-6.56322e-05
-0.000452155
-9.14289e-05
-0.000455515
-0.000117476
-0.000460215
-0.000144111
-0.000465916
-0.000171705
-0.000471786
-0.000200554
-0.000476315
-0.000230693
-0.000477205
-0.000261625
-0.000471417
-0.000291985
-0.000455484
-0.00031925
-0.000426196
-0.000339599
-0.00038164
-0.000348201
-0.000322478
-0.000340053
-0.000252986
-0.00031166
-0.000181093
-0.000263178
-0.000116422
-0.000200383
-6.63804e-05
-0.000134094
-3.2909e-05
-7.59527e-05
-1.32015e-05
-3.22642e-05
-3.09118e-06
-3.12753e-06
9.93932e-07
1.41082e-05
1.62945e-06
2.17951e-05
7.95254e-07
2.08669e-05
1.07354e-05
-1.66961e-06
1.84503e-05
-5.35712e-06
4.24677e-05
-1.0318e-05
5.72564e-05
-1.58838e-05
6.58039e-05
-2.18189e-05
7.04704e-05
-2.79053e-05
7.28281e-05
-3.41297e-05
7.39621e-05
-4.04853e-05
7.45114e-05
-4.71027e-05
7.49734e-05
-5.41985e-05
7.58205e-05
-6.21906e-05
7.77022e-05
-7.16866e-05
8.14582e-05
-8.35009e-05
8.80726e-05
-9.85388e-05
9.84541e-05
-0.000117663
0.000113204
-0.000141499
0.000132398
-0.000170266
0.000155467
-0.000203593
0.00018112
-0.000240376
0.000207344
-0.000278752
0.000231517
-0.000316289
0.00025078
-0.000350441
0.000262651
-0.000379129
0.000265656
-0.000401179
0.000259655
-0.000416452
0.00024571
-0.000425666
0.000225607
-0.00043006
0.000201326
-0.000431035
0.000174626
-0.000429877
0.000146833
-0.000427597
0.000118801
-0.000424886
9.09935e-05
-0.000422152
6.36088e-05
-0.000419602
3.67013e-05
-0.00041734
1.0269e-05
-0.000415446
-1.57009e-05
-0.000414045
-4.12239e-05
-0.000413344
-6.63359e-05
-0.000413648
-9.11286e-05
-0.000415335
-0.000115791
-0.0004188
-0.000140648
-0.000424326
-0.000166179
-0.000431896
-0.000192982
-0.000440927
-0.000221656
-0.000449982
-0.000252561
-0.000456535
-0.000285421
-0.000456928
-0.000318846
-0.000446694
-0.000349825
-0.000421384
-0.00037351
-0.000377998
-0.000383444
-0.00031682
-0.00037285
-0.00024308
-0.000336927
-0.000167065
-0.000276402
-0.000101047
-0.000200105
-5.31834e-05
-0.000123813
-2.36872e-05
-6.17543e-05
-7.85811e-06
-1.89639e-05
-7.65665e-07
7.02205e-06
1.21275e-06
1.98069e-05
7.97271e-07
2.1293e-05
1.15274e-05
-1.68361e-06
2.01152e-05
-5.41516e-06
4.6234e-05
-1.0448e-05
6.22612e-05
-1.61088e-05
7.14835e-05
-2.21632e-05
7.65107e-05
-2.83985e-05
7.90727e-05
-3.48161e-05
8.03722e-05
-4.14364e-05
8.11361e-05
-4.844e-05
8.19727e-05
-5.61246e-05
8.3507e-05
-6.50228e-05
8.65976e-05
-7.58739e-05
9.23096e-05
-8.96017e-05
0.000101798
-0.000107145
0.000115997
-0.000129277
0.000135334
-0.000156374
0.000159494
-0.000188222
0.000187313
-0.000223839
0.000216736
-0.00026141
0.000244913
-0.000298431
0.000268535
-0.000332165
0.000284511
-0.000360283
0.000290768
-0.000381437
0.000286811
-0.000395477
0.000273697
-0.000403277
0.000253512
-0.000406326
0.000228658
-0.000406272
0.000201274
-0.000404567
0.000172923
-0.000402265
0.000144531
-0.000399977
0.000116511
-0.000397937
8.8952e-05
-0.000396127
6.17971e-05
-0.000394405
3.49766e-05
-0.000392609
8.47092e-06
-0.000390638
-1.76747e-05
-0.000388496
-4.33681e-05