/*--------------------------------*- C++ -*----------------------------------*\
| =========                 |                                                 |
| \\      /  F ield         | OpenFOAM: The Open Source CFD Toolbox           |
|  \\    /   O peration     | Version:  2406                                  |
|   \\  /    A nd           | Website:  www.openfoam.com                      |
|    \\/     M anipulation  |                                                 |
\*---------------------------------------------------------------------------*/
FoamFile
{
    version     2.0;
    format      ascii;
    arch        "LSB;label=32;scalar=64";
    class       volVectorField;
    location    "13.4";
    object      U;
}
// * * * * * * * * * * * * * * * * * * * * * * * * * * * * * * * * * * * * * //

dimensions      [0 1 -1 0 0 0 0];

internalField   nonuniform List<vector> 
3600
(
(1.42072e-05 -1.31192e-05 0)
(4.70476e-06 6.86147e-06 0)
(-6.74665e-05 2.77117e-05 0)
(-0.0001936 4.64563e-05 0)
(-0.000365172 5.66892e-05 0)
(-0.000560269 6.3352e-05 0)
(-0.000774612 6.61954e-05 0)
(-0.000996843 6.85786e-05 0)
(-0.00122911 7.04287e-05 0)
(-0.00146789 7.30989e-05 0)
(-0.00171687 7.60945e-05 0)
(-0.00197494 7.97158e-05 0)
(-0.00224427 8.33923e-05 0)
(-0.00252344 8.70711e-05 0)
(-0.00281236 9.02959e-05 0)
(-0.00310851 9.29267e-05 0)
(-0.0034098 9.46175e-05 0)
(-0.00371246 9.5197e-05 0)
(-0.0040127 9.43736e-05 0)
(-0.00430548 9.19447e-05 0)
(-0.00458547 8.76325e-05 0)
(-0.00484633 8.12074e-05 0)
(-0.00508131 7.24031e-05 0)
(-0.00528287 6.10013e-05 0)
(-0.00544312 4.6802e-05 0)
(-0.00555376 2.96946e-05 0)
(-0.00560656 9.6654e-06 0)
(-0.00559357 -1.31376e-05 0)
(-0.00550776 -3.83824e-05 0)
(-0.00534346 -6.55072e-05 0)
(-0.00509705 -9.37138e-05 0)
(-0.00476756 -0.000121966 0)
(-0.00435723 -0.000149031 0)
(-0.00387187 -0.000173545 0)
(-0.00332107 -0.000194114 0)
(-0.00271807 -0.000209437 0)
(-0.00207931 -0.00021844 0)
(-0.00142359 -0.000220406 0)
(-0.000771158 -0.000215063 0)
(-0.000142218 -0.000202652 0)
(0.000444104 -0.000183891 0)
(0.000971318 -0.000159946 0)
(0.00142612 -0.000132251 0)
(0.00179964 -0.000102431 0)
(0.00208683 -7.2026e-05 0)
(0.0022874 -4.2499e-05 0)
(0.00240378 -1.4906e-05 0)
(0.00244242 9.86767e-06 0)
(0.00240994 3.15315e-05 0)
(0.00231636 4.97891e-05 0)
(0.00216862 6.50555e-05 0)
(0.00197792 7.72693e-05 0)
(0.00174852 8.7296e-05 0)
(0.001493 9.46427e-05 0)
(0.00121196 0.000100277 0)
(0.000923761 0.000101956 0)
(0.000627756 9.98667e-05 0)
(0.00036017 8.6348e-05 0)
(0.000129954 5.96388e-05 0)
(8.9422e-06 9.18017e-06 0)
(-4.7538e-06 -5.5551e-06 0)
(-0.000108608 0.000107138 0)
(-0.00035224 0.000217915 0)
(-0.000706562 0.00031747 0)
(-0.00116172 0.000382386 0)
(-0.00167619 0.000427677 0)
(-0.00224004 0.000454175 0)
(-0.00282983 0.000474432 0)
(-0.00344573 0.000490532 0)
(-0.00407929 0.000507901 0)
(-0.00473463 0.000525888 0)
(-0.0054085 0.000545355 0)
(-0.00610296 0.000564331 0)
(-0.00681416 0.000581973 0)
(-0.00754001 0.000596255 0)
(-0.00827409 0.000605956 0)
(-0.00901021 0.000609347 0)
(-0.00973913 0.000605192 0)
(-0.0104512 0.000592005 0)
(-0.0111346 0.000568583 0)
(-0.0117769 0.000533593 0)
(-0.0123639 0.000485898 0)
(-0.0128808 0.000424367 0)
(-0.0133118 0.000348131 0)
(-0.0136406 0.000256565 0)
(-0.013851 0.000149541 0)
(-0.0139269 2.7524e-05 0)
(-0.0138539 -0.000108188 0)
(-0.0136195 -0.000255351 0)
(-0.0132145 -0.000410624 0)
(-0.012634 -0.000569572 0)
(-0.0118783 -0.000726717 0)
(-0.010954 -0.000875764 0)
(-0.00987433 -0.00100993 0)
(-0.00865939 -0.00112242 0)
(-0.00733594 -0.00120696 0)
(-0.00593656 -0.00125842 0)
(-0.00449814 -0.00127331 0)
(-0.00306024 -0.00125024 0)
(-0.00166272 -0.00119015 0)
(-0.000343744 -0.00109626 0)
(0.00086284 -0.000973879 0)
(0.00192872 -0.000829762 0)
(0.00283331 -0.000671632 0)
(0.00356318 -0.000507191 0)
(0.00411372 -0.000343766 0)
(0.00448604 -0.000187265 0)
(0.00468903 -4.24872e-05 0)
(0.00473337 8.79266e-05 0)
(0.00463619 0.000202119 0)
(0.00441105 0.000300469 0)
(0.00407893 0.000382664 0)
(0.00365124 0.000450526 0)
(0.00315304 0.000502404 0)
(0.00259239 0.000539259 0)
(0.00200622 0.000553335 0)
(0.00140262 0.000541384 0)
(0.000848284 0.000479495 0)
(0.000359389 0.000356869 0)
(5.98081e-05 0.000130183 0)
(-3.08372e-05 7.25963e-05 0)
(-0.000251109 0.000362606 0)
(-0.00069108 0.000632143 0)
(-0.00128038 0.000866211 0)
(-0.00201027 0.00102831 0)
(-0.00282046 0.00114248 0)
(-0.00370017 0.00121449 0)
(-0.00461654 0.00126785 0)
(-0.00556899 0.00130991 0)
(-0.00654434 0.00135121 0)
(-0.00754601 0.00139206 0)
(-0.00856771 0.00143365 0)
(-0.00961006 0.00147239 0)
(-0.0106661 0.00150583 0)
(-0.0117312 0.0015297 0)
(-0.0127953 0.00154085 0)
(-0.0138486 0.00153553 0)
(-0.0148779 0.00151078 0)
(-0.0158695 0.00146347 0)
(-0.0168075 0.00139099 0)
(-0.0176752 0.00129068 0)
(-0.0184547 0.0011603 0)
(-0.0191274 0.000997781 0)
(-0.0196738 0.000801643 0)
(-0.0200742 0.000571041 0)
(-0.020309 0.000306238 0)
(-0.0203598 8.85676e-06 0)
(-0.0202094 -0.000317674 0)
(-0.0198436 -0.000667873 0)
(-0.0192524 -0.00103396 0)
(-0.0184308 -0.00140586 0)
(-0.0173801 -0.0017714 0)
(-0.0161093 -0.00211675 0)
(-0.0146354 -0.00242716 0)
(-0.0129839 -0.00268793 0)
(-0.0111884 -0.00288549 0)
(-0.00928978 -0.00300863 0)
(-0.00733481 -0.00304963 0)
(-0.00537384 -0.00300514 0)
(-0.00345821 -0.00287669 0)
(-0.0016377 -0.00267075 0)
(4.27201e-05 -0.0023983 0)
(0.00154468 -0.0020737 0)
(0.00283923 -0.00171356 0)
(0.00390653 -0.00133489 0)
(0.00473787 -0.000954019 0)
(0.00533231 -0.000584742 0)
(0.00569899 -0.000238233 0)
(0.00585013 7.83516e-05 0)
(0.00580623 0.000360307 0)
(0.00558442 0.000606681 0)
(0.00521102 0.000816534 0)
(0.00470175 0.000991323 0)
(0.00408904 0.00112796 0)
(0.00338568 0.00122462 0)
(0.00263965 0.0012675 0)
(0.00186358 0.00124445 0)
(0.00114273 0.00111649 0)
(0.000495451 0.000851238 0)
(8.88216e-05 0.000365093 0)
(-6.07187e-05 0.000229617 0)
(-0.000413736 0.000781237 0)
(-0.00106919 0.00125832 0)
(-0.00190258 0.0016539 0)
(-0.00290618 0.00193127 0)
(-0.00399943 0.00212624 0)
(-0.00517442 0.0022525 0)
(-0.00638977 0.00234471 0)
(-0.00764593 0.00241616 0)
(-0.00892474 0.00248234 0)
(-0.0102288 0.00254461 0)
(-0.0115479 0.00260426 0)
(-0.0128806 0.002656 0)
(-0.0142163 0.00269557 0)
(-0.0155478 0.00271643 0)
(-0.0168616 0.00271347 0)
(-0.0181456 0.00268102 0)
(-0.0193838 0.00261464 0)
(-0.020561 0.00250987 0)
(-0.0216597 0.00236308 0)
(-0.0226625 0.00217068 0)
(-0.0235508 0.00192969 0)
(-0.024306 0.00163739 0)
(-0.0249084 0.00129189 0)
(-0.0253383 0.000892261 0)
(-0.0255757 0.000439215 0)
(-0.0256013 -6.44417e-05 0)
(-0.0253969 -0.000613143 0)
(-0.024947 -0.00119814 0)
(-0.0242396 -0.00180713 0)
(-0.0232678 -0.00242423 0)
(-0.0220312 -0.00303025 0)
(-0.0205373 -0.00360333 0)
(-0.0188024 -0.00412004 0)
(-0.0168527 -0.00455679 0)
(-0.014724 -0.00489156 0)
(-0.0124615 -0.00510582 0)
(-0.0101181 -0.00518628 0)
(-0.00775258 -0.00512647 0)
(-0.00542609 -0.00492776 0)
(-0.00319928 -0.0045995 0)
(-0.00112807 -0.00415856 0)
(0.000738934 -0.00362774 0)
(0.00236418 -0.0030338 0)
(0.00372128 -0.00240471 0)
(0.00479762 -0.00176751 0)
(0.00559056 -0.00114556 0)
(0.00610993 -0.000557844 0)
(0.00636991 -1.71547e-05 0)
(0.00639456 0.00046814 0)
(0.00620447 0.00089523 0)
(0.0058307 0.00126215 0)
(0.00529231 0.00156965 0)
(0.00462727 0.0018129 0)
(0.0038509 0.00198674 0)
(0.00301858 0.00207135 0)
(0.00214398 0.00204463 0)
(0.00132462 0.00185219 0)
(0.000579225 0.00143155 0)
(0.000105549 0.000646358 0)
(-8.86027e-05 0.00047414 0)
(-0.000574559 0.00138667 0)
(-0.0014498 0.00212933 0)
(-0.00252951 0.00271732 0)
(-0.00380491 0.00312801 0)
(-0.00517228 0.00341337 0)
(-0.00662742 0.00359964 0)
(-0.00812024 0.00373323 0)
(-0.0096534 0.00383439 0)
(-0.0112038 0.00392319 0)
(-0.0127736 0.00400202 0)
(-0.0143484 0.00407192 0)
(-0.0159248 0.00412586 0)
(-0.0174886 0.00415769 0)
(-0.0190305 0.0041588 0)
(-0.0205349 0.00412243 0)
(-0.0219886 0.00404157 0)
(-0.0233754 0.00391093 0)
(-0.0246809 0.00372543 0)
(-0.0258893 0.00348103 0)
(-0.026986 0.00317377 0)
(-0.0279553 0.00280015 0)
(-0.0287814 0.00235682 0)
(-0.0294474 0.00184118 0)
(-0.0299352 0.00125168 0)
(-0.0302254 0.000588731 0)
(-0.0302977 -0.000144568 0)
(-0.0301316 -0.000941427 0)
(-0.0297071 -0.00179068 0)
(-0.0290064 -0.00267616 0)
(-0.0280157 -0.00357651 0)
(-0.0267266 -0.00446539 0)
(-0.0251386 -0.00531218 0)
(-0.0232611 -0.00608339 0)
(-0.0211147 -0.00674446 0)
(-0.0187329 -0.00726229 0)
(-0.016162 -0.00760793 0)
(-0.0134602 -0.00775941 0)
(-0.0106959 -0.00770438 0)
(-0.00794337 -0.00744191 0)
(-0.00527926 -0.00698327 0)
(-0.00277642 -0.00635154 0)
(-0.000499799 -0.0055795 0)
(0.00149909 -0.00470676 0)
(0.00318344 -0.00377553 0)
(0.00453456 -0.00282711 0)
(0.00554789 -0.00189763 0)
(0.00623521 -0.00101647 0)
(0.006615 -0.000203826 0)
(0.00671766 0.000527346 0)
(0.00656992 0.00117205 0)
(0.00620967 0.00172755 0)
(0.00566072 0.00219409 0)
(0.00496679 0.0025656 0)
(0.00414546 0.00283336 0)
(0.00325788 0.00297164 0)
(0.00231806 0.00294672 0)
(0.00143351 0.00268727 0)
(0.000624552 0.00209428 0)
(0.000112284 0.000969246 0)
(-0.000116263 0.000799452 0)
(-0.000734663 0.00216863 0)
(-0.00182718 0.00322794 0)
(-0.00314813 0.00403007 0)
(-0.00468646 0.00458171 0)
(-0.0063145 0.00495753 0)
(-0.0080321 0.00520129 0)
(-0.00978045 0.00537183 0)
(-0.011565 0.00549686 0)
(-0.0133576 0.00560021 0)
(-0.0151603 0.00568507 0)
(-0.0169545 0.00575179 0)
(-0.0187351 0.00579178 0)
(-0.0204851 0.00579737 0)
(-0.0221942 0.00575868 0)
(-0.0238461 0.00566834 0)
(-0.0254293 0.00551928 0)
(-0.02693 0.00530671 0)
(-0.0283387 0.00502624 0)
(-0.0296451 0.00467447 0)
(-0.0308412 0.00424764 0)
(-0.031918 0.00374185 0)
(-0.0328661 0.00315262 0)
(-0.0336731 0.00247557 0)
(-0.034324 0.00170692 0)
(-0.0347996 0.000844773 0)
(-0.035077 -0.000109817 0)
(-0.0351296 -0.00115136 0)
(-0.0349282 -0.00226881 0)
(-0.0344421 -0.00344443 0)
(-0.033642 -0.00465321 0)
(-0.0325021 -0.00586267 0)
(-0.0310038 -0.00703341 0)
(-0.0291391 -0.00812048 0)
(-0.0269142 -0.00907563 0)
(-0.0243527 -0.0098505 0)
(-0.0214972 -0.0104005 0)
(-0.0184102 -0.0106893 0)
(-0.0151718 -0.0106929 0)
(-0.0118762 -0.0104032 0)
(-0.00862544 -0.00983037 0)
(-0.00552158 -0.00900257 0)
(-0.00265897 -0.00796399 0)
(-0.000115502 -0.00677057 0)
(0.00205129 -0.00548388 0)
(0.00380969 -0.00416513 0)
(0.00514992 -0.00286863 0)
(0.00608595 -0.00163853 0)
(0.00664348 -0.000505305 0)
(0.00686386 0.000512148 0)
(0.00678523 0.00140662 0)
(0.00645725 0.00217548 0)
(0.00591268 0.00281987 0)
(0.00520381 0.00333397 0)
(0.00435248 0.00370671 0)
(0.00342594 0.00390711 0)
(0.00243931 0.00388944 0)
(0.0015081 0.00356328 0)
(0.00065496 0.0027895 0)
(0.000116463 0.00130305 0)
(-0.000141932 0.00120741 0)
(-0.000886141 0.00313031 0)
(-0.00218587 0.00455877 0)
(-0.00373619 0.00559828 0)
(-0.00552321 0.00629886 0)
(-0.00739522 0.00676469 0)
(-0.00935586 0.00706208 0)
(-0.0113375 0.00726342 0)
(-0.0133485 0.00740455 0)
(-0.0153557 0.00751248 0)
(-0.0173614 0.00759106 0)
(-0.0193432 0.00763978 0)
(-0.0212954 0.00764894 0)
(-0.023199 0.00761017 0)
(-0.0250451 0.00751364 0)
(-0.0268193 0.00735307 0)
(-0.0285152 0.00712329 0)
(-0.0301262 0.00682191 0)
(-0.0316521 0.00644689 0)
(-0.0330935 0.00599655 0)
(-0.0344541 0.00546763 0)
(-0.0357358 0.00485527 0)
(-0.0369389 0.00415237 0)
(-0.0380578 0.00335044 0)
(-0.0390811 0.0024404 0)
(-0.0399884 0.0014143 0)
(-0.0407507 0.000266966 0)
(-0.0413295 -0.00100187 0)
(-0.0416779 -0.00238571 0)
(-0.041742 -0.0038693 0)
(-0.0414642 -0.00542717 0)
(-0.0407867 -0.00702251 0)
(-0.0396577 -0.00860714 0)
(-0.0380368 -0.0101224 0)
(-0.035902 -0.0115016 0)
(-0.0332553 -0.0126741 0)
(-0.0301281 -0.0135708 0)
(-0.0265834 -0.0141303 0)
(-0.0227158 -0.0143066 0)
(-0.0186469 -0.0140751 0)
(-0.0145182 -0.0134374 0)
(-0.0104796 -0.0124233 0)
(-0.00667668 -0.0110894 0)
(-0.00323641 -0.00951292 0)
(-0.000257447 -0.00778349 0)
(0.00219962 -0.00599279 0)
(0.00411013 -0.00422396 0)
(0.00548712 -0.00254501 0)
(0.00636604 -0.00100313 0)
(0.00680566 0.000373437 0)
(0.00686404 0.00157459 0)
(0.00661149 0.00259915 0)
(0.0060977 0.0034516 0)
(0.00538992 0.00412917 0)
(0.00451913 0.00462091 0)
(0.00356154 0.00489208 0)
(0.00253571 0.00488536 0)
(0.00156554 0.00448969 0)
(0.000676682 0.00352426 0)
(0.000118698 0.0016537 0)
(-0.000166497 0.0016899 0)
(-0.00102984 0.00425589 0)
(-0.00252405 0.00610002 0)
(-0.00428844 0.00739527 0)
(-0.00630616 0.00824818 0)
(-0.00840264 0.00879956 0)
(-0.0105852 0.00914303 0)
(-0.0127775 0.00936576 0)
(-0.0149909 0.00951225 0)
(-0.0171874 0.0096122 0)
(-0.0193701 0.00967011 0)
(-0.0215133 0.0096848 0)
(-0.0236123 0.00964645 0)
(-0.025648 0.00954748 0)
(-0.0276158 0.00938041 0)
(-0.0295073 0.00914273 0)
(-0.0313268 0.00883409 0)
(-0.0330806 0.00845719 0)
(-0.0347846 0.00801442 0)
(-0.0364571 0.00750685 0)
(-0.0381194 0.00693159 0)
(-0.0397897 0.00628127 0)
(-0.0414817 0.00554336 0)
(-0.0431988 0.00470124 0)
(-0.0449324 0.0037354 0)
(-0.0466584 0.00262579 0)
(-0.0483358 0.00135417 0)
(-0.0499055 -9.28284e-05 0)
(-0.0512906 -0.0017206 0)
(-0.0523987 -0.00352313 0)
(-0.0531262 -0.0054799 0)
(-0.0533644 -0.0075531 0)
(-0.0530082 -0.00968619 0)
(-0.0519658 -0.011804 0)
(-0.0501693 -0.013815 0)
(-0.0475846 -0.0156163 0)
(-0.0442201 -0.0171009 0)
(-0.0401325 -0.0181673 0)
(-0.035429 -0.0187305 0)
(-0.0302641 -0.0187327 0)
(-0.0248321 -0.0181532 0)
(-0.0193521 -0.0170139 0)
(-0.01405 -0.0153803 0)
(-0.0091354 -0.0133556 0)
(-0.00478252 -0.0110687 0)
(-0.00111128 -0.00865815 0)
(0.00181655 -0.00625455 0)
(0.00400123 -0.0039669 0)
(0.00548649 -0.00187221 0)
(0.00635524 -1.60225e-05 0)
(0.00669739 0.00158603 0)
(0.00661764 0.00293543 0)
(0.00619617 0.004044 0)
(0.00552652 0.00491676 0)
(0.00465785 0.00554765 0)
(0.0036815 0.00590151 0)
(0.00262389 0.00591152 0)
(0.00161924 0.00544563 0)
(0.000697803 0.00428069 0)
(0.00012135 0.00201042 0)
(-0.000189106 0.00224513 0)
(-0.0011626 0.00553896 0)
(-0.00283615 0.00784256 0)
(-0.00479707 0.00941114 0)
(-0.00702588 0.0104197 0)
(-0.0093266 0.0110524 0)
(-0.01171 0.0114345 0)
(-0.0140916 0.0116692 0)
(-0.0164856 0.0118102 0)
(-0.0188498 0.0118897 0)
(-0.0211884 0.0119135 0)
(-0.0234739 0.0118802 0)
(-0.0257044 0.0117818 0)
(-0.0278644 0.011614 0)
(-0.0299578 0.0113751 0)
(-0.0319885 0.0110703 0)
(-0.0339783 0.0107082 0)
(-0.035955 0.0102998 0)
(-0.0379596 0.00985429 0)
(-0.0400359 0.00937597 0)
(-0.0422304 0.00886107 0)
(-0.0445829 0.00829662 0)
(-0.0471239 0.00765984 0)
(-0.0498662 0.00691954 0)
(-0.0528021 0.00603786 0)
(-0.0558976 0.00497332 0)
(-0.0590897 0.00368424 0)
(-0.0622841 0.00213322 0)
(-0.0653564 0.000292344 0)
(-0.0681546 -0.00185095 0)
(-0.0705073 -0.00428796 0)
(-0.072233 -0.00698338 0)
(-0.0731536 -0.00987185 0)
(-0.0731082 -0.0128569 0)
(-0.0719681 -0.0158136 0)
(-0.0696497 -0.018594 0)
(-0.0661266 -0.0210373 0)
(-0.0614382 -0.0229821 0)
(-0.0556956 -0.0242825 0)
(-0.0490821 -0.0248241 0)
(-0.0418475 -0.0245404 0)
(-0.0342942 -0.023426 0)
(-0.0267549 -0.021543 0)
(-0.0195613 -0.0190185 0)
(-0.0130116 -0.0160312 0)
(-0.0073353 -0.0127886 0)
(-0.00267493 -0.00949758 0)
(0.000926724 -0.00633856 0)
(0.00350812 -0.00344432 0)
(0.00517841 -0.000895364 0)
(0.00607267 0.0012788 0)
(0.00634925 0.00308181 0)
(0.00613928 0.00453775 0)
(0.00558108 0.00566683 0)
(0.00475715 0.00647573 0)
(0.00378507 0.00693525 0)
(0.00270693 0.00697353 0)
(0.00167232 0.00643923 0)
(0.000719165 0.00506735 0)
(0.00012411 0.00237979 0)
(-0.000210198 0.00286547 0)
(-0.0012853 0.00696357 0)
(-0.00312301 0.00976512 0)
(-0.00526292 0.0116213 0)
(-0.00768328 0.0127868 0)
(-0.0101686 0.0134954 0)
(-0.0127332 0.0139077 0)
(-0.0152849 0.0141444 0)
(-0.0178411 0.014269 0)
(-0.0203558 0.0143164 0)
(-0.0228356 0.0142943 0)
(-0.0252531 0.0142031 0)
(-0.0276123 0.0140392 0)
(-0.0299056 0.0138058 0)
(-0.0321524 0.013512 0)
(-0.0343769 0.0131765 0)
(-0.0366289 0.0128216 0)
(-0.038968 0.0124711 0)
(-0.0414706 0.0121425 0)
(-0.0442153 0.011843 0)
(-0.0472808 0.0115649 0)
(-0.0507328 0.011284 0)
(-0.0546195 0.0109595 0)
(-0.0589604 0.0105358 0)
(-0.0637408 0.00994478 0)
(-0.0689038 0.00910956 0)
(-0.0743463 0.00795 0)
(-0.0799161 0.00638968 0)
(-0.0854155 0.00436476 0)
(-0.0906084 0.00183407 0)
(-0.0952338 -0.00121087 0)
(-0.0990224 -0.00473758 0)
(-0.101715 -0.00866751 0)
(-0.103077 -0.0128751 0)
(-0.102921 -0.0171913 0)
(-0.101111 -0.0214112 0)
(-0.0975779 -0.0253058 0)
(-0.0923319 -0.0286366 0)
(-0.0854676 -0.0311749 0)
(-0.0771733 -0.0327228 0)
(-0.0677326 -0.0331371 0)
(-0.0575186 -0.0323519 0)
(-0.0469755 -0.0303964 0)
(-0.0365845 -0.0274028 0)
(-0.0268187 -0.0235977 0)
(-0.0180857 -0.0192757 0)
(-0.0106827 -0.0147574 0)
(-0.00475889 -0.0103418 0)
(-0.000322499 -0.0062641 0)
(0.00274687 -0.00267619 0)
(0.00463704 0.00035741 0)
(0.00558205 0.00283576 0)
(0.00579199 0.00479974 0)
(0.00547744 0.00629491 0)
(0.00477778 0.00735306 0)
(0.00385474 0.00796188 0)
(0.0027791 0.00805275 0)
(0.00172438 0.00745968 0)
(0.000741948 0.00587768 0)
(0.000127563 0.00275829 0)
(-0.000229398 0.00354726 0)
(-0.00139704 0.00851997 0)
(-0.00338384 0.0118544 0)
(-0.00568569 0.0140113 0)
(-0.00827914 0.015335 0)
(-0.0109311 0.0161147 0)
(-0.0136594 0.0165501 0)
(-0.0163653 0.0167802 0)
(-0.0190692 0.0168793 0)
(-0.0217228 0.0168858 0)
(-0.0243365 0.0168107 0)
(-0.026886 0.0166591 0)
(-0.0293856 0.0164364 0)
(-0.0318424 0.0161593 0)
(-0.0343003 0.0158552 0)
(-0.0368152 0.0155631 0)
(-0.0394768 0.015326 0)
(-0.0423892 0.0151835 0)
(-0.0456749 0.0151624 0)
(-0.0494553 0.0152697 0)
(-0.0538455 0.0154872 0)
(-0.0589373 0.0157705 0)
(-0.0647912 0.0160485 0)
(-0.0714215 0.0162257 0)
(-0.0787878 0.0161854 0)
(-0.0867839 0.0157957 0)
(-0.0952341 0.0149176 0)
(-0.103894 0.0134186 0)
(-0.112462 0.0111872 0)
(-0.120596 0.00814991 0)
(-0.12794 0.00428527 0)
(-0.134145 -0.000366786 0)
(-0.138892 -0.00570156 0)
(-0.141905 -0.0115522 0)
(-0.142959 -0.0176967 0)
(-0.141886 -0.0238677 0)
(-0.138581 -0.0297645 0)
(-0.133008 -0.0350667 0)
(-0.125214 -0.0394526 0)
(-0.115343 -0.0426208 0)
(-0.103655 -0.0443189 0)
(-0.0905355 -0.0443765 0)
(-0.0764951 -0.0427385 0)
(-0.0621491 -0.0394925 0)
(-0.0481695 -0.0348796 0)
(-0.0352103 -0.0292763 0)
(-0.0238239 -0.0231467 0)
(-0.0143769 -0.0169691 0)
(-0.00701706 -0.0111558 0)
(-0.00166898 -0.00599902 0)
(0.00189265 -0.0016461 0)
(0.00399364 0.00187462 0)
(0.00495607 0.00461975 0)
(0.00510022 0.00667199 0)
(0.00465669 0.00810597 0)
(0.00385874 0.00894353 0)
(0.002826 0.00913334 0)
(0.00176982 0.00850392 0)
(0.000764314 0.00671486 0)
(0.000131249 0.00314988 0)
(-0.000246999 0.00428394 0)
(-0.00149883 0.0101944 0)
(-0.00362069 0.0140926 0)
(-0.00606893 0.0165612 0)
(-0.00881883 0.0180438 0)
(-0.0116218 0.0188904 0)
(-0.0144991 0.0193428 0)
(-0.0173468 0.0195595 0)
(-0.0201888 0.0196267 0)
(-0.022976 0.0195875 0)
(-0.0257249 0.0194592 0)
(-0.0284183 0.019256 0)
(-0.0310872 0.0189992 0)
(-0.0337629 0.0187275 0)
(-0.0365252 0.0184962 0)
(-0.0394756 0.0183738 0)
(-0.0427577 0.0184297 0)
(-0.0465319 0.0187218 0)
(-0.0509752 0.0192834 0)
(-0.0562553 0.020114 0)
(-0.062521 0.0211738 0)
(-0.0698805 0.0223825 0)
(-0.0783879 0.0236189 0)
(-0.088024 0.0247241 0)
(-0.098683 0.0255058 0)
(-0.110162 0.02575 0)
(-0.122163 0.0252372 0)
(-0.134309 0.0237666 0)
(-0.146171 0.0211816 0)
(-0.157307 0.0173921 0)
(-0.167299 0.0123892 0)
(-0.175775 0.00624793 0)
(-0.18242 -0.000878598 0)
(-0.186983 -0.00877046 0)
(-0.189259 -0.0171532 0)
(-0.189085 -0.025708 0)
(-0.186335 -0.0340802 0)
(-0.180919 -0.0418867 0)
(-0.172798 -0.0487256 0)
(-0.162007 -0.0541929 0)
(-0.148689 -0.0579082 0)
(-0.133131 -0.0595526 0)
(-0.115799 -0.058919 0)
(-0.0973474 -0.0559649 0)
(-0.0785964 -0.0508591 0)
(-0.0604643 -0.043998 0)
(-0.0438523 -0.0359761 0)
(-0.0294972 -0.0274988 0)
(-0.0178548 -0.0192539 0)
(-0.00903044 -0.0117898 0)
(-0.00283423 -0.0054342 0)
(0.00113984 -0.000301804 0)
(0.00335477 0.00366115 0)
(0.00428644 0.00658279 0)
(0.00430381 0.00860355 0)
(0.00375106 0.00980492 0)
(0.00282686 0.010175 0)
(0.00180103 0.00955286 0)
(0.000784783 0.00757136 0)
(0.000135264 0.00355257 0)
(-0.000262854 0.00507121 0)
(-0.00159068 0.0119767 0)
(-0.00383448 0.0164666 0)
(-0.00641488 0.0192572 0)
(-0.00930651 0.0209 0)
(-0.0122471 0.0218107 0)
(-0.0152619 0.022276 0)
(-0.0182426 0.0224754 0)
(-0.0212178 0.0225085 0)
(-0.0241395 0.0224251 0)
(-0.0270338 0.0222535 0)
(-0.0298964 0.0220235 0)
(-0.0327836 0.0217821 0)
(-0.0357625 0.0216018 0)
(-0.0389635 0.0215775 0)
(-0.0425483 0.0218163 0)
(-0.0467274 0.0224186 0)
(-0.0517259 0.0234584 0)
(-0.0577768 0.024967 0)
(-0.0650875 0.0269222 0)
(-0.0738251 0.0292429 0)
(-0.0840861 0.0317873 0)
(-0.0958773 0.0343526 0)
(-0.109089 0.0366797 0)
(-0.123482 0.0384647 0)
(-0.138687 0.0393824 0)
(-0.154229 0.039122 0)
(-0.169576 0.0374272 0)
(-0.184193 0.0341322 0)
(-0.197601 0.0291818 0)
(-0.209409 0.0226316 0)
(-0.219323 0.0146321 0)
(-0.227137 0.00540657 0)
(-0.232704 -0.00477132 0)
(-0.235912 -0.0155923 0)
(-0.236654 -0.026719 0)
(-0.234812 -0.0377853 0)
(-0.230246 -0.0483923 0)
(-0.222808 -0.0581032 0)
(-0.212365 -0.0664452 0)
(-0.198845 -0.0729228 0)
(-0.182302 -0.0770501 0)
(-0.162982 -0.0784065 0)
(-0.14139 -0.0767144 0)
(-0.118326 -0.0719294 0)
(-0.0948649 -0.0643196 0)
(-0.0722597 -0.0544983 0)
(-0.0517483 -0.0433712 0)
(-0.0343266 -0.0319818 0)
(-0.0205366 -0.0212949 0)
(-0.0104153 -0.0119951 0)
(-0.00356398 -0.00441564 0)
(0.00062203 0.00143135 0)
(0.00282115 0.00571111 0)
(0.00360134 0.00865472 0)
(0.00347224 0.0104381 0)
(0.00275516 0.0111226 0)
(0.00180835 0.0105828 0)
(0.000801189 0.00844099 0)
(0.00013947 0.00396752 0)
(-0.00027716 0.00590361 0)
(-0.00167339 0.0138557 0)
(-0.00402711 0.0189624 0)
(-0.00672702 0.0220847 0)
(-0.00974762 0.0238896 0)
(-0.0128149 0.0248633 0)
(-0.0159585 0.02534 0)
(-0.0190671 0.0255219 0)
(-0.0221752 0.025524 0)
(-0.0252391 0.0254067 0)
(-0.0282988 0.0252154 0)
(-0.0313706 0.0250056 0)
(-0.0345471 0.024863 0)
(-0.0379453 0.024908 0)
(-0.0417614 0.0252881 0)
(-0.046231 0.0261562 0)
(-0.0516396 0.0276425 0)
(-0.0582765 0.0298279 0)
(-0.0664201 0.0327241 0)
(-0.0762948 0.0362622 0)
(-0.088048 0.040287 0)
(-0.101709 0.0445535 0)
(-0.117161 0.0487286 0)
(-0.134113 0.0524035 0)
(-0.152104 0.0551248 0)
(-0.17053 0.0564466 0)
(-0.188723 0.0559945 0)
(-0.206038 0.0535215 0)
(-0.221934 0.0489372 0)
(-0.236017 0.0423028 0)
(-0.248054 0.0337993 0)
(-0.257944 0.0236859 0)
(-0.26568 0.0122611 0)
(-0.271296 -0.000164684 0)
(-0.27483 -0.0132824 0)
(-0.276278 -0.0267844 0)
(-0.275567 -0.0403531 0)
(-0.272539 -0.0536414 0)
(-0.266951 -0.0662508 0)
(-0.258492 -0.0777109 0)
(-0.246826 -0.0874712 0)
(-0.231662 -0.0949114 0)
(-0.212852 -0.0993845 0)
(-0.190511 -0.100299 0)
(-0.16513 -0.0972424 0)
(-0.137661 -0.0901315 0)
(-0.109503 -0.0793513 0)
(-0.0823613 -0.065816 0)
(-0.0579506 -0.0508773 0)
(-0.0376017 -0.0360539 0)
(-0.021958 -0.0226494 0)
(-0.0108859 -0.0114761 0)
(-0.0037287 -0.00277611 0)
(0.000419067 0.00359565 0)
(0.00239469 0.00797643 0)
(0.00294604 0.0106802 0)
(0.00257837 0.0118891 0)
(0.00178114 0.0115532 0)
(0.000812137 0.00930931 0)
(0.000144238 0.00439303 0)
(-0.000289785 0.00677659 0)
(-0.00174688 0.0158218 0)
(-0.00419911 0.0215684 0)
(-0.00700692 0.0250317 0)
(-0.0101452 0.0270018 0)
(-0.0133301 0.0280395 0)
(-0.0165961 0.0285294 0)
(-0.0198304 0.0286981 0)
(-0.0230754 0.0286792 0)
(-0.0262954 0.028549 0)
(-0.02955 0.0283794 0)
(-0.0328862 0.0282647 0)
(-0.0364455 0.0283457 0)
(-0.0404102 0.028807 0)
(-0.0450561 0.0298595 0)
(-0.0507008 0.0317035 0)
(-0.0577026 0.0344895 0)
(-0.0664005 0.0382838 0)
(-0.0770885 0.0430474 0)
(-0.0899611 0.0486234 0)
(-0.105077 0.0547296 0)
(-0.122305 0.0609543 0)
(-0.141295 0.0667691 0)
(-0.161469 0.0715668 0)
(-0.182069 0.0747361 0)
(-0.202257 0.0757582 0)
(-0.221252 0.0742946 0)
(-0.238435 0.0702305 0)
(-0.25342 0.0636628 0)
(-0.266049 0.0548458 0)
(-0.276354 0.0441237 0)
(-0.284502 0.0318678 0)
(-0.290725 0.0184329 0)
(-0.295263 0.00413231 0)
(-0.298313 -0.0107674 0)
(-0.299998 -0.0260371 0)
(-0.300325 -0.0414634 0)
(-0.299173 -0.0568186 0)
(-0.296271 -0.0718225 0)
(-0.291196 -0.0861029 0)
(-0.283397 -0.0991581 0)
(-0.272242 -0.110334 0)
(-0.257112 -0.118829 0)
(-0.237545 -0.12375 0)
(-0.213416 -0.124232 0)
(-0.185135 -0.119628 0)
(-0.1538 -0.109757 0)
(-0.12122 -0.0951427 0)
(-0.0897182 -0.0771237 0)
(-0.0616517 -0.0576988 0)
(-0.0387934 -0.0390314 0)
(-0.0218221 -0.0228335 0)
(-0.0103465 -0.00994144 0)
(-0.00330268 -0.000412874 0)
(0.000477809 0.00616937 0)
(0.00207245 0.0103022 0)
(0.002255 0.0123545 0)
(0.00170656 0.0124095 0)
(0.000816227 0.0101591 0)
(0.000150073 0.00482942 0)
(-0.000300801 0.00768532 0)
(-0.0018114 0.0178653 0)
(-0.00435117 0.0242733 0)
(-0.00725608 0.0280874 0)
(-0.010502 0.0302274 0)
(-0.0137969 0.0313327 0)
(-0.0171807 0.0318413 0)
(-0.0205413 0.0320068 0)
(-0.0239311 0.0319857 0)
(-0.0273269 0.031878 0)
(-0.030816 0.0317943 0)
(-0.0344868 0.0318849 0)
(-0.0385436 0.0323643 0)
(-0.0432478 0.0334966 0)
(-0.048963 0.0355614 0)
(-0.0560863 0.0387975 0)
(-0.0650314 0.0433514 0)
(-0.0761522 0.0492379 0)
(-0.0897043 0.0563174 0)
(-0.105773 0.0642808 0)
(-0.124225 0.0726407 0)
(-0.144646 0.080738 0)
(-0.166336 0.0877876 0)
(-0.188362 0.0929775 0)
(-0.209698 0.0956097 0)
(-0.229401 0.0952329 0)
(-0.246769 0.0917098 0)
(-0.261418 0.0851969 0)
(-0.273273 0.0760621 0)
(-0.282508 0.0647815 0)
(-0.289462 0.0518487 0)
(-0.29455 0.0377104 0)
(-0.298197 0.0227326 0)
(-0.300787 0.00719008 0)
(-0.302633 -0.00872707 0)
(-0.303951 -0.0248952 0)
(-0.304842 -0.0412319 0)
(-0.30527 -0.0576628 0)
(-0.305036 -0.0740806 0)
(-0.303753 -0.090294 0)
(-0.30082 -0.105969 0)
(-0.295427 -0.120567 0)
(-0.286599 -0.133299 0)
(-0.273306 -0.143119 0)
(-0.254655 -0.148782 0)
(-0.230157 -0.149012 0)
(-0.200044 -0.142794 0)
(-0.165549 -0.129772 0)
(-0.128987 -0.110645 0)
(-0.0934921 -0.0873721 0)
(-0.0622779 -0.0628731 0)
(-0.0376064 -0.0401861 0)
(-0.0200956 -0.0213926 0)
(-0.00886756 -0.0072204 0)
(-0.00243355 0.00266992 0)
(0.000713538 0.0089801 0)
(0.00172814 0.012348 0)
(0.00156704 0.0130738 0)
(0.000811637 0.0109647 0)
(0.000157774 0.00527636 0)
(-0.000309937 0.00862463 0)
(-0.00186613 0.0199762 0)
(-0.0044822 0.0270655 0)
(-0.00747349 0.0312405 0)
(-0.0108172 0.0335568 0)
(-0.0142152 0.0347363 0)
(-0.0177133 0.0352731 0)
(-0.0212022 0.0354514 0)
(-0.0247471 0.0354568 0)
(-0.0283433 0.0354231 0)
(-0.0321141 0.0355159 0)
(-0.0362014 0.0359609 0)
(-0.0408853 0.0370659 0)
(-0.046515 0.0391844 0)
(-0.0535399 0.0426597 0)
(-0.0624185 0.0477445 0)
(-0.0735828 0.0545397 0)
(-0.087343 0.0629503 0)
(-0.103834 0.0726622 0)
(-0.122923 0.0831231 0)
(-0.144156 0.093544 0)
(-0.166722 0.102945 0)
(-0.189522 0.110281 0)
(-0.211333 0.114632 0)
(-0.231045 0.115398 0)
(-0.247867 0.112406 0)
(-0.261418 0.105882 0)
(-0.271716 0.0963376 0)
(-0.279077 0.0844162 0)
(-0.284002 0.0707685 0)
(-0.287056 0.0559649 0)
(-0.288791 0.0404534 0)
(-0.289697 0.0245519 0)
(-0.290174 0.00845989 0)
(-0.290542 -0.00772055 0)
(-0.291034 -0.0239627 0)
(-0.291809 -0.0402932 0)
(-0.292934 -0.0567697 0)
(-0.294365 -0.0734505 0)
(-0.295895 -0.0903515 0)
(-0.2971 -0.107384 0)
(-0.29728 -0.124268 0)
(-0.295417 -0.140441 0)
(-0.290198 -0.154964 0)
(-0.280126 -0.166481 0)
(-0.263765 -0.17328 0)
(-0.240123 -0.173516 0)
(-0.209138 -0.165642 0)
(-0.172142 -0.149028 0)
(-0.132073 -0.124637 0)
(-0.0931136 -0.0953314 0)
(-0.0595337 -0.0653743 0)
(-0.0340736 -0.038836 0)
(-0.0169832 -0.0180639 0)
(-0.00673519 -0.00330605 0)
(-0.00132649 0.00626073 0)
(0.000915055 0.0116319 0)
(0.00133555 0.0134387 0)
(0.000794179 0.011692 0)
(0.000167983 0.00573465 0)
(-0.000317119 0.00958946 0)
(-0.00191052 0.022145 0)
(-0.00459106 0.0299346 0)
(-0.0076577 0.0344818 0)
(-0.0110894 0.0369832 0)
(-0.0145837 0.0382467 0)
(-0.0181929 0.038826 0)
(-0.021813 0.0390406 0)
(-0.0255255 0.0391131 0)
(-0.0293506 0.0392249 0)
(-0.0334566 0.0396153 0)
(-0.0380501 0.0406069 0)
(-0.0434956 0.0426162 0)
(-0.0502296 0.0460872 0)
(-0.0587709 0.0514045 0)
(-0.0696027 0.0587902 0)
(-0.0831162 0.0682357 0)
(-0.0994964 0.0794546 0)
(-0.11865 0.0918582 0)
(-0.140108 0.104544 0)
(-0.16299 0.116339 0)
(-0.186061 0.125941 0)
(-0.207921 0.132164 0)
(-0.227295 0.134209 0)
(-0.243294 0.131826 0)
(-0.255543 0.125307 0)
(-0.264156 0.11532 0)
(-0.269599 0.102702 0)
(-0.272529 0.0882869 0)
(-0.273643 0.0727796 0)
(-0.273574 0.0567145 0)
(-0.272839 0.0404525 0)
(-0.27183 0.0242094 0)
(-0.270828 0.00809145 0)
(-0.270044 -0.00787295 0)
(-0.269646 -0.0237124 0)
(-0.269784 -0.0395017 0)
(-0.270595 -0.0553574 0)
(-0.272193 -0.0714307 0)
(-0.27462 -0.08789 0)
(-0.277779 -0.104878 0)
(-0.281333 -0.122433 0)
(-0.284594 -0.140375 0)
(-0.286425 -0.158145 0)
(-0.285213 -0.174661 0)
(-0.278971 -0.188209 0)
(-0.265631 -0.196486 0)
(-0.243561 -0.196896 0)
(-0.212281 -0.187162 0)
(-0.173206 -0.166315 0)
(-0.130045 -0.135728 0)
(-0.0883102 -0.0996724 0)
(-0.0534958 -0.0642081 0)
(-0.0285627 -0.0345714 0)
(-0.0129647 -0.0128361 0)
(-0.00432445 0.00151166 0)
(-0.000305638 0.0098716 0)
(0.000969226 0.0133517 0)
(0.000754992 0.0122903 0)
(0.000180873 0.00620355 0)
(-0.000321847 0.0105731 0)
(-0.0019427 0.0243595 0)
(-0.00467446 0.0328671 0)
(-0.00780425 0.0377985 0)
(-0.0113129 0.0404956 0)
(-0.0148957 0.0418558 0)
(-0.018612 0.0424966 0)
(-0.0223656 0.0427784 0)
(-0.0262579 0.0429711 0)
(-0.0303406 0.0433198 0)
(-0.0348356 0.0441584 0)
(-0.0400223 0.0459266 0)
(-0.046351 0.0491571 0)
(-0.0543327 0.0543694 0)
(-0.0645224 0.0619475 0)
(-0.0773721 0.072017 0)
(-0.0931554 0.0843732 0)
(-0.111835 0.0984342 0)
(-0.132981 0.113224 0)
(-0.155699 0.1274 0)
(-0.178676 0.139402 0)
(-0.200371 0.147738 0)
(-0.219354 0.151338 0)
(-0.234623 0.149817 0)
(-0.24579 0.143489 0)
(-0.253052 0.13318 0)
(-0.257027 0.119945 0)
(-0.25853 0.104818 0)
(-0.258387 0.0886538 0)
(-0.257291 0.0720653 0)
(-0.255755 0.0554363 0)
(-0.254101 0.0389724 0)
(-0.252507 0.0227635 0)
(-0.251058 0.00683395 0)
(-0.249805 -0.0088243 0)
(-0.248805 -0.02424 0)
(-0.248155 -0.0394663 0)
(-0.24801 -0.0545941 0)
(-0.248575 -0.0697695 0)
(-0.250091 -0.0852053 0)
(-0.252772 -0.101173 0)
(-0.256715 -0.117963 0)
(-0.261763 -0.135785 0)
(-0.267333 -0.154607 0)
(-0.27225 -0.173927 0)
(-0.274654 -0.192528 0)
(-0.272068 -0.208282 0)