/*--------------------------------*- C++ -*----------------------------------*\
| =========                 |                                                 |
| \\      /  F ield         | OpenFOAM: The Open Source CFD Toolbox           |
|  \\    /   O peration     | Version:  2406                                  |
|   \\  /    A nd           | Website:  www.openfoam.com                      |
|    \\/     M anipulation  |                                                 |
\*---------------------------------------------------------------------------*/
FoamFile
{
    version     2.0;
    format      ascii;
    arch        "LSB;label=32;scalar=64";
    class       volVectorField;
    location    "47.25";
    object      Uold;
}
// * * * * * * * * * * * * * * * * * * * * * * * * * * * * * * * * * * * * * //

dimensions      [0 1 -1 0 0 0 0];

internalField   nonuniform List<vector> 
14400
(
(-1.90175e-05 1.89739e-05 0)
(-3.30832e-06 -1.09426e-05 0)
(0.000108832 -4.40765e-05 0)
(0.000303956 -7.3721e-05 0)
(0.000570286 -9.15204e-05 0)
(0.000873056 -0.000101493 0)
(0.00119616 -0.000102573 0)
(0.00151201 -9.79352e-05 0)
(0.00180895 -8.81361e-05 0)
(0.0020709 -7.56529e-05 0)
(0.0022936 -6.15761e-05 0)
(0.00247207 -4.77182e-05 0)
(0.00260918 -3.49712e-05 0)
(0.00270792 -2.4331e-05 0)
(0.0027754 -1.61244e-05 0)
(0.00281814 -1.05534e-05 0)
(0.00284381 -7.36713e-06 0)
(0.00285837 -6.18093e-06 0)
(0.0028669 -6.36779e-06 0)
(0.00287216 -7.2646e-06 0)
(0.0028751 -8.16224e-06 0)
(0.00287443 -8.44013e-06 0)
(0.00286721 -7.57643e-06 0)
(0.00284897 -5.20876e-06 0)
(0.00281435 -1.11292e-06 0)
(0.00275731 4.80684e-06 0)
(0.00267159 1.25715e-05 0)
(0.00255079 2.21665e-05 0)
(0.00238853 3.35867e-05 0)
(0.00217834 4.68555e-05 0)
(0.00191367 6.20326e-05 0)
(0.00158783 7.9201e-05 0)
(0.00119394 9.84489e-05 0)
(0.000725044 0.000119848 0)
(0.000174211 0.000143433 0)
(-0.000465317 0.000169188 0)
(-0.00119989 0.000197036 0)
(-0.00203525 0.000226831 0)
(-0.00297622 0.000258352 0)
(-0.00402652 0.000291302 0)
(-0.00518844 0.000325306 0)
(-0.00646263 0.000359912 0)
(-0.00784787 0.000394593 0)
(-0.00934084 0.000428757 0)
(-0.010936 0.000461753 0)
(-0.0126253 0.000492884 0)
(-0.0143986 0.000521418 0)
(-0.0162429 0.000546599 0)
(-0.0181431 0.000567668 0)
(-0.0200817 0.000583867 0)
(-0.0220389 0.00059446 0)
(-0.0239933 0.000598734 0)
(-0.0259213 0.00059602 0)
(-0.0277981 0.000585693 0)
(-0.0295977 0.000567191 0)
(-0.031293 0.000540021 0)
(-0.0328567 0.000503777 0)
(-0.034261 0.000458155 0)
(-0.0354787 0.000402978 0)
(-0.0364829 0.000338221 0)
(-0.0372483 0.000264033 0)
(-0.0377509 0.000180773 0)
(-0.0379692 8.90372e-05 0)
(-0.0378846 -1.03122e-05 0)
(-0.0374817 -0.000116124 0)
(-0.0367494 -0.00022694 0)
(-0.0356815 -0.00034099 0)
(-0.034277 -0.000456197 0)
(-0.032541 -0.000570206 0)
(-0.030485 -0.000680424 0)
(-0.0281274 -0.000784086 0)
(-0.0254935 -0.000878346 0)
(-0.0226157 -0.000960382 0)
(-0.0195328 -0.00102752 0)
(-0.01629 -0.00107736 0)
(-0.0129377 -0.00110796 0)
(-0.00953028 -0.00111788 0)
(-0.00612484 -0.00110639 0)
(-0.00277954 -0.0010735 0)
(0.000448289 -0.00102002 0)
(0.003504 -0.000947562 0)
(0.00633751 -0.000858485 0)
(0.00890506 -0.000755791 0)
(0.0111707 -0.000642973 0)
(0.0131075 -0.000523834 0)
(0.0146983 -0.00040228 0)
(0.0159359 -0.000282108 0)
(0.0168233 -0.000166813 0)
(0.0173727 -5.94241e-05 0)
(0.0176043 3.76182e-05 0)
(0.0175458 0.000122534 0)
(0.0172297 0.000194221 0)
(0.0166926 0.000252236 0)
(0.015973 0.000296722 0)
(0.0151095 0.000328323 0)
(0.0141398 0.000348073 0)
(0.0130993 0.000357293 0)
(0.0120199 0.000357468 0)
(0.0109298 0.000350167 0)
(0.0098527 0.000336938 0)
(0.00880781 0.000319269 0)
(0.00781015 0.000298499 0)
(0.00687043 0.000275838 0)
(0.00599595 0.000252279 0)
(0.0051904 0.0002287 0)
(0.00445527 0.000205731 0)
(0.0037891 0.000183967 0)
(0.00318962 0.000163713 0)
(0.00265195 0.00014537 0)
(0.00217206 0.000128908 0)
(0.00174326 0.000114562 0)
(0.00136212 0.000101772 0)
(0.00102217 9.05355e-05 0)
(0.000723832 7.9332e-05 0)
(0.000463924 6.79148e-05 0)
(0.000250481 5.32953e-05 0)
(8.6474e-05 3.59443e-05 0)
(-1.36576e-05 1.23306e-05 0)
(-4.63137e-05 -9.40257e-06 0)
(-2.23339e-05 -2.1871e-05 0)
(9.63076e-06 4.04279e-06 0)
(0.00015551 -0.000159071 0)
(0.000501431 -0.000327222 0)
(0.00100812 -0.000476976 0)
(0.00165945 -0.000576212 0)
(0.00238905 -0.000632732 0)
(0.00316133 -0.000643118 0)
(0.0039198 -0.000618368 0)
(0.00463476 -0.000563763 0)
(0.00527131 -0.000490437 0)
(0.00581554 -0.000406066 0)
(0.00625518 -0.000319805 0)
(0.00659249 -0.000237818 0)
(0.00683219 -0.000165514 0)
(0.00698687 -0.00010558 0)
(0.00706928 -5.92254e-05 0)
(0.00709408 -2.55278e-05 0)
(0.00707306 -2.32382e-06 0)
(0.00701572 1.37855e-05 0)
(0.00692668 2.67043e-05 0)
(0.00680628 4.05682e-05 0)
(0.00664984 5.91921e-05 0)
(0.00644864 8.58368e-05 0)
(0.00619032 0.000122958 0)
(0.00586006 0.000172215 0)
(0.00544125 0.000234549 0)
(0.0049164 0.0003104 0)
(0.00426754 0.000399917 0)
(0.00347659 0.00050316 0)
(0.00252545 0.000620209 0)
(0.00139614 0.000751181 0)
(7.08952e-05 0.000896179 0)
(-0.0014676 0.00105519 0)
(-0.00323587 0.00122794 0)
(-0.00524917 0.00141385 0)
(-0.00752086 0.00161188 0)
(-0.0100618 0.00182049 0)
(-0.0128798 0.00203767 0)
(-0.0159784 0.00226084 0)
(-0.0193571 0.00248692 0)
(-0.0230099 0.00271233 0)
(-0.0269255 0.0029331 0)
(-0.0310867 0.00314486 0)
(-0.0354701 0.00334299 0)
(-0.0400463 0.00352274 0)
(-0.0447801 0.00367928 0)
(-0.0496308 0.0038079 0)
(-0.0545527 0.00390403 0)
(-0.0594956 0.00396346 0)
(-0.0644062 0.00398233 0)
(-0.0692281 0.00395727 0)
(-0.0739034 0.00388544 0)
(-0.0783732 0.0037646 0)
(-0.0825786 0.00359313 0)
(-0.0864619 0.00337009 0)
(-0.0899668 0.0030952 0)
(-0.0930396 0.00276891 0)
(-0.0956298 0.00239239 0)
(-0.0976909 0.00196759 0)
(-0.0991809 0.00149726 0)
(-0.100063 0.000984969 0)
(-0.100305 0.00043519 0)
(-0.0998838 -0.000146695 0)
(-0.0987802 -0.000754345 0)
(-0.0969843 -0.00138044 0)
(-0.0944936 -0.00201669 0)
(-0.0913144 -0.00265384 0)
(-0.0874621 -0.00328179 0)
(-0.0829615 -0.00388965 0)
(-0.0778473 -0.00446599 0)
(-0.0721643 -0.00499902 0)
(-0.0659673 -0.00547693 0)
(-0.0593207 -0.00588824 0)
(-0.0522982 -0.00622219 0)
(-0.0449823 -0.00646922 0)
(-0.0374625 -0.00662141 0)
(-0.0298347 -0.00667294 0)
(-0.0221986 -0.00662047 0)
(-0.0146564 -0.00646352 0)
(-0.00731006 -0.00620464 0)
(-0.000259159 -0.00584951 0)
(0.00640201 -0.00540689 0)
(0.0125868 -0.00488838 0)
(0.0182186 -0.00430799 0)
(0.0232332 -0.00368166 0)
(0.0275807 -0.00302653 0)
(0.0312264 -0.00236026 0)
(0.0341525 -0.00170026 0)
(0.0363578 -0.00106293 0)
(0.0378576 -0.000462999 0)
(0.0386827 8.70282e-05 0)
(0.0388778 0.000577285 0)
(0.0384996 0.0010008 0)
(0.0376142 0.00135357 0)
(0.0362943 0.00163448 0)
(0.0346164 0.00184504 0)
(0.0326575 0.00198907 0)
(0.030493 0.00207222 0)
(0.0281935 0.00210149 0)
(0.0258237 0.0020847 0)
(0.0234401 0.00203007 0)
(0.021091 0.00194572 0)
(0.0188151 0.00183944 0)
(0.0166428 0.00171824 0)
(0.0145955 0.00158848 0)
(0.0126876 0.0014554 0)
(0.0109257 0.00132361 0)
(0.00931231 0.00119641 0)
(0.00784337 0.00107669 0)
(0.00651432 0.000965594 0)
(0.00531497 0.000864227 0)
(0.00423968 0.000770801 0)
(0.00327766 0.000684241 0)
(0.00242967 0.000598516 0)
(0.0016904 0.000510872 0)
(0.00107394 0.000410596 0)
(0.000582811 0.000298813 0)
(0.000241329 0.000166065 0)
(4.52649e-05 4.26926e-05 0)
(-9.62036e-06 -4.6286e-05 0)
(3.95876e-05 -0.000102392 0)
(0.000312787 -0.000501648 0)
(0.00087318 -0.000892472 0)
(0.00163782 -0.00123057 0)
(0.00258898 -0.00146176 0)
(0.00363538 -0.00159111 0)
(0.00473138 -0.00161469 0)
(0.00580169 -0.00155193 0)
(0.00680579 -0.00141744 0)
(0.00769644 -0.00123475 0)
(0.00845294 -0.00102329 0)
(0.00905735 -0.000803633 0)
(0.00951006 -0.000591282 0)
(0.00981526 -0.000398821 0)
(0.00998709 -0.000233302 0)
(0.0100403 -9.76239e-05 0)
(0.00999168 1.0043e-05 0)
(0.00985461 9.49176e-05 0)
(0.00963886 0.00016509 0)
(0.00934767 0.000230129 0)
(0.00897818 0.000300156 0)
(0.00852059 0.000384675 0)
(0.00795936 0.000491862 0)
(0.00727386 0.000628027 0)
(0.0064399 0.00079754 0)
(0.0054308 0.00100301 0)
(0.00421861 0.00124574 0)
(0.00277478 0.00152615 0)
(0.00107092 0.00184426 0)
(-0.000920915 0.00219984 0)
(-0.00322766 0.00259244 0)
(-0.00587483 0.00302128 0)
(-0.00888579 0.00348494 0)
(-0.012281 0.00398111 0)
(-0.0160768 0.00450638 0)
(-0.0202848 0.00505599 0)
(-0.0249103 0.00562384 0)
(-0.0299515 0.00620239 0)
(-0.0353986 0.00678279 0)
(-0.0412331 0.00735496 0)
(-0.0474271 0.00790786 0)
(-0.0539438 0.00842968 0)
(-0.0607369 0.00890822 0)
(-0.0677518 0.00933119 0)
(-0.0749263 0.00968661 0)
(-0.0821916 0.00996312 0)
(-0.0894739 0.0101504 0)
(-0.096696 0.0102392 0)
(-0.103779 0.010222 0)
(-0.110642 0.0100928 0)
(-0.117208 0.00984738 0)
(-0.123401 0.00948314 0)
(-0.129148 0.00899934 0)
(-0.134381 0.00839687 0)
(-0.139038 0.00767821 0)
(-0.143061 0.0068473 0)
(-0.146401 0.00590949 0)
(-0.149013 0.00487146 0)
(-0.150858 0.00374116 0)
(-0.151907 0.00252776 0)
(-0.152134 0.00124174 0)
(-0.151522 -0.000105198 0)
(-0.150061 -0.00150001 0)
(-0.147747 -0.00292831 0)
(-0.144585 -0.00437434 0)
(-0.140585 -0.00582097 0)
(-0.135767 -0.00724974 0)
(-0.130158 -0.00864097 0)
(-0.123794 -0.00997394 0)
(-0.116721 -0.0112272 0)
(-0.10899 -0.0123788 0)
(-0.100665 -0.0134069 0)
(-0.091817 -0.0142904 0)
(-0.0825259 -0.0150095 0)
(-0.0728802 -0.0155462 0)
(-0.0629757 -0.0158854 0)
(-0.0529146 -0.0160159 0)
(-0.0428044 -0.0159303 0)
(-0.032756 -0.0156263 0)
(-0.0228819 -0.0151071 0)
(-0.013294 -0.0143815 0)
(-0.0041013 -0.0134637 0)
(0.00459235 -0.0123738 0)
(0.012691 -0.0111365 0)
(0.0201088 -0.00978092 0)
(0.026772 -0.00833937 0)
(0.0326213 -0.00684628 0)
(0.037613 -0.00533695 0)
(0.0417207 -0.00384622 0)
(0.0449356 -0.00240721 0)
(0.047267 -0.00105011 0)
(0.0487417 0.000198893 0)
(0.0494037 0.0013185 0)
(0.0493119 0.00229291 0)
(0.0485384 0.00311219 0)
(0.047166 0.00377231 0)
(0.0452844 0.00427494 0)
(0.0429879 0.00462687 0)
(0.0403709 0.00483925 0)
(0.0375252 0.00492663 0)
(0.0345367 0.00490592 0)
(0.0314836 0.00479523 0)
(0.0284335 0.00461305 0)
(0.0254438 0.00437713 0)
(0.0225593 0.00410417 0)
(0.0198151 0.00380889 0)
(0.0172341 0.00350432 0)
(0.0148319 0.00320079 0)
(0.0126133 0.00290685 0)
(0.0105807 0.00262748 0)
(0.00872735 0.00236604 0)
(0.00705054 0.0021205 0)
(0.00553956 0.0018881 0)
(0.00419756 0.00165777 0)
(0.00301741 0.00142202 0)
(0.00201808 0.00116195 0)
(0.00119788 0.000877218 0)
(0.000592549 0.000555191 0)
(0.000189167 0.000245815 0)
(1.64e-05 -7.79182e-06 0)
(6.59078e-05 -0.000284065 0)
(0.000453668 -0.000996677 0)
(0.00119976 -0.00165405 0)
(0.00217347 -0.00220177 0)
(0.00335438 -0.00257512 0)
(0.00462908 -0.00277662 0)
(0.00594738 -0.00280407 0)
(0.00722077 -0.00268546 0)
(0.00840351 -0.0024462 0)
(0.00944033 -0.00212338 0)
(0.0103069 -0.00174968 0)
(0.010981 -0.00135843 0)
(0.0114613 -0.000975607 0)
(0.0117503 -0.000621813 0)
(0.0118612 -0.000308923 0)
(0.0118076 -4.15738e-05 0)
(0.0116051 0.000183363 0)
(0.0112646 0.000374922 0)
(0.0107927 0.000546952 0)
(0.0101881 0.00071593 0)
(0.00944195 0.000899252 0)
(0.00853727 0.00111331 0)
(0.00745034 0.00137224 0)
(0.00615154 0.00168696 0)
(0.00460726 0.00206507 0)
(0.00278125 0.00251109 0)
(0.000636139 0.00302712 0)
(-0.00186548 0.00361355 0)
(-0.00476002 0.00426963 0)
(-0.00808201 0.00499374 0)
(-0.0118632 0.00578334 0)
(-0.0161311 0.00663465 0)
(-0.0209084 0.00754221 0)
(-0.0262107 0.00849852 0)
(-0.0320456 0.00949365 0)
(-0.0384108 0.0105151 0)
(-0.0452934 0.0115479 0)
(-0.0526685 0.0125746 0)
(-0.0604988 0.0135759 0)
(-0.0687345 0.0145309 0)
(-0.0773142 0.015418 0)
(-0.0861654 0.0162152 0)
(-0.0952066 0.0169014 0)
(-0.104349 0.0174566 0)
(-0.1135 0.0178628 0)
(-0.122563 0.0181048 0)
(-0.131442 0.0181702 0)
(-0.140044 0.0180499 0)
(-0.14828 0.0177381 0)
(-0.156067 0.0172324 0)
(-0.163328 0.0165331 0)
(-0.169994 0.0156437 0)
(-0.176004 0.0145699 0)
(-0.181305 0.0133196 0)
(-0.185852 0.0119023 0)
(-0.189607 0.0103292 0)
(-0.192539 0.00861259 0)
(-0.194623 0.00676598 0)
(-0.195841 0.00480382 0)
(-0.19618 0.00274159 0)
(-0.19563 0.000595802 0)
(-0.194191 -0.00161588 0)
(-0.191861 -0.00387456 0)
(-0.188649 -0.00615997 0)
(-0.184565 -0.00845035 0)
(-0.179626 -0.0107224 0)
(-0.173852 -0.0129511 0)
(-0.167273 -0.01511 0)
(-0.15992 -0.0171713 0)
(-0.151837 -0.0191058 0)
(-0.14307 -0.0208841 0)
(-0.133676 -0.0224761 0)
(-0.123719 -0.0238526 0)
(-0.113272 -0.0249858 0)
(-0.102416 -0.02585 0)
(-0.0912393 -0.0264233 0)
(-0.0798388 -0.0266881 0)
(-0.0683167 -0.0266321 0)
(-0.0567806 -0.0262497 0)
(-0.0453417 -0.0255423 0)
(-0.0341124 -0.0245191 0)
(-0.0232048 -0.023197 0)
(-0.0127281 -0.0216005 0)
(-0.00278647 -0.0197617 0)
(0.00652329 -0.0177187 0)
(0.0151137 -0.0155152 0)
(0.0229086 -0.0131985 0)
(0.0298448 -0.0108186 0)
(0.0358736 -0.00842627 0)
(0.0409618 -0.00607145 0)
(0.0450927 -0.00380167 0)
(0.0482668 -0.00166055 0)
(0.0505016 0.000313641 0)
(0.0518319 0.00208913 0)
(0.0523087 0.00364168 0)
(0.051998 0.00495522 0)
(0.0509789 0.00602219 0)
(0.0493412 0.00684346 0)
(0.0471816 0.00742778 0)
(0.044601 0.00779085 0)
(0.0417001 0.00795409 0)
(0.0385766 0.00794298 0)
(0.0353207 0.0077856 0)
(0.0320141 0.00751083 0)
(0.0287264 0.0071472 0)
(0.0255162 0.00672131 0)
(0.0224278 0.00625749 0)
(0.019496 0.00577617 0)
(0.0167413 0.00529463 0)
(0.0141796 0.00482447 0)
(0.0118135 0.00437377 0)
(0.00964894 0.00394234 0)
(0.00767921 0.00352724 0)
(0.00591313 0.00311398 0)
(0.00434267 0.00269077 0)
(0.00299285 0.00223183 0)
(0.00185646 0.00173321 0)
(0.000983873 0.00117801 0)
(0.000355486 0.000622289 0)
(4.73672e-05 0.000114186 0)
(8.25778e-05 -0.000533396 0)
(0.000557055 -0.00163903 0)
(0.00145157 -0.00261096 0)
(0.00259088 -0.00339171 0)
(0.00394812 -0.00391488 0)
(0.00538714 -0.00418207 0)
(0.0068534 -0.00419644 0)
(0.00824707 -0.00399578 0)
(0.00951973 -0.00361881 0)
(0.0106108 -0.00311763 0)
(0.0114946 -0.00254 0)
(0.0121467 -0.00193305 0)
(0.0125648 -0.00133417 0)
(0.0127495 -0.000772301 0)
(0.0127124 -0.000264111 0)
(0.0124643 0.000184554 0)
(0.0120168 0.000578971 0)
(0.0113761 0.000933186 0)
(0.0105423 0.00126815 0)
(0.00950656 0.00160866 0)
(0.00825163 0.00198065 0)
(0.00675123 0.00240847 0)
(0.00497199 0.00291289 0)
(0.00287465 0.00350985 0)
(0.000416357 0.00421013 0)
(-0.00244764 0.00501978 0)
(-0.00576205 0.00594096 0)
(-0.00957008 0.00697283 0)
(-0.0139118 0.00811221 0)
(-0.0188229 0.0093538 0)
(-0.0243324 0.01069 0)
(-0.0304615 0.0121104 0)
(-0.0372213 0.0136013 0)
(-0.0446107 0.0151451 0)
(-0.0526152 0.0167203 0)
(-0.0612054 0.0183016 0)
(-0.0703361 0.0198602 0)
(-0.0799469 0.0213646 0)
(-0.0899629 0.0227818 0)
(-0.100296 0.0240781 0)
(-0.110848 0.025221 0)
(-0.121513 0.0261796 0)
(-0.132183 0.0269268 0)
(-0.142745 0.0274395 0)
(-0.153094 0.0276995 0)
(-0.163128 0.027694 0)
(-0.172752 0.0274156 0)
(-0.18188 0.0268618 0)
(-0.19044 0.026035 0)
(-0.198366 0.0249415 0)
(-0.205603 0.023591 0)
(-0.212108 0.0219958 0)
(-0.217844 0.0201703 0)
(-0.222783 0.0181303 0)
(-0.226902 0.0158926 0)
(-0.230186 0.0134746 0)
(-0.232621 0.0108945 0)
(-0.2342 0.00817044 0)
(-0.234917 0.00532131 0)
(-0.234768 0.00236643 0)
(-0.233753 -0.000674108 0)
(-0.231874 -0.00377924 0)
(-0.229132 -0.00692665 0)
(-0.225534 -0.0100925 0)
(-0.221086 -0.013251 0)
(-0.215801 -0.0163747 0)
(-0.209692 -0.0194335 0)
(-0.202778 -0.0223957 0)
(-0.195083 -0.025227 0)
(-0.186638 -0.0278915 0)
(-0.177479 -0.030352 0)
(-0.167651 -0.0325705 0)
(-0.157206 -0.0345091 0)
(-0.146207 -0.0361311 0)
(-0.134723 -0.0374022 0)
(-0.122836 -0.038292 0)
(-0.110633 -0.0387751 0)
(-0.0982127 -0.0388328 0)
(-0.085678 -0.038454 0)
(-0.0731383 -0.037637 0)
(-0.0607066 -0.0363894 0)
(-0.0484969 -0.034729 0)
(-0.0366222 -0.0326837 0)
(-0.0251924 -0.0302908 0)
(-0.0143113 -0.0275963 0)
(-0.00407509 -0.0246534 0)
(0.00542966 -0.021521 0)
(0.0141276 -0.0182618 0)
(0.0219559 -0.0149408 0)
(0.0288648 -0.0116229 0)
(0.0348186 -0.00837149 0)
(0.0397965 -0.00524651 0)
(0.0437926 -0.00230295 0)
(0.0468166 0.000410737 0)
(0.0488941 0.00285401 0)
(0.0500666 0.00499546 0)
(0.0503904 0.00681374 0)
(0.0499365 0.0082982 0)
(0.0487878 0.009449 0)
(0.0470374 0.0102767 0)
(0.0447845 0.0108012 0)
(0.0421317 0.0110505 0)
(0.0391802 0.0110585 0)
(0.0360274 0.0108628 0)
(0.0327616 0.0105031 0)
(0.0294625 0.0100182 0)
(0.0261958 0.00944525 0)
(0.0230173 0.00881717 0)
(0.0199664 0.00816255 0)
(0.0170766 0.00750259 0)
(0.0143643 0.00685268 0)
(0.0118484 0.00621732 0)
(0.00952996 0.00559526 0)
(0.00742675 0.00497086 0)
(0.00553247 0.0043285 0)
(0.00388093 0.00363688 0)
(0.00246191 0.00288534 0)
(0.00134434 0.00205098 0)
(0.000506077 0.00118256 0)
(7.38702e-05 0.000321342 0)
(9.53061e-05 -0.000824305 0)
(0.000638466 -0.00238086 0)
(0.00164936 -0.00369684 0)
(0.00291493 -0.00471665 0)
(0.004399 -0.00537992 0)
(0.00594387 -0.00569183 0)
(0.00749013 -0.00566536 0)
(0.00892823 -0.00535045 0)
(0.0102086 -0.00480134 0)
(0.0112676 -0.00408615 0)
(0.0120801 -0.00326838 0)
(0.0126207 -0.00240883 0)
(0.0128872 -0.00155587 0)
(0.0128786 -0.000745791 0)
(0.0126039 1.07207e-06 0)
(0.0120693 0.000679026 0)
(0.0112808 0.0012969 0)
(0.0102367 0.00187513 0)
(0.00892815 0.00244294 0)
(0.00733613 0.00303436 0)
(0.00543256 0.00368441 0)
(0.00318024 0.00442546 0)
(0.000535433 0.00528457 0)
(-0.00255049 0.00628188 0)
(-0.00612821 0.00743019 0)
(-0.0102483 0.00873551 0)
(-0.0149589 0.010198 0)
(-0.0203036 0.0118132 0)
(-0.0263192 0.0135722 0)
(-0.0330335 0.0154621 0)
(-0.0404628 0.0174657 0)
(-0.0486097 0.0195605 0)
(-0.0574606 0.0217189 0)
(-0.0669842 0.0239078 0)
(-0.0771305 0.0260887 0)
(-0.0878308 0.0282191 0)
(-0.0989992 0.0302537 0)
(-0.110534 0.0321458 0)
(-0.122324 0.0338498 0)
(-0.134246 0.0353228 0)
(-0.146178 0.0365264 0)
(-0.157998 0.0374286 0)
(-0.169588 0.0380044 0)
(-0.18084 0.0382365 0)
(-0.191657 0.0381153 0)
(-0.201956 0.0376386 0)
(-0.211665 0.0368104 0)
(-0.220727 0.0356405 0)
(-0.229095 0.0341426 0)
(-0.236734 0.032334 0)
(-0.243618 0.0302339 0)
(-0.249728 0.027863 0)
(-0.255051 0.0252424 0)
(-0.259578 0.0223936 0)
(-0.263304 0.0193375 0)
(-0.266225 0.0160949 0)
(-0.268339 0.012686 0)
(-0.269643 0.00913088 0)
(-0.270137 0.00544937 0)
(-0.269818 0.00166166 0)
(-0.268684 -0.00221145 0)
(-0.266734 -0.00614813 0)
(-0.263965 -0.0101251 0)
(-0.260376 -0.0141171 0)
(-0.255968 -0.0180966 0)
(-0.250742 -0.0220334 0)
(-0.244703 -0.0258944 0)
(-0.237857 -0.0296436 0)
(-0.230216 -0.0332417 0)
(-0.221799 -0.0366468 0)
(-0.212628 -0.0398146 0)
(-0.202735 -0.0426991 0)
(-0.19216 -0.0452539 0)
(-0.180953 -0.0474328 0)
(-0.169172 -0.0491918 0)
(-0.156889 -0.0504907 0)
(-0.144183 -0.0512946 0)
(-0.131147 -0.0515763 0)
(-0.117881 -0.0513174 0)
(-0.104493 -0.0505104 0)
(-0.0910976 -0.0491592 0)
(-0.0778126 -0.0472806 0)
(-0.0647568 -0.0449037 0)
(-0.052047 -0.0420695 0)
(-0.0397954 -0.0388302 0)
(-0.0281067 -0.0352472 0)
(-0.0170764 -0.0313893 0)
(-0.00678893 -0.0273305 0)
(0.00268322 -0.0231478 0)
(0.0112804 -0.018919 0)
(0.0189556 -0.0147204 0)
(0.0256749 -0.0106259 0)
(0.0314172 -0.00670411 0)
(0.0361744 -0.00301809 0)
(0.0399518 0.000376864 0)
(0.0427683 0.00343425 0)
(0.044657 0.00611775 0)
(0.0456654 0.00840237 0)
(0.0458548 0.0102753 0)
(0.0452998 0.0117363 0)
(0.0440861 0.0127976 0)
(0.0423081 0.0134827 0)
(0.0400651 0.0138251 0)
(0.0374586 0.0138658 0)
(0.0345863 0.0136513 0)
(0.031542 0.01323 0)
(0.0284081 0.0126504 0)
(0.0252591 0.0119578 0)
(0.0221534 0.0111931 0)
(0.0191431 0.010389 0)
(0.0162609 0.00957043 0)
(0.0135415 0.0087493 0)
(0.0109967 0.00792851 0)
(0.00865643 0.00709401 0)
(0.0065192 0.00622761 0)
(0.00463 0.00529386 0)
(0.00297892 0.00427248 0)
(0.00165464 0.00313142 0)
(0.000636145 0.0018994 0)
(9.65423e-05 0.000599916 0)
(0.000104101 -0.00115362 0)
(0.000699122 -0.00321229 0)
(0.00179813 -0.00489844 0)
(0.00315511 -0.00616153 0)
(0.00472269 -0.00695166 0)
(0.00632242 -0.00728191 0)
(0.00788894 -0.0071796 0)
(0.009304 -0.00671016 0)
(0.0105176 -0.0059463 0)
(0.0114646 -0.00497379 0)
(0.0121218 -0.00387285 0)
(0.0124645 -0.00271783 0)
(0.0124909 -0.00156732 0)
(0.0121985 -0.000463574 0)
(0.0115931 0.00057115 0)
(0.0106753 0.00153328 0)
(0.00944314 0.00243714 0)
(0.00788494 0.00331127 0)
(0.0059806 0.00419455 0)
(0.00369869 0.00513101 0)
(0.000998864 0.00616484 0)
(-0.00216754 0.00733585 0)
(-0.00585407 0.00867611 0)
(-0.0101168 0.0102081 0)
(-0.0150109 0.0119441 0)
(-0.0205878 0.0138873 0)
(-0.0268924 0.0160322 0)
(-0.0339602 0.0183665 0)
(-0.0418146 0.0208707 0)
(-0.0504639 0.0235187 0)
(-0.0598985 0.0262775 0)
(-0.0700885 0.0291065 0)
(-0.0809828 0.0319585 0)
(-0.0925083 0.0347798 0)
(-0.104571 0.0375123 0)
(-0.11706 0.0400957 0)
(-0.129851 0.0424696 0)
(-0.142808 0.044577 0)
(-0.155796 0.0463666 0)
(-0.168681 0.0477951 0)
(-0.181336 0.0488287 0)
(-0.193649 0.0494438 0)
(-0.205518 0.0496274 0)
(-0.216861 0.049376 0)
(-0.22761 0.0486948 0)
(-0.237712 0.047596 0)
(-0.247129 0.0460973 0)
(-0.255833 0.0442202 0)
(-0.263807 0.0419889 0)
(-0.27104 0.0394287 0)
(-0.277526 0.0365653 0)
(-0.283265 0.0334238 0)
(-0.288256 0.0300286 0)
(-0.292499 0.0264028 0)
(-0.295998 0.0225685 0)
(-0.298751 0.0185463 0)
(-0.300758 0.0143563 0)
(-0.302019 0.0100177 0)
(-0.30253 0.00554965 0)
(-0.302286 0.000971391 0)
(-0.301282 -0.00369694 0)
(-0.299512 -0.00843398 0)
(-0.296967 -0.0132165 0)
(-0.29364 -0.0180189 0)
(-0.289523 -0.0228126 0)
(-0.284608 -0.0275657 0)
(-0.27889 -0.0322427 0)
(-0.272366 -0.036804 0)
(-0.265034 -0.0412057 0)
(-0.256899 -0.0454003 0)
(-0.24797 -0.0493367 0)
(-0.238264 -0.0529607 0)
(-0.227807 -0.0562165 0)
(-0.216633 -0.0590477 0)
(-0.204787 -0.0613992 0)
(-0.192328 -0.0632192 0)
(-0.179326 -0.0644611 0)
(-0.165864 -0.0650864 0)
(-0.152039 -0.0650666 0)
(-0.137957 -0.0643856 0)
(-0.123734 -0.0630412 0)
(-0.109495 -0.0610465 0)
(-0.0953669 -0.05843 0)
(-0.0814773 -0.0552356 0)
(-0.0679514 -0.0515212 0)
(-0.0549072 -0.0473567 0)
(-0.0424531 -0.0428216 0)
(-0.0306855 -0.0380023 0)
(-0.0196872 -0.0329889 0)
(-0.00952679 -0.0278724 0)
(-0.000258585 -0.0227424 0)
(0.00807647 -0.0176853 0)
(0.01545 -0.0127822 0)
(0.0218452 -0.00810799 0)
(0.0272564 -0.00373014 0)
(0.0316888 0.000292338 0)
(0.0351591 0.00391008 0)
(0.0376955 0.00708461 0)
(0.0393389 0.00978958 0)
(0.0401434 0.0120118 0)
(0.0401753 0.013752 0)
(0.0395131 0.0150245 0)
(0.0382443 0.0158569 0)
(0.0364639 0.0162877 0)
(0.034269 0.0163649 0)
(0.0317578 0.016142 0)
(0.029022 0.0156757 0)
(0.0261493 0.0150217 0)
(0.0232129 0.0142323 0)
(0.0202819 0.0133522 0)
(0.0174048 0.0124168 0)
(0.0146327 0.0114476 0)
(0.0119903 0.0104533 0)
(0.00952144 0.00942404 0)
(0.0072326 0.00834001 0)
(0.00518194 0.00716282 0)
(0.00336372 0.00586041 0)
(0.00188603 0.00438931 0)
(0.000732013 0.00274945 0)
(0.000112561 0.000938637 0)
(0.000111957 -0.00150741 0)
(0.000748747 -0.00410291 0)
(0.00191318 -0.00617171 0)
(0.00332984 -0.00766975 0)
(0.0049387 -0.00856147 0)
(0.0065423 -0.00887287 0)
(0.00806908 -0.0086506 0)
(0.00939372 -0.00797952 0)
(0.0104668 -0.00695387 0)
(0.0112233 -0.00567863 0)
(0.0116432 -0.00425113 0)
(0.011703 -0.00275848 0)
(0.0114022 -0.00126785 0)
(0.0107361 0.000174812 0)
(0.00970634 0.0015479 0)
(0.00830598 0.00285257 0)
(0.00652341 0.00411096 0)
(0.00433477 0.00536151 0)
(0.00170672 0.00665372 0)
(-0.00140568 0.00804166 0)
(-0.00505527 0.00957775 0)
(-0.00930107 0.0113072 0)
(-0.0142038 0.0132643 0)
(-0.0198228 0.0154703 0)
(-0.0262115 0.0179329 0)
(-0.0334145 0.0206475 0)
(-0.0414639 0.0235979 0)
(-0.0503761 0.0267576 0)
(-0.0601484 0.0300904 0)
(-0.0707563 0.0335503 0)
(-0.0821512 0.037082 0)
(-0.09426 0.0406219 0)
(-0.106986 0.0440997 0)
(-0.12021 0.0474407 0)
(-0.133797 0.0505693 0)
(-0.147604 0.0534126 0)
(-0.16148 0.0559042 0)
(-0.175279 0.057987 0)
(-0.188866 0.0596157 0)
(-0.202118 0.0607583 0)
(-0.21493 0.0613957 0)
(-0.227217 0.0615216 0)
(-0.238912 0.0611406 0)
(-0.249964 0.0602664 0)
(-0.26034 0.0589197 0)
(-0.270019 0.057126 0)
(-0.278987 0.0549139 0)
(-0.287242 0.0523134 0)
(-0.294782 0.0493546 0)
(-0.301613 0.0460672 0)
(-0.307739 0.042479 0)
(-0.313167 0.0386165 0)
(-0.317901 0.0345041 0)
(-0.321946 0.0301644 0)
(-0.325307 0.0256184 0)
(-0.327983 0.0208854 0)
(-0.329976 0.0159837 0)
(-0.331284 0.010931 0)
(-0.331904 0.00574457 0)
(-0.331828 0.000442183 0)
(-0.331052 -0.00495764 0)
(-0.329564 -0.0104349 0)
(-0.327355 -0.0159675 0)
(-0.324412 -0.0215306 0)
(-0.320722 -0.0270959 0)
(-0.31627 -0.0326315 0)
(-0.311043 -0.0381007 0)
(-0.305026 -0.043462 0)
(-0.298207 -0.0486689 0)
(-0.290576 -0.0536695 0)
(-0.282128 -0.0584072 0)
(-0.272861 -0.0628208 0)
(-0.262784 -0.0668457 0)
(-0.251911 -0.0704152 0)
(-0.240271 -0.0734625 0)
(-0.227903 -0.0759226 0)
(-0.214862 -0.0777351 0)
(-0.201217 -0.0788473 0)
(-0.187053 -0.0792168 0)
(-0.172472 -0.0788148 0)
(-0.15759 -0.0776283 0)
(-0.142533 -0.0756624 0)
(-0.12744 -0.0729414 0)
(-0.112451 -0.0695085 0)
(-0.0977091 -0.0654253 0)
(-0.0833519 -0.0607694 0)
(-0.0695085 -0.0556314 0)
(-0.0562949 -0.0501113 0)
(-0.0438116 -0.0443143 0)
(-0.0321414 -0.0383472 0)
(-0.0213496 -0.032315 0)
(-0.0114844 -0.0263179 0)
(-0.00257885 -0.0204499 0)
(0.0053471 -0.0147969 0)
(0.0122846 -0.00943676 0)
(0.0182345 -0.00443825 0)
(0.023206 0.000139273 0)
(0.0272176 0.00424666 0)
(0.0302964 0.00784604 0)
(0.0324805 0.0109121 0)
(0.0338187 0.013433 0)
(0.0343718 0.0154118 0)
(0.0342112 0.016866 0)
(0.0334192 0.017827 0)
(0.0320842 0.0183387 0)
(0.0303006 0.0184544 0)
(0.0281613 0.0182343 0)
(0.0257598 0.0177406 0)
(0.0231789 0.0170345 0)
(0.0205002 0.0161709 0)
(0.0177856 0.0151959 0)
(0.0151013 0.0141407 0)
(0.0124853 0.0130215 0)
(0.00999583 0.0118338 0)
(0.00764973 0.0105575 0)
(0.00551894 0.00915217 0)
(0.00360512 0.00757273 0)
(0.00203346 0.00576263 0)
(0.00079351 0.00368779 0)
(0.000122766 0.00131614 0)
(0.000118651 -0.00188626 0)
(0.000787937 -0.00504562 0)
(0.00199719 -0.0075014 0)
(0.00344297 -0.0092183 0)
(0.00505175 -0.0101788 0)
(0.00660871 -0.0104265 0)
(0.00803646 -0.0100328 0)
(0.00920449 -0.00910598 0)
(0.010065 -0.00776522 0)
(0.0105548 -0.00613622 0)
(0.0106577 -0.00433372 0)
(0.0103523 -0.0024564 0)
(0.00963866 -0.000577959 0)
(0.00850932 0.00125482 0)
(0.0069603 0.00302398 0)
(0.00497549 0.0047384 0)
(0.00253155 0.00643038 0)
(-0.000409012 0.00814985 0)
(-0.00389366 0.00995731 0)
(-0.00798061 0.0119159 0)
(-0.0127334 0.0140841 0)
(-0.0182181 0.0165089 0)
(-0.0244972 0.0192224 0)
(-0.0316262 0.0222392 0)
(-0.039648 0.0255568 0)
(-0.0485898 0.0291561 0)
(-0.058459 0.0330035 0)
(-0.06924 0.0370513 0)
(-0.0808912 0.0412396 0)
(-0.093344 0.0454966 0)
(-0.106503 0.0497411 0)
(-0.120246 0.0538849 0)
(-0.134434 0.0578366 0)
(-0.148911 0.0615063 0)
(-0.163516 0.0648098 0)
(-0.178092 0.0676735 0)
(-0.192489 0.0700372 0)
(-0.206575 0.0718566 0)
(-0.220235 0.0731037 0)
(-0.233377 0.0737659 0)
(-0.245933 0.0738451 0)
(-0.25785 0.0733542 0)
(-0.269096 0.0723155 0)
(-0.279651 0.0707573 0)
(-0.289506 0.068712 0)
(-0.298661 0.0662141 0)
(-0.30712 0.0632982 0)
(-0.314891 0.0599983 0)
(-0.321983 0.056347 0)
(-0.328407 0.0523747 0)
(-0.334173 0.0481093 0)
(-0.339289 0.0435767 0)
(-0.343766 0.0388003 0)
(-0.34761 0.0338013 0)
(-0.350826 0.0285991 0)
(-0.353419 0.0232114 0)
(-0.355392 0.0176547 0)
(-0.356745 0.0119447 0)
(-0.357476 0.00609682 0)
(-0.357582 0.000126663 0)
(-0.357057 -0.00594934 0)
(-0.355891 -0.0121133 0)
(-0.354074 -0.0183452 0)
(-0.351591 -0.0246222 0)
(-0.348424 -0.0309179 0)
(-0.344556 -0.0372013 0)
(-0.339963 -0.0434368 0)
(-0.334624 -0.0495828 0)
(-0.328515 -0.0555919 0)
(-0.321611 -0.06141 0)
(-0.31389 -0.0669767 0)
(-0.305334 -0.0722255 0)
(-0.295928 -0.0770844 0)
(-0.285666 -0.081477 0)
(-0.274552 -0.0853249 0)
(-0.262602 -0.088549 0)
(-0.249845 -0.0910735 0)
(-0.23633 -0.0928283 0)
(-0.222125 -0.0937534 0)
(-0.207316 -0.0938023 0)
(-0.192011 -0.0929456 0)
(-0.176335 -0.0911747 0)
(-0.16043 -0.0885031 0)
(-0.144451 -0.0849686 0)
(-0.12856 -0.0806321 0)
(-0.112919 -0.0755761 0)
(-0.0976849 -0.0699015 0)
(-0.0830041 -0.0637232 0)
(-0.0690055 -0.0571643 0)
(-0.0557978 -0.0503517 0)
(-0.0434669 -0.0434103 0)
(-0.032076 -0.0364592 0)
(-0.0216673 -0.0296088 0)
(-0.0122646 -0.0229592 0)
(-0.00387717 -0.016599 0)
(0.00349742 -0.0106061 0)
(0.00986994 -0.0050476 0)
(0.0152581 2.00276e-05 0)
(0.0196857 0.0045509 0)
(0.0231835 0.00851064 0)
(0.0257894 0.0118775 0)
(0.0275511 0.0146434 0)
(0.0285253 0.0168152 0)
(0.0287801 0.0184149 0)
(0.0283914 0.0194785 0)
(0.0274445 0.020055 0)
(0.0260269 0.0202031 0)
(0.0242316 0.0199872 0)
(0.0221445 0.0194737 0)
(0.0198543 0.0187253 0)
(0.0174328 0.0177963 0)
(0.0149579 0.0167277 0)
(0.01248 0.0155424 0)
(0.0100707 0.0142425 0)
(0.00775857 0.012808 0)
(0.00562882 0.011197 0)
(0.00369295 0.00935147 0)
(0.00208984 0.00720144 0)
(0.000816842 0.00467747 0)
(0.000126202 0.00171639 0)
(0.000125107 -0.00228284 0)
(0.000819258 -0.00602016 0)
(0.00205318 -0.00885431 0)
(0.00349655 -0.010761 0)
(0.00506154 -0.0117454 0)
(0.00651847 -0.0118746 0)
(0.0077852 -0.0112498 0)
(0.00872857 -0.0100075 0)
(0.00930388 -0.00829457 0)
(0.00945129 -0.00625864 0)
(0.00915916 -0.00403136 0)
(0.00840809 -0.00172099 0)
(0.00719788 0.000595137 0)
(0.00551699 0.00287286 0)
(0.00335393 0.00510139 0)
(0.000681552 0.00730033 0)
(-0.00253671 0.00951428 0)
(-0.00635271 0.0118054 0)
(-0.0108275 0.0142443 0)
(-0.0160302 0.0169008 0)
(-0.022031 0.0198349 0)
(-0.0288967 0.0230904 0)
(-0.0366837 0.0266904 0)
(-0.0454336 0.030636 0)
(-0.0551677 0.0349067 0)
(-0.0658834 0.0394617 0)
(-0.0775511 0.0442421 0)
(-0.0901115 0.0491727 0)
(-0.103475 0.0541647 0)
(-0.117524 0.0591183 0)
(-0.132115 0.0639274 0)
(-0.147088 0.0684842 0)
(-0.162271 0.0726855 0)
(-0.177493 0.0764378 0)
(-0.19259 0.0796623 0)
(-0.207415 0.0822982 0)
(-0.221841 0.0843038 0)
(-0.235766 0.085657 0)
(-0.24911 0.0863527 0)
(-0.261817 0.0864008 0)
(-0.273852 0.0858227 0)
(-0.285192 0.0846481 0)
(-0.295829 0.0829123 0)
(-0.305763 0.0806534 0)
(-0.315 0.0779108 0)
(-0.323551 0.0747233 0)
(-0.331427 0.0711283 0)
(-0.338643 0.0671612 0)
(-0.345214 0.062855 0)
(-0.351153 0.05824 0)
(-0.356475 0.0533438 0)
(-0.361194 0.0481915 0)
(-0.365323 0.0428053 0)
(-0.368873 0.0372054 0)
(-0.371856 0.0314097 0)
(-0.37428 0.0254344 0)
(-0.376153 0.019294 0)
(-0.377481 0.0130022 0)
(-0.378267 0.00657196 0)