/*--------------------------------*- C++ -*----------------------------------*\
| =========                 |                                                 |
| \\      /  F ield         | OpenFOAM: The Open Source CFD Toolbox           |
|  \\    /   O peration     | Version:  2406                                  |
|   \\  /    A nd           | Website:  www.openfoam.com                      |
|    \\/     M anipulation  |                                                 |
\*---------------------------------------------------------------------------*/
FoamFile
{
    version     2.0;
    format      ascii;
    arch        "LSB;label=32;scalar=64";
    class       volScalarField;
    location    "21.1";
    object      p;
}
// * * * * * * * * * * * * * * * * * * * * * * * * * * * * * * * * * * * * * //

dimensions      [0 2 -2 0 0 0 0];

internalField   nonuniform List<scalar> 
3600
(
0.0284128
0.0284177
0.0284049
0.0283852
0.0283512
0.0283104
0.0282602
0.0282041
0.0281417
0.0280747
0.0280039
0.0279299
0.027854
0.0277763
0.0276979
0.0276189
0.0275405
0.0274633
0.0273895
0.0273208
0.0272606
0.0272125
0.027181
0.0271708
0.0271866
0.0272325
0.027311
0.0274225
0.0275641
0.0277293
0.0279079
0.0280856
0.0282451
0.0283676
0.0284343
0.028429
0.0283401
0.0281629
0.0279003
0.0275633
0.027169
0.0267399
0.0262987
0.0258682
0.0254656
0.0251054
0.0247932
0.0245332
0.024321
0.0241552
0.0240255
0.0239306
0.023858
0.0238102
0.0237736
0.0237568
0.0237437
0.0237497
0.0237525
0.023769
0.0284077
0.0284123
0.0283988
0.0283798
0.0283474
0.0283085
0.0282606
0.028207
0.0281477
0.0280841
0.0280173
0.027948
0.0278773
0.0278055
0.0277334
0.027661
0.0275894
0.0275189
0.0274511
0.0273874
0.0273307
0.0272837
0.0272506
0.0272353
0.0272425
0.0272759
0.0273384
0.0274309
0.0275513
0.0276942
0.0278505
0.0280068
0.0281471
0.0282532
0.028307
0.0282927
0.0281988
0.028021
0.0277619
0.0274329
0.0270509
0.0266381
0.0262165
0.025808
0.0254283
0.0250903
0.024798
0.0245545
0.0243546
0.0241971
0.0240717
0.0239782
0.0239044
0.0238541
0.0238133
0.023792
0.0237726
0.023773
0.0237687
0.0237853
0.0284212
0.0284254
0.0284113
0.028391
0.0283581
0.0283181
0.0282698
0.0282154
0.0281557
0.0280916
0.0280248
0.0279556
0.0278855
0.0278142
0.0277427
0.0276705
0.0275983
0.0275262
0.0274553
0.0273867
0.027323
0.027267
0.0272227
0.0271949
0.0271887
0.027209
0.0272597
0.0273425
0.0274566
0.027597
0.0277547
0.0279163
0.0280649
0.0281814
0.0282463
0.0282421
0.028156
0.0279822
0.0277227
0.0273889
0.0269986
0.0265756
0.026144
0.0257279
0.0253445
0.0250074
0.0247203
0.0244856
0.0242963
0.02415
0.0240352
0.023951
0.0238846
0.0238401
0.0238028
0.0237845
0.0237656
0.0237683
0.0237635
0.0237873
0.0284424
0.0284432
0.0284283
0.028406
0.0283731
0.0283324
0.0282844
0.0282298
0.0281707
0.0281071
0.0280416
0.0279737
0.0279053
0.0278355
0.0277651
0.0276928
0.0276187
0.0275418
0.0274629
0.027382
0.0273013
0.0272235
0.027153
0.0270952
0.0270564
0.0270428
0.0270602
0.027112
0.027199
0.0273176
0.0274603
0.0276144
0.0277637
0.0278886
0.0279688
0.0279852
0.0279229
0.0277734
0.0275366
0.0272218
0.026846
0.0264331
0.0260086
0.0255983
0.0252214
0.0248931
0.0246176
0.0243971
0.0242236
0.0240934
0.0239935
0.0239225
0.0238662
0.0238297
0.023797
0.0237817
0.0237626
0.0237662
0.0237594
0.0237881
0.0284809
0.0284764
0.0284604
0.0284344
0.0284003
0.0283566
0.028307
0.0282494
0.0281881
0.0281214
0.0280531
0.0279818
0.0279096
0.0278343
0.0277565
0.0276733
0.0275841
0.0274865
0.0273803
0.0272648
0.0271421
0.0270153
0.0268901
0.0267735
0.0266742
0.0266009
0.0265623
0.0265646
0.0266111
0.026701
0.0268286
0.0269829
0.0271482
0.0273048
0.0274308
0.0275045
0.0275067
0.0274241
0.027251
0.0269917
0.0266597
0.0262771
0.02587
0.0254667
0.0250903
0.0247602
0.0244841
0.0242665
0.0240998
0.0239804
0.0238936
0.0238367
0.0237939
0.0237697
0.0237467
0.0237398
0.0237258
0.0237342
0.023729
0.0237625
0.0285287
0.0285172
0.0285001
0.0284698
0.0284351
0.0283884
0.0283374
0.0282767
0.0282129
0.0281425
0.0280704
0.0279934
0.027914
0.0278277
0.0277343
0.0276284
0.027508
0.0273682
0.0272077
0.0270246
0.0268213
0.0266015
0.0263733
0.0261462
0.025933
0.0257466
0.0256001
0.0255042
0.0254671
0.025492
0.0255773
0.025715
0.025892
0.0260896
0.0262855
0.0264551
0.0265746
0.0266234
0.0265873
0.0264611
0.0262492
0.025967
0.0256368
0.0252871
0.0249439
0.0246319
0.0243648
0.0241522
0.0239903
0.0238774
0.023799
0.0237523
0.0237201
0.0237063
0.0236922
0.0236925
0.0236831
0.0236948
0.0236906
0.0237254
0.0285895
0.0285694
0.0285514
0.0285158
0.0284798
0.0284283
0.0283744
0.0283078
0.0282386
0.02816
0.0280786
0.0279883
0.027891
0.0277793
0.0276507
0.0274967
0.0273122
0.0270899
0.0268267
0.0265204
0.0261744
0.0257953
0.0253954
0.0249897
0.024597
0.0242367
0.0239281
0.0236879
0.0235293
0.0234605
0.0234841
0.0235963
0.0237871
0.0240401
0.0243338
0.0246425
0.0249379
0.0251921
0.02538
0.0254826
0.02549
0.0254038
0.0252357
0.0250087
0.0247493
0.0244875
0.0242455
0.0240423
0.0238821
0.023769
0.0236916
0.0236486
0.0236223
0.0236159
0.0236096
0.0236171
0.0236137
0.0236293
0.0236275
0.0236621
0.0286582
0.0286283
0.0286099
0.0285688
0.0285321
0.0284757
0.0284185
0.028345
0.0282685
0.0281785
0.028082
0.0279693
0.0278404
0.0276832
0.0274916
0.0272521
0.0269563
0.0265935
0.02616
0.0256546
0.0250848
0.0244632
0.0238096
0.0231477
0.0225045
0.0219069
0.021381
0.0209487
0.0206282
0.0204314
0.0203649
0.0204286
0.0206167
0.0209169
0.0213112
0.0217758
0.0222823
0.0227985
0.0232905
0.0237253
0.0240743
0.0243177
0.0244469
0.0244678
0.0243982
0.0242675
0.0241055
0.0239438
0.0238001
0.0236901
0.0236108
0.0235652
0.0235381
0.0235327
0.0235289
0.0235392
0.0235389
0.0235557
0.0235551
0.023587
0.0287334
0.0286926
0.0286742
0.0286268
0.028589
0.0285261
0.0284636
0.0283797
0.0282909
0.0281815
0.0280585
0.0279062
0.0277212
0.0274846
0.0271853
0.0268033
0.0263271
0.0257442
0.0250536
0.0242597
0.0233791
0.0224349
0.0214588
0.0204849
0.0195494
0.0186856
0.0179239
0.0172885
0.0167989
0.0164677
0.0163028
0.0163058
0.0164743
0.0168005
0.017272
0.0178711
0.018575
0.0193545
0.0201744
0.0209946
0.0217713
0.0224622
0.02303
0.0234511
0.0237178
0.0238441
0.023858
0.0238013
0.0237098
0.0236184
0.0235403
0.0234892
0.0234557
0.0234453
0.0234392
0.0234482
0.0234483
0.0234644
0.0234644
0.0234928
0.0288108
0.0287581
0.0287405
0.0286871
0.0286485
0.0285784
0.0285093
0.0284118
0.0283049
0.0281661
0.0280006
0.0277843
0.0275084
0.027145
0.0266767
0.0260781
0.0253369
0.0244438
0.0234067
0.0222423
0.0209828
0.0196662
0.0183377
0.0170412
0.0158188
0.0147061
0.013733
0.012921
0.0122864
0.0118388
0.0115836
0.0115222
0.0116534
0.0119728
0.0124743
0.0131485
0.0139823
0.0149571
0.0160474
0.0172181
0.0184239
0.01961
0.020715
0.0216796
0.0224545
0.0230147
0.0233624
0.0235325
0.0235737
0.0235455
0.0234882
0.0234362
0.0233941
0.0233731
0.0233585
0.0233604
0.0233564
0.0233682
0.0233667
0.0233908
0.0288838
0.0288183
0.028802
0.0287417
0.0287016
0.0286217
0.0285421
0.0284242
0.0282886
0.0281036
0.0278703
0.0275538
0.0271376
0.0265836
0.0258696
0.0249684
0.0238737
0.0225879
0.0211366
0.0195566
0.0178996
0.0162192
0.0145712
0.0130037
0.0115586
0.0102668
0.00915178
0.00822793
0.00750456
0.00698522
0.00667125
0.00656106
0.00665285
0.00694377
0.00743164
0.0081137
0.00898698
0.0100459
0.0112808
0.0126734
0.0141934
0.0157943
0.0174109
0.0189624
0.0203592
0.0215214
0.0223943
0.0229703
0.023284
0.0234091
0.0234199
0.023386
0.0233395
0.0233057
0.0232782
0.0232681
0.0232559
0.0232607
0.0232559
0.023276
0.028947
0.028868
0.028854
0.0287867
0.0287445
0.0286527
0.0285582
0.0284115
0.0282329
0.0279789
0.0276436
0.0271789
0.0265598
0.0257398
0.024697
0.0234105
0.0218906
0.0201617
0.0182753
0.0162911
0.0142788
0.0123016
0.0104176
0.00867042
0.00709395
0.00570889
0.00452885
0.00355903
0.00280148
0.00225392
0.00191365
0.00177626
0.00183852
0.0020972
0.00255129
0.00320095
0.00404879
0.00509833
0.00635333
0.0078143
0.00947411
0.0113115
0.0132831
0.0153178
0.0173142
0.0191511
0.0207062
0.021892
0.0226794
0.0231156
0.0232931
0.0233254
0.0232918
0.0232479
0.0232047
0.0231781
0.0231535
0.0231479
0.0231377
0.0231537
0.028988
0.028895
0.0288832
0.0288075
0.0287606
0.0286518
0.0285342
0.028345
0.0281021
0.0277469
0.0272648
0.0265932
0.0257005
0.0245377
0.0230924
0.0213621
0.0193852
0.0172157
0.0149327
0.0126142
0.0103389
0.00816845
0.00615285
0.00432335
0.00270102
0.00129442
0.000107531
-0.000861947
-0.00161699
-0.00216341
-0.00250602
-0.00265081
-0.00260209
-0.00236412
-0.0019387
-0.00132617
-0.000523389
0.000475625
0.00168046
0.00310278
0.00475372
0.00663875
0.00874845
0.0110481
0.013464
0.0158783
0.0181332
0.0200612
0.0215291
0.0224919
0.0230047
0.0232024
0.0232255
0.0231849
0.0231275
0.0230816
0.0230414
0.0230229
0.0230055
0.0230176
0.0289993
0.0288921
0.0288828
0.0287977
0.0287435
0.0286122
0.0284614
0.0282125
0.0278783
0.0273825
0.0267006
0.0257574
0.024521
0.0229497
0.0210539
0.0188613
0.0164457
0.0138907
0.0112958
0.00874535
0.00631361
0.0040495
0.00198765
0.000143485
-0.00147468
-0.00286818
-0.00403917
-0.00499379
-0.00573658
-0.00627402
-0.00661083
-0.00675307
-0.00670525
-0.0064725
-0.00605804
-0.00546432
-0.0046907
-0.00373361
-0.00258483
-0.00123114
0.000345161
0.00216491
0.0042453
0.00659159
0.00917925
0.0119376
0.0147322
0.017369
0.0196262
0.0213247
0.0223999
0.0229359
0.0231087
0.0231064
0.023044
0.0229781
0.0229198
0.0228856
0.0228593
0.0228669
0.0289628
0.0288413
0.0288333
0.0287356
0.0286685
0.0285053
0.0283061
0.0279742
0.0275147
0.0268326
0.0258947
0.0246189
0.022983
0.0209656
0.0186119
0.0159869
0.0131986
0.0103511
0.00754995
0.00487138
0.0023741
8.76643e-05
-0.00197038
-0.00379858
-0.00539747
-0.00677374
-0.00793134
-0.00887657
-0.00961271
-0.0101449
-0.0104763
-0.0106121
-0.0105567
-0.0103155
-0.00989338
-0.00929504
-0.00852329
-0.00757876
-0.00645815
-0.00515266
-0.00364742
-0.00191938
5.9199e-05
0.00231866
0.00487696
0.00772393
0.0107906
0.0139273
0.0168979
0.0194221
0.0212719
0.0223785
0.0228687
0.0229817
0.0229393
0.0228577
0.0227803
0.0227276
0.022691
0.0226925
0.0288697
0.0287343
0.0287265
0.0286135
0.0285273
0.0283219
0.028057
0.0276159
0.0269937
0.026078
0.0248313
0.0231743
0.0211067
0.0186399
0.0158612
0.0128713
0.00980255
0.00676389
0.00385203
0.00112353
-0.00138395
-0.00366048
-0.0057022
-0.00751661
-0.00910782
-0.0104833
-0.0116451
-0.0125972
-0.01334
-0.0138763
-0.0142072
-0.0143367
-0.0142687
-0.0140091
-0.0135637
-0.0129396
-0.0121427
-0.011178
-0.0100478
-0.0087499
-0.00727667
-0.00561087
-0.00372747
-0.00158928
0.000843018
0.00360423
0.00669437
0.0100476
0.0134923
0.0167412
0.019451
0.0213478
0.0223886
0.0227655
0.0227981
0.0227152
0.02262
0.0225451
0.0224965
0.0224889
0.028698
0.0285489
0.0285381
0.0284046
0.02829
0.0280283
0.0276763
0.0270961
0.0262727
0.0250801
0.0234844
0.0214202
0.0189212
0.0160391
0.0129024
0.00963766
0.00638588
0.00324532
0.000292481
-0.00244058
-0.00493647
-0.00720052
-0.00923678
-0.0110561
-0.0126615
-0.0140578
-0.0152434
-0.0162186
-0.0169802
-0.0175287
-0.0178633
-0.017987
-0.0179033
-0.0176184
-0.0171392
-0.0164745
-0.0156329
-0.0146227
-0.0134513
-0.0121226
-0.0106371
-0.00898637
-0.00715474
-0.00511037
-0.00281202
-0.000204712
0.0027573
0.00608764
0.00971517
0.0134341
0.0168966
0.0196813
0.021502
0.0223682
0.0225881
0.0225362
0.0224309
0.0223294
0.0222665
0.0222458
0.0284403
0.0282787
0.0282619
0.0281032
0.0279508
0.027619
0.0271585
0.0264107
0.0253522
0.0238495
0.0218818
0.0194095
0.0165083
0.013271
0.00985885
0.00640929
0.00305609
-0.000124702
-0.00308147
-0.00580548
-0.00829463
-0.0105633
-0.0126177
-0.0144674
-0.0161112
-0.0175498
-0.0187765
-0.0197881
-0.0205782
-0.0211449
-0.021486
-0.021604
-0.021502
-0.0211869
-0.0206667
-0.0199515
-0.0190522
-0.0179795
-0.016745
-0.0153566
-0.0138223
-0.0121415
-0.0103102
-0.00830715
-0.00610123
-0.00363711
-0.000851572
0.00232002
0.00589669
0.00979093
0.0137505
0.0173313
0.0200602
0.021651
0.0222612
0.0223009
0.0222063
0.0220748
0.0219942
0.0219549
0.028075
0.0279015
0.0278737
0.0276832
0.0274813
0.0270636
0.0264727
0.0255316
0.0242117
0.0223808
0.0200405
0.0171855
0.0139359
0.0104194
0.00681644
0.00325977
-0.000135837
-0.00332185
-0.00627046
-0.00899122
-0.011491
-0.0137872
-0.0158838
-0.0177861
-0.0194875
-0.0209835
-0.022263
-0.0233191
-0.0241428
-0.0247304
-0.0250787
-0.0251897
-0.0250667
-0.0247174
-0.0241511
-0.0233791
-0.0224146
-0.0212701
-0.0199601
-0.0184956
-0.0168897
-0.0151476
-0.0132754
-0.0112627
-0.00909353
-0.00672344
-0.00409331
-0.00111846
0.00227689
0.00611173
0.0102713
0.0144061
0.0179926
0.0204705
0.0217137
0.0219836
0.0219251
0.0217731
0.0216681
0.0216049
0.0276013
0.0274176
0.0273746
0.027147
0.0268856
0.0263691
0.0256304
0.0244778
0.0228824
0.0207219
0.0180282
0.0148347
0.0113023
0.00758289
0.0038613
0.000253336
-0.00315146
-0.00633173
-0.00927876
-0.012014
-0.0145473
-0.0168949
-0.0190554
-0.0210287
-0.0228021
-0.0243666
-0.0257067
-0.0268128
-0.0276733
-0.0282832
-0.0286383
-0.0287405
-0.0285937
-0.0282063
-0.0275893
-0.0267555
-0.0257203
-0.0244979
-0.0231057
-0.0215562
-0.0198664
-0.0180448
-0.016105
-0.014045
-0.0118633
-0.00953015
-0.00700255
-0.00419878
-0.00102136
0.00261884
0.00673453
0.0111292
0.0153608
0.0187455
0.020805
0.021544
0.0215611
0.021413
0.0212787
0.0211845
0.0270034
0.0268108
0.0267468
0.0264762
0.0261447
0.0255177
0.0246178
0.0232438
0.0213716
0.0188966
0.0158856
0.0124104
0.0086645
0.00481105
0.00102701
-0.00259624
-0.0059954
-0.00917231
-0.0121314
-0.0149
-0.0174867
-0.0199035
-0.0221426
-0.0241982
-0.0260521
-0.027691
-0.0290959
-0.0302543
-0.0311529
-0.0317852
-0.0321462
-0.0322376
-0.032064
-0.0316348
-0.0309628
-0.0300626
-0.0289524
-0.027648
-0.0261699
-0.0245314
-0.0227532
-0.0208444
-0.018824
-0.0166946
-0.0144666
-0.0121234
-0.00964193
-0.00695583
-0.0039722
-0.000570884
0.00335064
0.00774588
0.0123417
0.0164782
0.0194449
0.0208676
0.0211083
0.0209605
0.0208202
0.0206768
0.0262923
0.0260933
0.0260044
0.0256872
0.0252789
0.0245354
0.0234686
0.0218741
0.0197369
0.0169762
0.0136945
0.0099977
0.00610131
0.0021683
-0.00164102
-0.00526216
-0.0086555
-0.0118404
-0.0148288
-0.0176493
-0.0203062
-0.022806
-0.0251345
-0.0272803
-0.0292206
-0.0309382
-0.032411
-0.0336243
-0.0345624
-0.0352175
-0.0355839
-0.035663
-0.0354601
-0.0349856
-0.0342547
-0.0332835
-0.0320939
-0.0307033
-0.0291361
-0.0274062
-0.0255378
-0.0235396
-0.0214344
-0.019226
-0.0169333
-0.0145486
-0.0120679
-0.00944372
-0.00660294
-0.00342374
0.000241528
0.00446155
0.0091512
0.01378
0.017612
0.0198256
0.020551
0.0203857
0.0202818
0.0200659
0.0254624
0.0252591
0.0251407
0.0247739
0.0242834
0.0234207
0.0221875
0.0203822
0.018002
0.0149934
0.0114919
0.00763084
0.00363731
-0.000334841
-0.00414653
-0.00775895
-0.0111518
-0.0143565
-0.0173879
-0.0202725
-0.0230094
-0.0255991
-0.0280213
-0.0302603
-0.0322889
-0.0340867
-0.0356287
-0.0368975
-0.0378756
-0.0385535
-0.0389247
-0.03899
-0.0387559
-0.0382333
-0.0374403
-0.0363944
-0.0351218
-0.0336415
-0.0319824
-0.0301593
-0.0282004
-0.0261134
-0.0239245
-0.0216359
-0.0192723
-0.01683
-0.0143205
-0.0117133
-0.0089612
-0.00595809
-0.00254807
0.00140862
0.00598086
0.0108336
0.0153371
0.01838
0.0197855
0.0196991
0.0196229
0.0193439
0.0245389
0.0243352
0.024185
0.0237691
0.0231957
0.0222176
0.0208268
0.0188293
0.0162366
0.0130232
0.00935267
0.00537786
0.00132844
-0.0026564
-0.00645984
-0.0100654
-0.0134672
-0.0167036
-0.0197893
-0.0227474
-0.0255706
-0.0282542
-0.0307729
-0.0331067
-0.0352249
-0.0371042
-0.0387166
-0.0400422
-0.0410613
-0.0417624
-0.0421385
-0.0421896
-0.0419233
-0.041351
-0.0404938
-0.0393707
-0.0380125
-0.0364396
-0.0346866
-0.0327687
-0.0307194
-0.0285447
-0.026275
-0.0239092
-0.0214761
-0.0189716
-0.0164185
-0.0137988
-0.0110905
-0.00821142
-0.00502087
-0.00134975
0.00297462
0.00782108
0.0127254
0.0165546
0.0186868
0.0189183
0.0187989
0.0185056
0.0235268
0.0233257
0.0231418
0.0226779
0.0220229
0.0209366
0.0194014
0.0172356
0.0144644
0.0110891
0.00729506
0.00324774
-0.000827568
-0.00480854
-0.00859942
-0.0122015
-0.0156193
-0.0188944
-0.0220396
-0.0250732
-0.027983
-0.0307589
-0.0333718
-0.035798
-0.0380038
-0.0399628
-0.0416444
-0.0430257
-0.0440852
-0.0448091
-0.0451898
-0.0452262
-0.0449274
-0.0443047
-0.0433829
-0.0421818
-0.0407372
-0.0390708
-0.0372233
-0.0352104
-0.0330715
-0.0308112
-0.0284646
-0.0260263
-0.0235292
-0.0209652
-0.0183653
-0.0157178
-0.0130227
-0.0102224
-0.00720331
-0.00379981
0.000220437
0.00488661
0.00993657
0.0143915
0.0172249
0.0180011
0.0178043
0.0175341
0.022464
0.0222703
0.0220535
0.0215464
0.0208157
0.0196337
0.0179731
0.0156679
0.0127549
0.00925955
0.00538225
0.00129509
-0.00278553
-0.00675401
-0.0105329
-0.014137
-0.0175771
-0.020896
-0.024103
-0.0272124
-0.0302069
-0.0330725
-0.0357765
-0.0382922
-0.0405832
-0.04262
-0.0443694
-0.0458055
-0.0469049
-0.0476513
-0.0480369
-0.0480592
-0.0477289
-0.047057
-0.0460721
-0.0447941
-0.0432649
-0.0415061
-0.0395658
-0.037459
-0.0352328
-0.0328895
-0.0304704
-0.0279652
-0.0254113
-0.0227944
-0.0201517
-0.017472
-0.0147735
-0.0120191
-0.00912605
-0.00595292
-0.00224187
0.00213257
0.00712859
0.0119635
0.0154495
0.0168514
0.0166679
0.0164013
0.0213617
0.0211791
0.0209304
0.020385
0.0195854
0.0183219
0.0165564
0.0141408
0.0111203
0.00754135
0.00361283
-0.000490473
-0.00456332
-0.00851489
-0.012283
-0.0158916
-0.0193557
-0.0227172
-0.0259827
-0.0291619
-0.0322341
-0.0351816
-0.0379691
-0.0405671
-0.0429369
-0.0450457
-0.0468581
-0.0483451
-0.0494816
-0.0502488
-0.0506387
-0.0506471
-0.0502868
-0.0495678
-0.0485227
-0.0471713
-0.0455613
-0.043714
-0.0416849
-0.0394882
-0.0371789
-0.0347567
-0.0322706
-0.0297045
-0.0271018
-0.0244401
-0.0217626
-0.0190538
-0.0163465
-0.0136172
-0.0108148
-0.00782964
-0.00440527
-0.00037484
0.00442383
0.00938355
0.013432
0.0154138
0.0154268
0.0150987
0.0202652
0.020099
0.0198222
0.0192467
0.0183886
0.0170608
0.0152139
0.0127186
0.00962438
0.00599503
0.00204232
-0.00205908
-0.00611583
-0.0100491
-0.0138085
-0.0174238
-0.0209124
-0.0243142
-0.0276333
-0.0308758
-0.0340178
-0.0370392
-0.0399023
-0.0425751
-0.0450167
-0.0471915
-0.049062
-0.0505959
-0.0517671
-0.0525536
-0.0529482
-0.0529441
-0.0525567
-0.0517944
-0.0506945
-0.0492752
-0.0475911
-0.0456617
-0.043551
-0.0412704
-0.0388848
-0.0363895
-0.0338431
-0.0312227
-0.0285796
-0.0258817
-0.0231794
-0.0204483
-0.0177346
-0.0150204
-0.012285
-0.00944879
-0.00627803
-0.002599
0.001906
0.00678204
0.0112424
0.0137085
0.014085
0.0136367
0.0191845
0.0190386
0.0187371
0.0181388
0.0172321
0.0158566
0.0139503
0.0114027
0.00826356
0.00461042
0.000653253
-0.00343434
-0.00747043
-0.0113847
-0.0151357
-0.018756
-0.0222646
-0.0256992
-0.0290619
-0.0323558
-0.0355553
-0.0386376
-0.0415638
-0.0442993
-0.0468017
-0.0490323
-0.0509522
-0.0525258
-0.0537265
-0.054529
-0.0549271
-0.0549112
-0.0544998
-0.0536985
-0.0525503
-0.0510704
-0.0493208
-0.047318
-0.045135
-0.0427795
-0.0403264
-0.0377661
-0.0351676
-0.0325004
-0.0298257
-0.0271001
-0.0243832
-0.0216384
-0.0189253
-0.0162234
-0.0135419
-0.0108235
-0.00787235
-0.00452474
-0.000370496
0.0042746
0.00895138
0.0117945
0.0126067
0.0120291
0.0181663
0.0180457
0.0177258
0.0171146
0.0161719
0.014767
0.0128244
0.0102521
0.00709573
0.00344323
-0.000501029
-0.0045651
-0.00857725
-0.0124724
-0.0162151
-0.0198387
-0.0233627
-0.0268225
-0.0302191
-0.0335532
-0.0367981
-0.039929
-0.042906
-0.0456923
-0.0482445
-0.0505208
-0.0524819
-0.0540885
-0.0553142
-0.0561302
-0.056532
-0.0565063
-0.0560756
-0.0552416
-0.0540534
-0.0525223
-0.0507183
-0.0486532
-0.0464099
-0.0439904
-0.0414812
-0.0388657
-0.036225
-0.0335194
-0.0308222
-0.028077
-0.0253556
-0.0226058
-0.0199022
-0.0172147
-0.014582
-0.0119586
-0.00919711
-0.00614836
-0.00236948
0.00195092
0.00664215
0.00974663
0.0109672
0.0103019
0.0172121
0.0171195
0.0167865
0.0161704
0.0152023
0.013784
0.0118251
0.00925139
0.00610036
0.00246739
-0.00145168
-0.00548597
-0.0094724
-0.0133476
-0.01708
-0.0207016
-0.0242324
-0.0277056
-0.0311221
-0.0344807
-0.0377547
-0.0409174
-0.0439289
-0.04675
-0.049337
-0.0516455
-0.0536359
-0.0552656
-0.0565093
-0.057334
-0.057738
-0.0577034
-0.0572574
-0.0563969
-0.0551777
-0.0536054
-0.0517591
-0.049644
-0.0473538
-0.0448831
-0.0423307
-0.0396711
-0.0369995
-0.0342645
-0.0315543
-0.0287974
-0.0260806
-0.0233336
-0.0206488
-0.0179797
-0.0153957
-0.0128522
-0.0102559
-0.00747018
-0.00406666
-0.000123653
0.00440835
0.00764956
0.00919451
0.00850448
0.0163655
0.016305
0.0159667
0.0153562
0.0143758
0.0129611
0.0110067
0.00845498
0.00533182
0.00173723
-0.00214396
-0.00614175
-0.0101
-0.0139543
-0.0176746
-0.02129
-0.0248204
-0.0282971
-0.0317213
-0.0350907
-0.0383792
-0.0415587
-0.0445899
-0.047431
-0.0500395
-0.0523675
-0.0543769
-0.0560211
-0.0572772
-0.0581072
-0.0585137
-0.0584726
-0.0580174
-0.057138
-0.0558984
-0.0542968
-0.052422
-0.0502708
-0.0479488
-0.0454409
-0.0428597
-0.0401685
-0.037478
-0.0347232
-0.0320096
-0.0292481
-0.0265444
-0.0238064
-0.0211486
-0.0185025
-0.0159699
-0.0134962
-0.0110463
-0.00848921
-0.00544462
-0.00190059
0.00234367
0.00559556
0.00736594
0.00670527
0.0156138
0.0155857
0.0152482
0.0146508
0.0136686
0.0122713
0.0103386
0.00782833
0.00475157
0.00121062
-0.00262287
-0.00657893
-0.010507
-0.0143384
-0.0180429
-0.0216452
-0.0251651
-0.0286319
-0.0320484
-0.0354114
-0.0386966
-0.0418744
-0.0449071
-0.0477505
-0.0503638
-0.0526959
-0.0547113
-0.0563588
-0.0576193
-0.0584493
-0.0588565
-0.0588099
-0.05835
-0.0574585
-0.0562086
-0.0545887
-0.0526991
-0.0505256
-0.048187
-0.045656
-0.0430607
-0.0403502
-0.0376533
-0.034888
-0.0321802
-0.0294202
-0.0267365
-0.024012
-0.0213879
-0.0187678
-0.01629
-0.0138793
-0.0115615
-0.00920184
-0.00649076
-0.00334391
0.000529106
0.00367595
0.00557578
0.00497565
0.0149966
0.0150032
0.014675
0.0141012
0.0131302
0.0117654
0.00987269
0.00742393
0.00441351
0.000943246
-0.00283012
-0.00673703
-0.0106311
-0.0144375
-0.0181237
-0.0217084
-0.0252109
-0.0286583
-0.0320554
-0.0353985
-0.038666
-0.0418271
-0.0448462
-0.0476772
-0.0502817
-0.0526051
-0.0546159
-0.0562579
-0.0575174
-0.0583441
-0.0587524
-0.058703
-0.0582449
-0.0573496
-0.0561007
-0.054475
-0.0525851
-0.0504037
-0.0480643
-0.0455247
-0.0429304
-0.040213
-0.0375219
-0.0347549
-0.0320615
-0.0293078
-0.0266498
-0.023941
-0.0213552
-0.018762
-0.0163418
-0.0139882
-0.0117919
-0.00960144
-0.00719488
-0.00442665
-0.000971933
0.00197309
0.00391115
0.00337966
0.0144828
0.0145215
0.0142085
0.0136647
0.0127149
0.0113941
0.00955615
0.00718588
0.00425914
0.000875019
-0.00282671
-0.00667686
-0.0105325
-0.0143105
-0.0179744
-0.0215352
-0.0250113
-0.0284274
-0.0317911
-0.0350983
-0.0383313
-0.0414581
-0.0444468
-0.0472482
-0.0498285
-0.0521286
-0.0541228
-0.0557488
-0.057
-0.0578181
-0.0582261
-0.0581747
-0.0577228
-0.0568299
-0.0555916
-0.0539704
-0.0520932
-0.0499166
-0.0475909
-0.0450554
-0.0424757
-0.0397623
-0.0370882
-0.0343265
-0.0316548
-0.02891
-0.0262815
-0.023588
-0.0210426
-0.0184747
-0.0161133
-0.0138103
-0.0117267
-0.00968
-0.00754874
-0.00512938
-0.00211349
0.000555906
0.0024436
0.00197167
0.0141117
0.0141822
0.0138927
0.0133888
0.0124734
0.01121
0.00944316
0.0071693
0.00434565
0.00106575
-0.00254901
-0.00633155
-0.010142
-0.0138879
-0.017527
-0.0210613
-0.024507
-0.0278856
-0.0312077
-0.0344689
-0.0376563
-0.0407365
-0.0436827
-0.0464424
-0.0489875
-0.0512539
-0.0532232
-0.0548261
-0.0560651
-0.0568722
-0.0572811
-0.0572304
-0.0567912
-0.0559083
-0.0546913
-0.0530856
-0.0512346
-0.0490753
-0.0467775
-0.0442584
-0.0417064
-0.0390067
-0.0363596
-0.0336085
-0.0309643
-0.0282292
-0.025632
-0.0229507
-0.0204455
-0.0178981
-0.0155948
-0.0133344
-0.0113559
-0.00942898
-0.00754529
-0.00543796
-0.00286278
-0.000519045
0.00123234
0.000800324
0.0138306
0.0139273
0.0136654
0.0132059
0.0123346
0.0111383
0.00945571
0.00729384
0.00459129
0.00143396
-0.00207754
-0.00577946
-0.0095359
-0.0132437
-0.016854
-0.0203572
-0.0237671
-0.0271003
-0.0303713
-0.0335747
-0.036704
-0.0397238
-0.0426144
-0.0453189
-0.047817
-0.0500383
-0.0519738
-0.0535454
-0.0547669
-0.055559
-0.0559684
-0.0559188
-0.0554964
-0.0546282
-0.0534404
-0.051858
-0.0500437
-0.0479112
-0.0456528
-0.043159
-0.0406452
-0.0379656
-0.0353529
-0.0326149
-0.0300015
-0.0272735
-0.024707
-0.0220316
-0.0195641
-0.017029
-0.0147809
-0.0125529
-0.0106719
-0.00884147
-0.0071795
-0.00534287
-0.00319667
-0.001205
0.000330002
-8.6404e-05
0.0136858
0.0138064
0.013579
0.0131726
0.0123584
0.0112416
0.00965799
0.00762414
0.00506205
0.00204749
-0.00134077
-0.00494567
-0.00863612
-0.0122992
-0.015878
-0.0193499
-0.0227244
-0.0260119
-0.0292302
-0.0323721
-0.0354384
-0.0383914
-0.0412199
-0.043862
-0.0463073
-0.0484773
-0.0503749
-0.0519114
-0.0531146
-0.053891
-0.0543033
-0.0542578
-0.0538583
-0.0530108
-0.0518613
-0.0503106
-0.0485439
-0.046447
-0.044239
-0.0417784
-0.0393119
-0.0366571
-0.0340846
-0.0313598
-0.0287785
-0.0260526
-0.0235142
-0.0208356
-0.0184011
-0.0158675
-0.0136698
-0.0114614
-0.00967026
-0.00791297
-0.00644884
-0.0048384
-0.00309876
-0.00146197
-0.000211809
-0.00063641
0.0135996
0.013736
0.0135441
0.0131926
0.0124441
0.0114151
0.00994241
0.00805113
0.00564839
0.00279871
-0.000443607
-0.00393045
-0.0075388
-0.0111458
-0.0146871
-0.0181244
-0.0214622
-0.0247018
-0.0278651
-0.0309406
-0.0339387
-0.0368176
-0.0395775
-0.0421493
-0.0445356
-0.0466476
-0.0485032
-0.05
-0.0511828
-0.0519414
-0.0523575
-0.0523166
-0.0519435
-0.0511195
-0.0500143
-0.0484995
-0.0467876
-0.0447311
-0.0425806
-0.0401563
-0.0377426
-0.0351128
-0.0325827
-0.0298667
-0.0273158
-0.024583
-0.0220675
-0.0193733
-0.0169651
-0.0144189
-0.0122654
-0.0100613
-0.00835225
-0.00664371
-0.00535537
-0.00392385
-0.0025592
-0.00125615
-0.000340119
-0.000791215
0.0136373
0.0137871
0.0136342
0.0133442
0.0126732
0.0117435
0.0103946
0.00865939
0.00643389
0.00377002
0.000697771
-0.00264822
-0.0061552
-0.00969368
-0.0131918
-0.0165948
-0.0199004
-0.0230985
-0.0262132
-0.0292277
-0.0321618
-0.0349687
-0.0376615
-0.0401631
-0.0424913
-0.0445449
-0.0463597
-0.047817
-0.0489823
-0.0497247
-0.0501489
-0.0501156
-0.049775
-0.0489788
-0.047925
-0.0464512
-0.0448018
-0.0427899
-0.0407037
-0.0383178
-0.0359613
-0.0333547
-0.0308676
-0.0281539
-0.0256298
-0.0228789
-0.0203797
-0.0176555
-0.015266
-0.0126912
-0.0105754
-0.00835815
-0.00672422
-0.00503893
-0.00390673
-0.00260434
-0.00157566
-0.00056107
-1.3012e-06
-0.000486716
0.0136893
0.0138431
0.0137262
0.0134956
0.012908
0.0120847
0.0108704
0.00930469
0.00727498
0.00482157
0.0019478
-0.00122711
-0.00460651
-0.0080556
-0.0114984
-0.0148613
-0.0181354
-0.0212945
-0.0243663
-0.0273234
-0.0301981
-0.0329344
-0.0355626
-0.0379935
-0.0402648
-0.042259
-0.0440345
-0.0454518
-0.0466015
-0.0473277
-0.0477629
-0.0477377
-0.0474331
-0.0466654
-0.0456672
-0.0442345
-0.0426513
-0.0406831
-0.0386636
-0.0363127
-0.034013
-0.0314224
-0.0289748
-0.0262518
-0.0237479
-0.0209637
-0.0184722
-0.0157002
-0.0133211
-0.0106994
-0.00861519
-0.00636539
-0.004801
-0.00311185
-0.00211926
-0.000893412
-0.000156684
0.000638454
0.000853497
0.000341275
0.0138577
0.0140151
0.0139341
0.013766
0.01327
0.0125626
0.0114933
0.0101069
0.00828655
0.00606145
0.00341058
0.000433824
-0.00279117
-0.00612977
-0.00950434
-0.0128232
-0.0160703
-0.0192004
-0.022243
-0.0251571
-0.0279872
-0.0306652
-0.0332408
-0.0356099
-0.0378336
-0.0397748
-0.0415186
-0.0429007
-0.0440418
-0.0447557
-0.0452085
-0.0451945
-0.0449323
-0.0441955
-0.0432585
-0.0418681
-0.0403559
-0.0384303
-0.0364801
-0.0341597
-0.0319166
-0.0293334
-0.0269213
-0.0241762
-0.0216855
-0.0188518
-0.0163599
-0.0135222
-0.0111467
-0.00845925
-0.00640283
-0.00410022
-0.00260323
-0.000881874
-1.76527e-05
0.00118656
0.00167564
0.00234174
0.00225912
0.00174703
0.0139866
0.0141379
0.0140861
0.013974
0.013571
0.012985
0.0120704
0.0108761
0.00928199
0.00730975
0.00491225
0.00217093
-0.000863338
-0.00405759
-0.00734044
-0.0106
-0.0138168
-0.0169203
-0.019944
-0.0228255
-0.0256253
-0.0282562
-0.0307923
-0.033108
-0.0352946
-0.0371884
-0.038909
-0.0402594
-0.0413988
-0.0421022
-0.042578
-0.0425755
-0.0423597
-0.0416521
-0.0407789
-0.0394269
-0.0379861
-0.0360963
-0.0342134
-0.0319132
-0.0297215
-0.0271315
-0.024747
-0.0219624
-0.0194757
-0.0165728
-0.0140719
-0.0111483
-0.00877084
-0.00599778
-0.00396812
-0.00159111
-0.00016366
0.00162033
0.00236065
0.00360134
0.00388189
0.00452742
0.00422442
0.0037616
0.0142415
0.0143893
0.0143646
0.0143078
0.0139998
0.0135403
0.0127865
0.0117892
0.0104276
0.0087178
0.00659126
0.00410992
0.00129611
-0.00172471
-0.00489257
-0.00807878
-0.0112626
-0.0143458
-0.0173658
-0.0202336
-0.023026
-0.0256312
-0.0281503
-0.0304311
-0.0325997
-0.0344603
-0.0361727
-0.0375015
-0.038651
-0.0393504
-0.0398585
-0.0398709
-0.0397084
-0.0390304
-0.0382255
-0.0369093
-0.0355419
-0.0336818
-0.0318653
-0.0295754
-0.0274314
-0.024821
-0.0224583
-0.0196177
-0.0171282
-0.0141383
-0.0116233
-0.00859577
-0.00621535
-0.0033382
-0.00133975
0.00113322
0.00248228
0.00436088
0.00497164
0.00630926
0.00640675
0.00715234
0.00672191
0.00638039
0.0143921
0.0145258
0.0145202
0.0145085
0.0142926
0.0139632
0.0133794
0.0125928
0.011479
0.0100544
0.00822593
0.00604293
0.00349027
0.00068814
-0.00232799
-0.00540959
-0.00854514
-0.0116005
-0.0146236
-0.0174876
-0.0202921
-0.0228883
-0.0254132
-0.0276753
-0.0298463
-0.0316861
-0.0334071
-0.0347221
-0.0358945
-0.0365936
-0.0371431
-0.0371698
-0.0370661
-0.0364134
-0.0356789
-0.03439
-0.0330949
-0.0312521
-0.0294976
-0.027202
-0.0250988
-0.0224494
-0.0201003
-0.0171836
-0.0146845
-0.0115877
-0.00905555
-0.00590509
-0.00352452
-0.000524241
0.00143344
0.00402574
0.00528093
0.00729028
0.00775546
0.00925619
0.00917778
0.0101531
0.00968359
0.00955719
0.0147073
0.0148337
0.014845
0.0148754
0.0147466
0.0145446
0.0141295
0.0135512
0.0126817
0.011539
0.0100112
0.00813791
0.00586749
0.00331275
0.000477678
-0.00247299
-0.00554453
-0.00856522
-0.0115982
-0.0144715
-0.0173109
-0.0199215
-0.0224807
-0.0247488
-0.0269497
-0.0287893
-0.0305416
-0.0318581
-0.0330709
-0.033779
-0.0343823
-0.0344275
-0.0343908
-0.0337623
-0.0331027
-0.0318357
-0.030614
-0.0287791
-0.0270852
-0.0247714
-0.022706
-0.0200029
-0.0176649
-0.0146568
-0.0121481
-0.00892943
-0.00638475
-0.00309682
-0.000726688
0.00241362
0.00431354
0.00704975
0.00818738
0.0103678
0.010658