/*--------------------------------*- C++ -*----------------------------------*\
| =========                 |                                                 |
| \\      /  F ield         | OpenFOAM: The Open Source CFD Toolbox           |
|  \\    /   O peration     | Version:  2406                                  |
|   \\  /    A nd           | Website:  www.openfoam.com                      |
|    \\/     M anipulation  |                                                 |
\*---------------------------------------------------------------------------*/
FoamFile
{
    version     2.0;
    format      ascii;
    arch        "LSB;label=32;scalar=64";
    class       volVectorField;
    location    "22.8";
    object      Uold;
}
// * * * * * * * * * * * * * * * * * * * * * * * * * * * * * * * * * * * * * //

dimensions      [0 1 -1 0 0 0 0];

internalField   nonuniform List<vector> 
3600
(
(2.8222e-06 -3.18681e-06 0)
(0.000132577 -6.56765e-05 0)
(0.000391595 -9.25607e-05 0)
(0.000657675 -9.15768e-05 0)
(0.000901211 -7.20595e-05 0)
(0.00106968 -4.70454e-05 0)
(0.00116707 -2.04749e-05 0)
(0.00117917 4.86906e-06 0)
(0.00111406 2.88513e-05 0)
(0.000967834 5.11071e-05 0)
(0.000745856 7.17536e-05 0)
(0.000447192 9.10465e-05 0)
(7.35252e-05 0.000109862 0)
(-0.000379148 0.000129709 0)
(-0.000917533 0.000152586 0)
(-0.00155459 0.000180603 0)
(-0.00230697 0.000215444 0)
(-0.0031942 0.000257962 0)
(-0.00423471 0.000307833 0)
(-0.0054425 0.00036345 0)
(-0.00682276 0.000421863 0)
(-0.00836805 0.000478831 0)
(-0.0100546 0.000528858 0)
(-0.0118394 0.000565331 0)
(-0.0136584 0.000580738 0)
(-0.0154263 0.000567093 0)
(-0.0170388 0.000516618 0)
(-0.0183774 0.000422777 0)
(-0.0193172 0.000281603 0)
(-0.0197369 9.31584e-05 0)
(-0.0195311 -0.000137215 0)
(-0.0186225 -0.000398196 0)
(-0.0169737 -0.000672634 0)
(-0.0145966 -0.000938627 0)
(-0.011558 -0.00117156 0)
(-0.00798108 -0.00134689 0)
(-0.00404029 -0.00144351 0)
(4.9671e-05 -0.0014471 0)
(0.00405109 -0.00135318 0)
(0.00772633 -0.0011689 0)
(0.0108622 -0.000912991 0)
(0.0132956 -0.000613575 0)
(0.0149303 -0.000303507 0)
(0.015749 -1.48311e-05 0)
(0.0158066 0.000227265 0)
(0.0152207 0.000407661 0)
(0.0141425 0.000522994 0)
(0.0127388 0.000578709 0)
(0.0111602 0.000586901 0)
(0.00953813 0.000560821 0)
(0.0079613 0.000514445 0)
(0.00649752 0.000457836 0)
(0.00516803 0.000400817 0)
(0.00399471 0.00034716 0)
(0.00295292 0.000302426 0)
(0.00205471 0.000261476 0)
(0.00126253 0.000223857 0)
(0.000632322 0.000166661 0)
(0.000163129 8.93522e-05 0)
(-1.98885e-05 -2.15192e-05 0)
(6.62359e-05 -0.000132928 0)
(0.000404929 -0.000401295 0)
(0.000942181 -0.000507032 0)
(0.00146814 -0.000485776 0)
(0.00193126 -0.000381949 0)
(0.00223667 -0.000240078 0)
(0.00237583 -8.17921e-05 0)
(0.00231377 8.25468e-05 0)
(0.0020489 0.000249256 0)
(0.00156271 0.000417464 0)
(0.000849786 0.000586734 0)
(-0.000104305 0.000758779 0)
(-0.00131079 0.000937147 0)
(-0.00278915 0.00112849 0)
(-0.00456277 0.00134074 0)
(-0.00666256 0.00158162 0)
(-0.0091214 0.00185554 0)
(-0.0119697 0.00216151 0)
(-0.0152261 0.00249127 0)
(-0.0188888 0.00282875 0)
(-0.0229265 0.00315015 0)
(-0.0272703 0.00342498 0)
(-0.0318102 0.00361769 0)
(-0.0363945 0.00369019 0)
(-0.0408342 0.00360509 0)
(-0.0449135 0.00332982 0)
(-0.0484032 0.002841 0)
(-0.0510772 0.00212882 0)
(-0.0527288 0.00120039 0)
(-0.0531859 8.17867e-05 0)
(-0.0523239 -0.00118179 0)
(-0.0500753 -0.00252745 0)
(-0.0464366 -0.0038778 0)
(-0.0414732 -0.00514557 0)
(-0.0353206 -0.00623966 0)
(-0.0281833 -0.00707265 0)
(-0.0203296 -0.00756938 0)
(-0.012081 -0.00767621 0)
(-0.00379693 -0.00736983 0)
(0.00414767 -0.00666395 0)
(0.0113886 -0.00561207 0)
(0.0176045 -0.00430461 0)
(0.0225442 -0.00285895 0)
(0.0260555 -0.00140432 0)
(0.0280949 -6.20304e-05 0)
(0.0287353 0.00107122 0)
(0.0281425 0.00193739 0)
(0.026559 0.00251849 0)
(0.0242528 0.00283455 0)
(0.021502 0.00292849 0)
(0.0185378 0.00285834 0)
(0.0155627 0.00267907 0)
(0.0126954 0.00244417 0)
(0.0100399 0.00218785 0)
(0.00760824 0.00194005 0)
(0.0054576 0.00169509 0)
(0.00354993 0.00144869 0)
(0.00199272 0.00113138 0)
(0.000766936 0.000728544 0)
(0.000105794 0.000172154 0)
(9.91719e-05 -0.000399495 0)
(0.000532328 -0.000944675 0)
(0.0011737 -0.00113864 0)
(0.00176117 -0.00105668 0)
(0.00223644 -0.000803772 0)
(0.00248736 -0.000456382 0)
(0.00249434 -6.16713e-05 0)
(0.00220537 0.000363979 0)
(0.00160072 0.000811839 0)
(0.000641791 0.001282 0)
(-0.000697951 0.00177326 0)
(-0.00245441 0.00228979 0)
(-0.00466096 0.00283836 0)
(-0.00735877 0.00343162 0)
(-0.0105913 0.00408292 0)
(-0.0144046 0.0048027 0)
(-0.0188376 0.00559092 0)
(-0.0239125 0.00643253 0)
(-0.0296208 0.00729347 0)
(-0.0359117 0.00812078 0)
(-0.0426821 0.00884462 0)
(-0.0497734 0.00938367 0)
(-0.0569748 0.00965237 0)
(-0.0640343 0.00957003 0)
(-0.0706754 0.00907022 0)
(-0.076616 0.00810917 0)
(-0.0815873 0.00667167 0)
(-0.0853487 0.00477403 0)
(-0.0876986 0.00246407 0)
(-0.088481 -0.000180828 0)
(-0.0875902 -0.00305698 0)
(-0.0849734 -0.00603838 0)
(-0.0806337 -0.00898137 0)
(-0.0746333 -0.0117304 0)
(-0.0670974 -0.0141252 0)
(-0.0582169 -0.0160107 0)
(-0.0482494 -0.0172486 0)
(-0.0375171 -0.017732 0)
(-0.0263981 -0.0173998 0)
(-0.015311 -0.0162506 0)
(-0.00469228 -0.0143513 0)
(0.00503507 -0.0118381 0)
(0.0134936 -0.00890689 0)
(0.0203891 -0.0057924 0)
(0.0255335 -0.00273882 0)
(0.0288689 3.20746e-05 0)
(0.0304598 0.00235138 0)
(0.0304922 0.00411937 0)
(0.0292265 0.00531332 0)
(0.0269839 0.00597377 0)
(0.0240741 0.00619081 0)
(0.0208034 0.00607364 0)
(0.0173928 0.00573864 0)
(0.0140477 0.0052787 0)
(0.0108526 0.00476846 0)
(0.00793547 0.00422463 0)
(0.00528523 0.00364026 0)
(0.00306745 0.00291384 0)
(0.00125398 0.00198159 0)
(0.000209314 0.000697974 0)
(0.000108102 -0.00069151 0)
(0.000541286 -0.00149624 0)
(0.00113388 -0.00173349 0)
(0.00161169 -0.0015364 0)
(0.00191635 -0.00108101 0)
(0.00193392 -0.000468363 0)
(0.00163243 0.000234678 0)
(0.000942549 0.00101227 0)
(-0.000180486 0.00185371 0)
(-0.0018007 0.00276211 0)
(-0.0039731 0.00373624 0)
(-0.00676115 0.00478321 0)
(-0.0102267 0.00591246 0)
(-0.0144361 0.00714019 0)
(-0.0194532 0.00847903 0)
(-0.025332 0.0099312 0)
(-0.0321022 0.0114758 0)
(-0.0397538 0.0130629 0)
(-0.048221 0.0146096 0)
(-0.0573734 0.016005 0)
(-0.0670141 0.0171189 0)
(-0.0768892 0.0178155 0)
(-0.0867052 0.0179692 0)
(-0.0961505 0.0174793 0)
(-0.104917 0.0162802 0)
(-0.112717 0.0143471 0)
(-0.119292 0.0116959 0)
(-0.124419 0.00838078 0)
(-0.127913 0.00449007 0)
(-0.129624 0.00014253 0)
(-0.129443 -0.00451596 0)
(-0.127296 -0.00931506 0)
(-0.123155 -0.0140629 0)
(-0.117037 -0.0185502 0)
(-0.109019 -0.0225567 0)
(-0.0992379 -0.0258607 0)
(-0.0879058 -0.0282542 0)
(-0.0753123 -0.0295603 0)
(-0.0618257 -0.0296561 0)
(-0.0478853 -0.0284934 0)
(-0.0339833 -0.0261182 0)
(-0.020634 -0.0226782 0)
(-0.00833651 -0.0184185 0)
(0.00247234 -0.0136595 0)
(0.0114543 -0.00876026 0)
(0.0184067 -0.00407376 0)
(0.0232653 9.90333e-05 0)
(0.0261144 0.00354149 0)
(0.0271465 0.00614262 0)
(0.026657 0.00789211 0)
(0.0249695 0.00886913 0)
(0.0224451 0.0092074 0)
(0.0193813 0.0090721 0)
(0.0160791 0.00861664 0)
(0.0127076 0.00797107 0)
(0.00948297 0.00719448 0)
(0.00644324 0.00629103 0)
(0.00382413 0.00514468 0)
(0.0016091 0.00361488 0)
(0.000285038 0.0014374 0)
(9.90411e-05 -0.000981632 0)
(0.000459122 -0.0019947 0)
(0.000887905 -0.00220881 0)
(0.00112849 -0.00182806 0)
(0.0011208 -0.00110197 0)
(0.000756908 -0.000146673 0)
(-1.38618e-05 0.000959249 0)
(-0.00128 0.00220819 0)
(-0.00311844 0.00359081 0)
(-0.00562247 0.00511516 0)
(-0.00888103 0.00678042 0)
(-0.0129882 0.00859655 0)
(-0.0180367 0.0105736 0)
(-0.0241163 0.0127257 0)
(-0.0313033 0.0150532 0)
(-0.0396441 0.0175318 0)
(-0.049136 0.0200955 0)
(-0.0597082 0.0226331 0)
(-0.0712126 0.0249899 0)
(-0.0834237 0.0269831 0)
(-0.0960539 0.0284216 0)
(-0.108775 0.0291299 0)
(-0.121246 0.0289667 0)
(-0.133131 0.0278374 0)
(-0.144117 0.0256979 0)
(-0.153925 0.0225533 0)
(-0.162306 0.0184526 0)
(-0.169048 0.0134838 0)
(-0.173972 0.00776863 0)
(-0.176929 0.00145894 0)
(-0.177802 -0.00526537 0)
(-0.176499 -0.0121975 0)
(-0.172959 -0.0191047 0)
(-0.167153 -0.0257295 0)
(-0.159096 -0.0317944 0)
(-0.148857 -0.0370097 0)
(-0.136572 -0.0410879 0)
(-0.122464 -0.0437647 0)
(-0.106855 -0.0448272 0)
(-0.0901727 -0.0441456 0)
(-0.0729432 -0.0417052 0)
(-0.0557686 -0.0376288 0)
(-0.0392844 -0.032184 0)
(-0.0240991 -0.025765 0)
(-0.010734 -0.0188511 0)
(0.000436641 -0.0119452 0)
(0.00920771 -0.00550772 0)
(0.0155594 9.74089e-05 0)
(0.0196152 0.00463841 0)
(0.0216335 0.00802033 0)
(0.0219292 0.010277 0)
(0.0208854 0.0115365 0)
(0.0188459 0.0119898 0)
(0.0161827 0.0118412 0)
(0.0131401 0.0112755 0)
(0.0100204 0.0104065 0)
(0.00692453 0.00925832 0)
(0.00416623 0.00771476 0)
(0.00176727 0.00554303 0)
(0.000314495 0.00233755 0)
(8.07247e-05 -0.00120986 0)
(0.000311896 -0.00231913 0)
(0.000477869 -0.00241168 0)
(0.000368714 -0.00176563 0)
(-8.01099e-05 -0.000694984 0)
(-0.000965437 0.000684138 0)
(-0.00236679 0.00229489 0)
(-0.00439592 0.00414654 0)
(-0.00717016 0.00623478 0)
(-0.0108154 0.00857349 0)
(-0.0154585 0.0111617 0)
(-0.0212248 0.0140101 0)
(-0.0282351 0.0171234 0)
(-0.0365933 0.0205012 0)
(-0.0463697 0.0241113 0)
(-0.0575752 0.0278756 0)
(-0.0701413 0.0316544 0)
(-0.0839054 0.0352511 0)
(-0.098615 0.0384284 0)
(-0.113944 0.0409367 0)
(-0.129523 0.0425445 0)
(-0.144966 0.0430627 0)
(-0.159895 0.0423594 0)
(-0.173961 0.0403647 0)
(-0.186854 0.0370679 0)
(-0.198311 0.0325115 0)
(-0.208115 0.0267831 0)
(-0.216094 0.0200071 0)
(-0.222114 0.0123376 0)
(-0.226069 0.00395351 0)
(-0.227872 -0.00494327 0)
(-0.227446 -0.0141273 0)
(-0.224718 -0.0233472 0)
(-0.219621 -0.0323224 0)
(-0.212098 -0.0407413 0)
(-0.202118 -0.0482645 0)
(-0.189694 -0.0545334 0)
(-0.174915 -0.0591898 0)
(-0.157977 -0.061906 0)
(-0.139207 -0.0624256 0)
(-0.11909 -0.0606117 0)
(-0.0982622 -0.0564925 0)
(-0.0774809 -0.0502932 0)
(-0.0575586 -0.0424387 0)
(-0.0392728 -0.0335171 0)
(-0.0232606 -0.024204 0)
(-0.0099478 -0.0151642 0)
(0.000495853 -0.00695965 0)
(0.00811747 1.42934e-05 0)
(0.0131525 0.00554598 0)
(0.015924 0.00959845 0)
(0.0168421 0.0122703 0)
(0.0162907 0.0137564 0)
(0.0146974 0.0142944 0)
(0.0123713 0.0141138 0)
(0.00968954 0.0133826 0)
(0.00682275 0.0121494 0)
(0.00415731 0.0103049 0)
(0.00177223 0.00752406 0)
(0.000313837 0.00326338 0)
(5.31264e-05 -0.00136212 0)
(0.000104326 -0.00242048 0)
(-7.89716e-05 -0.00227148 0)
(-0.000636253 -0.00126362 0)
(-0.00164219 0.000243251 0)
(-0.00318198 0.00215325 0)
(-0.00537677 0.00440605 0)
(-0.00836602 0.00703478 0)
(-0.0123146 0.0100416 0)
(-0.0173812 0.0134448 0)
(-0.0237312 0.0172402 0)
(-0.0315147 0.0214331 0)
(-0.0408701 0.0260104 0)
(-0.0518923 0.0309357 0)
(-0.0646149 0.0361143 0)
(-0.078974 0.041381 0)
(-0.0947974 0.0464942 0)
(-0.111801 0.051158 0)
(-0.129612 0.0550545 0)
(-0.147798 0.0578844 0)
(-0.165908 0.0593976 0)
(-0.1835 0.0594151 0)
(-0.200171 0.0578361 0)
(-0.215578 0.0546374 0)
(-0.22945 0.049865 0)
(-0.241591 0.0436209 0)
(-0.251875 0.0360481 0)
(-0.260228 0.0273169 0)
(-0.266615 0.0176137 0)
(-0.271021 0.00713538 0)
(-0.273428 -0.003912 0)
(-0.273801 -0.0153096 0)
(-0.27208 -0.0268186 0)
(-0.268169 -0.0381701 0)
(-0.261941 -0.0490562 0)
(-0.253248 -0.0591228 0)
(-0.241944 -0.067969 0)
(-0.227919 -0.0751578 0)
(-0.211147 -0.0802409 0)
(-0.19174 -0.0828016 0)
(-0.169998 -0.0825147 0)
(-0.146457 -0.0792186 0)
(-0.121892 -0.0729851 0)
(-0.0972777 -0.0641672 0)
(-0.0736924 -0.0533982 0)
(-0.0521631 -0.0415254 0)
(-0.0335076 -0.0294806 0)
(-0.0182035 -0.0181224 0)
(-0.00637207 -0.00810597 0)
(0.0021817 0.000175673 0)
(0.00782162 0.00658389 0)
(0.0110276 0.0111767 0)
(0.0122578 0.014148 0)
(0.0120083 0.015763 0)
(0.0106577 0.0162904 0)
(0.00865034 0.0159482 0)
(0.00622939 0.014811 0)
(0.00384386 0.0127798 0)
(0.00163891 0.00945166 0)
(0.000284464 0.00416356 0)
(1.54775e-05 -0.00139607 0)
(-0.000167334 -0.00220938 0)
(-0.000788924 -0.00167541 0)
(-0.00189385 -0.000195006 0)
(-0.00357588 0.00185548 0)
(-0.0059102 0.0044261 0)
(-0.00907362 0.00748854 0)
(-0.0132365 0.0111038 0)
(-0.0186155 0.0152786 0)
(-0.0253989 0.0200305 0)
(-0.033785 0.0253452 0)
(-0.0439341 0.0312086 0)
(-0.0559778 0.0375676 0)
(-0.0699652 0.0443168 0)
(-0.0858457 0.0512609 0)
(-0.103431 0.058114 0)
(-0.122403 0.064513 0)
(-0.142323 0.0700606 0)
(-0.162681 0.074373 0)
(-0.182929 0.0771245 0)
(-0.202539 0.078078 0)
(-0.221041 0.0771013 0)
(-0.238056 0.0741674 0)
(-0.253315 0.0693429 0)
(-0.266661 0.0627669 0)
(-0.27804 0.0546258 0)
(-0.287474 0.0451293 0)
(-0.295038 0.0344921 0)
(-0.300832 0.0229212 0)
(-0.304953 0.0106112 0)
(-0.307475 -0.00225423 0)
(-0.308428 -0.0154946 0)
(-0.307786 -0.0289206 0)
(-0.305452 -0.0423183 0)
(-0.301256 -0.0554318 0)
(-0.294957 -0.0679451 0)
(-0.286256 -0.0794693 0)
(-0.274826 -0.0895368 0)
(-0.260361 -0.0976115 0)
(-0.242641 -0.103119 0)
(-0.221626 -0.105507 0)
(-0.197534 -0.104331 0)
(-0.170932 -0.0993602 0)
(-0.142756 -0.0906929 0)
(-0.114272 -0.0788293 0)
(-0.0869272 -0.0646724 0)
(-0.0621166 -0.0494184 0)
(-0.0409076 -0.0343379 0)
(-0.0238598 -0.0205247 0)
(-0.0109814 -0.00871552 0)
(-0.00190114 0.000754427 0)
(0.00397666 0.00787181 0)
(0.00725312 0.0128352 0)
(0.00854713 0.015949 0)
(0.00834166 0.0175309 0)
(0.00716042 0.0178523 0)
(0.00532748 0.0170188 0)
(0.00334559 0.0149452 0)
(0.00142944 0.0111736 0)
(0.000242443 0.00495722 0)
(-3.5596e-05 -0.0012849 0)
(-0.000512824 -0.00162321 0)
(-0.00166476 -0.000543068 0)
(-0.00341715 0.00153443 0)
(-0.00589561 0.00425748 0)
(-0.00916904 0.0076508 0)
(-0.0134834 0.0117311 0)
(-0.0190393 0.0165858 0)
(-0.026105 0.02222 0)
(-0.0348872 0.0286399 0)
(-0.0456025 0.0358065 0)
(-0.0583937 0.0436626 0)
(-0.0733459 0.0520787 0)
(-0.0904082 0.0608358 0)
(-0.109389 0.0695962 0)
(-0.12992 0.0779247 0)
(-0.151496 0.0853277 0)
(-0.1735 0.0913186 0)
(-0.195275 0.0954757 0)
(-0.216185 0.0974914 0)
(-0.23568 0.0971987 0)
(-0.253343 0.094576 0)
(-0.268916 0.0897291 0)
(-0.282292 0.0828585 0)
(-0.293505 0.0742209 0)
(-0.302683 0.0640935 0)
(-0.310023 0.0527449 0)
(-0.315749 0.0404177 0)
(-0.320084 0.0273184 0)
(-0.323227 0.0136175 0)
(-0.325333 -0.000545393 0)
(-0.326498 -0.0150502 0)
(-0.326747 -0.029782 0)
(-0.326016 -0.0446119 0)
(-0.324148 -0.0593756 0)
(-0.320875 -0.073848 0)
(-0.315821 -0.0877179 0)
(-0.308509 -0.100565 0)
(-0.29839 -0.111844 0)
(-0.284902 -0.120895 0)
(-0.267564 -0.126973 0)
(-0.246095 -0.129324 0)
(-0.220566 -0.127311 0)
(-0.191525 -0.120574 0)
(-0.16008 -0.109201 0)
(-0.127858 -0.0938588 0)
(-0.096802 -0.075806 0)
(-0.0688015 -0.0567114 0)
(-0.0452706 -0.0382989 0)
(-0.0268343 -0.0219448 0)
(-0.0133543 -0.00843024 0)
(-0.0041637 0.00203516 0)
(0.00154901 0.00963605 0)
(0.00461551 0.0147421 0)
(0.00569801 0.0177566 0)
(0.00544233 0.0190272 0)
(0.00427823 0.0187105 0)
(0.00276525 0.016746 0)
(0.00118965 0.0126526 0)
(0.000196354 0.00563518 0)
(-0.000103526 -0.000978995 0)
(-0.000944189 -0.000568903 0)
(-0.00272595 0.00123596 0)
(-0.00523031 0.00404866 0)
(-0.00863108 0.0075955 0)
(-0.0129941 0.012005 0)
(-0.018645 0.0173468 0)
(-0.0258083 0.0237256 0)
(-0.0347958 0.0311316 0)
(-0.0458134 0.039542 0)
(-0.0590692 0.048868 0)
(-0.0746443 0.0589702 0)
(-0.0925209 0.0695942 0)
(-0.112482 0.0803567 0)
(-0.134132 0.0907396 0)
(-0.156876 0.100142 0)
(-0.179992 0.107952 0)
(-0.202694 0.113629 0)
(-0.22423 0.11678 0)
(-0.243964 0.117196 0)
(-0.261446 0.114868 0)
(-0.276433 0.109957 0)
(-0.288888 0.102748 0)
(-0.298934 0.0935925 0)
(-0.306817 0.0828574 0)
(-0.312844 0.0708875 0)
(-0.317352 0.0579796 0)
(-0.320664 0.0443727 0)
(-0.323074 0.0302467 0)
(-0.32483 0.0157282 0)
(-0.326127 0.000900809 0)
(-0.3271 -0.0141822 0)
(-0.32782 -0.0294842 0)
(-0.328281 -0.0449675 0)
(-0.328389 -0.0605744 0)
(-0.32794 -0.0762005 0)
(-0.326599 -0.0916652 0)
(-0.323881 -0.106674 0)
(-0.319147 -0.120784 0)
(-0.311622 -0.133371 0)
(-0.300455 -0.143624 0)
(-0.284833 -0.150578 0)
(-0.264151 -0.153206 0)
(-0.238227 -0.150581 0)
(-0.207526 -0.14212 0)
(-0.173308 -0.127852 0)
(-0.137628 -0.108634 0)
(-0.103051 -0.0861905 0)
(-0.0721162 -0.0628365 0)
(-0.0466503 -0.0408919 0)
(-0.0273341 -0.0220433 0)
(-0.0137462 -0.00705118 0)
(-0.00490306 0.00411273 0)
(0.000331356 0.0118843 0)
(0.00290928 0.01681 0)
(0.00368165 0.0193677 0)
(0.00323546 0.0198099 0)
(0.00221048 0.018128 0)
(0.000973972 0.0138556 0)
(0.00015892 0.0061868 0)
(-0.00019147 -0.000433616 0)
(-0.00146977 0.00103459 0)
(-0.00398208 0.00375449 0)
(-0.00734073 0.00745123 0)
(-0.0117866 0.0119946 0)
(-0.0173839 0.0176421 0)
(-0.0245431 0.024516 0)
(-0.0334982 0.0327201 0)
(-0.0445886 0.0422098 0)
(-0.0579879 0.0529045 0)
(-0.0738542 0.0646271 0)
(-0.0921479 0.0771018 0)
(-0.112681 0.0898905 0)
(-0.135002 0.102396 0)
(-0.158461 0.113897 0)
(-0.182217 0.123637 0)
(-0.205362 0.130935 0)
(-0.227019 0.135287 0)
(-0.246473 0.136434 0)
(-0.263242 0.134379 0)
(-0.277117 0.129349 0)
(-0.288131 0.121733 0)
(-0.296517 0.111995 0)
(-0.302629 0.10061 0)
(-0.306884 0.0880098 0)
(-0.309704 0.0745556 0)
(-0.311479 0.060526 0)
(-0.31255 0.0461204 0)
(-0.313198 0.0314683 0)
(-0.313648 0.0166432 0)
(-0.314076 0.00167561 0)
(-0.314612 -0.0134347 0)
(-0.315345 -0.0287081 0)
(-0.31632 -0.0441742 0)
(-0.317528 -0.0598596 0)
(-0.318883 -0.07577 0)
(-0.320197 -0.0918652 0)
(-0.321131 -0.108021 0)
(-0.321164 -0.123982 0)
(-0.319551 -0.139301 0)
(-0.315326 -0.153291 0)
(-0.307346 -0.164981 0)
(-0.294421 -0.173145 0)
(-0.27553 -0.176399 0)
(-0.250131 -0.173422 0)
(-0.218504 -0.163295 0)
(-0.182026 -0.145921 0)
(-0.143229 -0.122386 0)
(-0.105449 -0.0950412 0)
(-0.0720143 -0.0670769 0)
(-0.0452193 -0.0415596 0)
(-0.0256666 -0.0204765 0)
(-0.0125589 -0.00440741 0)
(-0.00446306 0.00701466 0)
(-1.81122e-05 0.0145244 0)
(0.00195409 0.0188141 0)
(0.002285 0.0203123 0)
(0.00174765 0.0191171 0)
(0.00081451 0.0148245 0)
(0.000136286 0.00664888 0)
(-0.000302479 0.000411645 0)
(-0.00209649 0.00328612 0)
(-0.00543911 0.0071215 0)
(-0.00974997 0.0118619 0)
(-0.0153566 0.0175956 0)
(-0.0223179 0.0247261 0)
(-0.0311267 0.0334169 0)
(-0.0420029 0.0437417 0)
(-0.0552873 0.0555908 0)
(-0.0710775 0.0687837 0)
(-0.0894283 0.0830009 0)
(-0.11011 0.0977654 0)
(-0.132698 0.112399 0)
(-0.156459 0.126059 0)
(-0.180481 0.137832 0)
(-0.20372 0.14687 0)
(-0.225197 0.152534 0)
(-0.244107 0.154493 0)
(-0.25995 0.152754 0)
(-0.272544 0.147616 0)
(-0.282015 0.139582 0)
(-0.288699 0.129246 0)
(-0.29307 0.117203 0)
(-0.295638 0.103979 0)
(-0.296898 0.09 0)
(-0.297277 0.0755813 0)
(-0.297128 0.0609368 0)
(-0.296719 0.0461973 0)
(-0.296252 0.03143 0)
(-0.295874 0.0166572 0)
(-0.295697 0.00187023 0)
(-0.295807 -0.0129607 0)
(-0.296283 -0.0278812 0)
(-0.297189 -0.0429489 0)
(-0.298581 -0.0582308 0)
(-0.300487 -0.0737965 0)
(-0.302883 -0.0897068 0)
(-0.305652 -0.105988 0)
(-0.308529 -0.122589 0)
(-0.311029 -0.139321 0)
(-0.312383 -0.155771 0)
(-0.311492 -0.171209 0)
(-0.306953 -0.184517 0)
(-0.297178 -0.194173 0)
(-0.280662 -0.198358 0)
(-0.256394 -0.195234 0)
(-0.224363 -0.183422 0)
(-0.18602 -0.162633 0)
(-0.144437 -0.134249 0)
(-0.103874 -0.10149 0)
(-0.0685887 -0.0687087 0)
(-0.0412817 -0.0398638 0)
(-0.0222964 -0.0170777 0)
(-0.0102359 -0.00056086 0)
(-0.00328244 0.0105339 0)
(0.00020902 0.017203 0)
(0.00143961 0.0201687 0)
(0.00140444 0.0197275 0)
(0.000729301 0.015601 0)
(0.000132994 0.00705661 0)
(-0.000437007 0.00161115 0)
(-0.00281967 0.00626773 0)
(-0.00707964 0.0114211 0)
(-0.0124235 0.0173683 0)
(-0.019283 0.0244963 0)
(-0.0277027 0.0333583 0)
(-0.038246 0.044136 0)
(-0.0510866 0.0568329 0)
(-0.066531 0.0712347 0)
(-0.0845475 0.0870056 0)
(-0.105026 0.103618 0)
(-0.127484 0.120329 0)
(-0.151217 0.136181 0)
(-0.175207 0.150095 0)
(-0.198345 0.161038 0)
(-0.219519 0.168203 0)
(-0.237861 0.171154 0)
(-0.252824 0.169879 0)
(-0.264272 0.164744 0)
(-0.272399 0.156372 0)
(-0.277659 0.1455 0)
(-0.280629 0.132853 0)
(-0.281915 0.119059 0)
(-0.282065 0.104606 0)
(-0.281533 0.0898421 0)
(-0.280657 0.0749852 0)
(-0.279673 0.0601572 0)
(-0.27873 0.0454112 0)
(-0.277922 0.0307579 0)
(-0.277301 0.0161832 0)
(-0.276905 0.00165994 0)
(-0.276771 -0.0128466 0)
(-0.276946 -0.0273785 0)
(-0.277491 -0.0419871 0)
(-0.278487 -0.0567374 0)
(-0.280025 -0.0717111 0)
(-0.282197 -0.0870076 0)
(-0.285067 -0.102736 0)
(-0.288627 -0.118994 0)
(-0.292726 -0.135822 0)
(-0.296979 -0.153124 0)
(-0.30066 -0.170556 0)
(-0.302612 -0.187385 0)
(-0.301218 -0.202357 0)
(-0.294507 -0.213633 0)
(-0.280451 -0.218881 0)
(-0.25749 -0.215619 0)
(-0.225243 -0.201879 0)
(-0.185213 -0.177133 0)
(-0.141115 -0.143212 0)
(-0.0983142 -0.104545 0)
(-0.0620804 -0.0670267 0)
(-0.0353339 -0.0354829 0)
(-0.0177657 -0.0118909 0)
(-0.00731406 0.00425208 0)
(-0.00176071 0.0142612 0)
(0.000613561 0.0192923 0)
(0.00115138 0.0199753 0)
(0.000710251 0.0162447 0)
(0.000147634 0.00746077 0)
(-0.000595024 0.00322496 0)
(-0.00363121 0.0100629 0)
(-0.00887856 0.0167365 0)
(-0.0153154 0.0240565 0)
(-0.0234897 0.0327887 0)
(-0.0334146 0.0436234 0)
(-0.0457027 0.0567243 0)
(-0.0604421 0.0719733 0)
(-0.077862 0.0889994 0)
(-0.0977449 0.107244 0)
(-0.119762 0.125907 0)
(-0.143137 0.14393 0)
(-0.166893 0.160086 0)
(-0.1898 0.173135 0)
(-0.210692 0.182069 0)
(-0.228579 0.1863 0)
(-0.242893 0.18576 0)
(-0.253484 0.180854 0)
(-0.260628 0.172326 0)
(-0.264862 0.161061 0)
(-0.266876 0.147929 0)
(-0.267348 0.133669 0)
(-0.266886 0.118838 0)
(-0.265947 0.103809 0)
(-0.264857 0.0887995 0)
(-0.263805 0.0739119 0)
(-0.26289 0.059176 0)
(-0.262139 0.0445819 0)
(-0.26155 0.0301037 0)
(-0.261102 0.0157125 0)
(-0.260783 0.00138276 0)
(-0.26059 -0.0129078 0)
(-0.260545 -0.0271813 0)
(-0.260693 -0.0414645 0)
(-0.261112 -0.055797 0)
(-0.261906 -0.0702387 0)
(-0.263213 -0.0848787 0)
(-0.265185 -0.0998405 0)
(-0.267975 -0.115282 0)
(-0.271688 -0.131375 0)
(-0.276301 -0.148263 0)
(-0.281558 -0.165966 0)
(-0.286818 -0.184233 0)
(-0.290915 -0.202352 0)
(-0.292068 -0.218941 0)
(-0.28795 -0.231809 0)
(-0.276005 -0.238026 0)
(-0.254093 -0.234341 0)
(-0.221436 -0.218077 0)
(-0.179645 -0.188498 0)
(-0.133252 -0.148153 0)
(-0.0889516 -0.103243 0)
(-0.0530042 -0.0615164 0)
(-0.0280552 -0.0284633 0)
(-0.0127432 -0.00524356 0)
(-0.00430738 0.00949867 0)
(-0.000369874 0.0174721 0)
(0.000908498 0.0198093 0)
(0.000729476 0.0167789 0)
(0.000175736 0.00789523 0)
(-0.000771432 0.00529741 0)
(-0.00450441 0.0147229 0)
(-0.0107771 0.023108 0)
(-0.0183293 0.031956 0)
(-0.0278298 0.0424847 0)
(-0.0392372 0.0554909 0)
(-0.0531845 0.0710736 0)
(-0.0696314 0.0889344 0)
(-0.0886859 0.108488 0)
(-0.109895 0.128886 0)
(-0.132681 0.149005 0)
(-0.155979 0.167471 0)
(-0.178612 0.182851 0)
(-0.199272 0.193892 0)
(-0.216925 0.199804 0)
(-0.230884 0.20039 0)
(-0.241005 0.196061 0)
(-0.247568 0.187651 0)
(-0.251207 0.176204 0)
(-0.252679 0.162748 0)
(-0.252758 0.148152 0)
(-0.25208 0.13305 0)
(-0.251129 0.117849 0)
(-0.250199 0.102759 0)
(-0.249446 0.0878603 0)
(-0.24891 0.0731517 0)
(-0.248573 0.058597 0)
(-0.248376 0.044152 0)
(-0.248261 0.0297806 0)
(-0.248168 0.0154593 0)
(-0.248064 0.00117763 0)
(-0.247928 -0.0130654 0)
(-0.247766 -0.0272669 0)
(-0.247609 -0.0414254 0)
(-0.247515 -0.0555488 0)
(-0.247575 -0.0696624 0)
(-0.247915 -0.0838202 0)
(-0.248704 -0.098117 0)
(-0.250148 -0.112701 0)
(-0.252474 -0.127778 0)
(-0.255892 -0.143604 0)
(-0.260508 -0.160433 0)
(-0.266197 -0.178415 0)
(-0.272416 -0.197411 0)
(-0.278006 -0.216732 0)
(-0.281039 -0.234841 0)
(-0.278846 -0.249131 0)
(-0.268349 -0.255963 0)
(-0.246845 -0.25117 0)
(-0.213228 -0.231318 0)
(-0.169382 -0.195588 0)
(-0.120971 -0.147833 0)
(-0.0762518 -0.0967067 0)
(-0.0421863 -0.0520904 0)
(-0.0203165 -0.0192034 0)
(-0.00789149 0.00219273 0)
(-0.00176111 0.0143544 0)
(0.000553328 0.0191009 0)
(0.000740891 0.017188 0)
(0.000209171 0.00838083 0)
(-0.00096079 0.007865 0)
(-0.00541104 0.0202827 0)
(-0.0127138 0.0305582 0)
(-0.0213663 0.0410774 0)
(-0.0321524 0.0535717 0)
(-0.0449467 0.0688976 0)
(-0.0603692 0.0870343 0)
(-0.0782102 0.107436 0)
(-0.0984202 0.129244 0)
(-0.120283 0.151264 0)
(-0.142978 0.172038 0)
(-0.165213 0.18993 0)
(-0.185738 0.203444 0)
(-0.203339 0.211503 0)
(-0.217284 0.213721 0)
(-0.227302 0.210418 0)
(-0.233699 0.202494 0)
(-0.237113 0.191133 0)
(-0.238402 0.177545 0)
(-0.238384 0.162746 0)
(-0.237766 0.147477 0)
(-0.23703 0.132186 0)
(-0.23647 0.117088 0)
(-0.236196 0.102236 0)
(-0.236216 0.0875952 0)
(-0.236459 0.0730985 0)
(-0.236834 0.0586804 0)
(-0.237245 0.0442921 0)
(-0.237615 0.0299084 0)
(-0.237879 0.0155236 0)
(-0.238003 0.00114814 0)
(-0.237966 -0.0131977 0)
(-0.237771 -0.0274893 0)
(-0.237435 -0.0417023 0)
(-0.237001 -0.0558184 0)
(-0.23653 -0.0698313 0)
(-0.236117 -0.0837563 0)
(-0.235895 -0.0976422 0)
(-0.236049 -0.111589 0)
(-0.236819 -0.125768 0)
(-0.238497 -0.140436 0)
(-0.241386 -0.155936 0)
(-0.245719 -0.172649 0)
(-0.251498 -0.19087 0)
(-0.258272 -0.210576 0)
(-0.264866 -0.23108 0)
(-0.26918 -0.250616 0)
(-0.268173 -0.266042 0)
(-0.258252 -0.272822 0)
(-0.236213 -0.265763 0)
(-0.200794 -0.240639 0)
(-0.154518 -0.197037 0)
(-0.104616 -0.140949 0)
(-0.0611032 -0.0845501 0)
(-0.0307866 -0.0392206 0)
(-0.0130109 -0.00863703 0)
(-0.00384369 0.00940166 0)
(-5.39706e-05 0.0176068 0)
(0.000692056 0.0173895 0)
(0.000239428 0.0089092 0)
(-0.00115105 0.010935 0)
(-0.00630149 0.0267283 0)
(-0.0145913 0.0390485 0)
(-0.0242768 0.0513507 0)
(-0.03624 0.0659248 0)
(-0.0502425 0.0836276 0)
(-0.0668575 0.104261 0)
(-0.0856753 0.126971 0)
(-0.106468 0.150579 0)
(-0.128258 0.173519 0)
(-0.150036 0.194038 0)
(-0.170386 0.210351 0)
(-0.188137 0.221084 0)
(-0.202324 0.225524 0)
(-0.212625 0.223827 0)
(-0.219207 0.216857 0)
(-0.222753 0.205928 0)
(-0.224122 0.192427 0)
(-0.224233 0.177565 0)
(-0.223818 0.162213 0)
(-0.223412 0.146897 0)
(-0.223288 0.131842 0)
(-0.223552 0.117084 0)
(-0.224161 0.102554 0)
(-0.225024 0.08815 0)
(-0.226009 0.0737805 0)
(-0.227006 0.0593828 0)
(-0.227911 0.0449255 0)
(-0.228657 0.0304055 0)
(-0.229192 0.0158403 0)
(-0.229492 0.00126066 0)
(-0.229544 -0.0132953 0)
(-0.229356 -0.0277871 0)
(-0.22894 -0.0421756 0)
(-0.228328 -0.0564261 0)
(-0.227556 -0.0705116 0)
(-0.226687 -0.0844184 0)
(-0.225803 -0.0981544 0)
(-0.225034 -0.111765 0)
(-0.224565 -0.125353 0)
(-0.224661 -0.139111 0)
(-0.225662 -0.15335 0)
(-0.227961 -0.168508 0)
(-0.231909 -0.185108 0)
(-0.23763 -0.203608 0)
(-0.244741 -0.224103 0)
(-0.252012 -0.245845 0)
(-0.257093 -0.26673 0)
(-0.256506 -0.282829 0)
(-0.246126 -0.288522 0)
(-0.222364 -0.277366 0)
(-0.184149 -0.244658 0)
(-0.135186 -0.1911 0)
(-0.0849314 -0.126519 0)
(-0.0449123 -0.0671142 0)
(-0.0201117 -0.024211 0)
(-0.00690283 0.00190533 0)
(-0.00104762 0.0149721 0)
(0.000533703 0.0172395 0)
(0.000258701 0.00944905 0)
(-0.00133155 0.0144938 0)
(-0.00713205 0.0340179 0)
(-0.0163242 0.0485148 0)
(-0.0269308 0.0626828 0)
(-0.0399052 0.0793993 0)
(-0.054869 0.0994564 0)
(-0.0723202 0.122423 0)
(-0.0916328 0.147081 0)
(-0.112403 0.171906 0)
(-0.133432 0.194972 0)
(-0.153601 0.214326 0)
(-0.171505 0.228193 0)
(-0.186186 0.235509 0)
(-0.197034 0.236079 0)
(-0.204163 0.230655 0)
(-0.208112 0.220581 0)
(-0.20981 0.207442 0)
(-0.210177 0.192657 0)
(-0.210053 0.177293 0)
(-0.209981 0.16198 0)
(-0.210286 0.146996 0)
(-0.211042 0.132363 0)
(-0.212205 0.117983 0)
(-0.21364 0.103714 0)
(-0.215207 0.0894362 0)
(-0.216763 0.0750652 0)
(-0.218206 0.0605624 0)
(-0.219447 0.0459231 0)
(-0.220438 0.0311701 0)
(-0.221143 0.0163423 0)
(-0.221552 0.00148825 0)
(-0.221661 -0.0133404 0)
(-0.221486 -0.0280927 0)
(-0.221041 -0.0427211 0)
(-0.220352 -0.0571831 0)
(-0.219446 -0.071442 0)
(-0.218361 -0.0854692 0)
(-0.21714 -0.099247 0)
(-0.215858 -0.112778 0)
(-0.214627 -0.126103 0)
(-0.213628 -0.139328 0)
(-0.213138 -0.152669 0)
(-0.213542 -0.166493 0)
(-0.215315 -0.181349 0)
(-0.21892 -0.19792 0)
(-0.224589 -0.216851 0)
(-0.231969 -0.238315 0)
(-0.239695 -0.261442 0)
(-0.245062 -0.283519 0)
(-0.244049 -0.299593 0)
(-0.231992 -0.302522 0)
(-0.205149 -0.284696 0)
(-0.163149 -0.241305 0)
(-0.111797 -0.176023 0)
(-0.0632843 -0.104306 0)
(-0.0295896 -0.0460798 0)
(-0.0111935 -0.00897987 0)
(-0.0025492 0.0107208 0)
(0.000228685 0.0165344 0)
(0.000260884 0.00994653 0)
(-0.00148567 0.018489 0)
(-0.00784158 0.0420507 0)
(-0.0178004 0.0588222 0)
(-0.0291645 0.0748883 0)
(-0.0429239 0.093728 0)
(-0.0585416 0.116005 0)
(-0.0764219 0.141013 0)
(-0.0957266 0.167135 0)
(-0.115902 0.192507 0)
(-0.135593 0.214905 0)
(-0.153679 0.232301 0)
(-0.168876 0.243105 0)
(-0.180546 0.246723 0)
(-0.188461 0.243557 0)
(-0.193125 0.234918 0)
(-0.19533 0.222499 0)
(-0.1961 0.207989 0)
(-0.19628 0.192676 0)
(-0.196534 0.177384 0)
(-0.197187 0.162466 0)
(-0.198363 0.147972 0)
(-0.199985 0.133768 0)
(-0.201924 0.11968 0)
(-0.204002 0.105546 0)
(-0.206078 0.0912587 0)
(-0.208022 0.0767623 0)
(-0.209753 0.0620491 0)
(-0.211203 0.0471419 0)
(-0.212341 0.0320869 0)
(-0.213142 0.0169414 0)
(-0.213607 0.00176855 0)
(-0.213742 -0.0133689 0)
(-0.213567 -0.028412 0)
(-0.213102 -0.0433082 0)
(-0.212377 -0.0580121 0)
(-0.211417 -0.0724854 0)
(-0.21025 -0.0866959 0)
(-0.208901 -0.100617 0)
(-0.207405 -0.114229 0)
(-0.205813 -0.12753 0)
(-0.204222 -0.140553 0)
(-0.202805 -0.153412 0)
(-0.201851 -0.166343 0)
(-0.201789 -0.179794 0)
(-0.203179 -0.194437 0)
(-0.206586 -0.211166 0)
(-0.212323 -0.230785 0)
(-0.220001 -0.25355 0)
(-0.228 -0.278204 0)
(-0.233108 -0.301203 0)
(-0.230649 -0.315965 0)
(-0.215492 -0.313683 0)
(-0.184099 -0.285476 0)
(-0.137743 -0.228039 0)
(-0.0852874 -0.150397 0)
(-0.0420341 -0.0759804 0)
(-0.0168471 -0.0242778 0)
(-0.00470146 0.00428705 0)
(-0.000243722 0.0150128 0)
(0.000239442 0.0103357 0)
(-0.00160149 0.0228425 0)
(-0.00838581 0.0506998 0)
(-0.0189386 0.0698188 0)
(-0.0308614 0.0877787 0)
(-0.0451416 0.108664 0)
(-0.0610764 0.132958 0)
(-0.0789689 0.159646 0)
(-0.0977929 0.186702 0)
(-0.116891 0.211956 0)
(-0.13483 0.232975 0)
(-0.150587 0.247812 0)
(-0.163094 0.255215 0)
(-0.172068 0.255169 0)
(-0.177638 0.248671 0)
(-0.180599 0.237494 0)
(-0.181857 0.223515 0)
(-0.182403 0.208358 0)
(-0.182915 0.193074 0)
(-0.183846 0.178194 0)
(-0.185317 0.16381 0)
(-0.187302 0.149794 0)
(-0.189635 0.13592 0)
(-0.192154 0.121991 0)
(-0.194681 0.107858 0)
(-0.197097 0.0934452 0)
(-0.199293 0.0787297 0)
(-0.201209 0.063733 0)
(-0.202792 0.0485011 0)