/*--------------------------------*- C++ -*----------------------------------*\
| =========                 |                                                 |
| \\      /  F ield         | OpenFOAM: The Open Source CFD Toolbox           |
|  \\    /   O peration     | Version:  2406                                  |
|   \\  /    A nd           | Website:  www.openfoam.com                      |
|    \\/     M anipulation  |                                                 |
\*---------------------------------------------------------------------------*/
FoamFile
{
    version     2.0;
    format      ascii;
    arch        "LSB;label=32;scalar=64";
    class       volVectorField;
    location    "25.3";
    object      U;
}
// * * * * * * * * * * * * * * * * * * * * * * * * * * * * * * * * * * * * * //

dimensions      [0 1 -1 0 0 0 0];

internalField   nonuniform List<vector> 
14400
(
(-1.56514e-06 1.52696e-06 0)
(2.66276e-05 -1.18064e-05 0)
(0.000112497 -2.68701e-05 0)
(0.000247666 -3.7525e-05 0)
(0.000415163 -4.40454e-05 0)
(0.000600703 -4.69304e-05 0)
(0.000791974 -4.7019e-05 0)
(0.00097941 -4.50416e-05 0)
(0.00115601 -4.16325e-05 0)
(0.00131697 -3.73174e-05 0)
(0.00145937 -3.25233e-05 0)
(0.00158176 -2.75867e-05 0)
(0.00168387 -2.27611e-05 0)
(0.0017663 -1.82257e-05 0)
(0.00183023 -1.40929e-05 0)
(0.00187719 -1.04057e-05 0)
(0.00190892 -7.18121e-06 0)
(0.00192705 -4.5422e-06 0)
(0.00193263 -2.38086e-06 0)
(0.00192679 -1.88695e-07 0)
(0.00191033 1.91137e-06 0)
(0.00188303 4.00073e-06 0)
(0.00184425 6.26632e-06 0)
(0.00179272 8.86992e-06 0)
(0.00172654 1.19614e-05 0)
(0.00164324 1.56787e-05 0)
(0.00153979 2.01422e-05 0)
(0.00141273 2.54532e-05 0)
(0.00125821 3.16938e-05 0)
(0.00107208 3.8929e-05 0)
(0.000849957 4.72084e-05 0)
(0.000587311 5.65684e-05 0)
(0.000279503 6.70334e-05 0)
(-7.81311e-05 7.86145e-05 0)
(-0.000490216 9.13081e-05 0)
(-0.000961251 0.000105092 0)
(-0.00149551 0.000119921 0)
(-0.00209691 0.000135722 0)
(-0.0027689 0.000152393 0)
(-0.0035143 0.000169795 0)
(-0.00433514 0.000187753 0)
(-0.00523249 0.000206056 0)
(-0.00620632 0.000224453 0)
(-0.00725533 0.000242659 0)
(-0.00837681 0.000260353 0)
(-0.00956653 0.000277186 0)
(-0.0108186 0.000292783 0)
(-0.0121256 0.000306749 0)
(-0.0134782 0.000318678 0)
(-0.0148654 0.000328153 0)
(-0.0162747 0.00033476 0)
(-0.0176917 0.00033809 0)
(-0.0191009 0.000337751 0)
(-0.0204853 0.00033337 0)
(-0.0218265 0.000324607 0)
(-0.0231057 0.000311158 0)
(-0.0243029 0.000292765 0)
(-0.0253982 0.000269228 0)
(-0.0263711 0.000240417 0)
(-0.0272018 0.00020627 0)
(-0.0278709 0.000166738 0)
(-0.0283607 0.000122318 0)
(-0.0286545 7.47818e-05 0)
(-0.0287345 2.33383e-05 0)
(-0.0285885 -3.42997e-05 0)
(-0.0282098 -9.50585e-05 0)
(-0.0275898 -0.000157543 0)
(-0.0267255 -0.000221009 0)
(-0.0256184 -0.000284308 0)
(-0.024274 -0.000346154 0)
(-0.022703 -0.000405152 0)
(-0.0209206 -0.000459844 0)
(-0.0189473 -0.00050876 0)
(-0.016808 -0.000550481 0)
(-0.0145325 -0.000583702 0)
(-0.0121543 -0.0006073 0)
(-0.00971009 -0.000620399 0)
(-0.0072391 -0.000622432 0)
(-0.00478175 -0.000613187 0)
(-0.00237859 -0.000592841 0)
(-6.90285e-05 -0.000561967 0)
(0.00210994 -0.000521526 0)
(0.00412495 -0.000472828 0)
(0.00594741 -0.000417471 0)
(0.00755434 -0.000357265 0)
(0.00892913 -0.000294132 0)
(0.0100619 -0.000230011 0)
(0.0109494 -0.000166756 0)
(0.0115953 -0.000106038 0)
(0.012009 -4.92113e-05 0)
(0.0122062 2.293e-06 0)
(0.0122051 4.64853e-05 0)
(0.012027 8.38386e-05 0)
(0.0116977 0.000115535 0)
(0.0112435 0.000140954 0)
(0.0106895 0.000159823 0)
(0.0100603 0.000172649 0)
(0.00937878 0.000180105 0)
(0.00866589 0.000182903 0)
(0.00793989 0.00018179 0)
(0.00721629 0.000177508 0)
(0.00650777 0.000170764 0)
(0.00582427 0.000162213 0)
(0.00517319 0.000152443 0)
(0.00455957 0.000141966 0)
(0.00398641 0.000131223 0)
(0.00345495 0.000120581 0)
(0.00296494 0.000110331 0)
(0.00251502 0.000100692 0)
(0.00210298 9.17939e-05 0)
(0.00172625 8.36634e-05 0)
(0.00138231 7.61948e-05 0)
(0.00106933 6.9117e-05 0)
(0.00078685 6.19612e-05 0)
(0.000536549 5.40406e-05 0)
(0.000322922 4.45032e-05 0)
(0.00015357 3.24881e-05 0)
(3.81239e-05 1.76258e-05 0)
(-1.54732e-05 1.14017e-06 0)
(-9.7978e-06 -9.82451e-06 0)
(1.14481e-05 -2.63642e-05 0)
(0.000130849 -0.000132092 0)
(0.00036726 -0.000241575 0)
(0.000707579 -0.000322659 0)
(0.00111516 -0.000373224 0)
(0.00156149 -0.000396563 0)
(0.00202005 -0.000397713 0)
(0.00246927 -0.000381841 0)
(0.00289256 -0.000353685 0)
(0.00327801 -0.000317326 0)
(0.0036177 -0.000276161 0)
(0.00390704 -0.000232914 0)
(0.0041441 -0.000189671 0)
(0.00432896 -0.00014793 0)
(0.00446306 -0.000108653 0)
(0.00454866 -7.23159e-05 0)
(0.00458827 -3.899e-05 0)
(0.00458433 -8.51682e-06 0)
(0.00453893 1.97438e-05 0)
(0.0044529 4.70173e-05 0)
(0.00432595 7.42179e-05 0)
(0.00415667 0.000102544 0)
(0.00394205 0.000133316 0)
(0.00367752 0.000167864 0)
(0.00335697 0.000207469 0)
(0.00297287 0.000253311 0)
(0.00251641 0.000306424 0)
(0.00197767 0.000367679 0)
(0.00134589 0.000437764 0)
(0.000609653 0.000517195 0)
(-0.000242816 0.000606315 0)
(-0.00122344 0.000705304 0)
(-0.00234403 0.000814178 0)
(-0.00361601 0.000932776 0)
(-0.00505014 0.00106074 0)
(-0.00665617 0.00119748 0)
(-0.00844251 0.00134216 0)
(-0.0104159 0.00149364 0)
(-0.0125808 0.00165046 0)
(-0.0149392 0.00181084 0)
(-0.0174903 0.00197264 0)
(-0.0202298 0.00213342 0)
(-0.0231497 0.00229041 0)
(-0.0262382 0.00244059 0)
(-0.0294796 0.0025807 0)
(-0.0328539 0.00270735 0)
(-0.0363368 0.00281704 0)
(-0.0399005 0.00290628 0)
(-0.0435131 0.00297161 0)
(-0.0471396 0.00300975 0)
(-0.0507419 0.00301762 0)
(-0.0542796 0.00299246 0)
(-0.0577106 0.00293186 0)
(-0.0609913 0.00283383 0)
(-0.064078 0.00269687 0)
(-0.0669267 0.00251999 0)
(-0.0694946 0.00230278 0)
(-0.07174 0.00204544 0)
(-0.0736236 0.00174882 0)
(-0.0751088 0.00141447 0)
(-0.0761622 0.00104461 0)
(-0.0767539 0.000642327 0)
(-0.0768608 0.000212536 0)
(-0.0764644 -0.00023961 0)
(-0.0755468 -0.000712533 0)
(-0.0741018 -0.00119816 0)
(-0.0721288 -0.00168948 0)
(-0.0696339 -0.00217878 0)
(-0.0666304 -0.00265788 0)
(-0.0631394 -0.00311808 0)
(-0.0591897 -0.00355044 0)
(-0.0548183 -0.00394589 0)
(-0.0500697 -0.00429558 0)
(-0.0449958 -0.0045911 0)
(-0.0396554 -0.00482479 0)
(-0.0341135 -0.00499011 0)
(-0.0284398 -0.00508195 0)
(-0.0227081 -0.00509689 0)
(-0.0169946 -0.00503352 0)
(-0.011376 -0.00489256 0)
(-0.00592792 -0.00467702 0)
(-0.000723106 -0.00439217 0)
(0.0041707 -0.00404543 0)
(0.00869253 -0.00364612 0)
(0.0127898 -0.00320518 0)
(0.0164201 -0.00273467 0)
(0.0195519 -0.00224731 0)
(0.0221656 -0.00175591 0)
(0.0242541 -0.00127288 0)
(0.0258221 -0.000809666 0)
(0.0268855 -0.000376471 0)
(0.0274713 1.75981e-05 0)
(0.0276165 0.000367315 0)
(0.0273643 0.000669731 0)
(0.0267626 0.000922104 0)
(0.0258635 0.00112385 0)
(0.0247205 0.00127659 0)
(0.0233865 0.00138348 0)
(0.0219117 0.00144874 0)
(0.0203429 0.0014774 0)
(0.0187222 0.00147485 0)
(0.0170861 0.00144666 0)
(0.0154652 0.00139825 0)
(0.0138847 0.00133474 0)
(0.0123635 0.0012608 0)
(0.0109156 0.0011806 0)
(0.00955019 0.00109768 0)
(0.00827207 0.00101499 0)
(0.0070828 0.000934779 0)
(0.00598137 0.000858497 0)
(0.00496519 0.000786671 0)
(0.00403134 0.000718705 0)
(0.00317788 0.00065268 0)
(0.00240538 0.000585209 0)
(0.00171835 0.000511469 0)
(0.00112641 0.000425748 0)
(0.0006443 0.000322912 0)
(0.000288608 0.000201927 0)
(7.6818e-05 7.26369e-05 0)
(1.99919e-06 -1.46877e-05 0)
(2.60878e-05 -0.000110633 0)
(0.000238181 -0.00036752 0)
(0.000599898 -0.000603732 0)
(0.00109427 -0.000778999 0)
(0.0016705 -0.000889157 0)
(0.00229356 -0.000939865 0)
(0.00292934 -0.000940759 0)
(0.00354926 -0.000902378 0)
(0.00413073 -0.000834786 0)
(0.00465686 -0.000746927 0)
(0.0051158 -0.000646388 0)
(0.00549999 -0.000539332 0)
(0.00580532 -0.000430531 0)
(0.00603026 -0.000323435 0)
(0.00617512 -0.000220276 0)
(0.00624124 -0.000122186 0)
(0.00623022 -2.9286e-05 0)
(0.00614354 5.92725e-05 0)
(0.00598195 0.000144896 0)
(0.00574468 0.000229609 0)
(0.00542928 0.000316167 0)
(0.00503146 0.000407561 0)
(0.00454472 0.00050695 0)
(0.00396037 0.000617528 0)
(0.00326751 0.000742363 0)
(0.00245328 0.000884264 0)
(0.00150303 0.00104567 0)
(0.000400718 0.00122856 0)
(-0.000870711 0.00143445 0)
(-0.00232892 0.00166432 0)
(-0.00399169 0.00191864 0)
(-0.00587645 0.00219736 0)
(-0.00799978 0.00249988 0)
(-0.0103768 0.00282501 0)
(-0.0130208 0.00317095 0)
(-0.0159423 0.00353518 0)
(-0.0191486 0.0039144 0)
(-0.0226432 0.00430455 0)
(-0.0264252 0.0047007 0)
(-0.0304884 0.00509711 0)
(-0.0348212 0.00548727 0)
(-0.0394061 0.00586401 0)
(-0.0442194 0.00621959 0)
(-0.0492314 0.00654589 0)
(-0.0544064 0.00683461 0)
(-0.0597031 0.00707744 0)
(-0.0650752 0.00726632 0)
(-0.070472 0.00739362 0)
(-0.0758395 0.00745236 0)
(-0.0811209 0.00743641 0)
(-0.0862581 0.00734059 0)
(-0.0911925 0.00716085 0)
(-0.0958659 0.00689432 0)
(-0.100221 0.00653939 0)
(-0.104205 0.00609572 0)
(-0.107764 0.00556426 0)
(-0.110851 0.00494724 0)
(-0.113423 0.00424813 0)
(-0.115441 0.00347166 0)
(-0.11687 0.0026238 0)
(-0.117683 0.00171167 0)
(-0.117855 0.000743287 0)
(-0.117369 -0.000272113 0)
(-0.116218 -0.00132219 0)
(-0.114395 -0.0023956 0)
(-0.111902 -0.00348037 0)
(-0.108749 -0.00456257 0)
(-0.104951 -0.0056272 0)
(-0.100532 -0.00665856 0)
(-0.0955229 -0.00764037 0)
(-0.0899617 -0.00855608 0)
(-0.0838941 -0.00938917 0)
(-0.0773731 -0.0101235 0)
(-0.0704589 -0.0107438 0)
(-0.0632184 -0.0112362 0)
(-0.0557246 -0.0115886 0)
(-0.0480561 -0.0117914 0)
(-0.0402957 -0.0118379 0)
(-0.0325292 -0.0117246 0)
(-0.0248443 -0.0114521 0)
(-0.0173288 -0.0110247 0)
(-0.0100687 -0.010451 0)
(-0.00314634 -0.00974331 0)
(0.00336123 -0.00891799 0)
(0.00938441 -0.00799456 0)
(0.0148627 -0.00699523 0)
(0.0197463 -0.00594413 0)
(0.0239973 -0.00486642 0)
(0.0275911 -0.00378737 0)
(0.0305162 -0.00273137 0)
(0.0327751 -0.00172094 0)
(0.0343841 -0.000775509 0)
(0.0353724 8.83428e-05 0)
(0.0357796 0.000857129 0)
(0.0356548 0.00152219 0)
(0.0350559 0.00207923 0)
(0.0340459 0.00252765 0)
(0.0326909 0.00287043 0)
(0.0310573 0.00311368 0)
(0.0292102 0.00326597 0)
(0.0272112 0.00333763 0)
(0.0251167 0.00334011 0)
(0.0229769 0.00328529 0)
(0.0208347 0.00318496 0)
(0.0187257 0.00305038 0)
(0.0166783 0.00289191 0)
(0.0147135 0.00271874 0)
(0.0128461 0.00253872 0)
(0.0110854 0.00235802 0)
(0.00943621 0.00218097 0)
(0.00790041 0.00200964 0)
(0.00647842 0.00184349 0)
(0.00517108 0.00167899 0)
(0.00398147 0.00150948 0)
(0.00291677 0.00132549 0)
(0.00198941 0.001116 0)
(0.00121715 0.000871586 0)
(0.000618017 0.000590658 0)
(0.0002212 0.000290238 0)
(2.06793e-05 4.51033e-05 0)
(3.65222e-05 -0.000243226 0)
(0.000318986 -0.000706126 0)
(0.000776055 -0.00109832 0)
(0.00138319 -0.00138471 0)
(0.00207595 -0.00156277 0)
(0.00281451 -0.00164193 0)
(0.00356013 -0.00163722 0)
(0.00428016 -0.00156533 0)
(0.00494839 -0.00144247 0)
(0.00554471 -0.00128328 0)
(0.00605444 -0.00110032 0)
(0.0064675 -0.000903851 0)
(0.00677751 -0.000701871 0)
(0.0069809 -0.000500157 0)
(0.00707596 -0.000302427 0)
(0.00706206 -0.000110513 0)
(0.00693883 7.54781e-05 0)
(0.00670532 0.000257056 0)
(0.00635949 0.000436928 0)
(0.00589767 0.000618909 0)
(0.00531397 0.000807767 0)
(0.00460003 0.00100885 0)
(0.00374484 0.00122782 0)
(0.00273471 0.00147032 0)
(0.00155337 0.00174176 0)
(0.000182282 0.002047 0)
(-0.00139897 0.00239012 0)
(-0.00321215 0.00277435 0)
(-0.00527972 0.00320184 0)
(-0.00762421 0.00367369 0)
(-0.0102674 0.00418988 0)
(-0.0132297 0.00474919 0)
(-0.0165289 0.00534918 0)
(-0.0201799 0.00598613 0)
(-0.0241934 0.00665489 0)
(-0.028575 0.00734889 0)
(-0.0333245 0.00806 0)
(-0.0384352 0.00877859 0)
(-0.0438929 0.00949356 0)
(-0.0496758 0.0101925 0)
(-0.0557542 0.0108619 0)
(-0.0620903 0.0114876 0)
(-0.068639 0.0120547 0)
(-0.0753481 0.0125487 0)
(-0.0821597 0.0129551 0)
(-0.0890108 0.0132606 0)
(-0.0958353 0.0134528 0)
(-0.102565 0.0135213 0)
(-0.10913 0.0134571 0)
(-0.115463 0.0132535 0)
(-0.121497 0.012906 0)
(-0.127169 0.0124121 0)
(-0.132421 0.0117717 0)
(-0.137196 0.0109865 0)
(-0.141446 0.0100605 0)
(-0.145127 0.00899907 0)
(-0.1482 0.00780963 0)
(-0.150632 0.00650093 0)
(-0.152395 0.00508318 0)
(-0.153467 0.00356798 0)
(-0.153831 0.0019682 0)
(-0.153476 0.00029798 0)
(-0.152394 -0.00142774 0)
(-0.150585 -0.00319315 0)
(-0.148051 -0.00497883 0)
(-0.144801 -0.00676608 0)
(-0.14085 -0.00853479 0)
(-0.136215 -0.0102636 0)
(-0.130923 -0.0119303 0)
(-0.125005 -0.0135116 0)
(-0.118499 -0.0149841 0)
(-0.111447 -0.0163241 0)
(-0.103902 -0.0175084 0)
(-0.0959198 -0.0185149 0)
(-0.0875654 -0.0193232 0)
(-0.0789088 -0.0199153 0)
(-0.0700264 -0.0202762 0)
(-0.0609996 -0.0203952 0)
(-0.051914 -0.0202657 0)
(-0.0428584 -0.0198866 0)
(-0.0339231 -0.0192623 0)
(-0.0251984 -0.0184032 0)
(-0.016773 -0.0173253 0)
(-0.00873191 -0.0160505 0)
(-0.00115486 -0.0146058 0)
(0.00588561 -0.0130224 0)
(0.0123259 -0.0113352 0)
(0.0181127 -0.0095815 0)
(0.0232047 -0.00779959 0)
(0.027573 -0.00602755 0)
(0.0312025 -0.00430187 0)
(0.0340919 -0.00265618 0)
(0.0362535 -0.00112054 0)
(0.0377125 0.000279856 0)
(0.0385074 0.00152604 0)
(0.0386873 0.00260505 0)
(0.0383104 0.00350993 0)
(0.037442 0.00423978 0)
(0.0361524 0.0047993 0)
(0.0345139 0.00519805 0)
(0.0325985 0.00544956 0)
(0.0304758 0.00557024 0)
(0.0282108 0.00557842 0)
(0.0258622 0.00549324 0)
(0.0234814 0.00533383 0)
(0.0211121 0.00511846 0)
(0.0187895 0.00486396 0)
(0.0165412 0.00458504 0)
(0.0143875 0.00429383 0)
(0.0123427 0.00399923 0)
(0.0104164 0.00370633 0)
(0.00861544 0.00341572 0)
(0.00694566 0.00312306 0)
(0.00541414 0.00281882 0)
(0.00403118 0.00248903 0)
(0.00281185 0.0021173 0)
(0.00177666 0.00168927 0)
(0.000946049 0.00120079 0)
(0.00036642 0.000670359 0)
(3.92037e-05 0.000177395 0)
(4.3449e-05 -0.000408748 0)
(0.000373732 -0.00111456 0)
(0.000896559 -0.00167878 0)
(0.00157916 -0.00208043 0)
(0.00234492 -0.0023238 0)
(0.00314947 -0.00242457 0)
(0.00395053 -0.00240424 0)
(0.00471283 -0.00228609 0)
(0.00540792 -0.00209273 0)
(0.00601366 -0.00184461 0)
(0.00651329 -0.00155936 0)
(0.00689467 -0.0012514 0)
(0.00714923 -0.000931944 0)
(0.00727108 -0.000609061 0)
(0.00725603 -0.00028785 0)
(0.00710068 2.93487e-05 0)
(0.00680164 0.000342698 0)
(0.0063546 0.000654572 0)
(0.00575378 0.000969416 0)
(0.00499128 0.00129324 0)
(0.00405659 0.00163333 0)
(0.0029363 0.00199782 0)
(0.00161398 0.00239523 0)
(7.0266e-05 0.00283401 0)
(-0.00171688 0.00332204 0)
(-0.00377168 0.00386622 0)
(-0.00611991 0.00447211 0)
(-0.00878805 0.00514365 0)
(-0.0118024 0.00588296 0)
(-0.015188 0.00669019 0)
(-0.0189676 0.00756343 0)
(-0.0231606 0.0084986 0)
(-0.0277814 0.00948937 0)
(-0.0328389 0.0105271 0)
(-0.0383349 0.0116006 0)
(-0.0442632 0.0126966 0)
(-0.0506088 0.013799 0)
(-0.057347 0.0148899 0)
(-0.0644438 0.0159495 0)
(-0.0718553 0.0169564 0)
(-0.0795288 0.0178887 0)
(-0.0874033 0.0187241 0)
(-0.0954114 0.019441 0)
(-0.10348 0.0200189 0)
(-0.111534 0.0204393 0)
(-0.119496 0.0206862 0)
(-0.127289 0.0207465 0)
(-0.134839 0.0206102 0)
(-0.142074 0.0202707 0)
(-0.14893 0.0197249 0)
(-0.155346 0.0189725 0)
(-0.161268 0.0180163 0)
(-0.166649 0.0168619 0)
(-0.171447 0.0155169 0)
(-0.175628 0.013991 0)
(-0.17916 0.0122956 0)
(-0.182022 0.0104435 0)
(-0.184191 0.00844883 0)
(-0.185654 0.00632665 0)
(-0.186399 0.00409314 0)
(-0.186418 0.0017655 0)
(-0.185705 -0.000637881 0)
(-0.184259 -0.00309757 0)
(-0.182082 -0.00559345 0)
(-0.179177 -0.00810324 0)
(-0.175553 -0.0106035 0)
(-0.171221 -0.0130693 0)
(-0.166197 -0.0154746 0)
(-0.1605 -0.0177917 0)
(-0.154156 -0.019992 0)
(-0.147195 -0.0220458 0)
(-0.139654 -0.0239233 0)
(-0.131576 -0.0255946 0)
(-0.123011 -0.0270308 0)
(-0.114016 -0.0282049 0)
(-0.104656 -0.0290923 0)
(-0.0950006 -0.0296721 0)
(-0.085128 -0.029928 0)
(-0.0751212 -0.0298492 0)
(-0.0650678 -0.0294315 0)
(-0.0550589 -0.0286775 0)
(-0.045187 -0.0275975 0)
(-0.0355448 -0.0262093 0)
(-0.0262234 -0.0245382 0)
(-0.0173097 -0.0226165 0)
(-0.00888523 -0.0204829 0)
(-0.0010242 -0.0181809 0)
(0.0062082 -0.015758 0)
(0.0127571 -0.0132641 0)
(0.0185791 -0.0107499 0)
(0.0236431 -0.00826506 0)
(0.0279312 -0.00585705 0)
(0.0314385 -0.00356944 0)
(0.0341737 -0.00144021 0)
(0.0361587 0.000498909 0)
(0.0374279 0.00222331 0)
(0.0380272 0.00371631 0)
(0.0380122 0.00496932 0)
(0.0374472 0.00598159 0)
(0.036402 0.00675973 0)
(0.0349503 0.00731684 0)
(0.0331667 0.00767131 0)
(0.0311245 0.00784558 0)
(0.0288933 0.00786469 0)
(0.0265372 0.00775496 0)
(0.0241132 0.00754265 0)
(0.0216707 0.0072528 0)
(0.0192508 0.00690813 0)
(0.0168864 0.00652804 0)
(0.0146035 0.00612757 0)
(0.0124218 0.00571635 0)
(0.0103568 0.00529769 0)
(0.0084213 0.00486778 0)
(0.00662808 0.00441557 0)
(0.00499188 0.00392354 0)
(0.00353151 0.00337028 0)
(0.00227165 0.00273549 0)
(0.00123746 0.00200861 0)
(0.000494768 0.00120078 0)
(5.52497e-05 0.000377578 0)
(4.75907e-05 -0.000595686 0)
(0.000407111 -0.00156964 0)
(0.000969422 -0.00231632 0)
(0.00169439 -0.00283288 0)
(0.00249547 -0.00313451 0)
(0.00332388 -0.00324574 0)
(0.0041343 -0.00319598 0)
(0.00488953 -0.0030158 0)
(0.00555964 -0.00273444 0)
(0.00612106 -0.0023782 0)
(0.00655553 -0.00196962 0)
(0.00684909 -0.00152711 0)
(0.00699104 -0.00106485 0)
(0.00697299 -0.000592921 0)
(0.00678784 -0.000117482 0)
(0.00642887 0.000358945 0)
(0.00588889 0.000837186 0)
(0.00515937 0.00132106 0)
(0.00422982 0.00181703 0)
(0.00308716 0.00233373 0)
(0.00171531 0.00288138 0)
(9.49943e-05 0.00347126 0)
(-0.00179625 0.00411497 0)
(-0.00398377 0.00482375 0)
(-0.00649532 0.00560777 0)
(-0.00936018 0.00647551 0)
(-0.0126083 0.00743321 0)
(-0.0162688 0.00848443 0)
(-0.0203693 0.00962974 0)
(-0.0249335 0.0108665 0)
(-0.0299809 0.0121887 0)
(-0.0355241 0.0135867 0)
(-0.0415683 0.0150475 0)
(-0.0481095 0.0165544 0)
(-0.0551334 0.0180872 0)
(-0.0626148 0.0196224 0)
(-0.0705171 0.0211338 0)
(-0.0787924 0.0225928 0)
(-0.0873823 0.0239693 0)
(-0.0962192 0.0252329 0)
(-0.105228 0.0263535 0)
(-0.114327 0.0273026 0)
(-0.123434 0.0280544 0)
(-0.132463 0.0285864 0)
(-0.141333 0.0288801 0)
(-0.149964 0.0289218 0)
(-0.158284 0.0287022 0)
(-0.166224 0.0282165 0)
(-0.173727 0.0274645 0)
(-0.180739 0.0264497 0)
(-0.187218 0.025179 0)
(-0.193124 0.023662 0)
(-0.198429 0.0219107 0)
(-0.203106 0.0199389 0)
(-0.207136 0.0177616 0)
(-0.210502 0.0153948 0)
(-0.213191 0.0128555 0)
(-0.215192 0.010161 0)
(-0.216498 0.00732948 0)
(-0.217101 0.00437958 0)
(-0.216997 0.00133076 0)
(-0.216182 -0.00179662 0)
(-0.214652 -0.00498108 0)
(-0.212406 -0.00819978 0)
(-0.209445 -0.0114283 0)
(-0.205772 -0.0146406 0)
(-0.20139 -0.0178084 0)
(-0.196308 -0.0209019 0)
(-0.190537 -0.023889 0)
(-0.184093 -0.026736 0)
(-0.176998 -0.0294077 0)
(-0.169279 -0.0318678 0)
(-0.160968 -0.0340799 0)
(-0.152108 -0.0360076 0)
(-0.142746 -0.0376165 0)
(-0.13294 -0.0388742 0)
(-0.122754 -0.0397527 0)
(-0.112262 -0.0402288 0)
(-0.101543 -0.0402856 0)
(-0.0906851 -0.039914 0)
(-0.079779 -0.0391133 0)
(-0.0689209 -0.0378919 0)
(-0.058208 -0.0362677 0)
(-0.0477374 -0.0342681 0)
(-0.0376039 -0.0319295 0)
(-0.0278978 -0.0292964 0)
(-0.0187027 -0.0264201 0)
(-0.0100944 -0.0233573 0)
(-0.00213879 -0.0201683 0)
(0.00510888 -0.0169152 0)
(0.0116051 -0.01366 0)
(0.0173185 -0.0104629 0)
(0.0222303 -0.0073804 0)
(0.0263346 -0.0044637 0)
(0.0296382 -0.00175745 0)
(0.0321603 0.000701468 0)
(0.0339322 0.00288495 0)
(0.0349967 0.00477421 0)
(0.0354063 0.00636002 0)
(0.0352226 0.00764254 0)
(0.0345137 0.00863075 0)
(0.0333521 0.0093414 0)
(0.0318128 0.00979778 0)
(0.02997 0.0100281 0)
(0.0278955 0.0100637 0)
(0.0256563 0.0099376 0)
(0.0233132 0.00968242 0)
(0.0209194 0.00932895 0)
(0.0185207 0.00890445 0)
(0.0161549 0.00843108 0)
(0.0138531 0.00792436 0)
(0.0116406 0.00739174 0)
(0.00953915 0.00683151 0)
(0.0075686 0.00623244 0)
(0.00574975 0.00557452 0)
(0.00410684 0.00483147 0)
(0.00267049 0.00397571 0)
(0.00147252 0.00298633 0)
(0.000597586 0.00185957 0)
(6.79045e-05 0.00063457 0)
(4.98088e-05 -0.000794897 0)
(0.000424108 -0.00205052 0)
(0.00100363 -0.00298283 0)
(0.00174196 -0.00360877 0)
(0.00254495 -0.00395724 0)
(0.00335987 -0.00406388 0)
(0.00413885 -0.00396747 0)
(0.00484312 -0.00370661 0)
(0.00544168 -0.00331741 0)
(0.00590993 -0.00283192 0)
(0.00622829 -0.00227737 0)
(0.00638113 -0.00167573 0)
(0.00635557 -0.00104372 0)
(0.00614049 -0.000392947 0)
(0.00572549 0.00026986 0)
(0.00510001 0.000942515 0)
(0.00425239 0.00162702 0)
(0.00316913 0.00232913 0)
(0.00183422 0.00305785 0)
(0.000228651 0.0038248 0)
(-0.00166989 0.00464349 0)
(-0.00388703 0.00552842 0)
(-0.0064514 0.00649418 0)
(-0.00939406 0.00755441 0)
(-0.0127476 0.00872084 0)
(-0.0165448 0.0100024 0)
(-0.0208173 0.0114045 0)
(-0.025594 0.0129282 0)
(-0.0308993 0.0145704 0)
(-0.0367508 0.0163227 0)
(-0.0431585 0.0181718 0)
(-0.0501221 0.0200995 0)
(-0.0576303 0.0220824 0)
(-0.0656592 0.0240927 0)
(-0.0741722 0.026098 0)
(-0.0831197 0.0280627 0)
(-0.0924397 0.0299488 0)
(-0.10206 0.0317168 0)
(-0.111899 0.0333276 0)
(-0.121869 0.0347438 0)
(-0.13188 0.0359307 0)
(-0.14184 0.0368584 0)
(-0.151663 0.0375018 0)
(-0.161265 0.037842 0)
(-0.17057 0.0378659 0)
(-0.17951 0.0375667 0)
(-0.188026 0.0369429 0)
(-0.196068 0.0359984 0)
(-0.203596 0.0347409 0)
(-0.210575 0.0331818 0)
(-0.216979 0.031335 0)
(-0.222786 0.0292163 0)
(-0.227981 0.026843 0)
(-0.23255 0.0242329 0)
(-0.236483 0.0214044 0)
(-0.239772 0.018376 0)
(-0.24241 0.0151664 0)
(-0.244389 0.0117944 0)
(-0.245704 0.00827882 0)
(-0.246348 0.00463908 0)
(-0.246315 0.000895158 0)
(-0.245598 -0.00293203 0)
(-0.244193 -0.00682037 0)
(-0.242092 -0.0107461 0)
(-0.23929 -0.0146834 0)
(-0.235783 -0.0186045 0)
(-0.231569 -0.0224789 0)
(-0.226647 -0.0262738 0)
(-0.22102 -0.0299533 0)
(-0.214693 -0.0334793 0)
(-0.207677 -0.0368112 0)
(-0.19999 -0.0399065 0)
(-0.191652 -0.0427217 0)
(-0.182696 -0.0452127 0)
(-0.173159 -0.0473366 0)
(-0.16309 -0.0490526 0)
(-0.152545 -0.0503235 0)
(-0.14159 -0.0511176 0)
(-0.130304 -0.0514102 0)
(-0.118769 -0.0511848 0)
(-0.10708 -0.0504353 0)
(-0.0953345 -0.0491662 0)
(-0.0836363 -0.0473936 0)
(-0.07209 -0.0451454 0)
(-0.0607998 -0.0424608 0)
(-0.0498666 -0.0393892 0)
(-0.0393855 -0.0359891 0)
(-0.0294438 -0.032326 0)
(-0.0201191 -0.0284705 0)
(-0.0114777 -0.0244959 0)
(-0.00357419 -0.0204762 0)
(0.00354942 -0.0164839 0)
(0.00986364 -0.0125879 0)
(0.0153514 -0.00885199 0)
(0.0200081 -0.00533321 0)
(0.0238409 -0.00208048 0)
(0.0268687 0.000866391 0)
(0.0291216 0.00347762 0)
(0.0306405 0.00573396 0)
(0.0314756 0.00762692 0)
(0.0316862 0.00915857 0)
(0.031338 0.0103409 0)
(0.030502 0.0111945 0)
(0.0292519 0.0117477 0)
(0.0276619 0.0120341 0)
(0.0258042 0.0120909 0)
(0.0237472 0.0119566 0)
(0.0215538 0.0116691 0)
(0.0192802 0.0112631 0)
(0.0169755 0.0107681 0)
(0.0146817 0.0102063 0)
(0.0124348 0.00959029 0)
(0.010266 0.00892179 0)
(0.00820348 0.00819059 0)
(0.0062757 0.00737508 0)
(0.00451377 0.00644428 0)
(0.00295568 0.00536212 0)
(0.00164106 0.00409427 0)
(0.000670891 0.00261669 0)
(7.67994e-05 0.000934495 0)
(5.06632e-05 -0.000999647 0)
(0.000428487 -0.00254033 0)
(0.00100631 -0.0036541 0)
(0.00173235 -0.00437851 0)
(0.00250696 -0.00475816 0)
(0.0032742 -0.00484158 0)
(0.00398419 -0.00467812 0)
(0.00459702 -0.00431509 0)
(0.00508086 -0.00379564 0)
(0.00541022 -0.00315746 0)
(0.00556431 -0.00243202 0)
(0.00552574 -0.00164437 0)
(0.00527929 -0.000813188 0)
(0.00481081 4.9034e-05 0)
(0.00410621 0.000935622 0)
(0.00315052 0.00184536 0)
(0.00192706 0.00278202 0)
(0.000416702 0.00375385 0)
(-0.00140267 0.00477284 0)
(-0.0035565 0.00585394 0)
(-0.00607361 0.00701398 0)
(-0.00898589 0.00827054 0)
(-0.0123276 0.0096406 0)
(-0.0161344 0.0111392 0)
(-0.0204417 0.0127782 0)
(-0.025283 0.0145651 0)
(-0.0306882 0.0165017 0)
(-0.036681 0.0185843 0)
(-0.043277 0.020802 0)
(-0.0504819 0.0231377 0)
(-0.0582891 0.0255671 0)
(-0.0666788 0.0280595 0)
(-0.0756166 0.0305784 0)
(-0.0850539 0.0330818 0)
(-0.0949278 0.035524 0)
(-0.105163 0.037857 0)
(-0.115674 0.040032 0)
(-0.126368 0.0420016 0)
(-0.137147 0.0437214 0)
(-0.147916 0.0451522 0)
(-0.15858 0.046261 0)
(-0.169051 0.047022 0)
(-0.17925 0.0474169 0)
(-0.189106 0.0474352 0)
(-0.198559 0.0470734 0)
(-0.20756 0.0463343 0)
(-0.216069 0.0452258 0)
(-0.224054 0.0437605 0)
(-0.231492 0.0419538 0)
(-0.238365 0.0398235 0)
(-0.244659 0.0373886 0)
(-0.250364 0.0346691 0)
(-0.255473 0.031685 0)
(-0.25998 0.0284562 0)
(-0.26388 0.0250022 0)
(-0.267167 0.0213423 0)
(-0.269837 0.0174953 0)
(-0.271885 0.0134797 0)
(-0.273304 0.00931429 0)
(-0.274088 0.00501782 0)
(-0.274229 0.000609865 0)
(-0.273719 -0.00388902 0)
(-0.272549 -0.00845694 0)
(-0.270711 -0.0130701 0)
(-0.268193 -0.0177024 0)
(-0.264986 -0.0223251 0)
(-0.261082 -0.0269066 0)
(-0.256471 -0.0314118 0)
(-0.251148 -0.0358023 0)
(-0.245108 -0.0400361 0)
(-0.238351 -0.044068 0)
(-0.230882 -0.0478498 0)
(-0.22271 -0.0513311 0)
(-0.213852 -0.0544602 0)
(-0.204335 -0.0571849 0)
(-0.194193 -0.0594548 0)
(-0.183471 -0.0612224 0)
(-0.172229 -0.0624454 0)
(-0.160533 -0.0630884 0)
(-0.148465 -0.0631256 0)
(-0.136115 -0.0625421 0)
(-0.123586 -0.0613356 0)
(-0.110985 -0.0595178 0)
(-0.0984254 -0.0571146 0)
(-0.0860239 -0.0541661 0)
(-0.0738948 -0.0507257 0)
(-0.062148 -0.0468582 0)
(-0.0508864 -0.042638 0)
(-0.0402025 -0.0381466 0)
(-0.030177 -0.0334694 0)
(-0.0208769 -0.0286932 0)
(-0.0123556 -0.0239036 0)
(-0.00465214 -0.0191825 0)
(0.00220765 -0.0146061 0)
(0.00821086 -0.0102437 0)
(0.0133566 -0.00615583 0)
(0.0176553 -0.00239342 0)
(0.021128 0.00100302 0)
(0.0238059 0.00400409 0)
(0.0257298 0.00659194 0)
(0.0269495 0.00876032 0)
(0.0275225 0.0105143 0)
(0.0275133 0.0118697 0)
(0.0269912 0.0128515 0)
(0.0260284 0.0134928 0)
(0.0246983 0.0138322 0)
(0.0230728 0.0139119 0)
(0.0212208 0.0137748 0)
(0.0192064 0.0134619 0)
(0.0170875 0.0130096 0)
(0.0149163 0.0124463 0)
(0.0127384 0.0117906 0)
(0.0105947 0.0110482 0)
(0.00852272 0.0102108 0)
(0.00655907 0.00925591 0)
(0.00474297 0.008148 0)
(0.0031205 0.00684185 0)
(0.00173946 0.00528785 0)
(0.000713503 0.00343882 0)
(8.18661e-05 0.00126246 0)
(5.04784e-05 -0.00120481 0)
(0.000422556 -0.003025 0)
(0.000982036 -0.0043088 0)
(0.00167236 -0.00511522 0)
(0.00239033 -0.005506 0)
(0.00307763 -0.00554394 0)
(0.00368307 -0.00528994 0)
(0.00416601 -0.00480047 0)
(0.004494 -0.00412578 0)
(0.00464074 -0.00330887 0)
(0.00458414 -0.00238501 0)
(0.00430488 -0.00138167 0)
(0.00378511 -0.000318786 0)
(0.00300727 0.000790969 0)
(0.00195312 0.00194171 0)
(0.000602806 0.00313388 0)
(-0.0010659 0.00437366 0)
(-0.0030782 0.00567228 0)
(-0.00546266 0.00704509 0)
(-0.00825124 0.00851039 0)
(-0.011479 0.0100881 0)
(-0.0151833 0.0117982 0)
(-0.0194026 0.0136589 0)
(-0.0241746 0.0156847 0)
(-0.0295347 0.0178854 0)
(-0.0355131 0.0202639 0)
(-0.0421324 0.0228157 0)
(-0.0494055 0.0255276 0)
(-0.0573332 0.0283779 0)
(-0.0659019 0.0313362 0)
(-0.0750827 0.034364 0)
(-0.0848305 0.0374151 0)
(-0.0950844 0.0404378 0)
(-0.105769 0.0433758 0)
(-0.116796 0.0461709 0)
(-0.128069 0.0487652 0)
(-0.139486 0.0511036 0)
(-0.150943 0.053136 0)
(-0.162339 0.0548195 0)
(-0.173581 0.0561195 0)
(-0.184582 0.0570106 0)
(-0.195269 0.0574764 0)
(-0.205577 0.0575096 0)
(-0.215456 0.0571106 0)
(-0.224865 0.0562866 0)
(-0.233771 0.0550499 0)
(-0.242153 0.0534171 0)
(-0.249993 0.0514074 0)
(-0.25728 0.0490418 0)
(-0.264005 0.0463422 0)
(-0.270164 0.0433306 0)
(-0.275752 0.040029 0)
(-0.280768 0.0364586 0)
(-0.28521 0.0326398 0)
(-0.289074 0.0285923 0)
(-0.29236 0.0243351 0)
(-0.295065 0.0198864 0)
(-0.297185 0.0152642 0)
(-0.298716 0.0104862 0)
(-0.299652 0.00557029 0)
(-0.299988 0.000534998 0)
(-0.299714 -0.00460021 0)
(-0.298822 -0.0098144 0)
(-0.2973 -0.0150847 0)
(-0.295137 -0.0203857 0)
(-0.292318 -0.0256892 0)
(-0.28883 -0.0309634 0)
(-0.284656 -0.0361726 0)
(-0.279783 -0.0412772 0)
(-0.274195 -0.0462329 0)
(-0.26788 -0.0509911 0)
(-0.26083 -0.0554992 0)
(-0.253039 -0.0597008 0)
(-0.244509 -0.0635366 0)
(-0.235247 -0.0669459 0)
(-0.225273 -0.0698677 0)
(-0.214616 -0.0722429 0)
(-0.203317 -0.0740168 0)
(-0.191434 -0.075141 0)
(-0.179035 -0.0755767 0)
(-0.166207 -0.0752966 0)
(-0.153048 -0.0742877 0)
(-0.139669 -0.0725531 0)
(-0.126193 -0.070113 0)
(-0.112745 -0.067005 0)
(-0.0994583 -0.0632838 0)
(-0.0864603 -0.0590194 0)
(-0.0738749 -0.0542947 0)
(-0.0618157 -0.0492025 0)
(-0.0503836 -0.0438418 0)
(-0.0396639 -0.0383143 0)
(-0.0297254 -0.0327208 0)
(-0.0206199 -0.0271584 0)
(-0.012383 -0.0217175 0)
(-0.00503491 -0.0164805 0)
(0.00141773 -0.0115199 0)
(0.00698037 -0.00689769 0)
(0.0116692 -0.00266461 0)
(0.0155102 0.00114045 0)
(0.0185382 0.00449063 0)
(0.0207962 0.00737134 0)
(0.022335 0.00978015 0)
(0.0232125 0.0117264 0)
(0.0234925 0.0132305 0)
(0.0232433 0.0143222 0)
(0.0225362 0.0150392 0)
(0.0214436 0.0154248 0)
(0.0200369 0.0155248 0)
(0.0183849 0.0153846 0)
(0.0165523 0.015046 0)
(0.0145989 0.0145433 0)
(0.0125792 0.0139003 0)
(0.010543 0.0131271 0)
(0.00853668 0.0122178 0)
(0.00660576 0.0111493 0)
(0.0047978 0.00988195 0)
(0.00316709 0.0083611 0)
(0.00176921 0.00652147 0)
(0.000726348 0.00429216 0)
(8.32701e-05 0.00160363 0)
(4.93835e-05 -0.00140608 0)
(0.000407317 -0.00349209 0)
(0.000932878 -0.00492741 0)
(0.00156521 -0.00579364 0)
(0.00219929 -0.00617102 0)
(0.00277539 -0.00613764 0)
(0.00324177 -0.00576657 0)
(0.0035575 -0.00512366 0)
(0.00368974 -0.00426611 0)
(0.00361134 -0.00324178 0)
(0.00329874 -0.00208909 0)
(0.00273041 -0.000837245 0)
(0.00188547 0.000493386 0)
(0.000742548 0.00189071 0)
(-0.000721199 0.0033504 0)
(-0.00253094 0.00487525 0)
(-0.00471481 0.0064744 0)
(-0.00730431 0.00816245 0)
(-0.0103344 0.00995816 0)
(-0.013843 0.0118829 0)
(-0.0178704 0.013959 0)
(-0.0224577 0.0162071 0)
(-0.027645 0.0186448 0)
(-0.0334688 0.0212837 0)
(-0.0399595 0.0241277 0)
(-0.0471387 0.0271717 0)
(-0.0550161 0.0304002 0)
(-0.0635873 0.0337871 0)
(-0.0728316 0.0372954 0)
(-0.0827108 0.0408781 0)
(-0.0931693 0.0444798 0)
(-0.104134 0.0480381 0)
(-0.115519 0.0514863 0)
(-0.127223 0.0547561 0)
(-0.139141 0.0577811 0)
(-0.151163 0.060499 0)
(-0.163181 0.062855 0)
(-0.175093 0.0648033 0)
(-0.186805 0.0663088 0)
(-0.198236 0.0673471 0)
(-0.209316 0.0679045 0)
(-0.219989 0.0679772 0)
(-0.230211 0.0675694 0)
(-0.239946 0.0666924 0)
(-0.249171 0.0653626 0)
(-0.257868 0.0636001 0)
(-0.266025 0.0614274 0)
(-0.273634 0.0588686 0)
(-0.280691 0.0559479 0)