/*--------------------------------*- C++ -*----------------------------------*\
| =========                 |                                                 |
| \\      /  F ield         | OpenFOAM: The Open Source CFD Toolbox           |
|  \\    /   O peration     | Version:  2406                                  |
|   \\  /    A nd           | Website:  www.openfoam.com                      |
|    \\/     M anipulation  |                                                 |
\*---------------------------------------------------------------------------*/
FoamFile
{
    version     2.0;
    format      ascii;
    arch        "LSB;label=32;scalar=64";
    class       volScalarField;
    location    "13.2";
    object      p;
}
// * * * * * * * * * * * * * * * * * * * * * * * * * * * * * * * * * * * * * //

dimensions      [0 2 -2 0 0 0 0];

internalField   nonuniform List<scalar> 
3600
(
0.017416
0.0174118
0.0174083
0.0174037
0.0174025
0.0174023
0.0174056
0.0174105
0.0174184
0.0174283
0.0174411
0.0174565
0.0174752
0.0174973
0.0175234
0.0175536
0.0175885
0.0176282
0.0176732
0.0177234
0.0177791
0.0178402
0.0179065
0.0179776
0.0180531
0.0181322
0.0182137
0.0182965
0.018379
0.0184593
0.0185355
0.0186054
0.0186668
0.0187177
0.018756
0.0187802
0.0187891
0.0187821
0.0187592
0.0187213
0.0186695
0.0186058
0.0185323
0.0184517
0.0183665
0.0182793
0.0181924
0.0181081
0.0180278
0.0179533
0.0178851
0.0178248
0.0177718
0.0177278
0.0176913
0.0176647
0.0176448
0.0176361
0.0176313
0.0176367
0.0174202
0.0174156
0.0174142
0.0174112
0.017412
0.017413
0.0174173
0.0174228
0.0174313
0.0174415
0.0174547
0.0174704
0.0174894
0.0175117
0.0175379
0.0175682
0.0176029
0.0176423
0.0176867
0.0177362
0.0177909
0.0178507
0.0179154
0.0179847
0.0180581
0.0181348
0.0182138
0.0182939
0.0183735
0.0184509
0.0185242
0.0185914
0.0186502
0.0186986
0.0187349
0.0187574
0.0187651
0.0187574
0.0187344
0.0186968
0.0186459
0.0185835
0.0185119
0.0184335
0.0183508
0.0182663
0.0181822
0.0181008
0.0180232
0.0179514
0.0178857
0.0178277
0.0177766
0.0177343
0.0176987
0.0176729
0.0176526
0.0176432
0.0176365
0.017642
0.0174242
0.0174169
0.0174156
0.017412
0.0174132
0.0174142
0.0174189
0.0174243
0.0174328
0.0174428
0.0174558
0.0174712
0.0174899
0.0175117
0.0175375
0.0175673
0.0176015
0.0176404
0.0176843
0.0177333
0.0177875
0.0178469
0.0179114
0.0179806
0.0180541
0.018131
0.0182105
0.0182912
0.0183718
0.0184503
0.0185248
0.0185933
0.0186534
0.018703
0.0187403
0.0187634
0.0187713
0.0187634
0.0187396
0.0187008
0.0186483
0.018584
0.0185104
0.01843
0.0183454
0.0182593
0.018174
0.0180916
0.0180135
0.0179415
0.0178758
0.0178181
0.0177674
0.0177256
0.0176904
0.017665
0.0176448
0.0176362
0.0176295
0.0176373
0.0174291
0.0174186
0.0174179
0.0174139
0.0174162
0.0174175
0.0174228
0.0174283
0.0174369
0.0174467
0.0174594
0.0174743
0.0174925
0.0175137
0.0175388
0.0175677
0.0176011
0.0176391
0.017682
0.01773
0.0177833
0.0178418
0.0179055
0.017974
0.0180469
0.0181236
0.018203
0.018284
0.0183651
0.0184444
0.01852
0.0185896
0.018651
0.0187019
0.0187401
0.0187638
0.0187719
0.0187636
0.0187389
0.0186986
0.0186441
0.0185777
0.0185017
0.018419
0.0183324
0.0182448
0.0181583
0.0180753
0.0179971
0.0179255
0.0178605
0.0178037
0.0177539
0.0177132
0.0176787
0.0176542
0.0176341
0.017626
0.0176191
0.0176282
0.0174302
0.0174159
0.0174151
0.0174097
0.0174123
0.0174131
0.0174184
0.0174235
0.0174317
0.0174407
0.0174526
0.0174664
0.0174835
0.0175035
0.0175273
0.017555
0.0175871
0.017624
0.0176659
0.017713
0.0177656
0.0178237
0.0178873
0.0179562
0.0180299
0.0181079
0.0181891
0.0182725
0.0183564
0.0184391
0.0185184
0.0185919
0.0186572
0.0187116
0.0187529
0.018779
0.0187883
0.0187801
0.0187543
0.0187116
0.0186538
0.0185831
0.0185023
0.0184147
0.0183233
0.0182312
0.018141
0.018055
0.0179746
0.0179015
0.0178356
0.0177786
0.0177288
0.0176885
0.0176544
0.0176306
0.0176109
0.0176037
0.0175971
0.0176078
0.0174278
0.01741
0.0174093
0.0174028
0.0174058
0.0174061
0.0174115
0.0174159
0.0174235
0.0174315
0.0174423
0.0174548
0.0174705
0.0174889
0.0175112
0.0175373
0.0175678
0.0176031
0.0176436
0.0176895
0.0177411
0.0177985
0.0178617
0.0179305
0.0180048
0.0180838
0.0181668
0.0182525
0.0183394
0.0184256
0.018509
0.018587
0.0186567
0.0187155
0.0187607
0.0187898
0.0188011
0.0187935
0.0187667
0.0187217
0.0186601
0.0185846
0.0184984
0.018405
0.018308
0.0182109
0.0181163
0.0180271
0.0179443
0.0178698
0.0178032
0.0177461
0.0176968
0.0176571
0.0176237
0.0176006
0.0175814
0.017575
0.0175685
0.0175801
0.0174186
0.0173972
0.0173964
0.0173884
0.0173915
0.0173909
0.0173958
0.017399
0.0174056
0.0174121
0.0174214
0.0174321
0.0174459
0.0174623
0.0174826
0.0175067
0.0175354
0.0175689
0.0176078
0.0176524
0.0177029
0.0177596
0.0178226
0.0178918
0.0179669
0.0180475
0.0181327
0.0182215
0.0183124
0.0184034
0.0184921
0.018576
0.018652
0.0187169
0.0187678
0.0188018
0.0188167
0.018811
0.0187843
0.0187372
0.0186716
0.0185904
0.0184972
0.0183963
0.0182917
0.0181875
0.0180868
0.0179926
0.0179061
0.0178292
0.0177612
0.0177035
0.0176541
0.0176149
0.017582
0.0175597
0.0175411
0.0175355
0.0175295
0.017542
0.0174023
0.0173775
0.0173768
0.0173675
0.0173706
0.017369
0.0173733
0.0173752
0.0173805
0.0173852
0.0173927
0.0174013
0.0174129
0.0174271
0.0174451
0.0174668
0.0174934
0.0175248
0.0175617
0.0176044
0.0176534
0.0177087
0.0177706
0.017839
0.0179139
0.0179948
0.018081
0.0181715
0.0182649
0.0183594
0.0184526
0.0185418
0.018624
0.0186958
0.0187537
0.0187946
0.0188156
0.0188146
0.0187906
0.0187438
0.0186761
0.0185903
0.0184906
0.0183819
0.0182691
0.0181569
0.0180493
0.0179494
0.0178589
0.0177793
0.0177099
0.0176519
0.0176027
0.0175642
0.0175321
0.0175108
0.0174928
0.0174881
0.0174824
0.0174957
0.0173763
0.0173484
0.0173476
0.0173369
0.0173397
0.0173368
0.0173401
0.0173404
0.017344
0.0173466
0.0173519
0.0173579
0.0173671
0.0173786
0.0173941
0.0174133
0.0174372
0.0174661
0.0175006
0.0175408
0.0175873
0.0176401
0.0176995
0.0177654
0.0178378
0.0179162
0.0180002
0.0180889
0.0181811
0.0182753
0.0183694
0.0184612
0.0185478
0.018626
0.0186924
0.0187432
0.018775
0.0187846
0.01877
0.0187303
0.0186664
0.0185809
0.018478
0.0183631
0.0182423
0.0181215
0.0180056
0.0178987
0.0178028
0.0177198
0.0176485
0.0175899
0.0175408
0.0175031
0.0174719
0.0174517
0.0174345
0.0174307
0.0174254
0.0174397
0.0173398
0.0173091
0.0173083
0.0172963
0.0172987
0.0172945
0.0172967
0.0172951
0.0172967
0.017297
0.0172998
0.0173032
0.0173096
0.0173183
0.0173309
0.0173471
0.017368
0.0173936
0.0174245
0.0174607
0.0175026
0.0175501
0.0176033
0.0176619
0.0177258
0.0177945
0.0178676
0.0179445
0.0180245
0.0181068
0.0181907
0.0182748
0.0183577
0.0184373
0.0185107
0.0185745
0.0186243
0.0186559
0.018665
0.0186485
0.0186046
0.0185342
0.0184403
0.0183283
0.0182052
0.0180785
0.0179551
0.0178409
0.0177388
0.0176515
0.0175778
0.0175184
0.0174696
0.017433
0.0174028
0.0173839
0.0173675
0.0173647
0.0173598
0.017375
0.0172909
0.0172576
0.0172568
0.0172434
0.0172453
0.0172395
0.0172402
0.0172365
0.017236
0.0172336
0.0172337
0.0172341
0.0172375
0.017243
0.0172523
0.0172649
0.0172819
0.0173029
0.0173284
0.0173578
0.0173913
0.0174281
0.0174678
0.0175096
0.0175528
0.0175965
0.0176403
0.017684
0.0177281
0.0177735
0.0178219
0.0178749
0.0179343
0.0180008
0.018074
0.0181516
0.0182293
0.0183012
0.01836
0.018398
0.0184085
0.0183873
0.0183333
0.0182497
0.0181428
0.0180222
0.0178974
0.0177779
0.0176695
0.0175768
0.0174995
0.0174384
0.0173893
0.0173534
0.0173242
0.0173065
0.017291
0.0172892
0.0172848
0.0173009
0.0172287
0.0171931
0.0171922
0.0171774
0.0171787
0.0171712
0.0171704
0.0171644
0.0171615
0.0171563
0.0171535
0.0171507
0.0171508
0.0171527
0.017158
0.0171661
0.0171775
0.0171915
0.0172078
0.0172252
0.0172427
0.0172584
0.0172705
0.0172767
0.0172749
0.0172636
0.017242
0.017211
0.0171734
0.017134
0.0170992
0.0170768
0.0170742
0.0170981
0.0171527
0.0172389
0.0173537
0.0174898
0.0176362
0.0177791
0.0179034
0.0179953
0.0180446
0.0180465
0.0180031
0.0179232
0.0178194
0.0177065
0.0175965
0.017499
0.0174169
0.0173527
0.0173021
0.0172661
0.0172375
0.0172208
0.0172059
0.017205
0.0172007
0.0172177
0.0171517
0.017114
0.0171129
0.0170968
0.0170972
0.0170879
0.0170853
0.0170767
0.0170712
0.0170629
0.0170569
0.0170506
0.0170469
0.0170444
0.0170447
0.0170463
0.0170494
0.0170521
0.0170529
0.017049
0.0170372
0.0170131
0.0169721
0.0169089
0.0168193
0.0167003
0.0165518
0.0163772
0.0161846
0.0159858
0.0157961
0.0156325
0.0155117
0.0154486
0.0154541
0.0155341
0.0156884
0.01591
0.0161851
0.0164936
0.0168107
0.0171093
0.0173634
0.0175526
0.0176658
0.0177035
0.0176772
0.017607
0.0175144
0.0174196
0.0173338
0.017265
0.0172108
0.017173
0.0171436
0.0171269
0.0171121
0.0171115
0.0171072
0.0171248
0.0170591
0.0170195
0.0170182
0.0170007
0.0170001
0.0169889
0.0169842
0.016973
0.0169646
0.0169529
0.0169434
0.016933
0.0169247
0.0169168
0.01691
0.0169023
0.0168922
0.0168764
0.0168508
0.0168096
0.0167454
0.0166494
0.0165121
0.0163239
0.0160776
0.0157701
0.0154046
0.0149916
0.0145489
0.0141008
0.0136748
0.0132996
0.0130022
0.0128055
0.012727
0.0127777
0.0129611
0.0132727
0.0136991
0.0142179
0.0147977
0.0153993
0.015979
0.0164935
0.0169066
0.0171968
0.0173614
0.0174175
0.0173951
0.0173303
0.0172511
0.0171791
0.0171193
0.0170771
0.0170446
0.0170263
0.0170103
0.0170091
0.0170042
0.017022
0.0169498
0.0169084
0.0169067
0.0168878
0.016886
0.0168727
0.0168657
0.0168514
0.0168397
0.0168242
0.0168105
0.0167952
0.0167811
0.0167657
0.0167487
0.0167266
0.0166958
0.0166496
0.01658
0.0164753
0.0163219
0.0161036
0.0158041
0.0154095
0.0149119
0.0143128
0.0136254
0.0128746
0.0120948
0.0113257
0.0106084
0.00998137
0.00947778
0.00912439
0.0089411
0.00894095
0.00913034
0.00950868
0.0100676
0.0107893
0.011645
0.0125935
0.0135808
0.0145433
0.0154142
0.0161347
0.016666
0.0170004
0.0171609
0.0171962
0.0171583
0.0170953
0.017031
0.0169817
0.0169428
0.0169201
0.0169009
0.0168976
0.0168912
0.0169086
0.016823
0.01678
0.016778
0.0167575
0.0167543
0.0167386
0.0167289
0.0167113
0.0166958
0.0166759
0.0166572
0.0166358
0.016614
0.016588
0.0165561
0.0165119
0.0164483
0.0163533
0.0162119
0.016004
0.0157062
0.0152933
0.0147429
0.0140404
0.0131853
0.0121937
0.0110995
0.00994971
0.00879828
0.00769924
0.00670141
0.00584521
0.00516183
0.00467384
0.00439681
0.00434086
0.00451213
0.00491326
0.005543
0.00639447
0.00745214
0.00868762
0.0100552
0.0114891
0.012904
0.0142039
0.0152973
0.0161196
0.0166517
0.0169276
0.0170163
0.017002
0.0169456
0.0168895
0.0168406
0.0168097
0.0167842
0.0167765
0.0167673
0.0167834
0.016678
0.0166335
0.0166309
0.0166087
0.0166038
0.0165853
0.0165725
0.0165509
0.0165309
0.0165057
0.0164805
0.0164511
0.0164186
0.0163774
0.0163231
0.0162453
0.0161309
0.0159598
0.0157067
0.0153395
0.0148235
0.0141258
0.013224
0.0121141
0.0108166
0.00937586
0.00785462
0.0063233
0.00485024
0.00349405
0.00230009
0.00130015
0.000514438
-4.5466e-05
-0.000373512
-0.000466525
-0.000322098
6.26696e-05
0.000691595
0.00156854
0.00269496
0.00406528
0.00565998
0.00743709
0.00932415
0.0112154
0.012979
0.0144802
0.0156158
0.0163516
0.0167308
0.0168603
0.0168519
0.0167993
0.0167393
0.0166959
0.0166601
0.0166449
0.0166309
0.0166444
0.0165143
0.0164685
0.0164652
0.0164412
0.0164341
0.0164125
0.0163959
0.0163696
0.0163443
0.0163124
0.0162792
0.0162391
0.0161918
0.0161289
0.0160419
0.015914
0.0157233
0.015438
0.0150191
0.014421
0.0135998
0.0125232
0.0111825
0.00960142
0.00783655
0.00596793
0.00408482
0.00227093
0.000594735
-0.000894707
-0.00216672
-0.0032055
-0.00400553
-0.00456758
-0.00489527
-0.00499274
-0.00486268
-0.00450501
-0.00391582
-0.00308682
-0.00200591
-0.000659524
0.00096198
0.00285517
0.00498979
0.00729427
0.00964423
0.0118683
0.0137759
0.0152149
0.0161269
0.0165792
0.0167155
0.0167018
0.0166373
0.0165786
0.0165278
0.016501
0.0164797
0.0164888
0.0163314
0.0162844
0.0162802
0.0162541
0.0162443
0.0162189
0.0161978
0.0161658
0.0161337
0.0160935
0.0160496
0.0159951
0.0159272
0.0158334
0.0156992
0.0154986
0.0151975
0.0147491
0.014099
0.0131906
0.01198
0.0104508
0.00862748
0.00657702
0.00439758
0.00219821
7.92646e-05
-0.00188085
-0.00362963
-0.0051381
-0.00639478
-0.00739952
-0.0081583
-0.00867975
-0.00897304
-0.00904659
-0.00890714
-0.00855877
-0.00800161
-0.00723043
-0.00623314
-0.00499012
-0.00347573
-0.00166294
0.000464744
0.00289604
0.00556565
0.00833521
0.0109876
0.0132678
0.0149609
0.0159926
0.0164575
0.0165695
0.0165267
0.0164551
0.0163854
0.0163416
0.01631
0.0163122
0.0161293
0.0160815
0.0160761
0.0160476
0.0160346
0.0160046
0.015978
0.0159392
0.0158988
0.0158481
0.0157905
0.0157169
0.015621
0.0154846
0.0152844
0.0149824
0.0145288
0.0138599
0.0129084
0.0116157
0.00995389
0.00794259
0.00565514
0.00320547
0.000722977
-0.00167441
-0.00389713
-0.00588898
-0.00762233
-0.00908961
-0.0102945
-0.0112458
-0.0119535
-0.0124276
-0.0126776
-0.0127125
-0.0125411
-0.0121715
-0.0116097
-0.0108579
-0.00991198
-0.00875858
-0.00737304
-0.00571841
-0.00375111
-0.00143092
0.00125143
0.00424374
0.00738974
0.0104239
0.013011
0.0148747
0.015931
0.0163423
0.0163877
0.0163184
0.0162288
0.0161624
0.0161168
0.0161086
0.0159079
0.0158594
0.0158524
0.0158211
0.0158042
0.0157688
0.0157354
0.0156882
0.0156374
0.0155734
0.015498
0.0153991
0.0152656
0.0150715
0.0147823
0.0143444
0.0136906
0.012742
0.011426
0.00969726
0.00756353
0.00509615
0.00242036
-0.000315418
-0.00297363
-0.0054514
-0.00768691
-0.00965321
-0.0113459
-0.0127716
-0.0139402
-0.0148606
-0.0155397
-0.0159833
-0.0161974
-0.0161896
-0.0159692
-0.0155478
-0.0149374
-0.0141492
-0.0131904
-0.0120599
-0.0107455
-0.00921771
-0.0074305
-0.00532045
-0.0028262
8.91496e-05
0.00337878
0.00686919
0.0102252
0.0130259
0.0149339
0.0159026
0.0161804
0.0161528
0.0160515
0.0159567
0.0158931
0.01587
0.015668
0.015619
0.0156103
0.0155758
0.0155541
0.0155123
0.0154709
0.0154136
0.0153502
0.0152697
0.0151719
0.0150407
0.0148584
0.0145893
0.0141845
0.013573
0.0126707
0.0113895
0.00966462
0.00748235
0.0049019
0.00205043
-0.000907386
-0.0038128
-0.00654522
-0.00903386
-0.0112502
-0.0131927
-0.0148707
-0.016295
-0.0174719
-0.0184034
-0.0190885
-0.0195262
-0.0197176
-0.0196677
-0.0193862
-0.0188875
-0.0181893
-0.0173114
-0.0162725
-0.0150857
-0.0137555
-0.0122689
-0.0105939
-0.00866941
-0.00641667
-0.00374243
-0.000593918
0.00299316
0.00679772
0.0104026
0.0132832
0.0150753
0.0158292
0.0159308
0.0158403
0.0157166
0.0156297
0.0155865
0.0154097
0.0153605
0.0153496
0.0153114
0.0152839
0.0152347
0.0151835
0.0151141
0.0150353
0.0149347
0.0148088
0.0146369
0.014393
0.0140293
0.0134805
0.0126581
0.0114649
0.00981383
0.00766399
0.00504865
0.00208456
-0.00105535
-0.00419018
-0.0071765
-0.00992815
-0.0124116
-0.0146266
-0.0165863
-0.0183029
-0.0197811
-0.0210173
-0.0220024
-0.0227259
-0.0231793
-0.0233593
-0.0232689
-0.0229184
-0.0223244
-0.0215098
-0.0205012
-0.0193274
-0.0180147
-0.0165846
-0.0150432
-0.0133803
-0.011552
-0.00948861
-0.00707851
-0.00421119
-0.000801843
0.00308766
0.00717716
0.0109195
0.0136944
0.015192
0.0156177
0.0155701
0.0154321
0.0153153
0.0152458
0.0151349
0.0150859
0.0150724
0.0150302
0.0149961
0.0149382
0.0148758
0.0147923
0.0146953
0.0145706
0.0144111
0.0141898
0.013871
0.0133928
0.012673
0.0116073
0.0100925
0.00805559
0.00549389
0.00249605
-0.000769594
-0.00410458
-0.00733695
-0.0103571
-0.0131193
-0.0156221
-0.0178827
-0.0199172
-0.0217303
-0.0233144
-0.0246523
-0.0257229
-0.0265066
-0.0269891
-0.027164
-0.0270334
-0.0266086
-0.025909
-0.0249612
-0.0237971
-0.0224532
-0.0209658
-0.0193713
-0.0176936
-0.0159461
-0.0141082
-0.0121344
-0.00992157
-0.00734433
-0.00424421
-0.000545375
0.00366395
0.007971
0.0116788
0.0141128
0.0151366
0.0152168
0.0150826
0.0149394
0.0148329
0.0148441
0.0147958
0.0147793
0.0147324
0.0146905
0.0146227
0.0145473
0.0144475
0.0143293
0.0141764
0.0139771
0.0136975
0.0132905
0.0126793
0.0117652
0.0104327
0.00858216
0.00616657
0.00323122
-8.1184e-05
-0.00356599
-0.00702241
-0.010307
-0.0133518
-0.0161479
-0.0187154
-0.0210767
-0.0232407
-0.0251983
-0.0269262
-0.028393
-0.029567
-0.0304212
-0.0309374
-0.0311077
-0.0309348
-0.030432
-0.0296212
-0.0285329
-0.0272026
-0.0256723
-0.0239848
-0.0221875
-0.020318
-0.0184117
-0.0164713
-0.0144821
-0.0123636
-0.0100059
-0.0072233
-0.0038556
0.000186106
0.00469827
0.00908886
0.0125065
0.0143352
0.0147751
0.014629
0.0144947
0.0143288
0.0145406
0.0144934
0.0144736
0.0144219
0.0143714
0.0142927
0.0142027
0.0140847
0.0139426
0.0137577
0.0135133
0.0131672
0.0126606
0.0119015
0.0107769
0.0091663
0.00698284
0.00421534
0.000959652
-0.00259681
-0.00623244
-0.0097639
-0.0130868
-0.0161736
-0.0190426
-0.0217241
-0.0242352
-0.026571
-0.0287054
-0.0305989
-0.0322078
-0.0334917
-0.0344183
-0.0349669
-0.0351293
-0.0349098
-0.0343247
-0.0333994
-0.0321683
-0.0306701
-0.028951
-0.0270567
-0.025042
-0.0229527
-0.0208422
-0.018733
-0.0166417
-0.014516
-0.0122776
-0.00974679
-0.00673252
-0.00302166
0.0013852
0.00612486
0.0103687
0.0131056
0.0141844
0.0140558
0.0139563
0.0137194
0.0142252
0.0141795
0.0141561
0.014099
0.014039
0.0139482
0.0138422
0.013704
0.0135356
0.0133153
0.0130208
0.0126018
0.0119867
0.0110698
0.00972733
0.00784022
0.00534264
0.00226396
-0.00125324
-0.00499084
-0.00872855
-0.0123133
-0.0156816
-0.0188395
-0.0218217
-0.0246582
-0.0273543
-0.0298878
-0.0322154
-0.0342834
-0.0360379
-0.0374317
-0.0384285
-0.0390056
-0.039155
-0.0388833
-0.0382105
-0.0371666
-0.0357912
-0.0341266
-0.0322231
-0.0301271
-0.0278978
-0.0255838
-0.0232509
-0.0209355
-0.018683
-0.0164687
-0.0142534
-0.0118808
-0.00916806
-0.00583846
-0.00173821
0.00303056
0.00780025
0.0114422
0.0132933
0.0133895
0.0132708
0.0129988
0.0139026
0.0138592
0.013832
0.0137696
0.0136996
0.0135961
0.013473
0.0133134
0.0131168
0.0128587
0.0125111
0.0120148
0.0112866
0.0102086
0.00865067
0.00650099
0.00371999
0.000377664
-0.00334508
-0.0072143
-0.0110247
-0.014659
-0.0180906
-0.0213497
-0.0244778
-0.0274976
-0.0303989
-0.0331418
-0.0356677
-0.0379116
-0.0398112
-0.0413134
-0.0423779
-0.04298
-0.0431117
-0.0427817
-0.0420149
-0.0408467
-0.0393242
-0.0374939
-0.0354116
-0.0331237
-0.0306921
-0.0281634
-0.0256111
-0.0230785
-0.0206342
-0.018277
-0.0160081
-0.0137025
-0.0112086
-0.00823348
-0.00452964
1.90709e-05
0.00499525
0.00938126
0.0120127
0.0126212
0.0124086
0.0121569
0.0135739
0.0135331
0.0135019
0.0134339
0.0133533
0.0132366
0.0130956
0.0129136
0.0126876
0.0123904
0.011988
0.0114131
0.0105719
0.00933674
0.00757503
0.00518687
0.00216081
-0.00139647
-0.00527621
-0.00924133
-0.0131097
-0.0167989
-0.0203126
-0.0236959
-0.0269901
-0.0302066
-0.0333189
-0.0362714
-0.0389932
-0.0414098
-0.0434522
-0.0450612
-0.0461922
-0.046817
-0.0469274
-0.046534
-0.0456671
-0.0443685
-0.0426946
-0.0406977
-0.0384413
-0.0359715
-0.0333532
-0.0306277
-0.0278723
-0.0251303
-0.0224878
-0.0199604
-0.0175871
-0.0152745
-0.0129153
-0.0102284
-0.0069298
-0.00275282
0.00216105
0.00700473
0.0103778
0.0116528
0.0113931
0.011167
0.0132452
0.0132079
0.0131729
0.0130999
0.0130088
0.0128789
0.0127199
0.0125156
0.0122601
0.0119239
0.0114674
0.0108161
0.00986693
0.00848539
0.00653991
0.00394478
0.000715589
-0.00301078
-0.00700808
-0.0110452
-0.0149657
-0.018718
-0.0223279
-0.0258485
-0.0293162
-0.0327299
-0.0360483
-0.0392031
-0.0421135
-0.0446977
-0.0468799
-0.0485946
-0.0497915
-0.0504384
-0.0505261
-0.0500662
-0.0490954
-0.0476619
-0.0458332
-0.0436688
-0.041242
-0.0385997
-0.0358106
-0.0329089
-0.0299735
-0.0270419
-0.0242124
-0.0215097
-0.019006
-0.0166358
-0.0143408
-0.0118654
-0.00893402
-0.00518938
-0.000538241
0.0044551
0.00846784
0.0103913
0.0102738
0.0100104
0.0129171
0.0128835
0.0128447
0.0127668
0.0126652
0.0125224
0.0123456
0.0121194
0.0118353
0.0114618
0.0109543
0.0102322
0.00918518
0.00767454
0.00557187
0.00280609
-0.000583752
-0.0044381
-0.0085219
-0.012615
-0.0165855
-0.0204064
-0.0241183
-0.0277773
-0.031413
-0.0350125
-0.0385227
-0.0418654
-0.0449522
-0.0476948
-0.0500108
-0.0518278
-0.0530892
-0.0537577
-0.0538228
-0.0532965
-0.0522219
-0.0506533
-0.0486706
-0.0463405
-0.0437489
-0.0409438
-0.0379999
-0.034943
-0.0318531
-0.0287577
-0.0257632
-0.0228963
-0.020257
-0.0178011
-0.0155197
-0.0131861
-0.0105637
-0.00724777
-0.00298965
0.00190077
0.00636476
0.00883748
0.00907353
0.00869192
0.0125974
0.0125686
0.0125267
0.0124449
0.0123337
0.0121792
0.0119859
0.0117393
0.0114287
0.011021
0.0104677
0.00968357
0.00855305
0.00693553
0.00470695
0.00180934
-0.00169987
-0.00564604
-0.00979179
-0.0139297
-0.0179481
-0.0218381
-0.0256492
-0.0294371
-0.033225
-0.0369901
-0.0406705
-0.0441807
-0.0474266
-0.0503138
-0.0527536
-0.054666
-0.0559883
-0.0566776
-0.0567221
-0.0561333
-0.0549608
-0.0532636
-0.0511345
-0.0486469
-0.0459007
-0.0429454
-0.0398637
-0.036673
-0.0334547
-0.0302233
-0.0270914
-0.0240812
-0.0213162
-0.0187655
-0.0164669
-0.014221
-0.0118467
-0.00892118
-0.0051222
-0.00051433
0.004152
0.00705125
0.0077503
0.00721626
0.0122851
0.012261
0.0122162
0.012131
0.012011
0.0118457
0.0116374
0.0113727
0.0110388
0.0106019
0.0100103
0.00917607
0.00798044
0.0062825
0.00396261
0.000973061
-0.00261619
-0.00662224
-0.0108096
-0.0149826
-0.0190446
-0.0229979
-0.0268966
-0.0307945
-0.0347092
-0.0386114
-0.0424328
-0.0460832
-0.0494637
-0.0524746
-0.0550211
-0.0570162
-0.0583918
-0.0590991
-0.0591257
-0.0584817
-0.0572229
-0.0554111
-0.0531518
-0.0505231
-0.0476395
-0.0445519
-0.0413525
-0.0380503
-0.0347298
-0.0313905
-0.0281503
-0.0250227
-0.0221511
-0.0195106
-0.0171815
-0.014986
-0.0128063
-0.0102195
-0.00689513
-0.00268579
0.00192846
0.00510927
0.00624864
0.0055919
0.0119899
0.0119717
0.0119251
0.0118383
0.0117113
0.0115377
0.0113168
0.0110371
0.0106841
0.0102238
0.00960269
0.00873209
0.00749182
0.00574208
0.0033669
0.00032516
-0.00330674
-0.00734367
-0.0115546
-0.015753
-0.0198513
-0.0238571
-0.0278253
-0.0318074
-0.0358172
-0.0398216
-0.0437491
-0.0475061
-0.0509904
-0.0540975
-0.0567278
-0.0587879
-0.0602058
-0.0609271
-0.0609399
-0.0602514
-0.0589236
-0.0570187
-0.0546537
-0.0519091
-0.0489137
-0.0457181
-0.0424253
-0.039036
-0.0356392
-0.0322191
-0.0288997
-0.0256817
-0.0227277
-0.0200109
-0.0176514
-0.0154841
-0.0134574
-0.0111562
-0.00828863
-0.00454204
-0.000194232
0.00310077
0.0045711
0.00385544
0.0117077
0.011695
0.0116468
0.0115592
0.0114265
0.0112464
0.0110158
0.0107249
0.0103579
0.00988159
0.00924193
0.00835083
0.00708874
0.00531778
0.00292438
-0.000129964
-0.00376842
-0.00780867
-0.0120256
-0.0162384
-0.0203627
-0.0244058
-0.0284204
-0.0324556
-0.0365237
-0.0405903
-0.0445833
-0.0484072
-0.0519581
-0.0551272
-0.0578121
-0.059914
-0.0613593
-0.0620883
-0.0620911
-0.0613704
-0.0599948
-0.0580236
-0.0555844
-0.0527567
-0.0496822
-0.046409
-0.0430515
-0.0396014
-0.0361546
-0.0326794
-0.0293077
-0.0260256
-0.0230144
-0.0202397
-0.0178585
-0.0157091
-0.0138063
-0.0117418
-0.00929503
-0.00603261
-0.00210595
0.00113041
0.00279143
0.00207543
0.0114508
0.0114448
0.0113968
0.0113107
0.0111752
0.0109919
0.0107552
0.0104575
0.010082
0.0095971
0.00894948
0.00805348
0.00679191
0.00502961
0.00265415
-0.000374406
-0.00398427
-0.00800067
-0.0122053
-0.01642
-0.0205582
-0.0246215
-0.0286579
-0.0327137
-0.0368013
-0.0408877
-0.0449026
-0.0487505
-0.052327
-0.0555205
-0.0582279
-0.060346
-0.0618025
-0.0625325
-0.0625296
-0.0617912
-0.0603916
-0.058385
-0.0559078
-0.0530348
-0.0499192
-0.0466035
-0.0432133
-0.03973
-0.0362588
-0.032752
-0.0293528
-0.0260301
-0.0229862
-0.0201729
-0.0177841
-0.0156504
-0.013853
-0.0119829
-0.00991348
-0.00712257
-0.00371224
-0.000687917
0.00102175
0.000338525
0.01121
0.0112096
0.011162
0.011078
0.0109413
0.0107574
0.0105184
0.0102188
0.00984142
0.00935683
0.00871337
0.00782934
0.0065914
0.0048679
0.00254628
-0.00041829
-0.00396422
-0.00792841
-0.0121007
-0.016303
-0.0204413
-0.0245072
-0.0285408
-0.032585
-0.0366535
-0.0407168
-0.0447089
-0.0485359
-0.0520953
-0.0552735
-0.0579694
-0.0600766
-0.0615266
-0.0622499
-0.0622449
-0.0615025
-0.0601028
-0.0580921
-0.0556142
-0.0527357
-0.0496189
-0.0462973
-0.0429072
-0.0394181
-0.0359468
-0.0324293
-0.0290238
-0.0256808
-0.0226263
-0.0197932
-0.0174128
-0.0152972
-0.0135949
-0.0118835
-0.010147
-0.00779023
-0.00494091
-0.00224425
-0.000620522
-0.00126324
0.0110018
0.0110082
0.0109631
0.0108843
0.0107502
0.0105698
0.0103329
0.0100364
0.00966301
0.00918618
0.00855702
0.00769922
0.00650489
0.00484683
0.00261182
-0.000252739
-0.0036997
-0.00758207
-0.0116996
-0.0158732
-0.0199978
-0.0240506
-0.0280604
-0.032065
-0.03608
-0.0400806
-0.044008
-0.0477713
-0.0512727
-0.0543977
-0.0570502
-0.0591212
-0.0605486
-0.0612583
-0.0612555
-0.0605229
-0.0591468
-0.0571629
-0.054721
-0.0518756
-0.0487965
-0.0455041
-0.0421455
-0.0386753
-0.0352253
-0.0317142
-0.0283202
-0.0249735
-0.0219278
-0.0190914
-0.0167359
-0.0146433
-0.0130316
-0.0114487
-0.0100029
-0.00802663
-0.0057425
-0.00344214
-0.00202526
-0.00263551
0.0108089
0.0108202
0.0107774
0.0107039
0.0105741
0.0104001
0.0101697
0.009882
0.00951986
0.00905992
0.0084567
0.00764023
0.00650936
0.00494243
0.0028255
9.65496e-05
-0.00321545
-0.00698347
-0.0110205
-0.0151462
-0.0192426
-0.0232684
-0.0272378
-0.0311805
-0.0351139
-0.0390179
-0.0428433
-0.0465041
-0.0499103
-0.0529478
-0.0555278
-0.0575394
-0.0589296
-0.0596194
-0.0596219
-0.058911
-0.0575789
-0.0556486
-0.0532748
-0.0504962
-0.047489
-0.0442559
-0.0409552
-0.0375239
-0.0341122
-0.0306203
-0.0272518
-0.0239142
-0.0208941
-0.0180686
-0.0157538
-0.0136895
-0.0121679
-0.0106875
-0.00949433
-0.00783505
-0.00608886
-0.00420377
-0.00309
-0.00367992
0.010655
0.0106728
0.0106349
0.0105704
0.0104492
0.0102861
0.0100669
0.00979299
0.00944749
0.00901061
0.00844103
0.00767608
0.0066227
0.00516619
0.00319288
0.000630678
-0.0025118
-0.00613163
-0.0100588
-0.0141145
-0.0181675
-0.0221552
-0.0260737
-0.0299413
-0.0337748
-0.0375583
-0.0412537
-0.0447813
-0.0480624
-0.0509841
-0.0534684
-0.0554025
-0.0567446
-0.0574101
-0.057422
-0.0567436
-0.0554738
-0.05362
-0.0513415
-0.0486572
-0.0457491
-0.0425982
-0.039375
-0.0359964
-0.0326346
-0.0291701
-0.0258375
-0.0225191
-0.0195392
-0.0167368
-0.014478
-0.0124467
-0.0110175
-0.0096165
-0.0086429
-0.00723154
-0.00597279
-0.00447276
-0.00371977
-0.00429465
0.0105104
0.0105313
0.0104973
0.0104411
0.0103301
0.0101808
0.00997774
0.0097237
0.00940238
0.00899734
0.00847144
0.00776968
0.00680785
0.00547969
0.00367317
0.00130721
-0.0016312
-0.00506597
-0.0088492
-0.0128076
-0.0167991
-0.0207383
-0.0246003
-0.0283872
-0.0321131
-0.035763
-0.0393114
-0.0426847
-0.0458192
-0.0486042
-0.0509755
-0.0528186
-0.0541044
-0.0547427
-0.054767
-0.0541289
-0.0529345
-0.0511729
-0.0490084
-0.0464359
-0.043644
-0.040588
-0.0374531
-0.0341331
-0.030827
-0.0273939
-0.0241051
-0.0208136
-0.0178875
-0.0151188
-0.0129311
-0.0109367
-0.00960467
-0.00826172
-0.00748068
-0.0062455
-0.00540921
-0.00421826
-0.00383352
-0.00438218
0.0104118
0.0104383
0.0104115
0.0103678
0.0102717
0.010141
0.00995846
0.00972844
0.00943523
0.00906576
0.00858749
0.00795332
0.00708882
0.00589753
0.00427156
0.00212281
-0.000582253
-0.00379665
-0.00739912
-0.0112283
-0.0151357
-0.0190149
-0.0228181
-0.0265269
-0.0301487
-0.0336658
-0.0370641
-0.0402756
-0.0432541
-0.0458917
-0.0481412
-0.0498859
-0.0511122
-0.0517226
-0.051763
-0.0511711
-0.0500614
-0.0484015
-0.0463617
-0.0439092
-0.041241
-0.0382831
-0.0352391
-0.0319769
-0.0287282
-0.0253275
-0.0220893
-0.018832
-0.0159739
-0.0132489
-0.0111477
-0.00919319
-0.00796539
-0.00665996
-0.00605169
-0.00492029
-0.00443698
-0.00343997
-0.00337808
-0.00386542
0.0103094
0.0103365
0.0103146
0.0102812
0.0102012
0.010092
0.00993547
0.00973628
0.00947908
0.00915364
0.00873136
0.00817283
0.00741316
0.00636702
0.00493263
0.0030187
0.000573186
-0.00238525
-0.00576677
-0.00942776
-0.0132216
-0.0170235
-0.0207643
-0.0244005
-0.0279298
-0.0313255
-0.0345837
-0.0376389
-0.0404642
-0.042954
-0.0450811
-0.046726
-0.0478931
-0.0484758
-0.0485346
-0.0479903
-0.0469681
-0.0454101
-0.0434954
-0.0411593
-0.0386109
-0.0357439
-0.032785
-0.0295741
-0.0263811
-0.0230128
-0.0198331
-0.0166179
-0.0138434
-0.0111718
-0.00917349
-0.00726023
-0.0061463
-0.00485798
-0.00441097
-0.00331204
-0.00311886
-0.002172
-0.00234576
-0.00270816
0.0102634
0.0102952
0.0102825
0.0102647
0.0102057
0.0101224
0.00999545
0.00982951
0.00960992
0.00932888
0.00896203
0.00847718
0.0078192
0.00691454
0.00567009
0.00399518
0.00182383
-0.000851594
-0.00397447
-0.00742575
-0.0110693
-0.0147692
-0.0184384
-0.0220068
-0.025459
-0.0287537
-0.0318939
-0.0348118
-0.0375005
-0.0398544
-0.041869
-0.0434205
-0.0445341
-0.0450918
-0.0451713
-0.0446733
-0.0437366
-0.0422742
-0.0404773
-0.038246
-0.0358065
-0.0330171
-0.0301344
-0.0269669
-0.0238296
-0.0204958
-0.0173859
-0.0142232
-0.0115503
-0.00894154
-0.00706353
-0.00519098
-0.00420289
-0.00291044
-0.00262232
-0.00148685
-0.0015379
-0.000482765
-0.000788177
-0.000932638
0.0101907
0.010219
0.0102117
0.0102059
0.0101688
0.0101151
0.0100241
0.00989976
0.00972674
0.00949913
0.00919528
0.00878973
0.0082357
0.007472
0.00641515
0.00498008
0.00309122
0.000720759
-0.00210878
-0.00530552
-0.00875487
-0.0123165
-0.0158944
-0.0193907
-0.0227778
-0.025992
-0.0290416
-0.031849
-0.0344274
-0.0366664
-0.0385869
-0.040057
-0.0411267
-0.0416628
-0.041764
-0.0413069
-0.0404481
-0.0390673
-0.0373735
-0.0352279
-0.0328808
-0.0301521
-0.0273355
-0.0242042
-0.0211259
-0.0178324
-0.0148081
-0.01171
-0.00915906
-0.00662099
-0.00488075
-0.00304488
-0.00219627
-0.000876109
-0.000753483
0.000485199
0.00021141
0.00153403
0.00118514
0.00137655
0.0101933
0.0102256
0.0102295
0.0102423
0.0102322
0.0102112
0.0101581
0.0100747
0.00994625
0.009768
0.00952149
0.00918704
0.00872583
0.00808852
0.00720229
0.00599119
0.00437577
0.0023146
-0.000200328
-0.0031056
-0.0063157
-0.0096956
-0.0131502
-0.0165582
-0.019882
-0.023031
-0.0260162
-0.0287431
-0.0312434
-0.0333958
-0.0352479
-0.0366552
-0.0376956
-0.0382161
-0.0383415
-0.0379191
-0.0371296
-0.0358147
-0.0342086
-0.0321297
-0.0298609
-0.0271798
-0.0244261
-0.0213312
-0.0183238
-0.0150829
-0.0121666
-0.00914706
-0.0067401
-0.00427742
-0.00269159
-0.000882929
-0.000188305
0.00118744
0.00112962
0.00253717
0.00203514
0.00377524
0.00342681
0.00409149
0.0101303
0.0101534
0.010163
0.0101893
0.010208
0.0102255
0.0102194
0.0101887
0.0101164
0.00999889
0.00981809
0.00956029
0.00919179
0.00867558
0.00794776
0.00694592
0.00558955