/*--------------------------------*- C++ -*----------------------------------*\
| =========                 |                                                 |
| \\      /  F ield         | OpenFOAM: The Open Source CFD Toolbox           |
|  \\    /   O peration     | Version:  2406                                  |
|   \\  /    A nd           | Website:  www.openfoam.com                      |
|    \\/     M anipulation  |                                                 |
\*---------------------------------------------------------------------------*/
FoamFile
{
    version     2.0;
    format      ascii;
    arch        "LSB;label=32;scalar=64";
    class       volVectorField;
    location    "53.5";
    object      U;
}
// * * * * * * * * * * * * * * * * * * * * * * * * * * * * * * * * * * * * * //

dimensions      [0 1 -1 0 0 0 0];

internalField   nonuniform List<vector> 
4096
(
(-1.42825e-05 7.3673e-06 0)
(0.000368959 -9.73926e-05 0)
(0.0011778 -0.000173833 0)
(0.00214983 -0.000194188 0)
(0.00308504 -0.000168937 0)
(0.00384134 -0.000123511 0)
(0.00436245 -8.01577e-05 0)
(0.00466679 -5.29209e-05 0)
(0.00481407 -4.66348e-05 0)
(0.00487129 -5.8541e-05 0)
(0.00488411 -8.17381e-05 0)
(0.00486429 -0.000106293 0)
(0.00478863 -0.000126319 0)
(0.00460684 -0.000139394 0)
(0.00425424 -0.000144548 0)
(0.00366018 -0.000142386 0)
(0.00275144 -0.00013121 0)
(0.00145188 -0.000108823 0)
(-0.000315797 -7.2611e-05 0)
(-0.0026278 -2.0733e-05 0)
(-0.00555182 4.88177e-05 0)
(-0.00913776 0.000139121 0)
(-0.013408 0.000257761 0)
(-0.0183455 0.000416286 0)
(-0.0238853 0.000623739 0)
(-0.0299098 0.000877586 0)
(-0.0362487 0.00115848 0)
(-0.0426827 0.00143243 0)
(-0.0489505 0.00165885 0)
(-0.0547632 0.00180038 0)
(-0.0598229 0.00183008 0)
(-0.0638447 0.00173177 0)
(-0.0665757 0.00149523 0)
(-0.0677997 0.00112753 0)
(-0.0673258 0.000691196 0)
(-0.0649793 0.000182542 0)
(-0.0607444 -0.00038209 0)
(-0.0546719 -0.000963464 0)
(-0.046897 -0.0015158 0)
(-0.0376566 -0.00199009 0)
(-0.0272956 -0.00233669 0)
(-0.0162557 -0.00250846 0)
(-0.00501678 -0.00248022 0)
(0.00578173 -0.00227344 0)
(0.0155353 -0.00180085 0)
(0.0237439 -0.0011549 0)
(0.029937 -0.000409304 0)
(0.0338379 0.000318186 0)
(0.0354108 0.000929519 0)
(0.0348271 0.00133881 0)
(0.032472 0.0015391 0)
(0.0288652 0.00153145 0)
(0.0245698 0.00136318 0)
(0.0201093 0.00111175 0)
(0.0158838 0.000847342 0)
(0.0121388 0.000613333 0)
(0.00898023 0.000427349 0)
(0.00641076 0.000290697 0)
(0.00437051 0.000196253 0)
(0.00277343 0.00013343 0)
(0.00154103 8.81494e-05 0)
(0.000634645 3.96178e-05 0)
(6.85602e-05 -3.17216e-05 0)
(-8.09516e-05 -9.61197e-05 0)
(7.21261e-05 -0.000357537 0)
(0.00112537 -0.0011651 0)
(0.00293302 -0.00168622 0)
(0.00501181 -0.00180357 0)
(0.00696399 -0.00158998 0)
(0.00851424 -0.00119327 0)
(0.00953901 -0.000761268 0)
(0.010045 -0.000398738 0)
(0.0101136 -0.000150211 0)
(0.00983905 -3.04848e-06 0)
(0.00927616 9.44345e-05 0)
(0.00840899 0.000209687 0)
(0.00714621 0.000401622 0)
(0.00534179 0.00070679 0)
(0.00281551 0.00114729 0)
(-0.000626178 0.00173055 0)
(-0.00517733 0.00246189 0)
(-0.011023 0.003345 0)
(-0.0183186 0.00437852 0)
(-0.0271655 0.00555199 0)
(-0.037577 0.00684157 0)
(-0.0494443 0.00819881 0)
(-0.0625185 0.00954224 0)
(-0.0764151 0.0107601 0)
(-0.0906453 0.011728 0)
(-0.104665 0.0123314 0)
(-0.117932 0.0124812 0)
(-0.129947 0.0121204 0)
(-0.140284 0.0112253 0)
(-0.148596 0.00980308 0)
(-0.154621 0.00788839 0)
(-0.15817 0.00553949 0)
(-0.159114 0.00283623 0)
(-0.157347 -0.000119103 0)
(-0.152819 -0.00321738 0)
(-0.145547 -0.00639904 0)
(-0.135625 -0.00954593 0)
(-0.123196 -0.0125284 0)
(-0.108481 -0.015197 0)
(-0.0917966 -0.0173929 0)
(-0.0735543 -0.0189545 0)
(-0.0542629 -0.0197314 0)
(-0.0345029 -0.0196098 0)
(-0.0149543 -0.0185635 0)
(0.0036092 -0.0165114 0)
(0.0204245 -0.0135825 0)
(0.0347874 -0.00992469 0)
(0.0460963 -0.0059086 0)
(0.05399 -0.00188323 0)
(0.058326 0.00175498 0)
(0.0592152 0.00467202 0)
(0.0569897 0.00669877 0)
(0.0522754 0.00776339 0)
(0.0458852 0.00795168 0)
(0.0386617 0.00747795 0)
(0.0313445 0.00660327 0)
(0.0244833 0.00556392 0)
(0.018404 0.00453232 0)
(0.0132335 0.00360966 0)
(0.00896118 0.00282936 0)
(0.00551502 0.00216007 0)
(0.00284037 0.00151306 0)
(0.000967363 0.000791676 0)
(2.96517e-05 8.54857e-05 0)
(0.00014478 -0.00111401 0)
(0.0016928 -0.00295798 0)
(0.00410881 -0.0040151 0)
(0.0067535 -0.00417563 0)
(0.00911933 -0.00361642 0)
(0.0108759 -0.00264544 0)
(0.0118735 -0.00156727 0)
(0.012102 -0.000596524 0)
(0.0116228 0.00017723 0)
(0.0104958 0.000787087 0)
(0.00871758 0.00135272 0)
(0.00619005 0.00202446 0)
(0.00271945 0.00294125 0)
(-0.00194974 0.00419442 0)
(-0.00810694 0.00583165 0)
(-0.0160425 0.0078693 0)
(-0.0260043 0.0103003 0)
(-0.0381565 0.0130929 0)
(-0.0525158 0.0161686 0)
(-0.0688921 0.0193758 0)
(-0.0868599 0.0224805 0)
(-0.105794 0.0251966 0)
(-0.124962 0.0272489 0)
(-0.14364 0.0284334 0)
(-0.161196 0.0286431 0)
(-0.17713 0.0278593 0)
(-0.191073 0.0261251 0)
(-0.202768 0.0235178 0)
(-0.212044 0.0201287 0)
(-0.218792 0.0160532 0)
(-0.222945 0.0113919 0)
(-0.224465 0.00626022 0)
(-0.223338 0.000790968 0)
(-0.219587 -0.00489407 0)
(-0.213198 -0.0107314 0)
(-0.204244 -0.0165769 0)
(-0.192758 -0.022275 0)
(-0.178838 -0.0276391 0)
(-0.16262 -0.032456 0)
(-0.144315 -0.036486 0)
(-0.124213 -0.0394751 0)
(-0.102698 -0.041173 0)
(-0.0802446 -0.0413677 0)
(-0.0574367 -0.0399293 0)
(-0.0349478 -0.0368143 0)
(-0.0134802 -0.0320809 0)
(0.00612443 -0.0259732 0)
(0.0231534 -0.018882 0)
(0.0370795 -0.0113312 0)
(0.0474494 -0.00394643 0)
(0.0541159 0.0026725 0)
(0.057139 0.00803486 0)
(0.0567339 0.0118845 0)
(0.0534429 0.0141172 0)
(0.0480019 0.0148446 0)
(0.041224 0.0143595 0)
(0.0338941 0.0130538 0)
(0.0266632 0.0113233 0)
(0.0199816 0.00948981 0)
(0.0140932 0.00774845 0)
(0.00909012 0.00614071 0)
(0.00500776 0.00455809 0)
(0.00195431 0.00281302 0)
(0.000165086 0.000876925 0)
(0.000195493 -0.00211602 0)
(0.00206866 -0.00519606 0)
(0.00481117 -0.00677282 0)
(0.00763046 -0.00683081 0)
(0.00993976 -0.00571825 0)
(0.0113936 -0.00394224 0)
(0.0118467 -0.00197589 0)
(0.0112781 -0.000134839 0)
(0.00970766 0.0014673 0)
(0.00711748 0.00291422 0)
(0.0033911 0.00442008 0)
(-0.00169878 0.00624147 0)
(-0.00847248 0.00859804 0)
(-0.0172915 0.0116288 0)
(-0.0284944 0.0153801 0)
(-0.0423296 0.0198214 0)
(-0.0588639 0.0248281 0)
(-0.0778919 0.0301521 0)
(-0.0988896 0.035408 0)
(-0.121069 0.0401277 0)
(-0.143531 0.0438735 0)
(-0.165435 0.0463368 0)
(-0.186105 0.0473697 0)
(-0.205057 0.0469599 0)
(-0.221978 0.0451852 0)
(-0.236685 0.0421727 0)
(-0.249093 0.038068 0)
(-0.259172 0.0330162 0)
(-0.266927 0.0271511 0)
(-0.272369 0.020594 0)
(-0.275499 0.013461 0)
(-0.276308 0.00587179 0)
(-0.274802 -0.00205552 0)
(-0.271033 -0.0102337 0)
(-0.264952 -0.0185676 0)
(-0.256547 -0.0268949 0)
(-0.245781 -0.0350428 0)
(-0.232656 -0.0427862 0)
(-0.217192 -0.0498625 0)
(-0.19947 -0.055962 0)
(-0.179635 -0.0607435 0)
(-0.157927 -0.0638528 0)
(-0.134693 -0.0649613 0)
(-0.110404 -0.0638151 0)
(-0.085659 -0.0602759 0)
(-0.0611684 -0.0543797 0)
(-0.0377448 -0.0464026 0)
(-0.0161588 -0.0367392 0)
(0.0028161 -0.026098 0)
(0.0185925 -0.0152421 0)
(0.0307936 -0.00494282 0)
(0.0393252 0.00407231 0)
(0.0442702 0.0112785 0)
(0.045837 0.0164053 0)
(0.0444846 0.0193982 0)
(0.0408221 0.0204374 0)
(0.0355581 0.0199022 0)
(0.0294152 0.0182856 0)
(0.0230285 0.0160798 0)
(0.0168776 0.0136638 0)
(0.0112785 0.0112141 0)
(0.00644379 0.00866024 0)
(0.00263917 0.00572758 0)
(0.000260555 0.00213989 0)
(0.00023918 -0.00328591 0)
(0.00231114 -0.00767177 0)
(0.00513419 -0.00963406 0)
(0.007777 -0.00934404 0)
(0.00960096 -0.00740357 0)
(0.0102761 -0.00455775 0)
(0.00967974 -0.00144333 0)
(0.00777649 0.00155213 0)
(0.00451984 0.0043436 0)
(-0.000225549 0.00711176 0)
(-0.00672946 0.0101894 0)
(-0.0153677 0.013937 0)
(-0.0265532 0.0186202 0)
(-0.040637 0.0243503 0)
(-0.0577957 0.0310513 0)
(-0.0779112 0.0384462 0)
(-0.100487 0.0460495 0)
(-0.124677 0.0532266 0)
(-0.149456 0.0593388 0)
(-0.173843 0.0638981 0)
(-0.197062 0.0666385 0)
(-0.218581 0.0674975 0)
(-0.238091 0.066555 0)
(-0.255442 0.0639716 0)
(-0.27059 0.0599411 0)
(-0.283554 0.0546602 0)
(-0.294387 0.048312 0)
(-0.303153 0.0410572 0)
(-0.30991 0.0330326 0)
(-0.314699 0.0243549 0)
(-0.317531 0.0151269 0)
(-0.318407 0.00544145 0)
(-0.317342 -0.00462322 0)
(-0.314357 -0.0149978 0)
(-0.309397 -0.0255558 0)
(-0.302387 -0.0361615 0)
(-0.293241 -0.0466282 0)
(-0.281873 -0.0567211 0)
(-0.268201 -0.066142 0)
(-0.252171 -0.07453 0)
(-0.23377 -0.0814671 0)
(-0.213065 -0.0864988 0)
(-0.190227 -0.0891697 0)
(-0.165566 -0.0890786 0)
(-0.139564 -0.0859446 0)
(-0.112886 -0.0796869 0)
(-0.0863642 -0.0704943 0)
(-0.0609281 -0.0588452 0)
(-0.0375243 -0.0455334 0)
(-0.0169549 -0.0314881 0)
(0.00020381 -0.0177298 0)
(0.0136506 -0.00511947 0)
(0.0234145 0.00559983 0)
(0.0296719 0.0139745 0)
(0.0327005 0.0198199 0)
(0.0329063 0.0231782 0)
(0.0308144 0.0243234 0)
(0.0270404 0.0237194 0)
(0.0222224 0.021915 0)
(0.0169446 0.0194087 0)
(0.0116874 0.0165 0)
(0.00684367 0.013175 0)
(0.00285925 0.00908267 0)
(0.000290062 0.00365557 0)
(0.000283902 -0.00456788 0)
(0.00243584 -0.0102062 0)
(0.00508122 -0.0123029 0)
(0.00718701 -0.0113285 0)
(0.008102 -0.00822623 0)
(0.0075398 -0.0040086 0)
(0.00539956 0.000547357 0)
(0.00161531 0.00504284 0)
(-0.00395358 0.0094867 0)
(-0.0115984 0.0141927 0)
(-0.021742 0.019614 0)
(-0.0348346 0.0261528 0)
(-0.0512171 0.0339973 0)
(-0.0709613 0.043031 0)
(-0.0937389 0.052807 0)
(-0.118785 0.0626034 0)
(-0.145022 0.0715778 0)
(-0.171309 0.0789828 0)
(-0.196683 0.0843251 0)
(-0.220466 0.0873973 0)
(-0.242263 0.0882167 0)
(-0.261884 0.0869381 0)
(-0.279282 0.0837857 0)
(-0.294497 0.0790061 0)
(-0.307607 0.072839 0)
(-0.318717 0.0655021 0)
(-0.327933 0.0571837 0)
(-0.335359 0.0480408 0)
(-0.341089 0.038201 0)
(-0.345189 0.027766 0)
(-0.347706 0.0168125 0)
(-0.348669 0.00539435 0)
(-0.348116 -0.00644571 0)
(-0.346063 -0.0186397 0)
(-0.34246 -0.0310884 0)
(-0.337217 -0.0436746 0)
(-0.330219 -0.056233 0)
(-0.321316 -0.0685408 0)
(-0.310338 -0.0802983 0)
(-0.297096 -0.0911218 0)
(-0.28141 -0.100541 0)
(-0.263134 -0.108012 0)
(-0.242199 -0.11295 0)
(-0.218665 -0.114786 0)
(-0.19278 -0.113047 0)
(-0.165045 -0.107445 0)
(-0.136233 -0.0979877 0)
(-0.107374 -0.0850677 0)
(-0.0796627 -0.0694929 0)
(-0.0542848 -0.0524042 0)
(-0.0322102 -0.0351135 0)
(-0.0140267 -0.0188339 0)
(0.000134835 -0.0044825 0)
(0.0104936 0.00731637 0)
(0.0173891 0.016269 0)
(0.0211874 0.0223497 0)
(0.0223097 0.0257376 0)
(0.0212444 0.0268199 0)
(0.018542 0.0261092 0)
(0.0147811 0.0241311 0)
(0.0105172 0.0212438 0)
(0.00627108 0.0174641 0)
(0.00263031 0.0123745 0)
(0.000257169 0.0051589 0)
(0.00032717 -0.00590183 0)
(0.00240636 -0.0125958 0)
(0.00457162 -0.0144539 0)
(0.00575271 -0.0123827 0)
(0.00533416 -0.00774491 0)
(0.00309169 -0.00182209 0)
(-0.00106257 0.00451301 0)
(-0.00725806 0.010937 0)
(-0.0157658 0.0176028 0)
(-0.0270168 0.0249617 0)
(-0.0414867 0.0335118 0)
(-0.0595038 0.0435266 0)
(-0.0810487 0.054872 0)
(-0.10562 0.0669637 0)
(-0.132249 0.0788815 0)
(-0.159707 0.0896149 0)
(-0.186795 0.0983326 0)
(-0.21258 0.10454 0)
(-0.23646 0.108076 0)
(-0.25812 0.109017 0)
(-0.277446 0.10758 0)
(-0.294447 0.104042 0)
(-0.309208 0.0986988 0)
(-0.321854 0.0918336 0)
(-0.332533 0.0837052 0)
(-0.341401 0.0745375 0)
(-0.348614 0.0645167 0)
(-0.354323 0.0537925 0)
(-0.358663 0.0424808 0)
(-0.36175 0.0306647 0)
(-0.363678 0.0183929 0)
(-0.364523 0.0056842 0)
(-0.364334 -0.00744914 0)
(-0.363136 -0.0209613 0)
(-0.3609 -0.0347963 0)
(-0.357557 -0.0488767 0)
(-0.352989 -0.0630849 0)
(-0.347022 -0.0772435 0)
(-0.339427 -0.0910927 0)
(-0.329919 -0.104272 0)
(-0.31817 -0.116306 0)
(-0.303829 -0.126604 0)
(-0.286565 -0.134478 0)
(-0.266124 -0.13919 0)
(-0.242405 -0.140031 0)
(-0.215563 -0.136431 0)
(-0.186104 -0.12809 0)
(-0.154951 -0.115123 0)
(-0.123419 -0.098176 0)
(-0.0930897 -0.0784412 0)
(-0.0655397 -0.057527 0)
(-0.0419956 -0.0371379 0)
(-0.0230518 -0.0186867 0)
(-0.0086422 -0.00307672 0)
(0.00172003 0.00928604 0)
(0.008607 0.0183649 0)
(0.0125286 0.0243128 0)
(0.0139545 0.0274976 0)
(0.0133661 0.0283651 0)
(0.0113032 0.0274054 0)
(0.00833373 0.0249672 0)
(0.00504454 0.0210564 0)
(0.00209828 0.0152009 0)
(0.000186497 0.00643705 0)
(0.000358657 -0.00719632 0)
(0.00215196 -0.0145797 0)
(0.00348334 -0.015715 0)
(0.00333409 -0.01209 0)
(0.00117516 -0.00553366 0)
(-0.00315679 0.00244067 0)
(-0.0097595 0.010952 0)
(-0.0188511 0.0198072 0)
(-0.0308273 0.0293203 0)
(-0.0461548 0.0400036 0)
(-0.0651576 0.052204 0)
(-0.0877685 0.0658095 0)
(-0.113381 0.0801557 0)
(-0.140898 0.0941737 0)
(-0.168986 0.106708 0)
(-0.196399 0.116838 0)
(-0.222209 0.124048 0)
(-0.245846 0.128196 0)
(-0.267034 0.129403 0)
(-0.285694 0.127933 0)
(-0.301868 0.124116 0)
(-0.315676 0.118301 0)
(-0.327289 0.110827 0)
(-0.336904 0.102003 0)
(-0.344734 0.0920987 0)
(-0.350991 0.0813385 0)
(-0.355882 0.0699024 0)
(-0.359598 0.0579272 0)
(-0.36231 0.0455104 0)
(-0.364168 0.0327124 0)
(-0.365305 0.0195572 0)
(-0.365823 0.00603902 0)
(-0.365783 -0.00785531 0)
(-0.365213 -0.0221187 0)
(-0.364118 -0.0367421 0)
(-0.362469 -0.0517026 0)
(-0.360179 -0.0669455 0)
(-0.357102 -0.0823633 0)
(-0.353011 -0.0977722 0)
(-0.347598 -0.112886 0)
(-0.34046 -0.12729 0)
(-0.331112 -0.140423 0)
(-0.319004 -0.15157 0)
(-0.303578 -0.159884 0)
(-0.284344 -0.164443 0)
(-0.260994 -0.164355 0)
(-0.233541 -0.158908 0)
(-0.202478 -0.147756 0)
(-0.168893 -0.131112 0)
(-0.134465 -0.109906 0)
(-0.10129 -0.0858056 0)
(-0.0714741 -0.0609827 0)
(-0.0465847 -0.0376167 0)
(-0.0272209 -0.0173239 0)
(-0.0130352 -0.00087433 0)
(-0.0032089 0.0116399 0)
(0.00313897 0.0204767 0)
(0.00668157 0.0260374 0)
(0.00793558 0.028784 0)
(0.00745087 0.0291664 0)
(0.00579285 0.027487 0)
(0.00357002 0.0237126 0)
(0.00145738 0.0173386 0)
(0.000108405 0.00737556 0)
(0.000362184 -0.00831279 0)
(0.00159144 -0.0158321 0)
(0.00170055 -0.0156805 0)
(-0.000178926 -0.0100506 0)
(-0.00444654 -0.00120478 0)
(-0.0112053 0.00917969 0)
(-0.0206072 0.0202939 0)
(-0.0329613 0.0321013 0)
(-0.048687 0.0450078 0)
(-0.0681019 0.059394 0)
(-0.09114 0.0752042 0)
(-0.117167 0.0917623 0)
(-0.145027 0.107903 0)
(-0.173315 0.122338 0)
(-0.200727 0.134036 0)
(-0.226303 0.14242 0)
(-0.249468 0.147343 0)
(-0.269952 0.148949 0)
(-0.287689 0.147546 0)
(-0.302745 0.143522 0)
(-0.31528 0.137289 0)
(-0.325511 0.129249 0)
(-0.333695 0.119774 0)
(-0.340103 0.109188 0)
(-0.345005 0.097763 0)
(-0.348658 0.0857132 0)
(-0.351294 0.0732001 0)
(-0.353117 0.0603365 0)
(-0.354303 0.047193 0)
(-0.355007 0.0338031 0)
(-0.355364 0.0201695 0)
(-0.355478 0.00627224 0)
(-0.355408 -0.00791851 0)
(-0.355179 -0.0224321 0)
(-0.354832 -0.0373039 0)
(-0.354381 -0.0525598 0)
(-0.353795 -0.0682044 0)
(-0.35299 -0.0842038 0)
(-0.351807 -0.100466 0)
(-0.349998 -0.116811 0)
(-0.347194 -0.132942 0)
(-0.342898 -0.148409 0)
(-0.336475 -0.162579 0)
(-0.327171 -0.174619 0)
(-0.314175 -0.183514 0)
(-0.296719 -0.188127 0)
(-0.274232 -0.187332 0)
(-0.246537 -0.180209 0)
(-0.214077 -0.166299 0)
(-0.178105 -0.145884 0)
(-0.140723 -0.12021 0)
(-0.104658 -0.0915149 0)
(-0.0726797 -0.062684 0)
(-0.0467604 -0.0364738 0)
(-0.0274458 -0.0146684 0)
(-0.013997 0.00221167 0)
(-0.00513411 0.014507 0)
(0.000289503 0.0227744 0)
(0.00310031 0.0276355 0)
(0.003953 0.0295681 0)
(0.00345021 0.0288496 0)
(0.00221019 0.0254135 0)
(0.000882489 0.0187564 0)
(4.73574e-05 0.00796945 0)
(0.000319401 -0.00906497 0)
(0.00065889 -0.0159835 0)
(-0.000849988 -0.013964 0)
(-0.00480891 -0.0059063 0)
(-0.0114576 0.00557106 0)
(-0.0208932 0.0187138 0)
(-0.0333183 0.0328298 0)
(-0.049062 0.0480076 0)
(-0.0684183 0.0645723 0)
(-0.0913556 0.0825346 0)
(-0.117284 0.101271 0)
(-0.145054 0.119581 0)
(-0.173224 0.136054 0)
(-0.200421 0.149519 0)
(-0.22562 0.159293 0)
(-0.248205 0.165186 0)
(-0.267889 0.167349 0)
(-0.284609 0.166132 0)
(-0.298454 0.161984 0)
(-0.309625 0.155389 0)
(-0.318394 0.146826 0)
(-0.32508 0.136739 0)
(-0.330014 0.125515 0)
(-0.333522 0.113476 0)
(-0.3359 0.100873 0)
(-0.337412 0.0878939 0)
(-0.338278 0.0746659 0)
(-0.338679 0.0612674 0)
(-0.338762 0.0477357 0)
(-0.338653 0.0340768 0)
(-0.338458 0.0202756 0)
(-0.338258 0.00630445 0)
(-0.338094 -0.00787375 0)
(-0.337999 -0.022315 0)
(-0.338026 -0.0370812 0)
(-0.338217 -0.0522251 0)
(-0.338591 -0.0677891 0)
(-0.339137 -0.0837945 0)
(-0.339794 -0.100229 0)
(-0.340425 -0.117022 0)
(-0.340789 -0.134016 0)
(-0.340503 -0.150925 0)
(-0.33901 -0.167289 0)
(-0.335554 -0.182428 0)
(-0.329197 -0.195405 0)
(-0.318872 -0.205037 0)
(-0.303503 -0.209944 0)
(-0.28221 -0.208707 0)
(-0.254572 -0.200115 0)
(-0.220934 -0.183515 0)
(-0.182702 -0.159211 0)
(-0.142449 -0.128802 0)
(-0.103648 -0.0952451 0)
(-0.0698524 -0.0623368 0)
(-0.0434521 -0.0335131 0)
(-0.0247912 -0.0106336 0)
(-0.0125669 0.00621355 0)
(-0.0050234 0.0178414 0)
(-0.000748077 0.0251588 0)
(0.00123291 0.0288425 0)
(0.00166725 0.0292386 0)
(0.00121208 0.0263021 0)
(0.000491084 0.0195756 0)
(1.71911e-05 0.0082972 0)
(0.000215078 -0.00923213 0)
(-0.000686397 -0.014674 0)
(-0.00415447 -0.0102259 0)
(-0.0104411 0.000623215 0)
(-0.0196439 0.0150108 0)
(-0.0318705 0.0311959 0)
(-0.0473336 0.0486091 0)
(-0.066271 0.0673301 0)
(-0.0886932 0.0873908 0)
(-0.114107 0.108268 0)
(-0.141441 0.12879 0)
(-0.169253 0.147456 0)
(-0.196107 0.162924 0)
(-0.220885 0.174357 0)
(-0.2429 0.181475 0)
(-0.261827 0.184412 0)
(-0.277597 0.183553 0)
(-0.290317 0.179409 0)
(-0.300231 0.172547 0)
(-0.30767 0.163536 0)
(-0.313014 0.152899 0)
(-0.316655 0.141095 0)
(-0.318965 0.128498 0)
(-0.320277 0.1154 0)
(-0.320873 0.10201 0)
(-0.32098 0.0884688 0)
(-0.320773 0.0748597 0)
(-0.320383 0.0612208 0)
(-0.319909 0.0475561 0)
(-0.319428 0.0338477 0)
(-0.319004 0.0200658 0)
(-0.318681 0.00617658 0)
(-0.318486 -0.00786083 0)
(-0.31845 -0.0221078 0)
(-0.318621 -0.0366281 0)
(-0.319048 -0.0514797 0)
(-0.319781 -0.066718 0)
(-0.320861 -0.0823914 0)
(-0.322306 -0.0985353 0)
(-0.324094 -0.115159 0)
(-0.326132 -0.132223 0)
(-0.328214 -0.149605 0)
(-0.329979 -0.167054 0)
(-0.33085 -0.184129 0)
(-0.330001 -0.200129 0)
(-0.326341 -0.214038 0)
(-0.318566 -0.224503 0)
(-0.305291 -0.22988 0)
(-0.285292 -0.228395 0)
(-0.257853 -0.218456 0)
(-0.22318 -0.199121 0)
(-0.182819 -0.170673 0)
(-0.139868 -0.135141 0)
(-0.0986727 -0.0964289 0)
(-0.0636791 -0.059504 0)
(-0.0375999 -0.0285352 0)
(-0.0202896 -0.00522842 0)
(-0.00971733 0.0109753 0)
(-0.00369182 0.0214065 0)
(-0.000616087 0.0271752 0)
(0.000579548 0.0288804 0)
(0.000682042 0.0266082 0)
(0.000332226 0.0200059 0)
(2.13778e-05 0.00848197 0)
(3.41403e-05 -0.00858054 0)
(-0.00242375 -0.0115894 0)
(-0.00809347 -0.0042341 0)
(-0.0168446 0.00968503 0)
(-0.0286365 0.0271755 0)
(-0.0435902 0.0465796 0)
(-0.0618548 0.0673809 0)
(-0.0834595 0.0894746 0)
(-0.108034 0.112435 0)
(-0.134645 0.135186 0)
(-0.161912 0.156186 0)
(-0.188352 0.173918 0)
(-0.21274 0.187334 0)
(-0.234288 0.196005 0)
(-0.25261 0.200013 0)
(-0.267615 0.199758 0)
(-0.279427 0.195815 0)
(-0.288322 0.18884 0)
(-0.294686 0.179498 0)
(-0.29896 0.168405 0)
(-0.301589 0.156099 0)
(-0.302992 0.143015 0)
(-0.303529 0.129484 0)
(-0.303495 0.115738 0)
(-0.303117 0.101927 0)
(-0.302559 0.0881359 0)
(-0.301933 0.0744003 0)
(-0.301311 0.0607207 0)
(-0.30074 0.047075 0)
(-0.300252 0.0334283 0)
(-0.299869 0.0197422 0)
(-0.299608 0.00597917 0)
(-0.299479 -0.00790126 0)
(-0.299508 -0.0219518 0)
(-0.29973 -0.0362246 0)
(-0.300194 -0.0507702 0)
(-0.300956 -0.0656389 0)
(-0.302079 -0.0808818 0)
(-0.303626 -0.0965496 0)
(-0.305647 -0.112689 0)
(-0.308159 -0.129331 0)
(-0.311117 -0.146472 0)
(-0.314367 -0.164037 0)
(-0.317587 -0.181824 0)
(-0.320219 -0.199431 0)
(-0.321403 -0.216163 0)
(-0.319941 -0.230941 0)
(-0.314327 -0.242247 0)
(-0.30288 -0.248142 0)
(-0.284027 -0.246439 0)
(-0.256724 -0.235072 0)
(-0.221009 -0.212722 0)
(-0.178582 -0.17964 0)
(-0.133156 -0.138445 0)
(-0.0901127 -0.0943351 0)
(-0.0548514 -0.0537583 0)
(-0.030121 -0.0215034 0)
(-0.0148813 0.00130163 0)
(-0.00627986 0.0160787 0)
(-0.00183386 0.0245844 0)
(9.91439e-05 0.0279477 0)
(0.000588981 0.026566 0)
(0.000391514 0.0202768 0)
(5.54349e-05 0.00865455 0)
(-0.000229491 -0.00688612 0)
(-0.0044966 -0.00647148 0)
(-0.0124563 0.00418372 0)
(-0.0236463 0.0212969 0)
(-0.0379327 0.0419577 0)
(-0.0553633 0.0645902 0)
(-0.0759557 0.0886056 0)
(-0.0994543 0.113558 0)
(-0.125107 0.138506 0)
(-0.151661 0.161936 0)
(-0.177638 0.182183 0)
(-0.201707 0.197946 0)
(-0.222948 0.208575 0)
(-0.240886 0.214037 0)
(-0.255392 0.214722 0)
(-0.266583 0.211257 0)
(-0.274762 0.204384 0)
(-0.280359 0.194875 0)
(-0.283868 0.183451 0)
(-0.285785 0.170741 0)
(-0.286568 0.157248 0)
(-0.286605 0.143348 0)
(-0.2862 0.1293 0)
(-0.285577 0.115261 0)
(-0.284886 0.101317 0)
(-0.284221 0.0874962 0)
(-0.28363 0.0737943 0)
(-0.283137 0.0601833 0)
(-0.282746 0.0466244 0)
(-0.282458 0.033075 0)
(-0.282267 0.0194945 0)
(-0.282173 0.00584598 0)
(-0.282177 -0.00790659 0)
(-0.282298 -0.0218048 0)
(-0.282561 -0.0358867 0)
(-0.283004 -0.050189 0)
(-0.283678 -0.0647491 0)
(-0.284648 -0.0796074 0)
(-0.285988 -0.0948096 0)
(-0.287779 -0.110408 0)
(-0.290096 -0.126459 0)
(-0.292992 -0.143019 0)
(-0.296465 -0.160122 0)
(-0.300412 -0.177742 0)
(-0.30456 -0.195737 0)
(-0.308383 -0.213754 0)
(-0.311012 -0.231112 0)
(-0.311173 -0.246672 0)
(-0.307191 -0.25874 0)
(-0.297119 -0.265049 0)
(-0.279039 -0.26293 0)
(-0.251584 -0.249759 0)
(-0.214633 -0.223776 0)
(-0.170103 -0.185261 0)
(-0.122485 -0.137734 0)
(-0.078413 -0.0882119 0)
(-0.0441916 -0.0448998 0)
(-0.0220003 -0.0127278 0)
(-0.00941573 0.00840112 0)
(-0.00293708 0.0208102 0)
(-5.61941e-05 0.0264637 0)
(0.000786491 0.0263329 0)
(0.000605061 0.0205734 0)
(0.00011011 0.00892265 0)
(-0.000555245 -0.00398925 0)
(-0.00673081 0.000808777 0)
(-0.0169687 0.0150179 0)
(-0.0304806 0.0353155 0)
(-0.0469842 0.0590737 0)
(-0.0664609 0.084747 0)
(-0.0887339 0.111542 0)
(-0.113241 0.138583 0)
(-0.138923 0.16446 0)
(-0.164374 0.18742 0)
(-0.188189 0.205896 0)
(-0.209302 0.218944 0)
(-0.227112 0.226334 0)
(-0.241417 0.228388 0)
(-0.252311 0.225762 0)
(-0.260101 0.219277 0)
(-0.265248 0.209815 0)
(-0.268288 0.198216 0)
(-0.269765 0.185213 0)
(-0.270176 0.171391 0)
(-0.269932 0.157183 0)
(-0.269349 0.142877 0)
(-0.268648 0.128646 0)
(-0.267968 0.114573 0)
(-0.267385 0.100682 0)
(-0.266931 0.0869579 0)
(-0.266608 0.0733668 0)
(-0.266405 0.0598642 0)
(-0.266304 0.0464044 0)
(-0.266288 0.0329443 0)
(-0.266339 0.0194458 0)
(-0.266448 0.00587594 0)
(-0.266615 -0.00779583 0)
(-0.266853 -0.0215984 0)
(-0.267176 -0.0355568 0)
(-0.267614 -0.0496949 0)
(-0.268206 -0.0640362 0)
(-0.269004 -0.0786068 0)
(-0.270076 -0.0934384 0)
(-0.271501 -0.108572 0)
(-0.273372 -0.124064 0)
(-0.275783 -0.139982 0)
(-0.278818 -0.156408 0)
(-0.282516 -0.173417 0)
(-0.286821 -0.19104 0)
(-0.291508 -0.209193 0)
(-0.296082 -0.227573 0)
(-0.299669 -0.245504 0)
(-0.300926 -0.261769 0)
(-0.298022 -0.274458 0)
(-0.288759 -0.280916 0)
(-0.270905 -0.277912 0)
(-0.242798 -0.262186 0)
(-0.204229 -0.231528 0)
(-0.157478 -0.186443 0)
(-0.108092 -0.131913 0)
(-0.0642308 -0.0775098 0)
(-0.0327455 -0.0331758 0)
(-0.0142075 -0.00288345 0)
(-0.00461992 0.0152518 0)
(-0.00029932 0.0242306 0)
(0.001051 0.025923 0)
(0.00087775 0.0209857 0)
(0.000173827 0.00934816 0)
(-0.000901773 0.000203093 0)
(-0.00897486 0.0102318 0)
(-0.0213408 0.0280624 0)
(-0.0369055 0.0514385 0)
(-0.0552359 0.0780886 0)
(-0.076214 0.10643 0)
(-0.0994445 0.135371 0)
(-0.124097 0.163596 0)
(-0.14892 0.189358 0)
(-0.172504 0.210863 0)
(-0.193643 0.226813 0)
(-0.211574 0.236677 0)
(-0.225984 0.240625 0)
(-0.23691 0.239291 0)
(-0.244641 0.23356 0)
(-0.249646 0.224418 0)
(-0.252494 0.212833 0)
(-0.253769 0.199661 0)
(-0.254006 0.18559 0)
(-0.253644 0.171124 0)
(-0.253012 0.156593 0)
(-0.252334 0.14219 0)
(-0.251741 0.128002 0)
(-0.251298 0.114046 0)
(-0.251022 0.100299 0)
(-0.250901 0.0867172 0)
(-0.250912 0.0732508 0)
(-0.251025 0.0598495 0)
(-0.251214 0.0464686 0)
(-0.251458 0.0330692 0)
(-0.251738 0.019619 0)
(-0.252044 0.00609001 0)
(-0.252376 -0.00754176 0)
(-0.252743 -0.0212953 0)
(-0.253154 -0.0351863 0)
(-0.253628 -0.0492284 0)
(-0.254193 -0.0634342 0)
(-0.254887 -0.0778166 0)
(-0.255757 -0.0923924 0)
(-0.256869 -0.107186 0)
(-0.258301 -0.122237 0)
(-0.260151 -0.137602 0)
(-0.262529 -0.153368 0)
(-0.265544 -0.169642 0)
(-0.269274 -0.186546 0)
(-0.273712 -0.204169 0)
(-0.278677 -0.222494 0)
(-0.283698 -0.241257 0)
(-0.287883 -0.259766 0)
(-0.289799 -0.276675 0)
(-0.287445 -0.289783 0)
(-0.278372 -0.295947 0)
(-0.260056 -0.291269 0)
(-0.230617 -0.271785 0)
(-0.189897 -0.234919 0)
(-0.140815 -0.18184 0)
(-0.0904132 -0.119952 0)
(-0.0486215 -0.0622327 0)
(-0.0217678 -0.01947 0)
(-0.00759967 0.00697153 0)
(-0.00107651 0.0208095 0)
(0.00113765 0.0251717 0)
(0.00110787 0.0214819 0)
(0.000235192 0.00993653 0)
(-0.0012429 0.00568574 0)
(-0.0110734 0.0216337 0)
(-0.0252981 0.0430522 0)
(-0.0425379 0.0692749 0)
(-0.0622182 0.0984765 0)
(-0.0841005 0.128967 0)
(-0.107581 0.159307 0)
(-0.131632 0.187802 0)
(-0.154931 0.212525 0)
(-0.176183 0.231816 0)
(-0.194442 0.244742 0)
(-0.209239 0.251195 0)
(-0.220515 0.251708 0)
(-0.228507 0.247189 0)
(-0.233668 0.238713 0)
(-0.236582 0.22738 0)
(-0.237866 0.214189 0)
(-0.238092 0.199952 0)
(-0.237732 0.185267 0)
(-0.237135 0.170528 0)
(-0.236535 0.155957 0)
(-0.236061 0.14165 0)
(-0.235772 0.127622 0)
(-0.235674 0.113843 0)
(-0.235746 0.100259 0)
(-0.235956 0.086813 0)
(-0.236269 0.0734498 0)
(-0.236652 0.0601222 0)
(-0.237081 0.0467907 0)
(-0.237536 0.0334232 0)
(-0.238004 0.0199934 0)
(-0.238479 0.00647917 0)
(-0.238961 -0.00713801 0)
(-0.239455 -0.0208709 0)
(-0.23997 -0.0347296 0)
(-0.240518 -0.0487214 0)
(-0.241116 -0.0628517 0)
(-0.241789 -0.0771247 0)
(-0.242566 -0.0915453 0)
(-0.24349 -0.106123 0)
(-0.244616 -0.120876 0)
(-0.24602 -0.135842 0)
(-0.2478 -0.151084 0)
(-0.250076 -0.166702 0)
(-0.252981 -0.182838 0)
(-0.256632 -0.199662 0)
(-0.261068 -0.217329 0)
(-0.26615 -0.235886 0)
(-0.271422 -0.255102 0)
(-0.275945 -0.27423 0)
(-0.27816 -0.291718 0)
(-0.275851 -0.304953 0)
(-0.266296 -0.310149 0)
(-0.246714 -0.302603 0)
(-0.215115 -0.277611 0)
(-0.171646 -0.232486 0)
(-0.120306 -0.169925 0)
(-0.0702987 -0.101271 0)
(-0.0331624 -0.0433576 0)
(-0.0124669 -0.00526716 0)
(-0.00276193 0.0155423 0)
(0.000839747 0.0237561 0)
(0.00121726 0.0219177 0)
(0.000287039 0.0106426 0)
(-0.00155025 0.0123171 0)
(-0.0128786 0.0347226 0)
(-0.0285969 0.0596064 0)
(-0.0470725 0.0883595 0)
(-0.0675899 0.119676 0)
(-0.0897889 0.15171 0)
(-0.112894 0.18268 0)
(-0.135765 0.21061 0)
(-0.157109 0.23355 0)
(-0.175823 0.250101 0)
(-0.19124 0.259736 0)
(-0.203151 0.262756 0)
(-0.211707 0.260014 0)
(-0.217313 0.252645 0)
(-0.220542 0.241874 0)
(-0.222032 0.228853 0)
(-0.222391 0.214549 0)
(-0.222128 0.199685 0)
(-0.221625 0.18474 0)
(-0.221131 0.169986 0)
(-0.220784 0.155541 0)
(-0.220639 0.141422 0)
(-0.2207 0.127591 0)
(-0.220939 0.113987 0)
(-0.221319 0.100543 0)
(-0.221799 0.0872002 0)
(-0.222345 0.0739071 0)
(-0.22293 0.0606228 0)
(-0.223536 0.0473151 0)
(-0.224148 0.0339584 0)
(-0.22476 0.020532 0)
(-0.225369 0.00701867 0)
(-0.225977 -0.00659572 0)
(-0.226589 -0.0203209 0)
(-0.227211 -0.0341638 0)
(-0.227852 -0.0481289 0)
(-0.228522 -0.0622181 0)
(-0.229236 -0.0764306 0)
(-0.230009 -0.0907647 0)
(-0.230865 -0.105219 0)
(-0.231837 -0.119798 0)
(-0.23297 -0.134515 0)
(-0.234334 -0.149408 0)
(-0.236026 -0.164545 0)
(-0.238174 -0.180046 0)
(-0.240935 -0.196086 0)
(-0.24446 -0.212891 0)
(-0.248834 -0.230686 0)
(-0.253954 -0.249582 0)
(-0.259356 -0.269361 0)
(-0.264019 -0.289164 0)
(-0.266201 -0.307119 0)
(-0.263413 -0.320023 0)
(-0.252629 -0.323238 0)
(-0.230852 -0.311088 0)
(-0.196174 -0.278181 0)
(-0.14943 -0.222305 0)
(-0.0964169 -0.149288 0)
(-0.0493346 -0.0764586 0)
(-0.0197288 -0.0230144 0)
(-0.00559308 0.00759704 0)
(3.6279e-05 0.0212345 0)
(0.00116419 0.02207 0)
(0.000327966 0.0113894 0)
(-0.00178156 0.0198822 0)
(-0.0142598 0.0491348 0)
(-0.0310579 0.0772921 0)
(-0.0503053 0.108202 0)
(-0.0711557 0.141141 0)
(-0.0931417 0.174093 0)
(-0.115367 0.204971 0)
(-0.136657 0.231638 0)
(-0.155828 0.252254 0)
(-0.172007 0.265751 0)
(-0.184786 0.272026 0)
(-0.194177 0.271749 0)
(-0.200504 0.266052 0)
(-0.204295 0.256252 0)
(-0.206188 0.243663 0)
(-0.206822 0.229429 0)
(-0.206748 0.214436 0)
(-0.206387 0.199283 0)
(-0.206017 0.184318 0)
(-0.205792 0.169697 0)
(-0.205776 0.155451 0)
(-0.205972 0.141538 0)
(-0.206348 0.127888 0)
(-0.206865 0.114425 0)
(-0.207478 0.101083 0)
(-0.208154 0.0878066 0)
(-0.208864 0.0745523 0)
(-0.20959 0.0612871 0)
(-0.210319 0.0479857 0)
(-0.211045 0.0346279 0)
(-0.211765 0.0211973 0)
(-0.212479 0.00768021 0)
(-0.213191 -0.00593461 0)
(-0.213906 -0.0196554 0)
(-0.214629 -0.033488 0)
(-0.215366 -0.0474357 0)
(-0.216125 -0.0614993 0)
(-0.216912 -0.0756766 0)
(-0.217736 -0.0899631 0)
(-0.218606 -0.104352 0)
(-0.219538 -0.118839 0)
(-0.220553 -0.133423 0)
(-0.22169 -0.148116 0)
(-0.22301 -0.162955 0)
(-0.22461 -0.178018 0)
(-0.226629 -0.193446 0)
(-0.229245 -0.209455 0)
(-0.232647 -0.226335 0)
(-0.236959 -0.244386 0)
(-0.242098 -0.263777 0)
(-0.247561 -0.284265 0)
(-0.252187 -0.304787 0)
(-0.253979 -0.322982 0)
(-0.250104 -0.334808 0)
(-0.237213 -0.33451 0)
(-0.212193 -0.31529 0)
(-0.173513 -0.271325 0)
(-0.123296 -0.202126 0)
(-0.0702664 -0.119427 0)
(-0.0300711 -0.0481177 0)
(-0.00969146 -0.00403487 0)
(-0.00132359 0.0170825 0)
(0.000945938 0.021673 0)
(0.00036268 0.0120918 0)
(-0.00190996 0.0281143 0)
(-0.0151346 0.0644567 0)
(-0.0325775 0.0956595 0)
(-0.0521399 0.128328 0)
(-0.0728613 0.162386 0)
(-0.0941905 0.195659 0)
(-0.115163 0.225821 0)
(-0.134638 0.250691 0)
(-0.15159 0.268629 0)
(-0.16538 0.278948 0)
(-0.175828 0.281945 0)
(-0.183125 0.278625 0)
(-0.187722 0.270347 0)
(-0.190225 0.25856 0)
(-0.191286 0.244605 0)
(-0.1915 0.229568 0)
(-0.191334 0.214212 0)
(-0.191107 0.199 0)
(-0.191003 0.184153 0)
(-0.1911 0.169729 0)
(-0.191407 0.155691 0)
(-0.191895 0.141959 0)
(-0.19252 0.12845 0)
(-0.193241 0.115086 0)
(-0.194019 0.101806 0)
(-0.194827 0.0885644 0)
(-0.195647 0.0753256 0)
(-0.196469 0.062064 0)
(-0.197285 0.0487595 0)
(-0.198095 0.035396 0)
(-0.198898 0.0219599 0)
(-0.199698 0.00843967 0)