/*--------------------------------*- C++ -*----------------------------------*\
| =========                 |                                                 |
| \\      /  F ield         | OpenFOAM: The Open Source CFD Toolbox           |
|  \\    /   O peration     | Version:  2406                                  |
|   \\  /    A nd           | Website:  www.openfoam.com                      |
|    \\/     M anipulation  |                                                 |
\*---------------------------------------------------------------------------*/
FoamFile
{
    version     2.0;
    format      ascii;
    arch        "LSB;label=32;scalar=64";
    class       volVectorField;
    location    "53.5";
    object      U_0;
}
// * * * * * * * * * * * * * * * * * * * * * * * * * * * * * * * * * * * * * //

dimensions      [0 1 -1 0 0 0 0];

internalField   nonuniform List<vector> 
4096
(
(-1.42882e-05 7.39405e-06 0)
(0.0003689 -9.73648e-05 0)
(0.00117767 -0.000173809 0)
(0.00214964 -0.000194169 0)
(0.0030848 -0.00016892 0)
(0.00384104 -0.000123495 0)
(0.00436209 -8.01419e-05 0)
(0.00466636 -5.29071e-05 0)
(0.00481358 -4.6625e-05 0)
(0.00487075 -5.85369e-05 0)
(0.00488354 -8.17395e-05 0)
(0.00486373 -0.0001063 0)
(0.0047881 -0.000126329 0)
(0.00460635 -0.000139405 0)
(0.0042538 -0.000144556 0)
(0.00365979 -0.000142392 0)
(0.0027511 -0.000131213 0)
(0.0014516 -0.000108825 0)
(-0.000316016 -7.26134e-05 0)
(-0.00262796 -2.07363e-05 0)
(-0.00555191 4.88125e-05 0)
(-0.00913779 0.000139113 0)
(-0.013408 0.000257749 0)
(-0.0183454 0.000416268 0)
(-0.0238852 0.000623715 0)
(-0.0299096 0.00087756 0)
(-0.0362486 0.00115845 0)
(-0.0426826 0.00143241 0)
(-0.0489505 0.00165884 0)
(-0.0547634 0.00180039 0)
(-0.0598232 0.00183011 0)
(-0.0638453 0.00173182 0)
(-0.0665765 0.0014953 0)
(-0.0678007 0.00112762 0)
(-0.0673271 0.000691278 0)
(-0.0649808 0.000182624 0)
(-0.0607461 -0.000382015 0)
(-0.0546738 -0.000963404 0)
(-0.0468989 -0.00151576 0)
(-0.0376585 -0.00199008 0)
(-0.0272975 -0.00233671 0)
(-0.0162574 -0.00250851 0)
(-0.00501824 -0.00248029 0)
(0.0057806 -0.00227357 0)
(0.0155346 -0.00180099 0)
(0.0237435 -0.00115503 0)
(0.0299371 -0.000409412 0)
(0.0338384 0.000318111 0)
(0.0354116 0.000929483 0)
(0.034828 0.00133881 0)
(0.032473 0.00153913 0)
(0.0288662 0.00153151 0)
(0.0245707 0.00136324 0)
(0.0201101 0.00111181 0)
(0.0158845 0.000847388 0)
(0.0121394 0.000613369 0)
(0.00898069 0.000427375 0)
(0.00641112 0.000290717 0)
(0.00437079 0.000196267 0)
(0.00277364 0.000133442 0)
(0.00154118 8.8159e-05 0)
(0.000634732 3.96256e-05 0)
(6.8594e-05 -3.17185e-05 0)
(-8.09505e-05 -9.61215e-05 0)
(7.21078e-05 -0.000357438 0)
(0.00112526 -0.00116497 0)
(0.00293281 -0.00168611 0)
(0.00501154 -0.00180348 0)
(0.00696364 -0.00158989 0)
(0.00851381 -0.00119317 0)
(0.00953849 -0.00076115 0)
(0.0100443 -0.000398618 0)
(0.0101129 -0.000150105 0)
(0.00983819 -2.97618e-06 0)
(0.00927524 9.44619e-05 0)
(0.00840806 0.000209666 0)
(0.00714534 0.00040156 0)
(0.00534101 0.0007067 0)
(0.00281486 0.00114718 0)
(-0.000626681 0.00173044 0)
(-0.00517767 0.00246178 0)
(-0.0110232 0.00334488 0)
(-0.0183185 0.0043784 0)
(-0.0271653 0.00555186 0)
(-0.0375766 0.00684143 0)
(-0.0494438 0.00819868 0)
(-0.0625179 0.00954212 0)
(-0.0764144 0.01076 0)
(-0.0906447 0.0117279 0)
(-0.104665 0.0123314 0)
(-0.117932 0.0124813 0)
(-0.129947 0.0121205 0)
(-0.140284 0.0112255 0)
(-0.148597 0.0098034 0)
(-0.154622 0.00788877 0)
(-0.158172 0.00553991 0)
(-0.159116 0.00283667 0)
(-0.157349 -0.000118675 0)
(-0.152821 -0.00321698 0)
(-0.14555 -0.00639868 0)
(-0.135628 -0.00954564 0)
(-0.123199 -0.0125282 0)
(-0.108484 -0.0151969 0)
(-0.0917998 -0.0173929 0)
(-0.0735575 -0.0189547 0)
(-0.0542659 -0.0197318 0)
(-0.0345056 -0.0196103 0)
(-0.0149566 -0.0185641 0)
(0.00360739 -0.0165121 0)
(0.0204232 -0.0135832 0)
(0.0347867 -0.00992537 0)
(0.0460962 -0.0059092 0)
(0.0539904 -0.0018837 0)
(0.0583268 0.00175468 0)
(0.0592164 0.00467189 0)
(0.056991 0.00669878 0)
(0.0522769 0.00776352 0)
(0.0458866 0.00795187 0)
(0.038663 0.00747817 0)
(0.0313457 0.00660349 0)
(0.0244843 0.00556411 0)
(0.0184049 0.00453249 0)
(0.0132341 0.00360981 0)
(0.00896166 0.00282949 0)
(0.00551537 0.00216019 0)
(0.00284058 0.00151317 0)
(0.000967454 0.000791756 0)
(2.966e-05 8.55193e-05 0)
(0.000144758 -0.00111385 0)
(0.00169269 -0.00295775 0)
(0.00410863 -0.0040149 0)
(0.00675327 -0.00417548 0)
(0.00911906 -0.00361626 0)
(0.0108756 -0.00264524 0)
(0.011873 -0.00156703 0)
(0.0121014 -0.000596271 0)
(0.0116221 0.000177459 0)
(0.010495 0.000787248 0)
(0.00871676 0.00135278 0)
(0.00618926 0.00202441 0)
(0.00271876 0.0029411 0)
(-0.00195027 0.00419419 0)
(-0.00810725 0.00583137 0)
(-0.0160426 0.00786898 0)
(-0.0260041 0.0103 0)
(-0.038156 0.0130925 0)
(-0.0525151 0.0161682 0)
(-0.0688911 0.0193754 0)
(-0.0868588 0.0224802 0)
(-0.105793 0.0251963 0)
(-0.124961 0.0272488 0)
(-0.143639 0.0284335 0)
(-0.161195 0.0286433 0)
(-0.17713 0.0278596 0)
(-0.191073 0.0261255 0)
(-0.202768 0.0235184 0)
(-0.212044 0.0201293 0)
(-0.218792 0.0160539 0)
(-0.222946 0.0113927 0)
(-0.224467 0.00626097 0)
(-0.223339 0.000791716 0)
(-0.219589 -0.00489335 0)
(-0.2132 -0.0107307 0)
(-0.204247 -0.0165763 0)
(-0.192761 -0.0222745 0)
(-0.178841 -0.0276388 0)
(-0.162623 -0.0324558 0)
(-0.144318 -0.0364861 0)
(-0.124217 -0.0394754 0)
(-0.102701 -0.0411736 0)
(-0.0802475 -0.0413684 0)
(-0.0574394 -0.0399303 0)
(-0.0349501 -0.0368155 0)
(-0.013482 -0.0320822 0)
(0.0061231 -0.0259744 0)
(0.0231526 -0.0188831 0)
(0.0370793 -0.0113322 0)
(0.0474496 -0.00394718 0)
(0.0541165 0.00267201 0)
(0.0571399 0.00803464 0)
(0.056735 0.0118845 0)
(0.0534441 0.0141173 0)
(0.0480031 0.0148449 0)
(0.0412253 0.0143599 0)
(0.0338952 0.0130542 0)
(0.0266641 0.0113237 0)
(0.0199824 0.00949013 0)
(0.0140938 0.00774875 0)
(0.00909056 0.00614099 0)
(0.00500803 0.00455835 0)
(0.00195444 0.00281323 0)
(0.000165101 0.000877026 0)
(0.00019547 -0.0021158 0)
(0.00206857 -0.00519577 0)
(0.00481106 -0.00677259 0)
(0.00763034 -0.00683063 0)
(0.00993963 -0.00571804 0)
(0.0113935 -0.00394197 0)
(0.0118464 -0.00197555 0)
(0.0112778 -0.00013447 0)
(0.00970723 0.00146763 0)
(0.007117 0.00291444 0)
(0.00339064 0.00442013 0)
(-0.00169913 0.00624132 0)
(-0.00847263 0.00859771 0)
(-0.0172914 0.0116283 0)
(-0.028494 0.0153795 0)
(-0.0423289 0.0198207 0)
(-0.0588628 0.0248274 0)
(-0.0778905 0.0301514 0)
(-0.098888 0.0354074 0)
(-0.121067 0.0401273 0)
(-0.143529 0.0438732 0)
(-0.165433 0.0463367 0)
(-0.186103 0.0473698 0)
(-0.205056 0.0469601 0)
(-0.221977 0.0451856 0)
(-0.236685 0.0421733 0)
(-0.249092 0.0380687 0)
(-0.259172 0.033017 0)
(-0.266927 0.027152 0)
(-0.272369 0.020595 0)
(-0.275499 0.013462 0)
(-0.276309 0.00587278 0)
(-0.274803 -0.00205453 0)
(-0.271034 -0.0102327 0)
(-0.264953 -0.0185667 0)
(-0.256549 -0.0268941 0)
(-0.245783 -0.0350421 0)
(-0.232658 -0.0427857 0)
(-0.217195 -0.0498622 0)
(-0.199473 -0.055962 0)
(-0.179638 -0.0607438 0)
(-0.15793 -0.0638535 0)
(-0.134695 -0.0649623 0)
(-0.110407 -0.0638163 0)
(-0.0856614 -0.0602774 0)
(-0.0611705 -0.0543813 0)
(-0.0377465 -0.0464043 0)
(-0.0161601 -0.0367408 0)
(0.00281529 -0.0260995 0)
(0.0185922 -0.0152433 0)
(0.0307936 -0.00494368 0)
(0.0393256 0.00407179 0)
(0.0442709 0.0112783 0)
(0.0458378 0.0164054 0)
(0.0444855 0.0193984 0)
(0.040823 0.0204378 0)
(0.035559 0.0199026 0)
(0.029416 0.0182861 0)
(0.0230292 0.0160802 0)
(0.0168782 0.0136642 0)
(0.0112789 0.0112145 0)
(0.00644407 0.00866066 0)
(0.0026393 0.00572793 0)
(0.000260572 0.00214007 0)
(0.000239157 -0.00328563 0)
(0.00231108 -0.00767144 0)
(0.00513415 -0.00963383 0)
(0.007777 -0.00934387 0)
(0.00960099 -0.00740335 0)
(0.0102762 -0.00455743 0)
(0.00967971 -0.00144292 0)
(0.00777641 0.00155257 0)
(0.00451974 0.00434396 0)
(-0.0002256 0.00711194 0)
(-0.00672937 0.0101894 0)
(-0.0153674 0.0139366 0)
(-0.0265525 0.0186195 0)
(-0.040636 0.0243495 0)
(-0.0577942 0.0310503 0)
(-0.0779094 0.0384452 0)
(-0.100485 0.0460485 0)
(-0.124675 0.0532258 0)
(-0.149454 0.0593382 0)
(-0.173841 0.0638977 0)
(-0.19706 0.0666383 0)
(-0.218579 0.0674975 0)
(-0.23809 0.0665553 0)
(-0.255441 0.0639721 0)
(-0.270588 0.0599416 0)
(-0.283553 0.0546609 0)
(-0.294386 0.0483128 0)
(-0.303151 0.0410581 0)
(-0.309909 0.0330336 0)
(-0.314698 0.024356 0)
(-0.31753 0.0151281 0)
(-0.318406 0.00544265 0)
(-0.317341 -0.00462199 0)
(-0.314357 -0.0149966 0)
(-0.309397 -0.0255547 0)
(-0.302387 -0.0361604 0)
(-0.293242 -0.0466272 0)
(-0.281873 -0.0567203 0)
(-0.268202 -0.0661414 0)
(-0.252172 -0.0745298 0)
(-0.233772 -0.0814672 0)
(-0.213067 -0.0864993 0)
(-0.190229 -0.0891706 0)
(-0.165569 -0.0890799 0)
(-0.139566 -0.0859463 0)
(-0.112888 -0.0796888 0)
(-0.0863661 -0.0704963 0)
(-0.0609297 -0.0588472 0)
(-0.0375255 -0.0455352 0)
(-0.0169557 -0.0314897 0)
(0.000203403 -0.017731 0)
(0.0136506 -0.00512029 0)
(0.0234147 0.0055994 0)
(0.0296723 0.0139744 0)
(0.0327011 0.0198201 0)
(0.0329069 0.0231786 0)
(0.0308151 0.0243239 0)
(0.0270411 0.0237199 0)
(0.022223 0.0219156 0)
(0.0169451 0.0194093 0)
(0.0116877 0.0165006 0)
(0.0068439 0.0131756 0)
(0.00285936 0.00908314 0)
(0.000290076 0.00365581 0)
(0.000283882 -0.00456758 0)
(0.00243582 -0.0102059 0)
(0.00508128 -0.0123027 0)
(0.00718715 -0.0113284 0)
(0.0081022 -0.00822604 0)
(0.00754002 -0.00400827 0)
(0.00539977 0.000547795 0)
(0.00161555 0.00504328 0)
(-0.00395326 0.009487 0)
(-0.0115978 0.0141927 0)
(-0.0217412 0.0196136 0)
(-0.0348334 0.026152 0)
(-0.0512155 0.0339962 0)
(-0.0709592 0.0430298 0)
(-0.0937364 0.0528057 0)
(-0.118783 0.0626021 0)
(-0.145019 0.0715767 0)
(-0.171307 0.078982 0)
(-0.19668 0.0843245 0)
(-0.220464 0.087397 0)
(-0.24226 0.0882166 0)
(-0.261881 0.0869382 0)
(-0.27928 0.083786 0)
(-0.294494 0.0790066 0)
(-0.307605 0.0728396 0)
(-0.318714 0.0655029 0)
(-0.32793 0.0571846 0)
(-0.335357 0.0480418 0)
(-0.341086 0.0382021 0)
(-0.345187 0.0277672 0)
(-0.347703 0.0168138 0)
(-0.348667 0.00539571 0)
(-0.348114 -0.00644429 0)
(-0.346061 -0.0186383 0)
(-0.342458 -0.031087 0)
(-0.337215 -0.0436732 0)
(-0.330217 -0.0562317 0)
(-0.321315 -0.0685397 0)
(-0.310337 -0.0802974 0)
(-0.297095 -0.0911212 0)
(-0.28141 -0.100541 0)
(-0.263135 -0.108012 0)
(-0.242201 -0.112951 0)
(-0.218666 -0.114788 0)
(-0.192782 -0.113048 0)
(-0.165047 -0.107446 0)
(-0.136235 -0.09799 0)
(-0.107376 -0.08507 0)
(-0.0796642 -0.0694951 0)
(-0.054286 -0.0524061 0)
(-0.032211 -0.035115 0)
(-0.0140271 -0.018835 0)
(0.000134705 -0.00448317 0)
(0.0104937 0.0073161 0)
(0.0173893 0.016269 0)
(0.0211877 0.02235 0)
(0.0223102 0.0257381 0)
(0.0212449 0.0268205 0)
(0.0185424 0.0261098 0)
(0.0147815 0.0241318 0)
(0.0105175 0.0212445 0)
(0.00627125 0.0174648 0)
(0.00263039 0.0123751 0)
(0.000257178 0.00515919 0)
(0.000327153 -0.00590152 0)
(0.00240639 -0.0125956 0)
(0.00457179 -0.0144538 0)
(0.00575301 -0.0123827 0)
(0.00533455 -0.00774477 0)
(0.00309214 -0.00182179 0)
(-0.00106205 0.0045134 0)
(-0.00725741 0.0109373 0)
(-0.0157649 0.0176029 0)
(-0.0270156 0.0249614 0)
(-0.041485 0.0335111 0)
(-0.0595016 0.0435254 0)
(-0.081046 0.0548705 0)
(-0.105616 0.0669621 0)
(-0.132246 0.0788799 0)
(-0.159704 0.0896135 0)
(-0.186792 0.0983315 0)
(-0.212576 0.104539 0)
(-0.236457 0.108075 0)
(-0.258117 0.109017 0)
(-0.277443 0.10758 0)
(-0.294444 0.104043 0)
(-0.309204 0.0986991 0)
(-0.321851 0.0918341 0)
(-0.332529 0.0837058 0)
(-0.341397 0.0745382 0)
(-0.348611 0.0645175 0)
(-0.35432 0.0537935 0)
(-0.35866 0.0424819 0)
(-0.361747 0.0306659 0)
(-0.363675 0.0183942 0)
(-0.364519 0.00568565 0)
(-0.364331 -0.0074476 0)
(-0.363132 -0.0209597 0)
(-0.360897 -0.0347947 0)
(-0.357554 -0.048875 0)
(-0.352986 -0.0630833 0)
(-0.347019 -0.077242 0)
(-0.339425 -0.0910913 0)
(-0.329917 -0.104271 0)
(-0.318168 -0.116305 0)
(-0.303828 -0.126604 0)
(-0.286564 -0.134478 0)
(-0.266124 -0.139191 0)
(-0.242405 -0.140033 0)
(-0.215564 -0.136433 0)
(-0.186106 -0.128092 0)
(-0.154953 -0.115126 0)
(-0.123421 -0.0981785 0)
(-0.0930911 -0.0784435 0)
(-0.0655409 -0.0575289 0)
(-0.0419964 -0.0371394 0)
(-0.0230522 -0.0186877 0)
(-0.00864239 -0.0030772 0)
(0.00172004 0.00928594 0)
(0.00860714 0.0183651 0)
(0.0125288 0.0243133 0)
(0.0139548 0.0274982 0)
(0.0133663 0.0283657 0)
(0.0113034 0.0274061 0)
(0.00833391 0.0249679 0)
(0.00504465 0.0210572 0)
(0.00209833 0.0152015 0)
(0.000186501 0.00643737 0)
(0.000358647 -0.00719603 0)
(0.00215206 -0.0145796 0)
(0.00348363 -0.0157151 0)
(0.00333456 -0.0120901 0)
(0.00117577 -0.00553363 0)
(-0.00315606 0.00244087 0)
(-0.0097586 0.0109522 0)
(-0.0188499 0.0198073 0)
(-0.0308257 0.02932 0)
(-0.0461527 0.0400028 0)
(-0.065155 0.0522027 0)
(-0.0877654 0.0658078 0)
(-0.113377 0.0801538 0)
(-0.140894 0.0941719 0)
(-0.168982 0.106706 0)
(-0.196396 0.116837 0)
(-0.222205 0.124047 0)
(-0.245842 0.128195 0)
(-0.267031 0.129402 0)
(-0.28569 0.127932 0)
(-0.301864 0.124116 0)
(-0.315673 0.118301 0)
(-0.327285 0.110828 0)
(-0.3369 0.102004 0)
(-0.34473 0.0920992 0)
(-0.350987 0.0813391 0)
(-0.355878 0.0699032 0)
(-0.359594 0.0579281 0)
(-0.362305 0.0455115 0)
(-0.364163 0.0327136 0)
(-0.3653 0.0195585 0)
(-0.365818 0.00604051 0)
(-0.365779 -0.00785369 0)
(-0.365208 -0.0221169 0)
(-0.364114 -0.0367403 0)
(-0.362464 -0.0517008 0)
(-0.360175 -0.0669436 0)
(-0.357098 -0.0823615 0)
(-0.353008 -0.0977705 0)
(-0.347595 -0.112884 0)
(-0.340458 -0.127289 0)
(-0.331109 -0.140422 0)
(-0.319002 -0.15157 0)
(-0.303577 -0.159884 0)
(-0.284343 -0.164444 0)
(-0.260994 -0.164357 0)
(-0.233541 -0.15891 0)
(-0.20248 -0.147758 0)
(-0.168894 -0.131114 0)
(-0.134467 -0.109909 0)
(-0.101291 -0.0858078 0)
(-0.0714753 -0.0609845 0)
(-0.0465855 -0.037618 0)
(-0.0272214 -0.0173247 0)
(-0.0130354 -0.000874605 0)
(-0.00320895 0.01164 0)
(0.00313902 0.0204771 0)
(0.00668168 0.0260379 0)
(0.00793572 0.0287846 0)
(0.007451 0.0291672 0)
(0.00579295 0.0274878 0)
(0.00357008 0.0237134 0)
(0.00145741 0.0173392 0)
(0.000108406 0.00737591 0)
(0.000362184 -0.00831256 0)
(0.00159161 -0.0158322 0)
(0.00170097 -0.0156808 0)
(-0.000178273 -0.0100509 0)
(-0.00444569 -0.00120491 0)
(-0.0112042 0.0091797 0)
(-0.0206059 0.0202938 0)
(-0.0329596 0.032101 0)
(-0.0486847 0.045007 0)
(-0.068099 0.0593926 0)
(-0.0911365 0.0752024 0)
(-0.117163 0.0917602 0)
(-0.145023 0.107901 0)
(-0.17331 0.122336 0)
(-0.200723 0.134034 0)
(-0.226299 0.142419 0)
(-0.249464 0.147342 0)
(-0.269948 0.148948 0)
(-0.287685 0.147545 0)
(-0.302741 0.143522 0)
(-0.315276 0.137288 0)
(-0.325507 0.129249 0)
(-0.33369 0.119774 0)
(-0.340098 0.109188 0)
(-0.345 0.0977634 0)
(-0.348653 0.0857137 0)
(-0.351289 0.0732007 0)
(-0.353112 0.0603373 0)
(-0.354297 0.047194 0)
(-0.355001 0.0338042 0)
(-0.355358 0.0201708 0)
(-0.355473 0.00627373 0)
(-0.355402 -0.00791686 0)
(-0.355173 -0.0224303 0)
(-0.354827 -0.037302 0)
(-0.354376 -0.0525578 0)
(-0.35379 -0.0682023 0)
(-0.352985 -0.0842017 0)
(-0.351803 -0.100464 0)
(-0.349993 -0.116809 0)
(-0.34719 -0.13294 0)
(-0.342895 -0.148408 0)
(-0.336471 -0.162578 0)
(-0.327168 -0.174618 0)
(-0.314173 -0.183514 0)
(-0.296718 -0.188128 0)
(-0.274231 -0.187333 0)
(-0.246537 -0.18021 0)
(-0.214078 -0.166301 0)
(-0.178106 -0.145886 0)
(-0.140724 -0.120212 0)
(-0.104659 -0.091517 0)
(-0.0726807 -0.0626856 0)
(-0.0467612 -0.0364748 0)
(-0.0274462 -0.0146689 0)
(-0.0139972 0.0022116 0)
(-0.00513419 0.0145072 0)
(0.000289501 0.0227748 0)
(0.00310035 0.0276361 0)
(0.00395305 0.0295689 0)
(0.00345025 0.0288505 0)
(0.00221022 0.0254143 0)
(0.000882496 0.0187571 0)
(4.73558e-05 0.0079698 0)
(0.000319416 -0.00906485 0)
(0.000659148 -0.0159838 0)
(-0.00084942 -0.0139646 0)
(-0.00480806 -0.00590684 0)
(-0.0114565 0.00557069 0)
(-0.0208918 0.0187135 0)
(-0.0333165 0.0328293 0)
(-0.0490597 0.0480067 0)
(-0.0684153 0.0645708 0)
(-0.091352 0.0825326 0)
(-0.11728 0.101269 0)
(-0.14505 0.119579 0)
(-0.173219 0.136052 0)
(-0.200416 0.149517 0)
(-0.225615 0.159291 0)
(-0.248201 0.165185 0)
(-0.267885 0.167348 0)
(-0.284605 0.166132 0)
(-0.29845 0.161983 0)
(-0.30962 0.155388 0)
(-0.318389 0.146826 0)
(-0.325075 0.136739 0)
(-0.330009 0.125515 0)
(-0.333516 0.113476 0)
(-0.335895 0.100873 0)
(-0.337407 0.0878942 0)
(-0.338272 0.0746664 0)
(-0.338673 0.061268 0)
(-0.338756 0.0477365 0)
(-0.338646 0.0340779 0)
(-0.338452 0.0202769 0)
(-0.338251 0.00630594 0)
(-0.338088 -0.00787207 0)
(-0.337993 -0.0223131 0)
(-0.33802 -0.0370792 0)
(-0.338211 -0.0522229 0)
(-0.338585 -0.0677868 0)
(-0.339132 -0.0837923 0)
(-0.339788 -0.100227 0)
(-0.34042 -0.11702 0)
(-0.340784 -0.134014 0)
(-0.340499 -0.150923 0)
(-0.339005 -0.167288 0)
(-0.33555 -0.182426 0)
(-0.329194 -0.195405 0)
(-0.318869 -0.205037 0)
(-0.303501 -0.209945 0)
(-0.282209 -0.208708 0)
(-0.254571 -0.200116 0)
(-0.220935 -0.183517 0)
(-0.182703 -0.159214 0)
(-0.14245 -0.128804 0)
(-0.103649 -0.095247 0)
(-0.0698534 -0.0623381 0)
(-0.0434527 -0.0335138 0)
(-0.0247916 -0.0106339 0)
(-0.0125671 0.00621367 0)
(-0.00502351 0.0178418 0)
(-0.000748118 0.0251594 0)
(0.0012329 0.0288432 0)
(0.00166725 0.0292394 0)
(0.00121208 0.0263029 0)
(0.000491079 0.0195763 0)
(1.71883e-05 0.00829754 0)
(0.000215111 -0.00923216 0)
(-0.000686064 -0.0146746 0)
(-0.00415377 -0.0102268 0)
(-0.0104401 0.000622368 0)
(-0.0196426 0.0150101 0)
(-0.0318687 0.0311952 0)
(-0.0473313 0.0486081 0)
(-0.0662681 0.0673286 0)
(-0.0886897 0.0873887 0)
(-0.114103 0.108266 0)
(-0.141436 0.128787 0)
(-0.169249 0.147453 0)
(-0.196103 0.162922 0)
(-0.220881 0.174355 0)
(-0.242896 0.181473 0)
(-0.261823 0.184411 0)
(-0.277592 0.183552 0)
(-0.290313 0.179408 0)
(-0.300227 0.172547 0)
(-0.307666 0.163535 0)
(-0.313009 0.152899 0)
(-0.31665 0.141094 0)
(-0.318959 0.128498 0)
(-0.320271 0.1154 0)
(-0.320867 0.10201 0)
(-0.320973 0.0884689 0)
(-0.320766 0.0748601 0)
(-0.320376 0.0612213 0)
(-0.319902 0.0475569 0)
(-0.319422 0.0338487 0)
(-0.318997 0.0200671 0)
(-0.318674 0.00617809 0)
(-0.318479 -0.00785909 0)
(-0.318443 -0.0221059 0)
(-0.318614 -0.036626 0)
(-0.319042 -0.0514774 0)
(-0.319775 -0.0667156 0)
(-0.320855 -0.0823889 0)
(-0.3223 -0.0985329 0)
(-0.324089 -0.115156 0)
(-0.326126 -0.13222 0)
(-0.328209 -0.149603 0)
(-0.329974 -0.167052 0)
(-0.330846 -0.184127 0)
(-0.329997 -0.200127 0)
(-0.326338 -0.214037 0)
(-0.318563 -0.224503 0)
(-0.305289 -0.22988 0)
(-0.285291 -0.228396 0)
(-0.257853 -0.218457 0)
(-0.22318 -0.199123 0)
(-0.18282 -0.170675 0)
(-0.139869 -0.135143 0)
(-0.0986737 -0.0964304 0)
(-0.0636799 -0.0595051 0)
(-0.0376005 -0.0285357 0)
(-0.0202899 -0.00522847 0)
(-0.00971754 0.0109756 0)
(-0.00369193 0.021407 0)
(-0.000616148 0.0271759 0)
(0.000579515 0.0288813 0)
(0.000682022 0.026609 0)
(0.000332214 0.0200066 0)
(2.13747e-05 0.00848231 0)
(3.41907e-05 -0.00858076 0)
(-0.00242335 -0.0115903 0)
(-0.00809264 -0.00423532 0)
(-0.0168434 0.00968384 0)
(-0.0286349 0.0271744 0)
(-0.0435881 0.0465784 0)
(-0.0618521 0.0673793 0)
(-0.0834561 0.0894725 0)
(-0.10803 0.112432 0)
(-0.134641 0.135183 0)
(-0.161907 0.156183 0)
(-0.188347 0.173915 0)
(-0.212736 0.187332 0)
(-0.234283 0.196004 0)
(-0.252605 0.200011 0)
(-0.267611 0.199756 0)
(-0.279422 0.195814 0)
(-0.288317 0.188839 0)
(-0.294681 0.179497 0)
(-0.298955 0.168404 0)
(-0.301584 0.156098 0)
(-0.302986 0.143015 0)
(-0.303523 0.129483 0)
(-0.303489 0.115737 0)
(-0.303111 0.101927 0)
(-0.302552 0.0881358 0)
(-0.301926 0.0744004 0)
(-0.301304 0.0607211 0)
(-0.300733 0.0470757 0)
(-0.300245 0.0334293 0)
(-0.299862 0.0197435 0)
(-0.299601 0.00598073 0)
(-0.299472 -0.00789943 0)
(-0.2995 -0.0219497 0)
(-0.299723 -0.0362223 0)
(-0.300187 -0.0507678 0)
(-0.30095 -0.0656364 0)
(-0.302073 -0.0808791 0)
(-0.30362 -0.0965469 0)
(-0.305642 -0.112686 0)
(-0.308154 -0.129329 0)
(-0.311112 -0.14647 0)
(-0.314362 -0.164035 0)
(-0.317583 -0.181822 0)
(-0.320215 -0.199429 0)
(-0.3214 -0.216162 0)
(-0.319938 -0.23094 0)
(-0.314324 -0.242246 0)
(-0.302878 -0.248142 0)
(-0.284026 -0.24644 0)
(-0.256723 -0.235073 0)
(-0.221009 -0.212723 0)
(-0.178583 -0.179641 0)
(-0.133157 -0.138447 0)
(-0.0901136 -0.0943363 0)
(-0.0548521 -0.0537591 0)
(-0.0301215 -0.0215037 0)
(-0.0148817 0.00130179 0)
(-0.00628005 0.0160792 0)
(-0.00183397 0.0245851 0)
(9.90798e-05 0.0279485 0)
(0.000588945 0.0265668 0)
(0.000391497 0.0202775 0)
(5.54319e-05 0.00865488 0)
(-0.000229408 -0.00688661 0)
(-0.00449608 -0.00647287 0)
(-0.0124554 0.00418208 0)
(-0.023645 0.0212953 0)
(-0.0379309 0.0419561 0)
(-0.0553609 0.0645884 0)
(-0.0759527 0.0886034 0)
(-0.0994507 0.113556 0)
(-0.125103 0.138503 0)
(-0.151657 0.161933 0)
(-0.177634 0.182181 0)
(-0.201702 0.197944 0)
(-0.222943 0.208573 0)
(-0.240882 0.214036 0)
(-0.255388 0.214721 0)
(-0.266579 0.211255 0)
(-0.274758 0.204383 0)
(-0.280355 0.194874 0)
(-0.283863 0.18345 0)
(-0.28578 0.17074 0)
(-0.286563 0.157247 0)
(-0.286599 0.143347 0)
(-0.286194 0.129299 0)
(-0.28557 0.11526 0)
(-0.284879 0.101316 0)
(-0.284213 0.0874959 0)
(-0.283623 0.0737942 0)
(-0.283129 0.0601836 0)
(-0.282738 0.046625 0)
(-0.28245 0.033076 0)
(-0.28226 0.0194958 0)
(-0.282165 0.00584762 0)
(-0.282169 -0.00790463 0)
(-0.282291 -0.0218026 0)
(-0.282554 -0.0358842 0)
(-0.282997 -0.0501863 0)
(-0.283672 -0.0647463 0)
(-0.284642 -0.0796045 0)
(-0.285982 -0.0948066 0)
(-0.287773 -0.110405 0)
(-0.29009 -0.126456 0)
(-0.292986 -0.143017 0)
(-0.29646 -0.160119 0)
(-0.300407 -0.17774 0)
(-0.304555 -0.195735 0)
(-0.308379 -0.213752 0)
(-0.311008 -0.23111 0)
(-0.31117 -0.246671 0)
(-0.307188 -0.25874 0)
(-0.297117 -0.265049 0)
(-0.279038 -0.26293 0)
(-0.251583 -0.249759 0)
(-0.214633 -0.223777 0)
(-0.170103 -0.185262 0)
(-0.122485 -0.137735 0)
(-0.0784137 -0.0882128 0)
(-0.0441922 -0.0449002 0)
(-0.0220007 -0.0127278 0)
(-0.00941598 0.00840147 0)
(-0.00293724 0.0208108 0)
(-5.62864e-05 0.0264644 0)
(0.000786441 0.0263337 0)
(0.00060504 0.0205741 0)
(0.000110107 0.00892297 0)
(-0.00055515 -0.00399004 0)
(-0.00673027 0.000806899 0)
(-0.0169677 0.0150158 0)
(-0.0304792 0.0353133 0)
(-0.0469823 0.0590716 0)
(-0.0664584 0.0847446 0)
(-0.0887308 0.111539 0)
(-0.113238 0.13858 0)
(-0.13892 0.164457 0)
(-0.16437 0.187416 0)
(-0.188185 0.205893 0)
(-0.209298 0.218942 0)
(-0.227108 0.226332 0)
(-0.241413 0.228387 0)
(-0.252307 0.22576 0)
(-0.260097 0.219276 0)
(-0.265243 0.209814 0)
(-0.268283 0.198215 0)
(-0.26976 0.185211 0)
(-0.270171 0.171389 0)
(-0.269926 0.157181 0)
(-0.269343 0.142876 0)
(-0.268641 0.128645 0)
(-0.26796 0.114572 0)
(-0.267377 0.100681 0)
(-0.266923 0.0869573 0)
(-0.2666 0.0733666 0)
(-0.266397 0.0598644 0)
(-0.266296 0.046405 0)
(-0.266279 0.0329453 0)
(-0.266331 0.0194472 0)
(-0.26644 0.0058777 0)
(-0.266608 -0.00779371 0)
(-0.266845 -0.0215959 0)
(-0.267169 -0.0355541 0)
(-0.267607 -0.0496919 0)
(-0.268199 -0.0640331 0)
(-0.268997 -0.0786035 0)
(-0.270069 -0.0934351 0)
(-0.271495 -0.108569 0)
(-0.273366 -0.124061 0)
(-0.275778 -0.139979 0)
(-0.278814 -0.156406 0)
(-0.282512 -0.173415 0)
(-0.286817 -0.191037 0)
(-0.291504 -0.209191 0)
(-0.296078 -0.227571 0)
(-0.299666 -0.245503 0)
(-0.300923 -0.261768 0)
(-0.298019 -0.274457 0)
(-0.288757 -0.280915 0)
(-0.270904 -0.277912 0)
(-0.242797 -0.262186 0)
(-0.204228 -0.231529 0)
(-0.157478 -0.186444 0)
(-0.108092 -0.131914 0)
(-0.0642313 -0.0775104 0)
(-0.0327459 -0.0331759 0)
(-0.0142078 -0.00288321 0)
(-0.00462011 0.0152523 0)
(-0.000299434 0.0242313 0)
(0.00105094 0.0259237 0)
(0.000877726 0.0209863 0)
(0.000173825 0.00934848 0)
(-0.000901679 0.000201982 0)
(-0.00897431 0.0102295 0)
(-0.0213398 0.0280597 0)
(-0.036904 0.0514359 0)
(-0.0552339 0.078086 0)
(-0.0762114 0.106427 0)
(-0.0994415 0.135367 0)
(-0.124093 0.163593 0)
(-0.148916 0.189355 0)
(-0.1725 0.21086 0)
(-0.19364 0.22681 0)
(-0.21157 0.236675 0)
(-0.22598 0.240623 0)
(-0.236906 0.239289 0)
(-0.244637 0.233558 0)
(-0.249641 0.224416 0)
(-0.252489 0.212831 0)
(-0.253764 0.19966 0)
(-0.254001 0.185588 0)
(-0.253638 0.171122 0)
(-0.253006 0.156591 0)
(-0.252327 0.142188 0)
(-0.251734 0.128 0)
(-0.251291 0.114044 0)
(-0.251014 0.100298 0)
(-0.250893 0.0867165 0)
(-0.250903 0.0732504 0)
(-0.251016 0.0598496 0)
(-0.251206 0.0464691 0)
(-0.251449 0.0330702 0)
(-0.251729 0.0196204 0)
(-0.252036 0.00609192 0)
(-0.252368 -0.00753944 0)
(-0.252735 -0.0212926 0)
(-0.253146 -0.0351833 0)
(-0.253621 -0.0492252 0)
(-0.254186 -0.0634307 0)
(-0.25488 -0.077813 0)
(-0.255751 -0.0923887 0)
(-0.256863 -0.107183 0)
(-0.258296 -0.122233 0)
(-0.260146 -0.137599 0)
(-0.262525 -0.153364 0)
(-0.26554 -0.169639 0)
(-0.26927 -0.186543 0)
(-0.273708 -0.204167 0)
(-0.278673 -0.222492 0)
(-0.283695 -0.241255 0)
(-0.28788 -0.259764 0)
(-0.289797 -0.276674 0)
(-0.287443 -0.289782 0)
(-0.27837 -0.295946 0)
(-0.260055 -0.291269 0)
(-0.230616 -0.271786 0)
(-0.189897 -0.23492 0)
(-0.140815 -0.18184 0)
(-0.0904135 -0.119953 0)
(-0.0486219 -0.0622329 0)
(-0.0217681 -0.0194698 0)
(-0.00759986 0.00697196 0)
(-0.00107663 0.0208101 0)
(0.00113759 0.0251724 0)
(0.00110785 0.0214825 0)
(0.00023519 0.00993683 0)
(-0.0012428 0.0056843 0)
(-0.0110729 0.0216309 0)
(-0.0252971 0.0430491 0)
(-0.0425365 0.0692719 0)
(-0.0622163 0.0984734 0)
(-0.084098 0.128963 0)
(-0.107578 0.159303 0)
(-0.131629 0.187798 0)
(-0.154928 0.212521 0)
(-0.176179 0.231813 0)
(-0.194439 0.244739 0)
(-0.209236 0.251192 0)
(-0.220511 0.251706 0)
(-0.228503 0.247187 0)
(-0.233664 0.238711 0)
(-0.236578 0.227378 0)
(-0.237862 0.214187 0)
(-0.238087 0.19995 0)
(-0.237726 0.185265 0)
(-0.237129 0.170526 0)
(-0.236528 0.155954 0)
(-0.236054 0.141647 0)
(-0.235764 0.12762 0)
(-0.235666 0.113841 0)
(-0.235738 0.100258 0)
(-0.235948 0.0868121 0)
(-0.23626 0.0734493 0)
(-0.236644 0.0601223 0)
(-0.237073 0.0467913 0)
(-0.237528 0.0334243 0)
(-0.237996 0.019995 0)
(-0.238471 0.00648126 0)
(-0.238953 -0.00713547 0)
(-0.239447 -0.020868 0)
(-0.239963 -0.0347263 0)
(-0.240511 -0.0487178 0)
(-0.24111 -0.062848 0)
(-0.241782 -0.0771208 0)
(-0.24256 -0.0915413 0)
(-0.243484 -0.106119 0)
(-0.244611 -0.120872 0)
(-0.246015 -0.135838 0)
(-0.247795 -0.15108 0)
(-0.250071 -0.166699 0)
(-0.252977 -0.182835 0)
(-0.256628 -0.199659 0)
(-0.261064 -0.217326 0)
(-0.266147 -0.235884 0)
(-0.27142 -0.2551 0)
(-0.275942 -0.274228 0)
(-0.278158 -0.291717 0)
(-0.275849 -0.304952 0)
(-0.266295 -0.310148 0)
(-0.246712 -0.302602 0)
(-0.215114 -0.277611 0)
(-0.171646 -0.232486 0)
(-0.120306 -0.169925 0)
(-0.0702988 -0.101271 0)
(-0.0331626 -0.0433575 0)
(-0.0124671 -0.00526681 0)
(-0.00276205 0.0155429 0)
(0.000839683 0.0237567 0)
(0.00121724 0.0219182 0)
(0.000287038 0.0106429 0)
(-0.00155015 0.0123153 0)
(-0.0128781 0.0347194 0)
(-0.028596 0.0596028 0)
(-0.0470712 0.088356 0)
(-0.0675881 0.119672 0)
(-0.0897867 0.151706 0)
(-0.112891 0.182676 0)
(-0.135762 0.210606 0)
(-0.157106 0.233547 0)
(-0.17582 0.250098 0)
(-0.191237 0.259733 0)
(-0.203148 0.262753 0)
(-0.211703 0.260011 0)
(-0.21731 0.252643 0)
(-0.220538 0.241872 0)
(-0.222028 0.228851 0)
(-0.222386 0.214547 0)
(-0.222123 0.199682 0)
(-0.221619 0.184737 0)
(-0.221125 0.169983 0)
(-0.220777 0.155538 0)
(-0.220632 0.141419 0)
(-0.220692 0.127588 0)
(-0.220931 0.113985 0)
(-0.221311 0.100542 0)
(-0.22179 0.0871992 0)
(-0.222336 0.0739066 0)
(-0.222922 0.0606229 0)
(-0.223527 0.0473158 0)
(-0.22414 0.0339597 0)
(-0.224752 0.0205338 0)
(-0.225361 0.00702098 0)
(-0.225969 -0.00659294 0)
(-0.226581 -0.0203177 0)
(-0.227204 -0.0341602 0)
(-0.227845 -0.048125 0)
(-0.228516 -0.0622139 0)
(-0.22923 -0.0764263 0)
(-0.230004 -0.0907603 0)
(-0.23086 -0.105215 0)
(-0.231832 -0.119793 0)
(-0.232966 -0.134511 0)
(-0.23433 -0.149404 0)
(-0.236022 -0.164542 0)
(-0.238171 -0.180043 0)
(-0.240932 -0.196083 0)
(-0.244457 -0.212888 0)
(-0.248832 -0.230683 0)
(-0.253952 -0.24958 0)
(-0.259354 -0.269359 0)
(-0.264017 -0.289163 0)
(-0.2662 -0.307118 0)
(-0.263412 -0.320022 0)
(-0.252627 -0.323237 0)
(-0.230851 -0.311088 0)
(-0.196173 -0.278181 0)
(-0.149429 -0.222305 0)
(-0.0964168 -0.149288 0)
(-0.0493347 -0.0764584 0)
(-0.019729 -0.023014 0)
(-0.00559319 0.00759754 0)
(3.62205e-05 0.0212351 0)
(0.00116417 0.0220705 0)
(0.000327966 0.0113897 0)
(-0.00178147 0.0198802 0)
(-0.0142593 0.0491311 0)
(-0.0310571 0.0772882 0)
(-0.0503041 0.108198 0)
(-0.0711541 0.141137 0)
(-0.0931398 0.174089 0)
(-0.115365 0.204966 0)
(-0.136655 0.231634 0)
(-0.155826 0.25225 0)
(-0.172004 0.265748 0)
(-0.184783 0.272023 0)
(-0.194175 0.271747 0)
(-0.200501 0.266049 0)
(-0.204292 0.25625 0)
(-0.206184 0.24366 0)
(-0.206817 0.229426 0)
(-0.206743 0.214433 0)
(-0.206381 0.199279 0)
(-0.206011 0.184314 0)
(-0.205786 0.169694 0)
(-0.205769 0.155448 0)
(-0.205964 0.141535 0)
(-0.206341 0.127885 0)
(-0.206857 0.114423 0)
(-0.20747 0.101082 0)
(-0.208146 0.0878055 0)
(-0.208856 0.0745518 0)
(-0.209582 0.0612873 0)
(-0.210311 0.0479865 0)
(-0.211037 0.0346293 0)
(-0.211757 0.0211993 0)
(-0.212472 0.00768275 0)
(-0.213184 -0.00593155 0)
(-0.213899 -0.0196519 0)
(-0.214623 -0.0334841 0)
(-0.21536 -0.0474315 0)
(-0.216119 -0.0614949 0)
(-0.216907 -0.075672 0)
(-0.217731 -0.0899583 0)
(-0.218602 -0.104348 0)
(-0.219533 -0.118835 0)
(-0.220549 -0.133419 0)
(-0.221686 -0.148112 0)
(-0.223006 -0.162951 0)
(-0.224607 -0.178014 0)
(-0.226626 -0.193443 0)
(-0.229242 -0.209452 0)
(-0.232645 -0.226332 0)
(-0.236957 -0.244384 0)
(-0.242096 -0.263775 0)
(-0.247559 -0.284264 0)
(-0.252185 -0.304786 0)
(-0.253977 -0.322981 0)
(-0.250103 -0.334808 0)
(-0.237212 -0.334509 0)
(-0.212192 -0.315289 0)
(-0.173512 -0.271325 0)
(-0.123295 -0.202125 0)
(-0.0702663 -0.119426 0)
(-0.0300711 -0.0481173 0)
(-0.00969153 -0.0040344 0)
(-0.00132364 0.0170831 0)
(0.000945922 0.0216735 0)
(0.00036268 0.012092 0)
(-0.00190989 0.0281121 0)
(-0.0151343 0.0644527 0)
(-0.0325768 0.0956552 0)
(-0.052139 0.128324 0)
(-0.07286 0.162381 0)
(-0.094189 0.195654 0)
(-0.115162 0.225817 0)
(-0.134636 0.250687 0)
(-0.151588 0.268625 0)
(-0.165378 0.278944 0)
(-0.175826 0.281942 0)
(-0.183123 0.278622 0)
(-0.187719 0.270344 0)
(-0.190221 0.258557 0)
(-0.191282 0.244602 0)
(-0.191496 0.229564 0)
(-0.191329 0.214208 0)
(-0.191102 0.198996 0)
(-0.190997 0.184149 0)
(-0.191093 0.169725 0)
(-0.1914 0.155687 0)
(-0.191887 0.141956 0)
(-0.192513 0.128447 0)
(-0.193233 0.115083 0)
(-0.194011 0.101804 0)
(-0.194819 0.0885633 0)
(-0.19564 0.0753252 0)
(-0.196461 0.0620642 0)
(-0.197278 0.0487604 0)
(-0.198088 0.0353976 0)
(-0.198891 0.0219621 0)
(-0.199691 0.00844247 0)