/*--------------------------------*- C++ -*----------------------------------*\
| =========                 |                                                 |
| \\      /  F ield         | OpenFOAM: The Open Source CFD Toolbox           |
|  \\    /   O peration     | Version:  2406                                  |
|   \\  /    A nd           | Website:  www.openfoam.com                      |
|    \\/     M anipulation  |                                                 |
\*---------------------------------------------------------------------------*/
FoamFile
{
    version     2.0;
    format      ascii;
    arch        "LSB;label=32;scalar=64";
    class       volVectorField;
    location    "6.45";
    object      Uold;
}
// * * * * * * * * * * * * * * * * * * * * * * * * * * * * * * * * * * * * * //

dimensions      [0 1 -1 0 0 0 0];

internalField   nonuniform List<vector> 
14400
(
(3.51487e-06 -3.47956e-06 0)
(5.80045e-06 -6.8794e-07 0)
(-3.05227e-06 3.4693e-06 0)
(-2.40816e-05 7.80547e-06 0)
(-5.65084e-05 1.09455e-05 0)
(-9.71733e-05 1.34184e-05 0)
(-0.000144821 1.50365e-05 0)
(-0.000196892 1.62165e-05 0)
(-0.000252601 1.69315e-05 0)
(-0.000310357 1.74129e-05 0)
(-0.000369748 1.7659e-05 0)
(-0.000429879 1.77925e-05 0)
(-0.000490563 1.78153e-05 0)
(-0.000551333 1.77911e-05 0)
(-0.000612125 1.77208e-05 0)
(-0.000672713 1.76363e-05 0)
(-0.000733091 1.75363e-05 0)
(-0.000793158 1.7436e-05 0)
(-0.000852929 1.7333e-05 0)
(-0.000912364 1.72334e-05 0)
(-0.000971477 1.71344e-05 0)
(-0.00103025 1.70379e-05 0)
(-0.00108869 1.6941e-05 0)
(-0.00114678 1.68438e-05 0)
(-0.00120452 1.67437e-05 0)
(-0.00126188 1.66398e-05 0)
(-0.00131886 1.65302e-05 0)
(-0.00137543 1.64137e-05 0)
(-0.00143155 1.62885e-05 0)
(-0.0014872 1.61534e-05 0)
(-0.00154234 1.6007e-05 0)
(-0.00159693 1.58481e-05 0)
(-0.00165091 1.56752e-05 0)
(-0.00170425 1.54873e-05 0)
(-0.00175688 1.52829e-05 0)
(-0.00180875 1.5061e-05 0)
(-0.0018598 1.48201e-05 0)
(-0.00190996 1.45591e-05 0)
(-0.00195915 1.42769e-05 0)
(-0.00200731 1.3972e-05 0)
(-0.00205436 1.36435e-05 0)
(-0.00210021 1.329e-05 0)
(-0.00214478 1.29105e-05 0)
(-0.00218798 1.25038e-05 0)
(-0.00222972 1.2069e-05 0)
(-0.0022699 1.16052e-05 0)
(-0.00230843 1.11114e-05 0)
(-0.0023452 1.05869e-05 0)
(-0.00238011 1.0031e-05 0)
(-0.00241306 9.44327e-06 0)
(-0.00244393 8.82334e-06 0)
(-0.00247263 8.17104e-06 0)
(-0.00249905 7.48636e-06 0)
(-0.00252308 6.76951e-06 0)
(-0.00254462 6.02092e-06 0)
(-0.00256357 5.24125e-06 0)
(-0.00257982 4.43141e-06 0)
(-0.00259328 3.59256e-06 0)
(-0.00260385 2.72613e-06 0)
(-0.00261146 1.83383e-06 0)
(-0.00261603 9.17635e-07 0)
(-0.00261747 -2.01848e-08 0)
(-0.00261572 -9.771e-07 0)
(-0.00261073 -1.95031e-06 0)
(-0.00260245 -2.93676e-06 0)
(-0.00259085 -3.93314e-06 0)
(-0.00257589 -4.93594e-06 0)
(-0.00255757 -5.94145e-06 0)
(-0.00253589 -6.94577e-06 0)
(-0.00251085 -7.94488e-06 0)
(-0.00248248 -8.93466e-06 0)
(-0.00245082 -9.9109e-06 0)
(-0.00241593 -1.08694e-05 0)
(-0.00237786 -1.1806e-05 0)
(-0.00233669 -1.27165e-05 0)
(-0.00229253 -1.35969e-05 0)
(-0.00224547 -1.44434e-05 0)
(-0.00219562 -1.52523e-05 0)
(-0.00214313 -1.60202e-05 0)
(-0.00208811 -1.6744e-05 0)
(-0.00203073 -1.74208e-05 0)
(-0.00197115 -1.80482e-05 0)
(-0.00190951 -1.86241e-05 0)
(-0.001846 -1.91468e-05 0)
(-0.00178078 -1.9615e-05 0)
(-0.00171404 -2.00279e-05 0)
(-0.00164596 -2.03848e-05 0)
(-0.00157672 -2.06858e-05 0)
(-0.0015065 -2.09309e-05 0)
(-0.00143549 -2.11208e-05 0)
(-0.00136386 -2.12561e-05 0)
(-0.00129179 -2.13378e-05 0)
(-0.00121946 -2.13669e-05 0)
(-0.00114703 -2.13443e-05 0)
(-0.00107469 -2.12708e-05 0)
(-0.00100259 -2.1147e-05 0)
(-0.000930916 -2.09731e-05 0)
(-0.000859829 -2.07484e-05 0)
(-0.000789506 -2.04719e-05 0)
(-0.000720129 -2.01411e-05 0)
(-0.00065189 -1.97532e-05 0)
(-0.000584996 -1.93031e-05 0)
(-0.00051967 -1.87854e-05 0)
(-0.000456165 -1.81916e-05 0)
(-0.000394754 -1.75137e-05 0)
(-0.000335755 -1.67388e-05 0)
(-0.000279511 -1.58567e-05 0)
(-0.000226429 -1.48491e-05 0)
(-0.000176942 -1.37052e-05 0)
(-0.000131553 -1.2401e-05 0)
(-9.07961e-05 -1.09286e-05 0)
(-5.52531e-05 -9.25935e-06 0)
(-2.55478e-05 -7.39838e-06 0)
(-2.23314e-06 -5.31943e-06 0)
(1.40551e-05 -3.07401e-06 0)
(2.31523e-05 -6.86306e-07 0)
(2.47297e-05 1.60725e-06 0)
(2.01755e-05 3.48345e-06 0)
(1.0649e-05 4.03804e-06 0)
(2.19939e-06 2.22791e-06 0)
(7.7885e-07 -5.84166e-06 0)
(-1.195e-05 1.19693e-05 0)
(-5.06135e-05 3.46687e-05 0)
(-0.000114653 5.81439e-05 0)
(-0.000204116 7.71256e-05 0)
(-0.000313196 9.27083e-05 0)
(-0.00043946 0.000104142 0)
(-0.000577745 0.000112754 0)
(-0.000725871 0.000118679 0)
(-0.000880359 0.000122823 0)
(-0.00103976 0.000125425 0)
(-0.00120201 0.00012703 0)
(-0.00136626 0.000127823 0)
(-0.00153137 0.000128113 0)
(-0.00169693 0.000128013 0)
(-0.00186234 0.000127688 0)
(-0.00202742 0.000127196 0)
(-0.00219188 0.000126617 0)
(-0.00235565 0.000125975 0)
(-0.0025186 0.000125304 0)
(-0.0026807 0.000124608 0)
(-0.00284188 0.000123896 0)
(-0.00300211 0.000123162 0)
(-0.00316135 0.000122406 0)
(-0.00331955 0.000121616 0)
(-0.00347665 0.000120788 0)
(-0.00363259 0.00011991 0)
(-0.00378729 0.000118974 0)
(-0.00394067 0.000117971 0)
(-0.00409263 0.000116892 0)
(-0.00424306 0.000115728 0)
(-0.00439185 0.000114471 0)
(-0.00453886 0.000113111 0)
(-0.00468397 0.000111641 0)
(-0.004827 0.000110052 0)
(-0.00496782 0.000108336 0)
(-0.00510625 0.000106484 0)
(-0.0052421 0.000104488 0)
(-0.0053752 0.000102341 0)
(-0.00550534 0.000100035 0)
(-0.0056323 9.7561e-05 0)
(-0.00575589 9.49125e-05 0)
(-0.00587586 9.20823e-05 0)
(-0.00599198 8.90635e-05 0)
(-0.00610402 8.58498e-05 0)
(-0.00621172 8.24354e-05 0)
(-0.00631482 7.88153e-05 0)
(-0.00641307 7.4985e-05 0)
(-0.0065062 7.09409e-05 0)
(-0.00659394 6.66807e-05 0)
(-0.00667603 6.22025e-05 0)
(-0.00675218 5.75062e-05 0)
(-0.00682214 5.25926e-05 0)
(-0.00688563 4.74639e-05 0)
(-0.0069424 4.21238e-05 0)
(-0.00699218 3.65776e-05 0)
(-0.00703472 3.08321e-05 0)
(-0.0070698 2.48959e-05 0)
(-0.00709717 1.87793e-05 0)
(-0.00711664 1.24943e-05 0)
(-0.007128 6.0546e-06 0)
(-0.00713108 -5.24099e-07 0)
(-0.00712572 -7.22455e-06 0)
(-0.00711179 -1.40278e-05 0)
(-0.00708919 -2.09133e-05 0)
(-0.00705782 -2.78589e-05 0)
(-0.00701763 -3.48413e-05 0)
(-0.0069686 -4.18359e-05 0)
(-0.00691074 -4.88171e-05 0)
(-0.00684407 -5.57584e-05 0)
(-0.00676868 -6.26328e-05 0)
(-0.00668467 -6.94131e-05 0)
(-0.00659217 -7.60717e-05 0)
(-0.00649135 -8.25816e-05 0)
(-0.00638242 -8.89159e-05 0)
(-0.0062656 -9.50487e-05 0)
(-0.00614117 -0.000100955 0)
(-0.00600942 -0.000106611 0)
(-0.00587067 -0.000111996 0)
(-0.00572527 -0.000117088 0)
(-0.00557358 -0.000121869 0)
(-0.00541601 -0.000126324 0)
(-0.00525295 -0.000130438 0)
(-0.00508484 -0.000134201 0)
(-0.00491211 -0.000137604 0)
(-0.0047352 -0.00014064 0)
(-0.00455457 -0.000143306 0)
(-0.00437068 -0.0001456 0)
(-0.00418397 -0.000147522 0)
(-0.00399491 -0.000149075 0)
(-0.00380396 -0.000150262 0)
(-0.00361155 -0.000151086 0)
(-0.00341814 -0.000151553 0)
(-0.00322417 -0.000151666 0)
(-0.00303008 -0.000151428 0)
(-0.00283631 -0.00015084 0)
(-0.00264331 -0.000149898 0)
(-0.00245152 -0.000148594 0)
(-0.00226141 -0.000146918 0)
(-0.00207348 -0.000144849 0)
(-0.00188824 -0.000142362 0)
(-0.00170625 -0.000139419 0)
(-0.00152813 -0.000135978 0)
(-0.00135457 -0.00013198 0)
(-0.00118631 -0.000127364 0)
(-0.00102421 -0.000122046 0)
(-0.000869205 -0.00011595 0)
(-0.000722375 -0.00010897 0)
(-0.000584872 -0.000101027 0)
(-0.000457999 -9.20031e-05 0)
(-0.000343114 -8.18501e-05 0)
(-0.00024167 -7.0469e-05 0)
(-0.000155105 -5.79296e-05 0)
(-8.47186e-05 -4.4235e-05 0)
(-3.16594e-05 -2.97929e-05 0)
(3.75933e-06 -1.4963e-05 0)
(2.15748e-05 -1.09316e-06 0)
(2.44543e-05 1.03323e-05 0)
(1.54134e-05 1.5527e-05 0)
(3.93015e-06 1.05957e-05 0)
(-3.48012e-06 3.09015e-06 0)
(-3.54338e-05 5.09414e-05 0)
(-0.000107927 0.000106445 0)
(-0.000214958 0.000162192 0)
(-0.000357577 0.000209161 0)
(-0.000527448 0.000248187 0)
(-0.000721922 0.000278041 0)
(-0.00093404 0.000300851 0)
(-0.0011609 0.000317218 0)
(-0.00139771 0.000328876 0)
(-0.00164232 0.000336613 0)
(-0.00189176 0.000341578 0)
(-0.00214468 0.000344368 0)
(-0.00239939 0.000345673 0)
(-0.00265512 0.000345869 0)
(-0.00291096 0.00034534 0)
(-0.00316652 0.000344291 0)
(-0.00342133 0.000342919 0)
(-0.0036752 0.000341318 0)
(-0.00392789 0.000339573 0)
(-0.00417931 0.000337717 0)
(-0.00442931 0.000335774 0)
(-0.00467783 0.000333743 0)
(-0.00492474 0.00033162 0)
(-0.00516998 0.000329389 0)
(-0.00541342 0.000327033 0)
(-0.00565496 0.000324529 0)
(-0.00589446 0.000321857 0)
(-0.00613178 0.000318994 0)
(-0.00636677 0.000315918 0)
(-0.00659925 0.000312605 0)
(-0.00682903 0.000309035 0)
(-0.0070559 0.000305184 0)
(-0.00727966 0.000301033 0)
(-0.00750006 0.000296558 0)
(-0.00771687 0.000291739 0)
(-0.0079298 0.000286554 0)
(-0.0081386 0.000280984 0)
(-0.00834296 0.000275008 0)
(-0.00854259 0.000268605 0)
(-0.00873716 0.000261757 0)
(-0.00892634 0.000254444 0)
(-0.00910979 0.00024665 0)
(-0.00928716 0.000238357 0)
(-0.00945808 0.00022955 0)
(-0.00962217 0.000220215 0)
(-0.00977906 0.00021034 0)
(-0.00992836 0.000199916 0)
(-0.0100697 0.000188933 0)
(-0.0102026 0.000177387 0)
(-0.0103267 0.000165276 0)
(-0.0104417 0.000152599 0)
(-0.0105471 0.000139361 0)
(-0.0106425 0.000125568 0)
(-0.0107276 0.000111232 0)
(-0.0108019 9.63686e-05 0)
(-0.0108652 8.09957e-05 0)
(-0.010917 6.51371e-05 0)
(-0.0109571 4.88207e-05 0)
(-0.0109852 3.20787e-05 0)
(-0.0110009 1.49476e-05 0)
(-0.0110041 -2.53136e-06 0)
(-0.0109944 -2.03129e-05 0)
(-0.0109718 -3.83476e-05 0)
(-0.0109362 -5.65821e-05 0)
(-0.0108872 -7.49592e-05 0)
(-0.010825 -9.34187e-05 0)
(-0.0107495 -0.000111897 0)
(-0.0106607 -0.00013033 0)
(-0.0105587 -0.000148648 0)
(-0.0104436 -0.000166784 0)
(-0.0103156 -0.000184668 0)
(-0.0101748 -0.00020223 0)
(-0.0100215 -0.000219402 0)
(-0.0098561 -0.000236115 0)
(-0.00967887 -0.000252305 0)
(-0.00949021 -0.000267909 0)
(-0.00929056 -0.000282867 0)
(-0.00908039 -0.000297123 0)
(-0.00886022 -0.000310628 0)
(-0.00863058 -0.000323334 0)
(-0.00839205 -0.000335202 0)
(-0.00814522 -0.000346197 0)
(-0.0078907 -0.00035629 0)
(-0.00762914 -0.00036546 0)
(-0.00736118 -0.000373691 0)
(-0.00708748 -0.000380971 0)
(-0.00680869 -0.000387295 0)
(-0.00652549 -0.000392665 0)
(-0.00623853 -0.000397083 0)
(-0.00594849 -0.000400556 0)
(-0.00565601 -0.000403093 0)
(-0.00536175 -0.000404703 0)
(-0.00506636 -0.000405391 0)
(-0.00477049 -0.000405162 0)
(-0.0044748 -0.000404011 0)
(-0.00417994 -0.000401928 0)
(-0.0038866 -0.000398887 0)
(-0.00359547 -0.000394853 0)
(-0.0033073 -0.000389769 0)
(-0.00302288 -0.000383561 0)
(-0.00274306 -0.000376129 0)
(-0.00246877 -0.000367355 0)
(-0.00220107 -0.000357084 0)
(-0.00194108 -0.000345149 0)
(-0.00169012 -0.000331341 0)
(-0.00144959 -0.000315451 0)
(-0.0012211 -0.000297226 0)
(-0.00100636 -0.000276456 0)
(-0.000807308 -0.000252883 0)
(-0.000625892 -0.00022639 0)
(-0.00046422 -0.000196817 0)
(-0.00032425 -0.000164364 0)
(-0.000207839 -0.000129213 0)
(-0.000116339 -9.24053e-05 0)
(-5.03201e-05 -5.50318e-05 0)
(-9.29792e-06 -2.01745e-05 0)
(9.55466e-06 8.92091e-06 0)
(1.05308e-05 2.47188e-05 0)
(3.36546e-06 2.00257e-05 0)
(-8.09069e-06 2.48214e-05 0)
(-6.06921e-05 0.000116777 0)
(-0.000167965 0.000214586 0)
(-0.000316697 0.000309403 0)
(-0.000508706 0.0003903 0)
(-0.000732961 0.000457905 0)
(-0.00098717 0.000510768 0)
(-0.00126296 0.000551678 0)
(-0.00155727 0.000581759 0)
(-0.00186432 0.000603559 0)
(-0.0021816 0.000618488 0)
(-0.00250546 0.000628359 0)
(-0.00283419 0.000634262 0)
(-0.00316563 0.000637341 0)
(-0.00349874 0.000638302 0)
(-0.00383231 0.000637808 0)
(-0.00416577 0.000636258 0)
(-0.00449845 0.000634002 0)
(-0.00483006 0.000631238 0)
(-0.00516023 0.000628125 0)
(-0.00548878 0.000624738 0)
(-0.00581549 0.00062113 0)
(-0.00614023 0.000617312 0)
(-0.00646282 0.000613281 0)
(-0.00678314 0.000609016 0)
(-0.007101 0.000604492 0)
(-0.00741626 0.000599672 0)
(-0.00772871 0.000594523 0)
(-0.00803817 0.000589004 0)
(-0.00834442 0.000583078 0)
(-0.00864721 0.000576705 0)
(-0.00894631 0.000569847 0)
(-0.00924142 0.000562465 0)
(-0.00953228 0.000554521 0)
(-0.00981856 0.000545978 0)
(-0.0100999 0.000536797 0)
(-0.0103761 0.000526942 0)
(-0.0106466 0.000516376 0)
(-0.0109112 0.000505065 0)
(-0.0111693 0.000492973 0)
(-0.0114207 0.000480066 0)
(-0.0116649 0.000466313 0)
(-0.0119014 0.000451683 0)
(-0.0121298 0.000436148 0)
(-0.0123497 0.000419683 0)
(-0.0125605 0.000402263 0)
(-0.0127617 0.00038387 0)
(-0.0129529 0.000364487 0)
(-0.0131337 0.000344103 0)
(-0.0133034 0.00032271 0)
(-0.0134615 0.000300306 0)
(-0.0136077 0.000276894 0)
(-0.0137414 0.000252484 0)
(-0.013862 0.00022709 0)
(-0.0139693 0.000200736 0)
(-0.0140626 0.000173449 0)
(-0.0141415 0.000145268 0)
(-0.0142057 0.000116235 0)
(-0.0142547 8.64017e-05 0)
(-0.0142883 5.58283e-05 0)
(-0.0143059 2.45815e-05 0)
(-0.0143075 -7.26423e-06 0)
(-0.0142926 -3.96267e-05 0)
(-0.0142612 -7.2417e-05 0)
(-0.014213 -0.000105539 0)
(-0.0141479 -0.000138892 0)
(-0.0140659 -0.000172367 0)
(-0.0139669 -0.000205853 0)
(-0.0138511 -0.000239233 0)
(-0.0137184 -0.000272389 0)
(-0.0135692 -0.000305199 0)
(-0.0134035 -0.000337542 0)
(-0.0132217 -0.000369295 0)
(-0.013024 -0.000400338 0)
(-0.012811 -0.000430553 0)
(-0.012583 -0.000459827 0)
(-0.0123406 -0.000488049 0)
(-0.0120842 -0.000515116 0)
(-0.0118146 -0.000540932 0)
(-0.0115322 -0.000565409 0)
(-0.0112378 -0.000588468 0)
(-0.0109322 -0.000610038 0)
(-0.010616 -0.000630061 0)
(-0.01029 -0.000648486 0)
(-0.00995496 -0.000665275 0)
(-0.00961175 -0.000680401 0)
(-0.00926116 -0.000693843 0)
(-0.00890399 -0.000705594 0)
(-0.00854107 -0.000715651 0)
(-0.00817322 -0.00072402 0)
(-0.00780126 -0.000730712 0)
(-0.007426 -0.000735737 0)
(-0.00704826 -0.000739108 0)
(-0.00666885 -0.000740833 0)
(-0.00628858 -0.000740912 0)
(-0.00590827 -0.000739333 0)
(-0.00552875 -0.000736071 0)
(-0.00515088 -0.000731076 0)
(-0.00477555 -0.000724274 0)
(-0.0044037 -0.00071556 0)
(-0.00403633 -0.000704794 0)
(-0.00367455 -0.000691793 0)
(-0.00331954 -0.000676336 0)
(-0.00297262 -0.000658149 0)
(-0.00263526 -0.000636926 0)
(-0.00230909 -0.000612302 0)
(-0.0019959 -0.000583904 0)
(-0.0016977 -0.000551307 0)
(-0.00141661 -0.000514145 0)
(-0.00115503 -0.000472017 0)
(-0.000915302 -0.00042474 0)
(-0.000700007 -0.000372136 0)
(-0.000511381 -0.000314594 0)
(-0.000351695 -0.000252589 0)
(-0.000222298 -0.000187896 0)
(-0.000124115 -0.000122504 0)
(-5.62354e-05 -6.12271e-05 0)
(-1.64827e-05 -9.1285e-06 0)
(2.37796e-07 2.29356e-05 0)
(1.60267e-06 2.4749e-05 0)
(-1.17387e-05 5.917e-05 0)
(-8.27187e-05 0.000210793 0)
(-0.000222224 0.000361836 0)
(-0.00040966 0.000503555 0)
(-0.000647141 0.000624795 0)
(-0.000920586 0.000726207 0)
(-0.00122805 0.000806574 0)
(-0.0015598 0.000869314 0)
(-0.00191284 0.000916223 0)
(-0.00228062 0.00095066 0)
(-0.00266048 0.000974759 0)
(-0.00304826 0.000991034 0)
(-0.00344203 0.00100115 0)
(-0.00383929 0.00100676 0)
(-0.0042388 0.00100897 0)
(-0.00463911 0.00100876 0)
(-0.00503948 0.00100678 0)
(-0.0054391 0.00100356 0)
(-0.00583755 0.000999424 0)
(-0.00623436 0.000994635 0)
(-0.00662926 0.000989328 0)
(-0.00702196 0.000983593 0)
(-0.00741224 0.00097746 0)
(-0.00779989 0.000970934 0)
(-0.00818471 0.000963992 0)
(-0.00856647 0.000956599 0)
(-0.00894495 0.000948707 0)
(-0.00931992 0.000940264 0)
(-0.00969113 0.000931215 0)
(-0.0100583 0.000921501 0)
(-0.0104211 0.000911065 0)
(-0.0107793 0.000899847 0)
(-0.0111325 0.000887791 0)
(-0.0114803 0.000874838 0)
(-0.0118225 0.00086093 0)
(-0.0121585 0.000846012 0)
(-0.0124881 0.000830026 0)
(-0.0128106 0.000812919 0)
(-0.0131258 0.000794636 0)
(-0.0134331 0.000775125 0)
(-0.013732 0.000754338 0)
(-0.014022 0.000732225 0)
(-0.0143027 0.000708742 0)
(-0.0145734 0.000683848 0)
(-0.0148336 0.000657505 0)
(-0.0150828 0.000629681 0)
(-0.0153204 0.000600348 0)
(-0.0155458 0.000569484 0)
(-0.0157584 0.000537074 0)
(-0.0159578 0.00050311 0)
(-0.0161432 0.000467592 0)
(-0.0163141 0.000430528 0)
(-0.01647 0.000391936 0)
(-0.0166103 0.000351844 0)
(-0.0167345 0.000310288 0)
(-0.016842 0.000267318 0)
(-0.0169323 0.000222992 0)
(-0.0170051 0.000177381 0)
(-0.0170598 0.000130568 0)
(-0.0170961 8.26466e-05 0)
(-0.0171136 3.37218e-05 0)
(-0.0171119 -1.60894e-05 0)
(-0.0170909 -6.66592e-05 0)
(-0.0170503 -0.00011785 0)
(-0.0169899 -0.000169512 0)
(-0.0169096 -0.000221491 0)
(-0.0168094 -0.00027362 0)
(-0.0166892 -0.000325729 0)
(-0.0165493 -0.00037764 0)
(-0.0163896 -0.000429171 0)
(-0.0162105 -0.000480139 0)
(-0.0160122 -0.000530358 0)
(-0.015795 -0.000579645 0)
(-0.0155593 -0.000627817 0)
(-0.0153057 -0.000674698 0)
(-0.0150346 -0.000720114 0)
(-0.0147466 -0.000763903 0)
(-0.0144424 -0.000805908 0)
(-0.0141226 -0.000845987 0)
(-0.0137881 -0.000884007 0)
(-0.0134396 -0.000919851 0)
(-0.0130779 -0.000953414 0)
(-0.0127039 -0.000984607 0)
(-0.0123184 -0.00101336 0)
(-0.0119224 -0.00103961 0)
(-0.0115168 -0.00106332 0)
(-0.0111025 -0.00108446 0)
(-0.0106804 -0.00110301 0)
(-0.0102516 -0.00111898 0)
(-0.00981686 -0.00113237 0)
(-0.00937724 -0.00114319 0)
(-0.00893363 -0.00115146 0)
(-0.00848698 -0.00115719 0)
(-0.00803821 -0.00116039 0)
(-0.00758826 -0.00116105 0)
(-0.00713807 -0.00115916 0)
(-0.00668862 -0.00115466 0)
(-0.0062409 -0.00114748 0)
(-0.00579593 -0.00113748 0)
(-0.00535484 -0.00112451 0)
(-0.00491877 -0.00110833 0)
(-0.00448902 -0.00108867 0)
(-0.00406696 -0.00106517 0)
(-0.00365415 -0.00103743 0)
(-0.00325226 -0.00100495 0)
(-0.00286321 -0.000967206 0)
(-0.00248903 -0.000923623 0)
(-0.00213205 -0.000873579 0)
(-0.00179467 -0.000816538 0)
(-0.00147962 -0.000751948 0)
(-0.00118949 -0.000679568 0)
(-0.000927209 -0.000599239 0)
(-0.00069517 -0.000511574 0)
(-0.000496007 -0.000417439 0)
(-0.000331019 -0.000319392 0)
(-0.000201645 -0.000220452 0)
(-0.000106666 -0.000127099 0)
(-4.50572e-05 -4.62625e-05 0)
(-1.1192e-05 8.46041e-06 0)
(-3.49963e-07 2.41669e-05 0)
(-1.48873e-05 0.000103601 0)
(-0.000102344 0.000328563 0)
(-0.000271 0.000541849 0)
(-0.000493588 0.000736176 0)
(-0.000772192 0.000901761 0)
(-0.00108969 0.0010399 0)
(-0.00144439 0.00115017 0)
(-0.00182527 0.00123674 0)
(-0.00222946 0.00130223 0)
(-0.00264979 0.00135078 0)
(-0.00308358 0.0013853 0)
(-0.00352627 0.00140899 0)
(-0.00397585 0.00142412 0)
(-0.00442951 0.00143286 0)
(-0.00488591 0.00143673 0)
(-0.00534339 0.00143706 0)
(-0.0058011 0.00143475 0)
(-0.0062581 0.00143056 0)
(-0.00671385 0.00142494 0)
(-0.00716779 0.00141828 0)
(-0.00761958 0.00141077 0)
(-0.00806883 0.00140255 0)
(-0.00851529 0.00139369 0)
(-0.00895866 0.0013842 0)
(-0.00939869 0.00137405 0)
(-0.0098351 0.0013632 0)
(-0.0102676 0.00135161 0)
(-0.010696 0.00133918 0)
(-0.0111198 0.00132587 0)
(-0.0115388 0.00131158 0)
(-0.0119527 0.00129624 0)
(-0.0123611 0.00127976 0)
(-0.0127635 0.00126208 0)
(-0.0131596 0.0012431 0)
(-0.0135489 0.00122276 0)
(-0.013931 0.00120097 0)
(-0.0143055 0.00117766 0)
(-0.0146717 0.00115276 0)
(-0.0150292 0.00112618 0)
(-0.0153774 0.00109786 0)
(-0.0157159 0.00106774 0)
(-0.016044 0.00103574 0)
(-0.0163611 0.00100181 0)
(-0.0166666 0.0009659 0)
(-0.0169599 0.000927952 0)
(-0.0172405 0.000887928 0)
(-0.0175075 0.000845792 0)
(-0.0177605 0.000801519 0)
(-0.0179988 0.000755092 0)
(-0.0182217 0.000706503 0)
(-0.0184286 0.000655758 0)
(-0.0186189 0.000602872 0)
(-0.0187919 0.000547875 0)
(-0.018947 0.00049081 0)
(-0.0190837 0.000431733 0)
(-0.0192014 0.000370716 0)
(-0.0192996 0.000307846 0)
(-0.0193778 0.000243226 0)
(-0.0194354 0.000176973 0)
(-0.0194722 0.000109224 0)
(-0.0194876 4.01255e-05 0)
(-0.0194814 -3.01553e-05 0)
(-0.0194534 -0.000101439 0)
(-0.0194032 -0.000173533 0)
(-0.0193307 -0.000246229 0)
(-0.0192359 -0.000319309 0)
(-0.0191187 -0.000392544 0)
(-0.0189792 -0.000465696 0)
(-0.0188174 -0.000538521 0)
(-0.0186336 -0.000610769 0)
(-0.018428 -0.000682186 0)
(-0.018201 -0.000752519 0)
(-0.0179529 -0.000821515 0)
(-0.0176842 -0.000888927 0)
(-0.0173955 -0.000954511 0)
(-0.0170873 -0.00101803 0)
(-0.0167604 -0.00107927 0)
(-0.0164154 -0.00113802 0)
(-0.0160532 -0.00119408 0)
(-0.0156746 -0.00124727 0)
(-0.0152804 -0.00129743 0)
(-0.0148716 -0.00134443 0)
(-0.0144491 -0.00138815 0)
(-0.0140139 -0.00142848 0)
(-0.013567 -0.00146536 0)
(-0.0131094 -0.00149872 0)
(-0.0126422 -0.00152852 0)
(-0.0121664 -0.00155476 0)
(-0.011683 -0.00157743 0)
(-0.011193 -0.00159652 0)
(-0.0106975 -0.00161207 0)
(-0.0101976 -0.00162409 0)
(-0.00969423 -0.00163259 0)
(-0.00918842 -0.00163758 0)
(-0.00868123 -0.00163905 0)
(-0.0081737 -0.00163696 0)
(-0.00766688 -0.00163124 0)
(-0.00716189 -0.00162176 0)
(-0.00665987 -0.00160835 0)
(-0.00616204 -0.00159077 0)
(-0.00566969 -0.0015687 0)
(-0.00518424 -0.00154175 0)
(-0.00470722 -0.00150943 0)
(-0.00424034 -0.00147116 0)
(-0.00378545 -0.00142629 0)
(-0.00334463 -0.00137407 0)
(-0.00292012 -0.00131375 0)
(-0.00251445 -0.0012445 0)
(-0.00213019 -0.0011656 0)
(-0.0017703 -0.00107637 0)
(-0.00143753 -0.000976504 0)
(-0.00113506 -0.000865901 0)
(-0.00086533 -0.000745398 0)
(-0.00063131 -0.000616285 0)
(-0.000434223 -0.000481842 0)
(-0.000276109 -0.000346104 0)
(-0.000155547 -0.000216935 0)
(-7.29094e-05 -0.000102976 0)
(-2.22827e-05 -1.97837e-05 0)
(-2.18085e-06 1.75803e-05 0)
(-1.73284e-05 0.000157298 0)
(-0.000118679 0.000468659 0)
(-0.000312701 0.00075334 0)
(-0.000566387 0.00100654 0)
(-0.000881623 0.00122092 0)
(-0.00123838 0.00139899 0)
(-0.00163501 0.00154164 0)
(-0.0020592 0.00165397 0)
(-0.00250823 0.00173962 0)
(-0.00297431 0.00180358 0)
(-0.00345484 0.00184958 0)
(-0.0039449 0.00188153 0)
(-0.00444248 0.00190233 0)
(-0.00494456 0.00191468 0)
(-0.00544972 0.00192054 0)
(-0.00595616 0.0019216 0)
(-0.00646296 0.00191905 0)
(-0.00696904 0.00191384 0)
(-0.0074738 0.00190661 0)
(-0.0079766 0.00189785 0)
(-0.00847702 0.00188785 0)
(-0.00897461 0.0018768 0)
(-0.00946905 0.00186479 0)
(-0.00996 0.00185184 0)
(-0.0104471 0.00183796 0)
(-0.0109301 0.00182308 0)
(-0.0114087 0.00180713 0)
(-0.0118825 0.00179004 0)
(-0.0123511 0.00177172 0)
(-0.0128142 0.00175205 0)
(-0.0132713 0.00173096 0)
(-0.0137221 0.00170832 0)
(-0.0141662 0.00168405 0)
(-0.014603 0.00165803 0)
(-0.0150321 0.00163018 0)
(-0.0154529 0.00160038 0)
(-0.015865 0.00156854 0)
(-0.0162677 0.00153457 0)
(-0.0166606 0.00149837 0)
(-0.0170429 0.00145985 0)
(-0.0174142 0.00141893 0)
(-0.0177737 0.00137552 0)
(-0.0181208 0.00132955 0)
(-0.0184549 0.00128096 0)
(-0.0187753 0.00122968 0)
(-0.0190813 0.00117566 0)
(-0.0193723 0.00111886 0)
(-0.0196474 0.00105926 0)
(-0.0199061 0.000996831 0)
(-0.0201476 0.000931573 0)
(-0.0203713 0.000863499 0)
(-0.0205765 0.000792635 0)
(-0.0207625 0.000719026 0)
(-0.0209286 0.000642732 0)
(-0.0210744 0.000563834 0)
(-0.0211991 0.000482431 0)
(-0.0213022 0.000398644 0)
(-0.0213833 0.000312611 0)
(-0.0214417 0.000224493 0)
(-0.0214771 0.000134469 0)
(-0.0214892 4.274e-05 0)
(-0.0214774 -5.04747e-05 0)
(-0.0214417 -0.000144937 0)
(-0.0213818 -0.00024039 0)
(-0.0212975 -0.000336563 0)
(-0.0211888 -0.000433167 0)
(-0.0210557 -0.000529905 0)
(-0.0208982 -0.000626464 0)
(-0.0207165 -0.000722526 0)
(-0.0205109 -0.000817765 0)
(-0.0202816 -0.000911855 0)
(-0.020029 -0.00100447 0)
(-0.0197537 -0.00109527 0)
(-0.019456 -0.00118395 0)
(-0.0191366 -0.0012702 0)
(-0.0187963 -0.0013537 0)
(-0.0184357 -0.00143419 0)
(-0.0180556 -0.00151138 0)
(-0.0176569 -0.00158503 0)
(-0.0172406 -0.00165492 0)
(-0.0168075 -0.00172083 0)
(-0.0163587 -0.00178261 0)
(-0.0158952 -0.00184008 0)
(-0.015418 -0.00189314 0)
(-0.0149283 -0.00194168 0)
(-0.0144272 -0.00198564 0)
(-0.0139157 -0.00202496 0)
(-0.013395 -0.00205964 0)
(-0.0128662 -0.00208966 0)
(-0.0123304 -0.00211503 0)
(-0.0117887 -0.00213578 0)
(-0.0112422 -0.00215192 0)
(-0.0106921 -0.00216348 0)
(-0.0101394 -0.00217046 0)
(-0.00958518 -0.00217283 0)
(-0.00903065 -0.00217054 0)
(-0.00847692 -0.0021635 0)
(-0.00792517 -0.00215153 0)
(-0.00737662 -0.0021344 0)
(-0.00683258 -0.00211179 0)
(-0.00629445 -0.00208328 0)
(-0.00576372 -0.00204836 0)
(-0.00524204 -0.00200639 0)
(-0.00473122 -0.00195663 0)
(-0.00423321 -0.00189823 0)
(-0.00375025 -0.00183025 0)
(-0.00328466 -0.00175171 0)
(-0.00283913 -0.00166159 0)
(-0.00241633 -0.00155898 0)
(-0.00201939 -0.00144308 0)
(-0.00165112 -0.00131351 0)
(-0.00131491 -0.00117025 0)
(-0.00101322 -0.00101435 0)
(-0.000749326 -0.00084752 0)
(-0.000524421 -0.000673701 0)
(-0.000341176 -0.000497908 0)
(-0.000198087 -0.00032916 0)
(-9.69305e-05 -0.000177659 0)
(-3.16499e-05 -6.03282e-05 0)
(-3.63967e-06 5.97399e-06 0)
(-1.94042e-05 0.000218082 0)
(-0.000132702 0.000626814 0)
(-0.000348691 0.00099065 0)
(-0.00062961 0.00130792 0)
(-0.000977077 0.00157454 0)
(-0.00136843 0.00179478 0)
(-0.00180196 0.00197136 0)
(-0.00226415 0.00211058 0)
(-0.00275234 0.00221725 0)
(-0.00325819 0.00229732 0)
(-0.00377916 0.00235538 0)
(-0.00431009 0.00239607 0)
(-0.00484894 0.00242293 0)
(-0.00539255 0.00243919 0)
(-0.00593948 0.00244726 0)
(-0.0064878 0.00244917 0)
(-0.00703655 0.00244641 0)
(-0.00758455 0.00244016 0)
(-0.00813116 0.00243121 0)
(-0.00867565 0.00242019 0)
(-0.00921755 0.00240746 0)
(-0.00975637 0.00239327 0)
(-0.0102917 0.00237776 0)
(-0.0108232 0.00236097 0)
(-0.0113504 0.00234289 0)
(-0.0118731 0.00232348 0)
(-0.0123908 0.00230265 0)
(-0.0129031 0.0022803 0)
(-0.0134097 0.00225632 0)
(-0.0139101 0.0022306 0)
(-0.0144039 0.00220302 0)
(-0.0148906 0.00217345 0)
(-0.0153698 0.00214177 0)
(-0.0158409 0.00210785 0)
(-0.0163034 0.00207156 0)
(-0.0167567 0.00203279 0)
(-0.0172003 0.00199142 0)
(-0.0176336 0.00194732 0)
(-0.0180559 0.00190039 0)
(-0.0184666 0.00185051 0)
(-0.018865 0.00179758 0)
(-0.0192505 0.0017415 0)
(-0.0196224 0.00168219 0)
(-0.0199799 0.00161956 0)
(-0.0203223 0.00155355 0)
(-0.020649 0.00148409 0)
(-0.0209591 0.00141113 0)
(-0.021252 0.00133466 0)
(-0.0215269 0.00125465 0)
(-0.0217831 0.00117111 0)
(-0.0220198 0.00108405 0)
(-0.0222364 0.000993519 0)
(-0.0224321 0.000899575 0)
(-0.0226063 0.000802304 0)
(-0.0227583 0.000701812 0)
(-0.0228876 0.00059823 0)
(-0.0229935 0.000491716 0)
(-0.0230755 0.000382448 0)
(-0.0231331 0.000270634 0)
(-0.0231659 0.000156503 0)
(-0.0231736 4.03112e-05 0)
(-0.0231556 -7.76624e-05 0)
(-0.0231119 -0.000197116 0)
(-0.0230422 -0.000317727 0)
(-0.0229464 -0.000439153 0)
(-0.0228244 -0.000561032 0)
(-0.0226763 -0.000682991 0)
(-0.0225022 -0.00080464 0)
(-0.0223023 -0.000925582 0)
(-0.0220768 -0.00104541 0)
(-0.0218261 -0.00116372 0)
(-0.0215506 -0.00128011 0)
(-0.0212509 -0.00139417 0)
(-0.0209275 -0.0015055 0)
(-0.0205811 -0.00161372 0)
(-0.0202124 -0.00171846 0)
(-0.0198223 -0.00181938 0)
(-0.0194117 -0.00191613 0)
(-0.0189814 -0.00200843 0)
(-0.0185324 -0.00209598 0)
(-0.0180658 -0.00217856 0)
(-0.0175827 -0.00225593 0)
(-0.0170841 -0.00232793 0)
(-0.0165712 -0.0023944 0)
(-0.0160452 -0.00245522 0)
(-0.0155071 -0.00251032 0)
(-0.0149583 -0.00255965 0)
(-0.0143999 -0.00260317 0)
(-0.0138331 -0.00264089 0)
(-0.013259 -0.00267282 0)
(-0.0126788 -0.00269899 0)
(-0.0120938 -0.00271942 0)
(-0.011505 -0.00273413 0)
(-0.0109136 -0.00274313 0)
(-0.0103208 -0.00274638 0)
(-0.0097278 -0.00274382 0)
(-0.00913576 -0.00273531 0)
(-0.00854594 -0.00272064 0)
(-0.00795962 -0.00269951 0)
(-0.00737818 -0.00267154 0)
(-0.00680305 -0.00263619 0)
(-0.00623582 -0.00259282 0)
(-0.00567818 -0.00254065 0)
(-0.00513204 -0.00247876 0)
(-0.0045994 -0.00240611 0)
(-0.00408258 -0.00232156 0)
(-0.00358398 -0.00222392 0)
(-0.00310636 -0.00211196 0)
(-0.00265245 -0.0019846 0)
(-0.00222548 -0.00184089 0)
(-0.00182831 -0.00168042 0)
(-0.00146446 -0.00150321 0)
(-0.00113641 -0.00131048 0)
(-0.000847721 -0.00110438 0)
(-0.000599577 -0.000889358 0)
(-0.000395252 -0.000671334 0)
(-0.000233243 -0.000460236 0)
(-0.000116588 -0.000267633 0)
(-3.91849e-05 -0.000111374 0)
(-4.7572e-06 -9.83924e-06 0)
(-2.10569e-05 0.000285325 0)
(-0.000144341 0.000801292 0)
(-0.000379048 0.00125152 0)
(-0.000683485 0.00163802 0)
(-0.00105902 0.00196044 0)
(-0.00148065 0.00222528 0)
(-0.00194654 0.00243745 0)
(-0.00244201 0.00260469 0)
(-0.0029644 0.00273322 0)
(-0.00350488 0.00283 0)
(-0.00406093 0.00290059 0)
(-0.00462715 0.00295038 0)
(-0.00520156 0.00298357 0)
(-0.00578085 0.00300393 0)
(-0.00636357 0.00301433 0)
(-0.00694772 0.00301716 0)
(-0.00753231 0.00301419 0)
(-0.00811609 0.00300682 0)
(-0.0086984 0.00299604 0)
(-0.00927842 0.00298256 0)
(-0.00985567 0.00296686 0)
(-0.0104296 0.00294926 0)
(-0.0109997 0.00292991 0)
(-0.0115657 0.00290889 0)
(-0.0121271 0.00288619 0)
(-0.0126834 0.00286176 0)
(-0.0132343 0.00283552 0)
(-0.0137794 0.00280735 0)
(-0.0143182 0.00277712 0)
(-0.0148502 0.0027447 0)
(-0.015375 0.00270994 0)
(-0.015892 0.0026727 0)
(-0.0164009 0.00263283 0)
(-0.0169009 0.00259017 0)
(-0.0173915 0.00254459 0)
(-0.0178721 0.00249594 0)
(-0.0183422 0.00244406 0)
(-0.018801 0.00238883 0)
(-0.0192479 0.00233011 0)
(-0.0196822 0.00226777 0)
(-0.0201032 0.00220169 0)
(-0.0205103 0.00213175 0)
(-0.0209026 0.00205785 0)
(-0.0212793 0.0019799 0)
(-0.0216399 0.00189782 0)
(-0.0219834 0.00181154 0)
(-0.0223091 0.00172101 0)
(-0.0226163 0.00162621 0)
(-0.0229041 0.00152712 0)
(-0.0231719 0.00142375 0)
(-0.0234187 0.00131613 0)
(-0.023644 0.00120432 0)
(-0.023847 0.00108841 0)
(-0.0240271 0.000968493 0)
(-0.0241834 0.000844717 0)
(-0.0243154 0.000717247 0)
(-0.0244226 0.000586278 0)
(-0.0245043 0.000452036 0)
(-0.0245601 0.000314778 0)
(-0.0245895 0.000174788 0)
(-0.0245922 3.23832e-05 0)
(-0.0245678 -0.000112095 0)
(-0.024516 -0.000258275 0)
(-0.0244367 -0.000405764 0)
(-0.0243299 -0.000554142 0)
(-0.0241954 -0.000702972 0)
(-0.0240333 -0.000851796 0)
(-0.0238437 -0.00100015 0)
(-0.023627 -0.00114754 0)
(-0.0233833 -0.00129349 0)
(-0.0231132 -0.0014375 0)
(-0.022817 -0.00157908 0)
(-0.0224954 -0.00171775 0)
(-0.0221489 -0.00185304 0)
(-0.0217784 -0.00198448 0)
(-0.0213846 -0.00211164 0)
(-0.0209684 -0.00223409 0)
(-0.0205307 -0.00235144 0)
(-0.0200726 -0.00246334 0)
(-0.019595 -0.00256945 0)
(-0.0190991 -0.00266949 0)
(-0.0185861 -0.0027632 0)
(-0.0180571 -0.00285037 0)
(-0.0175133 -0.00293083 0)
(-0.016956 -0.00300444 0)
(-0.0163863 -0.00307112 0)
(-0.0158056 -0.0031308 0)
(-0.0152151 -0.00318346 0)
(-0.014616 -0.0032291 0)
(-0.0140095 -0.00326774 0)
(-0.013397 -0.00329942 0)
(-0.0127796 -0.00332416 0)