/*--------------------------------*- C++ -*----------------------------------*\
| =========                 |                                                 |
| \\      /  F ield         | OpenFOAM: The Open Source CFD Toolbox           |
|  \\    /   O peration     | Version:  2406                                  |
|   \\  /    A nd           | Website:  www.openfoam.com                      |
|    \\/     M anipulation  |                                                 |
\*---------------------------------------------------------------------------*/
FoamFile
{
    version     2.0;
    format      ascii;
    arch        "LSB;label=32;scalar=64";
    class       volVectorField;
    location    "45.8";
    object      U;
}
// * * * * * * * * * * * * * * * * * * * * * * * * * * * * * * * * * * * * * //

dimensions      [0 1 -1 0 0 0 0];

internalField   nonuniform List<vector> 
3600
(
(3.51456e-06 -1.34248e-05 0)
(0.000494206 -0.000260329 0)
(0.00151963 -0.000388446 0)
(0.00265317 -0.000405886 0)
(0.00372481 -0.000327188 0)
(0.00449757 -0.000221101 0)
(0.00499627 -0.000121988 0)
(0.00522677 -5.86606e-05 0)
(0.00530467 -3.03625e-05 0)
(0.00527971 -2.69371e-05 0)
(0.00519785 -2.85363e-05 0)
(0.00502973 -1.8919e-05 0)
(0.00472451 1.31859e-05 0)
(0.00419651 7.17844e-05 0)
(0.00335999 0.000157805 0)
(0.00212228 0.000271723 0)
(0.000396841 0.000415303 0)
(-0.00190004 0.00058765 0)
(-0.0048409 0.00078087 0)
(-0.00848454 0.000983443 0)
(-0.0128626 0.00119098 0)
(-0.0179637 0.00141011 0)
(-0.0237144 0.0016474 0)
(-0.0299665 0.00189173 0)
(-0.0364896 0.00210634 0)
(-0.0429762 0.00223715 0)
(-0.0490602 0.00222995 0)
(-0.0543464 0.00204546 0)
(-0.0584441 0.0016668 0)
(-0.0609991 0.00110009 0)
(-0.0617201 0.000371627 0)
(-0.0604003 -0.00047583 0)
(-0.056936 -0.0013864 0)
(-0.0513411 -0.0022941 0)
(-0.0437602 -0.0031262 0)
(-0.0344753 -0.00380764 0)
(-0.0239065 -0.00426728 0)
(-0.0125986 -0.0044463 0)
(-0.00119374 -0.00430807 0)
(0.00961718 -0.00384824 0)
(0.0191576 -0.00310227 0)
(0.0268445 -0.00214766 0)
(0.0322615 -0.00109696 0)
(0.0352249 -8.15231e-05 0)
(0.0358066 0.00077477 0)
(0.0343271 0.00138261 0)
(0.0312838 0.00171011 0)
(0.0272677 0.00178422 0)
(0.0228414 0.00167546 0)
(0.018474 0.00146418 0)
(0.0144712 0.00121842 0)
(0.0110099 0.000978793 0)
(0.00812328 0.000768429 0)
(0.00580183 0.000592717 0)
(0.0039481 0.000456796 0)
(0.00251156 0.000349466 0)
(0.00137591 0.000266005 0)
(0.000564601 0.000167048 0)
(4.30238e-05 5.41131e-05 0)
(-7.52898e-05 -7.97779e-05 0)
(0.000221892 -0.000474713 0)
(0.0015033 -0.0015543 0)
(0.00365166 -0.00208139 0)
(0.00589963 -0.00210581 0)
(0.00796296 -0.00171808 0)
(0.0094262 -0.00116629 0)
(0.0102839 -0.00061459 0)
(0.0105088 -0.000179379 0)
(0.0102415 0.000127762 0)
(0.00952376 0.000355327 0)
(0.00837632 0.000590832 0)
(0.00669241 0.000916862 0)
(0.00431533 0.00139158 0)
(0.00102701 0.00204232 0)
(-0.00339265 0.00287489 0)
(-0.0091614 0.00388058 0)
(-0.01646 0.0050384 0)
(-0.0254164 0.00631674 0)
(-0.0360589 0.00767567 0)
(-0.0482705 0.00905811 0)
(-0.0617524 0.0103718 0)
(-0.0760316 0.0114851 0)
(-0.090503 0.0122486 0)
(-0.104501 0.0125264 0)
(-0.117372 0.0122194 0)
(-0.128533 0.0112761 0)
(-0.137503 0.0096938 0)
(-0.143914 0.00751241 0)
(-0.147498 0.00480702 0)
(-0.148086 0.00167975 0)
(-0.14559 -0.00174573 0)
(-0.140001 -0.00532732 0)
(-0.131391 -0.00890552 0)
(-0.11992 -0.0123043 0)
(-0.105842 -0.0153338 0)
(-0.0895195 -0.0177965 0)
(-0.0714292 -0.0195003 0)
(-0.0521668 -0.0202768 0)
(-0.0324347 -0.0200063 0)
(-0.0130159 -0.0186453 0)
(0.0052686 -0.0162496 0)
(0.0216228 -0.0129879 0)
(0.0353408 -0.00913589 0)
(0.0458832 -0.00504974 0)
(0.052926 -0.00111714 0)
(0.0564136 0.00230097 0)
(0.0565549 0.00493432 0)
(0.0538302 0.00664395 0)
(0.0489085 0.00744465 0)
(0.0425914 0.00747663 0)
(0.0356472 0.00696211 0)
(0.0287582 0.00613021 0)
(0.02237 0.00518203 0)
(0.0167797 0.00424929 0)
(0.0120328 0.00342103 0)
(0.00816236 0.00270676 0)
(0.00501798 0.0020996 0)
(0.00264799 0.0014788 0)
(0.000931502 0.00082396 0)
(0.000100911 6.82082e-05 0)
(0.000358924 -0.00145482 0)
(0.00212569 -0.00372946 0)
(0.0049086 -0.00476209 0)
(0.00764159 -0.00467072 0)
(0.00998644 -0.00372821 0)
(0.0114427 -0.00239707 0)
(0.0119977 -0.00103087 0)
(0.0115894 0.000155104 0)
(0.0103206 0.00113624 0)
(0.00815748 0.00202976 0)
(0.00501993 0.00302466 0)
(0.000677591 0.00430325 0)
(-0.0051498 0.00598761 0)
(-0.0127876 0.00812923 0)
(-0.022525 0.0107184 0)
(-0.0345837 0.013698 0)
(-0.0490312 0.0169627 0)
(-0.0657078 0.0203412 0)
(-0.0841704 0.0235755 0)
(-0.103728 0.0263423 0)
(-0.123544 0.0283227 0)
(-0.142771 0.0292728 0)
(-0.16066 0.0290586 0)
(-0.17662 0.027651 0)
(-0.190218 0.0251 0)
(-0.201168 0.0215055 0)
(-0.209289 0.0169956 0)
(-0.214479 0.0117135 0)
(-0.216683 0.00581142 0)
(-0.215876 -0.000549497 0)
(-0.212055 -0.00719611 0)
(-0.205234 -0.0139375 0)
(-0.195458 -0.0205585 0)
(-0.182809 -0.0268146 0)
(-0.167431 -0.0324306 0)
(-0.14955 -0.037107 0)
(-0.129498 -0.0405357 0)
(-0.107729 -0.0424274 0)
(-0.0848259 -0.0425511 0)
(-0.0614943 -0.0407784 0)
(-0.0385303 -0.0371271 0)
(-0.0167675 -0.0317897 0)
(0.00298727 -0.0251352 0)
(0.0200305 -0.0176782 0)
(0.0338134 -0.0100172 0)
(0.0439941 -0.00275869 0)
(0.0504385 0.0035626 0)
(0.0532558 0.00854273 0)
(0.05277 0.0119609 0)
(0.049552 0.0137947 0)
(0.0443141 0.0142229 0)
(0.0378864 0.0135642 0)
(0.0309976 0.0122113 0)
(0.0242966 0.0105249 0)
(0.0181291 0.00879565 0)
(0.0127808 0.00716747 0)
(0.00821866 0.00568571 0)
(0.00461444 0.00419919 0)
(0.00182218 0.00261161 0)
(0.000292308 0.000749315 0)
(0.000449995 -0.00265892 0)
(0.00250017 -0.00622953 0)
(0.00552692 -0.00764602 0)
(0.00822371 -0.00719067 0)
(0.0102302 -0.00542715 0)
(0.0110265 -0.00304928 0)
(0.0106166 -0.0005923 0)
(0.00889849 0.00167184 0)
(0.00588947 0.00374764 0)
(0.00141512 0.00585702 0)
(-0.00476613 0.00830403 0)
(-0.0130333 0.0113577 0)
(-0.0237601 0.0151638 0)
(-0.0372734 0.0197337 0)
(-0.0537188 0.0249486 0)
(-0.0729721 0.0305564 0)
(-0.0945438 0.0361523 0)
(-0.117618 0.0412176 0)
(-0.141194 0.0452345 0)
(-0.164292 0.0478106 0)
(-0.186097 0.0487362 0)
(-0.206023 0.0479708 0)
(-0.223691 0.0455925 0)
(-0.238887 0.0417468 0)
(-0.251503 0.0366066 0)
(-0.261495 0.0303489 0)
(-0.268851 0.0231435 0)
(-0.273567 0.0151504 0)
(-0.275633 0.00652363 0)
(-0.275029 -0.00258088 0)
(-0.27172 -0.0119948 0)
(-0.26566 -0.0215251 0)
(-0.256801 -0.0309411 0)
(-0.245107 -0.0399636 0)
(-0.230577 -0.048259 0)
(-0.213269 -0.0554415 0)
(-0.193332 -0.0610896 0)
(-0.171044 -0.0647786 0)
(-0.146836 -0.0661316 0)
(-0.121311 -0.0648842 0)
(-0.0952331 -0.0609538 0)
(-0.0694861 -0.0544926 0)
(-0.0449957 -0.0459073 0)
(-0.0226281 -0.0358254 0)
(-0.00309918 -0.0250151 0)
(0.0130963 -0.0142752 0)
(0.0256784 -0.00433527 0)
(0.0345769 0.00420912 0)
(0.03987 0.0109378 0)
(0.0418284 0.0156225 0)
(0.0408674 0.0182585 0)
(0.0376211 0.019055 0)
(0.0327728 0.0184076 0)
(0.0271 0.0167945 0)
(0.021167 0.014687 0)
(0.0155345 0.0124193 0)
(0.0103725 0.0101587 0)
(0.006061 0.00780398 0)
(0.00251973 0.00515728 0)
(0.000447953 0.00187228 0)
(0.000507863 -0.00407736 0)
(0.00267163 -0.00896581 0)
(0.00560925 -0.0105433 0)
(0.00782715 -0.00937197 0)
(0.00895794 -0.00642444 0)
(0.00850701 -0.00264603 0)
(0.00649543 0.00126506 0)
(0.00276859 0.00504461 0)
(-0.00278492 0.00878508 0)
(-0.0105128 0.0128501 0)
(-0.0208169 0.0176451 0)
(-0.0341489 0.0234613 0)
(-0.0508025 0.0303521 0)
(-0.0708091 0.0381161 0)
(-0.093782 0.046289 0)
(-0.118915 0.0541978 0)
(-0.145106 0.0610953 0)
(-0.171221 0.0663527 0)
(-0.196305 0.0695773 0)
(-0.219684 0.0706245 0)
(-0.240942 0.069537 0)
(-0.25986 0.0664736 0)
(-0.276351 0.0616484 0)
(-0.290403 0.0552903 0)
(-0.302041 0.047618 0)
(-0.31131 0.0388289 0)
(-0.318255 0.0290964 0)
(-0.322911 0.0185734 0)
(-0.325297 0.00739977 0)
(-0.325405 -0.00428633 0)
(-0.323199 -0.0163351 0)
(-0.318608 -0.0285691 0)
(-0.311531 -0.0407656 0)
(-0.301836 -0.0526394 0)
(-0.289384 -0.0638292 0)
(-0.274042 -0.0738904 0)
(-0.255732 -0.0823042 0)
(-0.234472 -0.0885048 0)
(-0.210437 -0.0919354 0)
(-0.184016 -0.0921279 0)
(-0.155848 -0.0888042 0)
(-0.126826 -0.0819733 0)
(-0.0980358 -0.0719976 0)
(-0.0706321 -0.0595891 0)
(-0.0456731 -0.0457197 0)
(-0.0239528 -0.0314573 0)
(-0.00592657 -0.017791 0)
(0.00827938 -0.0055136 0)
(0.0187323 0.00481126 0)
(0.0256386 0.0128261 0)
(0.0292559 0.0183775 0)
(0.0300046 0.0215223 0)
(0.0283741 0.0225442 0)
(0.0250507 0.0219041 0)
(0.0206233 0.0201452 0)
(0.0157948 0.0177524 0)
(0.0109056 0.0150183 0)
(0.00654611 0.0119382 0)
(0.00277383 0.00820946 0)
(0.000501919 0.00329427 0)
(0.000551698 -0.00555543 0)
(0.00265925 -0.0115548 0)
(0.00513074 -0.0128946 0)
(0.00639268 -0.010553 0)
(0.00609999 -0.00601649 0)
(0.00382976 -0.000472344 0)
(-0.000407761 0.00528139 0)
(-0.00685187 0.0110787 0)
(-0.0157834 0.0171576 0)
(-0.0277048 0.0240136 0)
(-0.0430695 0.0320543 0)
(-0.0621676 0.0414116 0)
(-0.0848695 0.051801 0)
(-0.110557 0.0625563 0)
(-0.138152 0.0727558 0)
(-0.166381 0.081476 0)
(-0.194059 0.0880163 0)
(-0.220295 0.0920025 0)
(-0.244511 0.0933486 0)
(-0.266392 0.0921711 0)
(-0.285802 0.0886983 0)
(-0.30272 0.0832078 0)
(-0.3172 0.0759834 0)
(-0.329337 0.0672924 0)
(-0.339253 0.0573717 0)
(-0.347081 0.0464235 0)
(-0.352952 0.0346145 0)
(-0.35698 0.0220808 0)
(-0.359257 0.0089352 0)
(-0.359834 -0.00472079 0)
(-0.358716 -0.0187825 0)
(-0.355851 -0.0331233 0)
(-0.35112 -0.0475734 0)
(-0.344336 -0.0618959 0)
(-0.335245 -0.0757627 0)
(-0.323537 -0.088735 0)
(-0.308877 -0.100254 0)
(-0.290958 -0.109653 0)
(-0.269569 -0.116197 0)
(-0.244697 -0.119164 0)
(-0.216626 -0.117962 0)
(-0.186019 -0.11228 0)
(-0.153946 -0.102226 0)
(-0.121812 -0.0884147 0)
(-0.091166 -0.0719395 0)
(-0.0634223 -0.0541991 0)
(-0.0395796 -0.0366168 0)
(-0.0200662 -0.0203648 0)
(-0.00483651 -0.00623393 0)
(0.00643902 0.00532817 0)
(0.0141205 0.0141181 0)
(0.0186129 0.020113 0)
(0.0202951 0.0234818 0)
(0.0197175 0.0245918 0)
(0.0173872 0.0239489 0)
(0.0140137 0.0220927 0)
(0.0100295 0.019384 0)
(0.00616634 0.0159025 0)
(0.00263894 0.0112497 0)
(0.000474415 0.00472815 0)
(0.000563067 -0.00705425 0)
(0.0023856 -0.0137824 0)
(0.00396512 -0.014359 0)
(0.00379165 -0.0103311 0)
(0.00156381 -0.00376503 0)
(-0.00304352 0.00396178 0)
(-0.010084 0.0120421 0)
(-0.0199043 0.0204893 0)
(-0.0329384 0.0296894 0)
(-0.0497033 0.0401588 0)
(-0.0704457 0.0520821 0)
(-0.0949546 0.0651505 0)
(-0.122418 0.0785221 0)
(-0.15158 0.0910747 0)
(-0.181038 0.101722 0)
(-0.209582 0.109695 0)
(-0.236337 0.114617 0)
(-0.260769 0.116443 0)
(-0.282597 0.11534 0)
(-0.301724 0.111597 0)
(-0.318171 0.105556 0)
(-0.332055 0.0975715 0)
(-0.343549 0.0879787 0)
(-0.35287 0.0770794 0)
(-0.360251 0.0651279 0)
(-0.365927 0.0523282 0)
(-0.370116 0.0388342 0)
(-0.37301 0.0247568 0)
(-0.374764 0.010172 0)
(-0.375486 -0.00486571 0)
(-0.375229 -0.0203091 0)
(-0.373984 -0.0360993 0)
(-0.371662 -0.0521448 0)
(-0.368086 -0.0682946 0)
(-0.362972 -0.0843092 0)
(-0.355927 -0.0998277 0)
(-0.346447 -0.114341 0)
(-0.333949 -0.127173 0)
(-0.31783 -0.137495 0)
(-0.297568 -0.144368 0)
(-0.27287 -0.146858 0)
(-0.243832 -0.144192 0)
(-0.211102 -0.135975 0)
(-0.175949 -0.122391 0)
(-0.140204 -0.104338 0)
(-0.105981 -0.0833773 0)
(-0.0752403 -0.0614553 0)
(-0.049304 -0.0404453 0)
(-0.0286249 -0.0217273 0)
(-0.0128952 -0.00604049 0)
(-0.00149417 0.00637325 0)
(0.00624288 0.0155362 0)
(0.0108234 0.0216218 0)
(0.0127865 0.0249474 0)
(0.0125843 0.0259513 0)
(0.010874 0.0251535 0)
(0.00811951 0.0229133 0)
(0.0051066 0.0193471 0)
(0.0021833 0.0139791 0)
(0.000377679 0.00600985 0)
(0.000519587 -0.00838284 0)
(0.00175529 -0.0152075 0)
(0.00195951 -0.0143803 0)
(-0.000125699 -0.00813369 0)
(-0.00476119 0.000894224 0)
(-0.0121644 0.011235 0)
(-0.0225108 0.0221745 0)
(-0.0362278 0.0339303 0)
(-0.0537853 0.0469268 0)
(-0.0754521 0.0614562 0)
(-0.100965 0.0771899 0)
(-0.129423 0.0932015 0)
(-0.159441 0.108181 0)
(-0.18952 0.120892 0)
(-0.218388 0.13046 0)
(-0.245145 0.136481 0)
(-0.26924 0.138917 0)
(-0.290393 0.13798 0)
(-0.308522 0.134024 0)
(-0.323699 0.127474 0)
(-0.336115 0.118775 0)
(-0.346039 0.108356 0)
(-0.353791 0.0965997 0)
(-0.359704 0.083826 0)
(-0.364105 0.0702868 0)
(-0.367291 0.0561664 0)
(-0.369525 0.0415871 0)
(-0.371025 0.0266205 0)
(-0.371969 0.0112983 0)
(-0.37249 -0.00437482 0)
(-0.372678 -0.0204085 0)
(-0.37257 -0.0368115 0)
(-0.372141 -0.0535747 0)
(-0.371286 -0.0706488 0)
(-0.369797 -0.0879158 0)
(-0.36733 -0.105153 0)
(-0.363383 -0.121992 0)
(-0.357281 -0.137874 0)
(-0.348186 -0.152021 0)
(-0.335165 -0.163432 0)
(-0.317314 -0.170933 0)
(-0.293954 -0.173307 0)
(-0.264889 -0.169511 0)
(-0.230659 -0.158966 0)
(-0.192715 -0.14187 0)
(-0.153376 -0.119403 0)
(-0.115479 -0.0936866 0)
(-0.0817053 -0.0673636 0)
(-0.0538418 -0.0428864 0)
(-0.0323459 -0.0218714 0)
(-0.0166223 -0.00493694 0)
(-0.00562158 0.00796355 0)
(0.00157475 0.0171537 0)
(0.00574138 0.0230384 0)
(0.00742846 0.0260601 0)
(0.00728628 0.0267072 0)
(0.00580484 0.0253004 0)
(0.00376334 0.0219438 0)
(0.00160333 0.0161134 0)
(0.000260272 0.00698205 0)
(0.000387585 -0.00935664 0)
(0.0006722 -0.0154464 0)
(-0.000983466 -0.0125369 0)
(-0.00539091 -0.00357913 0)
(-0.012811 0.00831869 0)
(-0.0233536 0.021719 0)
(-0.0373429 0.0360637 0)
(-0.0551703 0.0516854 0)
(-0.0771279 0.0688103 0)
(-0.102961 0.0872136 0)
(-0.131765 0.105897 0)
(-0.162084 0.123436 0)
(-0.192336 0.138398 0)
(-0.221154 0.14978 0)
(-0.247573 0.157091 0)
(-0.270993 0.160285 0)
(-0.291117 0.159602 0)
(-0.307884 0.155473 0)
(-0.321427 0.148421 0)
(-0.332025 0.139007 0)
(-0.340055 0.127764 0)
(-0.345939 0.115171 0)
(-0.350098 0.101618 0)
(-0.352926 0.0874081 0)
(-0.354764 0.0727562 0)
(-0.355901 0.0578008 0)
(-0.356568 0.0426171 0)
(-0.356952 0.0272335 0)
(-0.3572 0.011642 0)
(-0.357428 -0.00418785 0)
(-0.357727 -0.0203016 0)
(-0.358162 -0.0367489 0)
(-0.358768 -0.0535747 0)
(-0.359533 -0.0708046 0)
(-0.360378 -0.0884274 0)
(-0.361117 -0.106364 0)
(-0.361414 -0.12443 0)
(-0.360731 -0.142278 0)
(-0.358288 -0.159338 0)
(-0.353044 -0.174762 0)
(-0.343751 -0.187389 0)
(-0.329084 -0.195791 0)
(-0.307904 -0.198404 0)
(-0.279598 -0.193809 0)
(-0.244491 -0.18113 0)
(-0.204146 -0.160486 0)
(-0.161409 -0.133346 0)
(-0.119962 -0.102509 0)
(-0.0833858 -0.0715143 0)
(-0.0539898 -0.0435438 0)
(-0.0322138 -0.020445 0)
(-0.01701 -0.00261688 0)
(-0.00692222 0.0103983 0)
(-0.000651775 0.0192651 0)
(0.00269895 0.0246032 0)
(0.00391964 0.0269521 0)
(0.00358655 0.0266229 0)
(0.0024629 0.0236935 0)
(0.00105046 0.0176345 0)
(0.000153511 0.00765122 0)
(0.000138387 -0.00967512 0)
(-0.000919817 -0.014013 0)
(-0.00487309 -0.00836248 0)
(-0.0119148 0.00372235 0)
(-0.0223757 0.0188514 0)
(-0.0362402 0.035716 0)
(-0.0539431 0.0538872 0)
(-0.0756447 0.0735987 0)
(-0.101246 0.0946004 0)
(-0.129844 0.115986 0)
(-0.160031 0.136198 0)
(-0.190118 0.153639 0)
(-0.218656 0.167094 0)
(-0.24456 0.175953 0)
(-0.267175 0.180111 0)
(-0.286165 0.179839 0)
(-0.301501 0.175641 0)
(-0.313378 0.168162 0)
(-0.322179 0.158091 0)
(-0.328384 0.146088 0)
(-0.332516 0.132731 0)
(-0.335071 0.118488 0)
(-0.336491 0.103705 0)
(-0.337137 0.0886249 0)
(-0.337295 0.0733923 0)
(-0.337179 0.0580846 0)
(-0.336947 0.0427247 0)
(-0.336716 0.0273015 0)
(-0.336577 0.0117786 0)
(-0.336606 -0.0038937 0)
(-0.336872 -0.0197751 0)
(-0.337443 -0.035929 0)
(-0.338383 -0.0524209 0)
(-0.339744 -0.069312 0)
(-0.341557 -0.0866524 0)
(-0.343798 -0.104465 0)
(-0.346348 -0.12272 0)
(-0.348936 -0.14129 0)
(-0.351062 -0.159885 0)
(-0.351922 -0.177966 0)
(-0.35035 -0.194654 0)
(-0.344836 -0.208657 0)
(-0.333646 -0.218275 0)
(-0.315121 -0.221536 0)
(-0.288135 -0.21653 0)
(-0.252669 -0.20194 0)
(-0.210325 -0.17771 0)
(-0.164487 -0.145609 0)
(-0.11982 -0.109292 0)
(-0.0809266 -0.0734541 0)
(-0.0506699 -0.0421441 0)
(-0.0292676 -0.0173737 0)
(-0.015143 0.000885321 0)
(-0.00631752 0.013566 0)
(-0.00126016 0.0216856 0)
(0.00119279 0.026015 0)
(0.00183635 0.0269746 0)
(0.00147196 0.02466 0)
(0.000657409 0.0185946 0)
(8.69417e-05 0.00805878 0)
(-0.000245661 -0.0090468 0)
(-0.00300716 -0.0105307 0)
(-0.00957782 -0.00157706 0)
(-0.0194165 0.0139386 0)
(-0.0330004 0.0325789 0)
(-0.0501351 0.0531864 0)
(-0.0712689 0.0753313 0)
(-0.0961293 0.0988801 0)
(-0.124131 0.122929 0)
(-0.153808 0.145946 0)
(-0.183535 0.166113 0)
(-0.211679 0.181984 0)
(-0.237084 0.192738 0)
(-0.258963 0.198183 0)
(-0.276975 0.198583 0)
(-0.29108 0.194523 0)
(-0.301558 0.186771 0)
(-0.308872 0.176165 0)
(-0.313616 0.163503 0)
(-0.316394 0.149475 0)
(-0.317773 0.134624 0)
(-0.31822 0.119344 0)
(-0.318106 0.103891 0)
(-0.317695 0.0884154 0)
(-0.317169 0.0729845 0)
(-0.316642 0.0576147 0)
(-0.31619 0.0422865 0)
(-0.315857 0.0269632 0)
(-0.315682 0.0115963 0)
(-0.315698 -0.00386608 0)
(-0.31595 -0.0194792 0)
(-0.316489 -0.035299 0)
(-0.317383 -0.0513847 0)
(-0.318709 -0.0677978 0)
(-0.32055 -0.0846035 0)
(-0.32298 -0.101866 0)
(-0.326042 -0.119641 0)
(-0.329699 -0.137948 0)
(-0.333776 -0.156733 0)
(-0.337864 -0.175789 0)
(-0.341207 -0.194649 0)
(-0.342604 -0.212448 0)
(-0.340361 -0.227798 0)
(-0.332387 -0.238731 0)
(-0.316498 -0.242816 0)
(-0.290987 -0.23754 0)
(-0.255398 -0.221007 0)
(-0.211302 -0.192898 0)
(-0.162668 -0.155352 0)
(-0.115272 -0.113153 0)
(-0.0748594 -0.0724627 0)
(-0.0446762 -0.03829 0)
(-0.0244662 -0.0125131 0)
(-0.0119039 0.00550161 0)
(-0.00463497 0.0172711 0)
(-0.000847532 0.0240418 0)
(0.000675252 0.0265581 0)
(0.00089798 0.0250559 0)
(0.000474725 0.0191895 0)
(6.85714e-05 0.00833337 0)
(-0.000763316 -0.00715612 0)
(-0.00550836 -0.00467063 0)
(-0.0148668 0.00801438 0)
(-0.0275064 0.027144 0)
(-0.044104 0.0494584 0)
(-0.0641948 0.0738743 0)
(-0.0881254 0.0997676 0)
(-0.115069 0.126419 0)
(-0.144019 0.152277 0)
(-0.173159 0.175413 0)
(-0.200926 0.194072 0)
(-0.2259 0.207168 0)
(-0.247275 0.214337 0)
(-0.264573 0.215802 0)
(-0.277805 0.212201 0)
(-0.287253 0.204433 0)
(-0.293495 0.19349 0)
(-0.297188 0.180327 0)
(-0.299039 0.165761 0)
(-0.299649 0.15042 0)
(-0.299525 0.134742 0)
(-0.299022 0.119003 0)
(-0.29839 0.103346 0)
(-0.297769 0.0878294 0)
(-0.297239 0.072454 0)
(-0.296827 0.0571914 0)
(-0.296547 0.0419978 0)
(-0.296394 0.0268263 0)
(-0.296374 0.011629 0)
(-0.296495 -0.0036382 0)
(-0.296782 -0.0190186 0)
(-0.297273 -0.034553 0)
(-0.298025 -0.0502853 0)
(-0.29911 -0.066262 0)
(-0.300622 -0.0825388 0)
(-0.302664 -0.0991811 0)
(-0.305349 -0.116268 0)
(-0.308772 -0.133883 0)
(-0.312974 -0.152103 0)
(-0.317877 -0.170947 0)
(-0.323176 -0.190305 0)
(-0.328204 -0.209797 0)
(-0.331781 -0.2286 0)
(-0.332104 -0.245246 0)
(-0.326785 -0.257495 0)
(-0.313148 -0.262402 0)
(-0.288888 -0.256742 0)
(-0.253073 -0.237925 0)
(-0.207247 -0.205326 0)
(-0.156066 -0.161643 0)
(-0.10661 -0.113193 0)
(-0.0657762 -0.0680136 0)
(-0.0368668 -0.0318659 0)
(-0.0186459 -0.00612259 0)
(-0.00807977 0.0108308 0)
(-0.00248967 0.0209034 0)
(2.36489e-06 0.0254478 0)
(0.00071535 0.0250484 0)
(0.00049669 0.0195996 0)
(9.67934e-05 0.00858836 0)
(-0.00138481 -0.0037747 0)
(-0.00825537 0.00370483 0)
(-0.0203847 0.0203799 0)
(-0.0356473 0.0431578 0)
(-0.0549361 0.0691263 0)
(-0.0774154 0.0971215 0)
(-0.103251 0.126149 0)
(-0.131059 0.154816 0)
(-0.159585 0.181092 0)
(-0.186891 0.202936 0)
(-0.211663 0.218904 0)
(-0.232763 0.228362 0)
(-0.249762 0.231424 0)
(-0.262517 0.228735 0)
(-0.27141 0.221305 0)
(-0.277005 0.210291 0)
(-0.280092 0.196821 0)
(-0.281399 0.181855 0)
(-0.281617 0.166127 0)
(-0.281244 0.150131 0)
(-0.280656 0.134159 0)
(-0.280061 0.118356 0)
(-0.279584 0.102763 0)
(-0.279256 0.0873661 0)
(-0.279084 0.0721235 0)
(-0.27904 0.0569851 0)
(-0.279103 0.0419005 0)
(-0.279247 0.0268262 0)
(-0.279464 0.0117237 0)
(-0.27975 -0.00343838 0)
(-0.280121 -0.0186886 0)
(-0.280601 -0.0340515 0)
(-0.281234 -0.0495532 0)
(-0.282076 -0.065221 0)
(-0.283206 -0.081091 0)
(-0.284719 -0.0972103 0)
(-0.286734 -0.113646 0)
(-0.289387 -0.13049 0)
(-0.292818 -0.147859 0)
(-0.297136 -0.165884 0)
(-0.302352 -0.184669 0)
(-0.30827 -0.204201 0)
(-0.31432 -0.224202 0)
(-0.319361 -0.24389 0)
(-0.321518 -0.261709 0)
(-0.318144 -0.275114 0)
(-0.30611 -0.280569 0)
(-0.282539 -0.274038 0)
(-0.246058 -0.252136 0)
(-0.19829 -0.214016 0)
(-0.144801 -0.163275 0)
(-0.09421 -0.108458 0)
(-0.0544487 -0.0596966 0)
(-0.0281247 -0.0230986 0)
(-0.0126258 0.00138102 0)
(-0.00433291 0.0161952 0)
(-0.000503276 0.0235852 0)
(0.000761388 0.0247532 0)
(0.000655015 0.0199912 0)
(0.000156684 0.00893547 0)
(-0.0020622 0.00124048 0)
(-0.0110504 0.014598 0)
(-0.0257645 0.0353615 0)
(-0.0433193 0.0616838 0)
(-0.0648014 0.0910985 0)
(-0.0889288 0.122174 0)
(-0.115674 0.153444 0)
(-0.143187 0.182887 0)
(-0.170172 0.208247 0)
(-0.194747 0.227622 0)
(-0.21595 0.240031 0)
(-0.232952 0.245334 0)
(-0.245725 0.244139 0)
(-0.254458 0.237503 0)
(-0.259862 0.226756 0)
(-0.26268 0.213204 0)
(-0.263784 0.197991 0)
(-0.263848 0.181972 0)
(-0.26345 0.165723 0)
(-0.262927 0.149566 0)
(-0.262507 0.133648 0)
(-0.262262 0.117998 0)
(-0.262222 0.102587 0)
(-0.262347 0.087357 0)
(-0.262607 0.0722494 0)
(-0.262949 0.0572108 0)
(-0.263346 0.0421969 0)
(-0.263766 0.0271743 0)
(-0.264204 0.012116 0)
(-0.264653 -0.00299738 0)
(-0.265128 -0.0181827 0)
(-0.265644 -0.0334527 0)
(-0.266237 -0.0488209 0)
(-0.266943 -0.0643003 0)
(-0.26782 -0.0799097 0)
(-0.268934 -0.0956747 0)
(-0.270381 -0.111638 0)
(-0.272276 -0.127867 0)
(-0.27477 -0.144465 0)
(-0.278033 -0.161578 0)
(-0.282233 -0.179396 0)
(-0.287467 -0.198107 0)
(-0.293642 -0.217807 0)
(-0.300276 -0.238309 0)
(-0.306263 -0.258857 0)
(-0.309638 -0.277763 0)
(-0.307494 -0.29208 0)
(-0.296262 -0.297575 0)
(-0.272548 -0.289258 0)
(-0.234667 -0.262955 0)
(-0.184567 -0.217787 0)
(-0.129124 -0.159035 0)
(-0.078754 -0.0982276 0)
(-0.0419171 -0.0477591 0)
(-0.0194314 -0.0125754 0)
(-0.00714514 0.00911029 0)
(-0.00129634 0.0206408 0)
(0.000789993 0.0241118 0)
(0.000848003 0.0204154 0)
(0.000228319 0.00942525 0)
(-0.00272627 0.00787913 0)
(-0.0136556 0.0278094 0)
(-0.0306035 0.0525988 0)
(-0.0499828 0.0822019 0)
(-0.0730281 0.114641 0)
(-0.0979851 0.148059 0)
(-0.12468 0.180518 0)
(-0.150943 0.209514 0)
(-0.175614 0.232825 0)
(-0.196976 0.248868 0)
(-0.214468 0.257209 0)
(-0.227575 0.258212 0)
(-0.236669 0.252982 0)
(-0.242219 0.242925 0)
(-0.245163 0.229585 0)
(-0.246288 0.214284 0)
(-0.246434 0.198067 0)
(-0.246126 0.181603 0)
(-0.24579 0.16528 0)
(-0.24559 0.149251 0)
(-0.245635 0.133542 0)
(-0.245893 0.118104 0)
(-0.246343 0.102868 0)
(-0.246909 0.0877621 0)
(-0.247554 0.0727294 0)
(-0.24822 0.0577247 0)
(-0.248889 0.0427168 0)
(-0.249531 0.0276839 0)
(-0.250149 0.0126111 0)
(-0.250738 -0.00251101 0)
(-0.251315 -0.0176902 0)
(-0.251892 -0.032931 0)
(-0.252497 -0.0482389 0)
(-0.253153 -0.063618 0)
(-0.253903 -0.0790761 0)
(-0.254786 -0.0946236 0)
(-0.255866 -0.110282 0)
(-0.257218 -0.12609 0)
(-0.258958 -0.142114 0)
(-0.261232 -0.15847 0)
(-0.264239 -0.175333 0)
(-0.268194 -0.192949 0)
(-0.273276 -0.211598 0)
(-0.279488 -0.23149 0)
(-0.286431 -0.25253 0)
(-0.293 -0.273956 0)
(-0.297092 -0.293848 0)
(-0.295486 -0.308723 0)
(-0.284151 -0.313425 0)
(-0.259253 -0.30192 0)
(-0.21902 -0.269237 0)
(-0.166192 -0.215147 0)
(-0.109509 -0.147618 0)
(-0.0613653 -0.0824451 0)
(-0.0294983 -0.0329064 0)
(-0.0116826 -0.00145845 0)
(-0.00285441 0.0160419 0)
(0.000532865 0.0228966 0)
(0.000963006 0.0208145 0)
(0.000290082 0.0100593 0)
(-0.00331205 0.0159989 0)
(-0.0158737 0.0430162 0)
(-0.0345931 0.0716541 0)
(-0.0552528 0.104165 0)
(-0.0791817 0.139069 0)
(-0.104183 0.173984 0)
(-0.13002 0.206586 0)
(-0.154349 0.234068 0)
(-0.176271 0.25447 0)
(-0.194294 0.266634 0)
(-0.208271 0.270724 0)
(-0.217985 0.267597 0)
(-0.224164 0.258813 0)
(-0.227454 0.246024 0)
(-0.228902 0.230851 0)
(-0.229222 0.214511 0)
(-0.229137 0.197865 0)
(-0.228987 0.181364 0)
(-0.229047 0.165214 0)
(-0.22934 0.149429 0)
(-0.229894 0.133957 0)
(-0.23062 0.118704 0)
(-0.231478 0.103592 0)
(-0.232383 0.0885521 0)
(-0.233309 0.0735403 0)
(-0.234203 0.0585243 0)
(-0.23506 0.0434859 0)
(-0.235858 0.0284144 0)
(-0.236608 0.0133038 0)
(-0.237305 -0.0018481 0)
(-0.237971 -0.0170433 0)
(-0.238614 -0.0322818 0)
(-0.239262 -0.047565 0)
(-0.23993 -0.0628932 0)
(-0.240648 -0.0782695 0)
(-0.241441 -0.0936967 0)
(-0.242347 -0.109184 0)
(-0.243408 -0.124749 0)
(-0.244692 -0.140427 0)
(-0.246296 -0.156286 0)
(-0.248372 -0.172452 0)
(-0.251125 -0.189129 0)
(-0.254819 -0.206619 0)
(-0.259703 -0.2253 0)
(-0.265868 -0.245491 0)
(-0.272976 -0.267192 0)
(-0.27988 -0.289558 0)
(-0.284258 -0.310326 0)
(-0.282481 -0.325196 0)
(-0.270018 -0.327893 0)
(-0.2427 -0.31108 0)
(-0.19908 -0.269446 0)
(-0.143348 -0.204256 0)
(-0.0869038 -0.128346 0)
(-0.0437171 -0.0618549 0)
(-0.0184847 -0.0168615 0)
(-0.00556951 0.00898191 0)
(-0.00021985 0.0206989 0)
(0.000913509 0.0210042 0)
(0.000326987 0.0107774 0)
(-0.00375593 0.025318 0)
(-0.0175268 0.0597563 0)
(-0.0374744 0.091965 0)
(-0.0588313 0.1269 0)
(-0.0829713 0.163598 0)
(-0.107329 0.199123 0)
(-0.131693 0.230904 0)
(-0.15368 0.256024 0)
(-0.172718 0.272947 0)
(-0.187562 0.281001 0)
(-0.198463 0.280958 0)
(-0.205457 0.274129 0)
(-0.209543 0.26244 0)
(-0.211431 0.247653 0)
(-0.212164 0.231343 0)
(-0.212305 0.214524 0)
(-0.212429 0.19784 0)
(-0.212693 0.181524 0)
(-0.213257 0.16564 0)
(-0.214044 0.150102 0)
(-0.215043 0.134819 0)
(-0.216141 0.119682 0)
(-0.217305 0.104624 0)
(-0.218455 0.089586 0)
(-0.21958 0.0745416 0)
(-0.220636 0.0594705 0)
(-0.22163 0.0443669 0)
(-0.222544 0.0292278 0)
(-0.223394 0.014055 0)
(-0.224178 -0.00114873 0)
(-0.224918 -0.0163807 0)
(-0.225623 -0.0316378 0)
(-0.226317 -0.0469192 0)
(-0.227015 -0.0622235 0)
(-0.22774 -0.0775524 0)
(-0.228509 -0.0929069 0)
(-0.229347 -0.108292 0)
(-0.230273 -0.123714 0)
(-0.231323 -0.139191 0)
(-0.232547 -0.154755 0)
(-0.234035 -0.170479 0)
(-0.23593 -0.186499 0)
(-0.238461 -0.203052 0)
(-0.241924 -0.220511 0)
(-0.246638 -0.239347 0)
(-0.252764 -0.260016 0)
(-0.259987 -0.282544 0)
(-0.26704 -0.305956 0)
(-0.271274 -0.327349 0)
(-0.268528 -0.34138 0)
(-0.253733 -0.340149 0)
(-0.22263 -0.31519 0)
(-0.174656 -0.261238 0)
(-0.116554 -0.183463 0)
(-0.0629832 -0.101407 0)
(-0.0278624 -0.0388235 0)
(-0.0097159 -0.00143672 0)
(-0.0015853 0.0169784 0)
(0.000659184 0.0207329 0)
(0.000333552 0.0114927 0)
(-0.00401835 0.0354641 0)
(-0.0185176 0.0775226 0)
(-0.0391265 0.11299 0)
(-0.0606186 0.14984 0)
(-0.0843701 0.187657 0)
(-0.107547 0.22299 0)
(-0.13004 0.253178 0)
(-0.14952 0.275349 0)
(-0.165768 0.288505 0)
(-0.177782 0.292479 0)
(-0.186164 0.288635 0)
(-0.191139 0.278661 0)
(-0.193873 0.264741 0)
(-0.195036 0.248607 0)
(-0.195592 0.231694 0)
(-0.195919 0.214763 0)
(-0.196448 0.198244 0)
(-0.197186 0.182189 0)
(-0.198217 0.166558 0)
(-0.19941 0.15121 0)
(-0.200747 0.136043 0)
(-0.20211 0.120954 0)
(-0.203484 0.105892 0)
(-0.204799 0.0908146 0)
(-0.20606 0.075708 0)
(-0.20723 0.0605625 0)
(-0.208324 0.045381 0)
(-0.209326 0.0301663 0)
(-0.210256 0.0149255 0)
(-0.211111 -0.000335258 0)
(-0.211916 -0.0156099 0)
(-0.212676 -0.0308932 0)
(-0.213418 -0.0461827 0)
(-0.214151 -0.061477 0)
(-0.214901 -0.0767779 0)
(-0.21568 -0.0920879 0)
(-0.216509 -0.107412 0)
(-0.217394 -0.122757 0)
(-0.218356 -0.138129 0)
(-0.219409 -0.153545 0)
(-0.220595 -0.169037 0)
(-0.22199 -0.184679 0)
(-0.223744 -0.20062 0)
(-0.226095 -0.217145 0)
(-0.229392 -0.234695 0)
(-0.234014 -0.253889 0)
(-0.240176 -0.275263 0)
(-0.247514 -0.298893 0)
(-0.254538 -0.323377 0)
(-0.258103 -0.344996 0)
(-0.253387 -0.356665 0)
(-0.234844 -0.348811 0)
(-0.198488 -0.31163 0)
(-0.145731 -0.242027 0)
(-0.0869651 -0.151628 0)
(-0.0404845 -0.0695328 0)
(-0.0153319 -0.0162477 0)
(-0.00366647 0.0110978 0)
(0.000216546 0.0197015 0)
(0.000307542 0.0121103 0)
(-0.00407416 0.0459992 0)
(-0.0187908 0.0957529 0)
(-0.0394996 0.134145 0)
(-0.0606102 0.172378 0)
(-0.0834662 0.210657 0)
(-0.105076 0.2451 0)
(-0.125481 0.273105 0)
(-0.142475 0.291977 0)
(-0.156182 0.301312 0)
(-0.165816 0.301444 0)
(-0.172265 0.294276 0)
(-0.175863 0.281775 0)
(-0.177842 0.266255 0)
(-0.178762 0.249312 0)
(-0.179466 0.232179 0)
(-0.18015 0.215356 0)
(-0.181128 0.199089 0)
(-0.1823 0.183287 0)
(-0.183715 0.167857 0)
(-0.185215 0.152628 0)
(-0.186795 0.137511 0)
(-0.188342 0.122415 0)
(-0.189865 0.107308 0)
(-0.1913 0.0921597 0)
(-0.192666 0.0769695 0)
(-0.193928 0.0617334 0)
(-0.195107 0.0464614 0)
(-0.196187 0.0311597 0)
(-0.197191 0.0158399 0)
(-0.198112 0.000511154 0)
(-0.198976 -0.0148171 0)
(-0.199786 -0.0301376 0)
(-0.200569 -0.045446 0)
(-0.201334 -0.0607401 0)
(-0.202107 -0.0760224 0)
(-0.202898 -0.0912971 0)
(-0.203729 -0.106572 0)
(-0.204604 -0.121857 0)
(-0.205537 -0.13716 0)
(-0.206528 -0.152493 0)
(-0.207589 -0.167869 0)
(-0.208746 -0.183324 0)
(-0.21007 -0.198928 0)
(-0.21171 -0.214863 0)
(-0.213938 -0.231448 0)
(-0.217149 -0.249266 0)
(-0.221793 -0.269035 0)
(-0.228094 -0.291482 0)
(-0.235565 -0.316449 0)
(-0.242301 -0.342033 0)
(-0.244472 -0.362855 0)
(-0.236496 -0.36992 0)
(-0.212515 -0.351165 0)
(-0.169701 -0.297074 0)
(-0.1127 -0.208892 0)
(-0.0572437 -0.110638 0)
(-0.0223832 -0.0370412 0)
(-0.00657779 0.00248692 0)
(-0.000397952 0.0175462 0)
(0.000257025 0.0125619 0)
(-0.00392468 0.0564762 0)
(-0.0183652 0.113925 0)
(-0.0386575 0.154951 0)
(-0.0589501 0.194096 0)
(-0.0805215 0.232286 0)
(-0.100328 0.265322 0)
(-0.118583 0.290785 0)
(-0.133248 0.306241 0)
(-0.144745 0.311903 0)
(-0.152471 0.308567 0)
(-0.157521 0.298604 0)
(-0.160261 0.284153 0)
(-0.16191 0.267547 0)
(-0.162879 0.25017 0)
(-0.163881 0.233037 0)
(-0.164957 0.216406 0)
(-0.166338 0.200381 0)
(-0.167857 0.184773 0)
(-0.169555 0.169466 0)
(-0.171269 0.154286 0)
(-0.173013 0.139164 0)
(-0.174686 0.124021 0)
(-0.176314 0.108844 0)
(-0.177838 0.0936108 0)
(-0.179287 0.0783293 0)
(-0.180625 0.0629988 0)
(-0.18188 0.0476341 0)
(-0.18303 0.0322437 0)
(-0.184101 0.016843 0)
(-0.185086 0.0014431 0)
(-0.186007 -0.0139433 0)
(-0.186869 -0.0293071 0)
(-0.187695 -0.0446421 0)
(-0.188495 -0.0599453 0)
(-0.189295 -0.0752193 0)
(-0.190104 -0.0904698 0)
(-0.190945 -0.105708 0)
(-0.191825 -0.120946 0)
(-0.192755 -0.136199 0)
(-0.193732 -0.151481 0)
(-0.194759 -0.1668 0)
(-0.195829 -0.182178 0)
(-0.196966 -0.197634 0)
(-0.198234 -0.21327 0)
(-0.199799 -0.229263 0)
(-0.201963 -0.246064 0)
(-0.205195 -0.264327 0)
(-0.209993 -0.28506 0)
(-0.216559 -0.308915 0)