/*--------------------------------*- C++ -*----------------------------------*\
| =========                 |                                                 |
| \\      /  F ield         | OpenFOAM: The Open Source CFD Toolbox           |
|  \\    /   O peration     | Version:  2406                                  |
|   \\  /    A nd           | Website:  www.openfoam.com                      |
|    \\/     M anipulation  |                                                 |
\*---------------------------------------------------------------------------*/
FoamFile
{
    version     2.0;
    format      ascii;
    arch        "LSB;label=32;scalar=64";
    class       volVectorField;
    location    "47.4";
    object      Uc;
}
// * * * * * * * * * * * * * * * * * * * * * * * * * * * * * * * * * * * * * //

dimensions      [0 1 -1 0 0 0 0];

internalField   nonuniform List<vector> 
900
(
(0.000281609 -0.000527086 0)
(0.00367135 -0.00128375 0)
(0.00748856 -0.000999177 0)
(0.00901814 -0.000540477 0)
(0.00946407 -0.000474576 0)
(0.00927198 -0.000796999 0)
(0.00921866 -0.00123912 0)
(0.00911522 -0.00173317 0)
(0.00812242 -0.00325788 0)
(0.00349007 -0.00511648 0)
(-0.00720281 -0.00306074 0)
(-0.025266 0.00382889 0)
(-0.0494871 0.0103697 0)
(-0.0749766 0.0128298 0)
(-0.0973084 0.0120651 0)
(-0.114195 0.00969034 0)
(-0.124315 0.00638581 0)
(-0.126827 0.00254333 0)
(-0.121444 -0.00159388 0)
(-0.107806 -0.00576264 0)
(-0.0866662 -0.00959242 0)
(-0.058502 -0.0124632 0)
(-0.0266585 -0.0135406 0)
(0.00620648 -0.0117806 0)
(0.0320057 -0.00605602 0)
(0.0452645 0.0016081 0)
(0.0406435 0.00741688 0)
(0.0260652 0.00744455 0)
(0.0122555 0.00490174 0)
(0.00148559 0.00183372 0)
(0.00121903 -0.00341764 0)
(0.00711661 -0.00609663 0)
(0.012779 -0.00435073 0)
(0.0145688 -0.00147822 0)
(0.0138261 0.000261861 0)
(0.0104934 0.00105004 0)
(0.00408798 0.00142739 0)
(-0.00922327 0.0027977 0)
(-0.032866 0.00902994 0)
(-0.0666462 0.0209617 0)
(-0.105402 0.0324455 0)
(-0.141701 0.0388017 0)
(-0.171499 0.0392644 0)
(-0.194268 0.0346763 0)
(-0.210374 0.0268387 0)
(-0.219693 0.0170326 0)
(-0.222088 0.00598842 0)
(-0.217367 -0.00581656 0)
(-0.205421 -0.0179998 0)
(-0.186024 -0.0300703 0)
(-0.159433 -0.0410579 0)
(-0.125941 -0.0495265 0)
(-0.0873191 -0.0529648 0)
(-0.0460299 -0.0487041 0)
(-0.00741558 -0.0334756 0)
(0.0221249 -0.0105093 0)
(0.033741 0.0122147 0)
(0.0278562 0.020656 0)
(0.0161758 0.0200126 0)
(0.00233876 0.0118391 0)
(0.00216646 -0.00876262 0)
(0.00868993 -0.0129497 0)
(0.0130547 -0.00841229 0)
(0.0119703 -0.00164919 0)
(0.00644416 0.00358307 0)
(-0.00573134 0.0088335 0)
(-0.0282519 0.018395 0)
(-0.0638749 0.0351602 0)
(-0.108459 0.0536917 0)
(-0.152179 0.066157 0)
(-0.189157 0.0705995 0)
(-0.218178 0.0687406 0)
(-0.239709 0.0616273 0)
(-0.254832 0.0502727 0)
(-0.264523 0.036133 0)
(-0.269217 0.0201492 0)
(-0.269221 0.00291658 0)
(-0.264458 -0.0153076 0)
(-0.254764 -0.034168 0)
(-0.239646 -0.0532987 0)
(-0.218618 -0.0713324 0)
(-0.191114 -0.0866116 0)
(-0.156759 -0.0950277 0)
(-0.11646 -0.0929696 0)
(-0.0715725 -0.0738854 0)
(-0.0285351 -0.0391176 0)
(0.00377772 0.00246576 0)
(0.0111701 0.0244424 0)
(0.00913099 0.0302792 0)
(0.000213126 0.0197202 0)
(0.00285306 -0.0141753 0)
(0.00762954 -0.0170786 0)
(0.00730021 -0.00751528 0)
(-0.000494223 0.00520263 0)
(-0.0166354 0.0180654 0)
(-0.0448512 0.0357776 0)
(-0.0858371 0.0593759 0)
(-0.132542 0.0822052 0)
(-0.175192 0.0963811 0)
(-0.209607 0.10088 0)
(-0.236028 0.0976335 0)
(-0.255031 0.0885383 0)
(-0.267831 0.0751776 0)
(-0.275844 0.0588808 0)
(-0.280283 0.0407266 0)
(-0.281837 0.0212467 0)
(-0.280995 0.000705978 0)
(-0.277815 -0.0210124 0)
(-0.272231 -0.043773 0)
(-0.263695 -0.0676656 0)
(-0.251458 -0.0913585 0)
(-0.234182 -0.113698 0)
(-0.210052 -0.129747 0)
(-0.17753 -0.135745 0)
(-0.134415 -0.121507 0)
(-0.0839451 -0.0854287 0)
(-0.030649 -0.0259486 0)
(-0.00145786 0.0153218 0)
(0.00354577 0.0314291 0)
(-0.00153338 0.0211758 0)
(0.00264553 -0.0192217 0)
(0.00285034 -0.0174909 0)
(-0.00517797 -0.00019057 0)
(-0.0230073 0.0222999 0)
(-0.0522302 0.0478289 0)
(-0.0927954 0.077522 0)
(-0.138035 0.105242 0)
(-0.178734 0.123487 0)
(-0.210409 0.12946 0)
(-0.233289 0.125651 0)
(-0.24857 0.114968 0)
(-0.25766 0.0998217 0)
(-0.262396 0.0819575 0)
(-0.264098 0.0624359 0)
(-0.264066 0.0420146 0)
(-0.262888 0.0208461 0)
(-0.261221 -0.00102071 0)
(-0.259139 -0.0240545 0)
(-0.256913 -0.0482941 0)
(-0.254113 -0.0744242 0)
(-0.250411 -0.101418 0)
(-0.244214 -0.129229 0)
(-0.233489 -0.153107 0)
(-0.214631 -0.170283 0)
(-0.183046 -0.168446 0)
(-0.136152 -0.143172 0)
(-0.0736087 -0.0797169 0)
(-0.0137437 -0.0100607 0)
(0.00320871 0.030569 0)
(-0.00170306 0.0214605 0)
(0.000666217 -0.0195573 0)
(-0.00674668 -0.00908735 0)
(-0.024321 0.0186699 0)
(-0.0519042 0.0524255 0)
(-0.0892268 0.0876553 0)
(-0.131153 0.121013 0)
(-0.169752 0.144394 0)
(-0.199014 0.153562 0)
(-0.218576 0.1502 0)
(-0.230239 0.138714 0)
(-0.235732 0.122005 0)
(-0.23706 0.102661 0)
(-0.235905 0.0821307 0)
(-0.233454 0.0612216 0)
(-0.230709 0.0403133 0)
(-0.227999 0.0192325 0)
(-0.225838 -0.00212617 0)
(-0.224156 -0.024487 0)
(-0.22344 -0.0478982 0)
(-0.223409 -0.0735559 0)
(-0.224535 -0.100697 0)
(-0.22567 -0.13071 0)
(-0.225957 -0.15974 0)
(-0.221406 -0.187368 0)
(-0.206977 -0.201263 0)
(-0.175734 -0.196155 0)
(-0.121247 -0.148842 0)
(-0.0469715 -0.0622075 0)
(0.00671831 0.0198549 0)
(-0.00244693 0.0226577 0)
(-0.0023754 -0.0132871 0)
(-0.0179048 0.00754383 0)
(-0.043627 0.0449591 0)
(-0.0766306 0.0869842 0)
(-0.114869 0.126414 0)
(-0.151257 0.157072 0)
(-0.179742 0.172102 0)
(-0.197691 0.171611 0)
(-0.207353 0.160343 0)
(-0.210724 0.142852 0)
(-0.210051 0.122147 0)
(-0.207292 0.100574 0)
(-0.203787 0.0790731 0)
(-0.200313 0.0580339 0)
(-0.197391 0.0374441 0)
(-0.194961 0.0168609 0)
(-0.193292 -0.00384392 0)
(-0.192046 -0.0254923 0)
(-0.191753 -0.0478599 0)
(-0.192002 -0.0723331 0)
(-0.193841 -0.0978998 0)
(-0.196467 -0.127023 0)
(-0.20078 -0.156556 0)
(-0.203783 -0.189299 0)
(-0.202714 -0.21466 0)
(-0.189633 -0.230464 0)
(-0.153961 -0.209371 0)
(-0.0935157 -0.140991 0)
(-0.00457818 -0.0126189 0)
(0.00293397 0.0251426 0)
(-0.00551554 0.000522007 0)
(-0.0277197 0.0322776 0)
(-0.0583006 0.0772144 0)
(-0.092159 0.123273 0)
(-0.1268 0.161436 0)
(-0.155073 0.185078 0)
(-0.173753 0.19027 0)
(-0.182844 0.181102 0)
(-0.185643 0.163552 0)
(-0.184087 0.142032 0)
(-0.180647 0.119338 0)
(-0.17673 0.0972181 0)
(-0.173213 0.0759829 0)
(-0.170362 0.0556029 0)
(-0.168327 0.0357508 0)
(-0.166799 0.0158247 0)
(-0.165981 -0.00425228 0)
(-0.165362 -0.0253876 0)
(-0.165577 -0.047055 0)
(-0.16591 -0.0708192 0)
(-0.167706 -0.0951391 0)
(-0.169852 -0.123082 0)
(-0.174405 -0.151246 0)
(-0.178888 -0.184926 0)
(-0.183758 -0.215143 0)
(-0.181728 -0.245196 0)
(-0.165141 -0.247267 0)
(-0.124801 -0.212698 0)
(-0.0427905 -0.0770488 0)
(0.0182847 0.0210868 0)
(-0.00733775 0.019229 0)
(-0.0331244 0.0599133 0)
(-0.0649954 0.10852 0)
(-0.0965323 0.154552 0)
(-0.125711 0.188222 0)
(-0.146148 0.203306 0)
(-0.157338 0.199607 0)
(-0.160623 0.183718 0)
(-0.1597 0.162079 0)
(-0.156139 0.138519 0)
(-0.152374 0.115499 0)
(-0.148922 0.0938311 0)
(-0.146406 0.0733938 0)
(-0.144545 0.0537668 0)
(-0.143458 0.0345559 0)
(-0.142626 0.0150848 0)
(-0.142411 -0.00455263 0)
(-0.1421 -0.0253572 0)
(-0.142578 -0.046463 0)
(-0.142731 -0.069691 0)
(-0.144279 -0.0929164 0)
(-0.145501 -0.119804 0)
(-0.149358 -0.14624 0)
(-0.153081 -0.179375 0)
(-0.159794 -0.210797 0)
(-0.162786 -0.248855 0)
(-0.158952 -0.26826 0)
(-0.133971 -0.263309 0)
(-0.0789878 -0.161088 0)
(0.0123997 0.00237819 0)
(-0.00781963 0.0401961 0)
(-0.0343406 0.0893989 0)
(-0.0650241 0.139523 0)
(-0.0926667 0.183025 0)
(-0.116048 0.210134 0)
(-0.129968 0.216443 0)
(-0.135938 0.20496 0)
(-0.135942 0.184093 0)
(-0.133458 0.15983 0)
(-0.129726 0.135515 0)
(-0.126739 0.112881 0)
(-0.124312 0.0919298 0)
(-0.122925 0.0722596 0)
(-0.121941 0.0531986 0)
(-0.121645 0.0344395 0)
(-0.121347 0.0152306 0)
(-0.121692 -0.00413148 0)
(-0.121702 -0.0248312 0)
(-0.122603 -0.04566 0)
(-0.12276 -0.0687829 0)
(-0.124319 -0.0913978 0)
(-0.124688 -0.117689 0)
(-0.127608 -0.142405 0)
(-0.129447 -0.174072 0)
(-0.135777 -0.204015 0)
(-0.140233 -0.245588 0)
(-0.144056 -0.27606 0)
(-0.131838 -0.293882 0)
(-0.0950428 -0.226101 0)
(-0.0194983 -0.0437889 0)
(-0.00696967 0.060349 0)
(-0.0317418 0.116212 0)
(-0.059161 0.165449 0)
(-0.0821304 0.204486 0)
(-0.100257 0.224726 0)
(-0.109402 0.22313 0)
(-0.112446 0.205926 0)
(-0.111119 0.18185 0)
(-0.108646 0.156506 0)
(-0.105711 0.132416 0)
(-0.103903 0.110644 0)
(-0.1025 0.0904952 0)
(-0.102033 0.0715205 0)
(-0.101607 0.0528801 0)
(-0.101806 0.0344822 0)
(-0.101723 0.0154737 0)
(-0.102384 -0.00359267 0)
(-0.10247 -0.0241595 0)
(-0.103698 -0.0446642 0)
(-0.103855 -0.0677692 0)
(-0.105729 -0.0900486 0)
(-0.1057 -0.116387 0)
(-0.108322 -0.14025 0)
(-0.10837 -0.171013 0)
(-0.113262 -0.198467 0)
(-0.115969 -0.240057 0)
(-0.122935 -0.275777 0)
(-0.118238 -0.31309 0)
(-0.0938831 -0.27498 0)
(-0.036144 -0.113622 0)
(-0.00526045 0.0780752 0)
(-0.0265832 0.140776 0)
(-0.0498863 0.188654 0)
(-0.0682634 0.223293 0)
(-0.0819379 0.236986 0)
(-0.0878262 0.22898 0)
(-0.0892741 0.20733 0)
(-0.0877022 0.181122 0)
(-0.0858285 0.1552 0)
(-0.0839385 0.131476 0)
(-0.0831785 0.110302 0)
(-0.0825972 0.0905869 0)
(-0.0827967 0.0719245 0)
(-0.082742 0.0533857 0)
(-0.0833115 0.035126 0)
(-0.0833495 0.0161398 0)
(-0.0842835 -0.00273538 0)
(-0.0843629 -0.0232669 0)
(-0.085879 -0.0434819 0)
(-0.0859355 -0.0666077 0)
(-0.0881662 -0.0885633 0)
(-0.087859 -0.115086 0)
(-0.0907175 -0.138501 0)
(-0.0896852 -0.169172 0)
(-0.0938063 -0.194865 0)
(-0.0940536 -0.235611 0)
(-0.101239 -0.272499 0)
(-0.0988896 -0.323197 0)
(-0.0832668 -0.311648 0)
(-0.0340626 -0.177858 0)
(-0.00292334 0.0914073 0)
(-0.0197023 0.159932 0)
(-0.0381485 0.205943 0)
(-0.052119 0.235772 0)
(-0.0621764 0.244012 0)
(-0.0659716 0.230829 0)
(-0.0669607 0.20636 0)
(-0.0658289 0.17902 0)
(-0.0649533 0.153281 0)
(-0.0640916 0.130206 0)
(-0.0642313 0.109715 0)
(-0.0642498 0.0904234 0)
(-0.0649426 0.0720674 0)
(-0.065111 0.0536402 0)
(-0.0659685 0.0355617 0)
(-0.066028 0.0166362 0)
(-0.0671883 -0.00198554 0)
(-0.0671602 -0.0224452 0)
(-0.0689389 -0.0423175 0)
(-0.0688046 -0.0654606 0)
(-0.0714334 -0.0871193 0)
(-0.0708371 -0.113946 0)
(-0.0741801 -0.137154 0)
(-0.0723607 -0.168129 0)
(-0.0763923 -0.19253 0)
(-0.0745526 -0.232485 0)
(-0.0819391 -0.269193 0)
(-0.0806691 -0.330568 0)
(-0.0722507 -0.342184 0)
(-0.0304328 -0.234829 0)
(-0.000411435 0.100217 0)
(-0.0119597 0.175289 0)
(-0.025544 0.220171 0)
(-0.0355576 0.246857 0)
(-0.0426204 0.250884 0)
(-0.0451439 0.234415 0)
(-0.0460081 0.207965 0)
(-0.0454839 0.17992 0)
(-0.0454229 0.154174 0)
(-0.045344 0.131351 0)
(-0.0461001 0.111044 0)
(-0.0465251 0.0917442 0)
(-0.0475929 0.0733453 0)
(-0.0479213 0.0547486 0)
(-0.049071 0.036645 0)
(-0.0491387 0.017593 0)
(-0.0505731 -0.000898743 0)
(-0.0504136 -0.0214004 0)
(-0.0525067 -0.0409708 0)
(-0.0521311 -0.0641351 0)
(-0.0552455 -0.0854435 0)
(-0.0543727 -0.112532 0)
(-0.0585053 -0.135643 0)
(-0.0562511 -0.167314 0)
(-0.060894 -0.191104 0)
(-0.0573258 -0.230236 0)
(-0.0646891 -0.264588 0)
(-0.0630952 -0.332263 0)
(-0.0612377 -0.363282 0)
(-0.0262355 -0.283539 0)
(0.00223083 0.103376 0)
(-0.00388133 0.184296 0)
(-0.0124357 0.228767 0)
(-0.0188355 0.252376 0)
(-0.0234621 0.253655 0)
(-0.025145 0.234703 0)
(-0.026283 0.207266 0)
(-0.026431 0.178941 0)
(-0.027185 0.153575 0)
(-0.0276755 0.131181 0)
(-0.0288909 0.111243 0)
(-0.0295223 0.0921106 0)
(-0.0308588 0.0738493 0)
(-0.0312239 0.0552475 0)
(-0.0326279 0.0372639 0)
(-0.0326307 0.0181925 0)
(-0.0343656 -7.23695e-05 0)
(-0.034037 -0.0205501 0)
(-0.0365249 -0.0397571 0)
(-0.0358724 -0.0628827 0)
(-0.0395806 -0.083774 0)
(-0.0383763 -0.110999 0)
(-0.0434731 -0.133889 0)
(-0.0409167 -0.166213 0)
(-0.0468878 -0.18983 0)
(-0.0424511 -0.229055 0)
(-0.0508031 -0.261496 0)
(-0.0486767 -0.333424 0)
(-0.0522869 -0.379473 0)
(-0.0224332 -0.324626 0)
(0.0045788 0.101691 0)
(0.00414682 0.189338 0)
(0.000385065 0.234596 0)
(-0.00266821 0.257647 0)
(-0.00500942 0.257478 0)
(-0.00606009 0.23795 0)
(-0.00726013 0.210042 0)
(-0.00791119 0.181566 0)
(-0.00911637 0.156112 0)
(-0.00990075 0.133595 0)
(-0.0113458 0.113508 0)
(-0.0120242 0.0941158 0)
(-0.013568 0.0756822 0)
(-0.0139074 0.0568051 0)
(-0.0156097 0.0387551 0)
(-0.0155347 0.0194827 0)
(-0.0176836 0.00132463 0)
(-0.0172056 -0.0192384 0)
(-0.0202687 -0.0381451 0)
(-0.0193788 -0.0612505 0)
(-0.0239107 -0.0817179 0)
(-0.022427 -0.109006 0)
(-0.02875 -0.131619 0)
(-0.0259575 -0.164477 0)
(-0.0336476 -0.187901 0)
(-0.0286169 -0.226952 0)
(-0.0385988 -0.2565 0)
(-0.0358384 -0.330466 0)
(-0.0449239 -0.389233 0)
(-0.0191995 -0.359935 0)
(0.00671062 0.0944549 0)
(0.0116894 0.187713 0)
(0.0128032 0.23509 0)
(0.0128742 0.257388 0)
(0.0125111 0.257236 0)
(0.012119 0.237393 0)
(0.0107229 0.209656 0)
(0.0097143 0.181195 0)
(0.0080908 0.155966 0)
(0.00723071 0.133612 0)
(0.00568936 0.113726 0)
(0.00520442 0.094437 0)
(0.00359541 0.0761673 0)
(0.00349041 0.0573177 0)
(0.00156646 0.0394573 0)
(0.00185564 0.0202028 0)
(-0.000735632 0.00233212 0)
(-4.40011e-05 -0.01815 0)
(-0.00382023 -0.0366323 0)
(-0.00268994 -0.0595711 0)
(-0.00825707 -0.0795017 0)
(-0.0065198 -0.106662 0)
(-0.0143392 -0.128831 0)
(-0.0114066 -0.162013 0)
(-0.0213246 -0.185411 0)
(-0.0161535 -0.224904 0)
(-0.028596 -0.252324 0)
(-0.025148 -0.327101 0)
(-0.0392717 -0.39531 0)
(-0.016315 -0.390062 0)
(0.00804932 0.0832387 0)
(0.0185508 0.182579 0)
(0.0243109 0.233081 0)
(0.0276165 0.257747 0)
(0.0295645 0.258591 0)
(0.0300664 0.240406 0)
(0.0290181 0.21325 0)
(0.02793 0.184896 0)
(0.026233 0.159342 0)
(0.0255005 0.136504 0)
(0.0240066 0.116254 0)
(0.0238513 0.0965827 0)
(0.0221959 0.0781712 0)
(0.0224098 0.0590749 0)
(0.0201907 0.0412543 0)
(0.0207343 0.021875 0)
(0.0175358 0.00421737 0)
(0.0184404 -0.0162399 0)
(0.0137125 -0.0343328 0)
(0.0150382 -0.0570994 0)
(0.00814487 -0.0764913 0)
(0.0100682 -0.103437 0)
(0.000450579 -0.12507 0)
(0.00350474 -0.158272 0)
(-0.00897107 -0.181296 0)
(-0.00377274 -0.220704 0)
(-0.0194264 -0.245529 0)
(-0.0154305 -0.320191 0)
(-0.0349377 -0.396843 0)
(-0.0137488 -0.416568 0)
(0.00861455 0.0676915 0)
(0.023984 0.17052 0)
(0.0345985 0.225617 0)
(0.041098 0.251656 0)
(0.0451676 0.254975 0)
(0.0468672 0.238243 0)
(0.0460966 0.212331 0)
(0.0452015 0.184292 0)
(0.0434302 0.15884 0)
(0.0430649 0.135961 0)
(0.0417279 0.115814 0)
(0.0422074 0.0962649 0)
(0.0406801 0.0781562 0)
(0.0415221 0.0592544 0)
(0.0391261 0.041828 0)
(0.0401715 0.0226754 0)
(0.0363723 0.00549792 0)
(0.0376433 -0.0146467 0)
(0.0318534 -0.03214 0)
(0.0334276 -0.054489 0)
(0.0250013 -0.0731711 0)
(0.0270876 -0.0996554 0)
(0.0153839 -0.120588 0)
(0.0184808 -0.15353 0)
(0.00305332 -0.176176 0)
(0.00811259 -0.215676 0)
(-0.01137 -0.238547 0)
(-0.00670984 -0.31241 0)
(-0.031728 -0.395414 0)
(-0.0111922 -0.439694 0)
(0.00738088 0.0506728 0)
(0.0277242 0.155868 0)
(0.0430055 0.21568 0)
(0.053279 0.246927 0)
(0.0603333 0.253138 0)
(0.0638816 0.240027 0)
(0.0643362 0.21575 0)
(0.0640638 0.188218 0)
(0.0625677 0.162345 0)
(0.0626827 0.138678 0)
(0.0615087 0.117986 0)
(0.062672 0.0979464 0)
(0.0611943 0.0798093 0)
(0.0627457 0.0608027 0)
(0.060044 0.0436706 0)
(0.0616775 0.0246451 0)
(0.0570854 0.00794819 0)
(0.0587812 -0.0118859 0)
(0.0516921 -0.0287414 0)
(0.0535392 -0.0506242 0)
(0.0433104 -0.0685507 0)
(0.045553 -0.0944581 0)
(0.0314596 -0.114582 0)
(0.034577 -0.146922 0)
(0.0158171 -0.168787 0)
(0.0206356 -0.207716 0)
(-0.00345013 -0.228403 0)
(0.00175018 -0.301114 0)
(-0.0294437 -0.390379 0)
(-0.00854338 -0.460414 0)
(0.00451439 0.0325137 0)
(0.0284956 0.133853 0)
(0.0488585 0.199604 0)
(0.0629377 0.23362 0)
(0.0727048 0.244466 0)
(0.07861 0.234301 0)
(0.0802819 0.212698 0)
(0.0812419 0.186267 0)
(0.0801605 0.160782 0)
(0.0811926 0.137066 0)
(0.0802949 0.116407 0)
(0.0825363 0.0964937 0)
(0.081237 0.0787845 0)
(0.0839045 0.0602129 0)
(0.081 0.0437497 0)
(0.0835912 0.0253194 0)
(0.0782516 0.00941824 0)
(0.0806577 -0.00971574 0)
(0.0722476 -0.025671 0)
(0.0745565 -0.0467548 0)
(0.0624183 -0.0636979 0)
(0.0648886 -0.0886931 0)
(0.0481829 -0.107787 0)
(0.0512668 -0.139122 0)
(0.0288175 -0.160048 0)
(0.0333002 -0.198185 0)
(0.00404196 -0.217178 0)
(0.00996064 -0.288286 0)
(-0.0279714 -0.382711 0)
(-0.00551099 -0.478716 0)
(0.000276535 0.0180454 0)
(0.0263648 0.110958 0)
(0.051384 0.180989 0)
(0.0700654 0.22275 0)
(0.0840176 0.23766 0)
(0.0933111 0.232791 0)
(0.0977107 0.213952 0)
(0.100659 0.188896 0)
(0.10059 0.163425 0)
(0.102714 0.138944 0)
(0.102033 0.11772 0)
(0.105285 0.0972149 0)
(0.103931 0.0796006 0)
(0.107721 0.0610965 0)
(0.104393 0.0452627 0)
(0.108046 0.027301 0)
(0.101764 0.0123009 0)
(0.10503 -0.00614259 0)
(0.0950983 -0.0210486 0)
(0.0980109 -0.041263 0)
(0.0837304 -0.0570585 0)
(0.0865205 -0.0809714 0)
(0.0669028 -0.0988171 0)
(0.0699264 -0.128749 0)
(0.0433269 -0.148309 0)
(0.047282 -0.184891 0)
(0.0120244 -0.202157 0)
(0.0185864 -0.27151 0)
(-0.027104 -0.371845 0)
(-0.00185812 -0.495099 0)
(-0.0018743 0.00604 0)
(0.0210959 0.0815684 0)
(0.0502399 0.155472 0)
(0.0726958 0.199902 0)
(0.0897494 0.221151 0)
(0.10299 0.220241 0)
(0.110133 0.205859 0)
(0.116415 0.183397 0)
(0.118037 0.159457 0)
(0.122435 0.135561 0)
(0.122367 0.114635 0)
(0.1274 0.0943817 0)
(0.12604 0.0772446 0)
(0.131526 0.0594051 0)
(0.127723 0.0444439 0)
(0.13294 0.0274739 0)
(0.125674 0.013596 0)
(0.130245 -0.00367811 0)
(0.118778 -0.0173159 0)
(0.122656 -0.0362181 0)
(0.106204 -0.0506274 0)
(0.109515 -0.0729922 0)
(0.0868151 -0.0892662 0)
(0.0897136 -0.117184 0)
(0.0585783 -0.135032 0)
(0.0618203 -0.169466 0)
(0.0199888 -0.185483 0)
(0.0273734 -0.252564 0)
(-0.0268742 -0.358572 0)
(0.00276796 -0.50928 0)
(-0.00223107 -0.00053317 0)
(0.0143431 0.0584833 0)
(0.0444375 0.129416 0)
(0.0710055 0.182942 0)
(0.0931757 0.207394 0)
(0.111455 0.212405 0)
(0.123297 0.201239 0)
(0.133936 0.181266 0)
(0.138342 0.158586 0)
(0.145611 0.134846 0)
(0.146505 0.114083 0)
(0.153485 0.0936002 0)
(0.15202 0.0768836 0)
(0.159193 0.0593125 0)
(0.154715 0.0453603 0)
(0.161528 0.0291115 0)
(0.153109 0.0166412 0)
(0.159106 0.000367143 0)
(0.145924 -0.0116383 0)
(0.150913 -0.0292685 0)
(0.131993 -0.0418443 0)
(0.135886 -0.0624563 0)
(0.10962 -0.0765797 0)
(0.112345 -0.10195 0)
(0.0760647 -0.117459 0)
(0.0784577 -0.148895 0)
(0.0292904 -0.163856 0)
(0.0377352 -0.228555 0)
(-0.0263085 -0.342192 0)
(0.00904867 -0.52113 0)
(0.00141269 -0.00608715 0)
(0.00936318 0.0336435 0)
(0.0344718 0.0985333 0)
(0.0623501 0.149709 0)
(0.0857293 0.180453 0)
(0.109688 0.189048 0)
(0.125957 0.183688 0)
(0.143337 0.167879 0)
(0.15188 0.148626 0)
(0.16457 0.127108 0)
(0.167463 0.107817 0)
(0.178358 0.0884848 0)
(0.177051 0.0726652 0)
(0.187227 0.0561927 0)
(0.181826 0.0432975 0)
(0.191162 0.0284277 0)
(0.181154 0.0172909 0)
(0.189303 0.00269796 0)
(0.173964 -0.00772256 0)
(0.18064 -0.0233244 0)
(0.158872 -0.0340067 0)
(0.163766 -0.0520486 0)
(0.133628 -0.0638387 0)
(0.136397 -0.085848 0)
(0.0946171 -0.0987922 0)
(0.0961066 -0.126504 0)
(0.0393279 -0.141266 0)
(0.0488934 -0.202717 0)
(-0.0252455 -0.323903 0)
(0.0176635 -0.529398 0)
(0.000326041 -0.0110798 0)
(0.00348193 0.026336 0)
(0.019489 0.0768101 0)
(0.0474943 0.132258 0)
(0.0755826 0.15991 0)
(0.105264 0.171789 0)
(0.12773 0.167912 0)
(0.152166 0.154948 0)
(0.165857 0.138459 0)
(0.184778 0.119051 0)
(0.190552 0.10181 0)
(0.206019 0.0838095 0)
(0.205621 0.0696904 0)
(0.219017 0.0542522 0)
(0.213245 0.0432065 0)
(0.224971 0.0293788 0)
(0.21374 0.0204076 0)
(0.223753 0.00699915 0)
(0.206381 -0.00088563 0)
(0.214465 -0.0149604 0)
(0.1896 -0.0226156 0)
(0.195363 -0.0383599 0)
(0.160591 -0.0464432 0)
(0.163649 -0.0647996 0)
(0.115297 -0.0736899 0)
(0.117284 -0.0969434 0)
(0.052542 -0.111368 0)
(0.0658483 -0.169326 0)
(-0.0185735 -0.301635 0)
(0.0309384 -0.532013 0)
(0.00490765 -0.00967982 0)
(0.00602883 0.0132995 0)
(-1.79531e-05 0.0547391 0)
(0.0225132 0.0920109 0)
(0.0453834 0.122305 0)
(0.0826061 0.134837 0)
(0.110022 0.136581 0)
(0.144987 0.128261 0)
(0.164468 0.116584 0)
(0.193072 0.101456 0)
(0.202508 0.0876303 0)
(0.225639 0.0726229 0)
(0.226348 0.0608778 0)
(0.245646 0.0477501 0)
(0.238852 0.0385898 0)
(0.255383 0.0270181 0)
(0.241463 0.0197874 0)
(0.255705 0.00898988 0)
(0.234263 0.00289703 0)
(0.246283 -0.00787454 0)
(0.216162 -0.0134893 0)
(0.225739 -0.0249051 0)
(0.18488 -0.0305932 0)
(0.191942 -0.0435943 0)
(0.137397 -0.0505544 0)
(0.143996 -0.0690956 0)
(0.0728805 -0.0861889 0)
(0.089726 -0.139951 0)
(-0.0033706 -0.278811 0)
(0.0507573 -0.521998 0)
(-0.024847 -0.0237912 0)
(-0.0244865 0.0345173 0)
(-0.0203041 0.0611956 0)
(-0.00852681 0.0894707 0)
(0.0218197 0.0996825 0)
(0.0625664 0.106516 0)
(0.0956213 0.105063 0)
(0.138472 0.0989254 0)
(0.163097 0.0908424 0)
(0.199657 0.0797886 0)
(0.212756 0.070488 0)
(0.242483 0.059151 0)
(0.244869 0.0513419 0)
(0.26934 0.0410879 0)
(0.262384 0.03536 0)
(0.283159 0.0260587 0)
(0.267599 0.0221673 0)
(0.285815 0.0132772 0)
(0.261539 0.010853 0)
(0.278027 0.00183132 0)
(0.244 0.00059883 0)
(0.259561 -0.00899666 0)
(0.213614 -0.00935485 0)
(0.229557 -0.0201287 0)
(0.168179 -0.0211376 0)
(0.1877 -0.0363374 0)
(0.107315 -0.0491397 0)
(0.14028 -0.0970752 0)
(0.0458726 -0.240573 0)
(0.0883883 -0.488536 0)
(-0.0879494 0.0440158 0)
(-0.0909866 0.00677021 0)
(-0.121472 0.0403517 0)
(-0.0753693 0.0461513 0)
(-0.0534039 0.0500807 0)
(0.00517502 0.0574032 0)
(0.0388391 0.059552 0)
(0.0953624 0.0578406 0)
(0.121628 0.0550988 0)
(0.171845 0.0496167 0)
(0.185255 0.0451674 0)
(0.229472 0.0387837 0)
(0.230091 0.0347286 0)
(0.270254 0.0286949 0)
(0.259202 0.025656 0)
(0.297551 0.0202765 0)
(0.275432 0.0181314 0)
(0.31406 0.0134168 0)
(0.280654 0.0117782 0)
(0.321527 0.00779948 0)
(0.275839 0.0061375 0)
(0.320975 0.00311921 0)
(0.261416 0.000602606 0)
(0.313043 -0.00160681 0)
(0.237823 -0.00732371 0)
(0.298102 -0.0137543 0)
(0.205984 -0.0353932 0)
(0.273459 -0.0831767 0)
(0.156627 -0.209571 0)
(0.14828 -0.403366 0)
(0.0817244 0.135169 0)
(0.120479 0.075976 0)
(0.154207 0.0490268 0)
(0.207294 0.0271255 0)
(0.223558 0.0191017 0)
(0.273479 0.0133877 0)
(0.290013 0.0132594 0)
(0.344863 0.0133251 0)
(0.358147 0.013761 0)
(0.413417 0.0137747 0)
(0.419304 0.0134087 0)
(0.472375 0.0127151 0)
(0.469047 0.0118695 0)
(0.519762 0.0108497 0)
(0.507055 0.00988141 0)
(0.556409 0.0088107 0)
(0.534636 0.00790638 0)
(0.583876 0.00684939 0)
(0.553297 0.0061423 0)
(0.603579 0.00496968 0)
(0.564246 0.00468195 0)
(0.616562 0.0029635 0)
(0.5682 0.0035485 0)
(0.623253 0.000111912 0)
(0.564252 0.00217666 0)
(0.620935 -0.00672356 0)
(0.541412 -0.00460336 0)
(0.583933 -0.0345371 0)
(0.418499 -0.0525535 0)
(0.306156 -0.177094 0)
)
;

boundaryField
{
    movingWall
    {
        type            fixedValue;
        value           uniform (1 0 0);
    }
    fixedWalls
    {
        type            noSlip;
    }
    frontAndBack
    {
        type            empty;
    }
}


// ************************************************************************* //
