/*--------------------------------*- C++ -*----------------------------------*\
| =========                 |                                                 |
| \\      /  F ield         | OpenFOAM: The Open Source CFD Toolbox           |
|  \\    /   O peration     | Version:  2406                                  |
|   \\  /    A nd           | Website:  www.openfoam.com                      |
|    \\/     M anipulation  |                                                 |
\*---------------------------------------------------------------------------*/
FoamFile
{
    version     2.0;
    format      ascii;
    arch        "LSB;label=32;scalar=64";
    class       volVectorField;
    location    "29.35";
    object      U_0;
}
// * * * * * * * * * * * * * * * * * * * * * * * * * * * * * * * * * * * * * //

dimensions      [0 1 -1 0 0 0 0];

internalField   nonuniform List<vector> 
14400
(
(-4.2008e-06 4.1342e-06 0)
(1.99691e-05 -1.10258e-05 0)
(0.000113694 -2.97632e-05 0)
(0.000270578 -4.41925e-05 0)
(0.00047314 -5.37407e-05 0)
(0.000703618 -5.85993e-05 0)
(0.000945238 -5.94679e-05 0)
(0.00118383 -5.71373e-05 0)
(0.00140826 -5.2446e-05 0)
(0.00161057 -4.62116e-05 0)
(0.00178587 -3.91907e-05 0)
(0.00193202 -3.20398e-05 0)
(0.00204927 -2.52851e-05 0)
(0.00213967 -1.93045e-05 0)
(0.00220651 -1.43207e-05 0)
(0.00225372 -1.03996e-05 0)
(0.00228539 -7.50724e-06 0)
(0.00230515 -5.61576e-06 0)
(0.00231571 -4.51559e-06 0)
(0.00231859 -3.80807e-06 0)
(0.00231452 -2.82691e-06 0)
(0.00230301 -1.51869e-06 0)
(0.00228201 3.10885e-07 0)
(0.00224859 2.903e-06 0)
(0.00219905 6.42656e-06 0)
(0.00212905 1.09952e-05 0)
(0.00203387 1.66832e-05 0)
(0.00190846 2.35393e-05 0)
(0.00174764 3.1601e-05 0)
(0.00154601 4.09051e-05 0)
(0.00129809 5.14927e-05 0)
(0.000998193 6.3408e-05 0)
(0.000640555 7.66924e-05 0)
(0.000219316 9.1376e-05 0)
(-0.000271377 0.000107468 0)
(-0.000837244 0.00012495 0)
(-0.00148373 0.000143767 0)
(-0.00221582 0.000163821 0)
(-0.00303784 0.000184972 0)
(-0.00395325 0.000207032 0)
(-0.00496446 0.000229765 0)
(-0.00607257 0.000252887 0)
(-0.00727719 0.00027607 0)
(-0.00857629 0.000298943 0)
(-0.00996599 0.000321097 0)
(-0.0114405 0.000342092 0)
(-0.0129918 0.000361461 0)
(-0.0146102 0.000378722 0)
(-0.0162834 0.000393381 0)
(-0.0179975 0.000404941 0)
(-0.0197363 0.00041291 0)
(-0.021482 0.000416808 0)
(-0.023215 0.000416172 0)
(-0.0249142 0.000410566 0)
(-0.0265572 0.000399586 0)
(-0.0281207 0.000382872 0)
(-0.0295807 0.000360111 0)
(-0.0309127 0.000331047 0)
(-0.0320922 0.00029551 0)
(-0.033095 0.000253384 0)
(-0.0338978 0.000204601 0)
(-0.0344792 0.000149952 0)
(-0.0348184 9.14073e-05 0)
(-0.0348941 2.7457e-05 0)
(-0.0346915 -4.40177e-05 0)
(-0.0342017 -0.000119553 0)
(-0.0334142 -0.000197487 0)
(-0.0323251 -0.000276858 0)
(-0.0309357 -0.000356225 0)
(-0.0292527 -0.00043396 0)
(-0.0272887 -0.00050828 0)
(-0.0250626 -0.000577297 0)
(-0.0225994 -0.00063909 0)
(-0.0199304 -0.000691783 0)
(-0.0170925 -0.000733636 0)
(-0.014128 -0.000763136 0)
(-0.0110832 -0.000779089 0)
(-0.00800786 -0.000780708 0)
(-0.00495337 -0.000767679 0)
(-0.00197142 -0.000740212 0)
(0.000887648 -0.000699057 0)
(0.00357657 -0.000645491 0)
(0.00605274 -0.000581268 0)
(0.00827971 -0.000508535 0)
(0.0102284 -0.000429727 0)
(0.011878 -0.000347424 0)
(0.0132164 -0.000264218 0)
(0.0142407 -0.000182571 0)
(0.0149561 -0.000104659 0)
(0.0153761 -3.19771e-05 0)
(0.0155236 3.33134e-05 0)
(0.0154208 8.68539e-05 0)
(0.0150968 0.000132168 0)
(0.0145879 0.000170467 0)
(0.0139279 0.000200018 0)
(0.01315 0.0002209 0)
(0.0122865 0.000233965 0)
(0.0113676 0.000240139 0)
(0.0104203 0.00024042 0)
(0.00946798 0.000235842 0)
(0.00853021 0.000227418 0)
(0.00762269 0.000216101 0)
(0.00675738 0.00020276 0)
(0.00594282 0.000188162 0)
(0.00518444 0.000172965 0)
(0.004485 0.000157723 0)
(0.003845 0.000142884 0)
(0.00326309 0.000128801 0)
(0.00273651 0.000115734 0)
(0.0022615 0.000103834 0)
(0.00183379 9.31326e-05 0)
(0.0014492 8.35012e-05 0)
(0.00110434 7.46124e-05 0)
(0.00079751 6.59002e-05 0)
(0.000529553 5.6544e-05 0)
(0.000304657 4.55489e-05 0)
(0.000130576 3.19802e-05 0)
(1.72552e-05 1.55047e-05 0)
(-2.87797e-05 -2.04034e-06 0)
(-1.27182e-05 -1.27444e-05 0)
(1.03376e-05 -1.94519e-05 0)
(0.000136899 -0.000139448 0)
(0.000408361 -0.000276711 0)
(0.000815203 -0.000386501 0)
(0.00131804 -0.000460804 0)
(0.001881 -0.000499708 0)
(0.00246778 -0.000507019 0)
(0.00304644 -0.00048822 0)
(0.00359098 -0.000449517 0)
(0.00408207 -0.00039721 0)
(0.00450696 -0.000337267 0)
(0.00485909 -0.000274963 0)
(0.00513721 -0.000214604 0)
(0.00534426 -0.000159355 0)
(0.00548609 -0.000111167 0)
(0.00557012 -7.07947e-05 0)
(0.00560399 -3.79278e-05 0)
(0.00559458 -1.14457e-05 0)
(0.00554694 1.056e-05 0)
(0.00546372 3.06075e-05 0)
(0.00534446 5.15674e-05 0)
(0.00518566 7.58313e-05 0)
(0.00498118 0.000105679 0)
(0.00472229 0.000143062 0)
(0.00439812 0.000189499 0)
(0.00399625 0.000246086 0)
(0.00350314 0.000313569 0)
(0.00290449 0.000392441 0)
(0.00218556 0.000483039 0)
(0.00133131 0.000585624 0)
(0.000326644 0.000700403 0)
(-0.000843526 0.00082752 0)
(-0.00219401 0.000967003 0)
(-0.00373907 0.0011187 0)
(-0.00549208 0.00128218 0)
(-0.00746507 0.00145672 0)
(-0.0096682 0.00164117 0)
(-0.0121092 0.00183398 0)
(-0.014793 0.00203316 0)
(-0.0177207 0.00223625 0)
(-0.0208897 0.00244039 0)
(-0.0242929 0.00264229 0)
(-0.0279181 0.00283829 0)
(-0.0317485 0.00302449 0)
(-0.0357617 0.00319672 0)
(-0.0399306 0.00335072 0)
(-0.0442227 0.00348218 0)
(-0.0486013 0.00358688 0)
(-0.0530253 0.00366075 0)
(-0.05745 0.00369997 0)
(-0.0618275 0.00370109 0)
(-0.0661081 0.00366104 0)
(-0.07024 0.00357724 0)
(-0.074171 0.00344763 0)
(-0.0778488 0.00327073 0)
(-0.0812217 0.00304566 0)
(-0.0842396 0.00277218 0)
(-0.0868546 0.00245072 0)
(-0.0890214 0.00208244 0)
(-0.0906985 0.00166927 0)
(-0.091848 0.00121383 0)
(-0.0924364 0.000719975 0)
(-0.0924383 0.000193726 0)
(-0.091833 -0.000359704 0)
(-0.0906004 -0.00093796 0)
(-0.0887349 -0.00153162 0)
(-0.0862365 -0.00213237 0)
(-0.083113 -0.00273094 0)
(-0.0793808 -0.00331739 0)
(-0.0750653 -0.00388114 0)
(-0.0702011 -0.00441114 0)
(-0.0648324 -0.00489614 0)
(-0.0590126 -0.00532502 0)
(-0.0528039 -0.00568713 0)
(-0.0462771 -0.00597267 0)
(-0.0395105 -0.0061732 0)
(-0.0325889 -0.00628197 0)
(-0.0256017 -0.0062944 0)
(-0.0186419 -0.0062084 0)
(-0.0118033 -0.00602466 0)
(-0.00517903 -0.00574677 0)
(0.00114141 -0.00538127 0)
(0.00707417 -0.0049375 0)
(0.0125435 -0.00442733 0)
(0.0174838 -0.00386473 0)
(0.0218419 -0.00326519 0)
(0.025578 -0.00264509 0)
(0.0286675 -0.00202101 0)
(0.0311008 -0.00140896 0)
(0.0328838 -0.000823788 0)
(0.0340358 -0.000278865 0)
(0.0345906 0.000212334 0)
(0.034598 0.000646343 0)
(0.0341119 0.00101887 0)
(0.0331931 0.00132471 0)
(0.0319102 0.00156376 0)
(0.0303325 0.00173864 0)
(0.0285288 0.00185376 0)
(0.0265646 0.00191501 0)
(0.0245009 0.0019293 0)
(0.0223918 0.00190408 0)
(0.0202844 0.00184694 0)
(0.0182179 0.00176523 0)
(0.0162233 0.00166585 0)
(0.0143241 0.001555 0)
(0.0125364 0.00143812 0)
(0.0108701 0.00131982 0)
(0.00932954 0.00120385 0)
(0.00791454 0.00109307 0)
(0.00662149 0.000989338 0)
(0.0054447 0.000893377 0)
(0.00437783 0.000804533 0)
(0.00341564 0.00072053 0)
(0.00255577 0.000637298 0)
(0.00180063 0.00054907 0)
(0.00115866 0.000449139 0)
(0.000644301 0.000331817 0)
(0.000274044 0.000196816 0)
(6.27393e-05 5.73598e-05 0)
(-9.49226e-07 -2.7793e-05 0)
(2.8124e-05 -0.000109831 0)
(0.000268976 -0.000408678 0)
(0.000699552 -0.000708693 0)
(0.001306 -0.00094817 0)
(0.00203123 -0.00111103 0)
(0.00283018 -0.00119595 0)
(0.00365553 -0.00120972 0)
(0.00446482 -0.00116343 0)
(0.00522279 -0.00107033 0)
(0.00590247 -0.000944248 0)
(0.00648533 -0.00079852 0)
(0.00696082 -0.000645076 0)
(0.00732534 -0.000493756 0)
(0.00758082 -0.000351876 0)
(0.00773301 -0.000224009 0)
(0.00778972 -0.000111999 0)
(0.00775906 -1.51249e-05 0)
(0.00764793 6.95076e-05 0)
(0.00746076 0.000146389 0)
(0.00719847 0.000221191 0)
(0.00685778 0.000299963 0)
(0.00643117 0.000388939 0)
(0.00590716 0.000493746 0)
(0.00527061 0.000619142 0)
(0.00450342 0.000768874 0)
(0.00358522 0.000945683 0)
(0.00249409 0.00115142 0)
(0.00120713 0.00138726 0)
(-0.00029899 0.00165387 0)
(-0.00204757 0.00195154 0)
(-0.00406151 0.00228023 0)
(-0.00636279 0.00263954 0)
(-0.00897192 0.00302852 0)
(-0.0119073 0.00344556 0)
(-0.0151846 0.00388818 0)
(-0.0188155 0.00435293 0)
(-0.0228073 0.00483526 0)
(-0.0271618 0.00532949 0)
(-0.0318744 0.00582883 0)
(-0.0369337 0.00632543 0)
(-0.0423207 0.00681051 0)
(-0.0480087 0.00727457 0)
(-0.0539632 0.00770753 0)
(-0.0601421 0.00809906 0)
(-0.0664962 0.00843883 0)
(-0.07297 0.00871679 0)
(-0.0795025 0.00892347 0)
(-0.0860285 0.00905022 0)
(-0.09248 0.00908942 0)
(-0.0987872 0.00903471 0)
(-0.10488 0.00888105 0)
(-0.110688 0.00862487 0)
(-0.116146 0.00826403 0)
(-0.121187 0.00779788 0)
(-0.125751 0.00722717 0)
(-0.129783 0.00655406 0)
(-0.133229 0.00578201 0)
(-0.136045 0.00491576 0)
(-0.13819 0.00396129 0)
(-0.139629 0.00292582 0)
(-0.140333 0.00181779 0)
(-0.14028 0.000646315 0)
(-0.139453 -0.000578014 0)
(-0.137847 -0.00184071 0)
(-0.135457 -0.00312927 0)
(-0.132287 -0.00442984 0)
(-0.12835 -0.00572647 0)
(-0.123665 -0.00700172 0)
(-0.11826 -0.00823719 0)
(-0.112171 -0.00941366 0)
(-0.105442 -0.0105114 0)
(-0.098125 -0.0115103 0)
(-0.0902821 -0.0123909 0)
(-0.0819824 -0.0131343 0)
(-0.0733036 -0.0137232 0)
(-0.0643307 -0.0141422 0)
(-0.0551554 -0.0143791 0)
(-0.0458746 -0.0144249 0)
(-0.0365898 -0.014275 0)
(-0.0274046 -0.0139291 0)
(-0.0184233 -0.0133921 0)
(-0.00974861 -0.0126739 0)
(-0.00147957 -0.0117897 0)
(0.0062909 -0.0107592 0)
(0.0134782 -0.00960648 0)
(0.020008 -0.00835896 0)
(0.0258186 -0.00704672 0)
(0.0308623 -0.00570124 0)
(0.0351066 -0.00435432 0)
(0.0385354 -0.00303693 0)
(0.0411485 -0.00177774 0)
(0.0429649 -0.000600819 0)
(0.0440195 0.000472361 0)
(0.0443566 0.00142162 0)
(0.0440363 0.00223727 0)
(0.0431316 0.00291339 0)
(0.0417215 0.00344875 0)
(0.0398893 0.00384705 0)
(0.0377205 0.00411631 0)
(0.0352989 0.00426794 0)
(0.0327043 0.00431584 0)
(0.0300098 0.00427548 0)
(0.0272805 0.00416295 0)
(0.0245719 0.00399421 0)
(0.0219294 0.0037844 0)
(0.0193886 0.00354738 0)
(0.0169751 0.00329539 0)
(0.0147062 0.00303879 0)
(0.0125915 0.00278577 0)
(0.0106343 0.00254214 0)
(0.008834 0.00231087 0)
(0.00718743 0.00209169 0)
(0.00569166 0.00188058 0)
(0.00434619 0.00166966 0)
(0.0031553 0.00144758 0)
(0.00212948 0.00120139 0)
(0.00128552 0.000920479 0)
(0.000640696 0.000604515 0)
(0.000222136 0.000276336 0)
(1.94481e-05 2.62336e-05 0)
(4.17764e-05 -0.000260606 0)
(0.000376076 -0.000810505 0)
(0.000937205 -0.00131488 0)
(0.00170144 -0.00171013 0)
(0.00259301 -0.00197582 0)
(0.00355917 -0.00211043 0)
(0.00454499 -0.0021245 0)
(0.00550133 -0.00203574 0)
(0.00638716 -0.00186574 0)
(0.00717067 -0.00163741 0)
(0.00782942 -0.001373 0)
(0.00834983 -0.00109251 0)
(0.008726 -0.000812516 0)
(0.00895803 -0.000545356 0)
(0.00905018 -0.000298726 0)
(0.00900879 -7.56553e-05 0)
(0.00884024 0.000125176 0)
(0.00854912 0.000308914 0)
(0.00813683 0.000483595 0)
(0.00760043 0.000659173 0)
(0.0069319 0.000846533 0)
(0.00611807 0.00105654 0)
(0.00514091 0.00129912 0)
(0.00397811 0.00158272 0)
(0.00260394 0.00191395 0)
(0.000990145 0.0022976 0)
(-0.000893041 0.00273679 0)
(-0.00307608 0.00323323 0)
(-0.00558926 0.00378754 0)
(-0.00846193 0.00439933 0)
(-0.0117217 0.00506726 0)
(-0.0153933 0.00578889 0)
(-0.019498 0.00656042 0)
(-0.0240519 0.00737643 0)
(-0.0290652 0.00822963 0)
(-0.0345409 0.00911069 0)
(-0.0404734 0.0100082 0)
(-0.0468478 0.0109086 0)
(-0.0536392 0.0117968 0)
(-0.0608126 0.0126558 0)
(-0.0683224 0.0134678 0)
(-0.0761134 0.0142143 0)
(-0.0841215 0.0148767 0)
(-0.0922753 0.015437 0)
(-0.100497 0.0158786 0)
(-0.108706 0.0161863 0)
(-0.116819 0.016347 0)
(-0.124751 0.0163503 0)
(-0.132421 0.0161882 0)
(-0.139751 0.0158556 0)
(-0.146665 0.01535 0)
(-0.153097 0.0146716 0)
(-0.158983 0.0138228 0)
(-0.164268 0.0128082 0)
(-0.168902 0.0116344 0)
(-0.172843 0.0103096 0)
(-0.176056 0.00884326 0)
(-0.17851 0.00724646 0)
(-0.180181 0.00553127 0)
(-0.181051 0.00371102 0)
(-0.181106 0.00180022 0)
(-0.180339 -0.000185678 0)
(-0.178744 -0.00223064 0)
(-0.176323 -0.0043168 0)
(-0.173084 -0.0064228 0)
(-0.169037 -0.00852802 0)
(-0.164198 -0.0106101 0)
(-0.158589 -0.0126449 0)
(-0.152238 -0.0146069 0)
(-0.145179 -0.0164695 0)
(-0.137454 -0.018205 0)
(-0.12911 -0.0197855 0)
(-0.120204 -0.0211832 0)
(-0.1108 -0.0223712 0)
(-0.10097 -0.0233243 0)
(-0.0907926 -0.0240201 0)
(-0.0803548 -0.0244397 0)
(-0.0697497 -0.0245689 0)
(-0.0590755 -0.0243988 0)
(-0.0484346 -0.0239271 0)
(-0.0379319 -0.023158 0)
(-0.0276724 -0.0221032 0)
(-0.01776 -0.0207816 0)
(-0.0082946 -0.0192188 0)
(0.000629474 -0.0174474 0)
(0.00892596 -0.0155049 0)
(0.0165184 -0.0134338 0)
(0.0233419 -0.0112791 0)
(0.0293449 -0.00908793 0)
(0.03449 -0.00690699 0)
(0.0387555 -0.00478143 0)
(0.0421364 -0.00275311 0)
(0.0446407 -0.000861191 0)
(0.0462956 0.000860995 0)
(0.0471451 0.00239008 0)
(0.0472438 0.00370816 0)
(0.0466604 0.00480476 0)
(0.045474 0.0056775 0)
(0.0437708 0.00633149 0)
(0.0416413 0.00677848 0)
(0.0391769 0.00703579 0)
(0.0364668 0.00712496 0)
(0.0335948 0.00707029 0)
(0.0306371 0.00689746 0)
(0.0276606 0.00663217 0)
(0.0247213 0.00629905 0)
(0.0218644 0.00592069 0)
(0.0191243 0.00551698 0)
(0.0165255 0.00510433 0)
(0.0140838 0.00469503 0)
(0.0118085 0.00429652 0)
(0.00970433 0.00391057 0)
(0.00777425 0.00353263 0)
(0.00602205 0.00315169 0)
(0.00445511 0.00275116 0)
(0.00308632 0.00231171 0)
(0.00193497 0.00181703 0)
(0.00102065 0.00126428 0)
(0.000389906 0.00067932 0)
(4.08251e-05 0.000161769 0)
(5.161e-05 -0.000456788 0)
(0.000456003 -0.00131162 0)
(0.00111728 -0.0020469 0)
(0.00200026 -0.00260778 0)
(0.00301098 -0.00297561 0)
(0.00408867 -0.00315182 0)
(0.00517181 -0.00315235 0)
(0.00620633 -0.00300259 0)
(0.0071474 -0.00273325 0)
(0.00796021 -0.00237697 0)
(0.0086199 -0.00196546 0)
(0.0091108 -0.00152723 0)
(0.00942505 -0.00108581 0)
(0.00956073 -0.000658609 0)
(0.00951978 -0.000256304 0)
(0.00930572 0.000117249 0)
(0.00892154 0.000464537 0)
(0.00836771 0.000793593 0)
(0.00764059 0.00111675 0)
(0.00673137 0.00144915 0)
(0.00562544 0.00180719 0)
(0.00430242 0.00220711 0)
(0.00273663 0.00266365 0)
(0.000897943 0.00318921 0)
(-0.00124711 0.00379333 0)
(-0.00373408 0.00448265 0)
(-0.00659936 0.00526105 0)
(-0.00987894 0.00613 0)
(-0.0136072 0.00708884 0)
(-0.0178155 0.00813486 0)
(-0.022531 0.0092633 0)
(-0.0277752 0.010467 0)
(-0.0335621 0.0117362 0)
(-0.039897 0.013058 0)
(-0.0467747 0.0144163 0)
(-0.0541785 0.015792 0)
(-0.0620793 0.0171626 0)
(-0.0704349 0.0185033 0)
(-0.0791909 0.0197871 0)
(-0.0882806 0.0209859 0)
(-0.0976272 0.0220717 0)
(-0.107145 0.023017 0)
(-0.116744 0.0237961 0)
(-0.126328 0.0243864 0)
(-0.135802 0.0247683 0)
(-0.145074 0.0249266 0)
(-0.154054 0.0248502 0)
(-0.162659 0.0245324 0)
(-0.170813 0.0239706 0)
(-0.178449 0.0231662 0)
(-0.185508 0.0221241 0)
(-0.19194 0.0208518 0)
(-0.197701 0.0193594 0)
(-0.202757 0.017659 0)
(-0.20708 0.0157638 0)
(-0.210646 0.0136885 0)
(-0.213439 0.0114485 0)
(-0.215444 0.00905978 0)
(-0.216653 0.00653916 0)
(-0.217057 0.00390405 0)
(-0.216655 0.00117264 0)
(-0.215442 -0.00163574 0)
(-0.213421 -0.00450066 0)
(-0.210594 -0.00740125 0)
(-0.206966 -0.0103137 0)
(-0.202546 -0.0132128 0)
(-0.197346 -0.0160716 0)
(-0.19138 -0.0188611 0)
(-0.18467 -0.0215504 0)
(-0.17724 -0.0241067 0)
(-0.169122 -0.0264959 0)
(-0.160354 -0.0286827 0)
(-0.150983 -0.0306318 0)
(-0.141061 -0.0323084 0)
(-0.130651 -0.0336793 0)
(-0.119823 -0.0347141 0)
(-0.108657 -0.0353865 0)
(-0.0972399 -0.0356757 0)
(-0.0856647 -0.0355673 0)
(-0.0740315 -0.0350547 0)
(-0.0624442 -0.0341398 0)
(-0.051009 -0.0328339 0)
(-0.0398326 -0.0311572 0)
(-0.0290195 -0.0291395 0)
(-0.0186702 -0.0268188 0)
(-0.00887913 -0.0242409 0)
(0.000267763 -0.0214576 0)
(0.00869422 -0.0185255 0)
(0.0163353 -0.0155042 0)
(0.0231385 -0.0124543 0)
(0.0290648 -0.00943606 0)
(0.0340892 -0.00650729 0)
(0.0382005 -0.00372203 0)
(0.0414035 -0.0011262 0)
(0.0437186 0.00123806 0)
(0.0451797 0.00333815 0)
(0.0458356 0.00515114 0)
(0.0457485 0.0066637 0)
(0.0449922 0.00787247 0)
(0.0436494 0.00878381 0)
(0.0418096 0.00941292 0)
(0.0395651 0.00978255 0)
(0.0370081 0.00992136 0)
(0.0342276 0.00986206 0)
(0.0313059 0.00963949 0)
(0.028317 0.00928877 0)
(0.0253244 0.00884362 0)
(0.0223809 0.00833488 0)
(0.0195282 0.00778915 0)
(0.0167976 0.00722746 0)
(0.0142121 0.00666398 0)
(0.0117877 0.00610478 0)
(0.00953654 0.00554688 0)
(0.00746937 0.00497799 0)
(0.00559889 0.00437762 0)
(0.00394224 0.00372063 0)
(0.00252336 0.00298379 0)
(0.00136704 0.00215716 0)
(0.000542578 0.00125926 0)
(5.99334e-05 0.000377113 0)
(5.84202e-05 -0.000685956 0)
(0.000512996 -0.00188766 0)
(0.00124648 -0.00287471 0)
(0.00221259 -0.00360578 0)
(0.00330078 -0.00406899 0)
(0.0044418 -0.00427229 0)
(0.00556781 -0.00423941 0)
(0.00662056 -0.00400498 0)
(0.00755248 -0.0036099 0)
(0.00832699 -0.00309722 0)
(0.00891785 -0.00250844 0)
(0.00930811 -0.0018806 0)
(0.00948833 -0.00124401 0)
(0.00945449 -0.000620736 0)
(0.00920566 -2.37921e-05 0)
(0.00874158 0.000542884 0)
(0.00806044 0.00108386 0)
(0.00715687 0.00161098 0)
(0.00602048 0.00214171 0)
(0.00463483 0.0026971 0)
(0.00297716 0.00329968 0)
(0.00101868 0.00397137 0)
(-0.00127466 0.00473178 0)
(-0.00394084 0.00559698 0)
(-0.00702031 0.00657882 0)
(-0.0105544 0.0076848 0)
(-0.0145834 0.0089182 0)
(-0.0191453 0.0102784 0)
(-0.0242735 0.0117613 0)
(-0.0299954 0.0133588 0)
(-0.0363303 0.0150594 0)
(-0.0432873 0.0168473 0)
(-0.0508636 0.0187023 0)
(-0.0590428 0.0205996 0)
(-0.0677938 0.0225099 0)
(-0.0770702 0.0244001 0)
(-0.0868103 0.0262338 0)
(-0.0969387 0.0279724 0)
(-0.107368 0.029577 0)
(-0.118 0.0310093 0)
(-0.128733 0.0322335 0)
(-0.139461 0.0332176 0)
(-0.150078 0.0339348 0)
(-0.160483 0.0343637 0)
(-0.170583 0.0344893 0)
(-0.180293 0.034303 0)
(-0.189536 0.0338019 0)
(-0.198249 0.0329884 0)
(-0.206377 0.0318699 0)
(-0.213877 0.0304571 0)
(-0.220715 0.0287638 0)
(-0.226862 0.0268058 0)
(-0.232299 0.0246005 0)
(-0.237011 0.0221659 0)
(-0.240986 0.0195204 0)
(-0.244218 0.0166826 0)
(-0.246699 0.0136711 0)
(-0.248426 0.0105044 0)
(-0.249395 0.00720111 0)
(-0.249603 0.00378005 0)
(-0.249048 0.000260652 0)
(-0.247726 -0.00333669 0)
(-0.245635 -0.00699047 0)
(-0.242774 -0.0106776 0)
(-0.239141 -0.014373 0)
(-0.234739 -0.0180492 0)
(-0.229569 -0.0216761 0)
(-0.223638 -0.0252211 0)
(-0.216955 -0.0286487 0)
(-0.209533 -0.0319207 0)
(-0.201393 -0.0349968 0)
(-0.192561 -0.0378345 0)
(-0.18307 -0.0403907 0)
(-0.172962 -0.0426219 0)
(-0.16229 -0.0444861 0)
(-0.151114 -0.0459436 0)
(-0.139505 -0.0469592 0)
(-0.127543 -0.0475037 0)
(-0.115319 -0.0475552 0)
(-0.102929 -0.047101 0)
(-0.0904788 -0.0461388 0)
(-0.0780761 -0.0446773 0)
(-0.065832 -0.042737 0)
(-0.0538572 -0.0403499 0)
(-0.0422593 -0.0375586 0)
(-0.0311408 -0.0344157 0)
(-0.0205967 -0.0309817 0)
(-0.0107123 -0.0273233 0)
(-0.0015624 -0.0235117 0)
(0.00679016 -0.0196197 0)
(0.0142949 -0.0157205 0)
(0.020914 -0.0118852 0)
(0.0266227 -0.00818116 0)
(0.0314093 -0.00467002 0)
(0.0352755 -0.00140727 0)
(0.0382364 0.00156026 0)
(0.0403207 0.00419544 0)
(0.0415706 0.00647175 0)
(0.0420411 0.008374 0)
(0.0417994 0.00989867 0)
(0.0409226 0.0110538 0)
(0.0394959 0.0118579 0)
(0.0376091 0.0123389 0)
(0.0353538 0.012532 0)
(0.0328199 0.0124777 0)
(0.0300925 0.0122191 0)
(0.0272493 0.0117996 0)
(0.0243588 0.0112609 0)
(0.0214789 0.0106404 0)
(0.0186574 0.00996909 0)
(0.0159321 0.00926978 0)
(0.0133327 0.00855493 0)
(0.0108826 0.00782528 0)
(0.00860226 0.00706927 0)
(0.00651208 0.00626407 0)
(0.00463589 0.00537912 0)
(0.00300477 0.00438283 0)
(0.00165135 0.00325349 0)
(0.000667369 0.00199323 0)
(7.5381e-05 0.000660872 0)
(6.31628e-05 -0.000938225 0)
(0.000552402 -0.00251628 0)
(0.001334 -0.00376795 0)
(0.00235119 -0.00466735 0)
(0.00347879 -0.00521302 0)
(0.00463909 -0.00542282 0)
(0.00575818 -0.00533095 0)
(0.0067741 -0.0049832 0)
(0.00763729 -0.00443197 0)
(0.00831016 -0.00373136 0)
(0.00876591 -0.00293288 0)
(0.00898685 -0.00208186 0)
(0.00896223 -0.00121478 0)
(0.0086858 -0.00035747 0)
(0.00815322 0.000475744 0)
(0.00735948 0.00128203 0)
(0.0062967 0.00206917 0)
(0.00495221 0.00285393 0)
(0.00330729 0.00365981 0)
(0.0013365 0.00451442 0)
(-0.000992147 0.00544658 0)
(-0.00371643 0.00648374 0)
(-0.00687853 0.00764973 0)
(-0.0105232 0.00896316 0)
(-0.0146959 0.0104366 0)
(-0.0194403 0.0120765 0)
(-0.0247963 0.0138828 0)
(-0.030798 0.0158499 0)
(-0.0374708 0.0179662 0)
(-0.0448294 0.0202146 0)
(-0.0528757 0.0225719 0)
(-0.061596 0.0250087 0)
(-0.0709603 0.0274896 0)
(-0.0809207 0.0299736 0)
(-0.0914117 0.032415 0)
(-0.102351 0.0347646 0)
(-0.113644 0.0369716 0)
(-0.125183 0.038986 0)
(-0.136854 0.0407602 0)
(-0.148541 0.0422517 0)
(-0.160131 0.0434241 0)
(-0.171514 0.0442488 0)
(-0.182593 0.0447055 0)
(-0.193279 0.0447823 0)
(-0.203497 0.0444751 0)
(-0.213186 0.043787 0)
(-0.222296 0.0427271 0)
(-0.23079 0.041309 0)
(-0.238638 0.0395502 0)
(-0.245823 0.0374703 0)
(-0.252329 0.0350904 0)
(-0.25815 0.0324321 0)
(-0.26328 0.029517 0)
(-0.267716 0.0263663 0)
(-0.271457 0.0230004 0)
(-0.274502 0.019439 0)
(-0.276848 0.0157011 0)
(-0.278495 0.0118052 0)
(-0.279438 0.00776958 0)
(-0.279674 0.00361254 0)
(-0.279197 -0.000646955 0)
(-0.278001 -0.00498899 0)
(-0.27608 -0.00939227 0)
(-0.273425 -0.0138334 0)
(-0.27003 -0.0182866 0)
(-0.265888 -0.022723 0)
(-0.260992 -0.0271109 0)
(-0.255338 -0.0314146 0)
(-0.248925 -0.035595 0)
(-0.241756 -0.0396091 0)
(-0.233837 -0.0434108 0)
(-0.225182 -0.0469507 0)
(-0.21581 -0.0501777 0)
(-0.205752 -0.0530392 0)
(-0.195044 -0.0554833 0)
(-0.183737 -0.05746 0)
(-0.17189 -0.0589234 0)
(-0.159576 -0.0598336 0)
(-0.14688 -0.0601589 0)
(-0.133895 -0.059878 0)
(-0.120726 -0.0589814 0)
(-0.107484 -0.0574734 0)
(-0.0942875 -0.055372 0)
(-0.0812548 -0.0527099 0)
(-0.0685042 -0.0495333 0)
(-0.0561498 -0.0459008 0)
(-0.0442984 -0.0418815 0)
(-0.0330472 -0.0375525 0)
(-0.0224818 -0.0329964 0)
(-0.0126749 -0.0282987 0)
(-0.00368625 -0.0235451 0)
(0.00443807 -0.0188193 0)
(0.0116645 -0.0142013 0)
(0.017972 -0.00976558 0)
(0.0233513 -0.00557962 0)
(0.0278047 -0.00170274 0)
(0.0313461 0.00181503 0)
(0.0340013 0.00493434 0)
(0.0358081 0.00762749 0)
(0.0368159 0.00987918 0)
(0.037086 0.011687 0)
(0.0366898 0.0130615 0)
(0.0357072 0.0140247 0)
(0.034224 0.0146098 0)
(0.0323293 0.0148579 0)
(0.0301115 0.0148163 0)
(0.0276558 0.0145351 0)
(0.0250414 0.0140647 0)
(0.0223395 0.0134523 0)
(0.0196117 0.012739 0)
(0.0169104 0.011957 0)
(0.014279 0.0111264 0)
(0.0117538 0.0102536 0)
(0.00936651 0.00932939 0)
(0.00714723 0.00833002 0)
(0.00512879 0.00721996 0)
(0.00335135 0.00595808 0)
(0.00185707 0.00450727 0)
(0.000757414 0.00284677 0)
(8.64143e-05 0.000997261 0)
(6.64966e-05 -0.00120646 0)
(0.000578439 -0.00317925 0)
(0.00138735 -0.00469987 0)
(0.00242644 -0.00575877 0)
(0.00355763 -0.00636774 0)
(0.00469523 -0.0065576 0)
(0.00575977 -0.00637573 0)
(0.00668619 -0.0058812 0)
(0.00742355 -0.00513925 0)
(0.00793395 -0.00421577 0)
(0.00819054 -0.00317229 0)
(0.00817524 -0.00206196 0)
(0.00787606 -0.000926499 0)
(0.00728417 0.00020576 0)
(0.00639113 0.00132064 0)
(0.00518621 0.0024179 0)
(0.00365422 0.00350993 0)
(0.00177388 0.00461958 0)
(-0.000483045 0.00577718 0)
(-0.00315182 0.00701712 0)
(-0.00627395 0.00837425 0)
(-0.00989565 0.00988058 0)
(-0.0140657 0.0115625 0)
(-0.0188331 0.0134392 0)
(-0.0242441 0.0155209 0)
(-0.0303397 0.0178097 0)
(-0.0371528 0.0202985 0)
(-0.0447053 0.022972 0)
(-0.0530057 0.0258066 0)
(-0.062046 0.0287705 0)
(-0.0718001 0.0318237 0)
(-0.0822224 0.0349187 0)
(-0.093247 0.0380012 0)
(-0.104789 0.0410116 0)
(-0.116747 0.0438876 0)
(-0.129007 0.0465661 0)
(-0.141446 0.0489867 0)
(-0.153937 0.0510942 0)
(-0.166359 0.052841 0)
(-0.178593 0.0541889 0)
(-0.190535 0.0551102 0)
(-0.202094 0.0555879 0)
(-0.213192 0.0556152 0)
(-0.223768 0.0551942 0)
(-0.233775 0.0543349 0)
(-0.243178 0.0530532 0)
(-0.251955 0.0513695 0)
(-0.260092 0.0493071 0)
(-0.267579 0.0468906 0)
(-0.274415 0.0441456 0)
(-0.280598 0.0410969 0)
(-0.286133 0.0377688 0)
(-0.291019 0.0341841 0)
(-0.295262 0.0303643 0)
(-0.298862 0.0263298 0)
(-0.30182 0.0220994 0)
(-0.304136 0.017691 0)
(-0.305808 0.0131217 0)
(-0.306833 0.00840845 0)
(-0.307205 0.00356817 0)
(-0.306917 -0.00138159 0)
(-0.305962 -0.00642218 0)
(-0.304329 -0.0115332 0)
(-0.302006 -0.016692 0)
(-0.298983 -0.0218732 0)
(-0.295245 -0.0270478 0)
(-0.29078 -0.032183 0)
(-0.285574 -0.0372419 0)
(-0.279615 -0.0421827 0)
(-0.272895 -0.0469589 0)
(-0.265407 -0.0515195 0)
(-0.257149 -0.0558091 0)
(-0.248126 -0.059769 0)
(-0.238351 -0.0633377 0)
(-0.227844 -0.0664529 0)
(-0.21664 -0.0690531 0)
(-0.204784 -0.0710799 0)
(-0.192334 -0.0724806 0)
(-0.179365 -0.0732106 0)
(-0.165964 -0.0732366 0)
(-0.152233 -0.0725384 0)
(-0.138285 -0.0711118 0)
(-0.124242 -0.0689693 0)
(-0.110235 -0.0661412 0)
(-0.0963945 -0.0626751 0)
(-0.0828514 -0.0586345 0)
(-0.0697301 -0.0540968 0)
(-0.0571453 -0.0491501 0)
(-0.0451995 -0.0438902 0)
(-0.0339801 -0.0384165 0)
(-0.0235588 -0.0328293 0)
(-0.0139912 -0.0272263 0)
(-0.00531804 -0.0217007 0)
(0.00243391 -0.0163392 0)
(0.00925013 -0.0112206 0)
(0.0151271 -0.00641511 0)
(0.0200714 -0.0019833 0)
(0.0240993 0.00202464 0)
(0.0272369 0.00556988 0)
(0.0295202 0.00862592 0)
(0.030996 0.0111794 0)
(0.0317211 0.0132305 0)
(0.0317623 0.014793 0)
(0.0311949 0.0158936 0)
(0.0301005 0.0165701 0)
(0.0285644 0.0168694 0)
(0.0266728 0.0168445 0)
(0.0245095 0.016551 0)
(0.0221538 0.0160437 0)
(0.0196777 0.0153724 0)
(0.0171457 0.0145781 0)
(0.0146137 0.0136891 0)
(0.0121306 0.0127181 0)
(0.00973998 0.0116595 0)
(0.007483 0.0104898 0)
(0.00540287 0.00916874 0)
(0.00355 0.00764515 0)
(0.00197663 0.00586452 0)
(0.000809748 0.00377964 0)
(9.27367e-05 0.00136834 0)
(6.88069e-05 -0.00148538 0)
(0.000593635 -0.00386131 0)
(0.00141107 -0.00564631 0)
(0.00244441 -0.00684823 0)
(0.00354428 -0.00749462 0)
(0.00461779 -0.00763214 0)
(0.00558079 -0.00732397 0)
(0.00636587 -0.00664457 0)
(0.00692149 -0.0056734 0)
(0.00720998 -0.0044887 0)
(0.00720486 -0.00316191 0)
(0.00688777 -0.00175319 0)
(0.00624522 -0.000308222 0)
(0.00526529 0.00114374 0)
(0.00393455 0.00259043 0)
(0.00223549 0.0040359 0)
(0.000144492 0.00549864 0)
(-0.00236932 0.00700861 0)
(-0.00534431 0.00860336 0)
(-0.00882556 0.0103238 0)
(-0.0128632 0.0122096 0)
(-0.0175098 0.0142953 0)
(-0.0228175 0.0166072 0)
(-0.0288349 0.0191612 0)
(-0.0356032 0.0219616 0)
(-0.0431532 0.0250009 0)
(-0.0515022 0.0282601 0)
(-0.0606506 0.0317086 0)
(-0.0705798 0.035305 0)
(-0.0812496 0.0389979 0)
(-0.0925979 0.0427261 0)
(-0.104541 0.0464213 0)
(-0.116975 0.0500096 0)
(-0.12978 0.0534152 0)
(-0.142827 0.0565635 0)
(-0.155981 0.0593849 0)
(-0.169108 0.0618181 0)
(-0.182081 0.0638127 0)
(-0.194787 0.0653308 0)
(-0.207128 0.0663476 0)
(-0.219021 0.066851 0)
(-0.230401 0.0668403 0)
(-0.241222 0.0663247 0)
(-0.25145 0.065321 0)
(-0.261062 0.0638517 0)
(-0.270048 0.0619431 0)
(-0.278403 0.0596235 0)
(-0.286126 0.0569219 0)
(-0.293223 0.0538672 0)
(-0.299699 0.050487 0)
(-0.30556 0.0468076 0)
(-0.310813 0.0428535 0)
(-0.315464 0.0386471 0)
(-0.319519 0.0342093 0)
(-0.322983 0.0295592 0)
(-0.325858 0.0247141 0)
(-0.328146 0.0196906 0)
(-0.329847 0.0145042 0)
(-0.330959 0.00916981 0)
(-0.331479 0.00370271 0)
(-0.331401 -0.00188146 0)
(-0.330717 -0.00756593 0)
(-0.329416 -0.0133322 0)
(-0.327486 -0.0191593 0)
(-0.324912 -0.0250234 0)
(-0.321677 -0.0308968 0)
(-0.317761 -0.0367476 0)
(-0.313145 -0.0425389 0)
(-0.307806 -0.0482282 0)
(-0.301725 -0.0537674 0)
(-0.294879 -0.0591024 0)
(-0.287253 -0.0641735 0)
(-0.278832 -0.0689156 0)
(-0.26961 -0.0732592 0)
(-0.259588 -0.077132 0)
(-0.248777 -0.0804607 0)
(-0.237201 -0.0831731 0)
(-0.224901 -0.0852014 0)
(-0.211933 -0.0864854 0)
(-0.198369 -0.0869753 0)
(-0.184302 -0.086636 0)
(-0.169842 -0.0854495 0)
(-0.155112 -0.0834173 0)
(-0.140251 -0.0805626 0)
(-0.125405 -0.0769299 0)
(-0.110722 -0.0725846 0)
(-0.0963514 -0.0676107 0)
(-0.0824322 -0.0621073 0)
(-0.0690922 -0.0561845 0)
(-0.0564427 -0.0499585 0)
(-0.0445758 -0.0435475 0)
(-0.0335635 -0.0370668 0)
(-0.0234582 -0.030626 0)
(-0.0142939 -0.0243263 0)
(-0.00608926 -0.0182593 0)
(0.00115043 -0.0125058 0)
(0.00743033 -0.00713586 0)
(0.0127646 -0.00220852 0)
(0.0171751 0.00222871 0)
(0.0206917 0.00614024 0)
(0.0233519 0.00950314 0)
(0.0252021 0.012308 0)
(0.0262972 0.0145592 0)
(0.0267013 0.0162752 0)
(0.0264859 0.0174874 0)
(0.0257292 0.0182388 0)
(0.0245131 0.0185812 0)
(0.022921 0.0185721 0)
(0.0210349 0.0182703 0)
(0.0189333 0.0177321 0)
(0.0166887 0.0170055 0)
(0.0143676 0.0161263 0)
(0.01203 0.0151133 0)
(0.0097306 0.0139651 0)
(0.00752206 0.0126586 0)
(0.00545834 0.0111497 0)
(0.0036003 0.00937718 0)
(0.00200989 0.00726861 0)
(0.000824551 0.00474979 0)
(9.44191e-05 0.00175558 0)
(7.02288e-05 -0.00177057 0)
(0.000598848 -0.00454861 0)
(0.00140654 -0.00658425 0)
(0.0024066 -0.00790453 0)
(0.00343991 -0.00855535 0)
(0.00440746 -0.00860203 0)
(0.00522156 -0.00812618 0)
(0.00581353 -0.00721959 0)
(0.006132 -0.00597713 0)
(0.00614011 -0.00448975 0)
(0.00581195 -0.00283834 0)
(0.00512873 -0.00108899 0)
(0.004075 0.00071028 0)
(0.00263493 0.0025312 0)
(0.000789144 0.00436536 0)
(-0.0014877 0.00622288 0)
(-0.00422852 0.00812965 0)
(-0.00747423 0.0101234 0)
(-0.0112731 0.0122486 0)
(-0.0156786 0.0145514 0)
(-0.0207472 0.0170741 0)
(-0.026534 0.0198504 0)
(-0.0330894 0.0229023 0)
(-0.0404547 0.0262376 0)
(-0.0486581 0.0298491 0)
(-0.0577116 0.033714 0)
(-0.067607 0.037795 0)
(-0.0783139 0.0420409 0)
(-0.089778 0.0463876 0)
(-0.101921 0.0507602 0)
(-0.11464 0.0550755 0)
(-0.127816 0.0592452 0)
(-0.141313 0.0631805 0)
(-0.154988 0.0667959 0)
(-0.168698 0.0700142 0)
(-0.182304 0.0727696 0)
(-0.195682 0.0750105 0)
(-0.208722 0.0767009 0)
(-0.221333 0.0778202 0)
(-0.233445 0.0783618 0)
(-0.245004 0.0783318 0)
(-0.255973 0.0777459 0)
(-0.266331 0.0766274 0)
(-0.276065 0.0750047 0)
(-0.285172 0.072909 0)
(-0.293652 0.070373 0)
(-0.301512 0.0674295 0)
(-0.30876 0.0641103 0)
(-0.315407 0.0604459 0)
(-0.321463 0.0564645 0)
(-0.326938 0.0521926 0)
(-0.331843 0.0476541 0)
(-0.336189 0.0428712 0)
(-0.339985 0.0378635 0)