/*--------------------------------*- C++ -*----------------------------------*\
| =========                 |                                                 |
| \\      /  F ield         | OpenFOAM: The Open Source CFD Toolbox           |
|  \\    /   O peration     | Version:  2406                                  |
|   \\  /    A nd           | Website:  www.openfoam.com                      |
|    \\/     M anipulation  |                                                 |
\*---------------------------------------------------------------------------*/
FoamFile
{
    version     2.0;
    format      ascii;
    arch        "LSB;label=32;scalar=64";
    class       volVectorField;
    location    "31.25";
    object      U;
}
// * * * * * * * * * * * * * * * * * * * * * * * * * * * * * * * * * * * * * //

dimensions      [0 1 -1 0 0 0 0];

internalField   nonuniform List<vector> 
14400
(
(-1.52238e-05 1.51617e-05 0)
(4.92738e-06 -1.26318e-05 0)
(0.000111036 -4.12838e-05 0)
(0.00028651 -6.58908e-05 0)
(0.000520524 -7.99423e-05 0)
(0.000782346 -8.74755e-05 0)
(0.00105963 -8.78539e-05 0)
(0.00132985 -8.39057e-05 0)
(0.00158478 -7.60513e-05 0)
(0.00181175 -6.62555e-05 0)
(0.00200795 -5.52479e-05 0)
(0.00216921 -4.43692e-05 0)
(0.00229761 -3.42064e-05 0)
(0.00239481 -2.54865e-05 0)
(0.00246578 -1.84277e-05 0)
(0.00251481 -1.32011e-05 0)
(0.00254726 -9.64416e-06 0)
(0.00256722 -7.51916e-06 0)
(0.00257835 -6.40542e-06 0)
(0.00258262 -5.85706e-06 0)
(0.00258083 -5.37753e-06 0)
(0.00257217 -4.51811e-06 0)
(0.00255457 -2.87656e-06 0)
(0.00252477 -1.45464e-07 0)
(0.00247869 3.90042e-06 0)
(0.00241156 9.40064e-06 0)
(0.00231823 1.6439e-05 0)
(0.00219328 2.50629e-05 0)
(0.00203112 3.53115e-05 0)
(0.001826 4.7229e-05 0)
(0.00157205 6.08733e-05 0)
(0.00126325 7.63115e-05 0)
(0.000893451 9.36107e-05 0)
(0.000456432 0.000112824 0)
(-5.39951e-05 0.000133978 0)
(-0.000643859 0.000157058 0)
(-0.00131886 0.000182001 0)
(-0.00208418 0.000208688 0)
(-0.00294425 0.000236936 0)
(-0.00390257 0.000266497 0)
(-0.00496143 0.000297056 0)
(-0.00612175 0.000328228 0)
(-0.00738283 0.000359567 0)
(-0.00874216 0.000390562 0)
(-0.0101953 0.000420653 0)
(-0.0117358 0.00044923 0)
(-0.0133549 0.000475654 0)
(-0.0150418 0.000499256 0)
(-0.0167837 0.000519359 0)
(-0.0185653 0.000535285 0)
(-0.0203696 0.000546364 0)
(-0.0221778 0.000551948 0)
(-0.0239692 0.000551419 0)
(-0.0257218 0.000544199 0)
(-0.0274124 0.000529759 0)
(-0.0290169 0.000507628 0)
(-0.0305103 0.00047741 0)
(-0.0318677 0.000438795 0)
(-0.0330639 0.000391577 0)
(-0.0340743 0.000335677 0)
(-0.034875 0.000271165 0)
(-0.0354437 0.000198287 0)
(-0.0357595 0.000117488 0)
(-0.0358042 2.94441e-05 0)
(-0.0355623 -6.49175e-05 0)
(-0.035022 -0.0001644 0)
(-0.0341752 -0.000267528 0)
(-0.0330189 -0.000372545 0)
(-0.0315552 -0.000477431 0)
(-0.0297919 -0.000579934 0)
(-0.0277428 -0.000677619 0)
(-0.0254282 -0.000767941 0)
(-0.0228748 -0.00084833 0)
(-0.0201154 -0.000916298 0)
(-0.0171887 -0.00096956 0)
(-0.0141386 -0.00100615 0)
(-0.0110132 -0.00102456 0)
(-0.00786379 -0.00102382 0)
(-0.00474312 -0.00100361 0)
(-0.00170407 -0.000964336 0)
(0.00120211 -0.000907097 0)
(0.00392759 -0.000833702 0)
(0.00642949 -0.000746581 0)
(0.00867148 -0.000648676 0)
(0.0106249 -0.000543284 0)
(0.0122697 -0.000433887 0)
(0.0135948 -0.000323961 0)
(0.0145983 -0.000216798 0)
(0.0152872 -0.000115342 0)
(0.0156761 -2.20662e-05 0)
(0.015787 6.11184e-05 0)
(0.0156472 0.000132901 0)
(0.0152879 0.000192573 0)
(0.0147433 0.000239981 0)
(0.0140483 0.00027547 0)
(0.0132374 0.000299779 0)
(0.0123438 0.000313959 0)
(0.0113979 0.000319261 0)
(0.0104268 0.000317056 0)
(0.00945424 0.000308733 0)
(0.00849953 0.000295662 0)
(0.00757837 0.000279099 0)
(0.00670241 0.000260207 0)
(0.00588011 0.000239957 0)
(0.00511641 0.000219229 0)
(0.0044141 0.000198673 0)
(0.00377299 0.000178917 0)
(0.00319201 0.000160307 0)
(0.00266738 0.000143288 0)
(0.00219606 0.000127878 0)
(0.00177218 0.000114359 0)
(0.00139304 0.000102219 0)
(0.00105273 9.14971e-05 0)
(0.000752197 8.07105e-05 0)
(0.000488522 6.96333e-05 0)
(0.000270252 5.52725e-05 0)
(0.000100503 3.80499e-05 0)
(-5.3309e-06 1.42885e-05 0)
(-4.32461e-05 -8.02172e-06 0)
(-2.20691e-05 -2.16437e-05 0)
(1.16181e-05 -4.36816e-06 0)
(0.000150033 -0.000152597 0)
(0.000463941 -0.0002971 0)
(0.000911503 -0.00042116 0)
(0.00147784 -0.000500333 0)
(0.00210476 -0.000543727 0)
(0.00276438 -0.000549926 0)
(0.00341062 -0.000528864 0)
(0.00402143 -0.000484908 0)
(0.00456919 -0.00042681 0)
(0.00504371 -0.000360128 0)
(0.00543471 -0.000291572 0)
(0.0057434 -0.000225447 0)
(0.00597196 -0.000165643 0)
(0.00612872 -0.000114058 0)
(0.00622178 -7.16514e-05 0)
(0.00626098 -3.78717e-05 0)
(0.00625406 -1.13387e-05 0)
(0.00620738 1.02286e-05 0)
(0.00612393 2.94958e-05 0)
(0.00600372 4.93773e-05 0)
(0.00584316 7.26575e-05 0)
(0.0056356 0.000101849 0)
(0.00537151 0.000139 0)
(0.00503921 0.000185675 0)
(0.00462527 0.000242961 0)
(0.00411517 0.000311573 0)
(0.0034936 0.00039196 0)
(0.00274483 0.000484425 0)
(0.00185288 0.000589193 0)
(0.000801737 0.000706441 0)
(-0.00042452 0.000836273 0)
(-0.00184145 0.000978665 0)
(-0.00346396 0.00113339 0)
(-0.00530587 0.00129992 0)
(-0.00737945 0.00147741 0)
(-0.0096949 0.00166459 0)
(-0.0122597 0.00185975 0)
(-0.0150781 0.00206073 0)
(-0.0181505 0.00226494 0)
(-0.0214729 0.00246933 0)
(-0.0250367 0.00267049 0)
(-0.028828 0.00286465 0)
(-0.0328277 0.0030478 0)
(-0.0370113 0.00321574 0)
(-0.041349 0.00336421 0)
(-0.045806 0.00348895 0)
(-0.0503428 0.00358584 0)
(-0.0549158 0.00365096 0)
(-0.0594779 0.00368071 0)
(-0.0639791 0.00367185 0)
(-0.0683675 0.00362159 0)
(-0.0725899 0.00352764 0)
(-0.0765925 0.00338824 0)
(-0.080322 0.0032022 0)
(-0.083726 0.00296893 0)
(-0.0867542 0.00268849 0)
(-0.0893584 0.00236157 0)
(-0.0914938 0.00198956 0)
(-0.0931192 0.00157456 0)
(-0.0941978 0.00111945 0)
(-0.094698 0.000627881 0)
(-0.0945934 0.000104373 0)
(-0.0938638 -0.000445687 0)
(-0.0924958 -0.00101601 0)
(-0.0904832 -0.00159938 0)
(-0.0878276 -0.00218769 0)
(-0.0845389 -0.002772 0)
(-0.0806356 -0.00334259 0)
(-0.0761456 -0.00388916 0)
(-0.0711058 -0.00440096 0)
(-0.0655626 -0.00486712 0)
(-0.0595718 -0.00527687 0)
(-0.0531978 -0.00562001 0)
(-0.0465136 -0.0058872 0)
(-0.0395994 -0.00607044 0)
(-0.0325417 -0.00616348 0)
(-0.0254315 -0.00616219 0)
(-0.018363 -0.00606492 0)
(-0.011431 -0.00587271 0)
(-0.00472898 -0.00558946 0)
(0.00165325 -0.00522193 0)
(0.00763201 -0.00477955 0)
(0.0131321 -0.00427417 0)
(0.0180888 -0.00371959 0)
(0.0224499 -0.00313102 0)
(0.0261772 -0.00252446 0)
(0.0292472 -0.00191595 0)
(0.031652 -0.00132094 0)
(0.033399 -0.000753631 0)
(0.0345104 -0.000226386 0)
(0.0350218 0.000250662 0)
(0.0349804 0.00066994 0)
(0.0344432 0.00102655 0)
(0.0334741 0.00131828 0)
(0.0321417 0.00154539 0)
(0.030516 0.0017104 0)
(0.0286665 0.00181765 0)
(0.0266595 0.00187292 0)
(0.0245563 0.00188291 0)
(0.0224116 0.00185488 0)
(0.0202729 0.00179617 0)
(0.0181791 0.00171395 0)
(0.0161617 0.00161483 0)
(0.0142438 0.00150491 0)
(0.012442 0.00138933 0)
(0.0107653 0.0012727 0)
(0.00921874 0.00115841 0)
(0.00780064 0.00104954 0)
(0.00650885 0.000947445 0)
(0.00533531 0.000853445 0)
(0.00427637 0.000766014 0)
(0.00332287 0.00068429 0)
(0.00247712 0.000602462 0)
(0.00173495 0.000517868 0)
(0.00111189 0.000419836 0)
(0.00061133 0.000309272 0)
(0.000259561 0.00017633 0)
(5.33241e-05 5.07046e-05 0)
(-8.13479e-06 -4.31716e-05 0)
(3.81306e-05 -0.000106481 0)
(0.000287516 -0.000464369 0)
(0.000786108 -0.000798555 0)
(0.0014532 -0.00107774 0)
(0.00227267 -0.00126245 0)
(0.0031654 -0.00136186 0)
(0.00409571 -0.00137606 0)
(0.00500235 -0.00132275 0)
(0.00585484 -0.00121412 0)
(0.0066157 -0.00106855 0)
(0.00726924 -0.000900377 0)
(0.00780037 -0.000724604 0)
(0.0082083 -0.000552212 0)
(0.00849413 -0.000392191 0)
(0.00866663 -0.000249562 0)
(0.00873457 -0.000126558 0)
(0.00870871 -2.21139e-05 0)
(0.00859712 6.71592e-05 0)
(0.00840577 0.000146714 0)
(0.00813594 0.000223139 0)
(0.00778474 0.000303601 0)
(0.00734415 0.000395075 0)
(0.00680185 0.000503874 0)
(0.00614144 0.00063524 0)
(0.00534342 0.000793221 0)
(0.00438585 0.000980687 0)
(0.00324526 0.00119952 0)
(0.00189722 0.00145085 0)
(0.000316951 0.00173527 0)
(-0.0015202 0.00205299 0)
(-0.00363831 0.00240386 0)
(-0.00606033 0.0027873 0)
(-0.00880753 0.00320214 0)
(-0.0118987 0.00364646 0)
(-0.0153495 0.00411738 0)
(-0.0191711 0.00461096 0)
(-0.02337 0.00512207 0)
(-0.0279464 0.0056444 0)
(-0.0328937 0.00617044 0)
(-0.038198 0.00669163 0)
(-0.0438372 0.00719846 0)
(-0.0497812 0.00768073 0)
(-0.0559917 0.00812773 0)
(-0.0624228 0.00852857 0)
(-0.0690213 0.00887248 0)
(-0.0757278 0.00914909 0)
(-0.0824777 0.00934875 0)
(-0.0892026 0.00946275 0)
(-0.0958315 0.0094836 0)
(-0.102292 0.00940514 0)
(-0.108513 0.00922264 0)
(-0.114423 0.00893294 0)
(-0.119954 0.00853437 0)
(-0.125041 0.00802679 0)
(-0.129623 0.0074115 0)
(-0.133646 0.0066912 0)
(-0.137058 0.00586992 0)
(-0.139815 0.00495294 0)
(-0.141876 0.00394681 0)
(-0.14321 0.00285925 0)
(-0.14379 0.00169921 0)
(-0.143594 0.000476881 0)
(-0.142609 -0.000796308 0)
(-0.140828 -0.00210763 0)
(-0.138249 -0.00344305 0)
(-0.134881 -0.0047872 0)
(-0.130736 -0.00612344 0)
(-0.125837 -0.00743391 0)
(-0.120213 -0.00869971 0)
(-0.113901 -0.00990109 0)
(-0.106949 -0.0110178 0)
(-0.0994102 -0.0120294 0)
(-0.0913488 -0.0129158 0)
(-0.082836 -0.0136581 0)
(-0.0739516 -0.0142386 0)
(-0.0647825 -0.0146423 0)
(-0.0554223 -0.014857 0)
(-0.0459697 -0.0148742 0)
(-0.0365276 -0.0146897 0)
(-0.027201 -0.0143041 0)
(-0.0180951 -0.0137234 0)
(-0.00931336 -0.0129584 0)
(-0.000955191 -0.0120253 0)
(0.00688644 -0.0109452 0)
(0.0141272 -0.00974332 0)
(0.0206934 -0.00844821 0)
(0.0265243 -0.00709096 0)
(0.0315731 -0.00570391 0)
(0.0358089 -0.00431948 0)
(0.039217 -0.00296901 0)
(0.0417998 -0.00168154 0)
(0.043576 -0.000482786 0)
(0.0445805 0.000605747 0)
(0.0448627 0.00156743 0)
(0.0444849 0.00239094 0)
(0.0435198 0.00307038 0)
(0.0420477 0.00360516 0)
(0.0401538 0.00399959 0)
(0.0379246 0.0042622 0)
(0.0354453 0.00440495 0)
(0.0327964 0.00444228 0)
(0.0300523 0.00439012 0)
(0.0272783 0.00426507 0)
(0.0245307 0.00408342 0)
(0.021855 0.00386077 0)
(0.0192874 0.00361114 0)
(0.0168528 0.00334717 0)
(0.0145694 0.00307913 0)
(0.0124451 0.0028157 0)
(0.0104851 0.00256219 0)
(0.0086855 0.00232238 0)
(0.00704664 0.00209474 0)
(0.00556023 0.00187696 0)
(0.00423188 0.00165849 0)
(0.00305646 0.00143201 0)
(0.00205513 0.00117883 0)
(0.00122779 0.000898176 0)
(0.000612809 0.000576945 0)
(0.000198678 0.000263695 0)
(1.83589e-05 5.29397e-07 0)
(6.06932e-05 -0.000273076 0)
(0.00040682 -0.00090508 0)
(0.00106037 -0.00146425 0)
(0.0018999 -0.00191467 0)
(0.00290748 -0.00221221 0)
(0.00398602 -0.00236635 0)
(0.00509672 -0.00238055 0)
(0.00616779 -0.0022802 0)
(0.00716468 -0.00208643 0)
(0.00804328 -0.00182803 0)
(0.00878464 -0.0015292 0)
(0.00936986 -0.00121416 0)
(0.00979615 -0.000901403 0)
(0.0100625 -0.000605602 0)
(0.0101763 -0.000335224 0)
(0.0101448 -9.37954e-05 0)
(0.00997677 0.00012055 0)
(0.009678 0.000313762 0)
(0.00925126 0.000495246 0)
(0.00869365 0.000676428 0)
(0.00799715 0.000869708 0)
(0.00714761 0.00108719 0)
(0.00612573 0.00133984 0)
(0.00490743 0.00163676 0)
(0.0034651 0.00198497 0)
(0.00176847 0.00238939 0)
(-0.000214177 0.0028531 0)
(-0.00251517 0.00337767 0)
(-0.00516645 0.00396346 0)
(-0.00819877 0.00460979 0)
(-0.0116407 0.00531493 0)
(-0.0155178 0.00607591 0)
(-0.0198511 0.00688827 0)
(-0.0246564 0.00774579 0)
(-0.0299424 0.0086402 0)
(-0.0357101 0.00956108 0)
(-0.0419509 0.0104958 0)
(-0.0486465 0.0114297 0)
(-0.0557677 0.0123462 0)
(-0.0632743 0.0132275 0)
(-0.0711157 0.0140544 0)
(-0.0792311 0.0148078 0)
(-0.0875511 0.0154686 0)
(-0.0959989 0.0160184 0)
(-0.104493 0.0164404 0)
(-0.112947 0.0167199 0)
(-0.121274 0.0168443 0)
(-0.12939 0.0168038 0)
(-0.13721 0.0165916 0)
(-0.144655 0.0162036 0)
(-0.151651 0.0156383 0)
(-0.158131 0.0148972 0)
(-0.164033 0.0139838 0)
(-0.169303 0.0129038 0)
(-0.173893 0.0116647 0)
(-0.177765 0.0102755 0)
(-0.180883 0.00874677 0)
(-0.183221 0.00708995 0)
(-0.184756 0.00531777 0)
(-0.185472 0.00344396 0)
(-0.185357 0.00148332 0)
(-0.184406 -0.000548238 0)
(-0.182616 -0.00263358 0)
(-0.17999 -0.00475427 0)
(-0.176536 -0.00689048 0)
(-0.172267 -0.00902088 0)
(-0.1672 -0.0111227 0)
(-0.161359 -0.0131715 0)
(-0.154773 -0.0151416 0)
(-0.147479 -0.0170064 0)
(-0.139518 -0.0187379 0)
(-0.130941 -0.0203084 0)
(-0.121806 -0.0216901 0)
(-0.112178 -0.0228563 0)
(-0.10213 -0.0237821 0)
(-0.091744 -0.0244455 0)
(-0.0811072 -0.0248282 0)
(-0.0703145 -0.0249166 0)
(-0.0594652 -0.0247027 0)
(-0.0486631 -0.0241851 0)
(-0.0380137 -0.0233691 0)
(-0.0276229 -0.0222672 0)
(-0.0175948 -0.0208994 0)
(-0.00802964 -0.0192925 0)
(0.000978563 -0.0174797 0)
(0.00934382 -0.0154993 0)
(0.0169902 -0.0133943 0)
(0.0238537 -0.0112104 0)
(0.0298833 -0.00899445 0)
(0.0350427 -0.00679357 0)
(0.0393109 -0.00465294 0)
(0.042683 -0.00261466 0)
(0.0451704 -0.000716247 0)
(0.0468004 0.00101051 0)
(0.0476161 0.00254057 0)
(0.0476747 0.0038563 0)
(0.047046 0.00494794 0)
(0.0458101 0.00581347 0)
(0.0440545 0.00645834 0)
(0.0418711 0.0068946 0)
(0.0393525 0.00713992 0)
(0.0365895 0.00721608 0)
(0.0336669 0.00714777 0)
(0.0306625 0.00696087 0)
(0.0276435 0.00668148 0)
(0.0246676 0.00633433 0)
(0.0217796 0.00594247 0)
(0.0190157 0.00552561 0)
(0.0163987 0.00510075 0)
(0.013947 0.00467964 0)
(0.0116663 0.00427069 0)
(0.00956586 0.00387438 0)
(0.00764187 0.00348832 0)
(0.00590621 0.00309877 0)
(0.00435359 0.00269427 0)
(0.00301178 0.00224948 0)
(0.00187581 0.00175991 0)
(0.00099889 0.00120831 0)
(0.000363259 0.000648615 0)
(4.91479e-05 0.000127484 0)
(7.44562e-05 -0.000496782 0)
(0.000491149 -0.00146826 0)
(0.00126398 -0.00229041 0)
(0.00223463 -0.00292947 0)
(0.00338026 -0.00334474 0)
(0.00458595 -0.00354744 0)
(0.00580998 -0.00354745 0)
(0.00697183 -0.0033786 0)
(0.00803485 -0.00307281 0)
(0.00895038 -0.00267015 0)
(0.00969795 -0.00220595 0)
(0.010256 -0.00171436 0)
(0.0106204 -0.00122202 0)
(0.0107877 -0.0007495 0)
(0.0107634 -0.000308702 0)
(0.0105514 9.59341e-05 0)
(0.0101574 0.000467682 0)
(0.00958226 0.000815916 0)
(0.00882354 0.00115498 0)
(0.00787195 0.00150218 0)
(0.00671231 0.00187617 0)
(0.00532264 0.00229503 0)
(0.00367545 0.00277502 0)
(0.00173829 0.00332953 0)
(-0.000524574 0.00396863 0)
(-0.00315105 0.00469908 0)
(-0.00617965 0.00552459 0)
(-0.00964819 0.00644625 0)
(-0.0135924 0.00746282 0)
(-0.0180446 0.00857088 0)
(-0.0230322 0.00976467 0)
(-0.0285758 0.0110359 0)
(-0.034688 0.0123733 0)
(-0.0413715 0.0137623 0)
(-0.0486174 0.0151851 0)
(-0.0564045 0.0166203 0)
(-0.064698 0.0180435 0)
(-0.0734497 0.0194279 0)
(-0.0825982 0.0207448 0)
(-0.09207 0.0219645 0)
(-0.101782 0.0230578 0)
(-0.111642 0.0239965 0)
(-0.121553 0.0247551 0)
(-0.131418 0.0253108 0)
(-0.141136 0.0256453 0)
(-0.150614 0.0257442 0)
(-0.159761 0.025598 0)
(-0.168495 0.0252016 0)
(-0.176741 0.0245543 0)
(-0.184434 0.0236592 0)
(-0.191517 0.0225227 0)
(-0.197941 0.0211541 0)
(-0.203668 0.0195649 0)
(-0.208665 0.017768 0)
(-0.212907 0.0157781 0)
(-0.216372 0.0136104 0)
(-0.219046 0.011281 0)
(-0.220916 0.00880651 0)
(-0.221976 0.00620411 0)
(-0.22222 0.00349158 0)
(-0.221644 0.000687466 0)
(-0.220249 -0.00218879 0)
(-0.218035 -0.00511659 0)
(-0.215007 -0.00807393 0)
(-0.21117 -0.0110372 0)
(-0.206534 -0.0139809 0)
(-0.201111 -0.0168778 0)
(-0.194917 -0.0196983 0)
(-0.187974 -0.022411 0)
(-0.180308 -0.0249829 0)
(-0.171951 -0.0273793 0)
(-0.162944 -0.0295647 0)
(-0.153332 -0.0315035 0)
(-0.143172 -0.0331608 0)
(-0.132527 -0.0345036 0)
(-0.12147 -0.0355016 0)
(-0.110081 -0.0361291 0)
(-0.0984483 -0.036366 0)
(-0.0866684 -0.0361987 0)
(-0.0748422 -0.0356219 0)
(-0.0630749 -0.0346389 0)
(-0.0514738 -0.0332622 0)
(-0.0401463 -0.0315137 0)
(-0.0291976 -0.0294247 0)
(-0.0187284 -0.0270346 0)
(-0.00883269 -0.0243903 0)
(0.000403667 -0.021545 0)
(0.00890508 -0.0185561 0)
(0.0166073 -0.0154837 0)
(0.0234588 -0.0123889 0)
(0.029421 -0.00933189 0)
(0.0344699 -0.00637033 0)
(0.0385955 -0.00355758 0)
(0.0418031 -0.00094125 0)
(0.044113 0.00143817 0)
(0.0455604 0.00354853 0)
(0.0461947 0.00536692 0)
(0.0460791 0.00688028 0)
(0.0452879 0.00808558 0)
(0.0439054 0.00898947 0)
(0.0420219 0.00960755 0)
(0.0397315 0.00996294 0)
(0.0371278 0.0100849 0)
(0.0343014 0.0100065 0)
(0.0313358 0.00976342 0)
(0.028307 0.00939108 0)
(0.0252787 0.00892398 0)
(0.0223059 0.00839315 0)
(0.0194291 0.00782602 0)
(0.0166829 0.00724333 0)
(0.0140865 0.00666042 0)
(0.0116613 0.00608226 0)
(0.0094116 0.00550812 0)
(0.00735831 0.00492321 0)
(0.00549832 0.00431236 0)
(0.00386839 0.00364495 0)
(0.0024611 0.00290985 0)
(0.00134806 0.00208406 0)
(0.00050935 0.00121369 0)
(7.48954e-05 0.000338274 0)
(8.45178e-05 -0.000753328 0)
(0.000554371 -0.00210901 0)
(0.00141558 -0.0032154 0)
(0.00247983 -0.00404558 0)
(0.00371725 -0.0045691 0)
(0.0049967 -0.00480262 0)
(0.00627322 -0.00476583 0)
(0.00745903 -0.00450254 0)
(0.00851649 -0.0040568 0)
(0.00939399 -0.00348043 0)
(0.0100708 -0.00282022 0)
(0.0105236 -0.00212001 0)
(0.0107473 -0.00141426 0)
(0.0107363 -0.000728729 0)
(0.010493 -7.79496e-05 0)
(0.0100174 0.000533675 0)
(0.00930978 0.00111182 0)
(0.00836478 0.00167027 0)
(0.00717235 0.0022292 0)
(0.00571492 0.00281257 0)
(0.00396839 0.00344573 0)
(0.00190168 0.00415299 0)
(-0.000521626 0.00495575 0)
(-0.00334222 0.0058712 0)
(-0.00660307 0.00691163 0)
(-0.0103478 0.00808444 0)
(-0.0146186 0.00939236 0)
(-0.0194546 0.0108339 0)
(-0.0248897 0.0124035 0)
(-0.0309509 0.0140919 0)
(-0.0376556 0.0158854 0)
(-0.0450102 0.017766 0)
(-0.0530077 0.0197108 0)
(-0.0616262 0.0216924 0)
(-0.0708278 0.0236783 0)
(-0.0805586 0.0256326 0)
(-0.0907487 0.0275161 0)
(-0.101314 0.0292879 0)
(-0.112159 0.0309074 0)
(-0.12318 0.0323353 0)
(-0.134266 0.0335355 0)
(-0.145308 0.0344766 0)
(-0.156197 0.0351328 0)
(-0.166831 0.0354846 0)
(-0.177116 0.0355193 0)
(-0.186967 0.0352306 0)
(-0.196312 0.0346184 0)
(-0.20509 0.0336876 0)
(-0.213249 0.0324479 0)
(-0.220751 0.0309123 0)
(-0.227562 0.0290964 0)
(-0.23366 0.0270176 0)
(-0.239027 0.0246945 0)
(-0.243651 0.0221459 0)
(-0.247523 0.0193911 0)
(-0.250637 0.0164492 0)
(-0.252988 0.0133391 0)
(-0.254574 0.0100794 0)
(-0.255391 0.00668904 0)
(-0.255438 0.00318686 0)
(-0.254711 -0.000407579 0)
(-0.25321 -0.0040739 0)
(-0.250931 -0.00779043 0)
(-0.247874 -0.0115339 0)
(-0.244039 -0.0152789 0)
(-0.239426 -0.0189978 0)
(-0.234039 -0.0226603 0)
(-0.227883 -0.0262332 0)
(-0.22097 -0.0296808 0)
(-0.213314 -0.0329645 0)
(-0.204935 -0.0360434 0)
(-0.19586 -0.038875 0)
(-0.186126 -0.0414157 0)
(-0.175774 -0.043622 0)
(-0.164858 -0.0454518 0)
(-0.15344 -0.046866 0)
(-0.141594 -0.0478298 0)
(-0.129402 -0.0483145 0)
(-0.116954 -0.0482995 0)
(-0.104352 -0.0477733 0)
(-0.091699 -0.046735 0)
(-0.0791067 -0.0451949 0)
(-0.0666867 -0.0431752 0)
(-0.0545504 -0.0407095 0)
(-0.0428058 -0.0378421 0)
(-0.0315554 -0.0346269 0)
(-0.0208938 -0.0311256 0)
(-0.0109058 -0.0274057 0)
(-0.00166545 -0.0235388 0)
(0.00676537 -0.0195981 0)
(0.0143371 -0.0156566 0)
(0.0210127 -0.011785 0)
(0.0267681 -0.00805033 0)
(0.0315922 -0.00451423 0)
(0.0354868 -0.00123137 0)
(0.0384673 0.00175177 0)
(0.0405624 0.00439818 0)
(0.0418145 0.00668139 0)
(0.0422789 0.00858626 0)
(0.0420233 0.0101093 0)
(0.0411255 0.0112584 0)
(0.0396718 0.0120525 0)
(0.0377531 0.0125196 0)
(0.0354632 0.0126953 0)
(0.0328927 0.0126206 0)
(0.0301296 0.0123391 0)
(0.0272518 0.0118951 0)
(0.0243311 0.0113307 0)
(0.0214243 0.0106841 0)
(0.0185835 0.00998669 0)
(0.0158426 0.00926237 0)
(0.0132379 0.00852303 0)
(0.010784 0.00777171 0)
(0.00851363 0.00699512 0)
(0.00642858 0.0061755 0)
(0.00457668 0.00527831 0)
(0.00295115 0.00428295 0)
(0.00164275 0.00315773 0)
(0.000633041 0.00192862 0)
(9.64686e-05 0.000617486 0)
(9.08669e-05 -0.00103937 0)
(0.000597615 -0.00281688 0)
(0.00151983 -0.00422498 0)
(0.00264439 -0.00524689 0)
(0.00393307 -0.0058663 0)
(0.00523981 -0.00610872 0)
(0.00651558 -0.006007 0)
(0.0076663 -0.00561709 0)
(0.0086537 -0.00499705 0)
(0.00942441 -0.00421132 0)
(0.00995811 -0.00331865 0)
(0.0102308 -0.00237237 0)
(0.0102366 -0.00141418 0)
(0.00996746 -0.000474034 0)
(0.00942258 0.000432057 0)
(0.0085967 0.00130109 0)
(0.00748355 0.00214249 0)
(0.00606966 0.0029757 0)
(0.00433588 0.00382775 0)
(0.00225473 0.0047299 0)
(-0.00020791 0.00571444 0)
(-0.00309274 0.00681162 0)
(-0.00644472 0.00804721 0)
(-0.0103115 0.00944088 0)
(-0.0147407 0.0110054 0)
(-0.0197778 0.0127463 0)
(-0.0254637 0.0146626 0)
(-0.031832 0.0167467 0)
(-0.0389066 0.0189847 0)
(-0.0466995 0.0213567 0)
(-0.0552077 0.023836 0)
(-0.0644117 0.0263896 0)
(-0.0742736 0.0289782 0)
(-0.0847369 0.0315566 0)
(-0.0957264 0.0340753 0)
(-0.107151 0.0364817 0)
(-0.118904 0.0387224 0)
(-0.130871 0.0407455 0)
(-0.142931 0.042503 0)
(-0.154963 0.0439525 0)
(-0.16685 0.0450593 0)
(-0.178483 0.045797 0)
(-0.189762 0.0461483 0)
(-0.200604 0.0461045 0)
(-0.210936 0.045665 0)
(-0.2207 0.0448362 0)
(-0.229852 0.0436302 0)
(-0.238359 0.0420636 0)
(-0.246195 0.040156 0)
(-0.253346 0.0379289 0)
(-0.2598 0.035405 0)
(-0.265553 0.0326068 0)
(-0.270602 0.0295567 0)
(-0.274945 0.0262764 0)
(-0.278582 0.0227866 0)
(-0.281513 0.0191071 0)
(-0.283737 0.015257 0)
(-0.285251 0.0112547 0)
(-0.286055 0.00711854 0)
(-0.286142 0.00286676 0)
(-0.285509 -0.00148166 0)
(-0.284148 -0.00590675 0)
(-0.282054 -0.010387 0)
(-0.279218 -0.0148987 0)
(-0.275634 -0.0194159 0)
(-0.271293 -0.0239094 0)
(-0.266191 -0.0283468 0)
(-0.260324 -0.0326919 0)
(-0.253689 -0.036905 0)
(-0.24629 -0.0409425 0)
(-0.238135 -0.0447574 0)
(-0.229238 -0.0483 0)
(-0.219618 -0.0515184 0)
(-0.209307 -0.0543598 0)
(-0.198345 -0.056772 0)
(-0.186781 -0.0587051 0)
(-0.174679 -0.0601133 0)
(-0.162113 -0.0609576 0)
(-0.149168 -0.0612071 0)
(-0.135941 -0.060842 0)
(-0.12254 -0.0598545 0)
(-0.109078 -0.0582506 0)
(-0.0956731 -0.0560507 0)
(-0.0824468 -0.0532894 0)
(-0.0695182 -0.0500153 0)
(-0.0570017 -0.0462888 0)
(-0.0450042 -0.0421807 0)
(-0.0336224 -0.0377695 0)
(-0.0229412 -0.0331386 0)
(-0.0130321 -0.028374 0)
(-0.00395331 -0.0235614 0)
(0.00425009 -0.0187842 0)
(0.0115459 -0.0141219 0)
(0.0179139 -0.00964831 0)
(0.0233454 -0.0054303 0)
(0.0278431 -0.00152673 0)
(0.0314208 0.0020128 0)
(0.0341044 0.00514905 0)
(0.035931 0.00785425 0)
(0.0369506 0.010113 0)
(0.0372239 0.0119226 0)
(0.0368232 0.0132934 0)
(0.0358287 0.0142477 0)
(0.034328 0.0148185 0)
(0.0324107 0.0150475 0)
(0.0301678 0.0149824 0)
(0.0276851 0.0146744 0)
(0.0250454 0.0141744 0)
(0.0223188 0.0135307 0)
(0.019572 0.012785 0)
(0.0168534 0.011971 0)
(0.0142143 0.0111087 0)
(0.0116814 0.0102068 0)
(0.00930047 0.0092554 0)
(0.00708104 0.00823512 0)
(0.00508357 0.00710859 0)
(0.00330555 0.00584372 0)
(0.00185625 0.00439795 0)
(0.00072149 0.00276891 0)
(0.000111189 0.000953359 0)
(9.60591e-05 -0.00134156 0)
(0.000629164 -0.00356276 0)
(0.00158983 -0.0052777 0)
(0.00274436 -0.00648126 0)
(0.00404526 -0.00717451 0)
(0.00533361 -0.00739556 0)
(0.00655608 -0.00719389 0)
(0.00761366 -0.00664003 0)
(0.00846791 -0.00580787 0)
(0.00906481 -0.00477521 0)
(0.00938504 -0.00361284 0)
(0.00940437 -0.00238286 0)
(0.00911612 -0.00113307 0)
(0.00850973 0.000103957 0)
(0.00758007 0.00131248 0)
(0.00631556 0.00249269 0)
(0.00470195 0.00365932 0)
(0.00271621 0.0048388 0)
(0.000328701 0.00606576 0)
(-0.00249882 0.00737894 0)
(-0.00581067 0.00881706 0)
(-0.00965643 0.010415 0)
(-0.0140877 0.012201 0)
(-0.0191559 0.0141946 0)
(-0.0249088 0.0164057 0)
(-0.0313876 0.0188343 0)
(-0.0386241 0.0214711 0)
(-0.0466374 0.0242975 0)
(-0.0554315 0.0272859 0)
(-0.064992 0.0303998 0)
(-0.0752847 0.0335944 0)
(-0.0862539 0.0368167 0)
(-0.0978231 0.0400074 0)
(-0.109896 0.0431023 0)
(-0.12236 0.0460351 0)
(-0.135092 0.04874 0)
(-0.147959 0.0511553 0)
(-0.16083 0.0532259 0)
(-0.173578 0.0549059 0)
(-0.186086 0.0561596 0)
(-0.19825 0.0569632 0)
(-0.209981 0.0573038 0)
(-0.221206 0.0571788 0)
(-0.231869 0.0565948 0)
(-0.241929 0.0555656 0)
(-0.251356 0.0541108 0)
(-0.260131 0.0522534 0)
(-0.268244 0.0500191 0)
(-0.27569 0.0474345 0)
(-0.28247 0.0445262 0)
(-0.288586 0.04132 0)
(-0.29404 0.0378407 0)
(-0.298838 0.0341116 0)
(-0.302982 0.0301543 0)
(-0.306475 0.025989 0)
(-0.309319 0.0216344 0)
(-0.311513 0.0171084 0)
(-0.313056 0.012428 0)
(-0.313945 0.00760985 0)
(-0.314174 0.00267079 0)
(-0.313737 -0.00237166 0)
(-0.312625 -0.00749883 0)
(-0.310828 -0.0126903 0)
(-0.308335 -0.0179231 0)
(-0.305133 -0.0231717 0)
(-0.30121 -0.0284068 0)
(-0.296551 -0.0335951 0)
(-0.291144 -0.0386991 0)
(-0.284976 -0.0436763 0)
(-0.278039 -0.0484797 0)
(-0.270325 -0.0530575 0)
(-0.261834 -0.0573535 0)
(-0.25257 -0.0613083 0)
(-0.242546 -0.06486 0)
(-0.231786 -0.0679456 0)
(-0.220324 -0.0705036 0)
(-0.208205 -0.0724757 0)
(-0.195492 -0.0738094 0)
(-0.18226 -0.0744611 0)
(-0.1686 -0.0743986 0)
(-0.154614 -0.0736035 0)
(-0.140419 -0.0720733 0)
(-0.126141 -0.069823 0)
(-0.111911 -0.0668852 0)
(-0.0978633 -0.0633102 0)
(-0.0841287 -0.0591638 0)
(-0.0708329 -0.0545255 0)
(-0.0580909 -0.0494854 0)
(-0.0460046 -0.0441402 0)
(-0.0346603 -0.0385903 0)
(-0.0241282 -0.032936 0)
(-0.0144624 -0.0272746 0)
(-0.00570171 -0.0216987 0)
(0.00212854 -0.0162938 0)
(0.00901508 -0.0111379 0)
(0.0149553 -0.00630022 0)
(0.019956 -0.00184075 0)
(0.0240336 0.00219072 0)
(0.0272138 0.00575538 0)
(0.0295322 0.00882646 0)
(0.0310348 0.0113901 0)
(0.0317787 0.0134461 0)
(0.0318302 0.0150077 0)
(0.0312655 0.0161012 0)
(0.0301663 0.0167646 0)
(0.0286204 0.0170449 0)
(0.0267138 0.0169958 0)
(0.0245344 0.0166736 0)
(0.0221601 0.0161342 0)
(0.0196688 0.0154284 0)
(0.0171207 0.0145985 0)
(0.0145807 0.0136738 0)
(0.0120875 0.0126689 0)
(0.00970048 0.011579 0)
(0.00743879 0.0103838 0)
(0.00537583 0.0090441 0)
(0.00351634 0.00751505 0)
(0.00198548 0.0057417 0)
(0.000775418 0.00368868 0)
(0.00012008 0.001324 0)
(9.98582e-05 -0.00165943 0)
(0.000649505 -0.00433832 0)
(0.00162813 -0.00635774 0)
(0.00278379 -0.00772643 0)
(0.00405932 -0.00846558 0)
(0.00528489 -0.00862936 0)
(0.00640299 -0.00828715 0)
(0.00731114 -0.00752664 0)
(0.0079712 -0.00643937 0)
(0.00832949 -0.0051173 0)
(0.008368 -0.00364322 0)
(0.00806255 -0.00208713 0)
(0.00740542 -0.000501466 0)
(0.00638283 0.00108045 0)
(0.0049844 0.00264518 0)
(0.00319107 0.00419808 0)
(0.000979294 0.00576089 0)
(-0.00168457 0.00736809 0)
(-0.00484121 0.00906235 0)
(-0.00853946 0.0108894 0)
(-0.0128326 0.0128928 0)
(-0.0177767 0.0151099 0)
(-0.0234261 0.017568 0)
(-0.0298304 0.0202824 0)
(-0.0370304 0.0232555 0)
(-0.045055 0.0264766 0)
(-0.0539171 0.0299223 0)
(-0.0636108 0.0335568 0)
(-0.0741091 0.0373327 0)
(-0.0853614 0.0411922 0)
(-0.0972937 0.0450676 0)
(-0.109809 0.0488842 0)
(-0.122792 0.0525629 0)
(-0.136112 0.0560237 0)
(-0.149627 0.0591895 0)
(-0.163196 0.0619903 0)
(-0.176682 0.0643659 0)
(-0.189956 0.0662689 0)
(-0.202906 0.0676655 0)
(-0.215436 0.0685358 0)
(-0.22747 0.0688732 0)
(-0.238949 0.0686821 0)
(-0.249832 0.0679766 0)
(-0.26009 0.0667777 0)
(-0.269708 0.0651115 0)
(-0.278677 0.0630071 0)
(-0.286997 0.060495 0)
(-0.294672 0.0576059 0)
(-0.301708 0.0543695 0)
(-0.308112 0.0508145 0)
(-0.313892 0.0469673 0)
(-0.319057 0.0428526 0)
(-0.323612 0.038493 0)
(-0.327565 0.0339092 0)
(-0.33092 0.02912 0)
(-0.333682 0.0241428 0)
(-0.335851 0.0189936 0)
(-0.337429 0.0136878 0)
(-0.338413 0.00824015 0)
(-0.3388 0.00266575 0)
(-0.338584 -0.00301991 0)
(-0.337758 -0.00880005 0)
(-0.33631 -0.0146561 0)
(-0.334227 -0.0205671 0)
(-0.331495 -0.0265089 0)
(-0.328095 -0.0324534 0)
(-0.324008 -0.0383682 0)
(-0.319212 -0.0442157 0)
(-0.313687 -0.049953 0)
(-0.307409 -0.0555309 0)
(-0.300359 -0.0608946 0)
(-0.292518 -0.0659833 0)
(-0.283873 -0.070731 0)
(-0.274416 -0.0750674 0)
(-0.26415 -0.0789193 0)
(-0.253085 -0.0822127 0)
(-0.241248 -0.0848753 0)
(-0.228679 -0.0868392 0)
(-0.215437 -0.0880446 0)
(-0.201597 -0.0884428 0)
(-0.187254 -0.0879998 0)
(-0.172521 -0.0866997 0)
(-0.157525 -0.0845465 0)
(-0.142408 -0.0815659 0)
(-0.127318 -0.0778055 0)
(-0.112408 -0.0733339 0)
(-0.0978276 -0.0682379 0)
(-0.0837175 -0.0626192 0)
(-0.0702062 -0.05659 0)
(-0.0574047 -0.0502679 0)
(-0.0454038 -0.0437717 0)
(-0.0342739 -0.0372169 0)
(-0.0240649 -0.0307122 0)
(-0.0148089 -0.024358 0)
(-0.00652208 -0.0182442 0)
(0.000791946 -0.0124506 0)
(0.00713965 -0.00704578 0)
(0.0125359 -0.00208803 0)
(0.0170028 0.00237559 0)
(0.0205699 0.00630945 0)
(0.0232741 0.00969025 0)
(0.0251611 0.0125079 0)
(0.0262853 0.0147661 0)
(0.0267107 0.0164826 0)
(0.0265084 0.0176884 0)
(0.0257582 0.0184264 0)
(0.0245415 0.0187487 0)
(0.0229452 0.0187133 0)
(0.0210499 0.0183801 0)
(0.0189398 0.0178064 0)
(0.0166834 0.0170418 0)
(0.0143565 0.0161236 0)
(0.0120087 0.0150723 0)
(0.00971168 0.0138886 0)
(0.00749545 0.012552 0)
(0.00544566 0.0110216 0)
(0.00357643 0.00924012 0)
(0.00202526 0.00713983 0)
(0.000791838 0.00465152 0)
(0.000122322 0.00171368 0)
(0.000103059 -0.00198538 0)
(0.000660936 -0.00512363 0)
(0.00163775 -0.00743386 0)
(0.00276552 -0.0089406 0)
(0.00397705 -0.00968853 0)
(0.00509399 -0.00975142 0)
(0.0060553 -0.00922195 0)
(0.00675688 -0.00820748 0)
(0.00716155 -0.0068188 0)
(0.00721701 -0.0051624 0)
(0.00690665 -0.00333262 0)
(0.00620633 -0.00140594 0)
(0.00510661 0.000562519 0)
(0.00358961 0.00254098 0)
(0.0016385 0.00452062 0)
(-0.000774472 0.00651398 0)
(-0.00368311 0.00855127 0)
(-0.00713211 0.0106756 0)
(-0.0111728 0.0129373 0)
(-0.0158629 0.0153873 0)
(-0.0212618 0.0180714 0)
(-0.0274274 0.0210253 0)
(-0.0344105 0.0242705 0)
(-0.0422514 0.0278125 0)
(-0.0509752 0.0316402 0)
(-0.060588 0.0357255 0)
(-0.0710734 0.0400244 0)
(-0.0823907 0.044478 0)
(-0.0944728 0.0490146 0)
(-0.107228 0.0535513 0)
(-0.120539 0.0579977 0)
(-0.134273 0.0622597 0)
(-0.148283 0.0662442 0)
(-0.162415 0.0698641 0)
(-0.176522 0.0730425 0)
(-0.190462 0.0757164 0)
(-0.204111 0.0778385 0)
(-0.217363 0.0793785 0)
(-0.230133 0.0803218 0)
(-0.242356 0.0806684 0)
(-0.253986 0.0804301 0)
(-0.264993 0.0796279 0)
(-0.275359 0.0782894 0)
(-0.285078 0.0764466 0)
(-0.29415 0.0741336 0)
(-0.30258 0.0713851 0)
(-0.310376 0.0682352 0)
(-0.31755 0.064717 0)
(-0.324113 0.0608612 0)
(-0.330077 0.0566968 0)
(-0.335454 0.0522502 0)
(-0.340255 0.0475454 0)
(-0.344492 0.0426044 0)
(-0.348175 0.0374467 0)
(-0.351313 0.0320899 0)
(-0.353915 0.02655 0)