/*--------------------------------*- C++ -*----------------------------------*\
| =========                 |                                                 |
| \\      /  F ield         | OpenFOAM: The Open Source CFD Toolbox           |
|  \\    /   O peration     | Version:  2406                                  |
|   \\  /    A nd           | Website:  www.openfoam.com                      |
|    \\/     M anipulation  |                                                 |
\*---------------------------------------------------------------------------*/
FoamFile
{
    version     2.0;
    format      ascii;
    arch        "LSB;label=32;scalar=64";
    class       volVectorField;
    location    "30.95";
    object      Uold;
}
// * * * * * * * * * * * * * * * * * * * * * * * * * * * * * * * * * * * * * //

dimensions      [0 1 -1 0 0 0 0];

internalField   nonuniform List<vector> 
14400
(
(-1.49116e-05 1.4849e-05 0)
(5.22616e-06 -1.25727e-05 0)
(0.000110009 -4.07458e-05 0)
(0.000282884 -6.48937e-05 0)
(0.000513188 -7.86505e-05 0)
(0.000770678 -8.60138e-05 0)
(0.0010433 -8.63706e-05 0)
(0.00130897 -8.25048e-05 0)
(0.00155969 -7.4825e-05 0)
(0.00178306 -6.5254e-05 0)
(0.00197636 -5.44983e-05 0)
(0.00213548 -4.38652e-05 0)
(0.00226244 -3.39233e-05 0)
(0.00235884 -2.53812e-05 0)
(0.00242949 -1.84505e-05 0)
(0.00247855 -1.32985e-05 0)
(0.00251123 -9.76704e-06 0)
(0.00253148 -7.62559e-06 0)
(0.00254285 -6.46448e-06 0)
(0.00254723 -5.84961e-06 0)
(0.00254539 -5.29671e-06 0)
(0.0025365 -4.36771e-06 0)
(0.00251853 -2.66903e-06 0)
(0.00248825 1.0109e-07 0)
(0.00244165 4.16497e-06 0)
(0.00237403 9.66177e-06 0)
(0.0022803 1.66766e-05 0)
(0.0021551 2.52589e-05 0)
(0.0019929 3.545e-05 0)
(0.00178801 4.7296e-05 0)
(0.0015346 6.08559e-05 0)
(0.00122668 7.61972e-05 0)
(0.000858161 9.33875e-05 0)
(0.00042285 0.00011248 0)
(-8.54018e-05 0.000133501 0)
(-0.000672594 0.000156437 0)
(-0.0013444 0.000181227 0)
(-0.00210597 0.000207753 0)
(-0.00296175 0.000235833 0)
(-0.00391522 0.000265224 0)
(-0.00496868 0.000295611 0)
(-0.00612307 0.000326616 0)
(-0.00737773 0.000357793 0)
(-0.00873019 0.000388637 0)
(-0.0101761 0.000418589 0)
(-0.011709 0.000447045 0)
(-0.0133202 0.000473365 0)
(-0.0149992 0.000496887 0)
(-0.016733 0.000516934 0)
(-0.0185065 0.000532828 0)
(-0.0203029 0.000543902 0)
(-0.0221034 0.000549509 0)
(-0.0238873 0.00054903 0)
(-0.0256329 0.000541886 0)
(-0.0273169 0.000527549 0)
(-0.0289153 0.000505548 0)
(-0.0304033 0.000475485 0)
(-0.0317559 0.000437049 0)
(-0.032948 0.000390033 0)
(-0.0339551 0.000334357 0)
(-0.0347533 0.000270089 0)
(-0.0353203 0.000197472 0)
(-0.0356353 0.000116952 0)
(-0.03568 2.92002e-05 0)
(-0.0354391 -6.48586e-05 0)
(-0.0349005 -0.000164032 0)
(-0.0340564 -0.000266847 0)
(-0.0329036 -0.000371552 0)
(-0.0314442 -0.000476133 0)
(-0.0296859 -0.000578343 0)
(-0.0276426 -0.000675755 0)
(-0.0253344 -0.000765827 0)
(-0.022788 -0.000845997 0)
(-0.020036 -0.000913783 0)
(-0.0171171 -0.000966905 0)
(-0.014075 -0.0010034 0)
(-0.0109579 -0.00102177 0)
(-0.00781663 -0.00102103 0)
(-0.00470403 -0.00100089 0)
(-0.0016728 -0.000961726 0)
(0.00122594 -0.000904642 0)
(0.00394444 -0.000831443 0)
(0.00643995 -0.00074455 0)
(0.00867619 -0.000646896 0)
(0.0106246 -0.00054177 0)
(0.012265 -0.000432642 0)
(0.0135865 -0.000322981 0)
(0.0145872 -0.000216069 0)
(0.015274 -0.000114846 0)
(0.0156615 -2.1778e-05 0)
(0.0157715 6.12264e-05 0)
(0.0156312 0.000132858 0)
(0.0152721 0.000192407 0)
(0.0147279 0.000239721 0)
(0.0140336 0.000275141 0)
(0.0132237 0.000299404 0)
(0.0123312 0.000313558 0)
(0.0113865 0.00031885 0)
(0.0104167 0.000316649 0)
(0.00944532 0.00030834 0)
(0.00849182 0.000295292 0)
(0.00757181 0.000278756 0)
(0.00669693 0.000259894 0)
(0.00587561 0.000239676 0)
(0.00511279 0.00021898 0)
(0.00441126 0.000198455 0)
(0.00377082 0.000178728 0)
(0.00319043 0.000160145 0)
(0.00266627 0.000143152 0)
(0.00219534 0.000127767 0)
(0.00177176 0.000114273 0)
(0.00139283 0.000102158 0)
(0.00105264 9.14611e-05 0)
(0.000752141 8.06978e-05 0)
(0.000488433 6.96393e-05 0)
(0.000270089 5.52857e-05 0)
(0.000100262 3.80544e-05 0)
(-5.59997e-06 1.42631e-05 0)
(-4.34467e-05 -8.08114e-06 0)
(-2.21315e-05 -2.17056e-05 0)
(1.15869e-05 -4.683e-06 0)
(0.000148313 -0.000150791 0)
(0.000457741 -0.000292844 0)
(0.000898353 -0.00041459 0)
(0.00145549 -0.000492153 0)
(0.0020719 -0.000534606 0)
(0.00272031 -0.000540622 0)
(0.00335555 -0.000519984 0)
(0.00395607 -0.000476968 0)
(0.00449486 -0.000420136 0)
(0.00496193 -0.000354899 0)
(0.00534721 -0.000287797 0)
(0.00565181 -0.000223017 0)
(0.00587779 -0.000164347 0)
(0.00603321 -0.000113632 0)
(0.00612588 -7.18075e-05 0)
(0.0061653 -3.8336e-05 0)
(0.00615894 -1.18741e-05 0)
(0.00611294 9.80129e-06 0)
(0.00603011 2.92894e-05 0)
(0.00591038 4.94354e-05 0)
(0.00575014 7.29607e-05 0)
(0.00554282 0.000102326 0)
(0.00527897 0.000139543 0)
(0.00494708 0.000186156 0)
(0.00453386 0.000243243 0)
(0.00402497 0.000311523 0)
(0.00340526 0.000391456 0)
(0.00265914 0.000483355 0)
(0.00177077 0.000587456 0)
(0.000724255 0.000703946 0)
(-0.000496222 0.000832936 0)
(-0.00190613 0.000974411 0)
(-0.0035203 0.00112815 0)
(-0.00535249 0.00129364 0)
(-0.00741495 0.00147005 0)
(-0.00971785 0.00165611 0)
(-0.0122687 0.00185014 0)
(-0.0150718 0.00205001 0)
(-0.0181276 0.00225314 0)
(-0.0214324 0.00245652 0)
(-0.0249775 0.00265675 0)
(-0.0287493 0.00285009 0)
(-0.0327289 0.00303255 0)
(-0.0368921 0.00319996 0)
(-0.0412092 0.00334806 0)
(-0.0456457 0.00347261 0)
(-0.0501625 0.0035695 0)
(-0.0547161 0.00363482 0)
(-0.0592597 0.00366495 0)
(-0.0637436 0.00365665 0)
(-0.0681159 0.00360713 0)
(-0.0723236 0.00351408 0)
(-0.0763132 0.00337573 0)
(-0.0800314 0.00319087 0)
(-0.083426 0.00295891 0)
(-0.0864465 0.00267986 0)
(-0.0890449 0.00235441 0)
(-0.0911763 0.00198393 0)
(-0.0927997 0.00157051 0)
(-0.0938782 0.001117 0)
(-0.0943799 0.00062706 0)
(-0.0942786 0.000105181 0)
(-0.093554 -0.00044326 0)
(-0.0921926 -0.00101199 0)
(-0.0901881 -0.0015938 0)
(-0.087542 -0.00218061 0)
(-0.0842641 -0.00276348 0)
(-0.080373 -0.00333272 0)
(-0.0758962 -0.00387803 0)
(-0.0708706 -0.0043887 0)
(-0.0653426 -0.00485385 0)
(-0.0593675 -0.00526275 0)
(-0.05301 -0.00560521 0)
(-0.0463427 -0.00587191 0)
(-0.0394456 -0.00605486 0)
(-0.0324051 -0.00614781 0)
(-0.0253122 -0.00614666 0)
(-0.0182605 -0.00604974 0)
(-0.0113449 -0.00585809 0)
(-0.00465873 -0.0055756 0)
(0.00170849 -0.00520901 0)
(0.00767322 -0.00476771 0)
(0.0131604 -0.00426354 0)
(0.0181053 -0.00371025 0)
(0.022456 -0.00312304 0)
(0.0261742 -0.00251783 0)
(0.0292365 -0.00191065 0)
(0.031635 -0.00131693 0)
(0.033377 -0.000750807 0)
(0.0344847 -0.000224652 0)
(0.0349936 0.000251431 0)
(0.0349508 0.000669875 0)
(0.0344131 0.00102579 0)
(0.0334444 0.00131695 0)
(0.032113 0.00154364 0)
(0.030489 0.00170834 0)
(0.0286416 0.00181539 0)
(0.0266369 0.00187056 0)
(0.0245363 0.00188053 0)
(0.0223943 0.00185256 0)
(0.0202581 0.00179395 0)
(0.0181669 0.00171188 0)
(0.016152 0.00161294 0)
(0.0142363 0.00150321 0)
(0.0124365 0.00138783 0)
(0.0107616 0.0012714 0)
(0.00921645 0.00115733 0)
(0.00779958 0.00104866 0)
(0.00650875 0.000946757 0)
(0.00533591 0.000852953 0)
(0.00427741 0.000765713 0)
(0.00332409 0.000684172 0)
(0.00247831 0.000602504 0)
(0.00173592 0.00051803 0)
(0.00111252 0.000420051 0)
(0.000611591 0.00030945 0)
(0.000259544 0.000176369 0)
(5.31969e-05 5.05727e-05 0)
(-8.19373e-06 -4.33718e-05 0)
(3.77025e-05 -0.000105612 0)
(0.000283645 -0.000458179 0)
(0.000774724 -0.000786636 0)
(0.00143113 -0.00106058 0)
(0.00223699 -0.00124155 0)
(0.00311449 -0.0013388 0)
(0.00402872 -0.00135257 0)
(0.00491963 -0.00130027 0)
(0.00575742 -0.00119388 0)
(0.00650537 -0.00105136 0)
(0.00714813 -0.000886683 0)
(0.00767083 -0.000714479 0)
(0.00807265 -0.000545434 0)
(0.00835452 -0.000388298 0)
(0.00852486 -0.000247958 0)
(0.00859208 -0.000126584 0)
(0.00856656 -2.31352e-05 0)
(0.00845601 6.56942e-05 0)
(0.00826608 0.000145223 0)
(0.0079979 0.000221882 0)
(0.00764844 0.000302674 0)
(0.00720971 0.000394419 0)
(0.00666949 0.000503306 0)
(0.00601154 0.000634485 0)
(0.00521658 0.000791952 0)
(0.00426291 0.000978555 0)
(0.0031273 0.00119618 0)
(0.00178555 0.00144598 0)
(0.00021311 0.00172859 0)
(-0.0016145 0.00204423 0)
(-0.00372119 0.00239279 0)
(-0.0061298 0.00277373 0)
(-0.00886148 0.0031859 0)
(-0.011935 0.00362742 0)
(-0.0153659 0.00409546 0)
(-0.0191657 0.00458612 0)
(-0.0233406 0.00509433 0)
(-0.0278912 0.00561384 0)
(-0.032811 0.00613722 0)
(-0.0380864 0.00665598 0)
(-0.0436957 0.00716067 0)
(-0.0496091 0.00764116 0)
(-0.0557887 0.00808678 0)
(-0.0621891 0.00848672 0)
(-0.0687573 0.00883021 0)
(-0.0754345 0.00910691 0)
(-0.0821565 0.00930718 0)
(-0.0888551 0.00942231 0)
(-0.0954597 0.00944477 0)
(-0.101898 0.00936835 0)
(-0.108099 0.00918831 0)
(-0.113992 0.00890141 0)
(-0.119508 0.00850594 0)
(-0.124584 0.0080017 0)
(-0.129157 0.00738994 0)
(-0.133173 0.0066733 0)
(-0.136581 0.00585575 0)
(-0.139336 0.00494255 0)
(-0.141398 0.00394019 0)
(-0.142735 0.00285638 0)
(-0.143319 0.00170003 0)
(-0.14313 0.00048131 0)
(-0.142154 -0.000788374 0)
(-0.140383 -0.00209631 0)
(-0.137816 -0.00342847 0)
(-0.134461 -0.00476952 0)
(-0.130331 -0.00610282 0)
(-0.125447 -0.00741054 0)
(-0.11984 -0.00867379 0)
(-0.113546 -0.00987284 0)
(-0.106613 -0.0109874 0)
(-0.0990936 -0.0119972 0)
(-0.0910524 -0.0128822 0)
(-0.0825606 -0.0136232 0)
(-0.0736975 -0.0142029 0)
(-0.0645501 -0.0146062 0)
(-0.0552116 -0.0148208 0)
(-0.0457808 -0.0148382 0)
(-0.0363602 -0.0146545 0)
(-0.0270547 -0.0142701 0)
(-0.0179694 -0.0136908 0)
(-0.0092076 -0.0129277 0)
(-0.00086838 -0.0119968 0)
(0.00695538 -0.0109192 0)
(0.0141795 -0.00971993 0)
(0.0207304 -0.00842764 0)
(0.0265475 -0.00707329 0)
(0.031584 -0.00568914 0)
(0.035809 -0.00430757 0)
(0.0392081 -0.00295984 0)
(0.0417833 -0.00167495 0)
(0.0435536 -0.000478578 0)
(0.0445536 0.000607816 0)
(0.0448328 0.00156762 0)
(0.0444532 0.00238953 0)
(0.0434876 0.00306765 0)
(0.0420159 0.0036014 0)
(0.0401234 0.00399506 0)
(0.0378962 0.00425715 0)
(0.0354194 0.00439961 0)
(0.0327735 0.00443685 0)
(0.0300325 0.00438477 0)
(0.0272617 0.00425994 0)
(0.0245174 0.00407863 0)
(0.0218447 0.0038564 0)
(0.0192799 0.00360724 0)
(0.0168479 0.00334379 0)
(0.0145667 0.00307628 0)
(0.0124443 0.0028134 0)
(0.0104857 0.00256043 0)
(0.00868723 0.00232116 0)
(0.00704902 0.00209406 0)
(0.00556288 0.00187678 0)
(0.00423445 0.00165874 0)
(0.00305865 0.00143258 0)
(0.00205676 0.00117956 0)
(0.00122878 0.000898851 0)
(0.000613245 0.000577331 0)
(0.00019875 0.000263683 0)
(1.83402e-05 2.70188e-07 0)
(5.99003e-05 -0.000269967 0)
(0.000400931 -0.000892303 0)
(0.00104421 -0.00144177 0)
(0.00186988 -0.00188364 0)
(0.0028603 -0.00217512 0)
(0.00392001 -0.00232584 0)
(0.00501108 -0.00233944 0)
(0.00606308 -0.00224092 0)
(0.00704225 -0.00205099 0)
(0.00790531 -0.0017978 0)
(0.00863371 -0.00150495 0)
(0.0092088 -0.00119604 0)
(0.00962774 -0.000889089 0)
(0.00988935 -0.000598369 0)
(0.0100007 -0.000332119 0)
(0.00996846 -9.37597e-05 0)
(0.0098013 0.000118538 0)
(0.00950443 0.000310586 0)
(0.00908037 0.000491568 0)
(0.00852606 0.000672646 0)
(0.00783339 0.000865943 0)
(0.00698826 0.00108331 0)
(0.00597155 0.00133549 0)
(0.0047594 0.00163145 0)
(0.00332447 0.00197811 0)
(0.00163681 0.00238036 0)
(-0.000335023 0.00284129 0)
(-0.00262307 0.00336252 0)
(-0.00525904 0.00394447 0)
(-0.00827348 0.00458652 0)
(-0.0116949 0.00528701 0)
(-0.0155485 0.00604305 0)
(-0.0198557 0.00685028 0)
(-0.024632 0.00770255 0)
(-0.0298864 0.00859171 0)
(-0.0356201 0.00950745 0)
(-0.0418249 0.0104373 0)
(-0.0484828 0.0113667 0)
(-0.0555649 0.0122793 0)
(-0.0630319 0.0131571 0)
(-0.0708335 0.0139815 0)
(-0.0789096 0.0147332 0)
(-0.0871913 0.0153931 0)
(-0.0956026 0.015943 0)
(-0.104062 0.0163662 0)
(-0.112484 0.0166476 0)
(-0.120782 0.0167749 0)
(-0.128872 0.0167382 0)
(-0.136669 0.0165304 0)
(-0.144095 0.0161473 0)
(-0.151075 0.0155875 0)
(-0.157541 0.0148521 0)
(-0.163433 0.0139447 0)
(-0.168696 0.0128709 0)
(-0.173283 0.0116381 0)
(-0.177153 0.0102552 0)
(-0.180273 0.00873258 0)
(-0.182614 0.0070818 0)
(-0.184154 0.00531548 0)
(-0.184877 0.00344735 0)
(-0.184771 0.00149217 0)
(-0.18383 -0.000534138 0)
(-0.182052 -0.00261446 0)
(-0.179439 -0.00473037 0)
(-0.176 -0.00686203 0)
(-0.171746 -0.00898813 0)
(-0.166696 -0.0110859 0)
(-0.160873 -0.0131309 0)
(-0.154306 -0.0150975 0)
(-0.147031 -0.016959 0)
(-0.139091 -0.0186877 0)
(-0.130535 -0.0202557 0)
(-0.121422 -0.0216352 0)
(-0.111817 -0.0227996 0)
(-0.101792 -0.0237242 0)
(-0.0914299 -0.0243868 0)
(-0.0808174 -0.0247693 0)
(-0.0700489 -0.024858 0)
(-0.0592241 -0.0246451 0)
(-0.0484462 -0.0241289 0)
(-0.0378207 -0.0233149 0)
(-0.0274532 -0.0222156 0)
(-0.0174478 -0.0208509 0)
(-0.00790445 -0.0192475 0)
(0.00108302 -0.0174384 0)
(0.00942877 -0.0154622 0)
(0.017057 -0.0133616 0)
(0.0239038 -0.011182 0)
(0.0299183 -0.00897053 0)
(0.0350642 -0.00677401 0)
(0.0393206 -0.00463759 0)
(0.0426826 -0.00260329 0)
(0.0451615 -0.000708587 0)
(0.0467847 0.0010148 0)
(0.0475952 0.00254185 0)
(0.0476502 0.00385498 0)
(0.0470192 0.00494442 0)
(0.0457824 0.00580818 0)
(0.044027 0.0064517 0)
(0.0418447 0.00688701 0)
(0.0393281 0.00713174 0)
(0.0365676 0.00720766 0)
(0.0336479 0.00713941 0)
(0.0306467 0.00695283 0)
(0.027631 0.00667396 0)
(0.0246583 0.0063275 0)
(0.0217734 0.00593643 0)
(0.0190121 0.00552047 0)
(0.0163974 0.00509656 0)
(0.0139476 0.00467643 0)
(0.0116684 0.00426848 0)
(0.0095688 0.00387314 0)
(0.00764524 0.00348801 0)
(0.00590956 0.00309926 0)
(0.00435655 0.00269537 0)
(0.00301409 0.0022509 0)
(0.00187734 0.0017613 0)
(0.00099969 0.00120927 0)
(0.000363505 0.000648924 0)
(4.91676e-05 0.000127282 0)
(7.34206e-05 -0.000490466 0)
(0.000483685 -0.0014467 0)
(0.0012439 -0.00225437 0)
(0.00219796 -0.00288114 0)
(0.00332345 -0.00328782 0)
(0.00450744 -0.00348588 0)
(0.00570915 -0.00348532 0)
(0.0068496 -0.00331944 0)
(0.00789292 -0.00301952 0)
(0.00879139 -0.00262469 0)
(0.00952487 -0.00216945 0)
(0.0100721 -0.00168704 0)
(0.0104288 -0.00120345 0)
(0.0105914 -0.000738658 0)
(0.010565 -0.000304256 0)
(0.0103531 9.54586e-05 0)
(0.00996101 0.000463703 0)
(0.00938932 0.000809644 0)
(0.00863523 0.0011473 0)
(0.00768939 0.00149359 0)
(0.0065366 0.00186676 0)
(0.00515501 0.00228453 0)
(0.00351737 0.00276285 0)
(0.00159152 0.0033149 0)
(-0.000657937 0.00395063 0)
(-0.00326858 0.00467677 0)
(-0.00627859 0.00549707 0)
(-0.00972553 0.00641269 0)
(-0.0136449 0.00742251 0)
(-0.018069 0.00852323 0)
(-0.0230249 0.00970925 0)
(-0.0285336 0.0109724 0)
(-0.0346077 0.0123017 0)
(-0.0412502 0.0136827 0)
(-0.0484526 0.0150977 0)
(-0.0561942 0.0165256 0)
(-0.0644409 0.0179424 0)
(-0.0731451 0.0193213 0)
(-0.0822461 0.0206337 0)
(-0.0916713 0.0218504 0)
(-0.101338 0.0229421 0)
(-0.111155 0.0238807 0)
(-0.121027 0.0246406 0)
(-0.130855 0.0251992 0)
(-0.140541 0.0255379 0)
(-0.149989 0.0256422 0)
(-0.159112 0.0255025 0)
(-0.167824 0.0251135 0)
(-0.176053 0.0244742 0)
(-0.183732 0.0235876 0)
(-0.190805 0.02246 0)
(-0.197222 0.0211004 0)
(-0.202945 0.0195202 0)
(-0.20794 0.0177323 0)
(-0.212182 0.0157512 0)
(-0.21565 0.013592 0)
(-0.218328 0.0112708 0)
(-0.220205 0.00880423 0)
(-0.221273 0.00620941 0)
(-0.221526 0.00350413 0)
(-0.220961 0.000706931 0)
(-0.219577 -0.00216274 0)
(-0.217376 -0.00508425 0)
(-0.214361 -0.00803562 0)
(-0.21054 -0.0109932 0)
(-0.205919 -0.0139315 0)
(-0.200513 -0.0168233 0)
(-0.194338 -0.0196389 0)
(-0.187413 -0.0223472 0)
(-0.179767 -0.0249149 0)
(-0.171431 -0.0273074 0)
(-0.162446 -0.0294894 0)
(-0.152857 -0.0314253 0)
(-0.142721 -0.0330802 0)
(-0.1321 -0.034421 0)
(-0.121068 -0.0354177 0)
(-0.109705 -0.0360446 0)
(-0.0980993 -0.0362815 0)
(-0.0863462 -0.0361151 0)
(-0.0745468 -0.0355399 0)
(-0.0628063 -0.0345592 0)
(-0.0512318 -0.0331856 0)
(-0.0399303 -0.0314409 0)
(-0.029007 -0.0293562 0)
(-0.0185622 -0.0269711 0)
(-0.00868996 -0.0243322 0)
(0.00052424 -0.0214926 0)
(0.00900488 -0.0185096 0)
(0.0166879 -0.0154432 0)
(0.0235216 -0.0123545 0)
(0.0294679 -0.00930339 0)
(0.0345024 -0.00634755 0)
(0.0386154 -0.00354024 0)
(0.0418123 -0.000929011 0)
(0.0441131 0.00144573 0)
(0.0455531 0.00355187 0)
(0.0461817 0.00536655 0)
(0.0460619 0.00687674 0)
(0.0452681 0.00807943 0)
(0.0438842 0.00898128 0)
(0.0420006 0.00959786 0)
(0.0397112 0.00995231 0)
(0.0371092 0.0100738 0)
(0.0342851 0.00999545 0)
(0.0313222 0.00975273 0)
(0.0282963 0.0093811 0)
(0.0252709 0.00891499 0)
(0.022301 0.00838535 0)
(0.0194266 0.00781957 0)
(0.0166826 0.00723832 0)
(0.0140878 0.00665691 0)
(0.0116638 0.00608024 0)
(0.00941474 0.00550752 0)
(0.00736161 0.00492386 0)
(0.00550134 0.00431398 0)
(0.00387083 0.00364712 0)
(0.00246277 0.00291204 0)
(0.00134898 0.00208572 0)
(0.000509659 0.00121444 0)
(7.493e-05 0.000338199 0)
(8.3278e-05 -0.00074314 0)
(0.000545532 -0.00207701 0)
(0.00139205 -0.00316357 0)
(0.00243737 -0.00397751 0)
(0.00365217 -0.00448997 0)
(0.00490768 -0.00471786 0)
(0.00615994 -0.00468089 0)
(0.00732289 -0.00442211 0)
(0.00835966 -0.00398467 0)
(0.00921958 -0.00341917 0)
(0.00988216 -0.00277125 0)
(0.0103245 -0.00208362 0)
(0.0105411 -0.00138985 0)
(0.0105263 -0.000714977 0)
(0.0102821 -7.31533e-05 0)
(0.00980812 0.000531381 0)
(0.00910429 0.0011042 0)
(0.00816498 0.0016588 0)
(0.00697998 0.00221491 0)
(0.00553168 0.00279597 0)
(0.00379609 0.00342679 0)
(0.00174235 0.00413121 0)
(-0.000665643 0.00493026 0)
(-0.00346823 0.00584086 0)
(-0.00670801 0.00687519 0)
(-0.0104283 0.00804062 0)
(-0.0146709 0.00933999 0)
(-0.019475 0.0107719 0)
(-0.0248742 0.0123312 0)
(-0.0308955 0.0140086 0)
(-0.0375567 0.0157907 0)
(-0.0448643 0.01766 0)
(-0.0528119 0.0195937 0)
(-0.0613781 0.0215648 0)
(-0.070526 0.0235412 0)
(-0.0802023 0.0254872 0)
(-0.0903381 0.0273639 0)
(-0.100851 0.0291308 0)
(-0.111645 0.0307474 0)
(-0.122617 0.0321745 0)
(-0.133659 0.033376 0)
(-0.14466 0.0343204 0)
(-0.155513 0.0349819 0)
(-0.166115 0.0353407 0)
(-0.176373 0.0353839 0)
(-0.186202 0.035105 0)
(-0.195529 0.0345033 0)
(-0.204292 0.0335839 0)
(-0.212441 0.0323559 0)
(-0.219934 0.0308321 0)
(-0.226741 0.029028 0)
(-0.232836 0.0269609 0)
(-0.238203 0.0246491 0)
(-0.242829 0.0221116 0)
(-0.246704 0.0193675 0)
(-0.249823 0.0164357 0)
(-0.252181 0.0133353 0)
(-0.253774 0.0100849 0)
(-0.2546 0.00670326 0)
(-0.254656 0.00320946 0)
(-0.25394 -0.000376999 0)
(-0.25245 -0.0040357 0)
(-0.250184 -0.00774496 0)
(-0.247141 -0.0114814 0)
(-0.24332 -0.0152198 0)
(-0.238723 -0.0189323 0)
(-0.233352 -0.0225886 0)
(-0.227214 -0.0261558 0)
(-0.22032 -0.0295978 0)
(-0.212683 -0.0328763 0)
(-0.204325 -0.0359503 0)
(-0.195273 -0.0387774 0)
(-0.185561 -0.0413141 0)
(-0.175233 -0.043517 0)
(-0.164342 -0.0453441 0)
(-0.152951 -0.0467561 0)
(-0.141133 -0.0477185 0)
(-0.128968 -0.0482028 0)
(-0.11655 -0.0481882 0)
(-0.103976 -0.0476634 0)
(-0.0913528 -0.0466274 0)
(-0.07879 -0.0450906 0)
(-0.0663993 -0.0430752 0)
(-0.0542916 -0.0406146 0)
(-0.0425751 -0.037753 0)
(-0.0313518 -0.0345443 0)
(-0.0207161 -0.0310499 0)
(-0.0107527 -0.0273373 0)
(-0.00153537 -0.023478 0)
(0.00687398 -0.0195449 0)
(0.0144259 -0.015611 0)
(0.0210834 -0.0117468 0)
(0.0268225 -0.00801934 0)
(0.031632 -0.00449009 0)
(0.0355139 -0.00121367 0)
(0.0384833 0.00176352 0)
(0.0405692 0.00440453 0)
(0.0418137 0.00668293 0)
(0.0422722 0.00858364 0)
(0.0420124 0.0101032 0)
(0.0411117 0.0112496 0)
(0.0396566 0.0120416 0)
(0.0377377 0.0125073 0)
(0.0354485 0.0126823 0)
(0.0328795 0.0126075 0)
(0.0301184 0.0123265 0)
(0.027243 0.0118834 0)
(0.0243247 0.0113203 0)
(0.0214203 0.0106754 0)
(0.0185816 0.00997972 0)
(0.0158425 0.00925736 0)
(0.0132391 0.00852 0)
(0.010786 0.00777061 0)
(0.00851606 0.00699574 0)
(0.00643095 0.00617747 0)
(0.00457866 0.00528109 0)
(0.00295253 0.00428586 0)
(0.00164352 0.00316005 0)
(0.000633297 0.0019298 0)
(9.64956e-05 0.000617542 0)
(8.94561e-05 -0.00102464 0)
(0.000587561 -0.00277279 0)
(0.00149323 -0.00415514 0)
(0.0025968 -0.00515664 0)
(0.00386075 -0.00576261 0)
(0.0051418 -0.00599873 0)
(0.00639201 -0.00589769 0)
(0.00751917 -0.00551437 0)
(0.00848574 -0.0049056 0)
(0.00923926 -0.00413427 0)
(0.00975963 -0.00325766 0)
(0.010023 -0.00232772 0)
(0.0100233 -0.00138506 0)
(0.00975219 -0.000458822 0)
(0.00920849 0.00043545 0)
(0.00838662 0.00129489 0)
(0.00728 0.00212874 0)
(0.005875 0.00295606 0)
(0.00415242 0.00380328 0)
(0.00208486 0.004701 0)
(-0.000361537 0.00568087 0)
(-0.00322717 0.00677256 0)
(-0.00655662 0.00800143 0)
(-0.0103971 0.00938687 0)
(-0.014796 0.0109415 0)
(-0.0197986 0.0126711 0)
(-0.0254454 0.0145747 0)
(-0.0317701 0.016645 0)
(-0.038797 0.0188685 0)
(-0.0465381 0.0212256 0)
(-0.0549911 0.0236901 0)
(-0.0641371 0.0262295 0)
(-0.0739392 0.0288049 0)
(-0.0843418 0.0313716 0)
(-0.0952708 0.0338804 0)
(-0.106636 0.0362792 0)
(-0.118332 0.0385149 0)
(-0.130246 0.0405358 0)
(-0.142257 0.0422939 0)
(-0.154245 0.0437468 0)
(-0.166093 0.0448595 0)
(-0.177691 0.0456054 0)
(-0.188942 0.0459669 0)
(-0.199759 0.0459349 0)
(-0.210072 0.0455085 0)
(-0.219821 0.0446936 0)
(-0.228962 0.0435021 0)
(-0.237459 0.0419502 0)
(-0.24529 0.0400572 0)
(-0.252438 0.0378447 0)
(-0.258891 0.0353348 0)
(-0.264645 0.0325502 0)
(-0.269696 0.0295133 0)
(-0.274043 0.0262455 0)
(-0.277685 0.0227677 0)
(-0.280621 0.0190996 0)
(-0.282852 0.0152603 0)
(-0.284375 0.0112684 0)
(-0.285187 0.00714196 0)
(-0.285285 0.00289952 0)
(-0.284662 -0.00143998 0)
(-0.283313 -0.00585653 0)
(-0.281231 -0.0103285 0)
(-0.278408 -0.0148324 0)
(-0.274837 -0.0193419 0)
(-0.270512 -0.0238281 0)
(-0.265426 -0.0282583 0)
(-0.259575 -0.0325965 0)
(-0.252958 -0.0368029 0)
(-0.245578 -0.040834 0)
(-0.237443 -0.0446429 0)
(-0.228567 -0.0481799 0)
(-0.21897 -0.0513931 0)
(-0.208683 -0.0542298 0)
(-0.197746 -0.056638 0)
(-0.186209 -0.0585678 0)
(-0.174134 -0.0599737 0)
(-0.161597 -0.0608165 0)
(-0.148682 -0.0610658 0)
(-0.135487 -0.0607015 0)
(-0.122117 -0.059716 0)
(-0.108687 -0.0581154 0)
(-0.0953148 -0.0559199 0)
(-0.0821206 -0.0531642 0)
(-0.0692235 -0.0498966 0)
(-0.0567378 -0.0461776 0)
(-0.04477 -0.0420778 0)
(-0.0334165 -0.0376754 0)
(-0.0227621 -0.0330537 0)
(-0.012878 -0.0282984 0)
(-0.00382258 -0.0234951 0)
(0.00435936 -0.0187271 0)
(0.0116355 -0.0140738 0)
(0.0179858 -0.00960884 0)
(0.0234013 -0.00539906 0)
(0.0278848 -0.00150321 0)
(0.0314503 0.00202914 0)
(0.0341232 0.00515885 0)
(0.035941 0.0078582 0)
(0.0369533 0.0101118 0)
(0.0372211 0.0119172 0)
(0.0368164 0.0132845 0)
(0.0358193 0.0142362 0)
(0.0343173 0.0148053 0)
(0.0323997 0.0150334 0)
(0.0301575 0.0149682 0)
(0.0276761 0.0146607 0)
(0.0250381 0.0141618 0)
(0.0223133 0.0135198 0)
(0.0195684 0.0127762 0)
(0.0168514 0.0119644 0)
(0.0142137 0.0111046 0)
(0.0116818 0.010205 0)
(0.00930145 0.00925576 0)
(0.00708222 0.0082372 0)
(0.00508464 0.00711176 0)
(0.00330631 0.00584713 0)
(0.00185665 0.00440074 0)
(0.000721592 0.00277039 0)
(0.00011119 0.000953493 0)
(9.44644e-05 -0.00132173 0)
(0.000617897 -0.00350518 0)
(0.00156029 -0.00518802 0)
(0.00269197 -0.00636696 0)
(0.00396641 -0.00704466 0)
(0.00522782 -0.00725924 0)
(0.00642408 -0.0070597 0)
(0.00745815 -0.00651515 0)
(0.00829228 -0.00569782 0)
(0.00887331 -0.00468359 0)
(0.00918199 -0.00354146 0)
(0.00919418 -0.00233191 0)
(0.00890287 -0.00110146 0)
(0.00829723 0.000118193 0)
(0.00737171 0.00131179 0)
(0.00611448 0.00247957 0)
(0.00451107 0.00363602 0)
(0.0025384 0.004807 0)
(0.000166943 0.00602643 0)
(-0.0026413 0.00733226 0)
(-0.00593031 0.00876243 0)
(-0.00974926 0.0103513 0)
(-0.0141494 0.0121265 0)
(-0.0191817 0.0141075 0)
(-0.0248937 0.0163041 0)
(-0.0313267 0.0187166 0)
(-0.0385124 0.0213361 0)
(-0.0464705 0.0241442 0)
(-0.0552052 0.027114 0)
(-0.0647031 0.0302097 0)
(-0.0749307 0.0333869 0)
(-0.0858337 0.0365934 0)
(-0.0973367 0.0397705 0)
(-0.109345 0.0428544 0)
(-0.121747 0.0457793 0)
(-0.13442 0.0484797 0)
(-0.147233 0.0508941 0)
(-0.160055 0.0529673 0)
(-0.172761 0.0546531 0)
(-0.185232 0.0559158 0)
(-0.197365 0.0567309 0)
(-0.20907 0.057085 0)
(-0.220275 0.0569752 0)
(-0.230922 0.0564076 0)
(-0.240969 0.0553955 0)
(-0.250387 0.0539581 0)
(-0.259156 0.0521182 0)
(-0.267265 0.0499012 0)
(-0.27471 0.0473335 0)
(-0.28149 0.0444415 0)
(-0.287608 0.0412511 0)
(-0.293065 0.037787 0)
(-0.297867 0.0340722 0)
(-0.302017 0.0301286 0)
(-0.305517 0.0259762 0)
(-0.308368 0.021634 0)
(-0.31057 0.0171197 0)
(-0.312122 0.0124504 0)
(-0.31302 0.00764275 0)
(-0.313259 0.00271376 0)
(-0.312833 -0.00231905 0)
(-0.311732 -0.00743696 0)
(-0.309947 -0.0126195 0)
(-0.307467 -0.0178437 0)
(-0.304278 -0.0230839 0)
(-0.300368 -0.0283107 0)
(-0.295724 -0.0334911 0)
(-0.290332 -0.0385872 0)
(-0.284181 -0.0435567 0)
(-0.277261 -0.0483526 0)
(-0.269565 -0.0529232 0)
(-0.261094 -0.0572123 0)
(-0.251851 -0.0611606 0)
(-0.24185 -0.0647061 0)
(-0.231113 -0.0677863 0)
(-0.219676 -0.0703396 0)
(-0.207585 -0.0723078 0)
(-0.1949 -0.0736388 0)
(-0.181699 -0.0742889 0)
(-0.16807 -0.0742261 0)
(-0.154117 -0.0734322 0)
(-0.139957 -0.0719047 0)
(-0.125713 -0.0696586 0)
(-0.111518 -0.0667266 0)
(-0.0975054 -0.0631586 0)
(-0.0838053 -0.0590206 0)
(-0.0705431 -0.0543917 0)
(-0.0578335 -0.0493618 0)
(-0.0457779 -0.0440274 0)
(-0.0344625 -0.0384887 0)
(-0.0239574 -0.0328456 0)
(-0.0143165 -0.0271954 0)
(-0.00557859 -0.0216303 0)
(0.00223095 -0.016236 0)
(0.00909879 -0.0110902 0)
(0.0150222 -0.00626208 0)
(0.020008 -0.00181156 0)
(0.0240725 0.00221162 0)
(0.0272412 0.00576871 0)
(0.02955 0.008833 0)
(0.0310446 0.0113907 0)
(0.0317821 0.0134417 0)
(0.0318287 0.0149992 0)
(0.0312606 0.0160897 0)
(0.0301593 0.0167511 0)
(0.0286123 0.0170304 0)
(0.0267057 0.0169811 0)
(0.0245269 0.0166597 0)
(0.0221537 0.0161218 0)
(0.0196637 0.0154179 0)
(0.0171169 0.0145905 0)
(0.0145781 0.0136685 0)
(0.012086 0.0126662 0)
(0.00969971 0.0115788 0)
(0.00743846 0.0103857 0)
(0.0053757 0.00904733 0)
(0.00351625 0.00751864 0)
(0.00198536 0.00574468 0)
(0.000775304 0.00369024 0)
(0.000120041 0.00132412 0)
(9.80687e-05 -0.00163387 0)
(0.000637017 -0.0042658 0)
(0.00159571 -0.0062464 0)
(0.00272689 -0.0075863 0)
(0.00397459 -0.00830818 0)
(0.0051725 -0.00846593 0)
(0.00626439 -0.00812803 0)
(0.00714984 -0.00738027 0)
(0.00779132 -0.00631207 0)
(0.00813592 -0.00501303 0)
(0.00816556 -0.00356382 0)
(0.00785601 -0.00203258 0)
(0.00719914 -0.000470349 0)
(0.00618087 0.00109047 0)
(0.00479042 0.00263686 0)
(0.00300855 0.00417414 0)
(0.000811623 0.00572362 0)
(-0.0018339 0.00731909 0)
(-0.00496846 0.00900232 0)
(-0.0086405 0.0108181 0)
(-0.0129029 0.0128094 0)
(-0.0178112 0.0150126 0)
(-0.0234195 0.0174549 0)
(-0.0297772 0.0201515 0)
(-0.0369252 0.0231049 0)
(-0.0448924 0.0263048 0)
(-0.0536923 0.0297284 0)
(-0.0633199 0.0333406 0)
(-0.0737489 0.0370948 0)
(-0.0849302 0.0409339 0)
(-0.0967912 0.0447911 0)
(-0.109237 0.0485925 0)
(-0.122152 0.0522595 0)
(-0.135407 0.0557125 0)
(-0.148864 0.0588748 0)
(-0.16238 0.0616764 0)
(-0.175819 0.064057 0)
(-0.189053 0.0659687 0)
(-0.201969 0.0673774 0)
(-0.214471 0.0682625 0)
(-0.226483 0.0686168 0)
(-0.237945 0.0684443 0)
(-0.248815 0.0677583 0)
(-0.259064 0.0665796 0)
(-0.268675 0.0649337 0)
(-0.277641 0.0628495 0)
(-0.28596 0.0603573 0)
(-0.293636 0.0574874 0)
(-0.300674 0.0542697 0)
(-0.307081 0.0507324 0)
(-0.312866 0.0469023 0)
(-0.318037 0.0428038 0)
(-0.322599 0.0384596 0)
(-0.32656 0.0338904 0)
(-0.329923 0.029115 0)
(-0.332694 0.0241507 0)
(-0.334873 0.0190139 0)
(-0.33646 0.0137197 0)
(-0.337455 0.0082832 0)
(-0.337853 0.00271935 0)
(-0.337648 -0.00295619 0)
(-0.336833 -0.00872663 0)
(-0.335396 -0.0145733 0)
(-0.333325 -0.0204752 0)
(-0.330605 -0.026408 0)
(-0.327217 -0.0323438 0)
(-0.323143 -0.0382499 0)
(-0.318361 -0.0440889 0)
(-0.312849 -0.0498177 0)
(-0.306586 -0.0553872 0)
(-0.299552 -0.0607426 0)
(-0.291727 -0.0658231 0)
(-0.2831 -0.0705629 0)
(-0.273662 -0.0748917 0)
(-0.263416 -0.0787364 0)
(-0.252374 -0.0820234 0)
(-0.240562 -0.0846803 0)
(-0.22802 -0.0866396 0)
(-0.214806 -0.0878416 0)
(-0.200997 -0.0882378 0)
(-0.186687 -0.0877946 0)
(-0.171988 -0.0864959 0)
(-0.157029 -0.084346 0)
(-0.141949 -0.0813707 0)
(-0.126897 -0.0776174 0)
(-0.112025 -0.0731546 0)
(-0.0974814 -0.068069 0)
(-0.083408 -0.0624618 0)
(-0.0699319 -0.0564451 0)
(-0.0571638 -0.0501362 0)
(-0.0451941 -0.0436535 0)
(-0.034093 -0.037112 0)
(-0.0239104 -0.0306206 0)
(-0.0146783 -0.0242791 0)
(-0.00641295 -0.0181775 0)
(0.000881813 -0.0123954 0)
(0.00721235 -0.00700147 0)
(0.0125934 -0.00205381 0)
(0.0170469 0.00240049 0)
(0.0206023 0.00632587 0)
(0.0232965 0.0096991 0)
(0.0251752 0.0125101 0)
(0.0262925 0.0147628 0)
(0.0267126 0.0164748 0)
(0.0265064 0.0176774 0)
(0.0257535 0.0184132 0)
(0.0245353 0.0187345 0)
(0.0229383 0.0186991 0)
(0.0210432 0.0183668 0)
(0.0189336 0.0177949 0)
(0.0166781 0.0170326 0)
(0.0143522 0.0161172 0)
(0.0120053 0.0150687 0)
(0.00970911 0.0138878 0)
(0.00749354 0.0125535 0)
(0.00544424 0.0110246 0)
(0.00357541 0.00924354 0)
(0.00202456 0.00714266 0)
(0.000791478 0.0046529 0)
(0.000122241 0.00171365 0)
(0.000101051 -0.00195345 0)
(0.000647186 -0.00503483 0)
(0.0016025 -0.00729929 0)
(0.00270442 -0.00877331 0)
(0.00388717 -0.00950282 0)
(0.00497632 -0.00956089 0)
(0.00591214 -0.00903876 0)
(0.00659264 -0.0080413 0)
(0.00698112 -0.00667662 0)
(0.00702593 -0.00504841 0)
(0.0067102 -0.00324855 0)
(0.00600965 -0.00135143 0)
(0.00491432 0.000589253 0)
(0.00340603 0.00254264 0)
(0.0014676 0.00450022 0)
(-0.000928811 0.00647433 0)
(-0.00381695 0.00849456 0)
(-0.00724124 0.0106032 0)
(-0.0112526 0.0128495 0)
(-0.0159084 0.0152835 0)
(-0.0212674 0.0179501 0)
(-0.0273872 0.0208845 0)
(-0.0343185 0.0241081 0)
(-0.0421017 0.0276266 0)
(-0.0507621 0.0314292 0)
(-0.0603066 0.0354884 0)
(-0.07072 0.0397612 0)
(-0.0819625 0.0441898 0)
(-0.0939688 0.0487031 0)
(-0.106648 0.0532195 0)
(-0.119886 0.0576493 0)
(-0.133551 0.0618992 0)
(-0.147496 0.0658765 0)
(-0.161571 0.0694943 0)
(-0.175626 0.0726757 0)
(-0.189522 0.0753571 0)
(-0.203135 0.0774911 0)
(-0.216357 0.0790464 0)
(-0.229103 0.0800079 0)
(-0.241307 0.0803748 0)
(-0.252923 0.0801583 0)
(-0.26392 0.0793788 0)
(-0.274281 0.0780635 0)
(-0.283996 0.0762438 0)
(-0.293068 0.0739537 0)
(-0.301499 0.0712276 0)
(-0.309299 0.0680994 0)
(-0.316478 0.064602 0)
(-0.323048 0.0607663 0)
(-0.329019 0.0566209 0)
(-0.334404 0.0521923 0)
(-0.339215 0.0475047 0)
(-0.343462 0.0425798 0)
(-0.347155 0.0374372 0)
(-0.350305 0.0320947 0)