/*--------------------------------*- C++ -*----------------------------------*\
| =========                 |                                                 |
| \\      /  F ield         | OpenFOAM: The Open Source CFD Toolbox           |
|  \\    /   O peration     | Version:  2406                                  |
|   \\  /    A nd           | Website:  www.openfoam.com                      |
|    \\/     M anipulation  |                                                 |
\*---------------------------------------------------------------------------*/
FoamFile
{
    version     2.0;
    format      ascii;
    arch        "LSB;label=32;scalar=64";
    class       surfaceScalarField;
    location    "32.2";
    object      phi;
}
// * * * * * * * * * * * * * * * * * * * * * * * * * * * * * * * * * * * * * //

dimensions      [0 3 -1 0 0 0 0];

oriented        oriented;

internalField   nonuniform List<scalar> 
7080
(
2.88616e-07
-2.88577e-07
1.22224e-06
-9.33621e-07
2.58029e-06
-1.35805e-06
3.98283e-06
-1.40254e-06
5.15153e-06
-1.1687e-06
5.95191e-06
-8.0038e-07
6.38434e-06
-4.32427e-07
6.53291e-06
-1.48573e-07
6.49822e-06
3.46866e-08
6.36158e-06
1.36639e-07
6.13646e-06
2.25124e-07
5.77268e-06
3.63781e-07
5.16969e-06
6.02989e-07
4.19952e-06
9.70172e-07
2.7252e-06
1.47432e-06
6.09295e-07
2.1159e-06
-2.28337e-06
2.89266e-06
-6.08187e-06
3.79851e-06
-1.09007e-05
4.81879e-06
-1.68248e-05
5.92413e-06
-2.389e-05
7.0652e-06
-3.20609e-05
8.17093e-06
-4.12115e-05
9.15059e-06
-5.11096e-05
9.89806e-06
-6.14091e-05
1.02995e-05
-7.16556e-05
1.02465e-05
-8.13071e-05
9.65152e-06
-8.97726e-05
8.46546e-06
-9.64508e-05
6.67826e-06
-0.000100764
4.313e-06
-0.000102197
1.43351e-06
-0.000100409
-1.78821e-06
-9.5216e-05
-5.1931e-06
-8.65774e-05
-8.63866e-06
-7.46817e-05
-1.18956e-05
-5.99487e-05
-1.4733e-05
-4.30323e-05
-1.69165e-05
-2.48044e-05
-1.82279e-05
-6.30907e-06
-1.84953e-05
1.13182e-05
-1.76272e-05
2.69616e-05
-1.56434e-05
3.9656e-05
-1.26945e-05
4.87192e-05
-9.06321e-06
5.38529e-05
-5.13362e-06
5.52086e-05
-1.35577e-06
5.32329e-05
1.97576e-06
4.8735e-05
4.49785e-06
4.2671e-05
6.06407e-06
3.59365e-05
6.73446e-06
2.92335e-05
6.70302e-06
2.30494e-05
6.18409e-06
1.76482e-05
5.40114e-06
1.31139e-05
4.53432e-06
9.40847e-06
3.70546e-06
6.42735e-06
2.98112e-06
4.04874e-06
2.37861e-06
2.18566e-06
1.86308e-06
8.34815e-07
1.35084e-06
1.12416e-07
7.224e-07
1.12416e-07
9.03592e-07
-1.19217e-06
3.17002e-06
-3.20005e-06
6.13194e-06
-4.31997e-06
9.06762e-06
-4.33822e-06
1.14269e-05
-3.52798e-06
1.29223e-05
-2.29582e-06
1.3505e-05
-1.01512e-06
1.32792e-05
7.72858e-08
1.23893e-05
9.24579e-07
1.09138e-05
1.61212e-06
8.81265e-06
2.32627e-06
5.90849e-06
3.26794e-06
1.91904e-06
4.59245e-06
-3.49374e-06
6.38294e-06
-1.0679e-05
8.65963e-06
-1.99647e-05
1.14016e-05
-3.16276e-05
1.45556e-05
-4.58544e-05
1.80252e-05
-6.26904e-05
2.16548e-05
-8.1977e-05
2.52107e-05
-0.000103299
2.83867e-05
-0.000125972
3.08442e-05
-0.000149092
3.22712e-05
-0.000171629
3.24347e-05
-0.000192537
3.12074e-05
-0.000210855
2.85651e-05
-0.000225771
2.45668e-05
-0.000236637
1.93322e-05
-0.000242976
1.30169e-05
-0.000244477
5.81366e-06
-0.000241003
-2.03994e-06
-0.000232398
-1.03932e-05
-0.000218792
-1.8799e-05
-0.000200438
-2.6993e-05
-0.000177722
-3.46115e-05
-0.000151214
-4.1241e-05
-0.000121682
-4.64483e-05
-9.01003e-05
-4.98099e-05
-5.76314e-05
-5.09642e-05
-2.55879e-05
-4.96707e-05
4.64211e-06
-4.58734e-05
3.16995e-05
-3.97519e-05
5.43742e-05
-3.17379e-05
7.17351e-05
-2.24945e-05
8.32158e-05
-1.28365e-05
8.87956e-05
-3.60401e-06
8.88929e-05
4.40051e-06
8.43509e-05
1.06061e-05
7.6347e-05
1.47383e-05
6.62284e-05
1.68217e-05
5.52606e-05
1.71518e-05
4.44644e-05
1.61974e-05
3.45254e-05
1.44734e-05
2.57981e-05
1.24327e-05
1.83781e-05
1.04011e-05
1.22085e-05
8.54822e-06
7.20329e-06
6.86828e-06
3.37084e-06
5.18329e-06
8.9113e-07
3.20211e-06
1.00355e-06
1.38603e-06
-2.57819e-06
4.48218e-06
-6.2962e-06
8.22845e-06
-8.06624e-06
1.17093e-05
-7.81906e-06
1.42641e-05
-6.08277e-06
1.55429e-05
-3.57461e-06
1.54552e-05
-9.2748e-07
1.40559e-05
1.47662e-06
1.14153e-05
3.56514e-06
7.4984e-06
5.52904e-06
2.10798e-06
7.71669e-06
-5.1159e-06
1.04918e-05
-1.46409e-05
1.41174e-05
-2.69643e-05
1.87064e-05
-4.25355e-05
2.42308e-05
-6.16769e-05
3.0543e-05
-8.44904e-05
3.73691e-05
-0.000110752
4.42867e-05
-0.000139832
5.07345e-05
-0.000170712
5.60913e-05
-0.000202124
5.97991e-05
-0.000232747
6.14669e-05
-0.000261385
6.09085e-05
-0.000287067
5.81174e-05
-0.000309075
5.32151e-05
-0.000326909
4.63992e-05
-0.000340246
3.79034e-05
-0.000348884
2.79704e-05
-0.000352711
1.68442e-05
-0.000351676
4.77855e-06
-0.000345745
-7.97139e-06
-0.000334989
-2.1149e-05
-0.000319403
-3.43852e-05
-0.000299109
-4.72866e-05
-0.000274328
-5.93929e-05
-0.000245405
-7.0164e-05
-0.00021286
-7.89933e-05
-0.000177418
-8.52514e-05
-0.000140032
-8.83511e-05
-0.000101865
-8.7837e-05
-6.42527e-05
-8.34859e-05
-2.86087e-05
-7.53959e-05
3.69104e-06
-6.40376e-05
3.14352e-05
-5.02387e-05
5.36904e-05
-3.50917e-05
6.99061e-05
-1.98197e-05
7.99309e-05
-5.62426e-06
8.39969e-05
6.54014e-06
8.27501e-05
1.59851e-05
7.72182e-05
2.23535e-05
6.86498e-05
2.57203e-05
5.83495e-05
2.64977e-05
4.74849e-05
2.53379e-05
3.69445e-05
2.29732e-05
2.72893e-05
2.00563e-05
1.88016e-05
1.70359e-05
1.16047e-05
1.40652e-05
5.82157e-06
1.09664e-05
1.73537e-06
7.2883e-06
2.73892e-06
1.66828e-06
-4.24647e-06
5.16989e-06
-9.79781e-06
9.10076e-06
-1.19971e-05
1.23733e-05
-1.10916e-05
1.42756e-05
-7.9851e-06
1.44534e-05
-3.75243e-06
1.27976e-05
7.28369e-07
9.28808e-06
4.98613e-06
3.85013e-06
9.00309e-06
-3.75352e-06
1.31327e-05
-1.39498e-05
1.7913e-05
-2.73027e-05
2.38447e-05
-4.44035e-05
3.12182e-05
-6.57386e-05
4.00415e-05
-9.15477e-05
5.004e-05
-0.000121672
6.06673e-05
-0.000155437
7.11341e-05
-0.000191664
8.05134e-05
-0.000228856
8.79271e-05
-0.000265489
9.27242e-05
-0.00030025
9.45596e-05
-0.000332154
9.33712e-05
-0.000360547
8.93011e-05
-0.000385039
8.26103e-05
-0.000405433
7.36083e-05
-0.000421641
6.26078e-05
-0.000433637
4.9899e-05
-0.000441407
3.57408e-05
-0.000444932
2.03687e-05
-0.00044417
4.01728e-06
-0.000439046
-1.30956e-05
-0.000429506
-3.06894e-05
-0.000415447
-4.84439e-05
-0.000396781
-6.59528e-05
-0.00037348
-8.26936e-05
-0.000345613
-9.8031e-05
-0.000313397
-0.000111209
-0.000277257
-0.000121391
-0.000237882
-0.000127726
-0.000196256
-0.000129463
-0.000153649
-0.000126093
-0.000111549
-0.000117496
-7.153e-05
-0.000104057
-3.50815e-05
-8.66872e-05
-3.43136e-06
-6.67418e-05
2.25637e-05
-4.58148e-05
4.2431e-05
-2.54916e-05
5.60908e-05
-7.11962e-06
6.37971e-05
8.27869e-06
6.60891e-05
2.00616e-05
6.38132e-05
2.79962e-05
5.8052e-05
3.22589e-05
4.99975e-05
3.33924e-05
4.07831e-05
3.21876e-05
3.13402e-05
2.94991e-05
2.23379e-05
2.60382e-05
1.42249e-05
2.21782e-05
7.37071e-06
1.78206e-05
2.28254e-06
1.23765e-05
5.02146e-06
1.81777e-06
-6.06425e-06
5.35716e-06
-1.33372e-05
8.9147e-06
-1.55547e-05
1.1276e-05
-1.34528e-05
1.17292e-05
-8.43836e-06
9.95272e-06
-1.97593e-06
5.81948e-06
4.8616e-06
-8.0087e-07
1.16065e-05
-1.01919e-05
1.83941e-05
-2.28475e-05
2.57883e-05
-3.94191e-05
3.44846e-05
-6.05642e-05
4.49898e-05
-8.67446e-05
5.73986e-05
-0.000118019
7.13158e-05
-0.00015387
8.5891e-05
-0.000193154
9.99512e-05
-0.000234261
0.000112242
-0.000275454
0.000121706
-0.000315201
0.000127674
-0.000352364
0.000129887
-0.000386215
0.000128411
-0.000416364
0.00012352
-0.000442648
0.000115585
-0.000465045
0.000105007
-0.000483603
9.21662e-05
-0.000498399
7.74032e-05
-0.000509509
6.10094e-05
-0.000516997
4.32283e-05
-0.000520892
2.42637e-05
-0.000521166
4.29142e-06
-0.000517782
-1.64789e-05
-0.000510617
-3.78545e-05
-0.000499494
-5.95676e-05
-0.000484188
-8.1258e-05
-0.000464449
-0.000102433
-0.000440037
-0.000122442
-0.00041079
-0.000140456
-0.0003767
-0.000155482
-0.000338013
-0.000166413
-0.000295333
-0.000172143
-0.000249691
-0.000171735
-0.000202554
-0.000164633
-0.000155731
-0.000150879
-0.000111167
-0.000131251
-7.06578e-05
-0.000107251
-3.55729e-05
-8.08997e-05
-6.70972e-06
-5.43547e-05
1.56913e-05
-2.95207e-05
3.1779e-05
-7.80898e-06
4.19421e-05
9.8985e-06
4.67591e-05
2.31792e-05
4.70081e-05
3.20099e-05
4.36541e-05
3.67463e-05
3.77683e-05
3.80734e-05
3.03994e-05
3.6868e-05
2.24617e-05
3.39759e-05
1.46995e-05
2.99404e-05
7.76977e-06
2.47504e-05
2.44104e-06
1.77052e-05
7.4625e-06
1.84305e-06
-7.90729e-06
5.04741e-06
-1.65416e-05
7.65953e-06
-1.81668e-05
8.41541e-06
-1.42087e-05
6.65918e-06
-6.68213e-06
2.11665e-06
2.5666e-06
-5.3833e-06
1.23616e-05
-1.61349e-05
2.23581e-05
-3.06658e-05
3.2925e-05
-4.96934e-05
4.48158e-05
-7.39296e-05
5.87208e-05
-0.000103799
7.48587e-05
-0.000139162
9.27621e-05
-0.000179158
0.000111312
-0.000222252
0.000128986
-0.000266545
0.000144243
-0.000310187
0.000155884
-0.00035171
0.000163229
-0.000390124
0.000166089
-0.000424872
0.000164634
-0.000455707
0.000159246
-0.000482587
0.0001504
-0.000505596
0.000138594
-0.000524891
0.000124302
-0.000540669
0.000107945
-0.000553144
8.98781e-05
-0.000562522
7.03876e-05
-0.000568989
4.96954e-05
-0.000572693
2.7967e-05
-0.000573692
5.29021e-06
-0.000572033
-1.81372e-05
-0.000567619
-4.22686e-05
-0.000560252
-6.69346e-05
-0.000549631
-9.1879e-05
-0.000535337
-0.000116728
-0.000516855
-0.000140924
-0.000493621
-0.00016369
-0.000465103
-0.000184
-0.000430921
-0.000200595
-0.000391013
-0.000212051
-0.000345807
-0.000216941
-0.00029637
-0.000214071
-0.000244454
-0.000202795
-0.000192389
-0.000183315
-0.000142759
-0.000156881
-9.79298e-05
-0.000125729
-5.95775e-05
-9.27069e-05
-2.84538e-05
-6.06444e-05
-4.50258e-06
-3.17602e-05
1.27933e-05
-7.39735e-06
2.41134e-05
1.18591e-05
3.01921e-05
2.59312e-05
3.1843e-05
3.50954e-05
2.99894e-05
3.9927e-05
2.56278e-05
4.12297e-05
1.97499e-05
3.98538e-05
1.32842e-05
3.64061e-05
7.12087e-06
3.09137e-05
2.24036e-06
2.25857e-05
9.70287e-06
1.70845e-06
-9.61574e-06
4.14085e-06
-1.8974e-05
5.19518e-06
-1.92211e-05
3.65949e-06
-1.2673e-05
-1.01758e-06
-2.00507e-06
-9.07549e-06
1.06245e-05
-2.07784e-05
2.40644e-05
-3.66206e-05
3.82003e-05
-5.733e-05
5.36344e-05
-8.3654e-05
7.11399e-05
-0.000116002
9.10686e-05
-0.000154096
0.000112953
-0.000196816
0.000135482
-0.000242341
0.000156836
-0.000288558
0.000175203
-0.000333542
0.000189227
-0.000375838
0.000198181
-0.000414523
0.000201913
-0.000449104
0.00020067
-0.0004794
0.00019493
-0.000505443
0.000185288
-0.00052741
0.000172367
-0.000545582
0.000156766
-0.000560302
0.000139022
-0.000571944
0.000119587
-0.000580884
9.8818e-05
-0.000587475
7.6979e-05
-0.000592028
5.42485e-05
-0.000594791
3.07304e-05
-0.000595957
6.45558e-06
-0.000595599
-1.84951e-05
-0.000593715
-4.41523e-05
-0.00059017
-7.04794e-05
-0.000584679
-9.73706e-05
-0.000576786
-0.000124621
-0.000565848
-0.000151862
-0.00055104
-0.000178498
-0.000531393
-0.000203647
-0.000505897
-0.000226091
-0.000473664
-0.000244284
-0.000434172
-0.000256433
-0.000387548
-0.000260696
-0.000334833
-0.00025551
-0.000278122
-0.000240027
-0.000220445
-0.000214558
-0.000165306
-0.000180868
-0.000115928
-0.000142085
-7.44761e-05
-0.000102097
-4.16778e-05
-6.45585e-05
-1.70738e-05
-3.20014e-05
3.56857e-07
-5.57155e-06
1.16924e-05
1.45956e-05
1.79124e-05
2.88754e-05
1.99462e-05
3.78932e-05
1.8747e-05
4.24288e-05
1.53074e-05
4.32935e-05
1.06388e-05
4.10746e-05
5.7716e-06
3.5781e-05
1.80228e-06
2.6555e-05
1.15051e-05
1.3523e-06
-1.0968e-05
2.49011e-06
-2.01118e-05
1.34661e-06
-1.80776e-05
-3.12292e-06
-8.2035e-06
-1.13513e-05
6.22336e-06
-2.35786e-05
2.28518e-05
-4.02026e-05
4.06884e-05
-6.18837e-05
5.98815e-05
-8.93641e-05
8.11148e-05
-0.000123065
0.000104841
-0.000162661
0.000130665
-0.000206891
0.000157183
-0.000253741
0.000182332
-0.000300931
0.000204025
-0.000346424
0.000220696
-0.000388716
0.000231519
-0.000426863
0.000236328
-0.000460374
0.000235424
-0.000489098
0.000229394
-0.000513137
0.00021897
-0.000532784
0.000204935
-0.000548461
0.000188045
-0.000560675
0.000168979
-0.000569956
0.000148304
-0.000576829
0.000126459
-0.000581775
0.000103764
-0.000585218
8.04228e-05
-0.000587517
5.65469e-05
-0.000588958
3.21711e-05
-0.000589782
7.27957e-06
-0.000590105
-1.81717e-05
-0.000590001
-4.42564e-05
-0.000589442
-7.10386e-05
-0.000588261
-9.85507e-05
-0.000586126
-0.000126757
-0.00058248
-0.000155508
-0.000576506
-0.000184472
-0.000567096
-0.000213057
-0.000552872
-0.000240315
-0.000532287
-0.000264868
-0.000503836
-0.000284884
-0.000466385
-0.000298147
-0.000419601
-0.000302294
-0.000364388
-0.000295239
-0.000303177
-0.000275769
-0.000239839
-0.000244206
-0.000179063
-0.000202861
-0.000125207
-0.000155952
-8.10728e-05
-0.000108693
-4.7323e-05
-6.57512e-05
-2.29526e-05
-2.9942e-05
-6.31785e-06
-2.03909e-06
4.1287e-06
1.84289e-05
9.66e-06
3.23619e-05
1.13735e-05
4.07154e-05
1.03155e-05
4.43515e-05
7.54762e-06
4.38425e-05
4.16427e-06
3.91643e-05
1.28516e-06
2.94341e-05
1.27903e-05
6.97754e-07
-1.16658e-05
-2.2566e-08
-1.93914e-05
-3.97806e-06
-1.41221e-05
-1.19456e-05
-2.35937e-07
-2.42366e-05
1.85143e-05
-4.1137e-05
3.97523e-05
-6.31677e-05
6.2719e-05
-9.1004e-05
8.77178e-05
-0.000125086
0.000115197
-0.00016513
0.000144884
-0.000209855
0.000175391
-0.000257152
0.00020448
-0.000304596
0.000229776
-0.000350007
0.000249437
-0.000391767
0.000262456
-0.000428851
0.000268603
-0.000460739
0.000268216
-0.000487305
0.00026199
-0.000508739
0.000250827
-0.000525467
0.000235698
-0.000538078
0.000217546
-0.000547241
0.000197208
-0.000553634
0.000175373
-0.000557895
0.000152564
-0.000560584
0.000129148
-0.000562174
0.000105354
-0.000563048
8.12971e-05
-0.000563512
5.70105e-05
-0.000563807
3.24664e-05
-0.000564134
7.6062e-06
-0.000564626
-1.76788e-05
-0.000565395
-4.34877e-05
-0.000566503
-6.99307e-05
-0.000567938
-9.71154e-05
-0.000569575
-0.00012512
-0.000571114
-0.000153969
-0.000572004
-0.000183582
-0.00057136
-0.000213702
-0.000567885
-0.00024379
-0.000559854
-0.000272899
-0.000545193
-0.000299545
-0.000521714
-0.000321627
-0.000487537
-0.000336471
-0.000441698
-0.000341078
-0.000384808
-0.000332659
-0.000319572
-0.000309441
-0.000250807
-0.000271626
-0.000184625
-0.000222135
-0.000126765
-0.000166553
-8.07273e-05
-0.000111789
-4.69594e-05
-6.37099e-05
-2.37195e-05
-2.5279e-05
-8.65432e-06
3.36372e-06
2.6968e-07
2.34379e-05
4.62896e-06
3.63561e-05
5.71176e-06
4.32687e-05
4.68901e-06
4.48652e-05
2.69766e-06
4.11556e-05
8.31389e-07
3.13004e-05
1.36217e-05
-3.2404e-07
-1.13418e-05
-3.48478e-06
-1.62307e-05
-1.07648e-05
-6.84209e-06
-2.26417e-05
1.1641e-05
-3.93335e-05
3.5206e-05
-6.11796e-05
6.15984e-05
-8.87209e-05
9.02603e-05
-0.000122393
0.00012139
-0.000162012
0.000154816
-0.000206396
0.000189268
-0.00025344
0.000222435
-0.000300616
0.000251656
-0.000345579
0.000274739
-0.000386547
0.000290404
-0.000422378
0.000298288
-0.000452502
0.000298727
-0.000476817
0.000292531
-0.000495612
0.000280785
-0.000509464
0.000264679
-0.000519131
0.000245366
-0.000525445
0.00022386
-0.000529216
0.000200978
-0.000531166
0.000177323
-0.000531898
0.000153296
-0.000531885
0.000129136
-0.000531483
0.000104952
-0.000530951
8.07645e-05
-0.000530475
5.65351e-05
-0.0005302
3.21911e-05
-0.000530241
7.64728e-06
-0.000530705
-1.72146e-05
-0.0005317
-4.24926e-05
-0.000533333
-6.82979e-05
-0.0005357
-9.47484e-05
-0.000538859
-0.000121961
-0.000542784
-0.000150044
-0.000547287
-0.000179078
-0.000551921
-0.000209068
-0.000555848
-0.000239863
-0.000557711
-0.000271036
-0.00055555
-0.000301706
-0.000546831
-0.000330346
-0.000528677
-0.000354625
-0.000498375
-0.00037138
-0.000454166
-0.000376868
-0.000396207
-0.0003674
-0.000327403
-0.00034043
-0.000253604
-0.000295934
-0.00018258
-0.000237576
-0.000121635
-0.000172733
-7.48775e-05
-0.000110468
-4.22252e-05
-5.79312e-05
-2.09829e-05
-1.78786e-05
-8.06926e-06
1.05243e-05
-1.01261e-06
2.92994e-05
2.02816e-06
4.02279e-05
2.49991e-06
4.43935e-05
1.63988e-06
4.20157e-05
5.34808e-07
3.24055e-05
1.41565e-05
-1.70044e-06
-9.64131e-06
-7.81339e-06
-1.01178e-05
-1.88083e-05
4.15281e-06
-3.4827e-05
2.76597e-05
-5.6035e-05
5.64141e-05
-8.27777e-05
8.83411e-05
-0.000115433
0.000122916
-0.000153933
0.00015989
-0.000197289
0.000198172
-0.000243516
0.000235495
-0.00029005
0.000268969
-0.000334383
0.000295989
-0.000374538
0.000314894
-0.000409222
0.000325088
-0.000437787
0.000326852
-0.000460145
0.000321085
-0.000476677
0.000309063
-0.000488107
0.000292215
-0.00049536
0.000271932
-0.000499421
0.000249426
-0.000501212
0.000225651
-0.000501523
0.00020129
-0.000500975
0.000176774
-0.000500017
0.000152338
-0.000498953
0.000128072
-0.000497973
0.000103971
-0.000497184
7.99754e-05
-0.000496648
5.59999e-05
-0.000496409
3.19517e-05
-0.000496502
7.74042e-06
-0.000496988
-1.67284e-05
-0.000497947
-4.15338e-05
-0.000499486
-6.67585e-05
-0.000501744
-9.24914e-05
-0.000504872
-0.000118832
-0.000509018
-0.000145898
-0.000514275
-0.000173821
-0.000520603
-0.00020274
-0.000527712
-0.000232754
-0.0005349
-0.000263849
-0.00054086
-0.000295745
-0.000543522
-0.000327685
-0.000539994
-0.000358152
-0.000526763
-0.000384611
-0.000500249
-0.000403383
-0.000457792
-0.000409857
-0.000398969
-0.000399253
-0.000326849
-0.000368054
-0.000248454
-0.000315971
-0.000173469
-0.000247718
-0.00011084
-0.000173097
-6.4935e-05
-0.000103836
-3.46457e-05
-4.81679e-05
-1.61566e-05
-7.96488e-06
-5.75888e-06
1.89017e-05
-6.65731e-07
3.51347e-05
1.12117e-06
4.26066e-05
1.09437e-06
4.20425e-05
4.30784e-07
3.30691e-05
1.45873e-05
-3.4296e-06
-6.21172e-06
-1.28557e-05
-6.9163e-07
-2.7744e-05
1.90411e-05
-4.79183e-05
4.78339e-05
-7.34877e-05
8.19835e-05
-0.000104696
0.00011955
-0.000141557
0.000159777
-0.000183332
0.000201664
-0.000228269
0.00024311
-0.000273872
0.000281098
-0.000317511
0.000312607
-0.000356994
0.000335473
-0.000390838
0.000348738
-0.000418282
0.000352532
-0.000439216
0.000347787
-0.000454086
0.000335955
-0.000463739
0.000318716
-0.000469252
0.000297728
-0.000471747
0.000274427
-0.00047225
0.000249929
-0.000471603
0.000225005
-0.000470434
0.00020012
-0.000469162
0.000175502
-0.000468033
0.00015121
-0.000467166
0.000127206
-0.000466596
0.000103401
-0.000466309
7.96883e-05
-0.000466274
5.59652e-05
-0.000466463
3.21407e-05
-0.000466863
8.13949e-06
-0.00046749
-1.61008e-05
-0.000468395
-4.06289e-05
-0.000469664
-6.54893e-05
-0.000471427
-9.07287e-05
-0.000473854
-0.000116405
-0.000477152
-0.0001426
-0.000481547
-0.000169427
-0.000487242
-0.000197045
-0.000494344
-0.000225652
-0.000502736
-0.000255456
-0.00051189
-0.000286592
-0.000520617
-0.000318957
-0.000526826
-0.000351944
-0.000527364
-0.000384072
-0.000518152
-0.000412596
-0.000494757
-0.000433251
-0.00045359
-0.000440421
-0.000393609
-0.000428035
-0.000318123
-0.000391458
-0.000235588
-0.000330253
-0.000157898
-0.000250787
-9.55164e-05
-0.000166218
-5.23423e-05
-9.13419e-05
-2.56246e-05
-3.46826e-05
-1.04629e-05
3.73999e-06
-2.75892e-06
2.74308e-05
3.96304e-07
3.94514e-05
1.00242e-06
4.14364e-05
5.01373e-07
3.35701e-05
1.50887e-05
-5.42228e-06
-7.89436e-07
-1.83353e-05
1.22214e-05
-3.70771e-05
3.77829e-05
-6.11828e-05
7.19396e-05
-9.06681e-05
0.000111469
-0.000125542
0.000154423
-0.000165307
0.000199542
-0.000208544
0.000244901
-0.000252951
0.000287517
-0.000295861
0.000324008
-0.000334879
0.000351626
-0.000368292
0.000368886
-0.000395171
0.000375617
-0.00041533
0.000372691
-0.000429226
0.000361683
-0.000437794
0.000344522
-0.000442232
0.000323155
-0.000443787
0.000299283
-0.00044358
0.00027422
-0.000442504
0.000248853
-0.000441193
0.000223694
-0.00044004
0.000198967
-0.00043924
0.000174702
-0.000438852
0.000150822
-0.000438849
0.000127203
-0.000439159
0.00010371
-0.000439696
8.02252e-05
-0.000440381
5.66504e-05
-0.000441153
3.29129e-05
-0.000441976
8.96202e-06
-0.000442842
-1.52345e-05
-0.000443776
-3.96944e-05
-0.000444838
-6.44275e-05
-0.000446126
-8.94413e-05
-0.000447781
-0.00011475
-0.000449997
-0.000140384
-0.000453014
-0.000166409
-0.000457118
-0.000192941
-0.000462607
-0.000220163
-0.000469722
-0.000248342
-0.000478516
-0.000277797
-0.000488641
-0.000308831
-0.000499049
-0.000341535
-0.000507659
-0.000375463
-0.000511101
-0.000409153
-0.000504769
-0.000439583
-0.000483416
-0.000461774
-0.000442552
-0.000468899
-0.00038062
-0.000453389
-0.000301431
-0.000409441
-0.000215336
-0.000336882
-0.000136743
-0.000244811
-7.71026e-05
-0.000150982
-3.86336e-05
-7.31516e-05
-1.64819e-05
-1.84117e-05
-5.02392e-06
1.59729e-05
-8.56712e-08
3.45131e-05
1.17029e-06
4.01804e-05
6.85208e-07
3.40552e-05
1.57739e-05
-7.54674e-06
6.7573e-06
-2.39002e-05
2.85748e-05
-4.62343e-05
6.0117e-05
-7.38169e-05
9.95223e-05
-0.000106507
0.000144159
-0.000143967
0.000191883
-0.000185145
0.00024072
-0.000228071
0.000287826
-0.000270171
0.000329617
-0.000308902
0.000362739
-0.000342294
0.000385018
-0.000369189
0.00039578
-0.00038925
0.000395678
-0.000402875
0.000386316
-0.000411025
0.000369834
-0.000414989
0.000348486
-0.00041612
0.000324286
-0.000415633
0.000298796
-0.00041448
0.000273066
-0.000413312
0.000247685
-0.000412506
0.000222888
-0.000412221
0.000198682
-0.000412468
0.000174949
-0.000413172
0.000151526
-0.000414217
0.000128249
-0.000415483
0.000104976
-0.000416857
8.15993e-05
-0.000418249
5.80424e-05
-0.000419593
3.42568e-05
-0.000420848
1.02174e-05
-0.000422
-1.40829e-05
-0.000423057
-3.86371e-05
-0.000424056
-6.34291e-05
-0.000425059
-8.84378e-05
-0.000426166
-0.000113643
-0.000427517
-0.000139033
-0.000429306
-0.000164621
-0.00043179
-0.000190456
-0.000435294
-0.000216659
-0.000440194
-0.000243442
-0.000446853
-0.000271138
-0.00045549
-0.000300194
-0.000465935
-0.00033109
-0.000477271
-0.000364128
-0.000487407
-0.000399017
-0.000492728
-0.000434262
-0.000488078
-0.000466423
-0.000467409
-0.000489569
-0.000425427
-0.000495371
-0.00036033
-0.000474539
-0.000276969
-0.000420243
-0.000188297
-0.000333484
-0.000111401
-0.000227879
-5.74345e-05
-0.000127118
-2.53833e-05
-5.04629e-05
-8.45409e-06
-9.56396e-07
-8.85271e-07
2.69443e-05
1.32126e-06
3.79739e-05
8.95733e-07
3.44807e-05
1.66696e-05
-9.63944e-06
1.63967e-05
-2.91675e-05
4.81029e-05
-5.46328e-05
8.55823e-05
-8.50417e-05
0.000129931
-0.000120032
0.000179149
-0.000158863
0.000230714
-0.000199989
0.000281846
-0.000241093
0.000328931
-0.000279599
0.000368122
-0.000313292
0.000396433
-0.000340728
0.000412453
-0.000361335
0.000416387
-0.000375366
0.000409709
-0.000383732
0.000394683
-0.00038776
0.000373861
-0.000388889
0.000349615
-0.000388432
0.000323828
-0.000387413
0.000297778
-0.000386524
0.000272177
-0.000386142
0.000247303
-0.000386406
0.000223152
-0.000387295
0.000199571
-0.000388699
0.000176353
-0.000390472
0.000153299
-0.000392468
0.000130244
-0.000394553
0.000107062
-0.000396623
8.36692e-05
-0.000398596
6.00155e-05
-0.000400417
3.60771e-05
-0.00040205
1.18508e-05
-0.000403482
-1.26507e-05
-0.000404716
-3.7403e-05
-0.000405773
-6.23728e-05
-0.000406689
-8.75212e-05
-0.000407525
-0.000112807
-0.000408369
-0.00013819
-0.000409346
-0.000163643
-0.000410639
-0.000189163
-0.000412505
-0.000214792
-0.000415294
-0.000240654
-0.00041944
-0.000266992
-0.000425422
-0.000294213
-0.000433615
-0.000322897
-0.00044402
-0.000353723
-0.000455824
-0.000387213
-0.000466871
-0.000423215
-0.000473204
-0.000460091
-0.000469021
-0.000493752
-0.00044745
-0.000516942
-0.000402569
-0.00051942
-0.000332824
-0.000489988
-0.00024501
-0.000421297
-0.000155612
-0.000317277
-8.39996e-05
-0.00019873
-3.8601e-05
-9.58615e-05
-1.4028e-05
-2.55294e-05
-2.59132e-06
1.55076e-05
1.16798e-06
3.42146e-05
1.04651e-06
3.46022e-05
1.77161e-05
-1.15277e-05
2.79245e-05
-3.37712e-05
7.03464e-05
-6.17475e-05
0.000113559
-9.41942e-05
0.000162378
-0.000130483
0.000215438
-0.000169484
0.000269715
-0.000209286
0.000321648
-0.000247447
0.000367092
-0.000281594
0.000402269
-0.000309966
0.000424805
-0.00033168
0.000434167
-0.000346743
0.00043145
-0.000355925
0.00041889
-0.000360516
0.000399274
-0.000362015
0.00037536
-0.000361827
0.000349427
-0.000361071
0.000323072
-0.000360501
0.000297208
-0.000360527
0.000272202
-0.000361287
0.000248063
-0.000362743
0.000224609
-0.000364764
0.000201591
-0.000367181
0.00017877
-0.000369829
0.000155948
-0.000372564
0.000132979
-0.00037527
0.000109768
-0.000377859
8.62577e-05
-0.000380267
6.24232e-05
-0.000382451
3.82616e-05
-0.000384388
1.37873e-05
-0.000386066
-1.09726e-05
-0.000387488
-3.59813e-05
-0.000388666
-6.1195e-05
-0.000389622
-8.65644e-05
-0.000390392
-0.000112037
-0.000391024
-0.000137558
-0.000391589
-0.000163079
-0.000392194
-0.000188558
-0.000393003
-0.000213983
-0.000394266
-0.000239391
-0.000396344
-0.000264913
-0.000399729
-0.000290828
-0.000404999
-0.000317627
-0.000412679
-0.000346043
-0.000422919
-0.000376973
-0.000434965
-0.000411169
-0.000446491
-0.000448564
-0.000453045
-0.000487198
-0.000448025
-0.000521962
-0.000423712
-0.000543733
-0.000373853
-0.000539847
-0.000297973
-0.000497176
-0.000206162
-0.000409089
-0.000119345
-0.000285546
-5.73623e-05
-0.000157845
-2.24981e-05
-6.03936e-05
-5.65797e-06
-1.33258e-06
4.98536e-07
2.80581e-05
1.07475e-06
3.4026e-05
1.87909e-05
-1.3054e-05
4.09785e-05
-3.74035e-05
9.46959e-05
-6.71653e-05
0.00014332
-0.000100795
0.000196008
-0.000137388
0.000252032
-0.000175491
0.000307818
-0.000212987
0.000359144
-0.000247502
0.000401607
-0.000277004
0.000431771
-0.00030024
0.000448041
-0.000316878
0.000450804
-0.000327437
0.000442009
-0.000333083
0.000424536
-0.000335312
0.000401504
-0.000335613
0.000375661
-0.000335214
0.000349029
-0.000334966
0.000322824
-0.000335339
0.000297581
-0.0003365
0.000273363
-0.000338413
0.000249976
-0.000340935
0.000227131
-0.000343884
0.000204541
-0.000347082
0.000181968
-0.000350376
0.000159241
-0.000353643
0.000136246
-0.00035679
0.000112915
-0.000359749
8.92168e-05
-0.000362473
6.51468e-05
-0.00036493
4.07186e-05
-0.000367102
1.596e-05
-0.000368984
-9.09101e-06
-0.000370577
-3.43884e-05
-0.000371891
-5.98808e-05
-0.000372943
-8.55126e-05
-0.000373754
-0.000111226
-0.000374352
-0.000136961
-0.000374773
-0.000162657
-0.000375071
-0.00018826
-0.000375333
-0.000213722
-0.000375701
-0.000239023
-0.000376415
-0.000264199
-0.000377851
-0.000289391
-0.000380553
-0.000314925
-0.000385202
-0.000341394
-0.000392461
-0.000369715
-0.000402592
-0.000401038
-0.000414812
-0.000436344
-0.00042647
-0.00047554
-0.0004324
-0.000516032
-0.000425016
-0.000551117
-0.000395792
-0.000569071
-0.000338698
-0.00055427
-0.000255662
-0.000492125
-0.000161866
-0.000379343
-8.28159e-05
-0.000236895
-3.43887e-05
-0.000108821
-1.03874e-05
-2.53339e-05
-8.19498e-07
1.84901e-05
9.53528e-07
3.2253e-05
1.97444e-05
-1.40951e-05
5.50736e-05
-3.98439e-05
0.000120445
-7.0618e-05
0.000174095
-0.000104581
0.00022997
-0.000140573
0.000288023
-0.000176917
0.000344162
-0.000211447
0.000393675
-0.000241998
0.000432157
-0.000266954
0.000456728
-0.000285569
0.000466656
-0.000298007
0.000463242
-0.000305194
0.000449196
-0.000308538
0.000427881
-0.000309573
0.000402538
-0.000309639
0.000375727
-0.000309714
0.000349103
-0.000310365
0.000323476
-0.00031182
0.000299036
-0.000314067
0.00027561
-0.000316968
0.000252877
-0.000320332
0.000230496
-0.000323974
0.000208183
-0.000327733
0.000185727
-0.000331481
0.00016299
-0.000335122
0.000139886
-0.000338583
0.000116376
-0.000341812
9.24463e-05
-0.000344773
6.81079e-05
-0.000347441
4.33866e-05
-0.000349802
1.83203e-05
-0.000351849
-7.04365e-06
-0.000353586
-3.26513e-05
-0.000355023
-5.84442e-05
-0.000356174
-8.43616e-05
-0.000357058
-0.000110342
-0.000357695
-0.000136323
-0.000358108
-0.000162245
-0.000358321
-0.000188047
-0.00035837
-0.000213672
-0.000358322
-0.000239071
-0.000358301
-0.00026422
-0.000358537
-0.000289155
-0.000359427
-0.000314035
-0.000361575
-0.000339246
-0.000365772
-0.000365517
-0.00037281
-0.000394
-0.000383012
-0.000426143
-0.000395422
-0.00046313
-0.000406827
-0.000504627
-0.000411063
-0.00054688
-0.000399392
-0.000580743
-0.000362711
-0.000590951
-0.000296237
-0.000558599
-0.000206318
-0.000469262
-0.00011515
-0.000328062
-5.03233e-05
-0.000173648
-1.69514e-05
-5.87058e-05
-2.84841e-06
4.38716e-06
6.86584e-07
2.8718e-05
2.0431e-05
-1.45739e-05
6.96474e-05
-4.09714e-05
0.000146842
-7.19906e-05
0.000205114
-0.000105499
0.000263479
-0.000140129
0.000322653
-0.000174089
0.000378122
-0.000205294
0.000424879
-0.000231876
0.000458739
-0.000252656
0.000477508
-0.000267353
0.000481354
-0.000276539
0.000472427
-0.000281415
0.000454073
-0.000283481
0.000429947
-0.000284171
0.000403228
-0.000284603
0.000376159
-0.000285482
0.000349982
-0.00028713
0.000325124
-0.000289593
0.000301498
-0.000292749
0.000278767
-0.000296414
0.000256542
-0.000300396
0.000234477
-0.000304528
0.000212315
-0.000308679
0.000189877
-0.000312747
0.000167058
-0.000316658
0.000143798
-0.000320357
0.000120074
-0.0003238
9.58892e-05
-0.000326955
7.1263e-05
-0.000329799
4.62307e-05
-0.000332318
2.08389e-05
-0.000334504
-4.85687e-06
-0.000336361
-3.07943e-05
-0.000337898
-5.69075e-05
-0.000339131
-8.31293e-05
-0.000340078
-0.000109394
-0.000340763
-0.000135638
-0.000341206
-0.000161803
-0.000341423
-0.00018783
-0.00034143
-0.000213665
-0.000341248
-0.000239253
-0.000340923
-0.000264545
-0.000340565
-0.000289513
-0.000340401
-0.000314199
-0.000340856
-0.000338791
-0.000342613
-0.000363761
-0.000346587
-0.000390026
-0.000353686
-0.000419044
-0.000364202
-0.000452614
-0.000376797
-0.000492032
-0.000387357
-0.00053632
-0.000388391
-0.000579708
-0.000369949
-0.000609393
-0.000322994
-0.000605554
-0.000245774
-0.000546481
-0.00015186
-0.000421977
-7.12337e-05
-0.000254274
-2.55011e-05
-0.000104438
-5.63405e-06
-1.54799e-05
2.6794e-07
2.2816e-05
2.06989e-05
-1.44625e-05
8.41099e-05
-4.07619e-05
0.000173142
-7.13083e-05
0.00023566
-0.000103678
0.000295849
-0.000136354
0.000355329
-0.000167532
0.0004093
-0.000195301
0.000452648
-0.000218133
0.000481572
-0.000235266
0.000494641
-0.000246812
0.0004929
-0.00025364
0.000479255
-0.000257096
0.000457529
-0.000258642
0.000431492
-0.000259529
0.000404115
-0.000260627
0.000377257
-0.000262394
0.000351748
-0.000264962
0.000327693
-0.000268258
0.000304794
-0.000272111
0.00028262
-0.00027633
0.00026076
-0.000280743
0.000238891
-0.000285214
0.000216786
-0.00028964
0.000194304
-0.000293944
0.000171362
-0.000298067
0.00014792
-0.000301961
0.000123968
-0.000305587
9.95155e-05
-0.000308914
7.45899e-05
-0.000311917
4.92333e-05
-0.000314578
2.34999e-05
-0.000316888
-2.54615e-06
-0.000318849