/*--------------------------------*- C++ -*----------------------------------*\
| =========                 |                                                 |
| \\      /  F ield         | OpenFOAM: The Open Source CFD Toolbox           |
|  \\    /   O peration     | Version:  2406                                  |
|   \\  /    A nd           | Website:  www.openfoam.com                      |
|    \\/     M anipulation  |                                                 |
\*---------------------------------------------------------------------------*/
FoamFile
{
    version     2.0;
    format      ascii;
    arch        "LSB;label=32;scalar=64";
    class       volVectorField;
    location    "22";
    object      U_0;
}
// * * * * * * * * * * * * * * * * * * * * * * * * * * * * * * * * * * * * * //

dimensions      [0 1 -1 0 0 0 0];

internalField   nonuniform List<vector> 
3600
(
(1.6061e-05 -1.59318e-05 0)
(0.000126191 -3.67595e-05 0)
(0.000292899 -4.6333e-05 0)
(0.000468137 -4.16965e-05 0)
(0.000607579 -3.05984e-05 0)
(0.000695342 -1.66622e-05 0)
(0.000724426 -2.45084e-06 0)
(0.000693159 1.19969e-05 0)
(0.000601255 2.61035e-05 0)
(0.000447352 3.99854e-05 0)
(0.000229744 5.38944e-05 0)
(-5.44077e-05 6.82317e-05 0)
(-0.000409862 8.3694e-05 0)
(-0.000844418 0.000101303 0)
(-0.0013699 0.000122294 0)
(-0.00200251 0.000147872 0)
(-0.00276208 0.000178924 0)
(-0.00367025 0.000215773 0)
(-0.00474777 0.000258013 0)
(-0.00601104 0.000304438 0)
(-0.00746849 0.000353014 0)
(-0.00911663 0.000400872 0)
(-0.0109363 0.000444306 0)
(-0.0128893 0.00047877 0)
(-0.0149158 0.000498925 0)
(-0.0169335 0.000498775 0)
(-0.0188385 0.000471901 0)
(-0.0205097 0.000412121 0)
(-0.0218165 0.000315814 0)
(-0.0226242 0.000183747 0)
(-0.0228039 1.49802e-05 0)
(-0.0222588 -0.000191265 0)
(-0.0209316 -0.000418228 0)
(-0.018802 -0.000648703 0)
(-0.0159106 -0.000863511 0)
(-0.0123583 -0.00104165 0)
(-0.00830466 -0.00116325 0)
(-0.00395969 -0.00121263 0)
(0.00043124 -0.00118119 0)
(0.00460947 -0.00106963 0)
(0.0083294 -0.000888885 0)
(0.011386 -0.000659141 0)
(0.0136385 -0.000406611 0)
(0.015026 -0.000158397 0)
(0.0155751 6.03683e-05 0)
(0.015374 0.000227558 0)
(0.0145659 0.000343733 0)
(0.0133274 0.000414334 0)
(0.0118284 0.000443265 0)
(0.0102155 0.00043981 0)
(0.00860374 0.00041493 0)
(0.00707205 0.00037806 0)
(0.0056662 0.000336577 0)
(0.00440498 0.00029571 0)
(0.00328861 0.000258324 0)
(0.00230884 0.00022451 0)
(0.00146154 0.000190074 0)
(0.000757205 0.000148692 0)
(0.000260144 8.52394e-05 0)
(2.04606e-05 1.87357e-05 0)
(3.80695e-05 -0.000127076 0)
(0.000299344 -0.000294374 0)
(0.000635841 -0.000348108 0)
(0.000966741 -0.000306507 0)
(0.00120535 -0.000212198 0)
(0.00131766 -9.41615e-05 0)
(0.00128494 3.29194e-05 0)
(0.00109484 0.000165162 0)
(0.000735498 0.000302211 0)
(0.000194022 0.000445472 0)
(-0.000545147 0.000596878 0)
(-0.00150027 0.000759364 0)
(-0.00269351 0.000937657 0)
(-0.00415256 0.00113846 0)
(-0.00591176 0.00136958 0)
(-0.00801139 0.00163806 0)
(-0.0104945 0.00194785 0)
(-0.0134011 0.00229769 0)
(-0.0167599 0.00267949 0)
(-0.0205796 0.00307748 0)
(-0.024839 0.00346794 0)
(-0.0294791 0.00381964 0)
(-0.0343973 0.00409492 0)
(-0.0394454 0.00425185 0)
(-0.0444328 0.00424744 0)
(-0.0491351 0.00404201 0)
(-0.0533078 0.00360416 0)
(-0.0567021 0.00291601 0)
(-0.0590827 0.00197819 0)
(-0.0602488 0.000812057 0)
(-0.0600461 -0.000544024 0)
(-0.0583684 -0.00203285 0)
(-0.0551799 -0.00357074 0)
(-0.0505165 -0.00506513 0)
(-0.0444877 -0.00641525 0)
(-0.0372766 -0.00752031 0)
(-0.0291382 -0.00828787 0)
(-0.0203913 -0.00864409 0)
(-0.0114052 -0.00854414 0)
(-0.00257982 -0.00798143 0)
(0.00568112 -0.00699361 0)
(0.0130022 -0.00566282 0)
(0.0190705 -0.00410859 0)
(0.0236669 -0.00247326 0)
(0.0266871 -0.000901873 0)
(0.0281557 0.000475208 0)
(0.0282193 0.00157717 0)
(0.0271055 0.00237062 0)
(0.0250952 0.00285389 0)
(0.0224892 0.00306584 0)
(0.0195614 0.00306723 0)
(0.0165359 0.00292409 0)
(0.0135767 0.00269712 0)
(0.0107885 0.0024347 0)
(0.00822791 0.00216788 0)
(0.00592114 0.0019059 0)
(0.00388902 0.00163053 0)
(0.00216194 0.00129444 0)
(0.000877596 0.00082794 0)
(0.000100246 0.000271216 0)
(4.95064e-05 -0.000299953 0)
(0.000360545 -0.000633934 0)
(0.000714134 -0.000703712 0)
(0.00102296 -0.000582804 0)
(0.00118789 -0.000352648 0)
(0.0011675 -6.70743e-05 0)
(0.000931603 0.000248829 0)
(0.000453587 0.000588002 0)
(-0.000295915 0.000952844 0)
(-0.00134985 0.00134784 0)
(-0.00274541 0.00177813 0)
(-0.0045241 0.00225056 0)
(-0.00673268 0.00277506 0)
(-0.00942403 0.00336456 0)
(-0.0126565 0.00403242 0)
(-0.0164901 0.00478769 0)
(-0.0209786 0.0056296 0)
(-0.0261583 0.00654257 0)
(-0.0320345 0.00749304 0)
(-0.0385684 0.00842853 0)
(-0.0456665 0.00927922 0)
(-0.0531753 0.00996201 0)
(-0.0608836 0.0103872 0)
(-0.0685327 0.0104672 0)
(-0.0758334 0.0101268 0)
(-0.0824869 0.00931188 0)
(-0.0882048 0.00799658 0)
(-0.0927251 0.00618661 0)
(-0.0958243 0.00391961 0)
(-0.0973269 0.00126261 0)
(-0.0971075 -0.00168959 0)
(-0.095088 -0.00481542 0)
(-0.0912464 -0.00797636 0)
(-0.0856208 -0.011017 0)
(-0.0783098 -0.0137717 0)
(-0.069479 -0.0160734 0)
(-0.0593626 -0.0177641 0)
(-0.0482662 -0.0187098 0)
(-0.0365607 -0.0188163 0)
(-0.0246713 -0.018046 0)
(-0.0130566 -0.0164312 0)
(-0.0021799 -0.0140807 0)
(0.0075275 -0.0111752 0)
(0.0157043 -0.00795045 0)
(0.0220939 -0.00466866 0)
(0.0265742 -0.00158138 0)
(0.0291668 0.00110002 0)
(0.030014 0.00322797 0)
(0.0293617 0.00474931 0)
(0.027536 0.00568404 0)
(0.0248789 0.00610999 0)
(0.021713 0.00614008 0)
(0.0183132 0.00589677 0)
(0.01489 0.00549047 0)
(0.0115908 0.00500258 0)
(0.00851276 0.0044714 0)
(0.0057295 0.00387949 0)
(0.00330078 0.00314901 0)
(0.00142671 0.00215055 0)
(0.000179903 0.000832331 0)
(4.61142e-05 -0.000485008 0)
(0.000314594 -0.00096352 0)
(0.00056569 -0.00100383 0)
(0.000712666 -0.000751089 0)
(0.000660987 -0.00032758 0)
(0.000367266 0.000191544 0)
(-0.000209794 0.000775419 0)
(-0.00111513 0.00141995 0)
(-0.00240086 0.00213276 0)
(-0.00412651 0.00292379 0)
(-0.00635764 0.0038032 0)
(-0.00916534 0.00478311 0)
(-0.0126262 0.00587932 0)
(-0.0168214 0.00710971 0)
(-0.0218317 0.00848843 0)
(-0.0277284 0.0100167 0)
(-0.0345587 0.0116732 0)
(-0.0423289 0.0134064 0)
(-0.0509877 0.0151318 0)
(-0.0604148 0.0167347 0)
(-0.0704185 0.0180787 0)
(-0.0807432 0.0190188 0)
(-0.0910877 0.0194173 0)
(-0.101129 0.0191601 0)
(-0.110544 0.018168 0)
(-0.119033 0.0164034 0)
(-0.126324 0.0138706 0)
(-0.132184 0.0106135 0)
(-0.136415 0.00671129 0)
(-0.138861 0.00227433 0)
(-0.139397 -0.00255941 0)
(-0.137931 -0.00762693 0)
(-0.13441 -0.0127384 0)
(-0.128831 -0.0176852 0)
(-0.121235 -0.0222404 0)
(-0.111729 -0.0261686 0)
(-0.100487 -0.0292368 0)
(-0.0877681 -0.0312331 0)
(-0.0739138 -0.0319894 0)
(-0.0593514 -0.0314068 0)
(-0.0445783 -0.0294795 0)
(-0.0301365 -0.0263122 0)
(-0.0165736 -0.0221225 0)
(-0.00439512 -0.0172264 0)
(0.00598511 -0.0120034 0)
(0.0142858 -0.00684815 0)
(0.0203723 -0.0021212 0)
(0.02428 0.00189537 0)
(0.0261822 0.00503984 0)
(0.0263529 0.00726465 0)
(0.0251367 0.0086236 0)
(0.0229011 0.00924691 0)
(0.0199958 0.00930497 0)
(0.0167235 0.00897165 0)
(0.0133264 0.00839098 0)
(0.00998679 0.00764789 0)
(0.00684919 0.00674287 0)
(0.00402223 0.00557663 0)
(0.00177882 0.00394904 0)
(0.000228906 0.00163734 0)
(3.32713e-05 -0.000629544 0)
(0.00018812 -0.00117069 0)
(0.000239774 -0.00110947 0)
(0.000109849 -0.000663927 0)
(-0.000278462 8.96991e-06 0)
(-0.000970449 0.000823474 0)
(-0.00202076 0.00175307 0)
(-0.00349777 0.00280444 0)
(-0.00548347 0.00399509 0)
(-0.00807018 0.00534266 0)
(-0.0113576 0.00686352 0)
(-0.0154509 0.00857529 0)
(-0.0204591 0.0104977 0)
(-0.0264895 0.0126478 0)
(-0.0336371 0.0150284 0)
(-0.0419669 0.0176139 0)
(-0.0514933 0.0203371 0)
(-0.0621607 0.0230827 0)
(-0.0738307 0.0256906 0)
(-0.0862829 0.0279691 0)
(-0.099228 0.0297157 0)
(-0.112333 0.0307408 0)
(-0.125247 0.0308891 0)
(-0.137629 0.030052 0)
(-0.149161 0.0281735 0)
(-0.159558 0.0252475 0)
(-0.16857 0.021313 0)
(-0.175984 0.0164478 0)
(-0.181616 0.0107623 0)
(-0.185315 0.00439759 0)
(-0.186959 -0.00247658 0)
(-0.186442 -0.0096659 0)
(-0.183683 -0.0169497 0)
(-0.178636 -0.0240794 0)
(-0.171282 -0.0307794 0)
(-0.161651 -0.0367521 0)
(-0.149831 -0.0416896 0)
(-0.135995 -0.0452911 0)
(-0.120411 -0.0472911 0)
(-0.103463 -0.0474927 0)
(-0.0856514 -0.0458062 0)
(-0.0675786 -0.0422819 0)
(-0.0499121 -0.0371307 0)
(-0.0333276 -0.030719 0)
(-0.0184376 -0.0235354 0)
(-0.00572192 -0.0161286 0)
(0.00451895 -0.00903123 0)
(0.0121872 -0.0026839 0)
(0.0173685 0.00259781 0)
(0.02029 0.00665922 0)
(0.0212795 0.00949387 0)
(0.0207198 0.0112134 0)
(0.0190047 0.0120075 0)
(0.016504 0.0120966 0)
(0.0135407 0.0116838 0)
(0.0103811 0.0109079 0)
(0.00724772 0.00980042 0)
(0.00431439 0.00825061 0)
(0.00192774 0.00598216 0)
(0.000249463 0.00256747 0)
(1.27873e-05 -0.000700426 0)
(-2.1299e-06 -0.00118299 0)
(-0.000230428 -0.000927857 0)
(-0.00073354 -0.000218505 0)
(-0.00156195 0.000767238 0)
(-0.00276582 0.0019492 0)
(-0.0044188 0.00331912 0)
(-0.00662004 0.00490237 0)
(-0.00948821 0.00673064 0)
(-0.0131541 0.00883085 0)
(-0.0177553 0.0112254 0)
(-0.0234328 0.0139353 0)
(-0.0303249 0.0169782 0)
(-0.0385554 0.0203575 0)
(-0.0482139 0.024044 0)
(-0.0593308 0.027957 0)
(-0.0718538 0.0319529 0)
(-0.0856332 0.0358269 0)
(-0.100424 0.0393305 0)
(-0.115902 0.0421995 0)
(-0.131697 0.0441863 0)
(-0.14742 0.0450858 0)
(-0.162689 0.0447512 0)
(-0.177152 0.0430993 0)
(-0.190498 0.0401081 0)
(-0.202459 0.03581 0)
(-0.212819 0.0302835 0)
(-0.221407 0.0236435 0)
(-0.228088 0.0160326 0)
(-0.232759 0.00761745 0)
(-0.235335 -0.00140915 0)
(-0.235743 -0.0108325 0)
(-0.2339 -0.0204255 0)
(-0.229736 -0.0299201 0)
(-0.223166 -0.0390183 0)
(-0.214129 -0.0473819 0)
(-0.202587 -0.0546436 0)
(-0.188564 -0.0604168 0)
(-0.172178 -0.0643243 0)
(-0.153678 -0.0660358 0)
(-0.133472 -0.0653206 0)
(-0.112147 -0.0621024 0)
(-0.0904492 -0.0565086 0)
(-0.0692317 -0.0488943 0)
(-0.0493653 -0.039825 0)
(-0.0316231 -0.0300115 0)
(-0.0165742 -0.020204 0)
(-0.00451902 -0.0110761 0)
(0.00451158 -0.00313801 0)
(0.0107046 0.00330739 0)
(0.0143918 0.00816147 0)
(0.0159832 0.0114933 0)
(0.0159163 0.0134903 0)
(0.014618 0.014402 0)
(0.01248 0.0144798 0)
(0.00984436 0.0139142 0)
(0.00701028 0.0127723 0)
(0.00422367 0.0109385 0)
(0.00189656 0.00806433 0)
(0.000244023 0.00352615 0)
(-1.52124e-05 -0.000668058 0)
(-0.000250381 -0.000935338 0)
(-0.00082908 -0.000375342 0)
(-0.00179093 0.000678919 0)
(-0.00315389 0.00205119 0)
(-0.00497914 0.00368873 0)
(-0.00736772 0.00561696 0)
(-0.0104577 0.00788815 0)
(-0.0144103 0.0105507 0)
(-0.0193982 0.0136402 0)
(-0.0255975 0.0171823 0)
(-0.0331804 0.0211946 0)
(-0.0423031 0.0256797 0)
(-0.0530843 0.0306048 0)
(-0.0655764 0.0358781 0)
(-0.0797364 0.0413298 0)
(-0.095407 0.0467109 0)
(-0.112316 0.0517127 0)
(-0.130098 0.0560012 0)
(-0.148324 0.0592586 0)
(-0.166539 0.0612162 0)
(-0.1843 0.0616768 0)
(-0.201196 0.060524 0)
(-0.216878 0.0577213 0)
(-0.231069 0.0533042 0)
(-0.243569 0.0473669 0)
(-0.254249 0.0400465 0)
(-0.263044 0.0315072 0)
(-0.269929 0.021928 0)
(-0.274897 0.0114958 0)
(-0.277943 0.000405495 0)
(-0.279061 -0.0111397 0)
(-0.278201 -0.0229254 0)
(-0.275279 -0.0347066 0)
(-0.270162 -0.0462006 0)
(-0.262687 -0.0570728 0)
(-0.252672 -0.0669335 0)
(-0.239945 -0.075339 0)
(-0.224389 -0.0818095 0)
(-0.206004 -0.0858644 0)
(-0.184963 -0.0870797 0)
(-0.161677 -0.0851638 0)
(-0.136828 -0.0800417 0)
(-0.111355 -0.0719291 0)
(-0.0863812 -0.0613654 0)
(-0.0630674 -0.04918 0)
(-0.0424269 -0.0363752 0)
(-0.0251532 -0.0239519 0)
(-0.0115332 -0.0127349 0)
(-0.00147861 -0.00326551 0)
(0.00535971 0.00421367 0)
(0.00946318 0.00970872 0)
(0.0113528 0.0133979 0)
(0.0115364 0.0155547 0)
(0.0104824 0.0164737 0)
(0.00860856 0.0163942 0)
(0.00628863 0.0154195 0)
(0.00384106 0.013435 0)
(0.00173026 0.0100327 0)
(0.000220063 0.00443181 0)
(-5.1359e-05 -0.000504012 0)
(-0.000557701 -0.000366354 0)
(-0.00155395 0.000624859 0)
(-0.00305511 0.00211479 0)
(-0.00504395 0.0039609 0)
(-0.00760178 0.00616413 0)
(-0.0108665 0.00879949 0)
(-0.0150224 0.0119521 0)
(-0.0202769 0.0156865 0)
(-0.0268437 0.0200426 0)
(-0.0349315 0.0250414 0)
(-0.0447308 0.0306837 0)
(-0.0563919 0.0369331 0)
(-0.0699929 0.0436875 0)
(-0.0855043 0.0507534 0)
(-0.102763 0.0578375 0)
(-0.121465 0.064565 0)
(-0.141189 0.0705203 0)
(-0.161426 0.0752976 0)
(-0.181632 0.0785468 0)
(-0.201269 0.0800065 0)
(-0.219855 0.0795225 0)
(-0.236993 0.0770503 0)
(-0.252402 0.0726447 0)
(-0.265915 0.0664386 0)
(-0.277471 0.0586164 0)
(-0.287096 0.0493885 0)
(-0.294876 0.0389704 0)
(-0.300928 0.027569 0)
(-0.305366 0.0153745 0)
(-0.30829 0.00255749 0)
(-0.309765 -0.0107214 0)
(-0.309799 -0.024289 0)
(-0.308322 -0.0379629 0)
(-0.305189 -0.0515197 0)
(-0.300173 -0.0646818 0)
(-0.292968 -0.077093 0)
(-0.283217 -0.0883099 0)
(-0.270543 -0.0977981 0)
(-0.254616 -0.104954 0)
(-0.235237 -0.10915 0)
(-0.212442 -0.109815 0)
(-0.1866 -0.106547 0)
(-0.158487 -0.0992398 0)
(-0.129289 -0.0881987 0)
(-0.100496 -0.0741971 0)
(-0.0736835 -0.058416 0)
(-0.0502066 -0.0422488 0)
(-0.030926 -0.0270132 0)
(-0.0160884 -0.0136894 0)
(-0.00541954 -0.00280291 0)
(0.00165555 0.00552963 0)
(0.00580919 0.0114713 0)
(0.00769402 0.0153331 0)
(0.0078984 0.0174654 0)
(0.00693773 0.0181643 0)
(0.00526831 0.0175753 0)
(0.0032826 0.015594 0)
(0.00148663 0.0117735 0)
(0.000186561 0.00523064 0)
(-9.65739e-05 -0.000177229 0)
(-0.000928458 0.00058531 0)
(-0.00240971 0.00214724 0)
(-0.00452958 0.00417356 0)
(-0.00723608 0.00659751 0)
(-0.0106419 0.00950337 0)
(-0.0149309 0.0130298 0)
(-0.0203382 0.0172963 0)
(-0.0271159 0.0223779 0)
(-0.0355118 0.0283092 0)
(-0.0457526 0.0350917 0)
(-0.0580214 0.0426844 0)
(-0.0724245 0.0509759 0)
(-0.0889491 0.0597509 0)
(-0.107428 0.0686719 0)
(-0.127525 0.0772921 0)
(-0.14875 0.0851002 0)
(-0.170499 0.0915819 0)
(-0.192113 0.0962841 0)
(-0.212943 0.0988654 0)
(-0.232419 0.0991284 0)
(-0.250097 0.0970275 0)
(-0.265696 0.0926535 0)
(-0.279092 0.0862013 0)
(-0.290307 0.0779294 0)
(-0.29947 0.0681213 0)
(-0.306783 0.0570534 0)
(-0.312485 0.0449751 0)
(-0.316817 0.0320981 0)
(-0.320003 0.0185923 0)
(-0.322227 0.00458687 0)
(-0.323617 -0.00981559 0)
(-0.324236 -0.0245155 0)
(-0.324066 -0.039413 0)
(-0.322994 -0.054381 0)
(-0.320798 -0.0692421 0)
(-0.317137 -0.0837369 0)
(-0.311553 -0.0974971 0)
(-0.303481 -0.110021 0)
(-0.292295 -0.120667 0)
(-0.277387 -0.128666 0)
(-0.258281 -0.133186 0)
(-0.234789 -0.133434 0)
(-0.207176 -0.128819 0)
(-0.17629 -0.119151 0)
(-0.143604 -0.104821 0)
(-0.111084 -0.0868964 0)
(-0.0808618 -0.0670341 0)
(-0.0547527 -0.047155 0)
(-0.0338191 -0.0289748 0)
(-0.0182136 -0.0136174 0)
(-0.00739134 -0.00151676 0)
(-0.000490164 0.00741595 0)
(0.00337994 0.0135458 0)
(0.00501086 0.0173165 0)
(0.00507173 0.0191122 0)
(0.00413093 0.0191432 0)
(0.00266653 0.0173351 0)
(0.00122527 0.0132302 0)
(0.000152561 0.00590086 0)
(-0.000152154 0.000346915 0)
(-0.00136793 0.00198336 0)
(-0.00340241 0.00426608 0)
(-0.00622026 0.00693962 0)
(-0.00973709 0.0100647 0)
(-0.0141092 0.0138396 0)
(-0.0195729 0.018476 0)
(-0.0264136 0.0241228 0)
(-0.0349202 0.0308534 0)
(-0.0453587 0.0386796 0)
(-0.057947 0.0475575 0)
(-0.0728217 0.0573665 0)
(-0.0899907 0.0678713 0)
(-0.109289 0.0786922 0)
(-0.130349 0.0893073 0)
(-0.152614 0.0990964 0)
(-0.175373 0.107417 0)
(-0.197843 0.113687 0)
(-0.219252 0.117468 0)
(-0.238936 0.118509 0)
(-0.256408 0.116767 0)
(-0.271392 0.112381 0)
(-0.283822 0.105629 0)
(-0.293809 0.0968669 0)
(-0.30159 0.0864717 0)
(-0.307481 0.0748015 0)
(-0.311824 0.0621664 0)
(-0.314959 0.048816 0)
(-0.317193 0.0349375 0)
(-0.318794 0.0206599 0)
(-0.31998 0.00606366 0)
(-0.320909 -0.00880647 0)
(-0.321679 -0.0239285 0)
(-0.322329 -0.039286 0)
(-0.322817 -0.0548534 0)
(-0.323 -0.070571 0)
(-0.322613 -0.0863156 0)
(-0.321241 -0.101862 0)
(-0.318297 -0.116843 0)
(-0.313029 -0.130704 0)
(-0.304548 -0.142682 0)
(-0.291919 -0.15181 0)
(-0.274311 -0.156981 0)
(-0.251217 -0.157087 0)
(-0.222705 -0.151251 0)
(-0.189647 -0.139118 0)
(-0.153831 -0.121156 0)
(-0.117807 -0.0988143 0)
(-0.0844203 -0.0743966 0)
(-0.0560622 -0.0505301 0)
(-0.0339961 -0.0294081 0)
(-0.01818 -0.0122424 0)
(-0.0076962 0.000740653 0)
(-0.00135076 0.00991935 0)
(0.00196689 0.0158795 0)
(0.00317612 0.0191566 0)
(0.00301926 0.020077 0)
(0.00209165 0.0186353 0)
(0.000996941 0.0143992 0)
(0.000125588 0.00645053 0)
(-0.000219239 0.00110625 0)
(-0.00187987 0.00389352 0)
(-0.00453502 0.00705527 0)
(-0.0081282 0.0104969 0)
(-0.0125463 0.0144667 0)
(-0.0180001 0.0193055 0)
(-0.0247802 0.0253001 0)
(-0.0332151 0.032615 0)
(-0.0436137 0.0413012 0)
(-0.0562332 0.0513202 0)
(-0.0712438 0.0625436 0)
(-0.0886806 0.0747185 0)
(-0.108389 0.0874275 0)
(-0.129985 0.100075 0)
(-0.15285 0.111926 0)
(-0.176176 0.12219 0)
(-0.199054 0.130135 0)
(-0.22059 0.135198 0)
(-0.240025 0.13706 0)
(-0.256831 0.135675 0)
(-0.270749 0.131241 0)
(-0.281782 0.124134 0)
(-0.290139 0.114823 0)
(-0.296171 0.103796 0)
(-0.300297 0.0915052 0)
(-0.302948 0.0783286 0)
(-0.304528 0.0645604 0)
(-0.305385 0.050411 0)
(-0.305809 0.0360163 0)
(-0.306036 0.0214528 0)
(-0.306248 0.00675266 0)
(-0.306585 -0.00808481 0)
(-0.307148 -0.023088 0)
(-0.30801 -0.0382985 0)
(-0.309202 -0.0537624 0)
(-0.310696 -0.0695161 0)
(-0.312378 -0.0855657 0)
(-0.314005 -0.101853 0)
(-0.315156 -0.11821 0)
(-0.315192 -0.134293 0)
(-0.313218 -0.14952 0)
(-0.308104 -0.163012 0)
(-0.298566 -0.173575 0)
(-0.283354 -0.179761 0)
(-0.261536 -0.180044 0)
(-0.232877 -0.173135 0)
(-0.198205 -0.158423 0)
(-0.159634 -0.136441 0)
(-0.120419 -0.109152 0)
(-0.0842768 -0.0797443 0)
(-0.0542667 -0.0517686 0)
(-0.0317758 -0.0279341 0)
(-0.0163989 -0.0093999 0)
(-0.0067433 0.00397205 0)
(-0.00127702 0.0129117 0)
(0.00130093 0.0181933 0)
(0.00200846 0.0203479 0)
(0.00161975 0.0195081 0)
(0.000835329 0.0153174 0)
(0.000110519 0.00691055 0)
(-0.000298472 0.00214055 0)
(-0.00246453 0.00638088 0)
(-0.00580354 0.0105856 0)
(-0.0102434 0.0149254 0)
(-0.0156462 0.0199025 0)
(-0.0222847 0.0260233 0)
(-0.0304989 0.0336411 0)
(-0.0406444 0.0429122 0)
(-0.0530237 0.0538344 0)
(-0.0678477 0.0662788 0)
(-0.0851864 0.0799787 0)
(-0.10491 0.0944856 0)
(-0.126636 0.109139 0)
(-0.14971 0.123091 0)
(-0.173243 0.135393 0)
(-0.196214 0.145141 0)
(-0.217611 0.151616 0)
(-0.236585 0.154407 0)
(-0.252566 0.153451 0)
(-0.265318 0.149002 0)
(-0.274915 0.141546 0)
(-0.281675 0.131679 0)
(-0.28606 0.120015 0)
(-0.288592 0.107104 0)
(-0.289775 0.0933974 0)
(-0.290054 0.0792281 0)
(-0.289786 0.0648239 0)
(-0.289246 0.0503232 0)
(-0.288634 0.035797 0)
(-0.288091 0.0212694 0)
(-0.287724 0.006735 0)
(-0.287615 -0.00783223 0)
(-0.287839 -0.0224769 0)
(-0.288471 -0.0372576 0)
(-0.289587 -0.0522449 0)
(-0.291251 -0.0675202 0)
(-0.293498 -0.0831679 0)
(-0.296295 -0.0992585 0)
(-0.299486 -0.115813 0)
(-0.302725 -0.132743 0)
(-0.305391 -0.149771 0)
(-0.306523 -0.16632 0)
(-0.304794 -0.181418 0)
(-0.29858 -0.193633 0)
(-0.286164 -0.201116 0)
(-0.266104 -0.201807 0)
(-0.237756 -0.193869 0)
(-0.201836 -0.176329 0)
(-0.160809 -0.149807 0)
(-0.118765 -0.116976 0)
(-0.0804632 -0.082241 0)
(-0.0496486 -0.0503056 0)
(-0.0276216 -0.0243144 0)
(-0.0133784 -0.00510978 0)
(-0.00499433 0.00797809 0)
(-0.000650609 0.0160286 0)
(0.00108448 0.0199016 0)
(0.00126301 0.0199752 0)
(0.00075165 0.0160408 0)
(0.000108971 0.00732437 0)
(-0.000389641 0.00348917 0)
(-0.00311674 0.00950578 0)
(-0.00719367 0.0149199 0)
(-0.0125398 0.0202955 0)
(-0.0189949 0.0264572 0)
(-0.0268963 0.0340905 0)
(-0.0366195 0.0435942 0)
(-0.0485228 0.0550817 0)
(-0.0628669 0.0684554 0)
(-0.0797686 0.0834428 0)
(-0.0991392 0.0995736 0)
(-0.120623 0.116137 0)
(-0.14356 0.132185 0)
(-0.167016 0.146613 0)
(-0.18988 0.158324 0)
(-0.211036 0.166414 0)
(-0.229539 0.170339 0)
(-0.244774 0.169991 0)
(-0.256517 0.165669 0)
(-0.264909 0.157966 0)
(-0.270372 0.147622 0)
(-0.273481 0.135386 0)
(-0.27485 0.12192 0)
(-0.27505 0.107743 0)
(-0.27455 0.0932266 0)
(-0.273703 0.0786038 0)
(-0.272746 0.0640031 0)
(-0.271823 0.0494793 0)
(-0.271014 0.0350423 0)
(-0.270359 0.0206779 0)
(-0.269877 0.00636186 0)
(-0.269592 -0.00793517 0)
(-0.269541 -0.0222482 0)
(-0.269782 -0.0366198 0)
(-0.270398 -0.0511062 0)
(-0.271498 -0.0657833 0)
(-0.273206 -0.0807522 0)
(-0.275641 -0.0961376 0)
(-0.278879 -0.112075 0)
(-0.282891 -0.128676 0)
(-0.287447 -0.145959 0)
(-0.292012 -0.163742 0)
(-0.295622 -0.181497 0)
(-0.296812 -0.198182 0)
(-0.293647 -0.212121 0)
(-0.283928 -0.221005 0)
(-0.265647 -0.222128 0)
(-0.237676 -0.212959 0)
(-0.200585 -0.192075 0)
(-0.157261 -0.160263 0)
(-0.11281 -0.121237 0)
(-0.0731869 -0.0810574 0)
(-0.0426954 -0.0457431 0)
(-0.0221473 -0.0185573 0)
(-0.00969662 0.000359787 0)
(-0.00293669 0.0123075 0)
(0.000133042 0.0186071 0)
(0.000977925 0.02003 0)
(0.000732506 0.0166197 0)
(0.000119208 0.00773612 0)
(-0.000491342 0.0051877 0)
(-0.00382449 0.0133184 0)
(-0.00867848 0.0201076 0)
(-0.0149714 0.0266604 0)
(-0.0225213 0.0341906 0)
(-0.0317243 0.0435634 0)
(-0.0429702 0.0551892 0)
(-0.0565874 0.0690925 0)
(-0.0727523 0.0850272 0)
(-0.0914363 0.102514 0)
(-0.112337 0.120809 0)
(-0.134829 0.138889 0)
(-0.157973 0.155508 0)
(-0.180606 0.169367 0)
(-0.201519 0.179345 0)
(-0.219675 0.184716 0)
(-0.234389 0.185278 0)
(-0.245428 0.181343 0)
(-0.252981 0.173602 0)
(-0.257556 0.162944 0)
(-0.259831 0.15027 0)
(-0.26051 0.136362 0)
(-0.260222 0.121822 0)
(-0.259455 0.107052 0)
(-0.258546 0.0922873 0)
(-0.257692 0.0776341 0)
(-0.25698 0.0631196 0)
(-0.256424 0.0487286 0)
(-0.256 0.0344304 0)
(-0.255668 0.0201952 0)
(-0.255391 0.00600052 0)
(-0.255152 -0.00816845 0)
(-0.254957 -0.0223217 0)
(-0.254843 -0.0364708 0)
(-0.254879 -0.0506383 0)
(-0.255175 -0.0648669 0)
(-0.255881 -0.079231 0)
(-0.257178 -0.0938471 0)
(-0.259269 -0.108879 0)
(-0.262338 -0.124532 0)
(-0.266486 -0.141016 0)
(-0.271626 -0.158475 0)
(-0.277335 -0.176849 0)
(-0.282689 -0.195678 0)
(-0.286128 -0.213867 0)
(-0.285431 -0.229473 0)
(-0.277925 -0.239655 0)
(-0.261016 -0.240937 0)
(-0.233079 -0.229961 0)
(-0.194581 -0.204814 0)
(-0.148992 -0.166669 0)
(-0.102689 -0.120819 0)
(-0.0629204 -0.0755202 0)
(-0.0341471 -0.0380147 0)
(-0.0160898 -0.011008 0)
(-0.00596287 0.00644886 0)
(-0.00105516 0.0162053 0)
(0.000668173 0.0195991 0)
(0.000742016 0.0170719 0)
(0.000136857 0.00817886 0)
(-0.000600708 0.00726374 0)
(-0.00456798 0.0178527 0)
(-0.0102172 0.0261775 0)
(-0.0174711 0.0340475 0)
(-0.0261228 0.043125 0)
(-0.036614 0.0544416 0)
(-0.0493197 0.0683719 0)
(-0.0645016 0.0847968 0)
(-0.0822078 0.103261 0)
(-0.102217 0.123009 0)
(-0.123978 0.142971 0)
(-0.146592 0.16179 0)
(-0.16889 0.177976 0)
(-0.189599 0.190162 0)
(-0.207584 0.197384 0)
(-0.222069 0.199277 0)
(-0.232768 0.196106 0)
(-0.239883 0.188637 0)
(-0.243984 0.177901 0)
(-0.245833 0.164967 0)
(-0.246218 0.150762 0)
(-0.245823 0.135979 0)
(-0.245155 0.121064 0)
(-0.244538 0.10625 0)
(-0.244129 0.0916165 0)
(-0.243961 0.0771565 0)
(-0.243996 0.0628212 0)
(-0.244155 0.0485561 0)
(-0.244351 0.0343187 0)
(-0.244506 0.0200853 0)
(-0.244562 0.00585088 0)
(-0.244482 -0.00837549 0)
(-0.244258 -0.0225752 0)
(-0.24391 -0.0367279 0)
(-0.243486 -0.0508194 0)
(-0.243074 -0.064852 0)
(-0.242801 -0.0788556 0)
(-0.242844 -0.0929038 0)
(-0.243431 -0.107129 0)
(-0.244833 -0.121738 0)
(-0.247334 -0.137008 0)
(-0.251162 -0.153263 0)
(-0.25637 -0.170786 0)
(-0.262657 -0.189654 0)
(-0.269145 -0.209483 0)
(-0.274183 -0.229098 0)
(-0.275269 -0.24623 0)
(-0.269254 -0.257395 0)
(-0.252969 -0.258194 0)
(-0.224357 -0.244333 0)
(-0.183946 -0.213491 0)
(-0.136098 -0.167697 0)
(-0.0887995 -0.114661 0)
(-0.0505034 -0.065351 0)
(-0.0249784 -0.0275472 0)
(-0.0102304 -0.00239358 0)
(-0.00275828 0.0122657 0)
(0.000198532 0.0185107 0)
(0.000729229 0.0173604 0)
(0.000156283 0.00866441 0)
(-0.00071326 0.00973234 0)
(-0.00531953 0.0231202 0)
(-0.0117556 0.0331319 0)
(-0.0199516 0.0424504 0)
(-0.0296683 0.0532353 0)
(-0.0413723 0.0666554 0)
(-0.0553908 0.0829937 0)
(-0.0718817 0.101926 0)
(-0.0907262 0.122724 0)
(-0.111481 0.144302 0)
(-0.133341 0.165233 0)
(-0.155179 0.183866 0)
(-0.1757 0.19858 0)
(-0.19368 0.208117 0)
(-0.208224 0.211862 0)
(-0.21895 0.209951 0)
(-0.226017 0.203161 0)
(-0.230015 0.192652 0)
(-0.231772 0.179673 0)
(-0.23215 0.16532 0)
(-0.23189 0.150408 0)
(-0.231526 0.135442 0)
(-0.231375 0.120661 0)
(-0.231562 0.106123 0)
(-0.23208 0.0917786 0)
(-0.232841 0.0775427 0)
(-0.233728 0.0633317 0)
(-0.23462 0.0490857 0)
(-0.235413 0.0347744 0)
(-0.236024 0.0203948 0)
(-0.236398 0.00596562 0)
(-0.236501 -0.00847937 0)
(-0.236322 -0.0228973 0)
(-0.235869 -0.0372425 0)
(-0.235174 -0.0514722 0)
(-0.234294 -0.0655538 0)
(-0.233317 -0.0794747 0)
(-0.232376 -0.0932554 0)
(-0.23166 -0.106969 0)
(-0.231424 -0.120765 0)
(-0.231996 -0.134893 0)
(-0.233746 -0.149714 0)
(-0.237025 -0.165677 0)
(-0.242024 -0.183223 0)
(-0.248555 -0.20258 0)
(-0.255767 -0.223423 0)
(-0.261881 -0.244437 0)
(-0.264068 -0.262896 0)
(-0.258678 -0.274484 0)
(-0.242008 -0.2737 0)
(-0.211721 -0.255249 0)
(-0.168744 -0.216707 0)
(-0.118831 -0.161861 0)
(-0.0719428 -0.102036 0)
(-0.0371924 -0.0509777 0)
(-0.0162569 -0.0153347 0)
(-0.0052804 0.00616778 0)
(-0.000578992 0.0164739 0)
(0.000637433 0.0173813 0)
(0.000171408 0.0091785 0)
(-0.00082297 0.0125914 0)
(-0.00604451 0.0291045 0)
(-0.0132283 0.0409407 0)
(-0.0223094 0.0518224 0)
(-0.0330049 0.0644405 0)
(-0.0457808 0.0800608 0)
(-0.0608832 0.098812 0)
(-0.078335 0.120104 0)
(-0.0978261 0.142881 0)
(-0.118687 0.165691 0)
(-0.139893 0.186771 0)
(-0.160176 0.204265 0)
(-0.17825 0.216587 0)
(-0.193091 0.222779 0)
(-0.20417 0.222732 0)
(-0.211542 0.217139 0)
(-0.215764 0.207244 0)
(-0.217695 0.194473 0)
(-0.218258 0.180126 0)
(-0.21826 0.165178 0)
(-0.218274 0.150226 0)
(-0.218626 0.135538 0)
(-0.219423 0.121154 0)
(-0.220624 0.106985 0)
(-0.222108 0.0929052 0)
(-0.223723 0.0787979 0)
(-0.225326 0.0645819 0)
(-0.226794 0.0502168 0)
(-0.228035 0.0356982 0)
(-0.228982 0.0210489 0)
(-0.229594 0.00631123 0)
(-0.229849 -0.00846097 0)
(-0.22974 -0.0232073 0)
(-0.229274 -0.0378657 0)
(-0.22847 -0.0523757 0)
(-0.227362 -0.0666825 0)
(-0.226003 -0.0807428 0)
(-0.224472 -0.094534 0)
(-0.222895 -0.108069 0)
(-0.221459 -0.121422 0)
(-0.220436 -0.134758 0)
(-0.220193 -0.148372 0)
(-0.221184 -0.162717 0)
(-0.223873 -0.178385 0)
(-0.228584 -0.195998 0)
(-0.235224 -0.215942 0)
(-0.242926 -0.237918 0)
(-0.249709 -0.260351 0)
(-0.252327 -0.27984 0)
(-0.246576 -0.290959 0)
(-0.22829 -0.286875 0)
(-0.195143 -0.261364 0)
(-0.149017 -0.21262 0)
(-0.0977634 -0.147747 0)
(-0.0535147 -0.0830557 0)
(-0.0245244 -0.0337614 0)
(-0.00891202 -0.00289169 0)
(-0.00180362 0.0130717 0)
(0.000417671 0.0169623 0)
(0.000177108 0.00968186 0)
(-0.000922572 0.015818 0)
(-0.00670331 0.0357572 0)
(-0.0145623 0.0495378 0)
(-0.0244312 0.0620725 0)
(-0.0359696 0.0766025 0)
(-0.0496144 0.094442 0)
(-0.0655032 0.115504 0)
(-0.0835037 0.13888 0)
(-0.103111 0.163147 0)
(-0.123454 0.18649 0)
(-0.143355 0.206872 0)
(-0.161517 0.222376 0)
(-0.176799 0.231628 0)
(-0.18849 0.234139 0)
(-0.196476 0.230385 0)
(-0.20121 0.221596 0)
(-0.203535 0.209354 0)
(-0.204419 0.195186 0)
(-0.204737 0.18028 0)
(-0.20512 0.165377 0)
(-0.205924 0.150808 0)
(-0.207256 0.136612 0)
(-0.209059 0.122667 0)
(-0.211183 0.108801 0)
(-0.213454 0.0948596 0)
(-0.215708 0.0807358 0)
(-0.21781 0.066375 0)
(-0.219659 0.0517676 0)
(-0.221184 0.0369384 0)
(-0.222341 0.0219349 0)
(-0.223104 0.00681864 0)
(-0.223462 -0.00834111 0)
(-0.223417 -0.0234724 0)
(-0.222977 -0.0385034 0)
(-0.22216 -0.053365 0)
(-0.220986 -0.067992 0)
(-0.219485 -0.0823251 0)
(-0.217699 -0.0963155 0)
(-0.215694 -0.109933 0)
(-0.21358 -0.123185 0)
(-0.211535 -0.136145 0)
(-0.209839 -0.148996 0)
(-0.208896 -0.162088 0)
(-0.209236 -0.175978 0)
(-0.211435 -0.191428 0)
(-0.215934 -0.209262 0)
(-0.222701 -0.230021 0)
(-0.230784 -0.253352 0)
(-0.237878 -0.277222 0)
(-0.240196 -0.297228 0)
(-0.232927 -0.306449 0)
(-0.211597 -0.296501 0)
(-0.174381 -0.260599 0)
(-0.124947 -0.199028 0)
(-0.0740876 -0.124618 0)
(-0.0355732 -0.0593078 0)
(-0.0138821 -0.0158851 0)
(-0.00360208 0.0077742 0)
(3.45463e-05 0.0158647 0)
(0.00016975 0.0101153 0)
(-0.00100411 0.0193657 0)
(-0.00725417 0.0429962 0)
(-0.0156827 0.0588206 0)
(-0.0262027 0.073066 0)
(-0.0384025 0.0895297 0)
(-0.0526626 0.109524 0)
(-0.068994 0.132694 0)
(-0.0871049 0.15777 0)
(-0.106312 0.182954 0)
(-0.125595 0.206104 0)
(-0.143712 0.225019 0)
(-0.159448 0.237877 0)
(-0.171908 0.243689 0)
(-0.180753 0.242537 0)
(-0.186259 0.235489 0)
(-0.189182 0.224206 0)
(-0.190503 0.210448 0)
(-0.19116 0.19567 0)
(-0.191862 0.180826 0)
(-0.19302 0.166367 0)
(-0.19477 0.152362 0)
(-0.197052 0.138669 0)
(-0.199702 0.125069 0)
(-0.202526 0.111362 0)
(-0.205346 0.0974078 0)
(-0.208015 0.0831308 0)
(-0.210425 0.0685121 0)
(-0.212501 0.0535738 0)
(-0.214193 0.0383664 0)
(-0.215471 0.0229572 0)
(-0.216321 0.00742353 0)
(-0.21674 -0.00815384 0)
(-0.216737 -0.0236941 0)
(-0.216326 -0.0391196 0)
(-0.215527 -0.054357 0)
(-0.214359 -0.0693384 0)
(-0.212845 -0.0840003 0)
(-0.211007 -0.0982839 0)
(-0.208874 -0.112138 0)
(-0.206493 -0.125526 0)
(-0.203957 -0.138449 0)
(-0.201432 -0.150982 0)
(-0.199205 -0.163331 0)
(-0.197721 -0.175913 0)
(-0.197586 -0.189421 0)
(-0.199488 -0.20482 0)
(-0.203965 -0.223163 0)
(-0.210985 -0.245112 0)
(-0.219389 -0.270107 0)
(-0.226388 -0.295329 0)
(-0.227501 -0.314894 0)
(-0.217314 -0.319917 0)
(-0.191373 -0.300405 0)
(-0.149139 -0.25004 0)
(-0.0972169 -0.173906 0)
(-0.0500024 -0.0935577 0)
(-0.0203841 -0.0340043 0)
(-0.00609612 -4.67979e-05 0)
(-0.000545755 0.0137915 0)
(0.00014952 0.0104053 0)
(-0.00105971 0.0231642 0)
(-0.00765662 0.0507061 0)
(-0.0165181 0.0686513 0)
(-0.0275182 0.0846289 0)
(-0.0401612 0.102988 0)
(-0.0547496 0.124993 0)
(-0.0711611 0.149981 0)
(-0.0889567 0.176304 0)
(-0.107312 0.201805 0)
(-0.125123 0.224089 0)
(-0.141174 0.24092 0)
(-0.154424 0.25073 0)
(-0.164286 0.253034 0)
(-0.170784 0.248529 0)
(-0.17451 0.238803 0)
(-0.176394 0.225801 0)
(-0.17742 0.211286 0)
(-0.178386 0.196508 0)
(-0.179788 0.182116 0)
(-0.181818 0.16827 0)
(-0.184437 0.154829 0)
(-0.187483 0.141532 0)
(-0.190748 0.128128 0)
(-0.194041 0.114431 0)
(-0.197206 0.100335 0)
(-0.200128 0.0858044 0)
(-0.202724 0.0708533 0)
(-0.204939 0.0555299 0)