/*--------------------------------*- C++ -*----------------------------------*\
| =========                 |                                                 |
| \\      /  F ield         | OpenFOAM: The Open Source CFD Toolbox           |
|  \\    /   O peration     | Version:  2406                                  |
|   \\  /    A nd           | Website:  www.openfoam.com                      |
|    \\/     M anipulation  |                                                 |
\*---------------------------------------------------------------------------*/
FoamFile
{
    version     2.0;
    format      ascii;
    arch        "LSB;label=32;scalar=64";
    class       volVectorField;
    location    "17.05";
    object      U;
}
// * * * * * * * * * * * * * * * * * * * * * * * * * * * * * * * * * * * * * //

dimensions      [0 1 -1 0 0 0 0];

internalField   nonuniform List<vector> 
3600
(
(4.20054e-05 -3.83274e-05 0)
(9.27438e-05 -2.64028e-05 0)
(9.18185e-05 -3.16434e-06 0)
(1.01852e-05 2.01497e-05 0)
(-0.000117011 2.9377e-05 0)
(-0.000271388 3.50329e-05 0)
(-0.000440798 3.47502e-05 0)
(-0.000613763 3.60962e-05 0)
(-0.000797399 3.65176e-05 0)
(-0.000985327 3.9879e-05 0)
(-0.00119042 4.35944e-05 0)
(-0.0014074 4.98873e-05 0)
(-0.00164912 5.67818e-05 0)
(-0.00191083 6.57851e-05 0)
(-0.00220378 7.54245e-05 0)
(-0.00252341 8.66013e-05 0)
(-0.00287799 9.79548e-05 0)
(-0.00326143 0.000109683 0)
(-0.00367667 0.000120241 0)
(-0.00411318 0.000129113 0)
(-0.00456574 0.000134469 0)
(-0.00501645 0.000135208 0)
(-0.00544984 0.000129296 0)
(-0.0058389 0.000115317 0)
(-0.00615771 9.13477e-05 0)
(-0.00637121 5.62245e-05 0)
(-0.00644652 8.86881e-06 0)
(-0.00634621 -5.06116e-05 0)
(-0.00603935 -0.000121302 0)
(-0.00549747 -0.000200619 0)
(-0.00470559 -0.000284688 0)
(-0.00365906 -0.000367957 0)
(-0.00237353 -0.00044388 0)
(-0.000879944 -0.000505211 0)
(0.000768132 -0.000545063 0)
(0.00250417 -0.000557742 0)
(0.0042447 -0.000539781 0)
(0.00590491 -0.000490757 0)
(0.00739634 -0.000413499 0)
(0.00864676 -0.000314232 0)
(0.00959492 -0.000201365 0)
(0.010211 -8.49202e-05 0)
(0.0104824 2.57793e-05 0)
(0.0104321 0.000122394 0)
(0.0100926 0.000199864 0)
(0.00952472 0.000255204 0)
(0.00878053 0.000289216 0)
(0.00793032 0.00030361 0)
(0.00701739 0.000302885 0)
(0.00609982 0.000290346 0)
(0.00519602 0.000271391 0)
(0.00434534 0.00024837 0)
(0.00353951 0.000226285 0)
(0.0028042 0.00020495 0)
(0.00211296 0.00018833 0)
(0.00149143 0.000170272 0)
(0.000918751 0.000151085 0)
(0.000447441 0.000110824 0)
(0.000107348 5.20336e-05 0)
(-3.04556e-05 -3.08781e-05 0)
(3.32983e-05 -9.58451e-05 0)
(-9.38702e-06 5.542e-06 0)
(-0.000196943 0.000138615 0)
(-0.000541815 0.000266022 0)
(-0.00099672 0.000334963 0)
(-0.00151906 0.000381826 0)
(-0.00208889 0.000400492 0)
(-0.00267993 0.00041989 0)
(-0.0033013 0.000434409 0)
(-0.00394014 0.000458657 0)
(-0.00461583 0.000485544 0)
(-0.00532019 0.00052252 0)
(-0.00607328 0.000563682 0)
(-0.00686879 0.000613339 0)
(-0.00772434 0.000666674 0)
(-0.00863372 0.000725286 0)
(-0.00960889 0.000783757 0)
(-0.0106393 0.000840256 0)
(-0.0117256 0.000887378 0)
(-0.0128462 0.000919699 0)
(-0.0139842 0.000927687 0)
(-0.0151007 0.000903317 0)
(-0.0161573 0.000836194 0)
(-0.0170959 0.000717988 0)
(-0.0178587 0.000540198 0)
(-0.0183741 0.000297945 0)
(-0.0185748 -1.11124e-05 0)
(-0.0183899 -0.000383542 0)
(-0.0177618 -0.000810844 0)
(-0.0166415 -0.00127723 0)
(-0.0150045 -0.00176098 0)
(-0.0128464 -0.00223396 0)
(-0.0101962 -0.0026644 0)
(-0.00710893 -0.00301838 0)
(-0.003676 -0.00326402 0)
(-1.13755e-05 -0.00337432 0)
(0.00374208 -0.00333148 0)
(0.00743367 -0.00312948 0)
(0.0109012 -0.00277628 0)
(0.0139992 -0.0022941 0)
(0.0165932 -0.00171724 0)
(0.0185919 -0.00108908 0)
(0.0199314 -0.000455556 0)
(0.0206071 0.000138978 0)
(0.0206406 0.000659403 0)
(0.0201102 0.00108065 0)
(0.0190985 0.00139276 0)
(0.0177289 0.00159573 0)
(0.0160964 0.00170227 0)
(0.0143227 0.00172789 0)
(0.0124729 0.00169554 0)
(0.010639 0.00162235 0)
(0.00883888 0.0015306 0)
(0.00713474 0.00142741 0)
(0.00550722 0.00132648 0)
(0.00401419 0.00120971 0)
(0.00263677 0.00107233 0)
(0.00147611 0.000850215 0)
(0.000566155 0.000543582 0)
(6.04366e-05 0.000112136 0)
(-1.90814e-07 -8.1327e-05 0)
(-0.00021051 0.000220573 0)
(-0.000676211 0.000553685 0)
(-0.00135185 0.000851386 0)
(-0.00218824 0.00102828 0)
(-0.00311516 0.00114846 0)
(-0.00411582 0.00120884 0)
(-0.00515027 0.00126287 0)
(-0.00623196 0.00130625 0)
(-0.00734084 0.0013655 0)
(-0.00850056 0.00143102 0)
(-0.00969939 0.00151556 0)
(-0.0109619 0.00161042 0)
(-0.0122811 0.00172247 0)
(-0.0136796 0.001844 0)
(-0.0151521 0.00197629 0)
(-0.0167149 0.00210889 0)
(-0.0183573 0.00223528 0)
(-0.0200805 0.00233923 0)
(-0.0218581 0.00240594 0)
(-0.023667 0.00241367 0)
(-0.0254567 0.00234227 0)
(-0.0271749 0.00216855 0)
(-0.0287454 0.00187336 0)
(-0.0300907 0.00143941 0)
(-0.0311174 0.000857347 0)
(-0.0317369 0.000125009 0)
(-0.0318566 -0.000747747 0)
(-0.031399 -0.00173992 0)
(-0.0302963 -0.0028165 0)
(-0.0285076 -0.00393098 0)
(-0.0260137 -0.00502515 0)
(-0.0228331 -0.00603412 0)
(-0.0190138 -0.00688899 0)
(-0.0146465 -0.00752413 0)
(-0.00985166 -0.00788192 0)
(-0.00478868 -0.00792083 0)
(0.000364827 -0.00762001 0)
(0.00540772 -0.00698485 0)
(0.0101453 -0.00604805 0)
(0.0143842 -0.00486869 0)
(0.0179704 -0.00352706 0)
(0.020776 -0.00211574 0)
(0.0227399 -0.000729976 0)
(0.0238372 0.00054529 0)
(0.0241179 0.00164234 0)
(0.0236525 0.00252013 0)
(0.0225732 0.0031619 0)
(0.0209966 0.00357792 0)
(0.0190807 0.00379351 0)
(0.0169281 0.00385024 0)
(0.0146747 0.00378774 0)
(0.0123721 0.00365153 0)
(0.0101207 0.00346602 0)
(0.00792111 0.00325604 0)
(0.0058644 0.00299776 0)
(0.00393746 0.00267124 0)
(0.00228351 0.00217397 0)
(0.000932187 0.00147354 0)
(0.000135741 0.000486677 0)
(-4.43903e-05 6.35266e-05 0)
(-0.000465383 0.000697284 0)
(-0.00126042 0.00130195 0)
(-0.00230351 0.00180526 0)
(-0.00354625 0.00211372 0)
(-0.0048885 0.00232344 0)
(-0.00632444 0.00244031 0)
(-0.00780055 0.00254129 0)
(-0.00933834 0.00262481 0)
(-0.0109094 0.00272872 0)
(-0.0125431 0.00284216 0)
(-0.0142239 0.00298387 0)
(-0.0159834 0.00314388 0)
(-0.017816 0.00333278 0)
(-0.019754 0.00354115 0)
(-0.0217979 0.00377035 0)
(-0.0239742 0.00400475 0)
(-0.0262786 0.00423201 0)
(-0.02872 0.00442523 0)
(-0.0312741 0.00455776 0)
(-0.0339192 0.00459277 0)
(-0.0366 0.00449511 0)
(-0.0392575 0.00422606 0)
(-0.0418028 0.00375318 0)
(-0.0441432 0.0030483 0)
(-0.0461645 0.00209573 0)
(-0.0477541 0.00089163 0)
(-0.0487902 -0.000549702 0)
(-0.049163 -0.0021969 0)
(-0.0487682 -0.00399787 0)
(-0.0475272 -0.00588292 0)
(-0.0453824 -0.00776449 0)
(-0.0423163 -0.00954347 0)
(-0.0383458 -0.0111126 0)
(-0.0335382 -0.0123665 0)
(-0.0280018 -0.0132078 0)
(-0.0218973 -0.0135597 0)
(-0.0154194 -0.0133726 0)
(-0.00880325 -0.0126349 0)
(-0.00229387 -0.0113759 0)
(0.00385095 -0.00966801 0)
(0.00940278 -0.00762112 0)
(0.0141552 -0.00537245 0)
(0.0179713 -0.00307218 0)
(0.0207584 -0.000864997 0)
(0.0225142 0.00112414 0)
(0.0232735 0.00280562 0)
(0.0231536 0.00412796 0)
(0.0222727 0.00508269 0)
(0.0208086 0.00569255 0)
(0.0188918 0.00600951 0)
(0.0166972 0.00609299 0)
(0.0143114 0.00601143 0)
(0.0118765 0.00581134 0)
(0.00941968 0.00553132 0)
(0.0070686 0.00515122 0)
(0.0048195 0.00463506 0)
(0.0028532 0.00385076 0)
(0.00119763 0.00270225 0)
(0.000189703 0.00103096 0)
(-8.781e-05 0.000339169 0)
(-0.000730141 0.00145493 0)
(-0.0018729 0.00241387 0)
(-0.00329945 0.00316181 0)
(-0.0049601 0.00362392 0)
(-0.00672012 0.00393524 0)
(-0.00858768 0.00411904 0)
(-0.0104946 0.00427515 0)
(-0.012474 0.00440736 0)
(-0.0144894 0.00456431 0)
(-0.0165801 0.00473655 0)
(-0.0187294 0.00495014 0)
(-0.0209823 0.00519734 0)
(-0.0233413 0.00549462 0)
(-0.0258573 0.00583351 0)
(-0.0285456 0.00621637 0)
(-0.031454 0.0066226 0)
(-0.0345936 0.00703231 0)
(-0.0379903 0.0074053 0)
(-0.0416297 0.00769878 0)
(-0.0454969 0.00785612 0)
(-0.0495348 0.00782132 0)
(-0.0536767 0.00753412 0)
(-0.057816 0.00694211 0)
(-0.0618341 0.00599947 0)
(-0.0655802 0.00467711 0)
(-0.0688971 0.00296296 0)
(-0.0716095 0.000869993 0)
(-0.0735499 -0.00156412 0)
(-0.0745531 -0.00427217 0)
(-0.074481 -0.00716057 0)
(-0.0732201 -0.0101088 0)
(-0.0707028 -0.012977 0)
(-0.0669047 -0.01561 0)
(-0.0618623 -0.0178501 0)
(-0.0556661 -0.0195453 0)
(-0.0484747 -0.0205658 0)
(-0.0404999 -0.020815 0)
(-0.0320144 -0.020245 0)
(-0.0233229 -0.0188646 0)
(-0.0147626 -0.0167463 0)
(-0.00665717 -0.014022 0)
(0.000683935 -0.0108739 0)
(0.00702188 -0.00751461 0)
(0.0121731 -0.00416335 0)
(0.0160627 -0.00102124 0)
(0.0186755 0.00175199 0)
(0.0201034 0.00404967 0)
(0.0204607 0.00582591 0)
(0.0199406 0.00708727 0)
(0.018701 0.00788575 0)
(0.0169555 0.00829703 0)
(0.0148293 0.00841057 0)
(0.0125083 0.00829973 0)
(0.0100523 0.00801883 0)
(0.00762762 0.00756015 0)
(0.0052486 0.00687035 0)
(0.00313354 0.00579354 0)
(0.00132137 0.0041503 0)
(0.000210324 0.00168933 0)
(-0.000133767 0.000760351 0)
(-0.00100892 0.0025145 0)
(-0.00250991 0.00390252 0)
(-0.00432555 0.00492204 0)
(-0.00640403 0.00554688 0)
(-0.00857508 0.00596141 0)
(-0.0108631 0.00621458 0)
(-0.0131855 0.00642866 0)
(-0.0155902 0.00661499 0)
(-0.0180347 0.0068331 0)
(-0.0205739 0.00707859 0)
(-0.0231963 0.00738809 0)
(-0.0259701 0.00776119 0)
(-0.0289161 0.00822417 0)
(-0.0321169 0.00877329 0)
(-0.0356148 0.00941334 0)
(-0.0394903 0.0101187 0)
(-0.0437799 0.0108594 0)
(-0.0485333 0.0115776 0)
(-0.0537481 0.0122081 0)
(-0.0594142 0.0126667 0)
(-0.0654642 0.012867 0)
(-0.0718087 0.0127165 0)
(-0.0783011 0.012131 0)
(-0.0847699 0.0110353 0)
(-0.0909974 0.00937592 0)
(-0.0967531 0.00712418 0)
(-0.101785 0.00428648 0)
(-0.105854 0.000905415 0)
(-0.108729 -0.0029347 0)
(-0.110215 -0.00711173 0)
(-0.110152 -0.0114661 0)
(-0.10843 -0.0158103 0)
(-0.104989 -0.0199334 0)
(-0.0998341 -0.0236163 0)
(-0.0930287 -0.0266404 0)
(-0.0847161 -0.0288074 0)
(-0.0751076 -0.0299532 0)
(-0.0644972 -0.0299703 0)
(-0.0532388 -0.0288209 0)
(-0.0417492 -0.0265536 0)
(-0.0304605 -0.0233037 0)
(-0.0198118 -0.0192892 0)
(-0.0101803 -0.0147883 0)
(-0.00188044 -0.0101092 0)
(0.0049036 -0.00555261 0)
(0.0100796 -0.00137618 0)
(0.0136974 0.00223073 0)
(0.0158608 0.00516066 0)
(0.0167789 0.00738547 0)
(0.0166421 0.00894405 0)
(0.0157088 0.00992135 0)
(0.0141514 0.0104247 0)
(0.012206 0.0105568 0)
(0.0099744 0.0103907 0)
(0.0076657 0.00993834 0)
(0.00532283 0.00913207 0)
(0.0031981 0.00779531 0)
(0.00135135 0.00565887 0)
(0.000213751 0.00237375 0)
(-0.0001795 0.00132363 0)
(-0.00128931 0.00387468 0)
(-0.00314856 0.00576806 0)
(-0.00535043 0.00708733 0)
(-0.00784099 0.00788366 0)
(-0.0104139 0.00840197 0)
(-0.0131112 0.00872564 0)
(-0.0158365 0.00900029 0)
(-0.0186565 0.00924891 0)
(-0.021527 0.00954425 0)
(-0.0245273 0.00989343 0)
(-0.027661 0.0103494 0)
(-0.0310331 0.0109265 0)
(-0.034697 0.0116661 0)
(-0.0387817 0.0125731 0)
(-0.0433692 0.0136547 0)
(-0.0485829 0.0148774 0)
(-0.0544887 0.0161942 0)
(-0.0611583 0.0175196 0)
(-0.0685914 0.0187525 0)
(-0.0767634 0.0197649 0)
(-0.0855671 0.0204219 0)
(-0.0948533 0.0205797 0)
(-0.104393 0.020105 0)
(-0.113923 0.0188798 0)
(-0.123126 0.0168201 0)
(-0.131687 0.0138822 0)
(-0.139283 0.0100753 0)
(-0.145625 0.00546046 0)
(-0.150453 0.000153592 0)
(-0.153554 -0.00568317 0)
(-0.154754 -0.0118446 0)
(-0.153926 -0.018093 0)
(-0.150984 -0.0241633 0)
(-0.145898 -0.0297759 0)
(-0.138687 -0.034644 0)
(-0.129445 -0.0384934 0)
(-0.118341 -0.0410769 0)
(-0.105644 -0.042202 0)
(-0.0917131 -0.0417516 0)
(-0.0770134 -0.0397127 0)
(-0.0620747 -0.0361888 0)
(-0.04748 -0.0314086 0)
(-0.0337858 -0.0257068 0)
(-0.0214956 -0.0194929 0)
(-0.0109674 -0.0131971 0)
(-0.00242554 -0.00721663 0)
(0.0040999 -0.00186605 0)
(0.00868644 0.00264861 0)
(0.0115576 0.00623795 0)
(0.0129469 0.00891084 0)
(0.0131698 0.0107541 0)
(0.0124612 0.011891 0)
(0.0111186 0.0124567 0)
(0.00929955 0.0125484 0)
(0.00726233 0.0122045 0)
(0.00509107 0.0113491 0)
(0.0030719 0.00978943 0)
(0.00129376 0.00717325 0)
(0.000199798 0.00305932 0)
(-0.000227918 0.00203917 0)
(-0.0015776 0.00554521 0)
(-0.00379497 0.00801328 0)
(-0.00637822 0.00965346 0)
(-0.00927231 0.0106238 0)
(-0.0122366 0.0112424 0)
(-0.0153331 0.0116359 0)
(-0.018454 0.0119756 0)
(-0.0216901 0.0123017 0)
(-0.0250029 0.0127053 0)
(-0.0285073 0.013214 0)
(-0.0322354 0.0139056 0)
(-0.0363452 0.014818 0)
(-0.0409379 0.0160128 0)
(-0.0462026 0.0175055 0)
(-0.0522686 0.0193018 0)
(-0.0593032 0.0213515 0)
(-0.0673925 0.0235757 0)
(-0.0766096 0.0258423 0)
(-0.0869222 0.0279901 0)
(-0.0982452 0.0298215 0)
(-0.110376 0.0311263 0)
(-0.123051 0.031688 0)
(-0.135912 0.0313117 0)
(-0.14858 0.0298391 0)
(-0.160653 0.0271722 0)
(-0.171764 0.0232798 0)
(-0.181579 0.0182031 0)
(-0.189827 0.0120465 0)
(-0.196282 0.00497163 0)
(-0.200769 -0.00281647 0)
(-0.20314 -0.0110742 0)
(-0.203281 -0.0195294 0)
(-0.201089 -0.0278818 0)
(-0.196489 -0.0358111 0)
(-0.189429 -0.042979 0)
(-0.179911 -0.0490427 0)
(-0.167995 -0.0536674 0)
(-0.153849 -0.0565548 0)
(-0.137751 -0.0574698 0)
(-0.120132 -0.0562836 0)
(-0.101557 -0.0530044 0)
(-0.082723 -0.0478098 0)
(-0.0643833 -0.0410471 0)
(-0.0472941 -0.0332129 0)
(-0.0320862 -0.0248898 0)
(-0.0192227 -0.016667 0)
(-0.00890285 -0.00905196 0)
(-0.00112809 -0.00241265 0)
(0.00432158 0.00305281 0)
(0.00773109 0.00729476 0)
(0.00949165 0.0103894 0)
(0.00992466 0.0124737 0)
(0.00940833 0.0137202 0)
(0.00817561 0.0142578 0)
(0.00654501 0.0141601 0)
(0.00465576 0.0133528 0)
(0.00282892 0.011634 0)
(0.00118979 0.00858341 0)
(0.000179476 0.00368652 0)
(-0.000276592 0.00290275 0)
(-0.00186533 0.00751702 0)
(-0.00443549 0.0106255 0)
(-0.0073912 0.0126064 0)
(-0.0106785 0.0137535 0)
(-0.0140246 0.0144711 0)
(-0.0175143 0.0149379 0)
(-0.0210326 0.0153556 0)
(-0.0247016 0.01579 0)
(-0.0284985 0.0163594 0)
(-0.032588 0.0171243 0)
(-0.0370467 0.0181976 0)
(-0.0421018 0.0196503 0)
(-0.0479151 0.0215664 0)
(-0.0547421 0.0239681 0)
(-0.0627557 0.0268466 0)
(-0.0721499 0.0301146 0)
(-0.0829979 0.0336326 0)
(-0.0953247 0.0371873 0)
(-0.109001 0.0405195 0)
(-0.12381 0.043326 0)
(-0.139385 0.0452955 0)
(-0.155302 0.0461323 0)
(-0.171072 0.0455985 0)
(-0.186236 0.0435351 0)
(-0.200368 0.0398806 0)
(-0.213137 0.034663 0)
(-0.224281 0.0279909 0)
(-0.233622 0.020031 0)
(-0.241032 0.0109942 0)
(-0.246426 0.00111887 0)
(-0.249722 -0.00933366 0)
(-0.250845 -0.0200847 0)
(-0.249692 -0.0308328 0)
(-0.246152 -0.0412532 0)
(-0.240086 -0.0509907 0)
(-0.23137 -0.0596635 0)
(-0.2199 -0.066867 0)
(-0.205651 -0.0721959 0)
(-0.188709 -0.0752721 0)
(-0.169339 -0.0757953 0)
(-0.148001 -0.0735952 0)
(-0.125392 -0.0686954 0)
(-0.102396 -0.0613535 0)
(-0.0800332 -0.0520783 0)
(-0.0593024 -0.0415827 0)
(-0.0410641 -0.0306913 0)
(-0.025862 -0.0201975 0)
(-0.0139134 -0.0107417 0)
(-0.005075 -0.00272325 0)
(0.000978289 0.0036916 0)
(0.00473509 0.00854345 0)
(0.00663944 0.0119799 0)
(0.0071828 0.014219 0)
(0.00670281 0.0154349 0)
(0.00559766 0.0157494 0)
(0.00407838 0.0151057 0)
(0.00250795 0.0133037 0)
(0.00105468 0.00987772 0)
(0.000154327 0.00425945 0)
(-0.000327427 0.00392428 0)
(-0.0021563 0.00979858 0)
(-0.00507409 0.0136081 0)
(-0.00839366 0.0159458 0)
(-0.0120645 0.0172717 0)
(-0.0157857 0.0180893 0)
(-0.0196684 0.01864 0)
(-0.0235968 0.0191626 0)
(-0.0277333 0.0197601 0)
(-0.0320838 0.02059 0)
(-0.036878 0.0217606 0)
(-0.0422526 0.0234306 0)
(-0.0485167 0.0257092 0)
(-0.0558965 0.0286979 0)
(-0.064706 0.0324102 0)
(-0.0751358 0.0367949 0)
(-0.087362 0.0416898 0)
(-0.10138 0.046848 0)
(-0.117085 0.0519255 0)
(-0.134166 0.0565199 0)
(-0.1522 0.0601962 0)
(-0.170623 0.0625463 0)
(-0.188868 0.0632351 0)
(-0.206371 0.0620457 0)
(-0.222685 0.0588895 0)
(-0.237459 0.0538019 0)
(-0.250484 0.0469132 0)
(-0.261646 0.0384221 0)
(-0.270922 0.0285628 0)
(-0.278328 0.0175864 0)
(-0.283908 0.00574444 0)
(-0.28768 -0.00671287 0)
(-0.289638 -0.0195364 0)
(-0.289708 -0.0324655 0)
(-0.287764 -0.0452186 0)
(-0.283602 -0.0574751 0)
(-0.276974 -0.0688663 0)
(-0.267591 -0.0789649 0)
(-0.255184 -0.0872932 0)
(-0.239546 -0.0933404 0)
(-0.220624 -0.0966082 0)
(-0.198584 -0.0966744 0)
(-0.173903 -0.0932843 0)
(-0.147393 -0.0864426 0)
(-0.120199 -0.0764969 0)
(-0.093672 -0.0641591 0)
(-0.0691965 -0.0504479 0)
(-0.0479076 -0.0365172 0)
(-0.0305153 -0.023439 0)
(-0.0171648 -0.011991 0)
(-0.00758585 -0.002588 0)
(-0.00119548 0.00470887 0)
(0.00261793 0.0100423 0)
(0.00451091 0.0136877 0)
(0.00497215 0.015886 0)
(0.0045122 0.0168294 0)
(0.0034376 0.0165011 0)
(0.00216652 0.0147203 0)
(0.000919465 0.0110019 0)
(0.000131999 0.00475069 0)
(-0.000377644 0.00509473 0)
(-0.00244178 0.0123719 0)
(-0.00569752 0.0169379 0)
(-0.00936931 0.0196475 0)
(-0.0134134 0.0211566 0)
(-0.0175049 0.0220817 0)
(-0.0217863 0.0227384 0)
(-0.0261488 0.0234125 0)
(-0.030806 0.0242593 0)
(-0.0358065 0.0254909 0)
(-0.04146 0.0272787 0)
(-0.0479754 0.0298345 0)
(-0.0557459 0.033303 0)
(-0.0650507 0.0377844 0)
(-0.07623 0.0432499 0)
(-0.0894378 0.0495564 0)
(-0.104755 0.0564077 0)
(-0.122006 0.0633855 0)
(-0.140864 0.0699612 0)
(-0.160762 0.0755629 0)
(-0.181051 0.07964 0)
(-0.201007 0.0817476 0)
(-0.219999 0.0815978 0)
(-0.237499 0.0790835 0)
(-0.253173 0.0742597 0)
(-0.266839 0.0673085 0)
(-0.278483 0.0584888 0)
(-0.288184 0.0480954 0)
(-0.296108 0.0364213 0)
(-0.302431 0.0237395 0)
(-0.307336 0.0102897 0)
(-0.310951 -0.00371741 0)
(-0.313355 -0.0180946 0)
(-0.314531 -0.0326591 0)
(-0.314378 -0.0472164 0)
(-0.31268 -0.0615335 0)
(-0.309123 -0.0753181 0)
(-0.303284 -0.088193 0)
(-0.294676 -0.0996828 0)
(-0.282784 -0.10921 0)
(-0.267155 -0.116118 0)
(-0.247492 -0.119724 0)
(-0.223799 -0.119413 0)
(-0.196494 -0.114768 0)
(-0.166511 -0.105731 0)
(-0.135285 -0.0927342 0)
(-0.104636 -0.0767603 0)
(-0.0764376 -0.0592456 0)
(-0.0522528 -0.0418148 0)
(-0.0329379 -0.0258886 0)
(-0.0185828 -0.0124045 0)
(-0.00862807 -0.00170315 0)
(-0.00227468 0.00628716 0)
(0.0013682 0.0119048 0)
(0.00301215 0.01549 0)
(0.00333571 0.017343 0)
(0.00277773 0.017522 0)
(0.00183671 0.0158929 0)
(0.000798324 0.0119811 0)
(0.000114352 0.00518629 0)
(-0.000428797 0.00642395 0)
(-0.00272408 0.0152457 0)
(-0.00630742 0.0206216 0)
(-0.0103203 0.0237187 0)
(-0.0147287 0.0254198 0)
(-0.0191895 0.0264694 0)
(-0.0238818 0.0272707 0)
(-0.0287133 0.0281698 0)
(-0.0339601 0.0293923 0)
(-0.039727 0.0312211 0)
(-0.0464144 0.0339032 0)
(-0.0543052 0.0377015 0)
(-0.0638637 0.042778 0)
(-0.0753866 0.0491913 0)
(-0.0891804 0.0568126 0)
(-0.105278 0.0653346 0)
(-0.123568 0.0742518 0)
(-0.143605 0.0829125 0)
(-0.164775 0.090578 0)
(-0.186251 0.0965338 0)
(-0.207211 0.100192 0)
(-0.226875 0.10118 0)
(-0.244677 0.0993627 0)
(-0.260244 0.0948297 0)
(-0.27346 0.0878354 0)
(-0.284376 0.0787333 0)
(-0.293209 0.0679103 0)
(-0.300241 0.0557392 0)
(-0.305806 0.0425449 0)
(-0.310211 0.0285923 0)
(-0.313739 0.0140825 0)
(-0.316599 -0.000836332 0)
(-0.318936 -0.0160571 0)
(-0.320796 -0.0314929 0)
(-0.322139 -0.0470578 0)
(-0.322797 -0.0626392 0)
(-0.322489 -0.0780707 0)
(-0.320777 -0.0930969 0)
(-0.317089 -0.107341 0)
(-0.310715 -0.120272 0)
(-0.300869 -0.131194 0)
(-0.286771 -0.139256 0)
(-0.267805 -0.143517 0)
(-0.243692 -0.143075 0)
(-0.214716 -0.137255 0)
(-0.181882 -0.125859 0)
(-0.146976 -0.109399 0)
(-0.112382 -0.0892092 0)
(-0.0806602 -0.0673205 0)
(-0.0538853 -0.0459897 0)
(-0.0331202 -0.0271013 0)
(-0.0182454 -0.0116804 0)
(-0.00839566 5.28202e-05 0)
(-0.00239573 0.00845295 0)
(0.000787108 0.0139941 0)
(0.0020867 0.0171438 0)
(0.00213454 0.0180892 0)
(0.00155154 0.016786 0)
(0.000710663 0.0128048 0)
(0.000106464 0.0055656 0)
(-0.000477471 0.00789486 0)
(-0.00299273 0.0183898 0)
(-0.00688789 0.0246238 0)
(-0.0112267 0.0281246 0)
(-0.0159887 0.0300318 0)
(-0.020818 0.0312333 0)
(-0.0259365 0.0322362 0)
(-0.0312781 0.0334621 0)
(-0.0371919 0.0352269 0)
(-0.0438498 0.037899 0)
(-0.0517443 0.0418048 0)
(-0.0612206 0.047242 0)
(-0.0727779 0.0543492 0)
(-0.0866694 0.0630784 0)
(-0.103081 0.0731187 0)
(-0.121827 0.0839115 0)
(-0.142505 0.0946713 0)
(-0.164351 0.104484 0)
(-0.186465 0.112436 0)
(-0.207835 0.117762 0)
(-0.227598 0.119968 0)
(-0.245068 0.118879 0)
(-0.259886 0.114617 0)
(-0.271946 0.107528 0)
(-0.281413 0.0980838 0)
(-0.288597 0.0867954 0)
(-0.293926 0.0741411 0)
(-0.29783 0.0605255 0)
(-0.300741 0.0462602 0)
(-0.303013 0.0315655 0)
(-0.304954 0.0165801 0)
(-0.30678 0.00138028 0)
(-0.308654 -0.0140046 0)
(-0.310655 -0.0295723 0)
(-0.312802 -0.0453318 0)
(-0.315021 -0.0612831 0)
(-0.317144 -0.0773936 0)
(-0.318861 -0.0935662 0)
(-0.319699 -0.109596 0)
(-0.318977 -0.125122 0)
(-0.315816 -0.139569 0)
(-0.309149 -0.152116 0)
(-0.297838 -0.161681 0)
(-0.28084 -0.166994 0)
(-0.25749 -0.166751 0)
(-0.227807 -0.159898 0)
(-0.192809 -0.146001 0)
(-0.154646 -0.125641 0)
(-0.11642 -0.100634 0)
(-0.081534 -0.0738223 0)
(-0.0527194 -0.0483464 0)
(-0.0311518 -0.0265748 0)
(-0.0164091 -0.00957829 0)
(-0.00712709 0.00278042 0)
(-0.00185668 0.0111001 0)
(0.000713255 0.0160954 0)
(0.00150089 0.0181628 0)
(0.00131832 0.0174167 0)
(0.000661967 0.0135174 0)
(0.000109287 0.00592782 0)
(-0.000525127 0.00951665 0)
(-0.00324898 0.021813 0)
(-0.0074382 0.0289543 0)
(-0.0120872 0.0328794 0)
(-0.0171918 0.0350158 0)
(-0.0223903 0.0364117 0)
(-0.0279524 0.0376959 0)
(-0.0338478 0.039384 0)
(-0.0405057 0.0419006 0)
(-0.0481681 0.0457076 0)
(-0.0574087 0.0512009 0)
(-0.068603 0.0586728 0)
(-0.0822271 0.0681716 0)
(-0.0984091 0.0794523 0)
(-0.11712 0.0919261 0)
(-0.137867 0.104704 0)
(-0.159915 0.116689 0)
(-0.182189 0.126742 0)
(-0.203603 0.133879 0)
(-0.223109 0.137437 0)
(-0.239976 0.137166 0)
(-0.253772 0.133207 0)
(-0.264464 0.126003 0)
(-0.272273 0.116167 0)
(-0.277654 0.104356 0)
(-0.281124 0.091177 0)
(-0.283243 0.0771279 0)
(-0.284491 0.0625779 0)
(-0.285289 0.0477716 0)
(-0.285944 0.03285 0)
(-0.286694 0.0178745 0)
(-0.287691 0.00285284 0)
(-0.28905 -0.012243 0)
(-0.290834 -0.0274622 0)
(-0.29309 -0.0428663 0)
(-0.295824 -0.0585216 0)
(-0.299006 -0.0744873 0)
(-0.302518 -0.0907996 0)
(-0.306128 -0.107435 0)
(-0.309402 -0.124262 0)
(-0.311665 -0.140964 0)
(-0.311924 -0.156959 0)
(-0.308887 -0.171309 0)
(-0.301034 -0.18269 0)
(-0.286836 -0.189425 0)
(-0.265106 -0.189696 0)
(-0.235474 -0.181917 0)
(-0.198879 -0.16531 0)
(-0.157861 -0.140529 0)
(-0.116382 -0.110047 0)
(-0.0788977 -0.0778706 0)
(-0.0488355 -0.0482275 0)
(-0.0273475 -0.0240235 0)
(-0.0134266 -0.00603083 0)
(-0.00522482 0.00627316 0)
(-0.000919261 0.0139167 0)
(0.000829202 0.0176153 0)
(0.00112724 0.017747 0)
(0.000654134 0.0141247 0)
(0.000124827 0.00628737 0)
(-0.000567362 0.0112609 0)
(-0.00347931 0.0254683 0)
(-0.00793737 0.0335612 0)
(-0.0128744 0.0379331 0)
(-0.0183056 0.0403287 0)
(-0.023869 0.0419736 0)
(-0.0298865 0.0436381 0)
(-0.0363712 0.0459488 0)
(-0.0438343 0.0494541 0)
(-0.0525812 0.0547055 0)
(-0.0632401 0.0621378 0)
(-0.0761668 0.0719745 0)
(-0.0917393 0.0840824 0)
(-0.109874 0.097918 0)
(-0.130247 0.112528 0)
(-0.15202 0.126653 0)
(-0.174147 0.138915 0)
(-0.195351 0.148063 0)
(-0.214519 0.15321 0)
(-0.230755 0.153969 0)
(-0.24363 0.150468 0)
(-0.253085 0.143237 0)
(-0.25946 0.13304 0)
(-0.263285 0.120706 0)
(-0.265228 0.106989 0)
(-0.265912 0.0924975 0)
(-0.265907 0.0776613 0)
(-0.265629 0.0627468 0)
(-0.265394 0.0478884 0)
(-0.265381 0.0331278 0)
(-0.265704 0.0184498 0)
(-0.266404 0.00380957 0)
(-0.267511 -0.0108495 0)
(-0.269037 -0.0255897 0)
(-0.271019 -0.040476 0)
(-0.273494 -0.0555831 0)
(-0.276528 -0.070995 0)
(-0.280166 -0.0868101 0)
(-0.284417 -0.103121 0)
(-0.289174 -0.119994 0)
(-0.294144 -0.137393 0)
(-0.298725 -0.155095 0)
(-0.301921 -0.172549 0)
(-0.302267 -0.188746 0)
(-0.297893 -0.2021 0)
(-0.286738 -0.210479 0)
(-0.266999 -0.211413 0)
(-0.237796 -0.202631 0)
(-0.199906 -0.182891 0)
(-0.156318 -0.152965 0)
(-0.112034 -0.116307 0)
(-0.0727584 -0.07848 0)
(-0.0425578 -0.0451121 0)
(-0.0221775 -0.0192702 0)
(-0.00981729 -0.00125203 0)
(-0.00306381 0.0102132 0)
(4.79822e-06 0.0162801 0)
(0.000933075 0.017741 0)
(0.000673287 0.0146542 0)
(0.000151275 0.00668153 0)
(-0.00060572 0.0131349 0)
(-0.00368424 0.029363 0)
(-0.00838227 0.0384553 0)
(-0.0135827 0.0433041 0)
(-0.0193208 0.0459998 0)
(-0.0252411 0.047964 0)
(-0.0317192 0.0501285 0)
(-0.0388149 0.0532468 0)
(-0.0471146 0.057997 0)
(-0.0569688 0.0649992 0)
(-0.0690174 0.0746735 0)
(-0.0835341 0.0870854 0)
(-0.100722 0.101817 0)
(-0.120218 0.11793 0)
(-0.141372 0.134059 0)
(-0.163024 0.148595 0)
(-0.183922 0.159994 0)
(-0.202749 0.167067 0)
(-0.218556 0.169215 0)
(-0.230769 0.166481 0)
(-0.239371 0.15945 0)
(-0.244706 0.149038 0)
(-0.247446 0.136263 0)
(-0.248331 0.122056 0)
(-0.248114 0.107156 0)
(-0.247392 0.0920654 0)
(-0.24663 0.0770716 0)
(-0.246098 0.0622921 0)
(-0.245947 0.0477337 0)
(-0.246201 0.0333418 0)
(-0.246839 0.0190421 0)
(-0.247791 0.00476173 0)
(-0.249007 -0.00955611 0)
(-0.25044 -0.0239557 0)
(-0.252095 -0.0384709 0)
(-0.254008 -0.0531425 0)
(-0.256277 -0.0680241 0)
(-0.259028 -0.0832057 0)
(-0.262422 -0.0988073 0)
(-0.266596 -0.114991 0)
(-0.271615 -0.13191 0)
(-0.277345 -0.149664 0)
(-0.283334 -0.168148 0)
(-0.288634 -0.186901 0)
(-0.291686 -0.204856 0)
(-0.290309 -0.220182 0)
(-0.281902 -0.230206 0)
(-0.264003 -0.231686 0)
(-0.235131 -0.22149 0)
(-0.195911 -0.197825 0)
(-0.149873 -0.161762 0)
(-0.103351 -0.118177 0)
(-0.0634267 -0.0748691 0)
(-0.0345031 -0.0387246 0)
(-0.0163268 -0.012634 0)
(-0.00610115 0.00433344 0)
(-0.00115657 0.0138351 0)
(0.000657345 0.0172709 0)
(0.000694683 0.0150774 0)
(0.000186133 0.00711856 0)
(-0.000634626 0.0150954 0)
(-0.00384667 0.0334279 0)
(-0.00874592 0.0435618 0)
(-0.0141755 0.048919 0)
(-0.0201914 0.0519613 0)
(-0.0264483 0.0543231 0)
(-0.0333746 0.0571162 0)
(-0.0410749 0.0612306 0)
(-0.0501962 0.0674668 0)
(-0.0611043 0.0764739 0)
(-0.0743993 0.0885828 0)
(-0.0902093 0.103602 0)
(-0.108502 0.120731 0)
(-0.128605 0.138579 0)
(-0.149563 0.155372 0)
(-0.169993 0.169251 0)
(-0.188587 0.178674 0)
(-0.204173 0.182714 0)
(-0.216126 0.181233 0)
(-0.224296 0.174794 0)
(-0.229095 0.164441 0)
(-0.231211 0.151392 0)
(-0.231529 0.136794 0)
(-0.230856 0.121546 0)
(-0.229893 0.106252 0)
(-0.229101 0.0912301 0)
(-0.228767 0.0765806 0)
(-0.228974 0.0622619 0)
(-0.229709 0.0481655 0)
(-0.230852 0.0341655 0)
(-0.23228 0.0201567 0)
(-0.233841 0.00606568 0)
(-0.235429 -0.00814146 0)
(-0.236956 -0.022472 0)
(-0.238397 -0.0369106 0)
(-0.239768 -0.0514444 0)
(-0.241159 -0.0660687 0)
(-0.242708 -0.080822 0)
(-0.24463 -0.0957857 0)
(-0.247176 -0.111123 0)
(-0.250624 -0.127052 0)
(-0.255189 -0.143853 0)
(-0.26092 -0.161757 0)
(-0.267517 -0.180833 0)
(-0.274117 -0.200705 0)
(-0.2791 -0.220287 0)
(-0.279987 -0.237439 0)
(-0.273672 -0.248878 0)
(-0.25699 -0.250412 0)
(-0.227914 -0.237903 0)
(-0.186957 -0.209023 0)
(-0.138523 -0.165471 0)
(-0.0905649 -0.114457 0)
(-0.0516177 -0.066451 0)
(-0.0255873 -0.0294082 0)
(-0.010528 -0.00462243 0)
(-0.00291073 0.00981574 0)
(0.000184979 0.0161443 0)
(0.000678504 0.0153451 0)
(0.000223422 0.00760955 0)
(-0.00065609 0.0171465 0)
(-0.00396747 0.0376676 0)
(-0.0090242 0.048891 0)
(-0.014644 0.054797 0)
(-0.0209014 0.0582413 0)
(-0.0274649 0.0610884 0)
(-0.034809 0.0646453 0)
(-0.0430763 0.069941 0)
(-0.0529494 0.0778768 0)
(-0.0647724 0.0890726 0)
(-0.0790526 0.103681 0)
(-0.0957232 0.121154 0)
(-0.114489 0.140237 0)
(-0.134387 0.159074 0)
(-0.154236 0.175559 0)
(-0.172567 0.187738 0)
(-0.18818 0.194269 0)
(-0.200197 0.194675 0)
(-0.208414 0.189388 0)
(-0.213112 0.179501 0)
(-0.215065 0.166435 0)
(-0.215177 0.151575 0)
(-0.214399 0.136042 0)
(-0.213465 0.12058 0)
(-0.212922 0.105571 0)
(-0.213028 0.0911069 0)
(-0.213876 0.0770984 0)
(-0.215374 0.0633664 0)
(-0.217373 0.0497211 0)
(-0.219661 0.0360007 0)
(-0.22205 0.0220998 0)
(-0.224351 0.00796614 0)
(-0.226433 -0.00639688 0)
(-0.228187 -0.0209527 0)
(-0.229571 -0.0356334 0)
(-0.230576 -0.0503707 0)
(-0.231264 -0.0650953 0)
(-0.231748 -0.0797791 0)
(-0.232225 -0.0944309 0)
(-0.232957 -0.109155 0)
(-0.234292 -0.124135 0)
(-0.236616 -0.139694 0)
(-0.240301 -0.15622 0)
(-0.245562 -0.17414 0)
(-0.252247 -0.193673 0)
(-0.259574 -0.214581 0)
(-0.265819 -0.235675 0)
(-0.268222 -0.254454 0)
(-0.263106 -0.266824 0)
(-0.246699 -0.267469 0)
(-0.216448 -0.251126 0)
(-0.173133 -0.215082 0)
(-0.122397 -0.162545 0)
(-0.0743663 -0.104095 0)
(-0.0385105 -0.0535314 0)
(-0.0168975 -0.0178867 0)
(-0.00556295 0.00353193 0)
(-0.000621406 0.0140303 0)
(0.000577327 0.0153301 0)
(0.000256825 0.00812987 0)
(-0.000663521 0.0192272 0)
(-0.00402675 0.0419852 0)
(-0.00918575 0.0543379 0)
(-0.0149452 0.060832 0)
(-0.0213948 0.064734 0)
(-0.0282167 0.0681507 0)
(-0.0359216 0.0725943 0)
(-0.0446771 0.0792233 0)
(-0.0551721 0.0890037 0)
(-0.0676912 0.102455 0)
(-0.0826057 0.119465 0)
(-0.099629 0.139052 0)
(-0.118213 0.159481 0)
(-0.137166 0.178474 0)
(-0.155196 0.193721 0)
(-0.170887 0.203353 0)
(-0.183289 0.206423 0)
(-0.191905 0.203025 0)
(-0.19696 0.194196 0)
(-0.199103 0.181487 0)
(-0.19934 0.16656 0)
(-0.198645 0.150803 0)
(-0.197898 0.135179 0)
(-0.197665 0.12018 0)
(-0.19828 0.105927 0)
(-0.199795 0.0922864 0)
(-0.202124 0.0790107 0)
(-0.205047 0.0658252 0)
(-0.208332 0.0525018 0)
(-0.211721 0.038878 0)
(-0.215006 0.0248735 0)
(-0.217995 0.0104717 0)
(-0.220559 -0.00428111 0)
(-0.22259 -0.0193062 0)
(-0.22404 -0.0344889 0)
(-0.224882 -0.0497154 0)
(-0.225151 -0.06486 0)
(-0.224916 -0.0798344 0)
(-0.224322 -0.0945693 0)
(-0.22358 -0.109087 0)
(-0.223001 -0.123479 0)
(-0.222994 -0.138007 0)
(-0.224053 -0.153054 0)
(-0.226692 -0.169201 0)
(-0.231282 -0.187036 0)
(-0.237823 -0.20702 0)
(-0.245537 -0.228965 0)
(-0.252585 -0.251557 0)
(-0.255766 -0.271684 0)
(-0.250879 -0.284212 0)
(-0.233468 -0.282435 0)
(-0.200849 -0.259903 0)
(-0.15442 -0.214181 0)
(-0.101985 -0.151228 0)
(-0.0560116 -0.0869823 0)
(-0.0257376 -0.0370324 0)
(-0.00943717 -0.00589038 0)
(-0.00191004 0.0104828 0)
(0.000342423 0.0148559 0)
(0.000277921 0.00864404 0)
(-0.000660095 0.0213395 0)
(-0.00402794 0.0463837 0)
(-0.00922889 0.0599125 0)
(-0.0150717 0.0670423 0)
(-0.0216545 0.0714613 0)
(-0.0286727 0.0755294 0)
(-0.0366577 0.0809675 0)
(-0.0457852 0.0890461 0)
(-0.0567185 0.100749 0)
(-0.0696508 0.116421 0)
(-0.0847918 0.135606 0)
(-0.101641 0.156845 0)
(-0.119441 0.177935 0)
(-0.136865 0.19627 0)
(-0.152628 0.209494 0)
(-0.165494 0.216009 0)