/*--------------------------------*- C++ -*----------------------------------*\
| =========                 |                                                 |
| \\      /  F ield         | OpenFOAM: The Open Source CFD Toolbox           |
|  \\    /   O peration     | Version:  2406                                  |
|   \\  /    A nd           | Website:  www.openfoam.com                      |
|    \\/     M anipulation  |                                                 |
\*---------------------------------------------------------------------------*/
FoamFile
{
    version     2.0;
    format      ascii;
    arch        "LSB;label=32;scalar=64";
    class       volVectorField;
    location    "0.05";
    object      U;
}
// * * * * * * * * * * * * * * * * * * * * * * * * * * * * * * * * * * * * * //

dimensions      [0 1 -1 0 0 0 0];

internalField   nonuniform List<vector> 
14400
(
(-7.57767e-06 7.57805e-06 0)
(-3.28262e-05 8.43036e-06 0)
(-5.80032e-05 8.92932e-06 0)
(-8.42187e-05 8.93421e-06 0)
(-0.000110243 8.93441e-06 0)
(-0.000136216 8.90758e-06 0)
(-0.000162097 8.8726e-06 0)
(-0.000187864 8.83006e-06 0)
(-0.000213497 8.78084e-06 0)
(-0.000238977 8.72517e-06 0)
(-0.000264285 8.66318e-06 0)
(-0.000289404 8.59499e-06 0)
(-0.000314315 8.52066e-06 0)
(-0.000339001 8.44027e-06 0)
(-0.000363444 8.35391e-06 0)
(-0.000387626 8.26166e-06 0)
(-0.000411532 8.16359e-06 0)
(-0.000435143 8.05981e-06 0)
(-0.000458444 7.9504e-06 0)
(-0.000481418 7.83545e-06 0)
(-0.00050405 7.71508e-06 0)
(-0.000526323 7.58939e-06 0)
(-0.000548223 7.45848e-06 0)
(-0.000569734 7.32246e-06 0)
(-0.000590842 7.18145e-06 0)
(-0.000611532 7.03558e-06 0)
(-0.00063179 6.88495e-06 0)
(-0.000651604 6.72969e-06 0)
(-0.000670958 6.56993e-06 0)
(-0.000689841 6.4058e-06 0)
(-0.00070824 6.23742e-06 0)
(-0.000726143 6.06492e-06 0)
(-0.000743538 5.88844e-06 0)
(-0.000760413 5.70812e-06 0)
(-0.000776758 5.52408e-06 0)
(-0.000792562 5.33646e-06 0)
(-0.000807815 5.14541e-06 0)
(-0.000822507 4.95105e-06 0)
(-0.000836628 4.75353e-06 0)
(-0.00085017 4.55299e-06 0)
(-0.000863125 4.34957e-06 0)
(-0.000875483 4.14341e-06 0)
(-0.000887237 3.93464e-06 0)
(-0.00089838 3.72341e-06 0)
(-0.000908904 3.50985e-06 0)
(-0.000918804 3.29412e-06 0)
(-0.000928073 3.07634e-06 0)
(-0.000936706 2.85667e-06 0)
(-0.000944696 2.63523e-06 0)
(-0.000952039 2.41217e-06 0)
(-0.000958732 2.18764e-06 0)
(-0.000964768 1.96176e-06 0)
(-0.000970146 1.73468e-06 0)
(-0.000974861 1.50654e-06 0)
(-0.000978911 1.27748e-06 0)
(-0.000982293 1.04763e-06 0)
(-0.000985005 8.17142e-07 0)
(-0.000987045 5.86147e-07 0)
(-0.000988413 3.54785e-07 0)
(-0.000989107 1.23194e-07 0)
(-0.000989127 -1.08486e-07 0)
(-0.000988472 -3.40115e-07 0)
(-0.000987144 -5.71556e-07 0)
(-0.000985143 -8.02669e-07 0)
(-0.00098247 -1.03332e-06 0)
(-0.000979126 -1.26336e-06 0)
(-0.000975115 -1.49265e-06 0)
(-0.000970437 -1.72106e-06 0)
(-0.000965096 -1.94845e-06 0)
(-0.000959094 -2.17467e-06 0)
(-0.000952437 -2.39959e-06 0)
(-0.000945127 -2.62306e-06 0)
(-0.000937169 -2.84494e-06 0)
(-0.000928568 -3.06509e-06 0)
(-0.000919328 -3.28338e-06 0)
(-0.000909457 -3.49965e-06 0)
(-0.000898959 -3.71377e-06 0)
(-0.000887842 -3.9256e-06 0)
(-0.000876111 -4.13499e-06 0)
(-0.000863775 -4.3418e-06 0)
(-0.000850841 -4.54589e-06 0)
(-0.000837317 -4.74712e-06 0)
(-0.000823212 -4.94534e-06 0)
(-0.000808535 -5.14042e-06 0)
(-0.000793295 -5.33222e-06 0)
(-0.000777502 -5.52058e-06 0)
(-0.000761165 -5.70539e-06 0)
(-0.000744296 -5.88648e-06 0)
(-0.000726906 -6.06374e-06 0)
(-0.000709006 -6.23702e-06 0)
(-0.000690607 -6.40619e-06 0)
(-0.000671722 -6.57111e-06 0)
(-0.000652364 -6.73166e-06 0)
(-0.000632545 -6.8877e-06 0)
(-0.000612278 -7.0391e-06 0)
(-0.000591578 -7.18575e-06 0)
(-0.000570458 -7.32751e-06 0)
(-0.000548932 -7.46427e-06 0)
(-0.000527016 -7.59592e-06 0)
(-0.000504725 -7.72233e-06 0)
(-0.000482073 -7.84339e-06 0)
(-0.000459077 -7.95901e-06 0)
(-0.000435752 -8.06907e-06 0)
(-0.000412115 -8.17348e-06 0)
(-0.000388182 -8.27215e-06 0)
(-0.000363971 -8.36497e-06 0)
(-0.000339498 -8.45187e-06 0)
(-0.000314781 -8.53277e-06 0)
(-0.000289837 -8.60757e-06 0)
(-0.000264684 -8.67621e-06 0)
(-0.000239341 -8.73859e-06 0)
(-0.000213825 -8.79463e-06 0)
(-0.000188154 -8.84417e-06 0)
(-0.000162349 -8.88699e-06 0)
(-0.00013643 -8.92221e-06 0)
(-0.000110417 -8.94922e-06 0)
(-8.43532e-05 -8.94915e-06 0)
(-5.80976e-05 -8.94426e-06 0)
(-3.28819e-05 -8.4446e-06 0)
(-7.5914e-06 -7.59028e-06 0)
(-8.44377e-06 3.28404e-05 0)
(-4.24514e-05 4.24097e-05 0)
(-7.47917e-05 4.35221e-05 0)
(-0.000108625 4.35589e-05 0)
(-0.000142024 4.34686e-05 0)
(-0.000175342 4.33297e-05 0)
(-0.000208533 4.31545e-05 0)
(-0.000241575 4.29458e-05 0)
(-0.000274444 4.27053e-05 0)
(-0.000307115 4.24337e-05 0)
(-0.000339566 4.21316e-05 0)
(-0.000371773 4.17993e-05 0)
(-0.000403713 4.14373e-05 0)
(-0.000435364 4.10458e-05 0)
(-0.000466702 4.06253e-05 0)
(-0.000497707 4.01761e-05 0)
(-0.000528356 3.96987e-05 0)
(-0.000558628 3.91935e-05 0)
(-0.000588501 3.86609e-05 0)
(-0.000617955 3.81014e-05 0)
(-0.000646969 3.75156e-05 0)
(-0.000675524 3.69039e-05 0)
(-0.000703599 3.62668e-05 0)
(-0.000731175 3.5605e-05 0)
(-0.000758234 3.49189e-05 0)
(-0.000784758 3.42091e-05 0)
(-0.000810727 3.34762e-05 0)
(-0.000836125 3.27209e-05 0)
(-0.000860935 3.19437e-05 0)
(-0.00088514 3.11452e-05 0)
(-0.000908724 3.03261e-05 0)
(-0.000931672 2.9487e-05 0)
(-0.000953968 2.86285e-05 0)
(-0.000975599 2.77514e-05 0)
(-0.000996549 2.68562e-05 0)
(-0.0010168 2.59437e-05 0)
(-0.00103635 2.50145e-05 0)
(-0.00105518 2.40692e-05 0)
(-0.00107328 2.31086e-05 0)
(-0.00109064 2.21333e-05 0)
(-0.00110724 2.1144e-05 0)
(-0.00112308 2.01414e-05 0)
(-0.00113814 1.91262e-05 0)
(-0.00115242 1.8099e-05 0)
(-0.00116591 1.70605e-05 0)
(-0.0011786 1.60115e-05 0)
(-0.00119047 1.49525e-05 0)
(-0.00120153 1.38843e-05 0)
(-0.00121177 1.28076e-05 0)
(-0.00122118 1.17231e-05 0)
(-0.00122976 1.06313e-05 0)
(-0.00123749 9.53308e-06 0)
(-0.00124438 8.42902e-06 0)
(-0.00125042 7.31981e-06 0)
(-0.00125561 6.20613e-06 0)
(-0.00125994 5.08866e-06 0)
(-0.00126341 3.96807e-06 0)
(-0.00126602 2.84504e-06 0)
(-0.00126777 1.72024e-06 0)
(-0.00126866 5.94352e-07 0)
(-0.00126868 -5.31961e-07 0)
(-0.00126784 -1.65802e-06 0)
(-0.00126613 -2.78315e-06 0)
(-0.00126356 -3.90667e-06 0)
(-0.00126013 -5.02792e-06 0)
(-0.00125584 -6.14622e-06 0)
(-0.0012507 -7.26088e-06 0)
(-0.0012447 -8.37123e-06 0)
(-0.00123785 -9.47659e-06 0)
(-0.00123016 -1.05763e-05 0)
(-0.00122162 -1.16696e-05 0)
(-0.00121225 -1.27559e-05 0)
(-0.00120204 -1.38345e-05 0)
(-0.00119102 -1.49047e-05 0)
(-0.00117917 -1.59658e-05 0)
(-0.00116652 -1.70171e-05 0)
(-0.00115306 -1.8058e-05 0)
(-0.00113881 -1.90877e-05 0)
(-0.00112377 -2.01056e-05 0)
(-0.00110796 -2.11109e-05 0)
(-0.00109138 -2.2103e-05 0)
(-0.00107404 -2.30812e-05 0)
(-0.00105596 -2.40448e-05 0)
(-0.00103715 -2.49931e-05 0)
(-0.00101761 -2.59254e-05 0)
(-0.000997368 -2.68411e-05 0)
(-0.000976427 -2.77395e-05 0)
(-0.000954804 -2.86199e-05 0)
(-0.000932513 -2.94816e-05 0)
(-0.000909568 -3.03241e-05 0)
(-0.000885984 -3.11465e-05 0)
(-0.000861777 -3.19483e-05 0)
(-0.000836963 -3.27288e-05 0)
(-0.000811558 -3.34875e-05 0)
(-0.000785579 -3.42236e-05 0)
(-0.000759045 -3.49366e-05 0)
(-0.000731973 -3.56259e-05 0)
(-0.00070438 -3.62909e-05 0)
(-0.000676287 -3.69311e-05 0)
(-0.000647713 -3.75458e-05 0)
(-0.000618676 -3.81346e-05 0)
(-0.000589198 -3.86969e-05 0)
(-0.000559299 -3.92322e-05 0)
(-0.000528999 -3.974e-05 0)
(-0.00049832 -4.022e-05 0)
(-0.000467284 -4.06716e-05 0)
(-0.000435912 -4.10944e-05 0)
(-0.000404226 -4.1488e-05 0)
(-0.00037225 -4.18521e-05 0)
(-0.000340005 -4.21862e-05 0)
(-0.000307516 -4.249e-05 0)
(-0.000274805 -4.27631e-05 0)
(-0.000241895 -4.3005e-05 0)
(-0.000208811 -4.32148e-05 0)
(-0.000175578 -4.3391e-05 0)
(-0.000142216 -4.35307e-05 0)
(-0.000108774 -4.36217e-05 0)
(-7.48955e-05 -4.35851e-05 0)
(-4.25117e-05 -4.24714e-05 0)
(-8.45688e-06 -3.28912e-05 0)
(-8.96534e-06 5.80784e-05 0)
(-4.36733e-05 7.47877e-05 0)
(-7.65204e-05 7.63269e-05 0)
(-0.000111116 7.62959e-05 0)
(-0.000145257 7.61049e-05 0)
(-0.000179321 7.58499e-05 0)
(-0.000213252 7.55383e-05 0)
(-0.00024703 7.5171e-05 0)
(-0.00028063 7.47491e-05 0)
(-0.000314028 7.42732e-05 0)
(-0.0003472 7.37439e-05 0)
(-0.000380122 7.3162e-05 0)
(-0.000412772 7.25279e-05 0)
(-0.000445126 7.18423e-05 0)
(-0.000477161 7.1106e-05 0)
(-0.000508854 7.03195e-05 0)
(-0.000540183 6.94835e-05 0)
(-0.000571127 6.85989e-05 0)
(-0.000601663 6.76665e-05 0)
(-0.00063177 6.6687e-05 0)
(-0.000661427 6.56613e-05 0)
(-0.000690614 6.45904e-05 0)
(-0.000719312 6.34751e-05 0)
(-0.000747499 6.23164e-05 0)
(-0.000775157 6.11152e-05 0)
(-0.000802267 5.98727e-05 0)
(-0.000828811 5.85897e-05 0)
(-0.000854771 5.72674e-05 0)
(-0.00088013 5.59069e-05 0)
(-0.00090487 5.45091e-05 0)
(-0.000928975 5.30753e-05 0)
(-0.00095243 5.16064e-05 0)
(-0.000975219 5.01038e-05 0)
(-0.000997327 4.85684e-05 0)
(-0.00101874 4.70015e-05 0)
(-0.00103944 4.54042e-05 0)
(-0.00105942 4.37777e-05 0)
(-0.00107867 4.21232e-05 0)
(-0.00109717 4.04418e-05 0)
(-0.0011149 3.87347e-05 0)
(-0.00113187 3.70032e-05 0)
(-0.00114806 3.52483e-05 0)
(-0.00116345 3.34714e-05 0)
(-0.00117805 3.16736e-05 0)
(-0.00119183 2.9856e-05 0)
(-0.0012048 2.802e-05 0)
(-0.00121694 2.61666e-05 0)
(-0.00122824 2.42971e-05 0)
(-0.0012387 2.24127e-05 0)
(-0.00124832 2.05146e-05 0)
(-0.00125708 1.86039e-05 0)
(-0.00126499 1.66818e-05 0)
(-0.00127203 1.47495e-05 0)
(-0.0012782 1.28083e-05 0)
(-0.0012835 1.08592e-05 0)
(-0.00128792 8.90357e-06 0)
(-0.00129147 6.94245e-06 0)
(-0.00129414 4.97707e-06 0)
(-0.00129593 3.0086e-06 0)
(-0.00129683 1.03821e-06 0)
(-0.00129686 -9.32895e-07 0)
(-0.001296 -2.90356e-06 0)
(-0.00129425 -4.87259e-06 0)
(-0.00129163 -6.83881e-06 0)
(-0.00128812 -8.80105e-06 0)
(-0.00128374 -1.07581e-05 0)
(-0.00127848 -1.27088e-05 0)
(-0.00127235 -1.4652e-05 0)
(-0.00126535 -1.65864e-05 0)
(-0.00125748 -1.85109e-05 0)
(-0.00124876 -2.04243e-05 0)
(-0.00123918 -2.23254e-05 0)
(-0.00122875 -2.4213e-05 0)
(-0.00121748 -2.60859e-05 0)
(-0.00120538 -2.79429e-05 0)
(-0.00119244 -2.97828e-05 0)
(-0.00117869 -3.16043e-05 0)
(-0.00116412 -3.34064e-05 0)
(-0.00114876 -3.51878e-05 0)
(-0.00113259 -3.69472e-05 0)
(-0.00111565 -3.86835e-05 0)
(-0.00109793 -4.03954e-05 0)
(-0.00107945 -4.20818e-05 0)
(-0.00106022 -4.37415e-05 0)
(-0.00104025 -4.53733e-05 0)
(-0.00101956 -4.69759e-05 0)
(-0.00099816 -4.85482e-05 0)
(-0.00097606 -5.00891e-05 0)
(-0.000953276 -5.15973e-05 0)
(-0.000929824 -5.30717e-05 0)
(-0.000905719 -5.45111e-05 0)
(-0.000880976 -5.59145e-05 0)
(-0.000855613 -5.72807e-05 0)
(-0.000829647 -5.86085e-05 0)
(-0.000803094 -5.9897e-05 0)
(-0.000775972 -6.1145e-05 0)
(-0.0007483 -6.23515e-05 0)
(-0.000720097 -6.35155e-05 0)
(-0.000691382 -6.4636e-05 0)
(-0.000662175 -6.57121e-05 0)
(-0.000632495 -6.67427e-05 0)
(-0.000602363 -6.77269e-05 0)
(-0.000571801 -6.8664e-05 0)
(-0.00054083 -6.95531e-05 0)
(-0.00050947 -7.03933e-05 0)
(-0.000477746 -7.11838e-05 0)
(-0.000445677 -7.1924e-05 0)
(-0.000413289 -7.26132e-05 0)
(-0.000380602 -7.32506e-05 0)
(-0.000347642 -7.38357e-05 0)
(-0.000314431 -7.43678e-05 0)
(-0.000280993 -7.48463e-05 0)
(-0.000247352 -7.52706e-05 0)
(-0.000213531 -7.56399e-05 0)
(-0.000179557 -7.59532e-05 0)
(-0.00014545 -7.62096e-05 0)
(-0.000111265 -7.64016e-05 0)
(-7.66246e-05 -7.64333e-05 0)
(-4.37337e-05 -7.48928e-05 0)
(-8.97858e-06 -5.81663e-05 0)
(-9.00562e-06 8.44389e-05 0)
(-4.38828e-05 0.000108764 0)
(-7.67913e-05 0.000110982 0)
(-0.000111505 0.000110933 0)
(-0.000145763 0.000110646 0)
(-0.000179946 0.00011027 0)
(-0.000213995 0.000109814 0)
(-0.000247891 0.000109278 0)
(-0.000281608 0.000108664 0)
(-0.000315121 0.000107971 0)
(-0.000348408 0.000107201 0)
(-0.000381444 0.000106355 0)
(-0.000414206 0.000105432 0)
(-0.000446671 0.000104435 0)
(-0.000478815 0.000103365 0)
(-0.000510617 0.000102221 0)
(-0.000542053 0.000101005 0)
(-0.000573102 9.97189e-05 0)
(-0.000603742 9.8363e-05 0)
(-0.000633951 9.69388e-05 0)
(-0.000663709 9.54474e-05 0)
(-0.000692995 9.38902e-05 0)
(-0.000721788 9.22686e-05 0)
(-0.00075007 9.05838e-05 0)
(-0.000777821 8.88374e-05 0)
(-0.000805022 8.70308e-05 0)
(-0.000831655 8.51655e-05 0)
(-0.000857701 8.32431e-05 0)
(-0.000883144 8.1265e-05 0)
(-0.000907966 7.92328e-05 0)
(-0.000932151 7.71482e-05 0)
(-0.000955683 7.50128e-05 0)
(-0.000978546 7.28283e-05 0)
(-0.00100073 7.05962e-05 0)
(-0.00102221 6.83183e-05 0)
(-0.00104298 6.59963e-05 0)
(-0.00106302 6.36318e-05 0)
(-0.00108233 6.12266e-05 0)
(-0.00110089 5.87823e-05 0)
(-0.00111869 5.63008e-05 0)
(-0.00113571 5.37837e-05 0)
(-0.00115195 5.12328e-05 0)
(-0.00116739 4.86499e-05 0)
(-0.00118203 4.60365e-05 0)
(-0.00119586 4.33945e-05 0)
(-0.00120887 4.07257e-05 0)
(-0.00122104 3.80317e-05 0)
(-0.00123238 3.53143e-05 0)
(-0.00124288 3.25752e-05 0)
(-0.00125253 2.98161e-05 0)
(-0.00126132 2.70389e-05 0)
(-0.00126924 2.42451e-05 0)
(-0.00127631 2.14365e-05 0)
(-0.0012825 1.86149e-05 0)
(-0.00128782 1.5782e-05 0)
(-0.00129226 1.29395e-05 0)
(-0.00129582 1.0089e-05 0)
(-0.00129849 7.23236e-06 0)
(-0.00130029 4.37124e-06 0)
(-0.00130119 1.50734e-06 0)
(-0.00130122 -1.3576e-06 0)
(-0.00130035 -4.22189e-06 0)
(-0.0012986 -7.08382e-06 0)
(-0.00129597 -9.94165e-06 0)
(-0.00129245 -1.27937e-05 0)
(-0.00128806 -1.56382e-05 0)
(-0.00128278 -1.84735e-05 0)
(-0.00127663 -2.12978e-05 0)
(-0.00126961 -2.41095e-05 0)
(-0.00126172 -2.69067e-05 0)
(-0.00125297 -2.96878e-05 0)
(-0.00124336 -3.24511e-05 0)
(-0.0012329 -3.51947e-05 0)
(-0.0012216 -3.79169e-05 0)
(-0.00120945 -4.06161e-05 0)
(-0.00119648 -4.32904e-05 0)
(-0.00118268 -4.59381e-05 0)
(-0.00116807 -4.85575e-05 0)
(-0.00115265 -5.11467e-05 0)
(-0.00113643 -5.37042e-05 0)
(-0.00111943 -5.6228e-05 0)
(-0.00110166 -5.87164e-05 0)
(-0.00108312 -6.11678e-05 0)
(-0.00106383 -6.35804e-05 0)
(-0.0010438 -6.59523e-05 0)
(-0.00102304 -6.8282e-05 0)
(-0.00100157 -7.05676e-05 0)
(-0.000979394 -7.28075e-05 0)
(-0.000956535 -7.49999e-05 0)
(-0.000933006 -7.71432e-05 0)
(-0.000908821 -7.92358e-05 0)
(-0.000883997 -8.12759e-05 0)
(-0.00085855 -8.3262e-05 0)
(-0.000832497 -8.51923e-05 0)
(-0.000805855 -8.70655e-05 0)
(-0.000778643 -8.88799e-05 0)
(-0.000750878 -9.06339e-05 0)
(-0.000722581 -9.23262e-05 0)
(-0.000693769 -9.39553e-05 0)
(-0.000664462 -9.55197e-05 0)
(-0.000634682 -9.70181e-05 0)
(-0.000604448 -9.84491e-05 0)
(-0.000573782 -9.98116e-05 0)
(-0.000542705 -0.000101104 0)
(-0.000511239 -0.000102326 0)
(-0.000479405 -0.000103475 0)
(-0.000447227 -0.000104552 0)
(-0.000414727 -0.000105554 0)
(-0.000381928 -0.000106481 0)
(-0.000348854 -0.000107332 0)
(-0.000315528 -0.000108106 0)
(-0.000281974 -0.000108802 0)
(-0.000248216 -0.00010942 0)
(-0.000214277 -0.000109958 0)
(-0.000180184 -0.000110417 0)
(-0.000145957 -0.000110795 0)
(-0.000111655 -0.000111084 0)
(-7.68961e-05 -0.000111134 0)
(-4.39434e-05 -0.000108914 0)
(-9.01888e-06 -8.45646e-05 0)
(-9.05401e-06 0.000110731 0)
(-4.40278e-05 0.000142463 0)
(-7.70125e-05 0.000145345 0)
(-0.000111817 0.000145277 0)
(-0.000146167 0.000144897 0)
(-0.000180444 0.000144402 0)
(-0.000214588 0.000143802 0)
(-0.000248578 0.000143099 0)
(-0.000282388 0.000142294 0)
(-0.000315994 0.000141386 0)
(-0.000349372 0.000140377 0)
(-0.000382499 0.000139268 0)
(-0.000415351 0.00013806 0)
(-0.000447905 0.000136754 0)
(-0.000480137 0.000135351 0)
(-0.000512025 0.000133853 0)
(-0.000543546 0.000132261 0)
(-0.000574678 0.000130576 0)
(-0.0006054 0.0001288 0)
(-0.00063569 0.000126934 0)
(-0.000665528 0.000124981 0)
(-0.000694891 0.000122942 0)
(-0.000723761 0.000120818 0)
(-0.000752118 0.000118611 0)
(-0.000779941 0.000116324 0)
(-0.000807213 0.000113958 0)
(-0.000833915 0.000111515 0)
(-0.000860029 0.000108997 0)
(-0.000885537 0.000106406 0)
(-0.000910422 0.000103745 0)
(-0.000934669 0.000101015 0)
(-0.000958261 9.82184e-05 0)
(-0.000981182 9.53576e-05 0)
(-0.00100342 9.24346e-05 0)
(-0.00102495 8.94516e-05 0)
(-0.00104578 8.64108e-05 0)
(-0.00106587 8.33145e-05 0)
(-0.00108523 8.0165e-05 0)
(-0.00110383 7.69643e-05 0)
(-0.00112167 7.37149e-05 0)
(-0.00113873 7.0419e-05 0)
(-0.00115501 6.70788e-05 0)
(-0.00117049 6.36966e-05 0)
(-0.00118517 6.02747e-05 0)
(-0.00119903 5.68154e-05 0)
(-0.00121207 5.33209e-05 0)
(-0.00122427 4.97935e-05 0)
(-0.00123564 4.62355e-05 0)
(-0.00124616 4.26491e-05 0)
(-0.00125583 3.90367e-05 0)
(-0.00126464 3.54004e-05 0)
(-0.00127259 3.17425e-05 0)
(-0.00127967 2.80653e-05 0)
(-0.00128588 2.4371e-05 0)
(-0.00129121 2.06619e-05 0)
(-0.00129566 1.69403e-05 0)
(-0.00129922 1.32083e-05 0)
(-0.00130191 9.46816e-06 0)
(-0.00130371 5.72221e-06 0)
(-0.00130462 1.97264e-06 0)
(-0.00130464 -1.77831e-06 0)
(-0.00130377 -5.5284e-06 0)
(-0.00130202 -9.27538e-06 0)
(-0.00129938 -1.3017e-05 0)
(-0.00129586 -1.67511e-05 0)
(-0.00129145 -2.04753e-05 0)
(-0.00128616 -2.41875e-05 0)
(-0.00128 -2.78853e-05 0)
(-0.00127296 -3.15665e-05 0)
(-0.00126505 -3.52289e-05 0)
(-0.00125628 -3.88702e-05 0)
(-0.00124665 -4.2488e-05 0)
(-0.00123616 -4.60803e-05 0)
(-0.00122483 -4.96446e-05 0)
(-0.00121266 -5.31786e-05 0)
(-0.00119965 -5.66802e-05 0)
(-0.00118582 -6.0147e-05 0)
(-0.00117118 -6.35767e-05 0)
(-0.00115572 -6.6967e-05 0)
(-0.00113947 -7.03156e-05 0)
(-0.00112243 -7.36203e-05 0)
(-0.00110461 -7.68788e-05 0)
(-0.00108602 -8.00887e-05 0)
(-0.00106669 -8.32477e-05 0)
(-0.0010466 -8.63537e-05 0)
(-0.00102579 -8.94043e-05 0)
(-0.00100427 -9.23974e-05 0)
(-0.000982039 -9.53305e-05 0)
(-0.000959122 -9.82016e-05 0)
(-0.000935533 -0.000101008 0)
(-0.000911287 -0.000103749 0)
(-0.000886399 -0.00010642 0)
(-0.000860887 -0.000109021 0)
(-0.000834766 -0.000111549 0)
(-0.000808055 -0.000114003 0)
(-0.000780772 -0.000116379 0)
(-0.000752934 -0.000118676 0)
(-0.000724562 -0.000120892 0)
(-0.000695674 -0.000123026 0)
(-0.00066629 -0.000125075 0)
(-0.00063643 -0.000127037 0)
(-0.000606115 -0.000128912 0)
(-0.000575366 -0.000130696 0)
(-0.000544205 -0.000132389 0)
(-0.000512653 -0.000133989 0)
(-0.000480733 -0.000135495 0)
(-0.000448467 -0.000136905 0)
(-0.000415877 -0.000138218 0)
(-0.000382988 -0.000139432 0)
(-0.000349823 -0.000140547 0)
(-0.000316405 -0.000141561 0)
(-0.000282758 -0.000142473 0)
(-0.000248906 -0.000143283 0)
(-0.000214873 -0.00014399 0)
(-0.000180685 -0.000144593 0)
(-0.000146364 -0.000145091 0)
(-0.000111969 -0.000145473 0)
(-7.71184e-05 -0.000145542 0)
(-4.4089e-05 -0.000142658 0)
(-9.0674e-06 -0.000110894 0)
(-9.08836e-06 0.00013713 0)
(-4.41874e-05 0.000176286 0)
(-7.72802e-05 0.000179839 0)
(-0.000112201 0.000179756 0)
(-0.000146666 0.000179285 0)
(-0.000181058 0.000178671 0)
(-0.000215318 0.000177928 0)
(-0.000249424 0.000177057 0)
(-0.000283348 0.000176059 0)
(-0.000317068 0.000174936 0)
(-0.000350559 0.000173687 0)
(-0.000383797 0.000172314 0)
(-0.00041676 0.000170818 0)
(-0.000449422 0.000169202 0)
(-0.000481762 0.000167465 0)
(-0.000513756 0.000165611 0)
(-0.000545382 0.00016364 0)
(-0.000576617 0.000161555 0)
(-0.00060744 0.000159357 0)
(-0.00063783 0.000157048 0)
(-0.000667764 0.00015463 0)
(-0.000697223 0.000152106 0)
(-0.000726187 0.000149478 0)
(-0.000754635 0.000146747 0)
(-0.000782548 0.000143916 0)
(-0.000809907 0.000140988 0)
(-0.000836693 0.000137965 0)
(-0.00086289 0.000134849 0)
(-0.000888478 0.000131643 0)
(-0.000913442 0.00012835 0)
(-0.000937764 0.000124972 0)
(-0.000961429 0.000121512 0)
(-0.000984422 0.000117972 0)
(-0.00100673 0.000114355 0)
(-0.00102833 0.000110664 0)
(-0.00104921 0.000106901 0)
(-0.00106937 0.00010307 0)
(-0.00108878 9.91733e-05 0)
(-0.00110744 9.52132e-05 0)
(-0.00112534 9.11929e-05 0)
(-0.00114245 8.7115e-05 0)
(-0.00115878 8.29825e-05 0)
(-0.0011743 7.87981e-05 0)
(-0.00118902 7.45646e-05 0)
(-0.00120293 7.02848e-05 0)
(-0.001216 6.59616e-05 0)
(-0.00122824 6.15977e-05 0)
(-0.00123964 5.7196e-05 0)
(-0.00125019 5.27592e-05 0)
(-0.00125989 4.82902e-05 0)
(-0.00126873 4.37918e-05 0)
(-0.0012767 3.92667e-05 0)
(-0.0012838 3.47177e-05 0)
(-0.00129002 3.01476e-05 0)
(-0.00129537 2.55593e-05 0)
(-0.00129983 2.09554e-05 0)
(-0.00130341 1.63387e-05 0)
(-0.0013061 1.1712e-05 0)
(-0.0013079 7.07813e-06 0)
(-0.00130882 2.43976e-06 0)
(-0.00130884 -2.20031e-06 0)
(-0.00130797 -6.83932e-06 0)
(-0.00130621 -1.14745e-05 0)
(-0.00130357 -1.61031e-05 0)
(-0.00130003 -2.07223e-05 0)
(-0.00129561 -2.53293e-05 0)
(-0.00129031 -2.99215e-05 0)
(-0.00128413 -3.44959e-05 0)
(-0.00127707 -3.90498e-05 0)
(-0.00126914 -4.35805e-05 0)
(-0.00126035 -4.8085e-05 0)
(-0.00125069 -5.25607e-05 0)
(-0.00124017 -5.70047e-05 0)
(-0.00122881 -6.14141e-05 0)
(-0.0012166 -6.57862e-05 0)
(-0.00120356 -7.01182e-05 0)
(-0.00118969 -7.44071e-05 0)
(-0.001175 -7.86503e-05 0)
(-0.0011595 -8.28447e-05 0)
(-0.00114319 -8.69877e-05 0)
(-0.0011261 -9.10763e-05 0)
(-0.00110823 -9.51078e-05 0)
(-0.00108959 -9.90793e-05 0)
(-0.00107019 -0.000102988 0)
(-0.00105005 -0.000106831 0)
(-0.00102918 -0.000110605 0)
(-0.00100759 -0.000114309 0)
(-0.00098529 -0.000117938 0)
(-0.000962303 -0.000121491 0)
(-0.00093864 -0.000124964 0)
(-0.000914318 -0.000128355 0)
(-0.000889353 -0.000131661 0)
(-0.00086376 -0.000134879 0)
(-0.000837556 -0.000138008 0)
(-0.00081076 -0.000141043 0)
(-0.00078339 -0.000143984 0)
(-0.000755463 -0.000146827 0)
(-0.000726998 -0.00014957 0)
(-0.000698016 -0.00015221 0)
(-0.000668536 -0.000154746 0)
(-0.000638579 -0.000157175 0)
(-0.000608164 -0.000159494 0)
(-0.000577314 -0.000161703 0)
(-0.00054605 -0.000163799 0)
(-0.000514393 -0.000165779 0)
(-0.000482366 -0.000167643 0)
(-0.000449992 -0.000169388 0)
(-0.000417293 -0.000171013 0)
(-0.000384293 -0.000172516 0)
(-0.000351016 -0.000173896 0)
(-0.000317484 -0.000175151 0)
(-0.000283723 -0.000176281 0)
(-0.000249756 -0.000177284 0)
(-0.000215607 -0.000178159 0)
(-0.000181303 -0.000178906 0)
(-0.000146865 -0.000179524 0)
(-0.000112355 -0.000179998 0)
(-7.73875e-05 -0.000180082 0)
(-4.42494e-05 -0.000176526 0)
(-9.10191e-06 -0.000137331 0)
(-9.12751e-06 0.000163635 0)
(-4.43738e-05 0.000210235 0)
(-7.76016e-05 0.00021446 0)
(-0.000112665 0.000214362 0)
(-0.00014727 0.0002138 0)
(-0.000181803 0.000213067 0)
(-0.000216203 0.00021218 0)
(-0.000250448 0.00021114 0)
(-0.000284511 0.00020995 0)
(-0.000318369 0.000208609 0)
(-0.000351996 0.000207118 0)
(-0.00038537 0.00020548 0)
(-0.000418466 0.000203696 0)
(-0.00045126 0.000201768 0)
(-0.00048373 0.000199696 0)
(-0.000515853 0.000197484 0)
(-0.000547605 0.000195133 0)
(-0.000578965 0.000192645 0)
(-0.000609911 0.000190023 0)
(-0.000640421 0.000187269 0)
(-0.000670473 0.000184385 0)
(-0.000700048 0.000181374 0)
(-0.000729125 0.000178238 0)
(-0.000757684 0.000174981 0)
(-0.000785705 0.000171605 0)
(-0.000813169 0.000168112 0)
(-0.000840059 0.000164506 0)
(-0.000866355 0.00016079 0)
(-0.000892041 0.000156967 0)
(-0.000917099 0.000153039 0)
(-0.000941513 0.00014901 0)
(-0.000965267 0.000144883 0)
(-0.000988345 0.000140661 0)
(-0.00101073 0.000136348 0)
(-0.00103241 0.000131946 0)
(-0.00105338 0.000127459 0)
(-0.00107361 0.000122891 0)
(-0.00109309 0.000118244 0)
(-0.00111182 0.000113522 0)
(-0.00112977 0.000108728 0)
(-0.00114695 0.000103865 0)
(-0.00116334 9.89373e-05 0)
(-0.00117892 9.39479e-05 0)
(-0.00119369 8.89e-05 0)
(-0.00120764 8.3797e-05 0)
(-0.00122076 7.86422e-05 0)
(-0.00123305 7.34391e-05 0)
(-0.00124449 6.81909e-05 0)
(-0.00125508 6.2901e-05 0)
(-0.00126481 5.75728e-05 0)
(-0.00127367 5.22094e-05 0)
(-0.00128167 4.68144e-05 0)
(-0.0012888 4.13909e-05 0)
(-0.00129504 3.59423e-05 0)
(-0.00130041 3.04719e-05 0)
(-0.00130488 2.49831e-05 0)
(-0.00130848 1.9479e-05 0)
(-0.00131118 1.3963e-05 0)
(-0.00131299 8.43844e-06 0)
(-0.0013139 2.90855e-06 0)
(-0.00131392 -2.62336e-06 0)
(-0.00131305 -8.15401e-06 0)
(-0.00131129 -1.36801e-05 0)
(-0.00130864 -1.91983e-05 0)
(-0.00130509 -2.47054e-05 0)
(-0.00130066 -3.0198e-05 0)
(-0.00129534 -3.56729e-05 0)
(-0.00128913 -4.11267e-05 0)
(-0.00128205 -4.65561e-05 0)
(-0.0012741 -5.19577e-05 0)
(-0.00126527 -5.73284e-05 0)
(-0.00125558 -6.26646e-05 0)
(-0.00124503 -6.79631e-05 0)
(-0.00123362 -7.32205e-05 0)
(-0.00122137 -7.84334e-05 0)
(-0.00120828 -8.35985e-05 0)
(-0.00119436 -8.87124e-05 0)
(-0.00117962 -9.37718e-05 0)
(-0.00116407 -9.87732e-05 0)
(-0.00114771 -0.000103713 0)
(-0.00113055 -0.000108589 0)
(-0.00111262 -0.000113396 0)
(-0.00109391 -0.000118132 0)
(-0.00107444 -0.000122793 0)
(-0.00105423 -0.000127376 0)
(-0.00103328 -0.000131877 0)
(-0.00101161 -0.000136293 0)
(-0.000989226 -0.000140621 0)
(-0.000966154 -0.000144858 0)
(-0.000942403 -0.000149 0)
(-0.00091799 -0.000153044 0)
(-0.000892929 -0.000156987 0)
(-0.000867239 -0.000160826 0)
(-0.000840936 -0.000164557 0)
(-0.000814037 -0.000168178 0)
(-0.00078656 -0.000171685 0)
(-0.000758525 -0.000175076 0)
(-0.00072995 -0.000178348 0)
(-0.000700854 -0.000181498 0)
(-0.000671258 -0.000184522 0)
(-0.000641182 -0.00018742 0)
(-0.000610647 -0.000190187 0)
(-0.000579674 -0.000192822 0)
(-0.000548284 -0.000195321 0)
(-0.0005165 -0.000197684 0)
(-0.000484344 -0.000199907 0)
(-0.000451839 -0.000201989 0)
(-0.000419008 -0.000203928 0)
(-0.000385874 -0.000205721 0)
(-0.000352461 -0.000207367 0)
(-0.000318792 -0.000208865 0)
(-0.000284893 -0.000210214 0)
(-0.000250786 -0.000211411 0)
(-0.000216497 -0.000212456 0)
(-0.000182052 -0.000213347 0)
(-0.000147473 -0.000214084 0)
(-0.000112821 -0.000214649 0)
(-7.77106e-05 -0.00021475 0)
(-4.44368e-05 -0.000210522 0)
(-9.14128e-06 -0.000163875 0)
(-9.17209e-06 0.000190261 0)
(-4.45898e-05 0.000244338 0)
(-7.79778e-05 0.000249237 0)
(-0.00011321 0.000249122 0)
(-0.000147981 0.00024847 0)
(-0.00018268 0.000247617 0)
(-0.000217245 0.000246585 0)
(-0.000251654 0.000245377 0)
(-0.00028588 0.000243992 0)
(-0.0003199 0.000242432 0)
(-0.000353688 0.000240699 0)
(-0.00038722 0.000238795 0)
(-0.000420473 0.00023672 0)
(-0.000453423 0.000234478 0)
(-0.000486047 0.000232069 0)
(-0.00051832 0.000229497 0)
(-0.000550222 0.000226763 0)
(-0.000581728 0.000223871 0)
(-0.000612818 0.000220823 0)
(-0.000643469 0.000217621 0)
(-0.00067366 0.000214268 0)
(-0.000703371 0.000210767 0)
(-0.000732581 0.000207122 0)
(-0.00076127 0.000203336 0)
(-0.000789418 0.000199411 0)
(-0.000817007 0.000195351 0)
(-0.000844017 0.000191159 0)
(-0.000870431 0.00018684 0)
(-0.000896231 0.000182395 0)
(-0.000921401 0.00017783 0)
(-0.000945922 0.000173147 0)
(-0.00096978 0.00016835 0)
(-0.000992959 0.000163444 0)
(-0.00101544 0.00015843 0)
(-0.00103722 0.000153315 0)
(-0.00105827 0.0001481 0)
(-0.00107859 0.000142791 0)
(-0.00109816 0.00013739 0)
(-0.00111696 0.000131903 0)
(-0.00113499 0.000126331 0)
(-0.00115224 0.000120681 0)
(-0.0011687 0.000114955 0)
(-0.00118434 0.000109157 0)
(-0.00119918 0.000103291 0)
(-0.00121318 9.73615e-05 0)
(-0.00122636 9.13719e-05 0)
(-0.0012387 8.53261e-05 0)
(-0.00125018 7.92281e-05 0)
(-0.00126082 7.30817e-05 0)
(-0.00127059 6.68908e-05 0)
(-0.00127949 6.06592e-05 0)
(-0.00128752 5.43908e-05 0)
(-0.00129467 4.80895e-05 0)
(-0.00130094 4.1759e-05 0)
(-0.00130633 3.54033e-05 0)
(-0.00131083 2.90261e-05 0)
(-0.00131443 2.26313e-05 0)
(-0.00131714 1.62227e-05 0)
(-0.00131896 9.80414e-06 0)
(-0.00131988 3.3794e-06 0)
(-0.0013199 -3.0477e-06 0)
(-0.00131903 -9.47332e-06 0)
(-0.00131726 -1.58937e-05 0)
(-0.00131459 -2.23049e-05 0)
(-0.00131104 -2.87032e-05 0)
(-0.00130658 -3.50847e-05 0)
(-0.00130124 -4.14457e-05 0)
(-0.00129502 -4.77822e-05 0)
(-0.00128791 -5.40904e-05 0)
(-0.00127992 -6.03664e-05 0)
(-0.00127105 -6.66065e-05 0)
(-0.00126132 -7.28067e-05 0)
(-0.00125073 -7.8963e-05 0)
(-0.00123928 -8.50718e-05 0)
(-0.00122698 -9.11289e-05 0)
(-0.00121384 -9.71306e-05 0)
(-0.00119986 -0.000103073 0)
(-0.00118506 -0.000108952 0)
(-0.00116944 -0.000114764 0)
(-0.00115301 -0.000120504 0)
(-0.00113579 -0.00012617 0)
(-0.00111778 -0.000131756 0)
(-0.00109899 -0.00013726 0)
(-0.00107944 -0.000142677 0)
(-0.00105914 -0.000148003 0)
(-0.0010381 -0.000153234 0)
(-0.00101633 -0.000158367 0)
(-0.000993856 -0.000163397 0)
(-0.000970683 -0.000168321 0)
(-0.000946828 -0.000173136 0)
(-0.000922307 -0.000177836 0)
(-0.000897136 -0.000182419 0)
(-0.000871331 -0.000186881 0)
(-0.00084491 -0.000191219 0)
(-0.00081789 -0.000195428 0)
(-0.00079029 -0.000199505 0)
(-0.000762127 -0.000203447 0)
(-0.000733421 -0.00020725 0)
(-0.000704192 -0.000210911 0)
(-0.00067446 -0.000214428 0)
(-0.000644245 -0.000217796 0)
(-0.000613568 -0.000221013 0)
(-0.00058245 -0.000224076 0)
(-0.000550913 -0.000226983 0)
(-0.00051898 -0.00022973 0)
(-0.000486672 -0.000232315 0)
(-0.000454013 -0.000234735 0)
(-0.000421026 -0.000236989 0)
(-0.000387734 -0.000239075 0)
(-0.000354161 -0.000240989 0)
(-0.000320331 -0.000242731 0)
(-0.000286269 -0.000244299 0)
(-0.000251999 -0.000245691 0)
(-0.000217544 -0.000246906 0)
(-0.000182933 -0.000247943 0)
(-0.000148187 -0.0002488 0)
(-0.000113369 -0.000249457 0)
(-7.80889e-05 -0.000249574 0)
(-4.4654e-05 -0.000244672 0)
(-9.18612e-06 -0.000190541 0)
(-9.22299e-06 0.000217025 0)
(-4.48372e-05 0.000278618 0)
(-7.84098e-05 0.000284193 0)
(-0.000113836 0.000284061 0)
(-0.000148799 0.000283317 0)
(-0.000183689 0.000282344 0)
(-0.000218444 0.000281167 0)
(-0.000253043 0.000279788 0)
(-0.000287456 0.000278208 0)
(-0.000321662 0.000276429 0)
(-0.000355635 0.000274451 0)
(-0.00038935 0.000272278 0)
(-0.000422784 0.000269911 0)
(-0.000455913 0.000267353 0)
(-0.000488712 0.000264605 0)
(-0.00052116 0.000261671 0)
(-0.000553232 0.000258552 0)
(-0.000584908 0.000255253 0)
(-0.000616163 0.000251775 0)
(-0.000646977 0.000248122 0)
(-0.000677328 0.000244298 0)
(-0.000707195 0.000240305 0)
(-0.000736558 0.000236147 0)
(-0.000765397 0.000231828 0)
(-0.000793691 0.000227351 0)
(-0.000821422 0.000222721 0)
(-0.000848572 0.00021794 0)
(-0.000875121 0.000213014 0)
(-0.000901053 0.000207945 0)
(-0.000926349 0.000202738 0)
(-0.000950995 0.000197398 0)
(-0.000974972 0.000191927 0)
(-0.000998267 0.000186332 0)
(-0.00102086 0.000180615 0)
(-0.00104275 0.000174782 0)
(-0.0010639 0.000168836 0)
(-0.00108432 0.000162782 0)
(-0.00110398 0.000156624 0)
(-0.00112288 0.000150367 0)
(-0.001141 0.000144014 0)
(-0.00115833 0.000137572 0)
(-0.00117486 0.000131043 0)
(-0.00119058 0.000124433 0)
(-0.00120549 0.000117746 0)
(-0.00121956 0.000110986 0)
(-0.0012328 0.000104157 0)
(-0.00124519 9.72652e-05 0)
(-0.00125673 9.03135e-05 0)