/*--------------------------------*- C++ -*----------------------------------*\
| =========                 |                                                 |
| \\      /  F ield         | OpenFOAM: The Open Source CFD Toolbox           |
|  \\    /   O peration     | Version:  2406                                  |
|   \\  /    A nd           | Website:  www.openfoam.com                      |
|    \\/     M anipulation  |                                                 |
\*---------------------------------------------------------------------------*/
FoamFile
{
    version     2.0;
    format      ascii;
    arch        "LSB;label=32;scalar=64";
    class       volVectorField;
    location    "21.35";
    object      U_0;
}
// * * * * * * * * * * * * * * * * * * * * * * * * * * * * * * * * * * * * * //

dimensions      [0 1 -1 0 0 0 0];

internalField   nonuniform List<vector> 
14400
(
(2.68208e-06 -2.67002e-06 0)
(2.76882e-05 -9.0411e-06 0)
(7.5375e-05 -1.43956e-05 0)
(0.00013805 -1.68377e-05 0)
(0.000205796 -1.75105e-05 0)
(0.000273384 -1.69896e-05 0)
(0.000337468 -1.58555e-05 0)
(0.000396306 -1.44535e-05 0)
(0.000449199 -1.29851e-05 0)
(0.000496041 -1.15517e-05 0)
(0.000536997 -1.01892e-05 0)
(0.000572302 -8.8916e-06 0)
(0.000602142 -7.63101e-06 0)
(0.000626588 -6.38294e-06 0)
(0.000645547 -5.14388e-06 0)
(0.000658756 -3.90066e-06 0)
(0.000665743 -2.59496e-06 0)
(0.000665935 -1.11783e-06 0)
(0.000658799 6.04439e-07 0)
(0.000643632 2.49865e-06 0)
(0.000619559 4.56468e-06 0)
(0.000585673 6.82735e-06 0)
(0.000540987 9.30828e-06 0)
(0.00048442 1.20312e-05 0)
(0.000414787 1.50238e-05 0)
(0.00033078 1.83175e-05 0)
(0.000230954 2.19477e-05 0)
(0.000113716 2.5953e-05 0)
(-2.26843e-05 3.03741e-05 0)
(-0.000180155 3.52517e-05 0)
(-0.000360758 4.0625e-05 0)
(-0.000566692 4.65295e-05 0)
(-0.000800268 5.29943e-05 0)
(-0.00106387 6.004e-05 0)
(-0.00135993 6.76764e-05 0)
(-0.00169083 7.58999e-05 0)
(-0.00205888 8.46917e-05 0)
(-0.00246622 9.40151e-05 0)
(-0.00291474 0.000103814 0)
(-0.00340599 0.00011401 0)
(-0.00394109 0.000124502 0)
(-0.0045206 0.000135165 0)
(-0.00514443 0.000145847 0)
(-0.00581177 0.000156372 0)
(-0.00652091 0.000166538 0)
(-0.00726923 0.000176121 0)
(-0.00805303 0.000184874 0)
(-0.00886755 0.000192531 0)
(-0.00970686 0.000198814 0)
(-0.0105639 0.000203434 0)
(-0.0114303 0.000206097 0)
(-0.0122967 0.000206514 0)
(-0.0131526 0.000204402 0)
(-0.0139864 0.000199499 0)
(-0.014786 0.000191568 0)
(-0.0155382 0.000180403 0)
(-0.0162294 0.000165844 0)
(-0.016846 0.000147783 0)
(-0.0173741 0.000126175 0)
(-0.0178002 0.000101006 0)
(-0.0181117 7.24173e-05 0)
(-0.0182968 4.11863e-05 0)
(-0.0183436 7.69453e-06 0)
(-0.0182431 -2.93882e-05 0)
(-0.0179895 -6.85374e-05 0)
(-0.0175773 -0.000108874 0)
(-0.0170041 -0.000149813 0)
(-0.0162705 -0.000190586 0)
(-0.0153803 -0.000230342 0)
(-0.0143403 -0.00026818 0)
(-0.0131607 -0.000303175 0)
(-0.0118548 -0.000334411 0)
(-0.0104391 -0.000361019 0)
(-0.00893315 -0.000382212 0)
(-0.00735865 -0.000397322 0)
(-0.0057395 -0.00040584 0)
(-0.00410098 -0.000407444 0)
(-0.00246914 -0.000402024 0)
(-0.000870024 -0.000389695 0)
(0.000671066 -0.000370803 0)
(0.00213035 -0.000345915 0)
(0.00348628 -0.000315796 0)
(0.00472024 -0.000281379 0)
(0.00581703 -0.000243716 0)
(0.00676531 -0.000203935 0)
(0.00755783 -0.000163177 0)
(0.00819148 -0.00012255 0)
(0.00866718 -8.30749e-05 0)
(0.00898962 -4.56211e-05 0)
(0.00916701 -1.0887e-05 0)
(0.00921076 2.00777e-05 0)
(0.00913257 4.61043e-05 0)
(0.00894694 6.87639e-05 0)
(0.00867085 8.79459e-05 0)
(0.00831984 0.000103052 0)
(0.00790923 0.000114244 0)
(0.0074539 0.000121877 0)
(0.00696768 0.000126327 0)
(0.00646298 0.000128006 0)
(0.00595072 0.000127345 0)
(0.00544014 0.000124769 0)
(0.00493886 0.000120688 0)
(0.00445291 0.000115482 0)
(0.00398683 0.000109499 0)
(0.00354375 0.000103046 0)
(0.00312561 9.63921e-05 0)
(0.00273328 8.97649e-05 0)
(0.00236674 8.33462e-05 0)
(0.00202527 7.72665e-05 0)
(0.00170773 7.15944e-05 0)
(0.00141281 6.63195e-05 0)
(0.0011394 6.13315e-05 0)
(0.000887057 5.63942e-05 0)
(0.000656491 5.11234e-05 0)
(0.00045015 4.49726e-05 0)
(0.000272694 3.72776e-05 0)
(0.000131168 2.73813e-05 0)
(3.40735e-05 1.50372e-05 0)
(-1.16599e-05 1.28787e-06 0)
(-7.92853e-06 -7.94283e-06 0)
(9.12547e-06 -2.77404e-05 0)
(7.92244e-05 -7.89184e-05 0)
(0.000190188 -0.000115686 0)
(0.000329656 -0.000133577 0)
(0.000477574 -0.000137777 0)
(0.000623617 -0.00013316 0)
(0.000760559 -0.000123505 0)
(0.000884287 -0.000111389 0)
(0.00099283 -9.84082e-05 0)
(0.00108551 -8.54144e-05 0)
(0.0011623 -7.27454e-05 0)
(0.00122332 -6.04031e-05 0)
(0.00126862 -4.81901e-05 0)
(0.0012979 -3.58158e-05 0)
(0.00131053 -2.29775e-05 0)
(0.00130552 -9.36057e-06 0)
(0.00128142 5.31917e-06 0)
(0.00123641 2.14407e-05 0)
(0.00116835 3.92765e-05 0)
(0.00107479 5.89647e-05 0)
(0.000953093 8.06795e-05 0)
(0.000800311 0.000104609 0)
(0.00061324 0.000130956 0)
(0.000388397 0.000159942 0)
(0.000122007 0.000191816 0)
(-0.000190027 0.000226854 0)
(-0.00055214 0.000265355 0)
(-0.000969113 0.000307634 0)
(-0.00144607 0.00035401 0)
(-0.00198847 0.000404787 0)
(-0.00260202 0.000460237 0)
(-0.00329264 0.000520578 0)
(-0.00406636 0.000585953 0)
(-0.00492916 0.000656407 0)
(-0.00588683 0.000731862 0)
(-0.00694481 0.000812099 0)
(-0.00810791 0.000896735 0)
(-0.00938016 0.000985207 0)
(-0.0107645 0.00107675 0)
(-0.0122626 0.00117041 0)
(-0.0138744 0.00126498 0)
(-0.0155981 0.00135906 0)
(-0.0174299 0.00145103 0)
(-0.0193634 0.00153906 0)
(-0.02139 0.00162113 0)
(-0.0234983 0.00169507 0)
(-0.0256741 0.00175859 0)
(-0.0279006 0.00180931 0)
(-0.0301582 0.00184482 0)
(-0.0324247 0.00186276 0)
(-0.0346756 0.00186085 0)
(-0.0368842 0.00183695 0)
(-0.039022 0.00178917 0)
(-0.0410594 0.00171591 0)
(-0.0429657 0.00161588 0)
(-0.0447098 0.00148826 0)
(-0.0462609 0.00133265 0)
(-0.0475891 0.0011492 0)
(-0.0486655 0.000938585 0)
(-0.0494636 0.000702103 0)
(-0.049959 0.000441691 0)
(-0.0501308 0.000160293 0)
(-0.0499624 -0.000138577 0)
(-0.0494397 -0.000452724 0)
(-0.0485539 -0.000776966 0)
(-0.0473022 -0.00110628 0)
(-0.0456862 -0.00143524 0)
(-0.0437137 -0.00175803 0)
(-0.0413979 -0.0020686 0)
(-0.038758 -0.00236073 0)
(-0.0358192 -0.00262827 0)
(-0.0326121 -0.00286522 0)
(-0.0291727 -0.00306599 0)
(-0.0255419 -0.00322561 0)
(-0.0217646 -0.00333984 0)
(-0.0178894 -0.00340547 0)
(-0.0139671 -0.00342043 0)
(-0.0100503 -0.00338391 0)
(-0.00619144 -0.0032965 0)
(-0.00244244 -0.00316021 0)
(0.00114717 -0.00297845 0)
(0.00453125 -0.00275592 0)
(0.00766832 -0.0024985 0)
(0.0105226 -0.00221304 0)
(0.0130648 -0.00190704 0)
(0.0152732 -0.00158843 0)
(0.0171337 -0.0012652 0)
(0.0186402 -0.000945105 0)
(0.0197944 -0.000635364 0)
(0.0206054 -0.000342431 0)
(0.0210888 -7.19917e-05 0)
(0.0212669 0.000171205 0)
(0.0211672 0.000385811 0)
(0.0208194 0.00056979 0)
(0.0202559 0.000722022 0)
(0.019511 0.000842948 0)
(0.0186187 0.000934 0)
(0.017612 0.000997337 0)
(0.0165218 0.00103566 0)
(0.0153767 0.00105204 0)
(0.0142021 0.00104971 0)
(0.0130199 0.00103195 0)
(0.0118485 0.00100196 0)
(0.0107029 0.000962749 0)
(0.00959469 0.000917097 0)
(0.00853216 0.000867473 0)
(0.00752092 0.00081601 0)
(0.00656411 0.000764447 0)
(0.00566294 0.000714065 0)
(0.00481725 0.000665587 0)
(0.00402626 0.00061906 0)
(0.00328939 0.000573702 0)
(0.00260727 0.000527754 0)
(0.00198277 0.000478386 0)
(0.00142209 0.000421737 0)
(0.000935407 0.000353369 0)
(0.000536853 0.000269447 0)
(0.000241553 0.000169561 0)
(6.49399e-05 6.21938e-05 0)
(1.8423e-06 -1.11465e-05 0)
(1.4578e-05 -7.57943e-05 0)
(0.000116385 -0.000190039 0)
(0.000264313 -0.000263771 0)
(0.000444159 -0.000298731 0)
(0.000630611 -0.000305083 0)
(0.000811496 -0.000292417 0)
(0.000977746 -0.000268385 0)
(0.00112392 -0.000238404 0)
(0.00124713 -0.000205932 0)
(0.00134606 -0.000172878 0)
(0.00142019 -0.000140026 0)
(0.00146918 -0.000107397 0)
(0.00149252 -7.45319e-05 0)
(0.00148924 -4.07027e-05 0)
(0.00145784 -5.05939e-06 0)
(0.00139616 3.3222e-05 0)
(0.00130153 7.48811e-05 0)
(0.00117064 0.000120643 0)
(0.000999601 0.000171128 0)
(0.000784076 0.000226948 0)
(0.000519287 0.000288647 0)
(0.0002 0.00035676 0)
(-0.000179463 0.000431839 0)
(-0.000625233 0.000514473 0)
(-0.0011439 0.000605298 0)
(-0.00174255 0.000704991 0)
(-0.00242872 0.000814262 0)
(-0.00321042 0.000933821 0)
(-0.00409607 0.00106435 0)
(-0.00509442 0.00120645 0)
(-0.00621442 0.0013606 0)
(-0.00746508 0.00152709 0)
(-0.00885524 0.00170596 0)
(-0.0103933 0.00189695 0)
(-0.012087 0.00209943 0)
(-0.0139428 0.00231237 0)
(-0.0159661 0.00253428 0)
(-0.0181602 0.00276316 0)
(-0.0205262 0.00299648 0)
(-0.0230627 0.00323121 0)
(-0.0257652 0.00346376 0)
(-0.0286259 0.00369002 0)
(-0.0316335 0.00390543 0)
(-0.0347728 0.00410502 0)
(-0.0380247 0.00428351 0)
(-0.0413661 0.00443539 0)
(-0.0447702 0.00455507 0)
(-0.0482065 0.004637 0)
(-0.0516413 0.00467584 0)
(-0.0550381 0.00466657 0)
(-0.0583581 0.00460468 0)
(-0.0615608 0.00448633 0)
(-0.0646047 0.00430839 0)
(-0.0674483 0.00406868 0)
(-0.0700503 0.00376598 0)
(-0.0723707 0.00340012 0)
(-0.0743713 0.0029721 0)
(-0.0760167 0.00248404 0)
(-0.0772744 0.00193928 0)
(-0.078116 0.00134234 0)
(-0.0785168 0.00069885 0)
(-0.0784569 1.54791e-05 0)
(-0.0779223 -0.000699759 0)
(-0.076904 -0.00143748 0)
(-0.0753977 -0.00218839 0)
(-0.073406 -0.00294186 0)
(-0.0709374 -0.00368655 0)
(-0.0680065 -0.00441062 0)
(-0.0646342 -0.00510196 0)
(-0.0608473 -0.00574838 0)
(-0.056679 -0.0063379 0)
(-0.0521682 -0.00685902 0)
(-0.0473592 -0.00730102 0)
(-0.0423015 -0.00765433 0)
(-0.037049 -0.00791084 0)
(-0.0316595 -0.00806422 0)
(-0.0261938 -0.00811022 0)
(-0.0207144 -0.00804694 0)
(-0.0152848 -0.00787501 0)
(-0.00996837 -0.0075977 0)
(-0.00482664 -0.00722092 0)
(8.16619e-05 -0.00675317 0)
(0.00470201 -0.00620531 0)
(0.00898535 -0.00559026 0)
(0.0128892 -0.00492258 0)
(0.0163788 -0.00421801 0)
(0.0194277 -0.00349289 0)
(0.0220186 -0.00276359 0)
(0.0241433 -0.00204593 0)
(0.025803 -0.00135459 0)
(0.027008 -0.00070248 0)
(0.0277773 -0.0001001 0)
(0.0281373 0.000443438 0)
(0.0281196 0.000921655 0)
(0.0277619 0.00133121 0)
(0.0271058 0.00167096 0)
(0.0261943 0.00194194 0)
(0.0250713 0.00214712 0)
(0.0237799 0.00229111 0)
(0.0223615 0.00237969 0)
(0.0208542 0.0024195 0)
(0.0192927 0.00241763 0)
(0.0177073 0.00238128 0)
(0.0161239 0.00231755 0)
(0.0145638 0.00223313 0)
(0.0130437 0.00213419 0)
(0.0115764 0.00202614 0)
(0.0101708 0.00191353 0)
(0.00883266 0.00179979 0)
(0.00756557 0.00168704 0)
(0.00637175 0.0015758 0)
(0.00525323 0.00146469 0)
(0.00421309 0.00135018 0)
(0.00325681 0.00122653 0)
(0.00239343 0.00108604 0)
(0.00163627 0.000920149 0)
(0.00100266 0.000721928 0)
(0.000509596 0.000491108 0)
(0.000182478 0.000242716 0)
(1.70552e-05 3.86853e-05 0)
(1.70727e-05 -0.000139 0)
(0.000133827 -0.00032926 0)
(0.00029698 -0.000442896 0)
(0.000489961 -0.000493479 0)
(0.000684203 -0.000498019 0)
(0.000866921 -0.000471697 0)
(0.0010285 -0.000426514 0)
(0.00116307 -0.000371052 0)
(0.00126731 -0.000310837 0)
(0.00133945 -0.000248939 0)
(0.0013784 -0.000186588 0)
(0.00138317 -0.000123736 0)
(0.00135243 -5.952e-05 0)
(0.00128422 7.38088e-06 0)
(0.00117583 7.85091e-05 0)
(0.00102371 0.000155416 0)
(0.000823543 0.000239603 0)
(0.000570237 0.000332404 0)
(0.000257929 0.000435065 0)
(-0.000119915 0.000548746 0)
(-0.000570472 0.00067454 0)
(-0.00110155 0.000813518 0)
(-0.00172156 0.000966768 0)
(-0.00243953 0.00113542 0)
(-0.0032651 0.00132065 0)
(-0.00420847 0.00152367 0)
(-0.00528039 0.00174569 0)
(-0.00649209 0.00198787 0)
(-0.0078551 0.00225124 0)
(-0.00938115 0.00253659 0)
(-0.0110819 0.0028444 0)
(-0.0129686 0.0031747 0)
(-0.0150518 0.00352697 0)
(-0.017341 0.00390003 0)
(-0.0198439 0.00429193 0)
(-0.0225663 0.00469987 0)
(-0.0255113 0.00512015 0)
(-0.0286788 0.00554808 0)
(-0.032065 0.00597802 0)
(-0.0356622 0.00640334 0)
(-0.0394581 0.00681656 0)
(-0.0434356 0.00720936 0)
(-0.0475728 0.00757278 0)
(-0.051843 0.0078974 0)
(-0.0562145 0.00817352 0)
(-0.0606515 0.00839144 0)
(-0.0651141 0.00854168 0)
(-0.0695591 0.00861531 0)
(-0.0739408 0.00860416 0)
(-0.0782116 0.00850109 0)
(-0.0823233 0.00830022 0)
(-0.0862273 0.00799709 0)
(-0.0898761 0.00758884 0)
(-0.0932237 0.00707426 0)
(-0.0962265 0.00645392 0)
(-0.098844 0.00573013 0)
(-0.101039 0.00490698 0)
(-0.102779 0.00399026 0)
(-0.104034 0.00298744 0)
(-0.104782 0.00190761 0)
(-0.105002 0.000761349 0)
(-0.10468 -0.000439466 0)
(-0.103807 -0.00168177 0)
(-0.10238 -0.00295059 0)
(-0.100399 -0.00423042 0)
(-0.0978713 -0.0055048 0)
(-0.0948095 -0.00675647 0)
(-0.0912311 -0.00796763 0)
(-0.0871595 -0.00912014 0)
(-0.0826236 -0.0101959 0)
(-0.077658 -0.011177 0)
(-0.0723028 -0.0120464 0)
(-0.0666031 -0.0127881 0)
(-0.0606094 -0.0133876 0)
(-0.0543766 -0.0138326 0)
(-0.0479639 -0.014113 0)
(-0.041434 -0.0142219 0)
(-0.0348521 -0.0141556 0)
(-0.0282853 -0.0139139 0)
(-0.0218013 -0.0135007 0)
(-0.0154673 -0.0129235 0)
(-0.0093489 -0.012194 0)
(-0.00350841 -0.0113275 0)
(0.00199607 -0.0103424 0)
(0.00711208 -0.00926013 0)
(0.0117939 -0.00810435 0)
(0.0160037 -0.00690006 0)
(0.0197122 -0.00567291 0)
(0.0228995 -0.00444835 0)
(0.0255555 -0.00325071 0)
(0.0276797 -0.00210239 0)
(0.0292814 -0.00102321 0)
(0.0303789 -3.02563e-05 0)
(0.0309987 0.000863534 0)
(0.0311751 0.00164915 0)
(0.0309479 0.0023213 0)
(0.0303616 0.00287848 0)
(0.0294639 0.00332268 0)
(0.0283034 0.00365899 0)
(0.026929 0.00389504 0)
(0.0253878 0.00404038 0)
(0.0237241 0.00410592 0)
(0.0219786 0.00410333 0)
(0.0201873 0.00404451 0)
(0.0183815 0.0039411 0)
(0.0165873 0.00380406 0)
(0.0148258 0.00364332 0)
(0.0131135 0.00346737 0)
(0.0114628 0.00328287 0)
(0.00988289 0.00309423 0)
(0.00838091 0.00290313 0)
(0.00696291 0.00270803 0)
(0.0056355 0.00250388 0)
(0.00440708 0.00228207 0)
(0.00328932 0.00203099 0)
(0.00229792 0.0017378 0)
(0.00145282 0.00139199 0)
(0.000773359 0.000991915 0)
(0.000299089 0.000554775 0)
(3.189e-05 0.000147109 0)
(1.76078e-05 -0.000206861 0)
(0.000135567 -0.000474567 0)
(0.000295505 -0.000624371 0)
(0.000478898 -0.000684444 0)
(0.00065589 -0.000680346 0)
(0.000813699 -0.000633437 0)
(0.00094291 -0.000560166 0)
(0.0010378 -0.000472169 0)
(0.00109499 -0.000376879 0)
(0.0011124 -0.000278338 0)
(0.00108838 -0.000178032 0)
(0.00102113 -7.56516e-05 0)
(0.000908228 3.02745e-05 0)
(0.000746446 0.000141872 0)
(0.000531553 0.000261562 0)
(0.000258284 0.00039183 0)
(-7.96254e-05 0.00053507 0)
(-0.000489416 0.000693494 0)
(-0.000979261 0.000869148 0)
(-0.0015582 0.00106394 0)
(-0.00223611 0.00127969 0)
(-0.00302365 0.00151816 0)
(-0.00393223 0.00178113 0)
(-0.00497402 0.00207039 0)
(-0.00616185 0.00238775 0)
(-0.00750915 0.002735 0)
(-0.00902987 0.00311383 0)
(-0.0107383 0.00352572 0)
(-0.0126486 0.00397183 0)
(-0.0147752 0.00445282 0)
(-0.0171313 0.00496867 0)
(-0.0197295 0.00551853 0)
(-0.0225805 0.0061005 0)
(-0.025693 0.00671152 0)
(-0.0290728 0.00734716 0)
(-0.032722 0.00800158 0)
(-0.0366388 0.00866745 0)
(-0.0408169 0.00933592 0)
(-0.0452443 0.0099967 0)
(-0.049904 0.0106382 0)
(-0.0547731 0.0112476 0)
(-0.0598227 0.0118113 0)
(-0.0650188 0.012315 0)
(-0.070322 0.0127445 0)
(-0.0756883 0.0130853 0)
(-0.0810703 0.013324 0)
(-0.0864175 0.0134479 0)
(-0.0916776 0.0134459 0)
(-0.0967975 0.0133083 0)
(-0.101725 0.0130279 0)
(-0.106407 0.0125991 0)
(-0.110796 0.0120191 0)
(-0.114844 0.0112873 0)
(-0.118507 0.0104052 0)
(-0.121747 0.00937706 0)
(-0.124528 0.00820897 0)
(-0.126819 0.00690924 0)
(-0.128593 0.0054881 0)
(-0.129826 0.00395756 0)
(-0.130502 0.00233135 0)
(-0.130606 0.000624715 0)
(-0.130127 -0.00114564 0)
(-0.129062 -0.00296169 0)
(-0.127407 -0.00480415 0)
(-0.125167 -0.00665255 0)
(-0.122348 -0.00848542 0)
(-0.118961 -0.0102805 0)
(-0.115025 -0.0120149 0)
(-0.110558 -0.0136651 0)
(-0.105589 -0.0152079 0)
(-0.100148 -0.0166201 0)
(-0.0942722 -0.0178791 0)
(-0.0880036 -0.0189639 0)
(-0.0813899 -0.0198549 0)
(-0.0744834 -0.0205352 0)
(-0.0673418 -0.0209906 0)
(-0.0600266 -0.0212106 0)
(-0.0526032 -0.0211887 0)
(-0.0451399 -0.0209232 0)
(-0.0377067 -0.020417 0)
(-0.0303744 -0.0196783 0)
(-0.0232133 -0.0187204 0)
(-0.0162919 -0.0175617 0)
(-0.00967539 -0.0162251 0)
(-0.0034246 -0.0147376 0)
(0.00240545 -0.0131296 0)
(0.00776667 -0.0114339 0)
(0.0126189 -0.00968499 0)
(0.0169308 -0.00791757 0)
(0.0206804 -0.00616576 0)
(0.0238557 -0.00446195 0)
(0.0264543 -0.00283584 0)
(0.0284841 -0.00131343 0)
(0.029962 8.37636e-05 0)
(0.0309141 0.00133886 0)
(0.0313739 0.0024402 0)
(0.0313819 0.00338138 0)
(0.0309834 0.00416105 0)
(0.0302277 0.00478258 0)
(0.0291661 0.00525341 0)
(0.0278501 0.00558444 0)
(0.0263304 0.0057892 0)
(0.0246551 0.00588303 0)
(0.0228689 0.00588232 0)
(0.0210117 0.00580367 0)
(0.019119 0.00566324 0)
(0.0172206 0.00547604 0)
(0.0153415 0.00525527 0)
(0.0135019 0.00501167 0)
(0.0117179 0.00475278 0)
(0.0100028 0.00448229 0)
(0.00836789 0.00419934 0)
(0.00682424 0.0038981 0)
(0.00538389 0.00356774 0)
(0.00406152 0.00319325 0)
(0.00287562 0.00275757 0)
(0.00184946 0.00224566 0)
(0.00100629 0.00165141 0)
(0.00040131 0.000987188 0)
(4.46022e-05 0.00030968 0)
(1.66169e-05 -0.000272991 0)
(0.000125325 -0.000612288 0)
(0.000266807 -0.000790669 0)
(0.000421531 -0.000851648 0)
(0.000560235 -0.000830339 0)
(0.00067071 -0.000754708 0)
(0.000744278 -0.000645655 0)
(0.000775751 -0.000517655 0)
(0.000761941 -0.000379738 0)
(0.000700552 -0.000236585 0)
(0.00058933 -8.96184e-05 0)
(0.000425483 6.20325e-05 0)
(0.000205308 0.000220717 0)
(-7.60301e-05 0.000389623 0)
(-0.000424607 0.000572306 0)
(-0.000847761 0.000772381 0)
(-0.00135405 0.000993334 0)
(-0.00195321 0.00123843 0)
(-0.00265609 0.0015107 0)
(-0.00347455 0.00181299 0)
(-0.00442148 0.002148 0)
(-0.00551066 0.00251835 0)
(-0.00675674 0.00292659 0)
(-0.00817516 0.00337527 0)
(-0.00978205 0.00386682 0)
(-0.011594 0.00440355 0)
(-0.013628 0.00498743 0)
(-0.0159009 0.00562 0)
(-0.0184291 0.0063021 0)
(-0.0212284 0.00703363 0)
(-0.0243127 0.0078133 0)
(-0.0276941 0.0086384 0)
(-0.0313817 0.00950449 0)
(-0.035381 0.0104053 0)
(-0.0396931 0.0113325 0)
(-0.0443141 0.0122756 0)
(-0.0492343 0.0132221 0)
(-0.0544379 0.0141574 0)
(-0.0599026 0.0150654 0)
(-0.0655996 0.0159281 0)
(-0.0714938 0.0167269 0)
(-0.0775441 0.0174422 0)
(-0.0837044 0.0180547 0)
(-0.0899242 0.0185454 0)
(-0.0961499 0.0188968 0)
(-0.102326 0.0190927 0)
(-0.108396 0.0191193 0)
(-0.114304 0.0189651 0)
(-0.119997 0.0186215 0)
(-0.125421 0.018083 0)
(-0.130529 0.0173468 0)
(-0.135276 0.0164133 0)
(-0.139619 0.0152856 0)
(-0.143524 0.0139695 0)
(-0.146957 0.0124731 0)
(-0.149888 0.010807 0)
(-0.152295 0.00898342 0)
(-0.154155 0.00701673 0)
(-0.15545 0.00492281 0)
(-0.156167 0.00271909 0)
(-0.156294 0.00042446 0)
(-0.155821 -0.00194081 0)
(-0.154745 -0.00435506 0)
(-0.153061 -0.0067954 0)
(-0.150771 -0.00923761 0)
(-0.14788 -0.0116563 0)
(-0.144394 -0.0140251 0)
(-0.140326 -0.0163165 0)
(-0.135692 -0.0185025 0)
(-0.130512 -0.0205547 0)
(-0.124814 -0.0224446 0)
(-0.118628 -0.0241445 0)
(-0.111991 -0.0256275 0)
(-0.104947 -0.0268688 0)
(-0.0975439 -0.0278457 0)
(-0.0898371 -0.0285393 0)
(-0.0818864 -0.0289344 0)
(-0.0737566 -0.0290206 0)
(-0.0655168 -0.0287932 0)
(-0.057239 -0.0282532 0)
(-0.0489977 -0.027408 0)
(-0.0408678 -0.0262716 0)
(-0.0329238 -0.024864 0)
(-0.0252381 -0.0232116 0)
(-0.0178793 -0.0213461 0)
(-0.0109114 -0.0193038 0)
(-0.0043919 -0.0171247 0)
(0.00162887 -0.0148512 0)
(0.00710909 -0.012527 0)
(0.012016 -0.0101958 0)
(0.0163264 -0.00789981 0)
(0.0200272 -0.00567862 0)
(0.0231153 -0.00356814 0)
(0.0255974 -0.00159951 0)
(0.0274897 0.000201592 0)
(0.0288176 0.00181557 0)
(0.0296141 0.00322921 0)
(0.0299195 0.00443573 0)
(0.0297793 0.00543454 0)
(0.0292434 0.00623078 0)
(0.0283642 0.00683465 0)
(0.0271949 0.00726052 0)
(0.0257881 0.00752598 0)
(0.0241944 0.00765082 0)
(0.0224611 0.00765597 0)
(0.0206313 0.00756249 0)
(0.0187433 0.00739053 0)
(0.0168304 0.00715834 0)
(0.0149209 0.00688129 0)
(0.0130386 0.00657081 0)
(0.0112036 0.0062334 0)
(0.0094335 0.00586976 0)
(0.00774458 0.00547413 0)
(0.00615336 0.00503425 0)
(0.00467835 0.00453217 0)
(0.0033417 0.00394644 0)
(0.00217108 0.00325621 0)
(0.00119489 0.00244764 0)
(0.000483287 0.00152226 0)
(5.46073e-05 0.000517323 0)
(1.45524e-05 -0.000332347 0)
(0.000105887 -0.000730651 0)
(0.000216322 -0.000925791 0)
(0.000326186 -0.000976493 0)
(0.000408541 -0.00092776 0)
(0.000452365 -0.000814237 0)
(0.000450196 -0.000661091 0)
(0.000397685 -0.000485268 0)
(0.000291976 -0.000296938 0)
(0.000130579 -0.000100962 0)
(-8.94708e-05 0.00010174 0)
(-0.00037213 0.00031299 0)
(-0.000722669 0.000536358 0)
(-0.00114784 0.000776384 0)
(-0.00165591 0.00103801 0)
(-0.00225668 0.00132622 0)
(-0.00296137 0.0016458 0)
(-0.00378256 0.00200123 0)
(-0.00473411 0.00239672 0)
(-0.00583107 0.00283618 0)
(-0.00708956 0.00332333 0)
(-0.00852675 0.00386171 0)
(-0.0101607 0.00445473 0)
(-0.0120101 0.00510563 0)
(-0.0140943 0.00581737 0)
(-0.0164329 0.00659251 0)
(-0.0190452 0.00743298 0)
(-0.0219502 0.00833979 0)
(-0.0251653 0.00931273 0)
(-0.0287064 0.01035 0)
(-0.0325864 0.011448 0)
(-0.0368148 0.0126007 0)
(-0.0413968 0.0137997 0)
(-0.046332 0.0150339 0)
(-0.0516143 0.0162894 0)
(-0.0572308 0.0175496 0)
(-0.0631614 0.0187952 0)
(-0.0693789 0.0200049 0)
(-0.0758489 0.0211556 0)
(-0.0825302 0.0222229 0)
(-0.0893758 0.0231819 0)
(-0.0963338 0.0240084 0)
(-0.103349 0.0246788 0)
(-0.110362 0.0251715 0)
(-0.117316 0.0254674 0)
(-0.124151 0.0255502 0)
(-0.130812 0.0254073 0)
(-0.137244 0.0250294 0)
(-0.143397 0.0244109 0)
(-0.149225 0.0235498 0)
(-0.154685 0.0224474 0)
(-0.15974 0.0211084 0)
(-0.164357 0.0195399 0)
(-0.168505 0.0177519 0)
(-0.172158 0.0157564 0)
(-0.175293 0.0135672 0)
(-0.17789 0.0112 0)
(-0.17993 0.00867193 0)
(-0.181399 0.00600162 0)
(-0.182282 0.00320898 0)
(-0.182569 0.000315331 0)
(-0.182248 -0.00265665 0)
(-0.181313 -0.00568287 0)
(-0.179758 -0.00873776 0)
(-0.177579 -0.0117943 0)
(-0.174776 -0.0148238 0)
(-0.171351 -0.0177964 0)
(-0.16731 -0.0206806 0)
(-0.162664 -0.0234441 0)
(-0.157425 -0.0260535 0)
(-0.151615 -0.0284751 0)
(-0.145258 -0.0306753 0)
(-0.138385 -0.0326214 0)
(-0.131034 -0.0342822 0)
(-0.123248 -0.0356289 0)
(-0.115079 -0.0366363 0)
(-0.106585 -0.0372835 0)
(-0.0978276 -0.0375549 0)
(-0.088878 -0.0374412 0)
(-0.0798102 -0.0369401 0)
(-0.0707019 -0.0360568 0)
(-0.0616335 -0.0348044 0)
(-0.0526861 -0.0332039 0)
(-0.0439397 -0.0312838 0)
(-0.035472 -0.0290796 0)
(-0.0273562 -0.0266331 0)
(-0.01966 -0.0239907 0)
(-0.0124437 -0.0212028 0)
(-0.00575949 -0.0183217 0)
(0.000349549 -0.0154003 0)
(0.00585014 -0.0124908 0)
(0.0107191 -0.00964281 0)
(0.0149434 -0.00690239 0)
(0.0185204 -0.00431058 0)
(0.0214572 -0.00190254 0)
(0.0237702 0.000293254 0)
(0.0254851 0.00225557 0)
(0.026635 0.00397067 0)
(0.0272603 0.00543228 0)
(0.027407 0.0066413 0)
(0.0271253 0.00760523 0)
(0.0264683 0.00833735 0)
(0.0254902 0.00885574 0)
(0.024245 0.00918205 0)
(0.0227848 0.00934033 0)
(0.0211589 0.00935568 0)
(0.0194126 0.00925291 0)
(0.0175867 0.00905519 0)
(0.0157173 0.00878269 0)
(0.0138358 0.00845114 0)
(0.0119697 0.00807052 0)
(0.0101431 0.00764383 0)
(0.00837832 0.00716621 0)
(0.00669706 0.00662467 0)
(0.00512259 0.00599871 0)
(0.00368165 0.00526233 0)
(0.00240709 0.00438761 0)
(0.00133317 0.00335032 0)
(0.000542862 0.00213685 0)
(6.17563e-05 0.000759267 0)
(1.16511e-05 -0.000381065 0)
(7.90641e-05 -0.000820056 0)
(0.000147825 -0.00101621 0)
(0.00019885 -0.00104295 0)
(0.000209049 -0.00095503 0)
(0.000169223 -0.000793494 0)
(7.35771e-05 -0.00058735 0)
(-8.11537e-05 -0.000355474 0)
(-0.00029741 -0.000108585 0)
(-0.000577935 0.000148862 0)
(-0.000926554 0.000416986 0)
(-0.00134864 0.000699032 0)
(-0.00185132 0.00100019 0)
(-0.00244363 0.00132667 0)
(-0.00313639 0.00168511 0)
(-0.00394224 0.00208206 0)
(-0.00487544 0.00252381 0)
(-0.00595177 0.00301626 0)
(-0.00718844 0.00356487 0)
(-0.00860391 0.00417477 0)
(-0.0102178 0.00485074 0)
(-0.0120508 0.00559728 0)
(-0.0141243 0.00641856 0)
(-0.0164602 0.00731836 0)
(-0.0190808 0.00829986 0)
(-0.022008 0.00936545 0)
(-0.0252629 0.0105163 0)
(-0.0288651 0.0117522 0)
(-0.0328319 0.0130706 0)
(-0.0371772 0.0144669 0)
(-0.0419109 0.0159336 0)
(-0.0470377 0.0174598 0)
(-0.0525558 0.0190315 0)
(-0.0584568 0.0206309 0)
(-0.0647245 0.0222372 0)
(-0.0713349 0.023826 0)
(-0.078256 0.0253707 0)
(-0.0854481 0.0268424 0)
(-0.0928649 0.0282111 0)
(-0.100454 0.0294467 0)
(-0.108159 0.0305196 0)
(-0.11592 0.0314021 0)
(-0.123676 0.0320691 0)
(-0.131366 0.0324984 0)
(-0.138933 0.0326723 0)
(-0.146319 0.0325767 0)
(-0.153472 0.0322021 0)
(-0.160344 0.0315433 0)
(-0.166892 0.0305989 0)
(-0.173077 0.0293714 0)
(-0.178862 0.0278665 0)
(-0.184219 0.0260927 0)
(-0.189118 0.024061 0)
(-0.193536 0.0217844 0)
(-0.197451 0.0192779 0)
(-0.200843 0.0165577 0)
(-0.203693 0.0136416 0)
(-0.205986 0.0105485 0)
(-0.207706 0.00729863 0)
(-0.20884 0.0039134 0)
(-0.209374 0.000415619 0)
(-0.209298 -0.00317049 0)
(-0.208599 -0.00681918 0)
(-0.207271 -0.010503 0)
(-0.205304 -0.0141928 0)
(-0.202695 -0.0178573 0)
(-0.199439 -0.0214637 0)
(-0.195537 -0.0249771 0)
(-0.190992 -0.0283609 0)
(-0.185812 -0.0315774 0)
(-0.180007 -0.0345875 0)
(-0.173596 -0.0373519 0)
(-0.166602 -0.0398314 0)
(-0.159056 -0.0419881 0)
(-0.150994 -0.043786 0)
(-0.142461 -0.0451925 0)
(-0.133512 -0.0461796 0)
(-0.124207 -0.0467248 0)
(-0.114614 -0.0468127 0)
(-0.104809 -0.0464357 0)
(-0.0948735 -0.0455951 0)
(-0.0848922 -0.0443013 0)
(-0.0749537 -0.0425747 0)
(-0.065147 -0.0404448 0)
(-0.0555598 -0.0379502 0)
(-0.0462767 -0.035137 0)
(-0.0373769 -0.0320583 0)
(-0.0289325 -0.0287721 0)
(-0.0210073 -0.0253395 0)
(-0.0136554 -0.0218233 0)
(-0.00692034 -0.0182856 0)
(-0.000835188 -0.0147868 0)
(0.00457807 -0.0113831 0)
(0.00930815 -0.00812605 0)
(0.0133542 -0.00506062 0)
(0.0167252 -0.00222468 0)
(0.0194397 0.00035181 0)
(0.0215245 0.00264725 0)
(0.0230142 0.00464853 0)
(0.0239503 0.0063509 0)
(0.0243795 0.0077576 0)
(0.0243529 0.00887909 0)
(0.0239243 0.00973215 0)
(0.0231489 0.0103387 0)
(0.0220815 0.0107244 0)
(0.0207756 0.0109171 0)
(0.019282 0.0109455 0)
(0.0176476 0.010837 0)
(0.0159154 0.0106163 0)
(0.014124 0.0103036 0)
(0.0123079 0.00991272 0)
(0.010498 0.0094494 0)
(0.00872306 0.00891033 0)
(0.00701054 0.00828235 0)
(0.00538917 0.00754277 0)
(0.00389097 0.00666086 0)
(0.00255442 0.00560082 0)
(0.00141972 0.00432631 0)
(0.000579825 0.0028061 0)
(6.60965e-05 0.0010244 0)
(8.07209e-06 -0.000416055 0)
(4.59474e-05 -0.000872353 0)
(6.37124e-05 -0.00105019 0)
(4.35195e-05 -0.00103694 0)
(-3.25589e-05 -0.000896566 0)
(-0.000171287 -0.000675984 0)
(-0.000376382 -0.00040735 0)
(-0.000649824 -0.000110731 0)
(-0.00099362 0.000203349 0)
(-0.00141088 0.00053154 0)
(-0.00190651 0.000875628 0)
(-0.00248759 0.00124082 0)
(-0.00316348 0.00163436 0)
(-0.00394581 0.00206452 0)
(-0.00484839 0.00253988 0)
(-0.00588706 0.00306881 0)
(-0.00707945 0.00365928 0)
(-0.0084449 0.0043187 0)
(-0.0100042 0.00505394 0)
(-0.0117795 0.00587133 0)
(-0.0137939 0.00677671 0)
(-0.0160716 0.00777542 0)
(-0.0186373 0.00887218 0)
(-0.0215156 0.0100709 0)
(-0.0247311 0.0113746 0)
(-0.0283072 0.0127846 0)
(-0.0322655 0.0143005 0)
(-0.0366247 0.0159194 0)
(-0.0413999 0.0176354 0)
(-0.0466013 0.0194393 0)
(-0.052233 0.0213179 0)
(-0.0582921 0.0232538 0)
(-0.0647679 0.0252254 0)
(-0.0716412 0.0272073 0)
(-0.0788842 0.0291698 0)
(-0.0864603 0.0310808 0)
(-0.0943253 0.0329055 0)
(-0.102428 0.0346084 0)
(-0.110712 0.0361537 0)
(-0.119116 0.0375071 0)
(-0.127577 0.0386366 0)
(-0.136034 0.0395136 0)
(-0.144423 0.0401139 0)
(-0.152686 0.0404176 0)
(-0.160768 0.0404101 0)
(-0.168618 0.0400816 0)
(-0.17619 0.0394272 0)
(-0.183442 0.0384461 0)
(-0.190337 0.0371416 0)
(-0.196844 0.0355204 0)
(-0.202932 0.0335919 0)
(-0.208576 0.0313679 0)
(-0.213752 0.0288623 0)
(-0.218441 0.0260905 0)
(-0.222622 0.0230692 0)
(-0.226279 0.0198164 0)
(-0.229395 0.0163511 0)
(-0.231955 0.0126934 0)
(-0.233945 0.00886459 0)
(-0.235351 0.00488688 0)
(-0.23616 0.000783965 0)
(-0.236361 -0.00341905 0)
(-0.235941 -0.00769543 0)
(-0.234889 -0.0120166 0)
(-0.233195 -0.0163519 0)
(-0.23085 -0.0206685 0)
(-0.227846 -0.0249314 0)
(-0.224176 -0.029103 0)
(-0.219837 -0.0331436 0)
(-0.214829 -0.0370113 0)
(-0.209153 -0.0406625 0)
(-0.20282 -0.0440522 0)
(-0.195841 -0.0471348 0)
(-0.188237 -0.0498653 0)
(-0.180037 -0.0522 0)
(-0.171275 -0.0540978 0)
(-0.161999 -0.0555221 0)
(-0.152263 -0.0564417 0)
(-0.14213 -0.0568328 0)
(-0.131677 -0.0566803 0)
(-0.120984 -0.055979 0)
(-0.110141 -0.0547346 0)
(-0.0992438 -0.0529643 0)
(-0.0883907 -0.0506968 0)
(-0.0776811 -0.0479721 0)
(-0.0672129 -0.0448402 0)
(-0.0570797 -0.04136 0)
(-0.0473684 -0.0375973 0)
(-0.0381572 -0.0336226 0)
(-0.0295139 -0.0295091 0)
(-0.0214947 -0.0253304 0)
(-0.0141436 -0.0211579 0)
(-0.00749233 -0.0170597 0)
(-0.00156051 -0.0130982 0)
(0.00364379 -0.00932901 0)
(0.00812332 -0.00579996 0)
(0.0118908 -0.00255022 0)
(0.0149681 0.000390191 0)
(0.0173853 0.00300067 0)
(0.0191796 0.00527 0)
(0.0203945 0.00719605 0)
(0.0210787 0.00878525 0)
(0.0212845 0.0100517 0)
(0.0210671 0.011016 0)
(0.0204824 0.011704 0)
(0.0195866 0.0121451 0)
(0.018434 0.0123705 0)
(0.0170766 0.0124111 0)
(0.0155632 0.0122957 0)
(0.0139384 0.0120484 0)
(0.0122435 0.0116869 0)
(0.0105159 0.0112201 0)
(0.00879068 0.0106464 0)
(0.00710161 0.00995309 0)
(0.00548318 0.00911537 0)
(0.00397312 0.00809786 0)
(0.00261558 0.00685651 0)
(0.00145634 0.0053422 0)
(0.000595227 0.00350526 0)
(6.78034e-05 0.00130192 0)
(3.96811e-06 -0.000434492 0)
(7.15973e-06 -0.00088042 0)
(-3.4685e-05 -0.00101725 0)
(-0.000137339 -0.000945769 0)
(-0.000312567 -0.000738305 0)
(-0.000564162 -0.00044678 0)
(-0.000893332 -0.000105572 0)
(-0.00130066 0.000265003 0)
(-0.00178776 0.000655509 0)
(-0.0023583 0.00106453 0)
(-0.00301853 0.00149621 0)
(-0.00377758 0.00195833 0)
(-0.0046474 0.00246067 0)
(-0.00564265 0.00301392 0)
(-0.00678048 0.00362888 0)
(-0.00808027 0.00431597 0)
(-0.00956338 0.00508494 0)
(-0.0112529 0.00594482 0)
(-0.0131735 0.00690387 0)
(-0.0153508 0.00796959 0)
(-0.0178118 0.00914872 0)
(-0.0205836 0.0104471 0)
(-0.0236938 0.0118698 0)
(-0.0271693 0.0134201 0)
(-0.0310357 0.0150998 0)
(-0.0353168 0.0169085 0)
(-0.040033 0.0188427 0)
(-0.0452003 0.0208955 0)
(-0.0508293 0.0230557 0)
(-0.0569238 0.0253078 0)
(-0.0634799 0.0276311 0)
(-0.0704847 0.0299999 0)