/*--------------------------------*- C++ -*----------------------------------*\
| =========                 |                                                 |
| \\      /  F ield         | OpenFOAM: The Open Source CFD Toolbox           |
|  \\    /   O peration     | Version:  2406                                  |
|   \\  /    A nd           | Website:  www.openfoam.com                      |
|    \\/     M anipulation  |                                                 |
\*---------------------------------------------------------------------------*/
FoamFile
{
    version     2.0;
    format      ascii;
    arch        "LSB;label=32;scalar=64";
    class       volVectorField;
    location    "27.8";
    object      Uold;
}
// * * * * * * * * * * * * * * * * * * * * * * * * * * * * * * * * * * * * * //

dimensions      [0 1 -1 0 0 0 0];

internalField   nonuniform List<vector> 
3600
(
(4.82922e-05 -4.79288e-05 0)
(0.000356706 -0.000149548 0)
(0.000849539 -0.000183264 0)
(0.00133701 -0.000179722 0)
(0.00180004 -0.00015744 0)
(0.00217587 -0.000130867 0)
(0.00247735 -0.00010416 0)
(0.00268614 -7.87191e-05 0)
(0.00280855 -5.36704e-05 0)
(0.00283062 -2.73215e-05 0)
(0.00274333 1.96341e-06 0)
(0.00252534 3.61181e-05 0)
(0.00215321 7.71475e-05 0)
(0.0015939 0.000127929 0)
(0.000807461 0.000191708 0)
(-0.000255039 0.000271741 0)
(-0.00164736 0.000370141 0)
(-0.00342326 0.000487352 0)
(-0.00562935 0.000621309 0)
(-0.00829797 0.000767194 0)
(-0.0114394 0.000918139 0)
(-0.015033 0.00106694 0)
(-0.0190172 0.00120606 0)
(-0.0232807 0.00132492 0)
(-0.0276583 0.00140616 0)
(-0.0319328 0.00142523 0)
(-0.0358461 0.00135454 0)
(-0.0391161 0.00117065 0)
(-0.0414599 0.000860984 0)
(-0.0426195 0.000427896 0)
(-0.0423856 -0.000110457 0)
(-0.0406195 -0.000721461 0)
(-0.0372702 -0.00136081 0)
(-0.0323877 -0.00197605 0)
(-0.0261306 -0.00251089 0)
(-0.0187662 -0.00291038 0)
(-0.0106627 -0.00312704 0)
(-0.00226935 -0.00312775 0)
(0.00591489 -0.00290049 0)
(0.0133858 -0.00245977 0)
(0.0196849 -0.00184858 0)
(0.0244556 -0.00113562 0)
(0.0274874 -0.000405674 0)
(0.0287481 0.000254867 0)
(0.0283805 0.000776351 0)
(0.0266786 0.00111981 0)
(0.0240243 0.00128422 0)
(0.0208282 0.00129893 0)
(0.0174532 0.00121069 0)
(0.0141883 0.00106494 0)
(0.0112117 0.000898867 0)
(0.00862764 0.00073485 0)
(0.00644807 0.000588262 0)
(0.00466778 0.000463522 0)
(0.00321542 0.000366252 0)
(0.00206323 0.000287671 0)
(0.00112857 0.000223969 0)
(0.000449221 0.000141089 0)
(1.37868e-05 4.15298e-05 0)
(-7.1613e-05 -7.45346e-05 0)
(0.000151867 -0.00035767 0)
(0.000773429 -0.000770706 0)
(0.00165445 -0.000896379 0)
(0.00249242 -0.000856791 0)
(0.00324637 -0.000732793 0)
(0.00380327 -0.000570684 0)
(0.0041576 -0.000392369 0)
(0.00425815 -0.00019937 0)
(0.00408348 1.21173e-05 0)
(0.00357885 0.000253998 0)
(0.00268858 0.000536714 0)
(0.00133366 0.000873201 0)
(-0.000574317 0.00127532 0)
(-0.00314035 0.00175726 0)
(-0.00647885 0.0023316 0)
(-0.0107088 0.00300642 0)
(-0.0159381 0.0037786 0)
(-0.0222438 0.00463086 0)
(-0.0296478 0.0055303 0)
(-0.0380915 0.00642959 0)
(-0.0474145 0.0072661 0)
(-0.0573444 0.00796117 0)
(-0.0675067 0.00842317 0)
(-0.0774534 0.00855849 0)
(-0.0867043 0.00828667 0)
(-0.0947894 0.00755386 0)
(-0.101285 0.00634064 0)
(-0.105839 0.00466421 0)
(-0.108179 0.00257632 0)
(-0.108122 0.000159031 0)
(-0.105571 -0.00248022 0)
(-0.100515 -0.00521322 0)
(-0.0930305 -0.00789556 0)
(-0.0832855 -0.0103715 0)
(-0.0715415 -0.0124808 0)
(-0.058156 -0.0140681 0)
(-0.043582 -0.0149957 0)
(-0.0283577 -0.01516 0)
(-0.0130894 -0.0145092 0)
(0.00157999 -0.0130593 0)
(0.0150108 -0.0109047 0)
(0.0266186 -0.00821826 0)
(0.0359229 -0.00523751 0)
(0.0426016 -0.00223677 0)
(0.0465199 0.000513023 0)
(0.0477594 0.00278539 0)
(0.0465986 0.00443743 0)
(0.0434968 0.00542543 0)
(0.0390088 0.00580495 0)
(0.0337335 0.00569796 0)
(0.028194 0.00526089 0)
(0.0228271 0.00463932 0)
(0.0178915 0.00395769 0)
(0.0135607 0.00329489 0)
(0.00983652 0.00270765 0)
(0.00674399 0.00219321 0)
(0.0041742 0.00173932 0)
(0.00220147 0.00123907 0)
(0.000760571 0.000680281 0)
(7.54054e-05 3.21242e-05 0)
(0.000190138 -0.000854636 0)
(0.000900576 -0.00164848 0)
(0.00184952 -0.00185618 0)
(0.0026786 -0.0017108 0)
(0.00333193 -0.0013866 0)
(0.00367152 -0.000956714 0)
(0.00366349 -0.000465615 0)
(0.00322054 9.36226e-05 0)
(0.00227383 0.000733881 0)
(0.00071363 0.00148825 0)
(-0.00158133 0.0023848 0)
(-0.00476032 0.003456 0)
(-0.00898535 0.00472841 0)
(-0.0144288 0.00622757 0)
(-0.021256 0.00796601 0)
(-0.0296015 0.00993387 0)
(-0.0395339 0.0120828 0)
(-0.0510136 0.0143188 0)
(-0.0638573 0.0164994 0)
(-0.0777225 0.0184399 0)
(-0.0921285 0.0199324 0)
(-0.10651 0.0207786 0)
(-0.120283 0.0208224 0)
(-0.132912 0.0199712 0)
(-0.143939 0.0181995 0)
(-0.153004 0.0155404 0)
(-0.159842 0.0120723 0)
(-0.164263 0.00790716 0)
(-0.166146 0.00318165 0)
(-0.165417 -0.00194716 0)
(-0.16205 -0.00730347 0)
(-0.156058 -0.0126924 0)
(-0.147502 -0.0178997 0)
(-0.136501 -0.0226932 0)
(-0.123241 -0.0268282 0)
(-0.107988 -0.0300578 0)
(-0.0911044 -0.0321514 0)
(-0.0730461 -0.0329184 0)
(-0.054364 -0.0322379 0)
(-0.0356817 -0.0300869 0)
(-0.017666 -0.026563 0)
(-0.000979516 -0.0218919 0)
(0.0137665 -0.0164157 0)
(0.0260683 -0.0105603 0)
(0.0355625 -0.00478484 0)
(0.0420681 0.0004744 0)
(0.0455862 0.00486139 0)
(0.0463258 0.00814105 0)
(0.044662 0.0102299 0)
(0.0411339 0.0111904 0)
(0.0363308 0.0112116 0)
(0.0308708 0.0105486 0)
(0.0252419 0.0094772 0)
(0.0198609 0.00822884 0)
(0.0149171 0.00698203 0)
(0.0105941 0.00580543 0)
(0.00684924 0.0047008 0)
(0.00384813 0.00351765 0)
(0.00150534 0.00217867 0)
(0.000234547 0.000587922 0)
(0.000191869 -0.00135096 0)
(0.000844713 -0.00246032 0)
(0.00162552 -0.00266026 0)
(0.00217609 -0.00230675 0)
(0.00242344 -0.00167144 0)
(0.00221731 -0.000839645 0)
(0.00148212 0.000133159 0)
(8.53176e-05 0.00127561 0)
(-0.00210873 0.00261991 0)
(-0.00527923 0.00422882 0)
(-0.00962658 0.00615259 0)
(-0.015373 0.00844241 0)
(-0.0227429 0.0111295 0)
(-0.0319383 0.0142259 0)
(-0.0430993 0.0176982 0)
(-0.056249 0.0214493 0)
(-0.0712424 0.0252953 0)
(-0.087735 0.028969 0)
(-0.105204 0.0321472 0)
(-0.123015 0.0345086 0)
(-0.140521 0.0357923 0)
(-0.157138 0.0358352 0)
(-0.172395 0.0345754 0)
(-0.185935 0.0320353 0)
(-0.197503 0.028296 0)
(-0.20692 0.0234753 0)
(-0.214059 0.0177121 0)
(-0.218826 0.0111587 0)
(-0.221147 0.00397872 0)
(-0.220961 -0.00365094 0)
(-0.218217 -0.011535 0)
(-0.212876 -0.0194538 0)
(-0.204924 -0.0271576 0)
(-0.194377 -0.0343641 0)
(-0.181307 -0.0407611 0)
(-0.165854 -0.0460166 0)
(-0.148253 -0.0498002 0)
(-0.128852 -0.0518145 0)
(-0.108121 -0.0518356 0)
(-0.0866492 -0.0497579 0)
(-0.0651206 -0.0456326 0)
(-0.0442706 -0.0396882 0)
(-0.0248246 -0.0323251 0)
(-0.00742709 -0.0240764 0)
(0.0074086 -0.0155457 0)
(0.019343 -0.00733348 0)
(0.0282036 3.02488e-05 0)
(0.0339993 0.00613383 0)
(0.0368841 0.0107225 0)
(0.0371892 0.0137119 0)
(0.0353531 0.0151957 0)
(0.0319474 0.0154096 0)
(0.0275171 0.0146875 0)
(0.0226309 0.0133779 0)
(0.0176566 0.0117919 0)
(0.0129741 0.0101171 0)
(0.00867125 0.00841299 0)
(0.00505707 0.00653523 0)
(0.00208293 0.0043073 0)
(0.000361908 0.00150793 0)
(0.000166373 -0.00181104 0)
(0.000644903 -0.00311285 0)
(0.00107045 -0.00317515 0)
(0.00112738 -0.00247741 0)
(0.000715227 -0.00138021 0)
(-0.000323256 3.85484e-05 0)
(-0.00212358 0.00172797 0)
(-0.0048725 0.00375394 0)
(-0.00878851 0.00617793 0)
(-0.0141244 0.0090969 0)
(-0.0211553 0.0125787 0)
(-0.0301485 0.0166764 0)
(-0.0413337 0.0213895 0)
(-0.0548413 0.0266529 0)
(-0.0706414 0.0322942 0)
(-0.0884799 0.0380188 0)
(-0.107874 0.0434198 0)
(-0.128167 0.0480449 0)
(-0.148647 0.0514843 0)
(-0.168653 0.0534428 0)
(-0.187647 0.0537626 0)
(-0.205225 0.0524091 0)
(-0.221103 0.0494377 0)
(-0.235084 0.0449611 0)
(-0.247036 0.0391239 0)
(-0.256867 0.0320853 0)
(-0.26451 0.0240104 0)
(-0.269914 0.0150669 0)
(-0.273029 0.00542678 0)
(-0.273805 -0.00472794 0)
(-0.272182 -0.0151972 0)
(-0.26809 -0.0257525 0)
(-0.261453 -0.0361273 0)
(-0.252197 -0.0460082 0)
(-0.240265 -0.0550324 0)
(-0.225642 -0.0627928 0)
(-0.20839 -0.0688565 0)
(-0.18868 -0.0727986 0)
(-0.166831 -0.0742528 0)
(-0.143335 -0.0729726 0)
(-0.11886 -0.0688967 0)
(-0.094222 -0.0621966 0)
(-0.0703153 -0.0532939 0)
(-0.0480122 -0.0428254 0)
(-0.0280582 -0.0315631 0)
(-0.0109826 -0.0203036 0)
(0.00291812 -0.00976634 0)
(0.0135702 -0.000526356 0)
(0.0210451 0.00701693 0)
(0.0255594 0.0126447 0)
(0.0274108 0.0163276 0)
(0.0270432 0.0182137 0)
(0.0249268 0.0186045 0)
(0.0216411 0.0178884 0)
(0.0176316 0.0164611 0)
(0.0134172 0.0146262 0)
(0.00921909 0.0125146 0)
(0.00550056 0.0100239 0)
(0.00230497 0.00686766 0)
(0.000407688 0.00267624 0)
(0.000120397 -0.00213238 0)
(0.000315943 -0.00340246 0)
(0.000202457 -0.00314274 0)
(-0.000444245 -0.00193237 0)
(-0.00176552 -0.000192303 0)
(-0.00392275 0.00203485 0)
(-0.00713374 0.0047246 0)
(-0.011647 0.00799351 0)
(-0.017773 0.0119356 0)
(-0.0258255 0.0166713 0)
(-0.0361219 0.022258 0)
(-0.0489037 0.0286985 0)
(-0.0642941 0.0358795 0)
(-0.0822018 0.0435517 0)
(-0.102283 0.0512986 0)
(-0.123939 0.0585817 0)
(-0.146424 0.0648304 0)
(-0.168973 0.0695618 0)
(-0.190922 0.0724499 0)
(-0.211748 0.073339 0)
(-0.231075 0.0722123 0)
(-0.248644 0.0691522 0)
(-0.26429 0.0643014 0)
(-0.277917 0.0578361 0)
(-0.289485 0.0499456 0)
(-0.298993 0.0408193 0)
(-0.306464 0.0306393 0)
(-0.311929 0.0195783 0)
(-0.315413 0.0078019 0)
(-0.316922 -0.00452457 0)
(-0.31643 -0.0172252 0)
(-0.31387 -0.0300996 0)
(-0.309131 -0.0429067 0)
(-0.302057 -0.0553492 0)
(-0.29246 -0.0670609 0)
(-0.280141 -0.0776007 0)
(-0.264925 -0.0864609 0)
(-0.246711 -0.0930925 0)
(-0.225538 -0.0969556 0)
(-0.201643 -0.0975922 0)
(-0.175525 -0.0947185 0)
(-0.147957 -0.0883166 0)
(-0.119962 -0.0787032 0)
(-0.092705 -0.0665383 0)
(-0.0673336 -0.052757 0)
(-0.0447878 -0.0384205 0)
(-0.0256704 -0.0245389 0)
(-0.0102026 -0.0119272 0)
(0.00167296 -0.0011469 0)
(0.0102008 0.00747809 0)
(0.015678 0.0138302 0)
(0.0184962 0.0179715 0)
(0.0190524 0.0201306 0)
(0.0178731 0.0206674 0)
(0.0154035 0.0199932 0)
(0.0122201 0.01848 0)
(0.0086444 0.0163097 0)
(0.00525833 0.0134262 0)
(0.00222117 0.00944354 0)
(0.000390561 0.00386362 0)
(4.832e-05 -0.00227046 0)
(-0.000156081 -0.00321574 0)
(-0.000990722 -0.00241031 0)
(-0.00254302 -0.000488691 0)
(-0.00501315 0.00211505 0)
(-0.00856688 0.00542744 0)
(-0.0135248 0.00947144 0)
(-0.0201939 0.0144186 0)
(-0.0289658 0.020383 0)
(-0.0401702 0.027473 0)
(-0.0540927 0.0356732 0)
(-0.0708339 0.0448431 0)
(-0.0902764 0.0546447 0)
(-0.111997 0.0645515 0)
(-0.135323 0.0738906 0)
(-0.159429 0.0819768 0)
(-0.183501 0.0882409 0)
(-0.206837 0.0923112 0)
(-0.228896 0.0940136 0)
(-0.249282 0.0933364 0)
(-0.267733 0.0903834 0)
(-0.284098 0.085335 0)
(-0.298326 0.0784154 0)
(-0.310441 0.0698666 0)
(-0.320533 0.0599279 0)
(-0.328724 0.048821 0)
(-0.335158 0.036742 0)
(-0.33997 0.0238595 0)
(-0.343278 0.0103182 0)
(-0.345157 -0.00375181 0)
(-0.345636 -0.0182223 0)
(-0.344675 -0.0329497 0)
(-0.342167 -0.0477557 0)
(-0.337919 -0.0624046 0)
(-0.331656 -0.0765818 0)
(-0.323032 -0.0898738 0)
(-0.311646 -0.10176 0)
(-0.297095 -0.111617 0)
(-0.279043 -0.118755 0)
(-0.257313 -0.12248 0)
(-0.232001 -0.122197 0)
(-0.203573 -0.117543 0)
(-0.172925 -0.108522 0)
(-0.141359 -0.0956027 0)
(-0.110439 -0.0797394 0)
(-0.0817381 -0.0622492 0)
(-0.0565264 -0.0445732 0)
(-0.0355293 -0.0279856 0)
(-0.0188971 -0.013391 0)
(-0.00634234 -0.00128714 0)
(0.00258203 0.00815008 0)
(0.00838573 0.0149591 0)
(0.0115146 0.0193361 0)
(0.0124854 0.021608 0)
(0.0117353 0.0221648 0)
(0.0098479 0.0213978 0)
(0.00720803 0.0195049 0)
(0.00446287 0.0164585 0)
(0.00188086 0.0117987 0)
(0.000319119 0.00494415 0)
(-5.51586e-05 -0.00212591 0)
(-0.000788692 -0.00236615 0)
(-0.00253378 -0.000753053 0)
(-0.00519265 0.00210423 0)
(-0.00904744 0.00582641 0)
(-0.0142672 0.0105446 0)
(-0.0212884 0.0163428 0)
(-0.0304555 0.0234317 0)
(-0.0422032 0.0319061 0)
(-0.0567976 0.0417902 0)
(-0.0743867 0.0528991 0)
(-0.094807 0.0648388 0)
(-0.117616 0.0769682 0)
(-0.142063 0.0884909 0)
(-0.167265 0.0985885 0)
(-0.192327 0.106586 0)
(-0.216488 0.112034 0)
(-0.239136 0.114721 0)
(-0.259836 0.114627 0)
(-0.278302 0.111881 0)
(-0.294404 0.106716 0)
(-0.308136 0.0994284 0)
(-0.319611 0.090337 0)
(-0.329012 0.0797555 0)
(-0.336576 0.067967 0)
(-0.342554 0.0552118 0)
(-0.347191 0.0416811 0)
(-0.350707 0.0275206 0)
(-0.353287 0.0128364 0)
(-0.355064 -0.00229234 0)
(-0.356119 -0.0178008 0)
(-0.356462 -0.0336204 0)
(-0.356029 -0.0496603 0)
(-0.354656 -0.0657828 0)
(-0.352076 -0.0817768 0)
(-0.347895 -0.097328 0)
(-0.341598 -0.111991 0)
(-0.332562 -0.125168 0)
(-0.320109 -0.136114 0)
(-0.303594 -0.143961 0)
(-0.282539 -0.147809 0)
(-0.256802 -0.146853 0)
(-0.226745 -0.14057 0)
(-0.193361 -0.128921 0)
(-0.158276 -0.112513 0)
(-0.123574 -0.0926381 0)
(-0.0914168 -0.0711028 0)
(-0.0635449 -0.0498489 0)
(-0.0408877 -0.0304926 0)
(-0.0234726 -0.0140249 0)
(-0.0107509 -0.000814951 0)
(-0.00194677 0.00917508 0)
(0.00362597 0.0161934 0)
(0.00661615 0.0205946 0)
(0.00753025 0.0227696 0)
(0.00696977 0.0231085 0)
(0.00537278 0.0218031 0)
(0.0034076 0.0188309 0)
(0.00143011 0.0136936 0)
(0.00022943 0.00578893 0)
(-0.000196694 -0.00161851 0)
(-0.00159524 -0.000708216 0)
(-0.00443247 0.00199729 0)
(-0.00838047 0.00603203 0)
(-0.0138295 0.0111577 0)
(-0.0209458 0.0176383 0)
(-0.0302795 0.0256148 0)
(-0.0421666 0.0352935 0)
(-0.0570185 0.0466779 0)
(-0.0749357 0.059607 0)
(-0.0958256 0.0736193 0)
(-0.119189 0.0879933 0)
(-0.144271 0.101796 0)
(-0.170095 0.114066 0)
(-0.195699 0.123983 0)
(-0.220212 0.130988 0)
(-0.24295 0.134798 0)
(-0.263405 0.135376 0)
(-0.281278 0.132876 0)
(-0.296454 0.127599 0)
(-0.308997 0.11993 0)
(-0.319103 0.110288 0)
(-0.327064 0.0990781 0)
(-0.333212 0.0866631 0)
(-0.337893 0.07334 0)
(-0.341429 0.0593375 0)
(-0.344108 0.044818 0)
(-0.34617 0.0298876 0)
(-0.347814 0.014607 0)
(-0.349186 -0.000994669 0)
(-0.35039 -0.016908 0)
(-0.351481 -0.0331291 0)
(-0.352453 -0.0496453 0)
(-0.353229 -0.0664163 0)
(-0.353634 -0.0833509 0)
(-0.353365 -0.100276 0)
(-0.351965 -0.116897 0)
(-0.348793 -0.132761 0)
(-0.343032 -0.147212 0)
(-0.333722 -0.159382 0)
(-0.319868 -0.168209 0)
(-0.300607 -0.172526 0)
(-0.275455 -0.171234 0)
(-0.244564 -0.163546 0)
(-0.208957 -0.149295 0)
(-0.170595 -0.129192 0)
(-0.132183 -0.104922 0)
(-0.0966296 -0.0789248 0)
(-0.0662961 -0.0538099 0)
(-0.0423375 -0.0316271 0)
(-0.0246277 -0.0134252 0)
(-0.0122177 0.00063594 0)
(-0.00402051 0.010895 0)
(0.00095024 0.017843 0)
(0.00342682 0.0219648 0)
(0.00411059 0.0236873 0)
(0.00352251 0.0232103 0)
(0.00233907 0.0205115 0)
(0.000981702 0.0150968 0)
(0.000144224 0.00639579 0)
(-0.000380512 -0.000635749 0)
(-0.00257965 0.00193511 0)
(-0.00667533 0.00603146 0)
(-0.0120688 0.0114953 0)
(-0.0192835 0.0183279 0)
(-0.0284658 0.0269363 0)
(-0.0402564 0.0374881 0)
(-0.0549135 0.0501073 0)
(-0.0727427 0.064609 0)
(-0.0935819 0.0805389 0)
(-0.11704 0.0970885 0)
(-0.142285 0.113212 0)
(-0.168338 0.127778 0)
(-0.194105 0.139791 0)
(-0.218636 0.148537 0)
(-0.241123 0.153631 0)
(-0.261009 0.154995 0)
(-0.277958 0.152809 0)
(-0.291895 0.147448 0)
(-0.302944 0.139406 0)
(-0.311406 0.129218 0)
(-0.317669 0.117399 0)
(-0.322167 0.104399 0)
(-0.325313 0.0905774 0)
(-0.327489 0.0762026 0)
(-0.329006 0.061456 0)
(-0.330124 0.0464478 0)
(-0.331039 0.0312333 0)
(-0.331906 0.0158279 0)
(-0.332841 0.000220984 0)
(-0.333934 -0.0156148 0)
(-0.335251 -0.0317141 0)
(-0.336836 -0.0481124 0)
(-0.338694 -0.0648353 0)
(-0.340778 -0.0818864 0)
(-0.342954 -0.099224 0)
(-0.344957 -0.116729 0)
(-0.346335 -0.134157 0)
(-0.346403 -0.151078 0)
(-0.344209 -0.166814 0)
(-0.338549 -0.180393 0)
(-0.328065 -0.190543 0)
(-0.31145 -0.19578 0)
(-0.287762 -0.194606 0)
(-0.256818 -0.18585 0)
(-0.219571 -0.169095 0)
(-0.178299 -0.145112 0)
(-0.13641 -0.116061 0)
(-0.097726 -0.085206 0)
(-0.0653379 -0.0560346 0)
(-0.0406336 -0.0311031 0)
(-0.0231705 -0.0114515 0)
(-0.0115624 0.00311392 0)
(-0.00430309 0.0132806 0)
(-0.000220992 0.0197768 0)
(0.00164043 0.0231736 0)
(0.00196679 0.0237511 0)
(0.00147309 0.0215152 0)
(0.000641966 0.0160265 0)
(8.71322e-05 0.00678601 0)
(-0.0006063 0.000916993 0)
(-0.00372422 0.00569597 0)
(-0.00920685 0.0114769 0)
(-0.0161525 0.0186159 0)
(-0.0252366 0.027454 0)
(-0.0365547 0.0385238 0)
(-0.0507959 0.0519596 0)
(-0.0680596 0.0677013 0)
(-0.0884683 0.0852744 0)
(-0.111537 0.103852 0)
(-0.136579 0.122271 0)
(-0.162496 0.139233 0)
(-0.188183 0.15353 0)
(-0.212524 0.164246 0)
(-0.234648 0.170851 0)
(-0.253887 0.173195 0)
(-0.269904 0.171468 0)
(-0.282628 0.166121 0)
(-0.292272 0.157766 0)
(-0.299219 0.147072 0)
(-0.303971 0.134676 0)
(-0.307037 0.121124 0)
(-0.308905 0.10684 0)
(-0.309981 0.0921304 0)
(-0.310592 0.0771889 0)
(-0.310976 0.0621251 0)
(-0.311306 0.0469856 0)
(-0.311693 0.0317761 0)
(-0.31222 0.0164771 0)
(-0.312942 0.00105585 0)
(-0.313912 -0.0145273 0)
(-0.315181 -0.0303152 0)
(-0.316805 -0.0463531 0)
(-0.318839 -0.0626874 0)
(-0.321331 -0.0793639 0)
(-0.324295 -0.0964187 0)
(-0.32768 -0.113862 0)
(-0.33131 -0.131641 0)
(-0.334817 -0.149591 0)
(-0.337553 -0.167347 0)
(-0.33852 -0.184255 0)
(-0.336342 -0.199275 0)
(-0.329332 -0.210935 0)
(-0.31571 -0.217394 0)
(-0.293992 -0.216661 0)
(-0.263535 -0.207038 0)
(-0.225111 -0.187737 0)
(-0.181282 -0.159551 0)
(-0.136254 -0.125235 0)
(-0.0949091 -0.0891511 0)
(-0.0611528 -0.0558922 0)
(-0.0364503 -0.028549 0)
(-0.0198868 -0.007934 0)
(-0.00949089 0.0066103 0)
(-0.00344919 0.0161796 0)
(-0.000336883 0.0216619 0)
(0.00083829 0.02356 0)
(0.000913801 0.021989 0)
(0.000459041 0.0166231 0)
(6.62659e-05 0.00705429 0)
(-0.000870011 0.00313796 0)
(-0.00499779 0.0106953 0)
(-0.0119488 0.0184393 0)
(-0.0204961 0.0274836 0)
(-0.0314726 0.0385996 0)
(-0.0448787 0.052395 0)
(-0.0613963 0.0688856 0)
(-0.0808895 0.0877154 0)
(-0.103249 0.108041 0)
(-0.127658 0.128634 0)
(-0.153185 0.148032 0)
(-0.178556 0.164793 0)
(-0.202644 0.177756 0)
(-0.224394 0.186182 0)
(-0.243107 0.189808 0)
(-0.258355 0.188798 0)
(-0.270115 0.183669 0)
(-0.278628 0.175153 0)
(-0.284388 0.164068 0)
(-0.28797 0.151185 0)
(-0.289984 0.137162 0)
(-0.290959 0.122493 0)
(-0.291338 0.107519 0)
(-0.291438 0.0924432 0)
(-0.291481 0.077366 0)
(-0.291592 0.062317 0)
(-0.291844 0.0472843 0)
(-0.292261 0.0322352 0)
(-0.292855 0.0171302 0)
(-0.293626 0.00193111 0)
(-0.294589 -0.013397 0)
(-0.295768 -0.0288856 0)
(-0.297211 -0.0445664 0)
(-0.298983 -0.060475 0)
(-0.301171 -0.0766563 0)
(-0.303869 -0.093166 0)
(-0.30716 -0.11007 0)
(-0.311085 -0.127427 0)
(-0.31558 -0.145265 0)
(-0.320395 -0.163512 0)
(-0.324981 -0.181903 0)
(-0.328373 -0.199845 0)
(-0.329103 -0.216269 0)
(-0.325217 -0.229518 0)
(-0.314479 -0.237358 0)
(-0.29482 -0.237216 0)
(-0.265046 -0.226728 0)
(-0.225663 -0.204617 0)
(-0.17952 -0.171695 0)
(-0.131739 -0.131537 0)
(-0.0884245 -0.0899589 0)
(-0.054257 -0.0529196 0)
(-0.0305096 -0.0238333 0)
(-0.015477 -0.00304203 0)
(-0.00666831 0.0107952 0)
(-0.00197166 0.0190616 0)
(0.000107364 0.0226922 0)
(0.000670362 0.0220575 0)
(0.000441956 0.0170238 0)
(8.34229e-05 0.00728822 0)
(-0.0011592 0.00608959 0)
(-0.00634018 0.0169862 0)
(-0.0147731 0.0269383 0)
(-0.0248934 0.0380789 0)
(-0.0376819 0.0516795 0)
(-0.0529932 0.0683422 0)
(-0.0714463 0.0878711 0)
(-0.0926165 0.109518 0)
(-0.116153 0.132034 0)
(-0.140938 0.153815 0)
(-0.165884 0.173195 0)
(-0.189636 0.18871 0)
(-0.211147 0.199362 0)
(-0.229517 0.204689 0)
(-0.244324 0.204787 0)
(-0.255462 0.200194 0)
(-0.263253 0.191763 0)
(-0.268217 0.180459 0)
(-0.271047 0.167217 0)
(-0.272399 0.152814 0)
(-0.272877 0.137836 0)
(-0.272932 0.12266 0)
(-0.272893 0.107501 0)
(-0.272945 0.0924428 0)
(-0.273191 0.077494 0)
(-0.273645 0.0626171 0)
(-0.274296 0.0477594 0)
(-0.275102 0.0328687 0)
(-0.276025 0.0179024 0)
(-0.277029 0.00283041 0)
(-0.278103 -0.0123656 0)
(-0.279247 -0.0276953 0)
(-0.280494 -0.0431658 0)
(-0.281897 -0.0587866 0)
(-0.283545 -0.0745787 0)
(-0.285547 -0.0905811 0)
(-0.288042 -0.106859 0)
(-0.291172 -0.123506 0)
(-0.295064 -0.140636 0)
(-0.299763 -0.158356 0)
(-0.305146 -0.176703 0)
(-0.310791 -0.195528 0)
(-0.315809 -0.214326 0)
(-0.318704 -0.232023 0)
(-0.317317 -0.246779 0)
(-0.308994 -0.255938 0)
(-0.291081 -0.256246 0)
(-0.261795 -0.244554 0)
(-0.221364 -0.218995 0)
(-0.172994 -0.180509 0)
(-0.122914 -0.133839 0)
(-0.0786017 -0.0867991 0)
(-0.0453098 -0.0467529 0)
(-0.0235488 -0.0170925 0)
(-0.0106503 0.00288463 0)
(-0.00368051 0.0150865 0)
(-0.000434382 0.0211215 0)
(0.000643824 0.0218247 0)
(0.000550492 0.0173702 0)
(0.000129831 0.00758309 0)
(-0.00145878 0.00980825 0)
(-0.00768574 0.0245783 0)
(-0.0175472 0.0369444 0)
(-0.0291383 0.0503249 0)
(-0.0435612 0.0665364 0)
(-0.0604752 0.0860756 0)
(-0.0803918 0.108446 0)
(-0.102577 0.132439 0)
(-0.126463 0.15641 0)
(-0.150702 0.178448 0)
(-0.174143 0.196807 0)
(-0.195453 0.210121 0)
(-0.213762 0.217678 0)
(-0.228423 0.219389 0)
(-0.23936 0.215778 0)
(-0.246809 0.207767 0)
(-0.25139 0.196488 0)
(-0.253808 0.183041 0)
(-0.254832 0.168368 0)
(-0.255083 0.153151 0)
(-0.255072 0.137835 0)
(-0.255105 0.122643 0)
(-0.255375 0.107652 0)
(-0.255935 0.0928408 0)
(-0.256783 0.0781441 0)
(-0.257857 0.0634817 0)
(-0.259091 0.0487822 0)
(-0.260406 0.0339909 0)
(-0.261744 0.0190743 0)
(-0.263051 0.00401783 0)
(-0.264303 -0.0111772 0)
(-0.265488 -0.0264979 0)
(-0.266623 -0.0419263 0)
(-0.267743 -0.0574444 0)
(-0.268917 -0.0730432 0)
(-0.270238 -0.0887302 0)
(-0.271838 -0.104542 0)
(-0.273881 -0.120553 0)
(-0.276561 -0.136887 0)
(-0.280071 -0.153712 0)
(-0.284558 -0.171223 0)
(-0.290022 -0.189569 0)
(-0.296164 -0.208725 0)
(-0.302184 -0.228278 0)
(-0.306576 -0.247141 0)
(-0.307003 -0.263268 0)
(-0.300426 -0.273503 0)
(-0.283629 -0.27382 0)
(-0.254275 -0.26015 0)
(-0.212395 -0.230051 0)
(-0.161753 -0.184814 0)
(-0.109993 -0.131045 0)
(-0.0660492 -0.0790612 0)
(-0.0351743 -0.0375446 0)
(-0.0163971 -0.00877892 0)
(-0.00607738 0.0091118 0)
(-0.00112999 0.0186116 0)
(0.000656654 0.0212682 0)
(0.000713547 0.0177239 0)
(0.000192024 0.00799224 0)
(-0.00174541 0.0142754 0)
(-0.00894543 0.0333981 0)
(-0.0201043 0.0483302 0)
(-0.0329819 0.0640224 0)
(-0.0487644 0.0828557 0)
(-0.0668778 0.105119 0)
(-0.0877022 0.129952 0)
(-0.110206 0.155661 0)
(-0.133663 0.180259 0)
(-0.156572 0.201626 0)
(-0.177822 0.218063 0)
(-0.196195 0.228429 0)
(-0.211085 0.232402 0)
(-0.222159 0.230341 0)
(-0.229702 0.223217 0)
(-0.234237 0.212276 0)
(-0.236587 0.198828 0)
(-0.237515 0.183986 0)
(-0.237755 0.168589 0)
(-0.237808 0.153157 0)
(-0.238038 0.137956 0)
(-0.238597 0.123051 0)
(-0.239549 0.108402 0)
(-0.240843 0.0939067 0)
(-0.24241 0.0794566 0)
(-0.244144 0.0649541 0)
(-0.245957 0.0503287 0)
(-0.247758 0.0355363 0)
(-0.249487 0.0205598 0)
(-0.251089 0.00540265 0)
(-0.252537 -0.00991431 0)
(-0.253814 -0.0253587 0)
(-0.254926 -0.0408917 0)
(-0.255892 -0.0564726 0)
(-0.256758 -0.0720661 0)
(-0.257588 -0.0876487 0)
(-0.258483 -0.10322 0)
(-0.259576 -0.118816 0)
(-0.261051 -0.134522 0)
(-0.263132 -0.150491 0)
(-0.266076 -0.166952 0)
(-0.27012 -0.184189 0)
(-0.27538 -0.202475 0)
(-0.281674 -0.221917 0)
(-0.288276 -0.242185 0)
(-0.293648 -0.262147 0)
(-0.295255 -0.279458 0)
(-0.289662 -0.290357 0)
(-0.27312 -0.289864 0)
(-0.242838 -0.27294 0)
(-0.19886 -0.236625 0)
(-0.145914 -0.183219 0)
(-0.0934501 -0.122053 0)
(-0.0517565 -0.0666898 0)
(-0.0249292 -0.0258218 0)
(-0.00986035 0.000198311 0)
(-0.00239511 0.0147092 0)
(0.000485924 0.0202279 0)
(0.000840106 0.0180636 0)
(0.000252748 0.00853366 0)
(-0.0019979 0.0194284 0)
(-0.0100426 0.0433193 0)
(-0.0223053 0.060921 0)
(-0.0362244 0.0789309 0)
(-0.0530241 0.100297 0)
(-0.0718788 0.125012 0)
(-0.0930339 0.151813 0)
(-0.115202 0.178535 0)
(-0.137564 0.202931 0)
(-0.158561 0.222784 0)
(-0.177207 0.236577 0)
(-0.192478 0.243502 0)
(-0.204089 0.243717 0)
(-0.21203 0.238055 0)
(-0.216901 0.227888 0)
(-0.219415 0.214684 0)
(-0.220476 0.199805 0)
(-0.220798 0.18426 0)
(-0.220999 0.168715 0)
(-0.221418 0.153488 0)
(-0.222266 0.138669 0)
(-0.22356 0.124188 0)
(-0.225269 0.109918 0)
(-0.227277 0.0957114 0)
(-0.229484 0.0814439 0)
(-0.231768 0.0670207 0)
(-0.234045 0.0523847 0)
(-0.236227 0.0375087 0)
(-0.238264 0.0223934 0)
(-0.240106 0.00705948 0)
(-0.241731 -0.00845669 0)
(-0.24312 -0.0241079 0)
(-0.244274 -0.0398403 0)
(-0.245202 -0.0555976 0)
(-0.245932 -0.0713259 0)
(-0.246501 -0.0869788 0)
(-0.246977 -0.102526 0)
(-0.247449 -0.117963 0)
(-0.248052 -0.133327 0)
(-0.24897 -0.148716 0)
(-0.250451 -0.164312 0)
(-0.2528 -0.180403 0)
(-0.256337 -0.197368 0)
(-0.261285 -0.215616 0)
(-0.26757 -0.235387 0)
(-0.274514 -0.256426 0)
(-0.280496 -0.277469 0)
(-0.282714 -0.295756 0)
(-0.277282 -0.306664 0)
(-0.259947 -0.304124 0)
(-0.227627 -0.281979 0)
(-0.180805 -0.237256 0)
(-0.125749 -0.174133 0)
(-0.0742415 -0.106368 0)
(-0.0371467 -0.0502779 0)
(-0.0156538 -0.0128812 0)
(-0.00462535 0.00871672 0)
(-7.92192e-05 0.018373 0)
(0.000845495 0.018256 0)
(0.000297202 0.00917218 0)
(-0.00219118 0.0251468 0)
(-0.0108926 0.0541389 0)
(-0.0240045 0.0744565 0)
(-0.0386658 0.0947082 0)
(-0.056092 0.118405 0)
(-0.0752093 0.145177 0)
(-0.0961444 0.173363 0)
(-0.117415 0.200375 0)
(-0.138183 0.223806 0)
(-0.156912 0.241465 0)
(-0.172816 0.252128 0)
(-0.185112 0.255415 0)
(-0.19385 0.252004 0)
(-0.199303 0.243172 0)
(-0.202296 0.2306 0)
(-0.203622 0.21585 0)
(-0.20416 0.200216 0)
(-0.204502 0.184526 0)
(-0.205111 0.16923 0)
(-0.206164 0.154446 0)
(-0.207741 0.140113 0)
(-0.20976 0.126063 0)
(-0.212136 0.11212 0)
(-0.214723 0.0981179 0)
(-0.217419 0.0839399 0)
(-0.220105 0.0695058 0)
(-0.222712 0.0547784 0)
(-0.225164 0.0397485 0)
(-0.227423 0.0244338 0)
(-0.229446 0.00886853 0)
(-0.231215 -0.00689824 0)
(-0.232713 -0.0228084 0)
(-0.233939 -0.0387972 0)
(-0.234893 -0.0547975 0)
(-0.235594 -0.0707429 0)
(-0.236062 -0.0865723 0)
(-0.23634 -0.102235 0)
(-0.236483 -0.117699 0)
(-0.236577 -0.132961 0)
(-0.236746 -0.148062 0)
(-0.237176 -0.163116 0)
(-0.238129 -0.17834 0)
(-0.239949 -0.194079 0)
(-0.243027 -0.210824 0)
(-0.247685 -0.229116 0)
(-0.253936 -0.249347 0)
(-0.26111 -0.271276 0)
(-0.267422 -0.293433 0)
(-0.269694 -0.312348 0)
(-0.26351 -0.322326 0)
(-0.244141 -0.315813 0)
(-0.208539 -0.285803 0)
(-0.158213 -0.229868 0)
(-0.10192 -0.156253 0)
(-0.0539624 -0.0842853 0)
(-0.0238755 -0.0316384 0)
(-0.00814828 -0.000227672 0)
(-0.00119193 0.015234 0)
(0.000671248 0.0180866 0)
(0.000316053 0.00983953 0)
(-0.00230837 0.0312705 0)
(-0.01144 0.0656191 0)
(-0.0251105 0.0886602 0)
(-0.0401909 0.111024 0)
(-0.0578433 0.136781 0)
(-0.0767704 0.16517 0)
(-0.0970085 0.194159 0)
(-0.116949 0.220801 0)
(-0.135803 0.242641 0)
(-0.152125 0.257619 0)
(-0.165373 0.264911 0)
(-0.175023 0.264613 0)
(-0.18143 0.25792 0)
(-0.185076 0.246482 0)
(-0.186911 0.23217 0)
(-0.187707 0.216518 0)
(-0.188248 0.200663 0)
(-0.188964 0.185202 0)
(-0.190168 0.170374 0)
(-0.191894 0.156117 0)
(-0.194132 0.14226 0)
(-0.196742 0.128575 0)
(-0.199616 0.114868 0)
(-0.202607 0.100979 0)
(-0.205625 0.0868087 0)
(-0.208569 0.0722977 0)
(-0.211386 0.0574284 0)
(-0.214013 0.0422071 0)
(-0.216424 0.0266644 0)
(-0.21858 0.0108446 0)
(-0.220467 -0.00519442 0)
(-0.222067 -0.0213867 0)
(-0.223377 -0.0376597 0)
(-0.224394 -0.0539381 0)
(-0.225129 -0.0701471 0)
(-0.225596 -0.0862159 0)
(-0.225822 -0.102082 0)
(-0.225841 -0.117695 0)
(-0.225704 -0.133026 0)
(-0.225487 -0.148075 0)
(-0.225309 -0.162893 0)
(-0.225351 -0.177613 0)
(-0.225888 -0.192486 0)
(-0.227299 -0.207939 0)
(-0.230046 -0.224568 0)
(-0.234532 -0.243091 0)
(-0.240826 -0.264 0)
(-0.248192 -0.287052 0)
(-0.25457 -0.310282 0)
(-0.256262 -0.329307 0)
(-0.248228 -0.336755 0)
(-0.225405 -0.3236 0)
(-0.18522 -0.282035 0)
(-0.131291 -0.212275 0)
(-0.0757437 -0.128925 0)
(-0.0349882 -0.0580511 0)
(-0.0131514 -0.0130918 0)
(-0.00296453 0.0102114 0)
(0.000299337 0.0172815 0)
(0.000305376 0.0104463 0)
(-0.00233365 0.0375986 0)
(-0.0116351 0.0774691 0)
(-0.0255463 0.103198 0)
(-0.0407109 0.127484 0)
(-0.0581991 0.154963 0)
(-0.0765304 0.184491 0)
(-0.0956853 0.213714 0)
(-0.114 0.239414 0)
(-0.130787 0.259191 0)
(-0.144744 0.271214 0)
(-0.155586 0.27512 0)
(-0.163034 0.271501 0)
(-0.167686 0.26202 0)
(-0.170147 0.248592 0)
(-0.171399 0.23316 0)
(-0.172121 0.217132 0)
(-0.172966 0.201434 0)
(-0.174203 0.186423 0)
(-0.17601 0.172146 0)
(-0.178324 0.158402 0)
(-0.181077 0.144952 0)
(-0.184107 0.131538 0)
(-0.187308 0.117974 0)
(-0.190547 0.104117 0)
(-0.193754 0.0898921 0)
(-0.196848 0.0752592 0)
(-0.199791 0.0602173 0)
(-0.202532 0.0447841 0)
(-0.205049 0.0289991 0)
(-0.207308 0.0129132 0)
(-0.209294 -0.00340913 0)
(-0.210987 -0.0198956 0)
(-0.212383 -0.0364667 0)
(-0.213474 -0.05304 0)
(-0.214271 -0.0695335 0)
(-0.214781 -0.085869 0)
(-0.215026 -0.101976 0)
(-0.215031 -0.117797 0)
(-0.214829 -0.133286 0)
(-0.214466 -0.148423 0)
(-0.214011 -0.163215 0)
(-0.213571 -0.177729 0)
(-0.213329 -0.192113 0)
(-0.213571 -0.206678 0)
(-0.214721 -0.221923 0)
(-0.217303 -0.238624 0)
(-0.221798 -0.257626 0)
(-0.228271 -0.279588 0)
(-0.235815 -0.303982 0)
(-0.241922 -0.328216 0)
(-0.242202 -0.346231 0)
(-0.230967 -0.348819 0)
(-0.203064 -0.324954 0)
(-0.157346 -0.267701 0)
(-0.100702 -0.18227 0)
(-0.0498496 -0.0940668 0)
(-0.0196136 -0.0311759 0)
(-0.00553164 0.00268455 0)
(-0.000256413 0.0155087 0)
(0.000263945 0.0109101 0)
(-0.00226284 0.0439157 0)
(-0.0114645 0.0893986 0)
(-0.0252963 0.117767 0)
(-0.0402263 0.143766 0)
(-0.0571986 0.172623 0)
(-0.0746019 0.202847 0)
(-0.0923937 0.231827 0)
(-0.108919 0.256156 0)
(-0.123628 0.273582 0)
(-0.13539 0.282569 0)
(-0.144165 0.283254 0)
(-0.149881 0.2767 0)
(-0.153301 0.264961 0)
(-0.155077 0.25011 0)
(-0.156144 0.23406 0)
(-0.157058 0.218025 0)
(-0.158326 0.202701 0)
(-0.160077 0.188224 0)
(-0.162393 0.17448 0)
(-0.165144 0.161175 0)
(-0.168243 0.148034 0)
(-0.171525 0.134797 0)
(-0.174902 0.121298 0)
(-0.178263 0.107416 0)
(-0.181559 0.0931014 0)
(-0.184726 0.0783279 0)
(-0.187737 0.0631067 0)
(-0.190549 0.0474618 0)
(-0.193143 0.0314375 0)
(-0.195485 0.0150885 0)
(-0.197559 -0.00151609 0)
(-0.199341 -0.0182987 0)
(-0.200825 -0.0351733 0)
(-0.202 -0.0520504 0)
(-0.202874 -0.0688406 0)
(-0.203451 -0.0854589 0)
(-0.203754 -0.101828 0)
(-0.203801 -0.117885 0)
(-0.203622 -0.133576 0)