/*--------------------------------*- C++ -*----------------------------------*\
| =========                 |                                                 |
| \\      /  F ield         | OpenFOAM: The Open Source CFD Toolbox           |
|  \\    /   O peration     | Version:  2406                                  |
|   \\  /    A nd           | Website:  www.openfoam.com                      |
|    \\/     M anipulation  |                                                 |
\*---------------------------------------------------------------------------*/
FoamFile
{
    version     2.0;
    format      ascii;
    arch        "LSB;label=32;scalar=64";
    class       volScalarField;
    location    "34.8";
    object      p;
}
// * * * * * * * * * * * * * * * * * * * * * * * * * * * * * * * * * * * * * //

dimensions      [0 2 -2 0 0 0 0];

internalField   nonuniform List<scalar> 
900
(
3.0057e-06
6.60668e-05
-9.87147e-05
-0.000237008
-0.000433542
-0.000601303
-0.000834878
-0.00114288
-0.00165632
-0.00235754
-0.00302631
-0.00343801
-0.00354645
-0.00349406
-0.00332755
-0.0028516
-0.00186963
-0.000193444
0.00211046
0.00494795
0.007728
0.0100689
0.0109556
0.0104521
0.00826875
0.00623627
0.00464664
0.00443664
0.00407918
0.00426619
-4.03104e-05
2.08051e-05
-0.000140455
-0.000249483
-0.00040244
-0.000519116
-0.000708536
-0.000966827
-0.00126678
-0.00165147
-0.0023253
-0.00310994
-0.00365718
-0.00396188
-0.00405296
-0.0037591
-0.00292093
-0.00137432
0.000803837
0.00352805
0.0062369
0.00855935
0.00951052
0.00911035
0.00706681
0.00525744
0.00396758
0.00417111
0.00405255
0.00433269
1.59821e-05
3.75606e-05
-0.000174058
-0.000308807
-0.000438297
-0.000526059
-0.000650096
-0.000861605
-0.0014538
-0.00245745
-0.00365343
-0.00487982
-0.00594678
-0.00674435
-0.00717531
-0.00708385
-0.00637496
-0.00492423
-0.00282657
-0.000122093
0.00269692
0.0053251
0.00684869
0.00712229
0.00575247
0.00428365
0.0031052
0.00345046
0.00340509
0.00370537
0.000205534
0.000144742
-0.000108688
-0.000255757
-0.000348237
-0.000439014
-0.000768511
-0.00149889
-0.0026488
-0.00422782
-0.006084
-0.00793321
-0.00952208
-0.0107251
-0.0114698
-0.0116437
-0.0112172
-0.0100732
-0.00831821
-0.00588481
-0.00316949
-0.000267572
0.0020407
0.00357971
0.00381162
0.00344629
0.00302268
0.00326496
0.00308609
0.00333635
0.000493124
0.000301438
-5.73757e-06
-0.000220801
-0.000411654
-0.000843903
-0.00172774
-0.00322422
-0.00528455
-0.00767625
-0.0100896
-0.0123075
-0.0141524
-0.0155327
-0.0164169
-0.0167327
-0.0165183
-0.0156538
-0.0142825
-0.0122223
-0.00981603
-0.00688159
-0.00406114
-0.00130754
0.000666945
0.00207116
0.00263083
0.00328432
0.00264304
0.00284328
0.00114434
0.000826517
0.000484214
7.35938e-05
-0.000490539
-0.0015915
-0.00337826
-0.00582658
-0.00863104
-0.0115162
-0.0142042
-0.0165276
-0.0183913
-0.0197537
-0.0206459
-0.0210143
-0.0209593
-0.0203386
-0.0193554
-0.0177257
-0.015817
-0.0131881
-0.0104184
-0.00706919
-0.0038409
-0.000701174
0.00149775
0.00321598
0.00215048
0.00245878
0.00185559
0.00141015
0.000972927
0.000182602
-0.001019
-0.00306464
-0.00581972
-0.00906125
-0.0123547
-0.0154408
-0.0181158
-0.0203144
-0.0220257
-0.0232446
-0.0240488
-0.0243785
-0.0243857
-0.0238901
-0.023168
-0.0218476
-0.0203869
-0.0181453
-0.0157746
-0.0124342
-0.00885049
-0.00477031
-0.000624149
0.00134833
0.00230311
0.00147666
0.00268231
0.00213279
0.00149501
0.000127773
-0.00193131
-0.00496258
-0.00853328
-0.0122701
-0.0157452
-0.0187991
-0.021334
-0.0233596
-0.0249273
-0.0260349
-0.0267936
-0.0271106
-0.0271844
-0.0267762
-0.0262421
-0.0251137
-0.0239756
-0.0220217
-0.020082
-0.0169783
-0.0136472
-0.00912014
-0.00413205
-0.000895257
0.0024257
8.54681e-05
0.00293394
0.00228645
0.00137134
-0.000626361
-0.0035071
-0.00734344
-0.0114326
-0.0153796
-0.0188249
-0.0217304
-0.0240841
-0.0259479
-0.0274012
-0.0284256
-0.0291543
-0.029451
-0.0295663
-0.0291935
-0.0287814
-0.0277538
-0.0268401
-0.0250691
-0.0234913
-0.020657
-0.0178052
-0.0133364
-0.00843517
-0.00351388
3.52457e-06
-0.000683678
0.0026683
0.00194377
0.000700497
-0.00187133
-0.00542633
-0.00977729
-0.0140972
-0.0180325
-0.0213476
-0.024093
-0.0263222
-0.0281013
-0.0295218
-0.0305256
-0.0312719
-0.0315676
-0.0317275
-0.0313631
-0.03103
-0.0300314
-0.0292563
-0.0275651
-0.0262489
-0.0236103
-0.0212301
-0.0170095
-0.0123777
-0.00656158
-0.00167826
0.000201099
0.0015637
0.000789068
-0.000728834
-0.00371896
-0.007701
-0.0123035
-0.0166413
-0.0204598
-0.023618
-0.0262327
-0.028386
-0.0301262
-0.0315468
-0.0325431
-0.0333086
-0.0335873
-0.033773
-0.033384
-0.0330987
-0.0320826
-0.0313953
-0.0297121
-0.0285678
-0.026031
-0.0240423
-0.0200886
-0.0159223
-0.00967952
-0.0030634
0.000348458
3.56386e-05
-0.000752745
-0.00249605
-0.00571735
-0.00990806
-0.0145249
-0.0187482
-0.0223953
-0.0254246
-0.027962
-0.0301123
-0.0318711
-0.0333446
-0.034364
-0.035174
-0.0354404
-0.0356543
-0.0352253
-0.0349733
-0.033913
-0.0332883
-0.0315788
-0.0305623
-0.0280728
-0.0264051
-0.0227425
-0.0192684
-0.0133098
-0.00648892
-0.00230253
-0.00187968
-0.00265298
-0.00453105
-0.00785007
-0.0120869
-0.0166229
-0.0206937
-0.0241948
-0.0271342
-0.0296373
-0.0318141
-0.0336031
-0.0351322
-0.0361609
-0.0370021
-0.0372299
-0.0374516
-0.0369519
-0.0367095
-0.0355736
-0.0349856
-0.0332169
-0.0322926
-0.0298038
-0.0283901
-0.0249544
-0.0221862
-0.0168288
-0.0107275
-0.00653506
-0.00370641
-0.00443081
-0.00639785
-0.00967957
-0.0138588
-0.0182171
-0.0221273
-0.0254912
-0.0283865
-0.0308889
-0.0331347
-0.0349801
-0.036598
-0.0376551
-0.0385526
-0.0387518
-0.0389944
-0.0384234
-0.0381921
-0.0369737
-0.0364178
-0.0345812
-0.0337371
-0.0312306
-0.0300312
-0.0267857
-0.0246945
-0.0200211
-0.0150524
-0.0111185
-0.00542282
-0.0060921
-0.00808982
-0.0113072
-0.0153889
-0.0196067
-0.0233999
-0.0266881
-0.0295756
-0.0320979
-0.034417
-0.0363073
-0.0380039
-0.0390666
-0.0400068
-0.0401519
-0.0403988
-0.0397301
-0.0394901
-0.0381627
-0.037617
-0.0356866
-0.0348995
-0.0323404
-0.0313053
-0.0281609
-0.0266225
-0.0225548
-0.0187962
-0.015284
-0.00670185
-0.00728362
-0.00929404
-0.0123686
-0.0163361
-0.0203742
-0.024078
-0.0272916
-0.0301982
-0.0327422
-0.0351528
-0.0370947
-0.0388955
-0.039982
-0.0409964
-0.0411097
-0.0413888
-0.0406395
-0.0404071
-0.038978
-0.0384463
-0.0364198
-0.0356844
-0.0330598
-0.0321692
-0.0290714
-0.0279934
-0.0243585
-0.0216841
-0.0185491
-0.00770008
-0.00820037
-0.0101643
-0.0131224
-0.016966
-0.020902
-0.024563
-0.027761
-0.0307069
-0.0332748
-0.0357684
-0.0377385
-0.0396312
-0.0407172
-0.0417973
-0.0418593
-0.0421624
-0.0413147
-0.0410766
-0.0395232
-0.0389838
-0.0368293
-0.0361137
-0.0333749
-0.0325784
-0.0294331
-0.0287042
-0.0253303
-0.0235994
-0.020759
-0.00822086
-0.00858539
-0.0104759
-0.0132237
-0.0169439
-0.0207146
-0.0243522
-0.0275066
-0.0305044
-0.033079
-0.0356625
-0.0376572
-0.0396605
-0.0407631
-0.0419422
-0.0419844
-0.0423484
-0.0414341
-0.0412183
-0.0395596
-0.039023
-0.0367405
-0.0360393
-0.0331672
-0.0324497
-0.0291987
-0.0287598
-0.0254673
-0.024535
-0.0218491
-0.00860272
-0.00883442
-0.0105381
-0.0130939
-0.0166219
-0.0202893
-0.0239114
-0.0270729
-0.0301343
-0.0327124
-0.0353776
-0.0373688
-0.0394742
-0.0405703
-0.041848
-0.0418579
-0.0422856
-0.0412936
-0.0410949
-0.0393091
-0.0387529
-0.0363014
-0.0355715
-0.0325
-0.0318036
-0.0283476
-0.0281299
-0.0247548
-0.0245332
-0.0218488
-0.008605
-0.00861755
-0.0101102
-0.012311
-0.0156438
-0.0190719
-0.0226823
-0.0257916
-0.0289351
-0.031506
-0.0342721
-0.0362655
-0.0384927
-0.0396019
-0.0410052
-0.0410155
-0.041539
-0.0405032
-0.0403463
-0.0384529
-0.037883
-0.0352582
-0.0344855
-0.0311866
-0.0304901
-0.0267707
-0.0267534
-0.0231532
-0.0236141
-0.0207642
-0.0086675
-0.00849293
-0.00965177
-0.0115134
-0.014465
-0.0176791
-0.0212093
-0.0243064
-0.0275444
-0.0301178
-0.0329999
-0.0349793
-0.0373385
-0.0384441
-0.0399882
-0.039989
-0.0406243
-0.0395325
-0.0394213
-0.0373931
-0.0367886
-0.0339393
-0.0330739
-0.0294685
-0.0287063
-0.0246158
-0.0247555
-0.0207615
-0.0218933
-0.0186502
-0.00824599
-0.00782229
-0.0087631
-0.0100571
-0.0126718
-0.0154286
-0.0188788
-0.0218637
-0.0252357
-0.0278307
-0.0308865
-0.0328981
-0.0354276
-0.0365686
-0.038273
-0.0382976
-0.0390536
-0.0379324
-0.0378638
-0.0357111
-0.0350505
-0.0319617
-0.0309629
-0.0270101
-0.0261376
-0.021614
-0.0219011
-0.0173909
-0.0192776
-0.015401
-0.00803801
-0.00761218
-0.00816002
-0.00900004
-0.0108805
-0.0131749
-0.016327
-0.0192047
-0.0227045
-0.0253482
-0.0286371
-0.0306976
-0.0334544
-0.0346312
-0.0365443
-0.0365813
-0.0375004
-0.0363263
-0.0363306
-0.034014
-0.0333051
-0.0299192
-0.0287672
-0.0243919
-0.0233688
-0.0183102
-0.0187087
-0.0134793
-0.0160826
-0.0110978
-0.00726802
-0.00679746
-0.00714159
-0.0072234
-0.00854956
-0.010008
-0.0129048
-0.0155168
-0.0191957
-0.021924
-0.0255318
-0.0277359
-0.0307795
-0.0320713
-0.0342042
-0.0343094
-0.0353645
-0.0341787
-0.0342023
-0.0317478
-0.0309154
-0.0272316
-0.0258326
-0.020992
-0.0197134
-0.0140331
-0.0144618
-0.00836154
-0.0117678
-0.00515773
-0.00702045
-0.00705781
-0.00680753
-0.00650949
-0.00651284
-0.00720367
-0.00939459
-0.011705
-0.0154781
-0.0183012
-0.0223074
-0.0246944
-0.0281356
-0.0295621
-0.0320199
-0.0321768
-0.0334733
-0.0322265
-0.0323872
-0.0297234
-0.0289049
-0.0248474
-0.0233546
-0.0179882
-0.0165837
-0.0102213
-0.0106566
-0.00347018
-0.00719715
0.00244535
-0.0063783
-0.00608177
-0.00587622
-0.00444827
-0.00387379
-0.00334517
-0.00515263
-0.00700733
-0.0109513
-0.0138877
-0.0183274
-0.0209901
-0.0248451
-0.0265134
-0.029268
-0.0295838
-0.0310418
-0.0298527
-0.0300221
-0.0272874
-0.0263052
-0.0220097
-0.0201846
-0.0143561
-0.0125049
-0.005336
-0.00530169
0.00336537
7.24552e-06
0.014056
-0.00554719
-0.00693668
-0.00574616
-0.00429126
-0.00183375
-0.000529272
-0.00127992
-0.0027507
-0.00667851
-0.0097112
-0.014605
-0.0175493
-0.021915
-0.0238211
-0.0270112
-0.0274315
-0.0292476
-0.0279954
-0.0284728
-0.0254826
-0.0247991
-0.0200456
-0.0185539
-0.0120578
-0.0105064
-0.00233823
-0.00205079
0.0084742
0.00738841
0.0313919
-0.00636947
-0.0053655
-0.00480187
-0.000918121
0.00138272
0.00371925
0.00287539
0.00171215
-0.00241424
-0.00556937
-0.0108082
-0.0140423
-0.0187755
-0.0209731
-0.0244598
-0.025113
-0.0271187
-0.0260378
-0.0265736
-0.0237062
-0.022904
-0.0182152
-0.0163186
-0.00968438
-0.00714475
0.00193332
0.00469727
0.0187611
0.0272449
0.06617
-0.000757354
-0.00687146
-0.00486232
-0.00232502
0.00257239
0.00528321
0.00551545
0.00441808
0.000364558
-0.00292099
-0.00847526
-0.011933
-0.0170551
-0.0194477
-0.0233072
-0.0240458
-0.026428
-0.0252729
-0.0262589
-0.0231042
-0.0229395
-0.0176701
-0.01673
-0.00907079
-0.00771027
0.00340946
0.00651408
0.027691
0.0469286
0.114189
-0.0211998
-0.00366662
-0.00036552
0.00341574
0.00645892
0.00874279
0.00758986
0.0062194
0.00185191
-0.00152209
-0.00709315
-0.0106312
-0.0157639
-0.0182634
-0.0221603
-0.0230214
-0.0254323
-0.0244236
-0.0253671
-0.0224222
-0.0220173
-0.0170742
-0.0153242
-0.00793605
-0.00372629
0.0092272
0.0240523
0.0616771
0.125149
0.240784
)
;

boundaryField
{
    movingWall
    {
        type            zeroGradient;
    }
    fixedWalls
    {
        type            zeroGradient;
    }
    frontAndBack
    {
        type            empty;
    }
}


// ************************************************************************* //
