/*--------------------------------*- C++ -*----------------------------------*\
| =========                 |                                                 |
| \\      /  F ield         | OpenFOAM: The Open Source CFD Toolbox           |
|  \\    /   O peration     | Version:  2406                                  |
|   \\  /    A nd           | Website:  www.openfoam.com                      |
|    \\/     M anipulation  |                                                 |
\*---------------------------------------------------------------------------*/
FoamFile
{
    version     2.0;
    format      ascii;
    arch        "LSB;label=32;scalar=64";
    class       surfaceScalarField;
    location    "24.9";
    object      phi;
}
// * * * * * * * * * * * * * * * * * * * * * * * * * * * * * * * * * * * * * //

dimensions      [0 3 -1 0 0 0 0];

oriented        oriented;

internalField   nonuniform List<scalar> 
28560
(
-2.49671e-09
2.49635e-09
4.31128e-08
-4.74115e-08
1.34056e-07
-9.11885e-08
2.57456e-07
-1.25423e-07
4.00463e-07
-1.44028e-07
5.5113e-07
-1.52736e-07
7.01741e-07
-1.5199e-07
8.45464e-07
-1.45579e-07
9.78581e-07
-1.34477e-07
1.09797e-06
-1.2089e-07
1.20246e-06
-1.05618e-07
1.29126e-06
-8.99101e-08
1.36472e-06
-7.42705e-08
1.42335e-06
-5.93329e-08
1.46818e-06
-4.53114e-08
1.50025e-06
-3.24233e-08
1.52072e-06
-2.06361e-08
1.53056e-06
-9.8751e-09
1.5306e-06
9.17052e-11
1.52131e-06
9.54731e-09
1.50286e-06
1.88725e-08
1.47494e-06
2.84846e-08
1.43682e-06
3.88488e-08
1.3873e-06
5.0436e-08
1.3247e-06
6.37172e-08
1.24691e-06
7.91339e-08
1.15144e-06
9.709e-08
1.03542e-06
1.17935e-07
8.95716e-07
1.41964e-07
7.28947e-07
1.69408e-07
5.31568e-07
2.00444e-07
2.99911e-07
2.35191e-07
3.02473e-08
2.73713e-07
-2.8116e-07
3.16014e-07
-6.37986e-07
3.62032e-07
-1.04377e-06
4.11628e-07
-1.50183e-06
4.64576e-07
-2.01516e-06
5.20543e-07
-2.58631e-06
5.79083e-07
-3.21727e-06
6.39623e-07
-3.90933e-06
7.01458e-07
-4.66296e-06
7.63751e-07
-5.47766e-06
8.25534e-07
-6.35189e-06
8.85716e-07
-7.28289e-06
9.43098e-07
-8.26663e-06
9.96393e-07
-9.29777e-06
1.04424e-06
-1.03695e-05
1.08525e-06
-1.14738e-05
1.11799e-06
-1.26011e-05
1.14108e-06
-1.37405e-05
1.15317e-06
-1.48798e-05
1.15298e-06
-1.60059e-05
1.13935e-06
-1.71045e-05
1.11126e-06
-1.81603e-05
1.06785e-06
-1.91577e-05
1.00846e-06
-2.00803e-05
9.32633e-07
-2.09117e-05
8.4018e-07
-2.16355e-05
7.31168e-07
-2.22357e-05
6.05963e-07
-2.26969e-05
4.65251e-07
-2.30049e-05
3.10056e-07
-2.31465e-05
1.41765e-07
-2.31105e-05
-3.78589e-08
-2.28879e-05
-2.26665e-07
-2.2472e-05
-4.22116e-07
-2.18591e-05
-6.213e-07
-2.10486e-05
-8.20951e-07
-2.00437e-05
-1.01749e-06
-1.88511e-05
-1.20711e-06
-1.74815e-05
-1.38581e-06
-1.59499e-05
-1.54955e-06
-1.4275e-05
-1.69434e-06
-1.24791e-05
-1.81642e-06
-1.05883e-05
-1.91235e-06
-8.63116e-06
-1.97923e-06
-6.6388e-06
-2.01483e-06
-4.64356e-06
-2.01773e-06
-2.67833e-06
-1.98743e-06
-7.75498e-07
-1.92442e-06
1.03409e-06
-1.83025e-06
2.72211e-06
-1.70749e-06
4.26373e-06
-1.55963e-06
5.63841e-06
-1.391e-06
6.83051e-06
-1.20656e-06
7.82972e-06
-1.01166e-06
8.63123e-06
-8.11872e-07
9.23564e-06
-6.12648e-07
9.64864e-06
-4.19137e-07
9.88049e-06
-2.3594e-07
9.94526e-06
-6.69442e-08
9.86007e-06
8.48055e-08
9.64411e-06
2.17174e-07
9.31777e-06
3.28941e-07
8.9018e-06
4.1976e-07
8.41649e-06
4.90066e-07
7.88104e-06
5.40955e-07
7.31305e-06
5.74034e-07
6.72817e-06
5.91287e-07
6.13986e-06
5.949e-07
5.55934e-06
5.87169e-07
4.99556e-06
5.70339e-07
4.45538e-06
5.46582e-07
3.94365e-06
5.17847e-07
3.46356e-06
4.85949e-07
3.01666e-06
4.52372e-07
2.60334e-06
4.18509e-07
2.22275e-06
3.85302e-07
1.87353e-06
3.53725e-07
1.55345e-06
3.24044e-07
1.26059e-06
2.96746e-07
9.92757e-07
2.71052e-07
7.49297e-07
2.46813e-07
5.30177e-07
2.21534e-07
3.38505e-07
1.94495e-07
1.79173e-07
1.60773e-07
6.04982e-08
1.20836e-07
-7.87161e-09
6.87346e-08
-2.36876e-08
1.72013e-08
-2.37227e-08
4.67978e-08
-4.24999e-08
1.91803e-07
-1.92414e-07
4.24163e-07
-3.20415e-07
7.19444e-07
-4.19067e-07
1.05597e-06
-4.7699e-07
1.40986e-06
-5.04021e-07
1.76433e-06
-5.02958e-07
2.1039e-06
-4.8237e-07
2.41892e-06
-4.46453e-07
2.70144e-06
-4.00961e-07
2.94738e-06
-3.49174e-07
3.15393e-06
-2.94587e-07
3.32056e-06
-2.39235e-07
3.44741e-06
-1.84938e-07
3.53569e-06
-1.32609e-07
3.58673e-06
-8.28419e-08
3.6021e-06
-3.56309e-08
3.58295e-06
9.33926e-09
3.53005e-06
5.27997e-08
3.4434e-06
9.57375e-08
3.32213e-06
1.39415e-07
3.16434e-06
1.8526e-07
2.96704e-06
2.34833e-07
2.72609e-06
2.89734e-07
2.43623e-06
3.51545e-07
2.09116e-06
4.21754e-07
1.68361e-06
5.017e-07
1.20552e-06
5.92527e-07
6.48197e-07
6.95157e-07
2.50723e-09
8.10265e-07
-7.40948e-07
9.38279e-07
-1.59161e-06
1.07937e-06
-2.55878e-06
1.23343e-06
-3.65132e-06
1.40007e-06
-4.87749e-06
1.57861e-06
-6.24461e-06
1.76797e-06
-7.7588e-06
1.96673e-06
-9.42464e-06
2.17305e-06
-1.12448e-05
2.38462e-06
-1.322e-05
2.5987e-06
-1.5348e-05
2.8121e-06
-1.76243e-05
3.02123e-06
-2.00409e-05
3.22212e-06
-2.2587e-05
3.4105e-06
-2.52483e-05
3.58189e-06
-2.8007e-05
3.73169e-06
-3.08424e-05
3.85529e-06
-3.37303e-05
3.94819e-06
-3.66439e-05
4.00612e-06
-3.95536e-05
4.02512e-06
-4.24277e-05
4.00167e-06
-4.52327e-05
3.93277e-06
-4.7934e-05
3.81601e-06
-5.0496e-05
3.64965e-06
-5.2883e-05
3.43264e-06
-5.50599e-05
3.16468e-06
-5.69922e-05
2.84625e-06
-5.86469e-05
2.47859e-06
-5.99931e-05
2.06377e-06
-6.10025e-05
1.60465e-06
-6.16495e-05
1.10491e-06
-6.19125e-05
5.69069e-07
-6.17734e-05
2.47203e-09
-6.12188e-05
-5.88717e-07
-6.02403e-05
-1.19752e-06
-5.88345e-05
-1.81619e-06
-5.70038e-05
-2.43623e-06
-5.47564e-05
-3.0485e-06
-5.21069e-05
-3.64331e-06
-4.90761e-05
-4.21059e-06
-4.56911e-05
-4.74001e-06
-4.19855e-05
-5.22131e-06
-3.79988e-05
-5.64445e-06
-3.37764e-05
-6.00002e-06
-2.93686e-05
-6.2795e-06
-2.48305e-05
-6.47562e-06
-2.02202e-05
-6.5827e-06
-1.55985e-05
-6.59699e-06
-1.10272e-05
-6.51691e-06
-6.56767e-06
-6.34327e-06
-2.27962e-06
-6.0794e-06
1.78068e-06
-5.73117e-06
5.56175e-06
-5.30688e-06
9.01842e-06
-4.81704e-06
1.2113e-05
-4.27405e-06
1.48164e-05
-3.69177e-06
1.71088e-05
-3.08494e-06
1.89802e-05
-2.46866e-06
2.04302e-05
-1.85777e-06
2.14681e-05
-1.26625e-06
2.21119e-05
-7.0669e-07
2.23872e-05
-1.89846e-07
2.23263e-05
2.75715e-07
2.19665e-05
6.83817e-07
2.13484e-05
1.03075e-06
2.05143e-05
1.31521e-06
1.95069e-05
1.5381e-06
1.83674e-05
1.70226e-06
1.71346e-05
1.8121e-06
1.5844e-05
1.87318e-06
1.45269e-05
1.89185e-06
1.32102e-05
1.87482e-06
1.1916e-05
1.82889e-06
1.06618e-05
1.76056e-06
9.46088e-06
1.67603e-06
8.32223e-06
1.58074e-06
7.25155e-06
1.47966e-06
6.25123e-06
1.37665e-06
5.32168e-06
1.27514e-06
4.46115e-06
1.17686e-06
3.6679e-06
1.08322e-06
2.9395e-06
9.92863e-07
2.27624e-06
9.04646e-07
1.67949e-06
8.12744e-07
1.15627e-06
7.13833e-07
7.15464e-07
5.97198e-07
3.71778e-07
4.62586e-07
1.37458e-07
3.00042e-07
1.83719e-08
1.36393e-07
-6.72269e-09
8.95999e-08
-1.31852e-07
3.17962e-07
-4.23907e-07
6.61284e-07
-6.63731e-07
1.08206e-06
-8.42932e-07
1.55379e-06
-9.50157e-07
2.04512e-06
-9.9834e-07
2.5344e-06
-9.94264e-07
3.00076e-06
-9.51401e-07
3.43072e-06
-8.78426e-07
3.81282e-06
-7.85249e-07
4.14053e-06
-6.78575e-07
4.40901e-06
-5.6469e-07
4.61629e-06
-4.47745e-07
4.76136e-06
-3.31065e-07
4.84452e-06
-2.16514e-07
4.86625e-06
-1.05127e-07
4.82723e-06
3.10314e-09
4.72757e-06
1.08903e-07
4.56674e-06
2.13762e-07
4.34308e-06
3.19733e-07
4.05366e-06
4.29388e-07
3.69403e-06
5.45653e-07
3.25818e-06
6.71694e-07
2.73843e-06
8.10752e-07
2.12554e-06
9.66e-07
1.4088e-06
1.14039e-06
5.76248e-07
1.33654e-06
-3.8509e-07
1.55658e-06
-1.48888e-06
1.80216e-06
-2.74914e-06
2.07429e-06
-4.17987e-06
2.3734e-06
-5.79465e-06
2.69922e-06
-7.60622e-06
3.05082e-06
-9.62601e-06
3.42651e-06
-1.18637e-05
3.82381e-06
-1.43266e-05
4.23938e-06
-1.70194e-05
4.66897e-06
-1.99433e-05
5.10743e-06
-2.30958e-05
5.54864e-06
-2.647e-05
5.98563e-06
-3.00548e-05
6.41063e-06
-3.3834e-05
6.81519e-06
-3.77864e-05
7.1904e-06
-4.18861e-05
7.52708e-06
-4.61025e-05
7.81603e-06
-5.04005e-05
8.04827e-06
-5.47414e-05
8.21531e-06
-5.90828e-05
8.30936e-06
-6.33802e-05
8.32357e-06
-6.7587e-05
8.25222e-06
-7.1656e-05
8.09079e-06
-7.55396e-05
7.83613e-06
-7.91907e-05
7.48647e-06
-8.2564e-05
7.04142e-06
-8.56159e-05
6.50198e-06
-8.83056e-05
5.87049e-06
-9.05955e-05
5.15058e-06
-9.24514e-05
4.34712e-06
-9.38433e-05
3.46614e-06
-9.47453e-05
2.51482e-06
-9.51362e-05
1.50142e-06
-9.49996e-05
4.35283e-07
-9.43241e-05
-6.73211e-07
-9.31033e-05
-1.81265e-06
-9.13365e-05
-2.97063e-06
-8.90285e-05
-4.13376e-06
-8.61896e-05
-5.28777e-06
-8.28364e-05
-6.41758e-06
-7.89912e-05
-7.5074e-06
-7.46825e-05
-8.54101e-06
-6.9945e-05
-9.50192e-06
-6.48195e-05
-1.03737e-05
-5.93526e-05
-1.11404e-05
-5.35965e-05
-1.17869e-05
-4.76087e-05
-1.22994e-05
-4.14513e-05
-1.2666e-05
-3.51904e-05
-1.28771e-05
-2.88948e-05
-1.29261e-05
-2.26352e-05
-1.28095e-05
-1.6483e-05
-1.25276e-05
-1.05086e-05
-1.20845e-05
-4.78024e-06
-1.14884e-05
6.3784e-07
-1.07516e-05
5.68666e-06
-9.89e-06
1.03141e-05
-8.92286e-06
1.44763e-05
-7.87229e-06
1.81385e-05
-6.76244e-06
2.12764e-05
-5.6187e-06
2.38764e-05
-4.46682e-06
2.59361e-05
-3.33193e-06
2.74638e-05
-2.23767e-06
2.84787e-05
-1.20534e-06
2.90093e-05
-2.53176e-07
2.90927e-05
6.04232e-07
2.87727e-05
1.35629e-06
2.80982e-05
1.99657e-06
2.71216e-05
2.52276e-06
2.58963e-05
2.93639e-06
2.44754e-05
3.24243e-06
2.29096e-05
3.44864e-06
2.12462e-05
3.56501e-06
1.95277e-05
3.60292e-06
1.77913e-05
3.57466e-06
1.60683e-05
3.49259e-06
1.43841e-05
3.36889e-06
1.27581e-05
3.2148e-06
1.12046e-05
3.04069e-06
9.73308e-06
2.85517e-06
8.34918e-06
2.66565e-06
7.05513e-06
2.47675e-06
5.85235e-06
2.29169e-06
4.74064e-06
2.1093e-06
3.7227e-06
1.92748e-06
2.80157e-06
1.73737e-06
1.98731e-06
1.53228e-06
1.29025e-06
1.29618e-06
7.29839e-07
1.02651e-06
3.19334e-07
7.10386e-07
7.68461e-08
3.82005e-07
6.95911e-08
1.23501e-07
-2.53327e-07
4.16849e-07
-7.18916e-07
8.41828e-07
-1.08562e-06
1.34895e-06
-1.35008e-06
1.90821e-06
-1.5069e-06
2.48351e-06
-1.57269e-06
3.05086e-06
-1.55944e-06
3.58614e-06
-1.48539e-06
4.07364e-06
-1.36413e-06
4.49941e-06
-1.20978e-06
4.85495e-06
-1.03273e-06
5.13343e-06
-8.42172e-07
5.33117e-06
-6.44518e-07
5.44543e-06
-4.44643e-07
5.47487e-06
-2.45369e-07
5.4182e-06
-4.81006e-08
5.27423e-06
1.47305e-07
5.041e-06
3.42188e-07
4.71561e-06
5.39058e-07
4.29375e-06
7.4135e-07
3.76944e-06
9.53298e-07
3.13484e-06
1.17969e-06
2.38015e-06
1.42566e-06
1.49357e-06
1.6964e-06
4.61488e-07
1.99694e-06
-7.31348e-07
2.33184e-06
-2.10148e-06
2.705e-06
-3.66633e-06
3.11945e-06
-5.44368e-06
3.57717e-06
-7.45117e-06
4.07904e-06
-9.70563e-06
4.62467e-06
-1.22225e-05
5.21238e-06
-1.5015e-05
5.83912e-06
-1.80937e-05
6.50038e-06
-2.14655e-05
7.19012e-06
-2.5133e-05
7.90076e-06
-2.9094e-05
8.62312e-06
-3.33406e-05
9.34652e-06
-3.78592e-05
1.00589e-05
-4.26297e-05
1.0747e-05
-4.76257e-05
1.13967e-05
-5.28144e-05
1.19932e-05
-5.81572e-05
1.25219e-05
-6.36104e-05
1.29682e-05
-6.91255e-05
1.33184e-05
-7.46506e-05
1.35601e-05
-8.01314e-05
1.36824e-05
-8.55121e-05
1.36761e-05
-9.07371e-05
1.35343e-05
-9.57513e-05
1.32521e-05
-0.000100502
1.28269e-05
-0.000104938
1.22583e-05
-0.000109013
1.15479e-05
-0.000112683
1.06991e-05
-0.000115911
9.71721e-06
-0.00011866
8.60896e-06
-0.000120902
7.38252e-06
-0.000122611
6.0473e-06
-0.000123766
4.61383e-06
-0.00012435
3.09372e-06
-0.000124352
1.49958e-06
-0.000123763
-1.54998e-07
-0.00012258
-1.85539e-06
-0.000120804
-3.58596e-06
-0.00011844
-5.33003e-06
-0.000115497
-7.06985e-06
-0.000111989
-8.78663e-06
-0.000107934
-1.04606e-05
-0.000103357
-1.20712e-05
-9.82858e-05
-1.35971e-05
-9.27542e-05
-1.50165e-05
-8.68015e-05
-1.63077e-05
-8.04725e-05
-1.74492e-05
-7.38174e-05
-1.84207e-05
-6.68917e-05
-1.9203e-05
-5.97555e-05
-1.97794e-05
-5.24736e-05
-2.0136e-05
-4.51143e-05
-2.02623e-05
-3.7749e-05
-2.01521e-05
-3.04506e-05
-1.98039e-05
-2.32925e-05
-1.92214e-05
-1.63475e-05
-1.84136e-05
-9.68577e-06
-1.73949e-05
-3.37402e-06
-1.61851e-05
2.52648e-06
-1.48086e-05
7.96109e-06
-1.32941e-05
1.28831e-05
-1.16738e-05
1.7255e-05
-9.98202e-06
2.10491e-05
-8.25456e-06
2.42488e-05
-6.52719e-06
2.68481e-05
-4.83462e-06
2.88527e-05
-3.2093e-06
3.02789e-05
-1.68038e-06
3.11534e-05
-2.72759e-07
3.15123e-05
9.93634e-07
3.13998e-05
2.10433e-06
3.08664e-05
3.05061e-06
2.99673e-05
3.8294e-06
2.87601e-05
4.44305e-06
2.73033e-05
4.89872e-06
2.56538e-05
5.20767e-06
2.38656e-05
5.38431e-06
2.19883e-05
5.44531e-06
2.0066e-05
5.40854e-06
1.81365e-05
5.29232e-06
1.62311e-05
5.11435e-06
1.43751e-05
4.8914e-06
1.25871e-05
4.63807e-06
1.08812e-05
4.36702e-06
9.26646e-06
4.08708e-06
7.75004e-06
3.80445e-06
6.3361e-06
3.51933e-06
5.03138e-06
3.22947e-06
3.8412e-06
2.92404e-06
2.77868e-06
2.59325e-06
1.85482e-06
2.21673e-06
1.09361e-06
1.78788e-06
5.10281e-07
1.29007e-06
1.39821e-07
7.54812e-07
2.07125e-07
1.43524e-07
-3.95793e-07
4.79866e-07
-1.05887e-06
9.59034e-07
-1.56328e-06
1.52086e-06
-1.91446e-06
2.13131e-06
-2.1173e-06
2.75019e-06
-2.19351e-06
3.35189e-06
-2.16176e-06
3.91019e-06
-2.04522e-06
4.40801e-06
-1.86278e-06
4.82968e-06
-1.63265e-06
5.16517e-06
-1.36899e-06
5.40588e-06
-1.08375e-06
5.54633e-06
-7.85556e-07
5.58178e-06
-4.80662e-07
5.50875e-06
-1.72706e-07
5.32359e-06
1.36754e-07
5.02253e-06
4.48224e-07
4.60072e-06
7.63945e-07
4.05209e-06
1.08776e-06
3.3688e-06
1.42481e-06
2.54105e-06
1.78134e-06
1.55685e-06
2.1643e-06
4.01993e-07
2.58105e-06
-9.39845e-07
3.03892e-06
-2.48686e-06
3.54479e-06
-4.25872e-06
4.10472e-06
-6.27604e-06
4.72356e-06
-8.55977e-06
5.40463e-06
-1.11304e-05
6.14948e-06
-1.4007e-05
6.95769e-06
-1.72067e-05
7.82673e-06
-2.07434e-05
8.75181e-06
-2.4627e-05
9.72581e-06
-2.88623e-05
1.07392e-05
-3.34484e-05
1.17802e-05
-3.83775e-05
1.28345e-05
-4.3635e-05
1.38856e-05
-4.91981e-05
1.49152e-05
-5.50366e-05
1.59036e-05
-6.11127e-05
1.68299e-05
-6.73817e-05
1.76729e-05
-7.37927e-05
1.84119e-05
-8.02896e-05
1.90271e-05
-8.6813e-05
1.95004e-05
-9.33012e-05
1.98158e-05
-9.96919e-05
1.99603e-05
-0.000105923
1.99238e-05
-0.000111937
1.96993e-05
-0.000117675
1.92829e-05
-0.000123087
1.86739e-05
-0.000128124
1.78743e-05
-0.000132744
1.68887e-05
-0.000136911
1.57236e-05
-0.00014059
1.43878e-05
-0.000143756
1.2891e-05
-0.000146384
1.12447e-05
-0.000148456
9.46118e-06
-0.000149956
7.55352e-06
-0.000150873
5.53573e-06
-0.000151199
3.42253e-06
-0.000150926
1.22942e-06
-0.000150053
-1.02725e-06
-0.000148579
-3.33019e-06
-0.000146507
-5.66105e-06
-0.00014384
-8.00032e-06
-0.000140588
-1.03272e-05
-0.000136762
-1.26197e-05
-0.000132376
-1.48543e-05
-0.000127451
-1.70065e-05
-0.000122008
-1.90504e-05
-0.000116078
-2.09596e-05
-0.000109692
-2.2707e-05
-0.00010289
-2.42657e-05
-9.57156e-05
-2.56097e-05
-8.82203e-05
-2.6714e-05
-8.04596e-05
-2.75563e-05
-7.24946e-05
-2.81172e-05
-6.43916e-05
-2.83816e-05
-5.62205e-05
-2.83391e-05
-4.80547e-05
-2.79853e-05
-3.99692e-05
-2.73218e-05
-3.20397e-05
-2.63571e-05
-2.43408e-05
-2.51067e-05
-1.6945e-05
-2.35927e-05
-9.92043e-06
-2.18436e-05
-3.3301e-06
-1.98935e-05
2.76991e-06
-1.77814e-05
8.33146e-06
-1.55497e-05
1.33154e-05
-1.32432e-05
1.76925e-05
-1.09074e-05
2.14436e-05
-8.58765e-06
2.45608e-05
-6.32707e-06
2.70468e-05
-4.16578e-06
2.89152e-05
-2.13949e-06
3.01898e-05
-2.78513e-07
3.09043e-05
1.39304e-06
3.11009e-05
2.85786e-06
3.08288e-05
4.10571e-06
3.0143e-05
5.13342e-06
2.9102e-05
5.94453e-06
2.77658e-05
6.54867e-06
2.61943e-05
6.96065e-06
2.44449e-05
7.19938e-06
2.25714e-05
7.2866e-06
2.06223e-05
7.2458e-06
1.864e-05
7.10073e-06
1.66607e-05
6.87466e-06
1.47135e-05
6.5887e-06
1.28224e-05
6.26161e-06
1.10048e-05
5.90755e-06
9.27561e-06
5.53677e-06
7.64489e-06
5.1522e-06
6.12481e-06
4.75242e-06
4.72414e-06
4.32596e-06
3.46008e-06
3.8602e-06
2.34545e-06
3.33124e-06
1.41041e-06
2.72633e-06
6.74727e-07
2.0234e-06
1.91929e-07
1.2424e-06
3.9732e-07
1.55802e-07
-5.49463e-07
5.17662e-07
-1.42347e-06
1.02665e-06
-2.06919e-06
1.61457e-06
-2.50343e-06
2.24351e-06
-2.74427e-06
2.87014e-06
-2.82019e-06
3.46759e-06
-2.7578e-06
4.00828e-06
-2.58552e-06
4.47427e-06
-2.32771e-06
4.84863e-06
-2.0065e-06
5.12002e-06
-1.6396e-06
5.27815e-06
-1.24143e-06
5.31562e-06
-8.22494e-07
5.22542e-06
-3.9013e-07
5.00151e-06
5.15274e-08
4.63734e-06
5.011e-07
4.1259e-06
9.59792e-07
3.45878e-06
1.43109e-06
2.62599e-06
1.9205e-06
1.61545e-06
2.43522e-06
4.12843e-07
2.98373e-06
-9.98533e-07
3.57537e-06
-2.63764e-06
4.21977e-06
-4.52548e-06
4.92626e-06
-6.6846e-06
5.70328e-06
-9.13845e-06
6.55781e-06
-1.19106e-05
7.49478e-06
-1.50237e-05
8.51665e-06
-1.84985e-05
9.62304e-06
-2.23527e-05
1.08105e-05
-2.65998e-05
1.20721e-05
-3.12478e-05
1.33978e-05
-3.6298e-05
1.47737e-05
-4.17443e-05
1.6183e-05
-4.75723e-05
1.76052e-05
-5.37585e-05
1.90173e-05
-6.02704e-05
2.03938e-05
-6.70667e-05
2.17075e-05
-7.40981e-05
2.29304e-05
-8.13079e-05
2.40349e-05
-8.86343e-05
2.4994e-05
-9.60115e-05
2.57834e-05
-0.000103372
2.63812e-05
-0.000110647
2.67694e-05
-0.000117772
2.69339e-05
-0.000124683
2.6865e-05
-0.000131324
2.6557e-05
-0.00013764
2.60084e-05
-0.000143586
2.52214e-05
-0.00014912
2.42011e-05
-0.000154208
2.29554e-05
-0.000158821
2.14944e-05
-0.000162934
1.98298e-05
-0.000166527
1.79745e-05
-0.000169583
1.59421e-05
-0.000172091
1.37472e-05
-0.000174039
1.14045e-05
-0.000175418
8.92929e-06
-0.000176223
6.33725e-06
-0.000176447
3.64448e-06
-0.000176086
8.67746e-07
-0.000175138
-1.97544e-06
-0.000173601
-4.86656e-06
-0.000171474
-7.78589e-06
-0.000168759
-1.07123e-05
-0.000165459
-1.36231e-05
-0.00016158
-1.64937e-05
-0.00015713
-1.9298e-05
-0.000152121
-2.20079e-05
-0.00014657
-2.45937e-05
-0.000140496
-2.70242e-05
-0.000133926
-2.92673e-05
-0.000126891
-3.12904e-05
-0.000119429
-3.30612e-05
-0.000111583
-3.45484e-05
-0.000103405
-3.57232e-05
-9.4951e-05
-3.65596e-05
-8.62848e-05
-3.70363e-05
-7.74749e-05
-3.71376e-05
-6.8595e-05
-3.68543e-05
-5.97217e-05
-3.61845e-05
-5.09341e-05
-3.51349e-05
-4.23113e-05
-3.37203e-05
-3.39316e-05
-3.19641e-05
-2.58701e-05
-2.98977e-05
-1.81973e-05
-2.75598e-05
-1.09778e-05
-2.49954e-05
-4.26876e-06
-2.22544e-05
1.88114e-06
-1.93897e-05
7.43239e-06
-1.64563e-05
1.23553e-05
-1.35092e-05
1.66305e-05
-1.06017e-05
2.02487e-05
-7.78436e-06
2.32116e-05
-5.10334e-06
2.55307e-05
-2.59925e-06
2.72277e-05
-3.06194e-07
2.83339e-05
1.74908e-06
2.88889e-05
3.54772e-06
2.89401e-05
5.07906e-06
2.85406e-05
6.34062e-06
2.77482e-05
7.33768e-06
2.66229e-05
8.08259e-06
2.52251e-05
8.5938e-06
2.3614e-05
8.8945e-06
2.18454e-05
9.0113e-06
1.99706e-05
8.97256e-06
1.80354e-05
8.80711e-06
1.60791e-05
8.54226e-06
1.41356e-05
8.20292e-06
1.22315e-05
7.80916e-06
1.03905e-05
7.3761e-06
8.62989e-06
6.91051e-06
6.96848e-06
6.41283e-06
5.41979e-06
5.87227e-06
4.00619e-06
5.27384e-06
2.7438e-06
4.59071e-06
1.66973e-06
3.8022e-06
8.09819e-07
2.87881e-06
2.34604e-07
1.82207e-06
6.2885e-07
1.60785e-07
-7.08744e-07
5.32737e-07
-1.79914e-06
1.0504e-06
-2.58464e-06
1.63965e-06
-3.09498e-06
2.25912e-06
-3.363e-06
2.86292e-06
-3.42543e-06
3.42303e-06
-3.31787e-06
3.91086e-06
-3.07435e-06
4.30779e-06
-2.72488e-06
4.59586e-06
-2.29528e-06
4.76252e-06
-1.80657e-06
4.79578e-06
-1.27518e-06
4.6862e-06
-7.13174e-07
4.42424e-06
-1.28484e-07
4.00094e-06
4.74655e-07
3.4064e-06
1.09547e-06
2.62985e-06
1.73627e-06
1.65874e-06
2.40217e-06
4.78573e-07
3.10071e-06
-9.27503e-07
3.84138e-06
-2.57874e-06
4.63513e-06
-4.49679e-06
5.49364e-06
-6.70535e-06
6.42863e-06
-9.2297e-06
7.45097e-06
-1.20958e-05
8.56988e-06
-1.53296e-05
9.79209e-06
-1.89553e-05
1.11212e-05
-2.29946e-05
1.25568e-05
-2.74652e-05
1.40946e-05
-3.2379e-05
1.57253e-05
-3.7741e-05
1.74354e-05
-4.35481e-05
1.92063e-05
-4.97878e-05
2.10151e-05
-5.64377e-05
2.28347e-05
-6.34648e-05
2.46346e-05
-7.08264e-05
2.63813e-05
-7.84701e-05
2.80402e-05
-8.63354e-05
2.95758e-05
-9.43555e-05
3.09539e-05
-0.00010246
3.21424e-05
-0.000110574
3.31128e-05
-0.000118628
3.38409e-05
-0.00012655
3.43074e-05
-0.000134275
3.44989e-05
-0.000141743
3.44068e-05
-0.000148901
3.40281e-05
-0.000155703
3.33643e-05
-0.00016211
3.24206e-05
-0.00016809
3.12059e-05
-0.000173615
2.97314e-05
-0.000178665
2.80101e-05
-0.000183222
2.60564e-05
-0.000187273
2.38854e-05
-0.000190807
2.15128e-05
-0.000193815
1.89542e-05
-0.00019629
1.62255e-05
-0.000198225
1.33423e-05
-0.000199614
1.03205e-05
-0.00020045
7.176e-06
-0.00020073
3.92517e-06
-0.000200447
5.84839e-07
-0.000199595
-2.82729e-06
-0.00019817
-6.29239e-06
-0.000196167
-9.79021e-06
-0.000193583
-1.32988e-05
-0.000190415
-1.67942e-05
-0.000186663
-2.02503e-05
-0.000182327
-2.36386e-05
-0.000177412
-2.69282e-05
-0.000171926
-3.00858e-05
-0.00016588
-3.30761e-05
-0.000159293
-3.58617e-05
-0.000152186
-3.84045e-05
-0.00014459
-4.06654e-05
-0.00013654
-4.26062e-05
-0.000128081
-4.41904e-05
-0.000119264
-4.53844e-05
-0.000110149
-4.61591e-05
-0.000100803
-4.64914e-05
-9.12998e-05
-4.63655e-05
-8.17174e-05
-4.57743e-05
-7.21389e-05
-4.47203e-05
-6.26495e-05
-4.32162e-05
-5.33344e-05
-4.1285e-05
-4.42772e-05
-3.896e-05
-3.55577e-05
-3.62839e-05
-2.72498e-05
-3.33071e-05
-1.94203e-05
-3.0087e-05
-1.21273e-05
-2.66851e-05
-5.41952e-06
-2.31658e-05
6.64412e-07
-1.95941e-05
6.09609e-06
-1.60338e-05
1.08574e-05
-1.25455e-05
1.49405e-05
-9.1857e-06
1.83473e-05
-6.00495e-06
2.10897e-05
-3.04706e-06
2.31887e-05
-3.48158e-07
2.46745e-05
2.06403e-06
2.55851e-05
4.17062e-06
2.59662e-05
5.96182e-06
2.58695e-05
7.43683e-06
2.53511e-05
8.60338e-06
2.44702e-05
9.47704e-06
2.3287e-05
1.00799e-05
2.1861e-05
1.04396e-05
2.02488e-05
1.05868e-05
1.85036e-05
1.05544e-05
1.66728e-05
1.03748e-05
1.47991e-05
1.00785e-05
1.29183e-05
9.69135e-06
1.10626e-05
9.23362e-06
9.25721e-06
8.71667e-06
7.52846e-06
8.14349e-06
5.89578e-06
7.50497e-06
4.38781e-06
6.78417e-06
3.02551e-06
5.95168e-06
1.8536e-06
4.9777e-06
9.04762e-07
3.82382e-06
2.63681e-07
2.46911e-06
8.89851e-07
1.61614e-07
-8.68325e-07
5.31618e-07
-2.17226e-06
1.03966e-06
-3.08975e-06
1.60772e-06
-3.66453e-06
2.19167e-06
-3.94529e-06
2.74393e-06
-3.9782e-06
3.23561e-06
-3.80852e-06
3.63748e-06
-3.47625e-06
3.9303e-06
-3.01702e-06
4.09518e-06
-2.46002e-06
4.1183e-06
-1.82921e-06
3.98584e-06
-1.14255e-06
3.68607e-06
-4.13094e-07
3.20662e-06
3.51108e-07
2.53523e-06
1.14623e-06
1.6582e-06
1.97258e-06
5.60534e-07
2.83402e-06
-7.74973e-07
3.73769e-06
-2.3677e-06
4.69342e-06
-4.23961e-06
5.71321e-06
-6.41498e-06
6.81038e-06
-8.92021e-06
7.99871e-06
-1.17831e-05
9.29135e-06
-1.50322e-05
1.06997e-05
-1.86951e-05
1.22325e-05
-2.27976e-05
1.38942e-05
-2.73618e-05
1.56849e-05
-3.24046e-05
1.7599e-05
-3.79357e-05
1.9625e-05
-4.39565e-05
2.17453e-05
-5.04583e-05
2.39363e-05
-5.74216e-05
2.61686e-05
-6.48154e-05
2.84077e-05
-7.25972e-05
3.06151e-05
-8.07136e-05
3.27494e-05
-8.91018e-05
3.47678e-05
-9.76915e-05
3.66279e-05
-0.000106407
3.82894e-05
-0.000115172
3.97157e-05
-0.000123907
4.08751e-05
-0.000132539
4.1742e-05
-0.000140998
4.22974e-05
-0.000149223
4.25288e-05
-0.000157157
4.24303e-05
-0.000164756
4.20017e-05
-0.000171979
4.12478e-05
-0.000178795
4.01773e-05
-0.000185181
3.88022e-05
-0.000191115
3.71368e-05
-0.000196584
3.51968e-05
-0.000201576
3.29987e-05
-0.000206082
3.05595e-05
-0.000210096
2.78961e-05
-0.000213611
2.50252e-05
-0.000216623
2.19632e-05
-0.000219126
1.87261e-05
-0.000221115
1.53295e-05
-0.000222585
1.1789e-05
-0.00022353
8.12005e-06
-0.000223944
4.33857e-06
-0.00022382
4.60875e-07
-0.000223151
-3.49581e-06
-0.00022193
-7.51304e-06
-0.000220148
-1.15708e-05
-0.000217798
-1.56471e-05
-0.000214872
-1.97176e-05
-0.000211364
-2.37555e-05
-0.000207268
-2.77311e-05
-0.00020258
-3.16115e-05
-0.000197301
-3.53608e-05
-0.000191432
-3.89402e-05
-0.000184981
-4.2308e-05
-0.000177959
-4.54204e-05
-0.000170387
-4.82323e-05
-0.000162289
-5.06978e-05
-0.000153702
-5.27721e-05
-0.000144668
-5.44128e-05
-0.00013524
-5.55813e-05
-0.00012548
-5.62452e-05
-0.00011546
-5.63797e-05
-0.00010526
-5.59694e-05
-9.49653e-05
-5.50101e-05
-8.46672e-05
-5.35096e-05
-7.44598e-05
-5.14883e-05
-6.44368e-05
-4.89793e-05
-5.46898e-05
-4.60276e-05
-4.53053e-05
-4.26889e-05
-3.63624e-05
-3.90277e-05
-2.79312e-05
-3.51146e-05
-2.00713e-05
-3.10244e-05
-1.28312e-05
-2.68334e-05
-6.24803e-06
-2.26166e-05
-3.47492e-07
-1.84461e-05
4.85533e-06
-1.43889e-05
9.35561e-06
-1.0506e-05
1.31581e-05
-6.85059e-06
1.62767e-05
-3.46797e-06
1.87338e-05
-3.94436e-07
2.05598e-05
2.34306e-06
2.17928e-05
4.72719e-06
2.24776e-05
6.75036e-06
2.26648e-05
8.41451e-06
2.24096e-05
9.73065e-06
2.177e-05
1.07179e-05
2.08056e-05
1.14024e-05
1.95755e-05
1.18154e-05
1.81369e-05
1.19917e-05
1.65431e-05
1.19671e-05
1.4844e-05
1.17766e-05
1.30829e-05
1.14511e-05
1.13003e-05
1.10156e-05
9.52915e-06
1.04863e-05
7.80345e-06
9.86911e-06
6.14939e-06
9.15719e-06
4.60248e-06
8.33198e-06
3.18958e-06
7.36181e-06
1.9628e-06
6.2072e-06
9.61617e-07
4.82003e-06
2.81059e-07
3.15531e-06
1.16747e-06
1.58355e-07
-1.02508e-06
5.15676e-07
-2.53307e-06
9.97703e-07
-3.56941e-06
1.52402e-06
-4.19287e-06
2.04848e-06
-4.46876e-06
2.52267e-06
-4.45354e-06
2.91704e-06
-4.20257e-06
3.20202e-06
-3.76194e-06
3.35774e-06
-3.17271e-06
3.36439e-06
-2.46713e-06
3.20664e-06
-1.67154e-06
2.86868e-06
-8.04892e-07
2.33619e-06
1.19302e-07
1.59364e-06
1.09347e-06
6.25095e-07
2.1147e-06
-5.87327e-07
3.1849e-06
-2.06323e-06
4.30989e-06
-3.82472e-06
5.49915e-06
-5.89627e-06
6.765e-06
-8.30485e-06
8.12184e-06
-1.10794e-05
9.58503e-06
-1.42503e-05
1.11697e-05
-1.7848e-05
1.28893e-05
-2.19023e-05
1.47541e-05
-2.64397e-05
1.67701e-05
-3.14826e-05
1.89374e-05
-3.70465e-05
2.12492e-05
-4.31388e-05
2.36917e-05
-4.97564e-05
2.62432e-05
-5.6885e-05
2.88744e-05
-6.44974e-05
3.15494e-05
-7.25539e-05
3.42259e-05
-8.10025e-05
3.68572e-05
-8.97798e-05
3.93935e-05
-9.88136e-05
4.17843e-05
-0.000108025
4.39805e-05
-0.000117332
4.59363e-05
-0.000126652
4.76112e-05
-0.000135906
4.89713e-05
-0.00014502
4.99904e-05
-0.000153926
5.06503e-05
-0.000162567
5.09406e-05
-0.000170894
5.08578e-05
-0.000178866
5.04048e-05
-0.000186452
4.95897e-05
-0.000193626
4.84244e-05
-0.00020037
4.69237e-05
-0.00020667
4.51046e-05
-0.000212515
4.2985e-05
-0.0002179
4.05835e-05
-0.000222817
3.79186e-05
-0.000227264
3.50085e-05
-0.000231237
3.1871e-05
-0.000234733
2.85232e-05
-0.00023775
2.49816e-05
-0.000240284
2.12618e-05
-0.000242333
1.73793e-05
-0.000243892
1.3349e-05
-0.000244957
9.18577e-06
-0.000245523
4.90447e-06
-0.000245583
5.20539e-07
-0.000245129
-3.94984e-06
-0.000244154
-8.48929e-06
-0.000242647
-1.30788e-05
-0.000240598
-1.76975e-05
-0.000237996
-2.23216e-05
-0.000234829
-2.6925e-05
-0.000231085
-3.14777e-05
-0.000226753
-3.59466e-05
-0.000221823
-4.02943e-05
-0.000216287
-4.44799e-05
-0.00021014
-4.84584e-05
-0.000203383
-5.21818e-05
-0.00019602
-5.55988e-05
-0.000188065
-5.86566e-05
-0.00017954
-6.1302e-05
-0.000170474
-6.34825e-05
-0.000160911
-6.51489e-05
-0.000150903
-6.62571e-05
-0.000140516
-6.67705e-05
-0.000129827
-6.66625e-05
-0.000118922
-6.59183e-05
-0.000107898
-6.4537e-05
-9.68567e-05
-6.25326e-05
-8.59038e-05
-5.99348e-05
-7.51454e-05
-5.67883e-05
-6.4684e-05
-5.31522e-05
-5.46159e-05
-4.90973e-05
-4.50278e-05
-4.47039e-05
-3.59949e-05
-4.00582e-05
-2.75793e-05
-3.52496e-05
-1.98294e-05
-3.03668e-05
-1.27801e-05
-2.54954e-05
-6.45345e-06
-2.07153e-05
-8.5974e-07
-1.60992e-05
4.00129e-06
-1.17109e-05
8.13932e-06
-7.60514e-06
1.15724e-05
-3.82657e-06
1.43264e-05
-4.09866e-07
1.64342e-05
2.62057e-06
1.79351e-05
5.25057e-06
1.88746e-05
7.47616e-06
1.93033e-05
9.30317e-06
1.92757e-05
1.07466e-05
1.88495e-05
1.18298e-05
1.80832e-05
1.25826e-05
1.7036e-05
1.304e-05
1.57644e-05
1.32396e-05
1.43231e-05
1.3219e-05
1.27614e-05
1.30132e-05
1.11268e-05
1.26514e-05
9.45931e-06
1.21539e-05
7.8003e-06
1.15295e-05
6.18301e-06
1.07739e-05
4.64997e-06
9.86709e-06
3.23455e-06
8.77533e-06
1.99566e-06
7.44968e-06
9.78937e-07
5.83229e-06
2.85844e-07
3.85472e-06
1.45023e-06
1.52026e-07
-1.17531e-06
4.87052e-07
-2.87109e-06
9.27695e-07
-4.00746e-06
1.39252e-06
-4.65922e-06
1.83422e-06
-4.90909e-06
2.20439e-06
-4.82434e-06
2.47325e-06
-4.47065e-06
2.61114e-06
-3.90004e-06
2.59756e-06
-3.15866e-06
2.41166e-06
-2.28124e-06
2.03638e-06
-1.29597e-06
1.45363e-06
-2.22091e-07
6.46113e-07
9.26999e-07
-4.05155e-07
2.14479e-06
-1.72018e-06
3.42983e-06
-3.32131e-06
4.78606e-06
-5.23297e-06
6.22159e-06
-7.48225e-06
7.74844e-06
-1.00985e-05
9.38127e-06
-1.31133e-05
1.11365e-05
-1.6559e-05
1.30308e-05
-2.04686e-05
1.50791e-05
-2.4873e-05
1.72935e-05
-2.97999e-05
1.96809e-05
-3.52715e-05
2.22415e-05
-4.13021e-05
2.49677e-05
-4.78961e-05
2.78429e-05
-5.50462e-05
3.08414e-05
-6.27318e-05
3.39284e-05
-7.09186e-05
3.70608e-05
-7.95582e-05
4.01885e-05
-8.85894e-05
4.32565e-05
-9.79399e-05
4.62069e-05
-0.000107529
4.89816e-05
-0.00011727
5.1525e-05
-0.000127077
5.37863e-05
-0.000136863
5.57218e-05
-0.000146549
5.7296e-05
-0.000156062
5.84827e-05
-0.000165338
5.92649e-05
-0.000174323
5.9634e-05
-0.000182973
5.95893e-05
-0.000191254
5.91367e-05
-0.000199137
5.8287e-05
-0.000206604
5.7055e-05
-0.00021364
5.54583e-05
-0.000220234
5.35161e-05
-0.00022638
5.12485e-05
-0.000232072
4.86761e-05
-0.00023731
4.58193e-05
-0.000242091
4.2698e-05
-0.000246415
3.93314e-05
-0.000250283
3.57378e-05
-0.000253696
3.19348e-05
-0.000256654
2.79388e-05
-0.000259159
2.37654e-05
-0.00026121
1.94296e-05
-0.000262807
1.49456e-05
-0.000263949
1.03271e-05
-0.000264632
5.58803e-06
-0.000264854
7.4214e-07
-0.000264607
-4.19606e-06
-0.000263885
-9.2111e-06
-0.000262676
-1.4286e-05
-0.000260971
-1.94019e-05
-0.000258754
-2.45372e-05
-0.000256009
-2.96676e-05
-0.00025272
-3.47647e-05
-0.000248868
-3.97965e-05
-0.000244434
-4.47264e-05
-0.000239398
-4.95127e-05
-0.000233745
-5.41093e-05
-0.000227458
-5.84651e-05
-0.000220529
-6.25248e-05
-0.000212954
-6.62293e-05
-0.000204735
-6.95175e-05
-0.000195887
-7.2327e-05
-0.000186436
-7.45972e-05
-0.00017642
-7.62705e-05
-0.000165891
-7.72963e-05
-0.000154918
-7.76327e-05
-0.000143584
-7.72504e-05
-0.000131983
-7.61349e-05
-0.000120225
-7.42887e-05
-0.000108425
-7.17327e-05
-9.67048e-05
-6.85071e-05
-8.51854e-05
-6.46702e-05
-7.39849e-05
-6.02967e-05
-6.32126e-05
-5.54753e-05
-5.29659e-05
-5.03043e-05
-4.33273e-05
-4.48877e-05
-3.43631e-05
-3.93309e-05
-2.6122e-05
-3.37364e-05
-1.86367e-05
-2.82008e-05
-1.19245e-05
-2.28117e-05
-5.98947e-06
-1.76464e-05
-8.24429e-07
-1.27708e-05
3.58721e-06
-8.23888e-06
7.26992e-06
-4.09331e-06