/*--------------------------------*- C++ -*----------------------------------*\
| =========                 |                                                 |
| \\      /  F ield         | OpenFOAM: The Open Source CFD Toolbox           |
|  \\    /   O peration     | Version:  2406                                  |
|   \\  /    A nd           | Website:  www.openfoam.com                      |
|    \\/     M anipulation  |                                                 |
\*---------------------------------------------------------------------------*/
FoamFile
{
    version     2.0;
    format      ascii;
    arch        "LSB;label=32;scalar=64";
    class       volVectorField;
    location    "39.2";
    object      Uold;
}
// * * * * * * * * * * * * * * * * * * * * * * * * * * * * * * * * * * * * * //

dimensions      [0 1 -1 0 0 0 0];

internalField   nonuniform List<vector> 
14400
(
(-1.81001e-05 1.80494e-05 0)
(-8.37771e-07 -1.15819e-05 0)
(0.000110859 -4.37833e-05 0)
(0.000302474 -7.22961e-05 0)
(0.000562426 -8.92135e-05 0)
(0.000856736 -9.85948e-05 0)
(0.0011702 -9.94818e-05 0)
(0.00147637 -9.49812e-05 0)
(0.00176442 -8.5618e-05 0)
(0.00201908 -7.37543e-05 0)
(0.00223647 -6.03955e-05 0)
(0.00241181 -4.72449e-05 0)
(0.00254784 -3.51212e-05 0)
(0.00264723 -2.49558e-05 0)
(0.00271661 -1.70464e-05 0)
(0.00276201 -1.15837e-05 0)
(0.00279051 -8.33201e-06 0)
(0.00280763 -6.93629e-06 0)
(0.00281807 -6.81354e-06 0)
(0.00282433 -7.34927e-06 0)
(0.0028273 -7.88428e-06 0)
(0.00282572 -7.84102e-06 0)
(0.00281684 -6.73039e-06 0)
(0.00279643 -4.2085e-06 0)
(0.0027594 -5.60567e-08 0)
(0.00270004 5.82942e-06 0)
(0.00261234 1.34823e-05 0)
(0.00249014 2.29036e-05 0)
(0.00232725 3.41012e-05 0)
(0.00211736 4.7107e-05 0)
(0.00185408 6.19835e-05 0)
(0.00153084 7.88126e-05 0)
(0.00114091 9.76791e-05 0)
(0.000677482 0.00011865 0)
(0.000133763 0.00014176 0)
(-0.000496857 0.00016699 0)
(-0.0012206 0.000194267 0)
(-0.0020431 0.000223449 0)
(-0.0029691 0.000254324 0)
(-0.00400227 0.000286606 0)
(-0.00514492 0.000319931 0)
(-0.00639778 0.000353864 0)
(-0.00775973 0.000387898 0)
(-0.00922767 0.00042146 0)
(-0.0107963 0.000453921 0)
(-0.012458 0.000484606 0)
(-0.014203 0.000512808 0)
(-0.0160187 0.000537794 0)
(-0.0178907 0.000558828 0)
(-0.0198021 0.000575175 0)
(-0.0217337 0.000586116 0)
(-0.0236648 0.000590961 0)
(-0.0255726 0.000589054 0)
(-0.027433 0.000579784 0)
(-0.0292206 0.000562597 0)
(-0.0309094 0.000537007 0)
(-0.0324723 0.000502604 0)
(-0.0338825 0.00045908 0)
(-0.0351132 0.000406241 0)
(-0.036138 0.000344036 0)
(-0.0369319 0.000272582 0)
(-0.0374711 0.000192189 0)
(-0.0377342 0.000103397 0)
(-0.0377024 6.99678e-06 0)
(-0.0373599 -9.59394e-05 0)
(-0.0366953 -0.000204044 0)
(-0.0357015 -0.000315642 0)
(-0.0343764 -0.000428759 0)
(-0.032724 -0.000541137 0)
(-0.0307545 -0.00065028 0)
(-0.0284845 -0.000753505 0)
(-0.0259376 -0.000848034 0)
(-0.0231443 -0.000931089 0)
(-0.0201418 -0.00100001 0)
(-0.0169731 -0.0010524 0)
(-0.0136869 -0.00108624 0)
(-0.0103359 -0.00110003 0)
(-0.00697583 -0.00109291 0)
(-0.00366375 -0.00106475 0)
(-0.000456213 -0.00101619 0)
(0.00259247 -0.000948674 0)
(0.00543216 -0.000864362 0)
(0.00801857 -0.000766087 0)
(0.0103149 -0.000657189 0)
(0.0122928 -0.000541345 0)
(0.0139337 -0.000422371 0)
(0.0152286 -0.000304019 0)
(0.0161784 -0.000189778 0)
(0.0167934 -8.27103e-05 0)
(0.0170921 1.46763e-05 0)
(0.0171 0.000100509 0)
(0.0168484 0.000173576 0)
(0.0163724 0.000233317 0)
(0.0157092 0.000279759 0)
(0.014897 0.000313438 0)
(0.0139729 0.000335292 0)
(0.012972 0.00034656 0)
(0.0119264 0.000348666 0)
(0.0108643 0.000343134 0)
(0.00981002 0.00033148 0)
(0.00878315 0.00031518 0)
(0.00779931 0.000295567 0)
(0.00686978 0.00027386 0)
(0.00600247 0.000251066 0)
(0.00520162 0.000228083 0)
(0.00446923 0.00020556 0)
(0.0038043 0.000184117 0)
(0.00320494 0.000164081 0)
(0.0026666 0.000145875 0)
(0.00218552 0.000129488 0)
(0.0017552 0.000115174 0)
(0.00137234 0.000102389 0)
(0.00103059 9.11401e-05 0)
(0.000730459 7.99117e-05 0)
(0.000468795 6.84581e-05 0)
(0.000253738 5.37795e-05 0)
(8.83015e-05 3.63405e-05 0)
(-1.29085e-05 1.25851e-05 0)
(-4.62411e-05 -9.318e-06 0)
(-2.24128e-05 -2.19553e-05 0)
(1.03303e-05 1.53588e-06 0)
(0.000155692 -0.000159028 0)
(0.000496128 -0.000322143 0)
(0.000991211 -0.000466096 0)
(0.00162505 -0.000560638 0)
(0.0023329 -0.000613997 0)
(0.00308101 -0.000623268 0)
(0.00381524 -0.000599255 0)
(0.00450774 -0.000547042 0)
(0.00512531 -0.000477226 0)
(0.005655 -0.000396994 0)
(0.00608504 -0.000314932 0)
(0.00641753 -0.000236762 0)
(0.00665662 -0.000167525 0)
(0.00681397 -0.000109703 0)
(0.00690121 -6.4418e-05 0)
(0.00693184 -3.08045e-05 0)
(0.00691664 -6.85121e-06 0)
(0.00686426 1.06046e-05 0)
(0.0067788 2.5192e-05 0)
(0.00666039 4.07618e-05 0)
(0.00650445 6.08749e-05 0)
(0.00630264 8.85935e-05 0)
(0.00604316 0.000126248 0)
(0.00571186 0.000175449 0)
(0.00529285 0.000237152 0)
(0.00476933 0.00031185 0)
(0.00412391 0.000399768 0)
(0.00333908 0.000501032 0)
(0.00239719 0.000615771 0)
(0.00128068 0.000744132 0)
(-2.78299e-05 0.00088623 0)
(-0.00154531 0.00104205 0)
(-0.00328795 0.00121134 0)
(-0.00527072 0.00139352 0)
(-0.00750679 0.00158759 0)
(-0.0100069 0.00179207 0)
(-0.0127787 0.002005 0)
(-0.015826 0.00222389 0)
(-0.0191484 0.00244577 0)
(-0.0227405 0.0026672 0)
(-0.0265915 0.0028843 0)
(-0.0306849 0.00309286 0)
(-0.0349983 0.00328842 0)
(-0.0395034 0.00346634 0)
(-0.0441664 0.00362195 0)
(-0.0489477 0.00375064 0)
(-0.0538033 0.003848 0)
(-0.0586845 0.00390986 0)
(-0.0635395 0.00393247 0)
(-0.0683134 0.00391249 0)
(-0.0729499 0.00384711 0)
(-0.0773915 0.00373408 0)
(-0.0815805 0.00357175 0)
(-0.0854603 0.0033591 0)
(-0.0889755 0.00309577 0)
(-0.0920732 0.00278208 0)
(-0.0947036 0.00241904 0)
(-0.0968202 0.00200843 0)
(-0.0983811 0.00155276 0)
(-0.0993493 0.00105537 0)
(-0.099693 0.000520452 0)
(-0.0993869 -4.69101e-05 0)
(-0.0984119 -0.000640698 0)
(-0.0967565 -0.00125393 0)
(-0.0944168 -0.00187867 0)
(-0.0913973 -0.00250601 0)
(-0.0877115 -0.00312621 0)
(-0.083382 -0.0037287 0)
(-0.078441 -0.00430235 0)
(-0.0729308 -0.00483561 0)
(-0.0669034 -0.00531687 0)
(-0.0604206 -0.00573474 0)
(-0.0535533 -0.00607848 0)
(-0.046381 -0.00633844 0)
(-0.0389909 -0.0065065 0)
(-0.0314762 -0.00657652 0)
(-0.0239347 -0.00654474 0)
(-0.0164667 -0.00641014 0)
(-0.0091728 -0.00617465 0)
(-0.00215168 -0.0058433 0)
(0.00450271 -0.00542413 0)
(0.0107035 -0.00492805 0)
(0.0163733 -0.00436842 0)
(0.0214466 -0.00376056 0)
(0.0258716 -0.00312115 0)
(0.0296113 -0.00246747 0)
(0.0326453 -0.0018167 0)
(0.0349692 -0.00118517 0)
(0.0365953 -0.000587677 0)
(0.0375511 -3.69241e-05 0)
(0.0378781 0.000456904 0)
(0.0376301 0.000886428 0)
(0.0368704 0.00124717 0)
(0.0356693 0.00153751 0)
(0.0341014 0.00175846 0)
(0.0322424 0.00191334 0)
(0.0301666 0.00200736 0)
(0.0279444 0.00204716 0)
(0.0256404 0.00204025 0)
(0.0233115 0.00199465 0)
(0.0210068 0.00191831 0)
(0.0187661 0.00181896 0)
(0.0166206 0.00170362 0)
(0.0145931 0.00157867 0)
(0.012699 0.00144943 0)
(0.0109461 0.00132063 0)
(0.00933787 0.00119567 0)
(0.00787117 0.00107757 0)
(0.00654215 0.00096759 0)
(0.00534126 0.000866952 0)
(0.00426334 0.000773963 0)
(0.003298 0.000687624 0)
(0.00244631 0.000601945 0)
(0.00170318 0.000514192 0)
(0.00108302 0.00041363 0)
(0.000588517 0.000301372 0)
(0.00024432 0.000167909 0)
(4.62892e-05 4.36796e-05 0)
(-9.51002e-06 -4.62007e-05 0)
(3.96013e-05 -0.00010485 0)
(0.000308875 -0.000496419 0)
(0.000857416 -0.000875033 0)
(0.00160209 -0.00119977 0)
(0.00252545 -0.00142009 0)
(0.00353876 -0.00154221 0)
(0.0045987 -0.00156328 0)
(0.00563317 -0.00150242 0)
(0.00660406 -0.00137372 0)
(0.00746643 -0.00119957 0)
(0.00820084 -0.000998213 0)
(0.00879009 -0.000788935 0)
(0.00923437 -0.00058616 0)
(0.00953723 -0.000401604 0)
(0.00971158 -0.000241788 0)
(0.00977072 -0.000109386 0)
(0.00973009 -2.66732e-06 0)
(0.00960159 8.32374e-05 0)
(0.00939398 0.000155866 0)
(0.00910983 0.000224128 0)
(0.00874605 0.000297461 0)
(0.00829304 0.000384748 0)
(0.00773583 0.000493677 0)
(0.00705461 0.00063024 0)
(0.00622618 0.000798668 0)
(0.00522489 0.00100158 0)
(0.00402378 0.0012404 0)
(0.00259523 0.0015157 0)
(0.00091165 0.00182767 0)
(-0.00105418 0.00217619 0)
(-0.00332861 0.00256093 0)
(-0.00593659 0.00298116 0)
(-0.00890107 0.00343553 0)
(-0.0122421 0.00392181 0)
(-0.0159761 0.00443668 0)
(-0.0201143 0.00497557 0)
(-0.0246623 0.00553255 0)
(-0.0296188 0.00610035 0)
(-0.0349747 0.0066704 0)
(-0.0407122 0.00723297 0)
(-0.0468049 0.00777733 0)
(-0.0532171 0.00829206 0)
(-0.0599046 0.00876531 0)
(-0.0668145 0.00918512 0)
(-0.0738866 0.00953981 0)
(-0.0810542 0.00981829 0)
(-0.0882456 0.0100104 0)
(-0.0953855 0.0101071 0)
(-0.102397 0.010101 0)
(-0.109201 0.00998589 0)
(-0.115723 0.00975756 0)
(-0.121886 0.00941333 0)
(-0.127619 0.00895222 0)
(-0.132856 0.00837486 0)
(-0.137535 0.00768342 0)
(-0.141598 0.00688151 0)
(-0.144995 0.00597409 0)
(-0.147682 0.00496742 0)
(-0.14962 0.00386899 0)
(-0.150778 0.00268753 0)
(-0.151131 0.001433 0)
(-0.150659 0.000116584 0)
(-0.149352 -0.00124921 0)
(-0.147205 -0.00265056 0)
(-0.14422 -0.00407227 0)
(-0.140407 -0.00549778 0)
(-0.135784 -0.00690922 0)
(-0.130375 -0.00828743 0)
(-0.124216 -0.00961222 0)
(-0.117347 -0.0108625 0)
(-0.10982 -0.0120169 0)
(-0.101695 -0.0130537 0)
(-0.0930408 -0.013952 0)
(-0.0839347 -0.0146919 0)
(-0.0744625 -0.0152553 0)
(-0.0647174 -0.015627 0)
(-0.0547993 -0.0157948 0)
(-0.0448134 -0.0157509 0)
(-0.0348686 -0.0154922 0)
(-0.0250757 -0.0150206 0)
(-0.0155455 -0.0143437 0)
(-0.00638612 -0.0134748 0)
(0.00229902 -0.0124324 0)
(0.0104138 -0.0112403 0)
(0.0178716 -0.00992617 0)
(0.0245976 -0.00852145 0)
(0.0305308 -0.00705967 0)
(0.0356254 -0.00557549 0)
(0.0398524 -0.00410334 0)
(0.0432002 -0.00267615 0)
(0.0456749 -0.00132418 0)
(0.0473001 -7.39261e-05 0)
(0.0481162 0.00105279 0)
(0.0481788 0.00203944 0)
(0.0475568 0.00287523 0)
(0.0463298 0.00355518 0)
(0.0445854 0.00407994 0)
(0.0424152 0.00445528 0)
(0.0399124 0.00469141 0)
(0.0371677 0.00480204 0)
(0.0342666 0.00480336 0)
(0.0312874 0.00471296 0)
(0.0282983 0.00454893 0)
(0.0253576 0.00432885 0)
(0.0225113 0.00406935 0)
(0.0197959 0.0037852 0)
(0.0172357 0.00348959 0)
(0.0148475 0.00319307 0)
(0.0126377 0.00290446 0)
(0.0106096 0.00262899 0)
(0.00875742 0.00237031 0)
(0.00707951 0.00212663 0)
(0.00556572 0.00189536 0)
(0.00421983 0.0016656 0)
(0.00303516 0.00142988 0)
(0.00203118 0.00116934 0)
(0.0012065 0.000883613 0)
(0.000597388 0.000560057 0)
(0.000191041 0.000248755 0)
(1.66976e-05 -6.98637e-06 0)
(6.51089e-05 -0.000284115 0)
(0.000445032 -0.000981073 0)
(0.00117245 -0.0016171 0)
(0.00211796 -0.00214267 0)
(0.00326164 -0.00249823 0)
(0.00449353 -0.00268824 0)
(0.00576613 -0.00271202 0)
(0.00699469 -0.00259711 0)
(0.00813618 -0.002368 0)
(0.00913794 -0.00205993 0)
(0.00997698 -0.00170364 0)
(0.010632 -0.00133032 0)
(0.0111014 -0.000964193 0)
(0.0113868 -0.000624409 0)
(0.0115002 -0.000321951 0)
(0.0114537 -6.10708e-05 0)
(0.0112612 0.000161206 0)
(0.0109322 0.000353334 0)
(0.0104722 0.000528234 0)
(0.00987916 0.000701273 0)
(0.00914425 0.000888689 0)
(0.00825085 0.00110583 0)
(0.00717601 0.00136599 0)
(0.00589119 0.00167957 0)
(0.00436404 0.00205391 0)
(0.00255956 0.00249356 0)
(0.000441648 0.00300079 0)
(-0.00202601 0.00357626 0)
(-0.00487884 0.00421951 0)
(-0.00815055 0.00492918 0)
(-0.0118722 0.00570291 0)
(-0.0160709 0.00653714 0)
(-0.0207688 0.00742662 0)
(-0.0259817 0.00836411 0)
(-0.0317172 0.00934001 0)
(-0.0379737 0.0103422 0)
(-0.0447392 0.0113563 0)
(-0.0519899 0.0123653 0)
(-0.0596902 0.0133506 0)
(-0.0677923 0.0142919 0)
(-0.0762369 0.0151682 0)
(-0.084954 0.0159581 0)
(-0.0938646 0.016641 0)
(-0.102883 0.0171973 0)
(-0.111917 0.0176094 0)
(-0.120874 0.0178622 0)
(-0.129661 0.0179434 0)
(-0.138185 0.0178438 0)
(-0.146359 0.0175574 0)
(-0.154101 0.0170814 0)
(-0.161334 0.016416 0)
(-0.16799 0.015564 0)
(-0.174008 0.0145307 0)
(-0.179335 0.0133234 0)
(-0.183926 0.0119512 0)
(-0.187742 0.0104247 0)
(-0.190751 0.00875562 0)
(-0.192929 0.00695687 0)
(-0.194256 0.00504235 0)
(-0.194719 0.00302695 0)
(-0.194307 0.000926588 0)
(-0.193018 -0.0012417 0)
(-0.190851 -0.00345966 0)
(-0.187813 -0.00570767 0)
(-0.183912 -0.00796466 0)
(-0.179164 -0.010208 0)
(-0.173589 -0.0124134 0)
(-0.167214 -0.0145551 0)
(-0.160071 -0.0166058 0)
(-0.152198 -0.0185371 0)
(-0.143642 -0.0203199 0)
(-0.134457 -0.0219247 0)
(-0.124706 -0.0233224 0)
(-0.114458 -0.0244851 0)
(-0.103792 -0.0253874 0)
(-0.0927935 -0.0260066 0)
(-0.0815577 -0.0263245 0)
(-0.0701842 -0.0263282 0)
(-0.0587784 -0.0260108 0)
(-0.0474497 -0.0253723 0)
(-0.0363089 -0.0244205 0)
(-0.025467 -0.0231706 0)
(-0.0150323 -0.0216456 0)
(-0.00510857 -0.0198756 0)
(0.00420711 -0.0178973 0)
(0.0128268 -0.0157528 0)
(0.0206733 -0.0134883 0)
(0.0276822 -0.0111526 0)
(0.033803 -0.00879567 0)
(0.0390003 -0.00646695 0)
(0.0432552 -0.00421376 0)
(0.0465653 -0.00207977 0)
(0.0489454 -0.000103636 0)
(0.050427 0.00168223 0)
(0.051058 0.00325268 0)
(0.0509011 0.00459051 0)
(0.0500325 0.00568686 0)
(0.0485387 0.00654117 0)
(0.0465142 0.00716074 0)
(0.0440576 0.00755986 0)
(0.0412683 0.00775864 0)
(0.0382427 0.00778145 0)
(0.035071 0.00765551 0)
(0.0318349 0.00740904 0)
(0.0286049 0.00707022 0)
(0.0254404 0.00666551 0)
(0.0223871 0.00621927 0)
(0.0194812 0.0057522 0)
(0.0167448 0.00528186 0)
(0.0141949 0.00482029 0)
(0.0118355 0.00437595 0)
(0.00967372 0.00394907 0)
(0.00770381 0.00353702 0)
(0.00593548 0.00312557 0)
(0.00436139 0.00270306 0)
(0.00300726 0.00224383 0)
(0.00186635 0.00174393 0)
(0.000989697 0.00118652 0)
(0.000357887 0.00062779 0)
(4.77982e-05 0.000116098 0)
(8.11315e-05 -0.000528748 0)
(0.000544148 -0.00160755 0)
(0.00141339 -0.00254669 0)
(0.00251662 -0.00329506 0)
(0.00382778 -0.00379282 0)
(0.00521532 -0.00404423 0)
(0.00662767 -0.00405432 0)
(0.00796941 -0.00386015 0)
(0.00919493 -0.00349901 0)
(0.0102464 -0.00302028 0)
(0.0110996 -0.00246888 0)
(0.0117307 -0.00188892 0)
(0.0121372 -0.00131526 0)
(0.0123187 -0.000774759 0)
(0.0122854 -0.000282842 0)
(0.0120463 0.000155171 0)
(0.0116118 0.000544311 0)
(0.0109863 0.000897743 0)
(0.0101693 0.00123505 0)
(0.00915132 0.00157936 0)
(0.00791533 0.00195495 0)
(0.00643569 0.00238461 0)
(0.00468012 0.00288794 0)
(0.0026107 0.0034801 0)
(0.000186079 0.00417157 0)
(-0.00263705 0.00496843 0)
(-0.00590204 0.00587315 0)
(-0.00965092 0.00688529 0)
(-0.0139228 0.00800216 0)
(-0.0187525 0.00921889 0)
(-0.0241688 0.0105283 0)
(-0.0301925 0.0119205 0)
(-0.036835 0.0133821 0)
(-0.0440958 0.0148963 0)
(-0.0519614 0.0164423 0)
(-0.0604038 0.0179956 0)
(-0.06938 0.0195282 0)
(-0.0788318 0.0210096 0)
(-0.0886869 0.0224078 0)
(-0.0988602 0.0236901 0)
(-0.109256 0.0248244 0)
(-0.119773 0.0257808 0)
(-0.130302 0.0265325 0)
(-0.140738 0.0270565 0)
(-0.150973 0.0273348 0)
(-0.160908 0.0273544 0)
(-0.170449 0.0271075 0)
(-0.179512 0.0265912 0)
(-0.188024 0.0258072 0)
(-0.195919 0.0247613 0)
(-0.203142 0.0234625 0)
(-0.20965 0.0219225 0)
(-0.215405 0.0201549 0)
(-0.220378 0.0181749 0)
(-0.224547 0.0159988 0)
(-0.227895 0.0136433 0)
(-0.230408 0.011126 0)
(-0.232079 0.00846446 0)
(-0.2329 0.00567705 0)
(-0.232869 0.00278247 0)
(-0.231985 -0.000199836 0)
(-0.230247 -0.00324945 0)
(-0.227659 -0.00634474 0)
(-0.224225 -0.0094626 0)
(-0.219953 -0.0125781 0)
(-0.214852 -0.0156645 0)
(-0.208937 -0.0186927 0)
(-0.202224 -0.0216317 0)
(-0.194737 -0.024448 0)
(-0.186505 -0.0271067 0)
(-0.177562 -0.0295711 0)
(-0.16795 -0.0318039 0)
(-0.157722 -0.0337675 0)
(-0.146935 -0.0354254 0)
(-0.135659 -0.0367434 0)
(-0.12397 -0.0376905 0)
(-0.111956 -0.0382407 0)
(-0.0997097 -0.0383743 0)
(-0.0873337 -0.038079 0)
(-0.0749348 -0.0373512 0)
(-0.0626238 -0.0361969 0)
(-0.0505134 -0.0346318 0)
(-0.0387156 -0.0326816 0)
(-0.0273395 -0.0303815 0)
(-0.0164887 -0.0277755 0)
(-0.00625985 -0.0249149 0)
(0.00326003 -0.0218568 0)
(0.0119946 -0.0186627 0)
(0.0198795 -0.0153962 0)
(0.0268637 -0.0121216 0)
(0.0329096 -0.00890175 0)
(0.0379945 -0.0057964 0)
(0.0421102 -0.00286069 0)
(0.0452641 -0.000143519 0)
(0.0474793 0.00231382 0)
(0.0487942 0.00447885 0)
(0.0492624 0.0063289 0)
(0.0489519 0.00785174 0)
(0.0479427 0.0090458 0)
(0.0463251 0.00991977 0)
(0.044196 0.0104919 0)
(0.0416562 0.0107882 0)
(0.0388054 0.0108413 0)
(0.0357403 0.0106875 0)
(0.0325491 0.0103657 0)
(0.0293118 0.0099141 0)
(0.0260948 0.00936968 0)
(0.0229551 0.00876539 0)
(0.0199335 0.00813007 0)
(0.0170646 0.00748538 0)
(0.0143665 0.0068472 0)
(0.0118592 0.00622057 0)
(0.00954504 0.0056047 0)
(0.00744289 0.00498432 0)
(0.00554738 0.00434408 0)
(0.00389319 0.00365289 0)
(0.00247075 0.00290017 0)
(0.00134977 0.00206321 0)
(0.000508405 0.00119082 0)
(7.4314e-05 0.00032455 0)
(9.3262e-05 -0.000812969 0)
(0.00062143 -0.0023285 0)
(0.00160061 -0.0035983 0)
(0.00282248 -0.00457459 0)
(0.00425222 -0.00520477 0)
(0.00573791 -0.00549726 0)
(0.00722352 -0.00546697 0)
(0.00860446 -0.0051627 0)
(0.00983406 -0.00463649 0)
(0.0108514 -0.00395278 0)
(0.0116325 -0.00317125 0)
(0.0121527 -0.00234874 0)
(0.012409 -0.00153033 0)
(0.0123993 -0.000749705 0)
(0.0121311 -2.56347e-05 0)
(0.0116092 0.000636767 0)
(0.0108378 0.0012459 0)
(0.00981425 0.00182093 0)
(0.00852902 0.0023892 0)
(0.00696298 0.00298252 0)
(0.00508861 0.00363364 0)
(0.0028698 0.00437295 0)
(0.000264189 0.00522601 0)
(-0.00277523 0.00621203 0)
(-0.00629751 0.00734349 0)
(-0.0103517 0.00862655 0)
(-0.0149847 0.0100619 0)
(-0.0202389 0.0116456 0)
(-0.0261505 0.0133696 0)
(-0.0327469 0.0152218 0)
(-0.0400446 0.0171855 0)
(-0.0480466 0.0192395 0)
(-0.0567404 0.0213569 0)
(-0.0660964 0.0235058 0)
(-0.0760668 0.0256488 0)
(-0.0865856 0.0277449 0)
(-0.0975699 0.0297499 0)
(-0.108922 0.0316185 0)
(-0.120531 0.0333061 0)
(-0.132282 0.0347705 0)
(-0.144052 0.0359742 0)
(-0.155721 0.0368852 0)
(-0.167175 0.0374787 0)
(-0.178307 0.037737 0)
(-0.18902 0.0376501 0)
(-0.199231 0.0372151 0)
(-0.208868 0.0364354 0)
(-0.217874 0.0353196 0)
(-0.226202 0.0338811 0)
(-0.233816 0.032136 0)
(-0.240689 0.0301029 0)
(-0.246801 0.0278018 0)
(-0.25214 0.0252534 0)
(-0.256696 0.0224782 0)
(-0.260463 0.0194969 0)
(-0.263438 0.0163297 0)
(-0.265618 0.0129963 0)
(-0.267001 0.00951612 0)
(-0.267585 0.00590861 0)
(-0.26737 0.00219334 0)
(-0.266352 -0.00160954 0)
(-0.26453 -0.00547888 0)
(-0.261903 -0.00939214 0)
(-0.258468 -0.0133249 0)
(-0.254225 -0.0172506 0)
(-0.249176 -0.0211401 0)
(-0.243325 -0.0249611 0)
(-0.236677 -0.0286787 0)
(-0.229245 -0.0322547 0)
(-0.221043 -0.0356483 0)
(-0.212094 -0.0388161 0)
(-0.202428 -0.0417129 0)
(-0.192082 -0.0442929 0)
(-0.181103 -0.0465104 0)
(-0.169549 -0.0483214 0)
(-0.157487 -0.0496854 0)
(-0.144995 -0.050567 0)
(-0.132162 -0.0509377 0)
(-0.119084 -0.0507779 0)
(-0.105869 -0.050078 0)
(-0.0926275 -0.0488399 0)
(-0.0794759 -0.0470778 0)
(-0.0665315 -0.0448183 0)
(-0.0539103 -0.0420998 0)
(-0.0417238 -0.0389719 0)
(-0.030077 -0.0354937 0)
(-0.019066 -0.0317319 0)
(-0.0087762 -0.0277589 0)
(0.000718746 -0.0236503 0)
(0.00935767 -0.0194827 0)
(0.0170921 -0.0153321 0)
(0.0238865 -0.0112718 0)
(0.029718 -0.0073706 0)
(0.0345769 -0.00369168 0)
(0.0384663 -0.000290941 0)
(0.0414032 0.00278427 0)
(0.0434183 0.0054965 0)
(0.0445568 0.00781928 0)
(0.0448772 0.00973809 0)
(0.0444516 0.0112507 0)
(0.0433627 0.0123673 0)
(0.0417028 0.0131093 0)
(0.0395689 0.0135081 0)
(0.0370608 0.013603 0)
(0.0342755 0.013439 0)
(0.0313059 0.0130634 0)
(0.0282346 0.0125241 0)
(0.0251368 0.0118661 0)
(0.0220716 0.0111303 0)
(0.0190922 0.0103498 0)
(0.0162328 0.00954988 0)
(0.0135291 0.00874309 0)
(0.0109945 0.00793286 0)
(0.00866006 0.00710567 0)
(0.00652536 0.00624368 0)
(0.00463645 0.0053118 0)
(0.00298424 0.00428992 0)
(0.00165821 0.00314635 0)
(0.000637782 0.00190985 0)
(9.68875e-05 0.000604229 0)
(0.000101501 -0.00113359 0)
(0.000678066 -0.00313388 0)
(0.00173901 -0.00475838 0)
(0.00304488 -0.00596587 0)
(0.00455033 -0.00671532 0)
(0.00608403 -0.00702341 0)
(0.00758445 -0.00691924 0)
(0.00893887 -0.00646634 0)
(0.0101001 -0.00573426 0)
(0.0110058 -0.00480391 0)
(0.0116334 -0.0037506 0)
(0.0119585 -0.00264378 0)
(0.0119784 -0.00153799 0)
(0.0116893 -0.000472443 0)
(0.0110953 0.00053236 0)
(0.0101954 0.00147335 0)
(0.00898645 0.0023641 0)
(0.00745601 0.0032314 0)
(0.00558374 0.00411164 0)
(0.0033387 0.00504599 0)
(0.000681597 0.00607586 0)
(-0.00243474 0.00723864 0)
(-0.00606214 0.00856469 0)
(-0.0102549 0.0100755 0)
(-0.0150665 0.0117832 0)
(-0.020547 0.0136913 0)
(-0.0267404 0.0157953 0)
(-0.0336816 0.0180835 0)
(-0.0413938 0.020538 0)
(-0.0498857 0.0231337 0)
(-0.0591488 0.0258389 0)
(-0.069155 0.0286147 0)
(-0.0798553 0.0314153 0)
(-0.0911797 0.0341887 0)
(-0.103038 0.0368785 0)
(-0.115322 0.039426 0)
(-0.12791 0.0417723 0)
(-0.140673 0.0438616 0)
(-0.153476 0.0456434 0)
(-0.166188 0.0470746 0)
(-0.178685 0.0481216 0)
(-0.190854 0.0487604 0)
(-0.202596 0.0489774 0)
(-0.213827 0.0487684 0)
(-0.224479 0.0481374 0)
(-0.234499 0.0470959 0)
(-0.243847 0.0456605 0)
(-0.252496 0.043852 0)
(-0.260428 0.0416936 0)
(-0.26763 0.03921 0)
(-0.274098 0.0364262 0)
(-0.27983 0.0333669 0)
(-0.284825 0.0300559 0)
(-0.289084 0.0265159 0)
(-0.29261 0.0227684 0)
(-0.295403 0.0188339 0)
(-0.297462 0.0147318 0)
(-0.298787 0.0104808 0)
(-0.299375 0.00609959 0)
(-0.299221 0.00160682 0)
(-0.298321 -0.00297807 0)
(-0.296667 -0.00763449 0)
(-0.294253 -0.01234 0)
(-0.29107 -0.0170701 0)
(-0.287111 -0.0217971 0)
(-0.282367 -0.0264904 0)
(-0.276833 -0.0311156 0)
(-0.270505 -0.0356342 0)
(-0.263381 -0.0400039 0)
(-0.255464 -0.0441784 0)
(-0.246763 -0.0481077 0)
(-0.237293 -0.0517388 0)
(-0.227078 -0.0550169 0)
(-0.216148 -0.0578862 0)
(-0.204549 -0.060292 0)
(-0.192335 -0.0621822 0)
(-0.179573 -0.06351 0)
(-0.166344 -0.0642356 0)
(-0.152739 -0.0643291 0)
(-0.138863 -0.0637723 0)
(-0.12483 -0.0625604 0)
(-0.11076 -0.0607036 0)
(-0.0967796 -0.0582274 0)
(-0.0830139 -0.0551724 0)
(-0.0695875 -0.0515933 0)
(-0.0566184 -0.0475572 0)
(-0.0442155 -0.0431411 0)
(-0.0324761 -0.0384291 0)
(-0.0214847 -0.0335098 0)
(-0.0113112 -0.0284731 0)
(-0.00201205 -0.0234079 0)
(0.00637016 -0.0184002 0)
(0.0138053 -0.0135311 0)
(0.0202751 -0.00887591 0)
(0.0257723 -0.00450244 0)
(0.0303006 -0.000470467 0)
(0.033875 0.00316971 0)
(0.036522 0.00637836 0)
(0.0382805 0.00912762 0)
(0.0392022 0.0114025 0)
(0.0393511 0.0132015 0)
(0.0388033 0.0145369 0)
(0.0376438 0.0154337 0)
(0.0359655 0.0159285 0)
(0.0338639 0.0160672 0)
(0.0314358 0.0159016 0)
(0.0287723 0.0154872 0)
(0.0259607 0.014879 0)
(0.0230749 0.0141289 0)
(0.0201842 0.0132817 0)
(0.0173386 0.0123731 0)
(0.0145899 0.011425 0)
(0.0119644 0.0104468 0)
(0.00950701 0.00942918 0)
(0.00722552 0.00835273 0)
(0.00517914 0.0071796 0)
(0.00336312 0.00587803 0)
(0.00188628 0.00440513 0)
(0.000732333 0.00276089 0)
(0.000112691 0.000943574 0)
(0.000108743 -0.00147674 0)
(0.000723434 -0.00399344 0)
(0.00184332 -0.00598329 0)
(0.0032016 -0.00741308 0)
(0.00474104 -0.00825713 0)
(0.00627275 -0.00854511 0)
(0.00772948 -0.00832493 0)
(0.00899193 -0.00767847 0)
(0.0100133 -0.0066955 0)
(0.0107312 -0.00547478 0)
(0.0111258 -0.00410758 0)
(0.0111734 -0.00267512 0)
(0.0108721 -0.00123995 0)
(0.0102157 0.000155385 0)
(0.0092041 0.00149102 0)
(0.00782902 0.00276835 0)
(0.00607788 0.00400828 0)
(0.00392658 0.00524687 0)
(0.00134217 0.00653046 0)
(-0.00171917 0.00790965 0)
(-0.00530868 0.00943358 0)
(-0.00948348 0.0111448 0)
(-0.0143024 0.0130759 0)
(-0.0198228 0.0152471 0)
(-0.026097 0.0176665 0)
(-0.0331685 0.0203301 0)
(-0.0410692 0.0232231 0)
(-0.0498155 0.0263205 0)
(-0.0594058 0.0295879 0)
(-0.0698171 0.0329811 0)
(-0.0810034 0.0364469 0)
(-0.0928943 0.039924 0)
(-0.105396 0.0433439 0)
(-0.118395 0.0466342 0)
(-0.13176 0.0497212 0)
(-0.14535 0.0525335 0)
(-0.159018 0.0550058 0)
(-0.172623 0.0570815 0)
(-0.186028 0.0587156 0)
(-0.199113 0.0598756 0)
(-0.211774 0.0605418 0)
(-0.223925 0.0607068 0)
(-0.235498 0.0603744 0)
(-0.246442 0.059557 0)
(-0.256723 0.0582742 0)
(-0.266318 0.0565506 0)
(-0.275215 0.054414 0)
(-0.283409 0.0518937 0)
(-0.2909 0.0490191 0)
(-0.297691 0.0458192 0)
(-0.303789 0.0423217 0)
(-0.309199 0.0385523 0)
(-0.313927 0.0345354 0)
(-0.317977 0.0302929 0)
(-0.321354 0.0258456 0)
(-0.32406 0.0212122 0)
(-0.326094 0.0164108 0)
(-0.327456 0.0114584 0)
(-0.328142 0.0063719 0)
(-0.328147 0.00116827 0)
(-0.327464 -0.00413463 0)
(-0.326083 -0.0095176 0)
(-0.323995 -0.0149594 0)
(-0.321187 -0.0204364 0)
(-0.317645 -0.0259213 0)
(-0.313357 -0.0313834 0)
(-0.308306 -0.0367873 0)
(-0.30248 -0.0420932 0)
(-0.295865 -0.0472558 0)
(-0.288452 -0.052225 0)
(-0.280232 -0.0569454 0)
(-0.271206 -0.0613575 0)
(-0.261378 -0.0653979 0)
(-0.250763 -0.069001 0)
(-0.239385 -0.0721006 0)
(-0.227283 -0.074632 0)
(-0.214506 -0.0765346 0)
(-0.201122 -0.0777547 0)
(-0.187211 -0.0782487 0)
(-0.172873 -0.0779853 0)
(-0.158217 -0.076949 0)
(-0.143369 -0.0751416 0)
(-0.128463 -0.0725836 0)
(-0.113637 -0.0693144 0)
(-0.0990324 -0.0653918 0)
(-0.084786 -0.0608895 0)
(-0.0710269 -0.055895 0)
(-0.0578722 -0.0505054 0)
(-0.0454237 -0.0448241 0)
(-0.0337664 -0.0389565 0)
(-0.0229678 -0.0330066 0)
(-0.0130785 -0.0270746 0)
(-0.0041338 -0.0212544 0)
(0.00384452 -0.0156327 0)
(0.0108459 -0.0102878 0)
(0.0168698 -0.0052893 0)
(0.0219242 -0.000697409 0)
(0.0260262 0.00343761 0)
(0.0292017 0.00707658 0)
(0.0314872 0.0101925 0)
(0.0329294 0.012772 0)
(0.0335874 0.0148155 0)
(0.0335302 0.0163384 0)
(0.0328379 0.0173698 0)
(0.0315968 0.017951 0)
(0.0298997 0.0181335 0)
(0.0278381 0.0179755 0)
(0.0255048 0.017538 0)
(0.0229822 0.0168814 0)
(0.0203519 0.0160604 0)
(0.0176766 0.0151209 0)
(0.0150233 0.0140945 0)
(0.012431 0.0129977 0)
(0.00995919 0.0118268 0)
(0.00762591 0.010562 0)
(0.00550415 0.00916367 0)
(0.00359665 0.0075871 0)
(0.0020292 0.00577661 0)
(0.000792014 0.0036983 0)
(0.000122593 0.00132088 0)
(0.000114752 -0.00184276 0)
(0.00075807 -0.0048997 0)
(0.00191614 -0.00725748 0)
(0.00329644 -0.00889321 0)
(0.00482911 -0.00979998 0)
(0.00630949 -0.010025 0)
(0.0076649 -0.0096397 0)
(0.00877126 -0.00874816 0)
(0.00958313 -0.00746326 0)
(0.0100394 -0.00590301 0)
(0.0101237 -0.00417479 0)
(0.00981377 -0.00237052 0)
(0.00910778 -0.000558756 0)
(0.00799665 0.0012172 0)
(0.00647467 0.00294093 0)
(0.00452466 0.00462103 0)
(0.00212281 0.00628794 0)
(-0.000767983 0.00798843 0)
(-0.00419407 0.00977914 0)
(-0.00821189 0.0117192 0)
(-0.0128829 0.0138634 0)
(-0.018271 0.0162561 0)
(-0.0244368 0.0189279 0)
(-0.0314341 0.0218929 0)
(-0.0393054 0.0251492 0)
(-0.0480776 0.0286793 0)
(-0.0577587 0.0324515 0)
(-0.0683347 0.0364205 0)
(-0.0797663 0.0405287 0)
(-0.0919879 0.0447071 0)
(-0.104907 0.0488772 0)
(-0.118408 0.0529533 0)
(-0.132353 0.0568466 0)
(-0.146593 0.0604692 0)
(-0.160969 0.0637384 0)
(-0.175328 0.0665816 0)
(-0.189521 0.0689388 0)
(-0.203416 0.0707655 0)
(-0.216902 0.0720329 0)
(-0.229885 0.0727277 0)
(-0.242295 0.0728501 0)
(-0.254079 0.0724123 0)
(-0.265205 0.0714349 0)
(-0.275651 0.0699456 0)
(-0.285409 0.0679757 0)
(-0.294477 0.0655588 0)
(-0.302859 0.062729 0)
(-0.310564 0.0595198 0)
(-0.317601 0.0559631 0)
(-0.32398 0.052089 0)
(-0.329711 0.0479252 0)
(-0.334805 0.0434969 0)
(-0.339269 0.0388274 0)
(-0.343112 0.0339373 0)
(-0.34634 0.0288457 0)
(-0.348956 0.0235699 0)
(-0.350963 0.0181259 0)
(-0.352363 0.0125289 0)
(-0.353153 0.00679377 0)
(-0.35333 0.000935455 0)
(-0.352889 -0.00503032 0)
(-0.351819 -0.0110865 0)
(-0.350112 -0.0172139 0)
(-0.347751 -0.0233908 0)
(-0.344722 -0.0295918 0)
(-0.341004 -0.0357875 0)
(-0.336577 -0.0419434 0)
(-0.331417 -0.0480197 0)
(-0.325502 -0.0539705 0)
(-0.318806 -0.0597436 0)
(-0.311309 -0.0652802 0)
(-0.30299 -0.0705157 0)
(-0.293834 -0.0753796 0)
(-0.283835 -0.0797972 0)
(-0.272993 -0.0836909 0)
(-0.261322 -0.0869828 0)
(-0.24885 -0.089597 0)
(-0.235622 -0.0914631 0)
(-0.2217 -0.0925199 0)
(-0.207169 -0.0927188 0)
(-0.19213 -0.0920278 0)
(-0.176705 -0.0904346 0)
(-0.161031 -0.0879488 0)
(-0.14526 -0.0846033 0)
(-0.12955 -0.0804544 0)
(-0.114061 -0.07558 0)
(-0.0989501 -0.0700767 0)
(-0.0843629 -0.0640557 0)
(-0.07043 -0.0576374 0)
(-0.0572618 -0.0509466 0)
(-0.0449473 -0.0441073 0)
(-0.0335527 -0.0372384 0)
(-0.0231232 -0.0304507 0)
(-0.0136853 -0.0238448 0)
(-0.00525074 -0.0175106 0)
(0.0021811 -0.0115271 0)
(0.00861952 -0.00596233 0)
(0.0140811 -0.000874136 0)
(0.0185887 0.00369045 0)
(0.022172 0.00769567 0)
(0.0248676 0.0111181 0)
(0.0267219 0.0139478 0)
(0.0277899 0.0161896 0)
(0.0281376 0.0178627 0)
(0.0278391 0.0190011 0)
(0.0269777 0.0196512 0)
(0.0256393 0.0198695 0)
(0.0239156 0.0197189 0)
(0.0218917 0.0192643 0)
(0.0196559 0.0185676 0)
(0.0172801 0.0176829 0)
(0.0148428 0.0166508 0)
(0.012395 0.0154949 0)
(0.0100095 0.0142175 0)
(0.00771587 0.012799 0)
(0.00560028 0.0111985 0)
(0.00367533 0.00935857 0)
(0.00208027 0.00721029 0)
(0.000813193 0.00468474 0)
(0.000125666 0.00171994 0)
(0.00012042 -0.00222414 0)
(0.000784453 -0.00583229 0)
(0.00196042 -0.00854795 0)
(0.00333152 -0.0103608 0)
(0.00481463 -0.0112871 0)
(0.00619177 -0.0113968 0)
(0.00738582 -0.0107896 0)
(0.00827035 -0.00959602 0)
(0.00880244 -0.00795454 0)
(0.00892398 -0.00600335 0)
(0.00862213 -0.00386548 0)
(0.00787628 -0.00164165 0)
(0.0066839 0.000596234 0)
(0.00503171 0.00280735 0)
(0.00290662 0.00498193 0)
(0.000280899 0.00713858 0)
(-0.00288189 0.00931918 0)
(-0.00663242 0.0115819 0)
(-0.0110299 0.0139929 0)
(-0.0161411 0.0166173 0)
(-0.0220339 0.0195118 0)
(-0.0287729 0.0227174 0)
(-0.0364129 0.0262564 0)
(-0.0449948 0.0301302 0)
(-0.0545401 0.0343197 0)
(-0.0650475 0.0387865 0)
(-0.0764892 0.0434744 0)
(-0.0888091 0.0483115 0)
(-0.101921 0.0532122 0)
(-0.115712 0.05808 0)
(-0.130044 0.0628119 0)
(-0.14476 0.0673028 0)
(-0.159693 0.0714516 0)
(-0.174675 0.0751663 0)
(-0.189546 0.0783687 0)
(-0.204159 0.0809981 0)
(-0.218387 0.0830121 0)
(-0.23213 0.0843875 0)
(-0.245306 0.0851181 0)
(-0.257859 0.0852124 0)
(-0.269751 0.0846903 0)
(-0.28096 0.0835806 0)
(-0.291478 0.0819175 0)
(-0.301303 0.0797382 0)
(-0.310442 0.0770814 0)
(-0.318905 0.0739853 0)
(-0.326704 0.0704868 0)
(-0.333854 0.0666209 0)
(-0.34037 0.0624201 0)
(-0.346264 0.0579142 0)
(-0.351553 0.0531305 0)
(-0.356249 0.0480935 0)
(-0.360365 0.0428253 0)
(-0.363914 0.0373455 0)
(-0.366906 0.0316716 0)
(-0.36935 0.0258194 0)
(-0.371254 0.019803 0)
(-0.372623 0.0136355 0)