/*--------------------------------*- C++ -*----------------------------------*\
| =========                 |                                                 |
| \\      /  F ield         | OpenFOAM: The Open Source CFD Toolbox           |
|  \\    /   O peration     | Version:  2406                                  |
|   \\  /    A nd           | Website:  www.openfoam.com                      |
|    \\/     M anipulation  |                                                 |
\*---------------------------------------------------------------------------*/
FoamFile
{
    version     2.0;
    format      ascii;
    arch        "LSB;label=32;scalar=64";
    class       surfaceScalarField;
    location    "9.45";
    object      phi;
}
// * * * * * * * * * * * * * * * * * * * * * * * * * * * * * * * * * * * * * //

dimensions      [0 3 -1 0 0 0 0];

oriented        oriented;

internalField   nonuniform List<scalar> 
28560
(
5.35915e-09
-5.35629e-09
5.07064e-09
2.88345e-10
-6.32216e-09
1.13931e-08
-2.93455e-08
2.30236e-08
-6.25757e-08
3.32303e-08
-1.04035e-07
4.14594e-08
-1.51763e-07
4.77281e-08
-2.04053e-07
5.229e-08
-2.5952e-07
5.54669e-08
-3.17092e-07
5.75723e-08
-3.75975e-07
5.88826e-08
-4.35602e-07
5.96274e-08
-4.95592e-07
5.99893e-08
-5.557e-07
6.01085e-08
-6.15789e-07
6.00887e-08
-6.75793e-07
6.00038e-08
-7.35697e-07
5.99042e-08
-7.95519e-07
5.98217e-08
-8.55293e-07
5.97748e-08
-9.15065e-07
5.97717e-08
-9.74879e-07
5.98139e-08
-1.03478e-06
5.9898e-08
-1.09479e-06
6.00173e-08
-1.15496e-06
6.01634e-08
-1.21528e-06
6.03266e-08
-1.27578e-06
6.04966e-08
-1.33644e-06
6.06626e-08
-1.39726e-06
6.08139e-08
-1.4582e-06
6.09393e-08
-1.51922e-06
6.10279e-08
-1.58029e-06
6.10684e-08
-1.64134e-06
6.10495e-08
-1.7023e-06
6.09596e-08
-1.76309e-06
6.07871e-08
-1.82361e-06
6.05201e-08
-1.88376e-06
6.01464e-08
-1.94341e-06
5.96539e-08
-2.00244e-06
5.90302e-08
-2.0607e-06
5.82632e-08
-2.11804e-06
5.73405e-08
-2.17429e-06
5.62502e-08
-2.22927e-06
5.49807e-08
-2.2828e-06
5.35207e-08
-2.33466e-06
5.18598e-08
-2.38464e-06
4.99882e-08
-2.43254e-06
4.78971e-08
-2.47812e-06
4.55789e-08
-2.52115e-06
4.30274e-08
-2.56138e-06
4.02378e-08
-2.59859e-06
3.72071e-08
-2.63253e-06
3.39342e-08
-2.66295e-06
3.04201e-08
-2.68961e-06
2.6668e-08
-2.7123e-06
2.26835e-08
-2.73077e-06
1.84746e-08
-2.74482e-06
1.40521e-08
-2.75425e-06
9.42946e-09
-2.75888e-06
4.62564e-09
-2.75852e-06
-3.582e-10
-2.75305e-06
-5.46627e-09
-2.74235e-06
-1.07043e-08
-2.72632e-06
-1.6035e-08
-2.70488e-06
-2.14306e-08
-2.67802e-06
-2.68601e-08
-2.64573e-06
-3.2291e-08
-2.60804e-06
-3.76891e-08
-2.56503e-06
-4.30192e-08
-2.51678e-06
-4.82452e-08
-2.46345e-06
-5.33308e-08
-2.40521e-06
-5.82398e-08
-2.34227e-06
-6.29367e-08
-2.27489e-06
-6.73868e-08
-2.20333e-06
-7.15574e-08
-2.12791e-06
-7.54175e-08
-2.04897e-06
-7.89389e-08
-1.96688e-06
-8.20962e-08
-1.88201e-06
-8.48674e-08
-1.79477e-06
-8.72343e-08
-1.70559e-06
-8.91825e-08
-1.61489e-06
-9.07018e-08
-1.5231e-06
-9.17863e-08
-1.43067e-06
-9.24344e-08
-1.33802e-06
-9.26487e-08
-1.24558e-06
-9.24361e-08
-1.15378e-06
-9.18073e-08
-1.063e-06
-9.07764e-08
-9.7364e-07
-8.9361e-08
-8.86059e-07
-8.75812e-08
-8.00599e-07
-8.54596e-08
-7.17579e-07
-8.30203e-08
-6.3729e-07
-8.02887e-08
-5.59999e-07
-7.72907e-08
-4.85947e-07
-7.40521e-08
-4.15349e-07
-7.05984e-08
-3.48395e-07
-6.69539e-08
-2.85253e-07
-6.31413e-08
-2.26072e-07
-5.91817e-08
-1.70978e-07
-5.50939e-08
-1.20083e-07
-5.08943e-08
-7.34863e-08
-4.65972e-08
-3.12721e-08
-4.22142e-08
6.48301e-09
-3.77551e-08
3.9711e-08
-3.32279e-08
6.83505e-08
-2.86396e-08
9.2347e-08
-2.39965e-08
1.11653e-07
-1.93061e-08
1.26231e-07
-1.45782e-08
1.36059e-07
-9.82775e-09
1.41135e-07
-5.07604e-09
1.41554e-07
-4.18755e-10
1.3724e-07
4.31375e-09
1.28454e-07
8.78563e-09
1.15494e-07
1.29603e-08
9.88001e-08
1.66941e-08
7.91157e-08
1.96843e-08
5.76097e-08
2.1506e-08
3.60772e-08
2.15325e-08
1.71049e-08
1.89723e-08
4.29337e-09
1.28115e-08
4.29339e-09
-3.25214e-10
-5.03125e-09
-1.78326e-08
1.77964e-08
-6.19039e-08
5.54648e-08
-1.32882e-07
9.40021e-08
-2.28066e-07
1.28414e-07
-3.4347e-07
1.56864e-07
-4.74914e-07
1.79172e-07
-6.18554e-07
1.9593e-07
-7.71119e-07
2.08032e-07
-9.29963e-07
2.16416e-07
-1.09303e-06
2.21952e-07
-1.2588e-06
2.25392e-07
-1.42616e-06
2.27353e-07
-1.59437e-06
2.28321e-07
-1.76295e-06
2.28668e-07
-1.93162e-06
2.28667e-07
-2.10022e-06
2.28509e-07
-2.26872e-06
2.28321e-07
-2.43713e-06
2.28182e-07
-2.60549e-06
2.28135e-07
-2.77387e-06
2.28193e-07
-2.94232e-06
2.28354e-07
-3.11091e-06
2.28601e-07
-3.27965e-06
2.28908e-07
-3.44857e-06
2.29245e-07
-3.61765e-06
2.29578e-07
-3.78686e-06
2.2987e-07
-3.95613e-06
2.30085e-07
-4.12537e-06
2.30183e-07
-4.29447e-06
2.30125e-07
-4.46327e-06
2.29872e-07
-4.63161e-06
2.29383e-07
-4.79927e-06
2.28617e-07
-4.96601e-06
2.27533e-07
-5.13158e-06
2.26087e-07
-5.29567e-06
2.24239e-07
-5.45796e-06
2.21944e-07
-5.61809e-06
2.19159e-07
-5.77567e-06
2.15843e-07
-5.93028e-06
2.11952e-07
-6.08147e-06
2.07445e-07
-6.22878e-06
2.02284e-07
-6.37169e-06
1.9643e-07
-6.50968e-06
1.89848e-07
-6.64219e-06
1.82507e-07
-6.76868e-06
1.74378e-07
-6.88854e-06
1.65439e-07
-7.00118e-06
1.55669e-07
-7.106e-06
1.45057e-07
-7.20238e-06
1.33595e-07
-7.28973e-06
1.21284e-07
-7.36745e-06
1.08132e-07
-7.43493e-06
9.41541e-08
-7.49162e-06
7.93742e-08
-7.53697e-06
6.38251e-08
-7.57047e-06
4.75486e-08
-7.59164e-06
3.05954e-08
-7.60004e-06
1.30256e-08
-7.5953e-06
-5.09292e-09
-7.57709e-06
-2.3682e-08
-7.54514e-06
-4.26522e-08
-7.49926e-06
-6.19127e-08
-7.43933e-06
-8.13606e-08
-7.3653e-06
-1.00888e-07
-7.27721e-06
-1.2038e-07
-7.17518e-06
-1.3972e-07
-7.05942e-06
-1.58784e-07
-6.93021e-06
-1.77451e-07
-6.78795e-06
-1.95595e-07
-6.63309e-06
-2.13094e-07
-6.4662e-06
-2.29827e-07
-6.28791e-06
-2.45678e-07
-6.09893e-06
-2.60536e-07
-5.90005e-06
-2.74299e-07
-5.69212e-06
-2.8687e-07
-5.47605e-06
-2.98166e-07
-5.2528e-06
-3.08115e-07
-5.02338e-06
-3.16654e-07
-4.78883e-06
-3.23737e-07
-4.5502e-06
-3.2933e-07
-4.30857e-06
-3.33413e-07
-4.06502e-06
-3.35982e-07
-3.82063e-06
-3.37044e-07
-3.57644e-06
-3.36623e-07
-3.3335e-06
-3.34753e-07
-3.09279e-06
-3.31481e-07
-2.85529e-06
-3.26865e-07
-2.6219e-06
-3.20971e-07
-2.39348e-06
-3.13872e-07
-2.17086e-06
-3.05649e-07
-1.95476e-06
-2.96384e-07
-1.74589e-06
-2.86162e-07
-1.54487e-06
-2.75069e-07
-1.35228e-06
-2.63186e-07
-1.16864e-06
-2.50595e-07
-9.94416e-07
-2.37369e-07
-8.30021e-07
-2.23576e-07
-6.75835e-07
-2.09279e-07
-5.32199e-07
-1.94531e-07
-3.99418e-07
-1.79378e-07
-2.77773e-07
-1.63859e-07
-1.67523e-07
-1.48005e-07
-6.89055e-08
-1.31846e-07
1.78604e-08
-1.15405e-07
9.25745e-08
-9.87106e-08
1.55061e-07
-8.17928e-08
2.05178e-07
-6.46952e-08
2.4283e-07
-4.74801e-08
2.67998e-07
-3.02431e-08
2.80701e-07
-1.3122e-08
2.81271e-07
3.74388e-09
2.70132e-07
1.99243e-08
2.48014e-07
3.5078e-08
2.16164e-07
4.85439e-08
1.76451e-07
5.93978e-08
1.31627e-07
6.63301e-08
8.56035e-08
6.75558e-08
4.37325e-08
6.08433e-08
1.27381e-08
4.38059e-08
1.70315e-08
-1.19433e-08
6.91234e-09
-5.72401e-08
6.30936e-08
-1.40582e-07
1.38807e-07
-2.61322e-07
2.14742e-07
-4.15837e-07
2.8293e-07
-5.99085e-07
3.40111e-07
-8.05677e-07
3.85764e-07
-1.03052e-06
4.20771e-07
-1.26913e-06
4.46645e-07
-1.51778e-06
4.65069e-07
-1.77349e-06
4.77662e-07
-2.03396e-06
4.85861e-07
-2.29748e-06
4.90874e-07
-2.56284e-06
4.93676e-07
-2.8292e-06
4.95024e-07
-3.09601e-06
4.95485e-07
-3.36297e-06
4.95468e-07
-3.6299e-06
4.95251e-07
-3.89674e-06
4.95014e-07
-4.16346e-06
4.9486e-07
-4.4301e-06
4.94835e-07
-4.69669e-06
4.94942e-07
-4.96325e-06
4.95157e-07
-5.22978e-06
4.95437e-07
-5.49626e-06
4.95724e-07
-5.76263e-06
4.95952e-07
-6.02881e-06
4.9605e-07
-6.29467e-06
4.95941e-07
-6.56003e-06
4.95548e-07
-6.8247e-06
4.94791e-07
-7.08841e-06
4.93587e-07
-7.35088e-06
4.91854e-07
-7.61178e-06
4.89508e-07
-7.8707e-06
4.86462e-07
-8.12725e-06
4.82631e-07
-8.38093e-06
4.77926e-07
-8.63125e-06
4.7226e-07
-8.87764e-06
4.65546e-07
-9.11949e-06
4.57698e-07
-9.35617e-06
4.48631e-07
-9.58699e-06
4.38264e-07
-9.81123e-06
4.26519e-07
-1.00281e-05
4.13321e-07
-1.02369e-05
3.98604e-07
-1.04367e-05
3.82307e-07
-1.06267e-05
3.64379e-07
-1.0806e-05
3.44776e-07
-1.09738e-05
3.23466e-07
-1.11292e-05
3.00431e-07
-1.12713e-05
2.75665e-07
-1.13991e-05
2.49174e-07
-1.1512e-05
2.20982e-07
-1.1609e-05
1.9113e-07
-1.16893e-05
1.59674e-07
-1.17521e-05
1.26687e-07
-1.17968e-05
9.22631e-08
-1.18228e-05
5.65118e-08
-1.18293e-05
1.95611e-08
-1.18159e-05
-1.84401e-08
-1.17823e-05
-5.73334e-08
-1.1728e-05
-9.69347e-08
-1.16529e-05
-1.37051e-07
-1.15568e-05
-1.77473e-07
-1.14397e-05
-2.17982e-07
-1.13017e-05
-2.58345e-07
-1.11431e-05
-2.98325e-07
-1.09642e-05
-3.37677e-07
-1.07655e-05
-3.76154e-07
-1.05476e-05
-4.13511e-07
-1.03112e-05
-4.49502e-07
-1.00571e-05
-4.83891e-07
-9.78635e-06
-5.16448e-07
-9.49993e-06
-5.46956e-07
-9.19901e-06
-5.75214e-07
-8.88485e-06
-6.01037e-07
-8.55875e-06
-6.24261e-07
-8.22212e-06
-6.44745e-07
-7.87641e-06
-6.62371e-07
-7.52309e-06
-6.77048e-07
-7.16371e-06
-6.88712e-07
-6.7998e-06
-6.97326e-07
-6.4329e-06
-7.02881e-07
-6.06455e-06
-7.05396e-07
-5.69626e-06
-7.04913e-07
-5.32951e-06
-7.01504e-07
-4.96573e-06
-6.95258e-07
-4.60631e-06
-6.86288e-07
-4.25256e-06
-6.74723e-07
-3.90572e-06
-6.60707e-07
-3.56698e-06
-6.44393e-07
-3.23742e-06
-6.25943e-07
-2.91806e-06
-6.05521e-07
-2.60984e-06
-5.8329e-07
-2.31361e-06
-5.59412e-07
-2.03017e-06
-5.3404e-07
-1.76022e-06
-5.07317e-07
-1.50442e-06
-4.79375e-07
-1.26337e-06
-4.50331e-07
-1.03761e-06
-4.20288e-07
-8.27657e-07
-3.89334e-07
-6.33971e-07
-3.57545e-07
-4.56994e-07
-3.24983e-07
-2.97137e-07
-2.91703e-07
-1.54783e-07
-2.57759e-07
-3.02843e-08
-2.23209e-07
7.60482e-08
-1.88125e-07
1.63961e-07
-1.52608e-07
2.33281e-07
-1.16801e-07
2.83954e-07
-8.09152e-08
3.16083e-07
-4.52515e-08
3.30084e-07
-1.02573e-08
3.26594e-07
2.34146e-08
3.06791e-07
5.48808e-08
2.72476e-07
8.28587e-08
2.26291e-07
1.05584e-07
1.71962e-07
1.20659e-07
1.14562e-07
1.24955e-07
6.07397e-08
1.14666e-07
1.8841e-08
8.57047e-08
3.58725e-08
-2.49889e-08
3.19016e-08
-1.0055e-07
1.38655e-07
-2.25627e-07
2.63884e-07
-3.96858e-07
3.85973e-07
-6.09113e-07
4.95184e-07
-8.56321e-07
5.87319e-07
-1.13223e-06
6.61676e-07
-1.43095e-06
7.19484e-07
-1.74721e-06
7.62914e-07
-2.07659e-06
7.94446e-07
-2.41545e-06
8.1652e-07
-2.76093e-06
8.31342e-07
-3.11086e-06
8.40801e-07
-3.46362e-06
8.46444e-07
-3.81809e-06
8.49489e-07
-4.17347e-06
8.50864e-07
-4.52925e-06
8.5125e-07
-4.88512e-06
8.51122e-07
-5.2409e-06
8.50791e-07
-5.59648e-06
8.50446e-07
-5.95183e-06
8.50178e-07
-6.3069e-06
8.50011e-07
-6.66166e-06
8.49918e-07
-7.01605e-06
8.49835e-07
-7.37001e-06
8.49678e-07
-7.7234e-06
8.49343e-07
-8.07606e-06
8.48716e-07
-8.4278e-06
8.47677e-07
-8.77835e-06
8.46099e-07
-9.12741e-06
8.43851e-07
-9.47462e-06
8.40799e-07
-9.81958e-06
8.36808e-07
-1.01618e-05
8.31739e-07
-1.05008e-05
8.25451e-07
-1.0836e-05
8.17804e-07
-1.11667e-05
8.08654e-07
-1.14923e-05
7.97861e-07
-1.1812e-05
7.85282e-07
-1.21251e-05
7.7078e-07
-1.24307e-05
7.54221e-07
-1.27279e-05
7.35473e-07
-1.30158e-05
7.14416e-07
-1.32934e-05
6.90935e-07
-1.35598e-05
6.64927e-07
-1.38137e-05
6.363e-07
-1.40543e-05
6.04979e-07
-1.42805e-05
5.70905e-07
-1.4491e-05
5.34035e-07
-1.4685e-05
4.94349e-07
-1.48611e-05
4.51848e-07
-1.50185e-05
4.06558e-07
-1.51561e-05
3.58528e-07
-1.52728e-05
3.07837e-07
-1.53677e-05
2.54588e-07
-1.54399e-05
1.98915e-07
-1.54886e-05
1.40979e-07
-1.55131e-05
8.09708e-08
-1.55126e-05
1.91088e-08
-1.54867e-05
-4.43605e-08
-1.54349e-05
-1.09164e-07
-1.53568e-05
-1.75005e-07
-1.52523e-05
-2.41562e-07
-1.51213e-05
-3.08494e-07
-1.49638e-05
-3.75441e-07
-1.47801e-05
-4.42032e-07
-1.45706e-05
-5.07882e-07
-1.43357e-05
-5.72598e-07
-1.4076e-05
-6.35788e-07
-1.37925e-05
-6.9706e-07
-1.3486e-05
-7.56025e-07
-1.31575e-05
-8.1231e-07
-1.28084e-05
-8.65553e-07
-1.244e-05
-9.15415e-07
-1.20536e-05
-9.61579e-07
-1.16509e-05
-1.00376e-06
-1.12335e-05
-1.0417e-06
-1.0803e-05
-1.07518e-06
-1.03614e-05
-1.10403e-06
-9.91031e-06
-1.12809e-06
-9.45174e-06
-1.14728e-06
-8.98752e-06
-1.16155e-06
-8.51954e-06
-1.17087e-06
-8.04966e-06
-1.17528e-06
-7.57972e-06
-1.17485e-06
-7.11153e-06
-1.16969e-06
-6.64683e-06
-1.15996e-06
-6.18731e-06
-1.14581e-06
-5.73456e-06
-1.12747e-06
-5.29012e-06
-1.10515e-06
-4.85542e-06
-1.07909e-06
-4.43182e-06
-1.04954e-06
-4.02057e-06
-1.01677e-06
-3.62283e-06
-9.81028e-07
-3.23968e-06
-9.42561e-07
-2.87212e-06
-9.01608e-07
-2.52104e-06
-8.58391e-07
-2.1873e-06
-8.13115e-07
-1.87167e-06
-7.6596e-07
-1.57488e-06
-7.17083e-07
-1.29759e-06
-6.66622e-07
-1.04044e-06
-6.1469e-07
-8.04039e-07
-5.61387e-07
-5.88941e-07
-5.06801e-07
-3.95682e-07
-4.51019e-07
-2.24749e-07
-3.94142e-07
-7.65778e-08
-3.36297e-07
4.84762e-08
-2.77662e-07
1.50169e-07
-2.18493e-07
2.28414e-07
-1.5916e-07
2.83356e-07
-1.00193e-07
3.15446e-07
-4.23478e-08
3.25537e-07
1.33241e-08
3.15076e-07
6.53416e-08
2.86221e-07
1.11714e-07
2.42076e-07
1.49728e-07
1.8692e-07
1.75815e-07
1.26458e-07
1.85418e-07
6.81241e-08
1.73e-07
2.15095e-08
1.32319e-07
5.7382e-08
-3.76697e-08
6.95713e-08
-1.43252e-07
2.44237e-07
-3.099e-07
4.30532e-07
-5.30822e-07
6.06895e-07
-7.9885e-07
7.63213e-07
-1.10668e-06
8.95147e-07
-1.44722e-06
1.00222e-06
-1.81395e-06
1.08621e-06
-2.20107e-06
1.15004e-06
-2.60366e-06
1.19704e-06
-3.01766e-06
1.23052e-06
-3.43983e-06
1.25351e-06
-3.86764e-06
1.26861e-06
-4.29918e-06
1.27799e-06
-4.73307e-06
1.28338e-06
-5.16831e-06
1.2861e-06
-5.60421e-06
1.28715e-06
-6.04031e-06
1.28722e-06
-6.47631e-06
1.28679e-06
-6.912e-06
1.28613e-06
-7.34723e-06
1.28542e-06
-7.78191e-06
1.28468e-06
-8.2159e-06
1.28391e-06
-8.64909e-06
1.28302e-06
-9.08131e-06
1.2819e-06
-9.51237e-06
1.2804e-06
-9.94203e-06
1.27837e-06
-1.037e-05
1.27563e-06
-1.07959e-05
1.272e-06
-1.12193e-05
1.2673e-06
-1.16399e-05
1.26133e-06
-1.20569e-05
1.25389e-06
-1.247e-05
1.24478e-06
-1.28783e-05
1.23381e-06
-1.32813e-05
1.22076e-06
-1.36781e-05
1.20543e-06
-1.40678e-05
1.18762e-06
-1.44497e-05
1.16714e-06
-1.48227e-05
1.14377e-06
-1.51858e-05
1.11734e-06
-1.5538e-05
1.08766e-06
-1.58781e-05
1.05457e-06
-1.62051e-05
1.0179e-06
-1.65177e-05
9.77529e-07
-1.68147e-05
9.33325e-07
-1.70949e-05
8.85194e-07
-1.73571e-05
8.33065e-07
-1.76e-05
7.76893e-07
-1.78223e-05
7.16664e-07
-1.80228e-05
6.52397e-07
-1.82004e-05
5.84146e-07
-1.83539e-05
5.12001e-07
-1.84821e-05
4.3609e-07
-1.85841e-05
3.56582e-07
-1.86589e-05
2.73684e-07
-1.87056e-05
1.87645e-07
-1.87234e-05
9.87537e-08
-1.87116e-05
7.33807e-09
-1.86697e-05
-8.62361e-08
-1.85973e-05
-1.81567e-07
-1.84941e-05
-2.78218e-07
-1.83599e-05
-3.75725e-07
-1.81948e-05
-4.73593e-07
-1.7999e-05
-5.71307e-07
-1.77727e-05
-6.68333e-07
-1.75164e-05
-7.64122e-07
-1.72309e-05
-8.58121e-07
-1.69169e-05
-9.49772e-07
-1.65755e-05
-1.03852e-06
-1.62077e-05
-1.12383e-06
-1.58148e-05
-1.20517e-06
-1.53983e-05
-1.28204e-06
-1.49598e-05
-1.35396e-06
-1.45008e-05
-1.42051e-06
-1.40233e-05
-1.48128e-06
-1.35291e-05
-1.53592e-06
-1.30201e-05
-1.58413e-06
-1.24985e-05
-1.62567e-06
-1.19662e-05
-1.66035e-06
-1.14255e-05
-1.68804e-06
-1.08784e-05
-1.70866e-06
-1.0327e-05
-1.72222e-06
-9.77354e-06
-1.72875e-06
-9.22002e-06
-1.72837e-06
-8.66849e-06
-1.72123e-06
-8.12091e-06
-1.70753e-06
-7.57919e-06
-1.68754e-06
-7.04514e-06
-1.66152e-06
-6.52048e-06
-1.6298e-06
-6.00684e-06
-1.59272e-06
-5.50576e-06
-1.55063e-06
-5.01866e-06
-1.50388e-06
-4.54686e-06
-1.45282e-06
-4.09161e-06
-1.39781e-06
-3.65404e-06
-1.33918e-06
-3.23521e-06
-1.27722e-06
-2.83611e-06
-1.21222e-06
-2.45763e-06
-1.14443e-06
-2.10065e-06
-1.07407e-06
-1.76596e-06
-1.00131e-06
-1.45433e-06
-9.2632e-07
-1.16649e-06
-8.49232e-07
-9.03114e-07
-7.70172e-07
-6.64868e-07
-6.89266e-07
-4.52347e-07
-6.06663e-07
-2.66085e-07
-5.22558e-07
-1.06522e-07
-4.37225e-07
2.60383e-08
-3.51054e-07
1.31483e-07
-2.64605e-07
2.0996e-07
-1.78671e-07
2.61975e-07
-9.4362e-08
2.88508e-07
-1.3209e-08
2.91145e-07
6.27038e-08
2.72273e-07
1.30587e-07
2.35251e-07
1.86749e-07
1.84658e-07
2.26409e-07
1.26554e-07
2.43521e-07
6.88608e-08
2.30693e-07
2.19339e-08
1.79246e-07
7.93159e-08
-4.94045e-08
1.18976e-07
-1.83422e-07
3.78255e-07
-3.89938e-07
6.37048e-07
-6.5857e-07
8.75527e-07
-9.79828e-07
1.08447e-06
-1.34495e-06
1.26027e-06
-1.74594e-06
1.40321e-06
-2.17565e-06
1.51592e-06
-2.62785e-06
1.60224e-06
-3.09726e-06
1.66645e-06
-3.57953e-06
1.71279e-06
-4.07114e-06
1.74512e-06
-4.56933e-06
1.7668e-06
-5.07199e-06
1.78065e-06
-5.57752e-06
1.78891e-06
-6.08476e-06
1.79334e-06
-6.59287e-06
1.79526e-06
-7.10125e-06
1.7956e-06
-7.60948e-06
1.79501e-06
-8.11724e-06
1.7939e-06
-8.6243e-06
1.79247e-06
-9.13044e-06
1.79083e-06
-9.63547e-06
1.78894e-06
-1.01392e-05
1.78672e-06
-1.06413e-05
1.78402e-06
-1.11415e-05
1.78066e-06
-1.16396e-05
1.77643e-06
-1.21351e-05
1.7711e-06
-1.26275e-05
1.76444e-06
-1.31164e-05
1.7562e-06
-1.36012e-05
1.7461e-06
-1.40812e-05
1.73391e-06
-1.45557e-05
1.71933e-06
-1.5024e-05
1.70211e-06
-1.54853e-05
1.68198e-06
-1.59385e-05
1.65865e-06
-1.63827e-05
1.63188e-06
-1.6817e-05
1.60138e-06
-1.72401e-05
1.56691e-06
-1.7651e-05
1.52821e-06
-1.80484e-05
1.48507e-06
-1.84311e-05
1.43726e-06
-1.87978e-05
1.38458e-06
-1.91471e-05
1.32687e-06
-1.94778e-05
1.26399e-06
-1.97884e-05
1.19582e-06
-2.00776e-05
1.12228e-06
-2.03441e-05
1.04334e-06
-2.05864e-05
9.58991e-07
-2.08033e-05
8.69291e-07
-2.09935e-05
7.74331e-07
-2.11557e-05
6.74254e-07
-2.12889e-05
5.69254e-07
-2.13919e-05
4.59576e-07
-2.14637e-05
3.45521e-07
-2.15035e-05
2.27438e-07
-2.15105e-05
1.05731e-07
-2.1484e-05
-1.91475e-08
-2.14235e-05
-1.46695e-07
-2.13287e-05
-2.76365e-07
-2.11994e-05
-4.07569e-07
-2.10354e-05
-5.3968e-07
-2.0837e-05
-6.72038e-07
-2.06043e-05
-8.03958e-07
-2.03379e-05
-9.34731e-07
-2.00384e-05
-1.06363e-06
-1.97066e-05
-1.18994e-06
-1.93435e-05
-1.31291e-06
-1.89502e-05
-1.43184e-06
-1.8528e-05
-1.54601e-06
-1.80784e-05
-1.65474e-06
-1.76031e-05
-1.75738e-06
-1.71037e-05
-1.85332e-06
-1.65822e-05
-1.94201e-06
-1.60406e-05
-2.02292e-06
-1.54809e-05
-2.09562e-06
-1.49053e-05
-2.15971e-06
-1.43161e-05
-2.21491e-06
-1.37155e-05
-2.26095e-06
-1.31058e-05
-2.29769e-06
-1.24894e-05
-2.32505e-06
-1.18686e-05
-2.34302e-06
-1.12457e-05
-2.35167e-06
-1.06229e-05
-2.35115e-06
-1.00025e-05
-2.34167e-06
-9.3865e-06
-2.3235e-06
-8.77705e-06
-2.29698e-06
-8.1761e-06
-2.26247e-06
-7.58551e-06
-2.2204e-06
-7.00703e-06
-2.1712e-06
-6.44232e-06
-2.11533e-06
-5.89294e-06
-2.05326e-06
-5.36032e-06
-1.98545e-06
-4.84579e-06
-1.91234e-06
-4.35061e-06
-1.83436e-06
-3.87593e-06
-1.7519e-06
-3.42283e-06
-1.66533e-06
-2.9923e-06
-1.57496e-06
-2.5853e-06
-1.48107e-06
-2.20273e-06
-1.38389e-06
-1.84542e-06
-1.28362e-06
-1.51421e-06
-1.18045e-06
-1.20986e-06
-1.07452e-06
-9.33113e-07
-9.66014e-07
-6.84645e-07
-8.55131e-07
-4.65062e-07
-7.42141e-07
-2.74862e-07
-6.27425e-07
-1.14393e-07
-5.11523e-07
1.62089e-08
-3.95207e-07
1.17095e-07
-2.79557e-07
1.88802e-07
-1.66069e-07
2.32367e-07
-5.67745e-08
2.49471e-07
4.55996e-08
2.42607e-07
1.37451e-07
2.15269e-07
2.14088e-07
1.72182e-07
2.69496e-07
1.19593e-07
2.96111e-07
6.56624e-08
2.84623e-07
2.10511e-08
2.23857e-07
1.00367e-07
-6.00597e-08
1.79036e-07
-2.20412e-07
5.38607e-07
-4.64315e-07
8.80951e-07
-7.77935e-07
1.18915e-06
-1.14938e-06
1.45592e-06
-1.56832e-06
1.67921e-06
-2.02574e-06
1.86063e-06
-2.51384e-06
2.00402e-06
-3.02599e-06
2.11438e-06
-3.5566e-06
2.19706e-06
-4.10109e-06
2.25728e-06
-4.65577e-06
2.29979e-06
-5.2177e-06
2.32874e-06
-5.78463e-06
2.34757e-06
-6.35482e-06
2.3591e-06
-6.92697e-06
2.3655e-06
-7.50012e-06
2.36841e-06
-8.07356e-06
2.36904e-06
-8.64674e-06
2.3682e-06
-9.21926e-06
2.36641e-06
-9.79076e-06
2.36398e-06
-1.0361e-05
2.36102e-06
-1.09295e-05
2.35752e-06
-1.14962e-05
2.35338e-06
-1.20606e-05
2.34843e-06
-1.26224e-05
2.34244e-06
-1.31811e-05
2.33515e-06
-1.37363e-05
2.32628e-06
-1.42874e-05
2.31552e-06
-1.48337e-05
2.30257e-06
-1.53747e-05
2.28709e-06
-1.59096e-05
2.26875e-06
-1.64374e-05
2.24721e-06
-1.69575e-05
2.22213e-06
-1.74687e-05
2.19318e-06
-1.797e-05
2.16e-06
-1.84604e-05
2.12227e-06
-1.89387e-05
2.07965e-06
-1.94036e-05
2.03184e-06
-1.98539e-05
1.97853e-06
-2.02883e-05
1.91943e-06
-2.07053e-05
1.8543e-06
-2.11036e-05
1.7829e-06
-2.14818e-05
1.70503e-06
-2.18383e-05
1.62053e-06
-2.21718e-05
1.52928e-06
-2.24807e-05
1.43121e-06
-2.27637e-05
1.3263e-06
-2.30193e-05
1.21457e-06
-2.32461e-05
1.09612e-06
-2.34428e-05
9.71078e-07
-2.36083e-05
8.39668e-07
-2.37412e-05
7.02158e-07
-2.38405e-05
5.58888e-07
-2.39052e-05
4.10258e-07
-2.39345e-05
2.56738e-07
-2.39276e-05
9.88577e-08
-2.3884e-05
-6.27906e-08
-2.38031e-05
-2.27557e-07
-2.36848e-05
-3.94737e-07
-2.35288e-05
-5.63576e-07
-2.33352e-05
-7.33276e-07
-2.31042e-05
-9.03001e-07
-2.28363e-05
-1.07188e-06
-2.2532e-05
-1.23904e-06
-2.2192e-05
-1.40355e-06
-2.18175e-05
-1.56451e-06
-2.14094e-05
-1.72102e-06
-2.0969e-05
-1.87217e-06
-2.0498e-05
-2.01709e-06
-1.99977e-05
-2.15494e-06
-1.94702e-05
-2.28492e-06
-1.89172e-05
-2.40628e-06
-1.83409e-05
-2.51833e-06
-1.77434e-05
-2.62045e-06
-1.71269e-05
-2.71209e-06
-1.64938e-05
-2.79279e-06
-1.58465e-05
-2.86219e-06
-1.51875e-05
-2.91999e-06
-1.45192e-05
-2.96602e-06
-1.38441e-05
-3.00018e-06
-1.31646e-05
-3.02248e-06
-1.24832e-05
-3.03303e-06
-1.18024e-05
-3.032e-06
-1.11244e-05
-3.01968e-06
-1.04515e-05
-2.99642e-06
-9.78581e-06
-2.96262e-06
-9.12951e-06
-2.91878e-06
-8.48451e-06
-2.86539e-06
-7.85268e-06
-2.80303e-06
-7.23576e-06
-2.73226e-06
-6.63537e-06
-2.65365e-06
-6.05302e-06
-2.56779e-06
-5.49013e-06
-2.47523e-06
-4.94799e-06
-2.3765e-06
-4.42781e-06
-2.27207e-06
-3.93073e-06
-2.16241e-06
-3.45781e-06
-2.04788e-06
-3.01004e-06
-1.92884e-06
-2.58836e-06
-1.80557e-06
-2.19367e-06
-1.67831e-06
-1.82685e-06
-1.54727e-06
-1.48871e-06
-1.41266e-06
-1.18004e-06
-1.27469e-06
-9.01559e-07
-1.13361e-06
-6.53913e-07
-9.89787e-07
-4.37635e-07
-8.43703e-07
-2.53095e-07
-6.96063e-07
-1.00443e-07
-5.47859e-07
2.04755e-08
-4.00475e-07
1.10211e-07
-2.55804e-07
1.6983e-07
-1.16394e-07
2.01055e-07
1.4374e-08
2.06426e-07
1.3208e-07
1.89489e-07
2.31025e-07
1.55025e-07
3.0396e-07
1.09339e-07
3.41797e-07
6.06453e-08
3.33317e-07
1.95893e-08
2.64913e-07
1.19956e-07
-6.96773e-08
2.48713e-07
-2.54143e-07
7.23073e-07
-5.32635e-07
1.15944e-06
-8.88136e-07
1.54465e-06
-1.30643e-06
1.87421e-06
-1.77555e-06
2.14834e-06
-2.28544e-06
2.37051e-06
-2.8276e-06
2.54618e-06
-3.39497e-06
2.68175e-06
-3.98169e-06
2.78378e-06
-4.58298e-06
2.85858e-06
-5.19502e-06
2.91183e-06
-5.81475e-06
2.94848e-06
-6.43982e-06
2.97264e-06
-7.06839e-06
2.98767e-06
-7.69906e-06
2.99617e-06
-8.33077e-06
3.00012e-06
-8.96271e-06
3.00098e-06
-9.59424e-06
2.99973e-06
-1.02249e-05
2.99702e-06
-1.08541e-05
2.99324e-06
-1.14816e-05
2.98852e-06
-1.2107e-05
2.98289e-06
-1.27298e-05
2.97621e-06
-1.33497e-05
2.96828e-06
-1.39661e-05
2.95885e-06
-1.45785e-05
2.94759e-06
-1.51864e-05
2.93417e-06
-1.57891e-05
2.91822e-06
-1.63859e-05
2.89935e-06
-1.6976e-05
2.87718e-06
-1.75585e-05
2.85128e-06
-1.81326e-05
2.82126e-06
-1.86972e-05
2.7867e-06
-1.92512e-05
2.74718e-06
-1.97935e-05
2.7023e-06
-2.03229e-05
2.65166e-06
-2.08381e-05
2.59485e-06
-2.13377e-05
2.53152e-06
-2.18205e-05
2.4613e-06
-2.22849e-05
2.38387e-06
-2.27296e-05
2.29893e-06
-2.31529e-05
2.20622e-06
-2.35534e-05
2.10552e-06
-2.39295e-05
1.99666e-06
-2.42797e-05
1.87952e-06
-2.46026e-05
1.75404e-06
-2.48965e-05
1.62023e-06
-2.51601e-05
1.47815e-06
-2.53919e-05
1.32793e-06
-2.55906e-05
1.1698e-06
-2.5755e-05
1.00403e-06
-2.58838e-05
8.30986e-07
-2.5976e-05
6.51117e-07
-2.60307e-05
4.6494e-07
-2.6047e-05
2.73048e-07
-2.60243e-05
7.61121e-08
-2.59619e-05
-1.25126e-07
-2.58596e-05
-3.29857e-07
-2.57172e-05
-5.3721e-07
-2.55345e-05
-7.46256e-07
-2.53117e-05
-9.56018e-07
-2.50493e-05
-1.16548e-06
-2.47476e-05
-1.37357e-06
-2.44074e-05
-1.57923e-06
-2.40296e-05
-1.78136e-06
-2.36152e-05
-1.97885e-06
-2.31656e-05
-2.17062e-06
-2.26822e-05
-2.3556e-06
-2.21666e-05
-2.53273e-06
-2.16205e-05
-2.70101e-06
-2.10459e-05
-2.85949e-06
-2.04449e-05
-3.00727e-06
-1.98197e-05
-3.14355e-06
-1.91726e-05
-3.26758e-06
-1.8506e-05
-3.37872e-06
-1.78223e-05
-3.47644e-06
-1.71242e-05
-3.5603e-06
-1.64142e-05
-3.62998e-06
-1.5695e-05
-3.68526e-06
-1.49691e-05
-3.72606e-06
-1.42392e-05
-3.7524e-06
-1.35078e-05
-3.76441e-06
-1.27775e-05
-3.76234e-06
-1.20506e-05
-3.74652e-06
-1.13297e-05
-3.71739e-06
-1.06168e-05
-3.67547e-06
-9.91424e-06
-3.62134e-06
-9.22401e-06
-3.55563e-06
-8.54803e-06
-3.47901e-06
-7.88811e-06
-3.39218e-06
-7.24592e-06
-3.29584e-06
-6.62301e-06
-3.1907e-06
-6.02084e-06
-3.07741e-06
-5.44071e-06
-2.95662e-06
-4.88388e-06
-2.8289e-06
-4.35149e-06
-2.6948e-06
-3.84462e-06
-2.55476e-06
-3.36426e-06
-2.4092e-06
-2.91138e-06
-2.25845e-06
-2.48689e-06
-2.1028e-06
-2.09166e-06
-1.9425e-06
-1.72653e-06
-1.77779e-06
-1.39229e-06
-1.60892e-06
-1.08967e-06
-1.43622e-06
-8.19342e-07
-1.26012e-06
-5.81828e-07
-1.08122e-06
-3.77508e-07
-9.00384e-07
-2.06528e-07
-7.18839e-07
-6.87314e-08
-5.38272e-07
3.64433e-08
-3.60978e-07
1.10075e-07
-1.90026e-07
1.539e-07
-2.94504e-08
1.70465e-07
1.15515e-07
1.63322e-07
2.38168e-07
1.37248e-07
3.30034e-07
9.85253e-08
3.80519e-07
5.52986e-08
3.76543e-07
1.80281e-08
3.02184e-07
1.37984e-07
-7.83514e-08
3.27064e-07
-2.84774e-07
9.29496e-07
-5.94998e-07
1.46967e-06
-9.89136e-07
1.93879e-06
-1.45078e-06
2.33585e-06
-1.96639e-06
2.66395e-06
-2.52483e-06
2.92894e-06
-3.11689e-06
3.13825e-06
-3.73505e-06
3.29991e-06
-4.37319e-06
3.42191e-06
-5.02635e-06
3.51174e-06
-5.69058e-06
3.57606e-06
-6.36277e-06
3.62066e-06
-7.04045e-06
3.65033e-06
-7.72174e-06
3.66896e-06
-8.40516e-06
3.67959e-06
-9.08958e-06
3.68454e-06
-9.7741e-06
3.6855e-06
-1.0458e-05
3.68363e-06
-1.11407e-05
3.67972e-06
-1.18217e-05
3.6742e-06
-1.25004e-05
3.66727e-06
-1.31765e-05
3.65893e-06
-1.38493e-05
3.64907e-06
-1.45185e-05
3.63743e-06
-1.51833e-05
3.62372e-06
-1.58433e-05
3.60758e-06
-1.64978e-05
3.58859e-06
-1.71459e-05
3.56633e-06
-1.77869e-05
3.54035e-06
-1.84198e-05
3.51017e-06
-1.90439e-05
3.47531e-06
-1.96579e-05
3.43531e-06
-2.02609e-05
3.38965e-06
-2.08516e-05
3.33787e-06
-2.14287e-05
3.27949e-06
-2.19911e-05
3.21402e-06
-2.25373e-05
3.14104e-06
-2.30659e-05
3.06009e-06
-2.35754e-05
2.97078e-06
-2.40642e-05
2.87275e-06
-2.4531e-05
2.76566e-06
-2.4974e-05
2.64922e-06
-2.53917e-05
2.52321e-06
-2.57824e-05
2.38745e-06
-2.61448e-05
2.24183e-06
-2.6477e-05
2.08631e-06
-2.67777e-05
1.92093e-06
-2.70454e-05
1.7458e-06
-2.72786e-05
1.56113e-06
-2.7476e-05
1.3672e-06
-2.76363e-05
1.16438e-06
-2.77585e-05
9.53135e-07
-2.78414e-05
7.34027e-07
-2.78841e-05
5.07698e-07
-2.7886e-05
2.74881e-07
-2.78463e-05
3.63943e-08
-2.77645e-05
-2.06863e-07
-2.76405e-05
-4.53915e-07
-2.7474e-05
-7.03717e-07
-2.72651e-05
-9.55158e-07
-2.7014e-05
-1.20707e-06
-2.67212e-05
-1.45826e-06
-2.63873e-05
-1.70745e-06
-2.60132e-05
-1.9534e-06
-2.55997e-05
-2.1948e-06
-2.51482e-05
-2.43037e-06
-2.466e-05
-2.65884e-06
-2.41367e-05
-2.87893e-06
-2.358e-05
-3.08943e-06
-2.29918e-05
-3.28918e-06
-2.23742e-05
-3.47706e-06
-2.17294e-05
-3.65203e-06
-2.10598e-05
-3.81316e-06
-2.03678e-05
-3.95959e-06
-1.9656e-05
-4.09058e-06
-1.89269e-05
-4.20552e-06
-1.81833e-05
-4.3039e-06
-1.74279e-05
-4.38537e-06
-1.66634e-05
-4.4497e-06
-1.58927e-05
-4.49679e-06
-1.51184e-05
-4.52669e-06
-1.43433e-05
-4.53957e-06
-1.35699e-05
-4.53574e-06
-1.28008e-05
-4.51561e-06
-1.20385e-05
-4.47971e-06
-1.12853e-05
-4.42866e-06
-1.05435e-05
-4.36316e-06
-9.8151e-06
-4.28398e-06
-9.1022e-06
-4.19191e-06
-8.40659e-06
-4.08779e-06
-7.72998e-06
-3.97245e-06
-7.07394e-06
-3.84674e-06
-6.43993e-06
-3.71143e-06
-5.82927e-06
-3.56728e-06
-5.24319e-06
-3.41498e-06
-4.68284e-06
-3.25515e-06
-4.14925e-06
-3.08834e-06
-3.64343e-06
-2.91502e-06
-3.1663e-06
-2.73558e-06
-2.71876e-06
-2.55034e-06
-2.30164e-06
-2.35961e-06
-1.91577e-06
-2.16366e-06
-1.5619e-06
-1.96279e-06
-1.24077e-06
-1.75736e-06
-9.52989e-07
-1.5479e-06
-6.9909e-07
-1.33512e-06
-4.79426e-07
-1.12005e-06
-2.9413e-07
-9.04135e-07
-1.43031e-07
-6.89371e-07
-2.55566e-08
-4.78453e-07
5.93784e-08
-2.74961e-07
1.13508e-07
-8.358e-08
1.39372e-07
8.96505e-08
1.405e-07
2.3704e-07
1.21634e-07
3.48901e-07
8.89906e-08
4.13163e-07
5.05933e-08
4.14941e-07
1.66664e-08
3.36111e-07
1.54651e-07
-8.61799e-08
4.13244e-07
-3.12536e-07
1.15585e-06
-6.51718e-07
1.80885e-06
-1.08127e-06
2.36834e-06
-1.58277e-06
2.83735e-06
-2.14119e-06
3.22238e-06
-2.74433e-06
3.53208e-06
-3.38228e-06
3.7762e-06
-4.04706e-06
3.96469e-06
-4.73226e-06
4.10711e-06
-5.43275e-06
4.21223e-06
-6.14447e-06
4.28779e-06
-6.86424e-06
4.34043e-06
-7.58955e-06
4.37564e-06
-8.31845e-06
4.39786e-06
-9.04943e-06
4.41057e-06
-9.78128e-06
4.41639e-06
-1.0513e-05
4.41727e-06
-1.12439e-05
4.41454e-06
-1.19733e-05
4.40909e-06
-1.27005e-05
4.40143e-06
-1.34251e-05
4.39179e-06
-1.41463e-05
4.38019e-06
-1.48637e-05
4.36648e-06
-1.55767e-05
4.3504e-06
-1.62846e-05
4.33159e-06
-1.69866e-05
4.30964e-06
-1.76821e-05
4.28409e-06
-1.83702e-05
4.25443e-06
-1.905e-05
4.22014e-06
-1.97205e-05
4.18068e-06
-2.03807e-05
4.13551e-06
-2.10295e-05
4.08406e-06
-2.16656e-05
4.02577e-06
-2.22878e-05
3.96009e-06
-2.28948e-05
3.88647e-06
-2.34852e-05
3.80439e-06
-2.40575e-05
3.71332e-06
-2.46102e-05
3.6128e-06
-2.51417e-05
3.50236e-06
-2.56506e-05
3.38162e-06
-2.61351e-05
3.25019e-06
-2.65937e-05
3.1078e-06
-2.70247e-05
2.95419e-06
-2.74264e-05
2.78919e-06
-2.77973e-05
2.61273e-06
-2.81358e-05
2.42478e-06
-2.84403e-05
2.22543e-06
-2.87094e-05
2.01484e-06
-2.89415e-05
1.7933e-06
-2.91355e-05
1.56116e-06
-2.929e-05
1.31889e-06
-2.9404e-05
1.06708e-06
-2.94763e-05
8.06401e-07
-2.95063e-05
5.37628e-07
-2.9493e-05
2.61641e-07
-2.9436e-05
-2.05875e-08
-2.93349e-05
-3.07993e-07
-2.91894e-05
-5.99428e-07
-2.89994e-05
-8.93666e-07
-2.87652e-05
-1.18941e-06
-2.8487e-05
-1.48531e-06
-2.81653e-05
-1.77996e-06
-2.78008e-05
-2.07191e-06
-2.73945e-05
-2.35969e-06
-2.69475e-05
-2.64182e-06
-2.6461e-05
-2.91682e-06
-2.59367e-05
-3.18321e-06
-2.5376e-05
-3.43955e-06
-2.4781e-05
-3.68444e-06
-2.41537e-05
-3.91655e-06
-2.34961e-05
-4.13459e-06
-2.28108e-05
-4.33739e-06
-2.21001e-05
-4.52387e-06
-2.13666e-05
-4.69306e-06
-2.06131e-05
-4.84412e-06
-1.98422e-05
-4.97636e-06
-1.90569e-05
-5.08921e-06
-1.826e-05
-5.18228e-06
-1.74544e-05
-5.2553e-06
-1.6643e-05
-5.30821e-06
-1.58286e-05