/*--------------------------------*- C++ -*----------------------------------*\
| =========                 |                                                 |
| \\      /  F ield         | OpenFOAM: The Open Source CFD Toolbox           |
|  \\    /   O peration     | Version:  2406                                  |
|   \\  /    A nd           | Website:  www.openfoam.com                      |
|    \\/     M anipulation  |                                                 |
\*---------------------------------------------------------------------------*/
FoamFile
{
    version     2.0;
    format      ascii;
    arch        "LSB;label=32;scalar=64";
    class       volVectorField;
    location    "5.4";
    object      Uold;
}
// * * * * * * * * * * * * * * * * * * * * * * * * * * * * * * * * * * * * * //

dimensions      [0 1 -1 0 0 0 0];

internalField   nonuniform List<vector> 
3600
(
(8.83092e-06 -8.58523e-06 0)
(-2.6056e-05 1.8566e-05 0)
(-0.000133644 3.9555e-05 0)
(-0.00028381 5.3971e-05 0)
(-0.000467261 5.96691e-05 0)
(-0.00066017 6.22741e-05 0)
(-0.000861588 6.21415e-05 0)
(-0.00106109 6.16593e-05 0)
(-0.00126109 6.05842e-05 0)
(-0.00145727 5.97169e-05 0)
(-0.0016518 5.87081e-05 0)
(-0.0018426 5.78249e-05 0)
(-0.00203082 5.68198e-05 0)
(-0.00221515 5.57958e-05 0)
(-0.00239595 5.4608e-05 0)
(-0.00257219 5.32998e-05 0)
(-0.0027437 5.17869e-05 0)
(-0.00290955 5.00831e-05 0)
(-0.00306923 4.8134e-05 0)
(-0.00322179 4.5937e-05 0)
(-0.00336649 4.34535e-05 0)
(-0.00350232 4.06736e-05 0)
(-0.00362836 3.75693e-05 0)
(-0.00374354 3.41308e-05 0)
(-0.00384683 3.03412e-05 0)
(-0.00393713 2.61969e-05 0)
(-0.00401337 2.1695e-05 0)
(-0.00407448 1.68447e-05 0)
(-0.00411943 1.1661e-05 0)
(-0.00414729 6.17147e-06 0)
(-0.00415723 4.12561e-07 0)
(-0.00414852 -5.56647e-06 0)
(-0.00412064 -1.17062e-05 0)
(-0.00407327 -1.79356e-05 0)
(-0.00400627 -2.41751e-05 0)
(-0.00391981 -3.03365e-05 0)
(-0.00381429 -3.6328e-05 0)
(-0.00369039 -4.20545e-05 0)
(-0.00354905 -4.74244e-05 0)
(-0.00339151 -5.23495e-05 0)
(-0.0032192 -5.67547e-05 0)
(-0.00303378 -6.05732e-05 0)
(-0.00283705 -6.37622e-05 0)
(-0.00263097 -6.62872e-05 0)
(-0.00241744 -6.81494e-05 0)
(-0.00219856 -6.93472e-05 0)
(-0.0019761 -6.99286e-05 0)
(-0.00175213 -6.99048e-05 0)
(-0.00152816 -6.93546e-05 0)
(-0.0013063 -6.82383e-05 0)
(-0.00108787 -6.66084e-05 0)
(-0.000875679 -6.42196e-05 0)
(-0.000671592 -6.09716e-05 0)
(-0.000480652 -5.61195e-05 0)
(-0.000306994 -4.92966e-05 0)
(-0.000160012 -3.90265e-05 0)
(-4.74309e-05 -2.54132e-05 0)
(1.92916e-05 -7.60445e-06 0)
(3.63225e-05 8.59097e-06 0)
(1.5052e-05 1.55382e-05 0)
(-1.89702e-05 2.63654e-05 0)
(-0.000165896 0.000162867 0)
(-0.000455652 0.000267547 0)
(-0.000828315 0.000341878 0)
(-0.00127189 0.000380317 0)
(-0.00174303 0.000400562 0)
(-0.00223659 0.000406549 0)
(-0.00273182 0.000407134 0)
(-0.00322963 0.000403591 0)
(-0.00372118 0.000399047 0)
(-0.00420849 0.00039327 0)
(-0.00468738 0.000387152 0)
(-0.00515897 0.000380185 0)
(-0.0056206 0.000372576 0)
(-0.00607229 0.000363928 0)
(-0.00651184 0.000354251 0)
(-0.0069384 0.000343269 0)
(-0.00734986 0.000330926 0)
(-0.00774475 0.000317016 0)
(-0.00812088 0.000301455 0)
(-0.00847633 0.000284087 0)
(-0.00880876 0.000264826 0)
(-0.00911597 0.00024356 0)
(-0.00939547 0.00022023 0)
(-0.00964489 0.000194783 0)
(-0.00986173 0.000167214 0)
(-0.0100436 0.000137548 0)
(-0.0101882 0.000105865 0)
(-0.0102932 7.22894e-05 0)
(-0.0103568 3.70088e-05 0)
(-0.0103771 2.65614e-07 0)
(-0.0103528 -3.76341e-05 0)
(-0.0102828 -7.6328e-05 0)
(-0.0101666 -0.000115398 0)
(-0.0100042 -0.000154382 0)
(-0.00979601 -0.000192782 0)
(-0.00954309 -0.00023008 0)
(-0.00924707 -0.000265755 0)
(-0.00891011 -0.000299302 0)
(-0.00853497 -0.000330249 0)
(-0.0081248 -0.000358185 0)
(-0.00768323 -0.000382762 0)
(-0.00721412 -0.000403734 0)
(-0.00672171 -0.00042093 0)
(-0.00621012 -0.000434312 0)
(-0.00568379 -0.000443885 0)
(-0.00514672 -0.000449792 0)
(-0.00460336 -0.000452098 0)
(-0.00405734 -0.000450971 0)
(-0.0035134 -0.000446188 0)
(-0.00297527 -0.000437538 0)
(-0.0024494 -0.000423766 0)
(-0.00194134 -0.000403602 0)
(-0.00146244 -0.000373691 0)
(-0.00102301 -0.000331551 0)
(-0.000642616 -0.000271924 0)
(-0.00033629 -0.000195521 0)
(-0.000125956 -0.000102478 0)
(-1.43031e-05 -1.5858e-05 0)
(7.96906e-06 3.61259e-05 0)
(-4.33277e-05 0.000139597 0)
(-0.000286275 0.000458237 0)
(-0.000727914 0.000698926 0)
(-0.00127373 0.000867647 0)
(-0.00191311 0.00096347 0)
(-0.00258943 0.00101536 0)
(-0.00329704 0.00103521 0)
(-0.00400878 0.00103933 0)
(-0.00472482 0.00103306 0)
(-0.00543325 0.0010224 0)
(-0.00613566 0.00100829 0)
(-0.0068263 0.000992312 0)
(-0.00750592 0.000974027 0)
(-0.00817089 0.000953623 0)
(-0.0088207 0.000930526 0)
(-0.00945234 0.00090458 0)
(-0.0100643 0.000875304 0)
(-0.0106537 0.00084246 0)
(-0.0112182 0.000805658 0)
(-0.0117548 0.000764649 0)
(-0.0122607 0.000719121 0)
(-0.0127327 0.00066886 0)
(-0.0131676 0.00061365 0)
(-0.013562 0.000553367 0)
(-0.0139127 0.000487932 0)
(-0.0142162 0.000417371 0)
(-0.0144694 0.000341793 0)
(-0.0146691 0.000261429 0)
(-0.0148124 0.000176631 0)
(-0.0148967 8.78827e-05 0)
(-0.0149199 -4.19423e-06 0)
(-0.0148802 -9.88406e-05 0)
(-0.0147764 -0.000195169 0)
(-0.0146081 -0.000292173 0)
(-0.0143752 -0.00038875 0)
(-0.0140787 -0.000483727 0)
(-0.0137201 -0.000575897 0)
(-0.0133018 -0.000664051 0)
(-0.0128269 -0.00074703 0)
(-0.012299 -0.000823758 0)
(-0.0117225 -0.000893297 0)
(-0.0111022 -0.000954869 0)
(-0.0104435 -0.00100791 0)
(-0.00975189 -0.00105205 0)
(-0.00903288 -0.00108717 0)
(-0.00829236 -0.00111329 0)
(-0.00753571 -0.00113065 0)
(-0.00676882 -0.0011394 0)
(-0.00599669 -0.00113968 0)
(-0.00522567 -0.00113097 0)
(-0.00446106 -0.00111232 0)
(-0.00371161 -0.00108091 0)
(-0.00298506 -0.00103309 0)
(-0.0022966 -0.000961812 0)
(-0.00165968 -0.000860639 0)
(-0.00110003 -0.000720035 0)
(-0.000635436 -0.000540645 0)
(-0.000296475 -0.000327211 0)
(-8.42019e-05 -0.000121407 0)
(-5.11595e-06 2.3201e-05 0)
(-6.2527e-05 0.000306817 0)
(-0.000383627 0.000856598 0)
(-0.000945528 0.00125747 0)
(-0.00162249 0.00153158 0)
(-0.00240631 0.00169246 0)
(-0.00323044 0.00178082 0)
(-0.00409129 0.00181792 0)
(-0.00495726 0.00182719 0)
(-0.00582899 0.00181852 0)
(-0.00669215 0.00180088 0)
(-0.00754819 0.00177668 0)
(-0.00839001 0.00174829 0)
(-0.00921805 0.0017155 0)
(-0.0100278 0.00167851 0)
(-0.0108184 0.0016366 0)
(-0.011586 0.00158947 0)
(-0.0123289 0.0015364 0)
(-0.0130432 0.00147698 0)
(-0.0137263 0.00141061 0)
(-0.0143745 0.00133686 0)
(-0.0149843 0.00125524 0)
(-0.0155519 0.00116543 0)
(-0.0160734 0.0010671 0)
(-0.016545 0.000960075 0)
(-0.0169627 0.000844285 0)
(-0.0173225 0.000719817 0)
(-0.0176207 0.000586919 0)
(-0.0178537 0.000446039 0)
(-0.0180183 0.000297824 0)
(-0.0181114 0.00014315 0)
(-0.0181308 -1.68887e-05 0)
(-0.0180745 -0.000180973 0)
(-0.0179414 -0.000347578 0)
(-0.017731 -0.000514991 0)
(-0.0174437 -0.000681355 0)
(-0.0170807 -0.000844708 0)
(-0.0166441 -0.00100304 0)
(-0.0161367 -0.00115437 0)
(-0.0155624 -0.00129677 0)
(-0.0149256 -0.00142852 0)
(-0.0142316 -0.00154807 0)
(-0.0134861 -0.00165419 0)
(-0.0126953 -0.00174596 0)
(-0.0118658 -0.0018228 0)
(-0.0110039 -0.00188453 0)
(-0.0101167 -0.00193118 0)
(-0.00921023 -0.00196309 0)
(-0.00829151 -0.00198048 0)
(-0.00736635 -0.00198342 0)
(-0.00644219 -0.00197102 0)
(-0.00552522 -0.0019414 0)
(-0.00462564 -0.00189005 0)
(-0.0037522 -0.00181064 0)
(-0.00292225 -0.00169231 0)
(-0.00215011 -0.00152429 0)
(-0.00146492 -0.00129312 0)
(-0.000884266 -0.000998339 0)
(-0.000445376 -0.000649495 0)
(-0.000147995 -0.00030077 0)
(-1.73444e-05 -2.66473e-05 0)
(-7.37111e-05 0.000521221 0)
(-0.000449066 0.00135082 0)
(-0.00109968 0.00193809 0)
(-0.00187401 0.00233062 0)
(-0.00276457 0.00256436 0)
(-0.00369593 0.00269325 0)
(-0.00466671 0.00275003 0)
(-0.005642 0.00276521 0)
(-0.00662355 0.00275395 0)
(-0.00759534 0.00272813 0)
(-0.00855913 0.00269196 0)
(-0.00950676 0.00264859 0)
(-0.0104386 0.00259814 0)
(-0.0113495 0.00254086 0)
(-0.0122382 0.00247592 0)
(-0.0131006 0.00240281 0)
(-0.0139342 0.00232062 0)
(-0.0147351 0.00222871 0)
(-0.0155001 0.00212626 0)
(-0.0162249 0.00201265 0)
(-0.0169057 0.00188723 0)
(-0.0175383 0.00174952 0)
(-0.0181183 0.0015991 0)
(-0.0186414 0.00143577 0)
(-0.0191032 0.00125947 0)
(-0.0194993 0.00107039 0)
(-0.0198257 0.000868968 0)
(-0.0200784 0.000655922 0)
(-0.0202539 0.000432274 0)
(-0.020349 0.000199373 0)
(-0.0203612 -4.11135e-05 0)
(-0.0202885 -0.000287197 0)
(-0.02013 -0.000536596 0)
(-0.0198851 -0.000786771 0)
(-0.0195545 -0.00103498 0)
(-0.0191396 -0.00127834 0)
(-0.0186431 -0.00151392 0)
(-0.0180682 -0.00173883 0)
(-0.0174195 -0.00195032 0)
(-0.0167019 -0.00214586 0)
(-0.0159216 -0.00232328 0)
(-0.015085 -0.0024808 0)
(-0.014199 -0.00261714 0)
(-0.0132712 -0.00273152 0)
(-0.0123087 -0.00282365 0)
(-0.0113192 -0.00289366 0)
(-0.0103096 -0.00294198 0)
(-0.00928758 -0.00296893 0)
(-0.00825954 -0.00297454 0)
(-0.00723361 -0.0029575 0)
(-0.00621641 -0.00291494 0)
(-0.00521892 -0.00284056 0)
(-0.00425012 -0.00272503 0)
(-0.00332852 -0.00255368 0)
(-0.00246831 -0.00231083 0)
(-0.00170084 -0.0019792 0)
(-0.00104315 -0.00155599 0)
(-0.000538027 -0.00105549 0)
(-0.000185011 -0.000540342 0)
(-2.32888e-05 -0.000103626 0)
(-8.13704e-05 0.00076005 0)
(-0.000495426 0.00190085 0)
(-0.00120949 0.00268982 0)
(-0.00205393 0.00320644 0)
(-0.00302105 0.00351469 0)
(-0.00402848 0.00368414 0)
(-0.0050767 0.00376034 0)
(-0.00612833 0.003781 0)
(-0.00718635 0.00376663 0)
(-0.00823354 0.00373184 0)
(-0.00927214 0.00368264 0)
(-0.0102932 0.00362288 0)
(-0.0112972 0.00355307 0)
(-0.0122784 0.00347343 0)
(-0.0132354 0.00338308 0)
(-0.0141637 0.00328129 0)
(-0.0150607 0.00316697 0)
(-0.015922 0.00303922 0)
(-0.016744 0.00289705 0)
(-0.0175223 0.0027396 0)
(-0.0182527 0.00256606 0)
(-0.0189305 0.00237582 0)
(-0.0195513 0.00216837 0)
(-0.0201101 0.00194346 0)
(-0.0206023 0.0017011 0)
(-0.0210232 0.00144158 0)
(-0.0213685 0.00116555 0)
(-0.0216338 0.000874045 0)
(-0.0218154 0.000568502 0)
(-0.02191 0.000250792 0)
(-0.0219148 -7.67872e-05 0)
(-0.0218278 -0.000411512 0)
(-0.0216478 -0.000750273 0)
(-0.0213746 -0.00108963 0)
(-0.021009 -0.00142586 0)
(-0.0205525 -0.0017551 0)
(-0.0200082 -0.00207341 0)
(-0.0193798 -0.00237692 0)
(-0.0186723 -0.00266195 0)
(-0.0178914 -0.00292516 0)
(-0.0170439 -0.00316366 0)
(-0.016137 -0.00337513 0)
(-0.0151785 -0.0035579 0)
(-0.0141766 -0.00371098 0)
(-0.0131393 -0.00383405 0)
(-0.0120752 -0.00392732 0)
(-0.0109918 -0.0039914 0)
(-0.00989732 -0.0040268 0)
(-0.00879882 -0.00403353 0)
(-0.00770489 -0.00401 0)
(-0.00662241 -0.00395237 0)
(-0.00556276 -0.00385271 0)
(-0.00453486 -0.00369875 0)
(-0.00355772 -0.00347214 0)
(-0.00264509 -0.00315211 0)
(-0.00182949 -0.00271748 0)
(-0.00112749 -0.00216199 0)
(-0.000585219 -0.00150347 0)
(-0.000202478 -0.000810143 0)
(-2.54908e-05 -0.00019227 0)
(-8.56501e-05 0.00102058 0)
(-0.000525182 0.00249928 0)
(-0.00128314 0.00350445 0)
(-0.00217729 0.00415242 0)
(-0.00319926 0.00453824 0)
(-0.00426115 0.00474919 0)
(-0.00536459 0.00484491 0)
(-0.00647026 0.00487068 0)
(-0.00758224 0.00485266 0)
(-0.00868247 0.00480814 0)
(-0.00977375 0.00474498 0)
(-0.0108466 0.00466765 0)
(-0.0119018 0.00457707 0)
(-0.012933 0.00447342 0)
(-0.0139392 0.00435573 0)
(-0.0149151 0.00422306 0)
(-0.0158583 0.00407411 0)
(-0.0167639 0.00390775 0)
(-0.0176284 0.00372275 0)
(-0.018447 0.00351803 0)
(-0.0192152 0.00329261 0)
(-0.019928 0.00304571 0)
(-0.0205807 0.00277673 0)
(-0.021168 0.00248538 0)
(-0.0216851 0.0021717 0)
(-0.0221268 0.00183612 0)
(-0.0224885 0.00147951 0)
(-0.0227655 0.00110323 0)
(-0.0229537 0.000709158 0)
(-0.0230495 0.000299741 0)
(-0.0230499 -0.000122038 0)
(-0.0229527 -0.000552654 0)
(-0.0227565 -0.000988086 0)
(-0.022461 -0.00142389 0)
(-0.0220669 -0.00185527 0)
(-0.0215762 -0.00227726 0)
(-0.0209919 -0.00268477 0)
(-0.0203184 -0.00307283 0)
(-0.019561 -0.00343674 0)
(-0.0187261 -0.00377222 0)
(-0.0178212 -0.00407558 0)
(-0.0168545 -0.00434388 0)
(-0.0158346 -0.00457503 0)
(-0.0147706 -0.00476782 0)
(-0.0136715 -0.0049219 0)
(-0.0125466 -0.00503766 0)
(-0.0114045 -0.00511594 0)
(-0.0102539 -0.00515753 0)
(-0.00910253 -0.00516254 0)
(-0.00795934 -0.00512923 0)
(-0.00683145 -0.00505289 0)
(-0.00573048 -0.00492403 0)
(-0.00466525 -0.00472746 0)
(-0.00365491 -0.00444116 0)
(-0.00271301 -0.00403909 0)
(-0.00187262 -0.00349594 0)
(-0.0011503 -0.00280151 0)
(-0.000593696 -0.0019767 0)
(-0.000202676 -0.00109529 0)
(-2.43435e-05 -0.000285067 0)
(-8.87378e-05 0.00129103 0)
(-0.00054618 0.00312386 0)
(-0.0013348 0.0043542 0)
(-0.00226423 0.00513768 0)
(-0.00332539 0.0056021 0)
(-0.0044264 0.00585435 0)
(-0.00556959 0.00596894 0)
(-0.00671419 0.00599921 0)
(-0.00786516 0.00597705 0)
(-0.00900387 0.00592242 0)
(-0.0101337 0.00584496 0)
(-0.0112448 0.00574973 0)
(-0.0123381 0.00563797 0)
(-0.0134072 0.00550981 0)
(-0.0144509 0.00536416 0)
(-0.015464 0.00519986 0)
(-0.0164438 0.0050154 0)
(-0.0173854 0.00480937 0)
(-0.018285 0.0045803 0)
(-0.0191376 0.00432688 0)
(-0.0199385 0.00404791 0)
(-0.0206825 0.00374242 0)
(-0.0213645 0.00340972 0)
(-0.021979 0.00304944 0)
(-0.0225206 0.00266164 0)
(-0.022984 0.00224685 0)
(-0.0233639 0.00180615 0)
(-0.0236553 0.00134123 0)
(-0.0238536 0.000854422 0)
(-0.0239549 0.000348756 0)
(-0.0239555 -0.000172063 0)
(-0.023853 -0.000703654 0)
(-0.0236457 -0.00124102 0)
(-0.023333 -0.00177862 0)
(-0.0229156 -0.00231049 0)
(-0.0223955 -0.0028304 0)
(-0.0217758 -0.00333203 0)
(-0.0210612 -0.00380915 0)
(-0.0202576 -0.00425588 0)
(-0.0193723 -0.00466687 0)
(-0.0184133 -0.00503752 0)
(-0.01739 -0.00536421 0)
(-0.0163119 -0.00564433 0)
(-0.0151894 -0.00587647 0)
(-0.0140326 -0.00606026 0)
(-0.0128519 -0.00619632 0)
(-0.0116567 -0.00628584 0)
(-0.0104568 -0.00633006 0)
(-0.00926043 -0.0063293 0)
(-0.00807714 -0.00628189 0)
(-0.00691434 -0.00618239 0)
(-0.00578375 -0.00601997 0)
(-0.00469421 -0.00577658 0)
(-0.00366478 -0.0054266 0)
(-0.00270898 -0.00493865 0)
(-0.0018598 -0.00428308 0)
(-0.00113399 -0.00344565 0)
(-0.000578727 -0.00245011 0)
(-0.000193599 -0.00137692 0)
(-2.19186e-05 -0.000373078 0)
(-9.06467e-05 0.00157161 0)
(-0.000560471 0.00377198 0)
(-0.00137096 0.00523531 0)
(-0.00232609 0.00615881 0)
(-0.00341625 0.00670379 0)
(-0.00454656 0.0069981 0)
(-0.0057198 0.00713166 0)
(-0.00689406 0.00716637 0)
(-0.008075 0.00713999 0)
(-0.00924359 0.00707524 0)
(-0.0104037 0.00698351 0)
(-0.0115453 0.00687043 0)
(-0.0126696 0.00673754 0)
(-0.0137701 0.00658486 0)
(-0.0148457 0.00641119 0)
(-0.0158911 0.0062151 0)
(-0.0169035 0.00599483 0)
(-0.0178779 0.00574868 0)
(-0.0188104 0.0054749 0)
(-0.0196958 0.0051719 0)
(-0.0205293 0.00483825 0)
(-0.0213052 0.00447275 0)
(-0.0220183 0.00407452 0)
(-0.0226625 0.00364312 0)
(-0.0232322 0.00317855 0)
(-0.0237214 0.00268141 0)
(-0.0241244 0.00215297 0)
(-0.0244355 0.00159521 0)
(-0.0246496 0.00101092 0)
(-0.024762 0.000403705 0)
(-0.0247686 -0.000221965 0)
(-0.0246663 -0.000860801 0)
(-0.0244529 -0.00150674 0)
(-0.0241274 -0.00215302 0)
(-0.0236902 -0.00279238 0)
(-0.0231432 -0.00341717 0)
(-0.0224897 -0.00401961 0)
(-0.0217347 -0.00459203 0)
(-0.0208846 -0.00512716 0)
(-0.0199475 -0.00561839 0)
(-0.0189325 -0.00606005 0)
(-0.0178499 -0.00644764 0)
(-0.0167108 -0.00677799 0)
(-0.015527 -0.00704942 0)
(-0.0143099 -0.00726157 0)
(-0.0130712 -0.00741538 0)
(-0.0118217 -0.00751249 0)
(-0.0105723 -0.00755477 0)
(-0.00933202 -0.00754299 0)
(-0.00811099 -0.00747571 0)
(-0.00691707 -0.00734698 0)
(-0.00576204 -0.00714478 0)
(-0.00465488 -0.0068483 0)
(-0.00361438 -0.00642833 0)
(-0.0026542 -0.00584816 0)
(-0.00180678 -0.0050738 0)
(-0.00108909 -0.00408732 0)
(-0.000546367 -0.00291591 0)
(-0.000177296 -0.00164876 0)
(-1.83745e-05 -0.000454308 0)
(-9.23066e-05 0.00185703 0)
(-0.000571805 0.00443345 0)
(-0.00139902 0.00613496 0)
(-0.00237396 0.00720146 0)
(-0.00348667 0.00782823 0)
(-0.00464013 0.00816506 0)
(-0.00583742 0.00831767 0)
(-0.00703583 0.00835693 0)
(-0.00824154 0.00832655 0)
(-0.0094353 0.00825209 0)
(-0.0106214 0.00814667 0)
(-0.0117898 0.00801643 0)
(-0.0129419 0.00786319 0)
(-0.0140711 0.00768682 0)
(-0.0151766 0.00748598 0)
(-0.0162529 0.00725894 0)
(-0.0172974 0.00700364 0)
(-0.0183049 0.00671807 0)
(-0.0192714 0.00640015 0)
(-0.0201914 0.00604798 0)
(-0.0210601 0.00565979 0)
(-0.0218715 0.00523413 0)
(-0.0226198 0.00476988 0)
(-0.0232988 0.00426641 0)
(-0.023902 0.00372363 0)
(-0.0244231 0.00314215 0)
(-0.0248555 0.00252334 0)
(-0.0251929 0.00186944 0)
(-0.0254293 0.00118366 0)
(-0.0255591 0.000470176 0)
(-0.0255776 -0.000265762 0)
(-0.0254806 -0.0010179 0)
(-0.0252655 -0.00177902 0)
(-0.0249305 -0.00254105 0)
(-0.0244756 -0.0032952 0)
(-0.0239025 -0.00403222 0)
(-0.0232144 -0.00474265 0)
(-0.0224168 -0.00541713 0)
(-0.0215166 -0.00604671 0)
(-0.0205228 -0.00662329 0)
(-0.0194457 -0.00713987 0)
(-0.0182971 -0.00759091 0)
(-0.0170898 -0.00797254 0)
(-0.0158372 -0.00828273 0)
(-0.0145525 -0.00852117 0)
(-0.0132494 -0.00868919 0)
(-0.0119401 -0.00878908 0)
(-0.0106368 -0.00882355 0)
(-0.00934969 -0.00879407 0)
(-0.00808965 -0.00869976 0)
(-0.00686507 -0.00853439 0)
(-0.00568776 -0.00828498 0)
(-0.00456689 -0.00792812 0)
(-0.00352074 -0.00743112 0)
(-0.00256314 -0.00675201 0)
(-0.00172538 -0.00585259 0)
(-0.00102453 -0.00471183 0)
(-0.00050255 -0.00336133 0)
(-0.000156699 -0.0019013 0)
(-1.43913e-05 -0.000524531 0)
(-9.36406e-05 0.00214836 0)
(-0.000581073 0.00510848 0)
(-0.00142213 0.00705284 0)
(-0.00241354 0.00826536 0)
(-0.00354521 0.00897557 0)
(-0.00471843 0.00935597 0)
(-0.00593661 0.00952829 0)
(-0.00715639 0.00957274 0)
(-0.00838444 0.00953906 0)
(-0.00960133 0.00945573 0)
(-0.0108118 0.00933759 0)
(-0.0120057 0.00919131 0)
(-0.0131849 0.00901894 0)
(-0.0143428 0.0088202 0)
(-0.0154786 0.00859354 0)
(-0.0165869 0.0083369 0)
(-0.0176651 0.00804792 0)
(-0.0187081 0.00772416 0)
(-0.0197117 0.00736321 0)
(-0.0206703 0.00696275 0)
(-0.0215787 0.00652065 0)
(-0.0224308 0.00603509 0)
(-0.0232203 0.00550463 0)
(-0.0239404 0.00492836 0)
(-0.0245841 0.00430601 0)
(-0.0251443 0.00363809 0)
(-0.0256135 0.00292601 0)
(-0.0259846 0.00217218 0)
(-0.0262506 0.00138016 0)
(-0.0264047 0.000554725 0)
(-0.0264412 -0.000298122 0)
(-0.0263549 -0.0011711 0)
(-0.0261421 -0.00205574 0)
(-0.0258002 -0.00294246 0)
(-0.0253287 -0.00382079 0)
(-0.0247286 -0.0046796 0)
(-0.0240035 -0.00550743 0)
(-0.0231587 -0.00629288 0)
(-0.0222021 -0.00702503 0)
(-0.0211436 -0.00769389 0)
(-0.0199951 -0.00829082 0)
(-0.0187701 -0.00880901 0)
(-0.0174835 -0.00924366 0)
(-0.0161508 -0.00959233 0)
(-0.0147877 -0.00985473 0)
(-0.0134099 -0.0100327 0)
(-0.0120317 -0.0101295 0)
(-0.010667 -0.0101488 0)
(-0.00932749 -0.0100933 0)
(-0.00802475 -0.00996281 0)
(-0.00676791 -0.00975133 0)
(-0.00556873 -0.00944516 0)
(-0.00443653 -0.0090185 0)
(-0.00338881 -0.00843532 0)
(-0.0024395 -0.00764856 0)
(-0.00161814 -0.00661617 0)
(-0.000941735 -0.00531481 0)
(-0.000447764 -0.00378194 0)
(-0.000131564 -0.00213126 0)
(-9.71669e-06 -0.000582945 0)
(-9.5021e-05 0.00244344 0)
(-0.000589797 0.00579308 0)
(-0.00144335 0.00798394 0)
(-0.00244957 0.00934481 0)
(-0.00359835 0.0101398 0)
(-0.00478966 0.0105648 0)
(-0.00602721 0.0107576 0)
(-0.0072672 0.0108081 0)
(-0.00851672 0.0107721 0)
(-0.00975627 0.0106812 0)
(-0.010991 0.0105517 0)
(-0.0122108 0.010391 0)
(-0.0134178 0.0102013 0)
(-0.0146056 0.0099821 0)
(-0.0157735 0.00973165 0)
(-0.0169162 0.0094475 0)
(-0.0180312 0.00912692 0)
(-0.0191132 0.00876704 0)
(-0.0201582 0.008365 0)
(-0.0211602 0.00791801 0)
(-0.0221141 0.00742348 0)
(-0.023013 0.00687913 0)
(-0.0238505 0.00628308 0)
(-0.0246191 0.00563403 0)
(-0.025311 0.0049314 0)
(-0.0259183 0.00417549 0)
(-0.0264326 0.0033676 0)
(-0.0268456 0.00251024 0)
(-0.0271489 0.00160726 0)
(-0.0273347 0.000663916 0)
(-0.0273956 -0.000312987 0)
(-0.0273254 -0.00131511 0)
(-0.0271188 -0.00233261 0)
(-0.0267724 -0.00335425 0)
(-0.0262845 -0.0043676 0)
(-0.0256559 -0.00535935 0)
(-0.0248896 -0.00631568 0)
(-0.0239914 -0.00722272 0)
(-0.0229699 -0.00806711 0)
(-0.0218362 -0.00883654 0)
(-0.0206041 -0.00952033 0)
(-0.0192892 -0.01011 0)
(-0.0179089 -0.0105997 0)
(-0.0164816 -0.0109863 0)
(-0.015026 -0.0112695 0)
(-0.0135603 -0.0114521 0)
(-0.0121017 -0.0115381 0)
(-0.010666 -0.011533 0)
(-0.00926671 -0.0114408 0)
(-0.00791645 -0.0112629 0)
(-0.00662511 -0.0109937 0)
(-0.00540421 -0.0106193 0)
(-0.00426318 -0.0101117 0)
(-0.00321824 -0.00943186 0)
(-0.00228324 -0.00852785 0)
(-0.0014853 -0.0073542 0)
(-0.000841034 -0.00588621 0)
(-0.000382327 -0.00416887 0)
(-0.000102151 -0.00233192 0)
(-4.44653e-06 -0.000626437 0)
(-9.63475e-05 0.00274329 0)
(-0.000598141 0.00648826 0)
(-0.00146365 0.0089292 0)
(-0.002484 0.0104408 0)
(-0.00364917 0.0113223 0)
(-0.00485795 0.011793 0)
(-0.00611447 0.0120075 0)
(-0.0073745 0.0120654 0)
(-0.00864562 0.0120285 0)
(-0.00990829 0.0119314 0)
(-0.011168 0.0117924 0)
(-0.012415 0.0116193 0)
(-0.0136514 0.0114145 0)
(-0.0148711 0.0111772 0)
(-0.0160737 0.0109054 0)
(-0.0172539 0.0105963 0)
(-0.0184093 0.0102468 0)
(-0.0195347 0.00985336 0)
(-0.0206259 0.00941272 0)
(-0.0216771 0.0089215 0)
(-0.0226826 0.00837654 0)
(-0.0236354 0.00777497 0)
(-0.0245284 0.00711435 0)
(-0.0253535 0.00639285 0)
(-0.0261024 0.00560941 0)
(-0.0267657 0.00476396 0)
(-0.0273342 0.00385756 0)
(-0.0277981 0.00289267 0)
(-0.0281476 0.00187329 0)
(-0.0283732 0.000805133 0)
(-0.028466 -0.000304264 0)
(-0.0284178 -0.00144546 0)
(-0.0282221 -0.00260711 0)
(-0.0278736 -0.00377614 0)
(-0.0273697 -0.00493787 0)
(-0.0267102 -0.00607642 0)
(-0.0258978 -0.00717512 0)
(-0.0249385 -0.00821713 0)
(-0.0238416 -0.00918605 0)
(-0.0226198 -0.0100667 0)
(-0.0212889 -0.0108458 0)
(-0.0198673 -0.0115127 0)
(-0.0183757 -0.0120601 0)
(-0.0168359 -0.012484 0)
(-0.0152702 -0.0127845 0)
(-0.0137004 -0.0129647 0)
(-0.0121471 -0.0130305 0)
(-0.0106286 -0.0129893 0)
(-0.00916081 -0.0128472 0)
(-0.00775735 -0.0126077 0)
(-0.006429 -0.0122663 0)
(-0.00518681 -0.0118093 0)
(-0.00404004 -0.0112072 0)
(-0.00300311 -0.0104181 0)
(-0.00208945 -0.00938548 0)
(-0.00132295 -0.00806112 0)
(-0.00071953 -0.0064199 0)
(-0.000304282 -0.00451635 0)
(-6.739e-05 -0.00249891 0)
(1.72183e-06 -0.000653345 0)
(-9.77492e-05 0.00304705 0)
(-0.000606565 0.00719263 0)
(-0.00148391 0.00988693 0)
(-0.0025182 0.0115514 0)
(-0.00369957 0.0125209 0)
(-0.00492577 0.0130388 0)
(-0.00620131 0.0132763 0)
(-0.0074817 0.0133428 0)
(-0.00877497 0.0133066 0)
(-0.0100616 0.0132054 0)
(-0.0113475 0.0130591 0)
(-0.0126231 0.0128759 0)
(-0.0138909 0.0126586 0)
(-0.0151449 0.0124061 0)
(-0.016385 0.012116 0)
(-0.0176061 0.0117852 0)
(-0.0188059 0.01141 0)
(-0.0199793 0.0109863 0)
(-0.0211222 0.0105103 0)
(-0.0222284 0.00997793 0)
(-0.0232922 0.00938533 0)
(-0.0243063 0.0087289 0)
(-0.0252631 0.00800548 0)
(-0.0261536 0.00721255 0)
(-0.0269687 0.00634837 0)
(-0.027698 0.0054123 0)
(-0.0283308 0.00440498 0)
(-0.0288559 0.00332861 0)
(-0.0292616 0.00218719 0)
(-0.0295366 0.000986754 0)
(-0.0296698 -0.000264476 0)
(-0.029651 -0.00155594 0)
(-0.0294715 -0.00287473 0)
(-0.0291244 -0.00420567 0)
(-0.0286052 -0.00553152 0)
(-0.0279125 -0.00683337 0)
(-0.0270484 -0.00809116 0)
(-0.0260191 -0.00928439 0)
(-0.0248345 -0.0103929 0)
(-0.0235092 -0.0113978 0)
(-0.0220614 -0.0122826 0)
(-0.0205129 -0.0130339 0)
(-0.0188883 -0.0136422 0)
(-0.0172141 -0.0141029 0)
(-0.0155171 -0.0144155 0)
(-0.0138237 -0.0145848 0)
(-0.0121586 -0.0146182 0)
(-0.0105436 -0.014526 0)
(-0.0089972 -0.0143173 0)
(-0.00753445 -0.0139985 0)
(-0.00616696 -0.0135671 0)
(-0.0049049 -0.0130104 0)
(-0.00375699 -0.0122977 0)
(-0.00273505 -0.0113848 0)
(-0.00185159 -0.0102111 0)
(-0.00112631 -0.00872607 0)
(-0.000574062 -0.00690523 0)
(-0.000211811 -0.00481484 0)
(-2.66031e-05 -0.0026249 0)
(8.86897e-06 -0.000660206 0)
(-9.91302e-05 0.00335531 0)
(-0.000614909 0.00790695 0)
(-0.00150405 0.010858 0)
(-0.00255226 0.0126776 0)
(-0.00374988 0.0137367 0)
(-0.00499363 0.0143034 0)
(-0.00628849 0.0145654 0)
(-0.00758973 0.0146423 0)
(-0.00890584 0.0146088 0)
(-0.0102174 0.0145056 0)
(-0.0115308 0.0143543 0)
(-0.0128366 0.014164 0)
(-0.0141378 0.0139371 0)
(-0.0154286 0.0136727 0)
(-0.0167091 0.013368 0)
(-0.0179745 0.0130191 0)
(-0.0192229 0.012622 0)
(-0.020449 0.0121721 0)
(-0.0216489 0.0116646 0)
(-0.0228165 0.0110948 0)
(-0.0239458 0.0104581 0)
(-0.0250292 0.00974988 0)
(-0.0260584 0.00896613 0)
(-0.0270241 0.00810339 0)
(-0.0279158 0.00715906 0)
(-0.0287222 0.00613166 0)
(-0.0294309 0.00502115 0)
(-0.0300289 0.00382925 0)
(-0.0305026 0.00255972 0)
(-0.0308382 0.00121873 0)
(-0.0310224 -0.000184919 0)
(-0.0310421 -0.0016396 0)
(-0.0308861 -0.00313074 0)
(-0.030545 -0.00464085 0)
(-0.0300121 -0.00614976 0)
(-0.0292843 -0.00763501 0)
(-0.0283628 -0.00907243 0)
(-0.0272534 -0.010437 0)
(-0.025967 -0.0117039 0)
(-0.0245199 -0.0128497 0)
(-0.0229336 -0.0138535 0)
(-0.0212338 -0.0146983 0)
(-0.0194503 -0.015372 0)
(-0.0176149 -0.0158684 0)
(-0.0157608 -0.0161873 0)
(-0.01392 -0.0163344 0)
(-0.0121226 -0.0163201 0)
(-0.0103948 -0.0161582 0)
(-0.0087583 -0.0158617 0)
(-0.00722981 -0.0154414 0)
(-0.00582167 -0.0148978 0)
(-0.00454261 -0.0142204 0)
(-0.00340016 -0.0133779 0)
(-0.00240253 -0.0123246 0)
(-0.00156058 -0.0109956 0)
(-0.000888622 -0.00933908 0)
(-0.000399996 -0.00733221 0)
(-0.000102107 -0.00505531 0)
(2.14835e-05 -0.00270302 0)
(1.7267e-05 -0.000644031 0)
(-0.00010052 0.00366769 0)
(-0.00062319 0.00863064 0)
(-0.00152403 0.0118417 0)
(-0.00258609 0.0138188 0)
(-0.00379995 0.0149693 0)
(-0.00506137 0.0155862 0)
(-0.00637579 0.0158744 0)
(-0.00769828 0.0159636 0)
(-0.00903785 0.0159348 0)
(-0.0103752 0.0158321 0)
(-0.0117173 0.0156787 0)
(-0.0130547 0.0154843 0)
(-0.0143912 0.0152514 0)
(-0.0157209 0.0149788 0)
(-0.0170447 0.0146635 0)
(-0.0183578 0.014301 0)
(-0.0196587 0.0138866 0)
(-0.0209423 0.013415 0)
(-0.0222049 0.0128809 0)
(-0.0234403 0.0122784 0)
(-0.0246425 0.0116019 0)
(-0.0258035 0.010846 0)
(-0.0269148 0.0100054 0)
(-0.027966 0.00907546 0)
(-0.0289459 0.00805245 0)
(-0.0298418 0.00693379 0)
(-0.0306396 0.00571842 0)
(-0.0313242 0.00440723 0)
(-0.0318799 0.00300348 0)
(-0.0322899 0.0015132 0)
(-0.0325378 -5.44641e-05 0)
(-0.0326076 -0.00168688 0)
(-0.0324846 -0.00336778 0)
(-0.0321562 -0.00507718 0)
(-0.0316128 -0.00679156 0)
(-0.030849 -0.00848429 0)
(-0.0298643 -0.0101263 0)
(-0.0286639 -0.011687 0)
(-0.0272596 -0.0131357 0)
(-0.0256695 -0.0144431 0)
(-0.0239189 -0.0155826 0)
(-0.0220384 -0.0165326 0)
(-0.0200642 -0.0172773 0)
(-0.0180353 -0.0178086 0)
(-0.0159925 -0.0181259 0)
(-0.0139753 -0.0182368 0)
(-0.0120209 -0.018155 0)
(-0.0101608 -0.0178993 0)
(-0.00842122 -0.0174883 0)
(-0.00682034 -0.0169387 0)
(-0.00537118 -0.0162556 0)
(-0.00408016 -0.0154321 0)
(-0.00295269 -0.0144372 0)
(-0.0019919 -0.0132243 0)
(-0.00120599 -0.0117246 0)
(-0.000602432 -0.00988558 0)
(-0.000192503 -0.00768689 0)
(2.75631e-05 -0.00522547 0)
(7.79262e-05 -0.00272394 0)
(2.70675e-05 -0.000600495 0)
(-0.000101833 0.00398429 0)
(-0.00063113 0.00936382 0)
(-0.00154336 0.0128384 0)
(-0.00261904 0.0149751 0)
(-0.00384897 0.0162189 0)
(-0.005128 0.0168879 0)
(-0.00646205 0.017204 0)
(-0.00780602 0.0173076 0)
(-0.00916946 0.0172859 0)
(-0.0105333 0.0171863 0)
(-0.0119048 0.017034 0)
(-0.0132752 0.0168389 0)
(-0.0146484 0.0166039 0)
(-0.0160191 0.0163274 0)
(-0.0173887 0.0160061 0)
(-0.0187526 0.0156349 0)
(-0.0201098 0.0152085 0)
(-0.0214556 0.0147208 0)
(-0.0227863 0.0141655 0)
(-0.0240961 0.013536 0)
(-0.0253789 0.0128254 0)
(-0.0266264 0.0120269 0)
(-0.0278299 0.011134 0)
(-0.0289782 0.0101406 0)
(-0.0300591 0.0090415 0)
(-0.0310585 0.00783259 0)
(-0.0319605 0.00651143 0)
(-0.0327479 0.00507769 0)
(-0.033402 0.00353369 0)
(-0.033903 0.00188492 0)
(-0.0342308 0.000140606 0)
(-0.0343655 -0.00168584 0)
(-0.0342881 -0.0035765 0)
(-0.033982 -0.00550872 0)
(-0.0334337 -0.00745523 0)
(-0.0326345 -0.00938453 0)
(-0.0315814 -0.0112616 0)
(-0.0302785 -0.0130491 0)
(-0.0287379 -0.014709 0)
(-0.0269802 -0.0162042 0)
(-0.0250346 -0.0175011 0)
(-0.0229382 -0.0185715 0)
(-0.0207348 -0.0193948 0)
(-0.0184726 -0.01996 0)
(-0.0162023 -0.0202661 0)
(-0.0139732 -0.0203229 0)
(-0.0118315 -0.0201484 0)
(-0.00981589 -0.0197683 0)
(-0.00795784 -0.0192087 0)
(-0.00627762 -0.0184947 0)
(-0.00478849 -0.017638 0)
(-0.00349336 -0.0166374 0)
(-0.0023941 -0.0154634 0)
(-0.00148678 -0.0140691 0)
(-0.000775483 -0.0123821 0)
(-0.000259022 -0.0103494 0)
(5.40499e-05 -0.00795404 0)
(0.000180405 -0.00531204 0)
(0.000144062 -0.00267778 0)
(3.85218e-05 -0.000525187 0)
(-0.000103061 0.00430478 0)
(-0.000638587 0.010106 0)
(-0.00156166 0.0138473 0)
(-0.00265044 0.0161461 0)
(-0.003896 0.0174852 0)
(-0.00519232 0.018208 0)
(-0.00654577 0.0185541 0)
(-0.00791115 0.0186742 0)
(-0.00929853 0.0186622 0)
(-0.010689 0.0185687 0)
(-0.0120906 0.0184207 0)
(-0.0134947 0.0182287 0)
(-0.0149058 0.0179959 0)
(-0.0163193 0.0177203 0)
(-0.0177367 0.0173981 0)
(-0.0191543 0.0170238 0)
(-0.0205713 0.0165914 0)
(-0.0219836 0.016094 0)
(-0.0233879 0.0155243 0)
(-0.0247786 0.0148745 0)
(-0.0261497 0.0141365 0)
(-0.0274931 0.013302 0)
(-0.0287994 0.0123629 0)
(-0.0300573 0.0113114 0)
(-0.0312533 0.0101403 0)
(-0.032372 0.00884357 0)
(-0.0333958 0.00741697 0)
(-0.0343046 0.00585838 0)
(-0.0350769 0.00416863 0)
(-0.0356891 0.00235217 0)
(-0.0361168 0.00041783 0)
(-0.0363351 -0.00162057 0)
(-0.0363202 -0.00374359 0)
(-0.0360498 -0.00592587 0)
(-0.0355054 -0.00813597 0)
(-0.0346738 -0.0103368 0)
(-0.0335483 -0.0124862 0)
(-0.0321311 -0.0145384 0)
(-0.0304343 -0.0164461 0)
(-0.0284808 -0.0181624 0)
(-0.0263049 -0.0196442 0)
(-0.0239509 -0.0208547 0)
(-0.0214726 -0.0217668 0)
(-0.0189293 -0.0223654 0)
(-0.0163845 -0.0226486 0)
(-0.0138998 -0.0226287 0)
(-0.0115332 -0.0223295 0)
(-0.00933293 -0.0217859 0)
(-0.00733753 -0.0210342 0)
(-0.00556976 -0.0201113 0)
(-0.00404285 -0.0190386 0)
(-0.00275454 -0.0178231 0)
(-0.00170113 -0.0164384 0)
(-0.000868885 -0.0148383 0)
(-0.00025567 -0.0129466 0)
(0.000150715 -0.0107098 0)
(0.000345276 -0.0081146 0)
(0.000359436 -0.00529883 0)
(0.000221027 -0.00255255 0)
(5.17983e-05 -0.00041269 0)
(-0.00010412 0.00462883 0)
(-0.000645234 0.0108564 0)
(-0.0015783 0.0148678 0)
(-0.00267939 0.0173312 0)
(-0.00393981 0.0187675 0)
(-0.00525277 0.0195461 0)