/*--------------------------------*- C++ -*----------------------------------*\
| =========                 |                                                 |
| \\      /  F ield         | OpenFOAM: The Open Source CFD Toolbox           |
|  \\    /   O peration     | Version:  2406                                  |
|   \\  /    A nd           | Website:  www.openfoam.com                      |
|    \\/     M anipulation  |                                                 |
\*---------------------------------------------------------------------------*/
FoamFile
{
    version     2.0;
    format      ascii;
    arch        "LSB;label=32;scalar=64";
    class       surfaceScalarField;
    location    "99.5";
    object      phi_0;
}
// * * * * * * * * * * * * * * * * * * * * * * * * * * * * * * * * * * * * * //

dimensions      [0 3 -1 0 0 0 0];

oriented        oriented;

internalField   nonuniform List<scalar> 
8064
(
2.56194e-07
-2.56585e-07
1.22863e-06
-9.72449e-07
2.6736e-06
-1.44496e-06
4.22745e-06
-1.55386e-06
5.59377e-06
-1.36631e-06
6.61308e-06
-1.01931e-06
7.25921e-06
-6.46126e-07
7.59894e-06
-3.39732e-07
7.73835e-06
-1.39408e-07
7.7723e-06
-3.39569e-08
7.74748e-06
2.48262e-08
7.65855e-06
8.89265e-08
7.4471e-06
2.1145e-07
7.0234e-06
4.23701e-07
6.28029e-06
7.43113e-07
5.10503e-06
1.17526e-06
3.38005e-06
1.72498e-06
9.84618e-07
2.39543e-06
-2.20109e-06
3.18571e-06
-6.28776e-06
4.08667e-06
-1.13671e-05
5.07937e-06
-1.74955e-05
6.12833e-06
-2.46759e-05
7.18045e-06
-3.28422e-05
8.16635e-06
-4.18483e-05
9.00602e-06
-5.14638e-05
9.61557e-06
-6.13774e-05
9.91361e-06
-7.1206e-05
9.82857e-06
-8.05133e-05
9.30725e-06
-8.88362e-05
8.32296e-06
-9.5717e-05
6.88074e-06
-0.000100732
5.01502e-06
-0.000103515
2.78329e-06
-0.000103834
3.19214e-07
-0.000101269
-2.56501e-06
-9.57714e-05
-5.4981e-06
-8.73763e-05
-8.39512e-06
-7.62404e-05
-1.11359e-05
-6.26721e-05
-1.35682e-05
-4.71435e-05
-1.55286e-05
-3.02908e-05
-1.68527e-05
-1.28989e-05
-1.73919e-05
4.13902e-06
-1.70379e-05
1.99722e-05
-1.58332e-05
3.36086e-05
-1.36364e-05
4.43543e-05
-1.07456e-05
5.1623e-05
-7.26879e-06
5.52626e-05
-3.63953e-06
5.54539e-05
-1.91334e-07
5.26494e-05
2.8045e-06
4.76261e-05
5.02326e-06
4.12299e-05
6.39627e-06
3.42997e-05
6.93021e-06
2.75249e-05
6.77476e-06
2.137e-05
6.15485e-06
1.60754e-05
5.29469e-06
1.17019e-05
4.37348e-06
8.19179e-06
3.51008e-06
5.42599e-06
2.7658e-06
3.2741e-06
2.15189e-06
1.64259e-06
1.63151e-06
5.20414e-07
1.12218e-06
-1.81678e-08
5.38582e-07
-1.81677e-08
9.12262e-07
-1.16886e-06
3.25196e-06
-3.31215e-06
6.39924e-06
-4.59223e-06
9.66328e-06
-4.8179e-06
1.24894e-05
-4.19245e-06
1.45561e-05
-3.08599e-06
1.5774e-05
-1.86407e-06
1.62193e-05
-7.85019e-07
1.60378e-05
4.2111e-08
1.53535e-05
6.504e-07
1.42039e-05
1.17439e-06
1.25082e-05
1.78464e-06
1.00828e-05
2.63679e-06
6.67454e-06
3.832e-06
1.9894e-06
5.42826e-06
-4.27718e-06
7.44184e-06
-1.24186e-05
9.86644e-06
-2.26981e-05
1.26749e-05
-3.53146e-05
1.58022e-05
-5.03552e-05
1.91272e-05
-6.77392e-05
2.24634e-05
-8.71777e-05
2.55668e-05
-0.000108165
2.81682e-05
-0.000130014
3.00154e-05
-0.000151919
3.09104e-05
-0.000173033
3.07301e-05
-0.000192548
2.9428e-05
-0.000209742
2.70226e-05
-0.000224014
2.35791e-05
-0.000234885
1.91939e-05
-0.000241993
1.39887e-05
-0.000245097
8.11918e-06
-0.000244141
1.82775e-06
-0.00023875
-5.07221e-06
-0.000229102
-1.22124e-05
-0.000215258
-1.93428e-05
-0.000197391
-2.62614e-05
-0.000175805
-3.27223e-05
-0.000150934
-3.84392e-05
-0.000123363
-4.30993e-05
-9.38368e-05
-4.63794e-05
-6.32552e-05
-4.79735e-05
-3.26585e-05
-4.76346e-05
-3.25477e-06
-4.52369e-05
2.3991e-05
-4.08821e-05
4.78083e-05
-3.45629e-05
6.70622e-05
-2.65227e-05
8.11809e-05
-1.77582e-05
8.97726e-05
-8.783e-06
9.30471e-05
-4.70005e-07
9.1215e-05
6.85528e-06
8.51965e-05
1.24148e-05
7.61394e-05
1.59873e-05
6.531e-05
1.76042e-05
5.39014e-05
1.75634e-05
4.28747e-05
1.63214e-05
3.28722e-05
1.4376e-05
2.42119e-05
1.21704e-05
1.69639e-05
1.00138e-05
1.10527e-05
8.06311e-06
6.37204e-06
6.31218e-06
2.8931e-06
4.60112e-06
7.21129e-07
2.71055e-06
7.02962e-07
1.41235e-06
-2.5812e-06
4.65966e-06
-6.55947e-06
8.75982e-06
-8.69239e-06
1.28125e-05
-8.87062e-06
1.61418e-05
-7.52172e-06
1.83625e-05
-5.30668e-06
1.93522e-05
-2.85375e-06
1.91593e-05
-5.92107e-07
1.78866e-05
1.31479e-06
1.55865e-05
2.9505e-06
1.21844e-05
4.57645e-06
7.4588e-06
6.51027e-06
1.05859e-06
9.03699e-06
-7.44795e-06
1.23385e-05
-1.85054e-05
1.64857e-05
-3.25302e-05
2.14667e-05
-4.98425e-05
2.71788e-05
-7.05779e-05
3.34103e-05
-9.45904e-05
3.98147e-05
-0.000121387
4.59234e-05
-0.00015014
5.12166e-05
-0.000179795
5.52222e-05
-0.000209226
5.75988e-05
-0.00023738
5.81699e-05
-0.000263378
5.6908e-05
-0.000286541
5.38927e-05
-0.000306379
4.92666e-05
-0.000322558
4.32016e-05
-0.000334856
3.58768e-05
-0.000343131
2.74687e-05
-0.000347302
1.816e-05
-0.000347354
8.17143e-06
-0.000343236
-2.29004e-06
-0.000334957
-1.33521e-05
-0.000322623
-2.45456e-05
-0.000306287
-3.56789e-05
-0.000286055
-4.6494e-05
-0.000262115
-5.66623e-05
-0.000234751
-6.58029e-05
-0.000204369
-7.34814e-05
-0.000171517
-7.92306e-05
-0.000136908
-8.25826e-05
-0.000101415
-8.31279e-05
-6.60606e-05
-8.05915e-05
-3.20748e-05
-7.48679e-05
-6.2428e-07
-6.60134e-05
2.75638e-05
-5.47108e-05
5.10695e-05
-4.12639e-05
6.9202e-05
-2.69154e-05
8.1518e-05
-1.2786e-05
8.84329e-05
-5.96046e-08
8.97122e-05
1.11354e-05
8.62527e-05
1.94468e-05
7.90368e-05
2.48201e-05
6.925e-05
2.73503e-05
5.81179e-05
2.74535e-05
4.67312e-05
2.57627e-05
3.59194e-05
2.29822e-05
2.61955e-05
1.97376e-05
1.78017e-05
1.6457e-05
1.08225e-05
1.32914e-05
5.33625e-06
1.00874e-05
1.5617e-06
6.4851e-06
2.26466e-06
1.7452e-06
-4.3264e-06
5.53662e-06
-1.03509e-05
1.00547e-05
-1.32105e-05
1.42102e-05
-1.30261e-05
1.72601e-05
-1.05717e-05
1.88147e-05
-6.86124e-06
1.87509e-05
-2.79003e-06
1.70772e-05
1.08166e-06
1.38037e-05
4.58823e-06
8.83544e-06
7.9188e-06
1.90553e-06
1.15064e-05
-7.42001e-06
1.58358e-05
-1.96664e-05
2.12834e-05
-3.53771e-05
2.80493e-05
-5.50095e-05
3.61181e-05
-7.88015e-05
4.52586e-05
-0.000106633
5.50102e-05
-0.000137922
6.46992e-05
-0.000171641
7.35335e-05
-0.000206481
8.07643e-05
-0.000241099
8.58344e-05
-0.00027432
8.84429e-05
-0.000305244
8.85233e-05
-0.000333253
8.61781e-05
-0.000357955
8.16107e-05
-0.000379135
7.50722e-05
-0.00039669
6.68217e-05
-0.000410589
5.71013e-05
-0.000420837
4.61248e-05
-0.000427447
3.40786e-05
-0.000430426
2.11387e-05
-0.00042975
7.49587e-06
-0.000425355
-6.68542e-06
-0.000417389
-2.13176e-05
-0.00040576
-3.61749e-05
-0.000390415
-5.10244e-05
-0.000371333
-6.55758e-05
-0.000348535
-7.94605e-05
-0.00032211
-9.2228e-05
-0.000292247
-0.000103344
-0.00025927
-0.000112207
-0.000223674
-0.000118179
-0.000186149
-0.000120653
-0.000147599
-0.000119141
-0.000109119
-0.000113348
-7.18475e-05
-0.000103285
-3.71764e-05
-8.93819e-05
-6.10246e-06
-7.23379e-05
2.04372e-05
-5.34551e-05
4.16164e-05
-3.39653e-05
5.69186e-05
-1.53618e-05
6.6851e-05
1.20304e-06
7.13448e-05
1.4953e-05
7.1043e-05
2.51219e-05
6.67733e-05
3.162e-05
5.9559e-05
3.46678e-05
5.05087e-05
3.4813e-05
4.06663e-05
3.28246e-05
3.08825e-05
2.95215e-05
2.17601e-05
2.55794e-05
1.3697e-05
2.13545e-05
7.01408e-06
1.67702e-05
2.15821e-06
1.1341e-05
4.42287e-06
1.97263e-06
-6.29903e-06
6.01285e-06
-1.43911e-05
1.04761e-05
-1.76737e-05
1.41141e-05
-1.66641e-05
1.61641e-05
-1.26217e-05
1.62708e-05
-6.96799e-06
1.4328e-05
-8.47222e-07
1.0273e-05
5.13671e-06
3.98926e-06
1.08719e-05
-4.85105e-06
1.67591e-05
-1.67494e-05
2.34047e-05
-3.23165e-05
3.14029e-05
-5.21519e-05
4.11188e-05
-7.66639e-05
5.25613e-05
-0.000105888
6.53419e-05
-0.00013933
7.87008e-05
-0.000175936
9.1616e-05
-0.00021425
0.000103014
-0.000252724
0.000112007
-0.00029
0.000118041
-0.000325069
0.000120903
-0.000357273
0.000120647
-0.000386248
0.000117498
-0.000411832
0.000111763
-0.000433995
0.000103773
-0.000452776
9.38531e-05
-0.000468248
8.22941e-05
-0.000480493
6.93457e-05
-0.000489583
5.52147e-05
-0.000495574
4.00701e-05
-0.000498484
2.40487e-05
-0.000498222
7.2335e-06
-0.00049485
-1.00574e-05
-0.000488403
-2.77645e-05
-0.000478742
-4.58355e-05
-0.000465734
-6.40326e-05
-0.000449245
-8.20646e-05
-0.000429147
-9.95594e-05
-0.000405336
-0.000116038
-0.000377773
-0.000130908
-0.000346514
-0.000143466
-0.00031178
-0.000152914
-0.000274
-0.000158433
-0.000233866
-0.000159275
-0.000192343
-0.00015487
-0.000150647
-0.000144982
-0.000110204
-0.000129824
-7.23992e-05
-0.000110143
-3.85977e-05
-8.72566e-05
-9.7504e-06
-6.28126e-05
1.35173e-05
-3.86295e-05
3.1019e-05
-1.62986e-05
4.30155e-05
2.95654e-06
4.98056e-05
1.83317e-05
5.19467e-05
2.94788e-05
5.01683e-05
3.64463e-05
4.53624e-05
3.96189e-05
3.85045e-05
3.96825e-05
3.05412e-05
3.74848e-05
2.22936e-05
3.38269e-05
1.44328e-05
2.92153e-05
7.55529e-06
2.36478e-05
2.36672e-06
1.65295e-05
6.78959e-06
2.11535e-06
-8.41438e-06
6.1063e-06
-1.83821e-05
1.0023e-05
-2.15904e-05
1.25184e-05
-1.91595e-05
1.28652e-05
-1.29685e-05
1.07735e-05
-4.87634e-06
6.11871e-06
3.80762e-06
-1.22947e-06
1.24849e-05
-1.16263e-05
2.12688e-05
-2.5612e-05
3.07448e-05
-4.38691e-05
4.16618e-05
-6.70209e-05
5.45547e-05
-9.53871e-05
6.9485e-05
-0.000128757
8.59316e-05
-0.000166267
0.000102852
-0.000206477
0.00011891
-0.000247666
0.000132805
-0.000288213
0.000143561
-0.000326853
0.000150647
-0.000362751
0.000153939
-0.000395445
0.000153597
-0.000424736
0.000149938
-0.0004506
0.000143361
-0.00047311
0.000134273
-0.000492395
0.000123058
-0.000508603
0.000110061
-0.000521883
9.55743e-05
-0.000532377
7.98402e-05
-0.000540214
6.30516e-05
-0.000545499
4.53545e-05
-0.000548286
2.68356e-05
-0.000548518
7.46573e-06
-0.000546327
-1.22482e-05
-0.000541704
-3.2388e-05
-0.000534503
-5.30356e-05
-0.000524562
-7.39743e-05
-0.000511666
-9.496e-05
-0.000495564
-0.000115661
-0.000475972
-0.000135631
-0.000452604
-0.000154275
-0.00042522
-0.00017085
-0.000393673
-0.00018446
-0.000357998
-0.000194107
-0.000318503
-0.00019877
-0.000275865
-0.000197508
-0.000231162
-0.000189685
-0.000185868
-0.000175118
-0.000141728
-0.000154284
-0.000100578
-0.000128406
-6.40152e-05
-9.93758e-05
-3.31451e-05
-6.94996e-05
-8.41492e-06
-4.10288e-05
1.02568e-05
-1.57152e-05
2.32842e-05
5.30436e-06
3.12564e-05
2.15065e-05
3.47782e-05
3.29245e-05
3.45601e-05
3.98369e-05
3.14152e-05
4.28275e-05
2.62264e-05
4.26736e-05
1.98753e-05
4.01779e-05
1.31962e-05
3.58944e-05
7.00074e-06
2.98433e-05
2.19386e-06
2.13364e-05
8.98345e-06
2.1436e-06
-1.0558e-05
5.72019e-06
-2.19587e-05
8.5382e-06
-2.44084e-05
9.24204e-06
-1.98633e-05
7.19433e-06
-1.09208e-05
2.17986e-06
1.38119e-07
-5.97815e-06
1.19656e-05
-1.75593e-05
2.4066e-05
-3.31112e-05
3.68207e-05
-5.33454e-05
5.0979e-05
-7.88906e-05
6.7207e-05
-0.000109987
8.56509e-05
-0.000146219
0.000105717
-0.000186433
0.000126145
-0.000228915
0.000145334
-0.000271787
0.000161782
-0.000313405
0.000174424
-0.000352587
0.000182743
-0.000388614
0.000186674
-0.000421133
0.000186458
-0.000450041
0.000182505
-0.000475392
0.00017529
-0.00049733
0.000165299
-0.000516052
0.000152994
-0.00053178
0.000138787
-0.00054475
0.00012303
-0.000555191
0.000106015
-0.000563321
8.79704e-05
-0.000569339
6.90697e-05
-0.000573412
4.94278e-05
-0.000575664
2.90873e-05
-0.000576161
7.96275e-06
-0.000574988
-1.34206e-05
-0.000572145
-3.52313e-05
-0.000567543
-5.76381e-05
-0.000561026
-8.04911e-05
-0.000552358
-0.000103628
-0.000541217
-0.000126803
-0.00052719
-0.000149657
-0.000509791
-0.000171674
-0.000488491
-0.000192151
-0.000462763
-0.000210187
-0.00043218
-0.00022469
-0.000396526
-0.000234425
-0.000355914
-0.00023812
-0.00031096
-0.000234639
-0.00026289
-0.000223188
-0.000213527
-0.000203647
-0.000165162
-0.000176771
-0.000120214
-0.000144323
-8.07728e-05
-0.000108941
-4.81278e-05
-7.36738e-05
-2.2559e-05
-4.1284e-05
-3.61055e-06
-1.36441e-05
9.48299e-06
8.413e-06
1.75943e-05
2.48133e-05
2.14952e-05
3.59359e-05
2.19184e-05
4.24044e-05
1.96699e-05
4.4922e-05
1.56116e-05
4.42363e-05
1.0641e-05
4.0865e-05
5.69025e-06
3.4794e-05
1.76019e-06
2.52665e-05
1.07436e-05
1.99356e-06
-1.25515e-05
4.69383e-06
-2.46589e-05
5.8008e-06
-2.55154e-05
4.05836e-06
-1.81209e-05
-1.02568e-06
-5.83672e-06
-9.6515e-06
8.76394e-06
-2.20291e-05
2.43432e-05
-3.8643e-05
4.06799e-05
-6.01582e-05
5.83359e-05
-8.71931e-05
7.8014e-05
-0.000119946
9.99599e-05
-0.000157884
0.000123588
-0.00019967
0.000147504
-0.000243415
0.00016989
-0.000287124
0.000189043
-0.000329123
0.000203782
-0.000368255
0.000213556
-0.000403848
0.000218335
-0.000435602
0.000218428
-0.000463463
0.00021432
-0.000487536
0.000206578
-0.000508027
0.00019578
-0.000525207
0.000182479
-0.000539384
0.000167172
-0.000550884
0.000150287
-0.00056003
0.000132176
-0.000567128
0.000113114
-0.000572462
9.33044e-05
-0.00057628
7.28874e-05
-0.000578792
5.194e-05
-0.000580178
3.04725e-05
-0.0005806
8.38523e-06
-0.000580102
-1.39191e-05
-0.000578694
-3.66393e-05
-0.000576363
-5.99686e-05
-0.000573014
-8.38401e-05
-0.000568456
-0.000108186
-0.000562385
-0.000132874
-0.000554369
-0.000157673
-0.000543838
-0.000182205
-0.000530083
-0.000205906
-0.000512289
-0.000227981
-0.000489599
-0.000247381
-0.00046122
-0.000262804
-0.000426588
-0.000272752
-0.000385569
-0.000275657
-0.000338656
-0.000270101
-0.000287213
-0.00025509
-0.000233505
-0.000230479
-0.000180525
-0.000197303
-0.000131514
-0.000157952
-8.92222e-05
-0.000115966
-5.5184e-05
-7.53222e-05
-2.9464e-05
-3.9364e-05
-1.1097e-05
-9.95406e-06
1.23312e-06
1.24832e-05
8.65386e-06
2.85152e-05
1.21474e-05
3.89108e-05
1.25515e-05
4.45179e-05
1.07225e-05
4.60653e-05
7.57488e-06
4.40126e-05
4.07793e-06
3.8291e-05
1.22991e-06
2.81145e-05
1.19736e-05
1.58666e-06
-1.41382e-05
2.86116e-06
-2.59334e-05
1.60472e-06
-2.42589e-05
-3.17041e-06
-1.33457e-05
-1.18519e-05
2.84478e-06
-2.46338e-05
2.15458e-05
-4.18273e-05
4.15368e-05
-6.39978e-05
6.28504e-05
-9.17207e-05
8.60588e-05
-0.000125188
0.000111481
-0.000163844
0.000138615
-0.000206284
0.000166029
-0.000250517
0.000191737
-0.000294451
0.000213824
-0.000336347
0.000230939
-0.000375012
0.000242447
-0.000409772
0.000248316
-0.00044034
0.000248903
-0.000466687
0.000244775
-0.000488966
0.000236598
-0.00050745
0.000225062
-0.000522496
0.000210826
-0.000534506
0.000194489
-0.000543898
0.000176563
-0.000551079
0.000157468
-0.000556429
0.000137527
-0.000560293
0.000116977
-0.000562967
9.59781e-05
-0.000564701
7.46222e-05
-0.000565706
5.29445e-05
-0.000566166
3.09325e-05
-0.00056629
8.50971e-06
-0.000566081
-1.41283e-05
-0.00056556
-3.71602e-05
-0.000564796
-6.07329e-05
-0.000563773
-8.48626e-05
-0.000562395
-0.000109564
-0.000560461
-0.000134808
-0.000557638
-0.000160496
-0.000553427
-0.000186416
-0.000547132
-0.000212201
-0.000537848
-0.000237265
-0.000524476
-0.000260753
-0.000505794
-0.000281486
-0.000480588
-0.000297958
-0.000447865
-0.00030838
-0.000407138
-0.000310828
-0.000358729
-0.000303499
-0.000304094
-0.000285114
-0.000246
-0.000255397
-0.000188301
-0.000215651
-0.000135265
-0.000169001
-9.04648e-05
-0.000120123
-5.568e-05
-7.41489e-05
-3.058e-05
-3.5054e-05
-1.3571e-05
-4.52577e-06
-2.71534e-06
1.76595e-05
3.46078e-06
3.27347e-05
6.10785e-06
4.18708e-05
6.20798e-06
4.59651e-05
4.70991e-06
4.55107e-05
2.57905e-06
4.04218e-05
7.52064e-07
2.99415e-05
1.27256e-05
8.51601e-07
-1.49898e-05
8.9319e-08
-2.51711e-05
-4.0721e-06
-2.00975e-05
-1.24058e-05
-5.012e-06
-2.51394e-05
1.55784e-05
-4.24564e-05
3.88627e-05
-6.47462e-05
6.38266e-05
-9.24924e-05
9.05966e-05
-0.000125894
0.000119461
-0.000164453
0.00015004
-0.000206803
0.000180965
-0.000250924
0.00021015
-0.000294646
0.000235459
-0.000336127
0.000255305
-0.000374093
0.000268906
-0.000407827
0.00027618
-0.000437025
0.000277514
-0.000461679
0.000273557
-0.00048199
0.000265086
-0.000498309
0.000252918
-0.000511086
0.000237839
-0.000520819
0.00022056
-0.000528018
0.000201687
-0.000533163
0.000181709
-0.000536693
0.000160997
-0.000538983
0.000139817
-0.000540351
0.000118345
-0.000541051
9.66788e-05
-0.000541289
7.48601e-05
-0.000541229
5.28846e-05
-0.000541018
3.07209e-05
-0.000540835
8.32675e-06
-0.000540664
-1.42997e-05
-0.000540552
-3.7272e-05
-0.000540602
-6.06826e-05
-0.000540862
-8.4603e-05
-0.000541333
-0.000109093
-0.000541952
-0.000134189
-0.000542555
-0.000159893
-0.000542835
-0.000186136
-0.000542286
-0.00021275
-0.000540151
-0.000239401
-0.000535381
-0.000265523
-0.000526632
-0.000290234
-0.000512326
-0.000312264
-0.000490796
-0.00032991
-0.000460554
-0.00034107
-0.00042066
-0.000343393
-0.000371184
-0.00033459
-0.000313631
-0.00031295
-0.000251298
-0.000277983
-0.000189054
-0.000231245
-0.000132397
-0.000176779
-8.58208e-05
-0.000120726
-5.122e-05
-6.96548e-05
-2.76164e-05
-2.81294e-05
-1.26029e-05
2.64605e-06
-3.66301e-06
2.37948e-05
9.93072e-07
3.72147e-05
2.69243e-06
4.42658e-05
2.52833e-06
4.56748e-05
1.48199e-06
4.14682e-05
4.27406e-07
3.09961e-05
1.3153e-05
-2.58522e-07
-1.47313e-05
-3.57905e-06
-2.18506e-05
-1.11801e-05
-1.24965e-05
-2.34313e-05
7.23916e-06
-4.04397e-05
3.25868e-05
-6.24026e-05
6.08257e-05
-8.96539e-05
9.10779e-05
-0.000122382
0.000123325
-0.000160194
0.000157272
-0.000201851
0.000191697
-0.000245392
0.000224506
-0.000288595
0.000253353
-0.000329499
0.000276363
-0.00036671
0.000292516
-0.000399427
0.000301623
-0.000427313
0.000304066
-0.000450369
0.00030057
-0.000468845
0.000292033
-0.000483173
0.000279413
-0.000493895
0.00026364
-0.000501608
0.000245552
-0.000506905
0.000225856
-0.000510332
0.000205115
-0.000512369
0.000183745
-0.000513409
0.000162037
-0.000513767
0.000140175
-0.00051368
0.000118258
-0.000513327
9.63253e-05
-0.000512836
7.43696e-05
-0.000512309
5.23579e-05
-0.000511836
3.02471e-05
-0.000511512
8.00289e-06
-0.000511347
-1.44647e-05
-0.000511395
-3.72242e-05
-0.000511742
-6.03352e-05
-0.000512469
-8.38761e-05
-0.000513645
-0.000107917
-0.000515314
-0.00013252
-0.00051747
-0.000157737
-0.000520016
-0.00018359
-0.00052271
-0.000210055
-0.000525094
-0.000237017
-0.000526416
-0.000264202
-0.000525555
-0.000291095
-0.000520988
-0.000316832
-0.000510821
-0.000340077
-0.000492943
-0.000358948
-0.00046533
-0.000371006
-0.00042652
-0.000373401
-0.000376232
-0.000363238
-0.000315992
-0.000338224
-0.00024966
-0.000297577
-0.000183291
-0.000243149
-0.000123803
-0.000180214
-7.66009e-05
-0.000116857
-4.33765e-05
-6.13538e-05
-2.21552e-05
-1.85752e-05
-9.59844e-06
1.1238e-05
-2.76344e-06
3.03797e-05
3.72669e-07
4.11297e-05
1.23401e-06
4.48134e-05
9.17253e-07
4.17849e-05
2.99252e-07
3.16141e-05
1.34523e-05
-1.74281e-06
-1.29885e-05
-8.11487e-06
-1.54786e-05
-1.94775e-05
-1.13383e-06
-3.57614e-05
2.35231e-05
-5.7028e-05
5.38533e-05
-8.34053e-05
8.7203e-05
-0.000115019
0.000122692
-0.000151589
0.000159894
-0.000192074
0.000197757
-0.000234657
0.000234281
-0.000277125
0.000266973
-0.0003174
0.000293628
-0.000353936
0.000312899
-0.000385812
0.000324392
-0.00041263
0.000328441
-0.000434386
0.000325822
-0.000451369
0.000317553
-0.000464082
0.000304746
-0.000473158
0.000288489
-0.000479283
0.000269765
-0.000483128
0.000249396
-0.000485295
0.000228024
-0.000486295
0.000206114
-0.000486529
0.000183979
-0.000486297
0.000161806
-0.000485813
0.000139691
-0.000485218
0.000117663
-0.000484601
9.57089e-05
-0.000484021
7.37894e-05
-0.000483517
5.18538e-05
-0.000483123
2.98532e-05
-0.00048288
7.75968e-06
-0.000482798
-1.45469e-05
-0.000482926
-3.70956e-05
-0.000483335
-5.9926e-05
-0.000484107
-8.31047e-05
-0.000485334
-0.000106689
-0.000487114
-0.00013074
-0.000489535
-0.000155316
-0.000492646
-0.000180479
-0.000496422
-0.000206279
-0.000500702
-0.000232737
-0.000505106
-0.000259797
-0.000508935
-0.000287267
-0.00051106
-0.000314707
-0.000509848
-0.000341289
-0.000503156
-0.00036564
-0.000488464
-0.000385697
-0.000463212
-0.000398653
-0.000425372
-0.000401079
-0.000374251
-0.000389345
-0.000311389
-0.000360438
-0.000241306
-0.000313232
-0.000171458
-0.000250061
-0.000110356
-0.000177959
-6.41103e-05
-0.0001076
-3.3615e-05
-4.90705e-05
-1.55526e-05
-6.82434e-06
-5.72102e-06
2.05481e-05
-9.76725e-07
3.63854e-05
7.52125e-07
4.30846e-05
8.60594e-07
4.16765e-05
3.57604e-07
3.21171e-05
1.38099e-05
-3.56165e-06
-9.42682e-06
-1.33227e-05
-5.7175e-06
-2.84664e-05
1.40099e-05
-4.87222e-05
4.37789e-05
-7.39576e-05
7.90887e-05
-0.000104174
0.000117419
-0.000139159
0.000157677
-0.0001781
0.000198836
-0.000219412
0.000239069
-0.000260969
0.000275839
-0.000300618
0.000306622
-0.000336642
0.000329652
-0.000367957
0.000344214
-0.000394072
0.000350506
-0.000414948
0.000349317
-0.000430892
0.000341766
-0.000442461
0.000329123
-0.000450366
0.000312651
-0.000455375
0.000293498
-0.000458227
0.000272617
-0.000459576
0.000250745
-0.000459955
0.000228404
-0.00045977
0.000205929
-0.000459306
0.000183515
-0.000458747
0.000161247
-0.000458201
0.000139144
-0.00045772
0.000117182
-0.000457325
9.5314e-05
-0.00045702
7.34843e-05
-0.000456805
5.16381e-05
-0.000456679
2.97277e-05
-0.000456644
7.72434e-06
-0.00045672
-1.4471e-05
-0.000456942
-3.68729e-05
-0.000457361
-5.95073e-05
-0.000458046
-8.24196e-05
-0.000459087
-0.000105648
-0.000460591
-0.000129236
-0.000462676
-0.000153231
-0.000465462
-0.000177693
-0.000469048
-0.000202694
-0.000473471
-0.000228314
-0.000478647
-0.000254621
-0.00048428
-0.000281634
-0.000489743
-0.000309244
-0.000493937
-0.000337095
-0.000495167
-0.00036441
-0.000491096
-0.000389768
-0.000478844
-0.000410904
-0.000455341
-0.000424582
-0.000417991
-0.000426694
-0.00036569
-0.00041274
-0.000300044
-0.000378878
-0.00022644
-0.000323665
-0.000154052
-0.000250347
-9.30768e-05
-0.000168575
-4.97627e-05
-9.23846e-05
-2.33475e-05
-3.32395e-05
-8.95835e-06
6.15895e-06
-1.95191e-06
2.93789e-05
7.67215e-07
4.03655e-05
1.15895e-06
4.12847e-05
5.51299e-07
3.27247e-05
1.43612e-05
-5.59338e-06
-3.83344e-06
-1.87872e-05
7.47634e-06
-3.76603e-05
3.28829e-05
-6.15402e-05
6.76589e-05
-9.01928e-05
0.000107741
-0.000123393
0.000150619
-0.000160526
0.000194811
-0.000200297
0.000238607
-0.000240774
0.000279546
-0.000279796
0.000314861
-0.000315487
0.000342312
-0.000346566
0.000360731
-0.000372396
0.000370044
-0.000392868
0.000370978
-0.000408273
0.000364722
-0.000419196
0.000352689
-0.000426406
0.000336333
-0.00043074
0.000316985
-0.000433002
0.000295759
-0.000433892
0.000273507
-0.000433969
0.000250822
-0.000433642
0.000228076
-0.000433182
0.000205469
-0.000432748
0.000183082
-0.00043242
0.000160919
-0.000432221
0.000138945
-0.000432142
0.000117104
-0.000432163
9.53349e-05
-0.000432259
7.35806e-05
-0.000432412
5.17905e-05
-0.000432607
2.99232e-05
-0.000432832
7.94889e-06
-0.000433108
-1.41949e-05
-0.00043346
-3.65209e-05
-0.000433921
-5.90465e-05
-0.000434544
-8.17969e-05
-0.000435399
-0.000104793
-0.000436578
-0.000128057
-0.000438191
-0.000151618
-0.000440368
-0.000175516
-0.000443252
-0.000199811
-0.000446978
-0.000224588
-0.00045164
-0.000249959
-0.000457227
-0.000276047
-0.000463521
-0.00030295
-0.000469965
-0.000330652
-0.000475493
-0.000358882
-0.000478363
-0.000386898
-0.000476064
-0.000413203
-0.000465385
-0.000435262
-0.000442775
-0.000449304
-0.000405114
-0.000450401
-0.000350955
-0.000433036
-0.000282145
-0.000392475
-0.000205321
-0.000327172
-0.000131795
-0.0002421
-7.33258e-05
-0.000150854
-3.51283e-05
-7.1437e-05
-1.38548e-05
-1.51146e-05
-3.39806e-06
1.89222e-05
7.96111e-07
3.61713e-05
1.5723e-06
4.05085e-05
8.03184e-07
3.34938e-05
1.51644e-05
-7.67251e-06
3.83906e-06
-2.41735e-05
2.39774e-05
-4.64371e-05
5.51465e-05
-7.34225e-05
9.46443e-05
-0.000104747
0.000139065
-0.000139915
0.000185787
-0.000177925
0.000232821
-0.00021713
0.000277812
-0.000255471
0.000317887
-0.000290962
0.000350352
-0.00032211
0.00037346
-0.000348077
0.000386698
-0.000368631
0.000390598
-0.000384003
0.000386351
-0.000394772
0.00037549
-0.000401737
0.000359655
-0.000405791
0.000340387
-0.000407797
0.000318991
-0.000408504
0.000296467
-0.0004085
0.000273504
-0.000408203
0.000250526
-0.000407878
0.000227751
-0.000407665
0.000205257
-0.000407623
0.000183039
-0.000407751
0.000161047
-0.000408022
0.000139216
-0.000408398
0.00011748
-0.00040884
9.57774e-05
-0.000409318
7.40587e-05
-0.00040981
5.22825e-05
-0.000410303
3.04155e-05
-0.000410784
8.43047e-06
-0.000411273
-1.37061e-05
-0.000411786
-3.60076e-05
-0.000412347
-5.84861e-05
-0.00041299
-8.11533e-05
-0.000413766
-0.000104018
-0.000414736
-0.000127086
-0.000415985
-0.000150369
-0.000417618
-0.000173883
-0.000419766
-0.000197663
-0.000422585
-0.000221769
-0.000426241
-0.000246302
-0.00043088
-0.000271408
-0.00043656
-0.00029727
-0.000443141
-0.00032407
-0.000450129
-0.000351895
-0.000456472
-0.000380554
-0.000460359
-0.000409317
-0.000459077
-0.000436544
-0.000449071
-0.00045931
-0.00042633
-0.000473142
-0.000387279
-0.000472088
-0.000330301
-0.000449453
-0.00025783
-0.000399643
-0.000178387
-0.000321544
-0.0001059
-0.00022334
-5.29464e-05
-0.000124391
-2.18245e-05
-4.62365e-05
-6.21792e-06
3.31567e-06
2.97564e-07
2.96558e-05
1.83206e-06
3.8974e-05
1.02905e-06
3.42968e-05
1.61934e-05
-9.6364e-06
1.34755e-05
-2.91387e-05
4.34797e-05
-5.42632e-05
8.0271e-05
-8.36755e-05
0.000124057
-0.000116811
0.0001722
-0.000152898
0.000221875
-0.000190621
0.000270544
-0.000228141
0.000315333
-0.000263463
0.000353209
-0.000294903
0.000381791
-0.000321381
0.000399938
-0.000342474
0.000407791
-0.000358302
0.000406426
-0.000369391
0.000397439
-0.000376537
0.000382636
-0.000380668
0.000363786
-0.000382701
0.00034242
-0.000383437
0.000319728
-0.000383504
0.000296533
-0.000383338
0.000273338
-0.000383207
0.000250395
-0.000383244
0.000227788
-0.000383491
0.000205504
-0.000383933
0.000183481
-0.000384529
0.000161643
-0.000385228
0.000139916
-0.000385987
0.000118238
-0.000386767
9.6558e-05
-0.000387545
7.48361e-05
-0.000388304
5.30413e-05
-0.000389036
3.11482e-05
-0.000389741
9.13514e-06
-0.00039043
-1.30167e-05
-0.000391119
-3.53193e-05
-0.000391823
-5.77819e-05
-0.000392566
-8.041e-05
-0.000393378
-0.000103206
-0.000394297
-0.000126167
-0.000395373
-0.000149293
-0.000396676
-0.000172581
-0.000398297
-0.000196041
-0.000400365
-0.000219702
-0.00040304
-0.000243627
-0.000406515
-0.000267932
-0.000410984
-0.000292801
-0.000416573
-0.000318482
-0.000423217
-0.00034525
-0.000430475
-0.000373296
-0.000437284
-0.000402507
-0.000441709
-0.000432119
-0.000440772
-0.000460247
-0.000430519
-0.000483394
-0.000406478
-0.000496129
-0.000364725
-0.000491206
-0.000303775
-0.000460593
-0.000227257
-0.000398063
-0.000146502
-0.000304094
-7.83375e-05
-0.000192556
-3.41275e-05
-9.04465e-05
-1.11744e-05
-1.96374e-05
-1.1658e-06
1.96472e-05
1.71743e-06
3.60908e-05
1.16187e-06
3.48524e-05
1.73553e-05
-1.13686e-05
2.48441e-05
-3.33504e-05
6.54614e-05
-6.06922e-05
0.000107613
-9.17698e-05
0.000155134
-0.000125831
0.000206261
-0.000161862
0.000257905
-0.000198336
0.000307018
-0.000233379
0.000350376
-0.000265195
0.000385025
-0.000292454
0.00040905
-0.000314479
0.000421963
-0.000331213
0.000424525
-0.000343072
0.000418286
-0.000350808
0.000405176
-0.000355355
0.000387183
-0.000357671
0.000366102
-0.000358616
0.000343364
-0.000358864
0.000319976
-0.000358889
0.000296558
-0.000358974
0.000273423
-0.000359255
0.000250675
-0.000359766
0.000228299
-0.000360483
0.000206221
-0.000361356
0.000184353
-0.000362327
0.000162614
-0.000363348
0.000140937
-0.000364379
0.000119269
-0.000365395
9.75742e-05
-0.000366381
7.58222e-05
-0.000367331
5.39912e-05
-0.000368246
3.20623e-05
-0.00036913
1.00191e-05
-0.000369994
-1.21518e-05
-0.000370853
-3.44608e-05
-0.000371719
-5.69161e-05
-0.000372607
-7.95219e-05
-0.000373534
-0.000102278
-0.00037452
-0.000125181
-0.000375591
-0.000148222
-0.000376779
-0.000171392
-0.000378138
-0.000194682
-0.000379747
-0.000218093
-0.000381722
-0.000241652
-0.00038423
-0.000265425
-0.000387484
-0.000289547
-0.000391725
-0.000314241
-0.000397144
-0.000339831
-0.000403746
-0.000366694
-0.000411125
-0.000395129
-0.000418163
-0.00042508
-0.000422728
-0.000455682
-0.00042148
-0.000484642
-0.000409981
-0.000507628
-0.000383295
-0.000517892
-0.000337331
-0.000506556
-0.000271226
-0.000464169
-0.000190798
-0.000384522
-0.000111359
-0.000271995
-5.19155e-05
-0.00014989
-1.88371e-05
-5.27158e-05
-3.89931e-06
4.70939e-06
1.0977e-06
3.10938e-05
1.16754e-06
3.47825e-05
1.85228e-05
-1.27185e-05
3.75626e-05
-3.65557e-05
8.92986e-05
-6.54071e-05
0.000136464
-9.73739e-05
0.000187101
-0.000131527
0.000240415
-0.000166671
0.000293049
-0.000201179
0.000341526
-0.000233271
0.000382468
-0.00026142
0.000413173
-0.000284659
0.000432289
-0.000302678
0.000439982
-0.000315724
0.00043757
-0.000324446
0.000427008
-0.000329743
0.000410473
-0.000332597
0.000390037
-0.000333921
0.000367426
-0.000334451
0.000343895
-0.000334712
0.000320237
-0.000335019
0.000296865
-0.000335526
0.000273929
-0.000336268
0.000251418
-0.000337219
0.00022925
-0.000338321
0.000207324
-0.000339515
0.000185547
-0.000340747
0.000163846
-0.000341978
0.000142168
-0.000343184
0.000120475
-0.000344351
9.87411e-05
-0.000345475
7.69463e-05
-0.000346558
5.50747e-05
-0.000347608
3.3112e-05
-0.000348634
1.10448e-05
-0.000349647
-1.11384e-05
-0.00035066
-3.34478e-05
-0.000351684
-5.58918e-05
-0.000352731
-7.84756e-05
-0.000353808
-0.000101201
-0.000354926
-0.000124064
-0.000356092
-0.000147057
-0.000357317
-0.000170167
-0.000358621
-0.000193378
-0.000360038
-0.000216676
-0.000361634
-0.000240056
-0.000363517
-0.000263542
-0.000365857
-0.000287206
-0.000368894
-0.000311205
-0.000372911
-0.000335814
-0.000378163
-0.000361441
-0.000384713
-0.000388579
-0.000392152
-0.000417641
-0.000399245
-0.000448589
-0.000403556
-0.000480331
-0.000401259
-0.000509925
-0.000387342
-0.000531809
-0.000356445
-0.000537453
-0.000304626
-0.000515988
-0.000232437
-0.000456711
-0.000149453
-0.000354979
-7.59714e-05
-0.000223371
-2.97353e-05
-9.8952e-05
-8.07511e-06
-1.69508e-05
-8.96407e-08
2.31083e-05
1.04491e-06
3.3648e-05
1.95677e-05
-1.35933e-05
5.11558e-05
-3.85981e-05
0.000114303
-6.82388e-05
0.000166105
-0.000100357
0.000219219
-0.000133873
0.00027393
-0.000167477
0.000326653
-0.000199548
0.000373597
-0.00022848
0.0004114
-0.000253044
0.000437736
-0.000272618
0.000451863
-0.000287202
0.000454566
-0.000297283
0.00044765
-0.00030367
0.000433395
-0.000307331
0.000414134
-0.000309219
0.000391926
-0.000310141
0.000368348
-0.000310687
0.000344441
-0.000311227
0.000320776
-0.000311942
0.000297581
-0.000312887
0.000274873
-0.000314036