/*--------------------------------*- C++ -*----------------------------------*\
| =========                 |                                                 |
| \\      /  F ield         | OpenFOAM: The Open Source CFD Toolbox           |
|  \\    /   O peration     | Version:  2406                                  |
|   \\  /    A nd           | Website:  www.openfoam.com                      |
|    \\/     M anipulation  |                                                 |
\*---------------------------------------------------------------------------*/
FoamFile
{
    version     2.0;
    format      ascii;
    arch        "LSB;label=32;scalar=64";
    class       volVectorField;
    location    "5.9";
    object      U;
}
// * * * * * * * * * * * * * * * * * * * * * * * * * * * * * * * * * * * * * //

dimensions      [0 1 -1 0 0 0 0];

internalField   nonuniform List<vector> 
3600
(
(1.11753e-05 -1.08257e-05 0)
(-3.43526e-05 1.7397e-05 0)
(-0.000149376 3.87911e-05 0)
(-0.000314395 5.3869e-05 0)
(-0.000513106 5.93857e-05 0)
(-0.000722728 6.21676e-05 0)
(-0.000942708 6.17483e-05 0)
(-0.0011595 6.14016e-05 0)
(-0.00137926 6.01952e-05 0)
(-0.00159324 5.95715e-05 0)
(-0.00180825 5.8616e-05 0)
(-0.00201772 5.80749e-05 0)
(-0.00222719 5.7257e-05 0)
(-0.00243137 5.66281e-05 0)
(-0.00263428 5.57035e-05 0)
(-0.00283157 5.48004e-05 0)
(-0.00302598 5.35757e-05 0)
(-0.00321386 5.22466e-05 0)
(-0.00339688 5.05619e-05 0)
(-0.00357192 4.86669e-05 0)
(-0.00373978 4.63724e-05 0)
(-0.0038977 4.37742e-05 0)
(-0.00404579 4.07295e-05 0)
(-0.00418151 3.73027e-05 0)
(-0.00430447 3.3391e-05 0)
(-0.00441232 2.9044e-05 0)
(-0.00450431 2.41975e-05 0)
(-0.00457832 1.89018e-05 0)
(-0.00463344 1.31337e-05 0)
(-0.00466786 6.95686e-06 0)
(-0.00468074 3.9213e-07 0)
(-0.00467073 -6.47405e-06 0)
(-0.00463728 -1.35766e-05 0)
(-0.0045797 -2.08035e-05 0)
(-0.00449793 -2.80513e-05 0)
(-0.00439209 -3.51879e-05 0)
(-0.00426277 -4.20856e-05 0)
(-0.004111 -4.86065e-05 0)
(-0.00393805 -5.46214e-05 0)
(-0.00374589 -6.00074e-05 0)
(-0.00353635 -6.46614e-05 0)
(-0.00331219 -6.84966e-05 0)
(-0.00307554 -7.14627e-05 0)
(-0.00282974 -7.35221e-05 0)
(-0.00257686 -7.46961e-05 0)
(-0.00232053 -7.49917e-05 0)
(-0.00206239 -7.45043e-05 0)
(-0.00180614 -7.32496e-05 0)
(-0.00155277 -7.13753e-05 0)
(-0.00130613 -6.8818e-05 0)
(-0.00106673 -6.57182e-05 0)
(-0.000839134 -6.17638e-05 0)
(-0.000624346 -5.69945e-05 0)
(-0.000428801 -5.05957e-05 0)
(-0.000255806 -4.25141e-05 0)
(-0.000114557 -3.1285e-05 0)
(-1.18889e-05 -1.75198e-05 0)
(4.40349e-05 -9.76318e-08 0)
(4.86512e-05 1.50084e-05 0)
(1.87875e-05 1.98514e-05 0)
(-1.76397e-05 3.46706e-05 0)
(-0.000185936 0.000182656 0)
(-0.000495259 0.000293219 0)
(-0.000899375 0.00037402 0)
(-0.00137712 0.000415157 0)
(-0.00188579 0.000438648 0)
(-0.00242078 0.000445435 0)
(-0.00295645 0.000447592 0)
(-0.00349875 0.000444313 0)
(-0.0040324 0.000440873 0)
(-0.00456578 0.000435482 0)
(-0.0050884 0.000430433 0)
(-0.0056074 0.000424053 0)
(-0.00611456 0.000417484 0)
(-0.00661496 0.000409461 0)
(-0.00710173 0.000400632 0)
(-0.00757798 0.000390074 0)
(-0.00803775 0.00037816 0)
(-0.00848253 0.0003642 0)
(-0.00890694 0.00034839 0)
(-0.00931114 0.000330199 0)
(-0.00969013 0.000309722 0)
(-0.010043 0.000286557 0)
(-0.0103651 0.000260759 0)
(-0.0106546 0.000232059 0)
(-0.0109072 0.000200535 0)
(-0.0111206 0.000166073 0)
(-0.0112909 0.000128829 0)
(-0.0114159 8.88741e-05 0)
(-0.0114921 4.64952e-05 0)
(-0.0115176 1.97199e-06 0)
(-0.0114901 -4.42492e-05 0)
(-0.0114084 -9.16761e-05 0)
(-0.0112713 -0.000139706 0)
(-0.0110789 -0.000187665 0)
(-0.0108318 -0.00023484 0)
(-0.0105312 -0.000280452 0)
(-0.0101795 -0.000323766 0)
(-0.00977958 -0.000364008 0)
(-0.00933534 -0.00040054 0)
(-0.00885085 -0.000432728 0)
(-0.00833157 -0.000460147 0)
(-0.00778223 -0.000482419 0)
(-0.00720929 -0.000499405 0)
(-0.00661752 -0.000511048 0)
(-0.00601387 -0.000517469 0)
(-0.00540252 -0.000518891 0)
(-0.00479056 -0.000515501 0)
(-0.00418128 -0.000507599 0)
(-0.00358226 -0.000494978 0)
(-0.00299645 -0.000477608 0)
(-0.00243325 -0.000454097 0)
(-0.00189727 -0.000423623 0)
(-0.00140218 -0.000382793 0)
(-0.000956989 -0.000330486 0)
(-0.000580924 -0.000261901 0)
(-0.000286799 -0.000180106 0)
(-9.13563e-05 -8.46342e-05 0)
(2.88124e-06 7.39678e-07 0)
(1.34304e-05 4.79021e-05 0)
(-4.27999e-05 0.000155952 0)
(-0.00031502 0.000498446 0)
(-0.00078721 0.000753272 0)
(-0.0013784 0.000936103 0)
(-0.0020685 0.00103907 0)
(-0.00279981 0.00109814 0)
(-0.00356796 0.00112059 0)
(-0.0043393 0.00112805 0)
(-0.00511989 0.0011228 0)
(-0.00589018 0.0011143 0)
(-0.00665887 0.00110124 0)
(-0.00741302 0.00108729 0)
(-0.00816 0.00107035 0)
(-0.00888994 0.0010519 0)
(-0.00960785 0.00103015 0)
(-0.0103055 0.00100574 0)
(-0.0109857 0.000977298 0)
(-0.0116411 0.000945074 0)
(-0.0122727 0.000908004 0)
(-0.0128738 0.000866122 0)
(-0.0134438 0.000818593 0)
(-0.0139765 0.000765347 0)
(-0.0144699 0.000705765 0)
(-0.0149182 0.000639788 0)
(-0.0153187 0.000567045 0)
(-0.0156657 0.000487604 0)
(-0.0159563 0.000401408 0)
(-0.0161854 0.000308765 0)
(-0.0163499 0.000210003 0)
(-0.0164458 0.000105762 0)
(-0.0164706 -3.18977e-06 0)
(-0.0164215 -0.000115834 0)
(-0.0162972 -0.000230959 0)
(-0.0160967 -0.000347197 0)
(-0.0158201 -0.000462966 0)
(-0.0154685 -0.000576664 0)
(-0.015044 -0.00068651 0)
(-0.0145499 -0.000790875 0)
(-0.0139901 -0.000888016 0)
(-0.0133699 -0.000976541 0)
(-0.0126948 -0.00105503 0)
(-0.011972 -0.00112257 0)
(-0.0112079 -0.00117829 0)
(-0.0104106 -0.00122195 0)
(-0.00958672 -0.00125332 0)
(-0.00874494 -0.00127273 0)
(-0.00789107 -0.0012805 0)
(-0.00703407 -0.00127709 0)
(-0.00617875 -0.00126278 0)
(-0.00533475 -0.00123721 0)
(-0.0045067 -0.00119959 0)
(-0.00370682 -0.00114703 0)
(-0.00294189 -0.0010766 0)
(-0.00223004 -0.000981568 0)
(-0.00158302 -0.000858079 0)
(-0.00102659 -0.000698178 0)
(-0.000575344 -0.000506897 0)
(-0.000254237 -0.000288521 0)
(-6.32539e-05 -8.54246e-05 0)
(1.58135e-06 4.84729e-05 0)
(-6.31772e-05 0.000341028 0)
(-0.000422706 0.000933147 0)
(-0.00102703 0.00135982 0)
(-0.00176285 0.00165703 0)
(-0.00261258 0.00183116 0)
(-0.00350699 0.00193144 0)
(-0.00444502 0.0019739 0)
(-0.00538704 0.00198869 0)
(-0.00634061 0.00198217 0)
(-0.00728255 0.00196773 0)
(-0.00822218 0.00194511 0)
(-0.00914429 0.00191935 0)
(-0.0100565 0.00188818 0)
(-0.0109474 0.00185342 0)
(-0.0118219 0.00181282 0)
(-0.0126706 0.00176701 0)
(-0.0134962 0.00171417 0)
(-0.0142902 0.0016544 0)
(-0.0150532 0.00158625 0)
(-0.0157775 0.00150958 0)
(-0.016462 0.00142321 0)
(-0.0170995 0.00132694 0)
(-0.0176876 0.00121992 0)
(-0.0182194 0.00110201 0)
(-0.0186917 0.00097275 0)
(-0.0190982 0.000832273 0)
(-0.0194353 0.000680633 0)
(-0.0196973 0.000518379 0)
(-0.0198808 0.000346192 0)
(-0.0199812 0.000165182 0)
(-0.0199961 -2.32667e-05 0)
(-0.0199224 -0.000217426 0)
(-0.019759 -0.000415217 0)
(-0.0195048 -0.000614355 0)
(-0.0191607 -0.000812201 0)
(-0.0187279 -0.00100612 0)
(-0.0182094 -0.00119318 0)
(-0.0176092 -0.00137074 0)
(-0.016932 -0.00153598 0)
(-0.0161844 -0.00168665 0)
(-0.0153729 -0.00182048 0)
(-0.0145057 -0.00193604 0)
(-0.0135906 -0.00203194 0)
(-0.012637 -0.00210781 0)
(-0.0116525 -0.00216329 0)
(-0.0106471 -0.00219896 0)
(-0.00962768 -0.00221517 0)
(-0.00860442 -0.00221276 0)
(-0.00758307 -0.00219187 0)
(-0.00657459 -0.00215197 0)
(-0.00558447 -0.00209125 0)
(-0.00462673 -0.00200536 0)
(-0.00370888 -0.00188875 0)
(-0.00285168 -0.00173162 0)
(-0.00206716 -0.00152673 0)
(-0.00138488 -0.00126395 0)
(-0.00081836 -0.000948834 0)
(-0.000399185 -0.000591581 0)
(-0.000125357 -0.000246422 0)
(-9.97554e-06 1.08432e-05 0)
(-7.49496e-05 0.000575263 0)
(-0.000496304 0.00146974 0)
(-0.00119983 0.00209785 0)
(-0.00204564 0.00252414 0)
(-0.0030165 0.00277871 0)
(-0.00403252 0.00292481 0)
(-0.00509595 0.00299033 0)
(-0.00616226 0.0030133 0)
(-0.00724127 0.00300553 0)
(-0.00830688 0.00298384 0)
(-0.00936956 0.00294975 0)
(-0.0104122 0.00290935 0)
(-0.0114428 0.00286061 0)
(-0.0124487 0.00280547 0)
(-0.0134351 0.00274142 0)
(-0.0143913 0.00266892 0)
(-0.01532 0.00258579 0)
(-0.016212 0.00249188 0)
(-0.0170674 0.00238539 0)
(-0.0178779 0.00226592 0)
(-0.018642 0.00213203 0)
(-0.0193518 0.00198327 0)
(-0.0200046 0.00181864 0)
(-0.0205927 0.00163788 0)
(-0.0211127 0.00144053 0)
(-0.0215575 0.00122677 0)
(-0.0219232 0.000996866 0)
(-0.0222038 0.000751651 0)
(-0.0223956 0.000492268 0)
(-0.0224938 0.000220391 0)
(-0.0224957 -6.18492e-05 0)
(-0.0223982 -0.000351888 0)
(-0.0222002 -0.000646623 0)
(-0.021901 -0.000942708 0)
(-0.0215015 -0.00123627 0)
(-0.0210036 -0.00152348 0)
(-0.0204107 -0.00180011 0)
(-0.0197274 -0.00206234 0)
(-0.0189595 -0.00230611 0)
(-0.0181143 -0.00252826 0)
(-0.0171993 -0.00272551 0)
(-0.0162238 -0.0028959 0)
(-0.0151967 -0.00303744 0)
(-0.0141284 -0.00314971 0)
(-0.0130276 -0.00323216 0)
(-0.0119054 -0.00328575 0)
(-0.0107695 -0.00331087 0)
(-0.00963104 -0.00330887 0)
(-0.00849632 -0.00327968 0)
(-0.00737719 -0.00322277 0)
(-0.00627947 -0.00313504 0)
(-0.00521816 -0.00301083 0)
(-0.00420071 -0.00284147 0)
(-0.00324932 -0.00261439 0)
(-0.00237541 -0.00231806 0)
(-0.00161115 -0.00194085 0)
(-0.000968873 -0.00148721 0)
(-0.000485815 -0.000974003 0)
(-0.000159355 -0.000462913 0)
(-1.49903e-05 -5.08102e-05 0)
(-8.34335e-05 0.000839616 0)
(-0.000551 0.00207284 0)
(-0.00132778 0.00292001 0)
(-0.00225505 0.00348172 0)
(-0.00331479 0.00381875 0)
(-0.00441899 0.00401059 0)
(-0.00557268 0.00409901 0)
(-0.0067276 0.00412962 0)
(-0.00789592 0.00412004 0)
(-0.00904922 0.00409011 0)
(-0.0101993 0.00404327 0)
(-0.0113274 0.00398647 0)
(-0.0124422 0.00391801 0)
(-0.0135299 0.00383987 0)
(-0.0145958 0.00374936 0)
(-0.0156285 0.00364674 0)
(-0.0166306 0.00352951 0)
(-0.0175922 0.00339725 0)
(-0.0185135 0.00324784 0)
(-0.0193853 0.00308059 0)
(-0.0202061 0.0028938 0)
(-0.0209673 0.00268683 0)
(-0.0216659 0.00245848 0)
(-0.0222938 0.00220844 0)
(-0.0228473 0.00193622 0)
(-0.0233187 0.00164212 0)
(-0.023704 0.00132662 0)
(-0.0239966 0.0009909 0)
(-0.0241927 0.000636605 0)
(-0.024287 0.000266035 0)
(-0.0242768 -0.000117864 0)
(-0.0241589 -0.000511618 0)
(-0.023932 -0.000911012 0)
(-0.0235956 -0.00131155 0)
(-0.0231507 -0.00170801 0)
(-0.0225995 -0.00209529 0)
(-0.021946 -0.00246772 0)
(-0.0211952 -0.00282023 0)
(-0.0203537 -0.00314741 0)
(-0.0194297 -0.0034451 0)
(-0.0184316 -0.00370894 0)
(-0.01737 -0.00393642 0)
(-0.0162546 -0.0041249 0)
(-0.0150971 -0.00427398 0)
(-0.0139074 -0.0043829 0)
(-0.0126975 -0.00445314 0)
(-0.0114762 -0.00448519 0)
(-0.0102553 -0.00448107 0)
(-0.00904176 -0.00444055 0)
(-0.00784809 -0.00436335 0)
(-0.00668022 -0.0042451 0)
(-0.0055536 -0.00407915 0)
(-0.00447531 -0.00385361 0)
(-0.00346806 -0.00355355 0)
(-0.00254236 -0.00316275 0)
(-0.00173155 -0.0026683 0)
(-0.00104694 -0.00207204 0)
(-0.000529011 -0.00139673 0)
(-0.000175066 -0.000708263 0)
(-1.67535e-05 -0.0001237 0)
(-8.79787e-05 0.00112837 0)
(-0.000586431 0.00273092 0)
(-0.00141464 0.00381433 0)
(-0.00240091 0.00452022 0)
(-0.00352586 0.00494379 0)
(-0.0046948 0.00518277 0)
(-0.00591459 0.00529456 0)
(-0.00713389 0.00533249 0)
(-0.0083669 0.00532067 0)
(-0.00958338 0.00528163 0)
(-0.0107965 0.00522105 0)
(-0.0119863 0.00514647 0)
(-0.0131622 0.0050567 0)
(-0.0143093 0.00495359 0)
(-0.0154335 0.0048344 0)
(-0.0165227 0.00469905 0)
(-0.0175794 0.00454478 0)
(-0.0185933 0.00437084 0)
(-0.0195646 0.0041748 0)
(-0.0204835 0.00395565 0)
(-0.0213485 0.00371144 0)
(-0.0221504 0.00344126 0)
(-0.022886 0.00314377 0)
(-0.0235468 0.00281853 0)
(-0.0241286 0.00246508 0)
(-0.0246235 0.00208378 0)
(-0.025027 0.00167537 0)
(-0.0253319 0.00124138 0)
(-0.0255342 0.000783995 0)
(-0.0256282 0.00030618 0)
(-0.0256108 -0.00018823 0)
(-0.0254782 -0.000694777 0)
(-0.0252294 -0.00120802 0)
(-0.0248632 -0.00172219 0)
(-0.0243811 -0.00223058 0)
(-0.0237851 -0.00272664 0)
(-0.0230796 -0.00320306 0)
(-0.0222702 -0.00365336 0)
(-0.0213643 -0.00407058 0)
(-0.0203706 -0.0044494 0)
(-0.019299 -0.00478423 0)
(-0.018161 -0.0050719 0)
(-0.016968 -0.00530907 0)
(-0.0157327 -0.00549533 0)
(-0.0144665 -0.00562978 0)
(-0.0131826 -0.00571454 0)
(-0.011891 -0.00575025 0)
(-0.0106043 -0.0057399 0)
(-0.00933026 -0.00568315 0)
(-0.00808185 -0.00558033 0)
(-0.00686516 -0.00542577 0)
(-0.00569572 -0.0052122 0)
(-0.00458028 -0.00492433 0)
(-0.00354153 -0.00454516 0)
(-0.00258939 -0.00405339 0)
(-0.00175755 -0.00343492 0)
(-0.00105688 -0.00268829 0)
(-0.000529034 -0.00184205 0)
(-0.000171126 -0.00096619 0)
(-1.47473e-05 -0.000199105 0)
(-9.15262e-05 0.00143009 0)
(-0.000612616 0.00342162 0)
(-0.0014776 0.0047518 0)
(-0.00250661 0.00560658 0)
(-0.00367872 0.00611772 0)
(-0.00489464 0.00640337 0)
(-0.00616236 0.00653762 0)
(-0.00742832 0.00658196 0)
(-0.00870838 0.00656719 0)
(-0.00997096 0.00651843 0)
(-0.0112305 0.00644358 0)
(-0.012466 0.00635061 0)
(-0.0136877 0.00623887 0)
(-0.01488 0.00610999 0)
(-0.0160491 0.00596118 0)
(-0.0171824 0.005792 0)
(-0.0182828 0.00559945 0)
(-0.0193392 0.00538239 0)
(-0.020352 0.00513809 0)
(-0.0213111 0.00486521 0)
(-0.0222146 0.00456149 0)
(-0.0230532 0.00422578 0)
(-0.0238233 0.00385653 0)
(-0.0245159 0.00345316 0)
(-0.0251266 0.00301518 0)
(-0.0256467 0.00254303 0)
(-0.0260714 0.00203765 0)
(-0.026393 0.00150089 0)
(-0.0266067 0.000935502 0)
(-0.0267063 0.000345093 0)
(-0.0266881 -0.000265581 0)
(-0.0265478 -0.000891029 0)
(-0.0262838 -0.0015245 0)
(-0.0258947 -0.00215887 0)
(-0.0253816 -0.00278576 0)
(-0.0247466 -0.00339703 0)
(-0.0239944 -0.00398354 0)
(-0.0231307 -0.0045372 0)
(-0.0221638 -0.00504925 0)
(-0.0211035 -0.00551303 0)
(-0.0199609 -0.0059215 0)
(-0.0187488 -0.00627076 0)
(-0.0174803 -0.00655658 0)
(-0.0161698 -0.00677864 0)
(-0.0148305 -0.00693583 0)
(-0.013477 -0.00703116 0)
(-0.0121208 -0.0070655 0)
(-0.0107755 -0.00704316 0)
(-0.00945005 -0.00696389 0)
(-0.0081576 -0.006829 0)
(-0.00690467 -0.00663172 0)
(-0.00570655 -0.00636453 0)
(-0.00456982 -0.00600882 0)
(-0.00351656 -0.00554576 0)
(-0.00255631 -0.00494876 0)
(-0.00172207 -0.00420253 0)
(-0.00102448 -0.00330196 0)
(-0.000504125 -0.00228124 0)
(-0.000157483 -0.0012155 0)
(-1.16227e-05 -0.000266928 0)
(-9.33778e-05 0.0017434 0)
(-0.000629778 0.00413973 0)
(-0.00152078 0.00572619 0)
(-0.00258092 0.0067355 0)
(-0.00378806 0.00733684 0)
(-0.00503935 0.00767033 0)
(-0.0063435 0.00782738 0)
(-0.00764519 0.00787822 0)
(-0.00896154 0.00786054 0)
(-0.01026 0.00780211 0)
(-0.011556 0.00771309 0)
(-0.0128279 0.00760182 0)
(-0.0140869 0.0074682 0)
(-0.0153165 0.00731355 0)
(-0.0165236 0.00713506 0)
(-0.0176951 0.00693184 0)
(-0.0188342 0.00670067 0)
(-0.0199295 0.00643994 0)
(-0.0209813 0.00614663 0)
(-0.0219793 0.00581897 0)
(-0.0229215 0.00545441 0)
(-0.023798 0.00505142 0)
(-0.0246052 0.00460824 0)
(-0.0253334 0.00412406 0)
(-0.0259778 0.00359832 0)
(-0.0265291 0.00303143 0)
(-0.0269818 0.00242451 0)
(-0.0273273 0.00177969 0)
(-0.0275603 0.00110023 0)
(-0.0276734 0.000390375 0)
(-0.0276622 -0.000344159 0)
(-0.0275217 -0.0010968 0)
(-0.0272493 -0.0018594 0)
(-0.026843 -0.00262328 0)
(-0.0263035 -0.00337824 0)
(-0.0256326 -0.00411429 0)
(-0.024835 -0.00482016 0)
(-0.023917 -0.00548582 0)
(-0.0228875 -0.0061004 0)
(-0.0217574 -0.00665557 0)
(-0.0205395 -0.00714255 0)
(-0.0192482 -0.00755647 0)
(-0.0178988 -0.00789206 0)
(-0.0165075 -0.00814905 0)
(-0.0150901 -0.00832613 0)
(-0.0136628 -0.00842738 0)
(-0.0122392 -0.00845413 0)
(-0.0108344 -0.00841238 0)
(-0.00945836 -0.0083022 0)
(-0.00812473 -0.00812641 0)
(-0.00684057 -0.00787733 0)
(-0.00562067 -0.00754758 0)
(-0.00447161 -0.00711529 0)
(-0.00341441 -0.00656003 0)
(-0.00245847 -0.0058499 0)
(-0.00163529 -0.00496851 0)
(-0.000955431 -0.00390751 0)
(-0.000456645 -0.00270732 0)
(-0.000134022 -0.00145044 0)
(-6.93871e-06 -0.000325697 0)
(-9.5207e-05 0.00206342 0)
(-0.00064365 0.00487517 0)
(-0.00155429 0.00672409 0)
(-0.00263813 0.00789137 0)
(-0.00387196 0.00858406 0)
(-0.00515058 0.00896568 0)
(-0.00648316 0.00914533 0)
(-0.00781314 0.00920254 0)
(-0.00915868 0.00918198 0)
(-0.0104865 0.00911413 0)
(-0.0118131 0.00901141 0)
(-0.0131162 0.00888245 0)
(-0.0144076 0.00872768 0)
(-0.0156708 0.00854808 0)
(-0.0169129 0.00834076 0)
(-0.0181206 0.00810437 0)
(-0.0192973 0.00783543 0)
(-0.0204313 0.00753183 0)
(-0.0215232 0.00719021 0)
(-0.0225621 0.00680831 0)
(-0.023546 0.00638322 0)
(-0.0244648 0.00591298 0)
(-0.0253142 0.00539553 0)
(-0.0260843 0.00482973 0)
(-0.0267694 0.00421487 0)
(-0.0273596 0.00355121 0)
(-0.0278486 0.00283997 0)
(-0.0282268 0.00208345 0)
(-0.0284878 0.00128534 0)
(-0.028623 0.000450519 0)
(-0.0286271 -0.000414387 0)
(-0.0284935 -0.00130169 0)
(-0.0282189 -0.00220171 0)
(-0.0278 -0.00310413 0)
(-0.0272371 -0.00399666 0)
(-0.0265312 -0.0048672 0)
(-0.0256873 -0.00570196 0)
(-0.0247115 -0.00648863 0)
(-0.0236142 -0.00721375 0)
(-0.022407 -0.00786697 0)
(-0.021105 -0.00843732 0)
(-0.0197244 -0.0089187 0)
(-0.0182833 -0.00930455 0)
(-0.0168006 -0.0095946 0)
(-0.015295 -0.00978735 0)
(-0.013785 -0.00988824 0)
(-0.012287 -0.00989925 0)
(-0.0108174 -0.00982864 0)
(-0.00938805 -0.0096772 0)
(-0.00801293 -0.00944984 0)
(-0.00669984 -0.00913831 0)
(-0.00546271 -0.00873592 0)
(-0.00430818 -0.0082177 0)
(-0.00325555 -0.00756187 0)
(-0.0023141 -0.00673128 0)
(-0.00151289 -0.00570865 0)
(-0.000862186 -0.00448286 0)
(-0.000395354 -0.00310146 0)
(-0.000105441 -0.00165678 0)
(-1.89976e-06 -0.000368385 0)
(-9.62377e-05 0.00238893 0)
(-0.000653723 0.00562457 0)
(-0.00157984 0.00774145 0)
(-0.00268264 0.00907041 0)
(-0.00393826 0.00985658 0)
(-0.00523962 0.0102877 0)
(-0.00659629 0.0104909 0)
(-0.00795076 0.0105554 0)
(-0.00932203 0.010533 0)
(-0.0106763 0.0104568 0)
(-0.0120309 0.0103417 0)
(-0.0133632 0.0101965 0)
(-0.0146859 0.0100222 0)
(-0.0159819 0.00981933 0)
(-0.0172591 0.00958497 0)
(-0.0185037 0.0093172 0)
(-0.0197197 0.00901226 0)
(-0.0208951 0.00866747 0)
(-0.0220305 0.00827907 0)
(-0.0231148 0.00784423 0)
(-0.0241461 0.00735961 0)
(-0.0251134 0.00682269 0)
(-0.0260125 0.00623101 0)
(-0.0268326 0.00558297 0)
(-0.0275674 0.00487756 0)
(-0.0282061 0.0041148 0)
(-0.0287412 0.00329582 0)
(-0.0291621 0.002423 0)
(-0.0294609 0.00150038 0)
(-0.0296278 0.000533346 0)
(-0.0296557 -0.000470547 0)
(-0.0295365 -0.00150247 0)
(-0.0292656 -0.00255112 0)
(-0.0288383 -0.00360433 0)
(-0.0282537 -0.00464744 0)
(-0.0275121 -0.00566585 0)
(-0.0266182 -0.00664282 0)
(-0.0255784 -0.00756322 0)
(-0.0244041 -0.00841041 0)
(-0.0231083 -0.00917145 0)
(-0.0217083 -0.00983263 0)
(-0.0202232 -0.0103862 0)
(-0.0186744 -0.0108239 0)
(-0.017084 -0.0111455 0)
(-0.0154746 -0.0113492 0)
(-0.0138678 -0.0114421 0)
(-0.0122834 -0.0114273 0)
(-0.0107396 -0.0113159 0)
(-0.00925072 -0.0111099 0)
(-0.00783079 -0.0108171 0)
(-0.00648862 -0.0104293 0)
(-0.00523682 -0.00994084 0)
(-0.00408205 -0.00932405 0)
(-0.00304119 -0.00855617 0)
(-0.00212331 -0.0075949 0)
(-0.00135409 -0.00642251 0)
(-0.000743278 -0.00502586 0)
(-0.000318537 -0.00346107 0)
(-7.01358e-05 -0.00183297 0)
(4.16189e-06 -0.000395782 0)
(-9.7605e-05 0.00272015 0)
(-0.000663279 0.00638698 0)
(-0.00160268 0.00877614 0)
(-0.00272177 0.0102695 0)
(-0.00399609 0.0111505 0)
(-0.00531727 0.0116321 0)
(-0.00669522 0.0118595 0)
(-0.00807181 0.0119321 0)
(-0.00946677 0.0119086 0)
(-0.010846 0.0118253 0)
(-0.0122276 0.0116992 0)
(-0.0135887 0.0115395 0)
(-0.0149427 0.0113476 0)
(-0.0162723 0.0111236 0)
(-0.017586 0.0108645 0)
(-0.0188699 0.0105678 0)
(-0.0201282 0.0102294 0)
(-0.0213489 0.00984591 0)
(-0.0225326 0.00941323 0)
(-0.0236681 0.00892781 0)
(-0.0247532 0.00838577 0)
(-0.0257766 0.00778393 0)
(-0.0267337 0.00711928 0)
(-0.0276128 0.0063896 0)
(-0.0284071 0.00559344 0)
(-0.0291045 0.00473033 0)
(-0.0296965 0.00380122 0)
(-0.0301708 0.00280832 0)
(-0.0305181 0.0017559 0)
(-0.0307267 0.000649717 0)
(-0.0307876 -0.000501807 0)
(-0.0306907 -0.00168871 0)
(-0.0304297 -0.00289797 0)
(-0.0299977 -0.00411539 0)
(-0.0293927 -0.00532361 0)
(-0.0286135 -0.00650512 0)
(-0.0276647 -0.00763964 0)
(-0.0265525 -0.00870857 0)
(-0.0252894 -0.00969134 0)
(-0.02389 -0.0105717 0)
(-0.0223748 -0.0113324 0)
(-0.0207656 -0.0119636 0)
(-0.0190887 -0.0124548 0)
(-0.01737 -0.0128055 0)
(-0.0156373 -0.0130138 0)
(-0.013916 -0.0130889 0)
(-0.0122303 -0.0130352 0)
(-0.0106009 -0.0128678 0)
(-0.00904486 -0.0125907 0)
(-0.00757637 -0.0122156 0)
(-0.0062052 -0.0117347 0)
(-0.00494206 -0.0111446 0)
(-0.00379333 -0.0104151 0)
(-0.00277254 -0.00952292 0)
(-0.00188819 -0.00842067 0)
(-0.00116149 -0.00709073 0)
(-0.000601347 -0.00551859 0)
(-0.000228396 -0.00377062 0)
(-2.95872e-05 -0.00196686 0)
(1.07564e-05 -0.000401483 0)
(-9.84569e-05 0.00305363 0)
(-0.000671145 0.00715689 0)
(-0.00162263 0.00982213 0)
(-0.00275654 0.0114826 0)
(-0.00404816 0.0124604 0)
(-0.00538792 0.0129942 0)
(-0.00678617 0.0132472 0)
(-0.00818424 0.0133295 0)
(-0.00960258 0.0133068 0)
(-0.0110068 0.0132187 0)
(-0.0124159 0.013084 0)
(-0.0138068 0.0129124 0)
(-0.0151935 0.0127058 0)
(-0.0165588 0.0124638 0)
(-0.0179116 0.0121833 0)
(-0.0192381 0.0118611 0)
(-0.0205428 0.0114927 0)
(-0.0218135 0.0110741 0)
(-0.0230512 0.0106006 0)
(-0.0242443 0.0100679 0)
(-0.0253907 0.0094714 0)
(-0.0264786 0.00880713 0)
(-0.0275029 0.00807137 0)
(-0.0284512 0.00726109 0)
(-0.0293158 0.00637417 0)
(-0.0300834 0.00540948 0)
(-0.0307442 0.0043675 0)
(-0.031284 0.0032501 0)
(-0.0316917 0.00206153 0)
(-0.0319534 0.000807783 0)
(-0.0320578 -0.000501983 0)
(-0.0319924 -0.00185671 0)
(-0.0317482 -0.00324156 0)
(-0.0313162 -0.00464011 0)
(-0.0306921 -0.00603193 0)
(-0.0298733 -0.00739609 0)
(-0.0288633 -0.00870804 0)
(-0.0276682 -0.00994487 0)
(-0.0263017 -0.0110811 0)
(-0.0247801 -0.0120963 0)
(-0.0231275 -0.0129685 0)
(-0.0213696 -0.013685 0)
(-0.0195385 -0.0142324 0)
(-0.0176653 -0.0146098 0)
(-0.0157843 -0.0148149 0)
(-0.0139259 -0.0148597 0)
(-0.0121202 -0.0147507 0)
(-0.0103907 -0.0145081 0)
(-0.00875791 -0.0141387 0)
(-0.00723621 -0.0136596 0)
(-0.0058362 -0.0130646 0)
(-0.00456581 -0.0123535 0)
(-0.00343065 -0.0114937 0)
(-0.00243974 -0.0104621 0)
(-0.00160047 -0.00920639 0)
(-0.000928437 -0.00770969 0)
(-0.000431293 -0.00595677 0)
(-0.000121384 -0.00402625 0)
(1.82418e-05 -0.0020562 0)
(1.84852e-05 -0.000385799 0)
(-9.97497e-05 0.00339402 0)
(-0.000679421 0.0079405 0)
(-0.0016423 0.0108857 0)
(-0.00279019 0.0127158 0)
(-0.00409809 0.013792 0)
(-0.00545555 0.0143793 0)
(-0.00687332 0.0146593 0)
(-0.00829242 0.0147527 0)
(-0.00973396 0.0147325 0)
(-0.0111635 0.0146413 0)
(-0.0126007 0.0145003 0)
(-0.0140225 0.0143195 0)
(-0.0154435 0.0141011 0)
(-0.0168467 0.0138444 0)
(-0.0182416 0.0135459 0)
(-0.0196141 0.013202 0)
(-0.0209695 0.0128076 0)
(-0.0222954 0.0123579 0)
(-0.023593 0.0118477 0)
(-0.0248508 0.0112717 0)
(-0.0260663 0.0106245 0)
(-0.0272275 0.00990126 0)
(-0.0283289 0.00909726 0)
(-0.0293572 0.00820845 0)
(-0.0303038 0.00723181 0)
(-0.031154 0.00616523 0)
(-0.0318966 0.00500848 0)
(-0.0325154 0.00376274 0)
(-0.0329971 0.00243199 0)
(-0.033325 0.00102218 0)
(-0.0334853 -0.000456989 0)
(-0.0334622 -0.00199347 0)
(-0.0332437 -0.0035706 0)
(-0.0328175 -0.00516955 0)
(-0.0321769 -0.00676643 0)
(-0.0313166 -0.00833629 0)
(-0.0302389 -0.00984948 0)
(-0.0289491 -0.0112778 0)
(-0.0274622 -0.0125895 0)
(-0.0257963 -0.0137586 0)
(-0.0239799 -0.0147573 0)
(-0.0220436 -0.0155687 0)
(-0.0200266 -0.0161755 0)
(-0.0179667 -0.0165762 0)
(-0.015907 -0.0167681 0)
(-0.0138843 -0.0167665 0)
(-0.0119361 -0.0165811 0)
(-0.0100897 -0.0162385 0)
(-0.00837008 -0.0157501 0)
(-0.00679116 -0.0151404 0)
(-0.00536422 -0.0144057 0)
(-0.00409328 -0.0135504 0)
(-0.00298222 -0.0125403 0)
(-0.00203409 -0.011353 0)
(-0.00125428 -0.0099312 0)
(-0.000651393 -0.0082592 0)
(-0.00023138 -0.00632169 0)
(3.04788e-06 -0.00421157 0)
(7.31521e-05 -0.00208808 0)
(2.71201e-05 -0.000341904 0)
(-0.000100516 0.00373411 0)
(-0.000686452 0.00872742 0)
(-0.00166039 0.0119557 0)
(-0.00282184 0.0139578 0)
(-0.00414582 0.0151343 0)
(-0.00552084 0.0157769 0)
(-0.00695825 0.0160859 0)
(-0.00839868 0.0161928 0)
(-0.009864 0.0161776 0)
(-0.0113197 0.0160864 0)
(-0.0127861 0.0159424 0)
(-0.0142405 0.0157561 0)
(-0.0156979 0.01553 0)
(-0.0171415 0.015263 0)
(-0.0185813 0.0149513 0)
(-0.0200037 0.0145906 0)
(-0.0214141 0.0141755 0)
(-0.0228005 0.0137001 0)
(-0.0241643 0.0131586 0)
(-0.0254937 0.0125445 0)
(-0.0267866 0.0118518 0)
(-0.0280304 0.0110742 0)
(-0.0292193 0.0102059 0)
(-0.0303392 0.00924166 0)
(-0.0313806 0.00817717 0)
(-0.0323274 0.00700905 0)
(-0.0331666 0.00573599 0)
(-0.0338798 0.00435811 0)
(-0.0344513 0.00287875 0)
(-0.0348613 0.00130345 0)
(-0.0350925 -0.00035781 0)
(-0.0351254 -0.00209222 0)
(-0.0349441 -0.00388134 0)
(-0.0345322 -0.0057038 0)
(-0.0338795 -0.00753188 0)
(-0.032977 -0.00933592 0)
(-0.0318252 -0.0110802 0)
(-0.0304279 -0.0127298 0)
(-0.0288009 -0.0142453 0)
(-0.0269646 -0.0155932 0)
(-0.0249524 -0.0167382 0)
(-0.022801 -0.0176575 0)
(-0.0205588 -0.0183289 0)
(-0.0182724 -0.0187491 0)
(-0.015996 -0.0189151 0)
(-0.0137748 -0.0188466 0)
(-0.0116563 -0.0185574 0)
(-0.00967272 -0.0180831 0)
(-0.00785418 -0.0174418 0)
(-0.00621412 -0.0166675 0)
(-0.00476387 -0.0157611 0)
(-0.00350187 -0.0147335 0)
(-0.00242897 -0.0135493 0)
(-0.00154017 -0.0121876 0)
(-0.000837729 -0.0105857 0)
(-0.000321642 -0.00872963 0)
(4.37101e-06 -0.00660426 0)
(0.000148577 -0.00431906 0)
(0.00013694 -0.00205771 0)
(3.70989e-05 -0.000268911 0)
(-0.000101751 0.00408306 0)
(-0.000693954 0.00953051 0)
(-0.00167833 0.0130459 0)
(-0.00285274 0.0152226 0)
(-0.00419206 0.0165014 0)
(-0.00558411 0.0172011 0)
(-0.00704066 0.0175406 0)
(-0.00850223 0.0176628 0)
(-0.00999132 0.0176548 0)
(-0.0114736 0.0175661 0)
(-0.01297 0.0174221 0)
(-0.0144579 0.0172336 0)
(-0.0159533 0.0170036 0)
(-0.0174395 0.0167304 0)
(-0.0189271 0.0164102 0)
(-0.0204028 0.0160377 0)
(-0.0218726 0.0156071 0)
(-0.0233245 0.0151117 0)
(-0.0247606 0.0145447 0)
(-0.026169 0.0138986 0)
(-0.0275476 0.0131661 0)
(-0.0288839 0.0123397 0)
(-0.0301714 0.0114123 0)
(-0.0313955 0.0103768 0)
(-0.0325457 0.00922761 0)
(-0.0336044 0.00795953 0)
(-0.0345569 0.00656975 0)
(-0.0353824 0.00505685 0)
(-0.0360623 0.00342304 0)
(-0.0365731 0.00167292 0)
(-0.0368938 -0.000183691 0)
(-0.037 -0.00213359 0)
(-0.0368712 -0.00415676 0)
(-0.0364856 -0.00622926 0)
(-0.0358282 -0.0083192 0)
(-0.0348854 -0.0103915 0)
(-0.0336543 -0.0124031 0)
(-0.0321364 -0.0143109 0)
(-0.0303482 -0.0160658 0)
(-0.0283118 -0.0176244 0)
(-0.0260668 -0.0189413 0)
(-0.0236571 -0.0199859 0)
(-0.0211426 -0.0207287 0)
(-0.018581 -0.0211642 0)
(-0.0160409 -0.0212884 0)
(-0.0135793 -0.0211265 0)
(-0.0112561 -0.0206984 0)
(-0.00911042 -0.0200518 0)
(-0.00717908 -0.0192138 0)
(-0.00547444 -0.0182325 0)
(-0.0040071 -0.0171149 0)
(-0.00276766 -0.0158815 0)
(-0.00175182 -0.014496 0)
(-0.000943895 -0.0129398 0)
(-0.000341218 -0.0111441 0)
(6.67406e-05 -0.0090965 0)
(0.000279096 -0.00678232 0)
(0.000316474 -0.00432967 0)
(0.000209726 -0.00195046 0)
(4.82734e-05 -0.000159399 0)
(-0.000102295 0.00442864 0)
(-0.000699849 0.0103323 0)
(-0.00169423 0.0141375 0)
(-0.00288113 0.016491 0)
(-0.0042356 0.0178741 0)
(-0.00564452 0.0186329 0)
(-0.00712027 0.0190054 0)
(-0.00860314 0.0191457 0)
(-0.0101164 0.0191481 0)
(-0.0116257 0.0190656 0)
(-0.0131529 0.0189258 0)
(-0.0146757 0.0187398 0)
(-0.0162105 0.0185111 0)
(-0.0177413 0.0182375 0)
(-0.0192792 0.0179149 0)
(-0.0208114 0.0175374 0)
(-0.0223444 0.0170984 0)
(-0.0238668 0.0165903 0)
(-0.025381 0.0160055 0)
(-0.0268755 0.015335 0)
(-0.0283484 0.0145706 0)
(-0.029787 0.0137029 0)
(-0.0311847 0.0127232 0)
(-0.0325264 0.0116227 0)
(-0.0338006 0.0103937 0)
(-0.0349884 0.00902891 0)
(-0.0360731 0.00752346 0)
(-0.0370314 0.00587379 0)
(-0.0378416 0.00408036 0)
(-0.0384761 0.00214619 0)
(-0.0389093 8.02765e-05 0)
(-0.0391111 -0.00210431 0)
(-0.0390552 -0.0043864 0)
(-0.038713 -0.0067396 0)
(-0.0380632 -0.00912762 0)
(-0.0370859 -0.0115091 0)
(-0.0357736 -0.0138326 0)
(-0.0341242 -0.0160445 0)
(-0.032154 -0.0180834 0)
(-0.0298871 -0.0198935 0)
(-0.0273696 -0.021416 0)
(-0.0246535 -0.0226092 0)
(-0.0218123 -0.0234342 0)
(-0.0189175 -0.0238813 0)
(-0.016056 -0.0239451 0)
(-0.0132997 -0.0236571 0)
(-0.010726 -0.0230455 0)
(-0.00838369 -0.0221742 0)
(-0.00631891 -0.0210836 0)
(-0.00454292 -0.0198406 0)
(-0.00306475 -0.0184626 0)
(-0.00186412 -0.0169821 0)
(-0.000928607 -0.0153635 0)
(-0.000228082 -0.0135907 0)
(0.000247635 -0.0115874 0)
(0.000522009 -0.00934249 0)
(0.000597868 -0.00684097 0)
(0.000509471 -0.00423171 0)
(0.000292658 -0.00175897 0)
(6.08824e-05 -1.15034e-05 0)
(-0.000103346 0.00478533 0)
(-0.000705973 0.0111532 0)
(-0.00170918 0.0152525 0)
(-0.00290745 0.0177858 0)
(-0.00427578 0.0192753 0)
(-0.00570048 0.0200952 0)
(-0.0071944 0.0205027 0)
(-0.00869779 0.0206632 0)
(-0.0102346 0.0206785 0)
(-0.0117707 0.0206052 0)
(-0.0133287 0.0204728 0)
(-0.0148865 0.0202933 0)
(-0.0164617 0.0200703 0)
(-0.0180383 0.0198013 0)
(-0.0196285 0.019482 0)
(-0.0212198 0.0191056 0)
(-0.0228197 0.0186651 0)
(-0.0244172 0.0181518 0)
(-0.0260152 0.017557 0)
(-0.0276029 0.0168706 0)
(-0.0291786 0.0160827 0)
(-0.0307298 0.0151822 0)
(-0.0322501 0.0141588 0)
(-0.0337237 0.0130009 0)
(-0.0351386 0.0116989 0)
(-0.0364745 0.0102425 0)
(-0.0377129 0.00862442 0)
(-0.0388277 0.00683806 0)
(-0.039794 0.00488137 0)
(-0.0405796 0.00275485 0)
(-0.0411536 0.000465854 0)
(-0.0414794 -0.00197361 0)
(-0.0415234 -0.0045418 0)
(-0.0412488 -0.00721027 0)
(-0.0406266 -0.00993807 0)
(-0.0396288 -0.0126769 0)
(-0.0382422 -0.0153649 0)
(-0.0364602 -0.0179361 0)
(-0.0342986 -0.0203137 0)
(-0.0317822 -0.022426 0)
(-0.0289633 -0.0241976 0)
(-0.0259009 -0.025572 0)
(-0.0226818 -0.0264976 0)
(-0.0193919 -0.0269573 0)
(-0.0161394 -0.0269426 0)
(-0.013016 -0.0264917 0)
(-0.0101237 -0.0256427 0)
(-0.00752723 -0.0244807 0)
(-0.0052881 -0.0230656 0)
(-0.00341872 -0.0214906 0)
(-0.00192677 -0.0197883 0)
(-0.000777507 -0.0180096 0)
(5.39905e-05 -0.0161195 0)
(0.000617764 -0.014106 0)
(0.00093577 -0.0118821 0)
(0.00104784 -0.00943708 0)
(0.000962053 -0.0067537 0)
(0.000727594 -0.00400334 0)
(0.000385301 -0.00146719 0)
(7.47043e-05 0.000182454 0)
(-0.000103445 0.00513439 0)
(-0.000709734 0.0119663 0)
(-0.00172086 0.0163619 0)
(-0.00292954 0.019077 0)
(-0.00431103 0.0206752 0)
(-0.00575087 0.0215584 0)
(-0.00726247 0.0220035 0)
(-0.00878592 0.0221875 0)