/*--------------------------------*- C++ -*----------------------------------*\
| =========                 |                                                 |
| \\      /  F ield         | OpenFOAM: The Open Source CFD Toolbox           |
|  \\    /   O peration     | Version:  2406                                  |
|   \\  /    A nd           | Website:  www.openfoam.com                      |
|    \\/     M anipulation  |                                                 |
\*---------------------------------------------------------------------------*/
FoamFile
{
    version     2.0;
    format      ascii;
    arch        "LSB;label=32;scalar=64";
    class       surfaceScalarField;
    location    "99";
    object      phi_0;
}
// * * * * * * * * * * * * * * * * * * * * * * * * * * * * * * * * * * * * * //

dimensions      [0 3 -1 0 0 0 0];

oriented        oriented;

internalField   nonuniform List<scalar> 
8064
(
2.55996e-07
-2.56003e-07
1.22729e-06
-9.71293e-07
2.67083e-06
-1.44354e-06
4.2233e-06
-1.55248e-06
5.58844e-06
-1.36513e-06
6.60685e-06
-1.01841e-06
7.25237e-06
-6.45527e-07
7.59182e-06
-3.39448e-07
7.73126e-06
-1.39435e-07
7.76553e-06
-3.42706e-08
7.74118e-06
2.43498e-08
7.65281e-06
8.83677e-08
7.44188e-06
2.10937e-07
7.01857e-06
4.23314e-07
6.27567e-06
7.42894e-07
5.10048e-06
1.17519e-06
3.37544e-06
1.72504e-06
9.79866e-07
2.39558e-06
-2.20607e-06
3.18594e-06
-6.29307e-06
4.087e-06
-1.13729e-05
5.07983e-06
-1.75019e-05
6.12895e-06
-2.46831e-05
7.18127e-06
-3.28505e-05
8.16739e-06
-4.18578e-05
9.0073e-06
-5.14749e-05
9.61708e-06
-6.13902e-05
9.91533e-06
-7.12207e-05
9.83044e-06
-8.05299e-05
9.30919e-06
-8.88547e-05
8.32488e-06
-9.57372e-05
6.88252e-06
-0.000100754
5.01654e-06
-0.000103538
2.78444e-06
-0.000103858
3.19853e-07
-0.000101293
-2.56491e-06
-9.57945e-05
-5.49872e-06
-8.7398e-05
-8.39651e-06
-7.62599e-05
-1.11381e-05
-6.26886e-05
-1.35713e-05
-4.71561e-05
-1.55325e-05
-3.02988e-05
-1.68573e-05
-1.29019e-05
-1.73969e-05
4.14124e-06
-1.70432e-05
1.99797e-05
-1.58384e-05
3.36209e-05
-1.36412e-05
4.43706e-05
-1.07497e-05
5.16424e-05
-7.27174e-06
5.52836e-05
-3.6412e-06
5.54752e-05
-1.91621e-07
5.26696e-05
2.80556e-06
4.76442e-05
5.0254e-06
4.12451e-05
6.39911e-06
3.43118e-05
6.93334e-06
2.7534e-05
6.77778e-06
2.13765e-05
6.15749e-06
1.60797e-05
5.29682e-06
1.17046e-05
4.37507e-06
8.19342e-06
3.51121e-06
5.42686e-06
2.76657e-06
3.27447e-06
2.15239e-06
1.64263e-06
1.63184e-06
5.20271e-07
1.12236e-06
-1.83347e-08
5.38606e-07
-1.83348e-08
9.1134e-07
-1.16734e-06
3.24879e-06
-3.30874e-06
6.39331e-06
-4.58806e-06
9.65464e-06
-4.81381e-06
1.24784e-05
-4.18886e-06
1.45431e-05
-3.0831e-06
1.57595e-05
-1.86198e-06
1.62039e-05
-7.83807e-07
1.6022e-05
4.24169e-08
1.53379e-05
6.49873e-07
1.4189e-05
1.17324e-06
1.24942e-05
1.78318e-06
1.00697e-05
2.63537e-06
6.66218e-06
3.83086e-06
1.9775e-06
5.42757e-06
-4.28892e-06
7.44162e-06
-1.24305e-05
9.86665e-06
-2.27105e-05
1.26755e-05
-3.53279e-05
1.58033e-05
-5.03697e-05
1.91289e-05
-6.77555e-05
2.24656e-05
-8.71963e-05
2.55697e-05
-0.000108187
2.81717e-05
-0.000130039
3.00195e-05
-0.000151946
3.09149e-05
-0.000173064
3.07347e-05
-0.000192581
2.94327e-05
-0.000209778
2.70272e-05
-0.000224052
2.35834e-05
-0.000234925
1.91977e-05
-0.000242034
1.39918e-05
-0.000245139
8.12145e-06
-0.000244184
1.829e-06
-0.000238792
-5.07202e-06
-0.000229143
-1.22135e-05
-0.000215297
-1.93453e-05
-0.000197428
-2.62655e-05
-0.000175838
-3.2728e-05
-0.000150963
-3.84466e-05
-0.000123387
-4.31083e-05
-9.38542e-05
-4.63898e-05
-6.32661e-05
-4.7985e-05
-3.26624e-05
-4.76469e-05
-3.25159e-06
-4.52492e-05
2.40012e-05
-4.0894e-05
4.78252e-05
-3.45737e-05
6.70849e-05
-2.65313e-05
8.12082e-05
-1.77645e-05
8.98031e-05
-8.78649e-06
9.30792e-05
-4.70576e-07
9.12471e-05
6.85753e-06
8.52268e-05
1.24194e-05
7.61665e-05
1.59936e-05
6.5333e-05
1.76113e-05
5.392e-05
1.75705e-05
4.2889e-05
1.63278e-05
3.28828e-05
1.43813e-05
2.42194e-05
1.21747e-05
1.6969e-05
1.00169e-05
1.10559e-05
8.06546e-06
6.37383e-06
6.31391e-06
2.89385e-06
4.60234e-06
7.21283e-07
2.71117e-06
7.02948e-07
1.41106e-06
-2.57841e-06
4.65562e-06
-6.55331e-06
8.75252e-06
-8.68497e-06
1.2802e-05
-8.86332e-06
1.61284e-05
-7.51525e-06
1.83467e-05
-5.30134e-06
1.93345e-05
-2.84975e-06
1.91403e-05
-5.89608e-07
1.7867e-05
1.31569e-06
1.5567e-05
2.9499e-06
1.21655e-05
4.57471e-06
7.44074e-06
6.50793e-06
1.04145e-06
9.03467e-06
-7.46444e-06
1.23367e-05
-1.85216e-05
1.64847e-05
-3.25465e-05
2.14666e-05
-4.98595e-05
2.71796e-05
-7.05961e-05
3.34122e-05
-9.46105e-05
3.98177e-05
-0.000121409
4.59275e-05
-0.000150165
5.12218e-05
-0.000179824
5.52282e-05
-0.000209258
5.76055e-05
-0.000237415
5.81769e-05
-0.000263415
5.6915e-05
-0.00028658
5.38994e-05
-0.00030642
4.92729e-05
-0.0003226
4.32073e-05
-0.000334898
3.58817e-05
-0.000343173
2.74728e-05
-0.000347345
1.81631e-05
-0.000347397
8.17328e-06
-0.000343278
-2.28951e-06
-0.000334997
-1.3353e-05
-0.000322662
-2.45481e-05
-0.000306325
-3.56833e-05
-0.00028609
-4.65004e-05
-0.000262147
-5.66709e-05
-0.00023478
-6.58137e-05
-0.000204394
-7.34944e-05
-0.000171538
-7.92455e-05
-0.000136924
-8.25991e-05
-0.000101425
-8.31456e-05
-6.60646e-05
-8.06097e-05
-3.2073e-05
-7.48857e-05
-6.16987e-07
-6.60298e-05
2.7577e-05
-5.47253e-05
5.10878e-05
-4.12753e-05
6.92244e-05
-2.69231e-05
8.15436e-05
-1.27898e-05
8.84607e-05
-5.95261e-08
8.97408e-05
1.11393e-05
8.62806e-05
1.94537e-05
7.90627e-05
2.48292e-05
6.92728e-05
2.73604e-05
5.81371e-05
2.74636e-05
4.67465e-05
2.57719e-05
3.5931e-05
2.29901e-05
2.6204e-05
1.9744e-05
1.78074e-05
1.6462e-05
1.0826e-05
1.32953e-05
5.33798e-06
1.00904e-05
1.56219e-06
6.48697e-06
2.26514e-06
1.74373e-06
-4.32214e-06
5.53221e-06
-1.03418e-05
1.00469e-05
-1.31997e-05
1.41991e-05
-1.30155e-05
1.72461e-05
-1.05623e-05
1.87982e-05
-6.85343e-06
1.87326e-05
-2.78411e-06
1.70575e-05
1.08544e-06
1.37835e-05
4.58968e-06
8.81534e-06
7.91808e-06
1.88602e-06
1.1504e-05
-7.43879e-06
1.58327e-05
-1.96845e-05
2.12804e-05
-3.53949e-05
2.80471e-05
-5.50274e-05
3.61172e-05
-7.88201e-05
4.52593e-05
-0.000106653
5.50124e-05
-0.000137944
6.47031e-05
-0.000171665
7.35389e-05
-0.000206509
8.0771e-05
-0.000241129
8.5842e-05
-0.000274351
8.84509e-05
-0.000305277
8.85313e-05
-0.000333286
8.61858e-05
-0.000357989
8.16179e-05
-0.000379169
7.50788e-05
-0.000396723
6.68275e-05
-0.000410622
5.71063e-05
-0.00042087
4.6129e-05
-0.000427479
3.40819e-05
-0.000430457
2.1141e-05
-0.00042978
7.49694e-06
-0.000425384
-6.68563e-06
-0.000417418
-2.13193e-05
-0.000405788
-3.61782e-05
-0.000390441
-5.10297e-05
-0.000371358
-6.55833e-05
-0.000348559
-7.94704e-05
-0.000322132
-9.22404e-05
-0.000292267
-0.000103359
-0.000259288
-0.000112225
-0.000223689
-0.000118198
-0.000186161
-0.000120674
-0.000147607
-0.000119163
-0.000109123
-0.000113369
-7.18475e-05
-0.000103306
-3.71726e-05
-8.94003e-05
-6.09482e-06
-7.23531e-05
2.04484e-05
-5.34664e-05
4.16308e-05
-3.39722e-05
5.69355e-05
-1.53643e-05
6.68699e-05
1.20492e-06
7.13649e-05
1.49588e-05
7.10633e-05
2.51307e-05
6.67928e-05
3.16309e-05
5.95767e-05
3.46797e-05
5.05239e-05
3.48246e-05
4.06787e-05
3.28353e-05
3.0892e-05
2.95307e-05
2.17668e-05
2.55871e-05
1.37013e-05
2.13609e-05
7.01631e-06
1.67753e-05
2.15889e-06
1.13444e-05
4.42402e-06
1.97103e-06
-6.29317e-06
6.00821e-06
-1.4379e-05
1.04681e-05
-1.76596e-05
1.4103e-05
-1.66504e-05
1.61503e-05
-1.26096e-05
1.62548e-05
-6.95794e-06
1.43104e-05
-8.39677e-07
1.02544e-05
5.1414e-06
3.9705e-06
1.08736e-05
-4.86948e-06
1.67581e-05
-1.67672e-05
2.34017e-05
-3.23336e-05
3.13992e-05
-5.21687e-05
4.11155e-05
-7.66808e-05
5.25593e-05
-0.000105905
6.53417e-05
-0.000139349
7.87027e-05
-0.000175956
9.16199e-05
-0.000214273
0.00010302
-0.000252748
0.000112014
-0.000290025
0.000118048
-0.000325094
0.000120911
-0.000357298
0.000120655
-0.000386272
0.000117505
-0.000411855
0.000111769
-0.000434016
0.000103779
-0.000452795
9.3858e-05
-0.000468266
8.22982e-05
-0.000480509
6.93491e-05
-0.000489597
5.52175e-05
-0.000495587
4.00722e-05
-0.000498496
2.405e-05
-0.000498233
7.23393e-06
-0.000494861
-1.0058e-05
-0.000488414
-2.77664e-05
-0.000478753
-4.58388e-05
-0.000465745
-6.40378e-05
-0.000449257
-8.20719e-05
-0.000429158
-9.95692e-05
-0.000405348
-0.000116051
-0.000377784
-0.000130923
-0.000346525
-0.000143484
-0.00031179
-0.000152934
-0.000274009
-0.000158455
-0.000233873
-0.000159299
-0.000192349
-0.000154894
-0.00015065
-0.000145005
-0.000110206
-0.000129845
-7.23984e-05
-0.00011016
-3.85949e-05
-8.72699e-05
-9.74563e-06
-6.28214e-05
1.3524e-05
-3.86339e-05
3.10275e-05
-1.62986e-05
4.30257e-05
2.96061e-06
4.98171e-05
1.83393e-05
5.1959e-05
2.9489e-05
5.01805e-05
3.64582e-05
4.53738e-05
3.96314e-05
3.85144e-05
3.96947e-05
3.05493e-05
3.74959e-05
2.22997e-05
3.38368e-05
1.44368e-05
2.92238e-05
7.55738e-06
2.36547e-05
2.36736e-06
1.65344e-05
6.79138e-06
2.11361e-06
-8.40678e-06
6.10151e-06
-1.83669e-05
1.0015e-05
-2.15731e-05
1.25077e-05
-1.91431e-05
1.28522e-05
-1.29541e-05
1.07588e-05
-4.86451e-06
6.10287e-06
3.81624e-06
-1.24563e-06
1.24899e-05
-1.16421e-05
2.12701e-05
-2.5627e-05
3.0743e-05
-4.38832e-05
4.1658e-05
-6.70345e-05
5.45504e-05
-9.54006e-05
6.94817e-05
-0.000128771
8.593e-05
-0.000166282
0.000102853
-0.000206493
0.000118913
-0.000247683
0.00013281
-0.00028823
0.000143567
-0.00032687
0.000150653
-0.000362767
0.000153945
-0.000395459
0.000153603
-0.000424747
0.000149943
-0.000450608
0.000143365
-0.000473115
0.000134276
-0.000492397
0.000123061
-0.000508602
0.000110063
-0.00052188
9.55761e-05
-0.000532372
7.98416e-05
-0.000540208
6.30528e-05
-0.000545491
4.53554e-05
-0.000548277
2.68363e-05
-0.000548509
7.46589e-06
-0.000546318
-1.22487e-05
-0.000541695
-3.23894e-05
-0.000534496
-5.30383e-05
-0.000524555
-7.39786e-05
-0.000511661
-9.49661e-05
-0.00049556
-0.00011567
-0.00047597
-0.000135641
-0.000452603
-0.000154289
-0.00042522
-0.000170867
-0.000393674
-0.000184479
-0.000358
-0.000194129
-0.000318506
-0.000198793
-0.000275868
-0.000197532
-0.000231165
-0.000189708
-0.000185871
-0.000175139
-0.000141729
-0.000154302
-0.00010058
-0.000128419
-6.40162e-05
-9.93851e-05
-3.31454e-05
-6.95046e-05
-8.41433e-06
-4.10297e-05
1.02586e-05
-1.57123e-05
2.32874e-05
5.31051e-06
3.1261e-05
2.15154e-05
3.47838e-05
3.29354e-05
3.45662e-05
3.98489e-05
3.14211e-05
4.28398e-05
2.62316e-05
4.26854e-05
1.98794e-05
4.01889e-05
1.3199e-05
3.59042e-05
7.00217e-06
2.98515e-05
2.19428e-06
2.13423e-05
8.98566e-06
2.14173e-06
-1.05485e-05
5.7154e-06
-2.19405e-05
8.53063e-06
-2.43884e-05
9.23223e-06
-1.98447e-05
7.18289e-06
-1.09047e-05
2.16717e-06
1.51215e-07
-5.99097e-06
1.19744e-05
-1.75715e-05
2.40704e-05
-3.31224e-05
3.68209e-05
-5.33552e-05
5.09759e-05
-7.88994e-05
6.72021e-05
-0.000109995
8.56461e-05
-0.000146227
0.000105714
-0.000186442
0.000126144
-0.000228924
0.000145335
-0.000271796
0.000161785
-0.000313413
0.000174428
-0.000352593
0.000182747
-0.000388618
0.000186678
-0.000421133
0.000186461
-0.000450037
0.000182507
-0.000475385
0.000175291
-0.000497319
0.0001653
-0.000516037
0.000152994
-0.000531762
0.000138786
-0.000544729
0.00012303
-0.000555167
0.000106015
-0.000563296
8.79701e-05
-0.000569313
6.90697e-05
-0.000573385
4.9428e-05
-0.000575637
2.90876e-05
-0.000576134
7.96313e-06
-0.000574962
-1.34206e-05
-0.00057212
-3.52318e-05
-0.000567518
-5.76395e-05
-0.000561003
-8.04938e-05
-0.000552337
-0.000103632
-0.000541198
-0.000126809
-0.000527173
-0.000149666
-0.000509777
-0.000171685
-0.000488479
-0.000192165
-0.000462754
-0.000210204
-0.000432174
-0.000224709
-0.000396521
-0.000234446
-0.000355911
-0.000238142
-0.000310959
-0.00023466
-0.00026289
-0.000223208
-0.000213528
-0.000203664
-0.000165163
-0.000176784
-0.000120217
-0.000144332
-8.0776e-05
-0.000108945
-4.81315e-05
-7.36742e-05
-2.25626e-05
-4.12813e-05
-3.61342e-06
-1.36387e-05
9.48133e-06
8.42065e-06
1.7594e-05
2.48228e-05
2.14961e-05
3.59468e-05
2.192e-05
4.24159e-05
1.96718e-05
4.49336e-05
1.56132e-05
4.42475e-05
1.06421e-05
4.08753e-05
5.69075e-06
3.48029e-05
1.76028e-06
2.52728e-05
1.07459e-05
1.99165e-06
-1.25402e-05
4.68928e-06
-2.46382e-05
5.79405e-06
-2.54931e-05
4.05005e-06
-1.81007e-05
-1.03484e-06
-5.81985e-06
-9.66052e-06
8.7769e-06
-2.20374e-05
2.43512e-05
-3.86498e-05
4.06828e-05
-6.0163e-05
5.83342e-05
-8.71963e-05
7.80091e-05
-0.000119948
9.99538e-05
-0.000157885
0.000123583
-0.000199671
0.000147501
-0.000243416
0.000169888
-0.000287123
0.000189043
-0.000329122
0.000203783
-0.000368251
0.000213557
-0.000403839
0.000218336
-0.000435589
0.000218427
-0.000463446
0.000214318
-0.000487515
0.000206575
-0.000508001
0.000195777
-0.000525177
0.000182475
-0.000539351
0.000167168
-0.000550848
0.000150284
-0.000559991
0.000132173
-0.000567088
0.000113112
-0.000572421
9.33031e-05
-0.000576239
7.28869e-05
-0.000578751
5.19402e-05
-0.000580136
3.04733e-05
-0.00058056
8.38641e-06
-0.000580062
-1.39179e-05
-0.000578656
-3.66385e-05
-0.000576327
-5.99684e-05
-0.00057298
-8.38409e-05
-0.000568424
-0.000108188
-0.000562355
-0.000132878
-0.000554342
-0.000157679
-0.000543813
-0.000182214
-0.000530061
-0.000205917
-0.00051227
-0.000227995
-0.000489583
-0.000247397
-0.000461207
-0.000262822
-0.000426578
-0.000272771
-0.000385562
-0.000275676
-0.000338651
-0.000270119
-0.000287209
-0.000255105
-0.000233503
-0.00023049
-0.000180525
-0.000197309
-0.000131516
-0.000157954
-8.9226e-05
-0.000115964
-5.51893e-05
-7.5318e-05
-2.94699e-05
-3.9358e-05
-1.11025e-05
-9.94673e-06
1.22862e-06
1.24917e-05
8.65062e-06
2.85248e-05
1.21453e-05
3.89212e-05
1.25503e-05
4.45287e-05
1.07218e-05
4.6076e-05
7.57436e-06
4.40228e-05
4.07753e-06
3.82997e-05
1.2297e-06
2.81206e-05
1.19756e-05
1.58485e-06
-1.4125e-05
2.85729e-06
-2.59106e-05
1.59946e-06
-2.42353e-05
-3.17621e-06
-1.3325e-05
-1.18575e-05
2.86146e-06
-2.46382e-05
2.15575e-05
-4.18297e-05
4.15428e-05
-6.39976e-05
6.28508e-05
-9.17179e-05
8.60544e-05
-0.000125183
0.000111474
-0.000163837
0.000138608
-0.000206277
0.000166022
-0.000250508
0.000191732
-0.000294441
0.000213821
-0.000336335
0.000230937
-0.000374997
0.000242444
-0.000409753
0.000248313
-0.000440315
0.000248899
-0.000466658
0.00024477
-0.000488932
0.000236592
-0.000507412
0.000225055
-0.000522454
0.000210819
-0.000534461
0.000194482
-0.00054385
0.000176557
-0.000551029
0.000157462
-0.000556378
0.000137523
-0.000560241
0.000116974
-0.000562915
9.59768e-05
-0.00056465
7.46221e-05
-0.000565655
5.29456e-05
-0.000566117
3.09345e-05
-0.000566243
8.5124e-06
-0.000566035
-1.41254e-05
-0.000565516
-3.71574e-05
-0.000564754
-6.07306e-05
-0.000563734
-8.48613e-05
-0.000562358
-0.000109564
-0.000560426
-0.00013481
-0.000557605
-0.0001605
-0.000553397
-0.000186422
-0.000547104
-0.000212209
-0.000537823
-0.000237276
-0.000524454
-0.000260766
-0.000505775
-0.000281501
-0.000480572
-0.000297974
-0.000447852
-0.000308397
-0.000407127
-0.000310844
-0.00035872
-0.000303512
-0.000304087
-0.000285124
-0.000245995
-0.000255402
-0.000188298
-0.000215651
-0.000135266
-0.000168997
-9.04681e-05
-0.000120116
-5.56855e-05
-7.41406e-05
-3.05867e-05
-3.50455e-05
-1.35777e-05
-4.51726e-06
-2.7212e-06
1.76682e-05
3.45609e-06
3.27439e-05
6.10431e-06
4.18805e-05
6.20539e-06
4.59749e-05
4.70809e-06
4.55201e-05
2.57792e-06
4.04299e-05
7.51608e-07
2.99469e-05
1.27272e-05
8.5008e-07
-1.49751e-05
8.64997e-08
-2.5147e-05
-4.07507e-06
-2.00737e-05
-1.24082e-05
-4.99188e-06
-2.51402e-05
1.55935e-05
-4.24547e-05
3.8872e-05
-6.47413e-05
6.38294e-05
-9.2484e-05
9.05935e-05
-0.000125883
0.000119453
-0.00016444
0.000150031
-0.000206787
0.000180956
-0.000250907
0.000210142
-0.000294627
0.000235452
-0.000336105
0.000255299
-0.000374068
0.0002689
-0.000407797
0.000276173
-0.000436991
0.000277506
-0.00046164
0.000273548
-0.000481946
0.000265076
-0.000498261
0.000252907
-0.000511034
0.000237828
-0.000520765
0.00022055
-0.000527961
0.000201678
-0.000533105
0.000181701
-0.000536634
0.000160991
-0.000538924
0.000139813
-0.000540292
0.000118342
-0.000540994
9.66784e-05
-0.000541233
7.48615e-05
-0.000541175
5.28875e-05
-0.000540965
3.07251e-05
-0.000540785
8.3317e-06
-0.000540616
-1.42943e-05
-0.000540507
-3.72667e-05
-0.000540559
-6.06778e-05
-0.000540822
-8.45992e-05
-0.000541295
-0.00010909
-0.000541917
-0.000134189
-0.000542523
-0.000159894
-0.000542805
-0.00018614
-0.000542258
-0.000212756
-0.000540125
-0.000239409
-0.000535358
-0.000265533
-0.000526612
-0.000290247
-0.000512308
-0.000312278
-0.00049078
-0.000329925
-0.000460539
-0.000341084
-0.000420647
-0.000343404
-0.000371172
-0.000334598
-0.000313621
-0.000312953
-0.00025129
-0.000277981
-0.000189049
-0.000231238
-0.000132396
-0.000176768
-8.58227e-05
-0.000120714
-5.12249e-05
-6.96433e-05
-2.76229e-05
-2.81193e-05
-1.26096e-05
2.65494e-06
-3.66902e-06
2.38033e-05
9.88133e-07
3.72233e-05
2.68864e-06
4.42744e-05
2.52565e-06
4.5683e-05
1.4804e-06
4.14752e-05
4.26811e-07
3.10005e-05
1.31541e-05
-2.59477e-07
-1.47156e-05
-3.58005e-06
-2.18264e-05
-1.11801e-05
-1.24737e-05
-2.34292e-05
7.25724e-06
-4.04347e-05
3.2599e-05
-6.23939e-05
6.08312e-05
-8.9641e-05
9.10764e-05
-0.000122365
0.000123317
-0.000160173
0.000157262
-0.000201828
0.000191686
-0.000245367
0.000224495
-0.000288568
0.000253343
-0.000329469
0.000276353
-0.000366676
0.000292507
-0.000399389
0.000301612
-0.00042727
0.000304055
-0.000450322
0.000300558
-0.000468794
0.00029202
-0.000483117
0.000279399
-0.000493836
0.000263626
-0.000501547
0.000245539
-0.000506842
0.000225845
-0.000510268
0.000205105
-0.000512304
0.000183737
-0.000513344
0.000162031
-0.000513702
0.000140171
-0.000513617
0.000118257
-0.000513265
9.63266e-05
-0.000512777
7.43731e-05
-0.000512253
5.23634e-05
-0.000511782
3.0254e-05
-0.000511461
8.01088e-06
-0.000511299
-1.44561e-05
-0.00051135
-3.72157e-05
-0.000511701
-6.03272e-05
-0.000512431
-8.38691e-05
-0.00051361
-0.000107911
-0.000515282
-0.000132517
-0.00051744
-0.000157735
-0.000519989
-0.000183592
-0.000522686
-0.000210059
-0.000525072
-0.000237023
-0.000526395
-0.00026421
-0.000525536
-0.000291106
-0.00052097
-0.000316844
-0.000510805
-0.00034009
-0.000492929
-0.00035896
-0.000465317
-0.000371016
-0.000426507
-0.000373408
-0.000376219
-0.000363241
-0.000315979
-0.000338221
-0.000249649
-0.000297568
-0.000183283
-0.000243135
-0.000123799
-0.000180197
-7.66014e-05
-0.000116841
-4.33804e-05
-6.13403e-05
-2.2161e-05
-1.85645e-05
-9.60444e-06
1.12468e-05
-2.7688e-06
3.03877e-05
3.68381e-07
4.11372e-05
1.23096e-06
4.48205e-05
9.15473e-07
4.17906e-05
2.98616e-07
3.16174e-05
1.34527e-05
-1.74298e-06
-1.29726e-05
-8.11368e-06
-1.54557e-05
-1.94739e-05
-1.11345e-06
-3.57544e-05
2.35377e-05
-5.70166e-05
5.38613e-05
-8.3389e-05
8.72036e-05
-0.000114998
0.000122685
-0.000151564
0.000159883
-0.000192045
0.000197743
-0.000234626
0.000234266
-0.00027709
0.000266959
-0.000317363
0.000293615
-0.000353896
0.000312886
-0.000385767
0.000324379
-0.000412581
0.000328426
-0.000434333
0.000325807
-0.000451312
0.000317537
-0.000464021
0.000304729
-0.000473094
0.000288472
-0.000479217
0.000269749
-0.00048306
0.000249381
-0.000485226
0.000228011
-0.000486224
0.000206103
-0.000486458
0.000183971
-0.000486227
0.0001618
-0.000485744
0.000139688
-0.00048515
0.000117663
-0.000484536
9.57124e-05
-0.000483958
7.37957e-05
-0.000483458
5.18624e-05
-0.000483067
2.98637e-05
-0.000482828
7.77146e-06
-0.00048275
-1.45343e-05
-0.000482882
-3.7083e-05
-0.000483295
-5.9914e-05
-0.000484071
-8.30938e-05
-0.000485302
-0.00010668
-0.000487085
-0.000130733
-0.000489509
-0.000155312
-0.000492623
-0.000180477
-0.000496402
-0.000206281
-0.000500684
-0.000232741
-0.00050509
-0.000259804
-0.00050892
-0.000287276
-0.000511046
-0.000314717
-0.000509836
-0.000341301
-0.000503144
-0.000365652
-0.000488453
-0.000385708
-0.0004632
-0.000398661
-0.000425358
-0.000401083
-0.000374236
-0.000389343
-0.000311374
-0.00036043
-0.000241292
-0.000313217
-0.000171448
-0.000250042
-0.000110351
-0.000177938
-6.41096e-05
-0.000107581
-3.36179e-05
-4.90562e-05
-1.55573e-05
-6.81388e-06
-5.72583e-06
2.05562e-05
-9.80827e-07
3.63922e-05
7.49144e-07
4.30905e-05
8.58868e-07
4.16809e-05
3.57007e-07
3.21192e-05
1.38097e-05
-3.56088e-06
-9.41176e-06
-1.33192e-05
-5.69742e-06
-2.84587e-05
1.40261e-05
-4.87098e-05
4.37888e-05
-7.39398e-05
7.90912e-05
-0.00010415
0.000117414
-0.00013913
0.000157666
-0.000178067
0.00019882
-0.000219375
0.000239051
-0.00026093
0.000275821
-0.000300576
0.000306605
-0.000336596
0.000329636
-0.000367908
0.000344198
-0.000394018
0.000350489
-0.00041489
0.000349298
-0.000430831
0.000341747
-0.000442396
0.000329103
-0.000450299
0.000312631
-0.000455305
0.000293478
-0.000458155
0.000272599
-0.000459502
0.000250728
-0.00045988
0.000228389
-0.000459694
0.000205918
-0.00045923
0.000183506
-0.000458672
0.000161242
-0.000458127
0.000139143
-0.000457648
0.000117185
-0.000457256
9.53203e-05
-0.000456954
7.34939e-05
-0.000456742
5.16505e-05
-0.000456621
2.97425e-05
-0.00045659
7.7407e-06
-0.000456671
-1.44537e-05
-0.000456898
-3.68555e-05
-0.000457322
-5.94905e-05
-0.000458012
-8.24041e-05
-0.000459057
-0.000105635
-0.000460565
-0.000129225
-0.000462654
-0.000153223
-0.000465443
-0.000177688
-0.000469032
-0.000202692
-0.000473457
-0.000228315
-0.000478636
-0.000254625
-0.000484271
-0.000281641
-0.000489735
-0.000309253
-0.000493929
-0.000337106
-0.00049516
-0.000364421
-0.000491088
-0.000389779
-0.000478836
-0.000410914
-0.00045533
-0.000424588
-0.000417979
-0.000426695
-0.000365675
-0.000412734
-0.000300028
-0.000378864
-0.000226425
-0.000323645
-0.000154039
-0.000250323
-9.30701e-05
-0.000168551
-4.97614e-05
-9.23649e-05
-2.33496e-05
-3.32257e-05
-8.96171e-06
6.16835e-06
-1.95521e-06
2.93857e-05
7.64681e-07
4.03706e-05
1.15747e-06
4.12881e-05
5.50799e-07
3.27259e-05
1.43605e-05
-5.59152e-06
-3.82025e-06
-1.8781e-05
7.49205e-06
-3.76487e-05
3.28938e-05
-6.15227e-05
6.76628e-05
-9.01689e-05
0.000107737
-0.000123363
0.000150608
-0.00016049
0.000194793
-0.000200257
0.000238586
-0.000240731
0.000279525
-0.00027975
0.00031484
-0.000315437
0.000342293
-0.000346513
0.000360711
-0.00037234
0.000370024
-0.000392808
0.000370957
-0.00040821
0.0003647
-0.000419129
0.000352667
-0.000426336
0.00033631
-0.000430667
0.000316962
-0.000432926
0.000295737
-0.000433814
0.000273487
-0.000433889
0.000250804
-0.000433561
0.00022806
-0.000433099
0.000205457
-0.000432666
0.000183073
-0.000432339
0.000160915
-0.000432141
0.000138945
-0.000432065
0.000117109
-0.000432089
9.53444e-05
-0.000432189
7.35941e-05
-0.000432346
5.18075e-05
-0.000432547
2.9943e-05
-0.000432777
7.97061e-06
-0.000433058
-1.41721e-05
-0.000433416
-3.64978e-05
-0.000433882
-5.90241e-05
-0.00043451
-8.1776e-05
-0.000435371
-0.000104774
-0.000436555
-0.000128041
-0.000438172
-0.000151605
-0.000440353
-0.000175507
-0.00044324
-0.000199805
-0.000446969
-0.000224586
-0.000451633
-0.000249961
-0.000457222
-0.000276052
-0.000463517
-0.000302957
-0.000469962
-0.000330661
-0.000475491
-0.000358893
-0.000478361
-0.000386909
-0.000476061
-0.000413214
-0.00046538
-0.00043527
-0.000442767
-0.000449308
-0.000405101
-0.000450399
-0.000350939
-0.000433027
-0.000282127
-0.000392457
-0.000205304
-0.000327147
-0.000131782
-0.000242072
-7.33191e-05
-0.000150828
-3.51267e-05
-7.1418e-05
-1.38559e-05
-1.51024e-05
-3.4001e-06
1.89299e-05
7.94312e-07
3.61762e-05
1.57121e-06
4.05112e-05
8.02819e-07
3.34943e-05
1.51633e-05
-7.66944e-06
3.8492e-06
-2.41649e-05
2.39875e-05
-4.6422e-05
5.51509e-05
-7.34005e-05
9.46413e-05
-0.000104718
0.000139054
-0.000139879
0.000185769
-0.000177884
0.000232798
-0.000217085
0.000277787
-0.000255423
0.000317862
-0.000290911
0.000350329
-0.000322055
0.000373437
-0.000348019
0.000386675
-0.000368569
0.000390575
-0.000383938
0.000386327
-0.000394704
0.000375465
-0.000401666
0.000359629
-0.000405716
0.00034036
-0.000407719
0.000318965
-0.000408423
0.000296441
-0.000408416
0.00027348
-0.000408117
0.000250504
-0.00040779
0.000227733
-0.000407577
0.000205244
-0.000407534
0.00018303
-0.000407663
0.000161044
-0.000407936
0.000139219
-0.000408315
0.000117488
-0.000408762
9.57907e-05
-0.000409244
7.40769e-05
-0.000409742
5.23048e-05
-0.00041024
3.0441e-05
-0.000410727
8.45829e-06
-0.000411222
-1.3677e-05
-0.000411742
-3.59782e-05
-0.000412309
-5.84575e-05
-0.000412958
-8.11264e-05
-0.000413739
-0.000103993
-0.000414715
-0.000127065
-0.000415969
-0.000150352
-0.000417606
-0.00017387
-0.000419758
-0.000197654
-0.00042258
-0.000221764
-0.000426238
-0.000246302
-0.00043088
-0.000271411
-0.000436561
-0.000297276
-0.000443144
-0.000324079
-0.000450131
-0.000351905
-0.000456475
-0.000380565
-0.000460361
-0.000409328
-0.000459077
-0.000436554
-0.000449068
-0.000459317
-0.000426323
-0.000473143
-0.000387268
-0.000472082
-0.000330285
-0.00044944
-0.000257812
-0.00039962
-0.000178369
-0.000321515
-0.000105888
-0.000223309
-5.29405e-05
-0.000124365
-2.1823e-05
-4.622e-05
-6.21837e-06
3.32526e-06
2.96658e-07
2.96612e-05
1.83142e-06
3.89765e-05
1.02883e-06
3.42969e-05
1.61921e-05
-9.63244e-06
1.34816e-05
-2.91279e-05
4.3483e-05
-5.4245e-05
8.02679e-05
-8.36498e-05
0.000124046
-0.000116778
0.000172182
-0.000152859
0.00022185
-0.000190576
0.000270516
-0.000228093
0.000315304
-0.000263411
0.000353181
-0.000294848
0.000381765
-0.000321323
0.000399912
-0.000342412
0.000407765
-0.000358238
0.0004064
-0.000369323
0.000397412
-0.000376465
0.000382608
-0.000380593
0.000363756
-0.000382622
0.00034239
-0.000383355
0.000319698
-0.000383417
0.000296504
-0.000383248
0.000273311
-0.000383114
0.000250371
-0.00038315
0.000227768
-0.000383396
0.00020549
-0.000383838
0.000183473
-0.000384435
0.000161641
-0.000385137
0.000139921
-0.000385899
0.00011825
-0.000386684
9.65758e-05
-0.000387467
7.48595e-05
-0.000388231
5.30694e-05
-0.000388971
3.11801e-05
-0.000389682
9.16974e-06
-0.000390378
-1.29806e-05
-0.000391074
-3.52829e-05
-0.000391785
-5.77463e-05
-0.000392535
-8.03764e-05
-0.000393353
-0.000103175
-0.000394278
-0.00012614
-0.00039536
-0.00014927
-0.000396667
-0.000172563
-0.000398293
-0.000196028
-0.000400363
-0.000219694
-0.000403041
-0.000243624
-0.000406519
-0.000267933
-0.000410989
-0.000292806
-0.000416579
-0.00031849
-0.000423224
-0.00034526
-0.000430481
-0.000373308
-0.000437291
-0.000402519
-0.000441714
-0.00043213
-0.000440775
-0.000460256
-0.000430518
-0.0004834
-0.000406472
-0.000496129
-0.000364714
-0.000491197
-0.000303759
-0.000460575
-0.000227238
-0.000398036
-0.000146486
-0.000304062
-7.8327e-05
-0.000192524
-3.4123e-05
-9.04239e-05
-1.11732e-05
-1.96246e-05
-1.16575e-06
1.96537e-05
1.71725e-06
3.60935e-05
1.1618e-06
3.48523e-05
1.73539e-05
-1.13638e-05
2.48455e-05
-3.3338e-05
6.54571e-05
-6.06718e-05
0.000107602
-9.17415e-05
0.000155116
-0.000125795
0.000206236
-0.00016182
0.000257875
-0.000198289
0.000306985
-0.000233328
0.000350343
-0.000265141
0.000384994
-0.000292397
0.00040902
-0.000314419
0.000421934
-0.000331149
0.000424495
-0.000343005
0.000418256
-0.000350738
0.000405144
-0.00035528
0.00038715
-0.000357593
0.000366069
-0.000358533
0.00034333
-0.000358777
0.000319941
-0.000358797
0.000296524
-0.000358878
0.000273392
-0.000359156
0.000250649
-0.000359665
0.000228278
-0.000360382
0.000206206
-0.000361255
0.000184346
-0.000362228
0.000162614
-0.000363252
0.000140944
-0.000364287
0.000119285
-0.000365308
9.75968e-05
-0.0003663
7.58513e-05
-0.000367256
5.40257e-05
-0.000368177
3.21012e-05
-0.000369068
1.0061e-05
-0.000369941
-1.21081e-05
-0.000370807
-3.44168e-05
-0.00037168
-5.6873e-05
-0.000372576
-7.94809e-05
-0.00037351
-0.000102241
-0.000374503
-0.000125148
-0.000375579
-0.000148194
-0.000376773
-0.000171369
-0.000378137
-0.000194664
-0.000379749
-0.000218081
-0.000381727
-0.000241646
-0.000384237
-0.000265424
-0.000387493
-0.00028955
-0.000391734
-0.000314248
-0.000397154
-0.000339841
-0.000403757
-0.000366705
-0.000411135
-0.000395141
-0.000418172
-0.000425093
-0.000422735
-0.000455693
-0.000421484
-0.000484651
-0.000409981
-0.000507632
-0.000383289
-0.000517889
-0.00033732
-0.000506544
-0.000271209
-0.000464147
-0.00019078
-0.000384491
-0.000111345
-0.00027196
-5.19077e-05
-0.000149861
-1.88341e-05
-5.26982e-05
-3.89836e-06
4.71803e-06
1.09792e-06
3.10972e-05
1.16758e-06
3.47827e-05
1.85215e-05
-1.27132e-05
3.75587e-05
-3.65422e-05
8.92862e-05
-6.53853e-05
0.000136445
-9.73441e-05
0.000187075
-0.00013149
0.000240382
-0.000166628
0.000293013
-0.000201132
0.000341489
-0.00023322
0.000382432
-0.000261365
0.000413139
-0.000284601
0.000432257
-0.000302617
0.00043995
-0.000315659
0.000437537
-0.000324378
0.000426974
-0.000329671
0.000410437
-0.00033252
0.00039
-0.000333839
0.000367387
-0.000334364
0.000343855
-0.000334619
0.000320197
-0.000334922
0.000296827
-0.000335424
0.000273894
-0.000336163
0.000251388
-0.000337112
0.000229227
-0.000338214
0.000207308
-0.000339408
0.00018554
-0.000340642
0.000163848
-0.000341877
0.000142179
-0.000343087
0.000120495
-0.000344259
9.87689e-05
-0.000345389
7.69814e-05
-0.000346479
5.51159e-05
-0.000347536
3.31581e-05
-0.00034857
1.10945e-05
-0.000349591
-1.10867e-05
-0.000350612
-3.33956e-05
-0.000351645
-5.58406e-05
-0.000352699
-7.84267e-05
-0.000353784
-0.000101155
-0.000354909
-0.000124023
-0.000356081
-0.000147022
-0.000357312
-0.000170138
-0.000358621
-0.000193355
-0.000360043
-0.00021666
-0.000361642
-0.000240047
-0.000363527
-0.000263538
-0.000365869
-0.000287207
-0.000368907
-0.000311211
-0.000372924
-0.000335823
-0.000378177
-0.000361452
-0.000384726
-0.000388592
-0.000392164
-0.000417655
-0.000399255
-0.000448601
-0.000403564
-0.000480342
-0.000401264
-0.000509932
-0.000387342
-0.000531811
-0.000356439
-0.000537447
-0.000304614
-0.000515972
-0.00023242
-0.000456684
-0.000149436
-0.000354944
-7.59601e-05
-0.000223337
-2.97303e-05
-9.8928e-05
-8.07332e-06
-1.6939e-05
-8.91153e-08
2.3113e-05
1.04501e-06
3.36485e-05
1.95665e-05
-1.35876e-05
5.11463e-05
-3.8584e-05
0.000114283
-6.82164e-05
0.000166077
-0.000100327
0.000219185
-0.000133836
0.000273891
-0.000167434
0.000326611
-0.000199501
0.000373555
-0.00022843
0.000411361
-0.00025299
0.000437699
-0.000272561
0.000451828
-0.000287142
0.000454531
-0.000297218
0.000447614
-0.000303601
0.000433357
-0.000307257
0.000414093
-0.00030914
0.000391883
-0.000310056
0.000368303
-0.000310596
0.000344395
-0.000311129
0.00032073
-0.00031184
0.000297538
-0.00031278
0.000274834