/*--------------------------------*- C++ -*----------------------------------*\
| =========                 |                                                 |
| \\      /  F ield         | OpenFOAM: The Open Source CFD Toolbox           |
|  \\    /   O peration     | Version:  2406                                  |
|   \\  /    A nd           | Website:  www.openfoam.com                      |
|    \\/     M anipulation  |                                                 |
\*---------------------------------------------------------------------------*/
FoamFile
{
    version     2.0;
    format      ascii;
    arch        "LSB;label=32;scalar=64";
    class       volVectorField;
    location    "38.4";
    object      dU;
}
// * * * * * * * * * * * * * * * * * * * * * * * * * * * * * * * * * * * * * //

dimensions      [0 1 -1 0 0 0 0];

internalField   nonuniform List<vector> 
900
(
(1.36593e-05 -2.5055e-06 0)
(-8.6442e-06 -6.67407e-06 0)
(-4.16509e-05 -5.74279e-06 0)
(-4.73899e-05 -1.26573e-06 0)
(-5.30667e-05 5.14733e-06 0)
(-6.056e-05 1.26317e-05 0)
(-8.35545e-05 1.92099e-05 0)
(-0.000128622 2.69471e-05 0)
(-0.000191166 6.17912e-05 0)
(-0.00021276 0.000112906 0)
(-0.000160621 0.000108599 0)
(-6.9784e-05 4.4454e-05 0)
(-5.01779e-06 -2.75012e-05 0)
(2.69543e-05 -8.48405e-05 0)
(9.14606e-05 -0.000124935 0)
(0.000226992 -0.000152496 0)
(0.000424582 -0.000174104 0)
(0.000635886 -0.000193583 0)
(0.000810871 -0.000212224 0)
(0.000865002 -0.000228606 0)
(0.000757067 -0.000237875 0)
(0.000430889 -0.000238862 0)
(-2.58596e-05 -0.000227202 0)
(-0.000485251 -0.000210097 0)
(-0.000674441 -0.000187036 0)
(-0.000538448 -0.000150781 0)
(-0.000248588 -0.000102469 0)
(-7.16833e-05 -3.72129e-05 0)
(-2.09059e-05 -1.70045e-06 0)
(3.04778e-05 1.2913e-05 0)
(9.48546e-06 6.54085e-06 0)
(-1.3378e-05 -4.42561e-06 0)
(-3.86356e-05 -1.0352e-05 0)
(-3.84094e-05 -9.20934e-06 0)
(-4.10169e-05 9.03461e-07 0)
(-4.8543e-05 1.27953e-05 0)
(-7.19958e-05 2.95244e-05 0)
(-9.0675e-05 4.49352e-05 0)
(-0.000114069 3.30117e-05 0)
(-0.000182339 -1.44823e-05 0)
(-0.000250358 -0.000102848 0)
(-0.000222139 -0.000243712 0)
(-0.000141803 -0.000407184 0)
(-7.39252e-05 -0.000547233 0)
(2.06783e-05 -0.000640913 0)
(0.000174486 -0.000698609 0)
(0.000379683 -0.000737828 0)
(0.000593437 -0.000769393 0)
(0.00077098 -0.000796661 0)
(0.000834078 -0.000811168 0)
(0.000741297 -0.000796542 0)
(0.00043603 -0.00074258 0)
(-2.08986e-06 -0.000634877 0)
(-0.000449012 -0.000508699 0)
(-0.000615797 -0.000381457 0)
(-0.000450857 -0.000293125 0)
(-0.000131575 -0.000232656 0)
(3.12523e-05 -0.000143632 0)
(2.9942e-05 -9.93218e-05 0)
(4.51283e-05 -8.24928e-05 0)
(3.6554e-06 3.78303e-05 0)
(-2.65678e-05 1.86086e-05 0)
(-4.95332e-05 6.16407e-06 0)
(-3.88515e-05 1.7079e-06 0)
(-3.48112e-05 1.14997e-05 0)
(-3.81027e-05 1.61973e-05 0)
(-6.22203e-05 -4.75163e-06 0)
(-0.000145044 -7.84515e-05 0)
(-0.000279515 -0.000217254 0)
(-0.000377115 -0.000417042 0)
(-0.000411146 -0.000614528 0)
(-0.000387972 -0.000794375 0)
(-0.000316966 -0.000973482 0)
(-0.000212971 -0.00112516 0)
(-6.63154e-05 -0.00123081 0)
(0.000122423 -0.00130368 0)
(0.000344002 -0.00136472 0)
(0.000565007 -0.00142232 0)
(0.000754703 -0.00147889 0)
(0.000848769 -0.00151056 0)
(0.000807688 -0.0014897 0)
(0.000573622 -0.00137573 0)
(0.00018955 -0.00113974 0)
(-0.000246773 -0.000819898 0)
(-0.000463554 -0.000459917 0)
(-0.000382466 -0.000242295 0)
(-8.97424e-05 -0.000123257 0)
(6.64834e-05 -0.000122814 0)
(4.22135e-05 -0.000139619 0)
(4.76322e-05 -0.000145497 0)
(-8.3607e-06 7.10842e-05 0)
(-4.45115e-05 3.93983e-05 0)
(-5.69223e-05 2.63401e-05 0)
(-3.56802e-05 1.57756e-05 0)
(-3.36501e-05 8.22429e-06 0)
(-8.02364e-05 -4.2187e-05 0)
(-0.000191376 -0.000160639 0)
(-0.000330118 -0.000369343 0)
(-0.000472326 -0.000613111 0)
(-0.000589405 -0.000847771 0)
(-0.000631246 -0.00105743 0)
(-0.00058239 -0.00123023 0)
(-0.000473624 -0.00136727 0)
(-0.000333453 -0.00146983 0)
(-0.000162123 -0.00154756 0)
(3.38261e-05 -0.00161517 0)
(0.000251544 -0.00169223 0)
(0.000466948 -0.00177989 0)
(0.000667339 -0.00188238 0)
(0.000804769 -0.00196478 0)
(0.000854498 -0.00200117 0)
(0.000761555 -0.0019173 0)
(0.000527229 -0.00167497 0)
(0.000205706 -0.00125444 0)
(-5.26082e-05 -0.000714592 0)
(-0.000109117 -0.000280926 0)
(4.77184e-06 -2.53851e-05 0)
(2.41801e-05 -1.0073e-05 0)
(1.06524e-05 -0.000103935 0)
(3.98035e-05 -0.000122725 0)
(-2.76826e-05 0.000137773 0)
(-7.17417e-05 9.99255e-05 0)
(-7.53274e-05 8.74519e-05 0)
(-6.32203e-05 4.9682e-05 0)
(-0.000107844 -1.93489e-05 0)
(-0.000230213 -0.000173676 0)
(-0.000412455 -0.000406263 0)
(-0.000611162 -0.000690004 0)
(-0.000760856 -0.000970526 0)
(-0.000819441 -0.00119589 0)
(-0.000790641 -0.00134408 0)
(-0.000695478 -0.00143506 0)
(-0.000555867 -0.00149361 0)
(-0.000394589 -0.00153175 0)
(-0.000215058 -0.00156484 0)
(-2.74463e-05 -0.00160313 0)
(0.000172503 -0.00166489 0)
(0.000366533 -0.00174635 0)
(0.000559702 -0.0018587 0)
(0.000717533 -0.00196765 0)
(0.000839816 -0.00206541 0)
(0.000880822 -0.002069 0)
(0.000829201 -0.00195098 0)
(0.00068693 -0.00162264 0)
(0.000485611 -0.00112459 0)
(0.00029842 -0.000576985 0)
(0.000196356 -0.000184444 0)
(5.414e-06 1.6453e-05 0)
(-6.46389e-05 -0.000135279 0)
(2.98172e-05 -0.000122647 0)
(-4.66162e-05 0.000199783 0)
(-9.62911e-05 0.000162425 0)
(-0.000111309 0.000143546 0)
(-0.000153113 5.87289e-05 0)
(-0.000275165 -9.36612e-05 0)
(-0.000485885 -0.000345784 0)
(-0.000717738 -0.000650547 0)
(-0.00089383 -0.000944469 0)
(-0.000972575 -0.00115991 0)
(-0.000957363 -0.00128894 0)
(-0.000866527 -0.00134745 0)
(-0.000730559 -0.00135965 0)
(-0.000571334 -0.00135277 0)
(-0.000407654 -0.00134111 0)
(-0.000238077 -0.00134116 0)
(-7.20113e-05 -0.00135529 0)
(0.000101591 -0.00139871 0)
(0.000265599 -0.00146143 0)
(0.000437821 -0.00156014 0)
(0.00058888 -0.0016644 0)
(0.000742723 -0.00178872 0)
(0.000863301 -0.00186194 0)
(0.000957826 -0.00188766 0)
(0.00101194 -0.0017461 0)
(0.000968223 -0.00145552 0)
(0.000809539 -0.00101448 0)
(0.000595357 -0.000460968 0)
(9.13491e-05 -0.000260406 0)
(-0.000120562 -5.49442e-05 0)
(5.32463e-05 -0.000187497 0)
(-6.61212e-05 0.000226369 0)
(-0.000130923 0.000192545 0)
(-0.000185544 0.000149002 0)
(-0.000312827 5.5607e-06 0)
(-0.000527429 -0.000224181 0)
(-0.00079648 -0.00053211 0)
(-0.00101022 -0.000829726 0)
(-0.00111338 -0.00105495 0)
(-0.00109878 -0.00118098 0)
(-0.00100363 -0.00122371 0)
(-0.000861283 -0.00121241 0)
(-0.00070376 -0.00117677 0)
(-0.000542109 -0.00114184 0)
(-0.000388769 -0.00111499 0)
(-0.000235383 -0.00110856 0)
(-9.1314e-05 -0.00111609 0)
(5.98291e-05 -0.00115021 0)
(0.000198056 -0.00119436 0)
(0.000349172 -0.00126835 0)
(0.00048084 -0.00134199 0)
(0.000634069 -0.00144565 0)
(0.000773189 -0.00152322 0)
(0.000935646 -0.00161394 0)
(0.00110764 -0.00160695 0)
(0.00120211 -0.00154804 0)
(0.0012727 -0.00129682 0)
(0.000930668 -0.000842574 0)
(0.000415403 -0.000613679 0)
(1.87201e-05 8.10592e-05 0)
(-0.000100773 -0.000341282 0)
(-8.23511e-05 0.000159882 0)
(-0.000178501 0.000131136 0)
(-0.000306751 6.06439e-05 0)
(-0.000538491 -0.000122694 0)
(-0.000823197 -0.000385607 0)
(-0.00109319 -0.000678579 0)
(-0.00123436 -0.000909675 0)
(-0.00123824 -0.00104161 0)
(-0.00113857 -0.00108052 0)
(-0.000989829 -0.00106104 0)
(-0.000823302 -0.00101543 0)
(-0.000664842 -0.00096702 0)
(-0.000513787 -0.000933426 0)
(-0.00037723 -0.000913971 0)
(-0.000240367 -0.000917525 0)
(-0.000113847 -0.000930971 0)
(2.32348e-05 -0.000967017 0)
(0.000146255 -0.00100363 0)
(0.000287143 -0.00106369 0)
(0.000406227 -0.00111335 0)
(0.000554476 -0.00119114 0)
(0.00068689 -0.00124613 0)
(0.000866138 -0.00133895 0)
(0.00106984 -0.00138036 0)
(0.00127068 -0.00145294 0)
(0.00150684 -0.00135334 0)
(0.00126361 -0.00120909 0)
(0.0010003 -0.00073531 0)
(0.000154941 -0.000297432 0)
(-0.000362596 -0.000332573 0)
(-9.77841e-05 -2.46268e-06 0)
(-0.000237414 -2.63693e-05 0)
(-0.000449678 -0.000115938 0)
(-0.000770248 -0.000301225 0)
(-0.00108924 -0.000540377 0)
(-0.0013178 -0.000763894 0)
(-0.00136665 -0.000902208 0)
(-0.00128081 -0.000947928 0)
(-0.00111914 -0.000927909 0)
(-0.000941389 -0.000877049 0)
(-0.00076978 -0.000823338 0)
(-0.000621528 -0.000780466 0)
(-0.000484675 -0.000758853 0)
(-0.000364389 -0.000751104 0)
(-0.000240663 -0.00076481 0)
(-0.000127628 -0.00078269 0)
(4.16245e-08 -0.000819862 0)
(0.000112048 -0.000850378 0)
(0.000246574 -0.000901307 0)
(0.000355968 -0.000934816 0)
(0.000499378 -0.00099467 0)
(0.000619646 -0.00102887 0)
(0.000793353 -0.0011064 0)
(0.00098446 -0.00115232 0)
(0.00122113 -0.00126432 0)
(0.00151356 -0.00127728 0)
(0.0015445 -0.00130641 0)
(0.00131268 -0.000875332 0)
(0.000416078 -0.00064298 0)
(-0.000130993 9.22093e-06 0)
(-0.000110029 -0.000206841 0)
(-0.000301202 -0.000222683 0)
(-0.000593019 -0.000311495 0)
(-0.000972809 -0.000465535 0)
(-0.00128887 -0.000645544 0)
(-0.00145093 -0.000781822 0)
(-0.00141375 -0.000835401 0)
(-0.00126339 -0.000819036 0)
(-0.00106929 -0.000766743 0)
(-0.000885191 -0.000706591 0)
(-0.000722043 -0.000659519 0)
(-0.000588905 -0.000628916 0)
(-0.000466126 -0.000621198 0)
(-0.000359489 -0.000623922 0)
(-0.000245029 -0.000646019 0)
(-0.000141335 -0.000666933 0)
(-1.84372e-05 -0.000705578 0)
(8.73573e-05 -0.000731998 0)
(0.000220387 -0.000777916 0)
(0.000324721 -0.000800712 0)
(0.000466063 -0.00084864 0)
(0.000575164 -0.000866099 0)
(0.000737953 -0.000925333 0)
(0.000903875 -0.000956631 0)
(0.00113575 -0.00106279 0)
(0.00145814 -0.00111552 0)
(0.00166615 -0.00119915 0)
(0.00166299 -0.000970948 0)
(0.00103225 -0.00048684 0)
(0.000284105 0.000183762 0)
(-0.000118207 -0.000399076 0)
(-0.000353116 -0.000404517 0)
(-0.000704955 -0.000477113 0)
(-0.00111329 -0.000578118 0)
(-0.00140701 -0.000684424 0)
(-0.00150372 -0.000737328 0)
(-0.00140092 -0.000726884 0)
(-0.00121195 -0.000673263 0)
(-0.00100491 -0.000609165 0)
(-0.00082639 -0.000551951 0)
(-0.000675714 -0.000516644 0)
(-0.000557481 -0.000497548 0)
(-0.000446339 -0.000500591 0)
(-0.000351009 -0.000509174 0)
(-0.000243621 -0.000535599 0)
(-0.000148064 -0.000556211 0)
(-2.89855e-05 -0.000594756 0)
(7.11297e-05 -0.000617391 0)
(0.000203447 -0.000661085 0)
(0.000304368 -0.000678511 0)
(0.000445921 -0.00072233 0)
(0.000548268 -0.000732166 0)
(0.000702084 -0.000781096 0)
(0.000841706 -0.000800441 0)
(0.00105343 -0.000893229 0)
(0.00136832 -0.000961744 0)
(0.00168667 -0.00111266 0)
(0.00202837 -0.0010694 0)
(0.00156426 -0.000745586 0)
(0.000529428 -0.000362448 0)
(-0.000120769 -0.00052336 0)
(-0.000391724 -0.000517975 0)
(-0.000779671 -0.000567859 0)
(-0.00118848 -0.000616753 0)
(-0.00144882 -0.000658937 0)
(-0.00148984 -0.000651263 0)
(-0.0013471 -0.000603204 0)
(-0.00114295 -0.000534321 0)
(-0.000939365 -0.00047214 0)
(-0.000774168 -0.000424048 0)
(-0.00063814 -0.00040114 0)
(-0.000533679 -0.000390774 0)
(-0.000432171 -0.000401064 0)
(-0.000345929 -0.000411535 0)
(-0.000243611 -0.000439302 0)
(-0.000154492 -0.000456923 0)
(-3.78245e-05 -0.000493613 0)
(5.76964e-05 -0.000511042 0)
(0.000189797 -0.000551742 0)
(0.000287675 -0.000563738 0)
(0.000429267 -0.000604547 0)
(0.000526338 -0.000609938 0)
(0.000672713 -0.00065442 0)
(0.000789103 -0.000667361 0)
(0.000967335 -0.000749299 0)
(0.00122964 -0.000822193 0)
(0.00155379 -0.00101796 0)
(0.0020398 -0.00114249 0)
(0.00173974 -0.00121343 0)
(0.000658672 -0.00108063 0)
(-0.000118731 -0.000568601 0)
(-0.0004112 -0.000552587 0)
(-0.000817427 -0.000579516 0)
(-0.00121269 -0.000582981 0)
(-0.0014422 -0.00057709 0)
(-0.00144445 -0.000530472 0)
(-0.00127974 -0.000465983 0)
(-0.0010729 -0.000395504 0)
(-0.000877036 -0.000342766 0)
(-0.000725706 -0.000305482 0)
(-0.000601687 -0.000293878 0)
(-0.000508719 -0.000289501 0)
(-0.000414529 -0.000304471 0)
(-0.000336064 -0.000314373 0)
(-0.000237733 -0.00034197 0)
(-0.000154413 -0.000355489 0)
(-3.95901e-05 -0.000389965 0)
(5.18106e-05 -0.00040218 0)
(0.00018377 -0.000440255 0)
(0.000278777 -0.000447554 0)
(0.000419775 -0.000485898 0)
(0.000511596 -0.000487907 0)
(0.000650871 -0.000529654 0)
(0.000747118 -0.000538853 0)
(0.000893697 -0.000613203 0)
(0.00109049 -0.000679527 0)
(0.00135738 -0.000881102 0)
(0.00184116 -0.00107567 0)
(0.00163604 -0.00136327 0)
(0.000660848 -0.00140366 0)
(-0.000111321 -0.000537049 0)
(-0.000417319 -0.000513799 0)
(-0.000824389 -0.000522365 0)
(-0.0011945 -0.000495944 0)
(-0.00139671 -0.000460659 0)
(-0.00137415 -0.000396754 0)
(-0.0012047 -0.000331725 0)
(-0.00100534 -0.000269984 0)
(-0.000822916 -0.000231202 0)
(-0.000686318 -0.000205519 0)
(-0.000573895 -0.000204014 0)
(-0.000491159 -0.000203327 0)
(-0.000403234 -0.000221007 0)
(-0.000331385 -0.000228155 0)
(-0.000235929 -0.000254124 0)
(-0.000157066 -0.000261785 0)
(-4.28118e-05 -0.000292653 0)
(4.59462e-05 -0.000297982 0)
(0.000178517 -0.000331758 0)
(0.000271442 -0.000332851 0)
(0.000411527 -0.000367049 0)
(0.000498093 -0.000364269 0)
(0.00062992 -0.000402101 0)
(0.000707678 -0.000406282 0)
(0.000823972 -0.000472691 0)
(0.000953926 -0.000526312 0)
(0.00114718 -0.000711816 0)
(0.00156111 -0.00091336 0)
(0.0014223 -0.00128221 0)
(0.000619539 -0.0013951 0)
(-0.000102588 -0.000451538 0)
(-0.00041193 -0.000421234 0)
(-0.000814513 -0.000415587 0)
(-0.00116 -0.000368541 0)
(-0.00134349 -0.000318422 0)
(-0.00130967 -0.000248884 0)
(-0.00114152 -0.000192815 0)
(-0.000951033 -0.000143324 0)
(-0.00077801 -0.000120237 0)
(-0.000652888 -0.000105249 0)
(-0.000548202 -0.000112866 0)
(-0.000473856 -0.000114525 0)
(-0.000390387 -0.000134106 0)
(-0.00032415 -0.000137755 0)
(-0.000230468 -0.000161626 0)
(-0.00015491 -0.000162834 0)
(-4.00878e-05 -0.000189434 0)
(4.76325e-05 -0.000187308 0)
(0.000181786 -0.000215862 0)
(0.000273711 -0.000210204 0)
(0.000412843 -0.000239111 0)
(0.000493841 -0.00023059 0)
(0.000618369 -0.000263182 0)
(0.000679583 -0.00026069 0)
(0.000772072 -0.000319364 0)
(0.000844284 -0.000354996 0)
(0.000959951 -0.000513475 0)
(0.00127192 -0.000680714 0)
(0.00116484 -0.00104422 0)
(0.000551147 -0.0011792 0)
(-8.87746e-05 -0.000340646 0)
(-0.000397731 -0.000305539 0)
(-0.000787464 -0.000286453 0)
(-0.00110719 -0.000228134 0)
(-0.00127755 -0.000169923 0)
(-0.00124079 -0.000103687 0)
(-0.0010832 -6.03192e-05 0)
(-0.00090506 -2.62375e-05 0)
(-0.000744333 -1.96626e-05 0)
(-0.000630272 -1.52907e-05 0)
(-0.000533355 -3.18462e-05 0)
(-0.00046659 -3.48746e-05 0)
(-0.000387105 -5.59534e-05 0)
(-0.000325623 -5.48744e-05 0)
(-0.000232811 -7.59417e-05 0)
(-0.000159055 -6.93572e-05 0)
(-4.22738e-05 -9.04581e-05 0)
(4.64947e-05 -7.94054e-05 0)
(0.000183777 -0.000100991 0)
(0.000276631 -8.70147e-05 0)
(0.000415907 -0.00010862 0)
(0.000492011 -9.22671e-05 0)
(0.00060984 -0.000116947 0)
(0.000654774 -0.000104205 0)
(0.000729074 -0.000152933 0)
(0.000754367 -0.000167606 0)
(0.000812592 -0.000299086 0)
(0.00102896 -0.000415088 0)
(0.000932318 -0.000737982 0)
(0.000488726 -0.000855327 0)
(-7.57772e-05 -0.000224587 0)
(-0.000374706 -0.000181724 0)
(-0.000753747 -0.000148735 0)
(-0.00105465 -7.83871e-05 0)
(-0.0012202 -1.66702e-05 0)
(-0.00119115 4.7499e-05 0)
(-0.00104444 7.70255e-05 0)
(-0.000877442 9.78787e-05 0)
(-0.000722156 8.80404e-05 0)
(-0.000615423 8.26685e-05 0)
(-0.000522104 5.69281e-05 0)
(-0.000461501 5.2412e-05 0)
(-0.000384589 2.95874e-05 0)
(-0.000327103 3.52726e-05 0)
(-0.000234297 1.73886e-05 0)
(-0.000160913 3.19845e-05 0)
(-4.1006e-05 1.74419e-05 0)
(5.08168e-05 3.79789e-05 0)
(0.000192687 2.47963e-05 0)
(0.000288462 4.76773e-05 0)
(0.000429495 3.44605e-05 0)
(0.000502044 5.92438e-05 0)
(0.000615432 4.31503e-05 0)
(0.000645695 6.78864e-05 0)
(0.000707662 2.96092e-05 0)
(0.000693336 3.78441e-05 0)
(0.000705584 -7.07457e-05 0)
(0.000831002 -0.000133638 0)
(0.000732122 -0.000411997 0)
(0.000438869 -0.00049585 0)
(-5.4855e-05 -0.000130842 0)
(-0.00033979 -8.065e-05 0)
(-0.000702055 -2.73082e-05 0)
(-0.000988201 5.44158e-05 0)
(-0.00115413 0.000126552 0)
(-0.00113739 0.000189477 0)
(-0.00101004 0.000210142 0)
(-0.000856839 0.00021848 0)
(-0.000711706 0.000193039 0)
(-0.000612517 0.000177934 0)
(-0.000523861 0.00014189 0)
(-0.000468659 0.000135636 0)
(-0.000393965 0.000109904 0)
(-0.000339281 0.000120245 0)
(-0.00024562 0.000105067 0)
(-0.00017111 0.000128015 0)
(-4.69889e-05 0.000120143 0)
(4.96039e-05 0.000150531 0)
(0.000197434 0.000146254 0)
(0.000297857 0.00017869 0)
(0.000442533 0.0001747 0)
(0.000512864 0.000209277 0)
(0.000624493 0.000202994 0)
(0.000640884 0.000242185 0)
(0.00069692 0.000215691 0)
(0.000649837 0.000248732 0)
(0.000636085 0.000157854 0)
(0.000684624 0.00014751 0)
(0.000575823 -9.3652e-05 0)
(0.000410368 -0.000133094 0)
(-3.49105e-05 -5.28766e-05 0)
(-0.000289503 8.64416e-06 0)
(-0.000637849 8.11367e-05 0)
(-0.000916227 0.000183104 0)
(-0.00108995 0.000264863 0)
(-0.0010988 0.000336777 0)
(-0.000991534 0.000351065 0)
(-0.000855002 0.000352732 0)
(-0.000713012 0.000312261 0)
(-0.000618301 0.000287595 0)
(-0.000529399 0.000239659 0)
(-0.000478006 0.000229489 0)
(-0.000404223 0.000199321 0)
(-0.000351774 0.000212272 0)
(-0.000256998 0.00019939 0)
(-0.00018034 0.000229309 0)
(-5.14722e-05 0.000228615 0)
(5.14684e-05 0.000268071 0)
(0.000206403 0.000273615 0)
(0.000313385 0.000315624 0)
(0.000464137 0.000321805 0)
(0.000534754 0.000366941 0)
(0.000648863 0.000371241 0)
(0.000653733 0.000426092 0)
(0.000709252 0.000412081 0)
(0.000630804 0.000470284 0)
(0.000601274 0.000392086 0)
(0.000576791 0.000428439 0)
(0.000456549 0.000207628 0)
(0.000405625 0.000217008 0)
(-2.74735e-06 -5.28801e-06 0)
(-0.000224578 6.17038e-05 0)
(-0.000548353 0.000154622 0)
(-0.000822869 0.000275832 0)
(-0.0010088 0.000383609 0)
(-0.00104473 0.000469812 0)
(-0.000970583 0.000490724 0)
(-0.000854938 0.000489887 0)
(-0.000725581 0.000437045 0)
(-0.000636515 0.000402656 0)
(-0.00054945 0.000339925 0)
(-0.00050025 0.000323582 0)
(-0.000426589 0.000285029 0)
(-0.000374297 0.000298481 0)
(-0.000277202 0.000284577 0)
(-0.000196673 0.000319776 0)
(-6.21164e-05 0.000323277 0)
(4.80986e-05 0.000370377 0)
(0.000210981 0.000382954 0)
(0.000325188 0.00043381 0)
(0.000483954 0.000448268 0)
(0.000556239 0.000504524 0)
(0.000676666 0.000519053 0)
(0.000671737 0.000591013 0)
(0.000732748 0.000590252 0)
(0.000624351 0.000675499 0)
(0.00059287 0.000607624 0)
(0.000497785 0.000691243 0)
(0.000368867 0.000479935 0)
(0.000426914 0.000548914 0)
(2.41935e-05 5.61667e-05 0)
(-0.00014727 0.000125017 0)
(-0.00044552 0.000217615 0)
(-0.000708593 0.000367797 0)
(-0.000908661 0.000493944 0)
(-0.000989661 0.000610215 0)
(-0.000951446 0.000639053 0)
(-0.000870057 0.000644532 0)
(-0.000749273 0.000580291 0)
(-0.000665612 0.000536248 0)
(-0.0005745 0.000456431 0)
(-0.000524726 0.000429443 0)
(-0.000448639 0.000379317 0)
(-0.000395421 0.000387959 0)
(-0.000295811 0.000371051 0)
(-0.000211053 0.000406997 0)
(-7.10594e-05 0.000413959 0)
(4.70037e-05 0.000465375 0)
(0.000218245 0.000485226 0)
(0.000341101 0.000543604 0)
(0.000510214 0.000568069 0)
(0.000587564 0.000636575 0)
(0.000719449 0.000664732 0)
(0.000708768 0.000756072 0)
(0.000781292 0.000772441 0)
(0.00064143 0.00088557 0)
(0.000617635 0.000827721 0)
(0.000448342 0.000955224 0)
(0.000319359 0.000737442 0)
(0.000483373 0.000876896 0)
(6.12919e-05 9.66831e-05 0)
(-7.82275e-05 0.000137116 0)
(-0.000327951 0.000234891 0)
(-0.000571034 0.000399217 0)
(-0.000784317 0.000574141 0)
(-0.000903298 0.000724562 0)
(-0.0009217 0.000784636 0)
(-0.000879411 0.000804389 0)
(-0.000784659 0.000735403 0)
(-0.000709043 0.000682963 0)
(-0.000617675 0.000581891 0)
(-0.000563766 0.000540246 0)
(-0.000483039 0.000470666 0)
(-0.000424454 0.00046962 0)
(-0.000319997 0.000441612 0)
(-0.000228311 0.000474809 0)
(-8.15656e-05 0.000477378 0)
(4.51756e-05 0.000531172 0)
(0.000225822 0.000550491 0)
(0.000357569 0.000615732 0)
(0.000539416 0.000643387 0)
(0.000623735 0.000724244 0)
(0.000771627 0.000761293 0)
(0.000757811 0.000871681 0)
(0.000846742 0.000902723 0)
(0.000672404 0.00104359 0)
(0.000665572 0.000996744 0)
(0.000408755 0.00117344 0)
(0.000297325 0.000954535 0)
(0.000577832 0.00120209 0)
(6.36111e-05 0.000149036 0)
(-1.91487e-05 0.000159111 0)
(-0.000204271 0.000250002 0)
(-0.000395648 0.000441471 0)
(-0.000606271 0.000644715 0)
(-0.000789753 0.000848992 0)
(-0.000864996 0.000933238 0)
(-0.000893294 0.000976765 0)
(-0.000827803 0.000903537 0)
(-0.000769252 0.000844261 0)
(-0.000673628 0.000722248 0)
(-0.000612211 0.000662024 0)
(-0.000521226 0.000571306 0)
(-0.00045388 0.000553343 0)
(-0.000341798 0.00051229 0)
(-0.000242531 0.000534664 0)
(-8.86061e-05 0.000532393 0)
(4.61561e-05 0.000581269 0)
(0.000236103 0.000602276 0)
(0.000377349 0.000669042 0)
(0.000573231 0.000705591 0)
(0.00066848 0.00079652 0)
(0.000836033 0.000851153 0)
(0.000824857 0.000981881 0)
(0.000936017 0.00103826 0)
(0.00072862 0.00121111 0)
(0.000753483 0.00118757 0)
(0.000409455 0.00141808 0)
(0.000356045 0.00119928 0)
(0.000745201 0.00159673 0)
(7.23481e-05 0.000157081 0)
(1.81956e-05 8.86497e-05 0)
(-6.31001e-05 0.000210431 0)
(-0.000202892 0.000388529 0)
(-0.000404448 0.000675882 0)
(-0.000632753 0.000921822 0)
(-0.000796037 0.0010645 0)
(-0.000893126 0.00113789 0)
(-0.000883626 0.00107346 0)
(-0.000846082 0.0010123 0)
(-0.000754783 0.000868655 0)
(-0.000681597 0.000788441 0)
(-0.000577611 0.00066871 0)
(-0.000493261 0.000630036 0)
(-0.000369345 0.000564735 0)
(-0.000256458 0.0005743 0)
(-9.30692e-05 0.000554172 0)
(5.28021e-05 0.000599601 0)
(0.000253738 0.000607124 0)
(0.000406714 0.000679329 0)
(0.000620204 0.00070599 0)
(0.000729714 0.000810033 0)
(0.000923752 0.000858939 0)
(0.000919154 0.00100815 0)
(0.00105987 0.00106682 0)
(0.000816845 0.00126529 0)
(0.000881851 0.00126431 0)
(0.000424982 0.0015519 0)
(0.00048586 0.00140298 0)
(0.000994145 0.00208762 0)
(-3.18576e-06 0.000138648 0)
(3.3893e-05 0.000108474 0)
(8.39381e-05 0.000196529 0)
(4.70953e-05 0.000428803 0)
(-0.000102028 0.000719719 0)
(-0.000426166 0.00101936 0)
(-0.000661143 0.00117908 0)
(-0.000880487 0.00128126 0)
(-0.00093331 0.00122118 0)
(-0.000941349 0.00116124 0)
(-0.000858079 0.00100517 0)
(-0.000776077 0.000907939 0)
(-0.000653333 0.000768269 0)
(-0.000548125 0.000706704 0)
(-0.000404251 0.000623346 0)
(-0.000276142 0.000611983 0)
(-9.77104e-05 0.000579881 0)
(5.70204e-05 0.000608611 0)
(0.000271316 0.000611849 0)
(0.000432406 0.000671734 0)
(0.000663444 0.000703394 0)
(0.000785639 0.000800163 0)
(0.00100422 0.000865346 0)
(0.00101059 0.0010175 0)
(0.00118083 0.00110992 0)
(0.00092394 0.00133966 0)
(0.00105159 0.00141876 0)
(0.000549258 0.00180222 0)
(0.000899943 0.00183026 0)
(0.00145316 0.00291694 0)
(4.32768e-05 0.000224128 0)
(7.75235e-05 1.79358e-05 0)
(0.000250886 0.000166989 0)
(0.000303084 0.00034953 0)
(0.000160489 0.00072613 0)
(-0.000201456 0.00102296 0)
(-0.000555178 0.00123152 0)
(-0.000859458 0.00134552 0)
(-0.000997884 0.00130395 0)
(-0.00104455 0.00124962 0)
(-0.000981352 0.00109049 0)
(-0.000889354 0.000983094 0)
(-0.000751682 0.000826895 0)
(-0.000619151 0.00074787 0)
(-0.00045485 0.000642218 0)
(-0.00030238 0.000616525 0)
(-0.000108806 0.000559372 0)
(6.40743e-05 0.000582379 0)
(0.000290914 0.000555752 0)
(0.000469662 0.000620274 0)
(0.000719936 0.000611299 0)
(0.000865515 0.000721836 0)
(0.00111936 0.000729216 0)
(0.00114897 0.000903516 0)
(0.00137523 0.000937747 0)
(0.00112665 0.00121448 0)
(0.00135645 0.0013363 0)
(0.000835876 0.00183896 0)
(0.00162426 0.00227329 0)
(0.00212363 0.00439365 0)
(-0.000209276 1.12189e-05 0)
(-2.39304e-05 0.000108111 0)
(0.000413663 0.000168038 0)
(0.000595772 0.000547764 0)
(0.000552569 0.00081543 0)
(5.54043e-05 0.00108544 0)
(-0.000362506 0.00122227 0)
(-0.000825738 0.00131538 0)
(-0.00103695 0.0012723 0)
(-0.00115331 0.00122194 0)
(-0.0011145 0.00108115 0)
(-0.00102488 0.000976579 0)
(-0.000871402 0.000829736 0)
(-0.000717449 0.000743185 0)
(-0.000523897 0.000634964 0)
(-0.000353275 0.000593527 0)
(-0.000132199 0.000526971 0)
(4.68757e-05 0.000527639 0)
(0.000297961 0.000490169 0)
(0.000473535 0.000523046 0)
(0.000749686 0.000507666 0)
(0.00088985 0.000573204 0)
(0.00117579 0.000593001 0)
(0.00121405 0.000718957 0)
(0.00149217 0.000832631 0)
(0.00132676 0.00112497 0)
(0.00168927 0.00154262 0)
(0.00146963 0.00235907 0)
(0.00346513 0.00414698 0)
(0.00362683 0.00772996 0)
(0.000141188 0.000723544 0)
(0.000234196 1.60637e-05 0)
(0.000689402 0.000150125 0)
(0.000944598 0.000328112 0)
(0.000685762 0.000699236 0)
(0.000188751 0.000907144 0)
(-0.000343061 0.00104627 0)
(-0.000826689 0.00109274 0)
(-0.00110333 0.00106081 0)
(-0.00124255 0.00101026 0)
(-0.00122762 0.000896054 0)
(-0.00113766 0.000806038 0)
(-0.000979266 0.000681437 0)
(-0.000807149 0.000603371 0)
(-0.000598338 0.000503163 0)
(-0.000405713 0.000461561 0)
(-0.000172494 0.000387088 0)
(2.72142e-05 0.000383995 0)
(0.000283986 0.000320687 0)
(0.000484099 0.0003541 0)
(0.000767224 0.000286681 0)
(0.000950161 0.000367711 0)
(0.00126694 0.00029402 0)
(0.00139297 0.000469461 0)
(0.0017871 0.000449945 0)
(0.00184434 0.00089642 0)
(0.00260121 0.0013321 0)
(0.00341663 0.00295857 0)
(0.00710613 0.00610543 0)
(0.00584465 0.0125833 0)
(-0.000933965 -0.00219741 0)
(-0.000597224 0.000273137 0)
(0.00073354 0.000700666 0)
(0.00114921 0.000681883 0)
(0.00112779 0.000785346 0)
(0.00039186 0.000770228 0)
(-0.000187471 0.000722457 0)
(-0.000822192 0.000688574 0)
(-0.00112824 0.00064714 0)
(-0.00132465 0.000609648 0)
(-0.00132276 0.000552139 0)
(-0.00124099 0.000500903 0)
(-0.00107373 0.000434939 0)
(-0.000893414 0.000387285 0)
(-0.000662189 0.000325586 0)
(-0.000464265 0.000296955 0)
(-0.000204043 0.00024172 0)
(-1.23731e-05 0.000235706 0)
(0.00027536 0.000181816 0)
(0.000448935 0.000196842 0)
(0.000772815 0.000143667 0)
(0.000910127 0.000182651 0)
(0.00128898 0.000164835 0)
(0.00138376 0.000275871 0)
(0.00192674 0.000526092 0)
(0.00221607 0.00110265 0)
(0.00372884 0.00290374 0)
(0.0060207 0.0064595 0)
(0.0128173 0.0148475 0)
(0.0100047 0.0263205 0)
(0.00261263 -0.00308787 0)
(0.00317036 0.000490503 0)
(0.00111694 0.000695015 0)
(0.00102944 0.000865044 0)
(0.000781396 0.000579194 0)
(0.000128966 0.000511169 0)
(-0.000429455 0.000307459 0)
(-0.000908712 0.000267962 0)
(-0.00119134 0.0002232 0)
(-0.00134594 0.000211186 0)
(-0.00134395 0.000208439 0)
(-0.0012591 0.000196504 0)
(-0.00109404 0.000194116 0)
(-0.000912768 0.000177616 0)
(-0.000681233 0.000172078 0)
(-0.000477281 0.000153174 0)
(-0.000219031 0.000149948 0)
(-1.44893e-05 0.000127589 0)
(0.000264305 0.000135269 0)
(0.000468008 0.000103382 0)
(0.000775576 0.000140429 0)
(0.000994931 9.06116e-05 0)
(0.00138066 0.000210677 0)
(0.00177011 0.000165095 0)
(0.00263323 0.000583764 0)
(0.00426131 0.000842425 0)
(0.00798105 0.00257754 0)
(0.0149876 0.00502386 0)
(0.0267344 0.0116123 0)
(0.0176854 0.0186038 0)
)
;

boundaryField
{
    movingWall
    {
        type            fixedValue;
        value           uniform (1 0 0);
    }
    fixedWalls
    {
        type            noSlip;
    }
    frontAndBack
    {
        type            empty;
    }
}


// ************************************************************************* //
