/*--------------------------------*- C++ -*----------------------------------*\
| =========                 |                                                 |
| \\      /  F ield         | OpenFOAM: The Open Source CFD Toolbox           |
|  \\    /   O peration     | Version:  2406                                  |
|   \\  /    A nd           | Website:  www.openfoam.com                      |
|    \\/     M anipulation  |                                                 |
\*---------------------------------------------------------------------------*/
FoamFile
{
    version     2.0;
    format      ascii;
    arch        "LSB;label=32;scalar=64";
    class       volVectorField;
    location    "29.8";
    object      U_0;
}
// * * * * * * * * * * * * * * * * * * * * * * * * * * * * * * * * * * * * * //

dimensions      [0 1 -1 0 0 0 0];

internalField   nonuniform List<vector> 
3600
(
(6.63608e-05 -6.84299e-05 0)
(0.000558009 -0.000175696 0)
(0.00138071 -0.000244469 0)
(0.002338 -0.000245724 0)
(0.00321166 -0.000208135 0)
(0.00390122 -0.000151891 0)
(0.00437084 -9.54845e-05 0)
(0.00463444 -4.96656e-05 0)
(0.00472904 -1.86797e-05 0)
(0.00469479 1.48078e-06 0)
(0.00455923 1.64953e-05 0)
(0.00432449 3.30304e-05 0)
(0.0039661 5.7731e-05 0)
(0.00343684 9.555e-05 0)
(0.0026734 0.000149206 0)
(0.00160367 0.000219651 0)
(0.000152726 0.000306694 0)
(-0.00175217 0.00040916 0)
(-0.00417631 0.000524619 0)
(-0.00717072 0.000649321 0)
(-0.0107632 0.00077944 0)
(-0.0149477 0.000912877 0)
(-0.0196737 0.00104874 0)
(-0.0248382 0.00118318 0)
(-0.0302809 0.00130455 0)
(-0.0357847 0.00139174 0)
(-0.0410835 0.00141704 0)
(-0.0458783 0.00135391 0)
(-0.0498576 0.00118956 0)
(-0.0527123 0.00092473 0)
(-0.0541583 0.000553908 0)
(-0.053975 6.88823e-05 0)
(-0.0520403 -0.000488883 0)
(-0.0483034 -0.00107108 0)
(-0.0428164 -0.00163377 0)
(-0.0357554 -0.00212959 0)
(-0.0274165 -0.0025096 0)
(-0.0182108 -0.00272975 0)
(-0.00864488 -0.0027576 0)
(0.00071442 -0.00257967 0)
(0.00929159 -0.00220759 0)
(0.0165645 -0.00168058 0)
(0.0221302 -0.00106337 0)
(0.0257605 -0.000434207 0)
(0.0274405 0.000126309 0)
(0.0273398 0.000545232 0)
(0.0257834 0.000805764 0)
(0.0232123 0.000931715 0)
(0.0200807 0.000950747 0)
(0.0167723 0.00089245 0)
(0.0135735 0.000791768 0)
(0.0106681 0.000675919 0)
(0.00814515 0.000561698 0)
(0.00602267 0.00045862 0)
(0.00427323 0.000371043 0)
(0.00284828 0.000298768 0)
(0.00170272 0.000235267 0)
(0.00081543 0.000169937 0)
(0.000236085 8.25299e-05 0)
(4.17643e-06 6.30534e-07 0)
(0.00016567 -0.000551619 0)
(0.00137706 -0.00139201 0)
(0.00312006 -0.0018274 0)
(0.00506821 -0.00182901 0)
(0.00679956 -0.00154299 0)
(0.00811844 -0.00111668 0)
(0.00893444 -0.000665068 0)
(0.00924017 -0.000257829 0)
(0.00907167 7.98443e-05 0)
(0.00846644 0.000362702 0)
(0.00743104 0.000630039 0)
(0.00592433 0.000932718 0)
(0.00385164 0.00132029 0)
(0.00107329 0.00183078 0)
(-0.00257761 0.00248629 0)
(-0.00727411 0.00329356 0)
(-0.0131737 0.00424591 0)
(-0.0203955 0.00532361 0)
(-0.0289943 0.0064923 0)
(-0.0389321 0.00770008 0)
(-0.0500513 0.00887314 0)
(-0.0620596 0.00991406 0)
(-0.0745388 0.0107093 0)
(-0.0869782 0.011145 0)
(-0.0988262 0.0111235 0)
(-0.109545 0.0105767 0)
(-0.11865 0.00947255 0)
(-0.125734 0.00781767 0)
(-0.13048 0.00565669 0)
(-0.13267 0.00306456 0)
(-0.132171 0.000138216 0)
(-0.128892 -0.00300874 0)
(-0.122838 -0.0062447 0)
(-0.114125 -0.00940995 0)
(-0.102934 -0.0123319 0)
(-0.0895456 -0.014829 0)
(-0.074342 -0.0167218 0)
(-0.0578137 -0.0178461 0)
(-0.0405535 -0.0180735 0)
(-0.023239 -0.0173349 0)
(-0.00659893 -0.0156429 0)
(0.00863357 -0.0131085 0)
(0.0217848 -0.00994231 0)
(0.0323062 -0.00643732 0)
(0.039833 -0.00293276 0)
(0.0442455 0.000232617 0)
(0.0456872 0.00279799 0)
(0.0445282 0.00462349 0)
(0.0413155 0.00568386 0)
(0.0367058 0.00605629 0)
(0.0313593 0.00589967 0)
(0.0258391 0.00540038 0)
(0.0205595 0.00472825 0)
(0.0157742 0.00401354 0)
(0.0115976 0.0033389 0)
(0.0080476 0.00273784 0)
(0.00510098 0.0021912 0)
(0.00273441 0.00163022 0)
(0.00106132 0.000957925 0)
(0.000113265 0.000258257 0)
(0.000242397 -0.00136476 0)
(0.00188008 -0.00314986 0)
(0.00403912 -0.00393988 0)
(0.0063385 -0.00384651 0)
(0.00826132 -0.00316123 0)
(0.00957755 -0.00216975 0)
(0.0101631 -0.00109213 0)
(0.00997504 -5.88181e-05 0)
(0.00900571 0.000889192 0)
(0.00723624 0.0017855 0)
(0.00460102 0.00271713 0)
(0.000971021 0.00379407 0)
(-0.00384406 0.00511886 0)
(-0.0100741 0.00676297 0)
(-0.0179529 0.00875451 0)
(-0.0276743 0.0110758 0)
(-0.0393437 0.0136639 0)
(-0.052926 0.0164054 0)
(-0.0681997 0.0191293 0)
(-0.0847398 0.0216102 0)
(-0.101952 0.0235971 0)
(-0.119153 0.0248604 0)
(-0.135665 0.0252324 0)
(-0.150892 0.0246263 0)
(-0.164351 0.0230304 0)
(-0.17568 0.0204908 0)
(-0.184621 0.0170916 0)
(-0.191002 0.0129388 0)
(-0.19471 0.00815055 0)
(-0.19568 0.00285769 0)
(-0.193884 -0.00278645 0)
(-0.189328 -0.00861295 0)
(-0.182023 -0.0144557 0)
(-0.172027 -0.0201101 0)
(-0.159449 -0.0253422 0)
(-0.144466 -0.0298909 0)
(-0.127342 -0.0334829 0)
(-0.108444 -0.0358507 0)
(-0.0882566 -0.0367634 0)
(-0.0673787 -0.0360635 0)
(-0.0465085 -0.0337071 0)
(-0.026406 -0.0297955 0)
(-0.0078367 -0.0245881 0)
(0.00849391 -0.0184894 0)
(0.0220104 -0.0120022 0)
(0.0323297 -0.00565915 0)
(0.0392913 3.74785e-05 0)
(0.042965 0.00469297 0)
(0.0436365 0.00807782 0)
(0.0417936 0.0101478 0)
(0.038067 0.0110209 0)
(0.0331334 0.0109373 0)
(0.0276265 0.0101969 0)
(0.0220619 0.00909188 0)
(0.0168006 0.00785546 0)
(0.012054 0.00662785 0)
(0.00793197 0.0054347 0)
(0.00447721 0.00418598 0)
(0.00189726 0.00270798 0)
(0.000234425 0.000969599 0)
(0.000279454 -0.00239035 0)
(0.0021015 -0.00524205 0)
(0.00434119 -0.00631828 0)
(0.00655898 -0.00596995 0)
(0.00818227 -0.00467951 0)
(0.00897108 -0.00288786 0)
(0.00878279 -0.00091878 0)
(0.0075366 0.00104781 0)
(0.00516073 0.00297184 0)
(0.00154742 0.00492858 0)
(-0.00347585 0.00706929 0)
(-0.0101485 0.00956937 0)
(-0.01875 0.0125736 0)
(-0.0295471 0.016153 0)
(-0.0427238 0.02028 0)
(-0.0583024 0.0248183 0)
(-0.0760737 0.0295178 0)
(-0.0955649 0.0340262 0)
(-0.116084 0.0379381 0)
(-0.136834 0.0408763 0)
(-0.157048 0.042563 0)
(-0.176082 0.0428488 0)
(-0.193456 0.0417022 0)
(-0.208837 0.0391789 0)
(-0.222017 0.0353893 0)
(-0.232872 0.0304716 0)
(-0.241332 0.0245737 0)
(-0.247355 0.0178428 0)
(-0.250908 0.0104227 0)
(-0.251957 0.00246047 0)
(-0.250466 -0.00588971 0)
(-0.246397 -0.0144575 0)
(-0.23971 -0.0230345 0)
(-0.230365 -0.0313877 0)
(-0.21835 -0.039234 0)
(-0.2037 -0.0462456 0)
(-0.186522 -0.0520539 0)
(-0.167025 -0.0562751 0)
(-0.145546 -0.058546 0)
(-0.122577 -0.0585767 0)
(-0.0987642 -0.0562107 0)
(-0.0748883 -0.051482 0)
(-0.0518108 -0.0446509 0)
(-0.0303919 -0.0362011 0)
(-0.011395 -0.0267884 0)
(0.00459615 -0.017154 0)
(0.0172197 -0.00802067 0)
(0.0263495 -1.31809e-06 0)
(0.0320763 0.00646822 0)
(0.0346741 0.011163 0)
(0.0345758 0.0140676 0)
(0.0323438 0.0153593 0)
(0.0286092 0.0153602 0)
(0.0239927 0.0144618 0)
(0.0190318 0.0130396 0)
(0.0141362 0.0113738 0)
(0.00959528 0.0095857 0)
(0.00558175 0.00760523 0)
(0.00244788 0.00518482 0)
(0.000313365 0.00205691 0)
(0.000298256 -0.00348881 0)
(0.00212984 -0.00734325 0)
(0.00417295 -0.00851497 0)
(0.00593888 -0.00767324 0)
(0.00683449 -0.00553219 0)
(0.00662182 -0.00268922 0)
(0.00514216 0.00044906 0)
(0.00226756 0.00368435 0)
(-0.00215618 0.00700881 0)
(-0.008347 0.0105618 0)
(-0.0165926 0.0145627 0)
(-0.0272149 0.0192252 0)
(-0.0404966 0.0246707 0)
(-0.0565789 0.0308618 0)
(-0.0753586 0.0375688 0)
(-0.0964214 0.0443752 0)
(-0.11906 0.0507382 0)
(-0.142397 0.0561007 0)
(-0.165551 0.0600107 0)
(-0.18778 0.0621879 0)
(-0.208532 0.0625253 0)
(-0.227446 0.0610522 0)
(-0.244306 0.0578862 0)
(-0.259004 0.0531915 0)
(-0.271494 0.0471491 0)
(-0.281767 0.0399381 0)
(-0.289834 0.0317258 0)
(-0.295709 0.0226648 0)
(-0.299398 0.0128973 0)
(-0.300892 0.00256191 0)
(-0.300171 -0.0082006 0)
(-0.297184 -0.0192389 0)
(-0.291853 -0.0303595 0)
(-0.284073 -0.0413255 0)
(-0.273726 -0.0518379 0)
(-0.260696 -0.0615297 0)
(-0.244897 -0.0699629 0)
(-0.226316 -0.0766459 0)
(-0.205056 -0.081069 0)
(-0.181393 -0.0827644 0)
(-0.155819 -0.0813871 0)
(-0.12906 -0.0768047 0)
(-0.102054 -0.0691756 0)
(-0.0758676 -0.0589849 0)
(-0.0515668 -0.0470119 0)
(-0.0300572 -0.0342206 0)
(-0.0119611 -0.0215997 0)
(0.00243058 -0.010008 0)
(0.0131148 -8.54374e-05 0)
(0.0202877 0.00777155 0)
(0.0242786 0.0134089 0)
(0.0255247 0.0168931 0)
(0.0245553 0.0184818 0)
(0.0219556 0.018569 0)
(0.0183108 0.0175996 0)
(0.0141458 0.0159626 0)
(0.00989979 0.0138819 0)
(0.00589246 0.0113311 0)
(0.0026289 0.00799781 0)
(0.000339578 0.00333508 0)
(0.00029851 -0.00458839 0)
(0.00198044 -0.00925569 0)
(0.00355726 -0.0102387 0)
(0.00451584 -0.0085982 0)
(0.00427931 -0.00530818 0)
(0.00261712 -0.00111147 0)
(-0.000652865 0.00353386 0)
(-0.00572095 0.00844951 0)
(-0.0128378 0.0136909 0)
(-0.0223264 0.0194684 0)
(-0.0345416 0.0260348 0)
(-0.0497725 0.0335522 0)
(-0.0681103 0.0419722 0)
(-0.0893255 0.0509703 0)
(-0.112821 0.0599682 0)
(-0.137708 0.0682513 0)
(-0.16299 0.0751404 0)
(-0.187758 0.0801324 0)
(-0.211303 0.0829538 0)
(-0.233138 0.083536 0)
(-0.252968 0.0819583 0)
(-0.270636 0.07839 0)
(-0.286086 0.0730455 0)
(-0.299328 0.066153 0)
(-0.310416 0.0579334 0)
(-0.319435 0.0485886 0)
(-0.326482 0.0382949 0)
(-0.331654 0.027203 0)
(-0.335034 0.0154405 0)
(-0.336677 0.00311763 0)
(-0.336616 -0.00965999 0)
(-0.334832 -0.0227705 0)
(-0.331243 -0.0360669 0)
(-0.325713 -0.0493517 0)
(-0.318042 -0.0623589 0)
(-0.307979 -0.0747318 0)
(-0.295239 -0.0860123 0)
(-0.279539 -0.0956398 0)
(-0.260662 -0.102976 0)
(-0.238526 -0.107356 0)
(-0.213283 -0.108177 0)
(-0.185395 -0.105021 0)
(-0.155695 -0.0977799 0)
(-0.125358 -0.0867705 0)
(-0.0957935 -0.0727713 0)
(-0.0684225 -0.0569447 0)
(-0.0444141 -0.0406351 0)
(-0.0244753 -0.025104 0)
(-0.0088014 -0.0113181 0)
(0.00279907 0.000127454 0)
(0.0107162 0.00896796 0)
(0.0154126 0.0151937 0)
(0.017387 0.0189965 0)
(0.017175 0.0207277 0)
(0.0153408 0.0208338 0)
(0.0124426 0.019752 0)
(0.00900653 0.0177733 0)
(0.00547234 0.0149066 0)
(0.00246299 0.0107851 0)
(0.000315494 0.00461693 0)
(0.000275684 -0.00560302 0)
(0.00161822 -0.0107476 0)
(0.00243807 -0.0111633 0)
(0.00222927 -0.00836401 0)
(0.00046894 -0.00358816 0)
(-0.0030673 0.00230789 0)
(-0.00859965 0.00885637 0)
(-0.0163921 0.0159346 0)
(-0.0267817 0.023672 0)
(-0.0401384 0.0323114 0)
(-0.0567537 0.0420327 0)
(-0.0766805 0.0527763 0)
(-0.0995942 0.0641387 0)
(-0.124761 0.0754016 0)
(-0.151161 0.0856987 0)
(-0.17771 0.0942382 0)
(-0.203464 0.100462 0)
(-0.227715 0.10409 0)
(-0.249989 0.105075 0)
(-0.270007 0.103536 0)
(-0.287634 0.0996936 0)
(-0.302854 0.0938212 0)
(-0.315735 0.0862107 0)
(-0.326412 0.0771461 0)
(-0.33506 0.0668852 0)
(-0.341879 0.0556487 0)
(-0.347074 0.0436158 0)
(-0.350835 0.0309255 0)
(-0.353326 0.0176794 0)
(-0.354678 0.00394673 0)
(-0.354972 -0.0102172 0)
(-0.354233 -0.0247459 0)
(-0.35242 -0.039562 0)
(-0.349409 -0.0545451 0)
(-0.344984 -0.0695109 0)
(-0.33883 -0.084177 0)
(-0.330531 -0.098139 0)
(-0.319588 -0.110848 0)
(-0.305462 -0.121608 0)
(-0.287652 -0.129603 0)
(-0.265804 -0.13397 0)
(-0.239861 -0.133913 0)
(-0.210206 -0.128884 0)
(-0.17777 -0.118766 0)
(-0.14404 -0.104045 0)
(-0.110902 -0.0858551 0)
(-0.0803019 -0.0658482 0)
(-0.0538157 -0.0458562 0)
(-0.0322931 -0.0274661 0)
(-0.0158009 -0.0117207 0)
(-0.00387266 0.000912014 0)
(0.00415222 0.0103796 0)
(0.0089267 0.016876 0)
(0.0110542 0.0207466 0)
(0.0111143 0.0224286 0)
(0.00967884 0.0223656 0)
(0.00731628 0.0208722 0)
(0.00454644 0.0179682 0)
(0.0020556 0.0132437 0)
(0.00025804 0.00574701 0)
(0.000220982 -0.00641739 0)
(0.000985715 -0.0115507 0)
(0.000732302 -0.0109443 0)
(-0.00100112 -0.00660301 0)
(-0.00465178 2.01803e-05 0)
(-0.0104464 0.00799615 0)
(-0.0186558 0.0168894 0)
(-0.0296076 0.0266478 0)
(-0.0436673 0.0374368 0)
(-0.0611241 0.0494195 0)
(-0.0820138 0.0625253 0)
(-0.105961 0.0762946 0)
(-0.132147 0.0898957 0)
(-0.159456 0.102322 0)
(-0.186722 0.11266 0)
(-0.212942 0.120273 0)
(-0.237365 0.124848 0)
(-0.259488 0.126343 0)
(-0.279021 0.12491 0)
(-0.295844 0.120826 0)
(-0.309984 0.114443 0)
(-0.321585 0.106137 0)
(-0.330874 0.0962736 0)
(-0.338129 0.085186 0)
(-0.343649 0.0731543 0)
(-0.347732 0.0603999 0)
(-0.35065 0.047086 0)
(-0.352647 0.0333224 0)
(-0.353928 0.0191732 0)
(-0.35466 0.00466671 0)
(-0.354952 -0.0101906 0)
(-0.354872 -0.0253999 0)
(-0.354431 -0.0409562 0)
(-0.353567 -0.0568296 0)
(-0.352126 -0.0729404 0)
(-0.349837 -0.0891277 0)
(-0.346292 -0.105113 0)
(-0.340926 -0.120459 0)
(-0.333027 -0.134537 0)
(-0.321771 -0.146511 0)
(-0.306314 -0.15536 0)
(-0.285949 -0.159961 0)
(-0.26031 -0.159252 0)
(-0.229615 -0.152466 0)
(-0.194859 -0.139414 0)
(-0.157876 -0.120737 0)
(-0.121153 -0.0979976 0)
(-0.0873345 -0.0734751 0)
(-0.0585398 -0.0496326 0)
(-0.0357989 -0.0284446 0)
(-0.018987 -0.010986 0)
(-0.00727628 0.00249882 0)
(0.000321618 0.012251 0)
(0.00468216 0.0187088 0)
(0.00653987 0.0223663 0)
(0.00654294 0.0236895 0)
(0.00530731 0.0230001 0)
(0.00340884 0.0203143 0)
(0.00155103 0.0151969 0)
(0.000189569 0.00663866 0)
(0.000122718 -0.00687487 0)
(3.03091e-05 -0.0113662 0)
(-0.00162483 -0.009243 0)
(-0.00521421 -0.00296726 0)
(-0.0110643 0.00586695 0)
(-0.0194324 0.0163166 0)
(-0.0306237 0.0280019 0)
(-0.0449819 0.0409099 0)
(-0.0627885 0.0551346 0)
(-0.0840825 0.0705862 0)
(-0.108483 0.0867734 0)
(-0.135138 0.102779 0)
(-0.162865 0.117463 0)
(-0.190415 0.129768 0)
(-0.2167 0.138943 0)
(-0.240896 0.144612 0)
(-0.262447 0.146714 0)
(-0.281041 0.145435 0)
(-0.29658 0.14112 0)
(-0.309151 0.134213 0)
(-0.318989 0.125195 0)
(-0.326423 0.114533 0)
(-0.331833 0.102645 0)
(-0.335609 0.0898788 0)
(-0.338116 0.0765014 0)
(-0.339677 0.0627043 0)
(-0.340567 0.0486106 0)
(-0.341011 0.0342869 0)
(-0.341194 0.0197559 0)
(-0.341264 0.00500988 0)
(-0.341332 -0.00998089 0)
(-0.34148 -0.0252642 0)
(-0.341763 -0.0408884 0)
(-0.342194 -0.0568936 0)
(-0.342724 -0.0732937 0)
(-0.343214 -0.0900544 0)
(-0.343395 -0.107057 0)
(-0.342829 -0.124051 0)
(-0.340862 -0.140599 0)
(-0.336609 -0.156019 0)
(-0.328973 -0.169344 0)
(-0.316747 -0.179328 0)
(-0.298794 -0.184535 0)
(-0.27434 -0.183534 0)
(-0.24333 -0.175229 0)
(-0.206752 -0.159262 0)
(-0.166799 -0.136411 0)
(-0.126663 -0.108755 0)
(-0.0898497 -0.0793883 0)
(-0.0591369 -0.0515853 0)
(-0.0357129 -0.0277584 0)
(-0.0191463 -0.00892242 0)
(-0.00815849 0.00502445 0)
(-0.00140563 0.0146849 0)
(0.00221429 0.0207407 0)
(0.00357068 0.0237718 0)
(0.00339536 0.0241499 0)
(0.00233214 0.0219051 0)
(0.00108605 0.0166072 0)
(0.000130439 0.00728229 0)
(-3.65574e-05 -0.00678809 0)
(-0.001288 -0.00987959 0)
(-0.00463342 -0.00574632 0)
(-0.0103531 0.0028351 0)
(-0.0186368 0.014224 0)
(-0.0297756 0.0275188 0)
(-0.0440763 0.0423788 0)
(-0.0618071 0.0587367 0)
(-0.0830244 0.0764552 0)
(-0.107382 0.0950279 0)
(-0.134043 0.113483 0)
(-0.161795 0.130555 0)
(-0.189312 0.14502 0)
(-0.215403 0.15597 0)
(-0.239151 0.162923 0)
(-0.259935 0.165782 0)
(-0.27742 0.164753 0)
(-0.291536 0.16026 0)
(-0.302443 0.152855 0)
(-0.310476 0.143142 0)
(-0.316073 0.131703 0)
(-0.319714 0.119049 0)
(-0.321863 0.105596 0)
(-0.322933 0.0916533 0)
(-0.323268 0.0774354 0)
(-0.323141 0.0630737 0)
(-0.322758 0.0486353 0)
(-0.322274 0.0341396 0)
(-0.32181 0.0195734 0)
(-0.321457 0.00490345 0)
(-0.321297 -0.00991847 0)
(-0.321403 -0.0249548 0)
(-0.321847 -0.0402732 0)
(-0.322692 -0.0559442 0)
(-0.323984 -0.0720338 0)
(-0.325724 -0.0885935 0)
(-0.327836 -0.105637 0)
(-0.330115 -0.123106 0)
(-0.332162 -0.140808 0)
(-0.333313 -0.158346 0)
(-0.332581 -0.175027 0)
(-0.328649 -0.18978 0)
(-0.319951 -0.201132 0)
(-0.304883 -0.207278 0)
(-0.282174 -0.206322 0)
(-0.251382 -0.196702 0)
(-0.213405 -0.177781 0)
(-0.170793 -0.150457 0)
(-0.127548 -0.117463 0)
(-0.0881874 -0.0829647 0)
(-0.0562046 -0.0512489 0)
(-0.0328221 -0.0251492 0)
(-0.0171204 -0.00544022 0)
(-0.00730001 0.00846696 0)
(-0.00167928 0.0175591 0)
(0.00104085 0.0226939 0)
(0.00184446 0.024409 0)
(0.00150485 0.0228203 0)
(0.000756909 0.0175518 0)
(9.40594e-05 0.00773098 0)
(-0.000264009 -0.00595738 0)
(-0.0029629 -0.00679278 0)
(-0.00822544 -0.000194418 0)
(-0.0162582 0.0110036 0)
(-0.0270925 0.0252457 0)
(-0.0410412 0.0416829 0)
(-0.0583444 0.059945 0)
(-0.0790852 0.0797708 0)
(-0.102981 0.100635 0)
(-0.12926 0.121541 0)
(-0.156724 0.141118 0)
(-0.183988 0.157957 0)
(-0.209759 0.17095 0)
(-0.233012 0.17946 0)
(-0.253048 0.183316 0)
(-0.269504 0.18273 0)
(-0.282337 0.178202 0)
(-0.291781 0.170407 0)
(-0.29827 0.160086 0)
(-0.302352 0.147948 0)
(-0.304597 0.134607 0)
(-0.305533 0.120547 0)
(-0.305606 0.106117 0)
(-0.30516 0.091544 0)
(-0.304447 0.0769579 0)
(-0.303634 0.0624173 0)
(-0.302829 0.0479328 0)
(-0.302099 0.0334852 0)
(-0.301489 0.0190388 0)
(-0.301036 0.00454987 0)
(-0.30078 -0.0100308 0)
(-0.300775 -0.0247581 0)
(-0.301085 -0.0396914 0)
(-0.301794 -0.0548973 0)
(-0.302992 -0.0704502 0)
(-0.304774 -0.0864321 0)
(-0.307208 -0.102925 0)
(-0.310304 -0.119995 0)
(-0.313954 -0.137653 0)
(-0.317849 -0.155793 0)
(-0.321381 -0.174094 0)
(-0.323541 -0.191892 0)
(-0.322861 -0.208051 0)
(-0.317459 -0.220875 0)
(-0.305258 -0.228151 0)
(-0.284434 -0.227413 0)
(-0.254072 -0.216497 0)
(-0.214914 -0.19438 0)
(-0.169884 -0.1621 0)
(-0.123922 -0.123271 0)
(-0.0826958 -0.083471 0)
(-0.0503699 -0.048185 0)
(-0.0279171 -0.0204935 0)
(-0.0137018 -0.000638715 0)
(-0.00540072 0.0125689 0)
(-0.00106917 0.0204403 0)
(0.00072283 0.0238702 0)
(0.000999773 0.0231955 0)
(0.000603982 0.0181745 0)
(8.52774e-05 0.0080738 0)
(-0.000555567 -0.00418545 0)
(-0.00493742 -0.00187095 0)
(-0.012254 0.00757437 0)
(-0.0226655 0.0216268 0)
(-0.0360236 0.0389367 0)
(-0.052631 0.0586766 0)
(-0.072576 0.0803336 0)
(-0.0956649 0.103308 0)
(-0.121233 0.126595 0)
(-0.148149 0.148752 0)
(-0.175009 0.168185 0)
(-0.200427 0.183542 0)
(-0.223263 0.193972 0)
(-0.242727 0.199178 0)
(-0.258408 0.199347 0)
(-0.270275 0.19504 0)
(-0.278621 0.187056 0)
(-0.283973 0.176286 0)
(-0.286975 0.163583 0)
(-0.288281 0.149675 0)
(-0.288473 0.13512 0)
(-0.288018 0.120302 0)
(-0.287255 0.105457 0)
(-0.286403 0.0907048 0)
(-0.285587 0.076087 0)
(-0.284865 0.0615972 0)
(-0.284251 0.0472043 0)
(-0.283741 0.0328678 0)
(-0.283326 0.0185463 0)
(-0.283003 0.00420046 0)
(-0.282783 -0.0102069 0)
(-0.282699 -0.0247112 0)
(-0.282804 -0.0393509 0)
(-0.283175 -0.0541713 0)
(-0.283913 -0.0692298 0)
(-0.285142 -0.0846001 0)
(-0.286997 -0.100376 0)
(-0.289611 -0.116671 0)
(-0.293078 -0.133601 0)
(-0.297392 -0.151257 0)
(-0.302356 -0.16963 0)
(-0.307456 -0.188497 0)
(-0.311715 -0.207256 0)
(-0.313576 -0.224727 0)
(-0.310898 -0.238994 0)
(-0.301154 -0.247392 0)
(-0.281949 -0.246784 0)
(-0.25186 -0.234276 0)
(-0.211461 -0.208384 0)
(-0.164136 -0.170399 0)
(-0.115943 -0.125188 0)
(-0.0738172 -0.0801888 0)
(-0.0423579 -0.0421398 0)
(-0.0218057 -0.0139211 0)
(-0.0096254 0.00512042 0)
(-0.00308655 0.0167808 0)
(-0.000104844 0.0225376 0)
(0.00076762 0.0231491 0)
(0.000610465 0.0186276 0)
(0.000101016 0.00840614 0)
(-0.000899029 -0.00130837 0)
(-0.00710905 0.00502672 0)
(-0.0165035 0.0176035 0)
(-0.0292272 0.0346556 0)
(-0.044927 0.0551289 0)
(-0.0638493 0.0781443 0)
(-0.0858542 0.102919 0)
(-0.110429 0.128412 0)
(-0.136564 0.15314 0)
(-0.162894 0.17535 0)
(-0.187968 0.193418 0)
(-0.210532 0.206214 0)
(-0.229682 0.213241 0)
(-0.244936 0.214602 0)
(-0.25624 0.210887 0)
(-0.263918 0.203008 0)
(-0.268569 0.192014 0)
(-0.27092 0.178919 0)
(-0.271701 0.164583 0)
(-0.271543 0.149649 0)
(-0.270932 0.134544 0)
(-0.270198 0.119512 0)
(-0.269529 0.104658 0)
(-0.26901 0.090001 0)
(-0.268654 0.0755129 0)
(-0.268433 0.0611452 0)
(-0.268301 0.0468481 0)
(-0.268213 0.0325784 0)
(-0.268132 0.018303 0)
(-0.268038 0.00399705 0)
(-0.26793 -0.0103575 0)
(-0.267825 -0.0247745 0)
(-0.267765 -0.039269 0)
(-0.267811 -0.053861 0)
(-0.268052 -0.0685819 0)
(-0.268603 -0.0834803 0)
(-0.269607 -0.0986306 0)
(-0.271235 -0.11414 0)
(-0.273667 -0.130152 0)
(-0.27707 -0.146841 0)
(-0.281535 -0.164378 0)
(-0.286979 -0.182862 0)
(-0.29299 -0.202178 0)
(-0.298645 -0.221789 0)
(-0.302331 -0.240471 0)
(-0.301677 -0.256059 0)
(-0.293732 -0.265366 0)
(-0.275549 -0.264478 0)
(-0.24522 -0.249658 0)
(-0.203243 -0.218964 0)
(-0.153655 -0.174227 0)
(-0.103902 -0.122171 0)
(-0.0622126 -0.0726051 0)
(-0.0330605 -0.0332188 0)
(-0.0153194 -0.00589707 0)
(-0.00558828 0.0111799 0)
(-0.000952199 0.0202424 0)
(0.00065329 0.0227084 0)
(0.000711892 0.0190155 0)
(0.000132357 0.00880293 0)
(-0.00127175 0.00277289 0)
(-0.00933842 0.0139259 0)
(-0.0207139 0.0298091 0)
(-0.0355507 0.0498985 0)
(-0.0532629 0.073485 0)
(-0.0739952 0.099541 0)
(-0.0973335 0.126907 0)
(-0.122464 0.154064 0)
(-0.14812 0.179139 0)
(-0.172848 0.20024 0)
(-0.195284 0.215892 0)
(-0.214398 0.225308 0)
(-0.229598 0.228423 0)
(-0.240764 0.225791 0)
(-0.248211 0.218407 0)
(-0.252575 0.207475 0)
(-0.254652 0.19419 0)
(-0.255238 0.179567 0)
(-0.255014 0.16436 0)
(-0.254489 0.149052 0)
(-0.253988 0.133902 0)
(-0.253679 0.119002 0)
(-0.253612 0.104348 0)
(-0.253763 0.0898833 0)
(-0.25407 0.075541 0)
(-0.254457 0.0612578 0)
(-0.254853 0.0469854 0)
(-0.2552 0.032692 0)
(-0.255456 0.0183603 0)
(-0.2556 0.00398415 0)
(-0.255627 -0.0104353 0)
(-0.255549 -0.0248929 0)
(-0.255398 -0.0393834 0)
(-0.255221 -0.0539056 0)
(-0.255087 -0.0684663 0)
(-0.255085 -0.0830867 0)
(-0.255334 -0.0978102 0)
(-0.255985 -0.112713 0)
(-0.257226 -0.127916 0)
(-0.259276 -0.143596 0)
(-0.262364 -0.159986 0)
(-0.266672 -0.177348 0)
(-0.272223 -0.195894 0)
(-0.278707 -0.215623 0)
(-0.285246 -0.236057 0)
(-0.290159 -0.255883 0)
(-0.290836 -0.27261 0)
(-0.283904 -0.28241 0)
(-0.265893 -0.280451 0)
(-0.234515 -0.262077 0)
(-0.190406 -0.225034 0)
(-0.138624 -0.172273 0)
(-0.0883441 -0.113301 0)
(-0.0488799 -0.0606731 0)
(-0.0235223 -0.0220163 0)
(-0.00927366 0.00276534 0)
(-0.00223777 0.0165847 0)
(0.000435008 0.0217561 0)
(0.000815336 0.0193515 0)
(0.000167458 0.00929857 0)
(-0.00164267 0.00807173 0)
(-0.0114667 0.0247276 0)
(-0.0246124 0.0439836 0)
(-0.0412447 0.0670338 0)
(-0.0605228 0.0935299 0)
(-0.0824561 0.1222 0)
(-0.106353 0.151446 0)
(-0.13116 0.179307 0)
(-0.155471 0.203655 0)
(-0.177869 0.222638 0)
(-0.197183 0.235074 0)
(-0.212676 0.240615 0)
(-0.224113 0.239683 0)
(-0.231745 0.233291 0)
(-0.236203 0.222782 0)
(-0.238324 0.209542 0)
(-0.238964 0.194777 0)
(-0.238862 0.179382 0)
(-0.238556 0.163929 0)
(-0.238383 0.148704 0)
(-0.238497 0.133797 0)
(-0.238925 0.119179 0)
(-0.239616 0.104766 0)
(-0.24048 0.0904674 0)
(-0.241421 0.0762033 0)
(-0.24235 0.0619173 0)
(-0.243193 0.047576 0)
(-0.243898 0.0331655 0)
(-0.24443 0.0186874 0)
(-0.244772 0.00415303 0)
(-0.244924 -0.0104199 0)
(-0.244897 -0.025011 0)
(-0.244717 -0.0396007 0)
(-0.244423 -0.0541722 0)
(-0.244064 -0.0687154 0)
(-0.243706 -0.0832303 0)
(-0.243436 -0.0977329 0)
(-0.243364 -0.112264 0)
(-0.243639 -0.126904 0)
(-0.244456 -0.141786 0)
(-0.24606 -0.15712 0)
(-0.248733 -0.173201 0)
(-0.252739 -0.190388 0)
(-0.258204 -0.209017 0)
(-0.26491 -0.229205 0)
(-0.272 -0.250507 0)
(-0.27768 -0.271451 0)
(-0.27904 -0.289071 0)
(-0.27225 -0.298701 0)
(-0.253363 -0.294409 0)
(-0.219901 -0.270604 0)
(-0.173032 -0.225135 0)
(-0.119393 -0.163126 0)
(-0.0702433 -0.0981093 0)
(-0.0351819 -0.0450917 0)
(-0.0147927 -0.00962643 0)
(-0.00437993 0.0109286 0)
(-0.000112862 0.020008 0)
(0.000825729 0.0195388 0)
(0.000194837 0.00987952 0)
(-0.00197692 0.0145054 0)
(-0.0133361 0.0372154 0)
(-0.0279457 0.0598123 0)
(-0.0459649 0.085638 0)
(-0.0662889 0.114701 0)
(-0.0887796 0.145413 0)
(-0.1125 0.175732 0)
(-0.136246 0.203341 0)
(-0.158585 0.226018 0)
(-0.178242 0.242102 0)
(-0.194304 0.250822 0)
(-0.206374 0.252333 0)
(-0.214574 0.247564 0)
(-0.219475 0.23794 0)
(-0.22192 0.225038 0)
(-0.222815 0.210289 0)
(-0.222955 0.19478 0)
(-0.222932 0.179209 0)
(-0.223103 0.163924 0)
(-0.223629 0.149025 0)
(-0.224526 0.134463 0)
(-0.225725 0.120128 0)
(-0.227117 0.1059 0)
(-0.228588 0.0916786 0)
(-0.230037 0.0773959 0)
(-0.231381 0.0630131 0)
(-0.232558 0.0485171 0)
(-0.233527 0.0339136 0)
(-0.234262 0.0192213 0)
(-0.234754 0.00446709 0)
(-0.235007 -0.0103182 0)
(-0.235034 -0.0251028 0)
(-0.234861 -0.0398563 0)
(-0.234518 -0.0545525 0)
(-0.234047 -0.0691703 0)
(-0.233495 -0.0836972 0)
(-0.232924 -0.0981315 0)
(-0.232409 -0.112488 0)
(-0.23205 -0.12681 0)
(-0.231989 -0.141179 0)
(-0.232419 -0.155747 0)
(-0.233604 -0.170756 0)
(-0.235869 -0.186565 0)
(-0.239556 -0.203638 0)
(-0.244885 -0.222447 0)
(-0.251708 -0.243224 0)
(-0.25915 -0.265512 0)
(-0.265223 -0.287556 0)
(-0.266626 -0.305694 0)
(-0.259005 -0.314128 0)
(-0.238013 -0.305613 0)
(-0.201305 -0.27376 0)
(-0.1512 -0.217397 0)
(-0.0966794 -0.145578 0)
(-0.0511721 -0.0771054 0)
(-0.022635 -0.0274172 0)
(-0.00771292 0.00244472 0)
(-0.00116447 0.017026 0)
(0.000674311 0.019385 0)
(0.000207409 0.0104919 0)
(-0.00224129 0.0218978 0)
(-0.0148094 0.0510739 0)
(-0.030507 0.0769008 0)
(-0.0494492 0.105224 0)
(-0.0702752 0.136406 0)
(-0.0927078 0.16851 0)
(-0.115624 0.199086 0)
(-0.137762 0.225586 0)
(-0.157759 0.245839 0)
(-0.174553 0.258512 0)
(-0.187533 0.263322 0)
(-0.196638 0.260958 0)
(-0.202309 0.252824 0)
(-0.205343 0.240656 0)
(-0.20667 0.22613 0)
(-0.207147 0.210585 0)
(-0.207427 0.194903 0)
(-0.20792 0.179541 0)
(-0.208807 0.164636 0)
(-0.21011 0.150132 0)
(-0.21175 0.135891 0)
(-0.213608 0.121762 0)
(-0.215558 0.107618 0)
(-0.217489 0.0933747 0)
(-0.219309 0.0789826 0)
(-0.22095 0.0644253 0)
(-0.222365 0.0497096 0)
(-0.223522 0.0348586 0)
(-0.224404 0.0199059 0)
(-0.225009 0.00489082 0)
(-0.225343 -0.0101449 0)
(-0.225421 -0.0251602 0)
(-0.225268 -0.0401171 0)
(-0.224913 -0.0549824 0)
(-0.224392 -0.0697289 0)
(-0.223747 -0.0843373 0)
(-0.223021 -0.0987972 0)
(-0.222267 -0.113109 0)
(-0.221551 -0.127292 0)
(-0.22096 -0.141388 0)
(-0.220623 -0.15549 0)
(-0.220734 -0.169763 0)
(-0.221571 -0.18449 0)
(-0.223504 -0.200105 0)
(-0.226942 -0.217189 0)
(-0.232188 -0.23636 0)
(-0.239132 -0.257948 0)
(-0.246807 -0.281404 0)
(-0.252921 -0.304483 0)
(-0.253645 -0.322494 0)
(-0.24405 -0.328129 0)
(-0.219555 -0.312644 0)
(-0.178475 -0.269335 0)
(-0.125188 -0.199717 0)
(-0.0718824 -0.119332 0)
(-0.0332836 -0.0523117 0)
(-0.0124376 -0.00983843 0)
(-0.00282926 0.0122599 0)
(0.000333279 0.018627 0)
(0.00020226 0.0110588 0)
(-0.00240909 0.0299938 0)
(-0.0157839 0.0659162 0)
(-0.0321542 0.0948078 0)
(-0.0515371 0.125285 0)
(-0.0723421 0.158077 0)
(-0.0941773 0.190908 0)
(-0.115805 0.220995 0)
(-0.135989 0.245685 0)
(-0.153508 0.262996 0)
(-0.167557 0.272015 0)
(-0.177827 0.272993 0)
(-0.184566 0.267143 0)
(-0.188451 0.256264 0)
(-0.190395 0.242273 0)
(-0.191302 0.22681 0)
(-0.191905 0.211021 0)
(-0.19268 0.195537 0)
(-0.193859 0.18058 0)
(-0.195484 0.166108 0)
(-0.197483 0.151962 0)
(-0.199732 0.137954 0)
(-0.202096 0.123928 0)
(-0.204455 0.109771 0)
(-0.206713 0.0954198 0)
(-0.208796 0.0808489 0)
(-0.210649 0.0660618 0)
(-0.212237 0.0510823 0)
(-0.213535 0.0359479 0)
(-0.214532 0.020704 0)
(-0.215227 0.00540072 0)
(-0.215629 -0.00991104 0)
(-0.215754 -0.0251821 0)
(-0.215625 -0.0403676 0)
(-0.215274 -0.0554287 0)
(-0.214734 -0.0703343 0)
(-0.214044 -0.0850617 0)
(-0.213243 -0.0995976 0)
(-0.212372 -0.113938 0)
(-0.211476 -0.128089 0)
(-0.210608 -0.142074 0)
(-0.209843 -0.15594 0)
(-0.209298 -0.169786 0)
(-0.209167 -0.183798 0)
(-0.209746 -0.198308 0)
(-0.211453 -0.213843 0)
(-0.214768 -0.231128 0)
(-0.220057 -0.250937 0)
(-0.227192 -0.273659 0)
(-0.235004 -0.298491 0)
(-0.24073 -0.322378 0)
(-0.239865 -0.339121 0)
(-0.22691 -0.339448 0)
(-0.197404 -0.31313 0)
(-0.151167 -0.254385 0)
(-0.095855 -0.170425 0)
(-0.047442 -0.0861654 0)
(-0.0186657 -0.0270996 0)
(-0.00520005 0.00507832 0)
(-0.00020606 0.0169545 0)
(0.000182615 0.0114985 0)
(-0.00246326 0.0384829 0)
(-0.0161988 0.0813142 0)
(-0.0328164 0.113078 0)
(-0.0521727 0.145332 0)
(-0.0724886 0.179214 0)
(-0.093291 0.212151 0)
(-0.113299 0.241124 0)
(-0.131367 0.263494 0)
(-0.146462 0.277575 0)
(-0.158045 0.282938 0)
(-0.166089 0.280374 0)
(-0.171084 0.271568 0)
(-0.173849 0.258602 0)
(-0.17531 0.243443 0)
(-0.17627 0.227583 0)
(-0.177298 0.21192 0)
(-0.178697 0.196831 0)
(-0.180556 0.18233 0)
(-0.182823 0.168251 0)
(-0.185377 0.154373 0)
(-0.18808 0.140498 0)
(-0.190806 0.126479 0)
(-0.193453 0.112231 0)
(-0.195942 0.0977113 0)
(-0.198214 0.0829155 0)
(-0.200226 0.0678636 0)
(-0.201948 0.0525927 0)
(-0.203361 0.0371516 0)
(-0.204455 0.0215959 0)
(-0.205232 0.00598472 0)
(-0.205697 -0.0096223 0)
(-0.205869 -0.0251682 0)
(-0.20577 -0.0406013 0)
(-0.205431 -0.0558773 0)
(-0.204887 -0.0709611 0)
(-0.204175 -0.0858281 0)
(-0.203336 -0.100464 0)
(-0.202408 -0.114866 0)
(-0.201428 -0.129039 0)
(-0.200431 -0.142997 0)
(-0.19946 -0.15677 0)
(-0.198576 -0.170409 0)
(-0.19789 -0.184023 0)
(-0.197595 -0.197824 0)
(-0.198015 -0.212208 0)
(-0.199625 -0.227824 0)
(-0.202978 -0.245579 0)
(-0.208479 -0.266412 0)
(-0.215896 -0.29068 0)
(-0.223687 -0.317048 0)
(-0.228404 -0.341137 0)
(-0.224727 -0.354594 0)
(-0.206752 -0.345764 0)
(-0.170827 -0.303519 0)
(-0.119541 -0.225673 0)
(-0.0652442 -0.129837 0)
(-0.0267163 -0.0508309 0)
(-0.00831248 -0.00520997 0)
(-0.000972389 0.0140268 0)
(0.000155494 0.0117263 0)
(-0.00239766 0.047026 0)
(-0.0160361 0.0968276 0)
(-0.03249 0.131269 0)
(-0.0513926 0.16492 0)
(-0.0708274 0.1994 0)
(-0.0902742 0.231913 0)
(-0.108472 0.259296 0)
(-0.124412 0.279035 0)
(-0.137269 0.289811 0)
(-0.146756 0.291706 0)
(-0.153078 0.286028 0)
(-0.156891 0.274845 0)
(-0.159066 0.260405 0)
(-0.160461 0.244608 0)
(-0.161739 0.22873 0)
(-0.163303 0.213402 0)
(-0.16531 0.19877 0)
(-0.16775 0.184693 0)
(-0.170517 0.170922 0)
(-0.173475 0.157215 0)
(-0.176496 0.143381 0)
(-0.179471 0.129299 0)
(-0.182317 0.114906 0)
(-0.18497 0.10018 0)
(-0.187383 0.0851322 0)
(-0.18952 0.0697955 0)
(-0.191354 0.0542171 0)
(-0.192867 0.0384548 0)
(-0.194052 0.0225731 0)
(-0.194906 0.00663982 0)
(-0.195437 -0.00927735 0)
(-0.195661 -0.0251136 0)
(-0.1956 -0.0408102 0)
(-0.195285 -0.0563168 0)
(-0.19475 -0.0715942 0)
(-0.194035 -0.0866152 0)
(-0.19318 -0.101366 0)
(-0.192225 -0.115844 0)
(-0.191207 -0.130058 0)
(-0.190156 -0.144027 0)
(-0.189102 -0.157773 0)
(-0.188075 -0.17133 0)
(-0.187125 -0.184757 0)
(-0.186356 -0.198173 0)
(-0.185975 -0.21183 0)