/*--------------------------------*- C++ -*----------------------------------*\
| =========                 |                                                 |
| \\      /  F ield         | OpenFOAM: The Open Source CFD Toolbox           |
|  \\    /   O peration     | Version:  2406                                  |
|   \\  /    A nd           | Website:  www.openfoam.com                      |
|    \\/     M anipulation  |                                                 |
\*---------------------------------------------------------------------------*/
FoamFile
{
    version     2.0;
    format      ascii;
    arch        "LSB;label=32;scalar=64";
    class       volVectorField;
    location    "31.15";
    object      U;
}
// * * * * * * * * * * * * * * * * * * * * * * * * * * * * * * * * * * * * * //

dimensions      [0 1 -1 0 0 0 0];

internalField   nonuniform List<vector> 
3600
(
(-1.05141e-05 -7.48097e-07 0)
(0.000451777 -0.000216663 0)
(0.00135425 -0.000328171 0)
(0.00236119 -0.000344068 0)
(0.00331687 -0.00028097 0)
(0.00401012 -0.000193704 0)
(0.00447275 -0.00010925 0)
(0.00467129 -4.96714e-05 0)
(0.00471954 -1.77908e-05 0)
(0.00463263 -8.30147e-06 0)
(0.00448401 -9.2888e-06 0)
(0.00424505 -7.17508e-06 0)
(0.00390757 8.54183e-06 0)
(0.00339291 4.53694e-05 0)
(0.00264289 0.000105857 0)
(0.00156498 0.000191617 0)
(8.86573e-05 0.000302723 0)
(-0.00187056 0.000439754 0)
(-0.00437545 0.000599073 0)
(-0.00748622 0.000773164 0)
(-0.011234 0.000952844 0)
(-0.015624 0.00113499 0)
(-0.0206102 0.00132136 0)
(-0.0260911 0.00151154 0)
(-0.0318961 0.00169128 0)
(-0.0377903 0.00183013 0)
(-0.0434801 0.00188672 0)
(-0.0486329 0.00182139 0)
(-0.0529011 0.00160558 0)
(-0.0559493 0.00122864 0)
(-0.0574815 0.000698069 0)
(-0.0572625 3.91994e-05 0)
(-0.0551419 -0.000708171 0)
(-0.0510668 -0.00149141 0)
(-0.045103 -0.00224905 0)
(-0.0374377 -0.00291362 0)
(-0.0283944 -0.00341803 0)
(-0.0184141 -0.00370192 0)
(-0.00805199 -0.00372148 0)
(0.00207878 -0.00345855 0)
(0.0113385 -0.00292928 0)
(0.0191571 -0.00218817 0)
(0.0250757 -0.00132418 0)
(0.0288489 -0.000448884 0)
(0.0304403 0.000326841 0)
(0.0300717 0.000915725 0)
(0.0281206 0.00127731 0)
(0.0251041 0.00141996 0)
(0.0215096 0.00139292 0)
(0.0177982 0.00125824 0)
(0.0142586 0.0010749 0)
(0.0111128 0.000881549 0)
(0.00840223 0.000704744 0)
(0.00617279 0.000552778 0)
(0.0043309 0.000434826 0)
(0.00286623 0.000340552 0)
(0.00166479 0.000268689 0)
(0.000760828 0.000177544 0)
(0.000150038 6.72372e-05 0)
(-7.14863e-05 -7.91426e-05 0)
(0.000183124 -0.00043402 0)
(0.00136173 -0.00139454 0)
(0.00326072 -0.00185481 0)
(0.00526102 -0.00187551 0)
(0.00711227 -0.00154702 0)
(0.00844282 -0.00106674 0)
(0.00925858 -0.000567383 0)
(0.00947657 -0.000140015 0)
(0.00923238 0.000187486 0)
(0.0085251 0.00044149 0)
(0.00742359 0.000672521 0)
(0.00584235 0.00095006 0)
(0.00370405 0.00132607 0)
(0.000824112 0.00184211 0)
(-0.00296142 0.00251148 0)
(-0.00785525 0.00333837 0)
(-0.0140116 0.00430779 0)
(-0.0215667 0.00539849 0)
(-0.0305728 0.00657322 0)
(-0.0409948 0.00778672 0)
(-0.0526533 0.00897084 0)
(-0.0652288 0.0100335 0)
(-0.0782648 0.0108559 0)
(-0.0912193 0.011316 0)
(-0.103513 0.0113066 0)
(-0.114589 0.0107561 0)
(-0.123951 0.00963136 0)
(-0.131186 0.0079415 0)
(-0.135976 0.00572967 0)
(-0.138092 0.00307101 0)
(-0.13739 6.39717e-05 0)
(-0.133806 -0.00316964 0)
(-0.127356 -0.00649028 0)
(-0.118137 -0.00973824 0)
(-0.106341 -0.0127396 0)
(-0.0922542 -0.0153075 0)
(-0.0762781 -0.0172554 0)
(-0.0589208 -0.018409 0)
(-0.0408101 -0.0186317 0)
(-0.0226516 -0.0178465 0)
(-0.00522324 -0.0160648 0)
(0.0107142 -0.0134011 0)
(0.0244382 -0.0100783 0)
(0.0353901 -0.0064082 0)
(0.0431766 -0.00275013 0)
(0.0476917 0.000544208 0)
(0.0490513 0.00319684 0)
(0.0476748 0.00504606 0)
(0.0441201 0.00607349 0)
(0.0391218 0.00637959 0)
(0.0333372 0.00614747 0)
(0.0274178 0.00557502 0)
(0.0217511 0.00484614 0)
(0.0166706 0.00408571 0)
(0.0122196 0.00338835 0)
(0.00849458 0.0027667 0)
(0.0053682 0.00222834 0)
(0.00292374 0.00164799 0)
(0.00110059 0.00100309 0)
(0.000116788 0.00017718 0)
(0.000302407 -0.00131124 0)
(0.00189862 -0.00332296 0)
(0.00433883 -0.004228 0)
(0.00676119 -0.00415969 0)
(0.00887781 -0.00337355 0)
(0.0102346 -0.00222713 0)
(0.0108266 -0.00100826 0)
(0.01053 0.000116132 0)
(0.00945015 0.00108359 0)
(0.00752817 0.00196091 0)
(0.00475969 0.00285761 0)
(0.000965414 0.00392832 0)
(-0.00403398 0.00528415 0)
(-0.0105172 0.00700915 0)
(-0.0187188 0.00911631 0)
(-0.0288639 0.0115841 0)
(-0.0410563 0.0143325 0)
(-0.0552656 0.0172449 0)
(-0.071238 0.0201373 0)
(-0.0885122 0.0227746 0)
(-0.106444 0.0248844 0)
(-0.124312 0.0262228 0)
(-0.141403 0.0266083 0)
(-0.157098 0.0259511 0)
(-0.170901 0.0242376 0)
(-0.182448 0.0215194 0)
(-0.191491 0.0178847 0)
(-0.197866 0.0134501 0)
(-0.201477 0.00834414 0)
(-0.202268 0.00271044 0)
(-0.200213 -0.00329804 0)
(-0.19531 -0.00950872 0)
(-0.187581 -0.0157305 0)
(-0.177083 -0.0217421 0)
(-0.163926 -0.027296 0)
(-0.148283 -0.0321138 0)
(-0.130426 -0.035905 0)
(-0.110729 -0.0383797 0)
(-0.0896997 -0.0392895 0)
(-0.0679572 -0.0384605 0)
(-0.0462414 -0.0358457 0)
(-0.0253374 -0.0315522 0)
(-0.00605923 -0.0258661 0)
(0.0108751 -0.019229 0)
(0.0248503 -0.012196 0)
(0.0354869 -0.00535765 0)
(0.0425852 0.000743955 0)
(0.0462443 0.00568854 0)
(0.0467345 0.00923539 0)
(0.044611 0.0113402 0)
(0.0404905 0.0121468 0)
(0.0351508 0.0119285 0)
(0.0292058 0.0110256 0)
(0.0232799 0.00975311 0)
(0.0176627 0.00837611 0)
(0.0126757 0.00702379 0)
(0.00829797 0.00575196 0)
(0.00474047 0.00440315 0)
(0.00193167 0.00287629 0)
(0.000293618 0.000927595 0)
(0.000375152 -0.00237178 0)
(0.00218644 -0.0055041 0)
(0.00480004 -0.00675326 0)
(0.00717105 -0.00639495 0)
(0.009003 -0.00493834 0)
(0.0098139 -0.00289901 0)
(0.00960363 -0.000720714 0)
(0.0082114 0.00138611 0)
(0.00567824 0.00334717 0)
(0.0018466 0.00529759 0)
(-0.00341141 0.00741884 0)
(-0.0103952 0.00995059 0)
(-0.0193813 0.0130398 0)
(-0.0306795 0.016768 0)
(-0.0444641 0.0210789 0)
(-0.0607597 0.0258288 0)
(-0.0793135 0.0307383 0)
(-0.0996071 0.035437 0)
(-0.120884 0.0394848 0)
(-0.142302 0.0424888 0)
(-0.163055 0.0441587 0)
(-0.182489 0.0443562 0)
(-0.200123 0.0430611 0)
(-0.215642 0.0403504 0)
(-0.228857 0.0363455 0)
(-0.239666 0.0311965 0)
(-0.248016 0.0250529 0)
(-0.253878 0.0180662 0)
(-0.257235 0.0103788 0)
(-0.258058 0.00213829 0)
(-0.256317 -0.00650427 0)
(-0.251966 -0.015374 0)
(-0.244959 -0.0242701 0)
(-0.235253 -0.0329451 0)
(-0.222832 -0.0411061 0)
(-0.207719 -0.0484035 0)
(-0.190019 -0.0544499 0)
(-0.169935 -0.0588326 0)
(-0.147819 -0.0611656 0)
(-0.124166 -0.0611344 0)
(-0.0996571 -0.0585747 0)
(-0.0750905 -0.0535205 0)
(-0.0513719 -0.0462565 0)
(-0.0293754 -0.0373 0)
(-0.00990258 -0.0273569 0)
(0.00647287 -0.0172139 0)
(0.0193647 -0.00763261 0)
(0.0286769 0.000749063 0)
(0.0344576 0.00747828 0)
(0.0370205 0.0123187 0)
(0.0367576 0.0152588 0)
(0.0343086 0.0164936 0)
(0.0302635 0.016374 0)
(0.0253595 0.0153206 0)
(0.0200628 0.0137447 0)
(0.0149254 0.0119355 0)
(0.0100938 0.0100422 0)
(0.00596522 0.00794882 0)
(0.00252903 0.00544087 0)
(0.000424968 0.0020933 0)
(0.000416414 -0.00360543 0)
(0.00228118 -0.00786153 0)
(0.00477643 -0.00927961 0)
(0.00672414 -0.00835913 0)
(0.00782315 -0.00594752 0)
(0.00759607 -0.0027214 0)
(0.00604457 0.000723774 0)
(0.00297098 0.00417746 0)
(-0.00167534 0.00758759 0)
(-0.00817003 0.0111914 0)
(-0.0167763 0.0152445 0)
(-0.0278768 0.0200427 0)
(-0.0417486 0.0256954 0)
(-0.0585488 0.0321677 0)
(-0.0781317 0.0391768 0)
(-0.100036 0.0462781 0)
(-0.123477 0.052872 0)
(-0.147517 0.0583778 0)
(-0.171229 0.0623191 0)
(-0.193856 0.0644283 0)
(-0.214855 0.0646095 0)
(-0.233882 0.0629202 0)
(-0.250751 0.0594927 0)
(-0.265372 0.0545125 0)
(-0.277725 0.0481668 0)
(-0.287818 0.0406448 0)
(-0.29568 0.0321117 0)
(-0.301334 0.0227232 0)
(-0.304803 0.012614 0)
(-0.306081 0.00192026 0)
(-0.305147 -0.00922298 0)
(-0.301946 -0.0206548 0)
(-0.296396 -0.0321854 0)
(-0.288381 -0.0435666 0)
(-0.277777 -0.0544894 0)
(-0.264449 -0.0645611 0)
(-0.248305 -0.073319 0)
(-0.229314 -0.0802338 0)
(-0.20758 -0.0847637 0)
(-0.183376 -0.0864053 0)
(-0.157218 -0.084798 0)
(-0.129849 -0.0798059 0)
(-0.102256 -0.0716179 0)
(-0.0755318 -0.0607649 0)
(-0.0507863 -0.0480945 0)
(-0.0289213 -0.0346297 0)
(-0.0105771 -0.0214109 0)
(0.00399628 -0.00932608 0)
(0.0147714 0.000967694 0)
(0.0219878 0.00907523 0)
(0.0259249 0.014839 0)
(0.0270804 0.0183387 0)
(0.0259204 0.0198462 0)
(0.0231354 0.0197909 0)
(0.0192258 0.0186463 0)
(0.0148695 0.0168355 0)
(0.0103547 0.0145967 0)
(0.00625764 0.0118961 0)
(0.00268671 0.00839642 0)
(0.000455997 0.00348791 0)
(0.000443395 -0.00483746 0)
(0.00220739 -0.0100168 0)
(0.00426937 -0.011283 0)
(0.00539795 -0.00944216 0)
(0.00530375 -0.0057477 0)
(0.00355165 -0.0010241 0)
(0.000125737 0.00401532 0)
(-0.00521865 0.00922 0)
(-0.0126553 0.0146014 0)
(-0.0225723 0.0205102 0)
(-0.0353212 0.0272295 0)
(-0.0512304 0.0350021 0)
(-0.0703589 0.0437344 0)
(-0.0924341 0.0530817 0)
(-0.116773 0.0623802 0)
(-0.142407 0.070879 0)
(-0.168277 0.0778498 0)
(-0.193441 0.0827986 0)
(-0.217191 0.0854578 0)
(-0.239061 0.085798 0)
(-0.258786 0.0839214 0)
(-0.276241 0.0800331 0)
(-0.291403 0.0743619 0)
(-0.304309 0.0671555 0)
(-0.315044 0.0586352 0)
(-0.323708 0.0490083 0)
(-0.33042 0.0384421 0)
(-0.335286 0.0270852 0)
(-0.338403 0.0150523 0)
(-0.339832 0.00245174 0)
(-0.339603 -0.0106205 0)
(-0.337687 -0.0240478 0)
(-0.334006 -0.0376902 0)
(-0.32841 -0.0513465 0)
(-0.32069 -0.0647471 0)
(-0.310571 -0.0775162 0)
(-0.297753 -0.0891738 0)
(-0.281924 -0.0991202 0)
(-0.262853 -0.106677 0)
(-0.240437 -0.111129 0)
(-0.214834 -0.111839 0)
(-0.186514 -0.108361 0)
(-0.156349 -0.100604 0)
(-0.125552 -0.0889246 0)
(-0.0955909 -0.074183 0)
(-0.0679025 -0.0576237 0)
(-0.0436826 -0.0406677 0)
(-0.0235958 -0.0246096 0)
(-0.00783977 -0.0104267 0)
(0.00383256 0.00130363 0)
(0.0117671 0.0103175 0)
(0.0164739 0.0166222 0)
(0.0183734 0.0204043 0)
(0.0180875 0.022049 0)
(0.0160831 0.0220104 0)
(0.0130642 0.0207771 0)
(0.00940731 0.0186322 0)
(0.00580928 0.015616 0)
(0.00251304 0.0112774 0)
(0.000421076 0.00485516 0)
(0.000446707 -0.0060764 0)
(0.00192421 -0.0118571 0)
(0.00322119 -0.0125583 0)
(0.00315052 -0.00938876 0)
(0.00144439 -0.0040455 0)
(-0.00226559 0.00253436 0)
(-0.00804796 0.00956964 0)
(-0.0162004 0.0170253 0)
(-0.027023 0.0249927 0)
(-0.0409405 0.0338917 0)
(-0.0582465 0.043905 0)
(-0.0789798 0.0550306 0)
(-0.102744 0.0667706 0)
(-0.128711 0.0783655 0)
(-0.155771 0.0888572 0)
(-0.182778 0.097446 0)
(-0.208774 0.103558 0)
(-0.233053 0.106958 0)
(-0.25518 0.107623 0)
(-0.274906 0.105721 0)
(-0.292148 0.101494 0)
(-0.306918 0.0952471 0)
(-0.319328 0.0872773 0)
(-0.329532 0.0778827 0)
(-0.337736 0.0673143 0)
(-0.344148 0.0557966 0)
(-0.34899 0.0434957 0)
(-0.352452 0.0305476 0)
(-0.354711 0.0170392 0)
(-0.355889 0.00304132 0)
(-0.356075 -0.0114005 0)
(-0.355284 -0.0262289 0)
(-0.353476 -0.0413759 0)
(-0.350512 -0.0567188 0)
(-0.346174 -0.0720726 0)
(-0.340123 -0.0871403 0)
(-0.33193 -0.101501 0)
(-0.321061 -0.114572 0)
(-0.306956 -0.125619 0)
(-0.289077 -0.133771 0)
(-0.26706 -0.138114 0)
(-0.240836 -0.137806 0)
(-0.210819 -0.132286 0)
(-0.177975 -0.121459 0)
(-0.143866 -0.105887 0)
(-0.110426 -0.0868128 0)
(-0.0796548 -0.0660093 0)
(-0.0531014 -0.0453798 0)
(-0.031598 -0.0265376 0)
(-0.0151282 -0.0104872 0)
(-0.00323548 0.00232617 0)
(0.00479069 0.0118917 0)
(0.00952491 0.0183915 0)
(0.0116346 0.0222087 0)
(0.0115943 0.0237651 0)
(0.0100997 0.0235681 0)
(0.00757774 0.0218991 0)
(0.00477934 0.0188393 0)
(0.00206317 0.0138478 0)
(0.000328525 0.00606672 0)
(0.000407688 -0.00711745 0)
(0.00135325 -0.0129651 0)
(0.00150349 -0.0125877 0)
(-0.000159419 -0.00765096 0)
(-0.00388323 -0.000284306 0)
(-0.00995142 0.00852393 0)
(-0.0185244 0.0179867 0)
(-0.0299358 0.028214 0)
(-0.0445618 0.0393354 0)
(-0.0627067 0.0517049 0)
(-0.0843932 0.0652012 0)
(-0.109158 0.079384 0)
(-0.13609 0.0932899 0)
(-0.163962 0.105884 0)
(-0.191563 0.116189 0)
(-0.217862 0.123608 0)
(-0.242141 0.127844 0)
(-0.263924 0.128922 0)
(-0.28298 0.127024 0)
(-0.299229 0.12248 0)
(-0.312756 0.115656 0)
(-0.323734 0.106956 0)
(-0.332432 0.0967444 0)
(-0.33914 0.0853653 0)
(-0.344184 0.073085 0)
(-0.347858 0.0601253 0)
(-0.35045 0.0466301 0)
(-0.352194 0.0327044 0)
(-0.3533 0.0183932 0)
(-0.353919 0.00372187 0)
(-0.354173 -0.0113193 0)
(-0.354118 -0.0267351 0)
(-0.353767 -0.0425341 0)
(-0.353045 -0.0586854 0)
(-0.351799 -0.0751151 0)
(-0.34974 -0.0916527 0)
(-0.346451 -0.108012 0)
(-0.341337 -0.123731 0)
(-0.333662 -0.13815 0)
(-0.322557 -0.150382 0)
(-0.307149 -0.159353 0)
(-0.286694 -0.163875 0)
(-0.260831 -0.162841 0)
(-0.229795 -0.155463 0)
(-0.194657 -0.141597 0)
(-0.157328 -0.121976 0)
(-0.120389 -0.0983176 0)
(-0.0865122 -0.073033 0)
(-0.05781 -0.0486712 0)
(-0.0352092 -0.027176 0)
(-0.0185388 -0.00957173 0)
(-0.0068965 0.00398479 0)
(0.000644707 0.0137328 0)
(0.00500241 0.0201575 0)
(0.00680426 0.0237144 0)
(0.00679128 0.024935 0)
(0.00545227 0.0240842 0)
(0.00355076 0.0212516 0)
(0.00153291 0.0158438 0)
(0.00022691 0.0069763 0)
(0.000306617 -0.00787125 0)
(0.000437294 -0.0131152 0)
(-0.000936726 -0.0111105 0)
(-0.00453259 -0.00398684 0)
(-0.0106011 0.00576776 0)
(-0.0193299 0.0171885 0)
(-0.0309964 0.02953 0)
(-0.0459041 0.0430151 0)
(-0.0643876 0.0576871 0)
(-0.0864265 0.0736294 0)
(-0.111607 0.0902337 0)
(-0.138929 0.106577 0)
(-0.167143 0.121388 0)
(-0.194905 0.133625 0)
(-0.221147 0.142518 0)
(-0.245045 0.147768 0)
(-0.266118 0.14935 0)
(-0.284088 0.147525 0)
(-0.29894 0.142666 0)
(-0.310796 0.135265 0)
(-0.319953 0.125807 0)
(-0.326754 0.11478 0)
(-0.331616 0.10259 0)
(-0.334923 0.0895875 0)
(-0.337056 0.0760182 0)
(-0.338322 0.0620708 0)
(-0.339004 0.0478454 0)
(-0.339308 0.0334049 0)
(-0.339422 0.018752 0)
(-0.339474 0.00387458 0)
(-0.339584 -0.0112755 0)
(-0.339821 -0.0267431 0)
(-0.340246 -0.0425876 0)
(-0.340857 -0.0588451 0)
(-0.341611 -0.0755353 0)
(-0.342356 -0.092614 0)
(-0.342823 -0.109959 0)
(-0.342554 -0.127299 0)
(-0.34088 -0.144177 0)
(-0.336876 -0.159871 0)
(-0.329414 -0.17337 0)
(-0.317233 -0.183364 0)
(-0.299169 -0.188358 0)
(-0.274438 -0.186874 0)
(-0.243027 -0.177808 0)
(-0.206007 -0.160857 0)
(-0.165702 -0.136938 0)
(-0.125405 -0.108307 0)
(-0.088679 -0.0782391 0)
(-0.0582205 -0.0500498 0)
(-0.0351114 -0.0261047 0)
(-0.0187792 -0.00726684 0)
(-0.0079539 0.00661006 0)
(-0.00126021 0.0162069 0)
(0.00229922 0.0221515 0)
(0.00365204 0.0250868 0)
(0.00341474 0.0253061 0)
(0.00237114 0.0229097 0)
(0.00103274 0.0173032 0)
(0.000136158 0.00762744 0)
(0.00011861 -0.00805294 0)
(-0.000882893 -0.0118498 0)
(-0.00414238 -0.00766089 0)
(-0.00995604 0.00202892 0)
(-0.0186175 0.0145063 0)
(-0.0302004 0.0288935 0)
(-0.0450885 0.0444908 0)
(-0.0634372 0.0615218 0)
(-0.0853908 0.0797598 0)
(-0.110447 0.0988325 0)
(-0.137743 0.117602 0)
(-0.165887 0.134807 0)
(-0.193549 0.149126 0)
(-0.219473 0.159727 0)
(-0.242825 0.166143 0)
(-0.262996 0.168384 0)
(-0.27976 0.166694 0)
(-0.293083 0.161579 0)
(-0.303217 0.153608 0)
(-0.310511 0.143425 0)
(-0.315463 0.131603 0)
(-0.318541 0.118667 0)
(-0.320238 0.105004 0)
(-0.320942 0.0909258 0)
(-0.32101 0.0766165 0)
(-0.320687 0.0622032 0)
(-0.320191 0.0477272 0)
(-0.319651 0.0332046 0)
(-0.319197 0.0186005 0)
(-0.318901 0.00387731 0)
(-0.318855 -0.0110329 0)
(-0.319117 -0.0261908 0)
(-0.319765 -0.0416762 0)
(-0.320847 -0.0575557 0)
(-0.322415 -0.0739023 0)
(-0.324455 -0.0907585 0)
(-0.326895 -0.108136 0)
(-0.329511 -0.125957 0)
(-0.331898 -0.144015 0)
(-0.333361 -0.161878 0)
(-0.332889 -0.178815 0)
(-0.329112 -0.193697 0)
(-0.32042 -0.204989 0)
(-0.305165 -0.21082 0)
(-0.282076 -0.209252 0)
(-0.250755 -0.198719 0)
(-0.212228 -0.178677 0)
(-0.169202 -0.150189 0)
(-0.125841 -0.116233 0)
(-0.0866881 -0.081146 0)
(-0.0551388 -0.0492629 0)
(-0.0321943 -0.0232362 0)
(-0.0168273 -0.00371344 0)
(-0.00718335 0.0100479 0)
(-0.00167416 0.0189833 0)
(0.00102446 0.0240086 0)
(0.00178465 0.0255636 0)
(0.00147726 0.0238159 0)
(0.000685172 0.0182345 0)
(8.45202e-05 0.00803273 0)
(-0.000164574 -0.00749278 0)
(-0.00258694 -0.00893634 0)
(-0.00800373 -0.0020687 0)
(-0.0162018 0.0104851 0)
(-0.0275647 0.0259594 0)
(-0.0420165 0.0435861 0)
(-0.0599975 0.0626547 0)
(-0.0813715 0.0832162 0)
(-0.105979 0.104604 0)
(-0.132797 0.125916 0)
(-0.16065 0.145605 0)
(-0.187965 0.162306 0)
(-0.213534 0.174868 0)
(-0.236283 0.182776 0)
(-0.255653 0.185901 0)
(-0.271296 0.184577 0)
(-0.283303 0.179338 0)
(-0.291923 0.170934 0)
(-0.297682 0.160103 0)
(-0.301112 0.147584 0)
(-0.30283 0.133961 0)
(-0.303328 0.119722 0)
(-0.303073 0.105179 0)
(-0.30237 0.0905567 0)
(-0.301487 0.0759525 0)
(-0.300558 0.0614231 0)
(-0.299708 0.0469537 0)
(-0.298979 0.0325243 0)
(-0.298434 0.0180782 0)
(-0.298087 0.00357036 0)
(-0.297997 -0.0110668 0)
(-0.298195 -0.0258866 0)
(-0.29876 -0.0409618 0)
(-0.299755 -0.0563554 0)
(-0.301279 -0.0721493 0)
(-0.303406 -0.0884176 0)
(-0.306209 -0.105242 0)
(-0.309677 -0.122671 0)
(-0.313699 -0.140704 0)
(-0.31794 -0.159205 0)
(-0.321776 -0.177819 0)
(-0.324154 -0.195833 0)
(-0.323568 -0.21205 0)
(-0.318077 -0.224701 0)
(-0.305568 -0.23151 0)
(-0.284207 -0.229965 0)
(-0.253151 -0.21793 0)
(-0.213292 -0.194497 0)
(-0.167782 -0.160949 0)
(-0.121747 -0.121173 0)
(-0.0808936 -0.0809722 0)
(-0.0491734 -0.0457453 0)
(-0.0272924 -0.0183766 0)
(-0.0134478 0.00118063 0)
(-0.00537248 0.0141176 0)
(-0.00112137 0.0218165 0)
(0.00061592 0.0250534 0)
(0.000928546 0.0241931 0)
(0.000515521 0.0188518 0)
(7.34651e-05 0.00833901 0)
(-0.000550338 -0.00589124 0)
(-0.00464091 -0.00401909 0)
(-0.0123904 0.00594223 0)
(-0.0230272 0.0215744 0)
(-0.0370586 0.0402383 0)
(-0.0542023 0.0612368 0)
(-0.0748796 0.0837386 0)
(-0.098547 0.10744 0)
(-0.124714 0.131151 0)
(-0.151923 0.153506 0)
(-0.178876 0.172763 0)
(-0.204004 0.187674 0)
(-0.22634 0.197398 0)
(-0.245045 0.201794 0)
(-0.259901 0.201105 0)
(-0.270869 0.196013 0)
(-0.278392 0.187341 0)
(-0.282973 0.176033 0)
(-0.28534 0.162922 0)
(-0.286093 0.148743 0)
(-0.285858 0.134014 0)
(-0.28504 0.119117 0)
(-0.284007 0.104248 0)
(-0.282931 0.0895269 0)
(-0.281964 0.0749653 0)
(-0.28113 0.0605585 0)
(-0.280475 0.0462512 0)
(-0.279967 0.0320039 0)
(-0.279625 0.0177531 0)
(-0.279424 0.0034588 0)
(-0.279397 -0.0109351 0)
(-0.279555 -0.0254655 0)
(-0.279966 -0.0401864 0)
(-0.280685 -0.0551423 0)
(-0.281822 -0.0704002 0)
(-0.283478 -0.0860295 0)
(-0.285792 -0.102126 0)
(-0.288871 -0.11879 0)
(-0.292806 -0.136131 0)
(-0.29756 -0.154213 0)
(-0.302925 -0.173 0)
(-0.308344 -0.192222 0)
(-0.312807 -0.211218 0)
(-0.314704 -0.22873 0)
(-0.31184 -0.242758 0)
(-0.301647 -0.250558 0)
(-0.281731 -0.248958 0)
(-0.250751 -0.235107 0)
(-0.209486 -0.207709 0)
(-0.161604 -0.168355 0)
(-0.113412 -0.122296 0)
(-0.0718313 -0.0771261 0)
(-0.0411469 -0.0394553 0)
(-0.021219 -0.0117214 0)
(-0.00943486 0.00686242 0)
(-0.00307815 0.0182346 0)
(-0.000198947 0.0237295 0)
(0.000697301 0.0241125 0)
(0.000520719 0.0192595 0)
(0.000103877 0.00861355 0)
(-0.0010144 -0.00311376 0)
(-0.0069074 0.00296932 0)
(-0.0170132 0.0163078 0)
(-0.0299907 0.0351121 0)
(-0.0464844 0.057021 0)
(-0.065938 0.0813147 0)
(-0.0886819 0.106917 0)
(-0.113711 0.133042 0)
(-0.140267 0.158004 0)
(-0.166603 0.180134 0)
(-0.191483 0.197723 0)
(-0.213466 0.209793 0)
(-0.231905 0.215907 0)
(-0.246252 0.216337 0)
(-0.256682 0.211735 0)
(-0.263477 0.203114 0)
(-0.267385 0.191524 0)
(-0.26906 0.178007 0)
(-0.269312 0.163377 0)
(-0.268684 0.148277 0)
(-0.26771 0.133085 0)
(-0.266644 0.118042 0)
(-0.26572 0.103221 0)
(-0.264971 0.0886431 0)
(-0.264452 0.074256 0)
(-0.264102 0.0600165 0)
(-0.263916 0.0458519 0)
(-0.26382 0.0317206 0)
(-0.263812 0.0175667 0)
(-0.263847 0.00336446 0)
(-0.263947 -0.0109244 0)
(-0.264107 -0.0253165 0)
(-0.264383 -0.0398432 0)
(-0.264815 -0.0545253 0)
(-0.265502 -0.069404 0)
(-0.266534 -0.0845257 0)
(-0.268061 -0.0999671 0)
(-0.270225 -0.115828 0)
(-0.273208 -0.132247 0)
(-0.277147 -0.149381 0)
(-0.28212 -0.167382 0)
(-0.288005 -0.186312 0)
(-0.294359 -0.206006 0)
(-0.300203 -0.225858 0)
(-0.303872 -0.244548 0)
(-0.302933 -0.259806 0)
(-0.294397 -0.268356 0)
(-0.275325 -0.266241 0)
(-0.243915 -0.249821 0)
(-0.200919 -0.217394 0)
(-0.150741 -0.171241 0)
(-0.101119 -0.118486 0)
(-0.0601922 -0.0691259 0)
(-0.0319363 -0.0303625 0)
(-0.0148267 -0.0037577 0)
(-0.00542617 0.0128423 0)
(-0.000980691 0.0215153 0)
(0.000616843 0.0236801 0)
(0.000628192 0.0196251 0)
(0.000159603 0.00897931 0)
(-0.00153356 0.00102048 0)
(-0.00926366 0.0121451 0)
(-0.0216254 0.0290329 0)
(-0.0367235 0.0510037 0)
(-0.0553252 0.0760789 0)
(-0.0765421 0.103385 0)
(-0.100574 0.131497 0)
(-0.125976 0.159101 0)
(-0.151842 0.184143 0)
(-0.176289 0.204842 0)
(-0.198288 0.219715 0)
(-0.216604 0.228169 0)
(-0.230973 0.230231 0)
(-0.241176 0.226623 0)
(-0.247782 0.218388 0)
(-0.251326 0.206802 0)
(-0.252755 0.193032 0)
(-0.252742 0.178094 0)
(-0.252052 0.162686 0)
(-0.251081 0.147283 0)
(-0.25022 0.132101 0)
(-0.249553 0.117237 0)
(-0.249195 0.10266 0)
(-0.249069 0.0883238 0)
(-0.249172 0.074139 0)
(-0.249391 0.0600486 0)
(-0.249706 0.0459812 0)
(-0.250024 0.0319046 0)
(-0.250346 0.0177773 0)
(-0.250619 0.00358862 0)
(-0.250867 -0.0106825 0)
(-0.251074 -0.0250365 0)
(-0.251291 -0.039486 0)
(-0.251539 -0.0540334 0)
(-0.251897 -0.0686966 0)
(-0.25243 -0.0834968 0)
(-0.253263 -0.0984802 0)
(-0.25452 -0.113719 0)
(-0.256392 -0.129327 0)
(-0.259069 -0.145474 0)
(-0.262774 -0.162374 0)
(-0.267651 -0.180268 0)
(-0.273697 -0.199327 0)
(-0.280549 -0.219494 0)
(-0.287271 -0.240201 0)
(-0.292117 -0.260025 0)
(-0.292409 -0.276344 0)
(-0.284742 -0.285213 0)
(-0.26566 -0.281779 0)
(-0.233023 -0.261507 0)
(-0.187766 -0.222542 0)
(-0.135428 -0.168358 0)
(-0.0854836 -0.10904 0)
(-0.047013 -0.0569766 0)
(-0.0225881 -0.0192872 0)
(-0.00886551 0.00475447 0)
(-0.00214041 0.0179889 0)
(0.000469046 0.0227541 0)
(0.000750923 0.0199324 0)
(0.000225576 0.00944719 0)
(-0.0020513 0.00647865 0)
(-0.0115015 0.0233127 0)
(-0.0258692 0.0437771 0)
(-0.0427386 0.0687662 0)
(-0.0629668 0.0967465 0)
(-0.0852997 0.126564 0)
(-0.109806 0.156401 0)
(-0.134675 0.18445 0)
(-0.158987 0.208463 0)
(-0.180859 0.226731 0)
(-0.199562 0.238143 0)
(-0.214126 0.242564 0)
(-0.224702 0.240532 0)
(-0.231389 0.233199 0)
(-0.235086 0.221937 0)
(-0.236469 0.20816 0)
(-0.236547 0.193021 0)
(-0.235894 0.177399 0)
(-0.23515 0.161808 0)
(-0.234521 0.14653 0)
(-0.234251 0.131624 0)
(-0.234281 0.117072 0)
(-0.234643 0.102771 0)
(-0.235191 0.0886424 0)
(-0.235899 0.0745872 0)
(-0.236634 0.0605529 0)
(-0.237381 0.0464825 0)
(-0.238047 0.0323589 0)
(-0.238643 0.0181582 0)
(-0.239115 0.00388476 0)
(-0.239496 -0.0104671 0)
(-0.239764 -0.0248848 0)
(-0.23997 -0.0393669 0)
(-0.240117 -0.0539026 0)
(-0.240274 -0.0684922 0)
(-0.240476 -0.0831382 0)
(-0.240818 -0.0978584 0)
(-0.241385 -0.112693 0)
(-0.24233 -0.127714 0)
(-0.243824 -0.143052 0)
(-0.246108 -0.158901 0)
(-0.249438 -0.175547 0)
(-0.254056 -0.193316 0)
(-0.260048 -0.21251 0)
(-0.267137 -0.233172 0)
(-0.274399 -0.254761 0)
(-0.279952 -0.275662 0)
(-0.280832 -0.292751 0)
(-0.273157 -0.301235 0)
(-0.253041 -0.295152 0)
(-0.218152 -0.269157 0)
(-0.170085 -0.221583 0)
(-0.116018 -0.158359 0)
(-0.0675255 -0.0934393 0)
(-0.0336427 -0.0415134 0)
(-0.0140787 -0.0070935 0)
(-0.00411143 0.0125864 0)
(1.44599e-05 0.0211135 0)
(0.000787158 0.0201373 0)
(0.000282513 0.0100362 0)
(-0.00252923 0.0132256 0)
(-0.013486 0.0363232 0)
(-0.0295184 0.0603089 0)
(-0.0477337 0.0880878 0)
(-0.0690355 0.118598 0)
(-0.0918104 0.150302 0)
(-0.116029 0.181001 0)
(-0.139623 0.20849 0)
(-0.161779 0.230516 0)
(-0.180715 0.245594 0)
(-0.196063 0.2531 0)
(-0.207144 0.253397 0)
(-0.214514 0.247541 0)
(-0.218526 0.237049 0)
(-0.2203 0.223503 0)
(-0.220521 0.208313 0)
(-0.220151 0.192509 0)
(-0.219585 0.176757 0)
(-0.219308 0.161363 0)
(-0.219341 0.146429 0)
(-0.219814 0.131888 0)
(-0.220565 0.117647 0)
(-0.22159 0.103572 0)
(-0.222706 0.0895755 0)
(-0.223897 0.0755695 0)
(-0.225024 0.0615156 0)
(-0.226092 0.0473761 0)
(-0.227012 0.0331494 0)
(-0.227808 0.0188278 0)
(-0.228432 0.00442704 0)
(-0.228922 -0.0100462 0)
(-0.229255 -0.0245716 0)
(-0.229482 -0.0391376 0)
(-0.229601 -0.0537273 0)
(-0.229668 -0.0683299 0)
(-0.2297 -0.0829383 0)
(-0.229769 -0.0975506 0)
(-0.22992 -0.112184 0)
(-0.230261 -0.12687 0)
(-0.230907 -0.141693 0)
(-0.232055 -0.156785 0)
(-0.233948 -0.172387 0)
(-0.2369 -0.188831 0)
(-0.241223 -0.206567 0)
(-0.24709 -0.226007 0)
(-0.254298 -0.247313 0)
(-0.261874 -0.269898 0)
(-0.267757 -0.291839 0)
(-0.268548 -0.309285 0)
(-0.259905 -0.31628 0)
(-0.237506 -0.305633 0)
(-0.199264 -0.271256 0)
(-0.147972 -0.2128 0)
(-0.0933239 -0.140111 0)
(-0.0488497 -0.0725346 0)
(-0.0215443 -0.0241064 0)
(-0.00724322 0.00446253 0)
(-0.000924123 0.0183055 0)
(0.000667743 0.0200256 0)
(0.000319725 0.0106673 0)
(-0.00290629 0.0210163 0)
(-0.0150318 0.0507462 0)
(-0.0322938 0.0780814 0)
(-0.05137 0.108296 0)
(-0.0731679 0.140825 0)
(-0.0957528 0.173693 0)
(-0.119048 0.204389 0)
(-0.140843 0.230435 0)
(-0.160519 0.249747 0)
(-0.176466 0.261179 0)
(-0.188698 0.264661 0)
(-0.196818 0.261065 0)
(-0.201732 0.251917 0)
(-0.203951 0.238985 0)
(-0.204691 0.223925 0)
(-0.204541 0.20802 0)
(-0.204341 0.192096 0)
(-0.204283 0.176577 0)
(-0.204704 0.161577 0)
(-0.205478 0.147049 0)
(-0.206666 0.132851 0)
(-0.208047 0.118846 0)
(-0.20961 0.104903 0)
(-0.211168 0.0909406 0)
(-0.212719 0.0768928 0)
(-0.214135 0.0627382 0)
(-0.215436 0.0484593 0)
(-0.216539 0.0340677 0)
(-0.217482 0.0195708 0)
(-0.218216 0.00499336 0)
(-0.218787 -0.00964697 0)
(-0.219172 -0.0243243 0)
(-0.219423 -0.0390187 0)
(-0.219533 -0.05371 0)
(-0.219557 -0.06838 0)
(-0.219502 -0.0830188 0)
(-0.219423 -0.0976128 0)
(-0.219343 -0.112169 0)
(-0.219332 -0.126689 0)
(-0.219455 -0.141222 0)
(-0.219844 -0.155835 0)
(-0.220676 -0.170702 0)
(-0.222225 -0.186075 0)
(-0.224846 -0.202393 0)
(-0.228917 -0.220193 0)
(-0.234704 -0.240055 0)
(-0.242002 -0.262197 0)
(-0.249774 -0.285927 0)
(-0.255586 -0.308788 0)
(-0.255587 -0.325854 0)
(-0.244791 -0.329698 0)
(-0.21877 -0.31164 0)
(-0.176055 -0.265623 0)
(-0.121789 -0.194022 0)
(-0.0687881 -0.113694 0)
(-0.0316273 -0.0480137 0)
(-0.0117741 -0.00725521 0)
(-0.00246694 0.013813 0)
(0.000356443 0.0193782 0)
(0.000329921 0.0112803 0)
(-0.00315844 0.0296178 0)
(-0.0160705 0.0662586 0)
(-0.0340996 0.0967541 0)
(-0.0535503 0.129032 0)
(-0.0752967 0.163048 0)
(-0.0971505 0.196387 0)
(-0.119044 0.226314 0)
(-0.138726 0.250219 0)
(-0.155831 0.266329 0)
(-0.168961 0.273917 0)
(-0.178498 0.273509 0)
(-0.184292 0.266447 0)
(-0.187506 0.254643 0)
(-0.188702 0.23998 0)
(-0.189088 0.224063 0)
(-0.189088 0.207954 0)
(-0.189391 0.192245 0)
(-0.19 0.177127 0)
(-0.19114 0.162561 0)
(-0.192582 0.148394 0)
(-0.194359 0.134452 0)
(-0.196226 0.120586 0)
(-0.198188 0.106682 0)
(-0.200062 0.0926753 0)
(-0.20187 0.0785242 0)
(-0.203489 0.0642215 0)
(-0.204958 0.0497682 0)
(-0.206195 0.035185 0)
(-0.207248 0.0204924 0)
(-0.208066 0.00572086 0)
(-0.208703 -0.00910203 0)
(-0.209132 -0.0239471 0)
(-0.209408 -0.0387868 0)
(-0.209523 -0.0536007 0)
(-0.209534 -0.0683649 0)
(-0.20944 -0.0830717 0)
(-0.209296 -0.0977013 0)
(-0.209107 -0.11226 0)
(-0.208924 -0.126734 0)
(-0.208775 -0.141153 0)
(-0.208735 -0.155534 0)
(-0.20891 -0.169986 0)
(-0.209488 -0.18466 0)
(-0.210766 -0.199903 0)
(-0.213138 -0.216203 0)
(-0.217077 -0.234282 0)
(-0.222865 -0.254827 0)
(-0.230327 -0.278123 0)
(-0.238127 -0.303165 0)
(-0.243457 -0.326635 0)
(-0.24168 -0.3421 0)
(-0.227408 -0.340136 0)
(-0.196197 -0.310877 0)
(-0.148407 -0.249282 0)
(-0.0924231 -0.164057 0)
(-0.0450306 -0.0807929 0)
(-0.0177364 -0.0237009 0)
(-0.0047493 0.00699793 0)
(-0.00014174 0.0178703 0)
(0.000307917 0.0117711 0)
(-0.00324779 0.0386392 0)
(-0.0165029 0.0823055 0)
(-0.0348126 0.115704 0)
(-0.0541643 0.149602 0)
(-0.0753694 0.18453 0)
(-0.0960666 0.217674 0)
(-0.116243 0.246192 0)
(-0.133697 0.267464 0)
(-0.148335 0.280133 0)
(-0.158985 0.283938 0)
(-0.166351 0.279989 0)
(-0.170468 0.270033 0)
(-0.172654 0.256249 0)
(-0.173432 0.240504 0)
(-0.173924 0.224253 0)
(-0.174366 0.208294 0)
(-0.175301 0.192986 0)
(-0.176581 0.178319 0)
(-0.178357 0.164151 0)
(-0.180346 0.150266 0)
(-0.182578 0.136486 0)
(-0.184807 0.12267 0)
(-0.187061 0.108731 0)
(-0.189167 0.0946183 0)
(-0.191167 0.0803148 0)
(-0.192943 0.0658238 0)
(-0.194545 0.0511618 0)
(-0.195891 0.0363563 0)
(-0.197034 0.0214395 0)
(-0.197922 0.00644654 0)
(-0.198612 -0.0085847 0)
(-0.199074 -0.0236222 0)
(-0.199368 -0.0386298 0)
(-0.199482 -0.0535869 0)
(-0.199476 -0.0684634 0)
(-0.199351 -0.0832557 0)
(-0.19916 -0.0979396 0)
(-0.198907 -0.112529 0)
(-0.198635 -0.127001 0)
(-0.198351 -0.141386 0)
(-0.198097 -0.155669 0)
(-0.197921 -0.16992 0)
(-0.197926 -0.184198 0)
(-0.198314 -0.198745 0)
(-0.199392 -0.213907 0)
(-0.201649 -0.230363 0)
(-0.205574 -0.248952 0)
(-0.211556 -0.270562 0)
(-0.219195 -0.295374 0)
(-0.2269 -0.321809 0)
(-0.231023 -0.345193 0)
(-0.226327 -0.356856 0)
(-0.206824 -0.345238 0)
(-0.169161 -0.299644 0)
(-0.116456 -0.219361 0)
(-0.062199 -0.123293 0)
(-0.0252481 -0.0465065 0)
(-0.00787912 -0.00267042 0)
(-0.000855105 0.0151284 0)
(0.00026724 0.01208 0)
(-0.00318063 0.0477593 0)
(-0.0163527 0.0985262 0)
(-0.0344879 0.134623 0)
(-0.0533251 0.169757 0)
(-0.0735866 0.205106 0)
(-0.0928264 0.237528 0)
(-0.111117 0.264179 0)
(-0.126372 0.282536 0)
(-0.138764 0.291733 0)
(-0.147338 0.291985 0)
(-0.153054 0.284948 0)
(-0.156063 0.27268 0)
(-0.157739 0.25751 0)
(-0.158504 0.241181 0)
(-0.159353 0.224941 0)
(-0.160344 0.209307 0)
(-0.161897 0.194444 0)
(-0.163757 0.180183 0)
(-0.166041 0.166322 0)
(-0.16844 0.152618 0)
(-0.171002 0.13891 0)
(-0.173488 0.125069 0)
(-0.175953 0.111039 0)
(-0.178229 0.0967806 0)
(-0.180376 0.0822968 0)
(-0.182276 0.0675971 0)
(-0.183988 0.0527114 0)
(-0.185428 0.0376707 0)
(-0.186653 0.0225185 0)
(-0.187607 0.00729284 0)
(-0.188348 -0.00795804 0)
(-0.188846 -0.0232003 0)
(-0.189161 -0.0383882 0)
(-0.18928 -0.0535022 0)
(-0.189266 -0.0685043 0)
(-0.18912 -0.0833965 0)
(-0.188899 -0.0981493 0)
(-0.188606 -0.112788 0)
(-0.188286 -0.127284 0)
(-0.18794 -0.141681 0)
(-0.187594 -0.155946 0)
(-0.187261 -0.170137 0)
(-0.186983 -0.184247 0)
(-0.186873 -0.198432 0)