/*--------------------------------*- C++ -*----------------------------------*\
| =========                 |                                                 |
| \\      /  F ield         | OpenFOAM: The Open Source CFD Toolbox           |
|  \\    /   O peration     | Version:  2406                                  |
|   \\  /    A nd           | Website:  www.openfoam.com                      |
|    \\/     M anipulation  |                                                 |
\*---------------------------------------------------------------------------*/
FoamFile
{
    version     2.0;
    format      ascii;
    arch        "LSB;label=32;scalar=64";
    class       surfaceScalarField;
    location    "26.6";
    object      phi_0;
}
// * * * * * * * * * * * * * * * * * * * * * * * * * * * * * * * * * * * * * //

dimensions      [0 3 -1 0 0 0 0];

oriented        oriented;

internalField   nonuniform List<scalar> 
28560
(
2.24233e-09
-2.23972e-09
4.78133e-08
-4.5571e-08
1.44415e-07
-9.6602e-08
2.80302e-07
-1.35887e-07
4.41791e-07
-1.61488e-07
6.16025e-07
-1.74235e-07
7.92142e-07
-1.76116e-07
9.61544e-07
-1.69402e-07
1.1179e-06
-1.56356e-07
1.25698e-06
-1.39077e-07
1.37641e-06
-1.1943e-07
1.4754e-06
-9.89914e-08
1.55441e-06
-7.90165e-08
1.61484e-06
-6.04288e-08
1.65867e-06
-4.38229e-08
1.68815e-06
-2.94882e-08
1.70567e-06
-1.75137e-08
1.7131e-06
-7.43078e-09
1.71179e-06
1.31307e-09
1.70313e-06
8.65681e-09
1.68726e-06
1.58708e-08
1.66372e-06
2.35401e-08
1.63133e-06
3.23926e-08
1.58822e-06
4.31091e-08
1.53193e-06
5.629e-08
1.45949e-06
7.24363e-08
1.36755e-06
9.19429e-08
1.25244e-06
1.15107e-07
1.1103e-06
1.42143e-07
9.37092e-07
1.73205e-07
7.28689e-07
2.08403e-07
4.80877e-07
2.47812e-07
1.89405e-07
2.91472e-07
-1.49975e-07
3.3938e-07
-5.41447e-07
3.91473e-07
-9.89053e-07
4.47605e-07
-1.49658e-06
5.07532e-07
-2.06747e-06
5.70884e-07
-2.70463e-06
6.37159e-07
-3.41033e-06
7.05707e-07
-4.18606e-06
7.75728e-07
-5.03233e-06
8.46271e-07
-5.94857e-06
9.1624e-07
-6.93298e-06
9.84409e-07
-7.98242e-06
1.04944e-06
-9.09231e-06
1.10989e-06
-1.02566e-05
1.16426e-06
-1.14676e-05
1.21102e-06
-1.27162e-05
1.24861e-06
-1.39917e-05
1.27552e-06
-1.5282e-05
1.29029e-06
-1.65736e-05
1.29155e-06
-1.78516e-05
1.27804e-06
-1.91003e-05
1.24866e-06
-2.03028e-05
1.20249e-06
-2.14415e-05
1.13879e-06
-2.24986e-05
1.05706e-06
-2.34557e-05
9.57053e-07
-2.42945e-05
8.388e-07
-2.49972e-05
7.02686e-07
-2.55465e-05
5.49392e-07
-2.59272e-05
3.80694e-07
-2.61244e-05
1.97114e-07
-2.61187e-05
-5.65608e-09
-2.59081e-05
-2.10578e-07
-2.54809e-05
-4.27228e-07
-2.4832e-05
-6.48924e-07
-2.39598e-05
-8.72196e-07
-2.28666e-05
-1.09315e-06
-2.1559e-05
-1.3076e-06
-2.00479e-05
-1.51109e-06
-1.83489e-05
-1.69907e-06
-1.64819e-05
-1.86697e-06
-1.44715e-05
-2.0104e-06
-1.23462e-05
-2.1253e-06
-1.01381e-05
-2.20813e-06
-7.882e-06
-2.25607e-06
-5.61481e-06
-2.26718e-06
-3.37425e-06
-2.24057e-06
-1.19779e-06
-2.17646e-06
8.78519e-07
-2.07631e-06
2.82127e-06
-1.94275e-06
4.60086e-06
-1.77958e-06
6.19242e-06
-1.59157e-06
7.57672e-06
-1.3843e-06
8.74062e-06
-1.1639e-06
9.67741e-06
-9.36791e-07
1.03868e-05
-7.09358e-07
1.08745e-05
-4.87684e-07
1.11518e-05
-2.77298e-07
1.12355e-05
-8.37967e-08
1.11431e-05
9.24467e-08
1.0897e-05
2.46117e-07
1.05227e-05
3.74302e-07
1.00441e-05
4.78562e-07
9.48486e-06
5.59264e-07
8.86755e-06
6.17312e-07
8.213e-06
6.54542e-07
7.53975e-06
6.73258e-07
6.86369e-06
6.76051e-07
6.19806e-06
6.65633e-07
5.55337e-06
6.44688e-07
4.93761e-06
6.15768e-07
4.35639e-06
5.81218e-07
3.81326e-06
5.43125e-07
3.30997e-06
5.03295e-07
2.84672e-06
4.63249e-07
2.42251e-06
4.24212e-07
2.0354e-06
3.87107e-07
1.68289e-06
3.52515e-07
1.36226e-06
3.20621e-07
1.07115e-06
2.91118e-07
8.0804e-07
2.63105e-07
5.73046e-07
2.34995e-07
3.68552e-07
2.04494e-07
1.99728e-07
1.68824e-07
7.434e-08
1.25388e-07
8.39151e-10
7.35009e-08
-1.71591e-08
1.79982e-08
-1.71591e-08
4.44811e-08
-4.67208e-08
1.97472e-07
-1.98562e-07
4.55687e-07
-3.54817e-07
7.96267e-07
-4.76466e-07
1.19152e-06
-5.56737e-07
1.61432e-06
-5.97038e-07
2.04067e-06
-6.02464e-07
2.45079e-06
-5.79523e-07
2.82949e-06
-5.35062e-07
3.16607e-06
-4.75653e-07
3.45389e-06
-4.07256e-07
3.68989e-06
-3.34983e-07
3.87383e-06
-2.62962e-07
4.00767e-06
-1.94265e-07
4.09474e-06
-1.30898e-07
4.1391e-06
-7.38462e-08
4.14477e-06
-2.31862e-08
4.11539e-06
2.195e-08
4.05363e-06
6.30774e-08
3.96028e-06
1.02005e-07
3.83496e-06
1.41192e-07
3.67534e-06
1.8316e-07
3.47732e-06
2.30415e-07
3.2351e-06
2.85324e-07
2.94141e-06
3.49985e-07
2.58769e-06
4.26154e-07
2.16442e-06
5.15213e-07
1.66134e-06
6.18185e-07
1.06772e-06
7.35767e-07
3.72539e-07
8.68384e-07
-4.35284e-07
1.01623e-06
-1.36674e-06
1.17927e-06
-2.43252e-06
1.35725e-06
-3.64281e-06
1.54967e-06
-5.00702e-06
1.75569e-06
-6.5335e-06
1.97408e-06
-8.22916e-06
2.20319e-06
-1.00991e-05
2.44086e-06
-1.21464e-05
2.6844e-06
-1.43713e-05
2.93063e-06
-1.67714e-05
3.17581e-06
-1.93409e-05
3.41578e-06
-2.20706e-05
3.64597e-06
-2.49477e-05
3.86149e-06
-2.79555e-05
4.05724e-06
-3.10737e-05
4.22806e-06
-3.42782e-05
4.36882e-06
-3.75417e-05
4.47454e-06
-4.08337e-05
4.54056e-06
-4.41208e-05
4.56262e-06
-4.73675e-05
4.53697e-06
-5.05364e-05
4.46045e-06
-5.35889e-05
4.33058e-06
-5.64858e-05
4.14559e-06
-5.91878e-05
3.90446e-06
-6.1656e-05
3.60695e-06
-6.38525e-05
3.25363e-06
-6.57413e-05
2.84586e-06
-6.72884e-05
2.38582e-06
-6.84623e-05
1.87659e-06
-6.9235e-05
1.3221e-06
-6.95813e-05
7.27025e-07
-6.94831e-05
9.88912e-08
-6.89258e-05
-5.62988e-07
-6.78934e-05
-1.24289e-06
-6.63852e-05
-1.93543e-06
-6.4402e-05
-2.63211e-06
-6.19515e-05
-3.32276e-06
-5.90479e-05
-3.99673e-06
-5.57126e-05
-4.64286e-06
-5.19741e-05
-5.24962e-06
-4.78679e-05
-5.80533e-06
-4.34363e-05
-6.2985e-06
-3.87286e-05
-6.71809e-06
-3.38e-05
-7.05398e-06
-2.87108e-05
-7.29729e-06
-2.3526e-05
-7.44083e-06
-1.83137e-05
-7.4795e-06
-1.31437e-05
-7.41062e-06
-8.0859e-06
-7.23422e-06
-3.209e-06
-6.95321e-06
1.42175e-06
-6.5735e-06
5.74607e-06
-6.1039e-06
9.71039e-06
-5.55589e-06
1.32694e-05
-4.94333e-06
1.63874e-05
-4.28192e-06
1.90393e-05
-3.58863e-06
2.1211e-05
-2.88105e-06
2.28999e-05
-2.17662e-06
2.41147e-05
-1.49206e-06
2.48734e-05
-8.42471e-07
2.52056e-05
-2.39817e-07
2.51485e-05
3.032e-07
2.47436e-05
7.79223e-07
2.40378e-05
1.18438e-06
2.30808e-05
1.5163e-06
2.19224e-05
1.77565e-06
2.06115e-05
1.96551e-06
1.91937e-05
2.09097e-06
1.77112e-05
2.1586e-06
1.62009e-05
2.17597e-06
1.46944e-05
2.15114e-06
1.32179e-05
2.09227e-06
1.17919e-05
2.00726e-06
1.04315e-05
1.90346e-06
9.1473e-06
1.78752e-06
7.94531e-06
1.66524e-06
6.82808e-06
1.54144e-06
5.79526e-06
1.41993e-06
4.8445e-06
1.30328e-06
3.97245e-06
1.19267e-06
3.17594e-06
1.08763e-06
2.45332e-06
9.85728e-07
1.80585e-06
8.82458e-07
1.23902e-06
7.71329e-07
7.63141e-07
6.447e-07
3.92677e-07
4.95852e-07
1.42673e-07
3.23505e-07
2.07551e-08
1.39916e-07
3.59603e-09
9.38476e-08
-1.40568e-07
3.49907e-07
-4.54621e-07
7.4099e-07
-7.45901e-07
1.23504e-06
-9.70519e-07
1.79663e-06
-1.11833e-06
2.39094e-06
-1.19135e-06
2.98654e-06
-1.19806e-06
3.55687e-06
-1.14986e-06
4.08099e-06
-1.05917e-06
4.54352e-06
-9.38188e-07
4.93436e-06
-7.98099e-07
5.248e-06
-6.48615e-07
5.48266e-06
-4.97626e-07
5.63944e-06
-3.5104e-07
5.72127e-06
-2.12732e-07
5.73202e-06
-8.45958e-08
5.67552e-06
3.33106e-08
5.55495e-06
1.42524e-07
5.37197e-06
2.46059e-07
5.12613e-06
3.47846e-07
4.81473e-06
4.52587e-07
4.43255e-06
5.65346e-07
3.97178e-06
6.9118e-07
3.42225e-06
8.3485e-07
2.77167e-06
1.00057e-06
2.00599e-06
1.19184e-06
1.10983e-06
1.41137e-06
6.69289e-08
1.66109e-06
-1.13948e-06
1.94218e-06
-2.52622e-06
2.25512e-06
-4.10979e-06
2.5998e-06
-5.90597e-06
2.97544e-06
-7.92935e-06
3.38064e-06
-1.01929e-05
3.81322e-06
-1.27074e-05
4.27018e-06
-1.54809e-05
4.74755e-06
-1.8518e-05
5.24031e-06
-2.18195e-05
5.74236e-06
-2.53816e-05
6.24654e-06
-2.91957e-05
6.74468e-06
-3.32476e-05
7.22771e-06
-3.75177e-05
7.68592e-06
-4.19809e-05
8.10911e-06
-4.66063e-05
8.4869e-06
-5.13581e-05
8.80901e-06
-5.61956e-05
9.06558e-06
-6.10741e-05
9.24739e-06
-6.59458e-05
9.3462e-06
-7.07601e-05
9.3549e-06
-7.54652e-05
9.26772e-06
-8.00086e-05
9.0803e-06
-8.43379e-05
8.78979e-06
-8.84022e-05
8.39484e-06
-9.21521e-05
7.89557e-06
-9.55412e-05
7.29353e-06
-9.85259e-05
6.59161e-06
-0.000101066
5.79398e-06
-0.000103126
4.906e-06
-0.000104675
3.93416e-06
-0.000105684
2.88606e-06
-0.000106132
1.77041e-06
-0.000106002
5.9672e-07
-0.00010528
-6.23413e-07
-0.000103963
-1.8799e-06
-0.000102047
-3.15887e-06
-9.95367e-05
-4.44574e-06
-9.64429e-05
-5.72586e-06
-9.27824e-05
-6.98328e-06
-8.85781e-05
-8.20104e-06
-8.38595e-05
-9.36147e-06
-7.86626e-05
-1.04465e-05
-7.30303e-05
-1.14377e-05
-6.70116e-05
-1.23171e-05
-6.06623e-05
-1.30674e-05
-5.40438e-05
-1.36724e-05
-4.72232e-05
-1.41179e-05
-4.02721e-05
-1.43919e-05
-3.3266e-05
-1.44857e-05
-2.62826e-05
-1.43939e-05
-1.94014e-05
-1.41155e-05
-1.27011e-05
-1.36535e-05
-6.25879e-06
-1.30159e-05
-1.47651e-07
-1.2215e-05
5.56441e-06
-1.1268e-05
1.08166e-05
-1.01955e-05
1.55569e-05
-9.02221e-06
1.97433e-05
-7.77501e-06
2.3345e-05
-6.48275e-06
2.63433e-05
-5.17496e-06
2.87321e-05
-3.88078e-06
3.05174e-05
-2.62783e-06
3.1719e-05
-1.4414e-06
3.23668e-05
-3.44585e-07
3.25e-05
6.46054e-07
3.21675e-05
1.51688e-06
3.14248e-05
2.259e-06
3.03315e-05
2.86894e-06
2.89493e-05
3.3477e-06
2.73398e-05
3.70045e-06
2.55625e-05
3.93593e-06
2.36728e-05
4.06563e-06
2.1721e-05
4.10296e-06
1.97509e-05
4.06239e-06
1.77994e-05
3.95872e-06
1.58965e-05
3.80641e-06
1.4065e-05
3.61902e-06
1.23214e-05
3.4088e-06
1.06765e-05
3.18635e-06
9.13618e-06
2.96024e-06
7.70276e-06
2.7367e-06
6.37626e-06
2.51917e-06
5.15605e-06
2.30784e-06
4.04259e-06
2.09919e-06
3.03916e-06
1.88588e-06
2.15338e-06
1.65711e-06
1.3979e-06
1.40018e-06
7.89714e-07
1.10404e-06
3.47122e-07
7.66097e-07
8.38522e-08
4.03186e-07
8.74482e-08
1.32263e-07
-2.72831e-07
4.70817e-07
-7.93175e-07
9.6629e-07
-1.24137e-06
1.57494e-06
-1.57917e-06
2.25408e-06
-1.79746e-06
2.96343e-06
-1.9007e-06
3.6669e-06
-1.90153e-06
4.33385e-06
-1.81681e-06
4.93972e-06
-1.66504e-06
5.46604e-06
-1.46452e-06
5.90013e-06
-1.23218e-06
6.2343e-06
-9.82788e-07
6.46501e-06
-7.28337e-07
6.59179e-06
-4.77818e-07
6.61615e-06
-2.37085e-07
6.54049e-06
-8.9383e-09
6.36704e-06
2.06756e-07
6.09695e-06
4.12614e-07
5.72951e-06
6.13496e-07
5.26148e-06
8.15878e-07
4.6867e-06
1.02737e-06
3.9959e-06
1.25614e-06
3.17677e-06
1.51031e-06
2.21415e-06
1.79747e-06
1.09042e-06
2.12429e-06
-2.13924e-07
2.49618e-06
-1.71973e-06
2.91718e-06
-3.44852e-06
3.38988e-06
-5.42186e-06
3.91551e-06
-7.66066e-06
4.49392e-06
-1.01846e-05
5.1237e-06
-1.30112e-05
5.80206e-06
-1.61554e-05
6.52482e-06
-1.96284e-05
7.28627e-06
-2.34372e-05
8.07901e-06
-2.75836e-05
8.89389e-06
-3.20632e-05
9.71995e-06
-3.68653e-05
1.05445e-05
-4.19721e-05
1.13533e-05
-4.73583e-05
1.21309e-05
-5.29915e-05
1.28609e-05
-5.88321e-05
1.35265e-05
-6.48341e-05
1.41111e-05
-7.0946e-05
1.45988e-05
-7.71116e-05
1.49746e-05
-8.32716e-05
1.52255e-05
-8.93644e-05
1.53402e-05
-9.5328e-05
1.53098e-05
-0.000101101
1.51279e-05
-0.000106624
1.47905e-05
-0.000111839
1.4296e-05
-0.000116695
1.36453e-05
-0.000121141
1.28411e-05
-0.000125134
1.18882e-05
-0.000128633
1.0793e-05
-0.000131605
9.56327e-06
-0.000134019
8.20815e-06
-0.000135851
6.73775e-06
-0.00013708
5.16321e-06
-0.00013769
3.49658e-06
-0.000137671
1.75078e-06
-0.000137014
-6.00063e-08
-0.000135716
-1.92158e-06
-0.000133778
-3.81744e-06
-0.000131206
-5.73062e-06
-0.000128009
-7.6428e-06
-0.000124201
-9.53435e-06
-0.0001198
-1.13846e-05
-0.000114829
-1.31715e-05
-0.000109318
-1.48722e-05
-0.000103302
-1.64631e-05
-9.68195e-05
-1.79199e-05
-8.99179e-05
-1.92188e-05
-8.2649e-05
-2.03363e-05
-7.50711e-05
-2.12503e-05
-6.72481e-05
-2.19409e-05
-5.9249e-05
-2.2391e-05
-5.11475e-05
-2.25872e-05
-4.30208e-05
-2.25207e-05
-3.49486e-05
-2.21876e-05
-2.70119e-05
-2.15902e-05
-1.92912e-05
-2.07365e-05
-1.18652e-05
-1.9641e-05
-4.80912e-06
-1.83241e-05
1.80739e-06
-1.68121e-05
7.92134e-06
-1.51362e-05
1.34781e-05
-1.33318e-05
1.84329e-05
-1.14375e-05
2.27515e-05
-9.49361e-06
2.64117e-05
-7.54092e-06
2.94033e-05
-5.61947e-06
3.17291e-05
-3.76715e-06
3.34031e-05
-2.01861e-06
3.44526e-05
-4.0344e-07
3.49156e-05
1.0539e-06
3.48395e-05
2.33505e-06
3.42802e-05
3.42831e-06
3.32992e-05
4.32867e-06
3.19621e-05
5.03756e-06
3.03357e-05
5.5623e-06
2.84861e-05
5.91529e-06
2.6476e-05
6.11299e-06
2.43637e-05
6.17474e-06
2.22008e-05
6.1216e-06
2.0032e-05
5.97521e-06
1.78942e-05
5.75679e-06
1.58168e-05
5.48626e-06
1.38217e-05
5.18144e-06
1.19246e-05
4.85733e-06
1.01358e-05
4.52545e-06
8.46202e-06
4.19298e-06
6.90771e-06
3.86215e-06
5.47739e-06
3.52951e-06
4.17743e-06
3.18584e-06
3.01784e-06
2.8167e-06
2.01336e-06
2.40465e-06
1.18379e-06
1.93362e-06
5.5306e-07
1.39683e-06
1.47963e-07
8.08283e-07
2.35412e-07
1.59561e-07
-4.32392e-07
5.58431e-07
-1.19204e-06
1.1301e-06
-1.81305e-06
1.81919e-06
-2.26825e-06
2.57559e-06
-2.55386e-06
3.35418e-06
-2.67929e-06
4.11538e-06
-2.66273e-06
4.82583e-06
-2.52727e-06
5.4587e-06
-2.29791e-06
5.99355e-06
-1.99936e-06
6.41581e-06
-1.65445e-06
6.71606e-06
-1.28303e-06
6.88894e-06
-9.01218e-07
6.93208e-06
-5.20962e-07
6.84491e-06
-1.49911e-07
6.62743e-06
2.08537e-07
6.27919e-06
5.54995e-07
5.79817e-06
8.93636e-07
5.18002e-06
1.23165e-06
4.41737e-06
1.57853e-06
3.49948e-06
1.94526e-06
2.4121e-06
2.34352e-06
1.1376e-06
2.78481e-06
-3.44617e-07
3.27969e-06
-2.05755e-06
3.83723e-06
-4.02585e-06
4.46448e-06
-6.27496e-06
5.16629e-06
-8.83024e-06
5.94516e-06
-1.1716e-05
6.80124e-06
-1.49544e-05
7.73238e-06
-1.85648e-05
8.73409e-06
-2.25623e-05
9.79949e-06
-2.69567e-05
1.09192e-05
-3.17517e-05
1.20813e-05
-3.69439e-05
1.32712e-05
-4.25215e-05
1.44715e-05
-4.84642e-05
1.56626e-05
-5.47426e-05
1.6823e-05
-6.13185e-05
1.79292e-05
-6.81451e-05
1.89575e-05
-7.5168e-05
1.98838e-05
-8.23264e-05
2.06849e-05
-8.95547e-05
2.13395e-05
-9.67844e-05
2.18285e-05
-0.000103945
2.21357e-05
-0.000110969
2.22486e-05
-0.000117787
2.21582e-05
-0.000124336
2.18591e-05
-0.000130557
2.13494e-05
-0.000136397
2.06306e-05
-0.000141808
1.97069e-05
-0.000146748
1.85851e-05
-0.000151181
1.72738e-05
-0.000155076
1.57833e-05
-0.000158408
1.41251e-05
-0.000161157
1.23118e-05
-0.000163305
1.03563e-05
-0.00016484
8.2726e-06
-0.000165751
6.07488e-06
-0.000166033
3.77802e-06
-0.00016568
1.39752e-06
-0.000164689
-1.05034e-06
-0.000163062
-3.54861e-06
-0.000160801
-6.07892e-06
-0.00015791
-8.62157e-06
-0.000154397
-1.11556e-05
-0.000150273
-1.36585e-05
-0.000145552
-1.61058e-05
-0.000140251
-1.84719e-05
-0.000134394
-2.07292e-05
-0.000128008
-2.2849e-05
-0.000121126
-2.48019e-05
-0.000113787
-2.65579e-05
-0.000106036
-2.80874e-05
-9.79247e-05
-2.93618e-05
-8.95108e-05
-3.03548e-05
-8.08587e-05
-3.10431e-05
-7.20383e-05
-3.14076e-05
-6.31245e-05
-3.14345e-05
-5.41961e-05
-3.11161e-05
-4.53345e-05
-3.04518e-05
-3.66223e-05
-2.94487e-05
-2.81419e-05
-2.81214e-05
-1.99733e-05
-2.64927e-05
-1.21927e-05
-2.45926e-05
-4.87094e-06
-2.24579e-05
1.92824e-06
-2.0131e-05
8.14941e-06
-1.76587e-05
1.37466e-05
-1.50908e-05
1.86843e-05
-1.24786e-05
2.29381e-05
-9.87324e-06
2.64951e-05
-7.32417e-06
2.93542e-05
-4.87778e-06
3.15267e-05
-2.57587e-06
3.30351e-05
-4.54564e-07
3.39134e-05
1.45676e-06
3.42056e-05
3.13617e-06
3.39644e-05
4.5698e-06
3.325e-05
5.75197e-06
3.21274e-05
6.68494e-06
3.06643e-05
7.37834e-06
2.89291e-05
7.84824e-06
2.69879e-05
8.11589e-06
2.49032e-05
8.20631e-06
2.27316e-05
8.14681e-06
2.05229e-05
7.96547e-06
1.83194e-05
7.6898e-06
1.61555e-05
7.34535e-06
1.40583e-05
6.95449e-06
1.20485e-05
6.53523e-06
1.01416e-05
6.09996e-06
8.34932e-06
5.6544e-06
6.68218e-06
5.19665e-06
5.15111e-06
4.71691e-06
3.76968e-06
4.19813e-06
2.55597e-06
3.61836e-06
1.53417e-06
2.95543e-06
7.36235e-07
2.19476e-06
2.04535e-07
1.33998e-06
4.39946e-07
1.7775e-07
-6.10142e-07
6.17323e-07
-1.63162e-06
1.23947e-06
-2.43519e-06
1.97847e-06
-3.00725e-06
2.77713e-06
-3.35252e-06
3.58567e-06
-3.48783e-06
4.36151e-06
-3.43857e-06
5.06926e-06
-3.23502e-06
5.68057e-06
-2.90922e-06
6.1737e-06
-2.49249e-06
6.53283e-06
-2.01358e-06
6.74704e-06
-1.49724e-06
6.80924e-06
-9.63421e-07
6.71494e-06
-4.26665e-07
6.46099e-06
1.04038e-07
6.04434e-06
6.25191e-07
5.46088e-06
1.13845e-06
4.70444e-06
1.65008e-06
3.76594e-06
2.17015e-06
2.63284e-06
2.71163e-06
1.28884e-06
3.28926e-06
-2.86075e-07
3.91843e-06
-2.11526e-06
4.61399e-06
-4.22481e-06
5.38924e-06
-6.64264e-06
6.25506e-06
-9.39746e-06
7.21931e-06
-1.25176e-05
8.28643e-06
-1.60297e-05
9.45728e-06
-1.99576e-05
1.07291e-05
-2.43205e-05
1.20954e-05
-2.91324e-05
1.3546e-05
-3.44e-05
1.5067e-05
-4.01217e-05
1.66409e-05
-4.62866e-05
1.82462e-05
-5.28736e-05
1.98582e-05
-5.98511e-05
2.14489e-05
-6.71766e-05
2.29882e-05
-7.4798e-05
2.44443e-05
-8.2654e-05
2.57852e-05
-9.06763e-05
2.69798e-05
-9.87915e-05
2.79989e-05
-0.000106923
2.88165e-05
-0.000114994
2.94107e-05
-0.00012293
2.97642e-05
-0.000130659
2.98645e-05
-0.000138115
2.97044e-05
-0.000145238
2.92813e-05
-0.000151976
2.8597e-05
-0.000158283
2.76567e-05
-0.000164122
2.64692e-05
-0.00016946
2.50453e-05
-0.000174273
2.33977e-05
-0.000178539
2.15402e-05
-0.000182243
1.94875e-05
-0.000185373
1.72547e-05
-0.000187918
1.4857e-05
-0.000189871
1.23096e-05
-0.000191227
9.62802e-06
-0.000191979
6.82762e-06
-0.000192126
3.92416e-06
-0.000191662
9.33868e-07
-0.000190586
-2.12643e-06
-0.000188896
-5.23878e-06
-0.000186591
-8.38401e-06
-0.000183671
-1.15413e-05
-0.000180139
-1.4688e-05
-0.000175998
-1.77994e-05
-0.000171255
-2.08487e-05
-0.00016592
-2.38066e-05
-0.000160007
-2.66419e-05
-0.000153535
-2.9321e-05
-0.000146528
-3.18091e-05
-0.000139016
-3.40701e-05
-0.000131036
-3.60677e-05
-0.000122631
-3.77663e-05
-0.000113854
-3.91322e-05
-0.000104762
-4.01345e-05
-9.54227e-05
-4.07472e-05
-8.59075e-05
-4.09496e-05
-7.6295e-05
-4.07286e-05
-6.66676e-05
-4.00792e-05
-5.71108e-05
-3.90055e-05
-4.77111e-05
-3.75211e-05
-3.85541e-05
-3.56497e-05
-2.97228e-05
-3.3424e-05
-2.12954e-05
-3.08853e-05
-1.33438e-05
-2.80826e-05
-5.93218e-06
-2.50703e-05
8.84133e-07
-2.19071e-05
7.05969e-06
-1.86542e-05
1.25594e-05
-1.53729e-05
1.73588e-05
-1.21236e-05
2.14445e-05
-8.96355e-06
2.48144e-05
-5.9457e-06
2.74771e-05
-3.11728e-06
2.94525e-05
-5.1865e-07
3.0771e-05
1.81771e-06
3.14728e-05
3.86794e-06
3.16074e-05
5.61737e-06
3.12317e-05
7.06065e-06
3.04085e-05
8.20158e-06
2.92043e-05
9.05247e-06
2.76871e-05
9.63309e-06
2.59241e-05
9.9693e-06
2.39795e-05
1.00914e-05
2.19126e-05
1.00324e-05
1.97765e-05
9.82587e-06
1.76173e-05
9.5046e-06
1.54735e-05
9.09829e-06
1.33767e-05
8.63197e-06
1.13525e-05
8.12417e-06
9.42158e-06
7.58534e-06
7.60175e-06
7.01648e-06
5.91013e-06
6.40852e-06
4.3655e-06
5.74276e-06
2.99086e-06
4.993e-06
1.81646e-06
4.12983e-06
8.83538e-07
3.12767e-06
2.4962e-07
1.9739e-06
6.89566e-07
1.89172e-07
-7.99315e-07
6.53274e-07
-2.09572e-06
1.30331e-06
-3.08523e-06
2.06484e-06
-3.76878e-06
2.87421e-06
-4.1619e-06
3.67735e-06
-4.29097e-06
4.42898e-06
-4.1902e-06
5.09207e-06
-3.89812e-06
5.63726e-06
-3.4544e-06
6.04194e-06
-2.89718e-06
6.28933e-06
-2.26097e-06
6.36725e-06
-1.57517e-06
6.26687e-06
-8.63039e-07
5.98135e-06
-1.41143e-07
5.50453e-06
5.8086e-07
4.82965e-06
1.30007e-06
3.9482e-06
2.0199e-06
2.84895e-06
2.74933e-06
1.51719e-06
3.5019e-06
-6.56257e-08
4.29445e-06
-1.92199e-06
5.14563e-06
-4.07798e-06
6.07442e-06
-6.56258e-06
7.09859e-06
-9.40667e-06
8.23333e-06
-1.26417e-05
9.49012e-06
-1.62984e-05
1.0876e-05
-2.04049e-05
1.23929e-05
-2.49854e-05
1.40378e-05
-3.00583e-05
1.58019e-05
-3.56345e-05
1.76716e-05
-4.1716e-05
1.96275e-05
-4.82945e-05
2.16456e-05
-5.53502e-05
2.36965e-05
-6.28509e-05
2.5747e-05
-7.07526e-05
2.77599e-05
-7.89993e-05
2.96957e-05
-8.75252e-05
3.1514e-05
-9.62556e-05
3.31748e-05
-0.000105111
3.46402e-05
-0.000114007
3.58761e-05
-0.000122861
3.68533e-05
-0.000131593
3.75485e-05
-0.000140127
3.7945e-05
-0.000148395
3.80321e-05
-0.000156337
3.78058e-05
-0.000163899
3.72672e-05
-0.000171041
3.64226e-05
-0.000177726
3.52818e-05
-0.000183926
3.38576e-05
-0.000189622
3.21651e-05
-0.000194797
3.02203e-05
-0.00019944
2.80401e-05
-0.000203541
2.56416e-05
-0.000207095
2.30415e-05
-0.000210097
2.02564e-05
-0.000212542
1.73023e-05
-0.000214427
1.41949e-05
-0.000215749
1.09494e-05
-0.000216502
7.58099e-06
-0.000216683
4.1051e-06
-0.000216287
5.37527e-07
-0.000215308
-3.10531e-06
-0.000213741
-6.80558e-06
-0.000211581
-1.05441e-05
-0.000208823
-1.42996e-05
-0.000205462
-1.80488e-05
-0.000201496
-2.17657e-05
-0.000196923
-2.54214e-05
-0.000191745
-2.89843e-05
-0.000185968
-3.24196e-05
-0.000179599
-3.56897e-05
-0.000172653
-3.87546e-05
-0.000165151
-4.15723e-05
-0.000157119
-4.40995e-05
-0.000148593
-4.6293e-05
-0.000139614
-4.81105e-05
-0.000130236
-4.95129e-05
-0.000120518
-5.04648e-05
-0.000110531
-5.09374e-05
-0.00010035
-5.09096e-05
-9.00592e-05
-5.03696e-05
-7.97481e-05
-4.93165e-05
-6.95084e-05
-4.77608e-05
-5.9433e-05
-4.57251e-05
-4.96134e-05
-4.32436e-05
-4.01374e-05
-4.03614e-05
-3.10866e-05
-3.71333e-05
-2.25353e-05
-3.36217e-05
-1.45479e-05
-2.98944e-05
-7.17926e-06
-2.60228e-05
-4.73082e-07
-2.20791e-05
5.53764e-06
-1.81343e-05
1.08307e-05
-1.42566e-05
1.53946e-05
-1.05096e-05
1.9228e-05
-6.95073e-06
2.234e-05
-3.63061e-06
2.47494e-05
-5.91637e-07
2.64846e-05
2.13265e-06
2.75837e-05
4.5183e-06
2.8093e-05
6.55135e-06
2.80665e-05
8.22806e-06
2.75644e-05
9.55462e-06
2.6651e-05
1.05465e-05
2.53929e-05
1.12274e-05
2.38568e-05
1.16275e-05
2.21072e-05
1.1782e-05
2.02044e-05
1.17287e-05
1.82035e-05
1.15055e-05
1.6153e-05
1.11488e-05
1.40948e-05
1.06901e-05
1.20645e-05
1.01545e-05
1.00921e-05
9.55769e-06
8.20403e-06
8.90458e-06
6.42471e-06
8.18785e-06
4.77954e-06
7.38793e-06
3.29795e-06
6.47459e-06
2.01735e-06
5.41043e-06
9.88327e-07
4.15669e-06
2.81437e-07
2.68079e-06
9.71004e-07
1.95604e-07
-9.94918e-07
6.7098e-07
-2.5711e-06
1.3291e-06
-3.74335e-06
2.08817e-06
-4.52785e-06
2.87898e-06
-4.95271e-06
3.64367e-06
-5.05565e-06
4.33466e-06
-4.88119e-06
4.91368e-06
-4.47714e-06
5.35064e-06
-3.89136e-06
5.62237e-06
-3.16891e-06
5.71131e-06
-2.34991e-06
5.60406e-06
-1.46792e-06
5.28992e-06
-5.48898e-07
4.75942e-06
3.89358e-07
4.00293e-06
1.33735e-06
3.00938e-06
2.29362e-06
1.76514e-06
3.26414e-06
2.53177e-07
4.2613e-06
-1.54749e-06
5.30257e-06
-3.66188e-06
6.40884e-06
-6.11881e-06
7.60255e-06
-8.95006e-06
8.90568e-06
-1.21893e-05
1.03378e-05
-1.58704e-05
1.19145e-05
-2.0026e-05
1.36457e-05
-2.4685e-05
1.55351e-05
-2.98714e-05
1.75793e-05
-3.56013e-05
1.97677e-05
-4.18819e-05
2.20825e-05
-4.87092e-05
2.44988e-05
-5.60667e-05
2.6985e-05
-6.39245e-05
2.95034e-05
-7.2239e-05
3.2011e-05
-8.09531e-05
3.44611e-05
-8.99979e-05
3.68047e-05
-9.92946e-05
3.89924e-05
-0.000108758
4.09769e-05
-0.000118297
4.27145e-05
-0.000127824
4.41672e-05
-0.000137252
4.53042e-05
-0.000146501
4.61023e-05
-0.000155499
4.65464e-05
-0.000164183
4.66292e-05
-0.000172502
4.63503e-05
-0.000180412
4.57156e-05
-0.00018788
4.47356e-05
-0.000194882
4.34246e-05
-0.0002014
4.17994e-05
-0.00020742
3.98784e-05
-0.000212936
3.76807e-05
-0.000217941
3.52255e-05
-0.000222433
3.25316e-05
-0.000226408
2.96174e-05
-0.000229867
2.65001e-05
-0.000232807
2.31962e-05
-0.000235226
1.97215e-05
-0.000237122
1.6091e-05
-0.000238492
1.2319e-05
-0.000239331
8.41999e-06
-0.000239634
4.40822e-06
-0.000239395
2.98571e-07
-0.000238607
-3.89348e-06
-0.000237262
-8.15095e-06
-0.00023535
-1.24553e-05
-0.000232864
-1.6786e-05
-0.000229793
-2.11196e-05
-0.000226129
-2.54299e-05
-0.000221863
-2.96875e-05
-0.000216988
-3.38589e-05
-0.0002115
-3.79073e-05
-0.000205398
-4.1792e-05
-0.000198684
-4.54685e-05
-0.000191367
-4.88894e-05
-0.000183462
-5.2005e-05
-0.00017499
-5.47642e-05
-0.000165985
-5.7116e-05
-0.000156487
-5.9011e-05
-0.000146548
-6.04037e-05
-0.000136231
-6.12543e-05
-0.000125609
-6.15313e-05
-0.000114766
-6.12131e-05
-0.000103792
-6.02903e-05
-9.27856e-05
-5.87673e-05
-8.1848e-05
-5.66627e-05
-7.10817e-05
-5.40098e-05
-6.05873e-05
-5.08558e-05
-5.046e-05
-4.72606e-05
-4.07874e-05
-4.32942e-05
-3.16473e-05
-3.90346e-05
-2.31057e-05
-3.45644e-05
-1.52167e-05
-2.99681e-05
-8.02165e-06
-2.53293e-05
-1.55009e-06
-2.07282e-05
4.17994e-06
-1.62396e-05
9.16094e-06
-1.19317e-05
1.33952e-05
-7.86486e-06
1.68942e-05
-4.09064e-06
1.96783e-05
-6.51415e-07
2.17762e-05
2.42032e-06
2.32252e-05
5.10239e-06
2.40701e-05
7.38322e-06
2.43627e-05
9.26194e-06
2.41611e-05
1.07481e-05
2.35275e-05
1.1861e-05
2.25268e-05
1.26283e-05
2.12242e-05
1.30846e-05
1.96837e-05
1.32691e-05
1.7966e-05
1.32232e-05
1.61269e-05
1.29879e-05
1.42169e-05
1.26002e-05
1.22803e-05
1.2091e-05
1.03565e-05
1.14815e-05
8.48033e-06
1.07808e-05
6.68447e-06
9.98371e-06
5.00188e-06
9.07053e-06
3.46929e-06
8.00718e-06
2.13171e-06
6.74801e-06
1.04826e-06
5.24014e-06
2.99471e-07
3.42958e-06
1.27047e-06
1.9813e-07
-1.19305e-06
6.73405e-07
-3.04637e-06
1.32162e-06
-4.39157e-06
2.05478e-06
-5.26101e-06
2.79901e-06
-5.69694e-06
3.49339e-06
-5.75003e-06
4.08861e-06
-5.47641e-06
4.54552e-06
-4.93406e-06
4.83361e-06
-4.17945e-06
4.92933e-06
-3.26462e-06
4.81438e-06
-2.23496e-06
4.47405e-06
-1.12759e-06
3.89553e-06
2.962e-08
3.06634e-06
1.21855e-06
1.97288e-06
2.43081e-06
5.99159e-07
3.66734e-06
-1.07415e-06
4.93745e-06
-3.0704e-06
6.25754e-06
-5.41711e-06
7.64928e-06
-8.14573e-06
9.13746e-06
-1.12908e-05
1.07476e-05
-1.48885e-05
1.25034e-05
-1.8975e-05
1.44244e-05
-2.35846e-05
1.6524e-05
-2.87466e-05
1.88077e-05
-3.4484e-05
2.12724e-05
-4.08103e-05
2.39056e-05
-4.77279e-05
2.66853e-05
-5.5226e-05
2.95807e-05
-6.32794e-05
3.25522e-05
-7.18476e-05
3.55532e-05
-8.0875e-05
3.85308e-05
-9.02922e-05
4.14282e-05
-0.000100018
4.41869e-05
-0.000109962
4.67491e-05
-0.000120031
4.90606e-05
-0.000130127
5.1073e-05
-0.000140158
5.27456e-05
-0.000150038
5.4047e-05
-0.000159689
5.49553e-05
-0.000169044
5.5458e-05
-0.000178049
5.55515e-05
-0.00018666
5.52398e-05
-0.000194843
5.45329e-05
-0.000202573
5.34457e-05
-0.000209833
5.19964e-05
-0.000216614
5.02053e-05
-0.000222908
4.80937e-05
-0.000228713
4.56833e-05
-0.000234028
4.29954e-05
-0.000238853
4.00506e-05
-0.00024319
3.68684e-05
-0.00024704
3.34672e-05
-0.000250404
2.98643e-05
-0.000253283
2.60756e-05
-0.000255678
2.21162e-05
-0.000257587
1.80002e-05
-0.000259009
1.37412e-05
-0.000259941
9.35213e-06
-0.000260379
4.84618e-06
-0.000260318
2.36696e-07
-0.000259749
-4.46222e-06
-0.000258664
-9.23528e-06
-0.000257054
-1.40655e-05
-0.000254907
-1.89337e-05
-0.000252208
-2.38179e-05
-0.000248945
-2.8693e-05
-0.000245103
-3.353e-05
-0.000240666
-3.82959e-05
-0.00023562
-4.29528e-05
-0.000229954
-4.74585e-05
-0.000223656
-5.17658e-05
-0.000216722
-5.58233e-05
-0.000209152
-5.95755e-05
-0.000200952
-6.29642e-05
-0.000192138
-6.59295e-05
-0.000182738
-6.84116e-05
-0.000172788
-7.03531e-05
-0.000162341
-7.17015e-05
-0.000151461
-7.24117e-05
-0.000140225
-7.24488e-05
-0.000128724
-7.1791e-05
-0.00011706
-7.04317e-05
-0.000105341
-6.83814e-05
-9.36831e-05
-6.56682e-05
-8.22008e-05
-6.23382e-05
-7.10077e-05
-5.84537e-05
-6.02103e-05
-5.40916e-05
-4.9905e-05
-4.93398e-05
-4.01756e-05
-4.42938e-05
-3.10911e-05
-3.90527e-05
-2.27053e-05
-3.37151e-05
-1.50573e-05
-2.83763e-05
-8.17178e-06
-2.31251e-05
-2.06117e-06
-1.80423e-05
3.27315e-06
-1.31992e-05
7.83931e-06
-8.65681e-06
1.16538e-05
-4.46592e-06
1.47408e-05
-6.66674e-07
1.71317e-05
2.71154e-06
1.88647e-05
5.6502e-06
1.99849e-05
8.14173e-06
2.05435e-05
1.01895e-05
2.0597e-05
1.18074e-05
2.02063e-05
1.3019e-05
1.94344e-05
1.38564e-05
1.83456e-05
1.4358e-05
1.70027e-05
1.45661e-05
1.54662e-05
1.45244e-05
1.37925e-05
1.42739e-05
1.20334e-05
1.38501e-05
1.0236e-05
1.32789e-05
8.44355e-06
1.25732e-05
6.69679e-06
1.17305e-05
5.03656e-06
1.07308e-05
3.50719e-06
9.53656e-06
2.16104e-06
8.09416e-06
1.06434e-06
6.33684e-06
3.04165e-07
4.18975e-06
1.57464e-06
1.97194e-07
-1.39024e-06
6.61789e-07
-3.51097e-06
1.28288e-06
-5.01266e-06
1.96722e-06
-5.94535e-06
2.63728e-06
-6.36699e-06
3.22992e-06
-6.34267e-06
3.69474e-06
-5.94123e-06
3.99222e-06
-5.23154e-06
4.09169e-06
-4.27892e-06
3.96929e-06
-3.14222e-06
3.60595e-06
-1.87161e-06
2.98541e-06
-5.07055e-07
2.09242e-06
9.22612e-07
9.1101e-07
2.39996e-06
-5.76917e-07
3.91874e-06
-2.39275e-06
5.48317e-06
-4.56194e-06
7.10664e-06
-7.11428e-06
8.80988e-06
-1.00836e-05
1.06186e-05
-1.3507e-05
1.25608e-05
-1.7423e-05
1.46637e-05
-2.18701e-05
1.69505e-05
-2.68837e-05
1.94379e-05
-3.24936e-05
2.21339e-05
-3.87214e-05
2.50356e-05
-4.55778e-05
2.81288e-05
-5.306e-05
3.13878e-05
-6.115e-05
3.47754e-05
-6.98136e-05
3.82443e-05
-7.89998e-05
4.17384e-05
-8.86414e-05
4.51948e-05
-9.86574e-05
4.85467e-05
-0.000108955
5.17262e-05
-0.000119436
5.46677e-05
-0.000129998
5.73106e-05
-0.00014054
5.96026e-05
-0.000150968
6.15014e-05
-0.000161198
6.29757e-05
-0.000171157
6.40053e-05
-0.000180782
6.45811e-05
-0.000190027
6.47029e-05
-0.000198855
6.4379e-05
-0.000207238
6.36233e-05
-0.00021516
6.24545e-05
-0.000222609
6.08944e-05
-0.000229578
5.89662e-05
-0.000236067
5.66942e-05
-0.000242076
5.41023e-05
-0.000247607
5.12141e-05
-0.000252663
4.80522e-05
-0.000257251
4.46377e-05
-0.000261373
4.09908e-05
-0.000265036
3.71299e-05
-0.000268243
3.3072e-05
-0.000271001
2.88328e-05
-0.000273311
2.44267e-05
-0.000275178
1.9867e-05
-0.000276603
1.51659e-05
-0.000277586
1.03353e-05
-0.000278126
5.38647e-06
-0.00027822
3.309e-07
-0.000277863
-4.81934e-06
-0.000277047
-1.00514e-05
-0.000275762
-1.53508e-05
-0.000273995
-2.07009e-05
-0.00027173
-2.60825e-05
-0.00026895
-3.14728e-05
-0.000265635
-3.68452e-05
-0.000261762
-4.21684e-05
-0.000257309
-4.74061e-05
-0.000252251
-5.25161e-05
-0.000246566
-5.74508e-05
-0.000240233
-6.21566e-05
-0.000233235
-6.65741e-05
-0.000225559
-7.06396e-05
-0.000217203
-7.42853e-05
-0.000208173
-7.74414e-05
-0.000198488
-8.00383e-05
-0.000188181
-8.20092e-05
-0.000177299
-8.3293e-05
-0.00016591
-8.38381e-05
-0.000154095
-8.36056e-05
-0.000141954
-8.25727e-05
-0.0001296
-8.07355e-05
-0.000117157
-7.81113e-05
-0.000104756
-7.47389e-05
-9.25311e-05
-7.06789e-05
-8.06117e-05
-6.6011e-05
-6.91199e-05
-6.08316e-05
-5.81646e-05
-5.52491e-05
-4.78384e-05
-4.93789e-05
-3.82153e-05
-4.33382e-05
-2.935e-05
-3.72415e-05
-2.12791e-05
-3.11961e-05
-1.40219e-05
-2.52995e-05
-7.58382e-06
-1.96373e-05
-1.95812e-06
-1.42825e-05
2.87131e-06
-9.29535e-06
6.92827e-06
-4.72364e-06
1.02431e-05