/*--------------------------------*- C++ -*----------------------------------*\
| =========                 |                                                 |
| \\      /  F ield         | OpenFOAM: The Open Source CFD Toolbox           |
|  \\    /   O peration     | Version:  2406                                  |
|   \\  /    A nd           | Website:  www.openfoam.com                      |
|    \\/     M anipulation  |                                                 |
\*---------------------------------------------------------------------------*/
FoamFile
{
    version     2.0;
    format      ascii;
    arch        "LSB;label=32;scalar=64";
    class       volVectorField;
    location    "2.7";
    object      Uold;
}
// * * * * * * * * * * * * * * * * * * * * * * * * * * * * * * * * * * * * * //

dimensions      [0 1 -1 0 0 0 0];

internalField   nonuniform List<vector> 
14400
(
(2.04837e-06 -2.03903e-06 0)
(2.3981e-06 8.66292e-08 0)
(-4.96786e-06 2.84932e-06 0)
(-2.00015e-05 5.58026e-06 0)
(-4.21311e-05 7.48376e-06 0)
(-6.90989e-05 8.93161e-06 0)
(-0.000100115 9.82821e-06 0)
(-0.000133477 1.04433e-05 0)
(-0.000168715 1.07719e-05 0)
(-0.000204831 1.09641e-05 0)
(-0.000241619 1.10269e-05 0)
(-0.000278568 1.10385e-05 0)
(-0.000315631 1.10019e-05 0)
(-0.000352575 1.0954e-05 0)
(-0.000389417 1.08927e-05 0)
(-0.000426062 1.08331e-05 0)
(-0.000462537 1.0771e-05 0)
(-0.000498801 1.07117e-05 0)
(-0.000534874 1.06514e-05 0)
(-0.000570733 1.05916e-05 0)
(-0.000606384 1.05296e-05 0)
(-0.000641809 1.0466e-05 0)
(-0.000677005 1.0399e-05 0)
(-0.000711955 1.03288e-05 0)
(-0.00074665 1.02543e-05 0)
(-0.000781071 1.01755e-05 0)
(-0.000815205 1.00918e-05 0)
(-0.000849034 1.00032e-05 0)
(-0.00088254 9.90905e-06 0)
(-0.000915704 9.80936e-06 0)
(-0.000948507 9.70376e-06 0)
(-0.000980928 9.59203e-06 0)
(-0.00101295 9.47391e-06 0)
(-0.00104454 9.34917e-06 0)
(-0.00107569 9.21755e-06 0)
(-0.00110636 9.07883e-06 0)
(-0.00113655 8.93275e-06 0)
(-0.00116621 8.77909e-06 0)
(-0.00119532 8.61761e-06 0)
(-0.00122387 8.44807e-06 0)
(-0.00125181 8.27025e-06 0)
(-0.00127913 8.08392e-06 0)
(-0.0013058 7.88887e-06 0)
(-0.00133178 7.68489e-06 0)
(-0.00135704 7.47177e-06 0)
(-0.00138156 7.24932e-06 0)
(-0.00140531 7.01736e-06 0)
(-0.00142825 6.77572e-06 0)
(-0.00145035 6.52426e-06 0)
(-0.00147158 6.26282e-06 0)
(-0.00149191 5.9913e-06 0)
(-0.0015113 5.70958e-06 0)
(-0.00152972 5.41759e-06 0)
(-0.00154714 5.11526e-06 0)
(-0.00156351 4.80257e-06 0)
(-0.00157882 4.47951e-06 0)
(-0.00159303 4.14608e-06 0)
(-0.00160609 3.80235e-06 0)
(-0.00161798 3.4484e-06 0)
(-0.00162867 3.08432e-06 0)
(-0.00163812 2.71027e-06 0)
(-0.00164631 2.32644e-06 0)
(-0.00165319 1.93302e-06 0)
(-0.00165874 1.53029e-06 0)
(-0.00166294 1.11853e-06 0)
(-0.00166574 6.98073e-07 0)
(-0.00166713 2.69295e-07 0)
(-0.00166707 -1.67394e-07 0)
(-0.00166555 -6.1154e-07 0)
(-0.00166254 -1.06265e-06 0)
(-0.00165802 -1.52019e-06 0)
(-0.00165197 -1.98359e-06 0)
(-0.00164436 -2.45224e-06 0)
(-0.0016352 -2.92549e-06 0)
(-0.00162445 -3.40265e-06 0)
(-0.00161212 -3.883e-06 0)
(-0.00159819 -4.3658e-06 0)
(-0.00158265 -4.85026e-06 0)
(-0.0015655 -5.33557e-06 0)
(-0.00154675 -5.8209e-06 0)
(-0.00152638 -6.30539e-06 0)
(-0.00150442 -6.78817e-06 0)
(-0.00148085 -7.26834e-06 0)
(-0.0014557 -7.74502e-06 0)
(-0.00142898 -8.21728e-06 0)
(-0.00140069 -8.68423e-06 0)
(-0.00137087 -9.14495e-06 0)
(-0.00133953 -9.59853e-06 0)
(-0.0013067 -1.00441e-05 0)
(-0.00127241 -1.04807e-05 0)
(-0.00123668 -1.09077e-05 0)
(-0.00119955 -1.1324e-05 0)
(-0.00116106 -1.17289e-05 0)
(-0.00112124 -1.21217e-05 0)
(-0.00108013 -1.25017e-05 0)
(-0.00103778 -1.28682e-05 0)
(-0.00099423 -1.32208e-05 0)
(-0.000949532 -1.35586e-05 0)
(-0.000903728 -1.38819e-05 0)
(-0.000856876 -1.41896e-05 0)
(-0.000809018 -1.44826e-05 0)
(-0.000760218 -1.47589e-05 0)
(-0.000710515 -1.50205e-05 0)
(-0.000659992 -1.52633e-05 0)
(-0.000608684 -1.54896e-05 0)
(-0.000556714 -1.56894e-05 0)
(-0.000504122 -1.58646e-05 0)
(-0.000451123 -1.59916e-05 0)
(-0.000397797 -1.60694e-05 0)
(-0.000344556 -1.6047e-05 0)
(-0.000291575 -1.59187e-05 0)
(-0.000239646 -1.55827e-05 0)
(-0.000189139 -1.50321e-05 0)
(-0.000141483 -1.40733e-05 0)
(-9.73685e-05 -1.27158e-05 0)
(-5.91428e-05 -1.06032e-05 0)
(-2.79036e-05 -7.85845e-06 0)
(-6.75668e-06 -3.98098e-06 0)
(3.52187e-06 -5.87861e-08 0)
(2.89787e-06 2.9128e-06 0)
(-6.73269e-08 -2.40701e-06 0)
(-1.03014e-05 1.02919e-05 0)
(-3.77995e-05 2.50868e-05 0)
(-8.1069e-05 3.97168e-05 0)
(-0.000139925 5.11624e-05 0)
(-0.000210223 6.02354e-05 0)
(-0.000290338 6.65885e-05 0)
(-0.000376838 7.11035e-05 0)
(-0.000468356 7.39452e-05 0)
(-0.000562714 7.57209e-05 0)
(-0.000659112 7.66335e-05 0)
(-0.000756376 7.70418e-05 0)
(-0.000854149 7.7076e-05 0)
(-0.000951875 7.69179e-05 0)
(-0.00104944 7.66248e-05 0)
(-0.0011466 7.62736e-05 0)
(-0.00124334 7.58789e-05 0)
(-0.00133956 7.54667e-05 0)
(-0.00143525 7.50345e-05 0)
(-0.00153035 7.45881e-05 0)
(-0.00162487 7.41214e-05 0)
(-0.00171874 7.36342e-05 0)
(-0.00181194 7.31213e-05 0)
(-0.00190445 7.25812e-05 0)
(-0.00199621 7.20102e-05 0)
(-0.00208719 7.14066e-05 0)
(-0.00217734 7.0768e-05 0)
(-0.00226661 7.00927e-05 0)
(-0.00235496 6.93788e-05 0)
(-0.00244234 6.86248e-05 0)
(-0.00252869 6.78289e-05 0)
(-0.00261396 6.69898e-05 0)
(-0.0026981 6.61058e-05 0)
(-0.00278104 6.51754e-05 0)
(-0.00286272 6.41972e-05 0)
(-0.00294309 6.31697e-05 0)
(-0.00302208 6.20913e-05 0)
(-0.00309963 6.09607e-05 0)
(-0.00317567 5.97765e-05 0)
(-0.00325013 5.85371e-05 0)
(-0.00332294 5.72412e-05 0)
(-0.00339403 5.58874e-05 0)
(-0.00346333 5.44745e-05 0)
(-0.00353077 5.30012e-05 0)
(-0.00359627 5.14663e-05 0)
(-0.00365975 4.98686e-05 0)
(-0.00372113 4.82071e-05 0)
(-0.00378034 4.64808e-05 0)
(-0.00383729 4.46888e-05 0)
(-0.00389191 4.28304e-05 0)
(-0.00394411 4.09048e-05 0)
(-0.0039938 3.89115e-05 0)
(-0.00404091 3.68502e-05 0)
(-0.00408536 3.47204e-05 0)
(-0.00412705 3.25223e-05 0)
(-0.00416591 3.02557e-05 0)
(-0.00420185 2.7921e-05 0)
(-0.00423479 2.55186e-05 0)
(-0.00426465 2.3049e-05 0)
(-0.00429135 2.05133e-05 0)
(-0.0043148 1.79123e-05 0)
(-0.00433493 1.52473e-05 0)
(-0.00435167 1.252e-05 0)
(-0.00436493 9.73201e-06 0)
(-0.00437465 6.88535e-06 0)
(-0.00438076 3.98228e-06 0)
(-0.00438318 1.0253e-06 0)
(-0.00438187 -1.98282e-06 0)
(-0.00437675 -5.03907e-06 0)
(-0.00436777 -8.14016e-06 0)
(-0.00435489 -1.12826e-05 0)
(-0.00433805 -1.44625e-05 0)
(-0.00431721 -1.7676e-05 0)
(-0.00429233 -2.09186e-05 0)
(-0.00426339 -2.4186e-05 0)
(-0.00423035 -2.74734e-05 0)
(-0.0041932 -3.07759e-05 0)
(-0.00415192 -3.40883e-05 0)
(-0.0041065 -3.74054e-05 0)
(-0.00405694 -4.07217e-05 0)
(-0.00400326 -4.40315e-05 0)
(-0.00394545 -4.73292e-05 0)
(-0.00388354 -5.06089e-05 0)
(-0.00381756 -5.38648e-05 0)
(-0.00374753 -5.70909e-05 0)
(-0.00367351 -6.02811e-05 0)
(-0.00359554 -6.34296e-05 0)
(-0.00351366 -6.65304e-05 0)
(-0.00342796 -6.95776e-05 0)
(-0.00333849 -7.25654e-05 0)
(-0.00324533 -7.54882e-05 0)
(-0.00314857 -7.83403e-05 0)
(-0.0030483 -8.11167e-05 0)
(-0.00294461 -8.38121e-05 0)
(-0.0028376 -8.6422e-05 0)
(-0.00272739 -8.89415e-05 0)
(-0.00261409 -9.13671e-05 0)
(-0.00249782 -9.36944e-05 0)
(-0.00237869 -9.59212e-05 0)
(-0.00225684 -9.80422e-05 0)
(-0.0021324 -0.000100056 0)
(-0.00200553 -0.000101955 0)
(-0.00187634 -0.000103735 0)
(-0.00174505 -0.000105377 0)
(-0.00161179 -0.000106867 0)
(-0.00147686 -0.000108154 0)
(-0.00134047 -0.000109199 0)
(-0.00120315 -0.000109882 0)
(-0.00106525 -0.000110107 0)
(-0.000927766 -0.000109624 0)
(-0.0007914 -0.000108255 0)
(-0.000657952 -0.000105536 0)
(-0.0005287 -0.000101209 0)
(-0.00040674 -9.4498e-05 0)
(-0.000294046 -8.51963e-05 0)
(-0.000195353 -7.21528e-05 0)
(-0.00011293 -5.58186e-05 0)
(-5.24641e-05 -3.51367e-05 0)
(-1.41793e-05 -1.423e-05 0)
(-7.74085e-08 3.51627e-06 0)
(-2.86997e-06 5.00133e-06 0)
(-2.53506e-05 3.78851e-05 0)
(-7.40197e-05 7.35422e-05 0)
(-0.000143785 0.000107937 0)
(-0.000234999 0.000136032 0)
(-0.000341864 0.000158554 0)
(-0.000462538 0.000175018 0)
(-0.000592435 0.000186875 0)
(-0.000729704 0.000194705 0)
(-0.000871369 0.000199705 0)
(-0.00101622 0.000202504 0)
(-0.00116259 0.000203876 0)
(-0.00130988 0.000204232 0)
(-0.00145726 0.000203987 0)
(-0.00160449 0.000203342 0)
(-0.00175119 0.000202478 0)
(-0.00189729 0.000201466 0)
(-0.00204261 0.000200369 0)
(-0.00218711 0.000199201 0)
(-0.00233071 0.000197974 0)
(-0.00247337 0.000196684 0)
(-0.00261501 0.000195328 0)
(-0.00275559 0.000193898 0)
(-0.00289504 0.000192391 0)
(-0.00303331 0.000190798 0)
(-0.00317032 0.000189115 0)
(-0.003306 0.000187337 0)
(-0.00344029 0.000185459 0)
(-0.00357311 0.000183478 0)
(-0.00370437 0.00018139 0)
(-0.00383401 0.000179189 0)
(-0.00396193 0.000176874 0)
(-0.00408806 0.000174439 0)
(-0.0042123 0.000171882 0)
(-0.00433457 0.000169198 0)
(-0.00445478 0.000166385 0)
(-0.00457282 0.000163439 0)
(-0.00468861 0.000160355 0)
(-0.00480204 0.000157131 0)
(-0.00491302 0.000153764 0)
(-0.00502144 0.000150249 0)
(-0.0051272 0.000146584 0)
(-0.00523019 0.000142766 0)
(-0.0053303 0.000138791 0)
(-0.00542742 0.000134658 0)
(-0.00552145 0.000130362 0)
(-0.00561225 0.000125902 0)
(-0.00569973 0.000121275 0)
(-0.00578377 0.00011648 0)
(-0.00586424 0.000111514 0)
(-0.00594102 0.000106377 0)
(-0.00601401 0.000101066 0)
(-0.00608308 9.55813e-05 0)
(-0.00614811 8.99224e-05 0)
(-0.00620897 8.40891e-05 0)
(-0.00626556 7.80818e-05 0)
(-0.00631775 7.19014e-05 0)
(-0.00636543 6.55491e-05 0)
(-0.00640847 5.90267e-05 0)
(-0.00644677 5.23365e-05 0)
(-0.00648021 4.54814e-05 0)
(-0.00650867 3.84649e-05 0)
(-0.00653206 3.12908e-05 0)
(-0.00655026 2.3964e-05 0)
(-0.00656318 1.64895e-05 0)
(-0.00657071 8.87324e-06 0)
(-0.00657277 1.12172e-06 0)
(-0.00656927 -6.75793e-06 0)
(-0.00656012 -1.47579e-05 0)
(-0.00654524 -2.28699e-05 0)
(-0.00652457 -3.10847e-05 0)
(-0.00649804 -3.93927e-05 0)
(-0.00646559 -4.77836e-05 0)
(-0.00642718 -5.62464e-05 0)
(-0.00638275 -6.47698e-05 0)
(-0.00633227 -7.33416e-05 0)
(-0.00627573 -8.19494e-05 0)
(-0.00621309 -9.05801e-05 0)
(-0.00614435 -9.92202e-05 0)
(-0.00606952 -0.000107856 0)
(-0.0059886 -0.000116473 0)
(-0.00590162 -0.000125057 0)
(-0.0058086 -0.000133593 0)
(-0.00570958 -0.000142065 0)
(-0.00560462 -0.00015046 0)
(-0.00549378 -0.000158762 0)
(-0.00537712 -0.000166955 0)
(-0.00525474 -0.000175024 0)
(-0.00512672 -0.000182955 0)
(-0.00499317 -0.000190733 0)
(-0.00485419 -0.000198342 0)
(-0.00470992 -0.00020577 0)
(-0.00456047 -0.000213003 0)
(-0.00440601 -0.000220027 0)
(-0.00424666 -0.000226831 0)
(-0.0040826 -0.000233401 0)
(-0.00391399 -0.000239729 0)
(-0.003741 -0.000245803 0)
(-0.00356381 -0.000251614 0)
(-0.00338263 -0.000257151 0)
(-0.00319763 -0.000262404 0)
(-0.00300905 -0.000267352 0)
(-0.00281709 -0.000271976 0)
(-0.00262204 -0.000276227 0)
(-0.00242415 -0.00028005 0)
(-0.00222386 -0.000283322 0)
(-0.00202153 -0.000285902 0)
(-0.00181791 -0.000287509 0)
(-0.00161363 -0.000287835 0)
(-0.00141008 -0.000286314 0)
(-0.00120838 -0.000282391 0)
(-0.00101106 -0.000275068 0)
(-0.000819977 -0.000263543 0)
(-0.00063935 -0.000246293 0)
(-0.000471838 -0.000222576 0)
(-0.000323736 -0.000190518 0)
(-0.000197626 -0.000150744 0)
(-0.000101403 -0.000102389 0)
(-3.45499e-05 -5.23205e-05 0)
(-3.89932e-06 -6.62942e-06 0)
(-5.68867e-06 2.02764e-05 0)
(-4.04988e-05 8.16843e-05 0)
(-0.000109621 0.000143618 0)
(-0.000203547 0.000201461 0)
(-0.000323043 0.00024935 0)
(-0.000460691 0.000287944 0)
(-0.000614821 0.000316783 0)
(-0.000779993 0.000337808 0)
(-0.00095423 0.000352062 0)
(-0.00113399 0.000361343 0)
(-0.00131785 0.000366766 0)
(-0.00150378 0.000369573 0)
(-0.001691 0.000370516 0)
(-0.00187847 0.00037029 0)
(-0.00206584 0.00036928 0)
(-0.00225262 0.000367802 0)
(-0.00243865 0.000366009 0)
(-0.0026237 0.000364014 0)
(-0.00280771 0.000361859 0)
(-0.00299052 0.00035957 0)
(-0.00317209 0.000357148 0)
(-0.00335231 0.000354592 0)
(-0.00353112 0.000351893 0)
(-0.00370841 0.000349043 0)
(-0.00388412 0.000346032 0)
(-0.00405815 0.000342853 0)
(-0.0042304 0.000339498 0)
(-0.00440079 0.000335958 0)
(-0.00456922 0.000332228 0)
(-0.00473558 0.000328301 0)
(-0.00489978 0.00032417 0)
(-0.00506171 0.000319829 0)
(-0.00522125 0.000315272 0)
(-0.00537831 0.000310493 0)
(-0.00553276 0.000305485 0)
(-0.00568449 0.000300243 0)
(-0.00583338 0.000294761 0)
(-0.00597931 0.000289033 0)
(-0.00612215 0.000283054 0)
(-0.00626179 0.000276816 0)
(-0.00639809 0.000270316 0)
(-0.00653092 0.000263548 0)
(-0.00666015 0.000256507 0)
(-0.00678564 0.000249187 0)
(-0.00690726 0.000241584 0)
(-0.00702487 0.000233694 0)
(-0.00713833 0.000225513 0)
(-0.00724749 0.000217037 0)
(-0.00735222 0.000208264 0)
(-0.00745237 0.000199189 0)
(-0.0075478 0.000189811 0)
(-0.00763835 0.000180129 0)
(-0.00772389 0.000170141 0)
(-0.00780427 0.000159846 0)
(-0.00787935 0.000149246 0)
(-0.00794897 0.000138341 0)
(-0.00801299 0.000127133 0)
(-0.00807128 0.000115624 0)
(-0.00812369 0.000103818 0)
(-0.00817009 9.17198e-05 0)
(-0.00821033 7.9334e-05 0)
(-0.00824429 6.66673e-05 0)
(-0.00827183 5.3727e-05 0)
(-0.00829283 4.05213e-05 0)
(-0.00830718 2.70598e-05 0)
(-0.00831474 1.3353e-05 0)
(-0.00831542 -5.87531e-07 0)
(-0.00830911 -1.4749e-05 0)
(-0.00829572 -2.91177e-05 0)
(-0.00827514 -4.36785e-05 0)
(-0.0082473 -5.84154e-05 0)
(-0.00821212 -7.33113e-05 0)
(-0.00816954 -8.8348e-05 0)
(-0.0081195 -0.000103506 0)
(-0.00806195 -0.000118766 0)
(-0.00799685 -0.000134106 0)
(-0.00792417 -0.000149504 0)
(-0.00784391 -0.000164937 0)
(-0.00775604 -0.000180382 0)
(-0.00766058 -0.000195814 0)
(-0.00755754 -0.000211208 0)
(-0.00744696 -0.00022654 0)
(-0.00732887 -0.000241782 0)
(-0.00720332 -0.000256909 0)
(-0.00707039 -0.000271894 0)
(-0.00693015 -0.000286711 0)
(-0.00678269 -0.000301333 0)
(-0.00662812 -0.000315733 0)
(-0.00646656 -0.000329886 0)
(-0.00629812 -0.000343765 0)
(-0.00612296 -0.000357345 0)
(-0.00594122 -0.000370602 0)
(-0.00575307 -0.000383511 0)
(-0.00555868 -0.000396049 0)
(-0.00535824 -0.000408195 0)
(-0.00515196 -0.000419927 0)
(-0.00494002 -0.000431227 0)
(-0.00472266 -0.000442074 0)
(-0.00450009 -0.00045245 0)
(-0.00427257 -0.000462334 0)
(-0.00404033 -0.000471703 0)
(-0.00380365 -0.000480519 0)
(-0.00356281 -0.000488737 0)
(-0.00331818 -0.000496267 0)
(-0.00307009 -0.000502995 0)
(-0.00281908 -0.000508702 0)
(-0.00256566 -0.000513113 0)
(-0.00231076 -0.000515744 0)
(-0.0020552 -0.000516021 0)
(-0.00180068 -0.000513 0)
(-0.00154862 -0.000505673 0)
(-0.00130201 -0.000492449 0)
(-0.00106307 -0.000471901 0)
(-0.000836738 -0.000441755 0)
(-0.000625884 -0.000400673 0)
(-0.000437908 -0.000346183 0)
(-0.000275177 -0.000278871 0)
(-0.000147658 -0.000198075 0)
(-5.42765e-05 -0.000111791 0)
(-7.5927e-06 -2.72301e-05 0)
(-7.73551e-06 4.29933e-05 0)
(-5.2755e-05 0.000141805 0)
(-0.000139609 0.000236059 0)
(-0.000254524 0.000321499 0)
(-0.000398388 0.000392478 0)
(-0.000562056 0.000449709 0)
(-0.000744035 0.000493039 0)
(-0.00093813 0.000524877 0)
(-0.00114239 0.000546837 0)
(-0.00135284 0.000561327 0)
(-0.00156801 0.000570029 0)
(-0.0017856 0.000574682 0)
(-0.00200474 0.000576443 0)
(-0.00222424 0.000576318 0)
(-0.00244367 0.000574917 0)
(-0.00266244 0.000572715 0)
(-0.00288036 0.000569967 0)
(-0.00309713 0.000566852 0)
(-0.00331265 0.000563447 0)
(-0.00352675 0.000559803 0)
(-0.00373933 0.000555927 0)
(-0.00395028 0.000551824 0)
(-0.0041595 0.000547484 0)
(-0.00436688 0.000542898 0)
(-0.00457232 0.000538053 0)
(-0.00477571 0.000532939 0)
(-0.00497694 0.000527545 0)
(-0.00517589 0.00052186 0)
(-0.00537246 0.000515876 0)
(-0.00556651 0.000509582 0)
(-0.00575794 0.000502969 0)
(-0.0059466 0.000496028 0)
(-0.00613239 0.000488751 0)
(-0.00631516 0.000481128 0)
(-0.00649479 0.000473152 0)
(-0.00667114 0.000464812 0)
(-0.00684408 0.000456101 0)
(-0.00701345 0.000447011 0)
(-0.00717912 0.000437532 0)
(-0.00734095 0.000427658 0)
(-0.00749878 0.00041738 0)
(-0.00765248 0.00040669 0)
(-0.00780187 0.000395582 0)
(-0.00794681 0.000384048 0)
(-0.00808715 0.000372082 0)
(-0.00822273 0.000359677 0)
(-0.00835338 0.000346829 0)
(-0.00847895 0.000333532 0)
(-0.00859927 0.000319782 0)
(-0.00871418 0.000305575 0)
(-0.00882352 0.000290909 0)
(-0.00892713 0.00027578 0)
(-0.00902483 0.000260189 0)
(-0.00911647 0.000244135 0)
(-0.00920188 0.000227619 0)
(-0.0092809 0.000210642 0)
(-0.00935336 0.000193209 0)
(-0.00941912 0.000175323 0)
(-0.00947801 0.000156991 0)
(-0.00952988 0.000138219 0)
(-0.00957458 0.000119015 0)
(-0.00961195 9.93905e-05 0)
(-0.00964187 7.93562e-05 0)
(-0.00966418 5.89253e-05 0)
(-0.00967876 3.81123e-05 0)
(-0.00968548 1.69336e-05 0)
(-0.00968422 -4.59295e-06 0)
(-0.00967486 -2.64478e-05 0)
(-0.0096573 -4.86096e-05 0)
(-0.00963143 -7.10556e-05 0)
(-0.00959718 -9.37613e-05 0)
(-0.00955446 -0.0001167 0)
(-0.00950319 -0.000139845 0)
(-0.00944333 -0.000163167 0)
(-0.00937481 -0.000186635 0)
(-0.0092976 -0.000210216 0)
(-0.00921168 -0.000233877 0)
(-0.00911702 -0.000257585 0)
(-0.00901363 -0.000281302 0)
(-0.00890152 -0.000304992 0)
(-0.00878071 -0.000328618 0)
(-0.00865124 -0.00035214 0)
(-0.00851316 -0.000375521 0)
(-0.00836653 -0.000398719 0)
(-0.00821144 -0.000421696 0)
(-0.00804798 -0.00044441 0)
(-0.00787625 -0.000466823 0)
(-0.00769637 -0.000488893 0)
(-0.00750849 -0.000510582 0)
(-0.00731275 -0.00053185 0)
(-0.00710931 -0.00055266 0)
(-0.00689835 -0.000572972 0)
(-0.00668006 -0.000592752 0)
(-0.00645464 -0.000611964 0)
(-0.00622231 -0.000630575 0)
(-0.00598329 -0.000648552 0)
(-0.00573782 -0.000665866 0)
(-0.00548615 -0.000682484 0)
(-0.00522854 -0.000698379 0)
(-0.00496527 -0.000713514 0)
(-0.00469663 -0.000727849 0)
(-0.00442294 -0.000741324 0)
(-0.00414452 -0.000753859 0)
(-0.00386181 -0.000765313 0)
(-0.00357518 -0.000775495 0)
(-0.00328531 -0.000784072 0)
(-0.00299274 -0.000790601 0)
(-0.00269858 -0.000794365 0)
(-0.00240375 -0.000794469 0)
(-0.00211019 -0.000789549 0)
(-0.00181942 -0.00077807 0)
(-0.00153481 -0.000757802 0)
(-0.00125867 -0.000726601 0)
(-0.000996493 -0.000681435 0)
(-0.000751132 -0.000620239 0)
(-0.00053093 -0.000539982 0)
(-0.000338041 -0.000440862 0)
(-0.000184572 -0.000322286 0)
(-6.93014e-05 -0.000192048 0)
(-1.00774e-05 -5.73031e-05 0)
(-9.35771e-06 7.10304e-05 0)
(-6.28274e-05 0.000214404 0)
(-0.000164496 0.000345504 0)
(-0.000297034 0.000461198 0)
(-0.000461251 0.000556986 0)
(-0.000646407 0.000633987 0)
(-0.000851132 0.00069268 0)
(-0.00106857 0.000736001 0)
(-0.00129686 0.000766216 0)
(-0.00153171 0.000786341 0)
(-0.00177165 0.000798643 0)
(-0.00201422 0.000805363 0)
(-0.00225851 0.000808074 0)
(-0.0025032 0.000808103 0)
(-0.00274785 0.000806299 0)
(-0.00299178 0.000803304 0)
(-0.00323476 0.000799486 0)
(-0.00347646 0.000795096 0)
(-0.00371674 0.000790257 0)
(-0.0039554 0.000785042 0)
(-0.00419232 0.000779476 0)
(-0.00442736 0.000773567 0)
(-0.00466042 0.000767307 0)
(-0.00489135 0.000760688 0)
(-0.00512005 0.000753696 0)
(-0.00534637 0.000746317 0)
(-0.00557021 0.000738539 0)
(-0.00579143 0.000730348 0)
(-0.00600989 0.000721731 0)
(-0.00622547 0.000712678 0)
(-0.00643803 0.000703176 0)
(-0.00664743 0.000693212 0)
(-0.00685352 0.000682777 0)
(-0.00705616 0.000671857 0)
(-0.00725521 0.000660443 0)
(-0.00745051 0.000648522 0)
(-0.00764192 0.000636083 0)
(-0.00782927 0.000623117 0)
(-0.00801241 0.000609611 0)
(-0.00819118 0.000595556 0)
(-0.00836542 0.000580942 0)
(-0.00853496 0.000565758 0)
(-0.00869964 0.000549996 0)
(-0.00885929 0.000533646 0)
(-0.00901373 0.0005167 0)
(-0.00916281 0.00049915 0)
(-0.00930633 0.00048099 0)
(-0.00944413 0.000462213 0)
(-0.00957604 0.000442814 0)
(-0.00970187 0.000422788 0)
(-0.00982145 0.000402133 0)
(-0.00993461 0.000380846 0)
(-0.0100412 0.000358926 0)
(-0.0101409 0.000336373 0)
(-0.0102337 0.000313191 0)
(-0.0103194 0.000289381 0)
(-0.0103978 0.000264948 0)
(-0.0104687 0.000239901 0)
(-0.010532 0.000214246 0)
(-0.0105874 0.000187994 0)
(-0.0106349 0.000161157 0)
(-0.0106743 0.00013375 0)
(-0.0107054 0.000105789 0)
(-0.010728 7.7292e-05 0)
(-0.0107421 4.82794e-05 0)
(-0.0107476 1.87741e-05 0)
(-0.0107442 -1.11989e-05 0)
(-0.0107318 -4.16125e-05 0)
(-0.0107104 -7.24374e-05 0)
(-0.0106798 -0.000103642 0)
(-0.01064 -0.000135192 0)
(-0.0105909 -0.000167052 0)
(-0.0105324 -0.000199183 0)
(-0.0104644 -0.000231546 0)
(-0.0103869 -0.000264098 0)
(-0.0102998 -0.000296796 0)
(-0.0102032 -0.000329592 0)
(-0.0100969 -0.000362441 0)
(-0.00998114 -0.000395292 0)
(-0.00985578 -0.000428096 0)
(-0.00972088 -0.000460801 0)
(-0.0095765 -0.000493355 0)
(-0.00942269 -0.000525703 0)
(-0.00925952 -0.000557792 0)
(-0.00908709 -0.000589568 0)
(-0.00890551 -0.000620975 0)
(-0.00871488 -0.000651959 0)
(-0.00851536 -0.000682465 0)
(-0.00830709 -0.00071244 0)
(-0.00809023 -0.00074183 0)
(-0.00786497 -0.000770582 0)
(-0.0076315 -0.000798646 0)
(-0.00739003 -0.000825972 0)
(-0.00714078 -0.000852512 0)
(-0.00688399 -0.00087822 0)
(-0.00661991 -0.00090305 0)
(-0.0063488 -0.000926961 0)
(-0.00607093 -0.000949909 0)
(-0.0057866 -0.000971851 0)
(-0.00549611 -0.000992735 0)
(-0.00519977 -0.0010125 0)
(-0.00489796 -0.00103106 0)
(-0.00459102 -0.0010483 0)
(-0.00427944 -0.00106401 0)
(-0.00396365 -0.00107792 0)
(-0.00364437 -0.00108958 0)
(-0.00332222 -0.00109835 0)
(-0.0029984 -0.00110328 0)
(-0.0026739 -0.00110314 0)
(-0.0023508 -0.00109613 0)
(-0.00203069 -0.00108017 0)
(-0.00171716 -0.00105239 0)
(-0.00141252 -0.00100991 0)
(-0.00112267 -0.000948952 0)
(-0.000850363 -0.000866627 0)
(-0.000604731 -0.000759273 0)
(-0.000387798 -0.000626311 0)
(-0.000213571 -0.000466772 0)
(-8.09393e-05 -0.000287133 0)
(-1.19104e-05 -9.35956e-05 0)
(-1.04489e-05 0.000103665 0)
(-7.03065e-05 0.00029802 0)
(-0.000183648 0.000470339 0)
(-0.000330365 0.000619154 0)
(-0.000511104 0.000741664 0)
(-0.000713702 0.000839697 0)
(-0.000936806 0.000914642 0)
(-0.00117295 0.000970069 0)
(-0.00142035 0.001009 0)
(-0.00167446 0.00103509 0)
(-0.00193385 0.00105122 0)
(-0.00219592 0.00106015 0)
(-0.00245978 0.00106389 0)
(-0.00272405 0.00106408 0)
(-0.00298825 0.00106184 0)
(-0.00325166 0.00105797 0)
(-0.00351405 0.00105296 0)
(-0.00377503 0.00104715 0)
(-0.00403445 0.0010407 0)
(-0.00429209 0.00103371 0)
(-0.00454781 0.00102623 0)
(-0.00480145 0.00101827 0)
(-0.00505289 0.00100983 0)
(-0.00530197 0.0010009 0)
(-0.00554858 0.000991467 0)
(-0.00579255 0.000981515 0)
(-0.00603377 0.000971028 0)
(-0.00627208 0.000959992 0)
(-0.00650735 0.00094839 0)
(-0.00673942 0.00093621 0)
(-0.00696815 0.000923435 0)
(-0.00719339 0.000910053 0)
(-0.00741498 0.000896048 0)
(-0.00763277 0.000881407 0)
(-0.00784659 0.000866115 0)
(-0.0080563 0.00085016 0)
(-0.00826172 0.000833527 0)
(-0.00846268 0.000816203 0)
(-0.00865903 0.000798175 0)
(-0.00885059 0.000779431 0)
(-0.00903719 0.000759957 0)
(-0.00921864 0.000739743 0)
(-0.00939478 0.000718776 0)
(-0.00956543 0.000697045 0)
(-0.0097304 0.000674542 0)
(-0.00988952 0.000651256 0)
(-0.0100426 0.00062718 0)
(-0.0101895 0.000602305 0)
(-0.0103299 0.000576627 0)
(-0.0104637 0.00055014 0)
(-0.0105908 0.00052284 0)
(-0.0107109 0.000494726 0)
(-0.0108239 0.000465797 0)
(-0.0109295 0.000436054 0)
(-0.0110276 0.0004055 0)
(-0.0111179 0.000374141 0)
(-0.0112004 0.000341984 0)
(-0.0112749 0.000309037 0)
(-0.0113411 0.000275313 0)
(-0.0113989 0.000240825 0)
(-0.0114481 0.000205589 0)
(-0.0114886 0.000169625 0)
(-0.0115201 0.000132954 0)
(-0.0115427 9.55994e-05 0)
(-0.011556 5.75896e-05 0)
(-0.01156 1.89537e-05 0)
(-0.0115546 -2.02756e-05 0)
(-0.0115396 -6.00627e-05 0)
(-0.0115148 -0.000100369 0)
(-0.0114803 -0.000141154 0)
(-0.0114359 -0.000182374 0)
(-0.0113815 -0.000223981 0)
(-0.0113171 -0.000265926 0)
(-0.0112425 -0.000308158 0)
(-0.0111578 -0.000350621 0)
(-0.0110629 -0.000393258 0)
(-0.0109578 -0.000436011 0)
(-0.0108425 -0.000478818 0)
(-0.0107169 -0.000521616 0)
(-0.0105812 -0.00056434 0)
(-0.0104353 -0.000606923 0)
(-0.0102794 -0.000649298 0)
(-0.0101133 -0.000691396 0)
(-0.00993738 -0.000733147 0)
(-0.00975157 -0.000774481 0)
(-0.00955603 -0.000815328 0)
(-0.00935088 -0.000855617 0)
(-0.00913628 -0.000895278 0)
(-0.00891239 -0.000934243 0)
(-0.00867939 -0.000972441 0)
(-0.00843746 -0.00100981 0)
(-0.00818683 -0.00104627 0)
(-0.00792771 -0.00108178 0)
(-0.00766035 -0.00111625 0)
(-0.00738499 -0.00114965 0)
(-0.00710191 -0.0011819 0)
(-0.00681137 -0.00121295 0)
(-0.00651369 -0.00124274 0)
(-0.00620917 -0.00127122 0)
(-0.00589814 -0.00129832 0)
(-0.00558092 -0.00132394 0)
(-0.00525794 -0.00134798 0)
(-0.00492954 -0.00137028 0)
(-0.00459627 -0.00139056 0)
(-0.00425856 -0.00140847 0)
(-0.00391721 -0.00142341 0)
(-0.00357284 -0.00143457 0)
(-0.00322674 -0.00144072 0)
(-0.0028799 -0.0014403 0)
(-0.00253451 -0.00143107 0)
(-0.00219216 -0.00141037 0)
(-0.0018566 -0.00137469 0)
(-0.00153011 -0.00132037 0)
(-0.00121889 -0.00124283 0)
(-0.000925632 -0.00113826 0)
(-0.000660183 -0.00100223 0)
(-0.000424576 -0.000833067 0)
(-0.00023445 -0.000629072 0)
(-8.8912e-05 -0.000394828 0)
(-1.29984e-05 -0.000135024 0)
(-1.12579e-05 0.000139242 0)
(-7.59758e-05 0.000389345 0)
(-0.000198302 0.000606178 0)
(-0.00035612 0.000790207 0)
(-0.00054988 0.000940674 0)
(-0.000766261 0.00106042 0)
(-0.00100386 0.00115199 0)
(-0.0012547 0.00121971 0)
(-0.00151702 0.00126747 0)
(-0.00178607 0.00129957 0)
(-0.00206049 0.00131957 0)
(-0.00233756 0.00133072 0)
(-0.00261643 0.00133548 0)
(-0.00289566 0.00133581 0)
(-0.00317479 0.00133308 0)
(-0.00345307 0.00132827 0)
(-0.00373024 0.00132198 0)
(-0.00400591 0.00131463 0)
(-0.0042799 0.00130644 0)
(-0.00455198 0.00129753 0)
(-0.004822 0.00128797 0)
(-0.00508979 0.00127779 0)
(-0.00535519 0.00126698 0)
(-0.00561806 0.00125554 0)
(-0.00587826 0.00124345 0)
(-0.00613563 0.0012307 0)
(-0.00639002 0.00121727 0)
(-0.00664128 0.00120314 0)
(-0.00688926 0.00118829 0)
(-0.0071338 0.00117272 0)
(-0.00737475 0.0011564 0)
(-0.00761195 0.00113931 0)
(-0.00784522 0.00112144 0)
(-0.00807442 0.00110278 0)
(-0.00829937 0.0010833 0)
(-0.00851991 0.00106299 0)
(-0.00873585 0.00104183 0)
(-0.00894703 0.00101981 0)
(-0.00915327 0.000996917 0)
(-0.0093544 0.000973129 0)
(-0.00955023 0.000948434 0)
(-0.00974057 0.000922818 0)
(-0.00992525 0.000896269 0)
(-0.0101041 0.000868773 0)
(-0.0102769 0.000840319 0)
(-0.0104434 0.000810897 0)
(-0.0106036 0.000780497 0)
(-0.0107571 0.000749111 0)
(-0.0109038 0.000716732 0)
(-0.0110436 0.000683355 0)
(-0.0111761 0.000648977 0)
(-0.0113013 0.000613595 0)
(-0.0114189 0.00057721 0)
(-0.0115287 0.000539824 0)
(-0.0116306 0.000501442 0)
(-0.0117243 0.000462071 0)
(-0.0118098 0.00042172 0)
(-0.0118867 0.000380401 0)
(-0.0119549 0.00033813 0)
(-0.0120142 0.000294923 0)
(-0.0120646 0.000250803 0)
(-0.0121057 0.000205792 0)
(-0.0121374 0.000159918 0)
(-0.0121597 0.000113212 0)
(-0.0121722 6.5707e-05 0)
(-0.012175 1.74408e-05 0)
(-0.0121678 -3.15459e-05 0)
(-0.0121506 -8.12089e-05 0)
(-0.0121232 -0.000131501 0)
(-0.0120855 -0.00018237 0)
(-0.0120374 -0.000233761 0)
(-0.0119789 -0.000285618 0)
(-0.0119098 -0.000337878 0)
(-0.0118301 -0.000390477 0)
(-0.0117398 -0.000443347 0)
(-0.0116388 -0.000496419 0)
(-0.0115272 -0.000549618 0)
(-0.0114048 -0.00060287 0)
(-0.0112718 -0.000656095 0)
(-0.0111281 -0.000709215 0)
(-0.0109738 -0.000762147 0)
(-0.010809 -0.000814807 0)
(-0.0106336 -0.000867111 0)
(-0.0104479 -0.000918973 0)
(-0.0102519 -0.000970306 0)
(-0.0100457 -0.00102103 0)
(-0.00982952 -0.00107104 0)
(-0.00960347 -0.00112027 0)
(-0.00936773 -0.00116863 0)
(-0.00912249 -0.00121603 0)
(-0.00886795 -0.00126239 0)
(-0.00860434 -0.00130762 0)
(-0.00833188 -0.00135166 0)
(-0.00805085 -0.00139442 0)
(-0.00776149 -0.00143583 0)
(-0.00746409 -0.00147581 0)
(-0.00715894 -0.0015143 0)
(-0.00684636 -0.00155122 0)
(-0.00652666 -0.00158651 0)
(-0.00620021 -0.00162006 0)
(-0.00586734 -0.00165178 0)
(-0.00552849 -0.00168151 0)
(-0.00518403 -0.00170905 0)
(-0.00483452 -0.00173406 0)
(-0.00448043 -0.0017561 0)
(-0.00412257 -0.00177443 0)
(-0.00376159 -0.00178805 0)
(-0.00339881 -0.0017955 0)
(-0.00303523 -0.00179483 0)
(-0.0026731 -0.00178337 0)
(-0.00231399 -0.00175791 0)
(-0.00196177 -0.00171427 0)
(-0.00161867 -0.00164798 0)
(-0.00129115 -0.00155364 0)
(-0.000981876 -0.00142637 0)
(-0.000701297 -0.00126084 0)
(-0.000451536 -0.00105403 0)
(-0.000249508 -0.000803139 0)
(-9.45616e-05 -0.000510573 0)
(-1.37358e-05 -0.000179314 0)
(-1.17725e-05 0.000177275 0)
(-7.99515e-05 0.000487015 0)
(-0.000208918 0.000751201 0)
(-0.000375136 0.000972433 0)
(-0.000578894 0.00115214 0)
(-0.000805947 0.00129439 0)
(-0.00105481 0.00140303 0)
(-0.00131704 0.00148329 0)
(-0.0015909 0.00153998 0)
(-0.00187146 0.00157814 0)
(-0.00215737 0.00160201 0)
(-0.00244587 0.00161537 0)
(-0.00273614 0.00162111 0)
(-0.0030267 0.00162154 0)
(-0.0033171 0.00161826 0)
(-0.00360658 0.00161243 0)
(-0.00389488 0.00160478 0)
(-0.0041816 0.00159579 0)
(-0.00446655 0.00158574 0)
(-0.00474948 0.00157479 0)
(-0.00503025 0.00156302 0)
(-0.00530865 0.00155046 0)
(-0.00558455 0.00153712 0)
(-0.00585777 0.00152299 0)
(-0.00612817 0.00150806 0)
(-0.00639558 0.00149232 0)
(-0.00665986 0.00147574 0)
(-0.00692083 0.00145831 0)
(-0.00717834 0.00144001 0)
(-0.00743224 0.00142082 0)
(-0.00768234 0.00140071 0)
(-0.0079285 0.00137968 0)
(-0.00817053 0.00135769 0)
(-0.00840827 0.00133474 0)
(-0.00864155 0.00131081 0)
(-0.00887019 0.00128587 0)
(-0.00909401 0.0012599 0)
(-0.00931283 0.0012329 0)
(-0.00952647 0.00120484 0)
(-0.00973475 0.0011757 0)
(-0.00993747 0.00114547 0)
(-0.0101345 0.00111414 0)
(-0.0103255 0.00108168 0)
(-0.0105105 0.00104809 0)
(-0.0106891 0.00101334 0)
(-0.0108612 0.000977437 0)
(-0.0110266 0.00094036 0)
(-0.0111852 0.000902102 0)
(-0.0113366 0.000862655 0)
(-0.0114807 0.000822015 0)
(-0.0116174 0.000780178 0)
(-0.0117463 0.000737143 0)
(-0.0118674 0.00069291 0)
(-0.0119804 0.000647484 0)
(-0.0120851 0.00060087 0)
(-0.0121813 0.000553077 0)
(-0.0122689 0.000504118 0)
(-0.0123477 0.000454008 0)
(-0.0124174 0.000402764 0)
(-0.0124779 0.00035041 0)
(-0.0125291 0.000296971 0)
(-0.0125707 0.000242475 0)
(-0.0126026 0.000186957 0)
(-0.0126246 0.000130453 0)
(-0.0126366 7.30045e-05 0)
(-0.0126384 1.46563e-05 0)
(-0.0126299 -4.45423e-05 0)
(-0.012611 -0.000104538 0)
(-0.0125816 -0.000165273 0)
(-0.0125415 -0.000226685 0)
(-0.0124907 -0.00028871 0)
(-0.012429 -0.000351277 0)
(-0.0123564 -0.000414312 0)
(-0.0122729 -0.000477739 0)
(-0.0121784 -0.000541475 0)