/*--------------------------------*- C++ -*----------------------------------*\
| =========                 |                                                 |
| \\      /  F ield         | OpenFOAM: The Open Source CFD Toolbox           |
|  \\    /   O peration     | Version:  2406                                  |
|   \\  /    A nd           | Website:  www.openfoam.com                      |
|    \\/     M anipulation  |                                                 |
\*---------------------------------------------------------------------------*/
FoamFile
{
    version     2.0;
    format      ascii;
    arch        "LSB;label=32;scalar=64";
    class       volVectorField;
    location    "21.25";
    object      U;
}
// * * * * * * * * * * * * * * * * * * * * * * * * * * * * * * * * * * * * * //

dimensions      [0 1 -1 0 0 0 0];

internalField   nonuniform List<vector> 
14400
(
(2.71159e-06 -2.69905e-06 0)
(2.7347e-05 -8.88035e-06 0)
(7.38315e-05 -1.4016e-05 0)
(0.000134571 -1.62972e-05 0)
(0.00019987 -1.68636e-05 0)
(0.000264688 -1.62832e-05 0)
(0.000325833 -1.51251e-05 0)
(0.000381682 -1.37244e-05 0)
(0.000431624 -1.2275e-05 0)
(0.000475612 -1.08722e-05 0)
(0.000513853 -9.54741e-06 0)
(0.000546609 -8.29099e-06 0)
(0.000574088 -7.07507e-06 0)
(0.000596363 -5.88216e-06 0)
(0.000613345 -4.70303e-06 0)
(0.000624767 -3.51738e-06 0)
(0.000630129 -2.26595e-06 0)
(0.000628914 -7.91794e-07 0)
(0.000620589 8.97922e-07 0)
(0.000604395 2.74934e-06 0)
(0.000579472 4.77657e-06 0)
(0.000544914 7.00229e-06 0)
(0.000499738 9.44671e-06 0)
(0.000442867 1.21326e-05 0)
(0.000373124 1.50861e-05 0)
(0.000289218 1.83371e-05 0)
(0.000189727 2.19194e-05 0)
(7.30863e-05 2.58696e-05 0)
(-6.2418e-05 3.02266e-05 0)
(-0.000218651 3.50294e-05 0)
(-0.000397626 4.03159e-05 0)
(-0.000601485 4.612e-05 0)
(-0.000832481 5.247e-05 0)
(-0.00109294 5.9386e-05 0)
(-0.00138522 6.68774e-05 0)
(-0.00171165 7.49411e-05 0)
(-0.00207449 8.35585e-05 0)
(-0.00247581 9.26941e-05 0)
(-0.00291746 0.000102293 0)
(-0.00340096 0.000112279 0)
(-0.00392738 0.000122554 0)
(-0.00449728 0.000132993 0)
(-0.00511057 0.00014345 0)
(-0.00576644 0.000153752 0)
(-0.00646323 0.0001637 0)
(-0.00719834 0.000173075 0)
(-0.00796819 0.000181634 0)
(-0.00876807 0.000189116 0)
(-0.00959217 0.000195247 0)
(-0.0104335 0.000199743 0)
(-0.011284 0.000202314 0)
(-0.0121343 0.000202676 0)
(-0.0129742 0.00020055 0)
(-0.0137923 0.000195678 0)
(-0.0145765 0.000187824 0)
(-0.015314 0.000176788 0)
(-0.0159914 0.000162411 0)
(-0.0165952 0.000144586 0)
(-0.0171118 0.00012327 0)
(-0.0175279 9.84492e-05 0)
(-0.017831 7.02664e-05 0)
(-0.0180096 3.9477e-05 0)
(-0.018052 6.4257e-06 0)
(-0.0179492 -3.00843e-05 0)
(-0.0176957 -6.86221e-05 0)
(-0.0172859 -0.00010833 0)
(-0.0167176 -0.000148619 0)
(-0.0159915 -0.000188731 0)
(-0.0151111 -0.000227827 0)
(-0.0140834 -0.000265018 0)
(-0.0129183 -0.000299394 0)
(-0.0116292 -0.000330057 0)
(-0.0102323 -0.00035615 0)
(-0.00874669 -0.000376903 0)
(-0.00719401 -0.000391662 0)
(-0.00559774 -0.000399931 0)
(-0.0039828 -0.000401395 0)
(-0.00237482 -0.000395949 0)
(-0.000799452 -0.000383713 0)
(0.000718421 -0.000365032 0)
(0.00215541 -0.000340461 0)
(0.00349037 -0.000310757 0)
(0.00470498 -0.000276837 0)
(0.00578436 -0.000239738 0)
(0.00671738 -0.000200564 0)
(0.00749694 -0.00016044 0)
(0.00812002 -0.000120451 0)
(0.00858756 -8.15981e-05 0)
(0.00890421 -4.47347e-05 0)
(0.00907806 -1.05521e-05 0)
(0.00912031 1.99138e-05 0)
(0.00904248 4.5554e-05 0)
(0.00885887 6.7889e-05 0)
(0.00858615 8.67957e-05 0)
(0.00823958 0.000101694 0)
(0.00783424 0.000112747 0)
(0.00738477 0.000120298 0)
(0.00690474 0.000124718 0)
(0.00640639 0.000126412 0)
(0.00590043 0.0001258 0)
(0.00539598 0.000123302 0)
(0.00490055 0.000119319 0)
(0.00442008 0.000114225 0)
(0.00395904 0.000108361 0)
(0.00352054 0.00010203 0)
(0.00310651 9.54983e-05 0)
(0.00271779 8.89887e-05 0)
(0.0023544 8.26808e-05 0)
(0.00201564 7.67032e-05 0)
(0.00170041 7.1123e-05 0)
(0.00140742 6.59297e-05 0)
(0.00113563 6.1013e-05 0)
(0.000884611 5.61385e-05 0)
(0.000655107 5.09244e-05 0)
(0.000449586 4.4828e-05 0)
(0.000272712 3.71885e-05 0)
(0.000131525 2.73505e-05 0)
(3.45215e-05 1.50656e-05 0)
(-1.13326e-05 1.35965e-06 0)
(-7.85177e-06 -7.8659e-06 0)
(8.9685e-06 -2.74017e-05 0)
(7.73915e-05 -7.70756e-05 0)
(0.000184962 -0.000112234 0)
(0.000319461 -0.00012888 0)
(0.00046131 -0.00013223 0)
(0.000600545 -0.000127111 0)
(0.00073027 -0.000117231 0)
(0.000846639 -0.000105101 0)
(0.000947885 -9.22582e-05 0)
(0.00103349 -7.95098e-05 0)
(0.00110351 -6.71595e-05 0)
(0.00115819 -5.51846e-05 0)
(0.00119759 -4.33694e-05 0)
(0.00122147 -3.14173e-05 0)
(0.00122924 -1.90275e-05 0)
(0.0012199 -5.86983e-06 0)
(0.00119204 8.37527e-06 0)
(0.00114386 2.40977e-05 0)
(0.00107318 4.15111e-05 0)
(0.000977614 6.07691e-05 0)
(0.000854522 8.20507e-05 0)
(0.000700979 0.00010554 0)
(0.000513806 0.000131433 0)
(0.00028956 0.000159942 0)
(2.45107e-05 0.000191305 0)
(-0.000285373 0.000225785 0)
(-0.000644449 0.000263667 0)
(-0.0010574 0.000305253 0)
(-0.00152926 0.000350845 0)
(-0.00206533 0.000400736 0)
(-0.00267121 0.000455185 0)
(-0.00335267 0.000514404 0)
(-0.00411558 0.00057853 0)
(-0.00496578 0.000647605 0)
(-0.00590893 0.000721555 0)
(-0.00695032 0.000800168 0)
(-0.00809466 0.000883071 0)
(-0.00934588 0.000969718 0)
(-0.0107069 0.00105937 0)
(-0.0121792 0.00115107 0)
(-0.013763 0.00124368 0)
(-0.0154564 0.0013358 0)
(-0.0172557 0.00142586 0)
(-0.0191548 0.00151207 0)
(-0.0211451 0.00159244 0)
(-0.0232155 0.00166486 0)
(-0.0253523 0.00172705 0)
(-0.0275388 0.00177669 0)
(-0.0297559 0.00181142 0)
(-0.0319819 0.00182889 0)
(-0.0341926 0.00182685 0)
(-0.0363619 0.00180322 0)
(-0.0384617 0.0017561 0)
(-0.0404628 0.00168389 0)
(-0.0423351 0.00158536 0)
(-0.0440478 0.00145964 0)
(-0.0455708 0.00130635 0)
(-0.0468742 0.00112562 0)
(-0.0479298 0.000918126 0)
(-0.0487112 0.000685125 0)
(-0.0491944 0.00042853 0)
(-0.0493586 0.000151242 0)
(-0.0491875 -0.000143286 0)
(-0.0486671 -0.000452816 0)
(-0.0477888 -0.000772281 0)
(-0.0465496 -0.00109671 0)
(-0.0449513 -0.00142075 0)
(-0.0430014 -0.00173865 0)
(-0.0407131 -0.00204443 0)
(-0.0381053 -0.00233198 0)
(-0.035203 -0.00259519 0)
(-0.0320364 -0.00282818 0)
(-0.0286411 -0.00302545 0)
(-0.0250574 -0.00318209 0)
(-0.0213299 -0.00329396 0)
(-0.0175064 -0.0033579 0)
(-0.0136372 -0.00337188 0)
(-0.00977405 -0.00333516 0)
(-0.00596884 -0.00324833 0)
(-0.00227264 -0.00311339 0)
(0.00126569 -0.00293372 0)
(0.00460074 -0.00271397 0)
(0.00769164 -0.00245996 0)
(0.0105032 -0.00217841 0)
(0.0130068 -0.00187674 0)
(0.015181 -0.00156273 0)
(0.017012 -0.00124426 0)
(0.0184939 -0.000928933 0)
(0.0196285 -0.000623855 0)
(0.0204248 -0.000335359 0)
(0.0208983 -6.90305e-05 0)
(0.0210711 0.000170505 0)
(0.0209702 0.000381903 0)
(0.0206247 0.000563165 0)
(0.0200668 0.000713203 0)
(0.0193302 0.000832454 0)
(0.0184482 0.000922326 0)
(0.0174533 0.000984939 0)
(0.0163762 0.00102295 0)
(0.0152446 0.00103936 0)
(0.0140837 0.00103735 0)
(0.012915 0.00102014 0)
(0.0117568 0.000990878 0)
(0.0106236 0.000952521 0)
(0.00952697 0.000907795 0)
(0.00847508 0.000859132 0)
(0.00747345 0.000808631 0)
(0.00652523 0.000758002 0)
(0.00563161 0.000708502 0)
(0.00479251 0.000660841 0)
(0.00400718 0.000615055 0)
(0.00327514 0.000570362 0)
(0.00259706 0.000525013 0)
(0.00197591 0.000476194 0)
(0.0014179 0.000420068 0)
(0.000933263 0.00035222 0)
(0.00053611 0.000268826 0)
(0.000241583 0.00016945 0)
(6.51906e-05 6.24768e-05 0)
(1.90781e-06 -1.08252e-05 0)
(1.42035e-05 -7.42639e-05 0)
(0.000112938 -0.000184804 0)
(0.000255546 -0.000255013 0)
(0.000428004 -0.000287229 0)
(0.000605667 -0.000291669 0)
(0.000776794 -0.000277842 0)
(0.000932744 -0.000253268 0)
(0.00106842 -0.000223229 0)
(0.00118122 -0.000191063 0)
(0.00127005 -0.000158585 0)
(0.00133455 -0.000126502 0)
(0.00137451 -9.47795e-05 0)
(0.00138952 -6.29235e-05 0)
(0.00137867 -3.01608e-05 0)
(0.00134052 4.37481e-06 0)
(0.00127302 4.14939e-05 0)
(0.00117349 8.19774e-05 0)
(0.00103867 0.000126521 0)
(0.000864711 0.000175774 0)
(0.00064734 0.000230333 0)
(0.000381824 0.000290735 0)
(6.29909e-05 0.000357499 0)
(-0.000314768 0.00043116 0)
(-0.000757495 0.000512288 0)
(-0.00127168 0.000601489 0)
(-0.00186428 0.000699412 0)
(-0.0025427 0.000806734 0)
(-0.00331477 0.000924133 0)
(-0.00418874 0.00105226 0)
(-0.00517316 0.0011917 0)
(-0.00627678 0.00134289 0)
(-0.0075084 0.00150612 0)
(-0.00887664 0.00168142 0)
(-0.0103897 0.00186855 0)
(-0.0120552 0.0020669 0)
(-0.0138795 0.00227547 0)
(-0.0158677 0.0024928 0)
(-0.0180233 0.00271696 0)
(-0.0203473 0.0029455 0)
(-0.0228385 0.00317544 0)
(-0.0254924 0.00340328 0)
(-0.0283017 0.00362502 0)
(-0.0312552 0.0038362 0)
(-0.0343382 0.00403195 0)
(-0.037532 0.00420708 0)
(-0.0408142 0.0043562 0)
(-0.0441585 0.00447378 0)
(-0.047535 0.00455439 0)
(-0.0509108 0.00459272 0)
(-0.05425 0.00458383 0)
(-0.0575145 0.00452326 0)
(-0.0606643 0.00440715 0)
(-0.0636588 0.00423242 0)
(-0.0664568 0.00399684 0)
(-0.0690175 0.00369918 0)
(-0.0713016 0.00333923 0)
(-0.0732711 0.00291793 0)
(-0.0748909 0.00243735 0)
(-0.076129 0.00190075 0)
(-0.0769568 0.00131257 0)
(-0.07735 0.000678358 0)
(-0.0772888 4.70368e-06 0)
(-0.0767591 -0.000700448 0)
(-0.0757518 -0.00142789 0)
(-0.0742627 -0.00216837 0)
(-0.0722943 -0.00291139 0)
(-0.0698548 -0.00364571 0)
(-0.0669587 -0.00435962 0)
(-0.0636266 -0.00504115 0)
(-0.0598851 -0.00567824 0)
(-0.055767 -0.00625905 0)
(-0.0513107 -0.00677223 0)
(-0.0465603 -0.00720721 0)
(-0.0415647 -0.00755454 0)
(-0.0363772 -0.00780626 0)
(-0.0310551 -0.00795614 0)
(-0.0256584 -0.00800005 0)
(-0.020249 -0.00793615 0)
(-0.0148898 -0.0077651 0)
(-0.00964311 -0.00749019 0)
(-0.0045699 -0.0071173 0)
(0.000271929 -0.00665485 0)
(0.00482861 -0.00611359 0)
(0.0090518 -0.00550628 0)
(0.0128997 -0.00484731 0)
(0.0163381 -0.0041522 0)
(0.0193412 -0.00343704 0)
(0.0218918 -0.00271796 0)
(0.0239823 -0.00201052 0)
(0.025614 -0.00132916 0)
(0.026797 -0.000686547 0)
(0.0275504 -9.30052e-05 0)
(0.0279001 0.000442528 0)
(0.0278775 0.000913726 0)
(0.0275199 0.00131732 0)
(0.0268682 0.00165221 0)
(0.0259647 0.00191942 0)
(0.0248529 0.0021219 0)
(0.0235751 0.00226417 0)
(0.0221719 0.00235192 0)
(0.020681 0.00239168 0)
(0.0191364 0.0023904 0)
(0.017568 0.00235518 0)
(0.0160013 0.00229298 0)
(0.0144572 0.00221038 0)
(0.0129523 0.00211344 0)
(0.011499 0.00200749 0)
(0.0101061 0.00189698 0)
(0.00877945 0.00178528 0)
(0.00752256 0.00167447 0)
(0.00633768 0.00156502 0)
(0.00522692 0.00145556 0)
(0.00419343 0.00134257 0)
(0.00324275 0.00122032 0)
(0.00238398 0.00108116 0)
(0.00163048 0.00091658 0)
(0.000999605 0.000719663 0)
(0.000508358 0.000490094 0)
(0.00018221 0.000242731 0)
(1.70596e-05 3.90786e-05 0)
(1.65313e-05 -0.000135532 0)
(0.000129075 -0.000319017 0)
(0.000285318 -0.000426714 0)
(0.000468971 -0.000472715 0)
(0.000652329 -0.000474055 0)
(0.0008231 -0.000445773 0)
(0.00097215 -0.000399671 0)
(0.00109401 -0.000344116 0)
(0.00118568 -0.00028445 0)
(0.00124566 -0.000223585 0)
(0.00127308 -0.000162629 0)
(0.0012671 -0.000101442 0)
(0.00122654 -3.90953e-05 0)
(0.00114958 2.57692e-05 0)
(0.00103358 9.47566e-05 0)
(0.000875078 0.00016942 0)
(0.00066988 0.000251254 0)
(0.000412957 0.000341613 0)
(9.85407e-05 0.000441743 0)
(-0.000279806 0.000552795 0)
(-0.000729159 0.000675841 0)
(-0.00125721 0.000811928 0)
(-0.00187224 0.000962112 0)
(-0.00258313 0.00112748 0)
(-0.00339935 0.00130917 0)
(-0.00433091 0.00150833 0)
(-0.00538835 0.00172613 0)
(-0.00658266 0.00196367 0)
(-0.00792514 0.00222192 0)
(-0.00942724 0.00250167 0)
(-0.0111004 0.00280334 0)
(-0.0129556 0.00312698 0)
(-0.0150032 0.00347208 0)
(-0.0172525 0.00383749 0)
(-0.0197111 0.00422134 0)
(-0.0223848 0.00462092 0)
(-0.0252766 0.00503262 0)
(-0.0283866 0.00545189 0)
(-0.0317112 0.00587325 0)
(-0.0352431 0.00629024 0)
(-0.0389703 0.00669555 0)
(-0.0428765 0.00708106 0)
(-0.0469402 0.007438 0)
(-0.0511354 0.00775713 0)
(-0.0554314 0.00802892 0)
(-0.0597931 0.0082438 0)
(-0.0641815 0.00839246 0)
(-0.0685543 0.00846603 0)
(-0.0728665 0.00845642 0)
(-0.0770715 0.00835652 0)
(-0.0811214 0.00816043 0)
(-0.0849687 0.00786368 0)
(-0.088566 0.00746332 0)
(-0.0918681 0.00695807 0)
(-0.0948315 0.00634837 0)
(-0.0974161 0.00563643 0)
(-0.0995848 0.0048262 0)
(-0.101305 0.00392332 0)
(-0.102547 0.00293515 0)
(-0.103288 0.00187062 0)
(-0.103508 0.000740185 0)
(-0.103193 -0.000444415 0)
(-0.102333 -0.00167024 0)
(-0.100925 -0.00292245 0)
(-0.0989689 -0.00418569 0)
(-0.0964723 -0.00544362 0)
(-0.0934469 -0.00667915 0)
(-0.0899103 -0.0078746 0)
(-0.0858857 -0.00901202 0)
(-0.0814018 -0.0100734 0)
(-0.0764929 -0.0110412 0)
(-0.0711985 -0.0118984 0)
(-0.0655638 -0.0126293 0)
(-0.0596386 -0.0132195 0)
(-0.0534775 -0.0136569 0)
(-0.0471392 -0.0139316 0)
(-0.0406857 -0.0140368 0)
(-0.0341817 -0.013969 0)
(-0.0276937 -0.0137281 0)
(-0.0212886 -0.0133178 0)
(-0.015033 -0.0127459 0)
(-0.00899164 -0.0120239 0)
(-0.00322611 -0.0111668 0)
(0.00220623 -0.0101931 0)
(0.00725363 -0.0091239 0)
(0.0118711 -0.00798251 0)
(0.0160214 -0.00679365 0)
(0.0196758 -0.00558263 0)
(0.0228148 -0.00437452 0)
(0.0254287 -0.00319327 0)
(0.0275173 -0.00206091 0)
(0.02909 -0.000996961 0)
(0.030165 -1.81502e-05 0)
(0.0307686 0.000862822 0)
(0.0309348 0.00163714 0)
(0.0307032 0.00229966 0)
(0.0301175 0.00284892 0)
(0.0292248 0.00328696 0)
(0.0280733 0.0036188 0)
(0.0267108 0.00385195 0)
(0.025184 0.00399583 0)
(0.0235364 0.00406118 0)
(0.021808 0.00405948 0)
(0.0200343 0.0040024 0)
(0.0182461 0.0039014 0)
(0.016469 0.00376726 0)
(0.0147238 0.00360972 0)
(0.0130267 0.00343712 0)
(0.0113901 0.00325599 0)
(0.00982303 0.00307063 0)
(0.00833251 0.00288263 0)
(0.00692466 0.00269044 0)
(0.0056061 0.002489 0)
(0.00438532 0.00226973 0)
(0.00327399 0.00202108 0)
(0.00228786 0.00173026 0)
(0.00144691 0.0013868 0)
(0.000770476 0.00098899 0)
(0.000298107 0.000553815 0)
(3.18044e-05 0.000147274 0)
(1.69422e-05 -0.000200898 0)
(0.00012982 -0.000458101 0)
(0.000281602 -0.00059921 0)
(0.000454157 -0.0006527 0)
(0.000618679 -0.000644041 0)
(0.00076294 -0.000594361 0)
(0.000878054 -0.000519817 0)
(0.000958734 -0.000431756 0)
(0.00100196 -0.000337355 0)
(0.00100596 -0.00024044 0)
(0.000969335 -0.000142332 0)
(0.000890474 -4.25917e-05 0)
(0.000767145 6.03468e-05 0)
(0.000596288 0.000168659 0)
(0.000373826 0.000284813 0)
(9.46215e-05 0.000411333 0)
(-0.000247437 0.000550618 0)
(-0.000659455 0.000704883 0)
(-0.00114946 0.000876168 0)
(-0.00172634 0.00106636 0)
(-0.0023998 0.00127726 0)
(-0.00318033 0.00151058 0)
(-0.00407914 0.00176805 0)
(-0.00510817 0.0020514 0)
(-0.00628002 0.00236238 0)
(-0.00760788 0.0027027 0)
(-0.00910539 0.00307397 0)
(-0.0107865 0.00347762 0)
(-0.0126653 0.00391475 0)
(-0.0147557 0.00438599 0)
(-0.0170707 0.00489132 0)
(-0.0196228 0.00542991 0)
(-0.0224224 0.00599994 0)
(-0.0254782 0.00659844 0)
(-0.0287959 0.00722113 0)
(-0.032378 0.00786236 0)
(-0.0362228 0.00851502 0)
(-0.0403243 0.00917051 0)
(-0.0446712 0.00981881 0)
(-0.0492471 0.0104486 0)
(-0.0540298 0.0110474 0)
(-0.0589915 0.0116019 0)
(-0.064099 0.0120981 0)
(-0.069314 0.0125219 0)
(-0.0745936 0.0128592 0)
(-0.0798912 0.0130966 0)
(-0.0851574 0.0132216 0)
(-0.0903408 0.013223 0)
(-0.0953891 0.0130913 0)
(-0.10025 0.012819 0)
(-0.104873 0.0124006 0)
(-0.109209 0.0118331 0)
(-0.11321 0.0111155 0)
(-0.116835 0.0102494 0)
(-0.120042 0.00923872 0)
(-0.122798 0.00808932 0)
(-0.12507 0.00680932 0)
(-0.126832 0.00540877 0)
(-0.12806 0.0038995 0)
(-0.128737 0.00229505 0)
(-0.128847 0.000610529 0)
(-0.128382 -0.0011375 0)
(-0.127335 -0.00293115 0)
(-0.125704 -0.00475127 0)
(-0.123493 -0.00657751 0)
(-0.120708 -0.00838855 0)
(-0.117361 -0.0101623 0)
(-0.113468 -0.0118759 0)
(-0.109051 -0.0135062 0)
(-0.104135 -0.0150301 0)
(-0.0987517 -0.0164245 0)
(-0.0929379 -0.0176672 0)
(-0.0867355 -0.0187373 0)
(-0.0801916 -0.0196155 0)
(-0.0733585 -0.0202852 0)
(-0.0662931 -0.0207323 0)
(-0.0590569 -0.0209465 0)
(-0.0517146 -0.0209217 0)
(-0.0443339 -0.020656 0)
(-0.0369843 -0.0201526 0)
(-0.0297359 -0.0194196 0)
(-0.0226582 -0.0184705 0)
(-0.0158191 -0.0173232 0)
(-0.00928297 -0.0160007 0)
(-0.00310999 -0.0145296 0)
(0.00264558 -0.0129401 0)
(0.00793631 -0.0112647 0)
(0.0127227 -0.00953716 0)
(0.0169739 -0.00779198 0)
(0.0206686 -0.00606274 0)
(0.023795 -0.00438136 0)
(0.0263512 -0.00277705 0)
(0.0283451 -0.0012754 0)
(0.0297939 0.000102469 0)
(0.0307233 0.00134002 0)
(0.0311669 0.00242585 0)
(0.0311646 0.00335375 0)
(0.0307615 0.00412248 0)
(0.0300062 0.0047354 0)
(0.0289493 0.00519993 0)
(0.0276418 0.00552681 0)
(0.0261336 0.00572939 0)
(0.024472 0.00582279 0)
(0.022701 0.00582312 0)
(0.0208601 0.00574673 0)
(0.0189839 0.00560949 0)
(0.017102 0.00542614 0)
(0.0152389 0.00520965 0)
(0.0134144 0.00497054 0)
(0.0116446 0.00471617 0)
(0.00994243 0.00445009 0)
(0.00831929 0.00417135 0)
(0.00678611 0.0038741 0)
(0.00535498 0.00354754 0)
(0.00404056 0.00317671 0)
(0.00286137 0.00274461 0)
(0.00184068 0.00223625 0)
(0.00100172 0.00164547 0)
(0.000399584 0.000984424 0)
(4.44234e-05 0.000309249 0)
(1.58616e-05 -0.000264115 0)
(0.000118841 -0.000588652 0)
(0.000251227 -0.000755299 0)
(0.000393984 -0.000807577 0)
(0.000519068 -0.00078033 0)
(0.000614886 -0.000701156 0)
(0.000673336 -0.000590558 0)
(0.000689702 -0.000462635 0)
(0.000661183 -0.000326088 0)
(0.000585814 -0.000185332 0)
(0.000461618 -4.15779e-05 0)
(0.000286056 0.000106201 0)
(5.56469e-05 0.000260463 0)
(-0.000234229 0.000424488 0)
(-0.000589444 0.000601864 0)
(-0.00101714 0.000796244 0)
(-0.00152568 0.00101113 0)
(-0.00212459 0.00124978 0)
(-0.0028245 0.00151521 0)
(-0.00363708 0.00181025 0)
(-0.00457496 0.00213754 0)
(-0.00565169 0.00249965 0)
(-0.00688164 0.00289906 0)
(-0.00827997 0.00333824 0)
(-0.00986249 0.00381954 0)
(-0.0116455 0.00434515 0)
(-0.0136456 0.004917 0)
(-0.0158794 0.00553654 0)
(-0.0183631 0.00620458 0)
(-0.0211119 0.00692103 0)
(-0.0241398 0.00768464 0)
(-0.0274588 0.00849279 0)
(-0.0310778 0.00934122 0)
(-0.0350026 0.0102239 0)
(-0.0392345 0.0111326 0)
(-0.04377 0.0120574 0)
(-0.0486001 0.0129861 0)
(-0.0537097 0.0139046 0)
(-0.0590775 0.0147969 0)
(-0.0646757 0.0156457 0)
(-0.0704702 0.0164326 0)
(-0.0764213 0.0171385 0)
(-0.082484 0.0177444 0)
(-0.0886091 0.0182317 0)
(-0.0947439 0.0185827 0)
(-0.100834 0.0187814 0)
(-0.106824 0.0188141 0)
(-0.112659 0.0186691 0)
(-0.118284 0.0183378 0)
(-0.123649 0.0178142 0)
(-0.128705 0.0170954 0)
(-0.133407 0.0161816 0)
(-0.137713 0.0150754 0)
(-0.141587 0.0137824 0)
(-0.144997 0.0123104 0)
(-0.147912 0.0106697 0)
(-0.150308 0.00887237 0)
(-0.152163 0.0069325 0)
(-0.15346 0.00486579 0)
(-0.154183 0.00268953 0)
(-0.154321 0.000422487 0)
(-0.153865 -0.0019152 0)
(-0.152809 -0.00430198 0)
(-0.151152 -0.00671503 0)
(-0.148892 -0.00913028 0)
(-0.146035 -0.0115225 0)
(-0.142588 -0.0138652 0)
(-0.138563 -0.0161313 0)
(-0.133976 -0.0182929 0)
(-0.128849 -0.0203218 0)
(-0.123206 -0.0221897 0)
(-0.11708 -0.0238691 0)
(-0.110507 -0.0253335 0)
(-0.103531 -0.0265582 0)
(-0.0962007 -0.0275211 0)
(-0.0885694 -0.0282033 0)
(-0.0806974 -0.02859 0)
(-0.072649 -0.028671 0)
(-0.0644928 -0.0284418 0)
(-0.0563005 -0.0279036 0)
(-0.0481458 -0.0270638 0)
(-0.0401031 -0.0259363 0)
(-0.032246 -0.0245412 0)
(-0.0246461 -0.0229047 0)
(-0.0173717 -0.0210581 0)
(-0.0104857 -0.0190375 0)
(-0.00404509 -0.0168824 0)
(0.00190057 -0.0146349 0)
(0.00731003 -0.012338 0)
(0.0121511 -0.010035 0)
(0.0164012 -0.00776735 0)
(0.0200474 -0.00557428 0)
(0.0230872 -0.00349108 0)
(0.0255273 -0.0015484 0)
(0.0273843 0.000228556 0)
(0.0286834 0.00182058 0)
(0.0294576 0.00321479 0)
(0.0297468 0.00440462 0)
(0.0295964 0.00538961 0)
(0.0290557 0.00617493 0)
(0.0281764 0.00677071 0)
(0.0270111 0.00719116 0)
(0.0256119 0.00745367 0)
(0.0240285 0.00757774 0)
(0.0223075 0.00758398 0)
(0.0204914 0.0074931 0)
(0.0186179 0.00732491 0)
(0.0167197 0.00709734 0)
(0.0148248 0.00682544 0)
(0.0129566 0.00652037 0)
(0.011135 0.00618843 0)
(0.00937733 0.00583016 0)
(0.00769976 0.00543973 0)
(0.00611874 0.00500487 0)
(0.00465275 0.00450768 0)
(0.0033239 0.0039268 0)
(0.00215981 0.00324141 0)
(0.00118884 0.00243766 0)
(0.000480904 0.00151691 0)
(5.43459e-05 0.000515946 0)
(1.37305e-05 -0.000320251 0)
(9.88667e-05 -0.000699147 0)
(0.000199529 -0.000879311 0)
(0.000296635 -0.000919131 0)
(0.000364604 -0.000863114 0)
(0.000393093 -0.000745371 0)
(0.000375262 -0.000590536 0)
(0.000307265 -0.000415088 0)
(0.000186663 -0.000228797 0)
(1.13223e-05 -3.62054e-05 0)
(-0.000221403 0.000162014 0)
(-0.000515178 0.000367865 0)
(-0.000874999 0.000585043 0)
(-0.00130735 0.000818176 0)
(-0.00182025 0.00107226 0)
(-0.00242321 0.00135231 0)
(-0.00312721 0.00166312 0)
(-0.00394456 0.00200918 0)
(-0.00488883 0.00239464 0)
(-0.00597478 0.0028234 0)
(-0.00721825 0.00329911 0)
(-0.00863606 0.00382523 0)
(-0.0102459 0.0044051 0)
(-0.0120662 0.00504184 0)
(-0.014116 0.00573833 0)
(-0.0164143 0.00649704 0)
(-0.0189804 0.00731981 0)
(-0.0218327 0.00820763 0)
(-0.0249885 0.00916031 0)
(-0.0284635 0.0101761 0)
(-0.0322706 0.0112515 0)
(-0.0364194 0.0123809 0)
(-0.0409153 0.013556 0)
(-0.0457584 0.0147661 0)
(-0.0509432 0.0159979 0)
(-0.0564576 0.0172351 0)
(-0.0622826 0.0184592 0)
(-0.0683921 0.0196493 0)
(-0.074753 0.0207828 0)
(-0.0813256 0.0218359 0)
(-0.0880642 0.0227842 0)
(-0.0949183 0.0236036 0)
(-0.101833 0.024271 0)
(-0.108753 0.0247648 0)
(-0.115619 0.025066 0)
(-0.122373 0.0251582 0)
(-0.128961 0.0250285 0)
(-0.135328 0.0246672 0)
(-0.141424 0.0240686 0)
(-0.147202 0.0232301 0)
(-0.152621 0.0221528 0)
(-0.157643 0.0208408 0)
(-0.162232 0.019301 0)
(-0.166359 0.0175428 0)
(-0.169998 0.015578 0)
(-0.173125 0.0134203 0)
(-0.175718 0.0110849 0)
(-0.17776 0.00858891 0)
(-0.179235 0.00595076 0)
(-0.180129 0.00319027 0)
(-0.18043 0.000328659 0)
(-0.180128 -0.00261145 0)
(-0.179215 -0.00560604 0)
(-0.177685 -0.00862958 0)
(-0.175536 -0.0116551 0)
(-0.172766 -0.0146541 0)
(-0.169377 -0.0175966 0)
(-0.165377 -0.0204515 0)
(-0.160774 -0.0231865 0)
(-0.155584 -0.0257685 0)
(-0.149826 -0.0281639 0)
(-0.143525 -0.0303395 0)
(-0.136713 -0.0322629 0)
(-0.129426 -0.0339032 0)
(-0.121708 -0.035232 0)
(-0.113612 -0.0362244 0)
(-0.105193 -0.0368599 0)
(-0.0965153 -0.0371232 0)
(-0.0876483 -0.0370053 0)
(-0.0786655 -0.0365041 0)
(-0.0696444 -0.0356249 0)
(-0.0606646 -0.0343809 0)
(-0.0518065 -0.0327929 0)
(-0.0431494 -0.0308895 0)
(-0.0347703 -0.0287059 0)
(-0.0267416 -0.0262833 0)
(-0.0191303 -0.023668 0)
(-0.011996 -0.0209096 0)
(-0.00539025 -0.01806 0)
(0.000644473 -0.0151715 0)
(0.00607543 -0.0122957 0)
(0.0108799 -0.00948158 0)
(0.0150454 -0.0067745 0)
(0.0185694 -0.00421495 0)
(0.0214594 -0.00183752 0)
(0.023732 0.000329813 0)
(0.0254129 0.00226626 0)
(0.0265352 0.00395843 0)
(0.0271391 0.00540029 0)
(0.0272704 0.00659291 0)
(0.0269788 0.00754381 0)
(0.0263169 0.0082662 0)
(0.0253384 0.00877799 0)
(0.0240966 0.00910057 0)
(0.022643 0.00925768 0)
(0.021026 0.00927403 0)
(0.0192905 0.00917404 0)
(0.0174765 0.00898047 0)
(0.0156197 0.00871311 0)
(0.013751 0.00838732 0)
(0.0118975 0.00801279 0)
(0.010083 0.00759229 0)
(0.00832955 0.00712084 0)
(0.00665881 0.00658538 0)
(0.00509387 0.00596546 0)
(0.00366137 0.00523512 0)
(0.00239404 0.00436653 0)
(0.00132604 0.0033355 0)
(0.000539992 0.00212829 0)
(6.14335e-05 0.000756659 0)
(1.07812e-05 -0.000365535 0)
(7.16663e-05 -0.000780187 0)
(0.000130205 -0.000957999 0)
(0.000167985 -0.000971679 0)
(0.00016338 -0.000875208 0)
(0.000107936 -0.000708908 0)
(-3.47843e-06 -0.000501105 0)
(-0.000173597 -0.000270103 0)
(-0.000404411 -2.6151e-05 0)
(-0.000698272 0.000226661 0)
(-0.00105865 0.000488727 0)
(-0.00149057 0.000763489 0)
(-0.00200085 0.00105627 0)
(-0.00259817 0.00137339 0)
(-0.00329306 0.00172152 0)
(-0.0040978 0.00210725 0)
(-0.00502633 0.00253687 0)
(-0.00609409 0.00301626 0)
(-0.00731793 0.00355086 0)
(-0.00871598 0.00414574 0)
(-0.0103075 0.0048056 0)
(-0.0121127 0.00553485 0)
(-0.0141526 0.00633758 0)
(-0.0164489 0.00721745 0)
(-0.0190234 0.00817758 0)
(-0.0218975 0.00922024 0)
(-0.0250922 0.0103466 0)
(-0.0286268 0.0115565 0)
(-0.0325184 0.0128475 0)
(-0.0367812 0.0142152 0)
(-0.0414252 0.0156523 0)
(-0.0464553 0.0171485 0)
(-0.0518706 0.0186901 0)
(-0.0576635 0.0202602 0)
(-0.0638188 0.0218382 0)
(-0.0703138 0.0234009 0)
(-0.077118 0.024922 0)
(-0.0841932 0.0263735 0)
(-0.0914945 0.027726 0)
(-0.0989714 0.0289497 0)
(-0.106568 0.0300157 0)
(-0.114227 0.0308963 0)
(-0.121889 0.0315664 0)
(-0.129492 0.032004 0)
(-0.13698 0.0321909 0)
(-0.144296 0.0321128 0)
(-0.151387 0.0317597 0)
(-0.158207 0.0311259 0)
(-0.16471 0.0302095 0)
(-0.170858 0.0290125 0)
(-0.176614 0.02754 0)
(-0.181948 0.0258002 0)
(-0.186831 0.0238035 0)
(-0.191239 0.0215627 0)
(-0.195148 0.0190924 0)
(-0.198539 0.0164086 0)
(-0.201394 0.0135289 0)
(-0.203694 0.010472 0)
(-0.205425 0.00725818 0)
(-0.206573 0.00390873 0)
(-0.207125 0.000446412 0)
(-0.207068 -0.00310454 0)
(-0.206392 -0.00671841 0)
(-0.205089 -0.0103677 0)
(-0.20315 -0.0140233 0)
(-0.200571 -0.0176541 0)
(-0.197349 -0.0212272 0)
(-0.193483 -0.0247078 0)
(-0.188978 -0.0280596 0)
(-0.183839 -0.0312449 0)
(-0.178081 -0.034225 0)
(-0.17172 -0.0369608 0)
(-0.16478 -0.0394135 0)
(-0.157291 -0.0415455 0)
(-0.149291 -0.0433213 0)
(-0.140826 -0.0447088 0)
(-0.131947 -0.0456803 0)
(-0.122717 -0.0462138 0)
(-0.113203 -0.0462943 0)
(-0.10348 -0.0459143 0)
(-0.0936297 -0.0450755 0)
(-0.0837363 -0.0437886 0)
(-0.0738873 -0.0420737 0)
(-0.0641713 -0.0399604 0)
(-0.054675 -0.0374868 0)
(-0.0454823 -0.034699 0)
(-0.0366716 -0.0316495 0)
(-0.0283142 -0.0283957 0)
(-0.0204732 -0.0249981 0)
(-0.013202 -0.0215189 0)
(-0.00654369 -0.0180195 0)
(-0.000530711 -0.0145595 0)
(0.00481535 -0.0111947 0)
(0.00948359 -0.00797568 0)
(0.0134735 -0.00494692 0)
(0.0167943 -0.00214567 0)
(0.0194646 0.000398629 0)
(0.0215115 0.00266483 0)
(0.0229695 0.00464019 0)
(0.02388 0.00632023 0)
(0.0242895 0.00770832 0)
(0.0242487 0.00881498 0)
(0.0238111 0.0096569 0)
(0.0230313 0.0102558 0)
(0.0219636 0.010637 0)
(0.0206607 0.0108282 0)
(0.0191727 0.0108573 0)
(0.0175462 0.0107516 0)
(0.0158233 0.0105353 0)
(0.0140422 0.010228 0)
(0.0122368 0.00984325 0)
(0.0104379 0.00938648 0)
(0.0086735 0.00885417 0)
(0.00697112 0.00823306 0)
(0.00535918 0.00750044 0)
(0.00386952 0.00662565 0)
(0.00254046 0.00557297 0)
(0.00141201 0.00430614 0)
(0.000576687 0.00279391 0)
(6.57394e-05 0.00102037 0)
(7.18755e-06 -0.000396944 0)
(3.83168e-05 -0.000823795 0)
(4.55948e-05 -0.000979871 0)
(1.19547e-05 -0.000951453 0)
(-7.90099e-05 -0.0008014 0)
(-0.000233268 -0.000575681 0)
(-0.000453821 -0.000305627 0)
(-0.000742095 -1.06209e-05 0)
(-0.00109961 0.000299346 0)
(-0.00152906 0.000621334 0)
(-0.00203493 0.000957425 0)
(-0.0026239 0.00131303 0)
(-0.00330495 0.00169554 0)
(-0.00408933 0.00211332 0)
(-0.00499045 0.00257499 0)
(-0.00602372 0.00308895 0)
(-0.0072064 0.00366317 0)
(-0.00855741 0.00430504 0)
(-0.0100971 0.00502138 0)
(-0.0118472 0.00581847 0)
(-0.0138305 0.00670206 0)
(-0.0160707 0.00767739 0)
(-0.0185919 0.0087491 0)
(-0.0214186 0.00992106 0)
(-0.0245748 0.0111961 0)
(-0.0280838 0.0125757 0)
(-0.0319669 0.0140593 0)
(-0.0362428 0.0156444 0)
(-0.0409268 0.0173253 0)
(-0.0460293 0.0190931 0)
(-0.0515551 0.0209352 0)
(-0.0575021 0.0228348 0)
(-0.0638606 0.0247712 0)
(-0.0706128 0.0267195 0)
(-0.0777324 0.0286513 0)
(-0.0851846 0.0305349 0)
(-0.0929268 0.0323367 0)
(-0.10091 0.0340216 0)
(-0.109078 0.0355545 0)
(-0.117373 0.0369014 0)
(-0.125733 0.0380306 0)
(-0.134096 0.0389134 0)
(-0.1424 0.0395252 0)
(-0.150589 0.0398461 0)
(-0.158606 0.0398607 0)
(-0.166399 0.0395588 0)
(-0.173924 0.0389347 0)
(-0.181138 0.0379871 0)
(-0.188004 0.0367186 0)
(-0.194487 0.0351353 0)
(-0.200559 0.033246 0)
(-0.206193 0.0310621 0)
(-0.211366 0.0285971 0)
(-0.216055 0.025866 0)
(-0.22024 0.0228853 0)
(-0.223905 0.0196728 0)
(-0.227033 0.0162474 0)
(-0.229607 0.0126291 0)
(-0.231613 0.00883903 0)
(-0.233037 0.00489959 0)
(-0.233867 0.00083443 0)
(-0.234089 -0.0033313 0)
(-0.233692 -0.0075708 0)
(-0.232664 -0.0118554 0)
(-0.230996 -0.0161545 0)
(-0.228678 -0.0204352 0)
(-0.225703 -0.0246625 0)
(-0.222064 -0.0287988 0)
(-0.217758 -0.0328046 0)
(-0.212785 -0.0366381 0)
(-0.207147 -0.0402559 0)
(-0.200855 -0.0436134 0)
(-0.19392 -0.0466653 0)
(-0.186365 -0.049367 0)
(-0.178217 -0.0516752 0)
(-0.169514 -0.0535495 0)
(-0.160299 -0.0549537 0)
(-0.15063 -0.0558572 0)
(-0.140569 -0.0562366 0)
(-0.130192 -0.0560773 0)
(-0.119579 -0.0553745 0)
(-0.108821 -0.0541342 0)
(-0.0980113 -0.0523735 0)
(-0.087248 -0.0501213 0)
(-0.0766298 -0.0474173 0)
(-0.0662537 -0.0443112 0)
(-0.0562122 -0.0408614 0)
(-0.0465915 -0.0371331 0)
(-0.0374689 -0.0331962 0)
(-0.0289113 -0.0291231 0)
(-0.0209744 -0.0249867 0)
(-0.0137016 -0.0208577 0)
(-0.00712407 -0.0168032 0)
(-0.00126108 -0.012885 0)
(0.00387963 -0.00915804 0)
(0.00830109 -0.0056695 0)
(0.0120162 -0.00245793 0)
(0.015047 0.000447159 0)
(0.0174237 0.00302562 0)
(0.0191835 0.0052666 0)
(0.0203698 0.00716822 0)
(0.0210311 0.00873704 0)
(0.0212196 0.00998718 0)
(0.0209899 0.0109392 0)
(0.0203976 0.0116187 0)
(0.0194982 0.0120547 0)
(0.0183457 0.0122781 0)
(0.0169912 0.0123193 0)
(0.015483 0.0122066 0)
(0.0138652 0.0119636 0)
(0.0121783 0.0116077 0)
(0.0104596 0.0111472 0)
(0.00874351 0.0105804 0)
(0.00706352 0.00989435 0)
(0.00545385 0.00906423 0)
(0.00395192 0.00805469 0)
(0.00260166 0.00682179 0)
(0.0014486 0.00531652 0)
(0.00059206 0.0034893 0)
(6.74416e-05 0.00129639 0)
(3.08596e-06 -0.000411646 0)
(-5.63445e-07 -0.000823023 0)
(-5.29795e-05 -0.00093473 0)
(-0.000169037 -0.000846068 0)
(-0.000358896 -0.000627972 0)
(-0.000625551 -0.000331153 0)
(-0.000969466 1.09892e-05 0)
(-0.00139063 0.000378926 0)
(-0.00189012 0.000763824 0)
(-0.00247114 0.0011647 0)
(-0.00313949 0.00158603 0)
(-0.00390383 0.00203577 0)
(-0.00477565 0.00252387 0)
(-0.00576916 0.0030611 0)
(-0.00690102 0.0036583 0)
(-0.00819016 0.0043259 0)
(-0.00965746 0.00507367 0)
(-0.0113255 0.00591061 0)
(-0.0132185 0.00684491 0)
(-0.0153617 0.00788403 0)
(-0.0177815 0.00903462 0)
(-0.0205047 0.0103025 0)
(-0.0235583 0.0116925 0)
(-0.026969 0.0132081 0)
(-0.0307621 0.014851 0)
(-0.0349613 0.0166209 0)
(-0.0395868 0.0185145 0)
(-0.0446552 0.0205253 0)
(-0.0501774 0.0226426 0)
(-0.0561579 0.0248515 0)
(-0.0625938 0.0271321 0)