/*--------------------------------*- C++ -*----------------------------------*\
| =========                 |                                                 |
| \\      /  F ield         | OpenFOAM: The Open Source CFD Toolbox           |
|  \\    /   O peration     | Version:  2406                                  |
|   \\  /    A nd           | Website:  www.openfoam.com                      |
|    \\/     M anipulation  |                                                 |
\*---------------------------------------------------------------------------*/
FoamFile
{
    version     2.0;
    format      ascii;
    arch        "LSB;label=32;scalar=64";
    class       volScalarField;
    location    "26.7";
    object      p;
}
// * * * * * * * * * * * * * * * * * * * * * * * * * * * * * * * * * * * * * //

dimensions      [0 2 -2 0 0 0 0];

internalField   nonuniform List<scalar> 
3600
(
0.0351718
0.0351798
0.0351617
0.035134
0.0350822
0.035019
0.0349384
0.0348463
0.0347401
0.0346206
0.0344866
0.0343357
0.0341674
0.033978
0.0337672
0.0335316
0.0332726
0.0329899
0.032689
0.0323756
0.0320626
0.0317647
0.0315042
0.0313048
0.0311939
0.0311957
0.0313314
0.0316125
0.0320416
0.0326063
0.0332803
0.0340209
0.0347708
0.0354607
0.0360148
0.0363593
0.0364319
0.0361938
0.0356353
0.0347849
0.0337005
0.0324695
0.0311835
0.0299377
0.0288005
0.0278269
0.0270327
0.0264262
0.0259807
0.0256811
0.0254831
0.0253739
0.0253096
0.0252933
0.0252852
0.0253063
0.0253174
0.0253541
0.0253714
0.0254053
0.0351639
0.0351717
0.0351517
0.0351244
0.0350747
0.0350149
0.0349391
0.0348525
0.0347532
0.0346417
0.0345178
0.0343789
0.0342251
0.0340525
0.0338611
0.0336467
0.0334103
0.03315
0.0328701
0.0325743
0.0322737
0.0319806
0.0317146
0.0314962
0.0313516
0.0313051
0.0313806
0.0315935
0.0319508
0.032444
0.0330506
0.0337305
0.0344285
0.0350762
0.0355983
0.035921
0.035981
0.0357389
0.0351843
0.0343462
0.0332835
0.0320855
0.0308456
0.0296591
0.0285923
0.0276952
0.0269759
0.0264356
0.0260414
0.0257758
0.0255951
0.0254903
0.025421
0.0253949
0.0253737
0.0253818
0.0253779
0.0254023
0.0254053
0.0254393
0.0351817
0.0351903
0.0351696
0.0351409
0.0350907
0.0350301
0.0349551
0.0348693
0.0347726
0.0346639
0.0345441
0.0344096
0.0342611
0.034093
0.0339048
0.0336903
0.0334488
0.0331758
0.0328734
0.0325427
0.0321934
0.0318375
0.0314978
0.0312005
0.0309779
0.0308601
0.0308751
0.0310406
0.0313648
0.0318399
0.0324432
0.0331339
0.033856
0.0345393
0.035106
0.0354785
0.0355889
0.0353918
0.0348716
0.0340527
0.032993
0.031784
0.0305254
0.0293211
0.0282457
0.0273556
0.0266611
0.026161
0.0258168
0.0256043
0.025473
0.0254095
0.0253714
0.0253675
0.0253598
0.0253769
0.0253755
0.0254042
0.0254059
0.0254524
0.0352104
0.0352161
0.0351944
0.0351633
0.0351141
0.0350542
0.0349833
0.0349018
0.0348121
0.0347107
0.0346003
0.0344749
0.0343352
0.0341724
0.033984
0.0337589
0.0334927
0.0331758
0.0328076
0.0323882
0.0319305
0.031452
0.0309817
0.0305507
0.0301959
0.0299504
0.0298449
0.0298996
0.0301253
0.0305169
0.0310553
0.0317032
0.0324084
0.0331038
0.0337135
0.0341588
0.0343678
0.0342876
0.0338926
0.0331965
0.0322477
0.0311321
0.0299486
0.0288045
0.027781
0.0269407
0.0262987
0.0258558
0.0255721
0.0254203
0.0253456
0.0253312
0.0253315
0.0253555
0.0253648
0.025392
0.0253923
0.0254222
0.0254195
0.0254733
0.0352644
0.035264
0.035241
0.0352048
0.0351551
0.0350924
0.0350224
0.0349403
0.0348525
0.0347509
0.0346399
0.0345086
0.0343565
0.0341682
0.0339366
0.0336432
0.0332793
0.0328319
0.0323033
0.0316988
0.0310405
0.0303543
0.0296786
0.0290513
0.0285148
0.0281048
0.0278543
0.0277839
0.0279062
0.0282179
0.0287034
0.0293301
0.0300514
0.0308053
0.03152
0.0321171
0.0325207
0.0326678
0.0325176
0.0320644
0.0313379
0.0304083
0.0293665
0.0283199
0.0273571
0.0265523
0.025933
0.0255103
0.0252514
0.0251321
0.0250967
0.0251254
0.0251682
0.0252306
0.0252713
0.0253228
0.0253394
0.0253809
0.0253829
0.0254427
0.0353356
0.0353256
0.0353019
0.03526
0.0352117
0.0351471
0.0350803
0.0349983
0.0349126
0.0348079
0.0346897
0.0345386
0.0343504
0.0340991
0.0337718
0.0333421
0.0328009
0.0321377
0.0313632
0.0304923
0.0295589
0.0285978
0.0276555
0.0267741
0.0259992
0.0253675
0.0249131
0.0246575
0.0246153
0.0247864
0.025161
0.0257136
0.0264075
0.0271908
0.0280016
0.0287686
0.0294177
0.0298794
0.0300977
0.0300428
0.0297154
0.0291561
0.0284328
0.0276392
0.0268626
0.0261849
0.0256468
0.0252737
0.0250456
0.024948
0.0249323
0.0249817
0.0250472
0.0251322
0.025194
0.0252623
0.0252915
0.0253396
0.0253448
0.025403
0.035426
0.0354029
0.0353786
0.0353285
0.0352805
0.0352101
0.0351422
0.0350524
0.0349577
0.0348321
0.0346801
0.0344695
0.0341896
0.0338018
0.033289
0.0326214
0.0317968
0.0308136
0.0296976
0.0284769
0.0271989
0.0259083
0.0246596
0.0234984
0.0224725
0.021617
0.020964
0.0205321
0.0203346
0.0203715
0.0206365
0.0211101
0.0217656
0.0225636
0.0234566
0.0243867
0.02529
0.0260994
0.0267512
0.0271946
0.0273982
0.0273625
0.0271159
0.026721
0.0262495
0.0257834
0.0253774
0.0250762
0.0248811
0.0247941
0.0247805
0.0248307
0.0249015
0.0249954
0.0250706
0.0251517
0.0251942
0.0252495
0.025261
0.0253144
0.0355344
0.0354954
0.0354723
0.0354138
0.0353678
0.0352908
0.0352199
0.0351159
0.0350005
0.0348322
0.034612
0.0342907
0.0338506
0.0332422
0.0324502
0.0314493
0.0302524
0.0288729
0.0273557
0.0257436
0.0240979
0.0224711
0.0209223
0.0194963
0.0182379
0.0171764
0.0163385
0.015737
0.015382
0.0152718
0.0154023
0.0157591
0.016325
0.0170735
0.0179741
0.0189872
0.0200678
0.0211637
0.0222184
0.0231748
0.0239802
0.0245964
0.025003
0.0252098
0.0252465
0.0251705
0.0250352
0.0249006
0.024794
0.024743
0.0247359
0.0247775
0.0248371
0.0249204
0.024991
0.025069
0.0251137
0.0251669
0.0251803
0.0252241
0.0356496
0.0355914
0.0355701
0.0355005
0.0354542
0.0353636
0.0352798
0.0351439
0.0349808
0.0347286
0.0343828
0.0338749
0.0331839
0.0322551
0.031085
0.0296616
0.0280214
0.0261982
0.024259
0.0222614
0.0202785
0.0183654
0.0165807
0.0149623
0.0135471
0.012354
0.0114011
0.0106926
0.0102332
0.0100173
0.0100403
0.0102901
0.0107556
0.0114197
0.0122659
0.0132723
0.0144151
0.0156644
0.0169846
0.0183325
0.0196566
0.0209016
0.0220099
0.0229356
0.0236459
0.0241411
0.0244411
0.0245992
0.0246634
0.0246928
0.0247109
0.0247469
0.0247899
0.0248528
0.0249083
0.0249732
0.0250127
0.0250588
0.0250719
0.0251058
0.0357731
0.0356936
0.0356763
0.035595
0.0355472
0.0354368
0.0353287
0.0351395
0.0348947
0.0345078
0.0339684
0.0331913
0.0321599
0.0308245
0.0292043
0.0273099
0.0252071
0.0229521
0.0206326
0.018315
0.0160764
0.0139659
0.0120338
0.0103051
0.0088053
0.00754135
0.00652267
0.00574583
0.00521125
0.00491023
0.00483811
0.00498375
0.00533989
0.00589516
0.00664195
0.00757035
0.00867317
0.00994069
0.0113616
0.0129176
0.0145799
0.0163051
0.0180305
0.0196795
0.0211639
0.0224082
0.0233583
0.0240137
0.0244087
0.0246219
0.0247204
0.0247739
0.0248051
0.0248423
0.0248726
0.0249128
0.024936
0.0249668
0.024974
0.0249974
0.0358775
0.0357743
0.035761
0.0356633
0.0356071
0.035463
0.0353087
0.0350315
0.0346557
0.0340682
0.0332558
0.0321241
0.0306717
0.0288658
0.0267589
0.0243902
0.0218571
0.0192346
0.0166232
0.0140884
0.0117009
0.00949603
0.0075103
0.00575332
0.00423902
0.0029635
0.00192961
0.00112835
0.00055768
0.000207034
7.19009e-05
0.000141597
0.00041079
0.000870502
0.00151716
0.00234641
0.0033595
0.00455875
0.00595008
0.00753788
0.00932162
0.011288
0.013401
0.0155952
0.017768
0.0197923
0.0215316
0.0228872
0.0238197
0.024379
0.0246586
0.0247788
0.0248182
0.0248345
0.0248377
0.0248482
0.0248495
0.0248612
0.0248595
0.0248746
0.035963
0.0358353
0.0358268
0.0357093
0.0356374
0.035444
0.0352179
0.0348126
0.0342506
0.0333938
0.0322341
0.0306784
0.028754
0.0264556
0.023876
0.0210834
0.0182013
0.0153131
0.0125196
0.00987334
0.00743061
0.00520745
0.00322571
0.00148075
-2.20336e-05
-0.00129371
-0.0023343
-0.00315503
-0.00375763
-0.00415241
-0.00434231
-0.00433689
-0.00413978
-0.00375871
-0.00319576
-0.00245385
-0.00152954
-0.000416874
0.000896711
0.0024272
0.00419296
0.00620827
0.00847366
0.0109626
0.0136047
0.0162765
0.0188026
0.0209902
0.02268
0.0238154
0.0244537
0.0247429
0.0248352
0.0248458
0.0248243
0.0248021
0.0247767
0.0247653
0.0247515
0.0247597
0.0359851
0.0358316
0.0358249
0.0356794
0.0355774
0.0353111
0.034978
0.0343961
0.0335876
0.0323957
0.0308278
0.028805
0.0263947
0.0236262
0.0206327
0.0175049
0.0143807
0.0113376
0.00846527
0.00579487
0.00336457
0.00117149
-0.000774494
-0.00248828
-0.00396887
-0.00523076
-0.00627382
-0.00710923
-0.00773685
-0.0081657
-0.0083967
-0.00843806
-0.00829199
-0.00796556
-0.00746057
-0.0067803
-0.00592229
-0.00488157
-0.00364613
-0.00219822
-0.000513259
0.00143738
0.00368048
0.00622945
0.00906631
0.0121178
0.0152371
0.0182016
0.0207538
0.0226829
0.0239154
0.0245488
0.0247842
0.0248243
0.0247899
0.0247376
0.0246852
0.0246505
0.0246236
0.0246267
0.0359423
0.0357637
0.035756
0.035575
0.0354276
0.035064
0.0345873
0.0337813
0.032672
0.0310937
0.0290816
0.0265832
0.0237135
0.0205364
0.017219
0.0138611
0.0106006
0.00749614
0.0046183
0.00197393
-0.000415547
-0.00256834
-0.00448176
-0.0061764
-0.00765161
-0.00892215
-0.00998538
-0.0108507
-0.0115149
-0.0119849
-0.012259
-0.0123436
-0.0122394
-0.0119525
-0.0114847
-0.0108399
-0.0100177
-0.00901613
-0.00782723
-0.00643714
-0.00482435
-0.0029589
-0.000804566
0.00167542
0.00450612
0.00767591
0.0111094
0.0146308
0.0179682
0.020794
0.0228517
0.024074
0.0246199
0.0247616
0.024739
0.0246631
0.024585
0.0245266
0.0244859
0.0244838
0.0357767
0.0355725
0.0355569
0.0353282
0.0351149
0.034625
0.0339658
0.0328916
0.0314387
0.0294446
0.0269833
0.0240367
0.0207686
0.0172713
0.0137325
0.0102465
0.00693814
0.00383981
0.00100067
-0.00159464
-0.00393687
-0.00605436
-0.00794687
-0.0096368
-0.0111211
-0.012413
-0.0135064
-0.0144082
-0.0151121
-0.0156229
-0.0159365
-0.0160575
-0.0159853
-0.0157249
-0.0152781
-0.0146492
-0.0138399
-0.0128508
-0.011679
-0.0103163
-0.00874823
-0.00695069
-0.00489034
-0.00252439
0.000194015
0.00329802
0.00678583
0.0105683
0.0144441
0.01807
0.0210586
0.023109
0.0242092
0.0245938
0.0246329
0.0245494
0.0244498
0.0243678
0.0243138
0.0243051
0.0354911
0.0352631
0.0352328
0.0349466
0.0346481
0.0340065
0.0331321
0.0317573
0.0299366
0.0275227
0.0246361
0.0212967
0.0177113
0.0139891
0.0103236
0.00679012
0.00349272
0.000435192
-0.00235224
-0.00490226
-0.00721241
-0.00931626
-0.0112122
-0.0129219
-0.0144382
-0.0157717
-0.0169122
-0.0178644
-0.0186186
-0.0191774
-0.0195346
-0.019693
-0.0196504
-0.0194109
-0.0189758
-0.0183495
-0.0175353
-0.0165356
-0.0153522
-0.013982
-0.012419
-0.0106477
-0.00864441
-0.0063722
-0.00378147
-0.000818794
0.00256402
0.00636005
0.0104768
0.0146509
0.0184817
0.0214908
0.0233977
0.0242598
0.0244586
0.0243983
0.0242855
0.0241777
0.0241101
0.024091
0.0350245
0.0347729
0.0347182
0.034362
0.0339578
0.0331415
0.0320263
0.030333
0.0281414
0.0253298
0.0220679
0.0184111
0.0145985
0.0107424
0.00702883
0.00350598
0.00025436
-0.00274824
-0.00548567
-0.00800216
-0.0102973
-0.0124059
-0.0143229
-0.0160673
-0.0176276
-0.0190116
-0.0202054
-0.0212114
-0.0220173
-0.0226238
-0.0230229
-0.0232158
-0.0231993
-0.0229761
-0.0225477
-0.0219175
-0.0210904
-0.0200695
-0.0188604
-0.0174633
-0.0158798
-0.0141019
-0.0121176
-0.00990084
-0.00741113
-0.00459448
-0.00138076
0.00227677
0.00638597
0.010804
0.0152274
0.0191309
0.0220098
0.0236098
0.0241673
0.0241788
0.0240746
0.0239368
0.0238541
0.0238195
0.0343946
0.0341223
0.0340351
0.033601
0.0330762
0.032071
0.0307024
0.0286899
0.0261449
0.0229777
0.0194054
0.0155119
0.0115555
0.00763921
0.00393176
0.000451194
-0.00274392
-0.00569676
-0.00839981
-0.0109037
-0.0132064
-0.0153415
-0.0172991
-0.0190952
-0.0207137
-0.0221596
-0.023416
-0.0244828
-0.025346
-0.0260041
-0.0264477
-0.0266763
-0.0266861
-0.026478
-0.0260539
-0.025416
-0.0245708
-0.0235212
-0.022276
-0.0208373
-0.0192127
-0.0174002
-0.0153983
-0.0131923
-0.0107559
-0.00804618
-0.00499305
-0.00152744
0.00242627
0.00683642
0.0115493
0.0161161
0.0199615
0.0224933
0.023684
0.0238797
0.0238107
0.0236485
0.0235444
0.0234886
0.03355
0.0332586
0.0331297
0.0326102
0.0319528
0.030752
0.029129
0.0268132
0.0239496
0.020484
0.0166739
0.0126228
0.00859504
0.004675
0.00100924
-0.00241309
-0.00555147
-0.00846416
-0.0111476
-0.0136546
-0.0159794
-0.018153
-0.0201603
-0.022014
-0.0236944
-0.0252039
-0.0265232
-0.0276502
-0.0285693
-0.0292773
-0.0297638
-0.0300263
-0.0300608
-0.0298665
-0.0294457
-0.0287995
-0.0279357
-0.0268567
-0.0255741
-0.0240904
-0.0224184
-0.0205588
-0.0185192
-0.0162936
-0.0138702
-0.0112208
-0.00828811
-0.00500445
-0.00126266
0.00298223
0.00771933
0.0126514
0.0172694
0.0208043
0.0228429
0.0234742
0.0234543
0.0232992
0.0231613
0.0230796
0.0325336
0.0322274
0.0320512
0.0314451
0.0306513
0.0292592
0.0273944
0.024805
0.0216694
0.0179686
0.0139913
0.00985035
0.00580571
0.00191777
-0.00169026
-0.00505409
-0.0081465
-0.0110353
-0.0137172
-0.0162445
-0.0186067
-0.0208311
-0.0228979
-0.0248169
-0.0265652
-0.0281429
-0.029529
-0.0307193
-0.0316971
-0.032457
-0.0329881
-0.0332856
-0.0333455
-0.0331649
-0.0327472
-0.0320916
-0.0312085
-0.0300984
-0.0287769
-0.0272455
-0.0255216
-0.0236071
-0.0215167
-0.0192497
-0.0168071
-0.0141745
-0.0113121
-0.00816706
-0.004628
-0.000614081
0.00397215
0.00898998
0.0140973
0.0185232
0.0215314
0.0228704
0.023005
0.0228646
0.022707
0.0225832
0.0313117
0.030994
0.0307651
0.0300731
0.0291437
0.0275719
0.025487
0.0226629
0.019308
0.0154354
0.0113543
0.00717933
0.00315747
-0.000675784
-0.00421933
-0.00752834
-0.0105847
-0.0134609
-0.0161522
-0.018708
-0.0211131
-0.023391
-0.0255182
-0.0275015
-0.0293158
-0.0309594
-0.0324098
-0.0336611
-0.0346956
-0.0355056
-0.03608
-0.0364111
-0.0364957
-0.0363281
-0.0359135
-0.0352486
-0.0343469
-0.0332069
-0.0318484
-0.0302711
-0.0284976
-0.0265287
-0.0243854
-0.0220691
-0.0195907
-0.0169461
-0.0141128
-0.0110577
-0.00768146
-0.00389962
0.000450588
0.00534718
0.0106615
0.0157174
0.0197136
0.0218924
0.0224698
0.0222923
0.022174
0.021974
0.0299545
0.0296316
0.0293492
0.0285781
0.0275216
0.0257906
0.023516
0.0205023
0.0169819
0.0129959
0.00886383
0.00469572
0.000720733
-0.00304893
-0.00653144
-0.00979589
-0.0128296
-0.0157065
-0.0184187
-0.021012
-0.0234666
-0.0258025
-0.0279931
-0.0300428
-0.0319251
-0.0336361
-0.0351527
-0.0364666
-0.0375598
-0.0384216
-0.0390408
-0.0394068
-0.0395172
-0.0393629
-0.0389517
-0.0382771
-0.0373566
-0.0361861
-0.0347906
-0.0331673
-0.0313448
-0.0293216
-0.027125
-0.024756
-0.0222333
-0.0195587
-0.0167247
-0.0137164
-0.0104545
-0.0068698
-0.00277429
0.001885
0.00716927
0.0125653
0.017403
0.020468
0.0217723
0.0215892
0.0215312
0.0212466
0.0284446
0.0281214
0.0277852
0.026943
0.0257706
0.0239042
0.0214727
0.0183141
0.0146775
0.0106279
0.00648553
0.00235298
-0.00156095
-0.00526367
-0.00868963
-0.0119167
-0.0149355
-0.0178186
-0.020555
-0.023186
-0.0256887
-0.0280791
-0.0303291
-0.0324405
-0.0343864
-0.0361607
-0.0377402
-0.0391136
-0.0402633
-0.0411748
-0.0418378
-0.0422374
-0.0423731
-0.0422316
-0.0418239
-0.0411396
-0.0402012
-0.0390009
-0.0375701
-0.0359026
-0.0340342
-0.0319598
-0.029714
-0.0272947
-0.0247281
-0.0220175
-0.0191672
-0.0161763
-0.0129868
-0.0095531
-0.00569145
-0.00131133
0.00377649
0.00926448
0.0146633
0.0186176
0.0207367
0.0207906
0.02071
0.0203949
0.0268737
0.0265582
0.0261719
0.0252713
0.0239995
0.022026
0.0194731
0.0162139
0.0125061
0.00843403
0.00431142
0.000232216
-0.00361579
-0.00725508
-0.0106334
-0.0138331
-0.0168464
-0.0197427
-0.0225081
-0.0251795
-0.0277313
-0.0301762
-0.0324853
-0.0346579
-0.0366674
-0.0385048
-0.0401477
-0.0415814
-0.0427886
-0.0437508
-0.0444588
-0.0448929
-0.045055
-0.0449268
-0.0445235
-0.0438298
-0.0428742
-0.041644
-0.0401787
-0.0384673
-0.0365544
-0.0344303
-0.0321381
-0.029671
-0.0270632
-0.0243159
-0.0214428
-0.0184517
-0.0153038
-0.0119784
-0.0083112
-0.00420668
0.000596187
0.00598227
0.0116445
0.0163852
0.0192794
0.0198905
0.019689
0.019412
0.0252311
0.0249287
0.024496
0.0235487
0.0221933
0.020139
0.0174966
0.0141743
0.0104304
0.00636589
0.00228222
-0.00173408
-0.00551571
-0.00909534
-0.0124319
-0.0156085
-0.0186189
-0.0215279
-0.0243197
-0.0270265
-0.0296214
-0.032114
-0.0344755
-0.0367026
-0.0387696
-0.0406645
-0.0423661
-0.0438554
-0.0451168
-0.0461264
-0.0468774
-0.0473438
-0.0475315
-0.0474157
-0.0470172
-0.046314
-0.0453425
-0.0440835
-0.042586
-0.0408325
-0.0388784
-0.0367075
-0.0343735
-0.0318632
-0.0292199
-0.0264398
-0.0235454
-0.0205477
-0.017423
-0.014174
-0.0106591
-0.00680462
-0.00231118
0.0028322
0.0085225
0.0138189
0.0174379
0.0187769
0.0184935
0.0182597
0.0236191
0.0233382
0.0228661
0.0218871
0.0204667
0.0183593
0.0156588
0.0123079
0.00855797
0.00452441
0.000492216
-0.00345749
-0.00717665
-0.0107036
-0.0140066
-0.0171667
-0.020179
-0.0231029
-0.0259217
-0.0286627
-0.0312992
-0.033837
-0.0362487
-0.0385278
-0.0406505
-0.0426011
-0.0443601
-0.0459037
-0.0472187
-0.0482749
-0.0490687
-0.0495674
-0.0497814
-0.0496782
-0.0492858
-0.0485741
-0.0475887
-0.0463023
-0.0447749
-0.042981
-0.0409887
-0.0387733
-0.0364015
-0.0338516
-0.0311784
-0.0283703
-0.0254593
-0.0224548
-0.0193453
-0.0161521
-0.0127538
-0.0091163
-0.00491878
-0.000105061
0.00545057
0.0110101
0.0152961
0.0173366
0.0171772
0.0169094
0.0220208
0.0217666
0.0212608
0.0202616
0.0187913
0.016653
0.0139184
0.010564
0.00682764
0.00283845
-0.0011377
-0.00502163
-0.00868333
-0.0121624
-0.0154356
-0.0185798
-0.0215922
-0.0245261
-0.0273657
-0.0301329
-0.0328025
-0.0353765
-0.0378298
-0.0401522
-0.0423226
-0.0443208
-0.0461304
-0.0477213
-0.0490842
-0.0501814
-0.0510143
-0.0515412
-0.0517796
-0.0516873
-0.0513012
-0.050581
-0.0495838
-0.0482715
-0.0467179
-0.0448864
-0.0428604
-0.040604
-0.0381998
-0.0356148
-0.0329184
-0.0300882
-0.027168
-0.024161
-0.0210667
-0.0179183
-0.014612
-0.0111583
-0.00722759
-0.00277967
0.00253252
0.0080891
0.0129306
0.0155518
0.0157658
0.0153607
0.0205401
0.0203205
0.0197897
0.0187846
0.0172811
0.0151345
0.012389
0.00905434
0.00534872
0.00141452
-0.00250325
-0.00632438
-0.00993522
-0.0133732
-0.0166226
-0.0197546
-0.0227688
-0.0257124
-0.028571
-0.0313614
-0.034061
-0.0366672
-0.0391584
-0.0415199
-0.0437344
-0.0457759
-0.0476326
-0.0492671
-0.0506751
-0.0518102
-0.0526803
-0.0532337
-0.0534963
-0.0534145
-0.0530363
-0.052309
-0.0513032
-0.0499676
-0.0483923
-0.0465266
-0.0444721
-0.0421785
-0.0397476
-0.0371317
-0.0344187
-0.0315717
-0.0286505
-0.0256463
-0.0225722
-0.0194642
-0.0162365
-0.0129374
-0.00924364
-0.00515962
-0.000164094
0.0051928
0.0104074
0.0134765
0.0142174
0.0136223
0.019143
0.0189616
0.0184124
0.0174106
0.0158857
0.0137461
0.0110052
0.00770387
0.00403691
0.000160459
-0.00370217
-0.00746575
-0.011032
-0.0144326
-0.0176596
-0.0207771
-0.0237886
-0.0267344
-0.0296037
-0.0324075
-0.0351271
-0.0377548
-0.0402737
-0.0426634
-0.044912
-0.0469865
-0.0488808
-0.0505491
-0.0519942
-0.053159
-0.0540604
-0.0546344
-0.0549178
-0.0548434
-0.0544727
-0.0537378
-0.0527258
-0.0513691
-0.0497765
-0.0478804
-0.0458033
-0.0434772
-0.0410261
-0.038384
-0.0356616
-0.0328032
-0.0298893
-0.0268936
-0.0238476
-0.0207798
-0.0176258
-0.0144582
-0.010976
-0.00723077
-0.0025971
0.0024351
0.00779772
0.0111875
0.0124629
0.011706
0.0179303
0.0177935
0.0172357
0.0162497
0.0147173
0.0126014
0.00988129
0.00662794
0.00300876
-0.000806255
-0.00461577
-0.00832694
-0.0118552
-0.0152242
-0.0184332
-0.0215381
-0.0245472
-0.0274938
-0.0303713
-0.0331848
-0.0359206
-0.0385651
-0.041107
-0.0435193
-0.0457967
-0.0478979
-0.0498245
-0.0515206
-0.0529979
-0.0541873
-0.0551168
-0.0557078
-0.056011
-0.0559428
-0.055581
-0.0548398
-0.0538255
-0.0524509
-0.050847
-0.0489252
-0.0468324
-0.0444788
-0.0420149
-0.0393516
-0.0366271
-0.0337619
-0.0308635
-0.0278814
-0.0248723
-0.0218462
-0.0187673
-0.0157141
-0.0124242
-0.00898351
-0.00473292
-9.55008e-05
0.00519629
0.00877739
0.0104921
0.00965576
0.016843
0.0167522
0.0161927
0.0152293
0.013698
0.0116153
0.00892468
0.00572575
0.002156
-0.00159979
-0.00536225
-0.00902727
-0.0125233
-0.0158631
-0.0190539
-0.0221423
-0.025143
-0.0280816
-0.0309581
-0.0337703
-0.0365116
-0.0391608
-0.0417146
-0.0441371
-0.0464319
-0.0485473
-0.0504953
-0.0522071
-0.053707
-0.0549106
-0.0558606
-0.0564609
-0.0567794
-0.0567126
-0.0563587
-0.0556098
-0.0545955
-0.0532045
-0.0515942
-0.0496502
-0.0475485
-0.0451719
-0.0427024
-0.0400224
-0.0373031
-0.034435
-0.0315595
-0.0285948
-0.0256309
-0.0226484
-0.0196485
-0.0166974
-0.0135853
-0.0104132
-0.00654585
-0.00233415
0.00271206
0.0063532
0.00837882
0.00755118
0.0159803
0.0159397
0.0153888
0.0144592
0.0129412
0.0109042
0.00825561
0.00512125
0.00160711
-0.0020878
-0.00580555
-0.00942922
-0.0128987
-0.0162142
-0.0193904
-0.0224639
-0.0254566
-0.0283859
-0.0312592
-0.0340668
-0.03681
-0.0394592
-0.04202
-0.0444466
-0.0467531
-0.0488755
-0.0508387
-0.052559
-0.0540758
-0.0552871
-0.0562535
-0.0568585
-0.0571907
-0.0571234
-0.0567788
-0.0560228
-0.0550125
-0.0536083
-0.0519979
-0.0500363
-0.0479333
-0.045539
-0.0430718
-0.0403795
-0.0376728
-0.0348053
-0.0319596
-0.0290149
-0.0261034
-0.0231659
-0.0202499
-0.0173919
-0.0144467
-0.01151
-0.00801126
-0.00422904
0.00045361
0.00403101
0.00624829
0.00549134
0.0152527
0.0152605
0.0147253
0.0138346
0.0123372
0.010352
0.00775135
0.00468531
0.00122721
-0.00240941
-0.00608784
-0.00967534
-0.0131228
-0.0164153
-0.019576
-0.0226299
-0.0256082
-0.0285189
-0.0313798
-0.0341714
-0.0369059
-0.0395426
-0.0420993
-0.0445169
-0.0468236
-0.0489399
-0.0509071
-0.0526231
-0.0541467
-0.0553544
-0.0563292
-0.0569297
-0.0572706
-0.0571967
-0.0568596
-0.0560938
-0.0550892
-0.0536718
-0.0520656
-0.0500887
-0.0479905
-0.0455814
-0.0431232
-0.0404216
-0.0377335
-0.0348682
-0.0320578
-0.0291334
-0.0262795
-0.0233862
-0.0205577
-0.0177849
-0.0149975
-0.0122657
-0.00911127
-0.00574256
-0.00148996
0.00191845
0.00422555
0.00356847
0.0147638
0.0148211
0.0143126
0.0134715
0.0120073
0.0100848
0.007544
0.00455585
0.00116123
-0.00241376
-0.00605268
-0.00960683
-0.0130364
-0.0163103
-0.0194592
-0.022496
-0.0254614
-0.0283536
-0.0312013
-0.0339747
-0.0366983
-0.0393188
-0.0418678
-0.0442712
-0.0465735
-0.0486771
-0.050643
-0.0523476
-0.053873
-0.0550706
-0.0560502
-0.0566414
-0.0569895
-0.0569063
-0.0565781
-0.0558024
-0.0548075
-0.0533789
-0.051783
-0.049794
-0.0477078
-0.0452875
-0.0428455
-0.040137
-0.037474
-0.0346116
-0.0318411
-0.028936
-0.0261434
-0.0232915
-0.020553
-0.0178575
-0.0152201
-0.0126659
-0.00982759
-0.00684364
-0.00304991
0.000108312
0.00241519
0.00186125
0.0143886
0.0144897
0.0140149
0.0132277
0.0118048
0.00995041
0.00747623
0.00457095
0.00124315
-0.00226937
-0.00587064
-0.00939365
-0.012808
-0.0160633
-0.0191995
-0.0222142
-0.0251611
-0.0280257
-0.0308518
-0.033596
-0.0362991
-0.0388915
-0.0414231
-0.0437999
-0.046088
-0.0481665
-0.0501215
-0.0518026
-0.0533211
-0.0544973
-0.0554746
-0.0560471
-0.0563977
-0.0562984
-0.055977
-0.055187
-0.0542026
-0.0527608
-0.0511783
-0.0491769
-0.0471069
-0.0446756
-0.0422544
-0.0395385
-0.0369043
-0.0340426
-0.0313146
-0.0284242
-0.0256941
-0.0228774
-0.0202285
-0.0176003
-0.0151045
-0.0127016
-0.0101499
-0.007513
-0.00418108
-0.00132836
0.00089531
0.000431401
0.0142462
0.0143887
0.0139582
0.0132356
0.0118688
0.0100939
0.00769998
0.00488924
0.00163976
-0.00180251
-0.00536114
-0.00885223
-0.0122531
-0.0154936
-0.0186214
-0.0216183
-0.0245504
-0.0273898
-0.0301962
-0.0329114
-0.0355944
-0.0381571
-0.0406703
-0.0430176
-0.0452895
-0.0473384
-0.0492799
-0.0509323
-0.0524413
-0.0535909
-0.0545642
-0.0551136
-0.0554666
-0.0553483
-0.0550356
-0.0542303
-0.0532602
-0.0518056
-0.0502417
-0.0482288
-0.0461811
-0.0437391
-0.0413443
-0.03862
-0.0360189
-0.0331545
-0.0304709
-0.027589
-0.0249211
-0.0221309
-0.0195698
-0.0169966
-0.0146344
-0.0123574
-0.0100644
-0.00773246
-0.00484958
-0.00233379
-0.000269606
-0.000664913
0.0141686
0.014343
0.0139625
0.0133084
0.0120083
0.0103201
0.00801637
0.00530932
0.00214744
-0.001217
-0.00472846
-0.00818442
-0.0115712
-0.014795
-0.0179132
-0.0208876
-0.0238008
-0.026607
-0.0293873
-0.0320635
-0.0347192
-0.0372418
-0.0397296
-0.0420367
-0.0442858
-0.0462948
-0.0482166
-0.04983
-0.0513237
-0.0524371
-0.0534016
-0.0539192
-0.0542712
-0.0541266
-0.0538212
-0.0529947
-0.0520391
-0.0505672
-0.0490236
-0.0469952
-0.044972
-0.0425153
-0.040149
-0.0374108
-0.0348438
-0.031969
-0.029329
-0.026445
-0.0238365
-0.0210595
-0.0185813
-0.0160471
-0.0138088
-0.0116307
-0.00956909
-0.00749591
-0.00503748
-0.00286696
-0.0010283
-0.00137902
0.0143079
0.014509
0.0141863
0.0136107
0.0123939
0.0108057
0.00860837
0.0060199
0.00296236
-0.000310321
-0.00376297
-0.00717753
-0.0105483
-0.0137576
-0.0168714
-0.0198295
-0.0227307
-0.0255093
-0.0282693
-0.0309102
-0.0335428
-0.0360269
-0.0384923
-0.0407595
-0.0429879
-0.0449558
-0.0468594
-0.0484317
-0.0499113
-0.0509857
-0.0519426
-0.0524257
-0.0527787
-0.0526054
-0.0523102
-0.0514608
-0.0505238
-0.0490329
-0.0475142
-0.0454684
-0.0434743
-0.0409996
-0.0386653
-0.0359079
-0.0333766
-0.0304827
-0.0278854
-0.0249871
-0.0224341
-0.0196546
-0.0172533
-0.0147392
-0.0126151
-0.0105085
-0.00865336
-0.00679188
-0.00472673
-0.00289014
-0.00132861
-0.00165661
0.0144415
0.0146575
0.0143949
0.0139008
0.0127799
0.0113021
0.0092254
0.00677064
0.00383428
0.000670573
-0.00270952
-0.00607062
-0.00941897
-0.0126076
-0.0157149
-0.018652
-0.0215393
-0.0242841
-0.0270207
-0.0296185
-0.0322244
-0.0346617
-0.0371017
-0.0393209
-0.0415264
-0.0434456
-0.0453292
-0.0468528
-0.048317
-0.0493448
-0.0502932
-0.0507342
-0.0510876
-0.0508782
-0.0505933
-0.0497135
-0.0487956
-0.0472784
-0.0457855
-0.0437144
-0.0417501
-0.0392482
-0.036946
-0.034158
-0.0316609
-0.0287339
-0.0261756
-0.0232454
-0.0207418
-0.017939
-0.0156065
-0.0130887
-0.0110673
-0.00900129
-0.00732796
-0.00562755
-0.0039167
-0.00238203
-0.00112861
-0.00145009
0.0147794
0.0150053
0.014804
0.0143986
0.0133887
0.0120363
0.0100976
0.00779415
0.00499992
0.00196555
-0.00132278
-0.00461667
-0.00793483
-0.0111017
-0.014207
-0.0171307
-0.0200148
-0.0227357
-0.0254599
-0.0280228
-0.0306114
-0.0330079
-0.0354304
-0.0376058
-0.0397953
-0.0416685
-0.0435384
-0.0450149
-0.0464694
-0.0474509
-0.048396
-0.0487942
-0.049153
-0.0489061
-0.0486362
-0.047724
-0.0468301
-0.0452833
-0.0438208
-0.0417195
-0.0397889
-0.0372527
-0.0349847
-0.0321558
-0.0296928
-0.0267183
-0.0241959
-0.0212147
-0.0187544
-0.0159049
-0.0136327
-0.0110846
-0.00915523
-0.00709759
-0.00558471
-0.00399506
-0.00259765
-0.00131779
-0.000380372
-0.000702499
0.0150251
0.0152501
0.0151066
0.0147907
0.0139032
0.0126905
0.0109079
0.00877771
0.00615017
0.00327387
0.000102568
-0.00309912
-0.00637138
-0.00950202
-0.0126006
-0.0155042
-0.0183855
-0.0210781
-0.0237917
-0.026315
-0.0288881
-0.0312385
-0.0336457
-0.035772
-0.0379487
-0.0397709
-0.041631
-0.0430552
-0.0445039
-0.0454335
-0.046379
-0.0467279
-0.0470953
-0.0468031
-0.0465511
-0.0455976
-0.0447298
-0.0431432
-0.0417125
-0.0395692
-0.0376726
-0.0350879
-0.0328533
-0.0299663
-0.0275348
-0.0244918
-0.0220004
-0.0189433
-0.0165194
-0.0135943
-0.0113741
-0.00876384
-0.00691612
-0.0048296
-0.00345661
-0.0019222
-0.000791907
0.000299372
0.000941394
0.000623193
0.0154824
0.0157042
0.0156114
0.0153854
0.0146278
0.013568
0.0119571
0.0100182
0.00757927
0.00488585
0.0018572
-0.00123
-0.00444082
-0.00752768
-0.010621
-0.0135117
-0.0164039
-0.0190821
-0.0218024
-0.0242999
-0.0268737
-0.0291891
-0.0315951
-0.0336809
-0.0358572
-0.037635
-0.0394967
-0.0408736
-0.042327
-0.0432081
-0.0441632
-0.0444644
-0.0448489
-0.0445113
-0.0442846
-0.0432876
-0.0424525
-0.0408217
-0.0394284
-0.037236
-0.0353777
-0.032734
-0.030535
-0.0275751
-0.0251745
-0.0220428
-0.0195787
-0.0164195
-0.0140254
-0.0109934
-0.00881705
-0.00610966
-0.00433552
-0.00218103
-0.000933643
0.000599609
0.001503
0.00247968
0.00286894
0.00257256
0.0157479
0.0159579
0.0159084
0.0157687
0.015148
0.0142575
0.0128393
0.0111209
0.00890216
0.00643255
0.00358408
0.000652856
-0.0024677
-0.00548282
-0.00855909
-0.0114245
-0.0143291
-0.0169895
-0.019724
-0.0221948
-0.0247785
-0.0270577
-0.0294719
-0.0315152
-0.0337007
-0.0354315
-0.0373044
-0.0386307
-0.0400983
-0.0409262
-0.0419001
-0.0421472
-0.0425566
-0.0421651
-0.0419704
-0.0409189
-0.0401219
-0.0384336
-0.0370817
-0.0348239
-0.0330065
-0.0302843
-0.0281218
-0.0250655
-0.0226948
-0.0194464
-0.0170069
-0.013713
-0.0113448
-0.00816934
-0.00603339
-0.00318891
-0.00148541
0.000782403
0.00191388
0.00350885
0.00422581
0.00518043
0.00538459
0.00514358
0.0162676
0.0164673
0.0164482
0.0163853
0.0158945
0.0151775
0.0139604
0.0124768
0.0104963
0.00827509
0.00563442
0.00288816
-0.000118868
-0.00304558
-0.00610033
-0.00894332
-0.0118743
-0.0145327
-0.0173046
-0.0197682
-0.0223858
-0.0246462
-0.0270901
-0.0291047
-0.031318
-0.0330126
-0.0349133
-0.0361972
-0.0376938
-0.0384747
-0.0394805
-0.0396773
-0.0401233
-0.0396791
-0.0395266
-0.0384193
-0.0376693
-0.0359188
-0.0346158
-0.0322846
-0.0305137
-0.0277004
-0.0255779
-0.022407
-0.0200668
-0.0166765
-0.0142591
-0.0107977
-0.00845085
-0.00509207
-0.00299255
3.39698e-05
0.0016672
0.00409738
0.00511252
0.00683
0.00738135
0.00840308
0.00849077
0.0083516
0.0164785
0.0166601
0.0166652
0.0166718
0.0163128
0.0157851
0.0147923
0.0135809
0.0118764
0.00995676
0.00757206
0.00507001
0.00222003
-0.000571518
-0.00358171
-0.00637781
-0.00933432
-0.0119842
-0.0148066
-0.0172646
-0.0199345
-0.0221794
-0.0246718
-0.0266596
-0.0289187
-0.0305767
-0.032522
-0.0337609
-0.0353025
-0.0360311
-0.0370838
-0.0372223
-0.0377187
-0.0372106
-0.0371126
-0.035935
-0.0352427
-0.0334121
-0.0321674
-0.0297409
-0.0280246
-0.0250942
-0.0230183
-0.019702
-0.0173975
-0.0138297
-0.0114389
-0.00776983
-0.00545018
-0.0018636
0.000189704
0.00344713
0.00499544
0.00764505
0.00853085
0.010448
0.0108477
0.012051
0.0120999
0.0121278
0.0170356
0.0172047
0.0172195
0.0172773
0.0170243
0.0166729
0.0158967
0.0149617
0.013541
0.0119404
0.00983293
0.00760414
0.00493711
0.00230576
-0.000647866
-0.00339113
-0.00638319
-0.00903767
-0.0119362
-0.0144115
-0.0171647
-0.0194175
-0.021988
-0.0239687
-0.0262993
-0.0279362
-0.0299483
-0.0311539
-0.0327597
-0.0334447
-0.034561
-0.0346471
-0.0352083
-0.0346396
-0.0346088
-0.0333609
-0.0327374
-0.0308234
-0.0296464
-0.0271172
-0.0254632
-0.0224032
-0.0203792
-0.0168983
-0.0146324
-0.0108594
-0.0084958