/*--------------------------------*- C++ -*----------------------------------*\
| =========                 |                                                 |
| \\      /  F ield         | OpenFOAM: The Open Source CFD Toolbox           |
|  \\    /   O peration     | Version:  2406                                  |
|   \\  /    A nd           | Website:  www.openfoam.com                      |
|    \\/     M anipulation  |                                                 |
\*---------------------------------------------------------------------------*/
FoamFile
{
    version     2.0;
    format      ascii;
    arch        "LSB;label=32;scalar=64";
    class       surfaceScalarField;
    location    "26.7";
    object      phi;
}
// * * * * * * * * * * * * * * * * * * * * * * * * * * * * * * * * * * * * * //

dimensions      [0 3 -1 0 0 0 0];

oriented        oriented;

internalField   nonuniform List<scalar> 
7080
(
2.53046e-07
-2.53002e-07
8.66656e-07
-6.17895e-07
1.611e-06
-7.43774e-07
2.3304e-06
-7.22513e-07
2.95939e-06
-6.29076e-07
3.45906e-06
-5.01374e-07
3.83191e-06
-3.72797e-07
4.07105e-06
-2.39316e-07
4.17908e-06
-1.0725e-07
4.13604e-06
4.44561e-08
3.91688e-06
2.21269e-07
3.47601e-06
4.44259e-07
2.76128e-06
7.1893e-07
1.70542e-06
1.06188e-06
2.32556e-07
1.48006e-06
-1.74608e-06
1.98813e-06
-4.32471e-06
2.5897e-06
-7.59701e-06
3.286e-06
-1.16436e-05
4.06214e-06
-1.652e-05
4.89469e-06
-2.22419e-05
5.7422e-06
-2.87679e-05
6.54902e-06
-3.59816e-05
7.23817e-06
-4.36759e-05
7.71999e-06
-5.15479e-05
7.89689e-06
-5.9205e-05
7.67997e-06
-6.61849e-05
6.99879e-06
-7.1988e-05
5.81692e-06
-7.61172e-05
4.13667e-06
-7.81215e-05
2.0051e-06
-7.76368e-05
-4.91143e-07
-7.44228e-05
-3.22733e-06
-6.83926e-05
-6.05005e-06
-5.96375e-05
-8.78093e-06
-4.84394e-05
-1.12288e-05
-3.5276e-05
-1.31982e-05
-2.08047e-05
-1.45085e-05
-5.83235e-06
-1.50112e-05
8.74576e-06
-1.46163e-05
2.20212e-05
-1.33123e-05
3.31741e-05
-1.11854e-05
4.15684e-05
-8.42245e-06
4.6844e-05
-5.29615e-06
4.89617e-05
-2.13214e-06
4.82093e-05
7.47442e-07
4.51332e-05
3.07668e-06
4.04407e-05
4.70152e-06
3.48601e-05
5.59169e-06
2.90395e-05
5.8373e-06
2.34589e-05
5.59487e-06
1.8427e-05
5.0497e-06
1.40814e-05
4.35749e-06
1.04509e-05
3.64614e-06
7.47523e-06
2.98308e-06
5.06455e-06
2.42382e-06
3.11892e-06
1.94865e-06
1.57733e-06
1.55257e-06
4.83329e-07
1.0935e-06
-7.84738e-08
5.70486e-07
-7.84336e-08
6.21846e-07
-8.70636e-07
1.77618e-06
-1.7723e-06
3.08808e-06
-2.0502e-06
4.29262e-06
-1.92586e-06
5.2684e-06
-1.60125e-06
5.91945e-06
-1.15152e-06
6.21249e-06
-6.64645e-07
6.0957e-06
-1.23054e-07
5.52314e-06
4.63827e-07
4.40499e-06
1.15975e-06
2.6297e-06
1.9918e-06
4.37255e-08
3.02387e-06
-3.52706e-06
4.28053e-06
-8.28296e-06
5.80635e-06
-1.44335e-05
7.61549e-06
-2.2189e-05
9.72535e-06
-3.17313e-05
1.21094e-05
-4.31826e-05
1.4711e-05
-5.65611e-05
1.74098e-05
-7.17369e-05
2.00359e-05
-8.83947e-05
2.23608e-05
-0.000106022
2.41336e-05
-0.000123936
2.51051e-05
-0.000141338
2.50739e-05
-0.000157391
2.39029e-05
-0.000171293
2.15382e-05
-0.000182329
1.79992e-05
-0.000189915
1.33765e-05
-0.000193606
7.81348e-06
-0.000193105
1.50349e-06
-0.000188258
-5.32371e-06
-0.000179059
-1.23991e-05
-0.000165644
-1.94239e-05
-0.000148306
-2.60653e-05
-0.000127501
-3.19709e-05
-0.000103854
-3.67749e-05
-7.81572e-05
-4.0129e-05
-5.13628e-05
-4.17278e-05
-2.45423e-05
-4.13598e-05
1.16044e-06
-3.89432e-05
2.46131e-05
-3.45735e-05
4.47786e-05
-2.85351e-05
6.08224e-05
-2.12996e-05
7.21915e-05
-1.34772e-05
7.86914e-05
-5.74216e-06
8.05037e-05
1.25858e-06
7.81826e-05
7.00739e-06
7.25672e-05
1.11808e-05
6.46794e-05
1.36972e-05
5.55505e-05
1.46909e-05
4.61038e-05
1.44685e-05
3.70268e-05
1.34042e-05
2.87702e-05
1.18815e-05
2.15326e-05
1.01959e-05
1.53623e-05
8.58061e-06
1.01959e-05
7.09522e-06
5.989e-06
5.75327e-06
2.77163e-06
4.29511e-06
6.95773e-07
2.64629e-06
6.08488e-07
7.52692e-07
-1.62376e-06
2.04256e-06
-3.06744e-06
3.41384e-06
-3.4215e-06
4.53672e-06
-3.0525e-06
5.25923e-06
-2.32452e-06
5.43961e-06
-1.33347e-06
4.99726e-06
-2.22223e-07
3.81541e-06
1.0596e-06
1.7679e-06
2.51317e-06
-1.33504e-06
4.26621e-06
-5.72164e-06
6.38294e-06
-1.16728e-05
8.98197e-06
-1.94917e-05
1.21079e-05
-2.94936e-05
1.58198e-05
-4.19674e-05
2.0103e-05
-5.71338e-05
2.49093e-05
-7.50782e-05
3.00744e-05
-9.56782e-05
3.53359e-05
-0.000118544
4.03032e-05
-0.000143006
4.45295e-05
-0.000168172
4.75611e-05
-0.000193034
4.90332e-05
-0.00021659
4.87014e-05
-0.000237944
4.64697e-05
-0.00025636
4.23593e-05
-0.000271275
3.64901e-05
-0.000282283
2.9038e-05
-0.000289107
2.0224e-05
-0.000291572
1.02909e-05
-0.000289579
-4.8935e-07
-0.000283091
-1.18227e-05
-0.00027214
-2.33752e-05
-0.000256825
-3.4775e-05
-0.000237342
-4.5596e-05
-0.000214
-5.53698e-05
-0.000187253
-6.35859e-05
-0.00015772
-6.97316e-05
-0.000126196
-7.33229e-05
-9.36451e-05
-7.39802e-05
-6.11713e-05
-7.14829e-05
-2.99518e-05
-6.58508e-05
-1.16258e-06
-5.73728e-05
2.41278e-05
-4.66252e-05
4.50395e-05
-3.44123e-05
6.09712e-05
-2.16825e-05
7.16359e-05
-9.40477e-06
7.71041e-05
1.55257e-06
7.77856e-05
1.05171e-05
7.44182e-05
1.70898e-05
6.79611e-05
2.11711e-05
5.94974e-05
2.29594e-05
5.00462e-05
2.28761e-05
4.04757e-05
2.14766e-05
3.13788e-05
1.93075e-05
2.31341e-05
1.68461e-05
1.58916e-05
1.43456e-05
9.76453e-06
1.18982e-05
4.84145e-06
9.21885e-06
1.43475e-06
6.06917e-06
2.04425e-06
7.31075e-07
-2.35222e-06
1.85754e-06
-4.19499e-06
2.89043e-06
-4.45108e-06
3.47741e-06
-3.63932e-06
3.44573e-06
-2.29155e-06
2.60929e-06
-4.96982e-07
8.22076e-07
1.56425e-06
-2.12283e-06
4.00333e-06
-6.46495e-06
6.85236e-06
-1.25231e-05
1.03211e-05
-2.06619e-05
1.45162e-05
-3.12869e-05
1.96009e-05
-4.47945e-05
2.56067e-05
-6.15253e-05
3.25407e-05
-8.16816e-05
4.02464e-05
-0.000105236
4.84487e-05
-0.00013184
5.66605e-05
-0.000160796
6.42713e-05
-0.000191115
7.05987e-05
-0.000221666
7.50537e-05
-0.00025134
7.72063e-05
-0.000279185
7.6848e-05
-0.000304462
7.39458e-05
-0.000326638
6.86136e-05
-0.00034535
6.10405e-05
-0.000360355
5.14677e-05
-0.000371486
4.01464e-05
-0.000378619
2.73415e-05
-0.000381651
1.33162e-05
-0.000380492
-1.64699e-06
-0.000375055
-1.72475e-05
-0.000365272
-3.31367e-05
-0.000351101
-4.89148e-05
-0.000332556
-6.41019e-05
-0.000309733
-7.81453e-05
-0.000282857
-9.04095e-05
-0.000252315
-0.000100217
-0.000218701
-0.00010688
-0.000182828
-0.000109795
-0.000145736
-0.000108521
-0.000108636
-0.000102902
-7.28363e-05
-9.31324e-05
-3.96144e-05
-7.98148e-05
-1.01035e-05
-6.39023e-05
1.48276e-05
-4.66013e-05
3.46134e-05
-2.91898e-05
4.902e-05
-1.28592e-05
5.81054e-05
1.41748e-06
6.22267e-05
1.29531e-05
6.19926e-05
2.13838e-05
5.82565e-05
2.66781e-05
5.19857e-05
2.91247e-05
4.41891e-05
2.92589e-05
3.57268e-05
2.77497e-05
2.73084e-05
2.52558e-05
1.93781e-05
2.2258e-05
1.23059e-05
1.89683e-05
6.33662e-06
1.51703e-05
1.99542e-06
1.04148e-05
4.02823e-06
5.91993e-07
-2.94416e-06
1.31338e-06
-4.91848e-06
1.68944e-06
-4.82697e-06
1.37078e-06
-3.32116e-06
1.60022e-07
-1.08109e-06
-2.18223e-06
1.84644e-06
-5.88981e-06
5.27235e-06
-1.12831e-05
9.39952e-06
-1.87387e-05
1.43102e-05
-2.87129e-05
2.03002e-05
-4.16892e-05
2.74969e-05
-5.81352e-05
3.60542e-05
-7.84153e-05
4.58943e-05
-0.000102689
5.68253e-05
-0.000130794
6.83622e-05
-0.00016216
7.98285e-05
-0.000195829
9.0345e-05
-0.000230597
9.90584e-05
-0.000265229
0.00010525
-0.000298638
0.000108485
-0.00032998
0.000108572
-0.000358659
0.000105553
-0.000384279
9.95917e-05
-0.000406588
9.09487e-05
-0.00042543
7.99062e-05
-0.000440706
6.67646e-05
-0.00045235
5.18058e-05
-0.000460307
3.53076e-05
-0.000464517
1.75284e-05
-0.000464905
-1.26391e-06
-0.000461372
-2.07937e-05
-0.000453791
-4.07379e-05
-0.000442014
-6.07186e-05
-0.000425889
-8.02604e-05
-0.000405286
-9.87869e-05
-0.000380145
-0.000115593
-0.000350535
-0.000129872
-0.000316721
-0.000140739
-0.000279239
-0.000147322
-0.00023894
-0.000148862
-0.000197003
-0.000144877
-0.00015488
-0.000135288
-0.000114161
-0.000120558
-7.63952e-05
-0.000101686
-4.28719e-05
-8.01334e-05
-1.44895e-05
-5.75751e-05
8.30494e-06
-3.56477e-05
2.54314e-05
-1.57003e-05
3.71042e-05
1.29569e-06
4.37323e-05
1.47694e-05
4.59349e-05
2.44941e-05
4.44767e-05
3.05957e-05
4.02742e-05
3.34796e-05
3.42293e-05
3.38035e-05
2.72212e-05
3.22807e-05
1.99224e-05
2.95603e-05
1.2958e-05
2.59494e-05
6.7896e-06
2.13354e-05
2.16464e-06
1.50579e-05
6.19229e-06
3.44077e-07
-3.28831e-06
4.16372e-07
-4.99025e-06
-1.88968e-07
-4.22257e-06
-1.78915e-06
-1.71999e-06
-4.61194e-06
1.73946e-06
-8.9645e-06
6.19936e-06
-1.51953e-05
1.14996e-05
-2.37576e-05
1.79607e-05
-3.5172e-05
2.57197e-05
-5.00033e-05
3.51285e-05
-6.8775e-05
4.62621e-05
-9.18655e-05
5.91394e-05
-0.00011938
7.33999e-05
-0.000151019
8.84566e-05
-0.000186025
0.000103356
-0.000223239
0.000117032
-0.000261319
0.00012841
-0.000298971
0.000136695
-0.00033513
0.000141392
-0.000369009
0.000142345
-0.000400073
0.000139617
-0.000427989
0.000133448
-0.00045257
0.000124151
-0.000473737
0.000112096
-0.000491493
9.76424e-05
-0.000505889
8.11445e-05
-0.000517005
6.29092e-05
-0.000524922
4.32172e-05
-0.000529699
2.23038e-05
-0.000531353
3.93819e-07
-0.000529835
-2.23013e-05
-0.000525022
-4.55352e-05
-0.000516703
-6.90166e-05
-0.000504585
-9.23522e-05
-0.00048831
-0.000115032
-0.000467493
-0.000136377
-0.000441784
-0.000155547
-0.000410962
-0.000171524
-0.000375052
-0.000183197
-0.000334443
-0.000189436
-0.000289998
-0.00018929
-0.000243092
-0.000182168
-0.000195548
-0.000168079
-0.00014945
-0.000147769
-0.000106818
-0.000122756
-6.92771e-05
-9.51143e-05
-3.78003e-05
-6.71261e-05
-1.27001e-05
-4.0809e-05
6.22777e-06
-1.76406e-05
1.9442e-05
1.54138e-06
2.75507e-05
1.63753e-05
3.12246e-05
2.69066e-05
3.12642e-05
3.34316e-05
2.85044e-05
3.65483e-05
2.38522e-05
3.69283e-05
1.81031e-05
3.52947e-05
1.20654e-05
3.19875e-05
6.40738e-06
2.6977e-05
2.04527e-06
1.94259e-05
8.22657e-06
-1.91244e-08
-3.27018e-06
-8.3697e-07
-4.16882e-06
-2.73054e-06
-2.3315e-06
-5.96183e-06
1.51552e-06
-1.08023e-05
6.57817e-06
-1.76449e-05
1.30468e-05
-2.69725e-05
2.0827e-05
-3.93684e-05
3.03622e-05
-5.54607e-05
4.18137e-05
-7.58284e-05
5.55028e-05
-0.000100876
7.13136e-05
-0.000130671
8.89422e-05
-0.000164823
0.000107558
-0.000202429
0.000126072
-0.000242189
0.000143125
-0.00028264
0.000157494
-0.000322421
0.000168203
-0.000360427
0.000174715
-0.000395852
0.00017683
-0.000428149
0.000174658
-0.000456999
0.000168482
-0.000482259
0.000158723
-0.000503939
0.000145845
-0.000522162
0.000130333
-0.000537138
0.000112629
-0.000549118
9.31346e-05
-0.00055837
7.21665e-05
-0.00056514
4.99879e-05
-0.000569626
2.67867e-05
-0.000571959
2.71864e-06
-0.000572177
-2.2097e-05
-0.000570205
-4.75242e-05
-0.000565842
-7.34021e-05
-0.000558739
-9.94809e-05
-0.000548399
-0.000125401
-0.000534187
-0.00015062
-0.000515372
-0.000174395
-0.000491202
-0.000195726
-0.000461042
-0.000213389
-0.000424539
-0.000225969
-0.000381831
-0.000232023
-0.000333739
-0.000230282
-0.000281865
-0.00021997
-0.000228551
-0.000201096
-0.00017659
-0.000174722
-0.000128748
-0.00014296
-8.71731e-05
-0.000108699
-5.30094e-05
-7.49693e-05
-2.63542e-05
-4.42869e-05
-6.62824e-06
-1.81774e-05
7.03863e-06
2.72053e-06
1.55084e-05
1.84442e-05
1.96453e-05
2.93077e-05
2.02755e-05
3.59232e-05
1.82962e-05
3.89204e-05
1.45539e-05
3.90385e-05
9.95829e-06
3.65966e-05
5.3306e-06
3.16013e-05
1.67357e-06
2.30981e-05
9.89967e-06
-5.24938e-07
-2.74941e-06
-2.49883e-06
-2.18964e-06
-6.00042e-06
1.16262e-06
-1.12163e-05
6.73553e-06
-1.84791e-05
1.38338e-05
-2.82814e-05
2.28512e-05
-4.12432e-05
3.37818e-05
-5.80391e-05
4.71582e-05
-7.93143e-05
6.30815e-05
-0.000105503
8.16899e-05
-0.000136685
0.000102487
-0.000172409
0.000124663
-0.000211691
0.000146832
-0.000253108
0.000167483
-0.000295083
0.00018509
-0.000336136
0.000198539
-0.000375066
0.000207122
-0.000410979
0.000210617
-0.000443281
0.000209118
-0.000471642
0.000203006
-0.000495974
0.0001928
-0.000516393
0.000179129
-0.000533172
0.000162611
-0.00054669
0.000143841
-0.00055738
0.000123311
-0.000565682
0.000101432
-0.000572013
7.84944e-05
-0.000576734
5.47109e-05
-0.000580141
3.01998e-05
-0.000582449
5.03618e-06
-0.000583777
-2.07559e-05
-0.000584133
-4.71506e-05
-0.000583395
-7.41201e-05
-0.000581279
-0.000101575
-0.000577309
-0.000129346
-0.000570795
-0.000157109
-0.00056082
-0.000184345
-0.000546271
-0.000210252
-0.000525922
-0.000233715
-0.000498604
-0.000253267
-0.000463441
-0.000267168
-0.00042017
-0.000273539
-0.000369448
-0.000270678
-0.000313085
-0.000257449
-0.000254029
-0.000233771
-0.000196013
-0.000200973
-0.000142807
-0.000161904
-9.73179e-05
-0.000120463
-6.09065e-05
-8.07026e-05
-3.34086e-05
-4.56842e-05
-1.37069e-05
-1.69871e-05
-4.6775e-07
5.19462e-06
7.54915e-06
2.12858e-05
1.13805e-05
3.20811e-05
1.20122e-05
3.82861e-05
1.03554e-05
4.06842e-05
7.37844e-06
3.95741e-05
3.99904e-06
3.49685e-05
1.22864e-06
2.58723e-05
1.11201e-05
-1.17856e-06
-1.57455e-06
-4.56216e-06
1.20611e-06
-9.95791e-06
6.55032e-06
-1.74631e-05
1.42515e-05
-2.74903e-05
2.38561e-05
-4.06322e-05
3.60026e-05
-5.7617e-05
5.07645e-05
-7.9124e-05
6.86741e-05
-0.000105672
8.96297e-05
-0.000137363
0.00011339
-0.000173778
0.000138905
-0.000213878
0.000164771
-0.000256171
0.000189129
-0.000298944
0.000210264
-0.00034058
0.000226732
-0.000379722
0.00023769
-0.000415361
0.000242767
-0.000446823
0.000242089
-0.000473779
0.000236084
-0.000496206
0.000225444
-0.000514346
0.000210949
-0.000528629
0.000193423
-0.000539606
0.000173596
-0.000547863
0.000152107
-0.000553981
0.000129434
-0.000558484
0.000105939
-0.000561826
8.18377e-05
-0.000564383
5.72672e-05
-0.000566457
3.22683e-05
-0.000568272
6.84439e-06
-0.000569987
-1.90516e-05
-0.000571681
-4.54692e-05
-0.000573344
-7.24725e-05
-0.000574843
-0.000100092
-0.000575882
-0.000128325
-0.000575945
-0.000157065
-0.000574236
-0.000186073
-0.000569636
-0.000214872
-0.000560696
-0.000242674
-0.000545711
-0.00026827
-0.000522905
-0.000289991
-0.000490747
-0.000305714
-0.000448391
-0.000313046
-0.000396179
-0.000309672
-0.00033603
-0.000293925
-0.000271555
-0.000265451
-0.000207611
-0.000225846
-0.000149255
-0.000178816
-0.000100325
-0.000129627
-6.2422e-05
-8.35837e-05
-3.49417e-05
-4.44597e-05
-1.61256e-05
-1.36172e-05
-4.04975e-06
9.21854e-06
2.86804e-06
2.51665e-05
5.93377e-06
3.52294e-05
6.23629e-06
4.03828e-05
4.82613e-06
4.09937e-05
2.68875e-06
3.71043e-05
8.02501e-07
2.77687e-05
1.19231e-05
-2.00129e-06
4.17117e-07
-7.04755e-06
6.26556e-06
-1.46006e-05
1.40868e-05
-2.46594e-05
2.43198e-05
-3.7729e-05
3.69122e-05
-5.44779e-05
5.27569e-05
-7.56754e-05
7.19505e-05
-0.000101878
9.48788e-05
-0.000133316
0.000121057
-0.000169608
0.000149681
-0.000209769
0.000179057
-0.000252244
0.000207243
-0.000295226
0.000232102
-0.000336917
0.000251951
-0.000375798
0.000265604
-0.000410701
0.000272587
-0.000440881
0.000272938
-0.000465999
0.0002672
-0.000486116
0.000256192
-0.000501607
0.000240928
-0.000513076
0.00022241
-0.000521233
0.000201575
-0.000526817
0.000179173
-0.000530506
0.000155793
-0.000532893
0.000131819
-0.00053446
0.000107507
-0.000535589
8.29682e-05
-0.000536567
5.82507e-05
-0.000537617
3.33249e-05
-0.000538906
8.14426e-06
-0.000540571
-1.73747e-05
-0.000542715
-4.33105e-05
-0.000545411
-6.97608e-05
-0.000548677
-9.68087e-05
-0.000552443
-0.000124539
-0.000556492
-0.000152997
-0.000560374
-0.000182171
-0.000563316
-0.000211911
-0.000564119
-0.000241852
-0.000561103
-0.000271269
-0.000552138
-0.000298942
-0.000534818
-0.000323022
-0.000506849
-0.000341007
-0.000466631
-0.000349886
-0.000413982
-0.00034657
-0.000350809
-0.000328624
-0.000281387
-0.000295267
-0.000211891
-0.000248314
-0.000148911
-0.000192608
-9.7363e-05
-0.000135136
-5.89456e-05
-8.28804e-05
-3.2418e-05
-4.01515e-05
-1.52007e-05
-8.00208e-06
-4.82435e-06
1.4783e-05
6.79298e-07
2.97238e-05
2.79916e-06
3.82555e-05
2.7785e-06
4.10141e-05
1.69633e-06
3.81786e-05
5.11764e-07
2.89545e-05
1.24295e-05
-2.96867e-06
3.37794e-06
-9.87347e-06
1.31938e-05
-1.97656e-05
2.39626e-05
-3.25407e-05
3.71141e-05
-4.87941e-05
5.31558e-05
-6.92193e-05
7.31975e-05
-9.45268e-05
9.7253e-05
-0.000125009
0.000125373
-0.000160472
0.000156519
-0.000199984
0.000189204
-0.00024205
0.000221124
-0.000284757
0.000249959
-0.000326177
0.000273525
-0.000364582
0.000290364
-0.00039866
0.000299686
-0.000427553
0.000301489
-0.000450924
0.000296315
-0.000468899
0.000285184
-0.000482
0.000269298
-0.000490988
0.000249924
-0.000496744
0.000228171
-0.000500126
0.000204964
-0.000501904
0.000180955
-0.0005027
0.000156592
-0.000502991
0.000132111
-0.000503113
0.000107629
-0.000503297
8.31482e-05
-0.000503687
5.86368e-05
-0.000504387
3.4017e-05
-0.000505472
9.22004e-06
-0.000507018
-1.58404e-05
-0.000509108
-4.12328e-05
-0.000511843
-6.70405e-05
-0.000515327
-9.33389e-05
-0.000519658
-0.000120225
-0.000524877
-0.000147794
-0.000530909
-0.000176153
-0.000537464
-0.00020537
-0.000543899
-0.000235429
-0.000549075
-0.000266105
-0.000551218
-0.000296808
-0.00054788
-0.000326368
-0.000536076
-0.000352817
-0.000512695
-0.000373273
-0.000475239
-0.00038403
-0.000422822
-0.000381045
-0.00035719
-0.000360901
-0.000283306
-0.000322199
-0.000208849
-0.000267061
-0.000142191
-0.000201791
-8.93067e-05
-0.00013576
-5.1693e-05
-7.77621e-05
-2.71133e-05
-3.25765e-05
-1.21454e-05
-1.82603e-07
-3.78569e-06
2.13697e-05
1.74817e-07
3.42962e-05
1.38389e-06
3.98111e-05
1.11334e-06
3.84489e-05
3.81375e-07
2.96928e-05
1.28119e-05
-4.07394e-06
7.43577e-06
-1.29883e-05
2.21316e-05
-2.5332e-05
3.62786e-05
-4.0891e-05
5.26895e-05
-6.03272e-05
7.25712e-05
-8.4281e-05
9.71608e-05
-0.000113291
0.000126246
-0.000147265
0.000159353
-0.000185523
0.000194764
-0.000226613
0.000230295
-0.000268661
0.000263161
-0.000309577
0.000290873
-0.000347482
0.000311421
-0.000380858
0.000323737
-0.000408745
0.000327565
-0.000430746
0.000323486
-0.00044705
0.000312612
-0.000458283
0.000296413
-0.000465373
0.000276381
-0.000469338
0.000253886
-0.000471165
0.000229994
-0.00047169
0.000205486
-0.000471565
0.000180826
-0.000471241
0.000156268
-0.000471008
0.000131877
-0.000471016
0.00010764
-0.000471334
8.34682e-05
-0.00047197
5.92785e-05
-0.00047292
3.49723e-05
-0.000474174
1.04834e-05
-0.000475752
-1.42537e-05
-0.000477697
-3.92763e-05
-0.000480098
-6.46284e-05
-0.000483078
-9.03457e-05
-0.000486801
-0.000116489
-0.000491446
-0.000143137
-0.000497176
-0.000170411
-0.000504072
-0.000198462
-0.000512032
-0.000227458
-0.000520607
-0.000257519
-0.000528806
-0.000288599
-0.000534882
-0.000320283
-0.000536193
-0.000351499
-0.000529257
-0.000380203
-0.000510164
-0.000403119
-0.000475441
-0.000415767
-0.000423368
-0.000412975
-0.000355455
-0.000390115
-0.000277433
-0.000345086
-0.000198756
-0.000280471
-0.000129763
-0.000204754
-7.72636e-05
-0.000130265
-4.19385e-05
-6.7904e-05
-2.02615e-05
-2.18639e-05
-7.983e-06
9.08917e-06
-1.80944e-06
2.8118e-05
6.18889e-07
3.73821e-05
9.55963e-07
3.81066e-05
4.23075e-07
3.02261e-05
1.32312e-05
-5.24826e-06
1.26713e-05
-1.62162e-05
3.31357e-05
-3.09981e-05
5.10345e-05
-4.92602e-05
7.09801e-05
-7.16885e-05
9.4984e-05
-9.87817e-05
0.000124276
-0.000130804
0.00015826
-0.000167211
0.000195777
-0.000206843
0.000234392
-0.000247832
0.000271297
-0.000288094
0.000303422
-0.000325539
0.000328329
-0.000358497
0.00034438
-0.000385812
0.00035106
-0.000407024
0.000348779
-0.000422293
0.000338763
-0.000432342
0.000322664
-0.000438206
0.000302284
-0.000441054
0.000279232
-0.000441973
0.00025481
-0.000441878
0.000229901
-0.000441435
0.000205047
-0.000441086
0.000180477
-0.000441063
0.000156246
-0.000441457
0.000132269
-0.000442253
0.000108434
-0.000443389
8.46001e-05
-0.000444778
6.06629e-05
-0.000446343
3.65294e-05
-0.000448021
1.21541e-05
-0.000449788
-1.24959e-05
-0.000451655
-3.7419e-05
-0.000453682
-6.26132e-05
-0.000455973
-8.80657e-05
-0.000458691
-0.000113783
-0.000462045
-0.000139794
-0.000466293
-0.000166175
-0.000471702
-0.000193063
-0.000478505
-0.000220665
-0.000486781
-0.000249252
-0.000496294
-0.000279094
-0.000506241
-0.000310342
-0.00051497
-0.000342774
-0.000519728
-0.000375447
-0.000516622
-0.000406227
-0.000500981
-0.000431408
-0.000468354
-0.000445602
-0.000416155
-0.000442315
-0.000345703
-0.000415539
-0.000263731
-0.000362442
-0.000181838
-0.000286645
-0.000112426
-0.000199673
-6.24674e-05
-0.000117858
-3.10047e-05
-5.3324e-05
-1.29961e-05
-8.91674e-06
-3.7437e-06
1.8867e-05
1.78331e-07
3.34637e-05
1.07781e-06
3.7207e-05
5.83847e-07
3.07249e-05
1.38158e-05
-6.45366e-06
1.91022e-05
-1.94422e-05
4.61586e-05
-3.65531e-05
6.8106e-05
-5.73139e-05
9.17648e-05
-8.23747e-05
0.000120017
-0.00011201
0.000153925
-0.000146143
0.000192372
-0.000183773
0.000233414
-0.000223337
0.00027394
-0.0002627
0.000310662
-0.000299737
0.000340447
-0.000332526
0.000361118
-0.000359758
0.000371601
-0.000380771
0.000372073
-0.000395684
0.000363684
-0.000405201
0.000348279
-0.000410466
0.000327922
-0.00041274
0.000304556
-0.000413237
0.000279723
-0.000412931
0.000254503
-0.000412535
0.000229501
-0.000412474
0.000204985
-0.000412955
0.000180956
-0.000414009
0.0001573
-0.00041557
0.00013383
-0.00041751
0.000110378
-0.000419694
8.67864e-05
-0.000421984
6.29582e-05
-0.000424273
3.88233e-05
-0.000426476
1.43645e-05
-0.000428549
-1.0416e-05
-0.000430477
-3.54812e-05
-0.000432293
-6.07884e-05
-0.000434067
-8.62823e-05
-0.000435922
-0.000111918
-0.000438038
-0.000137669
-0.000440658
-0.000163546
-0.000444088
-0.000189624
-0.000448689
-0.000216057
-0.000454816
-0.000243119
-0.000462726
-0.000271177
-0.000472384
-0.000300679
-0.000483181
-0.000331973
-0.000493563
-0.000365062
-0.00050069
-0.000399097
-0.000500273
-0.000431821
-0.000486923
-0.000458951
-0.000455242
-0.000473995
-0.000401877
-0.000468906
-0.000328195
-0.000436128
-0.000242406
-0.000372438
-0.000158757
-0.000283324
-9.14957e-05
-0.000185121
-4.64992e-05
-9.83206e-05
-2.02111e-05
-3.52075e-05
-6.45392e-06
5.10738e-06
-3.83382e-07
2.7392e-05
1.27132e-06
3.55485e-05
8.00944e-07
3.11961e-05
1.46137e-05
-7.58525e-06
2.667e-05
-2.24294e-05
6.1051e-05
-4.16229e-05
8.7264e-05
-6.45304e-05
0.00011471
-9.17038e-05
0.000147169
-0.000123132
0.00018538
-0.000158376
0.000227605
-0.000196025
0.000271083
-0.000234234
0.000312143
-0.000270756
0.000347198
-0.000303591
0.00037328
-0.00033113
0.000388668
-0.000352545
0.000393016
-0.000367737
0.000387275
-0.000377382
0.000373329
-0.000382606
0.000353512
-0.000384789
0.000330106
-0.00038522
0.000304994
-0.000384984
0.000279488
-0.000384827
0.00025435
-0.000385204
0.000229878
-0.00038629
0.000206074
-0.000388094
0.00018276
-0.000390497
0.000159704
-0.000393339
0.000136669
-0.000396433
0.000113471
-0.000399616
8.99662e-05
-0.000402743
6.60811e-05
-0.000405703
4.17773e-05
-0.000408411
1.70668e-05
-0.000410818
-8.0159e-06
-0.0004129
-3.34064e-05
-0.000414667
-5.90298e-05
-0.000416157
-8.48005e-05
-0.00041745
-0.000110634
-0.000418669
-0.000136459
-0.000419997
-0.000162225
-0.00042169
-0.000187939
-0.000424089
-0.000213665
-0.000427617
-0.000239597
-0.00043275
-0.00026605
-0.000439904
-0.000293529
-0.000449245
-0.000322636
-0.000460334
-0.000353975
-0.000471695
-0.000387738
-0.000480337
-0.000423179
-0.000481535
-0.000457753
-0.000469137
-0.00048639
-0.000436875
-0.000501166
-0.000380853
-0.000492149
-0.000303004
-0.00045029
-0.000213802
-0.000372525
-0.000130697
-0.000268226
-6.88628e-05
-0.000160148
-3.10695e-05
-7.29998e-05
-1.08926e-05
-1.50676e-05
-1.6125e-06
1.81132e-05
1.26899e-06
3.26672e-05
9.86291e-07
3.14823e-05
1.56003e-05
-8.5939e-06
3.52355e-05
-2.50528e-05
7.75535e-05
-4.59983e-05
0.00010816
-7.06033e-05
0.000139345
-9.92639e-05
0.000175795
-0.000131657
0.00021779
-0.000167005
0.000262927
-0.00020358
0.000307668
-0.000239393
0.000347937
-0.000272236
0.000380046
-0.000300376
0.000401405
-0.000322623
0.000410918
-0.000338691
0.000409073
-0.000349022
0.000397606
-0.000354731
0.000379029
-0.000357193
0.000355974
-0.000357827
0.000330732
-0.000357786
0.000304952
-0.000357919
0.000279616
-0.000358699
0.00025513
-0.000360331
0.000231506
-0.00036279
0.000208533
-0.000365945
0.000185912
-0.000369591
0.000163352
-0.00037353
0.000140608
-0.000377565
0.000117508
-0.00038154
9.39434e-05
-0.000385322
6.98676e-05
-0.000388817
4.52757e-05
-0.000391949
2.02049e-05
-0.000394675
-5.28412e-06
-0.000396967
-3.11075e-05
-0.000398823
-5.71671e-05
-0.000400258
-8.33583e-05
-0.000401316
-0.000109568
-0.000402069
-0.000135699
-0.000402634
-0.000161654
-0.000403182
-0.000187385
-0.000403969
-0.000212873
-0.000405347
-0.000238214
-0.000407793
-0.0002636
-0.000411873
-0.000289445
-0.000418166
-0.000316341
-0.000427012
-0.000345127
-0.000438137
-0.000376613
-0.000450066
-0.000411248
-0.000459571
-0.000448248
-0.000461337
-0.000484622
-0.000448391
-0.000514112
-0.000413668
-0.00052687
-0.000353163
-0.000510799
-0.000270237
-0.000455454
-0.000178788
-0.000359681
-9.97454e-05
-0.00023919
-4.68736e-05
-0.000125869
-1.78687e-05
-4.40728e-05
-3.99295e-06
4.23422e-06
8.47608e-07
2.78254e-05
1.07332e-06
3.1256e-05
1.66718e-05
-9.36956e-06
4.45843e-05
-2.70854e-05
9.53266e-05
-4.93486e-05
0.000130381
-7.51119e-05
0.000165153
-0.000104574
0.000205233
-0.000137106
0.000250354
-0.00017165
0.000297457
-0.000206273
0.000342315
-0.000238973
0.000380628
-0.000267714
0.000408805
-0.000291128
0.000424815
-0.000308502
0.000428306
-0.000320076
0.000420646
-0.000326733
0.000404274
-0.000329869
0.000382166
-0.00033092
0.000357034
-0.000331187
0.000331
-0.000331589
0.000305361
-0.000332702
0.000280729
-0.000334741
0.000257175
-0.000337712
0.000234477
-0.000341452
0.000212276
-0.000345755
0.000190215
-0.000350389
0.000167987
-0.000355154
0.000145371
-0.000359872
0.000122226
-0.000364412
9.848e-05
-0.000368662
7.41156e-05
-0.000372548
4.91569e-05
-0.000376006
2.36593e-05
-0.000379
-2.29583e-06
-0.000381501
-2.86122e-05
-0.0003835
-5.51737e-05
-0.000385
-8.18646e-05
-0.000386022
-0.000108552
-0.000386604
-0.000135123
-0.000386813
-0.000161449
-0.000386751
-0.000187452
-0.000386579
-0.000213049
-0.000386539
-0.000238259
-0.000386998
-0.000263144
-0.000388464
-0.000287983
-0.000391599
-0.000313209
-0.00039711
-0.000339618
-0.000405516
-0.000368209
-0.000416637
-0.000400127
-0.000428932
-0.000435954
-0.000438744
-0.000474808
-0.000440003
-0.000512853
-0.000424776
-0.000542091
-0.000385407
-0.000550168
-0.000318474
-0.000522387
-0.000230125
-0.000448035
-0.000139121
-0.000330195
-6.89142e-05
-0.000196073
-2.79374e-05
-8.50406e-05
-7.90192e-06
-1.58066e-05
-1.46146e-07
2.00736e-05
1.01666e-06
3.00926e-05
1.76899e-05
-9.8835e-06
5.44358e-05
-2.84562e-05
0.000113948
-5.15643e-05
0.000153433
-7.7919e-05
0.000191542
-0.000107499
0.000234774
-0.000139408
0.000282282
-0.000172385
0.000330406
-0.000204414
0.000374354
-0.000233594
0.000409786
-0.00025816
0.000433377
-0.000277162
0.000443801
-0.000290362
0.000441509
-0.000298446
0.000428716
-0.000302599
0.000408428
-0.000304325
0.000383881
-0.00030497
0.000357679
-0.000305624
0.000331644
-0.000306932
0.000306668
-0.000309215
0.000283006
-0.000312484
0.000260444
-0.00031661
0.000238597
-0.000321357
0.000217023
-0.000326498
0.000195353
-0.000331809
0.000173298
-0.000337118
0.000150679
-0.000342276
0.000127387
-0.000347183
0.000103387
-0.000351748
7.86841e-05
-0.000355912
5.33241e-05
-0.000359623
2.73741e-05
-0.000362845
9.3075e-07
-0.000365551
-2.59021e-05
-0.000367726
-5.29933e-05
-0.000369365
-8.02204e-05
-0.000370479
-0.000107434
-0.000371085
-0.000134512
-0.000371222
-0.000161307
-0.000370945
-0.000187726
-0.000370346
-0.000213643
-0.000369566
-0.000239035
-0.000368844
-0.000263864
-0.000368542
-0.000288283
-0.000369217
-0.000312531
-0.000371606
-0.000337227
-0.000376564
-0.000363251
-0.000384729
-0.000391961
-0.000395976
-0.00042471
-0.000408504
-0.000462278
-0.000418038
-0.000503322
-0.000417469
-0.000542656
-0.000397879
-0.000569759
-0.000351374
-0.000568885
-0.000276341
-0.000523081
-0.000183598
-0.000422934
-9.80329e-05
-0.000281655
-4.17399e-05
-0.000141311
-1.35225e-05
-4.40365e-05
-1.82115e-06
8.37709e-06
8.14346e-07
2.74517e-05
1.85051e-05
-1.00542e-05
6.4468e-05
-2.9012e-05
0.000132967
-5.24474e-05
0.000176823
-7.88159e-05
0.000217958
-0.000107872
0.000263804
-0.000138507
0.000312951
-0.000169347
0.000361231
-0.000198397
0.000403428
-0.000223945
0.000435327
-0.00024456
0.00045401
-0.000259708
0.000458946
-0.000269574
0.00045139
-0.00027517
0.000434311
-0.000277834
0.000411105
-0.000279033
0.000385081
-0.000279931
0.000358586
-0.000281361
0.000333075
-0.000283713
0.000309029
-0.000287104
0.000286397
-0.000291401
0.000264747
-0.000296403
0.0002436
-0.000301853
0.000222478
-0.00030754
0.00020104
-0.000313269
0.000179029
-0.000318904
0.000156312
-0.000324329
0.000132812
-0.000329467
0.000108523
-0.000334245
8.34614e-05
-0.000338614
5.76904e-05
-0.000342524
3.12813e-05
-0.00034594
4.34299e-06
-0.00034883
-2.30164e-05
-0.000351176
-5.06513e-05
-0.000352967
-7.84334e-05
-0.000354208
-0.000106196
-0.000354911
-0.000133814
-0.000355102
-0.000161119
-0.000354815
-0.000188017
-0.000354104
-0.000214357
-0.000353045
-0.000240098
-0.000351771
-0.000265139
-0.000350501
-0.000289556
-0.000349617
-0.000313416
-0.000349707
-0.000337138
-0.000351621
-0.000361338
-0.000356326
-0.000387256
-0.000364584
-0.000416454
-0.000376152
-0.000450708
-0.000388791
-0.000490686
-0.000397231
-0.00053421
-0.000393127
-0.000573865
-0.000366602
-0.000595399
-0.000310413
-0.000579277
-0.000226578
-0.000506766
-0.00013317
-0.000375079
-6.02725e-05
-0.000214195
-2.09134e-05
-8.33919e-05
-4.3161e-06
-8.2208e-06
4.82292e-07
2.26505e-05
1.89902e-05
-9.89551e-06
7.43304e-05
-2.87727e-05
0.000151894
-5.20346e-05
0.000200028
-7.78805e-05
0.000243839
-0.000105851
0.000291734
-0.000134696
0.000341817
-0.000163012
0.000389518
-0.00018891
0.000429337
-0.00021093
0.000457324
-0.000227987
0.000471073
-0.000239935
0.000470876
-0.000247288
0.000458745
-0.000251258
0.000438266
-0.0002532
0.000413047
-0.000254448
0.000386317
-0.000255932
0.000360069
-0.000258241
0.000335374
-0.000261552
0.000312339
-0.000265834
0.00029067
-0.000270874
0.000269786
-0.000276449
0.00024917
-0.000282317
0.000228346
-0.000288299
0.000207018
-0.00029424
0.00018497
-0.000300039
0.00016211
-0.000305609
0.000138383
-0.000310889
0.000113804
-0.000315819
8.83935e-05
-0.000320352
6.22244e-05
-0.000324435
3.53673e-05
-0.000328031
7.94119e-06
-0.000331101