/*--------------------------------*- C++ -*----------------------------------*\
| =========                 |                                                 |
| \\      /  F ield         | OpenFOAM: The Open Source CFD Toolbox           |
|  \\    /   O peration     | Version:  2406                                  |
|   \\  /    A nd           | Website:  www.openfoam.com                      |
|    \\/     M anipulation  |                                                 |
\*---------------------------------------------------------------------------*/
FoamFile
{
    version     2.0;
    format      ascii;
    arch        "LSB;label=32;scalar=64";
    class       surfaceScalarField;
    location    "39.85";
    object      phi;
}
// * * * * * * * * * * * * * * * * * * * * * * * * * * * * * * * * * * * * * //

dimensions      [0 3 -1 0 0 0 0];

oriented        oriented;

internalField   nonuniform List<scalar> 
7080
(
2.26906e-07
-2.26347e-07
1.44934e-06
-1.23337e-06
3.22252e-06
-1.77086e-06
5.05134e-06
-1.83951e-06
6.54525e-06
-1.4923e-06
7.5286e-06
-9.90466e-07
8.02858e-06
-4.9742e-07
8.16476e-06
-1.39388e-07
8.10174e-06
6.65518e-08
7.93645e-06
1.65077e-07
7.70191e-06
2.38973e-07
7.33019e-06
3.7428e-07
6.70814e-06
6.2835e-07
5.68066e-06
1.03372e-06
4.09451e-06
1.596e-06
1.78878e-06
2.31703e-06
-1.38527e-06
3.18901e-06
-5.57191e-06
4.20391e-06
-1.08936e-05
5.34256e-06
-1.7448e-05
6.57868e-06
-2.52787e-05
7.85977e-06
-3.43489e-05
9.10382e-06
-4.45063e-05
1.01948e-05
-5.54669e-05
1.09996e-05
-6.68059e-05
1.13769e-05
-7.79732e-05
1.12015e-05
-8.83262e-05
1.03811e-05
-9.71828e-05
8.8772e-06
-0.000103876
6.70517e-06
-0.000107808
3.93476e-06
-0.000108492
6.77815e-07
-0.000105592
-2.91515e-06
-9.89512e-05
-6.66438e-06
-8.86214e-05
-1.03607e-05
-7.48841e-05
-1.37745e-05
-5.82665e-05
-1.66601e-05
-3.95376e-05
-1.87751e-05
-1.96875e-05
-1.98989e-05
1.31704e-07
-1.98681e-05
1.86906e-05
-1.86071e-05
3.48107e-05
-1.61642e-05
4.74994e-05
-1.27283e-05
5.60948e-05
-8.62623e-06
6.03615e-05
-4.28975e-06
6.05367e-05
-1.8635e-07
5.72746e-05
3.25906e-06
5.15259e-05
5.75724e-06
4.43403e-05
7.19849e-06
3.66923e-05
7.66883e-06
2.93261e-05
7.38495e-06
2.27211e-05
6.62811e-06
1.70893e-05
5.64766e-06
1.24673e-05
4.64172e-06
8.76163e-06
3.71542e-06
5.83565e-06
2.94182e-06
3.53952e-06
2.3001e-06
1.76792e-06
1.78436e-06
5.36121e-07
1.23133e-06
-8.99859e-08
6.36024e-07
-8.99049e-08
1.14691e-06
-1.36286e-06
3.99176e-06
-4.07962e-06
7.67392e-06
-5.4363e-06
1.13004e-05
-5.46439e-06
1.42221e-05
-4.40097e-06
1.60792e-05
-2.84745e-06
1.68505e-05
-1.26229e-06
1.66589e-05
4.89786e-08
1.57059e-05
1.02019e-06
1.40794e-05
1.7856e-06
1.17457e-05
2.56856e-06
8.49038e-06
3.62028e-06
4.00342e-06
5.10555e-06
-2.10139e-06
7.12336e-06
-1.02058e-05
9.68231e-06
-2.06743e-05
1.27614e-05
-3.38011e-05
1.6287e-05
-4.97798e-05
2.01482e-05
-6.86147e-05
2.41384e-05
-9.00455e-05
2.7964e-05
-0.000113494
3.12558e-05
-0.0001381
3.36476e-05
-0.000162799
3.4825e-05
-0.000186454
3.45821e-05
-0.00020797
3.28213e-05
-0.000226385
2.95522e-05
-0.000240916
2.48594e-05
-0.000250969
1.88916e-05
-0.000256121
1.18359e-05
-0.000256107
3.91667e-06
-0.000250797
-4.61766e-06
-0.000240196
-1.34837e-05
-0.000224444
-2.23674e-05
-0.00020383
-3.09094e-05
-0.000178815
-3.87127e-05
-0.000150047
-4.534e-05
-0.000118383
-5.03442e-05
-8.48885e-05
-5.32946e-05
-5.0815e-05
-5.38423e-05
-1.75542e-05
-5.17733e-05
1.34558e-05
-4.70867e-05
4.08323e-05
-4.00304e-05
6.33893e-05
-3.11236e-05
8.02488e-05
-2.11099e-05
9.09555e-05
-1.08721e-05
9.55245e-05
-1.31074e-06
9.44687e-05
6.79764e-06
8.8732e-05
1.29038e-05
7.95892e-05
1.67758e-05
6.84337e-05
1.84977e-05
5.65899e-05
1.84351e-05
4.50983e-05
1.71003e-05
3.46622e-05
1.50502e-05
2.56116e-05
1.27353e-05
1.80307e-05
1.05057e-05
1.18233e-05
8.48388e-06
6.88303e-06
6.71702e-06
3.17349e-06
4.92264e-06
8.00509e-07
3.00883e-06
7.00425e-07
1.75252e-06
-3.11498e-06
5.6117e-06
-7.95598e-06
1.03245e-05
-1.01467e-05
1.4675e-05
-9.82951e-06
1.79029e-05
-7.62821e-06
1.95664e-05
-4.51973e-06
1.96232e-05
-1.31659e-06
1.81435e-05
1.52591e-06
1.52514e-05
3.91729e-06
1.08965e-05
6.1426e-06
4.8636e-06
8.6091e-06
-3.27424e-06
1.1765e-05
-1.40331e-05
1.58761e-05
-2.79705e-05
2.1074e-05
-4.55678e-05
2.7298e-05
-6.71588e-05
3.43749e-05
-9.27761e-05
4.19326e-05
-0.000122031
4.94356e-05
-0.000154049
5.61931e-05
-0.000187571
6.15264e-05
-0.000221143
6.4874e-05
-0.00025335
6.59067e-05
-0.000282975
6.4508e-05
-0.000309084
6.07519e-05
-0.000331019
5.48158e-05
-0.000348357
4.69447e-05
-0.000360848
3.73949e-05
-0.000368357
2.64328e-05
-0.000370817
1.43143e-05
-0.000368203
1.30559e-06
-0.000360515
-1.23193e-05
-0.00034778
-2.62471e-05
-0.000330071
-4.01213e-05
-0.00030753
-5.35096e-05
-0.000280404
-6.59091e-05
-0.000249093
-7.67311e-05
-0.000214185
-8.53396e-05
-0.000176491
-9.10797e-05
-0.000137052
-9.33708e-05
-9.71277e-05
-9.17846e-05
-5.81212e-05
-8.61712e-05
-2.14944e-05
-7.67246e-05
1.13731e-05
-6.40424e-05
3.92956e-05
-4.90683e-05
6.14008e-05
-3.29943e-05
7.71741e-05
-1.70867e-05
8.65082e-05
-2.52271e-06
8.96963e-05
9.73703e-06
8.74566e-05
1.90468e-05
8.08614e-05
2.51228e-05
7.12526e-05
2.80785e-05
6.00064e-05
2.83733e-05
4.83701e-05
2.6717e-05
3.7249e-05
2.3875e-05
2.72292e-05
2.05507e-05
1.85481e-05
1.71749e-05
1.13267e-05
1.39595e-05
5.60612e-06
1.06442e-05
1.67068e-06
6.963e-06
2.37242e-06
2.1551e-06
-5.25952e-06
6.55462e-06
-1.23633e-05
1.15419e-05
-1.51186e-05
1.56582e-05
-1.39495e-05
1.81278e-05
-1.00877e-05
1.85171e-05
-4.912e-06
1.67892e-05
4.15838e-07
1.29203e-05
5.39037e-06
6.85705e-06
9.97991e-06
-1.70665e-06
1.46997e-05
-1.32585e-05
2.0156e-05
-2.84546e-05
2.69518e-05
-4.79301e-05
3.53421e-05
-7.21825e-05
4.5313e-05
-0.000101358
5.64589e-05
-0.000135094
6.80914e-05
-0.000172402
7.92163e-05
-0.000211785
8.87905e-05
-0.000251519
9.58955e-05
-0.000289991
9.99623e-05
-0.000325911
0.000100755
-0.000358393
9.83442e-05
-0.000386894
9.29626e-05
-0.000411135
8.4945e-05
-0.000430996
7.46313e-05
-0.00044645
6.2358e-05
-0.000457503
4.84161e-05
-0.000464168
3.30754e-05
-0.000466435
1.65705e-05
-0.000464269
-8.60182e-07
-0.0004576
-1.89748e-05
-0.00044634
-3.74814e-05
-0.000430393
-5.6031e-05
-0.000409685
-7.41689e-05
-0.000384203
-9.13337e-05
-0.000354043
-0.000106826
-0.00031947
-0.000119841
-0.000280985
-0.000129491
-0.000239366
-0.000134916
-0.000195702
-0.000135377
-0.000151362
-0.000130446
-0.000107912
-0.000120118
-6.69585e-05
-0.00010495
-2.99761e-05
-8.60186e-05
1.87381e-06
-6.48235e-05
2.78141e-05
-4.30212e-05
4.74726e-05
-2.21843e-05
6.08002e-05
-3.60587e-06
6.80582e-05
1.17706e-05
6.97882e-05
2.33666e-05
6.68641e-05
3.09803e-05
6.03972e-05
3.48125e-05
5.16617e-05
3.54341e-05
4.18345e-05
3.36777e-05
3.19258e-05
3.04481e-05
2.25897e-05
2.64896e-05
1.43175e-05
2.22287e-05
7.38171e-06
1.75592e-05
2.34242e-06
1.20072e-05
4.7015e-06
2.40142e-06
-7.65706e-06
6.94243e-06
-1.69207e-05
1.15759e-05
-1.97445e-05
1.46571e-05
-1.70419e-05
1.54498e-05
-1.08759e-05
1.35745e-05
-3.04236e-06
8.99731e-06
4.9973e-06
1.5568e-06
1.28302e-05
-9.04981e-06
2.05921e-05
-2.34321e-05
2.90856e-05
-4.23189e-05
3.90504e-05
-6.64273e-05
5.10678e-05
-9.61607e-05
6.50866e-05
-0.000131397
8.05618e-05
-0.000171281
9.63575e-05
-0.000214276
0.000111104
-0.000258451
0.000123412
-0.000301928
0.000132291
-0.0003432
0.000137194
-0.000381251
0.000138044
-0.000415501
0.000135038
-0.000445682
0.000128562
-0.000471723
0.000119041
-0.000493665
0.000106924
-0.000511598
9.25981e-05
-0.000525631
7.64194e-05
-0.000535863
5.86683e-05
-0.000542367
3.9592e-05
-0.000545179
1.93849e-05
-0.000544284
-1.7621e-06
-0.000539609
-2.36669e-05
-0.000531019
-4.60983e-05
-0.000518315
-6.87695e-05
-0.000501254
-9.1273e-05
-0.000479567
-0.000113071
-0.00045301
-0.000133438
-0.000421432
-0.000151476
-0.000384869
-0.000166113
-0.000343647
-0.000176196
-0.000298485
-0.000180595
-0.000250557
-0.000178425
-0.000201478
-0.000169242
-0.000153178
-0.000153286
-0.000107661
-0.000131563
-6.66895e-05
-0.00010581
-3.15276e-05
-7.81907e-05
-2.81008e-06
-5.08977e-05
1.9338e-05
-2.57451e-05
3.51376e-05
-4.01092e-06
4.49735e-05
1.35479e-05
4.94192e-05
2.65579e-05
4.92265e-05
3.50221e-05
4.53988e-05
3.92842e-05
3.90239e-05
4.00642e-05
3.12349e-05
3.82574e-05
2.29424e-05
3.47868e-05
1.49664e-05
3.02242e-05
7.87758e-06
2.46447e-05
2.53558e-06
1.73702e-05
7.23664e-06
2.52878e-06
-1.01774e-05
6.76312e-06
-2.11657e-05
1.03252e-05
-2.32946e-05
1.15082e-05
-1.82309e-05
9.69392e-06
-9.05541e-06
4.58349e-06
2.06374e-06
-3.90345e-06
1.34856e-05
-1.61372e-05
2.50591e-05
-3.27173e-05
3.71696e-05
-5.44904e-05
5.08524e-05
-8.2183e-05
6.67371e-05
-0.000116113
8.49899e-05
-0.000155837
0.000104801
-0.000200064
0.000124777
-0.000246823
0.000143103
-0.000293944
0.000158209
-0.000339523
0.000168973
-0.000382196
0.000174943
-0.000421137
0.000176111
-0.000455942
0.000172824
-0.00048649
0.000165558
-0.000512836
0.000154877
-0.000535136
0.000141311
-0.000553609
0.000125366
-0.000568497
0.000107459
-0.000580049
8.79502e-05
-0.0005885
6.71026e-05
-0.000594047
4.5131e-05
-0.000596838
2.21746e-05
-0.00059695
-1.64346e-06
-0.000594372
-2.62304e-05
-0.000588993
-5.14562e-05
-0.000580583
-7.7152e-05
-0.000568789
-0.000103033
-0.000553141
-0.000128681
-0.000533072
-0.000153465
-0.000507976
-0.000176529
-0.000477304
-0.000196741
-0.000440699
-0.000212755
-0.000398178
-0.000223072
-0.000350308
-0.000226254
-0.000298347
-0.000221166
-0.000244266
-0.000207336
-0.000190585
-0.000185222
-0.000139983
-0.000156396
-9.47936e-05
-0.000123375
-5.65181e-05
-8.91729e-05
-2.56885e-05
-5.65837e-05
-2.05313e-06
-2.76562e-05
1.49781e-05
-3.50008e-06
2.60913e-05
1.54318e-05
3.19565e-05
2.91382e-05
3.33723e-05
3.78575e-05
3.12287e-05
4.21897e-05
2.65778e-05
4.29022e-05
2.04019e-05
4.09452e-05
1.37132e-05
3.6913e-05
7.33952e-06
3.09993e-05
2.36774e-06
2.23484e-05
9.59162e-06
2.47554e-06
-1.26482e-05
5.87009e-06
-2.45718e-05
7.61286e-06
-2.50297e-05
6.08712e-06
-1.67109e-05
8.43316e-07
-3.80714e-06
-8.35944e-06
1.12655e-05
-2.17251e-05
2.68552e-05
-3.98661e-05
4.32027e-05
-6.35915e-05
6.09e-05
-9.36879e-05
8.09544e-05
-0.000130385
0.000103441
-0.000173036
0.000127649
-0.000220013
0.000151787
-0.000269057
0.000173831
-0.000317824
0.000191882
-0.000364397
0.000204795
-0.00040747
0.00021206
-0.000446302
0.000213793
-0.000480564
0.000210391
-0.000510212
0.000202493
-0.000535388
0.000190754
-0.000556363
0.000175875
-0.000573491
0.00015846
-0.000587174
0.00013907
-0.000597827
0.000118129
-0.000605854
9.59907e-05
-0.000611621
7.28781e-05
-0.000615443
4.89559e-05
-0.000617566
2.42935e-05
-0.000618155
-1.06419e-06
-0.00061728
-2.71206e-05
-0.000614902
-5.38559e-05
-0.000610843
-8.12373e-05
-0.000604769
-0.000109138
-0.000596158
-0.000137327
-0.000584291
-0.00016537
-0.000568259
-0.000192601
-0.000547016
-0.000218025
-0.000519497
-0.000240314
-0.000484814
-0.000257794
-0.000442516
-0.000268587
-0.0003929
-0.000270813
-0.000337264
-0.000262996
-0.000278015
-0.000244489
-0.000218468
-0.000215954
-0.000162295
-0.000179553
-0.000112677
-0.00013879
-7.15453e-05
-9.77125e-05
-3.92899e-05
-5.99015e-05
-1.52014e-05
-2.758e-05
1.86494e-06
-1.61992e-06
1.29572e-05
1.80553e-05
1.90107e-05
3.18198e-05
2.08729e-05
4.03343e-05
1.95016e-05
4.42888e-05
1.58554e-05
4.45938e-05
1.10101e-05
4.17741e-05
5.95719e-06
3.60488e-05
1.8887e-06
2.64342e-05
1.14802e-05
2.13195e-06
-1.47766e-05
4.01462e-06
-2.64615e-05
3.12027e-06
-2.41312e-05
-1.90582e-06
-1.16881e-05
-1.13338e-05
5.62047e-06
-2.53988e-05
2.53279e-05
-4.44882e-05
4.59409e-05
-6.93809e-05
6.80921e-05
-0.000100815
9.23287e-05
-0.000139033
0.000119168
-0.000183274
0.000147673
-0.000231731
0.0001761
-0.000281932
0.000201978
-0.00033139
0.00022328
-0.000378107
0.000238587
-0.000420754
0.00024743
-0.000458584
0.000249876
-0.00049129
0.000246484
-0.00051888
0.000237964
-0.000541595
0.000225192
-0.000559846
0.000208987
-0.00057415
0.000190163
-0.000585082
0.000169376
-0.000593217
0.000147192
-0.000599101
0.000124002
-0.00060322
0.000100104
-0.000605994
7.56508e-05
-0.00060777
5.07355e-05
-0.000608821
2.53536e-05
-0.000609352
-5.19184e-07
-0.000609491
-2.69629e-05
-0.000609282
-5.40413e-05
-0.000608662
-8.183e-05
-0.000607428
-0.000110341
-0.000605191
-0.000139531
-0.000601324
-0.000169203
-0.000594914
-0.000198977
-0.000584739
-0.000228167
-0.000569303
-0.000255719
-0.000546959
-0.00028011
-0.000516156
-0.000299365
-0.00047581
-0.000311138
-0.000425769
-0.000313019
-0.000367258
-0.000302986
-0.000303118
-0.000280082
-0.00023763
-0.000245037
-0.000175724
-0.000200693
-0.00012173
-0.00015171
-7.81202e-05
-0.000103515
-4.51293e-05
-6.05815e-05
-2.14148e-05
-2.53418e-05
-5.23003e-06
1.85787e-06
4.96193e-06
2.16213e-05
1.03299e-05
3.49535e-05
1.19252e-05
4.26898e-05
1.07301e-05
4.57761e-05
7.833e-06
4.46713e-05
4.30551e-06
3.95624e-05
1.33185e-06
2.94116e-05
1.28026e-05
1.39815e-06
-1.61734e-05
1.0448e-06
-2.61078e-05
-3.23657e-06
-1.9849e-05
-1.23987e-05
-2.52178e-06
-2.65773e-05
1.9799e-05
-4.6053e-05
4.48099e-05
-7.13668e-05
7.12558e-05
-0.000103219
9.99519e-05
-0.000141855
0.000130967
-0.000186548
0.00016387
-0.000235441
0.00019657
-0.000285938
0.000226606
-0.000335404
0.00025145
-0.000381707
0.000269593
-0.000423422
0.000280311
-0.00045975
0.000283769
-0.000490382
0.000280518
-0.000515387
0.000271502
-0.00053513
0.00025772
-0.000550182
0.000240258
-0.000561238
0.000220056
-0.000569032
0.000197971
-0.000574274
0.00017463
-0.000577603
0.000150532
-0.000579566
0.000125972
-0.000580609
0.000101153
-0.000581092
7.61331e-05
-0.000581294
5.09348e-05
-0.000581439
2.54904e-05
-0.000581702
-2.68388e-07
-0.000582218
-2.64619e-05
-0.000583087
-5.3191e-05
-0.000584355
-8.05837e-05
-0.000585991
-0.000108729
-0.000587838
-0.000137708
-0.000589553
-0.000167513
-0.000590515
-0.00019804
-0.000589739
-0.000228967
-0.000585801
-0.000259681
-0.000576827
-0.000289107
-0.000560598
-0.000315616
-0.000534831
-0.000336926
-0.000497659
-0.000350208
-0.000448297
-0.000352364
-0.000387727
-0.000340662
-0.000319175
-0.000313595
-0.00024799
-0.000271878
-0.000180627
-0.000219071
-0.000122781
-0.000161355
-7.75276e-05
-0.00010583
-4.47463e-05
-5.81139e-05
-2.2332e-05
-2.0551e-05
-7.80489e-06
7.10446e-06
8.00016e-07
2.63528e-05
4.98399e-06
3.85164e-05
5.94028e-06
4.48216e-05
4.82123e-06
4.58011e-05
2.74206e-06
4.16404e-05
8.1864e-07
3.13463e-05
1.36224e-05
1.67952e-07
-1.6347e-05
-3.16102e-06
-2.27733e-05
-1.14775e-05
-1.1543e-05
-2.52516e-05
1.12578e-05
-4.45547e-05
3.90912e-05
-6.97044e-05
6.99626e-05
-0.000101235
0.000102776
-0.000139416
0.000138133
-0.000183647
0.000175188
-0.000232146
0.000212367
-0.000282298
0.000246712
-0.000331317
0.000275621
-0.000376906
0.000297028
-0.000417481
0.000310163
-0.000452162
0.000314981
-0.000480621
0.000312221
-0.000503001
0.000302887
-0.000519796
0.000288289
-0.000531753
0.000269666
-0.000539741
0.000248237
-0.000544648
0.000224953
-0.000547293
0.000200609
-0.000548381
0.00017571
-0.000548474
0.000150621
-0.000548006
0.000125501
-0.000547294
0.00010044
-0.000546566
7.54079e-05
-0.00054599
5.03655e-05
-0.000545696
2.52057e-05
-0.000545795
-1.5635e-07
-0.000546393
-2.58484e-05
-0.000547596
-5.19695e-05
-0.000549509
-7.86507e-05
-0.000552219
-0.000105997
-0.00055577
-0.000134133
-0.000560108
-0.000163151
-0.000565005
-0.000193119
-0.000569944
-0.000224004
-0.000573991
-0.00025561
-0.000575654
-0.000287422
-0.000572804
-0.000318446
-0.000562725
-0.000346989
-0.000542395
-0.000370525
-0.000509064
-0.000385686
-0.000461132
-0.000388589
-0.000399165
-0.00037556
-0.000326692
-0.00034435
-0.000250241
-0.000295524
-0.000178021
-0.000233577
-0.000117271
-0.000166585
-7.15253e-05
-0.000103863
-4.00343e-05
-5.205e-05
-1.97019e-05
-1.32322e-05
-7.38393e-06
1.40263e-05
-6.64496e-07
3.17942e-05
2.1846e-06
4.19639e-05
2.54842e-06
4.54365e-05
1.629e-06
4.2551e-05
4.91924e-07
3.24841e-05
1.41082e-05
-1.56787e-06
-1.47858e-05
-8.47611e-06
-1.58441e-05
-2.12387e-05
1.2055e-06
-3.9832e-05
2.98705e-05
-6.43198e-05
6.35699e-05
-9.49602e-05
0.00010062
-0.00013203
0.000139841
-0.000175058
0.000181176
-0.000222511
0.000222639
-0.000271818
0.000261685
-0.000320129
0.000295024
-0.000364923
0.000320426
-0.000404449
0.000336557
-0.000437685
0.000343409
-0.000464287
0.000341588
-0.000484442
0.000332387
-0.000498784
0.000317235
-0.000508217
0.000297732
-0.000513783
0.000275239
-0.000516501
0.000250964
-0.000517283
0.000225742
-0.000516868
0.000200201
-0.000515814
0.000174659
-0.000514509
0.00014932
-0.00051321
0.000124202
-0.000512071
9.93002e-05
-0.000511185
7.45162e-05
-0.000510605
4.97789e-05
-0.000510378
2.49674e-05
-0.000510549
2.5426e-09
-0.000511185
-2.52281e-05
-0.000512372
-5.07999e-05
-0.000514223
-7.68193e-05
-0.000516871
-0.000103368
-0.000520462
-0.000130564
-0.000525123
-0.000158512
-0.000530916
-0.000187347
-0.000537758
-0.000217182
-0.000545295
-0.000248091
-0.00055273
-0.000280003
-0.000558628
-0.000312561
-0.000560744
-0.000344884
-0.000555988
-0.00037529
-0.000540659
-0.000401022
-0.000511092
-0.000418161
-0.000464758
-0.0004219
-0.000401664
-0.000407446
-0.00032561
-0.000371579
-0.00024444
-0.000314745
-0.00016837
-0.000242651
-0.000106206
-0.000166021
-6.15621e-05
-9.66896e-05
-3.25528e-05
-4.2235e-05
-1.50254e-05
-3.49817e-06
-5.22407e-06
2.19995e-05
-4.7015e-07
3.72117e-05
1.14599e-06
4.38273e-05
1.05367e-06
4.26434e-05
3.73247e-07
3.31716e-05
1.4483e-05
-3.79116e-06
-1.10132e-05
-1.47131e-05
-4.89576e-06
-3.20976e-05
1.85582e-05
-5.54596e-05
5.32522e-05
-8.4856e-05
9.29415e-05
-0.000120319
0.000136095
-0.000161635
0.000181137
-0.000207479
0.000227026
-0.000255571
0.000270714
-0.000302984
0.000309101
-0.000347067
0.000339093
-0.000385794
0.000359153
-0.000418015
0.000368767
-0.000443283
0.000368674
-0.00046183
0.000360126
-0.000474369
0.000344922
-0.000481966
0.000324823
-0.000485796
0.000301558
-0.000487012
0.000276446
-0.00048659
0.000250538
-0.000485301
0.000224447
-0.000483682
0.000198579
-0.000482082
0.000173055
-0.00048069
0.000147928
-0.000479597
0.000123109
-0.000478824
9.85306e-05
-0.000478365
7.40605e-05
-0.000478198
4.96205e-05
-0.000478318
2.50961e-05
-0.000478731
4.26751e-07
-0.00047947
-2.4476e-05
-0.000480597
-4.96579e-05
-0.000482207
-7.51931e-05
-0.000484428
-0.00010113
-0.000487424
-0.000127551
-0.000491381
-0.000154537
-0.000496497
-0.000182214
-0.000502934
-0.000210729
-0.000510745
-0.000240266
-0.00051974
-0.000270994
-0.000529295
-0.000302993
-0.000538095
-0.000336073
-0.000543877
-0.000369498
-0.000543286
-0.000401605
-0.000532031
-0.000429408
-0.000505562
-0.000448366
-0.000460385
-0.000452622
-0.000395922
-0.000436046
-0.000316315
-0.000394355
-0.000231
-0.000327971
-0.000152463
-0.00024456
-9.08815e-05
-0.000158274
-4.91539e-05
-8.39652e-05
-2.37561e-05
-2.8901e-05
-9.5017e-06
7.7425e-06
-2.35014e-06
3.00548e-05
5.14176e-07
4.09619e-05
9.97636e-07
4.2154e-05
4.62657e-07
3.37068e-05
1.49413e-05
-6.33981e-06
-4.69075e-06
-2.14157e-05
1.02271e-05
-4.32847e-05
4.03927e-05
-7.10494e-05
8.10549e-05
-0.000104705
0.000126576
-0.000143885
0.000175303
-0.000187762
0.000225001
-0.000234251
0.000273537
-0.000280669
0.000317125
-0.000324132
0.00035258
-0.000362447
0.000377406
-0.000394176
0.000390895
-0.000418794
0.000393385
-0.000436453
0.000386344
-0.000447951
0.000371626
-0.000454433
0.000351414
-0.000457226
0.000327619
-0.00045757
0.000301911
-0.00045653
0.000275409
-0.000454886
0.0002489
-0.000453172
0.000222735
-0.000451687
0.000197097
-0.000450575
0.000171942
-0.00044986
0.000147214
-0.000449516
0.000122762
-0.000449481
9.84928e-05
-0.000449697
7.427e-05
-0.000450109
5.00263e-05
-0.000450689
2.56653e-05
-0.000451421
1.14896e-06
-0.000452324
-2.35866e-05
-0.000453434
-4.85612e-05
-0.000454822
-7.38199e-05
-0.000456587
-9.93798e-05
-0.000458868
-0.000125287
-0.000461837
-0.000151583
-0.000465715
-0.000178352
-0.000470746
-0.000205712
-0.000477181
-0.000233844
-0.000485195
-0.000262992
-0.000494762
-0.000293438
-0.000505428
-0.000325416
-0.000516018
-0.000358915
-0.000524281
-0.000393347
-0.000526647
-0.000427045
-0.00051829
-0.000456724
-0.000493822
-0.000477089
-0.000448837
-0.000481031
-0.000382276
-0.000460917
-0.000298908
-0.000411339
-0.00021021
-0.000333257
-0.000131197
-0.000237284
-7.2736e-05
-0.00014242
-3.58343e-05
-6.57995e-05
-1.49215e-05
-1.3167e-05
-4.2755e-06
1.94104e-05
2.08547e-07
3.64821e-05
1.24072e-06
4.11219e-05
6.8026e-07
3.42728e-05
1.56225e-05
-9.05537e-06
4.33256e-06
-2.81776e-05
2.93994e-05
-5.41465e-05
6.63059e-05
-8.56878e-05
0.000112632
-0.00012265
0.000163499
-0.000164162
0.000216836
-0.000208804
0.000269615
-0.000253978
0.000318722
-0.000296942
0.000360068
-0.000335139
0.000390782
-0.000366959
0.00040921
-0.000391582
0.000415521
-0.000409118
0.000410908
-0.000420285
0.000397511
-0.000426334
0.000377664
-0.000428652
0.000353731
-0.000428616
0.000327574
-0.000427334
0.000300628
-0.000425647
0.000273714
-0.000424066
0.000247318
-0.000422879
0.000221543
-0.000422175
0.000196394
-0.00042195
0.000171714
-0.000422124
0.000147391
-0.000422614
0.000123253
-0.000423324
9.92072e-05
-0.000424184
7.51342e-05
-0.000425135
5.09849e-05
-0.000426147
2.66852e-05
-0.000427204
2.21641e-06
-0.000428316
-2.24644e-05
-0.000429505
-4.73593e-05
-0.000430821
-7.24922e-05
-0.000432327
-9.78601e-05
-0.00043412
-0.00012348
-0.000436327
-0.000149363
-0.00043912
-0.000175546
-0.000442722
-0.000202097
-0.000447414
-0.000229141
-0.00045351
-0.000256887
-0.000461302
-0.000285638
-0.000470912
-0.000315799
-0.00048206
-0.000347761
-0.000493688
-0.000381715
-0.00050354
-0.00041719
-0.000507795
-0.000452466
-0.000501083
-0.000483798
-0.000477209
-0.000504904
-0.000430979
-0.000507147
-0.000361152
-0.00048117
-0.000273687
-0.000420728
-0.0001828
-0.000328173
-0.000106074
-0.000219148
-5.36205e-05
-0.000118252
-2.31015e-05
-4.36891e-05
-7.27277e-06
3.57866e-06
-3.49477e-07
2.95574e-05
1.50404e-06
3.92639e-05
9.3891e-07
3.48388e-05
1.65578e-05
-1.16611e-05
1.5966e-05
-3.44138e-05
5.22236e-05
-6.38371e-05
9.56742e-05
-9.82989e-05
0.00014715
-0.000137422
0.000202589
-0.000179808
0.000259261
-0.000223587
0.000313375
-0.000265925
0.000361087
-0.000304302
0.000398434
-0.000336642
0.000423143
-0.000361969
0.00043453
-0.000380074
0.000433643
-0.000391659
0.000422491
-0.000397891
0.000403756
-0.000400284
0.000380057
-0.000400256
0.000353714
-0.000399047
0.000326365
-0.000397513
0.000299102
-0.000396217
0.000272419
-0.00039541
0.000246517
-0.000395179
0.000221312
-0.000395468
0.000196686
-0.000396188
0.000172432
-0.000397213
0.000148417
-0.000398445
0.000124481
-0.000399787
0.000100547
-0.000401179
7.65198e-05
-0.000402569
5.23706e-05
-0.000403939
2.80467e-05
-0.000405275
3.54441e-06
-0.000406587
-2.11626e-05
-0.000407891
-4.60656e-05
-0.000409221
-7.11743e-05
-0.000410617
-9.64752e-05
-0.000412141
-0.000121968
-0.000413872
-0.000147643
-0.000415922
-0.000173507
-0.000418446
-0.000199584
-0.000421666
-0.000225931
-0.000425874
-0.000252687
-0.000431444
-0.000280075
-0.000438766
-0.000308484
-0.000448115
-0.000338417
-0.000459364
-0.00037047
-0.000471556
-0.000405001
-0.000482352
-0.000441672
-0.000487593
-0.000478558
-0.000481259
-0.000511235
-0.000456354
-0.00053205
-0.000407093
-0.000530428
-0.000332602
-0.000495222
-0.000240952
-0.000419823
-0.000150002
-0.0003101
-7.9264e-05
-0.000188983
-3.55294e-05
-8.74208e-05
-1.23887e-05
-1.95604e-05
-1.78782e-06
1.89582e-05
1.47038e-06
3.60058e-05
1.13212e-06
3.51811e-05
1.76903e-05
-1.39718e-05
2.98949e-05
-3.97525e-05
7.80738e-05
-7.18365e-05
0.000127683
-0.000108242
0.000183606
-0.000148325
0.000242619
-0.000190232
0.000301198
-0.000231836
0.000354942
-0.00027032
0.000399588
-0.000303569
0.000431657
-0.000330059
0.000449643
-0.000349438
0.000453889
-0.000362062
0.000446273
-0.000369111
0.000429525
-0.00037202
0.000406667
-0.000372363
0.000380387
-0.000371412
0.000352764
-0.00037016
0.000325103
-0.000369167
0.00029811
-0.000368742
0.000271985
-0.000368928
0.000246703
-0.000369682
0.000222061
-0.000370871
0.000197876
-0.000372376
0.000173935
-0.000374065
0.00015011
-0.000375852
0.000126268
-0.000377656
0.000102355
-0.000379433
7.83005e-05
-0.000381148
5.40914e-05
-0.000382789
2.96941e-05
-0.000384351
5.11461e-06
-0.000385846
-1.966e-05
-0.000387286
-4.46162e-05
-0.000388698
-6.9753e-05
-0.000390108
-9.50548e-05
-0.000391556
-0.00012051
-0.000393084
-0.000146105
-0.000394758
-0.000171823
-0.000396665
-0.000197669
-0.000398942
-0.000223646
-0.000401794
-0.000249828
-0.000405528
-0.000276334
-0.000410555
-0.000303453
-0.000417363
-0.000331605
-0.000426357
-0.000361474
-0.000437555
-0.000393801
-0.000450037
-0.000429188
-0.000461299
-0.000467297
-0.000466667
-0.000505864
-0.000459342
-0.000539375
-0.000431502
-0.000558265
-0.000377129
-0.000549596
-0.000296597
-0.00050036
-0.000201461
-0.000405241
-0.000114055
-0.000276393
-5.3516e-05
-0.000147954
-2.03506e-05
-5.27265e-05
-4.58949e-06
3.19346e-06
9.20486e-07
3.04944e-05
1.19341e-06
3.49075e-05
1.88817e-05
-1.57411e-05
4.56014e-05
-4.37486e-05
0.00010617
-7.75794e-05
0.000161444
-0.000114906
0.000221001
-0.000154814
0.000282485
-0.000195124
0.000341554
-0.00023364
0.000393432
-0.000267759
0.000433739
-0.000295857
0.00045974
-0.00031697
0.000470781
-0.000331319
0.00046823
-0.000339724
0.000454698
-0.00034368
0.000433476
-0.0003447
0.000407702
-0.000344249
0.000379934
-0.00034335
0.000351877
-0.00034271
0.000324462
-0.000342624
0.000298033
-0.000343201
0.000272561
-0.000344351
0.000247861
-0.000345968
0.000223676
-0.000347888
0.000199801
-0.000350001
0.000176045
-0.000352188
0.000152298
-0.000354385
0.000128461
-0.000356528
0.000104496
-0.00035859
8.03577e-05
-0.000360545
5.60427e-05
-0.000362392
3.15343e-05
-0.000364127
6.84386e-06
-0.000365765
-1.80296e-05
-0.000367318
-4.30705e-05
-0.000368811
-6.82693e-05
-0.000370262
-9.36119e-05
-0.000371701
-0.000119079
-0.000373153
-0.000144662
-0.000374653
-0.000170331
-0.000376242
-0.000196087
-0.000377993
-0.000221901
-0.000380017
-0.00024781
-0.000382516
-0.00027384
-0.000385798
-0.000300175
-0.000390327
-0.000327079
-0.000396671
-0.000355133
-0.000405367
-0.000385107
-0.000416521
-0.000418035
-0.000429186
-0.000454634
-0.000440503
-0.000494546
-0.000445101
-0.000534777
-0.000435188
-0.000568173
-0.000402213
-0.00058257
-0.000340513
-0.000562056
-0.000253108
-0.000492654
-0.000156849
-0.000372651
-7.83449e-05
-0.00022646
-3.16243e-05
-9.94318e-05
-9.0651e-06
-1.9374e-05
-2.65262e-07
2.16999e-05
1.09178e-06
3.35494e-05
1.99752e-05
-1.68795e-05
6.24319e-05
-4.62583e-05
0.000135629
-8.092e-05
0.000196018
-0.000118205
0.000258344
-0.000156966
0.000321188
-0.000194845
0.000379467
-0.000229739
0.000428285
-0.000259379
0.0004634
-0.000282661
0.000482992
-0.00029914
0.000487272
-0.000309519
0.000478586
-0.000314944
0.000460129
-0.000317051
0.000435565
-0.000317271
0.000407926
-0.000316857
0.000379505
-0.000316543
0.000351565
-0.00031678
0.000324687
-0.000317652
0.000298906
-0.00031914
0.000274041
-0.000321087
0.000249809
-0.000323368
0.000225951
-0.000325827
0.000202262
-0.000328374
0.000178588
-0.000330912
0.00015484
-0.0003334
0.000130949
-0.000335787
0.000106888
-0.000338061
8.26328e-05
-0.000340199
5.81865e-05
-0.000342207
3.35462e-05
-0.000344083
8.72567e-06
-0.000345842
-1.62646e-05
-0.000347496
-4.14095e-05
-0.000349069
-6.66897e-05
-0.000350578
-9.20955e-05
-0.00035205
-0.0001176
-0.000353501
-0.000143204
-0.000354955
-0.00016887
-0.000356427
-0.000194609
-0.000357949
-0.000220373
-0.000359564
-0.000246191
-0.000361373
-0.000272027
-0.000363558
-0.000297986
-0.000366456
-0.000324178
-0.00037057
-0.000351017
-0.00037658
-0.000379097
-0.000385118
-0.000409495
-0.000396352
-0.000443401
-0.00040913
-0.000481766
-0.000420048
-0.000523863
-0.000422709
-0.000565507
-0.000408225
-0.000597056
-0.000367538
-0.000602735
-0.000296491
-0.000563714
-0.000202731
-0.000466407
-0.000110434
-0.000318779
-4.70058e-05
-0.000162835
-1.52634e-05
-5.11277e-05
-2.18868e-06
8.62836e-06
8.51168e-07
3.05047e-05
2.08269e-05
-1.72662e-05
7.96609e-05
-4.71044e-05
0.000165563
-8.16999e-05
0.000230538
-0.000118077
0.000294795
-0.000154918
0.000357983
-0.000189823
0.000414422
-0.000220897
0.000459331
-0.000246265
0.000488804
-0.000265313
0.000502023
-0.000278044
0.000500032
-0.000285519
0.000486052
-0.000289061
0.000463694
-0.000290295
0.000436793
-0.000290466
0.000408114
-0.000290569
0.000379606
-0.000291074
0.000352084
-0.000292224
0.000325835
-0.000293963
0.000300656
-0.000296207
0.000276284
-0.000298776
0.000252386
-0.000301557
0.00022873
-0.000304415
0.000205125
-0.000307285
0.000181457
-0.000310092
0.000157649
-0.000312808
0.000133661
-0.000315392
0.000109473
-0.00031784
8.50763e-05
-0.000320131
6.04759e-05
-0.000322273
3.5683e-05
-0.000324262
1.0711e-05
-0.000326116
-1.44169e-05
-0.000327843
-3.96873e-05
-0.000329469
-6.50697e-05
-0.000331011
-9.05594e-05
-0.000332496
-0.000116121
-0.000333942
-0.000141764
-0.00033537
-0.000167447
-0.000336788
-0.000193196
-0.00033821
-0.000218955
-0.000339643
-0.000244763
-0.000341124
-0.000270549
-0.000342726
-0.000296387
-0.000344644
-0.000322263
-0.00034722
-0.000348443
-0.000351046
-0.000375272
-0.000356888
-0.000403653
-0.000365504
-0.000434788
-0.000376982
-0.000470287
-0.000389808
-0.00051104
-0.000399639
-0.000555671
-0.000398793
-0.000597904
-0.000377194
-0.000624323
-0.000326036
-0.000614875
-0.000244485
-0.000547961
-0.000147689
-0.000415584
-6.75414e-05
-0.000242981
-2.32748e-05
-9.53775e-05
-4.97058e-06
-9.68378e-06
4.87103e-07
2.5047e-05
2.13161e-05
-1.69424e-05
9.65533e-05
-4.63935e-05
0.000195095
-8.01331e-05
0.000264189
-0.0001149
0.000329621
-0.000149266
0.000392288
-0.000180909
0.0004461
-0.000208209
0.000486587
-0.000229694
0.000510312
-0.000245181
0.000517478
-0.000255027
0.000509891
-0.000260521
0.00049152
-0.000263027
0.000466207
-0.000264049
0.000437794
-0.000264597
0.000408666
-0.000265416
0.000380407
-0.000266754
0.000353424
-0.000268712
0.000327779
-0.000271154
0.000303099
-0.000273975
0.000279094
-0.000277
0.000255413
-0.000280142
0.000231865
-0.000283289
0.000208273
-0.0002864
0.000184562
-0.000289412
0.000160663
-0.00029231
0.000136557
-0.000295059
0.000112225
-0.000297656
8.76733e-05
-0.000300082
6.29056e-05
-0.000302343
3.79466e-05
-0.000304436
1.28082e-05
-0.000306376
-1.24731e-05
-0.000308172
-3.78865e-05