/*--------------------------------*- C++ -*----------------------------------*\
| =========                 |                                                 |
| \\      /  F ield         | OpenFOAM: The Open Source CFD Toolbox           |
|  \\    /   O peration     | Version:  2406                                  |
|   \\  /    A nd           | Website:  www.openfoam.com                      |
|    \\/     M anipulation  |                                                 |
\*---------------------------------------------------------------------------*/
FoamFile
{
    version     2.0;
    format      ascii;
    arch        "LSB;label=32;scalar=64";
    class       volVectorField;
    location    "34.6";
    object      Uold;
}
// * * * * * * * * * * * * * * * * * * * * * * * * * * * * * * * * * * * * * //

dimensions      [0 1 -1 0 0 0 0];

internalField   nonuniform List<vector> 
3600
(
(-1.48042e-06 -6.06768e-06 0)
(0.000388076 -0.000191069 0)
(0.00116887 -0.000288842 0)
(0.00204229 -0.000305687 0)
(0.00287689 -0.000251662 0)
(0.0034874 -0.000176989 0)
(0.0038999 -0.000107134 0)
(0.00410419 -6.36259e-05 0)
(0.00419764 -4.55743e-05 0)
(0.00420117 -4.4302e-05 0)
(0.00415151 -4.38142e-05 0)
(0.00400562 -3.12677e-05 0)
(0.0037197 1.3418e-06 0)
(0.00321121 5.63864e-05 0)
(0.00240955 0.000134278 0)
(0.00122922 0.000236146 0)
(-0.000407026 0.000364668 0)
(-0.00258263 0.0005212 0)
(-0.00536936 0.000700584 0)
(-0.00883024 0.000891662 0)
(-0.0130028 0.00108624 0)
(-0.0178885 0.00128703 0)
(-0.0234312 0.00150249 0)
(-0.0295048 0.00173087 0)
(-0.035904 0.00194717 0)
(-0.0423462 0.00210461 0)
(-0.0484843 0.00214851 0)
(-0.0539326 0.00203291 0)
(-0.0582978 0.00173125 0)
(-0.0612119 0.00123998 0)
(-0.0623604 0.000577055 0)
(-0.0615067 -0.000221127 0)
(-0.0585125 -0.00110321 0)
(-0.0533544 -0.00200578 0)
(-0.0461398 -0.0028568 0)
(-0.0371152 -0.00357972 0)
(-0.0266717 -0.00409974 0)
(-0.0153325 -0.00435193 0)
(-0.00373378 -0.00429156 0)
(0.00742668 -0.00390476 0)
(0.0174431 -0.0032173 0)
(0.0256916 -0.00229877 0)
(0.0316957 -0.00125701 0)
(0.0352147 -0.000224403 0)
(0.0362601 0.00066911 0)
(0.0351178 0.00132269 0)
(0.0322632 0.00169268 0)
(0.0283038 0.00179617 0)
(0.0238241 0.00170123 0)
(0.0193423 0.00149036 0)
(0.0151906 0.001238 0)
(0.0115865 0.000989024 0)
(0.00856506 0.000770654 0)
(0.00613828 0.000588513 0)
(0.00419148 0.000449807 0)
(0.00268516 0.00034166 0)
(0.00148343 0.000261024 0)
(0.000614266 0.000162048 0)
(5.29288e-05 4.58636e-05 0)
(-9.12956e-05 -9.7697e-05 0)
(0.000166044 -0.000375442 0)
(0.00116984 -0.00119717 0)
(0.00281289 -0.00160108 0)
(0.0045406 -0.00162768 0)
(0.00612988 -0.00134131 0)
(0.00725049 -0.000924542 0)
(0.00790465 -0.000502846 0)
(0.00804811 -0.000163242 0)
(0.0077969 8.64815e-05 0)
(0.00715289 0.000290951 0)
(0.00612279 0.000522347 0)
(0.00458219 0.000849333 0)
(0.00238639 0.00131498 0)
(-0.00067409 0.00193924 0)
(-0.00479591 0.00272549 0)
(-0.0101869 0.00367155 0)
(-0.0170197 0.00476546 0)
(-0.025433 0.00598449 0)
(-0.0354795 0.00729312 0)
(-0.0470906 0.00864153 0)
(-0.0600262 0.0099505 0)
(-0.0738744 0.0111027 0)
(-0.088078 0.0119536 0)
(-0.101999 0.0123619 0)
(-0.114985 0.0122154 0)
(-0.126436 0.0114468 0)
(-0.135842 0.0100368 0)
(-0.142797 0.00801092 0)
(-0.147003 0.00543218 0)
(-0.148257 0.00239385 0)
(-0.146444 -0.000986855 0)
(-0.141529 -0.00457179 0)
(-0.133559 -0.00820387 0)
(-0.122666 -0.0117072 0)
(-0.109078 -0.0148899 0)
(-0.0931313 -0.017549 0)
(-0.0752792 -0.0194826 0)
(-0.0560953 -0.0205072 0)
(-0.036271 -0.0204836 0)
(-0.0165847 -0.019344 0)
(0.00212831 -0.0171194 0)
(0.0190503 -0.0139561 0)
(0.0334309 -0.0101153 0)
(0.0446872 -0.0059512 0)
(0.0524329 -0.00186239 0)
(0.0565664 0.00176409 0)
(0.0572402 0.00462527 0)
(0.0549122 0.00654558 0)
(0.050225 0.00751349 0)
(0.0440019 0.00765418 0)
(0.0370219 0.00719339 0)
(0.0300223 0.00637157 0)
(0.0234657 0.00540863 0)
(0.0177003 0.00444869 0)
(0.012766 0.00359541 0)
(0.00872548 0.00285973 0)
(0.00540905 0.00224188 0)
(0.00287987 0.00160079 0)
(0.00103096 0.000911182 0)
(0.000100851 8.27718e-05 0)
(0.00027224 -0.00113562 0)
(0.00164851 -0.00286467 0)
(0.00377245 -0.00365362 0)
(0.00585834 -0.00358878 0)
(0.00763534 -0.00287016 0)
(0.00869555 -0.00183643 0)
(0.00902977 -0.000762734 0)
(0.00855889 0.000191525 0)
(0.00736375 0.00101035 0)
(0.00537631 0.00180432 0)
(0.00250963 0.00273243 0)
(-0.00147595 0.00395013 0)
(-0.00684304 0.00555067 0)
(-0.0139073 0.00757455 0)
(-0.0229428 0.0100129 0)
(-0.0341818 0.0128267 0)
(-0.0477245 0.0159339 0)
(-0.0634835 0.0191965 0)
(-0.0811042 0.0223931 0)
(-0.0999819 0.0252284 0)
(-0.119333 0.0273847 0)
(-0.138326 0.0285969 0)
(-0.15619 0.028697 0)
(-0.172296 0.0276239 0)
(-0.186172 0.0254016 0)
(-0.197496 0.0221129 0)
(-0.206061 0.017874 0)
(-0.211748 0.0128203 0)
(-0.214491 0.0070978 0)
(-0.214257 0.000862522 0)
(-0.211037 -0.00571784 0)
(-0.204838 -0.0124574 0)
(-0.195692 -0.0191463 0)
(-0.183665 -0.0255438 0)
(-0.168882 -0.0313765 0)
(-0.151544 -0.0363415 0)
(-0.131954 -0.0401217 0)
(-0.110538 -0.0424098 0)
(-0.0878549 -0.0429487 0)
(-0.0645893 -0.0415749 0)
(-0.0415317 -0.0382686 0)
(-0.0195177 -0.0331843 0)
(0.000621755 -0.0266635 0)
(0.0181577 -0.0192069 0)
(0.0324948 -0.011418 0)
(0.0432572 -0.00392737 0)
(0.050258 0.00269474 0)
(0.0535791 0.0079992 0)
(0.0534966 0.0117242 0)
(0.0505736 0.0138121 0)
(0.045496 0.0144237 0)
(0.0391222 0.0138741 0)
(0.0321799 0.0125699 0)
(0.0253697 0.0108897 0)
(0.0190362 0.00914973 0)
(0.0135091 0.00750497 0)
(0.00874354 0.00601261 0)
(0.0049402 0.00449373 0)
(0.00197094 0.00283309 0)
(0.000302126 0.000819411 0)
(0.0003392 -0.00206814 0)
(0.0019142 -0.00477118 0)
(0.00419329 -0.00584347 0)
(0.00620643 -0.00547938 0)
(0.00765858 -0.00409945 0)
(0.00811458 -0.00220621 0)
(0.00756745 -0.000223376 0)
(0.0058968 0.00165255 0)
(0.00310328 0.0034307 0)
(-0.00100556 0.00532019 0)
(-0.00666266 0.00757917 0)
(-0.0142417 0.010441 0)
(-0.0240983 0.0140177 0)
(-0.0365663 0.0183194 0)
(-0.0518243 0.0232481 0)
(-0.0698355 0.0286072 0)
(-0.0902289 0.0340588 0)
(-0.112308 0.0391407 0)
(-0.135142 0.0433442 0)
(-0.157762 0.0462455 0)
(-0.179315 0.0475815 0)
(-0.199161 0.0472631 0)
(-0.216876 0.0453322 0)
(-0.23221 0.0419136 0)
(-0.245034 0.0371685 0)
(-0.255298 0.0312688 0)
(-0.262984 0.0243806 0)
(-0.268089 0.0166611 0)
(-0.270606 0.00825959 0)
(-0.270515 -0.000673442 0)
(-0.26778 -0.00997766 0)
(-0.262351 -0.0194685 0)
(-0.254174 -0.0289253 0)
(-0.243204 -0.0380778 0)
(-0.229421 -0.0465993 0)
(-0.212861 -0.0541056 0)
(-0.193648 -0.0601696 0)
(-0.172024 -0.0643491 0)
(-0.148388 -0.0662389 0)
(-0.123306 -0.0655328 0)
(-0.0975188 -0.0620999 0)
(-0.071891 -0.0560407 0)
(-0.047354 -0.0477207 0)
(-0.024788 -0.0377424 0)
(-0.00494762 -0.0268733 0)
(0.0116413 -0.0159347 0)
(0.0246509 -0.00569319 0)
(0.0339897 0.00320874 0)
(0.0396932 0.0103077 0)
(0.0420215 0.015335 0)
(0.0413489 0.0182583 0)
(0.0383136 0.0192703 0)
(0.0335702 0.018767 0)
(0.0279265 0.0172373 0)
(0.0219325 0.0151747 0)
(0.0161935 0.0129291 0)
(0.0108709 0.010679 0)
(0.00638344 0.00829607 0)
(0.00267415 0.00554353 0)
(0.000458693 0.00202597 0)
(0.000374431 -0.00314951 0)
(0.00199188 -0.00682246 0)
(0.00414025 -0.00799706 0)
(0.0057111 -0.00704716 0)
(0.00639087 -0.00470075 0)
(0.00575104 -0.00163504 0)
(0.00378195 0.00158826 0)
(0.000311048 0.0047891 0)
(-0.00478153 0.00804934 0)
(-0.0118411 0.0117102 0)
(-0.0212496 0.0161185 0)
(-0.0334532 0.0215349 0)
(-0.0487621 0.0279974 0)
(-0.0672851 0.0353476 0)
(-0.0887678 0.0431991 0)
(-0.112562 0.0509739 0)
(-0.13768 0.0579687 0)
(-0.163019 0.0635361 0)
(-0.187586 0.0672179 0)
(-0.210643 0.0688029 0)
(-0.231714 0.0682798 0)
(-0.250543 0.0657752 0)
(-0.26702 0.0614837 0)
(-0.281123 0.0556264 0)
(-0.292879 0.0484175 0)
(-0.30233 0.0400537 0)
(-0.309523 0.0307055 0)
(-0.314496 0.0205238 0)
(-0.317267 0.00964326 0)
(-0.317832 -0.00180391 0)
(-0.316157 -0.0136771 0)
(-0.312172 -0.0258086 0)
(-0.305776 -0.0379887 0)
(-0.29684 -0.0499446 0)
(-0.285217 -0.0613273 0)
(-0.270766 -0.0717003 0)
(-0.253388 -0.0805464 0)
(-0.233072 -0.0872897 0)
(-0.209954 -0.0913493 0)
(-0.184375 -0.0922153 0)
(-0.156926 -0.0895546 0)
(-0.12845 -0.0833103 0)
(-0.100006 -0.0737841 0)
(-0.0727367 -0.0616406 0)
(-0.0477258 -0.0478358 0)
(-0.0258031 -0.0334523 0)
(-0.00748504 -0.0195215 0)
(0.00706498 -0.00689156 0)
(0.0178664 0.00382268 0)
(0.0251167 0.0122201 0)
(0.0290377 0.0181166 0)
(0.0300522 0.0215501 0)
(0.0286123 0.0227957 0)
(0.0254198 0.0223194 0)
(0.0210346 0.0206755 0)
(0.0161933 0.0183639 0)
(0.0112245 0.0156774 0)
(0.00675705 0.0125868 0)
(0.00287638 0.00872869 0)
(0.000500495 0.00351532 0)
(0.000392197 -0.0042316 0)
(0.00189533 -0.00868179 0)
(0.00359372 -0.00963717 0)
(0.00432191 -0.00773031 0)
(0.00376505 -0.00407051 0)
(0.00153875 0.000499399 0)
(-0.00239471 0.00532642 0)
(-0.00828469 0.0103221 0)
(-0.0164109 0.0156891 0)
(-0.0272582 0.0218944 0)
(-0.0412756 0.0292914 0)
(-0.0587913 0.0380195 0)
(-0.0797847 0.0478399 0)
(-0.103808 0.0581978 0)
(-0.129958 0.0682628 0)
(-0.157055 0.0771432 0)
(-0.183915 0.0840826 0)
(-0.209583 0.0886239 0)
(-0.233412 0.0906014 0)
(-0.255034 0.0900806 0)
(-0.274284 0.0872573 0)
(-0.291126 0.0823954 0)
(-0.305606 0.0757698 0)
(-0.317812 0.067645 0)
(-0.327862 0.0582541 0)
(-0.335882 0.0477982 0)
(-0.341997 0.0364407 0)
(-0.346319 0.0243161 0)
(-0.348938 0.0115331 0)
(-0.349908 -0.00181087 0)
(-0.349239 -0.0156187 0)
(-0.346887 -0.0297725 0)
(-0.342745 -0.0441154 0)
(-0.336636 -0.0584245 0)
(-0.328317 -0.0723887 0)
(-0.317485 -0.0855839 0)
(-0.303807 -0.0974642 0)
(-0.28696 -0.107364 0)
(-0.26671 -0.11454 0)
(-0.242997 -0.118239 0)
(-0.216046 -0.117823 0)
(-0.186444 -0.11291 0)
(-0.155191 -0.103532 0)
(-0.123632 -0.0902274 0)
(-0.0932956 -0.0740405 0)
(-0.065606 -0.0563547 0)
(-0.0416236 -0.0386224 0)
(-0.0218417 -0.022076 0)
(-0.00629339 -0.00757403 0)
(0.00531814 0.00437892 0)
(0.0133116 0.0135407 0)
(0.0180946 0.0198692 0)
(0.0200129 0.0235198 0)
(0.0196294 0.0248642 0)
(0.0174181 0.0244068 0)
(0.0141133 0.0226994 0)
(0.0101327 0.0200873 0)
(0.00623886 0.016625 0)
(0.0026766 0.0118353 0)
(0.000460049 0.00497886 0)
(0.00038107 -0.00528312 0)
(0.00157653 -0.0101818 0)
(0.00247982 -0.0104975 0)
(0.0019718 -0.00720961 0)
(-0.000251966 -0.0018529 0)
(-0.00450869 0.0046023 0)
(-0.0109079 0.0114815 0)
(-0.0197919 0.0188569 0)
(-0.0315927 0.0270584 0)
(-0.0468232 0.0365903 0)
(-0.0657916 0.0476286 0)
(-0.0884171 0.0599518 0)
(-0.114088 0.072826 0)
(-0.141724 0.0852336 0)
(-0.170011 0.0960872 0)
(-0.197711 0.104546 0)
(-0.223883 0.110123 0)
(-0.247921 0.112691 0)
(-0.269504 0.112359 0)
(-0.288503 0.109388 0)
(-0.304925 0.104097 0)
(-0.318866 0.0968291 0)
(-0.330486 0.0879101 0)
(-0.339983 0.0776379 0)
(-0.347577 0.0662632 0)
(-0.353491 0.0539918 0)
(-0.357938 0.0409777 0)
(-0.361106 0.0273346 0)
(-0.363151 0.0131378 0)
(-0.364183 -0.00155766 0)
(-0.364264 -0.0167088 0)
(-0.363394 -0.0322615 0)
(-0.361501 -0.0481342 0)
(-0.358424 -0.0641876 0)
(-0.353902 -0.080199 0)
(-0.347562 -0.0958254 0)
(-0.338923 -0.110577 0)
(-0.327413 -0.123794 0)
(-0.312429 -0.134655 0)
(-0.293429 -0.142213 0)
(-0.270074 -0.145508 0)
(-0.242386 -0.143713 0)
(-0.210921 -0.136359 0)
(-0.176843 -0.12354 0)
(-0.141895 -0.106068 0)
(-0.108137 -0.0854389 0)
(-0.0775431 -0.0635824 0)
(-0.0514944 -0.042408 0)
(-0.0305523 -0.023372 0)
(-0.0144912 -0.00729693 0)
(-0.00276368 0.00551024 0)
(0.00528101 0.0150415 0)
(0.0101208 0.0214497 0)
(0.0123089 0.0250597 0)
(0.0122714 0.026301 0)
(0.0106861 0.0257054 0)
(0.00800413 0.0236016 0)
(0.0050328 0.0200794 0)
(0.00214944 0.0145732 0)
(0.000350009 0.00625718 0)
(0.000325075 -0.00612884 0)
(0.00096737 -0.0109459 0)
(0.000688836 -0.0101039 0)
(-0.00145055 -0.00498462 0)
(-0.00574726 0.00245891 0)
(-0.0124387 0.0112015 0)
(-0.0217542 0.020629 0)
(-0.0341079 0.031001 0)
(-0.0499975 0.0426909 0)
(-0.0697469 0.0560391 0)
(-0.0932588 0.070788 0)
(-0.119831 0.0861609 0)
(-0.148275 0.100931 0)
(-0.177163 0.113863 0)
(-0.205201 0.123974 0)
(-0.231409 0.130743 0)
(-0.255178 0.134031 0)
(-0.276179 0.133991 0)
(-0.294303 0.130934 0)
(-0.309586 0.125259 0)
(-0.322191 0.117391 0)
(-0.332356 0.107747 0)
(-0.340379 0.096703 0)
(-0.346574 0.0845805 0)
(-0.351256 0.0716325 0)
(-0.354717 0.0580496 0)
(-0.357217 0.0439574 0)
(-0.358973 0.0294333 0)
(-0.360169 0.0145104 0)
(-0.360937 -0.000803565 0)
(-0.361373 -0.0165198 0)
(-0.361522 -0.0326481 0)
(-0.361372 -0.0491854 0)
(-0.360833 -0.0660891 0)
(-0.359719 -0.0832545 0)
(-0.357712 -0.100474 0)
(-0.354346 -0.1174 0)
(-0.348973 -0.133496 0)
(-0.340787 -0.148007 0)
(-0.328868 -0.159944 0)
(-0.312303 -0.168139 0)
(-0.290374 -0.171352 0)
(-0.262809 -0.168494 0)
(-0.230035 -0.158909 0)
(-0.193373 -0.142696 0)
(-0.155014 -0.120928 0)
(-0.117714 -0.0956411 0)
(-0.0841434 -0.0694434 0)
(-0.0561732 -0.0448234 0)
(-0.0343806 -0.0234878 0)
(-0.018301 -0.00615878 0)
(-0.0069485 0.00714513 0)
(0.000550495 0.0167022 0)
(0.00497798 0.0229219 0)
(0.00686777 0.0262292 0)
(0.0068913 0.0271261 0)
(0.00553339 0.025892 0)
(0.00358714 0.0226032 0)
(0.00152204 0.016644 0)
(0.00022683 0.00718419 0)
(0.000203253 -0.00664035 0)
(9.0898e-06 -0.010696 0)
(-0.00183245 -0.00813979 0)
(-0.00594337 -0.00075769 0)
(-0.0126382 0.00915384 0)
(-0.0220699 0.020606 0)
(-0.034612 0.0331015 0)
(-0.0506594 0.047024 0)
(-0.070603 0.0625982 0)
(-0.0943291 0.079738 0)
(-0.121177 0.097572 0)
(-0.149868 0.114798 0)
(-0.178924 0.129957 0)
(-0.206938 0.141939 0)
(-0.232886 0.1501 0)
(-0.256089 0.154285 0)
(-0.27621 0.154652 0)
(-0.293131 0.151579 0)
(-0.306948 0.145547 0)
(-0.317884 0.13709 0)
(-0.326285 0.126723 0)
(-0.332535 0.114922 0)
(-0.337046 0.102078 0)
(-0.340198 0.0885053 0)
(-0.342338 0.0744244 0)
(-0.343753 0.059985 0)
(-0.344683 0.0452675 0)
(-0.345313 0.0303069 0)
(-0.345796 0.015097 0)
(-0.346245 -0.000389292 0)
(-0.346756 -0.0161977 0)
(-0.347392 -0.0323758 0)
(-0.348196 -0.0489708 0)
(-0.349161 -0.0660093 0)
(-0.350226 -0.0834863 0)
(-0.351225 -0.101331 0)
(-0.351854 -0.119372 0)
(-0.351609 -0.137283 0)
(-0.349754 -0.154518 0)
(-0.345287 -0.170255 0)
(-0.336991 -0.183362 0)
(-0.323551 -0.19242 0)
(-0.303797 -0.195865 0)
(-0.277049 -0.192243 0)
(-0.243511 -0.180604 0)
(-0.20459 -0.160962 0)
(-0.16297 -0.134654 0)
(-0.122213 -0.104358 0)
(-0.0858761 -0.0735533 0)
(-0.0563535 -0.0454534 0)
(-0.0342519 -0.0220212 0)
(-0.0186622 -0.00377111 0)
(-0.00821801 0.0096572 0)
(-0.00164022 0.0189136 0)
(0.00195456 0.0245832 0)
(0.00337716 0.0272215 0)
(0.00320718 0.0270926 0)
(0.00221855 0.0242484 0)
(0.00093854 0.0180749 0)
(0.000118096 0.00779761 0)
(-4.87936e-06 -0.00657015 0)
(-0.00134148 -0.00902785 0)
(-0.00509782 -0.00419875 0)
(-0.0114507 0.00583232 0)
(-0.0207778 0.0185647 0)
(-0.0331313 0.0331233 0)
(-0.0490037 0.0491169 0)
(-0.0686119 0.0668834 0)
(-0.0920481 0.0862513 0)
(-0.118611 0.106518 0)
(-0.147133 0.126227 0)
(-0.176005 0.143798 0)
(-0.20379 0.15787 0)
(-0.229307 0.167677 0)
(-0.251845 0.172962 0)
(-0.270988 0.173903 0)
(-0.286655 0.17092 0)
(-0.29896 0.164607 0)
(-0.308235 0.155607 0)
(-0.314902 0.14457 0)
(-0.319464 0.132068 0)
(-0.322397 0.118583 0)
(-0.324153 0.104475 0)
(-0.325097 0.0900008 0)
(-0.325533 0.075318 0)
(-0.325679 0.0605134 0)
(-0.325706 0.0456124 0)
(-0.325728 0.0306076 0)
(-0.325839 0.0154614 0)
(-0.326106 0.000126422 0)
(-0.326598 -0.015458 0)
(-0.327373 -0.0313518 0)
(-0.328496 -0.0476198 0)
(-0.330019 -0.0643193 0)
(-0.331982 -0.0815011 0)
(-0.33437 -0.0991879 0)
(-0.337091 -0.117357 0)
(-0.339899 -0.13589 0)
(-0.342337 -0.154517 0)
(-0.343643 -0.172724 0)
(-0.342704 -0.189665 0)
(-0.338049 -0.204084 0)
(-0.327973 -0.214311 0)
(-0.310805 -0.21839 0)
(-0.285363 -0.214392 0)
(-0.251508 -0.200938 0)
(-0.210668 -0.177856 0)
(-0.166027 -0.14675 0)
(-0.122095 -0.111107 0)
(-0.0834249 -0.0755228 0)
(-0.0529941 -0.044084 0)
(-0.0312172 -0.0189403 0)
(-0.0166837 -0.000235796 0)
(-0.00749038 0.0128989 0)
(-0.00213433 0.0214078 0)
(0.000562937 0.026076 0)
(0.00140403 0.0272695 0)
(0.00120237 0.0250632 0)
(0.000538505 0.0189088 0)
(5.52567e-05 0.00813244 0)
(-0.000308226 -0.00571801 0)
(-0.00306487 -0.00566946 0)
(-0.00899649 0.00192983 0)
(-0.0177416 0.0149152 0)
(-0.0297913 0.0307615 0)
(-0.0450563 0.0487318 0)
(-0.0640714 0.0684455 0)
(-0.0866966 0.08996 0)
(-0.112608 0.112515 0)
(-0.140537 0.134776 0)
(-0.169029 0.154919 0)
(-0.196425 0.171396 0)
(-0.221528 0.183172 0)
(-0.243438 0.189891 0)
(-0.261755 0.191671 0)
(-0.27633 0.189001 0)
(-0.287372 0.182561 0)
(-0.295248 0.173147 0)
(-0.300516 0.161531 0)
(-0.303736 0.148415 0)
(-0.305487 0.134358 0)
(-0.306242 0.119783 0)
(-0.306404 0.104966 0)
(-0.30625 0.0900751 0)
(-0.305989 0.0751857 0)
(-0.305738 0.0603188 0)
(-0.305581 0.0454509 0)
(-0.305551 0.0305443 0)
(-0.305685 0.0155453 0)
(-0.306 0.00040299 0)
(-0.306531 -0.014939 0)
(-0.307317 -0.0305309 0)
(-0.308422 -0.0464283 0)
(-0.309914 -0.0626839 0)
(-0.311883 -0.0793576 0)
(-0.314408 -0.0965065 0)
(-0.317549 -0.114185 0)
(-0.321289 -0.132414 0)
(-0.325488 -0.151151 0)
(-0.329772 -0.170204 0)
(-0.333436 -0.189134 0)
(-0.335327 -0.207117 0)
(-0.333806 -0.222808 0)
(-0.326817 -0.234289 0)
(-0.312187 -0.239162 0)
(-0.288164 -0.234921 0)
(-0.254182 -0.219619 0)
(-0.211622 -0.192812 0)
(-0.164221 -0.156424 0)
(-0.117551 -0.115012 0)
(-0.0773002 -0.0745984 0)
(-0.046865 -0.0402393 0)
(-0.0262334 -0.014042 0)
(-0.0132494 0.00448262 0)
(-0.00562132 0.0167043 0)
(-0.00153975 0.0238739 0)
(0.000214401 0.0266656 0)
(0.000623238 0.0253027 0)
(0.000358298 0.019382 0)
(4.16814e-05 0.00834546 0)
(-0.000708172 -0.00383118 0)
(-0.00510975 -0.000331901 0)
(-0.0133698 0.0104477 0)
(-0.024535 0.0266044 0)
(-0.0392447 0.0457691 0)
(-0.057197 0.0672909 0)
(-0.0788676 0.0906385 0)
(-0.103632 0.115371 0)
(-0.130763 0.140086 0)
(-0.158576 0.162971 0)
(-0.18559 0.182134 0)
(-0.210282 0.196297 0)
(-0.231785 0.204856 0)
(-0.249485 0.20787 0)
(-0.263312 0.205825 0)
(-0.27341 0.19952 0)
(-0.280286 0.189877 0)
(-0.284515 0.177836 0)
(-0.286801 0.164222 0)
(-0.287737 0.149703 0)
(-0.287878 0.134754 0)
(-0.287602 0.119684 0)
(-0.287205 0.104657 0)
(-0.286841 0.0897425 0)
(-0.286614 0.0749377 0)
(-0.286545 0.0602101 0)
(-0.286646 0.0455032 0)
(-0.286893 0.030764 0)
(-0.287281 0.0159358 0)
(-0.287792 0.000974686 0)
(-0.288441 -0.0141626 0)
(-0.289243 -0.0295089 0)
(-0.290251 -0.0451002 0)
(-0.291525 -0.0609694 0)
(-0.293161 -0.0771615 0)
(-0.295265 -0.0937283 0)
(-0.297966 -0.110741 0)
(-0.301372 -0.128278 0)
(-0.305556 -0.146417 0)
(-0.310469 -0.16519 0)
(-0.315851 -0.184504 0)
(-0.32108 -0.204014 0)
(-0.325031 -0.22294 0)
(-0.325953 -0.239872 0)
(-0.321503 -0.252629 0)
(-0.309025 -0.258325 0)
(-0.286188 -0.253757 0)
(-0.251953 -0.236299 0)
(-0.207663 -0.205175 0)
(-0.1577 -0.162818 0)
(-0.108898 -0.115232 0)
(-0.0681042 -0.0702715 0)
(-0.038836 -0.0338494 0)
(-0.0201561 -0.00757203 0)
(-0.00916979 0.00989579 0)
(-0.00322929 0.0204464 0)
(-0.000471094 0.0253252 0)
(0.000450382 0.0251135 0)
(0.00039087 0.0196593 0)
(7.64072e-05 0.00853819 0)
(-0.00118132 -0.000755158 0)
(-0.00734375 0.00708123 0)
(-0.0179355 0.0213224 0)
(-0.0313971 0.0407455 0)
(-0.0485256 0.0632844 0)
(-0.0687235 0.0882546 0)
(-0.0923231 0.114808 0)
(-0.118179 0.141881 0)
(-0.145276 0.167524 0)
(-0.171723 0.189693 0)
(-0.196207 0.206685 0)
(-0.217443 0.217629 0)
(-0.234921 0.222386 0)
(-0.248329 0.221432 0)
(-0.25795 0.21562 0)
(-0.264203 0.206028 0)
(-0.267838 0.193752 0)
(-0.269538 0.179782 0)
(-0.270038 0.164896 0)
(-0.269861 0.14965 0)
(-0.269456 0.134379 0)
(-0.269058 0.119258 0)
(-0.268842 0.104336 0)
(-0.26884 0.0895966 0)
(-0.269074 0.0749809 0)
(-0.269493 0.0604241 0)
(-0.270068 0.0458563 0)
(-0.27074 0.0312238 0)
(-0.271487 0.0164781 0)
(-0.272272 0.00158886 0)
(-0.273098 -0.01347 0)
(-0.273964 -0.0287112 0)
(-0.274907 -0.0441485 0)
(-0.275967 -0.0597904 0)
(-0.277226 -0.0756557 0)
(-0.278776 -0.0917717 0)
(-0.280752 -0.108191 0)
(-0.283301 -0.12499 0)
(-0.28659 -0.142284 0)
(-0.290756 -0.160204 0)
(-0.295854 -0.178869 0)
(-0.301727 -0.198295 0)
(-0.307859 -0.218241 0)
(-0.313162 -0.237983 0)
(-0.315816 -0.256033 0)
(-0.313219 -0.269923 0)
(-0.302269 -0.276188 0)
(-0.280069 -0.270838 0)
(-0.245141 -0.250446 0)
(-0.198888 -0.213988 0)
(-0.146557 -0.164716 0)
(-0.0964837 -0.110748 0)
(-0.0565831 -0.0620795 0)
(-0.0298014 -0.0250094 0)
(-0.0138261 3.10663e-05 0)
(-0.00512476 0.0154167 0)
(-0.000993377 0.0232143 0)
(0.000505645 0.0246365 0)
(0.000558224 0.0199304 0)
(0.000142104 0.00883918 0)
(-0.00169845 0.00363702 0)
(-0.00963049 0.0166124 0)
(-0.0224271 0.0344767 0)
(-0.0379353 0.0571513 0)
(-0.0570893 0.0829669 0)
(-0.0789268 0.111047 0)
(-0.103601 0.140105 0)
(-0.129499 0.168444 0)
(-0.155491 0.193768 0)
(-0.179654 0.214045 0)
(-0.200974 0.227952 0)
(-0.218438 0.235085 0)
(-0.231914 0.235789 0)
(-0.241395 0.230946 0)
(-0.247495 0.221751 0)
(-0.25084 0.209482 0)
(-0.252314 0.195304 0)
(-0.252589 0.180147 0)
(-0.252333 0.16466 0)
(-0.251924 0.149234 0)
(-0.251672 0.13405 0)
(-0.251669 0.119153 0)
(-0.251982 0.104501 0)
(-0.252557 0.0900186 0)
(-0.253363 0.0756159 0)
(-0.254313 0.0612169 0)
(-0.255365 0.0467531 0)
(-0.256449 0.0321793 0)
(-0.257539 0.0174592 0)
(-0.258597 0.00257645 0)
(-0.259621 -0.0124805 0)
(-0.260601 -0.0277086 0)
(-0.261561 -0.0431049 0)
(-0.262524 -0.0586584 0)
(-0.263544 -0.0743651 0)
(-0.264685 -0.0902246 0)
(-0.266053 -0.106258 0)
(-0.267772 -0.122512 0)
(-0.27002 -0.139077 0)
(-0.27299 -0.156098 0)
(-0.276892 -0.173766 0)
(-0.281862 -0.192294 0)
(-0.287859 -0.21181 0)
(-0.294456 -0.232185 0)
(-0.300606 -0.252725 0)
(-0.304395 -0.271833 0)
(-0.302967 -0.286647 0)
(-0.292776 -0.293027 0)
(-0.270406 -0.28603 0)
(-0.234059 -0.261432 0)
(-0.18543 -0.218131 0)
(-0.131031 -0.160918 0)
(-0.0809575 -0.100854 0)
(-0.0437748 -0.0501692 0)
(-0.0207556 -0.0144183 0)
(-0.00800228 0.00795198 0)
(-0.00181206 0.0199774 0)
(0.000540821 0.0237914 0)
(0.000758723 0.0202276 0)
(0.000220154 0.00928526 0)
(-0.00220653 0.00932734 0)
(-0.0117759 0.0280948 0)
(-0.0265081 0.0496042 0)
(-0.0436894 0.0753712 0)
(-0.0643522 0.104172 0)
(-0.0871345 0.134793 0)
(-0.112026 0.165467 0)
(-0.137062 0.193958 0)
(-0.161158 0.217855 0)
(-0.182491 0.235338 0)
(-0.200406 0.245574 0)
(-0.214175 0.248648 0)
(-0.224046 0.24539 0)
(-0.230283 0.237057 0)
(-0.233768 0.225107 0)
(-0.235216 0.210904 0)
(-0.235535 0.195567 0)
(-0.235289 0.179877 0)
(-0.235016 0.164303 0)
(-0.234924 0.149057 0)
(-0.235195 0.134178 0)
(-0.2358 0.11961 0)
(-0.236738 0.105251 0)
(-0.237899 0.090995 0)
(-0.239239 0.0767459 0)
(-0.240654 0.0624309 0)
(-0.242109 0.0479931 0)
(-0.243534 0.0334001 0)
(-0.244914 0.0186293 0)
(-0.246209 0.00367703 0)
(-0.247422 -0.011456 0)
(-0.248536 -0.0267553 0)
(-0.24957 -0.0422056 0)
(-0.250529 -0.0577825 0)
(-0.25145 -0.0734654 0)
(-0.252366 -0.0892329 0)
(-0.253347 -0.105077 0)
(-0.254475 -0.121009 0)
(-0.255887 -0.137077 0)
(-0.257752 -0.153381 0)
(-0.260306 -0.170098 0)
(-0.263802 -0.187488 0)
(-0.268474 -0.205856 0)
(-0.274376 -0.225465 0)
(-0.281173 -0.246283 0)
(-0.287819 -0.267642 0)
(-0.292271 -0.287715 0)
(-0.291355 -0.30314 0)
(-0.281055 -0.308851 0)
(-0.257506 -0.298862 0)
(-0.218794 -0.26813 0)
(-0.167371 -0.216071 0)
(-0.111537 -0.150084 0)
(-0.0633979 -0.0852841 0)
(-0.0309873 -0.0353032 0)
(-0.0126336 -0.0030392 0)
(-0.00341601 0.0150516 0)
(0.000282387 0.0223617 0)
(0.000876132 0.0205051 0)
(0.000288491 0.00988755 0)
(-0.00266276 0.0162286 0)
(-0.0136371 0.0413085 0)
(-0.029943 0.0663914 0)
(-0.048352 0.0949981 0)
(-0.0699472 0.126367 0)
(-0.0929778 0.158836 0)
(-0.117326 0.190196 0)
(-0.140806 0.217817 0)
(-0.16251 0.239396 0)
(-0.180792 0.253464 0)
(-0.195378 0.259739 0)
(-0.205817 0.258796 0)
(-0.212708 0.251928 0)
(-0.216519 0.240692 0)
(-0.218291 0.226701 0)
(-0.218724 0.211279 0)
(-0.218655 0.195408 0)
(-0.218483 0.179665 0)
(-0.2186 0.164326 0)
(-0.219059 0.149439 0)
(-0.219944 0.134939 0)
(-0.221143 0.1207 0)
(-0.222625 0.106593 0)
(-0.224258 0.0925071 0)
(-0.226002 0.078352 0)
(-0.227757 0.0640677 0)
(-0.229502 0.049612 0)
(-0.231175 0.0349647 0)
(-0.232771 0.0201151 0)
(-0.234253 0.00506835 0)
(-0.235629 -0.0101665 0)
(-0.23688 -0.0255684 0)
(-0.238021 -0.0411148 0)
(-0.239048 -0.0567744 0)
(-0.239985 -0.072517 0)
(-0.240842 -0.0883092 0)
(-0.241662 -0.104124 0)
(-0.242487 -0.119944 0)
(-0.243402 -0.135776 0)
(-0.24452 -0.15167 0)
(-0.246027 -0.167736 0)
(-0.248165 -0.18419 0)
(-0.25125 -0.201349 0)
(-0.255583 -0.21964 0)
(-0.261324 -0.239436 0)
(-0.268194 -0.260833 0)
(-0.275117 -0.283085 0)
(-0.279833 -0.30406 0)
(-0.278752 -0.319583 0)
(-0.267359 -0.32348 0)
(-0.241417 -0.30846 0)
(-0.199306 -0.269018 0)
(-0.144856 -0.206023 0)
(-0.0889716 -0.131345 0)
(-0.0454321 -0.0648595 0)
(-0.0195693 -0.0189456 0)
(-0.00620079 0.00760136 0)
(-0.000479301 0.0199159 0)
(0.000825327 0.020563 0)
(0.000333168 0.010575 0)
(-0.00301335 0.024115 0)
(-0.015052 0.0558627 0)
(-0.0324871 0.0843418 0)
(-0.0516293 0.115417 0)
(-0.0735686 0.148805 0)
(-0.0962144 0.182352 0)
(-0.119414 0.213502 0)
(-0.140885 0.2394 0)
(-0.159979 0.258031 0)
(-0.175266 0.268356 0)
(-0.186841 0.27067 0)
(-0.194503 0.266012 0)
(-0.199138 0.256081 0)
(-0.201327 0.242626 0)
(-0.202168 0.227293 0)
(-0.202253 0.211264 0)
(-0.2023 0.195326 0)
(-0.202527 0.179831 0)
(-0.203199 0.164885 0)
(-0.204245 0.150406 0)
(-0.205692 0.13626 0)
(-0.207382 0.122287 0)
(-0.209282 0.108357 0)
(-0.211259 0.0943631 0)
(-0.213287 0.0802345 0)
(-0.215278 0.0659241 0)
(-0.217227 0.0514044 0)
(-0.219078 0.0366654 0)
(-0.220836 0.0217057 0)
(-0.222465 0.00653685 0)
(-0.223978 -0.00882589 0)
(-0.225351 -0.0243569 0)
(-0.226601 -0.0400287 0)
(-0.227716 -0.0558061 0)
(-0.228715 -0.0716534 0)
(-0.229596 -0.0875312 0)
(-0.230384 -0.103402 0)
(-0.231094 -0.119233 0)
(-0.231774 -0.135002 0)
(-0.232481 -0.150717 0)
(-0.233335 -0.166423 0)
(-0.234509 -0.182261 0)
(-0.236279 -0.19847 0)
(-0.238993 -0.215466 0)
(-0.24304 -0.233768 0)
(-0.248648 -0.253927 0)
(-0.255574 -0.276064 0)
(-0.262626 -0.299346 0)
(-0.26721 -0.321016 0)
(-0.265217 -0.335867 0)
(-0.251551 -0.336128 0)
(-0.221876 -0.313255 0)
(-0.175368 -0.261818 0)
(-0.118344 -0.186099 0)
(-0.0649103 -0.104907 0)
(-0.0291462 -0.0415099 0)
(-0.0104384 -0.00327851 0)
(-0.00186832 0.0159141 0)
(0.000563455 0.0201552 0)
(0.000347219 0.011266 0)
(-0.00323115 0.0327127 0)
(-0.0159467 0.0713727 0)
(-0.0340417 0.10304 0)
(-0.0534304 0.136183 0)
(-0.0751713 0.171025 0)
(-0.096913 0.204926 0)
(-0.118534 0.235106 0)
(-0.137762 0.258647 0)
(-0.154246 0.27395 0)
(-0.166778 0.280449 0)
(-0.175793 0.279011 0)
(-0.181291 0.27109 0)
(-0.184362 0.258708 0)
(-0.185607 0.243681 0)
(-0.186091 0.227585 0)
(-0.186254 0.21139 0)
(-0.186675 0.195666 0)
(-0.18741 0.180558 0)
(-0.188627 0.166036 0)
(-0.190176 0.151926 0)
(-0.192056 0.138064 0)
(-0.194097 0.124279 0)
(-0.196279 0.110454 0)
(-0.198476 0.0964973 0)
(-0.200686 0.0823559 0)
(-0.202829 0.0679945 0)
(-0.204915 0.0533975 0)
(-0.206891 0.0385611 0)
(-0.208771 0.0234903 0)
(-0.210518 0.00819992 0)
(-0.212146 -0.00729068 0)
(-0.21363 -0.0229535 0)
(-0.214985 -0.0387576 0)
(-0.216196 -0.0546658 0)
(-0.217279 -0.0706392 0)
(-0.218226 -0.0866365 0)
(-0.219057 -0.102615 0)
(-0.219771 -0.118537 0)
(-0.220392 -0.134363 0)
(-0.220941 -0.150077 0)
(-0.221481 -0.165674 0)
(-0.222106 -0.181223 0)
(-0.22301 -0.196859 0)
(-0.224474 -0.212905 0)
(-0.226914 -0.229832 0)
(-0.230778 -0.248353 0)
(-0.236361 -0.269097 0)
(-0.243385 -0.292284 0)
(-0.250423 -0.316672 0)
(-0.254408 -0.338698 0)
(-0.250523 -0.351477 0)
(-0.233215 -0.345433 0)
(-0.198308 -0.31078 0)
(-0.146929 -0.243757 0)
(-0.088889 -0.155236 0)
(-0.042039 -0.0729012 0)
(-0.0161683 -0.0186645 0)
(-0.00400058 0.00970496 0)
(0.000101198 0.0189659 0)
(0.000326775 0.0118555 0)
(-0.00328774 0.0416623 0)
(-0.0162487 0.0873415 0)
(-0.0345214 0.121938 0)
(-0.053693 0.156697 0)
(-0.0747606 0.192401 0)
(-0.0952032 0.225986 0)
(-0.114984 0.254586 0)
(-0.131918 0.27535 0)
(-0.14595 0.287175 0)
(-0.156092 0.289976 0)
(-0.163058 0.285164 0)
(-0.16699 0.274531 0)
(-0.169091 0.260313 0)
(-0.169906 0.244287 0)
(-0.170414 0.227879 0)
(-0.170884 0.211814 0)
(-0.171768 0.196456 0)
(-0.172995 0.181772 0)
(-0.174672 0.167639 0)
(-0.176603 0.153829 0)
(-0.17879 0.140172 0)
(-0.181063 0.126503 0)
(-0.183423 0.112727 0)
(-0.18576 0.0987659 0)
(-0.188088 0.0845833 0)
(-0.190336 0.0701525 0)
(-0.192524 0.0554663 0)
(-0.1946 0.0405238 0)
(-0.196581 0.0253347 0)
(-0.198429 0.0099153 0)
(-0.200157 -0.00571129 0)
(-0.201738 -0.0215149 0)
(-0.203184 -0.0374609 0)
(-0.204478 -0.0535098 0)
(-0.205637 -0.0696193 0)
(-0.206651 -0.0857473 0)
(-0.207537 -0.101849 0)
(-0.20829 -0.117885 0)
(-0.208928 -0.133811 0)
(-0.20945 -0.149603 0)
(-0.209886 -0.165225 0)
(-0.210272 -0.180703 0)
(-0.210715 -0.196079 0)
(-0.211396 -0.211562 0)
(-0.212644 -0.227486 0)
(-0.21492 -0.244518 0)
(-0.218754 -0.263457 0)
(-0.224464 -0.285178 0)
(-0.231637 -0.309693 0)
(-0.238469 -0.335268 0)
(-0.241152 -0.356771 0)
(-0.234153 -0.365261 0)
(-0.211489 -0.34885 0)
(-0.170136 -0.297511 0)
(-0.114288 -0.212046 0)
(-0.0590252 -0.114547 0)
(-0.0233959 -0.0401803 0)
(-0.00700017 0.000726552 0)
(-0.000559013 0.0166158 0)
(0.000279716 0.0122709 0)
(-0.00318596 0.0506148 0)
(-0.015975 0.103355 0)
(-0.0339768 0.140659 0)
(-0.0525311 0.176631 0)
(-0.0725471 0.212692 0)
(-0.091427 0.245443 0)
(-0.109248 0.272048 0)
(-0.123967 0.289827 0)
(-0.135803 0.298215 0)
(-0.143956 0.29759 0)
(-0.149361 0.289852 0)
(-0.152235 0.277047 0)
(-0.153816 0.261525 0)
(-0.15454 0.244931 0)
(-0.155273 0.228503 0)
(-0.156127 0.212714 0)
(-0.15745 0.197755 0)
(-0.159081 0.183455 0)
(-0.161097 0.169634 0)
(-0.163286 0.156041 0)
(-0.165663 0.142515 0)
(-0.168071 0.128907 0)
(-0.170533 0.115142 0)
(-0.172949 0.101157 0)
(-0.175351 0.0869254 0)
(-0.177672 0.0724259 0)
(-0.179937 0.057656 0)
(-0.182095 0.042615 0)
(-0.184164 0.0273147 0)
(-0.186102 0.0117718 0)
(-0.187921 -0.00398779 0)
(-0.18959 -0.0199324 0)
(-0.191122 -0.0360232 0)
(-0.192496 -0.0522189 0)
(-0.193727 -0.0684728 0)
(-0.194806 -0.0847423 0)
(-0.195751 -0.100979 0)
(-0.196556 -0.117146 0)
(-0.19724 -0.133197 0)
(-0.197795 -0.149109 0)
(-0.198238 -0.164833 0)
(-0.198569 -0.180374 0)
(-0.198839 -0.195713 0)
(-0.199131 -0.21097 0)
(-0.199661 -0.226317 0)