/*--------------------------------*- C++ -*----------------------------------*\
| =========                 |                                                 |
| \\      /  F ield         | OpenFOAM: The Open Source CFD Toolbox           |
|  \\    /   O peration     | Version:  2406                                  |
|   \\  /    A nd           | Website:  www.openfoam.com                      |
|    \\/     M anipulation  |                                                 |
\*---------------------------------------------------------------------------*/
FoamFile
{
    version     2.0;
    format      ascii;
    arch        "LSB;label=32;scalar=64";
    class       surfaceScalarField;
    location    "3.5";
    object      phi;
}
// * * * * * * * * * * * * * * * * * * * * * * * * * * * * * * * * * * * * * //

dimensions      [0 3 -1 0 0 0 0];

oriented        oriented;

internalField   nonuniform List<scalar> 
7080
(
-1.70763e-08
1.70549e-08
-1.4448e-07
1.29886e-07
-3.51778e-07
2.0715e-07
-6.07061e-07
2.58037e-07
-8.86107e-07
2.79656e-07
-1.17362e-06
2.90155e-07
-1.46367e-06
2.91125e-07
-1.75178e-06
2.90528e-07
-2.03798e-06
2.87534e-07
-2.32075e-06
2.8497e-07
-2.60076e-06
2.81489e-07
-2.87695e-06
2.78217e-07
-3.14958e-06
2.74171e-07
-3.41762e-06
2.69933e-07
-3.68095e-06
2.64884e-07
-3.93854e-06
2.59358e-07
-4.18996e-06
2.52954e-07
-4.43417e-06
2.45855e-07
-4.67049e-06
2.37791e-07
-4.89783e-06
2.2885e-07
-5.11529e-06
2.18839e-07
-5.32172e-06
2.07795e-07
-5.51606e-06
1.95579e-07
-5.69706e-06
1.82203e-07
-5.86355e-06
1.67571e-07
-6.01424e-06
1.51691e-07
-6.14787e-06
1.3451e-07
-6.26314e-06
1.16051e-07
-6.3588e-06
9.63049e-08
-6.43359e-06
7.5326e-08
-6.48636e-06
5.31517e-08
-6.51599e-06
2.98814e-08
-6.52151e-06
5.60289e-09
-6.50202e-06
-1.95316e-08
-6.45687e-06
-4.53858e-08
-6.38549e-06
-7.17505e-08
-6.2876e-06
-9.84512e-08
-6.16307e-06
-1.25224e-07
-6.01211e-06
-1.51876e-07
-5.83503e-06
-1.78096e-07
-5.63258e-06
-2.03709e-07
-5.40553e-06
-2.28363e-07
-5.15519e-06
-2.51949e-07
-4.8827e-06
-2.74077e-07
-4.58987e-06
-2.94769e-07
-4.27808e-06
-3.1358e-07
-3.9496e-06
-3.30749e-07
-3.60582e-06
-3.4572e-07
-3.24933e-06
-3.59058e-07
-2.88139e-06
-3.6993e-07
-2.50496e-06
-3.79309e-07
-2.12132e-06
-3.85553e-07
-1.7347e-06
-3.89789e-07
-1.34847e-06
-3.87887e-07
-9.71968e-07
-3.7987e-07
-6.18007e-07
-3.55044e-07
-3.10626e-07
-3.10668e-07
-8.51793e-08
-2.25608e-07
2.23693e-08
-1.10323e-07
2.23144e-08
-1.32336e-07
1.46925e-07
-4.74267e-07
4.7189e-07
-9.67181e-07
6.95839e-07
-1.55422e-06
8.43644e-07
-2.19668e-06
9.1769e-07
-2.86377e-06
9.54855e-07
-3.54163e-06
9.64694e-07
-4.21904e-06
9.65091e-07
-4.89356e-06
9.58012e-07
-5.56119e-06
9.49553e-07
-6.22196e-06
9.38463e-07
-6.87355e-06
9.26679e-07
-7.51576e-06
9.128e-07
-8.14653e-06
8.97592e-07
-8.76511e-06
8.80082e-07
-9.36942e-06
8.60622e-07
-9.95818e-06
8.3855e-07
-1.05292e-05
8.13999e-07
-1.10809e-05
7.8649e-07
-1.16108e-05
7.56028e-07
-1.21169e-05
7.22249e-07
-1.25967e-05
6.85096e-07
-1.30478e-05
6.4429e-07
-1.34675e-05
5.9976e-07
-1.38533e-05
5.51312e-07
-1.42023e-05
4.98904e-07
-1.45119e-05
4.42437e-07
-1.47792e-05
3.8194e-07
-1.50015e-05
3.17428e-07
-1.51761e-05
2.49034e-07
-1.53006e-05
1.76909e-07
-1.53724e-05
1.01322e-07
-1.53895e-05
2.25734e-08
-1.535e-05
-5.89119e-08
-1.52522e-05
-1.42683e-07
-1.5095e-05
-2.28156e-07
-1.48776e-05
-3.1475e-07
-1.45997e-05
-4.01738e-07
-1.42614e-05
-4.88455e-07
-1.38633e-05
-5.74069e-07
-1.34068e-05
-6.57909e-07
-1.28934e-05
-7.39082e-07
-1.23255e-05
-8.17019e-07
-1.17054e-05
-8.90813e-07
-1.10367e-05
-9.60129e-07
-1.03223e-05
-1.02406e-06
-9.56664e-06
-1.08266e-06
-8.77301e-06
-1.13493e-06
-7.94655e-06
-1.18148e-06
-7.09072e-06
-1.22086e-06
-6.21183e-06
-1.25407e-06
-5.31425e-06
-1.27781e-06
-4.40791e-06
-1.29213e-06
-3.50259e-06
-1.28759e-06
-2.6198e-06
-1.25922e-06
-1.78656e-06
-1.18271e-06
-1.05031e-06
-1.04478e-06
-4.67479e-07
-8.03575e-07
-1.04654e-07
-4.73023e-07
-7.95562e-08
-2.1758e-07
3.64541e-07
-7.18552e-07
9.77145e-07
-1.41584e-06
1.39301e-06
-2.22974e-06
1.66175e-06
-3.11559e-06
1.80486e-06
-4.03377e-06
1.87703e-06
-4.9673e-06
1.90031e-06
-5.90096e-06
1.90247e-06
-6.83093e-06
1.89042e-06
-7.75147e-06
1.87355e-06
-8.66197e-06
1.85158e-06
-9.55919e-06
1.82713e-06
-1.04424e-05
1.79872e-06
-1.1309e-05
1.76716e-06
-1.21574e-05
1.73124e-06
-1.29852e-05
1.69123e-06
-1.37903e-05
1.64625e-06
-1.45699e-05
1.59629e-06
-1.53216e-05
1.54069e-06
-1.60424e-05
1.47931e-06
-1.67295e-05
1.4116e-06
-1.73795e-05
1.33738e-06
-1.79894e-05
1.2562e-06
-1.85556e-05
1.1679e-06
-1.90746e-05
1.07217e-06
-1.9543e-05
9.68907e-07
-1.99571e-05
8.57973e-07
-2.03133e-05
7.39405e-07
-2.06081e-05
6.1327e-07
-2.0838e-05
4.79807e-07
-2.09999e-05
3.39329e-07
-2.10905e-05
1.92329e-07
-2.11072e-05
3.93952e-08
-2.10475e-05
-1.18695e-07
-2.09096e-05
-2.8107e-07
-2.06917e-05
-4.46667e-07
-2.03931e-05
-6.14365e-07
-2.00132e-05
-7.82851e-07
-1.95523e-05
-9.50833e-07
-1.90113e-05
-1.11682e-06
-1.83919e-05
-1.27949e-06
-1.76959e-05
-1.43727e-06
-1.69266e-05
-1.58895e-06
-1.60871e-05
-1.73302e-06
-1.51818e-05
-1.8686e-06
-1.42147e-05
-1.99427e-06
-1.31913e-05
-2.10969e-06
-1.21161e-05
-2.21347e-06
-1.09958e-05
-2.30593e-06
-9.83504e-06
-2.3851e-06
-8.64217e-06
-2.45145e-06
-7.42334e-06
-2.50005e-06
-6.19176e-06
-2.52857e-06
-4.96032e-06
-2.52205e-06
-3.75701e-06
-2.46763e-06
-2.61447e-06
-2.32732e-06
-1.59274e-06
-2.07158e-06
-7.57226e-07
-1.63932e-06
-2.03158e-07
-1.03188e-06
-2.82784e-07
-2.78598e-07
6.40334e-07
-8.93611e-07
1.59386e-06
-1.7314e-06
2.2265e-06
-2.69536e-06
2.62585e-06
-3.73822e-06
2.84403e-06
-4.81607e-06
2.95393e-06
-5.91155e-06
2.99249e-06
-7.00723e-06
2.99662e-06
-8.09877e-06
2.97901e-06
-9.17915e-06
2.9521e-06
-1.02473e-05
2.91704e-06
-1.12992e-05
2.87707e-06
-1.23338e-05
2.83084e-06
-1.33478e-05
2.77914e-06
-1.43396e-05
2.72066e-06
-1.53058e-05
2.6555e-06
-1.62444e-05
2.58263e-06
-1.71519e-05
2.50188e-06
-1.80256e-05
2.41239e-06
-1.88619e-05
2.31386e-06
-1.96577e-05
2.20557e-06
-2.04091e-05
2.08719e-06
-2.11126e-05
1.95813e-06
-2.17643e-05
1.81808e-06
-2.23601e-05
1.66667e-06
-2.28961e-05
1.50371e-06
-2.33683e-05
1.32903e-06
-2.37725e-05
1.1427e-06
-2.41048e-05
9.44843e-07
-2.43615e-05
7.35836e-07
-2.45388e-05
5.1618e-07
-2.46333e-05
2.86629e-07
-2.46421e-05
4.8104e-08
-2.45625e-05
-1.98212e-07
-2.43922e-05
-4.50969e-07
-2.41298e-05
-7.08557e-07
-2.37742e-05
-9.69244e-07
-2.3325e-05
-1.23105e-06
-2.27827e-05
-1.49198e-06
-2.21483e-05
-1.7498e-06
-2.14239e-05
-2.00243e-06
-2.06117e-05
-2.24756e-06
-1.97155e-05
-2.48327e-06
-1.87389e-05
-2.70735e-06
-1.76871e-05
-2.91831e-06
-1.65645e-05
-3.11415e-06
-1.53777e-05
-3.2941e-06
-1.41318e-05
-3.45631e-06
-1.28344e-05
-3.60075e-06
-1.14912e-05
-3.72488e-06
-1.01117e-05
-3.82843e-06
-8.70311e-06
-3.90484e-06
-7.28059e-06
-3.94887e-06
-5.85816e-06
-3.94031e-06
-4.4669e-06
-3.85735e-06
-3.14057e-06
-3.64915e-06
-1.94486e-06
-3.26708e-06
-9.48985e-07
-2.6303e-06
-2.68078e-07
-1.71447e-06
-5.47688e-07
-3.10923e-07
9.50461e-07
-9.97342e-07
2.28495e-06
-1.92668e-06
3.15419e-06
-2.98895e-06
3.6919e-06
-4.13335e-06
3.98829e-06
-5.31271e-06
4.13642e-06
-6.50978e-06
4.19028e-06
-7.7061e-06
4.19563e-06
-8.89749e-06
4.17158e-06
-1.00762e-05
4.13325e-06
-1.12413e-05
4.08348e-06
-1.2388e-05
4.02598e-06
-1.35153e-05
3.95966e-06
-1.46194e-05
3.88526e-06
-1.56985e-05
3.80137e-06
-1.67491e-05
3.70796e-06
-1.77687e-05
3.60383e-06
-1.87538e-05
3.48863e-06
-1.97012e-05
3.36135e-06
-2.06073e-05
3.2215e-06
-2.14685e-05
3.06819e-06
-2.22809e-05
2.90091e-06
-2.30404e-05
2.71895e-06
-2.3743e-05
2.52187e-06
-2.43844e-05
2.30917e-06
-2.49603e-05
2.08061e-06
-2.54664e-05
1.836e-06
-2.58983e-05
1.57541e-06
-2.62519e-05
1.29906e-06
-2.6523e-05
1.00746e-06
-2.67078e-05
7.01314e-07
-2.68026e-05
3.81664e-07
-2.68042e-05
4.97928e-08
-2.67098e-05
-2.92676e-07
-2.65172e-05
-6.43869e-07
-2.62246e-05
-1.00158e-06
-2.5831e-05
-1.3634e-06
-2.53362e-05
-1.72663e-06
-2.47406e-05
-2.08848e-06
-2.40456e-05
-2.44592e-06
-2.32533e-05
-2.79604e-06
-2.23665e-05
-3.13571e-06
-2.13892e-05
-3.4622e-06
-2.03256e-05
-3.77258e-06
-1.91812e-05
-4.06466e-06
-1.79613e-05
-4.33587e-06
-1.66728e-05
-4.5849e-06
-1.53216e-05
-4.80948e-06
-1.39159e-05
-5.00913e-06
-1.24618e-05
-5.18086e-06
-1.09698e-05
-5.32347e-06
-9.44728e-06
-5.42899e-06
-7.91056e-06
-5.48899e-06
-6.37375e-06
-5.47829e-06
-4.8695e-06
-5.36543e-06
-3.43209e-06
-5.08676e-06
-2.13158e-06
-4.57197e-06
-1.04223e-06
-3.71813e-06
-2.93484e-07
-2.46841e-06
-8.40417e-07
-3.30665e-07
1.27833e-06
-1.06149e-06
3.0186e-06
-2.04784e-06
4.13628e-06
-3.17149e-06
4.81682e-06
-4.37857e-06
5.19217e-06
-5.61997e-06
5.37796e-06
-6.87865e-06
5.44639e-06
-8.13572e-06
5.45218e-06
-9.38734e-06
5.42103e-06
-1.06255e-05
5.3705e-06
-1.18491e-05
5.3052e-06
-1.30533e-05
5.22916e-06
-1.4237e-05
5.14162e-06
-1.53961e-05
5.04321e-06
-1.65287e-05
4.9325e-06
-1.76312e-05
4.80927e-06
-1.8701e-05
4.6722e-06
-1.97343e-05
4.52074e-06
-2.07279e-05
4.35372e-06
-2.16779e-05
4.17045e-06
-2.25808e-05
3.96988e-06
-2.34322e-05
3.75132e-06
-2.42281e-05
3.51391e-06
-2.49642e-05
3.25706e-06
-2.56361e-05
2.98016e-06
-2.62391e-05
2.6829e-06
-2.67688e-05
2.36505e-06
-2.72207e-05
2.02668e-06
-2.75902e-05
1.6681e-06
-2.7873e-05
1.28993e-06
-2.80651e-05
8.93098e-07
-2.81625e-05
4.78934e-07
-2.81618e-05
4.90942e-08
-2.80601e-05
-3.94336e-07
-2.78548e-05
-8.4893e-07
-2.75442e-05
-1.31185e-06
-2.71272e-05
-1.77996e-06
-2.66034e-05
-2.24979e-06
-2.59735e-05
-2.7177e-06
-2.52388e-05
-3.17977e-06
-2.44017e-05
-3.6322e-06
-2.34652e-05
-4.07096e-06
-2.24338e-05
-4.49246e-06
-2.1312e-05
-4.89296e-06
-2.01058e-05
-5.26953e-06
-1.8821e-05
-5.61896e-06
-1.74651e-05
-5.93938e-06
-1.60444e-05
-6.2281e-06
-1.4568e-05
-6.48416e-06
-1.30423e-05
-6.70419e-06
-1.14785e-05
-6.88605e-06
-9.88422e-06
-7.02051e-06
-8.27642e-06
-7.0959e-06
-6.66928e-06
-7.08227e-06
-5.09631e-06
-6.93823e-06
-3.59234e-06
-6.58698e-06
-2.23022e-06
-5.93519e-06
-1.0885e-06
-4.85515e-06
-3.0425e-07
-3.25549e-06
-1.14152e-06
-3.39516e-07
1.61652e-06
-1.09538e-06
3.7792e-06
-2.11607e-06
5.15446e-06
-3.27815e-06
5.98243e-06
-4.52497e-06
6.43799e-06
-5.80574e-06
6.6614e-06
-7.10333e-06
6.74385e-06
-8.39855e-06
6.74952e-06
-9.68791e-06
6.71079e-06
-1.09633e-05
6.64764e-06
-1.22238e-05
6.56643e-06
-1.34646e-05
6.47145e-06
-1.46844e-05
6.36228e-06
-1.58792e-05
6.23938e-06
-1.70471e-05
6.10133e-06
-1.81843e-05
5.94769e-06
-1.92882e-05
5.77702e-06
-2.03549e-05
5.58856e-06
-2.13812e-05
5.38099e-06
-2.23632e-05
5.15339e-06
-2.3297e-05
4.90455e-06
-2.41783e-05
4.63357e-06
-2.50031e-05
4.33942e-06
-2.57666e-05
4.02134e-06
-2.64644e-05
3.67861e-06
-2.70916e-05
3.31079e-06
-2.76436e-05
2.9176e-06
-2.81156e-05
2.4991e-06
-2.85027e-05
2.05563e-06
-2.88004e-05
1.58795e-06
-2.90043e-05
1.09717e-06
-2.91101e-05
5.84905e-07
-2.91142e-05
5.31908e-08
-2.90132e-05
-4.95416e-07
-2.88044e-05
-1.05791e-06
-2.84857e-05
-1.63078e-06
-2.80559e-05
-2.21012e-06
-2.75146e-05
-2.79161e-06
-2.68622e-05
-3.37068e-06
-2.61001e-05
-3.94247e-06
-2.5231e-05
-4.50214e-06
-2.42581e-05
-5.04471e-06
-2.3186e-05
-5.56559e-06
-2.20197e-05
-6.06016e-06
-2.07659e-05
-6.52465e-06
-1.94307e-05
-6.95518e-06
-1.80224e-05
-7.34924e-06
-1.65477e-05
-7.70375e-06
-1.50165e-05
-8.01723e-06
-1.34356e-05
-8.28601e-06
-1.18167e-05
-8.507e-06
-1.0168e-05
-8.66985e-06
-8.5069e-06
-8.75959e-06
-6.84778e-06
-8.74148e-06
-5.22519e-06
-8.56392e-06
-3.67518e-06
-8.13613e-06
-2.27336e-06
-7.34093e-06
-1.10231e-06
-6.02378e-06
-3.03202e-07
-4.0597e-06
-1.44342e-06
-3.45483e-07
1.95934e-06
-1.11697e-06
4.55411e-06
-2.15926e-06
6.19259e-06
-3.34608e-06
7.17119e-06
-4.61878e-06
7.70778e-06
-5.92546e-06
7.96889e-06
-7.24881e-06
8.06503e-06
-8.56951e-06
8.07035e-06
-9.88434e-06
8.02392e-06
-1.11852e-05
7.94819e-06
-1.24713e-05
7.85121e-06
-1.37379e-05
7.73749e-06
-1.49837e-05
7.60694e-06
-1.62048e-05
7.45983e-06
-1.73992e-05
7.29473e-06
-1.85632e-05
7.11096e-06
-1.9694e-05
6.90699e-06
-2.0788e-05
6.68182e-06
-2.18418e-05
6.43394e-06
-2.28512e-05
6.16222e-06
-2.38127e-05
5.86524e-06
-2.47216e-05
5.54189e-06
-2.55737e-05
5.19093e-06
-2.63643e-05
4.81141e-06
-2.70887e-05
4.40244e-06
-2.77418e-05
3.96344e-06
-2.83187e-05
3.49403e-06
-2.88142e-05
2.99422e-06
-2.92232e-05
2.46436e-06
-2.95408e-05
1.90529e-06
-2.97621e-05
1.3183e-06
-2.98825e-05
7.0525e-07
-2.98979e-05
6.85558e-08
-2.98045e-05
-5.88753e-07
-2.95992e-05
-1.26307e-06
-2.92796e-05
-1.95018e-06
-2.88441e-05
-2.64535e-06
-2.8292e-05
-3.34333e-06
-2.76237e-05
-4.03855e-06
-2.68405e-05
-4.72506e-06
-2.59452e-05
-5.3969e-06
-2.49411e-05
-6.048e-06
-2.38334e-05
-6.67265e-06
-2.26273e-05
-7.26524e-06
-2.13302e-05
-7.82102e-06
-1.99488e-05
-8.3354e-06
-1.84921e-05
-8.80514e-06
-1.69677e-05
-9.22676e-06
-1.5386e-05
-9.59826e-06
-1.37545e-05
-9.91573e-06
-1.20859e-05
-1.01752e-05
-1.03885e-05
-1.03652e-05
-8.6805e-06
-1.04675e-05
-6.97694e-06
-1.04425e-05
-5.31332e-06
-1.02282e-05
-3.72716e-06
-9.71904e-06
-2.29628e-06
-8.77363e-06
-1.10645e-06
-7.20921e-06
-3.00423e-07
-4.86911e-06
-1.74093e-06
-3.48565e-07
2.30626e-06
-1.13018e-06
5.34039e-06
-2.18739e-06
7.24683e-06
-3.39211e-06
8.37926e-06
-4.68412e-06
8.99829e-06
-6.01064e-06
9.29779e-06
-7.35402e-06
9.40779e-06
-8.69481e-06
9.41293e-06
-1.00299e-05
9.35898e-06
-1.13514e-05
9.27099e-06
-1.26586e-05
9.15867e-06
-1.39467e-05
9.02675e-06
-1.52148e-05
8.87543e-06
-1.64588e-05
8.70479e-06
-1.76769e-05
8.51337e-06
-1.88653e-05
8.30025e-06
-2.00216e-05
8.06377e-06
-2.11417e-05
7.80269e-06
-2.22225e-05
7.51529e-06
-2.32598e-05
7.2002e-06
-2.42499e-05
6.85578e-06
-2.5188e-05
6.48064e-06
-2.607e-05
6.07333e-06
-2.68907e-05
5.63266e-06
-2.76454e-05
5.15751e-06
-2.83287e-05
4.64711e-06
-2.89353e-05
4.10094e-06
-2.94597e-05
3.51891e-06
-2.98964e-05
2.90131e-06
-3.02399e-05
2.24903e-06
-3.0485e-05
1.56348e-06
-3.06264e-05
8.46749e-07
-3.06595e-05
1.01613e-07
-3.05798e-05
-6.68433e-07
-3.03839e-05
-1.45916e-06
-3.00686e-05
-2.26561e-06
-2.9632e-05
-3.08215e-06
-2.90731e-05
-3.90254e-06
-2.8392e-05
-4.72003e-06
-2.75899e-05
-5.52752e-06
-2.66696e-05
-6.31773e-06
-2.56347e-05
-7.08335e-06
-2.44907e-05
-7.81735e-06
-2.32434e-05
-8.51301e-06
-2.19008e-05
-9.16445e-06
-2.04705e-05
-9.76626e-06
-1.89623e-05
-1.03144e-05
-1.73847e-05
-1.08049e-05
-1.5749e-05
-1.12352e-05
-1.40638e-05
-1.16013e-05
-1.23422e-05
-1.18984e-05
-1.05935e-05
-1.21138e-05
-8.83677e-06
-1.22263e-05
-7.08782e-06
-1.21909e-05
-5.38346e-06
-1.19352e-05
-3.76299e-06
-1.13381e-05
-2.30654e-06
-1.02336e-05
-1.10255e-06
-8.41033e-06
-2.94484e-07
-5.68201e-06
-2.03379e-06
-3.51977e-07
2.65569e-06
-1.1422e-06
6.13438e-06
-2.2118e-06
8.31239e-06
-3.43146e-06
9.60123e-06
-4.73983e-06
1.0304e-05
-6.08347e-06
1.06426e-05
-7.44444e-06
1.07669e-05
-8.80322e-06
1.07722e-05
-1.01569e-05
1.07112e-05
-1.14973e-05
1.06116e-05
-1.28244e-05
1.04846e-05
-1.41331e-05
1.03354e-05
-1.54229e-05
1.01643e-05
-1.66895e-05
9.97117e-06
-1.79315e-05
9.7546e-06
-1.9145e-05
9.51338e-06
-2.03275e-05
9.24569e-06
-2.14753e-05
8.95002e-06
-2.2585e-05
8.62447e-06
-2.36525e-05
8.26735e-06
-2.4674e-05
7.87678e-06
-2.56448e-05
7.45107e-06
-2.65604e-05
6.98849e-06
-2.74156e-05
6.48755e-06
-2.82053e-05
5.94688e-06
-2.8924e-05
5.36545e-06
-2.95658e-05
4.74252e-06
-3.0125e-05
4.07781e-06
-3.05954e-05
3.37153e-06
-3.0971e-05
2.62453e-06
-3.1246e-05
1.83829e-06
-3.14144e-05
1.01508e-06
-3.14708e-05
1.57994e-07
-3.14101e-05
-7.29008e-07
-3.12282e-05
-1.64107e-06
-3.09212e-05
-2.57244e-06
-3.04867e-05
-3.51652e-06
-2.9923e-05
-4.46596e-06
-2.923e-05
-5.41273e-06
-2.84088e-05
-6.34837e-06
-2.7462e-05
-7.26411e-06
-2.63937e-05
-8.15117e-06
-2.52096e-05
-9.00102e-06
-2.39164e-05
-9.80561e-06
-2.25227e-05
-1.05577e-05
-2.10371e-05
-1.1251e-05
-1.94707e-05
-1.18804e-05
-1.78329e-05
-1.24416e-05
-1.61364e-05
-1.29315e-05
-1.43906e-05
-1.33458e-05
-1.261e-05
-1.36789e-05
-1.08047e-05
-1.39174e-05
-8.99483e-06
-1.40366e-05
-7.19728e-06
-1.39863e-05
-5.45024e-06
-1.36833e-05
-3.7949e-06
-1.29905e-05
-2.31353e-06
-1.17172e-05
-1.09687e-06
-9.62288e-06
-2.88402e-07
-6.49414e-06
-2.3195e-06
-3.54868e-07
3.00873e-06
-1.15309e-06
6.93722e-06
-2.23445e-06
9.39049e-06
-3.46838e-06
1.08384e-05
-4.79266e-06
1.16264e-05
-6.15317e-06
1.20054e-05
-7.53173e-06
1.21445e-05
-8.9087e-06
1.21508e-05
-1.02812e-05
1.20833e-05
-1.16413e-05
1.19729e-05
-1.29889e-05
1.18322e-05
-1.43193e-05
1.16667e-05
-1.56319e-05
1.14769e-05
-1.69227e-05
1.12627e-05
-1.81902e-05
1.10224e-05
-1.94308e-05
1.07546e-05
-2.06421e-05
1.04572e-05
-2.18201e-05
1.01286e-05
-2.29619e-05
9.76657e-06
-2.40632e-05
9.36909e-06
-2.51201e-05
8.93398e-06
-2.61279e-05
8.45924e-06
-2.7082e-05
7.94277e-06
-2.79769e-05
7.38276e-06
-2.88072e-05
6.77749e-06
-2.95671e-05
6.1256e-06
-3.02505e-05
5.42605e-06
-3.08508e-05
4.6783e-06
-3.13615e-05
3.88239e-06
-3.17759e-05
3.03902e-06
-3.20873e-05
2.14969e-06
-3.22889e-05
1.21678e-06
-3.23746e-05
2.43661e-07
-3.23383e-05
-7.65275e-07
-3.21749e-05
-1.80452e-06
-3.18799e-05
-2.86753e-06
-3.145e-05
-3.94661e-06
-3.08829e-05
-5.03321e-06
-3.0178e-05
-6.11783e-06
-2.93361e-05
-7.19046e-06
-2.836e-05
-8.24058e-06
-2.72537e-05
-9.2577e-06
-2.60237e-05
-1.02315e-05
-2.46772e-05
-1.11523e-05
-2.32241e-05
-1.20114e-05
-2.16742e-05
-1.28012e-05
-2.00398e-05
-1.35155e-05
-1.8332e-05
-1.41496e-05
-1.65647e-05
-1.46997e-05
-1.47489e-05
-1.51616e-05
-1.29002e-05
-1.55288e-05
-1.10303e-05
-1.57871e-05
-9.16021e-06
-1.59083e-05
-7.30838e-06
-1.58373e-05
-5.51454e-06
-1.54794e-05
-3.82188e-06
-1.46815e-05
-2.31496e-06
-1.32274e-05
-1.08662e-06
-1.08481e-05
-2.80025e-07
-7.30531e-06
-2.59773e-06
-3.58534e-07
3.36478e-06
-1.16531e-06
7.74798e-06
-2.25887e-06
1.048e-05
-3.50747e-06
1.20896e-05
-4.84808e-06
1.29644e-05
-6.22599e-06
1.33847e-05
-7.6228e-06
1.35395e-05
-9.01879e-06
1.35475e-05
-1.04112e-05
1.34745e-05
-1.17921e-05
1.33541e-05
-1.31617e-05
1.32009e-05
-1.45153e-05
1.30203e-05
-1.58525e-05
1.28134e-05
-1.71694e-05
1.25796e-05
-1.84648e-05
1.23172e-05
-1.97351e-05
1.20246e-05
-2.09779e-05
1.16996e-05
-2.21895e-05
1.134e-05
-2.33669e-05
1.09436e-05
-2.45059e-05
1.05078e-05
-2.56025e-05
1.00303e-05
-2.66519e-05
9.50847e-06
-2.76495e-05
8.94001e-06
-2.85895e-05
8.32261e-06
-2.94664e-05
7.65413e-06
-3.02738e-05
6.93281e-06
-3.10052e-05
6.1572e-06
-3.16534e-05
5.32641e-06
-3.22114e-05
4.44017e-06
-3.26714e-05
3.49897e-06
-3.3026e-05
2.50421e-06
-3.32676e-05
1.4583e-06
-3.33887e-05
3.64799e-07
-3.33825e-05
-7.715e-07
-3.32425e-05
-1.94445e-06
-3.29633e-05
-3.14665e-06
-3.25405e-05
-4.36928e-06
-3.19711e-05
-5.6024e-06
-3.12539e-05
-6.83486e-06
-3.03893e-05
-8.05485e-06
-2.93799e-05
-9.2498e-06
-2.823e-05
-1.04072e-05
-2.69468e-05
-1.15145e-05
-2.55384e-05
-1.25602e-05
-2.40159e-05
-1.35336e-05
-2.23907e-05
-1.44258e-05
-2.06769e-05
-1.52292e-05
-1.88873e-05
-1.59385e-05
-1.70377e-05
-1.65493e-05
-1.51409e-05
-1.70574e-05
-1.32142e-05
-1.74557e-05
-1.12708e-05
-1.77292e-05
-9.33313e-06
-1.78466e-05
-7.42125e-06
-1.77474e-05
-5.57655e-06
-1.73255e-05
-3.84434e-06
-1.64111e-05
-2.31142e-06
-1.47627e-05
-1.07264e-06
-1.20831e-05
-2.70189e-07
-8.11153e-06
-2.86544e-06
-3.62121e-07
3.72494e-06
-1.1779e-06
8.56839e-06
-2.28443e-06
1.15831e-05
-3.54859e-06
1.3357e-05
-4.90657e-06
1.43204e-05
-6.30302e-06
1.47833e-05
-7.71937e-06
1.49548e-05
-9.13577e-06
1.49654e-05
-1.05495e-05
1.48877e-05
-1.1953e-05
1.47586e-05
-1.33463e-05
1.4594e-05
-1.4725e-05
1.43999e-05
-1.60889e-05
1.41773e-05
-1.74343e-05
1.39256e-05
-1.87601e-05
1.36431e-05
-2.00628e-05
1.33278e-05
-2.13403e-05
1.29772e-05
-2.25889e-05
1.2589e-05
-2.38056e-05
1.21605e-05
-2.49864e-05
1.16889e-05
-2.61273e-05
1.11713e-05
-2.72234e-05
1.06049e-05
-2.82699e-05
9.98665e-06
-2.9261e-05
9.31391e-06
-3.01907e-05
8.58399e-06
-3.10523e-05
7.79459e-06
-3.18388e-05
6.94378e-06
-3.25425e-05
6.03017e-06
-3.31553e-05
5.05306e-06
-3.36688e-05
4.01259e-06
-3.40745e-05
2.90993e-06
-3.43636e-05
1.74739e-06
-3.45274e-05
5.28656e-07
-3.45577e-05
-7.41175e-07
-3.44469e-05
-2.05534e-06
-3.4188e-05
-3.40557e-06
-3.37756e-05
-4.78178e-06
-3.32055e-05
-6.17255e-06
-3.24757e-05
-7.56483e-06
-3.1586e-05
-8.9447e-06
-3.05388e-05
-1.02972e-05
-2.93389e-05
-1.16073e-05
-2.79938e-05
-1.28599e-05
-2.65131e-05
-1.40411e-05
-2.49094e-05
-1.51377e-05
-2.31959e-05
-1.61394e-05
-2.13889e-05
-1.70368e-05
-1.95034e-05
-1.78239e-05
-1.75579e-05
-1.84956e-05
-1.55671e-05
-1.9048e-05
-1.35506e-05
-1.94732e-05
-1.15233e-05
-1.9756e-05
-9.50952e-06
-1.98618e-05
-7.53103e-06
-1.97249e-05
-5.63108e-06
-1.92274e-05
-3.8572e-06
-1.81832e-05
-2.2985e-06
-1.63243e-05
-1.05162e-06
-1.33269e-05
-2.57096e-07
-8.91034e-06
-3.12067e-06
-3.66298e-07
4.08876e-06
-1.19179e-06
9.39803e-06
-2.31214e-06
1.26995e-05
-3.59284e-06
1.46403e-05
-4.96923e-06
1.56942e-05
-6.38535e-06
1.6201e-05
-7.82242e-06
1.63902e-05
-9.2605e-06
1.64043e-05
-1.06971e-05
1.63231e-05
-1.21245e-05
1.61865e-05
-1.35432e-05
1.60118e-05
-1.49489e-05
1.58057e-05
-1.63415e-05
1.55693e-05
-1.77177e-05
1.53018e-05
-1.90763e-05
1.50012e-05
-2.04141e-05
1.46655e-05
-2.17293e-05
1.4292e-05
-2.30182e-05
1.38778e-05
-2.42781e-05
1.342e-05
-2.55048e-05
1.29155e-05
-2.66945e-05
1.23608e-05
-2.78424e-05
1.17526e-05
-2.89434e-05
1.10874e-05
-2.99917e-05
1.0362e-05
-3.09808e-05
9.57298e-06
-3.19038e-05
8.71746e-06
-3.27531e-05
7.79286e-06
-3.35201e-05
6.79716e-06
-3.41963e-05
5.72907e-06
-3.4772e-05
4.58822e-06
-3.52374e-05
3.37537e-06
-3.55827e-05
2.09257e-06
-3.57975e-05
7.43508e-07
-3.58722e-05
-6.66523e-07
-3.57973e-05
-2.1302e-06
-3.55644e-05
-3.63839e-06
-3.51664e-05
-5.17968e-06
-3.45978e-05
-6.74099e-06
-3.38555e-05
-8.30708e-06
-3.29384e-05
-9.86161e-06
-3.18488e-05
-1.13867e-05
-3.05914e-05
-1.28644e-05
-2.91748e-05
-1.42763e-05
-2.76099e-05
-1.56057e-05
-2.5911e-05
-1.68365e-05
-2.40939e-05
-1.7956e-05
-2.21777e-05
-1.8953e-05
-2.01804e-05
-1.98207e-05
-1.81231e-05
-2.0553e-05
-1.60237e-05
-2.11466e-05
-1.39043e-05
-2.1593e-05
-1.1782e-05
-2.18772e-05
-9.68337e-06
-2.19612e-05
-7.632e-06
-2.17747e-05
-5.6731e-06
-2.11877e-05
-3.85652e-06
-1.99974e-05
-2.27354e-06
-1.79096e-05
-1.02234e-06
-1.45746e-05
-2.40715e-07
-9.69563e-06
-3.35909e-06
-3.70377e-07
4.4571e-06
-1.20603e-06
1.02384e-05
-2.34103e-06
1.38309e-05
-3.63925e-06
1.59418e-05
-5.0352e-06
1.70881e-05
-6.47219e-06
1.76401e-05
-7.93127e-06
1.78481e-05
-9.39241e-06
1.78669e-05
-1.08532e-05
1.77833e-05
-1.23061e-05
1.76404e-05
-1.37519e-05
1.74573e-05
-1.51863e-05
1.72409e-05
-1.66097e-05
1.69925e-05
-1.80186e-05
1.67113e-05
-1.94125e-05
1.63951e-05
-2.07881e-05
1.60416e-05
-2.21439e-05
1.56478e-05
-2.34764e-05
1.52107e-05
-2.47831e-05
1.47268e-05
-2.60599e-05
1.41926e-05
-2.73032e-05
1.36041e-05
-2.8508e-05
1.29576e-05
-2.96693e-05
1.22489e-05
-3.07811e-05
1.14739e-05
-3.18368e-05
1.06287e-05
-3.28289e-05
9.70965e-06
-3.37492e-05
8.71326e-06
-3.45887e-05
7.63673e-06
-3.53376e-05
6.47801e-06
-3.59853e-05
5.23598e-06
-3.65207e-05
3.91082e-06
-3.69322e-05
2.50411e-06
-3.7208e-05
1.01933e-06
-3.73363e-05
-5.38185e-07
-3.73059e-05
-2.16066e-06
-3.71062e-05
-3.83811e-06
-3.67281e-05
-5.55776e-06
-3.61644e-05
-7.3047e-06
-3.54104e-05
-9.06121e-06
-3.4464e-05
-1.08081e-05
-3.33268e-05
-1.2524e-05
-3.20039e-05
-1.41874e-05
-3.05046e-05
-1.57759e-05
-2.88413e-05
-1.72691e-05
-2.70309e-05
-1.86471e-05
-2.50923e-05
-1.98947e-05
-2.30477e-05
-2.09979e-05
-2.09192e-05
-2.19492e-05
-1.87316e-05
-2.27412e-05
-1.65064e-05
-2.33716e-05
-1.42689e-05
-2.38314e-05
-1.20392e-05
-2.41064e-05
-9.84603e-06
-2.41555e-05
-7.71534e-06
-2.39044e-05
-5.69432e-06
-2.32105e-05
-3.83509e-06
-2.18549e-05
-2.23097e-06
-1.95164e-05
-9.81212e-07
-1.58215e-05
-2.19426e-07
-1.04613e-05
-3.57669e-06
-3.74841e-07
4.82941e-06
-1.22113e-06
1.10889e-05
-2.37142e-06
1.49771e-05
-3.68799e-06
1.72611e-05
-5.10439e-06
1.85019e-05
-6.56323e-06
1.91006e-05
-8.04535e-06
1.93284e-05
-9.53062e-06
1.93531e-05
-1.10168e-05
1.92683e-05
-1.24965e-05
1.91206e-05
-1.39707e-05
1.89307e-05
-1.54354e-05
1.87058e-05
-1.68911e-05
1.84476e-05
-1.83348e-05
1.8155e-05
-1.9766e-05
1.78258e-05
-2.11819e-05
1.74574e-05
-2.2581e-05
1.70466e-05
-2.39603e-05
1.65899e-05
-2.53173e-05
1.60835e-05
-2.66483e-05
1.55235e-05
-2.79497e-05
1.49053e-05
-2.92167e-05
1.42245e-05
-3.04443e-05
1.34762e-05
-3.16262e-05
1.26557e-05
-3.27558e-05
1.17582e-05
-3.38252e-05
1.07789e-05
-3.48257e-05
9.71359e-06
-3.57473e-05
8.55833e-06
-3.65795e-05
7.31009e-06
-3.73103e-05
5.96677e-06
-3.79272e-05
4.52769e-06
-3.84168e-05
2.9937e-06
-3.87653e-05
1.36779e-06
-3.89586e-05
-3.44854e-07
-3.89831e-05
-2.13619e-06
-3.88257e-05
-3.9955e-06
-3.84748e-05
-5.90861e-06
-3.79208e-05
-7.85862e-06
-3.7157e-05
-9.825e-06
-3.61797e-05
-1.17853e-05
-3.49898e-05
-1.37138e-05
-3.35923e-05
-1.55848e-05
-3.19974e-05
-1.73707e-05
-3.02194e-05
-1.90468e-05
-2.82784e-05
-2.05882e-05
-2.61966e-05
-2.19762e-05
-2.40011e-05
-2.31935e-05
-2.17185e-05
-2.42314e-05
-1.93787e-05
-2.50812e-05
-1.70077e-05
-2.5742e-05
-1.46349e-05
-2.62045e-05
-1.22839e-05
-2.64565e-05
-9.98629e-06
-2.64538e-05
-7.77039e-06
-2.6119e-05
-5.6853e-06
-2.52967e-05
-3.78541e-06
-2.37529e-05
-2.16557e-06
-2.11383e-05
-9.25472e-07
-1.70586e-05
-1.92562e-07
-1.11975e-05
-3.76722e-06
-3.79073e-07
5.20643e-06
-1.23624e-06
1.1951e-05
-2.40241e-06
1.61397e-05
-3.73808e-06
1.86002e-05
-5.17585e-06
1.99375e-05
-6.65749e-06
2.05844e-05
-8.16366e-06
2.08334e-05
-9.67411e-06
2.0865e-05
-1.11868e-05
2.07803e-05
-1.26944e-05
2.06293e-05
-1.41983e-05
2.04342e-05
-1.56946e-05
2.02029e-05
-1.71841e-05
1.9937e-05
-1.86642e-05
1.96356e-05
-2.01346e-05
1.92963e-05
-2.15929e-05
1.89161e-05
-2.30379e-05
1.84916e-05
-2.44668e-05
1.80191e-05
-2.58776e-05
1.74943e-05
-2.72667e-05
1.69128e-05
-2.86307e-05
1.62694e-05
-2.99651e-05
1.5559e-05
-3.12649e-05
1.47761e-05
-3.25239e-05
1.39149e-05
-3.37352e-05
1.29696e-05
-3.48907e-05
1.19345e-05
-3.59811e-05
1.0804e-05
-3.69957e-05
9.57309e-06
-3.79229e-05
8.23737e-06
-3.87496e-05
6.79348e-06
-3.94614e-05
5.23953e-06
-4.00429e-05
3.57531e-06
-4.04781e-05
1.803e-06
-4.07502e-05
-7.27397e-08
-4.08426e-05
-2.04383e-06
-4.0739e-05
-4.09902e-06
-4.04249e-05
-6.22275e-06
-3.98875e-05
-8.39605e-06
-3.91173e-05
-1.05953e-05
-3.81086e-05
-1.2794e-05
-3.68609e-05
-1.49616e-05
-3.53787e-05
-1.7067e-05
-3.36734e-05
-1.90762e-05
-3.17615e-05
-2.09588e-05
-2.96665e-05
-2.26834e-05
-2.74157e-05
-2.42271e-05
-2.50416e-05
-2.55678e-05
-2.25773e-05
-2.66957e-05
-2.00588e-05
-2.76001e-05
-1.75182e-05
-2.82824e-05
-1.49899e-05
-2.87333e-05
-1.25022e-05
-2.89439e-05
-1.00895e-05
-2.88673e-05
-7.78295e-06
-2.84248e-05
-5.63335e-06
-2.74477e-05
-3.69703e-06
-2.56878e-05
-2.06973e-06
-2.27677e-05
-8.50592e-07
-1.82753e-05
-1.58369e-07
-1.1893e-05
-3.92399e-06
-3.83554e-07
5.58734e-06
-1.25178e-06
1.28235e-05
-2.43416e-06
1.73178e-05
-3.78943e-06
1.99582e-05
-5.24915e-06
2.13945e-05
-6.75423e-06
2.20911e-05
-8.28511e-06
2.23625e-05
-9.82144e-06
2.24023e-05
-1.13613e-05
2.2319e-05
-1.28977e-05
2.21662e-05
-1.44321e-05
2.19677e-05
-1.59611e-05
2.1732e-05
-1.74856e-05
2.1461e-05
-1.90034e-05
2.11534e-05
-2.05147e-05
2.0807e-05
-2.20172e-05
2.04185e-05
-2.35102e-05
1.99843e-05
-2.49914e-05
1.95002e-05
-2.6459e-05
1.89616e-05
-2.79099e-05
1.83635e-05
-2.93409e-05
1.77002e-05
-3.07479e-05
1.69659e-05
-3.2126e-05
1.6154e-05
-3.34691e-05
1.52579e-05
-3.47702e-05
1.42706e-05
-3.60211e-05
1.31852e-05
-3.72119e-05
1.19947e-05
-3.83313e-05
1.06925e-05
-3.93667e-05
9.27266e-06
-4.03034e-05
7.73016e-06
-4.11254e-05
6.06152e-06
-4.18151e-05
4.26499e-06
-4.23537e-05
2.3415e-06
-4.27212e-05
2.94769e-07
-4.28975e-05
-1.86751e-06
-4.28627e-05
-4.13385e-06
-4.25979e-05
-6.48749e-06
-4.20867e-05
-8.90734e-06
-4.13157e-05
-1.13662e-05
-4.02763e-05
-1.38334e-05
-3.89658e-05
-1.62721e-05
-3.73882e-05
-1.86446e-05
-3.55553e-05
-2.0909e-05
-3.34867e-05
-2.30274e-05
-3.12099e-05
-2.49601e-05
-2.87584e-05
-2.66784e-05
-2.61721e-05
-2.81541e-05
-2.34923e-05
-2.93754e-05
-2.07629e-05
-3.03294e-05
-1.80242e-05
-3.10208e-05
-1.53171e-05
-3.14406e-05
-1.26752e-05
-3.15853e-05
-1.01366e-05
-3.14063e-05
-7.73509e-06
-3.08254e-05
-5.52289e-06
-2.96607e-05
-3.55768e-06
-2.76516e-05
-1.93498e-06
-2.43919e-05
-7.52018e-07
-1.9456e-05
-1.15536e-07
-1.2532e-05
-4.03792e-06
-3.87602e-07
5.97291e-06
-1.26689e-06
1.37078e-05
-2.46579e-06
1.85131e-05
-3.84117e-06
2.13371e-05
-5.32343e-06
2.28747e-05
-6.8526e-06
2.36227e-05
-8.40885e-06
2.39176e-05
-9.97171e-06
2.39667e-05
-1.15395e-05
2.38861e-05
-1.31053e-05
2.37331e-05
-1.46709e-05
2.35331e-05
-1.62332e-05
2.32951e-05
-1.77937e-05
2.30213e-05
-1.93502e-05
2.27105e-05
-2.09034e-05
2.23602e-05
-2.24516e-05
2.19671e-05
-2.39945e-05
2.15273e-05
-2.55302e-05
2.10362e-05
-2.70573e-05
2.04889e-05
-2.85733e-05
1.98797e-05
-3.00755e-05
1.92025e-05
-3.15599e-05
1.84505e-05
-3.30222e-05
1.76163e-05
-3.44564e-05
1.66922e-05
-3.58558e-05
1.56701e-05
-3.72117e-05
1.45412e-05
-3.85142e-05
1.32973e-05
-3.97513e-05
1.19297e-05
-4.09093e-05
1.04307e-05
-4.19722e-05
8.79315e-06
-4.29221e-05
7.01144e-06
-4.37388e-05
5.08178e-06
-4.44005e-05
3.00324e-06
-4.48837e-05
7.77985e-07
-4.51639e-05
-1.58724e-06
-4.52166e-05
-4.0812e-06
-4.50178e-05
-6.68624e-06
-4.45459e-05
-9.37928e-06
-4.37827e-05
-1.21294e-05
-4.27154e-05
-1.49007e-05
-4.13381e-05
-1.76494e-05
-3.96532e-05
-2.03295e-05
-3.76733e-05
-2.2889e-05
-3.54205e-05
-2.52802e-05
-3.2928e-05
-2.74527e-05
-3.0237e-05
-2.93696e-05
-2.73967e-05
-3.09944e-05
-2.44593e-05
-3.23129e-05
-2.14796e-05
-3.33092e-05
-1.85082e-05
-3.39923e-05
-1.55943e-05
-3.43546e-05
-1.27784e-05
-3.44011e-05
-1.01028e-05
-3.40823e-05
-7.60376e-06
-3.3324e-05
-5.33401e-06
-3.19312e-05
-3.35166e-06
-2.96331e-05
-1.75039e-06
-2.59945e-05
-6.23614e-07
-2.05812e-05
-6.19228e-08
-1.3096e-05
-4.09868e-06
-3.91837e-07
6.36195e-06
-1.28212e-06
1.46024e-05
-2.49753e-06
1.9724e-05
-3.89314e-06
2.27355e-05
-5.39815e-06
2.43768e-05
-6.95162e-06
2.51777e-05
-8.53347e-06
2.54975e-05
-1.01231e-05
2.55571e-05
-1.1719e-05
2.54807e-05
-1.33144e-05
2.53289e-05
-1.49116e-05
2.51292e-05
-1.65076e-05
2.48913e-05
-1.81044e-05
2.46174e-05
-1.97002e-05
2.43063e-05
-2.12963e-05
2.39557e-05
-2.28912e-05
2.3562e-05
-2.44853e-05
2.3121e-05
-2.60772e-05
2.2628e-05
-2.76663e-05
2.20776e-05
-2.92503e-05
2.14636e-05
-3.08273e-05
2.07792e-05
-3.23939e-05
2.00169e-05