/*--------------------------------*- C++ -*----------------------------------*\
| =========                 |                                                 |
| \\      /  F ield         | OpenFOAM: The Open Source CFD Toolbox           |
|  \\    /   O peration     | Version:  2406                                  |
|   \\  /    A nd           | Website:  www.openfoam.com                      |
|    \\/     M anipulation  |                                                 |
\*---------------------------------------------------------------------------*/
FoamFile
{
    version     2.0;
    format      ascii;
    arch        "LSB;label=32;scalar=64";
    class       surfaceScalarField;
    location    "41.7";
    object      phi_0;
}
// * * * * * * * * * * * * * * * * * * * * * * * * * * * * * * * * * * * * * //

dimensions      [0 3 -1 0 0 0 0];

oriented        oriented;

internalField   nonuniform List<scalar> 
28560
(
-4.50281e-09
4.48776e-09
4.77101e-08
-5.22128e-08
1.73813e-07
-1.26103e-07
3.61529e-07
-1.87717e-07
5.92433e-07
-2.30904e-07
8.46918e-07
-2.54485e-07
1.10679e-06
-2.59871e-07
1.35661e-06
-2.49821e-07
1.58448e-06
-2.27871e-07
1.78237e-06
-1.97884e-07
1.94605e-06
-1.63683e-07
2.07478e-06
-1.2873e-07
2.17065e-06
-9.58754e-08
2.23785e-06
-6.72007e-08
2.28181e-06
-4.39514e-08
2.30837e-06
-2.65684e-08
2.32321e-06
-1.48312e-08
2.33075e-06
-7.54259e-09
2.33423e-06
-3.48486e-09
2.3352e-06
-9.67936e-10
2.33372e-06
1.48012e-09
2.32827e-06
5.45552e-09
2.3158e-06
1.24666e-08
2.29232e-06
2.34832e-08
2.25313e-06
3.91816e-08
2.19319e-06
5.99442e-08
2.10725e-06
8.59419e-08
1.99002e-06
1.1723e-07
1.83618e-06
1.53835e-07
1.64038e-06
1.95804e-07
1.39715e-06
2.43229e-07
1.10093e-06
2.9622e-07
7.46056e-07
3.54874e-07
3.26832e-07
4.19223e-07
-1.62356e-07
4.89189e-07
-7.269e-07
5.64544e-07
-1.37179e-06
6.44886e-07
-2.1014e-06
7.29616e-07
-2.91933e-06
8.17931e-07
-3.82815e-06
9.08815e-07
-4.82919e-06
1.00104e-06
-5.92239e-06
1.0932e-06
-7.10609e-06
1.18369e-06
-8.37685e-06
1.27076e-06
-9.72939e-06
1.35254e-06
-1.11565e-05
1.42709e-06
-1.26489e-05
1.4924e-06
-1.41954e-05
1.54651e-06
-1.57829e-05
1.58746e-06
-1.73963e-05
1.61342e-06
-1.90189e-05
1.62265e-06
-2.06325e-05
1.6136e-06
-2.22174e-05
1.5849e-06
-2.37528e-05
1.53539e-06
-2.5217e-05
1.46418e-06
-2.65876e-05
1.37061e-06
-2.78419e-05
1.25433e-06
-2.89572e-05
1.11531e-06
-2.99111e-05
9.53908e-07
-3.0682e-05
7.70819e-07
-3.12498e-05
5.6786e-07
-3.15956e-05
3.45776e-07
-3.1699e-05
1.03398e-07
-3.15468e-05
-1.52179e-07
-3.11294e-05
-4.17401e-07
-3.04376e-05
-6.91809e-07
-2.94673e-05
-9.70331e-07
-2.8219e-05
-1.24827e-06
-2.66985e-05
-1.52052e-06
-2.49168e-05
-1.78165e-06
-2.28909e-05
-2.02595e-06
-2.06433e-05
-2.24763e-06
-1.82023e-05
-2.44095e-06
-1.56018e-05
-2.6005e-06
-1.28804e-05
-2.72138e-06
-1.00809e-05
-2.79949e-06
-7.2492e-06
-2.83173e-06
-4.43292e-06
-2.81628e-06
-1.68021e-06
-2.7527e-06
9.61898e-07
-2.64211e-06
3.4491e-06
-2.4872e-06
5.74127e-06
-2.29218e-06
7.80395e-06
-2.06267e-06
9.60943e-06
-1.80549e-06
1.11377e-05
-1.52829e-06
1.2377e-05
-1.2393e-06
1.33239e-05
-9.46876e-07
1.3983e-05
-6.59145e-07
1.43667e-05
-3.83671e-07
1.44948e-05
-1.28074e-07
1.4389e-05
1.05813e-07
1.40768e-05
3.12148e-07
1.35917e-05
4.85176e-07
1.29653e-05
6.26381e-07
1.22289e-05
7.36405e-07
1.1413e-05
8.15824e-07
1.05462e-05
8.66805e-07
9.654e-06
8.92237e-07
8.75849e-06
8.95506e-07
7.87824e-06
8.80253e-07
7.02808e-06
8.50157e-07
6.21932e-06
8.08766e-07
5.45995e-06
7.59366e-07
4.75506e-06
7.04894e-07
4.10717e-06
6.47891e-07
3.51668e-06
5.90486e-07
2.98228e-06
5.34406e-07
2.50128e-06
4.80992e-07
2.07008e-06
4.31202e-07
1.68449e-06
3.85591e-07
1.34023e-06
3.44256e-07
1.03349e-06
3.06746e-07
7.61535e-07
2.71953e-07
5.23493e-07
2.38042e-07
3.21022e-07
2.02471e-07
1.58699e-07
1.62323e-07
4.35384e-08
1.1516e-07
-1.74246e-08
6.0963e-08
-2.38001e-08
6.37534e-09
-2.38002e-08
4.94715e-08
-4.49836e-08
2.4435e-07
-2.47092e-07
5.94869e-07
-4.76622e-07
1.0758e-06
-6.68643e-07
1.64922e-06
-8.04323e-07
2.27342e-06
-8.78692e-07
2.90834e-06
-8.94789e-07
3.51897e-06
-8.6045e-07
4.07748e-06
-7.86377e-07
4.56421e-06
-6.84618e-07
4.96783e-06
-5.67308e-07
5.28469e-06
-4.45589e-07
5.51759e-06
-3.28771e-07
5.67416e-06
-2.23768e-07
5.76503e-06
-1.34828e-07
5.80199e-06
-6.35273e-08
5.79625e-06
-9.0918e-09
5.75704e-06
3.16657e-08
5.69052e-06
6.30419e-08
5.59913e-06
9.04245e-08
5.48117e-06
1.19437e-07
5.33118e-06
1.55446e-07
5.14054e-06
2.03104e-07
4.89802e-06
2.66e-07
4.59059e-06
3.46612e-07
4.2041e-06
4.46434e-07
3.72384e-06
5.66208e-07
3.13486e-06
7.06206e-07
2.42222e-06
8.6648e-07
1.57101e-06
1.04701e-06
5.6648e-07
1.24776e-06
-6.05856e-07
1.46856e-06
-1.96001e-06
1.70903e-06
-3.5092e-06
1.96841e-06
-5.26538e-06
2.24538e-06
-7.23882e-06
2.53798e-06
-9.43748e-06
2.84355e-06
-1.18665e-05
3.15864e-06
-1.45276e-05
3.47907e-06
-1.74188e-05
3.79994e-06
-2.05334e-05
4.11571e-06
-2.38605e-05
4.42031e-06
-2.73841e-05
4.70725e-06
-3.10832e-05
4.96981e-06
-3.49318e-05
5.20123e-06
-3.88996e-05
5.39483e-06
-4.29514e-05
5.54426e-06
-4.70486e-05
5.64364e-06
-5.11488e-05
5.6877e-06
-5.52073e-05
5.67191e-06
-5.91772e-05
5.59258e-06
-6.30105e-05
5.44689e-06
-6.66586e-05
5.23299e-06
-7.00731e-05
4.94991e-06
-7.32066e-05
4.59767e-06
-7.60132e-05
4.17718e-06
-7.84491e-05
3.69026e-06
-8.04734e-05
3.13962e-06
-8.20485e-05
2.52892e-06
-8.31404e-05
1.86275e-06
-8.37191e-05
1.14658e-06
-8.37609e-05
3.87604e-07
-8.32479e-05
-4.09675e-07
-8.21638e-05
-1.23621e-06
-8.05016e-05
-2.07962e-06
-7.8262e-05
-2.93142e-06
-7.54519e-05
-3.7804e-06
-7.20861e-05
-4.61415e-06
-6.81871e-05
-5.4195e-06
-6.3786e-05
-6.18274e-06
-5.89222e-05
-6.88974e-06
-5.36435e-05
-7.5263e-06
-4.80059e-05
-8.07855e-06
-4.2073e-05
-8.5334e-06
-3.59154e-05
-8.87899e-06
-2.96096e-05
-9.10528e-06
-2.32369e-05
-9.20449e-06
-1.68815e-05
-9.17164e-06
-1.06293e-05
-9.00496e-06
-4.56518e-06
-8.70618e-06
1.22837e-06
-8.28075e-06
6.67401e-06
-7.73782e-06
1.17014e-05
-7.09007e-06
1.62493e-05
-6.35341e-06
2.02675e-05
-5.54641e-06
2.37178e-05
-4.68964e-06
2.65758e-05
-3.80489e-06
2.88309e-05
-2.91428e-06
3.04868e-05
-2.03949e-06
3.15594e-05
-1.20068e-06
3.20799e-05
-4.14663e-07
3.20903e-05
3.01726e-07
3.16403e-05
9.35196e-07
3.07864e-05
1.48023e-06
2.95915e-05
1.93133e-06
2.81199e-05
2.28743e-06
2.64357e-05
2.55093e-06
2.46008e-05
2.72718e-06
2.26724e-05
2.8239e-06
2.07021e-05
2.85054e-06
1.87347e-05
2.81762e-06
1.68073e-05
2.7361e-06
1.49499e-05
2.61682e-06
1.31847e-05
2.47003e-06
1.15275e-05
2.3051e-06
9.98773e-06
2.13027e-06
8.56958e-06
1.95255e-06
7.27293e-06
1.77764e-06
6.09428e-06
1.60986e-06
5.02781e-06
1.45205e-06
4.06667e-06
1.3054e-06
3.20426e-06
1.16915e-06
2.43581e-06
1.04041e-06
1.75986e-06
9.13992e-07
1.1796e-06
7.82725e-07
7.0336e-07
6.38567e-07
3.4336e-07
4.7516e-07
1.11339e-07
2.92984e-07
9.51996e-09
1.08195e-07
-1.42803e-08
1.18471e-07
-1.63454e-07
4.62039e-07
-5.9066e-07
1.00874e-06
-1.02332e-06
1.72061e-06
-1.38051e-06
2.54784e-06
-1.63156e-06
3.43617e-06
-1.76702e-06
4.33292e-06
-1.79154e-06
5.19145e-06
-1.71898e-06
5.97399e-06
-1.56892e-06
6.65317e-06
-1.36379e-06
7.21228e-06
-1.12642e-06
7.64458e-06
-8.7789e-07
7.95176e-06
-6.35951e-07
8.14188e-06
-4.13888e-07
8.22699e-06
-2.19936e-07
8.22064e-06
-5.71833e-08
8.13561e-06
7.59408e-08
7.98204e-06
1.85236e-07
7.7657e-06
2.79383e-07
7.48721e-06
3.68918e-07
7.14163e-06
4.65012e-07
6.71877e-06
5.7831e-07
6.20384e-06
7.18031e-07
5.57843e-06
8.91406e-07
4.82154e-06
1.1035e-06
3.91057e-06
1.35741e-06
2.82213e-06
1.65465e-06
1.53266e-06
1.99568e-06
1.88237e-08
2.38032e-06
-1.7421e-06
2.80794e-06
-3.77188e-06
3.27753e-06
-6.09085e-06
3.78753e-06
-8.71734e-06
4.33552e-06
-1.16669e-05
4.91799e-06
-1.49516e-05
5.53006e-06
-1.85789e-05
6.16531e-06
-2.25511e-05
6.81573e-06
-2.68642e-05
7.47176e-06
-3.15075e-05
8.12237e-06
-3.6463e-05
8.75536e-06
-4.17048e-05
9.3576e-06
-4.71999e-05
9.91542e-06
-5.29077e-05
1.0415e-05
-5.87809e-05
1.0843e-05
-6.47661e-05
1.11865e-05
-7.08054e-05
1.14341e-05
-7.68367e-05
1.15756e-05
-8.27957e-05
1.16027e-05
-8.8617e-05
1.1509e-05
-9.42351e-05
1.12901e-05
-9.95861e-05
1.09435e-05
-0.000104608
1.04689e-05
-0.000109242
9.86739e-06
-0.000113435
9.14204e-06
-0.000117134
8.29723e-06
-0.000120296
7.33871e-06
-0.000122879
6.2734e-06
-0.000124848
5.1093e-06
-0.000126175
3.85543e-06
-0.000126834
2.52183e-06
-0.000126807
1.11944e-06
-0.000126079
-3.3992e-07
-0.000124647
-1.84204e-06
-0.000122508
-3.37524e-06
-0.000119666
-4.92189e-06
-0.000116132
-6.46549e-06
-0.000111924
-7.98836e-06
-0.000107066
-9.47141e-06
-0.000101592
-1.08944e-05
-9.55379e-05
-1.22364e-05
-8.8952e-05
-1.34756e-05
-8.18878e-05
-1.45905e-05
-7.44067e-05
-1.55596e-05
-6.65775e-05
-1.63627e-05
-5.84754e-05
-1.69811e-05
-5.0182e-05
-1.73986e-05
-4.17841e-05
-1.76025e-05
-3.33721e-05
-1.75836e-05
-2.50393e-05
-1.73378e-05
-1.68796e-05
-1.68659e-05
-8.98598e-06
-1.61743e-05
-1.44851e-06
-1.52753e-05
5.64793e-06
-1.41865e-05
1.22255e-05
-1.2931e-05
1.82153e-05
-1.15363e-05
2.35595e-05
-1.00338e-05
2.82123e-05
-8.45771e-06
3.21418e-05
-6.84379e-06
3.53304e-05
-5.22813e-06
3.77756e-05
-3.6458e-06
3.94909e-05
-2.12995e-06
4.0504e-05
-7.11433e-07
4.08548e-05
5.84417e-07
4.05961e-05
1.73891e-06
3.97921e-05
2.7353e-06
3.85142e-05
3.56538e-06
3.68388e-05
4.22635e-06
3.48447e-05
4.72129e-06
3.26101e-05
5.05848e-06
3.021e-05
5.25064e-06
2.77138e-05
5.31386e-06
2.51834e-05
5.26652e-06
2.2672e-05
5.12814e-06
2.02237e-05
4.91837e-06
1.78728e-05
4.65604e-06
1.56445e-05
4.35857e-06
1.35556e-05
4.04137e-06
1.16158e-05
3.7175e-06
9.82828e-06
3.39737e-06
8.19194e-06
3.08839e-06
6.70276e-06
2.79458e-06
5.3558e-06
2.51611e-06
4.14725e-06
2.24896e-06
3.07643e-06
1.98482e-06
2.14735e-06
1.7118e-06
1.36938e-06
1.41654e-06
7.56117e-07
1.08842e-06
3.21599e-07
7.27502e-07
7.32772e-08
3.56517e-07
5.8997e-08
1.75851e-07
-3.39305e-07
6.46267e-07
-1.06108e-06
1.3575e-06
-1.73455e-06
2.25367e-06
-2.27668e-06
3.27271e-06
-2.6506e-06
4.35049e-06
-2.8448e-06
5.42586e-06
-2.86691e-06
6.44487e-06
-2.73799e-06
7.36375e-06
-2.4878e-06
8.15045e-06
-2.15049e-06
8.78485e-06
-1.76081e-06
9.25788e-06
-1.35092e-06
9.56979e-06
-9.4786e-07
9.72773e-06
-5.71831e-07
9.74307e-06
-2.35274e-07
9.62858e-06
5.73092e-08
9.39569e-06
3.08824e-07
9.05242e-06
5.2851e-07
8.60147e-06
7.30336e-07
8.03924e-06
9.31144e-07
7.35554e-06
1.14871e-06
6.53391e-06
1.39994e-06
5.55251e-06
1.69943e-06
4.38535e-06
2.05857e-06
3.00357e-06
2.48528e-06
1.37674e-06
2.98424e-06
-5.26117e-07
3.5575e-06
-2.73559e-06
4.20516e-06
-5.28114e-06
4.92586e-06
-8.19032e-06
5.71712e-06
-1.1488e-05
6.57519e-06
-1.51952e-05
7.4948e-06
-1.93285e-05
8.46878e-06
-2.38981e-05
9.48762e-06
-2.89073e-05
1.05392e-05
-3.43509e-05
1.16089e-05
-4.02146e-05
1.26794e-05
-4.64739e-05
1.37311e-05
-5.30946e-05
1.4743e-05
-6.0032e-05
1.56928e-05
-6.72322e-05
1.65578e-05
-7.46329e-05
1.73161e-05
-8.21647e-05
1.79469e-05
-8.97534e-05
1.84316e-05
-9.73211e-05
1.87542e-05
-0.000104789
1.89019e-05
-0.000112079
1.88653e-05
-0.000119114
1.86384e-05
-0.000125824
1.82188e-05
-0.000132141
1.76071e-05
-0.000138004
1.68066e-05
-0.000143359
1.58232e-05
-0.000148156
1.46647e-05
-0.000152354
1.33406e-05
-0.000155919
1.18614e-05
-0.000158819
1.02388e-05
-0.000161031
8.48531e-06
-0.000162535
6.61401e-06
-0.000163318
4.63865e-06
-0.00016337
2.57359e-06
-0.000162685
4.34003e-07
-0.00016126
-1.76446e-06
-0.000159098
-4.00427e-06
-0.000156206
-6.26776e-06
-0.000152592
-8.53517e-06
-0.000148272
-1.07853e-05
-0.000143265
-1.29957e-05
-0.000137594
-1.51421e-05
-0.00013129
-1.71988e-05
-0.000124387
-1.9139e-05
-0.000116928
-2.09346e-05
-0.000108962
-2.25572e-05
-0.000100543
-2.39786e-05
-9.1734e-05
-2.51714e-05
-8.26051e-05
-2.611e-05
-7.32321e-05
-2.67717e-05
-6.3697e-05
-2.71376e-05
-5.4087e-05
-2.71936e-05
-4.44931e-05
-2.69317e-05
-3.50089e-05
-2.63501e-05
-2.57286e-05
-2.54546e-05
-1.67456e-05
-2.42583e-05
-8.15023e-06
-2.27819e-05
-2.79577e-08
-2.10532e-05
7.54241e-06
-1.91066e-05
1.44905e-05
-1.69819e-05
2.0756e-05
-1.47232e-05
2.62899e-05
-1.23777e-05
3.10558e-05
-9.99403e-06
3.50308e-05
-7.62081e-06
3.82062e-05
-5.30533e-06
4.05869e-05
-3.09214e-06
4.21925e-05
-1.02116e-06
4.3058e-05
8.73361e-07
4.32305e-05
2.56287e-06
4.27692e-05
4.0266e-06
4.17439e-05
5.25169e-06
4.02317e-05
6.23343e-06
3.83151e-05
6.97511e-06
3.60783e-05
7.48748e-06
3.36044e-05
7.78776e-06
3.09726e-05
7.89833e-06
2.82555e-05
7.84524e-06
2.55173e-05
7.65656e-06
2.28124e-05
7.36089e-06
2.01851e-05
6.98594e-06
1.7669e-05
6.55743e-06
1.52884e-05
6.09809e-06
1.30589e-05
5.62685e-06
1.09892e-05
5.15812e-06
9.08275e-06
4.70102e-06
7.34023e-06
4.25863e-06
5.76175e-06
3.82744e-06
4.3492e-06
3.39736e-06
3.10829e-06
2.95271e-06
2.04973e-06
2.4751e-06
1.18935e-06
1.94881e-06
5.46711e-07
1.37014e-06
1.42897e-07
7.60331e-07
2.01894e-07
2.20011e-07
-5.59316e-07
7.91591e-07
-1.63266e-06
1.63475e-06
-2.57771e-06
2.6744e-06
-3.31634e-06
3.83501e-06
-3.8112e-06
5.04278e-06
-4.05258e-06
6.22951e-06
-4.05363e-06
7.33612e-06
-3.84461e-06
8.31526e-06
-3.46694e-06
9.1324e-06
-2.96763e-06
9.76577e-06
-2.39418e-06
1.02051e-05
-1.79022e-06
1.04494e-05
-1.19215e-06
1.05044e-05
-6.26884e-07
1.03797e-05
-1.10537e-07
1.00853e-05
3.51729e-07
9.62908e-06
7.64998e-07
9.01455e-06
1.14304e-06
8.23878e-06
1.50611e-06
7.29165e-06
1.87826e-06
6.15572e-06
2.28465e-06
4.80676e-06
2.7489e-06
3.21503e-06
3.29116e-06
1.34675e-06
3.92685e-06
-8.34267e-07
4.66629e-06
-3.36505e-06
5.51502e-06
-6.28208e-06
6.47454e-06
-9.62004e-06
7.54311e-06
-1.34105e-05
8.71637e-06
-1.76809e-05
9.98746e-06
-2.24526e-05
1.13469e-05
-2.77398e-05
1.27821e-05
-3.3548e-05
1.42769e-05
-3.9872e-05
1.58117e-05
-4.66953e-05
1.73625e-05
-5.39887e-05
1.89023e-05
-6.17104e-05
2.04011e-05
-6.98061e-05
2.18268e-05
-7.82099e-05
2.31468e-05
-8.68462e-05
2.43291e-05
-9.56317e-05
2.53433e-05
-0.000104478
2.61625e-05
-0.000113295
2.67635e-05
-0.000121992
2.71284e-05
-0.000130481
2.7244e-05
-0.000138682
2.71029e-05
-0.000146519
2.67023e-05
-0.000153925
2.60443e-05
-0.000160841
2.51347e-05
-0.000167217
2.39828e-05
-0.00017301
2.25999e-05
-0.000178187
2.09997e-05
-0.000182719
1.91967e-05
-0.000186584
1.72062e-05
-0.000189767
1.50439e-05
-0.000192254
1.27258e-05
-0.000194036
1.02677e-05
-0.000195108
7.68543e-06
-0.000195464
4.9951e-06
-0.000195104
2.21298e-06
-0.000194025
-6.44094e-07
-0.000192231
-3.55868e-06
-0.000189723
-6.51203e-06
-0.000186507
-9.48406e-06
-0.000182589
-1.2453e-05
-0.00017798
-1.53951e-05
-0.000172691
-1.82847e-05
-0.000166739
-2.10937e-05
-0.000160146
-2.3792e-05
-0.000152937
-2.63474e-05
-0.000145146
-2.8726e-05
-0.00013681
-3.08928e-05
-0.000127977
-3.28125e-05
-0.000118698
-3.445e-05
-0.000109036
-3.57722e-05
-9.90586e-05
-3.67487e-05
-8.8843e-05
-3.73532e-05
-7.84715e-05
-3.75651e-05
-6.80323e-05
-3.73708e-05
-5.76178e-05
-3.67646e-05
-4.73227e-05
-3.57497e-05
-3.72423e-05
-3.43386e-05
-2.74707e-05
-3.25535e-05
-1.80982e-05
-3.04257e-05
-9.21005e-06
-2.79948e-05
-8.84203e-07
-2.53077e-05
6.80979e-06
-2.24172e-05
1.38122e-05
-1.93801e-05
2.0074e-05
-1.62558e-05
2.55576e-05
-1.31044e-05
3.02374e-05
-9.98518e-06
3.41003e-05
-6.95499e-06
3.71459e-05
-4.06682e-06
3.93877e-05
-1.3684e-06
4.08517e-05
1.09881e-06
4.15774e-05
3.30089e-06
4.16167e-05
5.21248e-06
4.10325e-05
6.8176e-06
3.98976e-05
8.11003e-06
3.82917e-05
9.09338e-06
3.62988e-05
9.78059e-06
3.40043e-05
1.01929e-05
3.14912e-05
1.03583e-05
2.88379e-05
1.03099e-05
2.61152e-05
1.00836e-05
2.33849e-05
9.71629e-06
2.06984e-05
9.24394e-06
1.80967e-05
8.69977e-06
1.56108e-05
8.11275e-06
1.32627e-05
7.50624e-06
1.10671e-05
6.8966e-06
9.03367e-06
6.29203e-06
7.16944e-06
5.69168e-06
5.4813e-06
5.0855e-06
3.97863e-06
4.45539e-06
2.67541e-06
3.77832e-06
1.59198e-06
3.03223e-06
7.5661e-07
2.20551e-06
2.0755e-07
1.30939e-06
4.09444e-07
2.53394e-07
-8.1271e-07
9.03373e-07
-2.28264e-06
1.8486e-06
-3.52293e-06
2.9954e-06
-4.46314e-06
4.25411e-06
-5.06992e-06
5.54091e-06
-5.33938e-06
6.7809e-06
-5.29362e-06
7.91096e-06
-4.97467e-06
8.88165e-06
-4.43762e-06
9.65763e-06
-3.74362e-06
1.02169e-05
-2.95348e-06
1.0549e-05
-2.12233e-06
1.06523e-05
-1.29546e-06
1.0531e-05
-5.05553e-07
1.01917e-05
2.28749e-07
9.64048e-06
9.02969e-07
8.87975e-06
1.52573e-06
7.90616e-06
2.11664e-06
6.70898e-06
2.70329e-06
5.26952e-06
3.31773e-06
3.56138e-06
3.99278e-06
1.55159e-06
4.75869e-06
-7.97815e-07
5.64056e-06
-3.52777e-06
6.65681e-06
-6.68021e-06
7.81874e-06
-1.02961e-05
9.13094e-06
-1.44138e-05
1.05922e-05
-1.90669e-05
1.21963e-05
-2.4283e-05
1.39325e-05
-3.00814e-05
1.57858e-05
-3.6471e-05
1.77365e-05
-4.34489e-05
1.976e-05
-5.09983e-05
2.18264e-05
-5.90877e-05
2.3901e-05
-6.767e-05
2.59448e-05
-7.66832e-05
2.79156e-05
-8.60518e-05
2.97697e-05
-9.56888e-05
3.14637e-05
-0.000105498
3.29565e-05
-0.000115381
3.42111e-05
-0.000125233
3.5196e-05
-0.000134957
3.58863e-05
-0.000144458
3.62647e-05
-0.000153651
3.63209e-05
-0.000162458
3.60518e-05
-0.000170816
3.54602e-05
-0.000178668
3.45546e-05
-0.000185971
3.33471e-05
-0.00019269
3.18533e-05
-0.000198797
3.00906e-05
-0.000204275
2.80776e-05
-0.000209109
2.58334e-05
-0.000213289
2.3377e-05
-0.00021681
2.07269e-05
-0.000219667
1.79011e-05
-0.000221858
1.49168e-05
-0.000223381
1.17906e-05
-0.000224234
8.53887e-06
-0.000224417
5.1775e-06
-0.000223926
1.72269e-06
-0.000222762
-1.80893e-06
-0.00022092
-5.3998e-06
-0.000218401
-9.03103e-06
-0.000215204
-1.2682e-05
-0.000211327
-1.63299e-05
-0.000206772
-1.99494e-05
-0.000201545
-2.35125e-05
-0.00019565
-2.69881e-05
-0.0001891
-3.03423e-05
-0.000181909
-3.3538e-05
-0.0001741
-3.65358e-05
-0.000165698
-3.9294e-05
-0.000156741
-4.17698e-05
-0.000147271
-4.392e-05
-0.00013734
-4.57028e-05
-0.000127011
-4.70786e-05
-0.000116351
-4.80124e-05
-0.000105441
-4.84752e-05
-9.43666e-05
-4.84456e-05
-8.32194e-05
-4.79118e-05
-7.20965e-05
-4.68725e-05
-6.10971e-05
-4.53381e-05
-5.03202e-05
-4.33304e-05
-3.98627e-05
-4.08832e-05
-2.98167e-05
-3.80408e-05
-2.02678e-05
-3.48567e-05
-1.1293e-05
-3.1392e-05
-2.9599e-06
-2.77132e-05
4.67439e-06
-2.38901e-05
1.15635e-05
-1.99935e-05
1.7672e-05
-1.60936e-05
2.29752e-05
-1.22583e-05
2.74597e-05
-8.5513e-06
3.11229e-05
-5.03163e-06
3.39738e-05
-1.75206e-06
3.60329e-05
1.24186e-06
3.73325e-05
3.91286e-06
3.7917e-05
6.23304e-06
3.78422e-05
8.18481e-06
3.71741e-05
9.7615e-06
3.59872e-05
1.09676e-05
3.43618e-05
1.18182e-05
3.23817e-05
1.23384e-05
3.01302e-05
1.25614e-05
2.76874e-05
1.25263e-05
2.51277e-05
1.2276e-05
2.25171e-05
1.18546e-05
1.99121e-05
1.13048e-05
1.73592e-05
1.06656e-05
1.48951e-05
9.9703e-06
1.25479e-05
9.24382e-06
1.03386e-05
8.50135e-06
8.28359e-06
7.7467e-06
6.39732e-06
6.97177e-06
4.69528e-06
6.15742e-06
3.19713e-06
5.27647e-06
1.93008e-06
4.29928e-06
9.32969e-07
3.20262e-06
2.6158e-07
1.98078e-06
6.71024e-07
2.79272e-07
-1.09198e-06
9.89529e-07
-2.99289e-06
2.01091e-06
-4.54431e-06
3.2321e-06
-5.68433e-06
4.54924e-06
-6.38706e-06
5.86829e-06
-6.65843e-06
7.10794e-06
-6.53326e-06
8.20181e-06
-6.06854e-06
9.09951e-06
-5.33533e-06
9.76621e-06
-4.41031e-06
1.01809e-05
-3.36816e-06
1.03337e-05
-2.27514e-06
1.02227e-05
-1.18443e-06
9.85012e-06
-1.33006e-07
9.21912e-06
8.59752e-07
8.33017e-06
1.79191e-06
7.17849e-06
2.67741e-06
5.75197e-06
3.54316e-06
4.03015e-06
4.4251e-06
1.9842e-06
5.36368e-06
-4.22126e-07
6.39911e-06
-3.2307e-06
7.56726e-06
-6.48671e-06
8.89658e-06
-1.02362e-05
1.04063e-05
-1.45235e-05
1.21061e-05
-1.9389e-05
1.39964e-05
-2.48667e-05
1.60699e-05
-3.0982e-05
1.83115e-05
-3.77492e-05
2.06997e-05
-4.51696e-05
2.32061e-05
-5.32288e-05
2.57957e-05
-6.18955e-05
2.84267e-05
-7.11207e-05
3.10516e-05
-8.08376e-05
3.36179e-05
-9.09635e-05
3.60707e-05
-0.000101402
3.83542e-05
-0.000112047
4.0415e-05
-0.000122788
4.22044e-05
-0.000133512
4.36806e-05
-0.000144111
4.48103e-05
-0.000154485
4.55697e-05
-0.000164543
4.59447e-05
-0.000174209
4.59302e-05
-0.000183417
4.55292e-05
-0.000192117
4.47516e-05
-0.000200269
4.36126e-05
-0.000207846
4.21309e-05
-0.000214826
4.0328e-05
-0.000221199
3.82263e-05
-0.000226958
3.58488e-05
-0.000232098
3.32179e-05
-0.00023662
3.03552e-05
-0.000240524
2.7281e-05
-0.000243811
2.40143e-05
-0.000246483
2.05729e-05
-0.00024854
1.69735e-05
-0.000249981
1.32318e-05
-0.000250805
9.36279e-06
-0.000251009
5.38133e-06
-0.000250588
1.30243e-06
-0.000249539
-2.85836e-06
-0.000247854
-7.08434e-06
-0.000245528
-1.13572e-05
-0.000242553
-1.56567e-05
-0.000238923
-1.99599e-05
-0.000234632
-2.42407e-05
-0.000229675
-2.84699e-05
-0.000224048
-3.26143e-05
-0.000217754
-3.6637e-05
-0.000210795
-4.0497e-05
-0.000203181
-4.41498e-05
-0.000194927
-4.75477e-05
-0.000186056
-5.06402e-05
-0.0001766
-5.3376e-05
-0.0001666
-5.57035e-05
-0.000156105
-5.7573e-05
-0.000145179
-5.89387e-05
-0.000133893
-5.97608e-05
-0.000122331
-6.00079e-05
-0.000110584
-5.96589e-05
-9.87515e-05
-5.87051e-05
-8.6938e-05
-5.71516e-05
-7.52505e-05
-5.50179e-05
-6.37955e-05
-5.23382e-05
-5.26759e-05
-4.91604e-05
-4.19883e-05
-4.55443e-05
-3.18205e-05
-4.15598e-05
-2.22496e-05
-3.72841e-05
-1.33413e-05
-3.27984e-05
-5.14901e-06
-2.81858e-05
2.28549e-06
-2.35281e-05
8.93158e-06
-1.89044e-05
1.4769e-05
-1.43887e-05
1.97873e-05
-1.00499e-05
2.39854e-05
-5.9501e-06
2.73713e-05
-2.1441e-06
2.99631e-05
1.32113e-06
3.17886e-05
4.40751e-06
3.28866e-05
7.08682e-06
3.33064e-05
9.34167e-06
3.31077e-05
1.11663e-05
3.2359e-05
1.25669e-05
3.11359e-05
1.35615e-05
2.95184e-05
1.41788e-05
2.7588e-05
1.44567e-05
2.54242e-05
1.44398e-05
2.3102e-05
1.41768e-05
2.06894e-05
1.37173e-05
1.82462e-05
1.31088e-05
1.58227e-05
1.23938e-05
1.34603e-05
1.16063e-05
1.11923e-05
1.07693e-05
9.04634e-06
9.89271e-06
7.04622e-06
8.97188e-06
5.21578e-06
7.98786e-06
3.58248e-06
6.90978e-06
2.18212e-06
5.69964e-06
1.06471e-06
4.32003e-06
3.01764e-07
2.74372e-06
9.72788e-07
3.00211e-07
-1.39219e-06
1.05657e-06
-3.74925e-06
2.13148e-06
-5.61922e-06
3.39657e-06
-6.94943e-06
4.73407e-06
-7.72456e-06
6.04004e-06
-7.9644e-06
7.22732e-06
-7.72053e-06
8.22719e-06
-7.06841e-06
8.98946e-06
-6.0976e-06
9.48089e-06
-4.90174e-06
9.68237e-06
-3.56963e-06
9.58522e-06
-2.17799e-06
9.18714e-06
-7.86349e-07
8.48807e-06
5.6606e-07
7.48641e-06
1.86141e-06
6.17571e-06
3.10262e-06
4.54222e-06
4.31089e-06
2.56348e-06
5.5219e-06
2.07962e-07
6.78062e-06
-2.56397e-06
8.13561e-06
-5.79814e-06
9.63327e-06
-9.54386e-06
1.1313e-05
-1.38509e-05
1.32036e-05
-1.87662e-05
1.53216e-05
-2.4331e-05
1.76709e-05
-3.05781e-05
2.02436e-05
-3.75289e-05
2.30206e-05
-4.51905e-05
2.59732e-05
-5.3554e-05
2.90631e-05
-6.25913e-05
3.22435e-05
-7.22548e-05
3.54591e-05
-8.24764e-05
3.86483e-05
-9.31695e-05
4.17446e-05
-0.000104231
4.46796e-05
-0.000115547
4.73864e-05
-0.000126995
4.98027e-05
-0.000138455
5.18742e-05
-0.000149807
5.35567e-05
-0.000160944
5.48175e-05
-0.00017177
5.56363e-05
-0.000182204
5.6004e-05
-0.000192182
5.59221e-05
-0.000201652
5.54008e-05
-0.00021058
5.44569e-05
-0.00021894
5.31121e-05
-0.000226719
5.13911e-05
-0.000233909
4.93205e-05
-0.000240507
4.69267e-05
-0.000246517
4.42362e-05
-0.000251942
4.12737e-05
-0.000256787
3.80629e-05
-0.000261057
3.46253e-05
-0.000264757
3.09809e-05
-0.00026789
2.71477e-05
-0.00027046
2.31425e-05
-0.000272467
1.89803e-05
-0.00027391
1.46754e-05
-0.000274789
1.02413e-05
-0.000275099
5.69129e-06
-0.000274835
1.03867e-06
-0.000273991
-3.70253e-06
-0.000272558
-8.51713e-06
-0.000270527
-1.33883e-05
-0.000267887
-1.82968e-05
-0.000264626
-2.32207e-05
-0.000260732
-2.81346e-05
-0.000256193
-3.30091e-05
-0.000250997
-3.78106e-05
-0.000245134
-4.25005e-05
-0.000238595
-4.70355e-05
-0.000231378
-5.13674e-05
-0.000223482
-5.54432e-05
-0.000214916
-5.92063e-05
-0.000205695
-6.25969e-05
-0.000195845
-6.55538e-05
-0.000185401
-6.80163e-05
-0.000174414
-6.99263e-05
-0.000162944
-7.12307e-05
-0.000151067
-7.18849e-05
-0.000138871
-7.18548e-05
-0.000126456
-7.11202e-05
-0.000113931
-6.96767e-05
-0.000101412
-6.75371e-05
-8.90174e-05
-6.47325e-05
-7.68663e-05
-6.13115e-05
-6.50715e-05
-5.7339e-05
-5.37379e-05
-5.28934e-05
-4.29588e-05
-4.80632e-05
-3.28134e-05
-4.29437e-05
-2.33666e-05
-3.76326e-05
-1.46682e-05
-3.22265e-05
-6.75432e-06
-2.68182e-05
3.51261e-07
-2.14943e-05
6.63531e-06
-1.6334e-05
1.20936e-05
-1.14084e-05
1.67297e-05
-6.78019e-06
2.05546e-05
-2.50383e-06
2.3587e-05
1.37512e-06
2.58536e-05
4.82029e-06
2.73898e-05
7.8054e-06
2.82409e-05
1.03152e-05
2.84613e-05
1.23465e-05
2.81145e-05
1.39083e-05
2.72712e-05
1.50221e-05
2.60073e-05
1.57207e-05
2.4401e-05
1.60462e-05
2.25298e-05
1.6048e-05
2.04679e-05
1.57791e-05
1.82839e-05
1.52928e-05
1.60389e-05
1.46388e-05
1.37859e-05
1.38592e-05
1.15703e-05
1.29849e-05
9.43087e-06
1.20322e-05
7.40212e-06
1.10006e-05
5.51758e-06
9.8724e-06
3.81398e-06
8.61338e-06
2.33658e-06
7.17703e-06
1.14603e-06
5.51059e-06
3.26488e-07
3.56326e-06
1.29928e-06
3.17726e-07
-1.70992e-06
1.10827e-06
-4.5398e-06
2.2157e-06
-6.72664e-06
3.49482e-06
-8.22855e-06
4.81445e-06
-9.04419e-06
6.06156e-06
-9.21151e-06
7.14421e-06
-8.80318e-06
7.99259e-06
-7.91679e-06
8.55793e-06
-6.66293e-06
8.80961e-06
-5.15343e-06
8.73105e-06
-3.49107e-06
8.31489e-06
-1.76183e-06
7.55807e-06
-2.95351e-08
6.45727e-06
1.66686e-06
5.00487e-06
3.31382e-06
3.18594e-06
4.92154e-06
9.76327e-07
6.52051e-06
-1.65793e-06
8.15616e-06
-4.75977e-06
9.88246e-06
-8.37893e-06
1.17548e-05
-1.25688e-05
1.38232e-05
-1.73828e-05
1.6127e-05
-2.28702e-05
1.8691e-05
-2.90726e-05
2.1524e-05
-3.60203e-05
2.46186e-05
-4.37292e-05
2.79525e-05
-5.2198e-05
3.14894e-05
-6.14054e-05
3.51806e-05
-7.13086e-05
3.89663e-05
-8.18422e-05
4.27771e-05
-9.29192e-05
4.65362e-05
-0.000104434
5.01627e-05
-0.000116265
5.35756e-05
-0.000128282
5.66974e-05
-0.000140355
5.94588e-05
-0.000152354
6.18016e-05
-0.000164161
6.36814e-05
-0.000175672
6.50681e-05
-0.000186801
6.59461e-05
-0.000197477
6.63127e-05
-0.00020765
6.61764e-05
-0.000217282
6.55541e-05
-0.00022635
6.44694e-05
-0.000234843
6.29497e-05
-0.000242756
6.10249e-05
-0.00025009
5.87254e-05
-0.000256851
5.60814e-05
-0.000263046
5.31219e-05
-0.000268684
4.98741e-05
-0.000273774
4.63633e-05
-0.000278324
4.26127e-05
-0.000282342
3.86433e-05
-0.000285835
3.44741e-05
-0.000288809
3.0122e-05
-0.000291269
2.56023e-05
-0.000293218
2.09289e-05
-0.000294657
1.61144e-05
-0.000295586
1.11707e-05
-0.000296004
6.10917e-06
-0.000295906
9.4115e-07
-0.000295288
-4.32138e-06
-0.000294139
-9.6655e-06
-0.000292451
-1.50766e-05
-0.00029021
-2.05379e-05
-0.000287401
-2.60294e-05
-0.000284008
-3.1528e-05
-0.000280011
-3.70059e-05
-0.000275391
-4.24305e-05
-0.000270127
-4.7764e-05
-0.0002642
-5.29624e-05
-0.000257592
-5.7976e-05
-0.000250286
-6.27486e-05
-0.000242274
-6.72189e-05
-0.000233551
-7.13201e-05
-0.000224122
-7.49824e-05
-0.000214004
-7.81339e-05
-0.000203228
-8.07032e-05
-0.000191836
-8.26226e-05
-0.000179889
-8.3831e-05
-0.000167467
-8.42775e-05
-0.000154662
-8.39254e-05
-0.000141583
-8.27548e-05
-0.000128354
-8.07662e-05
-0.000115105
-7.79813e-05
-0.000101972
-7.44445e-05
-8.90902e-05
-7.02213e-05
-7.65875e-05
-6.53961e-05
-6.45821e-05
-6.00686e-05
-5.31768e-05
-5.43491e-05
-4.24563e-05
-4.83531e-05
-3.24866e-05
-4.21963e-05
-2.33146e-05
-3.59902e-05
-1.49705e-05
-2.98384e-05
-7.46998e-06
-2.38345e-05
-8.17164e-07
-1.80612e-05
4.99265e-06
-1.259e-05
9.97093e-06
-7.48211e-06
1.41348e-05
-2.78875e-06
1.75068e-05
1.4483e-06
2.01154e-05
5.1968e-06
2.1996e-05
8.43466e-06
2.31917e-05
1.11508e-05
2.3754e-05
1.3346e-05
2.37426e-05
1.50335e-05
2.32242e-05
1.62391e-05
2.22707e-05
1.69997e-05
2.0957e-05
1.73617e-05
1.93581e-05
1.7378e-05
1.75465e-05
1.71044e-05
1.55903e-05
1.65951e-05
1.35513e-05
1.58982e-05
1.1485e-05
1.50512e-05
9.44061e-06
1.40765e-05
7.46337e-06
1.29779e-05
5.59694e-06
1.17388e-05
3.88783e-06
1.03225e-05
2.39079e-06
8.67407e-06
1.17565e-06
6.72573e-06
3.35463e-07
4.40345e-06
1.63474e-06
3.32285e-07
-2.0422e-06
1.14553e-06
-5.35304e-06
2.26417e-06
-7.84528e-06
3.52631e-06
-9.49069e-06
4.78818e-06
-1.03061e-05
5.92899e-06
-1.03523e-05
6.85362e-06
-9.72781e-06
7.49271e-06
-8.55588e-06
7.80023e-06
-6.97046e-06
7.74908e-06
-5.10227e-06
7.32548e-06
-3.06747e-06
6.52307e-06
-9.59424e-07
5.33721e-06
1.15633e-06
3.75997e-06
3.24411e-06
1.77623e-06
5.29755e-06
-6.38823e-07
7.3366e-06
-3.52076e-06
9.40245e-06
-6.91517e-06
1.15506e-05
-1.08753e-05
1.38426e-05
-1.54587e-05
1.63381e-05
-2.07221e-05
1.90866e-05
-2.67171e-05
2.21221e-05
-3.34856e-05
2.54594e-05
-4.1055e-05
2.90934e-05
-4.94351e-05
3.29988e-05
-5.8615e-05
3.71324e-05
-6.85606e-05
4.1435e-05
-7.92133e-05
4.58333e-05
-9.04901e-05
5.02431e-05
-0.000102286
5.45726e-05
-0.000114476
5.87267e-05
-0.000126925
6.2612e-05
-0.000139492
6.61419e-05
-0.000152036
6.92413e-05
-0.000164427
7.18501e-05
-0.00017655
7.39248e-05
-0.000188308
7.54392e-05
-0.000199623
7.63832e-05
-0.000210437
7.67606e-05
-0.000220711
7.65863e-05
-0.000230419
7.5884e-05
-0.000239547
7.46827e-05
-0.000248093
7.3015e-05
-0.000256058
7.09149e-05
-0.00026345
6.84167e-05
-0.000270278
6.55535e-05
-0.000276554
6.23572e-05
-0.000282289
5.88576e-05
-0.000287498
5.50821e-05
-0.00029219
5.1056e-05
-0.000296379
4.6802e-05
-0.000300077
4.23407e-05
-0.000303293
3.76902e-05
-0.000306037
3.28666e-05
-0.000308319
2.78841e-05
-0.000310145
2.27551e-05
-0.000311522
1.74907e-05
-0.000312452
1.21008e-05
-0.000312937
6.59462e-06
-0.000312977
9.81107e-07
-0.000312568
-4.73038e-06
-0.000311704
-1.05299e-05
-0.000310374
-1.64061e-05
-0.000308567
-2.23454e-05
-0.000306265
-2.83315e-05
-0.000303448
-3.43444e-05
-0.000300094
-4.03599e-05
-0.000296176
-4.63486e-05
-0.000291665
-5.22752e-05
-0.000286529
-5.80978e-05
-0.000280738
-6.37674e-05
-0.000274259
-6.92275e-05
-0.000267064
-7.44145e-05
-0.000259126
-7.92574e-05
-0.000250429
-8.36795e-05
-0.000240964
-8.75993e-05
-0.000230734
-9.0933e-05
-0.000219759
-9.35973e-05
-0.000208077
-9.55132e-05
-0.000195745
-9.66097e-05
-0.000182842
-9.68286e-05
-0.000169468
-9.61286e-05
-0.000155744
-9.449e-05
-0.000141808
-9.19176e-05
-0.000127809
-8.84431e-05
-0.000113905
-8.41251e-05
-0.000100253
-7.90482e-05
-8.70027e-05
-7.33191e-05
-7.42899e-05
-6.70618e-05
-6.22319e-05
-6.04111e-05
-5.09226e-05
-5.35056e-05
-4.04316e-05
-4.64812e-05
-3.08046e-05
-3.94654e-05
-2.20659e-05
-3.25732e-05
-1.42222e-05
-2.59049e-05
-7.26696e-06
-1.95453e-05
-1.18416e-06
-1.35649e-05
4.04816e-06
-8.02106e-06
8.45606e-06
-2.95961e-06
1.2069e-05