/*--------------------------------*- C++ -*----------------------------------*\
| =========                 |                                                 |
| \\      /  F ield         | OpenFOAM: The Open Source CFD Toolbox           |
|  \\    /   O peration     | Version:  2406                                  |
|   \\  /    A nd           | Website:  www.openfoam.com                      |
|    \\/     M anipulation  |                                                 |
\*---------------------------------------------------------------------------*/
FoamFile
{
    version     2.0;
    format      ascii;
    arch        "LSB;label=32;scalar=64";
    class       volScalarField;
    location    "25.5";
    object      p;
}
// * * * * * * * * * * * * * * * * * * * * * * * * * * * * * * * * * * * * * //

dimensions      [0 2 -2 0 0 0 0];

internalField   nonuniform List<scalar> 
14400
(
0.0369783
0.036987
0.0369922
0.0369978
0.0369955
0.036989
0.0369743
0.0369543
0.0369274
0.0368958
0.036859
0.0368184
0.0367741
0.036727
0.036677
0.0366247
0.0365699
0.0365126
0.0364527
0.0363896
0.0363231
0.0362525
0.0361773
0.0360968
0.0360103
0.0359173
0.0358171
0.035709
0.0355927
0.0354675
0.0353331
0.035189
0.0350352
0.0348715
0.0346979
0.0345146
0.034322
0.0341209
0.0339122
0.0336971
0.0334772
0.0332545
0.0330313
0.0328104
0.0325949
0.0323883
0.0321944
0.0320172
0.0318612
0.0317308
0.0316304
0.0315647
0.0315378
0.0315537
0.0316161
0.0317277
0.0318908
0.0321069
0.0323762
0.0326981
0.0330706
0.0334905
0.0339534
0.0344533
0.034983
0.0355343
0.0360974
0.0366621
0.037217
0.0377504
0.0382506
0.0387058
0.039105
0.0394381
0.0396965
0.0398731
0.0399631
0.0399638
0.0398751
0.0396993
0.0394412
0.0391079
0.0387083
0.038253
0.0377537
0.0372226
0.036672
0.0361141
0.0355599
0.0350195
0.0345013
0.0340123
0.0335577
0.0331411
0.0327644
0.0324283
0.0321321
0.0318743
0.0316526
0.0314642
0.0313059
0.0311746
0.0310669
0.0309797
0.0309101
0.0308554
0.0308131
0.0307814
0.0307579
0.0307419
0.0307314
0.0307265
0.0307252
0.0307291
0.0307353
0.0307467
0.0307585
0.0307744
0.0307858
0.0307953
0.0369696
0.0369783
0.0369798
0.0369828
0.0369778
0.0369702
0.036955
0.0369357
0.03691
0.0368801
0.0368453
0.0368069
0.0367649
0.0367201
0.0366724
0.0366222
0.0365695
0.0365143
0.0364563
0.0363953
0.0363308
0.0362624
0.0361895
0.0361116
0.0360281
0.0359383
0.0358418
0.035738
0.0356263
0.0355064
0.0353777
0.0352399
0.0350929
0.0349364
0.0347704
0.0345951
0.0344109
0.0342182
0.034018
0.0338114
0.0335997
0.0333848
0.0331689
0.0329545
0.0327446
0.0325424
0.0323516
0.0321761
0.0320202
0.0318881
0.0317842
0.031713
0.0316788
0.0316854
0.0317364
0.0318348
0.0319829
0.0321822
0.0324332
0.0327353
0.0330869
0.0334849
0.0339251
0.0344018
0.0349083
0.0354364
0.0359768
0.0365195
0.0370535
0.0375673
0.0380496
0.0384888
0.0388742
0.0391959
0.0394455
0.0396162
0.039703
0.0397036
0.0396178
0.0394479
0.0391986
0.0388768
0.0384914
0.0380526
0.0375719
0.037061
0.036532
0.0359965
0.035465
0.0349471
0.0344508
0.0339827
0.0335475
0.0331484
0.0327872
0.0324644
0.0321792
0.0319301
0.0317149
0.0315309
0.0313753
0.0312449
0.0311368
0.0310481
0.0309761
0.0309185
0.0308727
0.0308373
0.0308101
0.0307903
0.0307759
0.0307674
0.0307622
0.0307622
0.0307639
0.0307708
0.0307772
0.0307884
0.030795
0.0308047
0.0369644
0.0369768
0.0369783
0.0369822
0.0369768
0.0369693
0.0369538
0.0369345
0.0369087
0.036879
0.0368443
0.0368064
0.0367649
0.0367207
0.0366737
0.0366245
0.0365729
0.0365188
0.0364621
0.0364025
0.0363395
0.0362727
0.0362016
0.0361255
0.036044
0.0359564
0.0358621
0.0357607
0.0356515
0.0355341
0.035408
0.035273
0.0351285
0.0349746
0.0348111
0.0346379
0.0344555
0.0342643
0.0340649
0.0338584
0.0336462
0.0334299
0.0332117
0.032994
0.0327797
0.0325722
0.0323751
0.0321925
0.0320284
0.0318876
0.0317743
0.0316934
0.031649
0.0316455
0.0316864
0.031775
0.0319138
0.0321044
0.0323475
0.0326425
0.032988
0.033381
0.0338173
0.0342913
0.0347963
0.035324
0.0358652
0.0364097
0.0369464
0.0374638
0.0379502
0.0383941
0.0387843
0.039111
0.0393652
0.03954
0.0396304
0.0396338
0.0395498
0.0393808
0.0391316
0.0388091
0.0384223
0.0379817
0.0374991
0.0369865
0.0364563
0.0359202
0.0353892
0.0348728
0.0343792
0.0339149
0.0334845
0.0330912
0.0327364
0.0324205
0.0321423
0.0319003
0.0316918
0.0315141
0.0313642
0.0312388
0.031135
0.0310499
0.0309808
0.0309253
0.0308812
0.0308469
0.0308203
0.0308008
0.0307863
0.0307774
0.0307715
0.0307708
0.0307714
0.0307778
0.0307829
0.0307951
0.0308015
0.0308164
0.0369583
0.0369735
0.0369742
0.0369781
0.0369715
0.0369635
0.0369474
0.0369281
0.0369024
0.0368732
0.0368393
0.0368025
0.0367622
0.0367195
0.0366743
0.0366269
0.0365773
0.0365255
0.0364711
0.036414
0.0363537
0.0362898
0.0362217
0.036149
0.0360709
0.0359871
0.0358968
0.0357996
0.0356949
0.0355821
0.0354608
0.0353305
0.0351908
0.0350414
0.034882
0.0347126
0.0345332
0.0343441
0.0341458
0.0339392
0.0337255
0.0335061
0.0332832
0.0330591
0.0328366
0.0326192
0.0324106
0.0322147
0.0320362
0.0318796
0.0317497
0.0316513
0.0315889
0.031567
0.0315895
0.0316598
0.0317806
0.0319536
0.0321797
0.0324587
0.0327889
0.0331678
0.0335912
0.0340536
0.0345484
0.0350675
0.0356018
0.036141
0.0366743
0.03719
0.0376765
0.0381221
0.0385157
0.0388469
0.0391069
0.0392885
0.0393863
0.0393975
0.0393216
0.0391607
0.0389195
0.0386049
0.0382259
0.037793
0.0373181
0.0368135
0.0362916
0.0357644
0.0352428
0.0347367
0.0342542
0.0338016
0.0333837
0.0330032
0.0326616
0.0323587
0.0320934
0.0318635
0.0316664
0.031499
0.0313582
0.0312408
0.0311436
0.0310638
0.0309987
0.0309463
0.0309042
0.030871
0.0308448
0.0308252
0.0308099
0.0307999
0.0307923
0.0307898
0.0307878
0.0307924
0.0307947
0.0308067
0.0308117
0.0308318
0.0369596
0.0369778
0.0369788
0.0369837
0.0369767
0.0369686
0.0369519
0.036932
0.0369058
0.0368763
0.0368422
0.0368054
0.0367654
0.0367233
0.036679
0.0366328
0.0365847
0.0365346
0.0364822
0.0364273
0.0363694
0.0363081
0.0362427
0.0361728
0.0360976
0.0360166
0.0359292
0.0358347
0.0357324
0.0356219
0.0355024
0.0353733
0.0352341
0.0350842
0.0349233
0.0347508
0.0345669
0.0343714
0.0341649
0.033948
0.0337218
0.0334879
0.0332483
0.0330056
0.032763
0.0325239
0.0322925
0.0320732
0.0318708
0.0316903
0.0315369
0.0314157
0.0313316
0.0312891
0.0312925
0.0313453
0.0314503
0.0316094
0.0318234
0.0320922
0.0324143
0.0327871
0.0332064
0.0336669
0.0341618
0.0346833
0.035222
0.035768
0.03631
0.0368365
0.0373357
0.0377955
0.0382047
0.0385526
0.0388298
0.0390286
0.0391435
0.0391709
0.03911
0.0389626
0.038733
0.038428
0.0380566
0.0376294
0.0371585
0.0366565
0.0361362
0.0356101
0.0350896
0.0345849
0.0341046
0.0336553
0.033242
0.0328676
0.0325333
0.0322391
0.0319835
0.0317642
0.0315781
0.031422
0.0312922
0.0311853
0.0310979
0.0310272
0.0309701
0.0309247
0.0308884
0.0308602
0.0308378
0.0308212
0.0308081
0.0307997
0.0307929
0.0307911
0.0307891
0.0307942
0.0307963
0.0308103
0.0308157
0.0308417
0.0369645
0.0369842
0.0369849
0.0369899
0.0369821
0.0369733
0.0369556
0.0369351
0.0369082
0.0368783
0.0368442
0.0368076
0.0367683
0.0367272
0.0366841
0.0366397
0.0365935
0.0365457
0.0364959
0.0364438
0.0363889
0.0363307
0.0362685
0.0362019
0.03613
0.0360522
0.0359678
0.035876
0.0357761
0.0356672
0.0355485
0.0354193
0.0352785
0.0351255
0.0349594
0.0347798
0.0345863
0.0343786
0.0341571
0.0339224
0.0336757
0.0334187
0.0331536
0.0328834
0.0326114
0.0323417
0.0320788
0.0318276
0.0315933
0.0313814
0.0311972
0.0310463
0.0309336
0.0308641
0.0308419
0.0308708
0.0309535
0.0310921
0.0312874
0.0315394
0.0318467
0.0322066
0.0326153
0.0330677
0.0335571
0.0340757
0.0346147
0.0351641
0.0357128
0.0362493
0.0367619
0.0372383
0.0376671
0.0380373
0.0383391
0.0385643
0.0387066
0.0387619
0.0387288
0.0386083
0.0384042
0.0381229
0.0377731
0.0373651
0.036911
0.0364236
0.035916
0.0354008
0.03489
0.0343941
0.0339222
0.0334813
0.0330766
0.0327114
0.032387
0.0321035
0.0318591
0.0316517
0.0314778
0.031334
0.0312163
0.0311212
0.0310448
0.0309843
0.0309363
0.0308989
0.0308696
0.0308471
0.0308294
0.0308165
0.030806
0.0307995
0.0307937
0.0307926
0.0307903
0.0307957
0.0307969
0.0308122
0.0308174
0.030848
0.0369771
0.0369979
0.0369985
0.0370035
0.0369949
0.0369854
0.0369665
0.036945
0.036917
0.0368863
0.0368515
0.0368147
0.0367754
0.0367347
0.0366926
0.0366494
0.0366048
0.036559
0.0365114
0.0364618
0.0364095
0.0363539
0.0362944
0.0362302
0.0361605
0.0360844
0.0360011
0.0359095
0.0358088
0.0356977
0.0355751
0.0354398
0.0352907
0.0351266
0.0349465
0.0347495
0.0345351
0.0343031
0.0340537
0.0337879
0.0335071
0.0332133
0.0329093
0.0325985
0.0322851
0.0319736
0.031669
0.0313768
0.0311027
0.0308524
0.0306317
0.0304461
0.030301
0.0302012
0.030151
0.0301541
0.0302133
0.0303306
0.030507
0.0307423
0.0310354
0.0313838
0.0317837
0.0322303
0.0327172
0.0332369
0.0337807
0.0343389
0.0349008
0.0354549
0.0359894
0.0364922
0.0369514
0.0373558
0.0376949
0.0379599
0.0381436
0.0382412
0.0382501
0.0381706
0.0380056
0.0377606
0.0374437
0.037065
0.0366362
0.0361703
0.0356803
0.0351796
0.0346803
0.0341938
0.0337296
0.0332954
0.0328969
0.0325379
0.0322201
0.0319439
0.0317078
0.0315094
0.0313455
0.0312124
0.031106
0.0310223
0.0309574
0.0309079
0.0308706
0.0308429
0.0308224
0.0308078
0.0307969
0.0307897
0.0307839
0.0307814
0.0307784
0.0307797
0.0307788
0.0307858
0.0307876
0.0308048
0.0308105
0.0308448
0.036995
0.0370159
0.037016
0.0370203
0.0370105
0.0369996
0.0369793
0.0369564
0.0369272
0.0368955
0.0368601
0.036823
0.0367838
0.0367438
0.0367027
0.0366609
0.0366181
0.0365743
0.0365291
0.0364819
0.036432
0.0363788
0.0363214
0.036259
0.0361904
0.0361146
0.0360304
0.0359366
0.0358317
0.0357143
0.0355827
0.0354355
0.035271
0.0350876
0.0348842
0.0346598
0.0344137
0.0341458
0.0338568
0.0335479
0.0332211
0.032879
0.032525
0.0321634
0.0317988
0.0314364
0.0310819
0.030741
0.0304197
0.0301242
0.0298603
0.0296338
0.0294498
0.0293133
0.0292286
0.0291993
0.0292283
0.0293175
0.029468
0.0296799
0.029952
0.0302821
0.030667
0.0311019
0.031581
0.0320973
0.0326425
0.0332073
0.0337815
0.0343539
0.0349129
0.0354465
0.0359427
0.0363898
0.0367772
0.0370949
0.0373351
0.0374916
0.0375608
0.0375415
0.0374355
0.037247
0.0369832
0.0366533
0.0362684
0.0358412
0.0353847
0.0349123
0.0344368
0.0339699
0.0335217
0.0331007
0.0327133
0.0323638
0.0320547
0.0317867
0.0315587
0.0313688
0.0312137
0.0310899
0.0309933
0.0309197
0.030865
0.0308257
0.0307982
0.03078
0.0307682
0.0307615
0.0307576
0.0307566
0.0307559
0.0307575
0.0307577
0.0307617
0.0307624
0.0307708
0.0307732
0.0307916
0.0307975
0.0308339
0.0370206
0.037041
0.0370404
0.0370436
0.0370325
0.0370201
0.0369981
0.0369735
0.0369428
0.0369098
0.0368734
0.0368357
0.0367964
0.0367566
0.0367161
0.0366753
0.0366339
0.0365917
0.0365482
0.0365027
0.0364543
0.0364023
0.0363455
0.0362828
0.0362127
0.036134
0.036045
0.0359438
0.0358288
0.0356979
0.035549
0.03538
0.0351891
0.0349745
0.0347347
0.0344689
0.0341767
0.0338584
0.0335152
0.0331491
0.0327626
0.0323594
0.0319437
0.0315203
0.0310946
0.0306724
0.0302597
0.0298627
0.0294877
0.0291409
0.0288283
0.0285556
0.028328
0.0281504
0.0280271
0.0279616
0.0279567
0.0280144
0.0281358
0.0283212
0.0285696
0.0288791
0.0292468
0.0296683
0.0301384
0.0306506
0.0311972
0.0317696
0.032358
0.0329519
0.0335399
0.0341104
0.0346514
0.0351511
0.0355981
0.035982
0.0362938
0.0365262
0.0366739
0.0367343
0.0367073
0.0365957
0.036405
0.0361431
0.0358204
0.0354485
0.0350404
0.0346094
0.0341685
0.03373
0.0333048
0.0329021
0.0325291
0.032191
0.0318911
0.0316308
0.0314097
0.0312263
0.0310778
0.0309609
0.0308716
0.0308059
0.0307596
0.0307289
0.0307102
0.0307008
0.0306974
0.0306988
0.0307023
0.0307079
0.0307131
0.0307198
0.0307242
0.0307316
0.030735
0.0307454
0.0307491
0.0307686
0.030775
0.0308123
0.0370525
0.0370718
0.0370702
0.0370717
0.0370589
0.0370445
0.0370207
0.0369941
0.0369618
0.0369274
0.0368899
0.0368516
0.036812
0.0367723
0.0367323
0.0366924
0.036652
0.0366109
0.0365684
0.0365238
0.0364758
0.0364234
0.0363652
0.0362995
0.0362248
0.0361389
0.0360399
0.0359254
0.0357928
0.0356398
0.0354637
0.035262
0.0350327
0.0347739
0.0344843
0.0341634
0.0338113
0.0334292
0.0330188
0.0325831
0.0321257
0.0316509
0.0311637
0.0306697
0.0301748
0.0296853
0.0292077
0.0287482
0.0283135
0.0279097
0.0275429
0.0272186
0.0269421
0.0267182
0.0265509
0.0264437
0.0263995
0.0264202
0.0265069
0.02666
0.0268789
0.0271619
0.0275064
0.0279087
0.0283642
0.0288669
0.0294102
0.029986
0.0305854
0.0311987
0.0318152
0.0324237
0.0330126
0.03357
0.0340846
0.0345451
0.0349418
0.0352658
0.0355104
0.0356711
0.0357457
0.0357349
0.035642
0.0354733
0.0352372
0.0349444
0.0346068
0.0342374
0.0338493
0.033455
0.0330661
0.0326926
0.0323427
0.0320227
0.0317367
0.0314871
0.0312744
0.0310979
0.0309553
0.0308439
0.03076
0.0306999
0.0306595
0.0306352
0.0306232
0.0306206
0.0306241
0.0306322
0.0306422
0.0306538
0.0306644
0.0306759
0.0306844
0.0306951
0.030701
0.0307133
0.0307182
0.0307382
0.0307449
0.0307817
0.0370922
0.0371098
0.0371071
0.0371066
0.0370919
0.0370753
0.0370493
0.0370206
0.0369864
0.0369504
0.0369117
0.0368724
0.0368322
0.0367923
0.0367524
0.0367126
0.0366725
0.0366316
0.0365889
0.0365434
0.0364937
0.0364383
0.0363753
0.0363027
0.0362181
0.036119
0.0360026
0.0358659
0.0357058
0.0355193
0.0353034
0.0350555
0.0347734
0.0344555
0.0341011
0.0337102
0.0332838
0.032824
0.0323336
0.0318165
0.0312772
0.0307209
0.0301535
0.0295811
0.0290101
0.0284473
0.0278992
0.0273726
0.026874
0.0264095
0.0259852
0.0256066
0.0252787
0.0250061
0.0247927
0.0246419
0.0245563
0.0245378
0.0245876
0.0247061
0.0248928
0.0251463
0.0254645
0.0258442
0.0262814
0.0267709
0.0273069
0.0278823
0.0284892
0.0291188
0.0297613
0.0304064
0.0310432
0.0316602
0.032246
0.0327894
0.0332796
0.0337068
0.0340628
0.0343409
0.0345368
0.0346485
0.034677
0.0346257
0.0345011
0.0343116
0.0340679
0.0337818
0.0334661
0.0331333
0.0327956
0.0324636
0.0321468
0.0318524
0.031586
0.0313509
0.0311489
0.0309801
0.0308434
0.0307364
0.0306564
0.0305999
0.0305632
0.0305429
0.0305353
0.0305375
0.0305462
0.0305596
0.0305749
0.0305917
0.0306073
0.0306232
0.0306357
0.0306497
0.0306583
0.0306725
0.0306788
0.0306991
0.030706
0.0307413
0.0371394
0.0371546
0.0371505
0.0371473
0.0371307
0.0371114
0.0370833
0.0370522
0.0370161
0.0369783
0.0369382
0.0368977
0.0368568
0.0368163
0.0367759
0.0367356
0.0366948
0.0366528
0.0366082
0.0365597
0.0365056
0.0364436
0.0363715
0.0362866
0.0361857
0.0360655
0.0359227
0.0357535
0.0355542
0.0353215
0.0350521
0.0347436
0.034394
0.0340025
0.0335689
0.0330943
0.0325809
0.0320317
0.0314506
0.0308426
0.0302131
0.0295682
0.0289143
0.0282581
0.0276066
0.0269667
0.0263454
0.0257493
0.025185
0.0246586
0.0241759
0.0237422
0.0233623
0.0230404
0.0227803
0.022585
0.0224569
0.0223978
0.0224088
0.0224902
0.0226417
0.0228622
0.0231498
0.023502
0.0239153
0.0243855
0.0249076
0.0254755
0.0260824
0.0267209
0.0273822
0.0280574
0.0287363
0.0294084
0.030063
0.0306888
0.031275
0.0318111
0.0322874
0.0326955
0.0330288
0.0332827
0.0334551
0.0335464
0.0335599
0.0335014
0.0333791
0.0332031
0.0329849
0.0327366
0.0324704
0.0321976
0.0319285
0.0316718
0.0314343
0.0312209
0.0310346
0.0308769
0.0307476
0.0306457
0.030569
0.0305149
0.0304802
0.0304618
0.0304563
0.0304609
0.0304725
0.0304891
0.0305079
0.0305284
0.0305476
0.030567
0.0305826
0.0305992
0.0306102
0.0306257
0.0306331
0.0306531
0.0306601
0.030693
0.0371948
0.0372071
0.0372014
0.0371953
0.0371765
0.0371543
0.0371239
0.0370904
0.0370522
0.0370124
0.0369707
0.0369288
0.0368866
0.0368449
0.0368032
0.0367613
0.0367183
0.0366732
0.0366243
0.0365698
0.0365072
0.0364339
0.0363467
0.0362423
0.0361166
0.0359656
0.0357851
0.0355708
0.0353188
0.0350254
0.0346876
0.0343034
0.0338714
0.0333917
0.0328654
0.0322946
0.0316828
0.031034
0.0303535
0.0296472
0.0289213
0.0281828
0.0274387
0.0266963
0.0259628
0.0252455
0.0245513
0.023887
0.0232588
0.0226728
0.0221345
0.0216487
0.0212199
0.0208519
0.0205481
0.020311
0.0201428
0.020045
0.0200185
0.0200635
0.0201798
0.0203664
0.0206218
0.0209437
0.0213295
0.0217756
0.0222778
0.0228313
0.0234305
0.024069
0.0247398
0.025435
0.0261461
0.0268637
0.027578
0.0282788
0.0289555
0.0295974
0.0301942
0.0307362
0.0312149
0.0316231
0.0319555
0.0322093
0.032384
0.032482
0.032508
0.0324696
0.0323758
0.0322375
0.0320662
0.0318733
0.0316699
0.0314657
0.0312691
0.0310867
0.0309231
0.0307813
0.0306628
0.0305677
0.0304949
0.0304428
0.0304089
0.0303909
0.0303856
0.0303907
0.0304031
0.030421
0.0304415
0.030464
0.0304854
0.0305071
0.030525
0.0305435
0.0305563
0.0305727
0.0305811
0.0306004
0.0306074
0.0306372
0.0372583
0.0372669
0.0372596
0.03725
0.037229
0.0372038
0.037171
0.0371349
0.0370946
0.0370527
0.0370091
0.0369654
0.0369214
0.0368777
0.0368336
0.0367886
0.0367416
0.0366909
0.0366345
0.0365698
0.0364938
0.036403
0.0362934
0.0361606
0.036
0.0358068
0.035576
0.035303
0.0349838
0.0346149
0.0341938
0.0337194
0.0331913
0.0326107
0.0319801
0.0313031
0.0305841
0.0298287
0.0290432
0.0282344
0.0274095
0.0265762
0.025742
0.0249147
0.0241017
0.0233104
0.0225476
0.0218198
0.0211333
0.0204934
0.0199052
0.0193732
0.0189012
0.0184925
0.0181499
0.0178756
0.0176713
0.0175381
0.0174766
0.017487
0.0175689
0.0177215
0.0179434
0.0182328
0.0185875
0.0190046
0.0194808
0.0200123
0.0205947
0.0212229
0.0218913
0.0225936
0.0233229
0.0240716
0.0248311
0.0255927
0.0263467
0.027083
0.0277916
0.0284621
0.0290847
0.0296503
0.030151
0.0305804
0.0309343
0.0312109
0.031411
0.0315379
0.0315976
0.0315982
0.0315494
0.031462
0.031347
0.031215
0.0310758
0.0309375
0.0308068
0.0306887
0.0305864
0.0305017
0.0304349
0.0303857
0.0303527
0.0303341
0.0303277
0.0303315
0.0303428
0.0303599
0.0303801
0.0304027
0.0304247
0.0304471
0.0304661
0.0304853
0.0304991
0.0305156
0.0305246
0.0305427
0.0305494
0.0305757
0.0373305
0.0373347
0.0373255
0.0373122
0.0372889
0.0372605
0.0372254
0.0371866
0.0371441
0.0370998
0.0370541
0.0370079
0.0369614
0.0369144
0.0368665
0.0368164
0.0367626
0.036703
0.0366348
0.0365547
0.0364589
0.0363429
0.0362018
0.0360303
0.0358231
0.0355745
0.0352794
0.0349331
0.0345318
0.0340726
0.0335541
0.0329761
0.0323397
0.0316476
0.0309036
0.0301128
0.0292809
0.028415
0.0275222
0.0266105
0.0256879
0.0247625
0.0238424
0.0229356
0.0220496
0.0211916
0.0203682
0.0195856
0.0188494
0.0181646
0.0175354
0.0169658
0.0164589
0.0160174
0.0156435
0.0153388
0.0151045
0.0149413
0.0148496
0.0148293
0.0148798
0.0150005
0.01519
0.0154468
0.015769
0.0161544
0.0166004
0.017104
0.0176619
0.0182703
0.0189249
0.019621
0.0203534
0.0211162
0.0219027
0.0227058
0.0235176
0.0243293
0.0251316
0.0259148
0.0266687
0.0273831
0.0280483
0.0286552
0.0291961
0.0296648
0.0300577
0.0303733
0.0306131
0.0307812
0.0308843
0.0309307
0.0309306
0.0308945
0.030833
0.0307559
0.0306718
0.0305879
0.0305096
0.0304408
0.0303837
0.0303396
0.0303083
0.0302893
0.0302811
0.0302825
0.0302912
0.0303059
0.0303241
0.030345
0.030366
0.0303876
0.0304063
0.0304252
0.030439
0.030455
0.030464
0.0304805
0.0304868
0.0305095
0.0374111
0.0374101
0.037399
0.0373816
0.037356
0.0373243
0.0372869
0.0372452
0.0372004
0.0371534
0.037105
0.0370557
0.0370056
0.036954
0.0369002
0.0368425
0.0367787
0.0367059
0.0366206
0.0365187
0.0363953
0.0362449
0.0360618
0.0358398
0.0355729
0.0352551
0.0348813
0.0344472
0.0339495
0.0333865
0.032758
0.0320652
0.0313111
0.0304996
0.0296364
0.0287278
0.0277814
0.0268049
0.025807
0.0247962
0.0237813
0.0227709
0.0217733
0.0207963
0.0198475
0.0189335
0.0180606
0.0172344
0.0164596
0.0157405
0.0150808
0.0144834
0.0139509
0.0134853
0.013088
0.0127602
0.0125025
0.0123152
0.0121984
0.0121518
0.0121746
0.0122661
0.012425
0.0126501
0.0129396
0.0132919
0.0137048
0.0141762
0.0147035
0.015284
0.0159148
0.0165924
0.0173134
0.0180734
0.0188678
0.0196914
0.0205382
0.0214013
0.0222733
0.0231455
0.0240087
0.0248529
0.0256675
0.0264419
0.0271656
0.0278291
0.0284242
0.0289443
0.0293858
0.0297474
0.0300311
0.0302416
0.0303862
0.030474
0.0305155
0.0305213
0.0305019
0.0304667
0.0304235
0.0303788
0.0303371
0.0303018
0.0302745
0.0302561
0.0302463
0.0302447
0.0302498
0.0302606
0.0302752
0.0302929
0.0303112
0.0303304
0.0303474
0.0303648
0.0303776
0.0303923
0.0304006
0.0304153
0.0304209
0.0304401
0.0375002
0.0374931
0.03748
0.0374581
0.0374304
0.0373953
0.0373557
0.037311
0.0372636
0.0372134
0.0371618
0.0371083
0.0370532
0.0369951
0.0369329
0.0368641
0.036786
0.0366948
0.036586
0.0364545
0.0362943
0.0360991
0.0358622
0.0355768
0.0352364
0.0348352
0.0343684
0.0338325
0.0332254
0.0325467
0.0317979
0.030982
0.0301035
0.0291684
0.0281838
0.0271576
0.0260987
0.0250162
0.0239193
0.0228175
0.02172
0.0206354
0.019572
0.0185374
0.0175386
0.0165817
0.0156722
0.0148148
0.0140136
0.0132718
0.0125924
0.0119776
0.011429
0.0109479
0.0105354
0.0101919
0.00991759
0.00971248
0.00957622
0.00950826
0.00950783
0.00957397
0.00970556
0.00990133
0.0101599
0.0104797
0.0108591
0.0112964
0.0117898
0.0123375
0.0129373
0.0135872
0.0142848
0.0150275
0.0158126
0.0166365
0.0174954
0.0183847
0.019299
0.0202317
0.0211753
0.022121
0.0230591
0.0239787
0.0248681
0.0257153
0.0265087
0.0272373
0.0278918
0.0284654
0.0289538
0.0293565
0.0296761
0.0299183
0.0300919
0.030207
0.030275
0.0303071
0.030314
0.0303047
0.0302868
0.0302661
0.0302465
0.0302309
0.0302205
0.0302161
0.0302171
0.0302233
0.0302331
0.0302462
0.0302603
0.0302759
0.0302899
0.0303044
0.0303153
0.0303279
0.030335
0.0303474
0.0303522
0.0303683
0.0375969
0.0375829
0.0375679
0.0375413
0.0375116
0.0374729
0.0374311
0.0373832
0.037333
0.0372791
0.0372233
0.0371643
0.0371023
0.0370353
0.0369614
0.0368776
0.03678
0.036664
0.0365242
0.036354
0.0361468
0.0358952
0.0355917
0.0352294
0.0348017
0.0343033
0.0337302
0.0330802
0.0323526
0.0315491
0.0306727
0.0297285
0.028723
0.0276639
0.0265599
0.0254205
0.0242557
0.0230756
0.0218903
0.0207093
0.0195421
0.0183971
0.0172821
0.0162042
0.0151696
0.0141836
0.0132507
0.0123747
0.0115587
0.0108051
0.010116
0.00949275
0.00893639
0.00844758
0.00802668
0.00767376
0.00738864
0.00717094
0.00702007
0.0069353
0.00691572
0.0069603
0.00706793
0.00723738
0.00746736
0.00775655
0.00810358
0.0085071
0.00896577
0.00947826
0.0100433
0.0106596
0.0113259
0.0120408
0.012803
0.0136108
0.0144621
0.0153546
0.016285
0.0172492
0.0182421
0.0192571
0.0202862
0.0213197
0.0223465
0.023354
0.0243284
0.0252557
0.0261221
0.0269149
0.0276236
0.0282409
0.028763
0.0291903
0.0295273
0.029782
0.0299649
0.0300882
0.0301646
0.0302062
0.0302236
0.0302257
0.0302196
0.0302105
0.0302016
0.0301953
0.0301924
0.0301935
0.0301977
0.0302051
0.0302138
0.0302244
0.0302341
0.0302449
0.0302528
0.0302624
0.0302678
0.0302778
0.0302816
0.0302949
0.0377008
0.0376789
0.037662
0.0376304
0.0375988
0.0375566
0.0375125
0.0374612
0.0374077
0.0373492
0.037288
0.0372219
0.0371508
0.0370717
0.0369823
0.0368783
0.0367553
0.0366071
0.0364273
0.0362085
0.0359429
0.0356225
0.0352394
0.0347868
0.0342585
0.0336501
0.0329591
0.0321847
0.0313284
0.0303938
0.029386
0.0283123
0.0271809
0.0260015
0.0247844
0.0235403
0.0222802
0.0210148
0.0197544
0.0185089
0.017287
0.0160968
0.0149455
0.013839
0.0127827
0.0117807
0.0108366
0.00995327
0.00913273
0.00837662
0.00768608
0.00706187
0.0065044
0.00601382
0.00559001
0.00523268
0.00494136
0.00471542
0.00455408
0.00445646
0.00442159
0.00444838
0.0045357
0.00468235
0.00488712
0.00514878
0.00546615
0.00583806
0.00626347
0.00674141
0.00727105
0.00785169
0.00848277
0.00916388
0.00989464
0.0106747
0.0115037
0.012381
0.0133054
0.0142752
0.0152879
0.0163395
0.0174247
0.0185362
0.0196646
0.0207986
0.0219246
0.023027
0.0240893
0.0250945
0.0260262
0.02687
0.0276148
0.0282537
0.0287848
0.029211
0.02954
0.029783
0.0299535
0.030066
0.0301342
0.0301709
0.0301864
0.0301892
0.0301853
0.0301792
0.0301732
0.0301693
0.0301675
0.0301685
0.030171
0.0301755
0.0301799
0.0301858
0.0301898
0.030196
0.0301989
0.0302065
0.0302091
0.0302202
0.0378103
0.0377798
0.037761
0.0377242
0.0376909
0.0376451
0.0375986
0.0375434
0.037486
0.0374219
0.0373539
0.0372784
0.0371953
0.0371005
0.0369909
0.036861
0.0367053
0.0365165
0.0362872
0.0360088
0.035673
0.0352711
0.0347955
0.0342397
0.0335987
0.0328694
0.0320511
0.031145
0.0301549
0.0290866
0.0279475
0.0267469
0.025495
0.0242032
0.0228831
0.0215464
0.0202046
0.0188687
0.017549
0.0162547
0.014994
0.0137741
0.012601
0.0114796
0.0104142
0.00940771
0.00846274
0.00758105
0.00676389
0.0060121
0.00532612
0.00470614
0.00415207
0.00366367
0.0032405
0.002882
0.00258751
0.00235624
0.00218731
0.00207978
0.00203261
0.00204471
0.00211494
0.00224213
0.00242511
0.00266272
0.00295384
0.00329745
0.00369262
0.00413859
0.00463476
0.00518077
0.00577646
0.00642195
0.00711758
0.00786389
0.00866158
0.00951139
0.0104139
0.0113695
0.0123778
0.0134377
0.0145466
0.0157004
0.0168926
0.0181145
0.0193543
0.0205974
0.0218268
0.023023
0.0241657
0.0252344
0.0262107
0.0270793
0.02783
0.0284583
0.028966
0.0293607
0.0296547
0.0298632
0.0300028
0.0300897
0.0301383
0.030161
0.0301673
0.0301644
0.0301571
0.0301489
0.0301412
0.0301354
0.0301309
0.0301286
0.0301268
0.0301271
0.0301264
0.0301285
0.0301286
0.0301336
0.0301348
0.0301444
0.0379239
0.0378839
0.0378634
0.0378212
0.0377865
0.0377368
0.0376878
0.0376282
0.037566
0.0374948
0.037418
0.0373307
0.0372322
0.0371171
0.0369818
0.0368193
0.036623
0.0363844
0.0360952
0.0357458
0.0353275
0.0348318
0.0342516
0.0335812
0.0328172
0.0319584
0.0310062
0.0299643
0.0288389
0.027638
0.0263715
0.0250507
0.0236875
0.0222947
0.0208848
0.0194702
0.0180625
0.0166724
0.0153096
0.0139824
0.0126981
0.0114626
0.0102806
0.00915607
0.00809172
0.00708969
0.00615142
0.00527783
0.00446941
0.00372634
0.00304856
0.00243578
0.00188761
0.0014035
0.000982843
0.000624932
0.00032899
9.41747e-05
-8.04235e-05
-0.000195775
-0.000252906
-0.000252896
-0.000196861
-8.59414e-05
7.87167e-05
0.000295988
0.000564798
0.000884153
0.00125318
0.00167118
0.00213765
0.00265233
0.00321525
0.00382678
0.00448759
0.00519873
0.00596156
0.00677769
0.00764893
0.00857707
0.00956373
0.01061
0.0117161
0.012881
0.0141016
0.0153726
0.0166855
0.0180286
0.0193864
0.02074
0.0220672
0.023344
0.0245458
0.0256496
0.026636
0.027491
0.0282079
0.0287875
0.0292377
0.0295722
0.0298087
0.0299663
0.0300635
0.0301172
0.0301412
0.0301464
0.0301406
0.0301296
0.0301165
0.0301039
0.0300921
0.0300825
0.0300738
0.0300678
0.0300619
0.0300595
0.0300562
0.0300586
0.0300585
0.0300669
0.0380394
0.0379891
0.0379671
0.0379194
0.0378832
0.0378295
0.0377777
0.0377128
0.0376447
0.0375648
0.0374769
0.0373745
0.0372566
0.0371163
0.036949
0.0367464
0.0365008
0.0362026
0.0358426
0.0354108
0.0348984
0.0342973
0.0336016
0.032807
0.0319121
0.030918
0.0298287
0.0286503
0.0273916
0.0260632
0.024677
0.0232462
0.0217841
0.0203044
0.0188203
0.017344
0.0158868
0.0144587
0.0130684
0.011723
0.0104284
0.00918919
0.00800887
0.00688996
0.0058342
0.00484267
0.00391592
0.00305416
0.00225727
0.00152495
0.000856751
0.000252126
-0.000289542
-0.000768919
-0.00118671
-0.00154368
-0.0018406
-0.0020783
-0.00225768
-0.00237966
-0.00244523
-0.00245542
-0.0024113
-0.00231399
-0.00216458
-0.00196418
-0.00171387
-0.00141461
-0.0010673
-0.000672648
-0.00023118
0.000256838
0.00079144
0.00137301
0.00200232
0.00268056
0.00340938
0.00419083
0.00502736
0.00592172
0.0068768
0.00789542
0.00897999
0.0101321
0.0113521
0.0126381
0.0139858
0.0153874
0.016831
0.0183003
0.0197745
0.0212287
0.0226349
0.0239642
0.0251887
0.0262847
0.0272347
0.0280296
0.0286696
0.0291636
0.0295274
0.0297814
0.0299476
0.0300474
0.0300996
0.0301199
0.0301199
0.0301086
0.0300913
0.0300724
0.0300532
0.030036
0.0300199
0.0300072
0.0299955
0.0299883
0.0299813
0.0299811
0.0299794
0.0299874
0.038154
0.0380928
0.0380694
0.0380161
0.0379785
0.0379204
0.0378653
0.0377942
0.0377187
0.0376281
0.0375264
0.0374052
0.0372632
0.0370919
0.0368858
0.036635
0.0363309
0.0359629
0.0355213
0.0349959
0.0343785
0.0336619
0.0328417
0.0319157
0.0308848
0.0297529
0.0285264
0.0272145
0.0258284
0.0243809
0.022886
0.0213582
0.0198119
0.0182612
0.0167192
0.0151976
0.0137069
0.012256
0.010852
0.00950073
0.00820664
0.00697291
0.00580174
0.00469449
0.00365189
0.00267416
0.00176118
0.000912572
0.000127811
-0.000593723
-0.0012527
-0.0018498
-0.00238573
-0.00286118
-0.00327684
-0.00363344
-0.0039317
-0.00417238
-0.0043563
-0.00448432
-0.00455734
-0.00457632
-0.00454229
-0.00445629
-0.0043194
-0.00413269
-0.00389724
-0.00361404
-0.00328401
-0.00290793
-0.00248638
-0.00201974
-0.00150809
-0.000951142
-0.000348239
0.000301742
0.00100042
0.00174992
0.00255292
0.00341258
0.00433249
0.00531652
0.00636859
0.00749236
0.00869074
0.00996533
0.0113157
0.0127384
0.0142263
0.0157675
0.0173448
0.0189355
0.0205117
0.0220416
0.0234913
0.0248282
0.0260238
0.0270574
0.027918
0.0286055
0.0291305
0.0295115
0.0297722
0.0299379
0.0300328
0.030078
0.0300901
0.0300822
0.0300628
0.0300384
0.0300122
0.0299873
0.0299638
0.029944
0.0299261
0.0299139
0.0299029
0.0299001
0.0298967
0.0299046
0.0382646
0.0381918
0.0381673
0.0381081
0.0380693
0.0380064
0.0379471
0.0378686
0.0377841
0.0376802
0.0375614
0.0374173
0.0372461
0.0370375
0.0367851
0.0364775
0.0361056
0.0356577
0.0351241
0.0344949
0.0337629
0.0329224
0.031971
0.030909
0.0297402
0.028471
0.027111
0.0256719
0.0241674
0.0226123
0.0210222
0.0194124
0.0177979
0.0161925
0.0146088
0.0130575
0.0115478
0.0100869
0.00868061
0.00733317
0.00604748
0.00482543
0.00366802
0.00257562
0.00154813
0.000585108
-0.000314079
-0.00115017
-0.00192395
-0.0026362
-0.00328766
-0.00387904
-0.00441102
-0.00488423
-0.00529928
-0.00565679
-0.00595738
-0.00620172
-0.0063905
-0.00652448
-0.00660447
-0.00663135
-0.00660606
-0.00652959
-0.00640297
-0.00622725
-0.0060035
-0.00573273
-0.00541591
-0.00505388
-0.00464734
-0.0041968
-0.00370249
-0.00316434
-0.0025819
-0.00195427
-0.00128005
-0.000557296
0.000216548
0.00104465
0.00193078
0.00287927
0.00389485
0.00498247
0.00614693
0.00739242
0.00872182
0.0101359
0.0116324
0.0132046
0.0148407
0.0165227
0.0182256
0.0199185
0.0215654
0.0231274
0.0245667
0.0258505
0.0269546
0.0278667
0.0285874
0.0291296
0.0295154
0.0297721
0.0299287
0.0300123
0.0300454
0.0300464
0.030028
0.0299999
0.0299673
0.029935
0.0299039
0.029877
0.0298527
0.0298352
0.0298201
0.0298146
0.0298095
0.0298174
0.0383672
0.0382825
0.038257
0.0381919
0.0381516
0.0380833
0.0380191
0.0379316
0.037836
0.037716
0.0375764
0.0374048
0.0371987
0.0369461
0.0366396
0.0362667
0.0358175
0.03528
0.0346448
0.033903
0.0330486
0.032078
0.0309914
0.0297919
0.028486