/*--------------------------------*- C++ -*----------------------------------*\
| =========                 |                                                 |
| \\      /  F ield         | OpenFOAM: The Open Source CFD Toolbox           |
|  \\    /   O peration     | Version:  2406                                  |
|   \\  /    A nd           | Website:  www.openfoam.com                      |
|    \\/     M anipulation  |                                                 |
\*---------------------------------------------------------------------------*/
FoamFile
{
    version     2.0;
    format      ascii;
    arch        "LSB;label=32;scalar=64";
    class       volVectorField;
    location    "35.95";
    object      Uold;
}
// * * * * * * * * * * * * * * * * * * * * * * * * * * * * * * * * * * * * * //

dimensions      [0 1 -1 0 0 0 0];

internalField   nonuniform List<vector> 
3600
(
(-1.63569e-06 -9.48339e-06 0)
(0.000459313 -0.000216487 0)
(0.00133873 -0.00032236 0)
(0.00231641 -0.0003377 0)
(0.00324563 -0.00027847 0)
(0.00392668 -0.000197826 0)
(0.00439701 -0.000123381 0)
(0.00463332 -7.55837e-05 0)
(0.00474835 -5.477e-05 0)
(0.00475126 -5.15841e-05 0)
(0.00469528 -5.18636e-05 0)
(0.00453152 -4.20358e-05 0)
(0.00423101 -1.42587e-05 0)
(0.00370445 3.63684e-05 0)
(0.00288518 0.000111217 0)
(0.00167514 0.000213085 0)
(-5.58735e-06 0.000344198 0)
(-0.0022503 0.000505306 0)
(-0.00513192 0.000688095 0)
(-0.00871859 0.00087946 0)
(-0.0130467 0.0010714 0)
(-0.0181157 0.00127059 0)
(-0.0238598 0.00148871 0)
(-0.0301399 0.00172471 0)
(-0.0367329 0.00195015 0)
(-0.0433381 0.0021142 0)
(-0.0495919 0.00215917 0)
(-0.0550964 0.0020392 0)
(-0.0594535 0.00172948 0)
(-0.0622961 0.00122965 0)
(-0.063318 0.000560405 0)
(-0.0622942 -0.0002392 0)
(-0.0591035 -0.0011164 0)
(-0.0537391 -0.00200675 0)
(-0.0463291 -0.00283855 0)
(-0.0371359 -0.00353609 0)
(-0.0265688 -0.00402683 0)
(-0.0151594 -0.00424871 0)
(-0.00355272 -0.00416103 0)
(0.00755898 -0.00375408 0)
(0.017475 -0.00305764 0)
(0.0255922 -0.00214385 0)
(0.031449 -0.00112105 0)
(0.0348312 -0.000119269 0)
(0.0357612 0.000736223 0)
(0.0345421 0.00135073 0)
(0.0316443 0.00168617 0)
(0.0276788 0.00176364 0)
(0.0232142 0.00165226 0)
(0.0187687 0.00143374 0)
(0.0146592 0.00117991 0)
(0.0111076 0.00093334 0)
(0.00813789 0.000718945 0)
(0.00576809 0.000541164 0)
(0.00387866 0.000406303 0)
(0.0024316 0.000300885 0)
(0.00129767 0.000221997 0)
(0.000490911 0.000124633 0)
(6.44405e-06 1.47499e-05 0)
(-0.000103674 -0.000111077 0)
(0.000184656 -0.000442473 0)
(0.00133147 -0.00135986 0)
(0.00316113 -0.00179448 0)
(0.00507846 -0.00181032 0)
(0.0068426 -0.00149494 0)
(0.00810004 -0.00104175 0)
(0.00886716 -0.000585103 0)
(0.00907757 -0.000208181 0)
(0.00886312 7.55006e-05 0)
(0.00820577 0.000312782 0)
(0.00713039 0.000567562 0)
(0.00550311 0.000911374 0)
(0.00319606 0.0013866 0)
(-1.16849e-05 0.00202411 0)
(-0.00431587 0.00283137 0)
(-0.00994283 0.00381197 0)
(-0.0170696 0.00494958 0)
(-0.025845 0.00621994 0)
(-0.0363145 0.00758291 0)
(-0.0483938 0.00898709 0)
(-0.0618086 0.010344 0)
(-0.0761091 0.0115257 0)
(-0.0906995 0.0123754 0)
(-0.104913 0.0127478 0)
(-0.118083 0.0125313 0)
(-0.129607 0.0116667 0)
(-0.13898 0.0101436 0)
(-0.145811 0.00799938 0)
(-0.14982 0.00530604 0)
(-0.15082 0.00216611 0)
(-0.148714 -0.00129752 0)
(-0.143482 -0.00494107 0)
(-0.135188 -0.00860516 0)
(-0.123978 -0.0121115 0)
(-0.110098 -0.0152691 0)
(-0.0938932 -0.0178763 0)
(-0.0758342 -0.0197364 0)
(-0.0564996 -0.020672 0)
(-0.0365908 -0.0205538 0)
(-0.0168806 -0.0193238 0)
(0.00179602 -0.0170245 0)
(0.0186409 -0.0138103 0)
(0.0329135 -0.00994764 0)
(0.0440586 -0.0057896 0)
(0.0516991 -0.00172933 0)
(0.0557563 0.00185626 0)
(0.056379 0.00467379 0)
(0.0540348 0.00655633 0)
(0.0493501 0.00749489 0)
(0.0431521 0.00761542 0)
(0.0362031 0.00714026 0)
(0.0292496 0.00630828 0)
(0.0227446 0.00533673 0)
(0.0170467 0.00436855 0)
(0.0121925 0.00350664 0)
(0.00824591 0.00275991 0)
(0.00504517 0.00213179 0)
(0.00263094 0.00148296 0)
(0.000920493 0.000808316 0)
(6.91896e-05 3.64729e-05 0)
(0.00030008 -0.00130256 0)
(0.00184902 -0.00322201 0)
(0.00419433 -0.00406944 0)
(0.0064957 -0.00398057 0)
(0.00846864 -0.00320543 0)
(0.00967757 -0.00209917 0)
(0.0101286 -0.000952685 0)
(0.00971415 8.51386e-05 0)
(0.00852593 0.000987679 0)
(0.00646964 0.00186956 0)
(0.00347087 0.00287279 0)
(-0.000723987 0.00415815 0)
(-0.00636781 0.0058184 0)
(-0.0137935 0.00791489 0)
(-0.0232794 0.0104441 0)
(-0.0350724 0.0133735 0)
(-0.0492605 0.0166075 0)
(-0.0657268 0.0199949 0)
(-0.084058 0.0232854 0)
(-0.103588 0.0261615 0)
(-0.123479 0.0282884 0)
(-0.14287 0.0294054 0)
(-0.160984 0.0293565 0)
(-0.177202 0.0281017 0)
(-0.191073 0.0256815 0)
(-0.202299 0.0221951 0)
(-0.210695 0.0177685 0)
(-0.216161 0.0125466 0)
(-0.218644 0.00668007 0)
(-0.218123 0.000330864 0)
(-0.214597 -0.00633141 0)
(-0.208079 -0.0131168 0)
(-0.198611 -0.0198151 0)
(-0.186264 -0.0261833 0)
(-0.171174 -0.0319503 0)
(-0.153548 -0.0368146 0)
(-0.133704 -0.0404667 0)
(-0.112072 -0.0426074 0)
(-0.0892235 -0.0429945 0)
(-0.0658407 -0.041479 0)
(-0.0427188 -0.0380593 0)
(-0.0206777 -0.032902 0)
(-0.000542701 -0.0263578 0)
(0.0169834 -0.0189251 0)
(0.0313126 -0.0111982 0)
(0.0420923 -0.00378929 0)
(0.0491304 0.00274876 0)
(0.052517 0.00798344 0)
(0.0525077 0.0116584 0)
(0.0496658 0.0137163 0)
(0.044656 0.0143089 0)
(0.0383456 0.0137444 0)
(0.0314556 0.0124225 0)
(0.0247042 0.0107198 0)
(0.0184393 0.00895359 0)
(0.0129984 0.00727772 0)
(0.00834653 0.00575762 0)
(0.00466272 0.00421898 0)
(0.00184349 0.00258519 0)
(0.000263935 0.000686675 0)
(0.000372102 -0.00234128 0)
(0.00212993 -0.00532666 0)
(0.00463403 -0.00647569 0)
(0.00684991 -0.00606104 0)
(0.00847655 -0.00458816 0)
(0.00904886 -0.0025751 0)
(0.0085745 -0.000468594 0)
(0.00689866 0.00155696 0)
(0.00402548 0.00349376 0)
(-0.000268302 0.00555762 0)
(-0.00621019 0.00797972 0)
(-0.0141917 0.0110027 0)
(-0.0245667 0.0147374 0)
(-0.0376834 0.0192205 0)
(-0.0537079 0.0243508 0)
(-0.0725703 0.029921 0)
(-0.0938268 0.0355455 0)
(-0.1167 0.0407226 0)
(-0.140191 0.0449131 0)
(-0.163298 0.0477006 0)
(-0.185173 0.0488411 0)
(-0.205198 0.0482784 0)
(-0.222981 0.046077 0)
(-0.238301 0.0423838 0)
(-0.251053 0.0373704 0)
(-0.2612 0.0312199 0)
(-0.268736 0.024101 0)
(-0.273663 0.0161775 0)
(-0.275977 0.00759962 0)
(-0.275659 -0.00147687 0)
(-0.272677 -0.0108905 0)
(-0.26698 -0.0204512 0)
(-0.258519 -0.0299371 0)
(-0.247248 -0.0390729 0)
(-0.233158 -0.0475327 0)
(-0.216288 -0.054931 0)
(-0.196774 -0.0608479 0)
(-0.174864 -0.0648484 0)
(-0.150973 -0.066545 0)
(-0.125671 -0.065649 0)
(-0.0997098 -0.0620541 0)
(-0.073947 -0.0558794 0)
(-0.0493148 -0.0475068 0)
(-0.0266702 -0.0375396 0)
(-0.006759 -0.0267364 0)
(0.00992136 -0.015895 0)
(0.0230443 -0.00575724 0)
(0.0325322 0.00306087 0)
(0.038401 0.0101068 0)
(0.0409076 0.0151159 0)
(0.0403963 0.0180412 0)
(0.0375051 0.0190625 0)
(0.0328724 0.0185584 0)
(0.0273222 0.0170122 0)
(0.0214088 0.014916 0)
(0.0157527 0.012624 0)
(0.0105294 0.0103267 0)
(0.0061434 0.00790977 0)
(0.00256442 0.00518755 0)
(0.000423029 0.00183092 0)
(0.00041305 -0.00355056 0)
(0.00221519 -0.00759554 0)
(0.00457634 -0.00885323 0)
(0.00631657 -0.00781258 0)
(0.00712377 -0.00532652 0)
(0.00653669 -0.00208003 0)
(0.00455579 0.00133574 0)
(0.000967882 0.00477814 0)
(-0.00435158 0.00830322 0)
(-0.011779 0.0122613 0)
(-0.0216956 0.0169616 0)
(-0.0345614 0.0226781 0)
(-0.0506783 0.02944 0)
(-0.0701328 0.0371013 0)
(-0.0926005 0.0452316 0)
(-0.117336 0.0532064 0)
(-0.143257 0.0602659 0)
(-0.169211 0.0657591 0)
(-0.194206 0.0692446 0)
(-0.217528 0.0705545 0)
(-0.238743 0.069708 0)
(-0.257627 0.0668645 0)
(-0.274097 0.0622329 0)
(-0.288147 0.05605 0)
(-0.299815 0.0485333 0)
(-0.30915 0.0398871 0)
(-0.316205 0.0302815 0)
(-0.321018 0.0198726 0)
(-0.323613 0.00879432 0)
(-0.323983 -0.00281561 0)
(-0.322097 -0.0148165 0)
(-0.317883 -0.0270343 0)
(-0.311243 -0.0392586 0)
(-0.302041 -0.05121 0)
(-0.290136 -0.0625401 0)
(-0.275383 -0.0728087 0)
(-0.25769 -0.0815046 0)
(-0.237048 -0.0880567 0)
(-0.213606 -0.0919012 0)
(-0.18771 -0.0925456 0)
(-0.15997 -0.089685 0)
(-0.131233 -0.0832859 0)
(-0.102571 -0.0736742 0)
(-0.0751178 -0.0615225 0)
(-0.0499563 -0.0477834 0)
(-0.0278895 -0.0335152 0)
(-0.00942542 -0.0197191 0)
(0.00529848 -0.00720558 0)
(0.016295 0.00343091 0)
(0.0237665 0.0118031 0)
(0.0279062 0.0177118 0)
(0.0291311 0.02118 0)
(0.0278665 0.0224536 0)
(0.0248211 0.0219859 0)
(0.0205506 0.0203203 0)
(0.0158082 0.0179633 0)
(0.0109365 0.0152203 0)
(0.00655855 0.0120878 0)
(0.00278894 0.00826329 0)
(0.000470125 0.00325553 0)
(0.000436561 -0.00475141 0)
(0.00211382 -0.00963886 0)
(0.00399164 -0.0106589 0)
(0.00482919 -0.00859929 0)
(0.00432169 -0.0047352 0)
(0.00204859 9.91721e-05 0)
(-0.00202675 0.0052163 0)
(-0.00819895 0.0105813 0)
(-0.0167588 0.0163568 0)
(-0.0282136 0.023018 0)
(-0.0430048 0.0308652 0)
(-0.0614466 0.0400452 0)
(-0.0834685 0.050278 0)
(-0.108533 0.0609805 0)
(-0.135625 0.0712456 0)
(-0.16348 0.0801558 0)
(-0.190884 0.0869507 0)
(-0.216901 0.0912232 0)
(-0.240931 0.0928467 0)
(-0.262644 0.0919347 0)
(-0.281912 0.0887051 0)
(-0.298718 0.0834465 0)
(-0.313128 0.0764395 0)
(-0.325239 0.0679601 0)
(-0.335179 0.05824 0)
(-0.343076 0.0474865 0)
(-0.349065 0.0358597 0)
(-0.353254 0.0234988 0)
(-0.355741 0.0105094 0)
(-0.356572 -0.00300609 0)
(-0.355763 -0.0169526 0)
(-0.353261 -0.0312061 0)
(-0.348961 -0.0456105 0)
(-0.342675 -0.0599361 0)
(-0.334161 -0.0738722 0)
(-0.323104 -0.0869896 0)
(-0.309171 -0.098746 0)
(-0.292033 -0.108477 0)
(-0.271461 -0.115453 0)
(-0.247395 -0.118933 0)
(-0.220075 -0.118306 0)
(-0.190098 -0.113211 0)
(-0.158487 -0.103711 0)
(-0.126593 -0.0903569 0)
(-0.0959655 -0.0742009 0)
(-0.068019 -0.0566102 0)
(-0.0438157 -0.0390123 0)
(-0.0238212 -0.0225979 0)
(-0.00806169 -0.00819678 0)
(0.00378217 0.00371531 0)
(0.0120152 0.0128879 0)
(0.0170445 0.0192709 0)
(0.0191848 0.0229816 0)
(0.0189979 0.0243735 0)
(0.0169424 0.0239262 0)
(0.0137636 0.0221967 0)
(0.00988907 0.0195372 0)
(0.00608033 0.0160393 0)
(0.00261212 0.0112918 0)
(0.000436165 0.00467819 0)
(0.000431763 -0.00593968 0)
(0.00177648 -0.0113167 0)
(0.00280477 -0.0116523 0)
(0.00232299 -0.00812842 0)
(4.3928e-05 -0.00248232 0)
(-0.00439107 0.00435001 0)
(-0.0111028 0.0116543 0)
(-0.0204771 0.0195679 0)
(-0.0329552 0.0283566 0)
(-0.0490448 0.0385235 0)
(-0.069019 0.0501627 0)
(-0.0927259 0.0630326 0)
(-0.119454 0.0763133 0)
(-0.148003 0.0889464 0)
(-0.17699 0.0997992 0)
(-0.205159 0.108071 0)
(-0.231609 0.113315 0)
(-0.255777 0.115472 0)
(-0.277389 0.114686 0)
(-0.296343 0.111257 0)
(-0.312677 0.105514 0)
(-0.326497 0.0978199 0)
(-0.337982 0.0884993 0)
(-0.347333 0.0778603 0)
(-0.354785 0.0661489 0)
(-0.360558 0.0535765 0)
(-0.364874 0.0402916 0)
(-0.367917 0.0264122 0)
(-0.369848 0.0120089 0)
(-0.370772 -0.0028585 0)
(-0.370755 -0.0181506 0)
(-0.36979 -0.0338076 0)
(-0.367806 -0.0497506 0)
(-0.364634 -0.0658341 0)
(-0.360012 -0.081838 0)
(-0.353554 -0.0974142 0)
(-0.344776 -0.112077 0)
(-0.333087 -0.125167 0)
(-0.317884 -0.135871 0)
(-0.29861 -0.143253 0)
(-0.274929 -0.146369 0)
(-0.246862 -0.144413 0)
(-0.214981 -0.136938 0)
(-0.180461 -0.124051 0)
(-0.145076 -0.106573 0)
(-0.110901 -0.0859911 0)
(-0.0799392 -0.0642246 0)
(-0.0535735 -0.0431515 0)
(-0.0323684 -0.0242074 0)
(-0.0160679 -0.00817838 0)
(-0.00411351 0.00462889 0)
(0.00416582 0.0142165 0)
(0.00922932 0.0206991 0)
(0.0116299 0.0243866 0)
(0.0117702 0.0256698 0)
(0.0103325 0.0250825 0)
(0.00777017 0.0229505 0)
(0.00488969 0.0194079 0)
(0.00209543 0.0139586 0)
(0.000330709 0.00592203 0)
(0.00037755 -0.00689425 0)
(0.00111703 -0.0121811 0)
(0.000878309 -0.0112796 0)
(-0.00134856 -0.00581598 0)
(-0.00583799 0.00202879 0)
(-0.0128748 0.0112964 0)
(-0.0227103 0.0213225 0)
(-0.0357867 0.032431 0)
(-0.0525921 0.044892 0)
(-0.0733951 0.0590194 0)
(-0.0980193 0.074431 0)
(-0.125638 0.0903034 0)
(-0.15496 0.105316 0)
(-0.18448 0.118241 0)
(-0.212914 0.128113 0)
(-0.239312 0.134495 0)
(-0.26313 0.137299 0)
(-0.284069 0.136743 0)
(-0.302067 0.133157 0)
(-0.317177 0.126976 0)
(-0.329593 0.118625 0)
(-0.33956 0.108541 0)
(-0.347397 0.0970928 0)
(-0.353415 0.0846112 0)
(-0.357944 0.0713394 0)
(-0.361265 0.0574722 0)
(-0.363646 0.0431262 0)
(-0.365294 0.0283832 0)
(-0.366396 0.0132696 0)
(-0.367076 -0.00220136 0)
(-0.367438 -0.0180454 0)
(-0.367517 -0.0342661 0)
(-0.36731 -0.0508644 0)
(-0.36672 -0.0677927 0)
(-0.365566 -0.084951 0)
(-0.363523 -0.102129 0)
(-0.360122 -0.118986 0)
(-0.3547 -0.134987 0)
(-0.346445 -0.149387 0)
(-0.334414 -0.161205 0)
(-0.317686 -0.169288 0)
(-0.29552 -0.172409 0)
(-0.26764 -0.169493 0)
(-0.234466 -0.159889 0)
(-0.197331 -0.143695 0)
(-0.158441 -0.121967 0)
(-0.120598 -0.0967291 0)
(-0.086512 -0.0705668 0)
(-0.0581059 -0.0459721 0)
(-0.0359658 -0.0246343 0)
(-0.0196175 -0.00728508 0)
(-0.00803205 0.00608488 0)
(-0.000323372 0.0157245 0)
(0.00430665 0.0220441 0)
(0.00637302 0.0254223 0)
(0.00654927 0.0263618 0)
(0.00531538 0.0251274 0)
(0.003462 0.0218429 0)
(0.00147939 0.0159644 0)
(0.000212742 0.00682183 0)
(0.000253021 -0.00750527 0)
(7.74585e-05 -0.0119747 0)
(-0.00183477 -0.00924972 0)
(-0.00616908 -0.00139427 0)
(-0.0132166 0.00905742 0)
(-0.023181 0.0212162 0)
(-0.0364594 0.0345117 0)
(-0.0534384 0.0493699 0)
(-0.0744635 0.0658564 0)
(-0.0993045 0.083825 0)
(-0.127194 0.102248 0)
(-0.156719 0.11979 0)
(-0.18636 0.134944 0)
(-0.214692 0.146675 0)
(-0.240757 0.154395 0)
(-0.263915 0.158048 0)
(-0.283894 0.157831 0)
(-0.300599 0.154178 0)
(-0.314175 0.147582 0)
(-0.324858 0.138607 0)
(-0.333026 0.127764 0)
(-0.339063 0.11554 0)
(-0.3434 0.102316 0)
(-0.346401 0.0884071 0)
(-0.348423 0.0740216 0)
(-0.349731 0.0593124 0)
(-0.35057 0.0443494 0)
(-0.351109 0.0291739 0)
(-0.351505 0.0137738 0)
(-0.35186 -0.00186948 0)
(-0.352278 -0.017805 0)
(-0.352817 -0.0340722 0)
(-0.35353 -0.0507214 0)
(-0.354411 -0.0677739 0)
(-0.355409 -0.0852303 0)
(-0.356358 -0.103019 0)
(-0.356964 -0.120981 0)
(-0.356719 -0.138792 0)
(-0.354885 -0.155926 0)
(-0.350446 -0.171571 0)
(-0.342172 -0.184612 0)
(-0.328716 -0.193647 0)
(-0.308888 -0.197123 0)
(-0.281967 -0.193585 0)
(-0.248135 -0.182071 0)
(-0.208775 -0.162557 0)
(-0.166588 -0.136341 0)
(-0.125171 -0.106058 0)
(-0.0881748 -0.0751901 0)
(-0.0580802 -0.0469692 0)
(-0.0355544 -0.0234188 0)
(-0.0196668 -0.00504247 0)
(-0.0090074 0.00849246 0)
(-0.00224638 0.0178671 0)
(0.00150391 0.0236251 0)
(0.00306586 0.0263303 0)
(0.00301142 0.0262246 0)
(0.0021115 0.0234083 0)
(0.000905393 0.0173419 0)
(0.000108546 0.00741754 0)
(3.17617e-05 -0.00746595 0)
(-0.00139948 -0.0102137 0)
(-0.00536332 -0.00507642 0)
(-0.0120966 0.00557756 0)
(-0.0219531 0.0190154 0)
(-0.035031 0.0344837 0)
(-0.0518324 0.0514746 0)
(-0.0725105 0.0703245 0)
(-0.0970731 0.0906427 0)
(-0.124658 0.111649 0)
(-0.154006 0.131739 0)
(-0.183414 0.149356 0)
(-0.211473 0.163154 0)
(-0.237027 0.17249 0)
(-0.259452 0.177172 0)
(-0.278363 0.177471 0)
(-0.29375 0.173836 0)
(-0.305747 0.166913 0)
(-0.314738 0.15735 0)
(-0.321149 0.145817 0)
(-0.325514 0.132874 0)
(-0.328292 0.119007 0)
(-0.329946 0.104555 0)
(-0.330814 0.089777 0)
(-0.331201 0.0748115 0)
(-0.331299 0.0597501 0)
(-0.33128 0.0446078 0)
(-0.331237 0.0293864 0)
(-0.33127 0.0140441 0)
(-0.331434 -0.0014551 0)
(-0.331808 -0.0171728 0)
(-0.332443 -0.0331584 0)
(-0.33342 -0.049478 0)
(-0.334788 -0.066182 0)
(-0.336605 -0.0833258 0)
(-0.338859 -0.100931 0)
(-0.341476 -0.118987 0)
(-0.344215 -0.137384 0)
(-0.346637 -0.155872 0)
(-0.347978 -0.173957 0)
(-0.347131 -0.190821 0)
(-0.342607 -0.205232 0)
(-0.332678 -0.215543 0)
(-0.315626 -0.219805 0)
(-0.290214 -0.216078 0)
(-0.256231 -0.202935 0)
(-0.215054 -0.18013 0)
(-0.169839 -0.149172 0)
(-0.125148 -0.113493 0)
(-0.0856584 -0.0776874 0)
(-0.0545158 -0.0459595 0)
(-0.0322311 -0.0205303 0)
(-0.0173817 -0.00162467 0)
(-0.00798268 0.0116801 0)
(-0.0024846 0.0203029 0)
(0.000330972 0.025061 0)
(0.00126549 0.0262998 0)
(0.00113552 0.0241457 0)
(0.000524835 0.018128 0)
(5.21864e-05 0.00773873 0)
(-0.00029267 -0.00658797 0)
(-0.00327965 -0.00665247 0)
(-0.00956536 0.00141083 0)
(-0.0188509 0.0151793 0)
(-0.0316008 0.0319102 0)
(-0.0477541 0.0509881 0)
(-0.0678251 0.0718514 0)
(-0.0915493 0.0945018 0)
(-0.118498 0.117919 0)
(-0.147232 0.140709 0)
(-0.176263 0.160952 0)
(-0.203885 0.177196 0)
(-0.228993 0.188467 0)
(-0.250716 0.194552 0)
(-0.268755 0.195624 0)
(-0.282983 0.19226 0)
(-0.293694 0.185162 0)
(-0.301262 0.175167 0)
(-0.306297 0.16304 0)
(-0.309346 0.149493 0)
(-0.311009 0.135057 0)
(-0.311722 0.120154 0)
(-0.311892 0.105029 0)
(-0.311754 0.0898533 0)
(-0.31152 0.0746825 0)
(-0.31127 0.0595459 0)
(-0.311096 0.0444128 0)
(-0.31101 0.0292593 0)
(-0.311057 0.0140307 0)
(-0.311242 -0.00130868 0)
(-0.311617 -0.0168139 0)
(-0.312212 -0.0325222 0)
(-0.313109 -0.0484888 0)
(-0.314372 -0.0647577 0)
(-0.316111 -0.0813919 0)
(-0.318402 -0.098446 0)
(-0.321327 -0.115983 0)
(-0.324877 -0.134032 0)
(-0.328935 -0.152569 0)
(-0.333139 -0.171425 0)
(-0.336813 -0.190197 0)
(-0.338812 -0.208096 0)
(-0.337503 -0.223822 0)
(-0.330804 -0.235486 0)
(-0.316495 -0.240704 0)
(-0.292735 -0.236936 0)
(-0.258847 -0.222162 0)
(-0.216097 -0.195791 0)
(-0.168158 -0.159611 0)
(-0.12064 -0.11806 0)
(-0.0794219 -0.0772367 0)
(-0.0481518 -0.0423522 0)
(-0.0269642 -0.0157427 0)
(-0.013661 0.00308544 0)
(-0.00586149 0.0154816 0)
(-0.00166978 0.0227735 0)
(0.000152199 0.0256311 0)
(0.00060852 0.0243415 0)
(0.000367947 0.0185836 0)
(4.51262e-05 0.0079573 0)
(-0.00072494 -0.00456041 0)
(-0.00551284 -0.000936722 0)
(-0.0142761 0.0104737 0)
(-0.0261349 0.0275785 0)
(-0.0416909 0.0478044 0)
(-0.0606408 0.0705936 0)
(-0.0834041 0.0951572 0)
(-0.109185 0.120956 0)
(-0.13716 0.146325 0)
(-0.165504 0.16945 0)
(-0.192768 0.188411 0)
(-0.217423 0.202088 0)
(-0.238726 0.209958 0)
(-0.256088 0.212224 0)
(-0.269554 0.209419 0)
(-0.279283 0.202424 0)
(-0.285868 0.192168 0)
(-0.289875 0.17962 0)
(-0.29205 0.165577 0)
(-0.292947 0.150705 0)
(-0.293131 0.135439 0)
(-0.292926 0.120081 0)
(-0.292629 0.104765 0)
(-0.292346 0.0895636 0)
(-0.292186 0.0744593 0)
(-0.292135 0.0594328 0)
(-0.29222 0.0444248 0)
(-0.292393 0.0294 0)
(-0.292669 0.0143041 0)
(-0.293016 -0.000889188 0)
(-0.293471 -0.0162205 0)
(-0.29404 -0.0317084 0)
(-0.294795 -0.047388 0)
(-0.295791 -0.0632837 0)
(-0.297143 -0.079442 0)
(-0.298952 -0.0959124 0)
(-0.301364 -0.112771 0)
(-0.304488 -0.130103 0)
(-0.308418 -0.147999 0)
(-0.313116 -0.166507 0)
(-0.318357 -0.185569 0)
(-0.323543 -0.204877 0)
(-0.327589 -0.223709 0)
(-0.32876 -0.240709 0)
(-0.324714 -0.25375 0)
(-0.312738 -0.259957 0)
(-0.290397 -0.256093 0)
(-0.256487 -0.239396 0)
(-0.212169 -0.208898 0)
(-0.161702 -0.166771 0)
(-0.11196 -0.118919 0)
(-0.0700546 -0.0732724 0)
(-0.039868 -0.0361315 0)
(-0.0206211 -0.00928446 0)
(-0.00934662 0.00850415 0)
(-0.00326002 0.0192548 0)
(-0.000445885 0.024238 0)
(0.00049925 0.0241273 0)
(0.000429513 0.0188608 0)
(8.74613e-05 0.00816421 0)
(-0.00123372 -0.00125059 0)
(-0.00793534 0.00697872 0)
(-0.0191607 0.0220091 0)
(-0.0334417 0.042531 0)
(-0.0515164 0.0662768 0)
(-0.0727495 0.0926031 0)
(-0.0973864 0.120335 0)
(-0.124088 0.148294 0)
(-0.151788 0.174309 0)
(-0.178488 0.196408 0)
(-0.202978 0.212928 0)
(-0.223979 0.223191 0)
(-0.24113 0.227144 0)
(-0.254136 0.225399 0)
(-0.263403 0.218848 0)
(-0.269352 0.208636 0)
(-0.272812 0.195846 0)
(-0.27443 0.181477 0)
(-0.274968 0.166258 0)
(-0.274886 0.150733 0)
(-0.274637 0.135188 0)
(-0.274391 0.119794 0)
(-0.274326 0.10457 0)
(-0.274426 0.0895124 0)
(-0.274726 0.0745514 0)
(-0.275142 0.0596422 0)
(-0.275669 0.0447168 0)
(-0.276226 0.0297435 0)
(-0.276815 0.0146788 0)
(-0.277388 -0.000488193 0)
(-0.277972 -0.0157794 0)
(-0.278557 -0.0311933 0)
(-0.279204 -0.0467422 0)
(-0.279947 -0.0624266 0)
(-0.280886 -0.0782676 0)
(-0.282107 -0.0942906 0)
(-0.283759 -0.110553 0)
(-0.285985 -0.127137 0)
(-0.288967 -0.144163 0)
(-0.292842 -0.161778 0)
(-0.297689 -0.18012 0)
(-0.303374 -0.199237 0)
(-0.309426 -0.218936 0)
(-0.314805 -0.238562 0)
(-0.317734 -0.256704 0)
(-0.31563 -0.270963 0)
(-0.305345 -0.277909 0)
(-0.283859 -0.273487 0)
(-0.249477 -0.254112 0)
(-0.203347 -0.218431 0)
(-0.150527 -0.169393 0)
(-0.0994021 -0.114906 0)
(-0.0582742 -0.0652881 0)
(-0.0305615 -0.0272624 0)
(-0.0140738 -0.00162703 0)
(-0.00512108 0.014118 0)
(-0.000909798 0.022098 0)
(0.000605759 0.0236641 0)
(0.000620076 0.0191699 0)
(0.000159309 0.00850265 0)
(-0.00178949 0.00350526 0)
(-0.0104041 0.0171735 0)
(-0.0239391 0.0359728 0)
(-0.0403556 0.0598749 0)
(-0.0604975 0.086995 0)
(-0.0833333 0.116433 0)
(-0.108915 0.146527 0)
(-0.135443 0.17549 0)
(-0.161791 0.200869 0)
(-0.185972 0.220785 0)
(-0.207117 0.233998 0)
(-0.224227 0.240317 0)
(-0.237331 0.240164 0)
(-0.246427 0.234552 0)
(-0.252258 0.224696 0)
(-0.255422 0.211919 0)
(-0.256872 0.197345 0)
(-0.257209 0.181894 0)
(-0.257121 0.166151 0)
(-0.256901 0.150489 0)
(-0.256869 0.13504 0)
(-0.257044 0.119851 0)
(-0.257509 0.104859 0)
(-0.258163 0.0900054 0)
(-0.259 0.0751991 0)
(-0.259902 0.0603882 0)
(-0.260856 0.04551 0)
(-0.261773 0.0305434 0)
(-0.262657 0.015459 0)
(-0.263454 0.000260452 0)
(-0.264192 -0.0150587 0)
(-0.26485 -0.0304816 0)
(-0.26548 -0.0460036 0)
(-0.266094 -0.0616072 0)
(-0.266772 -0.0772909 0)
(-0.267568 -0.0930552 0)
(-0.268605 -0.108927 0)
(-0.269999 -0.124958 0)
(-0.271937 -0.141247 0)
(-0.274604 -0.157947 0)
(-0.278221 -0.175261 0)
(-0.282933 -0.193423 0)
(-0.288729 -0.21259 0)
(-0.295228 -0.23269 0)
(-0.301445 -0.253108 0)
(-0.305534 -0.272342 0)
(-0.304674 -0.287631 0)
(-0.29529 -0.294867 0)
(-0.27382 -0.289055 0)
(-0.238207 -0.265702 0)
(-0.189801 -0.223325 0)
(-0.134869 -0.166202 0)
(-0.0836003 -0.105329 0)
(-0.0451271 -0.0533331 0)
(-0.0212626 -0.0165692 0)
(-0.00807582 0.00644129 0)
(-0.00172787 0.018796 0)
(0.000665078 0.0228323 0)
(0.000833451 0.0195141 0)
(0.00024192 0.00899067 0)
(-0.00232776 0.00964312 0)
(-0.0126896 0.0294002 0)
(-0.0282243 0.051957 0)
(-0.0463557 0.0790356 0)
(-0.0679899 0.109169 0)
(-0.0916743 0.14106 0)
(-0.117302 0.172551 0)
(-0.142745 0.201364 0)
(-0.166984 0.225013 0)
(-0.188158 0.241893 0)
(-0.205792 0.251283 0)
(-0.219163 0.253481 0)
(-0.228691 0.249387 0)
(-0.234628 0.24037 0)
(-0.237975 0.227885 0)
(-0.239389 0.213309 0)
(-0.239829 0.197697 0)
(-0.239762 0.1818 0)
(-0.239743 0.166017 0)
(-0.239887 0.150542 0)
(-0.240392 0.135375 0)
(-0.24116 0.120468 0)
(-0.242218 0.105708 0)
(-0.243413 0.091014 0)
(-0.244733 0.0762923 0)
(-0.246046 0.0614984 0)
(-0.247352 0.0465841 0)
(-0.248559 0.0315421 0)
(-0.249684 0.0163584 0)
(-0.25067 0.00104948 0)
(-0.251552 -0.0143773 0)
(-0.252301 -0.0298941 0)
(-0.252964 -0.0454825 0)
(-0.25354 -0.0611133 0)
(-0.254089 -0.0767678 0)
(-0.25464 -0.0924287 0)
(-0.255282 -0.108095 0)
(-0.25609 -0.123788 0)
(-0.257209 -0.139562 0)
(-0.258797 -0.155533 0)
(-0.261091 -0.171879 0)
(-0.264338 -0.188876 0)
(-0.26878 -0.206842 0)
(-0.274497 -0.226073 0)
(-0.281203 -0.246596 0)
(-0.287935 -0.267834 0)
(-0.292724 -0.288089 0)
(-0.292463 -0.3041 0)
(-0.283099 -0.310881 0)
(-0.26062 -0.302314 0)
(-0.222774 -0.273072 0)
(-0.171602 -0.221942 0)
(-0.115107 -0.155818 0)
(-0.0656124 -0.0897085 0)
(-0.0319636 -0.0382412 0)
(-0.0129242 -0.0049062 0)
(-0.00341529 0.013746 0)
(0.000386829 0.0214084 0)
(0.000944877 0.0198505 0)
(0.000311381 0.00964574 0)
(-0.00280631 0.0170848 0)
(-0.0146497 0.0434551 0)
(-0.0317832 0.0696711 0)
(-0.0511382 0.0996324 0)
(-0.0736367 0.132298 0)
(-0.0974326 0.165876 0)
(-0.12233 0.197783 0)
(-0.146017 0.225418 0)
(-0.167699 0.24648 0)
(-0.185712 0.25976 0)
(-0.199977 0.265102 0)
(-0.21004 0.263285 0)
(-0.216671 0.255657 0)
(-0.220303 0.243862 0)
(-0.222081 0.229475 0)
(-0.222612 0.213806 0)
(-0.222773 0.197751 0)
(-0.222851 0.181848 0)
(-0.223256 0.166306 0)
(-0.22395 0.151164 0)
(-0.225044 0.136325 0)
(-0.226363 0.121682 0)
(-0.227916 0.107105 0)
(-0.22953 0.09251 0)
(-0.231204 0.0778162 0)
(-0.23281 0.0629915 0)
(-0.234364 0.0480043 0)
(-0.235779 0.0328588 0)
(-0.237084 0.0175545 0)
(-0.238223 0.00211588 0)
(-0.239234 -0.0134393 0)
(-0.240085 -0.0290767 0)
(-0.24082 -0.0447689 0)
(-0.241429 -0.0604804 0)
(-0.241962 -0.0761817 0)
(-0.242428 -0.0918464 0)
(-0.242892 -0.107454 0)
(-0.243391 -0.123005 0)
(-0.244026 -0.138514 0)
(-0.244899 -0.154052 0)
(-0.246194 -0.169734 0)
(-0.248137 -0.185789 0)
(-0.251035 -0.202534 0)
(-0.255191 -0.220412 0)
(-0.260781 -0.239825 0)
(-0.267595 -0.260928 0)
(-0.27463 -0.283096 0)
(-0.279747 -0.304327 0)
(-0.279407 -0.320614 0)
(-0.269089 -0.325799 0)
(-0.244341 -0.312499 0)
(-0.203165 -0.274675 0)
(-0.148879 -0.212537 0)
(-0.0921062 -0.137171 0)
(-0.0470935 -0.0689676 0)
(-0.0201977 -0.0214039 0)
(-0.00636342 0.00604507 0)
(-0.000435163 0.0189071 0)
(0.000872137 0.0199408 0)
(0.000354742 0.0103736 0)
(-0.00316171 0.0255388 0)
(-0.0160975 0.0588503 0)
(-0.0343424 0.0885037 0)
(-0.0543846 0.12092 0)
(-0.0771229 0.155503 0)
(-0.100381 0.189944 0)
(-0.123954 0.221355 0)
(-0.145474 0.246987 0)
(-0.164438 0.264889 0)
(-0.179406 0.27431 0)
(-0.190678 0.275671 0)
(-0.198034 0.270202 0)
(-0.202525 0.259633 0)
(-0.204665 0.245763 0)
(-0.205639 0.230171 0)
(-0.205922 0.213997 0)
(-0.206266 0.197932 0)
(-0.206768 0.18229 0)
(-0.207724 0.167117 0)
(-0.208974 0.152332 0)
(-0.210586 0.137783 0)
(-0.212347 0.123335 0)
(-0.21427 0.108863 0)
(-0.216181 0.0942923 0)
(-0.218101 0.0795616 0)
(-0.219909 0.0646513 0)
(-0.221638 0.049546 0)
(-0.223204 0.0342585 0)
(-0.224646 0.0187996 0)
(-0.225906 0.00319979 0)
(-0.227026 -0.0125141 0)
(-0.227969 -0.0283036 0)
(-0.228781 -0.0441326 0)
(-0.229442 -0.0599624 0)
(-0.230001 -0.0757549 0)
(-0.230453 -0.0914799 0)
(-0.230853 -0.107105 0)
(-0.231213 -0.122621 0)
(-0.231602 -0.138016 0)
(-0.232074 -0.153327 0)
(-0.232749 -0.168609 0)
(-0.233788 -0.184025 0)
(-0.235445 -0.19981 0)
(-0.238056 -0.21639 0)
(-0.24199 -0.234282 0)
(-0.247511 -0.25406 0)
(-0.254418 -0.275932 0)
(-0.261649 -0.299174 0)
(-0.266701 -0.321242 0)
(-0.265577 -0.337044 0)
(-0.253105 -0.338912 0)
(-0.224729 -0.317974 0)
(-0.179116 -0.268264 0)
(-0.122043 -0.192954 0)
(-0.0674043 -0.110446 0)
(-0.0302219 -0.044867 0)
(-0.0108211 -0.00522384 0)
(-0.00191651 0.0147769 0)
(0.000578092 0.0195398 0)
(0.000365233 0.0110978 0)
(-0.00337222 0.0347266 0)
(-0.0169749 0.0752178 0)
(-0.0358286 0.108077 0)
(-0.0560396 0.142512 0)
(-0.0784532 0.178405 0)
(-0.100655 0.21296 0)
(-0.122498 0.243126 0)
(-0.14166 0.266159 0)
(-0.157953 0.280577 0)
(-0.170167 0.286113 0)
(-0.178935 0.283755 0)
(-0.184222 0.275123 0)
(-0.187269 0.26224 0)
(-0.18858 0.246937 0)
(-0.189292 0.230691 0)
(-0.18971 0.214414 0)
(-0.190449 0.198582 0)
(-0.191448 0.183303 0)
(-0.192916 0.168505 0)
(-0.194621 0.154023 0)
(-0.196618 0.139687 0)
(-0.198681 0.125357 0)
(-0.200844 0.110926 0)
(-0.202942 0.0963313 0)
(-0.205018 0.0815325 0)
(-0.206957 0.0665192 0)
(-0.208807 0.0512887 0)
(-0.210485 0.035858 0)
(-0.212036 0.0202468 0)
(-0.213399 0.00448762 0)
(-0.21462 -0.0113848 0)
(-0.215655 -0.0273299 0)
(-0.21655 -0.043304 0)
(-0.217281 -0.0592673 0)
(-0.217896 -0.0751739 0)
(-0.218384 -0.0909942 0)
(-0.218793 -0.106687 0)
(-0.219126 -0.122243 0)
(-0.219431 -0.137632 0)
(-0.219732 -0.152878 0)
(-0.220099 -0.167989 0)
(-0.220623 -0.18307 0)
(-0.221476 -0.198257 0)
(-0.222926 -0.213885 0)
(-0.225342 -0.230414 0)
(-0.22918 -0.248548 0)
(-0.234724 -0.268954 0)
(-0.241802 -0.29191 0)
(-0.24907 -0.316378 0)
(-0.253646 -0.338954 0)
(-0.250742 -0.353004 0)
(-0.234767 -0.348842 0)
(-0.201172 -0.316395 0)
(-0.150539 -0.250863 0)
(-0.0920627 -0.162098 0)
(-0.0437208 -0.0775309 0)
(-0.0167876 -0.0212072 0)
(-0.00416974 0.00833478 0)
(8.32475e-05 0.0183035 0)
(0.000340378 0.0116997 0)
(-0.00340395 0.0442201 0)
(-0.0171979 0.0919625 0)
(-0.0361486 0.12773 0)
(-0.0560419 0.163687 0)
(-0.0776491 0.200265 0)
(-0.0984142 0.23426 0)
(-0.118299 0.262597 0)
(-0.135095 0.282665 0)
(-0.148923 0.293512 0)
(-0.158784 0.295349 0)
(-0.165583 0.289696 0)
(-0.169408 0.278477 0)
(-0.171592 0.263901 0)
(-0.172561 0.247717 0)
(-0.173353 0.231239 0)
(-0.174099 0.215122 0)
(-0.175292 0.199644 0)
(-0.176749 0.184745 0)
(-0.178633 0.170277 0)
(-0.180671 0.156027 0)
(-0.18293 0.141831 0)
(-0.185185 0.127554 0)
(-0.187498 0.113115 0)
(-0.189711 0.0984618 0)
(-0.191888 0.0835719 0)
(-0.193919 0.0684398 0)
(-0.195861 0.0530727 0)
(-0.197629 0.0374889 0)
(-0.199273 0.0217154 0)
(-0.200727 0.00578593 0)
(-0.202037 -0.010257 0)
(-0.203156 -0.0263712 0)
(-0.204129 -0.0425041 0)
(-0.204927 -0.058615 0)
(-0.205599 -0.0746495 0)
(-0.206129 -0.0905793 0)
(-0.206567 -0.106356 0)
(-0.20691 -0.121973 0)
(-0.207202 -0.137392 0)
(-0.207449 -0.152637 0)
(-0.207696 -0.167688 0)
(-0.207985 -0.182619 0)
(-0.208409 -0.197485 0)
(-0.209141 -0.212519 0)
(-0.21046 -0.228044 0)
(-0.212816 -0.244708 0)
(-0.21668 -0.26331 0)
(-0.222438 -0.284723 0)
(-0.229707 -0.309112 0)
(-0.236888 -0.334877 0)
(-0.240261 -0.357233 0)
(-0.234413 -0.36729 0)
(-0.213155 -0.353165 0)
(-0.173056 -0.304021 0)
(-0.117622 -0.21961 0)
(-0.0613926 -0.120613 0)
(-0.0242973 -0.0436289 0)
(-0.00730996 -0.000958918 0)
(-0.000615085 0.0158472 0)
(0.000292203 0.0121192 0)
(-0.0032693 0.0536716 0)
(-0.0168091 0.108706 0)
(-0.0353908 0.147154 0)
(-0.0545552 0.184216 0)
(-0.0749802 0.220968 0)
(-0.094065 0.2539 0)
(-0.111902 0.280036 0)
(-0.126448 0.296981 0)
(-0.138091 0.304345 0)
(-0.146021 0.302792 0)
(-0.151342 0.294314 0)
(-0.154202 0.281052 0)
(-0.155946 0.265295 0)
(-0.156878 0.24863 0)
(-0.157918 0.232174 0)
(-0.159037 0.216329 0)
(-0.160637 0.201213 0)
(-0.162452 0.18664 0)
(-0.164627 0.172419 0)
(-0.166876 0.158319 0)
(-0.169286 0.144194 0)
(-0.171643 0.129922 0)
(-0.174033 0.115445 0)
(-0.176307 0.100719 0)
(-0.178546 0.085736 0)
(-0.180638 0.0704895 0)
(-0.182649 0.0549945 0)
(-0.184491 0.039267 0)
(-0.186216 0.0233404 0)
(-0.187754 0.00724751 0)
(-0.189151 -0.00896132 0)
(-0.190355 -0.0252439 0)
(-0.191411 -0.0415382 0)
(-0.192287 -0.057804 0)
(-0.193029 -0.0739767 0)
(-0.193621 -0.0900311 0)
(-0.194111 -0.105909 0)
(-0.194494 -0.121611 0)
(-0.194814 -0.137089 0)
(-0.195073 -0.152377 0)
(-0.195304 -0.167438 0)
(-0.195524 -0.18234 0)
(-0.195775 -0.197082 0)
(-0.196152 -0.211826 0)
(-0.196816 -0.226748 0)
(-0.198119 -0.242355 0)