/*--------------------------------*- C++ -*----------------------------------*\
| =========                 |                                                 |
| \\      /  F ield         | OpenFOAM: The Open Source CFD Toolbox           |
|  \\    /   O peration     | Version:  2406                                  |
|   \\  /    A nd           | Website:  www.openfoam.com                      |
|    \\/     M anipulation  |                                                 |
\*---------------------------------------------------------------------------*/
FoamFile
{
    version     2.0;
    format      ascii;
    arch        "LSB;label=32;scalar=64";
    class       surfaceScalarField;
    location    "32.35";
    object      phi;
}
// * * * * * * * * * * * * * * * * * * * * * * * * * * * * * * * * * * * * * //

dimensions      [0 3 -1 0 0 0 0];

oriented        oriented;

internalField   nonuniform List<scalar> 
7080
(
1.87578e-07
-1.87126e-07
1.2152e-06
-1.03679e-06
2.70941e-06
-1.49233e-06
4.25505e-06
-1.55458e-06
5.52586e-06
-1.26956e-06
6.36906e-06
-8.49089e-07
6.79849e-06
-4.27317e-07
6.90439e-06
-1.08381e-07
6.82026e-06
8.72075e-08
6.62918e-06
1.91265e-07
6.36518e-06
2.67995e-07
5.9763e-06
3.91506e-07
5.36681e-06
6.15201e-07
4.39917e-06
9.73496e-07
2.9339e-06
1.47417e-06
8.2518e-07
2.11908e-06
-2.0614e-06
2.90015e-06
-5.85516e-06
3.80962e-06
-1.06653e-05
4.82919e-06
-1.65778e-05
5.93452e-06
-2.3633e-05
7.08109e-06
-3.18052e-05
8.20202e-06
-4.09725e-05
9.20041e-06
-5.08996e-05
9.96199e-06
-6.12276e-05
1.03626e-05
-7.14834e-05
1.02877e-05
-8.11027e-05
9.64613e-06
-8.94714e-05
8.38909e-06
-9.59735e-05
6.51474e-06
-0.000100041
4.07197e-06
-0.000101197
1.15196e-06
-9.90954e-05
-2.11435e-06
-9.35506e-05
-5.56517e-06
-8.45697e-05
-9.00853e-06
-7.23722e-05
-1.22313e-05
-5.74078e-05
-1.50034e-05
-4.03548e-05
-1.70957e-05
-2.21034e-05
-1.82967e-05
-3.70414e-06
-1.84449e-05
1.37077e-05
-1.74571e-05
2.90286e-05
-1.53623e-05
4.13105e-05
-1.23195e-05
4.98983e-05
-8.61724e-06
5.45221e-05
-4.6463e-06
5.53475e-05
-8.36961e-07
5.29303e-05
2.41305e-06
4.81111e-05
4.82587e-06
4.18362e-05
6.28538e-06
3.5e-05
6.85442e-06
2.82992e-05
6.71715e-06
2.21987e-05
6.12148e-06
1.69208e-05
5.29213e-06
1.25262e-05
4.41319e-06
8.94814e-06
3.587e-06
6.07548e-06
2.88804e-06
3.77739e-06
2.30178e-06
1.965e-06
1.82516e-06
6.6373e-07
1.3007e-06
-3.94137e-08
7.13358e-07
-3.93179e-08
9.75306e-07
-1.15372e-06
3.38582e-06
-3.44846e-06
6.50642e-06
-4.5989e-06
9.58366e-06
-4.63034e-06
1.20683e-05
-3.74338e-06
1.36426e-05
-2.42327e-06
1.42694e-05
-1.04889e-06
1.40329e-05
1.25237e-07
1.30939e-05
1.02621e-06
1.15292e-05
1.75048e-06
9.3209e-06
2.47208e-06
6.29635e-06
3.40748e-06
2.19206e-06
4.71028e-06
-3.33124e-06
6.48301e-06
-1.06164e-05
8.74278e-06
-1.99935e-05
1.14743e-05
-3.17306e-05
1.4611e-05
-4.60109e-05
1.80582e-05
-6.28665e-05
2.16485e-05
-8.21189e-05
2.51453e-05
-0.000103323
2.82374e-05
-0.000125775
3.05989e-05
-0.000148565
3.19293e-05
-0.000170678
3.20102e-05
-0.000191095
3.07148e-05
-0.000208885
2.80172e-05
-0.000223257
2.39672e-05
-0.000233588
1.86816e-05
-0.000239417
1.23207e-05
-0.000240438
5.08546e-06
-0.000236481
-2.79513e-06
-0.000227512
-1.10565e-05
-0.000213631
-1.94033e-05
-0.000195085
-2.74972e-05
-0.000172281
-3.49642e-05
-0.000145812
-4.13919e-05
-0.000116463
-4.6357e-05
-8.52204e-05
-4.94476e-05
-5.32499e-05
-5.03226e-05
-2.18575e-05
-4.87604e-05
7.59528e-06
-4.47322e-05
3.37862e-05
-3.84394e-05
5.5566e-05
-3.03393e-05
7.2068e-05
-2.11092e-05
8.28243e-05
-1.15709e-05
8.7816e-05
-2.57639e-06
8.75017e-05
5.12885e-06
8.27492e-05
1.10114e-05
7.47356e-05
1.48373e-05
6.47429e-05
1.66719e-05
5.39893e-05
1.68422e-05
4.34334e-05
1.58121e-05
3.37343e-05
1.40869e-05
2.52129e-05
1.20791e-05
1.79716e-05
1.01132e-05
1.19446e-05
8.30574e-06
7.06208e-06
6.7002e-06
3.32083e-06
5.02355e-06
8.69932e-07
3.16406e-06
8.20158e-07
1.49083e-06
-2.6442e-06
4.75465e-06
-6.72664e-06
8.74107e-06
-8.58332e-06
1.24263e-05
-8.32762e-06
1.51605e-05
-6.47722e-06
1.65445e-05
-3.81442e-06
1.65115e-05
-1.01368e-06
1.50951e-05
1.53976e-06
1.23908e-05
3.73503e-06
8.363e-06
5.78071e-06
2.84427e-06
7.99778e-06
-4.51856e-06
1.0777e-05
-1.41702e-05
1.43726e-05
-2.66048e-05
1.89298e-05
-4.22603e-05
2.4415e-05
-6.14599e-05
3.06942e-05
-8.42941e-05
3.74708e-05
-0.000110523
4.43166e-05
-0.000139495
5.06551e-05
-0.000170194
5.58814e-05
-0.000201363
5.94484e-05
-0.000231702
6.09852e-05
-0.000260027
6.03063e-05
-0.000285373
5.74113e-05
-0.000307021
5.24168e-05
-0.000324475
4.5522e-05
-0.000337419
3.6954e-05
-0.000345664
2.69597e-05
-0.000349106
1.57826e-05
-0.000347693
3.67873e-06
-0.00034141
-9.08748e-06
-0.000330275
-2.22159e-05
-0.000314349
-3.53673e-05
-0.000293764
-4.81342e-05
-0.000268748
-6.00441e-05
-0.000239668
-7.05452e-05
-0.000207066
-7.90394e-05
-0.000171693
-8.49058e-05
-0.000134515
-8.75845e-05
-9.67112e-05
-8.66462e-05
-5.96076e-05
-8.191e-05
-2.46025e-05
-7.35093e-05
6.96435e-06
-6.19563e-05
3.39215e-05
-4.81026e-05
5.53909e-05
-3.30587e-05
7.08442e-05
-1.80351e-05
8.01631e-05
-4.17982e-06
8.36313e-05
7.56055e-06
8.19466e-05
1.65492e-05
7.6133e-05
2.25118e-05
6.74491e-05
2.55576e-05
5.71645e-05
2.6121e-05
4.64221e-05
2.48579e-05
3.60492e-05
2.24694e-05
2.65928e-05
1.95938e-05
1.82873e-05
1.66206e-05
1.12771e-05
1.37311e-05
5.63947e-06
1.06622e-05
1.70331e-06
7.11901e-06
2.52488e-06
1.81364e-06
-4.44911e-06
5.4965e-06
-1.0416e-05
9.67661e-06
-1.27508e-05
1.31334e-05
-1.17874e-05
1.51942e-05
-8.52983e-06
1.54503e-05
-4.07292e-06
1.38266e-05
6.13369e-07
1.02755e-05
5.08695e-06
4.74885e-06
9.26062e-06
-2.99694e-06
1.35206e-05
-1.33589e-05
1.83548e-05
-2.68948e-05
2.43044e-05
-4.41713e-05
3.16401e-05
-6.56646e-05
4.04108e-05
-9.15865e-05
5.03229e-05
-0.000121754
6.08443e-05
-0.000155468
7.11629e-05
-0.000191547
8.03705e-05
-0.000228513
8.75912e-05
-0.000264864
9.22005e-05
-0.00029931
9.38574e-05
-0.000330881
9.25168e-05
-0.000358934
8.83171e-05
-0.00038309
8.1524e-05
-0.000403151
7.24354e-05
-0.000419029
6.13631e-05
-0.000430694
4.85876e-05
-0.000438132
3.43744e-05
-0.00044132
1.89584e-05
-0.00044022
2.57679e-06
-0.000434766
-1.45313e-05
-0.000424877
-3.20833e-05
-0.000410466
-4.97461e-05
-0.000391466
-6.70915e-05
-0.000367863
-8.35945e-05
-0.000339746
-9.86023e-05
-0.000307356
-0.000111364
-0.000271148
-0.000121045
-0.000231837
-0.000126825
-0.00019043
-0.000127987
-0.000148201
-0.000124077
-0.00010663
-0.000115027
-6.72598e-05
-0.000101282
-3.15407e-05
-8.379e-05
-6.5258e-07
-6.39256e-05
2.45829e-05
-4.32633e-05
4.37508e-05
-2.33487e-05
5.67847e-05
-5.48608e-06
6.39569e-05
9.36155e-06
6.58283e-05
2.0617e-05
6.32711e-05
2.80948e-05
5.73552e-05
3.20114e-05
4.92751e-05
3.29212e-05
4.01128e-05
3.16085e-05
3.07956e-05
2.89006e-05
2.19274e-05
2.5468e-05
1.3984e-05
2.16718e-05
7.25204e-06
1.73737e-05
2.31456e-06
1.20612e-05
4.82622e-06
1.98177e-06
-6.42773e-06
5.7171e-06
-1.41645e-05
9.53694e-06
-1.65645e-05
1.2072e-05
-1.43314e-05
1.26649e-05
-9.11922e-06
1.09336e-05
-2.34586e-06
6.79588e-06
4.75472e-06
9.35986e-08
1.17892e-05
-9.42004e-06
1.87792e-05
-2.22398e-05
2.6344e-05
-3.89814e-05
3.51033e-05
-6.02929e-05
4.56232e-05
-8.66095e-05
5.79668e-05
-0.000117975
7.17877e-05
-0.000153846
8.62074e-05
-0.000193071
0.000100085
-0.000234047
0.000112158
-0.000275062
0.000121408
-0.000314613
0.000127167
-0.000351587
0.000129202
-0.000385271
0.000127571
-0.000415275
0.000122553
-0.000441429
0.000114505
-0.000463698
0.000103827
-0.000482118
9.08878e-05
-0.00049676
7.60316e-05
-0.000507693
5.95414e-05
-0.000514975
4.16698e-05
-0.000518632
2.26204e-05
-0.00051865
2.59087e-06
-0.000514964
-1.82316e-05
-0.000507451
-3.96182e-05
-0.000495936
-6.12917e-05
-0.000480199
-8.28671e-05
-0.000459998
-0.000103841
-0.000435112
-0.000123538
-0.000405403
-0.000141126
-0.000370902
-0.000155601
-0.000331901
-0.000165881
-0.000289052
-0.000170888
-0.000243427
-0.000169749
-0.000196519
-0.000161979
-0.000150129
-0.000147706
-0.000106176
-0.00012777
-6.63942e-05
-0.000103724
-3.20931e-05
-7.75731e-05
-4.00096e-06
-5.14383e-05
1.76681e-05
-2.71483e-05
3.3093e-05
-6.04759e-06
4.26716e-05
1.10532e-05
4.70173e-05
2.37702e-05
4.69098e-05
3.21339e-05
4.33411e-05
3.65109e-05
3.73475e-05
3.76127e-05
2.99878e-05
3.62797e-05
2.2105e-05
3.33553e-05
1.44713e-05
2.93244e-05
7.64144e-06
2.42003e-05
2.46539e-06
1.72578e-05
7.29129e-06
2.03288e-06
-8.45394e-06
5.42804e-06
-1.75682e-05
8.27519e-06
-1.94022e-05
9.15163e-06
-1.52126e-05
7.47314e-06
-7.4361e-06
2.90883e-06
2.21492e-06
-4.6619e-06
1.2326e-05
-1.55578e-05
2.26809e-05
-3.02665e-05
3.3485e-05
-4.95005e-05
4.55723e-05
-7.39329e-05
5.95299e-05
-0.000103972
7.56544e-05
-0.000139447
9.34333e-05
-0.000179483
0.000111813
-0.000222539
0.000129251
-0.000266733
0.000144265
-0.000310247
0.000155654
-0.000351638
0.000162781
-0.000389937
0.000165443
-0.000424586
0.000163828
-0.000455333
0.000158293
-0.000482128
0.000149321
-0.000505044
0.000137393
-0.000524236
0.000122991
-0.000539896
0.000106523
-0.000552239
8.83525e-05
-0.000561471
6.87567e-05
-0.000567776
4.79652e-05
-0.000571295
2.61365e-05
-0.000572109
3.40864e-06
-0.000570218
-2.01116e-05
-0.000565529
-4.42886e-05
-0.000557842
-6.8954e-05
-0.000546843
-9.38366e-05
-0.000532104
-0.000118545
-0.000513113
-0.000142492
-0.000489314
-0.000164884
-0.000460202
-0.000184671
-0.000425445
-0.000200595
-0.000385044
-0.000211248
-0.000339498
-0.000215256
-0.000289945
-0.000211498
-0.000238182
-0.000199439
-0.000186545
-0.000179385
-0.000137569
-0.000152683
-9.35364e-05
-0.000121599
-5.60152e-05
-8.8958e-05
-2.56832e-05
-5.74876e-05
-2.43382e-06
-2.93051e-05
1.42487e-05
-5.64415e-06
2.50573e-05
1.29503e-05
3.07127e-05
2.64613e-05
3.2058e-05
3.51558e-05
2.99928e-05
3.96608e-05
2.55378e-05
4.0729e-05
1.96244e-05
3.92519e-05
1.32082e-05
3.57406e-05
7.07872e-06
3.03112e-05
2.2847e-06
2.2058e-05
9.56355e-06
1.92618e-06
-1.03764e-05
4.53728e-06
-2.01879e-05
5.79044e-06
-2.06496e-05
4.3219e-06
-1.37481e-05
-3.40372e-07
-2.77038e-06
-8.48544e-06
1.03598e-05
-2.03247e-05
2.41685e-05
-3.63655e-05
3.87247e-05
-5.72886e-05
5.44125e-05
-8.38253e-05
7.21145e-05
-0.000116345
9.20558e-05
-0.000154556
0.000113873
-0.000197321
0.000136206
-0.000242828
0.00015733
-0.000288989
0.000175422
-0.000333907
0.000189197
-0.000376155
0.000197915
-0.000414813
0.000201456
-0.000449388
0.000200034
-0.000479687
0.000194146
-0.000505732
0.000184358
-0.000527697
0.000171306
-0.000545856
0.000155572
-0.000560551
0.000137706
-0.000572156
0.000118144
-0.000581047
9.72573e-05
-0.000587579
7.52964e-05
-0.00059206
5.24504e-05
-0.000594741
2.88156e-05
-0.000595797
4.45681e-06
-0.000595311
-2.06106e-05
-0.000593261
-4.63568e-05
-0.000589496
-7.27429e-05
-0.000583713
-9.96478e-05
-0.000575436
-0.000126854
-0.000564003
-0.00015396
-0.000548575
-0.000180348
-0.00052819
-0.000205094
-0.000501861
-0.000226963
-0.000468757
-0.000244389
-0.000428444
-0.000255602
-0.000381163
-0.000258809
-0.000328069
-0.000252555
-0.000271349
-0.000236124
-0.000214055
-0.000209987
-0.00015964
-0.000176021
-0.000111189
-0.000137408
-7.07135e-05
-9.79613e-05
-3.88069e-05
-6.1203e-05
-1.49654e-05
-2.94784e-05
1.84642e-06
-3.84828e-06
1.26751e-05
1.5641e-05
1.85095e-05
2.93361e-05
2.02507e-05
3.79258e-05
1.88754e-05
4.21189e-05
1.53271e-05
4.28023e-05
1.06393e-05
4.04436e-05
5.75848e-06
3.51888e-05
1.82607e-06
2.60073e-05
1.13895e-05
1.58062e-06
-1.19549e-05
2.86068e-06
-2.14729e-05
1.84317e-06
-1.96297e-05
-2.64676e-06
-9.26049e-06
-1.09534e-05
5.53502e-06
-2.33537e-05
2.27583e-05
-4.01957e-05
4.10066e-05
-6.21358e-05
6.0662e-05
-8.98656e-05
8.21366e-05
-0.000123779
0.000106024
-0.000163522
0.000131791
-0.000207825
0.000158171
-0.000254688
0.00018306
-0.000301857
0.000204491
-0.000347324
0.000220879
-0.000389603
0.000231465
-0.00042775
0.000236048
-0.000461263
0.000234956
-0.000489983
0.000228738
-0.000514003
0.000218151
-0.000533612
0.00020395
-0.000549236
0.000186914
-0.000561381
0.000167702
-0.000570586
0.000146898
-0.00057738
0.000124927
-0.00058225
0.00010212
-0.000585624
7.86675e-05
-0.000587863
5.46922e-05
-0.000589259
3.02179e-05
-0.00059003
5.23935e-06
-0.000590318
-2.03062e-05
-0.00059018
-4.6474e-05
-0.000589567
-7.33325e-05
-0.000588291
-0.000100896
-0.000585991
-0.000129125
-0.000582077
-0.000157843
-0.000575697
-0.000186697
-0.000565709
-0.000215051
-0.000550721
-0.000241922
-0.000529198
-0.000265886
-0.000499687
-0.000285088
-0.000461163
-0.000297313
-0.000413442
-0.000300259
-0.000357602
-0.00029195
-0.000296218
-0.00027136
-0.000233227
-0.000239007
-0.000173247
-0.000197384
-0.000120459
-0.000150752
-7.74249e-05
-0.000104241
-4.46409e-05
-6.22717e-05
-2.10304e-05
-2.74652e-05
-4.9839e-06
-4.17196e-07
5.02729e-06
1.93191e-05
1.02258e-05
3.27152e-05
1.17155e-05
4.06259e-05
1.05001e-05
4.40054e-05
7.65247e-06
4.32914e-05
4.20756e-06
3.86202e-05
1.30432e-06
2.89142e-05
1.26847e-05
9.25194e-07
-1.28792e-05
2.89954e-07
-2.08359e-05
-3.62366e-06
-1.57163e-05
-1.16891e-05
-1.19039e-06
-2.41459e-05
1.79914e-05
-4.12931e-05
3.99117e-05
-6.36067e-05
6.3321e-05
-9.17341e-05
8.87968e-05
-0.000126068
0.000116473
-0.000166293
0.000146257
-0.000211121
0.000176623
-0.000258454
0.000205513
-0.000305902
0.000230513
-0.00035131
0.000249908
-0.000393073
0.00026265
-0.000430165
0.000268568
-0.000462055
0.000267947
-0.000488605
0.000261519
-0.000510002
0.000250147
-0.000526673
0.000234835
-0.000539211
0.0002165
-0.000548289
0.000196005
-0.000554592
0.000174017
-0.000558762
0.000151079
-0.000561366
0.000127538
-0.000562879
0.000103639
-0.000563691
7.94804e-05
-0.00056411
5.511e-05
-0.000564382
3.04842e-05
-0.0005647
5.5473e-06
-0.00056521
-1.9809e-05
-0.000566018
-4.5682e-05
-0.000567174
-7.21955e-05
-0.000568649
-9.94417e-05
-0.000570293
-0.000127504
-0.000571773
-0.000156386
-0.000572496
-0.000185998
-0.000571525
-0.000216045
-0.000567516
-0.000245953
-0.000558706
-0.000274717
-0.000543014
-0.000300802
-0.000518294
-0.000322052
-0.000482786
-0.000335784
-0.00043571
-0.00033904
-0.000377914
-0.000329165
-0.000312326
-0.000304602
-0.000243871
-0.00026584
-0.000178596
-0.000216025
-0.000121985
-0.000160847
-7.72181e-05
-0.000107034
-4.45038e-05
-6.01712e-05
-2.2055e-05
-2.28613e-05
-7.54525e-06
4.8189e-06
9.79157e-07
2.41946e-05
5.06837e-06
3.65467e-05
5.96014e-06
4.31152e-05
4.81999e-06
4.4442e-05
2.74569e-06
4.06932e-05
8.27053e-07
3.08439e-05
1.35127e-05
-1.2209e-07
-1.27628e-05
-3.27721e-06
-1.7675e-05
-1.06438e-05
-8.36004e-06
-2.27177e-05
1.08887e-05
-3.96776e-05
3.49409e-05
-6.18443e-05
6.20812e-05
-8.9724e-05
9.11906e-05
-0.000123699
0.000122772
-0.000163553
0.000156317
-0.000208078
0.00019078
-0.000255191
0.000223727
-0.000302385
0.000252703
-0.000347351
0.000275469
-0.00038831
0.000290862
-0.000424125
0.000298455
-0.000454206
0.000298642
-0.000478451
0.00029218
-0.00049714
0.0002802
-0.000510861
0.000263856
-0.000520374
0.000244341
-0.000526522
0.000222638
-0.000530116
0.000199592
-0.000531888
0.000175781
-0.000532445
0.000151631
-0.000532268
0.000127357
-0.000531717
0.000103088
-0.00053106
7.88249e-05
-0.000530491
5.45464e-05
-0.00053016
3.01604e-05
-0.000530188
5.58636e-06
-0.000530687
-1.92965e-05
-0.000531765
-4.45879e-05
-0.000533525
-7.04171e-05
-0.000536053
-9.68929e-05
-0.000539391
-0.000124144
-0.000543484
-0.00015227
-0.000548108
-0.000181351
-0.000552764
-0.000211366
-0.00055655
-0.000242145
-0.000558041
-0.000273206
-0.000555213
-0.00030361
-0.000545498
-0.000331751
-0.000526041
-0.000355228
-0.00049424
-0.000370832
-0.000448552
-0.000374848
-0.000389434
-0.000363719
-0.000320096
-0.000335176
-0.000246572
-0.000289551
-0.000176562
-0.000230858
-0.000117039
-0.000166562
-7.16725e-05
-0.000105541
-4.01181e-05
-5.44229e-05
-1.96338e-05
-1.56692e-05
-7.22991e-06
1.17828e-05
-5.01014e-07
2.98154e-05
2.31893e-06
4.02871e-05
2.64798e-06
4.41123e-05
1.69391e-06
4.16386e-05
5.21546e-07
3.20172e-05
1.40283e-05
-1.56658e-06
-1.12021e-05
-7.74654e-06
-1.14758e-05
-1.89406e-05
2.82127e-06
-3.52396e-05
2.72053e-05
-5.68032e-05
5.64965e-05
-8.39165e-05
8.92095e-05
-0.000116939
0.000124209
-0.000155724
0.000161571
-0.000199281
0.000199873
-0.000245606
0.000237116
-0.00029218
0.000270302
-0.000336509
0.000297042
-0.000376643
0.000315606
-0.000411274
0.000325502
-0.000439756
0.000326941
-0.000461989
0.000320884
-0.000478362
0.00030856
-0.000489603
0.000291451
-0.000496651
0.000270911
-0.000500491
0.00024819
-0.000502057
0.00022421
-0.000502139
0.000199682
-0.000501363
0.000175009
-0.000500181
0.000150454
-0.000498906
0.000126082
-0.000497731
0.000101912
-0.000496774
7.78645e-05
-0.000496105
5.38719e-05
-0.000495774
2.98204e-05
-0.000495828
5.62981e-06
-0.00049633
-1.88081e-05
-0.000497363
-4.35702e-05
-0.000499038
-6.87598e-05
-0.000501488
-9.44619e-05
-0.000504858
-0.000120794
-0.000509277
-0.00014787
-0.000514814
-0.000175833
-0.000521391
-0.000204808
-0.000528664
-0.000234889
-0.00053586
-0.000266024
-0.000541593
-0.000297889
-0.000543707
-0.000329648
-0.000539248
-0.000359695
-0.000524698
-0.00038539
-0.000496571
-0.000402981
-0.000452442
-0.000407853
-0.000392247
-0.000395374
-0.000319458
-0.000362342
-0.000241351
-0.000308962
-0.000167539
-0.000240372
-0.000106519
-0.000166554
-6.21144e-05
-9.88241e-05
-3.29231e-05
-4.48546e-05
-1.51583e-05
-5.97931e-06
-5.19912e-06
1.98624e-05
-3.78098e-07
3.54676e-05
1.2458e-06
4.24951e-05
1.12615e-06
4.17583e-05
4.05478e-07
3.27448e-05
1.44352e-05
-3.40291e-06
-7.81573e-06
-1.29924e-05
-1.86313e-06
-2.82078e-05
1.80082e-05
-4.87433e-05
4.77579e-05
-7.47473e-05
8.24782e-05
-0.000106354
0.000120826
-0.000143584
0.000161422
-0.000185605
0.000203597
-0.000230701
0.000244954
-0.000276355
0.00028277
-0.000319997
0.000313932
-0.000359429
0.000336473
-0.000393189
0.000349356
-0.000420493
0.000352804
-0.000441246
0.000347685
-0.000455887
0.000335522
-0.000465287
0.000317951
-0.000470524
0.000296683
-0.000472733
0.000273112
-0.000472937
0.000248391
-0.000471988
0.000223254
-0.000470508
0.000198198
-0.000468924
0.000173422
-0.000467488
0.000149017
-0.000466327
0.00012492
-0.000465483
0.00010107
-0.000464954
7.73393e-05
-0.000464719
5.36429e-05
-0.00046476
2.98686e-05
-0.000465073
5.95291e-06
-0.000465683
-1.81874e-05
-0.000466642
-4.25971e-05
-0.000468044
-6.73432e-05
-0.000470018
-9.24724e-05
-0.000472733
-0.000118064
-0.000476385
-0.000144202
-0.000481185
-0.000171017
-0.00048731
-0.000198669
-0.000494826
-0.000227358
-0.00050356
-0.000257277
-0.000512906
-0.000288531
-0.000521584
-0.000320961
-0.000527397
-0.000353872
-0.000527108
-0.000385671
-0.000516604
-0.000413479
-0.000491531
-0.000432922
-0.000448542
-0.000438361
-0.00038702
-0.000423867
-0.000310771
-0.000385214
-0.000228588
-0.000322558
-0.000152257
-0.000242888
-9.16504e-05
-0.000159433
-4.99946e-05
-8.65126e-05
-2.43247e-05
-3.16538e-05
-9.78654e-06
5.3217e-06
-2.4453e-06
2.81214e-05
5.12796e-07
3.95359e-05
1.02149e-06
4.12439e-05
4.78122e-07
3.32884e-05
1.49091e-05
-5.51e-06
-2.32063e-06
-1.86646e-05
1.13329e-05
-3.78397e-05
3.71533e-05
-6.23614e-05
7.23131e-05
-9.23352e-05
0.000112434
-0.000127608
0.000156124
-0.000167725
0.000201528
-0.000211158
0.000247049
-0.000255677
0.000289468
-0.000298586
0.000325695
-0.000337558
0.000352902
-0.00037085
0.000369777
-0.000397561
0.000376068
-0.000417486
0.00037274
-0.000431113
0.000361314
-0.000439376
0.000343794
-0.0004435
0.000322079
-0.000444726
0.000297918
-0.000444187
0.000272576
-0.000442767
0.000246977
-0.000441106
0.000221595
-0.000439591
0.000196688
-0.00043843
0.000172261
-0.000437683
0.000148271
-0.000437336
0.000124571
-0.000437322
0.000101055
-0.000437571
7.75829e-05
-0.00043801
5.40761e-05
-0.000438589
3.04396e-05
-0.000439279
6.63369e-06
-0.000440082
-1.73965e-05
-0.000441025
-4.16652e-05
-0.000442177
-6.62051e-05
-0.000443637
-9.1026e-05
-0.000445552
-0.000116164
-0.00044811
-0.000141658
-0.00045155
-0.000167592
-0.000456141
-0.000194091
-0.00046216
-0.000221352
-0.000469808
-0.000249641
-0.000479081
-0.000279269
-0.000489545
-0.000310505
-0.000500052
-0.000343373
-0.000508397
-0.00037733
-0.000511107
-0.000410771
-0.000503515
-0.000440514
-0.000480443
-0.000461434
-0.000437654
-0.000466656
-0.000374079
-0.000448789
-0.000294129
-0.000402509
-0.000208549
-0.000328467
-0.000131564
-0.000236416
-7.38144e-05
-0.000144257
-3.68139e-05
-6.86511e-05
-1.5577e-05
-1.59123e-05
-4.6387e-06
1.71848e-05
4.07881e-08
3.48604e-05
1.17878e-06
4.0106e-05
6.66833e-07
3.38056e-05
1.55768e-05
-7.77657e-06
5.42763e-06
-2.44576e-05
2.80573e-05
-4.73268e-05
5.99734e-05
-7.53657e-05
0.000100383
-0.000108576
0.000145609
-0.00014641
0.000193978
-0.000187901
0.000242993
-0.000230961
0.000290119
-0.000273118
0.000331605
-0.000311783
0.000364365
-0.000345057
0.000386162
-0.000371741
0.000396463
-0.000391544
0.000395859
-0.000404848
0.000386043
-0.000412661
0.000369117
-0.000416263
0.000347395
-0.000417034
0.000322841
-0.000416172
0.000297054
-0.00041464
0.000271037
-0.000413075
0.00024541
-0.000411861
0.000220376
-0.000411153
0.00019598
-0.000410977
0.000172083
-0.000411261
0.000148556
-0.000411905
0.000125215
-0.000412794
0.000101947
-0.00041383
7.86223e-05
-0.000414929
5.51812e-05
-0.000416037
3.15537e-05
-0.000417118
7.72371e-06
-0.000418167
-1.63384e-05
-0.000419197
-4.0624e-05
-0.000420252
-6.51394e-05
-0.000421397
-8.98682e-05
-0.000422738
-0.000114812
-0.000424414
-0.00013997
-0.000426621
-0.000165373
-0.000429611
-0.00019109
-0.0004337
-0.000217253
-0.00043924
-0.000244092
-0.000446559
-0.000271942
-0.000455812
-0.000301245
-0.000466742
-0.000332438
-0.000478309
-0.000365758
-0.000488292
-0.000400785
-0.000492946
-0.000435857
-0.000487046
-0.000467332
-0.000464601
-0.000489098
-0.00042061
-0.000492781
-0.000353828
-0.000469293
-0.000269811
-0.000412489
-0.000181924
-0.000324304
-0.000106903
-0.000219281
-5.48309e-05
-0.000120722
-2.40736e-05
-4.66727e-05
-7.90784e-06
1.01642e-06
-7.01878e-07
2.76528e-05
1.34349e-06
3.80566e-05
8.92626e-07
3.42571e-05
1.64661e-05
-9.98528e-06
1.5389e-05
-2.98955e-05
4.80307e-05
-5.5963e-05
8.5993e-05
-8.68406e-05
0.00013131
-0.000122357
0.000181096
-0.000161522
0.000233178
-0.000202916
0.000284369
-0.000244092
0.00033132
-0.000282597
0.000370101
-0.000316155
0.000397941
-0.0003434
0.000413402
-0.000363716
0.000416794
-0.000377422
0.000409564
-0.000385416
0.000394049
-0.000389074
0.000372776
-0.00038982
0.00034815
-0.000388986
0.000322009
-0.000387574
0.000295649
-0.000386281
0.000269745
-0.000385471
0.000244606
-0.000385297
0.000220202
-0.000385732
0.000196418
-0.000386684
0.000173034
-0.00038801
0.000149883
-0.000389579
0.000126782
-0.000391263
0.00010363
-0.00039297
8.03243e-05
-0.000394623
5.68293e-05
-0.000396176
3.31001e-05
-0.0003976
9.14065e-06
-0.00039889
-1.50579e-05
-0.000400051
-3.94714e-05
-0.000401113
-6.40875e-05
-0.000402117
-8.88747e-05
-0.000403128
-0.000113811
-0.000404237
-0.000138871
-0.000405575
-0.000164045
-0.000407324
-0.00018935
-0.000409743
-0.000214843
-0.000413171
-0.000240673
-0.00041803
-0.000267089
-0.00042476
-0.000294521
-0.000433677
-0.000323526
-0.00044468
-0.00035476
-0.000456826
-0.000388642
-0.000467798
-0.000424887
-0.000473496
-0.000461634
-0.000468036
-0.000494556
-0.000444625
-0.00051619
-0.000397679
-0.000516237
-0.000326306
-0.000483865
-0.000238088
-0.000412523
-0.000149879
-0.000307492
-8.03723e-05
-0.000190222
-3.6684e-05
-9.03584e-05
-1.32259e-05
-2.24397e-05
-2.29473e-06
1.67229e-05
1.22581e-06
3.45366e-05
1.05878e-06
3.44276e-05
1.75255e-05
-1.19923e-05
2.73432e-05
-3.46728e-05
7.07719e-05
-6.33044e-05
0.000114558
-9.62167e-05
0.000164266
-0.000133017
0.00021785
-0.000172298
0.000272485
-0.000212312
0.00032435
-0.000250475
0.000369497
-0.000284558
0.000404159
-0.000312719
0.00042611
-0.000334172
0.000434837
-0.000348878
0.000431505
-0.000357693
0.000418364
-0.000361885
0.000398243
-0.000363004
0.000373883
-0.000362422
0.000347569
-0.000361279
0.000320856
-0.000360294
0.000294664
-0.000359892
0.000269336
-0.000360194
0.000244907
-0.000361182
0.000221185
-0.000362719
0.000197956
-0.000364658
0.000174971
-0.000366834
0.000152061
-0.000369121
0.000129068
-0.000371402
0.000105916
-0.000373606
8.25305e-05
-0.000375669
5.88982e-05
-0.000377562
3.49978e-05
-0.000379262
1.08473e-05
-0.000380768
-1.3545e-05
-0.000382084
-3.8146e-05
-0.000383234
-6.29301e-05
-0.00038424
-8.78593e-05
-0.000385145
-0.000112897
-0.000385999
-0.000138009
-0.000386879
-0.000163156
-0.000387894
-0.000188327
-0.000389212
-0.000213517
-0.000391081
-0.000238798
-0.000393861
-0.000264303
-0.000398025
-0.000290353
-0.000404124
-0.000317424
-0.000412613
-0.000346268
-0.000423542
-0.000377712
-0.000435998
-0.000412429
-0.000447483
-0.000450149
-0.000453373
-0.000488664
-0.000446997
-0.000522566
-0.000420746
-0.000542485
-0.000368801
-0.000535811
-0.000291471
-0.000489857
-0.000199672
-0.000399297
-0.000114553
-0.000275343
-5.46735e-05
-0.000150234
-2.12953e-05
-5.58175e-05
-5.19879e-06
6.22155e-07
6.18496e-07
2.87185e-05
1.10303e-06
3.39418e-05
1.86268e-05
-1.35861e-05
4.08991e-05
-3.83909e-05
9.56558e-05
-6.88252e-05
0.000144931
-0.000102895
0.000198397
-0.000139969
0.000254887
-0.000178293
0.000310851
-0.000215948
0.000361983
-0.000250403
0.000403982
-0.000279786
0.00043353
-0.000302751
0.000449098
-0.000319083
0.000451162
-0.000329255
0.000441694
-0.000334529
0.000423634
-0.000336365
0.000400093
-0.000336302
0.000373818
-0.000335519
0.000346797
-0.000334889
0.000320225
-0.000334844
0.000294628
-0.000335572
0.000270064
-0.00033702
0.000246362
-0.00033907
0.000223234
-0.000341532
0.000200423
-0.000344253
0.000177689
-0.000347074
0.000154884
-0.000349892
0.000131883
-0.000352611
0.000108634
-0.000355177
8.50924e-05
-0.000357542
6.12608e-05
-0.000359688
3.7138e-05
-0.000361598
1.2752e-05
-0.000363276
-1.18742e-05
-0.000364726
-3.67024e-05
-0.000365968
-6.16956e-05
-0.00036702
-8.68143e-05
-0.000367913
-0.000112012
-0.000368673
-0.000137255
-0.000369346
-0.00016249
-0.000369986
-0.000187695
-0.000370685
-0.000212823
-0.000371589
-0.0002379
-0.000372944
-0.000262953
-0.00037512
-0.000288181
-0.000378654
-0.000313893
-0.000384188
-0.000340736
-0.000392325
-0.000369577
-0.000403202
-0.000401553
-0.000415872
-0.000437481
-0.000427469
-0.000477066
-0.00043266
-0.000517376
-0.000423787
-0.000551353
-0.000392527
-0.000567071
-0.000333403
-0.000548977
-0.000249271
-0.000483436
-0.000156105
-0.000368508
-7.92146e-05
-0.000227127
-3.26067e-05
-0.00010241
-9.72212e-06
-2.22706e-05
-6.04655e-07
1.96067e-05
9.93407e-07
3.23421e-05
1.96222e-05
-1.4685e-05
5.55397e-05
-4.09044e-05
0.000121947
-7.23545e-05
0.000176302
-0.000106725
0.000232819
-0.000143156
0.000291264
-0.000179661
0.000347386
-0.000214294
0.000396578
-0.000244725
0.000434431
-0.00026951
0.000458287
-0.000287807
0.000467405
-0.000299912
0.000463246
-0.000306704
0.000448492
-0.000309691
0.000426604
-0.000310351
0.000400757
-0.000310074
0.000373527
-0.000309775
0.0003465
-0.000310049
0.000320489
-0.000311085
0.000295663
-0.000312898
0.000271869
-0.000315332
0.000248796
-0.000318226
0.000226122
-0.000321383
0.000203581
-0.000324668
0.000180971
-0.000327945
0.000158163
-0.000331136
0.000135073
-0.000334165
0.000111665
-0.000336993
8.79219e-05
-0.000339583
6.38549e-05
-0.000341922
3.94808e-05
-0.000343998
1.48335e-05
-0.000345817
-1.00502e-05
-0.000347384
-3.5129e-05
-0.000348719
-6.03545e-05
-0.000349839
-8.56882e-05
-0.00035077
-0.000111075
-0.000351532
-0.000136487
-0.000352154
-0.000161862
-0.00035266
-0.000187183
-0.000353093
-0.000212384
-0.000353518
-0.00023747
-0.00035407
-0.000262397
-0.000354978
-0.00028727
-0.000356647
-0.000312222
-0.000359664
-0.000337716
-0.000364798
-0.000364442
-0.000372753
-0.000393596
-0.000383731
-0.000426505
-0.000396567
-0.000464228
-0.000407833
-0.000506113
-0.000411168
-0.000548013
-0.000397836
-0.000580405
-0.000359028
-0.000587777
-0.000290733
-0.000551744
-0.00020026
-0.000458977
-0.000110557
-0.000316851
-4.79282e-05
-0.000165015
-1.59413e-05
-5.42678e-05
-2.55632e-06
6.22506e-06
7.45513e-07
2.90349e-05
2.03686e-05
-1.51649e-05
7.06717e-05
-4.20145e-05
0.000148883
-7.36828e-05
0.000207903
-0.000107552
0.000266756
-0.00014257
0.000326242
-0.000176636
0.000381497
-0.000207896
0.000427814
-0.000234315
0.000460883
-0.000254896
0.000478853
-0.000269258
0.000481792
-0.000278118
0.000472099
-0.000282625
0.000453019
-0.00028437
0.000428345
-0.000284722
0.000401125
-0.000284842
0.000373644
-0.00028537
0.000347041
-0.000286661
0.000321778
-0.000288719
0.000297731
-0.000291459
0.000274609
-0.000294675
0.00025202
-0.000298207
0.000229653
-0.000301875
0.000207255
-0.00030557
0.000184665
-0.000309182
0.000161778
-0.000312654
0.000138542
-0.000315923
0.000114934
-0.00031896
9.09564e-05
-0.000321733
6.66259e-05
-0.000324231
4.1975e-05
-0.000326442
1.70411e-05
-0.000328372
-8.12486e-06
-0.000330027
-3.34794e-05
-0.000331426
-5.89608e-05
-0.000332587
-8.45321e-05
-0.00033354
-0.000110128
-0.000334305
-0.000135727
-0.000334909
-0.000161262
-0.000335367
-0.000186731
-0.000335701
-0.000212054
-0.000335928
-0.000237247
-0.000336105
-0.000262222
-0.00033634
-0.000287039
-0.000336876
-0.000311688
-0.000338133
-0.000336461
-0.000340798
-0.000361779
-0.000345737
-0.000388656
-0.000353788
-0.000418457
-0.000365064
-0.00045295
-0.000378023
-0.000493158
-0.000388281
-0.00053775
-0.000388202
-0.000580486
-0.000367897
-0.000608071
-0.000318828
-0.000600816
-0.000240213
-0.000537594
-0.000146553
-0.000410521
-6.81622e-05
-0.000243404
-2.39841e-05
-9.84312e-05
-5.35044e-06
-1.24141e-05
3.65475e-07
2.33173e-05
2.07368e-05
-1.50467e-05
8.56725e-05
-4.17794e-05
0.000175689
-7.29405e-05
0.000238984
-0.000105627
0.000299495
-0.000138641
0.0003592
-0.000169875
0.000412763
-0.000197658
0.000455557
-0.000220293
0.000483537
-0.000237207
0.000495737
-0.000248416
0.000493012
-0.000254939
0.000478599
-0.000258059
0.000456144
-0.000259324
0.000429591
-0.000259909
0.000401713
-0.000260724
0.000374444
-0.000262163
0.000348481
-0.000264394
0.000323997
-0.000267306
0.000300643
-0.000270764
0.000278058
-0.000274557
0.000255813
-0.000278544
0.000233633
-0.000282573
0.000211284
-0.000286563
0.00018865
-0.000290423
0.00016564
-0.000294113
0.00014223
-0.000297577
0.000118401
-0.000300792
9.41714e-05
-0.000303724
6.95614e-05
-0.000306365
4.46172e-05
-0.000308698
1.93779e-05
-0.000310729
-6.09024e-06