/*--------------------------------*- C++ -*----------------------------------*\
| =========                 |                                                 |
| \\      /  F ield         | OpenFOAM: The Open Source CFD Toolbox           |
|  \\    /   O peration     | Version:  2406                                  |
|   \\  /    A nd           | Website:  www.openfoam.com                      |
|    \\/     M anipulation  |                                                 |
\*---------------------------------------------------------------------------*/
FoamFile
{
    version     2.0;
    format      ascii;
    arch        "LSB;label=32;scalar=64";
    class       surfaceScalarField;
    location    "49.2";
    object      phi;
}
// * * * * * * * * * * * * * * * * * * * * * * * * * * * * * * * * * * * * * //

dimensions      [0 3 -1 0 0 0 0];

oriented        oriented;

internalField   nonuniform List<scalar> 
1740
(
6.92471e-06
-6.92471e-06
1.74726e-05
-1.05479e-05
2.47522e-05
-7.27955e-06
2.70544e-05
-2.30226e-06
2.62958e-05
7.58679e-07
2.36136e-05
2.68216e-06
1.79151e-05
5.69848e-06
6.25094e-06
1.16642e-05
-1.81095e-05
2.43604e-05
-6.10899e-05
4.29805e-05
-0.000122737
6.16466e-05
-0.000196733
7.39968e-05
-0.000269623
7.289e-05
-0.000327931
5.83074e-05
-0.000362231
3.43001e-05
-0.000366622
4.39135e-06
-0.000338471
-2.81512e-05
-0.000277876
-6.05955e-05
-0.00018908
-8.87952e-05
-8.14612e-05
-0.000107619
2.8863e-05
-0.000110324
0.000122639
-9.37765e-05
0.00018011
-5.74703e-05
0.000190695
-1.05848e-05
0.000159567
3.11276e-05
0.000109557
5.00097e-05
6.24268e-05
4.71305e-05
2.87421e-05
3.36847e-05
8.63669e-06
2.01054e-05
8.63669e-06
1.26385e-05
-1.95632e-05
3.00258e-05
-2.79352e-05
3.83347e-05
-1.55885e-05
3.51925e-05
8.39931e-07
2.15806e-05
1.43706e-05
-5.07e-06
2.93328e-05
-5.42809e-05
5.49093e-05
-0.00013721
9.4593e-05
-0.000251602
0.000138753
-0.000379949
0.000171328
-0.000500396
0.000182093
-0.000597936
0.000171537
-0.000667708
0.000142662
-0.000709018
9.96179e-05
-0.000721647
4.6929e-05
-0.000705576
-1.16794e-05
-0.000659571
-7.41564e-05
-0.000584624
-0.000135543
-0.000481913
-0.000191506
-0.000355251
-0.000234282
-0.00021325
-0.000252325
-7.17232e-05
-0.000235303
4.93547e-05
-0.000178548
0.00012893
-9.01605e-05
0.000157809
2.24854e-06
0.000143922
6.3897e-05
0.000104479
8.65739e-05
5.86714e-05
7.94919e-05
2.01517e-05
5.86251e-05
2.87884e-05
1.48863e-05
-3.44495e-05
2.82896e-05
-4.13385e-05
2.52962e-05
-1.2595e-05
3.37487e-06
2.27612e-05
-4.21275e-05
5.98729e-05
-0.000122892
0.000110098
-0.00024541
0.000177427
-0.00039529
0.000244473
-0.000544704
0.000288167
-0.000675027
0.000301651
-0.000779865
0.000286931
-0.000857749
0.000249421
-0.000910503
0.000195416
-0.000940869
0.000129984
-0.000950279
5.63386e-05
-0.000938603
-2.33547e-05
-0.000906573
-0.000106187
-0.00085087
-0.000191246
-0.000768851
-0.000273524
-0.000658542
-0.000344591
-0.000520854
-0.000390013
-0.000363183
-0.000392974
-0.000202375
-0.000339356
-6.38217e-05
-0.000228714
2.81034e-05
-8.96766e-05
6.73037e-05
2.46966e-05
6.93142e-05
8.45635e-05
4.80777e-05
0.000100728
1.86465e-05
8.80563e-05
4.7435e-05
1.23928e-05
-4.68423e-05
1.2035e-05
-4.09808e-05
-1.40126e-05
1.34525e-05
-7.0513e-05
7.92617e-05
-0.000167667
0.000157027
-0.000308127
0.000250558
-0.000471395
0.000340695
-0.000627419
0.000400497
-0.000759146
0.000419894
-0.00086135
0.000403855
-0.000935459
0.00036104
-0.000986014
0.000299976
-0.00101787
0.000227268
-0.00103526
0.00014738
-0.00104114
6.22182e-05
-0.00103692
-2.75741e-05
-0.00102273
-0.000120383
-0.000995979
-0.000217992
-0.000951662
-0.000317841
-0.00088274
-0.000413514
-0.000780265
-0.000492488
-0.000638216
-0.000535024
-0.000460447
-0.000517124
-0.000270113
-0.000419047
-0.000109362
-0.000250428
-1.62935e-05
-6.8372e-05
1.78554e-05
5.04145e-05
2.14576e-05
9.71262e-05
9.35976e-06
0.000100154
5.67947e-05
1.8417e-06
-4.8684e-05
-2.26944e-05
-1.64447e-05
-8.28018e-05
7.35599e-05
-0.000183303
0.000179763
-0.000325366
0.000299089
-0.000489458
0.00041465
-0.000644354
0.000495591
-0.000769939
0.000526082
-0.000862029
0.000511985
-0.00092322
0.000465046
-0.00095955
0.000397369
-0.00097828
0.000318706
-0.000985985
0.000234973
-0.000987786
0.00014918
-0.000987613
6.20454e-05
-0.000988465
-2.67219e-05
-0.00098898
-0.000119868
-0.00098932
-0.000217652
-0.000985957
-0.000321204
-0.000970902
-0.000428569
-0.00093009
-0.0005333
-0.000845669
-0.000619444
-0.000702439
-0.000660354
-0.000499422
-0.000622065
-0.000271735
-0.000478115
-9.32765e-05
-0.000246831
-1.57034e-05
-2.71586e-05
2.92652e-06
7.84963e-05
3.34176e-06
9.97389e-05
6.01365e-05
-1.74947e-05
-3.11893e-05
-7.34409e-05
3.95015e-05
-0.000168982
0.000169101
-0.000302776
0.000313558
-0.000459776
0.000456089
-0.000609694
0.000564568
-0.000728354
0.000614251
-0.000809412
0.00060714
-0.000856565
0.000559137
-0.000877574
0.000486055
-0.000882037
0.000401832
-0.000877808
0.000314477
-0.000870611
0.000227775
-0.000863901
0.00014247
-0.000859918
5.80624e-05
-0.000859803
-2.68369e-05
-0.000864907
-0.000114764
-0.000876171
-0.000206388
-0.00089368
-0.000303695
-0.0009141
-0.000408149
-0.00092821
-0.00051919
-0.00091772
-0.000629934
-0.000854739
-0.000723335
-0.000711388
-0.000765416
-0.000482452
-0.00070705
-0.000220851
-0.000508432
-4.63127e-05
-0.000201697
-6.02036e-07
3.27856e-05
2.82096e-06
9.63159e-05
6.29574e-05
-4.29794e-05
1.17902e-05
-0.000129311
0.000125833
-0.000250399
0.000290189
-0.00039501
0.000458169
-0.000538434
0.000599513
-0.000653617
0.00067975
-0.000729212
0.000689846
-0.00076878
0.000646708
-0.000781525
0.000571882
-0.000778813
0.000483343
-0.000769939
0.000392958
-0.000760394
0.000304933
-0.000752865
0.000220246
-0.000748087
0.000137692
-0.000746007
5.59827e-05
-0.000746334
-2.651e-05
-0.000750703
-0.000110395
-0.000759898
-0.000197194
-0.000775525
-0.000288068
-0.000799258
-0.000384416
-0.000830404
-0.000488044
-0.000860478
-0.00059986
-0.000868457
-0.000715356
-0.000818755
-0.000815118
-0.000670829
-0.000854976
-0.000416165
-0.000763096
-0.000132789
-0.000485073
8.36998e-07
-0.00010084
4.60033e-06
9.25526e-05
6.75578e-05
-6.5972e-05
7.77622e-05
-0.000172924
0.000232785
-0.000303385
0.00042065
-0.000439301
0.000594085
-0.00055514
0.000715352
-0.000633179
0.000757789
-0.000673254
0.000729922
-0.000685204
0.000658658
-0.000681183
0.000567861
-0.00067205
0.00047421
-0.000663541
0.000384449
-0.000657697
0.000299088
-0.000654511
0.000217059
-0.000653343
0.000136525
-0.000653802
5.64413e-05
-0.00065603
-2.42818e-05
-0.000660402
-0.000106023
-0.000667794
-0.000189801
-0.000679441
-0.000276421
-0.000696951
-0.000366906
-0.000722182
-0.000462814
-0.000755186
-0.000566856
-0.000789446
-0.000681096
-0.000802974
-0.00080159
-0.00075283
-0.000905121
-0.00058543
-0.000930495
-0.000298681
-0.000771823
-3.94435e-05
-0.000360077
8.7049e-06
4.44042e-05
7.62627e-05
-8.09574e-05
0.00015872
-0.00019638
0.000348207
-0.000322528
0.000546798
-0.00043898
0.000710536
-0.000525046
0.000801419
-0.000572803
0.000805546
-0.000589694
0.000746813
-0.000588391
0.000657355
-0.000580745
0.000560215
-0.00057396
0.000467426
-0.00056989
0.000380379
-0.000568365
0.000297562
-0.000568414
0.000217109
-0.000569482
0.000137593
-0.000571372
5.83322e-05
-0.000574363
-2.1291e-05
-0.000578692
-0.000101694
-0.000585024
-0.00018347
-0.000594251
-0.000267194
-0.000607511
-0.000353645
-0.000626379
-0.000443945
-0.00065288
-0.000540355
-0.000687175
-0.0006468
-0.00072152
-0.000767245
-0.000730437
-0.000896204
-0.000664065
-0.000996867
-0.000465685
-0.000970203
-0.000141565
-0.000684197
1.37237e-05
-0.000110885
8.99863e-05
-8.45878e-05
0.000243307
-0.000196837
0.000460456
-0.000309249
0.00065921
-0.000402938
0.000804225
-0.000463634
0.000862116
-0.000491173
0.000833085
-0.000496741
0.000752381
-0.000492738
0.000653352
-0.000488157
0.000555634
-0.000486203
0.000465471
-0.000486608
0.000380784
-0.000488537
0.000299492
-0.000491115
0.000219686
-0.000494076
0.000140553
-0.000497376
6.16323e-05
-0.000501197
-1.74696e-05
-0.000505989
-9.69013e-05
-0.000512043
-0.000177417
-0.00051973
-0.000259506
-0.00052953
-0.000343846
-0.000542358
-0.000431118
-0.000560364
-0.000522349
-0.000586817
-0.000620348
-0.000622595
-0.000731467
-0.000657569
-0.00086123
-0.000653568
-0.00100087
-0.000541986
-0.00108178
-0.000285403
-0.00094078
-1.19715e-05
-0.000384316
7.80148e-05
-7.75061e-05
0.000320814
-0.000178412
0.000561363
-0.000273126
0.000753924
-0.000345857
0.000876956
-0.000388153
0.000904412
-0.000404465
0.000849397
-0.000406445
0.00075436
-0.000404419
0.000651327
-0.000404043
0.000555259
-0.000405979
0.000467407
-0.000409358
0.000384163
-0.000413338
0.000303472
-0.000417354
0.000223702
-0.000421306
0.000144505
-0.000425252
6.55783e-05
-0.000429636
-1.30853e-05
-0.000434682
-9.18548e-05
-0.000441015
-0.000171084
-0.000448941
-0.00025158
-0.000458534
-0.000334252
-0.000469625
-0.000420026
-0.000482477
-0.000509497
-0.000499749
-0.000603076
-0.000525655
-0.000705561
-0.000561992
-0.000824893
-0.000589194
-0.000973666
-0.000558703
-0.00111228
-0.000395668
-0.00110382
-7.4252e-05
-0.000705732
3.76282e-06
-6.21916e-05
0.000383005
-0.000146511
0.000645682
-0.000221996
0.000829408
-0.000276597
0.000931558
-0.000306174
0.000933988
-0.00031708
0.000860303
-0.000319574
0.000756854
-0.000321148
0.000652901
-0.000324623
0.000558734
-0.00032947
0.000472254
-0.000334879
0.000389572
-0.000340247
0.00030884
-0.000345328
0.000228783
-0.000350139
0.000149316
-0.000354836
7.0276e-05
-0.000359633
-8.28819e-06
-0.000364948
-8.65408e-05
-0.000371132
-0.0001649
-0.000378595
-0.000244118
-0.000387608
-0.000325239
-0.000398352
-0.000409282
-0.000410422
-0.000497428
-0.000424525
-0.000588973
-0.000442129
-0.000687957
-0.000469331
-0.000797691
-0.00050549
-0.000937506
-0.000519916
-0.00109785
-0.0004214
-0.00120233
-0.000157131
-0.000970001
-0.000153368
-4.17087e-05
0.000424714
-0.00010694
0.000710914
-0.000163756
0.000886224
-0.000203802
0.000971604
-0.000225588
0.000955773
-0.000234993
0.000869709
-0.000239557
0.000761418
-0.000244065
0.000657409
-0.000249706
0.000564375
-0.000255878
0.000478426
-0.000262141
0.000395835
-0.000268187
0.000314886
-0.00027397
0.000234566
-0.000279527
0.000154873
-0.000284981
7.57296e-05
-0.000290538
-2.73138e-06
-0.000296481
-8.05975e-05
-0.00030317
-0.000158211
-0.000310956
-0.000236332
-0.000319854
-0.000316341
-0.000330247
-0.000398888
-0.000341261
-0.000486415
-0.00035331
-0.000576924
-0.000366176
-0.000675091
-0.000386127
-0.00077774
-0.000419076
-0.000904558
-0.000452624
-0.0010643
-0.000415493
-0.00123946
-0.00023316
-0.00115233
-0.000386529
-1.88121e-05
0.000443526
-6.34251e-05
0.000755527
-0.000102282
0.000925081
-0.00013004
0.000999361
-0.00014623
0.000971964
-0.000155003
0.000878481
-0.000161291
0.000767706
-0.000167829
0.000663946
-0.000174904
0.000571449
-0.000182043
0.000485565
-0.000188999
0.000402791
-0.000195627
0.000321515
-0.000201987
0.000240925
-0.000208149
0.000161036
-0.00021425
8.18302e-05
-0.000220491
3.51013e-06
-0.000227106
-7.39834e-05
-0.000234318
-0.000150999
-0.000242627
-0.000228023
-0.000251958
-0.00030701
-0.000263047
-0.000387799
-0.000274687
-0.000474774
-0.000287104
-0.000564507
-0.00029835
-0.000663845
-0.000313194
-0.000762896
-0.000335812
-0.00088194
-0.000369136
-0.00103098
-0.000367782
-0.00124082
-0.000246463
-0.00127365
-0.000632992
4.63772e-06
0.000438888
-1.79586e-05
0.000778123
-4.10238e-05
0.000948146
-5.85816e-05
0.00101692
-7.09611e-05
0.000984343
-8.02014e-05
0.000887721
-8.82675e-05
0.000775773
-9.59484e-05
0.000671627
-0.000103267
0.000578768
-0.000110159
0.000492457
-0.000116717
0.000409349
-0.000123064
0.000327861
-0.000129395
0.000247256
-0.000135844
0.000167485
-0.000142546
8.85324e-05
-0.000149648
1.06117e-05
-0.000157353
-6.62786e-05
-0.00016563
-0.000142721
-0.000174905
-0.000218748
-0.000184982
-0.000296933
-0.000196334
-0.000376447
-0.000208362
-0.000462746
-0.000221278
-0.000551591
-0.000233423
-0.0006517
-0.000246633
-0.000749686
-0.000262797
-0.000865775
-0.000292144
-0.00100163
-0.00030816
-0.0012248
-0.000223208
-0.0013586
-0.0008562
2.8224e-05
0.000410664
2.68179e-05
0.000779529
1.90798e-05
0.000955884
1.12146e-05
0.00102478
3.41582e-06
0.000992142
-5.24026e-06
0.000896377
-1.3881e-05
0.000784413
-2.19517e-05
0.000679698
-2.92099e-05
0.000586026
-3.58941e-05
0.000499141
-4.22782e-05
0.000415733
-4.85882e-05
0.000334171
-5.50474e-05
0.000253715
-6.18229e-05
0.000174261
-6.91431e-05
9.58526e-05
-7.69803e-05
1.84488e-05
-8.58501e-05
-5.74088e-05
-9.52509e-05
-0.00013332
-0.000105939
-0.000208061
-0.000117479
-0.000285392
-0.000130237
-0.000363689
-0.000143892
-0.000449092
-0.000157884
-0.000537599
-0.000171386
-0.000638198
-0.00018363
-0.000737442
-0.000196196
-0.00085321
-0.000219621
-0.000978206
-0.000241961
-0.00120246
-0.000189861
-0.0014107
-0.00104606
4.91262e-05
0.000361538
6.95421e-05
0.000759113
7.72199e-05
0.000948206
7.87775e-05
0.00102323
7.39358e-05
0.000996984
6.52405e-05
0.000905073
5.59302e-05
0.000793724
4.7827e-05
0.000687801
4.12408e-05
0.000592613
3.56398e-05
0.000504742
3.04565e-05
0.000420917
2.52234e-05
0.000339405
1.95386e-05
0.0002594
1.3121e-05
0.000180678
5.67325e-06
0.0001033
-3.01197e-06
2.7134e-05
-1.25718e-05
-4.7849e-05
-2.38324e-05
-0.00012206
-3.55951e-05
-0.000196298
-4.91566e-05
-0.000271831
-6.34428e-05
-0.000349403
-7.85287e-05
-0.000434006
-9.46502e-05
-0.000521477
-0.000110657
-0.000622191
-0.000125537
-0.000722563
-0.000139511
-0.000839235
-0.000160486
-0.00095723
-0.000185436
-0.00117751
-0.000156521
-0.00143962
-0.00120258
6.5851e-05
0.000295687
0.000108359
0.000716605
0.000131755
0.00092481
0.000143752
0.00101123
0.000144661
0.000996075
0.000138109
0.000911625
0.000129513
0.00080232
0.000121947
0.000695366
0.000116078
0.000598481
0.000111299
0.000509521
0.000106886
0.00042533
0.000102247
0.000344043
9.68636e-05
0.000264784
9.04434e-05
0.000187098
8.26047e-05
0.000111139
7.34023e-05
3.63364e-05
6.25557e-05
-3.70024e-05
5.00738e-05
-0.000109578
3.65733e-05
-0.000182797
2.02893e-05
-0.000255547
5.5559e-06
-0.000334669
-1.48959e-05
-0.000413554
-3.13915e-05
-0.000504982
-5.09738e-05
-0.000602608
-6.91393e-05
-0.000704397
-8.55484e-05
-0.000822826
-0.000106767
-0.000936012
-0.000135424
-0.00114885
-0.000127698
-0.00144734
-0.00133028
7.57555e-05
0.000219932
0.000140563
0.000651798
0.000180855
0.000884518
0.000204075
0.000988009
0.000211358
0.000988792
0.000207136
0.000915847
0.00019879
0.000810665
0.000191336
0.000702821
0.000186257
0.000603561
0.000182906
0.000512872
0.000180205
0.000428032
0.000177271
0.000346977
0.000173307
0.000268748
0.000167949
0.000192456
0.000160695
0.000118393
0.000151384
4.56475e-05
0.00013991
-2.55285e-05
0.000126387
-9.60546e-05
0.000110668
-0.000167078
9.34894e-05
-0.000238369
7.41532e-05
-0.000315333
5.30547e-05
-0.000392456
3.24533e-05
-0.00048438
5.61896e-06
-0.000575774
-1.33215e-05
-0.000685457
-3.81234e-05
-0.000798024
-6.39577e-05
-0.000910178
-9.66222e-05
-0.00111619
-0.000103865
-0.0014401
-0.00143415
7.57872e-05
0.000144144
0.000162808
0.000564777
0.000222673
0.000824654
0.000259956
0.000950726
0.000277159
0.000971588
0.000279177
0.00091383
0.000273941
0.000815901
0.000267828
0.000708934
0.000263604
0.000607785
0.000261237
0.000515238
0.00025961
0.000429658
0.000257742
0.000348845
0.000254595
0.000271895
0.000249699
0.000197353
0.000242535
0.000125557
0.000232864
5.53185e-05
0.000220672
-1.3337e-05
0.000205861
-8.12432e-05
0.000188477
-0.000149694
0.000168979
-0.000218872
0.000146466
-0.000292819
0.00012306
-0.00036905
9.65702e-05
-0.00045789
6.89118e-05
-0.000548115
4.04864e-05
-0.000657032
6.62651e-06
-0.000764164
-2.24439e-05
-0.000881107
-6.29117e-05
-0.00107572
-8.59004e-05
-0.00141711
-0.00152005
6.45228e-05
7.96215e-05
0.000172164
0.000457136
0.000253045
0.000743773
0.000306008
0.000897763
0.000334835
0.000942761
0.000344118
0.000904547
0.000342559
0.00081746
0.000338187
0.000713306
0.00033523
0.000610742
0.00033451
0.000515958
0.000334897
0.000429272
0.000335235
0.000348506
0.000334236
0.000272895
0.000331114
0.000200474
0.000325355
0.000131316
0.000316545
6.41283e-05
0.000304397
-1.18841e-06
0.000289051
-6.58969e-05
0.000270424
-0.000131067
0.000248704
-0.000197152
0.000223713
-0.000267828
0.000196432
-0.000341769
0.000164975
-0.000426433
0.000132046
-0.000515187
9.43405e-05
-0.000619326
5.46252e-05
-0.000724449
1.39409e-05
-0.000840423
-3.65199e-05
-0.00102526
-7.31041e-05
-0.00138053
-0.00159315
4.74037e-05
3.22178e-05
0.000167059
0.00033748
0.000269058
0.000641774
0.000341496
0.000825325
0.000387045
0.000897213
0.000409947
0.000881645
0.000417603
0.000809804
0.000418389
0.000712521
0.000418114
0.000611017
0.000419101
0.000514971
0.000420901
0.000427472
0.000422583
0.000346823
0.000422893
0.000272585
0.000420807
0.000202561
0.000415709
0.000136414
0.00040698
7.28577e-05
0.000394781
1.10106e-05
0.000378476
-4.95928e-05
0.000358408
-0.000110999
0.000334448
-0.000173191
0.000306594
-0.000239974
0.000274967
-0.000310142
0.000238638
-0.000390105
0.000198587
-0.000475135
0.000152501
-0.000573241
0.000102824
-0.000674772
4.85383e-05
-0.000786137
-1.23448e-05
-0.000964378
-6.12418e-05
-0.00133163
-0.00165439
2.95238e-05
2.69402e-06
0.000146141
0.000220863
0.000264922
0.000522993
0.000356698
0.000733549
0.000419667
0.000834244
0.000457932
0.00084338
0.000477786
0.000789949
0.000487307
0.000703
0.000492734
0.00060559
0.000497625
0.00051008
0.000502642
0.000422456
0.000507225
0.00034224
0.000510322
0.000269487
0.000510707
0.000202176
0.000507765
0.000139356
0.000500778
7.98452e-05
0.000489515
2.22731e-05
0.000473582
-3.36596e-05
0.000453079
-9.04964e-05
0.000427582
-0.000147694
0.000397134
-0.000209526
0.000361102
-0.00027411
0.000318968
-0.000347971
0.000270148
-0.000426315
0.000213828
-0.000516921
0.000150762
-0.000611705
8.35789e-05
-0.000718954
1.25737e-05
-0.000893372
-4.6192e-05
-0.00127287
-0.00170058
1.61691e-05
-1.34751e-05
0.000112128
0.000124904
0.000240142
0.000394979
0.000351146
0.000622545
0.000437064
0.000748326
0.000498591
0.000781853
0.000538558
0.000749983
0.000564063
0.000677495
0.000580467
0.000589185
0.000592304
0.000498243
0.000601853
0.000412907
0.000609389
0.000334704
0.000614603
0.000264274
0.000616569
0.00020021
0.000614792
0.000141132
0.000608426
8.62111e-05
0.000597344
3.33557e-05
0.000581006
-1.73224e-05
0.000559241
-6.87311e-05
0.000531493
-0.000119946
0.000497653
-0.000175686
0.000456498
-0.000232955
0.000407627
-0.000299101
0.000348851
-0.000367538
0.000280702
-0.000448771
0.000201977
-0.000532981
0.000121426
-0.000638403
4.04652e-05
-0.000812412
-3.17824e-05
-0.00120062
-0.00173237
9.09626e-06
-2.25713e-05
7.46914e-05
5.9309e-05
0.00018813
0.00028154
0.000308325
0.00050235
0.000414545
0.000642106
0.000498602
0.000697795
0.000563773
0.000684813
0.00061193
0.000629337
0.000646402
0.000554713
0.000672035
0.000472609
0.000691673
0.00039327
0.000706473
0.000319904
0.000717034
0.000253713
0.000723159
0.000194085
0.000724535
0.000139756
0.000720665
9.00806e-05
0.000711141
4.28794e-05
0.000695719
-1.90002e-06
0.000673746
-4.67578e-05
0.000644706
-9.09061e-05
0.000607855
-0.000138834
0.000561736
-0.000186837
0.000505243
-0.000242607
0.000435838
-0.000298134
0.00035398
-0.000366914
0.000257233
-0.000436234
0.000160244
-0.000541414
5.91118e-05
-0.000711279
-2.76125e-05
-0.00111389
-0.00175998
1.37192e-06
-2.39433e-05
3.70073e-05
2.36736e-05
0.000118538
0.000200009
0.000242818
0.00037807
0.000365921
0.000519003
0.000480307
0.00058341
0.000577841
0.000587278
0.000654746
0.000552433
0.00071503
0.00049443
0.000761284
0.000426355
0.000796007
0.000358547
0.000821662
0.000294249
0.000839514
0.000235862
0.000850693
0.000182906
0.000854944
0.000135505
0.000852922
9.21025e-05
0.000843777
5.20241e-05
0.000827525
1.43519e-05
0.000803492
-2.27247e-05
0.000771427
-5.8841e-05
0.000729326
-9.67334e-05
0.000676747
-0.000134258
0.000611062
-0.000176922
0.000531502
-0.000218574
0.000437284
-0.000272696
0.00032708
-0.000326031
0.000213211
-0.000427545
8.88333e-05
-0.000586901
-1.13547e-05
-0.00101371
-0.00177133
-3.58319e-05
1.18887e-05
-3.27688e-05
2.06105e-05
1.10782e-05
0.000156162
0.000122073
0.000267074
0.000249059
0.000392018
0.000393043
0.000439425
0.000521291
0.00045903
0.000632216
0.000441508
0.000724886
0.00040176
0.000799345
0.000351896
0.000856523
0.000301369
0.000900896
0.000249876
0.000932315
0.000204443
0.000954455
0.000160766
0.000965874
0.000124086
0.000969661
8.83155e-05
0.000963278
5.84072e-05
0.000949705
2.79253e-05
0.000925309
1.67073e-06
0.00089275
-2.62816e-05
0.000847693
-5.16764e-05
0.000792017
-7.85825e-05
0.000721171
-0.000106075
0.000636934
-0.000134337
0.000536112
-0.000171874
0.000423081
-0.000213
0.000297866
-0.000302329
0.000172051
-0.000461086
5.51962e-05
-0.000896852
-0.00171614
-0.000142866
0.000154754
-0.000143676
2.14209e-05
-0.000107733
0.000120219
-1.75166e-06
0.000161093
0.000138466
0.0002518
0.000307425
0.000270466
0.000460856
0.0003056
0.000608251
0.000294112
0.000730228
0.000279783
0.000833263
0.000248861
0.00091404
0.000220592
0.000978711
0.000185205
0.00102549
0.000157664
0.00105983
0.000126423
0.00107981
0.000104107
0.00108993
7.81918e-05
0.00108764
6.06997e-05
0.0010767
3.88643e-05
0.00105366
2.47176e-05
0.00102182
5.55232e-06
0.000977712
-7.56643e-06
0.000923546
-2.44168e-05
0.000855291
-3.78201e-05
0.000776344
-5.53893e-05
0.000679822
-7.53514e-05
0.000576035
-0.000109213
0.000452604
-0.000178898
0.000343737
-0.000352219
0.000200248
-0.000753363
-0.00151589
-0.000131149
0.000285903
-0.000241501
0.000131773
-0.000236615
0.000115334
-0.000164913
8.93904e-05
-9.57698e-06
9.64645e-05
0.000155689
0.0001052
0.000341817
0.000119472
0.000509249
0.000126679
0.000660524
0.000128509
0.000789617
0.000119768
0.000897519
0.000112689
0.000984578
9.81457e-05
0.00105378
8.84575e-05
0.00110704
7.31647e-05
0.0011458
6.53518e-05
0.00117286
5.11317e-05
0.00118771
4.58526e-05
0.00119396
3.26147e-05
0.00118888
2.97881e-05
0.00117767
1.67711e-05
0.00115391
1.61863e-05
0.00112682
2.67218e-06
0.00108486
4.14217e-06
0.00104252
-1.30475e-05
0.000977919
-1.07497e-05
0.000909235
-4.05295e-05
0.000793603
-6.32669e-05
0.000655108
-0.000213724
0.000405351
-0.000503606
-0.00111054
0.000285903
0.000417676
0.00053301
0.0006224
0.000718865
0.000824065
0.000943537
0.00107022
0.00119873
0.00131849
0.00143118
0.00152933
0.00161779
0.00169095
0.0017563
0.00180743
0.00185329
0.0018859
0.00191569
0.00193246
0.00194865
0.00195132
0.00195546
0.00194241
0.00193166
0.00189113
0.00182787
0.00161414
0.00111054
)
;

boundaryField
{
    movingWall
    {
        type            calculated;
        value           uniform 0;
    }
    fixedWalls
    {
        type            calculated;
        value           uniform 0;
    }
    frontAndBack
    {
        type            empty;
    }
}


// ************************************************************************* //
