/*--------------------------------*- C++ -*----------------------------------*\
| =========                 |                                                 |
| \\      /  F ield         | OpenFOAM: The Open Source CFD Toolbox           |
|  \\    /   O peration     | Version:  2406                                  |
|   \\  /    A nd           | Website:  www.openfoam.com                      |
|    \\/     M anipulation  |                                                 |
\*---------------------------------------------------------------------------*/
FoamFile
{
    version     2.0;
    format      ascii;
    arch        "LSB;label=32;scalar=64";
    class       volVectorField;
    location    "39.45";
    object      U_0;
}
// * * * * * * * * * * * * * * * * * * * * * * * * * * * * * * * * * * * * * //

dimensions      [0 1 -1 0 0 0 0];

internalField   nonuniform List<vector> 
14400
(
(-6.51623e-06 6.41023e-06 0)
(1.77626e-05 -1.2065e-05 0)
(0.000128875 -3.57055e-05 0)
(0.00032131 -5.46206e-05 0)
(0.000574625 -6.75268e-05 0)
(0.000866191 -7.43323e-05 0)
(0.00117369 -7.57074e-05 0)
(0.00147761 -7.25905e-05 0)
(0.00176224 -6.60952e-05 0)
(0.00201626 -5.73878e-05 0)
(0.00223278 -4.75954e-05 0)
(0.00240908 -3.77186e-05 0)
(0.00254605 -2.85661e-05 0)
(0.00264735 -2.07145e-05 0)
(0.00271849 -1.44917e-05 0)
(0.0027659 -9.9778e-06 0)
(0.0027961 -7.07661e-06 0)
(0.00281479 -5.63642e-06 0)
(0.00282624 -5.25816e-06 0)
(0.00283308 -5.48804e-06 0)
(0.00283582 -5.76804e-06 0)
(0.00283353 -5.23401e-06 0)
(0.00282375 -3.79693e-06 0)
(0.00280221 -1.30554e-06 0)
(0.00276384 2.42549e-06 0)
(0.00270299 7.49481e-06 0)
(0.00261371 1.39441e-05 0)
(0.00248986 2.17914e-05 0)
(0.00232522 3.1053e-05 0)
(0.0021135 4.17577e-05 0)
(0.00184827 5.39496e-05 0)
(0.00152296 6.76821e-05 0)
(0.00113084 8.30062e-05 0)
(0.000665107 9.99562e-05 0)
(0.000119005 0.000118538 0)
(-0.000514045 0.000138718 0)
(-0.00124023 0.000160419 0)
(-0.00206511 0.000183508 0)
(-0.00299339 0.000207803 0)
(-0.0040287 0.000233062 0)
(-0.00517329 0.000258991 0)
(-0.00642781 0.000285242 0)
(-0.00779112 0.000311416 0)
(-0.00926006 0.000337069 0)
(-0.0108293 0.000361719 0)
(-0.0124912 0.000384854 0)
(-0.0142359 0.000405939 0)
(-0.016051 0.000424427 0)
(-0.0179218 0.000439764 0)
(-0.0198315 0.000451402 0)
(-0.0217611 0.000458803 0)
(-0.0236896 0.000461447 0)
(-0.0255944 0.00045884 0)
(-0.0274513 0.00045052 0)
(-0.0292351 0.000436069 0)
(-0.0309196 0.000415114 0)
(-0.0324779 0.000387341 0)
(-0.0338831 0.000352511 0)
(-0.0351086 0.000310465 0)
(-0.0361282 0.000261042 0)
(-0.0369175 0.000204493 0)
(-0.0374537 0.000142584 0)
(-0.0377131 7.59413e-05 0)
(-0.037676 2.01495e-06 0)
(-0.0373296 -7.84423e-05 0)
(-0.036663 -0.000162689 0)
(-0.0356682 -0.000249246 0)
(-0.0343435 -0.000336752 0)
(-0.0326929 -0.000423527 0)
(-0.0307266 -0.000507698 0)
(-0.0284614 -0.000587242 0)
(-0.0259209 -0.000660054 0)
(-0.0231355 -0.000724021 0)
(-0.020142 -0.000777123 0)
(-0.0169836 -0.000817529 0)
(-0.0137084 -0.000843705 0)
(-0.010369 -0.00085451 0)
(-0.00702053 -0.000849285 0)
(-0.00371975 -0.000827927 0)
(-0.000522782 -0.000790922 0)
(0.00251651 -0.000739358 0)
(0.00534835 -0.000674885 0)
(0.00792881 -0.000599651 0)
(0.0102213 -0.00051619 0)
(0.0121977 -0.000427291 0)
(0.0138394 -0.000335841 0)
(0.0151374 -0.00024467 0)
(0.0160924 -0.000156389 0)
(0.0167144 -7.31898e-05 0)
(0.0170225 2.71994e-06 0)
(0.0170413 6.82857e-05 0)
(0.0167992 0.000123382 0)
(0.0163322 0.000169965 0)
(0.0156791 0.000207571 0)
(0.0148769 0.00023534 0)
(0.0139619 0.000253881 0)
(0.0129691 0.000264209 0)
(0.0119303 0.000267396 0)
(0.0108739 0.000264577 0)
(0.00982405 0.000256897 0)
(0.00880052 0.000245458 0)
(0.0078189 0.000231283 0)
(0.00689074 0.000215287 0)
(0.00602388 0.000198272 0)
(0.00522294 0.000180913 0)
(0.00448974 0.000163764 0)
(0.00382382 0.000147268 0)
(0.00322289 0.000131763 0)
(0.00268325 0.000117486 0)
(0.0022003 0.000104564 0)
(0.00176904 9.29997e-05 0)
(0.00138464 8.26346e-05 0)
(0.00104319 7.31155e-05 0)
(0.000742499 6.38605e-05 0)
(0.000482992 5.40541e-05 0)
(0.000268319 4.27428e-05 0)
(0.000105462 2.90966e-05 0)
(3.23006e-06 1.2898e-05 0)
(-3.40305e-05 -3.76741e-06 0)
(-1.32408e-05 -1.32598e-05 0)
(1.09248e-05 -1.68975e-05 0)
(0.000158106 -0.000162471 0)
(0.000488059 -0.000336804 0)
(0.000992838 -0.000480823 0)
(0.00162586 -0.000581107 0)
(0.00234119 -0.000635289 0)
(0.00309055 -0.000646705 0)
(0.00383028 -0.000621809 0)
(0.0045242 -0.000568808 0)
(0.00514522 -0.000496624 0)
(0.00567583 -0.000414065 0)
(0.00610768 -0.000329104 0)
(0.00644047 -0.000248314 0)
(0.00668029 -0.000176504 0)
(0.00683758 -0.000116555 0)
(0.00692504 -6.94417e-05 0)
(0.00695555 -3.44432e-05 0)
(0.00694047 -9.52321e-06 0)
(0.00688818 8.48532e-06 0)
(0.00680303 2.34157e-05 0)
(0.00668516 3.92689e-05 0)
(0.00652996 6.00587e-05 0)
(0.00632875 8.87501e-05 0)
(0.00606986 0.000127697 0)
(0.00573908 0.000178561 0)
(0.0053205 0.000242349 0)
(0.00479725 0.000319591 0)
(0.00415194 0.000410543 0)
(0.003367 0.000515354 0)
(0.00242477 0.000634172 0)
(0.00130765 0.000767159 0)
(-1.77825e-06 0.000914441 0)
(-0.00152052 0.00107601 0)
(-0.00326482 0.00125162 0)
(-0.00524968 0.00144067 0)
(-0.00748831 0.00164215 0)
(-0.00999148 0.00185456 0)
(-0.0127669 0.00207586 0)
(-0.0158183 0.00230353 0)
(-0.0191455 0.00253449 0)
(-0.0227429 0.00276519 0)
(-0.0265997 0.00299162 0)
(-0.0306995 0.00320943 0)
(-0.0350198 0.00341396 0)
(-0.0395324 0.00360042 0)
(-0.0442033 0.0037639 0)
(-0.0489929 0.00389961 0)
(-0.0538572 0.00400288 0)
(-0.0587476 0.00406935 0)
(-0.0636119 0.00409501 0)
(-0.0683956 0.00407634 0)
(-0.073042 0.00401033 0)
(-0.0774936 0.00389458 0)
(-0.0816928 0.00372729 0)
(-0.0855827 0.00350734 0)
(-0.0891079 0.00323431 0)
(-0.0922153 0.00290845 0)
(-0.094855 0.00253081 0)
(-0.0969805 0.00210319 0)
(-0.0985497 0.00162819 0)
(-0.0995247 0.0011094 0)
(-0.0998743 0.000552365 0)
(-0.0995747 -3.68165e-05 0)
(-0.098605 -0.000654625 0)
(-0.0969521 -0.00129411 0)
(-0.0946132 -0.00194596 0)
(-0.0915929 -0.00260069 0)
(-0.0879047 -0.00324798 0)
(-0.0835709 -0.00387679 0)
(-0.078624 -0.00447544 0)
(-0.0731061 -0.00503187 0)
(-0.0670691 -0.00553395 0)
(-0.060575 -0.00596981 0)
(-0.0536949 -0.00632828 0)
(-0.0465085 -0.0065993 0)
(-0.0391031 -0.00677443 0)
(-0.0315722 -0.0068473 0)
(-0.0240139 -0.00681403 0)
(-0.016529 -0.00667357 0)
(-0.00921833 -0.00642797 0)
(-0.00218092 -0.00608247 0)
(0.0044889 -0.00564547 0)
(0.0107039 -0.00512834 0)
(0.0163865 -0.00454498 0)
(0.0214708 -0.00391137 0)
(0.0259048 -0.00324488 0)
(0.0296518 -0.00256351 0)
(0.0326909 -0.0018852 0)
(0.0350181 -0.00122702 0)
(0.036645 -0.000604629 0)
(0.0375992 -3.24982e-05 0)
(0.0379239 0.000479568 0)
(0.0376734 0.000926203 0)
(0.0369103 0.00130221 0)
(0.0357047 0.00160472 0)
(0.034132 0.00183465 0)
(0.0322681 0.00199557 0)
(0.0301876 0.00209296 0)
(0.0279609 0.00213381 0)
(0.0256527 0.002126 0)
(0.0233203 0.0020779 0)
(0.0210123 0.00199788 0)
(0.0187689 0.00189393 0)
(0.0166212 0.00177346 0)
(0.014592 0.00164301 0)
(0.0126964 0.00150825 0)
(0.0109427 0.00137391 0)
(0.00933355 0.00124374 0)
(0.00786689 0.00112053 0)
(0.00653724 0.00100602 0)
(0.00533711 0.000900771 0)
(0.00425847 0.000803933 0)
(0.0032945 0.000713065 0)
(0.00244142 0.000624007 0)
(0.00170019 0.000531051 0)
(0.0010776 0.000427803 0)
(0.000586036 0.000309232 0)
(0.000239366 0.000176044 0)
(4.79453e-05 4.25759e-05 0)
(-2.68025e-06 -3.30664e-05 0)
(3.28559e-05 -0.000122196 0)
(0.000322704 -0.00048833 0)
(0.000854096 -0.000871319 0)
(0.0016137 -0.00118629 0)
(0.00253277 -0.0014063 0)
(0.00355315 -0.00152464 0)
(0.00461186 -0.00154688 0)
(0.00565106 -0.00148608 0)
(0.0066221 -0.00135979 0)
(0.00748774 -0.00118757 0)
(0.00822295 -0.000989021 0)
(0.00881456 -0.000782097 0)
(0.00925984 -0.000581752 0)
(0.00956444 -0.00039907 0)
(0.00973976 -0.000240821 0)
(0.00980018 -0.000109441 0)
(0.00976031 -3.3575e-06 0)
(0.00963262 8.2349e-05 0)
(0.00942548 0.000155001 0)
(0.00914173 0.000223461 0)
(0.00877811 0.000297 0)
(0.00832508 0.000384241 0)
(0.00776747 0.000492876 0)
(0.00708557 0.000628871 0)
(0.0062561 0.000796407 0)
(0.00525341 0.000998095 0)
(0.00405048 0.00123534 0)
(0.00261965 0.00150877 0)
(0.00093325 0.00181855 0)
(-0.00103598 0.00216459 0)
(-0.00331445 0.00254654 0)
(-0.00592721 0.00296368 0)
(-0.00889723 0.00341463 0)
(-0.0122447 0.00389717 0)
(-0.0159858 0.00440798 0)
(-0.0201322 0.0049425 0)
(-0.0246893 0.00549482 0)
(-0.0296557 0.00605771 0)
(-0.0350222 0.00662264 0)
(-0.0407712 0.00717993 0)
(-0.046876 0.00771894 0)
(-0.053301 0.00822831 0)
(-0.0600015 0.00869627 0)
(-0.0669247 0.00911097 0)
(-0.07401 0.00946082 0)
(-0.0811906 0.00973484 0)
(-0.0883947 0.009923 0)
(-0.0955467 0.0100164 0)
(-0.102569 0.0100077 0)
(-0.109384 0.00989094 0)
(-0.115914 0.00966195 0)
(-0.122085 0.00931822 0)
(-0.127825 0.00885887 0)
(-0.133068 0.00828466 0)
(-0.13775 0.00759782 0)
(-0.141815 0.00680203 0)
(-0.145214 0.00590229 0)
(-0.147901 0.00490487 0)
(-0.149838 0.00381727 0)
(-0.150994 0.0026482 0)
(-0.151343 0.00140737 0)
(-0.150867 0.000105358 0)
(-0.149554 -0.00124491 0)
(-0.147403 -0.00262868 0)
(-0.144413 -0.00403183 0)
(-0.140594 -0.00543865 0)
(-0.135965 -0.00683156 0)
(-0.13055 -0.00819162 0)
(-0.124384 -0.00949892 0)
(-0.117509 -0.0107327 0)
(-0.109975 -0.0118719 0)
(-0.101844 -0.0128952 0)
(-0.093183 -0.0137819 0)
(-0.0840702 -0.0145126 0)
(-0.0745911 -0.0150695 0)
(-0.0648389 -0.0154374 0)
(-0.0549136 -0.0156045 0)
(-0.0449202 -0.0155629 0)
(-0.0349677 -0.0153096 0)
(-0.025167 -0.0148464 0)
(-0.0156286 -0.0141808 0)
(-0.00646089 -0.0133256 0)
(0.00223278 -0.0122992 0)
(0.0103562 -0.0111247 0)
(0.0178227 -0.00982945 0)
(0.0245574 -0.0084443 0)
(0.0304992 -0.00700225 0)
(0.0356021 -0.00553747 0)
(0.039837 -0.00408396 0)
(0.0431919 -0.00267419 0)
(0.045673 -0.00133743 0)
(0.0473049 -9.9764e-05 0)
(0.0481274 0.00101645 0)
(0.0481949 0.00199419 0)
(0.0475765 0.00282326 0)
(0.0463522 0.00349866 0)
(0.0446096 0.00402077 0)
(0.0424404 0.00439513 0)
(0.0399377 0.00463168 0)
(0.0371924 0.00474386 0)
(0.0342902 0.00474761 0)
(0.0313093 0.00466031 0)
(0.0283184 0.00449978 0)
(0.0253753 0.00428348 0)
(0.022527 0.00402778 0)
(0.0198092 0.00374747 0)
(0.0172471 0.00345542 0)
(0.0148566 0.00316236 0)
(0.0126456 0.00287665 0)
(0.0106154 0.00260404 0)
(0.00876305 0.00234735 0)
(0.0070832 0.00210603 0)
(0.00557058 0.00187582 0)
(0.00422242 0.00164871 0)
(0.00304062 0.00141353 0)
(0.00203312 0.00115794 0)
(0.00121367 0.00087259 0)
(0.0005961 0.000558946 0)
(0.000201861 0.000241865 0)
(1.68613e-05 1.2198e-05 0)
(5.01229e-05 -0.000303283 0)
(0.000459595 -0.000982493 0)
(0.00116055 -0.00162921 0)
(0.00212703 -0.00215077 0)
(0.00326599 -0.00251069 0)
(0.00450865 -0.00269913 0)
(0.00578155 -0.0027248 0)
(0.00701775 -0.0026088 0)
(0.0081609 -0.00237993 0)
(0.00916765 -0.00207063 0)
(0.0100083 -0.00171363 0)
(0.0106663 -0.00133896 0)
(0.0111367 -0.000971773 0)
(0.0114237 -0.000630721 0)
(0.0115377 -0.000327206 0)
(0.0114919 -6.52571e-05 0)
(0.0112996 0.000157935 0)
(0.0109709 0.000350979 0)
(0.0105109 0.000526753 0)
(0.0099179 0.000700687 0)
(0.00918278 0.000889026 0)
(0.00828903 0.00110716 0)
(0.0072135 0.00136841 0)
(0.00592767 0.00168324 0)
(0.00439905 0.00205903 0)
(0.0025926 0.00250033 0)
(0.000472094 0.00300946 0)
(-0.00199883 0.00358712 0)
(-0.00485568 0.00423286 0)
(-0.00813225 0.00494533 0)
(-0.0118596 0.0057222 0)
(-0.016065 0.00655987 0)
(-0.0207706 0.00745311 0)
(-0.0259922 0.00839463 0)
(-0.0317373 0.00937481 0)
(-0.0380045 0.0103815 0)
(-0.0447814 0.0114002 0)
(-0.0520444 0.0124139 0)
(-0.0597577 0.0134039 0)
(-0.0678734 0.0143497 0)
(-0.076332 0.0152303 0)
(-0.0850634 0.0160242 0)
(-0.0939885 0.0167106 0)
(-0.103021 0.0172698 0)
(-0.11207 0.0176842 0)
(-0.121041 0.0179385 0)
(-0.129841 0.0180204 0)
(-0.138379 0.0179206 0)
(-0.146565 0.0176333 0)
(-0.154319 0.0171555 0)
(-0.161563 0.0164874 0)
(-0.16823 0.0156321 0)
(-0.174258 0.0145946 0)
(-0.179594 0.0133824 0)
(-0.184193 0.0120047 0)
(-0.188017 0.0104719 0)
(-0.191033 0.00879586 0)
(-0.193217 0.0069896 0)
(-0.19455 0.00506704 0)
(-0.195017 0.0030432 0)
(-0.194609 0.00093411 0)
(-0.193322 -0.00124359 0)
(-0.191156 -0.00347222 0)
(-0.188117 -0.00573106 0)
(-0.184216 -0.00799855 0)
(-0.179466 -0.0102522 0)
(-0.173888 -0.0124678 0)
(-0.167507 -0.0146194 0)
(-0.160357 -0.0166797 0)
(-0.152476 -0.0186201 0)
(-0.143911 -0.0204112 0)
(-0.134715 -0.0220236 0)
(-0.124951 -0.0234278 0)
(-0.114689 -0.0245961 0)
(-0.104007 -0.0255026 0)
(-0.0929927 -0.0261248 0)
(-0.0817397 -0.0264443 0)
(-0.0703483 -0.026448 0)
(-0.0589245 -0.0261292 0)
(-0.0475775 -0.0254879 0)
(-0.0364188 -0.0245318 0)
(-0.0255593 -0.0232763 0)
(-0.0151077 -0.0217445 0)
(-0.00516815 -0.0199668 0)
(0.00416226 -0.0179798 0)
(0.0127953 -0.015826 0)
(0.0206539 -0.0135517 0)
(0.0276732 -0.0112059 0)
(0.0338028 -0.00883882 0)
(0.0390076 -0.00649995 0)
(0.0432687 -0.00423657 0)
(0.0465839 -0.00209285 0)
(0.0489673 -0.000108173 0)
(0.0504508 0.00168505 0)
(0.051083 0.0032621 0)
(0.0509264 0.00460571 0)
(0.0500572 0.00570688 0)
(0.0485622 0.00656501 0)
(0.0465359 0.00718739 0)
(0.0440772 0.00758837 0)
(0.0412854 0.00778811 0)
(0.0382572 0.00781112 0)
(0.035083 0.00768466 0)
(0.0318442 0.00743718 0)
(0.0286119 0.00709686 0)
(0.025445 0.00669041 0)
(0.0223902 0.00624211 0)
(0.0194822 0.00577301 0)
(0.016745 0.00530031 0)
(0.0141933 0.00483672 0)
(0.0118342 0.00438976 0)
(0.00967043 0.00396109 0)
(0.00770226 0.00354603 0)
(0.00593081 0.00313352 0)
(0.00436051 0.00270729 0)
(0.00300107 0.00224899 0)
(0.00186819 0.00174409 0)
(0.000977543 0.00119233 0)
(0.000369556 0.00062261 0)
(3.81601e-05 0.000137187 0)
(6.29366e-05 -0.000543062 0)
(0.000565279 -0.00160707 0)
(0.00140133 -0.0025546 0)
(0.00253017 -0.00329792 0)
(0.00383429 -0.00379848 0)
(0.00523342 -0.00404733 0)
(0.00664466 -0.0040587 0)
(0.00799416 -0.00386339 0)
(0.0092206 -0.00350286 0)
(0.0102772 -0.00302366 0)
(0.0111317 -0.00247255 0)
(0.011766 -0.00189236 0)
(0.0121736 -0.00131877 0)
(0.0123569 -0.000778062 0)
(0.0123243 -0.00028601 0)
(0.0120862 0.000152328 0)
(0.0116519 0.000541817 0)
(0.0110267 0.000895746 0)
(0.0102093 0.00123364 0)
(0.00919079 0.00157866 0)
(0.00795373 0.00195503 0)
(0.00647259 0.00238556 0)
(0.00471488 0.00288981 0)
(0.00264268 0.00348295 0)
(0.000214455 0.00417545 0)
(-0.00261315 0.00497341 0)
(-0.00588362 0.0058793 0)
(-0.00963906 0.00689272 0)
(-0.0139187 0.00801099 0)
(-0.0187575 0.00922924 0)
(-0.0241842 0.0105403 0)
(-0.0302198 0.0119342 0)
(-0.0368755 0.0133976 0)
(-0.0441509 0.0149137 0)
(-0.0520324 0.0164614 0)
(-0.0604919 0.0180162 0)
(-0.0694862 0.0195502 0)
(-0.078957 0.0210327 0)
(-0.0888315 0.0224316 0)
(-0.0990244 0.0237141 0)
(-0.10944 0.0248481 0)
(-0.119976 0.0258037 0)
(-0.130524 0.026554 0)
(-0.140977 0.0270762 0)
(-0.151229 0.0273522 0)
(-0.161179 0.0273691 0)
(-0.170734 0.0271194 0)
(-0.17981 0.0266001 0)
(-0.188332 0.0258132 0)
(-0.196236 0.0247645 0)
(-0.203467 0.0234631 0)
(-0.20998 0.0219208 0)
(-0.21574 0.0201513 0)
(-0.220716 0.0181699 0)
(-0.224886 0.0159927 0)
(-0.228234 0.0136368 0)
(-0.230747 0.0111194 0)
(-0.232416 0.00845838 0)
(-0.233236 0.00567193 0)
(-0.233201 0.00277876 0)
(-0.232313 -0.000201649 0)
(-0.230571 -0.00324885 0)
(-0.227978 -0.0063415 0)
(-0.224538 -0.00945678 0)
(-0.22026 -0.0125696 0)
(-0.215152 -0.015653 0)
(-0.20923 -0.0186782 0)
(-0.20251 -0.0216142 0)
(-0.195016 -0.0244279 0)
(-0.186775 -0.0270841 0)
(-0.177823 -0.0295465 0)
(-0.168203 -0.0317776 0)
(-0.157965 -0.0337402 0)
(-0.147169 -0.0353978 0)
(-0.135882 -0.036716 0)
(-0.124183 -0.037664 0)
(-0.112157 -0.0382159 0)
(-0.0998998 -0.0383517 0)
(-0.0875119 -0.0380593 0)
(-0.0751006 -0.037335 0)
(-0.0627771 -0.0361846 0)
(-0.050654 -0.0346237 0)
(-0.0388433 -0.0326779 0)
(-0.0274543 -0.0303824 0)
(-0.0165907 -0.0277809 0)
(-0.00634922 -0.0249245 0)
(0.00318301 -0.0218704 0)
(0.0119295 -0.0186798 0)
(0.019826 -0.0154162 0)
(0.0268211 -0.0121439 0)
(0.0328775 -0.00892567 0)
(0.0379721 -0.0058215 0)
(0.0420965 -0.00288637 0)
(0.0452581 -0.000168787 0)
(0.04748 0.00228959 0)
(0.0488007 0.00445613 0)
(0.0492736 0.00630807 0)
(0.0489665 0.00783308 0)
(0.0479598 0.00902942 0)
(0.0463435 0.00990569 0)
(0.0442149 0.01048 0)
(0.0416747 0.0107783 0)
(0.038823 0.0108331 0)
(0.0357563 0.0106809 0)
(0.0325634 0.0103602 0)
(0.0293238 0.00990949 0)
(0.0261051 0.0093656 0)
(0.0229628 0.00876173 0)
(0.01994 0.00812634 0)
(0.0170686 0.00748176 0)
(0.0143704 0.00684294 0)
(0.0118602 0.00621639 0)
(0.00954772 0.00559933 0)
(0.00744126 0.00497973 0)
(0.00555037 0.00433773 0)
(0.00388879 0.00364948 0)
(0.00247667 0.00289399 0)
(0.0013348 0.00206454 0)
(0.000526583 0.00118364 0)
(5.77602e-05 0.000343064 0)
(7.2302e-05 -0.000827228 0)
(0.000645066 -0.00233451 0)
(0.001585 -0.0036139 0)
(0.00283614 -0.00458798 0)
(0.00425773 -0.0052222 0)
(0.005757 -0.0055132 0)
(0.00724163 -0.00548419 0)
(0.00863175 -0.00517834 0)
(0.00986263 -0.00465168 0)
(0.0108858 -0.00396616 0)
(0.0116684 -0.00318335 0)
(0.0121919 -0.00235903 0)
(0.0124492 -0.00153914 0)
(0.0124411 -0.000756907 0)
(0.0121731 -3.14638e-05 0)
(0.0116515 0.00063231 0)
(0.0108797 0.0012427 0)
(0.0098556 0.00181903 0)
(0.00856919 0.00238863 0)
(0.00700166 0.00298342 0)
(0.00512514 0.00363617 0)
(0.0029036 0.00437734 0)
(0.000294424 0.00523251 0)
(-0.00274942 0.00622093 0)
(-0.00627718 0.00735511 0)
(-0.010338 0.00864123 0)
(-0.0149789 0.01008 0)
(-0.0202424 0.0116675 0)
(-0.0261647 0.0133958 0)
(-0.0327733 0.0152525 0)
(-0.0400847 0.0172212 0)
(-0.0481018 0.0192804 0)
(-0.056812 0.0214033 0)
(-0.0661855 0.0235576 0)
(-0.0761744 0.025706 0)
(-0.0867124 0.0278073 0)
(-0.0977164 0.0298171 0)
(-0.109088 0.0316899 0)
(-0.120717 0.033381 0)
(-0.132487 0.0348482 0)
(-0.144275 0.0360537 0)
(-0.155962 0.0369658 0)
(-0.167432 0.0375594 0)
(-0.178579 0.0378169 0)
(-0.189307 0.0377286 0)
(-0.19953 0.0372914 0)
(-0.20918 0.0365089 0)
(-0.218196 0.03539 0)
(-0.226533 0.0339477 0)
(-0.234156 0.0321985 0)
(-0.241036 0.0301611 0)
(-0.247155 0.0278553 0)
(-0.2525 0.0253018 0)
(-0.257061 0.0225214 0)
(-0.260833 0.0195346 0)
(-0.263812 0.0163616 0)
(-0.265996 0.0130222 0)
(-0.267382 0.00953581 0)
(-0.267969 0.00592187 0)
(-0.267755 0.00219996 0)
(-0.266739 -0.00160974 0)
(-0.264918 -0.00548604 0)
(-0.26229 -0.00940634 0)
(-0.258854 -0.0133463 0)
(-0.25461 -0.0172792 0)
(-0.249558 -0.0211758 0)
(-0.243703 -0.025004 0)
(-0.23705 -0.0287285 0)
(-0.229611 -0.0323114 0)
(-0.221402 -0.0357115 0)
(-0.212444 -0.0388854 0)
(-0.202768 -0.0417881 0)
(-0.192411 -0.0443734 0)
(-0.18142 -0.0465955 0)
(-0.169852 -0.0484105 0)
(-0.157775 -0.0497778 0)
(-0.145267 -0.0506618 0)
(-0.132417 -0.0510341 0)
(-0.119322 -0.0508748 0)
(-0.106089 -0.0501744 0)
(-0.0928292 -0.0489349 0)
(-0.0796595 -0.0471703 0)
(-0.0666971 -0.0449072 0)
(-0.0540583 -0.0421844 0)
(-0.0418548 -0.0390513 0)
(-0.0301918 -0.0355672 0)
(-0.0191656 -0.031799 0)
(-0.00886144 -0.0278192 0)
(0.000646796 -0.0237033 0)
(0.00929795 -0.0195285 0)
(0.0170436 -0.0153706 0)
(0.0238481 -0.0113031 0)
(0.0296887 -0.00739495 0)
(0.0345554 -0.00370928 0)
(0.0384518 -0.00030217 0)
(0.0413947 0.00277894 0)
(0.043415 0.00549653 0)
(0.0445575 0.00782408 0)
(0.0448812 0.009747 0)
(0.0444577 0.011263 0)
(0.0433704 0.0123823 0)
(0.0417111 0.0131261 0)
(0.0395773 0.0135261 0)
(0.0370686 0.0136216 0)
(0.0342826 0.0134574 0)
(0.0313116 0.0130812 0)
(0.0282394 0.0125408 0)
(0.0251396 0.0118815 0)
(0.0220739 0.0111439 0)
(0.0190922 0.0103617 0)
(0.0162332 0.00955951 0)
(0.0135264 0.00875114 0)
(0.0109941 0.00793828 0)
(0.00865456 0.00711021 0)
(0.00652549 0.00624518 0)
(0.00462755 0.00531431 0)
(0.00298823 0.00428863 0)
(0.00163636 0.00315016 0)
(0.000658763 0.00190569 0)
(7.41106e-05 0.000620251 0)
(7.94489e-05 -0.00114483 0)
(0.000705911 -0.00314016 0)
(0.00172348 -0.00477344 0)
(0.00306142 -0.00597947 0)
(0.00455719 -0.00673229 0)
(0.00610511 -0.00703881 0)
(0.00760353 -0.00693533 0)
(0.00896719 -0.00648065 0)
(0.010129 -0.00574779 0)
(0.0110403 -0.00481559 0)
(0.011669 -0.00376094 0)
(0.0119972 -0.0026524 0)
(0.0120177 -0.00154522 0)
(0.0117299 -0.000478206 0)
(0.0111357 0.000527885 0)
(0.0102358 0.00147021 0)
(0.00902583 0.00236228 0)
(0.00749409 0.00323105 0)
(0.00561962 0.0041129 0)
(0.0033718 0.00504912 0)
(0.00071091 0.00608113 0)
(-0.00241014 0.00724639 0)
(-0.00604347 0.00857523 0)
(-0.0102434 0.0100892 0)
(-0.0150637 0.0118004 0)
(-0.0205544 0.0137124 0)
(-0.0267597 0.0158205 0)
(-0.0337146 0.0181134 0)
(-0.0414423 0.0205727 0)
(-0.0499514 0.0231735 0)
(-0.0592334 0.025884 0)
(-0.06926 0.028665 0)
(-0.079982 0.0314706 0)
(-0.091329 0.0342487 0)
(-0.10321 0.0369427 0)
(-0.115518 0.0394935 0)
(-0.128129 0.0418424 0)
(-0.140914 0.0439332 0)
(-0.153739 0.0457155 0)
(-0.166472 0.0471461 0)
(-0.178988 0.0481916 0)
(-0.191174 0.048828 0)
(-0.202932 0.0490418 0)
(-0.214177 0.0488289 0)
(-0.224841 0.0481938 0)
(-0.234872 0.0471477 0)
(-0.244229 0.0457076 0)
(-0.252886 0.0438943 0)
(-0.260824 0.0417312 0)
(-0.268032 0.039243 0)
(-0.274504 0.0364548 0)
(-0.280238 0.0333912 0)
(-0.285235 0.0300762 0)
(-0.289496 0.0265325 0)
(-0.293023 0.0227817 0)
(-0.295815 0.0188441 0)
(-0.297874 0.0147392 0)
(-0.299198 0.0104858 0)
(-0.299784 0.00610251 0)
(-0.299628 0.00160793 0)
(-0.298725 -0.00297853 0)
(-0.297068 -0.0076363 0)
(-0.29465 -0.0123431 0)
(-0.291463 -0.0170742 0)
(-0.287499 -0.0218022 0)
(-0.282751 -0.0264964 0)
(-0.277212 -0.0311225 0)
(-0.270878 -0.0356422 0)
(-0.263748 -0.0400132 0)
(-0.255825 -0.0441892 0)
(-0.247117 -0.0481202 0)
(-0.237639 -0.0517534 0)
(-0.227415 -0.0550338 0)
(-0.216476 -0.0579058 0)
(-0.204867 -0.0603146 0)
(-0.192642 -0.062208 0)
(-0.179868 -0.0635392 0)
(-0.166626 -0.0642683 0)
(-0.153008 -0.0643653 0)
(-0.139118 -0.0638118 0)
(-0.12507 -0.0626031 0)
(-0.110985 -0.0607491 0)
(-0.0969889 -0.0582752 0)
(-0.0832073 -0.055222 0)
(-0.069765 -0.0516441 0)
(-0.0567801 -0.0476087 0)
(-0.0443616 -0.0431926 0)
(-0.0326071 -0.03848 0)
(-0.0216009 -0.0335594 0)
(-0.0114134 -0.0285209 0)
(-0.00210085 -0.0234534 0)
(0.00629406 -0.0184429 0)
(0.0137411 -0.0135706 0)
(0.020222 -0.00891176 0)
(0.0257295 -0.00453435 0)
(0.0302672 -0.000498193 0)
(0.0338501 0.00314629 0)
(0.0365046 0.00635928 0)
(0.0382696 0.00911275 0)
(0.0391967 0.0113916 0)
(0.0393501 0.0131943 0)
(0.0388055 0.0145328 0)
(0.0376484 0.0154323 0)
(0.0359714 0.0159293 0)
(0.0338707 0.0160694 0)
(0.0314423 0.0159048 0)
(0.0287787 0.0154908 0)
(0.0259657 0.0148826 0)
(0.0230797 0.0141321 0)
(0.0201867 0.0132842 0)
(0.0173417 0.0123744 0)
(0.0145895 0.0114256 0)
(0.0119665 0.0104459 0)
(0.00950322 0.00942797 0)
(0.00722801 0.00834977 0)
(0.00517108 0.00717795 0)
(0.00336959 0.00587432 0)
(0.00186247 0.00440581 0)
(0.000757727 0.0027566 0)
(8.62513e-05 0.00095412 0)
(8.52412e-05 -0.00148851 0)
(0.000753298 -0.00400471 0)
(0.00182642 -0.00600412 0)
(0.00321897 -0.00743461 0)
(0.00474793 -0.00828255 0)
(0.00629486 -0.00856968 0)
(0.00774935 -0.00834986 0)
(0.00902158 -0.00770122 0)
(0.0100434 -0.0067165 0)
(0.010767 -0.00549292 0)
(0.0111622 -0.00412314 0)
(0.0112127 -0.00268779 0)
(0.0109114 -0.00125003 0)
(0.0102557 0.000147868 0)
(0.00924315 0.00148583 0)
(0.00786714 0.00276546 0)
(0.00611386 0.00400766 0)
(0.00396 0.00524866 0)
(0.00137193 0.00653489 0)
(-0.00169391 0.00791707 0)
(-0.00528918 0.00944442 0)
(-0.00947096 0.0111596 0)
(-0.0142983 0.0130951 0)
(-0.0198289 0.0152713 0)
(-0.0261148 0.0176963 0)
(-0.0332 0.020366 0)
(-0.0411162 0.0232657 0)
(-0.04988 0.0263702 0)
(-0.0594894 0.029645 0)
(-0.0699215 0.0330459 0)
(-0.0811297 0.0365194 0)
(-0.0930437 0.0400038 0)
(-0.10557 0.0434307 0)
(-0.118592 0.0467273 0)
(-0.131981 0.0498196 0)
(-0.145593 0.0526361 0)
(-0.159284 0.0551114 0)
(-0.172908 0.0571888 0)
(-0.186333 0.0588234 0)
(-0.199435 0.0599827 0)
(-0.212112 0.0606472 0)
(-0.224276 0.0608096 0)
(-0.235861 0.0604737 0)
(-0.246816 0.0596522 0)
(-0.257107 0.0583649 0)
(-0.26671 0.0566364 0)
(-0.275614 0.0544945 0)
(-0.283814 0.0519686 0)
(-0.29131 0.0490882 0)
(-0.298107 0.0458825 0)
(-0.304209 0.0423789 0)
(-0.309622 0.0386035 0)
(-0.314354 0.0345803 0)
(-0.318407 0.0303317 0)
(-0.321787 0.025878 0)
(-0.324495 0.0212384 0)
(-0.326531 0.0164307 0)
(-0.327895 0.011472 0)
(-0.328582 0.00637918 0)
(-0.328588 0.00116923 0)
(-0.327905 -0.00413998 0)
(-0.326524 -0.00952928 0)
(-0.324436 -0.0149775 0)
(-0.321627 -0.0204608 0)
(-0.318084 -0.0259521 0)
(-0.313794 -0.0314205 0)
(-0.308741 -0.0368309 0)
(-0.302911 -0.0421431 0)
(-0.296292 -0.0473121 0)
(-0.288873 -0.0522875 0)
(-0.280648 -0.0570141 0)
(-0.271614 -0.0614323 0)
(-0.261778 -0.0654785 0)
(-0.251153 -0.0690871 0)
(-0.239765 -0.0721919 0)
(-0.22765 -0.074728 0)
(-0.21486 -0.0766347 0)
(-0.201462 -0.0778583 0)
(-0.187536 -0.0783548 0)
(-0.17318 -0.0780932 0)
(-0.158507 -0.0770576 0)
(-0.143641 -0.0752498 0)
(-0.128716 -0.0726902 0)
(-0.113871 -0.0694184 0)
(-0.099247 -0.065492 0)
(-0.0849816 -0.060985 0)
(-0.0712041 -0.055985 0)
(-0.0580316 -0.0505891 0)
(-0.0455661 -0.044901 0)
(-0.0338928 -0.0390261 0)
(-0.0230793 -0.0330687 0)
(-0.0131761 -0.0271292 0)
(-0.00421847 -0.0213015 0)
(0.00377173 -0.0156724 0)
(0.0107841 -0.0103203 0)
(0.016818 -0.00531482 0)
(0.0218816 -0.00071633 0)
(0.0259919 0.00342488 0)
(0.0291749 0.00706955 0)
(0.0314668 0.0101907 0)
(0.0329148 0.0127746 0)
(0.0335773 0.0148219 0)
(0.0335241 0.0163478 0)
(0.0328345 0.0173814 0)
(0.0315957 0.0179641 0)
(0.0298996 0.0181473 0)
(0.0278392 0.0179893 0)
(0.0255054 0.0175513 0)
(0.0229836 0.0168936 0)
(0.0203515 0.0160713 0)
(0.0176775 0.0151299 0)
(0.0150208 0.0141018 0)
(0.0124316 0.013003 0)
(0.00995353 0.0118307 0)
(0.00762721 0.0105639 0)
(0.00549411 0.00916528 0)
(0.00360257 0.00758684 0)
(0.00200246 0.00577819 0)
(0.000819101 0.00369691 0)
(9.37036e-05 0.00132715 0)
(9.01769e-05 -0.00185327 0)
(0.000790397 -0.00491254 0)
(0.00189924 -0.00727982 0)
(0.00331557 -0.00891739 0)
(0.00483695 -0.00982768 0)
(0.00633293 -0.010052 0)
(0.00768539 -0.00966631 0)
(0.00880137 -0.00877221 0)
(0.0096129 -0.00748483 0)
(0.0100745 -0.00592124 0)
(0.0101587 -0.00418986 0)
(0.009851 -0.00238229 0)
(0.00914424 -0.000567483 0)
(0.0080331 0.00121141 0)
(0.00650923 0.00293792 0)
(0.00455725 0.00462082 0)
(0.002152 0.00629062 0)
(-0.000742849 0.00799428 0)
(-0.00417443 0.00978855 0)
(-0.0081989 0.0117327 0)
(-0.0128782 0.0138816 0)
(-0.0182762 0.0162797 0)
(-0.0244539 0.0189574 0)
(-0.031465 0.0219291 0)
(-0.0393521 0.0251927 0)
(-0.0481423 0.0287306 0)
(-0.0578434 0.0325111 0)
(-0.0684412 0.0364886 0)
(-0.0798963 0.0406053 0)
(-0.0921427 0.0447921 0)
(-0.105088 0.04897 0)
(-0.118614 0.0530532 0)
(-0.132586 0.0569526 0)
(-0.14685 0.0605799 0)
(-0.161251 0.0638525 0)
(-0.175632 0.0666975 0)
(-0.189846 0.0690552 0)
(-0.20376 0.0708808 0)
(-0.217263 0.072146 0)
(-0.230261 0.0728373 0)
(-0.242684 0.0729555 0)
(-0.25448 0.0725126 0)
(-0.265615 0.0715296 0)
(-0.27607 0.0700342 0)
(-0.285835 0.068058 0)
(-0.294909 0.0656346 0)
(-0.303296 0.0627982 0)
(-0.311005 0.0595824 0)
(-0.318044 0.0560193 0)
(-0.324426 0.0521388 0)
(-0.330159 0.0479687 0)
(-0.335254 0.0435345 0)
(-0.339719 0.0388592 0)
(-0.343562 0.0339638 0)
(-0.346789 0.028867 0)
(-0.349404 0.0235864 0)
(-0.351411 0.0181379 0)
(-0.352809 0.0125367 0)
(-0.353597 0.00679758 0)
(-0.353773 0.000935558 0)
(-0.353329 -0.0050337 0)
(-0.352258 -0.0110932 0)
(-0.350548 -0.0172238 0)
(-0.348185 -0.0234038 0)
(-0.345153 -0.029608 0)
(-0.341432 -0.0358068 0)
(-0.337002 -0.0419659 0)
(-0.33184 -0.0480456 0)
(-0.325921 -0.054 0)
(-0.319222 -0.059777 0)
(-0.311721 -0.0653178 0)
(-0.303397 -0.0705577 0)
(-0.294237 -0.0754264 0)
(-0.284231 -0.0798491 0)
(-0.273382 -0.0837482 0)
(-0.261704 -0.0870456 0)
(-0.249223 -0.0896654 0)
(-0.235985 -0.091537 0)
(-0.222052 -0.092599 0)
(-0.207507 -0.0928027 0)
(-0.192454 -0.0921159 0)
(-0.177013 -0.0905261 0)
(-0.161323 -0.0880427 0)
(-0.145534 -0.0846986 0)
(-0.129805 -0.08055 0)
(-0.114297 -0.0756747 0)
(-0.0991669 -0.0701694 0)
(-0.0845606 -0.0641452 0)
(-0.0706089 -0.0577229 0)
(-0.0574227 -0.0510274 0)
(-0.045091 -0.0441826 0)
(-0.0336802 -0.0373078 0)
(-0.0232355 -0.0305138 0)
(-0.0137836 -0.0239015 0)
(-0.00533593 -0.0175608 0)
(0.00210797 -0.0115706 0)
(0.00855756 -0.00599935 0)
(0.0140294 -0.000904735 0)
(0.0185464 0.00366606 0)
(0.0221379 0.00767715 0)
(0.0248412 0.011105 0)
(0.0267019 0.0139397 0)
(0.0277756 0.0161857 0)
(0.0281277 0.0178624 0)
(0.027833 0.0190035 0)
(0.026974 0.0196556 0)
(0.0256381 0.0198752 0)
(0.0239148 0.0197252 0)
(0.0218926 0.0192705 0)
(0.0196555 0.0185733 0)
(0.0172816 0.0176877 0)
(0.014841 0.0166545 0)
(0.0123966 0.0154973 0)
(0.0100048 0.0142187 0)
(0.00771843 0.0127991 0)
(0.00559107 0.011198 0)
(0.00368258 0.0093576 0)
(0.00205365 0.00720957 0)
(0.000841892 0.00468394 0)
(9.63865e-05 0.00172059 0)
(9.44126e-05 -0.00223525 0)
(0.000818049 -0.00584956 0)
(0.00194285 -0.00857526 0)
(0.00335132 -0.0103916 0)
(0.00482274 -0.0113215 0)
(0.00621587 -0.0114308 0)
(0.00740664 -0.0108226 0)
(0.00830071 -0.00962585 0)
(0.00883196 -0.00798079 0)
(0.00895833 -0.00602529 0)
(0.00865569 -0.00388306 0)
(0.00791133 -0.00165486 0)
(0.00671722 0.000587198 0)
(0.00506397 0.00280231 0)
(0.00293575 0.00498079 0)
(0.000306644 0.00714138 0)
(-0.00286122 0.00932612 0)
(-0.00661775 0.0115934 0)
(-0.011023 0.0140094 0)
(-0.0161435 0.0166397 0)
(-0.0220475 0.0195407 0)
(-0.0287996 0.0227538 0)
(-0.0364549 0.026301 0)
(-0.0450543 0.0301838 0)
(-0.0546192 0.034383 0)
(-0.0651483 0.0388599 0)
(-0.0766135 0.0435582 0)
(-0.0889583 0.0484058 0)
(-0.102097 0.0533165 0)
(-0.115914 0.0581938 0)
(-0.130272 0.0629341 0)
(-0.145014 0.0674322 0)
(-0.159972 0.0715866 0)
(-0.174978 0.0753053 0)
(-0.18987 0.07851 0)
(-0.204502 0.0811399 0)
(-0.218748 0.083153 0)
(-0.232506 0.084526 0)
(-0.245695 0.0852531 0)
(-0.258259 0.0853428 0)
(-0.270161 0.0848154 0)
(-0.281378 0.0836997 0)
(-0.291903 0.0820301 0)
(-0.301734 0.079844 0)
(-0.310877 0.07718 0)
(-0.319344 0.0740766 0)
(-0.327147 0.0705707 0)
(-0.3343 0.0666974 0)
(-0.340817 0.0624891 0)
(-0.346713 0.0579759 0)
(-0.352003 0.0531849 0)
(-0.3567 0.0481408 0)
(-0.360817 0.0428656 0)
(-0.364366 0.037379 0)
(-0.367358 0.0316985 0)
(-0.369802 0.0258398 0)
(-0.371706 0.0198171 0)
(-0.373075 0.0136434 0)
(-0.373911 0.00733125 0)