/*--------------------------------*- C++ -*----------------------------------*\
| =========                 |                                                 |
| \\      /  F ield         | OpenFOAM: The Open Source CFD Toolbox           |
|  \\    /   O peration     | Version:  2406                                  |
|   \\  /    A nd           | Website:  www.openfoam.com                      |
|    \\/     M anipulation  |                                                 |
\*---------------------------------------------------------------------------*/
FoamFile
{
    version     2.0;
    format      ascii;
    arch        "LSB;label=32;scalar=64";
    class       volVectorField;
    location    "1.4";
    object      U;
}
// * * * * * * * * * * * * * * * * * * * * * * * * * * * * * * * * * * * * * //

dimensions      [0 1 -1 0 0 0 0];

internalField   nonuniform List<vector> 
3600
(
(-3.25681e-06 3.21255e-06 0)
(-4.84212e-05 1.59912e-05 0)
(-0.000137877 2.56642e-05 0)
(-0.000252488 2.95362e-05 0)
(-0.000374724 3.08578e-05 0)
(-0.000498908 3.09911e-05 0)
(-0.000622694 3.0776e-05 0)
(-0.000745261 3.04512e-05 0)
(-0.000866278 3.00722e-05 0)
(-0.000985515 2.96435e-05 0)
(-0.00110274 2.91615e-05 0)
(-0.0012177 2.86219e-05 0)
(-0.00133015 2.80215e-05 0)
(-0.00143984 2.73581e-05 0)
(-0.0015465 2.66298e-05 0)
(-0.00164985 2.58352e-05 0)
(-0.00174964 2.49725e-05 0)
(-0.0018456 2.40403e-05 0)
(-0.00193743 2.30372e-05 0)
(-0.00202488 2.19619e-05 0)
(-0.00210765 2.08131e-05 0)
(-0.00218548 1.95896e-05 0)
(-0.00225807 1.82904e-05 0)
(-0.00232514 1.69146e-05 0)
(-0.00238643 1.54616e-05 0)
(-0.00244164 1.39308e-05 0)
(-0.0024905 1.2322e-05 0)
(-0.00253273 1.06352e-05 0)
(-0.00256808 8.86988e-06 0)
(-0.00259629 7.0299e-06 0)
(-0.00261714 5.13479e-06 0)
(-0.00263036 3.21912e-06 0)
(-0.00263565 1.27184e-06 0)
(-0.00263285 -8.46662e-07 0)
(-0.00262186 -3.02555e-06 0)
(-0.00260246 -5.23621e-06 0)
(-0.00257451 -7.48484e-06 0)
(-0.00253789 -9.76509e-06 0)
(-0.00249253 -1.20687e-05 0)
(-0.00243839 -1.43864e-05 0)
(-0.00237545 -1.67076e-05 0)
(-0.00230376 -1.90205e-05 0)
(-0.0022234 -2.13128e-05 0)
(-0.00213449 -2.35711e-05 0)
(-0.0020372 -2.57815e-05 0)
(-0.00193178 -2.79296e-05 0)
(-0.00181848 -3.00007e-05 0)
(-0.00169765 -3.19801e-05 0)
(-0.00156966 -3.38535e-05 0)
(-0.00143494 -3.56069e-05 0)
(-0.00129398 -3.72279e-05 0)
(-0.00114728 -3.87053e-05 0)
(-0.000995419 -4.00266e-05 0)
(-0.000839008 -4.11666e-05 0)
(-0.000678854 -4.20362e-05 0)
(-0.000516431 -4.23243e-05 0)
(-0.00035505 -4.10119e-05 0)
(-0.000201739 -3.65792e-05 0)
(-7.86863e-05 -2.48434e-05 0)
(-8.55487e-06 -8.63764e-06 0)
(-1.6401e-05 4.87413e-05 0)
(-0.000152039 0.000150608 0)
(-0.000365989 0.000217025 0)
(-0.00062787 0.000245161 0)
(-0.000903268 0.000253709 0)
(-0.0011822 0.000254415 0)
(-0.00146 0.000252421 0)
(-0.00173483 0.000249414 0)
(-0.00200579 0.000245834 0)
(-0.00227224 0.000241749 0)
(-0.00253357 0.000237152 0)
(-0.00278916 0.00023203 0)
(-0.0030384 0.000226371 0)
(-0.0032807 0.000220169 0)
(-0.00351543 0.000213419 0)
(-0.00374199 0.000206118 0)
(-0.00395977 0.000198262 0)
(-0.00416818 0.00018985 0)
(-0.00436661 0.00018088 0)
(-0.00455447 0.000171352 0)
(-0.00473118 0.000161267 0)
(-0.00489615 0.000150624 0)
(-0.00504882 0.000139427 0)
(-0.00518863 0.00012768 0)
(-0.00531502 0.000115389 0)
(-0.00542746 0.00010256 0)
(-0.00552542 8.92043e-05 0)
(-0.0056084 7.53343e-05 0)
(-0.00567593 6.09666e-05 0)
(-0.00572753 4.61239e-05 0)
(-0.00576276 3.08428e-05 0)
(-0.00578123 1.51683e-05 0)
(-0.00578263 -8.70128e-07 0)
(-0.0057666 -1.73372e-05 0)
(-0.00573278 -3.41277e-05 0)
(-0.00568101 -5.11777e-05 0)
(-0.00561109 -6.84334e-05 0)
(-0.00552291 -8.58359e-05 0)
(-0.00541642 -0.00010332 0)
(-0.00529161 -0.000120815 0)
(-0.00514859 -0.000138244 0)
(-0.00498752 -0.000155525 0)
(-0.00480865 -0.000172571 0)
(-0.00461232 -0.00018929 0)
(-0.00439897 -0.000205588 0)
(-0.00416911 -0.000221368 0)
(-0.00392336 -0.000236531 0)
(-0.00366244 -0.000250979 0)
(-0.00338715 -0.000264617 0)
(-0.0030984 -0.00027735 0)
(-0.00279717 -0.000289094 0)
(-0.00248452 -0.000299767 0)
(-0.00216163 -0.000309279 0)
(-0.00182978 -0.000317438 0)
(-0.00149064 -0.000323598 0)
(-0.00114711 -0.000325648 0)
(-0.000805396 -0.000317562 0)
(-0.000477563 -0.000285737 0)
(-0.000205778 -0.000207344 0)
(-2.42662e-05 -7.82829e-05 0)
(-2.65747e-05 0.000140126 0)
(-0.000221697 0.000365983 0)
(-0.000504634 0.000498382 0)
(-0.000844014 0.000554696 0)
(-0.00119823 0.000571953 0)
(-0.00155668 0.000573172 0)
(-0.00191368 0.000568512 0)
(-0.00226681 0.000561433 0)
(-0.00261477 0.000552897 0)
(-0.00295667 0.000543105 0)
(-0.00329164 0.000532079 0)
(-0.00361886 0.000519813 0)
(-0.00393754 0.000506301 0)
(-0.00424687 0.00049154 0)
(-0.00454605 0.00047553 0)
(-0.00483429 0.000458275 0)
(-0.00511084 0.000439779 0)
(-0.00537491 0.000420047 0)
(-0.00562576 0.000399088 0)
(-0.00586264 0.000376909 0)
(-0.00608482 0.000353524 0)
(-0.0062916 0.000328944 0)
(-0.00648227 0.000303186 0)
(-0.00665615 0.000276269 0)
(-0.00681258 0.000248216 0)
(-0.00695092 0.000219054 0)
(-0.00707056 0.000188815 0)
(-0.0071709 0.000157536 0)
(-0.00725139 0.000125264 0)
(-0.0073115 9.20462e-05 0)
(-0.00735074 5.79367e-05 0)
(-0.00736867 2.29903e-05 0)
(-0.00736489 -1.27168e-05 0)
(-0.00733907 -4.90358e-05 0)
(-0.00729088 -8.59238e-05 0)
(-0.0072201 -0.000123278 0)
(-0.00712657 -0.000160975 0)
(-0.0070102 -0.000198885 0)
(-0.00687097 -0.000236869 0)
(-0.00670896 -0.000274774 0)
(-0.00652432 -0.000312439 0)
(-0.00631732 -0.000349694 0)
(-0.00608831 -0.000386358 0)
(-0.00583776 -0.000422244 0)
(-0.00556622 -0.000457156 0)
(-0.00527438 -0.000490898 0)
(-0.00496302 -0.000523268 0)
(-0.00463305 -0.000554067 0)
(-0.00428549 -0.000583098 0)
(-0.00392144 -0.000610171 0)
(-0.00354213 -0.000635106 0)
(-0.00314891 -0.000657725 0)
(-0.00274323 -0.000677819 0)
(-0.00232671 -0.000694952 0)
(-0.00190151 -0.000707774 0)
(-0.00147121 -0.000712024 0)
(-0.00104322 -0.000695874 0)
(-0.000630368 -0.000632849 0)
(-0.000282981 -0.000478413 0)
(-3.56684e-05 -0.000199466 0)
(-3.09824e-05 0.000258532 0)
(-0.000253693 0.00063269 0)
(-0.000569085 0.000839834 0)
(-0.000944493 0.000927451 0)
(-0.00133429 0.000954311 0)
(-0.00172812 0.000955985 0)
(-0.00212014 0.000948092 0)
(-0.0025078 0.000936052 0)
(-0.00288969 0.000921431 0)
(-0.00326478 0.000904603 0)
(-0.00363211 0.000885645 0)
(-0.00399077 0.00086457 0)
(-0.00433985 0.000841383 0)
(-0.00467846 0.000816093 0)
(-0.00500574 0.000788709 0)
(-0.00532082 0.000759247 0)
(-0.00562285 0.000727723 0)
(-0.005911 0.000694156 0)
(-0.00618445 0.000658567 0)
(-0.00644239 0.000620981 0)
(-0.00668405 0.000581424 0)
(-0.00690865 0.000539929 0)
(-0.00711545 0.000496529 0)
(-0.00730372 0.000451266 0)
(-0.00747276 0.000404185 0)
(-0.00762189 0.000355339 0)
(-0.00775046 0.000304787 0)
(-0.00785786 0.000252599 0)
(-0.0079435 0.000198853 0)
(-0.00800684 0.000143637 0)
(-0.00804735 8.7051e-05 0)
(-0.0080646 2.92048e-05 0)
(-0.00805817 -2.97786e-05 0)
(-0.0080277 -8.97424e-05 0)
(-0.0079729 -0.00015053 0)
(-0.00789355 -0.000211974 0)
(-0.00778947 -0.000273881 0)
(-0.00766061 -0.000336044 0)
(-0.00750696 -0.000398238 0)
(-0.00732862 -0.000460218 0)
(-0.00712579 -0.000521728 0)
(-0.00689875 -0.000582493 0)
(-0.00664791 -0.000642226 0)
(-0.00637378 -0.000700629 0)
(-0.00607697 -0.000757393 0)
(-0.00575824 -0.000812205 0)
(-0.00541844 -0.000864747 0)
(-0.00505855 -0.000914701 0)
(-0.00467966 -0.000961756 0)
(-0.00428301 -0.00100561 0)
(-0.0038699 -0.00104596 0)
(-0.0034418 -0.00108253 0)
(-0.00300028 -0.00111494 0)
(-0.00254711 -0.00114247 0)
(-0.0020846 -0.00116296 0)
(-0.00161649 -0.00116976 0)
(-0.00115038 -0.00114472 0)
(-0.000698921 -0.00104702 0)
(-0.000316958 -0.000806609 0)
(-4.02533e-05 -0.000350895 0)
(-3.27938e-05 0.000386563 0)
(-0.000266298 0.000917163 0)
(-0.000595479 0.00120141 0)
(-0.000986492 0.00132018 0)
(-0.00139153 0.00135617 0)
(-0.00180033 0.00135792 0)
(-0.00220705 0.00134648 0)
(-0.00260917 0.00132914 0)
(-0.00300525 0.00130805 0)
(-0.00339424 0.00128375 0)
(-0.00377514 0.00125636 0)
(-0.00414698 0.00122592 0)
(-0.00450884 0.00119246 0)
(-0.0048598 0.001156 0)
(-0.00519894 0.00111655 0)
(-0.00552537 0.00107416 0)
(-0.00583823 0.00102885 0)
(-0.00613664 0.00098065 0)
(-0.00641977 0.000929607 0)
(-0.0066868 0.00087576 0)
(-0.00693691 0.000819154 0)
(-0.00716931 0.000759841 0)
(-0.00738324 0.000697877 0)
(-0.00757797 0.000633326 0)
(-0.00775276 0.000566259 0)
(-0.00790692 0.000496755 0)
(-0.00803979 0.000424905 0)
(-0.00815074 0.000350809 0)
(-0.00823917 0.000274581 0)
(-0.00830451 0.000196351 0)
(-0.00834626 0.000116263 0)
(-0.00836393 3.44764e-05 0)
(-0.00835711 -4.88261e-05 0)
(-0.00832542 -0.000133444 0)
(-0.00826858 -0.000219155 0)
(-0.00818633 -0.000305714 0)
(-0.00807852 -0.000392855 0)
(-0.00794506 -0.000480288 0)
(-0.00778595 -0.000567699 0)
(-0.00760128 -0.000654752 0)
(-0.00739126 -0.000741089 0)
(-0.00715617 -0.00082633 0)
(-0.00689643 -0.000910078 0)
(-0.00661254 -0.00099192 0)
(-0.00630516 -0.00107143 0)
(-0.00597503 -0.00114818 0)
(-0.00562304 -0.00122171 0)
(-0.00525021 -0.00129161 0)
(-0.00485766 -0.00135743 0)
(-0.00444665 -0.00141874 0)
(-0.00401856 -0.00147515 0)
(-0.00357488 -0.00152623 0)
(-0.00311727 -0.00157146 0)
(-0.00264753 -0.00160982 0)
(-0.00216803 -0.00163838 0)
(-0.00168251 -0.0016482 0)
(-0.00119865 -0.00161478 0)
(-0.000729096 -0.00148252 0)
(-0.000331292 -0.00115346 0)
(-4.23312e-05 -0.000512352 0)
(-3.34281e-05 0.00051857 0)
(-0.000271503 0.00120992 0)
(-0.000607232 0.00157338 0)
(-0.00100602 0.00172366 0)
(-0.00141879 0.00176862 0)
(-0.00183519 0.00177023 0)
(-0.00224935 0.00175505 0)
(-0.00265878 0.00173224 0)
(-0.00306205 0.0017045 0)
(-0.0034581 0.00167252 0)
(-0.00384592 0.00163648 0)
(-0.00422455 0.00159644 0)
(-0.00459303 0.00155243 0)
(-0.00495044 0.0015045 0)
(-0.00529584 0.00145269 0)
(-0.00562835 0.00139704 0)
(-0.00594707 0.00133759 0)
(-0.00625113 0.0012744 0)
(-0.00653967 0.00120753 0)
(-0.00681188 0.00113703 0)
(-0.00706691 0.00106297 0)
(-0.00730399 0.000985417 0)
(-0.00752233 0.000904455 0)
(-0.00772117 0.000820169 0)
(-0.00789979 0.000732654 0)
(-0.00805749 0.000642017 0)
(-0.00819358 0.000548379 0)
(-0.00830741 0.000451872 0)
(-0.00839838 0.000352647 0)
(-0.0084659 0.000250871 0)
(-0.00850945 0.000146733 0)
(-0.00852853 4.04409e-05 0)
(-0.0085227 -6.77697e-05 0)
(-0.00849158 -0.00017764 0)
(-0.00843484 -0.000288883 0)
(-0.00835222 -0.000401186 0)
(-0.00824353 -0.000514205 0)
(-0.00810868 -0.000627567 0)
(-0.00794764 -0.000740868 0)
(-0.00776049 -0.000853677 0)
(-0.0075474 -0.000965533 0)
(-0.00730866 -0.00107595 0)
(-0.00704465 -0.00118441 0)
(-0.00675589 -0.0012904 0)
(-0.006443 -0.00139335 0)
(-0.00610676 -0.00149271 0)
(-0.00574804 -0.00158792 0)
(-0.00536787 -0.0016784 0)
(-0.0049674 -0.0017636 0)
(-0.00454791 -0.00184297 0)
(-0.0041108 -0.00191598 0)
(-0.00365761 -0.00198207 0)
(-0.00319002 -0.00204058 0)
(-0.00270988 -0.0020902 0)
(-0.00221957 -0.00212723 0)
(-0.0017229 -0.00214041 0)
(-0.00122764 -0.00209879 0)
(-0.000746691 -0.00193139 0)
(-0.00033925 -0.0015109 0)
(-4.33481e-05 -0.000678919 0)
(-3.37772e-05 0.000652459 0)
(-0.000274784 0.00150718 0)
(-0.00061511 0.00195141 0)
(-0.00101955 0.00213365 0)
(-0.00143813 0.00218759 0)
(-0.00186033 0.00218895 0)
(-0.00228021 0.00216991 0)
(-0.00269527 0.00214153 0)
(-0.0031041 0.00210705 0)
(-0.00350564 0.0020673 0)
(-0.00389888 0.0020225 0)
(-0.00428285 0.00197274 0)
(-0.00465659 0.00191808 0)
(-0.00501917 0.00185856 0)
(-0.00536966 0.00179425 0)
(-0.00570714 0.00172519 0)
(-0.00603074 0.00165146 0)
(-0.00633956 0.00157313 0)
(-0.00663276 0.00149026 0)
(-0.00690948 0.00140293 0)
(-0.00716891 0.00131123 0)
(-0.00741024 0.00121525 0)
(-0.00763268 0.00111509 0)
(-0.00783547 0.00101086 0)
(-0.00801786 0.000902675 0)
(-0.00817915 0.000790669 0)
(-0.00831863 0.000674992 0)
(-0.00843564 0.000555808 0)
(-0.00852956 0.000433301 0)
(-0.00859978 0.000307677 0)
(-0.00864574 0.000179165 0)
(-0.00866694 4.80231e-05 0)
(-0.00866291 -8.54646e-05 0)
(-0.00863323 -0.000220981 0)
(-0.00857754 -0.000358178 0)
(-0.00849557 -0.00049667 0)
(-0.00838709 -0.000636039 0)
(-0.00825196 -0.000775828 0)
(-0.00809014 -0.000915545 0)
(-0.00790167 -0.00105466 0)
(-0.0076867 -0.00119261 0)
(-0.00744548 -0.00132879 0)
(-0.00717838 -0.00146258 0)
(-0.00688589 -0.00159332 0)
(-0.00656863 -0.00172034 0)
(-0.00622735 -0.00184295 0)
(-0.00586294 -0.00196045 0)
(-0.00547642 -0.00207214 0)
(-0.00506896 -0.00217732 0)
(-0.00464186 -0.00227532 0)
(-0.00419654 -0.00236546 0)
(-0.00373458 -0.00244708 0)
(-0.0032577 -0.00251934 0)
(-0.00276778 -0.00258065 0)
(-0.00226727 -0.00262653 0)
(-0.00176006 -0.00264337 0)
(-0.00125411 -0.00259359 0)
(-0.000762651 -0.00239037 0)
(-0.000346411 -0.0018762 0)
(-4.42543e-05 -0.000849098 0)
(-3.41195e-05 0.000787817 0)
(-0.000278053 0.00180821 0)
(-0.000622985 0.00233462 0)
(-0.00103309 0.00254933 0)
(-0.00145758 0.00261236 0)
(-0.00188575 0.00261344 0)
(-0.00231155 0.00259048 0)
(-0.00273249 0.00255647 0)
(-0.00314712 0.00251517 0)
(-0.00355441 0.00246759 0)
(-0.00395334 0.00241397 0)
(-0.00434293 0.00235443 0)
(-0.00472223 0.00228904 0)
(-0.00509029 0.00221785 0)
(-0.00544618 0.00214095 0)
(-0.005789 0.0020584 0)
(-0.00611783 0.0019703 0)
(-0.0064318 0.00187671 0)
(-0.00673005 0.00177774 0)
(-0.00701172 0.00167348 0)
(-0.00727598 0.00156402 0)
(-0.00752203 0.00144948 0)
(-0.00774906 0.00132999 0)
(-0.00795631 0.00120565 0)
(-0.008143 0.00107663 0)
(-0.00830842 0.000943081 0)
(-0.00845185 0.00080517 0)
(-0.00857261 0.000663093 0)
(-0.00867005 0.000517068 0)
(-0.00874354 0.000367336 0)
(-0.0087925 0.000214166 0)
(-0.00881639 5.78594e-05 0)
(-0.0088147 -0.00010125 0)
(-0.00878699 -0.000262789 0)
(-0.00873288 -0.000426349 0)
(-0.00865202 -0.000591477 0)
(-0.00854416 -0.000757677 0)
(-0.00840914 -0.000924412 0)
(-0.00824685 -0.0010911 0)
(-0.0080573 -0.0012571 0)
(-0.00784061 -0.00142176 0)
(-0.00759699 -0.00158435 0)
(-0.00732678 -0.00174414 0)
(-0.00703044 -0.00190034 0)
(-0.00670857 -0.00205214 0)
(-0.00636192 -0.00219871 0)
(-0.00599136 -0.00233922 0)
(-0.00559793 -0.00247282 0)
(-0.00518278 -0.00259867 0)
(-0.00474725 -0.00271596 0)
(-0.0042928 -0.00282388 0)
(-0.00382103 -0.00292161 0)
(-0.00333372 -0.00300816 0)
(-0.00283281 -0.00308166 0)
(-0.00232082 -0.00313681 0)
(-0.00180175 -0.00315757 0)
(-0.00128384 -0.00309957 0)
(-0.000780687 -0.00285975 0)
(-0.000354591 -0.00224963 0)
(-4.5309e-05 -0.00102304 0)
(-3.45283e-05 0.000924809 0)
(-0.000281858 0.00211338 0)
(-0.000632007 0.00272337 0)
(-0.00104847 0.00297115 0)
(-0.00147961 0.00304344 0)
(-0.00191453 0.00304424 0)
(-0.00234705 0.00301731 0)
(-0.00277466 0.0029776 0)
(-0.00319592 0.00292944 0)
(-0.00360976 0.00287396 0)
(-0.00401517 0.00281146 0)
(-0.00441118 0.00274207 0)
(-0.00479682 0.00266587 0)
(-0.00517114 0.00258294 0)
(-0.00553321 0.00249337 0)
(-0.0058821 0.00239725 0)
(-0.00621693 0.00229467 0)
(-0.0065368 0.00218575 0)
(-0.00684084 0.00207057 0)
(-0.0071282 0.00194926 0)
(-0.00739803 0.00182193 0)
(-0.00764952 0.00168871 0)
(-0.00788185 0.00154974 0)
(-0.00809425 0.00140516 0)
(-0.00828594 0.00125514 0)
(-0.00845617 0.00109986 0)
(-0.00860421 0.000939514 0)
(-0.00872936 0.000774323 0)
(-0.00883094 0.000604533 0)
(-0.0089083 0.000430418 0)
(-0.00896082 0.000252284 0)
(-0.00898792 7.04724e-05 0)
(-0.00898907 -0.000114635 0)
(-0.00896378 -0.000302613 0)
(-0.00891161 -0.000492992 0)
(-0.00883219 -0.000685254 0)
(-0.00872522 -0.00087883 0)
(-0.00859047 -0.0010731 0)
(-0.0084278 -0.00126738 0)
(-0.00823717 -0.00146095 0)
(-0.00801864 -0.00165303 0)
(-0.00777239 -0.00184279 0)
(-0.00749872 -0.00202936 0)
(-0.00719806 -0.00221182 0)
(-0.00687099 -0.00238923 0)
(-0.00651821 -0.0025606 0)
(-0.00614062 -0.00272496 0)
(-0.00573922 -0.00288131 0)
(-0.00531522 -0.00302866 0)
(-0.00486995 -0.00316603 0)
(-0.00440491 -0.00329248 0)
(-0.00392176 -0.00340704 0)
(-0.00342233 -0.00350853 0)
(-0.00290863 -0.00359478 0)
(-0.00238328 -0.00365967 0)
(-0.00185045 -0.00368465 0)
(-0.00131864 -0.00361831 0)
(-0.000801916 -0.003341 0)
(-0.000364308 -0.0026325 0)
(-4.65791e-05 -0.00120143 0)
(-3.50161e-05 0.00106374 0)
(-0.00028631 0.00242333 0)
(-0.000642453 0.00311845 0)
(-0.00106618 0.00339995 0)
(-0.00150491 0.00348171 0)
(-0.00194751 0.00348225 0)
(-0.00238772 0.00345132 0)
(-0.00282297 0.00340586 0)
(-0.00325179 0.00335076 0)
(-0.00367313 0.00328732 0)
(-0.00408597 0.00321586 0)
(-0.00448931 0.00313654 0)
(-0.0048822 0.00304945 0)
(-0.00526368 0.00295469 0)
(-0.00563281 0.00285236 0)
(-0.00598868 0.00274257 0)
(-0.00633036 0.00262542 0)
(-0.00665697 0.00250104 0)
(-0.00696764 0.00236955 0)
(-0.0072615 0.00223107 0)
(-0.0075377 0.00208574 0)
(-0.00779542 0.0019337 0)
(-0.00803383 0.0017751 0)
(-0.00825214 0.00161011 0)
(-0.00844956 0.00143892 0)
(-0.00862532 0.00126171 0)
(-0.00877868 0.00107871 0)
(-0.0089089 0.000890153 0)
(-0.00901527 0.000696323 0)
(-0.00909712 0.000497517 0)
(-0.00915378 0.000294074 0)
(-0.00918465 8.63749e-05 0)
(-0.00918914 -0.000125156 0)
(-0.00916671 -0.000340044 0)
(-0.00911688 -0.000557763 0)
(-0.00903921 -0.00077773 0)
(-0.00893337 -0.000999304 0)
(-0.00879904 -0.00122178 0)
(-0.00863606 -0.00144439 0)
(-0.0084443 -0.00166631 0)
(-0.00822379 -0.00188664 0)
(-0.00797463 -0.00210445 0)
(-0.0076971 -0.00231871 0)
(-0.00739157 -0.00252838 0)
(-0.0070586 -0.00273237 0)
(-0.00669886 -0.00292954 0)
(-0.00631323 -0.00311875 0)
(-0.00590272 -0.00329883 0)
(-0.00546855 -0.00346864 0)
(-0.00501207 -0.00362704 0)
(-0.00453483 -0.00377291 0)
(-0.00403854 -0.00390513 0)
(-0.00352509 -0.00402234 0)
(-0.0029966 -0.00412201 0)
(-0.00245581 -0.00419718 0)
(-0.00190704 -0.00422669 0)
(-0.00135916 -0.00415192 0)
(-0.000826708 -0.0038361 0)
(-0.000375713 -0.00302646 0)
(-4.80808e-05 -0.00138511 0)
(-3.55826e-05 0.00120494 0)
(-0.00029142 0.00273877 0)
(-0.000654377 0.00352077 0)
(-0.00108632 0.0038367 0)
(-0.00153364 0.00392814 0)
(-0.00198494 0.00392847 0)
(-0.00243384 0.0038935 0)
(-0.00287772 0.00384222 0)
(-0.00331511 0.00378012 0)
(-0.00374493 0.00370862 0)
(-0.00416616 0.00362813 0)
(-0.00457781 0.00353878 0)
(-0.00497889 0.0034407 0)
(-0.00536846 0.00333401 0)
(-0.00574558 0.00321881 0)
(-0.0061093 0.00309524 0)
(-0.00645873 0.00296341 0)
(-0.00679296 0.00282346 0)
(-0.00711111 0.00267552 0)
(-0.00741231 0.00251974 0)
(-0.00769571 0.00235626 0)
(-0.00796047 0.00218524 0)
(-0.00820576 0.00200685 0)
(-0.00843077 0.00182128 0)
(-0.00863469 0.0016287 0)
(-0.00881674 0.00142935 0)
(-0.00897613 0.00122345 0)
(-0.00911213 0.00101126 0)
(-0.00922398 0.000793087 0)
(-0.00931096 0.00056925 0)
(-0.0093724 0.000340119 0)
(-0.00940761 0.000106107 0)
(-0.00941597 -0.000132321 0)
(-0.00939689 -0.000374646 0)
(-0.00934983 -0.000620288 0)
(-0.00927429 -0.000868603 0)
(-0.00916985 -0.00111888 0)
(-0.00903616 -0.00137033 0)
(-0.00887296 -0.0016221 0)
(-0.00868007 -0.00187325 0)
(-0.00845745 -0.00212279 0)
(-0.00820515 -0.00236964 0)
(-0.00792337 -0.00261265 0)
(-0.00761244 -0.00285063 0)
(-0.00727287 -0.00308233 0)
(-0.00690532 -0.00330644 0)
(-0.00651063 -0.00352166 0)
(-0.00608982 -0.00372663 0)
(-0.00564411 -0.00392004 0)
(-0.00517489 -0.00410056 0)
(-0.00468375 -0.0042669 0)
(-0.00417246 -0.00441776 0)
(-0.00364301 -0.00455157 0)
(-0.0030976 -0.00466545 0)
(-0.00253911 -0.00475153 0)
(-0.0019721 -0.00478595 0)
(-0.0014058 -0.00470264 0)
(-0.000855286 -0.00434719 0)
(-0.000388895 -0.00343327 0)
(-4.98246e-05 -0.00157496 0)
(-3.62256e-05 0.00134871 0)
(-0.000297185 0.00306044 0)
(-0.00066779 0.00393123 0)
(-0.00110895 0.00428239 0)
(-0.00156587 0.00438376 0)
(-0.0020269 0.0043839 0)
(-0.00248551 0.00434485 0)
(-0.00293905 0.00428769 0)
(-0.00338601 0.0042185 0)
(-0.00382532 0.00413887 0)
(-0.00425593 0.00404923 0)
(-0.00467684 0.00394975 0)
(-0.00508708 0.00384058 0)
(-0.00548569 0.00372184 0)
(-0.0058717 0.00359365 0)
(-0.0062442 0.00345617 0)
(-0.00660227 0.00330952 0)
(-0.00694499 0.00315386 0)
(-0.0072715 0.00298934 0)
(-0.0075809 0.0028161 0)
(-0.00787234 0.00263432 0)
(-0.00814497 0.00244416 0)
(-0.00839796 0.0022458 0)
(-0.00863046 0.00203944 0)
(-0.00884167 0.00182527 0)
(-0.00903077 0.00160353 0)
(-0.00919697 0.00137447 0)
(-0.00933947 0.00113836 0)
(-0.00945752 0.000895514 0)
(-0.00955034 0.000646278 0)
(-0.0096172 0.000391045 0)
(-0.0096574 0.000130256 0)
(-0.00967022 -0.000135589 0)
(-0.00965504 -0.000405931 0)
(-0.00961123 -0.000680141 0)
(-0.00953823 -0.000957516 0)
(-0.00943555 -0.00123728 0)
(-0.00930276 -0.00151856 0)
(-0.00913952 -0.00180042 0)
(-0.00894557 -0.00208181 0)
(-0.00872078 -0.00236163 0)
(-0.00846513 -0.00263866 0)
(-0.00817876 -0.00291163 0)
(-0.00786193 -0.00317917 0)
(-0.00751511 -0.00343987 0)
(-0.0071389 -0.00369225 0)
(-0.00673413 -0.0039348 0)
(-0.00630181 -0.004166 0)
(-0.00584317 -0.00438432 0)
(-0.00535962 -0.00458824 0)
(-0.00485281 -0.00477627 0)
(-0.00432458 -0.00494691 0)
(-0.00377702 -0.00509836 0)
(-0.00321244 -0.00522736 0)
(-0.0026339 -0.00532509 0)
(-0.00204617 -0.00536487 0)
(-0.00145892 -0.00527289 0)
(-0.000887877 -0.00487654 0)
(-0.000403954 -0.0038548 0)
(-5.18226e-05 -0.00177192 0)
(-3.69437e-05 0.00149537 0)
(-0.000303603 0.00338906 0)
(-0.000682702 0.00435079 0)
(-0.00113408 0.00473804 0)
(-0.00160164 0.00484961 0)
(-0.00207344 0.00484958 0)
(-0.00254282 0.00480641 0)
(-0.00300704 0.00474328 0)
(-0.0034646 0.00466691 0)
(-0.0039144 0.00457904 0)
(-0.00435538 0.00448014 0)
(-0.00478655 0.00437042 0)
(-0.00520691 0.00425003 0)
(-0.00561549 0.0041191 0)
(-0.00601135 0.00397779 0)
(-0.00639354 0.00382626 0)
(-0.00676114 0.00366465 0)
(-0.00711326 0.00349313 0)
(-0.00744898 0.00331186 0)
(-0.00776745 0.00312101 0)
(-0.00806778 0.00292076 0)
(-0.00834912 0.00271127 0)
(-0.00861062 0.00249275 0)
(-0.00885144 0.00226539 0)
(-0.00907075 0.00202941 0)
(-0.0092677 0.00178504 0)
(-0.00944148 0.00153254 0)
(-0.00959128 0.0012722 0)
(-0.00971628 0.00100433 0)
(-0.00981567 0.000729302 0)
(-0.00988869 0.000447525 0)
(-0.00993454 0.000159462 0)
(-0.00995249 -0.000134361 0)
(-0.00994181 -0.000433348 0)
(-0.00990181 -0.000736827 0)
(-0.00983186 -0.00104404 0)
(-0.00973137 -0.00135415 0)
(-0.00959983 -0.00166622 0)
(-0.00943678 -0.0019792 0)
(-0.0092419 -0.00229196 0)
(-0.00901496 -0.00260326 0)
(-0.00875584 -0.00291176 0)
(-0.0084646 -0.00321603 0)
(-0.00814143 -0.00351455 0)
(-0.00778672 -0.00380572 0)
(-0.00740104 -0.00408787 0)
(-0.00698518 -0.0043593 0)
(-0.00654013 -0.00461826 0)
(-0.00606712 -0.004863 0)
(-0.00556762 -0.00509179 0)
(-0.0050433 -0.00530291 0)
(-0.0044961 -0.00549465 0)
(-0.0039282 -0.00566494 0)
(-0.00334207 -0.00581012 0)
(-0.00274094 -0.00592034 0)
(-0.00212986 -0.00596601 0)
(-0.00151899 -0.00586527 0)
(-0.000924751 -0.00542661 0)
(-0.000421012 -0.00429304 0)
(-5.40908e-05 -0.00197695 0)
(-3.77366e-05 0.00164524 0)
(-0.000310679 0.00372538 0)
(-0.000699127 0.00478038 0)
(-0.00116175 0.00520468 0)
(-0.00164101 0.00532673 0)
(-0.00212465 0.00532658 0)
(-0.00260584 0.00527922 0)
(-0.0030818 0.00521004 0)
(-0.00355099 0.00512639 0)
(-0.0040123 0.00503015 0)
(-0.00446466 0.00492187 0)
(-0.00490706 0.00480177 0)
(-0.00533851 0.00467001 0)
(-0.00575803 0.00452675 0)
(-0.00616466 0.00437216 0)
(-0.00655746 0.00420642 0)
(-0.00693551 0.00402969 0)
(-0.0072979 0.00384214 0)
(-0.00764374 0.00364396 0)
(-0.00797213 0.00343533 0)
(-0.00828221 0.00321642 0)
(-0.00857311 0.00298743 0)
(-0.00884398 0.00274854 0)
(-0.00909395 0.00249997 0)
(-0.00932218 0.00224194 0)
(-0.00952781 0.00197468 0)
(-0.00971 0.00169845 0)
(-0.00986789 0.00141355 0)
(-0.0100006 0.00112031 0)
(-0.0101074 0.000819077 0)
(-0.0101873 0.000510291 0)
(-0.0102396 0.000194427 0)
(-0.0102634 -0.00012797 0)
(-0.0102579 -0.000456274 0)
(-0.0102224 -0.000789777 0)
(-0.010156 -0.00112768 0)
(-0.0100583 -0.00146907 0)
(-0.00992838 -0.00181295 0)
(-0.00976589 -0.0021582 0)
(-0.00957031 -0.00250356 0)
(-0.00934131 -0.00284768 0)
(-0.00907868 -0.00318908 0)
(-0.00878236 -0.00352618 0)
(-0.00845247 -0.00385728 0)
(-0.00808931 -0.00418059 0)
(-0.00769338 -0.00449423 0)
(-0.00726542 -0.00479627 0)
(-0.00680642 -0.00508473 0)
(-0.00631759 -0.00535763 0)
(-0.00580042 -0.00561297 0)
(-0.00525668 -0.00584881 0)
(-0.00468837 -0.00606316 0)
(-0.00409779 -0.00625368 0)
(-0.00348757 -0.00641627 0)
(-0.00286114 -0.00653998 0)
(-0.00222389 -0.00659215 0)
(-0.0015865 -0.00648255 0)
(-0.000966223 -0.00600002 0)
(-0.000440218 -0.00475013 0)
(-5.66493e-05 -0.00219111 0)
(-3.86042e-05 0.00179863 0)
(-0.000318418 0.00407013 0)
(-0.000717087 0.00522098 0)
(-0.00119199 0.00568336 0)
(-0.00168403 0.0058162 0)
(-0.00218059 0.00581595 0)
(-0.00267467 0.00576434 0)
(-0.00316343 0.00568901 0)
(-0.0036453 0.00559795 0)
(-0.00411914 0.00549322 0)
(-0.0045839 0.00537541 0)
(-0.00503853 0.00524477 0)
(-0.00548205 0.00510148 0)
(-0.00591346 0.00494573 0)
(-0.00633181 0.00477769 0)
(-0.00673614 0.00459757 0)
(-0.00712555 0.00440554 0)
(-0.00749911 0.00420179 0)
(-0.00785593 0.00398652 0)
(-0.00819512 0.00375992 0)
(-0.00851582 0.00352217 0)
(-0.00881714 0.00327347 0)
(-0.00909822 0.00301402 0)
(-0.0093582 0.00274402 0)
(-0.0095962 0.0024637 0)
(-0.00981136 0.00217329 0)
(-0.0100028 0.00187304 0)
(-0.0101696 0.00156326 0)
(-0.010311 0.00124426 0)
(-0.0104259 0.00091641 0)
(-0.0105136 0.000580136 0)
(-0.0105731 0.000235923 0)
(-0.0106036 -0.00011567 0)
(-0.010604 -0.000473999 0)
(-0.0105737 -0.000838329 0)
(-0.0105117 -0.00120782 0)
(-0.0104172 -0.00158151 0)
(-0.0102896 -0.00195833 0)
(-0.0101281 -0.00233707 0)
(-0.00993213 -0.0027164 0)
(-0.00970129 -0.00309481 0)
(-0.00943521 -0.00347071 0)
(-0.00913371 -0.00384234 0)
(-0.00879679 -0.00420781 0)
(-0.00842466 -0.00456512 0)
(-0.00801774 -0.00491219 0)
(-0.00757672 -0.00524681 0)
(-0.00710252 -0.00556677 0)
(-0.00659639 -0.0058698 0)
(-0.00605982 -0.00615364 0)
(-0.00549464 -0.00641605 0)
(-0.00490295 -0.00665476 0)
(-0.0042872 -0.00686712 0)
(-0.00365018 -0.00704852 0)
(-0.00299556 -0.00718687 0)
(-0.00232908 -0.00724627 0)
(-0.00166206 -0.00712771 0)
(-0.00101267 -0.00659957 0)
(-0.000461744 -0.00522836 0)
(-5.95215e-05 -0.00241554 0)
(-3.9547e-05 0.00195586 0)
(-0.000326831 0.00442408 0)
(-0.000736608 0.00567359 0)
(-0.00122485 0.00617516 0)
(-0.00173076 0.00631911 0)
(-0.00224135 0.00631879 0)
(-0.00274942 0.00626285 0)
(-0.00325206 0.00618126 0)
(-0.00374766 0.00608265 0)
(-0.00423509 0.00596927 0)
(-0.00471326 0.00584177 0)
(-0.00518113 0.00570042 0)
(-0.00563769 0.00554542 0)
(-0.00608195 0.00537698 0)
(-0.00651296 0.00519532 0)
(-0.00692976 0.00500062 0)
(-0.00733143 0.0047931 0)
(-0.00771706 0.00457297 0)
(-0.00808575 0.00434042 0)
(-0.00843663 0.00409565 0)
(-0.0087688 0.00383887 0)
(-0.00908141 0.00357026 0)
(-0.00937358 0.00329004 0)
(-0.00964443 0.00299839 0)
(-0.00989308 0.00269554 0)
(-0.0101186 0.00238172 0)
(-0.0103202 0.00205717 0)
(-0.0104969 0.00172218 0)
(-0.0106477 0.00137706 0)
(-0.0107718 0.00102217 0)
(-0.0108681 0.00065792 0)
(-0.0109357 0.000284799 0)
(-0.0109737 -9.66328e-05 0)
(-0.010981 -0.000485725 0)
(-0.0109567 -0.000881721 0)
(-0.0108998 -0.00128375 0)
(-0.0108094 -0.00169082 0)
(-0.0106846 -0.00210179 0)
(-0.0105247 -0.00251537 0)
(-0.0103289 -0.00293014 0)
(-0.0100965 -0.00334447 0)
(-0.00982716 -0.00375662 0)
(-0.00952048 -0.00416465 0)
(-0.00917633 -0.00456649 0)
(-0.00879481 -0.00495991 0)
(-0.00837622 -0.00534258 0)
(-0.00792118 -0.00571203 0)
(-0.00743058 -0.00606575 0)
(-0.00690562 -0.00640116 0)
(-0.00634784 -0.0067157 0)
(-0.00575912 -0.00700681 0)
(-0.00514166 -0.0072719 0)
(-0.00449807 -0.00750794 0)
(-0.00383133 -0.00770978 0)
(-0.00314539 -0.00786411 0)
(-0.0024464 -0.00793158 0)
(-0.00174638 -0.00780401 0)
(-0.00106451 -0.00722832 0)
(-0.000485792 -0.00573021 0)
(-6.27349e-05 -0.00265145 0)
(-4.05659e-05 0.00211724 0)
(-0.000335929 0.00478801 0)
(-0.000757721 0.00613919 0)
(-0.00126039 0.00668118 0)
(-0.0017813 0.00683659 0)
(-0.00230704 0.00683621 0)
(-0.00283021 0.00677585 0)
(-0.00334782 0.00668786 0)
(-0.00385824 0.00658154 0)
(-0.00436031 0.00645934 0)
(-0.00485292 0.00632196 0)
(-0.00533503 0.0061697 0)
(-0.00580563 0.00600279 0)
(-0.00626371 0.00582147 0)
(-0.00670832 0.00562596 0)
(-0.00713851 0.00541649 0)
(-0.00755335 0.00519329 0)
(-0.00795194 0.00495656 0)
(-0.0083334 0.00470653 0)
(-0.00869683 0.00444341 0)
(-0.00904136 0.00416739 0)
(-0.00936613 0.00387868 0)
(-0.00967025 0.00357747 0)
(-0.00995286 0.00326396 0)
(-0.010213 0.00293836 0)
(-0.0104499 0.00260088 0)
(-0.0106625 0.00225175 0)
(-0.01085 0.00189124 0)
(-0.0110112 0.00151963 0)
(-0.0111454 0.00113728 0)
(-0.0112513 0.000744577 0)
(-0.011328 0.000341987 0)
(-0.0113745 -6.9936e-05 0)
(-0.0113896 -0.000490545 0)
(-0.0113722 -0.000919079 0)
(-0.0113214 -0.00135465 0)
(-0.0112359 -0.00179623 0)
(-0.0111149 -0.00224263 0)
(-0.0109572 -0.0026925 0)
(-0.0107621 -0.0031443 0)
(-0.0105288 -0.00359632 0)
(-0.0102565 -0.00404664 0)
(-0.00994472 -0.00449315 0)
(-0.00959326 -0.00493358 0)
(-0.00920201 -0.00536547 0)
(-0.00877116 -0.00578618 0)
(-0.00830122 -0.00619298 0)
(-0.007793 -0.00658302 0)
(-0.00724768 -0.00695339 0)
(-0.00666681 -0.00730117 0)
(-0.00605234 -0.00762342 0)
(-0.00540658 -0.00791719 0)
(-0.00473229 -0.00817904 0)
(-0.0040327 -0.00840321 0)
(-0.00331204 -0.00857506 0)
(-0.00257695 -0.00865159 0)
(-0.00184024 -0.00851495 0)
(-0.00112225 -0.0078896 0)
(-0.000512597 -0.0062584 0)
(-6.63215e-05 -0.00290019 0)
(-4.1662e-05 0.00228312 0)
(-0.000345726 0.00516271 0)
(-0.000780465 0.00661883 0)
(-0.00129868 0.00720252 0)
(-0.00183573 0.00736977 0)
(-0.00237777 0.00736935 0)
(-0.00291717 0.00730446 0)
(-0.00345087 0.0072099 0)
(-0.00397721 0.0070957 0)
(-0.00449498 0.00696449 0)
(-0.00500309 0.00681701 0)
(-0.00550046 0.00665363 0)
(-0.00598608 0.00647459 0)
(-0.00645895 0.00628015 0)
(-0.00691811 0.00607058 0)
(-0.00736261 0.00584611 0)
(-0.00779153 0.00560699 0)
(-0.00820398 0.00535346 0)
(-0.00859907 0.00508574 0)
(-0.00897593 0.00480405 0)
(-0.00933369 0.00450861 0)
(-0.00967149 0.00419959 0)
(-0.00998846 0.00387721 0)
(-0.0102837 0.00354163 0)
(-0.0105563 0.00319306 0)
(-0.0108054 0.00283168 0)
(-0.0110301 0.00245771 0)
(-0.0112292 0.00207138 0)
(-0.0114019 0.00167296 0)
(-0.0115471 0.00126275 0)
(-0.0116637 0.000841118 0)
(-0.0117506 0.000408509 0)