/*--------------------------------*- C++ -*----------------------------------*\
| =========                 |                                                 |
| \\      /  F ield         | OpenFOAM: The Open Source CFD Toolbox           |
|  \\    /   O peration     | Version:  2406                                  |
|   \\  /    A nd           | Website:  www.openfoam.com                      |
|    \\/     M anipulation  |                                                 |
\*---------------------------------------------------------------------------*/
FoamFile
{
    version     2.0;
    format      ascii;
    arch        "LSB;label=32;scalar=64";
    class       volScalarField;
    location    "20.6";
    object      p;
}
// * * * * * * * * * * * * * * * * * * * * * * * * * * * * * * * * * * * * * //

dimensions      [0 2 -2 0 0 0 0];

internalField   nonuniform List<scalar> 
3600
(
0.0282001
0.0282026
0.0281885
0.0281666
0.0281321
0.0280898
0.0280389
0.0279809
0.0279164
0.0278457
0.0277703
0.0276903
0.0276073
0.0275216
0.0274344
0.0273462
0.0272584
0.0271718
0.0270887
0.0270108
0.0269413
0.0268834
0.026841
0.0268177
0.0268174
0.0268427
0.0268952
0.0269741
0.0270761
0.0271944
0.0273195
0.0274384
0.0275363
0.0275973
0.0276063
0.0275509
0.0274235
0.0272221
0.0269515
0.0266231
0.0262527
0.0258601
0.0254645
0.0250848
0.0247345
0.0244246
0.0241587
0.0239395
0.0237622
0.0236251
0.023519
0.0234426
0.0233847
0.0233481
0.0233202
0.0233094
0.023301
0.0233092
0.0233136
0.0233289
0.0281974
0.0281995
0.0281852
0.0281642
0.0281313
0.0280908
0.0280419
0.0279859
0.0279237
0.0278558
0.0277838
0.0277076
0.0276291
0.0275482
0.0274664
0.0273837
0.0273016
0.0272204
0.0271422
0.0270682
0.0270013
0.0269437
0.0268992
0.0268709
0.0268623
0.026876
0.026914
0.0269757
0.0270587
0.0271571
0.0272624
0.0273625
0.0274436
0.0274904
0.0274884
0.0274258
0.0272949
0.0270941
0.0268283
0.0265087
0.0261511
0.0257749
0.0253984
0.0250395
0.0247102
0.0244202
0.0241716
0.0239664
0.0237991
0.0236685
0.0235652
0.0234893
0.0234297
0.0233902
0.0233581
0.0233428
0.0233283
0.023331
0.0233286
0.0233442
0.0282125
0.0282134
0.0281987
0.0281765
0.0281433
0.0281021
0.028053
0.0279963
0.027934
0.0278655
0.0277934
0.027717
0.0276387
0.0275579
0.0274762
0.0273933
0.0273103
0.0272274
0.0271462
0.0270679
0.0269949
0.0269298
0.0268761
0.0268375
0.0268182
0.0268215
0.0268502
0.0269046
0.0269829
0.0270799
0.0271869
0.0272916
0.0273796
0.0274346
0.0274409
0.0273854
0.0272592
0.0270599
0.0267918
0.0264665
0.0261009
0.0257157
0.0253312
0.0249668
0.0246356
0.0243478
0.024105
0.0239084
0.0237509
0.0236303
0.0235363
0.0234683
0.0234148
0.0233802
0.0233509
0.023338
0.0233236
0.0233284
0.0233255
0.0233479
0.0282359
0.028233
0.0282179
0.0281939
0.0281613
0.0281195
0.0280711
0.0280144
0.0279526
0.0278844
0.0278131
0.0277375
0.0276604
0.0275804
0.0274992
0.0274157
0.0273306
0.0272433
0.027155
0.027066
0.0269785
0.0268949
0.026819
0.0267551
0.0267082
0.026683
0.0266835
0.0267117
0.0267672
0.026846
0.0269406
0.0270394
0.0271282
0.0271904
0.0272096
0.027171
0.0270639
0.0268839
0.0266335
0.0263229
0.0259685
0.0255914
0.0252129
0.0248542
0.0245298
0.024251
0.0240195
0.0238361
0.0236929
0.0235866
0.0235055
0.0234487
0.0234037
0.0233755
0.0233496
0.023339
0.0233239
0.0233291
0.0233241
0.0233514
0.028275
0.0282664
0.0282506
0.0282232
0.0281902
0.0281461
0.0280969
0.0280377
0.0279743
0.0279033
0.0278296
0.0277507
0.0276699
0.0275849
0.027497
0.0274038
0.0273056
0.0272005
0.0270889
0.0269704
0.0268473
0.026722
0.0265994
0.0264852
0.0263864
0.0263099
0.0262623
0.0262481
0.0262694
0.0263244
0.0264073
0.026508
0.0266124
0.0267038
0.0267637
0.026775
0.026723
0.0265988
0.0264005
0.0261344
0.025814
0.0254595
0.0250933
0.0247389
0.0244141
0.0241338
0.0239023
0.0237224
0.023586
0.0234898
0.0234205
0.0233763
0.0233431
0.0233257
0.0233081
0.0233047
0.0232938
0.0233034
0.0232996
0.0233316
0.0283228
0.0283069
0.0282907
0.0282596
0.0282268
0.0281805
0.0281307
0.0280691
0.0280039
0.0279298
0.0278527
0.0277689
0.0276816
0.027587
0.0274855
0.0273728
0.0272477
0.0271064
0.0269479
0.026771
0.0265776
0.0263709
0.0261575
0.0259453
0.025745
0.0255672
0.025423
0.0253213
0.0252685
0.025267
0.0253146
0.0254039
0.025523
0.0256553
0.0257816
0.0258815
0.0259355
0.0259281
0.0258493
0.0256972
0.0254782
0.0252071
0.0249037
0.0245922
0.0242935
0.0240271
0.0238024
0.0236264
0.023494
0.0234034
0.0233415
0.0233063
0.0232822
0.0232737
0.0232635
0.0232661
0.0232589
0.0232712
0.0232681
0.0233014
0.028381
0.0283567
0.0283401
0.0283045
0.0282715
0.0282215
0.0281699
0.0281038
0.0280344
0.0279535
0.0278687
0.0277735
0.0276711
0.0275547
0.0274232
0.0272691
0.0270889
0.0268758
0.0266275
0.0263417
0.026021
0.0256707
0.0253013
0.0249254
0.0245598
0.0242211
0.0239268
0.0236915
0.0235273
0.0234412
0.0234356
0.0235067
0.0236451
0.0238359
0.0240599
0.0242942
0.0245145
0.024697
0.0248215
0.0248735
0.0248465
0.024744
0.0245778
0.0243682
0.0241377
0.023911
0.0237051
0.0235352
0.023403
0.0233115
0.02325
0.0232177
0.0231986
0.0231965
0.023193
0.0232018
0.0231996
0.0232153
0.0232141
0.0232472
0.0284449
0.0284111
0.0283949
0.0283547
0.0283221
0.0282685
0.0282151
0.0281437
0.0280688
0.0279785
0.0278812
0.0277672
0.0276381
0.0274829
0.0272973
0.0270691
0.0267912
0.0264535
0.0260523
0.0255855
0.0250591
0.0244833
0.0238757
0.023257
0.0226521
0.0220856
0.021582
0.0211622
0.0208432
0.0206368
0.0205494
0.0205811
0.0207265
0.0209737
0.0213058
0.0217006
0.0221316
0.0225695
0.0229838
0.0233459
0.0236316
0.0238251
0.0239208
0.0239259
0.0238567
0.0237392
0.0235984
0.0234607
0.02334
0.0232491
0.0231843
0.0231487
0.023128
0.0231261
0.0231244
0.0231353
0.0231355
0.0231519
0.0231514
0.0231821
0.0285118
0.0284677
0.0284522
0.028407
0.0283745
0.028316
0.0282592
0.0281796
0.0280951
0.027989
0.0278699
0.0277226
0.0275459
0.0273225
0.0270431
0.0266891
0.0262496
0.025712
0.0250739
0.0243373
0.0235162
0.0226305
0.0217091
0.0207833
0.0198876
0.0190539
0.0183121
0.0176867
0.0171973
0.0168573
0.0166751
0.016653
0.016789
0.0170754
0.0175001
0.0180452
0.0186877
0.0193989
0.0201445
0.0208863
0.0215835
0.022198
0.0226976
0.0230632
0.0232909
0.0233956
0.0234038
0.0233527
0.0232731
0.0231951
0.0231289
0.0230865
0.0230589
0.0230516
0.0230471
0.0230563
0.0230565
0.0230719
0.0230718
0.0230991
0.0285771
0.028522
0.0285082
0.0284581
0.0284262
0.0283625
0.0283012
0.028211
0.0281122
0.027982
0.0278276
0.0276262
0.0273714
0.0270372
0.0266079
0.0260583
0.0253757
0.0245485
0.0235815
0.0224875
0.0212946
0.0200376
0.0187589
0.0175008
0.0163052
0.0152079
0.0142398
0.0134244
0.0127793
0.0123157
0.0120408
0.0119568
0.0120633
0.0123564
0.0128296
0.0134727
0.0142713
0.0152049
0.0162461
0.017358
0.0184948
0.0196025
0.0206232
0.0215027
0.0221993
0.022695
0.0229969
0.0231407
0.0231721
0.0231447
0.0230929
0.023047
0.0230096
0.0229915
0.0229783
0.0229802
0.0229761
0.0229871
0.0229854
0.0230086
0.0286338
0.028567
0.0285551
0.0284996
0.0284676
0.0283965
0.0283277
0.0282212
0.0280993
0.0279309
0.0277194
0.027432
0.0270546
0.0265508
0.0258987
0.0250695
0.0240538
0.0228494
0.0214768
0.0199674
0.0183692
0.016733
0.0151139
0.0135605
0.0121163
0.0108147
0.00968166
0.00873424
0.00798411
0.00743697
0.0070959
0.00696076
0.00703079
0.00730374
0.00777752
0.0084488
0.00931327
0.0103631
0.0115852
0.0129574
0.0144449
0.0159972
0.017547
0.0190144
0.0203156
0.0213798
0.0221643
0.0226712
0.0229398
0.0230419
0.023045
0.0230112
0.0229673
0.0229357
0.0229094
0.0228995
0.0228873
0.0228914
0.0228864
0.0229057
0.028676
0.0285972
0.028588
0.0285272
0.0284947
0.0284145
0.0283345
0.0282048
0.0280478
0.0278214
0.0275228
0.027106
0.0265481
0.0258024
0.024845
0.0236503
0.0222225
0.0205789
0.0187648
0.0168354
0.0148579
0.012896
0.0110094
0.00924494
0.00764015
0.00621926
0.00499908
0.00398757
0.003189
0.00260298
0.00222833
0.00206191
0.00210151
0.00234474
0.00279108
0.0034408
0.00429603
0.00535896
0.00663085
0.00810834
0.00977887
0.0116144
0.0135643
0.0155516
0.0174727
0.0192101
0.020653
0.0217301
0.0224283
0.022804
0.022949
0.0229685
0.0229323
0.022889
0.0228468
0.0228207
0.0227962
0.0227903
0.0227801
0.0227956
0.0286917
0.0286003
0.0285938
0.0285264
0.0284911
0.0283976
0.0282993
0.0281348
0.0279242
0.0276116
0.0271853
0.0265847
0.0257782
0.0247138
0.0233733
0.021746
0.0198614
0.0177659
0.0155333
0.0132401
0.0109661
0.00877677
0.00672664
0.00485181
0.00317763
0.00171622
0.000474278
-0.000548404
-0.00135324
-0.00194477
-0.00232676
-0.00250423
-0.00248061
-0.00225935
-0.00184153
-0.00122693
-0.000412135
0.000608652
0.00184408
0.00330372
0.00499497
0.00691747
0.00905369
0.0113591
0.0137502
0.0161027
0.0182602
0.020067
0.0214108
0.0222695
0.0227117
0.0228723
0.0228814
0.0228376
0.0227803
0.0227352
0.0226955
0.0226772
0.02266
0.022672
0.0286735
0.0285698
0.028566
0.028491
0.0284507
0.028339
0.0282139
0.0279998
0.0277119
0.0272777
0.0266747
0.025828
0.0247025
0.0232494
0.0214688
0.0193774
0.0170397
0.0145334
0.0119566
0.00939646
0.00693263
0.00462031
0.00250002
0.000592127
-0.00109146
-0.00254951
-0.00378256
-0.00479553
-0.00559211
-0.00617798
-0.00655711
-0.00673475
-0.00671462
-0.00650107
-0.00609659
-0.00550297
-0.00471905
-0.00374089
-0.00256025
-0.00116444
0.000462751
0.00233903
0.00447612
0.00687079
0.00948702
0.0122412
0.0149882
0.0175321
0.0196628
0.0212268
0.0221885
0.0226501
0.0227866
0.0227723
0.0227075
0.0226425
0.0225851
0.0225518
0.0225261
0.0225341
0.0286047
0.0284884
0.0284862
0.0284009
0.0283504
0.0282124
0.0280472
0.027763
0.0273672
0.0267691
0.0259354
0.0247816
0.0232771
0.0213889
0.0191484
0.0166092
0.0138722
0.0110402
0.00822278
0.00550332
0.00294836
0.000594656
-0.00153493
-0.00343524
-0.00510476
-0.00654893
-0.00777109
-0.00877698
-0.00956935
-0.0101526
-0.0105292
-0.0107035
-0.0106788
-0.0104599
-0.0100508
-0.00945568
-0.0086769
-0.00771473
-0.00656564
-0.00522079
-0.0036656
-0.00187803
0.000167268
0.00249587
0.00511748
0.00800959
0.0110878
0.0141885
0.01707
0.0194643
0.0211731
0.0221638
0.0225823
0.0226655
0.0226147
0.022533
0.0224569
0.0224061
0.0223706
0.0223732
0.0284773
0.0283489
0.0283472
0.028249
0.028183
0.0280097
0.0277892
0.0274114
0.0268736
0.0260666
0.0249498
0.0234366
0.0215131
0.0191752
0.0164953
0.0135653
0.0105152
0.00745904
0.00450208
0.00171077
-0.000869015
-0.00322121
-0.00533851
-0.00722661
-0.00888913
-0.0103333
-0.0115613
-0.0125766
-0.0133789
-0.01397
-0.0143501
-0.0145221
-0.0144884
-0.0142544
-0.013825
-0.0132069
-0.0124058
-0.0114264
-0.0102712
-0.00893794
-0.00741906
-0.00569752
-0.0037489
-0.00153781
0.000971057
0.00380474
0.00695046
0.0103253
0.0137404
0.0169013
0.0194776
0.0212316
0.0221606
0.0224764
0.0224882
0.022402
0.022308
0.0222363
0.0221893
0.0221838
0.0282715
0.0281313
0.0281271
0.0280114
0.0279213
0.0277002
0.0274052
0.0269065
0.0261903
0.0251317
0.0236887
0.0217837
0.0194314
0.0166666
0.0136047
0.0103688
0.00710405
0.00391924
0.000902158
-0.00190489
-0.00447788
-0.00681829
-0.00892904
-0.0108209
-0.0124976
-0.0139644
-0.0152194
-0.0162623
-0.0170891
-0.0176984
-0.0180881
-0.0182596
-0.0182149
-0.0179592
-0.0174988
-0.016842
-0.0159975
-0.0149739
-0.0137791
-0.0124172
-0.0108893
-0.00918692
-0.00729468
-0.00518096
-0.00280581
-0.000117626
0.00292189
0.00631329
0.0099666
0.013657
0.0170282
0.0196761
0.0213568
0.0221234
0.0222986
0.0222368
0.0221311
0.022034
0.0219735
0.0219559
0.0279817
0.0278307
0.027821
0.0276836
0.027561
0.0272797
0.0268908
0.0262448
0.025317
0.023972
0.0221749
0.0198687
0.0171069
0.0139664
0.0106002
0.00714924
0.00375755
0.000515124
-0.00251479
-0.00531491
-0.00787926
-0.010221
-0.0123472
-0.0142687
-0.0159855
-0.0174985
-0.0188007
-0.0198874
-0.0207506
-0.0213864
-0.0217903
-0.0219627
-0.0219053
-0.0216236
-0.021125
-0.0204191
-0.0195171
-0.0184306
-0.0171717
-0.0157496
-0.0141731
-0.0124425
-0.0105538
-0.00848582
-0.00620748
-0.00366413
-0.000795557
0.00245564
0.00609453
0.0100135
0.0139394
0.0174223
0.0200111
0.0214732
0.0220023
0.0220194
0.0219204
0.0217938
0.0217166
0.0216815
0.0275888
0.0274274
0.0274079
0.0272426
0.0270769
0.0267209
0.0262178
0.0253994
0.024233
0.0225796
0.0204209
0.01773
0.0146041
0.0111589
0.00757315
0.00399018
0.000539131
-0.0027164
-0.00573876
-0.0085318
-0.0111016
-0.0134667
-0.0156334
-0.0176089
-0.0193877
-0.020965
-0.0223286
-0.0234696
-0.0243766
-0.0250431
-0.0254633
-0.0256368
-0.0255649
-0.0252538
-0.024712
-0.0239506
-0.0229832
-0.0218232
-0.0204864
-0.0189854
-0.0173348
-0.0155412
-0.0136116
-0.0115359
-0.00929795
-0.00685299
-0.00414223
-0.00108356
0.00239105
0.00628573
0.0104635
0.0145546
0.0180331
0.0203738
0.0215052
0.0217242
0.0216578
0.021508
0.021408
0.0213497
0.0270936
0.0269235
0.02689
0.026692
0.0264739
0.0260315
0.0253973
0.0243882
0.0229664
0.020998
0.0184896
0.0154507
0.0120209
0.00834628
0.00461712
0.000965451
-0.00250297
-0.00575279
-0.00876851
-0.0115692
-0.0141666
-0.0165798
-0.0188107
-0.020861
-0.0227187
-0.0243735
-0.0258083
-0.0270106
-0.0279659
-0.0286657
-0.029103
-0.0292767
-0.0291883
-0.0288447
-0.0282557
-0.027434
-0.0263956
-0.0251557
-0.0237334
-0.0221432
-0.0204045
-0.0185274
-0.0165272
-0.0144029
-0.0121532
-0.00974812
-0.00714394
-0.00425884
-0.000998201
0.00271894
0.00688809
0.0112896
0.0154624
0.0187299
0.0206641
0.0213172
0.0213166
0.0211673
0.0210377
0.0209498
0.0264825
0.0263047
0.0262521
0.0260158
0.0257355
0.0251952
0.0244165
0.0232049
0.0215226
0.0192486
0.0164197
0.0130839
0.00941729
0.00558453
0.00177424
-0.00190233
-0.00536598
-0.00860707
-0.0116268
-0.0144532
-0.017099
-0.01958
-0.021892
-0.0240303
-0.0259769
-0.0277165
-0.0292276
-0.0304945
-0.0315001
-0.0322341
-0.0326883
-0.0328609
-0.032754
-0.0323748
-0.0317352
-0.0308492
-0.0297359
-0.0284121
-0.0269004
-0.0252166
-0.023384
-0.0214142
-0.0193284
-0.0171309
-0.014833
-0.012418
-0.00986239
-0.0070986
-0.00403383
-0.000550887
0.00344253
0.00788146
0.0124669
0.0165284
0.0193743
0.0206938
0.0208868
0.020741
0.0205995
0.0204657
0.0257671
0.0255841
0.0255086
0.0252306
0.0248815
0.0242371
0.0233072
0.0218913
0.0199559
0.0173993
0.0142911
0.0107153
0.00687569
0.00294369
-0.000903845
-0.00458106
-0.00803432
-0.0112748
-0.0143146
-0.0171856
-0.0198979
-0.022462
-0.0248672
-0.0271026
-0.0291447
-0.0309737
-0.0325645
-0.0338984
-0.0349559
-0.035725
-0.0361961
-0.0363668
-0.0362397
-0.0358224
-0.0351291
-0.0341752
-0.0329832
-0.0315719
-0.0299679
-0.0281881
-0.0262596
-0.0241943
-0.0220179
-0.0197362
-0.0173695
-0.0149109
-0.012356
-0.00965639
-0.00673777
-0.00347834
0.000265234
0.00454977
0.00926758
0.0138672
0.0176051
0.0197149
0.0203603
0.0201948
0.0200854
0.0198807
0.0249429
0.0247564
0.0246537
0.0243309
0.0239075
0.0231555
0.022073
0.0204591
0.0182882
0.0154817
0.0121416
0.00838256
0.00442605
0.000440574
-0.00341514
-0.00708115
-0.010526
-0.0137761
-0.0168497
-0.0197786
-0.0225683
-0.0252235
-0.027727
-0.0300626
-0.0322017
-0.0341212
-0.0357924
-0.0371939
-0.0383038
-0.039108
-0.0395958
-0.0397639
-0.0396153
-0.0391581
-0.0384087
-0.0373842
-0.0361108
-0.0346093
-0.0329109
-0.0310337
-0.0290093
-0.0268491
-0.0245827
-0.022215
-0.0197725
-0.0172527
-0.0146671
-0.0119848
-0.00915708
-0.00607679
-0.0025886
0.00144128
0.00606669
0.0109284
0.0153792
0.0183272
0.019644
0.0195339
0.0194583
0.0191856
0.0240342
0.0238478
0.0237159
0.0233484
0.0228495
0.0219922
0.0207634
0.0189668
0.0165865
0.0135696
0.0100465
0.00615591
0.00212761
-0.00187958
-0.00572778
-0.00938068
-0.0128244
-0.0160957
-0.0192149
-0.0222116
-0.0250858
-0.0278365
-0.0304405
-0.032877
-0.0351138
-0.0371239
-0.038876
-0.0403456
-0.0415085
-0.0423482
-0.042853
-0.0430184
-0.0428479
-0.0423499
-0.0415434
-0.0404467
-0.0390906
-0.0374971
-0.0357032
-0.0337279
-0.0316082
-0.0293548
-0.0270015
-0.0245508
-0.0220337
-0.0194476
-0.0168157
-0.0141197
-0.0113366
-0.00838284
-0.00511677
-0.00137091
0.00301906
0.00790219
0.0127941
0.0165503
0.0186027
0.0187803
0.0186695
0.018376
0.0230456
0.0228618
0.0226988
0.0222872
0.0217132
0.0207561
0.0193917
0.0174328
0.0148739
0.0116873
0.00802674
0.0040483
-1.75176e-05
-0.00402526
-0.00785785
-0.0114989
-0.0149478
-0.0182473
-0.0214178
-0.0244852
-0.027444
-0.030288
-0.0329893
-0.0355232
-0.037854
-0.0399518
-0.0417824
-0.0433182
-0.0445329
-0.0454073
-0.0459286
-0.0460909
-0.0458986
-0.0453599
-0.0444967
-0.043328
-0.0418895
-0.0402043
-0.0383158
-0.0362431
-0.0340301
-0.0316861
-0.0292506
-0.0267222
-0.0241363
-0.0214869
-0.0188052
-0.0160796
-0.0133094
-0.0104361
-0.00734426
-0.00386787
0.000221732
0.00494193
0.0100096
0.0144249
0.0171913
0.0179009
0.0177077
0.0174364
0.0220127
0.0218361
0.0216425
0.021191
0.0205466
0.0195003
0.0180167
0.0159214
0.0132181
0.00990273
0.00614615
0.0021156
-0.00196307
-0.00595898
-0.00977398
-0.0134072
-0.0168675
-0.0202006
-0.0234252
-0.0265631
-0.0296042
-0.0325376
-0.0353316
-0.0379582
-0.0403789
-0.0425608
-0.044467
-0.0460669
-0.0473318
-0.04824
-0.0487778
-0.0489373
-0.0487245
-0.0481464
-0.0472287
-0.0459902
-0.0444721
-0.0426979
-0.0407176
-0.0385505
-0.0362478
-0.0338171
-0.0313048
-0.028705
-0.0260582
-0.0233526
-0.0206256
-0.0178665
-0.0150923
-0.0122656
-0.0093021
-0.00605907
-0.00227954
0.00215721
0.00719062
0.0120203
0.0154549
0.016798
0.0166001
0.016338
0.020945
0.0207789
0.0205556
0.0200683
0.0193593
0.0182357
0.0166513
0.0144464
0.0116318
0.00822439
0.004406
0.000350426
-0.00372446
-0.00770134
-0.0114983
-0.015126
-0.0185995
-0.0219654
-0.0252407
-0.0284429
-0.0315583
-0.0345719
-0.0374492
-0.0401594
-0.0426617
-0.0449201
-0.0468955
-0.048554
-0.0498652
-0.0508042
-0.0513571
-0.0515136
-0.0512814
-0.0506662
-0.0496974
-0.0483932
-0.0468007
-0.0449425
-0.0428763
-0.04062
-0.0382336
-0.0357219
-0.0331396
-0.0304756
-0.0277771
-0.0250244
-0.0222611
-0.0194721
-0.016689
-0.0138881
-0.0110169
-0.00796493
-0.00447486
-0.000380533
0.00446712
0.00944816
0.0134656
0.0154046
0.0153853
0.0150675
0.0198852
0.0197345
0.019485
0.0189692
0.0182047
0.0170195
0.0153555
0.01307
0.0101774
0.00671213
0.00286149
-0.00119786
-0.00525765
-0.00921216
-0.0129925
-0.0166167
-0.0201042
-0.023501
-0.0268218
-0.0300809
-0.0332614
-0.0363453
-0.039296
-0.0420801
-0.0446549
-0.0469816
-0.0490193
-0.0507306
-0.0520838
-0.0530508
-0.0536179
-0.053772
-0.0535228
-0.0528741
-0.0518599
-0.0504962
-0.0488368
-0.0469023
-0.0447588
-0.0424215
-0.0399597
-0.0373749
-0.0347309
-0.032011
-0.0292704
-0.0264804
-0.0236918
-0.020881
-0.0180921
-0.0153075
-0.0125049
-0.00960486
-0.00637171
-0.00263112
0.00192837
0.00684225
0.0112951
0.0137342
0.0140723
0.0136347
0.0188412
0.0187091
0.0184366
0.0178988
0.0170877
0.0158558
0.0141329
0.0117934
0.00885201
0.00535735
0.00149709
-0.0025511
-0.00658889
-0.0105191
-0.0142828
-0.0179026
-0.0214001
-0.0248203
-0.0281764
-0.0314797
-0.0347114
-0.037851
-0.0408606
-0.0437044
-0.0463385
-0.0487212
-0.0508103
-0.0525651
-0.0539533
-0.0549432
-0.0555218
-0.0556729
-0.0554091
-0.0547309
-0.0536774
-0.0522619
-0.050545
-0.0485442
-0.0463342
-0.0439265
-0.0414003
-0.0387522
-0.0360568
-0.0332902
-0.0305178
-0.0277004
-0.0248981
-0.0220752
-0.0192888
-0.0165187
-0.0137721
-0.0109927
-0.00798257
-0.00457759
-0.000367922
0.00432326
0.0090144
0.0118451
0.0126248
0.0120526
0.0178572
0.0177485
0.0174588
0.0169082
0.0160619
0.0148004
0.0130405
0.010674
0.00771209
0.00421438
0.000364568
-0.00366013
-0.00767083
-0.011576
-0.0153235
-0.0189375
-0.0224411
-0.0258773
-0.0292585
-0.0325936
-0.035863
-0.039044
-0.0420982
-0.0449877
-0.0476678
-0.0500942
-0.052224
-0.0540132
-0.0554295
-0.0564377
-0.0570262
-0.0571748
-0.0568998
-0.0561976
-0.0551132
-0.0536553
-0.0518926
-0.0498374
-0.0475742
-0.0451088
-0.0425314
-0.0398318
-0.037097
-0.034294
-0.0315008
-0.0286659
-0.0258612
-0.0230362
-0.0202624
-0.0175101
-0.014815
-0.0121339
-0.00931695
-0.00621562
-0.00238361
0.00198542
0.00670707
0.00981284
0.0110124
0.0103457
0.0169328
0.0168498
0.0165476
0.0159916
0.0151202
0.0138439
0.0120663
0.00969622
0.00673774
0.00325823
-0.000566029
-0.00455858
-0.00853901
-0.0124181
-0.0161478
-0.0197518
-0.0232536
-0.0266944
-0.0300864
-0.0334369
-0.0367263
-0.0399306
-0.0430113
-0.0459284
-0.0486376
-0.0510916
-0.0532479
-0.0550591
-0.0564942
-0.0575136
-0.0581084
-0.0582537
-0.0579702
-0.0572492
-0.0561421
-0.0546518
-0.0528556
-0.0507592
-0.0484573
-0.0459482
-0.0433343
-0.0405964
-0.0378352
-0.0350071
-0.0322043
-0.0293613
-0.026565
-0.0237472
-0.0209965
-0.0182672
-0.0156247
-0.0130273
-0.0103791
-0.00754581
-0.00409342
-0.000103054
0.0044684
0.00772306
0.00925833
0.00856224
0.0161102
0.0160567
0.0157494
0.0151978
0.0143135
0.0130386
0.0112634
0.00891309
0.00598164
0.00254116
-0.00124247
-0.00519417
-0.00914083
-0.0129928
-0.0167038
-0.0202944
-0.0237881
-0.0272239
-0.0306144
-0.033966
-0.0372598
-0.0404708
-0.0435613
-0.0464896
-0.0492121
-0.0516789
-0.0538489
-0.055671
-0.0571166
-0.0581414
-0.0587404
-0.0588829
-0.0585952
-0.0578618
-0.0567419
-0.0552305
-0.0534147
-0.0512914
-0.0489668
-0.0464292
-0.0437947
-0.0410326
-0.0382592
-0.0354173
-0.0326164
-0.0297743
-0.0269962
-0.0241931
-0.021475
-0.0187742
-0.016188
-0.0136651
-0.0111674
-0.00856771
-0.00547948
-0.00189186
0.00239489
0.00566971
0.00743927
0.00677148
0.0153753
0.0153514
0.0150445
0.0145044
0.0136172
0.0123568
0.0106009
0.00829015
0.00540568
0.00202169
-0.00170901
-0.00561268
-0.00952255
-0.0133456
-0.0170351
-0.0206068
-0.0240835
-0.0275018
-0.0308756
-0.0342106
-0.0374902
-0.0406884
-0.0437694
-0.0466895
-0.0494071
-0.0518692
-0.0540376
-0.055857
-0.0573027
-0.0583251
-0.0589243
-0.0590627
-0.0587737
-0.0580333
-0.0569094
-0.0553876
-0.0535654
-0.0514291
-0.0490974
-0.0465464
-0.043907
-0.0411347
-0.038363
-0.0355184
-0.0327305
-0.0298969
-0.0271455
-0.0243629
-0.0216849
-0.0190169
-0.0164913
-0.0140368
-0.0116757
-0.00927851
-0.00652931
-0.00334417
0.000570334
0.0037463
0.00565217
0.00504657
0.0147677
0.0147755
0.014477
0.0139582
0.0130804
0.0118489
0.0101299
0.00787882
0.00506198
0.00175303
-0.00191045
-0.00575709
-0.00962553
-0.0134176
-0.017084
-0.0206337
-0.0240877
-0.0274799
-0.0308259
-0.034131
-0.0373815
-0.040551
-0.0436065
-0.0465021
-0.0491994
-0.0516423
-0.0537965
-0.0556021
-0.0570401
-0.0580542
-0.0586516
-0.0587865
-0.0585005
-0.0577597
-0.0566419
-0.0551211
-0.0533067
-0.0511715
-0.0488487
-0.0462992
-0.0436708
-0.0409017
-0.0381455
-0.0353085
-0.0325437
-0.0297249
-0.0270072
-0.0242483
-0.0216161
-0.0189825
-0.0165211
-0.0141297
-0.0118951
-0.00967235
-0.00723313
-0.00443271
-0.000939905
0.00203719
0.0039869
0.00345297
0.0142554
0.0142924
0.0140074
0.0135159
0.0126571
0.0114655
0.00979791
0.00762337
0.00489236
0.00167552
-0.00190722
-0.00568745
-0.00950914
-0.0132669
-0.016907
-0.0204297
-0.0238539
-0.0272096
-0.0305147
-0.0337745
-0.0369794
-0.0401023
-0.0431145
-0.0459678
-0.0486283
-0.0510358
-0.0531621
-0.0549415
-0.0563623
-0.0573608
-0.0579529
-0.0580829
-0.0578025
-0.0570657
-0.0559622
-0.0544514
-0.0526569
-0.050535
-0.0482353
-0.0457002
-0.043097
-0.0403428
-0.0376141
-0.0347931
-0.0320599
-0.0292598
-0.0265807
-0.0238459
-0.0212624
-0.0186621
-0.0162665
-0.0139324
-0.0118159
-0.0097422
-0.00758352
-0.00513837
-0.00208903
0.00061253
0.00251648
0.0020454
0.013879
0.013945
0.0136814
0.0132264
0.0123989
0.01126
0.00965926
0.00757853
0.00495257
0.00184649
-0.00163901
-0.00534062
-0.0091077
-0.0128272
-0.0164392
-0.0199337
-0.0233255
-0.0266403
-0.029898
-0.0331033
-0.0362519
-0.039316
-0.0422726
-0.0450707
-0.0476824
-0.050043
-0.0521316
-0.053876
-0.0552739
-0.0562523
-0.0568382
-0.0569639
-0.0566935
-0.0559664
-0.0548861
-0.0533951
-0.0516327
-0.0495359
-0.047273
-0.0447644
-0.0421995
-0.0394704
-0.03678
-0.0339811
-0.0312864
-0.0285067
-0.0258687
-0.0231558
-0.0206212
-0.0180498
-0.0157196
-0.013435
-0.011429
-0.00948054
-0.00757437
-0.00544769
-0.00284433
-0.000470783
0.00130022
0.000871912
0.0135854
0.0136751
0.0134364
0.013022
0.0122348
0.0111577
0.00963623
0.00766431
0.00516124
0.00218486
-0.00118579
-0.00479414
-0.00849647
-0.0121711
-0.0157513
-0.0192143
-0.0225702
-0.0258382
-0.0290409
-0.0321816
-0.0352626
-0.0382548
-0.0411428
-0.0438719
-0.0464227
-0.0487241
-0.0507651
-0.0524653
-0.0538336
-0.0547865
-0.0553638
-0.055484
-0.0552258
-0.0545114
-0.0534607
-0.0519958
-0.0502748
-0.0482114
-0.0459959
-0.0435223
-0.041006
-0.0383085
-0.0356641
-0.0328905
-0.030238
-0.0274769
-0.0248799
-0.0221829
-0.0196948
-0.0171443
-0.0148765
-0.0126311
-0.0107281
-0.00888166
-0.00720188
-0.00535217
-0.00318342
-0.00116638
0.000389974
-2.08193e-05
0.0134233
0.0135351
0.0133275
0.0129617
0.0122271
0.0112232
0.00979453
0.00794599
0.00558375
0.00275649
-0.000479245
-0.003977
-0.00760133
-0.0112234
-0.0147688
-0.0182008
-0.0215227
-0.0247458
-0.0278941
-0.0309686
-0.0339787
-0.0368937
-0.0397072
-0.0423604
-0.044844
-0.0470796
-0.0490683
-0.0507194
-0.052056
-0.0529812
-0.0535509
-0.0536669
-0.0534252
-0.0527278
-0.051714
-0.0502818
-0.0486117
-0.0465895
-0.0444315
-0.0419999
-0.039541
-0.0368797
-0.0342873
-0.0315391
-0.0289306
-0.0261833
-0.023625
-0.0209349
-0.0184885
-0.0159477
-0.0137373
-0.0115183
-0.0097104
-0.00794231
-0.00646471
-0.00484723
-0.00309091
-0.00143508
-0.000163962
-0.000582336
0.0133148
0.0134409
0.0132651
0.0129493
0.0122748
0.011352
0.0100269
0.00831502
0.00611115
0.00345427
0.000376304
-0.0029887
-0.00651721
-0.0100739
-0.0135778
-0.0169756
-0.0202637
-0.0234418
-0.0265358
-0.0295419
-0.0324781
-0.0353104
-0.0380439
-0.0406141
-0.0430246
-0.0451878
-0.0471195
-0.0487163
-0.0500186
-0.0509131
-0.051475
-0.0515858
-0.051363
-0.0506839
-0.0497113
-0.0483148
-0.0467012
-0.0447236
-0.0426292
-0.0402422
-0.0378456
-0.0352202
-0.0326818
-0.0299546
-0.0273883
-0.0246457
-0.0221208
-0.0194249
-0.0170131
-0.0144676
-0.0123079
-0.0100993
-0.00837843
-0.00666406
-0.00536623
-0.00393338
-0.00255808
-0.00124392
-0.000309962
-0.00075577
0.0133283
0.0134671
0.0133265
0.0130669
0.0124634
0.0116319
0.0104219
0.00885804
0.00682774
0.00435973
0.00146205
-0.00174753
-0.00515988
-0.008637
-0.0120921
-0.0154554
-0.0187145
-0.0218553
-0.024904
-0.0278495
-0.0307187
-0.0334725
-0.0361296
-0.0386179
-0.0409568
-0.0430473
-0.0449233
-0.0464659
-0.047736
-0.0486007
-0.0491581
-0.0492658
-0.0490663
-0.0484084
-0.0474829
-0.0461254
-0.0445748
-0.0426449
-0.0406198
-0.0382785
-0.0359478
-0.033356
-0.0308717
-0.0281586
-0.0256308
-0.0228813
-0.0203827
-0.017666
-0.0152807
-0.0127137
-0.0105975
-0.00838145
-0.00673999
-0.00505346
-0.00391529
-0.00261689
-0.00158359
-0.00056709
4.63425e-06
-0.000478136
0.0133533
0.013496
0.0133876
0.0131818
0.0126543
0.0119207
0.0108353
0.00943126
0.00759074
0.00533381
0.00264319
-0.000380988
-0.00364964
-0.00702409
-0.0104161
-0.0137376
-0.016968
-0.0200752
-0.0230861
-0.0259774
-0.0287871
-0.0314668
-0.034052
-0.0364598
-0.0387296
-0.0407473
-0.0425694
-0.0440573
-0.0452971
-0.0461316
-0.0466868
-0.046791
-0.0466177
-0.0459807
-0.0451051
-0.0437859
-0.0423008
-0.0404166
-0.0384622
-0.0361622
-0.0338964
-0.0313305
-0.0288961
-0.0261851
-0.0236882
-0.020916
-0.0184344
-0.0156784
-0.0133106
-0.0107029
-0.00862335
-0.00637962
-0.00481134
-0.00312506
-0.00212948
-0.000912465
-0.000176869
0.000610279
0.000828479
0.000314583
0.0134961
0.0136427
0.0135669
0.0134182
0.0129742
0.0123468
0.0113948
0.0101581
0.00851747
0.00648544
0.00402255
0.00120866
-0.00188967
-0.00513867
-0.00845196
-0.0117252
-0.0149298
-0.018013
-0.0210006
-0.0238541
-0.0266216
-0.0292424
-0.0317705
-0.034109
-0.0363208
-0.0382734
-0.0400502
-0.0414886
-0.0427052
-0.0435133
-0.0440726
-0.044176
-0.0440343
-0.0434196
-0.0425987
-0.0413179
-0.0399019
-0.0380612
-0.0361791
-0.0339153
-0.0317131
-0.0291635
-0.0267744
-0.0240517
-0.0215781
-0.018766
-0.0162925
-0.0134783
-0.0111201
-0.00845217
-0.00640455
-0.0041122
-0.00261429
-0.000899426
-3.46201e-05
0.00115647
0.0016393
0.00228753
0.00219722
0.00167773
0.0135985
0.0137394
0.0136903
0.0135922
0.0132328
0.0127166
0.0119069
0.0108486
0.00942192
0.00763566
0.00542732
0.00285844
-3.37111e-05
-0.00312181
-0.00632986
-0.00953622
-0.012709
-0.0157691
-0.0187437
-0.0215712
-0.024313
-0.0268886
-0.0293756
-0.031656
-0.0338226
-0.0357176
-0.0374588
-0.0388525
-0.0400533
-0.0408372
-0.0414061
-0.0415088
-0.0414024
-0.040808
-0.0400436
-0.0387966
-0.0374495
-0.0356448
-0.0338322
-0.0315933
-0.0294489
-0.0269006
-0.0245479
-0.0217951
-0.0193345
-0.0164619
-0.0139868
-0.0110934
-0.00873839
-0.00598946
-0.00397198
-0.0016088
-0.000182803
0.00159153
0.0023306
0.00355446
0.0038247
0.00444338
0.00412129
0.00364454
0.0138307
0.0139689
0.013945
0.0138976
0.013625
0.0132242
0.0125615
0.0116844
0.0104745
0.00893879
0.00699691
0.0046927
0.00203349
-0.000864792
-0.00394211
-0.00706378
-0.010198
-0.0132381
-0.016213
-0.0190329
-0.0217728
-0.0243268
-0.0267976
-0.0290412
-0.0311843
-0.0330382
-0.0347607
-0.0361212
-0.0373192
-0.0380863
-0.0386744
-0.03878
-0.0387158
-0.0381418
-0.037438
-0.0362215
-0.0349446
-0.033169
-0.0314242
-0.0291994
-0.0271081
-0.0245465
-0.0222233
-0.0194228
-0.0169675
-0.0140154
-0.0115327
-0.0085409
-0.00618733
-0.00333824
-0.00135475
0.00110127
0.00244692
0.00431299
0.0049211
0.00623873
0.00632307
0.00703455
0.00657501
0.00621306
0.0139584
0.0140834
0.0140772
0.0140712
0.0138831
0.0136013
0.0130942
0.0124107
0.0114305
0.0101641
0.00851082
0.00650458
0.00411551
0.00145129
-0.00145677
-0.00445873
-0.00753446
-0.0105426
-0.0135213
-0.0163417
-0.0190988
-0.0216487
-0.0241279
-0.0263531
-0.0284956
-0.0303233
-0.0320462
-0.0333834
-0.0345929
-0.0353481
-0.0359653
-0.0360741
-0.0360579
-0.0355001
-0.0348591
-0.0336646
-0.0324564
-0.0306971
-0.0290153
-0.0267879
-0.0247421
-0.0221476
-0.019845
-0.0169756
-0.0145177
-0.0114652
-0.00897104
-0.00586118
-0.00351122
-0.000542482
0.00139774
0.00397022
0.00522016
0.00721426
0.00767555
0.00915365
0.00906045
0.00999684
0.00949137
0.0093391
0.0142558
0.0143746
0.0143849
0.0144186
0.0143108
0.0141456
0.0137918
0.0132977
0.0125407
0.0115359
0.0101675
0.00846374
0.00635964
0.00395434
0.00124415
-0.00160938
-0.00460636
-0.00757038
-0.0105546
-0.0133845
-0.0161792
-0.0187475
-0.021264
-0.0234969
-0.0256681
-0.0274927
-0.029241
-0.0305721
-0.0318126
-0.0325669
-0.0332272
-0.0333441
-0.0333849
-0.0328429
-0.0322693
-0.0310913
-0.0299527
-0.0281999
-0.026579
-0.0243358
-0.0223316
-0.0196887
-0.0174029
-0.0144485
-0.011987
-0.00881848
-0.00631659
-0.00307366
-0.000737562
0.00236792
0.0042479