/*--------------------------------*- C++ -*----------------------------------*\
| =========                 |                                                 |
| \\      /  F ield         | OpenFOAM: The Open Source CFD Toolbox           |
|  \\    /   O peration     | Version:  2406                                  |
|   \\  /    A nd           | Website:  www.openfoam.com                      |
|    \\/     M anipulation  |                                                 |
\*---------------------------------------------------------------------------*/
FoamFile
{
    version     2.0;
    format      ascii;
    arch        "LSB;label=32;scalar=64";
    class       surfaceScalarField;
    location    "5";
    object      phi_0;
}
// * * * * * * * * * * * * * * * * * * * * * * * * * * * * * * * * * * * * * //

dimensions      [0 3 -1 0 0 0 0];

oriented        oriented;

internalField   nonuniform List<scalar> 
1740
(
-1.19598e-06
1.196e-06
-3.42442e-06
2.22844e-06
-6.12959e-06
2.70516e-06
-8.97653e-06
2.84695e-06
-1.18695e-05
2.89301e-06
-1.47788e-05
2.90921e-06
-1.7696e-05
2.91723e-06
-2.0612e-05
2.91603e-06
-2.3512e-05
2.90002e-06
-2.63732e-05
2.8612e-06
-2.91633e-05
2.79004e-06
-3.18386e-05
2.67529e-06
-3.43431e-05
2.50455e-06
-3.66076e-05
2.26449e-06
-3.85493e-05
1.94172e-06
-4.00736e-05
1.52425e-06
-4.10771e-05
1.00352e-06
-4.1453e-05
3.75929e-07
-4.11038e-05
-3.49211e-07
-3.99495e-05
-1.15429e-06
-3.7936e-05
-2.01352e-06
-3.50515e-05
-2.8845e-06
-3.13363e-05
-3.71521e-06
-2.68832e-05
-4.45309e-06
-2.18388e-05
-5.04441e-06
-1.64083e-05
-5.43047e-06
-1.08842e-05
-5.52414e-06
-5.7211e-06
-5.16309e-06
-1.75117e-06
-3.96993e-06
-1.75117e-06
-2.41023e-06
3.60622e-06
-6.91774e-06
6.73596e-06
-1.21899e-05
7.97737e-06
-1.77051e-05
8.36209e-06
-2.32754e-05
8.46337e-06
-2.8843e-05
8.47677e-06
-3.43801e-05
8.45432e-06
-3.98598e-05
8.39571e-06
-4.52459e-05
8.28613e-06
-5.04892e-05
8.10452e-06
-5.55249e-05
7.82572e-06
-6.02704e-05
7.42078e-06
-6.46236e-05
6.85779e-06
-6.84624e-05
6.10328e-06
-7.16456e-05
5.12491e-06
-7.40166e-05
3.89526e-06
-7.54102e-05
2.39708e-06
-7.56642e-05
6.29962e-07
-7.46298e-05
-1.38365e-06
-7.21924e-05
-3.59168e-06
-6.82911e-05
-5.91475e-06
-6.29317e-05
-8.24391e-06
-5.61959e-05
-1.04511e-05
-4.82468e-05
-1.24022e-05
-3.93269e-05
-1.39643e-05
-2.97638e-05
-1.49936e-05
-2.00113e-05
-1.52766e-05
-1.07953e-05
-1.43791e-05
-3.37016e-06
-1.1395e-05
-5.12133e-06
-3.07147e-06
6.67769e-06
-8.60043e-06
1.22649e-05
-1.49887e-05
1.43656e-05
-2.16465e-05
1.50199e-05
-2.83606e-05
1.51775e-05
-3.50552e-05
1.51713e-05
-4.16904e-05
1.50895e-05
-4.82289e-05
1.49342e-05
-5.46243e-05
1.46816e-05
-6.08166e-05
1.42968e-05
-6.67286e-05
1.37377e-05
-7.22638e-05
1.2956e-05
-7.73041e-05
1.18982e-05
-8.17095e-05
1.05086e-05
-8.53186e-05
8.734e-06
-8.7953e-05
6.52966e-06
-8.94247e-05
3.86884e-06
-8.95471e-05
7.5235e-07
-8.81544e-05
-2.77638e-06
-8.51147e-05
-6.63139e-06
-8.036e-05
-1.06694e-05
-7.39025e-05
-1.47014e-05
-6.5849e-05
-1.85046e-05
-5.64063e-05
-2.18448e-05
-4.58783e-05
-2.44924e-05
-3.46666e-05
-2.62052e-05
-2.3312e-05
-2.66313e-05
-1.26306e-05
-2.50604e-05
-4.00808e-06
-2.00176e-05
-9.12941e-06
-3.32959e-06
1.00073e-05
-9.28543e-06
1.82208e-05
-1.61432e-05
2.12233e-05
-2.3274e-05
2.21508e-05
-3.04585e-05
2.2362e-05
-3.76197e-05
2.23326e-05
-4.47173e-05
2.21871e-05
-5.17135e-05
2.19304e-05
-5.85618e-05
2.15299e-05
-6.52023e-05
2.09373e-05
-7.15578e-05
2.00932e-05
-7.75305e-05
1.89287e-05
-8.29995e-05
1.73671e-05
-8.78184e-05
1.53276e-05
-9.18153e-05
1.27309e-05
-9.47948e-05
9.50919e-06
-9.65445e-05
5.61855e-06
-9.68469e-05
1.05477e-06
-9.54947e-05
-4.12864e-06
-9.23195e-05
-9.8066e-06
-8.72175e-05
-1.57714e-05
-8.01823e-05
-2.17367e-05
-7.13289e-05
-2.73579e-05
-6.09067e-05
-3.2267e-05
-4.92949e-05
-3.61042e-05
-3.69937e-05
-3.85063e-05
-2.46492e-05
-3.89759e-05
-1.318e-05
-3.65296e-05
-4.0859e-06
-2.91117e-05
-1.32153e-05
-3.41923e-06
1.34265e-05
-9.53153e-06
2.43331e-05
-1.65772e-05
2.8269e-05
-2.39042e-05
2.94778e-05
-3.12926e-05
2.97503e-05
-3.86701e-05
2.971e-05
-4.60019e-05
2.9519e-05
-5.32566e-05
2.91851e-05
-6.03947e-05
2.86679e-05
-6.73634e-05
2.7906e-05
-7.40929e-05
2.68227e-05
-8.04915e-05
2.53273e-05
-8.64413e-05
2.33169e-05
-9.17938e-05
2.06801e-05
-9.63669e-05
1.73039e-05
-9.99435e-05
1.30858e-05
-0.000102275
7.95015e-06
-0.000103091
1.87108e-06
-0.000102119
-5.10114e-06
-9.91123e-05
-1.28131e-05
-9.38961e-05
-2.09877e-05
-8.64134e-05
-2.92193e-05
-7.6774e-05
-3.69974e-05
-6.52829e-05
-4.3758e-05
-5.24401e-05
-4.8947e-05
-3.89121e-05
-5.20343e-05
-2.55202e-05
-5.23677e-05
-1.33349e-05
-4.8715e-05
-3.96523e-06
-3.84814e-05
-1.71805e-05
-3.43693e-06
1.68634e-05
-9.60291e-06
3.04991e-05
-1.67285e-05
3.53946e-05
-2.41509e-05
3.69002e-05
-3.16519e-05
3.72514e-05
-3.91664e-05
3.72244e-05
-4.66688e-05
3.70214e-05
-5.41383e-05
3.66546e-05
-6.15472e-05
3.60769e-05
-6.88558e-05
3.52146e-05
-7.60072e-05
3.39741e-05
-8.29217e-05
3.22418e-05
-8.949e-05
2.98852e-05
-9.55652e-05
2.67553e-05
-0.000100956
2.26945e-05
-0.000105419
1.7549e-05
-0.000108659
1.11897e-05
-0.00011033
3.54248e-06
-0.000110059
-5.3722e-06
-0.000107478
-1.53936e-05
-0.000102288
-2.61782e-05
-9.43332e-05
-3.71741e-05
-8.36936e-05
-4.7637e-05
-7.07502e-05
-5.67014e-05
-5.61987e-05
-6.34986e-05
-4.09889e-05
-6.72442e-05
-2.62357e-05
-6.71209e-05
-1.32281e-05
-6.17226e-05
-3.66635e-06
-4.80431e-05
-2.08469e-05
-3.42494e-06
2.02884e-05
-9.60586e-06
3.668e-05
-1.67727e-05
4.25615e-05
-2.42565e-05
4.43839e-05
-3.18422e-05
4.48371e-05
-3.94731e-05
4.48554e-05
-4.71353e-05
4.46836e-05
-5.48219e-05
4.43411e-05
-6.25212e-05
4.37762e-05
-7.02117e-05
4.29051e-05
-7.78559e-05
4.16183e-05
-8.53931e-05
3.9779e-05
-9.273e-05
3.72221e-05
-9.97292e-05
3.37545e-05
-0.000106195
2.91608e-05
-0.000111862
2.32154e-05
-0.000116378
1.57056e-05
-0.000119305
6.46957e-06
-0.000120129
-4.54783e-06
-0.000118302
-1.72208e-05
-0.000113318
-3.11624e-05
-0.00010484
-4.56517e-05
-9.28613e-05
-5.96157e-05
-7.78526e-05
-7.17101e-05
-6.08237e-05
-8.05275e-05
-4.32135e-05
-8.48543e-05
-2.6637e-05
-8.36974e-05
-1.26938e-05
-7.56658e-05
-3.11365e-06
-5.76232e-05
-2.39605e-05
-3.39609e-06
2.36845e-05
-9.57344e-06
4.28573e-05
-1.67641e-05
4.97521e-05
-2.42939e-05
5.19137e-05
-3.19516e-05
5.24949e-05
-3.96898e-05
5.25936e-05
-4.7508e-05
5.25018e-05
-5.5416e-05
5.22491e-05
-6.34224e-05
5.17826e-05
-7.15293e-05
5.1012e-05
-7.97258e-05
4.98148e-05
-8.79797e-05
4.8033e-05
-9.62256e-05
4.5468e-05
-0.000104349
4.18775e-05
-0.000112164
3.69761e-05
-0.000119392
3.0443e-05
-0.00012563
2.19441e-05
-0.000130335
1.11743e-05
-0.000132811
-2.07126e-06
-0.00013225
-1.77823e-05
-0.000127816
-3.55959e-05
-0.000118839
-5.46287e-05
-0.000105092
-7.33636e-05
-8.71121e-05
-8.96896e-05
-6.64084e-05
-0.000101231
-4.52898e-05
-0.000105973
-2.62582e-05
-0.000102729
-1.13534e-05
-9.05705e-05
-2.15465e-06
-6.6822e-05
-2.61152e-05
-3.35232e-06
2.70368e-05
-9.50988e-06
4.90149e-05
-1.67088e-05
5.69511e-05
-2.42695e-05
5.94743e-05
-3.19834e-05
6.02089e-05
-3.98132e-05
6.04233e-05
-4.77729e-05
6.04615e-05
-5.58915e-05
6.03677e-05
-6.42019e-05
6.0093e-05
-7.27355e-05
5.95456e-05
-8.15167e-05
5.8596e-05
-9.05536e-05
5.70699e-05
-9.98246e-05
5.4739e-05
-0.000109258
5.13111e-05
-0.000118705
4.64225e-05
-0.000127897
3.96357e-05
-0.000136406
3.04524e-05
-0.000143583
1.83515e-05
-0.000148524
2.8701e-06
-0.000150062
-1.62443e-05
-0.000146854
-3.88039e-05
-0.000137625
-6.3858e-05
-0.000121639
-8.93499e-05
-9.93796e-05
-0.000111949
-7.31191e-05
-0.000127492
-4.67112e-05
-0.000132381
-2.42975e-05
-0.000125143
-8.58952e-06
-0.000106279
-6.08445e-07
-7.48031e-05
-2.67236e-05
-3.29187e-06
3.03287e-05
-9.41051e-06
5.51335e-05
-1.65985e-05
6.41391e-05
-2.41685e-05
6.70443e-05
-3.19137e-05
6.7954e-05
-3.98061e-05
6.83157e-05
-4.78752e-05
6.85307e-05
-5.61709e-05
6.86634e-05
-6.47535e-05
6.86755e-05
-7.36896e-05
6.84817e-05
-8.30475e-05
6.79539e-05
-9.28894e-05
6.69117e-05
-0.000103257
6.51071e-05
-0.000114152
6.22058e-05
-0.000125497
5.77672e-05
-0.000137086
5.12249e-05
-0.000148512
4.18779e-05
-0.000159066
2.89064e-05
-0.000167637
1.14409e-05
-0.000172614
-1.12671e-05
-0.000171911
-3.95068e-05
-0.000163227
-7.25421e-05
-0.000144826
-0.000107752
-0.000116872
-0.000139902
-8.25516e-05
-0.000161812
-4.79185e-05
-0.000167014
-2.01275e-05
-0.000152934
-3.70022e-06
-0.000122706
1.72542e-06
-8.02287e-05
-2.49982e-05
-3.21299e-06
3.35416e-05
-9.27025e-06
6.11908e-05
-1.64232e-05
7.1292e-05
-2.39736e-05
7.45947e-05
-3.17141e-05
7.56946e-05
-3.96251e-05
7.62266e-05
-4.7751e-05
7.66565e-05
-5.61631e-05
7.70756e-05
-6.49513e-05
7.74637e-05
-7.42216e-05
7.7752e-05
-8.40943e-05
7.78266e-05
-9.46992e-05
7.75166e-05
-0.000106165
7.65725e-05
-0.000118597
7.46387e-05
-0.000132047
7.12163e-05
-0.000146441
6.56196e-05
-0.000161491
5.69281e-05
-0.000176537
4.39522e-05
-0.000190341
2.52443e-05
-0.000200839
-7.68329e-07
-0.000205005
-3.53408e-05
-0.000199166
-7.83813e-05
-0.000180362
-0.000126556
-0.00014811
-0.000172154
-0.000105049
-0.000204874
-5.76645e-05
-0.000214398
-1.79092e-05
-0.000192689
2.36121e-06
-0.000142976
4.49729e-06
-8.23648e-05
-2.05009e-05
-3.11544e-06
3.66571e-05
-9.08734e-06
6.71627e-05
-1.61775e-05
7.83822e-05
-2.36731e-05
8.20903e-05
-3.13628e-05
8.33843e-05
-3.9233e-05
8.40968e-05
-4.73414e-05
8.47649e-05
-5.57799e-05
8.55141e-05
-6.46677e-05
8.63515e-05
-7.4152e-05
8.72363e-05
-8.44102e-05
8.80848e-05
-9.565e-05
8.87564e-05
-0.000108106
8.90288e-05
-0.000122029
8.85614e-05
-0.000137654
8.68418e-05
-0.000155146
8.3111e-05
-0.000174482
7.62638e-05
-0.000195256
6.47268e-05
-0.000216343
4.63315e-05
-0.000235455
1.83434e-05
-0.000248987
-2.18091e-05
-0.000253067
-7.43016e-05
-0.000245176
-0.000134446
-0.000222054
-0.000195276
-0.000176924
-0.000250004
-0.000109318
-0.000282004
-3.91963e-05
-0.000262811
1.18855e-06
-0.000183361
5.38152e-06
-8.65578e-05
-1.51194e-05
-3.00151e-06
3.96586e-05
-8.86576e-06
7.30269e-05
-1.58648e-05
8.53812e-05
-2.32662e-05
8.94916e-05
-3.08505e-05
9.09687e-05
-3.86068e-05
9.18531e-05
-4.66029e-05
9.2761e-05
-5.49483e-05
9.38595e-05
-6.37886e-05
9.51918e-05
-7.33099e-05
9.67576e-05
-8.3746e-05
9.85208e-05
-9.53863e-05
0.000100397
-0.000108584
0.000102227
-0.000123762
0.000103739
-0.000141401
0.000104482
-0.000162013
0.000103723
-0.000186042
0.000100292
-0.000213665
9.23504e-05
-0.000244372
7.70382e-05
-0.000276567
5.05387e-05
-0.000308716
1.034e-05
-0.000342076
-4.0942e-05
-0.000375617
-0.000100905
-0.000388638
-0.000182255
-0.00034983
-0.000288812
-0.000253737
-0.000378097
-0.000129367
-0.00038718
-3.2339e-05
-0.000280389
-8.63394e-07
-0.000118033
-1.59828e-05
-2.8768e-06
4.25354e-05
-8.61727e-06
7.87674e-05
-1.55004e-05
9.22644e-05
-2.27676e-05
9.67588e-05
-3.01867e-05
9.83878e-05
-3.77452e-05
9.94115e-05
-4.55166e-05
0.000100532
-5.36227e-05
0.000101966
-6.22295e-05
0.000103799
-7.15545e-05
0.000106083
-8.18794e-05
0.000108846
-9.35674e-05
0.000112085
-0.000107086
0.000115746
-0.000123037
0.000119689
-0.000142183
0.000123628
-0.000165474
0.000127014
-0.000194025
0.000128843
-0.000229035
0.00012736
-0.00027151
0.000119513
-0.00032313
0.000102159
-0.000391124
7.83338e-05
-0.000485366
5.33003e-05
-0.000586607
3.36565e-07
-0.000632474
-0.000136388
-0.00059778
-0.000323507
-0.000492768
-0.000483109
-0.000326228
-0.000553719
-0.00013996
-0.000466658
-2.25075e-05
-0.000235486
-3.84903e-05
-2.75183e-06
4.52872e-05
-8.36429e-06
8.43799e-05
-1.51147e-05
9.90148e-05
-2.22112e-05
0.000103855
-2.94043e-05
0.000105581
-3.66749e-05
0.000106682
-4.40969e-05
0.000107954
-5.17974e-05
0.000109666
-5.99534e-05
0.000111955
-6.88008e-05
0.00011493
-7.86519e-05
0.000118697
-8.99206e-05
0.000123353
-0.000103161
0.000128986
-0.000119122
0.00013565
-0.000138828
0.000143334
-0.000163683
0.000151869
-0.000195577
0.000160737
-0.000237124
0.000168907
-0.000292515
0.000174904
-0.000371389
0.000181033
-0.000491791
0.000198736
-0.000646773
0.000208282
-0.000765178
0.000118741
-0.000799859
-0.000101707
-0.000783534
-0.000339832
-0.000714972
-0.000551671
-0.000569378
-0.000699313
-0.000327414
-0.000708622
-7.11905e-05
-0.000491709
-0.000109681
-2.6418e-06
4.7929e-05
-8.14147e-06
8.98795e-05
-1.47581e-05
0.000105631
-2.16574e-05
0.000110755
-2.85671e-05
0.000112491
-3.54584e-05
0.000113573
-4.24003e-05
0.000114896
-4.95177e-05
0.000116784
-5.69869e-05
0.000119424
-6.5045e-05
0.000122988
-7.40089e-05
0.000127661
-8.43053e-05
0.00013365
-9.65198e-05
0.000141201
-0.000111472
0.000150602
-0.000130337
0.000162199
-0.000154846
0.000176378
-0.000187598
0.00019349
-0.000232838
0.000214146
-0.000299198
0.000241264
-0.000402515
0.00028435
-0.000548709
0.00034493
-0.000691994
0.000351566
-0.000764065
0.000190812
-0.000778106
-8.76658e-05
-0.000775009
-0.000342929
-0.000738063
-0.000588617
-0.000672318
-0.000765058
-0.000495193
-0.000885747
-0.000175264
-0.000811638
-0.000284945
-2.57213e-06
5.05012e-05
-8.00213e-06
9.53095e-05
-1.45027e-05
0.000112132
-2.11897e-05
0.000117442
-2.7768e-05
0.000119069
-3.41946e-05
0.00012
-4.05292e-05
0.000121231
-4.68872e-05
0.000123142
-5.34327e-05
0.000125969
-6.03851e-05
0.000129941
-6.80353e-05
0.000135311
-7.67753e-05
0.00014239
-8.71456e-05
0.000151571
-9.99166e-05
0.000163373
-0.000116219
0.000178501
-0.000137799
0.000197958
-0.000167535
0.000223226
-0.000210448
0.000257058
-0.000276058
0.000306875
-0.000374805
0.000383097
-0.000492052
0.000462177
-0.000579567
0.000439082
-0.000613654
0.000224899
-0.000623341
-7.79782e-05
-0.000605613
-0.000360657
-0.000573036
-0.000621194
-0.000561754
-0.00077634
-0.000504125
-0.000943376
-0.000278494
-0.00103727
-0.000563439
-2.57249e-06
5.30736e-05
-8.01647e-06
0.000100754
-1.44559e-05
0.000118571
-2.0941e-05
0.000123927
-2.71494e-05
0.000125277
-3.30308e-05
0.000125881
-3.86368e-05
0.000126837
-4.40698e-05
0.000128575
-4.94722e-05
0.000131372
-5.50279e-05
0.000135496
-6.09734e-05
0.000141256
-6.76175e-05
0.000149034
-7.53763e-05
0.00015933
-8.48344e-05
0.000172831
-9.68479e-05
0.000190515
-0.000112729
0.000213839
-0.00013471
0.000245207
-0.000166595
0.000288943
-0.000213612
0.000353891
-0.000277946
0.000447432
-0.000344873
0.000529103
-0.00039261
0.000486819
-0.000424522
0.000256811
-0.000444442
-5.80582e-05
-0.000438526
-0.000366573
-0.000412027
-0.000647693
-0.000392659
-0.000795708
-0.000387304
-0.000948731
-0.000292855
-0.00113172
-0.000856294
-2.69925e-06
5.57729e-05
-8.29222e-06
0.000106346
-1.47426e-05
0.000125022
-2.10422e-05
0.000130226
-2.68626e-05
0.000131098
-3.21393e-05
0.000131158
-3.69164e-05
0.000131614
-4.1284e-05
0.000132942
-4.53598e-05
0.000135448
-4.92828e-05
0.000139419
-5.32147e-05
0.000145188
-5.7347e-05
0.000153166
-6.19124e-05
0.000163895
-6.72044e-05
0.000178123
-7.36139e-05
0.000196924
-8.1669e-05
0.000221894
-9.20947e-05
0.000255633
-0.000105891
0.000302739
-0.000122815
0.000370816
-0.000139618
0.000464235
-0.000154286
0.000543771
-0.000170389
0.000502922
-0.000201471
0.000287893
-0.000225375
-3.41535e-05
-0.000235733
-0.000356216
-0.000237492
-0.000645933
-0.000243741
-0.00078946
-0.000268878
-0.000923593
-0.000223487
-0.00117711
-0.00107978
-3.01221e-06
5.87851e-05
-8.96956e-06
0.000112304
-1.55946e-05
0.000131647
-2.17776e-05
0.000136409
-2.71754e-05
0.000136495
-3.17667e-05
0.000135749
-3.56094e-05
0.000135457
-3.87888e-05
0.000136122
-4.13976e-05
0.000138056
-4.35259e-05
0.000141548
-4.52535e-05
0.000146916
-4.66415e-05
0.000154554
-4.77203e-05
0.000164974
-4.84623e-05
0.000178865
-4.87344e-05
0.000197196
-4.81948e-05
0.000221355
-4.59914e-05
0.00025343
-3.99953e-05
0.000296743
-2.55564e-05
0.000356377
5.9382e-06
0.00043274
4.6332e-05
0.000503377
7.13617e-05
0.000477893
6.90374e-05
0.000290217
4.03782e-05
-5.49434e-06
2.20394e-05
-0.000337877
-2.13593e-05
-0.000602534
-7.82569e-05
-0.000732563
-0.000148851
-0.000852999
-0.000159346
-0.00116661
-0.00123913
-3.62288e-06
6.2408e-05
-1.02253e-05
0.000118906
-1.71317e-05
0.000138553
-2.32207e-05
0.000142498
-2.82303e-05
0.000141505
-3.21165e-05
0.000139636
-3.49615e-05
0.000138302
-3.68682e-05
0.000138028
-3.79218e-05
0.00013911
-3.81758e-05
0.000141802
-3.76366e-05
0.000146377
-3.62494e-05
0.000153167
-3.3866e-05
0.000162591
-3.01924e-05
0.000175192
-2.46786e-05
0.000191682
-1.63248e-05
0.000213001
-3.35652e-06
0.000240461
1.79168e-05
0.000275469
5.43163e-05
0.000319978
0.00011552
0.000371536
0.000200157
0.00041874
0.000277569
0.000400481
0.000306605
0.00026118
0.000283625
1.74866e-05
0.000216847
-0.0002711
0.000125839
-0.000511527
2.25803e-05
-0.000629304
-7.2275e-05
-0.000758144
-0.000112174
-0.00112672
-0.0013513
-4.78342e-06
6.71914e-05
-1.25514e-05
0.000126674
-2.009e-05
0.000146092
-2.61541e-05
0.000148562
-3.05729e-05
0.000145924
-3.3554e-05
0.000142617
-3.5253e-05
0.000140001
-3.57846e-05
0.00013856
-3.52277e-05
0.000138553
-3.36002e-05
0.000140174
-3.08526e-05
0.000143629
-2.6839e-05
0.000149153
-2.12892e-05
0.000157041
-1.37405e-05
0.000167643
-3.45363e-06
0.000181396
1.08865e-05
0.000198661
3.13414e-05
0.000220006
6.17752e-05
0.000245036
0.000107066
0.000274687
0.000177905
0.000300697
0.000272419
0.000324227
0.000372298
0.000300601
0.000429854
0.000203625
0.00042548
2.186e-05
0.000343041
-0.00018866
0.000222784
-0.00039127
8.26241e-05
-0.000489144
-3.43943e-05
-0.000641126
-8.92947e-05
-0.00107181
-0.0014406
-6.46427e-06
7.36557e-05
-1.56265e-05
0.000135837
-2.3876e-05
0.000154341
-2.99781e-05
0.000154665
-3.40677e-05
0.000150013
-3.62143e-05
0.000144763
-3.67235e-05
0.00014051
-3.58279e-05
0.000137664
-3.36399e-05
0.000136365
-3.01789e-05
0.000136713
-2.53578e-05
0.000138808
-1.89864e-05
0.000142782
-1.07296e-05
0.000148784
-5.28548e-08
0.000156966
1.37819e-05
0.000167561
3.20774e-05
0.000180365
5.63562e-05
0.000195728
9.00856e-05
0.000211306
0.000135156
0.000229617
0.000199316
0.000236536
0.000278868
0.000244675
0.000367117
0.000212353
0.000425603
0.000145138
0.000433086
1.43776e-05
0.000362612
-0.000118186
0.000251579
-0.000280237
0.000112437
-0.000350002
-6.5558e-06
-0.000522132
-6.45774e-05
-0.00101379
-0.00150517
-1.05049e-05
8.41606e-05
-2.27769e-05
0.000148108
-3.19261e-05
0.00016349
-3.73448e-05
0.000160083
-3.99306e-05
0.000152599
-4.05134e-05
0.000145346
-3.94968e-05
0.000139494
-3.70126e-05
0.00013518
-3.31902e-05
0.000132543
-2.79805e-05
0.000131503
-2.13034e-05
0.000132131
-1.29053e-05
0.000134384
-2.4973e-06
0.000138376
1.05125e-05
0.000143957
2.66864e-05
0.000151387
4.71501e-05
0.000159902
7.26914e-05
0.000170186
0.000105821
0.000178177
0.000146506
0.000188932
0.000198711
0.000184331
0.000257879
0.000185507
0.000319858
0.000150373
0.000361854
0.000103141
0.000366625
9.60662e-06
0.000310634
-6.21943e-05
0.000215955
-0.000185558
9.5978e-05
-0.000230025
-7.26e-06
-0.000418894
-6.06098e-05
-0.000960443
-0.00156578
-1.40445e-05
9.82051e-05
-2.75892e-05
0.000161653
-3.86931e-05
0.000174594
-4.44891e-05
0.000165879
-4.70078e-05
0.000155118
-4.64863e-05
0.000144824
-4.38896e-05
0.000136897
-3.97653e-05
0.000131056
-3.42537e-05
0.000127031
-2.73735e-05
0.000124623
-1.89808e-05
0.000123738
-8.84444e-06
0.000124247
3.29171e-06
0.00012624
1.79544e-05
0.000129294
3.55286e-05
0.000133813
5.68813e-05
0.000138549
8.2259e-05
0.000144809
0.000112939
0.000147496
0.000148452
0.00015342
0.000188995
0.000143788
0.000231856
0.000142646
0.000271081
0.000111148
0.000295229
7.89927e-05
0.000291623
1.32129e-05
0.000251684
-2.22553e-05
0.000176055
-0.000109929
9.11566e-05
-0.000145127
-4.98105e-06
-0.000322757
-6.52207e-05
-0.000900204
-0.001631
-3.21701e-05
0.000130375
-5.026e-05
0.000179743
-5.95812e-05
0.000183916
-5.94528e-05
0.000165751
-5.75817e-05
0.000153247
-5.32622e-05
0.000140505
-4.83679e-05
0.000132003
-4.2173e-05
0.000124861
-3.50504e-05
0.000119908
-2.65318e-05
0.000116104
-1.68175e-05
0.000114024
-5.18443e-06
0.000112614
8.10135e-06
0.000112954
2.39299e-05
0.000113465
4.21652e-05
0.000115577
6.36931e-05
0.000117021
8.81615e-05
0.00012034
0.000116048
0.00011961
0.000146881
0.000122586
0.000178176
0.000112494
0.000210131
0.000110691
0.00023379
8.74892e-05
0.000246421
6.63626e-05
0.000234404
2.52296e-05
0.000207017
5.13145e-06
0.000140913
-4.3825e-05
8.96382e-05
-9.38522e-05
-7.40892e-06
-0.00022571
-7.14097e-05
-0.000836203
-0.00170241
-3.14605e-05
0.000161836
-5.04933e-05
0.000198776
-6.50927e-05
0.000198515
-6.6873e-05
0.000167531
-6.54174e-05
0.000151791
-5.97023e-05
0.00013479
-5.24194e-05
0.00012472
-4.37385e-05
0.00011618
-3.45057e-05
0.000110676
-2.36632e-05
0.000105262
-1.21926e-05
0.000102553
1.1799e-06
9.92418e-05
1.59504e-05
9.81835e-05
3.30713e-05
9.63445e-05
5.18749e-05
9.67739e-05
7.35862e-05
9.53097e-05
9.71293e-05
9.67971e-05
0.000122838
9.39016e-05
0.000150236
9.51883e-05
0.00017536
8.73698e-05
0.000201043
8.50078e-05
0.000216403
7.2129e-05
0.000224238
5.85271e-05
0.000209881
3.9587e-05
0.000193344
2.16686e-05
0.000136825
1.26936e-05
0.00011185
-6.88774e-05
5.01966e-05
-0.000164056
4.3845e-06
-0.000790391
-0.00169803
-0.000125326
0.000287162
-0.000106067
0.000179517
-0.000103276
0.000195723
-7.74195e-05
0.000141675
-6.06923e-05
0.000135064
-4.31055e-05
0.000117203
-2.8699e-05
0.000110313
-1.41528e-05
0.000101634
-6.53829e-07
9.71766e-05
1.41571e-05
9.04509e-05
2.83629e-05
8.83477e-05
4.51971e-05
8.24075e-05
6.14158e-05
8.19648e-05
8.10307e-05
7.67297e-05
0.000100423
7.7382e-05
0.000123115
7.26172e-05
0.000146122
7.37903e-05
0.000170756
6.92679e-05
0.00019664
6.93042e-05
0.000218622
6.53875e-05
0.000242877
6.0753e-05
0.000255371
5.96354e-05
0.000267969
4.59283e-05
0.000256903
5.06534e-05
0.000257988
2.05837e-05
0.000231994
3.8688e-05
0.000218681
-5.55653e-05
0.000229658
-0.000175033
0.000162921
-0.000723654
-0.00153511
1.91195e-06
0.00028525
-2.79291e-06
0.000184222
3.29586e-05
0.000159972
3.80554e-05
0.000136578
6.28591e-05
0.00011026
8.55201e-05
9.4542e-05
0.00011057
8.52636e-05
0.00013664
7.55636e-05
0.000164146
6.96706e-05
0.000191917
6.26797e-05
0.000220871
5.93941e-05
0.000249504
5.37747e-05
0.000279554
5.19147e-05
0.000308805
4.74786e-05
0.000340198
4.59886e-05
0.000369566
4.32493e-05
0.000402477
4.08791e-05
0.000431347
4.03979e-05
0.000464781
3.58701e-05
0.000491829
3.83398e-05
0.000522698
2.98844e-05
0.000546002
3.63309e-05
0.000570083
2.18472e-05
0.000588358
3.23791e-05
0.000597286
1.16554e-05
0.000617478
1.84958e-05
0.000589173
-2.72599e-05
0.000583831
-0.000169691
0.00038679
-0.000526613
-0.00114832
0.00028525
0.000469472
0.000629444
0.000766022
0.000876282
0.000970824
0.00105609
0.00113165
0.00120132
0.001264
0.0013234
0.00137717
0.00142909
0.00147656
0.00152255
0.0015658
0.00160668
0.00164708
0.00168295
0.00172129
0.00175117
0.0017875
0.00180935
0.00184173
0.00185339
0.00187188
0.00184462
0.00167493
0.00114832
)
;

boundaryField
{
    movingWall
    {
        type            calculated;
        value           uniform 0;
    }
    fixedWalls
    {
        type            calculated;
        value           uniform 0;
    }
    frontAndBack
    {
        type            empty;
    }
}


// ************************************************************************* //
