/*--------------------------------*- C++ -*----------------------------------*\
| =========                 |                                                 |
| \\      /  F ield         | OpenFOAM: The Open Source CFD Toolbox           |
|  \\    /   O peration     | Version:  2406                                  |
|   \\  /    A nd           | Website:  www.openfoam.com                      |
|    \\/     M anipulation  |                                                 |
\*---------------------------------------------------------------------------*/
FoamFile
{
    version     2.0;
    format      ascii;
    arch        "LSB;label=32;scalar=64";
    class       volVectorField;
    location    "46.1";
    object      Uold;
}
// * * * * * * * * * * * * * * * * * * * * * * * * * * * * * * * * * * * * * //

dimensions      [0 1 -1 0 0 0 0];

internalField   nonuniform List<vector> 
3600
(
(-1.08039e-05 -1.27787e-06 0)
(0.000491911 -0.00024917 0)
(0.00152005 -0.00038081 0)
(0.00267283 -0.000400922 0)
(0.00376415 -0.000322295 0)
(0.00454373 -0.000215879 0)
(0.00504811 -0.000116449 0)
(0.00526733 -5.45498e-05 0)
(0.00533945 -2.9229e-05 0)
(0.00530195 -3.05933e-05 0)
(0.00521983 -3.79915e-05 0)
(0.00505242 -3.47246e-05 0)
(0.00475969 -8.97373e-06 0)
(0.00424594 4.34096e-05 0)
(0.00343103 0.000123392 0)
(0.0022147 0.000231589 0)
(0.000512056 0.000370199 0)
(-0.00176789 0.000538923 0)
(-0.00469967 0.000729449 0)
(-0.00834959 0.000928578 0)
(-0.0127543 0.0011303 0)
(-0.0179105 0.00134219 0)
(-0.02375 0.00157511 0)
(-0.03013 0.0018238 0)
(-0.0368231 0.00205552 0)
(-0.0435236 0.00221637 0)
(-0.0498627 0.00224881 0)
(-0.0554391 0.00210845 0)
(-0.0598513 0.00177309 0)
(-0.0627309 0.00124426 0)
(-0.0637695 0.00054458 0)
(-0.0627416 -0.000285832 0)
(-0.0595233 -0.00119288 0)
(-0.0541086 -0.00211129 0)
(-0.0466233 -0.00296794 0)
(-0.0373333 -0.00368593 0)
(-0.0266488 -0.00419093 0)
(-0.0151106 -0.00441943 0)
(-0.00336933 -0.00432916 0)
(0.00786751 -0.0039098 0)
(0.0178913 -0.00319153 0)
(0.0260831 -0.00224859 0)
(0.0319801 -0.00119293 0)
(0.0353621 -0.000159156 0)
(0.0362649 0.000723383 0)
(0.0349977 0.00135766 0)
(0.0320529 0.00170591 0)
(0.0280445 0.00179111 0)
(0.0235544 0.0016848 0)
(0.01909 0.00146973 0)
(0.0149719 0.00121831 0)
(0.0114059 0.000972913 0)
(0.00842162 0.000758839 0)
(0.00602614 0.000580585 0)
(0.00410666 0.000444564 0)
(0.00262335 0.000337525 0)
(0.00144635 0.000256584 0)
(0.000600474 0.000158354 0)
(5.91343e-05 4.63032e-05 0)
(-8.41377e-05 -8.99912e-05 0)
(0.000205988 -0.000469936 0)
(0.00151793 -0.00157109 0)
(0.00369037 -0.00211609 0)
(0.0059841 -0.00214816 0)
(0.00809442 -0.00175148 0)
(0.00958407 -0.00118347 0)
(0.0104641 -0.00061388 0)
(0.0106849 -0.000166322 0)
(0.0104187 0.000144829 0)
(0.00969186 0.000368912 0)
(0.00855203 0.000595527 0)
(0.00687786 0.000911749 0)
(0.00452641 0.00137747 0)
(0.00126469 0.0020223 0)
(-0.00312274 0.00285204 0)
(-0.00886733 0.00386021 0)
(-0.0161524 0.00502728 0)
(-0.0251226 0.00632409 0)
(-0.0358185 0.00771198 0)
(-0.048142 0.00913681 0)
(-0.0618045 0.0105082 0)
(-0.0763407 0.0116935 0)
(-0.0911427 0.0125369 0)
(-0.105537 0.0128946 0)
(-0.118853 0.0126597 0)
(-0.130491 0.0117748 0)
(-0.139951 0.0102325 0)
(-0.146844 0.0080696 0)
(-0.150892 0.00535893 0)
(-0.151908 0.00220123 0)
(-0.149794 -0.00128093 0)
(-0.144529 -0.00494572 0)
(-0.136173 -0.00863356 0)
(-0.124871 -0.0121669 0)
(-0.110867 -0.0153527 0)
(-0.0945076 -0.0179879 0)
(-0.0762627 -0.0198715 0)
(-0.0567206 -0.0208225 0)
(-0.0365872 -0.0207064 0)
(-0.0166541 -0.0194626 0)
(0.00223365 -0.0171322 0)
(0.0192528 -0.0138727 0)
(0.0336542 -0.00995712 0)
(0.0448629 -0.00574887 0)
(0.0525083 -0.00165125 0)
(0.0565095 0.00195089 0)
(0.0570431 0.00476351 0)
(0.0545889 0.00662461 0)
(0.0498071 0.00753653 0)
(0.0435282 0.00763429 0)
(0.0365314 0.00714739 0)
(0.0295455 0.00631429 0)
(0.0230254 0.00535016 0)
(0.0173088 0.00439345 0)
(0.0124339 0.00354311 0)
(0.00845814 0.0028069 0)
(0.0052171 0.00218602 0)
(0.00276426 0.00154766 0)
(0.000988586 0.000877517 0)
(9.72208e-05 8.6818e-05 0)
(0.000344396 -0.00145065 0)
(0.00215808 -0.00377362 0)
(0.0049901 -0.00484607 0)
(0.00779396 -0.00476951 0)
(0.0102112 -0.00381105 0)
(0.0117123 -0.00244771 0)
(0.0123062 -0.00104841 0)
(0.0119066 0.000160523 0)
(0.0106522 0.00114585 0)
(0.00849347 0.00202903 0)
(0.00537727 0.00300238 0)
(0.00105591 0.00425987 0)
(-0.00474114 0.00592762 0)
(-0.0123599 0.00806413 0)
(-0.0220924 0.0106605 0)
(-0.0341842 0.0136649 0)
(-0.048716 0.0169749 0)
(-0.0655505 0.0204262 0)
(-0.0842509 0.0237619 0)
(-0.104128 0.0266546 0)
(-0.12433 0.0287729 0)
(-0.143991 0.0298602 0)
(-0.162338 0.0297704 0)
(-0.178758 0.0284676 0)
(-0.192804 0.0259976 0)
(-0.20418 0.022459 0)
(-0.212703 0.0179792 0)
(-0.218269 0.0127011 0)
(-0.220823 0.00677565 0)
(-0.220342 0.000362435 0)
(-0.216818 -0.00636821 0)
(-0.210265 -0.0132281 0)
(-0.200718 -0.020005 0)
(-0.188249 -0.0264558 0)
(-0.172989 -0.0323049 0)
(-0.155148 -0.0372472 0)
(-0.135041 -0.040965 0)
(-0.113106 -0.043152 0)
(-0.0899187 -0.0435555 0)
(-0.066181 -0.0420201 0)
(-0.0427007 -0.038538 0)
(-0.0203293 -0.0332795 0)
(9.06165e-05 -0.0266035 0)
(0.0178235 -0.0190271 0)
(0.0322754 -0.0111655 0)
(0.0430791 -0.00365328 0)
(0.0500635 0.00294433 0)
(0.0533292 0.008191 0)
(0.053174 0.0118422 0)
(0.0501786 0.0138564 0)
(0.0450444 0.0144068 0)
(0.0386364 0.0138129 0)
(0.0316876 0.0124809 0)
(0.0248955 0.0107831 0)
(0.0186066 0.00902942 0)
(0.0131449 0.00736868 0)
(0.00846875 0.00586143 0)
(0.00476409 0.0043425 0)
(0.0018964 0.00272144 0)
(0.000290091 0.000791597 0)
(0.000438112 -0.00266856 0)
(0.00255232 -0.00632398 0)
(0.00565219 -0.0078051 0)
(0.00843668 -0.00736474 0)
(0.0105295 -0.00557326 0)
(0.0113783 -0.00314116 0)
(0.0110161 -0.000633772 0)
(0.00931741 0.00166612 0)
(0.00633674 0.0037479 0)
(0.00188239 0.00584429 0)
(-0.00426474 0.00826435 0)
(-0.0125061 0.0112972 0)
(-0.0232131 0.0150951 0)
(-0.0367401 0.0196817 0)
(-0.0532444 0.0249419 0)
(-0.0726295 0.0306341 0)
(-0.0944144 0.036354 0)
(-0.117787 0.0415788 0)
(-0.141726 0.0457727 0)
(-0.165226 0.0485256 0)
(-0.187444 0.0496112 0)
(-0.207772 0.0489807 0)
(-0.22582 0.0467084 0)
(-0.241371 0.0429412 0)
(-0.254316 0.0378537 0)
(-0.264618 0.0316259 0)
(-0.272268 0.0244283 0)
(-0.277268 0.016421 0)
(-0.279615 0.00775562 0)
(-0.279289 -0.0014153 0)
(-0.276257 -0.0109291 0)
(-0.27047 -0.0205985 0)
(-0.261875 -0.0301997 0)
(-0.250429 -0.0394581 0)
(-0.236115 -0.0480429 0)
(-0.218972 -0.0555655 0)
(-0.199132 -0.0615953 0)
(-0.176845 -0.0656881 0)
(-0.152522 -0.0674399 0)
(-0.12675 -0.0665501 0)
(-0.10029 -0.0628986 0)
(-0.0740316 -0.0566022 0)
(-0.0489324 -0.0480478 0)
(-0.0258943 -0.0378601 0)
(-0.00568522 -0.0268269 0)
(0.0111664 -0.0157818 0)
(0.0243416 -0.00549358 0)
(0.0337652 0.00340395 0)
(0.0394932 0.0104631 0)
(0.0418049 0.0154323 0)
(0.041094 0.0182941 0)
(0.0380134 0.0192489 0)
(0.0332329 0.0186963 0)
(0.027569 0.0171224 0)
(0.0215824 0.0150176 0)
(0.0158782 0.0127278 0)
(0.0106223 0.0104401 0)
(0.00621834 0.00804565 0)
(0.00260157 0.00534695 0)
(0.000445971 0.00195778 0)
(0.000500572 -0.00411693 0)
(0.00274685 -0.00913878 0)
(0.00578425 -0.0108087 0)
(0.00810662 -0.00964605 0)
(0.00933529 -0.00665454 0)
(0.00894214 -0.00279667 0)
(0.00698428 0.00117945 0)
(0.00328653 0.00500376 0)
(-0.00222626 0.00874758 0)
(-0.009922 0.0127972 0)
(-0.02019 0.0175667 0)
(-0.0335121 0.0233787 0)
(-0.050191 0.0302962 0)
(-0.0702909 0.0381365 0)
(-0.0934359 0.0464366 0)
(-0.118829 0.0545236 0)
(-0.145347 0.0616296 0)
(-0.171828 0.0671042 0)
(-0.197282 0.0705308 0)
(-0.221009 0.0717532 0)
(-0.242578 0.0708069 0)
(-0.261769 0.0678525 0)
(-0.278495 0.0631062 0)
(-0.292751 0.0568025 0)
(-0.304572 0.0491636 0)
(-0.31401 0.040391 0)
(-0.321121 0.0306585 0)
(-0.325947 0.0201189 0)
(-0.328515 0.00890861 0)
(-0.328823 -0.00283871 0)
(-0.326839 -0.014981 0)
(-0.322497 -0.0273489 0)
(-0.315694 -0.0397302 0)
(-0.306296 -0.0518485 0)
(-0.294155 -0.0633509 0)
(-0.279123 -0.0737954 0)
(-0.261098 -0.0826593 0)
(-0.240068 -0.089361 0)
(-0.216172 -0.0933156 0)
(-0.189759 -0.0940123 0)
(-0.161441 -0.0911222 0)
(-0.13209 -0.0845995 0)
(-0.102803 -0.0747652 0)
(-0.0747666 -0.062311 0)
(-0.0491029 -0.0482235 0)
(-0.0266678 -0.0336125 0)
(-0.00798233 -0.0195252 0)
(0.00680516 -0.00681011 0)
(0.0177414 0.00393136 0)
(0.0250518 0.0123165 0)
(0.0289829 0.0181792 0)
(0.0299758 0.021567 0)
(0.0285003 0.0227606 0)
(0.0252715 0.0222244 0)
(0.0208649 0.0205137 0)
(0.0160236 0.0181282 0)
(0.0110831 0.015378 0)
(0.00666174 0.0122606 0)
(0.00283678 0.00846514 0)
(0.000494699 0.00341561 0)
(0.000551567 -0.00563033 0)
(0.00275939 -0.0118176 0)
(0.00535441 -0.0132724 0)
(0.00672842 -0.0109209 0)
(0.00653404 -0.00631798 0)
(0.00431855 -0.000667544 0)
(0.00013362 0.00516126 0)
(-0.0062766 0.0110083 0)
(-0.0151647 0.0170881 0)
(-0.0270586 0.0239356 0)
(-0.0424147 0.0319712 0)
(-0.0615582 0.0413682 0)
(-0.084373 0.0518495 0)
(-0.110259 0.0627623 0)
(-0.138124 0.0731658 0)
(-0.16667 0.0821167 0)
(-0.194674 0.0888806 0)
(-0.221211 0.0930656 0)
(-0.245685 0.0945721 0)
(-0.267773 0.0935178 0)
(-0.287341 0.0901337 0)
(-0.304376 0.0847068 0)
(-0.318939 0.0775268 0)
(-0.331138 0.0688685 0)
(-0.341105 0.0589718 0)
(-0.348979 0.048042 0)
(-0.354901 0.0362449 0)
(-0.358994 0.0237156 0)
(-0.361356 0.0105621 0)
(-0.362046 -0.00311889 0)
(-0.361078 -0.0172319 0)
(-0.358407 -0.0316599 0)
(-0.353922 -0.0462463 0)
(-0.347439 -0.0607671 0)
(-0.338708 -0.0749091 0)
(-0.327411 -0.0882437 0)
(-0.3132 -0.100219 0)
(-0.29574 -0.110162 0)
(-0.274781 -0.117318 0)
(-0.250256 -0.120927 0)
(-0.22239 -0.12034 0)
(-0.191789 -0.115173 0)
(-0.159487 -0.105465 0)
(-0.126883 -0.0917718 0)
(-0.0955752 -0.0751728 0)
(-0.0670545 -0.0570962 0)
(-0.0424285 -0.0390379 0)
(-0.0222011 -0.0222569 0)
(-0.00637993 -0.00761224 0)
(0.00537654 0.00440924 0)
(0.0134306 0.0135906 0)
(0.0182219 0.019906 0)
(0.0201185 0.0235207 0)
(0.0196986 0.0248059 0)
(0.0174512 0.02427 0)
(0.0141197 0.0224685 0)
(0.0101292 0.0197721 0)
(0.00623761 0.0162703 0)
(0.00268265 0.0115474 0)
(0.000463894 0.00487267 0)
(0.00057418 -0.00719217 0)
(0.0025141 -0.0141725 0)
(0.00423925 -0.0148796 0)
(0.00418089 -0.0108121 0)
(0.00204832 -0.00415232 0)
(-0.00250678 0.00370752 0)
(-0.00949582 0.0118695 0)
(-0.0192785 0.020372 0)
(-0.0322754 0.02958 0)
(-0.049034 0.0400695 0)
(-0.0698185 0.0520394 0)
(-0.0944452 0.0652241 0)
(-0.122104 0.0787722 0)
(-0.151525 0.0915557 0)
(-0.181269 0.102447 0)
(-0.210087 0.110654 0)
(-0.237075 0.115772 0)
(-0.261683 0.117751 0)
(-0.283629 0.116759 0)
(-0.30282 0.113095 0)
(-0.319288 0.107106 0)
(-0.333158 0.0991573 0)
(-0.344615 0.0895879 0)
(-0.353882 0.0787067 0)
(-0.361201 0.0667698 0)
(-0.366815 0.053985 0)
(-0.370951 0.0405055 0)
(-0.373805 0.0264423 0)
(-0.375541 0.011867 0)
(-0.376275 -0.0031695 0)
(-0.376069 -0.0186285 0)
(-0.374923 -0.0344598 0)
(-0.372762 -0.0505852 0)
(-0.369419 -0.0668678 0)
(-0.364624 -0.0830864 0)
(-0.35799 -0.0988973 0)
(-0.349019 -0.113809 0)
(-0.337114 -0.127154 0)
(-0.321649 -0.138101 0)
(-0.302051 -0.145691 0)
(-0.277958 -0.148942 0)
(-0.249378 -0.147009 0)
(-0.216871 -0.139403 0)
(-0.181636 -0.126212 0)
(-0.145484 -0.108261 0)
(-0.110573 -0.0870893 0)
(-0.07898 -0.0646955 0)
(-0.0521677 -0.0430613 0)
(-0.0307199 -0.0236895 0)
(-0.014373 -0.00740713 0)
(-0.00251277 0.00550692 0)
(0.00557378 0.0150757 0)
(0.010406 0.0214758 0)
(0.0125616 0.0250389 0)
(0.0124808 0.0262023 0)
(0.0108513 0.025505 0)
(0.00812858 0.0233072 0)
(0.00512061 0.0197404 0)
(0.00219875 0.0143031 0)
(0.00036267 0.00616916 0)
(0.000544755 -0.00859069 0)
(0.00190647 -0.0157283 0)
(0.00226862 -0.0150327 0)
(0.000289657 -0.00870389 0)
(-0.00426351 0.000447118 0)
(-0.0116229 0.0109441 0)
(-0.0219288 0.0219683 0)
(-0.0356191 0.0337889 0)
(-0.0531718 0.0468151 0)
(-0.0748836 0.0614154 0)
(-0.100513 0.0772656 0)
(-0.129159 0.0934687 0)
(-0.159417 0.108678 0)
(-0.189749 0.121636 0)
(-0.218844 0.131423 0)
(-0.245773 0.137624 0)
(-0.269979 0.140188 0)
(-0.291177 0.13934 0)
(-0.309297 0.135435 0)
(-0.324419 0.128914 0)
(-0.336745 0.120228 0)
(-0.346554 0.109817 0)
(-0.354175 0.0980664 0)
(-0.359949 0.0853043 0)
(-0.364212 0.0717824 0)
(-0.367265 0.0576885 0)
(-0.369378 0.0431422 0)
(-0.370772 0.0282155 0)
(-0.371631 0.0129348 0)
(-0.37209 -0.0026977 0)
(-0.372247 -0.0186993 0)
(-0.372146 -0.0350847 0)
(-0.371773 -0.0518568 0)
(-0.371038 -0.0689776 0)
(-0.36975 -0.0863474 0)
(-0.367585 -0.103762 0)
(-0.364062 -0.120878 0)
(-0.358518 -0.137158 0)
(-0.350121 -0.151843 0)
(-0.337914 -0.163934 0)
(-0.320945 -0.172242 0)
(-0.298449 -0.175498 0)
(-0.270117 -0.172572 0)
(-0.236359 -0.162769 0)
(-0.198518 -0.146157 0)
(-0.158855 -0.123814 0)
(-0.120256 -0.0978297 0)
(-0.0855403 -0.0709133 0)
(-0.0567022 -0.0456703 0)
(-0.0343587 -0.0238847 0)
(-0.0179954 -0.00628466 0)
(-0.00653319 0.00715019 0)
(0.000980364 0.0167469 0)
(0.00537766 0.0229423 0)
(0.00721626 0.0261813 0)
(0.00718046 0.0269794 0)
(0.00575672 0.0256519 0)
(0.00374253 0.0223209 0)
(0.00160268 0.0164309 0)
(0.000245091 0.00713628 0)
(0.000430598 -0.009663 0)
(0.000841064 -0.0161248 0)
(-0.000651666 -0.0133338 0)
(-0.00496776 -0.00424395 0)
(-0.012321 0.00780578 0)
(-0.0228284 0.0213842 0)
(-0.0367937 0.0358222 0)
(-0.054616 0.0515351 0)
(-0.0766155 0.0687357 0)
(-0.102548 0.0872801 0)
(-0.131523 0.106151 0)
(-0.162051 0.123931 0)
(-0.192521 0.139134 0)
(-0.221519 0.150735 0)
(-0.248064 0.158212 0)
(-0.271538 0.161524 0)
(-0.291657 0.16091 0)
(-0.308359 0.156818 0)
(-0.321797 0.149776 0)
(-0.332254 0.14036 0)
(-0.340125 0.129109 0)
(-0.345834 0.116509 0)
(-0.349819 0.102955 0)
(-0.352473 0.088756 0)
(-0.354149 0.074124 0)
(-0.355133 0.0592009 0)
(-0.355664 0.0440582 0)
(-0.355925 0.0287242 0)
(-0.356067 0.013186 0)
(-0.356203 -0.00258845 0)
(-0.35643 -0.0186508 0)
(-0.356812 -0.0350537 0)
(-0.357393 -0.0518501 0)
(-0.35817 -0.0690724 0)
(-0.359081 -0.0867222 0)
(-0.359959 -0.104735 0)
(-0.3605 -0.122949 0)
(-0.360195 -0.141041 0)
(-0.358295 -0.158475 0)
(-0.353776 -0.174426 0)
(-0.345388 -0.187755 0)
(-0.331761 -0.19702 0)
(-0.311665 -0.200616 0)
(-0.284349 -0.197025 0)
(-0.249969 -0.185228 0)
(-0.209925 -0.165178 0)
(-0.16697 -0.138197 0)
(-0.124812 -0.107032 0)
(-0.087216 -0.0753066 0)
(-0.0567477 -0.046413 0)
(-0.0340742 -0.0224244 0)
(-0.0182165 -0.00386144 0)
(-0.00769329 0.00970167 0)
(-0.00113044 0.018977 0)
(0.00240642 0.024597 0)
(0.00375443 0.0271464 0)
(0.00349708 0.0269312 0)
(0.00241649 0.0240511 0)
(0.00103688 0.0179441 0)
(0.000138667 0.00780151 0)
(0.000199831 -0.0100818 0)
(-0.000750035 -0.0148335 0)
(-0.00454815 -0.00927187 0)
(-0.0115237 0.00299966 0)
(-0.0219409 0.018307 0)
(-0.0357863 0.0353704 0)
(-0.0534954 0.053651 0)
(-0.0752276 0.0734933 0)
(-0.100925 0.0946265 0)
(-0.129665 0.116214 0)
(-0.160043 0.136651 0)
(-0.190311 0.154336 0)
(-0.219005 0.167992 0)
(-0.244994 0.177008 0)
(-0.267633 0.18126 0)
(-0.286577 0.181039 0)
(-0.301818 0.176852 0)
(-0.313552 0.169364 0)
(-0.322185 0.159268 0)
(-0.328199 0.147242 0)
(-0.332137 0.133864 0)
(-0.334496 0.119614 0)
(-0.335732 0.104838 0)
(-0.336205 0.0897821 0)
(-0.33621 0.0745875 0)
(-0.335954 0.0593324 0)
(-0.335602 0.0440341 0)
(-0.335264 0.0286808 0)
(-0.335033 0.0132301 0)
(-0.334977 -0.0023685 0)
(-0.335171 -0.0181806 0)
(-0.335674 -0.0342703 0)
(-0.336556 -0.0507089 0)
(-0.337872 -0.0675593 0)
(-0.339661 -0.0848793 0)
(-0.341912 -0.102698 0)
(-0.344533 -0.121002 0)
(-0.347281 -0.139681 0)
(-0.349699 -0.158476 0)
(-0.351024 -0.176885 0)
(-0.350136 -0.194068 0)
(-0.345533 -0.208767 0)
(-0.335463 -0.21929 0)
(-0.318176 -0.22363 0)
(-0.292392 -0.219772 0)
(-0.257882 -0.206234 0)
(-0.216029 -0.18274 0)
(-0.170067 -0.150862 0)
(-0.124676 -0.114163 0)
(-0.0846703 -0.0774497 0)
(-0.0532579 -0.045058 0)
(-0.030921 -0.0192837 0)
(-0.0161555 -0.000252874 0)
(-0.0069187 0.0129945 0)
(-0.00161182 0.0214941 0)
(0.000999498 0.0260914 0)
(0.00173467 0.0272088 0)
(0.0014226 0.0249729 0)
(0.000643602 0.0188771 0)
(7.56811e-05 0.00819396 0)
(-0.000164956 -0.00956971 0)
(-0.00284935 -0.0114958 0)
(-0.0092792 -0.00259143 0)
(-0.0190809 0.0131642 0)
(-0.0326473 0.0320069 0)
(-0.0497845 0.052838 0)
(-0.0709624 0.0751217 0)
(-0.0958899 0.0988524 0)
(-0.124028 0.123086 0)
(-0.153854 0.146344 0)
(-0.183751 0.166736 0)
(-0.212009 0.182815 0)
(-0.237485 0.193711 0)
(-0.259353 0.199247 0)
(-0.277302 0.19968 0)
(-0.29128 0.19562 0)
(-0.3016 0.187839 0)
(-0.30872 0.177197 0)
(-0.313265 0.164496 0)
(-0.315833 0.15044 0)
(-0.317016 0.135574 0)
(-0.317275 0.120299 0)
(-0.316996 0.104867 0)
(-0.316435 0.0894321 0)
(-0.315783 0.0740547 0)
(-0.315146 0.0587516 0)
(-0.314602 0.0434964 0)
(-0.314189 0.0282518 0)
(-0.313948 0.0129626 0)
(-0.313903 -0.00242332 0)
(-0.314101 -0.0179668 0)
(-0.314586 -0.0337233 0)
(-0.315429 -0.0497564 0)
(-0.3167 -0.0661262 0)
(-0.318489 -0.0829018 0)
(-0.320872 -0.100147 0)
(-0.323905 -0.117924 0)
(-0.327569 -0.136261 0)
(-0.331726 -0.155122 0)
(-0.336004 -0.174328 0)
(-0.33971 -0.193455 0)
(-0.341696 -0.21169 0)
(-0.340313 -0.227697 0)
(-0.333465 -0.239541 0)
(-0.318899 -0.244771 0)
(-0.294744 -0.240773 0)
(-0.260299 -0.225456 0)
(-0.216856 -0.19823 0)
(-0.168173 -0.160957 0)
(-0.120017 -0.118293 0)
(-0.0783993 -0.0765507 0)
(-0.0469998 -0.0411221 0)
(-0.0258643 -0.0142677 0)
(-0.0127009 0.00455619 0)
(-0.00507297 0.0168561 0)
(-0.00107172 0.0239913 0)
(0.000565902 0.0267216 0)
(0.000851737 0.0253328 0)
(0.000463287 0.0194565 0)
(6.07141e-05 0.00846415 0)
(-0.000667124 -0.00778075 0)
(-0.00538481 -0.00574138 0)
(-0.014626 0.00694321 0)
(-0.0272641 0.0263644 0)
(-0.043875 0.048905 0)
(-0.0639943 0.0735731 0)
(-0.0880074 0.0996389 0)
(-0.115044 0.126516 0)
(-0.144146 0.152587 0)
(-0.173411 0.175964 0)
(-0.201297 0.194813 0)
(-0.226307 0.208057 0)
(-0.247672 0.215298 0)
(-0.264877 0.216789 0)
(-0.277981 0.213166 0)
(-0.287246 0.205356 0)
(-0.293293 0.194357 0)
(-0.296768 0.181144 0)
(-0.298411 0.166536 0)
(-0.298813 0.151176 0)
(-0.298507 0.135498 0)
(-0.297833 0.119784 0)
(-0.297059 0.10417 0)
(-0.29631 0.0887176 0)
(-0.295678 0.0734178 0)
(-0.295179 0.058243 0)
(-0.294831 0.0431409 0)
(-0.29462 0.0280643 0)
(-0.294558 0.0129579 0)
(-0.294641 -0.00222247 0)
(-0.2949 -0.0175261 0)
(-0.29536 -0.0329934 0)
(-0.296085 -0.048672 0)
(-0.297136 -0.0646066 0)
(-0.298609 -0.0808548 0)
(-0.300604 -0.0974787 0)
(-0.303239 -0.114558 0)
(-0.306611 -0.132177 0)
(-0.310784 -0.150418 0)
(-0.3157 -0.169313 0)
(-0.321106 -0.18878 0)
(-0.326393 -0.208486 0)
(-0.330455 -0.227669 0)
(-0.331552 -0.244936 0)
(-0.327322 -0.258098 0)
(-0.315037 -0.264217 0)
(-0.292233 -0.25997 0)
(-0.257698 -0.242546 0)
(-0.212639 -0.210974 0)
(-0.161435 -0.167592 0)
(-0.11114 -0.118544 0)
(-0.0689986 -0.072085 0)
(-0.0388503 -0.0345402 0)
(-0.0197607 -0.00764499 0)
(-0.00866412 0.0100696 0)
(-0.00276473 0.0206613 0)
(-0.000117203 0.0255063 0)
(0.000677273 0.0252724 0)
(0.00049182 0.019843 0)
(9.3557e-05 0.00871188 0)
(-0.00127562 -0.00449541 0)
(-0.00817696 0.00254835 0)
(-0.0202139 0.0192708 0)
(-0.0355113 0.0423851 0)
(-0.0548453 0.0686012 0)
(-0.0773801 0.0968785 0)
(-0.10333 0.126111 0)
(-0.131239 0.155033 0)
(-0.159908 0.181525 0)
(-0.18729 0.203581 0)
(-0.212118 0.219682 0)
(-0.233176 0.229221 0)
(-0.250097 0.232292 0)
(-0.262695 0.229578 0)
(-0.271415 0.222088 0)
(-0.276792 0.211008 0)
(-0.279669 0.197472 0)
(-0.280752 0.182459 0)
(-0.28077 0.166701 0)
(-0.280202 0.150702 0)
(-0.279451 0.134751 0)
(-0.278704 0.118993 0)
(-0.278105 0.103464 0)
(-0.277669 0.0881499 0)
(-0.277415 0.0729997 0)
(-0.277299 0.0579634 0)
(-0.277313 0.0429822 0)
(-0.277416 0.0280124 0)
(-0.277608 0.0130078 0)
(-0.277874 -0.00206312 0)
(-0.278236 -0.017235 0)
(-0.278708 -0.0325319 0)
(-0.279338 -0.047984 0)
(-0.280171 -0.0636166 0)
(-0.28129 -0.0794675 0)
(-0.282779 -0.0955791 0)
(-0.284762 -0.112018 0)
(-0.287367 -0.128868 0)
(-0.290742 -0.146247 0)
(-0.295002 -0.164285 0)
(-0.30019 -0.183096 0)
(-0.306144 -0.202697 0)
(-0.312367 -0.222853 0)
(-0.317795 -0.242862 0)
(-0.320639 -0.261255 0)
(-0.3183 -0.275573 0)
(-0.30762 -0.2823 0)
(-0.285563 -0.277316 0)
(-0.250453 -0.256971 0)
(-0.203508 -0.219994 0)
(-0.149957 -0.169518 0)
(-0.0983984 -0.11387 0)
(-0.0572324 -0.0635879 0)
(-0.0297193 -0.0254371 0)
(-0.0134569 0.000129377 0)
(-0.00471282 0.0156938 0)
(-0.000660585 0.0235131 0)
(0.000720591 0.0249235 0)
(0.000651891 0.0202208 0)
(0.000157104 0.00906359 0)
(-0.00194683 0.000457112 0)
(-0.0110346 0.0134102 0)
(-0.0256853 0.0342692 0)
(-0.0433125 0.0609702 0)
(-0.0648694 0.0906536 0)
(-0.0890725 0.122038 0)
(-0.115948 0.153531 0)
(-0.143549 0.183231 0)
(-0.170646 0.20878 0)
(-0.195237 0.228313 0)
(-0.216435 0.240789 0)
(-0.233326 0.246107 0)
(-0.24597 0.244867 0)
(-0.254501 0.238165 0)
(-0.259707 0.227332 0)
(-0.26229 0.213704 0)
(-0.263184 0.198425 0)
(-0.263027 0.182369 0)
(-0.262444 0.166106 0)
(-0.26174 0.149967 0)
(-0.261174 0.134091 0)
(-0.260791 0.118509 0)
(-0.260645 0.103183 0)
(-0.260674 0.0880569 0)
(-0.260864 0.0730613 0)
(-0.261146 0.0581432 0)
(-0.261504 0.0432498 0)
(-0.261894 0.0283471 0)
(-0.262319 0.0134003 0)
(-0.26276 -0.00161014 0)
(-0.263241 -0.0167078 0)
(-0.263765 -0.0319049 0)
(-0.264375 -0.04722 0)
(-0.265096 -0.0626644 0)
(-0.265989 -0.0782591 0)
(-0.267111 -0.0940258 0)
(-0.268558 -0.110006 0)
(-0.270436 -0.126259 0)
(-0.272896 -0.142884 0)
(-0.276102 -0.16002 0)
(-0.280235 -0.177853 0)
(-0.285407 -0.196578 0)
(-0.291568 -0.216313 0)
(-0.298302 -0.236932 0)
(-0.304599 -0.257756 0)
(-0.308586 -0.277216 0)
(-0.307432 -0.292465 0)
(-0.297548 -0.299323 0)
(-0.275381 -0.292699 0)
(-0.238911 -0.268112 0)
(-0.189617 -0.224157 0)
(-0.133988 -0.165507 0)
(-0.0824608 -0.103552 0)
(-0.0441706 -0.0512424 0)
(-0.0206222 -0.0145476 0)
(-0.00770041 0.00821975 0)
(-0.00152894 0.0203658 0)
(0.000731334 0.0241956 0)
(0.000841245 0.0206175 0)
(0.000232527 0.00955518 0)
(-0.00260736 0.00705653 0)
(-0.0137011 0.0266197 0)
(-0.0306106 0.0515412 0)
(-0.0500959 0.0815545 0)
(-0.0732403 0.114274 0)
(-0.0982862 0.148016 0)
(-0.125115 0.180701 0)
(-0.15144 0.209934 0)
(-0.176183 0.233388 0)
(-0.197502 0.249526 0)
(-0.214935 0.25787 0)
(-0.227879 0.258833 0)
(-0.236809 0.253516 0)
(-0.24213 0.243367 0)
(-0.244866 0.229931 0)
(-0.245754 0.214556 0)
(-0.2457 0.198285 0)
(-0.245183 0.181801 0)
(-0.244679 0.165484 0)
(-0.244313 0.149494 0)
(-0.244228 0.133847 0)
(-0.244362 0.118497 0)
(-0.24472 0.103364 0)
(-0.245201 0.088379 0)
(-0.245787 0.0734736 0)
(-0.246401 0.0586033 0)
(-0.247039 0.0437279 0)
(-0.247657 0.0288257 0)
(-0.24827 0.0138737 0)
(-0.248858 -0.0011378 0)
(-0.249449 -0.0162231 0)
(-0.250043 -0.0313865 0)
(-0.250675 -0.0466385 0)
(-0.251359 -0.061982 0)
(-0.252142 -0.0774274 0)
(-0.253054 -0.0929823 0)
(-0.25416 -0.108667 0)
(-0.255525 -0.124514 0)
(-0.257264 -0.140585 0)
(-0.259514 -0.156984 0)
(-0.26247 -0.173878 0)
(-0.266347 -0.191507 0)
(-0.271344 -0.21015 0)
(-0.277499 -0.230046 0)
(-0.284488 -0.251154 0)
(-0.291305 -0.272823 0)
(-0.295963 -0.293258 0)
(-0.295323 -0.309119 0)
(-0.285341 -0.315301 0)
(-0.262012 -0.305655 0)
(-0.22318 -0.274833 0)
(-0.171059 -0.221908 0)
(-0.113959 -0.154192 0)
(-0.0644415 -0.08735 0)
(-0.031173 -0.0358703 0)
(-0.0124942 -0.0028838 0)
(-0.00320935 0.0154792 0)
(0.000436351 0.0228596 0)
(0.000943643 0.020981 0)
(0.00029779 0.0101956 0)
(-0.00319599 0.0151792 0)
(-0.0159871 0.0418798 0)
(-0.034693 0.0706826 0)
(-0.0554884 0.103633 0)
(-0.0795326 0.138825 0)
(-0.104625 0.174067 0)
(-0.130584 0.206875 0)
(-0.154938 0.234553 0)
(-0.176889 0.255036 0)
(-0.194814 0.267228 0)
(-0.20869 0.27126 0)
(-0.218203 0.268047 0)
(-0.224198 0.259147 0)
(-0.227246 0.24625 0)
(-0.228489 0.230981 0)
(-0.228578 0.214575 0)
(-0.228308 0.197891 0)
(-0.227964 0.181387 0)
(-0.227873 0.165264 0)
(-0.228014 0.149537 0)
(-0.228454 0.134147 0)
(-0.229066 0.119 0)
(-0.229843 0.10401 0)
(-0.230672 0.0891086 0)
(-0.231547 0.0742409 0)
(-0.232395 0.059375 0)
(-0.233229 0.0444843 0)
(-0.234007 0.0295572 0)
(-0.234756 0.0145805 0)
(-0.235456 -0.000448964 0)
(-0.23614 -0.0155395 0)
(-0.236805 -0.0306915 0)
(-0.237487 -0.0459114 0)
(-0.23819 -0.061199 0)
(-0.238952 -0.07656 0)
(-0.239786 -0.0919959 0)
(-0.240736 -0.107515 0)
(-0.241832 -0.123131 0)
(-0.243144 -0.138873 0)
(-0.244757 -0.154803 0)
(-0.246818 -0.171032 0)
(-0.249522 -0.187756 0)
(-0.253135 -0.205259 0)
(-0.257913 -0.223926 0)
(-0.26399 -0.244092 0)
(-0.2711 -0.265834 0)
(-0.278212 -0.288421 0)
(-0.283134 -0.309765 0)
(-0.282326 -0.325717 0)
(-0.271243 -0.33006 0)
(-0.2455 -0.315306 0)
(-0.203213 -0.275595 0)
(-0.147977 -0.21142 0)
(-0.0907783 -0.134695 0)
(-0.0460339 -0.066152 0)
(-0.0196215 -0.0190309 0)
(-0.00608844 0.00800149 0)
(-0.000367215 0.0204747 0)
(0.000876595 0.0211071 0)
(0.00033944 0.0109127 0)
(-0.0036429 0.0245289 0)
(-0.0176944 0.0586969 0)
(-0.0376465 0.0910854 0)
(-0.0591603 0.126474 0)
(-0.0834231 0.163451 0)
(-0.107866 0.199289 0)
(-0.132334 0.23124 0)
(-0.15431 0.256503 0)
(-0.173339 0.273442 0)
(-0.188044 0.281463 0)
(-0.198816 0.281313 0)
(-0.205587 0.274365 0)
(-0.209484 0.262545 0)
(-0.21113 0.247648 0)
(-0.211671 0.231251 0)
(-0.211595 0.214381 0)
(-0.211554 0.197676 0)
(-0.21164 0.181378 0)
(-0.212072 0.165539 0)
(-0.212721 0.150079 0)
(-0.213623 0.134896 0)
(-0.21462 0.119882 0)
(-0.215717 0.104962 0)
(-0.216799 0.0900763 0)
(-0.217883 0.0751892 0)
(-0.218899 0.0602799 0)
(-0.219874 0.0453346 0)
(-0.220771 0.0303497 0)
(-0.221623 0.0153196 0)
(-0.22241 0.000246368 0)
(-0.223169 -0.0148735 0)
(-0.223895 -0.0300376 0)
(-0.224623 -0.0452497 0)
(-0.225355 -0.0605087 0)
(-0.226126 -0.0758186 0)
(-0.226939 -0.0911802 0)
(-0.227826 -0.106597 0)
(-0.228797 -0.122075 0)
(-0.229891 -0.137623 0)
(-0.231144 -0.153274 0)
(-0.232647 -0.169083 0)
(-0.234527 -0.185183 0)
(-0.237009 -0.201783 0)
(-0.24038 -0.219254 0)
(-0.244972 -0.238051 0)
(-0.250982 -0.258671 0)
(-0.258179 -0.281206 0)
(-0.265426 -0.304845 0)
(-0.270211 -0.326881 0)
(-0.268479 -0.342146 0)
(-0.255101 -0.342801 0)
(-0.225565 -0.32006 0)
(-0.178768 -0.26807 0)
(-0.120822 -0.19076 0)
(-0.0660666 -0.107249 0)
(-0.0294075 -0.0420279 0)
(-0.0104292 -0.00297629 0)
(-0.00179434 0.0164935 0)
(0.000601861 0.0207497 0)
(0.000351443 0.0116258 0)
(-0.00391261 0.0347426 0)
(-0.0187362 0.0765855 0)
(-0.0393661 0.112245 0)
(-0.0610303 0.149559 0)
(-0.0849046 0.18764 0)
(-0.108155 0.223261 0)
(-0.130727 0.253568 0)
(-0.150161 0.275818 0)
(-0.166367 0.288923 0)
(-0.178211 0.292807 0)
(-0.186447 0.288816 0)
(-0.191189 0.278699 0)
(-0.193738 0.264641 0)
(-0.194668 0.248402 0)
(-0.19505 0.231414 0)
(-0.195178 0.214447 0)
(-0.195561 0.197927 0)
(-0.196139 0.181905 0)
(-0.197058 0.166339 0)
(-0.198129 0.151084 0)
(-0.199384 0.136034 0)
(-0.200659 0.121084 0)
(-0.201978 0.106176 0)
(-0.203234 0.0912629 0)
(-0.204462 0.0763266 0)
(-0.205596 0.0613545 0)
(-0.206676 0.046343 0)
(-0.207662 0.031293 0)
(-0.208595 0.0162054 0)
(-0.209453 0.00108478 0)
(-0.210276 -0.0140683 0)
(-0.211054 -0.0292502 0)
(-0.211827 -0.0444627 0)
(-0.212593 -0.0597053 0)
(-0.213387 -0.074982 0)
(-0.214209 -0.0902961 0)
(-0.215087 -0.105651 0)
(-0.21602 -0.121054 0)
(-0.217032 -0.136505 0)
(-0.218125 -0.15202 0)
(-0.219345 -0.167617 0)
(-0.220752 -0.18337 0)
(-0.22249 -0.199398 0)
(-0.224783 -0.215983 0)
(-0.227977 -0.233531 0)
(-0.232456 -0.252672 0)
(-0.238479 -0.273964 0)
(-0.245779 -0.297593 0)
(-0.253001 -0.322343 0)
(-0.257173 -0.344723 0)
(-0.253534 -0.357881 0)
(-0.23647 -0.352146 0)
(-0.201604 -0.317405 0)
(-0.149766 -0.249425 0)
(-0.0906472 -0.158821 0)
(-0.0425992 -0.0741339 0)
(-0.0162497 -0.0185477 0)
(-0.00396459 0.0102615 0)
(0.00013618 0.0195958 0)
(0.000329478 0.0122334 0)
(-0.00397379 0.0453641 0)
(-0.0190406 0.0949461 0)
(-0.0397798 0.133522 0)
(-0.0610684 0.172212 0)
(-0.0840403 0.210724 0)
(-0.105709 0.245414 0)
(-0.126169 0.27348 0)
(-0.143091 0.292367 0)
(-0.156733 0.301593 0)
(-0.166182 0.301589 0)
(-0.172482 0.294248 0)
(-0.17585 0.281594 0)
(-0.177658 0.265939 0)
(-0.178363 0.248902 0)
(-0.178915 0.231711 0)
(-0.179421 0.21487 0)
(-0.180277 0.19862 0)
(-0.181309 0.182869 0)
(-0.182632 0.16752 0)
(-0.184027 0.152401 0)
(-0.185542 0.137417 0)
(-0.187015 0.122473 0)
(-0.188496 0.107532 0)
(-0.189882 0.092559 0)
(-0.191223 0.0775487 0)
(-0.192454 0.0624942 0)
(-0.193623 0.0473998 0)
(-0.194688 0.0322695 0)
(-0.195693 0.0171097 0)
(-0.196614 0.00192724 0)
(-0.197492 -0.0132732 0)
(-0.198315 -0.0284864 0)
(-0.199123 -0.0437117 0)
(-0.199914 -0.058949 0)
(-0.200723 -0.0742017 0)
(-0.20155 -0.0894766 0)
(-0.202425 -0.104779 0)
(-0.203343 -0.12012 0)
(-0.204323 -0.135502 0)
(-0.205354 -0.150939 0)
(-0.206455 -0.166428 0)
(-0.207635 -0.182011 0)
(-0.208967 -0.197729 0)
(-0.210581 -0.213765 0)
(-0.212741 -0.230395 0)
(-0.21583 -0.248201 0)
(-0.220309 -0.267879 0)
(-0.226458 -0.290216 0)
(-0.233888 -0.31519 0)
(-0.240879 -0.341113 0)
(-0.24373 -0.362941 0)
(-0.236951 -0.37176 0)
(-0.214466 -0.355509 0)
(-0.172999 -0.30375 0)
(-0.116481 -0.216769 0)
(-0.0600245 -0.11678 0)
(-0.0235649 -0.0404191 0)
(-0.0070086 0.00122952 0)
(-0.000520565 0.0172621 0)
(0.00028247 0.0126695 0)
(-0.00383253 0.0559515 0)
(-0.0186395 0.113281 0)
(-0.0389707 0.154483 0)
(-0.0594429 0.194078 0)
(-0.0811203 0.232468 0)
(-0.100971 0.265705 0)
(-0.11926 0.291166 0)
(-0.133832 0.306574 0)
(-0.145248 0.312071 0)
(-0.152782 0.308559 0)
(-0.157685 0.298403 0)
(-0.160206 0.283793 0)
(-0.161703 0.267059 0)
(-0.162477 0.249601 0)
(-0.163351 0.232426 0)
(-0.164271 0.215792 0)
(-0.165553 0.199801 0)
(-0.166953 0.184259 0)
(-0.168579 0.16905 0)
(-0.170206 0.153992 0)
(-0.171902 0.139016 0)
(-0.173516 0.124036 0)
(-0.175114 0.109035 0)
(-0.176598 0.0939857 0)
(-0.17803 0.078892 0)
(-0.179343 0.0637497 0)
(-0.180589 0.0485695 0)
(-0.181726 0.0333568 0)
(-0.182797 0.0181225 0)
(-0.183778 0.00287512 0)
(-0.184708 -0.0123768 0)
(-0.185576 -0.0276273 0)
(-0.186421 -0.0428727 0)
(-0.187239 -0.0581138 0)
(-0.188066 -0.0733528 0)
(-0.188903 -0.0886001 0)
(-0.189781 -0.103862 0)
(-0.190694 -0.119157 0)
(-0.191665 -0.134488 0)
(-0.192678 -0.149879 0)
(-0.193741 -0.165319 0)
(-0.194838 -0.180839 0)
(-0.195994 -0.196431 0)
(-0.197255 -0.212203 0)
(-0.198783 -0.228287 0)
(-0.20086 -0.245134 0)
(-0.203947 -0.263349 0)
(-0.208562 -0.283957 0)