/*--------------------------------*- C++ -*----------------------------------*\
| =========                 |                                                 |
| \\      /  F ield         | OpenFOAM: The Open Source CFD Toolbox           |
|  \\    /   O peration     | Version:  2406                                  |
|   \\  /    A nd           | Website:  www.openfoam.com                      |
|    \\/     M anipulation  |                                                 |
\*---------------------------------------------------------------------------*/
FoamFile
{
    version     2.0;
    format      ascii;
    arch        "LSB;label=32;scalar=64";
    class       volVectorField;
    location    "32.45";
    object      Uold;
}
// * * * * * * * * * * * * * * * * * * * * * * * * * * * * * * * * * * * * * //

dimensions      [0 1 -1 0 0 0 0];

internalField   nonuniform List<vector> 
3600
(
(-2.70629e-05 1.51852e-05 0)
(0.00035469 -0.000181809 0)
(0.00115358 -0.000293025 0)
(0.00207355 -0.000314157 0)
(0.00294619 -0.000253989 0)
(0.00356321 -0.000168396 0)
(0.00394985 -8.71101e-05 0)
(0.00408662 -3.51087e-05 0)
(0.00409573 -1.45176e-05 0)
(0.00400319 -1.7817e-05 0)
(0.00388042 -2.93066e-05 0)
(0.00369071 -3.3009e-05 0)
(0.00341068 -1.75107e-05 0)
(0.00294768 2.33536e-05 0)
(0.00223273 9.03265e-05 0)
(0.00116698 0.000183406 0)
(-0.000323607 0.000302308 0)
(-0.00232653 0.00044776 0)
(-0.00490761 0.000615932 0)
(-0.00813144 0.000798069 0)
(-0.0120339 0.000984371 0)
(-0.0166247 0.00117341 0)
(-0.021859 0.00137059 0)
(-0.0276318 0.00157815 0)
(-0.0337625 0.00178069 0)
(-0.0399999 0.00194253 0)
(-0.0460279 0.0020154 0)
(-0.0514876 0.00195382 0)
(-0.0560046 0.00172617 0)
(-0.0592185 0.00132143 0)
(-0.0608125 0.000748823 0)
(-0.0605356 3.66867e-05 0)
(-0.0582274 -0.00077139 0)
(-0.0538312 -0.00161844 0)
(-0.0474163 -0.00243813 0)
(-0.0391814 -0.00315767 0)
(-0.0294706 -0.00370434 0)
(-0.0187548 -0.00401229 0)
(-0.00762893 -0.00403292 0)
(0.0032474 -0.00374509 0)
(0.0131827 -0.00316468 0)
(0.0215573 -0.00234972 0)
(0.0278687 -0.00139683 0)
(0.0318439 -0.000429223 0)
(0.033438 0.000428604 0)
(0.0328901 0.00107657 0)
(0.0306164 0.00146671 0)
(0.0271902 0.00160771 0)
(0.0231574 0.00155694 0)
(0.0190316 0.00138789 0)
(0.0151341 0.00116952 0)
(0.0117033 0.000945969 0)
(0.00877854 0.00074569 0)
(0.00639859 0.00057653 0)
(0.00445416 0.000447058 0)
(0.00292409 0.000345577 0)
(0.00167964 0.000269993 0)
(0.000750432 0.000175006 0)
(0.00013015 6.0093e-05 0)
(-8.24791e-05 -9.09259e-05 0)
(0.00014645 -0.000336073 0)
(0.00119237 -0.00122549 0)
(0.00293414 -0.00168674 0)
(0.00480048 -0.00172624 0)
(0.00651625 -0.00140368 0)
(0.00770866 -0.000924114 0)
(0.00837564 -0.000432896 0)
(0.00845656 -3.52569e-05 0)
(0.00810563 0.00024334 0)
(0.00734143 0.00043937 0)
(0.00623219 0.000621468 0)
(0.00467772 0.000871868 0)
(0.00257349 0.00124859 0)
(-0.000293549 0.00178939 0)
(-0.00411177 0.002501 0)
(-0.00910299 0.00338107 0)
(-0.015436 0.00441145 0)
(-0.0232601 0.00556941 0)
(-0.0326368 0.00681814 0)
(-0.0435335 0.00811291 0)
(-0.0557587 0.00938387 0)
(-0.0689657 0.0105314 0)
(-0.0826578 0.0114244 0)
(-0.0962478 0.0119279 0)
(-0.109113 0.0119255 0)
(-0.120662 0.0113411 0)
(-0.130375 0.0101418 0)
(-0.137826 0.00834021 0)
(-0.142692 0.00598509 0)
(-0.144745 0.00315809 0)
(-0.143844 -3.55183e-05 0)
(-0.139927 -0.00346708 0)
(-0.133017 -0.00698982 0)
(-0.123214 -0.0104361 0)
(-0.110718 -0.0136229 0)
(-0.0958244 -0.0163522 0)
(-0.0789508 -0.0184255 0)
(-0.0606258 -0.0196554 0)
(-0.0415056 -0.0198931 0)
(-0.0223306 -0.0190521 0)
(-0.00391999 -0.0171398 0)
(0.0129219 -0.0142741 0)
(0.0274273 -0.0106901 0)
(0.0389979 -0.00672139 0)
(0.0472055 -0.00275607 0)
(0.0519227 0.000820549 0)
(0.0532563 0.0036988 0)
(0.0516413 0.00569309 0)
(0.0476713 0.00677675 0)
(0.0421422 0.00705919 0)
(0.0357789 0.00674686 0)
(0.0293002 0.00606556 0)
(0.0231372 0.00522366 0)
(0.0176502 0.00436169 0)
(0.0128808 0.00358284 0)
(0.00891904 0.00290069 0)
(0.00561546 0.00232066 0)
(0.00304511 0.00170484 0)
(0.0011364 0.00102464 0)
(0.000116217 0.000160909 0)
(0.000263185 -0.00110913 0)
(0.00173165 -0.00300047 0)
(0.00403166 -0.00391348 0)
(0.0063359 -0.00387513 0)
(0.00832089 -0.00308467 0)
(0.00952504 -0.00192151 0)
(0.00993874 -0.000702814 0)
(0.00946518 0.000373911 0)
(0.008234 0.00125071 0)
(0.00620606 0.00201711 0)
(0.00337262 0.00282222 0)
(-0.000469368 0.00384975 0)
(-0.00553561 0.00522494 0)
(-0.0121427 0.00702603 0)
(-0.0205571 0.00925405 0)
(-0.0310309 0.0118748 0)
(-0.0436843 0.0148008 0)
(-0.0584899 0.0179081 0)
(-0.0751717 0.0210003 0)
(-0.0932229 0.0238197 0)
(-0.111937 0.0260677 0)
(-0.130533 0.0274793 0)
(-0.148247 0.0278645 0)
(-0.164433 0.027136 0)
(-0.178585 0.0252902 0)
(-0.190343 0.0223908 0)
(-0.19947 0.0185373 0)
(-0.20582 0.0138557 0)
(-0.209308 0.00848159 0)
(-0.209891 0.00256405 0)
(-0.20755 -0.00373944 0)
(-0.202285 -0.0102519 0)
(-0.19412 -0.016777 0)
(-0.183108 -0.0230858 0)
(-0.169359 -0.0289206 0)
(-0.153044 -0.0339893 0)
(-0.134438 -0.0379843 0)
(-0.113922 -0.0405963 0)
(-0.0920192 -0.0415579 0)
(-0.0693696 -0.0406789 0)
(-0.0467409 -0.0379034 0)
(-0.0249488 -0.0333394 0)
(-0.00483979 -0.0272854 0)
(0.0128393 -0.0202073 0)
(0.0274455 -0.0126929 0)
(0.0385761 -0.00537186 0)
(0.0460065 0.00117301 0)
(0.0498171 0.00648119 0)
(0.0502659 0.0102798 0)
(0.0479194 0.0125068 0)
(0.0434267 0.0133104 0)
(0.0376239 0.0129895 0)
(0.0311842 0.011924 0)
(0.0247893 0.0104691 0)
(0.0187579 0.00892203 0)
(0.0134301 0.00742935 0)
(0.00877505 0.00605035 0)
(0.00500489 0.0046108 0)
(0.00203435 0.00299254 0)
(0.000308022 0.000941885 0)
(0.000339253 -0.00207939 0)
(0.00205037 -0.0050637 0)
(0.00456965 -0.00633358 0)
(0.00685879 -0.00600486 0)
(0.00857814 -0.00451559 0)
(0.00923538 -0.00242592 0)
(0.00883595 -0.000229231 0)
(0.00724908 0.00181997 0)
(0.00454075 0.00365901 0)
(0.0005623 0.00546395 0)
(-0.00483123 0.00747976 0)
(-0.0119769 0.00999047 0)
(-0.0211946 0.0131617 0)
(-0.0328339 0.017064 0)
(-0.0470952 0.0216212 0)
(-0.0640123 0.0266653 0)
(-0.0833108 0.031889 0)
(-0.104421 0.0368829 0)
(-0.12651 0.0411643 0)
(-0.148662 0.0443072 0)
(-0.170019 0.0460093 0)
(-0.189902 0.0461386 0)
(-0.207832 0.0446931 0)
(-0.223511 0.0417705 0)
(-0.236774 0.0375115 0)
(-0.247543 0.0320808 0)
(-0.255788 0.0256376 0)
(-0.261497 0.0183391 0)
(-0.264662 0.01033 0)
(-0.265266 0.00175844 0)
(-0.263279 -0.00722444 0)
(-0.258652 -0.0164433 0)
(-0.251338 -0.0256948 0)
(-0.241283 -0.0347256 0)
(-0.228464 -0.0432324 0)
(-0.212895 -0.0508499 0)
(-0.194676 -0.0571697 0)
(-0.174006 -0.061754 0)
(-0.15124 -0.0641908 0)
(-0.126887 -0.0641423 0)
(-0.101646 -0.0614296 0)
(-0.0763417 -0.0560858 0)
(-0.051907 -0.0484097 0)
(-0.0292395 -0.038947 0)
(-0.00915793 -0.0284404 0)
(0.00775551 -0.0177161 0)
(0.0211051 -0.00757338 0)
(0.0307826 0.00131343 0)
(0.0368123 0.00845598 0)
(0.039487 0.0135856 0)
(0.0391841 0.0166715 0)
(0.0365568 0.0179111 0)
(0.0322244 0.0176818 0)
(0.0269753 0.016448 0)
(0.021316 0.0146675 0)
(0.0158395 0.0126665 0)
(0.0107025 0.0106103 0)
(0.00632131 0.00837206 0)
(0.0026783 0.00570899 0)
(0.000450519 0.0021749 0)
(0.000385484 -0.00323652 0)
(0.00218573 -0.00734178 0)
(0.0046398 -0.00879567 0)
(0.00654114 -0.00788654 0)
(0.00754226 -0.00539303 0)
(0.00715767 -0.00206934 0)
(0.00541016 0.00141725 0)
(0.00213382 0.00480624 0)
(-0.00270253 0.00807412 0)
(-0.00938559 0.011525 0)
(-0.0182142 0.0155023 0)
(-0.0296213 0.0203554 0)
(-0.0439244 0.0262074 0)
(-0.0613028 0.0329973 0)
(-0.0815995 0.040398 0)
(-0.104307 0.0479057 0)
(-0.128561 0.0548567 0)
(-0.153337 0.0606141 0)
(-0.177639 0.0646726 0)
(-0.200682 0.0667641 0)
(-0.221921 0.0668128 0)
(-0.241039 0.0649045 0)
(-0.257878 0.0612005 0)
(-0.272385 0.05591 0)
(-0.284565 0.0492378 0)
(-0.294455 0.0413837 0)
(-0.302099 0.0325178 0)
(-0.307537 0.0227964 0)
(-0.310796 0.0123522 0)
(-0.31188 0.00131743 0)
(-0.310766 -0.0101766 0)
(-0.307396 -0.021972 0)
(-0.301683 -0.0338791 0)
(-0.293502 -0.0456464 0)
(-0.282716 -0.0569559 0)
(-0.269176 -0.0673995 0)
(-0.252776 -0.0764917 0)
(-0.233468 -0.0836739 0)
(-0.211349 -0.0883711 0)
(-0.186689 -0.0900477 0)
(-0.160012 -0.0883192 0)
(-0.132082 -0.0830414 0)
(-0.103914 -0.0744163 0)
(-0.0766334 -0.0630089 0)
(-0.0513748 -0.049715 0)
(-0.0290488 -0.0356072 0)
(-0.0102919 -0.0217658 0)
(0.00465562 -0.00910702 0)
(0.0157625 0.00168837 0)
(0.0232511 0.0101986 0)
(0.0273693 0.0162386 0)
(0.0285945 0.0198713 0)
(0.0273842 0.0213729 0)
(0.0244504 0.0212027 0)
(0.02032 0.0198781 0)
(0.0157134 0.0178688 0)
(0.01094 0.0154387 0)
(0.00661025 0.0125529 0)
(0.00283718 0.00883715 0)
(0.000482222 0.00365091 0)
(0.000418401 -0.00441675 0)
(0.00215752 -0.00947089 0)
(0.00422998 -0.0107836 0)
(0.00533788 -0.00891163 0)
(0.00515069 -0.00506605 0)
(0.00323387 -0.00019093 0)
(-0.000389521 0.00491042 0)
(-0.00593675 0.0100465 0)
(-0.0135767 0.0152872 0)
(-0.0237355 0.0210808 0)
(-0.036816 0.0278132 0)
(-0.0531954 0.0357729 0)
(-0.072944 0.0448544 0)
(-0.095762 0.0546492 0)
(-0.120892 0.0644084 0)
(-0.147272 0.0732915 0)
(-0.173749 0.080507 0)
(-0.19933 0.0855352 0)
(-0.223295 0.0881193 0)
(-0.245196 0.0882614 0)
(-0.264805 0.0861024 0)
(-0.282039 0.0818831 0)
(-0.296916 0.0758605 0)
(-0.309505 0.0683016 0)
(-0.319919 0.0594387 0)
(-0.328277 0.0494836 0)
(-0.334713 0.0386031 0)
(-0.33934 0.0269414 0)
(-0.342263 0.014607 0)
(-0.343544 0.00170106 0)
(-0.343213 -0.0116876 0)
(-0.341238 -0.0254483 0)
(-0.337537 -0.039445 0)
(-0.331949 -0.0534765 0)
(-0.324255 -0.0672677 0)
(-0.314164 -0.0804307 0)
(-0.301356 -0.0924645 0)
(-0.285498 -0.10274 0)
(-0.266333 -0.11054 0)
(-0.24374 -0.11511 0)
(-0.217866 -0.115775 0)
(-0.189188 -0.112067 0)
(-0.158599 -0.103896 0)
(-0.127351 -0.0916483 0)
(-0.0969541 -0.0762432 0)
(-0.0688773 -0.0589933 0)
(-0.0443244 -0.0413783 0)
(-0.023942 -0.0247254 0)
(-0.00790407 -0.0100223 0)
(0.00404684 0.00214843 0)
(0.0122379 0.0115083 0)
(0.0171487 0.0180439 0)
(0.0191671 0.0219282 0)
(0.0189058 0.0235552 0)
(0.0168347 0.023407 0)
(0.0136863 0.0220147 0)
(0.0098584 0.0196874 0)
(0.00608699 0.0164707 0)
(0.00263098 0.0118701 0)
(0.00044071 0.00508992 0)
(0.000429779 -0.00562635 0)
(0.00192455 -0.01133 0)
(0.00327691 -0.0120755 0)
(0.00319929 -0.0088056 0)
(0.00139819 -0.00322813 0)
(-0.00248101 0.00355484 0)
(-0.00845366 0.0106654 0)
(-0.0168043 0.0180558 0)
(-0.02785 0.0259158 0)
(-0.0420778 0.0347887 0)
(-0.0598302 0.0449541 0)
(-0.0811652 0.0564199 0)
(-0.105641 0.0686258 0)
(-0.132343 0.0807029 0)
(-0.160051 0.0915853 0)
(-0.18753 0.100399 0)
(-0.213774 0.106548 0)
(-0.238085 0.109815 0)
(-0.260056 0.110221 0)
(-0.279491 0.10798 0)
(-0.296353 0.103375 0)
(-0.310702 0.096743 0)
(-0.322684 0.0884023 0)
(-0.332481 0.078662 0)
(-0.340317 0.0677772 0)
(-0.346416 0.0559705 0)
(-0.351001 0.0434026 0)
(-0.35427 0.0302014 0)
(-0.356395 0.0164446 0)
(-0.357499 0.00219384 0)
(-0.357665 -0.012514 0)
(-0.356909 -0.0276292 0)
(-0.355183 -0.0430889 0)
(-0.352348 -0.0587732 0)
(-0.348176 -0.0744952 0)
(-0.342319 -0.0899502 0)
(-0.334331 -0.104702 0)
(-0.323658 -0.118141 0)
(-0.309709 -0.129499 0)
(-0.291916 -0.13786 0)
(-0.269883 -0.142262 0)
(-0.243525 -0.141825 0)
(-0.213255 -0.135965 0)
(-0.180067 -0.1246 0)
(-0.145574 -0.108344 0)
(-0.111769 -0.0885214 0)
(-0.0806962 -0.0669947 0)
(-0.0539131 -0.0457307 0)
(-0.0322217 -0.0263619 0)
(-0.0155625 -0.00987919 0)
(-0.00346099 0.00328662 0)
(0.00478035 0.0131223 0)
(0.0096998 0.0197939 0)
(0.0119358 0.0236781 0)
(0.0119444 0.0252043 0)
(0.0104294 0.0249084 0)
(0.00783207 0.0230889 0)
(0.00493721 0.0198313 0)
(0.00212612 0.0145476 0)
(0.000336722 0.00634857 0)
(0.000401199 -0.00666927 0)
(0.00140633 -0.0125049 0)
(0.00164726 -0.0121493 0)
(-1.83576e-05 -0.0070188 0)
(-0.00383871 0.000669133 0)
(-0.0100704 0.00972218 0)
(-0.018816 0.0192689 0)
(-0.0304207 0.0294533 0)
(-0.0452999 0.0405432 0)
(-0.0638273 0.0530205 0)
(-0.0860433 0.0668217 0)
(-0.11145 0.0814548 0)
(-0.139032 0.095841 0)
(-0.167449 0.108817 0)
(-0.195395 0.119322 0)
(-0.221803 0.126734 0)
(-0.245964 0.130783 0)
(-0.267451 0.131544 0)
(-0.286086 0.129255 0)
(-0.30185 0.124294 0)
(-0.314874 0.117061 0)
(-0.32537 0.107982 0)
(-0.333633 0.0974349 0)
(-0.339971 0.0857636 0)
(-0.344717 0.0732313 0)
(-0.348168 0.0600515 0)
(-0.350606 0.0463581 0)
(-0.352262 0.0322452 0)
(-0.353336 0.0177474 0)
(-0.353974 0.00288027 0)
(-0.354291 -0.0123736 0)
(-0.354341 -0.028026 0)
(-0.354133 -0.0440902 0)
(-0.353593 -0.0605382 0)
(-0.352566 -0.0772961 0)
(-0.350762 -0.0941901 0)
(-0.347758 -0.110925 0)
(-0.342949 -0.127019 0)
(-0.335573 -0.141789 0)
(-0.324733 -0.154306 0)
(-0.309515 -0.163447 0)
(-0.289137 -0.167974 0)
(-0.26321 -0.166735 0)
(-0.231966 -0.158925 0)
(-0.196507 -0.144421 0)
(-0.158809 -0.124031 0)
(-0.121534 -0.099574 0)
(-0.0874115 -0.0735734 0)
(-0.058563 -0.0486411 0)
(-0.0358677 -0.0267197 0)
(-0.0190943 -0.00879172 0)
(-0.00731154 0.00502074 0)
(0.000391847 0.0149608 0)
(0.00490021 0.0215041 0)
(0.00680957 0.0250969 0)
(0.00684984 0.0262805 0)
(0.00551377 0.0253214 0)
(0.00358751 0.0223053 0)
(0.00154079 0.016591 0)
(0.000224306 0.00727239 0)
(0.000313078 -0.00745512 0)
(0.000542944 -0.0127582 0)
(-0.000715967 -0.0107287 0)
(-0.00431491 -0.00330224 0)
(-0.0104745 0.00685335 0)
(-0.0193481 0.0185476 0)
(-0.0311632 0.0309854 0)
(-0.0462641 0.0444793 0)
(-0.0650341 0.0592328 0)
(-0.0875019 0.0754278 0)
(-0.113218 0.0924461 0)
(-0.141093 0.109251 0)
(-0.169751 0.124433 0)
(-0.197758 0.136849 0)
(-0.224003 0.145702 0)
(-0.247684 0.150721 0)
(-0.268369 0.151941 0)
(-0.285851 0.149686 0)
(-0.300172 0.144383 0)
(-0.31151 0.136561 0)
(-0.320194 0.12673 0)
(-0.326597 0.115386 0)
(-0.331147 0.102935 0)
(-0.33423 0.0897208 0)
(-0.336222 0.0759781 0)
(-0.337423 0.0618825 0)
(-0.338103 0.0475218 0)
(-0.338457 0.0329468 0)
(-0.338662 0.0181505 0)
(-0.338835 0.00311254 0)
(-0.339089 -0.0122208 0)
(-0.339488 -0.0278987 0)
(-0.34009 -0.0439825 0)
(-0.340895 -0.0605092 0)
(-0.341861 -0.0774976 0)
(-0.34284 -0.0949008 0)
(-0.343569 -0.11259 0)
(-0.343587 -0.130287 0)
(-0.342219 -0.147514 0)
(-0.338523 -0.163525 0)
(-0.331338 -0.177266 0)
(-0.319359 -0.18738 0)
(-0.301381 -0.192316 0)
(-0.27658 -0.190551 0)
(-0.244941 -0.180965 0)
(-0.207569 -0.163288 0)
(-0.166869 -0.138525 0)
(-0.126234 -0.109067 0)
(-0.089302 -0.0783127 0)
(-0.0587713 -0.0496395 0)
(-0.0356547 -0.0253826 0)
(-0.0192984 -0.00633217 0)
(-0.00839951 0.00770779 0)
(-0.00159828 0.0174276 0)
(0.00206997 0.0234409 0)
(0.00350707 0.0263821 0)
(0.00332295 0.0265286 0)
(0.00230915 0.0239639 0)
(0.000996449 0.018047 0)
(0.000125443 0.00791156 0)
(0.000139485 -0.00770305 0)
(-0.000729108 -0.0116282 0)
(-0.00385898 -0.00734493 0)
(-0.00967522 0.00276128 0)
(-0.0184119 0.0157043 0)
(-0.0301102 0.0303845 0)
(-0.0451225 0.0461051 0)
(-0.0636671 0.0632273 0)
(-0.0859244 0.0816733 0)
(-0.111399 0.101109 0)
(-0.139139 0.120313 0)
(-0.167641 0.13788 0)
(-0.195468 0.152373 0)
(-0.22133 0.162916 0)
(-0.244406 0.169075 0)
(-0.264151 0.170923 0)
(-0.280405 0.168778 0)
(-0.293202 0.163204 0)
(-0.302843 0.154812 0)
(-0.309716 0.14427 0)
(-0.314337 0.132158 0)
(-0.317186 0.118998 0)
(-0.318748 0.105169 0)
(-0.319406 0.0909669 0)
(-0.319503 0.076561 0)
(-0.319271 0.0620637 0)
(-0.318912 0.0475031 0)
(-0.318545 0.0328844 0)
(-0.318287 0.0181643 0)
(-0.318202 0.00329907 0)
(-0.318372 -0.0117829 0)
(-0.31885 -0.0271438 0)
(-0.319712 -0.042863 0)
(-0.321004 -0.0590054 0)
(-0.322778 -0.0756403 0)
(-0.325025 -0.0928063 0)
(-0.327677 -0.110509 0)
(-0.330518 -0.128665 0)
(-0.333144 -0.147056 0)
(-0.33486 -0.165235 0)
(-0.334637 -0.182445 0)
(-0.33108 -0.197521 0)
(-0.322536 -0.208878 0)
(-0.307307 -0.214589 0)
(-0.284084 -0.212667 0)
(-0.252463 -0.201535 0)
(-0.213512 -0.180686 0)
(-0.170036 -0.151295 0)
(-0.12632 -0.116498 0)
(-0.0869932 -0.080777 0)
(-0.0554406 -0.048514 0)
(-0.0325635 -0.022295 0)
(-0.0172364 -0.00266272 0)
(-0.00757315 0.0111829 0)
(-0.00200126 0.0201802 0)
(0.000772316 0.025226 0)
(0.00160414 0.0267282 0)
(0.00135694 0.0248226 0)
(0.000624537 0.0189349 0)
(7.02137e-05 0.00828531 0)
(-0.000128973 -0.00723892 0)
(-0.00239276 -0.00886929 0)
(-0.00767334 -0.00182099 0)
(-0.0158692 0.0112558 0)
(-0.0272823 0.0272424 0)
(-0.0418161 0.0451799 0)
(-0.0598997 0.0644182 0)
(-0.0814658 0.0851692 0)
(-0.106357 0.106869 0)
(-0.133514 0.128582 0)
(-0.161639 0.14863 0)
(-0.189069 0.165515 0)
(-0.214537 0.178029 0)
(-0.236992 0.185676 0)
(-0.255929 0.188399 0)
(-0.271076 0.18661 0)
(-0.282587 0.180909 0)
(-0.290763 0.172091 0)
(-0.296162 0.160919 0)
(-0.299333 0.148137 0)
(-0.300895 0.134327 0)
(-0.301334 0.119963 0)
(-0.301104 0.10534 0)
(-0.300499 0.0906669 0)
(-0.299769 0.0760248 0)
(-0.29904 0.0614561 0)
(-0.298421 0.0469341 0)
(-0.297948 0.0324299 0)
(-0.297672 0.0178794 0)
(-0.297602 0.00323316 0)
(-0.297788 -0.0115786 0)
(-0.298257 -0.0266094 0)
(-0.29908 -0.0419297 0)
(-0.300319 -0.0575986 0)
(-0.30207 -0.0736924 0)
(-0.304408 -0.0902786 0)
(-0.307406 -0.107431 0)
(-0.311058 -0.125191 0)
(-0.31526 -0.143549 0)
(-0.31968 -0.162358 0)
(-0.323693 -0.18125 0)
(-0.326237 -0.199488 0)
(-0.325778 -0.215841 0)
(-0.320336 -0.228492 0)
(-0.307753 -0.235108 0)
(-0.286154 -0.23313 0)
(-0.254692 -0.220408 0)
(-0.214313 -0.196084 0)
(-0.168285 -0.161574 0)
(-0.12188 -0.120955 0)
(-0.0808923 -0.0801903 0)
(-0.0492379 -0.0447023 0)
(-0.0274853 -0.0172572 0)
(-0.013726 0.00231951 0)
(-0.00566665 0.0152717 0)
(-0.00138369 0.02297 0)
(0.000413402 0.026151 0)
(0.000791589 0.0251329 0)
(0.000449808 0.0194918 0)
(5.93698e-05 0.00855461 0)
(-0.000501633 -0.00576039 0)
(-0.00441752 -0.00411935 0)
(-0.0120296 0.00611769 0)
(-0.0226542 0.0223651 0)
(-0.0367057 0.0415729 0)
(-0.0538986 0.0629051 0)
(-0.0746572 0.0856375 0)
(-0.0984939 0.109619 0)
(-0.124881 0.133694 0)
(-0.152292 0.156407 0)
(-0.179315 0.175878 0)
(-0.204333 0.190775 0)
(-0.226375 0.200263 0)
(-0.244665 0.204268 0)
(-0.259051 0.203119 0)
(-0.269563 0.19757 0)
(-0.276689 0.188493 0)
(-0.280961 0.176858 0)
(-0.283118 0.163506 0)
(-0.283762 0.149167 0)
(-0.283504 0.134345 0)
(-0.282743 0.119404 0)
(-0.281829 0.104523 0)
(-0.280924 0.0898069 0)
(-0.280172 0.0752514 0)
(-0.279588 0.0608397 0)
(-0.27921 0.046506 0)
(-0.279003 0.0322024 0)
(-0.278976 0.0178589 0)
(-0.279101 0.00343124 0)
(-0.279402 -0.0111388 0)
(-0.279885 -0.0258878 0)
(-0.280609 -0.0408671 0)
(-0.281624 -0.0561164 0)
(-0.283036 -0.0716953 0)
(-0.284941 -0.0876648 0)
(-0.287475 -0.104111 0)
(-0.290748 -0.121125 0)
(-0.29485 -0.138804 0)
(-0.299752 -0.157207 0)
(-0.305245 -0.176283 0)
(-0.310774 -0.195751 0)
(-0.31532 -0.214928 0)
(-0.317247 -0.232524 0)
(-0.314327 -0.246489 0)
(-0.303941 -0.254022 0)
(-0.283664 -0.251903 0)
(-0.252156 -0.237268 0)
(-0.210266 -0.208886 0)
(-0.161802 -0.168512 0)
(-0.113236 -0.121625 0)
(-0.0715775 -0.0759889 0)
(-0.0410249 -0.0381871 0)
(-0.0212646 -0.0104853 0)
(-0.00958496 0.00804304 0)
(-0.00326213 0.0193614 0)
(-0.00036075 0.0247724 0)
(0.000582899 0.0249852 0)
(0.000467564 0.0198378 0)
(9.33061e-05 0.00879432 0)
(-0.000955645 -0.00312425 0)
(-0.00666761 0.00269891 0)
(-0.0166389 0.0164078 0)
(-0.0295908 0.0359009 0)
(-0.0460751 0.0583746 0)
(-0.0655483 0.0830309 0)
(-0.0883474 0.108926 0)
(-0.113498 0.135389 0)
(-0.140173 0.160707 0)
(-0.166551 0.183091 0)
(-0.191316 0.200723 0)
(-0.213027 0.21261 0)
(-0.231074 0.218367 0)
(-0.244985 0.218359 0)
(-0.254992 0.213311 0)
(-0.261425 0.204294 0)
(-0.265053 0.192385 0)
(-0.266544 0.178639 0)
(-0.266697 0.163863 0)
(-0.266049 0.148686 0)
(-0.265119 0.133472 0)
(-0.264154 0.118445 0)
(-0.263378 0.103661 0)
(-0.26282 0.0891299 0)
(-0.262531 0.0747848 0)
(-0.262446 0.0605713 0)
(-0.262557 0.0464064 0)
(-0.262787 0.0322398 0)
(-0.263129 0.0180086 0)
(-0.263531 0.00368177 0)
(-0.264008 -0.0107815 0)
(-0.264548 -0.025398 0)
(-0.265198 -0.0401963 0)
(-0.265989 -0.0551919 0)
(-0.267012 -0.070418 0)
(-0.268351 -0.0859107 0)
(-0.270148 -0.101735 0)
(-0.272544 -0.117979 0)
(-0.275718 -0.134768 0)
(-0.27981 -0.152249 0)
(-0.284901 -0.170563 0)
(-0.290872 -0.189765 0)
(-0.297278 -0.209675 0)
(-0.303133 -0.229668 0)
(-0.306746 -0.24839 0)
(-0.305648 -0.263522 0)
(-0.296806 -0.271724 0)
(-0.277248 -0.268991 0)
(-0.245188 -0.251673 0)
(-0.201466 -0.218156 0)
(-0.150658 -0.170928 0)
(-0.10069 -0.117391 0)
(-0.0597618 -0.0676982 0)
(-0.031694 -0.0289476 0)
(-0.0147625 -0.00246674 0)
(-0.0054677 0.0140046 0)
(-0.00105469 0.0225423 0)
(0.000553931 0.0245101 0)
(0.000599672 0.0201599 0)
(0.000154463 0.00913771 0)
(-0.00146926 0.000858296 0)
(-0.0090215 0.0117078 0)
(-0.0212547 0.0290539 0)
(-0.0363131 0.0517686 0)
(-0.054879 0.0774232 0)
(-0.0760879 0.105122 0)
(-0.10014 0.133574 0)
(-0.125594 0.161532 0)
(-0.151462 0.186867 0)
(-0.175803 0.207687 0)
(-0.19755 0.222453 0)
(-0.215509 0.230611 0)
(-0.229467 0.232269 0)
(-0.239274 0.228236 0)
(-0.245534 0.219612 0)
(-0.248811 0.207711 0)
(-0.25005 0.19371 0)
(-0.249922 0.178623 0)
(-0.249179 0.163138 0)
(-0.248211 0.147719 0)
(-0.247396 0.132565 0)
(-0.24682 0.117763 0)
(-0.246595 0.103266 0)
(-0.246646 0.0890175 0)
(-0.246969 0.074915 0)
(-0.247452 0.0608895 0)
(-0.248072 0.046858 0)
(-0.248737 0.0327782 0)
(-0.249438 0.0185999 0)
(-0.250117 0.00430631 0)
(-0.25079 -0.0101278 0)
(-0.251434 -0.0247036 0)
(-0.252087 -0.0394318 0)
(-0.252761 -0.0543093 0)
(-0.253526 -0.0693458 0)
(-0.254435 -0.0845513 0)
(-0.255605 -0.0999586 0)
(-0.257153 -0.115625 0)
(-0.259265 -0.131651 0)
(-0.262131 -0.148191 0)
(-0.265972 -0.165447 0)
(-0.27094 -0.183652 0)
(-0.277032 -0.202967 0)
(-0.283886 -0.223325 0)
(-0.290557 -0.244138 0)
(-0.295272 -0.263947 0)
(-0.295314 -0.280075 0)
(-0.287235 -0.288511 0)
(-0.267551 -0.284343 0)
(-0.234147 -0.263042 0)
(-0.188079 -0.22287 0)
(-0.135095 -0.167578 0)
(-0.0848735 -0.107574 0)
(-0.0464964 -0.0553604 0)
(-0.022289 -0.0178193 0)
(-0.00873282 0.0060156 0)
(-0.00209954 0.0190491 0)
(0.00047453 0.0235773 0)
(0.000753718 0.0204504 0)
(0.00022676 0.00959828 0)
(-0.00198633 0.00616467 0)
(-0.0112704 0.0227185 0)
(-0.0255191 0.0437163 0)
(-0.0423366 0.0694868 0)
(-0.0625082 0.098055 0)
(-0.0848065 0.12829 0)
(-0.10929 0.158489 0)
(-0.134131 0.186867 0)
(-0.158334 0.211079 0)
(-0.179986 0.22934 0)
(-0.198357 0.240538 0)
(-0.21254 0.244611 0)
(-0.222732 0.242181 0)
(-0.229081 0.234472 0)
(-0.2325 0.222891 0)
(-0.233673 0.208871 0)
(-0.233598 0.193566 0)
(-0.232841 0.177852 0)
(-0.232032 0.162231 0)
(-0.231377 0.146978 0)
(-0.231118 0.132141 0)
(-0.231202 0.117692 0)
(-0.231665 0.103517 0)
(-0.232365 0.0895239 0)
(-0.23328 0.0755998 0)
(-0.234276 0.0616787 0)
(-0.235337 0.0476897 0)
(-0.236367 0.0336042 0)
(-0.23737 0.0193875 0)
(-0.238287 0.00503637 0)
(-0.239139 -0.00946013 0)
(-0.239897 -0.0240914 0)
(-0.240599 -0.0388545 0)
(-0.241238 -0.0537336 0)
(-0.24187 -0.0687207 0)
(-0.242518 -0.0838065 0)
(-0.243267 -0.0989943 0)
(-0.244192 -0.114308 0)
(-0.245439 -0.129801 0)
(-0.247172 -0.14559 0)
(-0.249632 -0.161851 0)
(-0.253076 -0.178859 0)
(-0.257753 -0.19693 0)
(-0.263751 -0.216363 0)
(-0.270794 -0.237189 0)
(-0.27795 -0.258847 0)
(-0.283307 -0.279682 0)
(-0.283858 -0.29651 0)
(-0.275676 -0.304456 0)
(-0.254849 -0.297505 0)
(-0.219093 -0.270326 0)
(-0.170158 -0.221434 0)
(-0.115476 -0.157114 0)
(-0.0668259 -0.0916908 0)
(-0.0331301 -0.0398239 0)
(-0.0137774 -0.00567466 0)
(-0.00395346 0.0137349 0)
(8.96767e-05 0.021975 0)
(0.000820724 0.0206726 0)
(0.000289394 0.0101982 0)
(-0.00246865 0.0127691 0)
(-0.0132787 0.035588 0)
(-0.0292049 0.0601675 0)
(-0.0473597 0.0887503 0)
(-0.0685894 0.119851 0)
(-0.0913032 0.151984 0)
(-0.115451 0.183039 0)
(-0.13894 0.210799 0)
(-0.160896 0.232922 0)
(-0.179539 0.247892 0)
(-0.194525 0.255123 0)
(-0.205235 0.255068 0)
(-0.212258 0.24885 0)
(-0.215976 0.238038 0)
(-0.217505 0.22423 0)
(-0.217527 0.208849 0)
(-0.216988 0.192919 0)
(-0.216283 0.177108 0)
(-0.215892 0.161717 0)
(-0.215845 0.146843 0)
(-0.216277 0.132413 0)
(-0.217039 0.118324 0)
(-0.21813 0.10443 0)
(-0.219376 0.0906279 0)
(-0.22076 0.0768135 0)
(-0.222147 0.0629326 0)
(-0.223536 0.0489315 0)
(-0.224837 0.0347949 0)
(-0.226066 0.0205027 0)
(-0.227168 0.00606139 0)
(-0.228172 -0.00852915 0)
(-0.229045 -0.0232516 0)
(-0.229824 -0.0380942 0)
(-0.230496 -0.0530353 0)
(-0.231104 -0.0680562 0)
(-0.231652 -0.0831374 0)
(-0.232197 -0.0982621 0)
(-0.232775 -0.113429 0)
(-0.233483 -0.128651 0)
(-0.234429 -0.143992 0)
(-0.235805 -0.159565 0)
(-0.237852 -0.175595 0)
(-0.240888 -0.192404 0)
(-0.245232 -0.210434 0)
(-0.251065 -0.230091 0)
(-0.258183 -0.251532 0)
(-0.265601 -0.274146 0)
(-0.271229 -0.295964 0)
(-0.271619 -0.313061 0)
(-0.262379 -0.319397 0)
(-0.23917 -0.307716 0)
(-0.199978 -0.271989 0)
(-0.147802 -0.212123 0)
(-0.0926357 -0.138446 0)
(-0.0481701 -0.0706378 0)
(-0.0211047 -0.0224829 0)
(-0.00698478 0.00574382 0)
(-0.000790115 0.0192462 0)
(0.000725807 0.0206077 0)
(0.000330693 0.0108544 0)
(-0.00285433 0.0204349 0)
(-0.0148589 0.0498902 0)
(-0.0320312 0.0778622 0)
(-0.051043 0.108889 0)
(-0.0727587 0.142001 0)
(-0.0952576 0.175293 0)
(-0.118438 0.206314 0)
(-0.140061 0.232559 0)
(-0.159474 0.251875 0)
(-0.17509 0.263129 0)
(-0.186955 0.266315 0)
(-0.194724 0.262387 0)
(-0.199317 0.252919 0)
(-0.201257 0.239711 0)
(-0.201744 0.224426 0)
(-0.201363 0.208356 0)
(-0.200944 0.192327 0)
(-0.200686 0.176771 0)
(-0.200931 0.161802 0)
(-0.201568 0.147374 0)
(-0.202665 0.133336 0)
(-0.204018 0.119543 0)
(-0.205619 0.105845 0)
(-0.207288 0.092146 0)
(-0.209023 0.0783592 0)
(-0.210696 0.0644458 0)
(-0.212324 0.05037 0)
(-0.213823 0.0361281 0)
(-0.215221 0.0217131 0)
(-0.216463 0.00713894 0)
(-0.217585 -0.00758511 0)
(-0.218552 -0.0224373 0)
(-0.219404 -0.0373986 0)
(-0.220122 -0.0524448 0)
(-0.220747 -0.0675501 0)
(-0.221269 -0.0826923 0)
(-0.221733 -0.0978423 0)
(-0.222146 -0.112987 0)
(-0.222567 -0.128108 0)
(-0.223051 -0.143231 0)
(-0.223722 -0.158402 0)
(-0.224755 -0.173773 0)
(-0.226426 -0.189582 0)
(-0.229093 -0.206259 0)
(-0.233145 -0.224333 0)
(-0.238855 -0.244385 0)
(-0.24602 -0.266624 0)
(-0.253588 -0.290334 0)
(-0.259091 -0.313 0)
(-0.258621 -0.329611 0)
(-0.247142 -0.332637 0)
(-0.220221 -0.313354 0)
(-0.1765 -0.265812 0)
(-0.121392 -0.192785 0)
(-0.0680526 -0.111716 0)
(-0.031072 -0.0461485 0)
(-0.011443 -0.00580206 0)
(-0.00228871 0.0148686 0)
(0.000429603 0.0200325 0)
(0.000342903 0.011503 0)
(-0.00311868 0.0289366 0)
(-0.0159406 0.065308 0)
(-0.0339002 0.0964667 0)
(-0.0532875 0.129553 0)
(-0.0749461 0.164136 0)
(-0.096692 0.197875 0)
(-0.118431 0.228076 0)
(-0.137892 0.252101 0)
(-0.154695 0.268139 0)
(-0.167477 0.27551 0)
(-0.176654 0.274806 0)
(-0.182108 0.267439 0)
(-0.185005 0.255346 0)
(-0.185904 0.24043 0)
(-0.185999 0.224301 0)
(-0.185711 0.208035 0)
(-0.185729 0.192233 0)
(-0.186072 0.177099 0)
(-0.186975 0.162598 0)
(-0.188229 0.14858 0)
(-0.189875 0.134858 0)
(-0.191681 0.121273 0)
(-0.193657 0.107689 0)
(-0.195625 0.0940221 0)
(-0.197606 0.0802095 0)
(-0.199481 0.0662243 0)
(-0.201281 0.052047 0)
(-0.202924 0.0376812 0)
(-0.20445 0.0231309 0)
(-0.2058 0.00841432 0)
(-0.207018 -0.00645129 0)
(-0.208065 -0.0214422 0)
(-0.208985 -0.036533 0)
(-0.209755 -0.0516999 0)
(-0.210416 -0.0669122 0)
(-0.210956 -0.0821495 0)
(-0.211412 -0.0973766 0)
(-0.211777 -0.112579 0)
(-0.212088 -0.127721 0)
(-0.21236 -0.142807 0)
(-0.212661 -0.157829 0)
(-0.213089 -0.172872 0)
(-0.213832 -0.188065 0)
(-0.215189 -0.203743 0)
(-0.217563 -0.220384 0)
(-0.221438 -0.23871 0)
(-0.227108 -0.259408 0)
(-0.234395 -0.282757 0)
(-0.241949 -0.307715 0)
(-0.246916 -0.3309 0)
(-0.244598 -0.345767 0)
(-0.229556 -0.342794 0)
(-0.197366 -0.312086 0)
(-0.148555 -0.248827 0)
(-0.091852 -0.162292 0)
(-0.0443818 -0.0787181 0)
(-0.0173553 -0.0220308 0)
(-0.00453685 0.00819113 0)
(-5.99489e-05 0.0186154 0)
(0.000321089 0.0120334 0)
(-0.00322238 0.037888 0)
(-0.0164218 0.0812881 0)
(-0.0346853 0.115358 0)
(-0.0539793 0.150048 0)
(-0.075096 0.185515 0)
(-0.0956682 0.21902 0)
(-0.115662 0.247749 0)
(-0.13286 0.269065 0)
(-0.147175 0.281605 0)
(-0.15747 0.285172 0)
(-0.164479 0.280937 0)
(-0.168252 0.270693 0)
(-0.170102 0.256633 0)
(-0.170542 0.240638 0)
(-0.170687 0.224173 0)
(-0.170776 0.208055 0)
(-0.171362 0.192664 0)
(-0.172317 0.178008 0)
(-0.173806 0.163949 0)
(-0.175566 0.15027 0)
(-0.177634 0.13678 0)
(-0.179777 0.123321 0)
(-0.182026 0.109781 0)
(-0.184211 0.096092 0)
(-0.186376 0.0822103 0)
(-0.188404 0.0681187 0)
(-0.190339 0.0538113 0)
(-0.1921 0.0392965 0)
(-0.19373 0.024588 0)
(-0.19517 0.00970672 0)
(-0.196464 -0.00532158 0)
(-0.197573 -0.0204716 0)
(-0.198543 -0.0357103 0)
(-0.199347 -0.0510147 0)
(-0.200033 -0.066348 0)
(-0.200583 -0.0816944 0)
(-0.20104 -0.097014 0)
(-0.20139 -0.112299 0)
(-0.201664 -0.127504 0)
(-0.201856 -0.142632 0)
(-0.201997 -0.157641 0)
(-0.202126 -0.172573 0)
(-0.202344 -0.187462 0)
(-0.20285 -0.20253 0)
(-0.203959 -0.21811 0)
(-0.206169 -0.234878 0)
(-0.209986 -0.253672 0)
(-0.215809 -0.275387 0)
(-0.223237 -0.30019 0)
(-0.230654 -0.326463 0)
(-0.23436 -0.349438 0)
(-0.229048 -0.360329 0)
(-0.208688 -0.347459 0)
(-0.169986 -0.300193 0)
(-0.116308 -0.21819 0)
(-0.0615687 -0.121182 0)
(-0.0248054 -0.0445816 0)
(-0.00764494 -0.00131786 0)
(-0.000761825 0.0159813 0)
(0.00027787 0.0123844 0)
(-0.00317095 0.0469718 0)
(-0.0163245 0.0974755 0)
(-0.0344399 0.134238 0)
(-0.0532293 0.170136 0)
(-0.0734062 0.205985 0)
(-0.0925095 0.238715 0)
(-0.110598 0.265506 0)
(-0.125575 0.283837 0)
(-0.137633 0.29286 0)
(-0.145847 0.292859 0)
(-0.1512 0.285541 0)
(-0.153847 0.272989 0)
(-0.155151 0.257538 0)
(-0.155527 0.240945 0)
(-0.155969 0.224477 0)
(-0.156547 0.208685 0)
(-0.157696 0.193755 0)
(-0.159185 0.179541 0)
(-0.161145 0.165843 0)
(-0.163284 0.15241 0)
(-0.165658 0.139067 0)
(-0.168038 0.125664 0)
(-0.17048 0.112119 0)
(-0.172823 0.0983719 0)
(-0.175127 0.0843986 0)
(-0.177276 0.0701862 0)
(-0.179324 0.0557396 0)
(-0.181185 0.0410689 0)
(-0.182907 0.0261963 0)
(-0.184428 0.0111438 0)
(-0.185792 -0.00405418 0)
(-0.186958 -0.0193717 0)
(-0.187971 -0.0347674 0)
(-0.188806 -0.0502196 0)
(-0.189511 -0.0656842 0)
(-0.190071 -0.0811507 0)
(-0.19053 -0.0965742 0)
(-0.190878 -0.111958 0)
(-0.191145 -0.12725 0)
(-0.191318 -0.142465 0)
(-0.191414 -0.15754 0)
(-0.191434 -0.172505 0)
(-0.191416 -0.187322 0)
(-0.191466 -0.202124 0)
(-0.191777 -0.217081 0)