/*--------------------------------*- C++ -*----------------------------------*\
| =========                 |                                                 |
| \\      /  F ield         | OpenFOAM: The Open Source CFD Toolbox           |
|  \\    /   O peration     | Version:  2406                                  |
|   \\  /    A nd           | Website:  www.openfoam.com                      |
|    \\/     M anipulation  |                                                 |
\*---------------------------------------------------------------------------*/
FoamFile
{
    version     2.0;
    format      ascii;
    arch        "LSB;label=32;scalar=64";
    class       volVectorField;
    location    "21";
    object      U_0;
}
// * * * * * * * * * * * * * * * * * * * * * * * * * * * * * * * * * * * * * //

dimensions      [0 1 -1 0 0 0 0];

internalField   nonuniform List<vector> 
14400
(
(2.77656e-06 -2.76264e-06 0)
(2.64585e-05 -8.47068e-06 0)
(6.99266e-05 -1.30646e-05 0)
(0.000125837 -1.495e-05 0)
(0.000185056 -1.52547e-05 0)
(0.000242994 -1.45279e-05 0)
(0.000296841 -1.33088e-05 0)
(0.000345261 -1.19081e-05 0)
(0.000387848 -1.05002e-05 0)
(0.000424701 -9.16606e-06 0)
(0.000456123 -7.9253e-06 0)
(0.000482451 -6.76412e-06 0)
(0.000503931 -5.66544e-06 0)
(0.000520653 -4.61494e-06 0)
(0.000532535 -3.58478e-06 0)
(0.000539286 -2.51833e-06 0)
(0.000540431 -1.33398e-06 0)
(0.000535533 9.22101e-08 0)
(0.000524007 1.67964e-06 0)
(0.000505046 3.42411e-06 0)
(0.000477819 5.35069e-06 0)
(0.000441427 7.47789e-06 0)
(0.000394893 9.82387e-06 0)
(0.000337161 1.24088e-05 0)
(0.000267083 1.52557e-05 0)
(0.000183408 1.83906e-05 0)
(8.47723e-05 2.18431e-05 0)
(-3.03144e-05 2.56456e-05 0)
(-0.000163474 2.98324e-05 0)
(-0.000316463 3.44384e-05 0)
(-0.00049117 3.94973e-05 0)
(-0.000689598 4.50398e-05 0)
(-0.00091385 5.10915e-05 0)
(-0.0011661 5.76709e-05 0)
(-0.00144853 6.47866e-05 0)
(-0.00176333 7.24356e-05 0)
(-0.0021126 8.0601e-05 0)
(-0.00249826 8.92494e-05 0)
(-0.00292206 9.83297e-05 0)
(-0.00338538 0.00010777 0)
(-0.00388924 0.000117478 0)
(-0.00443415 0.000127338 0)
(-0.00502002 0.000137209 0)
(-0.00564605 0.000146928 0)
(-0.00631069 0.000156308 0)
(-0.00701146 0.000165138 0)
(-0.00774494 0.00017319 0)
(-0.00850668 0.000180213 0)
(-0.00929114 0.000185947 0)
(-0.0100917 0.000190118 0)
(-0.0109006 0.00019245 0)
(-0.011709 0.000192669 0)
(-0.0125071 0.000190509 0)
(-0.013284 0.000185719 0)
(-0.0140282 0.000178075 0)
(-0.0147274 0.000167383 0)
(-0.0153688 0.000153491 0)
(-0.0159394 0.000136297 0)
(-0.0164262 0.000115759 0)
(-0.0168164 9.18669e-05 0)
(-0.0170981 6.47665e-05 0)
(-0.0172602 3.51626e-05 0)
(-0.0172914 3.30327e-06 0)
(-0.0171835 -3.17044e-05 0)
(-0.0169307 -6.86323e-05 0)
(-0.016528 -0.000106677 0)
(-0.0159734 -0.000145252 0)
(-0.0152675 -0.000183624 0)
(-0.0144139 -0.000220984 0)
(-0.0134192 -0.000256481 0)
(-0.0122933 -0.000289245 0)
(-0.011049 -0.000318415 0)
(-0.00970199 -0.000343179 0)
(-0.00827071 -0.000362804 0)
(-0.0067759 -0.000376674 0)
(-0.0052402 -0.000384321 0)
(-0.00368751 -0.000385456 0)
(-0.00214242 -0.000379987 0)
(-0.000629473 -0.000368038 0)
(0.000827516 -0.000349942 0)
(0.00220621 -0.000326242 0)
(0.00348644 -0.000297662 0)
(0.00465076 -0.000265078 0)
(0.00568501 -0.000229481 0)
(0.00657864 -0.000191924 0)
(0.00732494 -0.000153475 0)
(0.00792112 -0.000115166 0)
(0.00836812 -7.795e-05 0)
(0.00867042 -4.26344e-05 0)
(0.00883581 -9.88587e-06 0)
(0.00887498 1.92995e-05 0)
(0.00879894 4.39262e-05 0)
(0.0086214 6.54106e-05 0)
(0.00835823 8.3608e-05 0)
(0.00802401 9.7978e-05 0)
(0.00763312 0.000108676 0)
(0.00719955 0.000116029 0)
(0.00673629 0.000120386 0)
(0.00625502 0.000122129 0)
(0.00576601 0.000121661 0)
(0.00527802 0.000119377 0)
(0.00479825 0.00011566 0)
(0.00433242 0.000110866 0)
(0.00388485 0.000105323 0)
(0.00345858 9.93216e-05 0)
(0.00305547 9.31154e-05 0)
(0.00267641 8.69197e-05 0)
(0.00232142 8.09071e-05 0)
(0.0019899 7.52013e-05 0)
(0.00168083 6.98659e-05 0)
(0.00139303 6.4889e-05 0)
(0.00112555 6.01618e-05 0)
(0.000878076 5.5454e-05 0)
(0.000651424 5.0391e-05 0)
(0.000448106 4.44399e-05 0)
(0.000272801 3.69497e-05 0)
(0.000132528 2.72696e-05 0)
(3.57633e-05 1.51459e-05 0)
(-1.04281e-05 1.55834e-06 0)
(-7.63966e-06 -7.65335e-06 0)
(8.56729e-06 -2.65184e-05 0)
(7.27753e-05 -7.24381e-05 0)
(0.000171882 -0.000103616 0)
(0.000294026 -0.000117199 0)
(0.000420817 -0.00011846 0)
(0.000543173 -0.000112102 0)
(0.000655002 -0.000101654 0)
(0.0007531 -8.94595e-05 0)
(0.000836192 -7.69168e-05 0)
(0.00090412 -6.47244e-05 0)
(0.000957218 -5.31055e-05 0)
(0.000995894 -4.19812e-05 0)
(0.00102035 -3.1108e-05 0)
(0.00103048 -2.01774e-05 0)
(0.0010258 -8.83462e-06 0)
(0.0010053 3.2455e-06 0)
(0.000967637 1.64627e-05 0)
(0.000911041 3.11612e-05 0)
(0.000833404 4.74979e-05 0)
(0.000732417 6.56556e-05 0)
(0.000605471 8.5815e-05 0)
(0.000449711 0.000108151 0)
(0.000262043 0.000132844 0)
(3.91308e-05 0.000160085 0)
(-0.000222619 0.000190087 0)
(-0.000527072 0.000223082 0)
(-0.000878382 0.000259324 0)
(-0.001281 0.000299077 0)
(-0.00173965 0.00034261 0)
(-0.00225936 0.000390181 0)
(-0.00284536 0.000442024 0)
(-0.00350307 0.000498325 0)
(-0.00423796 0.000559208 0)
(-0.00505551 0.000624709 0)
(-0.00596099 0.00069476 0)
(-0.00695936 0.000769162 0)
(-0.00805505 0.000847573 0)
(-0.00925175 0.000929481 0)
(-0.0105522 0.0010142 0)
(-0.0119578 0.00110084 0)
(-0.0134688 0.00118832 0)
(-0.0150836 0.00127534 0)
(-0.0167984 0.00136041 0)
(-0.0186078 0.00144184 0)
(-0.0205036 0.00151776 0)
(-0.0224755 0.00158615 0)
(-0.0245104 0.00164486 0)
(-0.0265926 0.00169165 0)
(-0.0287041 0.00172428 0)
(-0.0308241 0.00174049 0)
(-0.0329297 0.00173811 0)
(-0.034996 0.00171513 0)
(-0.0369963 0.00166971 0)
(-0.0389025 0.0016003 0)
(-0.0406856 0.00150567 0)
(-0.0423163 0.00138497 0)
(-0.0437653 0.00123782 0)
(-0.0450041 0.0010643 0)
(-0.0460052 0.000865061 0)
(-0.0467433 0.000641294 0)
(-0.0471949 0.000394832 0)
(-0.04734 0.000128455 0)
(-0.0471627 -0.000154529 0)
(-0.0466494 -0.000451819 0)
(-0.0457918 -0.00075862 0)
(-0.0445869 -0.00107012 0)
(-0.0430363 -0.00138114 0)
(-0.0411474 -0.00168612 0)
(-0.038933 -0.00197929 0)
(-0.0364114 -0.00225476 0)
(-0.0336066 -0.00250665 0)
(-0.0305481 -0.00272932 0)
(-0.0272703 -0.00291748 0)
(-0.0238123 -0.00306645 0)
(-0.0202171 -0.00317228 0)
(-0.0165308 -0.003232 0)
(-0.0128021 -0.00324369 0)
(-0.0090809 -0.00320671 0)
(-0.00541716 -0.00312168 0)
(-0.00186002 -0.00299057 0)
(0.00154358 -0.00281668 0)
(0.00475005 -0.00260452 0)
(0.00772027 -0.00235968 0)
(0.0104206 -0.00208865 0)
(0.0128237 -0.00179852 0)
(0.0149092 -0.00149677 0)
(0.0166642 -0.00119089 0)
(0.0180832 -0.000888172 0)
(0.0191681 -0.00059537 0)
(0.0199279 -0.00031852 0)
(0.0203773 -6.29387e-05 0)
(0.0205379 0.000167032 0)
(0.0204355 0.000370082 0)
(0.0200981 0.000544308 0)
(0.0195565 0.000688696 0)
(0.018843 0.000803665 0)
(0.0179896 0.000890555 0)
(0.0170273 0.000951379 0)
(0.0159852 0.00098866 0)
(0.0148903 0.00100525 0)
(0.0137664 0.00100418 0)
(0.0126342 0.000988515 0)
(0.0115111 0.000961239 0)
(0.0104112 0.000925182 0)
(0.00934556 0.000882947 0)
(0.00832211 0.000836861 0)
(0.0073462 0.000788931 0)
(0.00642092 0.000740793 0)
(0.00554751 0.000693645 0)
(0.00472601 0.000648155 0)
(0.00395586 0.000604338 0)
(0.00323674 0.000561412 0)
(0.00256955 0.000517652 0)
(0.0019574 0.000470294 0)
(0.00140662 0.000415567 0)
(0.000927486 0.000349118 0)
(0.000534127 0.000267152 0)
(0.000241693 0.00016916 0)
(6.58911e-05 6.32641e-05 0)
(2.08966e-06 -9.93688e-06 0)
(1.32623e-05 -7.03858e-05 0)
(0.000104324 -0.000171701 0)
(0.000233702 -0.000233205 0)
(0.000387831 -0.000258664 0)
(0.000543718 -0.000258403 0)
(0.000690686 -0.000241707 0)
(0.000821115 -0.000215761 0)
(0.000930765 -0.000185514 0)
(0.0010177 -0.000154014 0)
(0.00108134 -0.000122842 0)
(0.00112174 -9.25334e-05 0)
(0.001139 -6.29224e-05 0)
(0.00113293 -3.34011e-05 0)
(0.00110286 -3.1462e-06 0)
(0.00104749 2.87132e-05 0)
(0.000964927 6.30105e-05 0)
(0.000852639 0.000100579 0)
(0.000707445 0.000142103 0)
(0.000525672 0.000188255 0)
(0.000303196 0.000239603 0)
(3.54395e-05 0.000296658 0)
(-0.000282596 0.000359914 0)
(-0.000656311 0.000429866 0)
(-0.00109151 0.00050703 0)
(-0.00159441 0.000591954 0)
(-0.00217162 0.000685214 0)
(-0.0028302 0.000787412 0)
(-0.00357755 0.000899148 0)
(-0.00442145 0.001021 0)
(-0.00536995 0.00115347 0)
(-0.00643128 0.00129697 0)
(-0.00761368 0.00145174 0)
(-0.00892527 0.00161781 0)
(-0.0103738 0.00179494 0)
(-0.0119662 0.00198257 0)
(-0.0137088 0.00217979 0)
(-0.0156064 0.00238524 0)
(-0.0176622 0.00259713 0)
(-0.0198774 0.00281319 0)
(-0.0222509 0.00303062 0)
(-0.0247788 0.00324617 0)
(-0.0274543 0.00345608 0)
(-0.030267 0.00365614 0)
(-0.0332033 0.00384174 0)
(-0.0362458 0.00400798 0)
(-0.0393734 0.00414971 0)
(-0.0425613 0.00426167 0)
(-0.0457815 0.00433863 0)
(-0.0490026 0.00437548 0)
(-0.0521905 0.00436744 0)
(-0.0553089 0.00431014 0)
(-0.0583197 0.0041998 0)
(-0.0611838 0.00403335 0)
(-0.0638615 0.00380855 0)
(-0.0663135 0.0035241 0)
(-0.0685015 0.0031797 0)
(-0.0703888 0.00277614 0)
(-0.0719412 0.00231532 0)
(-0.0731271 0.00180033 0)
(-0.0739189 0.00123539 0)
(-0.0742923 0.000625832 0)
(-0.0742279 -2.19967e-05 0)
(-0.0737117 -0.000700333 0)
(-0.0727344 -0.00140042 0)
(-0.0712917 -0.00211318 0)
(-0.0693859 -0.00282842 0)
(-0.0670246 -0.00353522 0)
(-0.0642219 -0.00422222 0)
(-0.0609976 -0.00487779 0)
(-0.0573776 -0.00549027 0)
(-0.0533938 -0.00604818 0)
(-0.0490835 -0.00654056 0)
(-0.0444895 -0.00695722 0)
(-0.0396594 -0.00728909 0)
(-0.0346451 -0.00752854 0)
(-0.0295022 -0.00766965 0)
(-0.0242889 -0.00770853 0)
(-0.0190653 -0.00764351 0)
(-0.0138922 -0.00747537 0)
(-0.00883006 -0.00720738 0)
(-0.00393765 -0.00684532 0)
(0.000729123 -0.0063974 0)
(0.00511851 -0.00587407 0)
(0.00918405 -0.00528766 0)
(0.0128857 -0.00465207 0)
(0.0161908 -0.00398222 0)
(0.0190747 -0.00329359 0)
(0.0215215 -0.00260163 0)
(0.0235241 -0.00192123 0)
(0.025084 -0.00126617 0)
(0.0262116 -0.000648532 0)
(0.0269254 -7.81511e-05 0)
(0.0272506 0.000436483 0)
(0.0272177 0.000889414 0)
(0.0268626 0.00127756 0)
(0.0262246 0.00159992 0)
(0.0253445 0.00185749 0)
(0.0242639 0.00205312 0)
(0.0230234 0.00219112 0)
(0.0216619 0.00227693 0)
(0.0202155 0.00231678 0)
(0.0187167 0.00231728 0)
(0.0171943 0.00228521 0)
(0.0156725 0.00222719 0)
(0.0141714 0.00214952 0)
(0.0127069 0.00205797 0)
(0.011291 0.00195762 0)
(0.00993228 0.00185272 0)
(0.00863635 0.00174647 0)
(0.00740676 0.00164081 0)
(0.00624587 0.00153615 0)
(0.00515594 0.00143107 0)
(0.00414032 0.00132209 0)
(0.00320474 0.00120357 0)
(0.00235843 0.00106798 0)
(0.00161483 0.000906925 0)
(0.000991335 0.000713533 0)
(0.000505022 0.000487358 0)
(0.0001815 0.000242802 0)
(1.70754e-05 4.01738e-05 0)
(1.5178e-05 -0.000126813 0)
(0.000117239 -0.000293455 0)
(0.000256343 -0.000386486 0)
(0.000416895 -0.000421212 0)
(0.00057333 -0.000414677 0)
(0.000714551 -0.000381549 0)
(0.000832588 -0.000333112 0)
(0.000922942 -0.000277216 0)
(0.00098341 -0.000218744 0)
(0.00101312 -0.000160234 0)
(0.0010117 -0.000102509 0)
(0.000978767 -4.52193e-05 0)
(0.000913465 1.27053e-05 0)
(0.00081424 7.27642e-05 0)
(0.000678746 0.000136569 0)
(0.000503832 0.000205752 0)
(0.000285515 0.000281797 0)
(1.90016e-05 0.000366074 0)
(-0.00030121 0.000459828 0)
(-0.000681281 0.00056418 0)
(-0.00112799 0.00068016 0)
(-0.00164871 0.000808759 0)
(-0.00225137 0.000950956 0)
(-0.00294444 0.00110775 0)
(-0.00373694 0.00128015 0)
(-0.00463838 0.00146921 0)
(-0.00565876 0.00167595 0)
(-0.00680845 0.00190136 0)
(-0.00809812 0.00214631 0)
(-0.0095386 0.00241145 0)
(-0.0111406 0.0026972 0)
(-0.0129146 0.00300355 0)
(-0.0148703 0.00333005 0)
(-0.0170165 0.00367564 0)
(-0.0193607 0.00403859 0)
(-0.0219082 0.00441641 0)
(-0.0246623 0.00480577 0)
(-0.0276233 0.00520247 0)
(-0.0307882 0.0056014 0)
(-0.0341504 0.00599655 0)
(-0.0376991 0.00638108 0)
(-0.0414193 0.00674734 0)
(-0.0452913 0.00708708 0)
(-0.0492908 0.00739152 0)
(-0.0533891 0.00765159 0)
(-0.0575535 0.00785815 0)
(-0.0617469 0.00800221 0)
(-0.0659295 0.00807518 0)
(-0.0700585 0.00806917 0)
(-0.0740892 0.00797715 0)
(-0.0779758 0.00779326 0)
(-0.0816722 0.00751292 0)
(-0.0851329 0.00713305 0)
(-0.0883135 0.00665215 0)
(-0.0911717 0.00607039 0)
(-0.093668 0.00538966 0)
(-0.0957659 0.00461354 0)
(-0.0974327 0.00374736 0)
(-0.0986399 0.00279807 0)
(-0.0993633 0.00177424 0)
(-0.0995834 0.000685949 0)
(-0.0992854 -0.000455418 0)
(-0.0984598 -0.00163727 0)
(-0.0971023 -0.00284518 0)
(-0.0952135 -0.00406416 0)
(-0.0927995 -0.00527826 0)
(-0.0898718 -0.00647078 0)
(-0.0864475 -0.00762448 0)
(-0.082549 -0.00872184 0)
(-0.0782044 -0.00974538 0)
(-0.0734472 -0.010678 0)
(-0.0683162 -0.0115031 0)
(-0.0628553 -0.0122056 0)
(-0.0571134 -0.0127717 0)
(-0.0511438 -0.0131895 0)
(-0.0450038 -0.0134498 0)
(-0.038754 -0.0135461 0)
(-0.0324575 -0.0134751 0)
(-0.0261789 -0.013237 0)
(-0.0199833 -0.0128356 0)
(-0.0139353 -0.0122785 0)
(-0.00809761 -0.0115771 0)
(-0.00252996 -0.010746 0)
(0.00271235 -0.00980317 0)
(0.00757947 -0.0087691 0)
(0.0120282 -0.00766635 0)
(0.0160229 -0.00651875 0)
(0.0195363 -0.00535069 0)
(0.0225501 -0.00418623 0)
(0.0250554 -0.00304836 0)
(0.0270527 -0.00195816 0)
(0.0285514 -0.000934249 0)
(0.0295696 7.46087e-06 0)
(0.0301334 0.000854928 0)
(0.0302756 0.00159983 0)
(0.0300347 0.00223736 0)
(0.0294531 0.00276623 0)
(0.0285762 0.00318848 0)
(0.0274502 0.00350897 0)
(0.0261213 0.00373493 0)
(0.0246341 0.00387539 0)
(0.0230305 0.00394061 0)
(0.0213486 0.00394154 0)
(0.0196225 0.00388936 0)
(0.0178817 0.00379499 0)
(0.0161506 0.00366869 0)
(0.0144492 0.00351977 0)
(0.0127932 0.00335615 0)
(0.0111944 0.00318401 0)
(0.00966171 0.00300738 0)
(0.00820198 0.00282766 0)
(0.0068214 0.00264322 0)
(0.00552668 0.00244898 0)
(0.00432645 0.00223647 0)
(0.0032325 0.0019943 0)
(0.00226065 0.00170987 0)
(0.00143091 0.00137274 0)
(0.000762684 0.000981075 0)
(0.000295462 0.000551248 0)
(3.15765e-05 0.000147762 0)
(1.52836e-05 -0.000185967 0)
(0.000115544 -0.000417096 0)
(0.000247133 -0.000536749 0)
(0.000392892 -0.000574043 0)
(0.000526612 -0.000554162 0)
(0.000637408 -0.000497617 0)
(0.000717672 -0.000419832 0)
(0.000763176 -0.000331442 0)
(0.000771777 -0.000238997 0)
(0.000742414 -0.000145816 0)
(0.00067429 -5.28233e-05 0)
(0.000566305 4.07063e-05 0)
(0.000416714 0.000136521 0)
(0.000222854 0.000236955 0)
(-1.89765e-05 0.000344572 0)
(-0.000313492 0.000461932 0)
(-0.000666434 0.000591441 0)
(-0.00108452 0.000735315 0)
(-0.00157538 0.000895571 0)
(-0.00214746 0.00107405 0)
(-0.00281003 0.00127248 0)
(-0.00357306 0.00149249 0)
(-0.00444725 0.00173569 0)
(-0.00544396 0.00200366 0)
(-0.00657514 0.00229799 0)
(-0.00785331 0.00262021 0)
(-0.00929139 0.00297179 0)
(-0.0109026 0.00335397 0)
(-0.0127003 0.00376774 0)
(-0.0146975 0.00421364 0)
(-0.0169068 0.00469165 0)
(-0.0193398 0.005201 0)
(-0.0220068 0.00574001 0)
(-0.0249161 0.00630598 0)
(-0.0280735 0.00689499 0)
(-0.0314817 0.00750185 0)
(-0.0351398 0.00812 0)
(-0.0390425 0.00874147 0)
(-0.0431801 0.00935697 0)
(-0.0475378 0.00995592 0)
(-0.0520952 0.0105266 0)
(-0.056827 0.0110565 0)
(-0.0617024 0.0115323 0)
(-0.0666858 0.0119405 0)
(-0.0717369 0.0122677 0)
(-0.0768119 0.0125009 0)
(-0.0818638 0.0126278 0)
(-0.0868437 0.0126374 0)
(-0.0917013 0.0125203 0)
(-0.0963864 0.0122687 0)
(-0.100849 0.011877 0)
(-0.105042 0.0113416 0)
(-0.108919 0.0106613 0)
(-0.112437 0.00983708 0)
(-0.115557 0.00887224 0)
(-0.118243 0.00777222 0)
(-0.120464 0.00654455 0)
(-0.122193 0.00519872 0)
(-0.123406 0.00374609 0)
(-0.124084 0.00219974 0)
(-0.124212 0.000574348 0)
(-0.12378 -0.00111394 0)
(-0.122781 -0.00284763 0)
(-0.121214 -0.00460792 0)
(-0.119081 -0.00637485 0)
(-0.116387 -0.00812749 0)
(-0.113146 -0.00984413 0)
(-0.109372 -0.0115024 0)
(-0.105086 -0.0130797 0)
(-0.100313 -0.0145533 0)
(-0.0950856 -0.0159007 0)
(-0.0894386 -0.0171004 0)
(-0.0834137 -0.018132 0)
(-0.0770572 -0.018977 0)
(-0.0704205 -0.0196191 0)
(-0.0635596 -0.0200451 0)
(-0.0565346 -0.0202451 0)
(-0.0494088 -0.0202134 0)
(-0.0422485 -0.0199485 0)
(-0.0351215 -0.0194537 0)
(-0.028096 -0.0187373 0)
(-0.0212399 -0.0178123 0)
(-0.0146188 -0.0166966 0)
(-0.00829551 -0.0154126 0)
(-0.00232798 -0.0139861 0)
(0.0032313 -0.0124465 0)
(0.00833673 -0.0108252 0)
(0.0129504 -0.00915504 0)
(0.0170431 -0.00746913 0)
(0.0205946 -0.00579985 0)
(0.0235942 -0.00417785 0)
(0.0260408 -0.00263114 0)
(0.0279426 -0.00118414 0)
(0.0293169 0.000143022 0)
(0.0301894 0.00133468 0)
(0.0305929 0.00238011 0)
(0.0305663 0.00327356 0)
(0.0301536 0.00401404 0)
(0.0294018 0.00460493 0)
(0.0283599 0.00505345 0)
(0.0270768 0.00537 0)
(0.0256007 0.00556741 0)
(0.023977 0.00566018 0)
(0.0222478 0.00566374 0)
(0.020451 0.00559369 0)
(0.0186197 0.0054652 0)
(0.0167823 0.00529232 0)
(0.0149622 0.00508737 0)
(0.0131785 0.00486028 0)
(0.0114468 0.00461798 0)
(0.00977955 0.00436365 0)
(0.00818801 0.00409614 0)
(0.00668307 0.00380952 0)
(0.00527678 0.00349307 0)
(0.00398386 0.003132 0)
(0.00282282 0.00270953 0)
(0.00181691 0.00221076 0)
(0.000989362 0.00162939 0)
(0.000394929 0.000976981 0)
(4.39437e-05 0.000308133 0)
(1.3983e-05 -0.000241945 0)
(0.000102769 -0.000529894 0)
(0.000212678 -0.000667605 0)
(0.000325898 -0.000698483 0)
(0.000417387 -0.000656622 0)
(0.00047705 -0.000568665 0)
(0.000498173 -0.000454113 0)
(0.000477178 -0.000326141 0)
(0.000412206 -0.000192657 0)
(0.000302083 -5.74384e-05 0)
(0.000145527 7.87884e-05 0)
(-5.93911e-05 0.000217405 0)
(-0.000315568 0.000361126 0)
(-0.000627081 0.000513364 0)
(-0.000999277 0.00067783 0)
(-0.00143876 0.000858219 0)
(-0.00195334 0.00105804 0)
(-0.00255202 0.00128053 0)
(-0.00324484 0.00152868 0)
(-0.00404288 0.00180521 0)
(-0.00495813 0.00211269 0)
(-0.00600346 0.00245354 0)
(-0.00719253 0.00283008 0)
(-0.00853975 0.00324457 0)
(-0.0100601 0.00369918 0)
(-0.0117691 0.00419589 0)
(-0.0136824 0.00473642 0)
(-0.0158159 0.00532208 0)
(-0.0181849 0.00595359 0)
(-0.020804 0.00663085 0)
(-0.0236867 0.00735273 0)
(-0.0268446 0.00811685 0)
(-0.0302866 0.00891934 0)
(-0.0340186 0.00975465 0)
(-0.0380429 0.0106154 0)
(-0.0423568 0.0114924 0)
(-0.0469528 0.0123742 0)
(-0.0518177 0.013248 0)
(-0.0569326 0.0140988 0)
(-0.0622722 0.0149104 0)
(-0.0678055 0.0156654 0)
(-0.0734958 0.0163457 0)
(-0.0793012 0.0169331 0)
(-0.0851756 0.0174097 0)
(-0.0910694 0.0177582 0)
(-0.0969306 0.0179631 0)
(-0.102706 0.0180103 0)
(-0.108343 0.0178882 0)
(-0.113789 0.0175878 0)
(-0.118992 0.0171025 0)
(-0.123906 0.0164289 0)
(-0.128486 0.0155661 0)
(-0.13269 0.0145163 0)
(-0.13648 0.013284 0)
(-0.139824 0.0118766 0)
(-0.142692 0.0103034 0)
(-0.145058 0.00857586 0)
(-0.146899 0.00670756 0)
(-0.148196 0.00471367 0)
(-0.148935 0.00261102 0)
(-0.149102 0.000418 0)
(-0.148689 -0.00184558 0)
(-0.147689 -0.00415852 0)
(-0.1461 -0.00649828 0)
(-0.143921 -0.0088411 0)
(-0.141156 -0.011162 0)
(-0.137814 -0.0134352 0)
(-0.133905 -0.0156336 0)
(-0.129447 -0.0177301 0)
(-0.124458 -0.0196968 0)
(-0.118967 -0.0215064 0)
(-0.113003 -0.0231317 0)
(-0.106604 -0.0245471 0)
(-0.0998113 -0.0257286 0)
(-0.0926742 -0.0266549 0)
(-0.0852457 -0.0273079 0)
(-0.0775847 -0.0276735 0)
(-0.0697545 -0.0277421 0)
(-0.0618224 -0.0275096 0)
(-0.0538585 -0.0269775 0)
(-0.045935 -0.0261535 0)
(-0.0381243 -0.0250514 0)
(-0.0304984 -0.0236911 0)
(-0.0231269 -0.022098 0)
(-0.016076 -0.020303 0)
(-0.0094069 -0.0183412 0)
(-0.00317466 -0.0162509 0)
(0.00257294 -0.0140729 0)
(0.00779627 -0.0118491 0)
(0.0124646 -0.00962102 0)
(0.0165566 -0.0074289 0)
(0.0200607 -0.00531034 0)
(0.0229748 -0.00329925 0)
(0.0253066 -0.00142491 0)
(0.0270727 0.000288643 0)
(0.0282984 0.00182324 0)
(0.0290163 0.00316678 0)
(0.0292657 0.00431327 0)
(0.0290908 0.00526256 0)
(0.0285396 0.00601986 0)
(0.0276624 0.00659508 0)
(0.0265101 0.00700204 0)
(0.0251326 0.00725748 0)
(0.0235781 0.00738016 0)
(0.0218912 0.00738985 0)
(0.0201127 0.00730634 0)
(0.0182787 0.00714854 0)
(0.0164207 0.0069335 0)
(0.0145653 0.00667547 0)
(0.0127353 0.00638491 0)
(0.0109497 0.00606758 0)
(0.00922551 0.00572364 0)
(0.00757856 0.00534708 0)
(0.00602511 0.00492563 0)
(0.00458351 0.00444153 0)
(0.00327576 0.00387365 0)
(0.00212934 0.00320133 0)
(0.0011725 0.00241065 0)
(0.000474478 0.00150249 0)
(5.36437e-05 0.000512282 0)
(1.16882e-05 -0.000290102 0)
(8.14986e-05 -0.000620943 0)
(0.000158062 -0.000764201 0)
(0.000223735 -0.000777276 0)
(0.000256279 -0.000703338 0)
(0.000246998 -0.000575113 0)
(0.00019055 -0.000415924 0)
(8.43033e-05 -0.000241089 0)
(-7.31694e-05 -5.94201e-05 0)
(-0.000283131 0.000125296 0)
(-0.000547443 0.00031295 0)
(-0.000869044 0.000505949 0)
(-0.00125223 0.000708267 0)
(-0.00170279 0.000924698 0)
(-0.00222806 0.00116034 0)
(-0.00283687 0.00142025 0)
(-0.00353946 0.00170922 0)
(-0.00434744 0.00203169 0)
(-0.00527361 0.00239177 0)
(-0.00633196 0.00279322 0)
(-0.00753751 0.00323956 0)
(-0.00890622 0.00373409 0)
(-0.0104549 0.00427991 0)
(-0.0122011 0.00487994 0)
(-0.0141627 0.00553683 0)
(-0.0163581 0.00625281 0)
(-0.0188054 0.0070296 0)
(-0.0215224 0.00786807 0)
(-0.0245258 0.00876807 0)
(-0.0278307 0.00972807 0)
(-0.0314498 0.0107449 0)
(-0.035393 0.0118133 0)
(-0.0396661 0.0129261 0)
(-0.0442705 0.0140734 0)
(-0.0492021 0.0152428 0)
(-0.054451 0.0164197 0)
(-0.0600006 0.0175867 0)
(-0.0658278 0.0187244 0)
(-0.0719028 0.0198117 0)
(-0.0781894 0.0208261 0)
(-0.0846455 0.0217444 0)
(-0.0912241 0.0225435 0)
(-0.0978742 0.0232009 0)
(-0.104542 0.0236955 0)
(-0.111172 0.0240084 0)
(-0.117709 0.024123 0)
(-0.124099 0.024026 0)
(-0.130289 0.0237069 0)
(-0.136228 0.0231591 0)
(-0.141871 0.0223793 0)
(-0.147175 0.0213672 0)
(-0.152101 0.0201259 0)
(-0.156614 0.0186615 0)
(-0.160683 0.0169823 0)
(-0.164279 0.0150992 0)
(-0.167379 0.0130252 0)
(-0.169961 0.0107749 0)
(-0.172005 0.00836494 0)
(-0.173494 0.00581322 0)
(-0.174414 0.00313925 0)
(-0.174752 0.000363987 0)
(-0.174498 -0.00249018 0)
(-0.173644 -0.00539942 0)
(-0.172183 -0.00833841 0)
(-0.170112 -0.0112804 0)
(-0.167431 -0.0141971 0)
(-0.164142 -0.017059 0)
(-0.16025 -0.0198352 0)
(-0.155767 -0.0224939 0)
(-0.150708 -0.0250025 0)
(-0.145091 -0.0273283 0)
(-0.138942 -0.0294388 0)
(-0.132292 -0.0313023 0)
(-0.125179 -0.0328888 0)
(-0.117646 -0.034171 0)
(-0.109745 -0.0351248 0)
(-0.101531 -0.0357306 0)
(-0.0930671 -0.035974 0)
(-0.0844218 -0.0358466 0)
(-0.0756672 -0.0353468 0)
(-0.0668795 -0.0344804 0)
(-0.0581365 -0.0332605 0)
(-0.0495167 -0.0317079 0)
(-0.0410977 -0.0298505 0)
(-0.0329543 -0.027723 0)
(-0.025157 -0.0253655 0)
(-0.0177709 -0.0228233 0)
(-0.0108538 -0.0201445 0)
(-0.00445553 -0.0173795 0)
(0.0013831 -0.0145791 0)
(0.00663074 -0.0117931 0)
(0.0112659 -0.00906893 0)
(0.0152772 -0.00645026 0)
(0.018663 -0.00397599 0)
(0.0214313 -0.00167925 0)
(0.0235994 0.000413311 0)
(0.0251927 0.00228201 0)
(0.0262445 0.00391434 0)
(0.0267944 0.00530492 0)
(0.0268873 0.00645513 0)
(0.0265719 0.00737256 0)
(0.0258995 0.00807021 0)
(0.024922 0.00856547 0)
(0.0236911 0.00887906 0)
(0.0222564 0.00903383 0)
(0.0206647 0.0090535 0)
(0.018959 0.00896142 0)
(0.0171778 0.0087793 0)
(0.0153553 0.00852587 0)
(0.0135214 0.00821561 0)
(0.0117019 0.00785742 0)
(0.00992019 0.0074535 0)
(0.0081976 0.00699853 0)
(0.00655533 0.00647934 0)
(0.00501618 0.00587557 0)
(0.0036065 0.00516149 0)
(0.00235874 0.00430947 0)
(0.00130676 0.00329537 0)
(0.000532253 0.00210518 0)
(6.05657e-05 0.000749678 0)
(8.62753e-06 -0.000326899 0)
(5.34028e-05 -0.000681339 0)
(8.67803e-05 -0.000814001 0)
(9.19948e-05 -0.000795602 0)
(5.10182e-05 -0.000678098 0)
(-4.28245e-05 -0.000499946 0)
(-0.000193059 -0.000287803 0)
(-0.000401126 -5.85653e-05 0)
(-0.000667931 0.000178639 0)
(-0.000994865 0.000420581 0)
(-0.00138451 0.000668281 0)
(-0.00184104 0.000925614 0)
(-0.00237042 0.00119819 0)
(-0.00298049 0.0014925 0)
(-0.00368092 0.0018153 0)
(-0.00448312 0.0021732 0)
(-0.00540014 0.0025725 0)
(-0.0064465 0.00301899 0)
(-0.00763812 0.00351802 0)
(-0.00899215 0.00407452 0)
(-0.0105269 0.00469303 0)
(-0.0122615 0.00537773 0)
(-0.014216 0.00613249 0)
(-0.016411 0.00696074 0)
(-0.0188673 0.00786537 0)
(-0.0216054 0.00884852 0)
(-0.0246455 0.00991134 0)
(-0.0280064 0.0110536 0)
(-0.0317047 0.0122733 0)
(-0.0357547 0.0135665 0)
(-0.0401668 0.0149266 0)
(-0.0449469 0.0163443 0)
(-0.0500957 0.0178072 0)
(-0.0556075 0.0192998 0)
(-0.0614699 0.0208034 0)
(-0.0676634 0.0222964 0)
(-0.074161 0.0237544 0)
(-0.0809285 0.0251511 0)
(-0.0879251 0.0264587 0)
(-0.0951043 0.027649 0)
(-0.102414 0.0286939 0)
(-0.109801 0.0295666 0)
(-0.117207 0.0302421 0)
(-0.124575 0.0306983 0)
(-0.131848 0.0309166 0)
(-0.138971 0.0308819 0)
(-0.145894 0.0305832 0)
(-0.152567 0.0300134 0)
(-0.158945 0.0291694 0)
(-0.164989 0.0280517 0)
(-0.170661 0.0266642 0)
(-0.17593 0.0250138 0)
(-0.180765 0.0231099 0)
(-0.185139 0.0209642 0)
(-0.18903 0.0185905 0)
(-0.192416 0.0160041 0)
(-0.195276 0.0132221 0)
(-0.197594 0.010263 0)
(-0.199352 0.00714641 0)
(-0.200536 0.00389366 0)
(-0.201132 0.000527334 0)
(-0.201127 -0.00292843 0)
(-0.200512 -0.00644796 0)
(-0.199276 -0.0100039 0)
(-0.197413 -0.0135671 0)
(-0.194916 -0.0171066 0)
(-0.191784 -0.0205898 0)
(-0.188017 -0.0239823 0)
(-0.183619 -0.0272481 0)
(-0.178597 -0.03035 0)
(-0.172965 -0.03325 0)
(-0.16674 -0.0359099 0)
(-0.159946 -0.0382917 0)
(-0.152615 -0.0403588 0)
(-0.144784 -0.042077 0)
(-0.136499 -0.0434152 0)
(-0.127812 -0.0443468 0)
(-0.118784 -0.044851 0)
(-0.109482 -0.0449135 0)
(-0.0999814 -0.044528 0)
(-0.0903602 -0.0436963 0)
(-0.0807022 -0.0424297 0)
(-0.0710932 -0.0407481 0)
(-0.0616195 -0.0386808 0)
(-0.052366 -0.0362654 0)
(-0.0434142 -0.0335468 0)
(-0.0348404 -0.0305764 0)
(-0.0267142 -0.02741 0)
(-0.0190965 -0.0241066 0)
(-0.0120392 -0.0207266 0)
(-0.00558371 -0.0173296 0)
(0.000238746 -0.0139733 0)
(0.0054078 -0.0107116 0)
(0.00991353 -0.00759352 0)
(0.0137562 -0.00466171 0)
(0.0169458 -0.00195195 0)
(0.0195013 0.000507716 0)
(0.0214499 0.0026973 0)
(0.0228262 0.00460499 0)
(0.0236712 0.00622695 0)
(0.0240307 0.00756691 0)
(0.0239548 0.00863542 0)
(0.0234954 0.00944893 0)
(0.0227059 0.0100286 0)
(0.021639 0.010399 0)
(0.0203457 0.0105868 0)
(0.0188744 0.0106188 0)
(0.0172699 0.0105212 0)
(0.0155729 0.0103168 0)
(0.01382 0.0100242 0)
(0.0120441 0.00965601 0)
(0.0102747 0.00921683 0)
(0.0085392 0.00870263 0)
(0.00686433 0.00809991 0)
(0.00527797 0.00738597 0)
(0.00381149 0.00653032 0)
(0.0025027 0.00549754 0)
(0.00139117 0.00425153 0)
(0.000568225 0.00276102 0)
(6.47794e-05 0.00100956 0)
(5.00265e-06 -0.000349447 0)
(1.95251e-05 -0.000703589 0)
(1.04307e-06 -0.000806161 0)
(-6.55796e-05 -0.00074047 0)
(-0.000193024 -0.000566597 0)
(-0.000385373 -0.000328087 0)
(-0.000643913 -5.42207e-05 0)
(-0.000968702 0.000237276 0)
(-0.00136009 0.000537692 0)
(-0.00181969 0.000845034 0)
(-0.002351 0.00116205 0)
(-0.0029597 0.0014946 0)
(-0.00365374 0.00185035 0)
(-0.00444337 0.00223782 0)
(-0.00534095 0.0026657 0)
(-0.00636084 0.00314242 0)
(-0.00751921 0.00367589 0)
(-0.00883387 0.00427342 0)
(-0.0103241 0.00494171 0)
(-0.0120104 0.00568688 0)
(-0.0139146 0.00651449 0)
(-0.016059 0.00742956 0)
(-0.0184668 0.00843652 0)
(-0.0211614 0.00953903 0)
(-0.0241658 0.0107398 0)
(-0.0275025 0.0120403 0)
(-0.0311924 0.0134403 0)
(-0.0352539 0.0149374 0)
(-0.0397026 0.0165267 0)
(-0.0445497 0.0182004 0)
(-0.0498011 0.0199469 0)
(-0.055457 0.0217513 0)
(-0.0615103 0.0235946 0)
(-0.0679464 0.0254542 0)
(-0.0747428 0.0273036 0)
(-0.0818691 0.0291136 0)
(-0.0892872 0.0308525 0)
(-0.0969522 0.0324872 0)
(-0.104813 0.0339841 0)
(-0.112816 0.0353103 0)
(-0.120901 0.0364347 0)
(-0.129011 0.0373286 0)
(-0.137085 0.0379672 0)
(-0.145068 0.0383296 0)
(-0.152903 0.0383993 0)
(-0.160541 0.0381645 0)
(-0.167933 0.0376181 0)
(-0.175038 0.0367569 0)
(-0.181816 0.0355821 0)
(-0.188232 0.034098 0)
(-0.194255 0.032312 0)
(-0.199856 0.0302344 0)
(-0.205011 0.0278774 0)
(-0.209695 0.0252551 0)
(-0.213889 0.0223833 0)
(-0.217571 0.0192793 0)
(-0.220725 0.0159616 0)
(-0.223334 0.0124498 0)
(-0.225381 0.00876498 0)
(-0.226853 0.00492948 0)
(-0.227735 0.000966969 0)
(-0.228015 -0.00309732 0)
(-0.227679 -0.00723649 0)
(-0.226717 -0.0114218 0)
(-0.225119 -0.0156225 0)
(-0.222876 -0.0198058 0)
(-0.219979 -0.0239366 0)
(-0.216425 -0.0279777 0)
(-0.212209 -0.0318898 0)
(-0.207332 -0.0356315 0)
(-0.2018 -0.0391601 0)
(-0.19562 -0.0424318 0)
(-0.188809 -0.0454023 0)
(-0.181387 -0.048028 0)
(-0.173384 -0.050267 0)
(-0.164837 -0.0520801 0)
(-0.155792 -0.0534326 0)
(-0.146305 -0.0542951 0)
(-0.136439 -0.0546458 0)
(-0.126268 -0.054471 0)
(-0.115873 -0.0537668 0)
(-0.105342 -0.0525397 0)
(-0.094767 -0.0508073 0)
(-0.0842446 -0.0485982 0)
(-0.073871 -0.0459515 0)
(-0.0637407 -0.0429161 0)
(-0.0539439 -0.0395491 0)
(-0.0445644 -0.035914 0)
(-0.0356772 -0.032079 0)
(-0.0273474 -0.0281146 0)
(-0.0196287 -0.0240915 0)
(-0.0125632 -0.0200784 0)
(-0.00618064 -0.0161404 0)
(-0.000499337 -0.0123374 0)
(0.00447385 -0.00872248 0)
(0.00874263 -0.00534107 0)
(0.0123205 -0.0022302 0)
(0.0152298 0.000581985 0)
(0.0175009 0.0030765 0)
(0.0191711 0.00524339 0)
(0.0202837 0.00708142 0)
(0.0208865 0.00859749 0)
(0.0210309 0.0098057 0)
(0.0207706 0.0107263 0)
(0.02016 0.0113843 0)
(0.019253 0.0118079 0)
(0.018102 0.0120269 0)
(0.0167567 0.0120704 0)
(0.0152635 0.0119654 0)
(0.0136652 0.0117345 0)
(0.0120009 0.0113936 0)
(0.0103064 0.0109502 0)
(0.00861535 0.010402 0)
(0.00696017 0.0097355 0)
(0.0053743 0.00892583 0)
(0.0038945 0.00793778 0)
(0.00256399 0.00672774 0)
(0.00142767 0.00524701 0)
(0.000583516 0.00344621 0)
(6.64686e-05 0.00128155 0)
(8.6798e-07 -0.000354986 0)
(-1.95794e-05 -0.00068115 0)
(-9.78233e-05 -0.000731116 0)
(-0.000246639 -0.00060027 0)
(-0.000472285 -0.000355995 0)
(-0.000775795 -4.59736e-05 0)
(-0.00115585 0.000298843 0)
(-0.00161097 0.000660831 0)
(-0.00214099 0.00103258 0)
(-0.00274791 0.00141411 0)
(-0.00343637 0.0018106 0)
(-0.00421387 0.00223043 0)
(-0.00509073 0.00268381 0)
(-0.00607992 0.00318164 0)
(-0.0071969 0.00373482 0)
(-0.00845931 0.00435378 0)
(-0.00988678 0.00504822 0)
(-0.0115007 0.00582704 0)
(-0.0133238 0.00669833 0)
(-0.0153803 0.00766935 0)
(-0.0176952 0.0087466 0)
(-0.0202942 0.00993572 0)
(-0.0232032 0.0112414 0)
(-0.0264479 0.0126669 0)
(-0.030053 0.0142143 0)
(-0.0340415 0.0158834 0)
(-0.0384338 0.0176714 0)
(-0.0432469 0.0195727 0)
(-0.0484928 0.0215778 0)