/*--------------------------------*- C++ -*----------------------------------*\
| =========                 |                                                 |
| \\      /  F ield         | OpenFOAM: The Open Source CFD Toolbox           |
|  \\    /   O peration     | Version:  2406                                  |
|   \\  /    A nd           | Website:  www.openfoam.com                      |
|    \\/     M anipulation  |                                                 |
\*---------------------------------------------------------------------------*/
FoamFile
{
    version     2.0;
    format      ascii;
    arch        "LSB;label=32;scalar=64";
    class       surfaceScalarField;
    location    "33";
    object      phi;
}
// * * * * * * * * * * * * * * * * * * * * * * * * * * * * * * * * * * * * * //

dimensions      [0 3 -1 0 0 0 0];

oriented        oriented;

internalField   nonuniform List<scalar> 
28560
(
-9.64338e-10
9.64844e-10
5.33232e-08
-5.42873e-08
1.77289e-07
-1.23966e-07
3.57642e-07
-1.80352e-07
5.76506e-07
-2.18864e-07
8.15741e-07
-2.39236e-07
1.05903e-06
-2.43292e-07
1.29285e-06
-2.33816e-07
1.50692e-06
-2.14066e-07
1.69434e-06
-1.87426e-07
1.85148e-06
-1.57141e-07
1.97758e-06
-1.26097e-07
2.07422e-06
-9.66449e-08
2.14472e-06
-7.04982e-08
2.19342e-06
-4.86939e-08
2.22503e-06
-3.1616e-08
2.24419e-06
-1.91552e-08
2.25457e-06
-1.03854e-08
2.25885e-06
-4.27778e-09
2.25827e-06
5.81191e-10
2.25338e-06
4.88744e-09
2.24279e-06
1.05931e-08
2.22411e-06
1.86761e-08
2.19406e-06
3.00538e-08
2.14866e-06
4.5399e-08
2.0835e-06
6.5156e-08
1.99391e-06
8.95919e-08
1.87505e-06
1.1886e-07
1.72199e-06
1.53061e-07
1.5297e-06
1.92287e-07
1.29307e-06
2.36634e-07
1.00687e-06
2.86202e-07
6.65804e-07
3.41065e-07
2.64571e-07
4.01233e-07
-2.02053e-07
4.66624e-07
-7.39076e-07
5.37022e-07
-1.35114e-06
6.1206e-07
-2.04233e-06
6.91193e-07
-2.81602e-06
7.73696e-07
-3.67467e-06
8.5865e-07
-4.61962e-06
9.44948e-07
-5.65093e-06
1.03131e-06
-6.7672e-06
1.11627e-06
-7.96545e-06
1.19825e-06
-9.241e-06
1.27555e-06
-1.05874e-05
1.34637e-06
-1.19962e-05
1.40888e-06
-1.34575e-05
1.46126e-06
-1.49592e-05
1.5017e-06
-1.64877e-05
1.52849e-06
-1.80277e-05
1.53999e-06
-1.95624e-05
1.53474e-06
-2.10739e-05
1.51143e-06
-2.25428e-05
1.46893e-06
-2.39491e-05
1.40634e-06
-2.52721e-05
1.32301e-06
-2.64907e-05
1.21853e-06
-2.75835e-05
1.09278e-06
-2.85295e-05
9.46006e-07
-2.93082e-05
7.78765e-07
-2.99005e-05
5.92241e-07
-3.02885e-05
3.88044e-07
-3.04542e-05
1.65685e-07
-3.03806e-05
-7.3548e-08
-3.00612e-05
-3.19491e-07
-2.94853e-05
-5.75857e-07
-2.86481e-05
-8.37212e-07
-2.75488e-05
-1.09929e-06
-2.61914e-05
-1.35744e-06
-2.45847e-05
-1.60667e-06
-2.2743e-05
-1.84172e-06
-2.06858e-05
-2.0572e-06
-1.84381e-05
-2.24771e-06
-1.60299e-05
-2.40812e-06
-1.34963e-05
-2.53368e-06
-1.08759e-05
-2.62034e-06
-8.211e-06
-2.66492e-06
-5.54565e-06
-2.66534e-06
-2.92485e-06
-2.62081e-06
-3.92947e-07
-2.5319e-06
2.00773e-06
-2.40068e-06
4.23837e-06
-2.23064e-06
6.26498e-06
-2.02661e-06
8.05958e-06
-1.7946e-06
9.6011e-06
-1.54152e-06
1.08759e-05
-1.27485e-06
1.18783e-05
-1.00234e-06
1.26099e-05
-7.31616e-07
1.30798e-05
-4.69861e-07
1.33031e-05
-2.23301e-07
1.33052e-05
-2.12053e-09
1.31001e-05
2.05042e-07
1.27234e-05
3.76699e-07
1.22041e-05
5.19373e-07
1.15707e-05
6.33397e-07
1.0852e-05
7.18667e-07
1.00751e-05
7.76893e-07
9.2646e-06
8.10511e-07
8.44212e-06
8.22483e-07
7.62603e-06
8.16088e-07
6.83133e-06
7.94699e-07
6.06971e-06
7.61622e-07
5.34974e-06
7.19965e-07
4.6772e-06
6.72545e-07
4.05536e-06
6.21836e-07
3.48542e-06
5.69945e-07
2.96681e-06
5.18612e-07
2.49759e-06
4.69215e-07
2.07482e-06
4.22767e-07
1.69493e-06
3.79891e-07
1.35418e-06
3.40757e-07
1.04918e-06
3.04993e-07
7.77604e-07
2.71579e-07
5.38834e-07
2.3877e-07
3.34723e-07
2.04111e-07
1.69977e-07
1.64746e-07
5.17521e-08
1.18225e-07
-1.26394e-08
6.43915e-08
-2.20554e-08
9.41602e-09
-2.20554e-08
5.19826e-08
-5.10176e-08
2.45399e-07
-2.47703e-07
5.84011e-07
-4.62578e-07
1.04138e-06
-6.37721e-07
1.58109e-06
-7.58576e-07
2.16474e-06
-8.22882e-07
2.75642e-06
-8.34973e-07
3.32539e-06
-8.02783e-07
3.84749e-06
-7.3617e-07
4.30575e-06
-6.45687e-07
4.69026e-06
-5.4165e-07
4.99752e-06
-4.33355e-07
5.22936e-06
-3.28486e-07
5.39159e-06
-2.32732e-07
5.49251e-06
-1.49615e-07
5.54141e-06
-8.05144e-08
5.54714e-06
-2.4881e-08
5.51716e-06
1.95883e-08
5.45641e-06
5.64728e-08
5.36706e-06
8.99289e-08
5.24748e-06
1.24468e-07
5.09344e-06
1.64635e-07
4.89773e-06
2.14388e-07
4.65084e-06
2.76949e-07
4.3415e-06
3.54732e-07
3.95728e-06
4.49383e-07
3.48495e-06
5.61915e-07
2.91092e-06
6.92895e-07
2.22136e-06
8.42617e-07
1.40243e-06
1.01122e-06
4.40347e-07
1.19872e-06
-6.78436e-07
1.40499e-06
-1.96701e-06
1.62964e-06
-3.43773e-06
1.87195e-06
-5.10179e-06
2.13069e-06
-6.96885e-06
2.40408e-06
-9.04648e-06
2.68969e-06
-1.13397e-05
2.98442e-06
-1.38505e-05
3.28449e-06
-1.65773e-05
3.58546e-06
-1.95147e-05
3.8823e-06
-2.26529e-05
4.1695e-06
-2.59777e-05
4.44114e-06
-2.94706e-05
4.69108e-06
-3.31081e-05
4.91306e-06
-3.68626e-05
5.10092e-06
-4.07025e-05
5.24873e-06
-4.45922e-05
5.35095e-06
-4.8493e-05
5.40256e-06
-5.23637e-05
5.39921e-06
-5.6161e-05
5.33725e-06
-5.98401e-05
5.21384e-06
-6.33557e-05
5.02699e-06
-6.66623e-05
4.77553e-06
-6.97151e-05
4.45918e-06
-7.24706e-05
4.07851e-06
-7.4887e-05
3.63492e-06
-7.69249e-05
3.13065e-06
-7.85477e-05
2.56882e-06
-7.97224e-05
1.95345e-06
-8.04195e-05
1.28934e-06
-8.06136e-05
5.82173e-07
-8.02881e-05
-1.59806e-07
-7.94257e-05
-9.35928e-07
-7.80161e-05
-1.72913e-06
-7.60588e-05
-2.53314e-06
-7.35581e-05
-3.33791e-06
-7.05255e-05
-4.13187e-06
-6.69801e-05
-4.90283e-06
-6.29488e-05
-5.63797e-06
-5.84665e-05
-6.32407e-06
-5.35759e-05
-6.94774e-06
-4.83278e-05
-7.4958e-06
-4.27803e-05
-7.95565e-06
-3.69982e-05
-8.31578e-06
-3.10524e-05
-8.56619e-06
-2.50184e-05
-8.69892e-06
-1.89752e-05
-8.70848e-06
-1.30037e-05
-8.59231e-06
-7.18456e-06
-8.35105e-06
-1.59645e-06
-7.98879e-06
3.68601e-06
-7.5131e-06
8.59434e-06
-6.93493e-06
1.30681e-05
-6.26836e-06
1.70567e-05
-5.53012e-06
2.05208e-05
-4.73899e-06
2.34337e-05
-3.91516e-06
2.57814e-05
-3.07932e-06
2.75634e-05
-2.25193e-06
2.87928e-05
-1.45269e-06
2.94901e-05
-6.99369e-07
2.96944e-05
7.13695e-10
2.94544e-05
6.16733e-07
2.88158e-05
1.15792e-06
2.78372e-05
1.61196e-06
2.65783e-05
1.97758e-06
2.5099e-05
2.25621e-06
2.34576e-05
2.45199e-06
2.17086e-05
2.57146e-06
1.99018e-05
2.62291e-06
1.80807e-05
2.61576e-06
1.62823e-05
2.56003e-06
1.45365e-05
2.46575e-06
1.28665e-05
2.34257e-06
1.12889e-05
2.19941e-06
9.81462e-06
2.04422e-06
8.44934e-06
1.88388e-06
7.19449e-06
1.72407e-06
6.04807e-06
1.56918e-06
5.00576e-06
1.4222e-06
4.06205e-06
1.28447e-06
3.21154e-06
1.1555e-06
2.45049e-06
1.03263e-06
1.77828e-06
9.10977e-07
1.19876e-06
7.83636e-07
7.20733e-07
6.42772e-07
3.56912e-07
4.82046e-07
1.19706e-07
3.01598e-07
1.24803e-08
1.16641e-07
-9.57509e-09
1.17693e-07
-1.68711e-07
4.50773e-07
-5.80783e-07
9.72316e-07
-9.84121e-07
1.64364e-06
-1.30904e-06
2.41737e-06
-1.53231e-06
3.24381e-06
-1.64932e-06
4.07588e-06
-1.66704e-06
4.87255e-06
-1.59946e-06
5.60096e-06
-1.46457e-06
6.23728e-06
-1.28201e-06
6.76678e-06
-1.07115e-06
7.18301e-06
-8.49592e-07
7.48652e-06
-6.31993e-07
7.68306e-06
-4.29272e-07
7.78169e-06
-2.48247e-07
7.79279e-06
-9.16075e-08
7.72612e-06
4.17806e-08
7.58947e-06
1.5624e-07
7.38723e-06
2.58715e-07
7.1196e-06
3.57558e-07
6.78223e-06
4.61841e-07
6.36645e-06
5.80411e-07
5.85965e-06
7.21187e-07
5.24593e-06
8.9067e-07
4.50691e-06
1.09375e-06
3.62253e-06
1.33376e-06
2.57172e-06
1.61273e-06
1.33297e-06
1.93164e-06
-1.15211e-07
2.2908e-06
-1.79392e-06
2.68993e-06
-3.72345e-06
3.12824e-06
-5.92281e-06
3.60435e-06
-8.40923e-06
4.11606e-06
-1.11974e-05
4.66013e-06
-1.42989e-05
5.23214e-06
-1.7721e-05
5.82627e-06
-2.14666e-05
6.43529e-06
-2.55328e-05
7.05056e-06
-2.99104e-05
7.66213e-06
-3.45839e-05
8.25891e-06
-3.95305e-05
8.82895e-06
-4.47208e-05
9.35976e-06
-5.01183e-05
9.83863e-06
-5.56803e-05
1.02531e-05
-6.13584e-05
1.05912e-05
-6.70995e-05
1.08421e-05
-7.28468e-05
1.09959e-05
-7.85405e-05
1.10447e-05
-8.41199e-05
1.09819e-05
-8.95235e-05
1.08028e-05
-9.46909e-05
1.05047e-05
-9.95634e-05
1.00863e-05
-0.000104085
9.54838e-06
-0.000108202
8.89301e-06
-0.000111867
8.12381e-06
-0.000115034
7.24562e-06
-0.000117664
6.26449e-06
-0.00011972
5.18752e-06
-0.000121174
4.02279e-06
-0.000122
2.7794e-06
-0.000122179
1.46767e-06
-0.000121693
9.63159e-08
-0.000120536
-1.31631e-06
-0.000118707
-2.76498e-06
-0.000116205
-4.23111e-06
-0.000113039
-5.69917e-06
-0.000109224
-7.1529e-06
-0.000104782
-8.5745e-06
-9.97395e-05
-9.94504e-06
-9.41328e-05
-1.12447e-05
-8.80037e-05
-1.24532e-05
-8.14017e-05
-1.35497e-05
-7.43833e-05
-1.45141e-05
-6.70123e-05
-1.53267e-05
-5.93586e-05
-1.59694e-05
-5.14985e-05
-1.64262e-05
-4.35134e-05
-1.6684e-05
-3.54887e-05
-1.67332e-05
-2.75126e-05
-1.65684e-05
-1.96745e-05
-1.61891e-05
-1.20634e-05
-1.55999e-05
-4.7659e-06
-1.48106e-05
2.1358e-06
-1.38366e-05
8.56567e-06
-1.26982e-05
1.44559e-05
-1.14203e-05
1.97484e-05
-1.00316e-05
2.43969e-05
-8.56362e-06
2.83675e-05
-7.04992e-06
3.16401e-05
-5.52456e-06
3.42085e-05
-4.02109e-06
3.608e-05
-2.57081e-06
3.72832e-05
-1.20251e-06
3.78478e-05
5.21133e-08
3.78206e-05
1.18514e-06
3.72613e-05
2.17127e-06
3.62348e-05
3.00407e-06
3.48118e-05
3.67924e-06
3.30655e-05
4.19826e-06
3.10693e-05
4.56762e-06
2.88942e-05
4.79807e-06
2.66062e-05
4.90372e-06
2.42652e-05
4.90107e-06
2.1923e-05
4.8079e-06
1.96232e-05
4.64238e-06
1.74004e-05
4.42218e-06
1.52808e-05
4.16382e-06
1.32826e-05
3.88213e-06
1.14168e-05
3.58984e-06
9.68873e-06
3.29727e-06
8.09904e-06
3.01189e-06
6.64557e-06
2.73795e-06
5.3251e-06
2.47596e-06
4.1354e-06
2.22233e-06
3.0771e-06
1.96927e-06
2.15535e-06
1.7054e-06
1.38037e-06
1.41775e-06
7.66583e-07
1.09584e-06
3.28926e-07
7.39255e-07
7.62159e-08
3.69351e-07
6.66408e-08
1.70934e-07
-3.39645e-07
6.2053e-07
-1.03038e-06
1.29209e-06
-1.65568e-06
2.13045e-06
-2.1474e-06
3.0773e-06
-2.47916e-06
4.07431e-06
-2.64634e-06
5.06706e-06
-2.65978e-06
6.00817e-06
-2.54057e-06
6.85946e-06
-2.31586e-06
7.59287e-06
-2.01543e-06
8.19046e-06
-1.66873e-06
8.64345e-06
-1.30258e-06
8.95074e-06
-9.3928e-07
9.1169e-06
-5.9543e-07
9.14996e-06
-2.81305e-07
9.05921e-06
-8.58241e-10
8.85288e-06
2.48109e-07
8.53654e-06
4.72576e-07
8.11162e-06
6.83641e-07
7.5744e-06
8.94776e-07
6.91579e-06
1.12045e-06
6.12144e-06
1.37476e-06
5.17236e-06
1.67027e-06
4.04578e-06
2.01725e-06
2.71618e-06
2.42334e-06
1.15632e-06
2.89363e-06
-6.61863e-07
3.43091e-06
-2.76636e-06
4.03614e-06
-5.18437e-06
4.70881e-06
-7.94152e-06
5.44707e-06
-1.10611e-05
6.24778e-06
-1.4563e-05
7.10626e-06
-1.84629e-05
8.01602e-06
-2.27713e-05
8.96849e-06
-2.74919e-05
9.95276e-06
-3.26212e-05
1.09556e-05
-3.81472e-05
1.19613e-05
-4.4049e-05
1.29523e-05
-5.02963e-05
1.39095e-05
-5.68498e-05
1.48123e-05
-6.3661e-05
1.56402e-05
-7.06739e-05
1.63726e-05
-7.78255e-05
1.69902e-05
-8.50477e-05
1.74752e-05
-9.22687e-05
1.78122e-05
-9.94152e-05
1.79885e-05
-0.000106414
1.79945e-05
-0.000113192
1.78235e-05
-0.000119683
1.74721e-05
-0.00012582
1.694e-05
-0.000131544
1.62291e-05
-0.000136802
1.53441e-05
-0.000141545
1.42914e-05
-0.000145731
1.30792e-05
-0.000149324
1.17168e-05
-0.000152293
1.02147e-05
-0.000154613
8.5843e-06
-0.000156263
6.83761e-06
-0.000157228
4.98737e-06
-0.000157496
3.04703e-06
-0.000157058
1.03062e-06
-0.000155915
-1.04731e-06
-0.000154062
-3.16955e-06
-0.000151506
-5.32035e-06
-0.000148256
-7.48103e-06
-0.000144324
-9.63166e-06
-0.000139726
-1.1751e-05
-0.000134484
-1.38165e-05
-0.000128625
-1.58039e-05
-0.000122182
-1.76879e-05
-0.000115193
-1.94422e-05
-0.000107703
-2.10396e-05
-9.97635e-05
-2.24533e-05
-9.14332e-05
-2.3657e-05
-8.27767e-05
-2.46259e-05
-7.38653e-05
-2.53376e-05
-6.47761e-05
-2.57732e-05
-5.55915e-05
-2.59179e-05
-4.63975e-05
-2.57624e-05
-3.72833e-05
-2.53033e-05
-2.8339e-05
-2.45442e-05
-1.96543e-05
-2.34954e-05
-1.13164e-05
-2.21745e-05
-3.40855e-06
-2.06061e-05
3.99205e-06
-1.88209e-05
1.0816e-05
-1.68555e-05
1.7003e-05
-1.47507e-05
2.25036e-05
-1.25506e-05
2.72802e-05
-1.03011e-05
3.13077e-05
-8.04857e-06
3.45751e-05
-5.83823e-06
3.70858e-05
-3.71321e-06
3.88511e-05
-1.71325e-06
3.99065e-05
1.29813e-07
4.02917e-05
1.78605e-06
4.00611e-05
3.23462e-06
3.92786e-05
4.46174e-06
3.80156e-05
5.46126e-06
3.63487e-05
6.23457e-06
3.43566e-05
6.79013e-06
3.21178e-05
7.1426e-06
2.97071e-05
7.31171e-06
2.71941e-05
7.32087e-06
2.46408e-05
7.1957e-06
2.21003e-05
6.96265e-06
1.96165e-05
6.64767e-06
1.72235e-05
6.2751e-06
1.49466e-05
5.86674e-06
1.28029e-05
5.44098e-06
1.08028e-05
5.01201e-06
8.95174e-06
4.58901e-06
7.25232e-06
4.17538e-06
5.7065e-06
3.76815e-06
4.31789e-06
3.35789e-06
3.09362e-06
2.92966e-06
2.04565e-06
2.46572e-06
1.19081e-06
1.95067e-06
5.4968e-07
1.38039e-06
1.44602e-07
7.74429e-07
2.11242e-07
2.10888e-07
-5.50532e-07
7.51072e-07
-1.57056e-06
1.53976e-06
-2.44436e-06
2.5045e-06
-3.11214e-06
3.5752e-06
-3.54987e-06
4.68533e-06
-3.75646e-06
5.77449e-06
-3.74894e-06
6.79095e-06
-3.55702e-06
7.69329e-06
-3.21821e-06
8.45113e-06
-2.77326e-06
9.04469e-06
-2.2623e-06
9.46373e-06
-1.72162e-06
9.70566e-06
-1.18122e-06
9.77342e-06
-6.63181e-07
9.67295e-06
-1.80837e-07
9.41078e-06
2.61313e-07
8.99187e-06
6.67016e-07
8.41748e-06
1.04696e-06
7.68392e-06
1.4172e-06
6.78162e-06
1.79707e-06
5.69495e-06
2.20712e-06
4.40257e-06
2.66714e-06
2.87829e-06
3.19455e-06
1.09219e-06
3.80335e-06
-9.8804e-07
4.50358e-06
-3.39583e-06
5.30142e-06
-6.16446e-06
6.19954e-06
-9.32585e-06
7.19753e-06
-1.29094e-05
8.29235e-06
-1.69407e-05
9.4784e-06
-2.14404e-05
1.07474e-05
-2.64224e-05
1.20883e-05
-3.18929e-05
1.34865e-05
-3.78487e-05
1.49243e-05
-4.42763e-05
1.63804e-05
-5.11508e-05
1.78301e-05
-5.84358e-05
1.92462e-05
-6.60832e-05
2.05998e-05
-7.40345e-05
2.18607e-05
-8.22215e-05
2.29993e-05
-9.05685e-05
2.39873e-05
-9.89946e-05
2.47988e-05
-0.000107416
2.54115e-05
-0.000115748
2.58074e-05
-0.000123909
2.5973e-05
-0.00013182
2.58994e-05
-0.000139408
2.55828e-05
-0.000146608
2.50234e-05
-0.000153361
2.42251e-05
-0.000159616
2.31952e-05
-0.000165331
2.19436e-05
-0.000170468
2.04818e-05
-0.000175
1.88229e-05
-0.000178901
1.69809e-05
-0.000182155
1.49703e-05
-0.000184746
1.28058e-05
-0.000186664
1.05023e-05
-0.000187901
8.07481e-06
-0.000188452
5.53859e-06
-0.000188314
2.90905e-06
-0.000187486
2.02204e-07
-0.000185968
-2.56544e-06
-0.000183761
-5.37602e-06
-0.000180871
-8.21081e-06
-0.000177303
-1.10492e-05
-0.000173066
-1.38689e-05
-0.000168171
-1.66459e-05
-0.000162633
-1.93538e-05
-0.000156473
-2.19643e-05
-0.000149714
-2.44472e-05
-0.000142385
-2.67707e-05
-0.000134523
-2.89015e-05
-0.00012617
-3.08061e-05
-0.000117376
-3.24512e-05
-0.000108198
-3.38045e-05
-9.8699e-05
-3.48364e-05
-8.89513e-05
-3.55209e-05
-7.90324e-05
-3.58368e-05
-6.90256e-05
-3.57692e-05
-5.90184e-05
-3.53105e-05
-4.91013e-05
-3.44613e-05
-3.93657e-05
-3.3231e-05
-2.99022e-05
-3.16379e-05
-2.07989e-05
-2.97094e-05
-1.21391e-05
-2.74808e-05
-3.99968e-06
-2.49949e-05
3.55016e-06
-2.23005e-05
1.04504e-05
-1.94508e-05
1.66514e-05
-1.65021e-05
2.21144e-05
-1.35115e-05
2.68124e-05
-1.05363e-05
3.07304e-05
-7.63119e-06
3.38653e-05
-4.84814e-06
3.62286e-05
-2.23354e-06
3.78432e-05
1.7152e-07
3.87444e-05
2.33338e-06
3.898e-05
4.22615e-06
3.86082e-05
5.83301e-06
3.76966e-05
7.14625e-06
3.63193e-05
8.16742e-06
3.4555e-05
8.90687e-06
3.24838e-05
9.38289e-06
3.01844e-05
9.62032e-06
2.77311e-05
9.64897e-06
2.5192e-05
9.50173e-06
2.26269e-05
9.21278e-06
2.00863e-05
8.81572e-06
1.7611e-05
8.34199e-06
1.52327e-05
7.81932e-06
1.29745e-05
7.27025e-06
1.08526e-05
6.71084e-06
8.87866e-06
6.14936e-06
7.0614e-06
5.58541e-06
5.40961e-06
5.00968e-06
3.93429e-06
4.40498e-06
2.65083e-06
3.74918e-06
1.58072e-06
3.02079e-06
7.53142e-07
2.20796e-06
2.07328e-07
1.32024e-06
4.1857e-07
2.40146e-07
-7.90678e-07
8.48183e-07
-2.1786e-06
1.72417e-06
-3.32035e-06
2.77932e-06
-4.16729e-06
3.93147e-06
-4.70202e-06
5.10571e-06
-4.9307e-06
6.23612e-06
-4.87935e-06
7.26756e-06
-4.58846e-06
8.1567e-06
-4.10735e-06
8.87211e-06
-3.48867e-06
9.39339e-06
-2.78358e-06
9.70958e-06
-2.0378e-06
9.81695e-06
-1.28859e-06
9.71653e-06
-5.62764e-07
9.41145e-06
1.24245e-07
8.90435e-06
7.6841e-07
8.19514e-06
1.37622e-06
7.27906e-06
1.96304e-06
6.14545e-06
2.55082e-06
4.77712e-06
3.1654e-06
3.15049e-06
3.83375e-06
1.23629e-06
4.58134e-06
-9.99163e-07
5.43001e-06
-3.59247e-06
6.39665e-06
-6.58146e-06
7.49257e-06
-1.00035e-05
8.72346e-06
-1.38938e-05
1.00899e-05
-1.8284e-05
1.15876e-05
-2.31999e-05
1.32083e-05
-2.86603e-05
1.49389e-05
-3.46752e-05
1.67622e-05
-4.12433e-05
1.86564e-05
-4.83514e-05
2.05947e-05
-5.59729e-05
2.25458e-05
-6.40671e-05
2.44745e-05
-7.25796e-05
2.63425e-05
-8.14431e-05
2.81098e-05
-9.05795e-05
2.97362e-05
-9.99022e-05
3.11834e-05
-0.000109319
3.2416e-05
-0.000118735
3.34036e-05
-0.000128058
3.41214e-05
-0.000137197
3.45509e-05
-0.000146071
3.46807e-05
-0.000154603
3.45053e-05
-0.000162729
3.40256e-05
-0.000170393
3.32471e-05
-0.00017755
3.21798e-05
-0.000184161
3.08367e-05
-0.000190199
2.92333e-05
-0.000195642
2.73861e-05
-0.000200473
2.53127e-05
-0.000204681
2.30308e-05
-0.000208257
2.05577e-05
-0.000211198
1.79105e-05
-0.000213498
1.51057e-05
-0.000215154
1.21592e-05
-0.000216166
9.08658e-06
-0.000216531
5.90336e-06
-0.000216247
2.62497e-06
-0.000215312
-7.32609e-07
-0.000213725
-4.15276e-06
-0.000211483
-7.61744e-06
-0.000208587
-1.11074e-05
-0.000205035
-1.4601e-05
-0.000200829
-1.80747e-05
-0.000195973
-2.15022e-05
-0.000190472
-2.48545e-05
-0.000184337
-2.80997e-05
-0.000177581
-3.12034e-05
-0.000170223
-3.41283e-05
-0.000162289
-3.68354e-05
-0.000153811
-3.92839e-05
-0.00014483
-4.1433e-05
-0.000135392
-4.32423e-05
-0.000125555
-4.46737e-05
-0.000115383
-4.56924e-05
-0.00010495
-4.62694e-05
-9.43375e-05
-4.63821e-05
-8.36314e-05
-4.60167e-05
-7.29237e-05
-4.5169e-05
-6.23092e-05
-4.38455e-05
-5.18834e-05
-4.20638e-05
-4.174e-05
-3.98527e-05
-3.19693e-05
-3.72514e-05
-2.26557e-05
-3.43085e-05
-1.38761e-05
-3.10801e-05
-5.69853e-06
-2.76285e-05
1.81896e-06
-2.40196e-05
8.62862e-06
-2.03212e-05
1.46935e-05
-1.66011e-05
1.99874e-05
-1.29251e-05
2.44951e-05
-9.35588e-06
2.82127e-05
-5.95108e-06
3.11471e-05
-2.76289e-06
3.33169e-05
1.63514e-07
3.47521e-05
2.79103e-06
3.54937e-05
5.09132e-06
3.5594e-05
7.04597e-06
3.51146e-05
8.64683e-06
3.41252e-05
9.89625e-06
3.27014e-05
1.08067e-05
3.09217e-05
1.14e-05
2.88648e-05
1.17058e-05
2.6607e-05
1.17595e-05
2.42192e-05
1.16006e-05
2.1765e-05
1.12699e-05
1.92996e-05
1.08074e-05
1.68688e-05
1.02501e-05
1.45097e-05
9.62938e-06
1.2251e-05
8.96949e-06
1.01152e-05
8.28517e-06
8.12024e-06
7.58039e-06
6.28224e-06
6.84768e-06
4.61834e-06
6.06888e-06
3.14959e-06
5.21793e-06
1.9043e-06
4.26608e-06
9.22046e-07
3.19022e-06
2.59087e-07
1.9832e-06
6.77657e-07
2.61861e-07
-1.05254e-06
9.19553e-07
-2.83629e-06
1.85698e-06
-4.25778e-06
2.97028e-06
-5.28059e-06
4.16545e-06
-5.89719e-06
5.35922e-06
-6.12447e-06
6.48047e-06
-6.0006e-06
7.47132e-06
-5.57931e-06
8.28744e-06
-4.92347e-06
8.89735e-06
-4.09858e-06
9.28092e-06
-3.16715e-06
9.42707e-06
-2.18395e-06
9.33115e-06
-1.19266e-06
8.99202e-06
-2.23634e-07
8.40925e-06
7.07017e-07
7.58044e-06
1.59721e-06
6.49903e-06
2.45764e-06
5.1526e-06
3.30947e-06
3.52197e-06
4.18145e-06
1.58106e-06
5.10631e-06
-7.02454e-07
6.11727e-06
-3.36587e-06
7.24476e-06
-6.44964e-06
8.51378e-06
-9.99532e-06
9.94233e-06
-1.40434e-05
1.15406e-05
-1.86312e-05
1.33113e-05
-2.37906e-05
1.52493e-05
-2.95462e-05
1.73432e-05
-3.59128e-05
1.95748e-05
-4.28933e-05
2.19194e-05
-5.0477e-05
2.43459e-05
-5.86379e-05
2.68173e-05
-6.73339e-05
2.92907e-05
-7.65069e-05
3.17188e-05
-8.60835e-05
3.40511e-05
-9.59776e-05
3.62366e-05
-0.000106093
3.82254e-05
-0.000116328
3.99713e-05
-0.000126579
4.14339e-05
-0.000136743
4.258e-05
-0.000146724
4.33848e-05
-0.000156435
4.38324e-05
-0.000165799
4.39149e-05
-0.000174751
4.36326e-05
-0.000183238
4.29921e-05
-0.000191217
4.20054e-05
-0.000198659
4.06885e-05
-0.000205539
3.90603e-05
-0.000211844
3.7141e-05
-0.000217562
3.49518e-05
-0.000222689
3.25134e-05
-0.000227223
2.98464e-05
-0.000231162
2.69701e-05
-0.000234507
2.39028e-05
-0.000237259
2.06617e-05
-0.000239416
1.72631e-05
-0.000240979
1.3722e-05
-0.000241946
1.00533e-05
-0.000242314
6.27127e-06
-0.000242079
2.39036e-06
-0.000241237
-1.57448e-06
-0.000239783
-5.6074e-06
-0.000237709
-9.69107e-06
-0.00023501
-1.38064e-05
-0.000231679
-1.79318e-05
-0.00022771
-2.20432e-05
-0.0002231
-2.61131e-05
-0.000217843
-3.01106e-05
-0.000211942
-3.40013e-05
-0.000205398
-3.77469e-05
-0.000198221
-4.13059e-05
-0.000190423
-4.46332e-05
-0.000182025
-4.76816e-05
-0.000173056
-5.04023e-05
-0.000163552
-5.2746e-05
-0.000153561
-5.4665e-05
-0.000143139
-5.61146e-05
-0.000132353
-5.70553e-05
-0.00012128
-5.74549e-05
-0.000110006
-5.72903e-05
-9.86254e-05
-5.655e-05
-8.7236e-05
-5.52348e-05
-7.59406e-05
-5.33592e-05
-6.48417e-05
-5.09516e-05
-5.40395e-05
-4.80536e-05
-4.36292e-05
-4.47188e-05
-3.3698e-05
-4.10113e-05
-2.43239e-05
-3.70026e-05
-1.55739e-05
-3.27695e-05
-7.50367e-06
-2.83914e-05
-1.57212e-07
-2.39476e-05
6.43259e-06
-1.95149e-05
1.22434e-05
-1.51667e-05
1.72631e-05
-1.09708e-05
2.14892e-05
-6.98894e-06
2.49285e-05
-3.27584e-06
2.75979e-05
1.21706e-07
2.95237e-05
3.16553e-06
3.07426e-05
5.82701e-06
3.13015e-05
8.08794e-06
3.12566e-05
9.94112e-06
3.06727e-05
1.13907e-05
2.96209e-05
1.24518e-05
2.81768e-05
1.31499e-05
2.64172e-05
1.35191e-05
2.44179e-05
1.36e-05
2.22503e-05
1.34375e-05
1.99801e-05
1.30777e-05
1.76651e-05
1.25651e-05
1.53548e-05
1.19396e-05
1.30907e-05
1.12337e-05
1.09066e-05
1.04692e-05
8.83112e-06
9.65587e-06
6.88952e-06
8.78928e-06
5.10696e-06
7.85144e-06
3.51214e-06
6.81274e-06
2.14176e-06
5.63645e-06
1.04624e-06
4.28574e-06
2.9696e-07
2.73248e-06
9.74617e-07
2.78431e-07
-1.33097e-06
9.71334e-07
-3.5292e-06
1.94762e-06
-5.23406e-06
3.08927e-06
-6.42225e-06
4.29099e-06
-7.09891e-06
5.46159e-06
-7.29508e-06
6.5253e-06
-7.0643e-06
7.42222e-06
-6.47623e-06
8.10785e-06
-5.6091e-06
8.55154e-06
-4.54227e-06
8.73402e-06
-3.34963e-06
8.64447e-06
-2.0944e-06
8.27724e-06
-8.25427e-07
7.62858e-06
4.2502e-07
6.69364e-06
1.64196e-06
5.46379e-06
2.82706e-06
3.92464e-06
3.99678e-06
2.0548e-06
5.17931e-06
-1.74471e-07
6.41072e-06
-2.7987e-06
7.73054e-06
-5.85876e-06
9.17733e-06
-9.39878e-06
1.07848e-05
-1.34637e-05
1.25787e-05
-1.80965e-05
1.45751e-05
-2.33355e-05
1.67797e-05
-2.9212e-05
1.91877e-05
-3.57472e-05
2.17845e-05
-4.29499e-05
2.4546e-05
-5.08145e-05
2.74393e-05
-5.93183e-05
3.04232e-05
-6.8421e-05
3.34486e-05
-7.80637e-05
3.646e-05
-8.817e-05
3.93971e-05
-9.86485e-05
4.21972e-05
-0.000109396
4.47983e-05
-0.000120301
4.71417e-05
-0.00013125
4.91751e-05
-0.000142134
5.08549e-05
-0.000152848
5.21475e-05
-0.000163298
5.30303e-05
-0.000173404
5.34913e-05
-0.000183101
5.35285e-05
-0.000192334
5.31481e-05
-0.000201064
5.23634e-05
-0.000209265
5.11925e-05
-0.000216917
4.96573e-05
-0.00022401
4.77814e-05
-0.000230539
4.55895e-05
-0.000236504
4.3106e-05
-0.000241907
4.03545e-05
-0.000246751
3.73574e-05
-0.00025104
3.41356e-05
-0.000254778
3.07084e-05
-0.000257969
2.70934e-05
-0.000260614
2.33068e-05
-0.000262714
1.93636e-05
-0.00026427
1.52777e-05
-0.000265279
1.10623e-05
-0.000265738
6.73034e-06
-0.000265642
2.29465e-06
-0.000264986
-2.23125e-06
-0.00026376
-6.83294e-06
-0.000261957
-1.14944e-05
-0.000259565
-1.61978e-05
-0.000256575
-2.09223e-05
-0.000252974
-2.56444e-05
-0.00024875
-3.03367e-05
-0.000243893
-3.49678e-05
-0.000238392
-3.95019e-05
-0.00023224
-4.38987e-05
-0.000225433
-4.81131e-05
-0.000217971
-5.20956e-05
-0.000209859
-5.5793e-05
-0.000201113
-5.9149e-05
-0.000191753
-6.21055e-05
-0.000181814
-6.46044e-05
-0.000171339
-6.65896e-05
-0.000160385
-6.80093e-05
-0.000149021
-6.88187e-05
-0.000137329
-6.89823e-05
-0.000125402
-6.84773e-05
-0.000113342
-6.72948e-05
-0.000101259
-6.54424e-05
-8.92657e-05
-6.29445e-05
-7.74771e-05
-5.98422e-05
-6.60032e-05
-5.61927e-05
-5.49475e-05
-5.20669e-05
-4.44035e-05
-4.75466e-05
-3.44522e-05
-4.27209e-05
-2.51608e-05
-3.76828e-05
-1.65827e-05
-3.25257e-05
-8.75728e-06
-2.73403e-05
-1.71176e-06
-2.22122e-05
4.5379e-06
-1.72205e-05
9.98533e-06
-1.24364e-05
1.46327e-05
-7.92318e-06
1.849e-05
-3.73564e-06
2.15752e-05
8.02939e-08
2.39143e-05
3.48791e-06
2.55418e-05
6.46045e-06
2.65011e-05
8.98183e-06
2.68444e-05
1.10474e-05
2.66321e-05
1.26642e-05
2.59312e-05
1.38508e-05
2.48137e-05
1.46366e-05
2.33537e-05
1.506e-05
2.16252e-05
1.5166e-05
1.96989e-05
1.50039e-05
1.76409e-05
1.46231e-05
1.55105e-05
1.407e-05
1.33598e-05
1.33843e-05
1.12339e-05
1.25951e-05
9.17203e-06
1.17178e-05
7.20944e-06
1.07519e-05
5.38065e-06
9.68023e-06
3.72325e-06
8.47014e-06
2.28307e-06
7.07663e-06
1.12071e-06
5.4481e-06
3.19585e-07
3.53361e-06
1.2942e-06
2.91255e-07
-1.62223e-06
1.00711e-06
-4.24505e-06
2.00137e-06
-6.22832e-06
3.14252e-06
-7.56339e-06
4.31468e-06
-8.27107e-06
5.41959e-06
-8.39999e-06
6.3777e-06
-8.02241e-06
7.12807e-06
-7.22661e-06
7.62696e-06
-6.10799e-06
7.84519e-06
-4.76051e-06
7.76482e-06
-3.26926e-06
7.3753e-06
-1.70488e-06
6.66963e-06
-1.19755e-07
5.64071e-06
1.45394e-06
4.27821e-06
3.00446e-06
2.56608e-06
4.53919e-06
4.80977e-07
6.08189e-06
-2.00833e-06
7.66862e-06
-4.94042e-06
9.34281e-06
-8.35967e-06
1.11498e-05
-1.23138e-05
1.31315e-05
-1.6851e-05
1.5322e-05
-2.20164e-05
1.77441e-05
-2.78489e-05
2.04076e-05
-3.4378e-05
2.33087e-05
-4.16204e-05
2.64302e-05
-4.9578e-05
2.97421e-05
-5.82346e-05
3.32026e-05
-6.75547e-05
3.67594e-05
-7.74824e-05
4.03509e-05
-8.79416e-05
4.39079e-05
-9.88386e-05
4.7357e-05
-0.000110065
5.06234e-05
-0.000121503
5.36347e-05
-0.000133029
5.6325e-05
-0.000144525
5.86372e-05
-0.000155876
6.05266e-05
-0.000166982
6.19608e-05
-0.000177756
6.2921e-05
-0.000188126
6.34004e-05
-0.000198037
6.3403e-05
-0.000207451
6.29416e-05
-0.000216338
6.20356e-05
-0.000224684
6.07088e-05
-0.000232479
5.8988e-05
-0.000239723
5.69011e-05
-0.000246418
5.44762e-05
-0.000252569
5.17405e-05
-0.000258183
4.87201e-05
-0.000263267
4.54393e-05
-0.00026783
4.19204e-05
-0.000271879
3.81838e-05
-0.000275418
3.4248e-05
-0.000278455
3.01298e-05
-0.000280992
2.58442e-05
-0.000283034
2.14049e-05
-0.00028458
1.68242e-05
-0.000285632
1.2114e-05
-0.000286187
7.28529e-06
-0.000286241
2.34926e-06
-0.00028579
-2.6826e-06
-0.000284825
-7.79788e-06
-0.000283337
-1.29828e-05
-0.000281313
-1.82214e-05
-0.00027874
-2.34952e-05
-0.000275602
-2.87824e-05
-0.000271881
-3.40573e-05
-0.000267559
-3.92897e-05
-0.000262617
-4.44443e-05
-0.000257035
-4.94804e-05
-0.000250797
-5.43514e-05
-0.000243887
-5.90053e-05
-0.000236296
-6.33844e-05
-0.000228019
-6.74262e-05
-0.00021906
-7.10647e-05
-0.000209432
-7.42316e-05
-0.000199163
-7.68588e-05
-0.000188292
-7.88807e-05
-0.000176873
-8.02372e-05
-0.000164979
-8.08771e-05
-0.000152694
-8.07616e-05
-0.000140122
-7.98672e-05
-0.000127376
-7.81888e-05
-0.000114579
-7.57412e-05
-0.000101861
-7.25603e-05
-8.93508e-05
-6.87025e-05
-7.7175e-05
-6.42428e-05
-6.54494e-05
-5.92722e-05
-5.42776e-05
-5.38927e-05
-4.37467e-05
-4.82137e-05
-3.39264e-05
-4.2346e-05
-2.48684e-05
-3.63983e-05
-1.66077e-05
-3.0473e-05
-9.16435e-06
-2.46638e-05
-2.5463e-06
-1.90544e-05
3.24838e-06
-1.37179e-05
8.22938e-06
-8.71664e-06
1.24129e-05
-4.10323e-06
1.58211e-05
7.97019e-08
1.84823e-05
3.79924e-06
2.04315e-05
7.03264e-06
2.1711e-05
9.76791e-06
2.23707e-05
1.20045e-05
2.24679e-05
1.37535e-05
2.20665e-05
1.5038e-05
2.12351e-05
1.58914e-05
2.0045e-05
1.63562e-05
1.85678e-05
1.64811e-05
1.68732e-05
1.63177e-05
1.50267e-05
1.59165e-05
1.30886e-05
1.53225e-05
1.11132e-05
1.45705e-05
9.14972e-06
1.36813e-05
7.24325e-06
1.26583e-05
5.438e-06
1.14855e-05
3.78088e-06
1.01273e-05
2.32672e-06
8.53079e-06
1.14483e-06
6.62999e-06
3.26874e-07
4.35157e-06
1.62108e-06
3.00776e-07
-1.923e-06
1.02783e-06
-4.9721e-06
2.01923e-06
-7.21973e-06
3.13042e-06
-8.67458e-06
4.23593e-06
-9.37658e-06
5.23164e-06
-9.39569e-06
6.03552e-06
-8.82629e-06
6.58678e-06
-7.77787e-06
6.84333e-06
-6.36455e-06
6.77811e-06
-4.69528e-06
6.37463e-06
-2.86577e-06
5.62232e-06
-9.52579e-07
4.51216e-06
9.90412e-07
3.03267e-06
2.93342e-06
1.16691e-06
4.87022e-06
-1.10967e-06
6.81578e-06
-3.83011e-06
8.80233e-06
-7.03551e-06
1.0874e-05
-1.07734e-05
1.30807e-05
-1.50949e-05
1.54713e-05
-2.00513e-05
1.80879e-05
-2.56898e-05
2.09605e-05
-3.20496e-05
2.41039e-05
-3.9158e-05
2.7516e-05
-4.7027e-05
3.11777e-05
-5.56502e-05
3.50534e-05
-6.50007e-05
3.90925e-05
-7.50292e-05
4.32311e-05
-8.56642e-05
4.73944e-05
-9.68131e-05
5.14998e-05
-0.000108366
5.54606e-05
-0.000120199
5.91902e-05
-0.000132183
6.26071e-05
-0.000144187
6.56389e-05
-0.000156088
6.82257e-05
-0.000167773
7.03226e-05
-0.000179146
7.19e-05
-0.000190129
7.29434e-05
-0.00020066
7.34516e-05
-0.000210694
7.34347e-05
-0.000220202
7.29115e-05
-0.000229168
7.19069e-05
-0.000237582
7.04496e-05
-0.000245444
6.85707e-05
-0.000252757
6.63018e-05
-0.00025953
6.36741e-05
-0.000265772
6.07177e-05
-0.000271492
5.7461e-05
-0.000276703
5.39305e-05
-0.000281414
5.01505e-05
-0.000285637
4.61432e-05
-0.000289382
4.19285e-05
-0.000292658
3.75245e-05
-0.000295475
3.29468e-05
-0.00029784
2.82097e-05
-0.000299761
2.33256e-05
-0.000301242
1.83053e-05
-0.000302287
1.3159e-05
-0.000302898
7.89572e-06
-0.000303073
2.52444e-06
-0.00030281
-2.94583e-06
-0.000302102
-8.5054e-06
-0.000300941
-1.41434e-05
-0.000299316
-1.98471e-05
-0.00029721
-2.56011e-05
-0.000294605
-3.1387e-05
-0.00029148
-3.71823e-05
-0.00028781
-4.29596e-05
-0.000283569
-4.86862e-05
-0.000278726
-5.43234e-05
-0.000273251
-5.98255e-05
-0.000267117
-6.51402e-05
-0.000260293
-7.02079e-05
-0.000252757
-7.49625e-05
-0.00024449
-7.93316e-05
-0.000235483
-8.32385e-05
-0.000225738
-8.66036e-05
-0.000215272
-8.93472e-05
-0.000204116
-9.13926e-05
-0.000192323
-9.267e-05
-0.000179964
-9.31206e-05
-0.000167131
-9.27005e-05
-0.000153935
-9.13852e-05
-0.000140503
-8.91728e-05
-0.000126978
-8.60859e-05
-0.000113507
-8.21733e-05
-0.000100241
-7.75082e-05
-8.73272e-05
-7.21864e-05
-7.48987e-05
-6.63212e-05
-6.30738e-05
-6.00386e-05
-5.19497e-05
-5.34701e-05
-4.16009e-05
-4.67471e-05
-3.20791e-05
-3.99948e-05
-2.34148e-05
-3.3328e-05
-1.56208e-05
-2.68485e-05
-8.69523e-06
-2.06434e-05
-2.62578e-06
-1.47861e-05
2.60726e-06
-9.33627e-06
7.02892e-06