/*--------------------------------*- C++ -*----------------------------------*\
| =========                 |                                                 |
| \\      /  F ield         | OpenFOAM: The Open Source CFD Toolbox           |
|  \\    /   O peration     | Version:  2406                                  |
|   \\  /    A nd           | Website:  www.openfoam.com                      |
|    \\/     M anipulation  |                                                 |
\*---------------------------------------------------------------------------*/
FoamFile
{
    version     2.0;
    format      ascii;
    arch        "LSB;label=32;scalar=64";
    class       volVectorField;
    location    "23.35";
    object      U;
}
// * * * * * * * * * * * * * * * * * * * * * * * * * * * * * * * * * * * * * //

dimensions      [0 1 -1 0 0 0 0];

internalField   nonuniform List<vector> 
14400
(
(-4.64203e-06 4.61912e-06 0)
(2.17824e-05 -1.40989e-05 0)
(9.80394e-05 -2.87771e-05 0)
(0.000203756 -3.89318e-05 0)
(0.000332241 -4.30391e-05 0)
(0.00046615 -4.43015e-05 0)
(0.000602464 -4.29954e-05 0)
(0.000732206 -4.06684e-05 0)
(0.000854866 -3.7438e-05 0)
(0.000966398 -3.39726e-05 0)
(0.00106726 -3.02894e-05 0)
(0.00115587 -2.66664e-05 0)
(0.0012329 -2.308e-05 0)
(0.00129787 -1.96336e-05 0)
(0.00135133 -1.6291e-05 0)
(0.00139319 -1.30799e-05 0)
(0.0014238 -9.96232e-06 0)
(0.00144311 -6.92988e-06 0)
(0.00145121 -3.93951e-06 0)
(0.00144788 -9.56929e-07 0)
(0.00143287 2.07576e-06 0)
(0.00140566 5.21982e-06 0)
(0.00136554 8.55512e-06 0)
(0.00131147 1.21691e-05 0)
(0.00124217 1.61619e-05 0)
(0.00115599 2.06386e-05 0)
(0.00105096 2.57086e-05 0)
(0.000924766 3.14793e-05 0)
(0.000774759 3.80538e-05 0)
(0.000598003 4.55256e-05 0)
(0.0003913 5.39772e-05 0)
(0.00015124 6.34764e-05 0)
(-0.000125738 7.40752e-05 0)
(-0.000443279 8.58074e-05 0)
(-0.000805041 9.86867e-05 0)
(-0.00121461 0.000112704 0)
(-0.0016754 0.000127825 0)
(-0.00219057 0.000143985 0)
(-0.00276288 0.000161088 0)
(-0.0033946 0.000178999 0)
(-0.00408735 0.000197546 0)
(-0.00484199 0.000216513 0)
(-0.00565846 0.000235644 0)
(-0.00653565 0.000254637 0)
(-0.00747131 0.000273152 0)
(-0.0084619 0.000290808 0)
(-0.00950249 0.000307191 0)
(-0.0105867 0.000321861 0)
(-0.0117068 0.000334353 0)
(-0.0128535 0.000344194 0)
(-0.0140159 0.000350904 0)
(-0.0151819 0.000354008 0)
(-0.016338 0.000353051 0)
(-0.0174696 0.000347602 0)
(-0.0185611 0.000337271 0)
(-0.0195959 0.000321717 0)
(-0.0205571 0.000300667 0)
(-0.0214272 0.00027392 0)
(-0.022189 0.000241372 0)
(-0.0228254 0.000203022 0)
(-0.0233201 0.000158991 0)
(-0.0236576 0.000109536 0)
(-0.023824 5.50604e-05 0)
(-0.0238074 -3.86963e-06 0)
(-0.0235978 -6.65221e-05 0)
(-0.0231879 -0.000131994 0)
(-0.0225738 -0.000199215 0)
(-0.0217545 -0.000266959 0)
(-0.0207329 -0.000333859 0)
(-0.019516 -0.000398444 0)
(-0.0181147 -0.000459169 0)
(-0.016544 -0.000514471 0)
(-0.014823 -0.000562822 0)
(-0.0129747 -0.000602791 0)
(-0.0110256 -0.000633118 0)
(-0.00900482 -0.000652772 0)
(-0.00694412 -0.00066102 0)
(-0.00487648 -0.000657475 0)
(-0.00283547 -0.000642134 0)
(-0.000854212 -0.000615399 0)
(0.00103568 -0.000578075 0)
(0.00280506 -0.000531339 0)
(0.00442818 -0.000476696 0)
(0.00588354 -0.000415907 0)
(0.00715447 -0.000350903 0)
(0.00822959 -0.000283688 0)
(0.00910299 -0.000216244 0)
(0.00977417 -0.000150435 0)
(0.0102478 -8.79224e-05 0)
(0.0105332 -3.01065e-05 0)
(0.0106436 2.19227e-05 0)
(0.0105955 6.74027e-05 0)
(0.0104077 0.0001059 0)
(0.0101004 0.000137286 0)
(0.00969426 0.000161709 0)
(0.00920996 0.000179535 0)
(0.00866714 0.000191314 0)
(0.00808407 0.000197709 0)
(0.00747719 0.000199462 0)
(0.0068609 0.000197333 0)
(0.00624734 0.000192086 0)
(0.00564654 0.000184428 0)
(0.00506624 0.000175035 0)
(0.00451239 0.000164478 0)
(0.0039888 0.000153303 0)
(0.0034981 0.000141918 0)
(0.00304092 0.000130747 0)
(0.00261755 0.000120019 0)
(0.00222626 0.000110061 0)
(0.00186617 0.000100862 0)
(0.00153413 9.26424e-05 0)
(0.00122976 8.49854e-05 0)
(0.000949843 7.79551e-05 0)
(0.00069701 7.03922e-05 0)
(0.000470046 6.22057e-05 0)
(0.000277633 5.10051e-05 0)
(0.0001228 3.71502e-05 0)
(2.04254e-05 1.7347e-05 0)
(-2.55159e-05 -2.32417e-06 0)
(-1.68611e-05 -1.6609e-05 0)
(1.3963e-05 -2.17109e-05 0)
(0.000113566 -0.000113827 0)
(0.000307766 -0.000185084 0)
(0.000556636 -0.000235185 0)
(0.000850429 -0.000259726 0)
(0.00115741 -0.000268155 0)
(0.0014692 -0.000263026 0)
(0.00176778 -0.000250087 0)
(0.00204918 -0.000231317 0)
(0.00230467 -0.000209564 0)
(0.00253307 -0.000185823 0)
(0.00273061 -0.000161333 0)
(0.00289724 -0.000136441 0)
(0.00303135 -0.000111571 0)
(0.00313303 -8.67346e-05 0)
(0.00320134 -6.19733e-05 0)
(0.00323601 -3.71356e-05 0)
(0.00323601 -1.20702e-05 0)
(0.00320042 1.34856e-05 0)
(0.00312766 3.98277e-05 0)
(0.00301592 6.73438e-05 0)
(0.00286268 9.64799e-05 0)
(0.00266494 0.000127764 0)
(0.00241892 0.000161784 0)
(0.00212011 0.000199181 0)
(0.00176322 0.000240626 0)
(0.00134212 0.000286797 0)
(0.000849943 0.000338344 0)
(0.000279091 0.00039587 0)
(-0.000378636 0.000459895 0)
(-0.0011319 0.000530837 0)
(-0.00198965 0.000608983 0)
(-0.00296094 0.000694479 0)
(-0.00405465 0.000787303 0)
(-0.00527927 0.000887251 0)
(-0.0066426 0.000993915 0)
(-0.00815145 0.00110667 0)
(-0.0098113 0.00122465 0)
(-0.011626 0.00134672 0)
(-0.0135973 0.00147151 0)
(-0.0157248 0.00159735 0)
(-0.0180052 0.0017223 0)
(-0.0204325 0.00184419 0)
(-0.0229972 0.00196061 0)
(-0.0256868 0.00206894 0)
(-0.0284851 0.00216642 0)
(-0.0313723 0.0022502 0)
(-0.0343254 0.00231739 0)
(-0.0373179 0.00236512 0)
(-0.0403204 0.00239063 0)
(-0.0433008 0.00239131 0)
(-0.0462247 0.00236481 0)
(-0.049056 0.00230907 0)
(-0.0517571 0.00222239 0)
(-0.0542902 0.00210349 0)
(-0.056617 0.00195157 0)
(-0.0587001 0.00176634 0)
(-0.0605033 0.00154809 0)
(-0.0619922 0.00129768 0)
(-0.0631349 0.00101661 0)
(-0.0639029 0.00070703 0)
(-0.064271 0.000371762 0)
(-0.0642185 1.43034e-05 0)
(-0.0637296 -0.000361172 0)
(-0.0627935 -0.000749829 0)
(-0.0614056 -0.0011462 0)
(-0.0595669 -0.00154425 0)
(-0.0572853 -0.00193743 0)
(-0.0545752 -0.00231881 0)
(-0.0514579 -0.00268118 0)
(-0.0479614 -0.00301724 0)
(-0.0441207 -0.00331979 0)
(-0.0399772 -0.00358191 0)
(-0.0355782 -0.00379724 0)
(-0.0309765 -0.0039602 0)
(-0.0262296 -0.00406626 0)
(-0.0213986 -0.00411213 0)
(-0.016547 -0.00409602 0)
(-0.0117394 -0.00401774 0)
(-0.00704028 -0.00387885 0)
(-0.00251197 -0.00368264 0)
(0.00178642 -0.00343413 0)
(0.00580081 -0.00313987 0)
(0.00948347 -0.00280776 0)
(0.0127944 -0.00244677 0)
(0.0157023 -0.00206651 0)
(0.0181853 -0.00167691 0)
(0.0202316 -0.00128778 0)
(0.0218393 -0.000908398 0)
(0.0230163 -0.000547182 0)
(0.0237793 -0.000211348 0)
(0.0241534 9.32924e-05 0)
(0.0241702 0.000362475 0)
(0.0238669 0.000593524 0)
(0.0232842 0.000785317 0)
(0.022465 0.000938145 0)
(0.0214526 0.00105355 0)
(0.0202896 0.00113407 0)
(0.0190163 0.00118304 0)
(0.0176699 0.00120425 0)
(0.0162835 0.00120184 0)
(0.0148862 0.00117993 0)
(0.0135021 0.00114265 0)
(0.0121511 0.00109378 0)
(0.010848 0.00103691 0)
(0.00960421 0.000975082 0)
(0.0084265 0.00091113 0)
(0.00731963 0.000847099 0)
(0.00628397 0.000784924 0)
(0.00532038 0.000725297 0)
(0.00442548 0.000669005 0)
(0.00360008 0.000614667 0)
(0.00284048 0.000561598 0)
(0.00215277 0.000505277 0)
(0.00153686 0.000443853 0)
(0.00100945 0.000368967 0)
(0.000575537 0.000281346 0)
(0.000261286 0.000172274 0)
(6.59566e-05 6.42084e-05 0)
(-2.32761e-06 -2.54354e-05 0)
(2.85504e-05 -9.7637e-05 0)
(0.000184611 -0.000307934 0)
(0.000467225 -0.000467691 0)
(0.000814928 -0.000577341 0)
(0.00121738 -0.000634144 0)
(0.00163359 -0.000652621 0)
(0.00205297 -0.000640224 0)
(0.00245219 -0.000607557 0)
(0.00282504 -0.000560363 0)
(0.00315969 -0.000504396 0)
(0.00345328 -0.000442685 0)
(0.00370011 -0.000377792 0)
(0.00389882 -0.000310882 0)
(0.00404635 -0.000242769 0)
(0.0041415 -0.0001736 0)
(0.00418189 -0.000103328 0)
(0.00416574 -3.15829e-05 0)
(0.00409031 4.21367e-05 0)
(0.0039528 0.000118537 0)
(0.00374949 0.00019847 0)
(0.00347615 0.000282976 0)
(0.00312757 0.00037326 0)
(0.00269769 0.000470706 0)
(0.00217932 0.000576837 0)
(0.00156424 0.000693284 0)
(0.000843066 0.000821724 0)
(5.33194e-06 0.000963809 0)
(-0.000960435 0.00112109 0)
(-0.00206654 0.00129493 0)
(-0.00332594 0.00148642 0)
(-0.0047519 0.00169633 0)
(-0.00635768 0.00192501 0)
(-0.00815616 0.00217234 0)
(-0.0101594 0.00243771 0)
(-0.012378 0.0027199 0)
(-0.0148208 0.00301709 0)
(-0.0174944 0.0033268 0)
(-0.0204022 0.00364586 0)
(-0.0235443 0.00397041 0)
(-0.026917 0.00429587 0)
(-0.0305119 0.00461699 0)
(-0.0343162 0.00492792 0)
(-0.0383118 0.00522227 0)
(-0.0424757 0.00549326 0)
(-0.0467797 0.00573381 0)
(-0.0511909 0.00593677 0)
(-0.0556716 0.00609504 0)
(-0.0601803 0.00620179 0)
(-0.0646717 0.00625063 0)
(-0.0690981 0.00623581 0)
(-0.0734098 0.00615232 0)
(-0.077556 0.0059961 0)
(-0.0814856 0.00576412 0)
(-0.0851484 0.00545447 0)
(-0.0884956 0.00506646 0)
(-0.0914805 0.0046006 0)
(-0.0940594 0.00405869 0)
(-0.0961925 0.00344376 0)
(-0.0978436 0.00276014 0)
(-0.0989815 0.00201339 0)
(-0.0995798 0.00121027 0)
(-0.0996174 0.000358778 0)
(-0.0990792 -0.000531977 0)
(-0.0979556 -0.00145176 0)
(-0.0962435 -0.0023893 0)
(-0.093946 -0.00333237 0)
(-0.0910729 -0.00426791 0)
(-0.0876406 -0.00518214 0)
(-0.0836722 -0.0060608 0)
(-0.0791979 -0.00688932 0)
(-0.0742544 -0.00765313 0)
(-0.0688853 -0.00833799 0)
(-0.0631406 -0.00893031 0)
(-0.0570762 -0.0094176 0)
(-0.0507538 -0.00978886 0)
(-0.04424 -0.010035 0)
(-0.0376053 -0.0101494 0)
(-0.0309233 -0.0101281 0)
(-0.0242695 -0.00997002 0)
(-0.01772 -0.00967759 0)
(-0.0113497 -0.00925651 0)
(-0.00523127 -0.00871588 0)
(0.000566842 -0.00806796 0)
(0.00598183 -0.00732794 0)
(0.010958 -0.00651342 0)
(0.0154484 -0.00564387 0)
(0.0194156 -0.00473993 0)
(0.0228328 -0.00382264 0)
(0.0256846 -0.00291272 0)
(0.0279672 -0.00202972 0)
(0.029688 -0.0011914 0)
(0.0308653 -0.000413055 0)
(0.0315275 0.000292912 0)
(0.0317118 0.000917312 0)
(0.0314626 0.00145431 0)
(0.0308296 0.00190135 0)
(0.0298662 0.00225899 0)
(0.0286275 0.00253053 0)
(0.0271682 0.00272155 0)
(0.0255413 0.0028394 0)
(0.0237962 0.00289271 0)
(0.0219783 0.00289077 0)
(0.020127 0.00284319 0)
(0.0182768 0.00275936 0)
(0.0164554 0.00264829 0)
(0.0146854 0.00251813 0)
(0.0129828 0.00237629 0)
(0.0113603 0.00222872 0)
(0.00982404 0.00208052 0)
(0.00837984 0.00193443 0)
(0.00702752 0.00179233 0)
(0.00577142 0.00165226 0)
(0.00460945 0.00151204 0)
(0.00355157 0.00136332 0)
(0.00259836 0.00120065 0)
(0.00177256 0.00100958 0)
(0.00107778 0.00078942 0)
(0.000551213 0.000528788 0)
(0.000186351 0.000263761 0)
(1.99858e-05 2.42513e-05 0)
(3.88026e-05 -0.000203023 0)
(0.000235175 -0.000556803 0)
(0.000577665 -0.000815451 0)
(0.000986714 -0.000986337 0)
(0.00145185 -0.00107433 0)
(0.00192589 -0.00109917 0)
(0.00239812 -0.00107408 0)
(0.00284203 -0.00101426 0)
(0.00325041 -0.000929469 0)
(0.00360918 -0.000828368 0)
(0.00391412 -0.000716162 0)
(0.00415763 -0.000596764 0)
(0.00433677 -0.000472179 0)
(0.00444661 -0.000343565 0)
(0.00448412 -0.00021113 0)
(0.00444486 -7.46164e-05 0)
(0.00432489 6.67145e-05 0)
(0.00411908 0.0002139 0)
(0.00382203 0.000368303 0)
(0.00342715 0.000531566 0)
(0.00292709 0.000705642 0)
(0.00231321 0.000892769 0)
(0.00157576 0.00109546 0)
(0.000703576 0.00131644 0)
(-0.000315781 0.00155857 0)
(-0.0014961 0.00182471 0)
(-0.00285232 0.00211761 0)
(-0.00440041 0.00243972 0)
(-0.00615697 0.00279305 0)
(-0.0081389 0.003179 0)
(-0.0103629 0.00359824 0)
(-0.0128448 0.00405052 0)
(-0.0155991 0.00453463 0)
(-0.0186383 0.00504821 0)
(-0.0219716 0.00558776 0)
(-0.0256052 0.0061485 0)
(-0.0295406 0.00672436 0)
(-0.0337743 0.00730801 0)
(-0.0382974 0.00789083 0)
(-0.0430948 0.00846306 0)
(-0.0481449 0.00901391 0)
(-0.0534198 0.0095318 0)
(-0.058885 0.0100046 0)
(-0.0645 0.0104198 0)
(-0.0702188 0.0107653 0)
(-0.0759904 0.011029 0)
(-0.0817603 0.0111999 0)
(-0.087471 0.0112681 0)
(-0.0930632 0.0112247 0)
(-0.0984775 0.0110629 0)
(-0.103655 0.0107774 0)
(-0.108538 0.0103648 0)
(-0.113072 0.00982385 0)
(-0.117206 0.00915506 0)
(-0.120892 0.00836093 0)
(-0.124087 0.00744582 0)
(-0.126753 0.00641582 0)
(-0.128858 0.00527868 0)
(-0.130372 0.00404371 0)
(-0.131274 0.00272168 0)
(-0.131545 0.00132476 0)
(-0.131174 -0.000133576 0)
(-0.130153 -0.0016386 0)
(-0.12848 -0.00317438 0)
(-0.126159 -0.00472387 0)
(-0.123198 -0.00626897 0)
(-0.119611 -0.00779067 0)
(-0.115419 -0.00926915 0)
(-0.110647 -0.010684 0)
(-0.105325 -0.0120147 0)
(-0.0994919 -0.0132403 0)
(-0.09319 -0.0143406 0)
(-0.0864685 -0.0152963 0)
(-0.0793827 -0.0160892 0)
(-0.0719931 -0.0167032 0)
(-0.0643655 -0.0171247 0)
(-0.0565703 -0.0173433 0)
(-0.0486818 -0.0173522 0)
(-0.0407771 -0.0171486 0)
(-0.0329349 -0.0167344 0)
(-0.0252346 -0.0161163 0)
(-0.0177542 -0.0153058 0)
(-0.0105696 -0.0143189 0)
(-0.0037524 -0.0131763 0)
(0.00263147 -0.0119025 0)
(0.00852308 -0.0105253 0)
(0.013872 -0.00907466 0)
(0.0186376 -0.0075821 0)
(0.0227896 -0.0060794 0)
(0.0263093 -0.00459761 0)
(0.0291898 -0.00316596 0)
(0.0314356 -0.0018109 0)
(0.0330632 -0.000555237 0)
(0.0340996 0.000582531 0)
(0.0345817 0.00158868 0)
(0.034555 0.00245449 0)
(0.0340714 0.0031762 0)
(0.0331881 0.00375476 0)
(0.0319648 0.00419536 0)
(0.0304623 0.00450676 0)
(0.0287401 0.0047006 0)
(0.0268552 0.00479049 0)
(0.0248599 0.00479135 0)
(0.0228016 0.00471847 0)
(0.0207208 0.00458711 0)
(0.0186527 0.00441156 0)
(0.0166245 0.00420515 0)
(0.014659 0.00397906 0)
(0.012771 0.00374285 0)
(0.0109741 0.00350255 0)
(0.00927406 0.00326214 0)
(0.00768102 0.00302003 0)
(0.00619614 0.00277312 0)
(0.00483438 0.0025101 0)
(0.00359673 0.00222207 0)
(0.00251184 0.0018895 0)
(0.0015803 0.0015088 0)
(0.000851611 0.00106543 0)
(0.000314841 0.000598516 0)
(4.4119e-05 0.000139892 0)
(4.33093e-05 -0.000331763 0)
(0.00026108 -0.000851238 0)
(0.00063629 -0.00121814 0)
(0.00107592 -0.00145123 0)
(0.0015682 -0.00156747 0)
(0.00206117 -0.00159258 0)
(0.00254422 -0.00154686 0)
(0.00298892 -0.00144999 0)
(0.00338765 -0.00131614 0)
(0.00372483 -0.00115673 0)
(0.0039951 -0.000979214 0)
(0.00418912 -0.000788695 0)
(0.0043022 -0.00058796 0)
(0.00432729 -0.000378341 0)
(0.00425912 -0.000159962 0)
(0.00409071 6.78478e-05 0)
(0.00381541 0.000306398 0)
(0.0034251 0.000557504 0)
(0.00291115 0.000823438 0)
(0.00226352 0.00110692 0)
(0.0014711 0.00141109 0)
(0.00052126 0.00173952 0)
(-0.000599995 0.00209613 0)
(-0.00190822 0.00248508 0)
(-0.00342038 0.00291062 0)
(-0.00515476 0.00337688 0)
(-0.00713063 0.00388763 0)
(-0.00936794 0.004446 0)
(-0.0118867 0.00505422 0)
(-0.0147064 0.00571333 0)
(-0.0178453 0.00642299 0)
(-0.0213194 0.00718121 0)
(-0.0251418 0.00798418 0)
(-0.0293213 0.00882616 0)
(-0.0338621 0.0096994 0)
(-0.0387623 0.010594 0)
(-0.0440137 0.0114982 0)
(-0.0496004 0.0123982 0)
(-0.0554993 0.0132783 0)
(-0.0616793 0.0141218 0)
(-0.0681015 0.0149106 0)
(-0.0747201 0.0156263 0)
(-0.0814827 0.0162502 0)
(-0.0883315 0.0167643 0)
(-0.0952047 0.0171517 0)
(-0.102038 0.0173971 0)
(-0.108765 0.0174872 0)
(-0.11532 0.017411 0)
(-0.121641 0.0171605 0)
(-0.127664 0.0167301 0)
(-0.133333 0.0161172 0)
(-0.138595 0.0153221 0)
(-0.143401 0.0143476 0)
(-0.147709 0.0131989 0)
(-0.151481 0.0118835 0)
(-0.154683 0.0104108 0)
(-0.157289 0.00879198 0)
(-0.159275 0.00703994 0)
(-0.160623 0.00516893 0)
(-0.161319 0.00319455 0)
(-0.161352 0.00113367 0)
(-0.160716 -0.000995621 0)
(-0.159408 -0.00317401 0)
(-0.157429 -0.00538101 0)
(-0.154782 -0.00759491 0)
(-0.151478 -0.00979284 0)
(-0.147528 -0.0119508 0)
(-0.142949 -0.0140439 0)
(-0.137763 -0.0160463 0)
(-0.131996 -0.0179316 0)
(-0.125681 -0.0196734 0)
(-0.118855 -0.0212453 0)
(-0.111563 -0.0226218 0)
(-0.103853 -0.023779 0)
(-0.0957832 -0.024695 0)
(-0.087414 -0.0253508 0)
(-0.0788133 -0.0257311 0)
(-0.0700534 -0.0258252 0)
(-0.0612109 -0.0256275 0)
(-0.0523655 -0.0251381 0)
(-0.0435988 -0.0243631 0)
(-0.0349928 -0.0233152 0)
(-0.0266285 -0.0220132 0)
(-0.0185843 -0.0204819 0)
(-0.0109343 -0.0187517 0)
(-0.00374684 -0.0168575 0)
(0.00291697 -0.0148382 0)
(0.00900458 -0.0127349 0)
(0.0144731 -0.0105902 0)
(0.0192901 -0.00844662 0)
(0.0234345 -0.00634515 0)
(0.0268967 -0.00432418 0)
(0.0296789 -0.0024182 0)
(0.0317948 -0.000656791 0)
(0.0332693 0.000936217 0)
(0.0341373 0.00234327 0)
(0.0344428 0.00355339 0)
(0.0342375 0.00456216 0)
(0.0335787 0.00537143 0)
(0.0325278 0.00598867 0)
(0.0311479 0.00642624 0)
(0.0295019 0.0067003 0)
(0.0276505 0.00682989 0)
(0.0256509 0.00683566 0)
(0.0235548 0.00673907 0)
(0.0214086 0.00656107 0)
(0.0192509 0.00632167 0)
(0.0171157 0.00603841 0)
(0.0150277 0.00572649 0)
(0.0130102 0.00539653 0)
(0.0110762 0.00505572 0)
(0.00924366 0.0047041 0)
(0.00751829 0.0043384 0)
(0.00592125 0.00394548 0)
(0.00445484 0.00351295 0)
(0.0031546 0.00301706 0)
(0.0020195 0.00244899 0)
(0.00111335 0.00178992 0)
(0.000423924 0.00107203 0)
(6.31138e-05 0.000320113 0)
(4.52259e-05 -0.000467091 0)
(0.000271327 -0.00115965 0)
(0.00065622 -0.00163395 0)
(0.00109943 -0.00192286 0)
(0.00158728 -0.00205851 0)
(0.00206518 -0.00207397 0)
(0.00252253 -0.00199741 0)
(0.00293 -0.00185289 0)
(0.00327978 -0.00165884 0)
(0.00355523 -0.00142898 0)
(0.00374986 -0.00117266 0)
(0.0038526 -0.000895817 0)
(0.00385678 -0.000601684 0)
(0.00375294 -0.000291464 0)
(0.00353312 3.50648e-05 0)
(0.00318736 0.000379247 0)
(0.00270574 0.00074321 0)
(0.00207663 0.0011298 0)
(0.00128763 0.00154244 0)
(0.00032463 0.00198517 0)
(-0.000827728 0.00246257 0)
(-0.00218655 0.00297974 0)
(-0.00377044 0.00354213 0)
(-0.00559958 0.00415539 0)
(-0.00769546 0.00482508 0)
(-0.0100806 0.00555634 0)
(-0.012778 0.00635351 0)
(-0.0158104 0.00721969 0)
(-0.0191999 0.00815637 0)
(-0.0229662 0.00916298 0)
(-0.0271263 0.0102366 0)
(-0.0316931 0.0113717 0)
(-0.0366739 0.0125598 0)
(-0.04207 0.0137896 0)
(-0.0478751 0.0150466 0)
(-0.0540745 0.0163136 0)
(-0.0606449 0.0175707 0)
(-0.0675541 0.0187958 0)
(-0.0747607 0.0199649 0)
(-0.0822153 0.0210532 0)
(-0.0898608 0.0220352 0)
(-0.0976344 0.0228862 0)
(-0.105469 0.0235826 0)
(-0.113293 0.0241029 0)
(-0.121037 0.0244283 0)
(-0.128631 0.0245434 0)
(-0.136006 0.0244362 0)
(-0.1431 0.0240985 0)
(-0.149853 0.0235262 0)
(-0.156211 0.0227183 0)
(-0.162127 0.0216777 0)
(-0.167559 0.0204099 0)
(-0.17247 0.0189234 0)
(-0.176831 0.0172289 0)
(-0.180613 0.0153387 0)
(-0.183797 0.0132672 0)
(-0.186362 0.0110297 0)
(-0.188294 0.00864303 0)
(-0.189582 0.00612487 0)
(-0.190215 0.003494 0)
(-0.190186 0.000770237 0)
(-0.189489 -0.00202553 0)
(-0.188121 -0.00487121 0)
(-0.186081 -0.00774345 0)
(-0.183371 -0.0106175 0)
(-0.179994 -0.0134673 0)
(-0.175958 -0.0162651 0)
(-0.171273 -0.018982 0)
(-0.165954 -0.0215878 0)
(-0.16002 -0.024051 0)
(-0.153496 -0.0263399 0)
(-0.146413 -0.0284223 0)
(-0.138805 -0.0302666 0)
(-0.130718 -0.0318425 0)
(-0.1222 -0.0331217 0)
(-0.113308 -0.0340791 0)
(-0.104106 -0.0346934 0)
(-0.094664 -0.0349487 0)
(-0.0850572 -0.0348349 0)
(-0.075366 -0.0343487 0)
(-0.0656743 -0.0334944 0)
(-0.056068 -0.032284 0)
(-0.0466333 -0.0307373 0)
(-0.0374554 -0.0288819 0)
(-0.0286161 -0.0267524 0)
(-0.0201927 -0.0243897 0)
(-0.012256 -0.0218399 0)
(-0.00486888 -0.0191528 0)
(0.00191463 -0.0163805 0)
(0.00805052 -0.013576 0)
(0.0135055 -0.0107913 0)
(0.0182573 -0.00807632 0)
(0.0222953 -0.00547702 0)
(0.0256201 -0.00303439 0)
(0.0282438 -0.000783261 0)
(0.0301893 0.00124856 0)
(0.0314897 0.00304091 0)
(0.0321871 0.00458151 0)
(0.0323318 0.00586602 0)
(0.0319804 0.00689762 0)
(0.0311939 0.00768635 0)
(0.030036 0.00824812 0)
(0.0285708 0.00860363 0)
(0.0268614 0.00877695 0)
(0.024967 0.00879429 0)
(0.0229435 0.00868245 0)
(0.0208394 0.00846781 0)
(0.0186993 0.00817444 0)
(0.016558 0.00782374 0)
(0.0144491 0.00743179 0)
(0.0123943 0.00701003 0)
(0.0104203 0.00656143 0)
(0.00853877 0.00608364 0)
(0.00677811 0.00556309 0)
(0.00514333 0.00498434 0)
(0.00367768 0.00432004 0)
(0.00238039 0.00355389 0)
(0.00132952 0.00266033 0)
(0.000514047 0.00165561 0)
(7.85607e-05 0.000549811 0)
(4.4684e-05 -0.000606229 0)
(0.000267572 -0.0014729 0)
(0.000642623 -0.00205007 0)
(0.00106636 -0.00238665 0)
(0.00152306 -0.00253139 0)
(0.00195719 -0.00252575 0)
(0.0023579 -0.00240636 0)
(0.00269574 -0.00220166 0)
(0.00296254 -0.00193415 0)
(0.00314093 -0.00161944 0)
(0.00322315 -0.00126841 0)
(0.00319635 -0.000887317 0)
(0.00305157 -0.000479509 0)
(0.00277665 -4.56697e-05 0)
(0.00236053 0.000415085 0)
(0.00178982 0.00090508 0)
(0.00105088 0.00142754 0)
(0.000128068 0.0019866 0)
(-0.000995284 0.00258711 0)
(-0.00233774 0.00323467 0)
(-0.00391933 0.00393548 0)
(-0.00576188 0.00469628 0)
(-0.0078887 0.00552408 0)
(-0.0103245 0.00642587 0)
(-0.0130948 0.00740817 0)
(-0.0162255 0.00847654 0)
(-0.0197421 0.00963501 0)
(-0.0236683 0.0108855 0)
(-0.0280255 0.0122271 0)
(-0.0328308 0.0136559 0)
(-0.0380961 0.0151642 0)
(-0.0438268 0.0167405 0)
(-0.0500201 0.0183692 0)
(-0.0566644 0.0200308 0)
(-0.0637383 0.0217018 0)
(-0.0712101 0.0233555 0)
(-0.0790383 0.0249623 0)
(-0.0871714 0.0264909 0)
(-0.0955499 0.0279088 0)
(-0.104107 0.0291839 0)
(-0.112771 0.0302851 0)
(-0.121468 0.0311839 0)
(-0.130121 0.0318548 0)
(-0.138657 0.0322765 0)
(-0.147005 0.0324325 0)
(-0.1551 0.0323106 0)
(-0.16288 0.0319039 0)
(-0.170291 0.0312099 0)
(-0.177287 0.0302304 0)
(-0.183827 0.0289709 0)
(-0.189876 0.02744 0)
(-0.195404 0.0256491 0)
(-0.200387 0.0236115 0)
(-0.204804 0.0213422 0)
(-0.208638 0.0188577 0)
(-0.211874 0.016175 0)
(-0.214499 0.0133124 0)
(-0.216501 0.0102886 0)
(-0.217872 0.0071231 0)
(-0.218601 0.00383632 0)
(-0.21868 0.000449492 0)
(-0.218103 -0.00301502 0)
(-0.216862 -0.00653356 0)
(-0.214953 -0.010081 0)
(-0.212372 -0.0136304 0)
(-0.209118 -0.0171532 0)
(-0.205189 -0.0206187 0)
(-0.200591 -0.0239944 0)
(-0.195329 -0.0272458 0)
(-0.189415 -0.0303367 0)
(-0.182864 -0.0332299 0)
(-0.175698 -0.0358871 0)
(-0.167946 -0.0382701 0)
(-0.15964 -0.0403414 0)
(-0.150826 -0.0420652 0)
(-0.141552 -0.043409 0)
(-0.131877 -0.0443443 0)
(-0.121868 -0.0448481 0)
(-0.111599 -0.0449043 0)
(-0.10115 -0.0445045 0)
(-0.0906089 -0.0436492 0)
(-0.0800647 -0.0423483 0)
(-0.0696105 -0.0406215 0)
(-0.0593392 -0.0384978 0)
(-0.049342 -0.0360154 0)
(-0.0397061 -0.0332205 0)
(-0.030513 -0.0301662 0)
(-0.0218364 -0.0269107 0)
(-0.0137413 -0.0235157 0)
(-0.00628234 -0.0200445 0)
(0.000496361 -0.0165601 0)
(0.0065621 -0.0131237 0)
(0.0118935 -0.00979274 0)
(0.0164807 -0.00661948 0)
(0.0203249 -0.00364991 0)
(0.0234383 -0.000922503 0)
(0.0258435 0.00153254 0)
(0.0275728 0.00369384 0)
(0.0286675 0.00554917 0)
(0.0291769 0.00709526 0)
(0.0291565 0.00833745 0)
(0.0286669 0.00928885 0)
(0.0277713 0.00996936 0)
(0.0265346 0.0104041 0)
(0.0250199 0.0106223 0)
(0.0232893 0.0106549 0)
(0.0213987 0.0105339 0)
(0.0194016 0.0102893 0)
(0.0173421 0.00994865 0)
(0.0152634 0.00953407 0)
(0.0131961 0.00906181 0)
(0.011176 0.00853882 0)
(0.00922168 0.00796452 0)
(0.00736972 0.00732606 0)
(0.00562939 0.00660525 0)
(0.00405234 0.0057715 0)
(0.0026403 0.0047993 0)
(0.00148469 0.00365445 0)
(0.00057747 0.00233154 0)
(8.87748e-05 0.000820572 0)
(4.30099e-05 -0.00073989 0)
(0.000254338 -0.00177101 0)
(0.000603225 -0.00243919 0)
(0.000987177 -0.00281011 0)
(0.00138843 -0.00294987 0)
(0.00175251 -0.00290908 0)
(0.00206818 -0.00273305 0)
(0.00230662 -0.00245442 0)
(0.00245914 -0.00209932 0)
(0.00250778 -0.00168467 0)
(0.00244319 -0.00122227 0)
(0.0022506 -0.000718145 0)
(0.00191833 -0.000175214 0)
(0.00143119 0.000406793 0)
(0.000774533 0.0010298 0)
(-6.88372e-05 0.00169743 0)
(-0.00111679 0.0024143 0)
(-0.00238936 0.0031861 0)
(-0.00390787 0.0040193 0)
(-0.00569565 0.0049212 0)
(-0.00777755 0.00589969 0)
(-0.0101801 0.00696308 0)
(-0.0129311 0.00811968 0)
(-0.0160591 0.00937734 0)
(-0.0195928 0.0107428 0)
(-0.0235598 0.0122208 0)
(-0.0279857 0.0138137 0)
(-0.0328929 0.0155202 0)
(-0.0382983 0.0173352 0)
(-0.0442126 0.0192485 0)
(-0.0506383 0.0212453 0)
(-0.0575684 0.0233053 0)
(-0.0649854 0.0254031 0)
(-0.0728607 0.0275088 0)
(-0.0811541 0.029588 0)
(-0.0898148 0.0316035 0)
(-0.0987821 0.0335161 0)
(-0.107987 0.0352859 0)
(-0.117355 0.036874 0)
(-0.126807 0.0382438 0)
(-0.136263 0.0393624 0)
(-0.145646 0.0402013 0)
(-0.154881 0.0407378 0)
(-0.163899 0.040955 0)
(-0.172636 0.0408419 0)
(-0.181039 0.0403932 0)
(-0.189058 0.0396088 0)
(-0.196653 0.0384934 0)
(-0.20379 0.0370552 0)
(-0.21044 0.0353059 0)
(-0.216581 0.0332592 0)
(-0.222191 0.0309308 0)
(-0.227255 0.0283377 0)
(-0.231759 0.0254976 0)
(-0.235691 0.0224289 0)
(-0.239038 0.0191504 0)
(-0.241792 0.0156812 0)
(-0.243941 0.012041 0)
(-0.245477 0.00824982 0)
(-0.24639 0.00432842 0)
(-0.246671 0.000298476 0)
(-0.246309 -0.00381718 0)
(-0.245298 -0.00799427 0)
(-0.243626 -0.0122068 0)
(-0.241288 -0.0164267 0)
(-0.238274 -0.0206237 0)
(-0.23458 -0.0247651 0)
(-0.230202 -0.0288156 0)
(-0.225138 -0.0327374 0)
(-0.219391 -0.0364903 0)
(-0.212966 -0.0400317 0)
(-0.205875 -0.0433178 0)
(-0.198136 -0.0463035 0)
(-0.189772 -0.048944 0)
(-0.180817 -0.0511956 0)
(-0.171312 -0.0530168 0)
(-0.161307 -0.0543704 0)
(-0.150863 -0.0552248 0)
(-0.140049 -0.0555555 0)
(-0.128946 -0.0553467 0)
(-0.11764 -0.0545927 0)
(-0.106227 -0.053299 0)
(-0.0948043 -0.0514827 0)
(-0.0834752 -0.0491726 0)
(-0.0723416 -0.046409 0)
(-0.0615032 -0.0432424 0)
(-0.0510547 -0.0397324 0)
(-0.0410834 -0.0359454 0)
(-0.0316674 -0.0319529 0)
(-0.0228738 -0.0278289 0)
(-0.014758 -0.0236479 0)
(-0.00736319 -0.0194827 0)
(-0.000720217 -0.0154023 0)
(0.00515218 -0.0114705 0)
(0.0102468 -0.00774439 0)
(0.0145676 -0.00427312 0)
(0.0181288 -0.00109704 0)
(0.0209546 0.00175296 0)
(0.0230784 0.0042559 0)
(0.024542 0.00640085 0)
(0.0253942 0.00818673 0)
(0.0256907 0.0096218 0)
(0.025491 0.0107228 0)
(0.024859 0.0115136 0)
(0.0238584 0.0120239 0)
(0.0225541 0.0122872 0)
(0.0210069 0.012339 0)
(0.0192768 0.0122143 0)
(0.0174153 0.0119462 0)
(0.0154742 0.0115622 0)
(0.0134923 0.0110839 0)
(0.0115143 0.0105227 0)
(0.00956632 0.00988038 0)
(0.0076932 0.00914578 0)
(0.00590996 0.00829828 0)
(0.00427664 0.00730431 0)
(0.00279934 0.006128 0)
(0.00158065 0.00472505 0)
(0.00061679 0.00306508 0)
(9.50102e-05 0.00111563 0)
(4.00654e-05 -0.000866548 0)
(0.000232209 -0.00204655 0)
(0.000540595 -0.00278934 0)
(0.000866562 -0.00317821 0)
(0.00119053 -0.00329678 0)
(0.00146076 -0.00320514 0)
(0.00166555 -0.00295708 0)
(0.00177739 -0.00258909 0)
(0.00178671 -0.00213038 0)
(0.00167508 -0.00159849 0)
(0.00143112 -0.0010055 0)
(0.0010379 -0.000356564 0)
(0.000480562 0.000346346 0)
(-0.000259478 0.00110492 0)
(-0.00120088 0.0019225 0)
(-0.00236507 0.00280433 0)
(-0.0037745 0.00375666 0)
(-0.00545388 0.00478694 0)
(-0.00742942 0.00590339 0)
(-0.00972927 0.00711506 0)
(-0.012383 0.00843137 0)
(-0.0154214 0.00986191 0)
(-0.0188759 0.0114157 0)
(-0.0227778 0.0131005 0)
(-0.0271569 0.0149219 0)
(-0.0320404 0.0168823 0)
(-0.0374513 0.0189802 0)
(-0.0434062 0.0212088 0)
(-0.0499142 0.0235556 0)
(-0.0569747 0.0260018 0)
(-0.0645762 0.0285223 0)
(-0.0726951 0.0310856 0)
(-0.0812955 0.0336544 0)
(-0.0903292 0.0361868 0)
(-0.0997365 0.0386376 0)
(-0.109448 0.0409595 0)
(-0.119387 0.0431054 0)
(-0.129471 0.04503 0)
(-0.139618 0.0466916 0)
(-0.149744 0.0480535 0)
(-0.159769 0.0490851 0)
(-0.169622 0.049763 0)
(-0.179234 0.0500705 0)
(-0.188548 0.0499982 0)
(-0.197513 0.0495427 0)
(-0.206088 0.0487066 0)
(-0.214236 0.0474971 0)
(-0.221929 0.045925 0)
(-0.229143 0.0440044 0)
(-0.235858 0.0417513 0)
(-0.24206 0.0391831 0)
(-0.247734 0.0363184 0)
(-0.25287 0.033176 0)
(-0.257457 0.0297754 0)
(-0.261486 0.0261357 0)
(-0.264949 0.0222765 0)
(-0.267838 0.0182171 0)
(-0.270144 0.0139774 0)
(-0.27186 0.00957723 0)
(-0.272976 0.00503734 0)
(-0.273484 0.000379173 0)
(-0.273375 -0.00437462 0)
(-0.272637 -0.00919985 0)
(-0.271261 -0.0140705 0)
(-0.269235 -0.0189582 0)
(-0.266549 -0.0238321 0)
(-0.26319 -0.0286584 0)
(-0.259148 -0.0334002 0)
(-0.254414 -0.0380172 0)
(-0.248981 -0.0424661 0)
(-0.242842 -0.0467002 0)
(-0.235999 -0.0506705 0)
(-0.228456 -0.0543255 0)
(-0.220223 -0.057613 0)
(-0.211319 -0.0604805 0)
(-0.201774 -0.0628772 0)
(-0.191625 -0.0647554 0)
(-0.180922 -0.0660729 0)
(-0.169727 -0.0667944 0)
(-0.158114 -0.0668938 0)
(-0.146168 -0.0663562 0)
(-0.133986 -0.0651795 0)
(-0.121672 -0.063375 0)
(-0.109337 -0.0609689 0)
(-0.0970957 -0.058001 0)
(-0.0850634 -0.054525 0)
(-0.0733512 -0.0506061 0)
(-0.0620645 -0.0463191 0)
(-0.0512988 -0.041746 0)
(-0.0411381 -0.0369729 0)
(-0.0316527 -0.0320872 0)
(-0.0228988 -0.027175 0)
(-0.0149182 -0.0223183 0)
(-0.00773842 -0.0175937 0)
(-0.00137392 -0.0130698 0)
(0.00417304 -0.00880704 0)
(0.00891118 -0.00485588 0)
(0.0128594 -0.00125672 0)
(0.0160455 0.00196069 0)
(0.018506 0.00477746 0)
(0.0202845 0.00718548 0)
(0.0214315 0.00918708 0)
(0.0220027 0.0107944 0)
(0.022059 0.0120284 0)
(0.021663 0.0129174 0)
(0.02088 0.0134951 0)
(0.019773 0.0137991 0)
(0.0184062 0.0138678 0)
(0.0168364 0.0137384 0)
(0.0151222 0.0134438 0)
(0.0133097 0.0130097 0)
(0.0114515 0.0124525 0)
(0.00958129 0.0117766 0)
(0.00775193 0.0109729 0)
(0.00598518 0.0100186 0)
(0.00434906 0.00887731 0)
(0.00285548 0.00750264 0)
(0.00161563 0.00583963 0)
(0.000630621 0.0038323 0)
(9.67711e-05 0.00142504 0)
(3.62692e-05 -0.0009804 0)
(0.000202663 -0.00228586 0)
(0.000457398 -0.00308102 0)
(0.000708375 -0.00346705 0)
(0.000934387 -0.00354509 0)
(0.0010881 -0.00338462 0)
(0.00115734 -0.00304745 0)
(0.00111652 -0.00257326 0)
(0.00095489 -0.00199351 0)
(0.000653493 -0.00132553 0)
(0.000198442 -0.000580896 0)
(-0.00042967 0.000236812 0)
(-0.00124937 0.00112713 0)
(-0.00228303 0.00209365 0)
(-0.00355377 0.00314147 0)
(-0.00508753 0.00427775 0)
(-0.00691161 0.00551056 0)
(-0.00905556 0.00684919 0)
(-0.0115504 0.00830359 0)
(-0.014429 0.00988434 0)
(-0.0177248 0.011602 0)
(-0.0214723 0.0134668 0)
(-0.025705 0.0154872 0)
(-0.030455 0.0176696 0)
(-0.0357507 0.0200165 0)
(-0.0416157 0.0225256 0)
(-0.0480664 0.0251887 0)
(-0.0551099 0.0279906 0)
(-0.0627426 0.0309086 0)
(-0.0709484 0.0339122 0)
(-0.0796979 0.0369635 0)
(-0.0889481 0.0400181 0)
(-0.0986429 0.043026 0)
(-0.108715 0.0459338 0)
(-0.119086 0.0486865 0)
(-0.129674 0.0512297 0)
(-0.14039 0.0535122 0)
(-0.151147 0.0554877 0)
(-0.161861 0.0571162 0)
(-0.172451 0.0583656 0)
(-0.182846 0.0592121 0)
(-0.192983 0.0596398 0)
(-0.202806 0.0596408 0)