/*--------------------------------*- C++ -*----------------------------------*\
| =========                 |                                                 |
| \\      /  F ield         | OpenFOAM: The Open Source CFD Toolbox           |
|  \\    /   O peration     | Version:  2406                                  |
|   \\  /    A nd           | Website:  www.openfoam.com                      |
|    \\/     M anipulation  |                                                 |
\*---------------------------------------------------------------------------*/
FoamFile
{
    version     2.0;
    format      ascii;
    arch        "LSB;label=32;scalar=64";
    class       volVectorField;
    location    "23.35";
    object      Uold;
}
// * * * * * * * * * * * * * * * * * * * * * * * * * * * * * * * * * * * * * //

dimensions      [0 1 -1 0 0 0 0];

internalField   nonuniform List<vector> 
14400
(
(-4.63572e-06 4.61287e-06 0)
(2.17889e-05 -1.4098e-05 0)
(9.80207e-05 -2.87672e-05 0)
(0.000203688 -3.89134e-05 0)
(0.000332104 -4.30154e-05 0)
(0.000465932 -4.42747e-05 0)
(0.000602158 -4.29678e-05 0)
(0.000731813 -4.06415e-05 0)
(0.000854388 -3.74131e-05 0)
(0.000965843 -3.39505e-05 0)
(0.00106664 -3.02705e-05 0)
(0.00115519 -2.6651e-05 0)
(0.00123218 -2.30679e-05 0)
(0.0012971 -1.96246e-05 0)
(0.00135054 -1.62847e-05 0)
(0.00139238 -1.30758e-05 0)
(0.00142298 -9.95981e-06 0)
(0.00144228 -6.92848e-06 0)
(0.00145037 -3.93875e-06 0)
(0.00144704 -9.5638e-07 0)
(0.00143203 2.07643e-06 0)
(0.00140482 5.22082e-06 0)
(0.0013647 8.55655e-06 0)
(0.00131063 1.21709e-05 0)
(0.00124133 1.6164e-05 0)
(0.00115516 2.06407e-05 0)
(0.00105013 2.57104e-05 0)
(0.00092394 3.14804e-05 0)
(0.000773945 3.80537e-05 0)
(0.000597207 4.5524e-05 0)
(0.000390529 5.39734e-05 0)
(0.000150504 6.347e-05 0)
(-0.000126428 7.40657e-05 0)
(-0.000443911 8.57944e-05 0)
(-0.000805601 9.86698e-05 0)
(-0.00121508 0.000112683 0)
(-0.00167577 0.000127799 0)
(-0.00219082 0.000143954 0)
(-0.00276299 0.000161051 0)
(-0.00339455 0.000178956 0)
(-0.00408712 0.000197497 0)
(-0.00484155 0.000216458 0)
(-0.0056578 0.000235582 0)
(-0.00653475 0.000254569 0)
(-0.00747015 0.000273078 0)
(-0.00846046 0.000290727 0)
(-0.00950075 0.000307105 0)
(-0.0105847 0.000321768 0)
(-0.0117045 0.000334256 0)
(-0.0128508 0.000344093 0)
(-0.0140128 0.000350798 0)
(-0.0151785 0.0003539 0)
(-0.0163342 0.000352941 0)
(-0.0174655 0.000347491 0)
(-0.0185566 0.000337159 0)
(-0.0195911 0.000321607 0)
(-0.0205519 0.000300559 0)
(-0.0214217 0.000273816 0)
(-0.0221832 0.000241274 0)
(-0.0228194 0.00020293 0)
(-0.0233138 0.000158907 0)
(-0.0236511 0.000109461 0)
(-0.0238174 5.49974e-05 0)
(-0.0238006 -3.91961e-06 0)
(-0.0235908 -6.65575e-05 0)
(-0.023181 -0.000132013 0)
(-0.0225668 -0.000199217 0)
(-0.0217476 -0.000266942 0)
(-0.0207261 -0.000333823 0)
(-0.0195094 -0.000398387 0)
(-0.0181083 -0.000459092 0)
(-0.0165379 -0.000514374 0)
(-0.0148173 -0.000562705 0)
(-0.0129694 -0.000602656 0)
(-0.0110207 -0.000632967 0)
(-0.0090004 -0.000652607 0)
(-0.00694021 -0.000660844 0)
(-0.00487311 -0.000657291 0)
(-0.00283266 -0.000641946 0)
(-0.000851958 -0.000615212 0)
(0.00103738 -0.000577892 0)
(0.00280621 -0.000531164 0)
(0.00442882 -0.000476532 0)
(0.00588369 -0.000415757 0)
(0.00715418 -0.000350769 0)
(0.0082289 -0.000283573 0)
(0.00910195 -0.000216149 0)
(0.00977285 -0.00015036 0)
(0.0102463 -8.78671e-05 0)
(0.0105315 -3.00699e-05 0)
(0.0106418 2.1942e-05 0)
(0.0105936 6.74065e-05 0)
(0.0104058 0.00010589 0)
(0.0100985 0.000137266 0)
(0.0096924 0.000161679 0)
(0.00920819 0.000179499 0)
(0.00866546 0.000191274 0)
(0.00808252 0.000197666 0)
(0.00747576 0.000199417 0)
(0.0068596 0.000197289 0)
(0.00624617 0.000192043 0)
(0.00564551 0.000184387 0)
(0.00506533 0.000174996 0)
(0.0045116 0.000164442 0)
(0.00398811 0.000153271 0)
(0.00349751 0.000141889 0)
(0.00304042 0.000130722 0)
(0.00261713 0.000119997 0)
(0.00222591 0.000110042 0)
(0.00186589 0.000100845 0)
(0.0015339 9.26277e-05 0)
(0.00122958 8.49726e-05 0)
(0.000949705 7.79439e-05 0)
(0.000696908 7.03825e-05 0)
(0.000469976 6.21972e-05 0)
(0.00027759 5.09981e-05 0)
(0.000122779 3.71448e-05 0)
(2.04197e-05 1.73441e-05 0)
(-2.55137e-05 -2.32438e-06 0)
(-1.6859e-05 -1.66069e-05 0)
(1.39625e-05 -2.17176e-05 0)
(0.000113532 -0.000113792 0)
(0.000307645 -0.000185003 0)
(0.000556381 -0.000235061 0)
(0.000849996 -0.000259571 0)
(0.00115678 -0.000267981 0)
(0.00146834 -0.000262846 0)
(0.00176671 -0.00024991 0)
(0.00204789 -0.000231151 0)
(0.00230319 -0.000209414 0)
(0.00253141 -0.000185692 0)
(0.0027288 -0.000161223 0)
(0.0028953 -0.000136352 0)
(0.00302931 -0.000111502 0)
(0.0031309 -8.6684e-05 0)
(0.00319917 -6.19384e-05 0)
(0.0032338 -3.71137e-05 0)
(0.00323378 -1.20585e-05 0)
(0.00319818 1.34897e-05 0)
(0.00312543 3.98264e-05 0)
(0.00301369 6.73389e-05 0)
(0.00286048 9.64724e-05 0)
(0.00266277 0.000127755 0)
(0.00241677 0.000161772 0)
(0.00211801 0.000199165 0)
(0.00176117 0.000240605 0)
(0.00134014 0.000286767 0)
(0.000848039 0.000338304 0)
(0.000277289 0.000395817 0)
(-0.000380313 0.000459826 0)
(-0.00113342 0.000530747 0)
(-0.00199099 0.00060887 0)
(-0.00296206 0.00069434 0)
(-0.00405551 0.000787135 0)
(-0.00527983 0.00088705 0)
(-0.00664282 0.00099368 0)
(-0.00815127 0.0011064 0)
(-0.00981067 0.00122434 0)
(-0.0116249 0.00134637 0)
(-0.0135956 0.00147112 0)
(-0.0157225 0.00159691 0)
(-0.0180023 0.00172183 0)
(-0.0204289 0.00184368 0)
(-0.0229929 0.00196006 0)
(-0.0256818 0.00206835 0)
(-0.0284792 0.0021658 0)
(-0.0313656 0.00224955 0)
(-0.0343178 0.00231672 0)
(-0.0373095 0.00236443 0)
(-0.0403111 0.00238992 0)
(-0.0432906 0.0023906 0)
(-0.0462137 0.0023641 0)
(-0.0490441 0.00230836 0)
(-0.0517445 0.00222169 0)
(-0.0542767 0.00210281 0)
(-0.0566028 0.00195092 0)
(-0.0586853 0.00176573 0)
(-0.0604878 0.00154752 0)
(-0.0619762 0.00129716 0)
(-0.0631185 0.00101614 0)
(-0.063886 0.00070663 0)
(-0.0642538 0.000371433 0)
(-0.0642011 1.40516e-05 0)
(-0.0637121 -0.00036134 0)
(-0.062776 -0.000749907 0)
(-0.0613881 -0.00114619 0)
(-0.0595497 -0.00154413 0)
(-0.0572684 -0.00193721 0)
(-0.0545587 -0.00231848 0)
(-0.0514418 -0.00268075 0)
(-0.047946 -0.00301671 0)
(-0.044106 -0.00331916 0)
(-0.0399632 -0.00358118 0)
(-0.0355651 -0.00379642 0)
(-0.0309644 -0.00395931 0)
(-0.0262186 -0.0040653 0)
(-0.0213887 -0.00411112 0)
(-0.0165382 -0.00409496 0)
(-0.0117318 -0.00401666 0)
(-0.00703388 -0.00387777 0)
(-0.00250677 -0.00368158 0)
(0.00179044 -0.00343309 0)
(0.00580367 -0.00313888 0)
(0.00948524 -0.00280685 0)
(0.0127951 -0.00244593 0)
(0.0157021 -0.00206576 0)
(0.0181842 -0.00167626 0)
(0.0202298 -0.00128723 0)
(0.0218369 -0.000907962 0)
(0.0230133 -0.000546852 0)
(0.0237759 -0.000211119 0)
(0.0241497 9.34259e-05 0)
(0.0241663 0.000362522 0)
(0.0238629 0.000593496 0)
(0.0232802 0.000785223 0)
(0.022461 0.000937998 0)
(0.0214488 0.00105336 0)
(0.020286 0.00113386 0)
(0.0190129 0.0011828 0)
(0.0176667 0.001204 0)
(0.0162806 0.00120158 0)
(0.0148836 0.00117969 0)
(0.0134998 0.00114241 0)
(0.012149 0.00109355 0)
(0.0108461 0.0010367 0)
(0.00960262 0.00097489 0)
(0.00842513 0.000910955 0)
(0.00731846 0.000846942 0)
(0.006283 0.000784785 0)
(0.00531957 0.000725173 0)
(0.00442482 0.000668897 0)
(0.00359955 0.000614572 0)
(0.00284007 0.000561515 0)
(0.00215246 0.000505205 0)
(0.00153664 0.000443791 0)
(0.0010093 0.000368915 0)
(0.000575449 0.000281306 0)
(0.000261244 0.000172247 0)
(6.59444e-05 6.41967e-05 0)
(-2.3279e-06 -2.54333e-05 0)
(2.85416e-05 -9.762e-05 0)
(0.000184533 -0.000307812 0)
(0.000466997 -0.00046746 0)
(0.000814489 -0.00057701 0)
(0.00121667 -0.000633742 0)
(0.00163258 -0.000652175 0)
(0.00205164 -0.000639762 0)
(0.00245054 -0.000607101 0)
(0.00282308 -0.000559933 0)
(0.00315744 -0.000504004 0)
(0.00345077 -0.000442341 0)
(0.00369737 -0.000377501 0)
(0.0038959 -0.000310645 0)
(0.00404328 -0.000242583 0)
(0.00413831 -0.000173463 0)
(0.00417862 -0.000103234 0)
(0.00416242 -3.15263e-05 0)
(0.00408697 4.21622e-05 0)
(0.00394946 0.000118537 0)
(0.00374617 0.00019845 0)
(0.00347288 0.000282938 0)
(0.00312437 0.000373208 0)
(0.00269456 0.000470639 0)
(0.0021763 0.000576754 0)
(0.00156134 0.000693182 0)
(0.000840308 0.000821598 0)
(2.74987e-06 0.000963652 0)
(-0.000962807 0.00112089 0)
(-0.00206867 0.00129469 0)
(-0.00332777 0.00148612 0)
(-0.00475338 0.00169597 0)
(-0.00635876 0.00192458 0)
(-0.00815677 0.00217184 0)
(-0.0101594 0.00243712 0)
(-0.0123774 0.00271921 0)
(-0.0148196 0.00301631 0)
(-0.0174924 0.00332592 0)
(-0.0203994 0.00364488 0)
(-0.0235407 0.00396932 0)
(-0.0269124 0.00429468 0)
(-0.0305063 0.0046157 0)
(-0.0343094 0.00492653 0)
(-0.0383039 0.00522079 0)
(-0.0424666 0.00549169 0)
(-0.0467694 0.00573217 0)
(-0.0511794 0.00593507 0)
(-0.0556588 0.00609329 0)
(-0.0601662 0.00620001 0)
(-0.0646564 0.00624884 0)
(-0.0690816 0.00623401 0)
(-0.0733922 0.00615054 0)
(-0.0775372 0.00599436 0)
(-0.0814658 0.00576243 0)
(-0.0851276 0.00545285 0)
(-0.0884739 0.00506492 0)
(-0.0914579 0.00459916 0)
(-0.0940362 0.00405736 0)
(-0.0961686 0.00344256 0)
(-0.0978192 0.00275909 0)
(-0.0989567 0.00201249 0)
(-0.0995547 0.00120954 0)
(-0.0995921 0.00035822 0)
(-0.0990538 -0.000532347 0)
(-0.0979302 -0.00145193 0)
(-0.0962183 -0.00238927 0)
(-0.093921 -0.00333212 0)
(-0.0910483 -0.00426744 0)
(-0.0876165 -0.00518146 0)
(-0.0836487 -0.00605989 0)
(-0.0791751 -0.00688819 0)
(-0.0742325 -0.00765178 0)
(-0.0688643 -0.00833643 0)
(-0.0631206 -0.00892855 0)
(-0.0570574 -0.00941565 0)
(-0.0507363 -0.00978675 0)
(-0.0442238 -0.0100328 0)
(-0.0375904 -0.0101471 0)
(-0.0309099 -0.0101256 0)
(-0.0242576 -0.00996751 0)
(-0.0177096 -0.00967506 0)
(-0.0113408 -0.00925401 0)
(-0.00522394 -0.00871343 0)
(0.000572682 -0.0080656 0)
(0.00598621 -0.00732571 0)
(0.010961 -0.00651135 0)
(0.0154501 -0.00564198 0)
(0.019416 -0.00473825 0)
(0.0228321 -0.00382119 0)
(0.025683 -0.0029115 0)
(0.0279647 -0.00202874 0)
(0.0296847 -0.00119065 0)
(0.0308614 -0.000412531 0)
(0.0315232 0.000293224 0)
(0.0317072 0.00091743 0)
(0.0314578 0.00145425 0)
(0.0308247 0.00190115 0)
(0.0298613 0.00225867 0)
(0.0286227 0.00253011 0)
(0.0271636 0.00272106 0)
(0.0255369 0.00283886 0)
(0.0237922 0.00289214 0)
(0.0219745 0.00289019 0)
(0.0201236 0.00284262 0)
(0.0182738 0.00275881 0)
(0.0164527 0.00264777 0)
(0.014683 0.00251764 0)
(0.0129808 0.00237584 0)
(0.0113585 0.00222832 0)
(0.00982252 0.00208016 0)
(0.00837858 0.0019341 0)
(0.00702648 0.00179204 0)
(0.00577057 0.00165201 0)
(0.00460878 0.00151181 0)
(0.00355105 0.00136312 0)
(0.00259798 0.00120048 0)
(0.0017723 0.00100944 0)
(0.00107762 0.000789307 0)
(0.000551128 0.000528709 0)
(0.000186321 0.000263718 0)
(1.99822e-05 2.42444e-05 0)
(3.87858e-05 -0.00020296 0)
(0.000235053 -0.000556548 0)
(0.000577335 -0.000815009 0)
(0.000986107 -0.000985732 0)
(0.0014509 -0.00107361 0)
(0.00192457 -0.00109838 0)
(0.0023964 -0.00107326 0)
(0.00283991 -0.00101345 0)
(0.00324791 -0.000928704 0)
(0.00360632 -0.00082767 0)
(0.00391094 -0.000715549 0)
(0.00415418 -0.000596243 0)
(0.00433309 -0.000471754 0)
(0.00444274 -0.000343234 0)
(0.00448011 -0.000210888 0)
(0.00444077 -7.44556e-05 0)
(0.00432075 6.6803e-05 0)
(0.00411494 0.000213926 0)
(0.00381792 0.000368274 0)
(0.0034231 0.000531491 0)
(0.00292314 0.000705524 0)
(0.00230939 0.000892611 0)
(0.0015721 0.00109526 0)
(0.000700121 0.0013162 0)
(-0.000318996 0.00155827 0)
(-0.00149903 0.00182436 0)
(-0.00285492 0.00211718 0)
(-0.00440262 0.00243921 0)
(-0.00615872 0.00279244 0)
(-0.00814012 0.00317828 0)
(-0.0103635 0.00359738 0)
(-0.0128447 0.00404953 0)
(-0.0155983 0.00453347 0)
(-0.0186365 0.00504689 0)
(-0.021969 0.00558626 0)
(-0.0256015 0.00614682 0)
(-0.0295357 0.00672251 0)
(-0.0337682 0.00730597 0)
(-0.03829 0.00788861 0)
(-0.043086 0.00846067 0)
(-0.0481347 0.00901136 0)
(-0.053408 0.00952909 0)
(-0.0588717 0.0100017 0)
(-0.0644852 0.0104169 0)
(-0.0702024 0.0107622 0)
(-0.0759726 0.0110259 0)
(-0.081741 0.0111968 0)
(-0.0874501 0.0112649 0)
(-0.093041 0.0112216 0)
(-0.098454 0.0110599 0)
(-0.10363 0.0107744 0)
(-0.108512 0.010362 0)
(-0.113045 0.00982116 0)
(-0.117178 0.00915253 0)
(-0.120863 0.00835859 0)
(-0.124058 0.00744368 0)
(-0.126723 0.00641389 0)
(-0.128827 0.00527699 0)
(-0.130342 0.00404227 0)
(-0.131243 0.00272051 0)
(-0.131514 0.00132387 0)
(-0.131143 -0.000134184 0)
(-0.130122 -0.00163891 0)
(-0.128449 -0.00317438 0)
(-0.126128 -0.00472355 0)
(-0.123168 -0.00626833 0)
(-0.119582 -0.0077897 0)
(-0.11539 -0.00926785 0)
(-0.110618 -0.0106824 0)
(-0.105298 -0.0120127 0)
(-0.0994652 -0.013238 0)
(-0.0931643 -0.014338 0)
(-0.086444 -0.0152934 0)
(-0.0793594 -0.016086 0)
(-0.0719711 -0.0166998 0)
(-0.0643449 -0.0171211 0)
(-0.0565512 -0.0173395 0)
(-0.0486642 -0.0173482 0)
(-0.0407611 -0.0171445 0)
(-0.0329206 -0.0167303 0)
(-0.0252218 -0.0161123 0)
(-0.0177432 -0.0153017 0)
(-0.0105603 -0.014315 0)
(-0.00374468 -0.0131726 0)
(0.00263758 -0.011899 0)
(0.00852764 -0.010522 0)
(0.0138751 -0.0090717 0)
(0.0186393 -0.00757946 0)
(0.0227901 -0.00607711 0)
(0.0263087 -0.00459569 0)
(0.0291881 -0.00316441 0)
(0.031433 -0.00180971 0)
(0.0330599 -0.000554402 0)
(0.0340957 0.000583035 0)
(0.0345774 0.00158889 0)
(0.0345503 0.00245443 0)
(0.0340666 0.0031759 0)
(0.0331832 0.00375427 0)
(0.0319599 0.00419471 0)
(0.0304576 0.004506 0)
(0.0287356 0.00469976 0)
(0.0268509 0.00478961 0)
(0.0248559 0.00479045 0)
(0.0227979 0.00471757 0)
(0.0207175 0.00458624 0)
(0.0186498 0.00441074 0)
(0.0166219 0.00420438 0)
(0.0146567 0.00397835 0)
(0.012769 0.00374221 0)
(0.0109725 0.00350196 0)
(0.00927269 0.00326161 0)
(0.0076799 0.00301956 0)
(0.00619525 0.0027727 0)
(0.00483368 0.00250974 0)
(0.00359622 0.00222175 0)
(0.00251148 0.00188923 0)
(0.00158007 0.00150858 0)
(0.000851483 0.00106528 0)
(0.000314792 0.000598423 0)
(4.41118e-05 0.000139866 0)
(4.3287e-05 -0.000331633 0)
(0.000260924 -0.000850803 0)
(0.000635876 -0.00121742 0)
(0.00107517 -0.00145028 0)
(0.00156704 -0.00156635 0)
(0.00205958 -0.00159136 0)
(0.00254217 -0.0015456 0)
(0.00298641 -0.00144875 0)
(0.00338471 -0.00131498 0)
(0.00372149 -0.00115567 0)
(0.0039914 -0.00097828 0)
(0.00418511 -0.000787904 0)
(0.00429795 -0.000587317 0)
(0.00432285 -0.000377846 0)
(0.00425454 -0.000159608 0)
(0.00408606 6.80702e-05 0)
(0.00381073 0.000306501 0)
(0.00342045 0.000557499 0)
(0.00290659 0.000823336 0)
(0.00225909 0.00110673 0)
(0.00146684 0.00141082 0)
(0.00051723 0.00173917 0)
(-0.000603746 0.00209569 0)
(-0.00191164 0.00248455 0)
(-0.00342341 0.00290999 0)
(-0.00515732 0.00337613 0)
(-0.00713265 0.00388674 0)
(-0.00936934 0.00444495 0)
(-0.0118874 0.00505299 0)
(-0.0147063 0.0057119 0)
(-0.0178443 0.00642134 0)
(-0.0213174 0.00717931 0)
(-0.0251386 0.00798202 0)
(-0.0293169 0.00882374 0)
(-0.0338563 0.0096967 0)
(-0.0387551 0.0105911 0)
(-0.0440049 0.011495 0)
(-0.0495901 0.0123946 0)
(-0.0554873 0.0132746 0)
(-0.0616655 0.0141178 0)
(-0.068086 0.0149064 0)
(-0.0747028 0.0156219 0)
(-0.0814636 0.0162456 0)
(-0.0883106 0.0167597 0)
(-0.0951822 0.0171471 0)
(-0.102014 0.0173925 0)
(-0.108739 0.0174826 0)
(-0.115293 0.0174065 0)
(-0.121612 0.017156 0)
(-0.127634 0.0167258 0)
(-0.133302 0.0161131 0)
(-0.138563 0.0153183 0)
(-0.143369 0.014344 0)
(-0.147676 0.0131956 0)
(-0.151447 0.0118805 0)
(-0.154648 0.0104081 0)
(-0.157254 0.00878961 0)
(-0.15924 0.00703792 0)
(-0.160588 0.00516726 0)
(-0.161283 0.00319325 0)
(-0.161317 0.00113275 0)
(-0.160681 -0.000996144 0)
(-0.159373 -0.00317414 0)
(-0.157394 -0.00538072 0)
(-0.154748 -0.00759421 0)
(-0.151444 -0.00979171 0)
(-0.147494 -0.0119493 0)
(-0.142916 -0.0140419 0)
(-0.13773 -0.0160439 0)
(-0.131964 -0.0179288 0)
(-0.12565 -0.0196701 0)
(-0.118826 -0.0212416 0)
(-0.111534 -0.0226178 0)
(-0.103826 -0.0237746 0)
(-0.0957572 -0.0246902 0)
(-0.0873894 -0.0253457 0)
(-0.0787901 -0.0257257 0)
(-0.0700318 -0.0258197 0)
(-0.0611909 -0.0256218 0)
(-0.0523472 -0.0251323 0)
(-0.0435822 -0.0243573 0)
(-0.0349779 -0.0233094 0)
(-0.0266154 -0.0220075 0)
(-0.0185729 -0.0204764 0)
(-0.0109246 -0.0187465 0)
(-0.00373885 -0.0168527 0)
(0.00292333 -0.0148337 0)
(0.00900938 -0.0127308 0)
(0.0144764 -0.0105866 0)
(0.019292 -0.00844348 0)
(0.0234352 -0.00634251 0)
(0.0268963 -0.00432205 0)
(0.0296775 -0.00241657 0)
(0.0317926 -0.000655633 0)
(0.0332663 0.000936928 0)
(0.0341337 0.00234357 0)
(0.0344388 0.00355332 0)
(0.0342332 0.00456178 0)
(0.0335743 0.00537079 0)
(0.0325234 0.00598782 0)
(0.0311435 0.00642522 0)
(0.0294976 0.00669917 0)
(0.0276464 0.00682869 0)
(0.0256471 0.00683444 0)
(0.0235512 0.00673786 0)
(0.0214054 0.00655989 0)
(0.0192481 0.00632055 0)
(0.0171132 0.00603736 0)
(0.0150255 0.00572552 0)
(0.0130083 0.00539564 0)
(0.0110746 0.00505492 0)
(0.00924234 0.00470338 0)
(0.00751722 0.00433775 0)
(0.00592041 0.00394491 0)
(0.00445421 0.00351245 0)
(0.00315415 0.00301663 0)
(0.0020192 0.00244864 0)
(0.00111319 0.00178966 0)
(0.00042386 0.00107187 0)
(6.31037e-05 0.000320059 0)
(4.51989e-05 -0.000466879 0)
(0.000271142 -0.001159 0)
(0.000655735 -0.00163291 0)
(0.00109856 -0.00192151 0)
(0.00158596 -0.00205694 0)
(0.00206337 -0.00207227 0)
(0.00252022 -0.00199567 0)
(0.00292719 -0.00185119 0)
(0.00327651 -0.00165724 0)
(0.00355152 -0.00142753 0)
(0.00374578 -0.00117139 0)
(0.00384821 -0.000894746 0)
(0.00385214 -0.000600823 0)
(0.00374813 -0.000290814 0)
(0.00352819 3.55112e-05 0)
(0.00318239 0.000379501 0)
(0.0027008 0.000743284 0)
(0.00207178 0.0011297 0)
(0.00128293 0.00154219 0)
(0.000320152 0.00198478 0)
(-0.000831921 0.00246204 0)
(-0.00219039 0.00297907 0)
(-0.00377385 0.00354131 0)
(-0.00560248 0.00415441 0)
(-0.00769778 0.00482392 0)
(-0.0100822 0.00555498 0)
(-0.0127788 0.00635191 0)
(-0.0158104 0.00721784 0)
(-0.0191988 0.00815423 0)
(-0.022964 0.00916053 0)
(-0.0271229 0.0102338 0)
(-0.0316883 0.0113686 0)
(-0.0366676 0.0125563 0)
(-0.0420621 0.0137857 0)
(-0.0478654 0.0150423 0)
(-0.054063 0.0163089 0)
(-0.0606316 0.0175657 0)
(-0.0675388 0.0187904 0)
(-0.0747434 0.0199593 0)
(-0.082196 0.0210473 0)
(-0.0898396 0.0220291 0)
(-0.0976113 0.02288 0)
(-0.105444 0.0235762 0)
(-0.113267 0.0240965 0)
(-0.121009 0.024422 0)
(-0.128601 0.0245372 0)
(-0.135975 0.0244301 0)
(-0.143067 0.0240927 0)
(-0.149819 0.0235205 0)
(-0.156176 0.022713 0)
(-0.162091 0.0216726 0)
(-0.167523 0.0204053 0)
(-0.172434 0.0189192 0)
(-0.176793 0.017225 0)
(-0.180576 0.0153352 0)
(-0.183758 0.0132641 0)
(-0.186324 0.0110271 0)
(-0.188256 0.00864085 0)
(-0.189544 0.00612314 0)
(-0.190176 0.00349273 0)
(-0.190147 0.000769421 0)
(-0.18945 -0.00202587 0)
(-0.188083 -0.00487108 0)
(-0.186044 -0.00774284 0)
(-0.183334 -0.0106164 0)
(-0.179957 -0.0134657 0)
(-0.175922 -0.016263 0)
(-0.171237 -0.0189794 0)
(-0.165919 -0.0215846 0)
(-0.159986 -0.0240474 0)
(-0.153463 -0.0263357 0)
(-0.14638 -0.0284176 0)
(-0.138774 -0.0302615 0)
(-0.130687 -0.0318369 0)
(-0.12217 -0.0331157 0)
(-0.11328 -0.0340726 0)
(-0.104079 -0.0346866 0)
(-0.0946387 -0.0349416 0)
(-0.0850334 -0.0348276 0)
(-0.0753439 -0.0343413 0)
(-0.0656539 -0.0334869 0)
(-0.0560493 -0.0322765 0)
(-0.0466164 -0.0307299 0)
(-0.0374402 -0.0288747 0)
(-0.0286028 -0.0267455 0)
(-0.0201812 -0.0243832 0)
(-0.0122462 -0.0218338 0)
(-0.00486072 -0.0191471 0)
(0.00192117 -0.0163754 0)
(0.00805553 -0.0135714 0)
(0.013509 -0.0107874 0)
(0.0182595 -0.00807302 0)
(0.0222963 -0.00547435 0)
(0.0256201 -0.00303233 0)
(0.0282428 -0.000781788 0)
(0.0301875 0.00124948 0)
(0.0314872 0.00304132 0)
(0.0321841 0.00458147 0)
(0.0323285 0.0058656 0)
(0.0319768 0.00689686 0)
(0.0311901 0.00768533 0)
(0.0300322 0.0082469 0)
(0.028567 0.00860228 0)
(0.0268577 0.0087755 0)
(0.0249636 0.00879281 0)
(0.0229403 0.00868098 0)
(0.0208365 0.00846637 0)
(0.0186966 0.00817308 0)
(0.0165557 0.00782245 0)
(0.0144471 0.0074306 0)
(0.0123926 0.00700893 0)
(0.0104189 0.00656044 0)
(0.00853759 0.00608274 0)
(0.00677717 0.00556229 0)
(0.00514261 0.00498364 0)
(0.00367716 0.00431943 0)
(0.00238005 0.00355338 0)
(0.00132933 0.00265994 0)
(0.00051397 0.00165536 0)
(7.85484e-05 0.000549722 0)
(4.46534e-05 -0.00060592 0)
(0.000267363 -0.00147201 0)
(0.000642079 -0.00204867 0)
(0.0010654 -0.00238485 0)
(0.0015216 -0.00252932 0)
(0.00195521 -0.00252354 0)
(0.00235538 -0.0024041 0)
(0.0026927 -0.00219947 0)
(0.00295902 -0.0019321 0)
(0.00313698 -0.00161758 0)
(0.00321882 -0.00126679 0)
(0.00319173 -0.000885971 0)
(0.00304672 -0.000478445 0)
(0.00277166 -4.48904e-05 0)
(0.00235547 0.000415586 0)
(0.00178478 0.000905314 0)
(0.00104593 0.00142752 0)
(0.000123293 0.00198634 0)
(-0.000999803 0.00258663 0)
(-0.00234192 0.00323397 0)
(-0.00392309 0.00393457 0)
(-0.00576512 0.00469514 0)
(-0.00789133 0.0055227 0)
(-0.0103264 0.00642423 0)
(-0.0130959 0.00740625 0)
(-0.0162257 0.00847431 0)
(-0.0197412 0.00963243 0)
(-0.0236662 0.0108825 0)
(-0.028022 0.0122237 0)
(-0.0328258 0.013652 0)
(-0.0380896 0.0151599 0)
(-0.0438185 0.0167357 0)
(-0.05001 0.018364 0)
(-0.0566523 0.020025 0)
(-0.0637242 0.0216956 0)
(-0.0711939 0.0233488 0)
(-0.0790199 0.0249553 0)
(-0.0871509 0.0264835 0)
(-0.0955273 0.0279012 0)
(-0.104082 0.029176 0)
(-0.112745 0.0302771 0)
(-0.121439 0.0311758 0)
(-0.130091 0.0318467 0)
(-0.138625 0.0322686 0)
(-0.146972 0.0324246 0)
(-0.155065 0.032303 0)
(-0.162844 0.0318966 0)
(-0.170254 0.031203 0)
(-0.17725 0.0302239 0)
(-0.183789 0.0289648 0)
(-0.189837 0.0274343 0)
(-0.195364 0.0256439 0)
(-0.200347 0.0236067 0)
(-0.204764 0.021338 0)
(-0.208598 0.018854 0)
(-0.211833 0.0161718 0)
(-0.214458 0.0133097 0)
(-0.216461 0.0102864 0)
(-0.217831 0.00712141 0)
(-0.21856 0.00383514 0)
(-0.21864 0.00044883 0)
(-0.218063 -0.00301516 0)
(-0.216823 -0.00653316 0)
(-0.214914 -0.01008 0)
(-0.212333 -0.0136289 0)
(-0.209079 -0.0171511 0)
(-0.205151 -0.0206161 0)
(-0.200553 -0.0239912 0)
(-0.195292 -0.027242 0)
(-0.189378 -0.0303324 0)
(-0.182828 -0.0332249 0)
(-0.175663 -0.0358816 0)
(-0.167911 -0.0382639 0)
(-0.159607 -0.0403346 0)
(-0.150794 -0.042058 0)
(-0.141521 -0.0434013 0)
(-0.131847 -0.0443361 0)
(-0.12184 -0.0448396 0)
(-0.111572 -0.0448954 0)
(-0.101125 -0.0444954 0)
(-0.0905851 -0.04364 0)
(-0.0800426 -0.0423391 0)
(-0.0695901 -0.0406123 0)
(-0.0593206 -0.0384887 0)
(-0.0493252 -0.0360066 0)
(-0.0396911 -0.0332121 0)
(-0.0304998 -0.0301583 0)
(-0.021825 -0.0269033 0)
(-0.0137315 -0.0235089 0)
(-0.00627425 -0.0200384 0)
(0.000502882 -0.0165547 0)
(0.00656715 -0.0131191 0)
(0.0118972 -0.00978883 0)
(0.0164831 -0.00661631 0)
(0.0203262 -0.00364745 0)
(0.0234386 -0.000920739 0)
(0.0258429 0.00153365 0)
(0.0275714 0.00369437 0)
(0.0286656 0.00554917 0)
(0.0291745 0.0070948 0)
(0.0291537 0.00833661 0)
(0.0286639 0.00928771 0)
(0.0277682 0.00996798 0)
(0.0265315 0.0104026 0)
(0.0250169 0.0106206 0)
(0.0232864 0.0106532 0)
(0.021396 0.0105322 0)
(0.0193991 0.0102876 0)
(0.0173398 0.00994708 0)
(0.0152614 0.0095326 0)
(0.0131943 0.00906044 0)
(0.0111745 0.00853756 0)
(0.00922045 0.00796337 0)
(0.00736873 0.00732503 0)
(0.00562862 0.00660433 0)
(0.00405178 0.0057707 0)
(0.00263993 0.00479862 0)
(0.00148448 0.00365393 0)
(0.000577385 0.00233119 0)
(8.87611e-05 0.000820442 0)
(4.29761e-05 -0.000739475 0)
(0.000254108 -0.00176984 0)
(0.000602631 -0.00243739 0)
(0.00098613 -0.00280783 0)
(0.00138685 -0.00294727 0)
(0.00175039 -0.00290632 0)
(0.0020655 -0.00273026 0)
(0.00230342 -0.00245172 0)
(0.00245545 -0.00209681 0)
(0.00250368 -0.00168242 0)
(0.00243874 -0.00122033 0)
(0.00224588 -0.000716554 0)
(0.00191343 -0.000173988 0)
(0.00142619 0.00040765 0)
(0.000769545 0.00103029 0)
(-7.37294e-05 0.00169757 0)
(-0.00112149 0.0024141 0)
(-0.00239378 0.00318557 0)
(-0.0039119 0.00401845 0)
(-0.00569919 0.00492004 0)
(-0.0077805 0.00589822 0)
(-0.0101824 0.00696128 0)
(-0.0129325 0.00811754 0)
(-0.0160596 0.00937482 0)
(-0.0195921 0.0107398 0)
(-0.0235579 0.0122174 0)
(-0.0279825 0.0138098 0)
(-0.0328881 0.0155159 0)
(-0.0382919 0.0173302 0)
(-0.0442044 0.019243 0)
(-0.0506281 0.0212392 0)
(-0.0575562 0.0232986 0)
(-0.064971 0.0253958 0)
(-0.072844 0.0275009 0)
(-0.0811351 0.0295796 0)
(-0.0897936 0.0315946 0)
(-0.0987587 0.0335068 0)
(-0.107961 0.0352763 0)
(-0.117327 0.0368643 0)
(-0.126777 0.038234 0)
(-0.136232 0.0393525 0)
(-0.145613 0.0401915 0)
(-0.154846 0.0407282 0)
(-0.163863 0.0409456 0)
(-0.172599 0.0408328 0)
(-0.181 0.0403845 0)
(-0.189019 0.0396006 0)
(-0.196613 0.0384857 0)
(-0.20375 0.0370481 0)
(-0.2104 0.0352993 0)
(-0.21654 0.0332531 0)
(-0.22215 0.0309253 0)
(-0.227214 0.0283328 0)
(-0.231718 0.0254932 0)
(-0.235649 0.0224251 0)
(-0.238997 0.0191471 0)
(-0.241751 0.0156785 0)
(-0.2439 0.0120389 0)
(-0.245436 0.00824825 0)
(-0.246349 0.0043274 0)
(-0.24663 0.000298007 0)
(-0.246269 -0.00381709 0)
(-0.245257 -0.00799362 0)
(-0.243586 -0.0122056 0)
(-0.241248 -0.0164249 0)
(-0.238235 -0.0206213 0)
(-0.234541 -0.0247621 0)
(-0.230163 -0.028812 0)
(-0.2251 -0.0327331 0)
(-0.219353 -0.0364853 0)
(-0.212929 -0.0400261 0)
(-0.205839 -0.0433115 0)
(-0.1981 -0.0462966 0)
(-0.189737 -0.0489364 0)
(-0.180783 -0.0511873 0)
(-0.171279 -0.0530079 0)
(-0.161275 -0.054361 0)
(-0.150832 -0.0552149 0)
(-0.14002 -0.0555452 0)
(-0.128918 -0.0553361 0)
(-0.117614 -0.0545819 0)
(-0.106201 -0.0532881 0)
(-0.0947807 -0.0514718 0)
(-0.0834534 -0.0491618 0)
(-0.0723216 -0.0463985 0)
(-0.061485 -0.0432323 0)
(-0.0510383 -0.0397227 0)
(-0.0410689 -0.0359363 0)
(-0.0316546 -0.0319444 0)
(-0.0228627 -0.0278211 0)
(-0.0147486 -0.0236409 0)
(-0.00735543 -0.0194765 0)
(-0.000713945 -0.015397 0)
(0.00515706 -0.011466 0)
(0.0102504 -0.00774079 0)
(0.01457 -0.00427033 0)
(0.0181302 -0.00109502 0)
(0.0209551 0.00175426 0)
(0.0230781 0.00425654 0)
(0.024541 0.0064009 0)
(0.0253927 0.00818628 0)
(0.0256888 0.00962092 0)
(0.0254889 0.0107216 0)
(0.0248566 0.0115121 0)
(0.0238559 0.0120223 0)
(0.0225516 0.0122854 0)
(0.0210045 0.0123372 0)
(0.0192745 0.0122125 0)
(0.0174132 0.0119444 0)
(0.0154723 0.0115605 0)
(0.0134906 0.0110823 0)
(0.0115129 0.0105212 0)
(0.0095651 0.00987899 0)
(0.00769221 0.00914451 0)
(0.0059092 0.00829714 0)
(0.00427608 0.00730331 0)
(0.00279897 0.00612715 0)
(0.00158044 0.00472439 0)
(0.000616703 0.00306463 0)
(9.4996e-05 0.00111546 0)
(4.00286e-05 -0.000866015 0)
(0.000231961 -0.00204508 0)
(0.000539959 -0.00278712 0)
(0.000865449 -0.00317542 0)
(0.00118887 -0.00329363 0)
(0.00145854 -0.00320181 0)
(0.00166277 -0.00295374 0)
(0.00177408 -0.00258589 0)
(0.00178294 -0.00212743 0)
(0.00167092 -0.00159587 0)
(0.00142666 -0.00100328 0)
(0.00103322 -0.000354775 0)
(0.000475766 0.000347675 0)
(-0.000264287 0.00110578 0)
(-0.0012056 0.00192289 0)
(-0.00236959 0.00280427 0)
(-0.0037787 0.00375616 0)
(-0.00545766 0.00478601 0)
(-0.00743266 0.00590203 0)
(-0.00973184 0.00711327 0)
(-0.0123848 0.00842915 0)
(-0.0154222 0.00985923 0)
(-0.0188757 0.0114125 0)
(-0.0227763 0.0130968 0)
(-0.0271541 0.0149176 0)
(-0.0320361 0.0168775 0)
(-0.0374452 0.0189747 0)
(-0.0433983 0.0212026 0)
(-0.0499043 0.0235487 0)
(-0.0569627 0.0259943 0)
(-0.0645619 0.028514 0)
(-0.0726785 0.0310766 0)
(-0.0812765 0.0336447 0)
(-0.0903078 0.0361766 0)
(-0.0997128 0.0386269 0)
(-0.109422 0.0409484 0)
(-0.119359 0.043094 0)
(-0.129441 0.0450184 0)
(-0.139586 0.0466799 0)
(-0.14971 0.0480418 0)
(-0.159734 0.0490736 0)
(-0.169585 0.0497517 0)
(-0.179196 0.0500596 0)
(-0.188509 0.0499877 0)
(-0.197474 0.0495328 0)
(-0.206047 0.0486973 0)
(-0.214195 0.0474883 0)
(-0.221887 0.0459169 0)
(-0.229101 0.0439969 0)
(-0.235817 0.0417444 0)
(-0.242018 0.0391769 0)
(-0.247693 0.0363128 0)
(-0.252829 0.0331711 0)
(-0.257416 0.0297711 0)
(-0.261445 0.026132 0)
(-0.264908 0.0222734 0)
(-0.267797 0.0182146 0)
(-0.270104 0.0139754 0)
(-0.27182 0.00957587 0)
(-0.272936 0.00503654 0)
(-0.273445 0.000378934 0)
(-0.273335 -0.00437429 0)
(-0.272598 -0.00919896 0)
(-0.271222 -0.014069 0)
(-0.269197 -0.0189561 0)
(-0.26651 -0.0238294 0)
(-0.263152 -0.0286551 0)
(-0.25911 -0.0333962 0)
(-0.254377 -0.0380125 0)
(-0.248943 -0.0424607 0)
(-0.242805 -0.0466941 0)
(-0.235963 -0.0506637 0)
(-0.228419 -0.054318 0)
(-0.220187 -0.0576047 0)
(-0.211284 -0.0604714 0)
(-0.201739 -0.0628674 0)
(-0.191591 -0.064745 0)
(-0.180889 -0.0660619 0)
(-0.169695 -0.0667828 0)
(-0.158083 -0.0668818 0)
(-0.146139 -0.0663439 0)
(-0.133958 -0.0651669 0)
(-0.121645 -0.0633624 0)
(-0.109312 -0.0609563 0)
(-0.0970729 -0.0579887 0)
(-0.0850423 -0.054513 0)
(-0.073332 -0.0505945 0)
(-0.0620471 -0.0463082 0)
(-0.0512833 -0.0417357 0)
(-0.0411243 -0.0369634 0)
(-0.0316407 -0.0320786 0)
(-0.0228885 -0.0271672 0)
(-0.0149095 -0.0223115 0)
(-0.00773121 -0.0175878 0)
(-0.00136811 -0.0130649 0)
(0.00417756 -0.00880308 0)
(0.00891453 -0.00485281 0)
(0.0128617 -0.0012545 0)
(0.0160469 0.00196213 0)
(0.0185066 0.00477818 0)
(0.0202843 0.00718557 0)
(0.0214308 0.00918663 0)
(0.0220016 0.0107935 0)
(0.0220576 0.0120272 0)
(0.0216613 0.0129158 0)
(0.0208781 0.0134934 0)
(0.0197711 0.0137972 0)
(0.0184043 0.0138659 0)
(0.0168347 0.0137365 0)
(0.0151206 0.0134419 0)
(0.0133082 0.0130079 0)
(0.0114502 0.0124508 0)
(0.00958016 0.011775 0)
(0.007751 0.0109714 0)
(0.00598445 0.0100172 0)
(0.00434852 0.00887611 0)
(0.00285511 0.00750162 0)
(0.00161542 0.00583882 0)
(0.000630536 0.00383175 0)
(9.67574e-05 0.00142482 0)
(3.62297e-05 -0.000979742 0)
(0.000202399 -0.00228407 0)
(0.000456726 -0.00307835 0)
(0.00070721 -0.00346373 0)
(0.00093266 -0.00354138 0)
(0.00108581 -0.00338073 0)
(0.0011545 -0.00304358 0)
(0.00111318 -0.00256957 0)
(0.000951116 -0.00199014 0)
(0.000649374 -0.00132259 0)
(0.000194075 -0.00057844 0)
(-0.000434177 0.000238727 0)
(-0.00125391 0.00112848 0)
(-0.00228748 0.00209442 0)
(-0.00355801 0.00314166 0)
(-0.00509144 0.00427737 0)
(-0.00691506 0.00550961 0)
(-0.00905843 0.00684769 0)
(-0.0115526 0.00830153 0)
(-0.0144302 0.00988172 0)
(-0.0177251 0.0115988 0)
(-0.0214714 0.013463 0)
(-0.0257028 0.0154828 0)
(-0.0304512 0.0176645 0)
(-0.0357453 0.0200106 0)
(-0.0416085 0.022519 0)
(-0.0480571 0.0251813 0)
(-0.0550984 0.0279823 0)
(-0.0627288 0.0308995 0)
(-0.0709322 0.0339023 0)
(-0.0796792 0.0369528 0)
(-0.088927 0.0400067 0)
(-0.0986194 0.043014 0)
(-0.108689 0.0459212 0)
(-0.119058 0.0486734 0)
(-0.129643 0.0512164 0)
(-0.140358 0.0534987 0)
(-0.151113 0.0554741 0)
(-0.161825 0.0571028 0)
(-0.172414 0.0583525 0)
(-0.182808 0.0591993 0)
(-0.192944 0.0596275 0)