/*--------------------------------*- C++ -*----------------------------------*\
| =========                 |                                                 |
| \\      /  F ield         | OpenFOAM: The Open Source CFD Toolbox           |
|  \\    /   O peration     | Version:  2406                                  |
|   \\  /    A nd           | Website:  www.openfoam.com                      |
|    \\/     M anipulation  |                                                 |
\*---------------------------------------------------------------------------*/
FoamFile
{
    version     2.0;
    format      ascii;
    arch        "LSB;label=32;scalar=64";
    class       volVectorField;
    location    "23.75";
    object      U;
}
// * * * * * * * * * * * * * * * * * * * * * * * * * * * * * * * * * * * * * //

dimensions      [0 1 -1 0 0 0 0];

internalField   nonuniform List<vector> 
14400
(
(7.36654e-07 -7.53275e-07 0)
(3.17363e-05 -1.21524e-05 0)
(0.000109041 -2.38903e-05 0)
(0.000223328 -3.13861e-05 0)
(0.000359066 -3.55197e-05 0)
(0.00050525 -3.69416e-05 0)
(0.0006532 -3.64918e-05 0)
(0.000796783 -3.47907e-05 0)
(0.000931903 -3.23021e-05 0)
(0.00105599 -2.93567e-05 0)
(0.00116755 -2.61852e-05 0)
(0.00126586 -2.29427e-05 0)
(0.00135069 -1.97287e-05 0)
(0.00142215 -1.66023e-05 0)
(0.00148051 -1.35927e-05 0)
(0.00152612 -1.07004e-05 0)
(0.0015594 -7.93274e-06 0)
(0.0015807 -5.39551e-06 0)
(0.00159003 -3.01418e-06 0)
(0.00158742 -5.62345e-07 0)
(0.0015729 1.99347e-06 0)
(0.00154604 4.63073e-06 0)
(0.0015061 7.41737e-06 0)
(0.00145204 1.04453e-05 0)
(0.00138246 1.38079e-05 0)
(0.0012956 1.76007e-05 0)
(0.0011893 2.19188e-05 0)
(0.00106102 2.68533e-05 0)
(0.000907883 3.2488e-05 0)
(0.00072669 3.88969e-05 0)
(0.000513979 4.61429e-05 0)
(0.000266076 5.42755e-05 0)
(-2.0839e-05 6.333e-05 0)
(-0.000350662 7.33262e-05 0)
(-0.000727287 8.42664e-05 0)
(-0.00115452 9.61339e-05 0)
(-0.00163598 0.00010889 0)
(-0.002175 0.000122471 0)
(-0.00277449 0.000136787 0)
(-0.00343681 0.000151717 0)
(-0.00416366 0.000167108 0)
(-0.00495591 0.000182776 0)
(-0.00581346 0.000198501 0)
(-0.00673511 0.000214031 0)
(-0.00771844 0.000229084 0)
(-0.00875968 0.000243348 0)
(-0.00985363 0.00025649 0)
(-0.0109936 0.000268155 0)
(-0.0121713 0.000277975 0)
(-0.0133771 0.000285575 0)
(-0.0145997 0.000290579 0)
(-0.0158262 0.000292617 0)
(-0.0170428 0.000291333 0)
(-0.018234 0.000286394 0)
(-0.0193837 0.000277498 0)
(-0.0204747 0.000264379 0)
(-0.0214893 0.000246823 0)
(-0.0224096 0.000224671 0)
(-0.0232174 0.000197834 0)
(-0.0238951 0.000166279 0)
(-0.0244259 0.000130036 0)
(-0.0247942 8.97505e-05 0)
(-0.0249851 4.66419e-05 0)
(-0.0249845 -3.64644e-07 0)
(-0.0247831 -5.14925e-05 0)
(-0.0243742 -0.000104978 0)
(-0.0237525 -0.00015975 0)
(-0.0229169 -0.000214937 0)
(-0.0218701 -0.000269477 0)
(-0.020619 -0.00032221 0)
(-0.0191744 -0.000371908 0)
(-0.0175517 -0.000417319 0)
(-0.0157704 -0.000457208 0)
(-0.013854 -0.000490415 0)
(-0.0118298 -0.000515906 0)
(-0.00972788 -0.000532826 0)
(-0.00758111 -0.000540555 0)
(-0.00542377 -0.000538746 0)
(-0.00329087 -0.000527362 0)
(-0.00121702 -0.00050669 0)
(0.00076458 -0.000477344 0)
(0.00262323 -0.000440245 0)
(0.00433169 -0.000396581 0)
(0.00586705 -0.000347754 0)
(0.0072114 -0.000295311 0)
(0.00835232 -0.000240865 0)
(0.00928311 -0.00018601 0)
(0.0100027 -0.000132253 0)
(0.0105156 -8.09222e-05 0)
(0.010831 -3.30343e-05 0)
(0.0109634 1.01541e-05 0)
(0.0109285 4.67013e-05 0)
(0.0107449 7.79182e-05 0)
(0.0104352 0.00010451 0)
(0.0100213 0.000125625 0)
(0.00952438 0.000141254 0)
(0.008965 0.000151878 0)
(0.00836244 0.000158041 0)
(0.00773408 0.000160331 0)
(0.00709515 0.000159364 0)
(0.00645857 0.00015575 0)
(0.00583491 0.00015007 0)
(0.00523251 0.000142865 0)
(0.00465757 0.000134622 0)
(0.00411435 0.000125767 0)
(0.00360542 0.000116671 0)
(0.00313186 0.000107642 0)
(0.00269353 9.89273e-05 0)
(0.00228934 9.07087e-05 0)
(0.00191753 8.30906e-05 0)
(0.00157606 7.60831e-05 0)
(0.001263 6.95767e-05 0)
(0.000977111 6.33139e-05 0)
(0.000718438 5.68626e-05 0)
(0.000488973 4.96029e-05 0)
(0.00029322 4.07797e-05 0)
(0.00013839 2.96512e-05 0)
(3.33507e-05 1.5941e-05 0)
(-1.48865e-05 8.58529e-07 0)
(-9.06166e-06 -9.08237e-06 0)
(1.20138e-05 -3.16362e-05 0)
(0.000121973 -0.000122395 0)
(0.000322914 -0.000206565 0)
(0.000600138 -0.000263406 0)
(0.000921108 -0.000295089 0)
(0.00126404 -0.000306626 0)
(0.00161033 -0.000303251 0)
(0.00194605 -0.00028942 0)
(0.00226133 -0.000268637 0)
(0.00254949 -0.000243504 0)
(0.00280623 -0.000215882 0)
(0.00302895 -0.000187051 0)
(0.0032162 -0.000157843 0)
(0.00336729 -0.000128759 0)
(0.00348191 -0.000100052 0)
(0.0035599 -7.17857e-05 0)
(0.00360104 -4.38905e-05 0)
(0.00360511 -1.62968e-05 0)
(0.0035715 1.12043e-05 0)
(0.00349901 3.92818e-05 0)
(0.00338599 6.84123e-05 0)
(0.00323019 9.91093e-05 0)
(0.00302859 0.000132025 0)
(0.00277732 0.000167895 0)
(0.0024716 0.000207504 0)
(0.00210573 0.000251656 0)
(0.00167309 0.000301144 0)
(0.00116618 0.000356716 0)
(0.000576751 0.000419043 0)
(-0.000104116 0.000488696 0)
(-0.00088581 0.000566119 0)
(-0.00177801 0.00065161 0)
(-0.00279044 0.000745306 0)
(-0.00393264 0.000847161 0)
(-0.0052137 0.000956934 0)
(-0.00664191 0.00107416 0)
(-0.0082245 0.00119815 0)
(-0.00996725 0.00132792 0)
(-0.0118742 0.00146225 0)
(-0.0139471 0.00159961 0)
(-0.0161854 0.00173816 0)
(-0.0185856 0.00187578 0)
(-0.0211411 0.00201009 0)
(-0.0238419 0.00213845 0)
(-0.0266743 0.002258 0)
(-0.0296213 0.00236573 0)
(-0.0326619 0.00245854 0)
(-0.0357717 0.00253328 0)
(-0.0389229 0.00258685 0)
(-0.0420845 0.00261625 0)
(-0.0452228 0.00261867 0)
(-0.0483017 0.00259156 0)
(-0.0512837 0.00253269 0)
(-0.0541296 0.00244023 0)
(-0.0567998 0.0023128 0)
(-0.0592548 0.00214952 0)
(-0.0614556 0.00195006 0)
(-0.0633648 0.00171469 0)
(-0.0649466 0.00144432 0)
(-0.0661682 0.00114051 0)
(-0.0669995 0.000805512 0)
(-0.0674142 0.000442628 0)
(-0.0673919 5.6418e-05 0)
(-0.0669159 -0.000349534 0)
(-0.0659734 -0.000771222 0)
(-0.0645595 -0.00120202 0)
(-0.0626755 -0.00163533 0)
(-0.0603288 -0.00206403 0)
(-0.057534 -0.00248065 0)
(-0.0543124 -0.00287735 0)
(-0.0506927 -0.00324622 0)
(-0.0467105 -0.00357938 0)
(-0.0424082 -0.00386925 0)
(-0.0378345 -0.00410883 0)
(-0.0330441 -0.00429192 0)
(-0.0280964 -0.00441341 0)
(-0.0230547 -0.00446957 0)
(-0.0179853 -0.00445824 0)
(-0.0129556 -0.00437901 0)
(-0.00803301 -0.00423336 0)
(-0.00328322 -0.00402472 0)
(0.00123152 -0.00375837 0)
(0.00545396 -0.00344132 0)
(0.00933337 -0.0030821 0)
(0.0128269 -0.00269041 0)
(0.015901 -0.00227677 0)
(0.0185316 -0.00185204 0)
(0.0207055 -0.00142703 0)
(0.0224198 -0.001012 0)
(0.0236819 -0.000616311 0)
(0.0245083 -0.000248237 0)
(0.0249248 8.46867e-05 0)
(0.0249657 0.000379431 0)
(0.0246691 0.000633575 0)
(0.0240769 0.00084472 0)
(0.0232346 0.00101291 0)
(0.0221881 0.00113984 0)
(0.0209822 0.00122829 0)
(0.0196597 0.00128193 0)
(0.0182598 0.00130498 0)
(0.0168179 0.00130198 0)
(0.0153645 0.00127755 0)
(0.0139253 0.0012362 0)
(0.0125211 0.00118217 0)
(0.0111681 0.00111934 0)
(0.00987782 0.00105119 0)
(0.00865791 0.000980672 0)
(0.00751258 0.000910241 0)
(0.00644324 0.000841741 0)
(0.00544921 0.000776326 0)
(0.00452868 0.000714313 0)
(0.00367969 0.00065502 0)
(0.00290138 0.000596593 0)
(0.00219527 0.0005359 0)
(0.00156653 0.000468589 0)
(0.00102482 0.000389624 0)
(0.000584273 0.000294652 0)
(0.000260271 0.000183209 0)
(6.83581e-05 6.48485e-05 0)
(1.57075e-06 -1.42268e-05 0)
(2.36356e-05 -0.000108415 0)
(0.000205647 -0.000323055 0)
(0.000500683 -0.000501647 0)
(0.000890878 -0.000622758 0)
(0.00133271 -0.00069072 0)
(0.00179985 -0.000714967 0)
(0.00226859 -0.000705779 0)
(0.00272055 -0.000672317 0)
(0.00314212 -0.000622039 0)
(0.00352359 -0.000560651 0)
(0.00385823 -0.000492319 0)
(0.00414146 -0.000419943 0)
(0.00437017 -0.000345424 0)
(0.00454216 -0.000269897 0)
(0.00465574 -0.000193923 0)
(0.00470936 -0.000117626 0)
(0.00470132 -4.07646e-05 0)
(0.00462955 3.72622e-05 0)
(0.00449171 0.000117047 0)
(0.0042846 0.000199646 0)
(0.00400403 0.000286342 0)
(0.00364494 0.000378622 0)
(0.00320112 0.000478142 0)
(0.00266514 0.000586702 0)
(0.00202823 0.000706194 0)
(0.00128035 0.000838526 0)
(0.000410174 0.00098554 0)
(-0.000594706 0.00114892 0)
(-0.00174764 0.00133012 0)
(-0.00306262 0.00153027 0)
(-0.00455398 0.00175011 0)
(-0.00623598 0.00198995 0)
(-0.00812242 0.00224957 0)
(-0.0102261 0.00252824 0)
(-0.0125583 0.00282459 0)
(-0.0151283 0.00313663 0)
(-0.0179429 0.00346166 0)
(-0.0210054 0.0037963 0)
(-0.0243158 0.0041364 0)
(-0.0278695 0.00447709 0)
(-0.0316574 0.00481284 0)
(-0.0356652 0.00513747 0)
(-0.0398735 0.00544428 0)
(-0.0442575 0.00572617 0)
(-0.0487869 0.0059758 0)
(-0.0534266 0.00618576 0)
(-0.0581365 0.00634877 0)
(-0.0628726 0.00645786 0)
(-0.0675875 0.00650653 0)
(-0.0722308 0.00648901 0)
(-0.0767507 0.00640032 0)
(-0.0810942 0.00623647 0)
(-0.0852085 0.00599457 0)
(-0.0890414 0.00567286 0)
(-0.0925428 0.00527079 0)
(-0.0956647 0.00478909 0)
(-0.0983625 0.00422973 0)
(-0.100595 0.00359591 0)
(-0.102327 0.00289213 0)
(-0.103524 0.00212408 0)
(-0.104162 0.0012987 0)
(-0.104218 0.000423824 0)
(-0.103677 -0.000491613 0)
(-0.10253 -0.00143617 0)
(-0.100774 -0.00239895 0)
(-0.0984108 -0.00336803 0)
(-0.0954514 -0.00433026 0)
(-0.0919121 -0.00527166 0)
(-0.0878166 -0.00617774 0)
(-0.0831953 -0.0070337 0)
(-0.0780858 -0.00782466 0)
(-0.0725322 -0.00853603 0)
(-0.0665855 -0.00915383 0)
(-0.0603031 -0.00966511 0)
(-0.053748 -0.0100584 0)
(-0.0469884 -0.0103241 0)
(-0.040097 -0.010455 0)
(-0.0331496 -0.0104466 0)
(-0.0262243 -0.0102975 0)
(-0.0193998 -0.0100098 0)
(-0.0127542 -0.00958871 0)
(-0.0063631 -0.00904328 0)
(-0.000298211 -0.00838574 0)
(0.00537448 -0.00763138 0)
(0.0105962 -0.00679809 0)
(0.015317 -0.00590578 0)
(0.0194966 -0.00497568 0)
(0.0231061 -0.00402954 0)
(0.026128 -0.00308892 0)
(0.0285568 -0.00217432 0)
(0.0303988 -0.00130433 0)
(0.0316726 -0.000494524 0)
(0.0324075 0.000241819 0)
(0.0326403 0.000893708 0)
(0.0324163 0.0014552 0)
(0.031788 0.00192356 0)
(0.0308111 0.00229899 0)
(0.029543 0.00258465 0)
(0.0280413 0.00278618 0)
(0.0263618 0.00291113 0)
(0.0245567 0.00296841 0)
(0.0226739 0.00296771 0)
(0.0207554 0.00291904 0)
(0.0188374 0.00283227 0)
(0.0169497 0.00271681 0)
(0.0151158 0.00258127 0)
(0.0133535 0.00243333 0)
(0.0116752 0.00227944 0)
(0.0100887 0.00212469 0)
(0.00859836 0.00197247 0)
(0.00720618 0.00182421 0)
(0.00591327 0.00167899 0)
(0.0047214 0.00153332 0)
(0.00363461 0.00138098 0)
(0.00266075 0.00121337 0)
(0.00181236 0.00102084 0)
(0.00110656 0.000795482 0)
(0.000560222 0.00053686 0)
(0.000199598 0.000261709 0)
(1.85172e-05 3.92357e-05 0)
(3.11693e-05 -0.000222086 0)
(0.000262986 -0.000600043 0)
(0.000622824 -0.000891986 0)
(0.00108725 -0.00108683 0)
(0.00160314 -0.00119435 0)
(0.00214134 -0.00122978 0)
(0.00267537 -0.00120918 0)
(0.00318448 -0.00114702 0)
(0.0036529 -0.00105525 0)
(0.00406891 -0.000943115 0)
(0.00442386 -0.000817459 0)
(0.00471131 -0.000683051 0)
(0.00492628 -0.000543005 0)
(0.00506471 -0.000399149 0)
(0.00512293 -0.000252324 0)
(0.0050973 -0.000102613 0)
(0.00498395 5.05079e-05 0)
(0.00477838 0.00020815 0)
(0.00447536 0.000371848 0)
(0.00406881 0.000543444 0)
(0.00355136 0.000725301 0)
(0.00291433 0.000920159 0)
(0.00214759 0.00113105 0)
(0.00123948 0.00136122 0)
(0.000176726 0.00161404 0)
(-0.00105541 0.00189279 0)
(-0.00247305 0.00220059 0)
(-0.00409337 0.00254014 0)
(-0.0059343 0.00291361 0)
(-0.00801401 0.00332244 0)
(-0.0103504 0.00376724 0)
(-0.0129604 0.00424761 0)
(-0.0158593 0.00476207 0)
(-0.0190602 0.00530798 0)
(-0.0225728 0.0058814 0)
(-0.0264029 0.00647709 0)
(-0.0305516 0.00708843 0)
(-0.0350148 0.00770746 0)
(-0.039782 0.0083249 0)
(-0.0448364 0.00893026 0)
(-0.0501543 0.00951202 0)
(-0.0557052 0.0100579 0)
(-0.0614519 0.0105549 0)
(-0.0673508 0.0109902 0)
(-0.0733527 0.0113508 0)
(-0.0794035 0.0116244 0)
(-0.0854456 0.0117995 0)
(-0.0914185 0.0118659 0)
(-0.0972604 0.011815 0)
(-0.102909 0.0116398 0)
(-0.108305 0.0113351 0)
(-0.113387 0.0108981 0)
(-0.118101 0.0103275 0)
(-0.122394 0.00962432 0)
(-0.126218 0.00879151 0)
(-0.12953 0.00783376 0)
(-0.132292 0.00675758 0)
(-0.13447 0.00557107 0)
(-0.136037 0.00428388 0)
(-0.13697 0.00290712 0)
(-0.137252 0.00145331 0)
(-0.136871 -6.39053e-05 0)
(-0.13582 -0.00162993 0)
(-0.134098 -0.00322839 0)
(-0.131707 -0.0048414 0)
(-0.128657 -0.00645069 0)
(-0.124962 -0.00803689 0)
(-0.120643 -0.00957977 0)
(-0.115724 -0.0110584 0)
(-0.110237 -0.0124513 0)
(-0.104219 -0.0137372 0)
(-0.0977154 -0.0148949 0)
(-0.0907746 -0.0159041 0)
(-0.0834529 -0.0167458 0)
(-0.075812 -0.0174028 0)
(-0.067919 -0.0178607 0)
(-0.059846 -0.018108 0)
(-0.0516692 -0.018137 0)
(-0.043468 -0.0179444 0)
(-0.0353235 -0.0175315 0)
(-0.0273179 -0.0169046 0)
(-0.0195322 -0.0160751 0)
(-0.0120453 -0.0150593 0)
(-0.00493194 -0.0138783 0)
(0.00173871 -0.0125574 0)
(0.00790466 -0.0111252 0)
(0.0135125 -0.00961315 0)
(0.0185188 -0.00805403 0)
(0.0228909 -0.00648126 0)
(0.0266078 -0.00492754 0)
(0.0296611 -0.00342373 0)
(0.0320544 -0.00199779 0)
(0.0338029 -0.000674588 0)
(0.0349335 0.000525565 0)
(0.0354842 0.00158841 0)
(0.0355012 0.00250429 0)
(0.0350382 0.00326867 0)
(0.0341544 0.00388214 0)
(0.032912 0.00434985 0)
(0.0313747 0.00468082 0)
(0.029605 0.00488716 0)
(0.0276627 0.00498321 0)
(0.0256032 0.00498465 0)
(0.0234763 0.00490777 0)
(0.0213256 0.00476868 0)
(0.0191874 0.00458269 0)
(0.0170915 0.00436381 0)
(0.015061 0.00412426 0)
(0.0131131 0.0038739 0)
(0.0112599 0.0036198 0)
(0.00951016 0.00336563 0)
(0.00787033 0.00311112 0)
(0.0063466 0.00285164 0)
(0.00494658 0.00257818 0)
(0.00368099 0.00227802 0)
(0.0025649 0.00193676 0)
(0.00161807 0.00154239 0)
(0.000859764 0.00109276 0)
(0.000331986 0.000606731 0)
(3.53702e-05 0.000158624 0)
(3.56206e-05 -0.000357862 0)
(0.000296741 -0.000921886 0)
(0.000694358 -0.00133492 0)
(0.00119933 -0.0016031 0)
(0.00175088 -0.00174573 0)
(0.00231745 -0.00178559 0)
(0.00287085 -0.0017452 0)
(0.00338904 -0.00164446 0)
(0.00385503 -0.0014998 0)
(0.00425577 -0.00132393 0)
(0.00458104 -0.00112624 0)
(0.00482266 -0.00091325 0)
(0.00497368 -0.000689158 0)
(0.00502785 -0.000456332 0)
(0.00497909 -0.000215722 0)
(0.00482112 3.28369e-05 0)
(0.0045472 0.000290399 0)
(0.00414972 0.00055875 0)
(0.00362008 0.000840474 0)
(0.00294845 0.0011387 0)
(0.00212349 0.00145717 0)
(0.00113228 0.00180015 0)
(-3.9834e-05 0.00217232 0)
(-0.00140926 0.00257858 0)
(-0.00299407 0.0030239 0)
(-0.00481382 0.00351301 0)
(-0.00688922 0.00405013 0)
(-0.00924164 0.00463869 0)
(-0.0118925 0.00528104 0)
(-0.0148627 0.00597815 0)
(-0.0181715 0.00672944 0)
(-0.0218356 0.00753249 0)
(-0.0258684 0.00838296 0)
(-0.030279 0.0092744 0)
(-0.0350708 0.0101982 0)
(-0.0402408 0.0111436 0)
(-0.0457791 0.0120977 0)
(-0.0516676 0.0130456 0)
(-0.0578802 0.0139706 0)
(-0.0643827 0.0148546 0)
(-0.0711325 0.0156787 0)
(-0.0780799 0.0164233 0)
(-0.0851684 0.017069 0)
(-0.0923364 0.0175972 0)
(-0.0995182 0.0179905 0)
(-0.106646 0.0182333 0)
(-0.113651 0.0183124 0)
(-0.120465 0.0182172 0)
(-0.127022 0.0179399 0)
(-0.13326 0.0174757 0)
(-0.13912 0.0168228 0)
(-0.144549 0.015982 0)
(-0.149498 0.0149569 0)
(-0.153926 0.0137536 0)
(-0.157795 0.0123801 0)
(-0.161074 0.0108465 0)
(-0.163735 0.00916452 0)
(-0.165756 0.00734746 0)
(-0.167121 0.00540989 0)
(-0.167815 0.00336765 0)
(-0.167829 0.0012378 0)
(-0.167157 -0.000961431 0)
(-0.165797 -0.00321054 0)
(-0.163749 -0.00548929 0)
(-0.161019 -0.00777565 0)
(-0.157616 -0.0100466 0)
(-0.15355 -0.0122778 0)
(-0.14884 -0.0144441 0)
(-0.143507 -0.0165194 0)
(-0.137578 -0.0184767 0)
(-0.131083 -0.0202887 0)
(-0.124062 -0.0219286 0)
(-0.116558 -0.0233697 0)
(-0.108621 -0.0245872 0)
(-0.100307 -0.0255579 0)
(-0.0916806 -0.0262618 0)
(-0.0828085 -0.0266825 0)
(-0.073765 -0.026808 0)
(-0.0646283 -0.0266317 0)
(-0.0554801 -0.026153 0)
(-0.0464044 -0.0253772 0)
(-0.0374855 -0.0243166 0)
(-0.0288073 -0.0229899 0)
(-0.0204511 -0.0214222 0)
(-0.0124939 -0.0196442 0)
(-0.00500719 -0.0176919 0)
(0.00194508 -0.0156052 0)
(0.00830745 -0.0134266 0)
(0.0140343 -0.0112004 0)
(0.0190908 -0.0089708 0)
(0.0234536 -0.00678088 0)
(0.0271113 -0.00467108 0)
(0.0300644 -0.00267804 0)
(0.0323256 -0.000832692 0)
(0.0339194 0.000839128 0)
(0.0348805 0.00231817 0)
(0.0352535 0.00359227 0)
(0.0350913 0.00465611 0)
(0.034453 0.00551097 0)
(0.0334019 0.00616415 0)
(0.0320038 0.0066282 0)
(0.0303245 0.00691981 0)
(0.0284276 0.00705878 0)
(0.0263733 0.0070668 0)
(0.0242163 0.00696637 0)
(0.0220052 0.00677973 0)
(0.0197817 0.00652791 0)
(0.0175806 0.00622979 0)
(0.0154298 0.00590127 0)
(0.0133513 0.00555435 0)
(0.0113623 0.00519621 0)
(0.00947668 0.00482847 0)
(0.0077066 0.00444657 0)
(0.00606449 0.00403971 0)
(0.00456496 0.00359183 0)
(0.00322643 0.00308402 0)
(0.00207253 0.00249918 0)
(0.0011269 0.00182994 0)
(0.000449405 0.00108927 0)
(5.00081e-05 0.000339944 0)
(3.76451e-05 -0.000505676 0)
(0.000311764 -0.00126791 0)
(0.000723921 -0.00180456 0)
(0.00124032 -0.00214193 0)
(0.00179484 -0.00231181 0)
(0.00235392 -0.00234635 0)
(0.00288821 -0.00227528 0)
(0.00337498 -0.00212419 0)
(0.00379648 -0.00191381 0)
(0.00413869 -0.00166012 0)
(0.00439003 -0.00137473 0)
(0.00454057 -0.00106561 0)
(0.00458124 -0.000737731 0)
(0.0045033 -0.00039372 0)
(0.00429786 -3.43676e-05 0)
(0.00395552 0.000340992 0)
(0.00346608 0.000734217 0)
(0.00281824 0.00114818 0)
(0.00199937 0.0015867 0)
(0.000995326 0.00205444 0)
(-0.000209796 0.00255682 0)
(-0.00163372 0.00309988 0)
(-0.00329603 0.00369012 0)
(-0.00521809 0.00433417 0)
(-0.00742278 0.0050385 0)
(-0.00993412 0.00580899 0)
(-0.0127767 0.00665048 0)
(-0.0159747 0.00756633 0)
(-0.0195513 0.00855798 0)
(-0.0235275 0.00962457 0)
(-0.0279206 0.0107626 0)
(-0.0327435 0.0119656 0)
(-0.0380032 0.0132241 0)
(-0.0436993 0.0145253 0)
(-0.0498237 0.0158536 0)
(-0.0563591 0.0171899 0)
(-0.0632788 0.0185127 0)
(-0.0705464 0.0197982 0)
(-0.0781164 0.0210209 0)
(-0.0859344 0.0221542 0)
(-0.0939389 0.0231717 0)
(-0.102062 0.0240473 0)
(-0.110232 0.0247569 0)
(-0.118375 0.0252787 0)
(-0.126417 0.0255938 0)
(-0.134285 0.0256873 0)
(-0.141909 0.0255477 0)
(-0.149226 0.0251679 0)
(-0.156176 0.0245446 0)
(-0.162706 0.0236782 0)
(-0.168768 0.0225725 0)
(-0.174322 0.0212343 0)
(-0.179333 0.0196731 0)
(-0.183771 0.0179004 0)
(-0.187613 0.0159294 0)
(-0.190836 0.013775 0)
(-0.193426 0.0114532 0)
(-0.195367 0.00898081 0)
(-0.196648 0.00637597 0)
(-0.197262 0.0036575 0)
(-0.1972 0.000845232 0)
(-0.196459 -0.00203994 0)
(-0.195034 -0.00497591 0)
(-0.192926 -0.00793939 0)
(-0.190135 -0.0109056 0)
(-0.186664 -0.0138483 0)
(-0.182522 -0.0167396 0)
(-0.177717 -0.0195503 0)
(-0.172264 -0.0222495 0)
(-0.166182 -0.0248054 0)
(-0.159494 -0.0271852 0)
(-0.152231 -0.0293557 0)
(-0.144428 -0.0312844 0)
(-0.136129 -0.0329393 0)
(-0.127382 -0.034291 0)
(-0.118246 -0.0353126 0)
(-0.108784 -0.0359816 0)
(-0.0990677 -0.0362803 0)
(-0.0891732 -0.0361975 0)
(-0.0791829 -0.0357286 0)
(-0.0691827 -0.034877 0)
(-0.0592609 -0.0336541 0)
(-0.0495064 -0.0320796 0)
(-0.0400071 -0.0301812 0)
(-0.030848 -0.0279941 0)
(-0.0221092 -0.0255601 0)
(-0.0138645 -0.0229268 0)
(-0.00617962 -0.0201454 0)
(0.000888639 -0.0172702 0)
(0.00729379 -0.0143562 0)
(0.0130002 -0.0114579 0)
(0.0179837 -0.00862729 0)
(0.0222315 -0.00591292 0)
(0.0257432 -0.00335796 0)
(0.0285293 -0.000999604 0)
(0.0306122 0.00113231 0)
(0.0320246 0.00301586 0)
(0.0328089 0.00463735 0)
(0.0330161 0.00599136 0)
(0.0327041 0.00708043 0)
(0.0319356 0.00791443 0)
(0.0307766 0.00850953 0)
(0.0292938 0.00888707 0)
(0.027553 0.00907213 0)
(0.0256167 0.00909214 0)
(0.0235429 0.0089754 0)
(0.0213838 0.00874965 0)
(0.0191849 0.00844071 0)
(0.0169851 0.00807108 0)
(0.014817 0.0076586 0)
(0.0127072 0.00721516 0)
(0.0106783 0.00674547 0)
(0.00874963 0.0062463 0)
(0.00693991 0.00570625 0)
(0.00526891 0.00510668 0)
(0.0037598 0.00442422 0)
(0.00244155 0.00363536 0)
(0.00134393 0.00272382 0)
(0.000544088 0.00168984 0)
(6.16214e-05 0.000573307 0)
(3.79892e-05 -0.000657567 0)
(0.000312455 -0.00161989 0)
(0.000719687 -0.00227631 0)
(0.00122237 -0.00267444 0)
(0.00175134 -0.00286049 0)
(0.00227165 -0.00287731 0)
(0.00275331 -0.00276251 0)
(0.00317319 -0.00254748 0)
(0.0035131 -0.00225711 0)
(0.00375811 -0.0019102 0)
(0.00389534 -0.00152015 0)
(0.00391296 -0.00109592 0)
(0.00379956 -0.000642832 0)
(0.00354357 -0.000163381 0)
(0.00313287 0.000342165 0)
(0.00255447 0.000875308 0)
(0.00179423 0.00143902 0)
(0.000836581 0.00203755 0)
(-0.000335632 0.00267628 0)
(-0.00174138 0.00336165 0)
(-0.00340155 0.00410095 0)
(-0.00533895 0.00490213 0)
(-0.00757822 0.00577348 0)
(-0.0101455 0.00672316 0)
(-0.0130679 0.00775873 0)
(-0.016373 0.00888648 0)
(-0.0200875 0.0101108 0)
(-0.0242366 0.0114337 0)
(-0.028842 0.0128538 0)
(-0.0339214 0.0143664 0)
(-0.0394859 0.0159626 0)
(-0.0455397 0.0176294 0)
(-0.0520779 0.0193493 0)
(-0.0590858 0.0211006 0)
(-0.0665381 0.0228577 0)
(-0.0743987 0.0245916 0)
(-0.0826207 0.0262704 0)
(-0.0911474 0.0278607 0)
(-0.0999135 0.0293282 0)
(-0.108847 0.0306391 0)
(-0.11787 0.0317615 0)
(-0.126905 0.0326664 0)
(-0.135873 0.0333282 0)
(-0.144696 0.0337262 0)
(-0.153302 0.0338447 0)
(-0.161625 0.0336729 0)
(-0.169604 0.0332053 0)
(-0.177186 0.0324411 0)
(-0.184325 0.0313836 0)
(-0.190982 0.0300401 0)
(-0.197125 0.0284206 0)
(-0.202725 0.0265378 0)
(-0.207762 0.0244062 0)
(-0.212215 0.0220417 0)
(-0.21607 0.0194612 0)
(-0.219313 0.0166826 0)
(-0.221933 0.013724 0)
(-0.22392 0.0106046 0)
(-0.225265 0.00734376 0)
(-0.225959 0.00396172 0)
(-0.225996 0.000479523 0)
(-0.225367 -0.00308071 0)
(-0.224068 -0.00669561 0)
(-0.222092 -0.0103403 0)
(-0.219436 -0.0139881 0)
(-0.216097 -0.0176104 0)
(-0.212076 -0.0211767 0)
(-0.207374 -0.0246542 0)
(-0.201998 -0.0280081 0)
(-0.195957 -0.0312018 0)
(-0.189267 -0.0341971 0)
(-0.181948 -0.0369549 0)
(-0.174027 -0.0394356 0)
(-0.165537 -0.0416004 0)
(-0.156522 -0.0434119 0)
(-0.14703 -0.0448357 0)
(-0.13712 -0.0458414 0)
(-0.12686 -0.0464044 0)
(-0.116323 -0.0465065 0)
(-0.105592 -0.0461379 0)
(-0.0947559 -0.0452977 0)
(-0.0839057 -0.0439949 0)
(-0.0731372 -0.0422484 0)
(-0.0625461 -0.0400873 0)
(-0.0522265 -0.0375502 0)
(-0.0422688 -0.0346841 0)
(-0.0327574 -0.0315434 0)
(-0.0237693 -0.028188 0)
(-0.0153721 -0.0246816 0)
(-0.00762316 -0.0210898 0)
(-0.000568928 -0.0174782 0)
(0.00575575 -0.0139103 0)
(0.0113276 -0.0104463 0)
(0.0161351 -0.00714093 0)
(0.020178 -0.00404279 0)
(0.0234674 -0.00119267 0)
(0.0260249 0.00137699 0)
(0.0278823 0.0036429 0)
(0.029081 0.00559122 0)
(0.0296705 0.0072175 0)
(0.0297073 0.00852633 0)
(0.0292532 0.00953062 0)
(0.0283735 0.0102504 0)
(0.0271352 0.0107117 0)
(0.0256044 0.0109445 0)
(0.0238451 0.0109816 0)
(0.021917 0.0108561 0)
(0.0198748 0.0106002 0)
(0.0177671 0.0102429 0)
(0.0156363 0.00980825 0)
(0.0135188 0.00931347 0)
(0.011446 0.00876743 0)
(0.00944584 0.0081693 0)
(0.00754401 0.0075081 0)
(0.00576681 0.00676332 0)
(0.00414348 0.00590714 0)
(0.00270952 0.00490845 0)
(0.00150182 0.00373913 0)
(0.000612533 0.00238174 0)
(6.98948e-05 0.000846363 0)
(3.71016e-05 -0.000807583 0)
(0.000301927 -0.001963 0)
(0.00068776 -0.00272915 0)
(0.00115473 -0.00317536 0)
(0.00163272 -0.00336342 0)
(0.00208615 -0.0033477 0)
(0.00248491 -0.00317413 0)
(0.00280582 -0.00287984 0)
(0.00303029 -0.00249352 0)
(0.00314254 -0.0020363 0)
(0.00312818 -0.00152284 0)
(0.00297329 -0.000962497 0)
(0.00266375 -0.000360432 0)
(0.00218481 0.000281457 0)
(0.0015207 0.000963833 0)
(0.000654357 0.0016894 0)
(-0.000432753 0.00246259 0)
(-0.00176089 0.00328929 0)
(-0.00335216 0.00417675 0)
(-0.00523067 0.00513331 0)
(-0.00742245 0.00616824 0)
(-0.00995538 0.0072913 0)
(-0.0128588 0.00851226 0)
(-0.0161628 0.00984025 0)
(-0.0198976 0.011283 0)
(-0.0240924 0.0128459 0)
(-0.0287737 0.0145312 0)
(-0.0339641 0.0163374 0)
(-0.0396804 0.018258 0)
(-0.0459321 0.0202816 0)
(-0.0527194 0.022391 0)
(-0.0600322 0.0245636 0)
(-0.067849 0.0267713 0)
(-0.0761359 0.0289809 0)
(-0.0848472 0.0311553 0)
(-0.0939258 0.0332545 0)
(-0.103304 0.0352365 0)
(-0.112908 0.0370594 0)
(-0.122655 0.0386828 0)
(-0.132463 0.0400692 0)
(-0.142248 0.0411852 0)
(-0.151928 0.0420033 0)
(-0.161428 0.0425015 0)
(-0.170677 0.0426646 0)
(-0.179613 0.0424833 0)
(-0.188183 0.0419546 0)
(-0.19634 0.0410806 0)
(-0.204045 0.0398679 0)
(-0.211268 0.0383268 0)
(-0.217982 0.0364706 0)
(-0.224166 0.0343148 0)
(-0.229803 0.031876 0)
(-0.23488 0.0291723 0)
(-0.239384 0.0262222 0)
(-0.243304 0.0230443 0)
(-0.246632 0.0196579 0)
(-0.249358 0.016082 0)
(-0.251474 0.0123362 0)
(-0.252971 0.00844028 0)
(-0.25384 0.00441469 0)
(-0.254072 0.000280671 0)
(-0.25366 -0.00393934 0)
(-0.252592 -0.00822159 0)
(-0.250862 -0.0125405 0)
(-0.248459 -0.0168683 0)
(-0.245377 -0.0211752 0)
(-0.241609 -0.0254283 0)
(-0.23715 -0.0295926 0)
(-0.231998 -0.0336298 0)
(-0.226153 -0.0374992 0)
(-0.21962 -0.0411577 0)
(-0.212409 -0.0445602 0)
(-0.204535 -0.0476605 0)
(-0.196023 -0.050412 0)
(-0.186902 -0.0527691 0)
(-0.177212 -0.0546885 0)
(-0.167005 -0.0561305 0)
(-0.15634 -0.0570612 0)
(-0.145286 -0.0574539 0)
(-0.133924 -0.0572907 0)
(-0.122343 -0.0565642 0)
(-0.110638 -0.0552782 0)
(-0.0989119 -0.0534491 0)
(-0.0872688 -0.0511052 0)
(-0.0758143 -0.048287 0)
(-0.0646515 -0.045046 0)
(-0.0538787 -0.041443 0)
(-0.0435865 -0.0375465 0)
(-0.0338562 -0.0334303 0)
(-0.024758 -0.029171 0)
(-0.0163498 -0.0248459 0)
(-0.00867691 -0.0205305 0)
(-0.00177213 -0.0162969 0)
(0.00434418 -0.0122117 0)
(0.00966351 -0.00833453 0)
(0.0141885 -0.00471729 0)
(0.0179326 -0.00140275 0)
(0.0209192 0.001576 0)
(0.023181 0.00419602 0)
(0.0247595 0.00644477 0)
(0.0257041 0.00832 0)
(0.0260705 0.00982925 0)
(0.02592 0.010989 0)
(0.0253173 0.0118236 0)
(0.0243289 0.0123634 0)
(0.023021 0.0126432 0)
(0.0214581 0.0127 0)
(0.0197012 0.0125709 0)
(0.0178064 0.0122905 0)
(0.0158247 0.0118888 0)
(0.0138015 0.0113887 0)
(0.0117771 0.0108034 0)
(0.00978777 0.0101355 0)
(0.0078671 0.00937501 0)
(0.00604874 0.00850021 0)
(0.00436892 0.00747884 0)
(0.00287037 0.00627141 0)
(0.00159733 0.00483621 0)
(0.000653727 0.00313534 0)
(7.47781e-05 0.00114589 0)
(3.52314e-05 -0.00095106 0)
(0.000282046 -0.00228483 0)
(0.000632002 -0.0031447 0)
(0.00104343 -0.00362204 0)
(0.00144714 -0.00379484 0)
(0.0018077 -0.00372944 0)
(0.00209549 -0.0034801 0)
(0.00228752 -0.00308944 0)
(0.00236488 -0.00258945 0)
(0.00231077 -0.00200295 0)
(0.00210904 -0.00134514 0)
(0.00174335 -0.000625173 0)
(0.00119651 0.000152523 0)
(0.000450125 0.000987151 0)
(-0.000515648 0.00188073 0)
(-0.00172233 0.00283755 0)
(-0.00319324 0.00386378 0)
(-0.00495367 0.00496723 0)
(-0.0070309 0.00615711 0)
(-0.00945416 0.00744377 0)
(-0.0122545 0.00883824 0)
(-0.0154643 0.0103517 0)
(-0.0191166 0.0119947 0)
(-0.0232443 0.0137762 0)
(-0.0278783 0.0157026 0)
(-0.0330467 0.0177765 0)
(-0.0387723 0.0199956 0)
(-0.045071 0.0223519 0)
(-0.05195 0.024831 0)
(-0.0594055 0.0274114 0)
(-0.0674219 0.0300648 0)
(-0.0759702 0.0327561 0)
(-0.0850083 0.0354445 0)
(-0.0944811 0.0380843 0)
(-0.104322 0.0406269 0)
(-0.114453 0.043022 0)
(-0.124792 0.0452204 0)
(-0.135251 0.0471753 0)
(-0.145741 0.0488442 0)
(-0.156176 0.0501908 0)
(-0.166475 0.0511858 0)
(-0.176563 0.0518073 0)
(-0.186374 0.052041 0)
(-0.195852 0.0518799 0)
(-0.204948 0.0513237 0)
(-0.213623 0.0503772 0)
(-0.221844 0.0490504 0)
(-0.229586 0.0473564 0)
(-0.236827 0.0453113 0)
(-0.243552 0.0429326 0)
(-0.249748 0.0402393 0)
(-0.255403 0.0372508 0)
(-0.260509 0.0339869 0)
(-0.265058 0.0304673 0)
(-0.269042 0.0267116 0)
(-0.272455 0.0227393 0)
(-0.275291 0.0185695 0)
(-0.277542 0.0142218 0)
(-0.279201 0.00971556 0)
(-0.280261 0.00507098 0)
(-0.280713 0.000308846 0)
(-0.280547 -0.00454885 0)
(-0.279755 -0.00947866 0)
(-0.278326 -0.0144552 0)
(-0.276247 -0.0194508 0)
(-0.273507 -0.0244351 0)
(-0.270095 -0.0293748 0)
(-0.265997 -0.034233 0)
(-0.261205 -0.0389697 0)
(-0.255708 -0.0435412 0)
(-0.249499 -0.0479003 0)
(-0.242578 -0.0519969 0)
(-0.234945 -0.0557786 0)
(-0.226609 -0.0591913 0)
(-0.217588 -0.0621806 0)
(-0.207908 -0.0646935 0)
(-0.197604 -0.0666798 0)
(-0.186727 -0.0680942 0)
(-0.175335 -0.0688988 0)
(-0.163503 -0.0690649 0)
(-0.151317 -0.0685748 0)
(-0.138873 -0.0674243 0)
(-0.126278 -0.0656233 0)
(-0.113646 -0.0631968 0)
(-0.101095 -0.0601845 0)
(-0.0887434 -0.0566405 0)
(-0.0767067 -0.0526313 0)
(-0.0650942 -0.0482339 0)
(-0.0540055 -0.0435325 0)
(-0.0435284 -0.0386164 0)
(-0.0337364 -0.0335761 0)
(-0.0246885 -0.0285009 0)
(-0.0164285 -0.0234763 0)
(-0.00898572 -0.0185816 0)
(-0.00237603 -0.0138889 0)
(0.00339726 -0.00946107 0)
(0.00834209 -0.00535129 0)
(0.0124765 -0.00160236 0)
(0.0158279 0.00175383 0)
(0.0184321 0.0046965 0)
(0.0203327 0.00721597 0)
(0.02158 0.00931346 0)
(0.0222306 0.0110004 0)
(0.0223457 0.0122976 0)
(0.0219897 0.0132338 0)
(0.0212289 0.0138436 0)
(0.0201296 0.0141659 0)
(0.0187564 0.014241 0)
(0.0171709 0.0141078 0)
(0.0154307 0.0138014 0)
(0.0135888 0.0133497 0)
(0.0116934 0.0127707 0)
(0.00978891 0.0120701 0)
(0.00791703 0.0112397 0)
(0.00611903 0.0102569 0)
(0.00443859 0.00908509 0)
(0.00292573 0.00767622 0)
(0.00163168 0.00597438 0)
(0.000668468 0.00392055 0)
(7.64183e-05 0.00145874 0)
(3.24777e-05 -0.001084 0)
(0.000253661 -0.0025744 0)
(0.000554338 -0.00350631 0)
(0.000891681 -0.0039936 0)
(0.0011991 -0.00413081 0)
(0.00144218 -0.00399624 0)
(0.00159232 -0.00365224 0)
(0.00162698 -0.00314631 0)
(0.0015269 -0.00251304 0)
(0.00127403 -0.00177612 0)
(0.00085016 -0.00095057 0)
(0.00023609 -4.46113e-05 0)
(-0.000588874 0.000938664 0)
(-0.00164717 0.00200005 0)
(-0.00296312 0.00314334 0)
(-0.00456306 0.00437471 0)
(-0.00647535 0.00570232 0)
(-0.00873041 0.00713601 0)
(-0.0113606 0.00868696 0)
(-0.0144001 0.0103673 0)
(-0.0178841 0.0121893 0)
(-0.0218486 0.0141647 0)
(-0.0263286 0.0163037 0)
(-0.0313572 0.0186133 0)
(-0.0369634 0.0210962 0)
(-0.0431703 0.0237496 0)
(-0.0499928 0.0265637 0)
(-0.0574354 0.0295208 0)
(-0.0654904 0.032595 0)
(-0.0741365 0.035752 0)
(-0.0833377 0.0389496 0)
(-0.0930436 0.0421388 0)
(-0.10319 0.0452653 0)
(-0.113702 0.0482718 0)
(-0.124493 0.0511001 0)
(-0.135474 0.0536935 0)
(-0.14655 0.0559995 0)
(-0.15763 0.0579715 0)
(-0.168627 0.0595706 0)
(-0.179459 0.0607664 0)
(-0.190055 0.0615374 0)
(-0.200353 0.061871 0)
(-0.2103 0.0617622 0)
(-0.219852 0.0612131 0)