/*--------------------------------*- C++ -*----------------------------------*\
| =========                 |                                                 |
| \\      /  F ield         | OpenFOAM: The Open Source CFD Toolbox           |
|  \\    /   O peration     | Version:  2406                                  |
|   \\  /    A nd           | Website:  www.openfoam.com                      |
|    \\/     M anipulation  |                                                 |
\*---------------------------------------------------------------------------*/
FoamFile
{
    version     2.0;
    format      ascii;
    arch        "LSB;label=32;scalar=64";
    class       surfaceScalarField;
    location    "26.3";
    object      phi;
}
// * * * * * * * * * * * * * * * * * * * * * * * * * * * * * * * * * * * * * //

dimensions      [0 3 -1 0 0 0 0];

oriented        oriented;

internalField   nonuniform List<scalar> 
28560
(
-6.53052e-09
6.52841e-09
3.76153e-08
-4.60125e-08
1.32954e-07
-9.56419e-08
2.67493e-07
-1.36744e-07
4.27113e-07
-1.60798e-07
5.98031e-07
-1.73251e-07
7.70406e-07
-1.73973e-07
9.35384e-07
-1.67102e-07
1.08761e-06
-1.53794e-07
1.22276e-06
-1.36852e-07
1.33902e-06
-1.17531e-07
1.43546e-06
-9.76592e-08
1.51275e-06
-7.81588e-08
1.57205e-06
-6.00441e-08
1.61532e-06
-4.37417e-08
1.64457e-06
-2.95858e-08
1.66195e-06
-1.75178e-08
1.66929e-06
-7.34805e-09
1.66808e-06
1.36216e-09
1.6592e-06
9.1477e-09
1.64295e-06
1.66697e-08
1.61888e-06
2.46154e-08
1.5859e-06
3.36895e-08
1.54224e-06
4.45481e-08
1.48556e-06
5.77843e-08
1.41301e-06
7.38956e-08
1.32136e-06
9.32849e-08
1.20706e-06
1.16259e-07
1.06636e-06
1.43047e-07
8.95316e-07
1.73813e-07
6.8989e-07
2.08675e-07
4.45954e-07
2.47713e-07
1.59339e-07
2.90971e-07
-1.74126e-07
3.38447e-07
-5.5855e-07
3.90081e-07
-9.97906e-07
4.45729e-07
-1.49593e-06
5.05151e-07
-2.056e-06
5.67984e-07
-2.68101e-06
6.33731e-07
-3.37321e-06
7.01751e-07
-4.13409e-06
7.7125e-07
-4.96419e-06
8.41286e-07
-5.86299e-06
9.1077e-07
-6.82875e-06
9.78484e-07
-7.85843e-06
1.04309e-06
-8.94757e-06
1.10316e-06
-1.00902e-05
1.15718e-06
-1.12789e-05
1.20364e-06
-1.25046e-05
1.24097e-06
-1.37569e-05
1.26766e-06
-1.50238e-05
1.28224e-06
-1.62921e-05
1.28334e-06
-1.7547e-05
1.26972e-06
-1.87731e-05
1.24025e-06
-1.99537e-05
1.19402e-06
-2.10715e-05
1.13029e-06
-2.21088e-05
1.04856e-06
-2.30475e-05
9.48587e-07
-2.38696e-05
8.304e-07
-2.45573e-05
6.94335e-07
-2.50937e-05
5.41057e-07
-2.54627e-05
3.71593e-07
-2.56496e-05
1.87352e-07
-2.56415e-05
-9.84802e-09
-2.54279e-05
-2.17767e-07
-2.50007e-05
-4.33729e-07
-2.4355e-05
-6.54631e-07
-2.34893e-05
-8.76956e-07
-2.24061e-05
-1.09681e-06
-2.11118e-05
-1.30999e-06
-1.96175e-05
-1.51207e-06
-1.79386e-05
-1.69848e-06
-1.60952e-05
-1.86468e-06
-1.41115e-05
-2.00631e-06
-1.20158e-05
-2.11936e-06
-9.83988e-06
-2.20033e-06
-7.61829e-06
-2.24646e-06
-5.38738e-06
-2.25587e-06
-3.18436e-06
-2.22771e-06
-1.04615e-06
-2.16227e-06
9.91812e-07
-2.06106e-06
2.89676e-06
-1.92675e-06
4.63969e-06
-1.76315e-06
6.19639e-06
-1.57506e-06
7.54816e-06
-1.36807e-06
8.6824e-06
-1.1483e-06
9.59281e-06
-9.22138e-07
1.02794e-05
-6.95934e-07
1.07481e-05
-4.75703e-07
1.10103e-05
-2.6687e-07
1.10819e-05
-7.40428e-08
1.09823e-05
9.91349e-08
1.07336e-05
2.50084e-07
1.03593e-05
3.773e-07
9.88328e-06
4.80319e-07
9.32907e-06
5.59605e-07
8.7189e-06
6.16419e-07
8.07312e-06
6.52633e-07
7.4098e-06
6.70575e-07
6.74442e-06
6.72819e-07
6.08984e-06
6.62069e-07
5.45624e-06
6.40965e-07
4.85136e-06
6.12058e-07
4.28057e-06
5.77625e-07
3.74732e-06
5.39774e-07
3.25315e-06
5.00219e-07
2.79832e-06
4.60554e-07
2.38164e-06
4.21866e-07
2.00131e-06
3.85256e-07
1.65457e-06
3.51057e-07
1.33895e-06
3.19829e-07
1.05166e-06
2.90759e-07
7.91569e-07
2.63692e-07
5.58237e-07
2.3592e-07
3.54646e-07
2.06606e-07
1.85823e-07
1.70359e-07
6.05407e-08
1.27578e-07
-1.08752e-08
7.18053e-08
-2.62462e-08
1.68257e-08
-2.62867e-08
4.50889e-08
-3.66943e-08
1.96751e-07
-1.97667e-07
4.48638e-07
-3.44173e-07
7.77152e-07
-4.63416e-07
1.15836e-06
-5.38038e-07
1.56458e-06
-5.76482e-07
1.97461e-06
-5.80006e-07
2.36855e-06
-5.57839e-07
2.73306e-06
-5.14829e-07
3.05736e-06
-4.58368e-07
3.33574e-06
-3.93232e-07
3.56479e-06
-3.24644e-07
3.74445e-06
-2.56025e-07
3.87609e-06
-1.90394e-07
3.96275e-06
-1.2941e-07
4.00782e-06
-7.40655e-08
4.01495e-06
-2.4332e-08
3.98718e-06
2.04449e-08
3.92669e-06
6.16233e-08
3.83437e-06
1.00988e-07
3.70963e-06
1.40696e-07
3.5502e-06
1.83054e-07
3.35221e-06
2.30412e-07
3.11016e-06
2.85001e-07
2.81713e-06
3.48833e-07
2.46496e-06
4.2362e-07
2.04454e-06
5.10744e-07
1.54597e-06
6.11248e-07
9.58872e-07
7.25869e-07
2.7255e-07
8.55068e-07
-5.23797e-07
9.9907e-07
-1.44089e-06
1.15788e-06
-2.48919e-06
1.33126e-06
-3.67865e-06
1.51873e-06
-5.01846e-06
1.71947e-06
-6.51681e-06
1.93231e-06
-8.18046e-06
2.15564e-06
-1.00145e-05
2.38735e-06
-1.20217e-05
2.62486e-06
-1.42027e-05
2.86505e-06
-1.6555e-05
3.1043e-06
-1.9073e-05
3.33857e-06
-2.17478e-05
3.56337e-06
-2.45668e-05
3.77393e-06
-2.75139e-05
3.96528e-06
-3.05691e-05
4.13234e-06
-3.37089e-05
4.27006e-06
-3.69065e-05
4.37355e-06
-4.0132e-05
4.4382e-06
-4.33526e-05
4.4598e-06
-4.65335e-05
4.43464e-06
-4.96378e-05
4.35958e-06
-5.26276e-05
4.23215e-06
-5.54642e-05
4.05059e-06
-5.81089e-05
3.81386e-06
-6.05234e-05
3.52173e-06
-6.26705e-05
3.17475e-06
-6.45145e-05
2.77426e-06
-6.6022e-05
2.32243e-06
-6.71621e-05
1.82225e-06
-6.79072e-05
1.27756e-06
-6.82335e-05
6.93043e-07
-6.81211e-05
7.4249e-08
-6.7555e-05
-5.72392e-07
-6.65253e-05
-1.23957e-06
-6.50275e-05
-1.91911e-06
-6.30632e-05
-2.60201e-06
-6.06404e-05
-3.27849e-06
-5.77734e-05
-3.93809e-06
-5.44838e-05
-4.56983e-06
-5.07999e-05
-5.16238e-06
-4.6757e-05
-5.70431e-06
-4.23972e-05
-6.18436e-06
-3.7769e-05
-6.59178e-06
-3.29269e-05
-6.91671e-06
-2.79304e-05
-7.15058e-06
-2.28434e-05
-7.28645e-06
-1.77327e-05
-7.31948e-06
-1.26665e-05
-7.2472e-06
-7.7136e-06
-7.06981e-06
-2.94077e-06
-6.79035e-06
1.58829e-06
-6.41475e-06
5.81494e-06
-5.95178e-06
9.68718e-06
-5.41281e-06
1.31612e-05
-4.81148e-06
1.62024e-05
-4.16321e-06
1.87868e-05
-3.48462e-06
2.09012e-05
-2.79288e-06
2.25434e-05
-2.10497e-06
2.37223e-05
-1.43708e-06
2.44567e-05
-8.03885e-07
2.47746e-05
-2.18056e-07
2.47119e-05
3.10205e-07
2.43102e-05
7.73422e-07
2.36154e-05
1.16698e-06
2.26758e-05
1.48907e-06
2.15401e-05
1.74051e-06
2.02555e-05
1.9244e-06
1.88668e-05
2.04577e-06
1.74147e-05
2.11102e-06
1.59352e-05
2.12754e-06
1.44593e-05
2.10315e-06
1.30122e-05
2.04579e-06
1.1614e-05
1.96308e-06
1.02795e-05
1.86222e-06
9.01876e-06
1.74954e-06
7.83801e-06
1.6308e-06
6.73952e-06
1.5105e-06
5.72329e-06
1.39259e-06
4.78677e-06
1.27919e-06
3.92726e-06
1.17199e-06
3.14127e-06
1.06965e-06
2.42813e-06
9.71e-07
1.7884e-06
8.69717e-07
1.2288e-06
7.62058e-07
7.58279e-07
6.36212e-07
3.92197e-07
4.91605e-07
1.43525e-07
3.17289e-07
1.8186e-08
1.42286e-07
-9.5396e-09
9.29751e-08
-1.29369e-07
3.39809e-07
-4.47849e-07
7.20412e-07
-7.24772e-07
1.19668e-06
-9.43078e-07
1.73891e-06
-1.0819e-06
2.31032e-06
-1.15127e-06
2.8834e-06
-1.15541e-06
3.43123e-06
-1.10873e-06
3.93535e-06
-1.02125e-06
4.38035e-06
-9.05854e-07
4.75738e-06
-7.72145e-07
5.0606e-06
-6.29661e-07
5.28852e-06
-4.85262e-07
5.44159e-06
-3.44578e-07
5.5224e-06
-2.10965e-07
5.53406e-06
-8.62558e-08
5.47991e-06
2.9561e-08
5.36244e-06
1.37851e-07
5.18292e-06
2.41304e-07
4.94072e-06
3.43528e-07
4.63311e-06
4.48847e-07
4.25498e-06
5.6192e-07
3.79888e-06
6.87484e-07
3.25506e-06
8.3004e-07
2.61179e-06
9.93638e-07
1.85559e-06
1.18171e-06
9.71673e-07
1.39696e-06
-5.56736e-08
1.64137e-06
-1.24268e-06
1.91621e-06
-2.60571e-06
2.22205e-06
-4.16085e-06
2.55885e-06
-5.92349e-06
2.92594e-06
-7.90792e-06
3.32197e-06
-1.01269e-05
3.74486e-06
-1.25909e-05
4.1917e-06
-1.5308e-05
4.65864e-06
-1.82828e-05
5.14081e-06
-2.15162e-05
5.63228e-06
-2.50047e-05
6.12609e-06
-2.874e-05
6.61427e-06
-3.27085e-05
7.088e-06
-3.68913e-05
7.53774e-06
-4.12639e-05
7.95353e-06
-4.57964e-05
8.32516e-06
-5.0454e-05
8.64251e-06
-5.51969e-05
8.89583e-06
-5.99815e-05
9.07601e-06
-6.47609e-05
9.17482e-06
-6.94856e-05
9.18517e-06
-7.41045e-05
9.10125e-06
-7.85661e-05
8.91863e-06
-8.28189e-05
8.63438e-06
-8.68123e-05
8.24704e-06
-9.04978e-05
7.75664e-06
-9.38291e-05
7.16461e-06
-9.67632e-05
6.47374e-06
-9.92603e-05
5.6881e-06
-0.000101285
4.81297e-06
-0.000102805
3.85477e-06
-0.000103795
2.82105e-06
-0.000104231
1.7204e-06
-0.000104097
5.62506e-07
-0.000103381
-6.41893e-07
-0.000102075
-1.88098e-06
-0.00010018
-3.14188e-06
-9.76983e-05
-4.41062e-06
-9.46418e-05
-5.6722e-06
-9.10268e-05
-6.91067e-06
-8.68762e-05
-8.10921e-06
-8.22194e-05
-9.25031e-06
-7.70925e-05
-1.03161e-05
-7.15378e-05
-1.12884e-05
-6.56045e-05
-1.21496e-05
-5.93476e-05
-1.28826e-05
-5.28282e-05
-1.34716e-05
-4.61127e-05
-1.39027e-05
-3.92719e-05
-1.41645e-05
-3.23802e-05
-1.42484e-05
-2.55148e-05
-1.41495e-05
-1.87534e-05
-1.38671e-05
-1.21737e-05
-1.34044e-05
-5.85129e-06
-1.27696e-05
1.4203e-07
-1.19751e-05
5.73987e-06
-1.10379e-05
1.0883e-05
-9.97868e-06
1.55206e-05
-8.82169e-06
1.96122e-05
-7.59358e-06
2.31283e-05
-6.3227e-06
2.60511e-05
-5.03805e-06
2.83753e-05
-3.76818e-06
3.01079e-05
-2.54022e-06
3.12679e-05
-1.37881e-06
3.18854e-05
-3.05315e-07
3.20002e-05
6.62921e-07
3.16603e-05
1.51306e-06
3.09202e-05
2.237e-06
2.98384e-05
2.83144e-06
2.84752e-05
3.29756e-06
2.6891e-05
3.64063e-06
2.51436e-05
3.86929e-06
2.32873e-05
3.99487e-06
2.13707e-05
4.03049e-06
1.94367e-05
3.99034e-06
1.7521e-05
3.8888e-06
1.56528e-05
3.74001e-06
1.38542e-05
3.55708e-06
1.21413e-05
3.35207e-06
1.05244e-05
3.13506e-06
9.00954e-06
2.9147e-06
7.59852e-06
2.69656e-06
6.29208e-06
2.4846e-06
5.08893e-06
2.2779e-06
3.9908e-06
2.07439e-06
2.99976e-06
1.8645e-06
2.12551e-06
1.64078e-06
1.3783e-06
1.38548e-06
7.7836e-07
1.09528e-06
3.3964e-07
7.55824e-07
8.12128e-08
4.04032e-07
7.10903e-08
1.33035e-07
-2.60199e-07
4.58299e-07
-7.74977e-07
9.39279e-07
-1.20235e-06
1.52358e-06
-1.52741e-06
2.17685e-06
-1.73235e-06
2.85608e-06
-1.82942e-06
3.53039e-06
-1.82725e-06
4.16855e-06
-1.74542e-06
4.74909e-06
-1.59974e-06
5.25343e-06
-1.40879e-06
5.67033e-06
-1.18749e-06
5.99175e-06
-9.49983e-07
6.21442e-06
-7.06881e-07
6.33714e-06
-4.66592e-07
6.36104e-06
-2.3426e-07
6.28764e-06
-1.25078e-08
6.1186e-06
1.98813e-07
5.85442e-06
4.02061e-07
5.49399e-06
6.01635e-07
5.03384e-06
8.03427e-07
4.46787e-06
1.01443e-06
3.78707e-06
1.24217e-06
2.97961e-06
1.49424e-06
2.0309e-06
1.77784e-06
9.24072e-07
2.09934e-06
-3.59654e-07
2.46405e-06
-1.84037e-06
2.87599e-06
-3.53891e-06
3.33787e-06
-5.47618e-06
3.85105e-06
-7.67258e-06
4.41556e-06
-1.01473e-05
5.03015e-06
-1.29175e-05
5.69224e-06
-1.59979e-05
6.39783e-06
-1.93997e-05
7.14143e-06
-2.31299e-05
7.9159e-06
-2.71903e-05
8.71237e-06
-3.15772e-05
9.52021e-06
-3.62804e-05
1.03271e-05
-4.12828e-05
1.11193e-05
-4.65601e-05
1.18815e-05
-5.2081e-05
1.25979e-05
-5.78072e-05
1.32521e-05
-6.36939e-05
1.38276e-05
-6.9691e-05
1.43088e-05
-7.57435e-05
1.4681e-05
-8.17934e-05
1.4931e-05
-8.77803e-05
1.50477e-05
-9.36432e-05
1.50221e-05
-9.93216e-05
1.48476e-05
-0.000104756
1.45202e-05
-0.000109892
1.40379e-05
-0.000114674
1.34013e-05
-0.000119055
1.26131e-05
-0.000122991
1.16778e-05
-0.000126441
1.06015e-05
-0.000129372
9.39196e-06
-0.000131753
8.05805e-06
-0.000133559
6.60981e-06
-0.000134771
5.05828e-06
-0.000135371
3.41546e-06
-0.000135349
1.69428e-06
-0.000134697
-9.13689e-08
-0.000133412
-1.92662e-06
-0.000131495
-3.79554e-06
-0.00012895
-5.68104e-06
-0.000125789
-7.56488e-06
-0.000122023
-9.4276e-06
-0.000117673
-1.12485e-05
-0.000112762
-1.30059e-05
-0.000107318
-1.46771e-05
-0.000101377
-1.62386e-05
-9.49783e-05
-1.76667e-05
-8.8168e-05
-1.89378e-05
-8.09981e-05
-2.0029e-05
-7.35266e-05
-2.09187e-05
-6.58165e-05
-2.15875e-05
-5.79365e-05
-2.20189e-05
-4.99592e-05
-2.22001e-05
-4.19608e-05
-2.21226e-05
-3.402e-05
-2.17832e-05
-2.62165e-05
-2.11844e-05
-1.86293e-05
-2.03344e-05
-1.13359e-05
-1.92479e-05
-4.40962e-06
-1.79453e-05
2.08105e-06
-1.64526e-05
8.07467e-06
-1.48008e-05
1.35181e-05
-1.30249e-05
1.83677e-05
-1.11626e-05
2.25906e-05
-9.25362e-06
2.61654e-05
-7.33801e-06
2.90828e-05
-5.45489e-06
3.13459e-05
-3.6412e-06
3.29699e-05
-1.93046e-06
3.39817e-05
-3.51667e-07
3.4419e-05
1.07157e-06
3.43289e-05
2.3217e-06
3.37665e-05
3.38764e-06
3.27923e-05
4.2648e-06
3.14707e-05
4.95488e-06
2.9867e-05
5.46527e-06
2.80459e-05
5.80828e-06
2.60687e-05
6.00007e-06
2.3992e-05
6.05962e-06
2.18662e-05
6.00742e-06
1.97349e-05
5.86465e-06
1.76337e-05
5.65184e-06
1.55914e-05
5.3885e-06
1.36291e-05
5.09169e-06
1.17626e-05
4.7763e-06
1.00014e-05
4.45294e-06
8.35275e-06
4.12923e-06
6.82035e-06
3.80608e-06
5.41026e-06
3.48154e-06
4.12698e-06
3.14402e-06
2.98342e-06
2.78269e-06
1.99036e-06
2.375e-06
1.17284e-06
1.91299e-06
5.46788e-07
1.37797e-06
1.49577e-07
8.03774e-07
2.18226e-07
1.58603e-07
-4.17575e-07
5.39825e-07
-1.16024e-06
1.09314e-06
-1.75394e-06
1.75277e-06
-2.18991e-06
2.47885e-06
-2.45836e-06
3.22264e-06
-2.57541e-06
3.95067e-06
-2.55598e-06
4.62866e-06
-2.42517e-06
5.23327e-06
-2.20528e-06
5.74381e-06
-1.92069e-06
6.14736e-06
-1.59189e-06
6.43404e-06
-1.23763e-06
6.59884e-06
-8.72308e-07
6.63862e-06
-5.06982e-07
6.55242e-06
-1.48437e-07
6.33943e-06
2.00182e-07
5.99862e-06
5.39487e-07
5.5274e-06
8.73234e-07
4.92113e-06
1.20798e-06
4.17235e-06
1.55238e-06
3.27053e-06
1.91654e-06
2.20181e-06
2.31128e-06
9.49226e-07
2.74736e-06
-5.07072e-07
3.2348e-06
-2.18922e-06
3.78232e-06
-4.12099e-06
4.39685e-06
-6.32702e-06
5.08326e-06
-8.8319e-06
5.84425e-06
-1.16593e-05
6.68024e-06
-1.4831e-05
7.58937e-06
-1.83658e-05
8.5675e-06
-2.22788e-05
9.60812e-06
-2.65799e-05
1.07023e-05
-3.1273e-05
1.18384e-05
-3.63552e-05
1.30025e-05
-4.18156e-05
1.41777e-05
-4.7635e-05
1.53451e-05
-5.37852e-05
1.64835e-05
-6.02295e-05
1.75704e-05
-6.69228e-05
1.85822e-05
-7.38124e-05
1.94956e-05
-8.08392e-05
2.02876e-05
-8.79395e-05
2.09371e-05
-9.50462e-05
2.14252e-05
-0.000102091
2.17357e-05
-0.000109005
2.18557e-05
-0.000115722
2.17761e-05
-0.00012218
2.1491e-05
-0.000128319
2.09984e-05
-0.000134087
2.02991e-05
-0.000139435
1.9397e-05
-0.000144321
1.82984e-05
-0.000148709
1.70116e-05
-0.000152568
1.55467e-05
-0.000155872
1.39149e-05
-0.0001586
1.21284e-05
-0.000160734
1.02004e-05
-0.000162263
8.14439e-06
-0.000163174
5.97479e-06
-0.000163461
3.70642e-06
-0.000163119
1.35483e-06
-0.000162146
-1.06369e-06
-0.000160541
-3.53188e-06
-0.000158308
-6.03139e-06
-0.00015545
-8.5426e-06
-0.000151976
-1.10445e-05
-0.000147897
-1.35144e-05
-0.000143226
-1.59281e-05
-0.000137983
-1.826e-05
-0.000132189
-2.04828e-05
-0.000125873
-2.25681e-05
-0.000119068
-2.44867e-05
-0.000111812
-2.62091e-05
-0.000104152
-2.77062e-05
-9.61377e-05
-2.89502e-05
-8.78278e-05
-2.99152e-05
-7.9286e-05
-3.05788e-05
-7.05816e-05
-3.09224e-05
-6.1789e-05
-3.0933e-05
-5.29859e-05
-3.06036e-05
-4.4253e-05
-2.99339e-05
-3.56717e-05
-2.89313e-05
-2.73232e-05
-2.7611e-05
-1.92861e-05
-2.59957e-05
-1.16354e-05
-2.41151e-05
-4.44047e-06
-2.2006e-05
2.23614e-06
-1.97101e-05
8.34035e-06
-1.72737e-05
1.38274e-05
-1.4746e-05
1.86629e-05
-1.21772e-05
2.28235e-05
-9.61755e-06
2.62971e-05
-7.11555e-06
2.90838e-05
-4.71648e-06
3.11951e-05
-2.46113e-06
3.26541e-05
-3.846e-07
3.34948e-05
1.48466e-06
3.37611e-05
3.12566e-06
3.35054e-05
4.52525e-06
3.27871e-05
5.67832e-06
3.16703e-05
6.58749e-06
3.02214e-05
7.26256e-06
2.85074e-05
7.71948e-06
2.65931e-05
7.97924e-06
2.45392e-05
8.06636e-06
2.24011e-05
8.00762e-06
2.02271e-05
7.83032e-06
1.80586e-05
7.56139e-06
1.59287e-05
7.22546e-06
1.38643e-05
6.84453e-06
1.18848e-05
6.43555e-06
1.00063e-05
6.01108e-06
8.2393e-06
5.57546e-06
6.59595e-06
5.12798e-06
5.08464e-06
4.65667e-06
3.72275e-06
4.14768e-06
2.52302e-06
3.5746e-06
1.51708e-06
2.92258e-06
7.25717e-07
2.16679e-06
2.06407e-07
1.32822e-06
4.22759e-07
1.76091e-07
-5.91241e-07
5.952e-07
-1.58254e-06
1.1955e-06
-2.35072e-06
1.90032e-06
-2.89598e-06
2.66418e-06
-3.21997e-06
3.43345e-06
-3.34477e-06
4.17245e-06
-3.29334e-06
4.84473e-06
-3.09702e-06
5.42579e-06
-2.78512e-06
5.89349e-06
-2.38783e-06
6.23372e-06
-1.93124e-06
6.435e-06
-1.43842e-06
6.49057e-06
-9.2729e-07
6.39511e-06
-4.11175e-07
6.14509e-06
1.01923e-07
5.73663e-06
6.08818e-07
5.16517e-06
1.11108e-06
4.42404e-06
1.61438e-06
3.50405e-06
2.12792e-06
2.39273e-06
2.66356e-06
1.07418e-06
3.23489e-06
-4.71003e-07
3.85616e-06
-2.26537e-06
4.54134e-06
-4.3341e-06
5.30303e-06
-6.70416e-06
6.15176e-06
-9.40336e-06
7.09529e-06
-1.24592e-05
8.13821e-06
-1.58978e-05
9.2817e-06
-1.97423e-05
1.05234e-05
-2.4012e-05
1.18575e-05
-2.87207e-05
1.32743e-05
-3.38754e-05
1.47607e-05
-3.94753e-05
1.62997e-05
-4.55105e-05
1.78708e-05
-5.19611e-05
1.94499e-05
-5.8797e-05
2.101e-05
-6.59778e-05
2.25218e-05
-7.34531e-05
2.39543e-05
-8.1164e-05
2.52763e-05
-8.90442e-05
2.6457e-05
-9.70222e-05
2.74677e-05
-0.000105023
2.82825e-05
-0.000112973
2.88795e-05
-0.000120795
2.92411e-05
-0.000128422
2.93545e-05
-0.000135786
2.92119e-05
-0.000142827
2.88101e-05
-0.000149495
2.81502e-05
-0.000155742
2.72371e-05
-0.000161529
2.60787e-05
-0.000166825
2.46854e-05
-0.000171604
2.30694e-05
-0.000175844
2.12442e-05
-0.000179528
1.92242e-05
-0.000182644
1.70243e-05
-0.000185181
1.46595e-05
-0.000187131
1.21451e-05
-0.000188487
9.49657e-06
-0.000189245
6.72933e-06
-0.0001894
3.85927e-06
-0.000188949
9.02704e-07
-0.00018789
-2.12329e-06
-0.00018622
-5.20065e-06
-0.000183939
-8.31002e-06
-0.000181048
-1.14305e-05
-0.000177549
-1.45394e-05
-0.000173445
-1.7612e-05
-0.000168745
-2.06213e-05
-0.000163459
-2.35385e-05
-0.000157601
-2.63322e-05
-0.00015119
-2.89694e-05
-0.00014425
-3.14155e-05
-0.000136813
-3.36351e-05
-0.000128914
-3.55926e-05
-0.000120599
-3.72529e-05
-0.000111919
-3.85831e-05
-0.000102931
-3.95534e-05
-9.37027e-05
-4.01384e-05
-8.43046e-05
-4.03185e-05
-7.48146e-05
-4.00813e-05
-6.53143e-05
-3.94224e-05
-5.5888e-05
-3.83466e-05
-4.6621e-05
-3.68678e-05
-3.75976e-05
-3.50097e-05
-2.88994e-05
-3.2805e-05
-2.06033e-05
-3.02948e-05
-1.27799e-05
-2.75273e-05
-5.4922e-06
-2.45564e-05
1.20572e-06
-2.144e-05
7.26941e-06
-1.82381e-05
1.26647e-05
-1.50112e-05
1.73681e-05
-1.18183e-05
2.1367e-05
-8.7157e-06
2.46599e-05
-5.7551e-06
2.7256e-05
-2.98261e-06
2.91757e-05
-4.37473e-07
3.04495e-05
1.84887e-06
3.11179e-05
3.85353e-06
3.123e-05
5.56265e-06
3.08422e-05
6.9715e-06
3.00167e-05
8.0843e-06
2.88188e-05
8.9135e-06
2.73156e-05
9.47879e-06
2.55726e-05
9.80567e-06
2.36528e-05
9.92395e-06
2.1614e-05
9.86579e-06
1.95082e-05
9.66421e-06
1.73799e-05
9.35082e-06
1.52672e-05
8.95474e-06
1.32003e-05
8.49983e-06
1.12051e-05
8.00442e-06
9.30042e-06
7.47763e-06
7.50614e-06
6.92118e-06
5.83605e-06
6.32419e-06
4.31332e-06
5.67046e-06
2.95433e-06
4.93045e-06
1.79828e-06
4.08057e-06
8.72486e-07
3.08774e-06
2.52911e-07
1.9526e-06
6.72367e-07
1.85788e-07
-7.75227e-07
6.26465e-07
-2.02756e-06
1.25131e-06
-2.97292e-06
1.97478e-06
-3.62212e-06
2.74601e-06
-3.99029e-06
3.50695e-06
-4.1074e-06
4.21976e-06
-4.00606e-06
4.84625e-06
-3.72467e-06
5.36104e-06
-3.30016e-06
5.74102e-06
-2.76863e-06
5.9711e-06
-2.16165e-06
6.03842e-06
-1.5063e-06
5.93443e-06
-8.23576e-07
5.65141e-06
-1.28512e-07
5.18289e-06
5.70268e-07
4.52135e-06
1.27019e-06
3.65795e-06
1.97441e-06
2.58117e-06
2.69113e-06
1.27642e-06
3.43272e-06
-2.74556e-07
4.21462e-06
-2.09359e-06
5.05407e-06
-4.20595e-06
5.96874e-06
-6.63965e-06
6.97533e-06
-9.42458e-06
8.08833e-06
-1.25913e-05
9.31893e-06
-1.61696e-05
1.06742e-05
-2.01871e-05
1.21564e-05
-2.46677e-05
1.37631e-05
-2.96296e-05
1.54863e-05
-3.50842e-05
1.73132e-05
-4.10341e-05
1.92256e-05
-4.74721e-05
2.12003e-05
-5.43797e-05
2.32092e-05
-6.17268e-05
2.522e-05
-6.94715e-05
2.71969e-05
-7.75603e-05
2.91015e-05
-8.59296e-05
3.08941e-05
-9.45076e-05
3.25357e-05
-0.000103216
3.39888e-05
-0.000111975
3.52196e-05
-0.000120702
3.61988e-05
-0.000129318
3.6903e-05
-0.000137748
3.73147e-05
-0.000145925
3.74228e-05
-0.000153787
3.72221e-05
-0.000161283
3.67133e-05
-0.000168369
3.59014e-05
-0.000175009
3.47957e-05
-0.000181174
3.34081e-05
-0.000186843
3.17531e-05
-0.000191998
2.98463e-05
-0.000196628
2.77041e-05
-0.000200721
2.53432e-05
-0.000204273
2.27803e-05
-0.000207276
2.00318e-05
-0.000209726
1.71137e-05
-0.00021162
1.40417e-05
-0.000212952
1.08312e-05
-0.000213718
7.49769e-06
-0.000213914
4.05659e-06
-0.000213535
5.23962e-07
-0.000212575
-3.08338e-06
-0.000211029
-6.74747e-06
-0.000208892
-1.04488e-05
-0.000206159
-1.41661e-05
-0.000202826
-1.78756e-05
-0.000198891
-2.15514e-05
-0.000194353
-2.51646e-05
-0.000189214
-2.86835e-05
-0.000183479
-3.20734e-05
-0.000177158
-3.52972e-05
-0.000170266
-3.83151e-05
-0.000162824
-4.10857e-05
-0.000154859
-4.35663e-05
-0.000146406
-4.57145e-05
-0.000137509
-4.74892e-05
-0.000128219
-4.88519e-05
-0.000118598
-4.97686e-05
-0.000108714
-5.02114e-05
-9.86439e-05
-5.01602e-05
-8.84703e-05
-4.96043e-05
-7.82813e-05
-4.85433e-05
-6.81678e-05
-4.69885e-05
-5.82213e-05
-4.49627e-05
-4.85322e-05
-4.25e-05
-3.91866e-05
-3.96455e-05
-3.0265e-05
-3.64532e-05
-2.18401e-05
-3.29849e-05
-1.39754e-05
-2.93074e-05
-6.72449e-06
-2.5491e-05
-1.30193e-07
-2.16067e-05
5.77534e-06
-1.77243e-05
1.09707e-05
-1.39109e-05
1.5445e-05
-1.02286e-05
1.91977e-05
-6.73399e-06
2.22382e-05
-3.47629e-06
2.45859e-05
-4.96829e-07
2.62698e-05
2.17193e-06
2.7328e-05
4.50701e-06
2.78068e-05
6.49531e-06
2.776e-05
8.13376e-06
2.72472e-05
9.42895e-06
2.63321e-05
1.03966e-05
2.50801e-05
1.10602e-05
2.35569e-05
1.14497e-05
2.18253e-05
1.15996e-05
1.99448e-05
1.1547e-05
1.79687e-05
1.13289e-05
1.59449e-05
1.09806e-05
1.39136e-05
1.05326e-05
1.19105e-05
1.00094e-05
9.96364e-06
9.42542e-06
8.10114e-06
8.78572e-06
6.3437e-06
8.08165e-06
4.72154e-06
7.29517e-06
3.25646e-06
6.39411e-06
1.99598e-06
5.34491e-06
9.74862e-07
4.10473e-06
2.84398e-07
2.64948e-06
9.53875e-07
1.91194e-07
-9.6399e-07
6.40759e-07
-2.48092e-06
1.27057e-06
-3.59922e-06
1.98816e-06
-4.34155e-06
2.73786e-06
-4.73802e-06
3.45804e-06
-4.82824e-06
4.109e-06
-4.6558e-06
4.65129e-06
-4.26704e-06
5.05891e-06
-3.70698e-06
5.30802e-06
-3.01761e-06
5.38271e-06
-2.2358e-06
5.26872e-06
-1.39212e-06
4.95557e-06
-5.10076e-07
4.43286e-06
3.94345e-07
3.69068e-06
1.31265e-06
2.71729e-06
2.24366e-06
1.49893e-06
3.19285e-06
1.84909e-08
4.17157e-06
-1.74461e-06
5.19581e-06
-3.81486e-06
6.28479e-06
-6.22016e-06
7.45926e-06
-8.99133e-06
8.73975e-06
-1.2161e-05
1.01448e-05
-1.57621e-05
1.16892e-05
-1.98264e-05
1.33829e-05
-2.43825e-05
1.52299e-05
-2.9454e-05
1.72274e-05
-3.50575e-05
1.93659e-05
-4.12006e-05
2.16288e-05
-4.78806e-05
2.39924e-05
-5.50826e-05
2.64266e-05
-6.27786e-05
2.88952e-05
-7.09275e-05
3.13568e-05
-7.94751e-05
3.3766e-05
-8.83552e-05
3.60752e-05
-9.74919e-05
3.82362e-05
-0.000106802
4.02023e-05
-0.000116199
4.19303e-05
-0.000125596
4.33823e-05
-0.000134906
4.45271e-05
-0.000144051
4.5341e-05
-0.00015296
4.5808e-05
-0.000161568
4.59199e-05
-0.000169824
4.56751e-05
-0.000177684
4.50783e-05
-0.000185114
4.41391e-05
-0.000192087
4.28708e-05
-0.000198584
4.12893e-05
-0.000204593
3.94124e-05
-0.000210102
3.72586e-05
-0.000215106
3.48466e-05
-0.000219601
3.21952e-05
-0.000223583
2.93222e-05
-0.000227051
2.6245e-05
-0.000230002
2.29802e-05
-0.000232435
1.95434e-05
-0.000234345
1.59498e-05
-0.000235729
1.22141e-05
-0.000236584
8.35093e-06
-0.000236903
4.37486e-06
-0.00023668
3.01018e-07
-0.000235908
-3.85467e-06
-0.00023458
-8.07501e-06
-0.000232686
-1.23411e-05
-0.000230218
-1.66321e-05
-0.000227166
-2.09244e-05
-0.000223523
-2.51915e-05
-0.00021928
-2.94039e-05
-0.000214431
-3.35282e-05
-0.000208972
-3.75274e-05
-0.000202902
-4.13612e-05
-0.000196226
-4.49855e-05
-0.000188953
-4.83534e-05
-0.000181097
-5.14157e-05
-0.000172683
-5.41224e-05
-0.000163742
-5.64233e-05
-0.000154317
-5.82704e-05
-0.00014446
-5.96192e-05
-0.000134233
-6.04315e-05
-0.000123711
-6.06769e-05
-0.000112974
-6.0335e-05
-0.000102114
-5.93976e-05
-9.12277e-05
-5.78698e-05
-8.04149e-05
-5.57708e-05
-6.97768e-05
-5.3134e-05
-5.94122e-05
-5.00065e-05
-4.94148e-05
-4.64475e-05
-3.98707e-05
-4.25265e-05
-3.08561e-05
-3.83201e-05
-2.2436e-05
-3.39097e-05
-1.46633e-05
-2.93785e-05
-7.57867e-06
-2.48086e-05
-1.2109e-06
-2.02787e-05
4.42247e-06
-1.58625e-05
9.31443e-06
-1.16268e-05
1.34677e-05
-7.63067e-06
1.68942e-05
-3.9247e-06
1.96146e-05
-5.50089e-07
2.16582e-05
2.46169e-06
2.30623e-05
5.08938e-06
2.3872e-05
7.32225e-06
2.4139e-05
9.16007e-06
2.39209e-05
1.06128e-05
2.32794e-05
1.16999e-05
2.22785e-05
1.24489e-05
2.09825e-05
1.2894e-05
1.94543e-05
1.30737e-05
1.7753e-05
1.30286e-05
1.59339e-05
1.27985e-05
1.40454e-05
1.24196e-05
1.21323e-05
1.19218e-05
1.02311e-05
1.1325e-05
8.37889e-06
1.06379e-05
6.60383e-06
9.85473e-06
4.94392e-06
8.95606e-06
3.42758e-06
7.90746e-06
2.11047e-06
6.66495e-06
1.03472e-06
5.17513e-06
3.02782e-07
3.38749e-06
1.25296e-06
1.92368e-07
-1.15434e-06
6.39419e-07
-2.93227e-06
1.25641e-06
-4.21325e-06
1.94532e-06
-5.03295e-06
2.64637e-06
-5.43779e-06
3.29521e-06
-5.47849e-06
3.85061e-06
-5.21074e-06
4.27228e-06
-4.68957e-06
4.53375e-06
-3.96838e-06
4.61064e-06
-3.09505e-06
4.48616e-06
-2.11138e-06
4.14458e-06
-1.05088e-06
3.57323e-06
6.11752e-08
2.75867e-06
1.20869e-06
1.6871e-06
2.38415e-06
3.42015e-07
3.58863e-06
-1.29581e-06
4.83065e-06
-3.24952e-06
6.12525e-06
-5.54598e-06
7.49229e-06
-8.21579e-06
8.95465e-06
-1.12924e-05
1.0536e-05
-1.4811e-05
1.22585e-05
-1.88069e-05
1.41408e-05
-2.33133e-05
1.61958e-05
-2.83595e-05
1.84293e-05
-3.39683e-05
2.0839e-05
-4.01539e-05
2.34135e-05
-4.69199e-05
2.61323e-05
-5.42569e-05
2.89663e-05
-6.21418e-05
3.1878e-05
-7.05369e-05
3.48224e-05
-7.93897e-05
3.77488e-05
-8.86338e-05
4.06019e-05
-9.81915e-05
4.33248e-05
-0.000107976
4.58609e-05
-0.000117895
4.81567e-05
-0.000127855
5.0164e-05
-0.000137765
5.1842e-05
-0.000147539
5.31586e-05
-0.000157101
5.40909e-05
-0.000166383
5.46254e-05
-0.00017533
5.47569e-05
-0.000183896
5.44883e-05
-0.000192046
5.38281e-05
-0.000199755
5.279e-05
-0.000207005
5.13912e-05
-0.000213782
4.9651e-05
-0.00022008
4.759e-05
-0.000225894
4.52293e-05
-0.000231223
4.25898e-05
-0.000236065
3.96917e-05
-0.000240422
3.65543e-05
-0.000244294
3.31961e-05
-0.000247681
2.96343e-05
-0.000250584
2.58849e-05
-0.000253002
2.19632e-05
-0.000254935
1.78836e-05
-0.000256379
1.36598e-05
-0.000257333
9.30526e-06
-0.000257791
4.8334e-06
-0.000257749
2.57981e-07
-0.000257197
-4.40648e-06
-0.000256129
-9.14428e-06
-0.000254534
-1.3938e-05
-0.000252399
-1.87682e-05
-0.000249713
-2.36124e-05
-0.000246462
-2.84453e-05
-0.000242632
-3.32376e-05
-0.000238207
-3.79561e-05
-0.000233175
-4.2563e-05
-0.000227524
-4.70161e-05
-0.000221245
-5.12684e-05
-0.000214334
-5.5269e-05
-0.000206791
-5.89631e-05
-0.000198625
-6.22932e-05
-0.000189853
-6.52004e-05
-0.000180502
-6.76263e-05
-0.000170611
-6.95149e-05
-0.000160232
-7.08152e-05
-0.000149429
-7.14835e-05
-0.000138282
-7.14867e-05
-0.000126879
-7.08043e-05
-0.000115321
-6.94311e-05
-0.000103717
-6.73782e-05
-9.21796e-05
-6.46746e-05
-8.08225e-05
-6.13661e-05
-6.97572e-05
-5.7515e-05
-5.90883e-05
-5.31971e-05
-4.89105e-05
-4.84993e-05
-3.93056e-05
-4.35156e-05
-3.03415e-05
-3.83432e-05
-2.20709e-05
-3.30794e-05
-1.4532e-05
-2.78176e-05
-7.74902e-06
-2.26451e-05
-1.73393e-06
-1.76413e-05
3.51217e-06
-1.2876e-05
7.99768e-06
-8.40924e-06
1.17394e-05
-4.29069e-06
1.47617e-05
-5.59472e-07
1.70964e-05
2.75596e-06
1.8782e-05
5.63795e-06
1.98637e-05
8.07968e-06
2.03928e-05
1.00851e-05
2.04254e-05
1.16685e-05
2.0022e-05
1.28535e-05
1.9245e-05
1.36721e-05
1.81578e-05
1.41621e-05
1.6822e-05
1.43653e-05
1.52976e-05
1.43242e-05
1.36388e-05
1.4079e-05
1.18979e-05
1.36639e-05
1.01191e-05
1.31039e-05
8.34753e-06
1.2411e-05
6.61932e-06
1.15823e-05
4.98026e-06
1.05973e-05
3.46607e-06
9.41962e-06
2.13983e-06
7.99503e-06
1.05044e-06
6.25973e-06
3.07078e-07
4.13762e-06
1.55673e-06
1.90449e-07
-1.34251e-06
6.24725e-07
-3.37041e-06
1.21197e-06
-4.79718e-06
1.84987e-06
-5.67285e-06
2.47539e-06
-6.06156e-06
3.02241e-06
-6.02638e-06
3.44873e-06
-5.63608e-06
3.71373e-06
-4.95487e-06
3.79065e-06
-4.04471e-06
3.65465e-06
-2.95911e-06
3.28794e-06
-1.74431e-06
2.67312e-06
-4.36031e-07
1.79497e-06
9.3955e-07
6.36569e-07
2.36713e-06
-8.20283e-07
3.84113e-06
-2.59729e-06
5.36567e-06
-4.71955e-06
6.95296e-06
-7.21636e-06
8.62206e-06
-1.01206e-05
1.03966e-05
-1.34684e-05
1.23023e-05
-1.72972e-05
1.43647e-05
-2.16443e-05
1.66055e-05
-2.65446e-05
1.90409e-05
-3.20277e-05
2.16787e-05
-3.81154e-05
2.45169e-05
-4.48193e-05
2.75427e-05
-5.21382e-05
3.07321e-05
-6.00563e-05
3.40501e-05
-6.85421e-05
3.74517e-05
-7.75477e-05
4.08831e-05
-8.70096e-05
4.42838e-05
-9.68504e-05
4.75889e-05
-0.000106981
5.07322e-05
-0.000117307
5.36491e-05
-0.000127727
5.628e-05
-0.000138143
5.85724e-05
-0.000148464
6.04835e-05
-0.000158604
6.19809e-05
-0.00016849
6.30433e-05
-0.000178061
6.36599e-05
-0.000187266
6.3829e-05
-0.000196068
6.35572e-05
-0.000204438
6.28569e-05
-0.000212357
6.17456e-05
-0.000219813
6.02437e-05
-0.000226797
5.83736e-05
-0.000233307
5.61587e-05
-0.000239341
5.36223e-05
-0.000244901
5.07876e-05
-0.00024999
4.76768e-05
-0.000254611
4.43109e-05
-0.000258768
4.07099e-05
-0.000262466
3.68923e-05
-0.000265708
3.28752e-05
-0.000268499
2.86745e-05
-0.000270842
2.43048e-05
-0.000272739
1.97796e-05
-0.000274191
1.51118e-05
-0.000275199
1.03133e-05
-0.000275762
5.39597e-06
-0.000275876
3.71793e-07
-0.000275535
-4.74683e-06
-0.000274732
-9.94648e-06
-0.000273457
-1.52122e-05
-0.000271696
-2.0527e-05
-0.000269436
-2.5871e-05
-0.000266658
-3.12212e-05
-0.000263343
-3.65506e-05
-0.000259469
-4.18277e-05
-0.000255013
-4.70158e-05
-0.000249954
-5.20729e-05
-0.000244268
-5.69514e-05
-0.000237936
-6.15979e-05
-0.000230942
-6.59537e-05
-0.000223276
-6.99557e-05
-0.000214936
-7.35371e-05
-0.000205929
-7.66294e-05
-0.000196276
-7.91644e-05
-0.000186011
-8.10769e-05
-0.000175184
-8.23078e-05
-0.00016386
-8.28074e-05
-0.000152123
-8.25385e-05
-0.000140071
-8.148e-05
-0.000127818
-7.96297e-05
-0.000115485
-7.70055e-05
-0.000103202
-7.36471e-05
-9.11003e-05
-6.96148e-05
-7.93084e-05
-6.49878e-05
-6.79452e-05
-5.98615e-05
-5.71176e-05
-5.43425e-05
-4.69161e-05
-4.85443e-05
-3.74131e-05
-4.25822e-05
-2.86623e-05
-3.65685e-05
-2.06991e-05
-3.06085e-05
-1.35427e-05
-2.4798e-05
-7.19811e-06
-1.92211e-05
-1.65855e-06
-1.39495e-05
3.09213e-06
-9.04213e-06
7.07784e-06