/*--------------------------------*- C++ -*----------------------------------*\
| =========                 |                                                 |
| \\      /  F ield         | OpenFOAM: The Open Source CFD Toolbox           |
|  \\    /   O peration     | Version:  2406                                  |
|   \\  /    A nd           | Website:  www.openfoam.com                      |
|    \\/     M anipulation  |                                                 |
\*---------------------------------------------------------------------------*/
FoamFile
{
    version     2.0;
    format      ascii;
    arch        "LSB;label=32;scalar=64";
    class       surfaceScalarField;
    location    "33";
    object      phi_0;
}
// * * * * * * * * * * * * * * * * * * * * * * * * * * * * * * * * * * * * * //

dimensions      [0 3 -1 0 0 0 0];

oriented        oriented;

internalField   nonuniform List<scalar> 
1984
(
5.49615e-06
-5.49643e-06
1.5037e-05
-9.54083e-06
2.25133e-05
-7.47637e-06
2.59857e-05
-3.47234e-06
2.66234e-05
-6.37717e-07
2.59991e-05
6.24271e-07
2.43591e-05
1.64001e-06
2.0539e-05
3.82009e-06
1.17701e-05
8.7689e-06
-6.76377e-06
1.85339e-05
-3.90411e-05
3.22773e-05
-8.60719e-05
4.70308e-05
-0.000144413
5.8341e-05
-0.000206985
6.25725e-05
-0.000265086
5.81012e-05
-0.000311294
4.62079e-05
-0.000340617
2.93231e-05
-0.000350457
9.84001e-06
-0.000338557
-1.19002e-05
-0.000303488
-3.50696e-05
-0.000246183
-5.73048e-05
-0.000169659
-7.65237e-05
-8.0346e-05
-8.93132e-05
1.11894e-05
-9.15353e-05
9.17727e-05
-8.05833e-05
0.000142225
-5.04522e-05
0.000151469
-9.24371e-06
0.000123704
2.77647e-05
8.1095e-05
4.26089e-05
4.24169e-05
3.86781e-05
1.42114e-05
2.82055e-05
1.42115e-05
1.05266e-05
-1.6023e-05
2.66711e-05
-2.56854e-05
3.76297e-05
-1.8435e-05
4.01851e-05
-6.02774e-06
3.49488e-05
4.59856e-06
2.22294e-05
1.33437e-05
-1.58255e-06
2.5452e-05
-4.40379e-05
4.62754e-05
-0.000111453
7.61844e-05
-0.000201361
0.000108442
-0.000303545
0.000134461
-0.000403297
0.000146782
-0.000489411
0.000144455
-0.000557107
0.000130268
-0.000605542
0.000106536
-0.000634621
7.52871e-05
-0.000643926
3.86281e-05
-0.000631804
-2.28181e-06
-0.000599335
-4.43693e-05
-0.000545848
-8.85566e-05
-0.000470863
-0.00013229
-0.000375524
-0.000171863
-0.000263394
-0.000201443
-0.000142213
-0.000212716
-2.5532e-05
-0.000197264
7.29782e-05
-0.000148962
0.000130695
-6.696e-05
0.000141642
1.68176e-05
0.000115324
6.89262e-05
7.16246e-05
8.23779e-05
2.70895e-05
7.27405e-05
4.1301e-05
1.25757e-05
-2.85987e-05
2.76073e-05
-4.0717e-05
3.27952e-05
-2.36229e-05
2.5032e-05
1.73549e-06
2.61129e-06
2.70193e-05
-3.9888e-05
5.58429e-05
-0.000110173
9.57368e-05
-0.000209849
0.000145952
-0.000327533
0.000193868
-0.00044456
0.000225469
-0.000547643
0.000237545
-0.000632371
0.00023151
-0.000698307
0.000210392
-0.000746287
0.000178248
-0.00077773
0.00013798
-0.000794235
9.17915e-05
-0.000796161
4.05548e-05
-0.000783697
-1.47458e-05
-0.000756671
-7.13958e-05
-0.000713871
-0.000131356
-0.000653638
-0.000192524
-0.00057439
-0.000251111
-0.0004755
-0.000300333
-0.00035848
-0.000329737
-0.000229834
-0.00032591
-0.000103435
-0.000275362
6.72304e-07
-0.000171067
5.74431e-05
-3.99532e-05
6.67155e-05
5.96538e-05
4.86293e-05
0.000100464
1.94431e-05
0.000101927
6.07441e-05
1.16109e-05
-4.02096e-05
1.8366e-05
-4.74721e-05
9.04388e-06
-1.43007e-05
-2.0186e-05
3.09654e-05
-7.43643e-05
8.11976e-05
-0.000159565
0.000141044
-0.000272988
0.00020916
-0.000398114
0.000271078
-0.000515925
0.000311679
-0.000616042
0.000325586
-0.000695541
0.000317043
-0.000755629
0.000291599
-0.000799053
0.000253816
-0.000828641
0.000207835
-0.000846875
0.000156214
-0.000855624
0.00010054
-0.000855733
4.06639e-05
-0.000847956
-2.25228e-05
-0.000832097
-8.7255e-05
-0.000806636
-0.000156818
-0.000769113
-0.000230047
-0.0007161
-0.000304124
-0.000643404
-0.000373028
-0.000547328
-0.000425813
-0.000427098
-0.00044614
-0.000287014
-0.000415446
-0.000144577
-0.000313504
-3.58192e-05
-0.000148711
1.11128e-05
1.27218e-05
1.64307e-05
9.51461e-05
6.92099e-06
0.000111436
6.76651e-05
5.34108e-06
-4.55507e-05
-4.161e-06
-3.797e-05
-3.62453e-05
1.77836e-05
-9.50418e-05
8.97618e-05
-0.000183767
0.000169923
-0.000298077
0.000255354
-0.000421789
0.000332873
-0.000535694
0.000384983
-0.00062867
0.000404655
-0.000699618
0.000396533
-0.000750614
0.00036804
-0.000784782
0.000325767
-0.000805961
0.000274994
-0.00081756
0.000219434
-0.000822461
0.000161116
-0.000822871
0.00010095
-0.000820765
3.85583e-05
-0.000817301
-2.59867e-05
-0.000811458
-9.30979e-05
-0.000802968
-0.000165308
-0.000789975
-0.00024304
-0.00076866
-0.000325439
-0.000732873
-0.000408816
-0.00067419
-0.000484496
-0.000583517
-0.000536813
-0.000456343
-0.000542619
-0.000295197
-0.00047465
-0.000131245
-0.000312663
-2.70027e-05
-9.15206e-05
-2.68428e-08
6.81702e-05
1.06318e-06
0.000110346
6.87283e-05
-7.63076e-06
-3.79199e-05
-3.92886e-05
-6.31218e-06
-9.75234e-05
7.60184e-05
-0.000182818
0.000175056
-0.000290979
0.000278084
-0.000408398
0.000372773
-0.000516428
0.000440903
-0.000602819
0.000471374
-0.000665178
0.000467013
-0.000706254
0.000437609
-0.000730032
0.000391817
-0.000740995
0.00033673
-0.000743349
0.000277349
-0.000740518
0.000216603
-0.000735094
0.000155692
-0.000729016
9.48718e-05
-0.000724406
3.3948e-05
-0.000722065
-2.83277e-05
-0.000721413
-9.37496e-05
-0.000723292
-0.000163429
-0.000727309
-0.000239023
-0.00073145
-0.000321297
-0.000730436
-0.000409829
-0.000715086
-0.000499846
-0.000671955
-0.000579945
-0.00058542
-0.000629153
-0.000444149
-0.000615921
-0.000253807
-0.000503005
-7.43686e-05
-0.000270959
-1.505e-06
-4.69339e-06
2.47202e-06
0.000106369
7.12003e-05
-2.50093e-05
-1.29107e-05
-7.94052e-05
4.80838e-05
-0.00015851
0.000155123
-0.000257837
0.000274384
-0.000367001
0.000387248
-0.000469556
0.000475327
-0.000551827
0.000523174
-0.000608882
0.000528429
-0.000643258
0.000501389
-0.000659683
0.000454035
-0.00066334
0.000395474
-0.000659215
0.000332605
-0.000651142
0.000269276
-0.000641908
0.000207369
-0.000633187
0.00014697
-0.000625964
8.76494e-05
-0.000620936
2.89191e-05
-0.000618262
-3.10011e-05
-0.000618494
-9.35181e-05
-0.000622656
-0.000159267
-0.000631651
-0.000230027
-0.000645413
-0.000307536
-0.000662209
-0.000393033
-0.00067663
-0.000485425
-0.000676565
-0.00058001
-0.000642594
-0.000663124
-0.000551805
-0.00070671
-0.000387718
-0.000667092
-0.000167522
-0.000491155
-1.01217e-05
-0.000162094
9.21337e-06
8.70344e-05
8.04137e-05
-4.12947e-05
2.83841e-05
-0.000113463
0.000120252
-0.000203814
0.000245474
-0.00030456
0.000375129
-0.000402436
0.000485124
-0.000483702
0.000556593
-0.000540275
0.000579747
-0.000572738
0.000560892
-0.000586374
0.000515025
-0.00058703
0.000454691
-0.000580379
0.000388822
-0.000571019
0.000323245
-0.000561701
0.000259957
-0.000553634
0.000199302
-0.00054716
0.000140497
-0.000542207
8.26961e-05
-0.000538485
2.5197e-05
-0.000536048
-3.34385e-05
-0.000535681
-9.38847e-05
-0.000538287
-0.000156661
-0.000545227
-0.000223087
-0.000557933
-0.00029483
-0.000577092
-0.000373874
-0.000600626
-0.000461892
-0.000622139
-0.000558496
-0.000626804
-0.00065846
-0.000590113
-0.000743401
-0.000483694
-0.000773511
-0.000292367
-0.000682482
-6.24829e-05
-0.000391978
1.48255e-05
9.72604e-06
9.52392e-05
-5.25843e-05
8.09684e-05
-0.00013441
0.000202078
-0.00022693
0.000337994
-0.000320314
0.000468513
-0.000402075
0.000566885
-0.000462286
0.000616805
-0.000497912
0.000615372
-0.000513137
0.000576117
-0.000514537
0.000516426
-0.000508389
0.000448543
-0.000499963
0.000380396
-0.000492286
0.000315568
-0.000486567
0.000254239
-0.00048273
0.000195465
-0.000480118
0.000137885
-0.000478039
8.06179e-05
-0.000476009
2.31667e-05
-0.000474058
-3.53896e-05
-0.000472765
-9.51776e-05
-0.000473048
-0.000156378
-0.00047632
-0.000219816
-0.000484425
-0.000286725
-0.000499209
-0.000359089
-0.000521349
-0.000439752
-0.000548118
-0.000531728
-0.000571207
-0.00063537
-0.000571629
-0.00074298
-0.000520574
-0.000824566
-0.000384788
-0.000818268
-0.000147916
-0.00062885
1.80659e-05
-0.000156256
0.000113305
-5.73555e-05
0.000138324
-0.000141058
0.00028578
-0.000228745
0.000425682
-0.000310019
0.000549787
-0.00037528
0.000632146
-0.00041801
0.000659535
-0.000438962
0.000636324
-0.000444275
0.00058143
-0.000440867
0.000513018
-0.000434508
0.000442183
-0.00042909
0.000374978
-0.000426106
0.000312584
-0.000425399
0.000253532
-0.000426015
0.000196081
-0.000426909
0.000138779
-0.000427282
8.09908e-05
-0.000426582
2.24669e-05
-0.000425076
-3.68953e-05
-0.000423234
-9.702e-05
-0.000421688
-0.000157923
-0.00042155
-0.000219954
-0.000424433
-0.000283842
-0.000432477
-0.000351045
-0.000447988
-0.000424241
-0.000471909
-0.000507807
-0.000500476
-0.000606803
-0.000521384
-0.000722071
-0.000508005
-0.000837945
-0.000424509
-0.000901764
-0.000246044
-0.000807315
-1.68545e-05
-0.000385445
9.64505e-05
-5.5563e-05
0.000193887
-0.000134657
0.000364874
-0.0002129
0.000503924
-0.000281099
0.000617986
-0.000331759
0.000682806
-0.000361547
0.000689324
-0.000373651
0.000648427
-0.000374844
0.000582624
-0.00037155
0.000509724
-0.000368336
0.000438969
-0.000367669
0.00037431
-0.000369651
0.000314566
-0.0003733
0.000257181
-0.000377345
0.000200126
-0.000380749
0.000142182
-0.000382837
8.30792e-05
-0.000383288
2.29175e-05
-0.000382386
-3.77963e-05
-0.00038057
-9.88363e-05
-0.000378382
-0.000160111
-0.000376585
-0.000221751
-0.000376213
-0.000284215
-0.000378822
-0.000348436
-0.000386733
-0.00041633
-0.000402805
-0.000491735
-0.000428219
-0.000581389
-0.000457397
-0.000692894
-0.000470266
-0.000825075
-0.000433247
-0.000938782
-0.000309988
-0.000930575
-6.70543e-05
-0.000628379
2.93962e-05
-4.84093e-05
0.000242296
-0.000118359
0.000434824
-0.000185062
0.000570627
-0.000240498
0.000673422
-0.000279224
0.000721532
-0.000300257
0.000710357
-0.000307964
0.000656134
-0.000308795
0.000583455
-0.000307943
0.000508872
-0.000308869
0.000439895
-0.000312628
0.000378069
-0.000318458
0.000320396
-0.000325077
0.0002638
-0.000331264
0.000206314
-0.000336169
0.000147087
-0.00033931
8.62204e-05
-0.000340546
2.41536e-05
-0.000340159
-3.81835e-05
-0.000338576
-0.000100419
-0.000336312
-0.000162375
-0.00033398
-0.000224083
-0.000332265
-0.000285929
-0.000332089
-0.000348613
-0.000335005
-0.000413414
-0.000343691
-0.000483048
-0.000361529
-0.000563552
-0.000389096
-0.000665326
-0.00041678
-0.000797392
-0.000412758
-0.000942804
-0.000325815
-0.00101752
-0.000125364
-0.00082883
-9.59677e-05
-3.75488e-05
0.000279845
-9.55551e-05
0.00049283
-0.000150015
0.000625087
-0.00019369
0.000717097
-0.000223076
0.000750917
-0.000238604
0.000725885
-0.000244736
0.000662266
-0.000246925
0.000585645
-0.000249171
0.000511117
-0.000253708
0.000444433
-0.000260619
0.00038498
-0.000268814
0.000328591
-0.000277105
0.000272091
-0.000284471
0.00021368
-0.000290273
0.000152889
-0.000294185
9.01325e-05
-0.000296153
2.61212e-05
-0.000296426
-3.79104e-05
-0.000295417
-0.000101428
-0.0002936
-0.000164192
-0.000291492
-0.00022619
-0.000289581
-0.000287841
-0.000288366
-0.000349828
-0.000288712
-0.000413068
-0.000292521
-0.000479239
-0.000303421
-0.000552652
-0.000325452
-0.000643295
-0.000356208
-0.000766636
-0.000372687
-0.000926325
-0.000328628
-0.00106158
-0.000186914
-0.000970544
-0.000282882
-2.446e-05
0.000304305
-6.89613e-05
0.000537332
-0.000111211
0.000667336
-0.000144404
0.00075029
-0.000166488
0.000773002
-0.000178598
0.000737995
-0.000184605
0.000668273
-0.00018863
0.000589669
-0.000193484
0.000515972
-0.000200413
0.000451362
-0.000209009
0.000393576
-0.000218258
0.00033784
-0.000227176
0.000281009
-0.000234996
0.0002215
-0.000241259
0.000159152
-0.000245741
9.46141e-05
-0.000248437
2.88178e-05
-0.000249521
-3.68267e-05
-0.000249363
-0.000101586
-0.000248412
-0.000165143
-0.000247139
-0.000227463
-0.000245936
-0.000289044
-0.000245063
-0.000350701
-0.000244807
-0.000413324
-0.000246126
-0.00047792
-0.000251735
-0.000547044
-0.000266521
-0.000628508
-0.000292456
-0.000740702
-0.000317841
-0.00090094
-0.00030286
-0.00107656
-0.000199134
-0.00107427
-0.000482017
-1.02389e-05
0.000314544
-4.06018e-05
0.000567694
-7.10465e-05
0.000697781
-9.48328e-05
0.000774077
-0.000111116
0.000789285
-0.000120998
0.000747877
-0.000127369
0.000674644
-0.000132899
0.000595199
-0.000139359
0.000522432
-0.000147329
0.000459331
-0.000156291
0.000402538
-0.000165478
0.000347027
-0.000174178
0.000289708
-0.00018187
0.000229193
-0.000188252
0.000165534
-0.000193172
9.95343e-05
-0.000196638
3.22833e-05
-0.000198743
-3.47214e-05
-0.00019978
-0.000100549
-0.000200128
-0.000164795
-0.000200199
-0.000227393
-0.000200333
-0.000288909
-0.000200718
-0.000350317
-0.000201388
-0.000412654
-0.000202632
-0.000476675
-0.000205993
-0.000543683
-0.000215697
-0.000618805
-0.000236715
-0.000719683
-0.000263643
-0.000874012
-0.000263141
-0.00107706
-0.000179582
-0.00115783
-0.000661599
3.99572e-06
0.000310548
-1.19748e-05
0.000583665
-3.11017e-05
0.000716908
-4.63965e-05
0.000789371
-5.7639e-05
0.000800527
-6.55713e-05
0.000755809
-7.21048e-05
0.000681177
-7.84756e-05
0.00060157
-8.55376e-05
0.000529494
-9.34102e-05
0.000467204
-0.000101689
0.000410817
-0.000109925
0.000355263
-0.000117715
0.000297499
-0.000124776
0.000236253
-0.000130957
0.000171716
-0.000136154
0.000104731
-0.0001404
3.65287e-05
-0.000143717
-3.14039e-05
-0.000146278
-9.79882e-05
-0.000148375
-0.000162699
-0.000150328
-0.00022544
-0.000152398
-0.000286839
-0.000154701
-0.000348013
-0.000157144
-0.000410212
-0.000159574
-0.000474245
-0.000162563
-0.000540694
-0.000169206
-0.000612162
-0.000185566
-0.000703323
-0.000211675
-0.000847902
-0.000220759
-0.00106798
-0.00015635
-0.00122224
-0.000817948
1.70023e-05
0.000293546
1.58146e-05
0.000584853
7.72643e-06
0.000724996
-5.47646e-07
0.000797646
-6.57084e-06
0.000806551
-1.2299e-05
0.000761537
-1.82931e-05
0.000687171
-2.47022e-05
0.000607979
-3.15232e-05
0.000536315
-3.84508e-05
0.000474131
-4.52468e-05
0.000417613
-5.18213e-05
0.000361838
-5.81079e-05
0.000303786
-6.40406e-05
0.000242186
-6.9674e-05
0.000177349
-7.49274e-05
0.000109984
-7.98748e-05
4.14762e-05
-8.45001e-05
-2.67786e-05
-8.8834e-05
-9.36543e-05
-9.3073e-05
-0.00015846
-9.74147e-05
-0.000221098
-0.000102012
-0.000282241
-0.000106921
-0.000343104
-0.000112003
-0.00040513
-0.000116967
-0.000469281
-0.000121746
-0.000535914
-0.000128167
-0.000605741
-0.000141932
-0.000689559
-0.000166479
-0.000823355
-0.000181326
-0.00105313
-0.000133729
-0.00126984
-0.000951677
2.9015e-05
0.000264531
4.22492e-05
0.000571619
4.58291e-05
0.000721416
4.66785e-05
0.000796796
4.4822e-05
0.000808407
4.06556e-05
0.000765704
3.49288e-05
0.000692898
2.88132e-05
0.000614095
2.29431e-05
0.000542185
1.7602e-05
0.000479472
1.27959e-05
0.000422419
8.28714e-06
0.000366347
3.88898e-06
0.000308184
-6.23707e-07
0.000246698
-5.20076e-06
0.000181926
-1.01741e-05
0.000114958
-1.56107e-05
4.69128e-05
-2.14919e-05
-2.08974e-05
-2.77512e-05
-8.7395e-05
-3.44387e-05
-0.000151772
-4.15795e-05
-0.000213957
-4.91727e-05
-0.000274648
-5.71531e-05
-0.000335124
-6.53217e-05
-0.000396961
-7.34113e-05
-0.000461192
-8.10506e-05
-0.000528275
-8.9136e-05
-0.000597656
-0.000102407
-0.000676288
-0.000126506
-0.000799257
-0.000146933
-0.0010327
-0.00011472
-0.00130205
-0.0010664
3.87992e-05
0.000225732
6.62568e-05
0.000544161
8.12523e-05
0.00070642
9.02102e-05
0.000787838
9.37565e-05
0.000804861
9.22692e-05
0.000767191
8.75959e-05
0.000697571
8.21272e-05
0.000619564
7.74689e-05
0.000546844
7.41447e-05
0.000482797
7.18844e-05
0.000424679
7.00529e-05
0.000368178
6.80451e-05
0.000310192
6.54116e-05
0.000249332
6.17938e-05
0.000185544
5.70862e-05
0.000119665
5.11828e-05
5.28161e-05
4.40612e-05
-1.37758e-05
3.59115e-05
-7.92452e-05
2.67582e-05
-0.000142619
1.6721e-05
-0.00020392
5.92749e-06
-0.000263855
-5.49458e-06
-0.000323702
-1.74178e-05
-0.000385038
-2.9389e-05
-0.00044922
-4.11114e-05
-0.000516553
-5.30732e-05
-0.000585694
-6.76914e-05
-0.000661669
-9.24509e-05
-0.000774497
-0.000117441
-0.00100771
-9.89503e-05
-0.00132054
-0.00116535
4.51299e-05
0.000180602
8.64993e-05
0.000502792
0.000113205
0.000679714
0.000130681
0.000770363
0.000140288
0.000795254
0.000142589
0.000764891
0.000140042
0.000700118
0.000135931
0.000623674
0.000132705
0.00055007
0.00013128
0.000484222
0.000131382
0.000424577
0.000132117
0.000367443
0.00013254
0.000309768
0.0001319
0.000249972
0.000129685
0.000187758
0.000125608
0.000123743
0.000119503
5.89213e-05
0.000111305
-5.57845e-06
0.000101332
-6.92717e-05
8.97016e-05
-0.000130989
7.66758e-05
-0.000190894
6.25293e-05
-0.000249708
4.75351e-05
-0.000308707
3.19514e-05
-0.000369454
1.60067e-05
-0.000433276
-5.72952e-07
-0.000499973
-1.65102e-05
-0.000569757
-3.52584e-05
-0.000642921
-6.29208e-05
-0.000746835
-9.38858e-05
-0.000976746
-8.64693e-05
-0.00132795
-0.00125182
4.69383e-05
0.000133663
0.000101642
0.000448088
0.000140606
0.000640751
0.000167389
0.000743579
0.000183859
0.000778784
0.000190938
0.000757811
0.000191475
0.000699581
0.000189351
0.000625798
0.000187759
0.000551663
0.000188147
0.000483833
0.000190419
0.000422305
0.000193576
0.000364287
0.000196418
0.000306926
0.00019791
0.00024848
0.000197297
0.000188371
0.000194138
0.000126903
0.000188193
6.48661e-05
0.000179282
3.33294e-06
0.000167839
-5.78296e-05
0.000154045
-0.000117194
0.000138275
-0.000175124
0.000120908
-0.000232341
0.00010228
-0.000290079
8.26238e-05
-0.000349798
6.20353e-05
-0.000412687
4.09179e-05
-0.000478856
1.91314e-05
-0.00054797
-5.91056e-06
-0.000617879
-3.68886e-05
-0.000715857
-7.38498e-05
-0.000939785
-7.62472e-05
-0.00132556
-0.00132806
4.38946e-05
8.97688e-05
0.000110313
0.000381669
0.000161814
0.00058925
0.000198802
0.000706591
0.000223468
0.000754118
0.000236939
0.00074434
0.000242072
0.000694448
0.000243035
0.000624834
0.000243511
0.000551187
0.000245633
0.000481711
0.000249691
0.000418248
0.000254815
0.000359162
0.000259719
0.000302022
0.000263149
0.000245051
0.000264114
0.000187406
0.000261974
0.000129043
0.000256376
7.04643e-05
0.00024737
1.23385e-05
0.000234851
-4.53103e-05
0.000219354
-0.000101697
0.000201272
-0.000157043
0.000181033
-0.000212102
0.000158992
-0.000268038
0.000135314
-0.000326121
0.00011011
-0.000387483
8.34729e-05
-0.000452218
5.50549e-05
-0.000519552
2.4413e-05
-0.000587237
-1.20264e-05
-0.000679417
-5.63116e-05
-0.0008955
-6.77981e-05
-0.00131407
-0.00139586
3.69822e-05
5.27867e-05
0.000111533
0.000307119
0.000175101
0.000525681
0.000222952
0.000658741
0.000256886
0.000720184
0.000278193
0.000723032
0.000289571
0.000683071
0.000295102
0.000619303
0.000298705
0.000547583
0.000302973
0.000477443
0.000308779
0.000412442
0.000315611
0.00035233
0.000322264
0.00029537
0.000327413
0.000239901
0.000329915
0.000184904
0.000328964
0.000129994
0.000324116
7.53123e-05
0.00031522
2.1234e-05
0.000302247
-3.23371e-05
0.000285667
-8.51171e-05
0.000265873
-0.000137249
0.000243242
-0.000189471
0.00021807
-0.000242865
0.000190427
-0.000298478
0.000160297
-0.000357353
0.000127434
-0.000419355
9.20296e-05
-0.000484148
5.42062e-05
-0.000549414
1.132e-05
-0.000636531
-4.04047e-05
-0.000843775
-6.04685e-05
-0.00129401
-0.00145633
2.80987e-05
2.4688e-05
0.000104474
0.000230743
0.00017792
0.000452236
0.000237281
0.00059938
0.00028203
0.000675435
0.000313405
0.000691657
0.000333542
0.000662934
0.000345964
0.000606882
0.000354476
0.000539071
0.000361973
0.000469945
0.000369893
0.000404523
0.000378284
0.000343938
0.000386291
0.000287363
0.000392733
0.000233458
0.000396466
0.000181171
0.000396589
0.000129871
0.000392544
7.93568e-05
0.000384124
2.96545e-05
0.000371169
-1.9382e-05
0.000354044
-6.7992e-05
0.000333063
-0.000116268
0.000308474
-0.000164882
0.000280445
-0.000214836
0.000248884
-0.000266917
0.000213618
-0.000322087
0.000174279
-0.000380016
0.000131087
-0.000440955
8.46217e-05
-0.000502949
3.37234e-05
-0.000585633
-2.55289e-05
-0.000784523
-5.39292e-05
-0.00126561
-0.00151026
1.95887e-05
5.09925e-06
8.94679e-05
0.000160864
0.000169368
0.000372336
0.000238305
0.000530443
0.000294344
0.000619397
0.000337348
0.000648653
0.000368729
0.000631553
0.000390928
0.000584682
0.00040711
0.000522889
0.000420109
0.000456946
0.000431731
0.000392901
0.000442598
0.000333071
0.000452383
0.000277578
0.000460251
0.000225591
0.000465244
0.000176178
0.000466514
0.000128602
0.00046348
8.23911e-05
0.000455789
3.73449e-05
0.000443164
-6.75647e-06
0.000425937
-5.07652e-05
0.000404163
-9.44942e-05
0.000377898
-0.000138617
0.000347105
-0.000184044
0.000311467
-0.000231278
0.000270658
-0.000281278
0.000224212
-0.00033357
0.000172459
-0.000389203
0.000116482
-0.000446972
5.73184e-05
-0.000526469
-1.12373e-05
-0.000715967
-4.72717e-05
-0.00122957
-0.00155753
1.30236e-05
-7.92438e-06
6.85566e-05
0.000105331
0.000148065
0.000292828
0.000224371
0.000454137
0.000291758
0.000552009
0.000348705
0.000591706
0.000394206
0.000586052
0.000429532
0.000549356
0.000456797
0.000495624
0.000478338
0.000435405
0.00049606
0.000375178
0.000511057
0.000318075
0.000523594
0.000265041
0.00053335
0.000215835
0.000539742
0.000169786
0.000542126
0.000126217
0.000539986
8.45316e-05
0.000532966
4.43651e-05
0.000520822
5.38737e-06
0.000503428
-3.33712e-05
0.000480824
-7.18897e-05
0.000452765
-0.000110558
0.000418974
-0.000150253
0.000378887
-0.000191191
0.00033205
-0.000234441
0.000277919
-0.000279439
0.000217078
-0.000328363
0.000151189
-0.000381083
8.36201e-05
-0.0004589
4.85799e-06
-0.000637205
-3.79664e-05
-0.00118675
-0.0015955
9.3968e-06
-1.73212e-05
4.53825e-05
6.93455e-05
0.000113652
0.000224558
0.000190874
0.000376915
0.000267419
0.000475465
0.00033835
0.000520775
0.000400138
0.000524264
0.00045186
0.000497634
0.000494028
0.000453456
0.000528072
0.00040136
0.000555614
0.000347637
0.00057793
0.000295759
0.000595731
0.000247239
0.000609222
0.000202343
0.000618272
0.000160736
0.000622599
0.00012189
0.000621876
8.52548e-05
0.000615814
5.04274e-05
0.000604149
1.70524e-05
0.000586442
-1.56648e-05
0.000562829
-4.82763e-05
0.000532722
-8.04517e-05
0.000495629
-0.00011316
0.000450745
-0.000146306
0.000397556
-0.000181253
0.000335491
-0.000217374
0.000265629
-0.0002585
0.000190114
-0.000305568
0.000115108
-0.000383894
3.24948e-05
-0.000554592
-1.89783e-05
-0.00113528
-0.00161448
2.64551e-07
-1.75857e-05
1.57508e-05
5.38592e-05
6.61571e-05
0.000174151
0.00014037
0.000302702
0.00022442
0.000391415
0.000309063
0.000436131
0.000388572
0.000444756
0.000459016
0.00042719
0.000518952
0.00039352
0.000568673
0.000351639
0.000609225
0.000307085
0.000641803
0.000263181
0.000667345
0.000221697
0.000686492
0.000183197
0.000699542
0.000147686
0.000706609
0.000114823
0.000707659
8.42052e-05
0.000702607
5.54792e-05
0.000691398
2.82617e-05
0.000673135
2.59786e-06
0.000648112
-2.32534e-05
0.000615627
-4.7967e-05
0.000575115
-7.26477e-05
0.000525626
-9.68175e-05
0.000466745
-0.000122372
0.000397877
-0.000148506
0.000320849
-0.000181471
0.000237359
-0.000222079
0.00015737
-0.000303905
7.56134e-05
-0.000472836
1.57747e-05
-0.00107544
-0.0015987
-7.32248e-07
-1.68535e-05
-1.90211e-05
7.2148e-05
-2.51604e-06
0.000157646
5.95869e-05
0.000240599
0.000146807
0.000304195
0.000244632
0.000338307
0.000342404
0.000346983
0.000432921
0.000336673
0.000512648
0.000313793
0.000580758
0.00028353
0.000637427
0.000250415
0.000683588
0.00021702
0.0007201
0.000185185
0.000747878
0.000155419
0.000767488
0.000128076
0.000779392
0.000102919
0.000783791
7.98067e-05
0.000780834
5.84361e-05
0.000770618
3.8478e-05
0.000753272
1.99434e-05
0.000727513
2.50579e-06
0.000693919
-1.43734e-05
0.000651996
-3.07246e-05
0.000600803
-4.56249e-05
0.000540441
-6.20094e-05
0.000469791
-7.78564e-05
0.000391577
-0.000103257
0.000307281
-0.000137782
0.000228989
-0.000225612
0.000154238
-0.000398085
7.13287e-05
-0.000992527
-0.00152737
-6.60976e-05
4.92441e-05
-8.34359e-05
8.94863e-05
-7.90479e-05
0.000153258
-2.63054e-05
0.000187856
6.43858e-05
0.000213504
0.000171801
0.000230892
0.00028583
0.000232954
0.000394407
0.000228096
0.000492179
0.000216022
0.000577169
0.00019854
0.000648713
0.000178871
0.000707504
0.000158229
0.000754316
0.000138374
0.000790327
0.000119408
0.000816395
0.000102008
0.000833423
8.58908e-05
0.000841872
7.13574e-05
0.000842261
5.80472e-05
0.000835069
4.56701e-05
0.000820372
3.4641e-05
0.000798933
2.39443e-05
0.000769655
1.49044e-05
0.0007339
5.03026e-06
0.000690357
-2.08129e-06
0.000640064
-1.17169e-05
0.000581548
-1.93402e-05
0.000518003
-3.97118e-05
0.000447651
-6.743e-05
0.000379641
-0.000157603
0.000312257
-0.000330701
0.000177916
-0.000858186
-0.00134946
-0.000265928
0.000315172
-0.000335576
0.000159134
-0.000305274
0.000122957
-0.00021965
0.000102231
-0.000107361
0.000101215
2.10817e-05
0.000102449
0.000150417
0.000103619
0.000275584
0.000102929
0.000391362
0.000100243
0.000495056
9.48463e-05
0.000586106
8.78207e-05
0.00066461
7.97252e-05
0.000731225
7.1759e-05
0.000787067
6.35657e-05
0.000832919
5.61562e-05
0.000870012
4.87972e-05
0.000898863
4.25069e-05
0.000920713
3.61967e-05
0.000935472
3.0911e-05
0.000944659
2.5454e-05
0.000947359
2.12443e-05
0.000945322
1.69419e-05
0.000936588
1.37644e-05
0.000923865
1.06412e-05
0.000904487
7.66115e-06
0.000881842
3.3046e-06
0.000849055
-6.92459e-06
0.000812281
-3.0656e-05
0.000752783
-9.81044e-05
0.000666772
-0.00024469
0.000399716
-0.00059113
-0.000949741
0.000315172
0.000474307
0.000597263
0.000699495
0.00080071
0.000903159
0.00100678
0.00110971
0.00120995
0.0013048
0.00139262
0.00147234
0.0015441
0.00160767
0.00166382
0.00171262
0.00175513
0.00179132
0.00182223
0.00184769
0.00186893
0.00188587
0.00189964
0.00191028
0.00191794
0.00192125
0.00191432
0.00188367
0.00178556
0.00154087
0.000949741
)
;

boundaryField
{
    movingWall
    {
        type            calculated;
        value           uniform 0;
    }
    fixedWalls
    {
        type            calculated;
        value           uniform 0;
    }
    frontAndBack
    {
        type            empty;
    }
}


// ************************************************************************* //
