/*--------------------------------*- C++ -*----------------------------------*\
| =========                 |                                                 |
| \\      /  F ield         | OpenFOAM: The Open Source CFD Toolbox           |
|  \\    /   O peration     | Version:  2406                                  |
|   \\  /    A nd           | Website:  www.openfoam.com                      |
|    \\/     M anipulation  |                                                 |
\*---------------------------------------------------------------------------*/
FoamFile
{
    version     2.0;
    format      ascii;
    arch        "LSB;label=32;scalar=64";
    class       volVectorField;
    location    "46.7";
    object      U;
}
// * * * * * * * * * * * * * * * * * * * * * * * * * * * * * * * * * * * * * //

dimensions      [0 1 -1 0 0 0 0];

internalField   nonuniform List<vector> 
14400
(
(-6.92088e-06 6.82161e-06 0)
(1.63901e-05 -1.18893e-05 0)
(0.00012808 -3.59995e-05 0)
(0.000323158 -5.54508e-05 0)
(0.000581092 -6.88154e-05 0)
(0.000878773 -7.59243e-05 0)
(0.00119321 -7.74165e-05 0)
(0.00150416 -7.42345e-05 0)
(0.00179527 -6.75222e-05 0)
(0.00205467 -5.84931e-05 0)
(0.00227518 -4.8329e-05 0)
(0.00245396 -3.80844e-05 0)
(0.002592 -2.86129e-05 0)
(0.00269321 -2.05237e-05 0)
(0.00276344 -1.41628e-05 0)
(0.00280953 -9.61345e-06 0)
(0.00283838 -6.7724e-06 0)
(0.00285602 -5.46663e-06 0)
(0.00286696 -5.26081e-06 0)
(0.00287397 -5.64278e-06 0)
(0.00287769 -6.06128e-06 0)
(0.00287696 -5.80384e-06 0)
(0.00286906 -4.50227e-06 0)
(0.00284968 -2.03963e-06 0)
(0.00281346 1.71941e-06 0)
(0.0027545 6.86808e-06 0)
(0.00266662 1.34409e-05 0)
(0.00254351 2.14476e-05 0)
(0.0023788 3.08989e-05 0)
(0.00216605 4.18211e-05 0)
(0.0018987 5.42589e-05 0)
(0.00157005 6.82678e-05 0)
(0.00117323 8.39012e-05 0)
(0.000701305 0.000101196 0)
(0.000147355 0.000120157 0)
(-0.000495329 0.000140752 0)
(-0.00123305 0.000162897 0)
(-0.00207148 0.000186457 0)
(-0.00301538 0.00021124 0)
(-0.0040684 0.000236996 0)
(-0.00523275 0.00026342 0)
(-0.006509 0.000290149 0)
(-0.00789586 0.000316772 0)
(-0.00938993 0.000342829 0)
(-0.0109856 0.000367821 0)
(-0.0126749 0.000391219 0)
(-0.0144473 0.000412472 0)
(-0.0162901 0.000431015 0)
(-0.0181881 0.000446278 0)
(-0.0201236 0.000457699 0)
(-0.022077 0.000464723 0)
(-0.0240267 0.000466818 0)
(-0.0259493 0.000463481 0)
(-0.0278198 0.00045424 0)
(-0.0296124 0.000438671 0)
(-0.0313 0.0004164 0)
(-0.0328553 0.000387114 0)
(-0.0342507 0.000350584 0)
(-0.035459 0.000306661 0)
(-0.0364538 0.00025519 0)
(-0.0372105 0.000196629 0)
(-0.0377061 0.000133175 0)
(-0.037916 6.47203e-05 0)
(-0.0378214 -1.23394e-05 0)
(-0.0374114 -9.51657e-05 0)
(-0.0366739 -0.000181331 0)
(-0.0356022 -0.000269617 0)
(-0.0341959 -0.000358546 0)
(-0.0324601 -0.000446368 0)
(-0.0304065 -0.00053114 0)
(-0.0280537 -0.00061078 0)
(-0.025427 -0.000683134 0)
(-0.0225587 -0.000746063 0)
(-0.0194875 -0.000797542 0)
(-0.0162583 -0.000835759 0)
(-0.0129212 -0.000859226 0)
(-0.00953005 -0.000866874 0)
(-0.00614155 -0.000858144 0)
(-0.00281326 -0.00083305 0)
(0.000398076 -0.00079221 0)
(0.0034384 -0.000736852 0)
(0.00625819 -0.000668766 0)
(0.00881418 -0.000590228 0)
(0.0110708 -0.000503884 0)
(0.0130014 -0.000412605 0)
(0.014589 -0.000319334 0)
(0.0158264 -0.00022692 0)
(0.0167163 -0.000137954 0)
(0.0172706 -5.45033e-05 0)
(0.017511 2.10073e-05 0)
(0.0174621 8.49011e-05 0)
(0.0171546 0.000139005 0)
(0.0166269 0.000184664 0)
(0.0159178 0.00022073 0)
(0.0150648 0.000246823 0)
(0.0141049 0.000263722 0)
(0.0130731 0.000272464 0)
(0.0120014 0.00027416 0)
(0.0109177 0.000269977 0)
(0.0098458 0.000261079 0)
(0.00880501 0.000248575 0)
(0.00781035 0.000233491 0)
(0.00687277 0.00021674 0)
(0.00599954 0.000199109 0)
(0.00519474 0.000181262 0)
(0.00445968 0.000163739 0)
(0.00379346 0.000146965 0)
(0.00319337 0.000131264 0)
(0.00265543 0.000116854 0)
(0.00217477 0.00010385 0)
(0.00174617 9.22398e-05 0)
(0.00136467 8.18538e-05 0)
(0.00102625 7.23295e-05 0)
(0.000728639 6.308e-05 0)
(0.000472204 5.32902e-05 0)
(0.000260522 4.20142e-05 0)
(0.000100459 2.84403e-05 0)
(6.54064e-07 1.23676e-05 0)
(-3.48937e-05 -4.08154e-06 0)
(-1.33076e-05 -1.33246e-05 0)
(1.06949e-05 -1.54591e-05 0)
(0.000158101 -0.000162703 0)
(0.000492028 -0.00034087 0)
(0.00100533 -0.000489086 0)
(0.00165116 -0.00059294 0)
(0.00238252 -0.000649486 0)
(0.00314965 -0.000661812 0)
(0.00390729 -0.000636388 0)
(0.00461777 -0.000581637 0)
(0.00525283 -0.000506835 0)
(0.00579421 -0.000421211 0)
(0.00623326 -0.000333157 0)
(0.00656982 -0.00024961 0)
(0.00681046 -0.00017565 0)
(0.00696637 -0.000114318 0)
(0.00705111 -6.66318e-05 0)
(0.00707842 -3.18111e-05 0)
(0.00706041 -7.66902e-06 0)
(0.00700601 9.18752e-06 0)
(0.00691985 2.28335e-05 0)
(0.00680203 3.74889e-05 0)
(0.00664782 5.72366e-05 0)
(0.00644818 8.53736e-05 0)
(0.00619075 0.0001243 0)
(0.00586074 0.000175669 0)
(0.00544164 0.000240453 0)
(0.004916 0.000319124 0)
(0.00426594 0.000411878 0)
(0.00347342 0.000518818 0)
(0.00252039 0.000640063 0)
(0.00138887 0.000775766 0)
(6.10841e-05 0.000926055 0)
(-0.00148032 0.00109092 0)
(-0.00325188 0.00127012 0)
(-0.00526888 0.00146303 0)
(-0.00754473 0.00166859 0)
(-0.0100903 0.00188524 0)
(-0.0129132 0.0021109 0)
(-0.0160174 0.0023429 0)
(-0.0194019 0.00257809 0)
(-0.0230608 0.00281276 0)
(-0.0269829 0.00304278 0)
(-0.0311506 0.00326364 0)
(-0.0355406 0.00347055 0)
(-0.0401235 0.00365853 0)
(-0.0448638 0.00382257 0)
(-0.0497208 0.00395772 0)
(-0.0546486 0.0040592 0)
(-0.0595972 0.00412256 0)
(-0.064513 0.00414373 0)
(-0.0693396 0.00411914 0)
(-0.0740191 0.00404577 0)
(-0.0784925 0.00392123 0)
(-0.0827011 0.00374378 0)
(-0.0865868 0.00351238 0)
(-0.0900934 0.00322672 0)
(-0.0931673 0.00288721 0)
(-0.0957579 0.00249507 0)
(-0.0978187 0.00205232 0)
(-0.0993074 0.00156181 0)
(-0.100187 0.0010275 0)
(-0.100426 0.000455467 0)
(-0.100003 -0.000148132 0)
(-0.0988961 -0.000780656 0)
(-0.0970949 -0.00143307 0)
(-0.0945979 -0.00209623 0)
(-0.0914119 -0.00276025 0)
(-0.0875522 -0.00341451 0)
(-0.0830437 -0.00404763 0)
(-0.0779212 -0.00464766 0)
(-0.0722294 -0.00520231 0)
(-0.0660232 -0.00569929 0)
(-0.0593672 -0.00612666 0)
(-0.0523355 -0.00647328 0)
(-0.0450103 -0.00672924 0)
(-0.0374815 -0.00688638 0)
(-0.0298451 -0.00693869 0)
(-0.0222011 -0.00688279 0)
(-0.0146517 -0.00671823 0)
(-0.00729911 -0.00644772 0)
(-0.000242905 -0.00607723 0)
(0.00642248 -0.00561589 0)
(0.0126103 -0.00507577 0)
(0.018244 -0.00447146 0)
(0.0232594 -0.0038195 0)
(0.0276064 -0.00313771 0)
(0.0312508 -0.00244443 0)
(0.0341747 -0.00175775 0)
(0.036377 -0.00109477 0)
(0.0378722 -0.000471129 0)
(0.0386915 9.83686e-05 0)
(0.0388819 0.000606015 0)
(0.0384996 0.00104602 0)
(0.0376095 0.00141306 0)
(0.0362847 0.00170517 0)
(0.034602 0.00192389 0)
(0.0326387 0.00207322 0)
(0.0304702 0.00215911 0)
(0.0281671 0.00218887 0)
(0.0257942 0.00217069 0)
(0.0234081 0.00211316 0)
(0.021057 0.00202475 0)
(0.0187797 0.00191354 0)
(0.0166065 0.00178692 0)
(0.014559 0.0016514 0)
(0.0126512 0.00151256 0)
(0.0108902 0.00137502 0)
(0.00927777 0.00124243 0)
(0.00781089 0.00111744 0)
(0.00648338 0.00100168 0)
(0.0052871 0.000895574 0)
(0.00421353 0.000798189 0)
(0.00325547 0.000706999 0)
(0.00240883 0.000617792 0)
(0.0016743 0.000524855 0)
(0.00105841 0.000421836 0)
(0.000573213 0.000303805 0)
(0.000232215 0.000171617 0)
(4.50771e-05 3.97489e-05 0)
(-3.00017e-06 -3.39435e-05 0)
(3.29845e-05 -0.000121006 0)
(0.000325854 -0.000492267 0)
(0.000865779 -0.000884191 0)
(0.00164009 -0.00120858 0)
(0.00257936 -0.00143649 0)
(0.00362397 -0.00156 0)
(0.00470898 -0.00158414 0)
(0.00577442 -0.00152199 0)
(0.00676967 -0.00139157 0)
(0.00765595 -0.00121321 0)
(0.00840722 -0.00100746 0)
(0.00900988 -0.000793193 0)
(0.00946133 -0.000586187 0)
(0.00976784 -0.000398151 0)
(0.00994171 -0.000236236 0)
(0.00999844 -0.00010299 0)
(0.00995371 3.28374e-06 0)
(0.00982095 8.78323e-05 0)
(0.0096092 0.000158462 0)
(0.00932166 0.00022457 0)
(0.00895498 0.000295973 0)
(0.00849931 0.000381835 0)
(0.00793886 0.000490087 0)
(0.00725306 0.000626916 0)
(0.00641772 0.000796571 0)
(0.00540629 0.00100161 0)
(0.00419086 0.00124333 0)
(0.00274302 0.00152221 0)
(0.00103437 0.00183832 0)
(-0.000962964 0.00219148 0)
(-0.00327596 0.00258129 0)
(-0.00593014 0.00300699 0)
(-0.00894891 0.00346715 0)
(-0.0123527 0.00395948 0)
(-0.016158 0.00448053 0)
(-0.0203762 0.00502556 0)
(-0.0250126 0.00558846 0)
(-0.0300654 0.00616172 0)
(-0.0355246 0.00673651 0)
(-0.0413714 0.00730281 0)
(-0.047578 0.00784963 0)
(-0.0541071 0.00836523 0)
(-0.0609122 0.00883749 0)
(-0.0679385 0.00925422 0)
(-0.0751234 0.00960356 0)
(-0.0823979 0.00987427 0)
(-0.089688 0.0100561 0)
(-0.0969162 0.0101402 0)
(-0.104003 0.010119 0)
(-0.110869 0.00998662 0)
(-0.117435 0.00973909 0)
(-0.123625 0.00937401 0)
(-0.129368 0.00889078 0)
(-0.134595 0.00829041 0)
(-0.139244 0.0075755 0)
(-0.143257 0.00675009 0)
(-0.146586 0.00581958 0)
(-0.149185 0.00479068 0)
(-0.151017 0.00367137 0)
(-0.152051 0.00247086 0)
(-0.152263 0.00119919 0)
(-0.151635 -0.000132725 0)
(-0.150159 -0.00151043 0)
(-0.147831 -0.00291912 0)
(-0.144655 -0.0043446 0)
(-0.140641 -0.00577038 0)
(-0.135811 -0.00717821 0)
(-0.130191 -0.00854866 0)
(-0.123818 -0.00986133 0)
(-0.116736 -0.0110951 0)
(-0.108998 -0.0122285 0)
(-0.100668 -0.0132401 0)
(-0.0918164 -0.0141091 0)
(-0.0825233 -0.0148161 0)
(-0.0728771 -0.0153437 0)
(-0.0629734 -0.0156769 0)
(-0.0529144 -0.0158047 0)
(-0.0428073 -0.01572 0)
(-0.0327629 -0.0154205 0)
(-0.0228933 -0.0149093 0)
(-0.0133102 -0.0141951 0)
(-0.0041225 -0.0132918 0)
(0.0045664 -0.0122191 0)
(0.0126607 -0.0110012 0)
(0.0200748 -0.00966669 0)
(0.0267351 -0.00824717 0)
(0.0325825 -0.00677647 0)
(0.0375732 -0.00528927 0)
(0.0416807 -0.00381991 0)
(0.0448957 -0.00240086 0)
(0.0472283 -0.00106088 0)
(0.0487062 0.000173887 0)
(0.0493715 0.00128121 0)
(0.0492825 0.00224553 0)
(0.0485115 0.00305733 0)
(0.0471412 0.00371243 0)
(0.0452616 0.00421219 0)
(0.0429663 0.00456309 0)
(0.0403499 0.00477596 0)
(0.0375043 0.00486504 0)
(0.0345155 0.00484689 0)
(0.0314615 0.0047394 0)
(0.0284104 0.00456075 0)
(0.0254194 0.00432858 0)
(0.022534 0.00405933 0)
(0.0197888 0.00376772 0)
(0.0172075 0.00346649 0)
(0.0148047 0.00316616 0)
(0.012587 0.00287485 0)
(0.0105547 0.00259805 0)
(0.00870367 0.00233831 0)
(0.00702775 0.00209485 0)
(0.00552098 0.00186321 0)
(0.00417998 0.00163526 0)
(0.00300617 0.00139977 0)
(0.00200701 0.00114446 0)
(0.00119573 0.00086014 0)
(0.000585679 0.000548531 0)
(0.000197376 0.000234756 0)
(1.63077e-05 9.55143e-06 0)
(5.06479e-05 -0.000303968 0)
(0.000466191 -0.000994079 0)
(0.00118045 -0.00165654 0)
(0.00216781 -0.00219404 0)
(0.00333386 -0.00256708 0)
(0.00460795 -0.0027639 0)
(0.00591421 -0.00279236 0)
(0.00718318 -0.00267363 0)
(0.0083563 -0.00243731 0)
(0.00938844 -0.00211717 0)
(0.0102488 -0.00174747 0)
(0.0109203 -0.00135982 0)
(0.0113983 -0.000980743 0)
(0.0116875 -0.000629949 0)
(0.0117994 -0.000319479 0)
(0.0117485 -5.35639e-05 0)
(0.0115492 0.000170831 0)
(0.0112125 0.000362881 0)
(0.0107443 0.000536276 0)
(0.010143 0.000707397 0)
(0.0093994 0.000893425 0)
(0.0084964 0.00111057 0)
(0.00740999 0.00137273 0)
(0.00611054 0.00169072 0)
(0.0045644 0.00207201 0)
(0.00273537 0.00252107 0)
(0.000586129 0.00304003 0)
(-0.00192067 0.00362935 0)
(-0.00482141 0.00428838 0)
(-0.0081506 0.00501559 0)
(-0.0119399 0.00580849 0)
(-0.0162171 0.00666334 0)
(-0.0210045 0.00757469 0)
(-0.0263178 0.00853499 0)
(-0.0321645 0.00953425 0)
(-0.0385422 0.0105599 0)
(-0.0454379 0.0115969 0)
(-0.0528262 0.0126277 0)
(-0.0606698 0.0136328 0)
(-0.0689186 0.0145913 0)
(-0.0775109 0.0154813 0)
(-0.0863739 0.0162809 0)
(-0.0954259 0.0169687 0)
(-0.104578 0.0175247 0)
(-0.113737 0.0179308 0)
(-0.122806 0.0181719 0)
(-0.131691 0.0182353 0)
(-0.140297 0.0181122 0)
(-0.148535 0.0177968 0)
(-0.156322 0.0172866 0)
(-0.163581 0.0165822 0)
(-0.170245 0.0156871 0)
(-0.176251 0.014607 0)
(-0.181547 0.0133499 0)
(-0.186088 0.0119254 0)
(-0.189837 0.0103447 0)
(-0.192761 0.00862028 0)
(-0.194838 0.00676561 0)
(-0.196048 0.00479527 0)
(-0.196378 0.00272482 0)
(-0.19582 0.000570925 0)
(-0.194371 -0.00164903 0)
(-0.192032 -0.00391698 0)
(-0.18881 -0.00621102 0)
(-0.184717 -0.00850933 0)
(-0.179768 -0.0107887 0)
(-0.173985 -0.0130242 0)
(-0.167395 -0.0151892 0)
(-0.160033 -0.0172559 0)
(-0.151939 -0.0191951 0)
(-0.143163 -0.0209769 0)
(-0.133759 -0.0225716 0)
(-0.123793 -0.0239497 0)
(-0.113337 -0.0250833 0)
(-0.102472 -0.025947 0)
(-0.0912876 -0.0265187 0)
(-0.0798798 -0.0267808 0)
(-0.0683513 -0.0267212 0)
(-0.0568097 -0.0263345 0)
(-0.0453661 -0.025622 0)
(-0.0341332 -0.0245932 0)
(-0.0232229 -0.023265 0)
(-0.0127444 -0.0216622 0)
(-0.00280173 -0.0198168 0)
(0.00650833 -0.0177673 0)
(0.0150985 -0.0155571 0)
(0.0228927 -0.0132338 0)
(0.0298279 -0.0108475 0)
(0.0358556 -0.00844883 0)
(0.0409428 -0.0060876 0)
(0.0450732 -0.00381114 0)
(0.0482468 -0.00166378 0)
(0.0504808 0.000315739 0)
(0.0518104 0.00209607 0)
(0.0522867 0.00365322 0)
(0.0519755 0.00497098 0)
(0.0509558 0.00604162 0)
(0.0493172 0.00686589 0)
(0.0471565 0.00745247 0)
(0.0445746 0.00781702 0)
(0.0416723 0.00798092 0)
(0.038547 0.00796971 0)
(0.0352895 0.00781151 0)
(0.0319813 0.00753534 0)
(0.0286925 0.00716976 0)
(0.025481 0.00674162 0)
(0.0223925 0.00627515 0)
(0.0194602 0.0057912 0)
(0.0167067 0.00530667 0)
(0.0141453 0.00483388 0)
(0.011782 0.00437996 0)
(0.00961816 0.0039462 0)
(0.00765318 0.00352753 0)
(0.00588728 0.00311267 0)
(0.00432416 0.00268524 0)
(0.00297282 0.00222689 0)
(0.00184833 0.00172331 0)
(0.00096571 0.00117456 0)
(0.000364304 0.000609961 0)
(3.74952e-05 0.000132091 0)
(6.38355e-05 -0.000547241 0)
(0.000575216 -0.00163027 0)
(0.0014293 -0.00260186 0)
(0.00258504 -0.00336852 0)
(0.00392276 -0.00388773 0)
(0.00535975 -0.00414801 0)
(0.00681027 -0.00416252 0)
(0.00819763 -0.00396231 0)
(0.00945808 -0.00359006 0)
(0.010543 -0.00309425 0)
(0.0114191 -0.00252391 0)
(0.0120677 -0.00192409 0)
(0.0124827 -0.00133245 0)
(0.0126673 -0.000776759 0)
(0.012631 -0.000273671 0)
(0.0123853 0.000171498 0)
(0.0119407 0.000563976 0)
(0.0113034 0.000917914 0)
(0.0104726 0.00125405 0)
(0.00943948 0.00159696 0)
(0.00818603 0.00197223 0)
(0.00668593 0.00240384 0)
(0.00490552 0.0029122 0)
(0.00280554 0.00351295 0)
(0.000343072 0.0042167 0)
(-0.00252658 0.00502938 0)
(-0.00584812 0.00595317 0)
(-0.00966472 0.00698731 0)
(-0.0140165 0.00812872 0)
(-0.0189389 0.0093722 0)
(-0.0244613 0.0107102 0)
(-0.0306046 0.0121324 0)
(-0.0373798 0.0136249 0)
(-0.0447858 0.0151702 0)
(-0.0528078 0.0167466 0)
(-0.0614159 0.0183286 0)
(-0.070565 0.0198874 0)
(-0.080194 0.0213914 0)
(-0.0902275 0.0228074 0)
(-0.100577 0.0241017 0)
(-0.111145 0.0252416 0)
(-0.121823 0.0261965 0)
(-0.132504 0.026939 0)
(-0.143076 0.0274463 0)
(-0.153431 0.0277003 0)
(-0.163468 0.0276884 0)
(-0.173093 0.0274033 0)
(-0.182221 0.0268429 0)
(-0.190777 0.0260097 0)
(-0.198696 0.0249101 0)
(-0.205926 0.0235541 0)
(-0.212421 0.0219541 0)
(-0.218145 0.0201245 0)
(-0.223071 0.0180813 0)
(-0.227177 0.0158414 0)
(-0.230446 0.0134222 0)
(-0.232866 0.0108418 0)
(-0.234429 0.00811844 0)
(-0.235129 0.00527102 0)
(-0.234965 0.00231877 0)
(-0.233934 -0.000718072 0)
(-0.232039 -0.00381822 0)
(-0.229282 -0.00696022 0)
(-0.225668 -0.01012 0)
(-0.221207 -0.0132719 0)
(-0.215908 -0.0163882 0)
(-0.209787 -0.0194391 0)
(-0.202862 -0.022393 0)
(-0.195157 -0.0252157 0)
(-0.186702 -0.0278717 0)
(-0.177536 -0.0303238 0)
(-0.1677 -0.0325342 0)
(-0.15725 -0.0344652 0)
(-0.146247 -0.0360803 0)
(-0.13476 -0.0373455 0)
(-0.122871 -0.0382304 0)
(-0.110668 -0.0387098 0)
(-0.0982488 -0.0387652 0)
(-0.085716 -0.0383857 0)
(-0.0731791 -0.0375695 0)
(-0.0607507 -0.0363242 0)
(-0.0485449 -0.0346676 0)
(-0.0366743 -0.0326276 0)
(-0.0252484 -0.0302412 0)
(-0.014371 -0.0275542 0)
(-0.00413789 -0.0246195 0)
(0.00536453 -0.0214957 0)
(0.0140611 -0.0182453 0)
(0.0218891 -0.0149327 0)
(0.0287989 -0.0116225 0)
(0.0347549 -0.00837814 0)
(0.0397359 -0.00525941 0)
(0.0437357 -0.00232066 0)
(0.0467642 0.000389763 0)
(0.0488467 0.00283108 0)
(0.0500241 0.00497178 0)
(0.0503527 0.00679037 0)
(0.049903 0.00827597 0)
(0.048758 0.00942845 0)
(0.0470103 0.0102581 0)
(0.0447594 0.0107847 0)
(0.0421077 0.0110359 0)
(0.0391567 0.0110455 0)
(0.0360036 0.0108511 0)
(0.0327374 0.0104921 0)
(0.0294373 0.0100076 0)
(0.0261703 0.00943449 0)
(0.0229906 0.00880608 0)
(0.0199403 0.00815054 0)
(0.0170498 0.00748982 0)
(0.0143397 0.0068384 0)
(0.0118233 0.00620228 0)
(0.00950933 0.0055782 0)
(0.00740485 0.00495376 0)
(0.00551849 0.00430888 0)
(0.00386314 0.00361965 0)
(0.00245811 0.00286528 0)
(0.00132347 0.00203945 0)
(0.000521439 0.00116527 0)
(5.7095e-05 0.000335344 0)
(7.35527e-05 -0.00083643 0)
(0.000658228 -0.00237322 0)
(0.00162083 -0.00368652 0)
(0.00290476 -0.00469211 0)
(0.0043661 -0.0053506 0)
(0.00590903 -0.00565561 0)
(0.00743787 -0.00562924 0)
(0.0088696 -0.00531518 0)
(0.0101369 -0.00477131 0)
(0.0111895 -0.00406226 0)
(0.0119936 -0.0032526 0)
(0.0125304 -0.00240108 0)
(0.0127932 -0.00155617 0)
(0.0127838 -0.000752994 0)
(0.0125089 -1.17492e-05 0)
(0.0119759 0.000662455 0)
(0.0111892 0.00127848 0)
(0.0101473 0.00185686 0)
(0.00884044 0.00242666 0)
(0.00724954 0.00302165 0)
(0.00534587 0.00367646 0)
(0.00309216 0.00442305 0)
(0.000444373 0.00528808 0)
(-0.00264612 0.00629133 0)
(-0.00623007 0.00744542 0)
(-0.010358 0.00875624 0)
(-0.0150781 0.010224 0)
(-0.0204339 0.0118443 0)
(-0.0264622 0.0136083 0)
(-0.0331906 0.0155032 0)
(-0.0406355 0.0175118 0)
(-0.0487991 0.0196117 0)
(-0.0576675 0.0217751 0)
(-0.0672092 0.0239687 0)
(-0.0773737 0.0261538 0)
(-0.088092 0.0282877 0)
(-0.0992776 0.0303249 0)
(-0.110829 0.0322186 0)
(-0.122632 0.0339229 0)
(-0.134567 0.035395 0)
(-0.146509 0.0365964 0)
(-0.158336 0.037495 0)
(-0.169931 0.0380662 0)
(-0.181185 0.0382926 0)
(-0.192003 0.0381651 0)
(-0.202299 0.0376813 0)
(-0.212004 0.0368458 0)
(-0.22106 0.0356683 0)
(-0.229421 0.0341627 0)
(-0.237051 0.0323464 0)
(-0.243926 0.0302388 0)
(-0.250026 0.0278605 0)
(-0.255339 0.0252329 0)
(-0.259856 0.0223772 0)
(-0.263571 0.0193146 0)
(-0.266481 0.0160658 0)
(-0.268584 0.012651 0)
(-0.269879 0.00909032 0)
(-0.270362 0.00540365 0)
(-0.270033 0.0016112 0)
(-0.268889 -0.00226622 0)
(-0.266929 -0.00620693 0)
(-0.26415 -0.0101873 0)
(-0.260552 -0.0141822 0)
(-0.256135 -0.018164 0)
(-0.2509 -0.0221026 0)
(-0.244851 -0.0259647 0)
(-0.237996 -0.0297142 0)
(-0.230347 -0.0333119 0)
(-0.221921 -0.0367158 0)
(-0.212742 -0.0398818 0)
(-0.202841 -0.0427638 0)
(-0.192259 -0.0453154 0)
(-0.181044 -0.0474905 0)
(-0.169257 -0.0492453 0)
(-0.156968 -0.0505395 0)
(-0.144258 -0.0513385 0)
(-0.131218 -0.0516152 0)
(-0.117949 -0.0513514 0)
(-0.10456 -0.0505396 0)
(-0.0911637 -0.0491842 0)
(-0.077879 -0.0473017 0)
(-0.0648244 -0.0449215 0)
(-0.0521164 -0.0420848 0)
(-0.039867 -0.0388435 0)
(-0.0281807 -0.0352593 0)
(-0.0171528 -0.0314006 0)
(-0.00686736 -0.0273416 0)
(0.00260342 -0.0231588 0)
(0.0112 -0.01893 0)
(0.0188757 -0.0147315 0)
(0.0255965 -0.0106367 0)
(0.0313413 -0.00671422 0)
(0.036102 -0.00302693 0)
(0.0398837 0.000369812 0)
(0.0427051 0.00342948 0)
(0.044599 0.00611567 0)
(0.0456126 0.00840321 0)
(0.0458071 0.0102791 0)
(0.0452567 0.0117429 0)
(0.044047 0.0128065 0)
(0.0422722 0.0134934 0)
(0.0400318 0.0138368 0)
(0.0374269 0.0138779 0)
(0.034556 0.0136629 0)
(0.0315122 0.0132404 0)
(0.0283792 0.0126589 0)
(0.02523 0.0119641 0)
(0.0221256 0.0111966 0)
(0.0191149 0.0103898 0)
(0.0162353 0.0095678 0)
(0.013515 0.00874398 0)
(0.010975 0.00791945 0)
(0.00863239 0.00708299 0)
(0.00650376 0.00621252 0)
(0.00460877 0.00527903 0)
(0.00297395 0.00425369 0)
(0.00162732 0.00311892 0)
(0.000654534 0.00188228 0)
(7.35509e-05 0.000610139 0)
(8.10528e-05 -0.00116055 0)
(0.000722317 -0.00319821 0)
(0.0017672 -0.00487678 0)
(0.0031437 -0.00612313 0)
(0.00468504 -0.00690567 0)
(0.00628178 -0.00722797 0)
(0.00782833 -0.00712538 0)
(0.00923595 -0.00665775 0)
(0.010435 -0.00590075 0)
(0.0113749 -0.00493674 0)
(0.0120231 -0.00384653 0)
(0.0123616 -0.00270232 0)
(0.0123838 -0.00156247 0)
(0.0120904 -0.000467949 0)
(0.0114844 0.000559311 0)
(0.0105675 0.00151639 0)
(0.00933612 0.0024177 0)
(0.00777893 0.00329189 0)
(0.0058747 0.00417759 0)
(0.00359198 0.00511847 0)
(0.000889788 0.00615822 0)
(-0.00228055 0.00733611 0)
(-0.00597289 0.00868366 0)
(-0.0102433 0.0102229 0)
(-0.0151468 0.011966 0)
(-0.0207351 0.0139157 0)
(-0.0270529 0.016067 0)
(-0.0341358 0.0184071 0)
(-0.042007 0.0209169 0)
(-0.0506746 0.0235703 0)
(-0.0601287 0.0263341 0)
(-0.0703392 0.0291677 0)
(-0.0812544 0.0320235 0)
(-0.0928006 0.0348477 0)
(-0.104884 0.037582 0)
(-0.117392 0.0401657 0)
(-0.130199 0.0425384 0)
(-0.143171 0.044643 0)
(-0.156171 0.0464282 0)
(-0.169065 0.0478507 0)
(-0.181726 0.048877 0)
(-0.194042 0.0494837 0)
(-0.205911 0.0496581 0)
(-0.217251 0.049397 0)
(-0.227995 0.0487058 0)
(-0.23809 0.047597 0)
(-0.247498 0.0460885 0)
(-0.256192 0.0442022 0)
(-0.264154 0.0419622 0)
(-0.271375 0.039394 0)
(-0.277848 0.0365233 0)
(-0.283573 0.0333755 0)
(-0.28855 0.0299748 0)
(-0.292779 0.0263444 0)
(-0.296263 0.0225064 0)
(-0.299002 0.0184816 0)
(-0.300996 0.0142898 0)
(-0.302243 0.00995039 0)
(-0.30274 0.00548238 0)
(-0.302483 0.00090515 0)
(-0.301466 -0.00376125 0)
(-0.299683 -0.00849561 0)
(-0.297126 -0.0132746 0)
(-0.293788 -0.0180727 0)
(-0.289659 -0.0228614 0)
(-0.284734 -0.0276088 0)
(-0.279007 -0.0322795 0)
(-0.272473 -0.0368338 0)
(-0.265132 -0.0412283 0)
(-0.25699 -0.0454153 0)
(-0.248054 -0.0493438 0)
(-0.238343 -0.0529599 0)
(-0.22788 -0.056208 0)
(-0.216702 -0.0590317 0)
(-0.204854 -0.0613761 0)
(-0.192393 -0.0631896 0)
(-0.17939 -0.0644259 0)
(-0.165929 -0.0650465 0)
(-0.152106 -0.0650233 0)
(-0.138027 -0.0643401 0)
(-0.123808 -0.0629949 0)
(-0.109574 -0.0610009 0)
(-0.095451 -0.0583866 0)
(-0.0815675 -0.0551958 0)
(-0.0680476 -0.0514863 0)
(-0.0550092 -0.0473278 0)
(-0.0425605 -0.0427997 0)
(-0.0307975 -0.037988 0)
(-0.0198026 -0.0329823 0)
(-0.00964413 -0.0278734 0)
(-0.00037631 -0.0227506 0)
(0.00796004 -0.0176999 0)
(0.0153365 -0.0128021 0)
(0.0217363 -0.00813178 0)
(0.0271536 -0.00375641 0)
(0.0315934 0.000265042 0)
(0.0350717 0.00388312 0)
(0.0376168 0.00705917 0)
(0.039269 0.00976656 0)
(0.0400818 0.0119918 0)
(0.0401216 0.0137352 0)
(0.0394663 0.0150109 0)
(0.0382035 0.015846 0)
(0.0364279 0.0162791 0)
(0.0342371 0.0163577 0)
(0.0317285 0.0161355 0)
(0.0289954 0.015669 0)
(0.0261236 0.0150142 0)
(0.0231894 0.0142234 0)
(0.0202582 0.0133415 0)
(0.017384 0.0124038 0)
(0.0146106 0.0114325 0)
(0.0119731 0.0104354 0)
(0.00950081 0.00940458 0)
(0.00722097 0.00831754 0)
(0.00516267 0.00714071 0)
(0.00336207 0.00583595 0)
(0.00185721 0.00437058 0)
(0.000755087 0.00272963 0)
(8.58833e-05 0.000942221 0)
(8.72238e-05 -0.0015123 0)
(0.000773111 -0.004086 0)
(0.00187827 -0.00614353 0)
(0.00331507 -0.00762358 0)
(0.00489505 -0.00850621 0)
(0.0064952 -0.00880973 0)
(0.00800057 -0.00858742 0)
(0.00931762 -0.00791933 0)
(0.0103755 -0.00690182 0)
(0.0111251 -0.00563673 0)
(0.0115358 -0.00422151 0)
(0.0115916 -0.0027412 0)
(0.0112864 -0.00126248 0)
(0.0106189 0.000169989 0)
(0.00958781 0.00153507 0)
(0.00818738 0.00283459 0)
(0.00640422 0.0040908 0)
(0.00421485 0.00534223 0)
(0.0015848 0.0066381 0)
(-0.0015308 0.00803205 0)
(-0.00518538 0.0095759 0)
(-0.00943792 0.0113143 0)
(-0.0143494 0.0132808 0)
(-0.0199789 0.0154963 0)
(-0.0263801 0.0179683 0)
(-0.0335975 0.0206919 0)
(-0.041663 0.0236509 0)
(-0.050593 0.026819 0)
(-0.0603843 0.0301597 0)
(-0.0710122 0.0336269 0)
(-0.0824277 0.0371654 0)
(-0.094557 0.0407112 0)
(-0.107302 0.0441936 0)
(-0.120545 0.0475376 0)
(-0.134149 0.0506676 0)
(-0.147969 0.0535104 0)
(-0.161856 0.0559994 0)
(-0.175664 0.0580778 0)
(-0.189255 0.0597004 0)
(-0.202508 0.0608353 0)
(-0.215319 0.0614639 0)
(-0.227602 0.0615801 0)
(-0.23929 0.0611889 0)
(-0.250334 0.0603041 0)
(-0.2607 0.0589467 0)
(-0.270367 0.0571425 0)
(-0.279324 0.0549202 0)
(-0.287566 0.0523099 0)
(-0.295095 0.0493418 0)
(-0.301913 0.0460455 0)
(-0.308027 0.0424491 0)
(-0.313442 0.038579 0)
(-0.318165 0.0344595 0)
(-0.3222 0.0301135 0)
(-0.325549 0.0255616 0)
(-0.328216 0.0208233 0)
(-0.330199 0.015917 0)
(-0.331498 0.0108602 0)
(-0.332108 0.00567032 0)
(-0.332025 0.000365077 0)
(-0.33124 -0.00503692 0)
(-0.329744 -0.0105158 0)
(-0.327528 -0.0160493 0)
(-0.324578 -0.0216127 0)
(-0.32088 -0.0271777 0)
(-0.316422 -0.0327121 0)
(-0.311188 -0.0381795 0)
(-0.305164 -0.0435382 0)
(-0.298339 -0.0487417 0)
(-0.290702 -0.0537383 0)
(-0.282247 -0.0584711 0)
(-0.272974 -0.0628792 0)
(-0.262891 -0.0668981 0)
(-0.252014 -0.0704611 0)
(-0.240369 -0.0735014 0)
(-0.227997 -0.0759544 0)
(-0.214953 -0.0777598 0)
(-0.201305 -0.078865 0)
(-0.18714 -0.0792279 0)
(-0.172559 -0.0788198 0)
(-0.157678 -0.0776282 0)
(-0.142624 -0.0756581 0)
(-0.127534 -0.0729341 0)
(-0.112549 -0.0694995 0)
(-0.0978125 -0.0654159 0)
(-0.083461 -0.0607609 0)
(-0.0696234 -0.0556251 0)
(-0.0564155 -0.0501081 0)
(-0.0439373 -0.044315 0)
(-0.0322712 -0.0383523 0)
(-0.0214823 -0.0323245 0)
(-0.0116183 -0.0263317 0)
(-0.00271233 -0.0204673 0)
(0.00521595 -0.0148172 0)
(0.0121577 -0.00945874 0)
(0.0181134 -0.00446076 0)
(0.0230924 0.000117415 0)
(0.0271124 0.00422655 0)
(0.0302007 0.00782856 0)
(0.0323944 0.0108978 0)
(0.0337423 0.0134223 0)
(0.0343046 0.0154046 0)
(0.0341527 0.0168618 0)
(0.0333681 0.0178253 0)
(0.0320399 0.0183386 0)
(0.0302615 0.0184551 0)
(0.0281272 0.0182348 0)
(0.0257286 0.01774 0)
(0.0231516 0.017032 0)
(0.0204739 0.0161661 0)
(0.0177633 0.0151881 0)
(0.0150781 0.0141301 0)
(0.0124676 0.0130073 0)
(0.00997444 0.0118169 0)
(0.00763794 0.0105371 0)
(0.00549854 0.00913041 0)
(0.00360358 0.00754872 0)
(0.00200207 0.00574194 0)
(0.00081854 0.00366849 0)
(9.35894e-05 0.00131436 0)
(9.25793e-05 -0.00188681 0)
(0.000813865 -0.00502115 0)
(0.00195957 -0.00746067 0)
(0.00342571 -0.0091572 0)
(0.00500304 -0.0101063 0)
(0.00655567 -0.010346 0)
(0.00796042 -0.00995247 0)
(0.00912039 -0.00903033 0)
(0.00996514 -0.00769966 0)
(0.010448 -0.00608331 0)
(0.0105417 -0.00429551 0)
(0.0102324 -0.0024329 0)
(0.00951428 -0.000568307 0)
(0.00838335 0.00125274 0)
(0.00683233 0.00301298 0)
(0.00484644 0.00472188 0)
(0.00240042 0.00641195 0)
(-0.000542831 0.0081331 0)
(-0.00403188 0.00994547 0)
(-0.00812479 0.0119117 0)
(-0.0128857 0.0140893 0)
(-0.0183803 0.0165249 0)
(-0.0246716 0.0192497 0)
(-0.0318145 0.0222778 0)
(-0.0398523 0.0256063 0)
(-0.0488118 0.0292161 0)
(-0.0587002 0.0330733 0)
(-0.0695016 0.0371303 0)
(-0.0811741 0.0413268 0)
(-0.0936484 0.045591 0)
(-0.106828 0.0498413 0)
(-0.120591 0.0539891 0)
(-0.134797 0.0579429 0)
(-0.149289 0.0616124 0)
(-0.163907 0.0649134 0)
(-0.178492 0.0677722 0)
(-0.192895 0.070129 0)
(-0.206982 0.0719396 0)
(-0.220641 0.0731763 0)
(-0.233779 0.0738271 0)
(-0.246328 0.073894 0)
(-0.258236 0.0733905 0)
(-0.269471 0.072339 0)
(-0.280014 0.0707682 0)
(-0.289856 0.0687108 0)
(-0.298997 0.0662012 0)
(-0.307442 0.0632744 0)
(-0.315199 0.0599644 0)
(-0.322278 0.0563038 0)
(-0.328688 0.052323 0)
(-0.334441 0.0480502 0)
(-0.339545 0.0435111 0)
(-0.344009 0.038729 0)
(-0.34784 0.0337254 0)
(-0.351045 0.0285194 0)
(-0.353627 0.0231288 0)
(-0.355589 0.0175701 0)
(-0.356932 0.011859 0)
(-0.357653 0.00601082 0)
(-0.35775 4.11915e-05 0)
(-0.357216 -0.00603338 0)
(-0.356042 -0.0121952 0)
(-0.354217 -0.0184242 0)
(-0.351726 -0.0246975 0)
(-0.348553 -0.0309887 0)
(-0.344677 -0.0372671 0)
(-0.340079 -0.0434968 0)
(-0.334734 -0.0496365 0)
(-0.328619 -0.0556386 0)
(-0.32171 -0.0614493 0)
(-0.313985 -0.0670082 0)
(-0.305425 -0.0722488 0)
(-0.296015 -0.0770992 0)
(-0.285751 -0.0814834 0)
(-0.274635 -0.0853228 0)
(-0.262682 -0.0885388 0)
(-0.249925 -0.0910555 0)
(-0.236411 -0.0928033 0)
(-0.222206 -0.0937222 0)
(-0.2074 -0.093766 0)
(-0.192097 -0.0929056 0)
(-0.176425 -0.0911324 0)
(-0.160526 -0.0884602 0)
(-0.144553 -0.0849267 0)
(-0.128669 -0.080593 0)
(-0.113035 -0.0755415 0)
(-0.0978087 -0.0698729 0)
(-0.0831355 -0.0637018 0)
(-0.069144 -0.0571512 0)
(-0.0559425 -0.0503474 0)
(-0.0436165 -0.0434149 0)
(-0.032229 -0.0364725 0)
(-0.0218217 -0.02963 0)
(-0.0124185 -0.0229871 0)
(-0.00402818 -0.0166323 0)
(0.00335135 -0.010643 0)
(0.00973082 -0.00508627 0)
(0.0151276 -1.87588e-05 0)
(0.0195653 0.00451355 0)
(0.0230739 0.008476 0)
(0.0256913 0.0118464 0)
(0.0274643 0.0146164 0)
(0.0284497 0.0167925 0)
(0.0287145 0.018396 0)
(0.0283353 0.0194628 0)
(0.0273961 0.0200418 0)
(0.025986 0.0201912 0)
(0.0241957 0.0199759 0)
(0.0221143 0.0194619 0)
(0.0198265 0.0187123 0)
(0.0174101 0.0177815 0)
(0.014935 0.0167106 0)
(0.0124633 0.0155228 0)
(0.0100505 0.0142203 0)
(0.00774838 0.0127831 0)
(0.00560959 0.0111703 0)
(0.00369307 0.00932394 0)
(0.00205872 0.00717581 0)
(0.000843675 0.0046566 0)
(9.65592e-05 0.00170799 0)
(9.72815e-05 -0.00228036 0)
(0.000845433 -0.00598975 0)
(0.00201197 -0.00880289 0)
(0.00347551 -0.0106874 0)
(0.00500706 -0.0116589 0)
(0.00645906 -0.0117805 0)
(0.00770192 -0.0111568 0)
(0.0086373 -0.00992114 0)
(0.00919687 -0.00822028 0)
(0.00933791 -0.00619926 0)
(0.00903684 -0.00398856 0)
(0.0082822 -0.00169456 0)
(0.0070675 0.000606632 0)
(0.00538469 0.00287204 0)
(0.00321879 0.00509168 0)
(0.000544017 0.00728569 0)
(-0.00267819 0.00949888 0)
(-0.00649918 0.0117932 0)
(-0.010981 0.014239 0)
(-0.0161927 0.0169052 0)
(-0.0222047 0.019851 0)
(-0.0290835 0.0231194 0)
(-0.0368857 0.0267328 0)
(-0.0456525 0.0306917 0)
(-0.055405 0.0349753 0)
(-0.0661405 0.0395425 0)
(-0.0778288 0.0443341 0)
(-0.0904102 0.0492749 0)
(-0.103795 0.0542755 0)
(-0.117863 0.0592359 0)
(-0.132472 0.0640497 0)
(-0.147461 0.0686088 0)
(-0.162656 0.0728098 0)
(-0.177887 0.076559 0)
(-0.192989 0.079778 0)
(-0.207815 0.082406 0)
(-0.222239 0.0844018 0)
(-0.236158 0.0857437 0)
(-0.249494 0.0864269 0)
(-0.262191 0.0864619 0)
(-0.274214 0.0858703 0)
(-0.28554 0.0846822 0)
(-0.296163 0.0829331 0)
(-0.306082 0.0806614 0)
(-0.315305 0.0779065 0)
(-0.323841 0.0747074 0)
(-0.331703 0.0711016 0)
(-0.338906 0.0671245 0)
(-0.345463 0.0628091 0)
(-0.35139 0.0581858 0)
(-0.356701 0.0532821 0)
(-0.361409 0.048123 0)
(-0.365527 0.0427309 0)
(-0.369069 0.0371259 0)
(-0.372043 0.0313258 0)
(-0.374459 0.0253467 0)
(-0.376326 0.0192033 0)
(-0.377648 0.0129091 0)
(-0.378428 0.006477 0)