/*--------------------------------*- C++ -*----------------------------------*\
| =========                 |                                                 |
| \\      /  F ield         | OpenFOAM: The Open Source CFD Toolbox           |
|  \\    /   O peration     | Version:  2406                                  |
|   \\  /    A nd           | Website:  www.openfoam.com                      |
|    \\/     M anipulation  |                                                 |
\*---------------------------------------------------------------------------*/
FoamFile
{
    version     2.0;
    format      ascii;
    arch        "LSB;label=32;scalar=64";
    class       surfaceScalarField;
    location    "43";
    object      phi;
}
// * * * * * * * * * * * * * * * * * * * * * * * * * * * * * * * * * * * * * //

dimensions      [0 3 -1 0 0 0 0];

oriented        oriented;

internalField   nonuniform List<scalar> 
7080
(
4.12324e-07
-4.12321e-07
1.6061e-06
-1.19377e-06
3.28509e-06
-1.67899e-06
4.99905e-06
-1.71396e-06
6.43327e-06
-1.43422e-06
7.44526e-06
-1.01199e-06
8.04671e-06
-6.01449e-07
8.33899e-06
-2.92282e-07
8.43269e-06
-9.36972e-08
8.39629e-06
3.63994e-08
8.23479e-06
1.61497e-07
7.87805e-06
3.56745e-07
7.21279e-06
6.65261e-07
6.10287e-06
1.10991e-06
4.40103e-06
1.70184e-06
1.95282e-06
2.44821e-06
-1.39894e-06
3.35176e-06
-5.80518e-06
4.40623e-06
-1.13963e-05
5.59109e-06
-1.82608e-05
6.8645e-06
-2.64203e-05
8.1595e-06
-3.58049e-05
9.38467e-06
-4.6232e-05
1.0427e-05
-5.73889e-05
1.11569e-05
-6.88297e-05
1.14408e-05
-7.99917e-05
1.11619e-05
-9.02311e-05
1.02394e-05
-9.88823e-05
8.65123e-06
-0.000105276
6.39358e-06
-0.000108836
3.56023e-06
-0.000108997
1.61128e-07
-0.00010561
-3.38705e-06
-9.84812e-05
-7.12901e-06
-8.76859e-05
-1.07953e-05
-7.35427e-05
-1.41432e-05
-5.661e-05
-1.69326e-05
-3.76876e-05
-1.89224e-05
-1.77864e-05
-1.99012e-05
1.93254e-06
-1.97189e-05
2.02541e-05
-1.83215e-05
3.60324e-05
-1.57783e-05
4.83301e-05
-1.22977e-05
5.65452e-05
-8.21509e-06
6.05022e-05
-3.95707e-06
6.05616e-05
-5.93101e-08
5.71469e-05
3.41462e-06
5.13271e-05
5.81983e-06
4.41224e-05
7.20472e-06
3.64733e-05
7.64905e-06
2.90936e-05
7.37974e-06
2.24562e-05
6.63736e-06
1.67926e-05
5.66369e-06
1.21473e-05
4.64524e-06
8.4452e-06
3.70211e-06
5.55089e-06
2.89431e-06
3.31967e-06
2.23122e-06
1.64775e-06
1.67192e-06
5.15627e-07
1.13212e-06
1.68058e-09
5.13947e-07
1.68062e-09
1.1526e-06
-1.56492e-06
3.92735e-06
-3.96852e-06
7.4822e-06
-5.23384e-06
1.09787e-05
-5.21048e-06
1.38046e-05
-4.26007e-06
1.56598e-05
-2.86725e-06
1.65131e-05
-1.45471e-06
1.6488e-05
-2.67225e-07
1.57285e-05
6.65819e-07
1.4286e-05
1.47894e-06
1.20583e-05
2.38912e-06
8.81016e-06
3.60492e-06
4.20923e-06
5.26619e-06
-2.12221e-06
7.44135e-06
-1.05711e-05
1.01507e-05
-2.15027e-05
1.33798e-05
-3.52196e-05
1.70687e-05
-5.19018e-05
2.10885e-05
-7.15339e-05
2.52231e-05
-9.38174e-05
2.9148e-05
-0.000118124
3.24663e-05
-0.000143522
3.47823e-05
-0.000168873
3.5778e-05
-0.000192976
3.52603e-05
-0.000214703
3.31681e-05
-0.000233089
2.95476e-05
-0.000247369
2.45199e-05
-0.000256971
1.82525e-05
-0.000261513
1.09362e-05
-0.000260794
2.84085e-06
-0.000254721
-5.91175e-06
-0.000243207
-1.49013e-05
-0.000226526
-2.38097e-05
-0.000204998
-3.23239e-05
-0.000179106
-4.00349e-05
-0.000149527
-4.65113e-05
-0.000117147
-5.1303e-05
-8.30528e-05
-5.3995e-05
-4.8516e-05
-5.42557e-05
-1.49339e-05
-5.19037e-05
1.62549e-05
-4.69671e-05
4.36813e-05
-3.97241e-05
6.61719e-05
-3.07056e-05
8.28713e-05
-2.06565e-05
9.32415e-05
-1.04295e-05
9.74925e-05
-8.36415e-07
9.60494e-05
7.26294e-06
8.98651e-05
1.3389e-05
8.02352e-05
1.7279e-05
6.86168e-05
1.89981e-05
5.63697e-05
1.88845e-05
4.45783e-05
1.74551e-05
3.39503e-05
1.52732e-05
2.48251e-05
1.28274e-05
1.72586e-05
1.04608e-05
1.11457e-05
8.34417e-06
6.35153e-06
6.46604e-06
2.83148e-06
4.65217e-06
6.87329e-07
2.6581e-06
6.8901e-07
1.71026e-06
-3.27518e-06
5.42934e-06
-7.6876e-06
9.86335e-06
-9.66785e-06
1.39525e-05
-9.29962e-06
1.69685e-05
-7.2761e-06
1.85526e-05
-4.45128e-06
1.86317e-05
-1.53384e-06
1.72677e-05
1.09681e-06
1.44993e-05
3.43421e-06
1.02174e-05
5.76081e-06
4.12044e-06
8.48609e-06
-4.25334e-06
1.19787e-05
-1.54544e-05
1.64673e-05
-3.00414e-05
2.20283e-05
-4.84979e-05
2.86072e-05
-7.11283e-05
3.60102e-05
-9.79178e-05
4.38582e-05
-0.000128391
5.15613e-05
-0.000161554
5.83869e-05
-0.00019602
6.36134e-05
-0.000230245
6.66916e-05
-0.000262789
6.73257e-05
-0.000292468
6.5457e-05
-0.000318406
6.11989e-05
-0.000340006
5.47679e-05
-0.000356888
4.64297e-05
-0.00036883
3.64615e-05
-0.00037571
2.51328e-05
-0.000377486
1.27122e-05
-0.000374117
-5.28574e-07
-0.000365688
-1.43401e-05
-0.000352195
-2.83945e-05
-0.000333697
-4.2308e-05
-0.000310369
-5.56517e-05
-0.000282481
-6.79234e-05
-0.000250454
-7.8538e-05
-0.0002149
-8.68565e-05
-0.000176654
-9.22412e-05
-0.000136779
-9.4131e-05
-9.65423e-05
-9.21402e-05
-5.73514e-05
-8.6158e-05
-2.06493e-05
-7.64262e-05
1.22096e-05
-6.35645e-05
4.00722e-05
-4.85191e-05
6.20893e-05
-3.24466e-05
7.78201e-05
-1.65672e-05
8.71662e-05
-2.08316e-06
9.0329e-05
1.02262e-05
8.80235e-05
1.95844e-05
8.13097e-05
2.57119e-05
7.15165e-05
2.86777e-05
6.00568e-05
2.89148e-05
4.82053e-05
2.71246e-05
3.69268e-05
2.41059e-05
2.68123e-05
2.05752e-05
1.81311e-05
1.70253e-05
1.09641e-05
1.36331e-05
5.37192e-06
1.02444e-05
1.55147e-06
6.47855e-06
2.24048e-06
2.04232e-06
-5.31749e-06
6.22646e-06
-1.18717e-05
1.08501e-05
-1.42915e-05
1.46558e-05
-1.31053e-05
1.68674e-05
-9.48769e-06
1.71314e-05
-4.71523e-06
1.53518e-05
2.45699e-07
1.14847e-05
4.96388e-06
5.37153e-06
9.54743e-06
-3.35979e-06
1.44921e-05
-1.52841e-05
2.04104e-05
-3.10862e-05
2.77808e-05
-5.14269e-05
3.6808e-05
-7.67877e-05
4.73891e-05
-0.000107278
5.90974e-05
-0.000142428
7.116e-05
-0.000181096
8.2527e-05
-0.000221626
9.20906e-05
-0.000262193
9.89545e-05
-0.000301171
0.000102591
-0.000337319
0.00010284
-0.000369814
9.98209e-05
-0.000398176
9.38187e-05
-0.000422169
8.51917e-05
-0.000441708
7.43074e-05
-0.000456786
6.15075e-05
-0.000467419
4.70944e-05
-0.000473619
3.13325e-05
-0.000475369
1.44629e-05
-0.000472622
-3.27612e-06
-0.000465324
-2.16378e-05
-0.000453397
-4.03213e-05
-0.000436734
-5.89712e-05
-0.000415262
-7.7124e-05
-0.000388983
-9.42019e-05
-0.000358017
-0.000109504
-0.000322656
-0.000122218
-0.000283428
-0.000131468
-0.000241151
-0.000136408
-0.000196947
-0.000136345
-0.00015221
-0.000130895
-0.000108513
-0.000120123
-6.74497e-05
-0.000104628
-3.04448e-05
-8.5524e-05
1.39911e-06
-6.42905e-05
2.73734e-05
-4.25415e-05
4.70795e-05
-2.17893e-05
6.05323e-05
-3.22654e-06
6.79311e-05
1.21855e-05
6.97769e-05
2.38662e-05
6.68945e-05
3.15601e-05
6.03991e-05
3.54102e-05
5.15668e-05
3.59569e-05
4.16366e-05
3.40362e-05
3.163e-05
3.05818e-05
2.22652e-05
2.63902e-05
1.39936e-05
2.19046e-05
7.15011e-06
1.70879e-05
2.1764e-06
1.14523e-05
4.41687e-06
2.23345e-06
-7.55094e-06
6.46905e-06
-1.61073e-05
1.06378e-05
-1.84603e-05
1.33406e-05
-1.58082e-05
1.38161e-05
-9.96318e-06
1.1753e-05
-2.65207e-06
7.01596e-06
4.98272e-06
-6.02553e-07
1.25824e-05
-1.15412e-05
2.04861e-05
-2.64803e-05
2.94312e-05
-4.62198e-05
4.01499e-05
-7.14691e-05
5.303e-05
-0.000102598
6.79366e-05
-0.000139374
8.41654e-05
-0.000180783
0.000100506
-0.000225097
0.000115474
-0.000270256
0.000127686
-0.000314344
0.000136179
-0.000355901
0.000140511
-0.000393986
0.000140676
-0.000428096
0.000136951
-0.000458034
0.000129758
-0.000483776
0.000119561
-0.000505395
0.00010681
-0.000522996
9.19087e-05
-0.000536691
7.52023e-05
-0.000546576
5.69791e-05
-0.000552719
3.74763e-05
-0.000555145
1.68884e-05
-0.000553815
-4.60579e-06
-0.000548683
-2.67698e-05
-0.000539593
-4.9411e-05
-0.000526344
-7.22207e-05
-0.000508684
-9.47839e-05
-0.000486345
-0.000116541
-0.00045909
-0.00013676
-0.000426781
-0.000154527
-0.000389475
-0.000168774
-0.000347532
-0.000178351
-0.000301711
-0.000182166
-0.000253232
-0.000179374
-0.000203747
-0.000169607
-0.000155204
-0.000153171
-0.000109586
-0.000131142
-6.86012e-05
-0.000105276
-3.34258e-05
-7.77168e-05
-4.63863e-06
-5.05765e-05
1.77084e-05
-2.55736e-05
3.38029e-05
-3.90894e-06
4.3996e-05
1.3673e-05
4.87757e-05
2.67804e-05
4.8852e-05
3.5334e-05
4.51808e-05
3.96281e-05
3.88847e-05
4.03323e-05
3.10954e-05
3.8371e-05
2.28049e-05
3.46807e-05
1.48043e-05
2.99053e-05
7.75868e-06
2.41334e-05
2.41173e-06
1.67992e-05
6.8286e-06
2.28239e-06
-9.83333e-06
6.12727e-06
-1.99522e-05
9.15793e-06
-2.14909e-05
9.93417e-06
-1.65844e-05
7.77451e-06
-7.80353e-06
2.41339e-06
2.70905e-06
-6.37432e-06
1.37704e-05
-1.90361e-05
2.52441e-05
-3.63121e-05
3.77622e-05
-5.90909e-05
5.221e-05
-8.81071e-05
6.91661e-05
-0.000123584
8.8507e-05
-0.000164933
0.000109286
-0.00021066
0.000129892
-0.000258618
0.000148464
-0.000306542
0.000163399
-0.000352551
0.000173695
-0.000395359
0.000178987
-0.00043424
0.000179392
-0.000468879
0.000175314
-0.000499215
0.000167288
-0.000525344
0.000155887
-0.000547442
0.000141659
-0.000565733
0.000125101
-0.000580459
0.000106635
-0.000591861
8.66048e-05
-0.000600163
6.52804e-05
-0.000605552
4.28653e-05
-0.000608166
1.95026e-05
-0.000608041
-4.7301e-06
-0.000605212
-2.95991e-05
-0.00059952
-5.51035e-05
-0.000590726
-8.10147e-05
-0.000578473
-0.000107037
-0.000562281
-0.000132733
-0.00054158
-0.000157461
-0.000515763
-0.000180344
-0.000484289
-0.000200247
-0.000446824
-0.000215817
-0.000403417
-0.000225573
-0.000354688
-0.000228103
-0.000301959
-0.000222336
-0.000247266
-0.000207864
-0.00019317
-0.000185238
-0.000142355
-0.000156091
-9.70967e-05
-0.000122975
-5.88088e-05
-8.88644e-05
-2.79111e-05
-5.64713e-05
-4.0971e-06
-2.7723e-05
1.32363e-05
-3.66038e-06
2.47176e-05
1.5299e-05
3.0965e-05
2.90866e-05
3.26934e-05
3.78997e-05
3.07878e-05
4.22379e-05
2.62674e-05
4.28914e-05
2.01817e-05
4.07663e-05
1.35194e-05
3.65676e-05
7.2118e-06
3.04411e-05
2.25378e-06
2.17572e-05
9.08238e-06
2.13281e-06
-1.19661e-05
5.04453e-06
-2.28639e-05
6.18913e-06
-2.26355e-05
4.21439e-06
-1.46097e-05
-1.43118e-06
-2.15796e-06
-1.10037e-05
1.22816e-05
-2.48904e-05
2.76572e-05
-4.38017e-05
4.41554e-05
-6.86556e-05
6.26161e-05
-0.000100205
8.37594e-05
-0.000138569
0.00010753
-0.000182891
0.000132829
-0.000231326
0.00015772
-0.00028144
0.000180006
-0.000330842
0.000197865
-0.000377665
0.000210222
-0.000420715
0.000216745
-0.00045936
0.000217632
-0.00049336
0.000213393
-0.00052273
0.000204684
-0.000547651
0.000192209
-0.000568415
0.00017665
-0.000585384
0.000158629
-0.000598961
0.000138678
-0.000609554
0.000117228
-0.000617554
9.46054e-05
-0.000623315
7.10411e-05
-0.000627133
4.66831e-05
-0.000629238
2.1608e-05
-0.000629798
-4.17089e-06
-0.000628842
-3.05543e-05
-0.000626338
-5.7608e-05
-0.000622097
-8.5256e-05
-0.000615771
-0.000113362
-0.000606833
-0.000141672
-0.000594548
-0.000169746
-0.000577997
-0.000196895
-0.000556125
-0.000222119
-0.000527864
-0.000244078
-0.000492332
-0.000261105
-0.000449106
-0.000271329
-0.000398527
-0.000272915
-0.000341964
-0.000264428
-0.000281902
-0.0002453
-0.000221731
-0.000216262
-0.000165152
-0.000179554
-0.00011532
-0.000138696
-7.40693e-05
-9.77218e-05
-4.16873e-05
-6.01049e-05
-1.73729e-05
-2.79748e-05
1.90296e-08
-2.09296e-06
1.15108e-05
1.75948e-05
1.79523e-05
3.14583e-05
2.01587e-05
4.00315e-05
1.90286e-05
4.40215e-05
1.55601e-05
4.42348e-05
1.08067e-05
4.1321e-05
5.84871e-06
3.53991e-05
1.8182e-06
2.57878e-05
1.09006e-05
1.69725e-06
-1.36634e-05
3.01753e-06
-2.41842e-05
1.49007e-06
-2.1108e-05
-4.00558e-06
-9.11403e-06
-1.38964e-05
7.73289e-06
-2.84871e-05
2.68723e-05
-4.83611e-05
4.75311e-05
-7.43785e-05
7.01728e-05
-0.000107295
9.55327e-05
-0.000147201
0.000123666
-0.000193108
0.000153437
-0.000242961
0.000182682
-0.000294128
0.000208887
-0.000344089
0.000229967
-0.000390928
0.000244705
-0.000433443
0.000252737
-0.000471009
0.000254311
-0.000503412
0.000250035
-0.000530727
0.000240707
-0.000553234
0.000227191
-0.000571364
0.00021034
-0.000585643
0.000190929
-0.000596635
0.00016962
-0.0006049
0.000146943
-0.000610961
0.000123289
-0.000615282
9.89262e-05
-0.000618258
7.40172e-05
-0.000620212
4.8637e-05
-0.000621402
2.27977e-05
-0.000622046
-3.52652e-06
-0.00062221
-3.03903e-05
-0.000621958
-5.78598e-05
-0.000621229
-8.59848e-05
-0.000619815
-0.000114776
-0.000617326
-0.000144161
-0.000613128
-0.000173944
-0.0006063
-0.000203722
-0.000595611
-0.000232809
-0.00057955
-0.000260139
-0.000556458
-0.000284196
-0.00052478
-0.000303007
-0.000483444
-0.000314251
-0.000432331
-0.000315541
-0.000372725
-0.000304907
-0.000307553
-0.000281434
-0.000241189
-0.000245917
-0.000178643
-0.000201243
-0.000124247
-0.000152117
-8.04153e-05
-0.000103937
-4.72554e-05
-6.11346e-05
-2.3337e-05
-2.60114e-05
-6.86266e-06
1.12044e-06
3.65908e-06
2.09365e-05
9.36711e-06
3.43235e-05
1.1244e-05
4.21446e-05
1.02811e-05
4.51977e-05
7.54282e-06
4.40593e-05
4.1577e-06
3.87842e-05
1.27805e-06
2.86674e-05
1.21786e-05
8.69413e-07
-1.45328e-05
-1.11522e-07
-2.32033e-05
-5.04553e-06
-1.6174e-05
-1.47313e-05
5.71721e-07
-2.94789e-05
2.24805e-05
-4.96916e-05
4.7085e-05
-7.60755e-05
7.3915e-05
-0.000109349
0.000103446
-0.00014964
0.000135824
-0.000195971
0.000169997
-0.000246218
0.000203685
-0.000297617
0.000234081
-0.000347502
0.000258772
-0.000393836
0.000276302
-0.000435335
0.000286203
-0.000471332
0.000288733
-0.00050162
0.000284599
-0.000526343
0.000274758
-0.000545908
0.000260272
-0.00056091
0.000242193
-0.000572043
0.000221474
-0.000580031
0.000198917
-0.000585559
0.000175148
-0.000589235
0.000150619
-0.000591573
0.000125627
-0.00059299
0.000100343
-0.000593816
7.48433e-05
-0.00059431
4.91307e-05
-0.000594678
2.31652e-05
-0.000595103
-3.10133e-06
-0.000595681
-2.9812e-05
-0.000596528
-5.7013e-05
-0.000597696
-8.48167e-05
-0.000599161
-0.000113311
-0.000600775
-0.000142547
-0.0006022
-0.000172519
-0.000602819
-0.000203103
-0.000601644
-0.000233984
-0.00059724
-0.000264543
-0.000587717
-0.000293719
-0.000570834
-0.00031989
-0.000544287
-0.000340798
-0.000506198
-0.000353629
-0.000455785
-0.00035532
-0.000394059
-0.000343159
-0.000324317
-0.00031566
-0.000252015
-0.000273545
-0.000183727
-0.000220406
-0.000125223
-0.000162441
-7.95579e-05
-0.0001068
-4.65158e-05
-5.90534e-05
-2.38647e-05
-2.15307e-05
-9.08446e-06
6.15629e-06
-1.95558e-07
2.54346e-05
4.25327e-06
3.76958e-05
5.44928e-06
4.40017e-05
4.51943e-06
4.49891e-05
2.60114e-06
4.07025e-05
7.97468e-07
3.04711e-05
1.29761e-05
-4.31234e-07
-1.41016e-05
-4.42145e-06
-1.92131e-05
-1.33698e-05
-7.22569e-06
-2.77135e-05
1.49154e-05
-4.76963e-05
4.24633e-05
-7.37889e-05
7.31775e-05
-0.000106603
0.00010673
-0.000146333
0.000143175
-0.000192135
0.000181626
-0.000241958
0.00021982
-0.000292982
0.000254709
-0.000342391
0.000283489
-0.000387971
0.000304352
-0.000428298
0.000316629
-0.00046263
0.000320535
-0.000490761
0.000316865
-0.000512913
0.00030675
-0.000529632
0.000291478
-0.000541686
0.000272326
-0.000549942
0.000250449
-0.000555266
0.000226797
-0.000558442
0.000202094
-0.000560133
0.000176839
-0.000560858
0.000151344
-0.00056101
0.000125778
-0.000560869
0.000100203
-0.000560636
7.46104e-05
-0.000560458
4.89522e-05
-0.000560451
2.31587e-05
-0.000560715
-2.83766e-06
-0.000561358
-2.91695e-05
-0.000562484
-5.58864e-05
-0.000564207
-8.30936e-05
-0.000566629
-0.000110889
-0.000569809
-0.000139367
-0.000573713
-0.000168615
-0.00057813
-0.000198685
-0.000582565
-0.00022955
-0.000586093
-0.000261015
-0.000587225
-0.000292587
-0.000583821
-0.000323293
-0.000573144
-0.000351475
-0.000552138
-0.000374635
-0.000518016
-0.000389443
-0.00046914
-0.000392035
-0.000406057
-0.000378743
-0.000332326
-0.000347276
-0.000254572
-0.00029816
-0.00018117
-0.000235843
-0.000119512
-0.000168458
-7.3189e-05
-0.000105376
-4.13563e-05
-5.33634e-05
-2.07946e-05
-1.44054e-05
-8.26237e-06
1.29024e-05
-1.3368e-06
3.07702e-05
1.71689e-06
4.0948e-05
2.26358e-06
4.44424e-05
1.49984e-06
4.14662e-05
4.88032e-07
3.14829e-05
1.34641e-05
-2.18491e-06
-1.19167e-05
-9.79307e-06
-1.16049e-05
-2.31764e-05
6.15763e-06
-4.24051e-05
3.41441e-05
-6.76859e-05
6.77441e-05
-9.94315e-05
0.000104923
-0.00013787
0.000145168
-0.000182375
0.000187681
-0.000231108
0.000230358
-0.0002813
0.000270012
-0.000330007
0.000303417
-0.000374806
0.000328288
-0.000414083
0.000343629
-0.000446987
0.000349533
-0.000473293
0.000346841
-0.000493289
0.00033686
-0.000507656
0.000321117
-0.000517326
0.000301148
-0.00052333
0.000278329
-0.00052666
0.000253778
-0.000528179
0.000228317
-0.000528578
0.000202492
-0.000528362
0.000176623
-0.000527877
0.000150859
-0.000527337
0.000125239
-0.000526869
9.97345e-05
-0.000526541
7.42825e-05
-0.000526396
4.88067e-05
-0.000526468
2.3231e-05
-0.000526792
-2.51377e-06
-0.000527448
-2.85133e-05
-0.000528519
-5.48152e-05
-0.000530123
-8.14893e-05
-0.000532406
-0.000108606
-0.000535525
-0.000136248
-0.000539627
-0.000164513
-0.000544798
-0.000193514
-0.000550982
-0.000223365
-0.000557855
-0.000254142
-0.00056465
-0.000285793
-0.000569949
-0.000317994
-0.000571514
-0.000349909
-0.000566239
-0.00037991
-0.000550385
-0.000405297
-0.000520223
-0.000422197
-0.000473138
-0.000425828
-0.000409056
-0.000411358
-0.000331736
-0.000375479
-0.000249106
-0.000318473
-0.000171592
-0.000245972
-0.000108263
-0.000168705
-6.28692e-05
-9.87576e-05
-3.34478e-05
-4.38269e-05
-1.56741e-05
-4.87127e-06
-5.70442e-06
2.08005e-05
-7.95475e-07
3.6039e-05
9.61803e-07
4.26852e-05
9.84935e-07
4.14431e-05
3.93955e-07
3.20739e-05
1.38581e-05
-4.37253e-06
-7.54414e-06
-1.59862e-05
8.75938e-09
-3.39485e-05
2.41199e-05
-5.7995e-05
5.81907e-05
-8.82529e-05
9.80019e-05
-0.000124889
0.000141559
-0.000167505
0.000187784
-0.000214592
0.000234768
-0.000263573
0.000279339
-0.000311449
0.000317888
-0.000355578
0.000347546
-0.000394112
0.000366822
-0.000426043
0.000375559
-0.000451084
0.000374574
-0.000469557
0.000365314
-0.000482248
0.000349551
-0.000490233
0.000329103
-0.000494687
0.000305601
-0.000496713
0.000280356
-0.000497243
0.000254308
-0.000496981
0.000228056
-0.000496412
0.000201923
-0.00049583
0.000176041
-0.000495388
0.000150416
-0.000495142
0.000124993
-0.000495094
9.96869e-05
-0.000495222
7.44105e-05
-0.000495501
4.90856e-05
-0.000495917
2.36465e-05
-0.000496471
-1.95967e-06
-0.000497206
-2.77776e-05
-0.000498185
-5.3837e-05
-0.000499503
-8.01705e-05
-0.000501298
-0.000106812
-0.000503737
-0.000133809
-0.000507023
-0.000161227
-0.00051137
-0.000189168
-0.000516964
-0.000217771
-0.000523893
-0.000247213
-0.000532011
-0.000277676
-0.00054074
-0.000309264
-0.000548812
-0.000341837
-0.000553995
-0.000374728
-0.000552935
-0.000406357
-0.000541307
-0.000433826
-0.000514472
-0.000452662
-0.000468801
-0.000457029
-0.000403547
-0.000440733
-0.000322732
-0.000399289
-0.000235837
-0.000332867
-0.00015563
-0.000248912
-9.26786e-05
-0.000161709
-5.01046e-05
-8.64009e-05
-2.42517e-05
-3.07242e-05
-9.7821e-06
6.33097e-06
-2.50129e-06
2.87582e-05
4.53318e-07
3.97305e-05
9.97722e-07
4.08987e-05
4.96982e-07
3.25746e-05
1.43551e-05
-6.85898e-06
-6.85151e-07
-2.26082e-05
1.5758e-05
-4.50093e-05
4.65211e-05
-7.34915e-05
8.66728e-05
-0.000108016
0.000132527
-0.000148327
0.000181869
-0.000193306
0.000232764
-0.000240719
0.000282181
-0.000287643
0.000326263
-0.000331254
0.000361499
-0.00036943
0.000385722
-0.000400944
0.000398336
-0.000425391
0.000400006
-0.000443062
0.000392245
-0.0004548
0.000377053
-0.000461792
0.000356543
-0.000465334
0.000332645
-0.000466634
0.000306901
-0.000466684
0.000280406
-0.000466207
0.000253831
-0.000465669
0.000227517
-0.000465321
0.000201576
-0.000465264
0.000175983
-0.000465498
0.000150651
-0.000465975
0.00012547
-0.000466627
0.000100339
-0.000467388
7.51714e-05
-0.000468206
4.99036e-05
-0.000469049
2.44895e-05
-0.000469907
-1.10166e-06
-0.0004708
-2.6885e-05
-0.000471768
-5.2869e-05
-0.000472882
-7.90566e-05
-0.000474243
-0.00010545
-0.000475991
-0.000132061
-0.000478304
-0.000158914
-0.000481405
-0.000186067
-0.000485553
-0.000213623
-0.000491016
-0.00024175
-0.000498004
-0.000270687
-0.00050654
-0.000300728
-0.000516237
-0.00033214
-0.000525989
-0.000364976
-0.000533608
-0.000398738
-0.000535553
-0.00043188
-0.000526975
-0.000461239
-0.000502384
-0.00048162
-0.000457179
-0.000485938
-0.000390037
-0.000466431
-0.000305508
-0.000417396
-0.000215094
-0.000339325
-0.000134186
-0.000242617
-7.42241e-05
-0.000146363
-3.64363e-05
-6.8512e-05
-1.50977e-05
-1.50077e-05
-4.2682e-06
1.79288e-05
2.7816e-07
3.51842e-05
1.3197e-06
3.98572e-05
7.27657e-07
3.31667e-05
1.50827e-05
-9.45324e-06
8.76809e-06
-2.91854e-05
3.54901e-05
-5.5606e-05
7.29417e-05
-8.78511e-05
0.000118918
-0.000125617
0.000170293
-0.000168127
0.000224379
-0.000213609
0.000278246
-0.000259392
0.000327964
-0.000302572
0.000369443
-0.00034075
0.000399677
-0.000372412
0.000417384
-0.000396951
0.000422875
-0.000414553
0.000417608
-0.00042605
0.000403742
-0.000432687
0.00038369
-0.000435861
0.000359717
-0.000436877
0.000333661
-0.000436796
0.00030682
-0.000436371
0.000279981
-0.000436062
0.000253522
-0.000436093
0.000227548
-0.000436523
0.000202006
-0.000437314
0.000176774
-0.00043838
0.000151717
-0.000439625
0.000126715
-0.000440957
0.000101671
-0.000442303
7.6518e-05
-0.000443612
5.12127e-05
-0.000444854
2.57308e-05
-0.000446016
6.07532e-08
-0.000447111
-2.57898e-05
-0.000448165
-5.18149e-05
-0.000449225
-7.79966e-05
-0.000450359
-0.000104317
-0.000451661
-0.000130759
-0.000453257
-0.000157318
-0.000455318
-0.000184006
-0.000458069
-0.000210873
-0.000461793
-0.000238026
-0.000466821
-0.000265659
-0.000473474
-0.000294075
-0.000481931
-0.000323683
-0.000491989
-0.000354919
-0.000502688
-0.000388039
-0.000511865
-0.000422704
-0.000515763
-0.000457341
-0.000509001
-0.000488382
-0.000485265
-0.000509675
-0.0004391
-0.000512596
-0.000368891
-0.000487605
-0.000280275
-0.000427941
-0.000187504
-0.000335387
-0.000108703
-0.000225164
-5.47459e-05
-0.000122469
-2.34179e-05
-4.63357e-05
-7.22205e-06
1.7329e-06
-2.0946e-07
2.81716e-05
1.63336e-06
3.80143e-05
9.87047e-07
3.3813e-05
1.60698e-05
-1.19345e-05
2.07026e-05
-3.52247e-05
5.87803e-05
-6.50097e-05
0.000102727
-0.000100123
0.000154031
-0.000139923
0.000210093
-0.000183116
0.000267572
-0.000227461
0.000322591
-0.00027015
0.000370653
-0.000308564
0.000407858
-0.000340854
0.000431967
-0.000366122
0.000442652
-0.000384359
0.000441111
-0.000396292
0.000429541
-0.000403164
0.000410614
-0.000406439
0.000386965
-0.000407515
0.000360793
-0.000407535
0.00033368
-0.000407303
0.000306588
-0.000407295
0.000279973
-0.000407726
0.000253953
-0.00040863
0.000228453
-0.000409944
0.000203319
-0.000411556
0.000178386
-0.000413349
0.000153511
-0.00041522
0.000128585
-0.000417084
0.000103535
-0.000418881
7.83151e-05
-0.000420571
5.29029e-05
-0.000422133
2.72922e-05
-0.000423561
1.48919e-06
-0.000424862
-2.44885e-05
-0.000426058
-5.06194e-05
-0.000427179
-7.68755e-05
-0.000428269
-0.000103226
-0.000429387
-0.000129641
-0.000430611
-0.000156094
-0.000432047
-0.00018257
-0.000433847
-0.000209073
-0.000436222
-0.00023565
-0.000439465
-0.000262416
-0.000443952
-0.000289589
-0.0004501
-0.000317535
-0.000458236
-0.000346782
-0.00046833
-0.000377945
-0.000479542
-0.000411491
-0.000489668
-0.000447215
-0.00049464
-0.000483411
-0.000488446
-0.000515869
-0.000463938
-0.000537104
-0.000414996
-0.000536546
-0.000340243
-0.000502694
-0.000247351
-0.00042828
-0.000154281
-0.000318235
-8.13719e-05
-0.000195378
-3.6312e-05
-9.13955e-05
-1.24518e-05
-2.21273e-05
-1.66405e-06
1.73838e-05
1.61202e-06
3.47383e-05
1.1758e-06
3.42492e-05
1.72456e-05
-1.40818e-05
3.47844e-05
-4.02836e-05
8.49821e-05
-7.26078e-05
0.000135051
-0.000109567
0.00019099
-0.000150162
0.000250688
-0.000192672
0.000310082
-0.000234607
0.000364527
-0.000273279
0.000409325
-0.000306508
0.000441087
-0.000333027
0.000458486
-0.000352529
0.000462154
-0.000365539
0.000454121
-0.00037321
0.000437212
-0.000377021
0.000414425
-0.000378453
0.000388396
-0.000378744
0.000361084
-0.000378778
0.000333714
-0.000379075
0.000306885
-0.000379863
0.000280762
-0.000381174
0.000255263
-0.000382925
0.000230204
-0.000384993
0.000205387
-0.000387247
0.000180641
-0.000389576
0.00015584
-0.000391891
0.0001309
-0.000394127
0.000105771
-0.000396242
8.04299e-05
-0.000398209
5.48697e-05
-0.000400015
2.90986e-05
-0.00040166
3.13428e-06
-0.000403151
-2.29976e-05
-0.000404504
-4.92665e-05
-0.000405742
-7.56375e-05
-0.000406895
-0.000102074
-0.000407999
-0.000128537
-0.000409101
-0.000154992
-0.000410261
-0.000181409
-0.000411565
-0.000207769
-0.000413141
-0.000234075
-0.000415182
-0.000260374
-0.000417983
-0.000286788
-0.000421952
-0.000313566
-0.00042759
-0.000341144
-0.000435361
-0.000370175
-0.000445381
-0.000401471
-0.000456888
-0.000435708
-0.000467535
-0.000472764
-0.000472781
-0.000510623
-0.000465824
-0.00054406
-0.000438658
-0.000563713
-0.000384811
-0.000556541
-0.000304021
-0.00050907
-0.000207421
-0.000414835
-0.000117607
-0.000285192
-5.5063e-05
-0.000153939
-2.0756e-05
-5.64343e-05
-4.58092e-06
1.20869e-06
1.01724e-06
2.91401e-05
1.22494e-06
3.40415e-05
1.84705e-05
-1.57087e-05
5.0493e-05
-4.40206e-05
0.000113294
-7.79674e-05
0.000168998
-0.000115728
0.00022875
-0.000155972
0.000290932
-0.000196694
0.000350804
-0.000235366
0.000403199
-0.000269589
0.000443547
-0.000297691
0.000469189
-0.000318968
0.000479764
-0.000333638
0.000476823
-0.000342655
0.000463139
-0.00034744
0.000441997
-0.000349522
0.000416507
-0.000350245
0.000389119
-0.000350598
0.000361437
-0.000351179
0.000334296
-0.000352262
0.000307967
-0.00035389
0.00028239
-0.000355983
0.000257356
-0.000358408
0.000232629
-0.000361028
0.000208007
-0.000363726
0.000183339
-0.000366412
0.000158525
-0.00036902
0.000133508
-0.000371507
0.000108258
-0.000373844
8.27669e-05
-0.000376015
5.70405e-05
-0.000378012
3.1096e-05
-0.000379837
4.95889e-06
-0.000381495
-2.13389e-05
-0.000383001
-4.77607e-05
-0.000384372
-7.42664e-05
-0.000385631
-0.000100815
-0.000386804
-0.000127364
-0.00038792
-0.000153876
-0.000389015
-0.000180315
-0.000390131
-0.000206653
-0.000391334
-0.000232872
-0.00039273
-0.000258978
-0.000394497
-0.000285021
-0.000396928
-0.000311135
-0.000400466
-0.000337606
-0.000405691
-0.00036495
-0.000413188
-0.000393974
-0.000423188
-0.000425707
-0.000434917
-0.000461035
-0.000445731
-0.000499809
-0.000450397
-0.000539395
-0.000441124
-0.000572986
-0.000409076
-0.000588589
-0.000348007
-0.000570138
-0.000260163
-0.00050268
-0.000162044
-0.00038331
-8.0945e-05
-0.000235039
-3.26278e-05
-0.000104751
-9.24326e-06
-2.21758e-05
-2.49424e-07
2.01463e-05
1.1115e-06
3.26806e-05
1.9582e-05
-1.66851e-05
6.71781e-05
-4.62234e-05
0.000142832
-8.08613e-05
0.000203636
-0.000118441
0.000266329
-0.000157369
0.00032986
-0.000195504
0.000388939
-0.000230447
0.000438142
-0.000260185
0.000473284
-0.000283555
0.000492559
-0.00030036
0.000496568
-0.000311245
0.000487708
-0.00031746
0.000469354
-0.000320523
0.00044506
-0.000321868
0.000417853
-0.000322611
0.000389862
-0.000323466
0.000362292
-0.000324781
0.000335611
-0.000326643
0.000309829
-0.000328984
0.000284731
-0.000331673
0.000260045
-0.00033457
0.000235526
-0.000337555
0.000210991
-0.000340536
0.00018632
-0.000343449
0.000161438
-0.00034625
0.00013631
-0.000348911
0.000110919
-0.000351413
8.52688e-05
-0.000353744
5.93722e-05
-0.0003559
3.32519e-05
-0.00035788
6.93878e-06
-0.000359689
-1.95303e-05
-0.000361336
-4.61133e-05
-0.000362837
-7.27655e-05
-0.00036421
-9.94413e-05
-0.000365478
-0.000126097
-0.000366663
-0.000152691
-0.00036779
-0.000179188
-0.000368884
-0.000205559
-0.000369974
-0.000231782
-0.000371107
-0.000257846
-0.000372367
-0.000283761
-0.00037392
-0.000309582
-0.000376063
-0.000335462
-0.000379282
-0.000361731
-0.000384244
-0.000389012
-0.000391648
-0.000418304
-0.000401784
-0.000450898
-0.000413734
-0.000487859
-0.000424318
-0.00052881
-0.000427319
-0.000569985
-0.000413772
-0.000602135
-0.000374235
-0.000609675
-0.00030374
-0.000573175
-0.00020917
-0.00047788
-0.000114437
-0.000329772
-4.8695e-05
-0.000170493
-1.58038e-05
-5.5067e-05
-2.26961e-06
6.61208e-06
8.47741e-07
2.95632e-05
2.04297e-05
-1.6947e-05
8.41252e-05
-4.68132e-05
0.000172699
-8.12596e-05
0.000238082
-0.0001178
0.00030287
-0.000154664
0.000366725
-0.00018971
0.000423985
-0.000220777
0.000469209
-0.000246272
0.00049878
-0.000265505
0.000511792
-0.000278697
0.00050976
-0.000286806
0.000495817
-0.000291231
0.000473779
-0.000293448
0.000447277
-0.000294702
0.000419107
-0.000295851
0.000391011
-0.000297359
0.000363799
-0.000299383
0.000337635
-0.00030189
0.000312336
-0.00030476
0.000287602
-0.000307855
0.000263139
-0.000311052
0.000238723
-0.000314258
0.000214198
-0.000317411
0.000189473
-0.000320469
0.000164496
-0.000323402
0.000139243
-0.000326194
0.00011371
-0.000328829
8.7904e-05
-0.000331298
6.18411e-05
-0.000333594
3.55482e-05
-0.000335715
9.05958e-06
-0.000337662
-1.75831e-05
-0.000339442
-4.43332e-05
-0.000341067
-7.1141e-05
-0.000342552
-9.79561e-05
-0.000343918
-0.000124731
-0.000345186
-0.000151423
-0.000346378
-0.000177996
-0.000347515
-0.000204422
-0.000348613
-0.000230683
-0.000349691
-0.000256768
-0.000350778
-0.000282673
-0.000351944
-0.000308417
-0.000353342
-0.000334064
-0.000355287
-0.000359787
-0.000358317
-0.000385982
-0.000363203
-0.000413418
-0.000370749
-0.000443352
-0.000381228
-0.00047738
-0.000393367
-0.000516672
-0.000403118
-0.000560234
-0.000402929
-0.000602324
-0.00038258
-0.000630024
-0.000332659
-0.000623096
-0.000251331
-0.000559208
-0.000153088
-0.000428015
-7.00628e-05
-0.000253519
-2.43695e-05
-0.00010076
-5.03352e-06
-1.27239e-05
4.48505e-07
2.40812e-05
2.08783e-05
-1.64938e-05
0.000100619
-4.58296e-05
0.000202034
-7.92953e-05
0.000271548
-0.000114095
0.00033767
-0.000148366
0.000400995
-0.000180069
0.000455688
-0.000207346
0.000496486
-0.000229013
0.000520447
-0.000244781
0.000527561
-0.000255194
0.000520172
-0.000261396
0.000502019
-0.000264807
0.00047719
-0.000266766
0.000449236
-0.000268286
0.000420627
-0.000269981
0.000392707
-0.000272116
0.000365935
-0.000274721
0.00034024
-0.000277701
0.000315316
-0.000280923
0.000290824
-0.000284264
0.000266481
-0.000287633
0.000242091
-0.000290964
0.000217529
-0.000294217
0.000192726
-0.000297368
0.000167646
-0.000300397
0.000142273
-0.000303292
0.000116605
-0.00030604
9.06518e-05
-0.00030863
6.44312e-05
-0.000311054
3.79718e-05
-0.000313306
1.13112e-05
-0.000315384
-1.55051e-05
-0.000317291