/*--------------------------------*- C++ -*----------------------------------*\
| =========                 |                                                 |
| \\      /  F ield         | OpenFOAM: The Open Source CFD Toolbox           |
|  \\    /   O peration     | Version:  2406                                  |
|   \\  /    A nd           | Website:  www.openfoam.com                      |
|    \\/     M anipulation  |                                                 |
\*---------------------------------------------------------------------------*/
FoamFile
{
    version     2.0;
    format      ascii;
    arch        "LSB;label=32;scalar=64";
    class       volVectorField;
    location    "38.5";
    object      Uold;
}
// * * * * * * * * * * * * * * * * * * * * * * * * * * * * * * * * * * * * * //

dimensions      [0 1 -1 0 0 0 0];

internalField   nonuniform List<vector> 
3600
(
(-3.08474e-06 -8.0436e-06 0)
(0.000509872 -0.000252407 0)
(0.00153443 -0.000378316 0)
(0.00267172 -0.000395899 0)
(0.00375 -0.00032046 0)
(0.00452935 -0.000218877 0)
(0.00504598 -0.000122988 0)
(0.00528419 -6.07628e-05 0)
(0.00537111 -3.18059e-05 0)
(0.00533846 -2.78112e-05 0)
(0.00524892 -3.06326e-05 0)
(0.00506705 -2.50489e-05 0)
(0.00475926 3.1981e-07 0)
(0.00423751 5.03312e-05 0)
(0.00342641 0.000126714 0)
(0.00222976 0.000230434 0)
(0.000565187 0.00036345 0)
(-0.00165537 0.000525667 0)
(-0.00450392 0.000709992 0)
(-0.0080438 0.000904323 0)
(-0.01231 0.00110172 0)
(-0.0173 0.00130702 0)
(-0.0229509 0.00152915 0)
(-0.0291301 0.00176427 0)
(-0.0356255 0.0019844 0)
(-0.0421507 0.00214133 0)
(-0.0483579 0.00218143 0)
(-0.0538654 0.00206141 0)
(-0.0582873 0.00175754 0)
(-0.061265 0.00126823 0)
(-0.0624938 0.000612185 0)
(-0.0617456 -0.000174588 0)
(-0.0588877 -0.00104205 0)
(-0.0538993 -0.00192874 0)
(-0.0468859 -0.00276501 0)
(-0.038088 -0.0034768 0)
(-0.0278865 -0.00399174 0)
(-0.0167906 -0.00424691 0)
(-0.00541938 -0.00419887 0)
(0.00554712 -0.00383405 0)
(0.015421 -0.00317732 0)
(0.0235932 -0.002296 0)
(0.0295983 -0.00129441 0)
(0.0331996 -0.000300073 0)
(0.0344054 0.00056251 0)
(0.0334889 0.00119767 0)
(0.0309044 0.00156461 0)
(0.0272317 0.00167959 0)
(0.0230277 0.00160594 0)
(0.0187872 0.00141986 0)
(0.0148304 0.00119051 0)
(0.0113708 0.000960222 0)
(0.00844964 0.000755708 0)
(0.00608605 0.000583199 0)
(0.00417732 0.000450319 0)
(0.00269139 0.000344905 0)
(0.00150341 0.000264617 0)
(0.000642118 0.000166923 0)
(8.14968e-05 5.45413e-05 0)
(-7.87408e-05 -8.47041e-05 0)
(0.0002131 -0.000489824 0)
(0.00152206 -0.0015702 0)
(0.00366356 -0.0020907 0)
(0.00591158 -0.00211497 0)
(0.0079851 -0.00173538 0)
(0.00946573 -0.00119294 0)
(0.0103642 -0.000643955 0)
(0.0106223 -0.000200914 0)
(0.0103947 0.000120537 0)
(0.00969885 0.000362528 0)
(0.0085796 0.000603457 0)
(0.006926 0.00092275 0)
(0.00460858 0.00137749 0)
(0.00141051 0.00199927 0)
(-0.00287169 0.0027969 0)
(-0.00845883 0.0037665 0)
(-0.0155268 0.00489026 0)
(-0.0242146 0.00613999 0)
(-0.0345634 0.0074772 0)
(-0.0464862 0.00884943 0)
(-0.0597185 0.0101725 0)
(-0.0738275 0.011324 0)
(-0.0882419 0.0121585 0)
(-0.102321 0.0125387 0)
(-0.115419 0.0123594 0)
(-0.12695 0.0115611 0)
(-0.136419 0.0101308 0)
(-0.143435 0.00809835 0)
(-0.147714 0.00552848 0)
(-0.149061 0.00251398 0)
(-0.147367 -0.000830269 0)
(-0.1426 -0.00436981 0)
(-0.134809 -0.00795226 0)
(-0.124122 -0.0114071 0)
(-0.110766 -0.0145482 0)
(-0.095068 -0.0171783 0)
(-0.0774726 -0.0191011 0)
(-0.058542 -0.0201372 0)
(-0.0389546 -0.0201502 0)
(-0.0194756 -0.0190726 0)
(-0.000927391 -0.0169334 0)
(0.0158824 -0.0138745 0)
(0.0302121 -0.0101505 0)
(0.0414846 -0.00610699 0)
(0.0493187 -0.00213271 0)
(0.0536157 0.00139722 0)
(0.0545279 0.00419158 0)
(0.0525045 0.00608412 0)
(0.0481709 0.00706573 0)
(0.0423209 0.00725534 0)
(0.0357027 0.00686526 0)
(0.0290241 0.0061206 0)
(0.0227341 0.00522886 0)
(0.0171752 0.00432682 0)
(0.0123982 0.00351477 0)
(0.00847539 0.00280421 0)
(0.00525557 0.00219932 0)
(0.00280332 0.00157182 0)
(0.00101402 0.000906147 0)
(0.000104562 0.000108632 0)
(0.000347056 -0.00147236 0)
(0.00213367 -0.00373959 0)
(0.00489763 -0.00476112 0)
(0.00762505 -0.00467673 0)
(0.00998661 -0.00376273 0)
(0.0114761 -0.00246229 0)
(0.0120983 -0.00111509 0)
(0.0117565 7.40583e-05 0)
(0.01057 0.00106932 0)
(0.00848323 0.00197578 0)
(0.00544554 0.00296199 0)
(0.00122695 0.00420521 0)
(-0.00442345 0.00582565 0)
(-0.0118305 0.00788551 0)
(-0.0212711 0.0103827 0)
(-0.0329794 0.0132714 0)
(-0.0470373 0.0164553 0)
(-0.0633249 0.0197797 0)
(-0.0814432 0.0230055 0)
(-0.100751 0.0258271 0)
(-0.120444 0.0279291 0)
(-0.139691 0.0290602 0)
(-0.157738 0.0290703 0)
(-0.173975 0.0279136 0)
(-0.18795 0.0256245 0)
(-0.199359 0.0222914 0)
(-0.208005 0.0180322 0)
(-0.213775 0.012982 0)
(-0.216606 0.00728473 0)
(-0.21647 0.00109317 0)
(-0.213356 -0.00542922 0)
(-0.207272 -0.0121017 0)
(-0.198249 -0.0187205 0)
(-0.186354 -0.0250516 0)
(-0.171709 -0.0308295 0)
(-0.154509 -0.0357591 0)
(-0.135053 -0.0395307 0)
(-0.113755 -0.041843 0)
(-0.0911667 -0.0424421 0)
(-0.0679631 -0.0411642 0)
(-0.0449282 -0.0379853 0)
(-0.0228958 -0.0330522 0)
(-0.00269933 -0.0266974 0)
(0.0149253 -0.0194121 0)
(0.0293771 -0.0117911 0)
(0.0402777 -0.00445497 0)
(0.0474456 0.00203742 0)
(0.0509706 0.00725119 0)
(0.0511367 0.0109376 0)
(0.048503 0.0130452 0)
(0.0437422 0.0137295 0)
(0.037687 0.0132883 0)
(0.0310435 0.0121057 0)
(0.0244931 0.0105382 0)
(0.01838 0.00888738 0)
(0.0130347 0.007302 0)
(0.00842839 0.00584579 0)
(0.0047591 0.00436173 0)
(0.00190335 0.00275965 0)
(0.000293899 0.000826948 0)
(0.00043468 -0.00267505 0)
(0.0024926 -0.0062233 0)
(0.00548629 -0.00762879 0)
(0.00817278 -0.00719532 0)
(0.0102067 -0.00549189 0)
(0.0110584 -0.00317253 0)
(0.0107481 -0.000756921 0)
(0.00913848 0.00149987 0)
(0.00626761 0.00357863 0)
(0.00194788 0.00568272 0)
(-0.00402623 0.0080843 0)
(-0.0120291 0.0110492 0)
(-0.0224098 0.0147244 0)
(-0.0355044 0.0191425 0)
(-0.0514683 0.0242027 0)
(-0.070222 0.0296836 0)
(-0.0913278 0.0352104 0)
(-0.114032 0.0402944 0)
(-0.137369 0.0444247 0)
(-0.160371 0.0471991 0)
(-0.182209 0.0483837 0)
(-0.202273 0.0479149 0)
(-0.220159 0.0458507 0)
(-0.235635 0.0423239 0)
(-0.248582 0.0374985 0)
(-0.25895 0.0315466 0)
(-0.266726 0.0246326 0)
(-0.271907 0.0169119 0)
(-0.274487 0.00853121 0)
(-0.274449 -0.00036181 0)
(-0.271758 -0.00961079 0)
(-0.266368 -0.0190362 0)
(-0.258227 -0.0284239 0)
(-0.247289 -0.0375117 0)
(-0.233536 -0.0459825 0)
(-0.216999 -0.0534621 0)
(-0.197795 -0.0595336 0)
(-0.176157 -0.0637624 0)
(-0.152472 -0.065747 0)
(-0.127296 -0.0651789 0)
(-0.101361 -0.0619181 0)
(-0.0755299 -0.0560504 0)
(-0.050745 -0.0479251 0)
(-0.0279064 -0.0381307 0)
(-0.00779392 -0.0274277 0)
(0.00904317 -0.0166354 0)
(0.0222671 -0.00652018 0)
(0.0317911 0.00228143 0)
(0.0376694 0.00931812 0)
(0.04018 0.014335 0)
(0.0397109 0.0173067 0)
(0.0368973 0.0184184 0)
(0.0323856 0.0180465 0)
(0.0269665 0.0166528 0)
(0.0211842 0.0147072 0)
(0.0156351 0.0125454 0)
(0.0104892 0.0103517 0)
(0.00615603 0.00802414 0)
(0.00258211 0.00536772 0)
(0.000444114 0.00199173 0)
(0.000489908 -0.00408776 0)
(0.00264867 -0.00893435 0)
(0.00554645 -0.0105117 0)
(0.00776333 -0.00939327 0)
(0.00894912 -0.00655448 0)
(0.00859308 -0.00287308 0)
(0.00672813 0.000963926 0)
(0.0031681 0.0047126 0)
(-0.00217099 0.0084222 0)
(-0.00963727 0.0124324 0)
(-0.0195943 0.0171097 0)
(-0.0324935 0.0227538 0)
(-0.0486255 0.0294322 0)
(-0.0680629 0.0369886 0)
(-0.0904704 0.0450007 0)
(-0.115113 0.0528446 0)
(-0.140937 0.0597941 0)
(-0.166827 0.0652184 0)
(-0.191812 0.0686983 0)
(-0.215191 0.0700609 0)
(-0.236516 0.0693217 0)
(-0.255552 0.0666223 0)
(-0.272194 0.0621637 0)
(-0.286427 0.0561691 0)
(-0.298277 0.0488529 0)
(-0.307789 0.0404111 0)
(-0.315014 0.0310137 0)
(-0.319993 0.0208105 0)
(-0.322751 0.00993458 0)
(-0.323288 -0.00148435 0)
(-0.321575 -0.0133097 0)
(-0.317547 -0.0253796 0)
(-0.311108 -0.037492 0)
(-0.302128 -0.049384 0)
(-0.290462 -0.0607189 0)
(-0.275964 -0.0710735 0)
(-0.25853 -0.0799446 0)
(-0.238135 -0.086767 0)
(-0.214902 -0.0909662 0)
(-0.189152 -0.0920291 0)
(-0.161458 -0.0896086 0)
(-0.132652 -0.083623 0)
(-0.103795 -0.0743431 0)
(-0.0760536 -0.0624058 0)
(-0.0505511 -0.0487526 0)
(-0.0281696 -0.0344694 0)
(-0.00946844 -0.0206041 0)
(0.00536916 -0.00802031 0)
(0.0163742 0.00266404 0)
(0.0237729 0.0110586 0)
(0.0278218 0.0169941 0)
(0.0289651 0.0205133 0)
(0.0276668 0.021882 0)
(0.0246243 0.0215421 0)
(0.0203956 0.0200232 0)
(0.0157072 0.0178058 0)
(0.0108898 0.0151885 0)
(0.00655826 0.012171 0)
(0.00279735 0.00844596 0)
(0.000488491 0.00343536 0)
(0.000531953 -0.00554301 0)
(0.00262176 -0.0114774 0)
(0.00505617 -0.012842 0)
(0.00633825 -0.010602 0)
(0.00613932 -0.00623748 0)
(0.00401365 -0.00083701 0)
(-2.11799e-05 0.00480019 0)
(-0.00622563 0.0105263 0)
(-0.0148469 0.0165125 0)
(-0.0263768 0.023231 0)
(-0.0412434 0.0310548 0)
(-0.0597576 0.0401512 0)
(-0.0818296 0.050277 0)
(-0.106915 0.0608397 0)
(-0.134002 0.070962 0)
(-0.161858 0.0797458 0)
(-0.189297 0.0864705 0)
(-0.215404 0.0907334 0)
(-0.239566 0.092412 0)
(-0.261445 0.0915998 0)
(-0.280886 0.0885062 0)
(-0.29786 0.0834015 0)
(-0.312415 0.0765632 0)
(-0.324645 0.068258 0)
(-0.334674 0.0587201 0)
(-0.342635 0.0481519 0)
(-0.348663 0.0367169 0)
(-0.352878 0.0245492 0)
(-0.355378 0.0117557 0)
(-0.356225 -0.00156904 0)
(-0.355434 -0.0153329 0)
(-0.352967 -0.0294245 0)
(-0.348721 -0.0436962 0)
(-0.342523 -0.0579364 0)
(-0.334131 -0.0718487 0)
(-0.32324 -0.0850259 0)
(-0.309512 -0.09694 0)
(-0.292612 -0.106943 0)
(-0.272289 -0.114301 0)
(-0.248457 -0.118264 0)
(-0.221309 -0.118178 0)
(-0.191399 -0.113629 0)
(-0.159707 -0.104598 0)
(-0.127575 -0.091572 0)
(-0.0965685 -0.075554 0)
(-0.068179 -0.0579189 0)
(-0.0435546 -0.0401474 0)
(-0.0232615 -0.0235205 0)
(-0.00736119 -0.00893661 0)
(0.00446294 0.00308715 0)
(0.0125784 0.0123212 0)
(0.0174402 0.0187396 0)
(0.0194293 0.0225038 0)
(0.0191228 0.0239725 0)
(0.0170018 0.0236321 0)
(0.0137942 0.0220152 0)
(0.00991668 0.0194758 0)
(0.00611687 0.0160991 0)
(0.00263398 0.0114737 0)
(0.000455679 0.00486908 0)
(0.000544457 -0.00702212 0)
(0.00234208 -0.0136725 0)
(0.00390555 -0.0143209 0)
(0.00379224 -0.0104639 0)
(0.00171301 -0.00414586 0)
(-0.0026857 0.00338372 0)
(-0.00945301 0.0112934 0)
(-0.0189397 0.0196075 0)
(-0.0315455 0.0286244 0)
(-0.0477769 0.0388528 0)
(-0.0678902 0.0504675 0)
(-0.0917302 0.0632363 0)
(-0.118561 0.0763806 0)
(-0.147197 0.0888482 0)
(-0.176268 0.09956 0)
(-0.204554 0.107734 0)
(-0.231152 0.112949 0)
(-0.255495 0.115128 0)
(-0.277279 0.11441 0)
(-0.296389 0.11107 0)
(-0.312839 0.105436 0)
(-0.326735 0.0978582 0)
(-0.338245 0.0886671 0)
(-0.347582 0.0781648 0)
(-0.354979 0.0666044 0)
(-0.360671 0.0541929 0)
(-0.364882 0.0410838 0)
(-0.36781 0.0273895 0)
(-0.369618 0.0131825 0)
(-0.370424 -0.00148629 0)
(-0.370299 -0.0165796 0)
(-0.369245 -0.0320508 0)
(-0.367197 -0.0478285 0)
(-0.363999 -0.0637862 0)
(-0.359394 -0.0797175 0)
(-0.35301 -0.0952993 0)
(-0.344368 -0.110065 0)
(-0.332889 -0.123378 0)
(-0.317957 -0.134436 0)
(-0.299005 -0.142307 0)
(-0.275654 -0.146021 0)
(-0.247876 -0.144722 0)
(-0.216168 -0.13788 0)
(-0.18165 -0.125509 0)
(-0.146051 -0.108334 0)
(-0.111474 -0.0877987 0)
(-0.0799928 -0.0658365 0)
(-0.0531263 -0.0444256 0)
(-0.031549 -0.0251189 0)
(-0.0150765 -0.00881007 0)
(-0.00312686 0.00417583 0)
(0.00501891 0.013848 0)
(0.00990321 0.0203832 0)
(0.0121198 0.0241121 0)
(0.0121156 0.0254599 0)
(0.0105721 0.0249467 0)
(0.00793837 0.0229153 0)
(0.00500961 0.0194897 0)
(0.00215389 0.0141733 0)
(0.00035538 0.00614104 0)
(0.00050531 -0.008317 0)
(0.00171396 -0.0150634 0)
(0.00193961 -0.0143777 0)
(-3.44637e-05 -0.00838727 0)
(-0.00446108 0.000308509 0)
(-0.0115877 0.0103907 0)
(-0.021586 0.0210883 0)
(-0.034869 0.0326228 0)
(-0.0518875 0.0453252 0)
(-0.0729164 0.0595176 0)
(-0.0977505 0.0748986 0)
(-0.125563 0.0906479 0)
(-0.155047 0.105506 0)
(-0.184727 0.118267 0)
(-0.213326 0.128023 0)
(-0.239911 0.134337 0)
(-0.263903 0.137127 0)
(-0.284995 0.136583 0)
(-0.303091 0.133033 0)
(-0.318243 0.126896 0)
(-0.330633 0.118603 0)
(-0.340518 0.108585 0)
(-0.348216 0.0972193 0)
(-0.354056 0.084833 0)
(-0.35837 0.0716785 0)
(-0.361457 0.057946 0)
(-0.363588 0.0437586 0)
(-0.364988 0.0291912 0)
(-0.365844 0.0142728 0)
(-0.366296 -0.000993444 0)
(-0.366447 -0.0166251 0)
(-0.366345 -0.0326393 0)
(-0.365986 -0.0490437 0)
(-0.365283 -0.0658082 0)
(-0.364059 -0.0828448 0)
(-0.362003 -0.0999664 0)
(-0.358654 -0.116851 0)
(-0.353371 -0.132991 0)
(-0.345347 -0.147661 0)
(-0.33365 -0.1599 0)
(-0.31734 -0.168549 0)
(-0.295644 -0.172358 0)
(-0.268216 -0.170184 0)
(-0.235389 -0.161282 0)
(-0.198401 -0.145625 0)
(-0.159401 -0.124164 0)
(-0.12119 -0.0988633 0)
(-0.0865766 -0.0723557 0)
(-0.0576286 -0.047257 0)
(-0.0350897 -0.0254346 0)
(-0.0185489 -0.00771611 0)
(-0.00696833 0.00586085 0)
(0.00061627 0.015607 0)
(0.00506289 0.0219636 0)
(0.00695099 0.0253751 0)
(0.00697172 0.0263482 0)
(0.00561169 0.0251861 0)
(0.0036581 0.0220043 0)
(0.00156989 0.0162537 0)
(0.000240472 0.00708836 0)
(0.000384214 -0.00927223 0)
(0.000650893 -0.0153121 0)
(-0.000925453 -0.0126379 0)
(-0.00515932 -0.00403353 0)
(-0.0123035 0.00744426 0)
(-0.0224948 0.0205178 0)
(-0.0360546 0.0345346 0)
(-0.0533481 0.0498355 0)
(-0.0746824 0.066569 0)
(-0.0998325 0.0845911 0)
(-0.12799 0.102957 0)
(-0.157757 0.120342 0)
(-0.187601 0.135322 0)
(-0.216135 0.146886 0)
(-0.242378 0.154488 0)
(-0.265687 0.158049 0)
(-0.285751 0.157769 0)
(-0.302475 0.154061 0)
(-0.31598 0.147427 0)
(-0.326524 0.13842 0)
(-0.334478 0.127568 0)
(-0.340252 0.115352 0)
(-0.344275 0.102165 0)
(-0.346939 0.0883204 0)
(-0.348599 0.0740345 0)
(-0.349544 0.0594543 0)
(-0.35002 0.0446563 0)
(-0.350216 0.0296723 0)
(-0.350287 0.0144918 0)
(-0.350351 -0.000916319 0)
(-0.35051 -0.0166043 0)
(-0.350831 -0.0326271 0)
(-0.351363 -0.0490419 0)
(-0.352107 -0.0658873 0)
(-0.353006 -0.0831739 0)
(-0.353905 -0.10085 0)
(-0.35451 -0.118769 0)
(-0.354333 -0.136633 0)
(-0.352651 -0.153935 0)
(-0.348473 -0.169887 0)
(-0.34058 -0.183392 0)
(-0.327629 -0.193048 0)
(-0.308391 -0.197271 0)
(-0.282081 -0.194538 0)
(-0.24877 -0.183771 0)
(-0.209727 -0.16481 0)
(-0.167556 -0.138818 0)
(-0.125848 -0.108383 0)
(-0.0883435 -0.0770344 0)
(-0.0577081 -0.048193 0)
(-0.0347733 -0.02406 0)
(-0.0186905 -0.00528657 0)
(-0.00801895 0.00848152 0)
(-0.00136951 0.0179454 0)
(0.00222284 0.0237432 0)
(0.00361657 0.0264639 0)
(0.00340479 0.026412 0)
(0.00236641 0.0236865 0)
(0.00102023 0.0177338 0)
(0.000137542 0.00774207 0)
(0.000152413 -0.00957585 0)
(-0.000907392 -0.0139184 0)
(-0.00471141 -0.00861343 0)
(-0.0115166 0.00301689 0)
(-0.0216376 0.0176366 0)
(-0.0350798 0.0340969 0)
(-0.0522823 0.0518431 0)
(-0.0733783 0.07114 0)
(-0.09833 0.0916934 0)
(-0.126277 0.112719 0)
(-0.155917 0.132708 0)
(-0.185579 0.15013 0)
(-0.213836 0.163732 0)
(-0.239556 0.172874 0)
(-0.262071 0.177393 0)
(-0.281 0.177531 0)
(-0.296297 0.173752 0)
(-0.308123 0.166689 0)
(-0.31685 0.157011 0)
(-0.322939 0.145381 0)
(-0.326918 0.132377 0)
(-0.32928 0.118476 0)
(-0.330482 0.104034 0)
(-0.33089 0.0893016 0)
(-0.330807 0.0744284 0)
(-0.330446 0.0594984 0)
(-0.329979 0.0445333 0)
(-0.329521 0.0295241 0)
(-0.329171 0.0144302 0)
(-0.328999 -0.000798973 0)
(-0.329082 -0.01623 0)
(-0.329484 -0.0319297 0)
(-0.330276 -0.047973 0)
(-0.331517 -0.0644286 0)
(-0.33325 -0.0813617 0)
(-0.33547 -0.0988117 0)
(-0.338092 -0.116777 0)
(-0.340884 -0.135164 0)
(-0.343411 -0.153736 0)
(-0.344934 -0.17202 0)
(-0.344367 -0.189216 0)
(-0.340252 -0.204111 0)
(-0.330872 -0.215058 0)
(-0.314491 -0.220085 0)
(-0.289804 -0.217176 0)
(-0.256491 -0.204789 0)
(-0.21578 -0.182517 0)
(-0.170719 -0.151735 0)
(-0.125832 -0.115806 0)
(-0.085899 -0.0794242 0)
(-0.0542578 -0.0469815 0)
(-0.0316029 -0.0209529 0)
(-0.0165757 -0.00163294 0)
(-0.00716934 0.0118698 0)
(-0.00176311 0.0205825 0)
(0.000908364 0.0253651 0)
(0.00168495 0.0266514 0)
(0.00140304 0.024578 0)
(0.000641519 0.0186497 0)
(7.76296e-05 0.00813207 0)
(-0.000204993 -0.00896882 0)
(-0.00294131 -0.010547 0)
(-0.00928207 -0.00206093 0)
(-0.0188222 0.0129001 0)
(-0.0320059 0.0309432 0)
(-0.0486554 0.0510666 0)
(-0.0692379 0.0726982 0)
(-0.0934625 0.0957744 0)
(-0.120846 0.11938 0)
(-0.149955 0.142121 0)
(-0.179261 0.162195 0)
(-0.2071 0.178183 0)
(-0.232329 0.189195 0)
(-0.254099 0.195004 0)
(-0.27206 0.195813 0)
(-0.286115 0.19218 0)
(-0.296537 0.184838 0)
(-0.303749 0.174617 0)
(-0.308352 0.162306 0)
(-0.310935 0.148608 0)
(-0.312088 0.134072 0)
(-0.312277 0.119109 0)
(-0.311899 0.10398 0)
(-0.311218 0.0888464 0)
(-0.310435 0.0737766 0)
(-0.309659 0.0587911 0)
(-0.308976 0.0438665 0)
(-0.308422 0.0289666 0)
(-0.308041 0.0140371 0)
(-0.307858 -0.00097453 0)
(-0.30792 -0.0161302 0)
(-0.308274 -0.0314876 0)
(-0.308992 -0.0471135 0)
(-0.31015 -0.0630731 0)
(-0.311842 -0.0794418 0)
(-0.314149 -0.0962925 0)
(-0.317135 -0.113697 0)
(-0.32079 -0.131698 0)
(-0.324984 -0.150275 0)
(-0.329366 -0.169269 0)
(-0.333265 -0.188286 0)
(-0.335567 -0.206549 0)
(-0.33467 -0.222771 0)
(-0.328522 -0.23507 0)
(-0.3149 -0.241038 0)
(-0.291913 -0.238073 0)
(-0.258773 -0.224026 0)
(-0.216594 -0.198155 0)
(-0.168908 -0.162084 0)
(-0.121285 -0.120216 0)
(-0.0796988 -0.0787343 0)
(-0.048005 -0.0431329 0)
(-0.0265088 -0.015923 0)
(-0.013066 0.0032548 0)
(-0.00526058 0.0158413 0)
(-0.00115691 0.0232055 0)
(0.00053622 0.0261279 0)
(0.000851006 0.0249184 0)
(0.000470744 0.019224 0)
(6.47329e-05 0.00840669 0)
(-0.000689748 -0.00712718 0)
(-0.00538091 -0.00484843 0)
(-0.0144293 0.00724729 0)
(-0.026718 0.0257302 0)
(-0.0428653 0.0473643 0)
(-0.0624254 0.0712219 0)
(-0.0857853 0.0965363 0)
(-0.11211 0.122703 0)
(-0.14052 0.148177 0)
(-0.169203 0.171156 0)
(-0.196674 0.189856 0)
(-0.221446 0.203184 0)
(-0.242726 0.210692 0)
(-0.259958 0.212567 0)
(-0.273153 0.209385 0)
(-0.282525 0.202022 0)
(-0.28866 0.191445 0)
(-0.292182 0.178615 0)
(-0.293821 0.16435 0)
(-0.294174 0.149301 0)
(-0.293781 0.133915 0)
(-0.292998 0.118484 0)
(-0.292102 0.103156 0)
(-0.291227 0.0879959 0)
(-0.290468 0.0729996 0)
(-0.289842 0.0581408 0)
(-0.289366 0.0433681 0)
(-0.289025 0.0286346 0)
(-0.288826 0.0138855 0)
(-0.288764 -0.00092328 0)
(-0.288871 -0.0158408 0)
(-0.289174 -0.0309083 0)
(-0.289737 -0.0461751 0)
(-0.290628 -0.0616895 0)
(-0.29195 -0.0775142 0)
(-0.29381 -0.0937191 0)
(-0.296335 -0.110394 0)
(-0.299633 -0.127634 0)
(-0.303776 -0.145537 0)
(-0.308721 -0.164153 0)
(-0.314228 -0.183419 0)
(-0.319708 -0.203028 0)
(-0.32409 -0.222257 0)
(-0.325675 -0.23976 0)
(-0.322154 -0.253408 0)
(-0.310836 -0.260317 0)
(-0.289254 -0.257186 0)
(-0.256108 -0.241151 0)
(-0.212409 -0.211068 0)
(-0.162265 -0.168983 0)
(-0.112495 -0.120727 0)
(-0.0703144 -0.074418 0)
(-0.0398069 -0.0365685 0)
(-0.0203394 -0.00922741 0)
(-0.00896785 0.00887863 0)
(-0.00289851 0.0197776 0)
(-0.000160477 0.024863 0)
(0.000676515 0.0248393 0)
(0.000500661 0.0196106 0)
(9.80899e-05 0.00866244 0)
(-0.00127178 -0.00384974 0)
(-0.00805607 0.00328673 0)
(-0.0197975 0.0192543 0)
(-0.0346672 0.0413029 0)
(-0.0534697 0.066517 0)
(-0.0753974 0.0938979 0)
(-0.100679 0.12232 0)
(-0.127922 0.150543 0)
(-0.156011 0.176537 0)
(-0.182972 0.198356 0)
(-0.207554 0.214486 0)
(-0.228526 0.224265 0)
(-0.245478 0.227717 0)
(-0.258172 0.22545 0)
(-0.267003 0.218416 0)
(-0.272468 0.207762 0)
(-0.275386 0.194603 0)
(-0.276459 0.179922 0)
(-0.276424 0.164461 0)
(-0.275773 0.148741 0)
(-0.274924 0.133062 0)
(-0.274078 0.117582 0)
(-0.273385 0.102338 0)
(-0.27286 0.0873196 0)
(-0.272523 0.0724757 0)
(-0.272323 0.0577551 0)
(-0.272247 0.0430988 0)
(-0.272247 0.0284633 0)
(-0.272319 0.0138039 0)
(-0.272444 -0.000909175 0)
(-0.272644 -0.0157087 0)
(-0.272934 -0.0306173 0)
(-0.273365 -0.045665 0)
(-0.27399 -0.0608785 0)
(-0.274896 -0.0762988 0)
(-0.276181 -0.0919749 0)
(-0.277977 -0.107981 0)
(-0.280426 -0.124415 0)
(-0.283689 -0.141407 0)
(-0.287893 -0.159102 0)
(-0.293093 -0.177636 0)
(-0.299144 -0.197044 0)
(-0.305563 -0.217121 0)
(-0.311317 -0.237197 0)
(-0.314656 -0.255854 0)
(-0.313036 -0.270696 0)
(-0.303342 -0.278273 0)
(-0.282546 -0.274498 0)
(-0.248885 -0.255668 0)
(-0.203364 -0.220311 0)
(-0.150893 -0.171204 0)
(-0.0998006 -0.116287 0)
(-0.0584931 -0.0659973 0)
(-0.0305735 -0.0273976 0)
(-0.0139468 -0.00132913 0)
(-0.00495202 0.0146509 0)
(-0.000755489 0.0227876 0)
(0.000697747 0.0244581 0)
(0.000652756 0.0199839 0)
(0.000160438 0.00902071 0)
(-0.00190982 0.00102026 0)
(-0.0107861 0.0138925 0)
(-0.025047 0.0338447 0)
(-0.0421826 0.0593725 0)
(-0.063159 0.0879759 0)
(-0.0867381 0.118409 0)
(-0.112971 0.149087 0)
(-0.139996 0.178164 0)
(-0.166651 0.20336 0)
(-0.190976 0.222833 0)
(-0.212071 0.2355 0)
(-0.228987 0.241179 0)
(-0.241726 0.240388 0)
(-0.250374 0.23415 0)
(-0.255672 0.223749 0)
(-0.258302 0.210499 0)
(-0.259191 0.195548 0)
(-0.258992 0.179781 0)
(-0.258344 0.16379 0)
(-0.257571 0.14792 0)
(-0.256946 0.13232 0)
(-0.25652 0.117026 0)
(-0.256346 0.101995 0)
(-0.256355 0.0871717 0)
(-0.256529 0.0724822 0)
(-0.256784 0.0578719 0)
(-0.2571 0.0432878 0)
(-0.257421 0.0286975 0)
(-0.257747 0.0140696 0)
(-0.258055 -0.000611745 0)
(-0.258366 -0.0153655 0)
(-0.258687 -0.0302004 0)
(-0.259062 -0.0451319 0)
(-0.259524 -0.0601705 0)
(-0.260143 -0.0753384 0)
(-0.260986 -0.0906617 0)
(-0.262162 -0.106189 0)
(-0.263792 -0.12199 0)
(-0.266042 -0.138178 0)
(-0.269092 -0.15491 0)
(-0.273137 -0.172388 0)
(-0.278302 -0.190832 0)
(-0.284552 -0.210381 0)
(-0.291487 -0.230935 0)
(-0.298118 -0.251854 0)
(-0.302613 -0.271616 0)
(-0.302189 -0.287443 0)
(-0.29331 -0.295226 0)
(-0.272436 -0.289921 0)
(-0.237458 -0.266985 0)
(-0.189617 -0.224776 0)
(-0.135035 -0.167516 0)
(-0.0838525 -0.106153 0)
(-0.0453005 -0.0536162 0)
(-0.0213355 -0.016358 0)
(-0.00808985 0.00694572 0)
(-0.0017099 0.0195098 0)
(0.000665454 0.0236702 0)
(0.000825108 0.0203612 0)
(0.000233046 0.00951267 0)
(-0.00253498 0.00745761 0)
(-0.0133289 0.0267526 0)
(-0.0297694 0.0506384 0)
(-0.0487175 0.0793962 0)
(-0.0712558 0.110985 0)
(-0.095692 0.143762 0)
(-0.121939 0.175681 0)
(-0.1478 0.204416 0)
(-0.172237 0.227686 0)
(-0.193423 0.243931 0)
(-0.210858 0.252597 0)
(-0.223893 0.254 0)
(-0.232941 0.249156 0)
(-0.238364 0.23945 0)
(-0.241158 0.2264 0)
(-0.242058 0.211354 0)
(-0.241979 0.195373 0)
(-0.241425 0.179161 0)
(-0.240888 0.163118 0)
(-0.240511 0.147412 0)
(-0.240441 0.132063 0)
(-0.240615 0.117019 0)
(-0.241028 0.102196 0)
(-0.241569 0.0875162 0)
(-0.242208 0.0729091 0)
(-0.242855 0.058328 0)
(-0.243497 0.0437344 0)
(-0.244081 0.0291099 0)
(-0.244615 0.0144372 0)
(-0.245077 -0.000287124 0)
(-0.245493 -0.0150703 0)
(-0.245865 -0.0299108 0)
(-0.246233 -0.0448135 0)
(-0.246616 -0.0597783 0)
(-0.24707 -0.074814 0)
(-0.247635 -0.0899305 0)
(-0.24839 -0.105153 0)
(-0.249417 -0.120523 0)
(-0.250846 -0.136115 0)
(-0.252831 -0.152051 0)
(-0.255589 -0.168518 0)
(-0.259347 -0.185777 0)
(-0.264322 -0.204132 0)
(-0.270562 -0.223848 0)
(-0.277756 -0.244913 0)
(-0.28492 -0.26671 0)
(-0.290099 -0.287498 0)
(-0.290206 -0.304007 0)
(-0.281251 -0.311215 0)
(-0.259245 -0.303018 0)
(-0.221932 -0.273999 0)
(-0.171255 -0.222918 0)
(-0.115101 -0.156537 0)
(-0.0657423 -0.0900265 0)
(-0.0321052 -0.0380895 0)
(-0.01305 -0.00445659 0)
(-0.00349653 0.0144353 0)
(0.00031404 0.0222354 0)
(0.000904712 0.0206816 0)
(0.000294547 0.0101429 0)
(-0.0030901 0.0153419 0)
(-0.0155052 0.0415827 0)
(-0.0336819 0.0692472 0)
(-0.0539143 0.100886 0)
(-0.0773503 0.134928 0)
(-0.101873 0.169236 0)
(-0.127331 0.201373 0)
(-0.151339 0.228706 0)
(-0.173103 0.249175 0)
(-0.190999 0.261619 0)
(-0.204943 0.266067 0)
(-0.214576 0.263331 0)
(-0.220682 0.254892 0)
(-0.223808 0.242399 0)
(-0.225081 0.227471 0)
(-0.225171 0.211361 0)
(-0.224892 0.194955 0)
(-0.224553 0.178734 0)
(-0.224497 0.16291 0)
(-0.224711 0.147499 0)
(-0.225257 0.132435 0)
(-0.226 0.117615 0)
(-0.226918 0.102942 0)
(-0.227883 0.088339 0)
(-0.228876 0.07375 0)
(-0.229809 0.0591418 0)
(-0.230687 0.0444921 0)
(-0.231459 0.0297951 0)
(-0.232146 0.0150456 0)
(-0.232727 0.000249232 0)
(-0.233233 -0.0145928 0)
(-0.233662 -0.0294725 0)
(-0.234055 -0.0443886 0)
(-0.234422 -0.0593355 0)
(-0.23481 -0.0743153 0)
(-0.235242 -0.0893292 0)
(-0.235774 -0.104388 0)
(-0.23645 -0.119513 0)
(-0.23736 -0.134744 0)
(-0.238605 -0.150159 0)
(-0.240354 -0.165889 0)
(-0.242823 -0.182155 0)
(-0.246293 -0.199269 0)
(-0.251038 -0.217643 0)
(-0.257202 -0.23764 0)
(-0.264528 -0.259367 0)
(-0.272002 -0.282131 0)
(-0.277465 -0.303894 0)
(-0.277427 -0.320591 0)
(-0.2674 -0.326085 0)
(-0.243007 -0.312942 0)
(-0.202252 -0.275185 0)
(-0.148401 -0.21291 0)
(-0.0919666 -0.13732 0)
(-0.0471434 -0.0687527 0)
(-0.0203257 -0.0209593 0)
(-0.0064842 0.00671649 0)
(-0.000548358 0.0197084 0)
(0.000813928 0.0207371 0)
(0.00033243 0.0108379 0)
(-0.00350961 0.0243879 0)
(-0.0171268 0.0579086 0)
(-0.0365104 0.089086 0)
(-0.0574555 0.123137 0)
(-0.0811294 0.158977 0)
(-0.105062 0.193953 0)
(-0.129118 0.225362 0)
(-0.150853 0.250445 0)
(-0.169791 0.267525 0)
(-0.184538 0.275912 0)
(-0.195412 0.276235 0)
(-0.202306 0.269768 0)
(-0.206295 0.258377 0)
(-0.207998 0.243842 0)
(-0.208561 0.227754 0)
(-0.208505 0.211172 0)
(-0.2085 0.194763 0)
(-0.208663 0.178782 0)
(-0.209215 0.163284 0)
(-0.21003 0.148179 0)
(-0.211129 0.13335 0)
(-0.212342 0.118677 0)
(-0.213654 0.104071 0)
(-0.214937 0.0894673 0)
(-0.216191 0.0748276 0)
(-0.217335 0.0601338 0)
(-0.218386 0.0453783 0)
(-0.219299 0.0305658 0)
(-0.220103 0.0157016 0)
(-0.220777 0.000798539 0)
(-0.221356 -0.014135 0)
(-0.221836 -0.0290863 0)
(-0.222258 -0.044049 0)
(-0.22263 -0.0590148 0)
(-0.222993 -0.0739821 0)
(-0.223362 -0.0889492 0)
(-0.223779 -0.103921 0)
(-0.224267 -0.118906 0)
(-0.224883 -0.133925 0)
(-0.22568 -0.149023 0)
(-0.226769 -0.164274 0)
(-0.228301 -0.179834 0)
(-0.23052 -0.195944 0)
(-0.233735 -0.213006 0)
(-0.238292 -0.231509 0)
(-0.2444 -0.25198 0)
(-0.25183 -0.274544 0)
(-0.259461 -0.298423 0)
(-0.264811 -0.320972 0)
(-0.263878 -0.3371 0)
(-0.251589 -0.33907 0)
(-0.223435 -0.31812 0)
(-0.178158 -0.268233 0)
(-0.121475 -0.192765 0)
(-0.0671999 -0.110017 0)
(-0.030241 -0.0443489 0)
(-0.0109144 -0.00454424 0)
(-0.00203094 0.0155433 0)
(0.000519062 0.0202821 0)
(0.000341242 0.0115175 0)
(-0.00376046 0.0342493 0)
(-0.0181114 0.0752642 0)
(-0.0381535 0.109667 0)
(-0.059261 0.145645 0)
(-0.0825815 0.182635 0)
(-0.10539 0.217494 0)
(-0.127635 0.247406 0)
(-0.146918 0.269638 0)
(-0.163102 0.283017 0)
(-0.175031 0.287349 0)
(-0.18338 0.283855 0)
(-0.188235 0.274204 0)
(-0.190859 0.260538 0)
(-0.191841 0.244631 0)
(-0.192262 0.227946 0)
(-0.192452 0.211288 0)
(-0.192938 0.195104 0)
(-0.193674 0.17945 0)
(-0.194802 0.164272 0)
(-0.196126 0.14941 0)
(-0.197659 0.134737 0)
(-0.19922 0.120131 0)
(-0.200816 0.105524 0)
(-0.202324 0.0908645 0)
(-0.203763 0.0761342 0)
(-0.205058 0.0613254 0)
(-0.206239 0.0464435 0)
(-0.20726 0.0315002 0)
(-0.208156 0.0165094 0)
(-0.208905 0.00148895 0)
(-0.209547 -0.0135468 0)
(-0.210074 -0.0285818 0)
(-0.21053 -0.0436059 0)
(-0.210918 -0.0586095 0)
(-0.21128 -0.0735892 0)
(-0.211628 -0.0885441 0)
(-0.211998 -0.103477 0)
(-0.212402 -0.118396 0)
(-0.212878 -0.13331 0)
(-0.213447 -0.148247 0)
(-0.214171 -0.163239 0)
(-0.215132 -0.178384 0)
(-0.216498 -0.19383 0)
(-0.218516 -0.209893 0)
(-0.221552 -0.227019 0)
(-0.226007 -0.245875 0)
(-0.232146 -0.267055 0)
(-0.239707 -0.290773 0)
(-0.24734 -0.315854 0)
(-0.252106 -0.33886 0)
(-0.249301 -0.35304 0)
(-0.233368 -0.348808 0)
(-0.199911 -0.316066 0)
(-0.149544 -0.250276 0)
(-0.091474 -0.161293 0)
(-0.0435328 -0.076778 0)
(-0.0167939 -0.0204477 0)
(-0.00425289 0.00909928 0)
(3.72073e-05 0.0190037 0)
(0.000316886 0.0120833 0)
(-0.00381288 0.0444896 0)
(-0.0183893 0.0930717 0)
(-0.0385402 0.130373 0)
(-0.0592985 0.167755 0)
(-0.0817628 0.205245 0)
(-0.103059 0.239297 0)
(-0.123268 0.267121 0)
(-0.14011 0.286139 0)
(-0.153776 0.295746 0)
(-0.163329 0.296244 0)
(-0.169739 0.289402 0)
(-0.173209 0.277188 0)
(-0.175084 0.261898 0)
(-0.175852 0.245184 0)
(-0.176479 0.228313 0)
(-0.177106 0.211824 0)
(-0.178136 0.195966 0)
(-0.179408 0.180641 0)
(-0.181019 0.165728 0)
(-0.18274 0.151032 0)
(-0.184598 0.136437 0)
(-0.186414 0.121832 0)
(-0.188218 0.107169 0)
(-0.189893 0.0924128 0)
(-0.191476 0.0775592 0)
(-0.192892 0.0626091 0)
(-0.19418 0.0475781 0)
(-0.195294 0.0324834 0)
(-0.196271 0.0173464 0)
(-0.197089 0.00218947 0)
(-0.197787 -0.0129671 0)
(-0.198357 -0.0281039 0)
(-0.198842 -0.0432065 0)
(-0.199245 -0.0582641 0)
(-0.199609 -0.0732712 0)
(-0.199942 -0.0882288 0)
(-0.200284 -0.103139 0)
(-0.200642 -0.118016 0)
(-0.201047 -0.132864 0)
(-0.201504 -0.147708 0)
(-0.202048 -0.16256 0)
(-0.202707 -0.177481 0)
(-0.203577 -0.19254 0)
(-0.20481 -0.207952 0)
(-0.206697 -0.224036 0)
(-0.209642 -0.241419 0)
(-0.21412 -0.26084 0)
(-0.220417 -0.283121 0)
(-0.228139 -0.308275 0)
(-0.235574 -0.33464 0)
(-0.239053 -0.357245 0)
(-0.233151 -0.367265 0)
(-0.211844 -0.352751 0)
(-0.1718 -0.303178 0)
(-0.116643 -0.21838 0)
(-0.0608877 -0.119468 0)
(-0.0241769 -0.0426825 0)
(-0.007331 -0.000164354 0)
(-0.000641204 0.0165206 0)
(0.000270957 0.0124703 0)
(-0.00367293 0.0546872 0)
(-0.0179906 0.110851 0)
(-0.0377485 0.15078 0)
(-0.0577272 0.189115 0)
(-0.0789482 0.226573 0)
(-0.0984918 0.259306 0)
(-0.116593 0.284673 0)
(-0.131135 0.300342 0)
(-0.142602 0.306302 0)
(-0.150248 0.303324 0)
(-0.155254 0.293659 0)
(-0.157869 0.279466 0)
(-0.159436 0.263084 0)
(-0.1603 0.245964 0)
(-0.161294 0.22915 0)
(-0.162398 0.212927 0)
(-0.163924 0.197391 0)
(-0.165634 0.182331 0)
(-0.167613 0.167599 0)
(-0.169623 0.152989 0)
(-0.17171 0.138405 0)
(-0.173707 0.123749 0)
(-0.17566 0.108997 0)
(-0.17746 0.0941192 0)
(-0.179155 0.0791269 0)
(-0.180671 0.0640251 0)
(-0.18205 0.0488377 0)
(-0.183245 0.0335854 0)
(-0.184298 0.0182965 0)
(-0.18518 0.00299665 0)
(-0.185935 -0.0122881 0)
(-0.18655 -0.0275356 0)
(-0.187071 -0.0427271 0)
(-0.187497 -0.0578509 0)
(-0.187873 -0.072899 0)
(-0.188206 -0.0878745 0)
(-0.188537 -0.10278 0)
(-0.188873 -0.117634 0)
(-0.189244 -0.132442 0)
(-0.189651 -0.147237 0)
(-0.190116 -0.162019 0)
(-0.190639 -0.176837 0)
(-0.191264 -0.191706 0)
(-0.192061 -0.206768 0)
(-0.193216 -0.222195 0)
(-0.195039 -0.238482 0)
(-0.19801 -0.256293 0)
(-0.202663 -0.276695 0)
(-0.209245 -0.300459 0)