/*--------------------------------*- C++ -*----------------------------------*\
| =========                 |                                                 |
| \\      /  F ield         | OpenFOAM: The Open Source CFD Toolbox           |
|  \\    /   O peration     | Version:  2406                                  |
|   \\  /    A nd           | Website:  www.openfoam.com                      |
|    \\/     M anipulation  |                                                 |
\*---------------------------------------------------------------------------*/
FoamFile
{
    version     2.0;
    format      ascii;
    arch        "LSB;label=32;scalar=64";
    class       volScalarField;
    location    "48.8";
    object      p;
}
// * * * * * * * * * * * * * * * * * * * * * * * * * * * * * * * * * * * * * //

dimensions      [0 2 -2 0 0 0 0];

internalField   nonuniform List<scalar> 
900
(
4.25835e-06
7.15807e-05
-9.8132e-05
-0.000232992
-0.000431868
-0.000602807
-0.000853902
-0.00118995
-0.00177032
-0.00254706
-0.00323897
-0.00359465
-0.00362537
-0.00355543
-0.00339614
-0.00287481
-0.00176111
0.000124015
0.00265551
0.00566
0.00843054
0.0105444
0.0109553
0.00992584
0.00732955
0.00527219
0.0038007
0.00371492
0.00337354
0.00358682
-4.07437e-05
2.58035e-05
-0.000138771
-0.000241228
-0.00039457
-0.000512598
-0.00072014
-0.00100335
-0.00131878
-0.0017381
-0.00251892
-0.00336611
-0.00389204
-0.00419542
-0.00429052
-0.00394341
-0.00296687
-0.00120736
0.0012038
0.00410298
0.0068178
0.0089294
0.0094208
0.00850273
0.00606066
0.00425848
0.00312782
0.00349033
0.00337784
0.00368866
1.11833e-05
3.78253e-05
-0.000177747
-0.000301254
-0.000424416
-0.000511425
-0.000643494
-0.000877518
-0.0015763
-0.0027248
-0.0040682
-0.00543306
-0.00660027
-0.00746938
-0.00791524
-0.00775546
-0.00688137
-0.00518764
-0.0028156
0.000119623
0.00302704
0.00553989
0.00670384
0.00652243
0.00475713
0.00329668
0.00223851
0.0027858
0.00272897
0.00305773
0.000199417
0.000140075
-0.00011725
-0.000244791
-0.000323304
-0.000412506
-0.000798805
-0.00164893
-0.00298726
-0.00483011
-0.00698328
-0.00909232
-0.0108741
-0.0122078
-0.0129977
-0.0131173
-0.0125255
-0.011124
-0.00905223
-0.00630615
-0.00336387
-0.00038371
0.00179894
0.00308109
0.00304263
0.00264726
0.00229338
0.00270057
0.00246506
0.00274753
0.000484159
0.000283651
-3.17954e-05
-0.00022451
-0.000409704
-0.000891107
-0.00191979
-0.00367592
-0.0061018
-0.00890221
-0.0117206
-0.0142976
-0.0164213
-0.0179909
-0.0189546
-0.0192362
-0.0188632
-0.0177347
-0.0160138
-0.013567
-0.0108008
-0.00758017
-0.00461873
-0.00184276
8.12775e-05
0.00144438
0.00208211
0.0026949
0.00204574
0.00225782
0.00115649
0.000816981
0.000459606
5.14162e-05
-0.000557813
-0.0018072
-0.00389578
-0.00677608
-0.0100967
-0.0135195
-0.0167127
-0.0194695
-0.0216702
-0.0232664
-0.0242725
-0.0246353
-0.0244435
-0.0235701
-0.0222291
-0.0201683
-0.0178066
-0.0147233
-0.011584
-0.00791765
-0.00447901
-0.00118845
0.00104172
0.00279169
0.00153692
0.00194203
0.00192319
0.00144038
0.000968783
0.000129225
-0.00121336
-0.00356268
-0.00679638
-0.0106384
-0.0145817
-0.0183011
-0.0215489
-0.0242313
-0.0263206
-0.0278074
-0.028758
-0.0291125
-0.0290114
-0.0282821
-0.0272072
-0.0254309
-0.0234586
-0.0206474
-0.0177484
-0.013865
-0.00983951
-0.0054092
-0.00103435
0.000959785
0.00159581
0.00104823
0.00283987
0.00223786
0.00152943
2.21338e-05
-0.00232157
-0.00583736
-0.0100628
-0.0145425
-0.0187708
-0.0225276
-0.0256782
-0.0282154
-0.0301845
-0.0315828
-0.0325173
-0.0328907
-0.0328932
-0.0322809
-0.0314147
-0.0298232
-0.0281375
-0.0255317
-0.0229471
-0.0191305
-0.0151863
-0.010086
-0.00461106
-0.0013954
0.00219195
-0.000292232
0.00317087
0.00245576
0.0014201
-0.000830663
-0.00415476
-0.00865367
-0.0135484
-0.0183473
-0.0226111
-0.0262485
-0.0292228
-0.0315909
-0.0334399
-0.0347548
-0.0356758
-0.036056
-0.0361436
-0.0356108
-0.0349129
-0.0334493
-0.031995
-0.0295395
-0.0272497
-0.0235926
-0.0200051
-0.0147792
-0.00927758
-0.00403133
-0.000175265
-0.0012219
0.0029124
0.00210586
0.000683244
-0.00225568
-0.00640171
-0.0115592
-0.0167921
-0.0216418
-0.025795
-0.0292552
-0.0320667
-0.0343036
-0.0360826
-0.0373542
-0.0382964
-0.0386985
-0.0388782
-0.0384098
-0.0378573
-0.0364783
-0.0352089
-0.0328502
-0.0308096
-0.0272989
-0.0241023
-0.0190136
-0.0136826
-0.00733067
-0.00219905
-0.000297301
0.00173675
0.000868398
-0.000882163
-0.00433689
-0.00902695
-0.0145385
-0.0198498
-0.0245963
-0.0285629
-0.0318272
-0.0344834
-0.0366007
-0.0383192
-0.0395462
-0.0405061
-0.0409159
-0.0411772
-0.0407529
-0.0403319
-0.0390138
-0.0379077
-0.0356111
-0.0337741
-0.0303668
-0.0275238
-0.0226289
-0.0176597
-0.0107065
-0.00354919
0.000107233
4.30987e-05
-0.000847475
-0.00286872
-0.00662188
-0.0115944
-0.0171683
-0.0223727
-0.0269119
-0.0306741
-0.0337562
-0.0362971
-0.0383267
-0.0400196
-0.0412214
-0.0422187
-0.042641
-0.0429895
-0.0426026
-0.0423107
-0.0410446
-0.0401015
-0.0378659
-0.0362306
-0.0329226
-0.0304155
-0.0258078
-0.0214881
-0.0147373
-0.00720059
-0.00262452
-0.00206703
-0.00294673
-0.00513267
-0.00902175
-0.0140746
-0.0195731
-0.0245933
-0.0289141
-0.0324798
-0.0353972
-0.0378348
-0.0397771
-0.0414425
-0.0426053
-0.0436297
-0.0440433
-0.0444637
-0.0440879
-0.0439052
-0.0426633
-0.0418628
-0.0396665
-0.038218
-0.0349927
-0.0327932
-0.0284514
-0.0248464
-0.0187262
-0.0118978
-0.00730311
-0.00410655
-0.00493819
-0.00723231
-0.0110928
-0.0160851
-0.0213716
-0.0261656
-0.0302511
-0.0336494
-0.0364272
-0.0388002
-0.0406804
-0.0423501
-0.0434918
-0.044566
-0.0449794
-0.0454829
-0.045117
-0.0450445
-0.0438205
-0.0431594
-0.0409988
-0.0397358
-0.0365962
-0.0346989
-0.0306273
-0.027745
-0.0223671
-0.0167137
-0.0124056
-0.00598355
-0.00675821
-0.00908897
-0.0128737
-0.0177407
-0.0228319
-0.0274313
-0.031338
-0.0346067
-0.0372713
-0.039592
-0.0414074
-0.0430788
-0.0441827
-0.0452956
-0.0456836
-0.046251
-0.0458625
-0.0458721
-0.0446287
-0.0440734
-0.0419118
-0.0408023
-0.037711
-0.0360718
-0.0321962
-0.0299384
-0.0252685
-0.0209178
-0.0170872
-0.00738266
-0.00806584
-0.010409
-0.0140237
-0.0187309
-0.0235722
-0.0279978
-0.0317311
-0.0349125
-0.0374885
-0.0397975
-0.0415741
-0.0432825
-0.0443699
-0.0455482
-0.0459229
-0.0465683
-0.046159
-0.0462513
-0.0449804
-0.0445199
-0.0423419
-0.0413688
-0.0383065
-0.0369066
-0.0331753
-0.0314525
-0.0273022
-0.0241202
-0.0207299
-0.00842323
-0.00901922
-0.0113048
-0.0147673
-0.019297
-0.0239669
-0.0282774
-0.0319177
-0.0350598
-0.037578
-0.0398927
-0.0416275
-0.0433737
-0.0444262
-0.04566
-0.045994
-0.0466966
-0.0462308
-0.046373
-0.045031
-0.0446204
-0.0423725
-0.0414797
-0.0383767
-0.0371457
-0.0334549
-0.0321548
-0.0283547
-0.0262021
-0.0231669
-0.00895455
-0.00940577
-0.0116012
-0.0148106
-0.0191588
-0.0235943
-0.0278178
-0.0313579
-0.0345051
-0.0369885
-0.0393543
-0.0410763
-0.0428992
-0.0439412
-0.0452581
-0.0455661
-0.0463395
-0.0458213
-0.0460126
-0.0445921
-0.0442164
-0.0418777
-0.0410383
-0.0378565
-0.0367601
-0.0330318
-0.0320765
-0.0284199
-0.027128
-0.0243037
-0.00930277
-0.00960714
-0.0115838
-0.0145526
-0.0186463
-0.022917
-0.0270802
-0.0306002
-0.0338014
-0.0362846
-0.0387281
-0.0404359
-0.0423438
-0.0433575
-0.0447537
-0.0450098
-0.0458378
-0.0452332
-0.0454426
-0.0438985
-0.0435093
-0.0410167
-0.0401615
-0.0368107
-0.0357629
-0.031877
-0.0311807
-0.0274929
-0.0269592
-0.0241855
-0.00928773
-0.00935081
-0.0110735
-0.0136324
-0.0174675
-0.0214385
-0.0255534
-0.0290121
-0.0323122
-0.0348198
-0.0373963
-0.0391292
-0.0411663
-0.0421838
-0.0436863
-0.0439107
-0.0448034
-0.0441206
-0.0443434
-0.0426701
-0.0422483
-0.0395779
-0.0386722
-0.035104
-0.0340592
-0.0299315
-0.0294455
-0.0255587
-0.0257287
-0.0228305
-0.00932428
-0.00916676
-0.0104981
-0.0126539
-0.0160351
-0.0197304
-0.0237352
-0.027188
-0.0306266
-0.0331986
-0.0359551
-0.0377222
-0.0399176
-0.0409292
-0.042552
-0.0427257
-0.043684
-0.0428952
-0.0431158
-0.0412717
-0.0407787
-0.0378656
-0.0368406
-0.0329567
-0.0318229
-0.027323
-0.0269797
-0.0227122
-0.0235578
-0.0203039
-0.00888484
-0.00843563
-0.00951142
-0.0110317
-0.0140076
-0.0171805
-0.0210749
-0.0244248
-0.0280462
-0.030713
-0.0337218
-0.0355869
-0.0379963
-0.039055
-0.0408247
-0.0409827
-0.0420088
-0.041132
-0.0413343
-0.0393184
-0.0387208
-0.0355381
-0.0343403
-0.0300826
-0.0287933
-0.0238342
-0.0235962
-0.018804
-0.0203879
-0.0165287
-0.00861837
-0.00812766
-0.00878809
-0.00977479
-0.0119312
-0.0145607
-0.0181155
-0.0213593
-0.0251656
-0.0279657
-0.0313078
-0.0333064
-0.036005
-0.0371231
-0.0390951
-0.0392296
-0.0403631
-0.0393747
-0.0395828
-0.0373546
-0.0366532
-0.0331387
-0.0317339
-0.0270137
-0.0255029
-0.0199626
-0.0197681
-0.0142338
-0.0165081
-0.0115694
-0.00778202
-0.00725849
-0.00768845
-0.00784951
-0.00936245
-0.0110632
-0.0143132
-0.0172831
-0.0213115
-0.0242699
-0.0280215
-0.0302469
-0.0332979
-0.0345653
-0.0367611
-0.0369413
-0.038165
-0.0371144
-0.0372812
-0.0348668
-0.033988
-0.0301326
-0.0284217
-0.0231796
-0.0213265
-0.0150959
-0.0148431
-0.00839349
-0.0114338
-0.00488977
-0.00748612
-0.00751841
-0.00728943
-0.00698734
-0.00702545
-0.00783851
-0.0103092
-0.0129515
-0.0171178
-0.0202448
-0.0245001
-0.0270067
-0.0305399
-0.0319946
-0.0345346
-0.0347586
-0.0361854
-0.0350325
-0.0352746
-0.0326076
-0.0316776
-0.0274057
-0.0255194
-0.0196913
-0.0176011
-0.0106155
-0.0102644
-0.00266371
-0.00598146
0.00356632
-0.0067805
-0.00653675
-0.00632089
-0.00483292
-0.00415547
-0.00361976
-0.00562829
-0.00778061
-0.0121382
-0.0154335
-0.0202024
-0.0230699
-0.0270908
-0.0288439
-0.0317048
-0.0320937
-0.0336568
-0.0325324
-0.0327348
-0.0299543
-0.0288053
-0.0242429
-0.0219518
-0.0155847
-0.0129439
-0.0050545
-0.00411888
0.00507377
0.00214967
0.0160736
-0.0059485
-0.00748069
-0.00623576
-0.00453241
-0.0017602
-0.000297416
-0.00116174
-0.00289992
-0.00728133
-0.0107319
-0.0160499
-0.0192937
-0.0239133
-0.0259751
-0.0293092
-0.0298231
-0.0317262
-0.030521
-0.0309781
-0.0279107
-0.0269866
-0.0219296
-0.0198782
-0.012799
-0.0103532
-0.00140739
-0.000119561
0.0110436
0.0104273
0.0342337
-0.00655331
-0.00578471
-0.00519103
-0.000973129
0.0017058
0.00430895
0.00340036
0.00201248
-0.00256897
-0.00616901
-0.0118771
-0.0154769
-0.0205167
-0.0229309
-0.0265853
-0.0273601
-0.0294396
-0.0284016
-0.0288813
-0.0259143
-0.0248318
-0.0198048
-0.0173062
-0.0100332
-0.006538
0.00342039
0.00730063
0.0221593
0.0310953
0.0696928
-0.000659424
-0.00719733
-0.00512874
-0.00209398
0.00336826
0.00639951
0.0065856
0.0052399
0.000683211
-0.00309575
-0.00917925
-0.013066
-0.0185467
-0.0212086
-0.0252622
-0.0261486
-0.028599
-0.0274936
-0.0283953
-0.0251454
-0.0246589
-0.0190651
-0.0174767
-0.00919777
-0.00684363
0.00517561
0.00940759
0.0314466
0.0510203
0.11771
-0.0214975
-0.00396522
-0.000315556
0.00383444
0.0073461
0.00985411
0.00861472
0.00702582
0.00218751
-0.00164453
-0.00772243
-0.0116831
-0.0171709
-0.0199512
-0.0240436
-0.0250678
-0.0275458
-0.0265968
-0.0274559
-0.0244169
-0.0236983
-0.0184181
-0.0160441
-0.00800336
-0.0028415
0.01104
0.0268759
0.0651749
0.128533
0.243285
)
;

boundaryField
{
    movingWall
    {
        type            zeroGradient;
    }
    fixedWalls
    {
        type            zeroGradient;
    }
    frontAndBack
    {
        type            empty;
    }
}


// ************************************************************************* //
