/*--------------------------------*- C++ -*----------------------------------*\
| =========                 |                                                 |
| \\      /  F ield         | OpenFOAM: The Open Source CFD Toolbox           |
|  \\    /   O peration     | Version:  2406                                  |
|   \\  /    A nd           | Website:  www.openfoam.com                      |
|    \\/     M anipulation  |                                                 |
\*---------------------------------------------------------------------------*/
FoamFile
{
    version     2.0;
    format      ascii;
    arch        "LSB;label=32;scalar=64";
    class       volScalarField;
    location    "11.3";
    object      p;
}
// * * * * * * * * * * * * * * * * * * * * * * * * * * * * * * * * * * * * * //

dimensions      [0 2 -2 0 0 0 0];

internalField   nonuniform List<scalar> 
3600
(
0.0153524
0.0153472
0.0153416
0.0153325
0.0153266
0.0153192
0.0153149
0.0153097
0.015307
0.0153037
0.0153026
0.0153019
0.0153036
0.0153065
0.0153125
0.0153208
0.0153328
0.0153481
0.0153678
0.0153917
0.0154204
0.0154539
0.0154924
0.0155358
0.0155841
0.0156369
0.0156938
0.0157541
0.0158172
0.0158822
0.015948
0.0160135
0.0160774
0.0161386
0.0161959
0.016248
0.0162942
0.0163334
0.0163653
0.0163895
0.0164059
0.0164148
0.0164166
0.0164122
0.0164021
0.0163876
0.0163694
0.0163489
0.0163265
0.0163039
0.016281
0.0162598
0.0162395
0.0162225
0.0162071
0.0161965
0.0161878
0.0161849
0.0161831
0.0161861
0.0153573
0.0153518
0.0153485
0.0153411
0.0153372
0.0153308
0.0153274
0.0153224
0.01532
0.0153167
0.0153157
0.0153149
0.0153165
0.0153194
0.0153252
0.0153332
0.0153448
0.0153597
0.0153787
0.0154017
0.0154295
0.0154617
0.0154989
0.0155407
0.0155873
0.0156382
0.0156931
0.0157514
0.0158125
0.0158754
0.0159391
0.0160027
0.0160648
0.0161245
0.0161804
0.0162315
0.0162768
0.0163156
0.0163473
0.0163717
0.0163886
0.0163983
0.0164011
0.0163979
0.0163892
0.0163762
0.0163596
0.0163408
0.0163202
0.0162993
0.0162782
0.0162587
0.0162399
0.0162243
0.0162101
0.0162003
0.0161918
0.0161888
0.0161859
0.0161891
0.0153638
0.0153551
0.015352
0.0153437
0.0153404
0.0153337
0.0153307
0.0153255
0.015323
0.0153193
0.015318
0.0153166
0.0153178
0.0153199
0.0153251
0.0153324
0.0153434
0.0153575
0.0153758
0.0153981
0.0154252
0.0154568
0.0154935
0.0155349
0.0155812
0.0156319
0.0156868
0.0157453
0.0158067
0.0158702
0.0159346
0.015999
0.0160621
0.0161227
0.0161795
0.0162316
0.0162777
0.0163172
0.0163494
0.016374
0.0163909
0.0164005
0.0164029
0.0163993
0.01639
0.0163764
0.0163592
0.0163398
0.0163186
0.0162973
0.0162757
0.016256
0.016237
0.0162214
0.016207
0.0161973
0.0161886
0.016186
0.0161831
0.0161874
0.0153729
0.0153608
0.0153586
0.0153498
0.0153478
0.0153412
0.0153389
0.0153335
0.0153311
0.0153269
0.0153251
0.015323
0.0153233
0.0153245
0.0153287
0.0153349
0.0153446
0.0153574
0.0153744
0.0153953
0.015421
0.0154513
0.0154866
0.0155268
0.0155719
0.0156217
0.0156758
0.0157337
0.0157948
0.0158581
0.0159228
0.0159876
0.0160513
0.0161127
0.0161705
0.0162235
0.0162706
0.016311
0.0163439
0.0163691
0.0163864
0.0163962
0.0163988
0.016395
0.0163856
0.0163719
0.0163544
0.0163349
0.0163136
0.0162923
0.0162709
0.0162514
0.0162326
0.0162174
0.0162032
0.0161939
0.0161851
0.0161827
0.0161795
0.0161846
0.0153789
0.0153628
0.0153606
0.0153502
0.0153486
0.0153413
0.0153391
0.015333
0.0153302
0.0153251
0.0153225
0.0153191
0.0153183
0.015318
0.0153208
0.0153254
0.0153336
0.0153448
0.0153604
0.0153799
0.0154044
0.0154336
0.0154681
0.0155077
0.0155527
0.0156026
0.0156573
0.0157162
0.0157786
0.0158437
0.0159105
0.0159777
0.0160441
0.0161083
0.0161688
0.0162245
0.0162739
0.0163163
0.0163507
0.0163768
0.0163945
0.0164041
0.016406
0.0164011
0.0163903
0.0163749
0.0163557
0.0163344
0.0163114
0.0162886
0.0162658
0.0162452
0.0162254
0.0162095
0.0161946
0.016185
0.0161759
0.0161736
0.0161704
0.0161761
0.0153833
0.0153637
0.0153619
0.0153503
0.0153494
0.0153416
0.0153396
0.0153328
0.0153295
0.0153232
0.0153196
0.0153147
0.0153124
0.0153104
0.0153113
0.0153139
0.0153202
0.0153294
0.015343
0.0153606
0.0153833
0.0154109
0.0154441
0.0154826
0.0155268
0.0155763
0.0156312
0.0156906
0.0157542
0.0158209
0.0158898
0.0159596
0.0160289
0.0160962
0.01616
0.0162187
0.0162711
0.016316
0.0163525
0.0163802
0.0163987
0.0164085
0.0164099
0.0164042
0.016392
0.0163751
0.0163542
0.0163312
0.0163066
0.0162825
0.0162583
0.0162367
0.0162161
0.0161995
0.0161841
0.0161742
0.0161647
0.0161624
0.016159
0.016165
0.0153813
0.0153582
0.0153566
0.0153434
0.0153427
0.0153338
0.0153316
0.0153235
0.0153194
0.0153117
0.0153066
0.0152999
0.0152958
0.0152916
0.0152904
0.0152908
0.0152948
0.0153018
0.0153133
0.015329
0.0153499
0.0153761
0.0154082
0.015446
0.01549
0.0155399
0.0155956
0.0156566
0.0157224
0.015792
0.0158644
0.0159383
0.016012
0.0160841
0.0161527
0.0162162
0.0162729
0.0163215
0.016361
0.0163907
0.0164103
0.0164203
0.0164209
0.0164136
0.0163993
0.0163798
0.0163561
0.0163303
0.0163029
0.0162762
0.0162498
0.0162262
0.0162038
0.0161859
0.0161693
0.0161586
0.0161484
0.016146
0.0161424
0.0161488
0.0153743
0.0153482
0.0153469
0.0153324
0.0153321
0.0153222
0.0153197
0.0153105
0.0153054
0.015296
0.0152894
0.0152806
0.0152744
0.0152678
0.0152642
0.015262
0.0152635
0.0152679
0.0152769
0.0152902
0.0153091
0.0153333
0.0153638
0.0154005
0.0154438
0.0154936
0.0155498
0.0156121
0.0156799
0.0157523
0.0158284
0.0159066
0.0159853
0.0160628
0.0161371
0.0162062
0.0162682
0.0163217
0.0163651
0.0163978
0.0164192
0.0164298
0.01643
0.0164213
0.0164047
0.0163825
0.0163558
0.016327
0.0162966
0.0162672
0.0162383
0.0162127
0.0161885
0.0161693
0.0161513
0.0161399
0.0161289
0.0161264
0.0161224
0.0161292
0.0153583
0.0153296
0.0153284
0.0153125
0.0153122
0.015301
0.015298
0.0152872
0.0152809
0.0152695
0.0152611
0.01525
0.0152415
0.0152323
0.0152261
0.0152211
0.0152199
0.0152216
0.0152281
0.015239
0.0152556
0.0152779
0.0153068
0.0153423
0.015385
0.0154347
0.0154916
0.0155553
0.0156255
0.0157013
0.0157816
0.0158649
0.0159497
0.0160339
0.0161153
0.0161917
0.0162608
0.0163208
0.0163698
0.0164068
0.0164311
0.016443
0.016443
0.0164326
0.0164133
0.0163876
0.0163568
0.016324
0.0162896
0.0162566
0.0162244
0.0161961
0.0161695
0.0161484
0.0161288
0.0161164
0.0161043
0.0161015
0.0160971
0.0161045
0.0153345
0.0153035
0.0153025
0.0152854
0.0152851
0.0152728
0.0152691
0.0152569
0.0152492
0.0152359
0.0152255
0.015212
0.015201
0.015189
0.0151801
0.0151721
0.015168
0.0151666
0.0151702
0.0151782
0.0151922
0.0152119
0.0152385
0.0152719
0.0153129
0.0153615
0.0154179
0.0154819
0.0155532
0.0156311
0.0157147
0.0158026
0.015893
0.015984
0.0160732
0.0161582
0.0162364
0.0163052
0.0163625
0.0164066
0.0164364
0.0164518
0.0164531
0.0164421
0.0164204
0.0163911
0.016356
0.0163186
0.0162797
0.0162426
0.0162068
0.0161755
0.0161463
0.0161233
0.016102
0.0160884
0.0160752
0.0160721
0.0160673
0.0160755
0.0152998
0.0152666
0.0152657
0.0152474
0.015247
0.0152334
0.0152289
0.0152149
0.0152057
0.0151902
0.0151777
0.0151616
0.0151481
0.0151332
0.0151213
0.0151102
0.015103
0.0150985
0.0150989
0.0151037
0.0151145
0.015131
0.0151544
0.0151847
0.0152228
0.0152685
0.0153224
0.0153843
0.0154541
0.0155313
0.0156152
0.0157048
0.0157987
0.0158951
0.015992
0.0160868
0.0161766
0.0162584
0.0163292
0.0163863
0.0164274
0.0164516
0.0164587
0.0164503
0.016428
0.0163958
0.0163559
0.0163131
0.0162685
0.0162264
0.0161859
0.0161509
0.0161185
0.0160932
0.0160697
0.0160548
0.0160403
0.0160369
0.0160316
0.0160406
0.0152549
0.0152199
0.0152191
0.0151998
0.0151991
0.0151844
0.015179
0.0151633
0.0151526
0.0151349
0.0151202
0.0151015
0.0150852
0.0150674
0.0150524
0.0150379
0.0150273
0.0150192
0.0150159
0.0150166
0.0150231
0.0150348
0.015053
0.0150774
0.0151088
0.0151473
0.0151931
0.0152462
0.0153067
0.0153744
0.0154493
0.0155313
0.0156201
0.0157151
0.0158152
0.0159185
0.0160225
0.0161236
0.0162175
0.0162997
0.0163659
0.0164127
0.0164381
0.0164425
0.0164272
0.0163967
0.0163544
0.0163066
0.0162558
0.0162075
0.0161615
0.016122
0.0160859
0.0160578
0.016032
0.0160157
0.0159997
0.0159958
0.0159899
0.0159999
0.0151974
0.0151606
0.0151599
0.0151394
0.0151385
0.0151224
0.015116
0.0150986
0.0150861
0.0150662
0.0150492
0.0150277
0.0150086
0.0149875
0.0149692
0.0149512
0.0149368
0.0149245
0.0149166
0.0149121
0.0149124
0.0149168
0.014926
0.0149396
0.0149577
0.0149798
0.0150059
0.0150356
0.0150693
0.0151075
0.0151518
0.015204
0.0152666
0.0153421
0.015432
0.015537
0.0156556
0.0157844
0.0159176
0.016048
0.0161669
0.0162665
0.0163398
0.0163835
0.0163965
0.016383
0.0163477
0.0162994
0.0162436
0.0161885
0.0161353
0.0160899
0.0160487
0.0160171
0.0159883
0.01597
0.0159522
0.0159477
0.015941
0.015952
0.0151278
0.0150895
0.0150889
0.0150675
0.0150662
0.0150489
0.0150414
0.0150222
0.015008
0.0149858
0.0149663
0.014942
0.0149198
0.0148953
0.0148734
0.0148513
0.0148324
0.0148149
0.0148009
0.0147887
0.0147794
0.0147713
0.0147643
0.0147566
0.0147471
0.0147337
0.0147154
0.0146909
0.0146612
0.0146285
0.0145975
0.0145747
0.0145681
0.014586
0.0146361
0.0147237
0.0148508
0.0150154
0.0152105
0.0154251
0.0156446
0.0158527
0.0160333
0.016174
0.0162666
0.0163111
0.0163119
0.016281
0.0162289
0.0161697
0.0161091
0.016056
0.0160081
0.0159715
0.0159387
0.0159178
0.0158977
0.0158922
0.0158843
0.0158963
0.015044
0.0150043
0.0150037
0.0149812
0.0149794
0.0149608
0.0149521
0.014931
0.0149148
0.0148901
0.014868
0.0148405
0.014815
0.0147867
0.0147606
0.0147337
0.0147092
0.0146849
0.014662
0.0146383
0.0146131
0.0145835
0.0145468
0.0144986
0.0144347
0.0143499
0.0142409
0.014106
0.0139474
0.0137715
0.0135896
0.0134167
0.0132706
0.0131696
0.0131304
0.0131661
0.0132845
0.0134867
0.013766
0.0141084
0.0144921
0.0148905
0.0152733
0.0156122
0.0158831
0.0160732
0.0161801
0.0162158
0.0161969
0.0161478
0.0160839
0.0160228
0.015966
0.0159222
0.0158835
0.0158586
0.0158352
0.015828
0.0158187
0.0158313
0.014947
0.0149061
0.0149053
0.0148819
0.0148796
0.0148595
0.0148495
0.0148264
0.0148081
0.0147807
0.0147557
0.0147247
0.0146954
0.0146627
0.0146316
0.0145988
0.0145669
0.0145328
0.0144966
0.0144541
0.0144023
0.0143345
0.0142436
0.0141198
0.0139533
0.0137345
0.0134574
0.0131215
0.0127341
0.0123105
0.0118743
0.0114541
0.0110815
0.0107875
0.0105995
0.0105392
0.0106207
0.0108495
0.0112216
0.0117224
0.0123266
0.0129991
0.0136953
0.0143665
0.0149638
0.0154484
0.0157958
0.0160058
0.0160954
0.0161004
0.0160538
0.0159906
0.0159244
0.0158707
0.0158236
0.0157926
0.0157644
0.0157543
0.0157429
0.0157558
0.0148342
0.0147922
0.0147913
0.0147668
0.0147637
0.014742
0.0147304
0.014705
0.0146842
0.0146537
0.0146253
0.0145903
0.0145565
0.0145184
0.0144811
0.0144403
0.0143981
0.0143495
0.0142926
0.0142196
0.0141227
0.0139886
0.0138024
0.0135455
0.0132004
0.0127532
0.0121985
0.0115426
0.0108057
0.0100201
0.00922799
0.00847557
0.00780893
0.00726959
0.00689224
0.00670322
0.00672021
0.00695202
0.00739826
0.00804867
0.0088814
0.0098619
0.0109407
0.0120552
0.0131313
0.0140948
0.01488
0.0154499
0.0157988
0.0159623
0.0159921
0.0159524
0.0158835
0.0158186
0.01576
0.0157196
0.0156845
0.0156697
0.0156552
0.0156678
0.0147074
0.0146644
0.0146632
0.0146377
0.0146336
0.0146103
0.0145967
0.0145688
0.0145451
0.014511
0.0144785
0.0144388
0.0143994
0.0143548
0.0143093
0.0142578
0.0142006
0.0141302
0.0140404
0.0139176
0.0137455
0.0135001
0.0131544
0.0126791
0.0120502
0.0112544
0.0102966
0.00920148
0.00801356
0.00679042
0.00559554
0.00449021
0.00352843
0.0027537
0.00219884
0.00188672
0.00183208
0.00204301
0.00252168
0.00326455
0.00426012
0.00548681
0.00690701
0.00846445
0.0100784
0.0116494
0.0130653
0.0142271
0.0150683
0.0155846
0.0158238
0.0158791
0.0158355
0.0157653
0.0156932
0.0156396
0.0155945
0.0155725
0.0155537
0.0155648
0.0145636
0.0145197
0.0145182
0.0144914
0.014486
0.0144606
0.0144446
0.0144136
0.0143863
0.014348
0.0143105
0.0142649
0.0142186
0.0141654
0.0141088
0.0140421
0.0139629
0.0138591
0.013718
0.0135159
0.0132234
0.0128013
0.0122087
0.0114074
0.0103749
0.00911232
0.00765093
0.0060491
0.00438412
0.00273896
0.00119149
-0.000193637
-0.00136748
-0.00229653
-0.00295973
-0.00334524
-0.00344713
-0.00326257
-0.00279046
-0.00202977
-0.00098134
0.000351542
0.00195563
0.00380328
0.00583827
0.00797172
0.0100736
0.0119904
0.0135684
0.014707
0.0153878
0.0156937
0.0157534
0.0157039
0.0156223
0.0155519
0.0154932
0.0154604
0.0154354
0.0154437
0.0144054
0.0143609
0.0143589
0.0143309
0.0143239
0.0142961
0.0142772
0.0142425
0.0142109
0.0141673
0.0141238
0.0140708
0.0140157
0.0139514
0.0138799
0.0137919
0.0136805
0.0135267
0.013307
0.012983
0.0125074
0.0118239
0.0108805
0.00964084
0.00810141
0.00629829
0.00430632
0.00222455
0.000158699
-0.00179622
-0.00356513
-0.00509618
-0.00635767
-0.00733364
-0.00801842
-0.0084125
-0.00851944
-0.00834315
-0.00788686
-0.00715036
-0.00613101
-0.00482079
-0.00321255
-0.0013002
0.000903555
0.00335911
0.00597229
0.00859149
0.0110071
0.0130024
0.0144191
0.0152355
0.015567
0.015612
0.0155411
0.0154544
0.0153784
0.0153302
0.0152968
0.0152998
0.0142294
0.0141844
0.0141816
0.0141521
0.0141429
0.0141121
0.0140896
0.0140504
0.0140135
0.0139635
0.0139123
0.0138502
0.0137837
0.0137045
0.0136126
0.0134945
0.0133366
0.0131095
0.0127741
0.0122725
0.0115376
0.010499
0.0091056
0.00734291
0.00524956
0.00291422
0.000459648
-0.00198472
-0.00430489
-0.00641617
-0.00826431
-0.00982089
-0.0110749
-0.0120258
-0.0126786
-0.0130404
-0.0131197
-0.0129246
-0.0124635
-0.0117412
-0.0107602
-0.00951392
-0.0079911
-0.00616794
-0.00402374
-0.00154135
0.00125587
0.00428717
0.00737368
0.0102505
0.012616
0.0142507
0.0151301
0.015434
0.0154338
0.0153418
0.0152474
0.0151778
0.0151331
0.0151274
0.0140395
0.0139945
0.0139907
0.0139596
0.0139478
0.0139136
0.0138867
0.0138421
0.0137986
0.0137408
0.0136803
0.0136067
0.0135257
0.0134274
0.013308
0.0131486
0.0129256
0.0125949
0.0120974
0.0113528
0.010277
0.00879754
0.00688481
0.0045704
0.00195271
-0.000825038
-0.00360764
-0.00626124
-0.00868974
-0.0108373
-0.0126786
-0.0142077
-0.0154276
-0.016344
-0.0169629
-0.01729
-0.0173328
-0.0170996
-0.0166027
-0.015853
-0.0148636
-0.0136384
-0.0121776
-0.0104606
-0.00846019
-0.00612706
-0.00342546
-0.000341814
0.00304805
0.00654788
0.00982077
0.0124686
0.0142122
0.0150516
0.0152626
0.015202
0.0150952
0.0149979
0.014938
0.0149188
0.0138314
0.0137863
0.0137813
0.0137482
0.0137331
0.0136947
0.0136624
0.0136113
0.0135599
0.0134926
0.0134205
0.0133327
0.0132334
0.0131101
0.0129545
0.0127393
0.012428
0.0119574
0.0112454
0.0101914
0.00870392
0.00672773
0.00427849
0.00145156
-0.00159376
-0.00467788
-0.00764267
-0.0103782
-0.0128246
-0.0149601
-0.0167841
-0.0183028
-0.0195212
-0.0204405
-0.021059
-0.0213746
-0.0213893
-0.0211091
-0.0205487
-0.0197253
-0.0186635
-0.0173811
-0.0158975
-0.0142086
-0.0123029
-0.01013
-0.00763279
-0.00473141
-0.00139383
0.00232374
0.00618807
0.00976984
0.0125739
0.014266
0.0149504
0.0150112
0.014912
0.0147844
0.0147039
0.0146649
0.0136112
0.0135667
0.0135603
0.0135251
0.0135062
0.013463
0.0134243
0.0133656
0.0133046
0.013226
0.01314
0.0130348
0.0129128
0.0127581
0.0125559
0.0122685
0.0118427
0.0111931
0.0102147
0.00879373
0.00684797
0.00436136
0.00141288
-0.00183572
-0.00518187
-0.00844027
-0.0114795
-0.0142316
-0.0166764
-0.0188198
-0.020673
-0.0222418
-0.0235219
-0.0245014
-0.0251651
-0.0255
-0.0255009
-0.0251705
-0.0245258
-0.0235891
-0.0223967
-0.0209799
-0.0193791
-0.0176109
-0.0156906
-0.0135858
-0.0112514
-0.00858538
-0.00549214
-0.00189625
0.00213919
0.00631754
0.0101046
0.0128661
0.0143408
0.0147309
0.0146761
0.0145285
0.014421
0.0143541
0.0133731
0.0133291
0.0133208
0.0132831
0.0132595
0.0132107
0.0131644
0.0130967
0.0130247
0.0129328
0.0128302
0.0127043
0.0125547
0.0123613
0.0121012
0.0117236
0.0111559
0.0102897
0.00900143
0.00717668
0.00476097
0.00179525
-0.00157277
-0.00512901
-0.00865671
-0.0119948
-0.0150571
-0.0178212
-0.0202988
-0.0225099
-0.0244646
-0.0261566
-0.0275648
-0.0286588
-0.0294085
-0.0297888
-0.0297886
-0.0294073
-0.0286648
-0.0275874
-0.0262223
-0.0246115
-0.0228151
-0.0208694
-0.0188197
-0.0166594
-0.0143741
-0.0118718
-0.00904333
-0.00573517
-0.00185974
0.0024925
0.00693336
0.0107385
0.0132397
0.0142784
0.0143613
0.0142121
0.0140803
0.0139725
0.0131261
0.0130834
0.0130732
0.013033
0.0130043
0.0129492
0.0128943
0.0128165
0.0127316
0.0126244
0.0125025
0.0123523
0.01217
0.0119305
0.0116011
0.0111158
0.0103811
0.00926758
0.00764115
0.00540111
0.00253739
-0.000843715
-0.00453406
-0.00829192
-0.0119154
-0.0152877
-0.0183726
-0.0211858
-0.0237578
-0.0261095
-0.0282385
-0.0301187
-0.0317077
-0.0329557
-0.0338181
-0.0342596
-0.0342648
-0.0338315
-0.0329836
-0.0317508
-0.0301904
-0.0283515
-0.026311
-0.0241191
-0.0218493
-0.0195211
-0.0171587
-0.0146976
-0.0120501
-0.00903819
-0.00548514
-0.00129602
0.00338379
0.00794232
0.0115378
0.013472
0.0139601
0.0137938
0.0136749
0.0135008
0.0128622
0.0128208
0.0128082
0.0127649
0.0127301
0.0126679
0.0126033
0.0125141
0.0124149
0.0122904
0.0121469
0.0119691
0.0117496
0.011457
0.011048
0.01044
0.00951923
0.00813949
0.00616641
0.00352665
0.000264371
-0.00345119
-0.00736958
-0.0112477
-0.0149199
-0.0183205
-0.021458
-0.0243736
-0.0271042
-0.0296602
-0.0320193
-0.0341316
-0.0359328
-0.0373547
-0.038341
-0.0388479
-0.0388584
-0.0383696
-0.0374114
-0.0360168
-0.0342535
-0.0321747
-0.029871
-0.0274001
-0.0248581
-0.0222847
-0.0197427
-0.0172011
-0.0146131
-0.0118138
-0.00859971
-0.00475246
-0.000188642
0.00472594
0.00923498
0.0121734
0.0134029
0.0132577
0.0131779
0.0129256
0.0125946
0.0125555
0.0125405
0.0124946
0.0124533
0.0123837
0.0123085
0.0122068
0.0120918
0.0119483
0.0117807
0.0115721
0.0113111
0.0109596
0.0104626
0.00972147
0.0086038
0.006953
0.00464428
0.00164125
-0.00195561
-0.00592497
-0.00999537
-0.0139434
-0.0176497
-0.0210974
-0.0243288
-0.027399
-0.03034
-0.0331448
-0.0357676
-0.038134
-0.0401598
-0.041761
-0.0428721
-0.0434423
-0.0434547
-0.0429058
-0.0418336
-0.0402746
-0.0383088
-0.0359921
-0.0334274
-0.0306735
-0.0278436
-0.0249881
-0.0222032
-0.0194896
-0.0168479
-0.0141473
-0.011201
-0.0077355
-0.00350832
0.00140218
0.0064545
0.0103838
0.0124967
0.0126397
0.0125219
0.0122427
0.0123117
0.0122747
0.0122568
0.0122076
0.0121593
0.0120815
0.0119949
0.01188
0.0117483
0.0115846
0.0113914
0.0111503
0.0108452
0.0104315
0.00984249
0.00896438
0.00764991
0.00573859
0.00312295
-0.000192245
-0.00405512
-0.00820726
-0.0123751
-0.0163676
-0.0201123
-0.023633
-0.0269949
-0.0302564
-0.0334385
-0.0365126
-0.0394094
-0.0420323
-0.0442807
-0.0460571
-0.0472887
-0.0479175
-0.0479273
-0.0473135
-0.0461241
-0.0443991
-0.0422342
-0.0396871
-0.0368748
-0.0338525
-0.0307456
-0.0276059
-0.0245546
-0.0216163
-0.0188386
-0.0161326
-0.0133521
-0.010222
-0.00641374
-0.00177264
0.00344014
0.00816073
0.0111385
0.011921
0.0116797
0.0114389
0.0120323
0.0119985
0.0119781
0.0119264
0.011871
0.0117851
0.0116868
0.0115582
0.0114087
0.0112238
0.0110038
0.0107285
0.0103776
0.00990015
0.00921871
0.00820652
0.00670554
0.00455703
0.00167523
-0.00189514
-0.00596014
-0.0102395
-0.0144708
-0.0184995
-0.022295
-0.0259115
-0.0294276
-0.0328985
-0.0363305
-0.0396734
-0.0428371
-0.0457061
-0.0481672
-0.0501105
-0.0514573
-0.0521407
-0.0521458
-0.0514648
-0.0501574
-0.0482667
-0.0459076
-0.0431401
-0.0400981
-0.0368305
-0.0334735
-0.0300711
-0.0267622
-0.0235839
-0.0206251
-0.017838
-0.0151272
-0.0122503
-0.00884724
-0.00462753
0.000450563
0.00561187
0.00939083
0.0109623
0.0106934
0.0104739
0.0117393
0.0117084
0.011685
0.0116302
0.0115673
0.0114731
0.0113628
0.0112205
0.0110535
0.0108477
0.0106012
0.0102926
0.00989725
0.00935879
0.0085905
0.00745556
0.00578916
0.00343821
0.000339303
-0.00342807
-0.00763917
-0.0120042
-0.0162789
-0.0203428
-0.0241991
-0.0279228
-0.0315989
-0.0352757
-0.0389449
-0.0425369
-0.0459453
-0.0490389
-0.0516952
-0.0537925
-0.0552468
-0.0559803
-0.0559799
-0.0552322
-0.0538102
-0.0517584
-0.0492141
-0.0462392
-0.0429882
-0.0395026
-0.0359295
-0.0322991
-0.0287624
-0.0253575
-0.0222071
-0.0192965
-0.0165837
-0.0138743
-0.0108171
-0.00706956
-0.00232166
0.00290982
0.00735691
0.00964716
0.00961548
0.0093165
0.011459
0.0114324
0.0114068
0.0113502
0.0112804
0.0111785
0.0110566
0.0109008
0.0107163
0.0104897
0.010217
0.00987564
0.00943773
0.00884253
0.0079963
0.00675537
0.00495173
0.00243966
-0.000824381
-0.00473412
-0.00904502
-0.0134665
-0.0177736
-0.021874
-0.0257952
-0.0296248
-0.0334502
-0.0373118
-0.0411888
-0.0449962
-0.0486159
-0.0519041
-0.0547321
-0.0569656
-0.0585171
-0.0592957
-0.0592913
-0.0584822
-0.0569559
-0.0547557
-0.052043
-0.0488803
-0.045446
-0.0417733
-0.0380223
-0.0342047
-0.0304816
-0.0268817
-0.0235556
-0.0205089
-0.017753
-0.0151403
-0.0123583
-0.0090634
-0.0047588
0.000254712
0.00514062
0.0079975
0.00844925
0.0079747
0.0111661
0.011143
0.0111146
0.0110557
0.0109791
0.0108698
0.0107369
0.0105688
0.0103685
0.0101233
0.00982715
0.0094572
0.00898254
0.0083398
0.00743056
0.00610762
0.00420226
0.00157611
-0.00179956
-0.00580061
-0.0101725
-0.0146284
-0.0189602
-0.0230952
-0.0270761
-0.030997
-0.0349453
-0.038954
-0.0429948
-0.0469704
-0.0507569
-0.0541993
-0.0571659
-0.0595094
-0.0611411
-0.0619559
-0.0619487
-0.0610867
-0.0594733
-0.0571462
-0.0542919
-0.0509706
-0.047386
-0.0435621
-0.0396743
-0.0357131
-0.03185
-0.0280961
-0.0246268
-0.0214545
-0.0186414
-0.0160769
-0.0135079
-0.0106111
-0.00679958
-0.00218893
0.00284256
0.00609846
0.00711598
0.00645337
0.0108972
0.0108792
0.0108494
0.01079
0.0107078
0.0105925
0.0104498
0.0102704
0.0100553
0.00979271
0.00947497
0.00907927
0.00857285
0.00789154
0.00693498
0.00555558
0.00358598
0.000893463
-0.00254208
-0.00658817
-0.0109883
-0.0154618
-0.0198121
-0.0239768
-0.0280059
-0.0319941
-0.0360285
-0.0401366
-0.044287
-0.048375
-0.0522752
-0.0558231
-0.0588875
-0.0613077
-0.0629977
-0.0638369
-0.0638289
-0.0629266
-0.0612504
-0.0588278
-0.0558701
-0.0524301
-0.0487378
-0.0448047
-0.0408248
-0.0367646
-0.032809
-0.0289453
-0.0253738
-0.0221008
-0.0192378
-0.0166952
-0.0142925
-0.0117301
-0.00841517
-0.00430755
0.000580744
0.00405121
0.00555283
0.00477001
0.0106144
0.0106003
0.0105684
0.010508
0.0104206
0.0103003
0.0101493
0.00996122
0.00973448
0.00945883
0.00912483
0.00871035
0.00818169
0.00747561
0.00649224
0.00508664
0.0030939
0.000384884
-0.00305902
-0.00710571
-0.0115039
-0.0159786
-0.0203397
-0.0245252
-0.0285849
-0.0326093
-0.0366857
-0.0408374
-0.0450361
-0.0491724
-0.0531255
-0.0567218
-0.0598349
-0.0622908
-0.0640109
-0.0648584
-0.0648493
-0.0639201
-0.0622091
-0.0597286
-0.0567136
-0.0532032
-0.0494534
-0.0454584
-0.0414335
-0.0373187
-0.0333168
-0.0293864
-0.025756
-0.0224144
-0.0195225
-0.0169937
-0.0147275
-0.0124405
-0.00959639
-0.00603098
-0.00151537
0.00197167
0.00379539
0.00298216
0.0103689
0.0103606
0.0103285
0.0102696
0.0101791
0.0100558
0.00989838
0.00970319
0.00946654
0.00917979
0.00883221
0.008403
0.00785852
0.00713829
0.00614554
0.00474069
0.00276268
8.35714e-05
-0.00332023
-0.00732562
-0.0116926
-0.0161525
-0.0205157
-0.0247119
-0.028784
-0.0328134
-0.0368872
-0.0410261
-0.0452103
-0.0493286
-0.0532706
-0.0568547
-0.0599644
-0.0624121
-0.0641321
-0.0649708
-0.0649611
-0.0640199
-0.0623052
-0.0598087
-0.0567879
-0.0532612
-0.0495093
-0.0455027
-0.0414811
-0.0373541
-0.033349
-0.0293914
-0.025744
-0.0223674
-0.0194748
-0.0169641
-0.0148191
-0.0127583
-0.0103443
-0.00731705
-0.00332581
-1.27878e-05
0.00195929
0.00117811
0.0101045
0.0100998
0.0100668
0.0100085
0.00991567
0.00979085
0.00962984
0.00943134
0.00918974
0.00889799
0.00854421
0.00810939
0.00756056
0.00684156
0.00586049
0.00448588
0.00256141
-4.09266e-05
-0.00335588
-0.00727633
-0.0115803
-0.0160056
-0.0203593
-0.0245548
-0.0286216
-0.0326263
-0.0366559
-0.040728
-0.0448368
-0.0488712
-0.0527378
-0.0562478
-0.0593007
-0.0616947
-0.0633831
-0.0641944
-0.0641825
-0.0632424
-0.0615534
-0.0590814
-0.0561053
-0.0526153
-0.0489158
-0.044946
-0.040973
-0.0368714
-0.0329011
-0.02895
-0.0253231
-0.0219433
-0.0190806
-0.0165989
-0.0145713
-0.012697
-0.0106679
-0.00814399
-0.00475791
-0.00177632
0.000180467
-0.000546658
0.00989328
0.00989492
0.00986324
0.00980885
0.00971624
0.00959253
0.00942993
0.00923001
0.00898515
0.00869035
0.00833286
0.00789605
0.00734842
0.00663943
0.00568389
0.0043608
0.00252042
3.42772e-05
-0.00314754
-0.00694057
-0.0111474
-0.0155148
-0.0198453
-0.0240295
-0.0280784
-0.0320369
-0.0359908
-0.0399526
-0.0439344
-0.0478267
-0.0515597
-0.0549387
-0.0578855
-0.0601844
-0.0618129
-0.0625805
-0.0625663
-0.0616403
-0.0600051
-0.0575952
-0.0547114
-0.0513065
-0.0477093
-0.0438188
-0.0399339
-0.0358884
-0.0319846
-0.0280673
-0.0244938
-0.0211382
-0.0183357
-0.0158961
-0.0139891
-0.0122695
-0.0105819
-0.00850629
-0.00575168
-0.00320977
-0.00142019
-0.00210098
0.0096521
0.00965643
0.00962504
0.00957326
0.00948203
0.00936148
0.00920124
0.00900506
0.00876351
0.00847345
0.00812118
0.00769277
0.00715816
0.00647349
0.00556097
0.00431243
0.00258596
0.000254489
-0.00275003
-0.00636953
-0.010439
-0.0147176
-0.0190057
-0.0231665
-0.0271884
-0.031087
-0.0349453
-0.0387656
-0.0425818
-0.0462845
-0.0498353
-0.0530336
-0.0558316
-0.0579984
-0.059542
-0.0602505
-0.0602328
-0.0593301
-0.0577714
-0.0554528
-0.052699
-0.0494162
-0.0459597
-0.0421789
-0.0384111
-0.0344425
-0.030629
-0.0267655
-0.0232732
-0.0199646
-0.0172505
-0.0148655
-0.0130869
-0.0114953
-0.0101097
-0.0084143
-0.00627664
-0.00422619
-0.00273766
-0.00339326
0.00948405
0.0094948
0.00946655
0.00942128
0.00933436
0.00921974
0.00906367
0.0088726
0.00863521
0.00835069
0.00800463
0.00758624
0.00706725
0.00641114
0.00554817
0.00438471
0.00278883
0.000637773
-0.00215423
-0.00555785
-0.00944715
-0.0135999
-0.0178206
-0.0219438
-0.0259336
-0.0297693
-0.0335273
-0.037194
-0.0408254
-0.0443101
-0.0476465
-0.0506286
-0.0532462
-0.0552531
-0.0566936
-0.0573319
-0.0573113
-0.0564394
-0.054975
-0.052769
-0.0501725
-0.0470359
-0.0437453
-0.0400913
-0.0364588
-0.0325784
-0.0288726
-0.0250773
-0.0216906
-0.0184478
-0.0158483
-0.0135283
-0.0118881
-0.0104005
-0.00928282
-0.00789267
-0.00632751
-0.0047629
-0.0036756
-0.0043255
0.0092659
0.00927768
0.00925094
0.00921019
0.00912907
0.00902316
0.00887661
0.0086975
0.00847264
0.0082033
0.00787371
0.00747661
0.00698456
0.0063692
0.00556776
0.00450311
0.00305378
0.00110658
-0.0014407
-0.0045848
-0.00824588
-0.0122255
-0.0163432
-0.0204062
-0.0243577
-0.0281316
-0.0317967
-0.0353132
-0.0387601
-0.0420176
-0.0451264
-0.0478726
-0.0502917
-0.05212
-0.0534454
-0.0540046
-0.0539804
-0.0531409
-0.0517796
-0.0496935
-0.0472659
-0.044281
-0.0411643
-0.0376379
-0.0341458
-0.0303551
-0.0267687
-0.0230512
-0.0197926
-0.0166308
-0.0141712
-0.0119228
-0.010433
-0.00902559
-0.00814756
-0.00698273
-0.00592332
-0.00478314
-0.00414386
-0.00479316
0.00914795
0.00916601
0.00914419
0.0091126
0.00904015
0.00894536
0.00880914
0.00864187
0.00842841
0.00817261
0.00785762
0.00748002
0.00701315
0.00643692
0.00569494
0.00472721
0.00342354
0.00168527
-0.000601659
-0.003455
-0.00684387
-0.0105995
-0.0145693
-0.0185404
-0.0224409
-0.0261559
-0.0297437
-0.0331293
-0.0364124
-0.0394568
-0.0423478
-0.0448597
-0.0470798
-0.048725
-0.049933
-0.0504089
-0.0503814
-0.0495718
-0.0483149
-0.0463445
-0.0440839
-0.0412415
-0.038293
-0.0348832
-0.0315298
-0.0278256
-0.0243696
-0.020739
-0.0176321
-0.0145644
-0.0122701
-0.0100964
-0.0087706
-0.00741886
-0.00675982
-0.0057388
-0.00510681
-0.00428047
-0.00406826
-0.00469744
0.0089466
0.00896313
0.00894391
0.00891862
0.008857
0.00877735
0.0086588
0.00851278
0.00832154
0.00809148
0.00780308
0.00745761
0.00702695
0.00650051
0.00582521
0.00495993
0.00380342
0.00227815
0.000261077
-0.00227515
-0.00535066
-0.00882559
-0.0125919
-0.0164227
-0.0202466
-0.0238948
-0.0274198
-0.0306978
-0.03385
-0.0367105
-0.0394128
-0.0417094
-0.0437472
-0.0452162
-0.0463136
-0.0467045
-0.0466728
-0.0458836
-0.0447224
-0.042849
-0.0407387
-0.0380142
-0.0352163
-0.031903
-0.028682
-0.025059
-0.0217463
-0.018212
-0.0152828
-0.0123196
-0.0102167
-0.0081155
-0.00697004
-0.00564575
-0.0051938
-0.00423252
-0.00394833
-0.00328492
-0.00340995
-0.00396777
0.00888448
0.00890713
0.00889455
0.00888107
0.00883251
0.00876926
0.00866702
0.00853926
0.00836562
0.00815573
0.00788767
0.00756786
0.00716634
0.00668211
0.00606356
0.00528842
0.0042624
0.00293312
0.00117273
-0.00104379
-0.00378346
-0.00693175
-0.0104376
-0.0140701
-0.0177754
-0.0213347
-0.0248004
-0.0279912
-0.0310488
-0.0337654
-0.0363217
-0.038439
-0.0403269
-0.0416408
-0.042644
-0.0429544
-0.0429193
-0.0421387
-0.0410596
-0.0392585
-0.0372762
-0.0346409
-0.031975
-0.0287399
-0.0256511
-0.0221103
-0.018962
-0.0155362
-0.0128148
-0.00996341
-0.0080787
-0.00604163
-0.00509603
-0.00376681
-0.00352291
-0.00253783
-0.00253823
-0.00186298
-0.00218751
-0.00258874
0.00868642
0.00870385
0.00869488
0.00868959
0.00865771
0.00861736
0.00854213
0.00844633
0.00830488
0.00813155
0.00789861
0.00761984
0.00725933
0.0068284
0.00627165
0.00558842
0.0046851
0.00354053
0.0020205
0.000118758
-0.00227618
-0.00506019
-0.00825258
-0.0116183
-0.015148
-0.0185723
-0.0219625
-0.0250671
-0.0280568
-0.0306621
-0.0331179
-0.0350943
-0.0368729
-0.0380576
-0.0389903
-0.0392259
-0.0391905
-0.0384042
-0.0373923
-0.0356353
-0.0337585
-0.0311841
-0.0286371
-0.0254673
-0.0225201
-0.019068
-0.0161129
-0.0128079
-0.0103268
-0.0075879
-0.00594854
-0.00395806
-0.00323565
-0.00186091
-0.00183892
-0.000741668
-0.000989241
-0.000115228
-0.000490734
-0.000618774
0.00868637
0.00871006
0.00870951
0.00871902
0.0087045
0.00868592
0.00863224
0.00856045
0.00844091
0.0082925
0.00808215
0.00783186
0.00749903
0.00710801
0.00659677
0.00598666
0.00517992
0.00418888
0.00287139
0.00125191
-0.00081932
-0.00323257
-0.00608048
-0.00912304
-0.0124156
-0.0156451
-0.0189209
-0.0219186
-0.0248459
-0.0273591
-0.0297494
-0.0316207
-0.0333298
-0.0344153
-0.0353042
-0.035477
-0.0354484
-0.0346489
-0.0336958
-0.0319644
-0.0301822
-0.0276544
-0.0252297
-0.0221278
-0.0193477
-0.0160002
-0.0132749
-0.0101014
-0.00789234
-0.00525721
-0.00388758
-0.00191512
-0.00144199
2.71057e-05
-0.000203229
0.00109523
0.000594819
0.00184744
0.00152966
0.00181486
0.008469
0.00848214
0.00848656
0.00850704
0.00851666
0.00853145
0.0085157
0.0084891
0.00841194
0.00831194
0.00814343
0.00794219
0.00765137
0.0073146
0.00685475
0.00632123
0.00560187
0.00474949