/*--------------------------------*- C++ -*----------------------------------*\
| =========                 |                                                 |
| \\      /  F ield         | OpenFOAM: The Open Source CFD Toolbox           |
|  \\    /   O peration     | Version:  2406                                  |
|   \\  /    A nd           | Website:  www.openfoam.com                      |
|    \\/     M anipulation  |                                                 |
\*---------------------------------------------------------------------------*/
FoamFile
{
    version     2.0;
    format      ascii;
    arch        "LSB;label=32;scalar=64";
    class       volScalarField;
    location    "10.7";
    object      p;
}
// * * * * * * * * * * * * * * * * * * * * * * * * * * * * * * * * * * * * * //

dimensions      [0 2 -2 0 0 0 0];

internalField   nonuniform List<scalar> 
3600
(
0.0148573
0.014851
0.0148454
0.0148348
0.0148291
0.0148198
0.0148156
0.0148083
0.0148051
0.0147994
0.0147973
0.0147934
0.0147932
0.0147924
0.0147953
0.014799
0.0148068
0.0148164
0.0148306
0.0148477
0.0148696
0.0148951
0.0149256
0.01496
0.0149991
0.015042
0.015089
0.0151391
0.015192
0.0152467
0.0153027
0.0153588
0.0154141
0.0154675
0.015518
0.0155648
0.0156069
0.0156437
0.0156745
0.0156993
0.0157177
0.0157301
0.0157363
0.0157375
0.0157335
0.015726
0.0157146
0.0157015
0.0156859
0.0156702
0.0156533
0.0156381
0.0156225
0.01561
0.0155978
0.0155903
0.0155833
0.015582
0.0155806
0.0155839
0.0148632
0.0148566
0.0148535
0.0148446
0.014841
0.0148327
0.0148294
0.0148222
0.0148193
0.0148134
0.0148113
0.0148072
0.0148069
0.0148058
0.0148085
0.0148118
0.0148191
0.0148281
0.0148416
0.0148577
0.0148785
0.0149028
0.0149318
0.0149646
0.0150021
0.0150431
0.0150881
0.0151361
0.015187
0.0152397
0.0152937
0.0153478
0.0154014
0.0154532
0.0155025
0.0155482
0.0155895
0.0156258
0.0156565
0.0156814
0.0157002
0.0157133
0.0157204
0.0157228
0.0157202
0.0157141
0.0157043
0.0156928
0.0156788
0.0156649
0.0156497
0.0156361
0.0156221
0.0156113
0.0156003
0.0155938
0.0155872
0.0155859
0.0155837
0.015587
0.0148697
0.0148597
0.0148569
0.014847
0.014844
0.0148354
0.0148325
0.014825
0.0148221
0.0148158
0.0148134
0.0148088
0.014808
0.0148063
0.0148084
0.014811
0.0148176
0.0148259
0.0148387
0.0148541
0.0148744
0.014898
0.0149266
0.0149589
0.0149961
0.0150369
0.0150819
0.01513
0.0151812
0.0152343
0.0152888
0.0153437
0.0153981
0.0154508
0.0155009
0.0155474
0.0155895
0.0156264
0.0156576
0.0156829
0.0157018
0.0157149
0.0157219
0.015724
0.0157209
0.0157144
0.0157041
0.0156922
0.0156777
0.0156635
0.0156479
0.0156342
0.0156199
0.015609
0.0155979
0.0155915
0.0155848
0.0155838
0.0155816
0.015586
0.0148802
0.0148668
0.014865
0.0148546
0.0148532
0.0148446
0.0148426
0.0148349
0.0148322
0.0148253
0.0148226
0.0148172
0.0148156
0.0148129
0.014814
0.0148154
0.0148208
0.0148277
0.0148392
0.0148531
0.0148719
0.014894
0.0149211
0.014952
0.0149877
0.0150273
0.0150713
0.0151185
0.0151689
0.0152216
0.0152759
0.0153308
0.0153854
0.0154385
0.0154892
0.0155364
0.0155792
0.015617
0.0156488
0.0156748
0.0156942
0.0157078
0.0157152
0.0157176
0.0157147
0.0157085
0.0156983
0.0156866
0.0156724
0.0156585
0.0156433
0.0156301
0.0156163
0.015606
0.0155954
0.0155895
0.0155828
0.0155821
0.0155797
0.0155846
0.0148857
0.0148681
0.0148666
0.0148544
0.0148535
0.0148441
0.0148424
0.014834
0.0148311
0.0148233
0.0148199
0.0148133
0.0148108
0.0148067
0.0148066
0.0148065
0.0148106
0.014816
0.0148261
0.0148387
0.0148563
0.0148773
0.0149036
0.0149339
0.0149694
0.015009
0.0150532
0.0151011
0.0151527
0.0152068
0.0152629
0.0153197
0.0153766
0.0154321
0.0154851
0.0155347
0.0155796
0.0156192
0.0156526
0.0156796
0.0156997
0.0157135
0.0157206
0.0157224
0.0157186
0.0157113
0.0156998
0.0156869
0.0156714
0.0156563
0.0156399
0.0156258
0.0156112
0.0156003
0.015589
0.0155829
0.0155759
0.0155753
0.0155729
0.0155782
0.0148913
0.0148702
0.0148694
0.014856
0.0148562
0.0148461
0.014845
0.0148358
0.0148327
0.0148238
0.0148197
0.0148117
0.0148079
0.0148021
0.0148004
0.0147983
0.0148006
0.014804
0.0148121
0.0148227
0.0148384
0.0148577
0.0148824
0.0149113
0.0149457
0.0149845
0.0150284
0.0150763
0.0151283
0.0151832
0.0152407
0.0152993
0.0153582
0.0154161
0.0154717
0.0155238
0.0155713
0.0156132
0.0156485
0.0156771
0.0156983
0.0157128
0.0157201
0.0157218
0.0157175
0.0157095
0.0156972
0.0156833
0.0156669
0.0156511
0.015634
0.0156194
0.0156042
0.0155931
0.0155815
0.0155753
0.015568
0.0155675
0.0155649
0.0155705
0.0148881
0.0148637
0.0148631
0.0148479
0.0148486
0.0148374
0.0148363
0.0148259
0.0148224
0.0148121
0.0148069
0.0147973
0.014792
0.0147843
0.0147807
0.0147766
0.0147769
0.0147783
0.0147845
0.0147932
0.0148074
0.0148252
0.0148488
0.0148769
0.0149109
0.0149498
0.0149943
0.0150433
0.015097
0.0151542
0.0152145
0.0152765
0.0153391
0.015401
0.0154607
0.0155169
0.0155682
0.0156136
0.0156518
0.0156826
0.0157053
0.0157204
0.0157277
0.0157286
0.0157231
0.0157135
0.0156993
0.0156835
0.015665
0.0156473
0.0156284
0.0156123
0.0155956
0.0155834
0.0155707
0.0155639
0.015556
0.0155554
0.0155525
0.0155583
0.014882
0.0148548
0.0148548
0.0148384
0.0148397
0.0148276
0.0148266
0.0148151
0.014811
0.0147993
0.0147929
0.0147814
0.0147744
0.0147646
0.014759
0.0147524
0.0147504
0.0147493
0.0147532
0.0147595
0.0147715
0.0147872
0.0148091
0.0148357
0.0148687
0.0149069
0.0149514
0.0150009
0.0150558
0.015115
0.0151779
0.0152431
0.0153096
0.0153758
0.0154401
0.015501
0.0155568
0.0156064
0.0156482
0.015682
0.0157067
0.0157231
0.0157308
0.0157314
0.0157249
0.0157138
0.0156979
0.0156803
0.0156599
0.0156405
0.0156199
0.0156025
0.0155845
0.0155714
0.0155578
0.0155505
0.0155419
0.0155412
0.015538
0.0155442
0.0148644
0.0148346
0.0148349
0.014817
0.0148186
0.0148053
0.014804
0.0147912
0.0147863
0.0147729
0.0147652
0.0147518
0.014743
0.0147308
0.0147231
0.0147141
0.0147098
0.0147063
0.0147079
0.014712
0.0147219
0.0147358
0.0147562
0.0147816
0.0148139
0.014852
0.0148968
0.0149475
0.0150044
0.0150663
0.0151328
0.0152024
0.0152741
0.015346
0.0154165
0.0154836
0.0155455
0.0156007
0.0156474
0.0156852
0.0157127
0.0157308
0.0157388
0.0157389
0.0157309
0.0157177
0.0156991
0.0156788
0.0156556
0.0156336
0.0156105
0.015591
0.0155711
0.0155565
0.0155414
0.0155332
0.0155237
0.0155227
0.0155192
0.0155259
0.0148417
0.0148098
0.0148104
0.0147916
0.0147935
0.0147792
0.0147777
0.0147636
0.0147579
0.0147428
0.0147337
0.0147182
0.0147074
0.0146929
0.0146828
0.0146712
0.0146643
0.0146579
0.0146569
0.0146582
0.0146656
0.014677
0.0146951
0.0147185
0.0147492
0.0147861
0.0148304
0.0148812
0.0149391
0.015003
0.0150726
0.0151463
0.0152231
0.015301
0.0153782
0.0154525
0.0155217
0.0155841
0.0156373
0.0156806
0.0157125
0.0157335
0.0157429
0.015743
0.0157337
0.0157186
0.0156973
0.0156742
0.015648
0.0156234
0.0155977
0.0155762
0.0155543
0.0155384
0.0155218
0.0155128
0.0155023
0.0155013
0.0154973
0.0155047
0.014805
0.0147711
0.014772
0.0147519
0.0147539
0.0147385
0.0147366
0.0147211
0.0147144
0.0146976
0.014687
0.0146694
0.0146567
0.0146398
0.0146274
0.0146132
0.0146037
0.0145946
0.0145908
0.0145894
0.0145942
0.014603
0.0146186
0.0146397
0.0146684
0.0147036
0.0147467
0.0147971
0.0148553
0.0149205
0.0149925
0.0150698
0.0151516
0.0152357
0.0153204
0.0154033
0.015482
0.0155541
0.0156169
0.015669
0.0157082
0.0157348
0.0157476
0.015749
0.015739
0.0157217
0.0156972
0.0156703
0.0156402
0.015612
0.015583
0.0155587
0.0155343
0.0155166
0.0154982
0.0154881
0.0154764
0.015475
0.0154705
0.0154788
0.0147617
0.0147262
0.0147274
0.0147064
0.0147086
0.0146922
0.0146899
0.0146731
0.0146654
0.0146468
0.0146347
0.014615
0.0146002
0.0145808
0.0145658
0.0145487
0.0145363
0.0145241
0.0145172
0.0145124
0.0145136
0.0145187
0.0145305
0.0145475
0.014572
0.014603
0.014642
0.0146884
0.0147432
0.0148054
0.0148753
0.0149518
0.0150344
0.0151216
0.0152119
0.0153031
0.0153928
0.0154783
0.015556
0.0156235
0.0156774
0.0157166
0.0157392
0.015747
0.0157398
0.0157223
0.0156953
0.0156647
0.0156302
0.0155978
0.0155649
0.0155376
0.0155104
0.0154906
0.0154704
0.0154591
0.0154461
0.0154445
0.0154394
0.0154486
0.0147021
0.014665
0.0146664
0.0146444
0.0146466
0.0146291
0.0146263
0.0146081
0.0145993
0.0145791
0.0145654
0.0145435
0.0145267
0.0145048
0.0144873
0.0144673
0.0144519
0.0144363
0.0144259
0.0144173
0.0144143
0.0144146
0.014421
0.0144318
0.0144491
0.014472
0.0145018
0.0145377
0.0145808
0.0146306
0.0146877
0.0147521
0.0148246
0.0149051
0.0149936
0.0150895
0.0151907
0.0152948
0.0153971
0.0154935
0.0155779
0.0156468
0.0156953
0.0157234
0.0157298
0.0157194
0.0156937
0.0156608
0.0156215
0.0155839
0.0155457
0.015514
0.0154831
0.0154606
0.0154378
0.015425
0.0154103
0.0154082
0.0154024
0.0154125
0.014635
0.0145966
0.0145983
0.0145755
0.0145777
0.0145592
0.0145559
0.0145364
0.0145265
0.0145045
0.014489
0.014465
0.0144459
0.0144212
0.0144008
0.0143775
0.0143586
0.014339
0.0143242
0.0143103
0.0143011
0.0142938
0.0142909
0.0142902
0.0142933
0.0142983
0.0143061
0.0143153
0.0143267
0.0143403
0.014358
0.0143822
0.0144166
0.0144651
0.0145314
0.0146182
0.0147261
0.0148535
0.0149952
0.0151444
0.0152908
0.0154251
0.0155366
0.01562
0.0156697
0.0156892
0.0156802
0.0156536
0.0156131
0.0155707
0.0155262
0.0154887
0.0154528
0.0154265
0.0154006
0.0153857
0.015369
0.0153661
0.0153593
0.0153704
0.0145493
0.0145096
0.0145114
0.0144877
0.0144897
0.0144702
0.0144662
0.0144453
0.0144342
0.0144104
0.0143931
0.0143668
0.0143453
0.0143177
0.0142942
0.0142673
0.0142444
0.0142201
0.0141996
0.0141787
0.0141606
0.0141416
0.0141233
0.0141019
0.0140775
0.0140463
0.0140071
0.0139572
0.0138969
0.0138273
0.0137537
0.0136831
0.0136258
0.0135931
0.0135962
0.0136446
0.0137438
0.0138955
0.0140945
0.0143313
0.0145897
0.0148518
0.015096
0.0153057
0.0154649
0.0155701
0.0156199
0.0156272
0.0156007
0.0155596
0.0155096
0.0154647
0.0154216
0.0153896
0.015359
0.0153408
0.0153213
0.0153169
0.0153087
0.0153205
0.0144559
0.0144153
0.0144171
0.0143927
0.0143945
0.0143741
0.0143693
0.0143469
0.0143343
0.0143085
0.0142891
0.0142601
0.0142357
0.0142047
0.0141775
0.0141461
0.0141181
0.0140875
0.0140591
0.0140276
0.0139951
0.013956
0.0139097
0.0138492
0.0137708
0.0136665
0.0135316
0.0133611
0.0131559
0.0129207
0.0126675
0.0124131
0.0121792
0.011989
0.0118651
0.0118268
0.0118874
0.0120537
0.0123225
0.0126832
0.0131138
0.0135869
0.0140662
0.0145174
0.0149048
0.0152071
0.0154099
0.0155217
0.0155552
0.01554
0.0154943
0.0154437
0.0153916
0.0153512
0.0153138
0.0152904
0.0152668
0.0152599
0.0152498
0.0152619
0.0143414
0.0142997
0.0143015
0.0142762
0.0142776
0.0142559
0.0142501
0.014226
0.0142118
0.0141838
0.014162
0.0141301
0.0141024
0.0140675
0.0140358
0.0139991
0.0139645
0.0139254
0.0138855
0.0138378
0.0137821
0.0137091
0.0136133
0.0134816
0.0133031
0.013063
0.0127521
0.0123645
0.0119053
0.0113885
0.0108396
0.0102915
0.00978211
0.00934976
0.00902947
0.00885088
0.00883457
0.00899319
0.00932713
0.00982783
0.0104719
0.0112268
0.0120444
0.0128716
0.0136464
0.0143166
0.0148377
0.015196
0.0153957
0.0154741
0.0154678
0.0154242
0.0153649
0.0153135
0.015266
0.0152344
0.0152048
0.0151937
0.0151809
0.0151928
0.0142198
0.0141774
0.0141791
0.0141532
0.0141539
0.014131
0.0141238
0.0140979
0.0140815
0.0140508
0.014026
0.0139903
0.0139584
0.0139185
0.013881
0.0138372
0.0137935
0.0137421
0.0136847
0.0136112
0.0135166
0.013385
0.0132021
0.0129442
0.01259
0.0121172
0.0115143
0.0107812
0.00993606
0.00901218
0.00805699
0.00712455
0.00626999
0.00554431
0.00499006
0.00464146
0.00452136
0.00464525
0.00501649
0.00563198
0.00647357
0.00751432
0.00870655
0.00999064
0.0112848
0.0125034
0.0135561
0.0143798
0.0149402
0.0152583
0.0153824
0.0153901
0.0153385
0.0152771
0.0152166
0.015173
0.0151345
0.0151169
0.0151001
0.0151109
0.0140743
0.0140311
0.0140325
0.0140056
0.0140054
0.0139808
0.013972
0.0139437
0.0139248
0.0138908
0.0138624
0.0138224
0.0137854
0.0137394
0.0136946
0.0136413
0.0135851
0.0135157
0.0134316
0.0133171
0.013159
0.0129304
0.0126026
0.0121379
0.0115038
0.0106753
0.00964854
0.00844263
0.00710312
0.00569367
0.00428812
0.0029597
0.00177319
0.000781881
2.45388e-05
-0.000470037
-0.000685322
-0.000608786
-0.000237643
0.00043077
0.00138763
0.00262191
0.00410254
0.00578631
0.00759708
0.00943764
0.0111802
0.012698
0.0138807
0.0146818
0.0151212
0.0152909
0.0152967
0.0152389
0.0151656
0.0151055
0.0150547
0.0150271
0.0150048
0.0150132
0.0139233
0.0138799
0.013881
0.0138531
0.0138517
0.0138254
0.0138143
0.0137831
0.0137608
0.0137227
0.0136894
0.0136437
0.0136001
0.013546
0.0134912
0.0134249
0.0133507
0.0132548
0.0131295
0.0129503
0.0126909
0.0123072
0.0117526
0.0109751
0.00993822
0.0086278
0.00706685
0.00531238
0.00344964
0.00157503
-0.000218326
-0.0018514
-0.00326527
-0.00441844
-0.00528731
-0.00585655
-0.00612201
-0.00607849
-0.00572826
-0.00506645
-0.0040958
-0.00281076
-0.00121976
0.00066757
0.0028095
0.00513866
0.0075332
0.00983316
0.0118486
0.0134181
0.0144572
0.0150048
0.0151911
0.0151846
0.0151092
0.0150302
0.0149633
0.0149213
0.0148915
0.0148956
0.0137454
0.0137015
0.0137019
0.0136728
0.0136697
0.013641
0.013627
0.0135924
0.0135659
0.013523
0.0134839
0.0134313
0.0133794
0.0133152
0.0132474
0.0131636
0.0130639
0.012929
0.0127422
0.0124649
0.0120518
0.0114379
0.0105585
0.00935589
0.00780678
0.00593108
0.00379998
0.00152049
-0.000784519
-0.00299986
-0.00503335
-0.00681962
-0.00832064
-0.00951517
-0.0103983
-0.0109677
-0.0112306
-0.0111883
-0.0108497
-0.0102121
-0.00928025
-0.00804166
-0.00649294
-0.00461489
-0.00240885
0.000115405
0.00289321
0.0058016
0.00863498
0.0111368
0.0130684
0.0143062
0.0149092
0.0150747
0.0150362
0.0149433
0.0148573
0.0147955
0.0147554
0.0147524
0.013565
0.0135214
0.0135211
0.0134909
0.0134856
0.0134543
0.0134366
0.0133977
0.0133658
0.0133165
0.0132698
0.0132082
0.0131453
0.0130677
0.0129825
0.0128746
0.0127391
0.0125482
0.0122715
0.0118512
0.0112184
0.0102865
0.00898195
0.00726027
0.00513664
0.00268838
4.54343e-05
-0.00264239
-0.00523588
-0.00762746
-0.00974858
-0.0115614
-0.0130536
-0.0142214
-0.0150723
-0.015609
-0.0158431
-0.0157768
-0.0154247
-0.0147872
-0.0138782
-0.0126893
-0.011223
-0.00945147
-0.00735698
-0.00490183
-0.0020812
0.0010719
0.00442801
0.00774066
0.0106743
0.0128928
0.014242
0.0148177
0.0149185
0.014835
0.0147324
0.0146443
0.0145908
0.0145764
0.0133545
0.0133109
0.0133094
0.0132775
0.0132694
0.0132347
0.0132125
0.0131685
0.0131302
0.0130736
0.0130178
0.0129455
0.0128694
0.0127752
0.0126675
0.0125277
0.0123433
0.0120749
0.0116734
0.0110572
0.0101327
0.00880003
0.00699429
0.00470996
0.0020243
-0.000918347
-0.00394037
-0.00687572
-0.00960011
-0.0120374
-0.0141551
-0.0159432
-0.017408
-0.0185522
-0.0193844
-0.0199019
-0.0201134
-0.0200162
-0.0196275
-0.0189501
-0.01801
-0.0168088
-0.0153672
-0.0136671
-0.0116996
-0.00941099
-0.00675732
-0.00368765
-0.000215044
0.00353059
0.00726208
0.0105293
0.0129177
0.0142367
0.0146953
0.014687
0.0145806
0.0144615
0.0143898
0.0143584
0.0131465
0.0131037
0.013101
0.0130678
0.0130563
0.0130177
0.0129901
0.0129397
0.0128933
0.0128273
0.0127601
0.0126742
0.0125811
0.0124654
0.0123286
0.0121467
0.0118973
0.0115251
0.0109584
0.0100896
0.0088056
0.0070084
0.00466604
0.00183549
-0.00133369
-0.00464155
-0.00789203
-0.0109365
-0.0136904
-0.0161194
-0.0182243
-0.0200125
-0.0214956
-0.0226699
-0.0235349
-0.0240742
-0.0242884
-0.0241663
-0.0237265
-0.0229725
-0.0219433
-0.0206512
-0.0191404
-0.0174103
-0.0154787
-0.0133025
-0.0108388
-0.00799586
-0.00469837
-0.000932595
0.00317613
0.00724211
0.0107325
0.013092
0.0142396
0.0144646
0.0143861
0.0142394
0.0141436
0.0140876
0.0129046
0.0128623
0.0128579
0.0128225
0.012807
0.0127638
0.0127297
0.0126721
0.0126167
0.0125402
0.0124599
0.0123584
0.0122455
0.0121043
0.0119317
0.0116971
0.0113652
0.0108618
0.0100895
0.00891781
0.00722542
0.00493667
0.00207457
-0.00122934
-0.00476225
-0.00829658
-0.0116525
-0.014724
-0.0174761
-0.0199116
-0.022053
-0.0239098
-0.0254868
-0.0267626
-0.0277213
-0.0283276
-0.028573
-0.0284354
-0.0279355
-0.0270757
-0.0259089
-0.024456
-0.0227855
-0.0209159
-0.018898
-0.0167122
-0.0143429
-0.011698
-0.00866952
-0.00514175
-0.00106582
0.0033648
0.00770383
0.0112021
0.0133415
0.0141085
0.0141206
0.0139653
0.0138419
0.0137502
0.0126726
0.012632
0.0126259
0.0125888
0.0125686
0.0125203
0.0124786
0.0124124
0.0123459
0.0122565
0.0121602
0.0120395
0.0119023
0.0117295
0.0115129
0.0112134
0.0107803
0.0101182
0.00910435
0.00759213
0.00546761
0.00269723
-0.000627358
-0.00430367
-0.00807928
-0.011732
-0.0151246
-0.018204
-0.020981
-0.0234826
-0.0257385
-0.0277474
-0.0294975
-0.0309428
-0.0320491
-0.0327605
-0.0330607
-0.0329163
-0.0323525
-0.0313693
-0.0300335
-0.0283709
-0.0264736
-0.0243747
-0.0221595
-0.019835
-0.0174253
-0.0148624
-0.0120484
-0.00882693
-0.00502827
-0.000643472
0.00411654
0.0085466
0.0118324
0.0134624
0.0137691
0.0136058
0.0134783
0.0133293
0.0124028
0.0123633
0.0123548
0.0123152
0.0122896
0.0122355
0.0121855
0.0121101
0.0120316
0.0119285
0.0118149
0.0116734
0.0115092
0.0113011
0.0110342
0.0106597
0.0101099
0.00926757
0.00798817
0.00611955
0.00357053
0.00036393
-0.00333875
-0.00728041
-0.0111986
-0.0149028
-0.0183118
-0.021422
-0.0242788
-0.0269185
-0.0293665
-0.0315997
-0.0335848
-0.035247
-0.0365352
-0.0373727
-0.0377392
-0.0375906
-0.03696
-0.0358432
-0.0343232
-0.0324264
-0.0302664
-0.0278841
-0.0253954
-0.0228298
-0.020255
-0.0176372
-0.0149153
-0.0119386
-0.0084842
-0.00440043
0.000369293
0.00531896
0.00967138
0.0123256
0.0133036
0.0131235
0.0130383
0.012806
0.0121531
0.0121162
0.0121056
0.0120641
0.0120327
0.0119723
0.0119127
0.0118267
0.0117341
0.0116149
0.0114808
0.0113149
0.0111191
0.01087
0.0105451
0.0100857
0.00940596
0.00836858
0.00681286
0.00459216
0.00165033
-0.00192815
-0.00592094
-0.010039
-0.0140354
-0.0177663
-0.0212069
-0.024393
-0.0273916
-0.0302359
-0.0329382
-0.035447
-0.0377058
-0.0396105
-0.0410965
-0.0420673
-0.042503
-0.0423485
-0.0416484
-0.0403936
-0.0386858
-0.0365489
-0.0341178
-0.0314332
-0.0286368
-0.0257716
-0.0229449
-0.020158
-0.0173981
-0.0145474
-0.0113858
-0.00768822
-0.00319796
0.00186197
0.00693841
0.0106497
0.0125506
0.0125466
0.0124613
0.0121766
0.0118606
0.0118254
0.0118121
0.0117679
0.01173
0.011663
0.0115935
0.0114967
0.01139
0.0112547
0.0111
0.0109092
0.010681
0.0103891
0.0100036
0.00945519
0.0086407
0.00740627
0.00558155
0.00303532
-0.000247542
-0.00412325
-0.00832472
-0.0125521
-0.0165916
-0.0203491
-0.0238498
-0.0271556
-0.0303454
-0.0334387
-0.0364308
-0.039238
-0.0417836
-0.0439344
-0.0456181
-0.0467183
-0.0472195
-0.0470535
-0.0462805
-0.0448842
-0.0429899
-0.0406161
-0.0379216
-0.0349406
-0.0318368
-0.0286548
-0.0255347
-0.0225056
-0.0196051
-0.0167604
-0.0137865
-0.0104452
-0.00636878
-0.00151019
0.0038543
0.00849057
0.0113222
0.0118957
0.0116872
0.0114338
0.0116021
0.0115705
0.0115548
0.0115089
0.0114644
0.0113906
0.0113102
0.0112013
0.0110785
0.0109248
0.0107467
0.010528
0.0102636
0.00992534
0.00947518
0.00883487
0.00788547
0.00646085
0.0043874
0.00155524
-0.00200944
-0.00611255
-0.0104592
-0.014755
-0.0188269
-0.0226255
-0.0262163
-0.0296761
-0.0330875
-0.036451
-0.039744
-0.0428503
-0.0456781
-0.048067
-0.049942
-0.051165
-0.0517284
-0.051547
-0.0507002
-0.0491616
-0.0470852
-0.0444826
-0.041541
-0.0382836
-0.034895
-0.0314109
-0.0279961
-0.0246958
-0.0215926
-0.0186615
-0.0157659
-0.0126984
-0.00904446
-0.00458189
0.000714878
0.0059473
0.00964153
0.0110562
0.0107509
0.0105441
0.0112941
0.0112648
0.0112461
0.0111977
0.0111464
0.0110657
0.0109748
0.0108549
0.0107172
0.0105466
0.0103467
0.0101021
0.00980366
0.00942164
0.00891036
0.00818429
0.00711112
0.00551755
0.00323076
0.000164981
-0.00361795
-0.00788449
-0.0123278
-0.016667
-0.0207702
-0.0246232
-0.0283225
-0.0319495
-0.0355881
-0.0392153
-0.0427952
-0.0461797
-0.0492694
-0.0518769
-0.0539299
-0.0552654
-0.0558866
-0.0556863
-0.0547667
-0.053087
-0.0508356
-0.0480144
-0.0448453
-0.041337
-0.0376976
-0.0339448
-0.0302626
-0.0266982
-0.0233713
-0.0202988
-0.0173947
-0.0145092
-0.0112179
-0.00723624
-0.0022378
0.00317796
0.00762165
0.00985347
0.00971139
0.00945252
0.0110378
0.011013
0.0109921
0.0109426
0.0108847
0.0107974
0.0106952
0.0105632
0.0104089
0.0102197
0.00999584
0.00972326
0.00938893
0.00896244
0.00839141
0.00758564
0.00640268
0.00466655
0.00220767
-0.00103738
-0.00497964
-0.00935845
-0.0138662
-0.0182376
-0.022377
-0.026294
-0.030108
-0.0338979
-0.0377486
-0.0416133
-0.0454486
-0.0490769
-0.0523987
-0.0551992
-0.0574139
-0.0588504
-0.0595267
-0.0593079
-0.0583229
-0.0565109
-0.0540995
-0.0510769
-0.0477058
-0.0439775
-0.0401278
-0.0361491
-0.0322436
-0.028447
-0.0249093
-0.0216763
-0.0187105
-0.0159286
-0.0129201
-0.0094205
-0.00484863
0.000394445
0.00538311
0.00826222
0.00859584
0.00815722
0.010722
0.0107
0.0106763
0.0106249
0.0105606
0.0104675
0.0103556
0.0102138
0.0100458
0.00984169
0.00959801
0.00930264
0.00893826
0.00847517
0.00785493
0.00698599
0.00571834
0.00387784
0.00129737
-0.00206732
-0.0061119
-0.010558
-0.0151056
-0.0195009
-0.0236778
-0.0276564
-0.0315748
-0.0355023
-0.0395293
-0.0435844
-0.0476263
-0.0514485
-0.0549604
-0.0579167
-0.0602675
-0.061786
-0.0625111
-0.0622734
-0.0612341
-0.0593047
-0.0567569
-0.0535584
-0.0500186
-0.0461061
-0.0420908
-0.0379332
-0.0338569
-0.0298728
-0.0261598
-0.0227752
-0.0197288
-0.0169948
-0.014198
-0.0111308
-0.00704373
-0.00220879
0.00303547
0.00636901
0.00733226
0.00666815
0.0104806
0.010464
0.0104386
0.0103873
0.0103171
0.0102187
0.0100965
0.00994419
0.00976089
0.00954052
0.00927533
0.00895612
0.00856135
0.00806361
0.00739968
0.00648016
0.00515066
0.00324231
0.000589025
-0.00284027
-0.00693727
-0.0114151
-0.0159859
-0.0204012
-0.0246153
-0.0286475
-0.0326498
-0.0366782
-0.040833
-0.04502
-0.0492093
-0.0531664
-0.0568178
-0.059885
-0.0623401
-0.0639172
-0.0646832
-0.0644287
-0.0633525
-0.0613307
-0.0586824
-0.0553464
-0.0516828
-0.0476306
-0.0435006
-0.039214
-0.0350228
-0.0309014
-0.0270614
-0.0235523
-0.0204336
-0.0177161
-0.0150801
-0.0123776
-0.00878785
-0.00448781
0.000696881
0.00428404
0.00582342
0.00499697
0.0101646
0.0101509
0.0101233
0.0100712
0.00999619
0.00989401
0.0097646
0.00960575
0.00941227
0.00918182
0.00890211
0.00856761
0.00815202
0.00763217
0.00694039
0.00599356
0.00463443
0.00270354
3.17463e-05
-0.00340339
-0.00750293
-0.0119767
-0.0165537
-0.0209805
-0.0252257
-0.0292934
-0.0333495
-0.0374298
-0.0416532
-0.0459014
-0.0501685
-0.0541898
-0.0579198
-0.0610415
-0.0635595
-0.0651626
-0.0659564
-0.0656839
-0.0645895
-0.0625043
-0.0597992
-0.0563725
-0.0526395
-0.0484983
-0.0443088
-0.0399435
-0.0356935
-0.0314847
-0.0275708
-0.0239737
-0.0208092
-0.0180979
-0.0155927
-0.0131877
-0.0100766
-0.00635738
-0.00149957
0.00213203
0.00407399
0.00319383
0.00995103
0.00994353
0.00991512
0.00986482
0.00978557
0.00968051
0.00954307
0.00937694
0.00917144
0.00892937
0.00863328
0.00828267
0.00784625
0.00730708
0.00659386
0.00563349
0.0042681
0.00235096
-0.000292846
-0.00368262
-0.00774
-0.012178
-0.0167457
-0.0211766
-0.0254463
-0.0295323
-0.0336116
-0.0376951
-0.0419268
-0.0461644
-0.0504369
-0.0544485
-0.0581921
-0.0613084
-0.0638441
-0.0654391
-0.0662464
-0.0659565
-0.0648659
-0.0627517
-0.0600407
-0.0565784
-0.0528383
-0.0486653
-0.0444753
-0.0400816
-0.035827
-0.0315772
-0.0276416
-0.0239952
-0.0208216
-0.0181206
-0.0157344
-0.013571
-0.0109037
-0.00776192
-0.00341709
5.45613e-05
0.00220278
0.00135428
0.00964019
0.00963524
0.00960557
0.00955613
0.00947456
0.00936926
0.00922857
0.00906122
0.00885117
0.00860651
0.00830387
0.00794894
0.00750425
0.00696153
0.00624495
0.00529602
0.00395589
0.00209596
-0.000469328
-0.00375732
-0.0077237
-0.0120869
-0.0166237
-0.021044
-0.0253283
-0.0294118
-0.0334844
-0.037522
-0.0417033
-0.0458571
-0.0500622
-0.0539865
-0.0576759
-0.0607222
-0.0632279
-0.064776
-0.0655802
-0.0652693
-0.0642025
-0.0620908
-0.0594244
-0.05598
-0.0522959
-0.0481461
-0.0440131
-0.0396361
-0.0354265
-0.0311757
-0.0272671
-0.0236081
-0.0204657
-0.0177877
-0.0155217
-0.0135551
-0.0112887
-0.00868534
-0.00495451
-0.00181503
0.000359064
-0.000422434
0.00946738
0.00946906
0.00943974
0.00939406
0.00931069
0.00920586
0.00906049
0.00889044
0.00867289
0.00842306
0.00811069
0.00774949
0.00729502
0.00674993
0.00603354
0.00510545
0.00380656
0.00203088
-0.000419266
-0.00356019
-0.00739133
-0.0116416
-0.016123
-0.0205172
-0.0248076
-0.0288752
-0.0329208
-0.0368763
-0.0409607
-0.0449698
-0.049043
-0.0528104
-0.056383
-0.0593
-0.0617313
-0.0631978
-0.0639847
-0.0636512
-0.0626285
-0.0605504
-0.0579775
-0.0546017
-0.0510336
-0.0469571
-0.0429335
-0.0386114
-0.0344896
-0.0302698
-0.0264305
-0.02279
-0.019718
-0.017078
-0.014942
-0.0131379
-0.0112316
-0.00910997
-0.00603275
-0.00335113
-0.00131679
-0.00203512
0.0091634
0.00916678
0.00913738
0.0090945
0.00901226
0.00891195
0.00876875
0.00860464
0.00838977
0.00814699
0.00783755
0.00748499
0.00703544
0.00650568
0.00580715
0.00492269
0.00368979
0.00203275
-0.000262499
-0.00320515
-0.00685074
-0.0109377
-0.0153285
-0.0196696
-0.0239537
-0.027991
-0.0319972
-0.0358436
-0.0397986
-0.0436133
-0.0475032
-0.0510515
-0.0544528
-0.057185
-0.0595027
-0.0608536
-0.06161
-0.0612486
-0.0602867
-0.0582639
-0.0558248
-0.0525554
-0.0491516
-0.0451845
-0.0413116
-0.03707
-0.0330705
-0.0289046
-0.0251724
-0.0215761
-0.0186129
-0.0160254
-0.0140342
-0.0123634
-0.0107787
-0.00906555
-0.00663121
-0.00447169
-0.00272428
-0.0034033
0.00904325
0.00905347
0.00902558
0.0089887
0.00890744
0.00881164
0.00866765
0.00850634
0.00828889
0.00804822
0.00773569
0.00738702
0.00693743
0.00642034
0.00573745
0.00489804
0.00373452
0.00220711
8.52567e-05
-0.00262657
-0.00604582
-0.00992189
-0.0141819
-0.018438
-0.0227008
-0.0266998
-0.0306658
-0.0343961
-0.0382111
-0.0418068
-0.0454832
-0.0487715
-0.0519629
-0.0544695
-0.056644
-0.0578542
-0.0585712
-0.0581787
-0.0572916
-0.0553407
-0.0530664
-0.0499287
-0.0467236
-0.0428868
-0.0391924
-0.0350443
-0.031192
-0.027094
-0.0234999
-0.0199664
-0.0171454
-0.0146206
-0.0127906
-0.011228
-0.00993383
-0.00855335
-0.00672404
-0.00509642
-0.00375543
-0.00442105
0.00874266
0.00875311
0.0087264
0.00869454
0.0086186
0.00853333
0.00839813
0.00825164
0.00804516
0.00782271
0.00752287
0.00719642
0.00676328
0.0062781
0.00562703
0.00485196
0.00377327
0.00239672
0.000469861
-0.00197402
-0.00512333
-0.00872923
-0.0128057
-0.0169268
-0.0211425
-0.0250863
-0.029016
-0.0326309
-0.0363141
-0.039684
-0.0431411
-0.0461466
-0.0491093
-0.0513611
-0.0533753
-0.0544229
-0.0550956
-0.0546632
-0.0538601
-0.0519826
-0.0498902
-0.046888
-0.0438981
-0.0401911
-0.0366891
-0.0326339
-0.0289486
-0.0249264
-0.0215029
-0.018047
-0.0154046
-0.0129492
-0.0113007
-0.00981962
-0.00878889
-0.00765455
-0.00636106
-0.00520891
-0.0043378
-0.00500345
0.00868634
0.00870364
0.00867948
0.00865592
0.00858369
0.0085074
0.00837522
0.00823739
0.00803268
0.00781954
0.0075217
0.00720817
0.00678122
0.00631981
0.0056911
0.00497278
0.00396869
0.0027355
0.000997514
-0.00117042
-0.00402742
-0.00731821
-0.0111587
-0.0150893
-0.0192205
-0.0230877
-0.0269842
-0.0304967
-0.0340728
-0.0372372
-0.0404947
-0.0432248
-0.0459641
-0.0479558
-0.0498074
-0.0506838
-0.0513116
-0.0508325
-0.0501161
-0.0483053
-0.0463968
-0.0435185
-0.0407423
-0.0371504
-0.0338418
-0.0298703
-0.0263658
-0.0224225
-0.0191976
-0.0158273
-0.0133942
-0.0110065
-0.00955811
-0.00813073
-0.00734572
-0.00637646
-0.00554442
-0.00477086
-0.00436927
-0.00502628
0.0083792
0.00839455
0.00837282
0.00835682
0.00829481
0.00823652
0.00812077
0.00800852
0.00782364
0.00764127
0.00736512
0.00708733
0.0066853
0.00626925
0.00567817
0.00503392
0.0041123
0.00303201
0.00148363
-0.000395403
-0.00294128
-0.00586862
-0.00941693
-0.0130832
-0.0170762
-0.0208211
-0.0246763
-0.0280881
-0.0315882
-0.0345731
-0.0376718
-0.0401494
-0.0426953
-0.044435
-0.0461403
-0.0468408
-0.0474306
-0.0468906
-0.0462598
-0.0444914
-0.0427575
-0.0399713
-0.0373971
-0.0338906
-0.0307752
-0.0268737
-0.0235728
-0.0197122
-0.0167265
-0.0134489
-0.0112675
-0.00894103
-0.00772173
-0.00631287
-0.00576499
-0.00486686
-0.00440591
-0.00385531
-0.00383435
-0.00444069
0.0083979
0.00842011
0.00840162
0.00839639
0.00834037
0.00829583
0.00818608
0.00808841
0.00790799
0.00774138
0.0074694
0.00721154
0.00681712
0.00643157
0.00586105
0.00527514
0.00441482
0.00346512
0.00207742
0.000464299
-0.00178455
-0.0043341
-0.00755315
-0.0108918
-0.014684
-0.0182492
-0.0220354
-0.0253388
-0.0287859
-0.0316244
-0.034613
-0.0368813
-0.0392795
-0.0407984
-0.0423865
-0.0429227
-0.0434845
-0.0428756
-0.0423229
-0.0405718
-0.0389923
-0.0362643
-0.0338725
-0.0304243
-0.0275005
-0.0236601
-0.0205852
-0.0168102
-0.0140976
-0.010909
-0.00900975
-0.00672395
-0.00575673
-0.00432528
-0.00401842
-0.00310795
-0.00295428
-0.00246672
-0.00268949
-0.00317407
0.00806647
0.00808372
0.00806894
0.00807452
0.00803441
0.00801756
0.00793291
0.00787418
0.00772264
0.00760112
0.00735844
0.00714988
0.00678521
0.00645605
0.00592211
0.00541317
0.00461895
0.00380463
0.00256461
0.00120805
-0.000760614
-0.00292187
-0.00578802
-0.00873483
-0.012261
-0.0155648
-0.0192335
-0.0223871
-0.025786
-0.0284867
-0.0314108
-0.0335027
-0.0358092
-0.0371361
-0.0386506
-0.0390314
-0.039587
-0.0388938
-0.0384196
-0.0366511
-0.035215
-0.032505
-0.030292
-0.0268755
-0.0241657
-0.0203812
-0.0175815
-0.0138949
-0.0115143
-0.00840577
-0.00684402
-0.00456921
-0.003902
-0.00239199
-0.00235291
-0.00132362
-0.00142478
-0.000795193
-0.00107497
-0.00132723
0.00817267
0.00819708
0.00818584
0.0082054
0.0081727
0.00817503
0.00809759
0.00805927
0.0079119
0.00781152
0.00757092
0.00738705
0.00702581
0.00673025
0.00620792
0.00575336
0.00499694
0.00428796
0.00315466
0.0020105
0.000272787
-0.00153462
-0.00406279
-0.00659554
-0.0098094
-0.0127823
-0.0162702
-0.0192178
-0.0225431
-0.0250975
-0.0279779
-0.0299213
-0.0321794
-0.03335
-0.0348298
-0.0350777
-0.0356467
-0.0348702
-0.0344741
-0.0326728
-0.0313716
-0.0286628
-0.0266314
-0.0232425
-0.0207722
-0.0170503
-0.0145645
-0.0109635
-0.00894796
-0.00589092
-0.00469123
-0.00237546
-0.00203628
-0.000379666
-0.000644593
0.00059851
0.000233737
0.00116773
0.000959948
0.0010604
0.00778973
0.00780499
0.00779899
0.00783434
0.00782446
0.00786811
0.00782545
0.00784362
0.00773388
0.00769586
0.00749002
0.00737011
0.00703949
0.00681061
0.00631863
0.00594213
0.00522973
0.00463446
0.00359331