/*--------------------------------*- C++ -*----------------------------------*\
| =========                 |                                                 |
| \\      /  F ield         | OpenFOAM: The Open Source CFD Toolbox           |
|  \\    /   O peration     | Version:  2406                                  |
|   \\  /    A nd           | Website:  www.openfoam.com                      |
|    \\/     M anipulation  |                                                 |
\*---------------------------------------------------------------------------*/
FoamFile
{
    version     2.0;
    format      ascii;
    arch        "LSB;label=32;scalar=64";
    class       volVectorField;
    location    "15.6";
    object      U;
}
// * * * * * * * * * * * * * * * * * * * * * * * * * * * * * * * * * * * * * //

dimensions      [0 1 -1 0 0 0 0];

internalField   nonuniform List<vector> 
3600
(
(2.05651e-05 -1.91763e-05 0)
(8.83826e-07 1.24851e-05 0)
(-0.000110643 4.04068e-05 0)
(-0.000286082 6.19585e-05 0)
(-0.000511936 7.10831e-05 0)
(-0.000756453 7.60943e-05 0)
(-0.00101774 7.68472e-05 0)
(-0.00128139 7.75521e-05 0)
(-0.00155207 7.76464e-05 0)
(-0.0018245 7.86601e-05 0)
(-0.00210335 7.97788e-05 0)
(-0.00238601 8.14218e-05 0)
(-0.00267476 8.29094e-05 0)
(-0.00296705 8.43262e-05 0)
(-0.00326275 8.52201e-05 0)
(-0.00355871 8.55657e-05 0)
(-0.00385282 8.50136e-05 0)
(-0.0041409 8.33965e-05 0)
(-0.00441876 8.02952e-05 0)
(-0.00468033 7.53209e-05 0)
(-0.00491862 6.78797e-05 0)
(-0.00512457 5.7357e-05 0)
(-0.00528761 4.30222e-05 0)
(-0.0053951 2.41896e-05 0)
(-0.00543297 2.30992e-07 0)
(-0.00538589 -2.9252e-05 0)
(-0.00523836 -6.43411e-05 0)
(-0.00497564 -0.000104631 0)
(-0.00458538 -0.000149135 0)
(-0.00405917 -0.000196187 0)
(-0.00339433 -0.000243447 0)
(-0.00259548 -0.000287977 0)
(-0.00167571 -0.000326448 0)
(-0.00065709 -0.000355435 0)
(0.000429577 -0.000371813 0)
(0.00154619 -0.000373183 0)
(0.00264953 -0.000358256 0)
(0.00369458 -0.00032715 0)
(0.00463796 -0.000281474 0)
(0.00544204 -0.000224243 0)
(0.00607767 -0.000159489 0)
(0.00652725 -9.18344e-05 0)
(0.00678483 -2.57904e-05 0)
(0.00685694 3.46277e-05 0)
(0.00675922 8.65373e-05 0)
(0.00651602 0.000128092 0)
(0.00615424 0.0001589 0)
(0.00570434 0.000179291 0)
(0.00519209 0.000190809 0)
(0.00464424 0.000194872 0)
(0.00407695 0.000193904 0)
(0.00350949 0.000189181 0)
(0.00294521 0.000183295 0)
(0.0023987 0.000176222 0)
(0.00186185 0.000170147 0)
(0.00135528 0.000161145 0)
(0.000869049 0.000148796 0)
(0.000455999 0.000118439 0)
(0.000129811 6.88734e-05 0)
(-8.07368e-06 -8.43011e-06 0)
(-1.09198e-05 -1.31064e-06 0)
(-0.000174544 0.000169182 0)
(-0.000533971 0.000314641 0)
(-0.00102358 0.000429458 0)
(-0.00162729 0.000493754 0)
(-0.00228623 0.00053429 0)
(-0.00299391 0.000553878 0)
(-0.00372138 0.000568051 0)
(-0.00447271 0.000577746 0)
(-0.00523634 0.00058863 0)
(-0.00601765 0.000598991 0)
(-0.0068104 0.000609762 0)
(-0.00761613 0.000618597 0)
(-0.00842828 0.000624967 0)
(-0.00924372 0.000626898 0)
(-0.010054 0.000623473 0)
(-0.0108517 0.000612892 0)
(-0.0116257 0.000593709 0)
(-0.0123642 0.000563688 0)
(-0.0130518 0.000520494 0)
(-0.0136711 0.00046113 0)
(-0.0142011 0.000382477 0)
(-0.014618 0.000281194 0)
(-0.0148945 0.000154321 0)
(-0.0150016 -4.51905e-07 0)
(-0.0149088 -0.000184092 0)
(-0.0145865 -0.000395757 0)
(-0.0140078 -0.000632163 0)
(-0.0131513 -0.000887245 0)
(-0.0120037 -0.0011519 0)
(-0.0105628 -0.00141416 0)
(-0.00883956 -0.00165966 0)
(-0.00685988 -0.00187256 0)
(-0.00466541 -0.00203686 0)
(-0.00231298 -0.00213792 0)
(0.000127409 -0.00216426 0)
(0.00257579 -0.00210903 0)
(0.00494714 -0.00197134 0)
(0.00715668 -0.0017568 0)
(0.0091265 -0.00147739 0)
(0.0107907 -0.00115032 0)
(0.0121012 -0.000796358 0)
(0.01303 -0.000437281 0)
(0.0135717 -9.37692e-05 0)
(0.0137404 0.000217221 0)
(0.0135692 0.000483277 0)
(0.0131017 0.000698076 0)
(0.0123921 0.000859972 0)
(0.0114918 0.000972778 0)
(0.0104562 0.00104227 0)
(0.00932524 0.00107782 0)
(0.00814373 0.00108683 0)
(0.00693086 0.00107923 0)
(0.00572281 0.00105777 0)
(0.00451975 0.00102789 0)
(0.0033682 0.00097727 0)
(0.00226483 0.000898188 0)
(0.00130807 0.000744269 0)
(0.00051603 0.000502804 0)
(7.39284e-05 0.000132724 0)
(-4.84477e-05 0.000123538 0)
(-0.000372017 0.000547684 0)
(-0.000992456 0.000896498 0)
(-0.00178605 0.00116601 0)
(-0.00273961 0.00133248 0)
(-0.00377124 0.001441 0)
(-0.00487582 0.0015034 0)
(-0.00601378 0.00154817 0)
(-0.00718956 0.00158123 0)
(-0.00838606 0.00161282 0)
(-0.00960804 0.00164129 0)
(-0.0108452 0.00166741 0)
(-0.0120971 0.00168693 0)
(-0.0133533 0.00169774 0)
(-0.0146076 0.0016958 0)
(-0.0158473 0.00167843 0)
(-0.0170614 0.00164171 0)
(-0.0182341 0.00158203 0)
(-0.0193492 0.00149444 0)
(-0.0203864 0.00137361 0)
(-0.021323 0.00121306 0)
(-0.0221319 0.00100606 0)
(-0.022783 0.000745771 0)
(-0.0232425 0.000426326 0)
(-0.0234744 4.36033e-05 0)
(-0.0234413 -0.000403471 0)
(-0.0231068 -0.000911936 0)
(-0.0224376 -0.00147368 0)
(-0.0214064 -0.00207483 0)
(-0.019995 -0.0026954 0)
(-0.018197 -0.00330971 0)
(-0.016021 -0.00388736 0)
(-0.0134925 -0.00439503 0)
(-0.0106553 -0.00479885 0)
(-0.00757186 -0.00506743 0)
(-0.00432213 -0.00517505 0)
(-0.00100062 -0.00510484 0)
(0.00228824 -0.00485135 0)
(0.0054357 -0.00442222 0)
(0.00833639 -0.0038384 0)
(0.010895 -0.00313267 0)
(0.0130346 -0.00234679 0)
(0.0147003 -0.00152699 0)
(0.0158654 -0.000719336 0)
(0.0165285 3.54547e-05 0)
(0.0167156 0.000705211 0)
(0.01647 0.00126952 0)
(0.0158533 0.00171903 0)
(0.0149283 0.00205605 0)
(0.0137667 0.00229002 0)
(0.0124247 0.00243765 0)
(0.0109659 0.00251534 0)
(0.00942397 0.00254184 0)
(0.00785286 0.00252605 0)
(0.00626288 0.00247491 0)
(0.00472032 0.00236933 0)
(0.00322667 0.00218529 0)
(0.00191161 0.00184726 0)
(0.000791534 0.00130707 0)
(0.00013246 0.000479012 0)
(-8.76638e-05 0.000352191 0)
(-0.000580792 0.00113448 0)
(-0.00146971 0.00174285 0)
(-0.002562 0.0021967 0)
(-0.00384846 0.00248621 0)
(-0.00522397 0.00267804 0)
(-0.0066893 0.00279615 0)
(-0.0081953 0.00288176 0)
(-0.0097487 0.00294612 0)
(-0.0113265 0.00300364 0)
(-0.012933 0.00305266 0)
(-0.0145534 0.0030936 0)
(-0.0161854 0.00312031 0)
(-0.0178153 0.00312924 0)
(-0.0194355 0.00311452 0)
(-0.0210315 0.00307201 0)
(-0.0225919 0.00299603 0)
(-0.0241008 0.00288103 0)
(-0.0255426 0.00271963 0)
(-0.0268974 0.00250355 0)
(-0.0281437 0.00222288 0)
(-0.0292549 0.00186722 0)
(-0.0302013 0.00142604 0)
(-0.0309482 0.00089026 0)
(-0.0314579 0.000253429 0)
(-0.0316893 -0.000486377 0)
(-0.0316 -0.00132511 0)
(-0.031148 -0.00225111 0)
(-0.0302946 -0.00324417 0)
(-0.0290073 -0.00427487 0)
(-0.0272633 -0.00530496 0)
(-0.0250538 -0.00628847 0)
(-0.0223872 -0.00717403 0)
(-0.0192928 -0.00790805 0)
(-0.0158231 -0.00843899 0)
(-0.0120543 -0.00872215 0)
(-0.00808527 -0.00872471 0)
(-0.0040338 -0.00843024 0)
(-3.06099e-05 -0.00784213 0)
(0.00378931 -0.00698503 0)
(0.00729568 -0.00590389 0)
(0.0103741 -0.00466033 0)
(0.0129337 -0.00332652 0)
(0.0149155 -0.00197788 0)
(0.0162934 -0.000684626 0)
(0.0170769 0.000494469 0)
(0.0173014 0.00151791 0)
(0.0170293 0.00236228 0)
(0.0163302 0.0030233 0)
(0.0152882 0.00351051 0)
(0.0139732 0.00384586 0)
(0.0124656 0.0040541 0)
(0.0108131 0.00416282 0)
(0.00908651 0.00418816 0)
(0.00730596 0.00413916 0)
(0.00555468 0.0039924 0)
(0.00383688 0.00370676 0)
(0.00230514 0.00317914 0)
(0.000973781 0.00230671 0)
(0.000170096 0.000933429 0)
(-0.000122846 0.000693053 0)
(-0.000780856 0.00195481 0)
(-0.00193674 0.00288933 0)
(-0.00332366 0.00356167 0)
(-0.00493395 0.00399483 0)
(-0.0066363 0.00428241 0)
(-0.00843839 0.00446565 0)
(-0.0102814 0.00459853 0)
(-0.0121756 0.00469856 0)
(-0.0140925 0.00478363 0)
(-0.0160368 0.00485228 0)
(-0.0179895 0.00490449 0)
(-0.0199488 0.00493288 0)
(-0.0218996 0.00493316 0)
(-0.0238365 0.00489875 0)
(-0.0257477 0.00482511 0)
(-0.0276271 0.00470589 0)
(-0.0294649 0.00453451 0)
(-0.0312534 0.0043017 0)
(-0.0329809 0.00399652 0)
(-0.0346343 0.0036054 0)
(-0.0361949 0.00311352 0)
(-0.0376389 0.00250524 0)
(-0.0389351 0.00176607 0)
(-0.0400448 0.000884291 0)
(-0.0409207 -0.000146666 0)
(-0.0415079 -0.00132604 0)
(-0.0417446 -0.00264331 0)
(-0.0415651 -0.00407632 0)
(-0.040904 -0.00558979 0)
(-0.039701 -0.0071349 0)
(-0.0379082 -0.00865001 0)
(-0.0354962 -0.010063 0)
(-0.0324616 -0.0112952 0)
(-0.0288323 -0.0122667 0)
(-0.0246714 -0.0129038 0)
(-0.0200782 -0.0131462 0)
(-0.0151859 -0.0129545 0)
(-0.0101551 -0.0123172 0)
(-0.00516428 -0.0112542 0)
(-0.000396705 -0.00981783 0)
(0.00397495 -0.00808904 0)
(0.00780186 -0.00617002 0)
(0.0109737 -0.00417335 0)
(0.0134231 -0.00220932 0)
(0.0151325 -0.000374775 0)
(0.0161241 0.00125675 0)
(0.01646 0.00263868 0)
(0.0162191 0.00375348 0)
(0.015502 0.00460689 0)
(0.0143978 0.0052243 0)
(0.0130078 0.0056392 0)
(0.0113977 0.00588896 0)
(0.00965731 0.00599937 0)
(0.00781846 0.0059826 0)
(0.00598033 0.00581349 0)
(0.00415198 0.00543217 0)
(0.00250576 0.00470739 0)
(0.00105959 0.00346853 0)
(0.000184085 0.00147159 0)
(-0.000158303 0.00113414 0)
(-0.000981565 0.00298946 0)
(-0.00240199 0.00430722 0)
(-0.00407799 0.00522128 0)
(-0.00600202 0.00580685 0)
(-0.00801573 0.00619229 0)
(-0.0101341 0.00644107 0)
(-0.0122884 0.00662025 0)
(-0.0144936 0.00675387 0)
(-0.0167155 0.00686264 0)
(-0.018961 0.00694568 0)
(-0.0212087 0.00700318 0)
(-0.02346 0.00702816 0)
(-0.0257028 0.00701759 0)
(-0.0279395 0.00696658 0)
(-0.0301678 0.00687256 0)
(-0.0323949 0.00673073 0)
(-0.0346259 0.00653525 0)
(-0.0368702 0.00627623 0)
(-0.0391336 0.00594047 0)
(-0.0414202 0.00551018 0)
(-0.0437259 0.0049642 0)
(-0.0460378 0.00427836 0)
(-0.0483287 0.00342758 0)
(-0.0505552 0.00238779 0)
(-0.0526541 0.00113923 0)
(-0.0545428 -0.000330163 0)
(-0.0561193 -0.0020206 0)
(-0.057267 -0.00391663 0)
(-0.0578614 -0.00598361 0)
(-0.0577796 -0.00816562 0)
(-0.0569108 -0.010385 0)
(-0.0551682 -0.0125447 0)
(-0.0524996 -0.0145327 0)
(-0.0488967 -0.0162292 0)
(-0.0444016 -0.0175165 0)
(-0.0391105 -0.0182899 0)
(-0.0331727 -0.0184694 0)
(-0.0267858 -0.0180109 0)
(-0.0201848 -0.0169142 0)
(-0.0136266 -0.0152278 0)
(-0.00736935 -0.013047 0)
(-0.00165126 -0.010506 0)
(0.00333286 -0.00776369 0)
(0.00744493 -0.00498489 0)
(0.010617 -0.00232209 0)
(0.0128436 0.000101586 0)
(0.0141819 0.00220143 0)
(0.0147229 0.00393561 0)
(0.0145921 0.00529951 0)
(0.0139085 0.00631935 0)
(0.0128059 0.00703773 0)
(0.0113786 0.00750409 0)
(0.00974297 0.00775723 0)
(0.00794999 0.00781584 0)
(0.0061175 0.0076562 0)
(0.0042646 0.00720074 0)
(0.00258015 0.00628877 0)
(0.00109022 0.00467653 0)
(0.000187835 0.00202617 0)
(-0.000192533 0.00168203 0)
(-0.00117719 0.00424887 0)
(-0.00285588 0.00600931 0)
(-0.00481258 0.00719012 0)
(-0.00703924 0.00793689 0)
(-0.00934989 0.00842095 0)
(-0.0117666 0.00873342 0)
(-0.0142109 0.00895529 0)
(-0.0167028 0.00911809 0)
(-0.019204 0.00924538 0)
(-0.0217253 0.00933818 0)
(-0.0242466 0.00939875 0)
(-0.0267775 0.0094235 0)
(-0.0293151 0.009414 0)
(-0.0318782 0.00937081 0)
(-0.034483 0.00929686 0)
(-0.0371608 0.00919196 0)
(-0.0399426 0.00905321 0)
(-0.0428662 0.0088712 0)
(-0.0459653 0.00862998 0)
(-0.0492695 0.00830508 0)
(-0.0527944 0.00786395 0)
(-0.0565378 0.00726597 0)
(-0.0604695 0.00646449 0)
(-0.0645271 0.00540968 0)
(-0.0686099 0.00405362 0)
(-0.0725795 0.00235654 0)
(-0.076263 0.000294548 0)
(-0.079463 -0.00213276 0)
(-0.0819701 -0.00489561 0)
(-0.0835792 -0.00792996 0)
(-0.084105 -0.0111365 0)
(-0.0833968 -0.0143834 0)
(-0.0813505 -0.0175128 0)
(-0.0779187 -0.0203502 0)
(-0.0731184 -0.022717 0)
(-0.0670361 -0.0244451 0)
(-0.0598301 -0.0253925 0)
(-0.0517292 -0.0254599 0)
(-0.0430245 -0.024605 0)
(-0.0340554 -0.0228532 0)
(-0.0251856 -0.0203014 0)
(-0.0167754 -0.0171125 0)
(-0.00914553 -0.0134992 0)
(-0.00255008 -0.0097001 0)
(0.00285088 -0.00594938 0)
(0.00699298 -0.00244888 0)
(0.00991003 0.000651835 0)
(0.0117015 0.00326622 0)
(0.0125243 0.00536655 0)
(0.0125421 0.00697471 0)
(0.0119377 0.00814283 0)
(0.0108513 0.00893667 0)
(0.00944011 0.00941388 0)
(0.00778694 0.00960577 0)
(0.00603582 0.00949493 0)
(0.00422427 0.00898954 0)
(0.00255834 0.00789999 0)
(0.00107661 0.00591098 0)
(0.000182559 0.00259048 0)
(-0.000227099 0.0023292 0)
(-0.0013708 0.00571801 0)
(-0.00330035 0.00797425 0)
(-0.00552738 0.00944112 0)
(-0.00804337 0.0103525 0)
(-0.0106356 0.0109313 0)
(-0.0133335 0.0113015 0)
(-0.016049 0.0115593 0)
(-0.0188088 0.0117451 0)
(-0.0215718 0.0118862 0)
(-0.0243567 0.0119883 0)
(-0.0271495 0.0120589 0)
(-0.0299748 0.0121028 0)
(-0.0328484 0.0121312 0)
(-0.0358155 0.0121554 0)
(-0.0389232 0.0121886 0)
(-0.0422393 0.0122392 0)
(-0.0458335 0.0123093 0)
(-0.0497837 0.0123905 0)
(-0.0541602 0.0124613 0)
(-0.0590225 0.0124842 0)
(-0.0644029 0.0124044 0)
(-0.0702975 0.0121493 0)
(-0.0766507 0.0116311 0)
(-0.0833486 0.0107522 0)
(-0.0902142 0.00941568 0)
(-0.0970146 0.00753685 0)
(-0.103473 0.00505805 0)
(-0.109292 0.00196094 0)
(-0.114171 -0.00172425 0)
(-0.117834 -0.00591489 0)
(-0.120038 -0.0104774 0)
(-0.120589 -0.0152331 0)
(-0.119348 -0.0199679 0)
(-0.116233 -0.0244431 0)
(-0.111233 -0.0284095 0)
(-0.104407 -0.0316226 0)
(-0.0958969 -0.033861 0)
(-0.0859301 -0.0349465 0)
(-0.0748245 -0.0347656 0)
(-0.0629806 -0.0332888 0)
(-0.0508632 -0.0305852 0)
(-0.0389707 -0.0268257 0)
(-0.0277895 -0.0222718 0)
(-0.0177461 -0.0172479 0)
(-0.00915738 -0.0121 0)
(-0.00220577 -0.00714977 0)
(0.00307553 -0.00265465 0)
(0.0067713 0.00121702 0)
(0.00906675 0.00438866 0)
(0.0101811 0.00686464 0)
(0.0103656 0.00870382 0)
(0.0098292 0.00999295 0)
(0.00879053 0.0108167 0)
(0.00738307 0.0112289 0)
(0.00579 0.0112264 0)
(0.00407897 0.0107103 0)
(0.00247669 0.00946573 0)
(0.00103974 0.00711236 0)
(0.000174127 0.00313243 0)
(-0.000260747 0.00307865 0)
(-0.00155815 0.00739794 0)
(-0.00372838 0.0102011 0)
(-0.00621291 0.0119726 0)
(-0.00900339 0.0130518 0)
(-0.0118616 0.0137214 0)
(-0.0148245 0.0141436 0)
(-0.017796 0.0144315 0)
(-0.0208105 0.0146367 0)
(-0.0238279 0.0147928 0)
(-0.0268794 0.0149142 0)
(-0.0299642 0.0150198 0)
(-0.0331316 0.015129 0)
(-0.0364271 0.0152698 0)
(-0.0399353 0.0154713 0)
(-0.0437479 0.0157622 0)
(-0.0479829 0.016163 0)
(-0.0527608 0.0166823 0)
(-0.0582078 0.0173091 0)
(-0.0644325 0.0180085 0)
(-0.0715163 0.018715 0)
(-0.0794867 0.0193295 0)
(-0.0883024 0.0197195 0)
(-0.0978338 0.0197255 0)
(-0.107861 0.0191743 0)
(-0.118081 0.0179 0)
(-0.128133 0.0157668 0)
(-0.137628 0.0126908 0)
(-0.146188 0.00865497 0)
(-0.153466 0.00371411 0)
(-0.159165 -0.00200853 0)
(-0.163038 -0.00833026 0)
(-0.16489 -0.0150199 0)
(-0.164572 -0.0218084 0)
(-0.161984 -0.0283995 0)
(-0.157072 -0.0344798 0)
(-0.149841 -0.0397311 0)
(-0.140369 -0.0438465 0)
(-0.128824 -0.0465513 0)
(-0.115484 -0.0476296 0)
(-0.100746 -0.0469544 0)
(-0.0851271 -0.0445166 0)
(-0.069241 -0.0404469 0)
(-0.0537546 -0.0350207 0)
(-0.0393207 -0.0286385 0)
(-0.0264965 -0.0217789 0)
(-0.0156777 -0.014931 0)
(-0.00704958 -0.00852353 0)
(-0.000599647 -0.0028688 0)
(0.00385926 0.00185892 0)
(0.00660302 0.00561725 0)
(0.00796886 0.0084603 0)
(0.00826074 0.0104986 0)
(0.00778556 0.0118536 0)
(0.00675265 0.0126153 0)
(0.00540322 0.0128077 0)
(0.00385089 0.0123367 0)
(0.00235123 0.01097 0)
(0.000985937 0.00827319 0)
(0.000162956 0.00365344 0)
(-0.00029382 0.00392405 0)
(-0.00173923 0.00927485 0)
(-0.00413852 0.0126708 0)
(-0.00686652 0.014762 0)
(-0.00991571 0.0160102 0)
(-0.0130244 0.016766 0)
(-0.0162379 0.0172347 0)
(-0.0194538 0.0175492 0)
(-0.022717 0.0177753 0)
(-0.0259927 0.0179576 0)
(-0.0293314 0.0181258 0)
(-0.0327545 0.0183176 0)
(-0.0363477 0.0185764 0)
(-0.040199 0.0189557 0)
(-0.0444471 0.0195094 0)
(-0.0492416 0.0202875 0)
(-0.0547625 0.0213245 0)
(-0.0611872 0.0226318 0)
(-0.068688 0.0241858 0)
(-0.0773963 0.0259179 0)
(-0.0873812 0.0277048 0)
(-0.098613 0.0293646 0)
(-0.110944 0.0306631 0)
(-0.124097 0.0313326 0)
(-0.137686 0.0311041 0)
(-0.151251 0.0297453 0)
(-0.164319 0.0270961 0)
(-0.176444 0.0230889 0)
(-0.187243 0.0177524 0)
(-0.196406 0.0112007 0)
(-0.203695 0.00361642 0)
(-0.208924 -0.00476627 0)
(-0.211946 -0.0136749 0)
(-0.212635 -0.0228071 0)
(-0.210881 -0.0318353 0)
(-0.206581 -0.0404094 0)
(-0.199659 -0.0481607 0)
(-0.190076 -0.0547107 0)
(-0.177865 -0.0596865 0)
(-0.163166 -0.0627479 0)
(-0.146266 -0.0636244 0)
(-0.12762 -0.0621608 0)
(-0.10787 -0.058365 0)
(-0.0878136 -0.0524441 0)
(-0.0683413 -0.0448147 0)
(-0.0503292 -0.0360699 0)
(-0.034516 -0.0269012 0)
(-0.0213844 -0.0179865 0)
(-0.0111166 -0.00987941 0)
(-0.00359762 -0.00293963 0)
(0.00148057 0.00268345 0)
(0.00455153 0.00700933 0)
(0.00604281 0.0101676 0)
(0.00638306 0.0123264 0)
(0.00588987 0.0136297 0)
(0.00488841 0.0141464 0)
(0.00355914 0.013805 0)
(0.00219926 0.0123691 0)
(0.000925718 0.00936502 0)
(0.000151878 0.00414044 0)
(-0.000325378 0.00486421 0)
(-0.00191087 0.0113426 0)
(-0.00452566 0.0153741 0)
(-0.00748171 0.0177991 0)
(-0.0107733 0.0192178 0)
(-0.0141176 0.0200568 0)
(-0.0175694 0.0205699 0)
(-0.0210226 0.0209129 0)
(-0.0245362 0.0211713 0)
(-0.0280869 0.0214068 0)
(-0.0317524 0.0216737 0)
(-0.0355878 0.0220388 0)
(-0.0397278 0.0225805 0)
(-0.0443172 0.0233872 0)
(-0.0495617 0.0245451 0)
(-0.0556794 0.0261276 0)
(-0.0629158 0.0281796 0)
(-0.0714982 0.030702 0)
(-0.0816206 0.0336326 0)
(-0.0933899 0.0368293 0)
(-0.106792 0.0400588 0)
(-0.121648 0.0430005 0)
(-0.137612 0.0452727 0)
(-0.154192 0.0464808 0)
(-0.17082 0.0462789 0)
(-0.186922 0.0444235 0)
(-0.201994 0.0408016 0)
(-0.215639 0.0354287 0)
(-0.227573 0.0284265 0)
(-0.237615 0.0199925 0)
(-0.245656 0.0103717 0)
(-0.25163 -0.000163739 0)
(-0.255483 -0.0113266 0)
(-0.257148 -0.0228171 0)
(-0.256526 -0.0343188 0)
(-0.253479 -0.0454912 0)
(-0.247839 -0.0559608 0)
(-0.239421 -0.0653174 0)
(-0.228061 -0.0731175 0)
(-0.213666 -0.078902 0)
(-0.196273 -0.0822313 0)
(-0.176118 -0.0827404 0)
(-0.153689 -0.080211 0)
(-0.12976 -0.0746493 0)
(-0.10536 -0.066351 0)
(-0.081685 -0.0559209 0)
(-0.0599267 -0.0442223 0)
(-0.0410675 -0.0322427 0)
(-0.0257081 -0.0209069 0)
(-0.0139821 -0.0109102 0)
(-0.00563933 -0.00262909 0)
(-0.000165138 0.00385185 0)
(0.00301932 0.00865925 0)
(0.00450696 0.0120139 0)
(0.00476676 0.0141358 0)
(0.00424334 0.015164 0)
(0.00321198 0.0150745 0)
(0.00203036 0.0136464 0)
(0.000864176 0.0103863 0)
(0.000141646 0.00459878 0)
(-0.000355373 0.00589236 0)
(-0.00207221 0.013587 0)
(-0.00488776 0.0182927 0)
(-0.00805598 0.0210642 0)
(-0.0115739 0.0226555 0)
(-0.0151402 0.023577 0)
(-0.0188208 0.0241368 0)
(-0.0225094 0.0245185 0)
(-0.0262837 0.0248341 0)
(-0.030139 0.0251714 0)
(-0.0341905 0.0256211 0)
(-0.0385388 0.0262916 0)
(-0.0433807 0.027308 0)
(-0.0489303 0.0288023 0)
(-0.0554689 0.0308967 0)
(-0.063284 0.0336839 0)
(-0.0726746 0.0372029 0)
(-0.0838856 0.0414121 0)
(-0.0970732 0.0461602 0)
(-0.112231 0.0511645 0)
(-0.129151 0.0560099 0)
(-0.147401 0.0601813 0)
(-0.16637 0.0631346 0)
(-0.185352 0.064389 0)
(-0.203665 0.0636075 0)
(-0.220736 0.0606353 0)
(-0.236155 0.0554923 0)
(-0.249679 0.0483347 0)
(-0.261214 0.0394064 0)
(-0.270771 0.028994 0)
(-0.278424 0.0173934 0)
(-0.284265 0.0048898 0)
(-0.288367 -0.00824858 0)
(-0.29075 -0.021766 0)
(-0.291364 -0.0354063 0)
(-0.290069 -0.0488938 0)
(-0.286633 -0.0619121 0)
(-0.280746 -0.0740842 0)
(-0.272039 -0.0849581 0)
(-0.260137 -0.0940058 0)
(-0.24473 -0.100642 0)
(-0.225664 -0.10427 0)
(-0.203051 -0.104366 0)
(-0.177367 -0.100586 0)
(-0.149521 -0.0928995 0)
(-0.120836 -0.0816977 0)
(-0.0929194 -0.0678401 0)
(-0.067402 -0.0525707 0)
(-0.0456091 -0.0372904 0)
(-0.0282654 -0.0232463 0)
(-0.0154263 -0.0112705 0)
(-0.00659852 -0.00170981 0)
(-0.00104681 0.005491 0)
(0.00203722 0.0105982 0)
(0.0033334 0.0139338 0)
(0.00345632 0.015741 0)
(0.00281512 0.0160785 0)
(0.00185491 0.0147696 0)
(0.000808814 0.0113257 0)
(0.000134376 0.00502757 0)
(-0.00038306 0.00700376 0)
(-0.0022207 0.0159966 0)
(-0.00522076 0.0214124 0)
(-0.00858444 0.0245427 0)
(-0.0123125 0.0263106 0)
(-0.0160884 0.0273178 0)
(-0.0199908 0.0279332 0)
(-0.0239175 0.0283745 0)
(-0.0279704 0.0287893 0)
(-0.0321723 0.0293035 0)
(-0.0366861 0.0300578 0)
(-0.0416701 0.0312159 0)
(-0.0473944 0.0329606 0)
(-0.0541494 0.0354728 0)
(-0.0622908 0.0389062 0)
(-0.0721598 0.0433545 0)
(-0.0840706 0.0488134 0)
(-0.0982173 0.0551376 0)
(-0.114618 0.0620051 0)
(-0.13303 0.0689044 0)
(-0.152941 0.0751722 0)
(-0.173603 0.0800884 0)
(-0.194161 0.083008 0)
(-0.213794 0.0834791 0)
(-0.231844 0.0813006 0)
(-0.247877 0.07651 0)
(-0.26169 0.0693266 0)
(-0.273281 0.0600792 0)
(-0.282796 0.0491383 0)
(-0.290463 0.0368656 0)
(-0.296548 0.0235825 0)
(-0.301299 0.00955716 0)
(-0.304915 -0.00499438 0)
(-0.307516 -0.0198954 0)
(-0.309123 -0.0349886 0)
(-0.309641 -0.05011 0)
(-0.308844 -0.0650586 0)
(-0.306371 -0.0795632 0)
(-0.301728 -0.0932502 0)
(-0.294317 -0.105617 0)
(-0.283487 -0.116023 0)
(-0.268626 -0.123702 0)
(-0.249292 -0.127829 0)
(-0.22538 -0.127625 0)
(-0.197287 -0.122535 0)
(-0.166045 -0.112432 0)
(-0.133334 -0.0978122 0)
(-0.101304 -0.0798811 0)
(-0.0721897 -0.0604231 0)
(-0.0477561 -0.0414157 0)
(-0.0288698 -0.0244999 0)
(-0.0153914 -0.0106208 0)
(-0.00652916 1.47344e-05 0)
(-0.00122151 0.00766362 0)
(0.00150092 0.0127736 0)
(0.00249634 0.0157384 0)
(0.00236501 0.0167499 0)
(0.00167888 0.0157164 0)
(0.000764831 0.0121863 0)
(0.000131383 0.00543719 0)
(-0.000408206 0.00819055 0)
(-0.00235504 0.0185561 0)
(-0.00552219 0.024715 0)
(-0.00906424 0.0282169 0)
(-0.0129866 0.030168 0)
(-0.0169608 0.0312691 0)
(-0.0210805 0.0319575 0)
(-0.0252527 0.032493 0)
(-0.0296093 0.0330706 0)
(-0.0342097 0.0338679 0)
(-0.0392749 0.0350911 0)
(-0.0450307 0.0369723 0)
(-0.0518263 0.0397588 0)
(-0.0600256 0.0436764 0)
(-0.0700411 0.0488915 0)
(-0.0822268 0.0554571 0)
(-0.0968408 0.0632573 0)
(-0.113921 0.0719497 0)
(-0.133221 0.0809383 0)
(-0.15415 0.0894057 0)
(-0.175839 0.0964313 0)
(-0.197265 0.101168 0)
(-0.217456 0.103013 0)
(-0.235645 0.101698 0)
(-0.251359 0.0972804 0)
(-0.264427 0.0900645 0)
(-0.274937 0.0804984 0)
(-0.283162 0.0690772 0)
(-0.289481 0.0562698 0)
(-0.294308 0.0424745 0)
(-0.298045 0.0279998 0)
(-0.301039 0.0130644 0)
(-0.303565 -0.00219096 0)
(-0.30581 -0.017684 0)
(-0.307865 -0.0333684 0)
(-0.309709 -0.0492072 0)
(-0.311194 -0.0651425 0)
(-0.312026 -0.0810587 0)
(-0.311734 -0.0967395 0)
(-0.309669 -0.111821 0)
(-0.305001 -0.125745 0)
(-0.296774 -0.137732 0)
(-0.284009 -0.146786 0)
(-0.265878 -0.15176 0)
(-0.241942 -0.151513 0)
(-0.212423 -0.145161 0)
(-0.178443 -0.132401 0)
(-0.142094 -0.113845 0)
(-0.106229 -0.091178 0)
(-0.0738611 -0.0669544 0)
(-0.0473116 -0.043927 0)
(-0.0275124 -0.0241988 0)
(-0.0140207 -0.00870078 0)
(-0.00559167 0.00261026 0)
(-0.000885907 0.0102956 0)
(0.00130072 0.0149565 0)
(0.00184473 0.0169901 0)
(0.00150376 0.0164502 0)
(0.000737103 0.0129658 0)
(0.000134477 0.00583661 0)
(-0.000430058 0.00944477 0)
(-0.00247252 0.0212499 0)
(-0.00578756 0.0281825 0)
(-0.00948971 0.0320697 0)
(-0.0135898 0.0342137 0)
(-0.0177513 0.0354228 0)
(-0.0220849 0.0362109 0)
(-0.0265119 0.0368901 0)
(-0.0312011 0.0377163 0)
(-0.0362571 0.0389346 0)
(-0.0419669 0.0408317 0)
(-0.0486291 0.0437173 0)
(-0.0566688 0.047902 0)
(-0.0665062 0.0536382 0)
(-0.0785705 0.0610628 0)
(-0.0931588 0.0701161 0)
(-0.11037 0.0804695 0)
(-0.129965 0.0914681 0)
(-0.151324 0.102154 0)
(-0.173468 0.111389 0)
(-0.195227 0.118085 0)
(-0.215461 0.121436 0)
(-0.233281 0.121067 0)
(-0.248157 0.117038 0)
(-0.259945 0.109749 0)
(-0.268815 0.0997906 0)
(-0.275167 0.0878168 0)
(-0.27951 0.0744351 0)
(-0.282386 0.060149 0)
(-0.284297 0.0453331 0)
(-0.285676 0.0302371 0)
(-0.286867 0.015003 0)
(-0.288135 -0.000310766 0)
(-0.289666 -0.0157067 0)
(-0.291579 -0.0312274 0)
(-0.293922 -0.0469364 0)
(-0.29666 -0.0628975 0)
(-0.299652 -0.0791474 0)
(-0.302605 -0.0956572 0)
(-0.305028 -0.112278 0)
(-0.306185 -0.128674 0)
(-0.305069 -0.144245 0)
(-0.300432 -0.158067 0)
(-0.290888 -0.168867 0)
(-0.275128 -0.175093 0)
(-0.252254 -0.17511 0)
(-0.222194 -0.167559 0)
(-0.186097 -0.151871 0)
(-0.14653 -0.128795 0)
(-0.107218 -0.100703 0)
(-0.0721571 -0.0712268 0)
(-0.0442663 -0.0441455 0)
(-0.0244091 -0.0219598 0)
(-0.0115865 -0.00541911 0)
(-0.00408997 0.00598929 0)
(-0.000248643 0.0131177 0)
(0.001211 0.0166671 0)
(0.00131943 0.016926 0)
(0.000726258 0.013666 0)
(0.000144651 0.00624124 0)
(-0.000448224 0.0107567 0)
(-0.00257123 0.02406 0)
(-0.00601323 0.0317956 0)
(-0.00985613 0.0360835 0)
(-0.0141169 0.0384345 0)
(-0.0184544 0.0397724 0)
(-0.022999 0.0406981 0)
(-0.0276917 0.0415874 0)
(-0.0327435 0.0427727 0)
(-0.0383115 0.0445821 0)
(-0.0447526 0.0473955 0)
(-0.0524359 0.0516013 0)
(-0.0618463 0.0575583 0)
(-0.0734243 0.0655052 0)
(-0.0875521 0.075478 0)
(-0.104377 0.0872011 0)
(-0.123727 0.100012 0)
(-0.144986 0.112843 0)
(-0.16713 0.124352 0)
(-0.18886 0.133174 0)
(-0.208884 0.138238 0)
(-0.226167 0.138996 0)
(-0.240108 0.135471 0)
(-0.250568 0.128145 0)
(-0.257803 0.117773 0)
(-0.262327 0.105188 0)
(-0.264783 0.0911652 0)
(-0.265816 0.07633 0)
(-0.266003 0.0611333 0)
(-0.265808 0.04586 0)
(-0.265579 0.0306604 0)
(-0.265558 0.0155863 0)
(-0.265915 0.000622942 0)
(-0.266769 -0.0142876 0)
(-0.268212 -0.0292321 0)
(-0.27032 -0.0443187 0)
(-0.273152 -0.0596716 0)
(-0.276726 -0.0754216 0)
(-0.280987 -0.0916858 0)
(-0.285738 -0.108528 0)
(-0.290563 -0.12589 0)
(-0.294739 -0.1435 0)
(-0.297163 -0.16075 0)
(-0.296339 -0.176584 0)
(-0.290465 -0.189426 0)
(-0.277683 -0.197231 0)
(-0.256519 -0.197724 0)
(-0.226479 -0.188916 0)
(-0.188683 -0.169861 0)
(-0.146245 -0.141535 0)
(-0.103973 -0.107289 0)
(-0.0670319 -0.0722916 0)
(-0.0388854 -0.0414992 0)
(-0.0199623 -0.0176524 0)
(-0.00852612 -0.000895095 0)
(-0.00235277 0.00980871 0)
(0.00037985 0.0155794 0)
(0.00109783 0.0170672 0)
(0.000727101 0.0142768 0)
(0.000162221 0.00666452 0)
(-0.00046179 0.0121147 0)
(-0.00264772 0.026966 0)
(-0.00619306 0.0355316 0)
(-0.0101551 0.0402376 0)
(-0.0145573 0.0428134 0)
(-0.0190578 0.0443076 0)
(-0.023808 0.0454185 0)
(-0.028774 0.0465994 0)
(-0.0342133 0.0482747 0)
(-0.0403391 0.0508698 0)
(-0.0475766 0.0548631 0)
(-0.0563525 0.0607119 0)
(-0.0671812 0.0687886 0)
(-0.0804692 0.0792528 0)
(-0.0964713 0.0919408 0)
(-0.115087 0.106239 0)
(-0.135787 0.121043 0)
(-0.157552 0.134838 0)
(-0.179025 0.145975 0)
(-0.198768 0.153057 0)
(-0.2156 0.155273 0)
(-0.22881 0.152533 0)
(-0.23824 0.145364 0)
(-0.244203 0.134681 0)
(-0.247329 0.121524 0)
(-0.248384 0.10686 0)
(-0.248121 0.0914593 0)
(-0.24718 0.0758542 0)
(-0.246038 0.0603602 0)
(-0.245011 0.045123 0)
(-0.244278 0.0301752 0)
(-0.243927 0.0154845 0)
(-0.243993 0.000987708 0)
(-0.244497 -0.0133912 0)
(-0.245474 -0.0277359 0)
(-0.246986 -0.0421422 0)
(-0.249134 -0.056727 0)
(-0.252045 -0.0716367 0)
(-0.255847 -0.0870486 0)
(-0.260625 -0.103157 0)
(-0.266341 -0.120134 0)
(-0.272724 -0.138043 0)
(-0.279143 -0.156718 0)
(-0.284476 -0.175586 0)
(-0.287035 -0.193478 0)
(-0.284623 -0.208494 0)
(-0.274799 -0.218003 0)
(-0.255427 -0.218946 0)
(-0.225505 -0.208519 0)
(-0.186106 -0.185345 0)
(-0.141025 -0.150776 0)
(-0.0964161 -0.109693 0)
(-0.0587555 -0.069274 0)
(-0.0317172 -0.0357456 0)
(-0.0147873 -0.0114239 0)
(-0.0053214 0.00442665 0)
(-0.000789287 0.0134264 0)
(0.000784298 0.0167532 0)
(0.000724648 0.0147728 0)
(0.00018581 0.00711849 0)
(-0.000470251 0.0135062 0)
(-0.00269947 0.0299461 0)
(-0.00632199 0.039368 0)
(-0.0103795 0.044512 0)
(-0.0149016 0.0473354 0)
(-0.0195498 0.0490207 0)
(-0.0244975 0.0503752 0)
(-0.0297398 0.051944 0)
(-0.0355824 0.0542585 0)
(-0.0422943 0.057851 0)
(-0.0503585 0.0632946 0)
(-0.0602356 0.071089 0)
(-0.0724252 0.0815634 0)
(-0.0872341 0.0947077 0)
(-0.104708 0.110042 0)
(-0.124426 0.126505 0)
(-0.145476 0.142495 0)
(-0.166499 0.15611 0)
(-0.185976 0.165583 0)
(-0.202559 0.169737 0)
(-0.215398 0.16825 0)
(-0.224257 0.161616 0)
(-0.229468 0.150881 0)
(-0.231749 0.137309 0)
(-0.23199 0.122093 0)
(-0.231051 0.106179 0)
(-0.229642 0.0902002 0)
(-0.228256 0.0745029 0)
(-0.227175 0.0592148 0)
(-0.226508 0.0443278 0)
(-0.226247 0.0297691 0)
(-0.226323 0.0154504 0)
(-0.226654 0.00129429 0)
(-0.227174 -0.0127577 0)
(-0.227862 -0.0267505 0)
(-0.228751 -0.040729 0)
(-0.229941 -0.0547564 0)
(-0.231598 -0.068934 0)
(-0.233944 -0.0834196 0)
(-0.237237 -0.0984374 0)
(-0.241717 -0.11427 0)
(-0.247525 -0.131216 0)
(-0.254564 -0.149494 0)
(-0.262331 -0.169078 0)
(-0.269726 -0.189456 0)
(-0.274911 -0.209358 0)
(-0.275316 -0.226506 0)
(-0.267909 -0.237585 0)
(-0.249864 -0.238562 0)
(-0.219655 -0.225692 0)
(-0.178395 -0.197138 0)
(-0.130828 -0.155089 0)
(-0.0847739 -0.106651 0)
(-0.0479977 -0.0616958 0)
(-0.0236257 -0.0270515 0)
(-0.00958006 -0.00388625 0)
(-0.00250305 0.0097607 0)
(0.000292768 0.0157891 0)
(0.000692368 0.0150949 0)
(0.00021219 0.00760555 0)
(-0.000472509 0.0149155 0)
(-0.00272217 0.0329733 0)
(-0.006392 0.0432756 0)
(-0.0105177 0.0488795 0)
(-0.0151344 0.0519768 0)
(-0.0199103 0.0538929 0)
(-0.0250407 0.0555567 0)
(-0.0305519 0.0576185 0)
(-0.0367965 0.0607288 0)
(-0.0440926 0.0655289 0)
(-0.0529633 0.0726701 0)
(-0.0638696 0.0826499 0)
(-0.0772445 0.0956781 0)
(-0.0932298 0.111471 0)
(-0.111602 0.129125 0)
(-0.131593 0.147059 0)
(-0.151961 0.163208 0)
(-0.171153 0.175438 0)
(-0.187697 0.182115 0)
(-0.200548 0.182531 0)
(-0.209333 0.177008 0)
(-0.21433 0.166651 0)
(-0.216303 0.152941 0)
(-0.216243 0.137336 0)
(-0.215127 0.121008 0)
(-0.213746 0.104729 0)
(-0.212628 0.0888948 0)
(-0.212034 0.0736117 0)
(-0.212014 0.0588149 0)
(-0.212477 0.0443674 0)
(-0.21326 0.0301303 0)
(-0.214187 0.0159993 0)
(-0.2151 0.00191692 0)
(-0.215885 -0.0121324 0)
(-0.216484 -0.026136 0)
(-0.216901 -0.0400719 0)
(-0.217214 -0.0539301 0)
(-0.217574 -0.0677365 0)
(-0.218217 -0.0815794 0)
(-0.219457 -0.0956346 0)
(-0.221672 -0.110185 0)
(-0.225255 -0.12562 0)
(-0.230521 -0.142392 0)
(-0.237549 -0.160905 0)
(-0.245965 -0.181295 0)
(-0.254691 -0.203123 0)
(-0.26173 -0.224961 0)
(-0.264125 -0.244076 0)
(-0.258249 -0.256272 0)
(-0.240612 -0.256391 0)
(-0.209261 -0.239572 0)
(-0.165618 -0.203818 0)
(-0.115804 -0.152818 0)
(-0.0697199 -0.0972405 0)
(-0.0359038 -0.0496348 0)
(-0.0156397 -0.0162812 0)
(-0.00503231 0.00395036 0)
(-0.000494006 0.0138816 0)
(0.000591593 0.0151391 0)
(0.000235976 0.00811435 0)
(-0.000468111 0.0163263 0)
(-0.00271317 0.0360208 0)
(-0.00639726 0.0472268 0)
(-0.0105607 0.0533153 0)
(-0.0152433 0.056717 0)