/*--------------------------------*- C++ -*----------------------------------*\
| =========                 |                                                 |
| \\      /  F ield         | OpenFOAM: The Open Source CFD Toolbox           |
|  \\    /   O peration     | Version:  2406                                  |
|   \\  /    A nd           | Website:  www.openfoam.com                      |
|    \\/     M anipulation  |                                                 |
\*---------------------------------------------------------------------------*/
FoamFile
{
    version     2.0;
    format      ascii;
    arch        "LSB;label=32;scalar=64";
    class       volVectorField;
    location    "99";
    object      U_0;
}
// * * * * * * * * * * * * * * * * * * * * * * * * * * * * * * * * * * * * * //

dimensions      [0 1 -1 0 0 0 0];

internalField   nonuniform List<vector> 
1024
(
(0.000498506 -0.000497011 0)
(0.00347278 -0.00084886 0)
(0.00669163 -0.000622584 0)
(0.00852268 -0.000287032 0)
(0.00911715 -0.000199091 0)
(0.00912857 -0.000371233 0)
(0.00892989 -0.00059584 0)
(0.00830773 -0.00088262 0)
(0.00645795 -0.00166461 0)
(0.00198081 -0.00273465 0)
(-0.00717292 -0.00248038 0)
(-0.0216566 0.000899124 0)
(-0.0409294 0.0059575 0)
(-0.0630558 0.0098491 0)
(-0.0841637 0.011087 0)
(-0.100956 0.0100451 0)
(-0.111676 0.00762715 0)
(-0.115511 0.00457385 0)
(-0.112118 0.00137226 0)
(-0.100843 -0.0020091 0)
(-0.082385 -0.00523531 0)
(-0.0576344 -0.00786006 0)
(-0.0288282 -0.00929465 0)
(0.00152226 -0.00904076 0)
(0.0293638 -0.00699154 0)
(0.0486828 -0.00123989 0)
(0.0559466 0.00511074 0)
(0.0493426 0.0079563 0)
(0.033766 0.00679816 0)
(0.0186619 0.00416585 0)
(0.0077098 0.00200047 0)
(0.0010473 0.000780993 0)
(0.00098248 -0.00343923 0)
(0.00662003 -0.00590945 0)
(0.011723 -0.00452304 0)
(0.014089 -0.00200864 0)
(0.0136105 -0.000232893 0)
(0.0107424 0.000632113 0)
(0.0050074 0.00147776 0)
(-0.00590264 0.00340361 0)
(-0.024894 0.00833144 0)
(-0.0538268 0.0176776 0)
(-0.0898878 0.0283436 0)
(-0.12573 0.0356157 0)
(-0.156788 0.0376021 0)
(-0.181786 0.0348266 0)
(-0.200074 0.0282811 0)
(-0.211295 0.0192842 0)
(-0.215266 0.00881462 0)
(-0.212007 -0.00243382 0)
(-0.201869 -0.0140125 0)
(-0.184498 -0.0254587 0)
(-0.160239 -0.0359914 0)
(-0.129579 -0.0445272 0)
(-0.0940154 -0.0495142 0)
(-0.054955 -0.0491421 0)
(-0.0145122 -0.0418372 0)
(0.0200995 -0.0260357 0)
(0.0442336 -0.00392961 0)
(0.0528586 0.0141988 0)
(0.046185 0.0222928 0)
(0.0316133 0.0216672 0)
(0.0153369 0.0164233 0)
(0.0022721 0.00831205 0)
(0.00147235 -0.0077987 0)
(0.00778171 -0.0120742 0)
(0.011676 -0.00809769 0)
(0.0114509 -0.00193936 0)
(0.0065691 0.00325178 0)
(-0.00401649 0.00831115 0)
(-0.0230171 0.016459 0)
(-0.053702 0.0305811 0)
(-0.0944007 0.0478705 0)
(-0.136909 0.0609526 0)
(-0.175038 0.0668351 0)
(-0.206922 0.0665122 0)
(-0.231985 0.0610173 0)
(-0.250624 0.0514963 0)
(-0.26321 0.0389376 0)
(-0.270149 0.0242954 0)
(-0.271721 0.00814904 0)
(-0.268134 -0.00911726 0)
(-0.259416 -0.0271644 0)
(-0.245325 -0.0452882 0)
(-0.225567 -0.0625514 0)
(-0.199981 -0.0773449 0)
(-0.168604 -0.0872936 0)
(-0.13156 -0.089336 0)
(-0.0895777 -0.0807029 0)
(-0.0462095 -0.0595273 0)
(-0.00651868 -0.0257953 0)
(0.0189221 0.00687468 0)
(0.0255196 0.0263807 0)
(0.0213164 0.0323623 0)
(0.0114529 0.0295067 0)
(0.00136033 0.0169349 0)
(0.00191724 -0.012683 0)
(0.00685524 -0.0168649 0)
(0.00687796 -0.00827453 0)
(0.000706024 0.00339164 0)
(-0.0130436 0.0155105 0)
(-0.0371663 0.031107 0)
(-0.0735272 0.0523424 0)
(-0.117939 0.0746172 0)
(-0.162209 0.0906525 0)
(-0.200481 0.0977091 0)
(-0.231319 0.0968539 0)
(-0.255195 0.0898912 0)
(-0.272851 0.0782702 0)
(-0.285332 0.0633876 0)
(-0.29333 0.0461642 0)
(-0.297512 0.0272509 0)
(-0.298268 0.00687246 0)
(-0.295911 -0.0148013 0)
(-0.290386 -0.0375307 0)
(-0.281408 -0.0608884 0)
(-0.268433 -0.0840421 0)
(-0.25078 -0.105408 0)
(-0.227533 -0.122253 0)
(-0.197537 -0.130612 0)
(-0.159451 -0.125917 0)
(-0.113415 -0.104033 0)
(-0.0627598 -0.0636222 0)
(-0.018238 -0.0147856 0)
(0.00298462 0.0200779 0)
(0.00717938 0.0351062 0)
(0.0046337 0.0362105 0)
(7.70365e-05 0.0212985 0)
(0.00193501 -0.0166231 0)
(0.00268971 -0.0173509 0)
(-0.00398838 -0.00172502 0)
(-0.0191749 0.0185929 0)
(-0.0448553 0.0419872 0)
(-0.0820366 0.0694569 0)
(-0.126625 0.0969644 0)
(-0.170506 0.117255 0)
(-0.207437 0.12673 0)
(-0.236235 0.126608 0)
(-0.257669 0.119136 0)
(-0.272747 0.106294 0)
(-0.282803 0.0897977 0)
(-0.289015 0.0709744 0)
(-0.29237 0.0506179 0)
(-0.293688 0.0291421 0)
(-0.293497 0.00656419 0)
(-0.292098 -0.0171553 0)
(-0.289454 -0.0420329 0)
(-0.285545 -0.0680789 0)
(-0.279941 -0.0949655 0)
(-0.271822 -0.12167 0)
(-0.259665 -0.145899 0)
(-0.241208 -0.163594 0)
(-0.213447 -0.168904 0)
(-0.173319 -0.155069 0)
(-0.120036 -0.116619 0)
(-0.0596644 -0.0564186 0)
(-0.0133865 0.00247545 0)
(-0.000433017 0.0316374 0)
(0.0010109 0.0376007 0)
(-0.000226582 0.0223207 0)
(0.000928056 -0.017107 0)
(-0.00546694 -0.0106978 0)
(-0.0206109 0.0145253 0)
(-0.045473 0.0455649 0)
(-0.0805893 0.0793081 0)
(-0.122904 0.11251 0)
(-0.165314 0.138358 0)
(-0.200821 0.152014 0)
(-0.2273 0.15375 0)
(-0.245948 0.146483 0)
(-0.257958 0.132876 0)
(-0.264929 0.115201 0)
(-0.268365 0.0951843 0)
(-0.269458 0.0738973 0)
(-0.269195 0.0519158 0)
(-0.268256 0.0294351 0)
(-0.267104 0.00640604 0)
(-0.265894 -0.0173235 0)
(-0.264754 -0.0420893 0)
(-0.263908 -0.068255 0)
(-0.26337 -0.096006 0)
(-0.26275 -0.125066 0)
(-0.260853 -0.15423 0)
(-0.255205 -0.180583 0)
(-0.241881 -0.198746 0)
(-0.215903 -0.200643 0)
(-0.172534 -0.176684 0)
(-0.1107 -0.120063 0)
(-0.0400902 -0.0387486 0)
(-0.00089588 0.0197353 0)
(0.0016566 0.0367448 0)
(0.000390894 0.0225234 0)
(-0.00129439 -0.0119517 0)
(-0.0159415 0.00473589 0)
(-0.0389359 0.0400701 0)
(-0.0708242 0.080087 0)
(-0.109585 0.119435 0)
(-0.149855 0.152027 0)
(-0.184506 0.171859 0)
(-0.209698 0.177385 0)
(-0.226339 0.171476 0)
(-0.236204 0.157868 0)
(-0.240901 0.139415 0)
(-0.242389 0.11847 0)
(-0.241975 0.0964003 0)
(-0.240692 0.0739369 0)
(-0.239139 0.0513558 0)
(-0.237652 0.0286836 0)
(-0.236375 0.00584404 0)
(-0.235307 -0.0173355 0)
(-0.234651 -0.0412564 0)
(-0.234604 -0.0662794 0)
(-0.235491 -0.092792 0)
(-0.237498 -0.121049 0)
(-0.240416 -0.150952 0)
(-0.242909 -0.181379 0)
(-0.241836 -0.209125 0)
(-0.231932 -0.227603 0)
(-0.206367 -0.225951 0)
(-0.158869 -0.190302 0)
(-0.0879591 -0.110702 0)
(-0.00833963 -0.00704215 0)
(0.00605495 0.0360015 0)
(0.000847428 0.0246239 0)
(-0.00357087 -0.000130023 0)
(-0.0254786 0.0280191 0)
(-0.0540216 0.0713111 0)
(-0.088996 0.116698 0)
(-0.126681 0.156688 0)
(-0.160972 0.184603 0)
(-0.186511 0.196562 0)
(-0.202668 0.193938 0)
(-0.2117 0.181371 0)
(-0.215509 0.162807 0)
(-0.216115 0.141142 0)
(-0.215296 0.118386 0)
(-0.213932 0.095387 0)
(-0.212636 0.072541 0)
(-0.211505 0.0498382 0)
(-0.210588 0.0271921 0)
(-0.209804 0.00445622 0)
(-0.209176 -0.0185584 0)
(-0.208841 -0.0420854 0)
(-0.208943 -0.0663319 0)
(-0.209788 -0.0915574 0)
(-0.211709 -0.118057 0)
(-0.214947 -0.14614 0)
(-0.219281 -0.175923 0)
(-0.223359 -0.206597 0)
(-0.223787 -0.234818 0)
(-0.214411 -0.252412 0)
(-0.186874 -0.244337 0)
(-0.133134 -0.189375 0)
(-0.0478166 -0.0733446 0)
(0.0109262 0.0260284 0)
(0.000791348 0.02884 0)
(-0.00521015 0.0172812 0)
(-0.031903 0.0560635 0)
(-0.0630857 0.10435 0)
(-0.0979143 0.151412 0)
(-0.131648 0.188517 0)
(-0.158723 0.20972 0)
(-0.176267 0.213449 0)
(-0.185778 0.203687 0)
(-0.189859 0.185973 0)
(-0.190479 0.164124 0)
(-0.189692 0.14081 0)
(-0.188648 0.117412 0)
(-0.187732 0.0943267 0)
(-0.18713 0.0716467 0)
(-0.186698 0.0491653 0)
(-0.186407 0.0267287 0)
(-0.186146 0.00413111 0)
(-0.185956 -0.018787 0)
(-0.185915 -0.0421669 0)
(-0.186166 -0.0661246 0)
(-0.18692 -0.090786 0)
(-0.188465 -0.116304 0)
(-0.191114 -0.142951 0)
(-0.195065 -0.171159 0)
(-0.199976 -0.201321 0)
(-0.204242 -0.232737 0)
(-0.203996 -0.26118 0)
(-0.19215 -0.275303 0)
(-0.15949 -0.253223 0)
(-0.0970481 -0.164921 0)
(0.00609526 -0.0043565 0)
(0.00627927 0.0359195 0)
(-0.00596959 0.0375646 0)
(-0.0346723 0.0858228 0)
(-0.06582 0.136485 0)
(-0.098143 0.182412 0)
(-0.126603 0.214611 0)
(-0.146988 0.228337 0)
(-0.158547 0.224478 0)
(-0.1638 0.209033 0)
(-0.165258 0.187733 0)
(-0.164827 0.164045 0)
(-0.164161 0.140137 0)
(-0.163694 0.116723 0)
(-0.163508 0.0938492 0)
(-0.163558 0.0713643 0)
(-0.163681 0.0490115 0)
(-0.163855 0.0266451 0)
(-0.164007 0.00409523 0)
(-0.164203 -0.0187452 0)
(-0.164485 -0.0419818 0)
(-0.164927 -0.0656693 0)
(-0.165639 -0.089862 0)
(-0.16679 -0.114619 0)
(-0.16864 -0.140117 0)
(-0.171571 -0.166799 0)
(-0.175901 -0.195505 0)
(-0.181236 -0.227078 0)
(-0.185361 -0.260428 0)
(-0.18302 -0.288366 0)
(-0.165738 -0.292083 0)
(-0.122269 -0.236181 0)
(-0.0309813 -0.0736386 0)
(0.0206616 0.0387448 0)
(-0.00568188 0.0582816 0)
(-0.0338532 0.114912 0)
(-0.0629157 0.165937 0)
(-0.0913926 0.208954 0)
(-0.114493 0.23533 0)
(-0.129483 0.241779 0)
(-0.137012 0.231552 0)
(-0.139903 0.211914 0)
(-0.140368 0.188335 0)
(-0.140064 0.163791 0)
(-0.140039 0.139824 0)
(-0.140235 0.116593 0)
(-0.140645 0.0939138 0)
(-0.141143 0.0715319 0)
(-0.141641 0.0492276 0)
(-0.142149 0.0268768 0)
(-0.142655 0.00433622 0)
(-0.143227 -0.0184936 0)
(-0.143896 -0.0416967 0)
(-0.144712 -0.0653298 0)
(-0.145696 -0.089407 0)
(-0.146873 -0.113899 0)
(-0.148305 -0.138798 0)
(-0.150215 -0.164291 0)
(-0.153113 -0.191112 0)
(-0.157609 -0.220832 0)
(-0.163336 -0.25506 0)
(-0.166886 -0.291457 0)
(-0.160581 -0.315765 0)
(-0.13184 -0.29368 0)
(-0.0742216 -0.171107 0)
(0.0257676 0.0279996 0)
(-0.00448588 0.0776173 0)
(-0.0301037 0.141741 0)
(-0.0557265 0.191864 0)
(-0.0797967 0.231133 0)
(-0.0980144 0.251642 0)
(-0.108962 0.25163 0)
(-0.114005 0.236366 0)
(-0.115815 0.213756 0)
(-0.116205 0.188804 0)
(-0.116454 0.163933 0)
(-0.117051 0.14009 0)
(-0.117733 0.117033 0)
(-0.118507 0.0944754 0)
(-0.119243 0.0721477 0)
(-0.119949 0.0498861 0)
(-0.120654 0.0275857 0)
(-0.121396 0.00513016 0)
(-0.122231 -0.0175743 0)
(-0.123199 -0.040629 0)
(-0.124338 -0.0641137 0)
(-0.125656 -0.0880807 0)
(-0.127128 -0.112528 0)
(-0.128709 -0.137401 0)
(-0.130404 -0.162654 0)
(-0.132463 -0.188524 0)
(-0.135555 -0.216132 0)
(-0.140513 -0.247921 0)
(-0.14616 -0.285797 0)
(-0.147338 -0.322574 0)
(-0.131813 -0.328849 0)
(-0.0946752 -0.243744 0)
(0.00793979 -0.000723648 0)
(-0.00267348 0.0939143 0)
(-0.0242849 0.16506 0)
(-0.0456663 0.213734 0)
(-0.0652098 0.249081 0)
(-0.0792351 0.264202 0)
(-0.0872969 0.258864 0)
(-0.0909046 0.239835 0)
(-0.0923592 0.215219 0)
(-0.0930413 0.189488 0)
(-0.0938444 0.16454 0)
(-0.0948719 0.140814 0)
(-0.0958489 0.117833 0)
(-0.0968229 0.0952903 0)
(-0.0977052 0.0729422 0)
(-0.0985696 0.0506738 0)
(-0.0994552 0.0283941 0)
(-0.100418 0.00600352 0)
(-0.101504 -0.0165952 0)
(-0.10275 -0.039511 0)
(-0.104176 -0.0628345 0)
(-0.105782 -0.0866393 0)
(-0.107525 -0.110961 0)
(-0.109325 -0.13578 0)
(-0.111101 -0.16103 0)
(-0.112935 -0.186721 0)
(-0.115261 -0.21346 0)
(-0.119154 -0.243377 0)
(-0.124807 -0.280287 0)
(-0.130134 -0.323569 0)
(-0.124461 -0.351124 0)
(-0.102238 -0.295784 0)
(-0.0212816 -0.0513796 0)
(-0.000519191 0.105926 0)
(-0.0171564 0.183925 0)
(-0.033877 0.231316 0)
(-0.0490476 0.263165 0)
(-0.059525 0.27391 0)
(-0.0654949 0.26452 0)
(-0.0683027 0.242798 0)
(-0.0697368 0.21682 0)
(-0.0707753 0.190592 0)
(-0.0719839 0.165584 0)
(-0.0732566 0.141864 0)
(-0.0743928 0.118852 0)
(-0.0754738 0.0962582 0)
(-0.0764595 0.073879 0)
(-0.0774549 0.0516297 0)
(-0.0785003 0.0294216 0)
(-0.0796572 0.00715314 0)
(-0.0809613 -0.0152883 0)
(-0.08245 -0.0380234 0)
(-0.0841429 -0.0611662 0)
(-0.08604 -0.0848206 0)
(-0.0881022 -0.109062 0)
(-0.0902374 -0.133905 0)
(-0.0922909 -0.15926 0)
(-0.0941902 -0.184931 0)
(-0.0960526 -0.210985 0)
(-0.0988796 -0.238822 0)
(-0.103309 -0.272973 0)
(-0.109956 -0.318196 0)
(-0.108779 -0.36316 0)
(-0.0961001 -0.34481 0)
(-0.0340818 -0.129948 0)
(0.00176339 0.112997 0)
(-0.00930279 0.197899 0)
(-0.021237 0.244614 0)
(-0.0322199 0.273673 0)
(-0.0396727 0.281099 0)
(-0.0441268 0.268819 0)
(-0.046473 0.245285 0)
(-0.0479883 0.218417 0)
(-0.0492906 0.191865 0)
(-0.0507173 0.16679 0)
(-0.0520827 0.14302 0)
(-0.0532764 0.119947 0)
(-0.0544015 0.0973037 0)
(-0.055459 0.0749161 0)
(-0.0565605 0.0527123 0)
(-0.0577465 0.0305998 0)
(-0.0590754 0.00846999 0)
(-0.0605795 -0.0137993 0)
(-0.0622917 -0.0363365 0)
(-0.0642279 -0.0592661 0)
(-0.0663889 -0.0827129 0)
(-0.0687454 -0.106798 0)
(-0.071234 -0.131611 0)
(-0.0736974 -0.157169 0)
(-0.0760338 -0.183297 0)
(-0.0780791 -0.209767 0)
(-0.0806603 -0.237046 0)
(-0.0839554 -0.268928 0)
(-0.0908365 -0.312654 0)
(-0.0914987 -0.366152 0)
(-0.0843587 -0.375911 0)
(-0.0302954 -0.198063 0)
(0.00401514 0.114686 0)
(-0.00115619 0.206644 0)
(-0.00831697 0.253698 0)
(-0.0153637 0.280912 0)
(-0.0201532 0.286315 0)
(-0.023338 0.272321 0)
(-0.0253356 0.24772 0)
(-0.0268997 0.22026 0)
(-0.0283443 0.19343 0)
(-0.029845 0.168208 0)
(-0.0312069 0.144304 0)
(-0.0323937 0.121127 0)
(-0.033521 0.0984222 0)
(-0.0346198 0.0760405 0)
(-0.0357978 0.0539084 0)
(-0.0370991 0.0319251 0)
(-0.0385797 0.00996977 0)
(-0.0402737 -0.0120937 0)
(-0.0422102 -0.0344062 0)
(-0.0444047 -0.0571041 0)
(-0.04686 -0.0803288 0)
(-0.0495442 -0.104223 0)
(-0.0524143 -0.128905 0)
(-0.0552904 -0.154439 0)
(-0.0581008 -0.180682 0)
(-0.0604454 -0.207319 0)
(-0.0631631 -0.234211 0)
(-0.0655604 -0.264293 0)
(-0.0722204 -0.306495 0)
(-0.0737508 -0.367585 0)
(-0.072465 -0.402972 0)
(-0.0258705 -0.254184 0)
(0.00617866 0.111221 0)
(0.00697176 0.210192 0)
(0.0043737 0.25871 0)
(0.00115909 0.285134 0)
(-0.00114555 0.289512 0)
(-0.00322343 0.274738 0)
(-0.00486378 0.249675 0)
(-0.00640789 0.221893 0)
(-0.00786622 0.19485 0)
(-0.00931729 0.169467 0)
(-0.0105873 0.145436 0)
(-0.0116957 0.122196 0)
(-0.0127655 0.0994903 0)
(-0.013852 0.0771769 0)
(-0.0150581 0.0551729 0)
(-0.0164341 0.0333688 0)
(-0.0180351 0.0116341 0)
(-0.0199001 -0.0101775 0)
(-0.0220533 -0.0322182 0)
(-0.0245107 -0.054634 0)
(-0.0272853 -0.0775855 0)
(-0.0303413 -0.101249 0)
(-0.0336794 -0.125798 0)
(-0.0370995 -0.151386 0)
(-0.0406326 -0.177961 0)
(-0.0436428 -0.20521 0)
(-0.0471294 -0.232507 0)
(-0.0493008 -0.261411 0)
(-0.0560815 -0.300414 0)
(-0.0578678 -0.363797 0)
(-0.0613545 -0.419945 0)
(-0.0211713 -0.302429 0)
(0.00796885 0.102779 0)
(0.0147737 0.20835 0)
(0.0166137 0.259628 0)
(0.0169744 0.286485 0)
(0.0171102 0.290949 0)
(0.0163256 0.276456 0)
(0.0151952 0.251528 0)
(0.0138001 0.223669 0)
(0.0124227 0.196437 0)
(0.0110875 0.170838 0)
(0.00995731 0.146626 0)
(0.00897745 0.123295 0)
(0.00801441 0.100586 0)
(0.00699032 0.0783536 0)
(0.00580307 0.0565014 0)
(0.00439298 0.0349114 0)
(0.0027026 0.0134422 0)
(0.000681638 -0.00806468 0)
(-0.00169057 -0.029774 0)
(-0.00442826 -0.0518526 0)
(-0.00756134 -0.0744689 0)
(-0.0110344 -0.0978137 0)
(-0.0148933 -0.122078 0)
(-0.018878 -0.147446 0)
(-0.0231649 -0.173941 0)
(-0.0269003 -0.201326 0)
(-0.0314464 -0.228924 0)
(-0.0338042 -0.257431 0)
(-0.0413741 -0.294572 0)
(-0.043871 -0.360309 0)
(-0.0523115 -0.433541 0)
(-0.0172926 -0.341999 0)
(0.00901082 0.0897723 0)
(0.0218135 0.201048 0)
(0.0280889 0.256324 0)
(0.0319197 0.28474 0)
(0.034503 0.290414 0)
(0.0352188 0.277049 0)
(0.0347882 0.252743 0)
(0.0336931 0.224988 0)
(0.0324943 0.197592 0)
(0.031345 0.171775 0)
(0.0304158 0.147413 0)
(0.029642 0.124058 0)
(0.0288702 0.101433 0)
(0.0279917 0.0793727 0)
(0.0268966 0.0577621 0)
(0.0255123 0.0364709 0)
(0.0237761 0.0153479 0)
(0.0216306 -0.00577716 0)
(0.0190474 -0.0270746 0)
(0.0160149 -0.0487298 0)
(0.0124854 -0.0709295 0)
(0.00853537 -0.0938887 0)
(0.00405407 -0.117841 0)
(-0.000634053 -0.143004 0)
(-0.00587469 -0.169509 0)
(-0.0106108 -0.197104 0)
(-0.0166817 -0.225113 0)
(-0.0197155 -0.253182 0)
(-0.0287048 -0.287684 0)
(-0.0318074 -0.352816 0)
(-0.0447464 -0.440407 0)
(-0.0140071 -0.376168 0)
(0.00886872 0.0731319 0)
(0.0274968 0.18837 0)
(0.0383326 0.248687 0)
(0.045727 0.279866 0)
(0.0509294 0.287966 0)
(0.0534515 0.276743 0)
(0.0540475 0.253744 0)
(0.0534974 0.226412 0)
(0.0526234 0.19891 0)
(0.0517454 0.172818 0)
(0.0510707 0.148239 0)
(0.050556 0.124816 0)
(0.0500341 0.10226 0)
(0.0493629 0.0803805 0)
(0.0484165 0.0590376 0)
(0.0471071 0.0380876 0)
(0.0453643 0.0173701 0)
(0.0431179 -0.00329565 0)
(0.0403303 -0.0240987 0)
(0.0369964 -0.0452346 0)
(0.0330359 -0.0669108 0)
(0.0285629 -0.0893576 0)
(0.0234079 -0.112828 0)
(0.0179683 -0.137535 0)
(0.0117232 -0.16367 0)
(0.00589616 -0.191011 0)
(-0.00185595 -0.2191 0)
(-0.00599859 -0.246911 0)
(-0.0172609 -0.280288 0)
(-0.0212278 -0.345193 0)
(-0.0387932 -0.444585 0)
(-0.0113249 -0.404701 0)
(0.00714012 0.0544918 0)
(0.0310988 0.170483 0)
(0.0467914 0.236572 0)
(0.0580518 0.27157 0)
(0.0661344 0.282947 0)
(0.0707389 0.274611 0)
(0.0726746 0.253495 0)
(0.0729393 0.226924 0)
(0.0725846 0.199467 0)
(0.0721209 0.173151 0)
(0.0718154 0.148391 0)
(0.071664 0.124958 0)
(0.0714973 0.102563 0)
(0.0711398 0.0809785 0)
(0.0704421 0.0600303 0)
(0.0692925 0.0395515 0)
(0.0676146 0.0193714 0)
(0.0653124 -0.000715651 0)
(0.0623423 -0.0208863 0)
(0.0587158 -0.041363 0)
(0.0542999 -0.0623775 0)
(0.0492665 -0.084176 0)
(0.0433388 -0.107037 0)
(0.0370224 -0.13122 0)
(0.029595 -0.156949 0)
(0.022421 -0.184011 0)
(0.0128392 -0.211951 0)
(0.00701655 -0.239098 0)
(-0.0071369 -0.270806 0)
(-0.011714 -0.333548 0)
(-0.0338534 -0.443863 0)
(-0.00895915 -0.429752 0)
(0.00396374 0.036234 0)
(0.0318647 0.147753 0)
(0.0528062 0.219818 0)
(0.068273 0.259792 0)
(0.0796389 0.27544 0)
(0.0868354 0.270898 0)
(0.0906549 0.252457 0)
(0.0922011 0.227193 0)
(0.0927008 0.200056 0)
(0.092871 0.173581 0)
(0.0930782 0.1486 0)
(0.093383 0.125096 0)
(0.0936408 0.102821 0)
(0.0936601 0.0815251 0)
(0.0932686 0.0609964 0)
(0.0923321 0.0410377 0)
(0.0907483 0.0214617 0)
(0.0884396 0.0020521 0)
(0.0853197 -0.0173835 0)
(0.0814131 -0.0370851 0)
(0.0765267 -0.0573016 0)
(0.0709144 -0.078287 0)
(0.0641655 -0.100343 0)
(0.0569209 -0.123709 0)
(0.0481932 -0.148621 0)
(0.0395842 -0.174911 0)
(0.0281104 -0.202193 0)
(0.0200088 -0.228762 0)
(0.00243849 -0.259606 0)
(-0.00282094 -0.320744 0)
(-0.0299503 -0.440819 0)
(-0.00678603 -0.451254 0)
(0.000472815 0.0205678 0)
(0.029368 0.120825 0)
(0.0557944 0.198283 0)
(0.0757328 0.243904 0)
(0.0906746 0.264344 0)
(0.100865 0.264101 0)
(0.107111 0.248918 0)
(0.110514 0.225523 0)
(0.112367 0.199131 0)
(0.113553 0.172775 0)
(0.114556 0.147734 0)
(0.115523 0.124266 0)
(0.116361 0.102218 0)
(0.116891 0.0813359 0)
(0.116925 0.0613778 0)
(0.116316 0.0421093 0)
(0.114924 0.0233177 0)
(0.112692 0.00477513 0)
(0.109456 -0.0137465 0)
(0.105316 -0.0324846 0)
(0.0999772 -0.0517088 0)
(0.0937906 -0.0716756 0)
(0.0861667 -0.092709 0)
(0.0779003 -0.115036 0)
(0.0677011 -0.138937 0)
(0.0574184 -0.164197 0)
(0.0437038 -0.190514 0)
(0.0328749 -0.216221 0)
(0.0116762 -0.245519 0)
(0.00568745 -0.304039 0)
(-0.0267677 -0.433973 0)
(-0.00462391 -0.470582 0)
(-0.00170092 0.00853424 0)
(0.0236598 0.090985 0)
(0.0551386 0.172174 0)
(0.0794975 0.224082 0)
(0.0983901 0.250096 0)
(0.112235 0.254792 0)
(0.121707 0.243557 0)
(0.127812 0.222721 0)
(0.131786 0.197624 0)
(0.134593 0.171736 0)
(0.136822 0.146801 0)
(0.138729 0.123413 0)
(0.140312 0.101587 0)
(0.141452 0.0811147 0)
(0.141969 0.0617417 0)
(0.141738 0.043206 0)
(0.140569 0.0252646 0)
(0.138455 0.0076731 0)
(0.135138 -0.00981689 0)
(0.130802 -0.0274571 0)
(0.125016 -0.0455327 0)
(0.118256 -0.0642826 0)
(0.109708 -0.0840463 0)
(0.100353 -0.105004 0)
(0.088539 -0.127443 0)
(0.0764122 -0.151096 0)
(0.0601773 -0.175854 0)
(0.0462671 -0.200312 0)
(0.0211447 -0.228488 0)
(0.0139929 -0.285166 0)
(-0.0242695 -0.425145 0)
(-0.0022861 -0.487535 0)
(-0.00175685 0.000251687 0)
(0.0162468 0.0612028 0)
(0.0503378 0.142231 0)
(0.0786438 0.199409 0)
(0.10136 0.230874 0)
(0.119131 0.240614 0)
(0.132537 0.233689 0)
(0.142288 0.216049 0)
(0.149378 0.192983 0)
(0.154704 0.168226 0)
(0.158896 0.143906 0)
(0.162306 0.120953 0)
(0.165043 0.0996035 0)
(0.167088 0.079745 0)
(0.168298 0.0611488 0)
(0.168618 0.0435419 0)
(0.167801 0.026655 0)
(0.165931 0.0102316 0)
(0.1626 -0.0060031 0)
(0.158135 -0.0222971 0)
(0.151929 -0.0389502 0)
(0.144613 -0.0561742 0)
(0.13508 -0.0743249 0)
(0.124534 -0.0935163 0)
(0.110894 -0.11408 0)
(0.0966485 -0.135711 0)
(0.077477 -0.158523 0)
(0.0601465 -0.181303 0)
(0.031129 -0.20812 0)
(0.0222207 -0.262264 0)
(-0.0221314 -0.413132 0)
(0.000604937 -0.502472 0)
(-0.000485849 -0.00496954 0)
(0.00974206 0.0363816 0)
(0.0410833 0.110784 0)
(0.072057 0.171994 0)
(0.0987719 0.208439 0)
(0.120939 0.223048 0)
(0.139041 0.220575 0)
(0.153525 0.206575 0)
(0.164957 0.186193 0)
(0.173964 0.163252 0)
(0.181101 0.140129 0)
(0.18678 0.118031 0)
(0.191213 0.0974254 0)
(0.194541 0.0783454 0)
(0.196664 0.0606253 0)
(0.197683 0.0440282 0)
(0.197271 0.028261 0)
(0.195697 0.0130926 0)
(0.192354 -0.00180374 0)
(0.187775 -0.0166021 0)
(0.181095 -0.0316398 0)
(0.173162 -0.0470908 0)
(0.162505 -0.0633194 0)
(0.150624 -0.0803444 0)
(0.134919 -0.0985464 0)
(0.11832 -0.117542 0)
(0.0958794 -0.137771 0)
(0.074976 -0.158381 0)
(0.0421696 -0.184424 0)
(0.0308397 -0.236799 0)
(-0.0194794 -0.398946 0)
(0.00474828 -0.514383 0)
(0.000994784 -0.00854912 0)
(0.00568606 0.0191719 0)
(0.0281241 0.080242 0)
(0.0586601 0.140646 0)
(0.0878881 0.180151 0)
(0.114544 0.198591 0)
(0.13795 0.200351 0)
(0.158103 0.190337 0)
(0.175083 0.17337 0)
(0.189086 0.153163 0)
(0.200428 0.132154 0)
(0.209515 0.111728 0)
(0.21659 0.0925349 0)
(0.221978 0.0747741 0)
(0.225595 0.0583613 0)
(0.227763 0.0431342 0)
(0.228074 0.0288049 0)
(0.227014 0.0151828 0)
(0.2238 0.00193272 0)
(0.219223 -0.0110547 0)
(0.212057 -0.0241307 0)
(0.203493 -0.0373922 0)
(0.191583 -0.0512203 0)
(0.178273 -0.0655197 0)
(0.160282 -0.0807647 0)
(0.141195 -0.0965135 0)
(0.115257 -0.113741 0)
(0.0909075 -0.131949 0)
(0.0544047 -0.157749 0)
(0.0404082 -0.209306 0)
(-0.0143302 -0.382728 0)
(0.0114141 -0.522546 0)
(0.00192232 -0.0132544 0)
(0.00177476 0.0110817 0)
(0.0125268 0.0590805 0)
(0.0390783 0.113755 0)
(0.0695028 0.151568 0)
(0.100311 0.17131 0)
(0.129581 0.175932 0)
(0.156225 0.169462 0)
(0.179829 0.156149 0)
(0.199996 0.139311 0)
(0.216695 0.121231 0)
(0.230263 0.103293 0)
(0.240889 0.0862442 0)
(0.249087 0.0703931 0)
(0.254747 0.0557594 0)
(0.258465 0.0422528 0)
(0.259725 0.0296553 0)
(0.259331 0.0178041 0)
(0.256279 0.00643557 0)
(0.251709 -0.00456581 0)
(0.243938 -0.0154728 0)
(0.234705 -0.0262741 0)
(0.221371 -0.0373834 0)
(0.206645 -0.0485682 0)
(0.186306 -0.0604647 0)
(0.165049 -0.072553 0)
(0.135889 -0.0865211 0)
(0.10894 -0.102193 0)
(0.0692523 -0.128824 0)
(0.05315 -0.18054 0)
(-0.00274774 -0.365039 0)
(0.0228336 -0.52578 0)
(0.00182003 -0.00959766 0)
(-0.00168678 0.00708411 0)
(-0.00930627 0.0426787 0)
(0.00948982 0.0845479 0)
(0.0383418 0.117902 0)
(0.0732117 0.136011 0)
(0.108348 0.14214 0)
(0.14188 0.138986 0)
(0.172624 0.129733 0)
(0.199731 0.117009 0)
(0.222679 0.102792 0)
(0.241768 0.0883544 0)
(0.256966 0.074451 0)
(0.269017 0.0614405 0)
(0.277593 0.0494175 0)
(0.283723 0.0383731 0)
(0.286532 0.0281525 0)
(0.287435 0.0186786 0)
(0.284847 0.00971014 0)
(0.280748 0.00121807 0)
(0.272616 -0.00710096 0)
(0.263244 -0.0150401 0)
(0.248838 -0.0230452 0)
(0.233593 -0.030724 0)
(0.211705 -0.0389696 0)
(0.189972 -0.0471705 0)
(0.159009 -0.0579099 0)
(0.131999 -0.0712314 0)
(0.0907816 -0.0992467 0)
(0.0745705 -0.152877 0)
(0.0208393 -0.344976 0)
(0.0416184 -0.520321 0)
(-0.017044 -0.0202287 0)
(-0.03205 0.0264167 0)
(-0.0336565 0.0529099 0)
(-0.0260133 0.0750002 0)
(0.00368629 0.091411 0)
(0.0407994 0.102353 0)
(0.0817981 0.105766 0)
(0.122158 0.104055 0)
(0.160053 0.0983964 0)
(0.193825 0.0899803 0)
(0.22282 0.0802596 0)
(0.247241 0.070068 0)
(0.266757 0.0601229 0)
(0.282575 0.0506786 0)
(0.29379 0.0419424 0)
(0.3024 0.033903 0)
(0.306559 0.0265301 0)
(0.30912 0.0197715 0)
(0.307036 0.0134854 0)
(0.304226 0.00772343 0)
(0.296206 0.00224546 0)
(0.288411 -0.00269427 0)
(0.274338 -0.00757461 0)
(0.261557 -0.0119449 0)
(0.240588 -0.0169318 0)
(0.222931 -0.0217186 0)
(0.193628 -0.0298385 0)
(0.172873 -0.0410714 0)
(0.133336 -0.0713471 0)
(0.120187 -0.128448 0)
(0.0682314 -0.317199 0)
(0.0734369 -0.491834 0)
(-0.0904837 0.0511083 0)
(-0.103215 0.019432 0)
(-0.119324 0.0330934 0)
(-0.0901324 0.0369527 0)
(-0.061598 0.0463492 0)
(-0.016106 0.0532855 0)
(0.0283275 0.0567148 0)
(0.0739769 0.0576732 0)
(0.116897 0.0563064 0)
(0.156934 0.0530129 0)
(0.19165 0.0487542 0)
(0.223141 0.0438724 0)
(0.248367 0.0388906 0)
(0.271525 0.0339621 0)
(0.288125 0.029295 0)
(0.304263 0.0249525 0)
(0.313483 0.020898 0)
(0.323987 0.01726 0)
(0.326867 0.0137766 0)
(0.332929 0.0108306 0)
(0.33014 0.00783019 0)
(0.332627 0.00560408 0)
(0.324136 0.00291151 0)
(0.323535 0.00144724 0)
(0.308729 -0.00138635 0)
(0.305698 -0.00266409 0)
(0.282645 -0.00886425 0)
(0.277413 -0.0166141 0)
(0.24159 -0.0462844 0)
(0.233696 -0.101585 0)
(0.169671 -0.253089 0)
(0.133718 -0.393628 0)
(0.102503 0.119227 0)
(0.119753 0.0758892 0)
(0.165502 0.047911 0)
(0.206403 0.0295477 0)
(0.235414 0.0203046 0)
(0.266356 0.0154228 0)
(0.297652 0.0133947 0)
(0.332713 0.0124879 0)
(0.365951 0.0119935 0)
(0.401607 0.011465 0)
(0.431992 0.0109511 0)
(0.463826 0.010222 0)
(0.488087 0.00954646 0)
(0.51459 0.00863634 0)
(0.532099 0.00793692 0)
(0.553606 0.00696635 0)
(0.564742 0.00637781 0)
(0.582214 0.00539942 0)
(0.587555 0.00500273 0)
(0.602091 0.00400114 0)
(0.602075 0.00384164 0)
(0.614737 0.00274798 0)
(0.609475 0.00292034 0)
(0.62116 0.00171271 0)
(0.610169 0.00238653 0)
(0.620987 0.000762729 0)
(0.60138 0.00136315 0)
(0.60706 -0.00305851 0)
(0.565261 -0.00756509 0)
(0.542076 -0.0276619 0)
(0.418789 -0.0609151 0)
(0.273489 -0.114738 0)
)
;

boundaryField
{
    movingWall
    {
        type            fixedValue;
        value           uniform (1 0 0);
    }
    fixedWalls
    {
        type            noSlip;
    }
    frontAndBack
    {
        type            empty;
    }
}


// ************************************************************************* //
