/*--------------------------------*- C++ -*----------------------------------*\
| =========                 |                                                 |
| \\      /  F ield         | OpenFOAM: The Open Source CFD Toolbox           |
|  \\    /   O peration     | Version:  2406                                  |
|   \\  /    A nd           | Website:  www.openfoam.com                      |
|    \\/     M anipulation  |                                                 |
\*---------------------------------------------------------------------------*/
FoamFile
{
    version     2.0;
    format      ascii;
    arch        "LSB;label=32;scalar=64";
    class       volScalarField;
    location    "14.8";
    object      p;
}
// * * * * * * * * * * * * * * * * * * * * * * * * * * * * * * * * * * * * * //

dimensions      [0 2 -2 0 0 0 0];

internalField   nonuniform List<scalar> 
14400
(
0.0230272
0.0230271
0.0230245
0.0230206
0.0230154
0.0230093
0.0230028
0.0229959
0.022989
0.0229819
0.0229748
0.0229676
0.0229603
0.0229529
0.0229453
0.0229375
0.0229296
0.0229215
0.0229133
0.0229051
0.0228968
0.0228885
0.0228804
0.0228724
0.0228647
0.0228574
0.0228506
0.0228443
0.0228388
0.022834
0.0228301
0.0228272
0.0228255
0.022825
0.022826
0.0228285
0.0228327
0.0228388
0.0228468
0.022857
0.0228694
0.0228842
0.0229016
0.0229216
0.0229445
0.0229703
0.0229991
0.0230311
0.0230662
0.0231044
0.0231459
0.0231906
0.0232384
0.0232892
0.0233429
0.0233992
0.0234579
0.0235187
0.0235812
0.023645
0.0237096
0.0237745
0.0238391
0.0239028
0.0239649
0.0240248
0.0240817
0.024135
0.024184
0.0242281
0.0242666
0.024299
0.0243248
0.0243438
0.0243555
0.0243598
0.0243566
0.024346
0.0243282
0.0243033
0.0242719
0.0242343
0.0241911
0.0241429
0.0240903
0.0240342
0.0239751
0.0239138
0.023851
0.0237874
0.0237236
0.0236602
0.0235977
0.0235365
0.0234773
0.0234201
0.0233654
0.0233134
0.0232643
0.0232181
0.0231749
0.0231349
0.0230979
0.023064
0.0230331
0.0230052
0.0229802
0.0229581
0.0229388
0.0229223
0.0229083
0.0228973
0.0228887
0.0228831
0.0228795
0.0228792
0.0228801
0.0228838
0.0228867
0.0228905
0.0230274
0.0230272
0.0230251
0.0230218
0.0230175
0.0230124
0.0230068
0.0230008
0.0229945
0.022988
0.0229813
0.0229745
0.0229675
0.0229603
0.0229529
0.0229454
0.0229377
0.0229299
0.022922
0.022914
0.0229061
0.0228982
0.0228904
0.0228828
0.0228755
0.0228686
0.0228622
0.0228563
0.0228511
0.0228467
0.0228431
0.0228406
0.0228393
0.0228391
0.0228404
0.0228432
0.0228476
0.0228539
0.022862
0.0228723
0.0228848
0.0228996
0.0229168
0.0229367
0.0229594
0.0229848
0.0230132
0.0230445
0.0230789
0.0231163
0.0231569
0.0232004
0.023247
0.0232963
0.0233484
0.023403
0.0234599
0.0235187
0.0235791
0.0236407
0.0237031
0.0237656
0.0238278
0.0238891
0.0239488
0.0240063
0.024061
0.0241121
0.0241591
0.0242013
0.0242381
0.0242691
0.0242937
0.0243117
0.0243228
0.0243267
0.0243235
0.0243131
0.0242958
0.0242718
0.0242415
0.0242053
0.0241636
0.0241172
0.0240666
0.0240126
0.0239557
0.0238966
0.0238361
0.0237747
0.0237132
0.0236519
0.0235915
0.0235325
0.0234751
0.0234197
0.0233667
0.0233162
0.0232684
0.0232234
0.0231813
0.0231422
0.0231061
0.023073
0.0230427
0.0230154
0.0229908
0.0229691
0.02295
0.0229336
0.0229197
0.0229086
0.0228996
0.0228935
0.0228891
0.0228876
0.0228869
0.0228892
0.0228904
0.0228942
0.02303
0.0230293
0.0230272
0.0230237
0.0230195
0.0230145
0.0230091
0.0230032
0.0229972
0.0229908
0.0229843
0.0229776
0.0229707
0.0229637
0.0229564
0.022949
0.0229414
0.0229336
0.0229258
0.0229179
0.02291
0.0229021
0.0228944
0.0228868
0.0228796
0.0228727
0.0228663
0.0228604
0.0228552
0.0228508
0.0228473
0.0228447
0.0228433
0.0228431
0.0228443
0.022847
0.0228514
0.0228575
0.0228655
0.0228756
0.0228879
0.0229025
0.0229196
0.0229392
0.0229615
0.0229867
0.0230147
0.0230457
0.0230798
0.0231168
0.023157
0.0232001
0.0232462
0.0232952
0.0233469
0.0234011
0.0234575
0.0235159
0.0235759
0.0236372
0.0236992
0.0237614
0.0238234
0.0238844
0.0239439
0.0240013
0.0240558
0.0241068
0.0241536
0.0241958
0.0242325
0.0242635
0.0242881
0.024306
0.024317
0.0243209
0.0243177
0.0243073
0.0242899
0.0242659
0.0242355
0.0241992
0.0241575
0.0241111
0.0240606
0.0240065
0.0239497
0.0238908
0.0238304
0.0237693
0.0237079
0.023647
0.0235869
0.0235282
0.0234712
0.0234162
0.0233636
0.0233135
0.0232661
0.0232215
0.0231799
0.0231412
0.0231054
0.0230726
0.0230427
0.0230157
0.0229914
0.0229699
0.022951
0.0229348
0.022921
0.0229099
0.0229009
0.0228947
0.0228901
0.0228887
0.0228878
0.0228904
0.0228917
0.0228972
0.0230341
0.0230325
0.0230304
0.0230268
0.023023
0.0230182
0.0230134
0.0230079
0.0230023
0.0229963
0.0229902
0.0229837
0.0229772
0.0229703
0.0229632
0.022956
0.0229485
0.0229409
0.0229333
0.0229255
0.0229177
0.02291
0.0229024
0.022895
0.0228879
0.0228811
0.0228748
0.0228691
0.022864
0.0228596
0.0228561
0.0228536
0.0228522
0.022852
0.0228532
0.0228558
0.02286
0.022866
0.0228738
0.0228837
0.0228957
0.0229099
0.0229266
0.0229458
0.0229677
0.0229923
0.0230197
0.02305
0.0230833
0.0231196
0.0231589
0.0232011
0.0232463
0.0232943
0.0233449
0.023398
0.0234534
0.0235107
0.0235696
0.0236298
0.0236907
0.0237519
0.0238128
0.0238729
0.0239315
0.023988
0.0240417
0.024092
0.0241382
0.0241798
0.0242161
0.0242466
0.0242709
0.0242886
0.0242994
0.0243032
0.0242999
0.0242896
0.0242724
0.0242485
0.0242184
0.0241824
0.0241412
0.0240952
0.0240452
0.0239918
0.0239357
0.0238776
0.0238181
0.0237578
0.0236974
0.0236374
0.0235783
0.0235206
0.0234646
0.0234106
0.023359
0.0233099
0.0232634
0.0232198
0.023179
0.0231411
0.0231061
0.023074
0.0230447
0.0230183
0.0229945
0.0229734
0.0229548
0.0229389
0.0229252
0.0229142
0.022905
0.0228987
0.0228936
0.0228919
0.0228903
0.022893
0.0228938
0.0229009
0.0230399
0.0230369
0.0230345
0.0230303
0.0230265
0.0230215
0.0230168
0.0230113
0.0230059
0.0230001
0.0229942
0.0229879
0.0229814
0.0229746
0.0229677
0.0229605
0.0229531
0.0229455
0.0229378
0.02293
0.0229222
0.0229144
0.0229067
0.0228993
0.022892
0.0228851
0.0228787
0.0228728
0.0228675
0.0228629
0.0228592
0.0228564
0.0228548
0.0228542
0.0228551
0.0228573
0.0228612
0.0228667
0.0228741
0.0228835
0.022895
0.0229087
0.0229249
0.0229435
0.0229648
0.0229888
0.0230156
0.0230453
0.023078
0.0231137
0.0231524
0.0231941
0.0232388
0.0232863
0.0233365
0.0233893
0.0234444
0.0235015
0.0235603
0.0236204
0.0236814
0.0237428
0.023804
0.0238644
0.0239234
0.0239803
0.0240346
0.0240854
0.0241322
0.0241743
0.0242111
0.0242422
0.0242669
0.0242849
0.024296
0.0243
0.0242968
0.0242864
0.024269
0.0242449
0.0242144
0.024178
0.0241363
0.0240899
0.0240393
0.0239854
0.0239288
0.0238701
0.0238102
0.0237496
0.0236889
0.0236287
0.0235696
0.0235118
0.0234559
0.0234021
0.0233508
0.023302
0.0232559
0.0232127
0.0231723
0.0231349
0.0231004
0.0230688
0.02304
0.023014
0.0229906
0.02297
0.0229517
0.0229361
0.0229226
0.0229118
0.0229027
0.0228966
0.0228915
0.02289
0.0228884
0.0228919
0.0228929
0.0229017
0.0230466
0.0230419
0.0230394
0.0230345
0.0230307
0.0230257
0.0230212
0.0230159
0.0230108
0.0230051
0.0229995
0.0229933
0.0229871
0.0229804
0.0229736
0.0229665
0.0229591
0.0229516
0.0229439
0.0229361
0.0229282
0.0229204
0.0229126
0.022905
0.0228977
0.0228906
0.022884
0.0228779
0.0228724
0.0228676
0.0228636
0.0228605
0.0228585
0.0228576
0.022858
0.0228597
0.0228631
0.0228681
0.0228749
0.0228837
0.0228945
0.0229076
0.022923
0.0229409
0.0229613
0.0229845
0.0230104
0.0230393
0.0230711
0.0231059
0.0231437
0.0231846
0.0232284
0.0232751
0.0233245
0.0233766
0.0234311
0.0234877
0.0235461
0.0236058
0.0236666
0.0237278
0.023789
0.0238495
0.0239087
0.0239659
0.0240205
0.0240718
0.0241191
0.0241617
0.024199
0.0242306
0.0242558
0.0242743
0.0242857
0.02429
0.024287
0.0242767
0.0242594
0.0242352
0.0242046
0.024168
0.0241261
0.0240793
0.0240285
0.0239742
0.0239173
0.0238584
0.0237983
0.0237375
0.0236768
0.0236167
0.0235577
0.0235002
0.0234446
0.0233912
0.0233403
0.023292
0.0232465
0.0232039
0.0231643
0.0231275
0.0230937
0.0230628
0.0230346
0.0230092
0.0229864
0.0229662
0.0229484
0.0229332
0.02292
0.0229094
0.0229004
0.0228944
0.0228892
0.0228878
0.0228861
0.02289
0.022891
0.022901
0.0230538
0.0230475
0.0230446
0.0230388
0.0230349
0.0230295
0.023025
0.0230197
0.0230147
0.0230091
0.0230036
0.0229975
0.0229914
0.0229848
0.0229779
0.0229708
0.0229634
0.0229557
0.0229479
0.0229399
0.0229319
0.0229239
0.0229159
0.022908
0.0229003
0.022893
0.022886
0.0228794
0.0228735
0.0228682
0.0228637
0.02286
0.0228574
0.0228559
0.0228556
0.0228567
0.0228593
0.0228635
0.0228695
0.0228774
0.0228874
0.0228995
0.022914
0.0229309
0.0229504
0.0229726
0.0229976
0.0230255
0.0230564
0.0230903
0.0231272
0.0231673
0.0232104
0.0232565
0.0233054
0.0233571
0.0234113
0.0234678
0.0235262
0.0235862
0.0236473
0.023709
0.0237709
0.0238322
0.0238923
0.0239506
0.0240064
0.0240589
0.0241074
0.0241513
0.0241899
0.0242226
0.0242488
0.0242683
0.0242806
0.0242855
0.024283
0.024273
0.0242557
0.0242314
0.0242005
0.0241635
0.0241209
0.0240734
0.0240217
0.0239665
0.0239087
0.0238489
0.0237879
0.0237263
0.0236649
0.0236042
0.0235446
0.0234868
0.0234309
0.0233775
0.0233266
0.0232785
0.0232332
0.023191
0.0231517
0.0231155
0.0230822
0.0230518
0.0230242
0.0229993
0.022977
0.0229574
0.02294
0.0229253
0.0229124
0.0229022
0.0228934
0.0228877
0.0228827
0.0228817
0.0228801
0.0228846
0.0228859
0.0228969
0.0230613
0.0230531
0.0230499
0.0230431
0.0230392
0.0230334
0.0230291
0.0230237
0.0230189
0.0230134
0.023008
0.023002
0.0229959
0.0229894
0.0229826
0.0229753
0.0229679
0.0229601
0.0229521
0.0229439
0.0229357
0.0229273
0.022919
0.0229108
0.0229028
0.022895
0.0228875
0.0228805
0.022874
0.0228681
0.022863
0.0228586
0.0228553
0.022853
0.0228519
0.0228521
0.0228538
0.0228571
0.0228621
0.022869
0.0228778
0.0228888
0.0229021
0.0229178
0.0229361
0.022957
0.0229807
0.0230073
0.0230369
0.0230696
0.0231054
0.0231443
0.0231864
0.0232315
0.0232796
0.0233305
0.0233842
0.0234402
0.0234984
0.0235583
0.0236196
0.0236817
0.023744
0.023806
0.0238671
0.0239264
0.0239833
0.0240371
0.0240871
0.0241324
0.0241725
0.0242066
0.0242343
0.0242551
0.0242686
0.0242746
0.0242729
0.0242636
0.0242468
0.0242227
0.0241919
0.0241546
0.0241117
0.0240637
0.0240114
0.0239555
0.0238969
0.0238363
0.0237745
0.0237122
0.0236501
0.0235888
0.0235289
0.0234707
0.0234147
0.0233611
0.0233103
0.0232624
0.0232175
0.0231757
0.023137
0.0231013
0.0230686
0.0230388
0.0230118
0.0229876
0.022966
0.0229469
0.0229301
0.0229158
0.0229033
0.0228934
0.0228849
0.0228795
0.0228746
0.0228739
0.0228724
0.0228772
0.0228787
0.0228904
0.0230686
0.0230584
0.0230549
0.0230471
0.023043
0.0230368
0.0230324
0.0230269
0.0230222
0.0230166
0.0230113
0.0230053
0.0229992
0.0229926
0.0229857
0.0229783
0.0229707
0.0229627
0.0229544
0.0229459
0.0229373
0.0229286
0.0229198
0.0229111
0.0229025
0.0228941
0.022886
0.0228783
0.0228711
0.0228644
0.0228584
0.0228532
0.0228489
0.0228457
0.0228435
0.0228427
0.0228432
0.0228453
0.022849
0.0228545
0.022862
0.0228716
0.0228835
0.0228977
0.0229144
0.0229338
0.022956
0.022981
0.0230091
0.0230403
0.0230746
0.0231122
0.023153
0.0231969
0.023244
0.0232941
0.0233471
0.0234027
0.0234606
0.0235205
0.023582
0.0236446
0.0237077
0.0237707
0.0238329
0.0238937
0.0239524
0.024008
0.0240599
0.0241073
0.0241495
0.0241859
0.0242157
0.0242385
0.0242539
0.0242616
0.0242614
0.0242533
0.0242374
0.024214
0.0241835
0.0241463
0.0241032
0.0240547
0.0240017
0.023945
0.0238855
0.0238238
0.0237609
0.0236976
0.0236345
0.0235723
0.0235115
0.0234527
0.0233961
0.0233423
0.0232913
0.0232433
0.0231985
0.0231569
0.0231185
0.0230832
0.023051
0.0230218
0.0229954
0.0229719
0.0229508
0.0229323
0.022916
0.0229023
0.0228902
0.0228809
0.0228727
0.0228676
0.022863
0.0228626
0.0228613
0.0228666
0.0228682
0.0228805
0.0230752
0.0230632
0.0230592
0.0230505
0.0230462
0.0230396
0.0230353
0.0230296
0.0230249
0.0230194
0.0230141
0.0230081
0.0230019
0.0229952
0.0229882
0.0229806
0.0229727
0.0229644
0.0229558
0.0229469
0.0229379
0.0229286
0.0229193
0.02291
0.0229008
0.0228917
0.0228828
0.0228743
0.0228662
0.0228586
0.0228517
0.0228455
0.0228401
0.0228356
0.0228323
0.0228301
0.0228293
0.0228299
0.0228321
0.0228361
0.0228419
0.0228497
0.0228598
0.0228721
0.0228869
0.0229043
0.0229244
0.0229475
0.0229735
0.0230026
0.0230349
0.0230705
0.0231094
0.0231516
0.023197
0.0232456
0.0232973
0.0233518
0.0234089
0.0234682
0.0235294
0.023592
0.0236554
0.0237191
0.0237824
0.0238446
0.023905
0.0239626
0.0240168
0.0240667
0.0241116
0.0241507
0.0241834
0.024209
0.0242272
0.0242375
0.0242398
0.0242338
0.0242199
0.024198
0.0241687
0.0241324
0.0240897
0.0240414
0.0239883
0.0239312
0.0238709
0.0238085
0.0237448
0.0236805
0.0236165
0.0235534
0.0234918
0.0234323
0.0233752
0.023321
0.0232697
0.0232217
0.023177
0.0231356
0.0230975
0.0230627
0.023031
0.0230024
0.0229767
0.0229537
0.0229333
0.0229155
0.0228998
0.0228866
0.022875
0.0228661
0.0228583
0.0228536
0.0228492
0.0228491
0.022848
0.0228535
0.0228552
0.0228679
0.0230809
0.0230669
0.0230626
0.0230528
0.0230484
0.0230413
0.023037
0.0230311
0.0230264
0.0230208
0.0230154
0.0230093
0.0230031
0.0229961
0.0229889
0.022981
0.0229728
0.0229641
0.0229551
0.0229457
0.0229361
0.0229262
0.0229162
0.0229062
0.0228961
0.0228862
0.0228764
0.022867
0.0228578
0.0228492
0.022841
0.0228336
0.0228269
0.022821
0.0228162
0.0228125
0.02281
0.0228089
0.0228093
0.0228113
0.0228151
0.0228208
0.0228285
0.0228385
0.0228509
0.0228657
0.0228833
0.0229036
0.0229269
0.0229533
0.0229828
0.0230157
0.0230518
0.0230914
0.0231343
0.0231806
0.0232301
0.0232827
0.0233381
0.0233961
0.0234564
0.0235184
0.0235818
0.0236459
0.0237101
0.0237736
0.0238358
0.0238958
0.0239527
0.0240058
0.0240542
0.0240971
0.0241337
0.0241635
0.0241857
0.0242001
0.0242062
0.0242039
0.0241932
0.0241742
0.0241473
0.024113
0.0240718
0.0240245
0.0239719
0.023915
0.0238546
0.0237917
0.0237272
0.023662
0.023597
0.023533
0.0234705
0.0234101
0.0233523
0.0232974
0.0232458
0.0231975
0.0231527
0.0231114
0.0230736
0.0230391
0.0230078
0.0229797
0.0229545
0.0229322
0.0229124
0.0228952
0.0228801
0.0228675
0.0228565
0.022848
0.0228406
0.0228363
0.0228322
0.0228324
0.0228315
0.0228373
0.0228391
0.022852
0.0230853
0.0230693
0.0230647
0.0230538
0.0230493
0.0230417
0.0230374
0.0230313
0.0230266
0.0230208
0.0230155
0.0230092
0.0230028
0.0229956
0.022988
0.0229798
0.0229712
0.0229621
0.0229525
0.0229425
0.0229322
0.0229216
0.0229109
0.0229
0.0228891
0.0228782
0.0228674
0.0228568
0.0228465
0.0228366
0.0228272
0.0228183
0.0228101
0.0228026
0.0227961
0.0227906
0.0227861
0.0227829
0.0227811
0.0227807
0.022782
0.022785
0.0227899
0.0227968
0.022806
0.0228175
0.0228315
0.0228482
0.0228677
0.0228902
0.0229157
0.0229445
0.0229765
0.023012
0.0230509
0.0230933
0.023139
0.0231881
0.0232404
0.0232956
0.0233536
0.0234138
0.0234759
0.0235395
0.0236038
0.0236681
0.0237319
0.0237942
0.0238542
0.023911
0.0239638
0.0240116
0.0240537
0.0240892
0.0241174
0.0241377
0.0241498
0.0241533
0.0241481
0.0241342
0.0241118
0.0240815
0.0240436
0.023999
0.0239485
0.023893
0.0238334
0.0237709
0.0237064
0.0236409
0.0235753
0.0235105
0.0234472
0.023386
0.0233275
0.023272
0.0232199
0.0231713
0.0231263
0.023085
0.0230473
0.0230131
0.0229823
0.0229547
0.02293
0.0229083
0.0228891
0.0228725
0.022858
0.0228459
0.0228355
0.0228275
0.0228205
0.0228166
0.0228128
0.0228133
0.0228125
0.0228185
0.0228204
0.0228334
0.0230878
0.0230699
0.0230649
0.0230531
0.0230484
0.0230404
0.023036
0.0230297
0.023025
0.023019
0.0230135
0.023007
0.0230003
0.0229928
0.0229849
0.0229763
0.0229672
0.0229574
0.0229472
0.0229366
0.0229255
0.0229141
0.0229025
0.0228906
0.0228787
0.0228667
0.0228547
0.0228429
0.0228313
0.0228199
0.022809
0.0227985
0.0227885
0.0227792
0.0227707
0.022763
0.0227562
0.0227505
0.0227459
0.0227426
0.0227407
0.0227403
0.0227415
0.0227446
0.0227495
0.0227566
0.0227658
0.0227774
0.0227916
0.0228085
0.0228283
0.0228511
0.022877
0.0229063
0.022939
0.0229751
0.0230149
0.0230582
0.023105
0.0231553
0.0232088
0.0232653
0.0233245
0.023386
0.0234492
0.0235136
0.0235785
0.023643
0.0237064
0.0237677
0.023826
0.0238803
0.0239296
0.0239731
0.0240098
0.024039
0.0240601
0.0240725
0.024076
0.0240703
0.0240557
0.0240323
0.0240006
0.0239612
0.023915
0.023863
0.023806
0.0237453
0.0236819
0.0236169
0.0235513
0.0234862
0.0234224
0.0233605
0.0233013
0.0232451
0.0231924
0.0231433
0.023098
0.0230565
0.0230188
0.0229847
0.0229542
0.0229269
0.0229028
0.0228816
0.0228629
0.022847
0.022833
0.0228215
0.0228115
0.022804
0.0227975
0.0227939
0.0227904
0.0227911
0.0227906
0.0227967
0.0227987
0.0228117
0.0230882
0.0230684
0.0230631
0.0230502
0.0230455
0.023037
0.0230325
0.023026
0.0230212
0.023015
0.0230094
0.0230025
0.0229956
0.0229877
0.0229794
0.0229702
0.0229606
0.0229502
0.0229393
0.0229278
0.0229159
0.0229036
0.022891
0.0228781
0.022865
0.0228518
0.0228386
0.0228254
0.0228123
0.0227993
0.0227867
0.0227743
0.0227624
0.0227509
0.02274
0.0227297
0.0227201
0.0227113
0.0227034
0.0226964
0.0226904
0.0226857
0.0226821
0.0226799
0.0226792
0.0226802
0.0226828
0.0226874
0.022694
0.0227029
0.0227143
0.0227282
0.022745
0.0227649
0.022788
0.0228146
0.0228448
0.0228788
0.0229167
0.0229586
0.0230045
0.0230543
0.0231078
0.0231649
0.023225
0.0232879
0.0233528
0.023419
0.0234858
0.0235521
0.0236171
0.0236797
0.0237387
0.023793
0.0238416
0.0238835
0.0239177
0.0239434
0.0239602
0.0239675
0.0239652
0.0239533
0.0239321
0.023902
0.0238639
0.0238187
0.0237672
0.0237108
0.0236506
0.0235878
0.0235236
0.0234592
0.0233955
0.0233334
0.0232737
0.023217
0.0231636
0.023114
0.0230683
0.0230265
0.0229887
0.0229546
0.0229242
0.0228973
0.0228735
0.0228527
0.0228346
0.0228191
0.0228057
0.0227947
0.0227852
0.0227782
0.022772
0.0227688
0.0227656
0.0227665
0.022766
0.0227723
0.0227743
0.0227873
0.023086
0.0230643
0.0230587
0.0230449
0.02304
0.0230311
0.0230266
0.0230198
0.0230149
0.0230084
0.0230025
0.0229954
0.0229881
0.0229797
0.0229709
0.0229612
0.0229508
0.0229397
0.022928
0.0229157
0.0229029
0.0228896
0.0228758
0.0228618
0.0228475
0.0228329
0.0228183
0.0228035
0.0227888
0.022774
0.0227594
0.0227449
0.0227307
0.0227166
0.0227029
0.0226895
0.0226765
0.0226638
0.0226517
0.02264
0.0226289
0.0226184
0.0226085
0.0225993
0.0225909
0.0225835
0.022577
0.0225717
0.0225677
0.0225651
0.0225643
0.0225655
0.0225689
0.0225749
0.0225838
0.022596
0.0226118
0.0226316
0.0226558
0.0226846
0.0227184
0.0227572
0.0228013
0.0228505
0.0229047
0.0229637
0.0230269
0.0230939
0.0231638
0.0232357
0.0233087
0.0233816
0.023453
0.0235218
0.0235865
0.0236459
0.0236986
0.0237436
0.0237798
0.0238064
0.0238229
0.0238289
0.0238244
0.0238096
0.0237852
0.0237518
0.0237104
0.0236622
0.0236086
0.0235508
0.0234902
0.0234281
0.0233659
0.0233045
0.0232449
0.0231879
0.0231341
0.023084
0.0230377
0.0229955
0.0229573
0.0229231
0.0228926
0.0228658
0.0228422
0.0228218
0.022804
0.022789
0.022776
0.0227655
0.0227564
0.0227498
0.0227439
0.022741
0.022738
0.0227391
0.0227388
0.0227451
0.0227471
0.02276
0.0230808
0.0230573
0.0230514
0.0230366
0.0230316
0.0230222
0.0230177
0.0230106
0.0230056
0.0229989
0.0229927
0.0229852
0.0229775
0.0229686
0.0229592
0.0229488
0.0229377
0.0229258
0.0229132
0.0229
0.0228861
0.0228717
0.0228568
0.0228415
0.0228259
0.0228099
0.0227936
0.0227772
0.0227606
0.0227439
0.022727
0.0227101
0.0226931
0.022676
0.0226589
0.0226417
0.0226244
0.0226069
0.0225894
0.0225717
0.0225537
0.0225356
0.0225172
0.0224986
0.0224798
0.0224608
0.0224416
0.0224224
0.0224034
0.0223846
0.0223665
0.0223493
0.0223335
0.0223195
0.0223078
0.0222991
0.0222939
0.022293
0.022297
0.0223065
0.0223221
0.0223444
0.0223737
0.0224105
0.0224548
0.0225066
0.0225657
0.0226317
0.0227039
0.0227816
0.0228637
0.022949
0.023036
0.0231232
0.023209
0.0232917
0.0233697
0.0234412
0.0235047
0.023559
0.0236028
0.0236355
0.0236563
0.0236652
0.0236624
0.0236483
0.0236238
0.02359
0.0235481
0.0234998
0.0234466
0.0233899
0.0233314
0.0232724
0.0232142
0.0231578
0.023104
0.0230536
0.0230068
0.0229641
0.0229254
0.0228908
0.0228601
0.0228331
0.0228096
0.0227893
0.0227718
0.022757
0.0227444
0.0227342
0.0227254
0.0227191
0.0227135
0.0227108
0.022708
0.0227092
0.022709
0.0227153
0.0227174
0.0227301
0.0230721
0.0230469
0.0230407
0.023025
0.0230199
0.0230101
0.0230055
0.0229981
0.0229929
0.0229858
0.0229794
0.0229714
0.0229632
0.0229537
0.0229437
0.0229326
0.0229207
0.0229079
0.0228944
0.0228801
0.0228652
0.0228496
0.0228335
0.0228168
0.0227997
0.0227821
0.0227642
0.0227459
0.0227272
0.0227081
0.0226887
0.0226689
0.0226487
0.0226279
0.0226066
0.0225847
0.022562
0.0225384
0.0225139
0.0224883
0.0224614
0.0224331
0.0224034
0.0223719
0.0223388
0.0223039
0.0222672
0.0222288
0.0221889
0.0221476
0.0221053
0.0220625
0.0220198
0.0219778
0.0219373
0.0218994
0.0218649
0.0218349
0.0218105
0.0217928
0.0217828
0.0217816
0.0217898
0.0218083
0.0218376
0.0218781
0.0219297
0.0219924
0.0220656
0.0221487
0.0222407
0.0223402
0.0224458
0.0225558
0.0226681
0.0227807
0.0228914
0.0229979
0.0230983
0.0231904
0.0232723
0.0233426
0.0234
0.0234437
0.0234733
0.0234888
0.0234908
0.0234801
0.023458
0.023426
0.0233858
0.0233394
0.0232884
0.0232348
0.0231801
0.0231258
0.023073
0.0230229
0.0229759
0.0229327
0.0228935
0.0228583
0.0228271
0.0227998
0.022776
0.0227556
0.022738
0.0227234
0.0227109
0.0227009
0.0226923
0.0226862
0.0226808
0.0226782
0.0226755
0.0226768
0.0226766
0.0226829
0.0226849
0.0226976
0.0230597
0.0230326
0.0230262
0.0230096
0.0230045
0.0229942
0.0229895
0.0229818
0.0229765
0.022969
0.0229622
0.0229537
0.022945
0.0229349
0.0229242
0.0229122
0.0228995
0.0228858
0.0228713
0.0228559
0.0228398
0.022823
0.0228055
0.0227874
0.0227687
0.0227494
0.0227295
0.0227091
0.0226881
0.0226664
0.022644
0.0226207
0.0225966
0.0225713
0.0225448
0.0225169
0.0224874
0.0224559
0.0224223
0.0223863
0.0223475
0.0223057
0.0222606
0.0222118
0.0221593
0.0221028
0.0220422
0.0219776
0.021909
0.0218369
0.0217617
0.0216841
0.0216048
0.0215249
0.0214457
0.0213684
0.0212945
0.0212256
0.0211633
0.0211092
0.0210649
0.021032
0.0210117
0.0210053
0.0210137
0.0210377
0.0210776
0.0211338
0.0212058
0.0212933
0.0213952
0.0215104
0.0216372
0.0217737
0.0219177
0.0220667
0.022218
0.0223689
0.0225165
0.0226578
0.0227903
0.0229115
0.0230191
0.0231115
0.0231875
0.0232462
0.0232876
0.0233122
0.0233209
0.0233151
0.0232967
0.0232677
0.0232303
0.0231868
0.0231394
0.0230899
0.0230401
0.0229915
0.0229451
0.0229018
0.022862
0.0228262
0.0227943
0.0227663
0.022742
0.0227211
0.0227033
0.0226885
0.022676
0.0226659
0.0226574
0.0226513
0.022646
0.0226434
0.0226407
0.0226419
0.0226417
0.0226479
0.02265
0.0226625
0.0230429
0.0230141
0.0230075
0.0229901
0.0229848
0.0229741
0.0229694
0.0229613
0.0229557
0.0229479
0.0229407
0.0229316
0.0229224
0.0229116
0.0229001
0.0228873
0.0228737
0.022859
0.0228434
0.0228268
0.0228095
0.0227913
0.0227724
0.0227527
0.0227323
0.0227111
0.0226891
0.0226663
0.0226426
0.0226178
0.0225918
0.0225644
0.0225354
0.0225046
0.0224716
0.0224361
0.0223977
0.022356
0.0223105
0.0222607
0.0222062
0.0221463
0.0220807
0.0220088
0.0219302
0.0218446
0.0217519
0.0216522
0.0215455
0.0214324
0.0213136
0.0211899
0.0210627
0.0209334
0.0208038
0.0206757
0.0205512
0.0204325
0.0203219
0.0202216
0.0201338
0.0200606
0.0200039
0.0199654
0.0199466
0.0199487
0.0199724
0.0200182
0.0200862
0.0201762
0.0202872
0.0204183
0.0205678
0.0207336
0.0209134
0.0211045
0.0213036
0.0215074
0.0217124
0.0219148
0.022111
0.0222974
0.0224708
0.0226281
0.022767
0.0228857
0.022983
0.0230587
0.023113
0.0231471
0.0231625
0.0231616
0.0231468
0.0231209
0.0230865
0.0230463
0.0230028
0.022958
0.0229137
0.0228711
0.0228313
0.0227949
0.0227621
0.0227333
0.0227081
0.0226865
0.0226681
0.0226528
0.0226398
0.0226295
0.0226208
0.0226145
0.0226091
0.0226064
0.0226036
0.0226047
0.0226044
0.0226105
0.0226124
0.0226248
0.0230214
0.022991
0.0229841
0.0229659
0.0229606
0.0229495
0.0229446
0.0229362
0.0229304
0.0229221
0.0229144
0.0229048
0.0228949
0.0228834
0.0228711
0.0228574
0.0228428
0.022827
0.0228103
0.0227926
0.0227739
0.0227543
0.0227338
0.0227124
0.0226901
0.0226668
0.0226425
0.0226169
0.02259
0.0225614
0.0225311
0.0224987
0.0224637
0.0224258
0.0223845
0.0223393
0.0222895
0.0222344
0.0221734
0.0221056
0.0220302
0.0219465
0.0218537
0.0217511
0.021638
0.0215142
0.0213794
0.0212337
0.0210775
0.0209114
0.0207365
0.0205542
0.0203664
0.0201751
0.0199826
0.0197917
0.0196051
0.0194258
0.0192566
0.0191005
0.0189603
0.0188388
0.0187383
0.0186612
0.0186092
0.018584
0.0185867
0.0186182
0.0186788
0.0187685
0.0188868
0.0190327
0.0192047
0.0194008
0.0196186
0.0198552
0.0201071
0.0203706
0.0206415
0.0209153
0.0211874
0.0214531
0.0217078
0.0219473
0.0221675
0.0223653
0.022538
0.0226841
0.0228028
0.0228945
0.0229602
0.023002
0.0230225
0.0230248
0.0230124
0.0229885
0.0229566
0.0229196
0.02288
0.02284
0.0228011
0.0227646
0.0227311
0.0227012
0.0226749
0.0226522
0.0226328
0.0226166
0.022603
0.0225921
0.0225829
0.0225762
0.0225704
0.0225673
0.0225643
0.0225652
0.0225647
0.0225705
0.0225723
0.0225845
0.0229947
0.0229628
0.0229557
0.0229367
0.0229313
0.0229198
0.0229147
0.022906
0.0228999
0.0228911
0.022883
0.0228728
0.0228622
0.0228499
0.0228367
0.0228221
0.0228065
0.0227896
0.0227717
0.0227526
0.0227326
0.0227115
0.0226893
0.022666
0.0226416
0.0226159
0.0225888
0.02256
0.0225293
0.0224963
0.0224606
0.0224219
0.0223794
0.0223326
0.0222808
0.022223
0.0221584
0.022086
0.0220047
0.0219133
0.0218107
0.0216958
0.0215675
0.0214249
0.0212673
0.0210941
0.0209054
0.0207012
0.0204824
0.02025
0.0200057
0.0197515
0.01949
0.019224
0.0189568
0.0186918
0.0184326
0.0181829
0.0179464
0.0177266
0.017527
0.0173507
0.0172007
0.0170797
0.0169898
0.016933
0.0169108
0.0169242
0.0169739
0.0170602
0.0171827
0.0173407
0.0175331
0.0177579
0.018013
0.0182954
0.0186017
0.018928
0.0192697
0.0196217
0.0199788
0.0203352
0.020685
0.0210225
0.0213421
0.0216387
0.0219079
0.0221464
0.0223516
0.0225224
0.022659
0.0227626
0.0228356
0.0228813
0.0229034
0.0229063
0.0228942
0.0228711
0.0228408
0.0228063
0.0227704
0.0227349
0.0227013
0.0226704
0.0226428
0.0226187
0.0225979
0.0225804
0.0225656
0.0225537
0.0225437
0.0225363
0.0225299
0.0225263
0.0225228
0.0225233
0.0225224
0.022528
0.0225297
0.0225417
0.0229626
0.0229291
0.0229218
0.022902
0.0228966
0.0228846
0.0228795
0.0228703
0.0228639
0.0228546
0.022846
0.0228351
0.0228238
0.0228106
0.0227966
0.0227809
0.0227643
0.0227462
0.022727
0.0227066
0.0226851
0.0226623
0.0226383
0.022613
0.0225862
0.0225577
0.0225273
0.0224947
0.0224594
0.0224209
0.0223787
0.0223321
0.0222802
0.022222
0.0221567
0.0220828
0.0219992
0.0219044
0.0217968
0.0216749
0.0215372
0.0213821
0.0212083
0.0210147
0.0208006
0.0205655
0.0203095
0.0200333
0.0197381
0.0194257
0.0190985
0.0187596
0.0184123
0.0180604
0.0177083
0.0173601
0.0170203
0.0166934
0.0163837
0.0160953
0.015832
0.0155976
0.0153951
0.0152275
0.0150972
0.0150064
0.0149566
0.0149492
0.0149849
0.0150644
0.0151874
0.0153537
0.0155622
0.0158116
0.0160999
0.0164245
0.0167824
0.0171696
0.0175817
0.0180134
0.0184591
0.0189124
0.0193663
0.0198137
0.0202475
0.0206607
0.0210466
0.0213996
0.0217149
0.0219894
0.0222211
0.02241
0.0225574
0.0226662
0.0227403
0.0227845
0.0228041
0.0228044
0.0227904
0.0227666
0.0227371
0.0227048
0.0226722
0.022641
0.0226121
0.0225864
0.0225638
0.0225446
0.0225282
0.0225149
0.0225036
0.0224951
0.0224877
0.0224834
0.0224792
0.022479
0.0224777
0.0224829
0.0224843
0.0224962
0.0229244
0.0228894
0.022882
0.0228615
0.0228559
0.0228436
0.0228383
0.0228287
0.0228219
0.0228122
0.0228029
0.0227913
0.0227793
0.0227652
0.0227502
0.0227336
0.0227157
0.0226964
0.0226759
0.0226541
0.0226309
0.0226063
0.0225803
0.0225526
0.0225231
0.0224914
0.0224571
0.0224198
0.0223789
0.0223337
0.0222833
0.0222268
0.0221629
0.0220905
0.0220078
0.0219134
0.0218054
0.0216818
0.0215406
0.0213798
0.0211974
0.0209916
0.0207607
0.0205037
0.0202199
0.0199091
0.019572
0.0192099
0.0188247
0.0184194
0.0179974
0.0175628
0.0171201
0.0166742
0.0162303
0.0157936
0.0153693
0.0149624
0.0145778
0.01422
0.0138931
0.0136008
0.0133465
0.013133
0.0129628
0.0128379
0.0127601
0.0127306
0.0127504
0.01282
0.0129398
0.0131094
0.0133285
0.013596
0.0139104
0.0142698
0.0146716
0.0151125
0.0155885
0.0160946
0.0166254
0.0171742
0.0177337
0.0182959
0.0188523
0.0193942
0.0199127
0.0203997
0.0208476
0.0212504
0.0216035
0.0219042
0.0221521
0.0223486
0.022497
0.0226022
0.0226701
0.0227071
0.0227199
0.0227148
0.0226972
0.0226719
0.0226426
0.0226123
0.0225827
0.0225554
0.0225308
0.0225095
0.022491
0.0224757
0.0224627
0.0224527
0.022444
0.0224385
0.0224333
0.0224324
0.0224304
0.0224351
0.0224362
0.0224479
0.0228799
0.0228435
0.0228359
0.0228147
0.0228091
0.0227963
0.0227908
0.0227808
0.0227737
0.0227633
0.0227535
0.0227411
0.0227283
0.0227133
0.0226973
0.0226795
0.0226605
0.0226399
0.0226179
0.0225945
0.0225696
0.022543
0.0225146
0.0224842
0.0224515
0.0224159
0.0223771
0.0223341
0.0222864
0.0222328
0.0221722
0.0221032
0.0220242
0.0219335
0.021829
0.0217085
0.0215695
0.0214096
0.021226
0.0210164
0.0207783
0.0205097
0.020209
0.0198751
0.0195078
0.0191075
0.0186757
0.0182147
0.0177278
0.017219
0.0166931
0.0161554
0.0156116
0.0150679
0.0145302
0.0140046
0.0134968
0.0130122
0.0125561
0.0121329
0.0117467
0.0114012
0.0110994
0.0108441
0.0106376
0.0104815
0.0103775
0.0103267
0.0103299
0.0103879
0.010501
0.0106693
0.0108925
0.0111703
0.0115017
0.0118855
0.0123198
0.0128023
0.0133298
0.0138983
0.0145028
0.0151374
0.015795
0.0164674
0.0171455
0.0178194
0.0184785
0.0191121
0.0197099
0.0202624
0.0207617
0.0212015
0.0215783
0.0218908
0.0221406
0.0223316
0.0224696
0.0225619
0.0226165
0.0226414
0.0226443
0.022632
0.02261
0.022583
0.022554
0.0225256
0.022499
0.0224752
0.0224542
0.0224365
0.0224212
0.0224092
0.0223988
0.0223917
0.0223853
0.0223833
0.0223805
0.0223845
0.0223852
0.0223967
0.0228286
0.0227908
0.0227831
0.0227612
0.0227555
0.0227423
0.0227366
0.0227262
0.0227186
0.0227076
0.0226972
0.022684
0.0226703
0.0226543
0.0226373
0.0226183
0.022598
0.022576
0.0225525
0.0225273
0.0225004
0.0224716
0.0224406
0.022407
0.0223705
0.0223303
0.0222858
0.022236
0.0221798
0.0221157
0.0220424
0.0219578
0.0218599
0.0217462
0.0216142
0.0214608
0.0212831
0.0210778
0.0208418
0.0205721
0.0202662
0.0199219
0.0195378
0.0191133
0.018649
0.0181464
0.0176081
0.0170378
0.0164404
0.0158212
0.0151866
0.0145433
0.0138981
0.0132582
0.0126302
0.0120207
0.0114358
0.0108811
0.0103614
0.00988127
0.00944438
0.00905398
0.00871274
0.00842289