/*--------------------------------*- C++ -*----------------------------------*\
| =========                 |                                                 |
| \\      /  F ield         | OpenFOAM: The Open Source CFD Toolbox           |
|  \\    /   O peration     | Version:  2406                                  |
|   \\  /    A nd           | Website:  www.openfoam.com                      |
|    \\/     M anipulation  |                                                 |
\*---------------------------------------------------------------------------*/
FoamFile
{
    version     2.0;
    format      ascii;
    arch        "LSB;label=32;scalar=64";
    class       volVectorField;
    location    "13.15";
    object      U;
}
// * * * * * * * * * * * * * * * * * * * * * * * * * * * * * * * * * * * * * //

dimensions      [0 1 -1 0 0 0 0];

internalField   nonuniform List<vector> 
14400
(
(4.65432e-06 -4.56416e-06 0)
(1.7716e-05 -5.96372e-06 0)
(2.79646e-05 -3.50211e-06 0)
(2.6602e-05 7.58828e-07 0)
(1.31768e-05 4.76582e-06 0)
(-1.19732e-05 8.31221e-06 0)
(-4.68804e-05 1.09549e-05 0)
(-8.93496e-05 1.29549e-05 0)
(-0.000137599 1.42795e-05 0)
(-0.000189791 1.51857e-05 0)
(-0.00024485 1.57242e-05 0)
(-0.000301694 1.60735e-05 0)
(-0.000359872 1.62822e-05 0)
(-0.000418927 1.64559e-05 0)
(-0.000478818 1.66221e-05 0)
(-0.000539477 1.6834e-05 0)
(-0.000601069 1.70996e-05 0)
(-0.000663718 1.74397e-05 0)
(-0.000727656 1.78501e-05 0)
(-0.000793065 1.83339e-05 0)
(-0.000860164 1.88814e-05 0)
(-0.000929122 1.94876e-05 0)
(-0.00100011 2.01411e-05 0)
(-0.00107324 2.0834e-05 0)
(-0.00114863 2.15553e-05 0)
(-0.00122634 2.22964e-05 0)
(-0.0013064 2.30473e-05 0)
(-0.00138883 2.37993e-05 0)
(-0.0014736 2.45435e-05 0)
(-0.00156065 2.52713e-05 0)
(-0.0016499 2.5974e-05 0)
(-0.00174125 2.66434e-05 0)
(-0.00183454 2.72708e-05 0)
(-0.0019296 2.78477e-05 0)
(-0.00202625 2.83653e-05 0)
(-0.00212423 2.88148e-05 0)
(-0.0022233 2.9187e-05 0)
(-0.00232317 2.94724e-05 0)
(-0.0024235 2.96612e-05 0)
(-0.00252394 2.97433e-05 0)
(-0.00262411 2.97084e-05 0)
(-0.00272358 2.95454e-05 0)
(-0.0028219 2.92432e-05 0)
(-0.00291857 2.87905e-05 0)
(-0.00301306 2.81755e-05 0)
(-0.00310481 2.73867e-05 0)
(-0.00319322 2.64123e-05 0)
(-0.00327767 2.52413e-05 0)
(-0.00335748 2.38628e-05 0)
(-0.00343197 2.22672e-05 0)
(-0.00350042 2.04459e-05 0)
(-0.00356209 1.83919e-05 0)
(-0.00361622 1.61005e-05 0)
(-0.00366207 1.35692e-05 0)
(-0.00369888 1.07988e-05 0)
(-0.00372591 7.79313e-06 0)
(-0.00374243 4.56016e-06 0)
(-0.00374777 1.11196e-06 0)
(-0.0037413 -2.5348e-06 0)
(-0.00372245 -6.35867e-06 0)
(-0.00369074 -1.03332e-05 0)
(-0.00364578 -1.44271e-05 0)
(-0.00358729 -1.86041e-05 0)
(-0.00351512 -2.28234e-05 0)
(-0.00342924 -2.70402e-05 0)
(-0.00332979 -3.12062e-05 0)
(-0.00321704 -3.52705e-05 0)
(-0.00309145 -3.91804e-05 0)
(-0.00295362 -4.28826e-05 0)
(-0.00280432 -4.63244e-05 0)
(-0.00264449 -4.94551e-05 0)
(-0.00247521 -5.22271e-05 0)
(-0.0022977 -5.45973e-05 0)
(-0.00211331 -5.65286e-05 0)
(-0.00192348 -5.79904e-05 0)
(-0.00172974 -5.89601e-05 0)
(-0.00153367 -5.94237e-05 0)
(-0.00133689 -5.93762e-05 0)
(-0.00114101 -5.88218e-05 0)
(-0.00094762 -5.77738e-05 0)
(-0.000758247 -5.62544e-05 0)
(-0.000574347 -5.42939e-05 0)
(-0.000397274 -5.19295e-05 0)
(-0.000228255 -4.92048e-05 0)
(-6.83779e-05 -4.61681e-05 0)
(8.14201e-05 -4.28707e-05 0)
(0.000220365 -3.93663e-05 0)
(0.000347848 -3.57088e-05 0)
(0.000463425 -3.1951e-05 0)
(0.000566816 -2.8144e-05 0)
(0.000657892 -2.4335e-05 0)
(0.00073667 -2.05676e-05 0)
(0.000803297 -1.68799e-05 0)
(0.000858034 -1.33051e-05 0)
(0.000901239 -9.87022e-06 0)
(0.000933356 -6.59703e-06 0)
(0.000954884 -3.50079e-06 0)
(0.00096638 -5.92569e-07 0)
(0.000968416 2.12331e-06 0)
(0.0009616 4.64455e-06 0)
(0.000946518 6.97611e-06 0)
(0.000923781 9.12132e-06 0)
(0.000893937 1.10924e-05 0)
(0.000857581 1.28937e-05 0)
(0.00081519 1.45428e-05 0)
(0.000767351 1.60383e-05 0)
(0.000714457 1.74014e-05 0)
(0.000657147 1.86136e-05 0)
(0.000595741 1.96983e-05 0)
(0.000531072 2.05995e-05 0)
(0.000463434 2.13419e-05 0)
(0.000394126 2.17909e-05 0)
(0.000323532 2.1971e-05 0)
(0.00025391 2.15832e-05 0)
(0.000185981 2.06485e-05 0)
(0.00012375 1.85188e-05 0)
(6.87346e-05 1.52676e-05 0)
(2.73838e-05 9.72064e-06 0)
(1.78892e-06 3.16167e-06 0)
(-3.53365e-06 -3.51625e-06 0)
(6.30131e-06 -1.78799e-05 0)
(1.81043e-05 -1.77467e-05 0)
(1.63439e-05 -1.74804e-06 0)
(-1.13348e-05 2.23386e-05 0)
(-6.71894e-05 4.60282e-05 0)
(-0.000150261 6.77838e-05 0)
(-0.000257397 8.53235e-05 0)
(-0.000383979 9.92652e-05 0)
(-0.000526182 0.000109455 0)
(-0.00067982 0.000116901 0)
(-0.000842154 0.000122015 0)
(-0.00101052 0.000125644 0)
(-0.00118351 0.000128211 0)
(-0.00135987 0.000130277 0)
(-0.00153919 0.000132121 0)
(-0.00172116 0.000134048 0)
(-0.00190594 0.00013619 0)
(-0.00209373 0.000138674 0)
(-0.00228494 0.000141528 0)
(-0.00247993 0.000144773 0)
(-0.00267913 0.000148378 0)
(-0.00288292 0.000152312 0)
(-0.00309161 0.000156517 0)
(-0.00330547 0.000160938 0)
(-0.0035247 0.00016551 0)
(-0.00374938 0.000170171 0)
(-0.00397956 0.000174856 0)
(-0.00421518 0.000179501 0)
(-0.00445611 0.000184042 0)
(-0.00470214 0.000188418 0)
(-0.00495296 0.000192566 0)
(-0.0052082 0.000196426 0)
(-0.00546741 0.000199934 0)
(-0.00573005 0.000203031 0)
(-0.00599553 0.000205655 0)
(-0.00626313 0.000207742 0)
(-0.00653211 0.000209231 0)
(-0.00680162 0.000210058 0)
(-0.00707072 0.000210157 0)
(-0.00733843 0.000209463 0)
(-0.00760365 0.000207909 0)
(-0.00786524 0.000205428 0)
(-0.00812195 0.00020195 0)
(-0.00837247 0.000197408 0)
(-0.00861541 0.000191733 0)
(-0.00884929 0.000184858 0)
(-0.00907259 0.000176718 0)
(-0.00928369 0.000167251 0)
(-0.00948092 0.000156403 0)
(-0.00966258 0.000144124 0)
(-0.0098269 0.000130375 0)
(-0.00997209 0.000115129 0)
(-0.0100964 9.8371e-05 0)
(-0.0101979 8.01055e-05 0)
(-0.010275 6.03548e-05 0)
(-0.0103259 3.91631e-05 0)
(-0.010349 1.65992e-05 0)
(-0.0103428 -7.24227e-06 0)
(-0.0103058 -3.22389e-05 0)
(-0.010237 -5.82396e-05 0)
(-0.0101353 -8.50639e-05 0)
(-0.01 -0.000112503 0)
(-0.00983058 -0.000140321 0)
(-0.00962688 -0.000168255 0)
(-0.00938904 -0.000196022 0)
(-0.00911757 -0.000223319 0)
(-0.00881332 -0.000249832 0)
(-0.00847754 -0.000275238 0)
(-0.00811183 -0.000299213 0)
(-0.00771818 -0.000321438 0)
(-0.00729892 -0.000341611 0)
(-0.00685675 -0.000359446 0)
(-0.00639464 -0.00037469 0)
(-0.00591585 -0.00038712 0)
(-0.00542389 -0.000396559 0)
(-0.00492241 -0.000402872 0)
(-0.00441521 -0.000405977 0)
(-0.00390613 -0.000405844 0)
(-0.00339904 -0.000402498 0)
(-0.00289774 -0.000396016 0)
(-0.00240592 -0.000386528 0)
(-0.00192707 -0.000374212 0)
(-0.00146448 -0.000359288 0)
(-0.00102115 -0.000342012 0)
(-0.000599797 -0.000322673 0)
(-0.000202756 -0.000301579 0)
(0.000167977 -0.000279051 0)
(0.000510793 -0.000255417 0)
(0.000824458 -0.000231002 0)
(0.00110812 -0.000206119 0)
(0.00136128 -0.000181067 0)
(0.00158378 -0.00015612 0)
(0.00177579 -0.000131526 0)
(0.00193774 -0.000107501 0)
(0.00207033 -8.42283e-05 0)
(0.00217445 -6.18594e-05 0)
(0.00225116 -4.0509e-05 0)
(0.00230168 -2.02624e-05 0)
(0.00232726 -1.17069e-06 0)
(0.0023293 1.67367e-05 0)
(0.00230915 3.3461e-05 0)
(0.00226824 4.90117e-05 0)
(0.0022079 6.34257e-05 0)
(0.00212957 7.67261e-05 0)
(0.00203451 8.89634e-05 0)
(0.00192414 0.000100138 0)
(0.00179967 0.000110285 0)
(0.00166267 0.000119326 0)
(0.00151433 0.000127243 0)
(0.0013567 0.000133784 0)
(0.00119115 0.000138827 0)
(0.00102078 0.000141784 0)
(0.000847459 0.000142374 0)
(0.000676254 0.000139398 0)
(0.00050997 0.000132422 0)
(0.000356864 0.000119229 0)
(0.000220719 9.97835e-05 0)
(0.000113475 7.09774e-05 0)
(3.74227e-05 3.74036e-05 0)
(3.12456e-06 1.77252e-06 0)
(3.8692e-06 -2.84261e-05 0)
(1.12174e-06 -1.5509e-05 0)
(-3.00571e-05 2.80723e-05 0)
(-9.93121e-05 8.76926e-05 0)
(-0.000210229 0.000146861 0)
(-0.000359788 0.000201576 0)
(-0.000544508 0.000246962 0)
(-0.00075774 0.000283661 0)
(-0.000994573 0.000311428 0)
(-0.00124908 0.000332209 0)
(-0.00151745 0.000347121 0)
(-0.00179581 0.000358007 0)
(-0.00208202 0.000366027 0)
(-0.00237413 0.000372479 0)
(-0.00267137 0.000378155 0)
(-0.00297314 0.000383795 0)
(-0.00327951 0.000389802 0)
(-0.00359061 0.000396499 0)
(-0.00390689 0.000404002 0)
(-0.00422875 0.000412373 0)
(-0.00455672 0.000421564 0)
(-0.00489121 0.000431495 0)
(-0.00523261 0.000442034 0)
(-0.00558119 0.000453041 0)
(-0.00593714 0.000464351 0)
(-0.00630052 0.000475801 0)
(-0.00667128 0.000487219 0)
(-0.00704923 0.000498435 0)
(-0.00743408 0.000509281 0)
(-0.00782538 0.000519587 0)
(-0.00822261 0.000529188 0)
(-0.00862507 0.000537918 0)
(-0.00903199 0.000545614 0)
(-0.00944245 0.000552112 0)
(-0.00985544 0.000557251 0)
(-0.0102698 0.000560867 0)
(-0.0106843 0.000562799 0)
(-0.0110976 0.000562885 0)
(-0.0115082 0.000560962 0)
(-0.0119145 0.000556867 0)
(-0.0123148 0.000550436 0)
(-0.0127075 0.000541507 0)
(-0.0130905 0.000529916 0)
(-0.0134619 0.000515502 0)
(-0.0138196 0.000498107 0)
(-0.0141615 0.000477578 0)
(-0.0144853 0.00045377 0)
(-0.0147887 0.00042655 0)
(-0.0150693 0.0003958 0)
(-0.0153246 0.000361421 0)
(-0.0155522 0.00032334 0)
(-0.0157495 0.000281514 0)
(-0.0159142 0.000235938 0)
(-0.0160437 0.000186648 0)
(-0.0161356 0.00013373 0)
(-0.0161877 7.73221e-05 0)
(-0.0161978 1.76245e-05 0)
(-0.016164 -4.51003e-05 0)
(-0.0160845 -0.000110523 0)
(-0.0159577 -0.000178244 0)
(-0.0157826 -0.000247798 0)
(-0.0155582 -0.000318649 0)
(-0.0152842 -0.0003902 0)
(-0.0149604 -0.000461794 0)
(-0.0145873 -0.000532726 0)
(-0.0141659 -0.000602251 0)
(-0.0136975 -0.000669593 0)
(-0.013184 -0.000733968 0)
(-0.0126279 -0.000794587 0)
(-0.012032 -0.000850684 0)
(-0.0113998 -0.000901525 0)
(-0.0107352 -0.000946429 0)
(-0.0100423 -0.000984784 0)
(-0.00932587 -0.00101606 0)
(-0.00859079 -0.00103984 0)
(-0.00784224 -0.00105579 0)
(-0.00708554 -0.00106372 0)
(-0.00632611 -0.00106356 0)
(-0.00556938 -0.00105537 0)
(-0.00482069 -0.00103932 0)
(-0.00408525 -0.00101574 0)
(-0.00336801 -0.000985029 0)
(-0.00267364 -0.00094773 0)
(-0.00200645 -0.000904454 0)
(-0.00137032 -0.000855892 0)
(-0.000768672 -0.000802788 0)
(-0.000204443 -0.000745922 0)
(0.000319945 -0.000686091 0)
(0.000802589 -0.000624091 0)
(0.0012421 -0.000560695 0)
(0.0016376 -0.000496641 0)
(0.00198867 -0.000432616 0)
(0.00229535 -0.000369242 0)
(0.00255808 -0.000307074 0)
(0.00277764 -0.000246585 0)
(0.00295515 -0.000188171 0)
(0.00309193 -0.000132144 0)
(0.00318957 -7.87393e-05 0)
(0.00324977 -2.81171e-05 0)
(0.00327436 1.96245e-05 0)
(0.00326521 6.44513e-05 0)
(0.0032243 0.000106363 0)
(0.00315351 0.000145404 0)
(0.00305486 0.000181613 0)
(0.00293019 0.000215052 0)
(0.00278161 0.000245708 0)
(0.00261093 0.000273577 0)
(0.00242052 0.000298468 0)
(0.0022123 0.000320191 0)
(0.00198934 0.000338183 0)
(0.00175394 0.000351908 0)
(0.00151059 0.000360126 0)
(0.00126237 0.000361793 0)
(0.00101636 0.00035456 0)
(0.000776729 0.000336901 0)
(0.000554578 0.000305008 0)
(0.00035462 0.000258097 0)
(0.000192983 0.00019207 0)
(7.14743e-05 0.000113646 0)
(9.75171e-06 2.74511e-05 0)
(-7.52153e-07 -2.65211e-05 0)
(-2.65335e-05 1.56118e-05 0)
(-9.92844e-05 9.98456e-05 0)
(-0.000221354 0.00020569 0)
(-0.00039709 0.000309801 0)
(-0.000620055 0.000405828 0)
(-0.000886891 0.000486517 0)
(-0.00118898 0.000552456 0)
(-0.001521 0.000603352 0)
(-0.00187566 0.000642114 0)
(-0.00224859 0.000670665 0)
(-0.00263496 0.000691961 0)
(-0.00303216 0.000708027 0)
(-0.00343765 0.000721033 0)
(-0.00385039 0.000732397 0)
(-0.00426943 0.000743395 0)
(-0.00469471 0.000754777 0)
(-0.00512622 0.000767117 0)
(-0.00556434 0.000780661 0)
(-0.00600943 0.000795531 0)
(-0.00646198 0.000811665 0)
(-0.00692235 0.000828933 0)
(-0.00739089 0.000847114 0)
(-0.0078678 0.000865961 0)
(-0.00835318 0.000885183 0)
(-0.00884696 0.000904486 0)
(-0.00934894 0.000923559 0)
(-0.00985873 0.000942095 0)
(-0.0103758 0.000959782 0)
(-0.0108995 0.000976315 0)
(-0.011429 0.000991388 0)
(-0.0119632 0.0010047 0)
(-0.0125011 0.00101596 0)
(-0.0130413 0.00102486 0)
(-0.0135825 0.00103113 0)
(-0.014123 0.00103447 0)
(-0.0146611 0.00103461 0)
(-0.015195 0.00103126 0)
(-0.0157228 0.00102415 0)
(-0.0162425 0.001013 0)
(-0.0167517 0.000997545 0)
(-0.0172483 0.000977514 0)
(-0.0177299 0.000952644 0)
(-0.0181939 0.000922677 0)
(-0.0186378 0.000887363 0)
(-0.0190589 0.000846467 0)
(-0.0194545 0.000799765 0)
(-0.0198218 0.000747059 0)
(-0.0201578 0.000688178 0)
(-0.0204597 0.000622989 0)
(-0.0207246 0.000551401 0)
(-0.0209495 0.000473379 0)
(-0.0211315 0.000388953 0)
(-0.0212679 0.000298225 0)
(-0.0213559 0.000201382 0)
(-0.0213929 9.87032e-05 0)
(-0.0213765 -9.43178e-06 0)
(-0.0213046 -0.000122535 0)
(-0.0211753 -0.000240009 0)
(-0.0209869 -0.000361138 0)
(-0.0207383 -0.000485097 0)
(-0.0204287 -0.000610948 0)
(-0.0200578 -0.000737652 0)
(-0.0196258 -0.000864076 0)
(-0.0191333 -0.000989007 0)
(-0.0185817 -0.00111117 0)
(-0.0179729 -0.00122926 0)
(-0.0173092 -0.00134193 0)
(-0.0165937 -0.00144785 0)
(-0.0158301 -0.00154574 0)
(-0.0150225 -0.00163436 0)
(-0.0141757 -0.00171257 0)
(-0.0132947 -0.00177934 0)
(-0.0123852 -0.00183379 0)
(-0.0114531 -0.00187521 0)
(-0.0105047 -0.00190305 0)
(-0.00954632 -0.00191699 0)
(-0.00858451 -0.0019169 0)
(-0.00762579 -0.00190288 0)
(-0.00667662 -0.00187523 0)
(-0.00574327 -0.00183446 0)
(-0.00483175 -0.00178127 0)
(-0.00394775 -0.00171654 0)
(-0.00309652 -0.00164131 0)
(-0.00228286 -0.00155674 0)
(-0.001511 -0.00146407 0)
(-0.00078462 -0.00136464 0)
(-0.000106808 -0.00125979 0)
(0.000519974 -0.00115089 0)
(0.00109387 -0.00103925 0)
(0.00161362 -0.000926147 0)
(0.00207853 -0.000812775 0)
(0.00248847 -0.00070022 0)
(0.00284375 -0.000589455 0)
(0.00314517 -0.000481322 0)
(0.00339387 -0.000376531 0)
(0.00359135 -0.000275655 0)
(0.00373935 -0.000179137 0)
(0.00383982 -8.72895e-05 0)
(0.00389489 -3.22264e-07 0)
(0.00390674 8.16609e-05 0)
(0.0038777 0.000158618 0)
(0.00381004 0.000230576 0)
(0.00370622 0.000297555 0)
(0.0035685 0.000359596 0)
(0.00339949 0.000416635 0)
(0.00320151 0.000468573 0)
(0.00297755 0.00051505 0)
(0.00273015 0.000555616 0)
(0.00246317 0.000589305 0)
(0.00217968 0.000615055 0)
(0.00188526 0.000630865 0)
(0.00158382 0.000634805 0)
(0.00128395 0.000623344 0)
(0.000990471 0.000593764 0)
(0.000716574 0.000540843 0)
(0.000467007 0.000462731 0)
(0.000261449 0.000354359 0)
(0.000101264 0.00022194 0)
(1.54422e-05 6.92434e-05 0)
(-5.83765e-06 -9.94441e-06 0)
(-5.79269e-05 8.19669e-05 0)
(-0.000178256 0.000222967 0)
(-0.000359622 0.000387738 0)
(-0.000606674 0.000547509 0)
(-0.000908329 0.000693828 0)
(-0.0012613 0.00081752 0)
(-0.00165466 0.000919182 0)
(-0.00208296 0.000998682 0)
(-0.00253763 0.00105997 0)
(-0.00301406 0.00110593 0)
(-0.00350663 0.00114075 0)
(-0.00401251 0.00116747 0)
(-0.00452867 0.00118922 0)
(-0.00505387 0.00120818 0)
(-0.00558689 0.00122622 0)
(-0.00612754 0.00124451 0)
(-0.00667561 0.00126393 0)
(-0.00723141 0.00128487 0)
(-0.00779515 0.00130754 0)
(-0.00836723 0.00133186 0)
(-0.00894789 0.00135764 0)
(-0.00953736 0.00138455 0)
(-0.0101357 0.00141221 0)
(-0.0107428 0.00144019 0)
(-0.0113585 0.00146802 0)
(-0.0119823 0.00149523 0)
(-0.0126136 0.00152132 0)
(-0.0132516 0.00154583 0)
(-0.0138954 0.00156826 0)
(-0.0145437 0.00158814 0)
(-0.0151952 0.00160502 0)
(-0.0158485 0.00161843 0)
(-0.0165019 0.00162793 0)
(-0.0171535 0.00163308 0)
(-0.0178014 0.00163346 0)
(-0.0184435 0.00162865 0)
(-0.0190776 0.00161824 0)
(-0.0197013 0.00160184 0)
(-0.0203122 0.00157906 0)
(-0.0209078 0.00154951 0)
(-0.0214853 0.00151284 0)
(-0.022042 0.00146867 0)
(-0.0225751 0.00141665 0)
(-0.0230818 0.00135646 0)
(-0.0235589 0.00128778 0)
(-0.0240036 0.00121032 0)
(-0.0244126 0.00112382 0)
(-0.0247829 0.00102808 0)
(-0.0251113 0.000922947 0)
(-0.0253947 0.000808326 0)
(-0.0256299 0.000684213 0)
(-0.0258139 0.000550696 0)
(-0.0259437 0.000407974 0)
(-0.0260164 0.000256367 0)
(-0.0260293 9.63313e-05 0)
(-0.02598 -7.15285e-05 0)
(-0.0258662 -0.000246453 0)
(-0.025686 -0.000427521 0)
(-0.0254378 -0.000613646 0)
(-0.0251204 -0.000803579 0)
(-0.0247332 -0.000995914 0)
(-0.024276 -0.0011891 0)
(-0.0237491 -0.00138145 0)
(-0.0231535 -0.00157116 0)
(-0.0224906 -0.00175637 0)
(-0.0217628 -0.00193512 0)
(-0.0209728 -0.00210546 0)
(-0.0201241 -0.00226545 0)
(-0.0192208 -0.00241317 0)
(-0.0182675 -0.00254684 0)
(-0.0172697 -0.00266477 0)
(-0.0162331 -0.00276546 0)
(-0.015164 -0.00284761 0)
(-0.014069 -0.00291017 0)
(-0.0129552 -0.00295236 0)
(-0.0118297 -0.00297367 0)
(-0.0107 -0.00297392 0)
(-0.00957332 -0.00295322 0)
(-0.00845704 -0.00291201 0)
(-0.00735828 -0.00285102 0)
(-0.00628388 -0.00277126 0)
(-0.00524035 -0.00267403 0)
(-0.00423372 -0.00256082 0)
(-0.00326952 -0.00243334 0)
(-0.00235267 -0.00229342 0)
(-0.00148748 -0.00214302 0)
(-0.0006776 -0.00198414 0)
(7.40299e-05 -0.00181879 0)
(0.000765138 -0.00164895 0)
(0.00139413 -0.00147652 0)
(0.00196005 -0.00130329 0)
(0.00246257 -0.0011309 0)
(0.00290192 -0.000960842 0)
(0.00327882 -0.000794397 0)
(0.00359445 -0.000632664 0)
(0.00385036 -0.000476538 0)
(0.00404843 -0.000326723 0)
(0.00419075 -0.000183736 0)
(0.00427966 -4.79347e-05 0)
(0.00431757 8.04728e-05 0)
(0.00430708 0.000201375 0)
(0.00425073 0.000314749 0)
(0.0041513 0.000420573 0)
(0.00401139 0.000518835 0)
(0.00383398 0.000609381 0)
(0.00362178 0.000691971 0)
(0.00337827 0.000766015 0)
(0.00310643 0.00083073 0)
(0.00281076 0.000884671 0)
(0.00249484 0.000926132 0)
(0.00216508 0.000952285 0)
(0.00182591 0.000960159 0)
(0.00148704 0.00094503 0)
(0.0011536 0.000902775 0)
(0.000840497 0.000826814 0)
(0.000552455 0.00071369 0)
(0.000312566 0.000557116 0)
(0.00012235 0.00036071 0)
(1.8934e-05 0.000125337 0)
(-1.11506e-05 2.31525e-05 0)
(-9.15396e-05 0.000187652 0)
(-0.000263131 0.000401819 0)
(-0.000507909 0.000636995 0)
(-0.000830417 0.00086091 0)
(-0.0012141 0.00106381 0)
(-0.00165563 0.00123548 0)
(-0.00214151 0.00137686 0)
(-0.00266631 0.00148833 0)
(-0.0032202 0.00157499 0)
(-0.00379853 0.00164084 0)
(-0.00439504 0.00169132 0)
(-0.00500682 0.00173055 0)
(-0.00563045 0.00176268 0)
(-0.00626458 0.00179064 0)
(-0.00690776 0.00181696 0)
(-0.00755965 0.00184323 0)
(-0.00821987 0.00187063 0)
(-0.00888859 0.00189974 0)
(-0.00956586 0.00193082 0)
(-0.0102519 0.00196379 0)
(-0.0109468 0.00199837 0)
(-0.0116506 0.00203414 0)
(-0.0123631 0.00207055 0)
(-0.0130841 0.002107 0)
(-0.013813 0.00214285 0)
(-0.0145493 0.00217742 0)
(-0.0152918 0.00221004 0)
(-0.0160397 0.00224002 0)
(-0.0167915 0.00226671 0)
(-0.0175458 0.00228943 0)
(-0.0183009 0.00230756 0)
(-0.019055 0.00232046 0)
(-0.019806 0.00232754 0)
(-0.0205518 0.00232821 0)
(-0.0212901 0.00232191 0)
(-0.0220184 0.00230809 0)
(-0.0227342 0.00228625 0)
(-0.023435 0.00225587 0)
(-0.0241179 0.00221647 0)
(-0.0247801 0.00216758 0)
(-0.0254189 0.00210876 0)
(-0.0260313 0.00203956 0)
(-0.0266143 0.00195956 0)
(-0.0271648 0.00186838 0)
(-0.0276797 0.00176563 0)
(-0.028156 0.001651 0)
(-0.0285904 0.00152418 0)
(-0.0289798 0.00138495 0)
(-0.0293209 0.00123314 0)
(-0.0296106 0.0010687 0)
(-0.0298457 0.000891649 0)
(-0.0300232 0.000702155 0)
(-0.0301398 0.000500522 0)
(-0.0301929 0.000287218 0)
(-0.0301797 6.28907e-05 0)
(-0.0300976 -0.00017162 0)
(-0.0299444 -0.000415268 0)
(-0.0297182 -0.000666795 0)
(-0.0294174 -0.000924725 0)
(-0.0290408 -0.00118737 0)
(-0.0285878 -0.00145283 0)
(-0.0280581 -0.00171902 0)
(-0.0274522 -0.00198369 0)
(-0.0267711 -0.00224442 0)
(-0.0260164 -0.0024987 0)
(-0.0251904 -0.00274393 0)
(-0.0242962 -0.0029775 0)
(-0.0233374 -0.00319678 0)
(-0.0223184 -0.00339925 0)
(-0.0212443 -0.00358249 0)
(-0.0201206 -0.00374424 0)
(-0.0189537 -0.00388248 0)
(-0.0177504 -0.00399546 0)
(-0.0165178 -0.00408174 0)
(-0.0152635 -0.00414025 0)
(-0.0139955 -0.00417028 0)
(-0.0127217 -0.00417156 0)
(-0.0114504 -0.00414421 0)
(-0.0101895 -0.00408878 0)
(-0.0089469 -0.00400622 0)
(-0.00773033 -0.00389788 0)
(-0.00654699 -0.00376544 0)
(-0.00540366 -0.00361091 0)
(-0.00430657 -0.00343657 0)
(-0.0032613 -0.00324489 0)
(-0.00227275 -0.00303849 0)
(-0.00134509 -0.00282008 0)
(-0.000481736 -0.00259239 0)
(0.000314655 -0.00235811 0)
(0.00104218 -0.00211983 0)
(0.00169965 -0.00188002 0)
(0.00228657 -0.00164094 0)
(0.00280308 -0.00140462 0)
(0.00324986 -0.00117286 0)
(0.00362812 -0.000947189 0)
(0.00393949 -0.000728878 0)
(0.00418596 -0.000518928 0)
(0.00436979 -0.000318092 0)
(0.0044935 -0.000126905 0)
(0.00455971 5.42942e-05 0)
(0.00457124 0.0002253 0)
(0.00453089 0.00038602 0)
(0.00444169 0.000536366 0)
(0.00430653 0.000676246 0)
(0.0041287 0.000805393 0)
(0.00391122 0.000923386 0)
(0.00365793 0.00102938 0)
(0.00337217 0.0011222 0)
(0.00305893 0.00119991 0)
(0.00272211 0.00126011 0)
(0.00236878 0.00129912 0)
(0.00200365 0.00131291 0)
(0.00163729 0.00129556 0)
(0.00127499 0.00124146 0)
(0.000933029 0.0011426 0)
(0.00061619 0.000993402 0)
(0.00035044 0.000785697 0)
(0.000137781 0.000518907 0)
(2.13712e-05 0.000189591 0)
(-1.62986e-05 7.29117e-05 0)
(-0.000125255 0.000334368 0)
(-0.000349257 0.000639665 0)
(-0.000659128 0.000958095 0)
(-0.00105904 0.00125558 0)
(-0.00152644 0.0015219 0)
(-0.00205777 0.00174671 0)
(-0.00263667 0.00193175 0)
(-0.0032577 0.00207832 0)
(-0.00390974 0.0021929 0)
(-0.0045882 0.00228076 0)
(-0.00528622 0.00234872 0)
(-0.00600092 0.00240205 0)
(-0.00672856 0.00244593 0)
(-0.00746778 0.0024841 0)
(-0.00821689 0.00251973 0)
(-0.00897547 0.00255487 0)
(-0.00974294 0.002591 0)
(-0.0105193 0.00262885 0)
(-0.0113045 0.00266875 0)
(-0.0120985 0.00271058 0)
(-0.0129011 0.00275401 0)
(-0.0137123 0.00279844 0)
(-0.0145314 0.00284319 0)
(-0.0153582 0.00288745 0)
(-0.0161916 0.00293037 0)
(-0.0170308 0.00297107 0)
(-0.0178745 0.00300867 0)
(-0.0187214 0.00304227 0)
(-0.0195697 0.00307101 0)
(-0.0204177 0.00309403 0)
(-0.0212634 0.00311052 0)
(-0.0221046 0.00311969 0)
(-0.0229389 0.00312077 0)
(-0.023764 0.00311307 0)
(-0.0245772 0.00309589 0)
(-0.0253759 0.00306859 0)
(-0.0261574 0.00303056 0)
(-0.0269189 0.00298123 0)
(-0.0276576 0.00292004 0)
(-0.0283705 0.00284647 0)
(-0.0290548 0.00276001 0)
(-0.0297075 0.00266019 0)
(-0.0303257 0.00254653 0)
(-0.0309063 0.00241861 0)
(-0.0314464 0.00227603 0)
(-0.0319429 0.00211841 0)
(-0.0323927 0.00194545 0)
(-0.0327927 0.00175689 0)
(-0.0331399 0.00155258 0)
(-0.0334312 0.00133246 0)
(-0.0336634 0.00109662 0)
(-0.0338335 0.00084526 0)
(-0.0339385 0.000578801 0)
(-0.0339755 0.000297843 0)
(-0.0339419 3.20998e-06 0)
(-0.0338349 -0.00030403 0)
(-0.0336524 -0.000622556 0)
(-0.0333922 -0.000950777 0)
(-0.0330527 -0.00128683 0)
(-0.0326324 -0.0016286 0)
(-0.0321306 -0.00197368 0)
(-0.031547 -0.00231944 0)
(-0.0308816 -0.00266303 0)
(-0.0301355 -0.0030014 0)
(-0.02931 -0.00333137 0)
(-0.0284074 -0.00364964 0)
(-0.0274306 -0.00395288 0)
(-0.0263832 -0.00423777 0)
(-0.0252698 -0.00450104 0)
(-0.0240953 -0.0047396 0)
(-0.0228658 -0.00495055 0)
(-0.0215876 -0.00513126 0)
(-0.0202681 -0.00527945 0)
(-0.0189148 -0.00539323 0)
(-0.0175359 -0.00547115 0)
(-0.01614 -0.00551228 0)
(-0.0147357 -0.00551615 0)
(-0.013332 -0.00548289 0)
(-0.0119377 -0.00541311 0)
(-0.0105617 -0.00530798 0)
(-0.00921225 -0.00516918 0)
(-0.00789764 -0.00499882 0)
(-0.00662544 -0.00479946 0)
(-0.00540266 -0.00457398 0)
(-0.00423564 -0.00432555 0)
(-0.00312994 -0.00405755 0)
(-0.00209033 -0.00377348 0)
(-0.00112074 -0.00347685 0)
(-0.000224215 -0.00317118 0)
(0.000597004 -0.00285984 0)
(0.00134151 -0.00254603 0)
(0.00200868 -0.00223272 0)
(0.00259857 -0.00192258 0)
(0.0031119 -0.00161799 0)
(0.00354998 -0.00132098 0)
(0.00391454 -0.00103321 0)
(0.00420778 -0.000756043 0)
(0.00443216 -0.000490494 0)
(0.00459044 -0.000237302 0)
(0.0046855 3.04701e-06 0)
(0.00472042 0.000230241 0)
(0.00469829 0.000444105 0)
(0.00462239 0.000644478 0)
(0.00449589 0.000831175 0)
(0.00432238 0.0010038 0)
(0.00410512 0.00116175 0)
(0.0038483 0.00130388 0)
(0.00355549 0.00142862 0)
(0.00323205 0.0015335 0)
(0.00288213 0.00161539 0)
(0.00251327 0.00166976 0)
(0.00213036 0.00169141 0)
(0.00174465 0.00167324 0)
(0.00136156 0.00160795 0)
(0.000998542 0.00148595 0)
(0.00066061 0.00129911 0)
(0.000376129 0.00103685 0)
(0.000147691 0.000693613 0)
(2.26935e-05 0.000260746 0)
(-2.13792e-05 0.000139245 0)
(-0.000158958 0.000522354 0)
(-0.00043566 0.000936747 0)
(-0.00081113 0.00135092 0)
(-0.00128898 0.0017306 0)
(-0.00184042 0.0020661 0)
(-0.0024615 0.00234799 0)
(-0.00313282 0.00257936 0)
(-0.00384892 0.00276299 0)
(-0.00459732 0.00290697 0)
(-0.00537357 0.00301808 0)
(-0.00617022 0.00310458 0)
(-0.00698449 0.00317294 0)
(-0.00781238 0.0032294 0)
(-0.00865253 0.0032785 0)
(-0.00950307 0.00332405 0)
(-0.0103635 0.00336851 0)
(-0.0112331 0.00341364 0)
(-0.0121117 0.00346032 0)
(-0.0129988 0.00350893 0)
(-0.0138945 0.00355929 0)
(-0.0147982 0.00361096 0)
(-0.0157095 0.00366321 0)
(-0.0166277 0.00371515 0)
(-0.017552 0.00376578 0)
(-0.0184812 0.00381404 0)
(-0.0194141 0.00385882 0)
(-0.0203491 0.00389901 0)
(-0.0212845 0.00393352 0)
(-0.0222183 0.00396128 0)
(-0.0231484 0.00398125 0)
(-0.0240724 0.00399245 0)
(-0.024988 0.00399394 0)
(-0.0258926 0.00398486 0)
(-0.0267835 0.00396437 0)
(-0.027658 0.00393172 0)
(-0.0285134 0.00388621 0)
(-0.0293468 0.00382719 0)
(-0.0301556 0.00375403 0)
(-0.0309368 0.00366618 0)
(-0.0316878 0.0035631 0)
(-0.0324057 0.00344427 0)
(-0.0330878 0.0033092 0)
(-0.0337314 0.00315743 0)
(-0.0343336 0.0029885 0)
(-0.0348919 0.00280198 0)
(-0.0354033 0.0025975 0)
(-0.035865 0.00237471 0)
(-0.0362743 0.00213334 0)
(-0.0366282 0.00187322 0)
(-0.0369238 0.00159428 0)
(-0.0371582 0.0012966 0)
(-0.0373284 0.000980437 0)
(-0.0374314 0.000646249 0)
(-0.0374644 0.000294731 0)
(-0.0374244 -7.31634e-05 0)
(-0.0373088 -0.000456189 0)
(-0.037115 -0.000852796 0)
(-0.0368406 -0.00126111 0)
(-0.0364836 -0.00167893 0)
(-0.0360422 -0.00210371 0)
(-0.0355152 -0.0025326 0)
(-0.0349017 -0.00296245 0)
(-0.0342015 -0.00338979 0)
(-0.0334148 -0.00381095 0)
(-0.0325428 -0.00422205 0)
(-0.0315872 -0.00461906 0)
(-0.0305506 -0.00499789 0)
(-0.0294362 -0.00535442 0)
(-0.0282484 -0.00568462 0)
(-0.0269921 -0.00598461 0)
(-0.0256732 -0.00625074 0)
(-0.0242985 -0.00647969 0)
(-0.0228752 -0.00666852 0)
(-0.0214117 -0.00681478 0)
(-0.0199165 -0.00691657 0)
(-0.0183988 -0.00697257 0)
(-0.0168683 -0.0069821 0)
(-0.0153347 -0.00694516 0)
(-0.013808 -0.00686242 0)
(-0.0122979 -0.00673522 0)
(-0.0108139 -0.00656552 0)
(-0.00936545 -0.00635592 0)
(-0.00796108 -0.0061095 0)
(-0.00660888 -0.00582983 0)
(-0.00531614 -0.00552084 0)
(-0.00408932 -0.00518675 0)
(-0.00293393 -0.00483191 0)
(-0.00185454 -0.00446077 0)
(-0.000854735 -0.00407772 0)
(6.28744e-05 -0.00368705 0)
(0.000896625 -0.0032928 0)
(0.00164574 -0.00289874 0)
(0.00231028 -0.00250826 0)
(0.00289104 -0.00212439 0)
(0.00338947 -0.00174971 0)
(0.00380757 -0.00138637 0)
(0.00414779 -0.00103609 0)
(0.00441294 -0.000700188 0)
(0.00460613 -0.00037963 0)
(0.00473058 -7.50561e-05 0)
(0.00478977 0.000213115 0)
(0.00478711 0.000484629 0)
(0.00472625 0.000739257 0)
(0.00461067 0.000976728 0)
(0.00444427 0.00119653 0)
(0.00423061 0.00139786 0)
(0.00397417 0.00157931 0)
(0.00367875 0.00173891 0)
(0.00335004 0.00187364 0)
(0.00299235 0.00197965 0)
(0.0026136 0.00205153 0)
(0.00221882 0.00208292 0)
(0.0018198 0.00206544 0)
(0.00142211 0.00199004 0)
(0.00104414 0.00184528 0)
(0.000691242 0.00162021 0)
(0.000393577 0.00130128 0)
(0.000154322 0.000877633 0)
(2.35433e-05 0.000335127 0)
(-2.62815e-05 0.000221954 0)
(-0.000191956 0.000751569 0)
(-0.000520686 0.00129342 0)
(-0.000961134 0.00181635 0)
(-0.00151628 0.00228727 0)
(-0.00215099 0.00269801 0)
(-0.0028608 0.00304102 0)
(-0.0036232 0.00332137 0)
(-0.0044326 0.00354384 0)
(-0.00527515 0.00371846 0)
(-0.0061465 0.00385375 0)
(-0.00703863 0.00395953 0)
(-0.00794891 0.00404355 0)
(-0.00887308 0.00411313 0)
(-0.00980984 0.00417362 0)
(-0.0107571 0.0042294 0)
(-0.0117144 0.00428337 0)
(-0.0126807 0.00433754 0)
(-0.0136558 0.00439289 0)
(-0.014639 0.0044498 0)
(-0.0156299 0.00450806 0)
(-0.0166278 0.00456708 0)
(-0.0176321 0.00462596 0)
(-0.0186417 0.00468361 0)
(-0.0196554 0.00473881 0)
(-0.0206718 0.00479027 0)
(-0.0216893 0.00483667 0)
(-0.022706 0.00487668 0)
(-0.0237199 0.00490899 0)
(-0.0247287 0.00493235 0)
(-0.0257299 0.00494557 0)
(-0.0267212 0.00494753 0)
(-0.0276997 0.00493718 0)
(-0.0286629 0.00491357 0)
(-0.029608 0.00487583 0)
(-0.0305322 0.00482317 0)
(-0.0314328 0.00475489 0)
(-0.0323073 0.00467035 0)
(-0.0331529 0.00456898 0)
(-0.0339672 0.00445023 0)
(-0.0347476 0.00431361 0)
(-0.0354917 0.00415865 0)
(-0.0361973 0.00398487 0)
(-0.036862 0.00379183 0)
(-0.0374834 0.00357907 0)
(-0.0380594 0.00334616 0)
(-0.0385874 0.00309267 0)
(-0.0390652 0.00281821 0)
(-0.0394903 0.00252247 0)
(-0.03986 0.00220519 0)
(-0.0401717 0.00186624 0)
(-0.0404226 0.00150564 0)
(-0.0406097 0.0011236 0)
(-0.0407301 0.00072056 0)
(-0.0407808 0.000297208 0)
(-0.0407585 -0.000145454 0)
(-0.0406602 -0.00060609 0)
(-0.0404828 -0.001083 0)
(-0.0402234 -0.00157412 0)
(-0.0398793 -0.00207695 0)
(-0.039448 -0.00258862 0)
(-0.0389273 -0.00310585 0)
(-0.0383156 -0.00362497 0)
(-0.0376116 -0.00414195 0)
(-0.0368148 -0.00465246 0)
(-0.0359254 -0.0051519 0)
(-0.0349442 -0.00563543 0)
(-0.0338731 -0.00609814 0)
(-0.0327148 -0.00653501 0)
(-0.0314729 -0.00694111 0)
(-0.0301521 -0.00731163 0)
(-0.0287581 -0.00764202 0)
(-0.0272976 -0.00792808 0)
(-0.0257782 -0.00816606 0)
(-0.0242086 -0.00835278 0)
(-0.0225979 -0.00848568 0)
(-0.0209563 -0.00856294 0)
(-0.0192943 -0.0085835 0)
(-0.0176229 -0.00854714 0)
(-0.0159534 -0.00845446 0)
(-0.0142969 -0.00830691 0)
(-0.0126645 -0.00810675 0)
(-0.0110669 -0.007857 0)
(-0.00951428 -0.00756136 0)
(-0.00801619 -0.00722414 0)
(-0.00658124 -0.00685013 0)
(-0.0052171 -0.00644448 0)
(-0.00393035 -0.00601259 0)
(-0.00272649 -0.00555994 0)
(-0.00160981 -0.005092 0)
(-0.000583469 -0.0046141 0)
(0.000350522 -0.00413129 0)
(0.00119121 -0.00364828 0)
(0.00193865 -0.00316932 0)
(0.00259376 -0.0026982 0)
(0.00315825 -0.00223814 0)
(0.00363447 -0.00179185 0)
(0.00402534 -0.00136149 0)
(0.00433412 -0.000948696 0)
(0.00456446 -0.000554678 0)
(0.00472012 -0.000180239 0)
(0.00480508 0.000174104 0)
(0.00482327 0.000508035 0)
(0.00477883 0.00082128 0)
(0.00467566 0.00111351 0)
(0.00451808 0.00138413 0)
(0.00431 0.00163216 0)
(0.00405622 0.00185596 0)
(0.00376083 0.00205315 0)