/*--------------------------------*- C++ -*----------------------------------*\
| =========                 |                                                 |
| \\      /  F ield         | OpenFOAM: The Open Source CFD Toolbox           |
|  \\    /   O peration     | Version:  2406                                  |
|   \\  /    A nd           | Website:  www.openfoam.com                      |
|    \\/     M anipulation  |                                                 |
\*---------------------------------------------------------------------------*/
FoamFile
{
    version     2.0;
    format      ascii;
    arch        "LSB;label=32;scalar=64";
    class       volVectorField;
    location    "47.5";
    object      U_0;
}
// * * * * * * * * * * * * * * * * * * * * * * * * * * * * * * * * * * * * * //

dimensions      [0 1 -1 0 0 0 0];

internalField   nonuniform List<vector> 
14400
(
(-7.11969e-06 7.01678e-06 0)
(1.56162e-05 -1.17542e-05 0)
(0.000127243 -3.60183e-05 0)
(0.000322967 -5.56559e-05 0)
(0.00058224 -6.91783e-05 0)
(0.00088177 -7.63893e-05 0)
(0.00119833 -7.79178e-05 0)
(0.00151142 -7.47092e-05 0)
(0.00180444 -6.79176e-05 0)
(0.00206538 -5.87717e-05 0)
(0.0022869 -4.84698e-05 0)
(0.00246614 -3.80822e-05 0)
(0.00260407 -2.84766e-05 0)
(0.00270465 -2.0273e-05 0)
(0.00277383 -1.38252e-05 0)
(0.00281856 -9.22164e-06 0)
(0.00284587 -6.36482e-06 0)
(0.00286192 -5.08193e-06 0)
(0.00287132 -4.93322e-06 0)
(0.00287697 -5.40179e-06 0)
(0.00287952 -5.9078e-06 0)
(0.00287796 -5.6534e-06 0)
(0.00286961 -4.41336e-06 0)
(0.00285006 -2.03072e-06 0)
(0.00281394 1.66292e-06 0)
(0.00275532 6.76103e-06 0)
(0.00266797 1.32966e-05 0)
(0.00254553 2.12771e-05 0)
(0.0023816 3.07095e-05 0)
(0.00216972 4.16166e-05 0)
(0.00190332 5.40396e-05 0)
(0.0015757 6.80319e-05 0)
(0.00117999 8.36461e-05 0)
(0.000709278 0.000100919 0)
(0.000156648 0.000119856 0)
(-0.000484605 0.000140426 0)
(-0.00122079 0.000162546 0)
(-0.00205756 0.000186083 0)
(-0.00299973 0.000210845 0)
(-0.00405093 0.000236585 0)
(-0.0052134 0.000262997 0)
(-0.00648777 0.000289723 0)
(-0.00787275 0.00031635 0)
(-0.00936501 0.000342421 0)
(-0.010959 0.000367439 0)
(-0.0126467 0.000390874 0)
(-0.0144178 0.000412177 0)
(-0.0162596 0.000430783 0)
(-0.0181568 0.000446123 0)
(-0.0200921 0.000457633 0)
(-0.0220456 0.000464759 0)
(-0.0239959 0.000466969 0)
(-0.0259197 0.000463757 0)
(-0.027792 0.000454651 0)
(-0.0295868 0.000439224 0)
(-0.0312774 0.000417101 0)
(-0.0328362 0.000387964 0)
(-0.0342357 0.000351583 0)
(-0.0354487 0.000307805 0)
(-0.0364486 0.000256472 0)
(-0.037211 0.000198014 0)
(-0.0377125 0.000134577 0)
(-0.0379288 6.61465e-05 0)
(-0.0378407 -1.07309e-05 0)
(-0.0374372 -9.34981e-05 0)
(-0.036706 -0.000179684 0)
(-0.0356406 -0.000268029 0)
(-0.0342401 -0.000357061 0)
(-0.0325097 -0.000445031 0)
(-0.0304608 -0.000529996 0)
(-0.0281119 -0.000609871 0)
(-0.0254882 -0.000682498 0)
(-0.0226218 -0.000745731 0)
(-0.0195514 -0.000797536 0)
(-0.0163219 -0.000836091 0)
(-0.0129832 -0.000859894 0)
(-0.00958944 -0.000867863 0)
(-0.0061972 -0.000859427 0)
(-0.0028642 -0.000834585 0)
(0.000352656 -0.000793946 0)
(0.00339915 -0.00073873 0)
(0.00622556 -0.000670723 0)
(0.0087884 -0.000592198 0)
(0.0110519 -0.000505806 0)
(0.0129893 -0.000414425 0)
(0.0145832 -0.000321006 0)
(0.0158265 -0.000228412 0)
(0.0167217 -0.000139246 0)
(0.0172807 -5.55927e-05 0)
(0.017525 2.01226e-05 0)
(0.0174794 8.42537e-05 0)
(0.0171746 0.000138528 0)
(0.0166489 0.000184321 0)
(0.0159413 0.000220524 0)
(0.0150893 0.000246733 0)
(0.0141301 0.000263724 0)
(0.0130987 0.000272539 0)
(0.012027 0.000274293 0)
(0.0109432 0.000270155 0)
(0.00987098 0.000261292 0)
(0.00882971 0.000248818 0)
(0.00783443 0.000233758 0)
(0.0068961 0.000217027 0)
(0.00602203 0.000199415 0)
(0.00521626 0.000181585 0)
(0.00448014 0.000164077 0)
(0.00381275 0.000147318 0)
(0.00321142 0.000131629 0)
(0.00267216 0.000117231 0)
(0.0021901 0.000104238 0)
(0.00176003 9.2638e-05 0)
(0.001377 8.22624e-05 0)
(0.00103699 7.27499e-05 0)
(0.000737729 6.35142e-05 0)
(0.000479576 5.37387e-05 0)
(0.000266122 4.24721e-05 0)
(0.00010428 2.88873e-05 0)
(2.78628e-06 1.27671e-05 0)
(-3.40761e-05 -3.80805e-06 0)
(-1.3216e-05 -1.32338e-05 0)
(1.05408e-05 -1.46749e-05 0)
(0.000157635 -0.000162321 0)
(0.000492537 -0.000341795 0)
(0.00100839 -0.000491481 0)
(0.00165828 -0.000596571 0)
(0.00239481 -0.000653916 0)
(0.0031677 -0.000666528 0)
(0.00393111 -0.000640893 0)
(0.00464689 -0.000585509 0)
(0.00528637 -0.000509764 0)
(0.00583099 -0.000423012 0)
(0.00627196 -0.00033377 0)
(0.00660911 -0.000249084 0)
(0.0068491 -0.000174128 0)
(0.00700329 -0.000112006 0)
(0.0070855 -6.37805e-05 0)
(0.00710976 -2.86924e-05 0)
(0.00708847 -4.55587e-06 0)
(0.00703083 1.20607e-05 0)
(0.00694177 2.52711e-05 0)
(0.0068216 3.93579e-05 0)
(0.00666568 5.8524e-05 0)
(0.00646499 8.60189e-05 0)
(0.00620729 0.000124321 0)
(0.0058777 0.000175136 0)
(0.00545962 0.000239459 0)
(0.00493553 0.000317764 0)
(0.00428743 0.000410232 0)
(0.00349722 0.000516942 0)
(0.00254681 0.000637987 0)
(0.0014182 0.000773498 0)
(9.36029e-05 0.000923586 0)
(-0.00144431 0.00108824 0)
(-0.00321209 0.0012672 0)
(-0.00522501 0.00145987 0)
(-0.00749648 0.0016652 0)
(-0.0100374 0.00188163 0)
(-0.0128555 0.00210709 0)
(-0.0159546 0.00233894 0)
(-0.019334 0.00257403 0)
(-0.022988 0.00280867 0)
(-0.0269051 0.00303875 0)
(-0.0310682 0.00325976 0)
(-0.0354539 0.00346692 0)
(-0.0400331 0.00365527 0)
(-0.0447704 0.00381981 0)
(-0.0496253 0.00395556 0)
(-0.0545519 0.00405778 0)
(-0.0595005 0.00412199 0)
(-0.0644174 0.00414411 0)
(-0.0692465 0.00412055 0)
(-0.0739298 0.0040483 0)
(-0.0784084 0.00392493 0)
(-0.0826234 0.00374868 0)
(-0.0865169 0.0035185 0)
(-0.0900327 0.00323404 0)
(-0.0931169 0.0028957 0)
(-0.0957188 0.00250465 0)
(-0.0977919 0.00206291 0)
(-0.0992938 0.00157327 0)
(-0.100187 0.00103967 0)
(-0.10044 0.000468145 0)
(-0.100032 -0.000135174 0)
(-0.098939 -0.000767483 0)
(-0.0971519 -0.00142 0)
(-0.0946686 -0.00208352 0)
(-0.0914955 -0.00274819 0)
(-0.0876477 -0.00340337 0)
(-0.08315 -0.00403768 0)
(-0.0780368 -0.00463916 0)
(-0.0723528 -0.0051955 0)
(-0.0661526 -0.00569436 0)
(-0.0595008 -0.00612378 0)
(-0.0524711 -0.00647256 0)
(-0.045146 -0.00673074 0)
(-0.0376153 -0.00689006 0)
(-0.0299749 -0.00694447 0)
(-0.0223249 -0.00689051 0)
(-0.0147679 -0.00672767 0)
(-0.00740614 -0.00645859 0)
(-0.000339488 -0.00608919 0)
(0.00633732 -0.00562858 0)
(0.0125372 -0.00508882 0)
(0.0181834 -0.00448449 0)
(0.0232112 -0.00383216 0)
(0.0275704 -0.0031497 0)
(0.0312263 -0.0024555 0)
(0.0341611 -0.00176773 0)
(0.0363733 -0.00110354 0)
(0.0378773 -0.000478648 0)
(0.0387044 9.21228e-05 0)
(0.0389015 0.000600923 0)
(0.0385247 0.00104196 0)
(0.0376393 0.00140995 0)
(0.0363184 0.00170289 0)
(0.0346388 0.0019223 0)
(0.032678 0.00207222 0)
(0.0305113 0.0021586 0)
(0.0282097 0.00218878 0)
(0.0258377 0.00217097 0)
(0.0234522 0.00211376 0)
(0.0211012 0.00202565 0)
(0.0188238 0.00191473 0)
(0.01665 0.00178837 0)
(0.0146016 0.0016531 0)
(0.0126925 0.00151451 0)
(0.0109299 0.0013772 0)
(0.00931553 0.00124482 0)
(0.00784641 0.00112003 0)
(0.00651635 0.00100444 0)
(0.00531727 0.000898502 0)
(0.00424066 0.000801272 0)
(0.00327933 0.000710233 0)
(0.00242921 0.000621179 0)
(0.001691 0.000528381 0)
(0.00107128 0.000425446 0)
(0.000582219 0.000307346 0)
(0.00023751 0.000174771 0)
(4.73412e-05 4.19944e-05 0)
(-2.72812e-06 -3.31173e-05 0)
(3.29471e-05 -0.000120042 0)
(0.000326457 -0.000492763 0)
(0.000868926 -0.000887767 0)
(0.00164792 -0.00121546 0)
(0.0025938 -0.00144612 0)
(0.00364644 -0.00157139 0)
(0.00474019 -0.00159615 0)
(0.00581438 -0.00153352 0)
(0.00681772 -0.00140164 0)
(0.0077109 -0.00122113 0)
(0.00846748 -0.00101277 0)
(0.00907367 -0.000795731 0)
(0.00952683 -0.000586041 0)
(0.00983331 -0.000395618 0)
(0.0100057 -0.000231769 0)
(0.0100597 -9.71493e-05 0)
(0.0100115 9.89042e-06 0)
(0.0098749 9.45893e-05 0)
(0.00965932 0.000164815 0)
(0.00936829 0.00023005 0)
(0.0089988 0.000300225 0)
(0.00854117 0.000384608 0)
(0.00797973 0.000491331 0)
(0.00729395 0.000626684 0)
(0.00645961 0.000794999 0)
(0.00545006 0.000998884 0)
(0.0042373 0.00123964 0)
(0.0027928 0.00151773 0)
(0.00108811 0.00183316 0)
(-0.000904731 0.00218571 0)
(-0.00321271 0.00257494 0)
(-0.00586137 0.00300004 0)
(-0.00887414 0.0034596 0)
(-0.0122715 0.00395131 0)
(-0.0160698 0.00447176 0)
(-0.0202808 0.00501624 0)
(-0.0249096 0.00557867 0)
(-0.0299547 0.00615157 0)
(-0.0354062 0.00672616 0)
(-0.0412455 0.00729246 0)
(-0.047445 0.00783948 0)
(-0.0539675 0.00835556 0)
(-0.0607669 0.00882856 0)
(-0.0677885 0.00924633 0)
(-0.07497 0.009597 0)
(-0.0822426 0.00986934 0)
(-0.0895323 0.0100531 0)
(-0.0967618 0.0101393 0)
(-0.103852 0.0101204 0)
(-0.110723 0.00999063 0)
(-0.117296 0.00974575 0)
(-0.123495 0.00938341 0)
(-0.129248 0.00890292 0)
(-0.134487 0.00830526 0)
(-0.139149 0.00759297 0)
(-0.143178 0.00677004 0)
(-0.146522 0.00584181 0)
(-0.149138 0.00481496 0)
(-0.150988 0.0036974 0)
(-0.15204 0.00249831 0)
(-0.152271 0.0012277 0)
(-0.151661 -0.000103472 0)
(-0.150203 -0.00148096 0)
(-0.147893 -0.00288994 0)
(-0.144733 -0.00431613 0)
(-0.140736 -0.00574309 0)
(-0.135921 -0.00715261 0)
(-0.130315 -0.00852523 0)
(-0.123954 -0.00984055 0)
(-0.116883 -0.0110774 0)
(-0.109154 -0.0122143 0)
(-0.100831 -0.0132297 0)
(-0.0919837 -0.0141028 0)
(-0.0826931 -0.0148141 0)
(-0.0730471 -0.015346 0)
(-0.0631414 -0.0156835 0)
(-0.0530782 -0.0158155 0)
(-0.0429649 -0.0157346 0)
(-0.0329122 -0.0154385 0)
(-0.0230326 -0.0149303 0)
(-0.0134382 -0.0142183 0)
(-0.00423784 -0.0133167 0)
(0.00446451 -0.012245 0)
(0.0125728 -0.0110274 0)
(0.020001 -0.00969243 0)
(0.0266754 -0.00827192 0)
(0.0325362 -0.00679971 0)
(0.0375398 -0.00531063 0)
(0.0416592 -0.0038391 0)
(0.0448852 -0.00241775 0)
(0.0472275 -0.00107545 0)
(0.0487139 0.000161541 0)
(0.0493867 0.00127097 0)
(0.0493041 0.00223717 0)
(0.0485386 0.00305062 0)
(0.047173 0.00370715 0)
(0.0452972 0.00420813 0)
(0.0430052 0.00456008 0)
(0.0403917 0.00477388 0)
(0.0375483 0.00486377 0)
(0.0345613 0.0048464 0)
(0.0315087 0.00473964 0)
(0.0284586 0.00456171 0)
(0.025468 0.00433026 0)
(0.0225826 0.0040617 0)
(0.0198367 0.00377079 0)
(0.0172544 0.00347023 0)
(0.01485 0.00317053 0)
(0.0126302 0.00287982 0)
(0.0105952 0.00260357 0)
(0.00874116 0.00234434 0)
(0.00706178 0.00210135 0)
(0.00555116 0.00187016 0)
(0.00420597 0.00164263 0)
(0.00302765 0.00140751 0)
(0.00202374 0.00115243 0)
(0.00120761 0.000868001 0)
(0.000592843 0.000555632 0)
(0.00020059 0.000240036 0)
(1.67207e-05 1.17272e-05 0)
(5.07459e-05 -0.000303381 0)
(0.000467968 -0.000996793 0)
(0.00118639 -0.00166468 0)
(0.00218052 -0.00220777 0)
(0.00335553 -0.0025854 0)
(0.00464013 -0.00278513 0)
(0.00595764 -0.00281458 0)
(0.00723779 -0.00269495 0)
(0.00842127 -0.00245613 0)
(0.00946233 -0.00213227 0)
(0.0103297 -0.00175808 0)
(0.0110062 -0.00136565 0)
(0.0114871 -0.000981916 0)
(0.0117772 -0.000626944 0)
(0.0118882 -0.000313053 0)
(0.011835 -4.46629e-05 0)
(0.0116324 0.000181164 0)
(0.011292 0.000373592 0)
(0.01082 0.000546379 0)
(0.0102154 0.000716058 0)
(0.0094693 0.00090001 0)
(0.00856475 0.00111467 0)
(0.00747794 0.0013742 0)
(0.00617929 0.0016896 0)
(0.00463512 0.00206849 0)
(0.00280915 0.00251544 0)
(0.000663977 0.00303259 0)
(-0.00183786 0.00362036 0)
(-0.0047328 0.00427802 0)
(-0.00805544 0.00500398 0)
(-0.0118375 0.00579568 0)
(-0.0161067 0.00664935 0)
(-0.0208855 0.00755955 0)
(-0.0261898 0.00851875 0)
(-0.032027 0.00951701 0)
(-0.038395 0.0105419 0)
(-0.0452808 0.0115782 0)
(-0.0526596 0.0126087 0)
(-0.0604941 0.013614 0)
(-0.0687346 0.014573 0)
(-0.0773196 0.0154641 0)
(-0.0861767 0.0162652 0)
(-0.0952244 0.0169551 0)
(-0.104374 0.0175136 0)
(-0.113533 0.0179229 0)
(-0.122604 0.0181674 0)
(-0.131492 0.0182348 0)
(-0.140104 0.0181159 0)
(-0.14835 0.0178049 0)
(-0.156148 0.0172992 0)
(-0.16342 0.0165995 0)
(-0.170097 0.0157088 0)
(-0.176119 0.0146331 0)
(-0.181432 0.0133801 0)
(-0.185991 0.0119595 0)
(-0.189758 0.0103824 0)
(-0.192702 0.00866104 0)
(-0.194798 0.006809 0)
(-0.196028 0.00484077 0)
(-0.196378 0.00277192 0)
(-0.195841 0.000619038 0)
(-0.194411 -0.00160057 0)
(-0.192091 -0.00386876 0)
(-0.188888 -0.00616375 0)
(-0.184812 -0.00846367 0)
(-0.179879 -0.0107453 0)
(-0.174111 -0.0129838 0)
(-0.167535 -0.0151525 0)
(-0.160185 -0.0172235 0)
(-0.152102 -0.0191675 0)
(-0.143334 -0.0209549 0)
(-0.133937 -0.0225554 0)
(-0.123975 -0.0239398 0)
(-0.113522 -0.02508 0)
(-0.102657 -0.0259503 0)
(-0.0914705 -0.0265285 0)
(-0.0800583 -0.0267969 0)
(-0.0685234 -0.0267433 0)
(-0.0569734 -0.0263618 0)
(-0.0455196 -0.025654 0)
(-0.0342749 -0.0246288 0)
(-0.0233516 -0.0233033 0)
(-0.0128591 -0.0217023 0)
(-0.00290191 -0.0198576 0)
(0.00642296 -0.0178076 0)
(0.0150278 -0.0155962 0)
(0.0228363 -0.0132708 0)
(0.0297851 -0.0108818 0)
(0.0358253 -0.00847994 0)
(0.040924 -0.00611528 0)
(0.0450647 -0.00383531 0)
(0.0482473 -0.00168451 0)
(0.050489 0.000298244 0)
(0.0518253 0.0020815 0)
(0.0523072 0.00364121 0)
(0.0520007 0.00496118 0)
(0.0509851 0.0060337 0)
(0.0493499 0.00685957 0)
(0.0471922 0.00744754 0)
(0.0446129 0.00781334 0)
(0.0417129 0.00797842 0)
(0.0385896 0.00796838 0)
(0.0353337 0.00781135 0)
(0.0320266 0.00753639 0)
(0.0287385 0.00717204 0)
(0.0255272 0.00674514 0)
(0.0224383 0.00627991 0)
(0.0195051 0.00579717 0)
(0.0167501 0.0053138 0)
(0.0141866 0.0048421 0)
(0.0118206 0.0043892 0)
(0.00965348 0.00395637 0)
(0.00768479 0.00353858 0)
(0.00591472 0.00312453 0)
(0.00434701 0.0026978 0)
(0.00299077 0.00223991 0)
(0.0018612 0.00173623 0)
(0.000973568 0.00118636 0)
(0.00036789 0.000618968 0)
(3.79616e-05 0.000136 0)
(6.40543e-05 -0.000547573 0)
(0.000578072 -0.00163653 0)
(0.00143783 -0.00261638 0)
(0.00260229 -0.00339122 0)
(0.00395109 -0.00391698 0)
(0.00540078 -0.00418134 0)
(0.00686466 -0.00419712 0)
(0.00826517 -0.00399547 0)
(0.00953775 -0.00361947 0)
(0.0106331 -0.00311817 0)
(0.0115176 -0.00254124 0)
(0.0121724 -0.00193441 0)
(0.0125912 -0.00133592 0)
(0.0127775 -0.000774071 0)
(0.0127409 -0.000265921 0)
(0.0124936 0.000182937 0)
(0.0120464 0.000577574 0)
(0.011406 0.000932123 0)
(0.0105722 0.00126742 0)
(0.00953645 0.00160825 0)
(0.00828132 0.00198049 0)
(0.00678068 0.00240846 0)
(0.005001 0.00291293 0)
(0.00290308 0.00350983 0)
(0.000443993 0.00420996 0)
(-0.00242104 0.00501941 0)
(-0.0057368 0.00594035 0)
(-0.00954657 0.00697198 0)
(-0.0138905 0.00811114 0)
(-0.0188042 0.00935256 0)
(-0.0243171 0.0106886 0)
(-0.0304501 0.0121089 0)
(-0.0372145 0.0135997 0)
(-0.0446093 0.0151435 0)
(-0.05262 0.0167187 0)
(-0.0612171 0.0183 0)
(-0.0703556 0.0198586 0)
(-0.079975 0.021363 0)
(-0.0900002 0.0227801 0)
(-0.100343 0.0240762 0)
(-0.110906 0.0252188 0)
(-0.121582 0.0261771 0)
(-0.132262 0.0269238 0)
(-0.142836 0.027436 0)
(-0.153196 0.0276954 0)
(-0.163241 0.0276894 0)
(-0.172875 0.0274106 0)
(-0.182014 0.0268566 0)
(-0.190584 0.0260298 0)
(-0.198518 0.0249367 0)
(-0.205765 0.0235868 0)
(-0.212278 0.0219927 0)
(-0.218021 0.0201687 0)
(-0.222967 0.0181305 0)
(-0.227092 0.0158951 0)
(-0.230381 0.0134799 0)
(-0.232822 0.0109028 0)
(-0.234405 0.00818219 0)
(-0.235126 0.00533679 0)
(-0.234981 0.00238588 0)
(-0.23397 -0.000650362 0)
(-0.232094 -0.00375075 0)
(-0.229355 -0.0068937 0)
(-0.225759 -0.0100553 0)
(-0.221314 -0.0132098 0)
(-0.216031 -0.0163294 0)
(-0.209924 -0.0193847 0)
(-0.203012 -0.0223436 0)
(-0.195319 -0.0251722 0)
(-0.186874 -0.0278348 0)
(-0.177716 -0.0302942 0)
(-0.167887 -0.0325125 0)
(-0.157442 -0.0344519 0)
(-0.14644 -0.0360757 0)
(-0.134954 -0.0373497 0)
(-0.123063 -0.0382434 0)
(-0.110856 -0.0387314 0)
(-0.0984298 -0.0387947 0)
(-0.0858883 -0.0384225 0)
(-0.0733407 -0.0376126 0)
(-0.0609001 -0.0363725 0)
(-0.0486804 -0.0347198 0)
(-0.0367949 -0.0326823 0)
(-0.0253535 -0.030297 0)
(-0.0144601 -0.0276097 0)
(-0.00421126 -0.0246735 0)
(0.00530652 -0.021547 0)
(0.0140177 -0.018293 0)
(0.0218591 -0.0149761 0)
(0.028781 -0.0116613 0)
(0.0347477 -0.00841199 0)
(0.0397378 -0.00528846 0)
(0.0437454 -0.0023452 0)
(0.0467801 0.000369306 0)
(0.0488676 0.00281421 0)
(0.050049 0.00495796 0)
(0.0503808 0.00677908 0)
(0.0499337 0.00826678 0)
(0.0487907 0.00942103 0)
(0.0470448 0.0102523 0)
(0.0447955 0.0107803 0)
(0.0421452 0.0110329 0)
(0.0391955 0.0110439 0)
(0.0360434 0.0108511 0)
(0.0327781 0.0104937 0)
(0.0294784 0.0100109 0)
(0.0262114 0.00943962 0)
(0.0230313 0.00881299 0)
(0.01998 0.00815921 0)
(0.0170879 0.00750016 0)
(0.0143756 0.00685033 0)
(0.0118565 0.00621569 0)
(0.00953931 0.00559299 0)
(0.00743107 0.00496984 0)
(0.0055405 0.00432607 0)
(0.00388055 0.00363758 0)
(0.0024707 0.00288321 0)
(0.00133121 0.00205598 0)
(0.000524999 0.00117809 0)
(5.75635e-05 0.000341057 0)
(7.38774e-05 -0.000838156 0)
(0.000662058 -0.00238423 0)
(0.00163175 -0.00370912 0)
(0.00292621 -0.00472575 0)
(0.00440058 -0.00539285 0)
(0.00595812 -0.00570305 0)
(0.00750211 -0.00567808 0)
(0.00894854 -0.00536184 0)
(0.0102293 -0.00481275 0)
(0.0112935 -0.00409622 0)
(0.0121069 -0.00327768 0)
(0.0126506 -0.00241676 0)
(0.0129178 -0.00156271 0)
(0.0129108 -0.000751331 0)
(0.0126363 -3.35518e-06 0)
(0.0121023 0.000675735 0)
(0.0113138 0.00129459 0)
(0.0102697 0.00187374 0)
(0.00896097 0.00244235 0)
(0.00736876 0.0030345 0)
(0.00546478 0.0036852 0)
(0.00321204 0.00442688 0)
(0.000566607 0.00528663 0)
(-0.0025201 0.00628465 0)
(-0.00609888 0.0074338 0)
(-0.0102204 0.00874013 0)
(-0.0149328 0.0102039 0)
(-0.0202797 0.0118206 0)
(-0.0262981 0.0135813 0)
(-0.0330158 0.0154734 0)
(-0.0404492 0.0174793 0)
(-0.0486007 0.0195768 0)
(-0.057457 0.0217382 0)
(-0.0669866 0.0239303 0)
(-0.0771396 0.0261145 0)
(-0.0878474 0.0282485 0)
(-0.0990238 0.0302866 0)
(-0.110568 0.0321822 0)
(-0.122366 0.0338895 0)
(-0.134298 0.0353656 0)
(-0.14624 0.0365721 0)
(-0.15807 0.0374768 0)
(-0.16967 0.0380548 0)
(-0.180933 0.0382888 0)
(-0.191761 0.0381691 0)
(-0.20207 0.0376936 0)
(-0.21179 0.0368664 0)
(-0.220862 0.035697 0)
(-0.22924 0.0341994 0)
(-0.236889 0.0323907 0)
(-0.243783 0.0302902 0)
(-0.249903 0.0279186 0)
(-0.255236 0.0252969 0)
(-0.259773 0.0224466 0)
(-0.263508 0.0193886 0)
(-0.266438 0.0161437 0)
(-0.268561 0.0127322 0)
(-0.269875 0.00917395 0)
(-0.270377 0.00548894 0)
(-0.270067 0.00169735 0)
(-0.268941 -0.00218005 0)
(-0.266998 -0.00612151 0)
(-0.264237 -0.0101035 0)
(-0.260655 -0.014101 0)
(-0.256254 -0.0180863 0)
(-0.251033 -0.0220293 0)
(-0.244998 -0.0258968 0)
(-0.238156 -0.0296526 0)
(-0.230518 -0.0332576 0)
(-0.222102 -0.0366697 0)
(-0.212931 -0.0398447 0)
(-0.203037 -0.0427366 0)
(-0.192459 -0.0452985 0)
(-0.181247 -0.0474845 0)
(-0.169461 -0.0492503 0)
(-0.15717 -0.0505556 0)
(-0.144456 -0.0513655 0)
(-0.13141 -0.0516524 0)
(-0.118132 -0.051398 0)
(-0.104732 -0.0505946 0)
(-0.0913227 -0.049246 0)
(-0.0780233 -0.0473689 0)
(-0.0649525 -0.0449922 0)
(-0.0522274 -0.0421572 0)
(-0.0399603 -0.0389159 0)
(-0.0282563 -0.0353298 0)
(-0.017211 -0.0314678 0)
(-0.00690906 -0.0274041 0)
(0.00257701 -0.0232158 0)
(0.0111873 -0.0189807 0)
(0.018875 -0.0147757 0)
(0.025606 -0.0106744 0)
(0.031359 -0.00674576 0)
(0.0361261 -0.00305287 0)
(0.0399125 0.000348785 0)
(0.0427372 0.0034126 0)
(0.0446332 0.00610218 0)
(0.045648 0.00839243 0)
(0.0458431 0.0102705 0)
(0.045293 0.011736 0)
(0.0440833 0.0128012 0)
(0.0423085 0.0134896 0)
(0.0400682 0.0138345 0)
(0.0374633 0.0138773 0)
(0.0345925 0.0136641 0)
(0.0315486 0.0132436 0)
(0.0284154 0.0126642 0)
(0.0252658 0.0119716 0)
(0.0221606 0.0112064 0)
(0.0191485 0.0104017 0)
(0.0162672 0.00958191 0)
(0.0135446 0.00876011 0)
(0.0110019 0.00793748 0)
(0.00865608 0.0071028 0)
(0.00652377 0.00623387 0)
(0.0046247 0.00530147 0)
(0.00298552 0.00427627 0)
(0.00163448 0.00313989 0)
(0.000657842 0.00189871 0)
(7.39887e-05 0.000617584 0)
(8.14782e-05 -0.00116411 0)
(0.000727082 -0.0032151 0)
(0.00178042 -0.00490907 0)
(0.00316917 -0.00616954 0)
(0.00472537 -0.00696279 0)
(0.00633843 -0.00729125 0)
(0.00790162 -0.00718997 0)
(0.00932515 -0.00671915 0)
(0.0105385 -0.00595521 0)
(0.0114907 -0.00498152 0)
(0.0121486 -0.00387998 0)
(0.0124944 -0.00272389 0)
(0.0125215 -0.00157258 0)
(0.0122307 -0.000467862 0)
(0.0116257 0.000567697 0)
(0.0107086 0.00153071 0)
(0.00947635 0.00243536 0)
(0.00791819 0.00331027 0)
(0.00601341 0.00419424 0)
(0.00373101 0.00513134 0)
(0.00103032 0.00616576 0)
(-0.00213713 0.00733734 0)
(-0.00582512 0.00867818 0)
(-0.0100897 0.0102108 0)
(-0.0149861 0.0119475 0)
(-0.0205659 0.0138915 0)
(-0.0268741 0.0160376 0)
(-0.0339462 0.0183731 0)
(-0.0418058 0.0208788 0)
(-0.0504612 0.0235285 0)
(-0.0599027 0.0262892 0)
(-0.0701007 0.0291203 0)
(-0.0810038 0.0319744 0)
(-0.0925389 0.0347979 0)
(-0.104612 0.0375326 0)
(-0.117113 0.0401179 0)
(-0.129914 0.0424936 0)
(-0.142884 0.0446026 0)
(-0.155884 0.0463935 0)
(-0.168781 0.047823 0)
(-0.181449 0.0488572 0)
(-0.193773 0.0494728 0)
(-0.205654 0.0496566 0)
(-0.217008 0.0494053 0)
(-0.227767 0.0487241 0)
(-0.237879 0.0476252 0)
(-0.247305 0.0461264 0)
(-0.256018 0.0442493 0)
(-0.264 0.042018 0)
(-0.27124 0.0394579 0)
(-0.277734 0.0365947 0)
(-0.283479 0.0334535 0)
(-0.288475 0.0300588 0)
(-0.292724 0.0264336 0)
(-0.296227 0.0226 0)
(-0.298985 0.0185788 0)
(-0.300997 0.0143899 0)
(-0.302261 0.0100525 0)
(-0.302776 0.00558572 0)
(-0.302536 0.00100889 0)
(-0.301536 -0.00365799 0)
(-0.299768 -0.00839367 0)
(-0.297227 -0.0131749 0)
(-0.293903 -0.0179762 0)
(-0.289789 -0.0227691 0)
(-0.284878 -0.0275218 0)
(-0.279163 -0.0321988 0)
(-0.272641 -0.0367605 0)
(-0.265312 -0.0411634 0)
(-0.257179 -0.0453599 0)
(-0.248252 -0.049299 0)
(-0.238548 -0.0529266 0)
(-0.228091 -0.0561869 0)
(-0.216916 -0.0590236 0)
(-0.205069 -0.0613813 0)
(-0.192608 -0.0632082 0)
(-0.179602 -0.0644578 0)
(-0.166136 -0.0650911 0)
(-0.152304 -0.0650797 0)
(-0.138214 -0.0644071 0)
(-0.123982 -0.0630709 0)
(-0.109733 -0.061084 0)
(-0.0955929 -0.0584746 0)
(-0.0816906 -0.0552866 0)
(-0.0681511 -0.0515774 0)
(-0.0550926 -0.0474172 0)
(-0.0426239 -0.0428852 0)
(-0.0308415 -0.0380678 0)
(-0.0198285 -0.0330551 0)
(-0.00965348 -0.0279382 0)
(-0.0003711 -0.0228069 0)
(0.00797759 -0.0177476 0)
(0.0153641 -0.0128415 0)
(0.0217715 -0.00816358 0)
(0.0271942 -0.00378148 0)
(0.0316374 0.000245695 0)
(0.0351175 0.00386843 0)
(0.0376629 0.00704814 0)
(0.0393144 0.00975833 0)
(0.040126 0.0119857 0)
(0.040164 0.0137308 0)
(0.0395069 0.0150079 0)
(0.0382424 0.0158445 0)
(0.0364651 0.0162791 0)
(0.0342729 0.0163594 0)
(0.0317632 0.0161392 0)
(0.0290289 0.015675 0)
(0.026156 0.0150226 0)
(0.0232206 0.0142343 0)
(0.020288 0.013355 0)
(0.0174121 0.0124197 0)
(0.0146367 0.0114509 0)
(0.0119968 0.0104562 0)
(0.00952174 0.00942759 0)
(0.0072387 0.00834252 0)
(0.00517683 0.00716712 0)
(0.0033724 0.00586269 0)
(0.00186361 0.00439556 0)
(0.000758053 0.00274934 0)
(8.62771e-05 0.000951246 0)
(8.77558e-05 -0.00151813 0)
(0.000778846 -0.00410992 0)
(0.00189384 -0.00618708 0)
(0.0033446 -0.00768452 0)
(0.00494115 -0.00857991 0)
(0.00655917 -0.00889036 0)
(0.00808241 -0.00866897 0)
(0.00941624 -0.00799634 0)
(0.010489 -0.00696986 0)
(0.0112511 -0.00569265 0)
(0.0116716 -0.00426353 0)
(0.0117346 -0.00276883 0)
(0.0114343 -0.0012764 0)
(0.0107697 0.000168123 0)
(0.00974001 0.00154285 0)
(0.00834008 0.0028491 0)
(0.0065571 0.00410886 0)
(0.00436814 0.00536067 0)
(0.00173923 0.00665403 0)
(-0.00137412 0.00804306 0)
(-0.0050251 0.00958022 0)
(-0.00927259 0.0113108 0)
(-0.0141775 0.0132692 0)
(-0.0197991 0.0154766 0)
(-0.0261911 0.017941 0)
(-0.0333982 0.0206576 0)
(-0.0414525 0.0236105 0)
(-0.0503704 0.0267731 0)
(-0.0601492 0.0301091 0)
(-0.0707645 0.0335725 0)
(-0.0821677 0.037108 0)
(-0.0942857 0.040652 0)
(-0.107021 0.0441339 0)
(-0.120256 0.0474789 0)
(-0.133854 0.0506114 0)
(-0.147672 0.0534585 0)
(-0.161559 0.0559535 0)
(-0.17537 0.0580393 0)
(-0.188968 0.0596707 0)
(-0.202231 0.0608155 0)
(-0.215054 0.0614548 0)
(-0.227351 0.0615823 0)
(-0.239056 0.0612025 0)
(-0.250118 0.0603292 0)
(-0.260503 0.058983 0)
(-0.27019 0.0571896 0)
(-0.279166 0.0549775 0)
(-0.287428 0.0523767 0)
(-0.294976 0.0494175 0)
(-0.301814 0.0461292 0)
(-0.307947 0.04254 0)
(-0.313382 0.0386762 0)
(-0.318123 0.0345624 0)
(-0.322175 0.030221 0)
(-0.325542 0.0256731 0)
(-0.328225 0.020938 0)
(-0.330225 0.0160341 0)
(-0.331539 0.0109789 0)
(-0.332165 0.00578978 0)
(-0.332096 0.000484501 0)
(-0.331325 -0.0049184 0)
(-0.329844 -0.010399 0)
(-0.327641 -0.0159353 0)
(-0.324704 -0.0215024 0)
(-0.321019 -0.0270721 0)
(-0.316573 -0.0326124 0)
(-0.311351 -0.0380867 0)
(-0.305338 -0.0434536 0)
(-0.298523 -0.0486665 0)
(-0.290896 -0.0536736 0)
(-0.28245 -0.0584182 0)
(-0.273185 -0.0628392 0)
(-0.263109 -0.0668719 0)
(-0.252236 -0.0704497 0)
(-0.240594 -0.0735054 0)
(-0.228224 -0.0759741 0)
(-0.215178 -0.0777952 0)
(-0.201527 -0.0789157 0)
(-0.187355 -0.0792931 0)
(-0.172765 -0.0788983 0)
(-0.157872 -0.0777181 0)
(-0.142803 -0.0757575 0)
(-0.127696 -0.0730404 0)
(-0.112692 -0.0696101 0)
(-0.0979344 -0.065528 0)
(-0.0835608 -0.0608716 0)
(-0.0697006 -0.0557317 0)
(-0.0564703 -0.0502083 0)
(-0.0439704 -0.0444069 0)
(-0.0322843 -0.0384344 0)
(-0.0214771 -0.0323959 0)
(-0.0115974 -0.0263921 0)
(-0.00267833 -0.0205168 0)
(0.00526023 -0.0148565 0)
(0.0122094 -0.0094889 0)
(0.01817 -0.00448303 0)
(0.0231515 0.000101668 0)
(0.0271721 0.00421595 0)
(0.0302592 0.00782186 0)
(0.0324507 0.010894 0)
(0.0337955 0.0134205 0)
(0.0343542 0.0154044 0)
(0.0341988 0.0168629 0)
(0.0334108 0.0178277 0)
(0.0320794 0.0183425 0)
(0.0302981 0.0184608 0)
(0.0281613 0.0182424 0)
(0.0257605 0.01775 0)
(0.0231814 0.0170445 0)
(0.0205017 0.0161813 0)
(0.0177891 0.015206 0)
(0.0151017 0.0141507 0)
(0.0124889 0.0130306 0)
(0.00999315 0.0118428 0)
(0.00765375 0.0105653 0)
(0.00551115 0.00916032 0)
(0.00361277 0.00757913 0)
(0.00200777 0.00577048 0)
(0.000821176 0.00369111 0)
(9.3939e-05 0.00132479 0)
(9.3232e-05 -0.00189539 0)
(0.00082066 -0.00505326 0)
(0.00197763 -0.00751709 0)
(0.00345945 -0.0092344 0)
(0.005055 -0.0101982 0)
(0.00662687 -0.0104452 0)
(0.00805045 -0.0100519 0)
(0.00922772 -0.00912345 0)
(0.0100875 -0.00778144 0)
(0.0105827 -0.0061503 0)
(0.0106858 -0.00434591 0)
(0.0103835 -0.00246643 0)
(0.00967003 -0.000586032 0)
(0.00854204 0.00124868 0)
(0.00699282 0.00301959 0)
(0.0050082 0.00473564 0)
(0.00256353 0.00642912 0)
(-0.000377748 0.00814998 0)
(-0.00386378 0.00995877 0)
(-0.00795233 0.0119187 0)
(-0.0127074 0.0140882 0)
(-0.0181948 0.0165146 0)
(-0.0244774 0.0192297 0)
(-0.0316105 0.0222485 0)
(-0.0396374 0.0255684 0)
(-0.0485853 0.0291704 0)
(-0.0584616 0.0330207 0)
(-0.0692506 0.037072 0)
(-0.0809109 0.0412638 0)
(-0.0933738 0.0455247 0)
(-0.106543 0.0497731 0)
(-0.120298 0.0539208 0)
(-0.134498 0.0578762 0)
(-0.148988 0.0615494 0)
(-0.163606 0.064856 0)
(-0.178195 0.0677224 0)
(-0.192604 0.0700884 0)
(-0.206702 0.0719095 0)
(-0.220373 0.0731579 0)
(-0.233527 0.0738211 0)
(-0.246093 0.0739008 0)
(-0.25802 0.0734102 0)
(-0.269274 0.0723714 0)
(-0.279837 0.0708129 0)
(-0.2897 0.0687671 0)
(-0.298861 0.0662684 0)
(-0.307326 0.0633517 0)
(-0.315103 0.060051 0)
(-0.3222 0.0563988 0)
(-0.328629 0.0524255 0)
(-0.334399 0.0481593 0)
(-0.33952 0.0436259 0)
(-0.344 0.0388489 0)
(-0.347847 0.0338493 0)
(-0.351067 0.0286467 0)
(-0.353663 0.0232587 0)
(-0.355639 0.0177019 0)
(-0.356994 0.0119919 0)
(-0.357729 0.00614401 0)
(-0.357838 0.000173934 0)
(-0.357315 -0.00590192 0)
(-0.356153 -0.0120659 0)
(-0.354339 -0.0182979 0)
(-0.351859 -0.0245753 0)
(-0.348696 -0.0308716 0)
(-0.344831 -0.0371561 0)
(-0.340243 -0.0433931 0)
(-0.334908 -0.0495414 0)
(-0.328803 -0.0555534 0)
(-0.321903 -0.0613753 0)
(-0.314187 -0.0669467 0)
(-0.305635 -0.0722012 0)
(-0.296233 -0.0770667 0)
(-0.285975 -0.0814671 0)
(-0.274864 -0.0853236 0)
(-0.262915 -0.0885573 0)
(-0.250159 -0.0910921 0)
(-0.236644 -0.0928578 0)
(-0.222436 -0.093794 0)
(-0.207623 -0.0938539 0)
(-0.192311 -0.0930079 0)
(-0.176627 -0.091247 0)
(-0.160712 -0.0885844 0)
(-0.144721 -0.0850575 0)
(-0.128816 -0.080727 0)
(-0.113159 -0.0756754 0)
(-0.0979086 -0.0700033 0)
(-0.0832105 -0.0638257 0)
(-0.0691943 -0.0572658 0)
(-0.0559689 -0.0504506 0)
(-0.0436207 -0.0435053 0)
(-0.0322132 -0.0365493 0)
(-0.0217887 -0.0296931 0)
(-0.0123713 -0.023037 0)
(-0.00397016 -0.01667 0)
(0.00341705 -0.01067 0)
(0.00980118 -0.00510419 0)
(0.0151999 -2.93646e-05 0)
(0.0196372 0.00450857 0)
(0.0231436 0.00847514 0)
(0.0257574 0.0118485 0)
(0.0275259 0.0146205 0)
(0.0285063 0.0167979 0)
(0.0287661 0.0184026 0)
(0.028382 0.0194706 0)
(0.0274383 0.0200509 0)
(0.026024 0.020202 0)
(0.02423 0.0199886 0)
(0.0221454 0.0194769 0)
(0.0198546 0.0187298 0)
(0.0174355 0.0178017 0)
(0.0149578 0.0167336 0)
(0.0124835 0.0155486 0)
(0.0100679 0.0142489 0)
(0.00776302 0.0128143 0)
(0.00562119 0.0112034 0)
(0.00370147 0.00935767 0)
(0.00206389 0.00720754 0)
(0.000846055 0.00468183 0)
(9.68725e-05 0.00171968 0)
(9.80731e-05 -0.00229223 0)
(0.000853404 -0.00603132 0)
(0.00203271 -0.00887381 0)
(0.00351366 -0.0107826 0)
(0.00506497 -0.0117704 0)
(0.00653739 -0.0118995 0)
(0.00779975 -0.0112746 0)
(0.00875261 -0.0100305 0)
(0.00932694 -0.00831559 0)
(0.00947977 -0.00627691 0)
(0.00918761 -0.00404687 0)
(0.00843933 -0.00173362 0)
(0.00722895 0.000585258 0)
(0.00554907 0.00286559 0)
(0.00338535 0.00509654 0)
(0.000712705 0.00729769 0)
(-0.00250685 0.0095137 0)
(-0.00632418 0.0118068 0)
(-0.010801 0.0142476 0)
(-0.0160062 0.016906 0)
(-0.0220103 0.0198423 0)
(-0.0288799 0.0231001 0)
(-0.0366717 0.0267028 0)
(-0.0454272 0.0306515 0)
(-0.0551679 0.0349256 0)
(-0.0658914 0.0394846 0)
(-0.0775678 0.0442694 0)
(-0.0901378 0.0492047 0)
(-0.103512 0.0542016 0)
(-0.117572 0.0591603 0)
(-0.132176 0.0639743 0)
(-0.147161 0.068536 0)
(-0.162356 0.0727417 0)
(-0.17759 0.076498 0)
(-0.1927 0.079726 0)
(-0.207536 0.0823649 0)
(-0.221973 0.084373 0)
(-0.235908 0.0857281 0)
(-0.249262 0.0864252 0)
(-0.261979 0.0864743 0)
(-0.274021 0.0858967 0)
(-0.285369 0.0847222 0)
(-0.296013 0.0829861 0)
(-0.305953 0.0807267 0)
(-0.315196 0.0779832 0)
(-0.323752 0.0747945 0)
(-0.331633 0.0711982 0)
(-0.338854 0.0672297 0)
(-0.345429 0.0629219 0)
(-0.351372 0.0583053 0)
(-0.356698 0.0534074 0)
(-0.361421 0.0482533 0)
(-0.365553 0.0428653 0)
(-0.369107 0.0372637 0)
(-0.372093 0.0314662 0)
(-0.374521 0.0254891 0)
(-0.376398 0.0193469 0)
(-0.377729 0.0130533 0)
(-0.378518 0.0066211 0)
(-0.378765 6.33396e-05 0)