/*--------------------------------*- C++ -*----------------------------------*\
| =========                 |                                                 |
| \\      /  F ield         | OpenFOAM: The Open Source CFD Toolbox           |
|  \\    /   O peration     | Version:  2406                                  |
|   \\  /    A nd           | Website:  www.openfoam.com                      |
|    \\/     M anipulation  |                                                 |
\*---------------------------------------------------------------------------*/
FoamFile
{
    version     2.0;
    format      ascii;
    arch        "LSB;label=32;scalar=64";
    class       volVectorField;
    location    "6.4";
    object      U;
}
// * * * * * * * * * * * * * * * * * * * * * * * * * * * * * * * * * * * * * //

dimensions      [0 1 -1 0 0 0 0];

internalField   nonuniform List<vector> 
900
(
(-0.000135531 0.000128852 0)
(-0.000813861 0.000213331 0)
(-0.00173076 0.000266482 0)
(-0.00278188 0.000280206 0)
(-0.00385621 0.000287346 0)
(-0.00494809 0.000291352 0)
(-0.00605304 0.000295856 0)
(-0.00717047 0.000300404 0)
(-0.00829746 0.000304211 0)
(-0.00942754 0.00030609 0)
(-0.0105493 0.000304559 0)
(-0.0116453 0.000297727 0)
(-0.0126906 0.000283278 0)
(-0.0136517 0.000258505 0)
(-0.0144857 0.000220484 0)
(-0.0151407 0.000166439 0)
(-0.015558 9.43259e-05 0)
(-0.0156769 3.66148e-06 0)
(-0.0154429 -0.000103231 0)
(-0.0148173 -0.000220339 0)
(-0.0137881 -0.00033805 0)
(-0.0123791 -0.000444197 0)
(-0.0106533 -0.00052613 0)
(-0.00870802 -0.000573605 0)
(-0.00666471 -0.000580834 0)
(-0.00465619 -0.000545587 0)
(-0.00281783 -0.000465757 0)
(-0.00129531 -0.000336711 0)
(-0.000250582 -0.000152829 0)
(6.48979e-05 4.4117e-05 0)
(-0.000259761 0.000847819 0)
(-0.00176913 0.00163796 0)
(-0.00366083 0.00198308 0)
(-0.00581133 0.00209699 0)
(-0.00800137 0.00213899 0)
(-0.0102221 0.0021629 0)
(-0.0124576 0.00218332 0)
(-0.0147015 0.00219893 0)
(-0.0169421 0.00220395 0)
(-0.0191618 0.00219004 0)
(-0.0213332 0.00214675 0)
(-0.0234182 0.00206132 0)
(-0.0253655 0.0019188 0)
(-0.0271096 0.00170277 0)
(-0.028571 0.00139698 0)
(-0.0296582 0.000988032 0)
(-0.0302732 0.000469457 0)
(-0.0303205 -0.000153405 0)
(-0.0297199 -0.000859206 0)
(-0.0284218 -0.00160774 0)
(-0.0264225 -0.00234146 0)
(-0.0237752 -0.00299256 0)
(-0.020593 -0.00349478 0)
(-0.0170393 -0.00379676 0)
(-0.0133105 -0.00386987 0)
(-0.00961626 -0.00370348 0)
(-0.0061691 -0.00328392 0)
(-0.00319656 -0.00256319 0)
(-0.00101416 -0.00146255 0)
(-5.12764e-06 -0.000149971 0)
(-0.000349236 0.00193202 0)
(-0.00230869 0.00361826 0)
(-0.00468304 0.00429205 0)
(-0.00737066 0.00452327 0)
(-0.0101017 0.00460786 0)
(-0.0128695 0.00465005 0)
(-0.0156488 0.00467765 0)
(-0.0184282 0.0046887 0)
(-0.0211899 0.00467147 0)
(-0.0239095 0.00460894 0)
(-0.0265514 0.00447977 0)
(-0.0290672 0.00425834 0)
(-0.0313937 0.00391537 0)
(-0.0334516 0.00341969 0)
(-0.035146 0.00274169 0)
(-0.0363692 0.0018589 0)
(-0.0370065 0.000763453 0)
(-0.0369473 -0.00052932 0)
(-0.0360989 -0.00197263 0)
(-0.0344046 -0.00348454 0)
(-0.0318632 -0.00495126 0)
(-0.0285453 -0.00624013 0)
(-0.0245984 -0.00722273 0)
(-0.0202372 -0.00780128 0)
(-0.0157178 -0.0079255 0)
(-0.0113053 -0.00758436 0)
(-0.00724937 -0.00676277 0)
(-0.00379247 -0.00537704 0)
(-0.0012615 -0.00327988 0)
(-2.53661e-05 -0.000605841 0)
(-0.000387349 0.00324569 0)
(-0.00255744 0.00598655 0)
(-0.00516063 0.00703974 0)
(-0.00810143 0.00740649 0)
(-0.0110833 0.00754023 0)
(-0.0141049 0.00760236 0)
(-0.0171386 0.00763515 0)
(-0.0201726 0.00763618 0)
(-0.0231881 0.00758729 0)
(-0.0261599 0.00746179 0)
(-0.0290512 0.00722608 0)
(-0.0318121 0.00683996 0)
(-0.0343765 0.00625772 0)
(-0.0366602 0.00543097 0)
(-0.0385608 0.00431396 0)
(-0.039958 0.0028719 0)
(-0.0407192 0.0010924 0)
(-0.0407084 -0.00100107 0)
(-0.0398019 -0.00333538 0)
(-0.0379126 -0.00578016 0)
(-0.0350175 -0.00814993 0)
(-0.0311872 -0.010223 0)
(-0.0266045 -0.0117799 0)
(-0.0215572 -0.0126526 0)
(-0.0163987 -0.0127626 0)
(-0.0114852 -0.0121136 0)
(-0.00711793 -0.0107186 0)
(-0.00354867 -0.00848643 0)
(-0.00104528 -0.00521927 0)
(3.19193e-05 -0.00103125 0)
(-0.000402773 0.00463672 0)
(-0.00265231 0.00847959 0)
(-0.00534962 0.00992523 0)
(-0.008398 0.010429 0)
(-0.0114892 0.0106138 0)
(-0.0146269 0.0106992 0)
(-0.017785 0.0107421 0)
(-0.0209553 0.0107397 0)
(-0.0241227 0.0106676 0)
(-0.0272664 0.0104898 0)
(-0.0303544 0.0101606 0)
(-0.0333413 0.00962465 0)
(-0.0361641 0.0088182 0)
(-0.0387392 0.00767249 0)
(-0.0409581 0.00612017 0)
(-0.0426858 0.0041061 0)
(-0.0437615 0.00160301 0)
(-0.0440054 -0.00136813 0)
(-0.0432353 -0.00471617 0)
(-0.0412972 -0.00826109 0)
(-0.0381097 -0.0117279 0)
(-0.0337208 -0.0147678 0)
(-0.0283545 -0.0170169 0)
(-0.0224185 -0.0181883 0)
(-0.0164407 -0.0181585 0)
(-0.0109434 -0.0169791 0)
(-0.00631496 -0.0147607 0)
(-0.00280938 -0.0114686 0)
(-0.000548549 -0.00689941 0)
(0.000136274 -0.00122979 0)
(-0.000403869 0.00605369 0)
(-0.00266786 0.0110219 0)
(-0.00539092 0.0128732 0)
(-0.00847516 0.0135203 0)
(-0.0116094 0.0137632 0)
(-0.0148017 0.0138825 0)
(-0.0180303 0.0139504 0)
(-0.0212935 0.0139646 0)
(-0.0245834 0.0138956 0)
(-0.027888 0.0136989 0)
(-0.0311849 0.0133169 0)
(-0.0344388 0.0126786 0)
(-0.0375954 0.0116998 0)
(-0.0405758 0.0102861 0)
(-0.0432685 0.00833946 0)
(-0.0455218 0.00577007 0)
(-0.0471379 0.0025167 0)
(-0.0478731 -0.00142475 0)
(-0.0474521 -0.00596338 0)
(-0.0456051 -0.0108751 0)
(-0.042136 -0.0157726 0)
(-0.0370262 -0.0201166 0)
(-0.0305438 -0.0232996 0)
(-0.0232868 -0.0248137 0)
(-0.0160853 -0.0244446 0)
(-0.00976183 -0.0223495 0)
(-0.00485297 -0.0188797 0)
(-0.00158018 -0.0141903 0)
(0.000204823 -0.00813499 0)
(0.000279288 -0.00106345 0)
(-0.000397426 0.007464 0)
(-0.00264051 0.013565 0)
(-0.00535371 0.0158328 0)
(-0.00843715 0.0166324 0)
(-0.0115817 0.0169447 0)
(-0.0147995 0.0171138 0)
(-0.0180752 0.0172293 0)
(-0.0214151 0.0172909 0)
(-0.0248218 0.0172654 0)
(-0.0282956 0.0171015 0)
(-0.0318285 0.016731 0)
(-0.035401 0.0160671 0)
(-0.0389744 0.0150033 0)
(-0.0424823 0.0134136 0)
(-0.0458173 0.0111575 0)
(-0.0488155 0.00809143 0)
(-0.05124 0.00409168 0)
(-0.0527669 -0.000907477 0)
(-0.0529897 -0.00685627 0)
(-0.051457 -0.0135079 0)
(-0.0477741 -0.0203429 0)
(-0.0417905 -0.0265365 0)
(-0.0338067 -0.0310661 0)
(-0.0246575 -0.0330292 0)
(-0.0155915 -0.0320344 0)
(-0.00794534 -0.0284124 0)
(-0.00260387 -0.0229954 0)
(0.000249157 -0.0164106 0)
(0.00125373 -0.00866108 0)
(0.000460974 -0.000373332 0)
(-0.000385907 0.00884783 0)
(-0.00258545 0.0160805 0)
(-0.00526668 0.0187744 0)
(-0.00832638 0.0197373 0)
(-0.0114604 0.0201329 0)
(-0.0146846 0.0203714 0)
(-0.0179908 0.0205619 0)
(-0.0213952 0.0207085 0)
(-0.0249128 0.0207769 0)
(-0.0285595 0.0207118 0)
(-0.0323469 0.0204368 0)
(-0.0362779 0.0198512 0)
(-0.0403391 0.0188255 0)
(-0.0444886 0.0171981 0)
(-0.0486386 0.0147747 0)
(-0.0526287 0.0113352 0)
(-0.0561942 0.00665458 0)
(-0.0589302 0.000548456 0)
(-0.0602683 -0.00703946 0)
(-0.0595219 -0.0158918 0)
(-0.0560628 -0.025335 0)
(-0.0496045 -0.0341285 0)
(-0.0403962 -0.0406733 0)
(-0.0292092 -0.0434851 0)
(-0.0174409 -0.0417157 0)
(-0.00712877 -0.0357539 0)
(-0.000221387 -0.0272448 0)
(0.00255695 -0.0178855 0)
(0.00255562 -0.00817416 0)
(0.000660747 0.000985169 0)
(-0.000369924 0.0101909 0)
(-0.00250712 0.0185486 0)
(-0.0051381 0.0216774 0)
(-0.00815436 0.0228152 0)
(-0.0112583 0.0233087 0)
(-0.0144689 0.0236369 0)
(-0.0177855 0.0239315 0)
(-0.0212347 0.024204 0)
(-0.0248457 0.0244226 0)
(-0.028653 0.0245318 0)
(-0.0326922 0.0244519 0)
(-0.0369965 0.0240729 0)
(-0.0415894 0.0232463 0)
(-0.0464721 0.0217748 0)
(-0.0516008 0.0194036 0)
(-0.056852 0.0158154 0)
(-0.0619696 0.0106396 0)
(-0.0664994 0.00350152 0)
(-0.0697619 -0.00583884 0)
(-0.0709889 -0.0172073 0)
(-0.0696407 -0.0297 0)
(-0.0654623 -0.0417656 0)
(-0.0579045 -0.051508 0)
(-0.0462165 -0.0567477 0)
(-0.030935 -0.0554652 0)
(-0.0146842 -0.0470329 0)
(-0.00179946 -0.0336017 0)
(0.00393558 -0.0192488 0)
(0.0036653 -0.00656488 0)
(0.00079444 0.00305568 0)
(-0.000349443 0.0114798 0)
(-0.00240555 0.0209508 0)
(-0.00496776 0.0245228 0)
(-0.00791966 0.025846 0)
(-0.0109711 0.0264505 0)
(-0.0141427 0.0268872 0)
(-0.0174412 0.0273136 0)
(-0.0209032 0.0277519 0)
(-0.0245729 0.0281776 0)
(-0.0285051 0.0285408 0)
(-0.0327631 0.0287656 0)
(-0.0374178 0.0287417 0)
(-0.0425428 0.0283109 0)
(-0.0482037 0.0272498 0)
(-0.0544362 0.0252475 0)
(-0.0612072 0.0218806 0)
(-0.068349 0.0166008 0)
(-0.0754995 0.00881079 0)
(-0.0822187 -0.00182324 0)
(-0.0884681 -0.0148871 0)
(-0.094708 -0.029357 0)
(-0.0998467 -0.0444866 0)
(-0.099693 -0.0591713 0)
(-0.0904402 -0.0708524 0)
(-0.0713268 -0.0751919 0)
(-0.0447829 -0.0680761 0)
(-0.0174774 -0.0491015 0)
(0.000332574 -0.0246274 0)
(0.00347834 -0.00488952 0)
(0.000634686 0.00543908 0)
(-0.000324382 0.0127011 0)
(-0.00227993 0.0232679 0)
(-0.00475354 0.0272895 0)
(-0.00761768 0.0288067 0)
(-0.0105899 0.0295321 0)
(-0.0136907 0.0300914 0)
(-0.0169325 0.0306718 0)
(-0.0203613 0.0313104 0)
(-0.024035 0.0319949 0)
(-0.0280287 0.0326883 0)
(-0.0324351 0.0333281 0)
(-0.0373672 0.0338171 0)
(-0.0429593 0.0340055 0)
(-0.0493634 0.0336655 0)
(-0.0567349 0.0324548 0)
(-0.0652099 0.0298694 0)
(-0.0748686 0.0252243 0)
(-0.085815 0.0179151 0)
(-0.0988336 0.00816358 0)
(-0.116127 -0.00299321 0)
(-0.138273 -0.0160521 0)
(-0.158244 -0.0341693 0)
(-0.166701 -0.0584972 0)
(-0.16092 -0.0832921 0)
(-0.139528 -0.100484 0)
(-0.10348 -0.102295 0)
(-0.0574295 -0.0825848 0)
(-0.0152738 -0.042221 0)
(0.000792185 -0.00606337 0)
(-5.40208e-06 0.00755361 0)
(-0.0002949 0.0138411 0)
(-0.00213054 0.0254797 0)
(-0.00449493 0.0299548 0)
(-0.007246 0.0316709 0)
(-0.0101087 0.0325215 0)
(-0.0131007 0.0332106 0)
(-0.0162383 0.0339582 0)
(-0.0195739 0.0348206 0)
(-0.0231767 0.0358032 0)
(-0.0271395 0.0368894 0)
(-0.0315816 0.038042 0)
(-0.0366572 0.0391934 0)
(-0.0425654 0.0402284 0)
(-0.0495577 0.0409515 0)
(-0.057942 0.0410418 0)
(-0.0681226 0.0400088 0)
(-0.080699 0.0372879 0)
(-0.0969375 0.0331076 0)
(-0.120214 0.0295373 0)
(-0.154008 0.0264132 0)
(-0.191223 0.0142495 0)
(-0.216076 -0.0159314 0)
(-0.22577 -0.0561647 0)
(-0.223036 -0.0960137 0)
(-0.205298 -0.129178 0)
(-0.17204 -0.146535 0)
(-0.118754 -0.137372 0)
(-0.0543922 -0.0864964 0)
(-0.00659833 -0.0205722 0)
(-0.000888237 0.00718274 0)
(-0.000261641 0.0148872 0)
(-0.00195983 0.0275667 0)
(-0.00419511 0.0324956 0)
(-0.00680731 0.0344106 0)
(-0.00952818 0.0353835 0)
(-0.0123694 0.0361992 0)
(-0.0153479 0.0371144 0)
(-0.0185193 0.038208 0)
(-0.0219592 0.0395077 0)
(-0.0257717 0.0410245 0)
(-0.0300955 0.0427574 0)
(-0.0351167 0.0446872 0)
(-0.0410903 0.0467626 0)
(-0.0483629 0.0488694 0)
(-0.0574014 0.0507934 0)
(-0.0689867 0.0522806 0)
(-0.0845808 0.0535937 0)
(-0.10693 0.0571294 0)
(-0.140626 0.0653172 0)
(-0.184039 0.0676624 0)
(-0.218398 0.0435509 0)
(-0.232931 -0.00365215 0)
(-0.240562 -0.0541167 0)
(-0.239316 -0.10609 0)
(-0.231545 -0.15191 0)
(-0.214891 -0.187495 0)
(-0.177359 -0.200166 0)
(-0.113481 -0.158678 0)
(-0.0292178 -0.0583107 0)
(0.00214688 0.00546715 0)
(-0.000225754 0.015829 0)
(-0.001773 0.0295109 0)
(-0.00386215 0.0348894 0)
(-0.00631171 0.0369969 0)
(-0.00885882 0.03808 0)
(-0.0115059 0.0390075 0)
(-0.0142672 0.040075 0)
(-0.0171965 0.0413866 0)
(-0.0203698 0.0429952 0)
(-0.0238937 0.0449442 0)
(-0.0279131 0.0472771 0)
(-0.0326277 0.0500372 0)
(-0.0383224 0.0532635 0)
(-0.0454087 0.0569741 0)
(-0.0544752 0.0611786 0)
(-0.0666737 0.0662246 0)
(-0.0841293 0.0739992 0)
(-0.109584 0.0882937 0)
(-0.145321 0.105403 0)
(-0.183038 0.101962 0)
(-0.203022 0.0611826 0)
(-0.209595 0.00472698 0)
(-0.215768 -0.0503338 0)
(-0.210752 -0.107865 0)
(-0.207446 -0.156241 0)
(-0.204018 -0.202206 0)
(-0.192387 -0.238007 0)
(-0.152292 -0.233806 0)
(-0.0804214 -0.14253 0)
(0.00960401 -0.0115674 0)
(-0.000189213 0.0166608 0)
(-0.00157899 0.0313006 0)
(-0.00351022 0.0371192 0)
(-0.00577749 0.0394053 0)
(-0.00812184 0.0405759 0)
(-0.0105336 0.0415859 0)
(-0.0130206 0.0427722 0)
(-0.0156301 0.0442646 0)
(-0.018431 0.046142 0)
(-0.0215214 0.0484807 0)
(-0.0250366 0.0513707 0)
(-0.0291642 0.0549231 0)
(-0.0341771 0.0592792 0)
(-0.0404899 0.0646264 0)
(-0.0487106 0.0713049 0)
(-0.0600665 0.0804614 0)
(-0.076488 0.0953401 0)
(-0.0990972 0.118516 0)
(-0.128161 0.138154 0)
(-0.155597 0.12528 0)
(-0.167192 0.0725689 0)
(-0.174566 0.0113998 0)
(-0.182209 -0.0480971 0)
(-0.175081 -0.110635 0)
(-0.167704 -0.157912 0)
(-0.16134 -0.199007 0)
(-0.163484 -0.241599 0)
(-0.15149 -0.278119 0)
(-0.12054 -0.236923 0)
(0.00288665 -0.0521721 0)
(-0.000154429 0.0173825 0)
(-0.00138985 0.0329293 0)
(-0.00315987 0.03917 0)
(-0.00523358 0.0416112 0)
(-0.00735278 0.0428366 0)
(-0.00949345 0.0438874 0)
(-0.0116547 0.0451418 0)
(-0.0138728 0.0467548 0)
(-0.0162035 0.0488285 0)
(-0.018726 0.0514682 0)
(-0.0215486 0.0548045 0)
(-0.0248206 0.0590085 0)
(-0.0287546 0.0643136 0)
(-0.0336819 0.0710677 0)
(-0.0400809 0.0799298 0)
(-0.0488098 0.0926352 0)
(-0.0608569 0.11292 0)
(-0.0759503 0.141353 0)
(-0.0948445 0.160794 0)
(-0.114019 0.141746 0)
(-0.124931 0.0842379 0)
(-0.137522 0.0199433 0)
(-0.148314 -0.0485526 0)
(-0.144418 -0.121639 0)
(-0.137548 -0.173658 0)
(-0.123914 -0.207287 0)
(-0.126147 -0.235064 0)
(-0.121943 -0.284759 0)
(-0.120335 -0.293282 0)
(-0.0221007 -0.124259 0)
(-0.000125206 0.0180039 0)
(-0.00122357 0.0344059 0)
(-0.00283946 0.0410464 0)
(-0.00471602 0.0436103 0)
(-0.00659509 0.0448422 0)
(-0.00843845 0.0458747 0)
(-0.0102336 0.0471277 0)
(-0.0120033 0.0487786 0)
(-0.0137851 0.0509474 0)
(-0.0156321 0.0537595 0)
(-0.017613 0.0573716 0)
(-0.0198182 0.0619938 0)
(-0.0223643 0.0679179 0)
(-0.0254252 0.0755864 0)
(-0.029232 0.0858264 0)
(-0.0340105 0.100537 0)
(-0.0396114 0.123266 0)
(-0.0449881 0.153649 0)
(-0.0520068 0.173367 0)
(-0.0627396 0.154228 0)
(-0.0719859 0.0976827 0)
(-0.0840294 0.0309163 0)
(-0.0939423 -0.0439108 0)
(-0.0930541 -0.124297 0)
(-0.0932152 -0.184011 0)
(-0.0812475 -0.217694 0)
(-0.0892745 -0.234312 0)
(-0.087762 -0.28551 0)
(-0.103731 -0.331179 0)
(-0.0244425 -0.20762 0)
(-0.000105687 0.0185443 0)
(-0.00110048 0.0357458 0)
(-0.0025855 0.0427433 0)
(-0.00427938 0.0453807 0)
(-0.00591576 0.046567 0)
(-0.00744348 0.0475169 0)
(-0.00884264 0.0486903 0)
(-0.0101226 0.0502832 0)
(-0.011302 0.0524269 0)
(-0.0124049 0.0552559 0)
(-0.0134552 0.0589353 0)
(-0.0144753 0.0636842 0)
(-0.0154758 0.0698054 0)
(-0.016447 0.0777447 0)
(-0.017331 0.088289 0)
(-0.0177772 0.103085 0)
(-0.0166424 0.125034 0)
(-0.0122318 0.154182 0)
(-0.00628322 0.175133 0)
(-0.0055928 0.160625 0)
(-0.00936902 0.108274 0)
(-0.016464 0.0400597 0)
(-0.0246407 -0.0374573 0)
(-0.0258438 -0.119534 0)
(-0.0381585 -0.183261 0)
(-0.0333827 -0.216157 0)
(-0.0515744 -0.222536 0)
(-0.0525601 -0.269285 0)
(-0.0807861 -0.344292 0)
(-0.0176473 -0.270313 0)
(-0.000101703 0.0190386 0)
(-0.00105196 0.0369958 0)
(-0.00244109 0.0443165 0)
(-0.00396915 0.0469719 0)
(-0.00536735 0.0480264 0)
(-0.00657836 0.0488024 0)
(-0.00757025 0.0497986 0)
(-0.00834235 0.0512251 0)
(-0.00889665 0.0532147 0)
(-0.00923159 0.0558974 0)
(-0.00933103 0.0594275 0)
(-0.00915485 0.0640032 0)
(-0.00862101 0.0698904 0)
(-0.00756875 0.0774607 0)
(-0.00570071 0.0873099 0)
(-0.00233391 0.100554 0)
(0.00415147 0.119057 0)
(0.0161717 0.143472 0)
(0.0337911 0.164419 0)
(0.0477429 0.157247 0)
(0.0528149 0.112281 0)
(0.0526955 0.045311 0)
(0.0431588 -0.03142 0)
(0.0405169 -0.110204 0)
(0.0157517 -0.172958 0)
(0.0106057 -0.206817 0)
(-0.0223953 -0.211128 0)
(-0.0248583 -0.256138 0)
(-0.0617111 -0.349981 0)
(-0.0111389 -0.320915 0)
(-0.000124832 0.0195476 0)
(-0.00111623 0.0382087 0)
(-0.00248017 0.0457465 0)
(-0.0038953 0.048319 0)
(-0.0050716 0.0491849 0)
(-0.00595425 0.0497166 0)
(-0.00652618 0.0504521 0)
(-0.0067804 0.0516101 0)
(-0.00670944 0.0533223 0)
(-0.00629151 0.0557053 0)
(-0.0054808 0.0588882 0)
(-0.00419215 0.0630273 0)
(-0.00228037 0.0683193 0)
(0.000508629 0.0750164 0)
(0.00459455 0.0834631 0)
(0.0107125 0.0942052 0)
(0.0204578 0.108084 0)
(0.0363065 0.125302 0)
(0.0598619 0.141865 0)
(0.0855045 0.140662 0)
(0.100364 0.107589 0)
(0.109546 0.048674 0)
(0.0987929 -0.0226475 0)
(0.0947292 -0.094306 0)
(0.0609648 -0.149355 0)
(0.0493334 -0.181121 0)
(0.00126539 -0.184476 0)
(-0.00196162 -0.229941 0)
(-0.0477606 -0.342779 0)
(-0.00356177 -0.35835 0)
(-0.000174365 0.0201269 0)
(-0.00133398 0.0394822 0)
(-0.00272473 0.0472146 0)
(-0.00406018 0.0496238 0)
(-0.005037 0.0501229 0)
(-0.0056264 0.050272 0)
(-0.00579334 0.050627 0)
(-0.00554571 0.0514104 0)
(-0.00487328 0.0527354 0)
(-0.00374954 0.054693 0)
(-0.00211361 0.0573768 0)
(0.00014163 0.0608882 0)
(0.00318856 0.0653424 0)
(0.00730173 0.0708609 0)
(0.0129037 0.0775618 0)
(0.0206878 0.0855487 0)
(0.0317249 0.0949666 0)
(0.0482705 0.105137 0)
(0.0706968 0.114482 0)
(0.100757 0.113465 0)
(0.120827 0.0914458 0)
(0.139437 0.0454074 0)
(0.129476 -0.0129232 0)
(0.125714 -0.0749009 0)
(0.0847973 -0.121406 0)
(0.0691547 -0.151248 0)
(0.0119815 -0.155404 0)
(0.0114843 -0.206582 0)
(-0.042706 -0.336493 0)
(0.00024299 -0.389099 0)
(-0.000316334 0.0209944 0)
(-0.00185192 0.0409512 0)
(-0.00345116 0.0485678 0)
(-0.00477408 0.0505784 0)
(-0.00554093 0.0507284 0)
(-0.00575936 0.0504512 0)
(-0.00548877 0.0503717 0)
(-0.00472785 0.0507051 0)
(-0.00347826 0.0515575 0)
(-0.00170741 0.052996 0)
(0.000647097 0.0550739 0)
(0.00369482 0.0578417 0)
(0.00760204 0.061335 0)
(0.012622 0.0655656 0)
(0.019093 0.0704955 0)
(0.0276258 0.0759379 0)
(0.0385555 0.081734 0)
(0.0542033 0.0865056 0)
(0.0720289 0.0900493 0)
(0.0993847 0.0857083 0)
(0.116939 0.0703894 0)
(0.139914 0.0362628 0)
(0.131362 -0.00587578 0)
(0.13152 -0.0551257 0)
(0.0894128 -0.0898334 0)
(0.0784 -0.117453 0)
(0.0162727 -0.123189 0)
(0.0208551 -0.181127 0)
(-0.0414609 -0.321746 0)
(0.00643718 -0.411657 0)
(-0.00046663 0.0220675 0)
(-0.00257148 0.0427573 0)
(-0.00433168 0.0503262 0)
(-0.00575625 0.0518547 0)
(-0.00636475 0.0511746 0)
(-0.00634663 0.0502508 0)
(-0.00566413 0.04959 0)
(-0.00442185 0.0493923 0)
(-0.00262705 0.049718 0)
(-0.000274226 0.0505894 0)
(0.00269287 0.0520254 0)
(0.00636759 0.0540184 0)
(0.0108886 0.0565525 0)
(0.0164674 0.0595524 0)
(0.0232913 0.0629045 0)
(0.0319846 0.0662249 0)
(0.0419524 0.0694548 0)
(0.0562392 0.070616 0)
(0.0691498 0.0709242 0)
(0.0916567 0.064157 0)
(0.10217 0.0525827 0)
(0.124159 0.0267343 0)
(0.114574 -0.000847027 0)
(0.119907 -0.0379498 0)
(0.0781668 -0.0621166 0)
(0.0782969 -0.0874298 0)
(0.0139462 -0.0897296 0)
(0.0288293 -0.151743 0)
(-0.0430742 -0.307243 0)
(0.0123605 -0.432758 0)
(-0.00103545 0.0244411 0)
(-0.00439093 0.04514 0)
(-0.00678052 0.0518127 0)
(-0.00803578 0.0522399 0)
(-0.00826538 0.0511804 0)
(-0.0076109 0.0496447 0)
(-0.00639764 0.0484364 0)
(-0.00459906 0.0476936 0)
(-0.0022738 0.0474621 0)
(0.000610715 0.0477482 0)
(0.00408835 0.0485214 0)
(0.00824511 0.0497542 0)
(0.0131751 0.0513788 0)
(0.0190625 0.0532789 0)
(0.0258776 0.0553391 0)
(0.0344264 0.0570083 0)
(0.0430699 0.058577 0)
(0.0559881 0.0576127 0)
(0.0647659 0.0564611 0)
(0.0831604 0.0490054 0)
(0.0870635 0.0403675 0)
(0.105875 0.0202837 0)
(0.0930178 0.00314885 0)
(0.103608 -0.0236971 0)
(0.0615462 -0.0388601 0)
(0.0731159 -0.0621843 0)
(0.00353098 -0.0633816 0)
(0.0351934 -0.129484 0)
(-0.0476181 -0.294299 0)
(0.0207345 -0.458249 0)
(-0.00138768 0.0268626 0)
(-0.00589965 0.0484715 0)
(-0.00826262 0.0543923 0)
(-0.0102703 0.0537676 0)
(-0.0101992 0.0509013 0)
(-0.00947332 0.0484583 0)
(-0.00772526 0.0465338 0)
(-0.00543673 0.0452089 0)
(-0.00257571 0.0444601 0)
(0.000795514 0.0441856 0)
(0.00472933 0.0443861 0)
(0.00927382 0.0449299 0)
(0.0144869 0.0458001 0)
(0.0205553 0.0467914 0)
(0.0271753 0.0478837 0)
(0.0354813 0.0484253 0)
(0.0428302 0.0489438 0)
(0.0545223 0.0470565 0)
(0.0602308 0.0454147 0)
(0.0756535 0.0385128 0)
(0.0748799 0.0323696 0)
(0.0913462 0.0169418 0)
(0.0744822 0.00680124 0)
(0.0899247 -0.0122777 0)
(0.0458982 -0.0211795 0)
(0.0700166 -0.0395698 0)
(-0.0058348 -0.0414992 0)
(0.0451668 -0.10568 0)
(-0.05738 -0.281063 0)
(0.0287104 -0.485515 0)
(-0.00483356 0.0341803 0)
(-0.0122611 0.0519307 0)
(-0.0153562 0.0562012 0)
(-0.0154762 0.0524708 0)
(-0.0141947 0.0501083 0)
(-0.0118948 0.0467889 0)
(-0.00933962 0.0444306 0)
(-0.00628158 0.0426202 0)
(-0.0029163 0.0413724 0)
(0.000953055 0.0405793 0)
(0.00523284 0.0401978 0)
(0.0100941 0.0401046 0)
(0.0154549 0.0402908 0)
(0.0216276 0.0404999 0)
(0.0279727 0.0408916 0)
(0.0359996 0.0406087 0)
(0.0422991 0.040629 0)
(0.0529472 0.038351 0)
(0.0565522 0.0370197 0)
(0.0700457 0.0311205 0)
(0.0660934 0.0271824 0)
(0.0817581 0.016009 0)
(0.0615031 0.0103394 0)
(0.0813829 -0.00212919 0)
(0.0342945 -0.00773154 0)
(0.0694855 -0.0198803 0)
(-0.0130486 -0.0276008 0)
(0.0597609 -0.0814455 0)
(-0.0691581 -0.264377 0)
(0.0410126 -0.497608 0)
(-0.0021548 0.0420486 0)
(-0.0145573 0.0583551 0)
(-0.014787 0.0592971 0)
(-0.0189786 0.0534818 0)
(-0.0158887 0.0480714 0)
(-0.0145885 0.0436742 0)
(-0.0108748 0.0409132 0)
(-0.00740887 0.0384795 0)
(-0.00327766 0.037084 0)
(0.00109179 0.0357293 0)
(0.00589668 0.0351356 0)
(0.0111753 0.034409 0)
(0.0167495 0.0343092 0)
(0.0232336 0.0338231 0)
(0.0293031 0.0339047 0)
(0.0374512 0.0331133 0)
(0.0427881 0.0329455 0)
(0.0532541 0.0309253 0)
(0.0550312 0.0298478 0)
(0.0684 0.025901 0)
(0.0617706 0.0230345 0)
(0.0788878 0.0167011 0)
(0.0558886 0.012401 0)
(0.0814264 0.0069559 0)
(0.0320255 0.000576413 0)
(0.077516 -0.00244085 0)
(-0.00968919 -0.0214533 0)
(0.0830673 -0.0561583 0)
(-0.0580792 -0.236531 0)
(0.0676406 -0.491842 0)
(-0.0295715 0.062474 0)
(-0.0335283 0.0576669 0)
(-0.0307285 0.0608424 0)
(-0.0252193 0.0473835 0)
(-0.0175437 0.0454134 0)
(-0.0113817 0.0401501 0)
(-0.0058749 0.0374142 0)
(0.000119729 0.0350063 0)
(0.0047886 0.0332356 0)
(0.0108921 0.0315941 0)
(0.015729 0.030506 0)
(0.0224678 0.0292647 0)
(0.0276029 0.0287328 0)
(0.0354442 0.0275591 0)
(0.0405025 0.0274654 0)
(0.0501148 0.0259888 0)
(0.0536338 0.0261449 0)
(0.0660878 0.0238524 0)
(0.0650165 0.0239511 0)
(0.0817891 0.0206103 0)
(0.0712587 0.0201678 0)
(0.0947771 0.0161368 0)
(0.067179 0.0144017 0)
(0.104029 0.012805 0)
(0.0497975 0.00697004 0)
(0.113223 0.00966982 0)
(0.0207874 -0.0193748 0)
(0.126491 -0.0509004 0)
(-0.00710575 -0.230724 0)
(0.114266 -0.502813 0)
(0.0172958 0.0943408 0)
(-0.0164647 0.0504899 0)
(0.0152036 0.0530943 0)
(0.00527852 0.0409339 0)
(0.0188612 0.0353579 0)
(0.02287 0.0304678 0)
(0.032353 0.0287691 0)
(0.0403 0.0258507 0)
(0.0485533 0.0251263 0)
(0.058869 0.0225957 0)
(0.0656495 0.0227103 0)
(0.0785539 0.0203307 0)
(0.0828823 0.0209197 0)
(0.0993661 0.0186603 0)
(0.0997639 0.0193802 0)
(0.121363 0.0174599 0)
(0.115567 0.0177277 0)
(0.144472 0.016569 0)
(0.128959 0.0155232 0)
(0.168276 0.0159067 0)
(0.137892 0.0123487 0)
(0.192306 0.015538 0)
(0.139916 0.00790896 0)
(0.216752 0.0154227 0)
(0.134192 0.00236345 0)
(0.242435 0.0115117 0)
(0.118003 -0.0167785 0)
(0.254524 -0.0643798 0)
(0.0656571 -0.223545 0)
(0.177881 -0.462383 0)
(0.0746365 0.0597024 0)
(0.101626 0.049749 0)
(0.165046 0.037244 0)
(0.216856 0.0326103 0)
(0.238024 0.0271514 0)
(0.286303 0.0233558 0)
(0.293587 0.0200109 0)
(0.340646 0.0177949 0)
(0.336279 0.0153884 0)
(0.386021 0.0140661 0)
(0.370934 0.0121661 0)
(0.425727 0.0115052 0)
(0.399592 0.00984576 0)
(0.461641 0.00966434 0)
(0.423574 0.00813195 0)
(0.494975 0.00827448 0)
(0.443567 0.00684935 0)
(0.526519 0.0071329 0)
(0.459767 0.0058964 0)
(0.556701 0.00606338 0)
(0.471931 0.00524064 0)
(0.585702 0.00485583 0)
(0.479575 0.00487925 0)
(0.613841 0.00314111 0)
(0.482484 0.00481977 0)
(0.639802 -4.52235e-05 0)
(0.468344 0.00305233 0)
(0.61918 -0.0169249 0)
(0.313716 -0.033207 0)
(0.396977 -0.0967944 0)
)
;

boundaryField
{
    movingWall
    {
        type            fixedValue;
        value           uniform (1 0 0);
    }
    fixedWalls
    {
        type            noSlip;
    }
    frontAndBack
    {
        type            empty;
    }
}


// ************************************************************************* //
