/*--------------------------------*- C++ -*----------------------------------*\
| =========                 |                                                 |
| \\      /  F ield         | OpenFOAM: The Open Source CFD Toolbox           |
|  \\    /   O peration     | Version:  2406                                  |
|   \\  /    A nd           | Website:  www.openfoam.com                      |
|    \\/     M anipulation  |                                                 |
\*---------------------------------------------------------------------------*/
FoamFile
{
    version     2.0;
    format      ascii;
    arch        "LSB;label=32;scalar=64";
    class       volVectorField;
    location    "23.15";
    object      Uold;
}
// * * * * * * * * * * * * * * * * * * * * * * * * * * * * * * * * * * * * * //

dimensions      [0 1 -1 0 0 0 0];

internalField   nonuniform List<vector> 
3600
(
(6.02961e-08 -1.78361e-06 0)
(0.000117706 -5.63199e-05 0)
(0.000345452 -8.15744e-05 0)
(0.000581161 -8.12262e-05 0)
(0.000795058 -6.44949e-05 0)
(0.000932738 -4.17937e-05 0)
(0.00100273 -1.93999e-05 0)
(0.000987789 1.12646e-06 0)
(0.000904481 1.78449e-05 0)
(0.000747667 3.22128e-05 0)
(0.000528036 4.40192e-05 0)
(0.000239942 5.6052e-05 0)
(-0.000118997 6.97941e-05 0)
(-0.00056498 8.90689e-05 0)
(-0.00111854 0.000116127 0)
(-0.0018099 0.000154077 0)
(-0.00267308 0.000203808 0)
(-0.00374336 0.00026602 0)
(-0.00505342 0.000339278 0)
(-0.00662759 0.000421764 0)
(-0.00847971 0.00050985 0)
(-0.0106061 0.000599251 0)
(-0.012984 0.000683816 0)
(-0.0155635 0.000756429 0)
(-0.0182676 0.000808125 0)
(-0.0209866 0.000828853 0)
(-0.0235828 0.000807071 0)
(-0.0258928 0.000731431 0)
(-0.0277397 0.000592137 0)
(-0.028944 0.000384104 0)
(-0.0293423 0.000108869 0)
(-0.0288004 -0.00022321 0)
(-0.0272347 -0.000593048 0)
(-0.0246203 -0.000973266 0)
(-0.0210083 -0.00133085 0)
(-0.0165233 -0.00163008 0)
(-0.0113714 -0.00183708 0)
(-0.00581965 -0.0019245 0)
(-0.000190454 -0.00187652 0)
(0.00518078 -0.00169294 0)
(0.0099621 -0.00139111 0)
(0.0138834 -0.00100537 0)
(0.0167456 -0.000581398 0)
(0.018473 -0.000169302 0)
(0.0190869 0.000187774 0)
(0.0187312 0.000459805 0)
(0.0175982 0.000636454 0)
(0.0159408 0.000722667 0)
(0.0139747 0.000736643 0)
(0.0119175 0.000698978 0)
(0.0098946 0.000632042 0)
(0.00802825 0.000551171 0)
(0.00633737 0.000471208 0)
(0.00487092 0.000397288 0)
(0.00357931 0.000337802 0)
(0.00248532 0.000285971 0)
(0.0015274 0.00024257 0)
(0.000761795 0.000176953 0)
(0.00020411 8.82378e-05 0)
(-3.76853e-05 -4.15343e-05 0)
(5.47345e-05 -0.000116486 0)
(0.000355862 -0.000351402 0)
(0.000825564 -0.000446599 0)
(0.00128009 -0.000420873 0)
(0.00166526 -0.000316414 0)
(0.00188088 -0.000169222 0)
(0.00192176 -9.96555e-06 0)
(0.00174731 0.000154317 0)
(0.00136552 0.000312756 0)
(0.000755379 0.000471505 0)
(-8.4386e-05 0.000630134 0)
(-0.00117864 0.000801962 0)
(-0.0025522 0.000995512 0)
(-0.00425131 0.00122876 0)
(-0.00633187 0.00151274 0)
(-0.00886229 0.00185989 0)
(-0.0119132 0.00227128 0)
(-0.0155465 0.00274321 0)
(-0.0198056 0.00325962 0)
(-0.0246989 0.00379803 0)
(-0.0301924 0.00432494 0)
(-0.0361956 0.00480064 0)
(-0.0425603 0.00517659 0)
(-0.0490762 0.00540071 0)
(-0.0554838 0.00541845 0)
(-0.0614848 0.00518103 0)
(-0.066768 0.00464995 0)
(-0.071027 0.0038056 0)
(-0.0739865 0.00265003 0)
(-0.0754146 0.00121119 0)
(-0.0751415 -0.000458896 0)
(-0.0730626 -0.00228416 0)
(-0.0691519 -0.00416966 0)
(-0.063459 -0.00600425 0)
(-0.0561209 -0.00766855 0)
(-0.047353 -0.00904066 0)
(-0.0374593 -0.0100081 0)
(-0.0268118 -0.0104774 0)
(-0.0158539 -0.0103893 0)
(-0.00505872 -0.00972925 0)
(0.00507739 -0.00853801 0)
(0.0141017 -0.00691307 0)
(0.0216127 -0.00500178 0)
(0.0273409 -0.00298452 0)
(0.0311323 -0.00104639 0)
(0.0330185 0.000649419 0)
(0.0331455 0.00199098 0)
(0.0318195 0.00292613 0)
(0.0293743 0.00346703 0)
(0.0262172 0.00366834 0)
(0.0226649 0.00361482 0)
(0.0190422 0.00339014 0)
(0.0155112 0.0030772 0)
(0.0122517 0.00272972 0)
(0.0092683 0.00239695 0)
(0.00665072 0.00207589 0)
(0.00433525 0.00176963 0)
(0.00243757 0.00138449 0)
(0.000955911 0.000901695 0)
(0.00011462 0.000218658 0)
(8.47068e-05 -0.00035268 0)
(0.000467564 -0.000829427 0)
(0.00102354 -0.00099899 0)
(0.00151444 -0.000901567 0)
(0.00187521 -0.000635957 0)
(0.00198243 -0.000263338 0)
(0.00181554 0.000151925 0)
(0.00131333 0.000598553 0)
(0.000461584 0.00105447 0)
(-0.000784042 0.00153345 0)
(-0.00245272 0.00203678 0)
(-0.00459797 0.00259333 0)
(-0.007279 0.00322326 0)
(-0.0105758 0.00396334 0)
(-0.0145787 0.00483463 0)
(-0.0193805 0.00585498 0)
(-0.0250626 0.00701416 0)
(-0.031672 0.00828389 0)
(-0.0392066 0.00960437 0)
(-0.0475915 0.010896 0)
(-0.056675 0.0120547 0)
(-0.0662197 0.0129664 0)
(-0.0759217 0.0135106 0)
(-0.0854257 0.0135786 0)
(-0.0943615 0.0130825 0)
(-0.102366 0.0119694 0)
(-0.109114 0.0102235 0)
(-0.114323 0.0078698 0)
(-0.117773 0.00496798 0)
(-0.119292 0.00161112 0)
(-0.118769 -0.00208161 0)
(-0.116142 -0.00596527 0)
(-0.111406 -0.00987554 0)
(-0.10461 -0.0136289 0)
(-0.0958691 -0.0170311 0)
(-0.0853642 -0.0198819 0)
(-0.0733582 -0.0219908 0)
(-0.0601871 -0.0231897 0)
(-0.0462747 -0.0233573 0)
(-0.0321017 -0.0224368 0)
(-0.0182085 -0.0204591 0)
(-0.00513285 -0.0175495 0)
(0.00659716 -0.0139288 0)
(0.0165518 -0.00989185 0)
(0.0243934 -0.00577305 0)
(0.0299684 -0.00190133 0)
(0.0332539 0.00144884 0)
(0.0344324 0.00409076 0)
(0.0337718 0.00594794 0)
(0.0316895 0.00704465 0)
(0.0285711 0.0074893 0)
(0.0248647 0.00743184 0)
(0.0208658 0.00704138 0)
(0.0168976 0.00645882 0)
(0.0130698 0.00580428 0)
(0.00957652 0.00511491 0)
(0.00639541 0.00440053 0)
(0.00372059 0.00352766 0)
(0.00154307 0.00241415 0)
(0.000238515 0.000853835 0)
(9.22061e-05 -0.000604945 0)
(0.000463805 -0.00129863 0)
(0.000955873 -0.00149099 0)
(0.00130993 -0.00125407 0)
(0.00145741 -0.000755934 0)
(0.00126709 -7.36839e-05 0)
(0.000700583 0.000698173 0)
(-0.000324264 0.00155203 0)
(-0.00185408 0.00245739 0)
(-0.00396376 0.00343973 0)
(-0.00672242 0.00450423 0)
(-0.0102205 0.00569779 0)
(-0.0145597 0.00705199 0)
(-0.0198536 0.00861813 0)
(-0.0262175 0.0104158 0)
(-0.0337431 0.0124483 0)
(-0.0424811 0.0146651 0)
(-0.0524046 0.0169781 0)
(-0.0634006 0.0192464 0)
(-0.0752508 0.0213014 0)
(-0.087652 0.0229509 0)
(-0.100231 0.0240124 0)
(-0.112592 0.0243265 0)
(-0.12434 0.0237819 0)
(-0.13512 0.0223177 0)
(-0.144622 0.0199278 0)
(-0.15259 0.0166496 0)
(-0.158813 0.0125603 0)
(-0.163125 0.00776562 0)
(-0.165392 0.00239942 0)
(-0.16551 -0.00338269 0)
(-0.163406 -0.00939896 0)
(-0.159037 -0.0154452 0)
(-0.152396 -0.02129 0)
(-0.143528 -0.0266819 0)
(-0.13253 -0.0313509 0)
(-0.119582 -0.0350266 0)
(-0.104945 -0.0374531 0)
(-0.0889867 -0.0384222 0)
(-0.0721657 -0.0377995 0)
(-0.0550413 -0.0355628 0)
(-0.0382196 -0.0318197 0)
(-0.0223419 -0.0268217 0)
(-0.007989 -0.0209428 0)
(0.00433005 -0.0146438 0)
(0.014284 -0.00841001 0)
(0.0216804 -0.00268632 0)
(0.0265518 0.00217901 0)
(0.0290437 0.00597325 0)
(0.0294945 0.00862817 0)
(0.0282596 0.0102091 0)
(0.0258178 0.0108777 0)
(0.0225357 0.0108535 0)
(0.0188495 0.0103568 0)
(0.0149767 0.00958475 0)
(0.0112329 0.00864279 0)
(0.00766688 0.00756393 0)
(0.0045683 0.00620746 0)
(0.00194884 0.00439172 0)
(0.000324852 0.0017626 0)
(8.29905e-05 -0.000856383 0)
(0.000367354 -0.00171027 0)
(0.000675844 -0.00185114 0)
(0.000757472 -0.00139188 0)
(0.000537971 -0.000573551 0)
(-0.000113706 0.000521162 0)
(-0.00126124 0.00177397 0)
(-0.00300844 0.00318988 0)
(-0.00544332 0.00473407 0)
(-0.008675 0.00644852 0)
(-0.0128205 0.00834488 0)
(-0.0180091 0.0104893 0)
(-0.0243848 0.0129205 0)
(-0.0320814 0.0156915 0)
(-0.0412145 0.0187963 0)
(-0.0518312 0.0221881 0)
(-0.0638977 0.0257334 0)
(-0.0772582 0.0292425 0)
(-0.0916513 0.0324643 0)
(-0.106713 0.0351365 0)
(-0.122031 0.0370049 0)
(-0.137177 0.0378683 0)
(-0.151752 0.0375851 0)
(-0.165397 0.0360871 0)
(-0.177814 0.0333641 0)
(-0.188749 0.0294604 0)
(-0.198001 0.0244565 0)
(-0.2054 0.0184665 0)
(-0.210813 0.0116256 0)
(-0.214122 0.00409346 0)
(-0.215235 -0.00395163 0)
(-0.214065 -0.0123041 0)
(-0.210544 -0.0207332 0)
(-0.204613 -0.0289728 0)
(-0.196242 -0.0367256 0)
(-0.185432 -0.0436598 0)
(-0.17225 -0.0494255 0)
(-0.156838 -0.0536678 0)
(-0.139456 -0.0560668 0)
(-0.120485 -0.0563709 0)
(-0.10046 -0.0544543 0)
(-0.0800309 -0.0503527 0)
(-0.0599547 -0.0443011 0)
(-0.0409947 -0.0367232 0)
(-0.0238767 -0.0282004 0)
(-0.00915219 -0.0193891 0)
(0.00279882 -0.010933 0)
(0.0118646 -0.00337187 0)
(0.0180897 0.00291418 0)
(0.0217441 0.00773239 0)
(0.0231413 0.0110646 0)
(0.0227514 0.0130432 0)
(0.0209646 0.013897 0)
(0.0182806 0.0139025 0)
(0.0149967 0.0133199 0)
(0.0115327 0.0123343 0)
(0.00801949 0.0110084 0)
(0.00484708 0.00921791 0)
(0.00208187 0.00666532 0)
(0.000348208 0.00283508 0)
(6.23432e-05 -0.00102675 0)
(0.000192273 -0.00191317 0)
(0.000204141 -0.00189009 0)
(-0.000117778 -0.00110693 0)
(-0.000855333 0.000130506 0)
(-0.00213298 0.0017494 0)
(-0.00405035 0.00361984 0)
(-0.00673504 0.00576945 0)
(-0.010326 0.00816429 0)
(-0.0149688 0.0108663 0)
(-0.0208327 0.0138935 0)
(-0.0280805 0.0173259 0)
(-0.036886 0.0211936 0)
(-0.0473729 0.0255222 0)
(-0.0596114 0.0302383 0)
(-0.073546 0.0351973 0)
(-0.0890047 0.0401417 0)
(-0.10567 0.0447607 0)
(-0.123139 0.0487064 0)
(-0.140945 0.0516661 0)
(-0.158629 0.0533818 0)
(-0.175757 0.0536851 0)
(-0.191956 0.0524849 0)
(-0.206907 0.0497699 0)
(-0.220363 0.0455841 0)
(-0.232126 0.0400217 0)
(-0.242062 0.0332053 0)
(-0.250071 0.0252837 0)
(-0.256092 0.0164166 0)
(-0.260071 0.00677911 0)
(-0.261969 -0.00344462 0)
(-0.261729 -0.0140493 0)
(-0.259284 -0.0248077 0)
(-0.254539 -0.0354539 0)
(-0.247391 -0.0456809 0)
(-0.237727 -0.0551286 0)
(-0.225457 -0.0633922 0)
(-0.210537 -0.0700284 0)
(-0.193029 -0.0745923 0)
(-0.173126 -0.0766763 0)
(-0.151221 -0.0759821 0)
(-0.127905 -0.072383 0)
(-0.103988 -0.0659984 0)
(-0.0804147 -0.0572189 0)
(-0.0581918 -0.0467016 0)
(-0.0382085 -0.0352805 0)
(-0.0211574 -0.0238477 0)
(-0.00738423 -0.0132004 0)
(0.00302902 -0.00394413 0)
(0.0103033 0.00356709 0)
(0.0147494 0.00920635 0)
(0.0168498 0.0130536 0)
(0.0170193 0.0153175 0)
(0.0157992 0.0163031 0)
(0.0135458 0.0163092 0)
(0.0107566 0.0155918 0)
(0.00764494 0.0142414 0)
(0.00468644 0.0121586 0)
(0.00202205 0.00893449 0)
(0.0003348 0.00390497 0)
(3.23089e-05 -0.00111631 0)
(-5.18774e-05 -0.00187433 0)
(-0.000435041 -0.00155161 0)
(-0.00127397 -0.00032677 0)
(-0.00266359 0.0014481 0)
(-0.00471966 0.00372973 0)
(-0.00759087 0.00639034 0)
(-0.0114303 0.00948825 0)
(-0.016435 0.0129938 0)
(-0.0227833 0.016989 0)
(-0.0306931 0.0214935 0)
(-0.0403418 0.0265853 0)
(-0.0519031 0.0322564 0)
(-0.065441 0.0384602 0)
(-0.0809241 0.0450039 0)
(-0.0981413 0.0516015 0)
(-0.116755 0.0578541 0)
(-0.136292 0.0633459 0)
(-0.156239 0.0676751 0)
(-0.176062 0.070528 0)
(-0.195277 0.0716807 0)
(-0.21345 0.0710216 0)
(-0.23024 0.0685267 0)
(-0.245383 0.0642578 0)
(-0.258717 0.0583305 0)
(-0.270149 0.0509058 0)
(-0.279666 0.0421608 0)
(-0.28729 0.0322838 0)
(-0.293078 0.0214555 0)
(-0.29708 0.00985484 0)
(-0.299342 -0.00234753 0)
(-0.299861 -0.0149726 0)
(-0.298598 -0.0278293 0)
(-0.295448 -0.0406902 0)
(-0.290254 -0.0532831 0)
(-0.282795 -0.0652668 0)
(-0.272819 -0.0762281 0)
(-0.260062 -0.0856736 0)
(-0.244312 -0.0930541 0)
(-0.22546 -0.097796 0)
(-0.203597 -0.0993775 0)
(-0.179071 -0.097411 0)
(-0.152564 -0.0917611 0)
(-0.125067 -0.0826297 0)
(-0.0978376 -0.0706182 0)
(-0.0721948 -0.056679 0)
(-0.0493434 -0.0419911 0)
(-0.0300985 -0.0277277 0)
(-0.0148431 -0.0148601 0)
(-0.00347137 -0.00400753 0)
(0.00435496 0.00454539 0)
(0.00919396 0.010817 0)
(0.0115452 0.014995 0)
(0.0120173 0.01741 0)
(0.0110353 0.0183891 0)
(0.00916094 0.0182489 0)
(0.00668755 0.0171031 0)
(0.00415744 0.0148779 0)
(0.00179145 0.0110744 0)
(0.000286681 0.00491064 0)
(-1.06569e-05 -0.00105287 0)
(-0.000377062 -0.00146011 0)
(-0.00126004 -0.000672634 0)
(-0.0027339 0.00112979 0)
(-0.00491405 0.00357897 0)
(-0.00790705 0.00668556 0)
(-0.0119239 0.0103382 0)
(-0.0171425 0.0146305 0)
(-0.0238213 0.0195367 0)
(-0.0321616 0.0251517 0)
(-0.0424149 0.0314812 0)
(-0.0547391 0.0385702 0)
(-0.0692598 0.0463255 0)
(-0.0859192 0.0545722 0)
(-0.104528 0.0629524 0)
(-0.124681 0.0710189 0)
(-0.145871 0.0782471 0)
(-0.167479 0.0841563 0)
(-0.1889 0.0883352 0)
(-0.209542 0.0905079 0)
(-0.228915 0.0905199 0)
(-0.24662 0.0883536 0)
(-0.262405 0.0840918 0)
(-0.27613 0.0779063 0)
(-0.28779 0.0700121 0)
(-0.297456 0.0606512 0)
(-0.305274 0.0500559 0)
(-0.311414 0.0384443 0)
(-0.31606 0.0260008 0)
(-0.319371 0.0128862 0)
(-0.321475 -0.000767253 0)
(-0.32244 -0.0148346 0)
(-0.322273 -0.0291928 0)
(-0.320891 -0.0436917 0)
(-0.318128 -0.0581404 0)
(-0.313712 -0.0722739 0)
(-0.30728 -0.0857371 0)
(-0.298384 -0.0980577 0)
(-0.286538 -0.108649 0)
(-0.271276 -0.116818 0)
(-0.252258 -0.121824 0)
(-0.229377 -0.12296 0)
(-0.202907 -0.119698 0)
(-0.173582 -0.111836 0)
(-0.142646 -0.0996602 0)
(-0.111732 -0.0840129 0)
(-0.0826513 -0.0662481 0)
(-0.056985 -0.0479819 0)
(-0.0357991 -0.0307626 0)
(-0.019402 -0.0157178 0)
(-0.00754385 -0.00345561 0)
(0.000436441 0.00591957 0)
(0.0052132 0.0125781 0)
(0.00754049 0.0168972 0)
(0.00796667 0.0192473 0)
(0.00713629 0.020008 0)
(0.0054326 0.0193197 0)
(0.0034509 0.0171338 0)
(0.00149033 0.0128934 0)
(0.000229409 0.00574717 0)
(-6.69666e-05 -0.000828089 0)
(-0.000783638 -0.000631001 0)
(-0.00226678 0.000803215 0)
(-0.00448434 0.00333155 0)
(-0.00758368 0.00661139 0)
(-0.011663 0.0107335 0)
(-0.0170075 0.0156151 0)
(-0.0238144 0.0213833 0)
(-0.0323999 0.0280096 0)
(-0.0429663 0.0355851 0)
(-0.0557695 0.0440721 0)
(-0.0708966 0.053434 0)
(-0.0883652 0.063434 0)
(-0.107933 0.0737151 0)
(-0.129211 0.0837273 0)
(-0.151583 0.0928693 0)
(-0.174372 0.100524 0)
(-0.196827 0.106188 0)
(-0.218276 0.109488 0)
(-0.238118 0.110239 0)
(-0.25593 0.108413 0)
(-0.271442 0.104146 0)
(-0.284582 0.0976717 0)
(-0.295407 0.0892967 0)
(-0.304111 0.0793398 0)
(-0.310936 0.0681126 0)
(-0.31618 0.0558818 0)
(-0.320124 0.0428715 0)
(-0.323042 0.0292476 0)
(-0.325158 0.0151348 0)
(-0.326659 0.000614425 0)
(-0.32766 -0.0142524 0)
(-0.328222 -0.0294196 0)
(-0.328314 -0.0448275 0)
(-0.327819 -0.0603897 0)
(-0.326499 -0.0759563 0)
(-0.323993 -0.091291 0)
(-0.319789 -0.106027 0)
(-0.31325 -0.119645 0)
(-0.303631 -0.131446 0)
(-0.290174 -0.14057 0)
(-0.272217 -0.146048 0)
(-0.249389 -0.146921 0)
(-0.22179 -0.142428 0)
(-0.190192 -0.132245 0)
(-0.156091 -0.116711 0)
(-0.121632 -0.0969808 0)
(-0.0892154 -0.0749181 0)
(-0.0609862 -0.0527509 0)
(-0.0382275 -0.0324633 0)
(-0.0212097 -0.0153677 0)
(-0.00932854 -0.00192177 0)
(-0.00168766 0.00796684 0)
(0.00272177 0.0147526 0)
(0.00467339 0.0188976 0)
(0.00495653 0.020879 0)
(0.00407752 0.0208903 0)
(0.00269107 0.0189197 0)
(0.00117218 0.0143937 0)
(0.000171703 0.00643378 0)
(-0.000142897 -0.00035943 0)
(-0.00129038 0.000752405 0)
(-0.00348182 0.00303595 0)
(-0.00655519 0.00645283 0)
(-0.0107032 0.0107403 0)
(-0.0160154 0.0160949 0)
(-0.0228587 0.0224679 0)
(-0.0314375 0.0300098 0)
(-0.0421115 0.0386724 0)
(-0.0550512 0.0485116 0)
(-0.0704728 0.0593998 0)
(-0.0883294 0.0711565 0)
(-0.108468 0.0833424 0)
(-0.130408 0.0953806 0)
(-0.153535 0.106528 0)
(-0.177017 0.116057 0)
(-0.200032 0.123308 0)
(-0.221744 0.12782 0)
(-0.241497 0.129335 0)
(-0.258795 0.127843 0)
(-0.273408 0.123521 0)
(-0.285296 0.116702 0)
(-0.294635 0.107789 0)
(-0.301699 0.0972137 0)
(-0.306864 0.0853669 0)
(-0.310501 0.0725904 0)
(-0.312991 0.059146 0)
(-0.314656 0.0452301 0)
(-0.31579 0.0309663 0)
(-0.316615 0.0164301 0)
(-0.317322 0.00164897 0)
(-0.318039 -0.0133737 0)
(-0.318858 -0.0286571 0)
(-0.319803 -0.0442192 0)
(-0.320844 -0.0600701 0)
(-0.321844 -0.0761802 0)
(-0.322561 -0.092459 0)
(-0.322581 -0.108706 0)
(-0.321311 -0.124571 0)
(-0.317945 -0.139492 0)
(-0.311501 -0.152667 0)
(-0.300882 -0.163036 0)
(-0.285056 -0.169349 0)
(-0.263271 -0.170298 0)
(-0.235376 -0.16479 0)
(-0.202089 -0.152276 0)
(-0.165197 -0.133134 0)
(-0.127417 -0.108887 0)
(-0.0919378 -0.0821114 0)
(-0.0615326 -0.0558038 0)
(-0.0377729 -0.0325236 0)
(-0.020686 -0.0136352 0)
(-0.00932539 0.000589549 0)
(-0.00235697 0.0106429 0)
(0.00135125 0.0171408 0)
(0.00284322 0.0207312 0)
(0.00281585 0.0217194 0)
(0.00201815 0.0201664 0)
(0.000910332 0.0155304 0)
(0.000131057 0.00695079 0)
(-0.000237429 0.000373904 0)
(-0.00189118 0.00273618 0)
(-0.0048885 0.00607751 0)
(-0.00891383 0.0105495 0)
(-0.0142209 0.0160342 0)
(-0.0208878 0.0228535 0)
(-0.0293645 0.0309912 0)
(-0.0398412 0.040599 0)
(-0.0526969 0.0515816 0)
(-0.0680234 0.0639124 0)
(-0.0859413 0.0773141 0)
(-0.106203 0.0913946 0)
(-0.128429 0.105464 0)
(-0.151872 0.11871 0)
(-0.175691 0.130221 0)
(-0.198876 0.139202 0)
(-0.220532 0.145035 0)
(-0.239862 0.147404 0)
(-0.256373 0.146275 0)
(-0.269812 0.141899 0)
(-0.280246 0.1347 0)
(-0.287915 0.125213 0)
(-0.293235 0.113976 0)
(-0.296655 0.101488 0)
(-0.298652 0.0881529 0)
(-0.299635 0.0742872 0)
(-0.299978 0.0601023 0)
(-0.299956 0.0457371 0)
(-0.299807 0.0312582 0)
(-0.299694 0.0166919 0)
(-0.299757 0.00202334 0)
(-0.300094 -0.0127793 0)
(-0.300796 -0.02777 0)
(-0.301921 -0.0430071 0)
(-0.303514 -0.0585571 0)
(-0.305563 -0.0744745 0)
(-0.307994 -0.0907904 0)
(-0.310602 -0.107474 0)
(-0.313018 -0.12439 0)
(-0.314624 -0.141224 0)
(-0.314529 -0.157411 0)
(-0.311538 -0.172055 0)
(-0.304238 -0.183894 0)
(-0.291158 -0.191339 0)
(-0.271093 -0.192648 0)
(-0.243513 -0.186264 0)
(-0.209025 -0.17132 0)
(-0.169674 -0.148197 0)
(-0.128886 -0.118927 0)
(-0.0907579 -0.0870078 0)
(-0.0588287 -0.0564945 0)
(-0.0348015 -0.0304792 0)
(-0.0183581 -0.0103328 0)
(-0.00797795 0.00417976 0)
(-0.00206032 0.013835 0)
(0.000839766 0.0195574 0)
(0.00171742 0.0218648 0)
(0.00149003 0.0209644 0)
(0.000730966 0.0164048 0)
(0.000110943 0.0073765 0)
(-0.000356434 0.0014638 0)
(-0.00259804 0.00546026 0)
(-0.00649589 0.0100778 0)
(-0.011561 0.0157792 0)
(-0.0181221 0.0226646 0)
(-0.0262382 0.0311919 0)
(-0.0364339 0.0413632 0)
(-0.0488553 0.0532958 0)
(-0.0638656 0.0668051 0)
(-0.0814227 0.0817191 0)
(-0.101493 0.0975431 0)
(-0.12357 0.113613 0)
(-0.14702 0.128964 0)
(-0.170826 0.142571 0)
(-0.193975 0.153419 0)
(-0.215374 0.160751 0)
(-0.234207 0.16412 0)
(-0.249874 0.163485 0)
(-0.262194 0.159131 0)
(-0.27125 0.151608 0)
(-0.27743 0.141574 0)
(-0.281218 0.129709 0)
(-0.283195 0.116606 0)
(-0.283876 0.102755 0)
(-0.283738 0.0885026 0)
(-0.283127 0.0740845 0)
(-0.282329 0.0596299 0)
(-0.281514 0.0452045 0)
(-0.280821 0.0308171 0)
(-0.280321 0.0164538 0)
(-0.280087 0.00207547 0)
(-0.280163 -0.0123615 0)
(-0.280617 -0.0269157 0)
(-0.28151 -0.0416498 0)
(-0.282928 -0.0566419 0)
(-0.284941 -0.0719777 0)
(-0.287617 -0.0877519 0)
(-0.290955 -0.104049 0)
(-0.294861 -0.120913 0)
(-0.299046 -0.13829 0)
(-0.302959 -0.155941 0)
(-0.305676 -0.173327 0)
(-0.305867 -0.189489 0)
(-0.301814 -0.202955 0)
(-0.291606 -0.211754 0)
(-0.273507 -0.213605 0)
(-0.246525 -0.206365 0)
(-0.211073 -0.188731 0)
(-0.169487 -0.161112 0)
(-0.126008 -0.126214 0)
(-0.0858361 -0.0888551 0)
(-0.0532526 -0.054309 0)
(-0.0299067 -0.0262378 0)
(-0.0147849 -0.00553882 0)
(-0.00586476 0.00848625 0)
(-0.00115887 0.0171251 0)
(0.000770754 0.0212426 0)
(0.00112562 0.0213124 0)
(0.000650616 0.0170508 0)
(0.000116439 0.0077392 0)
(-0.000494499 0.00293134 0)
(-0.00338615 0.00895393 0)
(-0.00825199 0.0150567 0)
(-0.0144122 0.0221528 0)
(-0.0222825 0.0306358 0)
(-0.0318892 0.0410958 0)
(-0.0438158 0.0535278 0)
(-0.0581255 0.0679672 0)
(-0.0751226 0.0840869 0)
(-0.0945726 0.101499 0)
(-0.116237 0.119426 0)
(-0.139315 0.136895 0)
(-0.162928 0.15268 0)
(-0.185847 0.165607 0)
(-0.207001 0.174682 0)
(-0.225372 0.179332 0)
(-0.240396 0.17943 0)
(-0.25181 0.175311 0)
(-0.259823 0.167615 0)
(-0.26485 0.157157 0)
(-0.267537 0.14475 0)
(-0.268503 0.131116 0)
(-0.26837 0.116812 0)
(-0.2676 0.102232 0)
(-0.266572 0.0876111 0)
(-0.265503 0.0730771 0)
(-0.264547 0.0586677 0)
(-0.263754 0.0443815 0)
(-0.263161 0.0301849 0)
(-0.262756 0.0160433 0)
(-0.262552 0.00191428 0)
(-0.262546 -0.0122371 0)
(-0.262781 -0.0264518 0)
(-0.2633 -0.0407719 0)
(-0.264197 -0.0552548 0)
(-0.265574 -0.0699745 0)
(-0.267571 -0.0850319 0)
(-0.270314 -0.100553 0)
(-0.273916 -0.11668 0)
(-0.278386 -0.13354 0)
(-0.283569 -0.15118 0)
(-0.289003 -0.169464 0)
(-0.293806 -0.187911 0)
(-0.296555 -0.205521 0)
(-0.295278 -0.22061 0)
(-0.287627 -0.230777 0)
(-0.271307 -0.233102 0)
(-0.244811 -0.224716 0)
(-0.208334 -0.203812 0)
(-0.164575 -0.170877 0)
(-0.118782 -0.129683 0)
(-0.0774096 -0.0867481 0)
(-0.0453623 -0.0488778 0)
(-0.0237362 -0.0197365 0)
(-0.0106291 0.000408154 0)
(-0.00345081 0.0131298 0)
(-0.000166636 0.0197781 0)
(0.000862443 0.0212618 0)
(0.000644784 0.0175699 0)
(0.000142042 0.00812136 0)
(-0.000654738 0.00486244 0)
(-0.00425274 0.0133327 0)
(-0.010136 0.0211278 0)
(-0.0174228 0.0297811 0)
(-0.0266203 0.0400542 0)
(-0.0377023 0.0526501 0)
(-0.051285 0.0675168 0)
(-0.0673068 0.0845463 0)
(-0.0859689 0.103206 0)
(-0.106796 0.12282 0)
(-0.129316 0.142286 0)
(-0.152442 0.16032 0)
(-0.175106 0.175503 0)
(-0.195986 0.186639 0)
(-0.214112 0.192921 0)
(-0.228709 0.19412 0)
(-0.239598 0.190541 0)
(-0.246913 0.182929 0)
(-0.251229 0.172233 0)
(-0.253202 0.159435 0)
(-0.253607 0.14538 0)
(-0.253059 0.130726 0)
(-0.2521 0.115899 0)
(-0.25105 0.101151 0)
(-0.250138 0.0865829 0)
(-0.249428 0.0722138 0)
(-0.248954 0.0580072 0)
(-0.248665 0.0439178 0)
(-0.248529 0.0298926 0)
(-0.248481 0.015896 0)
(-0.248499 0.00189712 0)
(-0.248555 -0.0121194 0)
(-0.248668 -0.0261684 0)
(-0.248863 -0.0402626 0)
(-0.249221 -0.0544259 0)
(-0.249835 -0.0687002 0)
(-0.250856 -0.0831567 0)
(-0.252455 -0.0979086 0)
(-0.25484 -0.113114 0)
(-0.258201 -0.128979 0)
(-0.262676 -0.145718 0)
(-0.268228 -0.163499 0)
(-0.274517 -0.182298 0)
(-0.280713 -0.201715 0)
(-0.285336 -0.220702 0)
(-0.286187 -0.237342 0)
(-0.280489 -0.248726 0)
(-0.265398 -0.251175 0)
(-0.238888 -0.240984 0)
(-0.201015 -0.215787 0)
(-0.155006 -0.176433 0)
(-0.107407 -0.128232 0)
(-0.0660299 -0.0801429 0)
(-0.035969 -0.0401613 0)
(-0.017105 -0.0115379 0)
(-0.00647956 0.00694002 0)
(-0.0013271 0.0171765 0)
(0.000590469 0.0207158 0)
(0.000673941 0.0179586 0)
(0.000182059 0.00854054 0)
(-0.00082474 0.00725559 0)
(-0.00514755 0.0185748 0)
(-0.012052 0.028243 0)
(-0.0204471 0.0385882 0)
(-0.0309298 0.0508044 0)
(-0.0433971 0.0656711 0)
(-0.0584669 0.0830425 0)
(-0.0759112 0.102601 0)
(-0.0957885 0.123547 0)
(-0.117353 0.144862 0)
(-0.139905 0.16511 0)
(-0.162121 0.182743 0)
(-0.18286 0.196273 0)
(-0.200852 0.204652 0)
(-0.215392 0.207427 0)
(-0.226072 0.204841 0)
(-0.233145 0.197667 0)
(-0.237105 0.187007 0)
(-0.238785 0.174002 0)
(-0.23894 0.159668 0)
(-0.238328 0.144758 0)
(-0.237442 0.12977 0)
(-0.236663 0.114955 0)
(-0.236133 0.100405 0)
(-0.235928 0.0861007 0)
(-0.235988 0.0719821 0)
(-0.236263 0.0579703 0)
(-0.23664 0.0440042 0)
(-0.237059 0.0300348 0)
(-0.237435 0.0160397 0)
(-0.237737 0.00200883 0)
(-0.237924 -0.0120508 0)
(-0.238007 -0.0261278 0)
(-0.237995 -0.0402072 0)
(-0.237946 -0.0542799 0)
(-0.237926 -0.0683512 0)
(-0.238063 -0.0824493 0)
(-0.238508 -0.0966456 0)
(-0.23948 -0.111061 0)
(-0.24123 -0.125897 0)
(-0.244042 -0.141416 0)
(-0.248154 -0.157946 0)
(-0.253663 -0.175777 0)
(-0.260341 -0.195025 0)
(-0.267407 -0.215353 0)
(-0.273318 -0.235657 0)
(-0.275623 -0.253697 0)
(-0.271131 -0.26594 0)
(-0.256439 -0.267806 0)
(-0.229111 -0.254621 0)
(-0.189209 -0.223606 0)
(-0.140878 -0.176373 0)
(-0.0922921 -0.120831 0)
(-0.0525993 -0.0686861 0)
(-0.0261121 -0.0287703 0)
(-0.0107831 -0.00227162 0)
(-0.00301589 0.0130286 0)
(0.000154852 0.0195309 0)
(0.000676621 0.0182078 0)
(0.000225121 0.00903001 0)
(-0.00100366 0.0101664 0)
(-0.00605255 0.0247413 0)
(-0.0139527 0.0364514 0)
(-0.023403 0.0486081 0)
(-0.0350772 0.0628919 0)
(-0.0487684 0.0801085 0)
(-0.0650636 0.0999621 0)
(-0.0835355 0.121854 0)
(-0.104078 0.144668 0)
(-0.125675 0.167013 0)
(-0.147445 0.187154 0)
(-0.167922 0.203392 0)
(-0.186028 0.214334 0)
(-0.200696 0.219254 0)
(-0.211599 0.218198 0)
(-0.21874 0.211925 0)
(-0.222761 0.20163 0)
(-0.224402 0.188647 0)
(-0.224606 0.174165 0)
(-0.224082 0.159091 0)
(-0.223456 0.143997 0)
(-0.22303 0.129169 0)
(-0.223002 0.11468 0)
(-0.22335 0.100486 0)
(-0.224038 0.086485 0)
(-0.224926 0.072576 0)
(-0.225926 0.0586713 0)
(-0.226907 0.044718 0)
(-0.22781 0.0306852 0)
(-0.228552 0.0165706 0)
(-0.22911 0.00238557 0)
(-0.229445 -0.0118439 0)
(-0.229567 -0.0260862 0)
(-0.229473 -0.0403069 0)
(-0.229204 -0.0544722 0)
(-0.228795 -0.0685596 0)
(-0.228335 -0.0825572 0)
(-0.227929 -0.09649 0)
(-0.227751 -0.110419 0)
(-0.228024 -0.124489 0)
(-0.229054 -0.138924 0)
(-0.231189 -0.154075 0)
(-0.234778 -0.170366 0)
(-0.24004 -0.188252 0)
(-0.246845 -0.207974 0)
(-0.254456 -0.229273 0)
(-0.261194 -0.25089 0)
(-0.264337 -0.270145 0)
(-0.260188 -0.282681 0)
(-0.244876 -0.282793 0)
(-0.215636 -0.264836 0)
(-0.172981 -0.225838 0)
(-0.122431 -0.169288 0)
(-0.074307 -0.106713 0)
(-0.0384507 -0.0530898 0)
(-0.0168884 -0.0156501 0)
(-0.00554945 0.00667351 0)
(-0.000600791 0.0173852 0)
(0.000593912 0.018187 0)
(0.000262557 0.0095557 0)
(-0.00117177 0.013545 0)
(-0.00689555 0.0317297 0)
(-0.0157095 0.0456092 0)
(-0.0261045 0.0596468 0)
(-0.0388118 0.0760468 0)
(-0.0534956 0.0955833 0)
(-0.070682 0.117758 0)
(-0.089725 0.141634 0)
(-0.11035 0.165751 0)
(-0.131305 0.188355 0)
(-0.151602 0.2075 0)
(-0.169753 0.221476 0)
(-0.184873 0.229162 0)
(-0.196206 0.230306 0)
(-0.203851 0.225518 0)
(-0.208179 0.216039 0)
(-0.210115 0.203364 0)
(-0.210495 0.188902 0)
(-0.210231 0.173743 0)
(-0.209876 0.158586 0)
(-0.209864 0.143768 0)
(-0.210294 0.129369 0)
(-0.211209 0.11531 0)
(-0.212468 0.101461 0)
(-0.213974 0.0876802 0)
(-0.215555 0.0738635 0)
(-0.217123 0.0599387 0)
(-0.218555 0.0458747 0)
(-0.219808 0.0316654 0)
(-0.220812 0.0173293 0)
(-0.22156 0.00289709 0)
(-0.222018 -0.011591 0)
(-0.222202 -0.0260888 0)
(-0.222102 -0.040551 0)
(-0.221751 -0.0549279 0)
(-0.221161 -0.0691811 0)
(-0.220388 -0.0832701 0)
(-0.219487 -0.0971847 0)
(-0.218574 -0.110929 0)
(-0.217803 -0.124579 0)
(-0.217418 -0.138274 0)
(-0.217751 -0.1523 0)
(-0.219219 -0.167063 0)
(-0.222275 -0.183144 0)
(-0.227242 -0.201137 0)
(-0.234098 -0.22146 0)
(-0.242059 -0.243851 0)
(-0.249299 -0.266814 0)
(-0.252641 -0.286991 0)
(-0.24792 -0.298892 0)
(-0.230724 -0.295503 0)
(-0.198379 -0.270161 0)
(-0.152283 -0.220631 0)
(-0.10026 -0.1536 0)
(-0.0548821 -0.0862297 0)
(-0.0252208 -0.0345776 0)
(-0.00922417 -0.00266987 0)
(-0.00181734 0.0138742 0)
(0.000374377 0.0177374 0)
(0.00028508 0.0100863 0)
(-0.00132589 0.0173948 0)
(-0.0076524 0.0395279 0)
(-0.0172676 0.0556894 0)
(-0.0284625 0.0716546 0)
(-0.0419973 0.0901771 0)
(-0.0573887 0.111938 0)
(-0.0750798 0.136186 0)
(-0.0942072 0.161602 0)
(-0.114349 0.186378 0)
(-0.134079 0.208452 0)
(-0.152398 0.22579 0)
(-0.167911 0.236836 0)
(-0.180028 0.240903 0)
(-0.188352 0.238301 0)
(-0.19338 0.230196 0)
(-0.195753 0.218199 0)
(-0.196536 0.203953 0)
(-0.196529 0.188784 0)
(-0.196505 0.173574 0)
(-0.196805 0.158758 0)
(-0.197668 0.144441 0)
(-0.199024 0.130532 0)
(-0.200809 0.116858 0)
(-0.202822 0.103245 0)
(-0.20495 0.0895565 0)
(-0.207024 0.0757057 0)
(-0.208976 0.0616498 0)
(-0.210701 0.0473828 0)
(-0.212178 0.0329234 0)
(-0.213349 0.0183067 0)
(-0.214221 0.00357943 0)
(-0.214768 -0.0112091 0)
(-0.215012 -0.0260028 0)
(-0.214944 -0.0407517 0)
(-0.214592 -0.0553979 0)
(-0.213958 -0.0698975 0)
(-0.213078 -0.0841942 0)
(-0.211973 -0.0982589 0)
(-0.210705 -0.112053 0)
(-0.209357 -0.1256 0)
(-0.208087 -0.138945 0)
(-0.20714 -0.152276 0)
(-0.206876 -0.165889 0)
(-0.207786 -0.180328 0)
(-0.2104 -0.196284 0)
(-0.215175 -0.214576 0)
(-0.2221 -0.235731 0)
(-0.23036 -0.259456 0)
(-0.237749 -0.283788 0)
(-0.240652 -0.304353 0)
(-0.23419 -0.314183 0)
(-0.213744 -0.304614 0)
(-0.176972 -0.268535 0)
(-0.127313 -0.205609 0)
(-0.075526 -0.128832 0)
(-0.0362541 -0.060818 0)
(-0.0142502 -0.0159493 0)
(-0.00363065 0.00843804 0)
(-1.36967e-05 0.0166059 0)
(0.000285721 0.0105442 0)
(-0.00144245 0.021602 0)
(-0.00824375 0.0479408 0)
(-0.0184945 0.0664458 0)
(-0.0302961 0.0843184 0)
(-0.0444067 0.104874 0)
(-0.0601852 0.128647 0)
(-0.0779805 0.154604 0)
(-0.0967307 0.181026 0)
(-0.115907 0.205792 0)
(-0.133985 0.226617 0)
(-0.150048 0.241523 0)
(-0.162889 0.249257 0)
(-0.172263 0.249678 0)
(-0.178123 0.243676 0)
(-0.181277 0.232893 0)
(-0.182516 0.219161 0)
(-0.182912 0.204109 0)
(-0.183124 0.188857 0)
(-0.183735 0.174015 0)
(-0.184874 0.159754 0)
(-0.186618 0.145987 0)
(-0.188781 0.132506 0)
(-0.191253 0.119098 0)
(-0.193814 0.105588 0)
(-0.196367 0.0918651 0)
(-0.198762 0.0778732 0)
(-0.200957 0.0636 0)
(-0.202864 0.049063 0)
(-0.204478 0.0343013 0)
(-0.205751 0.0193633 0)
(-0.2067 0.00430882 0)
(-0.207302 -0.010806 0)
(-0.207585 -0.0259165 0)
(-0.207542 -0.0409711 0)
(-0.207208 -0.0559064 0)
(-0.206581 -0.0706807 0)
(-0.205692 -0.0852307 0)
(-0.204543 -0.0995245 0)
(-0.203166 -0.113499 0)
(-0.20159 -0.127147 0)
(-0.199893 -0.140441 0)
(-0.19822 -0.153476 0)
(-0.196817 -0.166409 0)
(-0.196092 -0.179654 0)
(-0.196581 -0.193819 0)
(-0.19895 -0.209842 0)
(-0.203687 -0.228701 0)
(-0.210846 -0.251072 0)
(-0.219316 -0.276426 0)
(-0.226538 -0.302019 0)
(-0.228071 -0.322007 0)
(-0.21858 -0.327366 0)
(-0.193214 -0.307914 0)
(-0.151132 -0.2568 0)
(-0.0986284 -0.178882 0)
(-0.0506285 -0.0958802 0)
(-0.0207051 -0.0343787 0)
(-0.00620211 0.000505179 0)
(-0.000591333 0.0144919 0)
(0.000258545 0.010864 0)
(-0.0015204 0.0261128 0)
(-0.00865482 0.0568896 0)
(-0.0193545 0.0777922 0)
(-0.0315498 0.097535 0)
(-0.0459621 0.120002 0)
(-0.0617958 0.145542 0)
(-0.0793053 0.172815 0)
(-0.0972692 0.199707 0)
(-0.115101 0.223846 0)
(-0.131263 0.24283 0)
(-0.144998 0.254882 0)
(-0.155344 0.259175 0)
(-0.162403 0.256171 0)
(-0.166417 0.247291 0)
(-0.168401 0.234528 0)
(-0.169169 0.219777 0)
(-0.169702 0.204515 0)
(-0.170465 0.189585 0)
(-0.171843 0.175313 0)
(-0.17379 0.161639 0)
(-0.176274 0.148345 0)
(-0.179052 0.135164 0)
(-0.182007 0.121882 0)
(-0.184931 0.108351 0)
(-0.187758 0.0944952 0)
(-0.190357 0.0802879 0)
(-0.19271 0.065744 0)
(-0.194738 0.0508976 0)
(-0.196447 0.0358043 0)
(-0.197792 0.0205219 0)
(-0.198792 0.005122 0)
(-0.199427 -0.0103336 0)
(-0.199731 -0.0257709 0)