/*--------------------------------*- C++ -*----------------------------------*\
| =========                 |                                                 |
| \\      /  F ield         | OpenFOAM: The Open Source CFD Toolbox           |
|  \\    /   O peration     | Version:  2406                                  |
|   \\  /    A nd           | Website:  www.openfoam.com                      |
|    \\/     M anipulation  |                                                 |
\*---------------------------------------------------------------------------*/
FoamFile
{
    version     2.0;
    format      ascii;
    arch        "LSB;label=32;scalar=64";
    class       surfaceScalarField;
    location    "33.25";
    object      phi;
}
// * * * * * * * * * * * * * * * * * * * * * * * * * * * * * * * * * * * * * //

dimensions      [0 3 -1 0 0 0 0];

oriented        oriented;

internalField   nonuniform List<scalar> 
32512
(
-6.63568e-09
6.54929e-09
3.32182e-08
-3.98538e-08
1.28301e-07
-9.50826e-08
2.70298e-07
-1.41997e-07
4.4601e-07
-1.75711e-07
6.41749e-07
-1.9574e-07
8.44929e-07
-2.0318e-07
1.04477e-06
-1.99843e-07
1.23268e-06
-1.87906e-07
1.40238e-06
-1.69699e-07
1.54992e-06
-1.47542e-07
1.67351e-06
-1.23593e-07
1.77324e-06
-9.97244e-08
1.85067e-06
-7.74329e-08
1.90846e-06
-5.77881e-08
1.94988e-06
-4.14182e-08
1.9784e-06
-2.8527e-08
1.99734e-06
-1.89401e-08
2.00952e-06
-1.21772e-08
2.01703e-06
-7.50726e-09
2.02118e-06
-4.1494e-09
2.02207e-06
-8.97097e-10
2.01919e-06
2.88044e-09
2.01113e-06
8.05994e-09
1.99574e-06
1.53941e-08
1.97035e-06
2.5392e-08
1.93192e-06
3.84263e-08
1.87718e-06
5.47406e-08
1.80269e-06
7.44867e-08
1.70494e-06
9.77583e-08
1.5803e-06
1.24639e-07
1.42509e-06
1.55203e-07
1.23556e-06
1.89538e-07
1.00782e-06
2.27731e-07
7.37978e-07
2.69847e-07
4.22051e-07
3.15926e-07
5.61185e-08
3.65933e-07
-3.6363e-07
4.19749e-07
-8.40809e-07
4.77179e-07
-1.37871e-06
5.37901e-07
-1.98019e-06
6.01478e-07
-2.64754e-06
6.67351e-07
-3.38238e-06
7.34839e-07
-4.18552e-06
8.03139e-07
-5.05686e-06
8.71339e-07
-5.99528e-06
9.38425e-07
-6.99858e-06
1.0033e-06
-8.06337e-06
1.06479e-06
-9.18506e-06
1.12169e-06
-1.03578e-05
1.17277e-06
-1.15746e-05
1.2168e-06
-1.28272e-05
1.25257e-06
-1.41061e-05
1.27891e-06
-1.54009e-05
1.29474e-06
-1.66999e-05
1.29903e-06
-1.79908e-05
1.29089e-06
-1.92603e-05
1.26949e-06
-2.04944e-05
1.23418e-06
-2.16788e-05
1.1844e-06
-2.27986e-05
1.11976e-06
-2.38386e-05
1.04e-06
-2.47837e-05
9.4506e-07
-2.56187e-05
8.35059e-07
-2.63291e-05
7.10379e-07
-2.69008e-05
5.71662e-07
-2.73204e-05
4.19676e-07
-2.75757e-05
2.55228e-07
-2.76563e-05
8.06103e-08
-2.75465e-05
-1.09736e-07
-2.72408e-05
-3.05767e-07
-2.67366e-05
-5.04191e-07
-2.60284e-05
-7.08209e-07
-2.51153e-05
-9.13042e-07
-2.39997e-05
-1.1156e-06
-2.26872e-05
-1.31256e-06
-2.11867e-05
-1.50043e-06
-1.95112e-05
-1.67555e-06
-1.7677e-05
-1.83421e-06
-1.57042e-05
-1.97274e-06
-1.36166e-05
-2.08766e-06
-1.14408e-05
-2.17579e-06
-9.20637e-06
-2.23442e-06
-6.94498e-06
-2.2614e-06
-4.68969e-06
-2.25529e-06
-2.47419e-06
-2.21549e-06
-3.31706e-07
-2.14249e-06
1.70676e-06
-2.03846e-06
3.6107e-06
-1.90395e-06
5.3539e-06
-1.7432e-06
6.91416e-06
-1.56026e-06
8.27404e-06
-1.35988e-06
9.42144e-06
-1.1474e-06
1.03497e-05
-9.28302e-07
1.1058e-05
-7.08255e-07
1.15507e-05
-4.92659e-07
1.18372e-05
-2.86524e-07
1.19315e-05
-9.43164e-08
1.18509e-05
8.06445e-08
1.16157e-05
2.35146e-07
1.1248e-05
3.67718e-07
1.07705e-05
4.77503e-07
1.02061e-05
5.64365e-07
9.57713e-06
6.28988e-07
8.90437e-06
6.7276e-07
8.20679e-06
6.97582e-07
7.50108e-06
7.05709e-07
6.80148e-06
6.996e-07
6.1197e-06
6.81781e-07
5.46497e-06
6.54734e-07
4.84416e-06
6.20803e-07
4.26203e-06
5.82131e-07
3.72141e-06
5.40616e-07
3.22352e-06
4.9789e-07
2.7682e-06
4.55322e-07
2.35418e-06
4.14018e-07
1.97936e-06
3.74822e-07
1.64106e-06
3.38305e-07
1.33632e-06
3.04739e-07
1.06228e-06
2.74042e-07
8.16564e-07
2.45713e-07
5.97798e-07
2.18766e-07
4.06092e-07
1.91706e-07
2.43513e-07
1.62579e-07
1.14276e-07
1.29237e-07
2.42008e-08
9.00754e-08
-2.15646e-08
4.57654e-08
-2.36832e-08
2.11852e-09
-2.36832e-08
3.81343e-08
-3.15849e-08
1.87271e-07
-1.88991e-07
4.52464e-07
-3.60276e-07
8.16156e-07
-5.05689e-07
1.25227e-06
-6.11825e-07
1.73236e-06
-6.75835e-07
2.22904e-06
-6.99852e-07
2.71794e-06
-6.88751e-07
3.17902e-06
-6.48977e-07
3.59705e-06
-5.87737e-07
3.96188e-06
-5.12372e-07
4.26811e-06
-4.29818e-07
4.51456e-06
-3.46175e-07
4.70352e-06
-2.66389e-07
4.83978e-06
-1.94056e-07
4.92971e-06
-1.31348e-07
4.98023e-06
-7.90456e-08
4.99795e-06
-3.66596e-08
4.98848e-06
-2.70609e-09
4.9557e-06
2.5274e-08
4.90146e-06
5.00936e-08
4.8256e-06
7.49593e-08
4.72557e-06
1.02914e-07
4.59683e-06
1.36795e-07
4.43319e-06
1.79036e-07
4.22704e-06
2.31537e-07
3.96978e-06
2.95686e-07
3.6521e-06
3.72425e-07
3.26423e-06
4.62351e-07
2.79617e-06
5.65827e-07
2.23771e-06
6.83098e-07
1.5786e-06
8.14308e-07
8.08588e-07
9.59551e-07
-8.24965e-08
1.11882e-06
-1.1046e-06
1.29195e-06
-2.2672e-06
1.47853e-06
-3.57917e-06
1.6779e-06
-5.0484e-06
1.88898e-06
-6.68156e-06
2.11034e-06
-8.48372e-06
2.34006e-06
-1.0458e-05
2.57581e-06
-1.26055e-05
2.81481e-06
-1.49245e-05
3.05386e-06
-1.74108e-05
3.28942e-06
-2.00571e-05
3.51763e-06
-2.28531e-05
3.7344e-06
-2.57853e-05
3.93551e-06
-2.88372e-05
4.11669e-06
-3.19892e-05
4.27372e-06
-3.5219e-05
4.40255e-06
-3.85016e-05
4.49937e-06
-4.18097e-05
4.56069e-06
-4.51142e-05
4.58341e-06
-4.83843e-05
4.56487e-06
-5.15882e-05
4.5029e-06
-5.46931e-05
4.39584e-06
-5.76662e-05
4.24253e-06
-6.04743e-05
4.04233e-06
-6.3085e-05
3.79511e-06
-6.54665e-05
3.50126e-06
-6.75882e-05
3.16164e-06
-6.94208e-05
2.77766e-06
-7.0937e-05
2.35125e-06
-7.21116e-05
1.885e-06
-7.2922e-05
1.3821e-06
-7.33485e-05
8.46183e-07
-7.33775e-05
2.84175e-07
-7.29877e-05
-3.09211e-07
-7.21691e-05
-9.28338e-07
-7.09175e-05
-1.55732e-06
-6.92289e-05
-2.19283e-06
-6.71078e-05
-2.82927e-06
-6.45616e-05
-3.45921e-06
-6.16029e-05
-4.07434e-06
-5.82496e-05
-4.66587e-06
-5.45254e-05
-5.22461e-06
-5.04598e-05
-5.74118e-06
-4.60878e-05
-6.20614e-06
-4.14503e-05
-6.61025e-06
-3.65933e-05
-6.94472e-06
-3.15675e-05
-7.20153e-06
-2.64282e-05
-7.37372e-06
-2.12339e-05
-7.45574e-06
-1.60455e-05
-7.44371e-06
-1.09252e-05
-7.33578e-06
-5.93531e-06
-7.13236e-06
-1.13743e-06
-6.83635e-06
3.41192e-06
-6.45329e-06
7.65814e-06
-5.98942e-06
1.15529e-05
-5.45506e-06
1.50555e-05
-4.86242e-06
1.8133e-05
-4.22495e-06
2.07618e-05
-3.55709e-06
2.29278e-05
-2.87426e-06
2.4627e-05
-2.19179e-06
2.58651e-05
-1.52463e-06
2.66574e-05
-8.86682e-07
2.70281e-05
-2.89996e-07
2.70087e-05
2.54547e-07
2.66375e-05
7.38911e-07
2.59567e-05
1.15833e-06
2.5012e-05
1.50897e-06
2.3851e-05
1.79006e-06
2.25206e-05
2.00313e-06
2.10665e-05
2.15171e-06
1.95312e-05
2.24098e-06
1.79535e-05
2.27732e-06
1.63674e-05
2.26789e-06
1.48018e-05
2.22028e-06
1.32806e-05
2.14206e-06
1.18221e-05
2.04056e-06
1.04402e-05
1.92258e-06
9.14381e-06
1.79425e-06
7.93821e-06
1.66092e-06
6.82515e-06
1.52708e-06
5.80366e-06
1.39631e-06
4.87074e-06
1.27123e-06
4.02215e-06
1.15332e-06
3.25334e-06
1.04285e-06
2.5604e-06
9.38658e-07
1.94114e-06
8.38024e-07
1.39613e-06
7.36717e-07
9.29382e-07
6.29323e-07
5.4843e-07
5.10189e-07
2.63047e-07
3.75458e-07
8.18489e-08
2.26963e-07
3.97203e-09
7.99953e-08
-1.97112e-08
9.0076e-08
-1.21661e-07
3.50638e-07
-4.49552e-07
7.65072e-07
-7.74709e-07
1.30617e-06
-1.04678e-06
1.93941e-06
-1.24507e-06
2.62764e-06
-1.36406e-06
3.33464e-06
-1.40686e-06
4.02779e-06
-1.3819e-06
4.6797e-06
-1.30089e-06
5.2692e-06
-1.17724e-06
5.78159e-06
-1.02476e-06
6.20843e-06
-8.5665e-07
6.54683e-06
-6.84575e-07
6.79851e-06
-5.1807e-07
6.96857e-06
-3.64115e-07
7.06419e-06
-2.26971e-07
7.09335e-06
-1.08209e-07
7.06354e-06
-6.84619e-09
6.98091e-06
7.99214e-08
6.84923e-06
1.56954e-07
6.66944e-06
2.29887e-07
6.43944e-06
3.04962e-07
6.15398e-06
3.88373e-07
5.80495e-06
4.85821e-07
5.38179e-06
6.02201e-07
4.87193e-06
7.41398e-07
4.26133e-06
9.06283e-07
3.53495e-06
1.09881e-06
2.67711e-06
1.32019e-06
1.67189e-06
1.57105e-06
5.03251e-07
1.85173e-06
-8.44607e-07
2.16217e-06
-2.38705e-06
2.50199e-06
-4.13872e-06
2.87049e-06
-6.11319e-06
3.26642e-06
-8.32255e-06
3.68789e-06
-1.07769e-05
4.13226e-06
-1.34839e-05
4.59599e-06
-1.64482e-05
5.07461e-06
-1.96708e-05
5.56272e-06
-2.3149e-05
6.054e-06
-2.68755e-05
6.5413e-06
-3.08385e-05
7.0168e-06
-3.50212e-05
7.47213e-06
-3.94022e-05
7.89861e-06
-4.39552e-05
8.28747e-06
-4.86498e-05
8.63008e-06
-5.34513e-05
8.91819e-06
-5.83217e-05
9.14414e-06
-6.32202e-05
9.30107e-06
-6.81039e-05
9.38306e-06
-7.29284e-05
9.38522e-06
-7.76488e-05
9.30381e-06
-8.22202e-05
9.13621e-06
-8.65982e-05
8.88092e-06
-9.07399e-05
8.53752e-06
-9.4604e-05
8.1066e-06
-9.81513e-05
7.58968e-06
-0.000101345
6.98913e-06
-0.000104152
6.30808e-06
-0.000106541
5.55036e-06
-0.000108484
4.72052e-06
-0.000109956
3.8238e-06
-0.000110937
2.86614e-06
-0.00011141
1.8544e-06
-0.000111361
7.97561e-07
-0.000110778
-2.98699e-07
-0.000109648
-1.43937e-06
-0.000107978
-2.5982e-06
-0.000105766
-3.76911e-06
-0.000103017
-4.94187e-06
-9.97413e-05
-6.10531e-06
-9.59533e-05
-7.24724e-06
-9.16731e-05
-8.35454e-06
-8.69256e-05
-9.41334e-06
-8.17411e-05
-1.04092e-05
-7.61549e-05
-1.13273e-05
-7.02082e-05
-1.21529e-05
-6.39472e-05
-1.28712e-05
-5.74235e-05
-1.34684e-05
-5.06934e-05
-1.39316e-05
-4.38178e-05
-1.42493e-05
-3.68612e-05
-1.44123e-05
-2.98912e-05
-1.44137e-05
-2.29775e-05
-1.42495e-05
-1.61904e-05
-1.39194e-05
-9.60033e-06
-1.34264e-05
-3.27617e-06
-1.27775e-05
2.71766e-06
-1.19832e-05
8.32093e-06
-1.10583e-05
1.34775e-05
-1.0019e-05
1.8141e-05
-8.88836e-06
2.22723e-05
-7.68841e-06
2.58425e-05
-6.44446e-06
2.88328e-05
-5.18211e-06
3.12353e-05
-3.92715e-06
3.30532e-05
-2.70452e-06
3.43006e-05
-1.53743e-06
3.50029e-05
-4.47772e-07
3.5193e-05
5.48801e-07
3.49128e-05
1.43855e-06
3.42117e-05
2.21011e-06
3.3144e-05
2.85773e-06
3.17674e-05
3.3797e-06
3.01409e-05
3.77824e-06
2.83228e-05
4.05913e-06
2.63689e-05
4.23113e-06
2.43315e-05
4.30532e-06
2.22574e-05
4.2944e-06
2.01875e-05
4.21196e-06
1.81562e-05
4.07186e-06
1.61912e-05
3.88758e-06
1.43136e-05
3.67179e-06
1.25386e-05
3.43595e-06
1.08756e-05
3.19007e-06
9.32952e-06
2.94242e-06
7.9014e-06
2.69934e-06
6.58978e-06
2.46495e-06
5.39179e-06
2.24084e-06
4.30464e-06
2.02581e-06
3.32695e-06
1.81571e-06
2.46011e-06
1.60356e-06
1.70911e-06
1.38032e-06
1.08269e-06
1.13661e-06
5.92096e-07
8.66053e-07
2.47963e-07
5.71096e-07
5.4471e-08
2.73488e-07
3.47597e-08
1.33863e-07
-2.55524e-07
4.89925e-07
-8.05613e-07
1.02948e-06
-1.31426e-06
1.71271e-06
-1.73002e-06
2.49666e-06
-2.02902e-06
3.33728e-06
-2.20469e-06
4.19237e-06
-2.26194e-06
5.02393e-06
-2.21346e-06
5.79998e-06
-2.07694e-06
6.4955e-06
-1.87276e-06
7.0928e-06
-1.62206e-06
7.58119e-06
-1.34504e-06
7.95625e-06
-1.05963e-06
8.21864e-06
-7.80458e-07
8.37278e-06
-5.18256e-07
8.42532e-06
-2.79518e-07
8.38366e-06
-6.65437e-08
8.25457e-06
1.22244e-07
8.04278e-06
2.91713e-07
7.75034e-06
4.49387e-07
7.37577e-06
6.04456e-07
6.91381e-06
7.66923e-07
6.35545e-06
9.46734e-07
5.68823e-06
1.15304e-06
4.89675e-06
1.39369e-06
3.96326e-06
1.67488e-06
2.86835e-06
2.00119e-06
1.59156e-06
2.37559e-06
1.11903e-07
2.79985e-06
-1.5917e-06
3.27465e-06
-3.53972e-06
3.79975e-06
-5.7518e-06
4.37425e-06
-8.24619e-06
4.99638e-06
-1.10391e-05
5.66344e-06
-1.41443e-05
6.37156e-06
-1.75719e-05
7.11555e-06
-2.13284e-05
7.88869e-06
-2.54151e-05
8.68271e-06
-2.98282e-05
9.48774e-06
-3.45579e-05
1.02924e-05
-3.9588e-05
1.10841e-05
-4.48959e-05
1.18492e-05
-5.04526e-05
1.25735e-05
-5.62229e-05
1.32424e-05
-6.21659e-05
1.38417e-05
-6.82363e-05
1.43578e-05
-7.43845e-05
1.47783e-05
-8.05584e-05
1.5092e-05
-8.67038e-05
1.52896e-05
-9.27664e-05
1.53636e-05
-9.8692e-05
1.53087e-05
-0.000104428
1.51212e-05
-0.000109924
1.47998e-05
-0.000115132
1.43446e-05
-0.000120009
1.37576e-05
-0.000124514
1.3042e-05
-0.000128609
1.22022e-05
-0.000132263
1.12437e-05
-0.000135447
1.01727e-05
-0.000138135
8.99618e-06
-0.000140306
7.72157e-06
-0.000141942
6.35691e-06
-0.000143029
4.9108e-06
-0.000143556
3.39223e-06
-0.000143512
1.81059e-06
-0.0001429
1.86052e-07
-0.000141698
-1.50122e-06
-0.000139922
-3.21462e-06
-0.000137574
-4.94694e-06
-0.000134657
-6.68576e-06
-0.000131182
-8.41736e-06
-0.00012716
-1.01269e-05
-0.000122609
-1.17985e-05
-0.000117548
-1.3415e-05
-0.000112003
-1.49585e-05
-0.000106002
-1.64101e-05
-9.95792e-05
-1.77503e-05
-9.27726e-05
-1.89594e-05
-8.56258e-05
-2.0018e-05
-7.81872e-05
-2.09071e-05
-7.051e-05
-2.16088e-05
-6.26521e-05
-2.21073e-05
-5.46754e-05
-2.23889e-05
-4.66458e-05
-2.24433e-05
-3.86318e-05
-2.22635e-05
-3.0704e-05
-2.18473e-05
-2.29337e-05
-2.11967e-05
-1.53921e-05
-2.0319e-05
-8.14885e-06
-1.92265e-05
-1.2706e-06
-1.79366e-05
5.183e-06
-1.64726e-05
1.1154e-05
-1.48594e-05
1.65921e-05
-1.31265e-05
2.14573e-05
-1.13096e-05
2.57173e-05
-9.44211e-06
2.93499e-05
-7.55973e-06
3.23432e-05
-5.69787e-06
3.46964e-05
-3.89056e-06
3.64182e-05
-2.16957e-06
3.75317e-05
-5.64711e-07
3.80657e-05
9.04491e-07
3.80596e-05
2.21628e-06
3.75618e-05
3.35549e-06
3.66273e-05
4.3142e-06
3.53158e-05
5.08975e-06
3.369e-05
5.68495e-06
3.18135e-05
6.10764e-06
2.97488e-05
6.37002e-06
2.75554e-05
6.48778e-06
2.52882e-05
6.47917e-06
2.29961e-05
6.36394e-06
2.07213e-05
6.16239e-06
1.84986e-05
5.89445e-06
1.63557e-05
5.57891e-06
1.4313e-05
5.23276e-06
1.23848e-05
4.87064e-06
1.05798e-05
4.50427e-06
8.90283e-06
4.14196e-06
7.35562e-06
3.78805e-06
5.9389e-06
3.44254e-06
4.65383e-06
3.10078e-06
3.50357e-06
2.75382e-06
2.49444e-06
2.38944e-06
1.63648e-06
1.99457e-06
9.4305e-07
1.55948e-06
4.29426e-07
1.08472e-06
1.10594e-07
5.92319e-07
1.45353e-07
1.67307e-07
-4.22832e-07
5.99625e-07
-1.23793e-06
1.23949e-06
-1.95412e-06
2.03392e-06
-2.52445e-06
2.93083e-06
-2.92593e-06
3.8796e-06
-3.15346e-06
4.83299e-06
-3.21533e-06
5.74913e-06
-3.1296e-06
6.59298e-06
-2.92079e-06
7.3372e-06
-2.61698e-06
7.96228e-06
-2.24715e-06
8.45615e-06
-1.83891e-06
8.81319e-06
-1.41666e-06
9.03298e-06
-1.00025e-06
9.11878e-06
-6.04055e-07
9.07587e-06
-2.36609e-07
8.90992e-06
9.94033e-08
8.6255e-06
4.06668e-07
8.2247e-06
6.92509e-07
7.70626e-06
9.67832e-07
7.06483e-06
1.24589e-06
6.29077e-06
1.54098e-06
5.37028e-06
1.86723e-06
4.28577e-06
2.23755e-06
3.01655e-06
2.6629e-06
1.53964e-06
3.1518e-06
-1.69502e-07
3.71033e-06
-2.13614e-06
4.34224e-06
-4.38542e-06
5.04913e-06
-6.94171e-06
5.83094e-06
-9.82792e-06
6.68596e-06
-1.30646e-05
7.61097e-06
-1.66693e-05
8.60106e-06
-2.06554e-05
9.64951e-06
-2.50313e-05
1.07475e-05
-2.97996e-05
1.18838e-05
-3.4956e-05
1.30451e-05
-4.04887e-05
1.42155e-05
-4.63782e-05
1.53772e-05
-5.25965e-05
1.65107e-05
-5.91077e-05
1.75954e-05
-6.58686e-05
1.86101e-05
-7.28291e-05
1.9534e-05
-7.99339e-05
2.03472e-05
-8.71234e-05
2.10312e-05
-9.43357e-05
2.15701e-05
-0.000101508
2.19504e-05
-0.000108578
2.21617e-05
-0.000115484
2.21965e-05
-0.000122171
2.20506e-05
-0.000128585
2.17224e-05
-0.000134677
2.12133e-05
-0.000140404
2.05266e-05
-0.000145727
1.96678e-05
-0.000150613
1.86437e-05
-0.000155034
1.74624e-05
-0.000158964
1.61329e-05
-0.000162385
1.46647e-05
-0.00016528
1.30677e-05
-0.000167636
1.1352e-05
-0.000169442
9.52784e-06
-0.000170691
7.60575e-06
-0.000171377
5.59632e-06
-0.000171495
3.51076e-06
-0.000171047
1.36256e-06
-0.000170022
-8.39526e-07
-0.00016843
-3.09255e-06
-0.000166273
-5.3723e-06
-0.000163553
-7.66697e-06
-0.000160276
-9.96247e-06
-0.00015645
-1.22429e-05
-0.000152086
-1.44911e-05
-0.000147196
-1.66884e-05
-0.000141797
-1.88146e-05
-0.000135907
-2.08483e-05
-0.00012955
-2.27668e-05
-0.000122754
-2.45463e-05
-0.000115551
-2.61626e-05
-0.000107978
-2.75912e-05
-0.000100077
-2.88081e-05
-9.18953e-05
-2.97903e-05
-8.34859e-05
-3.05166e-05
-7.49061e-05
-3.09687e-05
-6.62178e-05
-3.11316e-05
-5.74867e-05
-3.09946e-05
-4.87817e-05
-3.05522e-05
-4.01738e-05
-2.98047e-05
-3.17345e-05
-2.87582e-05
-2.35354e-05
-2.74257e-05
-1.56456e-05
-2.58263e-05
-8.13274e-06
-2.39855e-05
-1.05826e-06
-2.19338e-05
5.5239e-06
-1.97087e-05
1.15618e-05
-1.73475e-05
1.70135e-05
-1.48938e-05
2.18463e-05
-1.23925e-05
2.60361e-05
-9.88762e-06
2.95683e-05
-7.42277e-06
3.24383e-05
-5.03965e-06
3.46504e-05
-2.77675e-06
3.62245e-05
-6.6961e-07
3.71836e-05
1.25719e-06
3.75624e-05
2.9767e-06
3.74053e-05
4.47132e-06
3.67637e-05
5.73126e-06
3.56954e-05
6.75324e-06
3.42623e-05
7.54074e-06
3.25288e-05
8.10359e-06
3.05594e-05
8.45719e-06
2.8417e-05
8.62156e-06
2.61608e-05
8.62015e-06
2.38446e-05
8.4785e-06
2.15161e-05
8.22302e-06
1.92153e-05
7.87972e-06
1.6975e-05
7.47305e-06
1.48207e-05
7.0249e-06
1.27713e-05
6.55364e-06
1.08401e-05
6.07316e-06
9.03615e-06
5.59205e-06
7.36579e-06
5.1129e-06
5.8346e-06
4.63197e-06
4.44903e-06
4.13939e-06
3.21798e-06
3.62049e-06
2.15406e-06
3.05849e-06
1.27442e-06
2.43912e-06
6.01413e-07
1.75773e-06
1.6373e-07
1.03e-06
3.09083e-07
1.92197e-07
-6.15028e-07
6.83263e-07
-1.729e-06
1.40053e-06
-2.6714e-06
2.27854e-06
-3.40246e-06
3.25586e-06
-3.90325e-06
4.27516e-06
-4.17275e-06
5.28447e-06
-4.22464e-06
6.2387e-06
-4.08383e-06
7.10071e-06
-3.7828e-06
7.84181e-06
-3.35808e-06
8.44163e-06
-2.84697e-06
8.88739e-06
-2.28467e-06
9.17274e-06
-1.70202e-06
9.29628e-06
-1.12378e-06
9.25982e-06
-5.67598e-07
9.06669e-06
-4.34769e-08
8.71991e-06
4.46186e-07
8.22074e-06
9.05838e-07
7.56732e-06
1.34593e-06
6.75375e-06
1.7814e-06
5.76956e-06
2.23007e-06
4.59963e-06
2.71091e-06
3.22444e-06
3.24242e-06
1.62083e-06
3.84116e-06
-2.3733e-07
4.52106e-06
-2.37801e-06
5.29247e-06
-4.82991e-06
6.16223e-06
-7.62154e-06
7.13388e-06
-1.07802e-05
8.2078e-06
-1.43309e-05
9.38161e-06
-1.82952e-05
1.06502e-05
-2.26901e-05
1.20059e-05
-2.75271e-05
1.34381e-05
-3.28108e-05
1.49331e-05
-3.85374e-05
1.64741e-05
-4.46947e-05
1.80411e-05
-5.12605e-05
1.96109e-05
-5.82032e-05
2.11581e-05
-6.54811e-05
2.26551e-05
-7.30439e-05
2.40735e-05
-8.08337e-05
2.53851e-05
-8.87861e-05
2.65625e-05
-9.68328e-05
2.75808e-05
-0.000104903
2.84178e-05
-0.000112927
2.90552e-05
-0.000120836
2.9479e-05
-0.000128565
2.96793e-05
-0.000136054
2.96505e-05
-0.000143249
2.93912e-05
-0.000150101
2.89033e-05
-0.000156571
2.81919e-05
-0.000162622
2.72648e-05
-0.000168227
2.61312e-05
-0.000173361
2.48022e-05
-0.000178007
2.32894e-05
-0.00018215
2.1605e-05
-0.000185778
1.97615e-05
-0.000188885
1.77711e-05
-0.000191463
1.56461e-05
-0.000193509
1.33981e-05
-0.00019502
1.10388e-05
-0.000195994
8.57946e-06
-0.000196429
6.03111e-06
-0.000196324
3.40569e-06
-0.00019568
7.19308e-07
-0.000194491
-2.02942e-06
-0.000192763
-4.82051e-06
-0.000190495
-7.6395e-06
-0.000187689
-1.0473e-05
-0.000184347
-1.33053e-05
-0.00018047
-1.61195e-05
-0.000176065
-1.88965e-05
-0.000171138
-2.16156e-05
-0.000165698
-2.42542e-05
-0.000159759
-2.67877e-05
-0.000153335
-2.919e-05
-0.000146448
-3.14332e-05
-0.000139123
-3.34884e-05
-0.000131388
-3.53261e-05
-0.000123279
-3.69167e-05
-0.000114838
-3.82316e-05
-0.000106111
-3.92438e-05
-9.71502e-05
-3.9929e-05
-8.8015e-05
-4.02668e-05
-7.87682e-05
-4.02414e-05
-6.94773e-05
-3.98432e-05
-6.02131e-05
-3.90689e-05
-5.10485e-05
-3.79229e-05
-4.2057e-05
-3.64172e-05
-3.33115e-05
-3.45718e-05
-2.48828e-05
-3.24143e-05
-1.68373e-05
-2.99793e-05
-9.2381e-06
-2.73079e-05
-2.14007e-06
-2.44456e-05
4.40878e-06
-2.14427e-05
1.03667e-05
-1.83504e-05
1.57009e-05
-1.52218e-05
2.03876e-05
-1.21094e-05
2.44116e-05
-9.06369e-06
2.77669e-05
-6.13198e-06
3.0455e-05
-3.35777e-06
3.24925e-05
-7.80338e-07
3.38982e-05
1.57106e-06
3.47021e-05
3.66738e-06
3.49438e-05
5.48957e-06
3.46702e-05
7.02683e-06
3.3935e-05
8.2759e-06
3.27973e-05
9.24129e-06
3.13196e-05
9.9349e-06
2.9566e-05
1.03752e-05
2.75998e-05
1.05863e-05
2.5482e-05
1.05963e-05
2.32689e-05
1.0436e-05
2.10114e-05
1.01373e-05
1.87532e-05
9.73123e-06
1.65311e-05
9.24697e-06
1.43749e-05
8.70992e-06
1.23076e-05
8.14044e-06
1.03471e-05
7.55253e-06
8.50728e-06
6.95272e-06
6.79981e-06
6.33944e-06
5.2361e-06
5.7031e-06
3.82924e-06
5.02735e-06
2.59603e-06
4.29169e-06
1.55906e-06
3.4761e-06
7.49135e-07
2.56766e-06
2.0902e-07
1.57012e-06
5.18103e-07
2.10886e-07
-8.25914e-07
7.46332e-07
-2.26444e-06
1.521e-06
-3.44606e-06
2.45789e-06
-4.33935e-06
3.48639e-06
-4.93175e-06
4.54241e-06
-5.22877e-06
5.56942e-06
-5.25165e-06
6.51952e-06
-5.03392e-06
7.35407e-06
-4.61735e-06
8.04377e-06
-4.04778e-06
8.56807e-06
-3.37128e-06
8.9141e-06
-2.6307e-06
9.07513e-06
-1.86305e-06
9.04884e-06
-1.09748e-06
8.83539e-06
-3.54152e-07
8.43553e-06
3.56381e-07
7.84892e-06
1.0328e-06
7.07245e-06
1.68231e-06
6.09912e-06
2.31926e-06
4.91726e-06
2.96326e-06
3.51022e-06
3.63711e-06
1.85659e-06
4.36454e-06
-6.92751e-08
5.16829e-06
-2.29638e-06
6.06827e-06
-4.85553e-06
7.08021e-06
-7.77844e-06
8.21538e-06
-1.10963e-05
9.48005e-06
-1.48382e-05
1.08758e-05
-1.90301e-05
1.23998e-05
-2.36934e-05
1.40449e-05
-2.8843e-05
1.57999e-05
-3.44866e-05
1.76495e-05
-4.06227e-05
1.95742e-05
-4.72398e-05
2.15502e-05
-5.43151e-05
2.35495e-05
-6.18146e-05
2.55406e-05
-6.9693e-05
2.74893e-05
-7.78943e-05
2.93594e-05
-8.63539e-05
3.11146e-05
-9.49998e-05
3.27195e-05
-0.000103756
3.41413e-05
-0.000112544
3.53508e-05
-0.000121287
3.63238e-05
-0.000129911
3.70414e-05
-0.000138346
3.74905e-05
-0.000146531
3.76636e-05
-0.00015441
3.75585e-05
-0.000161937
3.71776e-05
-0.000169073
3.65274e-05
-0.000175787
3.56175e-05
-0.000182055
3.44598e-05
-0.000187858
3.30679e-05
-0.000193183
3.14563e-05
-0.000198021
2.96402e-05
-0.000202366
2.76343e-05
-0.000206215
2.54533e-05
-0.000209565
2.31114e-05
-0.000212415
2.0622e-05
-0.000214767
1.79977e-05
-0.000216619
1.52505e-05
-0.000217973
1.23919e-05
-0.000218826
9.43285e-06
-0.000219179
6.3838e-06
-0.000219028
3.25539e-06
-0.000218376
6.68615e-08
-0.000217213
-3.19209e-06
-0.000215543
-6.49033e-06
-0.000213362
-9.82062e-06
-0.000210666
-1.31689e-05
-0.000207453
-1.65189e-05
-0.00020372
-1.98527e-05
-0.000199466
-2.31503e-05
-0.000194692
-2.63896e-05
-0.0001894
-2.95457e-05
-0.000183596
-3.25916e-05
-0.000177288
-3.54979e-05
-0.000170489
-3.82328e-05
-0.000163214
-4.0763e-05
-0.000155487
-4.30537e-05
-0.000147334
-4.50698e-05
-0.000138789
-4.67762e-05
-0.000129893
-4.81394e-05
-0.000120694
-4.91283e-05
-0.000111245
-4.97156e-05
-0.000101607
-4.98794e-05
-9.18465e-05
-4.9604e-05
-8.20341e-05
-4.88814e-05
-7.22448e-05
-4.77122e-05
-6.25556e-05
-4.61064e-05
-5.3044e-05
-4.40833e-05
-4.37863e-05
-4.1672e-05
-3.48556e-05
-3.891e-05
-2.63204e-05
-3.58431e-05
-1.8243e-05
-3.2523e-05
-1.06788e-05
-2.90068e-05
-3.67501e-06
-2.53543e-05
2.72984e-06
-2.16267e-05
8.50526e-06
-1.78849e-05
1.36292e-05
-1.41876e-05
1.8088e-05
-1.05908e-05
2.18764e-05
-7.14612e-06
2.4996e-05
-3.9e-06
2.74606e-05
-8.93549e-07
2.92871e-05
1.84089e-06
3.05023e-05
4.27445e-06
3.11412e-05
6.38788e-06
3.12466e-05
8.17048e-06
3.0868e-05
9.61987e-06
3.00608e-05
1.07422e-05
2.88844e-05
1.15516e-05
2.74008e-05
1.20699e-05
2.56725e-05
1.23247e-05
2.37601e-05
1.23485e-05
2.17208e-05
1.21765e-05
1.9607e-05
1.1845e-05
1.74648e-05
1.13892e-05
1.53338e-05
1.08409e-05
1.32471e-05
1.02272e-05
1.12317e-05
9.56795e-06
9.30988e-06
8.87449e-06
7.50083e-06
8.14849e-06
5.8223e-06
7.38164e-06
4.29311e-06
6.55653e-06
2.93573e-06
5.64907e-06
1.7793e-06
4.63253e-06
8.63491e-07
3.48347e-06
2.43835e-07
2.18977e-06
7.61938e-07
2.25299e-07
-1.05121e-06
7.9367e-07
-2.83281e-06
1.60839e-06
-4.26078e-06
2.58169e-06
-5.31265e-06
3.63412e-06
-5.98417e-06
4.69503e-06
-6.28968e-06
5.70359e-06
-6.26021e-06
6.60948e-06
-5.93982e-06
7.37314e-06
-5.38101e-06
7.96525e-06
-4.63989e-06
8.36566e-06
-3.77169e-06
8.56181e-06
-2.82685e-06
8.54681e-06
-1.84805e-06
8.31737e-06
-8.68046e-07
7.87171e-06
9.15113e-08
7.2074e-06
1.02069e-06
6.31987e-06
1.92033e-06
5.20069e-06
2.80149e-06
3.83674e-06
3.68321e-06
2.20965e-06
4.59034e-06
2.95927e-07
5.55083e-06
-1.93257e-06
6.59304e-06
-4.50738e-06
7.7431e-06
-7.46217e-06
9.02306e-06
-1.08313e-05
1.04493e-05
-1.46478e-05
1.20319e-05
-1.89422e-05
1.37744e-05
-2.37402e-05
1.56738e-05
-2.90615e-05
1.77211e-05
-3.49178e-05
1.99011e-05
-4.13111e-05
2.21932e-05
-4.82325e-05
2.45709e-05
-5.56606e-05
2.70024e-05
-6.35613e-05
2.94508e-05
-7.18873e-05
3.18755e-05
-8.05793e-05
3.42326e-05
-8.95675e-05
3.64774e-05
-9.87737e-05
3.85657e-05
-0.000108115
4.04557e-05
-0.000117505
4.21102e-05
-0.000126862
4.34974e-05
-0.000136103
4.45925e-05
-0.000145157
4.53775e-05
-0.000153958
4.58419e-05
-0.000162449
4.59818e-05
-0.000170585
4.57992e-05
-0.000178327
4.53013e-05
-0.000185649
4.44991e-05
-0.000192528
4.34067e-05
-0.000198951
4.20402e-05
-0.000204908
4.0417e-05
-0.000210395
3.85546e-05
-0.000215409
3.64709e-05
-0.000219952
3.41829e-05
-0.000224025
3.1707e-05
-0.00022763
2.90585e-05
-0.00023077
2.62517e-05
-0.000233448
2.32998e-05
-0.000235665
2.02151e-05
-0.000237424
1.70087e-05
-0.000238723
1.36913e-05
-0.000239563
1.02728e-05
-0.000239942
6.76264e-06
-0.000239858
3.17121e-06
-0.0002393
-4.90432e-07
-0.000238277
-4.21553e-06
-0.000236776
-7.99084e-06
-0.000234793
-1.18038e-05
-0.000232321
-1.56411e-05
-0.000229353
-1.94867e-05
-0.000225883
-2.33229e-05
-0.000221904
-2.71292e-05
-0.000217411
-3.08825e-05
-0.0002124
-3.45569e-05
-0.000206868
-3.81233e-05
-0.000200817
-4.15496e-05
-0.000194248
-4.4801e-05
-0.000187171
-4.78398e-05
-0.000179599
-5.06266e-05
-0.000171548
-5.31202e-05
-0.000163045
-5.52792e-05
-0.000154122
-5.70628e-05
-0.000144818
-5.84321e-05
-0.000135182
-5.93519e-05
-0.000125269
-5.97921e-05
-0.000115144
-5.97292e-05
-0.000104877
-5.91484e-05
-9.45446e-05
-5.80444e-05
-8.42283e-05
-5.64227e-05
-7.40113e-05
-5.43003e-05
-6.39775e-05
-5.17058e-05
-5.42087e-05
-4.86789e-05
-4.47827e-05
-4.5269e-05
-3.57713e-05
-4.15344e-05
-2.72385e-05
-3.75396e-05
-1.92395e-05
-3.33533e-05
-1.182e-05
-2.90462e-05
-5.01622e-06
-2.46887e-05
1.14514e-06
-2.0349e-05
6.64598e-06
-1.60917e-05
1.14761e-05
-1.19763e-05
1.56331e-05
-8.05691e-06
1.91208e-05
-4.38126e-06
2.19522e-05
-9.90517e-07
2.41444e-05
2.08223e-06
2.57224e-05
4.80984e-06
2.67186e-05
7.17427e-06
2.71723e-05
9.16619e-06
2.71294e-05
1.07851e-05
2.66416e-05
1.20394e-05
2.57652e-05
1.29462e-05
2.45596e-05
1.35303e-05
2.30851e-05
1.3823e-05
2.14012e-05
1.38604e-05
1.95649e-05
1.36814e-05
1.76287e-05
1.33254e-05
1.564e-05
1.28296e-05
1.36405e-05
1.22267e-05
1.1666e-05
1.15425e-05
9.74732e-06
1.07932e-05
7.91144e-06
9.98436e-06
6.18355e-06
9.10953e-06
4.58925e-06
8.15083e-06
3.15766e-06
7.08066e-06
1.92504e-06
5.86515e-06
9.3943e-07
4.46908e-06
2.6681e-07
2.86239e-06
1.02875e-06
2.36685e-07
-1.2879e-06
8.28523e-07
-3.42465e-06
1.66771e-06
-5.09997e-06
2.65622e-06
-6.30116e-06
3.70615e-06
-7.0341e-06
4.74074e-06
-7.32428e-06
5.69533e-06
-7.2148e-06
6.51777e-06
-6.76225e-06
7.16813e-06
-6.03137e-06
7.61765e-06
-5.08941e-06
7.84702e-06
-4.00106e-06
7.84428e-06
-2.82411e-06
7.60241e-06
-1.60618e-06
7.11694e-06
-3.82582e-07
6.38351e-06
8.24941e-07
5.39607e-06
2.00814e-06
4.14482e-06
3.17157e-06
2.6152e-06
4.33111e-06
7.87147e-07
5.51127e-06
-1.36494e-06
6.74243e-06
-3.87154e-06
8.05743e-06
-6.76685e-06
9.48836e-06
-1.00873e-05
1.10635e-05
-1.38695e-05
1.28052e-05
-1.81482e-05
1.47281e-05
-2.29545e-05
1.68382e-05
-2.83132e-05
1.91331e-05
-3.42413e-05
2.1602e-05
-4.0746e-05
2.42257e-05
-4.78226e-05
2.69777e-05
-5.54533e-05
2.98239e-05
-6.3606e-05
3.27236e-05
-7.22342e-05
3.56305e-05
-8.12773e-05
3.84939e-05
-9.06624e-05
4.12606e-05
-0.000100307
4.3877e-05
-0.000110121
4.62918e-05
-0.000120013
4.8458e-05
-0.000129893
5.0335e-05
-0.000139672
5.18898e-05
-0.000149273
5.30983e-05
-0.000158626
5.3945e-05
-0.000167671
5.44228e-05
-0.000176361
5.45321e-05
-0.000184659
5.42796e-05
-0.000192537
5.36772e-05
-0.000199976
5.27405e-05
-0.000206965
5.14876e-05
-0.000213497
4.99385e-05
-0.00021957
4.81134e-05
-0.000225186
4.60329e-05
-0.000230348
4.37168e-05
-0.000235061
4.11841e-05
-0.000239331
3.84524e-05
-0.000243162
3.55382e-05
-0.00024656
3.24566e-05
-0.00024953
2.92213e-05
-0.000252074
2.58447e-05
-0.000254198
2.23382e-05
-0.000255901
1.87119e-05
-0.000257185
1.49753e-05
-0.000258049
1.11372e-05
-0.000258492
7.20591e-06
-0.000258511
3.18982e-06
-0.000258098
-9.03349e-07
-0.000257255
-5.05814e-06
-0.000255974
-9.27217e-06
-0.000254246
-1.35321e-05
-0.000252062
-1.7825e-05
-0.000249413
-2.21358e-05
-0.000246288
-2.64475e-05
-0.000242677
-3.07401e-05
-0.000238569
-3.49907e-05
-0.000233953
-3.91728e-05
-0.00022882
-4.32565e-05
-0.000223161
-4.72084e-05
-0.000216971
-5.0991e-05
-0.000210248
-5.45636e-05
-0.000202992
-5.78823e-05
-0.000195211
-6.09007e-05
-0.000186919
-6.35711e-05
-0.000178137
-6.58451e-05
-0.000168894
-6.76755e-05
-0.000159228
-6.90176e-05
-0.000149188
-6.98317e-05
-0.000138833
-7.00845e-05
-0.00012823
-6.97514e-05
-0.000117456
-6.88185e-05
-0.000106595
-6.72837e-05
-9.57364e-05
-6.51588e-05
-8.49731e-05
-6.24691e-05
-7.43982e-05
-5.92538e-05
-6.4102e-05
-5.55653e-05
-5.41696e-05
-5.14667e-05
-4.46786e-05
-4.70307e-05
-3.56961e-05
-4.23357e-05
-2.72787e-05
-3.74636e-05
-1.94709e-05
-3.24964e-05
-1.23059e-05
-2.7514e-05
-5.80618e-06
-2.25914e-05
1.53491e-08
-1.77978e-05
5.15387e-06
-1.31954e-05
9.61161e-06
-8.839e-06
1.33969e-05
-4.77581e-06
1.65243e-05
-1.04519e-06
1.9013e-05
2.32116e-06
2.0888e-05
5.29923e-06
2.21807e-05
7.87355e-06
2.29282e-05
1.00376e-05
2.31739e-05
1.17937e-05
2.29667e-05
1.31534e-05
2.236e-05
1.4137e-05
2.14103e-05
1.47726e-05
2.01759e-05
1.50948e-05
1.87144e-05
1.51429e-05
1.70818e-05
1.4958e-05
1.53304e-05
1.45809e-05
1.35084e-05
1.40487e-05
1.16588e-05
1.3392e-05
9.82031e-06
1.26317e-05
8.02769e-06
1.1777e-05
6.3137e-06
1.08235e-05
4.71124e-06
9.75328e-06
3.2565e-06
8.53541e-06
1.99274e-06
7.1289e-06
9.75258e-07
5.48656e-06
2.77545e-07
3.56011e-06
1.30629e-06
2.45635e-07
-1.53353e-06
8.52377e-07
-4.03139e-06
1.70108e-06
-5.94867e-06
2.68373e-06
-7.28381e-06
3.70453e-06
-8.0549e-06
4.68125e-06
-8.30099e-06
5.54611e-06
-8.07965e-06
6.24585e-06
-7.462e-06
6.74089e-06
-6.5264e-06
7.00354e-06
-5.35206e-06
7.01568e-06
-4.0132e-06
6.76603e-06
-2.57446e-06
6.24729e-06
-1.08744e-06
5.45331e-06
4.11392e-07
4.37671e-06
1.90154e-06
3.00672e-06
3.37813e-06
1.32783e-06
4.85046e-06
-6.81537e-07
6.34048e-06
-3.04874e-06
7.87847e-06
-5.80645e-06
9.50014e-06
-8.99143e-06
1.12424e-05
-1.26426e-05
1.31395e-05
-1.67988e-05
1.52198e-05
-2.14964e-05
1.75028e-05
-2.67664e-05
1.99981e-05
-3.26326e-05
2.27043e-05
-3.91085e-05
2.56091e-05
-4.6196e-05
2.86894e-05
-5.38828e-05
3.19126e-05