/*--------------------------------*- C++ -*----------------------------------*\
| =========                 |                                                 |
| \\      /  F ield         | OpenFOAM: The Open Source CFD Toolbox           |
|  \\    /   O peration     | Version:  2406                                  |
|   \\  /    A nd           | Website:  www.openfoam.com                      |
|    \\/     M anipulation  |                                                 |
\*---------------------------------------------------------------------------*/
FoamFile
{
    version     2.0;
    format      ascii;
    arch        "LSB;label=32;scalar=64";
    class       volVectorField;
    location    "11.4";
    object      U;
}
// * * * * * * * * * * * * * * * * * * * * * * * * * * * * * * * * * * * * * //

dimensions      [0 1 -1 0 0 0 0];

internalField   nonuniform List<vector> 
900
(
(0.000239249 -0.000266829 0)
(-7.29824e-05 -0.00011758 0)
(-0.000743619 -0.000105231 0)
(-0.00142035 -0.000119307 0)
(-0.00215169 -0.000167672 0)
(-0.0028107 -0.000190266 0)
(-0.00361375 -0.000197575 0)
(-0.00454914 -0.000170061 0)
(-0.00586686 -0.000107782 0)
(-0.00766823 6.33073e-06 0)
(-0.0102422 0.000188161 0)
(-0.0137731 0.000477451 0)
(-0.0185493 0.000924617 0)
(-0.024679 0.00156599 0)
(-0.0321385 0.00234419 0)
(-0.0403958 0.00305943 0)
(-0.0485279 0.00338826 0)
(-0.0550896 0.00302136 0)
(-0.0587558 0.00187253 0)
(-0.0581994 0.000120299 0)
(-0.0530464 -0.00190339 0)
(-0.0431035 -0.00378688 0)
(-0.0296938 -0.00499274 0)
(-0.0142444 -0.00511811 0)
(-0.000112044 -0.00376603 0)
(0.00987806 -0.00145901 0)
(0.0128839 0.000857761 0)
(0.0102903 0.00187777 0)
(0.0054427 0.00188842 0)
(0.000861512 0.0010293 0)
(-5.05015e-05 9.92894e-05 0)
(-0.00162033 0.00112986 0)
(-0.0040315 0.00144593 0)
(-0.00654084 0.00155562 0)
(-0.00930107 0.0015575 0)
(-0.012116 0.00167838 0)
(-0.015357 0.00194448 0)
(-0.0190679 0.00245102 0)
(-0.0236985 0.00324881 0)
(-0.0294659 0.00440887 0)
(-0.036797 0.00596269 0)
(-0.0458252 0.0078956 0)
(-0.0566223 0.0100633 0)
(-0.0687952 0.0121218 0)
(-0.0816539 0.0134864 0)
(-0.0939781 0.0134396 0)
(-0.104391 0.0114215 0)
(-0.111242 0.00729982 0)
(-0.113267 0.00134824 0)
(-0.109557 -0.0057784 0)
(-0.100126 -0.0131108 0)
(-0.0849618 -0.0196062 0)
(-0.0652182 -0.0238429 0)
(-0.0421734 -0.0246115 0)
(-0.0188723 -0.0203389 0)
(0.000950363 -0.0116535 0)
(0.012075 -0.00114228 0)
(0.0129667 0.00549197 0)
(0.0078927 0.00767164 0)
(0.0014917 0.00526391 0)
(-0.000373403 0.00137843 0)
(-0.00317601 0.00386991 0)
(-0.00724772 0.0047734 0)
(-0.0114571 0.00514594 0)
(-0.0161088 0.00536862 0)
(-0.0209582 0.00585081 0)
(-0.0264783 0.00671438 0)
(-0.0327199 0.00814154 0)
(-0.0401737 0.0102383 0)
(-0.0489928 0.0130488 0)
(-0.0594993 0.0164662 0)
(-0.0716711 0.0202029 0)
(-0.0855151 0.0237691 0)
(-0.100722 0.0264547 0)
(-0.116783 0.0273829 0)
(-0.132341 0.0256641 0)
(-0.145315 0.020569 0)
(-0.153646 0.011837 0)
(-0.156531 0.000202441 0)
(-0.15352 -0.0129934 0)
(-0.144612 -0.0263632 0)
(-0.129672 -0.0386068 0)
(-0.108983 -0.0475649 0)
(-0.0830987 -0.0513965 0)
(-0.0533681 -0.0466739 0)
(-0.0237999 -0.032408 0)
(-0.000189915 -0.0110186 0)
(0.00910663 0.00590868 0)
(0.00713794 0.0133815 0)
(0.00136147 0.0102846 0)
(-0.000670654 0.00365042 0)
(-0.00453518 0.00806045 0)
(-0.00997599 0.00972318 0)
(-0.015571 0.0104646 0)
(-0.0217822 0.011071 0)
(-0.028314 0.0120929 0)
(-0.0356902 0.0137327 0)
(-0.0438918 0.0161957 0)
(-0.0533445 0.0195651 0)
(-0.0640893 0.023796 0)
(-0.0764801 0.0287062 0)
(-0.0908049 0.0339946 0)
(-0.107703 0.0392114 0)
(-0.127322 0.0435054 0)
(-0.148519 0.0452427 0)
(-0.168104 0.0420954 0)
(-0.182958 0.0328236 0)
(-0.192079 0.0185533 0)
(-0.195694 0.00124089 0)
(-0.193716 -0.0177767 0)
(-0.186652 -0.0370241 0)
(-0.174202 -0.0554169 0)
(-0.15599 -0.0705045 0)
(-0.131461 -0.0804505 0)
(-0.0995989 -0.0796268 0)
(-0.0630138 -0.0649409 0)
(-0.0249742 -0.0338504 0)
(0.000242208 -0.00190968 0)
(0.00490333 0.0155323 0)
(0.000900957 0.0137464 0)
(-0.000854863 0.00653785 0)
(-0.00544966 0.0131918 0)
(-0.0118514 0.0157469 0)
(-0.01842 0.0169463 0)
(-0.0257266 0.0180609 0)
(-0.0334119 0.019737 0)
(-0.0420171 0.0222426 0)
(-0.0514521 0.02576 0)
(-0.0621501 0.030382 0)
(-0.0742886 0.0361355 0)
(-0.0886952 0.0431218 0)
(-0.106351 0.0513661 0)
(-0.128168 0.0602186 0)
(-0.153069 0.067187 0)
(-0.177253 0.0680518 0)
(-0.196014 0.0599469 0)
(-0.20805 0.0443886 0)
(-0.214613 0.0243939 0)
(-0.21629 0.00169801 0)
(-0.213844 -0.0222127 0)
(-0.208454 -0.0459675 0)
(-0.1998 -0.0694284 0)
(-0.187621 -0.090341 0)
(-0.169862 -0.10792 0)
(-0.143497 -0.115092 0)
(-0.107325 -0.107032 0)
(-0.06119 -0.0741232 0)
(-0.01583 -0.0239821 0)
(0.00353672 0.0128154 0)
(0.0010296 0.0160239 0)
(-0.000972889 0.00995613 0)
(-0.00601609 0.0191352 0)
(-0.0130078 0.0226832 0)
(-0.0201881 0.0243979 0)
(-0.028181 0.026076 0)
(-0.0365758 0.0284335 0)
(-0.0459233 0.0318007 0)
(-0.0561226 0.0363793 0)
(-0.0677414 0.0424435 0)
(-0.0812946 0.0503984 0)
(-0.0981156 0.0608221 0)
(-0.119262 0.073517 0)
(-0.144376 0.0859444 0)
(-0.169804 0.092561 0)
(-0.190185 0.0881474 0)
(-0.202615 0.0728295 0)
(-0.208907 0.0513777 0)
(-0.21088 0.0267252 0)
(-0.20909 0.00044608 0)
(-0.205071 -0.0257249 0)
(-0.200134 -0.051108 0)
(-0.194787 -0.076447 0)
(-0.189671 -0.100554 0)
(-0.182307 -0.124858 0)
(-0.168469 -0.142317 0)
(-0.143078 -0.147502 0)
(-0.101089 -0.125217 0)
(-0.0455039 -0.066696 0)
(0.00189668 -0.0011775 0)
(0.00199524 0.0183057 0)
(-0.000974342 0.0134681 0)
(-0.00612553 0.0252465 0)
(-0.0133203 0.0298418 0)
(-0.0207412 0.0321109 0)
(-0.0290117 0.0343896 0)
(-0.0376896 0.0374538 0)
(-0.0473461 0.041737 0)
(-0.0579299 0.0475429 0)
(-0.0701878 0.0555054 0)
(-0.0848766 0.0664677 0)
(-0.103327 0.0810318 0)
(-0.125699 0.0975429 0)
(-0.149802 0.110643 0)
(-0.170685 0.112886 0)
(-0.184137 0.100827 0)
(-0.190297 0.0786737 0)
(-0.19258 0.0527523 0)
(-0.191849 0.0246849 0)
(-0.188073 -0.00389473 0)
(-0.182066 -0.0310421 0)
(-0.175159 -0.0559749 0)
(-0.169011 -0.0798016 0)
(-0.166085 -0.102587 0)
(-0.165824 -0.129102 0)
(-0.164613 -0.154297 0)
(-0.155598 -0.174671 0)
(-0.128569 -0.171608 0)
(-0.081551 -0.127525 0)
(-0.0120813 -0.0342587 0)
(0.00697032 0.0198053 0)
(-0.000921061 0.0170626 0)
(-0.00592582 0.0315709 0)
(-0.0129993 0.0372921 0)
(-0.0203466 0.0401559 0)
(-0.0285409 0.0430425 0)
(-0.0371315 0.0468236 0)
(-0.0466969 0.0520731 0)
(-0.0572318 0.0592742 0)
(-0.0695453 0.0694344 0)
(-0.084331 0.0835898 0)
(-0.102433 0.101676 0)
(-0.123008 0.119986 0)
(-0.143073 0.130905 0)
(-0.158293 0.126927 0)
(-0.166805 0.107892 0)
(-0.171007 0.0813833 0)
(-0.174045 0.0530934 0)
(-0.174839 0.0223275 0)
(-0.172105 -0.00912981 0)
(-0.165347 -0.0386031 0)
(-0.155936 -0.0639213 0)
(-0.145809 -0.0855351 0)
(-0.13899 -0.10349 0)
(-0.137727 -0.126232 0)
(-0.141653 -0.152414 0)
(-0.144436 -0.183283 0)
(-0.135228 -0.19978 0)
(-0.10498 -0.182806 0)
(-0.0424584 -0.0902703 0)
(0.0136296 0.0134937 0)
(-0.000768937 0.0202504 0)
(-0.0053499 0.0373342 0)
(-0.0119986 0.0441797 0)
(-0.0189828 0.047636 0)
(-0.0267801 0.0511113 0)
(-0.0349327 0.0555791 0)
(-0.0439928 0.0617858 0)
(-0.0539352 0.0703576 0)
(-0.0654689 0.0825653 0)
(-0.0789845 0.0993176 0)
(-0.0948199 0.119644 0)
(-0.111745 0.138067 0)
(-0.127224 0.145831 0)
(-0.138471 0.136608 0)
(-0.145656 0.113604 0)
(-0.151666 0.0858674 0)
(-0.157913 0.0565778 0)
(-0.161538 0.0226327 0)
(-0.16075 -0.0133798 0)
(-0.154475 -0.0474292 0)
(-0.144199 -0.075449 0)
(-0.131254 -0.0969949 0)
(-0.119946 -0.110533 0)
(-0.113564 -0.12653 0)
(-0.115782 -0.147424 0)
(-0.12247 -0.180821 0)
(-0.125284 -0.211457 0)
(-0.110232 -0.219627 0)
(-0.0685593 -0.154771 0)
(0.00226585 -0.00806734 0)
(-0.000596506 0.0232021 0)
(-0.00457035 0.0428918 0)
(-0.0105388 0.0509333 0)
(-0.0168955 0.0550102 0)
(-0.0239856 0.0590228 0)
(-0.0313407 0.0640981 0)
(-0.039437 0.071119 0)
(-0.0481691 0.0808103 0)
(-0.0580288 0.0945396 0)
(-0.0690606 0.112989 0)
(-0.0813221 0.134446 0)
(-0.0938251 0.152339 0)
(-0.105105 0.157625 0)
(-0.113876 0.145423 0)
(-0.121193 0.121179 0)
(-0.128806 0.093545 0)
(-0.136399 0.0629474 0)
(-0.140843 0.0250265 0)
(-0.141191 -0.0161521 0)
(-0.136155 -0.0554021 0)
(-0.127274 -0.0870629 0)
(-0.114746 -0.110124 0)
(-0.102678 -0.121092 0)
(-0.092936 -0.130636 0)
(-0.0922162 -0.143351 0)
(-0.0988709 -0.17368 0)
(-0.108161 -0.211767 0)
(-0.105257 -0.239492 0)
(-0.0781299 -0.203043 0)
(-0.0223597 -0.0519923 0)
(-0.000358121 0.0253499 0)
(-0.00354524 0.0472616 0)
(-0.00863204 0.0564218 0)
(-0.0141656 0.0610499 0)
(-0.020327 0.0654912 0)
(-0.0266171 0.0709888 0)
(-0.0334017 0.0785644 0)
(-0.040439 0.088912 0)
(-0.047976 0.103428 0)
(-0.0557098 0.122565 0)
(-0.0636232 0.14433 0)
(-0.0712446 0.161708 0)
(-0.078381 0.16582 0)
(-0.084786 0.152693 0)
(-0.0913892 0.128574 0)
(-0.0981767 0.100905 0)
(-0.104294 0.0686374 0)
(-0.107683 0.0273312 0)
(-0.108818 -0.0178976 0)
(-0.105789 -0.0615388 0)
(-0.10025 -0.0966621 0)
(-0.0908958 -0.121897 0)
(-0.0819226 -0.132195 0)
(-0.0723805 -0.137264 0)
(-0.0700633 -0.141361 0)
(-0.0745629 -0.164872 0)
(-0.0865551 -0.204861 0)
(-0.0910419 -0.249459 0)
(-0.0739383 -0.237998 0)
(-0.031689 -0.108552 0)
(-0.000151394 0.0271487 0)
(-0.00247338 0.0512539 0)
(-0.0065246 0.0615891 0)
(-0.0110528 0.0667846 0)
(-0.0160754 0.0715263 0)
(-0.0210567 0.0772439 0)
(-0.0262303 0.0850047 0)
(-0.0312188 0.0954534 0)
(-0.0360324 0.109888 0)
(-0.0400694 0.128683 0)
(-0.0432617 0.149996 0)
(-0.0456541 0.167032 0)
(-0.0482374 0.171212 0)
(-0.0514841 0.158516 0)
(-0.0559507 0.13473 0)
(-0.0600746 0.106351 0)
(-0.0633137 0.0726329 0)
(-0.0647507 0.0295556 0)
(-0.066382 -0.0177135 0)
(-0.0654095 -0.0641084 0)
(-0.0640942 -0.101664 0)
(-0.0594123 -0.128754 0)
(-0.0561614 -0.139428 0)
(-0.0505732 -0.142795 0)
(-0.0501448 -0.14102 0)
(-0.0533496 -0.1573 0)
(-0.065826 -0.195133 0)
(-0.0736433 -0.251725 0)
(-0.0639875 -0.263252 0)
(-0.0291738 -0.157946 0)
(8.64348e-05 0.0279023 0)
(-0.0013172 0.0535827 0)
(-0.00426198 0.0649184 0)
(-0.00772397 0.0705405 0)
(-0.0115527 0.0754255 0)
(-0.0151619 0.081079 0)
(-0.0186677 0.088674 0)
(-0.0215419 0.0986561 0)
(-0.0236535 0.112253 0)
(-0.0240865 0.12973 0)
(-0.022696 0.14985 0)
(-0.019692 0.166522 0)
(-0.0171978 0.171634 0)
(-0.0163372 0.160395 0)
(-0.0177607 0.137289 0)
(-0.0188286 0.10809 0)
(-0.0193899 0.0735013 0)
(-0.0186881 0.030349 0)
(-0.020297 -0.0168518 0)
(-0.0206329 -0.0639694 0)
(-0.0232389 -0.102301 0)
(-0.0233663 -0.13013 0)
(-0.026458 -0.140815 0)
(-0.0263243 -0.143603 0)
(-0.0303175 -0.138418 0)
(-0.0343987 -0.149389 0)
(-0.0478143 -0.184338 0)
(-0.0578046 -0.250771 0)
(-0.0541344 -0.282745 0)
(-0.0265129 -0.201815 0)
(0.000237059 0.0284542 0)
(-0.000289 0.0556919 0)
(-0.00210645 0.0680692 0)
(-0.00443148 0.0741661 0)
(-0.00700646 0.0790484 0)
(-0.00920265 0.0844425 0)
(-0.0110384 0.0914791 0)
(-0.0118873 0.100514 0)
(-0.0115481 0.112542 0)
(-0.00887669 0.127774 0)
(-0.00357627 0.145669 0)
(0.00448692 0.161462 0)
(0.0124756 0.167951 0)
(0.0184034 0.159116 0)
(0.0206649 0.137461 0)
(0.0224635 0.107842 0)
(0.0235692 0.0727613 0)
(0.0258395 0.0303791 0)
(0.0242227 -0.0153259 0)
(0.0229668 -0.0613119 0)
(0.0168128 -0.0985122 0)
(0.0120136 -0.12583 0)
(0.00264468 -0.136179 0)
(-0.00285661 -0.139266 0)
(-0.0120238 -0.132687 0)
(-0.0180444 -0.140105 0)
(-0.0325645 -0.171427 0)
(-0.0435354 -0.245023 0)
(-0.0450267 -0.294689 0)
(-0.0234576 -0.238738 0)
(0.000407069 0.0278684 0)
(0.00068425 0.0558256 0)
(-7.04285e-05 0.0689709 0)
(-0.00134775 0.0753378 0)
(-0.00279341 0.0801145 0)
(-0.0037317 0.0850042 0)
(-0.00414865 0.091295 0)
(-0.00328746 0.0990624 0)
(-0.00105331 0.109212 0)
(0.00391011 0.121649 0)
(0.0118519 0.136456 0)
(0.0237183 0.150265 0)
(0.0367095 0.157717 0)
(0.0485654 0.152087 0)
(0.0556808 0.133412 0)
(0.0610818 0.104943 0)
(0.0634945 0.0703422 0)
(0.0666594 0.0294578 0)
(0.0644108 -0.0136162 0)
(0.0618247 -0.0568327 0)
(0.0521765 -0.0909961 0)
(0.0431227 -0.116363 0)
(0.0282039 -0.12566 0)
(0.0178137 -0.129359 0)
(0.0036371 -0.122894 0)
(-0.00488921 -0.1293 0)
(-0.0211742 -0.158415 0)
(-0.0327223 -0.238183 0)
(-0.0382731 -0.302706 0)
(-0.0211654 -0.270555 0)
(0.000444693 0.0274797 0)
(0.00139822 0.0562741 0)
(0.0015966 0.0702227 0)
(0.00134978 0.0770028 0)
(0.000987209 0.0815611 0)
(0.00121526 0.0859005 0)
(0.00205236 0.0911736 0)
(0.00430648 0.0975017 0)
(0.00793151 0.105502 0)
(0.0143458 0.114912 0)
(0.0235532 0.126014 0)
(0.0372242 0.136524 0)
(0.0530299 0.143249 0)
(0.0697623 0.140076 0)
(0.0818805 0.125284 0)
(0.0917774 0.0999113 0)
(0.095999 0.0676032 0)
(0.0998984 0.0293365 0)
(0.0965792 -0.00996737 0)
(0.0921687 -0.0492672 0)
(0.0791072 -0.0793354 0)
(0.0665381 -0.102222 0)
(0.0473774 -0.110444 0)
(0.0337336 -0.115158 0)
(0.0158599 -0.109476 0)
(0.00565403 -0.115883 0)
(-0.012367 -0.142979 0)
(-0.0239701 -0.228081 0)
(-0.0333419 -0.305884 0)
(-0.0193568 -0.298456 0)
(0.000535647 0.0259103 0)
(0.00199613 0.054511 0)
(0.00299287 0.0689059 0)
(0.00356217 0.0757815 0)
(0.00403072 0.080143 0)
(0.00515564 0.0837668 0)
(0.00684937 0.0881176 0)
(0.0100898 0.0930057 0)
(0.0145008 0.0991283 0)
(0.0216622 0.105835 0)
(0.0309944 0.113574 0)
(0.04474 0.120519 0)
(0.0605948 0.125189 0)
(0.0793233 0.122929 0)
(0.094328 0.111569 0)
(0.107975 0.0905024 0)
(0.11415 0.0624991 0)
(0.118951 0.0285437 0)
(0.11488 -0.00552518 0)
(0.10919 -0.0397656 0)
(0.0938584 -0.06502 0)
(0.0795989 -0.0852013 0)
(0.0582792 -0.0924483 0)
(0.0435496 -0.0985083 0)
(0.0235389 -0.0942122 0)
(0.0127819 -0.101922 0)
(-0.00676675 -0.128 0)
(-0.0178012 -0.217774 0)
(-0.0304554 -0.306739 0)
(-0.017991 -0.323655 0)
(0.00044724 0.0251204 0)
(0.00227526 0.0539647 0)
(0.00385287 0.0688386 0)
(0.00519559 0.0761228 0)
(0.00644641 0.080159 0)
(0.00837868 0.0832242 0)
(0.0108291 0.0864441 0)
(0.0147963 0.0899505 0)
(0.0196866 0.0941549 0)
(0.0271221 0.0984538 0)
(0.0359809 0.103182 0)
(0.0488059 0.106844 0)
(0.0629081 0.108901 0)
(0.0807953 0.106132 0)
(0.0956645 0.0969219 0)
(0.110654 0.0797984 0)
(0.117787 0.0569855 0)
(0.123278 0.0282769 0)
(0.119014 0.000228104 0)
(0.113325 -0.0286478 0)
(0.0975738 -0.0492473 0)
(0.0840053 -0.0671954 0)
(0.0627235 -0.0737474 0)
(0.0490439 -0.0811348 0)
(0.0282829 -0.0778097 0)
(0.0182019 -0.0865813 0)
(-0.00276423 -0.111248 0)
(-0.0127332 -0.205287 0)
(-0.0289604 -0.304768 0)
(-0.0167553 -0.347338 0)
(0.000508818 0.0230176 0)
(0.00247023 0.0508617 0)
(0.004478 0.065828 0)
(0.00628766 0.0729279 0)
(0.00797021 0.0768099 0)
(0.0104139 0.0791157 0)
(0.0131743 0.0815804 0)
(0.0175539 0.0838705 0)
(0.022482 0.0867355 0)
(0.0298861 0.0892433 0)
(0.0379318 0.0918967 0)
(0.0495402 0.0932489 0)
(0.061295 0.0932761 0)
(0.0769624 0.0897634 0)
(0.0896929 0.0818639 0)
(0.103835 0.0679098 0)
(0.11057 0.0500992 0)
(0.116356 0.0267938 0)
(0.112286 0.00474359 0)
(0.107794 -0.0189428 0)
(0.0930878 -0.0352633 0)
(0.0818606 -0.0511465 0)
(0.06182 -0.0568305 0)
(0.050371 -0.0651009 0)
(0.0295815 -0.0623712 0)
(0.0212038 -0.0722873 0)
(-0.00085335 -0.0956797 0)
(-0.00896938 -0.193044 0)
(-0.0288757 -0.301512 0)
(-0.0154241 -0.369995 0)
(0.000282228 0.0223875 0)
(0.0023054 0.0502276 0)
(0.00439747 0.0652829 0)
(0.00666944 0.0728763 0)
(0.00886746 0.0763076 0)
(0.011829 0.0782354 0)
(0.0150439 0.0796034 0)
(0.019737 0.0807916 0)
(0.024698 0.082148 0)
(0.0319024 0.0830561 0)
(0.0391196 0.0838835 0)
(0.0494616 0.0834159 0)
(0.0590067 0.0818647 0)
(0.0721343 0.077546 0)
(0.0821305 0.0704737 0)
(0.0942112 0.0586296 0)
(0.0995823 0.0449409 0)
(0.105167 0.026176 0)
(0.101285 0.00937387 0)
(0.0984638 -0.00996599 0)
(0.0853102 -0.0225569 0)
(0.0770868 -0.0366628 0)
(0.058659 -0.0412164 0)
(0.0501695 -0.0499555 0)
(0.0297094 -0.047167 0)
(0.0239242 -0.057729 0)
(0.000674937 -0.0790805 0)
(-0.00510725 -0.17913 0)
(-0.0295958 -0.296542 0)
(-0.0136631 -0.392341 0)
(0.000422767 0.0201744 0)
(0.00219671 0.0463829 0)
(0.00439182 0.0612357 0)
(0.00674453 0.0680579 0)
(0.00890003 0.0714329 0)
(0.0120659 0.0725237 0)
(0.0151466 0.0734923 0)
(0.0199583 0.0737983 0)
(0.0245986 0.0744649 0)
(0.031555 0.0743963 0)
(0.0379149 0.0743351 0)
(0.0472173 0.072914 0)
(0.0549458 0.0707146 0)
(0.0659973 0.06616 0)
(0.0735483 0.0600117 0)
(0.0836391 0.0499412 0)
(0.0873566 0.0394848 0)
(0.0926963 0.024492 0)
(0.0888578 0.0119284 0)
(0.0878219 -0.00374178 0)
(0.0761166 -0.01321 0)
(0.0709582 -0.0255726 0)
(0.0539835 -0.0289142 0)
(0.0486501 -0.0376768 0)
(0.0284506 -0.034592 0)
(0.0257613 -0.045465 0)
(0.00113393 -0.0643724 0)
(-0.00162031 -0.16549 0)
(-0.031384 -0.290773 0)
(-0.011285 -0.414308 0)
(-7.15003e-05 0.0201094 0)
(0.00147954 0.0466381 0)
(0.00314024 0.0610856 0)
(0.00567754 0.068775 0)
(0.00832593 0.0713774 0)
(0.0118764 0.0723421 0)
(0.0154229 0.0721445 0)
(0.0204019 0.0715808 0)
(0.0250126 0.0710127 0)
(0.031686 0.0698397 0)
(0.0373524 0.0687112 0)
(0.0456904 0.0663352 0)
(0.0519617 0.0636097 0)
(0.0612672 0.0587537 0)
(0.0668482 0.0534091 0)
(0.0751769 0.0445049 0)
(0.077359 0.0365553 0)
(0.0822637 0.0242102 0)
(0.0782599 0.0150859 0)
(0.0785814 0.00209758 0)
(0.0678414 -0.0045818 0)
(0.0653014 -0.0155341 0)
(0.0492856 -0.0173527 0)
(0.0470895 -0.0259382 0)
(0.0269254 -0.022021 0)
(0.0279889 -0.0327875 0)
(0.00186592 -0.0484511 0)
(0.0029685 -0.14982 0)
(-0.0335569 -0.283717 0)
(-0.00784914 -0.436217 0)
(0.000433913 0.018409 0)
(0.00137713 0.0426322 0)
(0.00295436 0.0567233 0)
(0.00517129 0.0622348 0)
(0.0070178 0.0649131 0)
(0.0105641 0.0647776 0)
(0.0135293 0.064688 0)
(0.018603 0.0635855 0)
(0.0227773 0.0630078 0)
(0.0293345 0.0614546 0)
(0.0343667 0.060301 0)
(0.0421427 0.0577046 0)
(0.0473423 0.055259 0)
(0.0556141 0.0506524 0)
(0.0597448 0.046373 0)
(0.0671169 0.0387593 0)
(0.0680567 0.0328304 0)
(0.0729997 0.0227946 0)
(0.0687118 0.0162383 0)
(0.0705023 0.00563032 0)
(0.0603539 0.000977256 0)
(0.0603506 -0.00849567 0)
(0.0449513 -0.00933362 0)
(0.0458226 -0.0174945 0)
(0.0254165 -0.0133174 0)
(0.0302342 -0.0237125 0)
(0.0022363 -0.0358746 0)
(0.0075863 -0.134597 0)
(-0.0367215 -0.276232 0)
(-0.00323841 -0.457581 0)
(-0.00100339 0.0187007 0)
(-0.00081516 0.0447461 0)
(-0.000426208 0.0577114 0)
(0.00194444 0.0654176 0)
(0.00506257 0.0665287 0)
(0.00906907 0.066435 0)
(0.0129139 0.0647358 0)
(0.018171 0.0627378 0)
(0.0224731 0.0609429 0)
(0.028837 0.0584322 0)
(0.0333998 0.0565772 0)
(0.0405723 0.0533291 0)
(0.0448587 0.0508409 0)
(0.0521902 0.0461266 0)
(0.0551699 0.042674 0)
(0.0616503 0.0357808 0)
(0.0616464 0.0315763 0)
(0.0663245 0.0229213 0)
(0.0617526 0.0187319 0)
(0.0643038 0.00952225 0)
(0.0543914 0.00712809 0)
(0.0561224 -0.00151027 0)
(0.0407957 -0.000606054 0)
(0.0443945 -0.00849846 0)
(0.0232919 -0.00314902 0)
(0.0326114 -0.0129596 0)
(0.00294794 -0.0208598 0)
(0.0144 -0.11588 0)
(-0.0393819 -0.267495 0)
(0.00339559 -0.478291 0)
(0.00109324 0.0198803 0)
(0.000637317 0.0412457 0)
(9.98892e-05 0.0536231 0)
(0.0015322 0.0556827 0)
(0.00209237 0.057311 0)
(0.00615406 0.0558797 0)
(0.00886403 0.0551386 0)
(0.0145504 0.0530813 0)
(0.0184587 0.0520586 0)
(0.0251038 0.0496687 0)
(0.0293506 0.0484947 0)
(0.0365138 0.045424 0)
(0.040261 0.0437815 0)
(0.047405 0.0395075 0)
(0.0495918 0.0372532 0)
(0.056058 0.0313778 0)
(0.0552557 0.0287028 0)
(0.0605326 0.0216177 0)
(0.0554639 0.0190506 0)
(0.0595314 0.0116033 0)
(0.0494544 0.0102994 0)
(0.053502 0.00314461 0)
(0.0380399 0.00412697 0)
(0.0444888 -0.0029355 0)
(0.0227822 0.00129551 0)
(0.0357112 -0.00802841 0)
(0.00460517 -0.0128504 0)
(0.021587 -0.0993234 0)
(-0.0419344 -0.259212 0)
(0.0122761 -0.49692 0)
(-0.00507156 0.0170763 0)
(-0.00721698 0.0467664 0)
(-0.00677971 0.0571385 0)
(-0.00471065 0.0647298 0)
(-0.000249841 0.0626802 0)
(0.0041855 0.0607367 0)
(0.00847928 0.0572894 0)
(0.0142421 0.0538239 0)
(0.0184323 0.0513514 0)
(0.024943 0.0478469 0)
(0.028854 0.0461087 0)
(0.0357095 0.042409 0)
(0.038828 0.0409046 0)
(0.0455585 0.0365116 0)
(0.0470424 0.0350578 0)
(0.0531247 0.0295614 0)
(0.0518143 0.0283276 0)
(0.0569044 0.0218403 0)
(0.0516832 0.021306 0)
(0.0559532 0.0142387 0)
(0.0458989 0.0153146 0)
(0.0507271 0.00801156 0)
(0.0348449 0.0115092 0)
(0.0432625 0.00394675 0)
(0.019939 0.0102167 0)
(0.0377043 0.000847423 0)
(0.00461456 0.000187152 0)
(0.033704 -0.0764054 0)
(-0.0389324 -0.249096 0)
(0.0258117 -0.511968 0)
(0.00456623 0.0327018 0)
(-0.000341548 0.0416987 0)
(-0.00956173 0.0510222 0)
(-0.00779285 0.0472036 0)
(-0.00871551 0.0476296 0)
(-0.00215947 0.0453949 0)
(0.00104065 0.0443225 0)
(0.00859842 0.0416765 0)
(0.0128318 0.040897 0)
(0.0203556 0.0380047 0)
(0.0243923 0.0376048 0)
(0.0317345 0.0343045 0)
(0.0347298 0.0341147 0)
(0.0417938 0.0301501 0)
(0.0428137 0.0301413 0)
(0.0495272 0.0253799 0)
(0.0474225 0.0256387 0)
(0.0539758 0.0203327 0)
(0.0476324 0.0209995 0)
(0.054747 0.0156187 0)
(0.0432528 0.0168965 0)
(0.0526045 0.0117795 0)
(0.0350854 0.0135816 0)
(0.0493916 0.0083031 0)
(0.0243951 0.0100717 0)
(0.0479102 0.00128976 0)
(0.0126195 -0.00339539 0)
(0.0527361 -0.0659766 0)
(-0.0267371 -0.242871 0)
(0.045082 -0.516821 0)
(-0.0121718 0.0107631 0)
(-0.0117503 0.062747 0)
(-0.0022437 0.0644162 0)
(-0.00727841 0.0665422 0)
(-0.00249007 0.0583199 0)
(0.000567407 0.0529169 0)
(0.00413331 0.0480507 0)
(0.00944754 0.0431515 0)
(0.0130922 0.0410278 0)
(0.0195705 0.0367713 0)
(0.0229098 0.0360625 0)
(0.0303298 0.032088 0)
(0.0325765 0.0321554 0)
(0.0408553 0.0280608 0)
(0.0409991 0.0287277 0)
(0.050198 0.0242056 0)
(0.047094 0.0255338 0)
(0.0575594 0.0204235 0)
(0.0501227 0.0226708 0)
(0.0626876 0.0167921 0)
(0.0497572 0.0204271 0)
(0.066205 0.0134919 0)
(0.0457576 0.0190328 0)
(0.0695349 0.0107993 0)
(0.0373329 0.0180207 0)
(0.0755694 0.00736647 0)
(0.0268208 0.00419238 0)
(0.0952712 -0.0454906 0)
(0.0197378 -0.223634 0)
(0.0817513 -0.499881 0)
(-0.0728816 0.0628548 0)
(-0.0597394 0.0286208 0)
(-0.0785615 0.0468272 0)
(-0.0524944 0.0434909 0)
(-0.04669 0.0382148 0)
(-0.0240048 0.0358568 0)
(-0.0144041 0.0341102 0)
(0.00623593 0.0305232 0)
(0.0145352 0.0300323 0)
(0.0352192 0.0263979 0)
(0.0404598 0.0266408 0)
(0.0624492 0.0230198 0)
(0.0636066 0.0238252 0)
(0.0878928 0.0201233 0)
(0.0838293 0.021408 0)
(0.111588 0.0175814 0)
(0.100783 0.019222 0)
(0.133646 0.0154052 0)
(0.114151 0.0171402 0)
(0.15445 0.0137785 0)
(0.123793 0.0149736 0)
(0.174753 0.0130133 0)
(0.129973 0.0122453 0)
(0.195705 0.012708 0)
(0.13416 0.00661583 0)
(0.219046 0.00464484 0)
(0.141324 -0.0213192 0)
(0.242131 -0.0731287 0)
(0.135351 -0.222885 0)
(0.140037 -0.43761 0)
(0.0815148 0.131934 0)
(0.124366 0.0732517 0)
(0.174257 0.0569601 0)
(0.230315 0.0391972 0)
(0.254708 0.0317315 0)
(0.299534 0.0233245 0)
(0.312145 0.0199073 0)
(0.353237 0.01555 0)
(0.356771 0.0139554 0)
(0.397307 0.0113327 0)
(0.393145 0.0105917 0)
(0.434996 0.00886407 0)
(0.423621 0.00844106 0)
(0.468055 0.00731763 0)
(0.449511 0.00688525 0)
(0.497468 0.00627852 0)
(0.471595 0.0056497 0)
(0.523808 0.00549593 0)
(0.490415 0.00465955 0)
(0.547471 0.0047427 0)
(0.506448 0.00398666 0)
(0.568738 0.00367251 0)
(0.52009 0.00376628 0)
(0.587461 0.00147553 0)
(0.530281 0.00352765 0)
(0.599869 -0.00519801 0)
(0.523162 -0.00313586 0)
(0.573165 -0.036687 0)
(0.400029 -0.0624721 0)
(0.296791 -0.199789 0)
)
;

boundaryField
{
    movingWall
    {
        type            fixedValue;
        value           uniform (1 0 0);
    }
    fixedWalls
    {
        type            noSlip;
    }
    frontAndBack
    {
        type            empty;
    }
}


// ************************************************************************* //
