/*--------------------------------*- C++ -*----------------------------------*\
| =========                 |                                                 |
| \\      /  F ield         | OpenFOAM: The Open Source CFD Toolbox           |
|  \\    /   O peration     | Version:  2406                                  |
|   \\  /    A nd           | Website:  www.openfoam.com                      |
|    \\/     M anipulation  |                                                 |
\*---------------------------------------------------------------------------*/
FoamFile
{
    version     2.0;
    format      ascii;
    arch        "LSB;label=32;scalar=64";
    class       volVectorField;
    location    "11.4";
    object      Uold;
}
// * * * * * * * * * * * * * * * * * * * * * * * * * * * * * * * * * * * * * //

dimensions      [0 1 -1 0 0 0 0];

internalField   nonuniform List<vector> 
900
(
(0.000238378 -0.000266081 0)
(-7.68458e-05 -0.000116423 0)
(-0.000751304 -0.000103953 0)
(-0.00143168 -0.000118008 0)
(-0.00216687 -0.000166345 0)
(-0.00282951 -0.000188987 0)
(-0.00363569 -0.000196422 0)
(-0.00457313 -0.000169135 0)
(-0.00589128 -0.000107124 0)
(-0.00769087 6.72697e-06 0)
(-0.0102603 0.000188309 0)
(-0.0137831 0.000477178 0)
(-0.018547 0.000923368 0)
(-0.0246592 0.00156277 0)
(-0.0320961 0.0023379 0)
(-0.040328 0.0030498 0)
(-0.048436 0.00337726 0)
(-0.0549798 0.00301237 0)
(-0.0586379 0.0018675 0)
(-0.0580842 0.000120115 0)
(-0.0529435 -0.00189841 0)
(-0.0430219 -0.0037776 0)
(-0.0296402 -0.0049802 0)
(-0.0142252 -0.00510459 0)
(-0.000126929 -0.00375689 0)
(0.00984156 -0.00145791 0)
(0.012845 0.00085191 0)
(0.0102642 0.00187045 0)
(0.00543117 0.00188353 0)
(0.000859552 0.00102725 0)
(-5.19761e-05 0.000103375 0)
(-0.00162603 0.0011356 0)
(-0.00404236 0.00145213 0)
(-0.00655672 0.00156188 0)
(-0.00932212 0.00156368 0)
(-0.0121417 0.00168388 0)
(-0.0153859 0.00194854 0)
(-0.0190976 0.00245258 0)
(-0.0237248 0.00324678 0)
(-0.0294833 0.00440206 0)
(-0.0367981 0.00594985 0)
(-0.0458015 0.0078753 0)
(-0.0565647 0.0100344 0)
(-0.0686963 0.0120845 0)
(-0.081511 0.0134442 0)
(-0.0937949 0.0133994 0)
(-0.104179 0.0113901 0)
(-0.11102 0.00728234 0)
(-0.113051 0.00134749 0)
(-0.109355 -0.00576348 0)
(-0.0999446 -0.0130824 0)
(-0.0848072 -0.0195664 0)
(-0.0650959 -0.0237933 0)
(-0.0420915 -0.0245562 0)
(-0.0188361 -0.0202924 0)
(0.000947841 -0.0116303 0)
(0.0120469 -0.00114709 0)
(0.0129386 0.00547203 0)
(0.00787738 0.00765221 0)
(0.00148853 0.00525245 0)
(-0.000374612 0.00138625 0)
(-0.00318015 0.00388044 0)
(-0.00725529 0.00478472 0)
(-0.011468 0.00515736 0)
(-0.0161229 0.00537967 0)
(-0.0209745 0.00585996 0)
(-0.0264947 0.00671954 0)
(-0.0327326 0.00813988 0)
(-0.0401772 0.0102267 0)
(-0.0489794 0.0130241 0)
(-0.0594592 0.0164255 0)
(-0.0715921 0.0201442 0)
(-0.0853843 0.0236931 0)
(-0.100529 0.0263666 0)
(-0.116528 0.0272928 0)
(-0.132046 0.0255858 0)
(-0.145014 0.020519 0)
(-0.153362 0.011824 0)
(-0.15627 0.000218321 0)
(-0.153282 -0.0129581 0)
(-0.144396 -0.026311 0)
(-0.129477 -0.0385386 0)
(-0.108811 -0.0474797 0)
(-0.0829555 -0.0512968 0)
(-0.0532621 -0.0465808 0)
(-0.0237329 -0.0323425 0)
(-0.000170633 -0.0109992 0)
(0.00910088 0.00588891 0)
(0.0071317 0.0133519 0)
(0.00136047 0.0102643 0)
(-0.000671162 0.00365986 0)
(-0.00453606 0.00807262 0)
(-0.00997704 0.00973615 0)
(-0.0155722 0.0104774 0)
(-0.0217828 0.0110826 0)
(-0.0283126 0.0121006 0)
(-0.035684 0.0137332 0)
(-0.0438766 0.0161843 0)
(-0.053314 0.0195368 0)
(-0.0640344 0.0237454 0)
(-0.0763865 0.0286276 0)
(-0.0906528 0.0338833 0)
(-0.107473 0.0390682 0)
(-0.127011 0.0433439 0)
(-0.148162 0.0450976 0)
(-0.167762 0.0420091 0)
(-0.182667 0.0328048 0)
(-0.191837 0.0185763 0)
(-0.195495 0.00128658 0)
(-0.193549 -0.0177161 0)
(-0.186501 -0.0369523 0)
(-0.17406 -0.0553326 0)
(-0.155846 -0.0704018 0)
(-0.131319 -0.0803278 0)
(-0.0994616 -0.079504 0)
(-0.0628969 -0.0648308 0)
(-0.0249031 -0.0337831 0)
(0.00026126 -0.00190416 0)
(0.00490689 0.015508 0)
(0.000902023 0.0137277 0)
(-0.000854529 0.00654702 0)
(-0.00544682 0.0132028 0)
(-0.0118452 0.0157585 0)
(-0.0184103 0.0169572 0)
(-0.0257124 0.0180694 0)
(-0.0333915 0.0197394 0)
(-0.0419875 0.022234 0)
(-0.0514088 0.0257341 0)
(-0.0620853 0.0303308 0)
(-0.0741884 0.0360477 0)
(-0.088537 0.042984 0)
(-0.10611 0.0511709 0)
(-0.127839 0.0599844 0)
(-0.152696 0.0669734 0)
(-0.17692 0.0679314 0)
(-0.195778 0.0599348 0)
(-0.2079 0.0444388 0)
(-0.214528 0.0244735 0)
(-0.21626 0.00178878 0)
(-0.213841 -0.022129 0)
(-0.20846 -0.0458895 0)
(-0.199795 -0.0693533 0)
(-0.187587 -0.0902557 0)
(-0.169798 -0.107813 0)
(-0.143399 -0.114973 0)
(-0.107217 -0.1069 0)
(-0.0610899 -0.0740059 0)
(-0.0157816 -0.0239349 0)
(0.00354038 0.0128037 0)
(0.00103043 0.0160081 0)
(-0.000971728 0.0099624 0)
(-0.0060096 0.0191414 0)
(-0.0129944 0.0226893 0)
(-0.0201678 0.0244027 0)
(-0.0281524 0.0260769 0)
(-0.0365372 0.0284259 0)
(-0.0458713 0.0317782 0)
(-0.056052 0.0363325 0)
(-0.0676415 0.0423582 0)
(-0.0811463 0.0502544 0)
(-0.0978945 0.0606026 0)
(-0.11896 0.0732353 0)
(-0.144029 0.0856698 0)
(-0.1695 0.0923954 0)
(-0.190002 0.0881388 0)
(-0.202555 0.0729251 0)
(-0.208926 0.0515083 0)
(-0.210964 0.0268684 0)
(-0.20922 0.00057275 0)
(-0.205219 -0.0256299 0)
(-0.200292 -0.0510391 0)
(-0.194926 -0.0764041 0)
(-0.189775 -0.100511 0)
(-0.182364 -0.124799 0)
(-0.168472 -0.142239 0)
(-0.143034 -0.147393 0)
(-0.101012 -0.125089 0)
(-0.0454309 -0.0665929 0)
(0.00190602 -0.00115452 0)
(0.0019935 0.0182916 0)
(-0.000972598 0.0134696 0)
(-0.00611628 0.0252454 0)
(-0.0133014 0.0298397 0)
(-0.0207126 0.0321066 0)
(-0.0289718 0.0343798 0)
(-0.0376366 0.0374328 0)
(-0.0472764 0.0416965 0)
(-0.0578372 0.0474691 0)
(-0.0700597 0.0553765 0)
(-0.0846943 0.066259 0)
(-0.103077 0.0807399 0)
(-0.125401 0.0972224 0)
(-0.149523 0.110408 0)
(-0.170509 0.112836 0)
(-0.184097 0.100949 0)
(-0.190346 0.0788616 0)
(-0.192673 0.0529453 0)
(-0.191985 0.0248751 0)
(-0.188237 -0.00374059 0)
(-0.18225 -0.0309312 0)
(-0.175359 -0.0559068 0)
(-0.169205 -0.0797807 0)
(-0.16626 -0.102586 0)
(-0.165959 -0.129098 0)
(-0.164705 -0.154279 0)
(-0.155636 -0.174621 0)
(-0.128556 -0.17152 0)
(-0.0814978 -0.127409 0)
(-0.012041 -0.0341961 0)
(0.00695508 0.019797 0)
(-0.000918977 0.0170579 0)
(-0.00591476 0.0315599 0)
(-0.0129766 0.037279 0)
(-0.0203123 0.0401397 0)
(-0.028493 0.043019 0)
(-0.0370684 0.0467861 0)
(-0.0466151 0.0520109 0)
(-0.057125 0.0591689 0)
(-0.0694023 0.0692593 0)
(-0.0841394 0.0833238 0)
(-0.102194 0.101341 0)
(-0.122758 0.119676 0)
(-0.142878 0.130753 0)
(-0.158209 0.126999 0)
(-0.16682 0.108108 0)
(-0.171054 0.0816128 0)
(-0.1741 0.0533105 0)
(-0.174921 0.0225426 0)
(-0.172215 -0.0089531 0)
(-0.165486 -0.0384712 0)
(-0.156095 -0.0638415 0)
(-0.145975 -0.0855163 0)
(-0.139149 -0.103506 0)
(-0.137862 -0.126256 0)
(-0.141763 -0.152432 0)
(-0.144516 -0.18328 0)
(-0.135269 -0.199745 0)
(-0.104981 -0.182732 0)
(-0.0424151 -0.0901752 0)
(0.0136256 0.0135034 0)
(-0.000766874 0.0202389 0)
(-0.00533837 0.0373124 0)
(-0.0119745 0.0441544 0)
(-0.0189459 0.0476065 0)
(-0.0267287 0.0510729 0)
(-0.0348653 0.0555241 0)
(-0.0439062 0.0617015 0)
(-0.053825 0.0702226 0)
(-0.0653279 0.0823517 0)
(-0.0788081 0.0990131 0)
(-0.0946179 0.119294 0)
(-0.111553 0.137792 0)
(-0.12709 0.145761 0)
(-0.13842 0.136766 0)
(-0.145652 0.113857 0)
(-0.151656 0.086097 0)
(-0.157905 0.0568052 0)
(-0.161566 0.0228785 0)
(-0.160822 -0.0131675 0)
(-0.154588 -0.0472684 0)
(-0.144338 -0.075353 0)
(-0.131404 -0.0969736 0)
(-0.120091 -0.110562 0)
(-0.113687 -0.126575 0)
(-0.115879 -0.147461 0)
(-0.122544 -0.180839 0)
(-0.125338 -0.211449 0)
(-0.110261 -0.219594 0)
(-0.0685536 -0.154706 0)
(0.00229777 -0.00803684 0)
(-0.000594721 0.0231838 0)
(-0.00455947 0.0428586 0)
(-0.0105155 0.0508949 0)
(-0.0168592 0.0549666 0)
(-0.0239349 0.0589686 0)
(-0.0312746 0.0640254 0)
(-0.0393534 0.0710139 0)
(-0.0480661 0.0806505 0)
(-0.0579042 0.0942984 0)
(-0.0689156 0.112662 0)
(-0.081167 0.134095 0)
(-0.0936833 0.152097 0)
(-0.105004 0.157612 0)
(-0.113819 0.145623 0)
(-0.121147 0.121438 0)
(-0.128749 0.0937721 0)
(-0.136355 0.0632004 0)
(-0.140842 0.0253205 0)
(-0.141237 -0.0158905 0)
(-0.136246 -0.0552044 0)
(-0.127393 -0.0869463 0)
(-0.114879 -0.110099 0)
(-0.10281 -0.121136 0)
(-0.0930512 -0.130708 0)
(-0.0923069 -0.143418 0)
(-0.0989383 -0.173721 0)
(-0.108212 -0.211777 0)
(-0.10529 -0.239477 0)
(-0.0781476 -0.20301 0)
(-0.022343 -0.0519438 0)
(-0.000356881 0.0253258 0)
(-0.00353616 0.0472181 0)
(-0.00861152 0.0563712 0)
(-0.0141331 0.0609932 0)
(-0.0202812 0.065423 0)
(-0.0265576 0.0709008 0)
(-0.0333279 0.0784432 0)
(-0.0403516 0.0887359 0)
(-0.0478775 0.103172 0)
(-0.0556051 0.122231 0)
(-0.0635183 0.143984 0)
(-0.0711468 0.161486 0)
(-0.0782969 0.165834 0)
(-0.0847124 0.152906 0)
(-0.091312 0.12883 0)
(-0.0980997 0.101138 0)
(-0.104236 0.0689186 0)
(-0.107655 0.0276669 0)
(-0.108824 -0.0175918 0)
(-0.105834 -0.0613055 0)
(-0.100322 -0.0965239 0)
(-0.0909839 -0.121862 0)
(-0.0820155 -0.132242 0)
(-0.0724664 -0.13735 0)
(-0.0701334 -0.141446 0)
(-0.0746151 -0.16493 0)
(-0.0865971 -0.204887 0)
(-0.0910763 -0.24946 0)
(-0.0739615 -0.237982 0)
(-0.0316993 -0.108522 0)
(-0.000150796 0.0271201 0)
(-0.00246684 0.0512014 0)
(-0.00650849 0.0615272 0)
(-0.0110263 0.0667156 0)
(-0.0160378 0.0714453 0)
(-0.0210082 0.0771431 0)
(-0.0261716 0.0848716 0)
(-0.031153 0.0952686 0)
(-0.0359656 0.109629 0)
(-0.0400093 0.12835 0)
(-0.04321 0.149654 0)
(-0.0456019 0.166811 0)
(-0.0481737 0.171222 0)
(-0.0514038 0.158722 0)
(-0.0558613 0.134987 0)
(-0.0599987 0.106598 0)
(-0.0632571 0.0729326 0)
(-0.0647043 0.0299136 0)
(-0.0663492 -0.017377 0)
(-0.0654036 -0.0638447 0)
(-0.0641094 -0.101505 0)
(-0.0594452 -0.128707 0)
(-0.0562055 -0.139474 0)
(-0.0506211 -0.14289 0)
(-0.0501875 -0.141121 0)
(-0.0533802 -0.157368 0)
(-0.0658494 -0.195162 0)
(-0.0736635 -0.251729 0)
(-0.0640032 -0.263245 0)
(-0.0291807 -0.157931 0)
(8.63436e-05 0.027871 0)
(-0.0013137 0.0535238 0)
(-0.00425144 0.0648479 0)
(-0.00770535 0.0704622 0)
(-0.0115256 0.0753352 0)
(-0.0151272 0.08097 0)
(-0.0186273 0.0885354 0)
(-0.0215005 0.0984717 0)
(-0.0236199 0.112003 0)
(-0.0240711 0.129411 0)
(-0.0226997 0.149513 0)
(-0.0196933 0.166288 0)
(-0.017167 0.171618 0)
(-0.0162656 0.160581 0)
(-0.0176691 0.137551 0)
(-0.0187541 0.108357 0)
(-0.019335 0.0738098 0)
(-0.0186309 0.0307082 0)
(-0.0202333 -0.016505 0)
(-0.0205771 -0.0636877 0)
(-0.0231935 -0.102123 0)
(-0.0233355 -0.130066 0)
(-0.0264436 -0.140847 0)
(-0.0263259 -0.14369 0)
(-0.0303293 -0.13852 0)
(-0.0344118 -0.149465 0)
(-0.0478258 -0.184374 0)
(-0.0578161 -0.250779 0)
(-0.0541434 -0.282743 0)
(-0.0265175 -0.201808 0)
(0.000236394 0.0284222 0)
(-0.000288574 0.0556287 0)
(-0.00210188 0.0679922 0)
(-0.0044215 0.0740805 0)
(-0.006991 0.0789512 0)
(-0.0091831 0.0843283 0)
(-0.0110174 0.0913393 0)
(-0.0118705 0.100336 0)
(-0.0115456 0.11231 0)
(-0.00890161 0.12748 0)
(-0.00363345 0.145344 0)
(0.00442134 0.161206 0)
(0.012451 0.167886 0)
(0.0184458 0.159261 0)
(0.0207534 0.137716 0)
(0.0225513 0.108127 0)
(0.0236428 0.0730765 0)
(0.0259172 0.030728 0)
(0.024315 -0.0149875 0)
(0.0230648 -0.0610298 0)
(0.0169095 -0.0983267 0)
(0.0120985 -0.125752 0)
(0.00271033 -0.136193 0)
(-0.00281429 -0.139335 0)
(-0.0120019 -0.132776 0)
(-0.0180355 -0.140174 0)
(-0.0325614 -0.171457 0)
(-0.0435365 -0.245029 0)
(-0.045029 -0.294688 0)
(-0.0234596 -0.238737 0)
(0.000405967 0.0278373 0)
(0.000681849 0.0557614 0)
(-7.17268e-05 0.0688909 0)
(-0.00134643 0.0752486 0)
(-0.00278961 0.0800146 0)
(-0.00372705 0.0848896 0)
(-0.00414621 0.0911591 0)
(-0.00329308 0.0988965 0)
(-0.00107696 0.109004 0)
(0.0038539 0.12139 0)
(0.0117524 0.13616 0)
(0.0235885 0.149999 0)
(0.0366024 0.157592 0)
(0.0485338 0.152159 0)
(0.0557263 0.133629 0)
(0.0611628 0.105226 0)
(0.063585 0.0706603 0)
(0.0667602 0.0297985 0)
(0.0645274 -0.0132889 0)
(0.0619512 -0.056555 0)
(0.0523053 -0.0908044 0)
(0.0432403 -0.116268 0)
(0.0283004 -0.125649 0)
(0.017882 -0.129402 0)
(0.00367866 -0.122963 0)
(-0.00486905 -0.129358 0)
(-0.0211646 -0.158441 0)
(-0.0327182 -0.238186 0)
(-0.038271 -0.302704 0)
(-0.0211655 -0.270552 0)
(0.000443378 0.0274511 0)
(0.00139353 0.0562112 0)
(0.00159017 0.070142 0)
(0.00134323 0.0769121 0)
(0.000980341 0.0814607 0)
(0.0012064 0.0857876 0)
(0.0020384 0.0910439 0)
(0.00428192 0.0973497 0)
(0.00788762 0.10532 0)
(0.0142689 0.114693 0)
(0.0234296 0.125763 0)
(0.0370527 0.136276 0)
(0.0528458 0.143085 0)
(0.0696266 0.140067 0)
(0.0818264 0.125427 0)
(0.091788 0.100152 0)
(0.096051 0.0678984 0)
(0.0999806 0.0296594 0)
(0.0966869 -0.0096542 0)
(0.0922937 -0.048997 0)
(0.0792406 -0.0791403 0)
(0.0666648 -0.102112 0)
(0.0474864 -0.110409 0)
(0.0338153 -0.115173 0)
(0.0159138 -0.109518 0)
(0.00568246 -0.11592 0)
(-0.0123526 -0.142993 0)
(-0.023963 -0.228079 0)
(-0.0333376 -0.305879 0)
(-0.0193562 -0.298453 0)
(0.000534278 0.0258852 0)
(0.00198984 0.054452 0)
(0.00298227 0.0688277 0)
(0.00354897 0.0756927 0)
(0.0040148 0.0800454 0)
(0.00513545 0.0836593 0)
(0.00682213 0.0879974 0)
(0.0100506 0.0928697 0)
(0.0144428 0.0989724 0)
(0.0215741 0.105656 0)
(0.0308638 0.113373 0)
(0.0445578 0.120314 0)
(0.0603752 0.125028 0)
(0.0791105 0.12287 0)
(0.0941699 0.111639 0)
(0.107883 0.0906788 0)
(0.114116 0.0627448 0)
(0.118966 0.028828 0)
(0.114936 -0.00524068 0)
(0.109277 -0.0395137 0)
(0.0939646 -0.0648299 0)
(0.0797063 -0.085082 0)
(0.0583752 -0.092393 0)
(0.0436225 -0.0984968 0)
(0.0235878 -0.0942283 0)
(0.0128074 -0.10194 0)
(-0.00675323 -0.128004 0)
(-0.0177943 -0.217766 0)
(-0.0304503 -0.306729 0)
(-0.0179903 -0.323648 0)
(0.000445966 0.0250994 0)
(0.00226803 0.0539111 0)
(0.00383941 0.0687648 0)
(0.00517737 0.0760375 0)
(0.00642346 0.0800654 0)
(0.00834974 0.0831227 0)
(0.0107918 0.0863334 0)
(0.0147465 0.0898293 0)
(0.0196193 0.0940216 0)
(0.0270288 0.0983078 0)
(0.0358527 0.103025 0)
(0.0486327 0.106686 0)
(0.0626929 0.108768 0)
(0.0805595 0.106061 0)
(0.0954495 0.0969444 0)
(0.110485 0.0799152 0)
(0.117672 0.0571722 0)
(0.123219 0.0285076 0)
(0.119007 0.000468765 0)
(0.11336 -0.0284275 0)
(0.097638 -0.0490727 0)
(0.0840802 -0.0670753 0)
(0.0627962 -0.073678 0)
(0.0491022 -0.0811022 0)
(0.0283245 -0.0778036 0)
(0.0182246 -0.0865828 0)
(-0.00275247 -0.111244 0)
(-0.0127279 -0.205276 0)
(-0.0289561 -0.304757 0)
(-0.016755 -0.347329 0)
(0.000507692 0.0230009 0)
(0.00246272 0.0508148 0)
(0.00446282 0.0657607 0)
(0.00626599 0.0728487 0)
(0.0079423 0.0767229 0)
(0.0103787 0.0790225 0)
(0.0131302 0.0814808 0)
(0.0174975 0.0837646 0)
(0.0224098 0.086623 0)
(0.0297918 0.0891252 0)
(0.0378104 0.0917758 0)
(0.0493835 0.0931316 0)
(0.0611037 0.0931774 0)
(0.0767436 0.089704 0)
(0.0894738 0.0818673 0)
(0.10364 0.0679862 0)
(0.110417 0.0502349 0)
(0.116252 0.0269702 0)
(0.112233 0.00493464 0)
(0.107786 -0.0187618 0)
(0.093113 -0.0351132 0)
(0.0819026 -0.0510357 0)
(0.0618672 -0.0567584 0)
(0.0504116 -0.0650584 0)
(0.0296124 -0.0623517 0)
(0.0212203 -0.0722756 0)
(-0.000845394 -0.0956667 0)
(-0.00896596 -0.193029 0)
(-0.0288723 -0.301498 0)
(-0.0154241 -0.369983 0)
(0.000281319 0.0223752 0)
(0.00229802 0.0501882 0)
(0.00438177 0.0652231 0)
(0.00664605 0.0728038 0)
(0.00883666 0.0762276 0)
(0.0117901 0.0781501 0)
(0.0149958 0.079514 0)
(0.0196768 0.0806987 0)
(0.0246239 0.0820524 0)
(0.0318095 0.0829594 0)
(0.039006 0.0837889 0)
(0.0493214 0.0833282 0)
(0.0588415 0.0817937 0)
(0.0719457 0.0775029 0)
(0.0819346 0.0704721 0)
(0.0940263 0.0586811 0)
(0.0994249 0.0450376 0)
(0.105048 0.0263055 0)
(0.10121 0.00951895 0)
(0.0984274 -0.00982348 0)
(0.085306 -0.0224327 0)
(0.0771012 -0.0365647 0)
(0.0586829 -0.0411457 0)
(0.0501921 -0.0499067 0)
(0.0297276 -0.047137 0)
(0.0239323 -0.0577076 0)
(0.000678257 -0.0790637 0)
(-0.00510651 -0.179115 0)
(-0.029594 -0.296527 0)
(-0.0136637 -0.392329 0)
(0.000422077 0.0201659 0)
(0.00218988 0.046351 0)
(0.00437638 0.0611842 0)
(0.00672067 0.0679939 0)
(0.00886811 0.0713613 0)
(0.0120253 0.0724479 0)
(0.0150969 0.073414 0)
(0.0198971 0.0737184 0)
(0.0245252 0.074385 0)
(0.0314658 0.0743178 0)
(0.0378096 0.0742614 0)
(0.0470921 0.0728483 0)
(0.0548036 0.0706641 0)
(0.0658383 0.0661313 0)
(0.0733826 0.0600115 0)
(0.0834782 0.049979 0)
(0.0872143 0.0395552 0)
(0.092581 0.0245868 0)
(0.0887762 0.0120368 0)
(0.0877717 -0.00363207 0)
(0.0760941 -0.0131104 0)
(0.0709536 -0.0254898 0)
(0.0539905 -0.0288502 0)
(0.0486595 -0.0376285 0)
(0.0284602 -0.034558 0)
(0.025765 -0.0454384 0)
(0.00113567 -0.064352 0)
(-0.00162046 -0.165473 0)
(-0.0313828 -0.290757 0)
(-0.0112858 -0.414294 0)
(-7.19696e-05 0.0201046 0)
(0.00147335 0.0466137 0)
(0.00312576 0.0610429 0)
(0.00565443 0.0687191 0)
(0.00829438 0.071314 0)
(0.0118359 0.0722747 0)
(0.0153734 0.0720756 0)
(0.0203415 0.0715117 0)
(0.0249413 0.0709452 0)
(0.031601 0.069775 0)
(0.0372549 0.0686524 0)
(0.0455776 0.0662846 0)
(0.051837 0.0635724 0)
(0.0611312 0.0587341 0)
(0.0667077 0.0534095 0)
(0.075039 0.0445329 0)
(0.0772345 0.0366064 0)
(0.0821581 0.0242791 0)
(0.0781793 0.0151661 0)
(0.0785246 0.00218085 0)
(0.0678075 -0.00450313 0)
(0.0652833 -0.0154656 0)
(0.0492794 -0.0172961 0)
(0.0470879 -0.0258923 0)
(0.0269269 -0.0219853 0)
(0.0279879 -0.0327584 0)
(0.00186525 -0.0484304 0)
(0.00296688 -0.149804 0)
(-0.0335568 -0.283702 0)
(-0.00785023 -0.436204 0)
(0.000433643 0.018407 0)
(0.00137189 0.0426143 0)
(0.0029414 0.0566887 0)
(0.00514976 0.0621878 0)
(0.00698781 0.0648588 0)
(0.0105251 0.0647198 0)
(0.0134815 0.0646294 0)
(0.0185449 0.0635275 0)
(0.0227094 0.0629522 0)
(0.0292548 0.0614024 0)
(0.0342769 0.060255 0)
(0.0420411 0.0576662 0)
(0.0472322 0.0552317 0)
(0.0554963 0.0506394 0)
(0.0596248 0.0463746 0)
(0.0669986 0.038781 0)
(0.0679489 0.0328685 0)
(0.0729052 0.0228455 0)
(0.068636 0.016298 0)
(0.0704443 0.00569341 0)
(0.0603145 0.00103837 0)
(0.0603249 -0.00844053 0)
(0.0449371 -0.00928598 0)
(0.0458147 -0.0174538 0)
(0.0254138 -0.0132838 0)
(0.0302317 -0.0236837 0)
(0.00223549 -0.0358535 0)
(0.00758462 -0.134581 0)
(-0.0367216 -0.276216 0)
(-0.00323939 -0.457568 0)
(-0.00100365 0.0187015 0)
(-0.000819804 0.0447345 0)
(-0.000437784 0.0576851 0)
(0.00192483 0.0653789 0)
(0.00503474 0.0664829 0)
(0.00903223 0.0663857 0)
(0.0128686 0.064686 0)
(0.0181156 0.062689 0)
(0.0224089 0.0608968 0)
(0.0287622 0.0583896 0)
(0.0333166 0.0565403 0)
(0.0404794 0.0532989 0)
(0.0447594 0.0508197 0)
(0.0520854 0.046117 0)
(0.0550641 0.0426748 0)
(0.0615458 0.0357965 0)
(0.0615505 0.0316036 0)
(0.0662381 0.022958 0)
(0.0616808 0.0187756 0)
(0.0642456 0.009569 0)
(0.0543485 0.0071746 0)
(0.0560911 -0.00146718 0)
(0.0407755 -0.000567088 0)
(0.0443813 -0.00846399 0)
(0.0232852 -0.00311863 0)
(0.0326071 -0.0129325 0)
(0.00294654 -0.0208398 0)
(0.0143982 -0.115866 0)
(-0.0393824 -0.267481 0)
(0.00339461 -0.478279 0)
(0.00109339 0.0198832 0)
(0.000634274 0.0412391 0)
(9.12229e-05 0.0536033 0)
(0.0015159 0.055652 0)
(0.00206807 0.0572737 0)
(0.00612061 0.0558394 0)
(0.00882203 0.0550981 0)
(0.0144987 0.0530421 0)
(0.0183986 0.0520222 0)
(0.0250341 0.0496357 0)
(0.0292735 0.0484666 0)
(0.0364285 0.0454016 0)
(0.040171 0.0437661 0)
(0.0473105 0.039501 0)
(0.0494975 0.0372544 0)
(0.0559644 0.0313896 0)
(0.0551696 0.0287227 0)
(0.0604536 0.0216444 0)
(0.0553967 0.0190823 0)
(0.0594747 0.0116375 0)
(0.0494108 0.0103336 0)
(0.0534686 0.00317697 0)
(0.0380169 0.00415672 0)
(0.0444733 -0.00290842 0)
(0.0227741 0.00132022 0)
(0.0357072 -0.00800514 0)
(0.00460497 -0.0128316 0)
(0.0215851 -0.0993081 0)
(-0.0419357 -0.259198 0)
(0.0122751 -0.496909 0)
(-0.00507202 0.0170801 0)
(-0.00722006 0.0467637 0)
(-0.0067877 0.0571255 0)
(-0.00472536 0.0647069 0)
(-0.000271799 0.0626517 0)
(0.00415464 0.0607054 0)
(0.00844026 0.057258 0)
(0.0141935 0.0537935 0)
(0.0183758 0.0513232 0)
(0.0248773 0.0478216 0)
(0.0287817 0.0460872 0)
(0.0356298 0.042392 0)
(0.0387443 0.0408926 0)
(0.0454709 0.0365063 0)
(0.0469553 0.0350577 0)
(0.0530381 0.0295689 0)
(0.051734 0.0283404 0)
(0.0568294 0.0218581 0)
(0.0516184 0.0213271 0)
(0.0558967 0.0142618 0)
(0.0458541 0.0153381 0)
(0.0506907 0.00803391 0)
(0.0348187 0.0115304 0)
(0.0432433 0.00396613 0)
(0.0199278 0.0102358 0)
(0.0376981 0.000866527 0)
(0.00461339 0.000205358 0)
(0.033701 -0.0763901 0)
(-0.0389344 -0.249082 0)
(0.0258113 -0.511958 0)
(0.0045667 0.0327081 0)
(-0.000342138 0.0416995 0)
(-0.00956496 0.0510138 0)
(-0.00780215 0.0471867 0)
(-0.00873223 0.0476081 0)
(-0.00218543 0.0453714 0)
(0.00100591 0.0442994 0)
(0.00855372 0.0416546 0)
(0.0127789 0.0408773 0)
(0.0202936 0.0379874 0)
(0.024324 0.0375904 0)
(0.0316591 0.0342935 0)
(0.0346511 0.0341071 0)
(0.0417113 0.030147 0)
(0.0427323 0.0301416 0)
(0.0494456 0.0253849 0)
(0.0473473 0.025647 0)
(0.0539042 0.0203439 0)
(0.0475706 0.0210127 0)
(0.0546912 0.0156328 0)
(0.043208 0.0169108 0)
(0.052566 0.0117931 0)
(0.0350568 0.0135943 0)
(0.0493683 0.00831501 0)
(0.0243803 0.0100835 0)
(0.0478991 0.00130288 0)
(0.0126158 -0.00337977 0)
(0.0527313 -0.0659609 0)
(-0.0267407 -0.242859 0)
(0.045081 -0.516813 0)
(-0.0121698 0.0107672 0)
(-0.0117484 0.0627481 0)
(-0.00224345 0.0644121 0)
(-0.00728469 0.0665332 0)
(-0.00250433 0.0583083 0)
(0.00054246 0.0529041 0)
(0.0040989 0.0480382 0)
(0.00940268 0.0431397 0)
(0.0130393 0.0410171 0)
(0.019509 0.0367618 0)
(0.0228428 0.0360544 0)
(0.0302567 0.0320816 0)
(0.0325012 0.0321504 0)
(0.0407769 0.0280583 0)
(0.0409226 0.0287266 0)
(0.0501213 0.024207 0)
(0.0470234 0.0255366 0)
(0.0574912 0.0204279 0)
(0.0500632 0.0226762 0)
(0.0626318 0.0167982 0)
(0.049711 0.0204333 0)
(0.0661621 0.0134978 0)
(0.0457238 0.019039 0)
(0.0695032 0.0108048 0)
(0.0373093 0.0180278 0)
(0.0755475 0.0073742 0)
(0.0268068 0.00420465 0)
(0.0952614 -0.0454753 0)
(0.0197327 -0.223624 0)
(0.0817507 -0.499875 0)
(-0.0728799 0.0628571 0)
(-0.0597369 0.0286232 0)
(-0.0785598 0.0468267 0)
(-0.052498 0.0434883 0)
(-0.0466995 0.0382115 0)
(-0.0240215 0.0358532 0)
(-0.0144271 0.0341064 0)
(0.00620655 0.0305196 0)
(0.014501 0.0300288 0)
(0.0351796 0.0263946 0)
(0.0404172 0.0266378 0)
(0.0624023 0.0230171 0)
(0.0635588 0.0238228 0)
(0.0878416 0.0201215 0)
(0.0837799 0.0214066 0)
(0.111536 0.0175806 0)
(0.100736 0.0192219 0)
(0.133598 0.0154054 0)
(0.114108 0.0171411 0)
(0.154407 0.0137793 0)
(0.123756 0.0149751 0)
(0.174717 0.0130144 0)
(0.129942 0.012247 0)
(0.195675 0.0127096 0)
(0.134134 0.00661788 0)
(0.219024 0.00464802 0)
(0.141305 -0.0213156 0)
(0.24212 -0.073123 0)
(0.135346 -0.222881 0)
(0.140036 -0.437608 0)
(0.0815153 0.131934 0)
(0.124368 0.0732528 0)
(0.174261 0.0569621 0)
(0.230319 0.0391994 0)
(0.254711 0.0317333 0)
(0.299536 0.0233256 0)
(0.312146 0.0199079 0)
(0.353235 0.0155499 0)
(0.356768 0.0139551 0)
(0.397302 0.0113319 0)
(0.393138 0.010591 0)
(0.434986 0.00886308 0)
(0.423611 0.00844026 0)
(0.468042 0.00731673 0)
(0.449498 0.00688456 0)
(0.497453 0.00627787 0)
(0.47158 0.00564917 0)
(0.523793 0.00549561 0)
(0.490399 0.00465919 0)
(0.547457 0.0047426 0)
(0.506434 0.00398638 0)
(0.568725 0.00367261 0)
(0.520077 0.00376606 0)
(0.587449 0.00147558 0)
(0.530269 0.00352792 0)
(0.599859 -0.00519788 0)
(0.523153 -0.00313486 0)
(0.57316 -0.0366861 0)
(0.400027 -0.0624709 0)
(0.296791 -0.199789 0)
)
;

boundaryField
{
    movingWall
    {
        type            fixedValue;
        value           uniform (1 0 0);
    }
    fixedWalls
    {
        type            noSlip;
    }
    frontAndBack
    {
        type            empty;
    }
}


// ************************************************************************* //
