/*--------------------------------*- C++ -*----------------------------------*\
| =========                 |                                                 |
| \\      /  F ield         | OpenFOAM: The Open Source CFD Toolbox           |
|  \\    /   O peration     | Version:  2406                                  |
|   \\  /    A nd           | Website:  www.openfoam.com                      |
|    \\/     M anipulation  |                                                 |
\*---------------------------------------------------------------------------*/
FoamFile
{
    version     2.0;
    format      ascii;
    arch        "LSB;label=32;scalar=64";
    class       volVectorField;
    location    "20.5";
    object      U;
}
// * * * * * * * * * * * * * * * * * * * * * * * * * * * * * * * * * * * * * //

dimensions      [0 1 -1 0 0 0 0];

internalField   nonuniform List<vector> 
16384
(
(-6.11106e-07 6.3237e-07 0)
(1.65373e-05 -4.03419e-06 0)
(5.35562e-05 -7.80953e-06 0)
(0.000101986 -9.7464e-06 0)
(0.000155578 -1.03463e-05 0)
(0.000209775 -1.01866e-05 0)
(0.000261682 -9.64194e-06 0)
(0.00030965 -8.93707e-06 0)
(0.000352878 -8.20166e-06 0)
(0.000391095 -7.50459e-06 0)
(0.000424325 -6.87599e-06 0)
(0.000452732 -6.3225e-06 0)
(0.00047651 -5.83723e-06 0)
(0.000495813 -5.4066e-06 0)
(0.00051072 -5.01506e-06 0)
(0.000521224 -4.64834e-06 0)
(0.000527211 -4.27312e-06 0)
(0.000528438 -3.92462e-06 0)
(0.000524607 -3.54764e-06 0)
(0.000515357 -3.14475e-06 0)
(0.000500219 -2.71511e-06 0)
(0.000478661 -2.25158e-06 0)
(0.000450078 -1.7474e-06 0)
(0.00041379 -1.19484e-06 0)
(0.000369038 -5.84286e-07 0)
(0.000314973 9.53196e-08 0)
(0.000250647 8.56691e-07 0)
(0.000175008 1.71586e-06 0)
(8.68877e-05 2.69149e-06 0)
(-1.49927e-05 3.80503e-06 0)
(-0.000132034 5.07138e-06 0)
(-0.000265759 6.51468e-06 0)
(-0.000417793 8.15979e-06 0)
(-0.000589865 1.00299e-05 0)
(-0.00078379 1.21486e-05 0)
(-0.00100145 1.45396e-05 0)
(-0.00124477 1.7226e-05 0)
(-0.00151568 2.02294e-05 0)
(-0.0018161 2.35694e-05 0)
(-0.00214788 2.72625e-05 0)
(-0.00251276 3.13213e-05 0)
(-0.00291231 3.57524e-05 0)
(-0.00334789 4.05562e-05 0)
(-0.00382054 4.57245e-05 0)
(-0.00433099 5.12394e-05 0)
(-0.0048795 5.70719e-05 0)
(-0.00546585 6.31803e-05 0)
(-0.00608924 6.95089e-05 0)
(-0.00674825 7.59871e-05 0)
(-0.00744072 8.25281e-05 0)
(-0.00816378 8.9029e-05 0)
(-0.00891372 9.53701e-05 0)
(-0.00968603 0.000101415 0)
(-0.0104753 0.000107014 0)
(-0.0112754 0.000112 0)
(-0.0120791 0.000116197 0)
(-0.0128786 0.000119419 0)
(-0.0136654 0.000121475 0)
(-0.01443 0.000122171 0)
(-0.0151626 0.000121318 0)
(-0.0158529 0.000118738 0)
(-0.0164901 0.000114266 0)
(-0.0170635 0.000107764 0)
(-0.0175621 9.91291e-05 0)
(-0.0179754 8.83192e-05 0)
(-0.0182931 7.53717e-05 0)
(-0.0185059 6.03251e-05 0)
(-0.018605 4.30446e-05 0)
(-0.0185812 2.38727e-05 0)
(-0.0184276 1.79011e-06 0)
(-0.018141 -2.18396e-05 0)
(-0.0177174 -4.64533e-05 0)
(-0.0171554 -7.17529e-05 0)
(-0.016456 -9.73172e-05 0)
(-0.0156223 -0.000122632 0)
(-0.0146597 -0.000147127 0)
(-0.0135764 -0.000170201 0)
(-0.0123828 -0.00019124 0)
(-0.0110918 -0.000209645 0)
(-0.00971846 -0.000224855 0)
(-0.00827998 -0.000236373 0)
(-0.00679521 -0.000243793 0)
(-0.00528436 -0.00024682 0)
(-0.00376852 -0.000245277 0)
(-0.0022691 -0.000239103 0)
(-0.000806824 -0.000228568 0)
(0.000597001 -0.000214456 0)
(0.00192303 -0.000196061 0)
(0.00315483 -0.000174693 0)
(0.00427717 -0.000151 0)
(0.00527784 -0.000125672 0)
(0.00614775 -9.94906e-05 0)
(0.0068811 -7.32275e-05 0)
(0.00747536 -4.76187e-05 0)
(0.00793126 -2.33216e-05 0)
(0.00825255 -8.88719e-07 0)
(0.00844573 1.92546e-05 0)
(0.00851963 3.68245e-05 0)
(0.00848485 5.16709e-05 0)
(0.00835354 6.34704e-05 0)
(0.00813868 7.25556e-05 0)
(0.00785347 7.90567e-05 0)
(0.00751111 8.31756e-05 0)
(0.00712435 8.51791e-05 0)
(0.00670515 8.5365e-05 0)
(0.00626444 8.40409e-05 0)
(0.00581193 8.15093e-05 0)
(0.00535604 7.8056e-05 0)
(0.00490386 7.3942e-05 0)
(0.00446114 6.93993e-05 0)
(0.00403239 6.4629e-05 0)
(0.00362092 5.98026e-05 0)
(0.003229 5.50631e-05 0)
(0.00285792 5.05282e-05 0)
(0.0025082 4.62913e-05 0)
(0.00217967 4.24218e-05 0)
(0.00187168 3.89622e-05 0)
(0.00158331 3.59212e-05 0)
(0.00131359 3.32623e-05 0)
(0.00106184 3.08865e-05 0)
(0.000828024 2.86097e-05 0)
(0.000613213 2.61347e-05 0)
(0.000420057 2.30225e-05 0)
(0.000253236 1.86651e-05 0)
(0.000119524 1.23145e-05 0)
(2.65174e-05 3.61671e-06 0)
(-1.74274e-05 -6.02463e-06 0)
(-1.27074e-05 -1.27588e-05 0)
(4.1209e-06 -1.65584e-05 0)
(5.46891e-05 -5.44244e-05 0)
(0.000142538 -8.25719e-05 0)
(0.000252385 -9.79023e-05 0)
(0.00037159 -0.000103043 0)
(0.000491022 -0.000101255 0)
(0.000604478 -9.51898e-05 0)
(0.000708078 -8.6762e-05 0)
(0.000799662 -7.72525e-05 0)
(0.000878229 -6.74478e-05 0)
(0.000943476 -5.77702e-05 0)
(0.000995449 -4.8387e-05 0)
(0.00103429 -3.92952e-05 0)
(0.00106009 -3.03865e-05 0)
(0.00107273 -2.1493e-05 0)
(0.00107194 -1.24239e-05 0)
(0.00105708 -3.03362e-06 0)
(0.0010273 6.89043e-06 0)
(0.00098157 1.75478e-05 0)
(0.00091855 2.90818e-05 0)
(0.000836705 4.16324e-05 0)
(0.000734281 5.53488e-05 0)
(0.000609303 7.03765e-05 0)
(0.000459575 8.68717e-05 0)
(0.000282665 0.000105006 0)
(7.58881e-05 0.000124965 0)
(-0.000163703 0.000146949 0)
(-0.000439336 0.000171172 0)
(-0.00075453 0.000197862 0)
(-0.00111308 0.00022725 0)
(-0.00151906 0.000259555 0)
(-0.00197682 0.000294997 0)
(-0.00249089 0.000333779 0)
(-0.00306602 0.000376073 0)
(-0.00370706 0.000422017 0)
(-0.00441888 0.000471702 0)
(-0.00520634 0.000525166 0)
(-0.00607411 0.000582378 0)
(-0.00702662 0.00064323 0)
(-0.00806785 0.000707523 0)
(-0.00920127 0.000774955 0)
(-0.0104296 0.000845111 0)
(-0.0117546 0.000917454 0)
(-0.0131772 0.000991311 0)
(-0.0146968 0.00106587 0)
(-0.0163115 0.0011402 0)
(-0.0180178 0.00121319 0)
(-0.0198105 0.00128364 0)
(-0.0216827 0.00135019 0)
(-0.0236252 0.0014114 0)
(-0.0256271 0.00146573 0)
(-0.0276754 0.00151156 0)
(-0.0297551 0.00154726 0)
(-0.0318493 0.00157118 0)
(-0.0339392 0.00158169 0)
(-0.0360046 0.00157725 0)
(-0.0380238 0.00155639 0)
(-0.0399736 0.0015178 0)
(-0.0418305 0.00146036 0)
(-0.04357 0.00138315 0)
(-0.0451676 0.00128552 0)
(-0.0465988 0.00116709 0)
(-0.0478398 0.00102784 0)
(-0.0488677 0.0008681 0)
(-0.0496609 0.000688635 0)
(-0.0502 0.000490579 0)
(-0.0504681 0.000275191 0)
(-0.0504497 4.39937e-05 0)
(-0.050131 -0.000198242 0)
(-0.0495012 -0.000451452 0)
(-0.0485561 -0.000711875 0)
(-0.0472946 -0.000975866 0)
(-0.0457191 -0.00123954 0)
(-0.043836 -0.00149872 0)
(-0.0416564 -0.00174903 0)
(-0.0391958 -0.00198594 0)
(-0.0364741 -0.00220494 0)
(-0.0335159 -0.00240155 0)
(-0.0303498 -0.00257156 0)
(-0.0270085 -0.00271105 0)
(-0.0235279 -0.00281664 0)
(-0.0199474 -0.00288553 0)
(-0.0163085 -0.00291569 0)
(-0.0126542 -0.00290595 0)
(-0.00902845 -0.00285609 0)
(-0.00547498 -0.00276699 0)
(-0.0020365 -0.0026411 0)
(0.00124558 -0.00248017 0)
(0.00433373 -0.00228837 0)
(0.00719472 -0.00207059 0)
(0.00979927 -0.00183207 0)
(0.0121238 -0.00157867 0)
(0.0141507 -0.00131645 0)
(0.015869 -0.00105152 0)
(0.0172738 -0.000789806 0)
(0.0183669 -0.000536833 0)
(0.0191562 -0.000297517 0)
(0.019655 -7.60461e-05 0)
(0.0198812 0.000124291 0)
(0.0198575 0.000301716 0)
(0.0196099 0.000454473 0)
(0.0191653 0.000581993 0)
(0.0185524 0.000684616 0)
(0.0178001 0.000763392 0)
(0.0169367 0.000819939 0)
(0.015989 0.000856298 0)
(0.0149819 0.000874796 0)
(0.0139378 0.000877919 0)
(0.0128766 0.000868196 0)
(0.011815 0.000848108 0)
(0.0107672 0.000820017 0)
(0.00974433 0.000786108 0)
(0.00875486 0.000748355 0)
(0.0078049 0.000708483 0)
(0.00689837 0.000667944 0)
(0.00603741 0.000627873 0)
(0.00522276 0.000589037 0)
(0.00445432 0.000551763 0)
(0.00373172 0.000515835 0)
(0.00305504 0.000480388 0)
(0.00242563 0.000443793 0)
(0.00184701 0.000403576 0)
(0.00132564 0.000356459 0)
(0.000871573 0.000298675 0)
(0.000498185 0.000226914 0)
(0.000220515 0.000140811 0)
(5.18739e-05 4.93897e-05 0)
(-5.64142e-06 -1.74058e-05 0)
(8.02224e-06 -5.39275e-05 0)
(8.32791e-05 -0.0001425 0)
(0.000203318 -0.000202748 0)
(0.000348489 -0.000234869 0)
(0.00050268 -0.000244695 0)
(0.000654618 -0.000238738 0)
(0.000796475 -0.000222534 0)
(0.000923122 -0.000200284 0)
(0.0010315 -0.000174927 0)
(0.00111997 -0.000148338 0)
(0.00118782 -0.000121567 0)
(0.00123473 -9.50567e-05 0)
(0.00126056 -6.88268e-05 0)
(0.001265 -4.26221e-05 0)
(0.00124753 -1.60255e-05 0)
(0.00120722 1.1456e-05 0)
(0.00114282 4.02881e-05 0)
(0.00105272 7.10351e-05 0)
(0.000934806 0.000104167 0)
(0.000786645 0.000140139 0)
(0.000605446 0.000179382 0)
(0.000388049 0.000222344 0)
(0.000130924 0.000269456 0)
(-0.000169817 0.000321178 0)
(-0.000518453 0.000378002 0)
(-0.000919658 0.000440447 0)
(-0.00137852 0.000509065 0)
(-0.00190055 0.000584426 0)
(-0.00249166 0.000667116 0)
(-0.00315816 0.00075771 0)
(-0.00390674 0.00085675 0)
(-0.00474438 0.000964734 0)
(-0.00567827 0.00108208 0)
(-0.00671574 0.0012091 0)
(-0.00786412 0.00134598 0)
(-0.00913058 0.00149273 0)
(-0.010522 0.00164918 0)
(-0.0120446 0.00181493 0)
(-0.013704 0.00198933 0)
(-0.0155048 0.00217145 0)
(-0.0174502 0.00236004 0)
(-0.0195422 0.00255351 0)
(-0.0217808 0.00274994 0)
(-0.0241639 0.00294702 0)
(-0.0266872 0.00314212 0)
(-0.0293441 0.00333223 0)
(-0.0321249 0.00351406 0)
(-0.0350175 0.00368402 0)
(-0.0380067 0.00383829 0)
(-0.0410744 0.00397289 0)
(-0.0441998 0.00408378 0)
(-0.0473594 0.00416687 0)
(-0.0505272 0.0042182 0)
(-0.053675 0.00423397 0)
(-0.0567728 0.00421064 0)
(-0.0597891 0.00414507 0)
(-0.0626914 0.00403454 0)
(-0.0654467 0.00387687 0)
(-0.0680219 0.00367049 0)
(-0.0703842 0.00341448 0)
(-0.0725019 0.00310863 0)
(-0.0743444 0.00275347 0)
(-0.0758831 0.00235035 0)
(-0.0770916 0.00190142 0)
(-0.0779461 0.00140962 0)
(-0.0784265 0.000878469 0)
(-0.0785159 0.000312299 0)
(-0.0781981 -0.000282091 0)
(-0.0774622 -0.000897661 0)
(-0.0763045 -0.00152922 0)
(-0.0747226 -0.00216988 0)
(-0.0727196 -0.00281155 0)
(-0.0703032 -0.00344553 0)
(-0.0674858 -0.00406277 0)
(-0.0642847 -0.00465397 0)
(-0.060722 -0.0052097 0)
(-0.0568246 -0.00572064 0)
(-0.0526242 -0.00617771 0)
(-0.048157 -0.00657229 0)
(-0.0434632 -0.00689654 0)
(-0.0385871 -0.00714352 0)
(-0.0335763 -0.00730755 0)
(-0.0284809 -0.00738439 0)
(-0.0233532 -0.00737144 0)
(-0.0182468 -0.00726798 0)
(-0.0132155 -0.00707529 0)
(-0.00831244 -0.00679688 0)
(-0.00358935 -0.00643807 0)
(0.000904853 -0.00600573 0)
(0.00512532 -0.0055093 0)
(0.0090318 -0.00495942 0)
(0.0125896 -0.00436836 0)
(0.0157707 -0.00374885 0)
(0.0185541 -0.00311417 0)
(0.0209263 -0.00247762 0)
(0.0228816 -0.00185202 0)
(0.024422 -0.00124927 0)
(0.0255569 -0.000680019 0)
(0.0263032 -0.000153219 0)
(0.0266834 0.000324662 0)
(0.0267248 0.000747877 0)
(0.0264597 0.00111349 0)
(0.0259232 0.00142033 0)
(0.0251523 0.00166903 0)
(0.0241844 0.00186186 0)
(0.0230567 0.00200238 0)
(0.0218047 0.00209517 0)
(0.0204618 0.00214552 0)
(0.0190584 0.00215914 0)
(0.0176216 0.00214189 0)
(0.0161749 0.00209958 0)
(0.0147377 0.00203778 0)
(0.0133261 0.00196165 0)
(0.0119525 0.00187582 0)
(0.0106261 0.00178428 0)
(0.0093532 0.00169021 0)
(0.00813815 0.00159587 0)
(0.0069836 0.00150239 0)
(0.00589156 0.00140955 0)
(0.00486429 0.00131559 0)
(0.00390533 0.001217 0)
(0.0030206 0.0011085 0)
(0.00221929 0.000983298 0)
(0.00151442 0.000834 0)
(0.000922459 0.00065469 0)
(0.000461956 0.000445289 0)
(0.000151716 0.000220749 0)
(5.13575e-06 2.95209e-05 0)
(1.01197e-05 -0.000102976 0)
(9.86671e-05 -0.000252589 0)
(0.000234461 -0.000347852 0)
(0.000394284 -0.000396124 0)
(0.000559766 -0.000407999 0)
(0.000718616 -0.00039388 0)
(0.000862367 -0.000362525 0)
(0.000985382 -0.000320661 0)
(0.00108416 -0.000273063 0)
(0.00115667 -0.00022282 0)
(0.00120179 -0.000171679 0)
(0.00121879 -0.000120366 0)
(0.00120703 -6.88844e-05 0)
(0.00116565 -1.67588e-05 0)
(0.00109345 3.6776e-05 0)
(0.000988726 9.26334e-05 0)
(0.000849302 0.000151814 0)
(0.000672472 0.000215255 0)
(0.000454974 0.000283895 0)
(0.000193033 0.000358636 0)
(-0.000117605 0.000440354 0)
(-0.000481712 0.000529915 0)
(-0.000904582 0.0006282 0)
(-0.00139199 0.000736119 0)
(-0.00195025 0.000854622 0)
(-0.00258621 0.000984708 0)
(-0.00330722 0.00112741 0)
(-0.00412118 0.00128377 0)
(-0.00503647 0.00145482 0)
(-0.00606192 0.00164156 0)
(-0.00720668 0.00184487 0)
(-0.00848018 0.00206549 0)
(-0.00989193 0.00230399 0)
(-0.0114514 0.00256064 0)
(-0.0131676 0.00283545 0)
(-0.0150492 0.00312801 0)
(-0.017104 0.00343751 0)
(-0.0193386 0.00376265 0)
(-0.0217581 0.00410158 0)
(-0.0243659 0.00445186 0)
(-0.0271631 0.00481044 0)
(-0.0301485 0.00517359 0)
(-0.0333177 0.00553697 0)
(-0.0366637 0.00589557 0)
(-0.0401756 0.0062438 0)
(-0.0438394 0.00657551 0)
(-0.0476372 0.00688412 0)
(-0.0515478 0.00716274 0)
(-0.0555462 0.00740425 0)
(-0.0596045 0.00760151 0)
(-0.0636914 0.00774749 0)
(-0.0677734 0.00783546 0)
(-0.0718148 0.00785914 0)
(-0.0757782 0.00781287 0)
(-0.0796255 0.00769178 0)
(-0.083318 0.00749186 0)
(-0.086817 0.00721013 0)
(-0.090085 0.00684467 0)
(-0.0930854 0.00639472 0)
(-0.0957834 0.00586069 0)
(-0.0981466 0.00524418 0)
(-0.100145 0.00454799 0)
(-0.101751 0.00377612 0)
(-0.102941 0.00293374 0)
(-0.103695 0.00202704 0)
(-0.103996 0.001063 0)
(-0.10383 5.00709e-05 0)
(-0.103186 -0.000999223 0)
(-0.102059 -0.00207811 0)
(-0.100448 -0.0031746 0)
(-0.0983557 -0.00427677 0)
(-0.0957886 -0.00537198 0)
(-0.0927577 -0.00644698 0)
(-0.0892786 -0.00748803 0)
(-0.0853711 -0.00848108 0)
(-0.0810596 -0.00941199 0)
(-0.0763732 -0.0102667 0)
(-0.0713449 -0.0110317 0)
(-0.0660125 -0.011694 0)
(-0.0604177 -0.0122417 0)
(-0.0546061 -0.0126643 0)
(-0.048627 -0.0129528 0)
(-0.0425324 -0.0131005 0)
(-0.0363772 -0.013103 0)
(-0.0302177 -0.0129584 0)
(-0.0241115 -0.012668 0)
(-0.0181163 -0.0122358 0)
(-0.0122889 -0.0116692 0)
(-0.00668429 -0.0109782 0)
(-0.00135426 -0.0101761 0)
(0.00365278 -0.00927843 0)
(0.00829377 -0.00830322 0)
(0.0125319 -0.00727011 0)
(0.0163365 -0.00619983 0)
(0.0196848 -0.00511351 0)
(0.0225616 -0.00403205 0)
(0.0249601 -0.00297543 0)
(0.0268817 -0.00196206 0)
(0.028336 -0.00100821 0)
(0.0293397 -0.000127972 0)
(0.0299168 0.00066794 0)
(0.0300972 0.00137189 0)
(0.0299155 0.00197957 0)
(0.0294101 0.0024894 0)
(0.028622 0.00290273 0)
(0.0275932 0.00322344 0)
(0.0263657 0.00345752 0)
(0.0249801 0.00361259 0)
(0.023475 0.00369742 0)
(0.0218857 0.00372148 0)
(0.0202443 0.00369451 0)
(0.0185784 0.00362615 0)
(0.0169119 0.00352558 0)
(0.0152643 0.00340125 0)
(0.0136512 0.00326058 0)
(0.0120848 0.00310967 0)
(0.0105741 0.00295303 0)
(0.00912616 0.00279319 0)
(0.0077466 0.00263041 0)
(0.00644087 0.00246229 0)
(0.00521527 0.00228362 0)
(0.00407821 0.00208633 0)
(0.00304113 0.00186009 0)
(0.00211919 0.00159374 0)
(0.00133123 0.00127829 0)
(0.000699526 0.000912412 0)
(0.000251603 0.000512671 0)
(1.58076e-05 0.000132001 0)
(1.0846e-05 -0.000157108 0)
(0.000102738 -0.000370815 0)
(0.000239867 -0.000499598 0)
(0.000396784 -0.000560186 0)
(0.000553875 -0.000569252 0)
(0.000698492 -0.000541657 0)
(0.000822121 -0.000489579 0)
(0.000919109 -0.0004223 0)
(0.00098587 -0.000346397 0)
(0.00102018 -0.000266112 0)
(0.00102058 -0.000183804 0)
(0.000985889 -0.000100393 0)
(0.000914854 -1.57615e-05 0)
(0.000805887 7.09044e-05 0)
(0.000656895 0.000160847 0)
(0.000465185 0.000255537 0)
(0.000227418 0.000356543 0)
(-6.04127e-05 0.000465419 0)
(-0.000402981 0.000583689 0)
(-0.000805619 0.000712837 0)
(-0.00127429 0.00085432 0)
(-0.0018156 0.00100956 0)
(-0.00243681 0.00118003 0)
(-0.0031458 0.00136721 0)
(-0.00395111 0.00157265 0)
(-0.00486191 0.00179794 0)
(-0.00588797 0.00204467 0)
(-0.00703965 0.00231444 0)
(-0.0083278 0.00260876 0)
(-0.00976364 0.00292899 0)
(-0.0113586 0.00327629 0)
(-0.0131243 0.00365149 0)
(-0.015072 0.00405503 0)
(-0.0172126 0.00448683 0)
(-0.019556 0.00494626 0)
(-0.0221112 0.00543193 0)
(-0.0248854 0.00594174 0)
(-0.0278841 0.00647265 0)
(-0.03111 0.00702075 0)
(-0.0345633 0.0075811 0)
(-0.0382407 0.00814777 0)
(-0.0421354 0.00871382 0)
(-0.0462366 0.00927135 0)
(-0.0505295 0.00981157 0)
(-0.0549949 0.010325 0)
(-0.0596095 0.0108014 0)
(-0.064346 0.0112303 0)
(-0.0691731 0.0116011 0)
(-0.0740563 0.0119032 0)
(-0.0789582 0.0121264 0)
(-0.0838389 0.0122612 0)
(-0.0886573 0.0122987 0)
(-0.0933711 0.0122315 0)
(-0.0979378 0.0120531 0)
(-0.102316 0.0117587 0)
(-0.106464 0.011345 0)
(-0.110343 0.01081 0)
(-0.113916 0.0101537 0)
(-0.117148 0.00937754 0)
(-0.120009 0.00848445 0)
(-0.122468 0.00747898 0)
(-0.124501 0.00636706 0)
(-0.126084 0.00515602 0)
(-0.1272 0.0038545 0)
(-0.127833 0.0024723 0)
(-0.12797 0.0010203 0)
(-0.127601 -0.00048929 0)
(-0.12672 -0.00204193 0)
(-0.125325 -0.00362573 0)
(-0.123418 -0.00522504 0)
(-0.121002 -0.00682404 0)
(-0.118085 -0.0084061 0)
(-0.114678 -0.00995393 0)
(-0.110797 -0.0114497 0)
(-0.106459 -0.0128751 0)
(-0.101689 -0.0142119 0)
(-0.0965134 -0.0154417 0)
(-0.0909631 -0.0165466 0)
(-0.0850737 -0.0175096 0)
(-0.078885 -0.0183146 0)
(-0.0724407 -0.0189474 0)
(-0.0657884 -0.0193956 0)
(-0.0589794 -0.0196494 0)
(-0.0520679 -0.0197019 0)
(-0.0451109 -0.0195496 0)
(-0.038167 -0.0191925 0)
(-0.0312961 -0.0186348 0)
(-0.0245583 -0.0178845 0)
(-0.0180125 -0.0169538 0)
(-0.0117159 -0.0158587 0)
(-0.00572269 -0.0146192 0)
(-8.30738e-05 -0.013258 0)
(0.00515798 -0.0118007 0)
(0.0099616 -0.0102751 0)
(0.0142958 -0.00870962 0)
(0.0181361 -0.00713336 0)
(0.0214662 -0.00557458 0)
(0.0242781 -0.00406008 0)
(0.0265722 -0.00261439 0)
(0.0283572 -0.00125916 0)
(0.0296496 -1.21945e-05 0)
(0.0304736 0.00111223 0)
(0.0308594 0.00210464 0)
(0.0308422 0.00295975 0)
(0.0304619 0.00367619 0)
(0.0297612 0.00425642 0)
(0.0287844 0.00470633 0)
(0.027576 0.00503464 0)
(0.0261796 0.00525227 0)
(0.0246368 0.00537168 0)
(0.0229863 0.00540627 0)
(0.0212632 0.00536977 0)
(0.0194986 0.00527564 0)
(0.0177192 0.00513659 0)
(0.0159476 0.00496405 0)
(0.0142023 0.0047677 0)
(0.0124984 0.00455496 0)
(0.0108479 0.00433044 0)
(0.0092612 0.00409548 0)
(0.00774763 0.00384765 0)
(0.00631688 0.00358049 0)
(0.00498016 0.00328359 0)
(0.00375136 0.00294332 0)
(0.00264795 0.00254462 0)
(0.00169156 0.0020744 0)
(0.000909244 0.00152731 0)
(0.000338802 0.000915366 0)
(2.45411e-05 0.000283815 0)
(1.07035e-05 -0.000211013 0)
(9.79899e-05 -0.000485838 0)
(0.000224165 -0.000643138 0)
(0.000363065 -0.000709903 0)
(0.000494879 -0.000709691 0)
(0.000607185 -0.000662239 0)
(0.000691857 -0.00058325 0)
(0.000743581 -0.000484494 0)
(0.000758936 -0.000374198 0)
(0.000735651 -0.000257579 0)
(0.000671986 -0.000137425 0)
(0.00056626 -1.46681e-05 0)
(0.000416507 0.000111099 0)
(0.000220237 0.000241189 0)
(-2.57162e-05 0.000377474 0)
(-0.000325284 0.000522125 0)
(-0.000683197 0.00067743 0)
(-0.00110499 0.000845688 0)
(-0.00159702 0.00102915 0)
(-0.00216641 0.00123001 0)
(-0.00282107 0.00145044 0)
(-0.00356969 0.00169258 0)
(-0.0044217 0.00195858 0)
(-0.0053873 0.00225065 0)
(-0.00647742 0.00257101 0)
(-0.00770369 0.00292192 0)
(-0.00907837 0.00330559 0)
(-0.0106143 0.00372413 0)
(-0.0123246 0.00417947 0)
(-0.0142229 0.00467321 0)
(-0.0163223 0.00520654 0)
(-0.0186361 0.00578004 0)
(-0.0211767 0.00639361 0)
(-0.0239552 0.00704625 0)
(-0.0269815 0.00773599 0)
(-0.0302633 0.00845969 0)
(-0.0338057 0.00921298 0)
(-0.037611 0.00999014 0)
(-0.0416775 0.010784 0)
(-0.0459999 0.0115861 0)
(-0.0505684 0.0123864 0)
(-0.0553686 0.0131736 0)
(-0.060381 0.0139355 0)
(-0.0655818 0.0146584 0)
(-0.0709421 0.0153285 0)
(-0.076429 0.0159314 0)
(-0.0820056 0.0164524 0)
(-0.0876318 0.0168777 0)
(-0.0932653 0.0171938 0)
(-0.0988617 0.0173885 0)
(-0.104376 0.0174509 0)
(-0.109764 0.0173718 0)
(-0.11498 0.0171438 0)
(-0.119982 0.0167616 0)
(-0.124729 0.0162219 0)
(-0.129183 0.0155235 0)
(-0.133308 0.0146672 0)
(-0.137072 0.0136556 0)
(-0.140445 0.0124932 0)
(-0.143401 0.0111864 0)
(-0.145918 0.0097428 0)
(-0.147975 0.00817162 0)
(-0.149554 0.00648331 0)
(-0.150642 0.00468958 0)
(-0.151226 0.00280335 0)
(-0.151298 0.000838866 0)
(-0.15085 -0.00118863 0)
(-0.149876 -0.00326415 0)
(-0.148376 -0.00537038 0)
(-0.146351 -0.00748932 0)
(-0.143802 -0.00960218 0)
(-0.140737 -0.0116892 0)
(-0.137164 -0.0137296 0)
(-0.133094 -0.0157022 0)
(-0.128544 -0.017585 0)
(-0.123532 -0.0193557 0)
(-0.118081 -0.020992 0)
(-0.112218 -0.0224717 0)
(-0.105976 -0.0237735 0)
(-0.0993892 -0.0248773 0)
(-0.092499 -0.0257643 0)
(-0.08535 -0.0264184 0)
(-0.0779916 -0.0268259 0)
(-0.0704767 -0.0269768 0)
(-0.0628619 -0.0268648 0)
(-0.0552066 -0.0264882 0)
(-0.0475724 -0.0258499 0)
(-0.0400219 -0.0249578 0)
(-0.032618 -0.023825 0)
(-0.0254227 -0.0224696 0)
(-0.0184958 -0.0209144 0)
(-0.011894 -0.0191866 0)
(-0.00566959 -0.0173171 0)
(0.000130513 -0.0153395 0)
(0.00546577 -0.0132894 0)
(0.010303 -0.0112035 0)
(0.0146166 -0.00911831 0)
(0.0183896 -0.00706903 0)
(0.0216132 -0.00508868 0)
(0.0242872 -0.00320716 0)
(0.02642 -0.00145023 0)
(0.0280279 0.000160725 0)
(0.0291349 0.00160912 0)
(0.029771 0.00288434 0)
(0.029972 0.00398082 0)
(0.0297781 0.00489791 0)
(0.0292329 0.00563971 0)
(0.0283817 0.00621444 0)
(0.0272705 0.00663382 0)
(0.0259446 0.00691218 0)
(0.0244476 0.00706575 0)
(0.0228201 0.00711178 0)
(0.0210997 0.00706776 0)
(0.0193197 0.00695066 0)
(0.0175094 0.00677614 0)
(0.0156939 0.00655782 0)
(0.0138944 0.00630656 0)
(0.0121289 0.00602964 0)
(0.0104129 0.00573013 0)
(0.00876026 0.00540621 0)
(0.00718472 0.00505083 0)
(0.00570079 0.00465173 0)
(0.00432532 0.00419224 0)
(0.00307871 0.00365311 0)
(0.00198613 0.00301586 0)
(0.00108014 0.00226816 0)
(0.000408842 0.00141214 0)
(3.10856e-05 0.000477038 0)
(1e-05 -0.00026066 0)
(8.63948e-05 -0.000588367 0)
(0.000191252 -0.000765871 0)
(0.000299087 -0.000830556 0)
(0.000390913 -0.000813197 0)
(0.000455124 -0.000738589 0)
(0.000484379 -0.000625938 0)
(0.000473983 -0.000489337 0)
(0.000420871 -0.000338423 0)
(0.000322815 -0.000179117 0)
(0.000177811 -1.43678e-05 0)
(-1.63884e-05 0.000155131 0)
(-0.000262583 0.000330305 0)
(-0.000564335 0.000513173 0)
(-0.000926097 0.000706418 0)
(-0.00135327 0.000913075 0)
(-0.00185221 0.00113632 0)
(-0.00243026 0.00137932 0)
(-0.00309568 0.0016452 0)
(-0.00385766 0.001937 0)
(-0.0047263 0.00225773 0)
(-0.00571258 0.00261035 0)
(-0.00682832 0.00299784 0)
(-0.00808621 0.00342318 0)
(-0.00949969 0.00388935 0)
(-0.0110829 0.00439928 0)
(-0.0128506 0.00495574 0)
(-0.014818 0.00556128 0)
(-0.0170003 0.00621803 0)
(-0.0194127 0.00692754 0)
(-0.02207 0.00769061 0)
(-0.024986 0.00850705 0)
(-0.0281731 0.00937554 0)
(-0.0316417 0.0102934 0)
(-0.0353998 0.0112563 0)
(-0.0394522 0.0122584 0)
(-0.0438001 0.0132918 0)
(-0.0484402 0.0143471 0)
(-0.0533647 0.0154127 0)
(-0.0585607 0.0164752 0)
(-0.0640099 0.0175197 0)
(-0.0696886 0.0185298 0)
(-0.0755682 0.019488 0)
(-0.0816148 0.020376 0)
(-0.0877904 0.0211754 0)
(-0.0940534 0.0218679 0)
(-0.100359 0.0224361 0)
(-0.106662 0.0228635 0)
(-0.112914 0.0231356 0)
(-0.119069 0.0232396 0)
(-0.12508 0.0231652 0)
(-0.130904 0.0229045 0)
(-0.136497 0.022452 0)
(-0.141821 0.0218048 0)
(-0.14684 0.0209626 0)
(-0.151521 0.0199273 0)
(-0.155834 0.0187029 0)
(-0.159753 0.0172953 0)
(-0.163254 0.0157123 0)
(-0.166317 0.0139631 0)
(-0.168923 0.0120582 0)
(-0.171058 0.0100096 0)
(-0.172707 0.00782989 0)
(-0.173858 0.00553311 0)
(-0.174501 0.00313419 0)
(-0.174629 0.000649741 0)
(-0.174234 -0.00190244 0)
(-0.173309 -0.00450642 0)
(-0.171853 -0.00714259 0)
(-0.169864 -0.00979089 0)
(-0.167341 -0.0124301 0)
(-0.164287 -0.0150377 0)
(-0.160706 -0.0175905 0)
(-0.156607 -0.0200638 0)
(-0.151998 -0.0224323 0)
(-0.146896 -0.02467 0)
(-0.141316 -0.0267505 0)
(-0.135283 -0.0286475 0)
(-0.128821 -0.0303349 0)
(-0.121963 -0.031788 0)
(-0.114745 -0.0329834 0)
(-0.107209 -0.0339001 0)
(-0.0994007 -0.03452 0)
(-0.0913719 -0.0348289 0)
(-0.0831784 -0.0348169 0)
(-0.0748802 -0.0344793 0)
(-0.0665404 -0.0338166 0)
(-0.0582245 -0.0328357 0)
(-0.0499994 -0.0315496 0)
(-0.0419321 -0.0299772 0)
(-0.0340885 -0.0281438 0)
(-0.0265321 -0.0260799 0)
(-0.0193227 -0.0238209 0)
(-0.0125153 -0.0214062 0)
(-0.00615866 -0.0188781 0)
(-0.000294814 -0.0162805 0)
(0.005042 -0.0136578 0)
(0.00982593 -0.0110538 0)
(0.0140397 -0.00850995 0)
(0.0176749 -0.00606487 0)
(0.0207315 -0.00375274 0)
(0.0232182 -0.00160272 0)
(0.0251519 0.000361346 0)
(0.026557 0.00212166 0)
(0.0274637 0.00366725 0)
(0.0279082 0.00499309 0)
(0.0279313 0.00609993 0)
(0.027577 0.00699399 0)
(0.0268915 0.00768625 0)
(0.0259215 0.00819156 0)
(0.0247135 0.00852781 0)
(0.0233122 0.00871483 0)
(0.0217599 0.00877348 0)
(0.0200955 0.00872456 0)
(0.0183545 0.00858781 0)
(0.0165681 0.00838088 0)
(0.0147637 0.00811832 0)
(0.0129652 0.00781054 0)
(0.0111936 0.00746287 0)
(0.00946786 0.00707472 0)
(0.00780605 0.00663903 0)
(0.00622666 0.00614219 0)
(0.00475012 0.00556466 0)
(0.00340041 0.00488267 0)
(0.00220685 0.00407113 0)
(0.00120775 0.00310833 0)
(0.000460427 0.00198259 0)
(3.56267e-05 0.000701999 0)
(8.90446e-06 -0.000302936 0)
(6.93127e-05 -0.00067071 0)
(0.000144025 -0.000856961 0)
(0.000209428 -0.000909239 0)
(0.000248294 -0.00086553 0)
(0.000250423 -0.000755619 0)
(0.000209639 -0.000602032 0)
(0.000122117 -0.000420908 0)
(-1.47124e-05 -0.000222959 0)
(-0.000202979 -1.44506e-05 0)
(-0.000444983 0.000201847 0)
(-0.00074363 0.000425792 0)
(-0.0011027 0.000659112 0)
(-0.00152703 0.000904774 0)
(-0.00202257 0.00116648 0)
(-0.00259643 0.00144833 0)
(-0.00325686 0.00175452 0)
(-0.00401325 0.00208927 0)
(-0.00487603 0.00245669 0)
(-0.0058567 0.0028608 0)
(-0.00696776 0.00330556 0)
(-0.00822269 0.00379484 0)
(-0.0096359 0.00433251 0)
(-0.0112226 0.00492238 0)
(-0.0129989 0.00556816 0)
(-0.0149814 0.00627339 0)
(-0.0171871 0.00704128 0)
(-0.0196332 0.00787453 0)
(-0.0223366 0.00877512 0)
(-0.0253137 0.00974406 0)
(-0.0285797 0.0107811 0)
(-0.0321479 0.0118846 0)
(-0.0360295 0.0130511 0)
(-0.0402324 0.014275 0)
(-0.0447611 0.0155488 0)
(-0.0496155 0.0168624 0)
(-0.0547907 0.0182036 0)
(-0.0602763 0.0195576 0)
(-0.0660562 0.0209075 0)
(-0.0721085 0.0222343 0)
(-0.0784054 0.0235174 0)
(-0.0849136 0.024735 0)
(-0.091595 0.0258645 0)
(-0.0984071 0.0268834 0)
(-0.105304 0.0277697 0)
(-0.112239 0.0285026 0)
(-0.119163 0.0290631 0)
(-0.126026 0.0294345 0)
(-0.132781 0.0296026 0)
(-0.139382 0.0295562 0)
(-0.145785 0.0292872 0)
(-0.151951 0.0287904 0)
(-0.157842 0.0280635 0)
(-0.163426 0.0271072 0)
(-0.168671 0.0259244 0)
(-0.173551 0.0245204 0)
(-0.178043 0.0229024 0)
(-0.182126 0.0210793 0)
(-0.18578 0.0190614 0)
(-0.18899 0.0168602 0)
(-0.191741 0.0144884 0)
(-0.19402 0.0119594 0)
(-0.195815 0.00928772 0)
(-0.197114 0.00648848 0)
(-0.197909 0.0035779 0)
(-0.198188 0.000573897 0)
(-0.197947 -0.00250418 0)
(-0.197176 -0.00563959 0)
(-0.195872 -0.00881127 0)
(-0.194027 -0.0119976 0)
(-0.19164 -0.0151756 0)
(-0.188708 -0.0183207 0)
(-0.185232 -0.021407 0)
(-0.181213 -0.0244073 0)
(-0.176658 -0.0272931 0)
(-0.171575 -0.0300347 0)
(-0.165976 -0.0326019 0)
(-0.159877 -0.0349637 0)
(-0.153299 -0.0370895 0)
(-0.146269 -0.0389493 0)
(-0.138817 -0.0405145 0)
(-0.130981 -0.0417586 0)
(-0.122803 -0.0426582 0)
(-0.114332 -0.0431939 0)
(-0.105623 -0.0433509 0)
(-0.0967356 -0.0431202 0)
(-0.0877338 -0.0424991 0)
(-0.0786858 -0.0414919 0)
(-0.0696627 -0.0401101 0)
(-0.0607369 -0.0383729 0)
(-0.0519809 -0.0363065 0)
(-0.0434658 -0.0339443 0)
(-0.0352598 -0.0313257 0)
(-0.0274267 -0.0284954 0)
(-0.0200246 -0.025502 0)
(-0.0131045 -0.0223968 0)
(-0.0067098 -0.0192323 0)
(-0.000875143 -0.0160606 0)
(0.00437376 -0.0129322 0)
(0.00902044 -0.00989455 0)
(0.0130576 -0.00699054 0)
(0.0164867 -0.00425787 0)
(0.0193179 -0.00172801 0)
(0.0215694 0.000573901 0)
(0.0232668 0.00262993 0)
(0.0244415 0.00442971 0)
(0.0251305 0.0059696 0)
(0.0253756 0.00725248 0)
(0.0252214 0.00828723 0)
(0.0247147 0.00908791 0)
(0.0239032 0.00967274 0)
(0.0228339 0.0100631 0)
(0.0215526 0.0102821 0)
(0.0201027 0.0103538 0)
(0.0185244 0.0103016 0)
(0.0168545 0.0101468 0)
(0.0151263 0.00990781 0)
(0.0133693 0.00959827 0)
(0.01161 0.00922615 0)
(0.00987261 0.00879256 0)
(0.00818 0.00829093 0)
(0.00655508 0.00770666 0)
(0.00502237 0.00701754 0)
(0.00360997 0.00619495 0)
(0.00235168 0.00520637 0)
(0.00129131 0.004019 0)
(0.000493705 0.00260505 0)
(3.83541e-05 0.000948875 0)
(7.50285e-06 -0.00033532 0)
(4.76104e-05 -0.000726342 0)
(8.44859e-05 -0.00090697 0)
(9.73898e-05 -0.000934539 0)
(7.17028e-05 -0.000853993 0)
(-8.12107e-07 -0.000699826 0)
(-0.000124798 -0.000497533 0)
(-0.000302985 -0.000264888 0)
(-0.000537343 -1.32377e-05 0)
(-0.000829895 0.00025124 0)
(-0.00118331 0.00052637 0)
(-0.00160127 0.000812937 0)
(-0.00208873 0.00111379 0)
(-0.002652 0.00143313 0)
(-0.00329876 0.00177592 0)
(-0.0040381 0.00214749 0)
(-0.00488042 0.00255327 0)
(-0.00583737 0.00299864 0)
(-0.00692184 0.00348884 0)
(-0.00814784 0.00402896 0)
(-0.00953048 0.004624 0)
(-0.0110859 0.00527882 0)
(-0.0128311 0.00599817 0)
(-0.0147841 0.00678668 0)
(-0.0169632 0.00764868 0)
(-0.0193875 0.00858812 0)
(-0.022076 0.00960835 0)
(-0.0250472 0.0107118 0)
(-0.0283192 0.0118998 0)
(-0.0319083 0.013172 0)
(-0.035829 0.0145263 0)
(-0.040093 0.0159586 0)
(-0.0447083 0.0174621 0)
(-0.0496788 0.0190272 0)
(-0.0550033 0.0206418 0)
(-0.0606752 0.0222906 0)
(-0.0666816 0.0239554 0)
(-0.0730033 0.0256155 0)
(-0.079615 0.0272478 0)
(-0.0864849 0.0288272 0)
(-0.0935757 0.0303275 0)
(-0.100845 0.0317219 0)
(-0.108248 0.0329837 0)
(-0.115734 0.0340875 0)
(-0.123255 0.0350092 0)
(-0.130758 0.0357275 0)
(-0.138194 0.0362237 0)
(-0.145517 0.0364827 0)
(-0.152679 0.0364926 0)
(-0.15964 0.0362452 0)
(-0.166361 0.0357358 0)
(-0.172808 0.0349628 0)
(-0.178949 0.0339277 0)
(-0.184757 0.0326345 0)
(-0.190208 0.0310895 0)
(-0.19528 0.0293009 0)
(-0.199954 0.0272785 0)
(-0.204213 0.0250335 0)
(-0.208043 0.0225779 0)
(-0.211429 0.0199249 0)
(-0.214359 0.0170883 0)
(-0.216822 0.0140828 0)
(-0.218805 0.0109236 0)
(-0.220299 0.00762661 0)
(-0.221293 0.00420878 0)
(-0.221777 0.000688405 0)
(-0.221745 -0.00291504 0)
(-0.221186 -0.00658309 0)
(-0.220094 -0.0102941 0)
(-0.218461 -0.0140253 0)
(-0.21628 -0.0177525 0)
(-0.213545 -0.0214496 0)
(-0.210253 -0.0250888 0)
(-0.206401 -0.0286405 0)
(-0.201989 -0.0320734 0)
(-0.19702 -0.0353547 0)
(-0.191499 -0.0384502 0)
(-0.185437 -0.0413249 0)
(-0.178846 -0.0439431 0)
(-0.171747 -0.0462696 0)
(-0.164163 -0.04827 0)
(-0.156126 -0.0499116 0)
(-0.147674 -0.0511649 0)