/*--------------------------------*- C++ -*----------------------------------*\
| =========                 |                                                 |
| \\      /  F ield         | OpenFOAM: The Open Source CFD Toolbox           |
|  \\    /   O peration     | Version:  2406                                  |
|   \\  /    A nd           | Website:  www.openfoam.com                      |
|    \\/     M anipulation  |                                                 |
\*---------------------------------------------------------------------------*/
FoamFile
{
    version     2.0;
    format      ascii;
    arch        "LSB;label=32;scalar=64";
    class       volVectorField;
    location    "4";
    object      dU;
}
// * * * * * * * * * * * * * * * * * * * * * * * * * * * * * * * * * * * * * //

dimensions      [0 1 -1 0 0 0 0];

internalField   nonuniform List<vector> 
900
(
(-1.36244e-06 2.13952e-06 0)
(1.00001e-06 2.05654e-06 0)
(4.68657e-06 2.664e-06 0)
(7.68323e-06 2.68888e-06 0)
(1.12254e-05 2.79932e-06 0)
(1.42412e-05 2.76044e-06 0)
(1.78174e-05 2.74813e-06 0)
(2.10968e-05 2.68686e-06 0)
(2.48268e-05 2.62299e-06 0)
(2.84073e-05 2.52909e-06 0)
(3.23375e-05 2.40975e-06 0)
(3.6185e-05 2.26247e-06 0)
(4.02819e-05 2.06735e-06 0)
(4.42882e-05 1.8394e-06 0)
(4.83995e-05 1.53921e-06 0)
(5.23326e-05 1.19806e-06 0)
(5.61235e-05 7.6024e-07 0)
(5.95565e-05 2.75253e-07 0)
(6.24198e-05 -3.23749e-07 0)
(6.46481e-05 -9.65685e-07 0)
(6.56136e-05 -1.7183e-06 0)
(6.56206e-05 -2.489e-06 0)
(6.33699e-05 -3.32615e-06 0)
(5.99974e-05 -4.13127e-06 0)
(5.32049e-05 -4.88677e-06 0)
(4.57266e-05 -5.52775e-06 0)
(3.39043e-05 -5.82521e-06 0)
(2.2935e-05 -5.77981e-06 0)
(7.84732e-06 -4.5454e-06 0)
(-3.01455e-06 -2.70465e-06 0)
(-2.05889e-06 -1.23935e-06 0)
(-4.46955e-07 -4.91364e-07 0)
(1.78897e-06 5.99338e-07 0)
(2.43395e-06 7.22835e-07 0)
(3.8209e-06 8.99069e-07 0)
(4.50433e-06 8.49146e-07 0)
(5.71454e-06 8.42791e-07 0)
(6.50634e-06 7.81189e-07 0)
(7.6451e-06 7.16616e-07 0)
(8.51713e-06 6.33652e-07 0)
(9.64083e-06 5.0572e-07 0)
(1.05996e-05 3.72799e-07 0)
(1.17716e-05 1.52832e-07 0)
(1.28628e-05 -6.64732e-08 0)
(1.41565e-05 -4.19883e-07 0)
(1.54517e-05 -7.66872e-07 0)
(1.69205e-05 -1.29681e-06 0)
(1.8464e-05 -1.80244e-06 0)
(2.00447e-05 -2.52902e-06 0)
(2.17271e-05 -3.18319e-06 0)
(2.30582e-05 -4.06389e-06 0)
(2.44369e-05 -4.78172e-06 0)
(2.46736e-05 -5.67492e-06 0)
(2.49033e-05 -6.29312e-06 0)
(2.28019e-05 -6.92772e-06 0)
(2.09675e-05 -7.16825e-06 0)
(1.55193e-05 -6.8586e-06 0)
(1.13422e-05 -5.67137e-06 0)
(2.50116e-06 -1.66598e-06 0)
(-4.27118e-06 5.44219e-06 0)
(-2.52317e-06 -5.52433e-06 0)
(-1.55703e-06 -3.10384e-06 0)
(-1.05088e-07 -1.74605e-06 0)
(-5.20442e-07 -1.40952e-06 0)
(-1.61944e-07 -1.20766e-06 0)
(-5.75389e-07 -1.2339e-06 0)
(-4.39259e-07 -1.24327e-06 0)
(-7.42379e-07 -1.29214e-06 0)
(-6.74164e-07 -1.36839e-06 0)
(-8.67061e-07 -1.4404e-06 0)
(-7.62125e-07 -1.59574e-06 0)
(-7.84234e-07 -1.72662e-06 0)
(-5.04501e-07 -2.00222e-06 0)
(-2.19859e-07 -2.23969e-06 0)
(4.20285e-07 -2.69384e-06 0)
(1.21174e-06 -3.0905e-06 0)
(2.41092e-06 -3.78058e-06 0)
(3.90358e-06 -4.36659e-06 0)
(5.7466e-06 -5.30878e-06 0)
(7.9558e-06 -6.04138e-06 0)
(1.01636e-05 -7.1516e-06 0)
(1.26663e-05 -7.86776e-06 0)
(1.43148e-05 -8.91767e-06 0)
(1.61054e-05 -9.34532e-06 0)
(1.5639e-05 -9.92394e-06 0)
(1.54734e-05 -9.61974e-06 0)
(1.1386e-05 -8.62337e-06 0)
(8.62229e-06 -5.74922e-06 0)
(3.53612e-07 1.62366e-06 0)
(-5.45744e-06 1.64214e-05 0)
(-2.79991e-06 -9.4842e-06 0)
(-2.06686e-06 -5.23848e-06 0)
(-9.95184e-07 -3.2211e-06 0)
(-1.99879e-06 -2.61459e-06 0)
(-2.13349e-06 -2.32796e-06 0)
(-3.10861e-06 -2.317e-06 0)
(-3.46875e-06 -2.3093e-06 0)
(-4.28915e-06 -2.33508e-06 0)
(-4.68907e-06 -2.41045e-06 0)
(-5.35092e-06 -2.47069e-06 0)
(-5.66331e-06 -2.66236e-06 0)
(-6.09104e-06 -2.81862e-06 0)
(-6.15098e-06 -3.20296e-06 0)
(-6.18143e-06 -3.5404e-06 0)
(-5.76568e-06 -4.2226e-06 0)
(-5.15781e-06 -4.83922e-06 0)
(-4.01597e-06 -5.92928e-06 0)
(-2.52168e-06 -6.89629e-06 0)
(-5.0695e-07 -8.45124e-06 0)
(1.94452e-06 -9.73525e-06 0)
(4.60315e-06 -1.16674e-05 0)
(7.61699e-06 -1.30436e-05 0)
(9.97968e-06 -1.50324e-05 0)
(1.25083e-05 -1.60557e-05 0)
(1.28545e-05 -1.74226e-05 0)
(1.35213e-05 -1.72438e-05 0)
(1.00083e-05 -1.60447e-05 0)
(7.97248e-06 -1.14102e-05 0)
(-3.44801e-07 1.97626e-07 0)
(-6.04675e-06 2.42083e-05 0)
(-2.97287e-06 -1.33791e-05 0)
(-2.37728e-06 -7.20766e-06 0)
(-1.44263e-06 -4.58812e-06 0)
(-2.6534e-06 -3.68639e-06 0)
(-2.94451e-06 -3.37179e-06 0)
(-4.11663e-06 -3.33634e-06 0)
(-4.63354e-06 -3.36554e-06 0)
(-5.63913e-06 -3.39909e-06 0)
(-6.18968e-06 -3.52871e-06 0)
(-7.02667e-06 -3.61256e-06 0)
(-7.47941e-06 -3.88999e-06 0)
(-8.07482e-06 -4.0971e-06 0)
(-8.26293e-06 -4.62338e-06 0)
(-8.45537e-06 -5.06354e-06 0)
(-8.15023e-06 -5.98288e-06 0)
(-7.69325e-06 -6.79282e-06 0)
(-6.6253e-06 -8.26971e-06 0)
(-5.2479e-06 -9.56767e-06 0)
(-3.22328e-06 -1.17196e-05 0)
(-8.03613e-07 -1.35047e-05 0)
(2.02573e-06 -1.6281e-05 0)
(5.16073e-06 -1.82982e-05 0)
(7.9098e-06 -2.13352e-05 0)
(1.07453e-05 -2.29732e-05 0)
(1.15835e-05 -2.53227e-05 0)
(1.26893e-05 -2.52309e-05 0)
(9.38624e-06 -2.38418e-05 0)
(7.82254e-06 -1.69719e-05 0)
(-1.04305e-06 -1.5473e-07 0)
(-6.77699e-06 3.43845e-05 0)
(-2.98119e-06 -1.75781e-05 0)
(-2.41766e-06 -9.59153e-06 0)
(-1.58412e-06 -6.26228e-06 0)
(-2.90546e-06 -5.07957e-06 0)
(-3.28785e-06 -4.68932e-06 0)
(-4.58315e-06 -4.62239e-06 0)
(-5.1907e-06 -4.65567e-06 0)
(-6.32286e-06 -4.67858e-06 0)
(-6.97188e-06 -4.83594e-06 0)
(-7.95133e-06 -4.92499e-06 0)
(-8.52382e-06 -5.27707e-06 0)
(-9.29883e-06 -5.53103e-06 0)
(-9.64687e-06 -6.21971e-06 0)
(-1.00805e-05 -6.79143e-06 0)
(-9.99146e-06 -8.02262e-06 0)
(-9.8522e-06 -9.11347e-06 0)
(-9.04971e-06 -1.11394e-05 0)
(-8.04978e-06 -1.29531e-05 0)
(-6.27774e-06 -1.60015e-05 0)
(-4.21693e-06 -1.86224e-05 0)
(-1.48129e-06 -2.27447e-05 0)
(1.4579e-06 -2.59347e-05 0)
(4.4569e-06 -3.07766e-05 0)
(7.40511e-06 -3.37323e-05 0)
(8.85434e-06 -3.8005e-05 0)
(1.0467e-05 -3.85887e-05 0)
(7.75247e-06 -3.74879e-05 0)
(7.18914e-06 -2.78729e-05 0)
(-1.98142e-06 -4.10703e-06 0)
(-7.56484e-06 4.31109e-05 0)
(-3.08563e-06 -2.07644e-05 0)
(-2.53742e-06 -1.10677e-05 0)
(-1.66296e-06 -7.08115e-06 0)
(-2.99172e-06 -5.60926e-06 0)
(-3.34752e-06 -5.18918e-06 0)
(-4.66528e-06 -5.10567e-06 0)
(-5.26441e-06 -5.204e-06 0)
(-6.44601e-06 -5.24842e-06 0)
(-7.12007e-06 -5.5018e-06 0)
(-8.19835e-06 -5.63289e-06 0)
(-8.85087e-06 -6.12491e-06 0)
(-9.80375e-06 -6.4539e-06 0)
(-1.03146e-05 -7.35944e-06 0)
(-1.10406e-05 -8.07542e-06 0)
(-1.12252e-05 -9.66603e-06 0)
(-1.15242e-05 -1.10462e-05 0)
(-1.11137e-05 -1.36921e-05 0)
(-1.06998e-05 -1.60719e-05 0)
(-9.38191e-06 -2.01867e-05 0)
(-7.98349e-06 -2.38344e-05 0)
(-5.58519e-06 -2.97089e-05 0)
(-3.215e-06 -3.45461e-05 0)
(-1.51923e-07 -4.20124e-05 0)
(2.52227e-06 -4.71303e-05 0)
(4.58574e-06 -5.46196e-05 0)
(6.47096e-06 -5.67929e-05 0)
(4.67546e-06 -5.68725e-05 0)
(5.80379e-06 -4.38575e-05 0)
(-3.39323e-06 -9.97892e-06 0)
(-8.58923e-06 5.33906e-05 0)
(-3.02617e-06 -2.52491e-05 0)
(-2.50047e-06 -1.3942e-05 0)
(-1.68363e-06 -9.24798e-06 0)
(-3.06255e-06 -7.50203e-06 0)
(-3.46944e-06 -6.99728e-06 0)
(-4.86592e-06 -6.88007e-06 0)
(-5.51887e-06 -6.97834e-06 0)
(-6.80398e-06 -6.99903e-06 0)
(-7.55332e-06 -7.27953e-06 0)
(-8.78282e-06 -7.39446e-06 0)
(-9.56283e-06 -7.97066e-06 0)
(-1.07572e-05 -8.32211e-06 0)
(-1.14938e-05 -9.42336e-06 0)
(-1.26118e-05 -1.02587e-05 0)
(-1.31783e-05 -1.22509e-05 0)
(-1.40884e-05 -1.39564e-05 0)
(-1.42635e-05 -1.73774e-05 0)
(-1.47292e-05 -2.04857e-05 0)
(-1.4182e-05 -2.60345e-05 0)
(-1.39007e-05 -3.11312e-05 0)
(-1.22669e-05 -3.95257e-05 0)
(-1.10775e-05 -4.69146e-05 0)
(-8.35508e-06 -5.84621e-05 0)
(-6.67781e-06 -6.73434e-05 0)
(-4.14061e-06 -8.04244e-05 0)
(-2.64971e-06 -8.61529e-05 0)
(-2.89404e-06 -8.96062e-05 0)
(1.39645e-06 -7.26515e-05 0)
(-6.17845e-06 -2.25808e-05 0)
(-9.97129e-06 6.25114e-05 0)
(-3.15871e-06 -2.75964e-05 0)
(-2.64179e-06 -1.48206e-05 0)
(-1.73137e-06 -9.49527e-06 0)
(-3.08527e-06 -7.44931e-06 0)
(-3.42672e-06 -6.92485e-06 0)
(-4.82883e-06 -6.78684e-06 0)
(-5.44698e-06 -6.98494e-06 0)
(-6.78988e-06 -7.02669e-06 0)
(-7.55953e-06 -7.45223e-06 0)
(-8.93495e-06 -7.60771e-06 0)
(-9.82773e-06 -8.38514e-06 0)
(-1.13072e-05 -8.80617e-06 0)
(-1.23033e-05 -1.02065e-05 0)
(-1.39206e-05 -1.11867e-05 0)
(-1.49717e-05 -1.36772e-05 0)
(-1.67007e-05 -1.57303e-05 0)
(-1.76829e-05 -2.00711e-05 0)
(-1.94099e-05 -2.40186e-05 0)
(-2.00566e-05 -3.13555e-05 0)
(-2.15534e-05 -3.83493e-05 0)
(-2.13805e-05 -5.02002e-05 0)
(-2.24126e-05 -6.14345e-05 0)
(-2.09681e-05 -7.92405e-05 0)
(-2.18773e-05 -9.46784e-05 0)
(-1.99922e-05 -0.000117479 0)
(-2.14948e-05 -0.000130936 0)
(-2.06414e-05 -0.000143187 0)
(-1.17849e-05 -0.000123246 0)
(-1.31868e-05 -4.51375e-05 0)
(-1.23597e-05 7.12835e-05 0)
(-3.04246e-06 -3.2491e-05 0)
(-2.57669e-06 -1.83855e-05 0)
(-1.74464e-06 -1.23611e-05 0)
(-3.17546e-06 -1.00383e-05 0)
(-3.59025e-06 -9.39506e-06 0)
(-5.10416e-06 -9.20601e-06 0)
(-5.79571e-06 -9.36925e-06 0)
(-7.28147e-06 -9.3444e-06 0)
(-8.14515e-06 -9.76309e-06 0)
(-9.72749e-06 -9.8347e-06 0)
(-1.07789e-05 -1.06743e-05 0)
(-1.25986e-05 -1.10302e-05 0)
(-1.38999e-05 -1.2634e-05 0)
(-1.61103e-05 -1.36398e-05 0)
(-1.77533e-05 -1.66121e-05 0)
(-2.05202e-05 -1.89456e-05 0)
(-2.25937e-05 -2.43392e-05 0)
(-2.60807e-05 -2.92125e-05 0)
(-2.85791e-05 -3.88147e-05 0)
(-3.28826e-05 -4.82613e-05 0)
(-3.54675e-05 -6.4912e-05 0)
(-4.06139e-05 -8.18203e-05 0)
(-4.26251e-05 -0.000109213 0)
(-4.95244e-05 -0.000135666 0)
(-5.20547e-05 -0.000174994 0)
(-6.39377e-05 -0.000204097 0)
(-6.60995e-05 -0.000237516 0)
(-5.27423e-05 -0.000220136 0)
(-3.42774e-05 -9.09122e-05 0)
(-1.81089e-05 7.51396e-05 0)
(-3.24304e-06 -3.36669e-05 0)
(-2.78183e-06 -1.83892e-05 0)
(-1.80295e-06 -1.17939e-05 0)
(-3.18283e-06 -9.12761e-06 0)
(-3.48552e-06 -8.49244e-06 0)
(-4.99769e-06 -8.25169e-06 0)
(-5.61718e-06 -8.57071e-06 0)
(-7.18345e-06 -8.54086e-06 0)
(-8.05049e-06 -9.17407e-06 0)
(-9.84581e-06 -9.25023e-06 0)
(-1.10294e-05 -1.03664e-05 0)
(-1.32707e-05 -1.07276e-05 0)
(-1.49206e-05 -1.27124e-05 0)
(-1.78986e-05 -1.37581e-05 0)
(-2.0278e-05 -1.7344e-05 0)
(-2.44223e-05 -1.99091e-05 0)
(-2.79503e-05 -2.64965e-05 0)
(-3.39028e-05 -3.22884e-05 0)
(-3.91425e-05 -4.45602e-05 0)
(-4.77784e-05 -5.69644e-05 0)
(-5.51726e-05 -7.99554e-05 0)
(-6.766e-05 -0.00010504 0)
(-7.75497e-05 -0.000146929 0)
(-9.76387e-05 -0.000191901 0)
(-0.000114956 -0.000259571 0)
(-0.000153997 -0.000321882 0)
(-0.000168501 -0.000406875 0)
(-0.000151051 -0.000411403 0)
(-8.75614e-05 -0.000185748 0)
(-3.33491e-05 6.71649e-05 0)
(-3.02998e-06 -3.91993e-05 0)
(-2.66084e-06 -2.29735e-05 0)
(-1.79299e-06 -1.56689e-05 0)
(-3.30738e-06 -1.27229e-05 0)
(-3.71752e-06 -1.1886e-05 0)
(-5.40117e-06 -1.15613e-05 0)
(-6.12138e-06 -1.17534e-05 0)
(-7.88612e-06 -1.15698e-05 0)
(-8.85938e-06 -1.2101e-05 0)
(-1.09232e-05 -1.19474e-05 0)
(-1.22699e-05 -1.30414e-05 0)
(-1.49526e-05 -1.31292e-05 0)
(-1.69471e-05 -1.52568e-05 0)
(-2.07464e-05 -1.60426e-05 0)
(-2.39231e-05 -2.00949e-05 0)
(-2.96856e-05 -2.25723e-05 0)
(-3.5025e-05 -3.03488e-05 0)
(-4.42217e-05 -3.67767e-05 0)
(-5.34187e-05 -5.21052e-05 0)
(-6.85874e-05 -6.76843e-05 0)
(-8.4303e-05 -9.88933e-05 0)
(-0.000110035 -0.000134886 0)
(-0.000137381 -0.000198218 0)
(-0.000186413 -0.000272865 0)
(-0.000240966 -0.000392438 0)
(-0.000325345 -0.000534632 0)
(-0.000334038 -0.000750039 0)
(-0.000287484 -0.000808861 0)
(-0.000188949 -0.000383187 0)
(-6.82804e-05 2.46478e-05 0)
(-3.35549e-06 -3.86989e-05 0)
(-2.95152e-06 -2.16501e-05 0)
(-1.85102e-06 -1.38742e-05 0)
(-3.25434e-06 -1.04838e-05 0)
(-3.45935e-06 -9.72024e-06 0)
(-5.11539e-06 -9.2568e-06 0)
(-5.67158e-06 -9.7077e-06 0)
(-7.53682e-06 -9.44388e-06 0)
(-8.44068e-06 -1.03038e-05 0)
(-1.0795e-05 -1.00591e-05 0)
(-1.22343e-05 -1.15326e-05 0)
(-1.5496e-05 -1.1457e-05 0)
(-1.78565e-05 -1.40365e-05 0)
(-2.27315e-05 -1.45448e-05 0)
(-2.68236e-05 -1.92284e-05 0)
(-3.46597e-05 -2.13719e-05 0)
(-4.2188e-05 -3.03282e-05 0)
(-5.56682e-05 -3.6853e-05 0)
(-7.01885e-05 -5.51888e-05 0)
(-9.49206e-05 -7.34157e-05 0)
(-0.000123976 -0.00011388 0)
(-0.000172935 -0.00016263 0)
(-0.000235587 -0.000255482 0)
(-0.000343494 -0.000379203 0)
(-0.00046257 -0.00061431 0)
(-0.000545105 -0.000985138 0)
(-0.000391284 -0.00152564 0)
(-0.00028856 -0.00159891 0)
(-0.000347413 -0.000721694 0)
(-0.00010734 -0.000124398 0)
(-2.97001e-06 -4.53056e-05 0)
(-2.72744e-06 -2.78226e-05 0)
(-1.7524e-06 -1.92716e-05 0)
(-3.39069e-06 -1.56386e-05 0)
(-3.74505e-06 -1.44895e-05 0)
(-5.66163e-06 -1.39154e-05 0)
(-6.35546e-06 -1.40374e-05 0)
(-8.48295e-06 -1.34811e-05 0)
(-9.48433e-06 -1.40377e-05 0)
(-1.21516e-05 -1.33047e-05 0)
(-1.36846e-05 -1.45698e-05 0)
(-1.74468e-05 -1.38243e-05 0)
(-2.00455e-05 -1.63711e-05 0)
(-2.59027e-05 -1.60054e-05 0)
(-3.0764e-05 -2.09443e-05 0)
(-4.07459e-05 -2.19577e-05 0)
(-5.05814e-05 -3.1743e-05 0)
(-6.90988e-05 -3.70603e-05 0)
(-9.02935e-05 -5.79308e-05 0)
(-0.000128049 -7.65644e-05 0)
(-0.000177331 -0.000125977 0)
(-0.000265182 -0.000185273 0)
(-0.000392946 -0.000316648 0)
(-0.000601822 -0.000529533 0)
(-0.000765471 -0.00105226 0)
(-0.000609885 -0.00198276 0)
(-2.06063e-05 -0.00302969 0)
(-5.10626e-05 -0.00265763 0)
(-0.000452281 -0.00122047 0)
(4.07772e-06 -0.000614946 0)
(-3.53353e-06 -4.24447e-05 0)
(-3.12112e-06 -2.44913e-05 0)
(-1.7871e-06 -1.56501e-05 0)
(-3.1816e-06 -1.13377e-05 0)
(-3.15098e-06 -1.04273e-05 0)
(-4.98214e-06 -9.50404e-06 0)
(-5.30663e-06 -1.01032e-05 0)
(-7.55451e-06 -9.30696e-06 0)
(-8.29759e-06 -1.04197e-05 0)
(-1.13474e-05 -9.428e-06 0)
(-1.28043e-05 -1.12635e-05 0)
(-1.73137e-05 -1.00623e-05 0)
(-2.00982e-05 -1.3164e-05 0)
(-2.7304e-05 -1.19262e-05 0)
(-3.28708e-05 -1.74092e-05 0)
(-4.54578e-05 -1.68331e-05 0)
(-5.74625e-05 -2.72348e-05 0)
(-8.18346e-05 -2.9874e-05 0)
(-0.000110128 -5.19356e-05 0)
(-0.00016419 -6.68253e-05 0)
(-0.000239693 -0.00012066 0)
(-0.000383987 -0.000181226 0)
(-0.000602953 -0.000360572 0)
(-0.000923994 -0.000743315 0)
(-0.00099489 -0.00181587 0)
(-0.000318298 -0.00349092 0)
(0.000687651 -0.00465515 0)
(0.000440184 -0.00342239 0)
(0.000157817 -0.00230205 0)
(0.000426223 -0.00173371 0)
(-2.8292e-06 -5.0886e-05 0)
(-2.73286e-06 -3.32088e-05 0)
(-1.44876e-06 -2.33786e-05 0)
(-3.26376e-06 -1.90237e-05 0)
(-3.44658e-06 -1.73271e-05 0)
(-5.67161e-06 -1.63581e-05 0)
(-6.21941e-06 -1.62169e-05 0)
(-8.7965e-06 -1.49591e-05 0)
(-9.61896e-06 -1.53968e-05 0)
(-1.29783e-05 -1.3537e-05 0)
(-1.43346e-05 -1.4857e-05 0)
(-1.92964e-05 -1.23812e-05 0)
(-2.1913e-05 -1.51809e-05 0)
(-3.00342e-05 -1.21055e-05 0)
(-3.56906e-05 -1.74953e-05 0)
(-5.0394e-05 -1.39957e-05 0)
(-6.37155e-05 -2.4355e-05 0)
(-9.35294e-05 -2.1679e-05 0)
(-0.000127885 -4.30625e-05 0)
(-0.000198533 -4.68969e-05 0)
(-0.000299648 -9.77897e-05 0)
(-0.000502339 -0.000144445 0)
(-0.000799097 -0.000386264 0)
(-0.00119101 -0.000989594 0)
(-0.00107455 -0.00258241 0)
(3.25315e-05 -0.00449613 0)
(0.00136417 -0.00526383 0)
(0.00172476 -0.00408687 0)
(0.00175552 -0.00391616 0)
(0.000713114 -0.00300916 0)
(-3.87892e-06 -4.4818e-05 0)
(-3.22861e-06 -2.68741e-05 0)
(-1.45793e-06 -1.71355e-05 0)
(-2.76218e-06 -1.15032e-05 0)
(-2.21675e-06 -1.04699e-05 0)
(-4.27118e-06 -8.65245e-06 0)
(-4.00887e-06 -9.48316e-06 0)
(-6.76575e-06 -7.6788e-06 0)
(-6.93175e-06 -9.1604e-06 0)
(-1.08279e-05 -6.8228e-06 0)
(-1.17258e-05 -9.15254e-06 0)
(-1.76441e-05 -5.88181e-06 0)
(-1.99402e-05 -9.54895e-06 0)
(-2.96101e-05 -4.89193e-06 0)
(-3.50083e-05 -1.0895e-05 0)
(-5.23319e-05 -4.22312e-06 0)
(-6.56865e-05 -1.45799e-05 0)
(-0.000100637 -5.21203e-06 0)
(-0.000137056 -2.44387e-05 0)
(-0.00022066 -1.24025e-05 0)
(-0.000333855 -5.52252e-05 0)
(-0.000574505 -7.72678e-05 0)
(-0.00090124 -0.000357608 0)
(-0.00133784 -0.00102122 0)
(-0.00110485 -0.00263303 0)
(0.000217389 -0.00416573 0)
(0.00204485 -0.00464846 0)
(0.00339807 -0.00409671 0)
(0.00282466 -0.00411727 0)
(0.0008262 -0.0035075 0)
(-2.52429e-06 -5.62616e-05 0)
(-2.60496e-06 -3.96886e-05 0)
(-5.20852e-07 -2.83408e-05 0)
(-2.60182e-06 -2.34047e-05 0)
(-2.4418e-06 -2.0688e-05 0)
(-5.08706e-06 -1.92236e-05 0)
(-5.33029e-06 -1.84936e-05 0)
(-8.4718e-06 -1.61059e-05 0)
(-8.78835e-06 -1.62482e-05 0)
(-1.29236e-05 -1.25485e-05 0)
(-1.341e-05 -1.39395e-05 0)
(-1.95825e-05 -8.66337e-06 0)
(-2.09422e-05 -1.17919e-05 0)
(-3.11571e-05 -4.25617e-06 0)
(-3.50853e-05 -1.00659e-05 0)
(-5.36422e-05 1.23336e-06 0)
(-6.48648e-05 -8.88778e-06 0)
(-0.000102511 9.32382e-06 0)
(-0.000135793 -7.73112e-06 0)
(-0.000225034 2.41703e-05 0)
(-0.000332014 -9.304e-06 0)
(-0.000581945 1.03143e-05 0)
(-0.000895038 -0.000231459 0)
(-0.00135726 -0.000701318 0)
(-0.00110497 -0.00186723 0)
(0.000248705 -0.0027463 0)
(0.00228846 -0.00291355 0)
(0.00373178 -0.00242865 0)
(0.00271832 -0.00265126 0)
(0.00128679 -0.00293721 0)
(-4.66189e-06 -4.61605e-05 0)
(-3.13917e-06 -2.89339e-05 0)
(-6.34143e-07 -1.86058e-05 0)
(-1.71401e-06 -1.0745e-05 0)
(-1.13426e-07 -9.76706e-06 0)
(-2.56197e-06 -6.24543e-06 0)
(-1.0253e-06 -7.60882e-06 0)
(-4.56967e-06 -4.12559e-06 0)
(-3.45888e-06 -6.33653e-06 0)
(-8.5178e-06 -1.90783e-06 0)
(-7.92247e-06 -5.23986e-06 0)
(-1.54479e-05 1.03071e-06 0)
(-1.56932e-05 -3.79011e-06 0)
(-2.77897e-05 5.72363e-06 0)
(-2.98844e-05 -1.42734e-06 0)
(-5.09757e-05 1.37068e-05 0)
(-5.84352e-05 2.89521e-06 0)
(-9.9151e-05 2.87189e-05 0)
(-0.000123922 1.29736e-05 0)
(-0.00021436 6.12151e-05 0)
(-0.000298825 3.71804e-05 0)
(-0.000535134 0.000105668 0)
(-0.000794763 -3.17508e-05 0)
(-0.00122355 -0.000183295 0)
(-0.00100768 -0.000738682 0)
(0.000161445 -0.000955965 0)
(0.00189438 -0.000736975 0)
(0.00282235 -0.000250248 0)
(0.00233155 -0.00101828 0)
(0.00122841 -0.00142654 0)
(-1.76396e-06 -6.19625e-05 0)
(-2.17676e-06 -4.82882e-05 0)
(1.82171e-06 -3.45961e-05 0)
(-6.88289e-07 -2.98493e-05 0)
(-1.19309e-07 -2.51372e-05 0)
(-3.39934e-06 -2.32871e-05 0)
(-3.31837e-06 -2.14172e-05 0)
(-7.20151e-06 -1.74394e-05 0)
(-6.64011e-06 -1.71588e-05 0)
(-1.17576e-05 -1.07129e-05 0)
(-1.04936e-05 -1.24516e-05 0)
(-1.79444e-05 -3.37167e-06 0)
(-1.63175e-05 -7.55717e-06 0)
(-2.84655e-05 5.59031e-06 0)
(-2.7287e-05 -1.79901e-06 0)
(-4.86158e-05 1.84624e-05 0)
(-5.02032e-05 6.53843e-06 0)
(-9.07148e-05 4.04779e-05 0)
(-0.000103221 2.32851e-05 0)
(-0.000188829 8.54791e-05 0)
(-0.000242566 6.5403e-05 0)
(-0.000448 0.000173963 0)
(-0.000628551 0.000132654 0)
(-0.000971184 0.000246069 0)
(-0.000804584 0.000177147 0)
(5.08898e-05 0.000442692 0)
(0.00129206 0.0009336 0)
(0.00181803 0.00131773 0)
(0.00169676 0.000510971 0)
(0.000733594 8.80502e-05 0)
(-6.67434e-06 -4.80896e-05 0)
(-2.59401e-06 -3.1296e-05 0)
(9.81242e-07 -2.10893e-05 0)
(2.12773e-07 -8.62503e-06 0)
(4.043e-06 -8.32442e-06 0)
(5.90617e-07 -1.56534e-06 0)
(4.68832e-06 -4.1719e-06 0)
(-3.40342e-07 1.82176e-06 0)
(3.162e-06 -2.09414e-06 0)
(-3.79296e-06 5.21868e-06 0)
(-6.48642e-07 -1.65644e-07 0)
(-1.03834e-05 9.93112e-06 0)
(-6.87375e-06 2.52539e-06 0)
(-2.17625e-05 1.75035e-05 0)
(-1.73825e-05 7.30958e-06 0)
(-4.2053e-05 3.06156e-05 0)
(-3.71115e-05 1.63883e-05 0)
(-8.0878e-05 5.47666e-05 0)
(-7.94346e-05 3.63446e-05 0)
(-0.000162723 0.000104498 0)
(-0.000183835 8.89503e-05 0)
(-0.000354382 0.00021492 0)
(-0.000452312 0.000232499 0)
(-0.000693355 0.000472564 0)
(-0.000562111 0.00065893 0)
(-3.14878e-05 0.00115444 0)
(0.000773611 0.0017716 0)
(0.00101209 0.00217364 0)
(0.000800823 0.00152929 0)
(0.000739543 0.00114645 0)
(6.20593e-07 -6.79117e-05 0)
(-8.12993e-07 -6.08819e-05 0)
(7.48801e-06 -4.23632e-05 0)
(4.3067e-06 -4.04676e-05 0)
(4.46963e-06 -3.17083e-05 0)
(2.10859e-07 -3.0208e-05 0)
(-7.92751e-08 -2.61118e-05 0)
(-5.08869e-06 -1.9848e-05 0)
(-3.34352e-06 -1.92586e-05 0)
(-9.7705e-06 -8.99901e-06 0)
(-5.86372e-06 -1.18511e-05 0)
(-1.49927e-05 2.13881e-06 0)
(-8.85181e-06 -4.47389e-06 0)
(-2.32579e-05 1.47161e-05 0)
(-1.45208e-05 3.66877e-06 0)
(-3.87864e-05 3.16943e-05 0)
(-2.68082e-05 1.47516e-05 0)
(-6.93131e-05 5.84353e-05 0)
(-5.47694e-05 3.47358e-05 0)
(-0.000131011 0.00010693 0)
(-0.000122572 8.31906e-05 0)
(-0.000258224 0.000208878 0)
(-0.000282282 0.000226101 0)
(-0.000444496 0.000480417 0)
(-0.000324536 0.000709352 0)
(-7.58662e-05 0.00123976 0)
(0.000431544 0.00183915 0)
(0.000318283 0.00233485 0)
(0.000153144 0.00166932 0)
(0.000604937 0.00166995 0)
(-1.27611e-05 -5.7267e-05 0)
(-1.56994e-06 -3.60843e-05 0)
(3.7249e-06 -2.77681e-05 0)
(2.65871e-06 -3.8107e-06 0)
(1.17422e-05 -5.47694e-06 0)
(5.56485e-06 6.97047e-06 0)
(1.4887e-05 1.59182e-06 0)
(6.51943e-06 1.11675e-05 0)
(1.39659e-05 3.58611e-06 0)
(3.68241e-06 1.44529e-05 0)
(1.04134e-05 4.81605e-06 0)
(-2.75822e-06 1.9577e-05 0)
(5.58898e-06 7.36146e-06 0)
(-1.31933e-05 2.81464e-05 0)
(-7.48096e-07 1.24218e-05 0)
(-3.02138e-05 4.2325e-05 0)
(-1.09946e-05 2.18971e-05 0)
(-5.9364e-05 6.61486e-05 0)
(-3.14083e-05 4.08772e-05 0)
(-0.000110147 0.00010883 0)
(-7.66032e-05 8.52676e-05 0)
(-0.000195313 0.00019488 0)
(-0.00016761 0.000206182 0)
(-0.000287057 0.000411356 0)
(-0.000161689 0.000595453 0)
(-9.43184e-05 0.00103279 0)
(0.000280092 0.00152541 0)
(-6.27534e-05 0.00202172 0)
(-2.12216e-05 0.00141039 0)
(0.000535981 0.00157198 0)
(9.98398e-06 -6.71946e-05 0)
(5.16923e-06 -8.01358e-05 0)
(2.19359e-05 -5.03996e-05 0)
(1.82124e-05 -6.00048e-05 0)
(1.26176e-05 -4.25758e-05 0)
(6.75206e-06 -4.27282e-05 0)
(3.83144e-06 -3.48634e-05 0)
(-3.11649e-06 -2.44161e-05 0)
(-1.768e-07 -2.38928e-05 0)
(-8.42396e-06 -7.86013e-06 0)
(-8.45365e-07 -1.36521e-05 0)
(-1.21464e-05 6.65462e-06 0)
(-4.29605e-07 -4.57796e-06 0)
(-1.77199e-05 2.12283e-05 0)
(-7.65848e-07 4.23195e-06 0)
(-2.86706e-05 3.87145e-05 0)
(-3.94473e-06 1.44313e-05 0)
(-4.96853e-05 6.27663e-05 0)
(-1.36381e-05 2.9371e-05 0)
(-8.64122e-05 9.89755e-05 0)
(-3.63158e-05 5.78998e-05 0)
(-0.000140506 0.000160047 0)
(-7.36736e-05 0.000128813 0)
(-0.000180866 0.000294434 0)
(-2.98745e-05 0.000365286 0)
(-8.7225e-05 0.00069631 0)
(0.000269046 0.00101595 0)
(-0.000181423 0.00142767 0)
(3.11918e-05 0.000955966 0)
(0.000948192 0.00154652 0)
(-3.57557e-05 -0.000107035 0)
(-6.45814e-06 -5.00759e-05 0)
(5.05556e-06 -4.65338e-05 0)
(1.22012e-06 7.86941e-06 0)
(2.61817e-05 2.36442e-06 0)
(1.26971e-05 2.378e-05 0)
(3.31552e-05 1.23163e-05 0)
(1.75052e-05 2.55984e-05 0)
(3.05262e-05 1.07235e-05 0)
(1.40839e-05 2.61674e-05 0)
(2.4908e-05 8.60837e-06 0)
(6.61158e-06 2.94634e-05 0)
(2.00148e-05 8.92742e-06 0)
(-3.97943e-06 3.68128e-05 0)
(1.63188e-05 1.24692e-05 0)
(-1.94332e-05 4.88403e-05 0)
(1.23355e-05 2.00175e-05 0)
(-4.36187e-05 6.67303e-05 0)
(4.35703e-06 3.3779e-05 0)
(-8.07983e-05 9.34543e-05 0)
(-1.31737e-05 5.91163e-05 0)
(-0.000128922 0.000136783 0)
(-3.61206e-05 0.000111834 0)
(-0.000157603 0.000223862 0)
(1.41651e-05 0.000259938 0)
(-0.000106196 0.000484774 0)
(0.000282092 0.000657227 0)
(-0.00018151 0.000960947 0)
(0.000335339 0.000644816 0)
(0.00138773 0.00182185 0)
(5.82187e-05 -1.3583e-05 0)
(4.7609e-05 -0.000100922 0)
(6.74349e-05 -5.59581e-05 0)
(6.27014e-05 -0.000103778 0)
(2.72685e-05 -7.01261e-05 0)
(1.6298e-05 -6.69044e-05 0)
(5.12662e-06 -5.1768e-05 0)
(-5.00542e-06 -3.14398e-05 0)
(-2.36975e-09 -3.29516e-05 0)
(-1.05249e-05 -7.01619e-06 0)
(2.28334e-06 -1.91417e-05 0)
(-1.15309e-05 1.03005e-05 0)
(6.6466e-06 -9.03602e-06 0)
(-1.39107e-05 2.51383e-05 0)
(1.05211e-05 -6.72726e-07 0)
(-2.10303e-05 4.09118e-05 0)
(1.26368e-05 7.37364e-06 0)
(-3.61595e-05 5.97962e-05 0)
(1.17269e-05 1.58807e-05 0)
(-6.24333e-05 8.34163e-05 0)
(7.62766e-06 2.4238e-05 0)
(-9.73851e-05 0.000112985 0)
(1.3189e-05 3.31657e-05 0)
(-0.000117404 0.0001531 0)
(8.95746e-05 7.79809e-05 0)
(-9.61302e-05 0.000260205 0)
(0.0003523 0.000264798 0)
(-7.61231e-05 0.000453423 0)
(0.000988247 0.000474287 0)
(0.00205611 0.00262389 0)
(-0.000130637 -0.000361035 0)
(-7.32715e-05 -7.56827e-05 0)
(-2.47622e-05 -8.60077e-05 0)
(-2.75907e-05 4.88754e-05 0)
(5.73406e-05 3.96403e-05 0)
(2.85813e-05 6.03708e-05 0)
(6.803e-05 3.53651e-05 0)
(3.69405e-05 4.86955e-05 0)
(5.58845e-05 1.88714e-05 0)
(2.88709e-05 4.03718e-05 0)
(4.26418e-05 8.8896e-06 0)
(1.65396e-05 3.95591e-05 0)
(3.35096e-05 5.37555e-06 0)
(2.01076e-06 4.44836e-05 0)
(2.82509e-05 6.58771e-06 0)
(-1.62291e-05 5.29623e-05 0)
(2.51718e-05 1.21509e-05 0)
(-4.16527e-05 6.31663e-05 0)
(2.18053e-05 2.25778e-05 0)
(-7.8624e-05 7.42231e-05 0)
(1.39851e-05 3.84662e-05 0)
(-0.000126566 8.65784e-05 0)
(5.813e-06 6.10027e-05 0)
(-0.000165354 0.000110162 0)
(5.2819e-05 0.000109491 0)
(-0.000128589 0.000207641 0)
(0.000307233 0.00029487 0)
(0.000218314 0.000577627 0)
(0.00271343 0.00192328 0)
(0.00369522 0.00562842 0)
(0.000336641 0.000218167 0)
(0.00030492 -0.000206439 0)
(0.000172576 -0.000124173 0)
(0.000183006 -0.000198677 0)
(4.16842e-05 -0.000122463 0)
(1.79146e-05 -9.49031e-05 0)
(-1.88419e-06 -8.04568e-05 0)
(-1.97575e-05 -3.83872e-05 0)
(-1.00394e-05 -4.99152e-05 0)
(-2.6885e-05 -6.40361e-06 0)
(-8.83336e-06 -2.97481e-05 0)
(-3.06946e-05 1.25437e-05 0)
(-8.01815e-06 -1.67631e-05 0)
(-3.81191e-05 2.6231e-05 0)
(-9.81366e-06 -8.18759e-06 0)
(-5.0367e-05 3.89684e-05 0)
(-1.29941e-05 -2.08054e-06 0)
(-6.77387e-05 5.26399e-05 0)
(-1.38337e-05 2.07128e-06 0)
(-8.74714e-05 6.92997e-05 0)
(-6.2897e-06 9.94455e-07 0)
(-9.97442e-05 9.05495e-05 0)
(3.37765e-05 -1.58507e-05 0)
(-8.63785e-05 0.000109536 0)
(0.000179712 -5.4171e-05 0)
(6.2057e-05 0.000146591 0)
(0.000703947 0.000124793 0)
(0.00167208 0.00106939 0)
(0.0062276 0.00388777 0)
(0.00588883 0.0107034 0)
(-0.000570039 -0.00205669 0)
(-0.00042391 0.00015298 0)
(-1.32232e-05 0.000176185 0)
(-2.17149e-05 0.000100242 0)
(0.000162309 0.000106035 0)
(6.26121e-05 9.2249e-05 0)
(0.000109896 5.75581e-05 0)
(4.21781e-05 6.54127e-05 0)
(5.69346e-05 3.98029e-05 0)
(6.94729e-06 5.98349e-05 0)
(1.46839e-05 3.42669e-05 0)
(-2.89676e-05 6.15456e-05 0)
(-1.60638e-05 3.22315e-05 0)
(-6.43241e-05 6.50864e-05 0)
(-3.75977e-05 3.06298e-05 0)
(-0.000100185 6.86433e-05 0)
(-4.84109e-05 2.85925e-05 0)
(-0.000141902 7.14664e-05 0)
(-4.69045e-05 2.75446e-05 0)
(-0.000182775 7.05089e-05 0)
(-3.81254e-05 3.07537e-05 0)
(-0.000210953 6.78899e-05 0)
(-8.84946e-06 5.52861e-05 0)
(-0.000212945 0.000104539 0)
(0.000108001 0.000278488 0)
(0.000124434 0.000638037 0)
(0.00129816 0.00222515 0)
(0.00382344 0.00553892 0)
(0.012029 0.0143104 0)
(0.0102204 0.0262557 0)
(0.00254614 -0.00267844 0)
(0.00257237 0.000478497 0)
(0.00012532 0.000326289 0)
(9.54508e-05 0.000609229 0)
(2.21519e-05 0.000460788 0)
(-5.48897e-05 0.000479767 0)
(-5.72906e-05 0.000352887 0)
(-7.70841e-05 0.000322137 0)
(-5.43895e-05 0.000245664 0)
(-8.40346e-05 0.000219479 0)
(-5.66379e-05 0.000169716 0)
(-9.74295e-05 0.000158586 0)
(-6.72005e-05 0.000121268 0)
(-0.000118254 0.000121188 0)
(-8.10534e-05 9.46974e-05 0)
(-0.000137994 9.80601e-05 0)
(-8.92052e-05 7.68321e-05 0)
(-0.000166332 8.14638e-05 0)
(-9.10957e-05 8.18251e-05 0)
(-0.000182191 5.26185e-05 0)
(-8.83416e-05 0.00011297 0)
(-0.000142672 3.79258e-05 0)
(2.04517e-05 0.000184692 0)
(0.000113217 9.12581e-05 0)
(0.000732047 0.000523391 0)
(0.00205531 0.000664759 0)
(0.00567336 0.00244164 0)
(0.0133336 0.00494998 0)
(0.0266819 0.0120345 0)
(0.0182946 0.0193225 0)
)
;

boundaryField
{
    movingWall
    {
        type            fixedValue;
        value           uniform (1 0 0);
    }
    fixedWalls
    {
        type            noSlip;
    }
    frontAndBack
    {
        type            empty;
    }
}


// ************************************************************************* //
