/*--------------------------------*- C++ -*----------------------------------*\
| =========                 |                                                 |
| \\      /  F ield         | OpenFOAM: The Open Source CFD Toolbox           |
|  \\    /   O peration     | Version:  2406                                  |
|   \\  /    A nd           | Website:  www.openfoam.com                      |
|    \\/     M anipulation  |                                                 |
\*---------------------------------------------------------------------------*/
FoamFile
{
    version     2.0;
    format      ascii;
    arch        "LSB;label=32;scalar=64";
    class       volVectorField;
    location    "29.05";
    object      Uold;
}
// * * * * * * * * * * * * * * * * * * * * * * * * * * * * * * * * * * * * * //

dimensions      [0 1 -1 0 0 0 0];

internalField   nonuniform List<vector> 
3600
(
(2.80472e-05 -3.36256e-05 0)
(0.000489014 -0.000211755 0)
(0.00128917 -0.000289109 0)
(0.00213352 -0.00029361 0)
(0.00294133 -0.00024978 0)
(0.00356227 -0.000191761 0)
(0.00403141 -0.000135467 0)
(0.0043069 -8.99575e-05 0)
(0.00445333 -5.79845e-05 0)
(0.00446025 -3.60064e-05 0)
(0.00436651 -1.99483e-05 0)
(0.00414657 -1.70423e-06 0)
(0.00379203 2.45364e-05 0)
(0.00324707 6.60887e-05 0)
(0.00246215 0.000126547 0)
(0.00136158 0.000209695 0)
(-0.000121991 0.000316253 0)
(-0.00206211 0.000446779 0)
(-0.0045174 0.000597235 0)
(-0.00753567 0.000760759 0)
(-0.0111389 0.000928821 0)
(-0.0153165 0.00109759 0)
(-0.0200104 0.0012657 0)
(-0.0251049 0.00142871 0)
(-0.0304223 0.00157005 0)
(-0.0357253 0.00166075 0)
(-0.0407298 0.00166476 0)
(-0.0451219 0.00155023 0)
(-0.0485854 0.00129696 0)
(-0.0508244 0.000901791 0)
(-0.0515913 0.000378052 0)
(-0.0507035 -0.000245136 0)
(-0.0480658 -0.000926531 0)
(-0.0436788 -0.00161471 0)
(-0.0376564 -0.00225254 0)
(-0.0302227 -0.0027804 0)
(-0.0217199 -0.00314271 0)
(-0.0125847 -0.00329381 0)
(-0.00333761 -0.00320647 0)
(0.00547304 -0.00287851 0)
(0.0133028 -0.00233835 0)
(0.0196954 -0.00164528 0)
(0.0243127 -0.000882996 0)
(0.0270142 -0.000146832 0)
(0.0278384 0.000476465 0)
(0.0270327 0.000926134 0)
(0.0249555 0.00118231 0)
(0.0220609 0.00126275 0)
(0.0187577 0.00121316 0)
(0.0154225 0.00108428 0)
(0.0122824 0.000921795 0)
(0.00951193 0.000754276 0)
(0.00713642 0.000602127 0)
(0.00518937 0.000471098 0)
(0.00358838 0.000369108 0)
(0.0023225 0.000286095 0)
(0.00129838 0.000220751 0)
(0.000545559 0.000135899 0)
(6.85494e-05 3.74391e-05 0)
(-7.51195e-05 -8.06307e-05 0)
(0.000197928 -0.000481364 0)
(0.00123976 -0.00125016 0)
(0.00281169 -0.0015616 0)
(0.00440306 -0.00154328 0)
(0.00588021 -0.0013086 0)
(0.00698066 -0.00097553 0)
(0.00771912 -0.000623061 0)
(0.0080033 -0.000285891 0)
(0.00789053 1.69278e-05 0)
(0.00733392 0.000304667 0)
(0.00634377 0.000596292 0)
(0.00483453 0.000933678 0)
(0.00272931 0.00134672 0)
(-0.000119396 0.00187163 0)
(-0.00385556 0.00252428 0)
(-0.00864852 0.00331547 0)
(-0.0146368 0.00423351 0)
(-0.0219288 0.00525782 0)
(-0.030558 0.00634903 0)
(-0.0404629 0.00745867 0)
(-0.0514517 0.00851587 0)
(-0.0631979 0.00942963 0)
(-0.0752585 0.0100876 0)
(-0.0871143 0.0103792 0)
(-0.098224 0.010211 0)
(-0.108071 0.00952578 0)
(-0.116202 0.00830388 0)
(-0.122245 0.0065662 0)
(-0.125921 0.00436574 0)
(-0.127036 0.00178547 0)
(-0.125481 -0.00107055 0)
(-0.121227 -0.00407741 0)
(-0.114326 -0.00709581 0)
(-0.104911 -0.00997094 0)
(-0.0932077 -0.0125402 0)
(-0.0795315 -0.0146357 0)
(-0.0643042 -0.0160996 0)
(-0.048037 -0.0167947 0)
(-0.0313387 -0.0166284 0)
(-0.0148695 -0.0155688 0)
(0.000667702 -0.0136664 0)
(0.0146115 -0.0110597 0)
(0.0263589 -0.00797224 0)
(0.035472 -0.00468919 0)
(0.0416718 -0.00151834 0)
(0.0449359 0.00125638 0)
(0.0454328 0.00342553 0)
(0.0435849 0.00488252 0)
(0.0399183 0.00563826 0)
(0.0350931 0.00579457 0)
(0.0296839 0.00551337 0)
(0.0242472 0.00496062 0)
(0.0191054 0.00428878 0)
(0.0145327 0.00359851 0)
(0.0105561 0.00296844 0)
(0.00725029 0.00240282 0)
(0.00450597 0.00190625 0)
(0.00239258 0.00136544 0)
(0.000864453 0.000782731 0)
(7.72823e-05 9.05365e-05 0)
(0.000286106 -0.00127852 0)
(0.00160083 -0.00283823 0)
(0.0034974 -0.00342904 0)
(0.00531007 -0.00330477 0)
(0.00688451 -0.00273503 0)
(0.0079012 -0.00192275 0)
(0.00835047 -0.00103616 0)
(0.00809554 -0.000131364 0)
(0.0071473 0.000753821 0)
(0.00539831 0.00166918 0)
(0.00278329 0.00266127 0)
(-0.000868747 0.00382453 0)
(-0.00572955 0.00522464 0)
(-0.0120315 0.00693161 0)
(-0.0199826 0.00896207 0)
(-0.029766 0.0113045 0)
(-0.0414618 0.0138842 0)
(-0.0550091 0.0165849 0)
(-0.0701495 0.0192244 0)
(-0.0864273 0.0215774 0)
(-0.103233 0.0233902 0)
(-0.119888 0.0244417 0)
(-0.135733 0.0245713 0)
(-0.15019 0.0237047 0)
(-0.162802 0.0218388 0)
(-0.173227 0.0190312 0)
(-0.181232 0.0153752 0)
(-0.18666 0.0109921 0)
(-0.189421 0.00601605 0)
(-0.18946 0.000597491 0)
(-0.18676 -0.00510326 0)
(-0.181331 -0.010907 0)
(-0.173218 -0.0166185 0)
(-0.162503 -0.0220176 0)
(-0.149332 -0.0268666 0)
(-0.133917 -0.0309095 0)
(-0.116565 -0.0338923 0)
(-0.0976796 -0.0355782 0)
(-0.0777802 -0.0357851 0)
(-0.0574735 -0.034412 0)
(-0.0374571 -0.0314799 0)
(-0.0184431 -0.0271458 0)
(-0.00114552 -0.0217121 0)
(0.0138297 -0.0155972 0)
(0.0259813 -0.00929287 0)
(0.0350231 -0.00329883 0)
(0.0408286 0.00194337 0)
(0.0435343 0.00610502 0)
(0.0434258 0.00901284 0)
(0.0410343 0.0106582 0)
(0.0369366 0.0111878 0)
(0.0318363 0.0108494 0)
(0.0262805 0.00994238 0)
(0.0208137 0.00873562 0)
(0.0156836 0.00745519 0)
(0.011163 0.00620076 0)
(0.0072318 0.00501486 0)
(0.00407227 0.00375118 0)
(0.00162602 0.00235888 0)
(0.000236874 0.000687912 0)
(0.00032659 -0.00216877 0)
(0.00171253 -0.0045107 0)
(0.00359425 -0.00527778 0)
(0.0052191 -0.00489185 0)
(0.00642479 -0.00382266 0)
(0.00686764 -0.0023418 0)
(0.00650854 -0.000700471 0)
(0.00516301 0.00104655 0)
(0.00276764 0.00285658 0)
(-0.000869628 0.00482723 0)
(-0.00592101 0.00704166 0)
(-0.0126553 0.00964763 0)
(-0.0213303 0.0127293 0)
(-0.0322045 0.0163508 0)
(-0.04543 0.0204628 0)
(-0.0609999 0.0249358 0)
(-0.0786648 0.0295056 0)
(-0.0979205 0.0338231 0)
(-0.118063 0.0374786 0)
(-0.138307 0.040112 0)
(-0.157911 0.0414598 0)
(-0.176264 0.041399 0)
(-0.192917 0.0399152 0)
(-0.207561 0.0370829 0)
(-0.220004 0.0330194 0)
(-0.230127 0.0278706 0)
(-0.23786 0.0217853 0)
(-0.243153 0.0149181 0)
(-0.245972 0.00741918 0)
(-0.246277 -0.00055207 0)
(-0.244033 -0.00882958 0)
(-0.239199 -0.0172226 0)
(-0.231745 -0.025516 0)
(-0.221652 -0.0334535 0)
(-0.208944 -0.0407435 0)
(-0.19369 -0.0470535 0)
(-0.176052 -0.0520333 0)
(-0.156287 -0.0553315 0)
(-0.134797 -0.0566461 0)
(-0.112107 -0.0557625 0)
(-0.0888946 -0.052618 0)
(-0.0659187 -0.0473307 0)
(-0.044 -0.0402288 0)
(-0.023897 -0.0318183 0)
(-0.00628101 -0.0227351 0)
(0.00838907 -0.0136533 0)
(0.0198138 -0.00520516 0)
(0.0279402 0.00208996 0)
(0.0328364 0.00786959 0)
(0.034807 0.0119534 0)
(0.0342314 0.0143534 0)
(0.0317095 0.0152566 0)
(0.027793 0.0149843 0)
(0.0231536 0.0139095 0)
(0.0182144 0.0123948 0)
(0.0134664 0.0106818 0)
(0.00904168 0.00889348 0)
(0.00529364 0.00691654 0)
(0.00221666 0.0046083 0)
(0.000365433 0.00168409 0)
(0.000334613 -0.00313157 0)
(0.00163398 -0.0061811 0)
(0.00323859 -0.00696478 0)
(0.00436164 -0.00611289 0)
(0.00482539 -0.0043246 0)
(0.00427786 -0.00192328 0)
(0.00263355 0.000767411 0)
(-0.000343314 0.00372091 0)
(-0.00481233 0.00690721 0)
(-0.0110568 0.0104888 0)
(-0.0193568 0.0145847 0)
(-0.0300389 0.0193723 0)
(-0.0433582 0.0248943 0)
(-0.0594331 0.0311058 0)
(-0.07813 0.0377467 0)
(-0.099006 0.0444109 0)
(-0.121343 0.050545 0)
(-0.14427 0.0556144 0)
(-0.166942 0.0591804 0)
(-0.188651 0.0609953 0)
(-0.208887 0.0609684 0)
(-0.227308 0.0591488 0)
(-0.243714 0.0556562 0)
(-0.257987 0.0506607 0)
(-0.270076 0.0443384 0)
(-0.279954 0.0368719 0)
(-0.287618 0.0284266 0)
(-0.293062 0.0191645 0)
(-0.296286 0.00923374 0)
(-0.297265 -0.00121147 0)
(-0.295966 -0.0120133 0)
(-0.292326 -0.0229861 0)
(-0.286267 -0.0339148 0)
(-0.277689 -0.0445306 0)
(-0.266494 -0.0545124 0)
(-0.252594 -0.0634719 0)
(-0.235957 -0.0709735 0)
(-0.21663 -0.0765452 0)
(-0.194807 -0.0797352 0)
(-0.170844 -0.0801609 0)
(-0.145321 -0.0775994 0)
(-0.119006 -0.0720475 0)
(-0.0928514 -0.063789 0)
(-0.0678498 -0.0533834 0)
(-0.0449598 -0.0416207 0)
(-0.0249134 -0.0293918 0)
(-0.00820386 -0.0175636 0)
(0.00500461 -0.00685833 0)
(0.0147152 0.00219144 0)
(0.0211513 0.00926367 0)
(0.0245707 0.0142334 0)
(0.0254355 0.01718 0)
(0.0241873 0.0183555 0)
(0.0214701 0.0181473 0)
(0.0177538 0.0169814 0)
(0.0136607 0.0152246 0)
(0.0094599 0.0130802 0)
(0.00567759 0.0105086 0)
(0.00241677 0.00726244 0)
(0.000405924 0.00291506 0)
(0.000321877 -0.00399683 0)
(0.00138501 -0.00751003 0)
(0.00244358 -0.00804697 0)
(0.00274358 -0.00646386 0)
(0.00208684 -0.00369276 0)
(0.000129714 -8.09545e-05 0)
(-0.00328454 0.00400118 0)
(-0.00844709 0.0085847 0)
(-0.0156301 0.013668 0)
(-0.0251901 0.019475 0)
(-0.0374671 0.0261206 0)
(-0.0527244 0.033725 0)
(-0.071025 0.0421494 0)
(-0.0921084 0.0510709 0)
(-0.11537 0.059885 0)
(-0.139923 0.0679063 0)
(-0.164806 0.0744644 0)
(-0.189147 0.0790992 0)
(-0.212286 0.0815547 0)
(-0.23376 0.0817915 0)
(-0.253294 0.0798912 0)
(-0.270725 0.0760324 0)
(-0.285994 0.0704201 0)
(-0.29909 0.0632831 0)
(-0.310059 0.0548317 0)
(-0.318961 0.0452696 0)
(-0.325886 0.0347684 0)
(-0.330907 0.0234869 0)
(-0.334097 0.0115571 0)
(-0.335493 -0.000890987 0)
(-0.335106 -0.0137338 0)
(-0.332886 -0.0268237 0)
(-0.328745 -0.0399871 0)
(-0.322523 -0.0529902 0)
(-0.314021 -0.0655348 0)
(-0.302984 -0.0772292 0)
(-0.289161 -0.0875975 0)
(-0.272315 -0.096075 0)
(-0.252318 -0.102057 0)
(-0.229196 -0.104949 0)
(-0.203243 -0.104269 0)
(-0.175049 -0.0997524 0)
(-0.145555 -0.0914716 0)
(-0.11596 -0.0798941 0)
(-0.0876185 -0.0658886 0)
(-0.0617712 -0.050591 0)
(-0.03938 -0.0352164 0)
(-0.0209155 -0.0208222 0)
(-0.00646688 -0.00818801 0)
(0.00422423 0.00222548 0)
(0.0114706 0.0102003 0)
(0.0157279 0.0157409 0)
(0.0173809 0.0190125 0)
(0.0170072 0.0203593 0)
(0.0150506 0.0201915 0)
(0.0121693 0.0189396 0)
(0.00872232 0.0168496 0)
(0.0053576 0.0139526 0)
(0.00230414 0.00990263 0)
(0.000384379 0.00415511 0)
(0.000281286 -0.00475756 0)
(0.000942555 -0.00839872 0)
(0.00118659 -0.00836401 0)
(0.000360787 -0.00574375 0)
(-0.00176603 -0.00167928 0)
(-0.00551953 0.00349545 0)
(-0.0111542 0.0093919 0)
(-0.0190081 0.0161172 0)
(-0.0294532 0.0236926 0)
(-0.0428462 0.0323577 0)
(-0.0594632 0.0421216 0)
(-0.0793078 0.0528892 0)
(-0.102052 0.0641708 0)
(-0.126948 0.0752722 0)
(-0.153018 0.085317 0)
(-0.179205 0.0935649 0)
(-0.204631 0.0994733 0)
(-0.228613 0.102802 0)
(-0.250714 0.103508 0)
(-0.270645 0.101721 0)
(-0.288278 0.0976466 0)
(-0.30357 0.0915583 0)
(-0.316583 0.0837295 0)
(-0.327423 0.0744431 0)
(-0.336261 0.0639452 0)
(-0.34327 0.0524613 0)
(-0.348647 0.0401666 0)
(-0.352558 0.0272101 0)
(-0.35516 0.013698 0)
(-0.356556 -0.000276102 0)
(-0.356812 -0.0146386 0)
(-0.355922 -0.0293007 0)
(-0.35382 -0.0441576 0)
(-0.350345 -0.0590484 0)
(-0.345257 -0.0737485 0)
(-0.338205 -0.0879264 0)
(-0.328769 -0.101139 0)
(-0.316453 -0.112803 0)
(-0.300775 -0.122222 0)
(-0.281321 -0.128612 0)
(-0.257895 -0.131199 0)
(-0.230625 -0.129334 0)
(-0.200111 -0.122677 0)
(-0.167453 -0.111338 0)
(-0.134236 -0.0960088 0)
(-0.102279 -0.0779274 0)
(-0.073333 -0.0587053 0)
(-0.0486405 -0.0399633 0)
(-0.0287716 -0.0230085 0)
(-0.0135803 -0.00862229 0)
(-0.00260252 0.0028543 0)
(0.00480797 0.0114179 0)
(0.0091625 0.0172195 0)
(0.0110669 0.0205894 0)
(0.0109638 0.0219006 0)
(0.00950584 0.021599 0)
(0.00710322 0.0199297 0)
(0.00446179 0.0169659 0)
(0.00192015 0.0122856 0)
(0.000306418 0.00527152 0)
(0.000198811 -0.00522733 0)
(0.000254957 -0.00850084 0)
(-0.000612644 -0.00749867 0)
(-0.00287674 -0.00349975 0)
(-0.006821 0.00220284 0)
(-0.0127416 0.00933158 0)
(-0.0210092 0.0175038 0)
(-0.0319747 0.0268945 0)
(-0.0460541 0.037499 0)
(-0.0634716 0.049461 0)
(-0.084267 0.0625237 0)
(-0.10801 0.0762168 0)
(-0.133928 0.0896431 0)
(-0.160911 0.101849 0)
(-0.187876 0.111921 0)
(-0.213843 0.119281 0)
(-0.238122 0.123617 0)
(-0.260202 0.124913 0)
(-0.27981 0.1233 0)
(-0.296794 0.11906 0)
(-0.31118 0.112519 0)
(-0.323076 0.104052 0)
(-0.332706 0.0940092 0)
(-0.34032 0.0827266 0)
(-0.346217 0.0704743 0)
(-0.35067 0.0574814 0)
(-0.353954 0.043906 0)
(-0.35629 0.0298689 0)
(-0.357883 0.0154355 0)
(-0.358872 0.000652306 0)
(-0.359369 -0.0144647 0)
(-0.359412 -0.0298932 0)
(-0.358992 -0.0456097 0)
(-0.358003 -0.0615478 0)
(-0.356254 -0.0775931 0)
(-0.353416 -0.0935329 0)
(-0.349037 -0.10904 0)
(-0.342501 -0.123618 0)
(-0.333086 -0.136602 0)
(-0.319985 -0.147131 0)
(-0.302456 -0.154218 0)
(-0.279951 -0.156829 0)
(-0.25236 -0.154076 0)
(-0.220182 -0.145435 0)
(-0.184697 -0.13101 0)
(-0.147899 -0.111699 0)
(-0.112262 -0.0892111 0)
(-0.0801662 -0.0657523 0)
(-0.0533354 -0.0435077 0)
(-0.0323696 -0.0240491 0)
(-0.0169404 -0.00815451 0)
(-0.00615525 0.00409568 0)
(0.000837852 0.0129171 0)
(0.00486957 0.0187245 0)
(0.00651162 0.0219087 0)
(0.00645337 0.0229294 0)
(0.00515946 0.0220125 0)
(0.00335051 0.0192434 0)
(0.00144711 0.0141587 0)
(0.000216748 0.00612617 0)
(6.27495e-05 -0.0053329 0)
(-0.0007049 -0.00765228 0)
(-0.00296836 -0.00526034 0)
(-0.00694352 0.000464885 0)
(-0.0129942 0.00816925 0)
(-0.021371 0.0176676 0)
(-0.0325578 0.0285865 0)
(-0.0468471 0.0411157 0)
(-0.0645959 0.0551204 0)
(-0.085734 0.0704888 0)
(-0.109933 0.0865526 0)
(-0.136294 0.102421 0)
(-0.163736 0.116912 0)
(-0.191016 0.129033 0)
(-0.217144 0.138031 0)
(-0.241287 0.143569 0)
(-0.262932 0.145565 0)
(-0.281725 0.14421 0)
(-0.297576 0.139817 0)
(-0.310524 0.132829 0)
(-0.320802 0.123699 0)
(-0.3287 0.112901 0)
(-0.334602 0.100838 0)
(-0.338865 0.0878635 0)
(-0.341862 0.0742385 0)
(-0.343891 0.0601652 0)
(-0.345239 0.0457629 0)
(-0.346111 0.0311123 0)
(-0.3467 0.0162369 0)
(-0.347135 0.00114376 0)
(-0.347537 -0.0141936 0)
(-0.347968 -0.0297993 0)
(-0.348479 -0.045709 0)
(-0.349046 -0.0619336 0)
(-0.349595 -0.0784628 0)
(-0.349926 -0.0952177 0)
(-0.349718 -0.112034 0)
(-0.348446 -0.128597 0)
(-0.345391 -0.144408 0)
(-0.339602 -0.158719 0)
(-0.32998 -0.17053 0)
(-0.315373 -0.178604 0)
(-0.294823 -0.181596 0)
(-0.267836 -0.178264 0)
(-0.234733 -0.167802 0)
(-0.19688 -0.15021 0)
(-0.156754 -0.126611 0)
(-0.117566 -0.0992714 0)
(-0.0825494 -0.0712113 0)
(-0.0539367 -0.0453054 0)
(-0.0324183 -0.0234766 0)
(-0.0172596 -0.00633804 0)
(-0.00721295 0.00630585 0)
(-0.000998934 0.0150656 0)
(0.0022957 0.0204827 0)
(0.00352727 0.0231084 0)
(0.00327204 0.0231877 0)
(0.00226745 0.0208172 0)
(0.000993296 0.0155388 0)
(0.00013511 0.00674726 0)
(-0.000142669 -0.00484377 0)
(-0.00197019 -0.0054982 0)
(-0.00589924 -0.00127828 0)
(-0.0118196 0.0065154 0)
(-0.0202039 0.0165839 0)
(-0.0312262 0.0288462 0)
(-0.045451 0.0429047 0)
(-0.0630066 0.0588577 0)
(-0.0840728 0.0762991 0)
(-0.108162 0.0947182 0)
(-0.134562 0.112994 0)
(-0.162012 0.129922 0)
(-0.189327 0.144241 0)
(-0.215296 0.155107 0)
(-0.239094 0.16201 0)
(-0.260043 0.164869 0)
(-0.27784 0.163848 0)
(-0.292343 0.159366 0)
(-0.303723 0.151941 0)
(-0.312251 0.14218 0)
(-0.318377 0.130646 0)
(-0.322535 0.117861 0)
(-0.325206 0.10423 0)
(-0.32677 0.0900758 0)
(-0.327591 0.0756057 0)
(-0.327916 0.0609646 0)
(-0.327974 0.0462153 0)
(-0.327901 0.0313923 0)
(-0.327833 0.0164812 0)
(-0.32785 0.00146194 0)
(-0.328049 -0.0137142 0)
(-0.328489 -0.0290915 0)
(-0.329252 -0.044732 0)
(-0.330378 -0.0606867 0)
(-0.331906 -0.0770107 0)
(-0.333795 -0.0937271 0)
(-0.335931 -0.110821 0)
(-0.33803 -0.128182 0)
(-0.339611 -0.14556 0)
(-0.339895 -0.162474 0)
(-0.337806 -0.178149 0)
(-0.331955 -0.191444 0)
(-0.320801 -0.200865 0)
(-0.302878 -0.204675 0)
(-0.277222 -0.201171 0)
(-0.243822 -0.189119 0)
(-0.204082 -0.168328 0)
(-0.16094 -0.14013 0)
(-0.118516 -0.107535 0)
(-0.0809914 -0.074586 0)
(-0.0512208 -0.0450831 0)
(-0.0297721 -0.0211799 0)
(-0.0154691 -0.00328093 0)
(-0.00650811 0.00934931 0)
(-0.00139871 0.0175538 0)
(0.00109071 0.0221325 0)
(0.00176916 0.0234596 0)
(0.00145145 0.0216926 0)
(0.00068057 0.0164363 0)
(8.92452e-05 0.00714794 0)
(-0.000417543 -0.00364376 0)
(-0.00350823 -0.00188439 0)
(-0.00930089 0.00456849 0)
(-0.0173065 0.0147318 0)
(-0.0281294 0.0274859 0)
(-0.041819 0.0428262 0)
(-0.0589617 0.0602576 0)
(-0.0794067 0.0796474 0)
(-0.103068 0.100192 0)
(-0.129009 0.120919 0)
(-0.156228 0.14034 0)
(-0.183268 0.157116 0)
(-0.209001 0.170095 0)
(-0.232329 0.178676 0)
(-0.252637 0.182632 0)
(-0.269458 0.182174 0)
(-0.282781 0.177745 0)
(-0.292742 0.170019 0)
(-0.299801 0.159705 0)
(-0.304432 0.147527 0)
(-0.307236 0.134085 0)
(-0.308691 0.119878 0)
(-0.309275 0.105248 0)
(-0.309299 0.0904379 0)
(-0.309044 0.0755705 0)
(-0.308651 0.0607197 0)
(-0.308255 0.0458919 0)
(-0.3079 0.0310841 0)
(-0.307655 0.0162596 0)
(-0.307539 0.00139 0)
(-0.307614 -0.0135728 0)
(-0.307917 -0.028667 0)
(-0.308533 -0.0439492 0)
(-0.309529 -0.0594709 0)
(-0.31101 -0.0753032 0)
(-0.313043 -0.0915127 0)
(-0.315689 -0.108171 0)
(-0.318906 -0.125316 0)
(-0.322535 -0.142924 0)
(-0.326164 -0.160825 0)
(-0.329074 -0.178615 0)
(-0.330114 -0.195524 0)
(-0.327711 -0.210313 0)
(-0.319938 -0.221221 0)
(-0.304818 -0.226067 0)
(-0.280806 -0.222566 0)
(-0.247476 -0.208929 0)
(-0.206167 -0.184659 0)
(-0.160342 -0.151374 0)
(-0.115124 -0.113025 0)
(-0.0758204 -0.0750666 0)
(-0.0457705 -0.0422615 0)
(-0.0252333 -0.0169478 0)
(-0.0123067 0.00110698 0)
(-0.00479843 0.0130449 0)
(-0.000865287 0.0201182 0)
(0.000717246 0.0230165 0)
(0.000968636 0.0220796 0)
(0.000537443 0.0170494 0)
(8.16762e-05 0.00746189 0)
(-0.000763786 -0.00151127 0)
(-0.00528654 0.00345603 0)
(-0.0130689 0.0125047 0)
(-0.0232101 0.0252892 0)
(-0.0364506 0.0409818 0)
(-0.0526523 0.0595808 0)
(-0.0723529 0.0803902 0)
(-0.0950353 0.102907 0)
(-0.120326 0.125868 0)
(-0.146897 0.147879 0)
(-0.173604 0.167247 0)
(-0.198942 0.182679 0)
(-0.221942 0.193256 0)
(-0.24168 0.198685 0)
(-0.257824 0.199076 0)
(-0.270198 0.194976 0)
(-0.279137 0.187131 0)
(-0.285055 0.17644 0)
(-0.288641 0.163737 0)
(-0.290473 0.14977 0)
(-0.291186 0.135091 0)
(-0.291195 0.120106 0)
(-0.290888 0.105043 0)
(-0.290448 0.0900393 0)
(-0.290039 0.0751288 0)
(-0.289688 0.0603202 0)
(-0.28944 0.0455774 0)
(-0.289265 0.0308754 0)
(-0.289178 0.0161712 0)
(-0.289154 0.00144231 0)
(-0.289229 -0.0133464 0)
(-0.289417 -0.0282147 0)
(-0.289793 -0.0431989 0)
(-0.290421 -0.0583319 0)
(-0.291424 -0.0736704 0)
(-0.29291 -0.0892805 0)
(-0.295026 -0.105257 0)
(-0.297878 -0.121703 0)
(-0.301543 -0.138725 0)
(-0.305949 -0.156384 0)
(-0.310825 -0.174617 0)
(-0.315524 -0.193113 0)
(-0.318925 -0.211149 0)
(-0.319314 -0.227404 0)
(-0.314458 -0.239849 0)
(-0.301866 -0.245797 0)
(-0.279393 -0.242275 0)
(-0.246118 -0.226788 0)
(-0.203314 -0.198503 0)
(-0.155033 -0.159421 0)
(-0.107605 -0.114879 0)
(-0.0675072 -0.0720446 0)
(-0.0383417 -0.0367702 0)
(-0.0195595 -0.0109549 0)
(-0.00852682 0.00629887 0)
(-0.00261748 0.0168158 0)
(2.00373e-05 0.0218285 0)
(0.000797727 0.0220579 0)
(0.000563643 0.0174865 0)
(0.00011383 0.00775747 0)
(-0.00115756 0.0016271 0)
(-0.00718894 0.010546 0)
(-0.016966 0.0224672 0)
(-0.0291621 0.0380325 0)
(-0.0446412 0.0567892 0)
(-0.0630126 0.0786314 0)
(-0.0847052 0.10256 0)
(-0.108797 0.127609 0)
(-0.134669 0.152071 0)
(-0.160713 0.174248 0)
(-0.185788 0.192419 0)
(-0.208448 0.205477 0)
(-0.227969 0.212829 0)
(-0.243668 0.214553 0)
(-0.255575 0.21115 0)
(-0.263838 0.203519 0)
(-0.26912 0.192669 0)
(-0.272026 0.179636 0)
(-0.273358 0.16527 0)
(-0.273671 0.150245 0)
(-0.273527 0.134986 0)
(-0.2732 0.119759 0)
(-0.272945 0.104663 0)
(-0.2728 0.0897312 0)
(-0.272826 0.0749266 0)
(-0.272954 0.060215 0)
(-0.273174 0.0455406 0)
(-0.273403 0.0308757 0)
(-0.273635 0.0161867 0)
(-0.273818 0.0014671 0)
(-0.273976 -0.013297 0)
(-0.274104 -0.0281021 0)
(-0.274269 -0.0429584 0)
(-0.274517 -0.0578724 0)
(-0.274962 -0.0728738 0)
(-0.27571 -0.0880053 0)
(-0.276927 -0.103345 0)
(-0.278771 -0.119002 0)
(-0.281432 -0.135125 0)
(-0.285046 -0.151884 0)
(-0.28967 -0.169434 0)
(-0.295133 -0.187827 0)
(-0.300913 -0.206863 0)
(-0.305921 -0.225873 0)
(-0.308371 -0.243462 0)
(-0.305752 -0.257303 0)
(-0.295101 -0.264139 0)
(-0.273679 -0.260183 0)
(-0.240084 -0.242152 0)
(-0.195592 -0.208858 0)
(-0.145041 -0.163056 0)
(-0.0962025 -0.111964 0)
(-0.0566926 -0.0650187 0)
(-0.0297541 -0.0285537 0)
(-0.0135677 -0.00365501 0)
(-0.00474903 0.0118125 0)
(-0.000641244 0.0198226 0)
(0.000775043 0.0217311 0)
(0.000688783 0.0179072 0)
(0.000170387 0.00814991 0)
(-0.00158056 0.00589053 0)
(-0.00912259 0.0194653 0)
(-0.0208024 0.0344611 0)
(-0.0348678 0.0528835 0)
(-0.0522733 0.0747045 0)
(-0.0723244 0.0995887 0)
(-0.0953101 0.126154 0)
(-0.119921 0.152935 0)
(-0.145385 0.177873 0)
(-0.169933 0.199112 0)
(-0.192549 0.215069 0)
(-0.211932 0.224934 0)
(-0.227675 0.228523 0)
(-0.239397 0.226339 0)
(-0.247516 0.219297 0)
(-0.252467 0.208597 0)
(-0.255142 0.195417 0)
(-0.25621 0.180805 0)
(-0.256461 0.165521 0)
(-0.256323 0.150085 0)
(-0.256219 0.134754 0)
(-0.256256 0.119643 0)
(-0.256559 0.104738 0)
(-0.257051 0.089995 0)
(-0.257721 0.0753339 0)
(-0.258443 0.0607025 0)
(-0.259185 0.046046 0)
(-0.259843 0.0313468 0)
(-0.260408 0.0165884 0)
(-0.26082 0.00178278 0)
(-0.261101 -0.013063 0)
(-0.261239 -0.0279254 0)
(-0.261288 -0.042792 0)
(-0.261279 -0.0576469 0)
(-0.261306 -0.0724927 0)
(-0.261449 -0.0873446 0)
(-0.261854 -0.102248 0)
(-0.262667 -0.117286 0)
(-0.264098 -0.132588 0)
(-0.266359 -0.148346 0)
(-0.269677 -0.164796 0)
(-0.274189 -0.182195 0)
(-0.279853 -0.200711 0)
(-0.286235 -0.220258 0)
(-0.292295 -0.240208 0)
(-0.296161 -0.259052 0)
(-0.295056 -0.274094 0)
(-0.285565 -0.281383 0)
(-0.264389 -0.276211 0)
(-0.229763 -0.254407 0)
(-0.183159 -0.214674 0)
(-0.130576 -0.161019 0)
(-0.0814946 -0.103571 0)
(-0.0443495 -0.0539605 0)
(-0.0209974 -0.0183673 0)
(-0.00797632 0.00423025 0)
(-0.00168438 0.0165869 0)
(0.000680498 0.0209643 0)
(0.000825767 0.0182993 0)
(0.000236306 0.00865207 0)
(-0.00198742 0.0112188 0)
(-0.0109213 0.0300303 0)
(-0.0242873 0.0481928 0)
(-0.0399199 0.0694208 0)
(-0.0588226 0.0941334 0)
(-0.07997 0.121656 0)
(-0.103511 0.150194 0)
(-0.127811 0.177807 0)
(-0.152042 0.202218 0)
(-0.174395 0.22156 0)
(-0.19407 0.234529 0)
(-0.209977 0.240694 0)
(-0.222078 0.240351 0)
(-0.230312 0.234447 0)
(-0.235445 0.224267 0)
(-0.238094 0.21121 0)
(-0.239256 0.196488 0)
(-0.239539 0.181046 0)
(-0.239622 0.165473 0)
(-0.239756 0.150092 0)
(-0.240212 0.134993 0)
(-0.240946 0.12016 0)
(-0.241989 0.105499 0)
(-0.243184 0.0909209 0)
(-0.24449 0.0763332 0)
(-0.245758 0.0616866 0)
(-0.246956 0.0469417 0)
(-0.247978 0.0320989 0)
(-0.248824 0.0171625 0)
(-0.249435 0.00216293 0)
(-0.249838 -0.0128731 0)
(-0.250016 -0.0279055 0)
(-0.250021 -0.0429036 0)
(-0.249868 -0.057835 0)
(-0.249636 -0.0726808 0)
(-0.249376 -0.0874342 0)
(-0.249203 -0.102109 0)
(-0.249224 -0.116754 0)
(-0.249617 -0.131456 0)
(-0.250577 -0.146371 0)
(-0.252371 -0.161725 0)
(-0.255269 -0.177835 0)
(-0.259515 -0.195055 0)
(-0.265163 -0.213692 0)
(-0.271872 -0.233763 0)
(-0.278615 -0.25466 0)
(-0.283383 -0.274677 0)
(-0.283103 -0.290604 0)
(-0.273866 -0.297626 0)
(-0.25192 -0.289925 0)
(-0.215289 -0.262532 0)
(-0.166103 -0.214388 0)
(-0.112003 -0.151986 0)
(-0.0644773 -0.0891806 0)
(-0.0317685 -0.0396398 0)
(-0.0130069 -0.00701407 0)
(-0.00355719 0.0115498 0)
(0.000267374 0.0195296 0)
(0.000870509 0.0186112 0)
(0.000291949 0.00927706 0)
(-0.0023511 0.0175638 0)
(-0.0124851 0.0421108 0)
(-0.0272452 0.0634657 0)
(-0.0440746 0.0873686 0)
(-0.0639794 0.114692 0)
(-0.0856109 0.144336 0)
(-0.109005 0.174104 0)
(-0.132289 0.201656 0)
(-0.154681 0.224641 0)
(-0.174423 0.24132 0)
(-0.190997 0.25078 0)
(-0.203571 0.253041 0)
(-0.212488 0.248912 0)
(-0.217967 0.239747 0)
(-0.221023 0.227108 0)
(-0.222336 0.212451 0)
(-0.222887 0.196907 0)
(-0.223132 0.181226 0)
(-0.223601 0.165788 0)
(-0.224359 0.15072 0)
(-0.225549 0.135974 0)
(-0.227018 0.12144 0)
(-0.228745 0.106981 0)
(-0.230536 0.0924951 0)
(-0.232349 0.0778981 0)
(-0.234032 0.0631556 0)
(-0.235568 0.04825 0)
(-0.236858 0.0332 0)
(-0.237914 0.0180299 0)
(-0.238681 0.0027852 0)
(-0.239194 -0.0124914 0)
(-0.239431 -0.0277482 0)
(-0.239446 -0.0429409 0)
(-0.239244 -0.0580267 0)
(-0.238894 -0.0729726 0)
(-0.238427 -0.0877583 0)
(-0.237931 -0.102376 0)
(-0.237475 -0.116846 0)
(-0.237189 -0.131214 0)
(-0.237214 -0.145589 0)
(-0.237775 -0.160133 0)
(-0.239139 -0.175128 0)
(-0.241641 -0.190948 0)
(-0.245601 -0.208075 0)
(-0.25117 -0.226937 0)
(-0.258084 -0.247671 0)
(-0.265264 -0.269618 0)
(-0.270523 -0.290748 0)
(-0.270347 -0.307118 0)
(-0.260367 -0.312753 0)
(-0.23639 -0.300616 0)
(-0.196678 -0.265038 0)
(-0.144561 -0.206325 0)
(-0.0901482 -0.134863 0)
(-0.0467174 -0.0696021 0)
(-0.0203379 -0.0233283 0)
(-0.0066138 0.00385666 0)
(-0.000647284 0.0169694 0)
(0.000751846 0.0186249 0)
(0.000326311 0.00994475 0)
(-0.0026241 0.0247027 0)
(-0.0136652 0.055332 0)
(-0.0294447 0.0798048 0)
(-0.0470424 0.106131 0)
(-0.0674268 0.135647 0)
(-0.0889595 0.166794 0)
(-0.111607 0.197027 0)
(-0.133351 0.223705 0)
(-0.153536 0.244545 0)
(-0.170529 0.258051 0)
(-0.184129 0.263784 0)
(-0.193775 0.262251 0)
(-0.200154 0.254758 0)
(-0.203684 0.24298 0)
(-0.205516 0.228623 0)
(-0.206278 0.213074 0)
(-0.206851 0.197288 0)
(-0.207505 0.181776 0)
(-0.208613 0.166711 0)
(-0.210089 0.152053 0)
(-0.211989 0.137656 0)
(-0.214095 0.123356 0)
(-0.21637 0.109009 0)
(-0.218611 0.0945168 0)
(-0.220794 0.0798177 0)
(-0.222772 0.0648963 0)
(-0.224548 0.0497584 0)
(-0.22603 0.0344388 0)
(-0.227241 0.0189801 0)
(-0.228128 0.00343997 0)
(-0.228731 -0.0121243 0)
(-0.229027 -0.0276518 0)
(-0.229071 -0.0430863 0)
(-0.228862 -0.0583785 0)
(-0.228465 -0.073484 0)
(-0.2279 -0.0883765 0)
(-0.22724 -0.103033 0)
(-0.226528 -0.117462 0)
(-0.225856 -0.131676 0)
(-0.225315 -0.145748 0)
(-0.22506 -0.159774 0)
(-0.225297 -0.173969 0)
(-0.226323 -0.188631 0)
(-0.228517 -0.204246 0)
(-0.232263 -0.221391 0)
(-0.237812 -0.240661 0)
(-0.244901 -0.262253 0)
(-0.252386 -0.285391 0)
(-0.257705 -0.307505 0)
(-0.256895 -0.323562 0)
(-0.244951 -0.326138 0)
(-0.217587 -0.306743 0)
(-0.173698 -0.259804 0)
(-0.118944 -0.18839 0)
(-0.0664721 -0.109764 0)
(-0.0303045 -0.0464224 0)
(-0.0110919 -0.00738506 0)
(-0.00217768 0.012758 0)
(0.000434469 0.0181099 0)
(0.000332867 0.0105884 0)
(-0.0027909 0.0324367 0)
(-0.014412 0.0694204 0)
(-0.0308104 0.0969136 0)
(-0.0487433 0.125382 0)
(-0.0691059 0.156648 0)
(-0.0900304 0.188692 0)
(-0.111459 0.2187 0)
(-0.131322 0.243838 0)
(-0.149143 0.262019 0)
(-0.163464 0.272078 0)
(-0.174406 0.274106 0)
(-0.181659 0.269098 0)
(-0.186183 0.258797 0)
(-0.188494 0.245076 0)
(-0.18977 0.229662 0)
(-0.190514 0.213766 0)
(-0.191463 0.198119 0)
(-0.192702 0.182988 0)
(-0.194479 0.16837 0)
(-0.196597 0.154098 0)
(-0.19907 0.139974 0)
(-0.20165 0.125815 0)
(-0.204312 0.111487 0)
(-0.206859 0.0969095 0)
(-0.209288 0.0820469 0)
(-0.211465 0.0669009 0)
(-0.213407 0.0514975 0)
(-0.215028 0.035884 0)
(-0.216358 0.0201181 0)
(-0.217345 0.00426644 0)
(-0.218032 -0.011601 0)
(-0.218393 -0.0274167 0)
(-0.218484 -0.0431133 0)
(-0.218302 -0.0586375 0)
(-0.217911 -0.0739355 0)
(-0.217323 -0.0889797 0)
(-0.216606 -0.103737 0)
(-0.215789 -0.118213 0)
(-0.21494 -0.132402 0)
(-0.214114 -0.146355 0)
(-0.21341 -0.160118 0)
(-0.21296 -0.173841 0)
(-0.212977 -0.187723 0)
(-0.21378 -0.202163 0)
(-0.215783 -0.217699 0)
(-0.219465 -0.235093 0)
(-0.225092 -0.255052 0)
(-0.232429 -0.277824 0)
(-0.240039 -0.30232 0)
(-0.24498 -0.325089 0)
(-0.242516 -0.339603 0)
(-0.227256 -0.336464 0)
(-0.194933 -0.306073 0)
(-0.146284 -0.24394 0)
(-0.0901854 -0.159489 0)
(-0.0435542 -0.0783238 0)
(-0.0170253 -0.0232875 0)
(-0.00443963 0.00624831 0)
(-7.26465e-05 0.0167434 0)
(0.000308839 0.0111033 0)
(-0.00282148 0.0404305 0)
(-0.0146422 0.0838927 0)
(-0.0312337 0.114242 0)
(-0.0490745 0.144496 0)
(-0.06896 0.17701 0)
(-0.0888625 0.209354 0)
(-0.108743 0.238534 0)
(-0.126558 0.261631 0)
(-0.142041 0.276858 0)
(-0.153933 0.283433 0)
(-0.16265 0.282003 0)
(-0.168087 0.274002 0)
(-0.171382 0.261518 0)
(-0.173063 0.246495 0)
(-0.174251 0.230574 0)
(-0.175284 0.214724 0)
(-0.176753 0.199444 0)
(-0.178588 0.184779 0)
(-0.180947 0.170594 0)
(-0.183571 0.156639 0)
(-0.186461 0.1427 0)
(-0.189366 0.128592 0)
(-0.192284 0.114209 0)
(-0.195031 0.0994885 0)
(-0.197624 0.0844183 0)
(-0.199938 0.0690141 0)
(-0.202003 0.0533191 0)
(-0.203731 0.0373892 0)
(-0.20516 0.0212959 0)
(-0.206234 0.00511301 0)
(-0.207 -0.0110768 0)
(-0.207427 -0.0272 0)
(-0.207573 -0.0431774 0)
(-0.207431 -0.0589525 0)
(-0.207066 -0.0744615 0)
(-0.206487 -0.0896774 0)
(-0.205762 -0.104559 0)
(-0.204912 -0.119116 0)
(-0.203999 -0.133331 0)
(-0.203055 -0.147253 0)
(-0.202147 -0.160896 0)
(-0.201348 -0.174372 0)
(-0.200786 -0.187788 0)
(-0.200685 -0.201438 0)
(-0.20137 -0.215729 0)
(-0.203347 -0.231387 0)
(-0.207107 -0.249295 0)
(-0.213017 -0.270344 0)
(-0.220617 -0.294678 0)
(-0.228209 -0.320609 0)
(-0.232022 -0.343334 0)
(-0.226732 -0.354097 0)
(-0.206389 -0.341427 0)
(-0.167847 -0.294986 0)
(-0.114626 -0.214699 0)
(-0.0606317 -0.120068 0)
(-0.0244842 -0.0454558 0)
(-0.00754597 -0.00310418 0)
(-0.000783161 0.0141574 0)
(0.000264642 0.0114294 0)
(-0.00272348 0.0484187 0)
(-0.0143782 0.0984407 0)
(-0.0307602 0.131515 0)
(-0.0481278 0.163236 0)
(-0.067154 0.196561 0)
(-0.0857283 0.228718 0)
(-0.103861 0.256625 0)
(-0.119597 0.277372 0)
(-0.132886 0.289539 0)
(-0.142671 0.292769 0)
(-0.149615 0.288244 0)
(-0.153758 0.277771 0)
(-0.156324 0.263676 0)
(-0.157783 0.247864 0)
(-0.159147 0.231813 0)
(-0.160591 0.21623 0)
(-0.162573 0.201397 0)
(-0.16491 0.187176 0)
(-0.167709 0.173346 0)
(-0.17068 0.159611 0)
(-0.173837 0.145766 0)
(-0.176938 0.131637 0)
(-0.180005 0.117147 0)
(-0.18287 0.102248 0)
(-0.185565 0.0869507 0)
(-0.187971 0.0712781 0)
(-0.190126 0.055287 0)
(-0.191941 0.0390389 0)
(-0.193457 0.0226173 0)
(-0.194615 0.00610151 0)
(-0.195463 -0.0104134 0)
(-0.195968 -0.0268493 0)
(-0.196186 -0.0431149 0)
(-0.196108 -0.0591514 0)
(-0.195799 -0.0748842 0)
(-0.195265 -0.0902883 0)
(-0.194574 -0.105314 0)
(-0.193745 -0.119977 0)
(-0.192836 -0.134252 0)
(-0.191875 -0.148196 0)
(-0.190909 -0.161806 0)
(-0.18998 -0.175181 0)
(-0.189155 -0.188365 0)