/*--------------------------------*- C++ -*----------------------------------*\
| =========                 |                                                 |
| \\      /  F ield         | OpenFOAM: The Open Source CFD Toolbox           |
|  \\    /   O peration     | Version:  2406                                  |
|   \\  /    A nd           | Website:  www.openfoam.com                      |
|    \\/     M anipulation  |                                                 |
\*---------------------------------------------------------------------------*/
FoamFile
{
    version     2.0;
    format      ascii;
    arch        "LSB;label=32;scalar=64";
    class       surfaceScalarField;
    location    "44.35";
    object      phi;
}
// * * * * * * * * * * * * * * * * * * * * * * * * * * * * * * * * * * * * * //

dimensions      [0 3 -1 0 0 0 0];

oriented        oriented;

internalField   nonuniform List<scalar> 
28560
(
-3.8089e-09
3.81013e-09
4.78571e-08
-5.1666e-08
1.71581e-07
-1.23724e-07
3.55329e-07
-1.83748e-07
5.81192e-07
-2.25863e-07
8.3013e-07
-2.48938e-07
1.08446e-06
-2.54327e-07
1.32915e-06
-2.44694e-07
1.55262e-06
-2.23471e-07
1.74705e-06
-1.94423e-07
1.90834e-06
-1.61292e-07
2.03581e-06
-1.27472e-07
2.13157e-06
-9.57593e-08
2.19976e-06
-6.81891e-08
2.24572e-06
-4.59628e-08
2.27519e-06
-2.94744e-08
2.29365e-06
-1.84584e-08
2.30537e-06
-1.17196e-08
2.31335e-06
-7.9762e-09
2.31896e-06
-5.6161e-09
2.32181e-06
-2.84606e-09
2.31992e-06
1.88637e-09
2.3105e-06
9.42374e-09
2.28924e-06
2.12645e-08
2.25135e-06
3.78832e-08
2.19176e-06
5.95898e-08
2.10526e-06
8.65057e-08
1.9866e-06
1.18662e-07
1.83051e-06
1.56083e-07
1.63167e-06
1.98839e-07
1.38462e-06
2.4705e-07
1.08376e-06
3.00859e-07
7.23373e-07
3.60392e-07
2.97676e-07
4.25697e-07
-1.99026e-07
4.96702e-07
-7.72202e-07
5.73176e-07
-1.4269e-06
6.54701e-07
-2.16756e-06
7.40655e-07
-2.99776e-06
8.30205e-07
-3.92006e-06
9.22298e-07
-4.93573e-06
1.01567e-06
-6.04459e-06
1.10886e-06
-7.24481e-06
1.20022e-06
-8.53276e-06
1.28795e-06
-9.90288e-06
1.37012e-06
-1.13476e-05
1.44475e-06
-1.28574e-05
1.50979e-06
-1.44206e-05
1.56321e-06
-1.60237e-05
1.60306e-06
-1.76511e-05
1.62744e-06
-1.92857e-05
1.63462e-06
-2.09088e-05
1.62303e-06
-2.25001e-05
1.5913e-06
-2.40383e-05
1.53829e-06
-2.55015e-05
1.46312e-06
-2.68667e-05
1.36519e-06
-2.81108e-05
1.24418e-06
-2.9211e-05
1.10013e-06
-3.01444e-05
9.33481e-07
-3.08895e-05
7.45025e-07
-3.14263e-05
5.36813e-07
-3.17356e-05
3.09324e-07
-3.1796e-05
6.03883e-08
-3.15976e-05
-1.98404e-07
-3.11291e-05
-4.68488e-07
-3.03824e-05
-7.46744e-07
-2.9354e-05
-1.02832e-06
-2.80456e-05
-1.3084e-06
-2.64639e-05
-1.58177e-06
-2.4621e-05
-1.84288e-06
-2.25351e-05
-2.08594e-06
-2.02299e-05
-2.3051e-06
-1.77353e-05
-2.49464e-06
-1.50862e-05
-2.64914e-06
-1.23223e-05
-2.76382e-06
-9.48765e-06
-2.8347e-06
-6.62878e-06
-2.85887e-06
-3.79405e-06
-2.83472e-06
-1.03196e-06
-2.76209e-06
1.6104e-06
-2.64236e-06
4.08892e-06
-2.47852e-06
6.36397e-06
-2.27505e-06
8.4018e-06
-2.03784e-06
1.01757e-05
-1.77389e-06
1.16667e-05
-1.49106e-06
1.28644e-05
-1.19765e-06
1.37665e-05
-9.0209e-07
1.4379e-05
-6.1249e-07
1.47153e-05
-3.36355e-07
1.47972e-05
-8.18202e-08
1.4645e-05
1.52178e-07
1.42896e-05
3.55375e-07
1.37642e-05
5.25419e-07
1.31006e-05
6.63552e-07
1.23307e-05
7.69965e-07
1.14851e-05
8.45604e-07
1.05923e-05
8.92754e-07
9.67789e-06
9.14417e-07
8.76383e-06
9.14067e-07
7.86841e-06
8.95415e-07
7.00622e-06
8.62188e-07
6.18826e-06
8.17965e-07
5.42221e-06
7.66049e-07
4.71283e-06
7.09379e-07
4.06234e-06
6.50487e-07
3.47086e-06
5.91486e-07
2.93677e-06
5.34082e-07
2.45719e-06
4.79587e-07
2.02826e-06
4.28933e-07
1.64561e-06
3.82646e-07
1.30482e-06
3.40792e-07
1.00193e-06
3.02884e-07
7.34155e-07
2.67779e-07
5.00546e-07
2.33609e-07
3.02727e-07
1.97819e-07
1.45206e-07
1.57521e-07
3.482e-08
1.10386e-07
-2.17892e-08
5.66093e-08
-2.50932e-08
3.30397e-09
-2.50931e-08
4.90477e-08
-4.52376e-08
2.40345e-07
-2.42963e-07
5.83313e-07
-4.66692e-07
1.05333e-06
-6.53764e-07
1.61355e-06
-7.86082e-07
2.22344e-06
-8.58826e-07
2.84399e-06
-8.74882e-07
3.4411e-06
-8.41805e-07
3.98762e-06
-7.69986e-07
4.46438e-06
-6.71184e-07
4.86038e-06
-5.57287e-07
5.17214e-06
-4.39235e-07
5.40255e-06
-3.26166e-07
5.5592e-06
-2.24845e-07
5.65261e-06
-1.39369e-07
5.6943e-06
-7.1168e-08
5.69511e-06
-1.92649e-08
5.66385e-06
1.95343e-08
5.60604e-06
4.98363e-08
5.52341e-06
7.70104e-08
5.41378e-06
1.06791e-07
5.27119e-06
1.44473e-07
5.08614e-06
1.94473e-07
4.84712e-06
2.60286e-07
4.54081e-06
3.44194e-07
4.15292e-06
4.47483e-07
3.66868e-06
5.70746e-07
3.07316e-06
7.14175e-07
2.35144e-06
8.77809e-07
1.4886e-06
1.06168e-06
4.69845e-07
1.2658e-06
-7.19416e-07
1.49012e-06
-2.09332e-06
1.7343e-06
-3.66523e-06
1.9976e-06
-5.44722e-06
2.2787e-06
-7.44962e-06
2.57558e-06
-9.68041e-06
2.88549e-06
-1.21446e-05
3.20487e-06
-1.48438e-05
3.5294e-06
-1.77755e-05
3.85401e-06
-2.09329e-05
4.17301e-06
-2.43041e-05
4.48012e-06
-2.78726e-05
4.76872e-06
-3.16166e-05
5.0319e-06
-3.55092e-05
5.26273e-06
-3.95189e-05
5.45444e-06
-4.36096e-05
5.60056e-06
-4.77416e-05
5.69514e-06
-5.18714e-05
5.73288e-06
-5.59532e-05
5.70926e-06
-5.99392e-05
5.62063e-06
-6.37805e-05
5.46426e-06
-6.74275e-05
5.23837e-06
-7.08314e-05
4.94219e-06
-7.39442e-05
4.57585e-06
-7.67195e-05
4.14048e-06
-7.91134e-05
3.6381e-06
-8.10849e-05
3.07166e-06
-8.25965e-05
2.44508e-06
-8.36147e-05
1.76321e-06
-8.41097e-05
1.03177e-06
-8.40593e-05
2.58925e-07
-8.34456e-05
-5.53307e-07
-8.22527e-05
-1.39131e-06
-8.0476e-05
-2.24514e-06
-7.81172e-05
-3.10554e-06
-7.51847e-05
-3.96084e-06
-7.16947e-05
-4.79837e-06
-6.76718e-05
-5.60473e-06
-6.31486e-05
-6.36602e-06
-5.81666e-05
-7.06797e-06
-5.27754e-05
-7.69631e-06
-4.70328e-05
-8.23719e-06
-4.10043e-05
-8.67763e-06
-3.47622e-05
-9.00599e-06
-2.83843e-05
-9.21253e-06
-2.19533e-05
-9.2899e-06
-1.55544e-05
-9.23362e-06
-9.27401e-06
-9.0425e-06
-3.19747e-06
-8.7189e-06
2.59293e-06
-8.26892e-06
8.02024e-06
-7.70236e-06
1.30149e-05
-7.03251e-06
1.75169e-05
-6.27583e-06
2.14771e-05
-5.45131e-06
2.48594e-05
-4.57989e-06
2.76408e-05
-3.68356e-06
2.98129e-05
-2.78454e-06
3.1381e-05
-1.90451e-06
3.23626e-05
-1.06344e-06
3.27921e-05
-2.77267e-07
3.27124e-05
4.35098e-07
3.2174e-05
1.06374e-06
3.12358e-05
1.60176e-06
2.99614e-05
2.04436e-06
2.84162e-05
2.39087e-06
2.66649e-05
2.64404e-06
2.47698e-05
2.80955e-06
2.27884e-05
2.89544e-06
2.07724e-05
2.91144e-06
1.87662e-05
2.8683e-06
1.6807e-05
2.77717e-06
1.49241e-05
2.64901e-06
1.31393e-05
2.4942e-06
1.14676e-05
2.32214e-06
9.918e-06
2.14109e-06
8.49405e-06
1.95803e-06
7.19501e-06
1.77862e-06
6.01682e-06
1.60713e-06
4.95315e-06
1.44631e-06
3.99668e-06
1.29726e-06
3.14045e-06
1.15911e-06
2.37938e-06
1.02886e-06
1.71178e-06
9.01208e-07
1.14066e-06
7.68942e-07
6.74086e-07
6.24091e-07
3.23885e-07
4.60587e-07
1.00994e-07
2.795e-07
6.40224e-09
9.78958e-08
-1.86909e-08
1.16458e-07
-1.61695e-07
4.52871e-07
-5.79376e-07
9.87304e-07
-1.00113e-06
1.68268e-06
-1.34914e-06
2.49055e-06
-1.59395e-06
3.35807e-06
-1.72635e-06
4.23392e-06
-1.75072e-06
5.07254e-06
-1.68043e-06
5.83707e-06
-1.53451e-06
6.50076e-06
-1.33488e-06
7.04738e-06
-1.10391e-06
7.47047e-06
-8.62325e-07
7.77187e-06
-6.27565e-07
7.95964e-06
-4.12618e-07
8.0457e-06
-2.25425e-07
8.04329e-06
-6.87619e-08
7.96473e-06
5.92936e-08
7.81946e-06
1.64804e-07
7.6125e-06
2.56797e-07
7.34353e-06
3.45985e-07
7.00671e-06
4.43609e-07
6.59096e-06
5.60228e-07
6.0806e-06
7.04831e-07
5.45657e-06
8.84313e-07
4.6974e-06
1.10337e-06
3.78016e-06
1.36472e-06
2.6813e-06
1.66961e-06
1.37712e-06
2.01835e-06
-1.55763e-07
2.4107e-06
-1.94018e-06
2.8461e-06
-3.99801e-06
3.32363e-06
-6.34972e-06
3.84183e-06
-9.01374e-06
4.39833e-06
-1.20057e-05
4.98959e-06
-1.53377e-05
5.61063e-06
-1.90169e-05
6.25484e-06
-2.30454e-05
6.91397e-06
-2.74187e-05
7.57812e-06
-3.21252e-05
8.23596e-06
-3.71461e-05
8.8749e-06
-4.24546e-05
9.48147e-06
-4.80161e-05
1.00416e-05
-5.37887e-05
1.05413e-05
-5.97237e-05
1.09668e-05
-6.57661e-05
1.13052e-05
-7.18564e-05
1.15447e-05
-7.79312e-05
1.16754e-05
-8.39249e-05
1.16888e-05
-8.97707e-05
1.15787e-05
-9.54024e-05
1.1341e-05
-0.000100755
1.09733e-05
-0.000105766
1.04756e-05
-0.000110377
9.84936e-06
-0.000114533
9.09802e-06
-0.000118184
8.22629e-06
-0.000121283
7.24031e-06
-0.000123793
6.14736e-06
-0.000125677
4.95583e-06
-0.000126907
3.67511e-06
-0.000127459
2.31566e-06
-0.000127316
8.88674e-07
-0.000126465
-5.92815e-07
-0.000124902
-2.11628e-06
-0.000122625
-3.66744e-06
-0.000119642
-5.22907e-06
-0.000115963
-6.78437e-06
-0.000111608
-8.31525e-06
-0.000106604
-9.80224e-06
-0.000100984
-1.12248e-05
-9.47887e-05
-1.25617e-05
-8.80656e-05
-1.3791e-05
-8.08708e-05
-1.48911e-05
-7.32674e-05
-1.58406e-05
-6.53257e-05
-1.66193e-05
-5.71227e-05
-1.72091e-05
-4.87412e-05
-1.7594e-05
-4.02691e-05
-1.77619e-05
-3.17982e-05
-1.77045e-05
-2.34223e-05
-1.74184e-05
-1.52357e-05
-1.69054e-05
-7.33171e-06
-1.61729e-05
1.99992e-07
-1.52341e-05
7.27497e-06
-1.41075e-05
1.38162e-05
-1.2817e-05
1.97558e-05
-1.1391e-05
2.50373e-05
-9.86136e-06
2.96164e-05
-8.26267e-06
3.34628e-05
-6.63092e-06
3.65605e-05
-5.00227e-06
3.89088e-05
-3.41165e-06
4.05236e-05
-1.89207e-06
4.14335e-05
-4.74829e-07
4.168e-05
8.17198e-07
4.13184e-05
1.96344e-06
4.04139e-05
2.94882e-06
3.90394e-05
3.76533e-06
3.72727e-05
4.41072e-06
3.51937e-05
4.88856e-06
3.28815e-05
5.20768e-06
3.04116e-05
5.3813e-06
2.78539e-05
5.42599e-06
2.52705e-05
5.36059e-06
2.27145e-05
5.205e-06
2.02296e-05
4.97914e-06
1.78496e-05
4.70212e-06
1.55993e-05
4.39146e-06
1.34946e-05
4.06265e-06
1.15445e-05
3.72878e-06
9.75142e-06
3.40018e-06
8.11356e-06
3.08418e-06
6.62618e-06
2.78463e-06
5.28375e-06
2.50154e-06
4.08195e-06
2.23066e-06
3.01967e-06
1.96349e-06
2.10056e-06
1.68805e-06
1.33359e-06
1.39106e-06
7.31786e-07
1.06239e-06
3.08263e-07
7.03024e-07
6.89378e-08
3.37221e-07
5.02469e-08
1.72537e-07
-3.34232e-07
6.32872e-07
-1.03971e-06
1.32802e-06
-1.69628e-06
2.20339e-06
-2.22451e-06
3.19846e-06
-2.58902e-06
4.25071e-06
-2.7786e-06
5.30041e-06
-2.80042e-06
6.29481e-06
-2.67484e-06
7.19111e-06
-2.4308e-06
7.95794e-06
-2.10172e-06
8.57573e-06
-1.72169e-06
9.03576e-06
-1.32235e-06
9.33846e-06
-9.30272e-07
9.49104e-06
-5.652e-07
9.50472e-06
-2.39099e-07
9.39191e-06
4.40451e-08
9.16351e-06
2.87695e-07
8.82669e-06
5.01623e-07
8.3832e-06
7.00287e-07
7.82832e-06
9.00863e-07
7.15068e-06
1.12126e-06
6.33265e-06
1.37825e-06
5.35138e-06
1.6861e-06
4.18e-06
2.05569e-06
2.78901e-06
2.49435e-06
1.14751e-06
3.00622e-06
-7.75788e-07
3.59291e-06
-3.01171e-06
4.25427e-06
-5.58989e-06
4.98888e-06
-8.53804e-06
5.79424e-06
-1.18811e-05
6.66669e-06
-1.56403e-05
7.601e-06
-1.98319e-05
8.58992e-06
-2.4466e-05
9.62375e-06
-2.95455e-05
1.06901e-05
-3.50644e-05
1.17738e-05
-4.10075e-05
1.28571e-05
-4.73493e-05
1.39199e-05
-5.40537e-05
1.49404e-05
-6.10746e-05
1.58958e-05
-6.83562e-05
1.67631e-05
-7.58343e-05
1.75197e-05
-8.34377e-05
1.81447e-05
-9.10901e-05
1.86193e-05
-9.87123e-05
1.89274e-05
-0.000106224
1.90563e-05
-0.000113545
1.89969e-05
-0.0001206
1.87437e-05
-0.000127316
1.82944e-05
-0.000133625
1.76503e-05
-0.000139467
1.68152e-05
-0.000144787
1.57954e-05
-0.000149537
1.45993e-05
-0.000153676
1.32367e-05
-0.000157168
1.17189e-05
-0.000159986
1.00578e-05
-0.000162105
8.26644e-06
-0.000163507
6.35826e-06
-0.00016418
4.34742e-06
-0.000164112
2.24865e-06
-0.000163302
7.78001e-08
-0.000161745
-2.14962e-06
-0.000159446
-4.41533e-06
-0.000156412
-6.70115e-06
-0.000152654
-8.98692e-06
-0.000148188
-1.12511e-05
-0.000143032
-1.34705e-05
-0.000137214
-1.56208e-05
-0.000130763
-1.76757e-05
-0.000123716
-1.96081e-05
-0.000116118
-2.13896e-05
-0.000108017
-2.29919e-05
-9.94711e-05
-2.43865e-05
-9.05442e-05
-2.55463e-05
-8.13072e-05
-2.6446e-05
-7.18376e-05
-2.70636e-05
-6.22188e-05
-2.73808e-05
-5.25389e-05
-2.73845e-05
-4.28898e-05
-2.70675e-05
-3.33656e-05
-2.64296e-05
-2.40608e-05
-2.54777e-05
-1.50688e-05
-2.42261e-05
-6.47946e-06
-2.26968e-05
1.62228e-06
-2.09188e-05
9.1585e-06
-1.89272e-05
1.60599e-05
-1.67628e-05
2.22674e-05
-1.44701e-05
2.77332e-05
-1.20968e-05
3.24223e-05
-9.69139e-06
3.63133e-05
-7.30262e-06
3.93988e-05
-4.97755e-06
4.16844e-05
-2.7605e-06
4.31923e-05
-6.90637e-07
4.3958e-05
1.19775e-06
4.40301e-05
2.87673e-06
4.34694e-05
4.32603e-06
4.23468e-05
5.53326e-06
4.07411e-05
6.49426e-06
3.87359e-05
7.21293e-06
3.64165e-05
7.70067e-06
3.38672e-05
7.97535e-06
3.11677e-05
8.06005e-06
2.83913e-05
7.98144e-06
2.56022e-05
7.76819e-06
2.28549e-05
7.44939e-06
2.01932e-05
7.05314e-06
1.76505e-05
6.60542e-06
1.52501e-05
6.12911e-06
1.30071e-05
5.6432e-06
1.09293e-05
5.16204e-06
9.01931e-06
4.69459e-06
7.27715e-06
4.24371e-06
5.70221e-06
3.80559e-06
4.29583e-06
3.36987e-06
3.06319e-06
2.92069e-06
2.01449e-06
2.43976e-06
1.16492e-06
1.91196e-06
5.33053e-07
1.33489e-06
1.38348e-07
7.31926e-07
1.88595e-07
2.15778e-07
-5.5001e-07
7.75121e-07
-1.59905e-06
1.59933e-06
-2.52048e-06
2.61497e-06
-3.24015e-06
3.74825e-06
-3.72231e-06
4.9271e-06
-3.95745e-06
6.08477e-06
-3.95809e-06
7.16343e-06
-3.75349e-06
8.11663e-06
-3.38401e-06
8.9106e-06
-2.89568e-06
9.52408e-06
-2.33518e-06
9.94716e-06
-1.74543e-06
1.01791e-05
-1.16222e-06
1.02257e-05
-6.1182e-07
1.00963e-05
-1.09673e-07
9.80052e-06
3.39823e-07
9.34565e-06
7.42571e-07
8.73412e-06
1.11315e-06
7.96188e-06
1.47252e-06
7.01751e-06
1.84523e-06
5.88216e-06
2.25661e-06
4.53028e-06
2.73013e-06
2.93094e-06
3.28545e-06
1.04936e-06
3.93727e-06
-1.1514e-06
4.6951e-06
-3.70892e-06
5.56374e-06
-6.66009e-06
6.54409e-06
-1.00399e-05
7.63406e-06
-1.38801e-05
8.82909e-06
-1.82081e-05
1.01222e-05
-2.30454e-05
1.1504e-05
-2.84058e-05
1.29615e-05
-3.42944e-05
1.44784e-05
-4.0705e-05
1.60344e-05
-4.76201e-05
1.76052e-05
-5.5009e-05
1.91627e-05
-6.2828e-05
2.06761e-05
-7.10208e-05
2.21126e-05
-7.95192e-05
2.34389e-05
-8.82456e-05
2.46221e-05
-9.71142e-05
2.56317e-05
-0.000106035
2.64404e-05
-0.000114915
2.7025e-05
-0.000123664
2.73677e-05
-0.000132192
2.74559e-05
-0.000140418
2.72825e-05
-0.000148267
2.68454e-05
-0.000155671
2.61474e-05
-0.000162571
2.51949e-05
-0.000168919
2.39979e-05
-0.000174672
2.25685e-05
-0.000179797
2.09207e-05
-0.000184268
1.90696e-05
-0.000188062
1.70312e-05
-0.000191165
1.48215e-05
-0.000193564
1.24567e-05
-0.00019525
9.95322e-06
-0.000196219
7.32714e-06
-0.000196467
4.5949e-06
-0.000195991
1.77315e-06
-0.000194793
-1.12084e-06
-0.000192873
-4.06935e-06
-0.000190235
-7.05311e-06
-0.000186885
-1.00515e-05
-0.000182829
-1.30422e-05
-0.000178079
-1.6001e-05
-0.000172648
-1.89017e-05
-0.000166554
-2.17156e-05
-0.000159817
-2.4412e-05
-0.000152467
-2.69584e-05
-0.000144536
-2.93204e-05
-0.000136065
-3.14629e-05
-0.000127101
-3.33503e-05
-0.0001177
-3.49479e-05
-0.000107923
-3.62227e-05
-9.78419e-05
-3.71449e-05
-8.75335e-05
-3.76891e-05
-7.70821e-05
-3.78359e-05
-6.65767e-05
-3.75729e-05
-5.61105e-05
-3.68958e-05
-4.57787e-05
-3.58095e-05
-3.56765e-05
-3.43282e-05
-2.58978e-05
-3.24756e-05
-1.65322e-05
-3.02843e-05
-7.66401e-06
-2.77954e-05
6.29824e-07
-2.50566e-05
8.28104e-06
-2.21213e-05
1.52312e-05
-1.90469e-05
2.14325e-05
-1.58927e-05
2.68487e-05
-1.27188e-05
3.14553e-05
-9.58407e-06
3.52398e-05
-6.54501e-06
3.82032e-05
-3.65408e-06
4.03596e-05
-9.58608e-07
4.17359e-05
1.50039e-06
4.23725e-05
3.68939e-06
4.23223e-05
5.58348e-06
4.16495e-05
7.16709e-06
4.04279e-05
8.43453e-06
3.87386e-05
9.39001e-06
3.66668e-05
1.00472e-05
3.42988e-05
1.0428e-05
3.1719e-05
1.05613e-05
2.90062e-05
1.0481e-05
2.62318e-05
1.02238e-05
2.34577e-05
9.82725e-06
2.07353e-05
9.32787e-06
1.81051e-05
8.75926e-06
1.55977e-05
8.15064e-06
1.32343e-05
7.52544e-06
1.10289e-05
6.89995e-06
8.99046e-06
6.28215e-06
7.12518e-06
5.67087e-06
5.43932e-06
5.05573e-06
3.94166e-06
4.41836e-06
2.64558e-06
3.73584e-06
1.57076e-06
2.98678e-06
7.44477e-07
2.16117e-06
2.03417e-07
1.27299e-06
3.92012e-07
2.48519e-07
-7.98529e-07
8.84688e-07
-2.23522e-06
1.80882e-06
-3.44462e-06
2.92921e-06
-4.36053e-06
4.15815e-06
-4.95125e-06
5.41359e-06
-5.21289e-06
6.62214e-06
-5.16664e-06
7.72188e-06
-4.85323e-06
8.66426e-06
-4.32639e-06
9.41465e-06
-3.64607e-06
9.95156e-06
-2.87209e-06
1.02649e-05
-2.05872e-06
1.03531e-05
-1.25046e-06
1.02204e-05
-4.79163e-07
9.87332e-06
2.37444e-07
9.31722e-06
8.95926e-07
8.55376e-06
1.50603e-06
7.57843e-06
2.08848e-06
6.37915e-06
2.6718e-06
4.9357e-06
3.28869e-06
3.22012e-06
3.97219e-06
1.19798e-06
4.75228e-06
-1.16995e-06
5.65338e-06
-3.92563e-06
6.69295e-06
-7.11177e-06
7.88124e-06
-1.07699e-05
9.22189e-06
-1.49387e-05
1.07129e-05
-1.96521e-05
1.23475e-05
-2.49376e-05
1.41146e-05
-3.08142e-05
1.59989e-05
-3.72906e-05
1.79803e-05
-4.43628e-05
2.00337e-05
-5.20128e-05
2.21285e-05
-6.02074e-05
2.4229e-05
-6.88974e-05
2.62952e-05
-7.80185e-05
2.82838e-05
-8.74926e-05
3.01502e-05
-9.723e-05
3.185e-05
-0.000107133
3.33416e-05
-0.000117098
3.45876e-05
-0.000127023
3.55564e-05
-0.000136806
3.62235e-05
-0.000146353
3.65719e-05
-0.000155577
3.65922e-05
-0.000164403
3.62819e-05
-0.000172766
3.56448e-05
-0.000180611
3.46902e-05
-0.000187894
3.34312e-05
-0.000194583
3.18839e-05
-0.000200652
3.00665e-05
-0.000206082
2.79982e-05
-0.00021086
2.56985e-05
-0.000214977
2.31868e-05
-0.000218427
2.0482e-05
-0.000221208
1.76024e-05
-0.000223317
1.45656e-05
-0.000224752
1.13883e-05
-0.000225512
8.08709e-06
-0.000225596
4.67833e-06
-0.000225001
1.17852e-06
-0.000223727
-2.39536e-06
-0.000221771
-6.02529e-06
-0.000219132
-9.69188e-06
-0.000215809
-1.33739e-05
-0.000211804
-1.7048e-05
-0.000207116
-2.06882e-05
-0.000201752
-2.42657e-05
-0.000195719
-2.77488e-05
-0.000189028
-3.11028e-05
-0.000181697
-3.42901e-05
-0.000173746
-3.72707e-05
-0.000165207
-4.00025e-05
-0.000156114
-4.24425e-05
-0.000146515
-4.45475e-05
-0.000136462
-4.62758e-05
-0.000126018
-4.75885e-05
-0.000115256
-4.84516e-05
-0.000104254
-4.88372e-05
-9.31019e-05
-4.87254e-05
-8.18914e-05
-4.81064e-05
-7.07202e-05
-4.69807e-05
-5.96879e-05
-4.53606e-05
-4.88932e-05
-4.32703e-05
-3.84324e-05
-4.07452e-05
-2.83966e-05
-3.78312e-05
-1.887e-05
-3.45832e-05
-9.92809e-06
-3.10632e-05
-1.63688e-06
-2.73381e-05
5.94811e-06
-2.34777e-05
1.27819e-05
-1.95526e-05
1.88303e-05
-1.56325e-05
2.40697e-05
-1.17844e-05
2.84873e-05
-8.0716e-06
3.2081e-05
-4.55231e-06
3.48601e-05
-1.27876e-06
3.68456e-05
1.70392e-06
3.80702e-05
4.35884e-06
3.85789e-05
6.65841e-06
3.84281e-05
8.58538e-06
3.76846e-05
1.01335e-05
3.64241e-05
1.13077e-05
3.47281e-05
1.21239e-05
3.26815e-05
1.2608e-05
3.03686e-05
1.27939e-05
2.78704e-05
1.27219e-05
2.5262e-05
1.24357e-05
2.26095e-05
1.19803e-05
1.99697e-05
1.1399e-05
1.73889e-05
1.07315e-05
1.49033e-05
1.0011e-05
1.25404e-05
9.26286e-06
1.03206e-05
8.50198e-06
8.25952e-06
7.73191e-06
6.37106e-06
6.94418e-06
4.67004e-06
6.11938e-06
3.1755e-06
5.23038e-06
1.91399e-06
4.24829e-06
9.23452e-07
3.15171e-06
2.58234e-07
1.9382e-06
6.50246e-07
2.73883e-07
-1.07241e-06
9.69071e-07
-2.93041e-06
1.96766e-06
-4.4432e-06
3.16055e-06
-5.55342e-06
4.44603e-06
-6.23673e-06
5.73193e-06
-6.4988e-06
6.93844e-06
-6.37314e-06
8.00033e-06
-5.91511e-06
8.86806e-06
-5.19413e-06
9.50743e-06
-4.28544e-06
9.89787e-06
-3.26253e-06
1.00298e-05
-2.19067e-06
9.9014e-06
-1.12205e-06
9.51485e-06
-9.26081e-08
8.87282e-06
8.79465e-07
7.97514e-06
1.79361e-06
6.81595e-06
2.66522e-06
5.38179e-06
3.52264e-06
3.6506e-06
4.40299e-06
1.59184e-06
5.34745e-06
-8.32397e-07
6.39642e-06
-3.66548e-06
7.58536e-06
-6.95385e-06
8.94175e-06
-1.07445e-05
1.04836e-05
-1.50824e-05
1.22192e-05
-2.00084e-05
1.41478e-05
-2.55565e-05
1.6261e-05
-3.17522e-05
1.85431e-05
-3.86094e-05
2.09717e-05
-4.61283e-05
2.35179e-05
-5.42937e-05
2.61456e-05
-6.30722e-05
2.88123e-05
-7.24127e-05
3.1469e-05
-8.22459e-05
3.40621e-05
-9.24861e-05
3.65353e-05
-0.000103034
3.88318e-05
-0.000113781
4.08973e-05
-0.000124614
4.26826e-05
-0.000135418
4.41457e-05
-0.000146084
4.52537e-05
-0.000156511
4.59833e-05
-0.000166609
4.63211e-05
-0.0001763
4.62632e-05
-0.000185521
4.58136e-05
-0.000194223
4.49832e-05
-0.000202366
4.37881e-05
-0.000209924
4.22482e-05
-0.000216878
4.03854e-05
-0.000223217
3.8223e-05
-0.000228935
3.57843e-05
-0.000234029
3.30922e-05
-0.000238499
3.01685e-05
-0.000242346
2.70339e-05
-0.000245572
2.37075e-05
-0.000248177
2.02075e-05
-0.000250162
1.65505e-05
-0.000251526
1.27526e-05
-0.000252268
8.82892e-06
-0.000252384
4.79474e-06
-0.000251871
6.65387e-07
-0.000250723
-3.54323e-06
-0.000248934
-7.81389e-06
-0.000246499
-1.21278e-05
-0.000243409
-1.64639e-05
-0.000239658
-2.07986e-05
-0.000235241
-2.51053e-05
-0.000230153
-2.93536e-05
-0.000224392
-3.35097e-05
-0.000217959
-3.75356e-05
-0.000210859
-4.13898e-05
-0.000203103
-4.50269e-05
-0.000194708
-4.83983e-05
-0.000185696
-5.14536e-05
-0.000176103
-5.41409e-05
-0.00016597
-5.64088e-05
-0.00015535
-5.82082e-05
-0.000144308
-5.9494e-05
-0.000132917
-6.02278e-05
-0.000121263
-6.03798e-05
-0.000109438
-5.9931e-05
-9.75437e-05
-5.88751e-05
-8.56847e-05
-5.72196e-05
-7.39681e-05
-5.49868e-05
-6.25002e-05
-5.22131e-05
-5.13827e-05
-4.89486e-05
-4.07108e-05
-4.52551e-05
-3.05704e-05
-4.12036e-05
-2.10367e-05
-3.68719e-05
-1.21729e-05
-3.23415e-05
-4.0307e-06
-2.76948e-05
3.34997e-06
-2.30132e-05
9.93984e-06
-1.83743e-05
1.57197e-05
-1.38514e-05
2.06795e-05
-9.51217e-06
2.48185e-05
-5.41772e-06
2.81447e-05
-1.62231e-06
3.0676e-05
1.82759e-06
3.24402e-05
4.89421e-06
3.3476e-05
7.54951e-06
3.38332e-05
9.77628e-06
3.35718e-05
1.1569e-05
3.27613e-05
1.29345e-05
3.1478e-05
1.38912e-05
2.98032e-05
1.44687e-05
2.78191e-05
1.4706e-05
2.56063e-05
1.46485e-05
2.32405e-05
1.43461e-05
2.07902e-05
1.38493e-05
1.83152e-05
1.32065e-05
1.58658e-05
1.24605e-05
1.3483e-05
1.16456e-05
1.12e-05
1.0785e-05
9.04346e-06
9.88843e-06
7.03688e-06
8.95076e-06
5.20344e-06
7.95281e-06
3.57006e-06
6.86376e-06
2.17192e-06
5.64642e-06
1.05825e-06
4.26538e-06
2.99363e-07
2.69709e-06
9.49609e-07
2.94317e-07
-1.36673e-06
1.03443e-06
-3.67052e-06
2.085e-06
-5.49378e-06
3.32017e-06
-6.78859e-06
4.62447e-06
-7.54103e-06
5.8959e-06
-7.77022e-06
7.04878e-06
-7.52602e-06
8.0155e-06
-6.88183e-06
8.74664e-06
-5.92527e-06
9.20951e-06
-4.74831e-06
9.38537e-06
-3.43838e-06
9.26571e-06
-2.07101e-06
8.84823e-06
-7.04562e-07
8.13259e-06
6.23032e-07
7.11658e-06
1.89547e-06
5.79281e-06
3.11738e-06
4.1462e-06
4.31183e-06
2.15264e-06
5.5162e-06
-2.21187e-07
6.77682e-06
-3.01677e-06
8.14303e-06
-6.28161e-06
9.66127e-06
-1.00665e-05
1.13702e-05
-1.44221e-05
1.32974e-05
-1.93963e-05
1.54578e-05
-2.50307e-05
1.78535e-05
-3.1358e-05
2.04751e-05
-3.83992e-05
2.33023e-05
-4.61611e-05
2.6305e-05
-5.46334e-05
2.9444e-05
-6.37864e-05
3.26709e-05
-7.35703e-05
3.59295e-05
-8.39143e-05
3.91563e-05
-9.47287e-05
4.22834e-05
-0.000105908
4.5241e-05
-0.000117333
4.7961e-05
-0.000128882
5.03805e-05
-0.000140429
5.24448e-05
-0.000151857
5.41098e-05
-0.000163055
5.53436e-05
-0.000173928
5.61267e-05
-0.000184395
5.64512e-05
-0.000194394
5.63199e-05
-0.000203875
5.5744e-05
-0.000212803
5.47417e-05
-0.000221156
5.33357e-05
-0.000228919
5.15516e-05
-0.000236087
4.94164e-05
-0.000242659
4.69575e-05
-0.000248638
4.42013e-05
-0.000254027
4.11733e-05
-0.000258832
3.7897e-05
-0.000263057
3.43944e-05
-0.000266709
3.06855e-05
-0.00026979
2.67885e-05
-0.000272303
2.27202e-05
-0.000274248
1.84959e-05
-0.000275626
1.41301e-05
-0.000276433
9.63645e-06
-0.000276667
5.02852e-06
-0.000276322
3.20045e-07
-0.00027539
-4.47454e-06
-0.000273865
-9.33957e-06
-0.000271735
-1.42576e-05
-0.00026899
-1.92087e-05
-0.000265618
-2.41703e-05
-0.000261607
-2.9116e-05
-0.000256946
-3.40156e-05
-0.000251621
-3.88343e-05
-0.000245624
-4.35327e-05
-0.000238947
-4.80664e-05
-0.000231588
-5.23861e-05
-0.000223548
-5.64382e-05
-0.000214837
-6.01651e-05
-0.000205471
-6.35068e-05
-0.000195478
-6.64018e-05
-0.000184897
-6.87896e-05
-0.000173778
-7.06127e-05
-0.000162186
-7.18195e-05
-0.000150199
-7.23669e-05
-0.000137907
-7.22231e-05
-0.000125412
-7.13705e-05
-0.000112824
-6.98077e-05
-0.00010026
-6.75507e-05
-8.7839e-05
-6.46338e-05
-7.56792e-05
-6.11085e-05
-6.38922e-05
-5.70421e-05
-5.25808e-05
-5.25149e-05
-4.18359e-05
-4.76168e-05
-3.17341e-05
-4.24433e-05
-2.23374e-05
-3.70916e-05
-1.3693e-05
-3.16575e-05
-5.83484e-06
-2.62324e-05
1.21493e-06
-2.09012e-05
7.4442e-06
-1.57414e-05
1.28492e-05
-1.08227e-05
1.74337e-05
-6.20674e-06
2.12082e-05
-1.94692e-06
2.41908e-05
1.91156e-06
2.64078e-05
5.33256e-06
2.78942e-05
8.28983e-06
2.86951e-05
1.07682e-05
2.8865e-05
1.27645e-05
2.84679e-05
1.42883e-05
2.75752e-05
1.53614e-05
2.62636e-05
1.60176e-05
2.46122e-05
1.62999e-05
2.26994e-05
1.62589e-05
2.06002e-05
1.59486e-05
1.83834e-05
1.54233e-05
1.61105e-05
1.47334e-05
1.38344e-05
1.39216e-05
1.16005e-05
1.3019e-05
9.44711e-06
1.20418e-05
7.40838e-06
1.09895e-05
5.51737e-06
9.84382e-06
3.81035e-06
8.57078e-06
2.33209e-06
7.12468e-06
1.14257e-06
5.4549e-06
3.25023e-07
3.51464e-06
1.27463e-06
3.11259e-07
-1.67799e-06
1.08432e-06
-4.44358e-06
2.16587e-06
-6.57533e-06
3.41353e-06
-8.03625e-06
4.69859e-06
-8.82608e-06
5.90999e-06
-8.98163e-06
6.95729e-06
-8.57332e-06
7.77169e-06
-7.69623e-06
8.3051e-06
-6.45868e-06
8.52735e-06
-4.97057e-06
8.4221e-06
-3.33313e-06
7.98204e-06
-1.63096e-06
7.20394e-06
7.35409e-08
6.08394e-06
1.74303e-06
4.61356e-06
3.36585e-06
2.77659e-06
4.95436e-06
5.47218e-07
6.5412e-06
-2.11041e-06
8.17382e-06
-5.24121e-06
9.90762e-06
-8.8968e-06
1.17986e-05
-1.31322e-05
1.38967e-05
-1.80019e-05
1.62399e-05
-2.3556e-05
1.88515e-05
-2.98363e-05
2.17381e-05
-3.6873e-05
2.48903e-05
-4.46816e-05
2.82837e-05
-5.32595e-05
3.18803e-05
-6.25842e-05
3.56297e-05
-7.26105e-05
3.94704e-05
-8.32707e-05
4.33311e-05
-9.44745e-05
4.71333e-05
-0.000106113
5.07944e-05
-0.000118061
5.42318e-05
-0.000130187
5.73669e-05
-0.000142356
6.01299e-05
-0.000154438
6.24626e-05
-0.000166314
6.4321e-05
-0.000177881
6.56762e-05
-0.000189051
6.65138e-05
-0.000199756
6.68324e-05
-0.000209947
6.66419e-05
-0.000219588
6.59608e-05
-0.000228658
6.48137e-05
-0.000237145
6.3229e-05
-0.000245047
6.12374e-05
-0.000252365
5.88701e-05
-0.000259106
5.61575e-05
-0.000265278
5.31291e-05
-0.000270889
4.98123e-05
-0.000275948
4.62326e-05
-0.000280465
4.24134e-05
-0.000284446
3.83756e-05
-0.000287899
3.41385e-05
-0.000290829
2.9719e-05
-0.000293242
2.51325e-05
-0.000295139
2.03932e-05
-0.000296523
1.55137e-05
-0.000297392
1.0506e-05
-0.000297746
5.38199e-06
-0.000297579
1.53166e-07
-0.000296886
-5.16785e-06
-0.000295657
-1.05679e-05
-0.000293883
-1.60317e-05
-0.00029155
-2.15416e-05
-0.000288643
-2.70773e-05
-0.000285145
-3.26142e-05
-0.000281037
-3.81239e-05
-0.000276299
-4.35726e-05
-0.00027091
-4.89213e-05
-0.000264851
-5.41249e-05
-0.000258105
-5.91324e-05
-0.000250657
-6.38866e-05
-0.000242497
-6.83249e-05
-0.000233624
-7.23801e-05
-0.000224044
-7.59816e-05
-0.000213776
-7.90573e-05
-0.000202852
-8.15364e-05
-0.00019132
-8.3352e-05
-0.000179242
-8.44444e-05
-0.0001667
-8.47651e-05
-0.000153791
-8.42801e-05
-0.000140625
-8.29729e-05
-0.000127329
-8.08475e-05
-0.000114032
-7.79299e-05
-0.000100873
-7.42679e-05
-8.79846e-05
-6.99306e-05
-7.54942e-05
-6.50053e-05
-6.35173e-05
-5.95937e-05
-5.21535e-05
-5.3807e-05
-4.14843e-05
-4.77609e-05
-3.15718e-05
-4.157e-05
-2.246e-05
-3.53443e-05
-1.41761e-05
-2.91851e-05
-6.73377e-06
-2.31838e-05
-1.35814e-07
-1.74207e-05
5.62302e-06
-1.19656e-05
1.05541e-05
-6.87801e-06
1.4674e-05
-2.20831e-06
1.80043e-05
2.00223e-06
2.05727e-05
5.72149e-06
2.24136e-05
8.92728e-06
2.35697e-05
1.16084e-05
2.40923e-05
1.37657e-05
2.40411e-05
1.54126e-05
2.34832e-05
1.65755e-05
2.24912e-05
1.72919e-05
2.11408e-05
1.76093e-05
1.95076e-05
1.75818e-05
1.76649e-05
1.7266e-05
1.5681e-05
1.67172e-05
1.36183e-05
1.59843e-05
1.15321e-05
1.51052e-05
9.47178e-06
1.41022e-05
7.48214e-06
1.29791e-05
5.60666e-06
1.17193e-05
3.89153e-06
1.02859e-05
2.39111e-06
8.62511e-06
1.17475e-06
6.67126e-06
3.34804e-07
4.35458e-06
1.60944e-06
3.25144e-07
-2.00313e-06
1.11952e-06
-5.23795e-06
2.21067e-06
-7.66649e-06
3.43981e-06
-9.26539e-06
4.66583e-06
-1.00521e-05
5.76996e-06
-1.00858e-05
6.65849e-06
-9.46185e-06
7.26301e-06
-8.30075e-06
7.53805e-06
-6.73372e-06
7.45682e-06
-4.88934e-06
7.00566e-06
-2.88198e-06
6.17809e-06
-8.03379e-07
4.969e-06
1.28262e-06
3.36968e-06
3.34235e-06
1.36379e-06
5.37174e-06
-1.07516e-06
7.39331e-06
-3.98469e-06
9.45073e-06
-7.41251e-06
1.16016e-05
-1.1414e-05
1.39091e-05
-1.60482e-05
1.64329e-05
-2.13734e-05
1.92219e-05
-2.7442e-05
2.23085e-05
-3.42958e-05
2.57053e-05
-4.1962e-05
2.94043e-05
-5.04495e-05
3.33778e-05
-5.97461e-05
3.75802e-05
-6.98156e-05
4.19498e-05
-8.05971e-05
4.64112e-05
-9.20046e-05
5.08778e-05
-0.000103929
5.52558e-05
-0.000116244
5.9448e-05
-0.000128809
6.33595e-05
-0.00014148
6.69028e-05
-0.000154116
7.00026e-05
-0.000166585
7.25988e-05
-0.000178771
7.46491e-05
-0.000190579
7.61285e-05
-0.000201931
7.70283e-05
-0.000212771
7.73541e-05
-0.000223061
7.71224e-05
-0.000232777
7.63581e-05
-0.000241908
7.50915e-05
-0.00025045
7.3356e-05
-0.000258408
7.11866e-05
-0.000265788
6.86179e-05
-0.000272602
6.56837e-05
-0.00027886
6.2416e-05
-0.000284576
5.88448e-05
-0.000289762
5.49978e-05
-0.000294429
5.09003e-05
-0.000298591
4.65752e-05
-0.000302258
4.2043e-05
-0.000305442
3.73221e-05
-0.000308151
3.24285e-05
-0.000310395
2.73764e-05
-0.000312181
2.21785e-05
-0.000313513
1.68459e-05
-0.000314395
1.13886e-05
-0.00031483
5.81619e-06
-0.000314814
1.37621e-07
-0.000314345
-5.63671e-06
-0.000313416
-1.14971e-05
-0.000312016
-1.74314e-05
-0.000310133
-2.34253e-05
-0.000307748
-2.94617e-05
-0.000304843
-3.55199e-05
-0.000301392
-4.15745e-05
-0.00029737
-4.7595e-05
-0.000292746
-5.35449e-05
-0.00028749
-5.93809e-05
-0.00028157
-6.50526e-05
-0.000274954
-7.05023e-05
-0.000267614
-7.56649e-05
-0.000259526
-8.04683e-05
-0.000250673
-8.48347e-05
-0.000241048
-8.8682e-05
-0.000230658
-9.19265e-05
-0.000219525
-9.44852e-05
-0.000207689
-9.62802e-05
-0.000195211
-9.72424e-05
-0.000182175
-9.73162e-05
-0.000168684
-9.64639e-05
-0.000154862
-9.46698e-05
-0.000140849
-9.19431e-05
-0.000126797
-8.83202e-05
-0.000112863
-8.38643e-05
-9.92043e-05
-7.8664e-05
-8.59687e-05
-7.28293e-05
-7.32895e-05
-6.64862e-05
-6.128e-05
-5.97704e-05
-5.00298e-05
-5.28202e-05
-3.96043e-05
-4.57698e-05
-3.00449e-05
-3.87444e-05
-2.13727e-05
-3.1856e-05
-1.35916e-05
-2.52018e-05
-6.69352e-06
-1.88637e-05
-6.61829e-07
-1.29097e-05
4.5253e-06
-7.39543e-06