/*--------------------------------*- C++ -*----------------------------------*\
| =========                 |                                                 |
| \\      /  F ield         | OpenFOAM: The Open Source CFD Toolbox           |
|  \\    /   O peration     | Version:  2406                                  |
|   \\  /    A nd           | Website:  www.openfoam.com                      |
|    \\/     M anipulation  |                                                 |
\*---------------------------------------------------------------------------*/
FoamFile
{
    version     2.0;
    format      ascii;
    arch        "LSB;label=32;scalar=64";
    class       surfaceScalarField;
    location    "36.15";
    object      phi_0;
}
// * * * * * * * * * * * * * * * * * * * * * * * * * * * * * * * * * * * * * //

dimensions      [0 3 -1 0 0 0 0];

oriented        oriented;

internalField   nonuniform List<scalar> 
28560
(
-3.83489e-09
3.83671e-09
4.53349e-08
-4.91698e-08
1.63371e-07
-1.18036e-07
3.38699e-07
-1.75328e-07
5.54151e-07
-2.15452e-07
7.91543e-07
-2.37391e-07
1.03404e-06
-2.42502e-07
1.2674e-06
-2.33357e-07
1.48063e-06
-2.13226e-07
1.66629e-06
-1.85662e-07
1.82047e-06
-1.54179e-07
1.94243e-06
-1.21959e-07
2.03405e-06
-9.16226e-08
2.09914e-06
-6.50876e-08
2.14264e-06
-4.3502e-08
2.16992e-06
-2.72764e-08
2.18611e-06
-1.61957e-08
2.19527e-06
-9.15658e-09
2.20029e-06
-5.02008e-09
2.20254e-06
-2.25295e-09
2.20174e-06
8.03425e-10
2.19658e-06
5.15717e-09
2.18402e-06
1.25571e-08
2.16018e-06
2.38391e-08
2.12055e-06
3.96329e-08
2.06026e-06
6.02959e-08
1.97427e-06
8.5987e-08
1.85751e-06
1.16758e-07
1.70488e-06
1.52633e-07
1.51121e-06
1.93664e-07
1.27127e-06
2.39943e-07
9.79683e-07
2.91588e-07
6.30975e-07
3.48707e-07
2.19627e-07
4.11348e-07
-2.59825e-07
4.79452e-07
-8.12646e-07
5.52821e-07
-1.44373e-06
6.31084e-07
-2.15741e-06
7.13681e-07
-2.95726e-06
7.99854e-07
-3.8459e-06
8.88637e-07
-4.82477e-06
9.78865e-07
-5.89394e-06
1.06918e-06
-7.05199e-06
1.15804e-06
-8.29576e-06
1.24377e-06
-9.62031e-06
1.32456e-06
-1.10188e-05
1.39851e-06
-1.24825e-05
1.46369e-06
-1.40007e-05
1.51817e-06
-1.55607e-05
1.56004e-06
-1.71482e-05
1.58747e-06
-1.8747e-05
1.59877e-06
-2.03393e-05
1.59238e-06
-2.19063e-05
1.56693e-06
-2.34275e-05
1.52123e-06
-2.48819e-05
1.45436e-06
-2.62475e-05
1.36563e-06
-2.75021e-05
1.25463e-06
-2.86234e-05
1.12125e-06
-2.95891e-05
9.6575e-07
-3.03779e-05
7.88749e-07
-3.09695e-05
5.91675e-07
-3.13454e-05
3.75837e-07
-3.14858e-05
1.40407e-07
-3.1375e-05
-1.10794e-07
-3.10045e-05
-3.70449e-07
-3.03642e-05
-6.40306e-07
-2.94492e-05
-9.15066e-07
-2.8259e-05
-1.19017e-06
-2.67984e-05
-1.46065e-06
-2.50772e-05
-1.72119e-06
-2.3111e-05
-1.96617e-06
-2.09212e-05
-2.18984e-06
-1.85346e-05
-2.38652e-06
-1.59839e-05
-2.55073e-06
-1.33064e-05
-2.67751e-06
-1.05438e-05
-2.76263e-06
-7.74095e-06
-2.80282e-06
-4.94494e-06
-2.79601e-06
-2.20343e-06
-2.74151e-06
4.36708e-07
-2.64014e-06
2.93099e-06
-2.49428e-06
5.23882e-06
-2.30783e-06
7.32497e-06
-2.08615e-06
9.16073e-06
-1.83576e-06
1.07249e-05
-1.56416e-06
1.20043e-05
-1.27941e-06
1.29941e-05
-9.89787e-07
1.36975e-05
-7.03428e-07
1.41255e-05
-4.27943e-07
1.42961e-05
-1.70658e-07
1.42321e-05
6.40017e-08
1.39575e-05
2.74581e-07
1.35061e-05
4.51431e-07
1.29095e-05
5.96619e-07
1.21985e-05
7.10961e-07
1.14038e-05
7.94712e-07
1.05539e-05
8.49864e-07
9.67477e-06
8.79175e-07
8.78883e-06
8.85936e-07
7.9151e-06
8.73734e-07
7.06887e-06
8.46225e-07
6.26191e-06
8.06959e-07
5.50267e-06
7.59247e-07
4.7966e-06
7.06065e-07
4.1466e-06
6.50001e-07
3.55336e-06
5.93239e-07
3.0158e-06
5.37562e-07
2.53143e-06
4.84365e-07
2.09677e-06
4.3466e-07
1.70772e-06
3.89054e-07
1.36004e-06
3.47685e-07
1.0499e-06
3.10132e-07
7.74606e-07
2.75297e-07
5.33281e-07
2.41325e-07
3.27659e-07
2.05623e-07
1.62472e-07
1.65186e-07
4.49923e-08
1.1748e-07
-1.74337e-08
6.2426e-08
-2.41835e-08
6.74975e-09
-2.41835e-08
4.67789e-08
-4.29422e-08
2.29567e-07
-2.31958e-07
5.5738e-07
-4.45849e-07
1.00651e-06
-6.24459e-07
1.54163e-06
-7.50571e-07
2.12401e-06
-8.19766e-07
2.71648e-06
-8.34975e-07
3.28662e-06
-8.03497e-07
3.80862e-06
-7.35227e-07
4.26423e-06
-6.41273e-07
4.64286e-06
-5.32812e-07
4.94101e-06
-4.20106e-07
5.16113e-06
-3.11738e-07
5.31012e-06
-2.14083e-07
5.39768e-06
-1.31061e-07
5.43453e-06
-6.41224e-08
5.43085e-06
-1.25186e-08
5.395e-06
2.66965e-08
5.33238e-06
5.75937e-08
5.24494e-06
8.51926e-08
5.13094e-06
1.14806e-07
4.9847e-06
1.51394e-07
4.79788e-06
1.99377e-07
4.55958e-06
2.62134e-07
4.25722e-06
3.42e-07
3.87713e-06
4.40383e-07
3.40513e-06
5.57986e-07
2.82682e-06
6.95067e-07
2.12777e-06
8.51685e-07
1.29359e-06
1.02784e-06
3.10028e-07
1.22351e-06
-8.3698e-07
1.4386e-06
-2.16106e-06
1.67279e-06
-3.67511e-06
1.9254e-06
-5.3909e-06
2.19524e-06
-7.31859e-06
2.48051e-06
-9.46619e-06
2.77868e-06
-1.1839e-05
3.08652e-06
-1.44392e-05
3.40003e-06
-1.72651e-05
3.71453e-06
-2.03109e-05
4.0247e-06
-2.35664e-05
4.32469e-06
-2.70166e-05
4.60823e-06
-3.06417e-05
4.8688e-06
-3.44169e-05
5.09979e-06
-3.83131e-05
5.29469e-06
-4.22966e-05
5.44723e-06
-4.633e-05
5.55159e-06
-5.03725e-05
5.60252e-06
-5.43805e-05
5.59546e-06
-5.83084e-05
5.52664e-06
-6.21091e-05
5.39315e-06
-6.57352e-05
5.19295e-06
-6.91389e-05
4.92495e-06
-7.22734e-05
4.58892e-06
-7.50934e-05
4.18556e-06
-7.75552e-05
3.71643e-06
-7.96179e-05
3.184e-06
-8.12438e-05
2.5916e-06
-8.23986e-05
1.94358e-06
-8.3052e-05
1.24502e-06
-8.31784e-05
5.02311e-07
-8.27602e-05
-2.77797e-07
-8.17803e-05
-1.09069e-06
-8.02292e-05
-1.92155e-06
-7.81068e-05
-2.76278e-06
-7.54182e-05
-3.60361e-06
-7.21765e-05
-4.43187e-06
-6.84025e-05
-5.23467e-06
-6.41252e-05
-5.99846e-06
-5.93821e-05
-6.70928e-06
-5.42189e-05
-7.35302e-06
-4.86896e-05
-7.9158e-06
-4.2856e-05
-8.38442e-06
-3.67866e-05
-8.74684e-06
-3.05566e-05
-8.9927e-06
-2.42456e-05
-9.11382e-06
-1.79369e-05
-9.1047e-06
-1.17154e-05
-8.96297e-06
-5.66584e-06
-8.68971e-06
1.29521e-07
-8.28964e-06
5.59288e-06
-7.77119e-06
1.06531e-05
-7.14635e-06
1.52477e-05
-6.43036e-06
1.93248e-05
-5.64124e-06
2.28444e-05
-4.79909e-06
2.57801e-05
-3.9254e-06
2.81187e-05
-3.04212e-06
2.98617e-05
-2.17089e-06
3.10231e-05
-1.3321e-06
3.16304e-05
-5.43299e-07
3.17247e-05
1.80329e-07
3.13542e-05
8.21883e-07
3.05734e-05
1.37747e-06
2.9444e-05
1.84033e-06
2.80298e-05
2.2089e-06
2.63947e-05
2.48503e-06
2.46002e-05
2.67358e-06
2.27043e-05
2.7819e-06
2.07589e-05
2.81914e-06
1.88095e-05
2.79562e-06
1.68943e-05
2.72219e-06
1.50438e-05
2.60966e-06
1.32816e-05
2.46835e-06
1.16239e-05
2.30771e-06
1.0081e-05
2.13611e-06
8.65782e-06
1.96072e-06
7.35477e-06
1.78741e-06
6.16876e-06
1.62068e-06
5.09429e-06
1.46352e-06
4.12472e-06
1.31726e-06
3.25359e-06
1.18126e-06
2.47624e-06
1.05264e-06
1.79139e-06
9.2618e-07
1.20246e-06
7.94548e-07
7.18185e-07
6.49464e-07
3.51358e-07
4.84307e-07
1.14374e-07
2.9941e-07
9.97972e-09
1.11144e-07
-1.42038e-08
1.11435e-07
-1.54377e-07
4.33346e-07
-5.53869e-07
9.44566e-07
-9.5707e-07
1.60944e-06
-1.28934e-06
2.38155e-06
-1.52268e-06
3.21042e-06
-1.64864e-06
4.04714e-06
-1.67169e-06
4.84835e-06
-1.60471e-06
5.57896e-06
-1.46583e-06
6.21341e-06
-1.27573e-06
6.73607e-06
-1.05547e-06
7.14045e-06
-8.24492e-07
7.42791e-06
-5.99194e-07
7.60567e-06
-3.91839e-07
7.68464e-06
-2.1003e-07
7.6771e-06
-5.659e-08
7.5946e-06
6.99817e-08
7.44617e-06
1.75131e-07
7.23675e-06
2.67016e-07
6.96641e-06
3.55525e-07
6.63007e-06
4.5115e-07
6.21756e-06
5.639e-07
5.71448e-06
7.02463e-07
5.10294e-06
8.73669e-07
4.36263e-06
1.08231e-06
3.47169e-06
1.33132e-06
2.40752e-06
1.62216e-06
1.14731e-06
1.95527e-06
-3.31508e-07
2.3305e-06
-2.05098e-06
2.74731e-06
-4.03227e-06
3.2048e-06
-6.29524e-06
3.70156e-06
-8.85786e-06
4.23541e-06
-1.17356e-05
4.80311e-06
-1.49404e-05
5.40012e-06
-1.84803e-05
6.02039e-06
-2.2358e-05
6.65636e-06
-2.65704e-05
7.29889e-06
-3.11078e-05
7.93746e-06
-3.59536e-05
8.56032e-06
-4.10837e-05
9.15478e-06
-4.64666e-05
9.7076e-06
-5.20637e-05
1.02053e-05
-5.78297e-05
1.06348e-05
-6.37133e-05
1.09834e-05
-6.96583e-05
1.12397e-05
-7.56046e-05
1.13935e-05
-8.14895e-05
1.14365e-05
-8.72491e-05
1.13621e-05
-9.2819e-05
1.11654e-05
-9.81361e-05
1.08438e-05
-0.000103139
1.03964e-05
-0.000107771
9.82409e-06
-0.000111975
9.1294e-06
-0.000115702
8.31629e-06
-0.000118907
7.39008e-06
-0.000121548
6.35725e-06
-0.000123589
5.2254e-06
-0.000125001
4.0031e-06
-0.000125757
2.69995e-06
-0.000125839
1.32678e-06
-0.00012523
-1.06907e-07
-0.000123924
-1.58284e-06
-0.000121921
-3.09432e-06
-0.00011922
-4.62236e-06
-0.000115832
-6.15076e-06
-0.000111773
-7.66239e-06
-0.000107067
-9.13851e-06
-0.000101742
-1.05592e-05
-9.58368e-05
-1.19038e-05
-8.93953e-05
-1.31507e-05
-8.24698e-05
-1.42785e-05
-7.512e-05
-1.52657e-05
-6.74125e-05
-1.60919e-05
-5.94211e-05
-1.67382e-05
-5.12256e-05
-1.71881e-05
-4.29114e-05
-1.74281e-05
-3.45676e-05
-1.74484e-05
-2.62866e-05
-1.7244e-05
-1.81616e-05
-1.68147e-05
-1.02851e-05
-1.61661e-05
-2.74727e-06
-1.53091e-05
4.36672e-06
-1.42603e-05
1.09782e-05
-1.30419e-05
1.70173e-05
-1.16803e-05
2.24245e-05
-1.02063e-05
2.71524e-05
-8.65332e-06
3.1167e-05
-7.05672e-06
3.44486e-05
-5.45241e-06
3.6992e-05
-3.8755e-06
3.88079e-05
-2.35923e-06
3.99227e-05
-9.34483e-07
4.03734e-05
3.71189e-07
4.02103e-05
1.54058e-06
3.9496e-05
2.55461e-06
3.83003e-05
3.40461e-06
3.66985e-05
4.08684e-06
3.47686e-05
4.60347e-06
3.25885e-05
4.96201e-06
3.02332e-05
5.17446e-06
2.77724e-05
5.2564e-06
2.52688e-05
5.22582e-06
2.27764e-05
5.10201e-06
2.03402e-05
4.90455e-06
1.79956e-05
4.65233e-06
1.57688e-05
4.36291e-06
1.36776e-05
4.05192e-06
1.17323e-05
3.7327e-06
9.93701e-06
3.41597e-06
8.2911e-06
3.10942e-06
6.79102e-06
2.81735e-06
5.43217e-06
2.54011e-06
4.21106e-06
2.27375e-06
3.12734e-06
2.0099e-06
2.18547e-06
1.73642e-06
1.39539e-06
1.43954e-06
7.71475e-07
1.10822e-06
3.2861e-07
7.42275e-07
7.5016e-08
3.64738e-07
6.08122e-08
1.65236e-07
-3.19613e-07
6.05867e-07
-9.945e-07
1.27086e-06
-1.62206e-06
2.10779e-06
-2.12627e-06
3.05877e-06
-2.47366e-06
4.06415e-06
-2.65401e-06
5.06703e-06
-2.67457e-06
6.0172e-06
-2.55489e-06
6.87384e-06
-2.32247e-06
7.60694e-06
-2.00883e-06
8.19753e-06
-1.64606e-06
8.63688e-06
-1.26384e-06
8.92488e-06
-8.87186e-07
9.06781e-06
-5.3477e-07
9.07585e-06
-2.18078e-07
8.96049e-06
5.87769e-08
8.73189e-06
2.98583e-07
8.39697e-06
5.10047e-07
7.95768e-06
7.06307e-07
7.41e-06
9.03204e-07
6.74368e-06
1.11747e-06
5.94254e-06
1.36504e-06
4.98531e-06
1.65969e-06
3.84677e-06
2.01221e-06
2.49897e-06
2.43012e-06
9.12405e-07
2.91788e-06
-9.42924e-07
3.47749e-06
-3.09671e-06
4.10906e-06
-5.5776e-06
4.81139e-06
-8.41249e-06
5.5822e-06
-1.16257e-05
6.41805e-06
-1.52383e-05
7.31408e-06
-1.92665e-05
8.26363e-06
-2.37212e-05
9.25781e-06
-2.86063e-05
1.02852e-05
-3.39178e-05
1.13319e-05
-3.96429e-05
1.23814e-05
-4.57591e-05
1.34151e-05
-5.22342e-05
1.44125e-05
-5.90259e-05
1.53521e-05
-6.6083e-05
1.62118e-05
-7.33456e-05
1.69702e-05
-8.0747e-05
1.76067e-05
-8.82151e-05
1.81029e-05
-9.56743e-05
1.84425e-05
-0.000103047
1.86127e-05
-0.000110257
1.86036e-05
-0.00011723
1.84088e-05
-0.000123893
1.80251e-05
-0.00013018
1.74526e-05
-0.00013603
1.6694e-05
-0.000141388
1.57545e-05
-0.000146205
1.46413e-05
-0.000150439
1.33633e-05
-0.000154054
1.19305e-05
-0.000157017
1.0354e-05
-0.000159306
8.64598e-06
-0.0001609
6.81897e-06
-0.000161783
4.88629e-06
-0.000161945
2.86195e-06
-0.000161379
7.60575e-07
-0.000160083
-1.40275e-06
-0.000158056
-3.61017e-06
-0.000155305
-5.84521e-06
-0.000151839
-8.08845e-06
-0.00014767
-1.03191e-05
-0.000142818
-1.2515e-05
-0.000137304
-1.46526e-05
-0.000131156
-1.67064e-05
-0.00012441
-1.865e-05
-0.000117105
-2.04557e-05
-0.000109289
-2.20951e-05
-0.000101014
-2.35402e-05
-9.23424e-05
-2.47635e-05
-8.33416e-05
-2.57391e-05
-7.4086e-05
-2.64438e-05
-6.4656e-05
-2.6858e-05
-5.51375e-05
-2.69669e-05
-4.56202e-05
-2.67613e-05
-3.61966e-05
-2.62383e-05
-2.69604e-05
-2.54023e-05
-1.80043e-05
-2.42651e-05
-9.41875e-06
-2.28459e-05
-1.28947e-06
-2.11712e-05
6.30414e-06
-1.92739e-05
1.32908e-05
-1.71929e-05
1.96089e-05
-1.49714e-05
2.5208e-05
-1.26558e-05
3.00498e-05
-1.02943e-05
3.41097e-05
-7.93532e-06
3.73766e-05
-5.62619e-06
3.98539e-05
-3.41175e-06
4.15578e-05
-1.33271e-06
4.2522e-05
5.76317e-07
4.2791e-05
2.28562e-06
4.24222e-05
3.77341e-06
4.14834e-05
5.02569e-06
4.00503e-05
6.03656e-06
3.82041e-05
6.80814e-06
3.60285e-05
7.35011e-06
3.36061e-05
7.67875e-06
3.10163e-05
7.81568e-06
2.83319e-05
7.78637e-06
2.56179e-05
7.61857e-06
2.29295e-05
7.34073e-06
2.03118e-05
6.9806e-06
1.77996e-05
6.5641e-06
1.54181e-05
6.11424e-06
1.31837e-05
5.65035e-06
1.11059e-05
5.18725e-06
9.18883e-06
4.73441e-06
7.43374e-06
4.2952e-06
5.84124e-06
3.86624e-06
4.41379e-06
3.43736e-06
3.15767e-06
2.99253e-06
2.08438e-06
2.51284e-06
1.21062e-06
1.98198e-06
5.57022e-07
1.39588e-06
1.45726e-07
7.76034e-07
2.06539e-07
2.06602e-07
-5.26214e-07
7.41726e-07
-1.52962e-06
1.52966e-06
-2.40999e-06
2.50003e-06
-3.09664e-06
3.5824e-06
-3.55603e-06
4.70811e-06
-3.77973e-06
5.81368e-06
-3.78014e-06
6.84404e-06
-3.58525e-06
7.75488e-06
-3.23331e-06
8.51376e-06
-2.76771e-06
9.09998e-06
-2.23228e-06
9.5035e-06
-1.66736e-06
9.72297e-06
-1.10666e-06
9.76327e-06
-5.75063e-07
9.63267e-06
-8.74758e-08
9.34004e-06
3.51406e-07
8.89217e-06
7.46449e-07
8.29157e-06
1.11065e-06
7.53479e-06
1.46308e-06
6.61159e-06
1.82641e-06
5.5047e-06
2.22436e-06
4.1905e-06
2.67924e-06
2.64006e-06
3.21013e-06
8.20599e-07
3.83167e-06
-1.30297e-06
4.55369e-06
-3.7666e-06
5.38152e-06
-6.6058e-06
6.31668e-06
-9.85437e-06
7.35763e-06
-1.35433e-05
8.50034e-06
-1.76996e-05
9.73846e-06
-2.23447e-05
1.10631e-05
-2.74933e-05
1.24627e-05
-3.31515e-05
1.39219e-05
-3.93159e-05
1.54222e-05
-4.59716e-05
1.69409e-05
-5.30919e-05
1.84522e-05
-6.06376e-05
1.99272e-05
-6.85574e-05
2.13349e-05
-7.67887e-05
2.26438e-05
-8.52589e-05
2.38223e-05
-9.38876e-05
2.48406e-05
-0.000102589
2.56718e-05
-0.000111275
2.62927e-05
-0.000119857
2.66848e-05
-0.000128249
2.68346e-05
-0.00013637
2.67336e-05
-0.000144145
2.63783e-05
-0.000151506
2.57699e-05
-0.000158394
2.49134e-05
-0.000164759
2.38169e-05
-0.000170556
2.24914e-05
-0.000175751
2.09496e-05
-0.000180315
1.92054e-05
-0.000184225
1.72736e-05
-0.000187464
1.51695e-05
-0.000190019
1.29086e-05
-0.000191879
1.05063e-05
-0.000193038
7.9781e-06
-0.000193492
5.33975e-06
-0.000193237
2.6071e-06
-0.000192273
-2.03344e-07
-0.000190601
-3.07465e-06
-0.000188223
-5.98835e-06
-0.000185143
-8.92504e-06
-0.000181368
-1.18634e-05
-0.000176907
-1.47803e-05
-0.000171772
-1.76505e-05
-0.000165978
-2.04467e-05
-0.000159545
-2.31391e-05
-0.000152499
-2.56962e-05
-0.00014487
-2.80845e-05
-0.000136696
-3.02693e-05
-0.000128021
-3.22155e-05
-0.000118896
-3.3888e-05
-0.000109382
-3.52535e-05
-9.95442e-05
-3.62811e-05
-8.94583e-05
-3.69439e-05
-7.92048e-05
-3.72204e-05
-6.88704e-05
-3.70957e-05
-5.85462e-05
-3.65626e-05
-4.83258e-05
-3.56227e-05
-3.83039e-05
-3.42871e-05
-2.85738e-05
-3.25759e-05
-1.92261e-05
-3.05188e-05
-1.03462e-05
-2.81539e-05
-2.01263e-06
-2.55265e-05
5.70417e-06
-2.26882e-05
1.27433e-05
-1.9695e-05
1.90545e-05
-1.66054e-05
2.45985e-05
-1.34794e-05
2.93484e-05
-1.0376e-05
3.3289e-05
-7.35237e-06
3.64182e-05
-4.46189e-06
3.87474e-05
-1.75293e-06
4.03009e-05
7.32161e-07
4.11159e-05
2.95842e-06
4.12423e-05
4.89927e-06
4.07414e-05
6.53743e-06
3.96842e-05
7.86534e-06
3.81491e-05
8.88526e-06
3.6219e-05
9.60884e-06
3.39785e-05
1.00562e-05
3.15105e-05
1.02544e-05
2.88932e-05
1.02358e-05
2.61981e-05
1.00359e-05
2.34873e-05
9.69139e-06
2.08132e-05
9.23824e-06
1.82175e-05
8.70989e-06
1.57322e-05
8.13568e-06
1.338e-05
7.53938e-06
1.11766e-05
6.9378e-06
9.13238e-06
6.33947e-06
7.25494e-06
5.74369e-06
5.55195e-06
5.14034e-06
4.03357e-06
4.51091e-06
2.71467e-06
3.83174e-06
1.61662e-06
3.08002e-06
7.68879e-07
2.24362e-06
2.11048e-07
1.33386e-06
4.17586e-07
2.37685e-07
-7.63899e-07
8.4553e-07
-2.13747e-06
1.7278e-06
-3.29226e-06
2.79684e-06
-4.16568e-06
3.96911e-06
-4.72831e-06
5.16666e-06
-4.97728e-06
6.31977e-06
-4.93324e-06
7.36951e-06
-4.635e-06
8.26951e-06
-4.1333e-06
8.98634e-06
-3.48454e-06
9.49894e-06
-2.74488e-06
9.79687e-06
-1.96529e-06
9.87795e-06
-1.18773e-06
9.74538e-06
-4.42497e-07
9.40473e-06
2.53171e-07
8.86091e-06
8.95228e-07
8.11547e-06
1.49189e-06
7.16447e-06
2.06166e-06
5.99698e-06
2.63056e-06
4.59455e-06
3.22885e-06
2.93138e-06
3.88753e-06
9.75394e-07
4.63523e-06
-1.31025e-06
5.49578e-06
-3.96531e-06
6.48673e-06
-7.03057e-06
7.61894e-06
-1.0546e-05
8.89693e-06
-1.4549e-05
1.03197e-05
-1.90729e-05
1.18815e-05
-2.4145e-05
1.35725e-05
-2.9785e-05
1.53785e-05
-3.60029e-05
1.72811e-05
-4.27974e-05
1.92571e-05
-5.01538e-05
2.12783e-05
-5.80432e-05
2.33116e-05
-6.64219e-05
2.53197e-05
-7.52316e-05
2.72619e-05
-8.44002e-05
2.90958e-05
-9.38445e-05
3.07792e-05
-0.000103472
3.22714e-05
-0.000113186
3.35357e-05
-0.000122885
3.45405e-05
-0.000132474
3.52602e-05
-0.000141858
3.56768e-05
-0.000150952
3.57788e-05
-0.000159679
3.55619e-05
-0.000167974
3.50281e-05
-0.00017578
3.41843e-05
-0.000183052
3.30418e-05
-0.000189753
3.16152e-05
-0.000195858
2.99211e-05
-0.000201344
2.79775e-05
-0.000206197
2.58028e-05
-0.000210407
2.34157e-05
-0.000213968
2.08342e-05
-0.000216874
1.80761e-05
-0.000219124
1.51583e-05
-0.000220715
1.20971e-05
-0.000221645
8.90845e-06
-0.000221914
5.60804e-06
-0.000221518
2.21167e-06
-0.000220457
-1.2644e-06
-0.000218729
-4.80311e-06
-0.000216331
-8.38599e-06
-0.000213263
-1.19931e-05
-0.000209524
-1.56022e-05
-0.000205116
-1.91887e-05
-0.000200041
-2.27252e-05
-0.000194306
-2.61814e-05
-0.000187921
-2.95242e-05
-0.0001809
-3.27171e-05
-0.000173263
-3.57213e-05
-0.000165037
-3.84957e-05
-0.000156255
-4.09978e-05
-0.000146958
-4.31846e-05
-0.000137197
-4.50142e-05
-0.000127032
-4.64467e-05
-0.000116529
-4.74465e-05
-0.000105766
-4.79834e-05
-9.48271e-05
-4.80349e-05
-8.38021e-05
-4.75875e-05
-7.27866e-05
-4.66382e-05
-6.18787e-05
-4.5195e-05
-5.11765e-05
-4.32781e-05
-4.07766e-05
-4.09187e-05
-3.07712e-05
-3.81593e-05
-2.12461e-05
-3.50516e-05
-1.22791e-05
-3.16552e-05
-3.93884e-06
-2.80353e-05
3.71649e-06
-2.42608e-05
1.06392e-05
-2.04021e-05
1.67923e-05
-1.65292e-05
2.21499e-05
-1.271e-05
2.66969e-05
-9.00884e-06
3.04291e-05
-5.4852e-06
3.3354e-05
-2.19269e-06
3.54903e-05
8.22145e-07
3.68686e-05
3.52092e-06
3.75316e-05
5.87445e-06
3.75332e-05
7.86377e-06
3.69377e-05
9.48075e-06
3.58181e-05
1.07284e-05
3.42537e-05
1.16206e-05
3.2327e-05
1.2181e-05
3.0121e-05
1.24418e-05
2.77156e-05
1.24413e-05
2.5185e-05
1.2222e-05
2.25957e-05
1.18276e-05
2.00048e-05
1.13008e-05
1.74595e-05
1.0681e-05
1.49972e-05
1.00016e-05
1.2647e-05
9.28809e-06
1.04305e-05
8.55595e-06
8.36501e-06
7.80916e-06
6.46587e-06
7.03948e-06
4.74946e-06
6.22733e-06
3.23641e-06
5.34479e-06
1.95508e-06
4.36136e-06
9.45594e-07
3.25311e-06
2.6524e-07
2.01422e-06
6.82826e-07
2.61436e-07
-1.02534e-06
9.24345e-07
-2.80038e-06
1.8758e-06
-4.24371e-06
3.01182e-06
-5.3017e-06
4.23584e-06
-5.95232e-06
5.46048e-06
-6.20192e-06
6.61004e-06
-6.08281e-06
7.6225e-06
-5.64745e-06
8.45041e-06
-4.96121e-06
9.06058e-06
-4.09472e-06
9.4326e-06
-3.1169e-06
9.55639e-06
-2.08908e-06
9.4292e-06
-1.06055e-06
9.05234e-06
-6.5635e-08
8.42781e-06
8.77695e-07
7.55526e-06
1.76778e-06
6.42932e-06
2.61783e-06
5.03773e-06
3.45324e-06
3.36033e-06
4.30797e-06
1.36897e-06
5.2202e-06
-9.71546e-07
6.22805e-06
-3.70187e-06
7.36555e-06
-6.86588e-06
8.6598e-06
-1.05084e-05
1.01293e-05
-1.46728e-05
1.17833e-05
-1.93987e-05
1.36228e-05
-2.47198e-05
1.56408e-05
-3.06618e-05
1.78236e-05
-3.72401e-05
2.01508e-05
-4.44574e-05
2.25958e-05
-5.23018e-05
2.51255e-05
-6.07451e-05
2.77004e-05
-6.97419e-05
3.02751e-05
-7.92295e-05
3.27992e-05
-8.91294e-05
3.52196e-05
-9.93496e-05
3.7482e-05
-0.000109788
3.95341e-05
-0.000120336
4.13274e-05
-0.000130885
4.282e-05
-0.000141327
4.3978e-05
-0.000151563
4.47765e-05
-0.000161503
4.52e-05
-0.000171068
4.52421e-05
-0.000180193
4.49042e-05
-0.000188826
4.41948e-05
-0.000196926
4.31279e-05
-0.000204463
4.17211e-05
-0.000211416
3.99949e-05
-0.000217772
3.79712e-05
-0.000223523
3.56723e-05
-0.000228666
3.31201e-05
-0.000233199
3.0336e-05
-0.000237123
2.73399e-05
-0.00024044
2.41507e-05
-0.00024315
2.0786e-05
-0.000245253
1.72621e-05
-0.000246751
1.35944e-05
-0.00024764
9.79791e-06
-0.000247919
5.88697e-06
-0.000247584
1.87625e-06
-0.000246629
-2.21914e-06
-0.000245049
-6.38301e-06
-0.000242837
-1.05976e-05
-0.000239987
-1.48434e-05
-0.000236491
-1.9098e-05
-0.000232344
-2.33363e-05
-0.000227539
-2.75298e-05
-0.000222074
-3.16463e-05
-0.000215949
-3.56495e-05
-0.000209166
-3.94997e-05
-0.000201735
-4.31529e-05
-0.000193668
-4.65621e-05
-0.000184988
-4.96778e-05
-0.000175724
-5.24486e-05
-0.000165915
-5.48234e-05
-0.00015561
-5.67521e-05
-0.000144867
-5.81886e-05
-0.000133759
-5.90921e-05
-0.000122364
-5.94297e-05
-0.000110773
-5.91789e-05
-9.90821e-05
-5.83288e-05
-8.73951e-05
-5.68821e-05
-7.58172e-05
-5.4856e-05
-6.4454e-05
-5.22819e-05
-5.34082e-05
-4.92052e-05
-4.27763e-05
-4.56835e-05
-3.26467e-05
-4.17848e-05
-2.30975e-05
-3.75844e-05
-1.41955e-05
-3.31628e-05
-5.99554e-06
-2.8602e-05
1.45913e-06
-2.39838e-05
8.13644e-06
-1.93873e-05
1.40147e-05
-1.48871e-05
1.9082e-05
-1.05525e-05
2.33358e-05
-6.44655e-06
2.67831e-05
-2.62507e-06
2.94401e-05
8.63903e-07
3.13334e-05
3.9811e-06
3.25002e-05
6.69698e-06
3.29882e-05
8.99276e-06
3.28554e-05
1.08612e-05
3.2169e-05
1.23071e-05
3.10031e-05
1.33469e-05
2.94367e-05
1.40082e-05
2.75504e-05
1.43276e-05
2.54233e-05
1.43491e-05
2.31303e-05
1.41205e-05
2.07397e-05
1.36914e-05
1.83114e-05
1.31093e-05
1.58964e-05
1.24166e-05
1.35367e-05
1.16477e-05
1.12667e-05
1.0826e-05
9.11447e-06
9.96134e-06
7.10505e-06
9.0489e-06
5.26315e-06
8.06923e-06
3.61731e-06
6.99063e-06
2.20452e-06
5.77415e-06
1.07611e-06
4.38152e-06
3.05089e-07
2.78524e-06
9.87915e-07
2.80189e-07
-1.30552e-06
9.8406e-07
-3.50425e-06
1.98245e-06
-5.2421e-06
3.15582e-06
-6.47507e-06
4.39487e-06
-7.19137e-06
5.60315e-06
-7.41021e-06
6.69956e-06
-7.17921e-06
7.61974e-06
-6.56764e-06
8.31624e-06
-5.65771e-06
8.75709e-06
-4.53557e-06
8.92333e-06
-3.28314e-06
8.80571e-06
-1.97145e-06
8.40092e-06
-6.55759e-07
7.70784e-06
6.27444e-07
6.72394e-06
1.8616e-06
5.4422e-06
3.04953e-06
3.84874e-06
4.21129e-06
1.92146e-06
5.38052e-06
-3.70328e-07
6.59975e-06
-3.06506e-06
7.91494e-06
-6.20717e-06
9.37015e-06
-9.84451e-06
1.10029e-05
-1.40255e-05
1.28408e-05
-1.87962e-05
1.49e-05
-2.41974e-05
1.71845e-05
-3.02618e-05
1.96872e-05
-3.70114e-05
2.23905e-05
-4.44553e-05
2.52674e-05
-5.25866e-05
2.82821e-05
-6.13807e-05
3.13899e-05
-7.07939e-05
3.45387e-05
-8.07627e-05
3.76692e-05
-9.12053e-05
4.07176e-05
-0.000102024
4.36175e-05
-0.000113107
4.63034e-05
-0.000124339
4.87138e-05
-0.000135599
5.07944e-05
-0.000146772
5.25003e-05
-0.00015775
5.37977e-05
-0.000168437
5.46645e-05
-0.00017875
5.509e-05
-0.000188624
5.5074e-05
-0.000198007
5.46248e-05
-0.000206861
5.37579e-05
-0.000215159
5.24936e-05
-0.000222887
5.08558e-05
-0.000230036
4.88699e-05
-0.000236603
4.65622e-05
-0.00024259
4.39583e-05
-0.000248001
4.10829e-05
-0.00025284
3.79592e-05
-0.000257113
3.46087e-05
-0.000260824
3.10511e-05
-0.000263978
2.73043e-05
-0.000266576
2.33846e-05
-0.000268621
1.93072e-05
-0.000270113
1.50859e-05
-0.000271049
1.07339e-05
-0.000271426
6.26421e-06
-0.000271239
1.68975e-06
-0.000270483
-2.97592e-06
-0.000269148
-7.71817e-06
-0.000267224
-1.25207e-05
-0.000264703
-1.7365e-05
-0.000261571
-2.223e-05
-0.000257816
-2.70909e-05
-0.000253427
-3.19195e-05
-0.00024839
-3.66829e-05
-0.000242696
-4.13437e-05
-0.000236336
-4.58595e-05
-0.000229306
-5.01832e-05
-0.000221605
-5.42628e-05
-0.00021324
-5.80425e-05
-0.000204226
-6.14632e-05
-0.000194585
-6.44642e-05
-0.000184352
-6.69848e-05
-0.000173574
-6.89667e-05
-0.00016231
-7.03562e-05
-0.000150632
-7.11074e-05
-0.000138626
-7.11847e-05
-0.000126389
-7.05657e-05
-0.000114028
-6.92433e-05
-0.000101656
-6.72278e-05
-8.93913e-05
-6.45469e-05
-7.735e-05
-6.12465e-05
-6.56453e-05
-5.73882e-05
-5.43822e-05
-5.30479e-05
-4.36546e-05
-4.83121e-05
-3.3543e-05
-4.32744e-05
-2.41137e-05
-3.80313e-05
-1.54183e-05
-3.26793e-05
-7.49462e-06
-2.7311e-05
-3.6819e-07
-2.20135e-05
5.94621e-06
-1.68669e-05
1.14429e-05
-1.19432e-05
1.61242e-05
-7.30637e-06
1.99999e-05
-3.01182e-06
2.30874e-05
8.9361e-07
2.54121e-05
4.37228e-06
2.70083e-05
7.39659e-06
2.79195e-05
9.94993e-06
2.8199e-05
1.20276e-05
2.79087e-05
1.36372e-05
2.7118e-05
1.47989e-05
2.59017e-05
1.5544e-05
2.43369e-05
1.59138e-05
2.25009e-05
1.59566e-05
2.04674e-05
1.57249e-05
1.83049e-05
1.52718e-05
1.60749e-05
1.46466e-05
1.38309e-05
1.38918e-05
1.16188e-05
1.3038e-05
9.47837e-06
1.21018e-05
7.44495e-06
1.10823e-05
5.55308e-06
9.9611e-06
3.84056e-06
8.70314e-06
2.35386e-06
7.26085e-06
1.15485e-06
5.58053e-06
3.29051e-07
3.61104e-06
1.31697e-06
2.95337e-07
-1.60086e-06
1.02816e-06
-4.23707e-06
2.05275e-06
-6.2667e-06
3.2344e-06
-7.65672e-06
4.45167e-06
-8.40864e-06
5.59982e-06
-8.55836e-06
6.59331e-06
-8.17269e-06
7.36659e-06
-7.34092e-06
7.87326e-06
-6.16437e-06
8.08346e-06
-4.74577e-06
7.98029e-06
-3.17997e-06
7.5554e-06
-1.54656e-06
6.80456e-06
9.50833e-08
5.72335e-06
1.70865e-06
4.30349e-06
3.28146e-06
2.52986e-06
4.82316e-06
3.787e-07
6.36244e-06
-2.183e-06
7.94222e-06
-5.19679e-06
9.61355e-06
-8.71083e-06
1.1429e-05
-1.27769e-05
1.34362e-05
-1.7447e-05
1.5673e-05
-2.27694e-05
1.81632e-05
-2.87854e-05
2.0916e-05
-3.55258e-05
2.39248e-05
-4.30077e-05
2.71691e-05
-5.12321e-05
3.06149e-05
-6.01811e-05
3.42164e-05
-6.98159e-05
3.79168e-05
-8.0076e-05
4.16501e-05
-9.08799e-05
4.53426e-05
-0.000102127
4.89163e-05
-0.000113701
5.2292e-05
-0.000125478
5.53938e-05
-0.000137327
5.81526e-05
-0.000149123
6.05099e-05
-0.000160748
6.24198e-05
-0.000172099
6.38507e-05
-0.000183086
6.47847e-05
-0.000193639
6.52172e-05
-0.000203703
6.51546e-05
-0.000213241
6.46121e-05
-0.000222228
6.36118e-05
-0.00023065
6.21799e-05
-0.000238502
6.03453e-05
-0.000245784
5.81379e-05
-0.000252501
5.55873e-05
-0.000258661
5.27222e-05
-0.000264272
4.95694e-05
-0.000269344
4.61541e-05
-0.000273884
4.24991e-05
-0.0002779
3.86254e-05
-0.000281401
3.45516e-05
-0.000284391
3.02946e-05
-0.000286876
2.58694e-05
-0.000288858
2.12897e-05
-0.00029034
1.65679e-05
-0.000291322
1.17154e-05
-0.000291801
6.74342e-06
-0.000291774
1.66289e-06
-0.000291236
-3.51467e-06
-0.000290177
-8.77681e-06
-0.000288588
-1.41095e-05
-0.000286457
-1.94965e-05
-0.000283768
-2.49189e-05
-0.000280505
-3.0354e-05
-0.000276649
-3.57752e-05
-0.000272181
-4.11509e-05
-0.000267081
-4.64442e-05
-0.000261327
-5.16126e-05
-0.000254903
-5.66072e-05
-0.000247793
-6.13734e-05
-0.000239985
-6.58506e-05
-0.000231475
-6.99733e-05
-0.000222266
-7.36724e-05
-0.000212375
-7.68765e-05
-0.000201827
-7.95144e-05
-0.000190665
-8.1518e-05
-0.000178947
-8.28255e-05
-0.000166747
-8.33846e-05
-0.000154156
-8.31565e-05
-0.000141281
-8.2119e-05
-0.000128239
-8.02692e-05
-0.000115161
-7.76257e-05
-0.000102178
-7.42291e-05
-8.94248e-05
-7.01413e-05
-7.70292e-05
-6.54434e-05
-6.51091e-05
-6.02322e-05
-5.37679e-05
-5.46155e-05
-4.30921e-05
-4.87072e-05
-3.31492e-05
-4.26222e-05
-2.39885e-05
-3.64716e-05
-1.56423e-05
-3.03597e-05
-8.12828e-06
-2.43809e-05
-1.45246e-06
-1.8619e-05
4.38827e-06
-1.31471e-05
9.40404e-06
-8.02759e-06
1.36108e-05
-3.31314e-06
1.703e-05
9.53108e-07
1.96889e-05
4.73761e-06
2.1622e-05
8.01693e-06
2.28709e-05
1.07786e-05
2.3486e-05
1.30221e-05
2.35256e-05
1.47593e-05
2.3055e-05
1.60146e-05
2.21452e-05
1.68236e-05
2.08701e-05
1.72317e-05
1.9304e-05
1.7291e-05
1.75192e-05
1.70565e-05
1.55836e-05
1.65822e-05
1.35594e-05
1.5916e-05
1.15023e-05
1.50951e-05
9.4625e-06
1.41416e-05
7.48579e-06
1.3059e-05
5.6169e-06
1.183e-05
3.90339e-06
1.04167e-05
2.40107e-06
8.76316e-06
1.18089e-06
6.80071e-06
3.36949e-07
4.45498e-06
1.65391e-06
3.07328e-07
-1.90819e-06
1.05751e-06
-4.98726e-06
2.08739e-06
-7.29657e-06
3.24732e-06
-8.81665e-06
4.40461e-06
-9.56592e-06
5.44747e-06
-9.60123e-06
6.28734e-06
-9.01256e-06
6.85887e-06
-7.91246e-06
7.11786e-06
-6.42337e-06
7.03739e-06
-4.6653e-06
6.60281e-06
-2.74539e-06
5.80643e-06
-7.50183e-07
4.64228e-06
1.25923e-06
3.10149e-06
3.24944e-06
1.16859e-06
5.21436e-06
-1.18091e-06
7.17267e-06
-3.98161e-06
9.16314e-06
-7.27757e-06
1.12382e-05
-1.11203e-05
1.34563e-05
-1.55654e-05
1.5874e-05
-2.06681e-05
1.8539e-05
-2.64794e-05
2.14842e-05
-3.30405e-05
2.47244e-05
-4.038e-05
2.82555e-05
-4.85096e-05
3.20544e-05
-5.74212e-05
3.60808e-05
-6.7085e-05
4.02787e-05
-7.74474e-05
4.45788e-05
-8.84312e-05
4.89006e-05
-9.9937e-05
5.31559e-05
-0.000111847
5.72525e-05
-0.00012403
6.10991e-05
-0.000136348
6.46102e-05
-0.000148665
6.77105e-05
-0.000160851
7.03388e-05
-0.000172791
7.24499e-05
-0.000184386
7.40152e-05
-0.000195558
7.50223e-05
-0.000206246
7.54726e-05
-0.000216408
7.53789e-05
-0.000226016
7.47631e-05
-0.000235057
7.36529e-05
-0.000243525
7.20797e-05
-0.000251422
7.00768e-05
-0.000258754
6.76778e-05
-0.000265532
6.49154e-05
-0.000271766
6.18211e-05
-0.000277468
5.84244e-05
-0.000282651
5.47524e-05
-0.000287327
5.08302e-05
-0.000291508
4.66803e-05
-0.000295206
4.23229e-05
-0.00029843
3.77761e-05
-0.000301191
3.30557e-05
-0.000303498
2.81757e-05
-0.000305356
2.31483e-05
-0.000306773
1.79843e-05
-0.000307751
1.26934e-05
-0.000308292
7.28464e-06
-0.000308395
1.76655e-06
-0.000308058
-3.8519e-06
-0.000307274
-9.56117e-06
-0.000306033
-1.53503e-05
-0.000304323
-2.12064e-05
-0.000302128
-2.71138e-05
-0.000299429
-3.30534e-05
-0.000296202
-3.90018e-05
-0.000292422
-4.49307e-05
-0.000288061
-5.08057e-05
-0.000283087
-5.65864e-05
-0.000277469
-6.22248e-05
-0.000271177
-6.76662e-05
-0.000264179
-7.28478e-05
-0.000256453
-7.77003e-05
-0.000247977
-8.2148e-05
-0.000238743
-8.61103e-05
-0.000228753
-8.95042e-05
-0.000218025
-9.22466e-05
-0.000206592
-9.42581e-05
-0.00019451
-9.54669e-05
-0.000181853
-9.58132e-05
-0.000168719
-9.52535e-05
-0.000155223
-9.3765e-05
-0.0001415
-9.13491e-05
-0.000127695
-8.80333e-05
-0.000113964
-8.38722e-05
-0.000100462
-7.89461e-05
-8.73362e-05
-7.33578e-05
-7.47239e-05
-6.72279e-05
-6.27425e-05
-6.06886e-05
-5.14878e-05
-5.38768e-05
-4.10317e-05
-4.69278e-05
-3.14225e-05
-3.9969e-05
-2.26871e-05
-3.31163e-05
-1.48347e-05
-2.64714e-05
-7.86113e-06
-2.01207e-05
-1.75217e-06
-1.41366e-05
3.51262e-06
-8.57793e-06
7.95807e-06
-3.49234e-06
1.16126e-05