/*--------------------------------*- C++ -*----------------------------------*\
| =========                 |                                                 |
| \\      /  F ield         | OpenFOAM: The Open Source CFD Toolbox           |
|  \\    /   O peration     | Version:  2406                                  |
|   \\  /    A nd           | Website:  www.openfoam.com                      |
|    \\/     M anipulation  |                                                 |
\*---------------------------------------------------------------------------*/
FoamFile
{
    version     2.0;
    format      ascii;
    arch        "LSB;label=32;scalar=64";
    class       volScalarField;
    location    "14.1";
    object      p;
}
// * * * * * * * * * * * * * * * * * * * * * * * * * * * * * * * * * * * * * //

dimensions      [0 2 -2 0 0 0 0];

internalField   nonuniform List<scalar> 
3600
(
0.0193069
0.0193003
0.0192972
0.0192913
0.0192921
0.0192924
0.0192987
0.0193051
0.0193165
0.0193285
0.0193448
0.0193625
0.0193843
0.0194084
0.0194368
0.0194683
0.0195043
0.0195442
0.0195887
0.0196375
0.0196911
0.0197489
0.019811
0.0198768
0.0199457
0.0200164
0.0200879
0.0201581
0.020225
0.020286
0.0203383
0.0203788
0.0204046
0.0204128
0.020401
0.0203676
0.0203117
0.0202336
0.0201345
0.0200172
0.0198846
0.0197412
0.0195908
0.0194385
0.0192875
0.0191425
0.0190051
0.0188791
0.0187641
0.018663
0.0185735
0.0184987
0.018434
0.018384
0.018342
0.0183151
0.0182936
0.0182884
0.0182845
0.0182947
0.0193132
0.0193062
0.0193058
0.0193019
0.019305
0.0193065
0.0193142
0.0193213
0.0193335
0.019346
0.0193629
0.0193811
0.0194034
0.0194279
0.0194566
0.0194881
0.019524
0.0195634
0.0196073
0.019655
0.0197071
0.0197631
0.019823
0.019886
0.0199517
0.0200188
0.0200862
0.0201521
0.0202144
0.0202706
0.0203182
0.0203541
0.0203757
0.0203801
0.0203651
0.0203292
0.0202717
0.020193
0.0200944
0.0199785
0.0198483
0.0197081
0.0195618
0.0194141
0.0192681
0.0191282
0.0189959
0.0188747
0.0187641
0.0186671
0.0185809
0.018509
0.0184465
0.0183984
0.0183572
0.0183308
0.0183082
0.0183016
0.0182945
0.0183047
0.0193171
0.0193067
0.0193066
0.0193017
0.0193056
0.0193071
0.0193153
0.0193225
0.0193349
0.0193473
0.0193642
0.0193823
0.0194044
0.0194286
0.019457
0.0194882
0.0195238
0.0195627
0.0196062
0.0196534
0.0197051
0.0197607
0.0198203
0.0198832
0.0199489
0.0200163
0.0200842
0.0201508
0.0202142
0.0202717
0.0203208
0.0203582
0.0203811
0.0203865
0.0203721
0.0203361
0.0202777
0.0201974
0.0200963
0.0199773
0.0198437
0.0197
0.0195503
0.0193997
0.0192514
0.01911
0.018977
0.0188558
0.0187458
0.0186498
0.018565
0.0184946
0.0184336
0.0183869
0.0183468
0.0183216
0.0182993
0.0182941
0.018287
0.0183007
0.0193226
0.0193085
0.0193095
0.0193043
0.0193099
0.0193118
0.0193213
0.0193287
0.0193417
0.0193542
0.0193713
0.0193891
0.0194112
0.019435
0.019463
0.0194936
0.0195284
0.0195664
0.0196088
0.0196549
0.0197053
0.0197594
0.0198175
0.0198788
0.019943
0.0200091
0.0200758
0.0201415
0.0202041
0.0202613
0.0203101
0.0203475
0.0203704
0.0203757
0.0203608
0.0203239
0.020264
0.0201814
0.0200776
0.0199556
0.0198187
0.019672
0.0195197
0.0193672
0.019218
0.0190767
0.0189448
0.0188256
0.0187181
0.0186252
0.0185435
0.0184764
0.0184182
0.0183743
0.0183359
0.0183125
0.0182905
0.0182862
0.0182785
0.0182942
0.0193209
0.0193023
0.0193035
0.0192966
0.019303
0.0193043
0.0193142
0.0193212
0.0193342
0.0193461
0.0193627
0.0193797
0.019401
0.0194239
0.019451
0.0194805
0.0195143
0.0195514
0.0195929
0.0196381
0.0196878
0.0197414
0.0197992
0.0198606
0.0199253
0.0199923
0.0200605
0.0201282
0.0201935
0.0202538
0.0203061
0.0203471
0.0203734
0.0203816
0.0203688
0.0203327
0.0202721
0.0201873
0.0200795
0.0199519
0.0198085
0.0196547
0.0194953
0.0193362
0.0191815
0.0190361
0.0189015
0.0187812
0.0186738
0.0185821
0.0185023
0.0184376
0.0183817
0.0183404
0.0183041
0.0182828
0.0182622
0.0182597
0.0182528
0.0182706
0.0193153
0.0192926
0.0192946
0.0192865
0.019294
0.0192949
0.0193055
0.0193121
0.0193251
0.0193362
0.0193524
0.0193683
0.0193887
0.0194104
0.0194363
0.0194645
0.019497
0.0195325
0.0195725
0.0196162
0.0196644
0.0197164
0.0197728
0.0198329
0.0198965
0.0199627
0.0200307
0.0200986
0.0201647
0.0202264
0.0202807
0.0203241
0.0203531
0.0203639
0.0203533
0.0203185
0.0202581
0.020172
0.0200612
0.0199292
0.0197801
0.0196198
0.0194538
0.0192888
0.0191291
0.0189804
0.0188441
0.0187237
0.0186177
0.0185286
0.0184519
0.0183908
0.0183385
0.0183006
0.018267
0.0182482
0.0182291
0.0182281
0.0182216
0.0182404
0.0192989
0.019272
0.0192743
0.0192644
0.0192725
0.0192724
0.019283
0.0192884
0.0193008
0.0193106
0.0193256
0.0193401
0.0193591
0.019379
0.0194034
0.0194299
0.0194608
0.0194948
0.0195332
0.0195752
0.0196218
0.0196722
0.019727
0.0197855
0.0198476
0.0199126
0.0199796
0.0200471
0.0201134
0.0201761
0.0202322
0.0202784
0.0203111
0.0203262
0.0203202
0.02029
0.0202332
0.0201491
0.0200386
0.0199044
0.0197508
0.019584
0.0194104
0.0192374
0.0190705
0.0189158
0.0187754
0.018653
0.0185469
0.0184592
0.0183849
0.0183271
0.0182782
0.0182437
0.0182131
0.0181971
0.01818
0.0181809
0.0181752
0.018195
0.0192738
0.0192431
0.019246
0.0192347
0.0192435
0.0192424
0.019253
0.0192573
0.0192689
0.0192772
0.019291
0.0193036
0.019321
0.0193391
0.0193616
0.0193861
0.0194149
0.0194465
0.0194824
0.0195214
0.0195644
0.0196107
0.0196607
0.0197136
0.0197694
0.0198273
0.0198868
0.0199465
0.0200051
0.0200609
0.0201116
0.0201546
0.0201867
0.0202045
0.0202042
0.0201824
0.020136
0.0200629
0.0199625
0.0198364
0.0196879
0.0195227
0.0193475
0.0191707
0.0189987
0.0188393
0.0186953
0.0185712
0.0184652
0.0183795
0.0183084
0.0182546
0.0182097
0.0181793
0.0181522
0.0181392
0.0181242
0.0181266
0.0181218
0.018142
0.0192343
0.0191999
0.0192033
0.0191902
0.0191992
0.0191967
0.0192068
0.0192094
0.0192198
0.019226
0.019238
0.0192485
0.0192639
0.0192797
0.0193
0.0193219
0.0193481
0.0193764
0.0194083
0.0194424
0.0194792
0.0195175
0.0195575
0.0195979
0.0196388
0.0196789
0.0197179
0.0197551
0.0197903
0.019823
0.0198528
0.0198791
0.0199007
0.0199159
0.0199219
0.0199151
0.0198915
0.0198469
0.0197779
0.0196829
0.0195618
0.0194183
0.0192576
0.0190882
0.0189181
0.0187568
0.0186095
0.0184825
0.018375
0.0182896
0.0182204
0.0181697
0.0181285
0.0181019
0.0180782
0.0180682
0.0180554
0.0180596
0.0180557
0.0180763
0.0191816
0.019144
0.0191478
0.0191333
0.0191425
0.0191386
0.019148
0.0191488
0.0191577
0.0191618
0.0191719
0.01918
0.0191931
0.0192063
0.0192238
0.0192423
0.0192643
0.0192871
0.0193118
0.0193361
0.01936
0.0193812
0.0193989
0.0194111
0.0194167
0.0194143
0.0194039
0.0193859
0.0193623
0.0193357
0.01931
0.019289
0.0192761
0.0192731
0.0192801
0.0192945
0.0193115
0.0193242
0.0193244
0.0193046
0.0192582
0.0191824
0.0190776
0.0189497
0.0188064
0.0186594
0.0185176
0.0183912
0.0182826
0.0181968
0.0181284
0.0180799
0.0180417
0.0180184
0.0179979
0.0179906
0.0179799
0.0179853
0.0179822
0.018003
0.0191109
0.0190702
0.0190743
0.0190582
0.0190673
0.0190616
0.0190699
0.0190684
0.0190755
0.019077
0.0190847
0.01909
0.0191003
0.0191101
0.0191237
0.0191372
0.0191525
0.019166
0.0191779
0.0191842
0.0191834
0.0191713
0.0191448
0.0190999
0.019034
0.0189451
0.0188341
0.0187042
0.0185621
0.018417
0.0182801
0.0181629
0.0180763
0.0180283
0.0180234
0.0180617
0.0181383
0.0182437
0.0183644
0.0184845
0.018587
0.0186578
0.0186862
0.018669
0.0186092
0.0185181
0.0184082
0.0182963
0.0181919
0.0181055
0.0180358
0.0179869
0.0179494
0.0179278
0.0179092
0.0179037
0.0178944
0.0179007
0.0178981
0.0179189
0.0190231
0.0189797
0.0189841
0.0189665
0.0189753
0.0189678
0.0189747
0.0189709
0.0189758
0.0189746
0.0189796
0.0189817
0.0189885
0.0189938
0.0190018
0.0190072
0.0190111
0.0190083
0.0189966
0.0189698
0.0189227
0.0188475
0.0187374
0.0185848
0.0183855
0.0181378
0.0178463
0.0175206
0.0171766
0.0168339
0.0165149
0.0162412
0.0160324
0.0159037
0.0158653
0.0159208
0.016067
0.0162935
0.0165832
0.0169125
0.0172534
0.0175761
0.0178526
0.0180617
0.0181914
0.0182441
0.0182312
0.0181757
0.0180977
0.0180198
0.01795
0.0178985
0.017859
0.0178363
0.0178176
0.0178122
0.0178032
0.0178094
0.0178067
0.0178271
0.018914
0.0188681
0.0188726
0.0188533
0.0188615
0.0188519
0.018857
0.0188503
0.0188526
0.018848
0.0188496
0.0188475
0.0188495
0.0188482
0.0188472
0.0188396
0.0188245
0.0187936
0.0187413
0.0186563
0.018528
0.0183424
0.0180872
0.0177516
0.0173315
0.01683
0.0162607
0.0156461
0.0150162
0.0144042
0.0138439
0.0133662
0.0129976
0.0127585
0.0126629
0.0127179
0.0129233
0.0132716
0.0137463
0.0143224
0.0149653
0.0156332
0.0162787
0.0168559
0.0173256
0.0176655
0.0178713
0.0179626
0.0179687
0.0179292
0.0178706
0.0178179
0.0177733
0.0177457
0.0177235
0.0177156
0.017705
0.0177096
0.017706
0.0177255
0.0187845
0.0187365
0.0187411
0.0187202
0.0187274
0.0187155
0.0187185
0.0187088
0.0187079
0.0186995
0.0186969
0.0186894
0.0186845
0.0186736
0.0186584
0.0186297
0.0185829
0.0185051
0.0183844
0.0182017
0.0179382
0.0175722
0.0170867
0.0164712
0.0157286
0.0148755
0.0139432
0.0129724
0.0120095
0.0110996
0.0102841
0.00959719
0.00906611
0.00871071
0.00854483
0.00857671
0.00880954
0.0092409
0.00986156
0.0106536
0.0115876
0.0126215
0.0136989
0.0147533
0.0157133
0.0165166
0.0171198
0.0175147
0.0177228
0.0177957
0.0177858
0.0177452
0.017697
0.0176612
0.0176315
0.0176171
0.0176022
0.0176032
0.0175975
0.0176154
0.0186311
0.0185811
0.0185855
0.0185627
0.0185686
0.0185539
0.0185542
0.0185406
0.0185358
0.0185224
0.018514
0.018499
0.0184839
0.018458
0.0184207
0.0183583
0.0182612
0.0181084
0.0178788
0.0175427
0.0170715
0.0164374
0.0156247
0.0146331
0.0134845
0.0122196
0.0108935
0.00956591
0.00829491
0.00713007
0.0061109
0.00526607
0.00461556
0.00417238
0.0039453
0.00394027
0.00416178
0.00461283
0.00529394
0.006201
0.00732111
0.00862835
0.0100776
0.0116025
0.0131141
0.0145117
0.0156968
0.0166005
0.0171988
0.0175266
0.0176527
0.0176653
0.0176269
0.0175831
0.017542
0.0175167
0.0174938
0.0174882
0.0174788
0.0174943
0.018455
0.0184035
0.0184074
0.0183828
0.0183869
0.0183691
0.018366
0.0183481
0.0183384
0.0183188
0.0183028
0.0182774
0.0182474
0.0181993
0.0181283
0.0180144
0.0178396
0.0175721
0.0171783
0.0166168
0.0158519
0.0148576
0.0136325
0.0122017
0.0106184
0.00895261
0.00728124
0.0056748
0.00419158
0.0028737
0.00174895
0.000832934
0.00013344
-0.000346697
-0.000606255
-0.000643899
-0.000456555
-3.87815e-05
0.000616902
0.00151912
0.00267391
0.00408074
0.00572336
0.00756249
0.00952467
0.0115016
0.0133547
0.0149425
0.016154
0.0169513
0.0173763
0.0175375
0.01755
0.0175092
0.0174561
0.0174152
0.0173801
0.0173644
0.0173493
0.017361
0.0182531
0.0182002
0.0182033
0.0181765
0.0181781
0.0181565
0.018149
0.0181255
0.0181093
0.0180814
0.0180548
0.0180144
0.0179627
0.0178818
0.0177608
0.0175709
0.0172821
0.0168491
0.0162247
0.0153589
0.0142182
0.012794
0.0111159
0.00924728
0.00727653
0.0052975
0.0033958
0.00163746
6.74831e-05
-0.00128917
-0.00242169
-0.00332916
-0.0040153
-0.00448583
-0.00474571
-0.00479798
-0.00464251
-0.00427504
-0.00368698
-0.00286435
-0.00178996
-0.000444228
0.00118662
0.00310375
0.00527798
0.007638
0.0100549
0.0123515
0.0143284
0.0158271
0.0167855
0.0172704
0.017429
0.0174268
0.0173694
0.01731
0.0172586
0.0172283
0.017205
0.0172114
0.0180276
0.0179736
0.0179757
0.0179465
0.017945
0.0179189
0.0179062
0.0178759
0.0178515
0.017813
0.0177721
0.0177113
0.0176294
0.0175021
0.01731
0.0170124
0.0165647
0.0159065
0.0149806
0.0137381
0.0121642
0.0102854
0.00817576
0.00593903
0.00368912
0.00152638
-0.000473177
-0.00226268
-0.00381892
-0.00513655
-0.00621981
-0.00707807
-0.00772138
-0.00815928
-0.00839929
-0.00844677
-0.00830441
-0.0079712
-0.00744219
-0.00670581
-0.00574481
-0.00453295
-0.00304049
-0.00123501
0.00090132
0.00335881
0.00606889
0.00888841
0.0115928
0.0139188
0.015648
0.0167039
0.0171866
0.0173072
0.0172719
0.0171972
0.0171261
0.0170764
0.0170422
0.0170409
0.0177753
0.0177204
0.017721
0.0176888
0.0176832
0.0176516
0.017632
0.0175931
0.0175579
0.0175053
0.0174452
0.0173564
0.0172325
0.0170414
0.016752
0.0163089
0.0156521
0.0147086
0.0134199
0.0117544
0.00973389
0.00743352
0.00497266
0.00248299
8.34958e-05
-0.00213965
-0.00413492
-0.00588143
-0.00737744
-0.00863224
-0.00965815
-0.0104676
-0.011071
-0.0114766
-0.0116912
-0.0117204
-0.0115688
-0.0112392
-0.0107323
-0.0100434
-0.0091628
-0.00806919
-0.00673354
-0.00511218
-0.00316012
-0.000834678
0.00186987
0.0048961
0.0080798
0.0111447
0.0137523
0.015622
0.016682
0.0170909
0.0171418
0.0170671
0.0169769
0.0169024
0.0168544
0.0168423
0.0174999
0.0174445
0.0174433
0.0174078
0.0173974
0.0173593
0.0173313
0.017282
0.0172335
0.0171631
0.0170781
0.0169528
0.0167738
0.0164984
0.0160818
0.0154524
0.0145359
0.0132546
0.0115632
0.00946466
0.00703136
0.00438837
0.00168698
-0.000935526
-0.00337722
-0.00558102
-0.00752513
-0.00921202
-0.0106541
-0.0118667
-0.0128621
-0.0136495
-0.0142345
-0.0146214
-0.0148141
-0.0148171
-0.0146365
-0.0142784
-0.0137499
-0.0130542
-0.0121924
-0.011154
-0.00992128
-0.00845569
-0.0067089
-0.00461294
-0.00210962
0.000832447
0.00415691
0.00767432
0.0110429
0.0138327
0.0157217
0.016668
0.0169398
0.0169036
0.0168033
0.016699
0.0166341
0.0166071
0.0171981
0.0171424
0.0171387
0.0170993
0.0170826
0.0170366
0.0169983
0.016936
0.0168707
0.0167777
0.0166606
0.0164883
0.0162383
0.0158557
0.01528
0.0144244
0.0132055
0.0115529
0.00945012
0.00694918
0.00417557
0.0012921
-0.00154058
-0.00420257
-0.00662412
-0.00878164
-0.0106789
-0.0123328
-0.0137605
-0.0149746
-0.0159813
-0.0167823
-0.0173762
-0.0177617
-0.0179394
-0.0179122
-0.0176871
-0.0172732
-0.0166835
-0.0159288
-0.0150216
-0.0139636
-0.012753
-0.0113648
-0.00976322
-0.00787925
-0.00563534
-0.0029419
0.000244407
0.00386697
0.00769346
0.0112835
0.014129
0.0158705
0.0165966
0.0166797
0.0165921
0.0164573
0.0163714
0.0163244
0.0168758
0.0168204
0.0168138
0.0167701
0.0167462
0.016691
0.0166405
0.016563
0.0164774
0.0163571
0.0162009
0.0159708
0.0156336
0.0151207
0.0143556
0.0132394
0.0116889
0.00965418
0.00716201
0.00431843
0.00129323
-0.00173415
-0.00461695
-0.00726863
-0.00965626
-0.011785
-0.0136744
-0.0153457
-0.0168119
-0.0180771
-0.0191376
-0.0199858
-0.0206132
-0.021013
-0.0211827
-0.0211236
-0.0208439
-0.0203546
-0.0196739
-0.0188186
-0.0178118
-0.0166666
-0.0153978
-0.013997
-0.0124484
-0.0106965
-0.00867006
-0.00625735
-0.00335428
0.000101823
0.00403462
0.00812574
0.0118365
0.0145364
0.015981
0.0163625
0.0163193
0.0161677
0.016055
0.015982
0.0165291
0.0164741
0.016464
0.0164152
0.0163825
0.0163165
0.0162515
0.0161558
0.016046
0.0158928
0.0156893
0.0153898
0.0149489
0.0142836
0.0133033
0.011903
0.0100101
0.00760802
0.00477392
0.00166327
-0.00152749
-0.00462489
-0.00751323
-0.0101452
-0.0125205
-0.0146631
-0.0165978
-0.0183412
-0.0198959
-0.0212545
-0.0224024
-0.0233228
-0.024001
-0.0244256
-0.024592
-0.0245006
-0.0241606
-0.0235844
-0.0227942
-0.0218113
-0.0206671
-0.0193839
-0.0179921
-0.0164986
-0.0149106
-0.0131919
-0.0112927
-0.0091054
-0.00650594
-0.00335585
0.000408357
0.00464932
0.00894888
0.0125829
0.0149363
0.0158874
0.0159592
0.0158125
0.0156745
0.0155655
0.0161667
0.0161129
0.0160988
0.0160447
0.0160023
0.0159243
0.0158429
0.0157267
0.0155891
0.015398
0.0151401
0.0147607
0.0142017
0.0133661
0.0121526
0.0104576
0.00822938
0.00549345
0.00237727
-0.000926865
-0.0042162
-0.00734143
-0.0102261
-0.0128595
-0.0152646
-0.0174734
-0.0195068
-0.0213704
-0.0230535
-0.024536
-0.0257931
-0.0268007
-0.027539
-0.0279937
-0.0281593
-0.0280354
-0.0276329
-0.0269648
-0.026057
-0.0249328
-0.0236306
-0.0221782
-0.0206194
-0.0189736
-0.0172704
-0.0154936
-0.0136219
-0.0115656
-0.00921088
-0.00638797
-0.00294144
0.00116077
0.00570784
0.0100478
0.0133764
0.0151105
0.015508
0.0153544
0.0152246
0.0150571
0.0157838
0.0157314
0.0157127
0.0156524
0.0155989
0.0155073
0.0154073
0.0152677
0.0150987
0.0148649
0.0145456
0.014077
0.013388
0.0123697
0.0109147
0.00892841
0.00638842
0.00336525
2.9607e-05
-0.00340576
-0.00674988
-0.00988828
-0.0127838
-0.0154544
-0.017936
-0.020259
-0.022434
-0.024452
-0.0262885
-0.0279118
-0.0292886
-0.0303891
-0.0311903
-0.0316758
-0.0318402
-0.031683
-0.031217
-0.0304559
-0.0294291
-0.0281602
-0.0266934
-0.0250584
-0.0233098
-0.0214749
-0.0196037
-0.0176979
-0.0157661
-0.0137426
-0.0115402
-0.00898996
-0.00589697
-0.00210567
0.0023829
0.00710632
0.0112941
0.0139088
0.0149229
0.0147732
0.0146859
0.0144426
0.0153925
0.0153425
0.015319
0.0152526
0.0151872
0.0150812
0.0149612
0.0147965
0.0145933
0.0143132
0.0139274
0.0133631
0.0125371
0.0113308
0.00963605
0.00737401
0.00455609
0.00129572
-0.00220433
-0.00572699
-0.00910565
-0.012264
-0.0151988
-0.0179471
-0.0205481
-0.0230239
-0.0253707
-0.0275645
-0.0295679
-0.0313395
-0.0328398
-0.0340343
-0.0348981
-0.0354131
-0.0355746
-0.0353821
-0.0348516
-0.033997
-0.0328524
-0.0314408
-0.0298117
-0.0279938
-0.0260499
-0.0240104
-0.021942
-0.0198602
-0.0178023
-0.0157274
-0.0135828
-0.0112185
-0.00843934
-0.00502035
-0.000803078
0.0039956
0.00876339
0.01227
0.0140611
0.0140928
0.0140062
0.0137174
0.0149864
0.0149389
0.01491
0.0148369
0.0147585
0.014637
0.0144953
0.0143038
0.0140642
0.013735
0.0132795
0.0126161
0.0116507
0.0102588
0.00833573
0.0058232
0.00276727
-0.000681858
-0.00430199
-0.00788455
-0.0112939
-0.0144896
-0.0174943
-0.0203552
-0.0231075
-0.0257606
-0.0282954
-0.0306739
-0.0328482
-0.0347691
-0.0363925
-0.0376799
-0.0386047
-0.0391468
-0.0393026
-0.0390714
-0.0384735
-0.0375235
-0.0362616
-0.0347099
-0.0329242
-0.0309296
-0.0287962
-0.0265524
-0.0242782
-0.0219965
-0.019771
-0.0175826
-0.0154154
-0.0131471
-0.0106058
-0.00754361
-0.00370247
0.000926649
0.00595064
0.0102348
0.0128097
0.0133169
0.0131489
0.0128742
0.0145816
0.0145379
0.0145038
0.0144247
0.0143332
0.014196
0.0140322
0.0138132
0.0135363
0.013157
0.012631
0.0118688
0.0107674
0.00919938
0.00706718
0.00433529
0.00108192
-0.00251433
-0.00622318
-0.00985312
-0.0133005
-0.0165555
-0.0196581
-0.0226584
-0.0255829
-0.0284267
-0.0311565
-0.0337222
-0.0360679
-0.0381382
-0.0398851
-0.0412658
-0.0422518
-0.0428199
-0.0429677
-0.0426938
-0.0420244
-0.0409746
-0.0395934
-0.0379022
-0.0359649
-0.0338019
-0.0314902
-0.0290519
-0.0265778
-0.0240916
-0.0216794
-0.0193385
-0.0170894
-0.0148401
-0.0124528
-0.00969053
-0.00624389
-0.00194713
0.00306029
0.00787228
0.0111843
0.0123628
0.0121309
0.0118874
0.0141686
0.0141286
0.014089
0.0140035
0.0138983
0.0137453
0.0135589
0.0133124
0.0129983
0.0125698
0.0119752
0.0111187
0.00989013
0.00816186
0.0058459
0.00292908
-0.000482978
-0.00419194
-0.00796834
-0.0116417
-0.0151379
-0.0184706
-0.0216907
-0.0248454
-0.0279506
-0.0309875
-0.0339106
-0.0366603
-0.0391749
-0.0413935
-0.0432643
-0.0447393
-0.0457873
-0.0463805
-0.0465182
-0.0461972
-0.0454508
-0.0442951
-0.0427902
-0.040957
-0.0388706
-0.0365459
-0.0340682
-0.0314497
-0.0287903
-0.0261083
-0.0235082
-0.0209972
-0.0186295
-0.0163408
-0.0140336
-0.011499
-0.00841337
-0.00452933
0.000265766
0.00529749
0.00926409
0.011123
0.0109969
0.0107294
0.0137688
0.013734
0.0136896
0.013599
0.013481
0.013313
0.0131048
0.0128319
0.0124821
0.0120068
0.011348
0.010405
0.00906249
0.00719477
0.00472406
0.0016572
-0.00187879
-0.00567387
-0.00950512
-0.0132235
-0.0167797
-0.0202043
-0.0235532
-0.0268682
-0.0301541
-0.0333799
-0.0364908
-0.0394199
-0.042101
-0.0444679
-0.0464648
-0.0480367
-0.0491494
-0.0497688
-0.049896
-0.0495248
-0.0486973
-0.0474296
-0.0457961
-0.0438172
-0.0415824
-0.0391007
-0.0364682
-0.0336845
-0.0308587
-0.0279973
-0.0252212
-0.0225388
-0.020036
-0.0176698
-0.0153856
-0.0130084
-0.0102279
-0.00676931
-0.00231337
0.00266357
0.00713646
0.00957485
0.00977776
0.00940123
0.0133671
0.0133373
0.013288
0.0131923
0.0130618
0.0128795
0.0126507
0.0123533
0.0119707
0.0114535
0.010738
0.00972041
0.00828193
0.00629996
0.00370614
0.000523769
-0.00310518
-0.00696515
-0.0108428
-0.0146081
-0.0182312
-0.0217535
-0.0252323
-0.0287028
-0.0321603
-0.0355637
-0.0388515
-0.0419513
-0.0447935
-0.0473057
-0.0494282
-0.0510974
-0.052276
-0.052922
-0.0530385
-0.0526152
-0.0517042
-0.0503207
-0.0485553
-0.0464275
-0.0440449
-0.0414099
-0.0386325
-0.0356981
-0.0327255
-0.029705
-0.0267722
-0.0239293
-0.0212909
-0.0188274
-0.0165281
-0.0142488
-0.0117142
-0.00865061
-0.00460495
0.000118357
0.00488321
0.0077699
0.00844521
0.00791291
0.0129918
0.0129685
0.0129157
0.0128171
0.0126757
0.0124814
0.0122342
0.0119151
0.0115034
0.0109499
0.0101866
0.00910822
0.00759392
0.00552476
0.00284007
-0.000425033
-0.00411971
-0.00802781
-0.0119462
-0.01576
-0.019453
-0.0230726
-0.0266753
-0.03029
-0.0339045
-0.0374702
-0.0409214
-0.0441808
-0.0471763
-0.0498287
-0.0520743
-0.0538395
-0.0550847
-0.0557579
-0.0558661
-0.0553919
-0.0543996
-0.0529009
-0.0510055
-0.0487299
-0.046203
-0.0434199
-0.0405078
-0.0374364
-0.0343369
-0.0311787
-0.0281126
-0.0251267
-0.0223642
-0.0197978
-0.0174629
-0.0152367
-0.012895
-0.0101756
-0.00656748
-0.00222222
0.00259269
0.00578573
0.00694392
0.00627637
0.0126194
0.0126019
0.0125456
0.0124443
0.0122932
0.0120886
0.0118257
0.0114888
0.0110538
0.0104723
0.00967331
0.00855144
0.00698497
0.00485847
0.00211622
-0.0011995
-0.00493468
-0.00887556
-0.0128283
-0.0166885
-0.0204481
-0.0241565
-0.027869
-0.0316087
-0.0353587
-0.0390652
-0.0426602
-0.0460618
-0.0491962
-0.0519765
-0.054336
-0.0561902
-0.0574981
-0.0581967
-0.058298
-0.057776
-0.0567082
-0.0551003
-0.0530824
-0.0506658
-0.0480031
-0.0450804
-0.0420459
-0.0388518
-0.0356446
-0.03237
-0.0291951
-0.0260877
-0.0232194
-0.0205557
-0.0181785
-0.0159754
-0.0137843
-0.0113536
-0.00817788
-0.00427692
0.000367018
0.00371241
0.00526366
0.00452552
0.0122868
0.012277
0.0122192
0.0121181
0.0119601
0.0117484
0.0114732
0.0111227
0.0106698
0.0100682
0.009245
0.00809652
0.00650117
0.00434645
0.00157889
-0.00175713
-0.00550929
-0.00946873
-0.013449
-0.0173513
-0.0211706
-0.0249555
-0.028759
-0.0326005
-0.0364612
-0.0402832
-0.0439985
-0.0475203
-0.0507744
-0.0536652
-0.0561251
-0.0580571
-0.059422
-0.0601435
-0.0602415
-0.0596783
-0.0585465
-0.0568421
-0.0547172
-0.0521743
-0.0493915
-0.0463436
-0.0432028
-0.039902
-0.0366072
-0.0332367
-0.0299776
-0.0267709
-0.0238189
-0.02107
-0.0186544
-0.0164569
-0.0143855
-0.0121919
-0.00942294
-0.0059899
-0.00168678
0.00165155
0.003465
0.00272334
0.0119584
0.0119548
0.0118955
0.0117949
0.0116318
0.0114155
0.0111321
0.0107736
0.0103106
0.00969959
0.00886696
0.00771205
0.00611389
0.00396232
0.00120286
-0.0021223
-0.0058672
-0.00982911
-0.0138271
-0.0177629
-0.0216301
-0.0254733
-0.029344
-0.0332587
-0.0371994
-0.0411059
-0.0449115
-0.0485243
-0.0518713
-0.0548473
-0.0573863
-0.0593785
-0.0607893
-0.0615279
-0.0616247
-0.0610273
-0.0598457
-0.0580619
-0.0558513
-0.053203
-0.0503224
-0.0471692
-0.0439425
-0.0405533
-0.0371915
-0.0337449
-0.0304251
-0.0271406
-0.0241282
-0.0213094
-0.0188663
-0.0166665
-0.0146944
-0.0126932
-0.0102949
-0.00732211
-0.00347133
-0.000288418
0.00165182
0.000949424
0.0116835
0.0116882
0.01163
0.0115333
0.0113688
0.0111521
0.0108646
0.0105031
0.010036
0.00942391
0.00859376
0.00744926
0.00587115
0.00375088
0.00103061
-0.00225413
-0.00596761
-0.0099152
-0.0139195
-0.0178788
-0.0217809
-0.0256636
-0.0295768
-0.033535
-0.0375237
-0.041481
-0.0453442
-0.0490151
-0.0524243
-0.0554562
-0.0580502
-0.0600823
-0.0615268
-0.0622766
-0.0623757
-0.0617542
-0.0605411
-0.0587003
-0.0564313
-0.0537054
-0.050756
-0.0475231
-0.044236
-0.0407796
-0.0373727
-0.033869
-0.0305108
-0.0271681
-0.0241181
-0.0212458
-0.0187898
-0.0165859
-0.0147015
-0.0128553
-0.0107889
-0.00824657
-0.00490908
-0.00200348
-6.61131e-05
-0.000715344
0.0114084
0.0114188
0.0113615
0.0112689
0.011105
0.010891
0.0106047
0.010247
0.00978495
0.00918365
0.00837159
0.00725796
0.00572555
0.0036673
0.00101928
-0.00219271
-0.00584758
-0.00975985
-0.0137553
-0.0177242
-0.0216456
-0.0255466
-0.0294757
-0.033445
-0.037447
-0.0414178
-0.0453016
-0.048993
-0.0524293
-0.0554831
-0.0581033
-0.0601507
-0.0616133
-0.0623653
-0.0624684
-0.0618314
-0.060605
-0.0587302
-0.0564322
-0.0536585
-0.0506726
-0.0473887
-0.0440689
-0.0405675
-0.0371377
-0.0335947
-0.0302183
-0.0268345
-0.0237679
-0.0208572
-0.0184045
-0.0161985
-0.0143969
-0.0126745
-0.0109025
-0.00874616
-0.00594386
-0.00340179
-0.00158977
-0.00219343
0.0112012
0.0112197
0.0111662
0.0110817
0.0109228
0.0107161
0.0104355
0.0100863
0.00963481
0.00905137
0.00826724
0.00719831
0.00573072
0.0037589
0.0012118
-0.00189778
-0.00546665
-0.00932139
-0.013291
-0.0172555
-0.0211817
-0.0250828
-0.0290045
-0.0329559
-0.0369384
-0.0408867
-0.044755
-0.0484296
-0.0518582
-0.0549002
-0.0575187
-0.0595578
-0.0610239
-0.0617704
-0.0618806
-0.0612384
-0.0600189
-0.0581351
-0.05584
-0.0530509
-0.0500634
-0.0467591
-0.0434367
-0.0399132
-0.0364829
-0.0329163
-0.0295404
-0.0261295
-0.0230656
-0.0201295
-0.0176968
-0.0154918
-0.0137725
-0.0121477
-0.0106364
-0.00881262
-0.0065385
-0.0044068
-0.00283104
-0.00340776
0.0109817
0.0110046
0.0109542
0.010877
0.0107253
0.0105295
0.0102605
0.00992757
0.00949667
0.00894345
0.00820226
0.00719681
0.00581683
0.00395933
0.00154459
-0.0014287
-0.00487959
-0.00864846
-0.0125703
-0.0165124
-0.0204279
-0.0243109
-0.0282038
-0.0321096
-0.0360415
-0.0399314
-0.0437483
-0.0473687
-0.0507551
-0.0537515
-0.0563406
-0.0583471
-0.0598015
-0.060533
-0.0606515
-0.0600115
-0.0588161
-0.0569449
-0.0546815
-0.0519063
-0.0489497
-0.0456529
-0.0423559
-0.0388304
-0.0354196
-0.0318421
-0.0284827
-0.0250551
-0.0220106
-0.0190595
-0.0166628
-0.0144614
-0.0128276
-0.0112771
-0.0099969
-0.0084469
-0.00667194
-0.00495716
-0.00370727
-0.00427673
0.010847
0.0108773
0.0108333
0.010768
0.0106279
0.0104473
0.0101941
0.00988119
0.00947461
0.00895586
0.00826336
0.00732959
0.00604947
0.00432365
0.00206451
-0.000744453
-0.00404701
-0.00770127
-0.0115514
-0.0154528
-0.0193441
-0.023196
-0.0270456
-0.0308859
-0.0347434
-0.0385458
-0.0422811
-0.0458147
-0.0491295
-0.0520514
-0.054588
-0.0565418
-0.0579727
-0.0586825
-0.0588122
-0.0581826
-0.057029
-0.0551913
-0.0529875
-0.0502535
-0.0473588
-0.0440949
-0.0408492
-0.0373391
-0.0339656
-0.030387
-0.0270578
-0.0236212
-0.0206114
-0.017653
-0.0153081
-0.0131118
-0.0115691
-0.0100713
-0.00899779
-0.00765965
-0.00633844
-0.00500774
-0.0041392
-0.00471329
0.010678
0.0107101
0.010671
0.0106157
0.0104895
0.010328
0.0100974
0.0098134
0.00944188
0.00897019
0.00834017
0.00749418
0.00633196
0.00476041
0.00268362
7.18987e-05
-0.00304701
-0.00655031
-0.0102983
-0.0141344
-0.0179857
-0.0217935
-0.0255893
-0.0293488
-0.0331142
-0.0368047
-0.0404336
-0.043852
-0.04707
-0.0498919
-0.0523565
-0.0542397
-0.0556371
-0.056318
-0.0564605
-0.0558459
-0.0547472
-0.0529577
-0.0508351
-0.0481618
-0.0453527
-0.0421392
-0.0389641
-0.0354797
-0.0321566
-0.0285813
-0.0252933
-0.0218515
-0.0188903
-0.0159297
-0.0136523
-0.0114607
-0.0100171
-0.00855053
-0.00766435
-0.00647376
-0.00554951
-0.00453277
-0.00405519
-0.00463027
0.0106164
0.0106548
0.010624
0.0105837
0.0104754
0.0103369
0.0101316
0.00987823
0.00954257
0.0091181
0.00855064
0.00779312
0.00675146
0.00534084
0.00345934
0.00106604
-0.00184038
-0.00515925
-0.00877298
-0.012518
-0.0163129
-0.0200676
-0.0238057
-0.0274797
-0.0311468
-0.034713
-0.038221
-0.0415055
-0.0446101
-0.0473142
-0.0496942
-0.051495
-0.0528536
-0.0535018
-0.053661
-0.0530665
-0.0520355
-0.0503064
-0.0482838
-0.0456862
-0.0429818
-0.0398307
-0.0367411
-0.033288
-0.0300255
-0.0264553
-0.0232185
-0.0197739
-0.0168759
-0.0139163
-0.0117236
-0.00953419
-0.00820094
-0.00674349
-0.00603233
-0.0049238
-0.00433603
-0.0035309
-0.00340285
-0.00395347
0.0104849
0.0105216
0.0104968
0.0104684
0.0103802
0.0102693
0.0100975
0.00988539
0.00959772
0.00923406
0.00874213
0.00808684
0.00717831
0.00594404
0.00427567
0.00212732
-0.00053403
-0.0036275
-0.00706783
-0.0106857
-0.0144018
-0.0180891
-0.0217674
-0.0253542
-0.0289248
-0.0323619
-0.0357445
-0.0388836
-0.0418661
-0.0444399
-0.0467284
-0.0484377
-0.0497553
-0.0503668
-0.0505459
-0.0499727
-0.0490175
-0.0473533
-0.0454414
-0.0429239
-0.0403338
-0.037246
-0.0342482
-0.0308237
-0.0276267
-0.0240582
-0.0208814
-0.0174339
-0.0146144
-0.011657
-0.00956799
-0.0073753
-0.00616756
-0.00469438
-0.00415402
-0.00305951
-0.00275193
-0.0020303
-0.00216489
-0.00263988
0.0104951
0.010537
0.0105219
0.0105109
0.0104459
0.0103647
0.0102266
0.010054
0.0098107
0.00950258
0.00907935
0.00851841
0.00773448
0.00666984
0.00521202
0.00331541
0.000917017
-0.00192062
-0.00515117
-0.00860539
-0.0122158
-0.0158202
-0.0194368
-0.0229418
-0.026427
-0.0297437
-0.0330094
-0.0360054
-0.0388684
-0.0413099
-0.0435079
-0.0451238
-0.0464031
-0.0469777
-0.0471817
-0.0466309
-0.0457585
-0.0441605
-0.0423661
-0.039928
-0.037457
-0.0344284
-0.0315256
-0.0281242
-0.0249978
-0.0214279
-0.0183226
-0.0148729
-0.0121509
-0.00919608
-0.00723294
-0.00502848
-0.0039663
-0.00244946
-0.00208699
-0.000937361
-0.000870033
-8.85814e-05
-0.000373467
-0.000695188
0.0103806
0.0104164
0.0104075
0.0104098
0.0103711
0.0103261
0.0102323
0.0101135
0.00992927
0.00969315
0.00935219
0.00889898
0.0082478
0.00736146
0.00612028
0.00448966
0.00237414
-0.000171972
-0.00315233
-0.00639532
-0.00986397
-0.0133566
-0.0169037
-0.0203259
-0.0237397
-0.0269475
-0.0301144
-0.0329768
-0.0357336
-0.0380469
-0.0401634
-0.0416865
-0.0429344
-0.0434706
-0.0437049
-0.0431726
-0.0423859
-0.0408467
-0.0391694
-0.0367991
-0.034444
-0.0314609
-0.0286504
-0.0252606
-0.0222086
-0.0186318
-0.0156118
-0.0121595
-0.00955708
-0.00660244
-0.00479068
-0.00256072
-0.00166918
-7.40923e-05
9.23245e-05
0.00137208
0.00121678
0.00221039
0.00188462
0.00181799
0.0104624
0.0105026
0.0105045
0.0105261
0.0105147
0.0105053
0.0104513
0.0103788
0.0102435
0.0100669
0.00979307
0.0094306
0.00889218
0.00816372
0.00711845
0.00574028
0.00390327
0.00166214
-0.00104137
-0.00403329
-0.00732196
-0.0106696
-0.0141309
-0.0174662
-0.0208211
-0.0239372
-0.02703
-0.0297799
-0.0324537
-0.0346544
-0.0367067
-0.0381461
-0.039374
-0.0398748
-0.0401457
-0.0396287
-0.0389289
-0.0374395
-0.0358762
-0.0335606
-0.0313171
-0.0283665
-0.0256487
-0.0222627
-0.0192952
-0.0157111
-0.0127974
-0.00934458
-0.00688911
-0.00392971
-0.00229767
-2.18897e-05
0.000669178
0.00238439
0.00232263
0.0038113
0.00341729
0.00477387
0.00447923
0.00478905
0.010336
0.0103641
0.0103727
0.0104091
0.0104307
0.0104677
0.0104692
0.0104638
0.0103971
0.0103023
0.010112
0.00985669
0.00943768
0.0088727
0.00801909