/*--------------------------------*- C++ -*----------------------------------*\
| =========                 |                                                 |
| \\      /  F ield         | OpenFOAM: The Open Source CFD Toolbox           |
|  \\    /   O peration     | Version:  2406                                  |
|   \\  /    A nd           | Website:  www.openfoam.com                      |
|    \\/     M anipulation  |                                                 |
\*---------------------------------------------------------------------------*/
FoamFile
{
    version     2.0;
    format      ascii;
    arch        "LSB;label=32;scalar=64";
    class       surfaceScalarField;
    location    "17.2";
    object      phi_0;
}
// * * * * * * * * * * * * * * * * * * * * * * * * * * * * * * * * * * * * * //

dimensions      [0 3 -1 0 0 0 0];

oriented        oriented;

internalField   nonuniform List<scalar> 
1740
(
1.1721e-06
-1.1721e-06
1.86256e-06
-6.90456e-07
1.63175e-06
2.30815e-07
6.0715e-07
1.0246e-06
-1.39546e-06
2.00261e-06
-4.76553e-06
3.37007e-06
-1.00782e-05
5.31267e-06
-1.81381e-05
8.05987e-06
-3.00004e-05
1.18623e-05
-4.6817e-05
1.68166e-05
-6.94337e-05
2.26168e-05
-9.77071e-05
2.82734e-05
-0.000129764
3.2057e-05
-0.000161259
3.1495e-05
-0.000186449
2.519e-05
-0.000199546
1.30972e-05
-0.000195968
-3.57801e-06
-0.000173567
-2.24015e-05
-0.000132595
-4.09714e-05
-7.74429e-05
-5.51524e-05
-1.64372e-05
-6.10057e-05
3.88831e-05
-5.53204e-05
7.70646e-05
-3.81815e-05
9.09773e-05
-1.39127e-05
8.26336e-05
8.34366e-06
6.19474e-05
2.06862e-05
3.94473e-05
2.25001e-05
2.06405e-05
1.88068e-05
7.04103e-06
1.35994e-05
7.04103e-06
-3.51814e-07
-8.20284e-07
-2.83819e-06
1.79592e-06
-7.59043e-06
4.98305e-06
-1.4572e-05
8.00622e-06
-2.45212e-05
1.19517e-05
-3.87419e-05
1.75908e-05
-5.90454e-05
2.56162e-05
-8.76446e-05
3.6659e-05
-0.000126588
5.08056e-05
-0.00017652
6.67486e-05
-0.000235175
8.12719e-05
-0.000296804
8.99025e-05
-0.000353524
8.87772e-05
-0.000398286
7.62569e-05
-0.000426006
5.29101e-05
-0.000433845
2.09363e-05
-0.000420133
-1.729e-05
-0.000383771
-5.87644e-05
-0.000326041
-9.8701e-05
-0.00024951
-0.000131684
-0.00015986
-0.000150656
-6.70368e-05
-0.000148143
1.52571e-05
-0.000120475
7.25831e-05
-7.12387e-05
9.62802e-05
-1.53534e-05
9.03846e-05
2.65819e-05
6.73543e-05
4.55303e-05
3.92296e-05
4.69315e-05
1.40048e-05
3.88243e-05
2.10458e-05
-3.54489e-06
2.7246e-06
-1.17396e-05
9.99065e-06
-2.32047e-05
1.64481e-05
-3.82308e-05
2.30323e-05
-5.84761e-05
3.21971e-05
-8.64328e-05
4.55475e-05
-0.000125112
6.42959e-05
-0.00017719
8.87365e-05
-0.000243366
0.000116981
-0.000320526
0.000143909
-0.000401358
0.000162104
-0.000476959
0.000165503
-0.000540444
0.000152262
-0.000587923
0.000123736
-0.000617633
8.26202e-05
-0.000628566
3.187e-05
-0.000620242
-2.56142e-05
-0.000591959
-8.70474e-05
-0.000542239
-0.000148421
-0.000470058
-0.000203864
-0.000376148
-0.000244566
-0.000265155
-0.000259137
-0.000148821
-0.000236809
-4.55776e-05
-0.000174482
2.46744e-05
-8.56055e-05
5.45767e-05
-3.32041e-06
5.35629e-05
4.65441e-05
3.60726e-05
6.44218e-05
1.39431e-05
6.09538e-05
3.49889e-05
-7.69951e-06
1.04241e-05
-2.26266e-05
2.49178e-05
-4.17467e-05
3.55682e-05
-6.58466e-05
4.71323e-05
-9.77509e-05
6.41014e-05
-0.000141238
8.90349e-05
-0.000200064
0.000123122
-0.000275979
0.000164651
-0.000365964
0.000206967
-0.000461245
0.000239189
-0.000550757
0.000251617
-0.000626464
0.00024121
-0.000684992
0.00021079
-0.000726002
0.000164746
-0.000751072
0.00010769
-0.000761854
4.2651e-05
-0.000759346
-2.8122e-05
-0.000744121
-0.000102272
-0.00071331
-0.000179232
-0.000662383
-0.000254791
-0.000585956
-0.000320993
-0.000480062
-0.000365031
-0.000347901
-0.00036897
-0.000204987
-0.000317396
-8.0282e-05
-0.00021031
-4.02489e-06
-7.95775e-05
2.25744e-05
1.99448e-05
2.15872e-05
6.5409e-05
9.24562e-06
7.32954e-05
4.42345e-05
-1.22767e-05
2.27008e-05
-3.41281e-05
4.67692e-05
-6.10404e-05
6.24805e-05
-9.45994e-05
8.06913e-05
-0.000139028
0.00010853
-0.000199276
0.000149283
-0.000278588
0.000202433
-0.000374666
0.000260729
-0.000477418
0.000309719
-0.000572727
0.000334498
-0.000650235
0.000329124
-0.000706448
0.000297424
-0.000742712
0.000247053
-0.000763326
0.00018536
-0.000773358
0.000117722
-0.000777296
4.65894e-05
-0.000778217
-2.72005e-05
-0.000776755
-0.000103735
-0.000771077
-0.00018491
-0.000755521
-0.000270348
-0.000720315
-0.000356199
-0.000653204
-0.000432141
-0.000543255
-0.00047892
-0.000390251
-0.000470399
-0.000218198
-0.000382363
-7.6951e-05
-0.000220825
-8.17821e-06
-4.8828e-05
7.5717e-06
4.96591e-05
5.05279e-06
7.58143e-05
4.92873e-05
-1.67731e-05
3.94738e-05
-4.51027e-05
7.50988e-05
-7.94373e-05
9.68151e-05
-0.000122457
0.000123711
-0.000179715
0.000165788
-0.000256014
0.000225583
-0.00035072
0.000297139
-0.000453947
0.000363956
-0.000549273
0.000405046
-0.000622935
0.00040816
-0.000670276
0.000376464
-0.000694192
0.000321339
-0.000701141
0.000254002
-0.000698384
0.000182604
-0.000691876
0.000111214
-0.000686429
4.1143e-05
-0.000685423
-2.82069e-05
-0.000689974
-9.9184e-05
-0.000701288
-0.000173595
-0.000716768
-0.000254868
-0.000728275
-0.000344692
-0.000720166
-0.00044025
-0.000670939
-0.000528147
-0.000561076
-0.000580263
-0.000387274
-0.000556165
-0.000187653
-0.000420445
-4.54024e-05
-0.000191079
-1.30477e-07
4.3872e-06
3.29357e-06
7.23903e-05
5.25809e-05
-2.06515e-05
6.01254e-05
-5.45458e-05
0.000108993
-9.55037e-05
0.000137773
-0.000147252
0.000175458
-0.000215593
0.000234129
-0.000302459
0.00031245
-0.000400596
0.000395275
-0.000493648
0.000457009
-0.00056463
0.000476027
-0.000606061
0.000449592
-0.000621365
0.000391768
-0.000619241
0.000319216
-0.000608892
0.000243654
-0.000596694
0.000170405
-0.000585488
0.000100008
-0.000576567
3.22221e-05
-0.000570655
-3.41182e-05
-0.000570213
-9.96261e-05
-0.000578637
-0.000165172
-0.000599184
-0.000234321
-0.000631239
-0.000312637
-0.000665874
-0.000405616
-0.000682475
-0.000511546
-0.000649674
-0.000613064
-0.000536699
-0.00066914
-0.000339689
-0.000617456
-0.000120203
-0.000410565
-7.40858e-06
-0.000108407
3.18671e-06
6.1795e-05
5.57676e-05
-2.34498e-05
8.35751e-05
-6.15411e-05
0.000147084
-0.000107678
0.00018391
-0.00016592
0.0002337
-0.000240566
0.000308775
-0.000328854
0.000400738
-0.000417835
0.000484256
-0.000489451
0.000528625
-0.000531962
0.000518538
-0.000546718
0.000464348
-0.000544329
0.000389378
-0.00053639
0.000311277
-0.000530127
0.000237391
-0.000526841
0.00016712
-0.000524378
9.75441e-05
-0.000519909
2.77532e-05
-0.000512263
-4.17638e-05
-0.000503138
-0.000108752
-0.0004964
-0.000171909
-0.000498585
-0.000232136
-0.000516721
-0.0002945
-0.000553682
-0.000368655
-0.000600363
-0.000464865
-0.000630436
-0.000582991
-0.000602115
-0.000697461
-0.000472938
-0.000746633
-0.000246647
-0.000636856
-4.12748e-05
-0.000313779
5.56664e-06
1.49536e-05
6.13342e-05
-2.47229e-05
0.000108298
-6.51585e-05
0.00018752
-0.00011421
0.000232962
-0.000175213
0.000294704
-0.000249801
0.000383362
-0.000330982
0.000481919
-0.000403462
0.000556736
-0.000452236
0.000577399
-0.000473289
0.00053959
-0.000475974
0.000467033
-0.000474518
0.000387922
-0.000478322
0.000315081
-0.000488515
0.000247584
-0.000500484
0.000179089
-0.000508853
0.000105913
-0.000509796
2.86962e-05
-0.000502065
-4.94952e-05
-0.000486668
-0.000124148
-0.000466897
-0.000191681
-0.000448884
-0.000250149
-0.000441593
-0.000301792
-0.000454966
-0.000355282
-0.000493301
-0.00042653
-0.000544978
-0.000531315
-0.000576001
-0.000666437
-0.000533832
-0.000788802
-0.000374025
-0.000796662
-0.000118843
-0.000568961
6.9338e-06
-0.000110823
6.8268e-05
-2.41713e-05
0.000132469
-6.47616e-05
0.00022811
-0.000113906
0.000282106
-0.000173345
0.000354143
-0.000242063
0.000452081
-0.000310952
0.000550809
-0.00036583
0.000611614
-0.000397113
0.000608682
-0.000407979
0.000550456
-0.000412483
0.000471538
-0.000423561
0.000399
-0.000444449
0.00033597
-0.000469996
0.000273131
-0.000492963
0.000202055
-0.00050816
0.000121111
-0.00051272
3.32557e-05
-0.000505925
-5.62898e-05
-0.000488353
-0.000141721
-0.000462036
-0.000217997
-0.000431133
-0.000281051
-0.000403023
-0.000329902
-0.00038908
-0.000369225
-0.000402003
-0.000413607
-0.000445372
-0.000487945
-0.000500847
-0.000610963
-0.000520335
-0.000769314
-0.000437257
-0.000879741
-0.000224097
-0.000782121
-1.04992e-05
-0.000324421
5.77688e-05
-2.16407e-05
0.00015411
-5.99963e-05
0.000266466
-0.000106268
0.000328377
-0.00016024
0.000408115
-0.000219249
0.00051109
-0.000274347
0.000605907
-0.000314541
0.000651808
-0.000335712
0.000629853
-0.000345854
0.000560598
-0.000359412
0.000485096
-0.000384444
0.000424031
-0.000417884
0.00036941
-0.000451739
0.000306986
-0.00047952
0.000229836
-0.00049761
0.000139201
-0.000504332
3.9977e-05
-0.000499439
-6.11824e-05
-0.000483418
-0.000157742
-0.000457374
-0.000244041
-0.00042334
-0.000315085
-0.000385515
-0.000367726
-0.000352172
-0.000402568
-0.000337698
-0.000428082
-0.000356382
-0.000469261
-0.000408429
-0.000558916
-0.000459358
-0.000718384
-0.000447739
-0.00089136
-0.000310454
-0.000919406
-5.63271e-05
-0.000578548
1.44171e-06
-1.73491e-05
0.000171459
-5.12043e-05
0.000300321
-9.20444e-05
0.000369217
-0.000137744
0.000453814
-0.000185107
0.000558453
-0.000227023
0.000647824
-0.000256493
0.000681277
-0.000273488
0.000646849
-0.000287525
0.000574634
-0.000310099
0.00050767
-0.000343738
0.00045767
-0.000381983
0.000407655
-0.000417346
0.000342349
-0.00044526
0.000257751
-0.000463446
0.000157387
-0.000471061
4.75916e-05
-0.000468071
-6.41721e-05
-0.000455075
-0.000170737
-0.000432981
-0.000266136
-0.000402618
-0.000345448
-0.000365854
-0.00040449
-0.000326917
-0.000441504
-0.000296453
-0.000458546
-0.00029021
-0.000475504
-0.000322492
-0.000526635
-0.000381503
-0.000659373
-0.0004157
-0.000857163
-0.000337724
-0.000997382
-0.00011557
-0.000800702
-0.000114128
-1.16001e-05
0.000183059
-3.89837e-05
0.000327705
-7.2432e-05
0.000402666
-0.000108112
0.000489494
-0.000143262
0.000593603
-0.000173516
0.000678077
-0.000195504
0.000703266
-0.000211423
0.000662768
-0.000229466
0.000592677
-0.00025666
0.000534864
-0.000291871
0.000492881
-0.000328566
0.00044435
-0.00036124
0.000375023
-0.000386995
0.000283506
-0.000404337
0.000174728
-0.000412579
5.58335e-05
-0.00041164
-6.51109e-05
-0.000402193
-0.000180184
-0.000385337
-0.000282992
-0.000361401
-0.000369384
-0.000331016
-0.000434875
-0.00029541
-0.000477111
-0.000260995
-0.000492961
-0.00023984
-0.000496658
-0.000251763
-0.000514712
-0.000302599
-0.000608537
-0.00035958
-0.000800182
-0.000336628
-0.00102033
-0.000176947
-0.000960383
-0.000291075
-5.03225e-06
0.000188091
-2.44781e-05
0.000347151
-4.93074e-05
0.000427495
-7.424e-05
0.000514426
-9.72132e-05
0.000616576
-0.000116841
0.000697705
-0.000132913
0.000719338
-0.000148182
0.000678038
-0.00016763
0.000612125
-0.000194046
0.00056128
-0.000225187
0.000524022
-0.000256347
0.00047551
-0.000284061
0.000402737
-0.000306516
0.000305961
-0.000322536
0.000190748
-0.000331342
6.46401e-05
-0.000332634
-6.38188e-05
-0.000326954
-0.000185864
-0.00031584
-0.000294107
-0.000299788
-0.000385436
-0.000278684
-0.000455979
-0.000251873
-0.000503922
-0.000222219
-0.000522615
-0.000197063
-0.000521814
-0.000194837
-0.000516938
-0.000229822
-0.000573552
-0.000290879
-0.000739126
-0.00030576
-0.00100545
-0.000198819
-0.00106732
-0.000489895
1.81271e-06
0.000186279
-8.72368e-06
0.000357687
-2.42461e-05
0.000443017
-3.8258e-05
0.000528438
-4.93084e-05
0.000627627
-5.89184e-05
0.000707315
-6.93324e-05
0.000729752
-8.27435e-05
0.000691449
-0.000100443
0.000629825
-0.000121848
0.000582684
-0.000145138
0.000547312
-0.000168166
0.000498538
-0.000189263
0.000423834
-0.000207334
0.000324032
-0.000221395
0.000204809
-0.000230623
7.3868e-05
-0.000234622
-5.98203e-05
-0.000233437
-0.000187049
-0.000228434
-0.00029911
-0.000220644
-0.000393225
-0.000209586
-0.000467038
-0.000193813
-0.000519695
-0.000173958
-0.00054247
-0.000153918
-0.000541854
-0.000146995
-0.000523861
-0.000168432
-0.000552116
-0.000224854
-0.000682704
-0.000259346
-0.000970959
-0.000187468
-0.0011392
-0.000677363
8.36092e-06
0.000177918
6.98729e-06
0.000359061
6.76935e-07
0.000449328
-2.55757e-06
0.000531673
-2.03901e-06
0.000627108
-1.7603e-06
0.000707036
-5.54043e-06
0.000733532
-1.48474e-05
0.000700756
-2.79757e-05
0.000642953
-4.19161e-05
0.000596624
-5.53164e-05
0.000560712
-6.85511e-05
0.000511773
-8.16127e-05
0.000436895
-9.40583e-05
0.000336477
-0.000105296
0.000216047
-0.000114478
8.30506e-05
-0.00012152
-5.27784e-05
-0.000125703
-0.000182866
-0.00012831
-0.000296503
-0.000129265
-0.00039227
-0.000129048
-0.000467255
-0.000124846
-0.000523897
-0.00011694
-0.000550375
-0.0001064
-0.000552395
-0.000101902
-0.000528358
-0.00011604
-0.000537977
-0.000165467
-0.000633277
-0.000208956
-0.00092747
-0.000165407
-0.00118275
-0.000842769
1.38031e-05
0.000164115
2.15254e-05
0.000351338
2.42716e-05
0.000446582
3.05671e-05
0.000525377
4.22886e-05
0.000615387
5.39067e-05
0.000695418
5.85624e-05
0.000728876
5.45296e-05
0.000704789
4.67357e-05
0.000650747
4.11741e-05
0.000602186
3.85724e-05
0.000563314
3.6185e-05
0.00051416
3.23423e-05
0.000440738
2.66857e-05
0.000342134
1.92986e-05
0.000223434
1.06173e-05
9.17319e-05
1.34113e-06
-4.35022e-05
-9.33649e-06
-0.000172189
-1.95594e-05
-0.000286281
-3.09356e-05
-0.000380893
-4.06095e-05
-0.000457581
-4.88352e-05
-0.000515671
-5.33941e-05
-0.000545816
-5.4707e-05
-0.000551082
-5.87835e-05
-0.000524282
-7.23191e-05
-0.000524442
-0.000116525
-0.000589071
-0.000163123
-0.000880871
-0.000141248
-0.00120463
-0.000984017
1.76115e-05
0.000146503
3.35862e-05
0.000335364
4.46708e-05
0.000435497
5.95773e-05
0.000510471
8.15479e-05
0.000593416
0.000104553
0.000672413
0.000119577
0.000713851
0.000123515
0.000700852
0.000122083
0.000652179
0.000123927
0.000600342
0.000131141
0.000556099
0.00013956
0.000505742
0.00014538
0.000434918
0.000147188
0.000340326
0.000144278
0.000226344
0.000136701
9.93094e-05
0.000124405
-3.12065e-05
0.000108732
-0.000156516
8.95696e-05
-0.000267118
6.94988e-05
-0.000360822
4.9101e-05
-0.000437183
2.96218e-05
-0.000496192
1.38303e-05
-0.000530025
-2.88059e-06
-0.000534371
-1.50051e-05
-0.000512157
-3.3955e-05
-0.000505492
-7.61689e-05
-0.000546857
-0.000125183
-0.000831857
-0.000120481
-0.00120933
-0.0011045
1.96363e-05
0.000126867
4.26492e-05
0.000312351
6.12483e-05
0.000416898
8.33612e-05
0.000488358
0.000114012
0.000562765
0.000148092
0.000638333
0.000175053
0.000686891
0.000189174
0.000686731
0.000195045
0.000646307
0.000202759
0.000592628
0.000217001
0.000541857
0.000234345
0.000488399
0.000249168
0.000420094
0.000258352
0.000331142
0.000260274
0.000224422
0.000254411
0.000105172
0.000240479
-1.72746e-05
0.000219922
-0.000135958
0.000194008
-0.000241205
0.000165962
-0.000332777
0.000136287
-0.000407508
0.00010791
-0.000467815
7.85547e-05
-0.00050067
5.16529e-05
-0.000507469
2.54385e-05
-0.000485943
-3.05147e-06
-0.000477002
-4.4559e-05
-0.000505349
-9.51164e-05
-0.0007813
-0.000103556
-0.00120089
-0.00120805
1.96101e-05
0.000107257
4.75568e-05
0.000284404
7.23134e-05
0.000392141
9.9977e-05
0.000460694
0.000137283
0.000525459
0.000181476
0.00059414
0.000221588
0.000646779
0.000248631
0.000659688
0.000263865
0.000631074
0.00027675
0.000579743
0.000294714
0.000523893
0.000317217
0.000465896
0.000338511
0.0003988
0.00035378
0.000315874
0.000360011
0.00021819
0.000356085
0.000109098
0.000341661
-2.85016e-06
0.000318103
-0.000112401
0.000287753
-0.000210855
0.000253877
-0.0002989
0.000217686
-0.000371317
0.000180368
-0.000430497
0.00014027
-0.000460571
0.000101696
-0.000468895
6.27819e-05
-0.000447029
2.74406e-05
-0.000441661
-1.90351e-05
-0.000458874
-7.27716e-05
-0.000727563
-9.22279e-05
-0.00118143
-0.00130028
1.80508e-05
8.9206e-05
4.86977e-05
0.000253757
7.81152e-05
0.000362724
0.000109784
0.000429025
0.000151095
0.000484149
0.00020251
0.000542725
0.000254806
0.000594483
0.000296555
0.000617939
0.000324226
0.000603403
0.000343989
0.000559981
0.00036408
0.000503801
0.000387666
0.00044231
0.000411332
0.000375134
0.000430005
0.000297201
0.000439403
0.000208792
0.000437628
0.000110873
0.000424161
1.06172e-05
0.000400324
-8.8564e-05
0.000368623
-0.000179154
0.000331944
-0.000262222
0.000290862
-0.000330235
0.000245575
-0.00038521
0.000195621
-0.000410617
0.000145441
-0.000418716
9.56142e-05
-0.000397203
5.17469e-05
-0.000397793
2.70211e-06
-0.000409829
-5.69475e-05
-0.000667913
-8.62919e-05
-0.00115209
-0.00138657
1.48657e-05
7.43402e-05
4.48413e-05
0.000223782
7.6689e-05
0.000330876
0.000110908
0.000394806
0.000154231
0.000440826
0.000209903
0.000487053
0.000271858
0.000532528
0.00032853
0.000561267
0.000371854
0.000560079
0.000402823
0.000529012
0.000427572
0.000479051
0.000451284
0.000418598
0.00047402
0.000352398
0.000492649
0.000278572
0.000503129
0.000198312
0.000503026
0.000110976
0.000491364
2.22791e-05
0.000469172
-6.63717e-05
0.000438105
-0.000148087
0.00039975
-0.000223867
0.000354007
-0.000284491
0.000300956
-0.000332158
0.000241705
-0.000351366
0.000181548
-0.000358559
0.000122756
-0.00033841
7.14909e-05
-0.000346528
1.72285e-05
-0.000355567
-4.46281e-05
-0.000606057
-8.22703e-05
-0.00111445
-0.00146884
1.08217e-05
6.35186e-05
3.78858e-05
0.000196717
6.9933e-05
0.000298829
0.000105163
0.000359576
0.000148367
0.000397621
0.000204092
0.000431328
0.000270541
0.00046608
0.000338586
0.000493221
0.000397789
0.000500876
0.000443973
0.000482828
0.000478949
0.000444075
0.000506967
0.00039058
0.000530188
0.000329178
0.000548155
0.000260604
0.000558587
0.000187881
0.0005594
0.000110163
0.000549306
3.23731e-05
0.000528525
-4.55904e-05
0.000497482
-0.000117045
0.000456296
-0.00018268
0.00040492
-0.000233115
0.000343946
-0.000271185
0.000276693
-0.000284113
0.000208333
-0.0002902
0.000143503
-0.00027358
8.61753e-05
-0.0002892
3.10239e-05
-0.000300415
-3.13065e-05
-0.000543726
-7.35551e-05
-0.0010722
-0.0015424
4.36924e-06
5.91493e-05
2.45688e-05
0.000176518
5.3919e-05
0.000269479
8.98277e-05
0.000323667
0.000133327
0.000354122
0.000187942
0.000376713
0.000254534
0.000399487
0.000328191
0.000419564
0.000399334
0.000429734
0.000460832
0.00042133
0.000510037
0.000394869
0.000548084
0.000352533
0.000576782
0.00030048
0.000596965
0.000240421
0.000608122
0.000176724
0.000609099
0.000109186
0.000599026
4.24464e-05
0.000577144
-2.37083e-05
0.000543414
-8.33157e-05
0.000497312
-0.000136578
0.000439763
-0.000175566
0.000372067
-0.000203489
0.000299787
-0.000211833
0.000226212
-0.000216626
0.00015916
-0.000206528
9.63306e-05
-0.000226371
4.48726e-05
-0.000248957
-1.76983e-05
-0.000481156
-6.36057e-05
-0.00102629
-0.001606
-3.45354e-06
6.26029e-05
9.96169e-06
0.000163103
3.41984e-05
0.000245242
6.89711e-05
0.000288894
0.000110833
0.00031226
0.000162599
0.000324947
0.000225938
0.000336148
0.000298411
0.000347091
0.000373946
0.000354199
0.000445196
0.000350081
0.000506765
0.0003333
0.000556661
0.000302637
0.000594509
0.000262632
0.000620758
0.000214172
0.000635243
0.000162239
0.000637615
0.000106814
0.000627355
5.27066e-05
0.000603662
-1.46036e-08
0.000566936
-4.65905e-05
0.000516753
-8.63942e-05
0.000455894
-0.000114707
0.000385624
-0.000133219
0.000313302
-0.000139511
0.000238554
-0.000141878
0.000173506
-0.00014148
0.000105132
-0.000157996
6.10841e-05
-0.00020491
-9.45008e-06
-0.000410621
-6.56297e-05
-0.000970112
-0.00167163
-2.18479e-05
8.44507e-05
-1.99202e-05
0.000161175
6.16449e-07
0.000224705
3.82544e-05
0.000251256
8.1936e-05
0.000268579
0.000135131
0.000271752
0.000195567
0.000275713
0.000264078
0.000278579
0.000337377
0.000280899
0.00041061
0.000276849
0.000477731
0.000266178
0.00053533
0.000245038
0.000580778
0.000217184
0.000613279
0.000181671
0.000632069
0.000143449
0.000636844
0.000102038
0.000627408
6.21425e-05
0.0006037
2.36935e-05
0.000566659
-9.54943e-06
0.000516739
-3.64745e-05
0.00045781
-5.57781e-05
0.000391281
-6.66897e-05
0.000324753
-7.29825e-05
0.000254571
-7.16961e-05
0.000195848
-8.27567e-05
0.000126048
-8.81963e-05
8.85696e-05
-0.000167431
2.30865e-06
-0.00032436
-6.25574e-05
-0.000905246
-0.00173419
-3.69771e-05
0.000121428
-4.38381e-05
0.000168036
-3.18777e-05
0.000212745
2.87065e-06
0.000216508
4.77968e-05
0.000223653
0.000100686
0.000218863
0.000159126
0.000217273
0.000223469
0.000214236
0.000291692
0.000212676
0.000361533
0.000207007
0.00042754
0.000200171
0.000487327
0.000185252
0.00053605
0.000168461
0.000573456
0.000144266
0.000596407
0.000120498
0.000606084
9.2362e-05
0.000600698
6.75277e-05
0.000582387
4.20051e-05
0.000550635
2.22028e-05
0.000509014
5.14582e-06
0.000459417
-6.18114e-06
0.00040444
-1.17119e-05
0.00035059
-1.91331e-05
0.00029233
-1.34358e-05
0.000244933
-3.53602e-05
0.000185657
-2.89199e-05
0.000150151
-0.000131925
8.83823e-05
-0.000262592
2.08227e-05
-0.000837686
-0.00171337
-0.000130467
0.000251895
-0.000107192
0.000144761
-8.54008e-05
0.000190954
-2.77732e-05
0.00015888
2.71705e-05
0.000168709
8.81505e-05
0.000157883
0.000148915
0.000156508
0.000214062
0.000149089
0.000278252
0.000148486
0.000345091
0.000140169
0.000407055
0.000138207
0.00046574
0.000126566
0.000514164
0.000120037
0.000553779
0.00010465
0.000580138
9.41389e-05
0.000594906
7.75939e-05
0.000596662
6.5772e-05
0.000586716
5.19513e-05
0.000567668
4.12506e-05
0.000538942
3.38717e-05
0.000508275
2.44856e-05
0.000470457
2.61062e-05
0.000437685
1.36392e-05
0.000399028
2.52208e-05
0.000367286
-3.61731e-06
0.00033354
4.82576e-06
0.000290388
-8.87734e-05
0.00026951
-0.000241714
0.000175611
-0.000743787
-0.00153776
-3.22434e-05
0.000284138
-5.45688e-05
0.000167086
-1.36986e-05
0.000150084
1.42689e-05
0.000130913
7.22751e-05
0.000110703
0.000130967
9.91906e-05
0.000194259
9.32161e-05
0.000258357
8.49909e-05
0.000324621
8.22223e-05
0.000389121
7.56687e-05
0.000453792
7.35367e-05
0.000512765
6.75929e-05
0.000568432
6.43706e-05
0.000614903
5.81788e-05
0.000655507
5.35352e-05
0.000685515
4.75855e-05
0.000709239
4.20487e-05
0.000723601
3.75884e-05
0.00073309
3.17624e-05
0.000736787
3.01739e-05
0.000737362
2.39105e-05
0.0007376
2.58684e-05
0.000733522
1.77173e-05
0.000737439
2.13038e-05
0.00072381
1.00118e-05
0.000725462
3.17377e-06
0.000671877
-3.51879e-05
0.00062022
-0.000190057
0.000397777
-0.000521344
-0.00113998
0.000284138
0.000451224
0.000601308
0.000732221
0.000842924
0.000942114
0.00103533
0.00112032
0.00120254
0.00127821
0.00135175
0.00141934
0.00148371
0.00154189
0.00159543
0.00164301
0.00168506
0.00172265
0.00175441
0.00178459
0.0018085
0.00183436
0.00185208
0.00187339
0.0018834
0.00188657
0.00185138
0.00166133
0.00113998
)
;

boundaryField
{
    movingWall
    {
        type            calculated;
        value           uniform 0;
    }
    fixedWalls
    {
        type            calculated;
        value           uniform 0;
    }
    frontAndBack
    {
        type            empty;
    }
}


// ************************************************************************* //
