/*--------------------------------*- C++ -*----------------------------------*\
| =========                 |                                                 |
| \\      /  F ield         | OpenFOAM: The Open Source CFD Toolbox           |
|  \\    /   O peration     | Version:  2406                                  |
|   \\  /    A nd           | Website:  www.openfoam.com                      |
|    \\/     M anipulation  |                                                 |
\*---------------------------------------------------------------------------*/
FoamFile
{
    version     2.0;
    format      ascii;
    arch        "LSB;label=32;scalar=64";
    class       volVectorField;
    location    "17.2";
    object      U;
}
// * * * * * * * * * * * * * * * * * * * * * * * * * * * * * * * * * * * * * //

dimensions      [0 1 -1 0 0 0 0];

internalField   nonuniform List<vector> 
900
(
(0.000155768 -0.000164126 0)
(0.000501367 -0.000124824 0)
(0.000560031 -6.15405e-05 0)
(0.00037433 -7.82999e-06 0)
(-6.51558e-05 5.6175e-05 0)
(-0.000851001 0.000144054 0)
(-0.00212617 0.000265948 0)
(-0.0040961 0.000428561 0)
(-0.00704231 0.000636888 0)
(-0.0113073 0.000909509 0)
(-0.0172118 0.00130207 0)
(-0.0248926 0.00186644 0)
(-0.034072 0.00253758 0)
(-0.0438367 0.00307382 0)
(-0.0526054 0.00307064 0)
(-0.05857 0.00223854 0)
(-0.060126 0.000550345 0)
(-0.0562149 -0.0016893 0)
(-0.0465791 -0.00395768 0)
(-0.0318973 -0.00573732 0)
(-0.0141302 -0.00644211 0)
(0.00373964 -0.00563589 0)
(0.018172 -0.00332751 0)
(0.0262211 -0.000328607 0)
(0.0268722 0.00185237 0)
(0.0219965 0.00248882 0)
(0.0151345 0.00212266 0)
(0.00878518 0.00155578 0)
(0.00399146 0.00102897 0)
(0.00068483 0.000615549 0)
(2.01641e-05 -0.000412991 0)
(-0.000380713 -5.13243e-05 0)
(-0.0014715 0.000522667 0)
(-0.00322539 0.00105271 0)
(-0.00571923 0.00172213 0)
(-0.00928568 0.0026674 0)
(-0.0143882 0.00401043 0)
(-0.0216418 0.00588964 0)
(-0.0317166 0.0084179 0)
(-0.0450763 0.0115299 0)
(-0.061557 0.0148049 0)
(-0.0799489 0.0174023 0)
(-0.09805 0.0182487 0)
(-0.113517 0.0165287 0)
(-0.124538 0.0120398 0)
(-0.129967 0.00516948 0)
(-0.129089 -0.00333342 0)
(-0.121498 -0.0125423 0)
(-0.107273 -0.0213512 0)
(-0.0869584 -0.0283394 0)
(-0.0618173 -0.0318244 0)
(-0.034092 -0.0302387 0)
(-0.00724163 -0.0229461 0)
(0.0143804 -0.0113264 0)
(0.0268371 0.000638447 0)
(0.0290752 0.00852716 0)
(0.0240842 0.011159 0)
(0.0158874 0.0102981 0)
(0.00787203 0.00792106 0)
(0.00122775 0.00411088 0)
(-0.000258644 0.000140197 0)
(-0.00219627 0.00151856 0)
(-0.0050972 0.00292402 0)
(-0.00906289 0.00431008 0)
(-0.0142648 0.00618247 0)
(-0.0213937 0.0088889 0)
(-0.0312772 0.012726 0)
(-0.0448218 0.0178744 0)
(-0.0626159 0.0241326 0)
(-0.0843643 0.0306485 0)
(-0.10847 0.0358915 0)
(-0.132312 0.0381017 0)
(-0.153376 0.0361984 0)
(-0.170122 0.030128 0)
(-0.181726 0.0204344 0)
(-0.187801 0.00795716 0)
(-0.188191 -0.00637578 0)
(-0.182711 -0.02167 0)
(-0.170995 -0.0367566 0)
(-0.152698 -0.0498509 0)
(-0.127738 -0.0585302 0)
(-0.0968591 -0.0599777 0)
(-0.062318 -0.0520545 0)
(-0.0284727 -0.0350371 0)
(-0.00143655 -0.0134526 0)
(0.0135139 0.00471686 0)
(0.0171564 0.0145783 0)
(0.0137037 0.0171568 0)
(0.00758567 0.0151965 0)
(0.00120707 0.00850096 0)
(-0.00064416 0.00179356 0)
(-0.00447276 0.0049606 0)
(-0.00946196 0.00749789 0)
(-0.0159344 0.0101707 0)
(-0.0241929 0.0139975 0)
(-0.0353625 0.0196 0)
(-0.0505927 0.0273631 0)
(-0.0708195 0.0371706 0)
(-0.0959691 0.0479275 0)
(-0.124268 0.0573039 0)
(-0.152441 0.0624428 0)
(-0.177416 0.0616706 0)
(-0.197583 0.0551144 0)
(-0.212463 0.0437445 0)
(-0.222258 0.0287323 0)
(-0.227498 0.0110749 0)
(-0.228705 -0.00854241 0)
(-0.226118 -0.0294199 0)
(-0.219302 -0.050566 0)
(-0.207192 -0.0703426 0)
(-0.188275 -0.0860865 0)
(-0.161101 -0.0940732 0)
(-0.125312 -0.0901908 0)
(-0.0832752 -0.0719738 0)
(-0.0414661 -0.0419257 0)
(-0.0102017 -0.0103015 0)
(0.00430344 0.0110117 0)
(0.00720184 0.0201185 0)
(0.00486399 0.0205521 0)
(0.000747542 0.0120945 0)
(-0.0010846 0.00478523 0)
(-0.00691874 0.0104865 0)
(-0.014032 0.0144137 0)
(-0.0230828 0.0188226 0)
(-0.0345767 0.0254353 0)
(-0.0501129 0.0351503 0)
(-0.0709809 0.0481867 0)
(-0.0975439 0.0634014 0)
(-0.127964 0.0776556 0)
(-0.158285 0.0867617 0)
(-0.184476 0.0880645 0)
(-0.204485 0.0816993 0)
(-0.21816 0.0693541 0)
(-0.226429 0.0529321 0)
(-0.230788 0.0339831 0)
(-0.232723 0.0133282 0)
(-0.233391 -0.00874257 0)
(-0.233332 -0.0321079 0)
(-0.232391 -0.0565511 0)
(-0.229477 -0.0813514 0)
(-0.222298 -0.104552 0)
(-0.207467 -0.122351 0)
(-0.18127 -0.12899 0)
(-0.141708 -0.118186 0)
(-0.0916301 -0.0869322 0)
(-0.0418056 -0.041896 0)
(-0.00952572 -0.00244307 0)
(0.000844346 0.017947 0)
(0.00226066 0.0226777 0)
(0.000415039 0.0141587 0)
(-0.00152923 0.00915884 0)
(-0.00927599 0.0180454 0)
(-0.0183857 0.0236316 0)
(-0.0299491 0.030335 0)
(-0.0447273 0.0407328 0)
(-0.0646308 0.0557979 0)
(-0.0904217 0.0747317 0)
(-0.120734 0.0940081 0)
(-0.151322 0.108038 0)
(-0.177082 0.112449 0)
(-0.195135 0.106831 0)
(-0.205522 0.0936569 0)
(-0.209771 0.0758331 0)
(-0.210052 0.0557337 0)
(-0.208449 0.0347651 0)
(-0.206578 0.0134723 0)
(-0.205525 -0.00810958 0)
(-0.205958 -0.0304238 0)
(-0.208385 -0.0542052 0)
(-0.21261 -0.0800319 0)
(-0.217147 -0.107567 0)
(-0.218369 -0.134434 0)
(-0.210595 -0.155142 0)
(-0.187297 -0.160876 0)
(-0.144616 -0.141774 0)
(-0.0864428 -0.0939935 0)
(-0.0302132 -0.0318512 0)
(-0.0040933 0.00948026 0)
(0.000740559 0.0224139 0)
(0.000407767 0.0153072 0)
(-0.00191997 0.0148088 0)
(-0.0113084 0.0274283 0)
(-0.0221567 0.0349774 0)
(-0.0360049 0.0446258 0)
(-0.0537414 0.0597432 0)
(-0.0770388 0.0806386 0)
(-0.105247 0.1042 0)
(-0.134833 0.12394 0)
(-0.160134 0.133204 0)
(-0.176969 0.129681 0)
(-0.185004 0.116081 0)
(-0.186481 0.0967161 0)
(-0.18423 0.0750676 0)
(-0.180696 0.0532466 0)
(-0.17716 0.0319488 0)
(-0.174151 0.0113181 0)
(-0.171864 -0.00876346 0)
(-0.170796 -0.0287357 0)
(-0.171866 -0.0494014 0)
(-0.176112 -0.0720029 0)
(-0.184176 -0.0979193 0)
(-0.194818 -0.127614 0)
(-0.203573 -0.15861 0)
(-0.202209 -0.183265 0)
(-0.181116 -0.188023 0)
(-0.134426 -0.1575 0)
(-0.0682264 -0.08797 0)
(-0.0117395 -0.0118521 0)
(0.00024808 0.0206833 0)
(0.000242971 0.0161728 0)
(-0.0021982 0.0214805 0)
(-0.0127997 0.0382991 0)
(-0.0249858 0.0481337 0)
(-0.0405921 0.06128 0)
(-0.0602988 0.0814709 0)
(-0.084964 0.107305 0)
(-0.112296 0.132626 0)
(-0.137356 0.148779 0)
(-0.154765 0.150101 0)
(-0.162801 0.137779 0)
(-0.163949 0.11751 0)
(-0.161944 0.0945236 0)
(-0.159681 0.0717945 0)
(-0.158385 0.0501427 0)
(-0.157667 0.0291831 0)
(-0.156713 0.00865191 0)
(-0.154881 -0.0114886 0)
(-0.152277 -0.0310128 0)
(-0.149684 -0.0498789 0)
(-0.148706 -0.0687784 0)
(-0.15151 -0.0894937 0)
(-0.159916 -0.114672 0)
(-0.173282 -0.146044 0)
(-0.186089 -0.181031 0)
(-0.18761 -0.208809 0)
(-0.165277 -0.208916 0)
(-0.11195 -0.158238 0)
(-0.0363922 -0.0585737 0)
(0.000406517 0.0134373 0)
(-0.000910504 0.0173887 0)
(-0.00230608 0.028777 0)
(-0.0135399 0.0501637 0)
(-0.0264896 0.062525 0)
(-0.0429785 0.0793504 0)
(-0.0631735 0.104115 0)
(-0.086963 0.132971 0)
(-0.110919 0.156929 0)
(-0.129888 0.166682 0)
(-0.140095 0.15926 0)
(-0.142717 0.139846 0)
(-0.14224 0.116285 0)
(-0.142438 0.0933339 0)
(-0.144753 0.0720785 0)
(-0.148392 0.0514 0)
(-0.151619 0.0301726 0)
(-0.153092 0.00828601 0)
(-0.152048 -0.013712 0)
(-0.148505 -0.0348131 0)
(-0.143055 -0.0542272 0)
(-0.1371 -0.0717645 0)
(-0.132889 -0.0885436 0)
(-0.13349 -0.107414 0)
(-0.141458 -0.132586 0)
(-0.155999 -0.16679 0)
(-0.16997 -0.205955 0)
(-0.169542 -0.233728 0)
(-0.140812 -0.219194 0)
(-0.0765618 -0.134506 0)
(-0.00441865 -0.0104989 0)
(-0.000105064 0.0198133 0)
(-0.00220885 0.0361942 0)
(-0.0133906 0.0624252 0)
(-0.0264036 0.0773962 0)
(-0.0427098 0.097611 0)
(-0.0618684 0.125815 0)
(-0.0830681 0.155589 0)
(-0.102551 0.175952 0)
(-0.115907 0.178417 0)
(-0.121455 0.163639 0)
(-0.122725 0.140481 0)
(-0.124728 0.117429 0)
(-0.129754 0.0970128 0)
(-0.137139 0.0776182 0)
(-0.144707 0.0568538 0)
(-0.150541 0.0338552 0)
(-0.153536 0.00918027 0)
(-0.153164 -0.0159211 0)
(-0.149464 -0.0398657 0)
(-0.14277 -0.0613015 0)
(-0.133985 -0.0792851 0)
(-0.124754 -0.0940095 0)
(-0.117991 -0.107562 0)
(-0.117512 -0.124754 0)
(-0.126163 -0.151962 0)
(-0.14256 -0.191676 0)
(-0.155314 -0.23547 0)
(-0.148695 -0.25471 0)
(-0.104714 -0.20444 0)
(-0.0272081 -0.0603763 0)
(0.00794372 0.0200722 0)
(-0.00188479 0.0431445 0)
(-0.0122704 0.074361 0)
(-0.0245983 0.0918203 0)
(-0.0396808 0.114757 0)
(-0.0566061 0.145072 0)
(-0.0743388 0.174164 0)
(-0.0894375 0.190032 0)
(-0.0986921 0.185975 0)
(-0.102313 0.166461 0)
(-0.105022 0.143005 0)
(-0.110904 0.122903 0)
(-0.120152 0.105378 0)
(-0.130656 0.0867215 0)
(-0.140073 0.0645462 0)
(-0.146998 0.0388233 0)
(-0.150708 0.01077 0)
(-0.150942 -0.0178756 0)
(-0.147775 -0.0452263 0)
(-0.141405 -0.069624 0)
(-0.13229 -0.0896675 0)
(-0.121281 -0.104671 0)
(-0.110259 -0.115359 0)
(-0.102593 -0.125265 0)
(-0.102293 -0.142267 0)
(-0.114184 -0.174731 0)
(-0.1318 -0.223958 0)
(-0.140833 -0.268044 0)
(-0.115694 -0.258231 0)
(-0.060809 -0.138149 0)
(0.0136914 0.0106357 0)
(-0.00135355 0.0490675 0)
(-0.0102476 0.0852995 0)
(-0.0212268 0.105007 0)
(-0.0342636 0.129818 0)
(-0.0482068 0.161083 0)
(-0.0621861 0.188665 0)
(-0.0735222 0.200319 0)
(-0.0802568 0.191508 0)
(-0.0837855 0.169996 0)
(-0.0887622 0.148531 0)
(-0.0976123 0.13196 0)
(-0.108917 0.116396 0)
(-0.120245 0.0973048 0)
(-0.129805 0.0730615 0)
(-0.136727 0.0444194 0)
(-0.140565 0.013079 0)
(-0.141212 -0.0188835 0)
(-0.138781 -0.0494091 0)
(-0.133479 -0.0767272 0)
(-0.125576 -0.0993345 0)
(-0.115423 -0.116094 0)
(-0.103787 -0.126746 0)
(-0.0932229 -0.132794 0)
(-0.0860273 -0.141003 0)
(-0.0909142 -0.161843 0)
(-0.105719 -0.206134 0)
(-0.123317 -0.263155 0)
(-0.114005 -0.290394 0)
(-0.082317 -0.210021 0)
(0.00633786 -0.0141625 0)
(-0.000658865 0.0534589 0)
(-0.00745198 0.0945482 0)
(-0.0165475 0.1162 0)
(-0.0269678 0.142067 0)
(-0.0375363 0.173455 0)
(-0.0478404 0.199408 0)
(-0.0561328 0.207906 0)
(-0.0614475 0.19634 0)
(-0.0655602 0.174829 0)
(-0.072146 0.156167 0)
(-0.0820629 0.142503 0)
(-0.0932815 0.127801 0)
(-0.10384 0.107617 0)
(-0.112621 0.0811733 0)
(-0.119084 0.0497614 0)
(-0.12289 0.0154218 0)
(-0.123934 -0.0195246 0)
(-0.122333 -0.0528276 0)
(-0.118353 -0.0826344 0)
(-0.112223 -0.107554 0)
(-0.104187 -0.126262 0)
(-0.093821 -0.138066 0)
(-0.0837923 -0.142808 0)
(-0.0733602 -0.145555 0)
(-0.073153 -0.155611 0)
(-0.0815801 -0.189715 0)
(-0.102035 -0.249117 0)
(-0.104452 -0.304197 0)
(-0.0922079 -0.264282 0)
(-0.00877349 -0.0574037 0)
(0.000106977 0.0559847 0)
(-0.00415333 0.101649 0)
(-0.0109996 0.125015 0)
(-0.0185051 0.151198 0)
(-0.0255829 0.182176 0)
(-0.0323132 0.206866 0)
(-0.0379764 0.213582 0)
(-0.0423243 0.201046 0)
(-0.0468013 0.180604 0)
(-0.0536769 0.164441 0)
(-0.0628471 0.152671 0)
(-0.0724995 0.138129 0)
(-0.0813847 0.116765 0)
(-0.0889145 0.0884497 0)
(-0.0946952 0.0547834 0)
(-0.098403 0.0179879 0)
(-0.0998481 -0.0194586 0)
(-0.099132 -0.0550596 0)
(-0.0966153 -0.0867879 0)
(-0.0924152 -0.113543 0)
(-0.0872993 -0.13406 0)
(-0.0792159 -0.147643 0)
(-0.0720239 -0.152768 0)
(-0.0612593 -0.1529 0)
(-0.0590469 -0.154372 0)
(-0.0605976 -0.176543 0)
(-0.0804345 -0.230723 0)
(-0.0883967 -0.304985 0)
(-0.0902489 -0.306296 0)
(-0.0179689 -0.117771 0)
(0.000846969 0.0564655 0)
(-0.000606272 0.106157 0)
(-0.0049644 0.131052 0)
(-0.0094463 0.157015 0)
(-0.0130273 0.187261 0)
(-0.0162897 0.211237 0)
(-0.0194719 0.217564 0)
(-0.022808 0.205389 0)
(-0.027048 0.186258 0)
(-0.0329929 0.171728 0)
(-0.0401096 0.160937 0)
(-0.0472436 0.146322 0)
(-0.0538599 0.124125 0)
(-0.0597446 0.0945543 0)
(-0.0645831 0.059309 0)
(-0.0680771 0.0206789 0)
(-0.0699956 -0.0187191 0)
(-0.0703019 -0.0561762 0)
(-0.0695488 -0.0892343 0)
(-0.0671799 -0.117117 0)
(-0.0653291 -0.138777 0)
(-0.0597737 -0.153978 0)
(-0.0566366 -0.160194 0)
(-0.0473458 -0.159945 0)
(-0.0464826 -0.156294 0)
(-0.0432086 -0.168665 0)
(-0.0614843 -0.213111 0)
(-0.0701514 -0.296658 0)
(-0.0813755 -0.332184 0)
(-0.018318 -0.176559 0)
(0.00143398 0.0549178 0)
(0.00283022 0.107981 0)
(0.00107668 0.13437 0)
(-0.000461102 0.159613 0)
(-0.000706968 0.18884 0)
(-0.000457661 0.212653 0)
(-0.000959175 0.219761 0)
(-0.00289889 0.208928 0)
(-0.00621688 0.191032 0)
(-0.0103777 0.17715 0)
(-0.0146855 0.16656 0)
(-0.0187583 0.15189 0)
(-0.0226733 0.129371 0)
(-0.0265211 0.0992391 0)
(-0.0300854 0.0631836 0)
(-0.0331446 0.0234933 0)
(-0.0356103 -0.017046 0)
(-0.0369946 -0.0557573 0)
(-0.0385485 -0.0896752 0)
(-0.0381269 -0.118187 0)
(-0.0398893 -0.140573 0)
(-0.0368679 -0.157023 0)
(-0.0383781 -0.164421 0)
(-0.0311434 -0.164689 0)
(-0.0338111 -0.157991 0)
(-0.027983 -0.163417 0)
(-0.0452636 -0.197169 0)
(-0.0518762 -0.285275 0)
(-0.070595 -0.350023 0)
(-0.0157653 -0.229456 0)
(0.00182505 0.051525 0)
(0.00591532 0.106964 0)
(0.00675938 0.134816 0)
(0.00802465 0.159079 0)
(0.010957 0.186981 0)
(0.0146051 0.210916 0)
(0.017037 0.219692 0)
(0.0170957 0.210977 0)
(0.0152722 0.194173 0)
(0.0131752 0.180053 0)
(0.0118401 0.168951 0)
(0.0110874 0.154254 0)
(0.0102137 0.131954 0)
(0.00878521 0.102012 0)
(0.00680799 0.0660375 0)
(0.00453833 0.0262172 0)
(0.00146281 -0.0145337 0)
(-0.000864936 -0.0534365 0)
(-0.00500765 -0.0876951 0)
(-0.00671317 -0.116253 0)
(-0.0122742 -0.139079 0)
(-0.0116218 -0.156292 0)
(-0.0181485 -0.164936 0)
(-0.0130807 -0.166082 0)
(-0.0208224 -0.158448 0)
(-0.0143503 -0.159726 0)
(-0.0323386 -0.183202 0)
(-0.0357721 -0.271057 0)
(-0.0604386 -0.358511 0)
(-0.0120238 -0.274965 0)
(0.0019758 0.0467491 0)
(0.00834346 0.103423 0)
(0.0116194 0.132791 0)
(0.0153942 0.155864 0)
(0.0211561 0.181895 0)
(0.0281547 0.2058 0)
(0.0338918 0.216911 0)
(0.0366392 0.211129 0)
(0.0368857 0.195603 0)
(0.0368401 0.180607 0)
(0.0381228 0.16828 0)
(0.0404901 0.153436 0)
(0.0427017 0.131781 0)
(0.0439022 0.102731 0)
(0.0436643 0.0677257 0)
(0.0424219 0.0287884 0)
(0.0388576 -0.0112448 0)
(0.0356878 -0.0494331 0)
(0.028872 -0.0832325 0)
(0.0251098 -0.11157 0)
(0.0157783 -0.134533 0)
(0.0142975 -0.152171 0)
(0.00287655 -0.161876 0)
(0.00590511 -0.163251 0)
(-0.00772269 -0.156039 0)
(-0.00113729 -0.154769 0)
(-0.0219627 -0.170533 0)
(-0.022033 -0.257322 0)
(-0.0524056 -0.362819 0)
(-0.00821333 -0.313543 0)
(0.00191932 0.0410556 0)
(0.00997451 0.0974243 0)
(0.0155016 0.128183 0)
(0.0214125 0.150215 0)
(0.0294932 0.173913 0)
(0.0395595 0.197185 0)
(0.0488564 0.210672 0)
(0.0548982 0.208532 0)
(0.057706 0.194948 0)
(0.0595718 0.17902 0)
(0.0627916 0.164843 0)
(0.0676032 0.149421 0)
(0.0724988 0.128621 0)
(0.0763102 0.101063 0)
(0.0777071 0.0678793 0)
(0.0778212 0.030823 0)
(0.0738154 -0.00725896 0)
(0.0701844 -0.043916 0)
(0.0609928 -0.0763598 0)
(0.0555695 -0.104192 0)
(0.0430206 -0.12692 0)
(0.0395959 -0.144907 0)
(0.0238084 -0.155016 0)
(0.0247879 -0.156866 0)
(0.00470972 -0.150281 0)
(0.0115532 -0.147811 0)
(-0.0145011 -0.158016 0)
(-0.0105966 -0.242018 0)
(-0.0465788 -0.361623 0)
(-0.00441513 -0.347257 0)
(0.00167491 0.035115 0)
(0.0106035 0.0897828 0)
(0.017931 0.121744 0)
(0.0255825 0.142701 0)
(0.0353212 0.16363 0)
(0.0479573 0.185415 0)
(0.0609006 0.200708 0)
(0.0709229 0.202574 0)
(0.0770601 0.192013 0)
(0.0810372 0.176007 0)
(0.0855253 0.159903 0)
(0.0917093 0.143265 0)
(0.0982565 0.12309 0)
(0.104259 0.0973771 0)
(0.106877 0.0666969 0)
(0.1084 0.0323722 0)
(0.104085 -0.00292376 0)
(0.100477 -0.0372084 0)
(0.0894713 -0.0678499 0)
(0.0832663 -0.0948746 0)
(0.0680259 -0.11703 0)
(0.0633124 -0.135055 0)
(0.0433558 -0.144613 0)
(0.0425587 -0.146954 0)
(0.0163381 -0.140446 0)
(0.0235463 -0.138252 0)
(-0.00942401 -0.144933 0)
(-0.000863082 -0.226741 0)
(-0.0434916 -0.358177 0)
(-0.000829276 -0.37739 0)
(0.00135784 0.0293573 0)
(0.0103301 0.0807298 0)
(0.0190257 0.113354 0)
(0.0279623 0.133701 0)
(0.0387687 0.15171 0)
(0.0529787 0.170908 0)
(0.0689775 0.186744 0)
(0.0831964 0.192285 0)
(0.0934637 0.18569 0)
(0.100338 0.171187 0)
(0.106049 0.154085 0)
(0.11278 0.136034 0)
(0.11957 0.115939 0)
(0.126848 0.091916 0)
(0.130038 0.0640724 0)
(0.132869 0.0330423 0)
(0.128466 0.00121274 0)
(0.125552 -0.0301314 0)
(0.113584 -0.0585221 0)
(0.107637 -0.0842356 0)
(0.0903269 -0.10538 0)
(0.0848217 -0.122615 0)
(0.0607598 -0.131078 0)
(0.0585278 -0.133607 0)
(0.0262389 -0.127152 0)
(0.0342259 -0.126328 0)
(-0.00631366 -0.130531 0)
(0.00772566 -0.209125 0)
(-0.0430661 -0.350521 0)
(0.00282798 -0.404172 0)
(0.000931441 0.0244324 0)
(0.00903469 0.0716998 0)
(0.0181955 0.10428 0)
(0.0280031 0.123737 0)
(0.0393514 0.138924 0)
(0.054356 0.15476 0)
(0.0724527 0.169564 0)
(0.0905533 0.177616 0)
(0.105527 0.175317 0)
(0.116569 0.163969 0)
(0.124493 0.147725 0)
(0.132111 0.129125 0)
(0.138326 0.108962 0)
(0.14586 0.0861835 0)
(0.148729 0.0609447 0)
(0.152506 0.0332316 0)
(0.148056 0.00499494 0)
(0.146322 -0.0232017 0)
(0.133977 -0.0490669 0)
(0.128855 -0.0729709 0)
(0.109558 -0.0923729 0)
(0.103448 -0.107919 0)
(0.0751044 -0.114686 0)
(0.0721258 -0.117035 0)
(0.0339637 -0.110731 0)
(0.0435836 -0.112004 0)
(-0.00438638 -0.115035 0)
(0.0162069 -0.191409 0)
(-0.0443978 -0.340271 0)
(0.00746786 -0.426907 0)
(0.000540664 0.020397 0)
(0.00706529 0.0627319 0)
(0.016174 0.0942797 0)
(0.0261313 0.113286 0)
(0.0376811 0.125832 0)
(0.0524466 0.137784 0)
(0.0711292 0.14994 0)
(0.0917255 0.15859 0)
(0.110894 0.159793 0)
(0.12691 0.152489 0)
(0.138448 0.139025 0)
(0.148573 0.121662 0)
(0.154993 0.102258 0)
(0.162867 0.0807461 0)
(0.165093 0.0577639 0)
(0.169527 0.0330426 0)
(0.164877 0.0081364 0)
(0.164292 -0.0168507 0)
(0.151478 -0.0398288 0)
(0.146901 -0.0611024 0)
(0.125221 -0.0778463 0)
(0.118408 -0.0907897 0)
(0.0857271 -0.0956359 0)
(0.0829291 -0.0976802 0)
(0.038903 -0.0920956 0)
(0.0518519 -0.0957629 0)
(-0.00421777 -0.0982863 0)
(0.0255305 -0.172345 0)
(-0.0456126 -0.326796 0)
(0.0140755 -0.448614 0)
(-0.000172078 0.0182946 0)
(0.00387884 0.0559172 0)
(0.0115494 0.0853238 0)
(0.0215113 0.102438 0)
(0.0331006 0.112885 0)
(0.047808 0.121343 0)
(0.0660972 0.129971 0)
(0.0875927 0.137207 0)
(0.109344 0.140131 0)
(0.129874 0.136374 0)
(0.145614 0.126688 0)
(0.159834 0.112242 0)
(0.16813 0.0950777 0)
(0.177533 0.0756142 0)
(0.179668 0.0550308 0)
(0.184717 0.0331533 0)
(0.179529 0.0113835 0)
(0.179464 -0.0103044 0)
(0.16539 -0.0300281 0)
(0.160582 -0.0479646 0)
(0.136045 -0.0614726 0)
(0.128736 -0.0714243 0)
(0.0921515 -0.0745942 0)
(0.0908807 -0.0762618 0)
(0.0413113 -0.0721592 0)
(0.0595283 -0.0776884 0)
(-0.00602979 -0.082398 0)
(0.0367169 -0.154322 0)
(-0.0480612 -0.314341 0)
(0.0220762 -0.474269 0)
(-0.00100828 0.017482 0)
(0.000124633 0.0502792 0)
(0.0065724 0.0766663 0)
(0.015077 0.0920282 0)
(0.0267342 0.0998596 0)
(0.0406573 0.10505 0)
(0.0579302 0.110129 0)
(0.07872 0.114791 0)
(0.100746 0.117526 0)
(0.12381 0.115867 0)
(0.142618 0.109549 0)
(0.160962 0.0987125 0)
(0.172071 0.0848859 0)
(0.184153 0.0685559 0)
(0.187243 0.0510888 0)
(0.193443 0.0325409 0)
(0.18789 0.0142907 0)
(0.188167 -0.00366483 0)
(0.172597 -0.0196058 0)
(0.167644 -0.0336133 0)
(0.140697 -0.0436611 0)
(0.134118 -0.0506172 0)
(0.094838 -0.0526706 0)
(0.0967598 -0.0537906 0)
(0.0424429 -0.0520927 0)
(0.0675124 -0.0577636 0)
(-0.00892227 -0.0679138 0)
(0.0501264 -0.134113 0)
(-0.0558891 -0.301825 0)
(0.0303772 -0.499864 0)
(-0.00394596 0.0218217 0)
(-0.0072176 0.0485501 0)
(-0.00374453 0.0707492 0)
(0.00536543 0.0808331 0)
(0.0177473 0.087469 0)
(0.0324933 0.0899175 0)
(0.0491288 0.0919951 0)
(0.0691272 0.0939403 0)
(0.089839 0.0952843 0)
(0.113137 0.0940968 0)
(0.132866 0.0900723 0)
(0.153587 0.082377 0)
(0.166744 0.0722761 0)
(0.181324 0.0596603 0)
(0.18556 0.0461401 0)
(0.193304 0.0315319 0)
(0.187552 0.0174221 0)
(0.188736 0.00362746 0)
(0.172072 -0.008223 0)
(0.168313 -0.018313 0)
(0.14005 -0.0253191 0)
(0.136366 -0.0297341 0)
(0.0958639 -0.0315294 0)
(0.102952 -0.0317506 0)
(0.0454647 -0.0332988 0)
(0.078274 -0.0366778 0)
(-0.00782724 -0.055387 0)
(0.0666518 -0.110102 0)
(-0.0644429 -0.282534 0)
(0.0433076 -0.508155 0)
(-0.00419035 0.0289501 0)
(-0.0150457 0.0490023 0)
(-0.010806 0.064831 0)
(-0.00584989 0.0706156 0)
(0.00831287 0.0734684 0)
(0.0216508 0.0732433 0)
(0.0387709 0.0736369 0)
(0.0575792 0.073535 0)
(0.0768102 0.0736303 0)
(0.0988835 0.0721968 0)
(0.117729 0.0695728 0)
(0.138995 0.0643026 0)
(0.152528 0.0575911 0)
(0.169037 0.0488027 0)
(0.173817 0.0394321 0)
(0.183991 0.0291882 0)
(0.178242 0.0193798 0)
(0.182442 0.0100316 0)
(0.165362 0.00193595 0)
(0.166019 -0.00437314 0)
(0.137447 -0.00928224 0)
(0.140465 -0.0113042 0)
(0.0994199 -0.0137399 0)
(0.115163 -0.0123843 0)
(0.0555033 -0.0177226 0)
(0.0982618 -0.0173012 0)
(0.00613604 -0.0445415 0)
(0.0927544 -0.0837239 0)
(-0.0503462 -0.252107 0)
(0.0707914 -0.499869 0)
(-0.030466 0.0518712 0)
(-0.0356364 0.0491328 0)
(-0.0298621 0.0622392 0)
(-0.0173712 0.0568827 0)
(6.70605e-05 0.0604404 0)
(0.0171724 0.0577038 0)
(0.0350631 0.0567672 0)
(0.0551853 0.0552024 0)
(0.0729604 0.0544023 0)
(0.0947783 0.0523105 0)
(0.111636 0.0507578 0)
(0.133202 0.0467903 0)
(0.145102 0.0432801 0)
(0.163805 0.0373291 0)
(0.166987 0.0323854 0)
(0.181532 0.0255736 0)
(0.173773 0.0205416 0)
(0.184945 0.0143659 0)
(0.165397 0.0105269 0)
(0.176543 0.00630056 0)
(0.14495 0.0041917 0)
(0.162454 0.00269087 0)
(0.116955 0.000972551 0)
(0.150153 0.00252891 0)
(0.0837906 -0.00411428 0)
(0.14469 -0.00251186 0)
(0.0449205 -0.034333 0)
(0.142068 -0.0768272 0)
(-0.000875847 -0.241753 0)
(0.115954 -0.506344 0)
(0.0168568 0.0872676 0)
(-0.0320058 0.0401446 0)
(-0.000624808 0.0491831 0)
(-0.00684161 0.0407615 0)
(0.0163502 0.0392066 0)
(0.0285894 0.0362311 0)
(0.0490816 0.0361836 0)
(0.0684843 0.0336388 0)
(0.0859313 0.0340926 0)
(0.109655 0.0314994 0)
(0.1229 0.0317058 0)
(0.150269 0.0287879 0)
(0.155977 0.0279868 0)
(0.186056 0.0246209 0)
(0.181034 0.0227708 0)
(0.21354 0.0194996 0)
(0.195489 0.0169593 0)
(0.231983 0.0146797 0)
(0.199314 0.0117268 0)
(0.243613 0.0114097 0)
(0.19457 0.00777206 0)
(0.252707 0.0101499 0)
(0.184088 0.00466014 0)
(0.263653 0.00962746 0)
(0.169456 0.000299848 0)
(0.276237 0.00307606 0)
(0.142841 -0.0214807 0)
(0.271082 -0.0746826 0)
(0.0705543 -0.223027 0)
(0.179046 -0.460385 0)
(0.074608 0.0606654 0)
(0.100176 0.0491209 0)
(0.157446 0.0358201 0)
(0.208501 0.0309991 0)
(0.22739 0.0254146 0)
(0.278564 0.021945 0)
(0.28455 0.0189439 0)
(0.337723 0.0170628 0)
(0.332599 0.0150991 0)
(0.390185 0.0140588 0)
(0.374633 0.0125589 0)
(0.438052 0.0119426 0)
(0.411067 0.0106676 0)
(0.481133 0.0101729 0)
(0.441046 0.00903797 0)
(0.518688 0.00849893 0)
(0.463615 0.00756751 0)
(0.550623 0.00687959 0)
(0.478793 0.00633416 0)
(0.578027 0.00535936 0)
(0.487675 0.00549088 0)
(0.602771 0.00390652 0)
(0.491731 0.00509644 0)
(0.626569 0.00212295 0)
(0.4915 0.00488476 0)
(0.647317 -0.00119454 0)
(0.472116 0.00234436 0)
(0.619087 -0.0182218 0)
(0.310559 -0.034245 0)
(0.395622 -0.0972432 0)
)
;

boundaryField
{
    movingWall
    {
        type            fixedValue;
        value           uniform (1 0 0);
    }
    fixedWalls
    {
        type            noSlip;
    }
    frontAndBack
    {
        type            empty;
    }
}


// ************************************************************************* //
