/*--------------------------------*- C++ -*----------------------------------*\
| =========                 |                                                 |
| \\      /  F ield         | OpenFOAM: The Open Source CFD Toolbox           |
|  \\    /   O peration     | Version:  2406                                  |
|   \\  /    A nd           | Website:  www.openfoam.com                      |
|    \\/     M anipulation  |                                                 |
\*---------------------------------------------------------------------------*/
FoamFile
{
    version     2.0;
    format      ascii;
    arch        "LSB;label=32;scalar=64";
    class       volScalarField;
    location    "21.2";
    object      p;
}
// * * * * * * * * * * * * * * * * * * * * * * * * * * * * * * * * * * * * * //

dimensions      [0 2 -2 0 0 0 0];

internalField   nonuniform List<scalar> 
3600
(
-2.37149e-08
1.03772e-06
-3.00415e-06
-1.46964e-05
-3.27517e-05
-5.59536e-05
-8.31925e-05
-0.000113478
-0.000145957
-0.000179997
-0.000215081
-0.000250867
-0.000287205
-0.000324117
-0.000361708
-0.000400023
-0.000438857
-0.000477552
-0.00051479
-0.000548442
-0.000575452
-0.000591814
-0.000592663
-0.000572504
-0.000525631
-0.000446732
-0.000331696
-0.000178543
1.17544e-05
0.000234444
0.00047968
0.000732915
0.000976075
0.00118764
0.0013449
0.00142643
0.00141495
0.00129995
0.0010797
0.000762106
0.000363985
-9.10562e-05
-0.000575855
-0.00106329
-0.00152956
-0.00195722
-0.00233359
-0.00265367
-0.00291784
-0.00312999
-0.00329622
-0.00342356
-0.00351892
-0.00358846
-0.00363721
-0.00366894
-0.00368631
-0.0036913
-0.00368573
-0.00367731
-1.15073e-06
-2.0981e-07
-3.95842e-06
-1.53774e-05
-3.28515e-05
-5.51984e-05
-8.13363e-05
-0.000110297
-0.000141227
-0.000173385
-0.000206217
-0.00023937
-0.000272715
-0.000306325
-0.000340395
-0.000375097
-0.000410393
-0.000445837
-0.000480384
-0.000512224
-0.000538656
-0.000556034
-0.0005598
-0.00054466
-0.000504932
-0.00043511
-0.000330617
-0.00018872
-9.70623e-06
0.000201989
0.000437723
0.000684165
0.000922793
0.00113182
0.00128803
0.00136932
0.00135763
0.00124186
0.00102002
0.000700159
0.00029977
-0.000156546
-0.000640561
-0.00112442
-0.00158411
-0.00200153
-0.00236615
-0.0026747
-0.00292807
-0.00313101
-0.00329016
-0.00341258
-0.00350498
-0.00357318
-0.0036219
-0.00365468
-0.00367396
-0.00368133
-0.00367674
-0.00366849
3.09365e-06
3.10877e-06
-1.27381e-06
-1.30292e-05
-3.03412e-05
-5.214e-05
-7.74245e-05
-0.000105216
-0.000134611
-0.000164807
-0.000195188
-0.000225396
-0.000255373
-0.000285346
-0.000315745
-0.000347061
-0.000379651
-0.000413537
-0.000448195
-0.000482353
-0.000513812
-0.0005393
-0.000554425
-0.000553761
-0.000531162
-0.000480333
-0.000395641
-0.000273147
-0.000111897
8.48973e-05
0.000309338
0.000548413
0.000783953
0.00099391
0.00115429
0.00124184
0.00123711
0.00112758
0.000910128
0.000592285
0.000191753
-0.00026584
-0.000750679
-0.00123316
-0.00168783
-0.00209614
-0.00244866
-0.00274258
-0.00298014
-0.00316786
-0.00331358
-0.00342507
-0.00350927
-0.00357192
-0.00361744
-0.00364904
-0.00366883
-0.0036777
-0.00367324
-0.00366456
1.58729e-05
1.44824e-05
8.53709e-06
-4.41028e-06
-2.25641e-05
-4.48984e-05
-7.04761e-05
-9.83016e-05
-0.000127412
-0.000156947
-0.000186267
-0.00021508
-0.000243529
-0.000272197
-0.000302031
-0.000334178
-0.000369772
-0.000409674
-0.000454197
-0.000502791
-0.00055373
-0.000603838
-0.000648334
-0.000680889
-0.000693985
-0.000679618
-0.00063028
-0.000540138
-0.000406452
-0.00023088
-1.99689e-05
0.000214147
0.000453662
0.000676297
0.000857053
0.000970872
0.00099575
0.000916103
0.000725662
0.000429311
4.32047e-05
-0.000407092
-0.000890293
-0.00137417
-0.00183029
-0.00223777
-0.00258491
-0.00286778
-0.00309078
-0.00326174
-0.00339018
-0.00348544
-0.00355557
-0.00360688
-0.00364395
-0.00366984
-0.00368621
-0.00369324
-0.00368653
-0.00367606
3.68037e-05
3.3188e-05
2.46617e-05
9.7963e-06
-9.94439e-06
-3.36606e-05
-6.04739e-05
-8.94262e-05
-0.000119522
-0.00014988
-0.000179929
-0.000209611
-0.00023952
-0.000270946
-0.000305786
-0.000346359
-0.000395125
-0.000454314
-0.000525491
-0.000609038
-0.000703645
-0.000805871
-0.000909929
-0.00100778
-0.00108964
-0.0011448
-0.00116289
-0.00113501
-0.0010553
-0.00092268
-0.000741525
-0.000520767
-0.000276871
-3.16385e-05
0.000189443
0.000359332
0.000452367
0.000447796
0.000333182
0.000107119
-0.000219584
-0.000624731
-0.00107778
-0.00154462
-0.00199297
-0.00239719
-0.00274113
-0.00301857
-0.00323207
-0.0033898
-0.0035025
-0.00358116
-0.00363537
-0.0036726
-0.00369812
-0.00371525
-0.00372555
-0.00372874
-0.00371925
-0.00370718
6.54435e-05
5.87859e-05
4.69024e-05
2.95917e-05
7.6318e-06
-1.8265e-05
-4.73504e-05
-7.87351e-05
-0.000111467
-0.000144769
-0.000178355
-0.000212735
-0.000249419
-0.000290995
-0.000341025
-0.000403794
-0.000483887
-0.000585604
-0.000712238
-0.00086525
-0.0010435
-0.00124265
-0.00145495
-0.00166946
-0.00187267
-0.00204963
-0.00218539
-0.00226649
-0.00228236
-0.00222715
-0.00210115
-0.00190951
-0.00166613
-0.00139033
-0.00110685
-0.000844077
-0.000631639
-0.000496919
-0.000461497
-0.000537524
-0.000725096
-0.00101124
-0.00137129
-0.00177264
-0.00218023
-0.00256254
-0.00289628
-0.00316879
-0.00337767
-0.00352844
-0.00363122
-0.0036976
-0.00373839
-0.00376243
-0.00377611
-0.00378349
-0.00378653
-0.00378496
-0.00377284
-0.00375976
0.000100741
9.06592e-05
7.47749e-05
5.46021e-05
2.98983e-05
1.018e-06
-3.15038e-05
-6.69382e-05
-0.000104528
-0.000143869
-0.00018538
-0.000230734
-0.000283147
-0.000347465
-0.000430013
-0.000538182
-0.000679728
-0.000861792
-0.00108971
-0.00136574
-0.00168803
-0.00204984
-0.00243948
-0.00284081
-0.00323433
-0.00359866
-0.00391255
-0.0041569
-0.00431582
-0.00437714
-0.00433518
-0.00419507
-0.00396434
-0.00365794
-0.00329811
-0.00291247
-0.00253266
-0.00219175
-0.00192116
-0.00174684
-0.00168541
-0.00174085
-0.00190305
-0.00214875
-0.00244544
-0.00275744
-0.00305255
-0.00330737
-0.00350965
-0.00365765
-0.00375721
-0.00381821
-0.00385141
-0.00386651
-0.00387104
-0.00387014
-0.00386655
-0.00386053
-0.00384648
-0.00383309
0.000141278
0.000127454
0.000107164
8.3851e-05
5.59204e-05
2.31927e-05
-1.41498e-05
-5.57196e-05
-0.000101259
-0.000151223
-0.000207462
-0.000273795
-0.000356368
-0.000463714
-0.000606429
-0.000796409
-0.0010456
-0.00136432
-0.00175938
-0.00223225
-0.00277775
-0.0033835
-0.0040303
-0.00469357
-0.00534527
-0.0059562
-0.00649848
-0.00694778
-0.00728402
-0.00749134
-0.00756049
-0.00749214
-0.00729111
-0.00696731
-0.00653751
-0.006025
-0.00545892
-0.00487322
-0.00430509
-0.00379228
-0.00336938
-0.00306322
-0.00288829
-0.00284331
-0.00291056
-0.00305896
-0.00325066
-0.00344924
-0.00362678
-0.00376741
-0.00386677
-0.00392872
-0.00396141
-0.00397394
-0.0039744
-0.0039689
-0.00396118
-0.0039523
-0.00393758
-0.00392468
0.000184919
0.000167106
0.000142149
0.000115518
8.38639e-05
4.62637e-05
2.32577e-06
-4.82287e-05
-0.000106175
-0.000173651
-0.000255085
-0.000357916
-0.000492964
-0.000674309
-0.000918528
-0.00124319
-0.00166459
-0.00219502
-0.00283997
-0.00359591
-0.00444926
-0.0053768
-0.0063476
-0.00732589
-0.00827434
-0.00915702
-0.00994193
-0.0106025
-0.0111181
-0.0114738
-0.0116606
-0.0116759
-0.0115221
-0.0112052
-0.0107356
-0.0101293
-0.00940732
-0.00859717
-0.00773279
-0.00685456
-0.00600782
-0.00523957
-0.0045931
-0.00410091
-0.00377772
-0.00361607
-0.00358716
-0.00364803
-0.00375275
-0.00386334
-0.00395594
-0.00402095
-0.00405895
-0.00407572
-0.00407844
-0.00407356
-0.00406563
-0.00405658
-0.00404286
-0.00403129
0.000228564
0.000206633
0.000176829
0.000146721
0.000110729
6.69065e-05
1.39387e-05
-4.96627e-05
-0.000126574
-0.000221877
-0.000344248
-0.000506752
-0.000727042
-0.0010267
-0.00142949
-0.00195847
-0.00263216
-0.00346047
-0.00444133
-0.00555901
-0.00678474
-0.0080795
-0.00939826
-0.0106947
-0.0119251
-0.0130516
-0.0140432
-0.0148764
-0.0155348
-0.0160086
-0.016293
-0.0163853
-0.0162866
-0.0160007
-0.0155334
-0.0148923
-0.0140876
-0.0131345
-0.0120543
-0.0108772
-0.00964431
-0.008408
-0.00723014
-0.00617596
-0.00530398
-0.00465317
-0.00423198
-0.00401474
-0.00394933
-0.00397383
-0.0040342
-0.004095
-0.00414008
-0.00416653
-0.00417786
-0.00417946
-0.00417606
-0.00417021
-0.00415943
-0.00415
0.000267947
0.000241861
0.000207072
0.000173248
0.000132033
8.00783e-05
1.46041e-05
-6.79362e-05
-0.000173421
-0.000311655
-0.000497758
-0.000752804
-0.00110341
-0.00157983
-0.00221244
-0.00302659
-0.00403701
-0.00524286
-0.00662532
-0.00814845
-0.0097633
-0.011414
-0.0130444
-0.0146029
-0.0160467
-0.0173425
-0.0184666
-0.0194034
-0.0201442
-0.020686
-0.0210292
-0.0211748
-0.0211245
-0.0208816
-0.0204488
-0.0198281
-0.0190209
-0.0180297
-0.0168596
-0.0155223
-0.0140401
-0.0124507
-0.0108114
-0.0091991
-0.0077052
-0.00642179
-0.00542089
-0.00473305
-0.00433623
-0.00416404
-0.00413112
-0.00416187
-0.00420743
-0.00424558
-0.00427065
-0.00428437
-0.00429044
-0.00429146
-0.0042856
-0.00427906
0.000297391
0.000267195
0.000227273
0.000189288
0.00014149
7.8612e-05
-4.38373e-06
-0.000114345
-0.000262144
-0.000464595
-0.000745778
-0.00113703
-0.00167509
-0.00239795
-0.00333845
-0.00451675
-0.00593354
-0.0075665
-0.00937147
-0.0112881
-0.0132486
-0.015186
-0.0170413
-0.0187674
-0.0203299
-0.0217063
-0.0228834
-0.0238557
-0.0246221
-0.0251857
-0.0255508
-0.0257219
-0.0257027
-0.0254971
-0.0251073
-0.024533
-0.0237716
-0.0228179
-0.0216656
-0.0203093
-0.0187484
-0.0169939
-0.015076
-0.0130526
-0.0110144
-0.00908111
-0.00738502
-0.00603959
-0.00510307
-0.00455592
-0.0043103
-0.00424936
-0.00427204
-0.00431706
-0.00435836
-0.00438888
-0.004409
-0.00442047
-0.00442149
-0.00441858
0.000309638
0.000275439
0.000230148
0.000187178
0.000130707
5.28579e-05
-5.47834e-05
-0.000204043
-0.000413044
-0.000708175
-0.00112482
-0.00170579
-0.0024968
-0.0035389
-0.00485882
-0.00645995
-0.0083172
-0.0103781
-0.0125705
-0.0148135
-0.0170293
-0.0191513
-0.0211288
-0.022927
-0.0245253
-0.0259138
-0.0270896
-0.0280547
-0.0288137
-0.0293725
-0.0297371
-0.0299138
-0.029908
-0.0297243
-0.0293653
-0.0288319
-0.0281216
-0.0272283
-0.0261417
-0.0248481
-0.0233317
-0.0215798
-0.0195896
-0.0173806
-0.0150073
-0.0125712
-0.0102217
-0.00813702
-0.00647916
-0.00533716
-0.00468894
-0.00441464
-0.00435768
-0.00439112
-0.00444611
-0.00449625
-0.00453427
-0.00455945
-0.00456926
-0.00457079
0.000295766
0.000257689
0.000206604
0.000157259
8.90136e-05
-9.51463e-06
-0.000151585
-0.000356085
-0.000650901
-0.00107439
-0.00167457
-0.00250466
-0.00361459
-0.0050394
-0.00678749
-0.00883315
-0.0111171
-0.0135554
-0.0160542
-0.0185238
-0.02089
-0.0230982
-0.0251139
-0.0269185
-0.0285051
-0.0298736
-0.0310282
-0.0319744
-0.0327185
-0.0332666
-0.0336244
-0.0337978
-0.0337927
-0.033614
-0.0332658
-0.0327508
-0.0320694
-0.0312183
-0.0301899
-0.0289707
-0.0275412
-0.0258774
-0.0239546
-0.021756
-0.0192876
-0.0165979
-0.0137978
-0.0110681
-0.00863833
-0.00672475
-0.00544517
-0.00476281
-0.00451083
-0.00448637
-0.00454266
-0.00461198
-0.00467077
-0.00471258
-0.00473316
-0.00474016
0.000245243
0.000203376
0.000145767
8.78892e-05
3.49939e-06
-0.00012341
-0.000312733
-0.000592736
-0.00100345
-0.00159669
-0.00243241
-0.00356985
-0.00505435
-0.00690264
-0.00909221
-0.01156
-0.0142121
-0.0169413
-0.0196454
-0.0222411
-0.0246697
-0.0268959
-0.0289032
-0.0306874
-0.0322512
-0.0336
-0.0347399
-0.0356764
-0.0364144
-0.0369582
-0.0373121
-0.0374806
-0.0374689
-0.0372822
-0.0369258
-0.0364044
-0.0357217
-0.0348789
-0.0338734
-0.0326973
-0.0313357
-0.0297652
-0.0279547
-0.0258684
-0.0234753
-0.0207672
-0.0177859
-0.0146525
-0.0115843
-0.00886961
-0.00678125
-0.00545518
-0.00481767
-0.00463621
-0.00466163
-0.00474346
-0.00482439
-0.00488555
-0.00491915
-0.00493317
0.000146191
0.000100509
3.52345e-05
-3.4256e-05
-0.000140606
-0.000305757
-0.000558218
-0.000937876
-0.00149857
-0.00230539
-0.00342663
-0.00491962
-0.00681336
-0.00909383
-0.0116992
-0.0145287
-0.0174625
-0.0203847
-0.023201
-0.0258461
-0.0282831
-0.0304967
-0.0324852
-0.0342535
-0.0358084
-0.037156
-0.0383007
-0.0392452
-0.0399917
-0.0405417
-0.0408976
-0.0410624
-0.0410403
-0.0408367
-0.0404576
-0.0399097
-0.0391993
-0.0383317
-0.0373099
-0.036133
-0.0347939
-0.033277
-0.0315562
-0.0295935
-0.0273425
-0.0247579
-0.0218174
-0.0185576
-0.0151158
-0.0117559
-0.00883438
-0.00667782
-0.00541565
-0.004903
-0.00482462
-0.00490058
-0.00500184
-0.00508521
-0.00513457
-0.00515788
-1.41098e-05
-6.3811e-05
-0.000138387
-0.000223562
-0.000359143
-0.000574418
-0.000908455
-0.00141449
-0.00216051
-0.00322236
-0.00467008
-0.00654855
-0.00885843
-0.0115461
-0.0145094
-0.017618
-0.0207413
-0.0237708
-0.0266318
-0.0292831
-0.0317092
-0.0339105
-0.0358941
-0.0376681
-0.0392388
-0.0406092
-0.0417801
-0.0427504
-0.0435188
-0.0440844
-0.0444476
-0.0446101
-0.0445756
-0.0443494
-0.0439382
-0.04335
-0.0425931
-0.0416762
-0.0406066
-0.0393897
-0.0380264
-0.0365111
-0.0348281
-0.0329481
-0.0308264
-0.0284051
-0.0256238
-0.0224473
-0.018912
-0.0151832
-0.0115885
-0.00856323
-0.00647222
-0.00539391
-0.0050696
-0.00509795
-0.00521107
-0.00531907
-0.00538786
-0.00542351
-0.000248443
-0.000302603
-0.000388623
-0.000494478
-0.000667799
-0.000946586
-0.00138206
-0.00204157
-0.00300583
-0.00435646
-0.0061564
-0.00842701
-0.0111315
-0.0141741
-0.0174191
-0.020721
-0.0239542
-0.0270299
-0.0298991
-0.0325438
-0.0349652
-0.0371728
-0.0391766
-0.040983
-0.0425945
-0.0440094
-0.0452241
-0.0462336
-0.0470335
-0.0476208
-0.0479943
-0.048155
-0.0481063
-0.0478537
-0.0474045
-0.0467677
-0.0459532
-0.0449717
-0.043834
-0.0425497
-0.0411265
-0.0395676
-0.0378686
-0.0360133
-0.0339688
-0.0316823
-0.0290823
-0.0260927
-0.0226674
-0.0188527
-0.0148623
-0.0111118
-0.00812074
-0.006253
-0.0054685
-0.00535662
-0.0054635
-0.00559511
-0.00568886
-0.00574029
-0.000568644
-0.000627949
-0.000727985
-0.00086021
-0.00108054
-0.00143681
-0.00199334
-0.00283105
-0.00404008
-0.00570095
-0.00785992
-0.0105057
-0.0135599
-0.0168894
-0.020337
-0.0237576
-0.0270434
-0.0301319
-0.0329991
-0.0356454
-0.0380821
-0.0403216
-0.0423718
-0.0442347
-0.0459074
-0.0473831
-0.0486536
-0.0497108
-0.0505478
-0.0511597
-0.0515444
-0.0517025
-0.0516374
-0.051355
-0.0508636
-0.0501731
-0.0492947
-0.0482408
-0.047024
-0.0456571
-0.044152
-0.0425186
-0.040762
-0.0388787
-0.036851
-0.034641
-0.0321849
-0.0293952
-0.0261788
-0.0224843
-0.0183855
-0.0141767
-0.0103897
-0.00761359
-0.006135
-0.00571292
-0.00577683
-0.00592404
-0.00604769
-0.0061197
-0.000984418
-0.00104976
-0.00116663
-0.00133122
-0.00160787
-0.00205497
-0.00274993
-0.0037854
-0.00525604
-0.0072336
-0.00973916
-0.0127235
-0.0160684
-0.0196129
-0.0231931
-0.026677
-0.0299822
-0.0330728
-0.0359453
-0.0386122
-0.0410884
-0.0433844
-0.0455033
-0.0474413
-0.0491896
-0.0507367
-0.0520708
-0.0531807
-0.0540575
-0.054695
-0.0550904
-0.055244
-0.0551597
-0.0548441
-0.0543065
-0.0535581
-0.0526117
-0.051481
-0.0501802
-0.0487238
-0.0471264
-0.0454018
-0.0435617
-0.0416127
-0.0395515
-0.0373573
-0.034984
-0.0323534
-0.0293582
-0.0258886
-0.0218993
-0.017523
-0.013179
-0.00953613
-0.00719416
-0.00624105
-0.00616996
-0.00632153
-0.00647636
-0.0065749
-0.00150212
-0.0015745
-0.00171102
-0.00191373
-0.00225521
-0.00280447
-0.00365111
-0.0048964
-0.00663389
-0.00891929
-0.0117426
-0.015016
-0.0185879
-0.022282
-0.0259401
-0.0294525
-0.0327637
-0.0358608
-0.038755
-0.0414641
-0.0440023
-0.046375
-0.0485791
-0.0506049
-0.0524383
-0.0540638
-0.0554662
-0.0566319
-0.0575502
-0.0582136
-0.0586187
-0.0587656
-0.0586588
-0.0583058
-0.0577175
-0.0569069
-0.0558884
-0.0546775
-0.0532899
-0.0517416
-0.0500484
-0.0482263
-0.0462905
-0.0442543
-0.0421253
-0.0398986
-0.0375482
-0.0350155
-0.0322021
-0.0289774
-0.0252191
-0.0209121
-0.0162983
-0.0119751
-0.00873207
-0.0070473
-0.00666672
-0.0068106
-0.00698911
-0.0071201
-0.00212364
-0.00220404
-0.00236266
-0.00260848
-0.00302161
-0.00368115
-0.00468708
-0.00614546
-0.00814312
-0.0107142
-0.013815
-0.0173224
-0.0210612
-0.0248512
-0.0285499
-0.0320731
-0.0353904
-0.0385066
-0.0414409
-0.044212
-0.0468298
-0.0492937
-0.0515943
-0.0537162
-0.055641
-0.0573497
-0.058824
-0.0600482
-0.0610096
-0.0616993
-0.0621131
-0.0622512
-0.0621184
-0.0617237
-0.0610797
-0.0602015
-0.059106
-0.0578108
-0.0563337
-0.0546919
-0.0529026
-0.0509823
-0.0489479
-0.046816
-0.044601
-0.0423103
-0.0399357
-0.0374416
-0.034751
-0.0317389
-0.0282488
-0.0241602
-0.0195341
-0.0147956
-0.0107563
-0.00822056
-0.00732915
-0.00741026
-0.00760389
-0.00777078
-0.00284565
-0.00293482
-0.00311733
-0.00340994
-0.00389913
-0.00467293
-0.00583926
-0.00750505
-0.00974568
-0.0125703
-0.0159025
-0.01959
-0.0234438
-0.02729
-0.0310071
-0.034536
-0.037867
-0.0410168
-0.044008
-0.0468564
-0.0495662
-0.0521307
-0.0545348
-0.0567582
-0.0587789
-0.0605746
-0.0621242
-0.0634096
-0.0644158
-0.0651325
-0.0655546
-0.065682
-0.0655201
-0.0650795
-0.0643745
-0.0634231
-0.0622449
-0.0608604
-0.05929
-0.0575529
-0.0556672
-0.0536502
-0.051519
-0.0492912
-0.0469844
-0.0446136
-0.0421846
-0.0396827
-0.0370565
-0.0342024
-0.030962
-0.0271576
-0.0227044
-0.0178185
-0.0131916
-0.00980953
-0.00825334
-0.00812299
-0.00834514
-0.00854109
-0.00365916
-0.00375748
-0.00396472
-0.00430606
-0.00487283
-0.00576032
-0.00708169
-0.00894116
-0.0113994
-0.0144396
-0.0179562
-0.0217753
-0.0257032
-0.0295788
-0.0333033
-0.0368402
-0.0401953
-0.0433921
-0.0464528
-0.0493888
-0.0521983
-0.0548688
-0.0573803
-0.0597088
-0.0618286
-0.0637144
-0.0653423
-0.0666914
-0.0677444
-0.0684892
-0.0689194
-0.0690348
-0.0688415
-0.0683511
-0.0675806
-0.0665506
-0.0652841
-0.0638051
-0.0621369
-0.0603015
-0.0583187
-0.0562065
-0.053982
-0.0516622
-0.0492655
-0.0468105
-0.044312
-0.0417719
-0.0391633
-0.0364104
-0.0333738
-0.0298578
-0.0256821
-0.0208693
-0.0159108
-0.0118097
-0.00950425
-0.00897629
-0.00923454
-0.00944969
-0.00454973
-0.00465703
-0.00488868
-0.00527879
-0.00592157
-0.0069177
-0.00838291
-0.0104159
-0.0130611
-0.0162771
-0.019934
-0.0238439
-0.0278156
-0.0317044
-0.035433
-0.0389835
-0.0423724
-0.0456262
-0.0487647
-0.0517939
-0.0547066
-0.0574853
-0.060106
-0.0625411
-0.064762
-0.0667402
-0.0684488
-0.0698637
-0.0709652
-0.0717391
-0.0721777
-0.0722804
-0.0720538
-0.0715112
-0.0706717
-0.069559
-0.0681997
-0.0666214
-0.0648512
-0.0629144
-0.0608332
-0.0586267
-0.0563122
-0.0539059
-0.0514251
-0.0488891
-0.0463176
-0.0437238
-0.041101
-0.038402
-0.035516
-0.0322569
-0.0283962
-0.0238097
-0.0187659
-0.0141421
-0.0110825
-0.010031
-0.0102872
-0.0105087
-0.0054981
-0.00561355
-0.00586807
-0.00630497
-0.00701934
-0.00811509
-0.00970825
-0.0118903
-0.0146893
-0.0180423
-0.0218006
-0.0257689
-0.0297635
-0.0336566
-0.0373901
-0.0409603
-0.0443905
-0.0477074
-0.0509273
-0.0540513
-0.0570673
-0.0599536
-0.0626829
-0.0652247
-0.0675471
-0.0696186
-0.0714087
-0.0728905
-0.0740413
-0.0748449
-0.0752923
-0.0753822
-0.0751219
-0.0745259
-0.0736157
-0.0724181
-0.0709631
-0.0692826
-0.0674076
-0.065367
-0.0631862
-0.0608861
-0.0584846
-0.055997
-0.0534394
-0.0508299
-0.0481893
-0.0455375
-0.0428831
-0.0402039
-0.0374206
-0.0343718
-0.03082
-0.0265473
-0.0216134
-0.0166815
-0.0129572
-0.0113411
-0.0114746
-0.0117191
-0.00648132
-0.0066034
-0.00687801
-0.0073579
-0.00813689
-0.0093201
-0.011022
-0.0133263
-0.0162457
-0.0196999
-0.0235269
-0.0275293
-0.0315329
-0.0354262
-0.039167
-0.0427616
-0.0462373
-0.0496195
-0.0529206
-0.0561374
-0.0592536
-0.0622444
-0.0650794
-0.0677255
-0.0701478
-0.0723112
-0.0741821
-0.0757303
-0.0769303
-0.0777637
-0.07822
-0.0782976
-0.0780039
-0.0773551
-0.0763746
-0.0750921
-0.0735414
-0.0717581
-0.0697776
-0.0676328
-0.0653523
-0.0629599
-0.0604742
-0.0579107
-0.0552836
-0.0526092
-0.0499076
-0.0472015
-0.0445095
-0.0418292
-0.0391109
-0.0362261
-0.0329533
-0.0290268
-0.0243363
-0.0193063
-0.0150877
-0.0129117
-0.0127725
-0.0130679
-0.00747414
-0.00760065
-0.00789139
-0.0084089
-0.00924367
-0.0105
-0.0122896
-0.0146884
-0.0176966
-0.0212202
-0.0250891
-0.0291076
-0.0331115
-0.0370037
-0.0407539
-0.0443756
-0.0478975
-0.0513434
-0.0547219
-0.0580262
-0.0612368
-0.0643262
-0.0672616
-0.0700071
-0.0725249
-0.0747766
-0.0767253
-0.0783376
-0.0795852
-0.0804476
-0.080913
-0.0809791
-0.0806537
-0.0799541
-0.0789058
-0.0775412
-0.0758975
-0.074014
-0.0719302
-0.0696831
-0.0673051
-0.0648228
-0.0622566
-0.0596222
-0.0569329
-0.0542027
-0.0514498
-0.0486973
-0.0459695
-0.0432785
-0.0405999
-0.0378396
-0.0348064
-0.0312202
-0.0268536
-0.0219133
-0.017403
-0.0147076
-0.0141926
-0.014556
-0.00845066
-0.00857888
-0.00888057
-0.00942921
-0.0103097
-0.0116234
-0.0134788
-0.0159452
-0.0190127
-0.0225783
-0.0264679
-0.0304893
-0.0344882
-0.0383788
-0.0421395
-0.0457882
-0.0493541
-0.0528586
-0.0563077
-0.0596913
-0.0629878
-0.0661672
-0.0691948
-0.072032
-0.0746382
-0.0769719
-0.078993
-0.0806651
-0.0819574
-0.0828473
-0.0833215
-0.0833774
-0.0830229
-0.0822762
-0.0811648
-0.0797234
-0.0779921
-0.076014
-0.0738323
-0.071488
-0.069017
-0.0664493
-0.0638074
-0.0611079
-0.0583634
-0.0555861
-0.052792
-0.050003
-0.047246
-0.0445427
-0.0418893
-0.0392239
-0.0363901
-0.0331182
-0.0291156
-0.0244105
-0.019799
-0.0166694
-0.0157659
-0.0161828
-0.00938586
-0.0095121
-0.00981873
-0.0103919
-0.011307
-0.0126617
-0.0145614
-0.0170695
-0.0201699
-0.023754
-0.0276471
-0.0316618
-0.0356521
-0.0395405
-0.0433113
-0.0469847
-0.0505893
-0.0541447
-0.0576546
-0.061107
-0.064478
-0.0677364
-0.0708451
-0.0737634
-0.076448
-0.0788548
-0.0809406
-0.0826664
-0.083999
-0.0849139
-0.0853965
-0.0854437
-0.0850635
-0.084275
-0.083107
-0.0815964
-0.079786
-0.0777219
-0.0754508
-0.0730171
-0.0704607
-0.0678144
-0.0651034
-0.0623453
-0.0595528
-0.0567368
-0.053911
-0.0510958
-0.0483184
-0.0456067
-0.0429724
-0.040381
-0.0377115
-0.0347206
-0.0310922
-0.0267171
-0.0221635
-0.0187293
-0.0175001
-0.017922
-0.0102586
-0.0103766
-0.0106829
-0.0112734
-0.0122112
-0.0135906
-0.0155136
-0.0180396
-0.0211486
-0.024731
-0.0286135
-0.0326139
-0.0365926
-0.0404778
-0.0442567
-0.0479501
-0.0515858
-0.0551822
-0.0587411
-0.0622491
-0.0656813
-0.0690047
-0.0721809
-0.0751671
-0.0779178
-0.0803863
-0.0825272
-0.0842987
-0.085666
-0.0866026
-0.087093
-0.0871333
-0.0867316
-0.0859075
-0.0846911
-0.083121
-0.0812422
-0.0791033
-0.076754
-0.074242
-0.0716101
-0.0688944
-0.0661225
-0.0633136
-0.0604806
-0.0576339
-0.0547854
-0.0519535
-0.049165
-0.0464514
-0.0438356
-0.0413054
-0.0387724
-0.0360287
-0.0327623
-0.028768
-0.0244007
-0.0208177
-0.0193472
-0.0197203
-0.0110475
-0.0111538
-0.0114559
-0.0120535
-0.0130017
-0.0143906
-0.016317
-0.0188383
-0.0219343
-0.0254969
-0.0293566
-0.0333359
-0.0373003
-0.0411801
-0.0449635
-0.0486707
-0.0523284
-0.0559538
-0.059548
-0.0630969
-0.0665746
-0.0699473
-0.0731751
-0.0762138
-0.079016
-0.081533
-0.0837174
-0.0855256
-0.0869208
-0.0878753
-0.0883725
-0.0884078
-0.0879893
-0.087137
-0.0858817
-0.0842635
-0.0823288
-0.0801285
-0.0777145
-0.0751372
-0.0724422
-0.0696683
-0.0668453
-0.0639943
-0.061129
-0.0582592
-0.0553959
-0.0525558
-0.0497649
-0.0470566
-0.0444618
-0.0419855
-0.0395686
-0.0370406
-0.0341107
-0.0305156
-0.0264328
-0.0228509
-0.0212209
-0.0215055
-0.0117379
-0.0118303
-0.0121209
-0.0127155
-0.0136638
-0.0150474
-0.0169588
-0.0194546
-0.0225172
-0.0260429
-0.029868
-0.0338198
-0.0377663
-0.0416379
-0.0454212
-0.0491346
-0.0528038
-0.0564453
-0.0600599
-0.0636334
-0.0671397
-0.0705443
-0.0738064
-0.0768806
-0.0797182
-0.0822691
-0.0844843
-0.0863188
-0.0877345
-0.0887025
-0.0892054
-0.0892378
-0.0888077
-0.0879351
-0.0866515
-0.0849975
-0.0830209
-0.080774
-0.0783104
-0.0756826
-0.0729385
-0.0701191
-0.0672562
-0.0643727
-0.0614832
-0.0585976
-0.0557262
-0.0528849
-0.0500988
-0.0474024
-0.0448322
-0.0424065
-0.0400909
-0.0377507
-0.0351257
-0.0319267
-0.0281944
-0.0247366
-0.0230241
-0.0232044
-0.01232
-0.0123953
-0.0126678
-0.0132514
-0.0141884
-0.0155522
-0.0174313
-0.0198823
-0.0228919
-0.0263637
-0.0301421
-0.0340593
-0.0379835
-0.041843
-0.0456207
-0.0493324
-0.0530021
-0.0566462
-0.0602657
-0.063847
-0.0673641
-0.0707824
-0.0740605
-0.0771525
-0.0800086
-0.0825779
-0.0848105
-0.0866606
-0.0880889
-0.0890659
-0.0895731
-0.0896048
-0.0891685
-0.088284
-0.086983
-0.0853063
-0.0833025
-0.0810245
-0.0785274
-0.0758649
-0.0730866
-0.0702351
-0.0673442
-0.0644381
-0.0615323
-0.0586375
-0.0557638
-0.0529265
-0.0501505
-0.0474712
-0.044929
-0.0425521
-0.0403269
-0.0381505
-0.0357976
-0.0329773
-0.0296325
-0.0263902
-0.0246703
-0.0247536
-0.0127889
-0.0128443
-0.0130932
-0.0136575
-0.014572
-0.0159022
-0.0177319
-0.0201191
-0.0230567
-0.0264584
-0.0301774
-0.034051
-0.037947
-0.0417891
-0.0455554
-0.0492572
-0.0529167
-0.05655
-0.0601592
-0.0637314
-0.0672416
-0.0706553
-0.0739312
-0.077023
-0.0798807
-0.082453
-0.0846898
-0.0865445
-0.0879777
-0.0889589
-0.0894693
-0.0895025
-0.0890654
-0.0881775
-0.08687
-0.0851839
-0.0831676
-0.0808744
-0.0783599
-0.0756786
-0.0728811
-0.0700112
-0.067104
-0.0641848
-0.0612703
-0.0583719
-0.0555
-0.05267
-0.0499073
-0.047248
-0.0447358
-0.0424066
-0.0402631
-0.0382301
-0.0361177
-0.0336497
-0.0307059
-0.0277439
-0.0260917
-0.0261014
-0.0131444
-0.0131783
-0.0133989
-0.013935
-0.014816
-0.0160996
-0.017864
-0.0201688
-0.0230154
-0.0263293
-0.0299744
-0.0337935
-0.0376534
-0.0414722
-0.0452208
-0.0489051
-0.0525444
-0.0561546
-0.059739
-0.0632862
-0.0667726
-0.0701643
-0.0734204
-0.076495
-0.0793381
-0.0818988
-0.0841269
-0.0859761
-0.0874065
-0.0883877
-0.0889001
-0.088937
-0.0885045
-0.0876214
-0.0863183
-0.0846355
-0.082621
-0.0803279
-0.0778116
-0.0751268
-0.0723245
-0.0694492
-0.0665367
-0.0636131
-0.0606963
-0.0577983
-0.0549305
-0.0521092
-0.0493605
-0.0467219
-0.0442399
-0.0419565
-0.0398871
-0.0379796
-0.0360784
-0.0339313
-0.0313837
-0.0287456
-0.0272365
-0.0272054
-0.0133906
-0.0134026
-0.013591
-0.0140903
-0.0149271
-0.0161515
-0.0178357
-0.0200404
-0.0227763
-0.0259828
-0.0295367
-0.0332877
-0.0371017
-0.0408901
-0.0446147
-0.0482746
-0.0518852
-0.0554617
-0.0590086
-0.0625166
-0.0659637
-0.0693175
-0.0725381
-0.0755799
-0.078394
-0.0809298
-0.0831378
-0.0849721
-0.0863932
-0.0873705
-0.0878843
-0.087927
-0.0875042
-0.0866337
-0.0853451
-0.0836775
-0.0816781
-0.0793992
-0.0768956
-0.0742214
-0.0714275
-0.0685583
-0.0656499
-0.0627292
-0.0598146
-0.0569193
-0.0540561
-0.0512424
-0.048506
-0.0458863
-0.0434325
-0.0411913
-0.0391887
-0.0373913
-0.0356744
-0.0338142
-0.0316452
-0.0293583
-0.0280634
-0.0280269
-0.0135353
-0.0135265
-0.0136799
-0.0141344
-0.0149163
-0.0160695
-0.0176593
-0.0197467
-0.0223517
-0.0254294
-0.028872
-0.0325382
-0.0362937
-0.0400426
-0.0437368
-0.0473664
-0.0509417
-0.0544762
-0.0579755
-0.0614326
-0.0648276
-0.0681301
-0.0713015
-0.0742975
-0.0770701
-0.0795699
-0.0817482
-0.08356
-0.0849663
-0.0859368
-0.0864515
-0.0865024
-0.0860941
-0.0852434
-0.0839783
-0.0823367
-0.0803644
-0.0781123
-0.075634
-0.0729826
-0.0702082
-0.0673547
-0.0644579
-0.0615449
-0.058635
-0.0557426
-0.052882
-0.0500727
-0.0473446
-0.0447395
-0.0423096
-0.0401056
-0.038162
-0.0364602
-0.0349027
-0.0332953
-0.0314816
-0.0295604
-0.0285364
-0.0285263
-0.0135892
-0.0135616
-0.0136786
-0.0140814
-0.0147985
-0.0158687
-0.0173505
-0.0193038
-0.0217577
-0.0246838
-0.0279921
-0.0315528
-0.0352337
-0.0389321
-0.0425886
-0.046183
-0.0497185
-0.0532057
-0.0566506
-0.0600483
-0.0633815
-0.0666224
-0.0697341
-0.0726741
-0.0753957
-0.0778508
-0.0799922
-0.0817758
-0.0831635
-0.0841253
-0.0846411
-0.0847027
-0.0843134
-0.0834887
-0.0822551
-0.0806489
-0.0787139
-0.0764992
-0.0740567
-0.0714381
-0.0686919
-0.065861
-0.0629807
-0.0600778
-0.0571726
-0.0542806
-0.0514183
-0.0486077
-0.0458816
-0.0432848
-0.0408727
-0.0386993
-0.0368062
-0.0351857
-0.0337635
-0.0323759
-0.0308906
-0.0293373
-0.0286227
-0.0286601
-0.0135649
-0.0135216
-0.0136022
-0.0139479
-0.0145908
-0.015567
-0.0169279
-0.0187311
-0.0210137
-0.0237644
-0.0269125
-0.0303434
-0.0339296
-0.037563
-0.0411732
-0.0447278
-0.0482211
-0.0516589
-0.0550464
-0.0583803
-0.0616463
-0.0648189
-0.0678641
-0.0707413
-0.0734055
-0.0758105
-0.0779103
-0.0796623
-0.0810293
-0.0819818
-0.0824999
-0.0825746
-0.0822085
-0.0814155
-0.0802203
-0.0786572
-0.0767677
-0.0745988
-0.0722003
-0.0696216
-0.0669095
-0.0641052
-0.0612432
-0.0583501
-0.0554467
-0.0525502
-0.0496796
-0.04686
-0.0441279
-0.0415312
-0.039129
-0.0369786
-0.0351267
-0.0335728
-0.0322627
-0.0310616
-0.0298698
-0.0286658
-0.0282887
-0.0283806
-0.013476
-0.0134204
-0.0134664
-0.0137514
-0.0143123
-0.0151841
-0.0164121
-0.0180503
-0.0201422
-0.0226928
-0.0256529
-0.0289257
-0.0323924
-0.0359426
-0.0394953
-0.0430051
-0.0464552
-0.0498446
-0.0531759
-0.0564464
-0.0596441
-0.0627466
-0.0657226
-0.068534
-0.0711382
-0.0734907
-0.0755473
-0.0772668
-0.078613
-0.0795571
-0.0800793
-0.0801701
-0.0798311
-0.0790746
-0.0779234
-0.0764093
-0.0745717
-0.0724547
-0.0701055
-0.0675711
-0.0648959
-0.0621192
-0.0592742
-0.0563874
-0.0534803
-0.0505721
-0.0476846
-0.0448467
-0.0420989
-0.0394931
-0.0370921
-0.0349561
-0.0331355
-0.0316336
-0.0304143
-0.0293648
-0.0284209
-0.027522
-0.0274888
-0.0276356
-0.013336
-0.0132719
-0.0132865
-0.0135097
-0.0139825
-0.0147404
-0.0158243
-0.017284
-0.0191672
-0.0214937
-0.0242364
-0.0273197
-0.0306379
-0.0340817
-0.0375619
-0.0410201
-0.0444265
-0.047771
-0.0510512
-0.0542633
-0.057397
-0.0604324
-0.0633414
-0.0660886
-0.068634
-0.0709351
-0.0729498
-0.0746384
-0.0759658
-0.0769039
-0.0774331
-0.0775434
-0.0772353
-0.0765194
-0.0754165
-0.073956
-0.0721744
-0.0701129
-0.0678158
-0.065327
-0.0626883
-0.059937
-0.0571049
-0.0542182
-0.0512995
-0.0483701
-0.0454557
-0.042589
-0.0398155
-0.0371911
-0.0347826
-0.0326519
-0.0308523
-0.0293884
-0.0282413
-0.0273072
-0.0265583
-0.0258991
-0.0261861
-0.0263667
-0.0131577
-0.0130886
-0.0130764
-0.0132392
-0.01362
-0.0142563
-0.015186
-0.0164551
-0.0181133
-0.0201933
-0.0226895
-0.0255499
-0.0286861
-0.0319953
-0.0353832
-0.0387794
-0.0421406
-0.0454447
-0.048682
-0.0518455
-0.0549246
-0.0579015
-0.0607509
-0.0634402
-0.0659322
-0.0681869
-0.0701643
-0.0718262
-0.073139
-0.0740752
-0.0746152
-0.0747488
-0.0744751
-0.0738034
-0.0727521
-0.071348
-0.0696244
-0.0676197
-0.0653745
-0.0629298
-0.0603243
-0.0575932
-0.0547671
-0.051872
-0.048932
-0.0459711
-0.043019
-0.0401131
-0.0373041