/*--------------------------------*- C++ -*----------------------------------*\
| =========                 |                                                 |
| \\      /  F ield         | OpenFOAM: The Open Source CFD Toolbox           |
|  \\    /   O peration     | Version:  2406                                  |
|   \\  /    A nd           | Website:  www.openfoam.com                      |
|    \\/     M anipulation  |                                                 |
\*---------------------------------------------------------------------------*/
FoamFile
{
    version     2.0;
    format      ascii;
    arch        "LSB;label=32;scalar=64";
    class       surfaceScalarField;
    location    "0.75";
    object      phi;
}
// * * * * * * * * * * * * * * * * * * * * * * * * * * * * * * * * * * * * * //

dimensions      [0 3 -1 0 0 0 0];

oriented        oriented;

internalField   nonuniform List<scalar> 
32512
(
4.16172e-10
-4.10353e-10
-6.19022e-09
6.60639e-09
-2.00915e-08
1.39012e-08
-3.91126e-08
1.90213e-08
-6.11032e-08
2.19908e-08
-8.45633e-08
2.34602e-08
-1.08617e-07
2.40536e-08
-1.32822e-07
2.42051e-08
-1.56987e-07
2.41643e-08
-1.81039e-07
2.40525e-08
-2.04958e-07
2.39192e-08
-2.28738e-07
2.37796e-08
-2.52373e-07
2.36357e-08
-2.75859e-07
2.34857e-08
-2.99187e-07
2.33276e-08
-3.22346e-07
2.31596e-08
-3.45327e-07
2.29805e-08
-3.68117e-07
2.27899e-08
-3.90704e-07
2.25872e-08
-4.13076e-07
2.23724e-08
-4.35222e-07
2.21454e-08
-4.57128e-07
2.19062e-08
-4.78782e-07
2.16546e-08
-5.00173e-07
2.13908e-08
-5.21288e-07
2.11147e-08
-5.42115e-07
2.08266e-08
-5.62641e-07
2.05263e-08
-5.82855e-07
2.02141e-08
-6.02745e-07
1.989e-08
-6.22299e-07
1.95541e-08
-6.41506e-07
1.92065e-08
-6.60353e-07
1.88473e-08
-6.7883e-07
1.84767e-08
-6.96924e-07
1.80947e-08
-7.14626e-07
1.77014e-08
-7.31923e-07
1.72971e-08
-7.48805e-07
1.68818e-08
-7.6526e-07
1.64557e-08
-7.81279e-07
1.60189e-08
-7.96851e-07
1.55715e-08
-8.11965e-07
1.51138e-08
-8.26611e-07
1.46459e-08
-8.40779e-07
1.41679e-08
-8.54459e-07
1.368e-08
-8.67641e-07
1.31824e-08
-8.80316e-07
1.26753e-08
-8.92475e-07
1.21588e-08
-9.04108e-07
1.16332e-08
-9.15207e-07
1.10987e-08
-9.25762e-07
1.05554e-08
-9.35766e-07
1.00035e-08
-9.45209e-07
9.44338e-09
-9.54084e-07
8.87514e-09
-9.62383e-07
8.29906e-09
-9.70099e-07
7.71535e-09
-9.77223e-07
7.12429e-09
-9.83749e-07
6.52612e-09
-9.8967e-07
5.92112e-09
-9.9498e-07
5.30954e-09
-9.99671e-07
4.69169e-09
-1.00374e-06
4.06783e-09
-1.00718e-06
3.43828e-09
-1.00998e-06
2.80333e-09
-1.01214e-06
2.16332e-09
-1.01366e-06
1.51856e-09
-1.01453e-06
8.69424e-10
-1.01475e-06
2.17178e-10
-1.01431e-06
-4.40787e-10
-1.01321e-06
-1.10074e-09
-1.01144e-06
-1.76376e-09
-1.00901e-06
-2.42935e-09
-1.00592e-06
-3.09708e-09
-1.00215e-06
-3.76652e-09
-9.97714e-07
-4.43726e-09
-9.92605e-07
-5.10884e-09
-9.86824e-07
-5.78082e-09
-9.80372e-07
-6.45273e-09
-9.73248e-07
-7.12411e-09
-9.65453e-07
-7.79446e-09
-9.5699e-07
-8.46329e-09
-9.4786e-07
-9.13011e-09
-9.38065e-07
-9.79439e-09
-9.2761e-07
-1.04556e-08
-9.16497e-07
-1.11132e-08
-9.0473e-07
-1.17667e-08
-8.92315e-07
-1.24154e-08
-8.79256e-07
-1.30589e-08
-8.65559e-07
-1.36966e-08
-8.51231e-07
-1.43279e-08
-8.36279e-07
-1.49521e-08
-8.2071e-07
-1.55688e-08
-8.04533e-07
-1.61773e-08
-7.87756e-07
-1.67771e-08
-7.70388e-07
-1.73674e-08
-7.52441e-07
-1.79478e-08
-7.33923e-07
-1.85176e-08
-7.14847e-07
-1.90762e-08
-6.95224e-07
-1.9623e-08
-6.75067e-07
-2.01574e-08
-6.54388e-07
-2.06789e-08
-6.33201e-07
-2.11868e-08
-6.11521e-07
-2.16805e-08
-5.89361e-07
-2.21595e-08
-5.66738e-07
-2.26233e-08
-5.43667e-07
-2.30712e-08
-5.20164e-07
-2.35028e-08
-4.96247e-07
-2.39176e-08
-4.71932e-07
-2.4315e-08
-4.47237e-07
-2.46947e-08
-4.22181e-07
-2.50563e-08
-3.96781e-07
-2.53994e-08
-3.71058e-07
-2.57239e-08
-3.45028e-07
-2.60297e-08
-3.18711e-07
-2.63172e-08
-2.92124e-07
-2.6587e-08
-2.65283e-07
-2.68404e-08
-2.38204e-07
-2.70791e-08
-2.109e-07
-2.73041e-08
-1.83388e-07
-2.75119e-08
-1.55704e-07
-2.76844e-08
-1.27937e-07
-2.77669e-08
-1.00308e-07
-2.76285e-08
-7.33042e-08
-2.70038e-08
-4.78728e-08
-2.54313e-08
-2.56352e-08
-2.22376e-08
-8.95731e-09
-1.66779e-08
-3.87516e-10
-8.56977e-09
-3.8749e-10
-6.62425e-09
6.21391e-09
-2.98237e-08
2.9806e-08
-6.77579e-08
5.18352e-08
-1.16239e-07
6.75021e-08
-1.71223e-07
7.69746e-08
-2.29711e-07
8.19488e-08
-2.89819e-07
8.41617e-08
-3.50504e-07
8.48905e-08
-4.11251e-07
8.49108e-08
-4.71824e-07
8.46257e-08
-5.32121e-07
8.42162e-08
-5.92092e-07
8.37508e-08
-6.51705e-07
8.32491e-08
-7.10933e-07
8.27136e-08
-7.69747e-07
8.21415e-08
-8.28118e-07
8.15301e-08
-8.86014e-07
8.08773e-08
-9.43406e-07
8.01817e-08
-1.00026e-06
7.94425e-08
-1.05655e-06
7.86594e-08
-1.11223e-06
7.78321e-08
-1.16729e-06
7.69608e-08
-1.22168e-06
7.60456e-08
-1.27538e-06
7.50867e-08
-1.32835e-06
7.40843e-08
-1.38056e-06
7.30388e-08
-1.43198e-06
7.19506e-08
-1.48259e-06
7.08199e-08
-1.53235e-06
6.96473e-08
-1.58122e-06
6.84332e-08
-1.6292e-06
6.71779e-08
-1.67623e-06
6.5882e-08
-1.7223e-06
6.45459e-08
-1.76738e-06
6.31703e-08
-1.81143e-06
6.17555e-08
-1.85444e-06
6.03021e-08
-1.89636e-06
5.88108e-08
-1.93719e-06
5.7282e-08
-1.97689e-06
5.57163e-08
-2.01543e-06
5.41144e-08
-2.05279e-06
5.2477e-08
-2.08895e-06
5.08045e-08
-2.12388e-06
4.90978e-08
-2.15756e-06
4.73574e-08
-2.18996e-06
4.55842e-08
-2.22107e-06
4.37787e-08
-2.25085e-06
4.19417e-08
-2.27929e-06
4.0074e-08
-2.30637e-06
3.81764e-08
-2.33206e-06
3.62496e-08
-2.35635e-06
3.42944e-08
-2.37922e-06
3.23118e-08
-2.40065e-06
3.03025e-08
-2.42062e-06
2.82674e-08
-2.43911e-06
2.62075e-08
-2.45611e-06
2.41236e-08
-2.4716e-06
2.20168e-08
-2.48556e-06
1.98879e-08
-2.49799e-06
1.7738e-08
-2.50887e-06
1.55681e-08
-2.51818e-06
1.33792e-08
-2.52591e-06
1.11726e-08
-2.53206e-06
8.94913e-09
-2.53661e-06
6.71009e-09
-2.53955e-06
4.45659e-09
-2.54087e-06
2.19002e-09
-2.54056e-06
-8.69347e-11
-2.53862e-06
-2.37854e-09
-2.53505e-06
-4.67686e-09
-2.52983e-06
-6.98355e-09
-2.52296e-06
-9.29706e-09
-2.51444e-06
-1.16159e-08
-2.50427e-06
-1.39387e-08
-2.49244e-06
-1.62639e-08
-2.47896e-06
-1.859e-08
-2.46383e-06
-2.09155e-08
-2.44704e-06
-2.32388e-08
-2.42861e-06
-2.55583e-08
-2.40853e-06
-2.78724e-08
-2.38681e-06
-3.01794e-08
-2.36347e-06
-3.24776e-08
-2.3385e-06
-3.47653e-08
-2.31191e-06
-3.70407e-08
-2.28372e-06
-3.9302e-08
-2.25394e-06
-4.15474e-08
-2.22258e-06
-4.37751e-08
-2.18966e-06
-4.59832e-08
-2.15518e-06
-4.81697e-08
-2.11918e-06
-5.03329e-08
-2.08166e-06
-5.24707e-08
-2.04265e-06
-5.45812e-08
-2.00216e-06
-5.66625e-08
-1.96023e-06
-5.87126e-08
-1.91686e-06
-6.07295e-08
-1.8721e-06
-6.27113e-08
-1.82596e-06
-6.46559e-08
-1.77848e-06
-6.65614e-08
-1.72968e-06
-6.84259e-08
-1.67959e-06
-7.02473e-08
-1.62824e-06
-7.20237e-08
-1.57567e-06
-7.37533e-08
-1.52192e-06
-7.54341e-08
-1.46702e-06
-7.70642e-08
-1.411e-06
-7.8642e-08
-1.3539e-06
-8.01655e-08
-1.29577e-06
-8.16331e-08
-1.23665e-06
-8.30432e-08
-1.17657e-06
-8.43941e-08
-1.11558e-06
-8.56845e-08
-1.05372e-06
-8.6913e-08
-9.91043e-07
-8.80786e-08
-9.27586e-07
-8.91805e-08
-8.63398e-07
-9.02182e-08
-7.98523e-07
-9.1192e-08
-7.33007e-07
-9.2103e-08
-6.66894e-07
-9.29528e-08
-6.00231e-07
-9.37424e-08
-5.33068e-07
-9.44667e-08
-4.65479e-07
-9.51012e-08
-3.97595e-07
-9.55682e-08
-3.29691e-07
-9.56704e-08
-2.62344e-07
-9.49762e-08
-1.96684e-07
-9.26635e-08
-1.34738e-07
-8.7377e-08
-7.97298e-08
-7.7246e-08
-3.60689e-08
-6.03387e-08
-8.53161e-09
-3.6107e-08
-8.9191e-09
-1.39842e-08
2.01981e-08
-5.2039e-08
6.78611e-08
-1.08935e-07
1.08732e-07
-1.79061e-07
1.37628e-07
-2.57468e-07
1.55381e-07
-3.4049e-07
1.64971e-07
-4.25765e-07
1.69437e-07
-5.11933e-07
1.71058e-07
-5.98277e-07
1.71255e-07
-6.84445e-07
1.70794e-07
-7.70263e-07
1.70034e-07
-8.55637e-07
1.69125e-07
-9.40508e-07
1.68119e-07
-1.02482e-06
1.6703e-07
-1.10854e-06
1.65858e-07
-1.19161e-06
1.64601e-07
-1.27399e-06
1.63256e-07
-1.35563e-06
1.61822e-07
-1.43649e-06
1.60298e-07
-1.51651e-06
1.58685e-07
-1.59566e-06
1.56981e-07
-1.67389e-06
1.55187e-07
-1.75114e-06
1.53303e-07
-1.82739e-06
1.51331e-07
-1.90257e-06
1.4927e-07
-1.97666e-06
1.47122e-07
-2.04959e-06
1.44887e-07
-2.12134e-06
1.42567e-07
-2.19185e-06
1.40161e-07
-2.26109e-06
1.37672e-07
-2.32902e-06
1.351e-07
-2.39558e-06
1.32446e-07
-2.46075e-06
1.29711e-07
-2.52447e-06
1.26897e-07
-2.58672e-06
1.24005e-07
-2.64745e-06
1.21035e-07
-2.70663e-06
1.17989e-07
-2.76422e-06
1.14868e-07
-2.82018e-06
1.11674e-07
-2.87447e-06
1.08408e-07
-2.92706e-06
1.05071e-07
-2.97792e-06
1.01665e-07
-3.02702e-06
9.81909e-08
-3.07431e-06
9.46505e-08
-3.11977e-06
9.1045e-08
-3.16337e-06
8.73763e-08
-3.20507e-06
8.36456e-08
-3.24485e-06
7.98548e-08
-3.28268e-06
7.60054e-08
-3.31853e-06
7.20991e-08
-3.35237e-06
6.81376e-08
-3.38419e-06
6.41227e-08
-3.41394e-06
6.00562e-08
-3.44161e-06
5.59399e-08
-3.46718e-06
5.17758e-08
-3.49062e-06
4.75656e-08
-3.51192e-06
4.33114e-08
-3.53104e-06
3.90153e-08
-3.54799e-06
3.46792e-08
-3.56272e-06
3.03053e-08
-3.57524e-06
2.58958e-08
-3.58552e-06
2.14528e-08
-3.59355e-06
1.69787e-08
-3.59931e-06
1.24757e-08
-3.6028e-06
7.94628e-09
-3.60401e-06
3.39292e-09
-3.60291e-06
-1.18176e-09
-3.59951e-06
-5.7763e-09
-3.59381e-06
-1.03867e-08
-3.58578e-06
-1.50108e-08
-3.57543e-06
-1.96459e-08
-3.56276e-06
-2.42892e-08
-3.54776e-06
-2.89379e-08
-3.53043e-06
-3.3589e-08
-3.51078e-06
-3.82396e-08
-3.48881e-06
-4.28866e-08
-3.46452e-06
-4.75269e-08
-3.43792e-06
-5.21574e-08
-3.40902e-06
-5.67748e-08
-3.37782e-06
-6.13759e-08
-3.34434e-06
-6.59573e-08
-3.30859e-06
-7.05156e-08
-3.27059e-06
-7.50474e-08
-3.23034e-06
-7.95491e-08
-3.18787e-06
-8.40173e-08
-3.1432e-06
-8.84483e-08
-3.09634e-06
-9.28385e-08
-3.04733e-06
-9.71842e-08
-2.99618e-06
-1.01482e-07
-2.94292e-06
-1.05727e-07
-2.88759e-06
-1.09917e-07
-2.8302e-06
-1.14047e-07
-2.7708e-06
-1.18114e-07
-2.70942e-06
-1.22114e-07
-2.64608e-06
-1.26043e-07
-2.58084e-06
-1.29897e-07
-2.51373e-06
-1.33673e-07
-2.44479e-06
-1.37366e-07
-2.37407e-06
-1.40973e-07
-2.3016e-06
-1.4449e-07
-2.22744e-06
-1.47913e-07
-2.15163e-06
-1.5124e-07
-2.07423e-06
-1.54465e-07
-1.99529e-06
-1.57586e-07
-1.91485e-06
-1.606e-07
-1.83299e-06
-1.63502e-07
-1.74974e-06
-1.66291e-07
-1.66517e-06
-1.68962e-07
-1.57934e-06
-1.71513e-07
-1.49231e-06
-1.73941e-07
-1.40415e-06
-1.76245e-07
-1.31491e-06
-1.78422e-07
-1.22465e-06
-1.80471e-07
-1.13345e-06
-1.82392e-07
-1.04137e-06
-1.84184e-07
-9.48475e-07
-1.85849e-07
-8.54835e-07
-1.87381e-07
-7.60539e-07
-1.88763e-07
-6.65706e-07
-1.89934e-07
-5.70548e-07
-1.90726e-07
-4.75469e-07
-1.90749e-07
-3.81258e-07
-1.89188e-07
-2.89383e-07
-1.84538e-07
-2.02377e-07
-1.74383e-07
-1.24167e-07
-1.55456e-07
-6.0124e-08
-1.24382e-07
-1.65671e-08
-7.96639e-08
-2.54863e-08
-1.92096e-08
3.94074e-08
-6.8025e-08
1.16677e-07
-1.38408e-07
1.79115e-07
-2.23418e-07
2.22637e-07
-3.17482e-07
2.49445e-07
-4.16613e-07
2.64103e-07
-5.18261e-07
2.71084e-07
-6.20941e-07
2.73738e-07
-7.23853e-07
2.74168e-07
-8.26588e-07
2.73528e-07
-9.28929e-07
2.72376e-07
-1.03076e-06
2.70952e-07
-1.13199e-06
2.69349e-07
-1.23255e-06
2.67597e-07
-1.3324e-06
2.65702e-07
-1.43146e-06
2.63663e-07
-1.52968e-06
2.6148e-07
-1.62701e-06
2.59151e-07
-1.72339e-06
2.56676e-07
-1.81876e-06
2.54055e-07
-1.91307e-06
2.51288e-07
-2.00626e-06
2.48375e-07
-2.09827e-06
2.45319e-07
-2.18906e-06
2.42119e-07
-2.27857e-06
2.38777e-07
-2.36674e-06
2.35295e-07
-2.45353e-06
2.31673e-07
-2.53887e-06
2.27914e-07
-2.62273e-06
2.24019e-07
-2.70505e-06
2.1999e-07
-2.78578e-06
2.15828e-07
-2.86486e-06
2.11535e-07
-2.94227e-06
2.07113e-07
-3.01793e-06
2.02565e-07
-3.09182e-06
1.97891e-07
-3.16388e-06
1.93095e-07
-3.23407e-06
1.88177e-07
-3.30234e-06
1.83141e-07
-3.36866e-06
1.77988e-07
-3.43297e-06
1.72721e-07
-3.49524e-06
1.67343e-07
-3.55543e-06
1.61854e-07
-3.6135e-06
1.56258e-07
-3.66941e-06
1.50558e-07
-3.72312e-06
1.44755e-07
-3.77459e-06
1.38853e-07
-3.8238e-06
1.32853e-07
-3.8707e-06
1.26759e-07
-3.91527e-06
1.20573e-07
-3.95747e-06
1.14299e-07
-3.99727e-06
1.07938e-07
-4.03464e-06
1.01494e-07
-4.06956e-06
9.49699e-08
-4.10198e-06
8.83684e-08
-4.1319e-06
8.16928e-08
-4.15928e-06
7.49461e-08
-4.1841e-06
6.81316e-08
-4.20634e-06
6.12526e-08
-4.22597e-06
5.43123e-08
-4.24298e-06
4.73143e-08
-4.25735e-06
4.02621e-08
-4.26905e-06
3.31591e-08
-4.27808e-06
2.6009e-08
-4.28442e-06
1.88156e-08
-4.28806e-06
1.15828e-08
-4.28898e-06
4.31431e-09
-4.28718e-06
-2.98575e-09
-4.28264e-06
-1.03136e-08
-4.27536e-06
-1.76648e-08
-4.26534e-06
-2.50351e-08
-4.25256e-06
-3.24202e-08
-4.23704e-06
-3.98157e-08
-4.21876e-06
-4.72171e-08
-4.19773e-06
-5.46198e-08
-4.17395e-06
-6.2019e-08
-4.14743e-06
-6.941e-08
-4.11816e-06
-7.67879e-08
-4.08617e-06
-8.41476e-08
-4.05147e-06
-9.14842e-08
-4.01405e-06
-9.87925e-08
-3.97394e-06
-1.06067e-07
-3.93115e-06
-1.13303e-07
-3.8857e-06
-1.20494e-07
-3.83762e-06
-1.27636e-07
-3.78691e-06
-1.34722e-07
-3.73361e-06
-1.41748e-07
-3.67774e-06
-1.48707e-07
-3.61934e-06
-1.55593e-07
-3.55842e-06
-1.62401e-07
-3.49502e-06
-1.69125e-07
-3.42918e-06
-1.75759e-07
-3.36093e-06
-1.82298e-07
-3.29031e-06
-1.88735e-07
-3.21736e-06
-1.95064e-07
-3.14212e-06
-2.01279e-07
-3.06464e-06
-2.07375e-07
-2.98497e-06
-2.13345e-07
-2.90315e-06
-2.19184e-07
-2.81924e-06
-2.24886e-07
-2.73328e-06
-2.30445e-07
-2.64534e-06
-2.35855e-07
-2.55547e-06
-2.41111e-07
-2.46373e-06
-2.46207e-07
-2.37018e-06
-2.51138e-07
-2.27488e-06
-2.55898e-07
-2.1779e-06
-2.60482e-07
-2.0793e-06
-2.64885e-07
-1.97916e-06
-2.69104e-07
-1.87754e-06
-2.73132e-07
-1.77452e-06
-2.76966e-07
-1.67016e-06
-2.80602e-07
-1.56455e-06
-2.84038e-07
-1.45775e-06
-2.8727e-07
-1.34984e-06
-2.90296e-07
-1.24091e-06
-2.93116e-07
-1.13104e-06
-2.95725e-07
-1.02031e-06
-2.98112e-07
-9.0883e-07
-3.0024e-07
-7.96761e-07
-3.02003e-07
-6.84352e-07
-3.03135e-07
-5.7207e-07
-3.03032e-07
-4.60791e-07
-3.00467e-07
-3.52115e-07
-2.93213e-07
-2.4877e-07
-2.77728e-07
-1.55017e-07
-2.49209e-07
-7.68745e-08
-2.02524e-07
-2.20553e-08
-1.34483e-07
-4.75416e-08
-2.23072e-08
6.17147e-08
-7.79031e-08
1.72272e-07
-1.56926e-07
2.58138e-07
-2.51382e-07
3.17093e-07
-3.55211e-07
3.53275e-07
-4.64231e-07
3.73123e-07
-5.75816e-07
3.82669e-07
-6.88453e-07
3.86375e-07
-8.01325e-07
3.8704e-07
-9.14003e-07
3.86207e-07
-1.02626e-06
3.84632e-07
-1.13796e-06
3.8265e-07
-1.249e-06
3.80395e-07
-1.35932e-06
3.77914e-07
-1.46884e-06
3.75221e-07
-1.5775e-06
3.72319e-07
-1.68522e-06
3.69207e-07
-1.79196e-06
3.65887e-07
-1.89764e-06
3.62358e-07
-2.00221e-06
3.5862e-07
-2.10559e-06
3.54674e-07
-2.20774e-06
3.50523e-07
-2.30859e-06
3.46167e-07
-2.40808e-06
3.41607e-07
-2.50615e-06
3.36847e-07
-2.60274e-06
3.31888e-07
-2.6978e-06
3.26732e-07
-2.79126e-06
3.21381e-07
-2.88308e-06
3.15838e-07
-2.9732e-06
3.10106e-07
-3.06156e-06
3.04187e-07
-3.1481e-06
2.98083e-07
-3.23279e-06
2.91798e-07
-3.31556e-06
2.85333e-07
-3.39636e-06
2.78694e-07
-3.47515e-06
2.71881e-07
-3.55187e-06
2.64899e-07
-3.62648e-06
2.5775e-07
-3.69893e-06
2.50437e-07
-3.76917e-06
2.42965e-07
-3.83716e-06
2.35335e-07
-3.90286e-06
2.27553e-07
-3.96622e-06
2.1962e-07
-4.02721e-06
2.11542e-07
-4.08577e-06
2.03321e-07
-4.14188e-06
1.9496e-07
-4.19549e-06
1.86465e-07
-4.24657e-06
1.77838e-07
-4.29508e-06
1.69084e-07
-4.34099e-06
1.60207e-07
-4.38426e-06
1.51211e-07
-4.42487e-06
1.42099e-07
-4.46277e-06
1.32876e-07
-4.49795e-06
1.23547e-07
-4.53038e-06
1.14116e-07
-4.56002e-06
1.04587e-07
-4.58685e-06
9.49646e-08
-4.61085e-06
8.52541e-08
-4.632e-06
7.54599e-08
-4.65027e-06
6.55869e-08
-4.66565e-06
5.56402e-08
-4.67811e-06
4.56246e-08
-4.68765e-06
3.55455e-08
-4.69424e-06
2.5408e-08
-4.69788e-06
1.52177e-08
-4.69854e-06
4.97985e-09
-4.69623e-06
-5.29978e-09
-4.69093e-06
-1.56156e-08
-4.68263e-06
-2.59616e-08
-4.67133e-06
-3.63319e-08
-4.65703e-06
-4.67204e-08
-4.63973e-06
-5.71209e-08
-4.61942e-06
-6.7527e-08
-4.59611e-06
-7.79324e-08
-4.56979e-06
-8.83303e-08
-4.54049e-06
-9.87142e-08
-4.5082e-06
-1.09077e-07
-4.47294e-06
-1.19412e-07
-4.43471e-06
-1.29713e-07
-4.39353e-06
-1.39971e-07
-4.34942e-06
-1.5018e-07
-4.30239e-06
-1.60332e-07
-4.25246e-06
-1.70419e-07
-4.19967e-06
-1.80435e-07
-4.14402e-06
-1.90371e-07
-4.08554e-06
-2.0022e-07
-4.02428e-06
-2.09973e-07
-3.96025e-06
-2.19623e-07
-3.89349e-06
-2.29162e-07
-3.82403e-06
-2.38581e-07
-3.75192e-06
-2.47873e-07
-3.67719e-06
-2.57029e-07
-3.59988e-06
-2.66042e-07
-3.52004e-06
-2.74902e-07
-3.43772e-06
-2.83602e-07
-3.35296e-06
-2.92133e-07
-3.26582e-06
-3.00488e-07
-3.17634e-06
-3.08658e-07
-3.0846e-06
-3.16635e-07
-2.99063e-06
-3.24411e-07
-2.89451e-06
-3.31978e-07
-2.79629e-06
-3.39329e-07
-2.69604e-06
-3.46455e-07
-2.59383e-06
-3.5335e-07
-2.48972e-06
-3.60006e-07
-2.38379e-06
-3.66415e-07
-2.2761e-06
-3.72572e-07
-2.16673e-06
-3.78469e-07
-2.05577e-06
-3.841e-07
-1.94327e-06
-3.89459e-07
-1.82933e-06
-3.94541e-07
-1.71403e-06
-3.99341e-07
-1.59745e-06
-4.03854e-07
-1.47967e-06
-4.08078e-07
-1.36077e-06
-4.12007e-07
-1.24087e-06
-4.15634e-07
-1.12004e-06
-4.18937e-07
-9.9842e-07
-4.21861e-07
-8.7617e-07
-4.24252e-07
-7.53562e-07
-4.25743e-07
-6.31077e-07
-4.25517e-07
-5.09612e-07
-4.21932e-07
-3.90797e-07
-4.12028e-07
-2.77435e-07
-3.9109e-07
-1.73991e-07
-3.52654e-07
-8.69858e-08
-2.89529e-07
-2.52191e-08
-1.9625e-07
-7.27607e-08
-2.39141e-08
8.5629e-08
-8.33335e-08
2.31692e-07
-1.67403e-07
3.42207e-07
-2.67421e-07
4.17111e-07
-3.7696e-07
4.62814e-07
-4.91693e-07
4.87856e-07
-6.08958e-07
4.99934e-07
-7.27241e-07
5.04658e-07
-8.45731e-07
5.05531e-07
-9.64005e-07
5.04481e-07
-1.08183e-06
5.0246e-07
-1.19908e-06
4.99893e-07
-1.31563e-06
4.96954e-07
-1.43143e-06
4.93707e-07
-1.54638e-06
4.90174e-07
-1.66042e-06
4.86361e-07
-1.77349e-06
4.82271e-07
-1.8855e-06
4.77904e-07
-1.99641e-06
4.73261e-07
-2.10613e-06
4.68344e-07
-2.21461e-06
4.63155e-07
-2.32178e-06
4.57695e-07
-2.42758e-06
4.51966e-07
-2.53195e-06
4.45972e-07
-2.63481e-06
4.39715e-07
-2.73612e-06
4.33197e-07
-2.83581e-06
4.26421e-07
-2.93382e-06
4.19392e-07
-3.0301e-06
4.12111e-07
-3.12457e-06
4.04583e-07
-3.2172e-06
3.96811e-07
-3.30791e-06
3.88798e-07
-3.39667e-06
3.80549e-07
-3.4834e-06
3.72066e-07
-3.56806e-06
3.63355e-07
-3.6506e-06
3.54419e-07
-3.73096e-06
3.45261e-07
-3.8091e-06
3.35888e-07
-3.88496e-06
3.26301e-07
-3.95851e-06
3.16507e-07
-4.02968e-06
3.0651e-07
-4.09844e-06
2.96313e-07
-4.16474e-06
2.85923e-07
-4.22854e-06
2.75343e-07
-4.2898e-06
2.64578e-07
-4.34848e-06
2.53634e-07
-4.40453e-06
2.42515e-07
-4.45791e-06
2.31227e-07
-4.5086e-06
2.19774e-07
-4.55656e-06
2.08162e-07
-4.60175e-06
1.96397e-07
-4.64413e-06
1.84484e-07
-4.68368e-06
1.72428e-07
-4.72037e-06
1.60235e-07
-4.75417e-06
1.47911e-07
-4.78504e-06
1.35462e-07
-4.81297e-06
1.22894e-07
-4.83793e-06
1.10213e-07
-4.8599e-06
9.74256e-08
-4.87885e-06
8.45377e-08
-4.89476e-06
7.15559e-08
-4.90763e-06
5.8487e-08
-4.91742e-06
4.53377e-08
-4.92412e-06
3.21149e-08
-4.92773e-06
1.88256e-08
-4.92823e-06
5.47691e-09
-4.92561e-06
-7.92374e-09
-4.91985e-06
-2.1369e-08
-4.91096e-06
-3.48511e-08
-4.89893e-06
-4.83624e-08
-4.88376e-06
-6.1895e-08
-4.86544e-06
-7.54408e-08
-4.84397e-06
-8.89915e-08
-4.81937e-06
-1.02539e-07
-4.79162e-06
-1.16074e-07
-4.76075e-06
-1.29589e-07
-4.72675e-06
-1.43075e-07
-4.68964e-06
-1.56522e-07
-4.64943e-06
-1.69921e-07
-4.60614e-06
-1.83264e-07
-4.55978e-06
-1.9654e-07
-4.51037e-06
-2.0974e-07
-4.45794e-06
-2.22855e-07
-4.4025e-06
-2.35875e-07
-4.34408e-06
-2.48789e-07
-4.28271e-06
-2.61588e-07
-4.21842e-06
-2.74261e-07
-4.15125e-06
-2.86799e-07
-4.08122e-06
-2.9919e-07
-4.00837e-06
-3.11425e-07
-3.93276e-06
-3.23492e-07
-3.8544e-06
-3.35383e-07
-3.77336e-06
-3.47085e-07
-3.68967e-06
-3.58588e-07
-3.60339e-06
-3.69882e-07
-3.51457e-06
-3.80957e-07
-3.42326e-06
-3.91801e-07
-3.32951e-06
-4.02404e-07
-3.23339e-06
-4.12756e-07
-3.13495e-06
-4.22847e-07
-3.03426e-06
-4.32666e-07
-2.93139e-06
-4.42204e-07
-2.82639e-06
-4.5145e-07
-2.71935e-06
-4.60395e-07
-2.61033e-06
-4.69029e-07
-2.4994e-06
-4.77344e-07
-2.38664e-06
-4.8533e-07
-2.27213e-06
-4.92979e-07
-2.15595e-06
-5.00283e-07
-2.03817e-06
-5.07233e-07
-1.91889e-06
-5.13823e-07
-1.79819e-06
-5.20046e-07
-1.67614e-06
-5.25895e-07
-1.55286e-06
-5.31366e-07
-1.42841e-06
-5.36449e-07
-1.30291e-06
-5.41133e-07
-1.17646e-06
-5.45389e-07
-1.04919e-06
-5.49138e-07
-9.21255e-07
-5.52184e-07
-7.92938e-07
-5.5406e-07
-6.64714e-07
-5.5374e-07
-5.37474e-07
-5.49172e-07
-4.12849e-07
-5.36654e-07
-2.93682e-07
-5.10258e-07
-1.84584e-07
-4.61751e-07
-9.24583e-08
-3.81655e-07
-2.68273e-08
-2.61881e-07
-9.95881e-08
-2.46504e-08
1.10279e-07
-8.60411e-08
2.93083e-07
-1.72857e-07
4.29024e-07
-2.75972e-07
5.20225e-07
-3.88703e-07
5.75546e-07
-5.06613e-07
6.05766e-07
-6.27008e-07
6.20329e-07
-7.48376e-07
6.26026e-07
-8.69917e-07
6.27072e-07
-9.91217e-07
6.25781e-07
-1.11205e-06
6.23293e-07
-1.23228e-06
6.20123e-07
-1.35181e-06
6.16481e-07
-1.47055e-06
6.12448e-07
-1.58843e-06
6.08052e-07
-1.70537e-06
6.03304e-07
-1.82131e-06
5.98207e-07
-1.93617e-06
5.92764e-07
-2.04988e-06
5.86977e-07
-2.16239e-06
5.80847e-07
-2.27361e-06
5.74378e-07
-2.38349e-06
5.67572e-07
-2.49195e-06
5.60432e-07
-2.59894e-06
5.52962e-07
-2.70439e-06
5.45165e-07
-2.80824e-06
5.37044e-07
-2.91042e-06
5.28604e-07
-3.01088e-06
5.19848e-07
-3.10955e-06
5.10781e-07
-3.20637e-06
5.01407e-07
-3.30129e-06
4.9173e-07
-3.39425e-06
4.81755e-07
-3.48518e-06
4.71487e-07
-3.57405e-06
4.60931e-07
-3.66078e-06
4.50091e-07
-3.74534e-06
4.38973e-07
-3.82766e-06
4.27582e-07
-3.90769e-06
4.15923e-07
-3.9854e-06
4.04002e-07
-4.06071e-06
3.91824e-07
-4.1336e-06
3.79395e-07
-4.204e-06
3.6672e-07
-4.27189e-06
3.53806e-07
-4.3372e-06
3.40659e-07
-4.39991e-06
3.27284e-07
-4.45996e-06
3.13688e-07
-4.51732e-06
2.99877e-07
-4.57196e-06
2.85858e-07
-4.62382e-06
2.71637e-07
-4.67288e-06
2.5722e-07
-4.71909e-06
2.42615e-07
-4.76244e-06
2.27829e-07
-4.80288e-06
2.12867e-07
-4.84038e-06
1.97738e-07
-4.87492e-06
1.82449e-07
-4.90646e-06
1.67006e-07
-4.93499e-06
1.51419e-07
-4.96047e-06
1.35693e-07
-4.98288e-06
1.19838e-07
-5.0022e-06
1.0386e-07
-5.01842e-06
8.77685e-08
-5.0315e-06
7.15711e-08
-5.04144e-06
5.52763e-08
-5.04822e-06
3.88926e-08
-5.05182e-06
2.24288e-08
-5.05224e-06
5.89383e-09
-5.04946e-06
-1.07034e-08
-5.04347e-06
-2.73536e-08
-5.03428e-06
-4.40474e-08
-5.02186e-06
-6.07751e-08
-5.00623e-06
-7.75271e-08
-4.98738e-06
-9.42933e-08
-4.96531e-06
-1.11064e-07
-4.94002e-06
-1.27828e-07
-4.91152e-06
-1.44575e-07
-4.87981e-06
-1.61295e-07
-4.84491e-06
-1.77977e-07
-4.80682e-06
-1.94609e-07
-4.76556e-06
-2.1118e-07
-4.72115e-06
-2.2768e-07
-4.67359e-06
-2.44096e-07
-4.62291e-06
-2.60416e-07
-4.56914e-06
-2.76629e-07
-4.51229e-06
-2.92723e-07
-4.4524e-06
-3.08684e-07
-4.38948e-06
-3.24502e-07
-4.32358e-06
-3.40164e-07
-4.25472e-06
-3.55656e-07
-4.18295e-06
-3.70966e-07
-4.10829e-06
-3.86082e-07
-4.03079e-06
-4.0099e-07
-3.9505e-06
-4.15677e-07
-3.86745e-06
-4.30132e-07
-3.7817e-06
-4.4434e-07
-3.69329e-06
-4.58289e-07
-3.60229e-06
-4.71965e-07
-3.50873e-06
-4.85356e-07
-3.41268e-06
-4.9845e-07
-3.31421e-06
-5.11232e-07
-3.21336e-06
-5.23692e-07
-3.11021e-06
-5.35815e-07
-3.00483e-06
-5.4759e-07
-2.89727e-06
-5.59006e-07
-2.78762e-06
-5.70049e-07
-2.67594e-06
-5.80708e-07
-2.56231e-06
-5.90972e-07
-2.44681e-06
-6.0083e-07
-2.32952e-06
-6.10272e-07
-2.21051e-06
-6.19287e-07
-2.08988e-06
-6.27866e-07
-1.9677e-06
-6.35998e-07
-1.84407e-06
-6.43677e-07
-1.71908e-06
-6.50892e-07
-1.59281e-06
-6.57637e-07
-1.46535e-06
-6.639e-07
-1.33682e-06
-6.69665e-07
-1.20732e-06
-6.74893e-07
-1.07697e-06
-6.79488e-07
-9.45941e-07
-6.83212e-07
-8.14501e-07
-6.855e-07
-6.83119e-07
-6.85123e-07
-5.52673e-07
-6.79617e-07
-4.24795e-07
-6.64532e-07
-3.02362e-07
-6.32691e-07
-1.90104e-07
-5.7401e-07
-9.51833e-08
-4.76576e-07
-2.756e-08
-3.29504e-07
-1.27148e-07
-2.49528e-08
1.35232e-07
-8.73097e-08
3.55439e-07
-1.75577e-07
5.17291e-07
-2.80392e-07
6.2504e-07
-3.94907e-07
6.90061e-07
-5.14599e-07
7.25457e-07
-6.36741e-07
7.42471e-07
-7.59821e-07
7.49106e-07
-8.83044e-07
7.50295e-07
-1.006e-06
7.4874e-07
-1.12848e-06
7.4577e-07
-1.25034e-06
7.41983e-07
-1.37149e-06
7.37626e-07
-1.49183e-06
7.32795e-07
-1.6113e-06
7.27524e-07
-1.72983e-06
7.21827e-07
-1.84733e-06
7.15709e-07
-1.96374e-06
7.09174e-07
-2.07899e-06
7.02225e-07
-2.19301e-06
6.94865e-07
-2.30573e-06
6.87097e-07
-2.41708e-06
6.78925e-07
-2.527e-06
6.70353e-07
-2.63542e-06
6.61385e-07
-2.74228e-06
6.52025e-07
-2.84752e-06
6.42278e-07
-2.95106e-06
6.32148e-07
-3.05285e-06
6.21641e-07
-3.15283e-06
6.10761e-07
-3.25094e-06
5.99514e-07
-3.34712e-06
5.87905e-07
-3.4413e-06
5.7594e-07
-3.53344e-06
5.63624e-07
-3.62347e-06
5.50964e-07
-3.71135e-06
5.37966e-07
-3.79701e-06
5.24635e-07
-3.88041e-06
5.10978e-07
-3.96148e-06
4.97002e-07
-4.0402e-06
4.82713e-07
-4.11649e-06
4.68118e-07
-4.19032e-06
4.53224e-07
-4.26164e-06
4.38037e-07
-4.3304e-06
4.22565e-07
-4.39655e-06
4.06815e-07
-4.46006e-06
3.90795e-07
-4.52089e-06
3.74511e-07
-4.57898e-06
3.57972e-07
-4.63431e-06
3.41185e-07
-4.68683e-06
3.24158e-07
-4.73651e-06
3.06899e-07
-4.78331e-06
2.89417e-07
-4.8272e-06
2.71719e-07
-4.86815e-06
2.53813e-07
-4.90612e-06
2.35709e-07
-4.94108e-06
2.17416e-07
-4.97302e-06
1.98941e-07
-5.00189e-06
1.80294e-07
-5.02768e-06
1.61484e-07
-5.05037e-06
1.42521e-07
-5.06992e-06
1.23414e-07
-5.08632e-06
1.04172e-07
-5.09956e-06
8.48057e-08
-5.10961e-06
6.53249e-08
-5.11646e-06
4.57399e-08
-5.12009e-06
2.60609e-08
-5.12049e-06
6.29875e-09
-5.11766e-06
-1.3536e-08
-5.11158e-06
-3.34322e-08
-5.10225e-06
-5.33786e-08
-5.08966e-06
-7.33639e-08
-5.07381e-06
-9.33763e-08
-5.0547e-06
-1.13404e-07
-5.03233e-06
-1.33435e-07
-5.0067e-06
-1.53457e-07
-4.97782e-06
-1.73457e-07
-4.94569e-06
-1.93423e-07
-4.91032e-06
-2.13342e-07
-4.87173e-06
-2.332e-07
-4.82993e-06
-2.52985e-07
-4.78493e-06
-2.72682e-07
-4.73675e-06
-2.92277e-07
-4.6854e-06
-3.11758e-07
-4.63092e-06
-3.31109e-07
-4.57333e-06
-3.50316e-07
-4.51265e-06
-3.69365e-07
-4.44891e-06
-3.88241e-07
-4.38214e-06
-4.0693e-07
-4.31239e-06
-4.25415e-07
-4.23967e-06
-4.43683e-07
-4.16403e-06
-4.61717e-07
-4.08552e-06
-4.79503e-07
-4.00417e-06
-4.97025e-07
-3.92004e-06
-5.14269e-07
-3.83316e-06
-5.31217e-07
-3.74359e-06
-5.47856e-07
-3.65139e-06
-5.6417e-07
-3.5566e-06
-5.80142e-07
-3.45929e-06
-5.95759e-07
-3.35952e-06
-6.11005e-07
-3.25734e-06
-6.25865e-07
-3.15283e-06
-6.40325e-07
-3.04605e-06
-6.54368e-07
-2.93708e-06
-6.67982e-07
-2.82597e-06
-6.81152e-07
-2.71282e-06
-6.93864e-07
-2.59768e-06
-7.06105e-07
-2.48065e-06
-7.17861e-07
-2.36181e-06
-7.29121e-07
-2.24122e-06
-7.39871e-07
-2.11899e-06
-7.501e-07
-1.99519e-06
-7.59797e-07
-1.86992e-06
-7.6895e-07
-1.74326e-06
-7.77551e-07
-1.61531e-06
-7.85587e-07
-1.48616e-06
-7.93046e-07
-1.35592e-06
-7.99907e-07
-1.22469e-06
-8.06123e-07
-1.0926e-06
-8.11581e-07
-9.59809e-07
-8.16001e-07
-8.26583e-07
-8.18726e-07
-6.93383e-07
-8.18323e-07
-5.61082e-07
-8.11918e-07
-4.31317e-07
-7.94297e-07
-3.07e-07
-7.57009e-07
-1.92951e-07
-6.88059e-07
-9.65079e-08
-5.73019e-07
-2.78746e-08
-3.98138e-07
-1.55023e-07
-2.50764e-08
1.60309e-07
-8.79289e-08
4.18292e-07
-1.77006e-07
6.06368e-07
-2.82818e-07
7.30852e-07
-3.98409e-07
8.05653e-07
-5.19192e-07
8.4624e-07
-6.4241e-07
8.6569e-07
-7.66543e-07
8.73238e-07
-8.90798e-07
8.7455e-07
-1.01477e-06
8.72714e-07
-1.13825e-06
8.69248e-07
-1.2611e-06
8.64834e-07
-1.38323e-06
8.59753e-07
-1.50455e-06
8.54116e-07
-1.62498e-06
8.47962e-07
-1.74447e-06
8.41308e-07
-1.86292e-06
8.3416e-07
-1.98027e-06
8.26524e-07
-2.09645e-06
8.18404e-07
-2.21138e-06
8.09803e-07
-2.32501e-06
8.00726e-07
-2.43726e-06
7.91176e-07
-2.54807e-06
7.8116e-07
-2.65737e-06
7.70681e-07
-2.76509e-06
7.59746e-07
-2.87117e-06
7.48358e-07
-2.97555e-06
7.36525e-07
-3.07816e-06
7.24252e-07
-3.17894e-06
7.11544e-07
-3.27783e-06
6.98408e-07
-3.37478e-06
6.84851e-07
-3.46972e-06
6.7088e-07
-3.5626e-06
6.565e-07
-3.65335e-06
6.41719e-07
-3.74193e-06
6.26545e-07
-3.82828e-06
6.10984e-07
-3.91234e-06
5.95044e-07
-3.99407e-06
5.78732e-07
-4.07342e-06
5.62056e-07
-4.15032e-06
5.45025e-07
-4.22475e-06
5.27646e-07
-4.29664e-06
5.09927e-07
-4.36595e-06
4.91877e-07
-4.43264e-06
4.73505e-07
-4.49666e-06
4.54818e-07
-4.55798e-06
4.35826e-07
-4.61654e-06
4.16538e-07
-4.67232e-06
3.96962e-07
-4.72527e-06
3.77108e-07
-4.77535e-06
3.56985e-07
-4.82254e-06
3.36603e-07
-4.86679e-06
3.15971e-07
-4.90808e-06
2.951e-07
-4.94637e-06
2.73999e-07
-4.98163e-06
2.52678e-07
-5.01384e-06
2.31148e-07
-5.04296e-06
2.09419e-07
-5.06898e-06
1.87502e-07
-5.09187e-06
1.65407e-07
-5.1116e-06
1.43147e-07
-5.12816e-06
1.20731e-07
-5.14153e-06
9.81721e-08
-5.15168e-06
7.54813e-08
-5.15861e-06
5.26706e-08
-5.1623e-06
2.97521e-08
-5.16274e-06
6.73819e-09
-5.15992e-06
-1.63588e-08
-5.15383e-06
-3.95258e-08
-5.14446e-06
-6.27499e-08
-5.1318e-06
-8.60178e-08
-5.11586e-06
-1.09316e-07
-5.09664e-06
-1.32631e-07
-5.07412e-06
-1.55948e-07
-5.04833e-06
-1.79253e-07
-5.01925e-06
-2.02532e-07
-4.9869e-06
-2.2577e-07
-4.95129e-06
-2.48952e-07
-4.91243e-06
-2.72062e-07
-4.87033e-06
-2.95085e-07
-4.82501e-06
-3.18006e-07
-4.77648e-06
-3.40808e-07
-4.72476e-06
-3.63475e-07
-4.66988e-06
-3.8599e-07
-4.61186e-06
-4.08338e-07
-4.55072e-06
-4.305e-07
-4.4865e-06
-4.52461e-07
-4.41923e-06
-4.74202e-07
-4.34894e-06
-4.95707e-07
-4.27566e-06
-5.16958e-07
-4.19944e-06
-5.37937e-07
-4.12032e-06
-5.58626e-07
-4.03834e-06
-5.79009e-07
-3.95354e-06
-5.99066e-07
-3.86598e-06
-6.18781e-07
-3.7757e-06
-6.38134e-07
-3.68276e-06
-6.57109e-07
-3.58721e-06
-6.75688e-07
-3.48912e-06
-6.93853e-07
-3.38854e-06
-7.11586e-07
-3.28554e-06
-7.28869e-07
-3.18017e-06
-7.45687e-07
-3.07252e-06
-7.62021e-07
-2.96265e-06
-7.77855e-07
-2.85063e-06
-7.93173e-07
-2.73653e-06
-8.07959e-07
-2.62044e-06
-8.22196e-07
-2.50243e-06
-8.35869e-07
-2.38259e-06
-8.48964e-07
-2.26099e-06
-8.61467e-07
-2.13773e-06
-8.73363e-07
-2.01289e-06
-8.8464e-07
-1.88655e-06
-8.95284e-07
-1.75882e-06
-9.05283e-07
-1.62978e-06
-9.14625e-07
-1.49954e-06
-9.23293e-07
-1.36818e-06
-9.31262e-07
-1.23583e-06
-9.3848e-07
-1.10259e-06
-9.44814e-07
-9.68645e-07
-9.49948e-07
-8.34241e-07
-9.53131e-07
-6.99838e-07
-9.52726e-07
-5.66311e-07
-9.45445e-07
-4.35307e-07
-9.25301e-07
-3.09772e-07
-8.82545e-07
-1.94596e-07
-8.03234e-07
-9.72352e-08
-6.7038e-07
-2.80295e-08
-4.67344e-07
-1.83052e-07
-2.51481e-08
1.85457e-07
-8.83165e-08
4.8146e-07