/*--------------------------------*- C++ -*----------------------------------*\
| =========                 |                                                 |
| \\      /  F ield         | OpenFOAM: The Open Source CFD Toolbox           |
|  \\    /   O peration     | Version:  2406                                  |
|   \\  /    A nd           | Website:  www.openfoam.com                      |
|    \\/     M anipulation  |                                                 |
\*---------------------------------------------------------------------------*/
FoamFile
{
    version     2.0;
    format      ascii;
    arch        "LSB;label=32;scalar=64";
    class       volVectorField;
    location    "35.4";
    object      U;
}
// * * * * * * * * * * * * * * * * * * * * * * * * * * * * * * * * * * * * * //

dimensions      [0 1 -1 0 0 0 0];

internalField   nonuniform List<vector> 
900
(
(0.000293489 -0.000512694 0)
(0.00354623 -0.00122982 0)
(0.00726373 -0.000978275 0)
(0.00881919 -0.000539629 0)
(0.0092862 -0.000454309 0)
(0.00906174 -0.000729058 0)
(0.00890663 -0.00113311 0)
(0.00864964 -0.00158594 0)
(0.00759501 -0.00289014 0)
(0.00332715 -0.00459238 0)
(-0.00638558 -0.00316512 0)
(-0.0227309 0.00266843 0)
(-0.0448938 0.00888136 0)
(-0.0689231 0.0118326 0)
(-0.0907359 0.0117011 0)
(-0.107965 0.00985252 0)
(-0.119203 0.00699037 0)
(-0.12343 0.00349625 0)
(-0.120177 -0.000382638 0)
(-0.108857 -0.00441475 0)
(-0.0899137 -0.00825242 0)
(-0.0635801 -0.0113365 0)
(-0.0327585 -0.0128342 0)
(-9.11022e-05 -0.0117051 0)
(0.0267472 -0.00673671 0)
(0.0419195 0.000594623 0)
(0.0392766 0.00668351 0)
(0.0257868 0.0072237 0)
(0.0122523 0.00495188 0)
(0.00158699 0.00198839 0)
(0.00117384 -0.00330822 0)
(0.00675937 -0.00583801 0)
(0.0122192 -0.00425064 0)
(0.0140219 -0.0015034 0)
(0.013333 0.000254343 0)
(0.0100711 0.00112167 0)
(0.00387184 0.00159338 0)
(-0.00857935 0.00291236 0)
(-0.030375 0.00832701 0)
(-0.0614599 0.018907 0)
(-0.0975654 0.0296645 0)
(-0.132273 0.0362364 0)
(-0.161462 0.0376086 0)
(-0.184177 0.0342513 0)
(-0.200653 0.0275941 0)
(-0.210848 0.0188462 0)
(-0.214606 0.00871889 0)
(-0.211671 -0.00233605 0)
(-0.201834 -0.0139603 0)
(-0.184714 -0.0257575 0)
(-0.160358 -0.0368457 0)
(-0.128841 -0.0459526 0)
(-0.0916492 -0.0506386 0)
(-0.0511082 -0.0482295 0)
(-0.0123508 -0.0352027 0)
(0.0182249 -0.0133707 0)
(0.0317769 0.0097456 0)
(0.0270673 0.0194895 0)
(0.0157649 0.019556 0)
(0.00239235 0.0118566 0)
(0.00200931 -0.00838697 0)
(0.0080819 -0.0123463 0)
(0.012245 -0.00818985 0)
(0.0112499 -0.00170862 0)
(0.00592611 0.00348147 0)
(-0.00565587 0.0086618 0)
(-0.0266795 0.017501 0)
(-0.0595534 0.0327349 0)
(-0.10086 0.0499357 0)
(-0.142074 0.0621227 0)
(-0.177495 0.0670687 0)
(-0.205673 0.06613 0)
(-0.22684 0.0603459 0)
(-0.241916 0.050545 0)
(-0.251854 0.0379334 0)
(-0.257148 0.0233958 0)
(-0.258117 0.00749006 0)
(-0.254692 -0.00957079 0)
(-0.246671 -0.0274921 0)
(-0.233489 -0.046061 0)
(-0.214546 -0.0640759 0)
(-0.189125 -0.0801346 0)
(-0.156715 -0.0903448 0)
(-0.118032 -0.0910902 0)
(-0.0743859 -0.075582 0)
(-0.0317674 -0.0435066 0)
(0.00183142 -0.00181041 0)
(0.0109973 0.0226652 0)
(0.00891253 0.0296053 0)
(0.00036906 0.0197804 0)
(0.00256127 -0.0133505 0)
(0.00685158 -0.0161481 0)
(0.00645398 -0.0073371 0)
(-0.000997028 0.00484326 0)
(-0.0162878 0.0172487 0)
(-0.0425797 0.0338381 0)
(-0.0804779 0.0556122 0)
(-0.123917 0.0770059 0)
(-0.164036 0.0908099 0)
(-0.196664 0.0957414 0)
(-0.221825 0.0934702 0)
(-0.240067 0.0857204 0)
(-0.252443 0.0739521 0)
(-0.260254 0.0593681 0)
(-0.264702 0.0429422 0)
(-0.266533 0.0251775 0)
(-0.266272 0.006307 0)
(-0.264007 -0.0138502 0)
(-0.259684 -0.0352357 0)
(-0.252726 -0.0581256 0)
(-0.242359 -0.0813934 0)
(-0.227172 -0.104198 0)
(-0.20535 -0.121962 0)
(-0.175237 -0.131018 0)
(-0.134711 -0.121269 0)
(-0.0863253 -0.0895878 0)
(-0.033835 -0.0322214 0)
(-0.0018518 0.0122041 0)
(0.00328734 0.030614 0)
(-0.001272 0.0212463 0)
(0.00229102 -0.0178245 0)
(0.00217528 -0.0163584 0)
(-0.00559229 -0.000349487 0)
(-0.0224624 0.0209719 0)
(-0.049759 0.0450298 0)
(-0.0872979 0.0727297 0)
(-0.129255 0.098694 0)
(-0.167244 0.116208 0)
(-0.196946 0.122484 0)
(-0.218374 0.119588 0)
(-0.232624 0.110183 0)
(-0.240968 0.0965396 0)
(-0.245141 0.0803557 0)
(-0.246425 0.062639 0)
(-0.246132 0.044095 0)
(-0.244915 0.0248563 0)
(-0.243479 0.00493744 0)
(-0.241944 -0.0162079 0)
(-0.240618 -0.0387007 0)
(-0.239048 -0.0634109 0)
(-0.236934 -0.0895081 0)
(-0.232636 -0.117235 0)
(-0.224211 -0.142254 0)
(-0.208056 -0.161959 0)
(-0.17979 -0.164528 0)
(-0.136325 -0.144385 0)
(-0.0771042 -0.086106 0)
(-0.016461 -0.0147741 0)
(0.00321117 0.0291819 0)
(-0.00146364 0.0215943 0)
(0.000443923 -0.0177427 0)
(-0.00683046 -0.00819133 0)
(-0.0235671 0.0174527 0)
(-0.0494098 0.049147 0)
(-0.08408 0.0821623 0)
(-0.122843 0.113407 0)
(-0.158626 0.135565 0)
(-0.185782 0.144663 0)
(-0.203787 0.141987 0)
(-0.214213 0.13158 0)
(-0.218732 0.116242 0)
(-0.219197 0.0984286 0)
(-0.217292 0.0796026 0)
(-0.214171 0.0605434 0)
(-0.210912 0.0416369 0)
(-0.207888 0.0226859 0)
(-0.205712 0.00355057 0)
(-0.20433 -0.0165949 0)
(-0.204312 -0.0379043 0)
(-0.205315 -0.0617594 0)
(-0.207874 -0.0875876 0)
(-0.210734 -0.116984 0)
(-0.213124 -0.146462 0)
(-0.211086 -0.175702 0)
(-0.199778 -0.193081 0)
(-0.172294 -0.19259 0)
(-0.122032 -0.151768 0)
(-0.0508805 -0.0684186 0)
(0.00604284 0.0160044 0)
(-0.00181915 0.0229811 0)
(-0.00229763 -0.0115352 0)
(-0.0170758 0.00764485 0)
(-0.0413382 0.0421747 0)
(-0.072082 0.0814599 0)
(-0.107497 0.118354 0)
(-0.141038 0.147149 0)
(-0.16728 0.161498 0)
(-0.183576 0.161311 0)
(-0.191908 0.150857 0)
(-0.194152 0.134497 0)
(-0.192485 0.11515 0)
(-0.188776 0.0951025 0)
(-0.184438 0.075352 0)
(-0.180209 0.056271 0)
(-0.176713 0.0378754 0)
(-0.173869 0.01968 0)
(-0.172065 0.00151127 0)
(-0.170929 -0.017573 0)
(-0.171141 -0.0374856 0)
(-0.172219 -0.0598074 0)
(-0.175364 -0.0837507 0)
(-0.179648 -0.111944 0)
(-0.18601 -0.141549 0)
(-0.191399 -0.175293 0)
(-0.192967 -0.203164 0)
(-0.183113 -0.222474 0)
(-0.151094 -0.207069 0)
(-0.0947362 -0.144317 0)
(-0.00772579 -0.0187872 0)
(0.00480796 0.0254222 0)
(-0.00508602 0.00167416 0)
(-0.0259347 0.0310898 0)
(-0.0545791 0.0725221 0)
(-0.0859618 0.115446 0)
(-0.117938 0.151087 0)
(-0.143849 0.17323 0)
(-0.160805 0.178134 0)
(-0.168563 0.169404 0)
(-0.170235 0.152681 0)
(-0.167722 0.132295 0)
(-0.163465 0.110981 0)
(-0.158865 0.0904722 0)
(-0.15484 0.0711136 0)
(-0.151558 0.0528397 0)
(-0.149201 0.0353448 0)
(-0.14735 0.0179844 0)
(-0.14631 0.0006514 0)
(-0.145507 -0.0176542 0)
(-0.14578 -0.0365385 0)
(-0.146388 -0.0577443 0)
(-0.148928 -0.079994 0)
(-0.152289 -0.106566 0)
(-0.158626 -0.134442 0)
(-0.165466 -0.168839 0)
(-0.172864 -0.20122 0)
(-0.173751 -0.234099 0)
(-0.159871 -0.2408 0)
(-0.122683 -0.211306 0)
(-0.0451436 -0.0837113 0)
(0.0183711 0.0203148 0)
(-0.00665289 0.019304 0)
(-0.0306527 0.0571867 0)
(-0.0603427 0.101986 0)
(-0.0894297 0.144757 0)
(-0.116242 0.176046 0)
(-0.134798 0.189951 0)
(-0.144678 0.186153 0)
(-0.146942 0.170739 0)
(-0.145232 0.149986 0)
(-0.141162 0.127703 0)
(-0.137163 0.10626 0)
(-0.133739 0.0864315 0)
(-0.131418 0.0680283 0)
(-0.129724 0.0505741 0)
(-0.128706 0.0336913 0)
(-0.127702 0.0167153 0)
(-0.127163 -0.000245662 0)
(-0.12634 -0.0182187 0)
(-0.126331 -0.0364396 0)
(-0.126061 -0.05686 0)
(-0.127501 -0.0775994 0)
(-0.129083 -0.102545 0)
(-0.133899 -0.128036 0)
(-0.139466 -0.161318 0)
(-0.148448 -0.194572 0)
(-0.154366 -0.235241 0)
(-0.152888 -0.258856 0)
(-0.130557 -0.257863 0)
(-0.0780745 -0.162816 0)
(0.00900945 -0.000150107 0)
(-0.00701861 0.0389787 0)
(-0.0315433 0.0850163 0)
(-0.0599744 0.131194 0)
(-0.0853377 0.171435 0)
(-0.106727 0.196388 0)
(-0.119235 0.20178 0)
(-0.124306 0.190361 0)
(-0.1237 0.170095 0)
(-0.120985 0.146989 0)
(-0.117472 0.124312 0)
(-0.115121 0.103619 0)
(-0.113615 0.0847561 0)
(-0.113174 0.0671492 0)
(-0.112905 0.0501047 0)
(-0.112962 0.0333839 0)
(-0.112552 0.0163544 0)
(-0.112398 -0.000611235 0)
(-0.111561 -0.018654 0)
(-0.111445 -0.0366412 0)
(-0.110553 -0.0568458 0)
(-0.111193 -0.0766814 0)
(-0.111067 -0.100555 0)
(-0.113966 -0.123653 0)
(-0.116802 -0.154716 0)
(-0.124715 -0.185862 0)
(-0.131841 -0.229725 0)
(-0.137865 -0.264297 0)
(-0.1282 -0.285964 0)
(-0.0927507 -0.223918 0)
(-0.0214861 -0.0474776 0)
(-0.00616918 0.0577243 0)
(-0.0289284 0.110184 0)
(-0.0542229 0.155513 0)
(-0.0752114 0.191449 0)
(-0.0917482 0.209781 0)
(-0.0999315 0.207534 0)
(-0.102488 0.190572 0)
(-0.101078 0.167389 0)
(-0.0990878 0.143684 0)
(-0.0972398 0.121763 0)
(-0.0969719 0.102332 0)
(-0.0972852 0.0843947 0)
(-0.0983418 0.0672912 0)
(-0.0990025 0.0502614 0)
(-0.0997043 0.0333742 0)
(-0.0995115 0.0160173 0)
(-0.0994976 -0.00112082 0)
(-0.0984722 -0.0193764 0)
(-0.0982568 -0.0372291 0)
(-0.0968809 -0.057435 0)
(-0.0971597 -0.0767379 0)
(-0.0959013 -0.100243 0)
(-0.0975692 -0.121817 0)
(-0.0976977 -0.151136 0)
(-0.103316 -0.178987 0)
(-0.108213 -0.222396 0)
(-0.117045 -0.262021 0)
(-0.114757 -0.30286 0)
(-0.0912912 -0.269705 0)
(-0.0356672 -0.114252 0)
(-0.00457576 0.074128 0)
(-0.0240579 0.133243 0)
(-0.0454872 0.177348 0)
(-0.062241 0.209042 0)
(-0.0747369 0.221098 0)
(-0.0800865 0.212698 0)
(-0.0814896 0.191614 0)
(-0.080417 0.166828 0)
(-0.0797379 0.143233 0)
(-0.0796882 0.122273 0)
(-0.0811328 0.103743 0)
(-0.0827681 0.0861593 0)
(-0.0847981 0.068962 0)
(-0.0860085 0.0514433 0)
(-0.0871183 0.0340221 0)
(-0.0870187 0.0160454 0)
(-0.0871352 -0.00145715 0)
(-0.0859376 -0.0201038 0)
(-0.0857371 -0.0379363 0)
(-0.0839963 -0.0582925 0)
(-0.0842221 -0.0772242 0)
(-0.0822254 -0.100673 0)
(-0.0834399 -0.121276 0)
(-0.0816797 -0.149661 0)
(-0.0856197 -0.174711 0)
(-0.0874532 -0.216578 0)
(-0.0962829 -0.257282 0)
(-0.0964276 -0.311601 0)
(-0.0813884 -0.30406 0)
(-0.0336741 -0.174966 0)
(-0.0024254 0.0863171 0)
(-0.0176387 0.151081 0)
(-0.0345515 0.193487 0)
(-0.0472927 0.220631 0)
(-0.0565641 0.227521 0)
(-0.0602186 0.214298 0)
(-0.0615723 0.190831 0)
(-0.0614477 0.165557 0)
(-0.0622954 0.142846 0)
(-0.0637504 0.123035 0)
(-0.0664365 0.105329 0)
(-0.0688824 0.0879279 0)
(-0.0715034 0.0705124 0)
(-0.0729927 0.0524273 0)
(-0.0743832 0.0344482 0)
(-0.0742988 0.0158264 0)
(-0.0745678 -0.00202945 0)
(-0.0732051 -0.0210739 0)
(-0.0731292 -0.0388605 0)
(-0.0710934 -0.0593891 0)
(-0.0715231 -0.0780266 0)
(-0.0690279 -0.101639 0)
(-0.0703422 -0.121695 0)
(-0.0672541 -0.149742 0)
(-0.0703023 -0.172458 0)
(-0.0692401 -0.212457 0)
(-0.0777223 -0.25236 0)
(-0.0788005 -0.317412 0)
(-0.0708637 -0.332681 0)
(-0.0303126 -0.229557 0)
(-0.000153696 0.0943097 0)
(-0.0105152 0.165443 0)
(-0.0229553 0.206938 0)
(-0.032131 0.23112 0)
(-0.0387715 0.234081 0)
(-0.0414761 0.217905 0)
(-0.0430227 0.192965 0)
(-0.0438406 0.167685 0)
(-0.0457596 0.145647 0)
(-0.0481436 0.1265 0)
(-0.0514569 0.109005 0)
(-0.0542613 0.0912659 0)
(-0.0571839 0.0732376 0)
(-0.058812 0.0542878 0)
(-0.0604842 0.0355448 0)
(-0.0604584 0.0160857 0)
(-0.061028 -0.00225453 0)
(-0.059606 -0.0218259 0)
(-0.059861 -0.039627 0)
(-0.0576304 -0.0603578 0)
(-0.0585344 -0.0787041 0)
(-0.0557463 -0.10252 0)
(-0.0577139 -0.122278 0)
(-0.0539372 -0.150575 0)
(-0.0570948 -0.171857 0)
(-0.0536649 -0.21008 0)
(-0.061588 -0.246985 0)
(-0.0620647 -0.318352 0)
(-0.0603853 -0.352595 0)
(-0.0263332 -0.276415 0)
(0.00222507 0.0970179 0)
(-0.00309498 0.173763 0)
(-0.0108918 0.214984 0)
(-0.0168106 0.236333 0)
(-0.021312 0.236803 0)
(-0.0234207 0.218521 0)
(-0.0254285 0.193106 0)
(-0.0270288 0.168162 0)
(-0.0297143 0.147025 0)
(-0.0324885 0.128557 0)
(-0.0359996 0.111366 0)
(-0.0387751 0.09346 0)
(-0.0417917 0.0750627 0)
(-0.0433997 0.055492 0)
(-0.0453361 0.036203 0)
(-0.0453573 0.0160626 0)
(-0.0463538 -0.00263996 0)
(-0.04495 -0.0226652 0)
(-0.045762 -0.040425 0)
(-0.0434332 -0.0612943 0)
(-0.04507 -0.0792942 0)
(-0.0420839 -0.103228 0)
(-0.0450608 -0.122663 0)
(-0.0409288 -0.151327 0)
(-0.0451118 -0.17174 0)
(-0.0402689 -0.208999 0)
(-0.0486123 -0.243028 0)
(-0.0482414 -0.318712 0)
(-0.0518689 -0.368122 0)
(-0.0227545 -0.316669 0)
(0.00430119 0.0953502 0)
(0.00422423 0.178527 0)
(0.00083871 0.220686 0)
(-0.00205079 0.241578 0)
(-0.00451517 0.240805 0)
(-0.00613026 0.222214 0)
(-0.00823398 0.196727 0)
(-0.0102212 0.172105 0)
(-0.0130458 0.151267 0)
(-0.015689 0.132872 0)
(-0.0189622 0.115496 0)
(-0.0214027 0.0970876 0)
(-0.0243479 0.0781217 0)
(-0.0258138 0.0577622 0)
(-0.0280495 0.0378298 0)
(-0.0281483 0.0168991 0)
(-0.0297851 -0.00223425 0)
(-0.0285362 -0.0227929 0)
(-0.030232 -0.0405801 0)
(-0.0279799 -0.0616248 0)
(-0.0307119 -0.0793052 0)
(-0.0277022 -0.103332 0)
(-0.0320884 -0.122473 0)
(-0.0278504 -0.151564 0)
(-0.0336929 -0.171409 0)
(-0.027952 -0.207773 0)
(-0.037437 -0.237991 0)
(-0.0360351 -0.315526 0)
(-0.0448785 -0.377562 0)
(-0.0196694 -0.351478 0)
(0.00617221 0.0885658 0)
(0.0110999 0.176976 0)
(0.012253 0.221232 0)
(0.0122371 0.241499 0)
(0.0115903 0.240852 0)
(0.010582 0.222147 0)
(0.00836345 0.197113 0)
(0.00629115 0.172783 0)
(0.00353266 0.152378 0)
(0.00142153 0.134229 0)
(-0.00132517 0.117022 0)
(-0.00305934 0.0985651 0)
(-0.00570309 0.0795174 0)
(-0.00676785 0.0588517 0)
(-0.00922275 0.0387088 0)
(-0.00928354 0.0173585 0)
(-0.0116593 -0.00192242 0)
(-0.0105902 -0.0227858 0)
(-0.0134223 -0.0404624 0)
(-0.011361 -0.0615494 0)
(-0.0155075 -0.0788252 0)
(-0.0125986 -0.102791 0)
(-0.0187482 -0.121509 0)
(-0.0145913 -0.150881 0)
(-0.0227262 -0.170412 0)
(-0.0166979 -0.206568 0)
(-0.0282846 -0.23372 0)
(-0.0258569 -0.311984 0)
(-0.0395681 -0.383726 0)
(-0.0169275 -0.381743 0)
(0.00727497 0.0783016 0)
(0.0172985 0.172328 0)
(0.0227786 0.219683 0)
(0.0257771 0.242254 0)
(0.0273047 0.242626 0)
(0.0272008 0.22561 0)
(0.0254934 0.201224 0)
(0.0237093 0.177057 0)
(0.0214638 0.15637 0)
(0.020182 0.137793 0)
(0.0182064 0.120277 0)
(0.0174109 0.101452 0)
(0.0151796 0.0822081 0)
(0.0146829 0.0611511 0)
(0.0119809 0.040818 0)
(0.0120213 0.0190499 0)
(0.00872188 -0.00034453 0)
(0.00955261 -0.0215004 0)
(0.00526706 -0.039079 0)
(0.00699026 -0.0602262 0)
(0.00105418 -0.0771442 0)
(0.00370765 -0.101032 0)
(-0.00457297 -0.119319 0)
(-0.00060242 -0.148804 0)
(-0.0114665 -0.167926 0)
(-0.00541084 -0.203682 0)
(-0.0199396 -0.227446 0)
(-0.0166058 -0.305287 0)
(-0.0355134 -0.385486 0)
(-0.0144595 -0.40855 0)
(0.00766828 0.0640796 0)
(0.0221728 0.161088 0)
(0.0322291 0.212788 0)
(0.038258 0.236692 0)
(0.0418361 0.239434 0)
(0.0429769 0.223778 0)
(0.0417243 0.200552 0)
(0.0404861 0.176542 0)
(0.0387035 0.155828 0)
(0.0384663 0.137151 0)
(0.0373724 0.119793 0)
(0.0378693 0.1012 0)
(0.0362801 0.0823664 0)
(0.0367347 0.0615715 0)
(0.0339612 0.0416351 0)
(0.0343866 0.020029 0)
(0.030193 0.000977736 0)
(0.0309325 -0.0200592 0)
(0.0250822 -0.0372729 0)
(0.0264871 -0.0582427 0)
(0.0185349 -0.0746736 0)
(0.0208724 -0.0982947 0)
(0.0101537 -0.11603 0)
(0.0138303 -0.145378 0)
(-0.000203448 -0.164122 0)
(0.00561863 -0.199753 0)
(-0.0125969 -0.22091 0)
(-0.00830198 -0.297799 0)
(-0.0325834 -0.384602 0)
(-0.0119978 -0.432382 0)
(0.00641545 0.0487469 0)
(0.0254367 0.147621 0)
(0.039866 0.203811 0)
(0.0494778 0.232664 0)
(0.0559381 0.238126 0)
(0.0589509 0.225864 0)
(0.0590687 0.203997 0)
(0.0587388 0.180165 0)
(0.057687 0.158726 0)
(0.0585164 0.139123 0)
(0.0582523 0.121297 0)
(0.060083 0.102441 0)
(0.0590859 0.0838691 0)
(0.0606235 0.0632377 0)
(0.0577276 0.0438018 0)
(0.0586947 0.0224292 0)
(0.0535094 0.00386881 0)
(0.0542691 -0.0169615 0)
(0.0466808 -0.033721 0)
(0.0478034 -0.0544735 0)
(0.0375908 -0.0704103 0)
(0.0395952 -0.0937233 0)
(0.0261418 -0.11088 0)
(0.0294892 -0.13986 0)
(0.0118991 -0.157996 0)
(0.0173571 -0.193102 0)
(-0.00535541 -0.211608 0)
(-0.000197992 -0.287055 0)
(-0.0305359 -0.380171 0)
(-0.00942135 -0.453892 0)
(0.00391641 0.0322989 0)
(0.0260269 0.127124 0)
(0.0452113 0.188798 0)
(0.0584347 0.22021 0)
(0.0675269 0.229999 0)
(0.0729019 0.220338 0)
(0.0743079 0.200774 0)
(0.0753468 0.177545 0)
(0.0749229 0.156053 0)
(0.0770086 0.136119 0)
(0.07746 0.118324 0)
(0.0808675 0.0998261 0)
(0.0805231 0.0820617 0)
(0.0835384 0.062294 0)
(0.0806857 0.043948 0)
(0.0826326 0.0234935 0)
(0.0766305 0.00594491 0)
(0.0778091 -0.0141335 0)
(0.0686121 -0.0300772 0)
(0.0697595 -0.0502477 0)
(0.0573046 -0.0654824 0)
(0.0591276 -0.0881966 0)
(0.042784 -0.104595 0)
(0.0457868 -0.13283 0)
(0.0243029 -0.150217 0)
(0.029291 -0.184651 0)
(0.00144902 -0.201183 0)
(0.00763119 -0.274897 0)
(-0.0293464 -0.37339 0)
(-0.00647522 -0.473282 0)
(0.000330871 0.0192112 0)
(0.0240395 0.106253 0)
(0.0474003 0.17172 0)
(0.0649023 0.210423 0)
(0.0780146 0.223945 0)
(0.0867096 0.219194 0)
(0.0908475 0.201939 0)
(0.0939017 0.179567 0)
(0.0945486 0.157546 0)
(0.0978372 0.136471 0)
(0.0987217 0.11802 0)
(0.103426 0.0991312 0)
(0.103384 0.0818932 0)
(0.107797 0.0626945 0)
(0.104807 0.0455207 0)
(0.107898 0.0259612 0)
(0.101042 0.00963744 0)
(0.102937 -0.00963382 0)
(0.0921257 -0.0245601 0)
(0.093587 -0.044071 0)
(0.0787987 -0.058432 0)
(0.0806156 -0.0804016 0)
(0.0611556 -0.0958481 0)
(0.0638448 -0.123002 0)
(0.0380691 -0.139313 0)
(0.04247 -0.172505 0)
(0.00870627 -0.187208 0)
(0.0159247 -0.258967 0)
(-0.0287384 -0.363451 0)
(-0.00290336 -0.490823 0)
(-0.00133848 0.00797692 0)
(0.0193841 0.0793275 0)
(0.0462895 0.148022 0)
(0.0672858 0.188952 0)
(0.0832901 0.208281 0)
(0.0958245 0.206986 0)
(0.102602 0.193692 0)
(0.108853 0.173308 0)
(0.111012 0.15226 0)
(0.116372 0.131315 0)
(0.117758 0.112983 0)
(0.12419 0.0944398 0)
(0.12428 0.078075 0)
(0.130491 0.0600526 0)
(0.127282 0.0443636 0)
(0.132042 0.0263233 0)
(0.124421 0.0115591 0)
(0.127634 -0.00630569 0)
(0.115397 -0.0199006 0)
(0.117728 -0.0382208 0)
(0.100767 -0.0514317 0)
(0.102942 -0.0721621 0)
(0.0803364 -0.0863546 0)
(0.0827608 -0.111831 0)
(0.0523887 -0.126759 0)
(0.0560741 -0.158167 0)
(0.015815 -0.171717 0)
(0.0242784 -0.241106 0)
(-0.0288824 -0.351433 0)
(0.00158381 -0.506459 0)
(-0.00196058 0.00165498 0)
(0.0133397 0.0587184 0)
(0.0406424 0.124301 0)
(0.0653666 0.173646 0)
(0.0862534 0.195771 0)
(0.103662 0.199972 0)
(0.115035 0.18943 0)
(0.125471 0.17106 0)
(0.130183 0.150705 0)
(0.138072 0.129439 0)
(0.140144 0.110995 0)
(0.148198 0.0921709 0)
(0.148119 0.0764921 0)
(0.155901 0.0591276 0)
(0.152191 0.044987 0)
(0.158596 0.0281355 0)
(0.150105 0.0152027 0)
(0.154837 -0.00144358 0)
(0.141142 -0.013309 0)
(0.144614 -0.0304741 0)
(0.125321 -0.0420207 0)
(0.128018 -0.061298 0)
(0.101867 -0.0735909 0)
(0.104064 -0.0968734 0)
(0.0685659 -0.10979 0)
(0.071558 -0.138692 0)
(0.0241359 -0.151417 0)
(0.0342647 -0.218274 0)
(-0.0286874 -0.336364 0)
(0.00768512 -0.519918 0)
(0.00116959 -0.00350266 0)
(0.00890284 0.0357686 0)
(0.0315317 0.0960358 0)
(0.057225 0.14232 0)
(0.0789907 0.170097 0)
(0.101821 0.177348 0)
(0.117345 0.172135 0)
(0.134188 0.157403 0)
(0.142689 0.14003 0)
(0.155454 0.12053 0)
(0.159128 0.103331 0)
(0.170524 0.0855397 0)
(0.170368 0.0709408 0)
(0.180827 0.0549614 0)
(0.176243 0.0423294 0)
(0.185134 0.0272819 0)
(0.175316 0.0160802 0)
(0.182328 0.00138036 0)
(0.166783 -0.00877033 0)
(0.17208 -0.0239061 0)
(0.150166 -0.0336913 0)
(0.153945 -0.0505889 0)
(0.124068 -0.0608447 0)
(0.126408 -0.0810968 0)
(0.0855818 -0.0919212 0)
(0.0879143 -0.117643 0)
(0.0330878 -0.130661 0)
(0.0448713 -0.194141 0)
(-0.0282839 -0.319936 0)
(0.0159153 -0.530293 0)
(-0.000542512 -0.00829879 0)
(0.00235897 0.0292426 0)
(0.0172418 0.0763936 0)
(0.0429712 0.127031 0)
(0.0694056 0.151547 0)
(0.0976258 0.161808 0)
(0.119159 0.157735 0)
(0.142672 0.145463 0)
(0.155995 0.130376 0)
(0.17439 0.112499 0)
(0.180516 0.0970001 0)
(0.195813 0.080289 0)
(0.196221 0.0673651 0)
(0.20941 0.0525092 0)
(0.204372 0.0419685 0)
(0.215457 0.0282105 0)
(0.204586 0.0194512 0)
(0.213484 0.00608959 0)
(0.196195 -0.00139426 0)
(0.202995 -0.0150685 0)
(0.178249 -0.0218593 0)
(0.182997 -0.0367222 0)
(0.148694 -0.0434169 0)
(0.151512 -0.0604458 0)
(0.104315 -0.0675317 0)
(0.107568 -0.0894339 0)
(0.0449723 -0.1026 0)
(0.0612472 -0.162434 0)
(-0.022394 -0.299609 0)
(0.0286446 -0.535628 0)
(0.0050938 -0.00501528 0)
(0.00508594 0.0166361 0)
(-0.000939402 0.0554847 0)
(0.0196908 0.0884766 0)
(0.0407743 0.115471 0)
(0.0761149 0.126229 0)
(0.102136 0.127486 0)
(0.135607 0.119503 0)
(0.154394 0.108963 0)
(0.18173 0.0949508 0)
(0.1912 0.0826451 0)
(0.213389 0.0686847 0)
(0.214623 0.0581075 0)
(0.233115 0.0455706 0)
(0.226931 0.0370751 0)
(0.242512 0.0257306 0)
(0.229019 0.0189047 0)
(0.242102 0.00829691 0)
(0.220924 0.00268069 0)
(0.231793 -0.00765964 0)
(0.202008 -0.0125378 0)
(0.210842 -0.0231762 0)
(0.170712 -0.027851 0)
(0.177959 -0.0398019 0)
(0.124889 -0.0456935 0)
(0.133217 -0.0634365 0)
(0.06436 -0.0802822 0)
(0.0844187 -0.135868 0)
(-0.00883407 -0.280431 0)
(0.0471066 -0.530253 0)
(-0.0234921 -0.0205673 0)
(-0.0233095 0.0376858 0)
(-0.0184663 0.0618409 0)
(-0.00823549 0.0877058 0)
(0.0201882 0.0956598 0)
(0.0584044 0.101084 0)
(0.0897794 0.0990683 0)
(0.130109 0.0928256 0)
(0.153719 0.0854356 0)
(0.188077 0.074956 0)
(0.200816 0.0667104 0)
(0.22883 0.0560443 0)
(0.231359 0.0491222 0)
(0.254487 0.0393257 0)
(0.247886 0.0341849 0)
(0.267458 0.0251303 0)
(0.252254 0.0216647 0)
(0.269331 0.0129726 0)
(0.245418 0.0110228 0)
(0.260994 0.00229199 0)
(0.227508 0.0017105 0)
(0.242733 -0.00747566 0)
(0.197732 -0.00700744 0)
(0.214384 -0.017348 0)
(0.154491 -0.0175864 0)
(0.176204 -0.032694 0)
(0.0975406 -0.045711 0)
(0.133337 -0.0959849 0)
(0.0373216 -0.245701 0)
(0.0827234 -0.502306 0)
(-0.0853372 0.0480931 0)
(-0.0866051 0.00884536 0)
(-0.116982 0.0406171 0)
(-0.073153 0.0458688 0)
(-0.052286 0.0483924 0)
(0.00341212 0.0544376 0)
(0.0359242 0.0562166 0)
(0.0895237 0.0541603 0)
(0.114878 0.0518034 0)
(0.162511 0.0465238 0)
(0.175454 0.0427265 0)
(0.217678 0.0366956 0)
(0.218235 0.0332399 0)
(0.256979 0.0274795 0)
(0.246079 0.02489 0)
(0.283437 0.0196738 0)
(0.261514 0.017877 0)
(0.299541 0.0132955 0)
(0.266332 0.0119779 0)
(0.307138 0.00818417 0)
(0.261717 0.00683195 0)
(0.307586 0.00410543 0)
(0.248458 0.00178848 0)
(0.301833 -8.52372e-05 0)
(0.227204 -0.00606966 0)
(0.290005 -0.0127254 0)
(0.197891 -0.0366193 0)
(0.266166 -0.0885267 0)
(0.143695 -0.224741 0)
(0.138762 -0.431027 0)
(0.079353 0.137365 0)
(0.117851 0.0749761 0)
(0.155021 0.0491777 0)
(0.208668 0.0276743 0)
(0.22645 0.0201208 0)
(0.276598 0.0141148 0)
(0.293326 0.0137251 0)
(0.34723 0.0133099 0)
(0.359646 0.0135221 0)
(0.413615 0.01332 0)
(0.418347 0.0129115 0)
(0.470371 0.0121979 0)
(0.46598 0.011394 0)
(0.516114 0.0104348 0)
(0.502494 0.0095121 0)
(0.551696 0.00853026 0)
(0.52912 0.00764258 0)
(0.578568 0.00669534 0)
(0.547296 0.00597045 0)
(0.59813 0.00493074 0)
(0.558282 0.00458884 0)
(0.611484 0.00302074 0)
(0.562839 0.00348646 0)
(0.618916 0.000150424 0)
(0.55956 0.00185102 0)
(0.61623 -0.00735517 0)
(0.533799 -0.00687967 0)
(0.570433 -0.0394858 0)
(0.393446 -0.0642587 0)
(0.290037 -0.19658 0)
)
;

boundaryField
{
    movingWall
    {
        type            fixedValue;
        value           uniform (1 0 0);
    }
    fixedWalls
    {
        type            noSlip;
    }
    frontAndBack
    {
        type            empty;
    }
}


// ************************************************************************* //
