/*--------------------------------*- C++ -*----------------------------------*\
| =========                 |                                                 |
| \\      /  F ield         | OpenFOAM: The Open Source CFD Toolbox           |
|  \\    /   O peration     | Version:  2406                                  |
|   \\  /    A nd           | Website:  www.openfoam.com                      |
|    \\/     M anipulation  |                                                 |
\*---------------------------------------------------------------------------*/
FoamFile
{
    version     2.0;
    format      ascii;
    arch        "LSB;label=32;scalar=64";
    class       volVectorField;
    location    "12.95";
    object      Uold;
}
// * * * * * * * * * * * * * * * * * * * * * * * * * * * * * * * * * * * * * //

dimensions      [0 1 -1 0 0 0 0];

internalField   nonuniform List<vector> 
3600
(
(1.96078e-05 -1.77944e-05 0)
(1.52309e-06 4.55991e-06 0)
(-7.81906e-05 2.67124e-05 0)
(-0.000223503 4.66379e-05 0)
(-0.000413313 5.58368e-05 0)
(-0.000627942 6.21156e-05 0)
(-0.000861777 6.36676e-05 0)
(-0.00110133 6.58031e-05 0)
(-0.00135301 6.69258e-05 0)
(-0.0016088 6.9731e-05 0)
(-0.00187838 7.24794e-05 0)
(-0.0021553 7.64971e-05 0)
(-0.00244778 8.02835e-05 0)
(-0.00274924 8.45879e-05 0)
(-0.00306506 8.82642e-05 0)
(-0.00338819 9.17856e-05 0)
(-0.00372113 9.42855e-05 0)
(-0.00405631 9.60511e-05 0)
(-0.0043936 9.63945e-05 0)
(-0.00472478 9.54526e-05 0)
(-0.00504734 9.26438e-05 0)
(-0.00535226 8.7985e-05 0)
(-0.00563486 8.097e-05 0)
(-0.00588528 7.15464e-05 0)
(-0.00609703 5.93082e-05 0)
(-0.00625966 4.42312e-05 0)
(-0.00636572 2.61037e-05 0)
(-0.00640507 5.08256e-06 0)
(-0.00637083 -1.87009e-05 0)
(-0.00625491 -4.47366e-05 0)
(-0.00605331 -7.24125e-05 0)
(-0.00576239 -0.000100764 0)
(-0.00538369 -0.000128685 0)
(-0.00492029 -0.000154842 0)
(-0.00438126 -0.000177849 0)
(-0.00377743 -0.00019635 0)
(-0.00312555 -0.00020912 0)
(-0.00244278 -0.000215297 0)
(-0.00175104 -0.000214327 0)
(-0.00106988 -0.000206278 0)
(-0.00042171 -0.000191532 0)
(0.0001769 -0.00017117 0)
(0.000707997 -0.000146325 0)
(0.00116261 -0.000118713 0)
(0.00153026 -8.9652e-05 0)
(0.00181146 -6.08887e-05 0)
(0.00200296 -3.33014e-05 0)
(0.00211362 -8.20679e-06 0)
(0.00214442 1.43187e-05 0)
(0.00210963 3.34671e-05 0)
(0.00201051 4.99728e-05 0)
(0.00186405 6.32354e-05 0)
(0.00166889 7.45784e-05 0)
(0.0014438 8.29924e-05 0)
(0.00118456 9.00371e-05 0)
(0.000913845 9.30422e-05 0)
(0.000629381 9.2814e-05 0)
(0.000365407 8.12805e-05 0)
(0.000138806 5.66987e-05 0)
(6.85909e-06 7.77845e-06 0)
(-1.38993e-06 -2.84355e-06 0)
(-0.000131924 0.000129171 0)
(-0.000405881 0.000251169 0)
(-0.000808905 0.000360591 0)
(-0.00131402 0.000426187 0)
(-0.00188094 0.000473444 0)
(-0.0024982 0.000497813 0)
(-0.00313843 0.000519089 0)
(-0.00380827 0.000534488 0)
(-0.00449268 0.00055405 0)
(-0.0052047 0.000573243 0)
(-0.0059336 0.000596098 0)
(-0.00669037 0.000617821 0)
(-0.00746395 0.000639828 0)
(-0.0082602 0.00065804 0)
(-0.00906629 0.000672814 0)
(-0.00988262 0.00068087 0)
(-0.0106944 0.000682048 0)
(-0.0114969 0.000673669 0)
(-0.0122737 0.000655256 0)
(-0.0130157 0.000624562 0)
(-0.0137046 0.000580942 0)
(-0.0143282 0.000522551 0)
(-0.0148666 0.00044882 0)
(-0.0153053 0.000358518 0)
(-0.0156241 0.000251633 0)
(-0.015808 0.000128053 0)
(-0.0158387 -1.0978e-05 0)
(-0.0157035 -0.00016376 0)
(-0.0153894 -0.000327092 0)
(-0.0148904 -0.000496952 0)
(-0.0142027 -0.000667912 0)
(-0.0133315 -0.000833787 0)
(-0.0122858 -0.000987555 0)
(-0.0110848 -0.00112205 0)
(-0.00975176 -0.00123038 0)
(-0.00831936 -0.0013065 0)
(-0.0068222 -0.00134599 0)
(-0.00530214 -0.00134621 0)
(-0.00379827 -0.00130715 0)
(-0.00235358 -0.00123082 0)
(-0.00100248 -0.00112197 0)
(0.000219655 -0.000986557 0)
(0.00129126 -0.000832506 0)
(0.00219043 -0.00066723 0)
(0.00291247 -0.000499048 0)
(0.00344952 -0.000333933 0)
(0.00381255 -0.000178208 0)
(0.00400335 -3.45527e-05 0)
(0.00404384 9.34415e-05 0)
(0.003939 0.000206508 0)
(0.00371693 0.000302594 0)
(0.00338093 0.00038451 0)
(0.00296394 0.000448927 0)
(0.00246734 0.000498549 0)
(0.00193344 0.000523971 0)
(0.00136837 0.000524241 0)
(0.000835803 0.000473325 0)
(0.000363548 0.000361021 0)
(5.54812e-05 0.000138188 0)
(-2.97012e-05 8.52494e-05 0)
(-0.000292849 0.000418333 0)
(-0.000784635 0.000714059 0)
(-0.00144765 0.000968608 0)
(-0.00225502 0.00113361 0)
(-0.00314515 0.00125133 0)
(-0.00410732 0.00131951 0)
(-0.00510251 0.0013742 0)
(-0.00613867 0.00141517 0)
(-0.00719437 0.00146057 0)
(-0.00828385 0.00150455 0)
(-0.00939202 0.00155325 0)
(-0.0105299 0.00159865 0)
(-0.0116824 0.00164167 0)
(-0.0128537 0.00167483 0)
(-0.0140264 0.00169719 0)
(-0.0151979 0.00170257 0)
(-0.0163482 0.00168938 0)
(-0.017469 0.00165261 0)
(-0.0185381 0.00159051 0)
(-0.0195426 0.00149902 0)
(-0.0204592 0.00137646 0)
(-0.0212714 0.0012197 0)
(-0.0219553 0.00102761 0)
(-0.0224926 0.000798458 0)
(-0.0228596 0.000532563 0)
(-0.0230384 0.000230661 0)
(-0.0230081 -0.000104042 0)
(-0.0227546 -0.000466972 0)
(-0.0222636 -0.000850707 0)
(-0.0215294 -0.00124591 0)
(-0.0205492 -0.00164058 0)
(-0.0193308 -0.00202112 0)
(-0.0178869 -0.00237239 0)
(-0.016242 -0.00267905 0)
(-0.0144258 -0.00292638 0)
(-0.0124796 -0.00310157 0)
(-0.0104473 -0.00319503 0)
(-0.00838151 -0.00320111 0)
(-0.00633258 -0.00311932 0)
(-0.00435518 -0.00295378 0)
(-0.00249479 -0.00271404 0)
(-0.000797288 -0.00241283 0)
(0.000707179 -0.00206661 0)
(0.00198941 -0.00169187 0)
(0.00304023 -0.00130623 0)
(0.00384856 -0.000923841 0)
(0.00442518 -0.000558257 0)
(0.00477212 -0.000217171 0)
(0.0049144 9.18613e-05 0)
(0.00485924 0.000367929 0)
(0.00464003 0.000607234 0)
(0.00426312 0.000812432 0)
(0.00376896 0.000977701 0)
(0.00316253 0.00110388 0)
(0.00249748 0.00117433 0)
(0.00178392 0.00118062 0)
(0.00110393 0.00107965 0)
(0.000488999 0.000840225 0)
(8.17438e-05 0.000369509 0)
(-6.17044e-05 0.000267913 0)
(-0.000474078 0.000896033 0)
(-0.00120045 0.00141839 0)
(-0.00212803 0.00184593 0)
(-0.00323072 0.0021298 0)
(-0.00442464 0.00233064 0)
(-0.00570459 0.00245271 0)
(-0.00702062 0.0025476 0)
(-0.00838431 0.00261886 0)
(-0.00976703 0.00269216 0)
(-0.0111843 0.00276067 0)
(-0.0126152 0.00283223 0)
(-0.0140704 0.00289557 0)
(-0.0155295 0.00295075 0)
(-0.0169951 0.00298677 0)
(-0.0184451 0.0030012 0)
(-0.0198747 0.00298491 0)
(-0.02126 0.00293502 0)
(-0.0225906 0.00284439 0)
(-0.0238417 0.00271037 0)
(-0.0249994 0.0025275 0)
(-0.0260387 0.00229357 0)
(-0.0269433 0.00200461 0)
(-0.0276884 0.00165933 0)
(-0.0282562 0.00125581 0)
(-0.0286227 0.000795011 0)
(-0.0287701 0.000278699 0)
(-0.028677 -0.000287793 0)
(-0.0283287 -0.00089687 0)
(-0.02771 -0.00153674 0)
(-0.0268141 -0.00219254 0)
(-0.025637 -0.00284539 0)
(-0.0241857 -0.00347383 0)
(-0.0224725 -0.004054 0)
(-0.0205228 -0.00456154 0)
(-0.0183682 -0.00497288 0)
(-0.0160538 -0.00526731 0)
(-0.0136293 -0.00542885 0)
(-0.0111548 -0.0054478 0)
(-0.0086897 -0.00532235 0)
(-0.00629908 -0.00505844 0)
(-0.00403868 -0.00467052 0)
(-0.00196447 -0.00417886 0)
(-0.000114879 -0.00360965 0)
(0.00147409 -0.00298997 0)
(0.00278939 -0.00234847 0)
(0.0038177 -0.00170904 0)
(0.00457044 -0.00109392 0)
(0.00505089 -0.000516909 0)
(0.00528762 9.70131e-06 0)
(0.00529043 0.000482762 0)
(0.00509753 0.000896433 0)
(0.00471755 0.00125268 0)
(0.00419662 0.00154308 0)
(0.0035412 0.00176567 0)
(0.00281239 0.00189701 0)
(0.00202069 0.00191942 0)
(0.00125968 0.00177341 0)
(0.00056171 0.00139769 0)
(9.55795e-05 0.000644697 0)
(-8.99157e-05 0.000542143 0)
(-0.000647542 0.00157039 0)
(-0.00160707 0.00238079 0)
(-0.00279622 0.0030129 0)
(-0.00418702 0.00343455 0)
(-0.00567039 0.00372809 0)
(-0.00724776 0.00391052 0)
(-0.00885769 0.00404839 0)
(-0.010517 0.00415107 0)
(-0.0121895 0.00425052 0)
(-0.0138926 0.00433964 0)
(-0.0155991 0.00442696 0)
(-0.0173193 0.00449827 0)
(-0.0190275 0.0045522 0)
(-0.020725 0.00457459 0)
(-0.0223856 0.00456139 0)
(-0.0240036 0.00450114 0)
(-0.025553 0.00438998 0)
(-0.0270239 0.00421952 0)
(-0.0283917 0.00398677 0)
(-0.0296449 0.00368567 0)
(-0.0307604 0.0033139 0)
(-0.0317253 0.00286702 0)
(-0.0325173 0.00234353 0)
(-0.0331216 0.00174114 0)
(-0.0335154 0.00106085 0)
(-0.0336816 0.000304818 0)
(-0.0335976 -0.000520356 0)
(-0.0332462 -0.00140486 0)
(-0.0326078 -0.00233325 0)
(-0.0316701 -0.00328562 0)
(-0.0304222 -0.00423629 0)
(-0.028864 -0.00515551 0)
(-0.027001 -0.00600963 0)
(-0.0248531 -0.00676356 0)
(-0.0224491 -0.00738252 0)
(-0.0198339 -0.00783509 0)
(-0.0170613 -0.00809598 0)
(-0.0141995 -0.0081486 0)
(-0.0113199 -0.00798768 0)
(-0.00850212 -0.00761975 0)
(-0.00581802 -0.00706417 0)
(-0.0033396 -0.00635008 0)
(-0.00111899 -0.00551574 0)
(0.000797007 -0.00460206 0)
(0.00238921 -0.00365203 0)
(0.00364178 -0.00270261 0)
(0.00456812 -0.00178719 0)
(0.00517528 -0.000927628 0)
(0.00549843 -0.000141726 0)
(0.00555298 0.000564598 0)
(0.00538436 0.001184 0)
(0.0050052 0.00171768 0)
(0.00446779 0.00215551 0)
(0.0037799 0.00249204 0)
(0.00300867 0.00269757 0)
(0.0021643 0.00274301 0)
(0.00134962 0.00255154 0)
(0.000599132 0.00202566 0)
(0.000100241 0.000955425 0)
(-0.000117762 0.000906082 0)
(-0.000818931 0.00243604 0)
(-0.00200543 0.00358709 0)
(-0.0034467 0.00444481 0)
(-0.00511133 0.00501167 0)
(-0.00686518 0.00539773 0)
(-0.00871659 0.00563862 0)
(-0.0105929 0.00581562 0)
(-0.0125167 0.00594486 0)
(-0.0144441 0.00606314 0)
(-0.016395 0.00616311 0)
(-0.0183352 0.00625316 0)
(-0.0202754 0.00631644 0)
(-0.0221843 0.0063501 0)
(-0.0240632 0.00633752 0)
(-0.0258827 0.00627376 0)
(-0.0276386 0.00614621 0)
(-0.0293049 0.00595129 0)
(-0.030876 0.00568075 0)
(-0.032331 0.00533255 0)
(-0.0336647 0.00490107 0)
(-0.0348602 0.0043844 0)
(-0.0359117 0.00377773 0)
(-0.0368024 0.00307877 0)
(-0.0375223 0.00228375 0)
(-0.0380507 0.00139204 0)
(-0.0383705 0.000404066 0)
(-0.0384555 -0.000674703 0)
(-0.0382816 -0.00183477 0)
(-0.0378188 -0.00305955 0)
(-0.0370417 -0.00432615 0)
(-0.0359233 -0.00560364 0)
(-0.0344465 -0.00685446 0)
(-0.0325996 -0.00803451 0)
(-0.0303874 -0.00909586 0)
(-0.027827 -0.00998907 0)
(-0.0249579 -0.0106673 0)
(-0.0218348 -0.0110904 0)
(-0.0185357 -0.0112294 0)
(-0.0151484 -0.0110704 0)
(-0.0117764 -0.010617 0)
(-0.00851886 -0.00989193 0)
(-0.0054769 -0.00893394 0)
(-0.00272898 -0.00779649 0)
(-0.000343552 -0.00653901 0)
(0.00164644 -0.00522443 0)
(0.00321868 -0.00390824 0)
(0.00438838 -0.00263943 0)
(0.00516908 -0.00145099 0)
(0.00560719 -0.000367634 0)
(0.00572915 0.000601826 0)
(0.00559286 0.00144957 0)
(0.00521942 0.00217738 0)
(0.00467037 0.00277521 0)
(0.00395699 0.00323525 0)
(0.00315275 0.00352254 0)
(0.00226823 0.00359618 0)
(0.0014134 0.0033602 0)
(0.000625223 0.00267775 0)
(0.000103096 0.00127264 0)
(-0.000142389 0.0013546 0)
(-0.000976592 0.00348598 0)
(-0.00237483 0.00503143 0)
(-0.00405157 0.00613822 0)
(-0.00597104 0.00685894 0)
(-0.00797435 0.00733752 0)
(-0.0100762 0.00763414 0)
(-0.0121925 0.00784496 0)
(-0.0143519 0.00799424 0)
(-0.0165026 0.00812227 0)
(-0.0186672 0.00822179 0)
(-0.0208052 0.00830027 0)
(-0.0229281 0.0083388 0)
(-0.025 0.00833324 0)
(-0.0270238 0.00826579 0)
(-0.0289689 0.00813172 0)
(-0.0308357 0.00791926 0)
(-0.0326018 0.00762683 0)
(-0.0342705 0.00724835 0)
(-0.0358292 0.00678414 0)
(-0.0372848 0.00623005 0)
(-0.0386311 0.00558474 0)
(-0.0398736 0.00484228 0)
(-0.0410042 0.00399787 0)
(-0.0420195 0.00304375 0)
(-0.042901 0.00197427 0)
(-0.043629 0.000784231 0)
(-0.0441693 -0.000526457 0)
(-0.0444842 -0.00195311 0)
(-0.0445237 -0.00348235 0)
(-0.0442369 -0.00509201 0)
(-0.0435672 -0.00674844 0)
(-0.0424649 -0.00840717 0)
(-0.0408855 -0.0100124 0)
(-0.0388035 -0.0114997 0)
(-0.0362117 -0.0127989 0)
(-0.0331341 -0.0138392 0)
(-0.0296215 -0.0145557 0)
(-0.0257611 -0.0148963 0)
(-0.0216639 -0.0148285 0)
(-0.0174695 -0.0143451 0)
(-0.0133225 -0.0134673 0)
(-0.00937479 -0.0122434 0)
(-0.00575456 -0.0107462 0)
(-0.0025736 -0.0090617 0)
(0.000103892 -0.00728319 0)
(0.00223797 -0.00549564 0)
(0.00384123 -0.00377325 0)
(0.00493552 -0.0021672 0)
(0.00558471 -0.000712886 0)
(0.00583505 0.000576838 0)
(0.00576613 0.0016951 0)
(0.00541606 0.00264657 0)
(0.00486246 0.00342442 0)
(0.00412535 0.00402088 0)
(0.00328778 0.00439762 0)
(0.00236318 0.00450234 0)
(0.00146946 0.00421875 0)
(0.0006467 0.00336924 0)
(0.000104865 0.0016075 0)
(-0.000166069 0.00188229 0)
(-0.00112531 0.00470669 0)
(-0.00271955 0.00669293 0)
(-0.00461307 0.00806629 0)
(-0.00676539 0.00894387 0)
(-0.00899481 0.00951034 0)
(-0.0113219 0.00985566 0)
(-0.0136517 0.0100914 0)
(-0.0160187 0.0102509 0)
(-0.0183636 0.0103767 0)
(-0.0207119 0.0104619 0)
(-0.0230173 0.0105125 0)
(-0.0252929 0.0105086 0)
(-0.0274999 0.0104455 0)
(-0.029645 0.0103062 0)
(-0.0316997 0.0100883 0)
(-0.0336729 0.00978375 0)
(-0.0355518 0.00939575 0)
(-0.0373543 0.00892313 0)
(-0.0390835 0.00837042 0)
(-0.0407648 0.007736 0)
(-0.0424092 0.00701861 0)
(-0.0440388 0.00620956 0)
(-0.0456578 0.00529837 0)
(-0.0472708 0.00426888 0)
(-0.0488604 0.0031048 0)
(-0.0504011 0.00178877 0)
(-0.0518431 0.000307774 0)
(-0.0531246 -0.00134598 0)
(-0.0541614 -0.0031698 0)
(-0.0548605 -0.00514871 0)
(-0.0551157 -0.0072511 0)
(-0.0548241 -0.00942771 0)
(-0.0538875 -0.0116099 0)
(-0.0522308 -0.013712 0)
(-0.0498049 -0.0156342 0)
(-0.0466042 -0.0172699 0)
(-0.0426659 -0.0185141 0)
(-0.0380828 -0.0192747 0)
(-0.0329922 -0.0194834 0)
(-0.0275808 -0.0191065 0)
(-0.0220592 -0.0181526 0)
(-0.0166581 -0.0166743 0)
(-0.0115899 -0.0147659 0)
(-0.00704569 -0.0125502 0)
(-0.00315418 -0.0101668 0)
(1.86966e-06 -0.00774888 0)
(0.00241781 -0.00541396 0)
(0.00412051 -0.00324584 0)
(0.00519703 -0.0012995 0)
(0.00572539 0.000404665 0)
(0.00582116 0.00186186 0)
(0.00555383 0.0030834 0)
(0.00502919 0.00407097 0)
(0.00428574 0.00482167 0)
(0.00342271 0.00529777 0)
(0.00246096 0.00543771 0)
(0.0015287 0.00510482 0)
(0.000670535 0.00408007 0)
(0.000107644 0.00194648 0)
(-0.00018682 0.00248169 0)
(-0.00125881 0.00608316 0)
(-0.00303007 0.0085535 0)
(-0.00511913 0.0102109 0)
(-0.00748112 0.0112492 0)
(-0.00991334 0.0119002 0)
(-0.0124416 0.012288 0)
(-0.0149608 0.0125404 0)
(-0.0175109 0.0127004 0)
(-0.0200253 0.0128126 0)
(-0.0225332 0.0128705 0)
(-0.024983 0.012879 0)
(-0.0273915 0.0128183 0)
(-0.029719 0.0126849 0)
(-0.0319794 0.0124656 0)
(-0.034151 0.0121636 0)
(-0.0362579 0.0117787 0)
(-0.038304 0.0113228 0)
(-0.040331 0.010803 0)
(-0.0423665 0.01023 0)
(-0.0444629 0.00960522 0)
(-0.046656 0.00892583 0)
(-0.0489901 0.0081769 0)
(-0.0514848 0.00733676 0)
(-0.054153 0.00637369 0)
(-0.0569749 0.00525188 0)
(-0.0599112 0.00393154 0)
(-0.0628847 0.00237549 0)
(-0.0657927 0.000552022 0)
(-0.0684966 -0.00155758 0)
(-0.0708379 -0.00395435 0)
(-0.0726373 -0.00661445 0)
(-0.0737159 -0.00948565 0)
(-0.0739009 -0.0124839 0)
(-0.0730492 -0.0154949 0)
(-0.0710541 -0.0183779 0)
(-0.0678666 -0.0209749 0)
(-0.0634985 -0.0231215 0)
(-0.0580377 -0.0246631 0)
(-0.0516421 -0.0254713 0)
(-0.0445467 -0.0254613 0)
(-0.0370396 -0.0246073 0)
(-0.0294554 -0.0229506 0)
(-0.022129 -0.0206023 0)
(-0.0153803 -0.0177296 0)
(-0.00945557 -0.0145384 0)
(-0.00452861 -0.0112395 0)
(-0.000656796 -0.00802539 0)
(0.00217412 -0.00504103 0)
(0.00407372 -0.00238103 0)
(0.00516455 -8.37577e-05 0)
(0.00561781 0.00184677 0)
(0.00555637 0.00343288 0)
(0.00513417 0.00469281 0)
(0.00442467 0.00563654 0)
(0.00355563 0.00623422 0)
(0.00256371 0.00641962 0)
(0.00159349 0.00603798 0)
(0.000697175 0.00482886 0)
(0.000111006 0.00230296 0)
(-0.000206358 0.00314852 0)
(-0.00138137 0.00760327 0)
(-0.00331217 0.0105952 0)
(-0.00557674 0.0125503 0)
(-0.00812603 0.0137505 0)
(-0.0107388 0.0144807 0)
(-0.0134457 0.0149033 0)
(-0.0161326 0.0151631 0)
(-0.0188443 0.0153136 0)
(-0.0215083 0.0154006 0)
(-0.0241574 0.0154192 0)
(-0.0267368 0.0153737 0)
(-0.0292683 0.0152466 0)
(-0.0317152 0.0150384 0)
(-0.0341033 0.014744 0)
(-0.036425 0.0143776 0)
(-0.0387282 0.0139526 0)
(-0.0410443 0.0134945 0)
(-0.0434498 0.0130229 0)
(-0.0460079 0.0125564 0)
(-0.0488082 0.0120987 0)
(-0.0519184 0.0116418 0)
(-0.0554095 0.0111584 0)
(-0.0593169 0.0106069 0)
(-0.0636576 0.00992869 0)
(-0.0683994 0.0090549 0)
(-0.073474 0.00790801 0)
(-0.0787551 0.00641041 0)
(-0.0840734 0.00449092 0)
(-0.0892083 0.00209625 0)
(-0.09391 -0.000799533 0)
(-0.0979048 -0.00418409 0)
(-0.100924 -0.0080004 0)
(-0.102712 -0.0121426 0)
(-0.103055 -0.0164581 0)
(-0.101786 -0.0207529 0)
(-0.0988093 -0.0248025 0)
(-0.0940982 -0.0283661 0)
(-0.0877185 -0.0312048 0)
(-0.0798258 -0.0331035 0)
(-0.0706802 -0.0338945 0)
(-0.0606315 -0.033483 0)
(-0.0501179 -0.0318668 0)
(-0.0396195 -0.0291501 0)
(-0.0296321 -0.0255373 0)
(-0.0205887 -0.0213149 0)
(-0.0128318 -0.0168057 0)
(-0.00654262 -0.0123258 0)
(-0.0017687 -0.00813106 0)
(0.00160019 -0.00439686 0)
(0.00373552 -0.00120502 0)
(0.00488536 0.00143224 0)
(0.00525565 0.00355129 0)
(0.00507808 0.00519784 0)
(0.00448694 0.00640738 0)
(0.00365842 0.00717041 0)
(0.00265911 0.00742457 0)
(0.00165979 0.0070026 0)
(0.000726299 0.00560404 0)
(0.000115334 0.00266899 0)
(-0.000223093 0.00387228 0)
(-0.00148916 0.00924699 0)
(-0.00356153 0.0127937 0)
(-0.00598172 0.0150592 0)
(-0.00869724 0.0164231 0)
(-0.0114703 0.0172289 0)
(-0.0143361 0.0176804 0)
(-0.0171725 0.0179402 0)
(-0.0200291 0.0180731 0)
(-0.0228284 0.0181263 0)
(-0.0256076 0.0180974 0)
(-0.0283109 0.0179917 0)
(-0.0309684 0.0177975 0)
(-0.033551 0.0175239 0)
(-0.0361039 0.0171807 0)
(-0.0386431 0.0167999 0)
(-0.0412525 0.0164165 0)
(-0.0440041 0.0160759 0)
(-0.0470227 0.015814 0)
(-0.0504186 0.0156576 0)
(-0.0543271 0.015609 0)
(-0.0588521 0.0156481 0)
(-0.0640903 0.0157242 0)
(-0.0700856 0.0157614 0)
(-0.0768442 0.0156568 0)
(-0.0842987 0.0152877 0)
(-0.0923203 0.014517 0)
(-0.100698 0.0132058 0)
(-0.109158 0.0112269 0)
(-0.11737 0.00848311 0)
(-0.124973 0.00492286 0)
(-0.131599 0.000554343 0)
(-0.136905 -0.00454819 0)
(-0.140579 -0.0102433 0)
(-0.142366 -0.0163284 0)
(-0.142063 -0.0225479 0)
(-0.139535 -0.028606 0)
(-0.134715 -0.0341801 0)
(-0.127618 -0.0389382 0)
(-0.118355 -0.0425604 0)
(-0.107153 -0.0447668 0)
(-0.0943616 -0.045351 0)
(-0.0804715 -0.0442151 0)
(-0.0660817 -0.041403 0)
(-0.0518765 -0.0371153 0)
(-0.0385355 -0.0317044 0)
(-0.0266681 -0.0256278 0)
(-0.0166967 -0.0193818 0)
(-0.00883556 -0.0134109 0)
(-0.00304332 -0.00804694 0)
(0.000875901 -0.00347148 0)
(0.00325829 0.00026643 0)
(0.00442635 0.00321209 0)
(0.00472935 0.00545063 0)
(0.00440016 0.00706074 0)
(0.00369402 0.00807299 0)
(0.00272982 0.00844348 0)
(0.00172051 0.00800342 0)
(0.000755418 0.00641638 0)
(0.000120038 0.00305411 0)
(-0.000238652 0.00465216 0)
(-0.00158643 0.0110083 0)
(-0.00378449 0.0151394 0)
(-0.00634277 0.0177261 0)
(-0.00920569 0.0192548 0)
(-0.0121214 0.0201325 0)
(-0.0151293 0.0206075 0)
(-0.0181005 0.0208611 0)
(-0.0210896 0.0209701 0)
(-0.0240153 0.0209837 0)
(-0.0269206 0.020904 0)
(-0.0297516 0.0207399 0)
(-0.0325508 0.0204907 0)
(-0.0353041 0.0201811 0)
(-0.0380858 0.019845 0)
(-0.0409485 0.0195424 0)
(-0.0440265 0.0193389 0)
(-0.047448 0.0193062 0)
(-0.0513987 0.0194984 0)
(-0.0560453 0.0199472 0)
(-0.0615716 0.0206456 0)
(-0.0681138 0.0215475 0)
(-0.0757814 0.022561 0)
(-0.0846035 0.0235526 0)
(-0.0945403 0.0243478 0)
(-0.105443 0.0247405 0)
(-0.117068 0.0245062 0)
(-0.129068 0.0234246 0)
(-0.141029 0.0213054 0)
(-0.152494 0.0180155 0)
(-0.163014 0.0134999 0)
(-0.172173 0.00779171 0)
(-0.179616 0.00100995 0)
(-0.18505 -0.00664969 0)
(-0.188241 -0.0149281 0)
(-0.189001 -0.023515 0)
(-0.187186 -0.0320586 0)
(-0.182684 -0.0401741 0)
(-0.175438 -0.0474525 0)
(-0.165451 -0.0534756 0)
(-0.152832 -0.0578385 0)
(-0.137822 -0.0601867 0)
(-0.120843 -0.0602625 0)
(-0.102507 -0.0579645 0)
(-0.0836157 -0.0533967 0)
(-0.0650933 -0.0469026 0)
(-0.0478921 -0.0390442 0)
(-0.0328236 -0.0305323 0)
(-0.0204458 -0.0220933 0)
(-0.010943 -0.0143367 0)
(-0.00418747 -0.00765494 0)
(0.000219379 -0.0022048 0)
(0.00274131 0.0020396 0)
(0.00389166 0.00520915 0)
(0.00405304 0.0074475 0)
(0.00360341 0.00885407 0)
(0.0027475 0.00942667 0)
(0.00176413 0.00901378 0)
(0.00078155 0.00725177 0)
(0.000125109 0.00345156 0)
(-0.000251516 0.00547421 0)
(-0.00167014 0.0128628 0)
(-0.00397846 0.0176036 0)
(-0.00665828 0.0205213 0)
(-0.00965177 0.0222164 0)
(-0.0126948 0.0231643 0)
(-0.0158311 0.0236598 0)
(-0.0189262 0.023904 0)
(-0.0220397 0.0239865 0)
(-0.0250886 0.02396 0)
(-0.0281235 0.0238335 0)
(-0.0310964 0.0236242 0)
(-0.0340683 0.0233502 0)
(-0.03705 0.0230619 0)
(-0.0401574 0.0228296 0)
(-0.0434958 0.0227539 0)
(-0.0472663 0.0229405 0)
(-0.0516666 0.0234915 0)
(-0.0569522 0.0244769 0)
(-0.0633468 0.025923 0)
(-0.0710739 0.0277968 0)
(-0.0802813 0.0300024 0)
(-0.0910561 0.0323764 0)
(-0.103361 0.0346904 0)
(-0.117044 0.0366576 0)
(-0.131796 0.0379509 0)
(-0.14719 0.0382339 0)
(-0.162694 0.0372024 0)
(-0.177749 0.034628 0)
(-0.191817 0.0303899 0)
(-0.204442 0.024487 0)
(-0.215268 0.0170285 0)
(-0.224039 0.00821226 0)
(-0.230575 -0.00170035 0)
(-0.234751 -0.012404 0)
(-0.236452 -0.0235616 0)
(-0.235565 -0.0348064 0)
(-0.231953 -0.0457399 0)
(-0.225468 -0.0559249 0)
(-0.215962 -0.064886 0)
(-0.203336 -0.0721155 0)
(-0.187594 -0.0771036 0)
(-0.168919 -0.079384 0)
(-0.147739 -0.0786139 0)
(-0.124789 -0.0746621 0)
(-0.101098 -0.0677055 0)
(-0.0779284 -0.0582772 0)
(-0.0565809 -0.0472462 0)
(-0.0381787 -0.0356766 0)
(-0.0234043 -0.0246097 0)
(-0.0124216 -0.0148383 0)
(-0.00488841 -0.00678055 0)
(-0.000214502 -0.000513644 0)
(0.00231969 0.00412277 0)
(0.00331028 0.00735748 0)
(0.00331791 0.00939743 0)
(0.00268107 0.010317 0)
(0.00177912 0.0100119 0)
(0.000801853 0.00810768 0)
(0.000130343 0.00386607 0)
(-0.000263403 0.00634251 0)
(-0.0017445 0.0148126 0)
(-0.00414947 0.0201871 0)
(-0.00693647 0.0234455 0)
(-0.0100458 0.0253097 0)
(-0.0132034 0.0263273 0)
(-0.016457 0.0268424 0)
(-0.0196683 0.0270767 0)
(-0.0229023 0.0271343 0)
(-0.0260765 0.027073 0)
(-0.0292516 0.0269134 0)
(-0.0323911 0.0266879 0)
(-0.0355828 0.026444 0)
(-0.0388744 0.0262718 0)
(-0.0424391 0.0262936 0)
(-0.0464515 0.0266632 0)
(-0.0511935 0.0275339 0)
(-0.0569412 0.0290367 0)
(-0.0640176 0.0312453 0)
(-0.0726893 0.0341602 0)
(-0.0831901 0.0376915 0)
(-0.0956317 0.0416544 0)
(-0.11001 0.0457643 0)
(-0.126131 0.0496433 0)
(-0.143627 0.0528413 0)
(-0.161941 0.0548794 0)
(-0.180408 0.0553149 0)
(-0.198324 0.0538093 0)
(-0.215062 0.0501792 0)
(-0.230127 0.0444092 0)
(-0.2432 0.0366305 0)
(-0.254111 0.0270784 0)
(-0.262816 0.016048 0)
(-0.269334 0.00385808 0)
(-0.273712 -0.00916939 0)
(-0.275966 -0.0227166 0)
(-0.276054 -0.0364601 0)
(-0.27385 -0.0500565 0)
(-0.269138 -0.0631153 0)
(-0.261617 -0.0751806 0)
(-0.250947 -0.0857109 0)
(-0.2368 -0.0940875 0)
(-0.218962 -0.0996398 0)
(-0.197449 -0.101726 0)
(-0.172637 -0.0998402 0)
(-0.145357 -0.0937782 0)
(-0.11693 -0.0837832 0)
(-0.0890561 -0.0706545 0)
(-0.0635476 -0.0556953 0)
(-0.0419205 -0.0404757 0)
(-0.0250372 -0.0264454 0)
(-0.0129244 -0.0145715 0)
(-0.00499461 -0.0052362 0)
(-0.000316225 0.00167162 0)
(0.00199022 0.00646818 0)
(0.00274584 0.0095147 0)
(0.0024899 0.011011 0)
(0.00175119 0.0109461 0)
(0.000813665 0.00896188 0)
(0.000136143 0.00429137 0)
(-0.000272564 0.00723864 0)
(-0.00180606 0.0168277 0)
(-0.00429432 0.0228556 0)
(-0.00717482 0.0264633 0)
(-0.0103869 0.0284999 0)
(-0.013648 0.029589 0)
(-0.0170102 0.0301255 0)
(-0.0203325 0.0303535 0)
(-0.0236865 0.030393 0)
(-0.0269925 0.0303105 0)
(-0.0303251 0.0301438 0)
(-0.0336667 0.029951 0)
(-0.0371421 0.0298234 0)
(-0.0408511 0.0299083 0)
(-0.04504 0.030397 0)
(-0.0499678 0.0315077 0)
(-0.056005 0.0334423 0)
(-0.063502 0.0363476 0)
(-0.0728297 0.0402763 0)
(-0.0842598 0.0451647 0)
(-0.0979761 0.0508161 0)
(-0.113969 0.0568927 0)
(-0.132031 0.0629166 0)
(-0.151691 0.0682932 0)
(-0.172261 0.0723708 0)
(-0.192888 0.0745354 0)
(-0.21271 0.0743181 0)
(-0.230976 0.0714718 0)
(-0.247161 0.0659894 0)
(-0.260981 0.0580628 0)
(-0.272389 0.0480151 0)
(-0.281497 0.0362262 0)
(-0.288528 0.0230778 0)
(-0.293732 0.00891523 0)
(-0.297341 -0.00596389 0)
(-0.299519 -0.0213095 0)
(-0.300329 -0.036897 0)
(-0.2997 -0.0525037 0)
(-0.297416 -0.0678648 0)
(-0.293096 -0.0826391 0)
(-0.286219 -0.0963577 0)
(-0.276148 -0.108403 0)
(-0.262226 -0.11799 0)
(-0.243901 -0.124215 0)
(-0.220906 -0.126146 0)
(-0.193472 -0.123018 0)
(-0.162511 -0.114462 0)
(-0.129693 -0.100795 0)
(-0.0973137 -0.0831772 0)
(-0.0678733 -0.0635477 0)
(-0.0434265 -0.0441896 0)
(-0.0249698 -0.0270416 0)
(-0.0123166 -0.013211 0)
(-0.00444409 -0.00286814 0)
(-0.000139166 0.00433222 0)
(0.00177422 0.00894995 0)
(0.00212672 0.0113751 0)
(0.00166566 0.011757 0)
(0.000815131 0.00979666 0)
(0.0001431 0.00472956 0)
(-0.000280908 0.00817244 0)
(-0.00185896 0.0189197 0)
(-0.00441818 0.0256212 0)
(-0.00737983 0.0295884 0)
(-0.0106826 0.0318029 0)
(-0.0140376 0.0329675 0)
(-0.0175013 0.0335306 0)
(-0.0209317 0.0337599 0)
(-0.0244078 0.0337943 0)
(-0.0278564 0.0337135 0)
(-0.0313708 0.0335817 0)
(-0.0349609 0.0334963 0)
(-0.0388008 0.0336108 0)
(-0.0430573 0.0341498 0)
(-0.0480646 0.0353889 0)
(-0.0541738 0.0376153 0)
(-0.0618388 0.0410667 0)
(-0.0714612 0.0458769 0)
(-0.0834164 0.0520318 0)
(-0.0979125 0.0593424 0)
(-0.114987 0.0674273 0)
(-0.134383 0.0757063 0)
(-0.155559 0.0834246 0)
(-0.177653 0.0897254 0)
(-0.199631 0.0937853 0)
(-0.220427 0.0949714 0)
(-0.239167 0.0929616 0)
(-0.25527 0.0877691 0)
(-0.26851 0.0796824 0)
(-0.278951 0.0691576 0)
(-0.286881 0.0567125 0)
(-0.292702 0.0428413 0)
(-0.296862 0.0279663 0)
(-0.299783 0.0124133 0)
(-0.301828 -0.00358393 0)
(-0.303264 -0.0198742 0)
(-0.30425 -0.0363586 0)
(-0.30481 -0.0529668 0)
(-0.304811 -0.0696069 0)
(-0.303929 -0.0861274 0)
(-0.301627 -0.102243 0)
(-0.29714 -0.117484 0)
(-0.289511 -0.131122 0)
(-0.27767 -0.142163 0)
(-0.260616 -0.149358 0)
(-0.237674 -0.151366 0)
(-0.208816 -0.146998 0)
(-0.17499 -0.135633 0)
(-0.138285 -0.117649 0)
(-0.101784 -0.0947388 0)
(-0.0688997 -0.0697697 0)
(-0.0423295 -0.0459822 0)
(-0.0231287 -0.0258903 0)
(-0.0106483 -0.0105051 0)
(-0.00339848 0.000314015 0)
(0.000245873 0.00733393 0)
(0.00152561 0.0112115 0)
(0.0015017 0.0123507 0)
(0.000803538 0.0105775 0)
(0.000152251 0.00517636 0)
(-0.000286189 0.00911935 0)
(-0.00189838 0.0210495 0)
(-0.00451572 0.0284404 0)
(-0.00754599 0.0327761 0)
(-0.0109281 0.0351747 0)
(-0.014368 0.0364212 0)
(-0.0179269 0.0370192 0)
(-0.0214633 0.0372621 0)
(-0.0250652 0.0373115 0)
(-0.0286698 0.037267 0)
(-0.0323949 0.0372308 0)
(-0.0362883 0.0373568 0)
(-0.0405862 0.0378826 0)
(-0.0455367 0.0391297 0)
(-0.0515698 0.0414677 0)
(-0.0591245 0.0452436 0)
(-0.068714 0.0507015 0)
(-0.0807441 0.0579105 0)
(-0.0955209 0.0667193 0)
(-0.113087 0.0767232 0)
(-0.133203 0.0872514 0)
(-0.155233 0.0973811 0)
(-0.178194 0.106028 0)
(-0.20084 0.112115 0)
(-0.221921 0.114802 0)
(-0.240406 0.113661 0)
(-0.25568 0.108723 0)
(-0.267556 0.100393 0)
(-0.276234 0.0892983 0)
(-0.282157 0.07613 0)
(-0.285899 0.0615329 0)
(-0.288045 0.0460345 0)
(-0.289139 0.0300264 0)
(-0.289633 0.013765 0)
(-0.289898 -0.00260292 0)
(-0.290207 -0.0190237 0)
(-0.290763 -0.035505 0)
(-0.291674 -0.0521035 0)
(-0.292951 -0.068884 0)
(-0.294455 -0.0858966 0)
(-0.295844 -0.103098 0)
(-0.296503 -0.120294 0)
(-0.295498 -0.137011 0)
(-0.291561 -0.152423 0)
(-0.283181 -0.165255 0)
(-0.268807 -0.173834 0)
(-0.247209 -0.176225 0)
(-0.217977 -0.170661 0)
(-0.182022 -0.156123 0)
(-0.141947 -0.133092 0)
(-0.10183 -0.104054 0)
(-0.0662592 -0.0732094 0)
(-0.0386041 -0.0450949 0)
(-0.0197062 -0.0226021 0)
(-0.00822575 -0.00646181 0)
(-0.00205648 0.00415891 0)
(0.000594741 0.0102525 0)
(0.00122974 0.0126065 0)
(0.000774343 0.0112659 0)
(0.000164492 0.00563324 0)
(-0.000290646 0.0100955 0)
(-0.0019286 0.0232391 0)
(-0.00459119 0.0313376 0)
(-0.00767769 0.0360534 0)
(-0.0111273 0.0386454 0)
(-0.0146432 0.0399831 0)
(-0.018291 0.0406279 0)
(-0.0219318 0.040902 0)
(-0.0256644 0.0409943 0)
(-0.0294408 0.0410335 0)
(-0.0334103 0.0411755 0)
(-0.037669 0.0416514 0)
(-0.0425267 0.0428055 0)
(-0.0483211 0.0450713 0)
(-0.0555748 0.04891 0)
(-0.0647925 0.0546997 0)
(-0.0765002 0.0626358 0)
(-0.0910354 0.0726446 0)
(-0.108535 0.0843383 0)
(-0.128752 0.0969806 0)
(-0.151045 0.1095 0)
(-0.17431 0.120573 0)
(-0.197155 0.128838 0)
(-0.218126 0.13319 0)
(-0.236058 0.133043 0)
(-0.250268 0.128416 0)
(-0.260634 0.119838 0)
(-0.267479 0.108127 0)
(-0.271422 0.0941801 0)
(-0.273182 0.0788091 0)
(-0.27346 0.0626576 0)
(-0.272845 0.0461781 0)
(-0.271795 0.0296569 0)
(-0.270639 0.0132455 0)
(-0.26962 -0.00299418 0)
(-0.268919 -0.0190724 0)
(-0.268701 -0.0350445 0)
(-0.269115 -0.0510203 0)
(-0.270301 -0.0671412 0)
(-0.272346 -0.083591 0)
(-0.275228 -0.100534 0)
(-0.278711 -0.118082 0)
(-0.28223 -0.136141 0)
(-0.28478 -0.154305 0)
(-0.284846 -0.171636 0)
(-0.28047 -0.186578 0)
(-0.269468 -0.196887 0)
(-0.249941 -0.199896 0)
(-0.220934 -0.193018 0)
(-0.183302 -0.17473 0)
(-0.140238 -0.145716 0)
(-0.0971383 -0.109672 0)
(-0.0599596 -0.0727731 0)
(-0.0326135 -0.040929 0)
(-0.0152157 -0.017196 0)
(-0.00544256 -0.00128547 0)
(-0.000802411 0.00811818 0)
(0.000801827 0.0123482 0)
(0.000717431 0.0118005 0)
(0.000180349 0.00609634 0)
(-0.000291309 0.011068 0)
(-0.00194285 0.0254367 0)
(-0.00463636 0.034255 0)
(-0.0077655 0.0393611 0)
(-0.0112704 0.0421562 0)
(-0.0148527 0.0435965 0)
(-0.0185824 0.0443037 0)
(-0.0223251 0.0446317 0)
(-0.026192 0.0448037 0)
(-0.0301553 0.0449889 0)
(-0.0344023 0.0454146 0)
(-0.0390875 0.0464116 0)
(-0.0446018 0.0484512 0)
(-0.0513726 0.052084 0)
(-0.059997 0.0578413 0)
(-0.0710035 0.0660807 0)
(-0.0848624 0.0768685 0)
(-0.10175 0.0898848 0)
(-0.12152 0.104384 0)
(-0.143525 0.119181 0)
(-0.166654 0.132736 0)
(-0.189384 0.143381 0)
(-0.210121 0.14969 0)
(-0.227527 0.150835 0)
(-0.240857 0.146767 0)
(-0.250013 0.138111 0)
(-0.255457 0.125896 0)
(-0.257965 0.111247 0)
(-0.258422 0.0951649 0)
(-0.257618 0.0784069 0)
(-0.256171 0.0614749 0)
(-0.254485 0.0446509 0)
(-0.252794 0.0280718 0)
(-0.251202 0.0117827 0)
(-0.249765 -0.00420838 0)
(-0.248525 -0.0199235 0)
(-0.247568 -0.0353966 0)
(-0.247026 -0.050707 0)
(-0.24711 -0.065973 0)
(-0.248066 -0.0814004 0)
(-0.250154 -0.0972467 0)
(-0.25355 -0.113839 0)
(-0.258222 -0.131441 0)
(-0.263751 -0.150161 0)
(-0.269148 -0.169666 0)
(-0.272724 -0.188981 0)
(-0.272071 -0.206182 0)
(-0.264361 -0.218385 0)
(-0.246887 -0.221937 0)