/*--------------------------------*- C++ -*----------------------------------*\
| =========                 |                                                 |
| \\      /  F ield         | OpenFOAM: The Open Source CFD Toolbox           |
|  \\    /   O peration     | Version:  2406                                  |
|   \\  /    A nd           | Website:  www.openfoam.com                      |
|    \\/     M anipulation  |                                                 |
\*---------------------------------------------------------------------------*/
FoamFile
{
    version     2.0;
    format      ascii;
    arch        "LSB;label=32;scalar=64";
    class       volScalarField;
    location    "49";
    object      p;
}
// * * * * * * * * * * * * * * * * * * * * * * * * * * * * * * * * * * * * * //

dimensions      [0 2 -2 0 0 0 0];

internalField   nonuniform List<scalar> 
3600
(
0.0412802
0.0413124
0.0413021
0.0412833
0.0412149
0.0411368
0.0410311
0.0409248
0.0408022
0.0406724
0.0405186
0.0403404
0.0401249
0.0398704
0.0395694
0.0392211
0.0388222
0.0383752
0.0378839
0.0373596
0.0368206
0.036296
0.0358231
0.035445
0.0352058
0.0351455
0.0352952
0.0356739
0.036285
0.0371136
0.0381238
0.0392571
0.0404322
0.0415484
0.0424927
0.0431515
0.0434253
0.043246
0.0425905
0.0414916
0.0400335
0.0383432
0.036564
0.0348364
0.0332697
0.0319391
0.0308734
0.030074
0.0295088
0.029142
0.0289197
0.0288066
0.0287553
0.0287523
0.0287624
0.0287951
0.0288193
0.0288624
0.0288866
0.0289223
0.0412495
0.0412827
0.0412645
0.0412458
0.041181
0.0411131
0.0410193
0.0409262
0.0408162
0.040699
0.0405587
0.0403965
0.0402005
0.0399701
0.0396975
0.0393809
0.039015
0.0385996
0.038137
0.0376375
0.0371161
0.0365957
0.0361062
0.0356869
0.0353821
0.035237
0.0352898
0.0355669
0.0360777
0.036812
0.0377374
0.0387975
0.0399126
0.0409828
0.041895
0.0425348
0.0428007
0.0426226
0.0419759
0.0408928
0.0394591
0.0378053
0.0360787
0.0344231
0.0329468
0.0317201
0.0307613
0.0300603
0.0295734
0.0292593
0.0290635
0.0289564
0.0288966
0.0288781
0.0288687
0.0288828
0.0288871
0.0289145
0.0289219
0.0289579
0.0412529
0.0412969
0.0412761
0.0412554
0.0411853
0.0411158
0.0410239
0.0409374
0.0408371
0.0407313
0.0406026
0.0404513
0.0402654
0.0400429
0.0397745
0.0394553
0.0390771
0.0386357
0.0381272
0.0375553
0.0369336
0.0362915
0.0356711
0.0351235
0.0347018
0.0344555
0.0344251
0.0346372
0.0351018
0.0358083
0.036724
0.0377924
0.0389336
0.0400473
0.0410189
0.0417308
0.0420761
0.0419769
0.0413996
0.0403682
0.0389637
0.037317
0.0355821
0.0339137
0.032433
0.0312205
0.0302992
0.0296578
0.029246
0.0290128
0.0288927
0.0288492
0.0288363
0.0288498
0.0288587
0.0288836
0.0288904
0.0289218
0.0289271
0.0289774
0.0412606
0.0413091
0.041281
0.0412538
0.0411776
0.0411093
0.0410254
0.0409533
0.0408715
0.0407854
0.0406761
0.0405416
0.040368
0.0401494
0.0398706
0.0395186
0.0390759
0.0385302
0.0378779
0.0371312
0.0363169
0.0354755
0.0346572
0.0339181
0.0333152
0.0329003
0.0327155
0.0327887
0.0331311
0.0337345
0.0345698
0.0355854
0.0367076
0.0378421
0.0388791
0.0397021
0.0402005
0.0402867
0.0399122
0.0390835
0.0378648
0.0363757
0.0347661
0.0331946
0.0317915
0.0306478
0.0297951
0.0292274
0.0288944
0.028743
0.0287014
0.0287279
0.0287708
0.0288251
0.0288587
0.0288977
0.0289074
0.0289403
0.0289403
0.0289994
0.041312
0.0413604
0.0413222
0.041282
0.0411945
0.0411207
0.0410398
0.0409762
0.0409065
0.0408306
0.0407261
0.0405847
0.0403858
0.0401126
0.0397383
0.039239
0.0385943
0.0377985
0.036862
0.0358132
0.0346952
0.0335632
0.0324779
0.0315007
0.0306886
0.0300909
0.0297459
0.0296791
0.0299007
0.0304043
0.0311655
0.0321402
0.0332644
0.0344547
0.0356112
0.0366236
0.0373809
0.0377855
0.0377695
0.0373113
0.036445
0.0352625
0.0338969
0.0325022
0.0312159
0.0301438
0.0293345
0.0287976
0.0284946
0.0283805
0.0283859
0.0284671
0.0285659
0.0286721
0.0287482
0.0288197
0.0288506
0.028898
0.0289035
0.0289699
0.0413898
0.0414296
0.0413774
0.0413191
0.041221
0.0411426
0.0410671
0.0410113
0.0409497
0.0408731
0.0407532
0.0405687
0.040286
0.039872
0.0392909
0.0385181
0.0375446
0.0363826
0.0350641
0.0336372
0.0321601
0.0306961
0.0293089
0.0280589
0.0270004
0.0261789
0.0256291
0.0253736
0.0254222
0.0257705
0.0263999
0.0272761
0.0283489
0.0295514
0.0308014
0.032004
0.0330574
0.0338624
0.0343356
0.034425
0.0341233
0.033477
0.0325807
0.0315639
0.0305583
0.0296786
0.0289912
0.0285255
0.0282613
0.028169
0.0281904
0.02829
0.0284117
0.0285442
0.0286463
0.02874
0.0287875
0.0288443
0.0288542
0.0289188
0.041522
0.0415446
0.0414758
0.0413935
0.0412827
0.0411936
0.0411152
0.041051
0.0409732
0.0408575
0.0406647
0.040353
0.0398738
0.0391825
0.0382476
0.0370591
0.0356331
0.0340073
0.0322371
0.0303873
0.0285278
0.0267269
0.0250491
0.0235505
0.0222786
0.0212698
0.0205509
0.0201376
0.0200355
0.0202399
0.0207359
0.0214978
0.0224889
0.023661
0.024954
0.0262963
0.027607
0.0287993
0.0297888
0.0305035
0.0308968
0.0309604
0.0307296
0.0302831
0.0297231
0.0291589
0.0286724
0.0283189
0.028106
0.028028
0.0280459
0.0281377
0.0282562
0.028393
0.0285067
0.0286143
0.0286768
0.0287426
0.0287598
0.0288187
0.041706
0.0417016
0.041616
0.0415065
0.0413844
0.0412798
0.041189
0.0410947
0.040965
0.0407523
0.0404029
0.0398527
0.0390468
0.0379439
0.0365342
0.0348352
0.032894
0.0307736
0.02855
0.0263
0.0240989
0.0220134
0.0201015
0.0184095
0.0169739
0.0158201
0.0149652
0.0144169
0.0141763
0.0142368
0.014586
0.0152042
0.0160664
0.0171404
0.0183878
0.0197625
0.0212115
0.0226739
0.0240834
0.0253712
0.0264726
0.0273367
0.0279361
0.0282765
0.0283958
0.0283616
0.028247
0.0281244
0.028034
0.0280047
0.0280273
0.0281017
0.0281968
0.0283126
0.0284135
0.028514
0.0285765
0.0286397
0.0286589
0.0287066
0.0419581
0.0419167
0.0418154
0.0416741
0.0415368
0.0414014
0.0412732
0.0411052
0.040859
0.040457
0.039833
0.0389088
0.037641
0.0360094
0.0340404
0.0317846
0.0293212
0.026735
0.0241166
0.0215467
0.0190982
0.016828
0.0147822
0.0129922
0.011481
0.010261
0.00933926
0.00871572
0.00838666
0.00834301
0.00857304
0.00906078
0.00978825
0.0107342
0.0118759
0.0131878
0.0146423
0.0162078
0.0178476
0.0195173
0.0211645
0.0227291
0.024147
0.0253599
0.0263245
0.027028
0.0274883
0.0277595
0.0279017
0.0279832
0.0280395
0.0281052
0.0281733
0.0282574
0.0283322
0.0284122
0.0284642
0.0285177
0.0285352
0.028571
0.0422765
0.0421899
0.042077
0.0419007
0.0417422
0.0415552
0.0413535
0.0410523
0.0406043
0.039902
0.0388776
0.0374565
0.0356273
0.0334049
0.0308584
0.028071
0.0251484
0.0221877
0.0192833
0.0165084
0.0139235
0.0115691
0.0094749
0.00765677
0.00612523
0.0048824
0.00392832
0.00325769
0.0028643
0.00273796
0.00286794
0.00324056
0.00384224
0.0046579
0.00567385
0.00687668
0.00825535
0.00979943
0.0114988
0.0133393
0.0152987
0.0173398
0.0194046
0.0214127
0.0232646
0.0248605
0.026121
0.027021
0.0275887
0.0279098
0.0280699
0.0281577
0.028208
0.0282575
0.0282962
0.0283431
0.028372
0.0284062
0.0284156
0.0284395
0.0426537
0.0425153
0.0423938
0.042174
0.041978
0.0417036
0.0413729
0.0408565
0.0401022
0.0389802
0.0374408
0.0354326
0.0329925
0.030177
0.0270969
0.0238604
0.0205887
0.0173775
0.0143122
0.0114483
0.00882819
0.00647292
0.00439699
0.00260287
0.00109204
-0.000140396
-0.00109827
-0.00178956
-0.00222114
-0.00240326
-0.00234534
-0.00205944
-0.00155637
-0.000848069
5.61888e-05
0.00114847
0.00242545
0.00388744
0.00553973
0.0073898
0.00944376
0.0116985
0.0141305
0.0166837
0.0192582
0.0217127
0.0238809
0.02562
0.026853
0.0276136
0.028006
0.0281805
0.0282404
0.0282645
0.0282675
0.0282773
0.028277
0.0282879
0.0282857
0.0283006
0.0430701
0.0428774
0.04275
0.0424762
0.0422193
0.0418117
0.0412837
0.0404599
0.0392931
0.0376481
0.0355153
0.0328827
0.0298432
0.0264923
0.0229741
0.0194076
0.0159139
0.012573
0.00945158
0.0065816
0.00398677
0.00167067
-0.000363399
-0.00212197
-0.00360807
-0.00482997
-0.00579223
-0.00650333
-0.00696907
-0.00719876
-0.00719992
-0.0069829
-0.00655626
-0.00592994
-0.00511094
-0.00410518
-0.00291355
-0.00153278
4.73977e-05
0.00184314
0.00387559
0.00616617
0.00872659
0.0115452
0.0145653
0.017669
0.0206681
0.0233326
0.0254474
0.0269055
0.0277435
0.0281314
0.028257
0.0282764
0.0282493
0.0282215
0.0281885
0.0281733
0.0281565
0.0281646
0.0434808
0.0432328
0.0430961
0.0427498
0.0423961
0.0417976
0.0409937
0.0397698
0.0380997
0.0358629
0.033108
0.02987
0.0262963
0.0225113
0.0186776
0.0149076
0.0113085
0.0079346
0.00483005
0.00200402
-0.000534932
-0.00279584
-0.00478164
-0.00650374
-0.0079663
-0.00917868
-0.0101445
-0.0108718
-0.0113648
-0.0116317
-0.011678
-0.0115126
-0.0111421
-0.0105751
-0.00981723
-0.00887363
-0.00774501
-0.00642853
-0.0049145
-0.00318637
-0.00121982
0.00101635
0.00355414
0.00641817
0.00960385
0.0130549
0.0166303
0.020097
0.0231528
0.0255236
0.0270729
0.027887
0.0281905
0.0282491
0.0282075
0.0281475
0.0280835
0.0280432
0.0280114
0.0280151
0.0438373
0.043536
0.0433831
0.0429427
0.042451
0.0416011
0.0404458
0.0387444
0.0365113
0.0336588
0.0303037
0.0265267
0.0225202
0.0184209
0.014393
0.010527
0.00690728
0.00355909
0.000506157
-0.00226095
-0.00474308
-0.00695694
-0.0089073
-0.0106074
-0.0120603
-0.0132751
-0.0142536
-0.0150029
-0.0155254
-0.015828
-0.0159143
-0.0157917
-0.015465
-0.0149414
-0.0142251
-0.013321
-0.0122302
-0.0109512
-0.00947741
-0.00779578
-0.00588585
-0.00371752
-0.00125429
0.00154598
0.00471439
0.0082554
0.0121052
0.0161009
0.0199529
0.0232903
0.0257781
0.0272915
0.0279763
0.0281603
0.0281348
0.028052
0.0279601
0.0278962
0.0278495
0.0278491
0.0440592
0.0437063
0.0435231
0.0429616
0.0422861
0.0411273
0.0395585
0.0373312
0.0345167
0.0310726
0.0271838
0.0229681
0.0186471
0.0143521
0.0102341
0.00635231
0.00276617
-0.000525788
-0.0035148
-0.00622317
-0.00865574
-0.0108329
-0.0127585
-0.0144459
-0.0158962
-0.0171177
-0.0181106
-0.0188812
-0.0194301
-0.0197635
-0.0198833
-0.0197958
-0.0195041
-0.0190141
-0.0183289
-0.0174527
-0.0163864
-0.01513
-0.0136792
-0.0120255
-0.0101543
-0.00804168
-0.0056564
-0.00295418
0.000110269
0.00358004
0.00745855
0.0116779
0.0160371
0.0201858
0.0236744
0.0261291
0.0274701
0.0279534
0.0280011
0.0279157
0.0278011
0.0277144
0.027654
0.0276477
0.0440817
0.0436805
0.0434506
0.0427431
0.0418435
0.0403323
0.0383118
0.0355452
0.0321718
0.0281988
0.0238716
0.0193303
0.0148086
0.0104169
0.00628364
0.00243424
-0.00109386
-0.00432346
-0.00725431
-0.00991644
-0.0123146
-0.0144704
-0.0163849
-0.0180714
-0.0195282
-0.0207635
-0.0217753
-0.0225697
-0.0231457
-0.0235089
-0.0236596
-0.0236032
-0.0233414
-0.0228789
-0.0222176
-0.0213608
-0.0203094
-0.0190637
-0.0176214
-0.0159771
-0.0141221
-0.0120396
-0.00970772
-0.0070891
-0.00414069
-0.000804408
0.00296289
0.0071728
0.0117346
0.0164039
0.0207478
0.0242383
0.0264942
0.0275473
0.0277859
0.0277322
0.0276053
0.0274932
0.027419
0.0274027
0.0438191
0.0433717
0.0430764
0.0422011
0.0410461
0.0391585
0.0366779
0.0333954
0.0295218
0.0251104
0.0204541
0.015699
0.0110756
0.00666321
0.00256469
-0.00122583
-0.00468706
-0.00785689
-0.0107381
-0.0133645
-0.0157382
-0.0178809
-0.0197906
-0.0214799
-0.022945
-0.024194
-0.0252234
-0.0260391
-0.0266389
-0.0270279
-0.0272055
-0.0271763
-0.0269406
-0.0265024
-0.0258625
-0.0250235
-0.0239856
-0.022749
-0.0213127
-0.0196725
-0.0178245
-0.0157568
-0.013457
-0.010897
-0.00804486
-0.00484423
-0.0012394
0.00282943
0.0073616
0.0122433
0.017158
0.0215684
0.0248845
0.0267755
0.0274499
0.027475
0.027364
0.0272205
0.0271308
0.0270986
0.0432268
0.0427372
0.0423612
0.041306
0.0398803
0.0376163
0.0346969
0.0309523
0.0266613
0.021915
0.0170373
0.0121661
0.00751699
0.00313412
-0.000903241
-0.00462682
-0.00802497
-0.0111451
-0.0139888
-0.0165915
-0.0189512
-0.0210893
-0.0230005
-0.0246974
-0.0261742
-0.0274389
-0.0284868
-0.0293238
-0.0299466
-0.0303601
-0.0305625
-0.0305579
-0.0303456
-0.029929
-0.029308
-0.0284843
-0.0274581
-0.0262289
-0.0247964
-0.0231571
-0.0213099
-0.0192461
-0.016961
-0.0144344
-0.0116477
-0.00855437
-0.00510492
-0.00122108
0.00315014
0.00800659
0.0131797
0.0182464
0.0225669
0.0254846
0.0268862
0.0271345
0.0270589
0.0268959
0.0267808
0.0267274
0.0422559
0.0417283
0.0412597
0.0400219
0.0383265
0.0357088
0.0323967
0.0282654
0.023652
0.0186744
0.0136723
0.00876391
0.004144
-0.000177451
-0.00414027
-0.00779552
-0.0111357
-0.0142134
-0.0170269
-0.0196113
-0.0219609
-0.0240962
-0.0260095
-0.0277133
-0.0292002
-0.0304785
-0.0315423
-0.0323977
-0.0330405
-0.0334753
-0.0336995
-0.0337168
-0.0335258
-0.0331292
-0.0325264
-0.0317185
-0.0307055
-0.0294862
-0.0280611
-0.026426
-0.0245821
-0.0225216
-0.0202452
-0.017738
-0.0149934
-0.0119759
-0.0086513
-0.00494313
-0.000779196
0.00391047
0.00908872
0.0145016
0.0195963
0.023584
0.025915
0.0266894
0.0266534
0.0265106
0.0263548
0.0262757
0.0409148
0.0403562
0.0397903
0.0383793
0.036432
0.0335027
0.0298621
0.0254311
0.0205922
0.0154786
0.0104322
0.00554529
0.000989708
-0.00325442
-0.00714044
-0.0107325
-0.0140232
-0.0170671
-0.0198578
-0.02243
-0.0247737
-0.0269095
-0.0288271
-0.0305393
-0.0320372
-0.0333295
-0.0344093
-0.0352827
-0.0359446
-0.0363995
-0.036644
-0.0366813
-0.0365096
-0.0361308
-0.0355444
-0.0347507
-0.0337502
-0.0325406
-0.0311237
-0.0294942
-0.0276554
-0.0255988
-0.0233294
-0.020834
-0.0181159
-0.015148
-0.011914
-0.00834858
-0.00438458
8.14902e-05
0.00510348
0.010587
0.0161606
0.0210584
0.0244399
0.0260031
0.026159
0.0260224
0.0258539
0.0257266
0.0392129
0.0386312
0.0379686
0.0364025
0.0342333
0.0310465
0.0271495
0.0225059
0.0175298
0.0123599
0.00733019
0.00250517
-0.00196495
-0.00612401
-0.00993389
-0.0134667
-0.0167125
-0.019726
-0.0224962
-0.0250566
-0.0273941
-0.0295291
-0.0314493
-0.0331679
-0.0346748
-0.0359789
-0.0370725
-0.0379615
-0.0386403
-0.0391128
-0.0393754
-0.0394306
-0.0392765
-0.0389142
-0.0383435
-0.0375637
-0.0365763
-0.035378
-0.0339719
-0.0323515
-0.0305222
-0.0284737
-0.0262148
-0.0237313
-0.0210342
-0.0181007
-0.014931
-0.0114727
-0.00767733
-0.00343504
0.00135289
0.00671499
0.012479
0.0180074
0.022433
0.0248926
0.025587
0.0253825
0.0252724
0.0250579
0.0372145
0.0366206
0.0358679
0.034173
0.0318208
0.0284378
0.0243587
0.0195853
0.0145491
0.00938696
0.00441823
-0.000319166
-0.00469384
-0.0087673
-0.0125058
-0.0159855
-0.0191923
-0.0221801
-0.0249332
-0.0274843
-0.0298175
-0.0319529
-0.0338768
-0.0356026
-0.0371193
-0.0384356
-0.0395432
-0.0404478
-0.041143
-0.0416325
-0.0419121
-0.0419838
-0.0418456
-0.041498
-0.0409412
-0.0401737
-0.0391982
-0.0380101
-0.0366148
-0.0350039
-0.0331857
-0.0311476
-0.028902
-0.0264322
-0.0237551
-0.0208487
-0.0177266
-0.0143467
-0.010684
-0.0066379
-0.00210175
0.00303297
0.00875189
0.0146254
0.0198987
0.0233154
0.0248141
0.0246118
0.0245616
0.0242621
0.0349759
0.0343808
0.0335478
0.031753
0.029259
0.0257393
0.0215453
0.0167112
0.0116743
0.00656536
0.00168531
-0.00295064
-0.00722664
-0.011216
-0.0148869
-0.0183162
-0.021486
-0.0244483
-0.0271837
-0.029724
-0.032051
-0.0341849
-0.0361107
-0.0378418
-0.0393664
-0.0406932
-0.0418131
-0.0427314
-0.0434413
-0.0439459
-0.0442409
-0.0443273
-0.0442036
-0.0438693
-0.0433254
-0.0425693
-0.0416053
-0.0404274
-0.0390436
-0.0374434
-0.0356387
-0.0336137
-0.0313852
-0.0289326
-0.0262785
-0.0233982
-0.0203163
-0.0169964
-0.0134363
-0.00955126
-0.00524906
-0.000383545
0.00513524
0.0111048
0.0169226
0.0213012
0.0236452
0.023759
0.0236497
0.023337
0.0325937
0.0320102
0.0311097
0.0292459
0.0266519
0.0230519
0.0188028
0.0139663
0.00897496
0.00395163
-0.000822823
-0.00535128
-0.00953032
-0.0134401
-0.017049
-0.0204327
-0.0235693
-0.0265088
-0.0292287
-0.0317597
-0.0340821
-0.0362156
-0.0381446
-0.0398821
-0.0414157
-0.0427536
-0.0438863
-0.0448184
-0.0455431
-0.0460623
-0.0463719
-0.046472
-0.0463617
-0.046039
-0.0455065
-0.04476
-0.043806
-0.0426367
-0.0412633
-0.0396728
-0.0378815
-0.0358699
-0.0336604
-0.0312271
-0.028599
-0.0257462
-0.0227028
-0.0194331
-0.0159551
-0.0121998
-0.00809949
-0.0035051
0.00173608
0.0075994
0.0136763
0.0188754
0.0220233
0.0227931
0.0225205
0.0222662
0.0301412
0.0295808
0.0286256
0.0267207
0.0240625
0.0204283
0.0161693
0.0113712
0.00645396
0.00153326
-0.00313025
-0.00755208
-0.0116389
-0.0154737
-0.0190243
-0.0223641
-0.0254682
-0.028384
-0.0310871
-0.033607
-0.035923
-0.0380545
-0.039985
-0.0417271
-0.0432681
-0.0446155
-0.0457594
-0.0467038
-0.0474415
-0.0479737
-0.0482965
-0.0484086
-0.0483102
-0.0479977
-0.0474755
-0.0467372
-0.0457925
-0.0446308
-0.0432674
-0.041686
-0.0399084
-0.0379106
-0.0357216
-0.0333093
-0.0307105
-0.0278877
-0.0248847
-0.0216619
-0.0182546
-0.0146053
-0.0106747
-0.0063313
-0.00139126
0.00422275
0.0103387
0.016082
0.020011
0.0215657
0.0212123
0.0210037
0.0277177
0.0271925
0.0261962
0.024276
0.0215856
0.0179565
0.0137241
0.0089953
0.0041716
-0.000636717
-0.00518876
-0.00950789
-0.013509
-0.0172748
-0.0207728
-0.0240728
-0.0271478
-0.0300425
-0.0327311
-0.035242
-0.0375537
-0.0396847
-0.0416184
-0.0433665
-0.0449162
-0.046274
-0.0474299
-0.0483868
-0.0491378
-0.0496825
-0.050018
-0.0501413
-0.0500539
-0.0497502
-0.049237
-0.0485052
-0.0475682
-0.0464121
-0.0450573
-0.0434831
-0.041718
-0.0397327
-0.037564
-0.0351728
-0.032605
-0.029814
-0.0268543
-0.0236779
-0.0203371
-0.0167782
-0.0129921
-0.00887034
-0.0042264
0.0010588
0.00704868
0.0130297
0.0176902
0.0199606
0.0197888
0.019522
0.0253866
0.0249067
0.0238808
0.0219648
0.0192652
0.0156675
0.0114832
0.00683911
0.00211417
-0.00258334
-0.00703125
-0.0112559
-0.0151795
-0.0188822
-0.0223316
-0.0255935
-0.02864
-0.031513
-0.0341862
-0.0366865
-0.0389924
-0.0411213
-0.0430567
-0.0448092
-0.046366
-0.0477324
-0.0488988
-0.0498664
-0.050629
-0.0511846
-0.0515313
-0.051664
-0.0515861
-0.0512894
-0.0507839
-0.050057
-0.0491266
-0.0479744
-0.0466271
-0.0450585
-0.0433052
-0.0413307
-0.0391821
-0.0368112
-0.0342755
-0.0315172
-0.0286037
-0.0254748
-0.0222004
-0.0187227
-0.015064
-0.0111341
-0.00676885
-0.00183923
0.00390077
0.00986723
0.0151224
0.0179791
0.0182651
0.0178199
0.023229
0.0228048
0.0217612
0.019867
0.0171772
0.0136318
0.00951153
0.00496237
0.000338036
-0.00425221
-0.00860382
-0.0127426
-0.0165972
-0.0202436
-0.0236502
-0.0268786
-0.0299005
-0.032755
-0.035416
-0.0379084
-0.0402111
-0.0423403
-0.0442795
-0.046038
-0.0476034
-0.0489795
-0.0501572
-0.0511359
-0.0519104
-0.0524766
-0.0528342
-0.0529754
-0.0529064
-0.0526154
-0.0521165
-0.0513927
-0.0504674
-0.049317
-0.0479755
-0.04641
-0.0446667
-0.0427006
-0.0405705
-0.0382178
-0.0357139
-0.0329875
-0.0301219
-0.0270414
-0.023835
-0.0204339
-0.0168924
-0.0131291
-0.00902165
-0.00444139
0.000960855
0.00673522
0.0123604
0.0156822
0.0165642
0.0158923
0.0212835
0.0209226
0.0198709
0.0180097
0.01534
0.0118568
0.00780415
0.00334818
-0.00118437
-0.00567918
-0.0099482
-0.014013
-0.0178086
-0.0214054
-0.0247739
-0.0279711
-0.0309694
-0.0338053
-0.0364535
-0.038937
-0.0412353
-0.0433631
-0.0453046
-0.0470675
-0.0486398
-0.0500237
-0.051211
-0.0521988
-0.0529836
-0.0535583
-0.0539252
-0.0540729
-0.0540111
-0.0537239
-0.0532299
-0.0525071
-0.0515855
-0.0504346
-0.0490974
-0.0475326
-0.0457975
-0.0438371
-0.0417238
-0.0393866
-0.0369131
-0.0342169
-0.0313996
-0.0283672
-0.0252306
-0.0219033
-0.0184736
-0.0148573
-0.0109869
-0.00673345
-0.00172111
0.00374476
0.00948101
0.0131488
0.0145963
0.0137457
0.0196055
0.0193164
0.0182676
0.0164504
0.01381
0.010397
0.00641512
0.00205069
-0.00239716
-0.00680627
-0.0110038
-0.0150049
-0.0187507
-0.0223055
-0.0256422
-0.0288133
-0.031793
-0.0346144
-0.0372537
-0.0397316
-0.0420289
-0.0441581
-0.0461044
-0.0478735
-0.0494547
-0.0508476
-0.0520455
-0.053043
-0.0538385
-0.0544217
-0.0547977
-0.0549512
-0.0548962
-0.0546113
-0.0541214
-0.0533977
-0.0524782
-0.0513245
-0.0499896
-0.0484225
-0.0466933
-0.0447351
-0.0426361
-0.0403106
-0.0378653
-0.0351957
-0.0324257
-0.0294393
-0.0263733
-0.0231175
-0.0197966
-0.0163126
-0.0126602
-0.00870559
-0.00410359
0.000981241
0.00659523
0.010476
0.0123605
0.0114345
0.0182046
0.0179926
0.0169557
0.0151884
0.01258
0.00923728
0.00532021
0.00103705
-0.00334118
-0.00768077
-0.0118231
-0.0157739
-0.0194807
-0.023001
-0.026311
-0.0294589
-0.0324213
-0.0352286
-0.0378587
-0.0403302
-0.0426253
-0.0447543
-0.046704
-0.0484776
-0.0500659
-0.0514658
-0.0526727
-0.0536777
-0.0544822
-0.0550716
-0.0554551
-0.0556121
-0.055562
-0.055277
-0.0547893
-0.0540621
-0.0531429
-0.0519833
-0.0506488
-0.0490759
-0.0473503
-0.0453901
-0.0433025
-0.0409841
-0.0385638
-0.0359162
-0.0331909
-0.0302466
-0.0272502
-0.0240625
-0.0208476
-0.0174842
-0.0140326
-0.0103474
-0.00615121
-0.00148515
0.0038339
0.0077861
0.00996352
0.00906369
0.017112
0.0169831
0.0159701
0.0142614
0.0116904
0.00842039
0.00456647
0.000359007
-0.0039588
-0.00823972
-0.0123381
-0.0162489
-0.0199259
-0.0234192
-0.0267093
-0.0298398
-0.0327904
-0.0355884
-0.038214
-0.0406832
-0.04298
-0.0451122
-0.0470683
-0.0488487
-0.0504464
-0.0518549
-0.0530723
-0.0540856
-0.0549
-0.0554956
-0.0558869
-0.0560467
-0.0560014
-0.0557149
-0.0552288
-0.0544959
-0.0535757
-0.0524074
-0.0510711
-0.0494888
-0.0477639
-0.0457973
-0.0437175
-0.0414007
-0.0390013
-0.0363695
-0.0336848
-0.0307768
-0.0278469
-0.024722
-0.0216097
-0.0183561
-0.0150896
-0.0116447
-0.0078333
-0.00359467
0.00132224
0.00521448
0.00756387
0.00675845
0.0163101
0.0162661
0.0152871
0.0136424
0.0111097
0.00790948
0.004111
-3.23038e-05
-0.00430504
-0.00854349
-0.0126138
-0.0164981
-0.0201561
-0.0236302
-0.0269056
-0.0300218
-0.0329623
-0.0357514
-0.0383724
-0.0408384
-0.0431359
-0.0452699
-0.047231
-0.0490166
-0.0506221
-0.0520372
-0.0532635
-0.0542831
-0.0551057
-0.0557052
-0.0561026
-0.0562627
-0.0562203
-0.0559295
-0.0554428
-0.0547011
-0.0537776
-0.0525968
-0.0512561
-0.0496599
-0.0479325
-0.045954
-0.0438779
-0.0415562
-0.0391727
-0.0365492
-0.0338995
-0.0310197
-0.0281511
-0.0250812
-0.0220661
-0.0189105
-0.0158142
-0.0125804
-0.00912362
-0.00529767
-0.00083662
0.00288954
0.00531422
0.00463514
0.0158119
0.0158546
0.0149236
0.0133534
0.0108665
0.00773963
0.00399721
-8.50092e-05
-0.00431855
-0.00852264
-0.0125737
-0.0164403
-0.0200874
-0.0235496
-0.0268172
-0.0299253
-0.0328616
-0.0356474
-0.038269
-0.0407367
-0.0430395
-0.0451792
-0.0471492
-0.0489429
-0.0505593
-0.0519831
-0.0532206
-0.0542475
-0.0550799
-0.0556838
-0.0560882
-0.0562481
-0.0562089
-0.0559126
-0.0554249
-0.0546722
-0.053744
-0.0525476
-0.0512002
-0.0495858
-0.0478525
-0.0458564
-0.0437795
-0.0414455
-0.0390721
-0.036448
-0.0338265
-0.0309648
-0.0281504
-0.0251248
-0.0221995
-0.0191286
-0.0161873
-0.0131357
-0.00999933
-0.00655494
-0.00256594
0.000918706
0.00333665
0.00278903
0.0155753
0.0157002
0.0148292
0.0133412
0.0109054
0.00785203
0.00416251
0.000134449
-0.00407054
-0.0082527
-0.0122978
-0.0161584
-0.0198045
-0.0232622
-0.026527
-0.0296297
-0.0325635
-0.0353462
-0.0379685
-0.0404369
-0.0427445
-0.0448885
-0.0468665
-0.0486668
-0.0502931
-0.0517239
-0.0529716
-0.0540039
-0.054845
-0.0554509
-0.055861
-0.0560179
-0.0559803
-0.0556752
-0.0551846
-0.054417
-0.0534817
-0.052265
-0.0509078
-0.0492694
-0.0475261
-0.0455053
-0.0434223
-0.0410674
-0.0386973
-0.036062
-0.0334604
-0.0306045
-0.027835
-0.0248404
-0.0219949
-0.0189926
-0.0161908
-0.0132921
-0.0104409
-0.00733684
-0.00381174
-0.000614699
0.00172345
0.00129639
0.0156016
0.0158028
0.0150082
0.0136171
0.011248
0.00827777
0.00464991
0.000680554
-0.00349375
-0.00765577
-0.0116984
-0.0155586
-0.0192099
-0.0226696
-0.025938
-0.0290421
-0.0319797
-0.0347655
-0.0373945
-0.0398694
-0.0421872
-0.0443405
-0.0463315
-0.0481423
-0.0497826
-0.0512233
-0.0524844
-0.0535241
-0.0543764
-0.0549853
-0.0554028
-0.0555568
-0.0555217
-0.0552069
-0.0547134
-0.0539287
-0.0529854
-0.0517449
-0.0503756
-0.048708
-0.0469511
-0.0448987
-0.0428041
-0.0404191
-0.038045
-0.0353868
-0.0327958
-0.0299316
-0.027196
-0.0242161
-0.0214384
-0.0184862
-0.0158073
-0.0130318
-0.0104317
-0.00762128
-0.0045369
-0.00164821
0.00054584
0.000220534
0.0158251
0.0160888
0.0153839
0.0141007
0.0118133
0.00893405
0.00537446
0.00146623
-0.00267867
-0.00682534
-0.010873
-0.0147409
-0.018405
-0.0218725
-0.025149
-0.0282567
-0.0311996
-0.0339888
-0.0366246
-0.0391053
-0.0414333
-0.043595
-0.0455989
-0.0474193
-0.0490738
-0.0505233
-0.0517978
-0.0528434
-0.0537066
-0.0543166
-0.0547408
-0.0548894
-0.0548557
-0.0545277
-0.0540296
-0.0532235
-0.0522696
-0.0509997
-0.0496149
-0.0479112
-0.0461357
-0.0440428
-0.0419303
-0.0395041
-0.0371175
-0.0344227
-0.0318317
-0.0289426
-0.0262282
-0.0232441
-0.0205199
-0.0175962
-0.0150226
-0.0123397
-0.00995787
-0.00739212
-0.00471603
-0.0021352
-0.000138004
-0.000382545
0.016244
0.0165549
0.0159571
0.0147994
0.0126221
0.00985304
0.00638299
0.00255183
-0.00154931
-0.00567235
-0.00972026
-0.0135959
-0.0172753
-0.0207556
-0.0240462
-0.0271644
-0.0301197
-0.0329193
-0.0355693
-0.0380627
-0.0404079
-0.0425843
-0.0446076
-0.0464428
-0.0481171
-0.0495796
-0.0508724
-0.0519268
-0.052805
-0.0534177
-0.0538518
-0.0539954
-0.0539654
-0.0536234
-0.0531217
-0.0522921
-0.0513274
-0.0500243
-0.0486221
-0.0468765
-0.0450788
-0.0429372
-0.0408007
-0.0383223
-0.0359146
-0.0331688
-0.0305664
-0.0276344
-0.0249273
-0.0219176
-0.0192314
-0.0163119
-0.0138253
-0.0112034
-0.00900901
-0.00663791
-0.00433218
-0.00204089
-0.000278563
-0.000461481
0.01677
0.0171061
0.0166259
0.015606
0.0135654
0.0109247
0.00756394
0.00382502
-0.000220101
-0.00431232
-0.00835833
-0.0122427
-0.0159407
-0.019437
-0.0227448
-0.0258751
-0.0288444
-0.0316547
-0.0343198
-0.0368258
-0.0391894
-0.0413805
-0.0434248
-0.0452751
-0.0469711
-0.0484463
-0.0497592
-0.0508219
-0.0517163
-0.0523304
-0.0527751
-0.0529115
-0.0528848
-0.0525256
-0.0520193
-0.0511614
-0.0501836
-0.0488411
-0.0474177
-0.0456221
-0.0437969
-0.041596
-0.0394281
-0.0368839
-0.0344453
-0.0316315
-0.029005
-0.0260095
-0.0232945
-0.020235
-0.0175696
-0.0146271
-0.0122086
-0.00961437
-0.00757866
-0.0053517
-0.00337544
-0.00134023
0.000166415
3.08579e-05
0.0174142
0.0177574
0.0174039
0.0165387
0.0146727
0.0121909
0.00897456
0.00535729
0.00139776
-0.00264171
-0.00666882
-0.0105532
-0.0142664
-0.0177806
-0.0211106
-0.0242601
-0.0272519
-0.0300816
-0.0327713
-0.0352985
-0.03769
-0.0399037
-0.041978
-0.0438502
-0.045576
-0.0470698
-0.0484098
-0.049485
-0.0504015
-0.0510199
-0.05148
-0.0516106
-0.051591
-0.0512143
-0.0507056
-0.0498177
-0.0488276
-0.0474419
-0.0459965
-0.0441445
-0.0422884
-0.040019
-0.0378137
-0.0351908
-0.0327122
-0.0298134
-0.0271503
-0.0240695
-0.0213309
-0.0181957
-0.0155335
-0.0125387
-0.0101693
-0.0075682
-0.00566489
-0.00353114
-0.00184281
-1.7347e-05
0.00123088
0.00113564
0.0180682
0.0183992
0.0181677
0.0174656
0.015804
0.0135099
0.0104702
0.00700443
0.00315889
-0.000804079
-0.00479561
-0.00866909
-0.0123928
-0.0159228
-0.019276
-0.0224453
-0.0254619
-0.0283119
-0.031029
-0.0335787
-0.0360016
-0.0382397
-0.0403483
-0.0422443
-0.0440044
-0.0455183
-0.0468897
-0.0479781
-0.0489205
-0.0495427
-0.0500208
-0.0501438
-0.0501327
-0.0497353
-0.0492244
-0.0483014
-0.0472977
-0.0458617
-0.0443911
-0.0424733
-0.0405812
-0.0382308
-0.0359804
-0.0332629
-0.0307334
-0.0277293
-0.0250157
-0.0218248
-0.0190458
-0.0158059
-0.0131286
-0.0100492
-0.00771074
-0.00506586
-0.00327171
-0.00117939
0.000260932
0.00193399
0.00293807
0.00288517
0.0187813
0.019092
0.0189695
0.0184403
0.0170146
0.0149473
0.0121294
0.00885776
0.00517134
0.00132321
-0.00259965
-0.00644051
-0.0101617
-0.0137038
-0.0170828
-0.0202791
-0.0233307
-0.0262123
-0.0289695
-0.0315534
-0.0340207
-0.036294
-0.0384491
-0.0403784
-0.042184
-0.0437257
-0.0451384
-0.046246
-0.0472227
-0.0478529
-0.0483562
-0.0484739
-0.0484771
-0.0480595
-0.0475507
-0.0465911
-0.0455764
-0.0440863
-0.0425911
-0.0406009
-0.0386707
-0.0362292
-0.0339287
-0.0311019
-0.0285129
-0.0253839
-0.0226072
-0.0192812
-0.016446
-0.0130714
-0.0103619
-0.00716405
-0.00484009
-0.00211302
-0.000409115
0.0016946
0.00292246
0.00450972
0.0052976
0.00529953
0.0194192
0.0197022
0.0196629
0.0193031
0.0181281
0.0163213
0.0137646
0.0107314
0.00724867
0.00355954
-0.000258457
-0.00403715
-0.00773773
-0.0112798
-0.014681
-0.0179025
-0.0209928
-0.0239083
-0.0267123
-0.0293344
-0.0318541
-0.0341672
-0.0363775
-0.0383444
-0.0402042
-0.0417772
-0.0432392
-0.0443683
-0.0453861
-0.046025
-0.0465588
-0.0466701
-0.0466913
-0.0462504
-0.0457458
-0.0447444
-0.0437188
-0.042167
-0.0406452
-0.038572
-0.0365995
-0.0340528
-0.0316947
-0.0287404
-0.026081
-0.0228038
-0.0199496
-0.01646
-0.0135518
-0.0100091
-0.00725036
-0.00389715
-0.00157322
0.00127716
0.0029048
0.00507491
0.00611887
0.00769514
0.00830312
0.00838398
0.0200985
0.0203565
0.0203739
0.0201731
0.019256
0.017743
0.0154935
0.0127506
0.00952945
0.00605432
0.00239276
-0.00128456
-0.00493699
-0.00846532
-0.0118861
-0.0151385
-0.0182797
-0.0212436
-0.0241121
-0.0267884
-0.0293789
-0.0317465
-0.0340292
-0.0360464
-0.0379759
-0.0395905
-0.0411154
-0.0422738
-0.0433446
-0.0439978
-0.0445721
-0.0446804
-0.044728
-0.0442651
-0.0437712
-0.0427271
-0.0416956
-0.0400784
-0.0385331
-0.0363702
-0.0343556
-0.031693
-0.0292743
-0.0261769
-0.0234402
-0.0199933
-0.0170508
-0.0133699
-0.010375
-0.00663101
-0.00380928
-0.000263078
0.00207086
0.00508742
0.00664573
0.00893974
0.0098181
0.0114656
0.0119312
0.0121277
0.0206329
0.0208614
0.0209112
0.0208425
0.0201736
0.0189748
0.0170706
0.0146729
0.0117721
0.00857737
0.00513146
0.0016105
-0.00195554
-0.00544077
-0.00886842
-0.0121441
-0.0153408
-0.018357
-0.0213026
-0.0240415
-0.0267181
-0.0291492
-0.03152
-0.0335953
-0.0356091
-0.0372715
-0.0388724
-0.0400642
-0.041199
-0.041868
-0.0424919
-0.0425964
-0.0426774
-0.0421892
-0.0417112
-0.0406185
-0.0395839
-0.0378929
-0.0363244
-0.03406
-0.032001
-0.0292069
-0.026722
-0.023461
-0.0206379
-0.0169953
-0.0139519
-0.0100479
-0.00695185
-0.00296963
-7.21015e-05
0.00370846
0.0060593
0.0092893
0.0107786
0.0132595
0.0139788
0.0157889
0.0161432
0.0165063
0.0212415
0.0214448
0.0215114
0.0215398
0.0210949
0.0202124
0.0186851
0.0166824
0.0141664
0.0113197
0.00815792
0.00485173
0.00141774
-0.00199556
-0.00541786
-0.00871709
-0.0119816
-0.0150669
-0.0181132
-0.0209362
-0.0237247
-0.0262396
-0.0287225
-0.030873
-0.0329923
-0.0347159
-0.036411
-0.0376462
-0.0388606
-0.0395527
-0.0402395
-0.0403448
-0.0404705
-0.0399591
-0.0395066
-0.0383649
-0.0373353
-0.0355673
-0.0339818
-0.0316095
-0.0295099
-0.0265735
-0.0240233
-0.0205828
-0.0176705
-0.0138102
-0.0106598
-0.00650408
-0.00329887
0.000956806
0.00393654