/*--------------------------------*- C++ -*----------------------------------*\
| =========                 |                                                 |
| \\      /  F ield         | OpenFOAM: The Open Source CFD Toolbox           |
|  \\    /   O peration     | Version:  2406                                  |
|   \\  /    A nd           | Website:  www.openfoam.com                      |
|    \\/     M anipulation  |                                                 |
\*---------------------------------------------------------------------------*/
FoamFile
{
    version     2.0;
    format      ascii;
    arch        "LSB;label=32;scalar=64";
    class       volVectorField;
    location    "26.5";
    object      U_0;
}
// * * * * * * * * * * * * * * * * * * * * * * * * * * * * * * * * * * * * * //

dimensions      [0 1 -1 0 0 0 0];

internalField   nonuniform List<vector> 
16384
(
(-1.08917e-05 1.07891e-05 0)
(6.35355e-06 5.17533e-08 0)
(8.57774e-05 -1.31533e-05 0)
(0.000217695 -2.31933e-05 0)
(0.000389056 -2.95231e-05 0)
(0.000585272 -3.27905e-05 0)
(0.000793154 -3.36759e-05 0)
(0.00100166 -3.27758e-05 0)
(0.00120204 -3.06042e-05 0)
(0.00138778 -2.76047e-05 0)
(0.00155445 -2.41586e-05 0)
(0.00169947 -2.05871e-05 0)
(0.00182185 -1.71497e-05 0)
(0.00192192 -1.40444e-05 0)
(0.00200097 -1.14094e-05 0)
(0.00206099 -9.32681e-06 0)
(0.00210436 -7.82796e-06 0)
(0.00213355 -6.89932e-06 0)
(0.00215095 -6.48904e-06 0)
(0.00215862 -6.51162e-06 0)
(0.00215807 -6.9293e-06 0)
(0.00215024 -7.56033e-06 0)
(0.00213542 -8.2964e-06 0)
(0.00211319 -9.0326e-06 0)
(0.00208241 -9.66392e-06 0)
(0.00204131 -1.00974e-05 0)
(0.00198758 -1.02564e-05 0)
(0.00191841 -1.00808e-05 0)
(0.0018306 -9.525e-06 0)
(0.00172069 -8.55394e-06 0)
(0.00158496 -7.13823e-06 0)
(0.00141956 -5.25185e-06 0)
(0.00122048 -2.86071e-06 0)
(0.000983639 6.81941e-08 0)
(0.000704885 3.57897e-06 0)
(0.000380032 7.71794e-06 0)
(4.91283e-06 1.25344e-05 0)
(-0.000424577 1.80765e-05 0)
(-0.000912396 2.43921e-05 0)
(-0.00146226 3.15195e-05 0)
(-0.00207755 3.94867e-05 0)
(-0.0027612 4.83082e-05 0)
(-0.00351554 5.7982e-05 0)
(-0.00434221 6.84864e-05 0)
(-0.00524203 7.97775e-05 0)
(-0.00621486 9.17874e-05 0)
(-0.0072595 0.000104422 0)
(-0.00837363 0.00011756 0)
(-0.00955368 0.000131052 0)
(-0.0107948 0.000144721 0)
(-0.0120908 0.000158362 0)
(-0.0134342 0.000171744 0)
(-0.0148161 0.000184613 0)
(-0.0162266 0.000196693 0)
(-0.0176542 0.00020769 0)
(-0.0190864 0.000217295 0)
(-0.0205098 0.000225191 0)
(-0.0219099 0.000231055 0)
(-0.0232714 0.000234564 0)
(-0.0245784 0.000235406 0)
(-0.0258145 0.00023328 0)
(-0.026963 0.00022791 0)
(-0.0280069 0.000219053 0)
(-0.0289296 0.000206531 0)
(-0.0297147 0.000190273 0)
(-0.0303463 0.000170366 0)
(-0.0308097 0.000146909 0)
(-0.0310915 0.000119281 0)
(-0.0311793 8.57338e-05 0)
(-0.0310584 5.19656e-05 0)
(-0.0307192 1.21845e-05 0)
(-0.0301601 -3.07759e-05 0)
(-0.0293755 -7.54062e-05 0)
(-0.0283644 -0.000121127 0)
(-0.0271296 -0.000167194 0)
(-0.0256773 -0.000212678 0)
(-0.0240179 -0.000256542 0)
(-0.0221655 -0.000297671 0)
(-0.0201385 -0.000334924 0)
(-0.0179592 -0.000367171 0)
(-0.0156536 -0.000393352 0)
(-0.0132514 -0.000412526 0)
(-0.0107849 -0.000423926 0)
(-0.00828889 -0.000427006 0)
(-0.00579945 -0.000421451 0)
(-0.00335321 -0.000407195 0)
(-0.000984946 -0.000385025 0)
(0.00126936 -0.000357007 0)
(0.00337564 -0.000318864 0)
(0.00530745 -0.000277656 0)
(0.00704157 -0.000232427 0)
(0.00855832 -0.000184767 0)
(0.00984453 -0.000136398 0)
(0.0108932 -8.8863e-05 0)
(0.0117034 -4.35945e-05 0)
(0.0122798 -1.80866e-06 0)
(0.0126327 3.55349e-05 0)
(0.0127769 6.77561e-05 0)
(0.0127312 9.43959e-05 0)
(0.0125171 0.000115239 0)
(0.0121584 0.000130642 0)
(0.0116791 0.000140913 0)
(0.0111037 0.00014649 0)
(0.0104557 0.000147998 0)
(0.00975723 0.000146113 0)
(0.0090285 0.000141508 0)
(0.00828716 0.000134832 0)
(0.00754831 0.00012668 0)
(0.00682444 0.000117582 0)
(0.00612542 0.000107988 0)
(0.00545871 9.82715e-05 0)
(0.0048295 8.87302e-05 0)
(0.00424103 7.95964e-05 0)
(0.0036948 7.10455e-05 0)
(0.00319087 6.32055e-05 0)
(0.00272814 5.61634e-05 0)
(0.0023046 4.99665e-05 0)
(0.00191772 4.46162e-05 0)
(0.00156476 4.00538e-05 0)
(0.00124326 3.61372e-05 0)
(0.000951546 3.26102e-05 0)
(0.000689392 2.90675e-05 0)
(0.000458646 2.49217e-05 0)
(0.000263772 1.9393e-05 0)
(0.000111838 1.16241e-05 0)
(1.12619e-05 1.29204e-06 0)
(-3.03138e-05 -1.00636e-05 0)
(-1.67247e-05 -1.67952e-05 0)
(-6.35989e-07 -6.14877e-06 0)
(0.000100371 -0.000102319 0)
(0.000332281 -0.000209441 0)
(0.000675093 -0.000296897 0)
(0.00110159 -0.000357623 0)
(0.00158226 -0.000392246 0)
(0.00208902 -0.000403954 0)
(0.00259724 -0.000396779 0)
(0.00308661 -0.000374925 0)
(0.00354138 -0.000342445 0)
(0.00395028 -0.000303072 0)
(0.00430615 -0.000260098 0)
(0.0046054 -0.000216292 0)
(0.00484744 -0.000173855 0)
(0.00503403 -0.000134402 0)
(0.00516851 -9.89705e-05 0)
(0.00525522 -6.80554e-05 0)
(0.0052988 -4.16558e-05 0)
(0.00530371 -1.93497e-05 0)
(0.00527359 -3.75662e-07 0)
(0.00521099 1.62988e-05 0)
(0.00511706 3.19635e-05 0)
(0.00499127 4.79441e-05 0)
(0.0048314 6.55836e-05 0)
(0.00463357 8.61722e-05 0)
(0.00439228 0.000110884 0)
(0.00410063 0.000140736 0)
(0.00375052 0.000176568 0)
(0.00333288 0.000219048 0)
(0.00283789 0.000268685 0)
(0.0022552 0.000325863 0)
(0.00157411 0.000390852 0)
(0.000783765 0.000463872 0)
(-0.00012676 0.00054505 0)
(-0.00116823 0.000634452 0)
(-0.00235113 0.000732062 0)
(-0.00368542 0.00083775 0)
(-0.00518036 0.000951249 0)
(-0.00684417 0.00107212 0)
(-0.00868379 0.00119973 0)
(-0.0107045 0.0013332 0)
(-0.0129098 0.00147145 0)
(-0.0153007 0.00161313 0)
(-0.0178758 0.00175663 0)
(-0.0206308 0.00190014 0)
(-0.0235585 0.00204161 0)
(-0.0266482 0.00217879 0)
(-0.0298864 0.00230929 0)
(-0.0332557 0.0024306 0)
(-0.0367359 0.00254011 0)
(-0.0403035 0.00263523 0)
(-0.0439322 0.00271337 0)
(-0.0475928 0.00277201 0)
(-0.0512542 0.00280876 0)
(-0.0548831 0.0028214 0)
(-0.0584446 0.00280792 0)
(-0.0619029 0.00276653 0)
(-0.0652214 0.00269575 0)
(-0.0683632 0.00259436 0)
(-0.0712918 0.0024615 0)
(-0.073971 0.00229662 0)
(-0.076366 0.00209956 0)
(-0.0784432 0.00187056 0)
(-0.0801709 0.00161034 0)
(-0.0815196 0.00132008 0)
(-0.082463 0.00100109 0)
(-0.0829791 0.000654387 0)
(-0.0830501 0.000282541 0)
(-0.0826538 -0.000103428 0)
(-0.0817729 -0.000504676 0)
(-0.0804047 -0.00092195 0)
(-0.0785462 -0.00134784 0)
(-0.0762002 -0.00177636 0)
(-0.0733749 -0.00220145 0)
(-0.0700844 -0.00261659 0)
(-0.066349 -0.0030149 0)
(-0.0621956 -0.00338923 0)
(-0.0576574 -0.00373233 0)
(-0.0527743 -0.004037 0)
(-0.0475925 -0.00429632 0)
(-0.042164 -0.00450389 0)
(-0.0365464 -0.00465405 0)
(-0.0308018 -0.00474218 0)
(-0.0249961 -0.00476492 0)
(-0.0191978 -0.00472036 0)
(-0.0134768 -0.00460827 0)
(-0.00790169 -0.00443056 0)
(-0.00253674 -0.00419224 0)
(0.0025448 -0.00389592 0)
(0.00728414 -0.00354908 0)
(0.0116368 -0.00316123 0)
(0.0155537 -0.00274187 0)
(0.018999 -0.00230188 0)
(0.0219476 -0.0018521 0)
(0.0243852 -0.00140358 0)
(0.0263083 -0.000966818 0)
(0.0277247 -0.000551448 0)
(0.0286522 -0.000165866 0)
(0.0291179 0.000183006 0)
(0.029158 0.000490516 0)
(0.0288146 0.000753817 0)
(0.0281343 0.000971455 0)
(0.0271665 0.00114326 0)
(0.0259628 0.00127099 0)
(0.0245737 0.00135772 0)
(0.0230477 0.00140743 0)
(0.0214302 0.00142468 0)
(0.0197618 0.00141438 0)
(0.0180784 0.00138149 0)
(0.0164103 0.00133087 0)
(0.0147822 0.00126704 0)
(0.0132138 0.00119417 0)
(0.0117191 0.0011159 0)
(0.0103081 0.00103541 0)
(0.00898616 0.000955296 0)
(0.00775554 0.00087764 0)
(0.00661565 0.000803903 0)
(0.00556398 0.000734866 0)
(0.00459708 0.000670514 0)
(0.00371161 0.000609884 0)
(0.00290559 0.000550919 0)
(0.00217964 0.000490398 0)
(0.0015382 0.000424035 0)
(0.000990307 0.000347001 0)
(0.00054924 0.000255337 0)
(0.000230251 0.000149285 0)
(4.5105e-05 4.08659e-05 0)
(-9.38013e-06 -3.04205e-05 0)
(1.17787e-05 -8.30705e-05 0)
(0.000203575 -0.000332424 0)
(0.000572589 -0.000579518 0)
(0.00108572 -0.000780396 0)
(0.00170493 -0.000921705 0)
(0.00239218 -0.00100328 0)
(0.00311104 -0.00103076 0)
(0.00382883 -0.00101242 0)
(0.00451798 -0.000957499 0)
(0.00515662 -0.000875284 0)
(0.00572854 -0.000774553 0)
(0.00622288 -0.000663176 0)
(0.00663348 -0.000547867 0)
(0.00695814 -0.000434022 0)
(0.00719777 -0.000325653 0)
(0.00735549 -0.000225381 0)
(0.00743569 -0.000134499 0)
(0.00744319 -5.30719e-05 0)
(0.00738247 1.99238e-05 0)
(0.00725698 8.63681e-05 0)
(0.00706854 0.000148923 0)
(0.00681693 0.000210686 0)
(0.00649961 0.000275051 0)
(0.0061116 0.000345472 0)
(0.00564551 0.000425274 0)
(0.00509167 0.000517503 0)
(0.00443838 0.00062481 0)
(0.00367227 0.000749396 0)
(0.00277858 0.000892996 0)
(0.0017416 0.00105691 0)
(0.000544982 0.00124203 0)
(-0.000827867 0.00144893 0)
(-0.0023935 0.00167785 0)
(-0.0041681 0.00192875 0)
(-0.00616708 0.00220125 0)
(-0.00840471 0.00249462 0)
(-0.0108937 0.00280771 0)
(-0.0136449 0.00313886 0)
(-0.0166663 0.00348584 0)
(-0.0199633 0.00384583 0)
(-0.0235374 0.00421532 0)
(-0.0273864 0.00459017 0)
(-0.0315034 0.00496559 0)
(-0.035877 0.00533622 0)
(-0.0404908 0.00569619 0)
(-0.0453233 0.00603922 0)
(-0.0503481 0.00635876 0)
(-0.0555339 0.00664813 0)
(-0.0608452 0.00690068 0)
(-0.0662422 0.00710991 0)
(-0.0716819 0.00726966 0)
(-0.0771185 0.00737424 0)
(-0.0825041 0.00741854 0)
(-0.0877896 0.00739816 0)
(-0.0929252 0.00730944 0)
(-0.0978613 0.00714957 0)
(-0.102549 0.00691656 0)
(-0.106941 0.00660932 0)
(-0.110992 0.00622758 0)
(-0.114658 0.00577194 0)
(-0.1179 0.00524378 0)
(-0.12068 0.00464532 0)
(-0.122964 0.00397956 0)
(-0.124721 0.00325037 0)
(-0.125926 0.00246224 0)
(-0.126558 0.0016198 0)
(-0.126599 0.000728649 0)
(-0.126026 -0.000200269 0)
(-0.124837 -0.00115407 0)
(-0.123028 -0.00213305 0)
(-0.120598 -0.00312568 0)
(-0.117552 -0.00412221 0)
(-0.113901 -0.00511125 0)
(-0.109661 -0.00608046 0)
(-0.104856 -0.00701687 0)
(-0.0995143 -0.00790701 0)
(-0.0936704 -0.00873709 0)
(-0.0873658 -0.00949324 0)
(-0.080648 -0.0101618 0)
(-0.0735707 -0.0107296 0)
(-0.0661936 -0.0111845 0)
(-0.0585819 -0.0115156 0)
(-0.0508058 -0.011714 0)
(-0.0429397 -0.0117727 0)
(-0.0350611 -0.0116877 0)
(-0.0272498 -0.0114578 0)
(-0.0195858 -0.011085 0)
(-0.0121479 -0.0105756 0)
(-0.0050166 -0.009942 0)
(0.00173431 -0.00918885 0)
(0.00803972 -0.00833623 0)
(0.0138378 -0.00740224 0)
(0.0190761 -0.00640827 0)
(0.0237128 -0.00537576 0)
(0.027717 -0.00432766 0)
(0.0310699 -0.00328658 0)
(0.0337651 -0.00227436 0)
(0.0358087 -0.00131104 0)
(0.0372193 -0.000414234 0)
(0.0380276 0.00040174 0)
(0.0382736 0.00112436 0)
(0.0380049 0.00174856 0)
(0.0372771 0.00226942 0)
(0.0361517 0.00268644 0)
(0.0346923 0.00300274 0)
(0.0329631 0.0032243 0)
(0.0310268 0.00335927 0)
(0.028943 0.00341741 0)
(0.0267666 0.00340946 0)
(0.0245466 0.0033466 0)
(0.0223255 0.00323993 0)
(0.0201388 0.00310006 0)
(0.018015 0.00293679 0)
(0.0159757 0.00275891 0)
(0.0140364 0.00257398 0)
(0.0122071 0.00238818 0)
(0.010493 0.00220614 0)
(0.00889599 0.00203073 0)
(0.00741575 0.00186275 0)
(0.00605127 0.00170065 0)
(0.00480245 0.00154034 0)
(0.00367177 0.00137516 0)
(0.0026657 0.00119636 0)
(0.00179555 0.000994459 0)
(0.00107705 0.000762258 0)
(0.000528426 0.000500686 0)
(0.000167358 0.000230536 0)
(3.71879e-06 1.60208e-05 0)
(2.09817e-05 -0.000210056 0)
(0.000288191 -0.000670538 0)
(0.000770109 -0.00109125 0)
(0.00141782 -0.00142664 0)
(0.0021821 -0.00166111 0)
(0.00301804 -0.00179493 0)
(0.00388361 -0.0018368 0)
(0.00474113 -0.00179976 0)
(0.00555852 -0.0016988 0)
(0.00631 -0.00154929 0)
(0.00697604 -0.00136592 0)
(0.007543 -0.00116198 0)
(0.00800252 -0.000948895 0)
(0.00835063 -0.000735891 0)
(0.0085868 -0.000529856 0)
(0.0087129 -0.000335301 0)
(0.00873219 -0.000154443 0)
(0.00864829 1.26413e-05 0)
(0.00846427 0.000167786 0)
(0.0081818 0.000314425 0)
(0.00780056 0.000457243 0)
(0.00731766 0.000601819 0)
(0.00672733 0.000754239 0)
(0.00602082 0.000920705 0)
(0.00518644 0.00110719 0)
(0.00420976 0.00131917 0)
(0.00307397 0.00156137 0)
(0.00176033 0.0018377 0)
(0.000248669 0.00215113 0)
(-0.00148209 0.00250379 0)
(-0.00345336 0.00289697 0)
(-0.00568639 0.00333117 0)
(-0.00820165 0.00380616 0)
(-0.0110183 0.00432094 0)
(-0.0141535 0.00487372 0)
(-0.0176218 0.00546181 0)
(-0.0214346 0.0060815 0)
(-0.0255992 0.006728 0)
(-0.030118 0.00739532 0)
(-0.0349885 0.00807624 0)
(-0.0402018 0.00876233 0)
(-0.045743 0.00944405 0)
(-0.0515906 0.0101109 0)
(-0.0577161 0.0107514 0)
(-0.0640849 0.0113538 0)
(-0.0706561 0.0119061 0)
(-0.0773833 0.012396 0)
(-0.0842156 0.012812 0)
(-0.0910981 0.0131431 0)
(-0.0979735 0.0133794 0)
(-0.104783 0.0135122 0)
(-0.111466 0.0135341 0)
(-0.117965 0.0134394 0)
(-0.124222 0.013224 0)
(-0.130181 0.0128853 0)
(-0.135791 0.0124223 0)
(-0.141003 0.0118355 0)
(-0.145771 0.0111269 0)
(-0.150055 0.0102996 0)
(-0.153817 0.00935786 0)
(-0.157026 0.00830706 0)
(-0.159652 0.00715349 0)
(-0.161672 0.00590435 0)
(-0.163065 0.00456773 0)
(-0.163816 0.0031524 0)
(-0.163912 0.00166767 0)
(-0.163342 0.000124757 0)
(-0.162099 -0.0014603 0)
(-0.160184 -0.00308337 0)
(-0.157601 -0.00472742 0)
(-0.154356 -0.00637775 0)
(-0.150459 -0.00801937 0)
(-0.145924 -0.00963595 0)
(-0.14077 -0.0112101 0)
(-0.135022 -0.0127234 0)
(-0.128709 -0.0141567 0)
(-0.121865 -0.0154905 0)
(-0.114531 -0.0167048 0)
(-0.106752 -0.01778 0)
(-0.0985803 -0.0186971 0)
(-0.0900726 -0.0194382 0)
(-0.0812919 -0.0199872 0)
(-0.0723063 -0.0203304 0)
(-0.0631885 -0.020457 0)
(-0.0540153 -0.0203597 0)
(-0.0448664 -0.0200355 0)
(-0.0358238 -0.0194859 0)
(-0.0269698 -0.0187176 0)
(-0.0183873 -0.017743 0)
(-0.0101558 -0.0165763 0)
(-0.00234997 -0.0152395 0)
(0.00495862 -0.0137588 0)
(0.0117065 -0.0121634 0)
(0.0178397 -0.0104852 0)
(0.0233126 -0.00875894 0)
(0.0280912 -0.00701893 0)
(0.032153 -0.00529975 0)
(0.0354882 -0.00363408 0)
(0.0380995 -0.00205208 0)
(0.0400012 -0.000580396 0)
(0.0412232 0.00075799 0)
(0.0418037 0.0019442 0)
(0.0417882 0.00297016 0)
(0.0412349 0.0038292 0)
(0.0402074 0.00452034 0)
(0.0387734 0.00504806 0)
(0.0370024 0.0054214 0)
(0.0349641 0.005653 0)
(0.0327255 0.00575825 0)
(0.0303497 0.00575428 0)
(0.0278941 0.00565912 0)
(0.0254093 0.00549084 0)
(0.0229386 0.00526685 0)
(0.0205173 0.0050033 0)
(0.0181735 0.00471458 0)
(0.0159278 0.00441288 0)
(0.013795 0.00410776 0)
(0.0117845 0.00380569 0)
(0.00990234 0.00350955 0)
(0.00815242 0.00321818 0)
(0.00653854 0.00292609 0)
(0.0050662 0.0026236 0)
(0.00374426 0.00229767 0)
(0.00258605 0.00193411 0)
(0.00160951 0.00152183 0)
(0.000836879 0.00106037 0)
(0.000296541 0.000573358 0)
(1.74034e-05 0.000132497 0)
(2.69586e-05 -0.000375569 0)
(0.000350735 -0.00109306 0)
(0.000919218 -0.00171176 0)
(0.00166826 -0.0021929 0)
(0.00253751 -0.00252355 0)
(0.00347537 -0.00270693 0)
(0.0044352 -0.002756 0)
(0.0053757 -0.00268932 0)
(0.00626188 -0.00252813 0)
(0.00706545 -0.00229429 0)
(0.00776469 -0.00200877 0)
(0.00834406 -0.00169062 0)
(0.00879341 -0.00135621 0)
(0.00910705 -0.00101881 0)
(0.00928276 -0.000688264 0)
(0.00932061 -0.000370971 0)
(0.00922188 -6.99632e-05 0)
(0.00898797 0.000214881 0)
(0.00861938 0.000486498 0)
(0.00811484 0.000750237 0)
(0.0074706 0.00101331 0)
(0.0066799 0.00128425 0)
(0.00573267 0.00157233 0)
(0.00461541 0.00188694 0)
(0.00331138 0.00223711 0)
(0.00180092 0.00263098 0)
(6.19062e-05 0.00307556 0)
(-0.00192957 0.00357642 0)
(-0.00419855 0.00413763 0)
(-0.00677043 0.00476175 0)
(-0.00967018 0.00544986 0)
(-0.0129215 0.00620156 0)
(-0.0165461 0.00701503 0)
(-0.0205626 0.00788691 0)
(-0.0249858 0.00881229 0)
(-0.0298257 0.00978452 0)
(-0.0350864 0.0107951 0)
(-0.0407656 0.0118337 0)
(-0.0468537 0.0128878 0)
(-0.0533329 0.0139435 0)
(-0.0601774 0.0149848 0)
(-0.0673533 0.0159946 0)
(-0.0748185 0.0169547 0)
(-0.0825236 0.0178466 0)
(-0.0904131 0.0186519 0)
(-0.098426 0.0193525 0)
(-0.106498 0.0199319 0)
(-0.114561 0.020375 0)
(-0.122548 0.0206688 0)
(-0.130393 0.0208026 0)
(-0.138029 0.0207685 0)
(-0.145396 0.0205608 0)
(-0.152434 0.0201766 0)
(-0.15909 0.0196153 0)
(-0.165317 0.0188785 0)
(-0.171071 0.0179699 0)
(-0.176313 0.0168948 0)
(-0.181011 0.0156598 0)
(-0.185136 0.0142728 0)
(-0.188664 0.0127428 0)
(-0.191575 0.0110793 0)
(-0.193853 0.00929296 0)
(-0.195484 0.00739461 0)
(-0.196459 0.00539588 0)
(-0.19677 0.00330904 0)
(-0.196414 0.00114745 0)
(-0.195382 -0.00107442 0)
(-0.193677 -0.00334148 0)
(-0.191304 -0.00564213 0)
(-0.188265 -0.00795782 0)
(-0.184567 -0.0102708 0)
(-0.180219 -0.012562 0)
(-0.175235 -0.0148113 0)
(-0.16963 -0.0169971 0)
(-0.163424 -0.0190966 0)
(-0.156641 -0.021086 0)
(-0.14931 -0.0229407 0)
(-0.141465 -0.0246353 0)
(-0.133146 -0.0261447 0)
(-0.124396 -0.0274443 0)
(-0.115268 -0.0285103 0)
(-0.105818 -0.0293211 0)
(-0.0961081 -0.0298577 0)
(-0.0862072 -0.0301045 0)
(-0.0761882 -0.0300502 0)
(-0.0661286 -0.0296887 0)
(-0.0561092 -0.0290195 0)
(-0.0462129 -0.0280482 0)
(-0.0365237 -0.0267873 0)
(-0.0271247 -0.0252548 0)
(-0.0180962 -0.0234761 0)
(-0.00951537 -0.0214828 0)
(-0.00145348 -0.0193102 0)
(0.00602477 -0.0169994 0)
(0.0128634 -0.014594 0)
(0.0190162 -0.0121395 0)
(0.0244469 -0.00968221 0)
(0.0291312 -0.00726683 0)
(0.0330562 -0.00493637 0)
(0.0362211 -0.00272968 0)
(0.0386358 -0.000680177 0)
(0.0403271 0.00118042 0)
(0.0413308 0.00283083 0)
(0.0416886 0.00425863 0)
(0.0414556 0.00545564 0)
(0.0406941 0.00642101 0)
(0.0394714 0.00716092 0)
(0.037858 0.00768754 0)
(0.0359255 0.00801797 0)
(0.0337444 0.0081731 0)
(0.0313821 0.00817639 0)
(0.0289007 0.0080526 0)
(0.0263562 0.00782668 0)
(0.0237971 0.00752265 0)
(0.0212643 0.00716271 0)
(0.018791 0.00676633 0)
(0.0164028 0.00634945 0)
(0.0141194 0.00592365 0)
(0.0119551 0.00549536 0)
(0.00992116 0.00506518 0)
(0.00802703 0.00462747 0)
(0.00628275 0.00417053 0)
(0.00470072 0.00367772 0)
(0.00329733 0.00313015 0)
(0.00209399 0.00251161 0)
(0.00111897 0.00181656 0)
(0.000414059 0.00106319 0)
(2.92807e-05 0.0003147 0)
(3.07699e-05 -0.000568353 0)
(0.000394564 -0.00157749 0)
(0.00102525 -0.00241208 0)
(0.00184545 -0.00304467 0)
(0.00278453 -0.00346904 0)
(0.00378435 -0.00369403 0)
(0.00479398 -0.00373859 0)
(0.00576915 -0.00362779 0)
(0.00667274 -0.00338973 0)
(0.00747483 -0.00305309 0)
(0.00815235 -0.00264533 0)
(0.00868841 -0.00219131 0)
(0.00907147 -0.00171234 0)
(0.00929428 -0.00122557 0)
(0.00935277 -0.00074364 0)
(0.00924482 -0.00027456 0)
(0.00896914 0.000178132 0)
(0.00852409 0.000615141 0)
(0.00790667 0.00104096 0)
(0.00711159 0.00146328 0)
(0.00613064 0.00189231 0)
(0.00495212 0.00233997 0)
(0.0035607 0.00281906 0)
(0.00193738 0.00334248 0)
(5.98941e-05 0.00392239 0)
(-0.00209687 0.00456963 0)
(-0.00456007 0.00529321 0)
(-0.0073581 0.00609996 0)
(-0.0105196 0.00699434 0)
(-0.0140723 0.00797841 0)
(-0.0180423 0.0090518 0)
(-0.0224524 0.0102117 0)
(-0.0273213 0.0114527 0)
(-0.0326623 0.012767 0)
(-0.0384823 0.0141441 0)
(-0.0447802 0.0155707 0)
(-0.0515467 0.0170306 0)
(-0.0587627 0.018505 0)
(-0.0663998 0.0199727 0)
(-0.0744193 0.0214102 0)
(-0.0827735 0.0227927 0)
(-0.0914059 0.0240942 0)
(-0.100253 0.0252891 0)
(-0.109245 0.0263523 0)
(-0.118309 0.0272604 0)
(-0.12737 0.0279925 0)
(-0.136352 0.0285305 0)
(-0.145184 0.0288599 0)
(-0.153796 0.0289697 0)
(-0.162122 0.0288529 0)
(-0.170104 0.0285059 0)
(-0.17769 0.0279285 0)
(-0.184833 0.0271235 0)
(-0.191493 0.0260965 0)
(-0.197636 0.0248549 0)
(-0.203234 0.0234081 0)
(-0.208264 0.0217666 0)
(-0.212707 0.0199418 0)
(-0.216548 0.017946 0)
(-0.219774 0.0157917 0)
(-0.222378 0.013492 0)
(-0.224351 0.0110598 0)
(-0.225687 0.0085085 0)
(-0.226384 0.00585145 0)
(-0.226437 0.00310269 0)
(-0.225845 0.00027829 0)
(-0.224605 -0.00260381 0)
(-0.222715 -0.00553445 0)
(-0.220181 -0.00849404 0)
(-0.217001 -0.0114642 0)
(-0.21318 -0.0144249 0)
(-0.208721 -0.0173549 0)
(-0.203632 -0.0202311 0)
(-0.197922 -0.0230288 0)
(-0.191604 -0.0257215 0)
(-0.184694 -0.0282811 0)
(-0.177214 -0.0306784 0)
(-0.169188 -0.032883 0)
(-0.160649 -0.0348641 0)
(-0.151632 -0.0365909 0)
(-0.142182 -0.0380338 0)
(-0.132347 -0.0391648 0)
(-0.122185 -0.0399588 0)
(-0.111759 -0.0403944 0)
(-0.101138 -0.0404552 0)
(-0.0903976 -0.0401304 0)
(-0.0796166 -0.0394162 0)
(-0.0688789 -0.0383161 0)
(-0.0582702 -0.0368415 0)
(-0.0478768 -0.0350117 0)
(-0.0377842 -0.0328546 0)
(-0.0280751 -0.0304052 0)
(-0.0188279 -0.0277053 0)
(-0.010115 -0.0248029 0)
(-0.0020011 -0.0217495 0)
(0.00545705 -0.0186006 0)
(0.0122131 -0.0154124 0)
(0.0182312 -0.0122407 0)
(0.023486 -0.00914073 0)
(0.0279638 -0.00616294 0)
(0.0316615 -0.00335327 0)
(0.034588 -0.000750329 0)
(0.0367666 0.0016093 0)
(0.0382285 0.00370082 0)
(0.0390131 0.0055091 0)
(0.0391719 0.00702557 0)
(0.0387637 0.00825025 0)
(0.0378537 0.00919136 0)
(0.036511 0.00986433 0)
(0.0348067 0.0102906 0)
(0.0328119 0.0104964 0)
(0.0305956 0.010511 0)
(0.0282224 0.0103654 0)
(0.0257513 0.0100909 0)
(0.0232346 0.00971722 0)
(0.0207169 0.00927158 0)
(0.0182358 0.0087771 0)
(0.0158215 0.00825161 0)
(0.0134984 0.00770642 0)
(0.0112863 0.0071453 0)
(0.00920189 0.00656384 0)
(0.00726141 0.00594952 0)
(0.00548226 0.00528286 0)
(0.00388542 0.00454025 0)
(0.0024974 0.00369879 0)
(0.00135403 0.00274402 0)
(0.000511122 0.00168138 0)
(3.86147e-05 0.000553758 0)
(3.32904e-05 -0.000779661 0)
(0.000424079 -0.00210464 0)
(0.00109599 -0.00316663 0)
(0.00196061 -0.00395159 0)
(0.00293821 -0.00446282 0)
(0.00396451 -0.0047173 0)
(0.00498449 -0.00474174 0)
(0.00595131 -0.00456892 0)
(0.0068262 -0.00423453 0)
(0.00757815 -0.00377446 0)
(0.00818322 -0.00322276 0)
(0.00862363 -0.00261002 0)
(0.0088867 -0.00196226 0)
(0.00896371 -0.0013002 0)
(0.00884864 -0.000638851 0)
(0.00853684 1.26608e-05 0)
(0.0080239 0.000650801 0)
(0.00730447 0.00127742 0)
(0.0063712 0.0018991 0)
(0.00521392 0.00252641 0)
(0.00381898 0.00317301 0)
(0.00216897 0.00385453 0)
(0.000242581 0.00458756 0)
(-0.00198505 0.00538846 0)
(-0.00454181 0.00627237 0)
(-0.00745782 0.00725234 0)
(-0.0107643 0.00833865 0)
(-0.0144926 0.00953833 0)
(-0.0186726 0.0108549 0)
(-0.0233313 0.0122882 0)
(-0.0284919 0.0138344 0)
(-0.0341718 0.0154859 0)
(-0.0403811 0.0172311 0)
(-0.0471218 0.0190548 0)
(-0.0543861 0.0209377 0)
(-0.0621555 0.0228569 0)
(-0.0704002 0.0247857 0)
(-0.0790791 0.0266946 0)
(-0.0881404 0.0285516 0)
(-0.0975219 0.0303233 0)
(-0.107153 0.0319759 0)
(-0.116958 0.0334764 0)
(-0.126855 0.0347938 0)
(-0.136763 0.0359002 0)
(-0.1466 0.0367716 0)
(-0.156287 0.0373885 0)
(-0.165752 0.0377366 0)
(-0.174929 0.0378065 0)
(-0.183756 0.0375934 0)
(-0.192184 0.0370974 0)
(-0.200167 0.0363223 0)
(-0.20767 0.035275 0)
(-0.214663 0.0339655 0)
(-0.221122 0.0324054 0)
(-0.227029 0.030608 0)
(-0.232371 0.0285874 0)
(-0.237137 0.0263582 0)
(-0.241319 0.0239352 0)
(-0.244913 0.0213332 0)
(-0.247913 0.0185668 0)
(-0.250318 0.0156504 0)
(-0.252123 0.012598 0)
(-0.253327 0.00942356 0)
(-0.253928 0.00614107 0)
(-0.253921 0.00276508 0)
(-0.2533 -0.000688408 0)
(-0.252069 -0.00420323 0)
(-0.250222 -0.00776716 0)
(-0.247757 -0.0113606 0)
(-0.244669 -0.0149645 0)
(-0.240957 -0.0185578 0)
(-0.23662 -0.0221175 0)
(-0.231657 -0.0256186 0)
(-0.226071 -0.0290338 0)
(-0.219867 -0.0323332 0)
(-0.213053 -0.0354851 0)
(-0.205641 -0.0384556 0)
(-0.197648 -0.0412093 0)
(-0.189095 -0.0437095 0)
(-0.180011 -0.0459194 0)
(-0.170431 -0.0478025 0)
(-0.160396 -0.0493238 0)
(-0.149957 -0.050451 0)
(-0.13917 -0.0511557 0)
(-0.1281 -0.051415 0)
(-0.116821 -0.051212 0)
(-0.10541 -0.0505381 0)
(-0.0939508 -0.0493929 0)
(-0.082533 -0.0477856 0)
(-0.0712465 -0.0457351 0)
(-0.0601827 -0.0432704 0)
(-0.0494313 -0.0404295 0)
(-0.0390784 -0.0372594 0)
(-0.0292051 -0.033814 0)
(-0.0198852 -0.0301532 0)
(-0.011184 -0.0263413 0)
(-0.00315683 -0.022444 0)
(0.00415005 -0.0185282 0)
(0.010702 -0.0146589 0)
(0.0164763 -0.010898 0)
(0.0214594 -0.00730298 0)
(0.0256494 -0.00392422 0)
(0.0290548 -0.000805341 0)
(0.0316966 0.00201555 0)
(0.033604 0.00451206 0)
(0.0348145 0.00666783 0)
(0.0353763 0.00847496 0)
(0.0353451 0.00993513 0)
(0.0347831 0.0110591 0)
(0.033757 0.0118659 0)
(0.0323362 0.0123811 0)
(0.0305912 0.012636 0)
(0.0285905 0.0126653 0)
(0.0263997 0.0125053 0)
(0.0240794 0.0121925 0)
(0.0216839 0.0117612 0)
(0.0192609 0.0112415 0)
(0.0168513 0.0106582 0)
(0.0144893 0.0100283 0)
(0.0122041 0.00935975 0)
(0.0100209 0.00865068 0)
(0.00796312 0.00788881 0)
(0.00605469 0.00705253 0)
(0.00432259 0.00611342 0)
(0.00279979 0.00504061 0)
(0.00153044 0.00380753 0)
(0.000583393 0.00240148 0)
(4.52759e-05 0.000837383 0)
(3.51031e-05 -0.00100315 0)
(0.000442939 -0.00265894 0)
(0.00113839 -0.00395323 0)
(0.00202377 -0.00488637 0)
(0.00301148 -0.0054733 0)
(0.00403166 -0.00574119 0)
(0.00502564 -0.00572625 0)
(0.0059443 -0.00547023 0)
(0.00674763 -0.00501716 0)
(0.0074039 -0.00441055 0)
(0.00788865 -0.0036911 0)
(0.00818345 -0.00289496 0)
(0.00827466 -0.00205249 0)
(0.00815204 -0.00118746 0)
(0.00780745 -0.000316615 0)
(0.00723337 0.000550317 0)
(0.00642174 0.00141064 0)
(0.00536286 0.00226801 0)
(0.0040443 0.00313174 0)
(0.00245024 0.00401578 0)
(0.000560957 0.00493766 0)
(-0.00164726 0.00591693 0)
(-0.00420188 0.00697386 0)
(-0.00713353 0.00812796 0)
(-0.0104751 0.00939663 0)
(-0.0142603 0.0107941 0)
(-0.0185227 0.0123305 0)
(-0.0232935 0.0140113 0)
(-0.0286004 0.0158369 0)
(-0.0344655 0.0178024 0)
(-0.0409036 0.0198976 0)
(-0.0479207 0.0221069 0)
(-0.0555123 0.0244094 0)
(-0.0636622 0.026779 0)
(-0.0723417 0.0291847 0)
(-0.0815092 0.0315914 0)
(-0.0911105 0.0339602 0)
(-0.10108 0.03625 0)
(-0.111342 0.0384185 0)
(-0.121814 0.0404242 0)
(-0.132409 0.0422275 0)
(-0.143038 0.0437923 0)
(-0.153613 0.0450875 0)
(-0.16405 0.0460877 0)
(-0.174272 0.0467736 0)
(-0.184211 0.0471325 0)
(-0.193804 0.047158 0)
(-0.203001 0.0468491 0)
(-0.211759 0.04621 0)
(-0.220044 0.0452491 0)
(-0.227831 0.043978 0)
(-0.235098 0.0424106 0)
(-0.241834 0.0405628 0)
(-0.248026 0.0384513 0)
(-0.253671 0.0360931 0)
(-0.258763 0.0335055 0)
(-0.263301 0.0307051 0)
(-0.267283 0.0277082 0)
(-0.27071 0.0245305 0)
(-0.273581 0.0211869 0)
(-0.275895 0.0176918 0)
(-0.277651 0.0140589 0)
(-0.278846 0.0103017 0)
(-0.279478 0.00643399 0)
(-0.279542 0.00246985 0)
(-0.279032 -0.00157652 0)
(-0.277946 -0.00569255 0)
(-0.276278 -0.00986016 0)
(-0.274021 -0.0140623 0)
(-0.271166 -0.0182797 0)
(-0.267708 -0.0224909 0)
(-0.263639 -0.0266721 0)
(-0.258954 -0.0307967 0)
(-0.253647 -0.0348355 0)
(-0.247716 -0.038756 0)
(-0.24116 -0.0425231 0)
(-0.233982 -0.046099 0)
(-0.226189 -0.0494431 0)
(-0.217793 -0.0525133 0)
(-0.208811 -0.0552663 0)
(-0.199269 -0.0576583 0)
(-0.189199 -0.0596466 0)
(-0.178641 -0.0611909 0)
(-0.167644 -0.0622544 0)
(-0.156268 -0.0628059 0)
(-0.14458 -0.0628208 0)
(-0.132656 -0.0622834 0)
(-0.120581 -0.0611876 0)
(-0.108445 -0.0595385 0)
(-0.0963435 -0.0573526 0)
(-0.0843747 -0.0546585 0)
(-0.072637 -0.0514962 0)
(-0.0612269 -0.0479166 0)
(-0.0502363 -0.0439798 0)
(-0.0397501 -0.0397536 0)
(-0.0298447 -0.035311 0)
(-0.0205861 -0.0307285 0)
(-0.0120296 -0.0260837 0)
(-0.0042184 -0.0214517 0)
(0.00281585 -0.016906 0)
(0.00905251 -0.0125146 0)
(0.0144822 -0.00833877 0)
(0.0191054 -0.00443251 0)
(0.0229326 -0.000841295 0)
(0.0259849 0.002397 0)
(0.0282912 0.00525614 0)
(0.0298885 0.00772032 0)
(0.0308228 0.00978357 0)
(0.0311475 0.0114502 0)
(0.0309221 0.0127342 0)
(0.0302109 0.0136582 0)
(0.0290813 0.0142524 0)
(0.0276019 0.0145525 0)
(0.0258406 0.0145977 0)
(0.0238626 0.014429 0)
(0.0217288 0.0140864 0)
(0.019495 0.0136065 0)
(0.0172108 0.0130204 0)
(0.01492 0.0123511 0)
(0.0126606 0.0116115 0)
(0.0104668 0.0108029 0)
(0.00836988 0.00991403 0)
(0.00640124 0.00892184 0)
(0.004595 0.00779306 0)
(0.00299137 0.00648798 0)
(0.0016428 0.00496596 0)
(0.000629078 0.00319295 0)
(4.92776e-05 0.00115181 0)
(3.65482e-05 -0.0012342 0)
(0.000453604 -0.00322768 0)
(0.00115731 -0.00475252 0)
(0.002042 -0.00582426 0)
(0.0030133 -0.00647113 0)
(0.00399652 -0.00673235 0)
(0.00492984 -0.0066552 0)
(0.00576236 -0.00629157 0)
(0.00645317 -0.00569462 0)
(0.00697016 -0.0049158 0)
(0.00728855 -0.00400248 0)
(0.00738945 -0.00299607 0)
(0.00725824 -0.00193079 0)
(0.00688305 -0.000832798 0)
(0.00625325 0.000280145 0)
(0.00535811 0.00139866 0)
(0.00418549 0.0025216 0)
(0.00272065 0.00365518 0)
(0.000945452 0.00481211 0)
(-0.00116208 0.00601027 0)
(-0.00362811 0.00727118 0)
(-0.00648271 0.00861826 0)
(-0.00975914 0.010075 0)
(-0.0134929 0.0116632 0)
(-0.0177201 0.0134012 0)
(-0.022476 0.0153025 0)
(-0.0277929 0.017375 0)
(-0.0336983 0.0196199 0)
(-0.0402127 0.0220315 0)
(-0.0473473 0.0245966 0)
(-0.0551029 0.0272954 0)
(-0.0634675 0.0301007 0)
(-0.0724157 0.0329788 0)
(-0.0819077 0.03589 0)
(-0.0918896 0.0387898 0)
(-0.102294 0.0416295 0)
(-0.113043 0.0443587 0)
(-0.124048 0.0469265 0)
(-0.135217 0.049284 0)
(-0.146454 0.0513859 0)
(-0.157665 0.0531923 0)
(-0.168761 0.0546703 0)
(-0.179658 0.0557944 0)
(-0.190283 0.0565469 0)
(-0.200572 0.0569181 0)
(-0.210473 0.0569052 0)
(-0.219944 0.0565117 0)
(-0.22895 0.0557464 0)
(-0.237468 0.0546222 0)
(-0.24548 0.0531549 0)
(-0.252975 0.0513627 0)
(-0.259947 0.0492646 0)
(-0.266391 0.0468803 0)
(-0.272308 0.0442294 0)
(-0.277698 0.0413311 0)
(-0.282564 0.0382036 0)
(-0.286908 0.0348643 0)
(-0.290732 0.0313296 0)
(-0.294037 0.0276147 0)
(-0.296826 0.023734 0)
(-0.299099 0.0197011 0)
(-0.300855 0.0155288 0)
(-0.302092 0.0112297 0)
(-0.302807 0.00681628 0)
(-0.302996 0.00230161 0)
(-0.302653 -0.00230123 0)
(-0.301773 -0.0069798 0)
(-0.30035 -0.0117179 0)
(-0.298373 -0.0164991 0)
(-0.295832 -0.0213043 0)
(-0.292718 -0.0261125 0)
(-0.289018 -0.0308997 0)
(-0.284721 -0.0356387 0)
(-0.279817 -0.0402992 0)
(-0.274293 -0.0448471 0)
(-0.268142 -0.0492448 0)
(-0.261356 -0.0534511 0)
(-0.253931 -0.0574213 0)
(-0.245868 -0.0611081 0)
(-0.237173 -0.0644619 0)
(-0.227858 -0.0674316 0)
(-0.217942 -0.0699665 0)
(-0.207453 -0.0720171 0)
(-0.19643 -0.0735371 0)
(-0.184922 -0.0744851 0)
(-0.172989 -0.0748269 0)
(-0.160701 -0.0745371 0)
(-0.14814 -0.0736013 0)
(-0.135397 -0.0720174 0)
(-0.122572 -0.0697971 0)
(-0.10977 -0.066966 0)
(-0.097099 -0.0635643 0)
(-0.0846684 -0.0596452 0)
(-0.0725842 -0.0552744 0)
(-0.0609465 -0.0505273 0)
(-0.0498465 -0.0454869 0)
(-0.0393648 -0.0402406 0)
(-0.0295692 -0.0348779 0)
(-0.0205141 -0.0294868 0)
(-0.0122401 -0.0241524 0)
(-0.00477513 -0.018954 0)
(0.00186542 -0.0139639 0)
(0.00767701 -0.00924636 0)