/*--------------------------------*- C++ -*----------------------------------*\
| =========                 |                                                 |
| \\      /  F ield         | OpenFOAM: The Open Source CFD Toolbox           |
|  \\    /   O peration     | Version:  2406                                  |
|   \\  /    A nd           | Website:  www.openfoam.com                      |
|    \\/     M anipulation  |                                                 |
\*---------------------------------------------------------------------------*/
FoamFile
{
    version     2.0;
    format      ascii;
    arch        "LSB;label=32;scalar=64";
    class       surfaceScalarField;
    location    "49.35";
    object      phi_0;
}
// * * * * * * * * * * * * * * * * * * * * * * * * * * * * * * * * * * * * * //

dimensions      [0 3 -1 0 0 0 0];

oriented        oriented;

internalField   nonuniform List<scalar> 
28560
(
-4.93325e-09
4.92145e-09
4.67616e-08
-5.16949e-08
1.72641e-07
-1.25879e-07
3.60676e-07
-1.88035e-07
5.92477e-07
-2.31801e-07
8.48322e-07
-2.55845e-07
1.10981e-06
-2.61487e-07
1.36126e-06
-2.51454e-07
1.59057e-06
-2.29306e-07
1.78954e-06
-1.98966e-07
1.95388e-06
-1.64341e-07
2.08286e-06
-1.2898e-07
2.17867e-06
-9.58108e-08
2.24564e-06
-6.69704e-08
2.28937e-06
-4.37308e-08
2.3159e-06
-2.65323e-08
2.33102e-06
-1.51207e-08
2.33928e-06
-8.25647e-09
2.34395e-06
-4.67001e-09
2.34665e-06
-2.70474e-09
2.34697e-06
-3.1651e-10
2.34358e-06
3.39271e-09
2.33321e-06
1.03705e-08
2.31165e-06
2.15544e-08
2.27406e-06
3.7587e-08
2.21524e-06
5.88224e-08
2.12984e-06
8.5401e-08
2.01249e-06
1.17355e-07
1.85779e-06
1.54696e-07
1.66032e-06
1.97471e-07
1.41455e-06
2.45774e-07
1.11482e-06
2.99728e-07
7.55378e-07
3.59439e-07
3.30433e-07
4.24945e-07
-1.65734e-07
4.96167e-07
-7.38604e-07
5.7287e-07
-1.39324e-06
6.54635e-07
-2.13408e-06
7.40839e-07
-2.96473e-06
8.30647e-07
-3.88773e-06
9.23005e-07
-4.90438e-06
1.01665e-06
-6.01447e-06
1.1101e-06
-7.21618e-06
1.20171e-06
-8.50585e-06
1.28967e-06
-9.8779e-06
1.37205e-06
-1.13247e-05
1.44684e-06
-1.28367e-05
1.51199e-06
-1.44022e-05
1.56546e-06
-1.60075e-05
1.60528e-06
-1.7637e-05
1.62954e-06
-1.92735e-05
1.6365e-06
-2.08981e-05
1.62458e-06
-2.24905e-05
1.59241e-06
-2.40293e-05
1.53884e-06
-2.54923e-05
1.46298e-06
-2.68566e-05
1.36424e-06
-2.80989e-05
1.24231e-06
-2.91961e-05
1.09725e-06
-3.01256e-05
9.29502e-07
-3.08655e-05
7.39895e-07
-3.1396e-05
5.30517e-07
-3.16979e-05
3.01815e-07
-3.17492e-05
5.13215e-08
-3.1541e-05
-2.08173e-07
-3.10616e-05
-4.79381e-07
-3.03031e-05
-7.58528e-07
-2.92623e-05
-1.0408e-06
-2.7941e-05
-1.32134e-06
-2.63461e-05
-1.5949e-06
-2.44902e-05
-1.8559e-06
-2.23916e-05
-2.09853e-06
-2.00747e-05
-2.31692e-06
-1.75694e-05
-2.50533e-06
-1.4911e-05
-2.65838e-06
-1.21398e-05
-2.77127e-06
-9.29966e-06
-2.84009e-06
-6.4377e-06
-2.86196e-06
-3.60235e-06
-2.83535e-06
-8.42203e-07
-2.76015e-06
1.79564e-06
-2.63785e-06
4.26714e-06
-2.4715e-06
6.53284e-06
-2.2657e-06
8.55924e-06
-2.0264e-06
1.03199e-05
-1.7607e-06
1.17965e-05
-1.47651e-06
1.29787e-05
-1.18219e-06
1.38648e-05
-8.86177e-07
1.44614e-05
-5.96596e-07
1.47824e-05
-3.20926e-07
1.48499e-05
-6.75117e-08
1.46841e-05
1.65725e-07
1.4317e-05
3.67138e-07
1.37815e-05
5.35463e-07
1.31097e-05
6.71872e-07
1.23332e-05
7.76487e-07
1.14828e-05
8.50398e-07
1.05868e-05
8.95956e-07
9.67061e-06
9.16213e-07
8.75593e-06
9.1468e-07
7.86085e-06
8.95081e-07
6.99971e-06
8.61144e-07
6.18327e-06
8.16437e-07
5.41903e-06
7.64241e-07
4.71156e-06
7.07466e-07
4.06295e-06
6.48614e-07
3.47318e-06
5.89764e-07
2.94059e-06
5.32591e-07
2.46221e-06
4.78379e-07
2.03418e-06
4.28032e-07
1.65213e-06
3.82056e-07
1.31163e-06
3.40498e-07
1.00877e-06
3.02863e-07
7.40754e-07
2.68011e-07
5.06671e-07
2.34083e-07
3.08131e-07
1.9854e-07
1.49634e-07
1.58498e-07
3.80289e-08
1.11605e-07
-1.99456e-08
5.79745e-08
-2.44292e-08
4.48353e-09
-2.44292e-08
4.89047e-08
-4.39833e-08
2.43137e-07
-2.45927e-07
5.93861e-07
-4.76604e-07
1.07624e-06
-6.70412e-07
1.65237e-06
-8.07933e-07
2.28027e-06
-8.83743e-07
2.91938e-06
-9.00599e-07
3.53417e-06
-8.66241e-07
4.0963e-06
-7.9144e-07
4.58577e-06
-6.88437e-07
4.99106e-06
-5.69633e-07
5.30854e-06
-4.46454e-07
5.54119e-06
-3.2846e-07
5.69697e-06
-2.2275e-07
5.7869e-06
-1.33667e-07
5.82316e-06
-6.27861e-08
5.81728e-06
-9.24294e-09
5.77871e-06
3.03149e-08
5.71365e-06
6.03879e-08
5.62435e-06
8.65963e-08
5.5092e-06
1.14836e-07
5.36206e-06
1.50527e-07
5.17397e-06
1.98462e-07
4.93325e-06
2.6227e-07
4.62645e-06
3.44391e-07
4.23903e-06
4.46243e-07
3.75595e-06
5.68479e-07
3.16201e-06
7.113e-07
2.44199e-06
8.7471e-07
1.58079e-06
1.05867e-06
5.6343e-07
1.26314e-06
-6.24806e-07
1.48796e-06
-1.99814e-06
1.73278e-06
-3.56999e-06
1.99679e-06
-5.35246e-06
2.27864e-06
-7.35592e-06
2.57633e-06
-9.58834e-06
2.88706e-06
-1.20548e-05
3.20728e-06
-1.47568e-05
3.53266e-06
-1.76919e-05
3.85811e-06
-2.08532e-05
4.17791e-06
-2.42289e-05
4.48579e-06
-2.78022e-05
4.77506e-06
-3.15514e-05
5.03881e-06
-3.54494e-05
5.27006e-06
-3.94645e-05
5.46201e-06
-4.35607e-05
5.60816e-06
-4.76978e-05
5.70252e-06
-5.18322e-05
5.73975e-06
-5.5918e-05
5.71533e-06
-5.99071e-05
5.62556e-06
-6.37502e-05
5.46772e-06
-6.73978e-05
5.24003e-06
-7.08007e-05
4.9417e-06
-7.39106e-05
4.57292e-06
-7.66812e-05
4.13481e-06
-7.90683e-05
3.62945e-06
-8.10309e-05
3.05983e-06
-8.25314e-05
2.42993e-06
-8.35362e-05
1.7447e-06
-8.40155e-05
1.00989e-06
-8.39476e-05
2.33916e-07
-8.33146e-05
-5.81752e-07
-8.21003e-05
-1.42244e-06
-8.0301e-05
-2.2787e-06
-7.79184e-05
-3.14111e-06
-7.49613e-05
-3.99786e-06
-7.14465e-05
-4.8362e-06
-6.73987e-05
-5.64266e-06
-6.28513e-05
-6.40327e-06
-5.78462e-05
-7.1037e-06
-5.24334e-05
-7.72966e-06
-4.66714e-05
-8.2673e-06
-4.06262e-05
-8.70364e-06
-3.43703e-05
-9.0271e-06
-2.79824e-05
-9.22802e-06
-2.15452e-05
-9.29915e-06
-1.51444e-05
-9.23615e-06
-8.86658e-06
-9.03799e-06
-2.7972e-06
-8.70723e-06
2.98148e-06
-8.25018e-06
8.39261e-06
-7.67683e-06
1.33669e-05
-7.00071e-06
1.78447e-05
-6.23848e-06
2.17775e-05
-5.40934e-06
2.51297e-05
-4.53438e-06
2.78792e-05
-3.63571e-06
3.00183e-05
-2.73563e-06
3.15532e-05
-1.85587e-06
3.2502e-05
-1.01634e-06
3.29004e-05
-2.32601e-07
3.27918e-05
4.7569e-07
3.22274e-05
1.09993e-06
3.12664e-05
1.63282e-06
2.99729e-05
2.06995e-06
2.84124e-05
2.41092e-06
2.66497e-05
2.65871e-06
2.47466e-05
2.81924e-06
2.27606e-05
2.9007e-06
2.07428e-05
2.91294e-06
1.87371e-05
2.86678e-06
1.67802e-05
2.77337e-06
1.49008e-05
2.64367e-06
1.31203e-05
2.48796e-06
1.14533e-05
2.31557e-06
9.90843e-06
2.13466e-06
8.48893e-06
1.9521e-06
7.19387e-06
1.77344e-06
6.01905e-06
1.60285e-06
4.95811e-06
1.443e-06
4.00368e-06
1.29492e-06
3.14883e-06
1.15771e-06
2.38849e-06
1.02835e-06
1.721e-06
9.01578e-07
1.14934e-06
7.70199e-07
6.81573e-07
6.26261e-07
3.29558e-07
4.6362e-07
1.0442e-07
2.83112e-07
7.57474e-09
1.01329e-07
-1.68545e-08
1.18086e-07
-1.62069e-07
4.61689e-07
-5.8953e-07
1.00975e-06
-1.02467e-06
1.72469e-06
-1.38535e-06
2.55661e-06
-1.63986e-06
3.45081e-06
-1.77794e-06
4.35395e-06
-1.80374e-06
5.21866e-06
-1.73094e-06
6.00649e-06
-1.57928e-06
6.68961e-06
-1.37156e-06
7.25107e-06
-1.13109e-06
7.68412e-06
-8.79508e-07
7.99071e-06
-6.35048e-07
8.1793e-06
-4.11344e-07
8.26245e-06
-2.16816e-07
8.25421e-06
-5.45475e-08
8.16777e-06
7.72053e-08
8.01351e-06
1.84573e-07
7.79724e-06
2.7665e-07
7.51941e-06
3.64428e-07
7.17476e-06
4.59486e-07
6.75249e-06
5.72795e-07
6.23719e-06
7.13765e-07
5.60977e-06
8.89693e-07
4.84857e-06
1.10559e-06
3.9304e-06
1.36442e-06
2.83134e-06
1.66754e-06
1.52737e-06
2.01527e-06
-5.24386e-09
2.40732e-06
-1.78959e-06
2.84302e-06
-3.84777e-06
3.32131e-06
-6.2004e-06
3.8406e-06
-8.86604e-06
4.39842e-06
-1.18604e-05
4.99115e-06
-1.51955e-05
5.61375e-06
-1.88788e-05
6.25959e-06
-2.29121e-05
6.92037e-06
-2.7291e-05
7.58619e-06
-3.2004e-05
8.24565e-06
-3.7032e-05
8.88616e-06
-4.23483e-05
9.49418e-06
-4.79182e-05
1.00556e-05
-5.36995e-05
1.05564e-05
-5.96433e-05
1.09827e-05
-6.56947e-05
1.13214e-05
-7.17937e-05
1.1561e-05
-7.78768e-05
1.16912e-05
-8.38779e-05
1.17037e-05
-8.97303e-05
1.15921e-05
-9.53673e-05
1.13523e-05
-0.000100724
1.0982e-05
-0.000105737
1.0481e-05
-0.000110348
9.85107e-06
-0.000114502
9.09545e-06
-0.000118148
8.21899e-06
-0.000121241
7.22787e-06
-0.000123741
6.12947e-06
-0.000125613
4.93227e-06
-0.000126829
3.64576e-06
-0.000127365
2.28053e-06
-0.000127203
8.47895e-07
-0.00012633
-6.38989e-07
-0.000124744
-2.16766e-06
-0.000122443
-3.72339e-06
-0.000119433
-5.28891e-06
-0.000115727
-6.84736e-06
-0.000111344
-8.38048e-06
-0.000106312
-9.86869e-06
-0.000100663
-1.12913e-05
-9.44393e-05
-1.2627e-05
-8.76891e-05
-1.38539e-05
-8.04686e-05
-1.49502e-05
-7.28414e-05
-1.58944e-05
-6.48784e-05
-1.66666e-05
-5.66571e-05
-1.72485e-05
-4.82608e-05
-1.76243e-05
-3.97779e-05
-1.77821e-05
-3.13003e-05
-1.77137e-05
-2.29225e-05
-1.74159e-05
-1.47389e-05
-1.68908e-05
-6.84287e-06
-1.61462e-05
6.75718e-07
-1.51954e-05
7.73253e-06
-1.40575e-05
1.42507e-05
-1.27567e-05
2.01629e-05
-1.13215e-05
2.54129e-05
-9.78433e-06
2.99571e-05
-8.1799e-06
3.37659e-05
-6.54443e-06
3.68242e-05
-4.9142e-06
3.91321e-05
-3.32421e-06
4.07069e-05
-1.8074e-06
4.15778e-05
-3.95283e-07
4.17874e-05
8.90388e-07
4.13918e-05
2.02844e-06
4.04571e-05
3.00463e-06
3.90567e-05
3.81131e-06
3.72687e-05
4.44669e-06
3.51731e-05
4.9148e-06
3.2849e-05
5.22486e-06
3.03715e-05
5.39039e-06
2.78101e-05
5.42823e-06
2.52261e-05
5.35731e-06
2.26722e-05
5.19758e-06
2.01913e-05
4.96892e-06
1.78166e-05
4.6903e-06
1.55721e-05
4.37909e-06
1.34736e-05
4.05058e-06
1.15294e-05
3.71765e-06
9.74183e-06
3.39044e-06
8.10876e-06
3.07607e-06
6.62541e-06
2.77827e-06
5.28618e-06
2.49695e-06
4.08673e-06
2.2278e-06
3.02593e-06
1.96238e-06
2.10741e-06
1.68872e-06
1.34011e-06
1.39356e-06
7.37095e-07
1.06664e-06
3.11661e-07
7.08546e-07
7.02162e-08
3.42774e-07
5.33618e-08
1.7587e-07
-3.37939e-07
6.47411e-07
-1.06107e-06
1.36162e-06
-1.73888e-06
2.26285e-06
-2.28658e-06
3.28877e-06
-2.66577e-06
4.37462e-06
-2.86379e-06
5.45838e-06
-2.88751e-06
6.48526e-06
-2.75781e-06
7.41069e-06
-2.50471e-06
8.20207e-06
-2.16294e-06
8.83903e-06
-1.76805e-06
9.31255e-06
-1.35302e-06
9.62313e-06
-9.4563e-07
9.77841e-06
-5.66626e-07
9.79031e-06
-2.28714e-07
9.67213e-06
6.3625e-08
9.43575e-06
3.13592e-07
9.08937e-06
5.30952e-07
8.63567e-06
7.30347e-07
8.07077e-06
9.29331e-07
7.38391e-06
1.14634e-06
6.55792e-06
1.39879e-06
5.5701e-06
1.70158e-06
4.39359e-06
2.0662e-06
2.99869e-06
2.50049e-06
1.35419e-06
3.00892e-06
-5.71574e-07
3.5933e-06
-2.80979e-06
4.25348e-06
-5.39041e-06
4.98795e-06
-8.34145e-06
5.79405e-06
-1.16881e-05
6.66792e-06
-1.54516e-05
7.60413e-06
-1.96485e-05
8.59529e-06
-2.42889e-05
9.63159e-06
-2.93757e-05
1.07005e-05
-3.4903e-05
1.17869e-05
-4.08555e-05
1.28729e-05
-4.72076e-05
1.39383e-05
-5.39233e-05
1.49614e-05
-6.09563e-05
1.59191e-05
-6.82506e-05
1.67885e-05
-7.57419e-05
1.75469e-05
-8.33587e-05
1.81732e-05
-9.10246e-05
1.86486e-05
-9.866e-05
1.89568e-05
-0.000106184
1.90853e-05
-0.000113518
1.90247e-05
-0.000120584
1.87694e-05
-0.000127309
1.83174e-05
-0.000133626
1.76696e-05
-0.000139474
1.68301e-05
-0.000144798
1.58051e-05
-0.00014955
1.46031e-05
-0.000153689
1.3234e-05
-0.000157179
1.1709e-05
-0.000159991
1.00403e-05
-0.000162103
8.24097e-06
-0.000163495
6.32458e-06
-0.000164155
4.30543e-06
-0.000164073
2.1983e-06
-0.000163244
1.96662e-08
-0.000161667
-2.21583e-06
-0.000159346
-4.48877e-06
-0.000156289
-6.78116e-06
-0.000152505
-9.07268e-06
-0.000148011
-1.13415e-05
-0.000142827
-1.35646e-05
-0.000136978
-1.5717e-05
-0.000130497
-1.77727e-05
-0.00012342
-1.97041e-05
-0.000115791
-2.1483e-05
-0.00010766
-2.30807e-05
-9.90857e-05
-2.44689e-05
-9.01319e-05
-2.56205e-05
-8.08701e-05
-2.65102e-05
-7.13786e-05
-2.71159e-05
-6.1741e-05
-2.74197e-05
-5.20461e-05
-2.74086e-05
-4.23862e-05
-2.70758e-05
-3.28557e-05
-2.64212e-05
-2.35497e-05
-2.54523e-05
-1.45614e-05
-2.41837e-05
-5.98115e-06
-2.26378e-05
2.10624e-06
-2.08441e-05
9.62291e-06
-1.88382e-05
1.64998e-05
-1.66612e-05
2.26781e-05
-1.43582e-05
2.81108e-05
-1.19771e-05
3.27632e-05
-9.56666e-06
3.66149e-05
-7.17585e-06
3.96593e-05
-4.85183e-06
4.19029e-05
-2.63889e-06
4.33692e-05
-5.75881e-07
4.40946e-05
1.30304e-06
4.41288e-05
2.97044e-06
4.35335e-05
4.40659e-06
4.23804e-05
5.59973e-06
4.07489e-05
6.54634e-06
3.87228e-05
7.25097e-06
3.63876e-05
7.72559e-06
3.38273e-05
7.98856e-06
3.11213e-05
8.06331e-06
2.83421e-05
7.97671e-06
2.55536e-05
7.75747e-06
2.28092e-05
7.43463e-06
2.01522e-05
7.0361e-06
1.76152e-05
6.5876e-06
1.52211e-05
6.11173e-06
1.29844e-05
5.62715e-06
1.09126e-05
5.14794e-06
9.00804e-06
4.68279e-06
7.27062e-06
4.23437e-06
5.6996e-06
3.79882e-06
4.29624e-06
3.36574e-06
3.06563e-06
2.91932e-06
2.01793e-06
2.44127e-06
1.1683e-06
1.91626e-06
5.35491e-07
1.34136e-06
1.39352e-07
7.38912e-07
1.92714e-07
2.20544e-07
-5.58482e-07
7.94592e-07
-1.63512e-06
1.64266e-06
-2.58695e-06
2.68964e-06
-3.33356e-06
3.85947e-06
-3.8356e-06
5.07749e-06
-4.08181e-06
6.27445e-06
-4.08447e-06
7.39027e-06
-3.87363e-06
8.37673e-06
-3.49117e-06
9.19877e-06
-2.98497e-06
9.83435e-06
-2.40363e-06
1.02733e-05
-1.79194e-06
1.05149e-05
-1.1873e-06
1.05656e-05
-6.17319e-07
1.04354e-05
-9.84589e-08
1.01348e-05
3.64201e-07
9.67219e-06
7.76206e-07
9.05104e-06
1.1521e-06
8.26828e-06
1.5131e-06
7.31332e-06
1.88429e-06
6.16794e-06
2.29172e-06
4.80699e-06
2.75974e-06
3.19969e-06
3.30889e-06
1.31119e-06
3.9547e-06
-8.95665e-07
4.70734e-06
-3.4588e-06
5.57205e-06
-6.41547e-06
6.54997e-06
-9.80099e-06
7.639e-06
-1.36475e-05
8.83444e-06
-1.79826e-05
1.01291e-05
-2.28279e-05
1.15132e-05
-2.81975e-05
1.29738e-05
-3.40964e-05
1.44942e-05
-4.05187e-05
1.60539e-05
-4.74467e-05
1.76285e-05
-5.48497e-05
1.919e-05
-6.26841e-05
2.07073e-05
-7.08934e-05
2.21476e-05
-7.94094e-05
2.34774e-05
-8.81541e-05
2.46638e-05
-9.70418e-05
2.56762e-05
-0.000105982
2.6487e-05
-0.000114882
2.70731e-05
-0.00012365
2.74165e-05
-0.000132197
2.75045e-05
-0.000140442
2.73299e-05
-0.000148308
2.68907e-05
-0.000155728
2.61895e-05
-0.000162644
2.52328e-05
-0.000169004
2.40305e-05
-0.000174769
2.25948e-05
-0.000179904
2.09398e-05
-0.000184381
1.90806e-05
-0.000188181
1.70333e-05
-0.000191286
1.48139e-05
-0.000193684
1.2439e-05
-0.000195368
9.92478e-06
-0.000196331
7.28772e-06
-0.00019657
4.54431e-06
-0.000196083
1.71143e-06
-0.00019487
-1.19344e-06
-0.000192933
-4.15263e-06
-0.000190276
-7.14645e-06
-0.000186903
-1.01541e-05
-0.000182822
-1.31531e-05
-0.000178045
-1.61191e-05
-0.000172584
-1.90254e-05
-0.000166458
-2.18434e-05
-0.000159688
-2.45421e-05
-0.000152303
-2.70888e-05
-0.000144337
-2.94489e-05
-0.000135831
-3.15873e-05
-0.000126832
-3.34681e-05
-0.000117395
-3.50567e-05
-0.000107585
-3.63202e-05
-9.74727e-05
-3.72287e-05
-8.71353e-05
-3.7757e-05
-7.66579e-05
-3.7886e-05
-6.61301e-05
-3.76035e-05
-5.56457e-05
-3.69057e-05
-4.53001e-05
-3.57978e-05
-3.51892e-05
-3.42945e-05
-2.54069e-05
-3.24201e-05
-1.60432e-05
-3.02078e-05
-7.18244e-06
-2.7699e-05
1.09846e-06
-2.49421e-05
8.73136e-06
-2.19911e-05
1.56581e-05
-1.89038e-05
2.18312e-05
-1.57398e-05
2.72151e-05
-1.25597e-05
3.17857e-05
-9.42242e-06
3.55315e-05
-6.3847e-06
3.84545e-05
-3.49888e-06
4.05696e-05
-8.12104e-07
4.19051e-05
1.63498e-06
4.25023e-05
3.80938e-06
4.24152e-05
5.68685e-06
4.17089e-05
7.2526e-06
4.04581e-05
8.50178e-06
3.87443e-05
9.4394e-06
3.6653e-05
1.00798e-05
3.42706e-05
1.04457e-05
3.16809e-05
1.05664e-05
2.89625e-05
1.04759e-05
2.61861e-05
1.0211e-05
2.34129e-05
9.80933e-06
2.06935e-05
9.307e-06
1.80679e-05
8.73734e-06
1.55659e-05
8.12918e-06
1.32083e-05
7.50555e-06
1.10087e-05
6.88238e-06
8.97566e-06
6.26737e-06
7.11528e-06
5.6592e-06
5.43359e-06
5.04743e-06
3.9392e-06
4.41371e-06
2.64539e-06
3.73507e-06
1.57176e-06
2.98989e-06
7.45648e-07
2.16747e-06
2.04028e-07
1.28053e-06
3.96742e-07
2.54503e-07
-8.12986e-07
9.08456e-07
-2.28907e-06
1.86073e-06
-3.53922e-06
3.0173e-06
-4.49014e-06
4.28766e-06
-5.10596e-06
5.58681e-06
-5.38096e-06
6.8386e-06
-5.33626e-06
7.97878e-06
-5.01381e-06
8.95701e-06
-4.4694e-06
9.73743e-06
-3.76539e-06
1.02979e-05
-2.96409e-06
1.06281e-05
-2.12211e-06
1.07267e-05
-1.28598e-06
1.05986e-05
-4.89234e-07
1.0251e-05
2.4915e-07
9.69035e-06
9.24886e-07
8.91927e-06
1.54729e-06
7.93433e-06
2.13704e-06
6.72438e-06
2.72305e-06
5.26999e-06
3.33868e-06
3.54376e-06
4.01795e-06
1.51154e-06
4.79196e-06
-8.6584e-07
5.68626e-06
-3.63048e-06
6.71934e-06
-6.82538e-06
7.90224e-06
-1.04924e-05
9.23911e-06
-1.46706e-05
1.07282e-05
-1.93942e-05
1.23626e-05
-2.4691e-05
1.41312e-05
-3.05801e-05
1.60183e-05
-3.70703e-05
1.80035e-05
-4.41579e-05
2.00613e-05
-5.18248e-05
2.21611e-05
-6.00378e-05
2.42669e-05
-6.87479e-05
2.63386e-05
-7.78906e-05
2.83326e-05
-8.73876e-05
3.02043e-05
-9.71493e-05
3.19092e-05
-0.000107077
3.34055e-05
-0.000117069
3.46556e-05
-0.000127021
3.56278e-05
-0.000136831
3.62975e-05
-0.000146406
3.66475e-05
-0.000155658
3.66683e-05
-0.00016451
3.63574e-05
-0.000172899
3.57185e-05
-0.000180769
3.47608e-05
-0.000188077
3.34973e-05
-0.000194788
3.19443e-05
-0.000200878
3.01198e-05
-0.000206326
2.80432e-05
-0.00021112
2.5734e-05
-0.000215251
2.32117e-05
-0.000218713
2.04954e-05
-0.000221503
1.76033e-05
-0.000223617
1.45532e-05
-0.000225054
1.1362e-05
-0.000225813
8.04655e-06
-0.000225892
4.62321e-06
-0.000225289
1.10877e-06
-0.000224003
-2.47963e-06
-0.000222032
-6.12373e-06
-0.000219375
-9.80392e-06
-0.00021603
-1.34987e-05
-0.000211999
-1.71845e-05
-0.000207283
-2.0835e-05
-0.000201887
-2.44213e-05
-0.000195819
-2.79113e-05
-0.000189091
-3.12702e-05
-0.00018172
-3.446e-05
-0.000173728
-3.74405e-05
-0.000165146
-4.01694e-05
-0.00015601
-4.26036e-05
-0.000146367
-4.46999e-05
-0.000136271
-4.64164e-05
-0.000125785
-4.77145e-05
-0.000114982
-4.856e-05
-0.000103943
-4.89254e-05
-9.2755e-05
-4.87913e-05
-8.15128e-05
-4.81479e-05
-7.03143e-05
-4.69964e-05
-5.92591e-05
-4.53497e-05
-4.84468e-05
-4.32324e-05
-3.79738e-05
-4.06808e-05
-2.79315e-05
-3.77413e-05
-1.84042e-05
-3.44694e-05
-9.46745e-06
-3.09279e-05
-1.18719e-06
-2.7184e-05
6.38124e-06
-2.33083e-05
1.31932e-05
-1.93716e-05
1.92149e-05
-1.54441e-05
2.44233e-05
-1.15931e-05
2.88062e-05
-7.88177e-06
3.23625e-05
-4.36843e-06
3.51025e-05
-1.10503e-06
3.70482e-05
1.86372e-06
3.82334e-05
4.50156e-06
3.87044e-05
6.78168e-06
3.85184e-05
8.68772e-06
3.77434e-05
1.02144e-05
3.64556e-05
1.13676e-05
3.47371e-05
1.21643e-05
3.26727e-05
1.26308e-05
3.03467e-05
1.28018e-05
2.78399e-05
1.27178e-05
2.52266e-05
1.24227e-05
2.25725e-05
1.19611e-05
1.99336e-05
1.13762e-05
1.73555e-05
1.07073e-05
1.48739e-05
9.98714e-06
1.25157e-05
9.24055e-06
1.03009e-05
8.48218e-06
8.24482e-06
7.7153e-06
6.36093e-06
6.93132e-06
4.66385e-06
6.11079e-06
3.17241e-06
5.22652e-06
1.913e-06
4.2493e-06
9.23521e-07
3.15695e-06
2.58489e-07
1.94556e-06
6.55231e-07
2.81009e-07
-1.09399e-06
9.96869e-07
-3.00493e-06
2.02758e-06
-4.56994e-06
3.26107e-06
-5.72363e-06
4.59224e-06
-6.43712e-06
5.92555e-06
-6.71427e-06
7.17819e-06
-6.5889e-06
8.28254e-06
-6.11816e-06
9.18731e-06
-5.37417e-06
9.85721e-06
-4.43529e-06
1.02712e-05
-3.37806e-06
1.04197e-05
-2.2706e-06
1.03012e-05
-1.16752e-06
9.91872e-06
-1.06731e-07
9.27574e-06
8.92128e-07
8.3731e-06
1.82752e-06
7.20601e-06
2.71438e-06
5.76199e-06
3.58106e-06
4.01985e-06
4.46519e-06
1.9497e-06
5.40884e-06
-4.85989e-07
6.45364e-06
-3.33043e-06
7.63641e-06
-6.63017e-06
8.986e-06
-1.04324e-05
1.05216e-05
-1.47825e-05
1.22524e-05
-1.97216e-05
1.41782e-05
-2.52842e-05
1.62907e-05
-3.14957e-05
1.85741e-05
-3.83704e-05
2.10059e-05
-4.59086e-05
2.35565e-05
-5.40951e-05
2.61899e-05
-6.28967e-05
2.8863e-05
-7.22622e-05
3.15266e-05
-8.21222e-05
3.4127e-05
-9.23911e-05
3.66075e-05
-0.00010297
3.89112e-05
-0.000113749
4.09836e-05
-0.000124615
4.27754e-05
-0.000135454
4.42444e-05
-0.000146156
4.53574e-05
-0.000156619
4.60911e-05
-0.000166754
4.6432e-05
-0.000176482
4.63758e-05
-0.00018574
4.59265e-05
-0.000194478
4.50949e-05
-0.000202656
4.38972e-05
-0.000210248
4.23529e-05
-0.000217235
4.04841e-05
-0.000223605
3.83141e-05
-0.000229351
3.58662e-05
-0.000234471
3.31633e-05
-0.000238965
3.02274e-05
-0.000242832
2.70791e-05
-0.000246075
2.37379e-05
-0.000248693
2.02219e-05
-0.000250688
1.6548e-05
-0.000252058
1.27323e-05
-0.000252802
8.79039e-06
-0.000252916
4.73755e-06
-0.000252397
5.89424e-07
-0.000251239
-3.6379e-06
-0.000249436
-7.92693e-06
-0.000246981
-1.22586e-05
-0.000243868
-1.66116e-05
-0.00024009
-2.09621e-05
-0.000235642
-2.5283e-05
-0.00023052
-2.95439e-05
-0.000224721
-3.37105e-05
-0.000218246
-3.77446e-05
-0.000211102
-4.16043e-05
-0.000203299
-4.52438e-05
-0.000194853
-4.86147e-05
-0.000185791
-5.1666e-05
-0.000176145
-5.43458e-05
-0.000165959
-5.66025e-05
-0.000155286
-5.83871e-05
-0.000144192
-5.96546e-05
-0.00013275
-6.03668e-05
-0.000121048
-6.0494e-05
-0.000109178
-6.00179e-05
-9.72414e-05
-5.89325e-05
-8.53451e-05
-5.7246e-05
-7.35961e-05
-5.49814e-05
-6.21012e-05
-5.21757e-05
-5.09625e-05
-4.88799e-05
-4.02755e-05
-4.51565e-05
-3.01262e-05
-4.10772e-05
-2.05898e-05
-3.67205e-05
-1.17296e-05
-3.21685e-05
-3.59696e-06
-2.75042e-05
3.7683e-06
-2.28094e-05
1.03373e-05
-1.81621e-05
1.60914e-05
-1.36358e-05
2.10211e-05
-9.29818e-06
2.51264e-05
-5.21034e-06
2.84164e-05
-1.42623e-06
3.09098e-05
2.00818e-06
3.26356e-05
5.0558e-06
3.36339e-05
7.68946e-06
3.39553e-05
9.89296e-06
3.3661e-05
1.16619e-05
3.28212e-05
1.30041e-05
3.1513e-05
1.3939e-05
2.98177e-05
1.44971e-05
2.78178e-05
1.47178e-05
2.55935e-05
1.4647e-05
2.32201e-05
1.43345e-05
2.07657e-05
1.38307e-05
1.82893e-05
1.31837e-05
1.58407e-05
1.24358e-05
1.34603e-05
1.16209e-05
1.11806e-05
1.07619e-05
9.02796e-06
9.8679e-06
7.02542e-06
8.93387e-06
5.19577e-06
7.94044e-06
3.56561e-06
6.85668e-06
2.16989e-06
5.64501e-06
1.0577e-06
4.26914e-06
2.99404e-07
2.70386e-06
9.54635e-07
3.0263e-07
-1.39662e-06
1.06633e-06
-3.76863e-06
2.15294e-06
-5.65655e-06
3.43286e-06
-7.00355e-06
4.78662e-06
-7.79088e-06
6.10841e-06
-8.03606e-06
7.30934e-06
-7.78983e-06
8.31936e-06
-7.12818e-06
9.08743e-06
-6.14224e-06
9.57997e-06
-4.92783e-06
9.77801e-06
-3.5761e-06
9.6733e-06
-2.16589e-06
9.26412e-06
-7.58351e-07
8.55101e-06
6.06378e-07
7.53276e-06
1.91039e-06
6.20299e-06
3.15729e-06
4.54767e-06
4.36971e-06
2.54358e-06
5.58515e-06
1.58103e-07
6.85066e-06
-2.64978e-06
8.21672e-06
-5.9274e-06
9.73126e-06
-9.72558e-06
1.14346e-05
-1.40954e-05
1.33558e-05
-1.90848e-05
1.5511e-05
-2.4736e-05
1.79035e-05
-3.10818e-05
2.05241e-05
-3.81438e-05
2.33526e-05
-4.59286e-05
2.63589e-05
-5.4426e-05
2.95033e-05
-6.36066e-05
3.27371e-05
-7.34203e-05
3.60037e-05
-8.37966e-05
3.92392e-05
-9.46455e-05
4.23755e-05
-0.000105861
4.53426e-05
-0.000117326
4.80721e-05
-0.000128915
5.05007e-05
-0.000140505
5.25737e-05
-0.000151977
5.42468e-05
-0.00016322
5.54877e-05
-0.000174139
5.62768e-05
-0.000184654
5.66061e-05
-0.0001947
5.6478e-05
-0.000204228
5.59038e-05
-0.000213203
5.49013e-05
-0.000221601
5.34931e-05
-0.000229409
5.1705e-05
-0.00023662
4.95637e-05
-0.000243232
4.70966e-05
-0.000249249
4.43302e-05
-0.000254672
4.12901e-05
-0.000259509
3.79998e-05
-0.000263763
3.44815e-05
-0.000267439
3.07551e-05
-0.000270541
2.68393e-05
-0.00027307
2.27509e-05
-0.000275027
1.85054e-05
-0.000276412
1.41175e-05
-0.000277223
9.60113e-06
-0.000277455
4.97002e-06
-0.000277104
2.38209e-07
-0.000276163
-4.57963e-06
-0.000274622
-9.46759e-06
-0.000272473
-1.44079e-05
-0.000269704
-1.93805e-05
-0.000266304
-2.43622e-05
-0.00026226
-2.93266e-05
-0.000257561
-3.42429e-05
-0.000252195
-3.90762e-05
-0.000246153
-4.37867e-05
-0.000239428
-4.83296e-05
-0.000232016
-5.26553e-05
-0.000223921
-5.67099e-05
-0.000215152
-6.04355e-05
-0.000205726
-6.37719e-05
-0.000195671
-6.66573e-05
-0.000185027
-6.90314e-05
-0.000173845
-7.08365e-05
-0.00016219
-7.20211e-05
-0.000150142
-7.25424e-05
-0.000137791
-7.23691e-05
-0.000125239
-7.14839e-05
-0.000112599
-6.98862e-05
-9.99879e-05
-6.75928e-05
-8.7525e-05
-6.46386e-05
-7.53288e-05
-6.10761e-05
-6.35118e-05
-5.69735e-05
-5.21769e-05
-5.2412e-05
-4.14152e-05
-4.74822e-05
-3.13034e-05
-4.22803e-05
-2.19034e-05
-3.69043e-05
-1.32622e-05
-3.14506e-05
-5.41349e-06
-2.60108e-05
1.62089e-06
-2.06702e-05
7.8293e-06
-1.55066e-05
1.32086e-05
-1.05896e-05
1.77631e-05
-5.98071e-06
2.15043e-05
-1.73307e-06
2.44514e-05
2.10872e-06
2.66316e-05
5.50928e-06
2.80812e-05
8.44333e-06
2.88464e-05
1.08968e-05
2.89828e-05
1.28676e-05
2.85553e-05
1.43665e-05
2.7636e-05
1.54164e-05
2.6302e-05
1.60518e-05
2.46326e-05
1.63164e-05
2.2706e-05
1.6261e-05
2.05969e-05
1.59398e-05
1.83737e-05
1.54068e-05
1.60974e-05
1.47122e-05
1.38203e-05
1.3898e-05
1.1587e-05
1.29951e-05
9.43546e-06
1.20194e-05
7.39927e-06
1.09701e-05
5.51101e-06
9.8287e-06
3.80653e-06
8.56116e-06
2.33029e-06
7.12126e-06
1.14206e-06
5.45737e-06
3.25048e-07
3.52087e-06
1.27968e-06
3.20888e-07
-1.71751e-06
1.1206e-06
-4.56835e-06
2.24214e-06
-6.77808e-06
3.53851e-06
-8.29992e-06
4.87633e-06
-9.1287e-06
6.14032e-06
-9.30005e-06
7.2366e-06
-8.88612e-06
8.09399e-06
-7.98557e-06
8.66296e-06
-6.71121e-06
8.91276e-06
-5.17763e-06
8.82711e-06
-3.49045e-06
8.39925e-06
-1.73803e-06
7.62679e-06
1.41105e-08
6.5069e-06
1.72627e-06
5.03219e-06
3.3851e-06
3.18751e-06
5.00197e-06
9.48e-07
6.60921e-06
-1.72144e-06
8.25459e-06
-4.86522e-06
9.99445e-06
-8.53478e-06
1.18863e-05
-1.27852e-05
1.39817e-05
-1.76713e-05
1.63206e-05
-2.32434e-05
1.8928e-05
-2.9544e-05
2.18116e-05
-3.66035e-05
2.4963e-05
-4.44376e-05
2.83581e-05
-5.30439e-05
3.1959e-05
-6.24e-05
3.57149e-05
-7.24606e-05
3.95639e-05
-8.31579e-05
4.34344e-05
-9.44017e-05
4.72475e-05
-0.000106083
5.09201e-05
-0.000118076
5.43693e-05
-0.00013025
5.75163e-05
-0.000142469
6.0291e-05
-0.000154603
6.26349e-05
-0.000166533
6.45039e-05
-0.000178155
6.58686e-05
-0.000189382
6.67144e-05
-0.000200145
6.70398e-05
-0.000210393
6.68544e-05
-0.000220091
6.61763e-05
-0.000229218
6.503e-05
-0.00023776
6.3444e-05
-0.000245716
6.14485e-05
-0.000253086
5.90748e-05
-0.000259876
5.63535e-05
-0.000266093
5.33138e-05
-0.000271746
4.99834e-05
-0.000276844
4.63879e-05
-0.000281395
4.25506e-05
-0.000285406
3.84929e-05
-0.000288885
3.4234e-05
-0.000291837
2.97911e-05
-0.000294266
2.518e-05
-0.000296175
2.04148e-05
-0.000297566
1.55086e-05
-0.000298439
1.04736e-05
-0.00029879
5.32174e-06
-0.000298617
6.48553e-08
-0.000297913
-5.28395e-06
-0.000296669
-1.07115e-05
-0.000294875
-1.62021e-05
-0.000292517
-2.17381e-05
-0.000289581
-2.72984e-05
-0.000286049
-3.28585e-05
-0.000281902
-3.83894e-05
-0.000277122
-4.38572e-05
-0.000271686
-4.92223e-05
-0.000265576
-5.44393e-05
-0.000258775
-5.94569e-05
-0.000251267
-6.42175e-05
-0.000243045
-6.86581e-05
-0.000234105
-7.27112e-05
-0.000224457
-7.63059e-05
-0.000214118
-7.93701e-05
-0.000203122
-8.18326e-05
-0.000191516
-8.36267e-05
-0.000179366
-8.4693e-05
-0.000166752
-8.49831e-05
-0.000153772
-8.44634e-05
-0.00014054
-8.31182e-05
-0.000127181
-8.09523e-05
-0.000113827
-7.79924e-05
-0.000100615
-7.42875e-05
-8.76814e-05
-6.99075e-05
-7.51525e-05
-6.4941e-05
-6.31442e-05
-5.94904e-05
-5.17564e-05
-5.36681e-05
-4.10705e-05
-4.75902e-05
-3.11486e-05
-4.13724e-05
-2.20344e-05
-3.5125e-05
-1.37549e-05
-2.89497e-05
-6.32328e-06
-2.29382e-05
2.58055e-07
-1.71709e-05
5.99493e-06
-1.17176e-05
1.08994e-05
-6.63755e-06
1.49888e-05
-1.98071e-06
1.82859e-05
2.21224e-06
2.08192e-05
5.91003e-06
2.26244e-05
9.0915e-06
2.37455e-05
1.17466e-05
2.42346e-05
1.38773e-05
2.41526e-05
1.54984e-05
2.35672e-05
1.66371e-05
2.25516e-05
1.7332e-05
2.11816e-05
1.7631e-05
1.9533e-05
1.75885e-05
1.76787e-05
1.72612e-05
1.56867e-05
1.67041e-05
1.36188e-05
1.59659e-05
1.15298e-05
1.50841e-05
9.46848e-06
1.40808e-05
7.47905e-06
1.29595e-05
5.60445e-06
1.17033e-05
3.8904e-06
1.02752e-05
2.39086e-06
8.62079e-06
1.17496e-06
6.67327e-06
3.35022e-07
4.36081e-06
1.61471e-06
3.36247e-07
-2.05376e-06
1.16055e-06
-5.39265e-06
2.29566e-06
-7.91319e-06
3.57724e-06
-9.58151e-06
4.85879e-06
-1.04102e-05
6.01689e-06
-1.04581e-05
6.9543e-06
-9.82354e-06
7.60034e-06
-8.63161e-06
7.90838e-06
-7.01925e-06
7.8514e-06
-5.12065e-06
7.41617e-06
-3.05522e-06
6.59706e-06
-9.18916e-07
5.39008e-06
1.22109e-06
3.78769e-06
3.32866e-06
1.7747e-06
5.39808e-06
-6.74322e-07
7.451e-06
-3.59609e-06
9.53098e-06
-7.03775e-06
1.16963e-05
-1.10544e-05
1.40111e-05
-1.57054e-05
1.65372e-05
-2.10491e-05
1.93254e-05
-2.71385e-05
2.241e-05
-3.40159e-05
2.58053e-05
-4.17089e-05
2.95046e-05
-5.02267e-05
3.34809e-05
-5.95573e-05
3.76887e-05
-6.96644e-05
4.20662e-05
-8.04871e-05
4.65376e-05
-9.19392e-05
5.1016e-05
-0.000103912
5.5407e-05
-0.000116277
5.96132e-05
-0.000128897
6.35392e-05
-0.000141625
6.70972e-05
-0.00015432
7.02114e-05
-0.00016685
7.28217e-05
-0.000179101
7.48852e-05
-0.000190973
7.63766e-05
-0.000202392
7.72872e-05
-0.000213299
7.76218e-05
-0.000223656
7.7397e-05
-0.000233439
7.66371e-05
-0.000242635
7.53724e-05
-0.000251241
7.36361e-05
-0.00025926
7.14629e-05
-0.000266699
6.88875e-05
-0.000273568
6.59437e-05
-0.000279878
6.26635e-05
-0.000285641
5.9077e-05
-0.00029087
5.52121e-05
-0.000295576
5.10942e-05
-0.000299772
4.67464e-05
-0.000303469
4.21896e-05
-0.000306677
3.74422e-05
-0.000309406
3.25205e-05
-0.000311665
2.74391e-05
-0.000313461
2.22107e-05
-0.000314799
1.68468e-05
-0.000315683
1.13576e-05
-0.000316115
5.75301e-06
-0.000316092
4.18194e-08
-0.000315611
-5.76447e-06
-0.000314666
-1.16568e-05
-0.000313246
-1.76222e-05
-0.000311337
-2.36464e-05
-0.000308924
-2.97119e-05
-0.000305985
-3.57976e-05
-0.000302496
-4.18779e-05
-0.000298431
-4.7922e-05
-0.000293761
-5.38928e-05
-0.000288454
-5.97467e-05
-0.000282477
-6.54331e-05
-0.000275801
-7.08936e-05
-0.000268396
-7.60628e-05
-0.000260239
-8.08682e-05
-0.000251314
-8.52317e-05
-0.000241613
-8.9071e-05
-0.000231143
-9.23018e-05
-0.000219929
-9.48413e-05
-0.00020801
-9.66114e-05
-0.00019545
-9.75434e-05
-0.000182332
-9.75819e-05
-0.00016876
-9.66897e-05
-0.000154861
-9.48519e-05
-0.000140774
-9.20788e-05
-0.000126654
-8.84075e-05
-0.000112659
-8.39027e-05
-9.89458e-05
-7.86541e-05
-8.56635e-05
-7.27727e-05
-7.29456e-05
-6.63859e-05
-6.09055e-05
-5.96304e-05
-4.96329e-05
-5.26451e-05
-3.91927e-05
-4.55651e-05
-2.96264e-05
-3.85161e-05
-2.09543e-05
-3.16103e-05
-1.31802e-05
-2.4945e-05
-6.29535e-06
-1.86025e-05
-2.82546e-07
-1.26504e-05
4.88073e-06
-7.14399e-06
9.22059e-06
-2.12763e-06
1.27663e-05