/*--------------------------------*- C++ -*----------------------------------*\
| =========                 |                                                 |
| \\      /  F ield         | OpenFOAM: The Open Source CFD Toolbox           |
|  \\    /   O peration     | Version:  2406                                  |
|   \\  /    A nd           | Website:  www.openfoam.com                      |
|    \\/     M anipulation  |                                                 |
\*---------------------------------------------------------------------------*/
FoamFile
{
    version     2.0;
    format      ascii;
    arch        "LSB;label=32;scalar=64";
    class       volScalarField;
    location    "72";
    object      p;
}
// * * * * * * * * * * * * * * * * * * * * * * * * * * * * * * * * * * * * * //

dimensions      [0 2 -2 0 0 0 0];

internalField   nonuniform List<scalar> 
1024
(
3.31385e-07
7.52406e-06
-0.000100254
-0.000264309
-0.000441989
-0.000632196
-0.000864434
-0.00118236
-0.00163156
-0.00222461
-0.00288976
-0.00340501
-0.00371732
-0.00383376
-0.00373745
-0.00330264
-0.00235384
-0.000791687
0.0013755
0.00391896
0.00641065
0.00825959
0.00887267
0.00797574
0.00568202
0.00281965
0.000464128
-0.000894399
-0.00133688
-0.00142803
-0.00142677
-0.00137193
-1.39126e-05
-1.59734e-05
-0.000125675
-0.00027911
-0.00042951
-0.00058046
-0.000774846
-0.00104022
-0.00134041
-0.00173172
-0.00236853
-0.00319873
-0.00397898
-0.00453679
-0.00476046
-0.00449826
-0.00359348
-0.00199962
0.000169721
0.00270291
0.00520318
0.00708284
0.00773459
0.00688595
0.00466611
0.00162313
-0.000678128
-0.00174647
-0.00183288
-0.0016121
-0.00142029
-0.00130578
4.32033e-05
1.57396e-06
-0.000141399
-0.00029675
-0.000415935
-0.000511277
-0.000640397
-0.000890506
-0.001422
-0.0022812
-0.00342034
-0.00472702
-0.0060164
-0.00707756
-0.00770876
-0.00773246
-0.00703717
-0.00561729
-0.00355702
-0.00106266
0.00150059
0.00360601
0.00468746
0.00440554
0.0027649
0.000241945
-0.00186551
-0.00275262
-0.00256152
-0.00210198
-0.0017851
-0.00163771
0.00019449
8.6363e-05
-0.000118427
-0.000292002
-0.000379536
-0.000481594
-0.000766436
-0.0014225
-0.00257527
-0.00420632
-0.00613492
-0.00814315
-0.0100206
-0.0115624
-0.0125843
-0.0129401
-0.0125546
-0.0114342
-0.00963285
-0.00729072
-0.0046809
-0.00222158
-0.000414635
0.000347939
-1.01191e-05
-0.00123925
-0.00250523
-0.00307712
-0.00295401
-0.00251885
-0.00223348
-0.00210407
0.000514403
0.000320652
3.51064e-05
-0.00017118
-0.000354747
-0.000731867
-0.00157319
-0.0030424
-0.00513585
-0.00769856
-0.0104548
-0.0131284
-0.0154981
-0.0173977
-0.0187116
-0.0193677
-0.0193248
-0.0185571
-0.0170881
-0.015017
-0.0125204
-0.00986123
-0.00737493
-0.00539431
-0.00410999
-0.00348068
-0.00321376
-0.00300597
-0.00281144
-0.00267858
-0.002576
-0.00252542
0.00106174
0.000782578
0.000428691
6.41629e-05
-0.000470805
-0.00150971
-0.00328904
-0.00583569
-0.0089707
-0.0123799
-0.0157488
-0.018823
-0.0214284
-0.0234623
-0.0248777
-0.0256619
-0.0258101
-0.0252965
-0.0241435
-0.0224222
-0.0202345
-0.0177063
-0.0149832
-0.0122115
-0.00952564
-0.00706022
-0.00495933
-0.00340331
-0.00257465
-0.00270657
-0.00285405
-0.00289559
0.00181482
0.00150424
0.000996431
0.00027991
-0.000942137
-0.00297841
-0.00590511
-0.00954814
-0.0135394
-0.0175125
-0.0211845
-0.0243742
-0.0269872
-0.0289911
-0.0303887
-0.0311964
-0.0314233
-0.0310715
-0.0301663
-0.0287505
-0.0268768
-0.0246021
-0.0219652
-0.0189709
-0.0156024
-0.0119152
-0.00818632
-0.00502669
-0.00308812
-0.00250729
-0.0033151
-0.00329429
0.00261129
0.00224376
0.00148209
0.000186647
-0.00197396
-0.0051445
-0.00919699
-0.0137159
-0.0182582
-0.0224948
-0.0262278
-0.0293704
-0.0319022
-0.033833
-0.0351858
-0.0359831
-0.0362432
-0.0359911
-0.0352505
-0.0340503
-0.032422
-0.030385
-0.0279263
-0.0249865
-0.0214767
-0.0173339
-0.0126794
-0.0080906
-0.00461572
-0.00288715
-0.00404793
-0.00393364
0.00306708
0.00261791
0.00151362
-0.00049729
-0.00364643
-0.00789857
-0.0128473
-0.0179353
-0.0227439
-0.027032
-0.0307019
-0.033742
-0.036177
-0.0380413
-0.0393653
-0.0401713
-0.0404781
-0.0403045
-0.0396738
-0.0386094
-0.0371318
-0.0352482
-0.0329384
-0.0301373
-0.0267306
-0.0225953
-0.0177003
-0.0123325
-0.00751737
-0.00470897
-0.00400691
-0.00506026
0.00285548
0.00231651
0.000830267
-0.00188346
-0.00592836
-0.0110382
-0.0165718
-0.0219429
-0.0268104
-0.031033
-0.0345919
-0.0375244
-0.039879
-0.0416964
-0.0430052
-0.0438247
-0.0441711
-0.0440633
-0.0435169
-0.0425483
-0.0411706
-0.0393864
-0.0371793
-0.0345013
-0.0312607
-0.0273259
-0.0225885
-0.0171039
-0.0114939
-0.00700538
-0.00390006
-0.00727612
0.00186498
0.00123057
-0.000622711
-0.0039284
-0.00867049
-0.0143373
-0.0201615
-0.0255969
-0.0303959
-0.0344994
-0.0379405
-0.0407824
-0.0430778
-0.0448643
-0.0461667
-0.0470019
-0.0473843
-0.047328
-0.0468454
-0.0459472
-0.0446407
-0.0429256
-0.0407898
-0.0382031
-0.0351081
-0.0314077
-0.0269651
-0.021682
-0.0157137
-0.00995333
-0.00696375
-0.0092856
0.000134433
-0.000586114
-0.00273206
-0.0064589
-0.0116449
-0.0175848
-0.023472
-0.0288298
-0.0334954
-0.0374632
-0.040797
-0.0435652
-0.0458149
-0.0475779
-0.0488751
-0.0497221
-0.0501321
-0.0501161
-0.0496837
-0.0488424
-0.047595
-0.0459384
-0.0438623
-0.0413475
-0.0383635
-0.034854
-0.0307019
-0.0257023
-0.0197779
-0.0135731
-0.0102468
-0.00939189
-0.00211156
-0.00289895
-0.0052363
-0.00921057
-0.0146079
-0.0206053
-0.026408
-0.031612
-0.036119
-0.0399539
-0.0431932
-0.0458984
-0.0481086
-0.0498498
-0.0511395
-0.0519924
-0.0524205
-0.0524343
-0.0520413
-0.0512464
-0.0500504
-0.0484488
-0.0464322
-0.0439869
-0.0410971
-0.0377351
-0.0338242
-0.0291494
-0.0234813
-0.0169793
-0.0116825
-0.0076218
-0.00455775
-0.0053914
-0.00782934
-0.0119061
-0.0173436
-0.0232607
-0.0289012
-0.0339242
-0.0382721
-0.0419867
-0.0451435
-0.0477941
-0.0499694
-0.0516901
-0.0529716
-0.0538271
-0.0542679
-0.0543032
-0.0539395
-0.0531807
-0.0520271
-0.0504745
-0.0485151
-0.0461385
-0.0433369
-0.0401011
-0.0363976
-0.0320671
-0.0267888
-0.020258
-0.0133813
-0.00730223
-0.00690238
-0.00776906
-0.0102406
-0.0143132
-0.0196834
-0.0254479
-0.0309023
-0.0357491
-0.0399543
-0.043566
-0.0466533
-0.0492578
-0.0514033
-0.0531066
-0.0543806
-0.055237
-0.0556859
-0.0557357
-0.0553924
-0.0546596
-0.0535382
-0.0520259
-0.0501174
-0.0478058
-0.0450888
-0.0419695
-0.0384485
-0.0344283
-0.0296239
-0.0234455
-0.0163152
-0.00971714
-0.00891636
-0.00981547
-0.0122736
-0.0162675
-0.0215108
-0.0270936
-0.0323713
-0.0370663
-0.041156
-0.0446864
-0.0477196
-0.0502889
-0.0524127
-0.0541043
-0.0553741
-0.0562322
-0.056687
-0.056746
-0.0564147
-0.0556969
-0.0545952
-0.0531098
-0.0512396
-0.0489827
-0.0463431
-0.0433334
-0.0399806
-0.036238
-0.0319304
-0.0263817
-0.019896
-0.0137535
-0.0104684
-0.0113982
-0.0138056
-0.0176771
-0.0227522
-0.0281481
-0.0332773
-0.0378568
-0.041865
-0.0453399
-0.0483372
-0.0508849
-0.0529979
-0.0546861
-0.0559575
-0.0568199
-0.0572801
-0.0573441
-0.0570169
-0.0563031
-0.0552068
-0.0537315
-0.0518809
-0.0496588
-0.0470771
-0.0441559
-0.0409505
-0.0374526
-0.0336136
-0.0288407
-0.0234022
-0.0179955
-0.0115376
-0.01245
-0.0147781
-0.0185158
-0.0233664
-0.0285856
-0.033595
-0.038101
-0.0420644
-0.0455123
-0.0484946
-0.0510377
-0.053154
-0.0548507
-0.0561326
-0.0570045
-0.0574712
-0.0575372
-0.0572068
-0.0564854
-0.0553789
-0.0538938
-0.0520396
-0.049825
-0.047273
-0.0444075
-0.0413207
-0.0380267
-0.0345912
-0.03056
-0.0261638
-0.0215845
-0.0121638
-0.0129889
-0.0151766
-0.0187404
-0.0233693
-0.0284209
-0.0333304
-0.0377917
-0.0417393
-0.045188
-0.0481792
-0.0507383
-0.052876
-0.0545961
-0.0558999
-0.056789
-0.0572653
-0.0573316
-0.0569916
-0.0562507
-0.0551168
-0.0535991
-0.0517127
-0.0494696
-0.0469081
-0.0440518
-0.0410387
-0.0378694
-0.0347879
-0.0313867
-0.0278591
-0.024017
-0.0124404
-0.0130941
-0.0150535
-0.0183831
-0.022783
-0.0276636
-0.0324805
-0.0369142
-0.0408685
-0.0443438
-0.0473705
-0.0499709
-0.0521527
-0.0539158
-0.0552571
-0.0561743
-0.0566662
-0.0567334
-0.0563782
-0.055606
-0.0544261
-0.0528503
-0.050898
-0.0485895
-0.0459702
-0.0430731
-0.0400702
-0.0369191
-0.0341434
-0.0311775
-0.0283545
-0.0250934
-0.0124684
-0.0128631
-0.0145108
-0.017534
-0.0216536
-0.0263265
-0.0310346
-0.0354445
-0.0394251
-0.0429546
-0.0460482
-0.0487207
-0.0509749
-0.0528053
-0.054204
-0.0551639
-0.0556802
-0.0557509
-0.0553763
-0.0545614
-0.0533162
-0.0516544
-0.0495992
-0.0471776
-0.0444427
-0.0414485
-0.038365
-0.0351652
-0.032622
-0.0298778
-0.0276238
-0.0247603
-0.0122998
-0.0123762
-0.0136704
-0.0163087
-0.0200528
-0.0244353
-0.0289814
-0.0333489
-0.0373678
-0.0409809
-0.0441795
-0.0469633
-0.0493261
-0.0512556
-0.0527376
-0.0537598
-0.0543135
-0.0543932
-0.0539988
-0.0531317
-0.0518027
-0.0500264
-0.0478293
-0.0452434
-0.042332
-0.0391649
-0.0359211
-0.0326367
-0.0301508
-0.0274631
-0.0256946
-0.0230724
-0.0119428
-0.0117135
-0.0126648
-0.014836
-0.0180743
-0.022037
-0.0263247
-0.0306011
-0.0346566
-0.038383
-0.0417317
-0.0446761
-0.047194
-0.0492628
-0.0508616
-0.0519724
-0.0525822
-0.0526819
-0.052268
-0.0513406
-0.0499099
-0.0479905
-0.045611
-0.0428074
-0.0396534
-0.0362345
-0.0327531
-0.0293143
-0.0267252
-0.0239966
-0.0226608
-0.0201026
-0.0114139
-0.0110055
-0.011639
-0.0132463
-0.0158219
-0.0191932
-0.0230794
-0.0271801
-0.0312483
-0.0351116
-0.0386605
-0.0418251
-0.0445565
-0.0468169
-0.048576
-0.0498095
-0.0505001
-0.0506348
-0.0502085
-0.049218
-0.0476721
-0.0455845
-0.0429852
-0.0399141
-0.0364551
-0.0327108
-0.0289133
-0.0252286
-0.0224051
-0.0195187
-0.0186228
-0.0158603
-0.0107906
-0.0104182
-0.010733
-0.0116701
-0.0134098
-0.0159854
-0.0192885
-0.0230936
-0.0271276
-0.0311399
-0.0349384
-0.0383894
-0.0414034
-0.0439188
-0.0458926
-0.047293
-0.0480983
-0.0482925
-0.0478665
-0.0468136
-0.0451434
-0.042868
-0.0400181
-0.0366363
-0.0328175
-0.0286831
-0.0244977
-0.0204801
-0.0173132
-0.0141721
-0.0136335
-0.0101651
-0.010204
-0.010012
-0.0100022
-0.0102115
-0.0109278
-0.0124923
-0.0150132
-0.0183799
-0.0223104
-0.0264674
-0.0305559
-0.034358
-0.0377279
-0.0405695
-0.0428212
-0.0444408
-0.0454018
-0.0456849
-0.0452813
-0.0441818
-0.0423925
-0.0399244
-0.0368099
-0.0330949
-0.0288838
-0.024316
-0.0196847
-0.0152489
-0.0116351
-0.00821394
-0.00763237
-0.00255436
-0.00969973
-0.00972574
-0.00944975
-0.00893285
-0.00845665
-0.00880655
-0.0103752
-0.0131621
-0.0169063
-0.021184
-0.0255839
-0.0297887
-0.0335817
-0.0368206
-0.0394174
-0.0413156
-0.0424831
-0.0428981
-0.0425509
-0.0414332
-0.0395443
-0.036898
-0.0335301
-0.0294881
-0.0248829
-0.0198644
-0.0147436
-0.00980262
-0.00562501
-0.00177683
-0.000554666
0.00769459
-0.00929043
-0.00943972
-0.0089757
-0.00771609
-0.00597373
-0.00500921
-0.00553125
-0.00764936
-0.0111415
-0.0155026
-0.0202073
-0.0248359
-0.0290936
-0.0327818
-0.0357782
-0.0380067
-0.0394275
-0.0400173
-0.0397708
-0.0386828
-0.0367458
-0.0339736
-0.0304062
-0.026092
-0.0211426
-0.0157025
-0.0100727
-0.00451976
0.000449426
0.00516766
0.00815781
0.0215361
-0.0082616
-0.00924423
-0.00853898
-0.00642219
-0.00342894
-0.00123344
-0.000756252
-0.0022328
-0.00546718
-0.00988234
-0.0148636
-0.0198999
-0.0246226
-0.0287733
-0.0321936
-0.0347839
-0.0364959
-0.0373014
-0.0371975
-0.0361838
-0.034275
-0.0314628
-0.0277931
-0.0233098
-0.0181132
-0.0123146
-0.00614761
0.000222
0.00648538
0.0131348
0.0199951
0.0413672
-0.00860452
-0.00844449
-0.0075655
-0.004559
-0.000684594
0.00246423
0.00365624
0.00260538
-0.000459354
-0.00491653
-0.0101216
-0.0154994
-0.020628
-0.0251937
-0.0290087
-0.0319487
-0.0339598
-0.0350078
-0.0350916
-0.0342055
-0.0323773
-0.0296222
-0.0259702
-0.0214438
-0.0161046
-0.00999061
-0.00319357
0.00437318
0.012812
0.0239614
0.039202
0.0748038
-0.00274127
-0.00862375
-0.00747237
-0.0034551
0.00176456
0.0054641
0.0070337
0.00611003
0.00306994
-0.00145299
-0.00682604
-0.0124378
-0.0178498
-0.0227084
-0.0268159
-0.0300198
-0.0322705
-0.0335181
-0.033787
-0.0330672
-0.0314048
-0.0287661
-0.0252021
-0.0206623
-0.0152297
-0.00872999
-0.00109348
0.00865964
0.0215169
0.0429566
0.0775902
0.140444
-0.0240003
-0.00958269
-0.00456501
-2.23712e-05
0.00466423
0.00792971
0.00902758
0.0078775
0.00470156
4.30266e-05
-0.00545792
-0.0111844
-0.0167032
-0.0216646
-0.0258748
-0.0291748
-0.0315189
-0.0328499
-0.0331976
-0.0325383
-0.0309297
-0.0283426
-0.024853
-0.0203943
-0.014947
-0.00806625
0.000949632
0.0144696
0.0366064
0.0773933
0.146802
0.249809
)
;

boundaryField
{
    movingWall
    {
        type            zeroGradient;
    }
    fixedWalls
    {
        type            zeroGradient;
    }
    frontAndBack
    {
        type            empty;
    }
}


// ************************************************************************* //
