/*--------------------------------*- C++ -*----------------------------------*\
| =========                 |                                                 |
| \\      /  F ield         | OpenFOAM: The Open Source CFD Toolbox           |
|  \\    /   O peration     | Version:  2406                                  |
|   \\  /    A nd           | Website:  www.openfoam.com                      |
|    \\/     M anipulation  |                                                 |
\*---------------------------------------------------------------------------*/
FoamFile
{
    version     2.0;
    format      ascii;
    arch        "LSB;label=32;scalar=64";
    class       volVectorField;
    location    "18.8";
    object      Uold;
}
// * * * * * * * * * * * * * * * * * * * * * * * * * * * * * * * * * * * * * //

dimensions      [0 1 -1 0 0 0 0];

internalField   nonuniform List<vector> 
900
(
(0.000386163 -0.000412555 0)
(0.00187383 -0.000691874 0)
(0.00370849 -0.000705995 0)
(0.00495284 -0.000599145 0)
(0.00572156 -0.000545432 0)
(0.00590058 -0.00056228 0)
(0.00560244 -0.000690701 0)
(0.00483296 -0.000902191 0)
(0.00342417 -0.0013232 0)
(0.000541008 -0.00218089 0)
(-0.00551651 -0.00257131 0)
(-0.0159712 -0.000497428 0)
(-0.0309933 0.00381715 0)
(-0.0491379 0.0075952 0)
(-0.0675295 0.00909206 0)
(-0.083484 0.0086567 0)
(-0.0955244 0.00706476 0)
(-0.10246 0.0047085 0)
(-0.103694 0.00184262 0)
(-0.0984813 -0.00137765 0)
(-0.0867569 -0.00468966 0)
(-0.068359 -0.00775529 0)
(-0.0446948 -0.00987271 0)
(-0.0177106 -0.0102147 0)
(0.00758465 -0.00760235 0)
(0.0255222 -0.00223345 0)
(0.029521 0.00349777 0)
(0.0215744 0.00543846 0)
(0.0105262 0.00430405 0)
(0.00169322 0.00202515 0)
(0.000708982 -0.00184291 0)
(0.00279612 -0.00265995 0)
(0.00501126 -0.00236983 0)
(0.00608941 -0.00141463 0)
(0.00589422 -0.000393521 0)
(0.00389803 0.00070175 0)
(-0.00048375 0.00178311 0)
(-0.00853694 0.00312029 0)
(-0.022465 0.00566478 0)
(-0.043613 0.0112747 0)
(-0.0706522 0.0193694 0)
(-0.0995901 0.0262965 0)
(-0.126125 0.0296339 0)
(-0.147837 0.0291631 0)
(-0.164257 0.025453 0)
(-0.175418 0.0195114 0)
(-0.181348 0.0120924 0)
(-0.181824 0.00358982 0)
(-0.176761 -0.00565431 0)
(-0.165743 -0.015491 0)
(-0.148625 -0.0252919 0)
(-0.125179 -0.0343661 0)
(-0.0959347 -0.0407446 0)
(-0.0623864 -0.0423436 0)
(-0.0277051 -0.0356588 0)
(0.00250078 -0.0198956 0)
(0.0209622 0.000662174 0)
(0.0217553 0.0133879 0)
(0.0129178 0.0157712 0)
(0.00239357 0.010194 0)
(0.000751649 -0.00389862 0)
(0.00225369 -0.00501343 0)
(0.00319666 -0.00399698 0)
(0.00235031 -0.00150045 0)
(-0.00103919 0.00161594 0)
(-0.0082652 0.00577888 0)
(-0.0213571 0.0116962 0)
(-0.0424484 0.0210624 0)
(-0.0718354 0.0337411 0)
(-0.105498 0.0458327 0)
(-0.137251 0.0529986 0)
(-0.163581 0.0545419 0)
(-0.18393 0.0516952 0)
(-0.198601 0.0453533 0)
(-0.208471 0.0363162 0)
(-0.21418 0.0254112 0)
(-0.216251 0.0132043 0)
(-0.214813 -0.00013018 0)
(-0.209921 -0.0143749 0)
(-0.20115 -0.0296606 0)
(-0.188007 -0.0452271 0)
(-0.169686 -0.0604949 0)
(-0.14533 -0.0724997 0)
(-0.114951 -0.0784746 0)
(-0.0787643 -0.0721933 0)
(-0.0410031 -0.0508512 0)
(-0.00696309 -0.015441 0)
(0.00842704 0.0131763 0)
(0.00729818 0.0236099 0)
(0.000948559 0.0170817 0)
(0.000500806 -0.00482272 0)
(0.000323083 -0.00509812 0)
(-0.00155841 -0.00243759 0)
(-0.00627681 0.00286549 0)
(-0.0156461 0.0102759 0)
(-0.0317227 0.0211054 0)
(-0.0564249 0.0360648 0)
(-0.0885746 0.0536661 0)
(-0.122886 0.0686872 0)
(-0.153069 0.076749 0)
(-0.176698 0.0776256 0)
(-0.194074 0.0731417 0)
(-0.205936 0.0647835 0)
(-0.213244 0.0538063 0)
(-0.217213 0.0411392 0)
(-0.218667 0.0273643 0)
(-0.218383 0.0127965 0)
(-0.216626 -0.00276409 0)
(-0.213693 -0.0193325 0)
(-0.209212 -0.0375662 0)
(-0.202749 -0.0568724 0)
(-0.19303 -0.0773437 0)
(-0.178388 -0.0956862 0)
(-0.156981 -0.10929 0)
(-0.12643 -0.109683 0)
(-0.0874366 -0.091752 0)
(-0.0420617 -0.0483441 0)
(-0.00587155 -0.000893452 0)
(0.00247111 0.0234696 0)
(-7.26719e-05 0.0185065 0)
(1.50334e-05 -0.00475714 0)
(-0.00262287 -0.00298655 0)
(-0.008396 0.00255082 0)
(-0.0183625 0.0125525 0)
(-0.0351298 0.0270051 0)
(-0.0597556 0.0465108 0)
(-0.0911543 0.068443 0)
(-0.123999 0.0874187 0)
(-0.152385 0.0981176 0)
(-0.173285 0.0994498 0)
(-0.187344 0.0937573 0)
(-0.195628 0.0835727 0)
(-0.199507 0.0707125 0)
(-0.20031 0.0564963 0)
(-0.199214 0.0416481 0)
(-0.197003 0.0264893 0)
(-0.194489 0.0111463 0)
(-0.192006 -0.00487017 0)
(-0.190235 -0.0217207 0)
(-0.189026 -0.0406235 0)
(-0.188553 -0.0612875 0)
(-0.18749 -0.0848857 0)
(-0.184246 -0.108476 0)
(-0.175615 -0.130556 0)
(-0.157418 -0.141772 0)
(-0.12621 -0.135251 0)
(-0.0801222 -0.0968719 0)
(-0.025709 -0.0313795 0)
(0.00273023 0.0178614 0)
(0.000196141 0.0194091 0)
(-0.000866317 -0.00217207 0)
(-0.00684582 0.00340414 0)
(-0.0173303 0.0133487 0)
(-0.0328177 0.0297123 0)
(-0.0555774 0.0517409 0)
(-0.0841716 0.0772141 0)
(-0.114893 0.100342 0)
(-0.14164 0.114916 0)
(-0.160744 0.117981 0)
(-0.171962 0.111804 0)
(-0.17732 0.100121 0)
(-0.178246 0.0854721 0)
(-0.176489 0.0696403 0)
(-0.173144 0.0536707 0)
(-0.169085 0.0380108 0)
(-0.164701 0.0227686 0)
(-0.160583 0.0079839 0)
(-0.156898 -0.00693715 0)
(-0.154649 -0.0221188 0)
(-0.153935 -0.0392136 0)
(-0.155927 -0.0582137 0)
(-0.159808 -0.0816678 0)
(-0.165053 -0.107462 0)
(-0.16835 -0.136272 0)
(-0.164857 -0.159143 0)
(-0.148897 -0.169416 0)
(-0.112975 -0.148556 0)
(-0.0578324 -0.0841856 0)
(0.000823177 -0.00210711 0)
(0.00208995 0.0213928 0)
(-0.00180705 0.00286886 0)
(-0.0110341 0.0134755 0)
(-0.0256564 0.0284133 0)
(-0.0450782 0.0507719 0)
(-0.0704627 0.0782576 0)
(-0.0982428 0.105741 0)
(-0.12405 0.125769 0)
(-0.142788 0.133179 0)
(-0.153365 0.128376 0)
(-0.157354 0.115983 0)
(-0.157329 0.100006 0)
(-0.154823 0.0827197 0)
(-0.151584 0.0656147 0)
(-0.14798 0.0490852 0)
(-0.144329 0.0332485 0)
(-0.140253 0.0179854 0)
(-0.135995 0.00344801 0)
(-0.131343 -0.0108055 0)
(-0.12749 -0.0244984 0)
(-0.124615 -0.039342 0)
(-0.124812 -0.0551482 0)
(-0.12801 -0.0757162 0)
(-0.13527 -0.0996524 0)
(-0.144337 -0.130663 0)
(-0.151289 -0.161098 0)
(-0.150074 -0.187201 0)
(-0.130162 -0.187858 0)
(-0.0890749 -0.145818 0)
(-0.0177197 -0.0415719 0)
(0.00959282 0.0221956 0)
(-0.00272613 0.0107002 0)
(-0.0147124 0.0274196 0)
(-0.0321791 0.0474082 0)
(-0.0532088 0.074654 0)
(-0.0781175 0.104925 0)
(-0.102268 0.130846 0)
(-0.121843 0.144899 0)
(-0.133384 0.144319 0)
(-0.137934 0.132648 0)
(-0.138049 0.115895 0)
(-0.136449 0.0977063 0)
(-0.134558 0.0798214 0)
(-0.133464 0.0628835 0)
(-0.132509 0.0464509 0)
(-0.131314 0.0303482 0)
(-0.128818 0.0143983 0)
(-0.125108 -0.000866021 0)
(-0.119716 -0.0155613 0)
(-0.113981 -0.0287671 0)
(-0.108032 -0.0420826 0)
(-0.104482 -0.0546919 0)
(-0.103788 -0.071397 0)
(-0.108391 -0.0909691 0)
(-0.117415 -0.120296 0)
(-0.128733 -0.153319 0)
(-0.136605 -0.190257 0)
(-0.131469 -0.210114 0)
(-0.105537 -0.195999 0)
(-0.0476021 -0.10185 0)
(0.0140681 0.0137654 0)
(-0.00317306 0.0201824 0)
(-0.0166149 0.0429582 0)
(-0.0351392 0.0667461 0)
(-0.0556692 0.0966755 0)
(-0.0780987 0.127159 0)
(-0.0976562 0.149368 0)
(-0.111666 0.156786 0)
(-0.118218 0.14925 0)
(-0.11991 0.133008 0)
(-0.119592 0.11446 0)
(-0.119828 0.0964689 0)
(-0.121349 0.079674 0)
(-0.124171 0.06353 0)
(-0.126666 0.0468661 0)
(-0.128049 0.0295627 0)
(-0.126999 0.0116926 0)
(-0.123741 -0.00558754 0)
(-0.117697 -0.02206 0)
(-0.110309 -0.0360423 0)
(-0.101496 -0.0490347 0)
(-0.093993 -0.0591935 0)
(-0.088367 -0.0720444 0)
(-0.0880302 -0.085809 0)
(-0.0933174 -0.110464 0)
(-0.104526 -0.141713 0)
(-0.116724 -0.184276 0)
(-0.121896 -0.219163 0)
(-0.109115 -0.229164 0)
(-0.0694359 -0.162917 0)
(-0.00141018 -0.010344 0)
(-0.00319962 0.0305101 0)
(-0.0168415 0.0595821 0)
(-0.0349022 0.0864439 0)
(-0.0535653 0.117732 0)
(-0.0726814 0.146888 0)
(-0.0878742 0.164474 0)
(-0.0976887 0.165526 0)
(-0.101542 0.152702 0)
(-0.102869 0.134121 0)
(-0.104363 0.115899 0)
(-0.10797 0.0995275 0)
(-0.113406 0.0841972 0)
(-0.119654 0.0682485 0)
(-0.124644 0.0503122 0)
(-0.12765 0.0307372 0)
(-0.127466 0.0100103 0)
(-0.124583 -0.0100782 0)
(-0.118338 -0.0291596 0)
(-0.110239 -0.0448213 0)
(-0.0998331 -0.0586591 0)
(-0.0897797 -0.0676015 0)
(-0.0801995 -0.0776787 0)
(-0.0750306 -0.085772 0)
(-0.0748257 -0.104069 0)
(-0.0827943 -0.129678 0)
(-0.0952099 -0.172856 0)
(-0.106489 -0.21745 0)
(-0.104712 -0.248396 0)
(-0.0778946 -0.209693 0)
(-0.0235969 -0.0563709 0)
(-0.00266868 0.0401052 0)
(-0.0152407 0.0746947 0)
(-0.0315907 0.103299 0)
(-0.0475381 0.134402 0)
(-0.0630813 0.161297 0)
(-0.0746063 0.174297 0)
(-0.0817735 0.170391 0)
(-0.0848143 0.154407 0)
(-0.0874253 0.135756 0)
(-0.0916128 0.119468 0)
(-0.098508 0.105419 0)
(-0.10677 0.0912437 0)
(-0.114935 0.0747121 0)
(-0.121001 0.0547491 0)
(-0.124647 0.0323969 0)
(-0.124813 0.0084876 0)
(-0.1223 -0.0146207 0)
(-0.116267 -0.0366042 0)
(-0.108377 -0.0543589 0)
(-0.0976288 -0.0697833 0)
(-0.0867617 -0.0785538 0)
(-0.074964 -0.0871564 0)
(-0.0667226 -0.0908752 0)
(-0.0614544 -0.103058 0)
(-0.0650212 -0.121064 0)
(-0.074328 -0.160704 0)
(-0.0874896 -0.209406 0)
(-0.0917495 -0.257638 0)
(-0.0743827 -0.244476 0)
(-0.0310053 -0.111884 0)
(-0.00183258 0.0484657 0)
(-0.0124125 0.0886847 0)
(-0.0262832 0.118731 0)
(-0.0391784 0.149317 0)
(-0.0513266 0.173937 0)
(-0.0599987 0.183265 0)
(-0.065617 0.175846 0)
(-0.0688844 0.158503 0)
(-0.0730996 0.141009 0)
(-0.0794318 0.127051 0)
(-0.0881787 0.114753 0)
(-0.0974637 0.100652 0)
(-0.105947 0.0825667 0)
(-0.11198 0.0600097 0)
(-0.115655 0.0346717 0)
(-0.115934 0.00756729 0)
(-0.113943 -0.0184502 0)
(-0.108541 -0.0432877 0)
(-0.101709 -0.0632131 0)
(-0.0916799 -0.0805921 0)
(-0.0816011 -0.0899455 0)
(-0.069277 -0.098119 0)
(-0.060135 -0.0989163 0)
(-0.0515436 -0.106193 0)
(-0.0515887 -0.11648 0)
(-0.0568679 -0.150648 0)
(-0.0698712 -0.199752 0)
(-0.0767174 -0.261229 0)
(-0.0661428 -0.271132 0)
(-0.0294159 -0.162072 0)
(-0.000709144 0.0542682 0)
(-0.00860508 0.0991427 0)
(-0.0194348 0.129926 0)
(-0.029146 0.15936 0)
(-0.0380961 0.181956 0)
(-0.0444806 0.188515 0)
(-0.0492552 0.17922 0)
(-0.0530504 0.16183 0)
(-0.0584628 0.146191 0)
(-0.0657054 0.134404 0)
(-0.0747263 0.12334 0)
(-0.0835526 0.108859 0)
(-0.0913648 0.089189 0)
(-0.0967324 0.0643027 0)
(-0.100144 0.0364078 0)
(-0.100395 0.00657891 0)
(-0.0990361 -0.0218502 0)
(-0.0944651 -0.0491166 0)
(-0.0892704 -0.0709494 0)
(-0.0806284 -0.0902619 0)
(-0.0725187 -0.100605 0)
(-0.0609578 -0.109072 0)
(-0.0527282 -0.108206 0)
(-0.042684 -0.112092 0)
(-0.0407629 -0.115363 0)
(-0.0420672 -0.142812 0)
(-0.0541717 -0.1892 0)
(-0.0621063 -0.260991 0)
(-0.0574237 -0.291983 0)
(-0.027032 -0.207576 0)
(0.000405801 0.0578681 0)
(-0.00439748 0.107543 0)
(-0.0119558 0.139309 0)
(-0.0184691 0.168049 0)
(-0.0243852 0.189282 0)
(-0.0287936 0.194547 0)
(-0.0328071 0.184561 0)
(-0.0368326 0.167863 0)
(-0.0424538 0.15377 0)
(-0.0492741 0.143386 0)
(-0.0571988 0.132717 0)
(-0.0645222 0.117335 0)
(-0.0710065 0.0959254 0)
(-0.0753165 0.0687834 0)
(-0.0783557 0.0385755 0)
(-0.0785469 0.00634756 0)
(-0.0779793 -0.0240731 0)
(-0.0743633 -0.0533024 0)
(-0.0712364 -0.0766756 0)
(-0.0644178 -0.0977121 0)
(-0.0591142 -0.10919 0)
(-0.0492757 -0.118372 0)
(-0.0433596 -0.116719 0)
(-0.0335903 -0.118675 0)
(-0.0317018 -0.116621 0)
(-0.0300856 -0.137727 0)
(-0.0412779 -0.179268 0)
(-0.0490637 -0.257768 0)
(-0.0492427 -0.30628 0)
(-0.0242263 -0.246755 0)
(0.00150552 0.0582102 0)
(-4.49942e-05 0.111427 0)
(-0.00414871 0.143907 0)
(-0.00754592 0.171657 0)
(-0.0105366 0.192138 0)
(-0.0130002 0.196842 0)
(-0.0161816 0.187205 0)
(-0.0199268 0.171379 0)
(-0.0249733 0.158512 0)
(-0.03031 0.148961 0)
(-0.0362316 0.138487 0)
(-0.0413456 0.122465 0)
(-0.0461535 0.0999837 0)
(-0.0491913 0.071425 0)
(-0.051871 0.0397567 0)
(-0.0519722 0.00590921 0)
(-0.0523408 -0.0257887 0)
(-0.0496861 -0.0562404 0)
(-0.0488292 -0.0805374 0)
(-0.0439828 -0.102841 0)
(-0.0419052 -0.115314 0)
(-0.0343287 -0.125361 0)
(-0.0315888 -0.123398 0)
(-0.0232013 -0.124346 0)
(-0.0229673 -0.118337 0)
(-0.0197874 -0.133865 0)
(-0.030858 -0.169662 0)
(-0.0382703 -0.253031 0)
(-0.0427533 -0.316614 0)
(-0.0218477 -0.281336 0)
(0.00227663 0.0565444 0)
(0.00399218 0.113276 0)
(0.00328147 0.146916 0)
(0.0029996 0.174499 0)
(0.0030049 0.194793 0)
(0.00268538 0.20032 0)
(0.000842416 0.191668 0)
(-0.00203334 0.176808 0)
(-0.00576012 0.164306 0)
(-0.00895591 0.15471 0)
(-0.0123189 0.143942 0)
(-0.0148184 0.127297 0)
(-0.0177218 0.104063 0)
(-0.0192632 0.0744745 0)
(-0.0215572 0.0417403 0)
(-0.0215271 0.00666538 0)
(-0.0230877 -0.0259086 0)
(-0.0215477 -0.0571153 0)
(-0.0231951 -0.08187 0)
(-0.0204289 -0.105051 0)
(-0.0218093 -0.118296 0)
(-0.0168157 -0.129216 0)
(-0.0178366 -0.127248 0)
(-0.0115716 -0.127917 0)
(-0.0141931 -0.119364 0)
(-0.0105968 -0.130564 0)
(-0.0223169 -0.16005 0)
(-0.0290836 -0.246154 0)
(-0.037649 -0.322284 0)
(-0.0197839 -0.31171 0)
(0.00280013 0.0519046 0)
(0.00746845 0.110247 0)
(0.0101255 0.144848 0)
(0.0127662 0.171741 0)
(0.0156863 0.192326 0)
(0.0177512 0.198855 0)
(0.0175185 0.191874 0)
(0.0159617 0.177833 0)
(0.0137091 0.165335 0)
(0.0128524 0.155272 0)
(0.0121537 0.144284 0)
(0.0125534 0.127589 0)
(0.01176 0.104488 0)
(0.0120365 0.0749282 0)
(0.0102223 0.0422141 0)
(0.0104984 0.0070288 0)
(0.00761016 -0.0254588 0)
(0.00795446 -0.0566409 0)
(0.00374957 -0.0812377 0)
(0.00453521 -0.104791 0)
(-0.000229608 -0.118415 0)
(0.00219942 -0.129989 0)
(-0.00279715 -0.128038 0)
(0.00103739 -0.128751 0)
(-0.00520283 -0.118569 0)
(-0.00211512 -0.126671 0)
(-0.0154697 -0.15027 0)
(-0.0215799 -0.23831 0)
(-0.0341077 -0.325254 0)
(-0.0179998 -0.339206 0)
(0.00275821 0.0464708 0)
(0.0100292 0.106 0)
(0.0157216 0.141804 0)
(0.0212461 0.169015 0)
(0.0272197 0.189925 0)
(0.0320686 0.198612 0)
(0.0341553 0.193685 0)
(0.034382 0.180764 0)
(0.0337845 0.167646 0)
(0.0350942 0.156309 0)
(0.0368448 0.144524 0)
(0.0401102 0.127683 0)
(0.0414113 0.104995 0)
(0.043683 0.0759325 0)
(0.0423562 0.0438087 0)
(0.0429495 0.00908422 0)
(0.0386612 -0.0227716 0)
(0.0377695 -0.0536 0)
(0.0310029 -0.0778116 0)
(0.0299358 -0.101532 0)
(0.021888 -0.115266 0)
(0.0218343 -0.127267 0)
(0.0127672 -0.125302 0)
(0.0140971 -0.126302 0)
(0.00385093 -0.115236 0)
(0.00602994 -0.121356 0)
(-0.00965644 -0.139373 0)
(-0.0149428 -0.228444 0)
(-0.031713 -0.324908 0)
(-0.016296 -0.364313 0)
(0.00250172 0.0390639 0)
(0.0115116 0.0969959 0)
(0.0200029 0.13359 0)
(0.0279876 0.159967 0)
(0.0366428 0.181386 0)
(0.0444263 0.191671 0)
(0.0490137 0.189514 0)
(0.0514271 0.17797 0)
(0.0522456 0.16456 0)
(0.0552341 0.151869 0)
(0.0586359 0.139253 0)
(0.0643775 0.122628 0)
(0.0674944 0.101043 0)
(0.0718481 0.0735353 0)
(0.0710886 0.0432143 0)
(0.0721747 0.0101944 0)
(0.0667315 -0.0199228 0)
(0.0649952 -0.0496158 0)
(0.0561641 -0.0729459 0)
(0.0537834 -0.0963753 0)
(0.0428801 -0.109728 0)
(0.040713 -0.121711 0)
(0.0277628 -0.119546 0)
(0.0268068 -0.12088 0)
(0.0124433 -0.109448 0)
(0.013589 -0.11456 0)
(-0.00508016 -0.127866 0)
(-0.00931055 -0.217668 0)
(-0.0305758 -0.322659 0)
(-0.014514 -0.387858 0)
(0.00173914 0.032726 0)
(0.0117864 0.0885739 0)
(0.0222832 0.125604 0)
(0.0325054 0.15251 0)
(0.0438133 0.173693 0)
(0.0547842 0.186368 0)
(0.0626891 0.186979 0)
(0.0679642 0.177661 0)
(0.0705925 0.164185 0)
(0.0749227 0.149923 0)
(0.0790891 0.135777 0)
(0.0863852 0.11873 0)
(0.0905217 0.0980405 0)
(0.0965078 0.0721608 0)
(0.0961497 0.0441124 0)
(0.097869 0.0131694 0)
(0.0916834 -0.0148996 0)
(0.0897502 -0.0434352 0)
(0.0794459 -0.0658346 0)
(0.0761914 -0.0887732 0)
(0.062629 -0.101324 0)
(0.0585246 -0.112895 0)
(0.0417915 -0.110331 0)
(0.0388284 -0.112027 0)
(0.0204258 -0.100568 0)
(0.0208178 -0.105377 0)
(-0.00115475 -0.114509 0)
(-0.00386155 -0.204743 0)
(-0.0303142 -0.317953 0)
(-0.0123973 -0.410137 0)
(0.00128503 0.0254274 0)
(0.011071 0.0760322 0)
(0.0230487 0.1128 0)
(0.0347093 0.13803 0)
(0.0475475 0.158992 0)
(0.0612895 0.172389 0)
(0.0722157 0.176278 0)
(0.0809276 0.169695 0)
(0.0856452 0.157588 0)
(0.0915157 0.142907 0)
(0.0957735 0.127828 0)
(0.103809 0.110648 0)
(0.108036 0.0910892 0)
(0.115124 0.067304 0)
(0.115005 0.0421418 0)
(0.117708 0.0139856 0)
(0.111414 -0.0114295 0)
(0.110073 -0.0381478 0)
(0.0989037 -0.0588905 0)
(0.095204 -0.0804315 0)
(0.07929 -0.0913952 0)
(0.073663 -0.10198 0)
(0.0535712 -0.0988972 0)
(0.0491758 -0.100997 0)
(0.0270475 -0.0899676 0)
(0.0271372 -0.0951058 0)
(0.00159261 -0.100983 0)
(0.000960255 -0.191102 0)
(-0.0312546 -0.31198 0)
(-0.00980031 -0.431616 0)
(0.000380377 0.0207178 0)
(0.00935762 0.0670031 0)
(0.0213196 0.102331 0)
(0.0340372 0.128275 0)
(0.0482691 0.147452 0)
(0.0644151 0.161879 0)
(0.0788592 0.167737 0)
(0.0916986 0.164338 0)
(0.0996502 0.154089 0)
(0.107983 0.139765 0)
(0.112761 0.124036 0)
(0.121259 0.106286 0)
(0.125027 0.0873486 0)
(0.132547 0.0648992 0)
(0.132293 0.0422332 0)
(0.135827 0.0163814 0)
(0.129496 -0.00647451 0)
(0.128741 -0.0314032 0)
(0.116593 -0.0500485 0)
(0.112222 -0.0697812 0)
(0.0938165 -0.0786749 0)
(0.0867325 -0.0880923 0)
(0.0634716 -0.0843683 0)
(0.058108 -0.0868958 0)
(0.0325688 -0.0763875 0)
(0.0330408 -0.0821458 0)
(0.00398364 -0.085213 0)
(0.00639049 -0.17493 0)
(-0.0327418 -0.304128 0)
(-0.00628847 -0.452377 0)
(0.000547199 0.015473 0)
(0.00761604 0.0545216 0)
(0.0189834 0.0879779 0)
(0.0316331 0.110444 0)
(0.0450917 0.128472 0)
(0.0622319 0.141155 0)
(0.0783005 0.148914 0)
(0.0950373 0.148321 0)
(0.106361 0.141346 0)
(0.118435 0.129193 0)
(0.124779 0.114695 0)
(0.134763 0.0977152 0)
(0.138382 0.0800613 0)
(0.146529 0.0593236 0)
(0.145935 0.0392263 0)
(0.150188 0.0160125 0)
(0.143449 -0.00389145 0)
(0.142963 -0.0261204 0)
(0.1294 -0.0417982 0)
(0.124253 -0.0587232 0)
(0.103484 -0.0651293 0)
(0.0955851 -0.0730867 0)
(0.0699166 -0.0690751 0)
(0.0645237 -0.0721837 0)
(0.0362473 -0.0629075 0)
(0.0377612 -0.0696896 0)
(0.00526406 -0.0710566 0)
(0.0114143 -0.15874 0)
(-0.035416 -0.295728 0)
(-0.0017504 -0.472473 0)
(-0.000819722 0.0129277 0)
(0.00434866 0.0490292 0)
(0.0133469 0.0787453 0)
(0.0257324 0.1027 0)
(0.0397387 0.117355 0)
(0.0573182 0.129017 0)
(0.0748323 0.135503 0)
(0.0945541 0.136384 0)
(0.109087 0.13136 0)
(0.125141 0.12127 0)
(0.133986 0.108461 0)
(0.146164 0.0924489 0)
(0.150486 0.0763946 0)
(0.159285 0.0569992 0)
(0.158462 0.0394491 0)
(0.162772 0.0184225 0)
(0.155235 0.00171767 0)
(0.154222 -0.0179275 0)
(0.139006 -0.0302004 0)
(0.132924 -0.0446533 0)
(0.110206 -0.0485503 0)
(0.102026 -0.0557033 0)
(0.0744902 -0.0512454 0)
(0.0697077 -0.055076 0)
(0.0389531 -0.046526 0)
(0.042392 -0.0542454 0)
(0.0066926 -0.0541335 0)
(0.0184655 -0.138982 0)
(-0.0375091 -0.285748 0)
(0.00471999 -0.491575 0)
(0.000855654 0.011697 0)
(0.00353504 0.0395585 0)
(0.00953175 0.066413 0)
(0.0199695 0.0830092 0)
(0.0304189 0.0966601 0)
(0.0474377 0.10504 0)
(0.0634583 0.111532 0)
(0.0848593 0.113152 0)
(0.100953 0.110795 0)
(0.120509 0.103445 0)
(0.131849 0.0938857 0)
(0.146949 0.0803723 0)
(0.152517 0.0672881 0)
(0.16288 0.0504911 0)
(0.16193 0.0361848 0)
(0.166906 0.0183295 0)
(0.1583 0.00518697 0)
(0.157489 -0.0109414 0)
(0.140685 -0.0198429 0)
(0.135066 -0.0312643 0)
(0.111084 -0.0333121 0)
(0.104317 -0.0392539 0)
(0.0758142 -0.035287 0)
(0.0729625 -0.0394698 0)
(0.0406493 -0.0330413 0)
(0.0464458 -0.0419156 0)
(0.00808029 -0.0426213 0)
(0.0257776 -0.121368 0)
(-0.0395173 -0.27625 0)
(0.0133643 -0.508553 0)
(-0.00440413 0.00860042 0)
(-0.00478769 0.0412821 0)
(-0.000167323 0.0626511 0)
(0.0094432 0.082923 0)
(0.0221228 0.0905853 0)
(0.0384661 0.0967113 0)
(0.0544664 0.0989442 0)
(0.075795 0.099116 0)
(0.0923255 0.0966208 0)
(0.113313 0.090239 0)
(0.126093 0.0829598 0)
(0.142928 0.0714281 0)
(0.149679 0.0614406 0)
(0.161067 0.0470953 0)
(0.160558 0.0364708 0)
(0.16592 0.0214279 0)
(0.157219 0.0123292 0)
(0.156681 -0.00112918 0)
(0.139671 -0.00628764 0)
(0.134939 -0.0161768 0)
(0.110909 -0.0157852 0)
(0.105938 -0.0220609 0)
(0.0767642 -0.0169867 0)
(0.076544 -0.0223834 0)
(0.0419894 -0.0156666 0)
(0.0522951 -0.0256983 0)
(0.0103077 -0.0268173 0)
(0.0390399 -0.0980608 0)
(-0.0354509 -0.264552 0)
(0.0266938 -0.521599 0)
(0.00438043 0.0214255 0)
(-4.59248e-05 0.0340914 0)
(-0.00825135 0.052229 0)
(-0.00112692 0.0588346 0)
(0.00485559 0.0671794 0)
(0.022385 0.0710371 0)
(0.0363822 0.0738767 0)
(0.0588236 0.0739381 0)
(0.0752092 0.073257 0)
(0.0975855 0.0684953 0)
(0.111329 0.0645092 0)
(0.129987 0.0556608 0)
(0.137545 0.0495566 0)
(0.150889 0.0384819 0)
(0.150296 0.0318626 0)
(0.157905 0.0204731 0)
(0.14827 0.0150801 0)
(0.15085 0.00524827 0)
(0.132519 0.00272677 0)
(0.132471 -0.00419643 0)
(0.107138 -0.00319039 0)
(0.108616 -0.00743833 0)
(0.0781064 -0.00419699 0)
(0.0856541 -0.00822364 0)
(0.0494813 -0.00589341 0)
(0.0675934 -0.0160238 0)
(0.0216706 -0.024273 0)
(0.0598589 -0.0854316 0)
(-0.0221469 -0.255827 0)
(0.0458388 -0.523977 0)
(-0.0154438 0.00214003 0)
(-0.0158791 0.0558357 0)
(-0.00774778 0.0635447 0)
(-0.00866366 0.0723187 0)
(0.00279144 0.0681829 0)
(0.0170336 0.0667105 0)
(0.0313643 0.0638381 0)
(0.0511688 0.0608487 0)
(0.0670344 0.0591587 0)
(0.0878122 0.0540688 0)
(0.101052 0.051825 0)
(0.119713 0.0448313 0)
(0.126687 0.0418348 0)
(0.141541 0.0337543 0)
(0.140231 0.0308643 0)
(0.150913 0.0226391 0)
(0.140744 0.0210364 0)
(0.148361 0.0134738 0)
(0.129993 0.0141893 0)
(0.137375 0.00753494 0)
(0.112074 0.0109339 0)
(0.123455 0.00454365 0)
(0.0912902 0.0100889 0)
(0.111484 0.00276072 0)
(0.0690616 0.00840611 0)
(0.103986 -0.00279937 0)
(0.0455966 -0.0105336 0)
(0.106724 -0.0622417 0)
(0.0254585 -0.233129 0)
(0.0824058 -0.503946 0)
(-0.0762663 0.0589944 0)
(-0.0667562 0.0233909 0)
(-0.0888503 0.0452614 0)
(-0.0582305 0.044306 0)
(-0.0483931 0.0402359 0)
(-0.0173094 0.0397316 0)
(-0.000281825 0.0389626 0)
(0.0302149 0.0363324 0)
(0.0467823 0.0364283 0)
(0.0775612 0.0329054 0)
(0.0891859 0.0328356 0)
(0.119864 0.0285399 0)
(0.123673 0.0282087 0)
(0.153898 0.0233954 0)
(0.148214 0.0231536 0)
(0.178695 0.0182826 0)
(0.162646 0.0184849 0)
(0.195518 0.0141179 0)
(0.168659 0.0148041 0)
(0.207391 0.0115403 0)
(0.169106 0.0121187 0)
(0.217893 0.0106236 0)
(0.166734 0.009558 0)
(0.229609 0.0100794 0)
(0.163543 0.00393094 0)
(0.243232 0.000580955 0)
(0.161487 -0.0253622 0)
(0.252439 -0.0787639 0)
(0.139864 -0.225157 0)
(0.140453 -0.43782 0)
(0.0809512 0.133096 0)
(0.122388 0.073432 0)
(0.168944 0.0550164 0)
(0.224506 0.036451 0)
(0.247468 0.0290094 0)
(0.293107 0.0209667 0)
(0.306381 0.0181084 0)
(0.35014 0.0145964 0)
(0.355899 0.0134551 0)
(0.400369 0.0116393 0)
(0.399173 0.0111159 0)
(0.444974 0.00990564 0)
(0.436309 0.00946869 0)
(0.483549 0.00852169 0)
(0.466766 0.00793978 0)
(0.515777 0.00722461 0)
(0.490571 0.00645315 0)
(0.542132 0.00600201 0)
(0.508661 0.00515468 0)
(0.563869 0.00484766 0)
(0.522606 0.00425399 0)
(0.582449 0.00354086 0)
(0.533781 0.00385237 0)
(0.598428 0.00123001 0)
(0.541203 0.00325855 0)
(0.607637 -0.00568112 0)
(0.52976 -0.00423308 0)
(0.575646 -0.0377828 0)
(0.400296 -0.0635785 0)
(0.295652 -0.199478 0)
)
;

boundaryField
{
    movingWall
    {
        type            fixedValue;
        value           uniform (1 0 0);
    }
    fixedWalls
    {
        type            noSlip;
    }
    frontAndBack
    {
        type            empty;
    }
}


// ************************************************************************* //
