/*--------------------------------*- C++ -*----------------------------------*\
| =========                 |                                                 |
| \\      /  F ield         | OpenFOAM: The Open Source CFD Toolbox           |
|  \\    /   O peration     | Version:  2406                                  |
|   \\  /    A nd           | Website:  www.openfoam.com                      |
|    \\/     M anipulation  |                                                 |
\*---------------------------------------------------------------------------*/
FoamFile
{
    version     2.0;
    format      ascii;
    arch        "LSB;label=32;scalar=64";
    class       surfaceScalarField;
    location    "43.75";
    object      phi_0;
}
// * * * * * * * * * * * * * * * * * * * * * * * * * * * * * * * * * * * * * //

dimensions      [0 3 -1 0 0 0 0];

oriented        oriented;

internalField   nonuniform List<scalar> 
28560
(
-4.33193e-09
4.33278e-09
4.64224e-08
-5.07543e-08
1.69104e-07
-1.22681e-07
3.51923e-07
-1.8282e-07
5.77057e-07
-2.25134e-07
8.25451e-07
-2.48394e-07
1.07935e-06
-2.53901e-07
1.32365e-06
-2.44296e-07
1.54666e-06
-2.23014e-07
1.7405e-06
-1.93836e-07
1.90103e-06
-1.6053e-07
2.02755e-06
-1.26518e-07
2.12217e-06
-9.46223e-08
2.18907e-06
-6.6902e-08
2.23365e-06
-4.45764e-08
2.2617e-06
-2.80564e-08
2.27878e-06
-1.70762e-08
2.28921e-06
-1.04327e-08
2.29607e-06
-6.85819e-09
2.30079e-06
-4.72359e-09
2.30299e-06
-2.19722e-09
2.30081e-06
2.18273e-09
2.29134e-06
9.46808e-09
2.2703e-06
2.1044e-08
2.23287e-06
3.74288e-08
2.17393e-06
5.89402e-08
2.08823e-06
8.56985e-08
1.9705e-06
1.17726e-07
1.81547e-06
1.55036e-07
1.61778e-06
1.97683e-07
1.37201e-06
2.45773e-07
1.07257e-06
2.99445e-07
7.13749e-07
3.58817e-07
2.8981e-07
4.23939e-07
-2.04935e-07
4.94745e-07
-7.75944e-07
5.71008e-07
-1.42826e-06
6.52321e-07
-2.16633e-06
7.3807e-07
-2.99377e-06
8.27432e-07
-3.91313e-06
9.19365e-07
-4.92575e-06
1.01262e-06
-6.03148e-06
1.10573e-06
-7.22856e-06
1.19708e-06
-8.51341e-06
1.28486e-06
-9.88058e-06
1.36716e-06
-1.13226e-05
1.44201e-06
-1.28299e-05
1.50735e-06
-1.43911e-05
1.56118e-06
-1.59926e-05
1.60151e-06
-1.76191e-05
1.62648e-06
-1.92534e-05
1.63434e-06
-2.0877e-05
1.62351e-06
-2.24696e-05
1.59262e-06
-2.40101e-05
1.54052e-06
-2.54764e-05
1.46631e-06
-2.68458e-05
1.36937e-06
-2.80951e-05
1.24938e-06
-2.92015e-05
1.10635e-06
-3.01422e-05
9.40688e-07
-3.08953e-05
7.53169e-07
-3.14411e-05
5.45789e-07
-3.17602e-05
3.19082e-07
-3.18314e-05
7.11815e-08
-3.16438e-05
-1.87563e-07
-3.11866e-05
-4.57214e-07
-3.04513e-05
-7.35344e-07
-2.94342e-05
-1.01704e-06
-2.81368e-05
-1.29749e-06
-2.65653e-05
-1.57149e-06
-2.47318e-05
-1.83349e-06
-2.26541e-05
-2.07772e-06
-2.03558e-05
-2.29829e-06
-1.78663e-05
-2.48946e-06
-1.52205e-05
-2.64578e-06
-1.24581e-05
-2.76242e-06
-9.62276e-06
-2.83534e-06
-6.76118e-06
-2.86158e-06
-3.92173e-06
-2.83945e-06
-1.15301e-06
-2.76871e-06
1.49769e-06
-2.6507e-06
3.98601e-06
-2.48832e-06
6.27205e-06
-2.28603e-06
8.32171e-06
-2.04967e-06
1.01079e-05
-1.78622e-06
1.16115e-05
-1.50353e-06
1.28214e-05
-1.20994e-06
1.37353e-05
-9.13885e-07
1.43588e-05
-6.23531e-07
1.47053e-05
-3.46437e-07
1.47959e-05
-9.06663e-08
1.46517e-05
1.44262e-07
1.43028e-05
3.48867e-07
1.37826e-05
5.2016e-07
1.31232e-05
6.5941e-07
1.23563e-05
7.66899e-07
1.15128e-05
8.43505e-07
1.06213e-05
8.91502e-07
9.70743e-06
9.13886e-07
8.79329e-06
9.14136e-07
7.89733e-06
8.95968e-07
7.03421e-06
8.6312e-07
6.21502e-06
8.19186e-07
5.44754e-06
7.6748e-07
4.73659e-06
7.10955e-07
4.08443e-06
6.52155e-07
3.49123e-06
5.93206e-07
2.9554e-06
5.35821e-07
2.47408e-06
4.81325e-07
2.04342e-06
4.30657e-07
1.65907e-06
3.84349e-07
1.3166e-06
3.42475e-07
1.01205e-06
3.04553e-07
7.42604e-07
2.69442e-07
5.07333e-07
2.35271e-07
3.07862e-07
1.99471e-07
1.48735e-07
1.59126e-07
3.68752e-08
1.1186e-07
-2.09312e-08
5.78065e-08
-2.49253e-08
3.99421e-09
-2.49253e-08
4.8129e-08
-4.37962e-08
2.37636e-07
-2.40262e-07
5.78768e-07
-4.63813e-07
1.04728e-06
-6.51331e-07
1.60645e-06
-7.84306e-07
2.21569e-06
-8.57636e-07
2.83584e-06
-8.74047e-07
3.43257e-06
-8.41029e-07
3.97854e-06
-7.6898e-07
4.45441e-06
-6.69711e-07
4.84907e-06
-5.55191e-07
5.15901e-06
-4.36451e-07
5.3871e-06
-3.22718e-07
5.54104e-06
-2.20835e-07
5.63143e-06
-1.34967e-07
5.66996e-06
-6.65877e-08
5.66765e-06
-1.47664e-08
5.63347e-06
2.37417e-08
5.57314e-06
5.34767e-08
5.48853e-06
7.98889e-08
5.37758e-06
1.08752e-07
5.23435e-06
1.45411e-07
5.04944e-06
1.9438e-07
4.81128e-06
2.59197e-07
4.50653e-06
3.42188e-07
4.1208e-06
4.44667e-07
3.63927e-06
5.67227e-07
3.04696e-06
7.10037e-07
2.32889e-06
8.73102e-07
1.47016e-06
1.05641e-06
4.55979e-07
1.25996e-06
-7.28228e-07
1.48365e-06
-2.09657e-06
1.72716e-06
-3.66238e-06
1.98975e-06
-5.43774e-06
2.27011e-06
-7.433e-06
2.56627e-06
-9.65619e-06
2.8755e-06
-1.21124e-05
3.19429e-06
-1.48033e-05
3.51835e-06
-1.77266e-05
3.84266e-06
-2.08755e-05
4.16154e-06
-2.42386e-05
4.46878e-06
-2.77993e-05
4.75775e-06
-3.1536e-05
5.02159e-06
-3.54222e-05
5.2534e-06
-3.94266e-05
5.44638e-06
-4.35133e-05
5.59408e-06
-4.76427e-05
5.69055e-06
-5.17716e-05
5.73046e-06
-5.58544e-05
5.70926e-06
-5.98434e-05
5.62328e-06
-6.36896e-05
5.46974e-06
-6.73438e-05
5.24683e-06
-7.0757e-05
4.95371e-06
-7.38812e-05
4.59048e-06
-7.667e-05
4.1582e-06
-7.90795e-05
3.65885e-06
-8.10684e-05
3.0953e-06
-8.25992e-05
2.47141e-06
-8.3638e-05
1.79198e-06
-8.41549e-05
1.06268e-06
-8.41272e-05
2.91416e-07
-8.35369e-05
-5.19101e-07
-8.2368e-05
-1.35643e-06
-8.06153e-05
-2.20999e-06
-7.828e-05
-3.07066e-06
-7.53701e-05
-3.92686e-06
-7.19017e-05
-4.76594e-06
-6.78986e-05
-5.57452e-06
-6.33935e-05
-6.33868e-06
-5.8427e-05
-7.04414e-06
-5.30487e-05
-7.67659e-06
-4.73161e-05
-8.22211e-06
-4.12942e-05
-8.66763e-06
-3.50553e-05
-9.0014e-06
-2.86771e-05
-9.21355e-06
-2.22421e-05
-9.29659e-06
-1.58356e-05
-9.24587e-06
-9.5443e-06
-9.06005e-06
-3.45367e-06
-8.74133e-06
2.35367e-06
-8.29566e-06
7.80036e-06
-7.73272e-06
1.28164e-05
-7.06569e-06
1.73411e-05
-6.31095e-06
2.13251e-05
-5.48749e-06
2.47313e-05
-4.61623e-06
2.75367e-05
-3.71922e-06
2.97319e-05
-2.81875e-06
3.13221e-05
-1.93662e-06
3.23243e-05
-1.09292e-06
3.27725e-05
-3.03859e-07
3.27094e-05
4.11969e-07
3.21856e-05
1.04392e-06
3.12597e-05
1.58529e-06
2.99955e-05
2.03114e-06
2.84583e-05
2.3807e-06
2.67131e-05
2.63666e-06
2.48223e-05
2.80467e-06
2.28437e-05
2.89274e-06
2.08291e-05
2.91059e-06
1.88232e-05
2.869e-06
1.68633e-05
2.77913e-06
1.49788e-05
2.65198e-06
1.31918e-05
2.49795e-06
1.15175e-05
2.32647e-06
9.96484e-06
2.14585e-06
8.53757e-06
1.96308e-06
7.23503e-06
1.78387e-06
6.05318e-06
1.6125e-06
4.98577e-06
1.45176e-06
4.02548e-06
1.30276e-06
3.16538e-06
1.16465e-06
2.40039e-06
1.03444e-06
1.72883e-06
9.06822e-07
1.15377e-06
7.74536e-07
6.83365e-07
6.29531e-07
3.29618e-07
4.65607e-07
1.03757e-07
2.83667e-07
7.12619e-09
1.00625e-07
-1.7799e-08
1.15378e-07
-1.59174e-07
4.499e-07
-5.74784e-07
9.82518e-07
-9.96431e-07
1.67658e-06
-1.34539e-06
2.48374e-06
-1.59147e-06
3.35107e-06
-1.72497e-06
4.22701e-06
-1.74998e-06
5.06574e-06
-1.67976e-06
5.8301e-06
-1.53335e-06
6.49315e-06
-1.33276e-06
7.03849e-06
-1.10053e-06
7.4596e-06
-8.57554e-07
7.75832e-06
-6.21437e-07
7.94281e-06
-4.05331e-07
8.02515e-06
-2.17307e-07
8.0188e-06
-6.02388e-08
7.93632e-06
6.77164e-08
7.78743e-06
1.72634e-07
7.57738e-06
2.63527e-07
7.30608e-06
3.51181e-07
6.9679e-06
4.46933e-07
6.55185e-06
5.61465e-07
6.04233e-06
7.03894e-07
5.4203e-06
8.81235e-07
4.66421e-06
1.09827e-06
3.75111e-06
1.35778e-06
2.65733e-06
1.661e-06
1.35915e-06
2.00822e-06
-1.66876e-07
2.39913e-06
-1.94359e-06
2.83312e-06
-3.99286e-06
3.30923e-06
-6.33517e-06
3.82596e-06
-8.98897e-06
4.38096e-06
-1.19699e-05
4.97072e-06
-1.52901e-05
5.5903e-06
-1.8957e-05
6.23319e-06
-2.29727e-05
6.89119e-06
-2.7333e-05
7.55451e-06
-3.20265e-05
8.21188e-06
-3.70346e-05
8.85081e-06
-4.2331e-05
9.45786e-06
-4.78813e-05
1.00191e-05
-5.36439e-05
1.05204e-05
-5.95705e-05
1.09481e-05
-6.56065e-05
1.12894e-05
-7.16924e-05
1.15323e-05
-7.77653e-05
1.16669e-05
-8.37596e-05
1.16848e-05
-8.96087e-05
1.15796e-05
-9.52465e-05
1.1347e-05
-0.000100608
1.09848e-05
-0.000105631
1.04926e-05
-0.000110256
9.87205e-06
-0.000114429
9.12629e-06
-0.000118098
8.26003e-06
-0.000121219
7.27929e-06
-0.000123752
6.19129e-06
-0.000125661
5.00433e-06
-0.000126917
3.72773e-06
-0.000127497
2.37185e-06
-0.000127382
9.47836e-07
-0.000126559
-5.31496e-07
-0.000125025
-2.05328e-06
-0.000122778
-3.60375e-06
-0.000119822
-5.16559e-06
-0.000116171
-6.72202e-06
-0.000111843
-8.255e-06
-0.000106863
-9.74509e-06
-0.000101266
-1.11718e-05
-9.50911e-05
-1.25138e-05
-8.8386e-05
-1.37492e-05
-8.12063e-05
-1.48563e-05
-7.36147e-05
-1.58136e-05
-6.56815e-05
-1.66009e-05
-5.74833e-05
-1.71996e-05
-4.91029e-05
-1.75939e-05
-4.06281e-05
-1.77713e-05
-3.21507e-05
-1.77233e-05
-2.37645e-05
-1.74462e-05
-1.55643e-05
-1.69416e-05
-7.64326e-06
-1.62167e-05
-9.16557e-08
-1.52843e-05
7.00572e-06
-1.41631e-05
1.35714e-05
-1.28766e-05
1.9537e-05
-1.14531e-05
2.48454e-05
-9.92466e-06
2.9452e-05
-8.32575e-06
3.33257e-05
-6.69247e-06
3.64502e-05
-5.06114e-06
3.88242e-05
-3.46686e-06
4.04631e-05
-1.94284e-06
4.13955e-05
-5.20408e-07
4.16625e-05
7.76894e-07
4.13191e-05
1.92878e-06
4.04304e-05
2.91974e-06
3.90695e-05
3.74168e-06
3.73139e-05
4.3922e-06
3.52438e-05
4.87479e-06
3.29384e-05
5.1982e-06
3.04733e-05
5.37562e-06
2.79187e-05
5.42363e-06
2.53368e-05
5.36105e-06
2.2781e-05
5.20781e-06
2.0295e-05
4.98388e-06
1.79131e-05
4.70841e-06
1.566e-05
4.39897e-06
1.35519e-05
4.0711e-06
1.15979e-05
3.73793e-06
9.80052e-06
3.40987e-06
8.15803e-06
3.09425e-06
6.66579e-06
2.795e-06
5.31829e-06
2.51215e-06
4.11127e-06
2.24146e-06
3.04366e-06
1.97443e-06
2.11921e-06
1.69899e-06
1.34701e-06
1.40173e-06
7.40321e-07
1.0723e-06
3.12595e-07
7.11393e-07
7.02167e-08
3.43003e-07
5.24177e-08
1.71515e-07
-3.30689e-07
6.30205e-07
-1.03347e-06
1.32396e-06
-1.69019e-06
2.19859e-06
-2.22002e-06
3.19364e-06
-2.58652e-06
4.24645e-06
-2.77778e-06
5.29702e-06
-2.80054e-06
6.29226e-06
-2.675e-06
7.18906e-06
-2.43014e-06
7.95581e-06
-2.09951e-06
8.57274e-06
-1.71746e-06
9.03107e-06
-1.31588e-06
9.33126e-06
-9.21625e-07
9.48061e-06
-5.54686e-07
9.49055e-06
-2.27243e-07
9.37375e-06
5.65544e-08
9.14141e-06
3.00055e-07
8.80105e-06
5.12999e-07
8.35472e-06
7.0986e-07
7.79799e-06
9.07907e-07
7.11973e-06
1.1252e-06
6.30248e-06
1.37871e-06
5.32349e-06
1.68289e-06
4.15591e-06
2.04882e-06
2.77022e-06
2.48396e-06
1.13546e-06
2.99254e-06
-7.79727e-07
3.57619e-06
-3.00622e-06
4.23471e-06
-5.57369e-06
4.9666e-06
-8.5099e-06
5.76933e-06
-1.18398e-05
6.63917e-06
-1.55848e-05
7.5709e-06
-1.97611e-05
8.55731e-06
-2.43792e-05
9.58878e-06
-2.94419e-05
1.0653e-05
-3.49438e-05
1.17351e-05
-4.08698e-05
1.28172e-05
-4.71947e-05
1.38795e-05
-5.38831e-05
1.49003e-05
-6.08892e-05
1.58569e-05
-6.81575e-05
1.67262e-05
-7.56244e-05
1.74859e-05
-8.32189e-05
1.81149e-05
-9.08651e-05
1.85944e-05
-9.8484e-05
1.89082e-05
-0.000105995
1.90436e-05
-0.00011332
1.89913e-05
-0.00012038
1.87457e-05
-0.000127105
1.83043e-05
-0.000133426
1.76683e-05
-0.000139283
1.68413e-05
-0.00014462
1.58297e-05
-0.000149389
1.46415e-05
-0.00015355
1.32866e-05
-0.000157066
1.1776e-05
-0.000159908
1.01218e-05
-0.000162054
8.33669e-06
-0.000163484
6.43417e-06
-0.000164184
4.42828e-06
-0.000164146
2.33371e-06
-0.000163364
1.66088e-07
-0.000161837
-2.0588e-06
-0.000159567
-4.32306e-06
-0.000156562
-6.60851e-06
-0.000152833
-8.89504e-06
-0.000148394
-1.11611e-05
-0.000143265
-1.33838e-05
-0.000137471
-1.55386e-05
-0.000131044
-1.75993e-05
-0.000124019
-1.95388e-05
-0.000116439
-2.13287e-05
-0.000108355
-2.29405e-05
-9.98231e-05
-2.43458e-05
-9.09067e-05
-2.55172e-05
-8.1677e-05
-2.64293e-05
-7.22112e-05
-2.70598e-05
-6.25925e-05
-2.739e-05
-5.29091e-05
-2.74067e-05
-4.32529e-05
-2.71025e-05
-3.3718e-05
-2.64765e-05
-2.43992e-05
-2.55354e-05
-1.539e-05
-2.42935e-05
-6.78086e-06
-2.27722e-05
1.34306e-06
-2.10005e-05
8.90335e-06
-1.90134e-05
1.58302e-05
-1.68516e-05
2.20641e-05
-1.45596e-05
2.75568e-05
-1.21852e-05
3.22728e-05
-9.77709e-06
3.61901e-05
-7.38418e-06
3.9301e-05
-5.05376e-06
4.1611e-05
-2.8304e-06
4.31415e-05
-7.53622e-07
4.39282e-05
1.14214e-06
4.40192e-05
2.82868e-06
4.34754e-05
4.2855e-06
4.23676e-05
5.50005e-06
4.07743e-05
6.468e-06
3.87794e-05
7.19315e-06
3.64682e-05
7.6868e-06
3.39251e-05
7.96679e-06
3.12299e-05
8.05618e-06
2.84561e-05
7.98163e-06
2.56681e-05
7.77185e-06
2.29206e-05
7.45595e-06
2.02575e-05
7.06209e-06
1.77122e-05
6.61632e-06
1.53086e-05
6.14156e-06
1.30616e-05
5.65687e-06
1.09792e-05
5.17668e-06
9.06419e-06
4.71e-06
7.31661e-06
4.25973e-06
5.73597e-06
3.8221e-06
4.32367e-06
3.38672e-06
3.08501e-06
2.93765e-06
2.03036e-06
2.45638e-06
1.17516e-06
1.9275e-06
5.38359e-07
1.34819e-06
1.39961e-07
7.41401e-07
1.92379e-07
2.149e-07
-5.4559e-07
7.73002e-07
-1.59158e-06
1.59643e-06
-2.51361e-06
2.61208e-06
-3.23567e-06
3.74621e-06
-3.72065e-06
4.92652e-06
-3.95808e-06
6.08594e-06
-3.95997e-06
7.16628e-06
-3.75534e-06
8.12076e-06
-3.38463e-06
8.91534e-06
-2.89409e-06
9.52858e-06
-2.33071e-06
9.9505e-06
-1.73781e-06
1.01804e-05
-1.15154e-06
1.02243e-05
-5.98544e-07
1.00916e-05
-9.4556e-08
9.79236e-06
3.55785e-07
9.3342e-06
7.58222e-07
8.71992e-06
1.12727e-06
7.94587e-06
1.48391e-06
7.00094e-06
1.85284e-06
5.86656e-06
2.25958e-06
4.51739e-06
2.72788e-06
2.92259e-06
3.27769e-06
1.04744e-06
3.92397e-06
-1.14502e-06
4.67642e-06
-3.69243e-06
5.53994e-06
-6.63174e-06
6.5155e-06
-9.99798e-06
7.60095e-06
-1.38231e-05
8.79167e-06
-1.81344e-05
1.00807e-05
-2.29537e-05
1.14584e-05
-2.8295e-05
1.29122e-05
-3.41635e-05
1.44258e-05
-4.05536e-05
1.59789e-05
-4.74479e-05
1.75474e-05
-5.48164e-05
1.91035e-05
-6.26158e-05
2.06166e-05
-7.07903e-05
2.2054e-05
-7.92724e-05
2.33824e-05
-8.79847e-05
2.45691e-05
-9.6842e-05
2.55836e-05
-0.000105754
2.63983e-05
-0.00011463
2.69902e-05
-0.000123376
2.73412e-05
-0.000131907
2.74385e-05
-0.000140138
2.72747e-05
-0.000147994
2.68479e-05
-0.000155409
2.61602e-05
-0.000162323
2.52183e-05
-0.000168686
2.40317e-05
-0.000174458
2.26125e-05
-0.000179603
2.09746e-05
-0.000184094
1.91331e-05
-0.000187911
1.71036e-05
-0.000191038
1.49023e-05
-0.000193461
1.25454e-05
-0.000195173
1.00489e-05
-0.000196168
7.42917e-06
-0.000196443
4.70243e-06
-0.000195994
1.8853e-06
-0.000194823
-1.00507e-06
-0.000192931
-3.95093e-06
-0.000190321
-6.93317e-06
-0.000186998
-9.93124e-06
-0.00018297
-1.2923e-05
-0.000178247
-1.58842e-05
-0.000172842
-1.87887e-05
-0.000166773
-2.1608e-05
-0.00016006
-2.43114e-05
-0.000152733
-2.68664e-05
-0.000144823
-2.92385e-05
-0.000136371
-3.13927e-05
-0.000127424
-3.32932e-05
-0.000118036
-3.49051e-05
-0.00010827
-3.61952e-05
-9.8196e-05
-3.71335e-05
-8.78918e-05
-3.76943e-05
-7.74408e-05
-3.78577e-05
-6.69324e-05
-3.76109e-05
-5.64595e-05
-3.69493e-05
-4.61175e-05
-3.58774e-05
-3.60021e-05
-3.44089e-05
-2.6207e-05
-3.25673e-05
-1.68226e-05
-3.03849e-05
-7.93341e-06
-2.79026e-05
3.83107e-07
-2.51681e-05
8.05823e-06
-2.22347e-05
1.5033e-05
-1.916e-05
2.12593e-05
-1.60034e-05
2.67003e-05
-1.28252e-05
3.13312e-05
-9.68464e-06
3.51393e-05
-6.63849e-06
3.81252e-05
-3.73953e-06
4.03027e-05
-1.03537e-06
4.16987e-05
1.43269e-06
4.23534e-05
3.63087e-06
4.23194e-05
5.53404e-06
4.16609e-05
7.12646e-06
4.04518e-05
8.40228e-06
3.8773e-05
9.36561e-06
3.67098e-05
1.003e-05
3.43486e-05
1.04173e-05
3.17738e-05
1.05565e-05
2.90643e-05
1.04814e-05
2.62916e-05
1.02286e-05
2.35178e-05
9.8359e-06
2.07944e-05
9.33973e-06
1.81621e-05
8.77378e-06
1.56517e-05
8.16736e-06
1.32844e-05
7.54394e-06
1.10745e-05
6.91991e-06
9.03092e-06
6.30329e-06
7.16007e-06
5.69295e-06
5.46832e-06
5.07848e-06
3.96456e-06
4.44141e-06
2.66237e-06
3.75857e-06
1.58169e-06
3.00818e-06
7.50197e-07
2.17968e-06
2.05179e-07
1.28642e-06
3.97557e-07
2.47809e-07
-7.93399e-07
8.832e-07
-2.22697e-06
1.80724e-06
-3.43765e-06
2.92849e-06
-4.35693e-06
4.1592e-06
-4.95136e-06
5.41705e-06
-5.21594e-06
6.62827e-06
-5.17119e-06
7.73055e-06
-4.85762e-06
8.67501e-06
-4.32908e-06
9.42674e-06
-3.64582e-06
9.96411e-06
-2.86808e-06
1.02769e-05
-2.05062e-06
1.03638e-05
-1.23845e-06
1.02292e-05
-4.63881e-07
9.87965e-06
2.5496e-07
9.32112e-06
9.14322e-07
8.5556e-06
1.52374e-06
7.57902e-06
2.10385e-06
6.3797e-06
2.68323e-06
4.93779e-06
3.29474e-06
3.22565e-06
3.97173e-06
1.20901e-06
4.74452e-06
-1.15123e-06
5.63793e-06
-3.897e-06
6.66974e-06
-7.07104e-06
7.85046e-06
-1.0715e-05
9.18387e-06
-1.48675e-05
1.0668e-05
-1.95627e-05
1.22962e-05
-2.48283e-05
1.40573e-05
-3.06835e-05
1.59359e-05
-3.71372e-05
1.79121e-05
-4.41859e-05
1.99609e-05
-5.18121e-05
2.2052e-05
-5.9983e-05
2.41498e-05
-6.86501e-05
2.62145e-05
-7.77498e-05
2.82032e-05
-8.72045e-05
3.00712e-05
-9.6925e-05
3.17745e-05
-0.000106814
3.32713e-05
-0.000116769
3.45241e-05
-0.000126686
3.55012e-05
-0.000136466
3.6178e-05
-0.000146013
3.65371e-05
-0.000155241
3.65689e-05
-0.000164073
3.62707e-05
-0.000172444
3.56461e-05
-0.0001803
3.4704e-05
-0.000187598
3.34574e-05
-0.000194302
3.19224e-05
-0.000200387
3.01169e-05
-0.000205834
2.806e-05
-0.000210631
2.57712e-05
-0.000214768
2.32699e-05
-0.000218239
2.0575e-05
-0.000221041
1.77045e-05
-0.000223172
1.46761e-05
-0.00022463
1.15065e-05
-0.000225413
8.21231e-06
-0.00022552
4.80967e-06
-0.00022495
1.31508e-06
-0.0002237
-2.25457e-06
-0.00022177
-5.88135e-06
-0.000219157
-9.54598e-06
-0.000215861
-1.32274e-05
-0.000211882
-1.69022e-05
-0.000207221
-2.05447e-05
-0.000201884
-2.41261e-05
-0.000195877
-2.7615e-05
-0.000189212
-3.09766e-05
-0.000181905
-3.41734e-05
-0.000173978
-3.71653e-05
-0.00016546
-3.99103e-05
-0.000156388
-4.23653e-05
-0.000146806
-4.44869e-05
-0.000136768
-4.62331e-05
-0.000126337
-4.7565e-05
-0.000115583
-4.84479e-05
-0.000104587
-4.88535e-05
-9.34366e-05
-4.87618e-05
-8.2224e-05
-4.81619e-05
-7.10472e-05
-4.70542e-05
-6.00056e-05
-4.54506e-05
-4.91984e-05
-4.33745e-05
-3.87221e-05
-4.08612e-05
-2.86684e-05
-3.79563e-05
-1.91218e-05
-3.47146e-05
-1.01585e-05
-3.11981e-05
-1.84485e-06
-2.74736e-05
5.76306e-06
-2.36113e-05
1.26199e-05
-1.9682e-05
1.8691e-05
-1.57557e-05
2.39524e-05
-1.18999e-05
2.83911e-05
-8.17823e-06
3.20049e-05
-4.64918e-06
3.4803e-05
-1.36536e-06
3.6806e-05
1.62783e-06
3.80468e-05
4.29325e-06
3.85702e-05
6.60312e-06
3.84324e-05
8.54001e-06
3.77005e-05
1.00975e-05
3.64499e-05
1.12806e-05
3.47622e-05
1.2105e-05
3.27222e-05
1.25966e-05
3.04143e-05
1.27893e-05
2.79196e-05
1.27233e-05
2.53131e-05
1.24424e-05
2.26612e-05
1.19916e-05
2.00208e-05
1.14142e-05
1.74381e-05
1.075e-05
1.49497e-05
1.00323e-05
1.25832e-05
9.28647e-06
1.0359e-05
8.5275e-06
8.29297e-06
7.75896e-06
6.39908e-06
6.97237e-06
4.69233e-06
6.14816e-06
3.19195e-06
5.25895e-06
1.92477e-06
4.27536e-06
9.29122e-07
3.17533e-06
2.59991e-07
1.95555e-06
6.57548e-07
2.73348e-07
-1.06675e-06
9.68246e-07
-2.92186e-06
1.96747e-06
-4.43687e-06
3.16211e-06
-5.55157e-06
4.45033e-06
-6.23958e-06
5.73961e-06
-6.50522e-06
6.9497e-06
-6.38128e-06
8.01499e-06
-5.92291e-06
8.88557e-06
-5.19967e-06
9.52701e-06
-4.28725e-06
9.91861e-06
-3.25968e-06
1.00508e-05
-2.18284e-06
9.92192e-06
-1.10954e-06
9.53434e-06
-7.63079e-08
8.89112e-06
8.98183e-07
7.99247e-06
1.81297e-06
6.833e-06
2.68321e-06
5.39973e-06
3.53712e-06
3.67104e-06
4.41192e-06
1.61676e-06
5.34902e-06
-8.0074e-07
6.38923e-06
-3.62466e-06
7.56844e-06
-6.90136e-06
8.91463e-06
-1.06778e-05
1.04462e-05
-1.49992e-05
1.21718e-05
-1.99062e-05
1.40909e-05
-2.54334e-05
1.61952e-05
-3.16061e-05
1.84689e-05
-3.84387e-05
2.08899e-05
-4.5932e-05
2.34292e-05
-5.4071e-05
2.60511e-05
-6.28231e-05
2.87131e-05
-7.21378e-05
3.13667e-05
-8.19465e-05
3.39585e-05
-9.21643e-05
3.64323e-05
-0.000102693
3.87315e-05
-0.000113423
4.08019e-05
-0.000124243
4.25941e-05
-0.000135037
4.4066e-05
-0.000145698
4.51845e-05
-0.000156123
4.59259e-05
-0.000166221
4.62767e-05
-0.000175917
4.62324e-05
-0.000185145
4.57968e-05
-0.000193854
4.49806e-05
-0.000202008
4.37997e-05
-0.000209578
4.22737e-05
-0.000216545
4.04245e-05
-0.000222898
3.82753e-05
-0.00022863
3.58492e-05
-0.00023374
3.31692e-05
-0.000238225
3.02571e-05
-0.000242089
2.71335e-05
-0.000245332
2.38176e-05
-0.000247954
2.03273e-05
-0.000249958
1.66795e-05
-0.000251341
1.28901e-05
-0.000252103
8.97422e-06
-0.000252241
4.94702e-06
-0.000251749
8.23768e-07
-0.000250624
-3.37972e-06
-0.000248859
-7.64633e-06
-0.000246448
-1.19574e-05
-0.000243383
-1.62921e-05
-0.000239658
-2.06268e-05
-0.000235268
-2.49352e-05
-0.000230207
-2.9187e-05
-0.000224474
-3.33486e-05
-0.000218068
-3.73821e-05
-0.000210995
-4.12459e-05
-0.000203266
-4.48949e-05
-0.000194896
-4.82806e-05
-0.000185909
-5.13522e-05
-0.000176338
-5.40578e-05
-0.000166225
-5.63459e-05
-0.000155623
-5.8167e-05
-0.000144595
-5.94757e-05
-0.000133216
-6.0233e-05
-0.000121569
-6.04087e-05
-0.000109748
-5.9983e-05
-9.78528e-05
-5.89491e-05
-8.59893e-05
-5.7314e-05
-7.42646e-05
-5.50992e-05
-6.27849e-05
-5.23409e-05
-5.16526e-05
-4.90886e-05
-4.09634e-05
-4.54039e-05
-3.08037e-05
-4.13577e-05
-2.12493e-05
-3.70281e-05
-1.23641e-05
-3.24965e-05
-4.20015e-06
-2.78459e-05
3.20203e-06
-2.31579e-05
9.81284e-06
-1.85108e-05
1.56127e-05
-1.39781e-05
2.05916e-05
-9.62805e-06
2.47484e-05
-5.52215e-06
2.80912e-05
-1.71499e-06
3.06378e-05
1.74669e-06
3.2416e-05
4.82488e-06
3.34646e-05
7.4914e-06
3.38332e-05
9.72891e-06
3.3582e-05
1.15319e-05
3.27801e-05
1.29068e-05
3.15043e-05
1.38724e-05
2.98355e-05
1.44581e-05
2.7856e-05
1.47027e-05
2.56464e-05
1.4652e-05
2.32825e-05
1.43555e-05
2.08328e-05
1.38639e-05
1.83572e-05
1.32256e-05
1.59061e-05
1.24834e-05
1.35208e-05
1.16718e-05
1.12343e-05
1.0814e-05
9.07365e-06
9.91961e-06
7.06239e-06
8.98362e-06
5.22388e-06
7.98667e-06
3.58523e-06
6.8976e-06
2.18191e-06
5.67869e-06
1.06352e-06
4.29371e-06
3.01001e-07
2.71807e-06
9.5855e-07
2.93966e-07
-1.36071e-06
1.03431e-06
-3.66221e-06
2.0863e-06
-5.48886e-06
3.32416e-06
-6.78944e-06
4.63219e-06
-7.54761e-06
5.90796e-06
-7.78099e-06
7.06533e-06
-7.53865e-06
8.03625e-06
-6.89383e-06
8.77098e-06
-5.9344e-06
9.23662e-06
-4.75289e-06
9.41436e-06
-3.43742e-06
9.29579e-06
-2.06426e-06
8.87879e-06
-6.9254e-07
8.16335e-06
6.3913e-07
7.14768e-06
1.91385e-06
5.82486e-06
3.1358e-06
4.18033e-06
4.32774e-06
2.19047e-06
5.52697e-06
-1.77585e-07
6.77998e-06
-2.96498e-06
8.13642e-06
-6.21899e-06
9.64324e-06
-9.99027e-06
1.13397e-05
-1.43296e-05
1.3254e-05
-1.92848e-05
1.54014e-05
-2.48977e-05
1.77847e-05
-3.12013e-05
2.03945e-05
-3.82168e-05
2.32107e-05
-4.59515e-05
2.62036e-05
-5.43955e-05
2.93338e-05
-6.35198e-05
3.25536e-05
-7.32753e-05
3.58066e-05
-8.35921e-05
3.90299e-05
-9.43813e-05
4.21558e-05
-0.000105537
4.51147e-05
-0.000116944
4.78385e-05
-0.000128477
5.02644e-05
-0.000140012
5.23373e-05
-0.000151431
5.40131e-05
-0.000162624
5.52594e-05
-0.000173496
5.60562e-05
-0.000183966
5.63955e-05
-0.000193968
5.62794e-05
-0.000203455
5.57191e-05
-0.000212391
5.47324e-05
-0.000220752
5.33417e-05
-0.000228525
5.15726e-05
-0.000235703
4.9452e-05
-0.000242285
4.70071e-05
-0.000248275
4.42646e-05
-0.000253675
4.12496e-05
-0.000258492
3.79859e-05
-0.00026273
3.44954e-05
-0.000266395
3.07981e-05
-0.000269489
2.69122e-05
-0.000272016
2.28544e-05
-0.000273977
1.86402e-05
-0.000275371
1.42838e-05
-0.000276195
9.79888e-06
-0.000276447
5.19898e-06
-0.000276121
4.97715e-07
-0.00027521
-4.29061e-06
-0.000273706
-9.15045e-06
-0.000271599
-1.40645e-05
-0.000268878
-1.9013e-05
-0.000265532
-2.39735e-05
-0.000261547
-2.89198e-05
-0.000256912
-3.38219e-05
-0.000251615
-3.86453e-05
-0.000245647
-4.33505e-05
-0.000238999
-4.78935e-05
-0.000231669
-5.2225e-05
-0.000223658
-5.62915e-05
-0.000214975
-6.00353e-05
-0.000205637
-6.33964e-05
-0.00019567
-6.63131e-05
-0.000185112
-6.87247e-05
-0.000174014
-7.05733e-05
-0.000162441
-7.18067e-05
-0.000150468
-7.23813e-05
-0.000138186
-7.22646e-05
-0.000125697
-7.14383e-05
-0.000113111
-6.99003e-05
-0.000100545
-6.76658e-05
-8.8117e-05
-6.47684e-05
-7.59465e-05
-6.12591e-05
-6.41453e-05
-5.7205e-05
-5.28171e-05
-5.2686e-05
-4.20532e-05
-4.7792e-05
-3.1931e-05
-4.26187e-05
-2.25132e-05
-3.72638e-05
-1.38477e-05
-3.18234e-05
-5.96894e-06
-2.63895e-05
1.10061e-06
-2.10477e-05
7.3485e-06
-1.58759e-05
1.27708e-05
-1.09445e-05
1.73712e-05
-6.31536e-06
2.11603e-05
-2.0424e-06
2.41562e-05
1.82899e-06
2.63851e-05
5.26246e-06
2.78824e-05
8.23167e-06
2.86929e-05
1.07214e-05
2.88713e-05
1.27284e-05
2.84816e-05
1.42621e-05
2.75952e-05
1.53445e-05
2.62887e-05
1.60093e-05
2.46412e-05
1.62995e-05
2.27311e-05
1.62656e-05
2.06334e-05
1.59616e-05
1.84171e-05
1.54419e-05
1.61435e-05
1.4757e-05
1.38659e-05
1.39494e-05
1.16296e-05
1.30504e-05
9.47298e-06
1.20762e-05
7.43044e-06
1.10262e-05
5.53518e-06
9.88193e-06
3.82364e-06
8.60914e-06
2.34087e-06
7.16146e-06
1.14721e-06
5.48737e-06
3.26468e-07
3.53882e-06
1.28502e-06
3.11114e-07
-1.67183e-06
1.08497e-06
-4.43606e-06
2.16878e-06
-6.57267e-06
3.42012e-06
-8.04078e-06
4.70993e-06
-8.83742e-06
5.92667e-06
-8.99772e-06
6.97934e-06
-8.59132e-06
7.79872e-06
-7.71321e-06
8.33642e-06
-6.4721e-06
8.56212e-06
-4.9786e-06
8.45952e-06
-3.33481e-06
8.02145e-06
-1.6262e-06
7.24498e-06
8.3928e-08
6.12668e-06
1.75743e-06
4.65855e-06
3.38198e-06
2.82493e-06
4.96941e-06
6.00576e-07
6.5521e-06
-2.04988e-06
8.17743e-06
-5.17093e-06
9.90103e-06
-8.81394e-06
1.17794e-05
-1.30338e-05
1.38631e-05
-1.7885e-05
1.61909e-05
-2.34177e-05
1.87867e-05
-2.9674e-05
2.16577e-05
-3.66844e-05
2.47951e-05
-4.44647e-05
2.81748e-05
-5.3013e-05
3.17591e-05
-6.23072e-05
3.54978e-05
-7.23031e-05
3.93297e-05
-8.29336e-05
4.3184e-05
-9.41094e-05
4.69824e-05
-0.000105722
5.06425e-05
-0.000117648
5.40818e-05
-0.000129755
5.72218e-05
-0.000141909
5.99926e-05
-0.00015398
6.23356e-05
-0.000165849
6.42065e-05
-0.000177412
6.55758e-05
-0.000188581
6.64287e-05
-0.000199289
6.67635e-05
-0.000209483
6.65896e-05
-0.000219128
6.59251e-05
-0.000228204
6.47945e-05
-0.000236697
6.3226e-05
-0.000244606
6.12502e-05
-0.000251931
5.88981e-05
-0.00025868
5.62004e-05
-0.000264859
5.31863e-05
-0.000270478
4.98835e-05
-0.000275546
4.63173e-05
-0.000280071
4.2511e-05
-0.000284061
3.84859e-05
-0.000287524
3.42609e-05
-0.000290465
2.98532e-05
-0.000292889
2.52781e-05
-0.000294798
2.05496e-05
-0.000296195
1.56805e-05
-0.000297079
1.06826e-05
-0.000297447
5.56772e-06
-0.000297297
3.47316e-07
-0.000296621
-4.96624e-06
-0.000295412
-1.03598e-05
-0.000293658
-1.58182e-05
-0.000291347
-2.13241e-05
-0.000288463
-2.68572e-05
-0.00028499
-3.23934e-05
-0.000280908
-3.79041e-05
-0.000276197
-4.33561e-05
-0.000270837
-4.87104e-05
-0.000264808
-5.39222e-05
-0.000258093
-5.89405e-05
-0.000250676
-6.37084e-05
-0.000242548
-6.81634e-05
-0.000233706
-7.22381e-05
-0.000224157
-7.58619e-05
-0.000213919
-7.89626e-05
-0.000203024
-8.14689e-05
-0.000191517
-8.33135e-05
-0.000179462
-8.44363e-05
-0.000166939
-8.47879e-05
-0.000154044
-8.43334e-05
-0.000140888
-8.30556e-05
-0.000127596
-8.09576e-05
-0.0001143
-7.80645e-05
-0.000101136
-7.44234e-05
-8.82382e-05
-7.01028e-05
-7.57345e-05
-6.51896e-05
-6.37412e-05
-5.97853e-05
-5.23586e-05
-5.40013e-05
-4.1669e-05
-4.79534e-05
-3.17355e-05
-4.17569e-05
-2.26026e-05
-3.55224e-05
-1.42984e-05
-2.93519e-05
-6.83691e-06
-2.33375e-05
-2.21208e-07
-1.75602e-05
5.55378e-06
-1.20903e-05
1.04994e-05
-6.98802e-06
1.46323e-05
-2.30386e-06
1.79741e-05
1.92059e-06
2.05527e-05
5.65309e-06
2.24027e-05
8.87138e-06
2.35668e-05
1.15642e-05
2.40963e-05
1.37325e-05
2.40511e-05
1.53898e-05
2.34983e-05
1.65621e-05
2.25104e-05
1.72874e-05
2.11631e-05
1.76129e-05
1.9532e-05
1.75927e-05
1.76904e-05
1.72835e-05
1.57068e-05
1.67406e-05
1.36433e-05
1.60129e-05
1.15556e-05
1.51381e-05
9.49292e-06
1.41389e-05
7.50036e-06
1.30187e-05
5.62147e-06
1.17608e-05
3.90264e-06
1.0328e-05
2.39847e-06
8.66564e-06
1.17865e-06
6.70719e-06
3.36015e-07
4.38145e-06
1.62103e-06
3.25236e-07
-1.99706e-06
1.12104e-06
-5.23187e-06
2.21537e-06
-7.66699e-06
3.44925e-06
-9.27466e-06
4.6811e-06
-1.00693e-05
5.79154e-06
-1.01082e-05
6.68631e-06
-9.48609e-06
7.29657e-06
-8.32346e-06
7.57659e-06
-6.75213e-06
7.49953e-06
-4.90154e-06
7.05183e-06
-2.88711e-06
6.22729e-06
-8.01655e-07
5.02123e-06
1.28999e-06
3.42543e-06
3.35323e-06
1.42414e-06
5.38327e-06
-1.00852e-06
7.40207e-06
-3.9095e-06
9.45309e-06
-7.32606e-06
1.1594e-05
-1.13132e-05
1.38882e-05
-1.59299e-05
1.63961e-05
-2.12345e-05
1.91676e-05
-2.72793e-05
2.22358e-05
-3.41067e-05
2.5614e-05
-4.17441e-05
2.92952e-05
-5.02011e-05
3.32521e-05
-5.94659e-05
3.74396e-05
-6.95033e-05
4.17964e-05
-8.02529e-05
4.62474e-05
-9.16298e-05
5.07066e-05
-0.000103526
5.50803e-05
-0.000115815
5.92716e-05
-0.000128359
6.31857e-05
-0.000141012
6.6735e-05
-0.000153634
6.98438e-05
-0.000166093
7.24517e-05
-0.000178273
7.45158e-05
-0.000190077
7.60107e-05
-0.000201429
7.69271e-05
-0.00021227
7.72701e-05
-0.000222563
7.70559e-05
-0.000232282
7.6309e-05
-0.000241417
7.50596e-05
-0.000249963
7.3341e-05
-0.000257925
7.11879e-05
-0.00026531
6.86351e-05
-0.000272128
6.57163e-05
-0.000278391
6.24636e-05
-0.000284112
5.89069e-05
-0.000289302
5.50741e-05
-0.000293976
5.09904e-05
-0.000298143
4.66787e-05
-0.000301817
4.21597e-05
-0.000305008
3.74515e-05
-0.000307725
3.25703e-05
-0.000309977
2.75303e-05
-0.000311771
2.2344e-05
-0.000313114
1.70226e-05
-0.000314007
1.15761e-05
-0.000314453
6.01393e-06
-0.000314451
3.45027e-07
-0.000313997
-5.42066e-06
-0.000313083
-1.12732e-05
-0.000311701
-1.72006e-05
-0.000309836
-2.31889e-05
-0.000307472
-2.92212e-05
-0.000304588
-3.52768e-05
-0.000301162
-4.13308e-05
-0.000297165
-4.73527e-05
-0.000292569
-5.33064e-05
-0.000287343
-5.91487e-05
-0.000281453
-6.48296e-05
-0.00027487
-7.02915e-05
-0.000267564
-7.54694e-05
-0.000259511
-8.02914e-05
-0.000250693
-8.46796e-05
-0.000241104
-8.8552e-05
-0.000230748
-9.18244e-05
-0.000219648
-9.44137e-05
-0.000207843
-9.62412e-05
-0.000195394
-9.72372e-05
-0.000182382
-9.73454e-05
-0.00016891
-9.6527e-05
-0.000155103
-9.47653e-05
-0.000141098
-9.20687e-05
-0.00012705
-8.84723e-05
-0.000113114
-8.40387e-05
-9.94476e-05
-7.88557e-05
-8.62e-05
-7.30329e-05
-7.3505e-05
-6.66963e-05
-6.14768e-05
-5.99816e-05
-5.02061e-05
-5.30276e-05
-3.97593e-05
-4.59692e-05
-3.01787e-05
-3.89325e-05
-2.1486e-05
-3.20301e-05
-1.36859e-05
-2.53603e-05
-6.77044e-06
-1.90058e-05
-7.23274e-07
-1.30352e-05
4.47745e-06
-7.50458e-06
8.85714e-06
-2.4591e-06