/*--------------------------------*- C++ -*----------------------------------*\
| =========                 |                                                 |
| \\      /  F ield         | OpenFOAM: The Open Source CFD Toolbox           |
|  \\    /   O peration     | Version:  2406                                  |
|   \\  /    A nd           | Website:  www.openfoam.com                      |
|    \\/     M anipulation  |                                                 |
\*---------------------------------------------------------------------------*/
FoamFile
{
    version     2.0;
    format      ascii;
    arch        "LSB;label=32;scalar=64";
    class       volVectorField;
    location    "1.1";
    object      Uold;
}
// * * * * * * * * * * * * * * * * * * * * * * * * * * * * * * * * * * * * * //

dimensions      [0 1 -1 0 0 0 0];

internalField   nonuniform List<vector> 
3600
(
(1.34745e-06 -1.33307e-06 0)
(-5.42776e-05 2.4787e-05 0)
(-0.000163353 3.6915e-05 0)
(-0.000285286 4.12103e-05 0)
(-0.000417536 4.09531e-05 0)
(-0.000544912 4.06566e-05 0)
(-0.000674934 3.9809e-05 0)
(-0.00079997 3.93776e-05 0)
(-0.000925793 3.86428e-05 0)
(-0.0010473 3.80779e-05 0)
(-0.00116818 3.72706e-05 0)
(-0.00128497 3.65178e-05 0)
(-0.00139994 3.55765e-05 0)
(-0.00151077 3.46321e-05 0)
(-0.00161881 3.35357e-05 0)
(-0.00172247 3.24029e-05 0)
(-0.00182252 3.11415e-05 0)
(-0.00191784 2.98236e-05 0)
(-0.00200881 2.83919e-05 0)
(-0.00209466 2.68915e-05 0)
(-0.0021755 2.5287e-05 0)
(-0.00225076 2.3607e-05 0)
(-0.00232043 2.18299e-05 0)
(-0.00238406 1.99742e-05 0)
(-0.00244154 1.80271e-05 0)
(-0.00249253 1.60013e-05 0)
(-0.00253687 1.389e-05 0)
(-0.00257427 1.17025e-05 0)
(-0.00260457 9.43593e-06 0)
(-0.00262753 7.09874e-06 0)
(-0.00264298 4.69046e-06 0)
(-0.00265075 2.21999e-06 0)
(-0.00265066 -3.11597e-07 0)
(-0.00264261 -2.89355e-06 0)
(-0.00262642 -5.52433e-06 0)
(-0.00260207 -8.18984e-06 0)
(-0.00256941 -1.08895e-05 0)
(-0.00252849 -1.36039e-05 0)
(-0.00247917 -1.63356e-05 0)
(-0.00242164 -1.90572e-05 0)
(-0.00235571 -2.17779e-05 0)
(-0.00228178 -2.44581e-05 0)
(-0.00219957 -2.71192e-05 0)
(-0.00210976 -2.97027e-05 0)
(-0.00201187 -3.22518e-05 0)
(-0.00190702 -3.46781e-05 0)
(-0.00179438 -3.70617e-05 0)
(-0.00167568 -3.92661e-05 0)
(-0.00154951 -4.14339e-05 0)
(-0.0014185 -4.33509e-05 0)
(-0.00128031 -4.52664e-05 0)
(-0.00113889 -4.68403e-05 0)
(-0.000990375 -4.85144e-05 0)
(-0.000840694 -4.97453e-05 0)
(-0.000683647 -5.13153e-05 0)
(-0.000528188 -5.2109e-05 0)
(-0.000366131 -5.26735e-05 0)
(-0.000215235 -4.79775e-05 0)
(-7.82653e-05 -3.41931e-05 0)
(-2.78099e-06 -3.00165e-06 0)
(-2.50788e-05 5.44555e-05 0)
(-0.00017341 0.000172339 0)
(-0.000410644 0.000227178 0)
(-0.000669061 0.000247758 0)
(-0.000946418 0.000250223 0)
(-0.00121741 0.000249478 0)
(-0.00149226 0.000246147 0)
(-0.00175879 0.000243032 0)
(-0.00202496 0.000238782 0)
(-0.00228307 0.000234461 0)
(-0.00253812 0.00022924 0)
(-0.00278494 0.000223734 0)
(-0.00302654 0.000217464 0)
(-0.0032594 0.000210802 0)
(-0.00348522 0.000203464 0)
(-0.00370155 0.00019568 0)
(-0.00390927 0.000187281 0)
(-0.00410664 0.000178411 0)
(-0.00429401 0.000168971 0)
(-0.0044701 0.000159054 0)
(-0.00463495 0.000148602 0)
(-0.00478758 0.000137681 0)
(-0.00492785 0.000126259 0)
(-0.00505499 0.000114385 0)
(-0.00516875 0.000102046 0)
(-0.00526852 8.92803e-05 0)
(-0.005354 7.609e-05 0)
(-0.00542471 6.25092e-05 0)
(-0.00548034 4.85501e-05 0)
(-0.00552051 3.42477e-05 0)
(-0.00554492 1.96222e-05 0)
(-0.00555331 4.71284e-06 0)
(-0.00554542 -1.04537e-05 0)
(-0.00552108 -2.58309e-05 0)
(-0.00548009 -4.1387e-05 0)
(-0.00542242 -5.70652e-05 0)
(-0.00534789 -7.28314e-05 0)
(-0.00525665 -8.86144e-05 0)
(-0.00514856 -0.000104382 0)
(-0.00502399 -0.000120043 0)
(-0.00488275 -0.000135574 0)
(-0.00472555 -0.000150858 0)
(-0.0045521 -0.000165891 0)
(-0.00436352 -0.000180517 0)
(-0.00415932 -0.000194772 0)
(-0.00394121 -0.000208439 0)
(-0.00370828 -0.000221627 0)
(-0.0034631 -0.000234023 0)
(-0.003204 -0.000245863 0)
(-0.00293484 -0.000256674 0)
(-0.00265263 -0.000266916 0)
(-0.00236321 -0.000275846 0)
(-0.00206142 -0.000284326 0)
(-0.00175609 -0.000291097 0)
(-0.00143882 -0.000297599 0)
(-0.00112364 -0.000300592 0)
(-0.000799588 -0.0002993 0)
(-0.000495665 -0.000277148 0)
(-0.000214422 -0.000215663 0)
(-3.33394e-05 -7.78122e-05 0)
(-3.78356e-05 0.000165166 0)
(-0.000231231 0.000410816 0)
(-0.000530872 0.000525129 0)
(-0.000852325 0.00056665 0)
(-0.00119548 0.000573788 0)
(-0.00153068 0.000571707 0)
(-0.00186994 0.000564766 0)
(-0.00219926 0.000556926 0)
(-0.00252751 0.000547097 0)
(-0.00284597 0.000536435 0)
(-0.00316008 0.000524116 0)
(-0.00346407 0.000510765 0)
(-0.00376111 0.000495915 0)
(-0.00404728 0.000479943 0)
(-0.00432432 0.000462584 0)
(-0.00458951 0.000444076 0)
(-0.0048437 0.00042427 0)
(-0.00508492 0.000403324 0)
(-0.00531349 0.000381157 0)
(-0.00552795 0.000357881 0)
(-0.00572828 0.00033346 0)
(-0.00591336 0.000307978 0)
(-0.00608298 0.00028143 0)
(-0.00623628 0.000253884 0)
(-0.00637293 0.000225358 0)
(-0.00649225 0.000195915 0)
(-0.00659388 0.000165589 0)
(-0.00667727 0.000134444 0)
(-0.00674207 0.000102526 0)
(-0.00678787 6.99086e-05 0)
(-0.00681433 3.66502e-05 0)
(-0.00682117 2.83226e-06 0)
(-0.0068081 -3.14726e-05 0)
(-0.00677498 -6.61698e-05 0)
(-0.00672158 -0.000101175 0)
(-0.0066479 -0.000136376 0)
(-0.00655379 -0.000171679 0)
(-0.00643943 -0.000206952 0)
(-0.0063047 -0.000242093 0)
(-0.00615006 -0.000276946 0)
(-0.00597536 -0.000311411 0)
(-0.0057814 -0.000345298 0)
(-0.00556797 -0.000378522 0)
(-0.00533631 -0.000410849 0)
(-0.00508599 -0.000442232 0)
(-0.00481892 -0.000472374 0)
(-0.00453422 -0.000501298 0)
(-0.00423475 -0.000528612 0)
(-0.00391879 -0.000554472 0)
(-0.00359063 -0.000578326 0)
(-0.00324714 -0.00060057 0)
(-0.00289476 -0.000620373 0)
(-0.00252796 -0.000638551 0)
(-0.00215659 -0.000653666 0)
(-0.00177137 -0.000666836 0)
(-0.00138825 -0.000673426 0)
(-0.000994402 -0.000668505 0)
(-0.000623496 -0.000624119 0)
(-0.000275845 -0.000496959 0)
(-4.68336e-05 -0.000213373 0)
(-4.26933e-05 0.000290444 0)
(-0.000255105 0.000673691 0)
(-0.000579725 0.000848603 0)
(-0.000924961 0.00090983 0)
(-0.00129278 0.000921066 0)
(-0.00165156 0.000917231 0)
(-0.0020148 0.000906423 0)
(-0.00236736 0.000893492 0)
(-0.00271878 0.000877632 0)
(-0.00305968 0.000860077 0)
(-0.00339583 0.000840017 0)
(-0.00372108 0.000818116 0)
(-0.00403876 0.000793905 0)
(-0.00434472 0.000767794 0)
(-0.00464078 0.000739522 0)
(-0.00492406 0.000709356 0)
(-0.00519544 0.000677158 0)
(-0.00545286 0.000643112 0)
(-0.00569663 0.000607155 0)
(-0.00592521 0.000569424 0)
(-0.00613857 0.000529904 0)
(-0.00633556 0.000488706 0)
(-0.00651593 0.00044585 0)
(-0.00667878 0.000401433 0)
(-0.00682377 0.0003555 0)
(-0.00695019 0.000308147 0)
(-0.00705767 0.000259438 0)
(-0.00714563 0.000209474 0)
(-0.00721371 0.000158339 0)
(-0.00726149 0.000106144 0)
(-0.00728862 5.29899e-05 0)
(-0.0072948 -9.95616e-07 0)
(-0.00727977 -5.56925e-05 0)
(-0.00724334 -0.000110954 0)
(-0.00718532 -0.000166642 0)
(-0.00710571 -0.000222585 0)
(-0.00700434 -0.000278628 0)
(-0.00688144 -0.000334572 0)
(-0.00673688 -0.00039025 0)
(-0.00657113 -0.000445427 0)
(-0.00638408 -0.000499934 0)
(-0.00617656 -0.000553496 0)
(-0.00594835 -0.000605955 0)
(-0.00570078 -0.000656984 0)
(-0.00543341 -0.000706461 0)
(-0.00514824 -0.000753991 0)
(-0.00484435 -0.000799527 0)
(-0.00452478 -0.00084257 0)
(-0.00418771 -0.000883219 0)
(-0.0038377 -0.000920805 0)
(-0.00347142 -0.000955684 0)
(-0.00309574 -0.000986897 0)
(-0.00270476 -0.00101522 0)
(-0.00230906 -0.00103904 0)
(-0.00189865 -0.00105914 0)
(-0.00149068 -0.00106977 0)
(-0.00107081 -0.00106186 0)
(-0.000674785 -0.000996569 0)
(-0.000300811 -0.000802664 0)
(-5.18386e-05 -0.000363214 0)
(-4.30423e-05 0.000427877 0)
(-0.00026155 0.000959374 0)
(-0.000596138 0.00119838 0)
(-0.000951105 0.0012802 0)
(-0.00132918 0.00129572 0)
(-0.00169735 0.00128986 0)
(-0.00207016 0.00127492 0)
(-0.00243176 0.00125642 0)
(-0.00279226 0.00123405 0)
(-0.00314185 0.00120898 0)
(-0.00348661 0.00118054 0)
(-0.00382013 0.00114934 0)
(-0.0041459 0.00111499 0)
(-0.00445962 0.00107788 0)
(-0.00476319 0.0010378 0)
(-0.00505362 0.000995001 0)
(-0.00533186 0.000949395 0)
(-0.00559576 0.000901175 0)
(-0.00584567 0.00085031 0)
(-0.00608001 0.000796955 0)
(-0.00629875 0.000741127 0)
(-0.00650071 0.00068296 0)
(-0.00668564 0.000622504 0)
(-0.00685263 0.000559886 0)
(-0.00700133 0.000495183 0)
(-0.00713101 0.000428524 0)
(-0.00724129 0.00036001 0)
(-0.00733159 0.000289777 0)
(-0.00740155 0.000217949 0)
(-0.0074507 0.00014468 0)
(-0.00747873 7.01173e-05 0)
(-0.0074853 -5.56555e-06 0)
(-0.00747014 -8.21962e-05 0)
(-0.00743308 -0.000159574 0)
(-0.00737389 -0.000237501 0)
(-0.00729258 -0.000315745 0)
(-0.00718897 -0.000394084 0)
(-0.00706328 -0.000472251 0)
(-0.00691538 -0.000550004 0)
(-0.00674574 -0.000627033 0)
(-0.00655424 -0.000703085 0)
(-0.00634173 -0.000777804 0)
(-0.00610796 -0.000850942 0)
(-0.00585429 -0.000922088 0)
(-0.00558026 -0.000991023 0)
(-0.00528793 -0.00105726 0)
(-0.00497632 -0.00112067 0)
(-0.00464858 -0.00118065 0)
(-0.0043028 -0.00123721 0)
(-0.00394371 -0.0012896 0)
(-0.0035678 -0.00133807 0)
(-0.00318225 -0.0013816 0)
(-0.00278081 -0.00142082 0)
(-0.00237459 -0.00145406 0)
(-0.00195292 -0.00148155 0)
(-0.00153382 -0.00149663 0)
(-0.0011018 -0.00148562 0)
(-0.000694216 -0.00139841 0)
(-0.000308537 -0.00113383 0)
(-5.23442e-05 -0.00052667 0)
(-4.33934e-05 0.000562619 0)
(-0.000265451 0.00124373 0)
(-0.000605208 0.0015466 0)
(-0.000965458 0.0016485 0)
(-0.00134909 0.00166768 0)
(-0.0017224 0.00165955 0)
(-0.00210053 0.00164034 0)
(-0.00246714 0.00161628 0)
(-0.00283278 0.00158744 0)
(-0.00318729 0.00155494 0)
(-0.00353701 0.0015182 0)
(-0.00387529 0.00147781 0)
(-0.00420579 0.00143342 0)
(-0.00452406 0.00138542 0)
(-0.00483209 0.00133364 0)
(-0.00512682 0.00127835 0)
(-0.00540923 0.00121948 0)
(-0.00567713 0.00115723 0)
(-0.00593089 0.00109162 0)
(-0.0061689 0.00102281 0)
(-0.00639115 0.000950855 0)
(-0.00659641 0.000875907 0)
(-0.00678448 0.000798047 0)
(-0.00695439 0.00071743 0)
(-0.00710581 0.000634166 0)
(-0.00723799 0.000548414 0)
(-0.00735055 0.000460308 0)
(-0.00744289 0.000370024 0)
(-0.00751464 0.000277722 0)
(-0.00756533 0.000183596 0)
(-0.00759463 8.78379e-05 0)
(-0.00760219 -9.33251e-06 0)
(-0.00758773 -0.000107694 0)
(-0.00755105 -0.000206991 0)
(-0.00749192 -0.000306971 0)
(-0.00741033 -0.000407341 0)
(-0.0073061 -0.000507815 0)
(-0.00717941 -0.000608055 0)
(-0.00703013 -0.000707749 0)
(-0.00685873 -0.000806509 0)
(-0.00666505 -0.000904005 0)
(-0.00644995 -0.000999794 0)
(-0.00621316 -0.00109354 0)
(-0.00595606 -0.00118475 0)
(-0.00567813 -0.00127311 0)
(-0.00538151 -0.00135804 0)
(-0.00506514 -0.0014393 0)
(-0.00473227 -0.00151622 0)
(-0.00438088 -0.0015887 0)
(-0.00401588 -0.0016559 0)
(-0.00363357 -0.00171799 0)
(-0.00324143 -0.00177386 0)
(-0.00283291 -0.00182403 0)
(-0.00241955 -0.00186676 0)
(-0.00199022 -0.00190188 0)
(-0.00156354 -0.00192173 0)
(-0.00112334 -0.0019083 0)
(-0.000707935 -0.00179965 0)
(-0.000314647 -0.00146445 0)
(-5.31151e-05 -0.000687623 0)
(-4.33745e-05 0.000702535 0)
(-0.000267949 0.00153787 0)
(-0.000612201 0.00190634 0)
(-0.00097738 0.00202919 0)
(-0.00136637 0.00205224 0)
(-0.00174472 0.00204186 0)
(-0.00212804 0.0020183 0)
(-0.00249954 0.00198852 0)
(-0.00287015 0.00195301 0)
(-0.00322941 0.00191285 0)
(-0.0035839 0.00186755 0)
(-0.00392677 0.00181767 0)
(-0.00426185 0.00176293 0)
(-0.00458453 0.00170371 0)
(-0.00489692 0.00163986 0)
(-0.00519587 0.00157169 0)
(-0.00548241 0.00149913 0)
(-0.0057543 0.00142243 0)
(-0.00601193 0.00134161 0)
(-0.00625367 0.00125687 0)
(-0.00647951 0.00116828 0)
(-0.00668822 0.00107603 0)
(-0.00687958 0.000980226 0)
(-0.00705261 0.000881048 0)
(-0.00720699 0.000778638 0)
(-0.00734194 0.000673189 0)
(-0.00745709 0.00056487 0)
(-0.0075518 0.000453889 0)
(-0.00762571 0.000340449 0)
(-0.00767833 0.000224782 0)
(-0.00770929 0.000107123 0)
(-0.00771826 -1.22606e-05 0)
(-0.00770493 -0.000133097 0)
(-0.00766908 -0.000255078 0)
(-0.00761045 -0.000377894 0)
(-0.00752903 -0.000501189 0)
(-0.00742459 -0.000624613 0)
(-0.00729733 -0.000747758 0)
(-0.00714706 -0.000870235 0)
(-0.00697426 -0.000991581 0)
(-0.00677873 -0.00111138 0)
(-0.00656133 -0.0012291 0)
(-0.00632176 -0.00134433 0)
(-0.00606143 -0.00145645 0)
(-0.00577975 -0.00156508 0)
(-0.00547891 -0.00166953 0)
(-0.00515779 -0.00176946 0)
(-0.00481974 -0.0018641 0)
(-0.00446262 -0.00195325 0)
(-0.00409151 -0.00203598 0)
(-0.00370254 -0.00211233 0)
(-0.00330344 -0.00218116 0)
(-0.00288741 -0.00224282 0)
(-0.00246636 -0.00229549 0)
(-0.00202875 -0.00233858 0)
(-0.00159377 -0.00236334 0)
(-0.00114477 -0.00234737 0)
(-0.000721073 -0.00221628 0)
(-0.000320047 -0.00180822 0)
(-5.36473e-05 -0.000855733 0)
(-4.39183e-05 0.000840711 0)
(-0.00027174 0.00183124 0)
(-0.000620907 0.00226576 0)
(-0.000991457 0.00240963 0)
(-0.00138617 0.00243632 0)
(-0.00177006 0.00242359 0)
(-0.00215903 0.00239555 0)
(-0.00253598 0.00236005 0)
(-0.0029121 0.00231788 0)
(-0.00327669 0.00227009 0)
(-0.00363653 0.00221628 0)
(-0.00398458 0.00215699 0)
(-0.00432481 0.00209196 0)
(-0.00465249 0.0020216 0)
(-0.00496982 0.00194578 0)
(-0.00527354 0.00186482 0)
(-0.00556476 0.00177869 0)
(-0.00584118 0.00168764 0)
(-0.00610323 0.00159173 0)
(-0.00634922 0.00149118 0)
(-0.00657918 0.00138609 0)
(-0.00679184 0.00127666 0)
(-0.00698699 0.00116304 0)
(-0.00716363 0.00104543 0)
(-0.00732143 0.00092401 0)
(-0.0074596 0.000798992 0)
(-0.00757776 0.000670582 0)
(-0.00767527 0.000539022 0)
(-0.00775173 0.00040455 0)
(-0.00780664 0.000267439 0)
(-0.00783963 0.000127964 0)
(-0.00785032 -1.35625e-05 0)
(-0.00783839 -0.000156822 0)
(-0.00780361 -0.000301455 0)
(-0.00774569 -0.000447095 0)
(-0.00766459 -0.000593327 0)
(-0.00756006 -0.000739736 0)
(-0.00743226 -0.000885845 0)
(-0.007281 -0.00103119 0)
(-0.00710673 -0.00117524 0)
(-0.00690921 -0.00131747 0)
(-0.0066893 -0.00145729 0)
(-0.00644666 -0.00159418 0)
(-0.0061827 -0.00172743 0)
(-0.0058968 -0.00185655 0)
(-0.0055912 -0.00198076 0)
(-0.00526471 -0.00209961 0)
(-0.00492074 -0.00221223 0)
(-0.00455709 -0.00231832 0)
(-0.00417897 -0.00241684 0)
(-0.00378238 -0.00250774 0)
(-0.00337529 -0.00258977 0)
(-0.00295067 -0.00266319 0)
(-0.00252079 -0.00272607 0)
(-0.00207378 -0.00277746 0)
(-0.00162937 -0.00280742 0)
(-0.00117048 -0.00278922 0)
(-0.000737354 -0.00263555 0)
(-0.000327473 -0.00215377 0)
(-5.49127e-05 -0.00102344 0)
(-4.4368e-05 0.000983354 0)
(-0.000275695 0.00213285 0)
(-0.00063062 0.00263496 0)
(-0.00100743 0.00280055 0)
(-0.00140887 0.00283108 0)
(-0.00179931 0.00281607 0)
(-0.00219496 0.0027835 0)
(-0.00257835 0.00274218 0)
(-0.00296095 0.00269319 0)
(-0.00333181 0.00263761 0)
(-0.00369791 0.00257508 0)
(-0.00405204 0.00250616 0)
(-0.00439829 0.00243061 0)
(-0.00473181 0.00234884 0)
(-0.00505489 0.00226077 0)
(-0.0053642 0.00216672 0)
(-0.00566088 0.00206669 0)
(-0.00594259 0.00196097 0)
(-0.00620979 0.00184962 0)
(-0.00646075 0.0017329 0)
(-0.00669551 0.00161091 0)
(-0.00691278 0.00148391 0)
(-0.00711236 0.00135206 0)
(-0.00729322 0.00121559 0)
(-0.00745504 0.00107469 0)
(-0.007597 0.000929633 0)
(-0.0077187 0.000780638 0)
(-0.00781949 0.000627985 0)
(-0.00789896 0.000471946 0)
(-0.00795658 0.00031283 0)
(-0.00799197 0.000150955 0)
(-0.00800473 -1.33247e-05 0)
(-0.00799449 -0.000179643 0)
(-0.00796101 -0.000347589 0)
(-0.00790398 -0.000516742 0)
(-0.00782331 -0.000686627 0)
(-0.00771873 -0.000856764 0)
(-0.00759039 -0.00102661 0)
(-0.00743803 -0.00119562 0)
(-0.00726209 -0.00136317 0)
(-0.0070623 -0.00152869 0)
(-0.00683952 -0.00169145 0)
(-0.00659334 -0.00185086 0)
(-0.00632519 -0.00200611 0)
(-0.00603441 -0.00215659 0)
(-0.00572326 -0.00230143 0)
(-0.00539049 -0.00244006 0)
(-0.0050396 -0.00257149 0)
(-0.0046683 -0.00269532 0)
(-0.00428194 -0.0028104 0)
(-0.00387639 -0.00291656 0)
(-0.00345986 -0.00301245 0)
(-0.00302509 -0.00309823 0)
(-0.00258473 -0.0031718 0)
(-0.00212659 -0.00323188 0)
(-0.00167095 -0.00326721 0)
(-0.00120034 -0.0032467 0)
(-0.000756099 -0.0030696 0)
(-0.000335739 -0.00251195 0)
(-5.62071e-05 -0.00119818 0)
(-4.51543e-05 0.00112618 0)
(-0.000280744 0.00243669 0)
(-0.000642269 0.00300742 0)
(-0.0010262 0.00319503 0)
(-0.00143524 0.00322937 0)
(-0.00183309 0.003212 0)
(-0.00223628 0.0031748 0)
(-0.00262699 0.0031276 0)
(-0.00301695 0.00307174 0)
(-0.00339496 0.00300833 0)
(-0.00376818 0.00293706 0)
(-0.00412924 0.00285847 0)
(-0.00448235 0.00277236 0)
(-0.00482254 0.00267917 0)
(-0.00515218 0.00257883 0)
(-0.00546786 0.00247167 0)
(-0.00577077 0.00235773 0)
(-0.00605852 0.00223731 0)
(-0.00633158 0.00211051 0)
(-0.00658821 0.00197759 0)
(-0.00682846 0.0018387 0)
(-0.007051 0.0016941 0)
(-0.00725563 0.00154399 0)
(-0.00744131 0.00138862 0)
(-0.00760771 0.00122822 0)
(-0.007754 0.00106307 0)
(-0.00787976 0.000893429 0)
(-0.00798432 0.000719611 0)
(-0.00806725 0.000541915 0)
(-0.00812801 0.000360689 0)
(-0.00816617 0.000176286 0)
(-0.00818132 -1.08985e-05 0)
(-0.00817307 -0.000200454 0)
(-0.00814113 -0.00039192 0)
(-0.00808517 -0.000584823 0)
(-0.00800506 -0.00077863 0)
(-0.0079005 -0.000972799 0)
(-0.00777159 -0.00116671 0)
(-0.00761805 -0.00135976 0)
(-0.00744029 -0.00155124 0)
(-0.00723799 -0.00174047 0)
(-0.00701198 -0.00192665 0)
(-0.00676182 -0.00210909 0)
(-0.00648895 -0.00228686 0)
(-0.00619263 -0.00245926 0)
(-0.00587518 -0.00262528 0)
(-0.00553526 -0.00278427 0)
(-0.00517648 -0.00293509 0)
(-0.00479644 -0.00307723 0)
(-0.00440066 -0.00320941 0)
(-0.00398485 -0.0033314 0)
(-0.00355749 -0.00344165 0)
(-0.0031111 -0.0035403 0)
(-0.00265874 -0.00362501 0)
(-0.00218786 -0.00369423 0)
(-0.00171937 -0.00373525 0)
(-0.00123537 -0.00371261 0)
(-0.000778334 -0.00351168 0)
(-0.000345862 -0.0028765 0)
(-5.79997e-05 -0.00137539 0)
(-4.59041e-05 0.00127328 0)
(-0.00028619 0.00274882 0)
(-0.00065525 0.00338984 0)
(-0.00104727 0.00360012 0)
(-0.00146498 0.00363844 0)
(-0.00187128 0.00361875 0)
(-0.00228307 0.00357686 0)
(-0.00268211 0.0035237 0)
(-0.00308044 0.00346081 0)
(-0.00346659 0.00338942 0)
(-0.0038479 0.0033092 0)
(-0.00421683 0.00322075 0)
(-0.00457771 0.00312386 0)
(-0.00492547 0.003019 0)
(-0.00526253 0.00290612 0)
(-0.00558542 0.00278558 0)
(-0.00589539 0.00265744 0)
(-0.00618997 0.00252201 0)
(-0.00646968 0.00237943 0)
(-0.00673272 0.00222998 0)
(-0.00697917 0.00207383 0)
(-0.00720767 0.00191127 0)
(-0.00741803 0.00174252 0)
(-0.00760918 0.00156786 0)
(-0.00778079 0.00138753 0)
(-0.00793199 0.00120186 0)
(-0.00806237 0.00101112 0)
(-0.00817123 0.000815657 0)
(-0.00825812 0.000615801 0)
(-0.00832247 0.000411933 0)
(-0.00836383 0.00020444 0)
(-0.00838175 -6.24139e-06 0)
(-0.00837581 -0.000219659 0)
(-0.0083457 -0.000435305 0)
(-0.00829102 -0.000652656 0)
(-0.00821164 -0.00087112 0)
(-0.00810718 -0.00109009 0)
(-0.00797774 -0.00130889 0)
(-0.00782295 -0.00152682 0)
(-0.00764322 -0.0017431 0)
(-0.00743816 -0.00195697 0)
(-0.00720859 -0.00216752 0)
(-0.006954 -0.00237395 0)
(-0.00667584 -0.00257523 0)
(-0.00637331 -0.00277055 0)
(-0.00604875 -0.00295876 0)
(-0.00570076 -0.0031391 0)
(-0.00533304 -0.00331029 0)
(-0.00494307 -0.00347171 0)
(-0.00453655 -0.00362192 0)
(-0.00410904 -0.00376059 0)
(-0.0036693 -0.00388601 0)
(-0.00320962 -0.00399825 0)
(-0.00274348 -0.00409471 0)
(-0.00225798 -0.00417357 0)
(-0.00177472 -0.00422058 0)
(-0.0012753 -0.0041958 0)
(-0.000803595 -0.00397023 0)
(-0.000357181 -0.00325504 0)
(-5.99082e-05 -0.00156016 0)
(-4.68851e-05 0.00142208 0)
(-0.00029255 0.00306586 0)
(-0.000670031 0.00377869 0)
(-0.00107108 0.00401208 0)
(-0.00149844 0.00405444 0)
(-0.00191413 0.00403236 0)
(-0.00233547 0.00398567 0)
(-0.00274379 0.00392645 0)
(-0.00315143 0.00385645 0)
(-0.00354663 0.00377697 0)
(-0.00393695 0.0036877 0)
(-0.00431464 0.00358927 0)
(-0.00468418 0.00348149 0)
(-0.00504036 0.00336485 0)
(-0.00538569 0.00323931 0)
(-0.00571662 0.00310528 0)
(-0.00603443 0.00296281 0)
(-0.00633662 0.00281226 0)
(-0.00662372 0.00265377 0)
(-0.00689391 0.00248766 0)
(-0.00714727 0.00231412 0)
(-0.00738242 0.00213346 0)
(-0.00759916 0.00194592 0)
(-0.00779642 0.00175181 0)
(-0.00797384 0.0015514 0)
(-0.00813055 0.00134502 0)
(-0.00826611 0.00113299 0)
(-0.0083798 0.000915663 0)
(-0.00847115 0.000693409 0)
(-0.00853956 0.000466636 0)
(-0.00858455 0.000235763 0)
(-0.00860564 1.26221e-06 0)
(-0.00860237 -0.000236375 0)
(-0.00857439 -0.000476599 0)
(-0.00852126 -0.000718835 0)
(-0.0084428 -0.000962437 0)
(-0.00833859 -0.00120674 0)
(-0.00820867 -0.00145099 0)
(-0.00805263 -0.00169443 0)
(-0.00787083 -0.00193618 0)
(-0.00766282 -0.0021754 0)
(-0.0074294 -0.00241107 0)
(-0.00716998 -0.00264229 0)
(-0.00688602 -0.00286791 0)
(-0.00657664 -0.003087 0)
(-0.00624422 -0.00329828 0)
(-0.00588727 -0.00350087 0)
(-0.00550958 -0.0036933 0)
(-0.00510853 -0.00387489 0)
(-0.00469 -0.00404397 0)
(-0.00424938 -0.00420015 0)
(-0.00379574 -0.00434151 0)
(-0.00332111 -0.00446808 0)
(-0.00283948 -0.00457694 0)
(-0.00233752 -0.00466603 0)
(-0.00183762 -0.00471946 0)
(-0.00132081 -0.00469269 0)
(-0.00083251 -0.00444187 0)
(-0.00037031 -0.00364429 0)
(-6.22285e-05 -0.00174987 0)
(-4.78789e-05 0.00157521 0)
(-0.000299434 0.00339179 0)
(-0.000686294 0.00417836 0)
(-0.00109736 0.00443556 0)
(-0.00153546 0.00448211 0)
(-0.0019616 0.00445764 0)
(-0.00239356 0.00440608 0)
(-0.00281219 0.00434068 0)
(-0.00323016 0.00426341 0)
(-0.00363541 0.00417568 0)
(-0.00403571 0.00407716 0)
(-0.00442313 0.00396854 0)
(-0.00480225 0.00384964 0)
(-0.00516775 0.00372096 0)
(-0.00552224 0.0035825 0)
(-0.00586205 0.00343469 0)
(-0.00618854 0.0032776 0)
(-0.00649913 0.00311162 0)
(-0.00679442 0.00293691 0)
(-0.00707251 0.00275381 0)
(-0.00733352 0.00256253 0)
(-0.00757602 0.00236342 0)
(-0.00779985 0.00215672 0)
(-0.00800387 0.00194277 0)
(-0.00818776 0.00172186 0)
(-0.00835059 0.00149435 0)
(-0.00849193 0.00126058 0)
(-0.00861102 0.00102092 0)
(-0.00870737 0.000775765 0)
(-0.00878036 0.000525553 0)
(-0.00882946 0.00027073 0)
(-0.00885417 1.18014e-05 0)
(-0.00885397 -0.000250706 0)
(-0.00882848 -0.0005162 0)
(-0.00877721 -0.000784063 0)
(-0.00869992 -0.00105359 0)
(-0.00859613 -0.00132407 0)
(-0.00846585 -0.00159468 0)
(-0.00830859 -0.00186457 0)
(-0.00812466 -0.00213279 0)
(-0.00791354 -0.0023984 0)
(-0.007676 -0.00266029 0)
(-0.00741138 -0.00291744 0)
(-0.00712112 -0.00316857 0)
(-0.00680425 -0.00341264 0)
(-0.00646319 -0.00364819 0)
(-0.00609636 -0.00387423 0)
(-0.00570764 -0.00408913 0)
(-0.00529428 -0.00429206 0)
(-0.00486236 -0.00448115 0)
(-0.0044071 -0.00465594 0)
(-0.00393791 -0.00481425 0)
(-0.00344653 -0.00495608 0)
(-0.00294748 -0.00507814 0)
(-0.002427 -0.00517814 0)
(-0.00190836 -0.00523843 0)
(-0.00137196 -0.00520973 0)
(-0.000864957 -0.00493278 0)
(-0.000384942 -0.00404983 0)
(-6.47544e-05 -0.00194815 0)
(-4.90571e-05 0.0017313 0)
(-0.000307161 0.00372498 0)
(-0.000704321 0.00458724 0)
(-0.00112641 0.00486885 0)
(-0.00157627 0.00491968 0)
(-0.00201387 0.00489277 0)
(-0.00245747 0.0048362 0)
(-0.0028874 0.00476449 0)
(-0.00331669 0.0046798 0)
(-0.00373295 0.00458366 0)
(-0.0041442 0.00447573 0)
(-0.00454225 0.00435675 0)
(-0.00493188 0.00422652 0)
(-0.00530759 0.00408563 0)
(-0.00567209 0.00393405 0)
(-0.00602163 0.00377226 0)
(-0.00635762 0.00360035 0)
(-0.00667743 0.00341873 0)
(-0.00698166 0.00322758 0)
(-0.00726841 0.00302728 0)
(-0.00753779 0.00281804 0)
(-0.00778837 0.00260025 0)
(-0.00801996 0.00237415 0)
(-0.00823142 0.00214012 0)
(-0.00842242 0.00189846 0)
(-0.008592 0.00164954 0)
(-0.00873973 0.00139372 0)
(-0.0088648 0.00113142 0)
(-0.00896672 0.000863017 0)
(-0.00904482 0.00058899 0)
(-0.00909854 0.000309807 0)
(-0.00912734 2.59999e-05 0)
(-0.00913066 -0.000261873 0)
(-0.00910806 -0.000553183 0)
(-0.009059 -0.000847271 0)
(-0.00898319 -0.00114339 0)
(-0.00888007 -0.00144076 0)
(-0.0087496 -0.00173849 0)
(-0.00859121 -0.00203567 0)
(-0.00840516 -0.00233127 0)
(-0.00819085 -0.00262425 0)
(-0.00794899 -0.00291338 0)
(-0.00767884 -0.00319753 0)
(-0.00738183 -0.0034753 0)
(-0.00705687 -0.00374551 0)
(-0.00670645 -0.00400654 0)
(-0.00632884 -0.00425725 0)
(-0.00592804 -0.00449583 0)
(-0.00550116 -0.0047213 0)
(-0.0050545 -0.0049316 0)
(-0.00458306 -0.00512612 0)
(-0.00409663 -0.00530246 0)
(-0.00358665 -0.00546054 0)
(-0.00306825 -0.0055967 0)
(-0.00252716 -0.00570837 0)
(-0.00198761 -0.00577609 0)
(-0.00142934 -0.00574566 0)
(-0.000901439 -0.00544175 0)
(-0.000401501 -0.00447033 0)
(-6.76761e-05 -0.00215372 0)
(-5.02798e-05 0.00189197 0)
(-0.000315498 0.00406799 0)
(-0.000723951 0.00500822 0)
(-0.00115809 0.005315 0)
(-0.00162085 0.00537027 0)
(-0.00207098 0.00534087 0)
(-0.00252733 0.00527921 0)
(-0.00296962 0.00520105 0)
(-0.00341129 0.00510877 0)
(-0.00383958 0.00500402 0)
(-0.00426276 0.00488646 0)
(-0.00467243 0.00475687 0)
(-0.0050735 0.00461508 0)
(-0.00546034 0.0044617 0)
(-0.00583576 0.00429672 0)
(-0.00619589 0.00412065 0)
(-0.00654222 0.00393361 0)
(-0.00687205 0.00373603 0)
(-0.00718603 0.00352812 0)
(-0.0074822 0.00331027 0)
(-0.00776071 0.00308273 0)
(-0.00802008 0.00284588 0)
(-0.00826015 0.00260001 0)
(-0.00847975 0.00234551 0)
(-0.00867853 0.00208268 0)
(-0.00885552 0.00181193 0)
(-0.00901027 0.00153363 0)
(-0.00914196 0.00124819 0)
(-0.00925004 0.000956032 0)
(-0.00933383 0.000657643 0)
(-0.00939273 0.000353511 0)
(-0.00942615 4.4191e-05 0)
(-0.00943349 -0.000269733 0)
(-0.00941424 -0.0005876 0)
(-0.0093678 -0.000908714 0)
(-0.00929383 -0.00123228 0)
(-0.00919169 -0.00155747 0)
(-0.00906127 -0.00188334 0)
(-0.00890191 -0.0022089 0)
(-0.00871381 -0.00253302 0)
(-0.00849625 -0.00285458 0)
(-0.00824993 -0.00317224 0)
(-0.00797397 -0.00348476 0)
(-0.00766979 -0.00379057 0)
(-0.00733619 -0.00408837 0)
(-0.00697567 -0.00437635 0)
(-0.00658637 -0.00465325 0)
(-0.00617242 -0.004917 0)
(-0.00573075 -0.00516651 0)
(-0.0052679 -0.00539945 0)
(-0.00477865 -0.00561511 0)
(-0.00427318 -0.00581077 0)
(-0.00374261 -0.0059863 0)
(-0.00320273 -0.00613761 0)
(-0.00263872 -0.00626186 0)
(-0.00207591 -0.00633763 0)
(-0.00149326 -0.00630561 0)
(-0.000942064 -0.00597375 0)
(-0.000419893 -0.00491023 0)
(-7.08885e-05 -0.00236936 0)
(-5.16673e-05 0.00205674 0)
(-0.000324665 0.00442047 0)
(-0.000745379 0.00544105 0)
(-0.00119262 0.00577376 0)
(-0.00166937 0.00583359 0)
(-0.00213311 0.00580162 0)
(-0.00260327 0.00573471 0)
(-0.00305896 0.00564992 0)
(-0.00351405 0.00554984 0)
(-0.00395537 0.00543627 0)
(-0.00439149 0.00530884 0)
(-0.00481373 0.0051684 0)
(-0.0052272 0.00501479 0)
(-0.00562608 0.00484865 0)
(-0.00601329 0.00466999 0)
(-0.00638488 0.00447937 0)
(-0.0067424 0.00427691 0)
(-0.00708306 0.00406309 0)
(-0.00740758 0.00383812 0)
(-0.00771395 0.00360244 0)
(-0.00800234 0.0033563 0)
(-0.00827124 0.00310011 0)
(-0.0085205 0.00283417 0)
(-0.00874893 0.00255887 0)
(-0.00895617 0.00227456 0)
(-0.00914125 0.00198164 0)
(-0.00930368 0.00168048 0)
(-0.00944261 0.00137152 0)
(-0.0095575 0.0010552 0)
(-0.00964759 0.000731995 0)
(-0.00971227 0.00040242 0)
(-0.00975089 6.7045e-05 0)
(-0.00976278 -0.000273526 0)
(-0.00974741 -0.000618608 0)
(-0.00970408 -0.000967472 0)
(-0.00963238 -0.00131929 0)
(-0.0095316 -0.00167318 0)
(-0.00940155 -0.00202813 0)
(-0.00924145 -0.0023831 0)
(-0.00905145 -0.00273687 0)
(-0.00883071 -0.00308823 0)
(-0.00857985 -0.00343571 0)
(-0.00829789 -0.00377796 0)
(-0.00798619 -0.00411326 0)
(-0.00764344 -0.00444015 0)
(-0.00727214 -0.00475665 0)
(-0.00687029 -0.0050613 0)
(-0.00644213 -0.00535183 0)
(-0.0059844 -0.00562698 0)
(-0.0055039 -0.00588412 0)
(-0.00499515 -0.00612243 0)
(-0.00446879 -0.00633884 0)
(-0.00391555 -0.00653316 0)
(-0.00335196 -0.00670081 0)
(-0.00276262 -0.00683867 0)
(-0.00217405 -0.00692324 0)
(-0.00156438 -0.00688989 0)
(-0.000987316 -0.00652906 0)
(-0.000440452 -0.00536957 0)
(-7.45192e-05 -0.00259468 0)
(-5.31155e-05 0.00222645 0)
(-0.000334503 0.00478391 0)
(-0.000768526 0.00588749 0)
(-0.00122997 0.00624698 0)
(-0.00172189 0.00631154 0)
(-0.00220037 0.00627696 0)
(-0.00268549 0.00620466 0)
(-0.00315569 0.00611307 0)
(-0.00362529 0.006005 0)
(-0.0040807 0.00588238 0)
(-0.00453079 0.00574483 0)
(-0.0049666 0.00559329 0)
(-0.00539343 0.00542756 0)
(-0.00580528 0.00524837 0)
(-0.00620521 0.00505572 0)
(-0.00658912 0.00485022 0)
(-0.00695867 0.00463201 0)
(-0.007311 0.00440162 0)
(-0.00764686 0.00415925 0)
(-0.0079642 0.00390537 0)
(-0.00826323 0.00364027 0)
(-0.00854239 0.00336436 0)
(-0.00880158 0.00307796 0)
(-0.00903955 0.00278149 0)
(-0.00925596 0.00247528 0)
(-0.00944981 0.00215975 0)
(-0.00962061 0.00183529 0)
(-0.00976747 0.00150233 0)
(-0.00988983 0.00116132 0)
(-0.00998688 0.000812745 0)
(-0.010058 0.000457124 0)
(-0.0101024 9.50384e-05 0)
(-0.0101195 -0.000272897 0)
(-0.0101086 -0.000645978 0)
(-0.0100689 -0.00102345 0)
(-0.01 -0.00140446 0)
(-0.00990106 -0.00178807 0)
(-0.00977176 -0.00217324 0)
(-0.00961127 -0.00255884 0)
(-0.0094196 -0.00294358 0)
(-0.00919581 -0.00332615 0)
(-0.00894043 -0.00370497 0)
(-0.00865233 -0.00407857 0)
(-0.00833284 -0.00444504 0)
(-0.00798046 -0.0048028 0)
(-0.00759774 -0.00514963 0)
(-0.00718248 -0.00548392 0)
(-0.00673904 -0.00580312 0)
(-0.00626395 -0.00610578 0)
(-0.00576427 -0.00638897 0)
(-0.00523425 -0.00665172 0)
(-0.00468501 -0.00689056 0)
(-0.00410687 -0.00710523 0)
(-0.00351718 -0.00729062 0)
(-0.00289986 -0.00744329 0)
(-0.00228281 -0.00753752 0)
(-0.00164322 -0.00750309 0)
(-0.00103749 -0.00711212 0)
(-0.000463237 -0.00585228 0)
(-7.85303e-05 -0.00283206 0)
(-5.47275e-05 0.00240141 0)
(-0.000345197 0.00515907 0)
(-0.000793551 0.00634847 0)
(-0.00127029 0.00673563 0)
(-0.00177855 0.00680507 0)
(-0.0022729 0.00676775 0)
(-0.00277413 0.00668987 0)
(-0.00325992 0.00659125 0)
(-0.00374513 0.00647491 0)
(-0.00421568 0.00634294 0)
(-0.00468077 0.00619496 0)
(-0.00513114 0.00603197 0)
(-0.00557231 0.00585379 0)
(-0.00599807 0.00566119 0)
(-0.00641162 0.00545419 0)
(-0.00680875 0.00523346 0)
(-0.00719119 0.00499915 0)
(-0.007556 0.00475181 0)
(-0.00790401 0.00449168 0)
(-0.0082331 0.00421927 0)
(-0.00854354 0.00393484 0)
(-0.00883372 0.00363887 0)
(-0.00910356 0.00333166 0)
(-0.0093518 0.00301365 0)
(-0.00957811 0.00268517 0)
(-0.00978144 0.00234666 0)
(-0.00996131 0.00199849 0)
(-0.0101168 0.00164112 0)
(-0.0102473 0.00127496 0)