/*--------------------------------*- C++ -*----------------------------------*\
| =========                 |                                                 |
| \\      /  F ield         | OpenFOAM: The Open Source CFD Toolbox           |
|  \\    /   O peration     | Version:  2406                                  |
|   \\  /    A nd           | Website:  www.openfoam.com                      |
|    \\/     M anipulation  |                                                 |
\*---------------------------------------------------------------------------*/
FoamFile
{
    version     2.0;
    format      ascii;
    arch        "LSB;label=32;scalar=64";
    class       volScalarField;
    location    "98";
    object      p;
}
// * * * * * * * * * * * * * * * * * * * * * * * * * * * * * * * * * * * * * //

dimensions      [0 2 -2 0 0 0 0];

internalField   nonuniform List<scalar> 
1024
(
6.19384e-07
7.47282e-06
-0.000100856
-0.000265626
-0.000444238
-0.000635625
-0.000869264
-0.00118878
-0.00163985
-0.00223507
-0.00290053
-0.0034143
-0.00372505
-0.00384012
-0.00374093
-0.00329917
-0.00234052
-0.000769752
0.00140166
0.00393279
0.00638808
0.00817338
0.0087053
0.00772447
0.00536964
0.00249387
0.000156835
-0.00117403
-0.00160112
-0.00168781
-0.00168431
-0.00162884
-1.35043e-05
-1.58862e-05
-0.000126124
-0.000280289
-0.000431654
-0.000583776
-0.000779501
-0.00104598
-0.00134734
-0.00174108
-0.00238091
-0.00321331
-0.00399385
-0.00454998
-0.00476865
-0.00449737
-0.00357977
-0.00197334
0.000199671
0.00272186
0.00518767
0.00700346
0.00757212
0.00663895
0.00434783
0.00129722
-0.000978824
-0.00202187
-0.00209113
-0.00186665
-0.001674
-0.0015597
4.4024e-05
2.03617e-06
-0.000141494
-0.000297588
-0.000417755
-0.000514306
-0.000644834
-0.000897032
-0.00143178
-0.0022956
-0.00344118
-0.00475564
-0.00605223
-0.00711827
-0.00774911
-0.00776374
-0.00705321
-0.00561725
-0.00354693
-0.00105685
0.00147994
0.00353279
0.00453942
0.00417753
0.00246714
-7.60458e-05
-0.00216624
-0.00302379
-0.00281451
-0.00235268
-0.00203556
-0.00188847
0.000196041
8.74463e-05
-0.000117965
-0.000292261
-0.000380911
-0.000484708
-0.000772266
-0.0014331
-0.00259457
-0.004239
-0.00618494
-0.0082119
-0.0101077
-0.0116645
-0.0126934
-0.0130454
-0.0126464
-0.0115078
-0.0096883
-0.00733571
-0.00473237
-0.00230397
-0.000551831
0.000147417
-0.000266096
-0.00152602
-0.00278827
-0.00334483
-0.00320433
-0.00276849
-0.00248241
-0.00235301
0.000517107
0.000322609
3.61536e-05
-0.000170976
-0.000356195
-0.000736874
-0.00158553
-0.00306852
-0.00518305
-0.00777431
-0.0105652
-0.0132762
-0.0156819
-0.0176114
-0.0189451
-0.0196078
-0.0195576
-0.0187703
-0.0172749
-0.0151776
-0.0126635
-0.0100027
-0.00753389
-0.00558498
-0.00433442
-0.00372628
-0.00346763
-0.00325988
-0.00306566
-0.00292713
-0.0028251
-0.00277399
0.00106672
0.000786189
0.00043094
6.4768e-05
-0.000474147
-0.00152242
-0.00332009
-0.0058956
-0.00907121
-0.0125314
-0.0159581
-0.0190919
-0.0217531
-0.0238335
-0.0252821
-0.0260835
-0.0262311
-0.0256984
-0.0245139
-0.0227552
-0.0205305
-0.0179716
-0.0152271
-0.0124433
-0.00975233
-0.0072859
-0.00518561
-0.00363555
-0.00281529
-0.00295376
-0.00310268
-0.00314369
0.00182397
0.00151154
0.00100103
0.000280178
-0.000952144
-0.00300955
-0.0059712
-0.00966485
-0.0137214
-0.0177711
-0.0215257
-0.0247977
-0.0274862
-0.029553
-0.0309965
-0.03183
-0.0320613
-0.0316927
-0.0307529
-0.0292901
-0.0273631
-0.0250343
-0.0223455
-0.0193022
-0.0158884
-0.0121632
-0.00840997
-0.0052464
-0.00332261
-0.00276232
-0.00356286
-0.00354279
0.00262696
0.00225685
0.0014898
0.00018383
-0.00199878
-0.00520731
-0.00931664
-0.0139114
-0.0185457
-0.0228853
-0.0267259
-0.0299735
-0.032601
-0.0346123
-0.0360249
-0.0368574
-0.0371265
-0.0368592
-0.0360808
-0.0348246
-0.0331277
-0.0310145
-0.0284758
-0.0254553
-0.0218671
-0.0176524
-0.0129403
-0.00832038
-0.00484359
-0.00311947
-0.004296
-0.00418014
0.00308935
0.00263619
0.00152186
-0.000509691
-0.00369673
-0.00800748
-0.0130376
-0.018228
-0.0231558
-0.0275735
-0.0313761
-0.0345448
-0.0370965
-0.0390587
-0.0404559
-0.0413063
-0.0416272
-0.0414385
-0.0407659
-0.0396366
-0.0380757
-0.0360956
-0.0336805
-0.0307697
-0.0272546
-0.0230179
-0.0180349
-0.0126019
-0.00775401
-0.00494435
-0.00427725
-0.00530227
0.00287871
0.00233411
0.000831576
-0.00191545
-0.00601587
-0.0112069
-0.0168472
-0.022347
-0.0273601
-0.0317382
-0.0354548
-0.0385386
-0.0410293
-0.0429601
-0.0443538
-0.045226
-0.0455912
-0.0454687
-0.0448763
-0.043834
-0.0423597
-0.0404609
-0.0381261
-0.0353129
-0.0319364
-0.0278728
-0.0230206
-0.0174418
-0.011769
-0.00725069
-0.00412395
-0.00752076
0.00187997
0.00123802
-0.000638697
-0.00399126
-0.00880731
-0.0145776
-0.0205323
-0.0261212
-0.0310905
-0.035374
-0.0389957
-0.0420088
-0.0444568
-0.0463698
-0.0477668
-0.0486612
-0.0490658
-0.0489947
-0.0484624
-0.0474833
-0.046069
-0.0442241
-0.0419419
-0.0391983
-0.0359435
-0.0320891
-0.027507
-0.0221048
-0.0160433
-0.0102182
-0.00718736
-0.0095466
0.000130069
-0.000600089
-0.00277723
-0.0065635
-0.0118411
-0.0179047
-0.0239437
-0.029477
-0.0343348
-0.0385041
-0.0420381
-0.0449942
-0.04741
-0.0493099
-0.0507093
-0.0516204
-0.0520548
-0.0520236
-0.0515388
-0.0506105
-0.0492461
-0.0474475
-0.0452098
-0.0425207
-0.0393573
-0.0356721
-0.0313573
-0.0262158
-0.0201745
-0.0138813
-0.0105084
-0.00964175
-0.00214583
-0.00294476
-0.00532049
-0.00936537
-0.0148697
-0.0210079
-0.0269804
-0.0323783
-0.0370958
-0.0411499
-0.0446047
-0.0475108
-0.0498975
-0.0517835
-0.0531813
-0.054102
-0.0545564
-0.0545548
-0.0541067
-0.0532199
-0.0518996
-0.0501464
-0.0479566
-0.0453236
-0.0422393
-0.0386845
-0.0345916
-0.0297547
-0.0239509
-0.0173396
-0.0119562
-0.00783075
-0.00462824
-0.0054753
-0.00795781
-0.0121145
-0.0176719
-0.0237434
-0.0295678
-0.0347988
-0.0393716
-0.0433183
-0.046702
-0.0495627
-0.0519219
-0.0537933
-0.0551869
-0.0561131
-0.0565814
-0.0566012
-0.0561804
-0.0553261
-0.0540426
-0.0523311
-0.05019
-0.0476161
-0.0446095
-0.0411688
-0.0372692
-0.0327616
-0.0273347
-0.0206781
-0.0136809
-0.00750757
-0.00700951
-0.00789156
-0.0104128
-0.0145723
-0.020073
-0.0260017
-0.0316503
-0.0367151
-0.0411549
-0.0450074
-0.0483288
-0.0511494
-0.0534837
-0.0553414
-0.0567303
-0.0576593
-0.0581367
-0.0581709
-0.0577692
-0.0569382
-0.055683
-0.0540067
-0.0519106
-0.0493954
-0.0464664
-0.0431349
-0.0394092
-0.0352022
-0.030241
-0.02393
-0.0166726
-0.0099787
-0.00905515
-0.00997207
-0.0124838
-0.016569
-0.0219514
-0.0277037
-0.0331821
-0.0381009
-0.0424305
-0.0462063
-0.0494774
-0.0522659
-0.054581
-0.056429
-0.0578155
-0.0587473
-0.0592313
-0.0592747
-0.0588841
-0.0580664
-0.0568282
-0.0551755
-0.0531141
-0.0506497
-0.0477946
-0.0445689
-0.0410085
-0.0370753
-0.0326067
-0.0269261
-0.0203211
-0.0140975
-0.0106297
-0.0115804
-0.0140446
-0.0180092
-0.0232282
-0.028795
-0.0341279
-0.0389332
-0.0431824
-0.0469034
-0.0501393
-0.0529068
-0.0552117
-0.0570571
-0.058446
-0.0593827
-0.0598723
-0.0599206
-0.0595337
-0.0587188
-0.0574845
-0.0558398
-0.0537959
-0.0513645
-0.0485661
-0.045428
-0.0420164
-0.038329
-0.0343284
-0.0294304
-0.0238874
-0.0184136
-0.0117117
-0.0126471
-0.0150338
-0.0188669
-0.0238565
-0.0292477
-0.0344597
-0.0391898
-0.0433913
-0.0470827
-0.0503014
-0.0530627
-0.0553701
-0.0572236
-0.0586229
-0.0595693
-0.0600656
-0.060116
-0.0597253
-0.0589023
-0.0576569
-0.0560014
-0.0539531
-0.0515286
-0.0487602
-0.0456792
-0.0423899
-0.03891
-0.0353163
-0.0311694
-0.0266836
-0.0220509
-0.0123422
-0.0131905
-0.015436
-0.0190936
-0.0238556
-0.0290757
-0.0341825
-0.0388626
-0.0430422
-0.0467285
-0.0499512
-0.0527249
-0.0550515
-0.0569274
-0.0583481
-0.0593115
-0.0598173
-0.059868
-0.0594677
-0.0586249
-0.0573517
-0.0556633
-0.0535826
-0.0511298
-0.0483531
-0.0452843
-0.0420735
-0.0387217
-0.035491
-0.0319848
-0.0283795
-0.0244952
-0.012618
-0.0132924
-0.0153046
-0.0187226
-0.0232486
-0.0282897
-0.0332945
-0.0379374
-0.0421145
-0.0458186
-0.0490697
-0.0518795
-0.054247
-0.056164
-0.0576214
-0.0586126
-0.0591341
-0.0591857
-0.0587705
-0.0578963
-0.056577
-0.0548305
-0.0526841
-0.0501668
-0.0473341
-0.0442286
-0.0410319
-0.0377007
-0.034792
-0.0317279
-0.0288376
-0.0255446
-0.0126442
-0.0130537
-0.0147453
-0.0178478
-0.0220833
-0.0269048
-0.0317876
-0.0363932
-0.0405842
-0.044331
-0.0476397
-0.0505151
-0.0529507
-0.0549327
-0.0564464
-0.0574802
-0.0580264
-0.0580823
-0.0576478
-0.056731
-0.0553466
-0.0535141
-0.0512652
-0.0486358
-0.0456897
-0.0424904
-0.0392163
-0.035842
-0.0331845
-0.0303412
-0.0280333
-0.0251472
-0.012474
-0.0125563
-0.0138836
-0.0165894
-0.0204355
-0.0249506
-0.0296546
-0.0342006
-0.0384141
-0.0422307
-0.0456331
-0.048612
-0.0511512
-0.0532293
-0.0548252
-0.0559212
-0.0565051
-0.0565704
-0.0561176
-0.0551495
-0.0536816
-0.051735
-0.0493448
-0.0465521
-0.0434312
-0.0400616
-0.0366313
-0.0331841
-0.0305874
-0.0278027
-0.0259983
-0.0233628
-0.012114
-0.011881
-0.0128559
-0.0150813
-0.0184041
-0.0224794
-0.0269041
-0.0313385
-0.0355695
-0.0394832
-0.0430231
-0.0461534
-0.0488418
-0.0510563
-0.052768
-0.0539529
-0.0545942
-0.0546811
-0.0542099
-0.0531827
-0.051614
-0.049525
-0.0469529
-0.0439434
-0.0405811
-0.0369617
-0.0332979
-0.0297059
-0.0270018
-0.0241923
-0.022833
-0.0202699
-0.0115787
-0.0111607
-0.0118109
-0.0134581
-0.0160979
-0.019558
-0.0235565
-0.0277912
-0.0320135
-0.0360461
-0.0397723
-0.0431129
-0.0460085
-0.0484112
-0.0502823
-0.0515907
-0.0523144
-0.0524382
-0.0519569
-0.0508685
-0.0491864
-0.0469305
-0.0441396
-0.0408633
-0.0371969
-0.0332539
-0.0292773
-0.0254448
-0.0225055
-0.0195516
-0.0186419
-0.015883
-0.0109463
-0.0105668
-0.0108925
-0.0118544
-0.0136361
-0.0162733
-0.0196601
-0.0235725
-0.027737
-0.0318996
-0.0358608
-0.0394774
-0.0426491
-0.0453038
-0.047389
-0.0488656
-0.0497068
-0.0498931
-0.0494148
-0.0482666
-0.0464625
-0.044021
-0.040981
-0.037395
-0.0333695
-0.0290376
-0.0246756
-0.0205134
-0.0172336
-0.0140359
-0.013484
-0.0100286
-0.0103547
-0.010161
-0.0101563
-0.0103775
-0.0111121
-0.012708
-0.0152813
-0.0187261
-0.0227623
-0.02705
-0.0312866
-0.0352442
-0.0387657
-0.0417438
-0.044107
-0.0458048
-0.0468049
-0.0470847
-0.0466341
-0.0454418
-0.0435217
-0.0408903
-0.037588
-0.0336702
-0.0292537
-0.0244896
-0.0196834
-0.015105
-0.011383
-0.00791195
-0.0073163
-0.00225509
-0.00984897
-0.00987831
-0.00960511
-0.00909074
-0.00860871
-0.0089575
-0.0105462
-0.0133811
-0.0172061
-0.0215953
-0.0261295
-0.0304805
-0.0344198
-0.0377932
-0.040502
-0.0424808
-0.0436908
-0.0441057
-0.0437146
-0.0425124
-0.040499
-0.0376935
-0.0341408
-0.0298987
-0.0250901
-0.0198767
-0.0145824
-0.00950023
-0.00521886
-0.00132329
-8.72751e-05
0.00814213
-0.00943409
-0.00959321
-0.00913719
-0.00787185
-0.0061009
-0.00510416
-0.00561455
-0.00775249
-0.0113024
-0.0157573
-0.0205838
-0.0253503
-0.0297496
-0.0335706
-0.03668
-0.0389917
-0.0404592
-0.0410544
-0.0407706
-0.0396031
-0.0375474
-0.034622
-0.0308755
-0.0263659
-0.0212169
-0.0155848
-0.00978357
-0.00409019
0.000980916
0.00575041
0.00875728
0.0220928
-0.00840951
-0.00940925
-0.00871211
-0.00657604
-0.00353382
-0.00127901
-0.000762952
-0.00223576
-0.00550822
-0.0100021
-0.0150944
-0.0202616
-0.0251223
-0.0294048
-0.0329393
-0.0356159
-0.0373794
-0.0381965
-0.0380623
-0.0369763
-0.0349539
-0.0319958
-0.028155
-0.0234836
-0.0180932
-0.0121071
-0.00577084
0.000739694
0.00710719
0.0138134
0.0206866
0.0419932
-0.00871342
-0.00858104
-0.00771937
-0.0046944
-0.000762603
0.00246396
0.00371222
0.00267997
-0.000408815
-0.00493301
-0.0102405
-0.0157436
-0.0210071
-0.0257038
-0.029634
-0.0326632
-0.0347299
-0.0357948
-0.0358543
-0.0349029
-0.0329714
-0.0300789
-0.0262648
-0.0215576
-0.0160309
-0.00973375
-0.00276945
0.00493902
0.0134862
0.0246916
0.0399285
0.0754371
-0.0028164
-0.00875962
-0.00763142
-0.00357943
0.00171842
0.00550122
0.00713798
0.00623747
0.00318041
-0.00140198
-0.00687164
-0.0126048
-0.0181499
-0.0231394
-0.0273637
-0.0306599
-0.0329704
-0.0342404
-0.0344915
-0.0337141
-0.031956
-0.0291865
-0.025463
-0.0207493
-0.015137
-0.00846059
-0.000656463
0.00923842
0.0221995
0.0436775
0.0782636
0.140989
-0.024142
-0.00974383
-0.00471527
-0.000123473
0.00464655
0.00799166
0.00914729
0.00802297
0.00482846
0.000110482
-0.00548474
-0.0113301
-0.0169801
-0.0220717
-0.0263988
-0.029792
-0.0321977
-0.0335532
-0.0338853
-0.0331703
-0.0314685
-0.0287571
-0.0251192
-0.0204946
-0.0148691
-0.00780956
0.00136928
0.0150235
0.0372465
0.0780401
0.147356
0.250196
)
;

boundaryField
{
    movingWall
    {
        type            zeroGradient;
    }
    fixedWalls
    {
        type            zeroGradient;
    }
    frontAndBack
    {
        type            empty;
    }
}


// ************************************************************************* //
