/*--------------------------------*- C++ -*----------------------------------*\
| =========                 |                                                 |
| \\      /  F ield         | OpenFOAM: The Open Source CFD Toolbox           |
|  \\    /   O peration     | Version:  2406                                  |
|   \\  /    A nd           | Website:  www.openfoam.com                      |
|    \\/     M anipulation  |                                                 |
\*---------------------------------------------------------------------------*/
FoamFile
{
    version     2.0;
    format      ascii;
    arch        "LSB;label=32;scalar=64";
    class       volVectorField;
    location    "43";
    object      U;
}
// * * * * * * * * * * * * * * * * * * * * * * * * * * * * * * * * * * * * * //

dimensions      [0 1 -1 0 0 0 0];

internalField   nonuniform List<vector> 
900
(
(0.000325362 -0.000556702 0)
(0.00375498 -0.00129949 0)
(0.00763819 -0.00103251 0)
(0.00928399 -0.000587299 0)
(0.00984318 -0.000512024 0)
(0.00971409 -0.00081178 0)
(0.0096711 -0.00123793 0)
(0.00959701 -0.0017446 0)
(0.0086164 -0.00335284 0)
(0.00389446 -0.00524179 0)
(-0.00696492 -0.00301616 0)
(-0.0251188 0.00397924 0)
(-0.0491308 0.0103536 0)
(-0.0740682 0.0126208 0)
(-0.0958067 0.0118244 0)
(-0.112268 0.00952576 0)
(-0.122225 0.0063581 0)
(-0.124865 0.00269421 0)
(-0.119896 -0.00124278 0)
(-0.10689 -0.0052177 0)
(-0.0865188 -0.00888328 0)
(-0.0591638 -0.0116649 0)
(-0.0280508 -0.012749 0)
(0.0041096 -0.0111371 0)
(0.0294174 -0.00574003 0)
(0.0424499 0.00148014 0)
(0.0383719 0.00697408 0)
(0.0246878 0.0070333 0)
(0.0116142 0.00465226 0)
(0.00136604 0.00174045 0)
(0.00124797 -0.0035053 0)
(0.00710949 -0.00611642 0)
(0.0127898 -0.00444842 0)
(0.014694 -0.00163916 0)
(0.0140706 0.000127204 0)
(0.0108005 0.000997012 0)
(0.00435507 0.00140614 0)
(-0.00910873 0.00280573 0)
(-0.0329336 0.00919449 0)
(-0.0666907 0.0212105 0)
(-0.105066 0.0325048 0)
(-0.140729 0.0385889 0)
(-0.169857 0.0388876 0)
(-0.192019 0.0343087 0)
(-0.207676 0.0266487 0)
(-0.216742 0.0171392 0)
(-0.219139 0.0064971 0)
(-0.214665 -0.00483266 0)
(-0.203209 -0.0164964 0)
(-0.18448 -0.0280784 0)
(-0.158666 -0.0386684 0)
(-0.125978 -0.0469611 0)
(-0.0880894 -0.0505087 0)
(-0.0475162 -0.046769 0)
(-0.00948634 -0.0324901 0)
(0.019594 -0.0106957 0)
(0.0314814 0.011078 0)
(0.0262758 0.0194188 0)
(0.0152806 0.0189838 0)
(0.00216678 0.0112455 0)
(0.00214398 -0.00885224 0)
(0.0085449 -0.012918 0)
(0.0128844 -0.00856402 0)
(0.0118684 -0.0019275 0)
(0.00635761 0.00336812 0)
(-0.00593722 0.00882881 0)
(-0.0286952 0.0186649 0)
(-0.0644813 0.0356491 0)
(-0.108893 0.0541467 0)
(-0.152023 0.0663289 0)
(-0.188239 0.070438 0)
(-0.216516 0.0683575 0)
(-0.237412 0.0611765 0)
(-0.252018 0.049939 0)
(-0.261331 0.0361002 0)
(-0.265792 0.0205743 0)
(-0.265753 0.00396094 0)
(-0.261128 -0.0135282 0)
(-0.251778 -0.0315681 0)
(-0.237166 -0.0499238 0)
(-0.216762 -0.0673184 0)
(-0.189925 -0.0823284 0)
(-0.156198 -0.0909626 0)
(-0.116515 -0.0898085 0)
(-0.0722326 -0.0723178 0)
(-0.0297483 -0.0394825 0)
(0.00259809 0.000611319 0)
(0.01062 0.02266 0)
(0.00875664 0.0287567 0)
(0.000230698 0.0188258 0)
(0.0027604 -0.0141425 0)
(0.00734494 -0.0169345 0)
(0.00693051 -0.00768495 0)
(-0.000924992 0.0049163 0)
(-0.01726 0.018027 0)
(-0.0457186 0.0361776 0)
(-0.0868039 0.0600735 0)
(-0.133233 0.0828734 0)
(-0.175217 0.0967167 0)
(-0.208769 0.100789 0)
(-0.234377 0.0971914 0)
(-0.252664 0.08788 0)
(-0.264867 0.0744747 0)
(-0.272378 0.0583295 0)
(-0.276408 0.0405342 0)
(-0.277642 0.0216165 0)
(-0.276612 0.00186095 0)
(-0.273388 -0.0189 0)
(-0.267966 -0.0405537 0)
(-0.259784 -0.0633673 0)
(-0.248095 -0.0861111 0)
(-0.231492 -0.107961 0)
(-0.208079 -0.124138 0)
(-0.176316 -0.131184 0)
(-0.133995 -0.118983 0)
(-0.0843154 -0.0855483 0)
(-0.0314952 -0.0284914 0)
(-0.00138592 0.0130431 0)
(0.00366959 0.0298185 0)
(-0.00130887 0.0203395 0)
(0.00250473 -0.0189854 0)
(0.00248898 -0.0172139 0)
(-0.0057094 -0.000301171 0)
(-0.0237383 0.0221978 0)
(-0.053215 0.0481312 0)
(-0.0938295 0.0782349 0)
(-0.138766 0.106034 0)
(-0.178781 0.123981 0)
(-0.209593 0.129448 0)
(-0.231638 0.125134 0)
(-0.246211 0.114047 0)
(-0.254703 0.0986449 0)
(-0.258948 0.0807095 0)
(-0.260193 0.0613147 0)
(-0.259715 0.041248 0)
(-0.258071 0.0206738 0)
(-0.255971 -0.000310312 0)
(-0.253525 -0.0222183 0)
(-0.251135 -0.0450897 0)
(-0.248411 -0.0698235 0)
(-0.245116 -0.0954925 0)
(-0.239611 -0.122455 0)
(-0.229795 -0.146127 0)
(-0.212013 -0.164138 0)
(-0.181599 -0.16433 0)
(-0.135923 -0.142016 0)
(-0.0746586 -0.0821332 0)
(-0.0145379 -0.0128807 0)
(0.00363021 0.0288622 0)
(-0.00136147 0.0209687 0)
(0.000537157 -0.0190596 0)
(-0.00706456 -0.00864144 0)
(-0.0248317 0.01871 0)
(-0.0525883 0.0525665 0)
(-0.0899912 0.0881969 0)
(-0.13167 0.121802 0)
(-0.169711 0.145016 0)
(-0.198205 0.15365 0)
(-0.217031 0.149634 0)
(-0.228122 0.13758 0)
(-0.233233 0.12044 0)
(-0.234312 0.100818 0)
(-0.232961 0.080167 0)
(-0.230237 0.0592927 0)
(-0.227074 0.038628 0)
(-0.223736 0.018042 0)
(-0.220802 -0.00246205 0)
(-0.218259 -0.0236202 0)
(-0.216802 -0.0454337 0)
(-0.21627 -0.0693429 0)
(-0.217352 -0.0946889 0)
(-0.218935 -0.123359 0)
(-0.220143 -0.151668 0)
(-0.216913 -0.179649 0)
(-0.20399 -0.19517 0)
(-0.17439 -0.19277 0)
(-0.121708 -0.149621 0)
(-0.0485984 -0.0654755 0)
(0.00660162 0.0170115 0)
(-0.00189755 0.0226011 0)
(-0.0024216 -0.0125579 0)
(-0.0180212 0.00815223 0)
(-0.0438417 0.045172 0)
(-0.0768722 0.0873333 0)
(-0.114997 0.1271 0)
(-0.150997 0.15781 0)
(-0.178941 0.172431 0)
(-0.19635 0.171245 0)
(-0.205708 0.15931 0)
(-0.209051 0.141307 0)
(-0.208585 0.12023 0)
(-0.206135 0.0983834 0)
(-0.202881 0.0766605 0)
(-0.199407 0.0554428 0)
(-0.19614 0.0348118 0)
(-0.192939 0.0144247 0)
(-0.190159 -0.00564923 0)
(-0.187526 -0.0261868 0)
(-0.185831 -0.0468364 0)
(-0.184833 -0.0692394 0)
(-0.185899 -0.092474 0)
(-0.188383 -0.11963 0)
(-0.193264 -0.147787 0)
(-0.197527 -0.180282 0)
(-0.198046 -0.206702 0)
(-0.186851 -0.224671 0)
(-0.153063 -0.207476 0)
(-0.094346 -0.142683 0)
(-0.00633528 -0.0167376 0)
(0.00414728 0.0252635 0)
(-0.00545519 0.00142875 0)
(-0.0275645 0.0330346 0)
(-0.0580793 0.0776313 0)
(-0.0918034 0.123862 0)
(-0.126234 0.162275 0)
(-0.154172 0.185777 0)
(-0.172575 0.190399 0)
(-0.181603 0.180534 0)
(-0.184724 0.162457 0)
(-0.183819 0.140594 0)
(-0.181238 0.117633 0)
(-0.178162 0.0951916 0)
(-0.17525 0.0735013 0)
(-0.172566 0.0525544 0)
(-0.170181 0.0321908 0)
(-0.167729 0.0119839 0)
(-0.165517 -0.00784676 0)
(-0.163107 -0.0281102 0)
(-0.161397 -0.0480574 0)
(-0.159855 -0.0695102 0)
(-0.160179 -0.0909691 0)
(-0.161499 -0.116241 0)
(-0.166069 -0.142243 0)
(-0.171489 -0.174957 0)
(-0.177872 -0.205694 0)
(-0.17776 -0.237368 0)
(-0.162937 -0.242792 0)
(-0.124211 -0.211765 0)
(-0.0445213 -0.0814839 0)
(0.0187415 0.0206275 0)
(-0.00718778 0.0202775 0)
(-0.0327154 0.0608363 0)
(-0.0643516 0.10919 0)
(-0.095637 0.155419 0)
(-0.124614 0.18926 0)
(-0.144929 0.204086 0)
(-0.156263 0.199809 0)
(-0.160066 0.183396 0)
(-0.160109 0.161498 0)
(-0.15779 0.137795 0)
(-0.155343 0.11454 0)
(-0.152998 0.0923478 0)
(-0.151182 0.0710506 0)
(-0.149452 0.0503164 0)
(-0.147911 0.030009 0)
(-0.146012 0.0096886 0)
(-0.144238 -0.0101675 0)
(-0.141928 -0.0304293 0)
(-0.140211 -0.0499081 0)
(-0.138124 -0.0706749 0)
(-0.137734 -0.0905697 0)
(-0.137575 -0.114062 0)
(-0.140906 -0.137456 0)
(-0.145125 -0.168753 0)
(-0.153185 -0.200123 0)
(-0.158109 -0.239361 0)
(-0.156062 -0.261825 0)
(-0.132587 -0.259826 0)
(-0.0790532 -0.162805 0)
(0.0105088 0.0006897 0)
(-0.00760933 0.0413247 0)
(-0.0337341 0.0904411 0)
(-0.0640491 0.140431 0)
(-0.0913988 0.184199 0)
(-0.114686 0.21148 0)
(-0.12878 0.217541 0)
(-0.135336 0.205625 0)
(-0.136369 0.184518 0)
(-0.135306 0.160269 0)
(-0.133122 0.135911 0)
(-0.131559 0.112901 0)
(-0.130166 0.0910544 0)
(-0.129311 0.0700085 0)
(-0.128272 0.0492546 0)
(-0.127386 0.0288206 0)
(-0.125948 0.00821539 0)
(-0.124728 -0.0118147 0)
(-0.122765 -0.0323166 0)
(-0.121495 -0.0516671 0)
(-0.119373 -0.0722711 0)
(-0.118864 -0.0912106 0)
(-0.117558 -0.113468 0)
(-0.119572 -0.134279 0)
(-0.12144 -0.163106 0)
(-0.128813 -0.192245 0)
(-0.13514 -0.23455 0)
(-0.140835 -0.267996 0)
(-0.130313 -0.288629 0)
(-0.0943044 -0.22528 0)
(-0.021249 -0.0465782 0)
(-0.00672698 0.0614839 0)
(-0.0310108 0.117327 0)
(-0.0579757 0.166579 0)
(-0.0806533 0.20599 0)
(-0.0988113 0.226474 0)
(-0.108407 0.224749 0)
(-0.112388 0.207357 0)
(-0.112413 0.183337 0)
(-0.111528 0.15818 0)
(-0.110093 0.133972 0)
(-0.109474 0.11152 0)
(-0.108768 0.0900105 0)
(-0.108507 0.0691438 0)
(-0.107777 0.0482898 0)
(-0.107271 0.0277402 0)
(-0.10606 0.00689066 0)
(-0.105303 -0.0132106 0)
(-0.10364 -0.0338793 0)
(-0.102981 -0.0530632 0)
(-0.101104 -0.0736435 0)
(-0.101108 -0.0920256 0)
(-0.0994261 -0.113832 0)
(-0.101035 -0.133086 0)
(-0.100797 -0.160074 0)
(-0.106392 -0.18588 0)
(-0.11076 -0.22763 0)
(-0.119515 -0.266167 0)
(-0.116687 -0.306232 0)
(-0.0928645 -0.271977 0)
(-0.0363291 -0.114714 0)
(-0.00500645 0.0791124 0)
(-0.0257769 0.141858 0)
(-0.0485701 0.189921 0)
(-0.0666776 0.225099 0)
(-0.0804996 0.239211 0)
(-0.0870445 0.231304 0)
(-0.089622 0.209741 0)
(-0.0894697 0.183793 0)
(-0.0890432 0.158039 0)
(-0.0883114 0.133935 0)
(-0.0882852 0.111664 0)
(-0.0879331 0.0901182 0)
(-0.0879631 0.0691293 0)
(-0.0873578 0.047989 0)
(-0.0871534 0.0272562 0)
(-0.0861457 0.00613508 0)
(-0.0859218 -0.0140154 0)
(-0.0846148 -0.0348576 0)
(-0.0847176 -0.0538836 0)
(-0.0831965 -0.0745005 0)
(-0.0840017 -0.0924424 0)
(-0.082313 -0.114066 0)
(-0.0842885 -0.132332 0)
(-0.0828691 -0.158431 0)
(-0.0874409 -0.18166 0)
(-0.0891623 -0.222002 0)
(-0.0980546 -0.261609 0)
(-0.0977617 -0.315162 0)
(-0.0825092 -0.30675 0)
(-0.0340912 -0.176336 0)
(-0.00266908 0.0922444 0)
(-0.0188501 0.160882 0)
(-0.0367409 0.207265 0)
(-0.0504442 0.237848 0)
(-0.0606938 0.246738 0)
(-0.0652226 0.233896 0)
(-0.0673504 0.209717 0)
(-0.0674894 0.18268 0)
(-0.0677182 0.15692 0)
(-0.0675255 0.133091 0)
(-0.0678733 0.111071 0)
(-0.0676369 0.0895512 0)
(-0.0678086 0.0685675 0)
(-0.067209 0.0473146 0)
(-0.0672659 0.0266165 0)
(-0.0663998 0.00543653 0)
(-0.0667233 -0.0145476 0)
(-0.0657457 -0.035399 0)
(-0.0667011 -0.0541554 0)
(-0.0655868 -0.0748014 0)
(-0.0674044 -0.0924248 0)
(-0.0658982 -0.114148 0)
(-0.068648 -0.131876 0)
(-0.0665015 -0.157688 0)
(-0.070751 -0.178848 0)
(-0.0701059 -0.217723 0)
(-0.0789364 -0.256884 0)
(-0.0797681 -0.321406 0)
(-0.0716675 -0.33588 0)
(-0.0306007 -0.231565 0)
(-0.000162255 0.100757 0)
(-0.0110689 0.175989 0)
(-0.0240455 0.221431 0)
(-0.0337592 0.249097 0)
(-0.0409927 0.25404 0)
(-0.044219 0.238166 0)
(-0.0460972 0.212135 0)
(-0.0465592 0.184297 0)
(-0.0471671 0.158199 0)
(-0.047239 0.134176 0)
(-0.0477117 0.111924 0)
(-0.047461 0.0900858 0)
(-0.0477316 0.0688877 0)
(-0.0471318 0.0473946 0)
(-0.047503 0.0266874 0)
(-0.0467934 0.00543468 0)
(-0.0477386 -0.0143464 0)
(-0.0470859 -0.0351712 0)
(-0.0489721 -0.0536083 0)
(-0.0482649 -0.0742509 0)
(-0.0512312 -0.0915502 0)
(-0.0500342 -0.113473 0)
(-0.0539523 -0.130978 0)
(-0.0515904 -0.157181 0)
(-0.056314 -0.177207 0)
(-0.0537089 -0.214726 0)
(-0.0621689 -0.251221 0)
(-0.0625592 -0.322297 0)
(-0.0608474 -0.355974 0)
(-0.0264787 -0.278866 0)
(0.00246885 0.103534 0)
(-0.00295471 0.184641 0)
(-0.0108308 0.22984 0)
(-0.0168509 0.254674 0)
(-0.0215426 0.257143 0)
(-0.0237908 0.238986 0)
(-0.0257219 0.211978 0)
(-0.0265242 0.183621 0)
(-0.0275453 0.15749 0)
(-0.0277706 0.133455 0)
(-0.0283525 0.111231 0)
(-0.0280253 0.0893641 0)
(-0.0284092 0.0682611 0)
(-0.0277728 0.0468328 0)
(-0.0284816 0.0264071 0)
(-0.0278834 0.00534525 0)
(-0.0294739 -0.0139933 0)
(-0.0290843 -0.034593 0)
(-0.0319236 -0.0525613 0)
(-0.0315565 -0.073112 0)
(-0.0357121 -0.0900531 0)
(-0.0347721 -0.112177 0)
(-0.0399999 -0.129502 0)
(-0.0375834 -0.156268 0)
(-0.0434974 -0.175751 0)
(-0.0397822 -0.212886 0)
(-0.0488281 -0.2471 0)
(-0.0485024 -0.322809 0)
(-0.0521229 -0.371681 0)
(-0.0228009 -0.319292 0)
(0.0047906 0.101426 0)
(0.00509067 0.189231 0)
(0.00208986 0.235349 0)
(-0.000463399 0.259821 0)
(-0.00271237 0.261089 0)
(-0.00413254 0.242536 0)
(-0.00588833 0.215026 0)
(-0.00690552 0.186255 0)
(-0.00808921 0.159625 0)
(-0.00834124 0.135065 0)
(-0.00896694 0.112403 0)
(-0.00855247 0.0901527 0)
(-0.00911988 0.0689125 0)
(-0.00848878 0.0473755 0)
(-0.00965024 0.0271448 0)
(-0.00918927 0.0062048 0)
(-0.0115203 -0.012708 0)
(-0.0113769 -0.0330943 0)
(-0.0152395 -0.0505741 0)
(-0.0151707 -0.0710225 0)
(-0.020602 -0.0876068 0)
(-0.0198983 -0.109969 0)
(-0.0266095 -0.12723 0)
(-0.0241925 -0.154706 0)
(-0.0316878 -0.173909 0)
(-0.0271368 -0.210585 0)
(-0.0373569 -0.241479 0)
(-0.0360839 -0.319427 0)
(-0.0449911 -0.381151 0)
(-0.0196481 -0.354227 0)
(0.00686429 0.0937568 0)
(0.0126077 0.187079 0)
(0.0145743 0.235379 0)
(0.0152995 0.259277 0)
(0.0152432 0.260796 0)
(0.0147254 0.24208 0)
(0.0130146 0.214679 0)
(0.0118564 0.185631 0)
(0.0103942 0.158828 0)
(0.0101343 0.13408 0)
(0.00938336 0.111404 0)
(0.00992247 0.089217 0)
(0.00914399 0.0682591 0)
(0.00984232 0.0469997 0)
(0.00822797 0.0272968 0)
(0.00864388 0.00676875 0)
(0.00558183 -0.0114729 0)
(0.00559209 -0.0314369 0)
(0.000720216 -0.0482605 0)
(0.000627496 -0.0684673 0)
(-0.00608544 -0.0846012 0)
(-0.00548018 -0.10709 0)
(-0.0137827 -0.12422 0)
(-0.0113529 -0.152336 0)
(-0.0208981 -0.171577 0)
(-0.0159458 -0.208534 0)
(-0.0281808 -0.236912 0)
(-0.0258585 -0.315899 0)
(-0.0396256 -0.38735 0)
(-0.0168603 -0.384464 0)
(0.0080893 0.0821917 0)
(0.0193488 0.181373 0)
(0.0260402 0.232789 0)
(0.0301717 0.259132 0)
(0.0326569 0.261822 0)
(0.0332992 0.244927 0)
(0.0321499 0.218104 0)
(0.0310413 0.188993 0)
(0.0294985 0.161599 0)
(0.0292605 0.136129 0)
(0.0283488 0.112934 0)
(0.0289818 0.0903562 0)
(0.0278781 0.0693827 0)
(0.0286124 0.0481342 0)
(0.0264176 0.0288122 0)
(0.0267821 0.00855426 0)
(0.0228709 -0.00908318 0)
(0.0227858 -0.0286972 0)
(0.0168113 -0.0448996 0)
(0.016646 -0.0648871 0)
(0.00855521 -0.0805982 0)
(0.00917237 -0.103199 0)
(-0.000864927 -0.120211 0)
(0.00168717 -0.148813 0)
(-0.0101927 -0.167933 0)
(-0.0049108 -0.204791 0)
(-0.0199076 -0.230159 0)
(-0.0165927 -0.309046 0)
(-0.0355664 -0.38913 0)
(-0.0143688 -0.411293 0)
(0.00846531 0.0664327 0)
(0.0245416 0.168727 0)
(0.0361462 0.224611 0)
(0.043645 0.252365 0)
(0.0485133 0.257685 0)
(0.0506432 0.242416 0)
(0.0499895 0.216902 0)
(0.0491562 0.188016 0)
(0.0474346 0.16055 0)
(0.0473101 0.13488 0)
(0.0461815 0.111696 0)
(0.0470289 0.0892733 0)
(0.0456288 0.0687591 0)
(0.0465683 0.0479716 0)
(0.0438533 0.0293911 0)
(0.0443592 0.00972696 0)
(0.0396581 -0.00705895 0)
(0.0396837 -0.0260929 0)
(0.0326373 -0.0415128 0)
(0.0326115 -0.061099 0)
(0.0231253 -0.0762739 0)
(0.0239376 -0.0987924 0)
(0.0120276 -0.115569 0)
(0.0147649 -0.144412 0)
(0.000180568 -0.163473 0)
(0.0056412 -0.2005 0)
(-0.0127851 -0.223579 0)
(-0.00833229 -0.301655 0)
(-0.0326514 -0.388292 0)
(-0.0118903 -0.435073 0)
(0.00699919 0.0494827 0)
(0.0278801 0.153511 0)
(0.0441587 0.213902 0)
(0.0555727 0.24675 0)
(0.063661 0.25503 0)
(0.0679464 0.243574 0)
(0.0687555 0.219871 0)
(0.0686393 0.191624 0)
(0.0670769 0.163795 0)
(0.0671328 0.137371 0)
(0.0657278 0.113649 0)
(0.0667381 0.090789 0)
(0.0648902 0.0703631 0)
(0.0660231 0.0496607 0)
(0.0626404 0.0316362 0)
(0.0633362 0.012355 0)
(0.0577027 -0.00367739 0)
(0.0579471 -0.0222429 0)
(0.0496886 -0.0369413 0)
(0.0499525 -0.056162 0)
(0.0389162 -0.0708213 0)
(0.040065 -0.0931806 0)
(0.0260573 -0.109641 0)
(0.0290568 -0.138408 0)
(0.0113876 -0.157066 0)
(0.0169402 -0.193674 0)
(-0.00574033 -0.214237 0)
(-0.000245873 -0.290965 0)
(-0.0306114 -0.383945 0)
(-0.00930488 -0.4566 0)
(0.00407949 0.0316505 0)
(0.0281881 0.131032 0)
(0.0494665 0.196986 0)
(0.0647419 0.232443 0)
(0.0757605 0.245366 0)
(0.0827052 0.237022 0)
(0.0850079 0.216241 0)
(0.0862693 0.189328 0)
(0.0850682 0.162082 0)
(0.0857746 0.135767 0)
(0.0842332 0.112198 0)
(0.0857596 0.0895643 0)
(0.0835715 0.069706 0)
(0.0852353 0.049584 0)
(0.0812827 0.0324441 0)
(0.0825191 0.0139173 0)
(0.0760269 -0.00114869 0)
(0.0768361 -0.0189668 0)
(0.0673982 -0.0328009 0)
(0.0682483 -0.0514113 0)
(0.0556082 -0.065405 0)
(0.0572662 -0.087293 0)
(0.0409507 -0.103215 0)
(0.0441916 -0.131463 0)
(0.0230246 -0.149546 0)
(0.0285265 -0.185552 0)
(0.000929122 -0.204189 0)
(0.00762539 -0.279082 0)
(-0.0293741 -0.37724 0)
(-0.00634408 -0.475934 0)
(9.42497e-05 0.0176487 0)
(0.0256606 0.10802 0)
(0.0513082 0.177672 0)
(0.0710803 0.220502 0)
(0.0863815 0.23734 0)
(0.0969829 0.234411 0)
(0.102331 0.216679 0)
(0.105838 0.191561 0)
(0.105767 0.164764 0)
(0.107472 0.13808 0)
(0.105916 0.114243 0)
(0.108009 0.0911982 0)
(0.105355 0.0715666 0)
(0.107594 0.0515682 0)
(0.102894 0.0351402 0)
(0.104805 0.0170908 0)
(0.0972652 0.00292391 0)
(0.0988251 -0.0143011 0)
(0.0879873 -0.0272605 0)
(0.0895881 -0.0452824 0)
(0.0750567 -0.0584976 0)
(0.0772964 -0.079744 0)
(0.0582804 -0.0948628 0)
(0.061682 -0.122141 0)
(0.0364681 -0.139192 0)
(0.0416763 -0.173866 0)
(0.00824925 -0.190585 0)
(0.0160529 -0.263378 0)
(-0.0286661 -0.367371 0)
(-0.00276364 -0.493429 0)
(-0.00170824 0.00597415 0)
(0.020289 0.0790587 0)
(0.0494727 0.151675 0)
(0.0727582 0.196713 0)
(0.091117 0.219569 0)
(0.105839 0.220565 0)
(0.114219 0.207526 0)
(0.121365 0.185388 0)
(0.123239 0.160627 0)
(0.127311 0.135016 0)
(0.126391 0.111929 0)
(0.13004 0.0894222 0)
(0.127196 0.0705015 0)
(0.130743 0.0512382 0)
(0.125353 0.0357353 0)
(0.128532 0.018623 0)
(0.119918 0.00547143 0)
(0.122709 -0.0107677 0)
(0.1104 -0.0227383 0)
(0.113078 -0.039779 0)
(0.0965085 -0.0520193 0)
(0.0994219 -0.0721349 0)
(0.0773925 -0.0861029 0)
(0.080763 -0.111755 0)
(0.0509986 -0.127426 0)
(0.0556105 -0.160214 0)
(0.0156617 -0.175632 0)
(0.024673 -0.245797 0)
(-0.0286205 -0.355311 0)
(0.00173782 -0.50889 0)
(-0.00207179 -0.00041338 0)
(0.0137378 0.0568988 0)
(0.0430057 0.125714 0)
(0.0699363 0.179061 0)
(0.093148 0.204612 0)
(0.112933 0.211363 0)
(0.126238 0.201644 0)
(0.138072 0.182406 0)
(0.143125 0.159472 0)
(0.150367 0.134624 0)
(0.150717 0.112289 0)
(0.156389 0.0899552 0)
(0.153545 0.0717491 0)
(0.158668 0.0528568 0)
(0.15256 0.0383548 0)
(0.157196 0.0218508 0)
(0.147368 0.00989552 0)
(0.151515 -0.00561097 0)
(0.137461 -0.0162852 0)
(0.14123 -0.0324278 0)
(0.122147 -0.0432083 0)
(0.125605 -0.0619712 0)
(0.0999016 -0.0741194 0)
(0.103051 -0.0975868 0)
(0.0680184 -0.111199 0)
(0.0718496 -0.141291 0)
(0.0245518 -0.155678 0)
(0.0350003 -0.22308 0)
(-0.0282015 -0.34009 0)
(0.00784178 -0.522096 0)
(0.00139308 -0.00580081 0)
(0.00909046 0.0329901 0)
(0.0328438 0.0955159 0)
(0.0603613 0.145542 0)
(0.0842576 0.176699 0)
(0.109524 0.186628 0)
(0.127252 0.182675 0)
(0.146005 0.167782 0)
(0.155534 0.148755 0)
(0.16852 0.126651 0)
(0.171336 0.106422 0)
(0.18121 0.085711 0)
(0.178889 0.0688083 0)
(0.187172 0.0512294 0)
(0.180323 0.037867 0)
(0.187516 0.0227018 0)
(0.17614 0.0119133 0)
(0.182401 -0.0021319 0)
(0.166136 -0.0115381 0)
(0.171499 -0.0259705 0)
(0.149438 -0.035235 0)
(0.153759 -0.0517719 0)
(0.124009 -0.0619717 0)
(0.127072 -0.0824276 0)
(0.0863911 -0.0938772 0)
(0.0892975 -0.120616 0)
(0.0342923 -0.135041 0)
(0.0460646 -0.198841 0)
(-0.0275128 -0.323266 0)
(0.0160779 -0.53205 0)
(-1.65013e-05 -0.0107548 0)
(0.00295642 0.0263672 0)
(0.0178433 0.0748931 0)
(0.0448145 0.128511 0)
(0.0728577 0.155805 0)
(0.103336 0.168517 0)
(0.127078 0.165791 0)
(0.152823 0.153811 0)
(0.167705 0.137855 0)
(0.187119 0.118282 0)
(0.193245 0.100647 0)
(0.208022 0.081748 0)
(0.207057 0.0669471 0)
(0.218861 0.0506849 0)
(0.211963 0.0392928 0)
(0.221719 0.0251901 0)
(0.209273 0.0164532 0)
(0.217417 0.0034012 0)
(0.199119 -0.0037097 0)
(0.205777 -0.0169377 0)
(0.180499 -0.0234398 0)
(0.185511 -0.0380622 0)
(0.15095 -0.0447984 0)
(0.15418 -0.0620165 0)
(0.10677 -0.0696851 0)
(0.110234 -0.0923984 0)
(0.0471171 -0.106725 0)
(0.0628646 -0.166743 0)
(-0.0214228 -0.302376 0)
(0.02878 -0.536853 0)
(0.00507219 -0.00849767 0)
(0.00546279 0.0137262 0)
(-0.00133973 0.0536659 0)
(0.0198157 0.0888482 0)
(0.0419941 0.118221 0)
(0.0794257 0.131054 0)
(0.107581 0.133633 0)
(0.143496 0.126126 0)
(0.164125 0.11517 0)
(0.193132 0.100101 0)
(0.203195 0.0863059 0)
(0.225786 0.0707929 0)
(0.226327 0.0587586 0)
(0.244274 0.0451093 0)
(0.236717 0.0358064 0)
(0.251472 0.0240658 0)
(0.236576 0.0170643 0)
(0.249051 0.00654942 0)
(0.22678 0.00105936 0)
(0.237415 -0.00905332 0)
(0.206886 -0.0138136 0)
(0.215772 -0.0243558 0)
(0.175118 -0.0291304 0)
(0.18249 -0.0413096 0)
(0.128898 -0.047662 0)
(0.137052 -0.0660465 0)
(0.0673518 -0.083653 0)
(0.0863747 -0.139332 0)
(-0.00775981 -0.28235 0)
(0.0472231 -0.530856 0)
(-0.0245524 -0.0233487 0)
(-0.0246291 0.0352992 0)
(-0.0209721 0.0606768 0)
(-0.0106249 0.087624 0)
(0.018814 0.0967248 0)
(0.0589663 0.103517 0)
(0.0923973 0.102485 0)
(0.13538 0.0968026 0)
(0.160974 0.0893464 0)
(0.197529 0.078411 0)
(0.211267 0.0693172 0)
(0.240394 0.0577655 0)
(0.242767 0.0499123 0)
(0.266027 0.0394112 0)
(0.258521 0.0336898 0)
(0.277745 0.0243367 0)
(0.261418 0.0206712 0)
(0.278117 0.0119863 0)
(0.253199 0.0100287 0)
(0.268571 0.00140709 0)
(0.234296 0.000811247 0)
(0.249453 -0.00832755 0)
(0.203803 -0.00801843 0)
(0.220302 -0.0184938 0)
(0.159728 -0.0190915 0)
(0.180804 -0.0345791 0)
(0.101152 -0.047999 0)
(0.135367 -0.0983026 0)
(0.0382606 -0.246691 0)
(0.0827603 -0.502276 0)
(-0.0864525 0.0469863 0)
(-0.089194 0.00737996 0)
(-0.120871 0.0398077 0)
(-0.0764158 0.0450782 0)
(-0.0554313 0.0482259 0)
(0.0022071 0.0552938 0)
(0.0361104 0.0577413 0)
(0.0923259 0.0561963 0)
(0.119277 0.0539103 0)
(0.169224 0.048533 0)
(0.183114 0.0443275 0)
(0.22672 0.0378921 0)
(0.227339 0.0339331 0)
(0.26653 0.0278161 0)
(0.255066 0.0248744 0)
(0.292306 0.0194932 0)
(0.269599 0.0175273 0)
(0.307314 0.0129306 0)
(0.273388 0.0115505 0)
(0.313862 0.00779083 0)
(0.267894 0.00640148 0)
(0.31337 0.00365093 0)
(0.253827 0.00128968 0)
(0.306579 -0.000733678 0)
(0.231524 -0.00675719 0)
(0.29326 -0.0136668 0)
(0.200475 -0.037471 0)
(0.267248 -0.0892846 0)
(0.144029 -0.224769 0)
(0.138659 -0.430595 0)
(0.0792347 0.138031 0)
(0.117599 0.0754263 0)
(0.153965 0.0487806 0)
(0.207122 0.0268866 0)
(0.223866 0.0191079 0)
(0.27385 0.0131446 0)
(0.290625 0.0130397 0)
(0.345378 0.0129587 0)
(0.358656 0.0134317 0)
(0.413835 0.0134286 0)
(0.419522 0.0131138 0)
(0.472428 0.0124371 0)
(0.468639 0.0116206 0)
(0.519103 0.0106261 0)
(0.505715 0.00966401 0)
(0.55482 0.00863723 0)
(0.532284 0.007724 0)
(0.581418 0.00673902 0)
(0.550151 0.00600966 0)
(0.600584 0.0049364 0)
(0.560763 0.00460255 0)
(0.613508 0.0029961 0)
(0.564868 0.00346633 0)
(0.620402 9.54727e-05 0)
(0.56092 0.00176666 0)
(0.616931 -0.00745217 0)
(0.534167 -0.00704304 0)
(0.570134 -0.0395828 0)
(0.392997 -0.0642965 0)
(0.289664 -0.196376 0)
)
;

boundaryField
{
    movingWall
    {
        type            fixedValue;
        value           uniform (1 0 0);
    }
    fixedWalls
    {
        type            noSlip;
    }
    frontAndBack
    {
        type            empty;
    }
}


// ************************************************************************* //
