/*--------------------------------*- C++ -*----------------------------------*\
| =========                 |                                                 |
| \\      /  F ield         | OpenFOAM: The Open Source CFD Toolbox           |
|  \\    /   O peration     | Version:  2406                                  |
|   \\  /    A nd           | Website:  www.openfoam.com                      |
|    \\/     M anipulation  |                                                 |
\*---------------------------------------------------------------------------*/
FoamFile
{
    version     2.0;
    format      ascii;
    arch        "LSB;label=32;scalar=64";
    class       volVectorField;
    location    "48.5";
    object      U;
}
// * * * * * * * * * * * * * * * * * * * * * * * * * * * * * * * * * * * * * //

dimensions      [0 1 -1 0 0 0 0];

internalField   nonuniform List<vector> 
4096
(
(-1.26617e-05 5.3121e-06 0)
(0.000393272 -0.000104069 0)
(0.001239 -0.000182484 0)
(0.00224959 -0.000202395 0)
(0.00321981 -0.000175456 0)
(0.0040052 -0.000127936 0)
(0.00454845 -8.23858e-05 0)
(0.00486714 -5.29826e-05 0)
(0.00502028 -4.47263e-05 0)
(0.00507479 -5.5149e-05 0)
(0.00507818 -7.74205e-05 0)
(0.00504524 -0.000102286 0)
(0.00495632 -0.000123532 0)
(0.00476442 -0.000138105 0)
(0.00440663 -0.000144699 0)
(0.00381251 -0.00014338 0)
(0.00290805 -0.000132619 0)
(0.00161648 -0.000110254 0)
(-0.00013933 -7.39223e-05 0)
(-0.00243495 -2.211e-05 0)
(-0.00533689 4.73313e-05 0)
(-0.00889343 0.000137355 0)
(-0.0131258 0.000255237 0)
(-0.0180164 0.000412022 0)
(-0.0235007 0.000616283 0)
(-0.0294629 0.000865461 0)
(-0.0357361 0.00114085 0)
(-0.0421055 0.00140966 0)
(-0.0483162 0.00163263 0)
(-0.054086 0.00177342 0)
(-0.0591239 0.00180579 0)
(-0.0631515 0.00171432 0)
(-0.0659206 0.00148958 0)
(-0.0672177 0.00113689 0)
(-0.0668552 0.000711251 0)
(-0.0646642 0.00021683 0)
(-0.0606186 -0.00033343 0)
(-0.0547667 -0.000902338 0)
(-0.0472362 -0.00144556 0)
(-0.0382538 -0.00191552 0)
(-0.028151 -0.00226412 0)
(-0.0173564 -0.0024461 0)
(-0.00634787 -0.00243374 0)
(0.00427396 -0.00223617 0)
(0.0139192 -0.00179786 0)
(0.0220746 -0.00117974 0)
(0.0282861 -0.000463978 0)
(0.0322782 0.000242275 0)
(0.0340003 0.000839835 0)
(0.0336097 0.00124721 0)
(0.0314739 0.00145455 0)
(0.0280917 0.00146173 0)
(0.0240053 0.00131253 0)
(0.0197233 0.00107972 0)
(0.0156385 0.000830225 0)
(0.0119965 0.000606526 0)
(0.00890775 0.000426853 0)
(0.00638211 0.000293611 0)
(0.00436688 0.000200722 0)
(0.00278249 0.000138334 0)
(0.00155553 9.28739e-05 0)
(0.000650488 4.39362e-05 0)
(8.05523e-05 -2.77355e-05 0)
(-7.7098e-05 -9.20056e-05 0)
(7.76464e-05 -0.000381431 0)
(0.00118067 -0.0012224 0)
(0.00305977 -0.00175648 0)
(0.00521269 -0.00187205 0)
(0.00723352 -0.00164981 0)
(0.00884386 -0.00124177 0)
(0.00991833 -0.000796686 0)
(0.0104612 -0.000419363 0)
(0.0105512 -0.000155024 0)
(0.0102813 6.75633e-06 0)
(0.00970814 0.000114881 0)
(0.00882103 0.000234289 0)
(0.00753624 0.000423488 0)
(0.00571405 0.000721647 0)
(0.00317873 0.00115271 0)
(-0.00026125 0.00172697 0)
(-0.0047993 0.00245035 0)
(-0.0106192 0.00332577 0)
(-0.0178746 0.00435056 0)
(-0.0266642 0.00551287 0)
(-0.036999 0.00678836 0)
(-0.04877 0.00812862 0)
(-0.0617307 0.00945342 0)
(-0.075503 0.0106535 0)
(-0.0896067 0.0116078 0)
(-0.103509 0.0122049 0)
(-0.116676 0.0123581 0)
(-0.128619 0.0120119 0)
(-0.138918 0.0111432 0)
(-0.147231 0.00975876 0)
(-0.153297 0.00789221 0)
(-0.15693 0.00560019 0)
(-0.158002 0.00295797 0)
(-0.156409 5.95181e-05 0)
(-0.152096 -0.00297911 0)
(-0.145079 -0.00610137 0)
(-0.135445 -0.0091951 0)
(-0.123335 -0.0121339 0)
(-0.108961 -0.0147727 0)
(-0.0926296 -0.0169561 0)
(-0.0747408 -0.0185262 0)
(-0.0557911 -0.0193355 0)
(-0.0363511 -0.019269 0)
(-0.0170828 -0.0182872 0)
(0.00127164 -0.0163352 0)
(0.0179426 -0.0135167 0)
(0.0322324 -0.00998734 0)
(0.043559 -0.0060811 0)
(0.0515462 -0.00215334 0)
(0.0560482 0.00141472 0)
(0.0571661 0.00429894 0)
(0.0552219 0.00632006 0)
(0.0508179 0.00741049 0)
(0.0447392 0.00764957 0)
(0.0378038 0.00723903 0)
(0.0307333 0.00642783 0)
(0.0240681 0.00544403 0)
(0.0181347 0.00445615 0)
(0.0130667 0.00356478 0)
(0.00886391 0.0028048 0)
(0.00546438 0.00214784 0)
(0.00282071 0.00150938 0)
(0.00096492 0.000796518 0)
(3.14141e-05 9.68648e-05 0)
(0.00015243 -0.00117244 0)
(0.00176185 -0.00308624 0)
(0.00426076 -0.00416804 0)
(0.00699045 -0.00432504 0)
(0.00943581 -0.00375003 0)
(0.011264 -0.00275823 0)
(0.012323 -0.00165494 0)
(0.0125993 -0.000654077 0)
(0.0121502 0.000153622 0)
(0.0110336 0.000796352 0)
(0.00924842 0.00138667 0)
(0.00670308 0.0020702 0)
(0.00321337 0.00298361 0)
(-0.00146909 0.00422206 0)
(-0.00762782 0.00583845 0)
(-0.0155481 0.00785298 0)
(-0.025475 0.0102597 0)
(-0.0375688 0.013025 0)
(-0.0518433 0.0160683 0)
(-0.0681078 0.019238 0)
(-0.0859414 0.022303 0)
(-0.104728 0.0249829 0)
(-0.123748 0.027009 0)
(-0.142289 0.0281821 0)
(-0.159729 0.0283973 0)
(-0.175575 0.0276363 0)
(-0.18946 0.0259411 0)
(-0.201131 0.0233875 0)
(-0.210416 0.020065 0)
(-0.217207 0.0160669 0)
(-0.221436 0.0114914 0)
(-0.223068 0.00645021 0)
(-0.22209 0.00107389 0)
(-0.218518 -0.00451315 0)
(-0.212333 -0.0102519 0)
(-0.203618 -0.0160055 0)
(-0.192398 -0.0216213 0)
(-0.17877 -0.0269178 0)
(-0.162866 -0.0316873 0)
(-0.144889 -0.035696 0)
(-0.12512 -0.0386954 0)
(-0.103933 -0.0404396 0)
(-0.0817926 -0.0407174 0)
(-0.0592671 -0.0393946 0)
(-0.0370148 -0.0364247 0)
(-0.0157458 -0.0318721 0)
(0.00374221 -0.0259513 0)
(0.0207307 -0.0190489 0)
(0.0346701 -0.0116737 0)
(0.0451255 -0.00443003 0)
(0.0519297 0.00208952 0)
(0.055136 0.00740514 0)
(0.054968 0.0112465 0)
(0.0519456 0.013515 0)
(0.0467839 0.0143148 0)
(0.040276 0.0139241 0)
(0.0331885 0.0127188 0)
(0.0261603 0.0110808 0)
(0.0196378 0.00932294 0)
(0.0138692 0.00763709 0)
(0.00895471 0.00606722 0)
(0.00493789 0.00451236 0)
(0.00192998 0.00279421 0)
(0.000164482 0.0008834 0)
(0.000204392 -0.00221326 0)
(0.00214233 -0.00540081 0)
(0.00496802 -0.00701272 0)
(0.0078711 -0.00706489 0)
(0.010259 -0.00592998 0)
(0.0117845 -0.00412454 0)
(0.0122995 -0.00212106 0)
(0.0117788 -0.000233588 0)
(0.0102379 0.00142161 0)
(0.0076571 0.00292042 0)
(0.00392489 0.00446473 0)
(-0.00117813 0.00630282 0)
(-0.00796217 0.00865217 0)
(-0.0167798 0.0116562 0)
(-0.0279635 0.0153697 0)
(-0.0417556 0.0197658 0)
(-0.0582177 0.024721 0)
(-0.0771423 0.0299868 0)
(-0.0980086 0.0351807 0)
(-0.120039 0.0398414 0)
(-0.142346 0.0435398 0)
(-0.164105 0.0459739 0)
(-0.184648 0.046999 0)
(-0.203497 0.046603 0)
(-0.220339 0.0448624 0)
(-0.234995 0.0419022 0)
(-0.247375 0.0378659 0)
(-0.257453 0.0328963 0)
(-0.26523 0.0271257 0)
(-0.270717 0.0206733 0)
(-0.273918 0.0136523 0)
(-0.274823 0.00618001 0)
(-0.273432 -0.00162486 0)
(-0.269808 -0.00967137 0)
(-0.263897 -0.0178794 0)
(-0.25569 -0.0260856 0)
(-0.245149 -0.0341246 0)
(-0.232273 -0.0417764 0)
(-0.217084 -0.0487862 0)
(-0.199654 -0.054852 0)
(-0.180123 -0.0596404 0)
(-0.158722 -0.0628035 0)
(-0.135786 -0.064016 0)
(-0.111775 -0.0630229 0)
(-0.0872726 -0.0596819 0)
(-0.0629801 -0.0540195 0)
(-0.0396901 -0.0462819 0)
(-0.0181818 -0.0368757 0)
(0.000782459 -0.0264634 0)
(0.0166044 -0.015802 0)
(0.0288981 -0.00565529 0)
(0.0375499 0.00326419 0)
(0.0426371 0.0104328 0)
(0.044385 0.0155716 0)
(0.0432364 0.0186237 0)
(0.0397893 0.01976 0)
(0.0347391 0.0193444 0)
(0.0287936 0.0178516 0)
(0.0225779 0.0157574 0)
(0.0165678 0.013431 0)
(0.0110812 0.0110475 0)
(0.00633533 0.00854458 0)
(0.00259694 0.00566164 0)
(0.000257527 0.00212768 0)
(0.000249419 -0.00342369 0)
(0.00238654 -0.00795196 0)
(0.00528796 -0.00995674 0)
(0.00800764 -0.00965759 0)
(0.0099033 -0.00768887 0)
(0.0106438 -0.00480574 0)
(0.0101022 -0.0016419 0)
(0.00823764 0.00141745 0)
(0.00500107 0.00428108 0)
(0.000257861 0.00711761 0)
(-0.00625394 0.0102428 0)
(-0.0148989 0.0140052 0)
(-0.0260796 0.0186699 0)
(-0.0401391 0.0243547 0)
(-0.057247 0.0309923 0)
(-0.0772803 0.0383112 0)
(-0.0997421 0.0458304 0)
(-0.123793 0.0529223 0)
(-0.14842 0.0589584 0)
(-0.172657 0.0634598 0)
(-0.195739 0.0661663 0)
(-0.217141 0.0670169 0)
(-0.236556 0.0660903 0)
(-0.253833 0.0635445 0)
(-0.268926 0.0595708 0)
(-0.281855 0.0543636 0)
(-0.29267 0.0481038 0)
(-0.301433 0.0409508 0)
(-0.308204 0.0330398 0)
(-0.313024 0.0244864 0)
(-0.315906 0.0153921 0)
(-0.316851 0.0058484 0)
(-0.315871 -0.00406799 0)
(-0.312992 -0.014292 0)
(-0.308165 -0.0246983 0)
(-0.301312 -0.0351573 0)
(-0.292349 -0.0454884 0)
(-0.28119 -0.0554645 0)
(-0.267754 -0.0647961 0)
(-0.251981 -0.0731325 0)
(-0.233858 -0.0800658 0)
(-0.213442 -0.0851506 0)
(-0.190895 -0.087938 0)
(-0.166515 -0.0880281 0)
(-0.140767 -0.0851355 0)
(-0.1143 -0.0791655 0)
(-0.0879303 -0.0702834 0)
(-0.062579 -0.0589467 0)
(-0.0391891 -0.0459141 0)
(-0.0185771 -0.0321059 0)
(-0.00133579 -0.0185232 0)
(0.0122234 -0.00603764 0)
(0.0221015 0.00462348 0)
(0.0284766 0.0129909 0)
(0.0316353 0.0188778 0)
(0.0319852 0.0223208 0)
(0.0300477 0.0235844 0)
(0.0264293 0.0231142 0)
(0.0217587 0.0214405 0)
(0.0166129 0.0190469 0)
(0.0114693 0.0162273 0)
(0.00672075 0.0129751 0)
(0.00281013 0.00895684 0)
(0.000286056 0.00361804 0)
(0.000295806 -0.00474749 0)
(0.00251175 -0.0105584 0)
(0.00522747 -0.0127006 0)
(0.00739965 -0.0117124 0)
(0.00837542 -0.00857603 0)
(0.00786729 -0.00431258 0)
(0.00576888 0.000307424 0)
(0.00200694 0.00488497 0)
(-0.00355826 0.00941953 0)
(-0.0112115 0.014205 0)
(-0.0213644 0.0196738 0)
(-0.0344536 0.0262155 0)
(-0.0508097 0.0340199 0)
(-0.0704979 0.04298 0)
(-0.0931863 0.0526599 0)
(-0.118112 0.0623486 0)
(-0.144206 0.071216 0)
(-0.170343 0.0785275 0)
(-0.195571 0.0837996 0)
(-0.219226 0.0868297 0)
(-0.240912 0.087635 0)
(-0.260442 0.0863683 0)
(-0.277768 0.0832507 0)
(-0.292924 0.0785257 0)
(-0.30599 0.0724304 0)
(-0.317065 0.0651808 0)
(-0.326258 0.0569637 0)
(-0.333672 0.047935 0)
(-0.339399 0.0382217 0)
(-0.34351 0.0279246 0)
(-0.34605 0.0171204 0)
(-0.347052 0.0058624 0)
(-0.346551 -0.0058089 0)
(-0.344566 -0.0178311 0)
(-0.341054 -0.0301054 0)
(-0.335923 -0.0425208 0)
(-0.329063 -0.0549176 0)
(-0.320324 -0.0670817 0)
(-0.309537 -0.0787233 0)
(-0.296515 -0.0894704 0)
(-0.281077 -0.0988653 0)
(-0.263073 -0.106377 0)
(-0.242427 -0.111431 0)
(-0.219187 -0.113464 0)
(-0.193587 -0.111998 0)
(-0.166107 -0.106735 0)
(-0.137495 -0.0976579 0)
(-0.108763 -0.0851244 0)
(-0.0810905 -0.0699022 0)
(-0.0556694 -0.0531008 0)
(-0.0334899 -0.036012 0)
(-0.0151689 -0.0198536 0)
(-0.000876791 -0.00556395 0)
(0.0095919 0.00622724 0)
(0.0165827 0.0152192 0)
(0.0204736 0.021375 0)
(0.0216948 0.0248735 0)
(0.0207343 0.0260862 0)
(0.0181402 0.02551 0)
(0.014485 0.0236547 0)
(0.0103188 0.0208705 0)
(0.00615887 0.0171808 0)
(0.00258632 0.0121882 0)
(0.000254064 0.00509582 0)
(0.000340827 -0.00612406 0)
(0.00248047 -0.0130141 0)
(0.00470446 -0.0149158 0)
(0.00593788 -0.0128243 0)
(0.0055652 -0.00814468 0)
(0.00336115 -0.00216203 0)
(-0.000770525 0.00425169 0)
(-0.00696617 0.0107759 0)
(-0.0154891 0.0175468 0)
(-0.0267584 0.0249872 0)
(-0.0412336 0.0335718 0)
(-0.059229 0.0435642 0)
(-0.0807175 0.0548367 0)
(-0.105195 0.0668196 0)
(-0.1317 0.0786102 0)
(-0.159012 0.0892161 0)
(-0.18595 0.0978221 0)
(-0.211594 0.103945 0)
(-0.235349 0.107426 0)
(-0.256902 0.108344 0)
(-0.276137 0.106911 0)
(-0.293062 0.1034 0)
(-0.307759 0.0981038 0)
(-0.320349 0.0913037 0)
(-0.330979 0.0832561 0)
(-0.339803 0.0741836 0)
(-0.346979 0.0642717 0)
(-0.352655 0.0536696 0)
(-0.356969 0.0424927 0)
(-0.360037 0.0308241 0)
(-0.361955 0.018713 0)
(-0.3628 0.00617769 0)
(-0.362624 -0.00677165 0)
(-0.361453 -0.0200942 0)
(-0.359263 -0.033735 0)
(-0.355986 -0.0476221 0)
(-0.351507 -0.0616433 0)
(-0.345655 -0.07563 0)
(-0.338206 -0.0893325 0)
(-0.328876 -0.102403 0)
(-0.31734 -0.114382 0)
(-0.303248 -0.124693 0)
(-0.286267 -0.132663 0)
(-0.266137 -0.137565 0)
(-0.242744 -0.138694 0)
(-0.216224 -0.135471 0)
(-0.187053 -0.127574 0)
(-0.156121 -0.11508 0)
(-0.124712 -0.0985822 0)
(-0.0943913 -0.0792212 0)
(-0.0667422 -0.0585659 0)
(-0.0430278 -0.0383135 0)
(-0.0238979 -0.0199041 0)
(-0.00932767 -0.00427095 0)
(0.00114699 0.00814981 0)
(0.00811146 0.0173124 0)
(0.0120989 0.0233718 0)
(0.0135877 0.02668 0)
(0.0130691 0.0276774 0)
(0.01108 0.0268408 0)
(0.00818386 0.0245115 0)
(0.0049619 0.0207027 0)
(0.00206852 0.0149642 0)
(0.000185591 0.00635412 0)
(0.000373711 -0.00746036 0)
(0.00221988 -0.0150546 0)
(0.00359398 -0.0162263 0)
(0.00347947 -0.0125731 0)
(0.00134945 -0.00596584 0)
(-0.00296904 0.00208216 0)
(-0.00957751 0.0106914 0)
(-0.0186912 0.0196648 0)
(-0.0306981 0.0292888 0)
(-0.0460459 0.0400419 0)
(-0.0650395 0.0522482 0)
(-0.0876003 0.065793 0)
(-0.11312 0.0800266 0)
(-0.14051 0.0939031 0)
(-0.16845 0.106291 0)
(-0.195711 0.116291 0)
(-0.221378 0.123398 0)
(-0.244889 0.127478 0)
(-0.265969 0.128648 0)
(-0.284535 0.12717 0)
(-0.300625 0.123368 0)
(-0.314359 0.11759 0)
(-0.325901 0.11017 0)
(-0.335449 0.101416 0)
(-0.343212 0.0915954 0)
(-0.349403 0.0809333 0)
(-0.35423 0.0696091 0)
(-0.357883 0.0577596 0)
(-0.360534 0.0454826 0)
(-0.362336 0.0328388 0)
(-0.363423 0.0198524 0)
(-0.363898 0.00651752 0)
(-0.363829 -0.00718099 0)
(-0.363243 -0.0212395 0)
(-0.362149 -0.0356505 0)
(-0.36052 -0.0503961 0)
(-0.358273 -0.0654267 0)
(-0.355264 -0.0806434 0)
(-0.351273 -0.0958722 0)
(-0.345995 -0.11084 0)
(-0.339031 -0.125147 0)
(-0.329901 -0.138249 0)
(-0.318059 -0.149452 0)
(-0.302948 -0.157924 0)
(-0.284072 -0.162755 0)
(-0.261109 -0.163054 0)
(-0.234046 -0.158095 0)
(-0.203339 -0.147495 0)
(-0.170026 -0.131414 0)
(-0.135743 -0.11071 0)
(-0.102557 -0.0869821 0)
(-0.072589 -0.0623612 0)
(-0.0474628 -0.0390365 0)
(-0.027858 -0.0186765 0)
(-0.0134865 -0.00211724 0)
(-0.00353847 0.0105197 0)
(0.00287652 0.0194812 0)
(0.00645934 0.0251684 0)
(0.00775613 0.0280409 0)
(0.00731693 0.0285426 0)
(0.00570608 0.0269731 0)
(0.00352704 0.0233089 0)
(0.00144652 0.0170685 0)
(0.00011016 0.00728241 0)
(0.00037761 -0.00861472 0)
(0.00164645 -0.0163488 0)
(0.00177688 -0.0162215 0)
(-9.04839e-05 -0.010554 0)
(-0.00435448 -0.00164718 0)
(-0.011126 0.00882491 0)
(-0.0205598 0.0200592 0)
(-0.0329575 0.0319966 0)
(-0.0487215 0.045006 0)
(-0.0681459 0.0594326 0)
(-0.0911477 0.0752052 0)
(-0.117089 0.0916566 0)
(-0.144822 0.107648 0)
(-0.172959 0.12192 0)
(-0.200215 0.133468 0)
(-0.225644 0.141731 0)
(-0.248678 0.146567 0)
(-0.269046 0.14812 0)
(-0.286679 0.146694 0)
(-0.301641 0.142671 0)
(-0.314086 0.136459 0)
(-0.324229 0.128459 0)
(-0.332324 0.119039 0)
(-0.33864 0.108522 0)
(-0.343449 0.0971802 0)
(-0.347006 0.0852274 0)
(-0.349543 0.0728257 0)
(-0.351266 0.0600886 0)
(-0.352353 0.0470874 0)
(-0.352961 0.0338563 0)
(-0.353225 0.0203982 0)
(-0.353255 0.00669272 0)
(-0.353112 -0.00729126 0)
(-0.352825 -0.021585 0)
(-0.352436 -0.0362263 0)
(-0.351962 -0.0512457 0)
(-0.351376 -0.0666532 0)
(-0.350596 -0.0824223 0)
(-0.34947 -0.09847 0)
(-0.347751 -0.114629 0)
(-0.345079 -0.130617 0)
(-0.340962 -0.146002 0)
(-0.334773 -0.160169 0)
(-0.325766 -0.17231 0)
(-0.313132 -0.181426 0)
(-0.296099 -0.186396 0)
(-0.274082 -0.18609 0)
(-0.246873 -0.179567 0)
(-0.214864 -0.16632 0)
(-0.179241 -0.146556 0)
(-0.142043 -0.121427 0)
(-0.105958 -0.0930842 0)
(-0.0737739 -0.0643726 0)
(-0.0475485 -0.0380839 0)
(-0.0279403 -0.0160956 0)
(-0.01428 0.000982743 0)
(-0.00529747 0.0134473 0)
(0.000183629 0.0218662 0)
(0.00302786 0.0268594 0)
(0.0039068 0.0289103 0)
(0.00342847 0.0283024 0)
(0.00220872 0.0249833 0)
(0.000891005 0.0184732 0)
(5.15389e-05 0.00787699 0)
(0.00033351 -0.00939639 0)
(0.000692928 -0.0165207 0)
(-0.000820503 -0.0145103 0)
(-0.00479455 -0.00640369 0)
(-0.0114681 0.00514715 0)
(-0.0209443 0.0183959 0)
(-0.033425 0.0326457 0)
(-0.0492248 0.0479507 0)
(-0.0686129 0.0645914 0)
(-0.0915348 0.0825475 0)
(-0.117391 0.101194 0)
(-0.14504 0.119352 0)
(-0.173058 0.13565 0)
(-0.200093 0.148945 0)
(-0.225137 0.158577 0)
(-0.247582 0.164363 0)
(-0.267139 0.166454 0)
(-0.283743 0.165196 0)
(-0.29748 0.161031 0)
(-0.308544 0.15444 0)
(-0.317207 0.145899 0)
(-0.323784 0.13585 0)
(-0.328605 0.124678 0)
(-0.331995 0.112704 0)
(-0.334252 0.10018 0)
(-0.335637 0.0872946 0)
(-0.336372 0.0741757 0)
(-0.336639 0.0609029 0)
(-0.336588 0.0475149 0)
(-0.336346 0.0340184 0)
(-0.336021 0.0203986 0)
(-0.335697 0.00662746 0)
(-0.335422 -0.00733304 0)
(-0.335227 -0.0215392 0)
(-0.33517 -0.036057 0)
(-0.335297 -0.0509427 0)
(-0.33563 -0.0662449 0)
(-0.336162 -0.0819916 0)
(-0.336833 -0.098179 0)
(-0.337513 -0.114748 0)
(-0.337965 -0.131553 0)
(-0.337814 -0.148325 0)
(-0.33651 -0.164624 0)
(-0.333309 -0.179789 0)
(-0.327284 -0.192912 0)
(-0.317373 -0.202827 0)
(-0.302502 -0.208173 0)
(-0.281774 -0.207526 0)
(-0.25473 -0.199647 0)
(-0.221653 -0.183821 0)
(-0.183862 -0.160253 0)
(-0.143842 -0.130421 0)
(-0.105012 -0.0971782 0)
(-0.0709544 -0.0642834 0)
(-0.0441794 -0.0352472 0)
(-0.0251813 -0.0120712 0)
(-0.0127339 0.00504291 0)
(-0.00507321 0.0168789 0)
(-0.000745939 0.024355 0)
(0.0012577 0.0281671 0)
(0.00170179 0.0286792 0)
(0.00124719 0.0258676 0)
(0.000516243 0.0192989 0)
(2.3157e-05 0.00821551 0)
(0.000226072 -0.00957957 0)
(-0.00068212 -0.0152051 0)
(-0.00418374 -0.0107493 0)
(-0.0105138 0.000160129 0)
(-0.0197708 0.0146348 0)
(-0.0320636 0.0309404 0)
(-0.0475981 0.0484896 0)
(-0.0665899 0.0673164 0)
(-0.0890225 0.0874072 0)
(-0.114386 0.10822 0)
(-0.141611 0.128599 0)
(-0.169275 0.147079 0)
(-0.195963 0.162359 0)
(-0.220577 0.173627 0)
(-0.24244 0.180614 0)
(-0.261228 0.183458 0)
(-0.276868 0.182536 0)
(-0.289465 0.178356 0)
(-0.299258 0.17148 0)
(-0.306576 0.162473 0)
(-0.311796 0.151856 0)
(-0.31531 0.140085 0)
(-0.317487 0.127535 0)
(-0.318662 0.114497 0)
(-0.319116 0.101181 0)
(-0.319075 0.0877292 0)
(-0.318716 0.0742257 0)
(-0.31817 0.0607103 0)
(-0.317537 0.0471888 0)
(-0.316895 0.0336442 0)
(-0.316311 0.0200476 0)
(-0.315832 0.00636504 0)
(-0.31549 -0.00744457 0)
(-0.315316 -0.0214427 0)
(-0.315363 -0.0356972 0)
(-0.315685 -0.0502697 0)
(-0.316336 -0.0652215 0)
(-0.317358 -0.0806078 0)
(-0.318776 -0.0964728 0)
(-0.320571 -0.112835 0)
(-0.322654 -0.129668 0)
(-0.324826 -0.146863 0)
(-0.32673 -0.164186 0)
(-0.327803 -0.181214 0)
(-0.327229 -0.197271 0)
(-0.323933 -0.211368 0)
(-0.316622 -0.222176 0)
(-0.303915 -0.228068 0)
(-0.284573 -0.227268 0)
(-0.257837 -0.218151 0)
(-0.223836 -0.199698 0)
(-0.184009 -0.172067 0)
(-0.141337 -0.137136 0)
(-0.100099 -0.0986774 0)
(-0.0647797 -0.0616377 0)
(-0.0382642 -0.0303168 0)
(-0.0205933 -0.00661761 0)
(-0.00980206 0.00989996 0)
(-0.00366926 0.0205543 0)
(-0.000551533 0.0264839 0)
(0.000652127 0.0283221 0)
(0.000743235 0.0261869 0)
(0.000369012 0.0197516 0)
(2.83159e-05 0.00841884 0)
(3.94612e-05 -0.00892536 0)
(-0.00245625 -0.0120821 0)
(-0.00818872 -0.0046956 0)
(-0.0170095 0.00928756 0)
(-0.0288823 0.0268735 0)
(-0.043921 0.0464028 0)
(-0.0622605 0.0673258 0)
(-0.0839036 0.0894844 0)
(-0.108457 0.112415 0)
(-0.13498 0.135041 0)
(-0.162108 0.155853 0)
(-0.188382 0.173378 0)
(-0.212599 0.186604 0)
(-0.233984 0.195119 0)
(-0.252154 0.199008 0)
(-0.267018 0.198667 0)
(-0.278693 0.194668 0)
(-0.287457 0.18766 0)
(-0.293691 0.178303 0)
(-0.297833 0.167213 0)
(-0.30033 0.154924 0)
(-0.301598 0.14187 0)
(-0.301997 0.128381 0)
(-0.301821 0.11469 0)
(-0.301295 0.100948 0)
(-0.300584 0.0872408 0)
(-0.299798 0.0736054 0)
(-0.29901 0.0600445 0)
(-0.298266 0.0465379 0)
(-0.2976 0.0330528 0)
(-0.297035 0.019552 0)
(-0.296591 0.00599881 0)
(-0.296282 -0.00764666 0)
(-0.296136 -0.0214377 0)
(-0.296195 -0.0354297 0)
(-0.296511 -0.0496768 0)
(-0.297145 -0.0642352 0)
(-0.298166 -0.0791627 0)
(-0.299641 -0.0945192 0)
(-0.301624 -0.110361 0)
(-0.304137 -0.126731 0)
(-0.307139 -0.143639 0)
(-0.310482 -0.161022 0)
(-0.313851 -0.178697 0)
(-0.316697 -0.196281 0)
(-0.318175 -0.213102 0)
(-0.317105 -0.22811 0)
(-0.311996 -0.239813 0)
(-0.301177 -0.246293 0)
(-0.28306 -0.245364 0)
(-0.256556 -0.234922 0)
(-0.221614 -0.213558 0)
(-0.179802 -0.181367 0)
(-0.134689 -0.140778 0)
(-0.0915694 -0.0968327 0)
(-0.0559137 -0.0559891 0)
(-0.0307054 -0.0232496 0)
(-0.0151083 1.49686e-05 0)
(-0.00630776 0.0151263 0)
(-0.00177415 0.0238586 0)
(0.000182821 0.027391 0)
(0.000661151 0.0261671 0)
(0.000433246 0.0200547 0)
(6.24838e-05 0.00861451 0)
(-0.0002302 -0.00720806 0)
(-0.00456164 -0.00689718 0)
(-0.0126179 0.00380527 0)
(-0.0239076 0.0209884 0)
(-0.0382895 0.0417471 0)
(-0.0558113 0.0644962 0)
(-0.0764688 0.0886006 0)
(-0.099979 0.113561 0)
(-0.125574 0.138413 0)
(-0.152009 0.161664 0)
(-0.177826 0.18169 0)
(-0.20172 0.197237 0)
(-0.22279 0.20768 0)
(-0.240567 0.212995 0)
(-0.254921 0.21357 0)
(-0.265968 0.210026 0)
(-0.274009 0.203101 0)
(-0.279472 0.19356 0)
(-0.282849 0.182125 0)
(-0.284639 0.169417 0)
(-0.285296 0.15594 0)
(-0.285206 0.142068 0)
(-0.284674 0.128059 0)
(-0.283919 0.114071 0)
(-0.28309 0.100189 0)
(-0.282279 0.0864446 0)
(-0.281533 0.0728344 0)
(-0.280873 0.0593334 0)
(-0.280305 0.0459053 0)
(-0.279828 0.0325102 0)
(-0.279439 0.0191098 0)
(-0.279138 0.00566915 0)
(-0.278932 -0.00784667 0)
(-0.278844 -0.0214797 0)
(-0.278903 -0.0352699 0)
(-0.279153 -0.0492576 0)
(-0.279652 -0.0634856 0)
(-0.28047 -0.0780014 0)
(-0.281687 -0.0928596 0)
(-0.283391 -0.108123 0)
(-0.285661 -0.123861 0)
(-0.288555 -0.140141 0)
(-0.292076 -0.157011 0)
(-0.296125 -0.174461 0)
(-0.300434 -0.192364 0)
(-0.304488 -0.210386 0)
(-0.307431 -0.227869 0)
(-0.308009 -0.243702 0)
(-0.304565 -0.256219 0)
(-0.295165 -0.26318 0)
(-0.277885 -0.261917 0)
(-0.251305 -0.249769 0)
(-0.215208 -0.224868 0)
(-0.171354 -0.187305 0)
(-0.124055 -0.140358 0)
(-0.0798484 -0.09087 0)
(-0.0451611 -0.0471175 0)
(-0.0224823 -0.0143519 0)
(-0.00957837 0.00726326 0)
(-0.00293808 0.0200061 0)
(4.37016e-06 0.0258917 0)
(0.000850719 0.0259536 0)
(0.000643726 0.0203848 0)
(0.000116377 0.00890617 0)
(-0.000563883 -0.00426642 0)
(-0.00683391 0.000475773 0)
(-0.0171894 0.014739 0)
(-0.0308169 0.0351102 0)
(-0.0474269 0.058961 0)
(-0.0669915 0.0847273 0)
(-0.0893097 0.111563 0)
(-0.113797 0.138545 0)
(-0.139389 0.164263 0)
(-0.164696 0.186997 0)
(-0.18834 0.205234 0)
(-0.209278 0.218064 0)
(-0.226919 0.225275 0)
(-0.241067 0.227191 0)
(-0.251811 0.224461 0)
(-0.259461 0.217905 0)
(-0.264475 0.208397 0)
(-0.267392 0.196773 0)
(-0.268753 0.183761 0)
(-0.269054 0.169946 0)
(-0.268706 0.155756 0)
(-0.26802 0.141478 0)
(-0.267215 0.127284 0)
(-0.266427 0.113256 0)
(-0.265727 0.099419 0)
(-0.265145 0.0857606 0)
(-0.264679 0.0722486 0)
(-0.264316 0.058842 0)
(-0.264038 0.0454986 0)
(-0.263825 0.0321791 0)
(-0.263664 0.018849 0)
(-0.263546 0.00547815 0)
(-0.263476 -0.00796175 0)
(-0.26347 -0.0214994 0)
(-0.26355 -0.0351605 0)
(-0.26375 -0.0489721 0)
(-0.264116 -0.0629624 0)
(-0.264711 -0.0771649 0)
(-0.265606 -0.0916204 0)
(-0.26689 -0.106382 0)
(-0.268662 -0.121516 0)
(-0.271021 -0.137106 0)
(-0.274057 -0.153248 0)
(-0.27781 -0.17003 0)
(-0.282231 -0.187499 0)
(-0.287098 -0.205586 0)
(-0.291924 -0.224006 0)
(-0.295847 -0.242103 0)
(-0.297544 -0.258688 0)
(-0.295206 -0.271882 0)
(-0.28665 -0.279056 0)
(-0.26964 -0.27699 0)
(-0.242465 -0.262379 0)
(-0.204806 -0.232889 0)
(-0.158761 -0.18879 0)
(-0.109663 -0.134767 0)
(-0.0655762 -0.0802102 0)
(-0.0335678 -0.0352579 0)
(-0.0145807 -0.00431234 0)
(-0.00473601 0.0143028 0)
(-0.000297502 0.0236078 0)
(0.00108735 0.0255459 0)
(0.000905035 0.020822 0)
(0.00017845 0.00935119 0)
(-0.000918688 -9.31325e-06 0)
(-0.00910862 0.0100171 0)
(-0.0216061 0.0279082 0)
(-0.0372955 0.0513473 0)
(-0.0557328 0.0780708 0)
(-0.0767858 0.106466 0)
(-0.100036 0.135387 0)
(-0.124637 0.163487 0)
(-0.149344 0.189032 0)
(-0.17277 0.21028 0)
(-0.193736 0.225979 0)
(-0.211496 0.235628 0)
(-0.225745 0.239405 0)
(-0.236521 0.237942 0)
(-0.244113 0.232118 0)
(-0.248991 0.222915 0)
(-0.251726 0.211294 0)
(-0.252901 0.198107 0)
(-0.25305 0.184038 0)
(-0.252611 0.169585 0)
(-0.251909 0.155077 0)
(-0.251162 0.140702 0)
(-0.2505 0.126547 0)
(-0.249979 0.112628 0)
(-0.249613 0.0989237 0)
(-0.249386 0.085392 0)
(-0.249269 0.071986 0)
(-0.249232 0.0586603 0)
(-0.249247 0.0453746 0)
(-0.24929 0.0320952 0)
(-0.249347 0.0187943 0)
(-0.249408 0.00544845 0)
(-0.249478 -0.00796335 0)
(-0.249569 -0.0214585 0)
(-0.249698 -0.0350524 0)
(-0.249891 -0.048761 0)
(-0.250183 -0.0626011 0)
(-0.25062 -0.0765925 0)
(-0.251259 -0.0907614 0)
(-0.252174 -0.105144 0)
(-0.25345 -0.119792 0)
(-0.255194 -0.134779 0)
(-0.25752 -0.150204 0)
(-0.260542 -0.166194 0)
(-0.264343 -0.182882 0)
(-0.268916 -0.200374 0)
(-0.274083 -0.218666 0)
(-0.279382 -0.23751 0)
(-0.283928 -0.256233 0)
(-0.286308 -0.273517 0)
(-0.284543 -0.287191 0)
(-0.276202 -0.294142 0)
(-0.258762 -0.290482 0)
(-0.230292 -0.272203 0)
(-0.190512 -0.236574 0)
(-0.142128 -0.184475 0)
(-0.0919344 -0.122943 0)
(-0.0497956 -0.0648228 0)
(-0.0224058 -0.0212979 0)
(-0.00787389 0.00579652 0)
(-0.00116329 0.0200854 0)
(0.00112919 0.0247662 0)
(0.00111687 0.0213248 0)
(0.000237533 0.00995072 0)
(-0.00126437 0.00555468 0)
(-0.011226 0.0215531 0)
(-0.0255904 0.0430299 0)
(-0.0429556 0.0692971 0)
(-0.0627342 0.0985415 0)
(-0.084672 0.129036 0)
(-0.108144 0.15929 0)
(-0.132118 0.187595 0)
(-0.155284 0.212056 0)
(-0.176373 0.231068 0)
(-0.194465 0.24374 0)
(-0.209101 0.249985 0)
(-0.220228 0.250339 0)
(-0.228085 0.245702 0)
(-0.233127 0.237147 0)
(-0.23594 0.225768 0)
(-0.237141 0.212556 0)
(-0.237303 0.198319 0)
(-0.236894 0.183649 0)
(-0.236262 0.168933 0)
(-0.235633 0.154389 0)
(-0.235133 0.140111 0)
(-0.234811 0.12611 0)
(-0.234669 0.112356 0)
(-0.23468 0.0987976 0)
(-0.234807 0.0853797 0)
(-0.235009 0.0720523 0)
(-0.235254 0.0587734 0)
(-0.235513 0.0455093 0)
(-0.235768 0.0322342 0)
(-0.236004 0.0189279 0)
(-0.236219 0.00557366 0)
(-0.236417 -0.00784239 0)
(-0.236608 -0.02133 0)
(-0.236806 -0.0348979 0)
(-0.237032 -0.0485547 0)
(-0.237311 -0.0623093 0)
(-0.237675 -0.0761722 0)
(-0.238167 -0.0901575 0)
(-0.238836 -0.104286 0)
(-0.239749 -0.118592 0)
(-0.240989 -0.133126 0)
(-0.242662 -0.14797 0)
(-0.244893 -0.163241 0)
(-0.24782 -0.179096 0)
(-0.251561 -0.195722 0)
(-0.256156 -0.213288 0)
(-0.261469 -0.231853 0)
(-0.267045 -0.251199 0)
(-0.271954 -0.270598 0)
(-0.274656 -0.288524 0)
(-0.272956 -0.302394 0)
(-0.264155 -0.308455 0)
(-0.24547 -0.302013 0)
(-0.21486 -0.278309 0)
(-0.172333 -0.234465 0)
(-0.121638 -0.172809 0)
(-0.071695 -0.104257 0)
(-0.0340888 -0.0456665 0)
(-0.0129203 -0.00675577 0)
(-0.00295345 0.014657 0)
(0.000776348 0.0232828 0)
(0.00120484 0.0217424 0)
(0.000287064 0.0106568 0)
(-0.0015748 0.0122785 0)
(-0.0130397 0.0347817 0)
(-0.0288969 0.0597145 0)
(-0.0474906 0.088486 0)
(-0.0680914 0.119805 0)
(-0.0903236 0.151787 0)
(-0.113396 0.182605 0)
(-0.13617 0.210289 0)
(-0.157373 0.232933 0)
(-0.175928 0.249193 0)
(-0.191188 0.258578 0)
(-0.202954 0.2614 0)
(-0.211381 0.258512 0)
(-0.216876 0.251043 0)
(-0.220015 0.240212 0)
(-0.221439 0.227165 0)
(-0.221755 0.212861 0)
(-0.221473 0.198016 0)
(-0.220968 0.183101 0)
(-0.220484 0.16838 0)
(-0.220153 0.153966 0)
(-0.220023 0.139871 0)
(-0.220088 0.126057 0)
(-0.220317 0.112462 0)
(-0.220664 0.0990212 0)
(-0.221083 0.0856798 0)
(-0.221538 0.0723921 0)
(-0.221998 0.0591237 0)
(-0.222442 0.0458493 0)
(-0.222855 0.0325511 0)
(-0.223232 0.0192156 0)
(-0.22357 0.00583258 0)
(-0.223876 -0.00760622 0)
(-0.224161 -0.0211058 0)
(-0.224436 -0.0346707 0)
(-0.224718 -0.0483052 0)
(-0.225027 -0.0620137 0)
(-0.225385 -0.0758015 0)
(-0.225821 -0.0896753 0)
(-0.226368 -0.103646 0)
(-0.227068 -0.117732 0)
(-0.227979 -0.131964 0)
(-0.229178 -0.146398 0)
(-0.230769 -0.161122 0)
(-0.232887 -0.176274 0)
(-0.23569 -0.192046 0)
(-0.239332 -0.20868 0)
(-0.243894 -0.226413 0)
(-0.249273 -0.245367 0)
(-0.255006 -0.265336 0)
(-0.26008 -0.285475 0)
(-0.262769 -0.30394 0)
(-0.260609 -0.317557 0)
(-0.250594 -0.321724 0)
(-0.229728 -0.310769 0)
(-0.196042 -0.279223 0)
(-0.150211 -0.224628 0)
(-0.097731 -0.152333 0)
(-0.050504 -0.0792351 0)
(-0.0203724 -0.0249007 0)
(-0.00588996 0.00648543 0)
(-8.30119e-05 0.0206509 0)
(0.00113074 0.0218493 0)
(0.000326134 0.0113922 0)
(-0.00180652 0.0199375 0)
(-0.0144178 0.0493304 0)
(-0.0313466 0.0775221 0)
(-0.0506988 0.108418 0)
(-0.071614 0.141315 0)
(-0.0936109 0.174155 0)
(-0.115783 0.20482 0)
(-0.136964 0.231195 0)
(-0.155994 0.251491 0)
(-0.172026 0.264694 0)
(-0.184665 0.270727 0)
(-0.193934 0.270267 0)
(-0.200157 0.264442 0)
(-0.203868 0.254565 0)
(-0.205708 0.24194 0)
(-0.206318 0.227706 0)
(-0.206249 0.212738 0)
(-0.205915 0.197624 0)
(-0.205591 0.182704 0)
(-0.205423 0.168125 0)
(-0.205466 0.153911 0)
(-0.205714 0.140015 0)
(-0.206131 0.126367 0)
(-0.206668 0.112892 0)
(-0.207277 0.0995268 0)
(-0.207916 0.0862204 0)
(-0.208555 0.0729364 0)
(-0.20917 0.0596492 0)
(-0.209747 0.0463416 0)
(-0.210279 0.0330025 0)
(-0.210762 0.0196241 0)
(-0.2112 0.00620123 0)
(-0.211598 -0.00726988 0)
(-0.211966 -0.0207913 0)
(-0.212317 -0.0343648 0)
(-0.212664 -0.0479923 0)
(-0.213024 -0.0616762 0)
(-0.213414 -0.075419 0)
(-0.213853 -0.0892246 0)
(-0.214363 -0.103098 0)
(-0.214968 -0.11705 0)
(-0.215704 -0.131096 0)
(-0.216618 -0.145269 0)
(-0.21778 -0.159626 0)
(-0.219294 -0.174267 0)
(-0.221304 -0.189351 0)
(-0.223989 -0.205115 0)
(-0.227537 -0.221861 0)
(-0.232069 -0.239902 0)
(-0.237497 -0.259413 0)
(-0.243317 -0.28016 0)
(-0.248375 -0.301094 0)
(-0.250692 -0.319879 0)
(-0.24746 -0.332507 0)
(-0.235351 -0.333255 0)
(-0.211248 -0.315321 0)
(-0.173546 -0.272771 0)
(-0.124175 -0.204774 0)
(-0.0714852 -0.12246 0)
(-0.0309134 -0.0504539 0)
(-0.0100861 -0.00543515 0)
(-0.00149173 0.0163466 0)
(0.000894915 0.0213813 0)
(0.000359837 0.012073 0)
(-0.00193259 0.028259 0)
(-0.0152792 0.0647784 0)
(-0.0328387 0.0959971 0)
(-0.0524887 0.128615 0)
(-0.0732548 0.162582 0)
(-0.094575 0.195686 0)
(-0.11548 0.225584 0)
(-0.134842 0.250125 0)
(-0.15166 0.267731 0)
(-0.16532 0.277758 0)
(-0.17565 0.280528 0)
(-0.182851 0.277044 0)
(-0.187376 0.268661 0)
(-0.189836 0.256824 0)
(-0.190887 0.242864 0)
(-0.191123 0.227856 0)
(-0.191008 0.212551 0)
(-0.190856 0.1974 0)
(-0.190843 0.182612 0)
(-0.191039 0.168235 0)
(-0.191444 0.154225 0)
(-0.192021 0.1405 0)
(-0.192719 0.126975 0)
(-0.193489 0.113574 0)
(-0.194288 0.100241 0)
(-0.195084 0.086934 0)
(-0.195852 0.0736265 0)
(-0.196579 0.0603007 0)
(-0.197256 0.046946 0)
(-0.197879 0.0335562 0)
(-0.198449 0.0201281 0)
(-0.198969 0.00666024 0)