/*--------------------------------*- C++ -*----------------------------------*\
| =========                 |                                                 |
| \\      /  F ield         | OpenFOAM: The Open Source CFD Toolbox           |
|  \\    /   O peration     | Version:  2406                                  |
|   \\  /    A nd           | Website:  www.openfoam.com                      |
|    \\/     M anipulation  |                                                 |
\*---------------------------------------------------------------------------*/
FoamFile
{
    version     2.0;
    format      ascii;
    arch        "LSB;label=32;scalar=64";
    class       volVectorField;
    location    "8.35";
    object      U;
}
// * * * * * * * * * * * * * * * * * * * * * * * * * * * * * * * * * * * * * //

dimensions      [0 1 -1 0 0 0 0];

internalField   nonuniform List<vector> 
14400
(
(2.50298e-06 -2.49195e-06 0)
(6.18921e-06 -5.47868e-07 0)
(-1.80231e-06 2.83815e-06 0)
(-2.30524e-05 6.20809e-06 0)
(-5.67262e-05 9.04954e-06 0)
(-0.000100668 1.12752e-05 0)
(-0.00015259 1.29268e-05 0)
(-0.000210442 1.4099e-05 0)
(-0.000272518 1.48949e-05 0)
(-0.000337478 1.54067e-05 0)
(-0.000404301 1.57116e-05 0)
(-0.000472245 1.58715e-05 0)
(-0.000540784 1.59339e-05 0)
(-0.000609562 1.59346e-05 0)
(-0.000678352 1.58993e-05 0)
(-0.000747019 1.58463e-05 0)
(-0.000815495 1.57876e-05 0)
(-0.000883755 1.57309e-05 0)
(-0.000951801 1.56806e-05 0)
(-0.00101965 1.56385e-05 0)
(-0.00108733 1.56051e-05 0)
(-0.00115486 1.55797e-05 0)
(-0.00122227 1.55607e-05 0)
(-0.00128957 1.55465e-05 0)
(-0.00135678 1.55349e-05 0)
(-0.0014239 1.55238e-05 0)
(-0.00149091 1.55109e-05 0)
(-0.00155781 1.5494e-05 0)
(-0.00162456 1.5471e-05 0)
(-0.00169114 1.54395e-05 0)
(-0.0017575 1.53976e-05 0)
(-0.00182359 1.53429e-05 0)
(-0.00188935 1.52732e-05 0)
(-0.00195471 1.51863e-05 0)
(-0.00201959 1.508e-05 0)
(-0.00208389 1.49519e-05 0)
(-0.00214753 1.47997e-05 0)
(-0.0022104 1.46211e-05 0)
(-0.00227237 1.44137e-05 0)
(-0.00233332 1.41751e-05 0)
(-0.00239311 1.39031e-05 0)
(-0.00245161 1.35953e-05 0)
(-0.00250864 1.32495e-05 0)
(-0.00256405 1.28635e-05 0)
(-0.00261767 1.24354e-05 0)
(-0.00266931 1.19632e-05 0)
(-0.0027188 1.14452e-05 0)
(-0.00276593 1.08801e-05 0)
(-0.0028105 1.02665e-05 0)
(-0.00285232 9.6036e-06 0)
(-0.00289119 8.89074e-06 0)
(-0.00292688 8.12773e-06 0)
(-0.00295921 7.31472e-06 0)
(-0.00298796 6.45233e-06 0)
(-0.00301293 5.5416e-06 0)
(-0.00303394 4.58406e-06 0)
(-0.00305079 3.58176e-06 0)
(-0.00306332 2.53719e-06 0)
(-0.00307134 1.45259e-06 0)
(-0.00307473 3.32667e-07 0)
(-0.00307334 -8.1441e-07 0)
(-0.00306705 -1.9899e-06 0)
(-0.00305578 -3.18798e-06 0)
(-0.00303945 -4.40173e-06 0)
(-0.00301801 -5.62521e-06 0)
(-0.00299144 -6.85205e-06 0)
(-0.00295974 -8.07552e-06 0)
(-0.00292295 -9.28869e-06 0)
(-0.00288113 -1.04844e-05 0)
(-0.00283436 -1.16555e-05 0)
(-0.00278276 -1.27948e-05 0)
(-0.0027265 -1.3895e-05 0)
(-0.00266573 -1.49493e-05 0)
(-0.00260066 -1.5951e-05 0)
(-0.00253153 -1.68937e-05 0)
(-0.00245858 -1.77715e-05 0)
(-0.00238211 -1.85791e-05 0)
(-0.0023024 -1.93117e-05 0)
(-0.00221977 -1.99651e-05 0)
(-0.00213455 -2.0536e-05 0)
(-0.00204709 -2.10216e-05 0)
(-0.00195773 -2.14202e-05 0)
(-0.00186684 -2.17305e-05 0)
(-0.00177478 -2.19522e-05 0)
(-0.00168191 -2.20858e-05 0)
(-0.00158859 -2.21325e-05 0)
(-0.00149517 -2.20939e-05 0)
(-0.001402 -2.19726e-05 0)
(-0.00130941 -2.17714e-05 0)
(-0.00121772 -2.14936e-05 0)
(-0.00112724 -2.11428e-05 0)
(-0.00103827 -2.07229e-05 0)
(-0.000951092 -2.02376e-05 0)
(-0.00086596 -1.9691e-05 0)
(-0.00078313 -1.90865e-05 0)
(-0.000702838 -1.84276e-05 0)
(-0.000625309 -1.77174e-05 0)
(-0.000550758 -1.69582e-05 0)
(-0.000479391 -1.61521e-05 0)
(-0.000411409 -1.53004e-05 0)
(-0.00034701 -1.44039e-05 0)
(-0.00028639 -1.34626e-05 0)
(-0.000229749 -1.24762e-05 0)
(-0.000177288 -1.14437e-05 0)
(-0.000129214 -1.03638e-05 0)
(-8.57415e-05 -9.23525e-06 0)
(-4.70875e-05 -8.05697e-06 0)
(-1.34718e-05 -6.82858e-06 0)
(1.48888e-05 -5.55099e-06 0)
(3.77896e-05 -4.22744e-06 0)
(5.50509e-05 -2.86461e-06 0)
(6.6542e-05 -1.47309e-06 0)
(7.22278e-05 -8.14345e-08 0)
(7.21596e-05 1.24266e-06 0)
(6.65858e-05 2.46342e-06 0)
(5.61547e-05 3.5175e-06 0)
(4.19984e-05 4.19577e-06 0)
(2.58394e-05 4.29027e-06 0)
(1.12667e-05 3.31787e-06 0)
(1.58109e-06 1.58624e-06 0)
(5.62179e-07 -6.17289e-06 0)
(-9.1407e-06 9.05269e-06 0)
(-4.66718e-05 3.58683e-05 0)
(-0.000115156 6.29224e-05 0)
(-0.000212379 8.66199e-05 0)
(-0.000334331 0.000105841 0)
(-0.000476271 0.000120649 0)
(-0.000633687 0.000131593 0)
(-0.000802639 0.000139369 0)
(-0.000979879 0.000144661 0)
(-0.00116283 0.000148072 0)
(-0.00134953 0.000150109 0)
(-0.00153852 0.000151176 0)
(-0.00172875 0.000151589 0)
(-0.00191952 0.000151582 0)
(-0.00211034 0.000151326 0)
(-0.00230093 0.000150941 0)
(-0.00249111 0.000150507 0)
(-0.00268081 0.000150073 0)
(-0.00287 0.000149665 0)
(-0.00305868 0.000149296 0)
(-0.00324686 0.000148965 0)
(-0.00343457 0.000148664 0)
(-0.00362179 0.000148382 0)
(-0.00380853 0.000148104 0)
(-0.00399476 0.000147811 0)
(-0.00418043 0.000147486 0)
(-0.00436549 0.00014711 0)
(-0.00454984 0.000146665 0)
(-0.00473337 0.000146131 0)
(-0.00491596 0.000145489 0)
(-0.00509744 0.00014472 0)
(-0.00527765 0.000143805 0)
(-0.00545638 0.000142724 0)
(-0.0056334 0.000141457 0)
(-0.00580848 0.000139983 0)
(-0.00598133 0.000138284 0)
(-0.00615167 0.000136338 0)
(-0.00631918 0.000134126 0)
(-0.00648351 0.000131626 0)
(-0.0066443 0.00012882 0)
(-0.00680116 0.000125688 0)
(-0.00695368 0.000122212 0)
(-0.00710144 0.000118373 0)
(-0.00724398 0.000114155 0)
(-0.00738084 0.000109543 0)
(-0.00751153 0.000104524 0)
(-0.00763557 9.90866e-05 0)
(-0.00775244 9.32218e-05 0)
(-0.00786163 8.69236e-05 0)
(-0.00796264 8.01886e-05 0)
(-0.00805493 7.30168e-05 0)
(-0.00813801 6.54117e-05 0)
(-0.00821136 5.73807e-05 0)
(-0.0082745 4.8935e-05 0)
(-0.00832695 4.00901e-05 0)
(-0.00836827 3.08656e-05 0)
(-0.00839802 2.12855e-05 0)
(-0.00841584 1.13779e-05 0)
(-0.00842135 1.17583e-06 0)
(-0.00841426 -9.27381e-06 0)
(-0.0083943 -1.99411e-05 0)
(-0.00836127 -3.07784e-05 0)
(-0.00831501 -4.17353e-05 0)
(-0.00825544 -5.27589e-05 0)
(-0.00818252 -6.37937e-05 0)
(-0.00809631 -7.47819e-05 0)
(-0.00799689 -8.56636e-05 0)
(-0.00788447 -9.63782e-05 0)
(-0.00775928 -0.000106864 0)
(-0.00762165 -0.000117061 0)
(-0.00747196 -0.000126907 0)
(-0.00731067 -0.000136345 0)
(-0.00713832 -0.000145319 0)
(-0.00695549 -0.000153774 0)
(-0.00676281 -0.000161663 0)
(-0.006561 -0.00016894 0)
(-0.0063508 -0.000175565 0)
(-0.00613299 -0.000181504 0)
(-0.00590841 -0.000186729 0)
(-0.0056779 -0.000191217 0)
(-0.00544235 -0.000194953 0)
(-0.00520264 -0.000197926 0)
(-0.00495966 -0.000200134 0)
(-0.00471431 -0.00020158 0)
(-0.00446749 -0.000202273 0)
(-0.00422007 -0.000202227 0)
(-0.00397291 -0.00020146 0)
(-0.00372684 -0.000199996 0)
(-0.00348268 -0.000197861 0)
(-0.0032412 -0.000195084 0)
(-0.00300314 -0.000191693 0)
(-0.00276923 -0.000187721 0)
(-0.00254015 -0.000183195 0)
(-0.00231653 -0.000178145 0)
(-0.00209901 -0.000172595 0)
(-0.00188819 -0.000166568 0)
(-0.00168464 -0.000160081 0)
(-0.00148892 -0.000153147 0)
(-0.00130159 -0.000145775 0)
(-0.0011232 -0.000137966 0)
(-0.0009543 -0.000129718 0)
(-0.000795461 -0.000121024 0)
(-0.000647256 -0.000111874 0)
(-0.000510277 -0.000102254 0)
(-0.000385128 -9.21549e-05 0)
(-0.000272423 -8.15692e-05 0)
(-0.000172776 -7.04996e-05 0)
(-8.6782e-05 -5.8965e-05 0)
(-1.49888e-05 -4.70095e-05 0)
(4.21427e-05 -3.47157e-05 0)
(8.42977e-05 -2.22238e-05 0)
(0.00011138 -9.76484e-06 0)
(0.000123656 2.2871e-06 0)
(0.000121952 1.34226e-05 0)
(0.000107811 2.28266e-05 0)
(8.38297e-05 2.92251e-05 0)
(5.37965e-05 3.08114e-05 0)
(2.50486e-05 2.51632e-05 0)
(3.27878e-06 1.12415e-05 0)
(-2.94596e-06 2.04353e-06 0)
(-3.70717e-05 4.69801e-05 0)
(-0.000112144 0.000110021 0)
(-0.000231251 0.000172804 0)
(-0.000389815 0.000228527 0)
(-0.000583077 0.000274694 0)
(-0.000805022 0.000311136 0)
(-0.00104975 0.000338787 0)
(-0.00131197 0.000359015 0)
(-0.00158714 0.000373257 0)
(-0.0018716 0.000382846 0)
(-0.00216243 0.000388938 0)
(-0.00245741 0.000392483 0)
(-0.0027549 0.000394241 0)
(-0.00305371 0.000394792 0)
(-0.00335301 0.000394571 0)
(-0.00365226 0.000393889 0)
(-0.0039511 0.00039296 0)
(-0.00424931 0.000391925 0)
(-0.00454676 0.000390865 0)
(-0.00484338 0.000389823 0)
(-0.00513912 0.000388811 0)
(-0.00543396 0.000387818 0)
(-0.00572785 0.000386823 0)
(-0.00602073 0.000385793 0)
(-0.00631254 0.00038469 0)
(-0.00660316 0.000383472 0)
(-0.00689248 0.000382095 0)
(-0.00718033 0.000380514 0)
(-0.00746652 0.000378683 0)
(-0.00775083 0.000376555 0)
(-0.008033 0.000374084 0)
(-0.00831274 0.000371221 0)
(-0.00858972 0.000367918 0)
(-0.00886361 0.000364128 0)
(-0.00913399 0.000359802 0)
(-0.00940044 0.000354889 0)
(-0.00966252 0.000349342 0)
(-0.00991971 0.000343111 0)
(-0.0101715 0.000336148 0)
(-0.0104173 0.000328407 0)
(-0.0106566 0.00031984 0)
(-0.0108887 0.000310406 0)
(-0.011113 0.000300063 0)
(-0.0113288 0.000288772 0)
(-0.0115354 0.000276501 0)
(-0.0117321 0.00026322 0)
(-0.0119182 0.000248905 0)
(-0.0120929 0.000233538 0)
(-0.0122555 0.000217108 0)
(-0.0124052 0.000199612 0)
(-0.0125413 0.000181052 0)
(-0.012663 0.000161444 0)
(-0.0127697 0.000140809 0)
(-0.0128606 0.000119178 0)
(-0.0129351 9.6595e-05 0)
(-0.0129925 7.31114e-05 0)
(-0.0130322 4.87903e-05 0)
(-0.0130538 2.37052e-05 0)
(-0.0130568 -2.06014e-06 0)
(-0.0130407 -2.84089e-05 0)
(-0.0130052 -5.52398e-05 0)
(-0.01295 -8.24399e-05 0)
(-0.0128751 -0.000109888 0)
(-0.0127802 -0.000137455 0)
(-0.0126654 -0.000165006 0)
(-0.0125308 -0.0001924 0)
(-0.0123766 -0.000219496 0)
(-0.0122031 -0.000246145 0)
(-0.0120107 -0.000272202 0)
(-0.0117999 -0.00029752 0)
(-0.0115712 -0.000321958 0)
(-0.0113255 -0.000345375 0)
(-0.0110635 -0.000367641 0)
(-0.010786 -0.000388629 0)
(-0.0104939 -0.000408224 0)
(-0.0101884 -0.000426321 0)
(-0.00987054 -0.000442828 0)
(-0.00954141 -0.000457663 0)
(-0.00920222 -0.000470762 0)
(-0.00885421 -0.000482071 0)
(-0.00849864 -0.000491555 0)
(-0.0081368 -0.000499192 0)
(-0.00776996 -0.000504975 0)
(-0.00739943 -0.00050891 0)
(-0.00702648 -0.000511018 0)
(-0.00665237 -0.000511331 0)
(-0.00627833 -0.000509893 0)
(-0.00590558 -0.000506757 0)
(-0.00553528 -0.000501981 0)
(-0.00516856 -0.00049563 0)
(-0.00480651 -0.000487773 0)
(-0.00445016 -0.000478476 0)
(-0.00410052 -0.000467806 0)
(-0.00375856 -0.000455824 0)
(-0.00342519 -0.000442585 0)
(-0.00310131 -0.000428137 0)
(-0.00278781 -0.000412514 0)
(-0.00248552 -0.000395741 0)
(-0.00219532 -0.000377831 0)
(-0.00191804 -0.000358782 0)
(-0.00165455 -0.000338582 0)
(-0.00140573 -0.00031721 0)
(-0.00117248 -0.000294637 0)
(-0.000955719 -0.000270831 0)
(-0.000756393 -0.000245769 0)
(-0.000575451 -0.000219439 0)
(-0.000413836 -0.000191862 0)
(-0.00027245 -0.0001631 0)
(-0.00015211 -0.000133288 0)
(-5.34845e-05 -0.00010266 0)
(2.29958e-05 -7.15993e-05 0)
(7.72567e-05 -4.0692e-05 0)
(0.000109768 -1.08054e-05 0)
(0.00012173 1.67687e-05 0)
(0.000115328 4.01349e-05 0)
(9.41055e-05 5.66635e-05 0)
(6.28868e-05 6.27777e-05 0)
(3.07202e-05 5.39074e-05 0)
(4.23101e-06 2.56939e-05 0)
(-6.66192e-06 2.44615e-05 0)
(-6.70471e-05 0.000118053 0)
(-0.000181644 0.000230801 0)
(-0.000352149 0.000340617 0)
(-0.00057028 0.000438245 0)
(-0.000830373 0.00051998 0)
(-0.00112542 0.00058543 0)
(-0.00144863 0.000635927 0)
(-0.00179384 0.000673572 0)
(-0.00215571 0.000700665 0)
(-0.00252982 0.000719406 0)
(-0.00291259 0.000731744 0)
(-0.00330124 0.000739322 0)
(-0.00369363 0.00074347 0)
(-0.00408819 0.000745229 0)
(-0.00448377 0.000745389 0)
(-0.00487958 0.000744526 0)
(-0.00527505 0.000743047 0)
(-0.00566982 0.000741227 0)
(-0.00606363 0.000739233 0)
(-0.0064563 0.000737158 0)
(-0.00684771 0.00073504 0)
(-0.00723775 0.000732873 0)
(-0.00762632 0.000730626 0)
(-0.00801328 0.000728248 0)
(-0.0083985 0.000725676 0)
(-0.0087818 0.00072284 0)
(-0.00916299 0.000719662 0)
(-0.00954182 0.000716062 0)
(-0.00991801 0.00071196 0)
(-0.0102912 0.000707272 0)
(-0.0106612 0.000701914 0)
(-0.0110274 0.000695799 0)
(-0.0113895 0.000688842 0)
(-0.0117469 0.000680955 0)
(-0.0120992 0.000672052 0)
(-0.0124457 0.000662045 0)
(-0.012786 0.000650846 0)
(-0.0131193 0.00063837 0)
(-0.0134449 0.000624532 0)
(-0.0137621 0.000609249 0)
(-0.0140703 0.000592441 0)
(-0.0143684 0.000574035 0)
(-0.0146558 0.00055396 0)
(-0.0149316 0.000532152 0)
(-0.0151949 0.000508555 0)
(-0.0154448 0.000483123 0)
(-0.0156804 0.000455818 0)
(-0.0159008 0.000426615 0)
(-0.0161049 0.000395498 0)
(-0.0162921 0.00036247 0)
(-0.0164612 0.000327544 0)
(-0.0166114 0.000290751 0)
(-0.0167419 0.000252139 0)
(-0.0168518 0.000211773 0)
(-0.0169403 0.000169734 0)
(-0.0170066 0.000126124 0)
(-0.0170502 8.10629e-05 0)
(-0.0170704 3.46885e-05 0)
(-0.0170666 -1.28432e-05 0)
(-0.0170384 -6.1363e-05 0)
(-0.0169854 -0.000110676 0)
(-0.0169075 -0.000160578 0)
(-0.0168043 -0.000210851 0)
(-0.0166759 -0.000261262 0)
(-0.0165224 -0.000311572 0)
(-0.0163438 -0.000361529 0)
(-0.0161406 -0.000410879 0)
(-0.0159132 -0.000459364 0)
(-0.015662 -0.000506724 0)
(-0.0153878 -0.000552705 0)
(-0.0150913 -0.000597055 0)
(-0.0147735 -0.000639532 0)
(-0.0144353 -0.000679907 0)
(-0.0140779 -0.00071796 0)
(-0.0137023 -0.000753494 0)
(-0.01331 -0.000786326 0)
(-0.0129023 -0.000816296 0)
(-0.0124805 -0.000843266 0)
(-0.0120463 -0.000867125 0)
(-0.011601 -0.000887783 0)
(-0.0111462 -0.00090518 0)
(-0.0106835 -0.000919277 0)
(-0.0102146 -0.000930065 0)
(-0.00974088 -0.000937557 0)
(-0.009264 -0.000941789 0)
(-0.0087855 -0.000942816 0)
(-0.00830688 -0.000940715 0)
(-0.00782962 -0.000935574 0)
(-0.00735515 -0.000927497 0)
(-0.00688486 -0.000916593 0)
(-0.00642009 -0.000902975 0)
(-0.00596211 -0.000886759 0)
(-0.00551219 -0.000868055 0)
(-0.0050715 -0.000846964 0)
(-0.00464121 -0.000823575 0)
(-0.00422245 -0.000797964 0)
(-0.00381632 -0.000770184 0)
(-0.00342392 -0.000740271 0)
(-0.00304632 -0.000708237 0)
(-0.00268463 -0.000674072 0)
(-0.00233996 -0.000637748 0)
(-0.00201343 -0.000599219 0)
(-0.00170623 -0.000558429 0)
(-0.00141953 -0.000515325 0)
(-0.00115455 -0.000469866 0)
(-0.000912517 -0.000422043 0)
(-0.000694626 -0.000371905 0)
(-0.000502018 -0.000319591 0)
(-0.000335715 -0.000265371 0)
(-0.000196536 -0.000209705 0)
(-8.49889e-05 -0.000153316 0)
(-1.1278e-06 -9.72855e-05 0)
(5.56308e-05 -4.31839e-05 0)
(8.67209e-05 6.73979e-06 0)
(9.47043e-05 4.93749e-05 0)
(8.35934e-05 8.04932e-05 0)
(5.87163e-05 9.45203e-05 0)
(2.98076e-05 8.44384e-05 0)
(4.18222e-06 4.18312e-05 0)
(-1.01049e-05 6.12096e-05 0)
(-9.57193e-05 0.000222308 0)
(-0.000248877 0.000396899 0)
(-0.000469314 0.000562379 0)
(-0.000744395 0.000708625 0)
(-0.00106719 0.000831504 0)
(-0.00142964 0.000930727 0)
(-0.0018242 0.00100815 0)
(-0.00224408 0.00106666 0)
(-0.00268342 0.00110945 0)
(-0.00313729 0.00113964 0)
(-0.00360166 0.00116002 0)
(-0.00407336 0.00117299 0)
(-0.00454987 0.00118052 0)
(-0.00502933 0.00118416 0)
(-0.00551033 0.00118511 0)
(-0.00599184 0.00118426 0)
(-0.00647312 0.00118225 0)
(-0.00695364 0.00117953 0)
(-0.00743302 0.00117636 0)
(-0.00791097 0.00117291 0)
(-0.00838727 0.00116926 0)
(-0.00886172 0.00116541 0)
(-0.00933412 0.00116133 0)
(-0.00980428 0.00115694 0)
(-0.010272 0.00115217 0)
(-0.010737 0.00114691 0)
(-0.0111989 0.00114104 0)
(-0.0116576 0.00113445 0)
(-0.0121125 0.00112701 0)
(-0.0125634 0.0011186 0)
(-0.0130097 0.00110909 0)
(-0.0134509 0.00109836 0)
(-0.0138865 0.00108626 0)
(-0.0143159 0.00107267 0)
(-0.0147384 0.00105746 0)
(-0.0151534 0.0010405 0)
(-0.0155601 0.00102164 0)
(-0.0159578 0.00100078 0)
(-0.0163455 0.000977769 0)
(-0.0167226 0.0009525 0)
(-0.0170879 0.000924852 0)
(-0.0174406 0.000894716 0)
(-0.0177798 0.000861993 0)
(-0.0181044 0.000826592 0)
(-0.0184133 0.000788435 0)
(-0.0187056 0.00074746 0)
(-0.0189802 0.000703618 0)
(-0.0192361 0.000656879 0)
(-0.0194721 0.000607233 0)
(-0.0196872 0.00055469 0)
(-0.0198804 0.000499284 0)
(-0.0200507 0.000441071 0)
(-0.0201971 0.000380136 0)
(-0.0203187 0.000316586 0)
(-0.0204146 0.000250557 0)
(-0.0204841 0.000182214 0)
(-0.0205264 0.000111747 0)
(-0.0205408 3.9373e-05 0)
(-0.0205268 -3.46625e-05 0)
(-0.020484 -0.000110091 0)
(-0.0204119 -0.000186619 0)
(-0.0203104 -0.000263931 0)
(-0.0201794 -0.000341691 0)
(-0.0200188 -0.000419548 0)
(-0.0198289 -0.000497135 0)
(-0.0196098 -0.000574076 0)
(-0.0193621 -0.000649987 0)
(-0.0190862 -0.000724481 0)
(-0.0187829 -0.000797172 0)
(-0.0184529 -0.000867679 0)
(-0.0180972 -0.00093563 0)
(-0.0177169 -0.00100067 0)
(-0.0173132 -0.00106245 0)
(-0.0168873 -0.00112066 0)
(-0.0164407 -0.00117501 0)
(-0.0159748 -0.00122522 0)
(-0.0154913 -0.00127107 0)
(-0.0149917 -0.00131235 0)
(-0.0144777 -0.00134891 0)
(-0.0139511 -0.00138061 0)
(-0.0134137 -0.00140738 0)
(-0.0128673 -0.00142915 0)
(-0.0123136 -0.00144592 0)
(-0.0117544 -0.0014577 0)
(-0.0111916 -0.00146456 0)
(-0.0106268 -0.00146658 0)
(-0.0100618 -0.00146386 0)
(-0.00949825 -0.00145655 0)
(-0.0089378 -0.00144479 0)
(-0.008382 -0.00142874 0)
(-0.00783238 -0.00140857 0)
(-0.00729041 -0.00138444 0)
(-0.0067575 -0.00135651 0)
(-0.00623502 -0.00132493 0)
(-0.0057243 -0.00128981 0)
(-0.00522665 -0.00125126 0)
(-0.00474334 -0.00120935 0)
(-0.00427564 -0.00116413 0)
(-0.00382481 -0.00111559 0)
(-0.00339214 -0.00106373 0)
(-0.00297892 -0.00100848 0)
(-0.0025865 -0.000949763 0)
(-0.00221622 -0.000887502 0)
(-0.00186951 -0.000821612 0)
(-0.00154776 -0.000752036 0)
(-0.0012524 -0.000678775 0)
(-0.000984837 -0.000601922 0)
(-0.000746372 -0.000521715 0)
(-0.000538175 -0.000438602 0)
(-0.000361174 -0.000353319 0)
(-0.000215935 -0.000266995 0)
(-0.000102511 -0.000181288 0)
(-2.02649e-05 -9.85497e-05 0)
(3.23585e-05 -2.2033e-05 0)
(5.80767e-05 4.38637e-05 0)
(6.107e-05 9.32946e-05 0)
(4.68717e-05 0.000118689 0)
(2.51756e-05 0.000110505 0)
(3.67415e-06 5.64619e-05 0)
(-1.31726e-05 0.00011112 0)
(-0.000121866 0.000358015 0)
(-0.000311107 0.000606707 0)
(-0.000578566 0.000836274 0)
(-0.000907158 0.00103721 0)
(-0.00128841 0.00120589 0)
(-0.00171305 0.00134264 0)
(-0.00217277 0.00145011 0)
(-0.00266026 0.0015321 0)
(-0.00316924 0.00159277 0)
(-0.00369445 0.0016362 0)
(-0.00423155 0.00166607 0)
(-0.00477708 0.00168556 0)
(-0.0053283 0.0016973 0)
(-0.00588308 0.0017034 0)
(-0.00643983 0.00170551 0)
(-0.00699734 0.00170486 0)
(-0.0075547 0.00170235 0)
(-0.00811124 0.0016986 0)
(-0.00866646 0.00169402 0)
(-0.00921996 0.00168885 0)
(-0.00977141 0.00168322 0)
(-0.0103205 0.00167716 0)
(-0.010867 0.00167062 0)
(-0.0114106 0.00166353 0)
(-0.0119509 0.00165578 0)
(-0.0124877 0.00164722 0)
(-0.0130206 0.00163772 0)
(-0.0135491 0.0016271 0)
(-0.0140729 0.00161519 0)
(-0.0145913 0.00160184 0)
(-0.0151039 0.00158686 0)
(-0.0156101 0.00157007 0)
(-0.0161091 0.0015513 0)
(-0.0166004 0.00153035 0)
(-0.017083 0.00150706 0)
(-0.0175563 0.00148125 0)
(-0.0180194 0.00145272 0)
(-0.0184714 0.00142132 0)
(-0.0189113 0.00138686 0)
(-0.0193381 0.00134919 0)
(-0.0197509 0.00130816 0)
(-0.0201485 0.00126361 0)
(-0.0205298 0.00121542 0)
(-0.0208938 0.00116348 0)
(-0.0212392 0.00110769 0)
(-0.021565 0.00104796 0)
(-0.0218699 0.000984252 0)
(-0.0221528 0.000916531 0)
(-0.0224126 0.000844797 0)
(-0.022648 0.000769079 0)
(-0.022858 0.000689437 0)
(-0.0230416 0.000605965 0)
(-0.0231976 0.000518792 0)
(-0.0233251 0.000428083 0)
(-0.0234232 0.000334039 0)
(-0.0234911 0.000236899 0)
(-0.0235281 0.000136939 0)
(-0.0235334 3.44709e-05 0)
(-0.0235065 -7.0158e-05 0)
(-0.0234471 -0.000176567 0)
(-0.0233547 -0.000284345 0)
(-0.0232293 -0.000393051 0)
(-0.0230707 -0.000502219 0)
(-0.0228792 -0.000611363 0)
(-0.0226548 -0.000719977 0)
(-0.022398 -0.000827545 0)
(-0.0221093 -0.000933541 0)
(-0.0217895 -0.00103744 0)
(-0.0214392 -0.00113871 0)
(-0.0210595 -0.00123684 0)
(-0.0206514 -0.00133133 0)
(-0.0202163 -0.0014217 0)
(-0.0197554 -0.00150748 0)
(-0.0192701 -0.00158826 0)
(-0.0187622 -0.00166363 0)
(-0.0182332 -0.00173325 0)
(-0.0176848 -0.00179681 0)
(-0.017119 -0.00185405 0)
(-0.0165375 -0.00190474 0)
(-0.0159423 -0.00194874 0)
(-0.0153353 -0.00198591 0)
(-0.0147186 -0.00201621 0)
(-0.014094 -0.00203963 0)
(-0.0134635 -0.00205618 0)
(-0.012829 -0.00206596 0)
(-0.0121926 -0.00206909 0)
(-0.0115559 -0.0020657 0)
(-0.010921 -0.00205599 0)
(-0.0102894 -0.00204016 0)
(-0.009663 -0.00201842 0)
(-0.00904337 -0.00199099 0)
(-0.00843213 -0.00195809 0)
(-0.00783082 -0.00191993 0)
(-0.00724093 -0.0018767 0)
(-0.00666392 -0.00182856 0)
(-0.00610121 -0.00177563 0)
(-0.00555421 -0.001718 0)
(-0.0050243 -0.00165572 0)
(-0.00451287 -0.00158879 0)
(-0.00402135 -0.00151716 0)
(-0.00355117 -0.00144076 0)
(-0.0031038 -0.00135947 0)
(-0.00268074 -0.00127317 0)
(-0.00228355 -0.00118175 0)
(-0.00191377 -0.00108514 0)
(-0.00157298 -0.00098336 0)
(-0.00126269 -0.000876557 0)
(-0.000984349 -0.000765089 0)
(-0.000739213 -0.000649607 0)
(-0.000528285 -0.000531158 0)
(-0.000352177 -0.000411322 0)
(-0.00021096 -0.000292374 0)
(-0.000103988 -0.000177476 0)
(-2.9683e-05 -7.09197e-05 0)
(1.46854e-05 2.15976e-05 0)
(3.32837e-05 9.26477e-05 0)
(3.16327e-05 0.000132719 0)
(1.89341e-05 0.000129844 0)
(2.941e-06 6.84443e-05 0)
(-1.58621e-05 0.00017278 0)
(-0.000145225 0.000522478 0)
(-0.000367441 0.00085706 0)
(-0.000678265 0.00115876 0)
(-0.00105638 0.00141996 0)
(-0.00149163 0.00163841 0)
(-0.00197344 0.00181566 0)
(-0.00249268 0.00195551 0)
(-0.00304151 0.00206288 0)
(-0.00361329 0.00214302 0)
(-0.0042025 0.00220099 0)
(-0.00480459 0.0022414 0)
(-0.0054159 0.00226825 0)
(-0.00603352 0.00228484 0)
(-0.00665517 0.00229386 0)
(-0.0072791 0.00229742 0)
(-0.00790394 0.0022971 0)
(-0.00852868 0.00229408 0)
(-0.00915252 0.00228917 0)
(-0.00977483 0.00228294 0)
(-0.0103951 0.0022757 0)
(-0.011013 0.00226764 0)
(-0.011628 0.00225882 0)
(-0.0122397 0.00224921 0)
(-0.0128479 0.0022387 0)
(-0.0134522 0.00222716 0)
(-0.014052 0.00221443 0)
(-0.014647 0.00220031 0)
(-0.0152366 0.0021846 0)
(-0.0158203 0.00216709 0)
(-0.0163976 0.00214755 0)
(-0.0169677 0.00212575 0)
(-0.0175299 0.00210148 0)
(-0.0180836 0.00207448 0)
(-0.0186279 0.00204454 0)
(-0.019162 0.00201142 0)
(-0.0196849 0.00197489 0)
(-0.0201957 0.00193472 0)
(-0.0206934 0.00189069 0)
(-0.0211769 0.00184259 0)
(-0.0216452 0.00179021 0)
(-0.0220971 0.00173336 0)
(-0.0225314 0.00167187 0)
(-0.0229469 0.00160557 0)
(-0.0233425 0.00153433 0)
(-0.0237168 0.00145803 0)
(-0.0240687 0.0013766 0)
(-0.0243969 0.00128998 0)
(-0.0247001 0.00119814 0)
(-0.0249771 0.0011011 0)
(-0.0252268 0.000998921 0)
(-0.0254479 0.000891696 0)
(-0.0256393 0.000779565 0)
(-0.0258 0.000662712 0)
(-0.0259289 0.00054137 0)
(-0.0260252 0.000415819 0)
(-0.026088 0.000286382 0)
(-0.0261166 0.000153434 0)
(-0.0261104 1.73936e-05 0)
(-0.0260688 -0.000121278 0)
(-0.0259914 -0.000262077 0)
(-0.0258781 -0.000404459 0)
(-0.0257286 -0.000547849 0)
(-0.025543 -0.000691639 0)
(-0.0253216 -0.000835194 0)
(-0.0250646 -0.000977863 0)
(-0.0247725 -0.00111898 0)
(-0.0244459 -0.00125786 0)
(-0.0240857 -0.00139383 0)
(-0.0236927 -0.00152623 0)
(-0.0232682 -0.00165439 0)
(-0.0228132 -0.00177768 0)
(-0.0223292 -0.00189547 0)
(-0.0218177 -0.00200721 0)
(-0.0212803 -0.00211234 0)
(-0.0207187 -0.00221037 0)
(-0.0201347 -0.00230086 0)
(-0.0195302 -0.00238344 0)
(-0.0189073 -0.00245776 0)
(-0.0182678 -0.00252357 0)
(-0.0176139 -0.00258067 0)
(-0.0169476 -0.00262892 0)
(-0.0162712 -0.00266825 0)
(-0.0155866 -0.00269867 0)
(-0.0148959 -0.0027202 0)
(-0.0142014 -0.00273297 0)
(-0.0135049 -0.00273713 0)
(-0.0128084 -0.00273288 0)
(-0.0121139 -0.00272044 0)
(-0.0114233 -0.00270009 0)
(-0.0107384 -0.00267209 0)
(-0.010061 -0.00263673 0)
(-0.00939263 -0.00259428 0)
(-0.00873505 -0.002545 0)
(-0.00808981 -0.00248912 0)
(-0.00745845 -0.00242686 0)
(-0.00684247 -0.00235835 0)
(-0.00624336 -0.0022837 0)
(-0.00566259 -0.00220296 0)
(-0.00510164 -0.00211613 0)
(-0.004562 -0.00202312 0)
(-0.0040452 -0.00192383 0)
(-0.00355279 -0.00181812 0)
(-0.00308638 -0.00170583 0)
(-0.00264759 -0.0015868 0)
(-0.00223808 -0.00146098 0)
(-0.00185948 -0.00132838 0)
(-0.00151342 -0.00118923 0)
(-0.00120138 -0.00104402 0)
(-0.000924696 -0.000893618 0)
(-0.000684419 -0.000739401 0)
(-0.000481195 -0.000583419 0)
(-0.000315123 -0.000428577 0)
(-0.000185584 -0.000278858 0)
(-9.10435e-05 -0.000139582 0)
(-2.88451e-05 -1.77069e-05 0)
(5.04714e-06 7.7818e-05 0)
(1.59965e-05 0.000135645 0)
(1.25023e-05 0.000141591 0)
(2.19217e-06 7.73817e-05 0)
(-1.8212e-05 0.000244816 0)
(-0.000165914 0.000712808 0)
(-0.000417856 0.00114436 0)
(-0.000768113 0.00152585 0)
(-0.0011915 0.00185249 0)
(-0.00167619 0.00212428 0)
(-0.00221027 0.00234454 0)
(-0.00278373 0.0025186 0)
(-0.00338817 0.00265275 0)
(-0.00401662 0.00275345 0)
(-0.00466333 0.00282687 0)
(-0.00532357 0.00287856 0)
(-0.00599356 0.00291333 0)
(-0.00667026 0.00293522 0)
(-0.00735128 0.00294748 0)
(-0.00803476 0.00295267 0)
(-0.00871924 0.00295275 0)
(-0.0094036 0.00294916 0)
(-0.0100869 0.00294294 0)
(-0.0107685 0.00293479 0)
(-0.0114478 0.00292513 0)
(-0.0121241 0.00291419 0)
(-0.0127972 0.00290208 0)
(-0.0134664 0.00288875 0)
(-0.0141315 0.00287411 0)
(-0.0147917 0.002858 0)
(-0.0154468 0.0028402 0)
(-0.0160961 0.00282051 0)
(-0.016739 0.00279865 0)
(-0.017375 0.00277439 0)
(-0.0180033 0.00274743 0)
(-0.0186232 0.0027175 0)
(-0.0192339 0.00268432 0)
(-0.0198346 0.0026476 0)
(-0.0204244 0.00260706 0)
(-0.0210023 0.00256241 0)
(-0.0215674 0.00251337 0)
(-0.0221186 0.00245966 0)
(-0.0226548 0.00240102 0)
(-0.0231748 0.00233717 0)
(-0.0236775 0.00226789 0)
(-0.0241617 0.00219295 0)
(-0.024626 0.00211213 0)
(-0.0250692 0.00202525 0)
(-0.0254901 0.00193216 0)
(-0.0258872 0.00183273 0)
(-0.0262593 0.00172688 0)
(-0.0266051 0.00161456 0)
(-0.0269232 0.00149577 0)
(-0.0272125 0.00137053 0)
(-0.0274716 0.00123895 0)
(-0.0276993 0.00110115 0)
(-0.0278945 0.000957351 0)
(-0.0280562 0.000807788 0)
(-0.0281832 0.000652773 0)
(-0.0282748 0.000492673 0)
(-0.0283301 0.00032791 0)
(-0.0283483 0.000158967 0)
(-0.0283289 -1.36229e-05 0)
(-0.0282714 -0.000189271 0)
(-0.0281754 -0.000367339 0)
(-0.0280409 -0.000547145 0)
(-0.0278676 -0.000727965 0)
(-0.0276558 -0.00090904 0)
(-0.0274057 -0.00108958 0)
(-0.0271177 -0.00126878 0)
(-0.0267924 -0.00144581 0)
(-0.0264306 -0.00161984 0)
(-0.0260331 -0.00179003 0)
(-0.0256011 -0.00195556 0)
(-0.0251356 -0.00211563 0)
(-0.0246382 -0.00226946 0)
(-0.0241102 -0.00241631 0)
(-0.0235534 -0.00255546 0)
(-0.0229694 -0.00268627 0)
(-0.0223601 -0.00280815 0)
(-0.0217276 -0.00292057 0)
(-0.0210737 -0.00302305 0)
(-0.0204006 -0.00311522 0)
(-0.0197105 -0.00319677 0)
(-0.0190056 -0.00326745 0)
(-0.018288 -0.00332712 0)
(-0.0175601 -0.00337571 0)
(-0.016824 -0.0034132 0)
(-0.016082 -0.00343969 0)
(-0.0153363 -0.00345529 0)
(-0.0145889 -0.00346023 0)
(-0.0138419 -0.00345474 0)
(-0.0130975 -0.00343911 0)
(-0.0123575 -0.00341368 0)
(-0.0116238 -0.00337878 0)
(-0.0108984 -0.00333475 0)
(-0.0101828 -0.00328194 0)
(-0.00947893 -0.00322066 0)
(-0.0087883 -0.0031512 0)
(-0.00811252 -0.00307379 0)
(-0.00745317 -0.00298863 0)
(-0.00681176 -0.00289582 0)
(-0.00618981 -0.00279542 0)
(-0.00558886 -0.00268741 0)
(-0.00501043 -0.00257169 0)
(-0.00445609 -0.00244813 0)
(-0.00392744 -0.00231654 0)
(-0.00342613 -0.00217672 0)
(-0.00295382 -0.00202851 0)
(-0.00251222 -0.00187181 0)
(-0.00210299 -0.00170669 0)
(-0.0017278 -0.00153343 0)
(-0.00138816 -0.00135267 0)
(-0.00108544 -0.00116549 0)
(-0.000820712 -0.000973617 0)
(-0.000594652 -0.000779572 0)
(-0.000407391 -0.000586887 0)
(-0.00025836 -0.000400347 0)
(-0.000146101 -0.000226272 0)
(-6.80833e-05 -7.28267e-05 0)
(-2.04685e-05 4.95998e-05 0)
(1.88042e-06 0.000127955 0)
(6.75439e-06 0.000146063 0)
(1.54827e-06 8.34193e-05 0)
(-2.02684e-05 0.000325981 0)
(-0.000184183 0.000926213 0)
(-0.000462705 0.00146494 0)
(-0.000848483 0.00193339 0)
(-0.00131289 0.00233039 0)
(-0.00184249 0.00265879 0)
(-0.00242406 0.00292426 0)
(-0.0030467 0.00313403 0)
(-0.00370146 0.00329602 0)
(-0.00438101 0.00341806 0)
(-0.00507936 0.00350751 0)
(-0.00579166 0.00357094 0)
(-0.00651401 0.003614 0)
(-0.00724329 0.00364145 0)
(-0.00797705 0.00365711 0)
(-0.00871333 0.00366401 0)
(-0.00945061 0.00366448 0)
(-0.0101877 0.00366024 0)
(-0.0109236 0.00365252 0)
(-0.0116574 0.00364217 0)
(-0.0123887 0.00362971 0)
(-0.0131166 0.00361545 0)
(-0.0138408 0.00359951 0)
(-0.0145605 0.00358186 0)
(-0.0152754 0.00356238 0)
(-0.0159849 0.00354091 0)
(-0.0166883 0.0035172 0)
(-0.017385 0.00349098 0)
(-0.0180744 0.00346196 0)
(-0.0187559 0.00342983 0)
(-0.0194285 0.00339427 0)
(-0.0200915 0.00335493 0)
(-0.0207441 0.00331149 0)
(-0.0213853 0.00326361 0)
(-0.0220142 0.00321093 0)
(-0.0226296 0.00315314 0)
(-0.0232306 0.00308988 0)
(-0.023816 0.00302084 0)
(-0.0243847 0.0029457 0)
(-0.0249353 0.00286416 0)
(-0.0254667 0.00277593 0)
(-0.0259775 0.00268076 0)
(-0.0264664 0.00257841 0)
(-0.026932 0.00246868 0)
(-0.0273731 0.0023514 0)
(-0.0277882 0.00222644 0)
(-0.028176 0.00209371 0)
(-0.028535 0.00195317 0)
(-0.028864 0.00180485 0)
(-0.0291617 0.00164881 0)
(-0.0294267 0.00148519 0)
(-0.0296579 0.00131417 0)
(-0.029854 0.00113603 0)
(-0.0300141 0.000951076 0)
(-0.030137 0.000759714 0)
(-0.030222 0.000562404 0)
(-0.0302681 0.000359675 0)
(-0.0302748 0.000152125 0)
(-0.0302414 -5.95847e-05 0)
(-0.0301675 -0.000274732 0)
(-0.0300529 -0.000492539 0)
(-0.0298973 -0.000712171 0)
(-0.0297009 -0.000932753 0)
(-0.0294638 -0.00115336 0)
(-0.0291863 -0.00137306 0)
(-0.028869 -0.00159086 0)
(-0.0285125 -0.00180577 0)
(-0.0281178 -0.00201681 0)
(-0.0276857 -0.00222297 0)
(-0.0272174 -0.00242328 0)
(-0.0267144 -0.00261678 0)
(-0.026178 -0.00280254 0)
(-0.0256099 -0.0029797 0)
(-0.0250119 -0.00314741 0)
(-0.0243857 -0.00330491 0)
(-0.0237335 -0.00345151 0)
(-0.0230572 -0.00358658 0)
(-0.0223591 -0.00370959 0)
(-0.0216413 -0.00382009 0)
(-0.0209063 -0.00391771 0)
(-0.0201562 -0.0040022 0)
(-0.0193934 -0.00407339 0)
(-0.0186203 -0.0041312 0)
(-0.0178393 -0.00417565 0)
(-0.0170526 -0.00420683 0)
(-0.0162625 -0.00422493 0)
(-0.0154713 -0.00423019 0)
(-0.0146811 -0.00422293 0)
(-0.0138941 -0.00420349 0)
(-0.0131122 -0.00417228 0)
(-0.0123376 -0.00412971 0)
(-0.0115719 -0.00407619 0)
(-0.0108171 -0.00401213 0)
(-0.010075 -0.00393792 0)
(-0.00934704 -0.00385389 0)
(-0.00863501 -0.00376033 0)