/*--------------------------------*- C++ -*----------------------------------*\
| =========                 |                                                 |
| \\      /  F ield         | OpenFOAM: The Open Source CFD Toolbox           |
|  \\    /   O peration     | Version:  2406                                  |
|   \\  /    A nd           | Website:  www.openfoam.com                      |
|    \\/     M anipulation  |                                                 |
\*---------------------------------------------------------------------------*/
FoamFile
{
    version     2.0;
    format      ascii;
    arch        "LSB;label=32;scalar=64";
    class       volVectorField;
    location    "23";
    object      U;
}
// * * * * * * * * * * * * * * * * * * * * * * * * * * * * * * * * * * * * * //

dimensions      [0 1 -1 0 0 0 0];

internalField   nonuniform List<vector> 
3600
(
(9.033e-07 -2.56004e-06 0)
(0.000125608 -5.92533e-05 0)
(0.000363664 -8.48707e-05 0)
(0.000608753 -8.41362e-05 0)
(0.000831524 -6.69305e-05 0)
(0.000976859 -4.3869e-05 0)
(0.00105422 -2.10665e-05 0)
(0.00104539 8.70439e-08 0)
(0.000966741 1.774e-05 0)
(0.000811943 3.32883e-05 0)
(0.000591604 4.63394e-05 0)
(0.0003 5.94172e-05 0)
(-6.4035e-05 7.37261e-05 0)
(-0.00051513 9.28676e-05 0)
(-0.0010714 0.000118985 0)
(-0.00176073 0.000155221 0)
(-0.0026148 0.000202611 0)
(-0.00366719 0.000262054 0)
(-0.00494932 0.000332286 0)
(-0.00648484 0.000411604 0)
(-0.00828727 0.000496433 0)
(-0.010353 0.000582533 0)
(-0.0126597 0.000663814 0)
(-0.0151588 0.000733262 0)
(-0.0177754 0.000782077 0)
(-0.0204029 0.000800502 0)
(-0.022908 0.000777448 0)
(-0.0251325 0.000702162 0)
(-0.0269057 0.000565458 0)
(-0.028054 0.000362706 0)
(-0.02842 9.56098e-05 0)
(-0.0278745 -0.000225682 0)
(-0.0263375 -0.000582673 0)
(-0.0237859 -0.000948913 0)
(-0.0202707 -0.00129259 0)
(-0.0159139 -0.00157932 0)
(-0.0109161 -0.00177669 0)
(-0.00553652 -0.0018586 0)
(-8.75728e-05 -0.00181021 0)
(0.00510695 -0.00163173 0)
(0.00972731 -0.00134019 0)
(0.0135143 -0.000968765 0)
(0.0162777 -0.000561266 0)
(0.0179462 -0.000165502 0)
(0.0185412 0.000177551 0)
(0.0182017 0.000439433 0)
(0.0171124 0.000610368 0)
(0.0155159 0.000694938 0)
(0.0136186 0.000710305 0)
(0.01163 0.000675877 0)
(0.00967022 0.000612954 0)
(0.0078582 0.000536149 0)
(0.00621238 0.000459832 0)
(0.00478146 0.000388946 0)
(0.00351789 0.000331732 0)
(0.00244522 0.000281524 0)
(0.00150443 0.000239168 0)
(0.000751642 0.000174749 0)
(0.000202806 8.76258e-05 0)
(-3.6241e-05 -3.98878e-05 0)
(5.79109e-05 -0.000124522 0)
(0.00037311 -0.000368378 0)
(0.000861421 -0.000465092 0)
(0.00133333 -0.000438077 0)
(0.00173599 -0.00033236 0)
(0.00196873 -0.0001845 0)
(0.00202807 -2.45467e-05 0)
(0.00187223 0.000141364 0)
(0.0015089 0.000302749 0)
(0.000915299 0.000465555 0)
(8.99968e-05 0.000628423 0)
(-0.000991659 0.000803349 0)
(-0.00235208 0.000997344 0)
(-0.00403408 0.00122714 0)
(-0.00608858 0.0015031 0)
(-0.00857897 0.00183766 0)
(-0.011571 0.00223258 0)
(-0.0151231 0.00268527 0)
(-0.0192765 0.00318081 0)
(-0.0240394 0.00369786 0)
(-0.0293795 0.00420396 0)
(-0.0352099 0.00466049 0)
(-0.0413884 0.00502024 0)
(-0.0477125 0.00523274 0)
(-0.0539317 0.00524527 0)
(-0.0597574 0.00501073 0)
(-0.0648878 0.0044919 0)
(-0.0690246 0.00366977 0)
(-0.0718988 0.00254619 0)
(-0.0732831 0.00114822 0)
(-0.0730106 -0.000473623 0)
(-0.0709782 -0.00224529 0)
(-0.06716 -0.00407426 0)
(-0.0616045 -0.00585224 0)
(-0.0544462 -0.00746302 0)
(-0.0458968 -0.00878825 0)
(-0.0362545 -0.00971903 0)
(-0.0258837 -0.0101655 0)
(-0.015218 -0.0100713 0)
(-0.00471892 -0.00942385 0)
(0.00513051 -0.00826385 0)
(0.0138912 -0.00668688 0)
(0.0211748 -0.00483605 0)
(0.0267229 -0.00288558 0)
(0.0303889 -0.00101339 0)
(0.032207 0.000624234 0)
(0.0323209 0.0019206 0)
(0.0310284 0.00282622 0)
(0.0286525 0.00335299 0)
(0.0255868 0.0035531 0)
(0.0221357 0.00350752 0)
(0.0186134 0.00329609 0)
(0.0151753 0.00299836 0)
(0.0119967 0.00266574 0)
(0.00908221 0.00234584 0)
(0.00652102 0.00203523 0)
(0.00425259 0.00173709 0)
(0.00239196 0.00136006 0)
(0.000938735 0.000886785 0)
(0.000112813 0.000216705 0)
(8.8512e-05 -0.000371423 0)
(0.000486805 -0.000864965 0)
(0.00106256 -0.00103735 0)
(0.00157227 -0.000938114 0)
(0.00195342 -0.000671859 0)
(0.00208308 -0.000300429 0)
(0.0019431 0.000113175 0)
(0.00147142 0.000559781 0)
(0.00065364 0.00101818 0)
(-0.000556166 0.0015018 0)
(-0.00218694 0.00200982 0)
(-0.0042912 0.00256817 0)
(-0.00692446 0.00319354 0)
(-0.0101617 0.00391991 0)
(-0.0140867 0.00476677 0)
(-0.0187861 0.00575227 0)
(-0.0243363 0.00686803 0)
(-0.0307819 0.00808892 0)
(-0.0381214 0.00935883 0)
(-0.0462842 0.010602 0)
(-0.0551264 0.0117184 0)
(-0.0644211 0.0125978 0)
(-0.0738767 0.0131231 0)
(-0.0831497 0.0131887 0)
(-0.0918806 0.012708 0)
(-0.0997141 0.0116283 0)
(-0.106329 0.0099324 0)
(-0.111447 0.00764342 0)
(-0.114846 0.00481851 0)
(-0.116356 0.00154822 0)
(-0.115863 -0.00205076 0)
(-0.113305 -0.00583615 0)
(-0.108677 -0.00964644 0)
(-0.102026 -0.0133014 0)
(-0.0934672 -0.0166107 0)
(-0.0831801 -0.0193788 0)
(-0.0714253 -0.0214202 0)
(-0.0585352 -0.0225724 0)
(-0.0449274 -0.0227191 0)
(-0.0310746 -0.0218076 0)
(-0.0175066 -0.0198704 0)
(-0.00474915 -0.0170316 0)
(0.006683 -0.0135075 0)
(0.0163727 -0.00958497 0)
(0.0239937 -0.00558821 0)
(0.0294006 -0.00183477 0)
(0.0325752 0.0014114 0)
(0.0336995 0.0039716 0)
(0.0330366 0.00577348 0)
(0.030994 0.00684128 0)
(0.027946 0.00727983 0)
(0.0243274 0.00723314 0)
(0.020423 0.00686378 0)
(0.0165465 0.00630667 0)
(0.0128037 0.00567729 0)
(0.00938461 0.00501023 0)
(0.0062685 0.00431488 0)
(0.00364699 0.00346085 0)
(0.00151272 0.00236979 0)
(0.000233753 0.000839888 0)
(9.59194e-05 -0.000634057 0)
(0.000481868 -0.00135139 0)
(0.000991701 -0.00154767 0)
(0.00136352 -0.00130972 0)
(0.0015326 -0.000814066 0)
(0.00136939 -0.000138202 0)
(0.000838372 0.000625832 0)
(-0.000143023 0.00147384 0)
(-0.00162126 0.00237663 0)
(-0.00367212 0.00335891 0)
(-0.00636352 0.00442232 0)
(-0.00978341 0.00560886 0)
(-0.0140284 0.00694464 0)
(-0.0192058 0.00847686 0)
(-0.0254243 0.0102235 0)
(-0.0327708 0.0121896 0)
(-0.0412944 0.0143296 0)
(-0.0509717 0.016562 0)
(-0.0616974 0.0187541 0)
(-0.0732652 0.0207446 0)
(-0.085386 0.0223485 0)
(-0.0977008 0.0233879 0)
(-0.109825 0.0237058 0)
(-0.121371 0.0231906 0)
(-0.131989 0.021779 0)
(-0.141368 0.0194616 0)
(-0.149251 0.0162719 0)
(-0.155423 0.0122839 0)
(-0.159716 0.00760061 0)
(-0.161991 0.00235361 0)
(-0.162146 -0.00330331 0)
(-0.160105 -0.00919021 0)
(-0.155826 -0.015105 0)
(-0.149303 -0.0208192 0)
(-0.140582 -0.0260852 0)
(-0.129763 -0.030638 0)
(-0.117026 -0.0342138 0)
(-0.102633 -0.0365638 0)
(-0.0869506 -0.0374872 0)
(-0.0704313 -0.036856 0)
(-0.0536276 -0.0346521 0)
(-0.0371355 -0.030984 0)
(-0.0215839 -0.0260994 0)
(-0.0075406 -0.0203641 0)
(0.00449802 -0.0142272 0)
(0.0142111 -0.00815998 0)
(0.0214142 -0.00259349 0)
(0.026144 0.00213602 0)
(0.028547 0.00582431 0)
(0.0289583 0.00840714 0)
(0.0277271 0.00994926 0)
(0.025322 0.0106075 0)
(0.0220997 0.0105943 0)
(0.0184848 0.0101216 0)
(0.0146879 0.00937903 0)
(0.011017 0.00846663 0)
(0.00751959 0.00741561 0)
(0.00448011 0.00608791 0)
(0.00191099 0.00430839 0)
(0.000318301 0.0017305 0)
(8.64468e-05 -0.000895378 0)
(0.000383585 -0.0017787 0)
(0.000707551 -0.00192479 0)
(0.000806327 -0.00146728 0)
(0.000610824 -0.000657818 0)
(-7.17535e-06 0.00042128 0)
(-0.00110823 0.00165573 0)
(-0.00279624 0.00305529 0)
(-0.0051587 0.00458666 0)
(-0.0083047 0.00629019 0)
(-0.0123487 0.00817215 0)
(-0.017416 0.0102916 0)
(-0.0236442 0.01268 0)
(-0.0311612 0.0153864 0)
(-0.0400782 0.0184047 0)
(-0.0504429 0.021694 0)
(-0.0622274 0.0251307 0)
(-0.0752879 0.0285374 0)
(-0.0893787 0.031675 0)
(-0.104152 0.0342906 0)
(-0.119211 0.0361356 0)
(-0.134136 0.03701 0)
(-0.148532 0.0367696 0)
(-0.162042 0.0353416 0)
(-0.174363 0.0327104 0)
(-0.185238 0.0289152 0)
(-0.194459 0.024032 0)
(-0.201852 0.0181716 0)
(-0.207277 0.011467 0)
(-0.210615 0.00407648 0)
(-0.211769 -0.00382229 0)
(-0.210652 -0.0120245 0)
(-0.207195 -0.0203002 0)
(-0.201342 -0.0283852 0)
(-0.193067 -0.0359854 0)
(-0.182375 -0.0427738 0)
(-0.169338 -0.0484072 0)
(-0.154103 -0.0525396 0)
(-0.136933 -0.0548602 0)
(-0.118211 -0.0551271 0)
(-0.0984677 -0.0532222 0)
(-0.0783465 -0.0491851 0)
(-0.0585936 -0.0432493 0)
(-0.0399581 -0.0358313 0)
(-0.0231507 -0.0274995 0)
(-0.00870958 -0.0188939 0)
(0.00299583 -0.0106412 0)
(0.0118598 -0.00326584 0)
(0.0179307 0.00286381 0)
(0.0214779 0.0075622 0)
(0.0228134 0.0108138 0)
(0.0224015 0.0127488 0)
(0.0206257 0.0135901 0)
(0.0179759 0.0136058 0)
(0.014742 0.013047 0)
(0.0113343 0.0120911 0)
(0.00788023 0.0107974 0)
(0.00476205 0.00904313 0)
(0.00204507 0.00653992 0)
(0.000341839 0.00278272 0)
(6.5732e-05 -0.00107457 0)
(0.000207459 -0.00199504 0)
(0.000233692 -0.0019792 0)
(-6.9732e-05 -0.00120341 0)
(-0.000778197 1.47355e-05 0)
(-0.00201241 0.00160421 0)
(-0.00386892 0.00344104 0)
(-0.00647529 0.00555881 0)
(-0.00996962 0.0079249 0)
(-0.0144962 0.0105981 0)
(-0.0202205 0.0135892 0)
(-0.0273001 0.0169689 0)
(-0.0359028 0.0207604 0)
(-0.0461493 0.0249872 0)
(-0.0581115 0.0295811 0)
(-0.0717435 0.0344094 0)
(-0.0868887 0.0392311 0)
(-0.103249 0.0437511 0)
(-0.12044 0.0476336 0)
(-0.13801 0.0505721 0)
(-0.155507 0.0523085 0)
(-0.172501 0.0526699 0)
(-0.188615 0.0515583 0)
(-0.203526 0.0489548 0)
(-0.216978 0.0448959 0)
(-0.228765 0.0394699 0)
(-0.238744 0.0327952 0)
(-0.246806 0.0250175 0)
(-0.252884 0.0162955 0)
(-0.256919 0.0068043 0)
(-0.258867 -0.00327106 0)
(-0.258669 -0.0137241 0)
(-0.256258 -0.0243265 0)
(-0.251542 -0.034812 0)
(-0.244423 -0.0448754 0)
(-0.234792 -0.0541595 0)
(-0.222571 -0.0622657 0)
(-0.207725 -0.0687593 0)
(-0.190323 -0.0732064 0)
(-0.17057 -0.075212 0)
(-0.148861 -0.0744899 0)
(-0.125789 -0.0709224 0)
(-0.102155 -0.0646328 0)
(-0.0788916 -0.0560081 0)
(-0.0569867 -0.0456933 0)
(-0.0373107 -0.034504 0)
(-0.0205395 -0.023311 0)
(-0.0070084 -0.012892 0)
(0.00320608 -0.00383686 0)
(0.0103254 0.00350975 0)
(0.0146597 0.00902579 0)
(0.0166883 0.0127912 0)
(0.0168225 0.015011 0)
(0.0155966 0.0159827 0)
(0.0133609 0.015997 0)
(0.0106038 0.0153008 0)
(0.0075336 0.0139804 0)
(0.00461712 0.0119369 0)
(0.0019921 0.00877218 0)
(0.000329797 0.00383499 0)
(3.57962e-05 -0.00117297 0)
(-3.66733e-05 -0.0019694 0)
(-0.000404751 -0.00165751 0)
(-0.00122127 -0.000449201 0)
(-0.00257354 0.00129147 0)
(-0.00457308 0.00352516 0)
(-0.00736586 0.00613239 0)
(-0.011105 0.0091783 0)
(-0.0159864 0.0126338 0)
(-0.0221863 0.0165758 0)
(-0.0299178 0.0210145 0)
(-0.0393533 0.0260188 0)
(-0.0506637 0.0315757 0)
(-0.0639164 0.0376424 0)
(-0.0790911 0.0440389 0)
(-0.0959958 0.0504983 0)
(-0.114316 0.0566415 0)
(-0.133598 0.0620676 0)
(-0.153346 0.0663816 0)
(-0.173031 0.069269 0)
(-0.192173 0.0704998 0)
(-0.210332 0.069953 0)
(-0.227159 0.0675939 0)
(-0.242379 0.0634745 0)
(-0.255816 0.057702 0)
(-0.267367 0.0504314 0)
(-0.277007 0.0418357 0)
(-0.284746 0.0321018 0)
(-0.290636 0.0214108 0)
(-0.294721 0.00994353 0)
(-0.297039 -0.00212655 0)
(-0.297589 -0.0146172 0)
(-0.29633 -0.0273339 0)
(-0.29316 -0.0400471 0)
(-0.287925 -0.0524833 0)
(-0.28041 -0.0643022 0)
(-0.270376 -0.0750944 0)
(-0.257569 -0.0843734 0)
(-0.241791 -0.0916011 0)
(-0.22295 -0.0962176 0)
(-0.20115 -0.097717 0)
(-0.176751 -0.0957273 0)
(-0.150436 -0.0901248 0)
(-0.12319 -0.0811155 0)
(-0.0962537 -0.0692946 0)
(-0.0709224 -0.0555976 0)
(-0.0483744 -0.041178 0)
(-0.0294038 -0.0271825 0)
(-0.0143811 -0.0145597 0)
(-0.00319771 -0.00391492 0)
(0.00448322 0.00447378 0)
(0.00921589 0.0106255 0)
(0.011497 0.0147257 0)
(0.0119301 0.0170987 0)
(0.0109358 0.0180646 0)
(0.00906857 0.0179311 0)
(0.00661617 0.0168079 0)
(0.00411209 0.0146211 0)
(0.00177237 0.010884 0)
(0.000283895 0.00482771 0)
(-6.83564e-06 -0.00111854 0)
(-0.000360491 -0.00156898 0)
(-0.00122562 -0.000798345 0)
(-0.00267051 0.000974219 0)
(-0.00480211 0.0033695 0)
(-0.00772276 0.00640504 0)
(-0.0116414 0.00998039 0)
(-0.0167364 0.0141964 0)
(-0.023265 0.0190265 0)
(-0.0314256 0.0245585 0)
(-0.0414653 0.0307878 0)
(-0.0535403 0.0377523 0)
(-0.0677793 0.04536 0)
(-0.0841374 0.0534483 0)
(-0.102446 0.0616801 0)
(-0.122327 0.0696316 0)
(-0.143295 0.076796 0)
(-0.164749 0.0827009 0)
(-0.186093 0.0869342 0)
(-0.206734 0.0892118 0)
(-0.226175 0.0893665 0)
(-0.244006 0.0873668 0)
(-0.259959 0.0832821 0)
(-0.273878 0.0772729 0)
(-0.285741 0.0695461 0)
(-0.295605 0.0603389 0)
(-0.303608 0.0498817 0)
(-0.309907 0.0383934 0)
(-0.314684 0.0260608 0)
(-0.318089 0.0130487 0)
(-0.320252 -0.000505987 0)
(-0.321237 -0.0144735 0)
(-0.321052 -0.028726 0)
(-0.319614 -0.0431088 0)
(-0.31676 -0.0574277 0)
(-0.312221 -0.0714157 0)
(-0.305642 -0.0847184 0)
(-0.296585 -0.0968672 0)
(-0.284581 -0.107283 0)
(-0.269179 -0.115286 0)
(-0.250063 -0.120151 0)
(-0.227147 -0.121192 0)
(-0.20072 -0.1179 0)
(-0.171525 -0.11009 0)
(-0.140801 -0.0980531 0)
(-0.110161 -0.0826238 0)
(-0.0813845 -0.0651335 0)
(-0.0560182 -0.0471656 0)
(-0.0350995 -0.0302345 0)
(-0.018923 -0.0154431 0)
(-0.00723781 -0.00338746 0)
(0.000611566 0.00582994 0)
(0.00529406 0.012377 0)
(0.0075584 0.0166247 0)
(0.007949 0.0189374 0)
(0.00710432 0.0196866 0)
(0.00540243 0.0190097 0)
(0.0034307 0.016858 0)
(0.00148254 0.0126872 0)
(0.0002288 0.00565797 0)
(-6.26449e-05 -0.000903934 0)
(-0.000764498 -0.000756341 0)
(-0.00222512 0.000651912 0)
(-0.00440496 0.00313262 0)
(-0.00744242 0.0063343 0)
(-0.0114322 0.0103584 0)
(-0.0166584 0.0151356 0)
(-0.0233195 0.0208004 0)
(-0.0317303 0.0273215 0)
(-0.0420911 0.0347815 0)
(-0.0546559 0.0431338 0)
(-0.0695157 0.0523403 0)
(-0.0867002 0.0621745 0)
(-0.10599 0.0723009 0)
(-0.127022 0.0821953 0)
(-0.14921 0.091278 0)
(-0.171894 0.0989427 0)
(-0.194333 0.104685 0)
(-0.215854 0.108122 0)
(-0.235844 0.109051 0)
(-0.253866 0.107428 0)
(-0.269628 0.10337 0)
(-0.283038 0.0970959 0)
(-0.294135 0.0889034 0)
(-0.303096 0.0791057 0)
(-0.310154 0.0680125 0)
(-0.315598 0.0558919 0)
(-0.319705 0.0429716 0)
(-0.322749 0.0294221 0)
(-0.324951 0.0153736 0)
(-0.326499 0.000912625 0)
(-0.327509 -0.0138941 0)
(-0.328042 -0.0289953 0)
(-0.328066 -0.0443264 0)
(-0.327465 -0.0597967 0)
(-0.325999 -0.0752526 0)
(-0.32331 -0.0904554 0)
(-0.318891 -0.105038 0)
(-0.312115 -0.118484 0)
(-0.302249 -0.130102 0)
(-0.288556 -0.139045 0)
(-0.270402 -0.144362 0)
(-0.247442 -0.145121 0)
(-0.219802 -0.140583 0)
(-0.188268 -0.130445 0)
(-0.154337 -0.115058 0)
(-0.120131 -0.0955657 0)
(-0.0880118 -0.073805 0)
(-0.0600777 -0.0519611 0)
(-0.0375764 -0.0319766 0)
(-0.0207629 -0.0151365 0)
(-0.00903548 -0.00189027 0)
(-0.00150686 0.00785195 0)
(0.00282343 0.0145369 0)
(0.00472322 0.0186201 0)
(0.0049762 0.0205711 0)
(0.00408346 0.020581 0)
(0.00269312 0.0186386 0)
(0.00117424 0.0141824 0)
(0.000172906 0.00634372 0)
(-0.000137853 -0.000446975 0)
(-0.00126741 0.000606853 0)
(-0.00343006 0.00285171 0)
(-0.00645541 0.00619879 0)
(-0.0105272 0.0103799 0)
(-0.0157329 0.0156067 0)
(-0.0224398 0.0218467 0)
(-0.0308541 0.0292567 0)
(-0.0413353 0.0377845 0)
(-0.0540539 0.0474775 0)
(-0.069229 0.0582038 0)
(-0.0868256 0.0697901 0)
(-0.106712 0.0818174 0)
(-0.128438 0.0937368 0)
(-0.151417 0.10483 0)
(-0.174841 0.114384 0)
(-0.197894 0.12174 0)
(-0.21974 0.126422 0)
(-0.23971 0.128155 0)
(-0.257284 0.126902 0)
(-0.272208 0.122821 0)
(-0.284418 0.116226 0)
(-0.294067 0.10751 0)
(-0.301416 0.0970972 0)
(-0.30683 0.0853788 0)
(-0.310675 0.0726992 0)
(-0.31333 0.059325 0)
(-0.315119 0.0454588 0)
(-0.316338 0.0312304 0)
(-0.317215 0.0167213 0)
(-0.317944 0.00196413 0)
(-0.318653 -0.0130328 0)
(-0.319437 -0.0282846 0)
(-0.320319 -0.0438052 0)
(-0.321266 -0.059601 0)
(-0.322141 -0.0756387 0)
(-0.322697 -0.0918242 0)
(-0.322517 -0.107954 0)
(-0.321009 -0.123676 0)
(-0.317371 -0.138429 0)
(-0.310632 -0.151417 0)
(-0.299717 -0.161592 0)
(-0.283621 -0.167724 0)
(-0.261626 -0.168533 0)
(-0.233616 -0.162956 0)
(-0.200335 -0.150472 0)
(-0.163572 -0.131476 0)
(-0.126025 -0.107481 0)
(-0.090835 -0.0810296 0)
(-0.0607184 -0.0550657 0)
(-0.0372026 -0.032097 0)
(-0.0203002 -0.0134599 0)
(-0.0090716 0.000577712 0)
(-0.00219573 0.0104988 0)
(0.00144927 0.0169101 0)
(0.00290023 0.020451 0)
(0.00284798 0.0214244 0)
(0.0020361 0.0198923 0)
(0.000919044 0.0153235 0)
(0.000133305 0.00686466 0)
(-0.000231542 0.000272366 0)
(-0.00186358 0.00256526 0)
(-0.00482486 0.0058515 0)
(-0.00879141 0.0102277 0)
(-0.0140086 0.0155751 0)
(-0.0205543 0.0222359 0)
(-0.0288805 0.030212 0)
(-0.0391807 0.0396609 0)
(-0.0518355 0.0504823 0)
(-0.0669405 0.0626439 0)
(-0.0846261 0.0758716 0)
(-0.104665 0.0897908 0)
(-0.126707 0.103739 0)
(-0.150035 0.116935 0)
(-0.173832 0.128483 0)
(-0.197098 0.137591 0)
(-0.218937 0.143626 0)
(-0.238529 0.146248 0)
(-0.25536 0.145396 0)
(-0.269145 0.14129 0)
(-0.279924 0.134336 0)
(-0.287912 0.125057 0)
(-0.293515 0.113983 0)
(-0.297168 0.101616 0)
(-0.299349 0.0883637 0)
(-0.30047 0.0745498 0)
(-0.300907 0.0603935 0)
(-0.300944 0.0460413 0)
(-0.300825 0.0315664 0)
(-0.300717 0.0170004 0)
(-0.300767 0.00233283 0)
(-0.301075 -0.0124648 0)
(-0.301734 -0.0274437 0)
(-0.302803 -0.0426602 0)
(-0.304325 -0.0581788 0)
(-0.306285 -0.0740517 0)
(-0.308604 -0.0903073 0)
(-0.31107 -0.106912 0)
(-0.313309 -0.123725 0)
(-0.314697 -0.14043 0)
(-0.314343 -0.156461 0)
(-0.311057 -0.170922 0)
(-0.303442 -0.182563 0)
(-0.290056 -0.189812 0)
(-0.269733 -0.190958 0)
(-0.241984 -0.18448 0)
(-0.207454 -0.169548 0)
(-0.1682 -0.146566 0)
(-0.127628 -0.11756 0)
(-0.0897823 -0.0859864 0)
(-0.0581321 -0.0558332 0)
(-0.0343304 -0.0301313 0)
(-0.0180476 -0.0102245 0)
(-0.00777629 0.00411794 0)
(-0.00193197 0.0136596 0)
(0.00091948 0.0193131 0)
(0.00176502 0.0215922 0)
(0.00151686 0.0207048 0)
(0.000742935 0.016208 0)
(0.000113516 0.00729637 0)
(-0.000349586 0.00134575 0)
(-0.00256527 0.0052583 0)
(-0.00641957 0.00980092 0)
(-0.0114158 0.0153778 0)
(-0.0178754 0.0220937 0)
(-0.0258596 0.0304325 0)
(-0.0358973 0.0404163 0)
(-0.0481396 0.0521674 0)
(-0.062954 0.0654969 0)
(-0.0803078 0.0802327 0)
(-0.100185 0.0958927 0)
(-0.122105 0.111839 0)
(-0.145466 0.127139 0)
(-0.169276 0.140789 0)
(-0.192535 0.15178 0)
(-0.214143 0.159339 0)
(-0.233267 0.162992 0)
(-0.249275 0.162663 0)
(-0.261955 0.158607 0)
(-0.271356 0.151347 0)
(-0.277846 0.141528 0)
(-0.281893 0.129824 0)
(-0.284074 0.116833 0)
(-0.284902 0.10305 0)
(-0.284862 0.0888311 0)
(-0.284308 0.0744221 0)
(-0.283532 0.0599611 0)
(-0.282715 0.045521 0)
(-0.282001 0.0311164 0)
(-0.281466 0.0167375 0)
(-0.281189 0.00234849 0)
(-0.281216 -0.0120925 0)
(-0.281617 -0.0266428 0)
(-0.282454 -0.0413642 0)
(-0.283811 -0.0563343 0)
(-0.285759 -0.0716383 0)
(-0.288361 -0.08737 0)
(-0.291612 -0.103612 0)
(-0.295411 -0.120406 0)
(-0.29946 -0.137694 0)
(-0.303199 -0.155233 0)
(-0.305698 -0.172478 0)
(-0.305627 -0.188469 0)
(-0.301277 -0.20174 0)
(-0.290763 -0.210337 0)
(-0.272387 -0.212009 0)
(-0.245207 -0.204654 0)
(-0.209682 -0.187014 0)
(-0.168171 -0.159533 0)
(-0.124898 -0.124913 0)
(-0.0850031 -0.0879212 0)
(-0.052685 -0.0537465 0)
(-0.0295404 -0.0259812 0)
(-0.0145525 -0.00550269 0)
(-0.00571894 0.00837537 0)
(-0.00106881 0.0169235 0)
(0.000823957 0.0209984 0)
(0.00115462 0.0210723 0)
(0.000662571 0.0168672 0)
(0.000118649 0.00766589 0)
(-0.000486756 0.00279404 0)
(-0.00334849 0.00871516 0)
(-0.00816399 0.0147206 0)
(-0.0142471 0.0216618 0)
(-0.0220079 0.0299439 0)
(-0.031478 0.0401888 0)
(-0.0432471 0.0524127 0)
(-0.0573861 0.0666557 0)
(-0.0742071 0.0825893 0)
(-0.0934911 0.0998328 0)
(-0.115023 0.117632 0)
(-0.138031 0.135043 0)
(-0.161663 0.150868 0)
(-0.184704 0.163943 0)
(-0.20608 0.173261 0)
(-0.224751 0.178217 0)
(-0.240121 0.178647 0)
(-0.251891 0.174848 0)
(-0.260238 0.167431 0)
(-0.265555 0.157196 0)
(-0.268473 0.144949 0)
(-0.269608 0.131418 0)
(-0.269587 0.117168 0)
(-0.268879 0.102605 0)
(-0.267874 0.0879773 0)
(-0.266797 0.073421 0)
(-0.265813 0.0589819 0)
(-0.264977 0.0446648 0)
(-0.264331 0.0304403 0)
(-0.263868 0.0162766 0)
(-0.263602 0.00213307 0)
(-0.263534 -0.0120241 0)
(-0.263706 -0.0262355 0)
(-0.264164 -0.0405431 0)
(-0.265002 -0.0550045 0)
(-0.26632 -0.0696944 0)
(-0.268259 -0.084714 0)
(-0.270942 -0.10019 0)
(-0.274478 -0.116262 0)
(-0.278871 -0.133057 0)
(-0.283956 -0.150619 0)
(-0.289263 -0.168805 0)
(-0.293898 -0.187129 0)
(-0.296432 -0.204585 0)
(-0.294898 -0.219491 0)
(-0.286965 -0.229458 0)
(-0.270374 -0.231596 0)
(-0.243673 -0.223081 0)
(-0.20711 -0.202164 0)
(-0.163418 -0.169371 0)
(-0.117829 -0.128476 0)
(-0.0767277 -0.0859301 0)
(-0.0449261 -0.0484342 0)
(-0.0234709 -0.0195799 0)
(-0.0104706 0.00037273 0)
(-0.00335769 0.0129761 0)
(-0.000114568 0.0195649 0)
(0.000888781 0.0210423 0)
(0.000654432 0.0173993 0)
(0.000143454 0.00805351 0)
(-0.000646236 0.0047035 0)
(-0.00421099 0.0130521 0)
(-0.0100386 0.0207256 0)
(-0.017243 0.0291939 0)
(-0.0263279 0.0392373 0)
(-0.0372755 0.0515966 0)
(-0.0507103 0.0662423 0)
(-0.0665815 0.0830714 0)
(-0.0851018 0.101555 0)
(-0.105817 0.121031 0)
(-0.12828 0.140429 0)
(-0.15143 0.158491 0)
(-0.174216 0.173814 0)
(-0.195315 0.185197 0)
(-0.213735 0.191799 0)
(-0.228672 0.193349 0)
(-0.239906 0.19011 0)
(-0.247539 0.182794 0)
(-0.252123 0.172328 0)
(-0.254302 0.159691 0)
(-0.254848 0.145734 0)
(-0.254384 0.131123 0)
(-0.253462 0.116303 0)
(-0.252412 0.101535 0)
(-0.251475 0.0869311 0)
(-0.250723 0.0725201 0)
(-0.250195 0.058271 0)
(-0.249844 0.0441423 0)
(-0.249642 0.0300841 0)
(-0.249525 0.0160624 0)
(-0.249473 0.00204775 0)
(-0.249458 -0.0119746 0)
(-0.2495 -0.0260193 0)
(-0.249627 -0.040099 0)
(-0.249919 -0.0542385 0)
(-0.25047 -0.0684803 0)
(-0.251432 -0.0828968 0)
(-0.252975 -0.0976023 0)
(-0.255307 -0.112756 0)
(-0.258616 -0.128563 0)
(-0.263035 -0.145239 0)
(-0.268518 -0.162948 0)
(-0.274716 -0.181661 0)
(-0.280789 -0.200968 0)
(-0.285244 -0.219818 0)
(-0.285882 -0.236288 0)
(-0.279937 -0.247481 0)
(-0.264599 -0.249743 0)
(-0.237894 -0.239422 0)
(-0.19994 -0.214213 0)
(-0.154003 -0.175019 0)
(-0.106615 -0.127147 0)
(-0.0655013 -0.0794669 0)
(-0.0356571 -0.0398492 0)
(-0.0169298 -0.0114797 0)
(-0.0063845 0.00684242 0)
(-0.00127904 0.0169973 0)
(0.000611633 0.020517 0)
(0.000680026 0.0177993 0)
(0.000182445 0.00847633 0)
(-0.000815858 0.00707322 0)
(-0.00510346 0.0182488 0)
(-0.0119494 0.0277707 0)
(-0.0202604 0.0379026 0)
(-0.0306329 0.0498652 0)
(-0.0429752 0.0644814 0)
(-0.0579157 0.0816285 0)
(-0.0752397 0.100995 0)
(-0.095021 0.121793 0)
(-0.116537 0.143022 0)
(-0.139112 0.163277 0)
(-0.16144 0.181032 0)
(-0.182383 0.194798 0)
(-0.200654 0.203498 0)
(-0.215518 0.206637 0)
(-0.226528 0.204408 0)
(-0.233903 0.197547 0)
(-0.238112 0.187129 0)
(-0.239978 0.174292 0)
(-0.240256 0.160054 0)
(-0.23971 0.145185 0)
(-0.238846 0.130195 0)
(-0.238058 0.115352 0)
(-0.237496 0.100759 0)
(-0.237246 0.0864037 0)
(-0.237252 0.0722332 0)
(-0.237464 0.0581721 0)
(-0.237776 0.0441623 0)
(-0.238126 0.0301567 0)
(-0.238428 0.0161346 0)
(-0.238655 0.0020868 0)
(-0.238765 -0.0119789 0)
(-0.238771 -0.0260508 0)
(-0.238683 -0.040114 0)
(-0.238559 -0.0541599 0)
(-0.238468 -0.0681949 0)
(-0.238537 -0.0822484 0)
(-0.23892 -0.0963935 0)
(-0.239836 -0.110753 0)
(-0.241536 -0.125529 0)
(-0.244303 -0.140986 0)
(-0.248372 -0.157452 0)
(-0.253833 -0.175214 0)
(-0.260448 -0.194383 0)
(-0.267425 -0.214615 0)
(-0.273209 -0.234795 0)
(-0.275342 -0.252679 0)
(-0.270641 -0.264742 0)
(-0.255731 -0.266428 0)
(-0.228231 -0.25312 0)
(-0.188267 -0.222112 0)
(-0.140027 -0.175073 0)
(-0.0916618 -0.119899 0)
(-0.0522186 -0.068175 0)
(-0.025909 -0.0285923 0)
(-0.0106811 -0.00230145 0)
(-0.00297043 0.0128872 0)
(0.00017097 0.0193521 0)
(0.000679162 0.0180571 0)
(0.000224525 0.00896685 0)
(-0.000994842 0.00995991 0)
(-0.00600825 0.0243683 0)
(-0.0138497 0.035908 0)
(-0.0232185 0.0478263 0)
(-0.0347905 0.0618387 0)
(-0.048373 0.0787995 0)
(-0.0645648 0.0984362 0)
(-0.0829547 0.12016 0)
(-0.103453 0.142868 0)
(-0.125068 0.165193 0)
(-0.146933 0.185426 0)
(-0.167593 0.201875 0)
(-0.185955 0.213127 0)
(-0.200924 0.218414 0)
(-0.21214 0.217729 0)
(-0.219568 0.211786 0)
(-0.223825 0.201752 0)
(-0.22564 0.188948 0)
(-0.225956 0.17457 0)
(-0.225491 0.159539 0)
(-0.224883 0.144443 0)
(-0.224446 0.129584 0)
(-0.224389 0.115047 0)
(-0.224697 0.100796 0)
(-0.225336 0.0867355 0)
(-0.22617 0.0727683 0)
(-0.227109 0.0588094 0)
(-0.228026 0.0448077 0)
(-0.228859 0.0307346 0)
(-0.229525 0.0165892 0)
(-0.230005 0.00238434 0)
(-0.230258 -0.0118531 0)
(-0.230296 -0.0260909 0)
(-0.230118 -0.0402947 0)
(-0.229765 -0.0544313 0)
(-0.229276 -0.0684789 0)
(-0.228739 -0.0824272 0)
(-0.228261 -0.0963028 0)
(-0.228017 -0.110169 0)
(-0.228233 -0.124172 0)
(-0.229213 -0.138538 0)
(-0.231307 -0.15362 0)
(-0.234861 -0.169843 0)
(-0.24009 -0.187661 0)
(-0.246854 -0.20731 0)
(-0.254403 -0.228521 0)
(-0.261046 -0.250027 0)
(-0.264049 -0.269138 0)
(-0.259726 -0.281504 0)
(-0.244228 -0.28145 0)
(-0.214847 -0.26339 0)
(-0.172161 -0.224434 0)
(-0.12173 -0.16813 0)
(-0.0738381 -0.105967 0)
(-0.0382028 -0.0527547 0)
(-0.0167706 -0.0155946 0)
(-0.0055018 0.00657739 0)
(-0.000587515 0.0172276 0)
(0.000593889 0.0180432 0)
(0.000261205 0.00949169 0)
(-0.00116366 0.0133151 0)
(-0.00685375 0.0313106 0)
(-0.015612 0.0449975 0)
(-0.025932 0.0587765 0)
(-0.0385501 0.0748948 0)
(-0.0531466 0.0941793 0)
(-0.0702609 0.116156 0)
(-0.089264 0.139899 0)
(-0.109898 0.163964 0)
(-0.130931 0.186622 0)
(-0.151381 0.205941 0)
(-0.169759 0.220201 0)
(-0.185155 0.228245 0)
(-0.19678 0.229768 0)
(-0.204698 0.225329 0)
(-0.209255 0.216131 0)
(-0.211359 0.203656 0)
(-0.211848 0.189312 0)
(-0.211643 0.174205 0)
(-0.211308 0.159052 0)
(-0.211291 0.144205 0)
(-0.211699 0.129758 0)
(-0.212583 0.115641 0)
(-0.213805 0.101727 0)
(-0.215267 0.0878817 0)
(-0.216798 0.0740011 0)
(-0.21831 0.0600161 0)
(-0.219679 0.0458977 0)
(-0.220861 0.0316422 0)
(-0.221788 0.01727 0)
(-0.222453 0.00281356 0)
(-0.222823 -0.0116856 0)
(-0.222916 -0.0261805 0)
(-0.222725 -0.0406258 0)
(-0.222282 -0.0549724 0)
(-0.221604 -0.0691827 0)
(-0.220745 -0.0832181 0)
(-0.219765 -0.0970699 0)
(-0.218778 -0.110744 0)
(-0.21794 -0.124319 0)
(-0.217497 -0.137936 0)
(-0.217782 -0.151884 0)
(-0.219212 -0.166571 0)
(-0.22224 -0.18258 0)
(-0.227185 -0.200505 0)
(-0.234016 -0.220758 0)
(-0.241937 -0.24307 0)
(-0.249105 -0.265931 0)
(-0.252336 -0.285974 0)
(-0.247468 -0.297718 0)
(-0.230119 -0.294181 0)
(-0.197668 -0.268769 0)
(-0.151581 -0.219337 0)
(-0.099712 -0.152622 0)
(-0.0545678 -0.0856966 0)
(-0.025078 -0.0344118 0)
(-0.00916746 -0.00271085 0)
(-0.00180349 0.0137407 0)
(0.000373392 0.0175995 0)
(0.000283354 0.01002 0)
(-0.00131907 0.0171439 0)
(-0.00761566 0.039066 0)
(-0.0171809 0.0550153 0)
(-0.028311 0.0707068 0)
(-0.0417734 0.0889447 0)
(-0.0571025 0.110466 0)
(-0.0747549 0.134544 0)
(-0.0938842 0.159872 0)
(-0.114083 0.184658 0)
(-0.133938 0.206858 0)
(-0.15245 0.224441 0)
(-0.168209 0.235822 0)
(-0.180595 0.240267 0)
(-0.18918 0.238029 0)
(-0.19443 0.230231 0)
(-0.196972 0.21846 0)
(-0.197867 0.204355 0)
(-0.197923 0.189255 0)
(-0.197926 0.17406 0)
(-0.198229 0.159222 0)
(-0.199082 0.144862 0)
(-0.200419 0.130896 0)
(-0.20218 0.117157 0)
(-0.204163 0.103475 0)
(-0.206254 0.0897145 0)
(-0.208284 0.0757924 0)
(-0.210183 0.0616681 0)
(-0.211845 0.0473384 0)
(-0.21325 0.0328246 0)
(-0.214341 0.0181646 0)
(-0.215125 0.00340698 0)
(-0.215579 -0.011397 0)
(-0.215725 -0.0261903 0)
(-0.215557 -0.0409229 0)
(-0.215106 -0.0555373 0)
(-0.214376 -0.0699909 0)
(-0.213404 -0.0842292 0)
(-0.212211 -0.0982253 0)
(-0.210863 -0.111943 0)
(-0.209442 -0.125406 0)
(-0.208108 -0.138665 0)
(-0.207105 -0.151908 0)
(-0.206796 -0.165434 0)
(-0.207671 -0.179789 0)
(-0.210264 -0.195669 0)
(-0.215027 -0.213892 0)
(-0.22194 -0.234981 0)
(-0.230177 -0.258635 0)
(-0.237513 -0.282873 0)
(-0.240324 -0.303313 0)
(-0.233738 -0.312998 0)
(-0.21317 -0.303305 0)
(-0.176335 -0.267208 0)
(-0.126733 -0.204459 0)
(-0.0751348 -0.128079 0)
(-0.0360727 -0.0605062 0)
(-0.0141791 -0.0159222 0)
(-0.00361198 0.00833483 0)
(-1.42005e-05 0.0164751 0)
(0.000284083 0.0104754 0)
(-0.00143755 0.0213336 0)
(-0.00821455 0.047442 0)
(-0.0184235 0.0657185 0)
(-0.030173 0.0833083 0)
(-0.0442303 0.103584 0)
(-0.0599726 0.127139 0)
(-0.0777617 0.152961 0)
(-0.0965515 0.179344 0)
(-0.115823 0.204183 0)
(-0.134059 0.2252 0)
(-0.150334 0.240403 0)
(-0.163419 0.2485 0)
(-0.173039 0.249295 0)
(-0.179117 0.243625 0)
(-0.182442 0.233098 0)
(-0.1838 0.219537 0)
(-0.184267 0.204578 0)
(-0.184516 0.189359 0)
(-0.185141 0.174509 0)
(-0.186281 0.160214 0)
(-0.188019 0.146396 0)
(-0.190172 0.132853 0)
(-0.192628 0.119374 0)
(-0.195167 0.105788 0)
(-0.197689 0.0919857 0)
(-0.200044 0.0779132 0)
(-0.202188 0.0635617 0)
(-0.204033 0.0489516 0)
(-0.205574 0.0341257 0)
(-0.206764 0.0191354 0)
(-0.207621 0.00404326 0)
(-0.208123 -0.0110925 0)
(-0.208301 -0.0262059 0)
(-0.208152 -0.041245 0)
(-0.207711 -0.0561471 0)
(-0.20698 -0.0708717 0)
(-0.205991 -0.085358 0)
(-0.20475 -0.0995765 0)
(-0.203287 -0.113467 0)
(-0.201634 -0.127024 0)
(-0.19987 -0.140223 0)
(-0.198136 -0.153162 0)
(-0.196682 -0.165997 0)
(-0.195917 -0.179147 0)
(-0.196377 -0.193223 0)
(-0.198732 -0.209166 0)
(-0.203465 -0.227957 0)
(-0.210625 -0.250268 0)
(-0.219084 -0.275557 0)
(-0.226266 -0.301063 0)
(-0.227722 -0.320935 0)
(-0.218128 -0.326163 0)
(-0.192672 -0.306625 0)
(-0.150575 -0.255566 0)
(-0.0981812 -0.177931 0)
(-0.0503896 -0.0953873 0)
(-0.0206175 -0.0342628 0)
(-0.00617422 0.000438401 0)
(-0.00059044 0.0143713 0)
(0.000257361 0.0107929 0)
(-0.00151783 0.025832 0)
(-0.00863489 0.0563613 0)
(-0.0193026 0.0770227 0)
(-0.0314599 0.0964786 0)
(-0.0458389 0.118676 0)
(-0.0616614 0.144024 0)
(-0.079194 0.171202 0)
(-0.0972281 0.198108 0)
(-0.115184 0.222377 0)
(-0.131522 0.241607 0)
(-0.145471 0.253991 0)
(-0.156044 0.258655 0)
(-0.163315 0.256003 0)
(-0.167503 0.247413 0)
(-0.169614 0.234856 0)
(-0.170465 0.22023 0)
(-0.171046 0.205026 0)
(-0.171834 0.190107 0)
(-0.173225 0.175814 0)
(-0.175178 0.1621 0)
(-0.177664 0.14875 0)
(-0.18044 0.135502 0)
(-0.183388 0.122144 0)
(-0.186297 0.108528 0)
(-0.189099 0.0945829 0)
(-0.191662 0.0802839 0)
(-0.193966 0.0656498 0)
(-0.195933 0.0507183 0)
(-0.197569 0.0355492 0)
(-0.198827 0.0202039 0)
(-0.199732 0.00475731 0)
(-0.200262 -0.0107261 0)
(-0.200454 -0.0261706 0)