/*--------------------------------*- C++ -*----------------------------------*\
| =========                 |                                                 |
| \\      /  F ield         | OpenFOAM: The Open Source CFD Toolbox           |
|  \\    /   O peration     | Version:  2406                                  |
|   \\  /    A nd           | Website:  www.openfoam.com                      |
|    \\/     M anipulation  |                                                 |
\*---------------------------------------------------------------------------*/
FoamFile
{
    version     2.0;
    format      ascii;
    arch        "LSB;label=32;scalar=64";
    class       volVectorField;
    location    "17.9";
    object      U;
}
// * * * * * * * * * * * * * * * * * * * * * * * * * * * * * * * * * * * * * //

dimensions      [0 1 -1 0 0 0 0];

internalField   nonuniform List<vector> 
3600
(
(4.22065e-05 -3.85342e-05 0)
(0.000123995 -3.95554e-05 0)
(0.000179645 -2.1987e-05 0)
(0.000159957 9.43798e-08 0)
(9.7012e-05 1.06276e-05 0)
(8.09138e-07 1.78135e-05 0)
(-0.000112624 1.91391e-05 0)
(-0.000236247 2.20584e-05 0)
(-0.000374543 2.43299e-05 0)
(-0.000525335 2.99635e-05 0)
(-0.000700958 3.65078e-05 0)
(-0.000900155 4.62327e-05 0)
(-0.00113644 5.71249e-05 0)
(-0.00140834 7.05935e-05 0)
(-0.00172777 8.49832e-05 0)
(-0.00209201 0.000100986 0)
(-0.00250898 0.000117023 0)
(-0.00297262 0.000133113 0)
(-0.00348421 0.000147592 0)
(-0.00403172 0.000159872 0)
(-0.00460721 0.000168059 0)
(-0.00518993 0.000170921 0)
(-0.00576026 0.000166174 0)
(-0.00628632 0.000151992 0)
(-0.00673561 0.000125905 0)
(-0.0070653 8.61404e-05 0)
(-0.00723324 3.10682e-05 0)
(-0.00719217 -3.95401e-05 0)
(-0.00690139 -0.000124758 0)
(-0.00632412 -0.00022149 0)
(-0.00543957 -0.000324822 0)
(-0.00424125 -0.000427618 0)
(-0.0027476 -0.000521379 0)
(-0.00099771 -0.00059671 0)
(0.000941611 -0.000644733 0)
(0.00298616 -0.000658196 0)
(0.0050318 -0.000632878 0)
(0.00697199 -0.000568569 0)
(0.00869777 -0.000469424 0)
(0.0101202 -0.000343921 0)
(0.0111669 -0.000203391 0)
(0.0118043 -6.09009e-05 0)
(0.0120234 7.15384e-05 0)
(0.0118577 0.000183767 0)
(0.011355 0.000269961 0)
(0.010594 0.000327446 0)
(0.00964453 0.000358102 0)
(0.0085927 0.000365169 0)
(0.00749387 0.000354712 0)
(0.00641444 0.000331435 0)
(0.00537712 0.000301802 0)
(0.00442256 0.000268913 0)
(0.0035412 0.000238264 0)
(0.0027558 0.000209869 0)
(0.00203624 0.000187779 0)
(0.00140386 0.00016538 0)
(0.000835529 0.000142658 0)
(0.000380478 9.88378e-05 0)
(6.88444e-05 3.83282e-05 0)
(-3.98927e-05 -4.04467e-05 0)
(4.75766e-05 -0.000127701 0)
(8.48646e-05 -8.54847e-05 0)
(2.0823e-05 2.14607e-05 0)
(-0.000191554 0.000142382 0)
(-0.000508577 0.000215442 0)
(-0.000901819 0.000269387 0)
(-0.00134674 0.000296459 0)
(-0.0018248 0.000325685 0)
(-0.00234291 0.000352334 0)
(-0.00289603 0.000392254 0)
(-0.0035054 0.00043896 0)
(-0.00417158 0.00050062 0)
(-0.00491921 0.000571185 0)
(-0.00575038 0.00065469 0)
(-0.00668735 0.000745187 0)
(-0.00772957 0.000842966 0)
(-0.0088906 0.00094081 0)
(-0.0101606 0.00103517 0)
(-0.0115368 0.00111686 0)
(-0.0129927 0.00117886 0)
(-0.0145024 0.00121001 0)
(-0.0160165 0.00120051 0)
(-0.0174826 0.00113789 0)
(-0.0188266 0.00101145 0)
(-0.0199717 0.000810224 0)
(-0.0208262 0.00052721 0)
(-0.021302 0.000158781 0)
(-0.0213081 -0.00029143 0)
(-0.0207697 -0.00081291 0)
(-0.0196244 -0.00138573 0)
(-0.0178403 -0.00198212 0)
(-0.0154119 -0.00256623 0)
(-0.0123748 -0.00309767 0)
(-0.00879789 -0.00353364 0)
(-0.0047932 -0.00383422 0)
(-0.000501599 -0.00396598 0)
(0.00390251 -0.00390735 0)
(0.00823414 -0.0036518 0)
(0.0122961 -0.00321061 0)
(0.0159105 -0.00261291 0)
(0.0189149 -0.00190321 0)
(0.0211982 -0.00113697 0)
(0.0226863 -0.000372715 0)
(0.0233757 0.000334104 0)
(0.0232997 0.000940162 0)
(0.022558 0.00141626 0)
(0.0212603 0.00175234 0)
(0.0195603 0.00195188 0)
(0.0175821 0.00203327 0)
(0.0154726 0.00201873 0)
(0.013316 0.0019377 0)
(0.0112173 0.001813 0)
(0.00920053 0.00167138 0)
(0.00732908 0.00152294 0)
(0.0055807 0.00138324 0)
(0.00400831 0.00123349 0)
(0.00258832 0.00106833 0)
(0.00141641 0.00082094 0)
(0.000523472 0.00049831 0)
(4.79522e-05 7.43381e-05 0)
(2.22565e-05 -0.000174771 0)
(-8.1797e-05 3.22813e-06 0)
(-0.000389292 0.000281303 0)
(-0.000898488 0.00056552 0)
(-0.00156196 0.000749018 0)
(-0.00232575 0.000883455 0)
(-0.00316802 0.000961444 0)
(-0.00405844 0.00103779 0)
(-0.00500979 0.00110989 0)
(-0.00601296 0.00120781 0)
(-0.00709709 0.00132375 0)
(-0.00826401 0.00147281 0)
(-0.00954828 0.0016464 0)
(-0.010957 0.00185106 0)
(-0.0125228 0.00207634 0)
(-0.0142504 0.00231993 0)
(-0.0161603 0.00256618 0)
(-0.0182429 0.00280311 0)
(-0.0204941 0.00300857 0)
(-0.0228782 0.00316215 0)
(-0.0253567 0.00323646 0)
(-0.0278596 0.00320593 0)
(-0.0303107 0.00304184 0)
(-0.032607 0.00271987 0)
(-0.0346417 0.00221832 0)
(-0.0362916 0.00152519 0)
(-0.0374391 0.000638104 0)
(-0.0379655 -0.00042995 0)
(-0.0377714 -0.00165137 0)
(-0.0367729 -0.00298099 0)
(-0.0349196 -0.00435925 0)
(-0.03219 -0.0057127 0)
(-0.0286076 -0.00696023 0)
(-0.0242327 -0.00801664 0)
(-0.0191753 -0.00880153 0)
(-0.0135819 -0.00924494 0)
(-0.00764357 -0.0092971 0)
(-0.00157435 -0.00893368 0)
(0.00438489 -0.00816284 0)
(0.00999876 -0.00702607 0)
(0.0150346 -0.00559757 0)
(0.0193033 -0.00397744 0)
(0.0226495 -0.00228119 0)
(0.0249945 -0.00062703 0)
(0.0263076 0.000879575 0)
(0.026646 0.00215589 0)
(0.0260984 0.00315265 0)
(0.0248251 0.00385245 0)
(0.0229756 0.00427124 0)
(0.0207426 0.00444482 0)
(0.0182601 0.00442746 0)
(0.0156905 0.00427192 0)
(0.0131037 0.00403555 0)
(0.0106119 0.00375199 0)
(0.00822005 0.00345249 0)
(0.00601954 0.00311467 0)
(0.00399413 0.00271871 0)
(0.00228423 0.00215871 0)
(0.000914623 0.00141336 0)
(0.000127915 0.000424742 0)
(-1.82184e-05 -0.000102394 0)
(-0.00032335 0.000339229 0)
(-0.000951086 0.000861252 0)
(-0.0018217 0.00134599 0)
(-0.0028858 0.00166371 0)
(-0.00405939 0.00189498 0)
(-0.0053316 0.00203933 0)
(-0.00666029 0.00217762 0)
(-0.00806903 0.00231153 0)
(-0.00954422 0.00248589 0)
(-0.0111261 0.00269374 0)
(-0.012819 0.00295874 0)
(-0.0146715 0.00327169 0)
(-0.0166992 0.0036426 0)
(-0.0189506 0.00405674 0)
(-0.02144 0.00450801 0)
(-0.0242004 0.00496999 0)
(-0.0272272 0.00541876 0)
(-0.0305202 0.00581492 0)
(-0.0340393 0.00612 0)
(-0.037739 0.00628578 0)
(-0.0415349 0.00626674 0)
(-0.0453332 0.0060147 0)
(-0.0490073 0.00548951 0)
(-0.052425 0.00465758 0)
(-0.0554328 0.0035014 0)
(-0.0578813 0.00201951 0)
(-0.0596159 0.000233636 0)
(-0.0605003 -0.00181274 0)
(-0.0604101 -0.00405092 0)
(-0.0592544 -0.00639133 0)
(-0.0569711 -0.00872407 0)
(-0.0535456 -0.0109268 0)
(-0.0490052 -0.0128691 0)
(-0.0434346 -0.0144238 0)
(-0.0369659 -0.015475 0)
(-0.0297902 -0.0159316 0)
(-0.0221385 -0.0157355 0)
(-0.0142873 -0.0148744 0)
(-0.00652645 -0.0133846 0)
(0.00083945 -0.0113546 0)
(0.00753637 -0.00891783 0)
(0.0133161 -0.00624143 0)
(0.0180072 -0.00350817 0)
(0.0214928 -0.000895245 0)
(0.0237586 0.00144458 0)
(0.0248406 0.00340098 0)
(0.0248706 0.00491165 0)
(0.0239918 0.0059669 0)
(0.0224148 0.00659753 0)
(0.0203058 0.00686968 0)
(0.0178754 0.006861 0)
(0.01524 0.00665858 0)
(0.0125663 0.00632593 0)
(0.0098966 0.00591459 0)
(0.00736919 0.00541111 0)
(0.00498288 0.004782 0)
(0.00292229 0.00389353 0)
(0.00121179 0.00266237 0)
(0.000188612 0.000964588 0)
(-6.15724e-05 9.49086e-05 0)
(-0.000591795 0.000950681 0)
(-0.00157641 0.00180176 0)
(-0.00284284 0.00252754 0)
(-0.00433831 0.00300157 0)
(-0.00594306 0.00334195 0)
(-0.00766134 0.00356451 0)
(-0.00943848 0.0037772 0)
(-0.0113141 0.00398985 0)
(-0.0132721 0.00426322 0)
(-0.0153705 0.00459521 0)
(-0.0176213 0.00502048 0)
(-0.0200959 0.00553282 0)
(-0.0228262 0.00614692 0)
(-0.0258857 0.00684441 0)
(-0.0293064 0.00761338 0)
(-0.0331413 0.00841356 0)
(-0.037397 0.00920404 0)
(-0.0420824 0.00992265 0)
(-0.0471569 0.0105062 0)
(-0.0525697 0.0108791 0)
(-0.0582207 0.010969 0)
(-0.0639942 0.0107016 0)
(-0.0697309 0.0100144 0)
(-0.0752587 0.00885573 0)
(-0.0803749 0.00719706 0)
(-0.0848759 0.00503327 0)
(-0.0885482 0.00239137 0)
(-0.0911961 -0.000671002 0)
(-0.0926371 -0.00406142 0)
(-0.0927263 -0.00765787 0)
(-0.0913517 -0.0113093 0)
(-0.0884549 -0.0148452 0)
(-0.0840251 -0.0180805 0)
(-0.0781174 -0.0208295 0)
(-0.0708443 -0.0229156 0)
(-0.0623916 -0.024189 0)
(-0.0530028 -0.0245387 0)
(-0.0429885 -0.0239111 0)
(-0.0326974 -0.0223179 0)
(-0.0225156 -0.019846 0)
(-0.0128186 -0.0166515 0)
(-0.00396747 -0.0129507 0)
(0.00375159 -0.00899656 0)
(0.0101154 -0.00505131 0)
(0.0150207 -0.00135654 0)
(0.0184368 0.00189352 0)
(0.0204546 0.00456822 0)
(0.0211998 0.00660893 0)
(0.0208895 0.0080223 0)
(0.0197132 0.00887035 0)
(0.0179217 0.00924767 0)
(0.0156763 0.00926615 0)
(0.0131973 0.00902314 0)
(0.0105703 0.0085928 0)
(0.00798387 0.00798154 0)
(0.00546344 0.00714241 0)
(0.00324021 0.00592217 0)
(0.00135413 0.0041545 0)
(0.000213326 0.00163175 0)
(-0.000109226 0.000444714 0)
(-0.000885024 0.00188095 0)
(-0.00225056 0.00314235 0)
(-0.00393214 0.00413879 0)
(-0.00587333 0.0047788 0)
(-0.00791697 0.00523053 0)
(-0.0100864 0.00553644 0)
(-0.0123156 0.00583312 0)
(-0.0146663 0.0061427 0)
(-0.0171242 0.00654405 0)
(-0.0197746 0.00704518 0)
(-0.0226458 0.0076956 0)
(-0.0258443 0.00849634 0)
(-0.0294284 0.00946828 0)
(-0.0335075 0.0105893 0)
(-0.0381391 0.0118389 0)
(-0.0434028 0.0131584 0)
(-0.0493188 0.0144837 0)
(-0.0559049 0.0157227 0)
(-0.0631146 0.016779 0)
(-0.0708814 0.0175402 0)
(-0.0790725 0.0178964 0)
(-0.0875266 0.0177362 0)
(-0.0960227 0.0169638 0)
(-0.104318 0.0155005 0)
(-0.112134 0.0133002 0)
(-0.119193 0.0103513 0)
(-0.125216 0.00668747 0)
(-0.129956 0.00238498 0)
(-0.133187 -0.00243419 0)
(-0.134731 -0.00760992 0)
(-0.134447 -0.0129459 0)
(-0.132246 -0.0182204 0)
(-0.128086 -0.0231913 0)
(-0.121987 -0.0276104 0)
(-0.114026 -0.0312328 0)
(-0.104359 -0.0338368 0)
(-0.0932143 -0.0352388 0)
(-0.0809086 -0.0353185 0)
(-0.067828 -0.0340335 0)
(-0.0544322 -0.0314396 0)
(-0.0412059 -0.027692 0)
(-0.0286471 -0.0230425 0)
(-0.0171934 -0.0178133 0)
(-0.00721455 -0.0123644 0)
(0.0010603 -0.00704885 0)
(0.007508 -0.00217269 0)
(0.0121627 0.00203663 0)
(0.0151271 0.00544521 0)
(0.0166226 0.00801346 0)
(0.0168627 0.00978121 0)
(0.0161384 0.0108477 0)
(0.0146579 0.0113414 0)
(0.0126962 0.0113927 0)
(0.0103889 0.0110993 0)
(0.00797684 0.010495 0)
(0.00552383 0.0095229 0)
(0.00330437 0.0080155 0)
(0.00138641 0.00571727 0)
(0.000217669 0.00233243 0)
(-0.000158352 0.000943498 0)
(-0.00118912 0.00313101 0)
(-0.0029457 0.00488565 0)
(-0.00504924 0.00618295 0)
(-0.00744058 0.00699827 0)
(-0.00992476 0.00756377 0)
(-0.012548 0.0079599 0)
(-0.015235 0.00835541 0)
(-0.0180771 0.00879161 0)
(-0.0210698 0.00937035 0)
(-0.0243379 0.0101178 0)
(-0.0279384 0.0111035 0)
(-0.0320269 0.0123406 0)
(-0.0366994 0.0138561 0)
(-0.0421107 0.015622 0)
(-0.0483478 0.0176021 0)
(-0.0555169 0.0197112 0)
(-0.0636447 0.02185 0)
(-0.0727446 0.0238826 0)
(-0.0827401 0.0256626 0)
(-0.0935167 0.0270225 0)
(-0.104867 0.0277956 0)
(-0.116538 0.0278169 0)
(-0.128206 0.0269459 0)
(-0.139534 0.0250748 0)
(-0.150161 0.0221478 0)
(-0.15976 0.0181635 0)
(-0.168024 0.0131819 0)
(-0.174702 0.00731602 0)
(-0.179577 0.000729628 0)
(-0.182485 -0.00637444 0)
(-0.183286 -0.0137572 0)
(-0.181884 -0.0211538 0)
(-0.178205 -0.0282754 0)
(-0.172223 -0.0348205 0)
(-0.16395 -0.0404801 0)
(-0.153468 -0.0449571 0)
(-0.140933 -0.0479804 0)
(-0.126608 -0.049336 0)
(-0.110858 -0.0488895 0)
(-0.0941727 -0.046621 0)
(-0.0771238 -0.0426404 0)
(-0.0603565 -0.0372011 0)
(-0.0445024 -0.0306799 0)
(-0.0301434 -0.0235442 0)
(-0.0177085 -0.0162892 0)
(-0.00747542 -0.0093771 0)
(0.000493296 -0.0031776 0)
(0.00626338 0.00206127 0)
(0.0100628 0.0062259 0)
(0.0121417 0.0093151 0)
(0.0128422 0.0114224 0)
(0.0124318 0.0126871 0)
(0.0112465 0.0132717 0)
(0.00948113 0.0132996 0)
(0.00743164 0.0128369 0)
(0.00521178 0.0118229 0)
(0.00313721 0.010081 0)
(0.00131303 0.00727542 0)
(0.000201036 0.00303034 0)
(-0.00021159 0.00161099 0)
(-0.00150918 0.0047262 0)
(-0.00366549 0.00705176 0)
(-0.00619466 0.0086737 0)
(-0.00903704 0.00966844 0)
(-0.0119622 0.0103484 0)
(-0.015044 0.0108442 0)
(-0.0182034 0.0113625 0)
(-0.0215705 0.0119729 0)
(-0.0251613 0.0128077 0)
(-0.0291552 0.0139208 0)
(-0.0336516 0.0154074 0)
(-0.038868 0.0172951 0)
(-0.0449456 0.0196139 0)
(-0.052087 0.0223221 0)
(-0.0604024 0.0253555 0)
(-0.0700098 0.0285862 0)
(-0.080916 0.0318594 0)
(-0.093091 0.0349718 0)
(-0.106377 0.0376998 0)
(-0.120551 0.0397945 0)
(-0.135272 0.041012 0)
(-0.150157 0.0411264 0)
(-0.164768 0.0399639 0)
(-0.178696 0.0374155 0)
(-0.191556 0.0334528 0)
(-0.203039 0.0281212 0)
(-0.212889 0.0215341 0)
(-0.220921 0.0138557 0)
(-0.226987 0.00529255 0)
(-0.230979 -0.00392066 0)
(-0.232795 -0.013522 0)
(-0.232346 -0.0232292 0)
(-0.229535 -0.0327351 0)
(-0.224275 -0.0417122 0)
(-0.216482 -0.0498108 0)
(-0.206116 -0.0566709 0)
(-0.19319 -0.0619333 0)
(-0.177822 -0.0652695 0)
(-0.160253 -0.0664117 0)
(-0.140897 -0.0652009 0)
(-0.120329 -0.0616256 0)
(-0.0992911 -0.0558628 0)
(-0.0786162 -0.048284 0)
(-0.0591649 -0.0394388 0)
(-0.0416811 -0.0299848 0)
(-0.0267274 -0.0205987 0)
(-0.0145732 -0.0118698 0)
(-0.00525282 -0.00423229 0)
(0.00145035 0.00207389 0)
(0.00583781 0.0069768 0)
(0.00832743 0.0105514 0)
(0.0092734 0.0129445 0)
(0.00909104 0.0143528 0)
(0.00805214 0.0149303 0)
(0.00651535 0.014781 0)
(0.00465591 0.0138494 0)
(0.00282885 0.0119562 0)
(0.00118302 0.00870395 0)
(0.000176271 0.00365891 0)
(-0.00026671 0.00244277 0)
(-0.0018367 0.00665855 0)
(-0.00439521 0.00962882 0)
(-0.00734851 0.0115974 0)
(-0.0106401 0.0127771 0)
(-0.0140076 0.0135773 0)
(-0.0175589 0.0141928 0)
(-0.0212182 0.0148765 0)
(-0.0251662 0.0157386 0)
(-0.0294533 0.0169527 0)
(-0.0343282 0.0186106 0)
(-0.0399451 0.0208367 0)
(-0.0465914 0.0236714 0)
(-0.0544516 0.0271363 0)
(-0.0637646 0.0311597 0)
(-0.0746394 0.0356257 0)
(-0.0871674 0.0403346 0)
(-0.101281 0.0450409 0)
(-0.116838 0.0494356 0)
(-0.133524 0.0531821 0)
(-0.150944 0.0559279 0)
(-0.16859 0.0573543 0)
(-0.185957 0.0572056 0)
(-0.202548 0.0553268 0)
(-0.217963 0.0516664 0)
(-0.231879 0.0462745 0)
(-0.244092 0.0392784 0)
(-0.254464 0.0308632 0)
(-0.26294 0.0212467 0)
(-0.269483 0.0106675 0)
(-0.274082 -0.000628008 0)
(-0.276701 -0.0123833 0)
(-0.277287 -0.0243329 0)
(-0.275735 -0.0361905 0)
(-0.271909 -0.0476447 0)
(-0.265625 -0.0583462 0)
(-0.256696 -0.0679098 0)
(-0.244937 -0.0759137 0)
(-0.230237 -0.081922 0)
(-0.21259 -0.0855122 0)
(-0.19218 -0.0863308 0)
(-0.169418 -0.0841522 0)
(-0.144987 -0.0789554 0)
(-0.119815 -0.0709781 0)
(-0.0950232 -0.0607478 0)
(-0.0717614 -0.0490415 0)
(-0.0510569 -0.0367876 0)
(-0.0336032 -0.0249008 0)
(-0.0197135 -0.0141337 0)
(-0.0092801 -0.00496416 0)
(-0.00196495 0.0023975 0)
(0.0027556 0.00798182 0)
(0.00536878 0.0119417 0)
(0.00640858 0.014518 0)
(0.00625562 0.0159084 0)
(0.00534976 0.0162662 0)
(0.00394275 0.0155557 0)
(0.00243309 0.0136058 0)
(0.00101823 0.00998301 0)
(0.0001462 0.00421842 0)
(-0.000325755 0.00345771 0)
(-0.0021758 0.00894996 0)
(-0.00513934 0.0126345 0)
(-0.00851601 0.0149691 0)
(-0.0122569 0.0163406 0)
(-0.0160732 0.0172746 0)
(-0.0201142 0.0180449 0)
(-0.0243173 0.0189629 0)
(-0.0289274 0.0201943 0)
(-0.0340428 0.0219652 0)
(-0.039995 0.0244136 0)
(-0.0469988 0.0276902 0)
(-0.0554072 0.0318367 0)
(-0.0654309 0.0368435 0)
(-0.0773122 0.0425785 0)
(-0.0911086 0.0488344 0)
(-0.106817 0.0552947 0)
(-0.124213 0.0615734 0)
(-0.142959 0.0672137 0)
(-0.162519 0.0717464 0)
(-0.182308 0.0747317 0)
(-0.201685 0.075829 0)
(-0.220102 0.0748285 0)
(-0.237098 0.0716698 0)
(-0.25238 0.066421 0)
(-0.265773 0.0592512 0)
(-0.277242 0.0503894 0)
(-0.286823 0.0400954 0)
(-0.294617 0.0286301 0)
(-0.30073 0.0162449 0)
(-0.305268 0.00317183 0)
(-0.308281 -0.0103694 0)
(-0.309778 -0.0241664 0)
(-0.309678 -0.0379955 0)
(-0.307831 -0.0516095 0)
(-0.30399 -0.0647142 0)
(-0.297845 -0.0769573 0)
(-0.289022 -0.087913 0)
(-0.277147 -0.0970861 0)
(-0.261885 -0.103926 0)
(-0.243048 -0.107872 0)
(-0.220669 -0.108418 0)
(-0.195119 -0.105217 0)
(-0.167156 -0.0981853 0)
(-0.137955 -0.087616 0)
(-0.108986 -0.0742222 0)
(-0.0818399 -0.0590996 0)
(-0.0579014 -0.0435469 0)
(-0.0381026 -0.0288154 0)
(-0.0227284 -0.0158387 0)
(-0.011543 -0.0051328 0)
(-0.00392909 0.00320576 0)
(0.000788802 0.0093197 0)
(0.00332886 0.0135105 0)
(0.00423649 0.0160453 0)
(0.00407022 0.0171507 0)
(0.00318252 0.0168341 0)
(0.00202778 0.01495 0)
(0.000859307 0.011058 0)
(0.000120512 0.00468227 0)
(-0.000385929 0.00464744 0)
(-0.00251731 0.011584 0)
(-0.00588354 0.0160471 0)
(-0.00967933 0.0187664 0)
(-0.013869 0.0203417 0)
(-0.0181437 0.0214347 0)
(-0.0227032 0.0224163 0)
(-0.0275094 0.0236705 0)
(-0.0328849 0.0254359 0)
(-0.0389882 0.0280009 0)
(-0.0462395 0.0315518 0)
(-0.0549086 0.0362521 0)
(-0.0653927 0.0421188 0)
(-0.0778889 0.0490717 0)
(-0.0925843 0.0568694 0)
(-0.109408 0.0651551 0)
(-0.128172 0.0734353 0)
(-0.148409 0.0811344 0)
(-0.169528 0.0876308 0)
(-0.190771 0.0923511 0)
(-0.211417 0.0948415 0)
(-0.23079 0.0948352 0)
(-0.248413 0.0922605 0)
(-0.263968 0.087224 0)
(-0.277359 0.0799578 0)
(-0.288617 0.0707699 0)
(-0.297914 0.0599905 0)
(-0.305466 0.0479397 0)
(-0.311533 0.0349 0)
(-0.316345 0.0211111 0)
(-0.320111 0.00676609 0)
(-0.322965 -0.0079755 0)
(-0.324981 -0.0229785 0)
(-0.326131 -0.0381097 0)
(-0.3263 -0.0532211 0)
(-0.325249 -0.0681215 0)
(-0.322635 -0.0825543 0)
(-0.317982 -0.0961683 0)
(-0.310728 -0.108499 0)
(-0.300243 -0.118955 0)
(-0.285924 -0.126839 0)
(-0.267292 -0.131386 0)
(-0.244153 -0.131865 0)
(-0.216741 -0.127715 0)
(-0.185867 -0.118727 0)
(-0.15295 -0.105217 0)
(-0.119932 -0.0881355 0)
(-0.0889606 -0.0690061 0)
(-0.0619495 -0.0496619 0)
(-0.0400852 -0.0317867 0)
(-0.0236489 -0.0165449 0)
(-0.0121147 -0.00439558 0)
(-0.00461227 0.00470374 0)
(-0.000157567 0.011122 0)
(0.0020477 0.0152367 0)
(0.00274797 0.0173925 0)
(0.00243853 0.0176799 0)
(0.0016574 0.0160083 0)
(0.00072586 0.0119628 0)
(0.000102029 0.00508227 0)
(-0.000448946 0.00603032 0)
(-0.00286382 0.0145819 0)
(-0.00662986 0.0198864 0)
(-0.0108415 0.0230116 0)
(-0.0154821 0.0248112 0)
(-0.0202305 0.0261054 0)
(-0.0253464 0.0273826 0)
(-0.030828 0.0291159 0)
(-0.0370863 0.0316327 0)
(-0.0443467 0.0352878 0)
(-0.0531117 0.0403052 0)
(-0.0636832 0.0468311 0)
(-0.07646 0.0548124 0)
(-0.0915624 0.0640385 0)
(-0.109041 0.0740913 0)
(-0.128604 0.0843953 0)
(-0.149798 0.0942268 0)
(-0.171861 0.102805 0)
(-0.193965 0.109384 0)
(-0.215204 0.113377 0)
(-0.234843 0.114434 0)
(-0.252307 0.112471 0)
(-0.267316 0.107639 0)
(-0.279792 0.100258 0)
(-0.289887 0.0907375 0)
(-0.297864 0.0795131 0)
(-0.304083 0.0669874 0)
(-0.308905 0.0535045 0)
(-0.312691 0.0393336 0)
(-0.315736 0.024674 0)
(-0.318296 0.00966052 0)
(-0.320539 -0.00561793 0)
(-0.322582 -0.0211064 0)
(-0.32445 -0.036763 0)
(-0.326096 -0.0525434 0)
(-0.327363 -0.0683761 0)
(-0.327981 -0.0841375 0)
(-0.327529 -0.0996166 0)
(-0.325429 -0.114478 0)
(-0.320933 -0.128223 0)
(-0.313166 -0.140161 0)
(-0.301193 -0.149411 0)
(-0.284177 -0.154944 0)
(-0.26157 -0.155707 0)
(-0.23337 -0.150819 0)
(-0.200349 -0.139844 0)
(-0.16419 -0.123086 0)
(-0.12738 -0.101787 0)
(-0.0928102 -0.0780733 0)
(-0.063045 -0.0544964 0)
(-0.0396079 -0.0333355 0)
(-0.0226358 -0.0159262 0)
(-0.0112727 -0.00263117 0)
(-0.00423227 0.00691121 0)
(-0.000350113 0.0132276 0)
(0.00140971 0.0168535 0)
(0.00175693 0.0180259 0)
(0.001363 0.0167583 0)
(0.000641195 0.0126992 0)
(9.66147e-05 0.00542501 0)
(-0.000510977 0.00759003 0)
(-0.00320308 0.0179145 0)
(-0.00735917 0.0241187 0)
(-0.0119784 0.0276724 0)
(-0.0170694 0.0297262 0)
(-0.0223068 0.0312814 0)
(-0.0280192 0.0329661 0)
(-0.0342517 0.0353594 0)
(-0.0415098 0.0388889 0)
(-0.0500814 0.0439686 0)
(-0.06053 0.0508332 0)
(-0.0731466 0.0595611 0)
(-0.0882672 0.0699632 0)
(-0.105854 0.0816216 0)
(-0.125734 0.0938651 0)
(-0.147317 0.10584 0)
(-0.169843 0.116575 0)
(-0.192289 0.125131 0)
(-0.213681 0.130746 0)
(-0.233114 0.132956 0)
(-0.249998 0.131646 0)
(-0.264002 0.127011 0)
(-0.275142 0.119472 0)
(-0.28363 0.109567 0)
(-0.289874 0.0978554 0)
(-0.294322 0.0848473 0)
(-0.297458 0.0709606 0)
(-0.299696 0.0565106 0)
(-0.301408 0.0417117 0)
(-0.302864 0.0266969 0)
(-0.304287 0.0115339 0)
(-0.305814 -0.00375266 0)
(-0.307553 -0.0191688 0)
(-0.309547 -0.0347354 0)
(-0.311815 -0.0504803 0)
(-0.314303 -0.0664241 0)
(-0.316895 -0.0825632 0)
(-0.319347 -0.0988429 0)
(-0.321265 -0.115115 0)
(-0.322034 -0.131088 0)
(-0.320804 -0.146252 0)
(-0.316477 -0.159834 0)
(-0.307785 -0.170754 0)
(-0.29345 -0.177666 0)
(-0.272464 -0.179092 0)
(-0.244444 -0.1737 0)
(-0.210024 -0.160707 0)
(-0.171118 -0.140354 0)
(-0.13087 -0.114267 0)
(-0.0930781 -0.0853882 0)
(-0.0611234 -0.0572883 0)
(-0.0368092 -0.0329035 0)
(-0.0200111 -0.0137238 0)
(-0.00933329 0.000263063 0)
(-0.00315783 0.00969788 0)
(-1.80311e-05 0.0153983 0)
(0.0011216 0.0178442 0)
(0.00114829 0.0172335 0)
(0.000609203 0.0133268 0)
(0.000104853 0.00575898 0)
(-0.000573494 0.00934284 0)
(-0.00353588 0.021601 0)
(-0.00806963 0.0287652 0)
(-0.0130873 0.0327774 0)
(-0.0186277 0.0351293 0)
(-0.0243704 0.0370282 0)
(-0.0307192 0.0392648 0)
(-0.0377725 0.0425379 0)
(-0.0461271 0.0473775 0)
(-0.0561158 0.0542323 0)
(-0.068323 0.0632988 0)
(-0.0829693 0.0745147 0)
(-0.100251 0.0874721 0)
(-0.119893 0.101462 0)
(-0.141428 0.115497 0)
(-0.16394 0.128426 0)
(-0.186403 0.139081 0)
(-0.207641 0.146485 0)
(-0.226699 0.150015 0)
(-0.24285 0.149485 0)
(-0.255802 0.145122 0)
(-0.265569 0.137451 0)
(-0.272501 0.127157 0)
(-0.277081 0.114945 0)
(-0.279905 0.101447 0)
(-0.281512 0.087168 0)
(-0.282402 0.0724687 0)
(-0.28294 0.0575793 0)
(-0.283414 0.0426244 0)
(-0.283995 0.0276552 0)
(-0.284807 0.012675 0)
(-0.285905 -0.00233833 0)
(-0.28734 -0.0174214 0)
(-0.289136 -0.0326178 0)
(-0.291335 -0.0479772 0)
(-0.293959 -0.0635557 0)
(-0.29703 -0.079412 0)
(-0.300508 -0.0955992 0)
(-0.304272 -0.112135 0)
(-0.308022 -0.128961 0)
(-0.311223 -0.145859 0)
(-0.312998 -0.162365 0)
(-0.312106 -0.177647 0)
(-0.306964 -0.190441 0)
(-0.295823 -0.199034 0)
(-0.277106 -0.201425 0)
(-0.249918 -0.195679 0)
(-0.214635 -0.180525 0)
(-0.173381 -0.156104 0)
(-0.130067 -0.124558 0)
(-0.0896032 -0.0900093 0)
(-0.0562788 -0.0573094 0)
(-0.0320438 -0.0301755 0)
(-0.0161951 -0.00986965 0)
(-0.00676373 0.00404326 0)
(-0.00171601 0.0127186 0)
(0.000460857 0.0170031 0)
(0.000991496 0.017403 0)
(0.000627023 0.0138615 0)
(0.000127858 0.00610464 0)
(-0.000631167 0.0112597 0)
(-0.00384509 0.0255931 0)
(-0.00873385 0.033773 0)
(-0.0141317 0.0382774 0)
(-0.0201124 0.0409819 0)
(-0.0263673 0.0433239 0)
(-0.0333791 0.046278 0)
(-0.0412999 0.0506696 0)
(-0.050804 0.0571187 0)
(-0.0622372 0.0660648 0)
(-0.0761506 0.0775968 0)
(-0.0926252 0.0914247 0)
(-0.111645 0.106835 0)
(-0.132635 0.12276 0)
(-0.154815 0.137869 0)
(-0.17699 0.150759 0)
(-0.197981 0.160192 0)
(-0.216629 0.165321 0)
(-0.232188 0.165835 0)
(-0.244258 0.161951 0)
(-0.252942 0.15429 0)
(-0.258617 0.143691 0)
(-0.261923 0.131029 0)
(-0.263519 0.117079 0)
(-0.264071 0.102445 0)
(-0.26409 0.0875384 0)
(-0.263986 0.0725975 0)
(-0.263992 0.0577302 0)
(-0.264257 0.0429562 0)
(-0.264814 0.0282485 0)
(-0.265671 0.0135619 0)
(-0.266787 -0.00114871 0)
(-0.268146 -0.0159211 0)
(-0.269729 -0.0307864 0)
(-0.271566 -0.0457742 0)
(-0.273705 -0.0609245 0)
(-0.276239 -0.0762928 0)
(-0.279264 -0.0919623 0)
(-0.282876 -0.108032 0)
(-0.287091 -0.124607 0)
(-0.291777 -0.141731 0)
(-0.29653 -0.159311 0)
(-0.300549 -0.176963 0)
(-0.302522 -0.193859 0)
(-0.30061 -0.208554 0)
(-0.292593 -0.218944 0)
(-0.276264 -0.222392 0)
(-0.25011 -0.216206 0)
(-0.214158 -0.198487 0)
(-0.170763 -0.16926 0)
(-0.124755 -0.131475 0)
(-0.0823897 -0.090855 0)
(-0.0488515 -0.0539649 0)
(-0.0258467 -0.0249453 0)
(-0.0117751 -0.00461082 0)
(-0.00400659 0.00836376 0)
(-0.000380536 0.015315 0)
(0.000825638 0.0172284 0)
(0.00067153 0.0143349 0)
(0.00016208 0.00650317 0)
(-0.000685328 0.0133519 0)
(-0.00412979 0.0299044 0)
(-0.0093456 0.0391609 0)
(-0.0151012 0.0442012 0)
(-0.0215073 0.0473277 0)
(-0.0282727 0.0502316 0)
(-0.0359564 0.0540889 0)
(-0.0447569 0.0598477 0)
(-0.0553987 0.0681882 0)
(-0.0681974 0.0794754 0)
(-0.0836095 0.0936037 0)
(-0.101514 0.109963 0)
(-0.121631 0.127462 0)
(-0.143076 0.144639 0)
(-0.164795 0.159862 0)
(-0.185424 0.171595 0)
(-0.203799 0.178704 0)
(-0.218962 0.180663 0)
(-0.230521 0.177613 0)
(-0.238489 0.170232 0)
(-0.243362 0.159513 0)
(-0.245814 0.146518 0)
(-0.24666 0.132197 0)
(-0.2466 0.117274 0)
(-0.246242 0.102226 0)
(-0.24597 0.0873014 0)
(-0.246031 0.072583 0)
(-0.246495 0.0580462 0)
(-0.24736 0.0436167 0)
(-0.248535 0.0292097 0)
(-0.249927 0.0147563 0)
(-0.251424 0.000212425 0)
(-0.252954 -0.0144382 0)
(-0.254461 -0.0291938 0)
(-0.255952 -0.044041 0)
(-0.257465 -0.0589751 0)
(-0.259106 -0.0740077 0)
(-0.261019 -0.0891929 0)
(-0.263403 -0.104627 0)
(-0.26646 -0.120467 0)
(-0.270363 -0.136898 0)
(-0.275147 -0.154102 0)
(-0.280583 -0.17212 0)
(-0.285984 -0.190704 0)
(-0.290034 -0.209044 0)
(-0.290694 -0.225543 0)
(-0.28529 -0.237643 0)
(-0.270981 -0.241965 0)
(-0.245574 -0.234894 0)
(-0.208754 -0.213779 0)
(-0.163187 -0.178663 0)
(-0.11492 -0.133714 0)
(-0.0717394 -0.0870418 0)
(-0.0395111 -0.0469184 0)
(-0.0189804 -0.0175715 0)
(-0.00734329 0.00159028 0)
(-0.00163208 0.0124081 0)
(0.000547199 0.0165597 0)
(0.000707696 0.0147095 0)
(0.000203033 0.00695971 0)
(-0.000728953 0.0155723 0)
(-0.00436746 0.0344595 0)
(-0.00986827 0.044848 0)
(-0.0159453 0.0504706 0)
(-0.0227463 0.0540944 0)
(-0.0299992 0.0576836 0)
(-0.0383314 0.0626255 0)
(-0.0479719 0.0699729 0)
(-0.0596601 0.0804179 0)
(-0.0736332 0.0941716 0)
(-0.0901974 0.110846 0)
(-0.108987 0.129433 0)
(-0.129444 0.148422 0)
(-0.15041 0.165983 0)
(-0.170662 0.180284 0)
(-0.188815 0.189824 0)
(-0.203892 0.19377 0)
(-0.215275 0.192068 0)
(-0.223 0.185387 0)
(-0.227483 0.17484 0)
(-0.229531 0.161697 0)
(-0.229984 0.14711 0)
(-0.229688 0.131969 0)
(-0.229257 0.116838 0)
(-0.229149 0.101997 0)
(-0.22956 0.0875037 0)
(-0.230564 0.0732825 0)
(-0.232074 0.0591976 0)
(-0.233967 0.04511 0)
(-0.236064 0.0309074 0)
(-0.238214 0.0165231 0)
(-0.240263 0.00193383 0)
(-0.242113 -0.0128419 0)
(-0.243685 -0.0277608 0)
(-0.244965 -0.0427602 0)
(-0.24597 -0.0577832 0)
(-0.246786 -0.0727825 0)
(-0.247547 -0.0877558 0)
(-0.248462 -0.102745 0)
(-0.249793 -0.11788 0)
(-0.251852 -0.133365 0)
(-0.254942 -0.149499 0)
(-0.259268 -0.166589 0)
(-0.264767 -0.184863 0)
(-0.270878 -0.204199 0)
(-0.2763 -0.223837 0)
(-0.278792 -0.241968 0)
(-0.275269 -0.255514 0)
(-0.262227 -0.260191 0)
(-0.236865 -0.251294 0)
(-0.198576 -0.225405 0)
(-0.15068 -0.182848 0)
(-0.100768 -0.129954 0)
(-0.058385 -0.0778531 0)
(-0.0292679 -0.0365274 0)
(-0.0122754 -0.00861034 0)
(-0.0035886 0.00774988 0)
(1.9258e-05 0.0151678 0)
(0.000686149 0.0149181 0)
(0.000243007 0.00747839 0)
(-0.000763703 0.0179245 0)
(-0.00455687 0.039263 0)
(-0.0102933 0.0508461 0)
(-0.016648 0.0571074 0)
(-0.0238014 0.0613125 0)
(-0.0315003 0.065715 0)
(-0.0404238 0.0719139 0)
(-0.050809 0.0810352 0)
(-0.0633687 0.0937198 0)
(-0.0782177 0.109938 0)
(-0.0954734 0.128936 0)
(-0.114515 0.149258 0)
(-0.134538 0.168982 0)
(-0.154193 0.185988 0)
(-0.172217 0.198397 0)
(-0.18736 0.204937 0)
(-0.19896 0.205242 0)
(-0.206808 0.199825 0)
(-0.211351 0.189867 0)
(-0.213323 0.176823 0)
(-0.213706 0.162096 0)
(-0.213364 0.146781 0)
(-0.213047 0.131593 0)
(-0.2132 0.116866 0)
(-0.214083 0.102654 0)
(-0.215706 0.0888283 0)
(-0.217987 0.0751878 0)
(-0.220725 0.0615211 0)
(-0.223724 0.0476612 0)
(-0.226761 0.0334975 0)
(-0.229664 0.018987 0)
(-0.232271 0.00413862 0)
(-0.234481 -0.0109895 0)
(-0.236208 -0.0263141 0)
(-0.237429 -0.0417273 0)
(-0.238139 -0.0571269 0)
(-0.238396 -0.0724098 0)
(-0.238292 -0.0875144 0)
(-0.237999 -0.10241 0)
(-0.237745 -0.117158 0)
(-0.237856 -0.131897 0)
(-0.238724 -0.146919 0)
(-0.240776 -0.162611 0)
(-0.244375 -0.179472 0)
(-0.249608 -0.19789 0)
(-0.256038 -0.217923 0)
(-0.262318 -0.238785 0)
(-0.266008 -0.258396 0)
(-0.263511 -0.272952 0)
(-0.25075 -0.277059 0)
(-0.22433 -0.264782 0)
(-0.183742 -0.232005 0)
(-0.133342 -0.180184 0)
(-0.0829521 -0.118948 0)
(-0.04357 -0.0635404 0)
(-0.0193615 -0.0235903 0)
(-0.00657396 0.00057 0)
(-0.000906801 0.0126706 0)
(0.000555178 0.0148053 0)
(0.000274675 0.008022 0)
(-0.000781227 0.0203391 0)
(-0.0046717 0.0442055 0)
(-0.0105778 0.0570371 0)
(-0.0171494 0.0639911 0)
(-0.0245922 0.0688563 0)
(-0.0326664 0.0741824 0)
(-0.0420819 0.0817694 0)
(-0.0530577 0.092772 0)
(-0.0662412 0.10771 0)
(-0.0815942 0.126233 0)
(-0.0990307 0.14717 0)
(-0.117698 0.168604 0)
(-0.136609 0.188256 0)
(-0.154336 0.203842 0)
(-0.169702 0.21361 0)
(-0.181714 0.216688 0)
(-0.190089 0.213287 0)
(-0.195016 0.204496 0)
(-0.197273 0.191925 0)
(-0.197782 0.177226 0)
(-0.197559 0.161784 0)
(-0.19737 0.146514 0)
(-0.197791 0.131876 0)
(-0.199062 0.117947 0)
(-0.20125 0.104567 0)
(-0.20421 0.0914593 0)
(-0.207752 0.0783369 0)
(-0.211608 0.0649565 0)
(-0.215555 0.0511565 0)
(-0.219362 0.0368516 0)
(-0.222868 0.0220357 0)
(-0.225924 0.00675496 0)
(-0.228442 -0.00889371 0)
(-0.230344 -0.0247934 0)
(-0.231606 -0.0408001 0)
(-0.232211 -0.0567782 0)
(-0.232193 -0.0725822 0)
(-0.231602 -0.0881046 0)
(-0.230553 -0.103249 0)
(-0.229209 -0.118002 0)
(-0.227823 -0.132404 0)
(-0.226748 -0.14666 0)
(-0.226446 -0.161095 0)
(-0.22746 -0.176266 0)
(-0.230287 -0.192819 0)
(-0.235187 -0.211401 0)
(-0.241761 -0.232176 0)
(-0.248617 -0.254319 0)
(-0.252919 -0.27524 0)
(-0.250592 -0.290149 0)
(-0.236845 -0.292234 0)
(-0.208068 -0.274164 0)
(-0.164175 -0.231724 0)
(-0.111572 -0.168687 0)
(-0.0626882 -0.100384 0)
(-0.0291184 -0.0450662 0)
(-0.0109033 -0.0100701 0)
(-0.00238077 0.00856948 0)
(0.000267724 0.0141657 0)
(0.000289497 0.00854346 0)
(-0.000784477 0.0228122 0)
(-0.00471361 0.0492828 0)
(-0.010716 0.063425 0)
(-0.0174348 0.0711331 0)
(-0.025089 0.0767353 0)
(-0.0334451 0.0830795 0)
(-0.0432169 0.0921472 0)
(-0.0545803 0.105071 0)
(-0.0680858 0.12218 0)
(-0.0835307 0.142741 0)
(-0.100638 0.165134 0)
(-0.118375 0.187012 0)
(-0.135659 0.205833 0)
(-0.151092 0.219296 0)
(-0.163692 0.225944 0)
(-0.172785 0.225431 0)
(-0.178466 0.218586 0)
(-0.181255 0.207013 0)
(-0.182139 0.19262 0)
(-0.182092 0.177102 0)