/*--------------------------------*- C++ -*----------------------------------*\
| =========                 |                                                 |
| \\      /  F ield         | OpenFOAM: The Open Source CFD Toolbox           |
|  \\    /   O peration     | Version:  2406                                  |
|   \\  /    A nd           | Website:  www.openfoam.com                      |
|    \\/     M anipulation  |                                                 |
\*---------------------------------------------------------------------------*/
FoamFile
{
    version     2.0;
    format      ascii;
    arch        "LSB;label=32;scalar=64";
    class       volVectorField;
    location    "17.9";
    object      Uold;
}
// * * * * * * * * * * * * * * * * * * * * * * * * * * * * * * * * * * * * * //

dimensions      [0 1 -1 0 0 0 0];

internalField   nonuniform List<vector> 
3600
(
(4.22105e-05 -3.85377e-05 0)
(0.00012392 -3.95217e-05 0)
(0.000179414 -2.19351e-05 0)
(0.000159549 1.51577e-07 0)
(9.64183e-05 1.06812e-05 0)
(4.79083e-08 1.78622e-05 0)
(-0.000113544 1.91824e-05 0)
(-0.000237304 2.20965e-05 0)
(-0.000375722 2.43622e-05 0)
(-0.000526609 2.99889e-05 0)
(-0.000702304 3.65248e-05 0)
(-0.000901535 4.624e-05 0)
(-0.00113782 5.71213e-05 0)
(-0.00140967 7.05784e-05 0)
(-0.001729 8.49564e-05 0)
(-0.0020931 0.000100948 0)
(-0.00250989 0.000116974 0)
(-0.00297329 0.000133055 0)
(-0.00348461 0.000147525 0)
(-0.00403181 0.000159795 0)
(-0.00460696 0.000167973 0)
(-0.0051893 0.000170825 0)
(-0.00575923 0.000166069 0)
(-0.00628488 0.000151881 0)
(-0.00673376 0.000125792 0)
(-0.00706306 8.60342e-05 0)
(-0.00723066 3.09776e-05 0)
(-0.00718935 -3.96043e-05 0)
(-0.00689843 -0.000124784 0)
(-0.00632116 -0.00022147 0)
(-0.00543678 -0.000324748 0)
(-0.00423879 -0.000427489 0)
(-0.00274564 -0.000521198 0)
(-0.000996386 -0.000596487 0)
(0.00094219 -0.000644483 0)
(0.00298594 -0.000657938 0)
(0.00503076 -0.000632635 0)
(0.0069702 -0.000568362 0)
(0.00869533 -0.000469271 0)
(0.0101173 -0.000343835 0)
(0.0111637 -0.000203376 0)
(0.011801 -6.09523e-05 0)
(0.0120202 7.14319e-05 0)
(0.0118548 0.000183622 0)
(0.0113524 0.000269795 0)
(0.0105918 0.000327275 0)
(0.00964287 0.000357942 0)
(0.00859151 0.000365029 0)
(0.00749312 0.000354597 0)
(0.00641406 0.000331348 0)
(0.00537703 0.000301742 0)
(0.00442269 0.000268878 0)
(0.00354149 0.000238249 0)
(0.00275617 0.000209872 0)
(0.00203663 0.000187795 0)
(0.00140424 0.000165407 0)
(0.000835848 0.000142693 0)
(0.000380711 9.88815e-05 0)
(6.89657e-05 3.83726e-05 0)
(-3.98683e-05 -4.04221e-05 0)
(4.75411e-05 -0.000127625 0)
(8.46062e-05 -8.52353e-05 0)
(2.02064e-05 2.17953e-05 0)
(-0.000192565 0.000142743 0)
(-0.000510001 0.000215791 0)
(-0.000903629 0.000269712 0)
(-0.00134892 0.000296754 0)
(-0.0018273 0.000325945 0)
(-0.00234569 0.000352552 0)
(-0.00289903 0.000392419 0)
(-0.00350856 0.000439059 0)
(-0.00417479 0.000500641 0)
(-0.00492237 0.000571115 0)
(-0.00575335 0.00065452 0)
(-0.00669 0.000744911 0)
(-0.00773174 0.000842584 0)
(-0.00889214 0.000940323 0)
(-0.0101613 0.00103458 0)
(-0.0115367 0.00111618 0)
(-0.0129914 0.0011781 0)
(-0.0145 0.00120918 0)
(-0.016013 0.00119963 0)
(-0.0174778 0.00113698 0)
(-0.0188205 0.00101054 0)
(-0.0199644 0.000809359 0)
(-0.0208178 0.000526441 0)
(-0.0212927 0.000158164 0)
(-0.0212982 -0.000291839 0)
(-0.0207593 -0.000813059 0)
(-0.019614 -0.00138558 0)
(-0.0178302 -0.00198165 0)
(-0.0154025 -0.00256545 0)
(-0.0123663 -0.00309659 0)
(-0.00879072 -0.00353232 0)
(-0.00478756 -0.00383273 0)
(-0.000497652 -0.0039644 0)
(0.00390468 -0.0039058 0)
(0.00823453 -0.00365036 0)
(0.0122948 -0.00320938 0)
(0.0159077 -0.00261198 0)
(0.0189109 -0.00190262 0)
(0.0211933 -0.00113673 0)
(0.0226809 -0.000372821 0)
(0.0233701 0.000333702 0)
(0.0232942 0.000939532 0)
(0.0225529 0.00141548 0)
(0.0212558 0.00175149 0)
(0.0195566 0.00195105 0)
(0.0175791 0.0020325 0)
(0.0154704 0.00201806 0)
(0.0133146 0.00193716 0)
(0.0112165 0.00181259 0)
(0.00920018 0.00167111 0)
(0.00732908 0.00152278 0)
(0.00558093 0.00138318 0)
(0.00400866 0.00123351 0)
(0.00258868 0.00106842 0)
(0.00141672 0.000821095 0)
(0.000523647 0.00049849 0)
(4.79943e-05 7.4458e-05 0)
(2.21945e-05 -0.000174525 0)
(-8.21714e-05 3.84667e-06 0)
(-0.000390147 0.000282104 0)
(-0.000899859 0.000566376 0)
(-0.00156387 0.000749855 0)
(-0.00232817 0.000884242 0)
(-0.00317091 0.000962163 0)
(-0.00406177 0.00103843 0)
(-0.00501348 0.00111042 0)
(-0.00601692 0.0012082 0)
(-0.00710121 0.00132396 0)
(-0.00826812 0.0014728 0)
(-0.00955221 0.00164614 0)
(-0.0109605 0.00185051 0)
(-0.0125257 0.00207547 0)
(-0.0142523 0.00231874 0)
(-0.016161 0.00256467 0)
(-0.018242 0.0028013 0)
(-0.0204916 0.00300648 0)
(-0.0228737 0.00315982 0)
(-0.02535 0.00323394 0)
(-0.0278507 0.00320329 0)
(-0.0302996 0.00303916 0)
(-0.0325936 0.00271725 0)
(-0.0346262 0.00221587 0)
(-0.0362742 0.00152304 0)
(-0.0374201 0.000636384 0)
(-0.0379452 -0.00043112 0)
(-0.0377503 -0.00165189 0)
(-0.0367514 -0.00298079 0)
(-0.0348981 -0.0043583 0)
(-0.0321692 -0.00571101 0)
(-0.0285878 -0.00695785 0)
(-0.0242144 -0.00801368 0)
(-0.0191589 -0.00879812 0)
(-0.0135677 -0.00924126 0)
(-0.00763178 -0.00929332 0)
(-0.00156512 -0.00893002 0)
(0.00439152 -0.00815949 0)
(0.0100029 -0.00702321 0)
(0.0150363 -0.00559534 0)
(0.019303 -0.00397592 0)
(0.0226475 -0.00228041 0)
(0.0249912 -0.000626963 0)
(0.0263034 0.00087902 0)
(0.0266413 0.00215484 0)
(0.0260937 0.00315126 0)
(0.0248207 0.00385089 0)
(0.0229717 0.00426965 0)
(0.0207394 0.00444333 0)
(0.0182576 0.00442615 0)
(0.0156887 0.00427085 0)
(0.0131025 0.00403474 0)
(0.0106113 0.00375143 0)
(0.00821978 0.00345217 0)
(0.00601954 0.00311456 0)
(0.00399428 0.00271877 0)
(0.00228441 0.00215893 0)
(0.000914751 0.00141366 0)
(0.00012795 0.000424966 0)
(-1.8295e-05 -0.000101934 0)
(-0.000323784 0.00034028 0)
(-0.000952051 0.000862582 0)
(-0.00182322 0.00134739 0)
(-0.0028879 0.00166509 0)
(-0.00406204 0.00189628 0)
(-0.00533476 0.00204051 0)
(-0.0066639 0.00217866 0)
(-0.00807301 0.00231237 0)
(-0.00954842 0.00248647 0)
(-0.0111304 0.00269398 0)
(-0.0128231 0.00295854 0)
(-0.0146751 0.00327098 0)
(-0.016702 0.0036413 0)
(-0.0189521 0.00405479 0)
(-0.02144 0.00450541 0)
(-0.0241983 0.00496673 0)
(-0.0272227 0.00541488 0)
(-0.0305129 0.00581049 0)
(-0.0340289 0.0061151 0)
(-0.0377253 0.00628053 0)
(-0.0415177 0.00626128 0)
(-0.0453125 0.00600921 0)
(-0.0489833 0.00548418 0)
(-0.0523978 0.00465262 0)
(-0.0554026 0.00349704 0)
(-0.0578486 0.00201596 0)
(-0.0595813 0.000231077 0)
(-0.0604642 -0.00181415 0)
(-0.0603731 -0.00405108 0)
(-0.0592172 -0.00639019 0)
(-0.0569343 -0.00872166 0)
(-0.0535099 -0.0109232 0)
(-0.048971 -0.0128644 0)
(-0.0434025 -0.0144183 0)
(-0.0369364 -0.0154688 0)
(-0.0297637 -0.015925 0)
(-0.0221153 -0.0157289 0)
(-0.0142675 -0.014868 0)
(-0.0065102 -0.0133787 0)
(0.000852187 -0.0113496 0)
(0.00754575 -0.00891375 0)
(0.0133223 -0.00623844 0)
(0.0180108 -0.00350632 0)
(0.0214941 -0.000894474 0)
(0.0237581 0.00144439 0)
(0.0248389 0.00340001 0)
(0.0248681 0.00491013 0)
(0.023989 0.00596505 0)
(0.022412 0.00659558 0)
(0.0203033 0.0068678 0)
(0.0178733 0.00685933 0)
(0.0152384 0.00665721 0)
(0.0125652 0.0063249 0)
(0.0098959 0.0059139 0)
(0.00736883 0.00541074 0)
(0.00498276 0.00478192 0)
(0.0029223 0.00389371 0)
(0.00121184 0.00266271 0)
(0.00018863 0.000964867 0)
(-6.16527e-05 9.56094e-05 0)
(-0.000592237 0.000952199 0)
(-0.00157738 0.00180366 0)
(-0.00284436 0.00252952 0)
(-0.00434038 0.00300352 0)
(-0.00594565 0.00334378 0)
(-0.00766442 0.00356617 0)
(-0.00944195 0.00377863 0)
(-0.0113179 0.00399096 0)
(-0.013276 0.00426388 0)
(-0.0153742 0.00459527 0)
(-0.0176244 0.00501978 0)
(-0.0200982 0.00553122 0)
(-0.022827 0.00614429 0)
(-0.0258844 0.00684065 0)
(-0.0293026 0.00760846 0)
(-0.0331343 0.0084075 0)
(-0.0373863 0.00919692 0)
(-0.0420677 0.0099146 0)
(-0.0471377 0.0104974 0)
(-0.0525457 0.0108698 0)
(-0.0581918 0.0109594 0)
(-0.0639605 0.010692 0)
(-0.0696926 0.0100051 0)
(-0.0752161 0.00884716 0)
(-0.0803284 0.00718952 0)
(-0.0848262 0.00502709 0)
(-0.088496 0.00238679 0)
(-0.0911421 -0.000673755 0)
(-0.0925821 -0.00406223 0)
(-0.092671 -0.00765668 0)
(-0.0912969 -0.0113062 0)
(-0.0884012 -0.0148402 0)
(-0.0839732 -0.0180738 0)
(-0.0780679 -0.0208214 0)
(-0.0707978 -0.0229064 0)
(-0.0623486 -0.024179 0)
(-0.0529636 -0.0245283 0)
(-0.0429535 -0.0239008 0)
(-0.0326668 -0.022308 0)
(-0.0224896 -0.0198369 0)
(-0.0127971 -0.0166435 0)
(-0.00395026 -0.0129441 0)
(0.00376474 -0.0089915 0)
(0.0101249 -0.00504781 0)
(0.015027 -0.00135454 0)
(0.0184405 0.00189419 0)
(0.0204563 0.00456781 0)
(0.0212 0.00660771 0)
(0.0208887 0.00802058 0)
(0.0197119 0.00886841 0)
(0.0179203 0.00924573 0)
(0.015675 0.00926441 0)
(0.0131962 0.00902171 0)
(0.0105695 0.00859174 0)
(0.00798336 0.00798087 0)
(0.00546317 0.00714212 0)
(0.00324011 0.00592223 0)
(0.00135413 0.00415482 0)
(0.000213332 0.00163205 0)
(-0.000109304 0.000445645 0)
(-0.000885439 0.00188291 0)
(-0.00225146 0.00314476 0)
(-0.00393352 0.0041413 0)
(-0.00587519 0.00478125 0)
(-0.00791928 0.00523283 0)
(-0.0100892 0.00553851 0)
(-0.0123186 0.00583483 0)
(-0.0146694 0.00614391 0)
(-0.0171271 0.00654454 0)
(-0.019777 0.00704471 0)
(-0.0226471 0.0076939 0)
(-0.0258439 0.00849318 0)
(-0.0294256 0.00946345 0)
(-0.0335017 0.0105827 0)
(-0.0381294 0.0118304 0)
(-0.0433886 0.0131482 0)
(-0.0492994 0.0144719 0)
(-0.0558799 0.0157096 0)
(-0.0630835 0.0167648 0)
(-0.0708441 0.0175253 0)
(-0.079029 0.0178813 0)
(-0.0874771 0.0177213 0)
(-0.0959676 0.0169496 0)
(-0.104258 0.0154876 0)
(-0.11207 0.0132889 0)
(-0.119126 0.0103422 0)
(-0.125147 0.00668076 0)
(-0.129885 0.00238091 0)
(-0.133116 -0.00243551 0)
(-0.13466 -0.0076085 0)
(-0.134376 -0.0129418 0)
(-0.132177 -0.0182138 0)
(-0.128019 -0.0231824 0)
(-0.121922 -0.0275995 0)
(-0.113964 -0.0312203 0)
(-0.104301 -0.033823 0)
(-0.0931605 -0.0352243 0)
(-0.0808592 -0.0353036 0)
(-0.0677836 -0.0340187 0)
(-0.0543929 -0.0314255 0)
(-0.0411719 -0.0276791 0)
(-0.0286184 -0.0230311 0)
(-0.0171699 -0.0178037 0)
(-0.00719596 -0.0123568 0)
(0.00107447 -0.00704328 0)
(0.0075183 -0.00216903 0)
(0.0121698 0.00203859 0)
(0.0151316 0.00544577 0)
(0.0166251 0.00801295 0)
(0.0168638 0.00977999 0)
(0.0161385 0.0108461 0)
(0.0146575 0.0113398 0)
(0.0126957 0.0113911 0)
(0.0103884 0.0110981 0)
(0.00797645 0.0104941 0)
(0.00552359 0.00952242 0)
(0.00330426 0.00801544 0)
(0.0013864 0.00571753 0)
(0.00021767 0.00233273 0)
(-0.000158423 0.000944646 0)
(-0.00118948 0.00313335 0)
(-0.00294645 0.0048885 0)
(-0.00505038 0.00618591 0)
(-0.00744211 0.00700115 0)
(-0.00992662 0.00756644 0)
(-0.0125501 0.00796224 0)
(-0.0152372 0.00835723 0)
(-0.0180792 0.00879265 0)
(-0.0210713 0.00937028 0)
(-0.0243382 0.0101162 0)
(-0.0279369 0.0111001 0)
(-0.0320228 0.0123349 0)
(-0.0366917 0.0138479 0)
(-0.0420985 0.0156112 0)
(-0.0483302 0.0175887 0)
(-0.0554931 0.0196954 0)
(-0.0636141 0.021832 0)
(-0.0727067 0.0238628 0)
(-0.0826948 0.0256416 0)
(-0.0934641 0.0270008 0)
(-0.104807 0.027774 0)
(-0.116472 0.0277959 0)
(-0.128135 0.0269265 0)
(-0.139458 0.0250575 0)
(-0.150082 0.0221332 0)
(-0.159679 0.0181521 0)
(-0.167942 0.0131738 0)
(-0.174619 0.00731143 0)
(-0.179495 0.00072851 0)
(-0.182404 -0.00637219 0)
(-0.183206 -0.0137517 0)
(-0.181805 -0.0211454 0)
(-0.178129 -0.0282643 0)
(-0.172149 -0.0348069 0)
(-0.163878 -0.0404644 0)
(-0.153399 -0.0449396 0)
(-0.140868 -0.0479617 0)
(-0.126547 -0.0493164 0)
(-0.110802 -0.0488697 0)
(-0.0941218 -0.0466015 0)
(-0.0770786 -0.0426219 0)
(-0.0603172 -0.0371841 0)
(-0.044469 -0.0306649 0)
(-0.0301159 -0.0235315 0)
(-0.0176864 -0.0162789 0)
(-0.00745837 -0.00936933 0)
(0.000506025 -0.00317218 0)
(0.00627248 0.00206461 0)
(0.010069 0.00622753 0)
(0.0121456 0.00931543 0)
(0.0128444 0.0114219 0)
(0.012433 0.012686 0)
(0.011247 0.0132704 0)
(0.00948125 0.0132984 0)
(0.00743162 0.012836 0)
(0.00521175 0.0118223 0)
(0.0031372 0.0100809 0)
(0.00131304 0.00727565 0)
(0.000201042 0.00303064 0)
(-0.000211649 0.00161231 0)
(-0.00150945 0.00472885 0)
(-0.00366604 0.00705496 0)
(-0.00619548 0.00867698 0)
(-0.0090381 0.00967161 0)
(-0.0119634 0.0103513 0)
(-0.0150453 0.0108466 0)
(-0.0182045 0.0113642 0)
(-0.021571 0.0119733 0)
(-0.0251608 0.0128065 0)
(-0.0291527 0.0139174 0)
(-0.0336462 0.0154012 0)
(-0.0388587 0.0172857 0)
(-0.0449313 0.019601 0)
(-0.0520666 0.0223055 0)
(-0.0603749 0.0253355 0)
(-0.0699745 0.028563 0)
(-0.0808725 0.0318336 0)
(-0.093039 0.034944 0)
(-0.106317 0.037671 0)
(-0.120483 0.0397655 0)
(-0.135198 0.0409838 0)
(-0.150077 0.0411001 0)
(-0.164684 0.0399403 0)
(-0.17861 0.0373953 0)
(-0.191469 0.0334366 0)
(-0.202952 0.028109 0)
(-0.212803 0.0215261 0)
(-0.220836 0.0138518 0)
(-0.226904 0.00529251 0)
(-0.230897 -0.00391706 0)
(-0.232714 -0.0135151 0)
(-0.232267 -0.0232191 0)
(-0.229458 -0.0327221 0)
(-0.224199 -0.0416966 0)
(-0.216408 -0.0497927 0)
(-0.206044 -0.0566507 0)
(-0.19312 -0.0619113 0)
(-0.177754 -0.0652461 0)
(-0.160189 -0.0663874 0)
(-0.140837 -0.0651763 0)
(-0.120274 -0.0616014 0)
(-0.0992421 -0.0558396 0)
(-0.0785736 -0.0482626 0)
(-0.0591288 -0.0394199 0)
(-0.0416514 -0.0299688 0)
(-0.0267038 -0.0205858 0)
(-0.014555 -0.0118599 0)
(-0.00523917 -0.0042252 0)
(0.0014602 0.00207854 0)
(0.00584464 0.00697945 0)
(0.00833194 0.0105526 0)
(0.00927621 0.0129446 0)
(0.0090927 0.0143522 0)
(0.00805306 0.0149295 0)
(0.00651583 0.0147803 0)
(0.00465617 0.0138489 0)
(0.002829 0.0119561 0)
(0.00118309 0.0087042 0)
(0.000176286 0.00365924 0)
(-0.000266751 0.00244423 0)
(-0.00183686 0.0066614 0)
(-0.00439551 0.00963222 0)
(-0.00734893 0.0116009 0)
(-0.0106406 0.0127804 0)
(-0.0140081 0.0135803 0)
(-0.0175592 0.014195 0)
(-0.0212179 0.0148776 0)
(-0.0251649 0.015738 0)
(-0.02945 0.0169496 0)
(-0.034322 0.0186043 0)
(-0.0399348 0.0208264 0)
(-0.0465756 0.0236567 0)
(-0.0544292 0.0271169 0)
(-0.0637345 0.0311357 0)
(-0.0746006 0.0355974 0)
(-0.0871196 0.0403027 0)
(-0.101224 0.0450063 0)
(-0.116772 0.0493993 0)
(-0.133451 0.0531455 0)
(-0.150864 0.0558924 0)
(-0.168506 0.0573211 0)
(-0.185871 0.057176 0)
(-0.202461 0.0553015 0)
(-0.217876 0.0516459 0)
(-0.231794 0.046259 0)
(-0.244009 0.0392677 0)
(-0.254384 0.0308571 0)
(-0.262863 0.0212448 0)
(-0.269408 0.0106695 0)
(-0.274009 -0.000622555 0)
(-0.27663 -0.0123747 0)
(-0.277218 -0.0243215 0)
(-0.275667 -0.0361765 0)
(-0.271841 -0.0476281 0)
(-0.265557 -0.0583273 0)
(-0.256628 -0.0678885 0)
(-0.244869 -0.0758902 0)
(-0.230169 -0.0818965 0)
(-0.212523 -0.085485 0)
(-0.192116 -0.0863023 0)
(-0.169357 -0.0841231 0)
(-0.14493 -0.0789265 0)
(-0.119764 -0.0709503 0)
(-0.0949787 -0.0607222 0)
(-0.0717239 -0.0490187 0)
(-0.0510265 -0.0367684 0)
(-0.0335793 -0.0248853 0)
(-0.0196953 -0.0141219 0)
(-0.00926672 -0.0049557 0)
(-0.00195539 0.00240315 0)
(0.00276222 0.00798523 0)
(0.00537318 0.0119435 0)
(0.0064114 0.0145186 0)
(0.00625734 0.0159083 0)
(0.00535078 0.0162659 0)
(0.00394333 0.0155554 0)
(0.00243341 0.0136058 0)
(0.00101837 0.00998336 0)
(0.000146224 0.0042188 0)
(-0.000325774 0.00345923 0)
(-0.00217583 0.00895288 0)
(-0.00513934 0.0126379 0)
(-0.00851594 0.0149726 0)
(-0.0122567 0.0163438 0)
(-0.0160727 0.0172773 0)
(-0.0201132 0.0180466 0)
(-0.0243153 0.0189629 0)
(-0.0289236 0.0201918 0)
(-0.0340362 0.0219592 0)
(-0.0399842 0.0244031 0)
(-0.0469825 0.0276744 0)
(-0.0553838 0.0318151 0)
(-0.0653992 0.036816 0)
(-0.0772713 0.0425455 0)
(-0.0910581 0.0487968 0)
(-0.106757 0.0552535 0)
(-0.124144 0.06153 0)
(-0.142882 0.0671699 0)
(-0.162437 0.0717039 0)
(-0.182223 0.0746923 0)
(-0.201599 0.0757941 0)
(-0.220017 0.0747989 0)
(-0.237016 0.0716462 0)
(-0.252302 0.0664033 0)
(-0.265699 0.0592392 0)
(-0.277174 0.0503825 0)
(-0.286759 0.040093 0)
(-0.294558 0.0286316 0)
(-0.300674 0.0162498 0)
(-0.305214 0.00317948 0)
(-0.30823 -0.0103593 0)
(-0.309728 -0.0241542 0)
(-0.309628 -0.0379814 0)
(-0.30778 -0.0515934 0)
(-0.303938 -0.0646961 0)
(-0.297791 -0.0769371 0)
(-0.288966 -0.0878905 0)
(-0.277089 -0.0970613 0)
(-0.261825 -0.103899 0)
(-0.242987 -0.107842 0)
(-0.220608 -0.108387 0)
(-0.195059 -0.105184 0)
(-0.167099 -0.0981521 0)
(-0.137903 -0.0875838 0)
(-0.10894 -0.0741922 0)
(-0.081802 -0.059073 0)
(-0.0578711 -0.0435246 0)
(-0.0380795 -0.0287977 0)
(-0.0227113 -0.0158255 0)
(-0.0115307 -0.00512337 0)
(-0.00392055 0.00321205 0)
(0.000794592 0.00932357 0)
(0.00333266 0.0135126 0)
(0.0042389 0.0160463 0)
(0.00407168 0.0171511 0)
(0.00318336 0.0168343 0)
(0.00202823 0.0149503 0)
(0.000859486 0.0110585 0)
(0.000120541 0.00468274 0)
(-0.000385919 0.00464895 0)
(-0.00251718 0.0115868 0)
(-0.00588318 0.0160504 0)
(-0.0096787 0.0187697 0)
(-0.0138681 0.0203446 0)
(-0.0181421 0.0214368 0)
(-0.0227007 0.022417 0)
(-0.0275053 0.0236688 0)
(-0.0328781 0.0254306 0)
(-0.0389775 0.0279908 0)
(-0.0462233 0.0315357 0)
(-0.0548852 0.0362292 0)
(-0.0653608 0.0420888 0)
(-0.0778475 0.0490349 0)
(-0.092533 0.0568266 0)
(-0.109347 0.0651077 0)
(-0.128102 0.0733852 0)
(-0.148332 0.0810837 0)
(-0.169446 0.0875819 0)
(-0.190688 0.0923061 0)
(-0.211335 0.0948021 0)
(-0.230711 0.0948025 0)
(-0.248339 0.092235 0)
(-0.263901 0.0872057 0)
(-0.277299 0.079946 0)
(-0.288564 0.0707638 0)
(-0.297868 0.0599892 0)
(-0.305425 0.0479424 0)
(-0.311497 0.0349058 0)
(-0.316313 0.0211193 0)
(-0.320082 0.00677613 0)
(-0.322937 -0.00796402 0)
(-0.324954 -0.0229659 0)
(-0.326104 -0.038096 0)
(-0.326272 -0.0532063 0)
(-0.32522 -0.0681055 0)
(-0.322602 -0.0825369 0)
(-0.317946 -0.0961491 0)
(-0.310687 -0.108477 0)
(-0.300198 -0.118931 0)
(-0.285875 -0.126812 0)
(-0.267239 -0.131356 0)
(-0.244097 -0.131832 0)
(-0.216684 -0.12768 0)
(-0.185812 -0.11869 0)
(-0.152898 -0.105181 0)
(-0.119887 -0.0881014 0)
(-0.088923 -0.0689759 0)
(-0.0619201 -0.0496369 0)
(-0.0400635 -0.0317672 0)
(-0.0236335 -0.0165306 0)
(-0.0121041 -0.00438569 0)
(-0.00460519 0.00471023 0)
(-0.000152955 0.011126 0)
(0.0020506 0.0152389 0)
(0.00274973 0.0173937 0)
(0.00243953 0.0176807 0)
(0.00165791 0.016009 0)
(0.000726047 0.0119636 0)
(0.000102055 0.00508283 0)
(-0.0004489 0.00603172 0)
(-0.00286349 0.0145844 0)
(-0.00662909 0.0198894 0)
(-0.0108403 0.0230144 0)
(-0.0154802 0.0248135 0)
(-0.0202277 0.0261066 0)
(-0.0253421 0.0273817 0)
(-0.0308213 0.0291117 0)
(-0.0370761 0.0316236 0)
(-0.0443312 0.0352723 0)
(-0.0530893 0.0402821 0)
(-0.0636524 0.0467997 0)
(-0.0764195 0.0547728 0)
(-0.0915117 0.0639916 0)
(-0.108981 0.0740387 0)
(-0.128535 0.0843392 0)
(-0.149722 0.0941699 0)
(-0.171782 0.10275 0)
(-0.193885 0.109334 0)
(-0.215127 0.113334 0)
(-0.234771 0.114399 0)
(-0.252243 0.112445 0)
(-0.267261 0.107621 0)
(-0.279745 0.100247 0)
(-0.289849 0.0907335 0)
(-0.297833 0.0795143 0)
(-0.304059 0.0669924 0)
(-0.308886 0.0535124 0)
(-0.312676 0.0393435 0)
(-0.315725 0.0246853 0)
(-0.318286 0.00967269 0)
(-0.320531 -0.00560521 0)
(-0.322575 -0.0210934 0)
(-0.324443 -0.0367497 0)
(-0.326089 -0.05253 0)
(-0.327354 -0.0683624 0)
(-0.32797 -0.0841232 0)
(-0.327514 -0.0996015 0)
(-0.32541 -0.114462 0)
(-0.320909 -0.128205 0)
(-0.313136 -0.14014 0)
(-0.301156 -0.149386 0)
(-0.284135 -0.154915 0)
(-0.261522 -0.155674 0)
(-0.233319 -0.150782 0)
(-0.200297 -0.139804 0)
(-0.16414 -0.123046 0)
(-0.127335 -0.101749 0)
(-0.0927736 -0.0780398 0)
(-0.0630171 -0.0544691 0)
(-0.0395882 -0.0333149 0)
(-0.0226226 -0.0159116 0)
(-0.0112641 -0.00262133 0)
(-0.00422687 0.00691748 0)
(-0.000346835 0.0132314 0)
(0.00141161 0.0168557 0)
(0.00175795 0.0180273 0)
(0.00136347 0.0167594 0)
(0.000641346 0.0127002 0)
(9.66288e-05 0.00542566 0)
(-0.000510891 0.00759121 0)
(-0.00320254 0.0179166 0)
(-0.00735795 0.0241211 0)
(-0.0119765 0.0276745 0)
(-0.0170664 0.0297276 0)
(-0.0223026 0.0312813 0)
(-0.0280129 0.0329631 0)
(-0.0342422 0.0353518 0)
(-0.0414956 0.0388749 0)
(-0.0500608 0.0439464 0)
(-0.0605012 0.0508017 0)
(-0.0731083 0.05952 0)
(-0.0882187 0.0699134 0)
(-0.105796 0.0815648 0)
(-0.125667 0.0938039 0)
(-0.147243 0.105777 0)
(-0.169767 0.116515 0)
(-0.192214 0.125077 0)
(-0.21361 0.1307 0)
(-0.23305 0.13292 0)
(-0.249943 0.131619 0)
(-0.263957 0.126994 0)
(-0.275107 0.119463 0)
(-0.283605 0.109565 0)
(-0.289856 0.0978593 0)
(-0.294311 0.084855 0)
(-0.297451 0.0709708 0)
(-0.299693 0.0565224 0)
(-0.301407 0.0417245 0)
(-0.302865 0.0267103 0)
(-0.304288 0.0115475 0)
(-0.305816 -0.00373909 0)
(-0.307555 -0.0191553 0)
(-0.30955 -0.0347221 0)
(-0.311818 -0.0504674 0)
(-0.314306 -0.0664114 0)
(-0.316898 -0.0825508 0)
(-0.319348 -0.0988306 0)
(-0.321264 -0.115103 0)
(-0.322029 -0.131074 0)
(-0.320795 -0.146237 0)
(-0.316461 -0.159816 0)
(-0.307761 -0.170732 0)
(-0.293418 -0.177639 0)
(-0.272424 -0.17906 0)
(-0.244398 -0.173662 0)
(-0.209975 -0.160665 0)
(-0.17107 -0.14031 0)
(-0.130827 -0.114225 0)
(-0.0930431 -0.0853518 0)
(-0.0610977 -0.0572594 0)
(-0.036792 -0.0328823 0)
(-0.0200003 -0.0137095 0)
(-0.00932681 0.000272333 0)
(-0.00315414 0.00970361 0)
(-1.60507e-05 0.0154017 0)
(0.00112255 0.0178463 0)
(0.00114866 0.017235 0)
(0.000609285 0.013328 0)
(0.000104848 0.00575967 0)
(-0.000573363 0.00934367 0)
(-0.0035351 0.0216024 0)
(-0.00806792 0.0287667 0)
(-0.0130845 0.0327785 0)
(-0.0186237 0.0351294 0)
(-0.0243646 0.0370262 0)
(-0.0307107 0.0392588 0)
(-0.0377599 0.0425259 0)
(-0.0461088 0.0473573 0)
(-0.0560899 0.0542022 0)
(-0.0682879 0.0632579 0)
(-0.0829242 0.0744635 0)
(-0.100196 0.0874124 0)
(-0.11983 0.101397 0)
(-0.141358 0.11543 0)
(-0.163868 0.12836 0)
(-0.186332 0.139022 0)
(-0.207575 0.146435 0)
(-0.226642 0.149976 0)
(-0.242803 0.149458 0)
(-0.255766 0.145106 0)
(-0.265543 0.137445 0)
(-0.272484 0.127158 0)
(-0.277072 0.114951 0)
(-0.279901 0.101457 0)
(-0.281512 0.0871799 0)
(-0.282403 0.0724817 0)
(-0.282942 0.0575928 0)
(-0.283416 0.0426381 0)
(-0.283997 0.0276689 0)
(-0.284808 0.0126888 0)
(-0.285906 -0.00232453 0)
(-0.287341 -0.0174077 0)
(-0.289138 -0.0326041 0)
(-0.291338 -0.0479637 0)
(-0.293963 -0.0635426 0)
(-0.297035 -0.0793995 0)
(-0.300514 -0.0955874 0)
(-0.304278 -0.112124 0)
(-0.308029 -0.12895 0)
(-0.311227 -0.145848 0)
(-0.312999 -0.162353 0)
(-0.312102 -0.177633 0)
(-0.306952 -0.190423 0)
(-0.295802 -0.19901 0)
(-0.277076 -0.201395 0)
(-0.249879 -0.195641 0)
(-0.214591 -0.180481 0)
(-0.173336 -0.156058 0)
(-0.130026 -0.124513 0)
(-0.0895705 -0.0899709 0)
(-0.0562558 -0.0572797 0)
(-0.0320294 -0.0301548 0)
(-0.0161868 -0.00985625 0)
(-0.00675929 0.00405154 0)
(-0.00171384 0.0127235 0)
(0.000461751 0.0170061 0)
(0.000991743 0.0174049 0)
(0.000627018 0.0138629 0)
(0.000127828 0.00610532 0)
(-0.000630988 0.01126 0)
(-0.00384407 0.0255936 0)
(-0.00873162 0.0337734 0)
(-0.0141281 0.0382772 0)
(-0.0201072 0.0409803 0)
(-0.0263598 0.0433194 0)
(-0.0333682 0.0462684 0)
(-0.0412841 0.0506522 0)
(-0.0507814 0.0570913 0)
(-0.0622062 0.0660259 0)
(-0.0761099 0.0775461 0)
(-0.0925748 0.0913638 0)
(-0.111586 0.106767 0)
(-0.13257 0.122688 0)
(-0.154747 0.137799 0)
(-0.176923 0.150695 0)
(-0.19792 0.160138 0)
(-0.216577 0.165279 0)
(-0.232146 0.165807 0)
(-0.244228 0.161935 0)
(-0.252922 0.154285 0)
(-0.258606 0.143694 0)
(-0.261918 0.131037 0)
(-0.263519 0.11709 0)
(-0.264073 0.102458 0)
(-0.264092 0.0875513 0)
(-0.263987 0.0726105 0)
(-0.263991 0.0577429 0)
(-0.264254 0.0429688 0)
(-0.26481 0.0282612 0)
(-0.265665 0.0135749 0)
(-0.266781 -0.00113525 0)
(-0.26814 -0.0159071 0)
(-0.269723 -0.0307719 0)
(-0.271562 -0.0457595 0)
(-0.273702 -0.0609097 0)
(-0.276238 -0.0762783 0)
(-0.279266 -0.0919485 0)
(-0.282881 -0.10802 0)
(-0.287097 -0.124596 0)
(-0.291786 -0.141721 0)
(-0.296539 -0.159302 0)
(-0.300557 -0.176953 0)
(-0.302526 -0.193848 0)
(-0.300607 -0.20854 0)
(-0.292581 -0.218924 0)
(-0.276241 -0.222364 0)
(-0.250078 -0.216169 0)
(-0.214118 -0.198442 0)
(-0.170721 -0.169211 0)
(-0.124717 -0.131428 0)
(-0.08236 -0.0908154 0)
(-0.0488319 -0.0539358 0)
(-0.0258354 -0.024926 0)
(-0.0117692 -0.00459899 0)
(-0.00400391 0.0083707 0)
(-0.000379565 0.015319 0)
(0.000825808 0.0172308 0)
(0.000671453 0.0143364 0)
(0.000162029 0.00650379 0)
(-0.0006851 0.0133516 0)
(-0.00412852 0.0299037 0)
(-0.00934286 0.0391599 0)
(-0.0150968 0.0441994 0)
(-0.0215009 0.047324 0)
(-0.0282634 0.050224 0)
(-0.0359431 0.0540747 0)
(-0.0447379 0.0598241 0)
(-0.0553722 0.0681528 0)
(-0.0681619 0.0794271 0)
(-0.0835646 0.0935434 0)
(-0.101461 0.109894 0)
(-0.121571 0.127387 0)
(-0.143012 0.144564 0)
(-0.164732 0.159793 0)
(-0.185366 0.171536 0)
(-0.20375 0.178659 0)
(-0.218924 0.180632 0)
(-0.230494 0.177597 0)
(-0.238473 0.170227 0)
(-0.243355 0.159516 0)
(-0.245813 0.146527 0)
(-0.246661 0.132208 0)
(-0.246602 0.117286 0)
(-0.246243 0.102238 0)
(-0.245968 0.0873127 0)
(-0.246026 0.0725936 0)
(-0.246487 0.0580565 0)
(-0.24735 0.043627 0)
(-0.248522 0.0292207 0)
(-0.249913 0.0147681 0)
(-0.251409 0.000225344 0)
(-0.252939 -0.0144241 0)
(-0.254447 -0.0291786 0)
(-0.255939 -0.0440248 0)
(-0.257453 -0.0589582 0)
(-0.259097 -0.0739906 0)
(-0.261013 -0.089176 0)
(-0.263401 -0.10461 0)
(-0.266461 -0.120452 0)
(-0.270368 -0.136885 0)
(-0.275156 -0.154091 0)
(-0.280593 -0.172111 0)
(-0.285995 -0.190696 0)
(-0.290044 -0.209035 0)
(-0.290698 -0.225532 0)
(-0.285285 -0.237625 0)
(-0.270966 -0.241939 0)
(-0.245548 -0.234858 0)
(-0.208719 -0.213734 0)
(-0.163148 -0.178612 0)
(-0.114885 -0.133666 0)
(-0.0717135 -0.0870025 0)
(-0.0394954 -0.0468912 0)
(-0.0189721 -0.0175546 0)
(-0.00733957 0.00160003 0)
(-0.00163075 0.0124135 0)
(0.000547418 0.0165626 0)
(0.000707592 0.014711 0)
(0.000202967 0.00696022 0)
(-0.000728678 0.0155712 0)
(-0.00436595 0.0344574 0)
(-0.00986502 0.0448453 0)
(-0.0159401 0.0504668 0)
(-0.0227386 0.0540881 0)
(-0.0299883 0.0576723 0)
(-0.0383158 0.0626061 0)
(-0.04795 0.0699424 0)
(-0.0596302 0.0803741 0)
(-0.0735944 0.0941142 0)
(-0.0901498 0.110777 0)
(-0.108932 0.129356 0)
(-0.129386 0.148344 0)
(-0.150352 0.165909 0)
(-0.170607 0.18022 0)
(-0.188768 0.189774 0)
(-0.203856 0.193736 0)
(-0.215251 0.192049 0)
(-0.222986 0.185381 0)
(-0.227477 0.174843 0)
(-0.229531 0.161706 0)
(-0.229986 0.147121 0)
(-0.229689 0.13198 0)
(-0.229256 0.116849 0)
(-0.229144 0.102006 0)
(-0.229552 0.0875115 0)
(-0.230552 0.0732897 0)
(-0.232058 0.0592048 0)
(-0.233949 0.0451179 0)
(-0.236044 0.0309165 0)
(-0.238193 0.0165339 0)
(-0.240241 0.00194638 0)
(-0.242091 -0.0128275 0)
(-0.243664 -0.0277447 0)
(-0.244946 -0.0427424 0)
(-0.245952 -0.0577642 0)
(-0.246771 -0.0727628 0)
(-0.247534 -0.0877357 0)
(-0.248453 -0.102725 0)
(-0.249787 -0.117861 0)
(-0.25185 -0.133348 0)
(-0.254945 -0.149484 0)
(-0.259276 -0.166577 0)
(-0.264778 -0.184854 0)
(-0.270891 -0.204192 0)
(-0.276312 -0.22383 0)
(-0.278801 -0.241959 0)
(-0.27527 -0.255499 0)
(-0.262216 -0.260166 0)
(-0.236842 -0.251257 0)
(-0.198544 -0.225358 0)
(-0.150645 -0.182795 0)
(-0.100737 -0.129905 0)
(-0.0583637 -0.077816 0)
(-0.0292562 -0.0365036 0)
(-0.01227 -0.00859663 0)
(-0.00358654 0.00775729 0)
(1.97096e-05 0.0151715 0)
(0.00068609 0.0149198 0)
(0.000242939 0.00747879 0)
(-0.000763385 0.0179226 0)
(-0.00455514 0.0392592 0)
(-0.0102895 0.0508415 0)
(-0.0166421 0.0571013 0)
(-0.0237926 0.0613032 0)
(-0.0314878 0.0656996 0)
(-0.0404062 0.0718888 0)
(-0.0507847 0.0809973 0)
(-0.0633362 0.0936673 0)
(-0.0781768 0.109872 0)
(-0.0954251 0.12886 0)
(-0.114461 0.149177 0)
(-0.134483 0.168903 0)
(-0.154142 0.185917 0)
(-0.172172 0.19834 0)
(-0.187325 0.204897 0)
(-0.198936 0.205219 0)
(-0.206794 0.199817 0)
(-0.211345 0.189869 0)
(-0.213322 0.176832 0)
(-0.213708 0.162107 0)
(-0.213365 0.146792 0)
(-0.213045 0.131602 0)
(-0.213194 0.116873 0)
(-0.214072 0.102658 0)
(-0.215691 0.0888321 0)
(-0.217969 0.0751914 0)
(-0.220704 0.0615255 0)
(-0.223702 0.0476671 0)
(-0.226737 0.0335054 0)
(-0.22964 0.0189973 0)
(-0.232247 0.00415125 0)
(-0.234457 -0.0109745 0)
(-0.236186 -0.0262969 0)
(-0.237408 -0.0417082 0)
(-0.238119 -0.0571061 0)
(-0.238378 -0.0723878 0)
(-0.238277 -0.0874916 0)
(-0.237985 -0.102387 0)
(-0.237735 -0.117135 0)
(-0.237849 -0.131876 0)
(-0.238721 -0.146899 0)
(-0.240778 -0.162594 0)
(-0.244381 -0.179459 0)
(-0.24962 -0.19788 0)
(-0.256052 -0.217916 0)
(-0.262333 -0.238779 0)
(-0.266019 -0.258389 0)
(-0.263515 -0.272938 0)
(-0.250743 -0.277035 0)
(-0.22431 -0.264744 0)
(-0.183713 -0.231956 0)
(-0.133309 -0.18013 0)
(-0.0829256 -0.118901 0)
(-0.0435539 -0.0635075 0)
(-0.0193537 -0.0235711 0)
(-0.00657076 0.000580265 0)
(-0.00090591 0.0126756 0)
(0.000555244 0.0148072 0)
(0.00027462 0.00802232 0)
(-0.000780876 0.0203363 0)
(-0.0046698 0.0441999 0)
(-0.0105737 0.0570302 0)
(-0.0171428 0.0639824 0)
(-0.0245825 0.0688436 0)
(-0.0326527 0.0741624 0)
(-0.0420627 0.0817382 0)
(-0.0530315 0.0927265 0)
(-0.0662072 0.107649 0)
(-0.0815527 0.12616 0)
(-0.0989834 0.147088 0)
(-0.117648 0.168521 0)
(-0.136561 0.188179 0)
(-0.154292 0.203777 0)
(-0.169667 0.213563 0)
(-0.181689 0.216659 0)
(-0.190075 0.213275 0)
(-0.19501 0.204496 0)
(-0.197273 0.191932 0)
(-0.197784 0.177237 0)
(-0.19756 0.161794 0)
(-0.197368 0.146522 0)
(-0.197785 0.131881 0)
(-0.199051 0.117949 0)
(-0.201235 0.104568 0)
(-0.204192 0.0914595 0)
(-0.207731 0.0783379 0)
(-0.211585 0.0649592 0)
(-0.215531 0.0511615 0)
(-0.219338 0.0368593 0)
(-0.222845 0.0220462 0)
(-0.225901 0.00676828 0)
(-0.22842 -0.00887772 0)
(-0.230324 -0.024775 0)
(-0.231587 -0.0407796 0)
(-0.232194 -0.056756 0)
(-0.232177 -0.0725586 0)
(-0.231587 -0.08808 0)
(-0.23054 -0.103224 0)
(-0.229198 -0.117976 0)
(-0.227815 -0.132379 0)
(-0.226743 -0.146637 0)
(-0.226444 -0.161073 0)
(-0.227462 -0.176248 0)
(-0.230294 -0.192804 0)
(-0.235198 -0.211391 0)
(-0.241776 -0.23217 0)
(-0.248633 -0.254315 0)
(-0.252932 -0.275234 0)
(-0.250598 -0.290135 0)
(-0.236839 -0.292209 0)
(-0.20805 -0.274124 0)
(-0.164148 -0.231673 0)
(-0.111544 -0.168633 0)
(-0.0626672 -0.10034 0)
(-0.0291076 -0.0450396 0)
(-0.0108986 -0.010056 0)
(-0.00237923 0.00857616 0)
(0.00026798 0.0141682 0)
(0.000289467 0.00854376 0)
(-0.000784104 0.0228082 0)
(-0.00471156 0.0492752 0)
(-0.0107116 0.0634157 0)
(-0.0174277 0.0711215 0)
(-0.0250786 0.076719 0)
(-0.0334304 0.0830546 0)
(-0.0431966 0.0921097 0)
(-0.0545532 0.105018 0)
(-0.0680515 0.122112 0)
(-0.0834901 0.142662 0)
(-0.100593 0.165049 0)
(-0.11833 0.18693 0)
(-0.135617 0.205761 0)
(-0.151057 0.219239 0)
(-0.163667 0.225907 0)
(-0.172769 0.225412 0)
(-0.17846 0.218582 0)
(-0.181254 0.207018 0)