/*--------------------------------*- C++ -*----------------------------------*\
| =========                 |                                                 |
| \\      /  F ield         | OpenFOAM: The Open Source CFD Toolbox           |
|  \\    /   O peration     | Version:  2406                                  |
|   \\  /    A nd           | Website:  www.openfoam.com                      |
|    \\/     M anipulation  |                                                 |
\*---------------------------------------------------------------------------*/
FoamFile
{
    version     2.0;
    format      ascii;
    arch        "LSB;label=32;scalar=64";
    class       volVectorField;
    location    "43.15";
    object      U_0;
}
// * * * * * * * * * * * * * * * * * * * * * * * * * * * * * * * * * * * * * //

dimensions      [0 1 -1 0 0 0 0];

internalField   nonuniform List<vector> 
14400
(
(-7.23995e-06 7.1389e-06 0)
(1.25805e-05 -1.06905e-05 0)
(0.000117531 -3.39867e-05 0)
(0.000303788 -5.30382e-05 0)
(0.000552046 -6.62719e-05 0)
(0.000839926 -7.34199e-05 0)
(0.00114489 -7.50386e-05 0)
(0.00144691 -7.20183e-05 0)
(0.00172967 -6.54711e-05 0)
(0.0019813 -5.65951e-05 0)
(0.00219454 -4.65687e-05 0)
(0.00236651 -3.645e-05 0)
(0.00249816 -2.7101e-05 0)
(0.00259341 -1.91395e-05 0)
(0.00265817 -1.29183e-05 0)
(0.00269936 -8.52909e-06 0)
(0.00272397 -5.88912e-06 0)
(0.00273811 -4.80827e-06 0)
(0.00274634 -4.83056e-06 0)
(0.00275151 -5.42149e-06 0)
(0.00275426 -6.01736e-06 0)
(0.00275339 -5.89855e-06 0)
(0.00274611 -4.72812e-06 0)
(0.00272795 -2.36972e-06 0)
(0.00269344 1.32052e-06 0)
(0.00263657 6.42751e-06 0)
(0.00255107 1.29742e-05 0)
(0.00243058 2.09571e-05 0)
(0.00226874 3.03742e-05 0)
(0.00205916 4.12417e-05 0)
(0.00179538 5.3598e-05 0)
(0.00147079 6.74968e-05 0)
(0.00107861 8.29939e-05 0)
(0.000612001 0.000100131 0)
(6.40919e-05 0.000118921 0)
(-0.000571802 0.000139338 0)
(-0.001302 0.000161306 0)
(-0.00213221 0.0001847 0)
(-0.00306731 0.000209334 0)
(-0.00411105 0.00023497 0)
(-0.00526583 0.000261308 0)
(-0.00653243 0.000287997 0)
(-0.00790978 0.000314631 0)
(-0.00939478 0.00034076 0)
(-0.0109821 0.000365892 0)
(-0.0126641 0.000389502 0)
(-0.0144307 0.000411045 0)
(-0.0162694 0.000429959 0)
(-0.0181654 0.000445675 0)
(-0.0201014 0.00045763 0)
(-0.022058 0.000465268 0)
(-0.0240139 0.000468054 0)
(-0.025946 0.000465476 0)
(-0.0278295 0.000457058 0)
(-0.0296385 0.000442361 0)
(-0.0313463 0.000420999 0)
(-0.0329252 0.000392642 0)
(-0.0343478 0.00035704 0)
(-0.0355866 0.000314024 0)
(-0.0366147 0.000263419 0)
(-0.0374072 0.000205507 0)
(-0.0379405 0.000142166 0)
(-0.0381903 7.38639e-05 0)
(-0.0381363 -2.2072e-06 0)
(-0.0377658 -8.4788e-05 0)
(-0.0370671 -0.000171199 0)
(-0.0360324 -0.000259989 0)
(-0.0346598 -0.000349731 0)
(-0.0329538 -0.00043868 0)
(-0.0309249 -0.000524892 0)
(-0.0285907 -0.000606269 0)
(-0.0259756 -0.000680625 0)
(-0.0231112 -0.000745774 0)
(-0.0200357 -0.000799625 0)
(-0.0167937 -0.000840291 0)
(-0.013435 -0.000866193 0)
(-0.010014 -0.000876169 0)
(-0.00658775 -0.000869562 0)
(-0.0032146 -0.000846293 0)
(4.75969e-05 -0.000806902 0)
(0.00314349 -0.000752552 0)
(0.00602206 -0.000684993 0)
(0.00863843 -0.000606484 0)
(0.0109554 -0.000519683 0)
(0.0129447 -0.000427502 0)
(0.0145878 -0.000332945 0)
(0.0158763 -0.000238942 0)
(0.0168118 -0.000148181 0)
(0.0174053 -6.28616e-05 0)
(0.0176779 1.45895e-05 0)
(0.0176546 8.06627e-05 0)
(0.0173658 0.000136431 0)
(0.0168499 0.000183483 0)
(0.0161467 0.000220951 0)
(0.0152944 0.000248233 0)
(0.0143306 0.000266059 0)
(0.0132913 0.000275495 0)
(0.0122091 0.000277674 0)
(0.011113 0.000273787 0)
(0.0100272 0.000265027 0)
(0.00897183 0.000252534 0)
(0.00796234 0.00023736 0)
(0.0070101 0.000220443 0)
(0.0061227 0.000202596 0)
(0.00530442 0.000184501 0)
(0.00455673 0.000166715 0)
(0.00387879 0.000149678 0)
(0.00326791 0.000133723 0)
(0.00272008 0.00011908 0)
(0.00223034 0.000105871 0)
(0.00179338 9.40903e-05 0)
(0.00140411 8.35727e-05 0)
(0.00105836 7.39527e-05 0)
(0.000753778 6.4631e-05 0)
(0.00049069 5.47657e-05 0)
(0.00027278 4.33673e-05 0)
(0.000107206 2.95645e-05 0)
(3.09626e-06 1.31086e-05 0)
(-3.48909e-05 -3.88625e-06 0)
(-1.35749e-05 -1.35946e-05 0)
(9.54084e-06 -1.16994e-05 0)
(0.000147376 -0.000151822 0)
(0.000465849 -0.000324685 0)
(0.000959588 -0.000470161 0)
(0.00158435 -0.000573129 0)
(0.00229443 -0.000629954 0)
(0.00304095 -0.000643171 0)
(0.00377899 -0.000618869 0)
(0.004471 -0.000565239 0)
(0.0050886 -0.000491449 0)
(0.0056134 -0.000406713 0)
(0.00603662 -0.000319466 0)
(0.00635809 -0.000236722 0)
(0.00658445 -0.000163646 0)
(0.00672704 -0.000103349 0)
(0.00679967 -5.68996e-05 0)
(0.0068164 -2.35549e-05 0)
(0.00678962 -1.12037e-06 0)
(0.00672851 1.38973e-05 0)
(0.00663795 2.56462e-05 0)
(0.00651809 3.84352e-05 0)
(0.00636419 5.64408e-05 0)
(0.00616709 8.30081e-05 0)
(0.00591426 0.000120595 0)
(0.00559067 0.000170865 0)
(0.00517957 0.000234754 0)
(0.00466336 0.000312659 0)
(0.00402406 0.000404682 0)
(0.00324364 0.000510834 0)
(0.00230412 0.00063116 0)
(0.00118766 0.000765772 0)
(-0.00012336 0.000914789 0)
(-0.00164618 0.00107823 0)
(-0.0033973 0.00125591 0)
(-0.00539201 0.00144726 0)
(-0.00764386 0.00165131 0)
(-0.010164 0.00186659 0)
(-0.0129603 0.00209108 0)
(-0.0160372 0.00232223 0)
(-0.0193944 0.00255694 0)
(-0.0230267 0.00279161 0)
(-0.0269234 0.00302218 0)
(-0.0310679 0.00324418 0)
(-0.0354376 0.00345289 0)
(-0.040004 0.00364338 0)
(-0.0447326 0.00381063 0)
(-0.0495833 0.0039497 0)
(-0.054511 0.0040558 0)
(-0.0594663 0.00412443 0)
(-0.0643961 0.00415145 0)
(-0.0692444 0.00413321 0)
(-0.0739536 0.0040666 0)
(-0.0784646 0.00394911 0)
(-0.0827187 0.00377887 0)
(-0.0866575 0.00355471 0)
(-0.0902244 0.00327616 0)
(-0.0933652 0.00294346 0)
(-0.0960285 0.00255765 0)
(-0.098167 0.00212058 0)
(-0.0997375 0.00163491 0)
(-0.100701 0.00110433 0)
(-0.101027 0.000534599 0)
(-0.100689 -6.81125e-05 0)
(-0.0996673 -0.000700402 0)
(-0.0979482 -0.00135468 0)
(-0.0955289 -0.0020215 0)
(-0.0924146 -0.00269108 0)
(-0.0886189 -0.00335279 0)
(-0.0841654 -0.00399522 0)
(-0.0790872 -0.00460633 0)
(-0.073428 -0.00517369 0)
(-0.0672413 -0.00568478 0)
(-0.0605908 -0.00612736 0)
(-0.0535497 -0.00648994 0)
(-0.0462002 -0.00676218 0)
(-0.038632 -0.00693545 0)
(-0.0309412 -0.00700326 0)
(-0.0232286 -0.0069617 0)
(-0.0155975 -0.00680984 0)
(-0.00815167 -0.00654993 0)
(-0.000992394 -0.00618755 0)
(0.00578373 -0.00573155 0)
(0.0120876 -0.00519382 0)
(0.0178401 -0.00458889 0)
(0.0229744 -0.0039334 0)
(0.0274378 -0.00324536 0)
(0.0311936 -0.00254345 0)
(0.0342216 -0.0018462 0)
(0.0365188 -0.0011712 0)
(0.0380981 -0.000534598 0)
(0.0389895 4.84736e-05 0)
(0.039239 0.00056913 0)
(0.0389029 0.00102148 0)
(0.0380464 0.00140011 0)
(0.0367431 0.00170256 0)
(0.0350708 0.00193014 0)
(0.033108 0.00208677 0)
(0.0309314 0.00217839 0)
(0.0286134 0.00221239 0)
(0.0262201 0.00219709 0)
(0.0238096 0.00214124 0)
(0.0214312 0.0020535 0)
(0.0191252 0.00194216 0)
(0.0169226 0.00181478 0)
(0.0148459 0.00167806 0)
(0.0129094 0.00153773 0)
(0.011121 0.00139855 0)
(0.00948243 0.00126428 0)
(0.00799085 0.00113767 0)
(0.00664005 0.00102044 0)
(0.00542181 0.000913064 0)
(0.00432744 0.000814649 0)
(0.00334955 0.000722647 0)
(0.00248392 0.000632747 0)
(0.00173125 0.000539033 0)
(0.00109838 0.000434837 0)
(0.000597979 0.000314829 0)
(0.000244509 0.000179527 0)
(4.90089e-05 4.34484e-05 0)
(-2.75968e-06 -3.38926e-05 0)
(3.10764e-05 -0.000110718 0)
(0.00031014 -0.000466071 0)
(0.000829505 -0.000847347 0)
(0.00157836 -0.00116623 0)
(0.00249056 -0.0013924 0)
(0.00350796 -0.00151653 0)
(0.00456657 -0.00154253 0)
(0.00560685 -0.00148269 0)
(0.00657822 -0.00135453 0)
(0.00744176 -0.00117816 0)
(0.00817122 -0.000974127 0)
(0.00875287 -0.000761414 0)
(0.00918412 -0.000556001 0)
(0.00947135 -0.000369808 0)
(0.00962719 -0.000210168 0)
(0.00966752 -7.97606e-05 0)
(0.00960851 2.30669e-05 0)
(0.00946413 0.000103553 0)
(0.00924388 0.000169649 0)
(0.00895129 0.000230919 0)
(0.00858327 0.000297394 0)
(0.00813003 0.000378465 0)
(0.00757574 0.000482265 0)
(0.00689964 0.000615098 0)
(0.0060773 0.000781239 0)
(0.00508194 0.00098318 0)
(0.00388547 0.00122207 0)
(0.00245935 0.00149821 0)
(0.000775196 0.00181148 0)
(-0.00119483 0.00216158 0)
(-0.00347764 0.00254805 0)
(-0.00609871 0.00297014 0)
(-0.00908151 0.00342654 0)
(-0.0124466 0.00391509 0)
(-0.0162109 0.00443257 0)
(-0.0203863 0.00497445 0)
(-0.0249789 0.00553484 0)
(-0.0299875 0.00610646 0)
(-0.0354033 0.00668069 0)
(-0.0412086 0.00724772 0)
(-0.0473769 0.00779671 0)
(-0.0538721 0.00831606 0)
(-0.060649 0.00879374 0)
(-0.067654 0.0092176 0)
(-0.0748256 0.00957573 0)
(-0.0820957 0.00985686 0)
(-0.089391 0.0100506 0)
(-0.0966346 0.0101479 0)
(-0.103747 0.0101409 0)
(-0.110649 0.0100237 0)
(-0.117262 0.00979185 0)
(-0.12351 0.0094427 0)
(-0.129318 0.00897534 0)
(-0.13462 0.00839049 0)
(-0.139351 0.00769042 0)
(-0.143454 0.00687887 0)
(-0.146878 0.00596096 0)
(-0.149576 0.0049431 0)
(-0.15151 0.00383298 0)
(-0.152649 0.00263951 0)
(-0.152967 0.00137264 0)
(-0.152443 4.32089e-05 0)
(-0.151069 -0.00133533 0)
(-0.14884 -0.002748 0)
(-0.145758 -0.00418035 0)
(-0.141833 -0.0056162 0)
(-0.137083 -0.00703742 0)
(-0.131534 -0.00842456 0)
(-0.125222 -0.00975713 0)
(-0.118189 -0.0110138 0)
(-0.110489 -0.0121729 0)
(-0.102181 -0.0132125 0)
(-0.0933382 -0.0141114 0)
(-0.0840382 -0.0148496 0)
(-0.0743693 -0.0154088 0)
(-0.0644271 -0.0157735 0)
(-0.0543137 -0.0159318 0)
(-0.0441369 -0.0158756 0)
(-0.0340081 -0.0156019 0)
(-0.0240409 -0.015113 0)
(-0.0143483 -0.0144168 0)
(-0.0050409 -0.0135267 0)
(0.00377562 -0.0124619 0)
(0.0120032 -0.0112465 0)
(0.0195537 -0.00990891 0)
(0.0263511 -0.00848107 0)
(0.0323333 -0.00699714 0)
(0.0374544 -0.0054924 0)
(0.0416853 -0.00400193 0)
(0.0450146 -0.00255907 0)
(0.0474503 -0.00119364 0)
(0.0490186 6.73753e-05 0)
(0.0497611 0.00120104 0)
(0.049735 0.00219062 0)
(0.0490125 0.00302594 0)
(0.0476767 0.00370228 0)
(0.0458181 0.00422056 0)
(0.0435316 0.00458703 0)
(0.0409131 0.00481244 0)
(0.038056 0.00491109 0)
(0.0350481 0.00489976 0)
(0.0319689 0.00479662 0)
(0.0288881 0.00462022 0)
(0.0258644 0.00438856 0)
(0.0229444 0.00411847 0)
(0.0201637 0.00382504 0)
(0.017547 0.00352134 0)
(0.0151093 0.00321817 0)
(0.0128577 0.00292393 0)
(0.0107926 0.00264432 0)
(0.00891001 0.00238206 0)
(0.00720368 0.00213645 0)
(0.00566758 0.00190301 0)
(0.00429832 0.00167339 0)
(0.00309741 0.00143594 0)
(0.00207274 0.00117775 0)
(0.00123838 0.000888838 0)
(0.000608731 0.000570251 0)
(0.000206261 0.000247099 0)
(1.72129e-05 1.23829e-05 0)
(4.83815e-05 -0.000285232 0)
(0.000447915 -0.000948656 0)
(0.00113896 -0.00159431 0)
(0.00209796 -0.00212331 0)
(0.00323422 -0.00249378 0)
(0.00447858 -0.00269175 0)
(0.00575612 -0.00272326 0)
(0.00699775 -0.00260819 0)
(0.00814487 -0.00237538 0)
(0.00915215 -0.00205827 0)
(0.00998852 -0.00169114 0)
(0.0106369 -0.00130583 0)
(0.0110924 -0.000929214 0)
(0.0113603 -0.000581411 0)
(0.0114523 -0.000274802 0)
(0.0113836 -1.38625e-05 0)
(0.011169 0.000204339 0)
(0.0108205 0.000389017 0)
(0.0103445 0.000554029 0)
(0.00974013 0.000716074 0)
(0.00899838 0.000892722 0)
(0.00810239 0.00110058 0)
(0.00702818 0.00135389 0)
(0.005746 0.00166367 0)
(0.00422198 0.00203746 0)
(0.00241975 0.00247966 0)
(0.00030178 0.00299218 0)
(-0.00216938 0.00357521 0)
(-0.00503021 0.00422788 0)
(-0.00831528 0.00494849 0)
(-0.0120564 0.00573455 0)
(-0.0162816 0.00658244 0)
(-0.0210136 0.00748697 0)
(-0.0262689 0.00844093 0)
(-0.0320558 0.00943475 0)
(-0.038373 0.0104563 0)
(-0.0452089 0.0114909 0)
(-0.0525397 0.0125214 0)
(-0.0603295 0.0135288 0)
(-0.0685301 0.0144922 0)
(-0.0770812 0.0153901 0)
(-0.0859116 0.0162006 0)
(-0.094941 0.0169023 0)
(-0.104081 0.0174749 0)
(-0.11324 0.0179003 0)
(-0.122321 0.0181628 0)
(-0.131229 0.0182496 0)
(-0.139871 0.0181512 0)
(-0.148156 0.0178613 0)
(-0.156001 0.017377 0)
(-0.163328 0.0166985 0)
(-0.170067 0.0158286 0)
(-0.176156 0.0147728 0)
(-0.181542 0.0135385 0)
(-0.186179 0.012135 0)
(-0.190026 0.0105733 0)
(-0.193053 0.00886535 0)
(-0.195234 0.00702442 0)
(-0.19655 0.00506478 0)
(-0.196986 0.0030018 0)
(-0.196533 0.000851842 0)
(-0.195187 -0.00136806 0)
(-0.192949 -0.00363979 0)
(-0.189825 -0.00594207 0)
(-0.185824 -0.00825292 0)
(-0.180962 -0.0105492 0)
(-0.175259 -0.0128062 0)
(-0.168742 -0.0149973 0)
(-0.161444 -0.0170943 0)
(-0.153404 -0.019068 0)
(-0.144671 -0.0208882 0)
(-0.135298 -0.0225245 0)
(-0.125351 -0.023947 0)
(-0.114899 -0.0251269 0)
(-0.104025 -0.0260378 0)
(-0.0928161 -0.0266567 0)
(-0.0813687 -0.0269648 0)
(-0.0697857 -0.0269489 0)
(-0.0581751 -0.0266023 0)
(-0.0466488 -0.0259253 0)
(-0.0353203 -0.0249262 0)
(-0.0243031 -0.0236211 0)
(-0.0137079 -0.0220342 0)
(-0.00364086 -0.020197 0)
(0.00579932 -0.0181476 0)
(0.014523 -0.0159299 0)
(0.0224519 -0.0135917 0)
(0.0295206 -0.0111836 0)
(0.0356782 -0.00875736 0)
(0.0408896 -0.00636374 0)
(0.0451365 -0.00405128 0)
(0.0484172 -0.00186546 0)
(0.0507472 0.000153627 0)
(0.0521605 0.00197321 0)
(0.0527074 0.00356821 0)
(0.0524532 0.00492142 0)
(0.0514767 0.00602427 0)
(0.0498679 0.00687686 0)
(0.0477245 0.0074875 0)
(0.0451481 0.00787168 0)
(0.042241 0.00805085 0)
(0.039102 0.00805081 0)
(0.0358235 0.00790007 0)
(0.0324883 0.00762816 0)
(0.0291683 0.00726419 0)
(0.0259226 0.00683558 0)
(0.0227979 0.0063671 0)
(0.0198284 0.00588015 0)
(0.0170375 0.00539207 0)
(0.0144388 0.00491561 0)
(0.0120387 0.00445819 0)
(0.00983872 0.00402128 0)
(0.00783841 0.0035998 0)
(0.00603809 0.00318217 0)
(0.00444171 0.00275137 0)
(0.00305882 0.00228806 0)
(0.00190538 0.00177671 0)
(0.000997612 0.00121631 0)
(0.000377314 0.000635874 0)
(3.89504e-05 0.000140058 0)
(6.14217e-05 -0.000519228 0)
(0.000555892 -0.00156411 0)
(0.00138572 -0.00251262 0)
(0.00251213 -0.00326796 0)
(0.00381937 -0.00378405 0)
(0.00522627 -0.00404625 0)
(0.00664794 -0.00406516 0)
(0.00800798 -0.00387005 0)
(0.00924253 -0.00350258 0)
(0.0103027 -0.00301081 0)
(0.0111549 -0.00244384 0)
(0.0117804 -0.00184712 0)
(0.0121732 -0.00125887 0)
(0.0123368 -0.000707482 0)
(0.0122812 -0.000210145 0)
(0.0120187 0.000227438 0)
(0.0115607 0.000610309 0)
(0.0109143 0.00095268 0)
(0.0100794 0.00127556 0)
(0.00904798 0.00160397 0)
(0.00780252 0.00196409 0)
(0.006317 0.00238049 0)
(0.00455783 0.00287411 0)
(0.0024857 0.00346091 0)
(5.7528e-05 0.0041516 0)
(-0.00277157 0.00495206 0)
(-0.0060465 0.0058642 0)
(-0.00981064 0.00688698 0)
(-0.0141044 0.00801713 0)
(-0.0189635 0.00924936 0)
(-0.0244179 0.0105763 0)
(-0.0304894 0.0119878 0)
(-0.03719 0.0134708 0)
(-0.04452 0.015008 0)
(-0.0524661 0.0165787 0)
(-0.0610007 0.018158 0)
(-0.0700801 0.0197175 0)
(-0.0796457 0.0212262 0)
(-0.0896239 0.0226512 0)
(-0.0999282 0.0239589 0)
(-0.110461 0.0251167 0)
(-0.121118 0.0260936 0)
(-0.131789 0.0268621 0)
(-0.142365 0.0273986 0)
(-0.152738 0.0276845 0)
(-0.162804 0.0277065 0)
(-0.172469 0.0274565 0)
(-0.181648 0.0269318 0)
(-0.190263 0.0261341 0)
(-0.19825 0.0250693 0)
(-0.205554 0.0237468 0)
(-0.212128 0.0221786 0)
(-0.217937 0.0203787 0)
(-0.222951 0.0183627 0)
(-0.227147 0.0161472 0)
(-0.230508 0.0137495 0)
(-0.233022 0.0111872 0)
(-0.23468 0.00847857 0)
(-0.235477 0.00564212 0)
(-0.235408 0.00269693 0)
(-0.234473 -0.000337111 0)
(-0.232673 -0.00343915 0)
(-0.23001 -0.00658748 0)
(-0.226488 -0.00975869 0)
(-0.222116 -0.0129271 0)
(-0.216904 -0.0160653 0)
(-0.210865 -0.0191436 0)
(-0.204017 -0.0221304 0)
(-0.196383 -0.0249915 0)
(-0.187993 -0.027691 0)
(-0.178882 -0.0301916 0)
(-0.169093 -0.0324549 0)
(-0.158679 -0.0344424 0)
(-0.147699 -0.0361169 0)
(-0.136224 -0.0374431 0)
(-0.124333 -0.0383895 0)
(-0.112114 -0.0389296 0)
(-0.0996632 -0.0390432 0)
(-0.087085 -0.038718 0)
(-0.0744887 -0.0379508 0)
(-0.0619875 -0.0367477 0)
(-0.0496963 -0.0351255 0)
(-0.0377293 -0.0331109 0)
(-0.0261976 -0.0307403 0)
(-0.0152067 -0.0280592 0)
(-0.00485458 -0.0251205 0)
(0.00477043 -0.0219831 0)
(0.0135911 -0.0187102 0)
(0.0215424 -0.015367 0)
(0.028573 -0.0120195 0)
(0.0346454 -0.00873214 0)
(0.0397365 -0.00556639 0)
(0.0438388 -0.00257819 0)
(0.0469606 0.000182731 0)
(0.0491261 0.00267413 0)
(0.0503753 0.00486309 0)
(0.0507638 0.00672692 0)
(0.0503619 0.00825375 0)
(0.0492522 0.00944271 0)
(0.0475281 0.0103036 0)
(0.0452894 0.010856 0)
(0.0426395 0.0111275 0)
(0.0396812 0.0111523 0)
(0.0365127 0.0109684 0)
(0.0332246 0.0106159 0)
(0.0298974 0.0101344 0)
(0.0265992 0.00956177 0)
(0.0233855 0.00893185 0)
(0.0202993 0.00827354 0)
(0.0173715 0.00760937 0)
(0.0146236 0.00695431 0)
(0.0120692 0.00631464 0)
(0.00971742 0.00568716 0)
(0.00757552 0.00505909 0)
(0.00565262 0.00440953 0)
(0.00396223 0.00371329 0)
(0.00252469 0.00294792 0)
(0.00136132 0.00210551 0)
(0.00053724 0.00120831 0)
(5.89246e-05 0.000350196 0)
(7.10942e-05 -0.000798827 0)
(0.000638637 -0.00228578 0)
(0.0015769 -0.0035698 0)
(0.00283168 -0.00456157 0)
(0.00426316 -0.00521675 0)
(0.00577697 -0.00552474 0)
(0.00727823 -0.00550434 0)
(0.00868411 -0.00519696 0)
(0.00992709 -0.0046592 0)
(0.0109566 -0.00395522 0)
(0.0117385 -0.00314977 0)
(0.0122541 -0.0023022 0)
(0.0124967 -0.0014618 0)
(0.0124687 -0.000664555 0)
(0.0121775 6.85656e-05 0)
(0.0116312 0.000731909 0)
(0.0108356 0.00133407 0)
(0.00979004 0.00189568 0)
(0.00848587 0.00244615 0)
(0.00690472 0.00301992 0)
(0.0050185 0.00365241 0)
(0.00279029 0.00437641 0)
(0.000176178 0.00521928 0)
(-0.00287252 0.00620128 0)
(-0.00640674 0.0073352 0)
(-0.0104773 0.0086269 0)
(-0.0151326 0.0100764 0)
(-0.0204167 0.011679 0)
(-0.0263669 0.013426 0)
(-0.0330119 0.0153046 0)
(-0.0403691 0.0172981 0)
(-0.0484424 0.0193846 0)
(-0.05722 0.0215373 0)
(-0.0666722 0.0237237 0)
(-0.0767512 0.025906 0)
(-0.0873902 0.0280424 0)
(-0.0985051 0.0300876 0)
(-0.109996 0.0319954 0)
(-0.121752 0.0337198 0)
(-0.133652 0.0352176 0)
(-0.145573 0.0364501 0)
(-0.157393 0.0373844 0)
(-0.168994 0.0379948 0)
(-0.180267 0.0382632 0)
(-0.191114 0.0381793 0)
(-0.201449 0.03774 0)
(-0.211201 0.0369488 0)
(-0.22031 0.0358148 0)
(-0.228729 0.0343513 0)
(-0.236423 0.0325752 0)
(-0.243364 0.0305055 0)
(-0.249533 0.0281625 0)
(-0.254918 0.0255673 0)
(-0.259508 0.0227411 0)
(-0.263299 0.0197048 0)
(-0.266286 0.016479 0)
(-0.268468 0.0130837 0)
(-0.269843 0.00953885 0)
(-0.270408 0.00586406 0)
(-0.270163 0.00207928 0)
(-0.269105 -0.00179497 0)
(-0.267232 -0.00573712 0)
(-0.264542 -0.00972414 0)
(-0.261034 -0.0137312 0)
(-0.256706 -0.017731 0)
(-0.25156 -0.0216936 0)
(-0.245599 -0.0255861 0)
(-0.23883 -0.0293725 0)
(-0.231264 -0.0330136 0)
(-0.222917 -0.0364674 0)
(-0.213811 -0.0396894 0)
(-0.203976 -0.0426332 0)
(-0.193452 -0.0452514 0)
(-0.182286 -0.0474972 0)
(-0.170536 -0.0493255 0)
(-0.158272 -0.0506945 0)
(-0.145574 -0.0515682 0)
(-0.132531 -0.0519176 0)
(-0.119246 -0.0517226 0)
(-0.105824 -0.050974 0)
(-0.0923824 -0.0496742 0)
(-0.0790381 -0.0478385 0)
(-0.0659111 -0.0454948 0)
(-0.0531196 -0.0426833 0)
(-0.0407771 -0.0394556 0)
(-0.0289901 -0.0358729 0)
(-0.0178559 -0.0320042 0)
(-0.00746071 -0.0279241 0)
(0.0021214 -0.0237103 0)
(0.010829 -0.0194418 0)
(0.0186136 -0.0151964 0)
(0.0254396 -0.011049 0)
(0.0312847 -0.00707016 0)
(0.0361392 -0.00332415 0)
(0.0400073 0.000131964 0)
(0.0429067 0.0032501 0)
(0.0448694 0.00599241 0)
(0.0459418 0.00833251 0)
(0.0461847 0.0102563 0)
(0.045672 0.0117626 0)
(0.0444894 0.0128629 0)
(0.0427314 0.0135802 0)
(0.040498 0.013948 0)
(0.0378912 0.0140076 0)
(0.0350105 0.0138058 0)
(0.0319499 0.013392 0)
(0.0287945 0.0128153 0)
(0.0256183 0.0121223 0)
(0.0224833 0.0113544 0)
(0.0194392 0.0105457 0)
(0.0165244 0.00972104 0)
(0.0137675 0.00889418 0)
(0.0111903 0.00806631 0)
(0.00881019 0.00722586 0)
(0.00664443 0.00634978 0)
(0.00471342 0.00540747 0)
(0.0030448 0.00436805 0)
(0.00166794 0.00321176 0)
(0.000671676 0.00194456 0)
(7.55651e-05 0.000632925 0)
(7.85804e-05 -0.0011133 0)
(0.000702784 -0.00308957 0)
(0.00172376 -0.00473297 0)
(0.00307201 -0.00596341 0)
(0.00458491 -0.0067429 0)
(0.00615439 -0.00706963 0)
(0.00767558 -0.00697484 0)
(0.00905982 -0.00651565 0)
(0.0102371 -0.0057662 0)
(0.0111568 -0.00480841 0)
(0.0117858 -0.0037234 0)
(0.0121063 -0.00258424 0)
(0.012112 -0.00145039 0)
(0.0118042 -0.000363983 0)
(0.0111869 0.000652048 0)
(0.0102628 0.00159407 0)
(0.00902967 0.00247617 0)
(0.00747734 0.00332711 0)
(0.00558569 0.00418605 0)
(0.00332416 0.00509754 0)
(0.000652392 0.00610632 0)
(-0.00247798 0.00725273 0)
(-0.00612074 0.00856924 0)
(-0.010332 0.0100785 0)
(-0.0151674 0.0117929 0)
(-0.0206787 0.0137155 0)
(-0.0269115 0.0158409 0)
(-0.0339021 0.0181567 0)
(-0.0416752 0.0206437 0)
(-0.0502404 0.0232765 0)
(-0.0595899 0.0260227 0)
(-0.0696961 0.0288427 0)
(-0.0805101 0.0316901 0)
(-0.0919609 0.034512 0)
(-0.103957 0.0372509 0)
(-0.116389 0.0398468 0)
(-0.129133 0.0422393 0)
(-0.142056 0.0443711 0)
(-0.155021 0.0461904 0)
(-0.167894 0.0476529 0)
(-0.180549 0.048724 0)
(-0.192869 0.0493791 0)
(-0.204754 0.0496042 0)
(-0.216118 0.0493949 0)
(-0.226893 0.0487556 0)
(-0.237024 0.047698 0)
(-0.246473 0.0462392 0)
(-0.25521 0.0444005 0)
(-0.263218 0.0422058 0)
(-0.270487 0.0396804 0)
(-0.27701 0.0368497 0)
(-0.282786 0.0337391 0)
(-0.287816 0.0303727 0)
(-0.292101 0.0267738 0)
(-0.295643 0.0229641 0)
(-0.298442 0.0189645 0)
(-0.3005 0.0147947 0)
(-0.301814 0.0104737 0)
(-0.302381 0.00602026 0)
(-0.302198 0.00145346 0)
(-0.301259 -0.00320705 0)
(-0.299558 -0.00794039 0)
(-0.297086 -0.0127238 0)
(-0.293835 -0.0175321 0)
(-0.289798 -0.0223374 0)
(-0.284967 -0.0271082 0)
(-0.279334 -0.0318094 0)
(-0.272897 -0.0364017 0)
(-0.265652 -0.0408418 0)
(-0.257604 -0.0450821 0)
(-0.24876 -0.0490715 0)
(-0.239137 -0.0527556 0)
(-0.228757 -0.056078 0)
(-0.217653 -0.0589817 0)
(-0.205871 -0.0614104 0)
(-0.193466 -0.0633109 0)
(-0.180507 -0.0646351 0)
(-0.167077 -0.0653426 0)
(-0.153269 -0.065403 0)
(-0.13919 -0.0647979 0)
(-0.124957 -0.0635233 0)
(-0.110693 -0.0615901 0)
(-0.0965253 -0.0590252 0)
(-0.0825834 -0.0558712 0)
(-0.0689933 -0.0521849 0)
(-0.0558747 -0.0480357 0)
(-0.0433376 -0.0435032 0)
(-0.0314804 -0.038674 0)
(-0.0203877 -0.0336389 0)
(-0.0101298 -0.02849 0)
(-0.000762786 -0.0233184 0)
(0.00767089 -0.0182118 0)
(0.0151415 -0.0132528 0)
(0.021631 -0.00851806 0)
(0.0271326 -0.00407657 0)
(0.0316504 1.09705e-05 0)
(0.0352 0.00369358 0)
(0.0378085 0.00693122 0)
(0.0395159 0.00969607 0)
(0.0403753 0.0119737 0)
(0.0404526 0.0137636 0)
(0.0398256 0.0150794 0)
(0.0385821 0.0159482 0)
(0.0368168 0.0164085 0)
(0.0346281 0.0165081 0)
(0.032114 0.0163014 0)
(0.0293686 0.0158456 0)
(0.0264787 0.0151974 0)
(0.0235215 0.0144099 0)
(0.0205633 0.0135292 0)
(0.017659 0.0125909 0)
(0.0148531 0.0116181 0)
(0.0121815 0.0106186 0)
(0.00967413 0.00958409 0)
(0.0073589 0.00849101 0)
(0.00526581 0.00730398 0)
(0.00343222 0.0059824 0)
(0.0018976 0.00449078 0)
(0.000772205 0.00281174 0)
(8.79056e-05 0.000973278 0)
(8.47391e-05 -0.00145541 0)
(0.000753746 -0.00395651 0)
(0.00183572 -0.00597348 0)
(0.00324565 -0.00743612 0)
(0.00479919 -0.0083165 0)
(0.00637463 -0.00862633 0)
(0.00785759 -0.00841399 0)
(0.00915451 -0.00775632 0)
(0.0101942 -0.006748 0)
(0.0109272 -0.00549048 0)
(0.0113227 -0.00408176 0)
(0.011365 -0.00260803 0)
(0.0110485 -0.00113744 0)
(0.0103726 0.000283905 0)
(0.00933729 0.00163361 0)
(0.00793815 0.00291262 0)
(0.00616318 0.00414286 0)
(0.00399024 0.00536305 0)
(0.00138603 0.00662315 0)
(-0.00169349 0.00797796 0)
(-0.00530119 0.00948066 0)
(-0.00949589 0.0111773 0)
(-0.0143387 0.0131026 0)
(-0.019889 0.0152783 0)
(-0.0262012 0.0177123 0)
(-0.0333205 0.0204001 0)
(-0.0412803 0.0233258 0)
(-0.0500982 0.0264634 0)
(-0.0597736 0.0297771 0)
(-0.0702841 0.0332219 0)
(-0.0815837 0.0367437 0)
(-0.0936018 0.0402798 0)
(-0.106244 0.0437605 0)
(-0.119394 0.0471119 0)
(-0.132918 0.0502584 0)
(-0.146673 0.053127 0)
(-0.160509 0.0556505 0)
(-0.174281 0.0577708 0)
(-0.18785 0.0594416 0)
(-0.201094 0.0606294 0)
(-0.213905 0.061314 0)
(-0.226196 0.0614879 0)
(-0.237898 0.0611547 0)
(-0.248961 0.0603274 0)
(-0.25935 0.0590261 0)
(-0.269041 0.057276 0)
(-0.278023 0.0551055 0)
(-0.286292 0.0525445 0)
(-0.293848 0.0496232 0)
(-0.300695 0.0463711 0)
(-0.30684 0.0428164 0)
(-0.312288 0.0389854 0)
(-0.317046 0.0349027 0)
(-0.321119 0.0305908 0)
(-0.324511 0.0260705 0)
(-0.327224 0.021361 0)
(-0.329258 0.0164806 0)
(-0.330611 0.0114464 0)
(-0.331282 0.00627562 0)
(-0.331264 0.000985415 0)
(-0.330549 -0.00440607 0)
(-0.32913 -0.00987935 0)
(-0.326995 -0.0154129 0)
(-0.324131 -0.0209824 0)
(-0.320525 -0.0265602 0)
(-0.316163 -0.0321147 0)
(-0.311029 -0.03761 0)
(-0.305109 -0.043005 0)
(-0.29839 -0.0482533 0)
(-0.290862 -0.0533036 0)
(-0.282516 -0.058099 0)
(-0.273352 -0.0625783 0)
(-0.263375 -0.0666764 0)
(-0.252599 -0.070326 0)
(-0.24105 -0.073459 0)
(-0.228767 -0.0760092 0)
(-0.215801 -0.0779145 0)
(-0.20222 -0.07912 0)
(-0.188108 -0.0795812 0)
(-0.173565 -0.0792669 0)
(-0.158705 -0.0781618 0)
(-0.143656 -0.0762686 0)
(-0.128554 -0.0736093 0)
(-0.113542 -0.0702257 0)
(-0.0987622 -0.0661779 0)
(-0.0843542 -0.0615429 0)
(-0.0704487 -0.0564111 0)
(-0.057164 -0.0508827 0)
(-0.0446024 -0.045064 0)
(-0.0328488 -0.039063 0)
(-0.0219705 -0.0329862 0)
(-0.0120173 -0.0269357 0)
(-0.00302376 -0.0210071 0)
(0.00498895 -0.0152882 0)
(0.012011 -0.00985863 0)
(0.0180423 -0.00478878 0)
(0.0230913 -0.000139666 0)
(0.0271754 0.00403805 0)
(0.0303213 0.00770504 0)
(0.0325657 0.0108346 0)
(0.033957 0.0134139 0)
(0.034555 0.0154449 0)
(0.0344309 0.0169443 0)
(0.0336663 0.0179433 0)
(0.0323501 0.0184856 0)
(0.0305763 0.0186249 0)
(0.0284395 0.0184218 0)
(0.0260321 0.0179394 0)
(0.0234406 0.0172397 0)
(0.0207435 0.016379 0)
(0.0180094 0.0154037 0)
(0.0152975 0.0143466 0)
(0.0126578 0.0132232 0)
(0.0101337 0.01203 0)
(0.00776535 0.0107444 0)
(0.00559418 0.00932656 0)
(0.0036688 0.00772572 0)
(0.00203966 0.00588835 0)
(0.000834466 0.00376966 0)
(9.54687e-05 0.00135339 0)
(9.00773e-05 -0.00182031 0)
(0.000794725 -0.00487132 0)
(0.00191822 -0.00726559 0)
(0.00335925 -0.00894393 0)
(0.00491267 -0.00989223 0)
(0.00644374 -0.0101406 0)
(0.0078297 -0.00975962 0)
(0.00897348 -0.00885015 0)
(0.00980424 -0.00753056 0)
(0.0102751 -0.00592345 0)
(0.0103586 -0.00414391 0)
(0.0100416 -0.0022901 0)
(0.00931871 -0.000436671 0)
(0.00818727 0.00136907 0)
(0.00664137 0.00310838 0)
(0.00466777 0.00478974 0)
(0.00224276 0.00644536 0)
(-0.00066935 0.00812551 0)
(-0.00411605 0.00989137 0)
(-0.00815467 0.0118071 0)
(-0.012849 0.013932 0)
(-0.0182651 0.0163143 0)
(-0.0244662 0.0189868 0)
(-0.0315081 0.0219647 0)
(-0.0394352 0.0252458 0)
(-0.0482759 0.0288119 0)
(-0.0580395 0.0326296 0)
(-0.0687125 0.0366523 0)
(-0.0802562 0.0408209 0)
(-0.0926046 0.0450649 0)
(-0.105665 0.0493041 0)
(-0.119319 0.053451 0)
(-0.133427 0.0574148 0)
(-0.147837 0.0611053 0)
(-0.162388 0.0644378 0)
(-0.17692 0.0673377 0)
(-0.191285 0.0697435 0)
(-0.205347 0.0716092 0)
(-0.218991 0.0729053 0)
(-0.232122 0.0736181 0)
(-0.244669 0.0737479 0)
(-0.25658 0.073307 0)
(-0.26782 0.0723169 0)
(-0.278369 0.0708057 0)
(-0.288218 0.0688056 0)
(-0.297366 0.0663509 0)
(-0.305819 0.0634767 0)
(-0.313585 0.0602169 0)
(-0.320673 0.0566043 0)
(-0.327095 0.0526695 0)
(-0.332862 0.0484406 0)
(-0.337983 0.0439435 0)
(-0.342468 0.0392015 0)
(-0.346324 0.0342358 0)
(-0.349557 0.0290657 0)
(-0.352173 0.0237087 0)
(-0.354174 0.0181809 0)
(-0.355562 0.0124977 0)
(-0.356334 0.00667418 0)
(-0.356487 0.000725359 0)
(-0.356015 -0.00533282 0)
(-0.35491 -0.0114831 0)
(-0.35316 -0.0177061 0)
(-0.350751 -0.0239796 0)
(-0.347666 -0.0302779 0)
(-0.343886 -0.0365709 0)
(-0.339388 -0.0428234 0)
(-0.334151 -0.0489948 0)
(-0.328149 -0.055038 0)
(-0.321357 -0.0608995 0)
(-0.313754 -0.0665192 0)
(-0.305318 -0.0718307 0)
(-0.296035 -0.0767617 0)
(-0.285897 -0.0812355 0)
(-0.274904 -0.0851727 0)
(-0.263072 -0.0884932 0)
(-0.250428 -0.0911193 0)
(-0.237017 -0.0929791 0)
(-0.222906 -0.09401 0)
(-0.208178 -0.0941629 0)
(-0.19294 -0.0934057 0)
(-0.177314 -0.0917267 0)
(-0.161442 -0.0891371 0)
(-0.145479 -0.0856718 0)
(-0.129586 -0.08139 0)
(-0.113925 -0.0763728 0)
(-0.0986572 -0.0707205 0)
(-0.0839287 -0.0645477 0)
(-0.0698713 -0.0579786 0)
(-0.0565961 -0.051141 0)
(-0.0441913 -0.0441616 0)
(-0.0327226 -0.0371615 0)
(-0.0222339 -0.0302531 0)
(-0.0127508 -0.0235385 0)
(-0.00428371 -0.0171085 0)
(0.0031687 -0.0110426 0)
(0.00961643 -0.00540977 0)
(0.0150764 -0.000268019 0)
(0.0195718 0.00433531 0)
(0.0231325 0.00836448 0)
(0.0257959 0.0117965 0)
(0.0276086 0.0146222 0)
(0.0286272 0.0168477 0)
(0.0289184 0.0184941 0)
(0.0285587 0.0195973 0)
(0.0276321 0.0202062 0)
(0.0262279 0.0203796 0)
(0.0244372 0.0201827 0)
(0.0223494 0.0196826 0)
(0.02005 0.0189429 0)
(0.0176173 0.0180189 0)
(0.015122 0.0169522 0)
(0.012627 0.0157661 0)
(0.0101885 0.0144625 0)
(0.0078594 0.0130202 0)
(0.00569317 0.0113959 0)
(0.00375009 0.00952843 0)
(0.00209151 0.00734588 0)
(0.000857506 0.00477497 0)
(9.81784e-05 0.00175418 0)
(9.47629e-05 -0.00220429 0)
(0.000826613 -0.00582024 0)
(0.00197217 -0.0085843 0)
(0.00341283 -0.0104507 0)
(0.00492355 -0.0114236 0)
(0.00635779 -0.0115569 0)
(0.00758614 -0.0109486 0)
(0.00850998 -0.00972823 0)
(0.00906059 -0.00804069 0)
(0.00919505 -0.00603105 0)
(0.00888998 -0.00383104 0)
(0.00813458 -0.001549 0)
(0.00692343 0.000736771 0)
(0.00524993 0.00298118 0)
(0.00310077 0.00517258 0)
(0.00045193 0.0073301 0)
(-0.00273354 0.00949836 0)
(-0.00650567 0.0117401 0)
(-0.0109256 0.0141268 0)
(-0.016062 0.0167297 0)
(-0.0219854 0.0196101 0)
(-0.028763 0.0228131 0)
(-0.0364524 0.026363 0)
(-0.0450962 0.0302618 0)
(-0.0547176 0.0344898 0)
(-0.0653162 0.0390073 0)
(-0.076865 0.0437563 0)
(-0.0893075 0.0486629 0)
(-0.102557 0.0536392 0)
(-0.1165 0.0585869 0)
(-0.130995 0.0634002 0)
(-0.145882 0.0679717 0)
(-0.160993 0.0721977 0)
(-0.176154 0.0759837 0)
(-0.191202 0.0792495 0)
(-0.205987 0.0819323 0)
(-0.220381 0.0839889 0)
(-0.234279 0.0853951 0)
(-0.247599 0.0861447 0)
(-0.260284 0.0862463 0)
(-0.272297 0.0857204 0)
(-0.283614 0.0845964 0)
(-0.294228 0.0829093 0)
(-0.304138 0.0806974 0)
(-0.313352 0.078 0)
(-0.321879 0.0748563 0)
(-0.329734 0.0713038 0)
(-0.33693 0.0673784 0)
(-0.343484 0.063113 0)
(-0.349409 0.0585381 0)
(-0.354721 0.0536815 0)
(-0.359434 0.048568 0)
(-0.363562 0.04322 0)
(-0.367116 0.0376574 0)
(-0.370109 0.031898 0)
(-0.372548 0.0259576 0)
(-0.374443 0.0198505 0)
(-0.375799 0.01359 0)
(-0.376619 0.00718855 0)