/*--------------------------------*- C++ -*----------------------------------*\
| =========                 |                                                 |
| \\      /  F ield         | OpenFOAM: The Open Source CFD Toolbox           |
|  \\    /   O peration     | Version:  2406                                  |
|   \\  /    A nd           | Website:  www.openfoam.com                      |
|    \\/     M anipulation  |                                                 |
\*---------------------------------------------------------------------------*/
FoamFile
{
    version     2.0;
    format      ascii;
    arch        "LSB;label=32;scalar=64";
    class       volVectorField;
    location    "12.45";
    object      U;
}
// * * * * * * * * * * * * * * * * * * * * * * * * * * * * * * * * * * * * * //

dimensions      [0 1 -1 0 0 0 0];

internalField   nonuniform List<vector> 
3600
(
(2.06274e-05 -1.88124e-05 0)
(1.17413e-05 7.66089e-07 0)
(-5.43055e-05 2.20657e-05 0)
(-0.000185222 4.18083e-05 0)
(-0.00035988 5.10986e-05 0)
(-0.000559502 5.73025e-05 0)
(-0.00077731 5.87533e-05 0)
(-0.00100037 6.06663e-05 0)
(-0.00123418 6.15747e-05 0)
(-0.00147125 6.4108e-05 0)
(-0.00172063 6.66137e-05 0)
(-0.0019764 7.03781e-05 0)
(-0.00224639 7.39685e-05 0)
(-0.00252457 7.81107e-05 0)
(-0.00281618 8.1708e-05 0)
(-0.00311475 8.52159e-05 0)
(-0.00342284 8.78035e-05 0)
(-0.00373346 8.97494e-05 0)
(-0.00404675 9.03999e-05 0)
(-0.00435515 8.99014e-05 0)
(-0.00465661 8.77189e-05 0)
(-0.00494296 8.39036e-05 0)
(-0.00521028 7.80142e-05 0)
(-0.00544986 7.00538e-05 0)
(-0.00565634 5.9688e-05 0)
(-0.00582074 4.69458e-05 0)
(-0.00593703 3.16608e-05 0)
(-0.00599668 1.39957e-05 0)
(-0.0059942 -5.94908e-06 0)
(-0.00592282 -2.77572e-05 0)
(-0.0057793 -5.09699e-05 0)
(-0.00556034 -7.48467e-05 0)
(-0.00526694 -9.85615e-05 0)
(-0.00490093 -0.000121107 0)
(-0.00446902 -0.000141435 0)
(-0.00397899 -0.000158504 0)
(-0.00344345 -0.000171344 0)
(-0.00287524 -0.000179237 0)
(-0.0022913 -0.00018165 0)
(-0.00170681 -0.000178506 0)
(-0.00113977 -0.000169924 0)
(-0.000603888 -0.000156573 0)
(-0.000114615 -0.000139144 0)
(0.000319389 -0.000118845 0)
(0.000687737 -9.65889e-05 0)
(0.000988668 -7.37296e-05 0)
(0.00121721 -5.09558e-05 0)
(0.00137821 -2.94173e-05 0)
(0.00147038 -9.26573e-06 0)
(0.00150343 8.66969e-06 0)
(0.00147709 2.48525e-05 0)
(0.00140398 3.85982e-05 0)
(0.00128273 5.08489e-05 0)
(0.00112829 6.05777e-05 0)
(0.000938115 6.8889e-05 0)
(0.000731297 7.33914e-05 0)
(0.000508156 7.4622e-05 0)
(0.000297669 6.61569e-05 0)
(0.000115328 4.69555e-05 0)
(7.00435e-06 7.99637e-06 0)
(2.52915e-06 -1.31431e-05 0)
(-0.000109032 0.000106677 0)
(-0.000356695 0.000224571 0)
(-0.000731842 0.000332581 0)
(-0.00120706 0.000397601 0)
(-0.00174328 0.000443596 0)
(-0.00232708 0.000466338 0)
(-0.00293166 0.000485379 0)
(-0.00356211 0.000498351 0)
(-0.00420398 0.000515187 0)
(-0.00486929 0.000531669 0)
(-0.005548 0.000551816 0)
(-0.00625062 0.00057111 0)
(-0.006967 0.000591007 0)
(-0.00770304 0.000607648 0)
(-0.00844703 0.000621436 0)
(-0.00919982 0.000629263 0)
(-0.00994789 0.000631031 0)
(-0.0106875 0.000624238 0)
(-0.0114035 0.000608535 0)
(-0.0120884 0.000581915 0)
(-0.0127256 0.000543966 0)
(-0.0133048 0.000493163 0)
(-0.0138087 0.000429243 0)
(-0.0142252 0.000351295 0)
(-0.0145374 0.000259537 0)
(-0.0147331 0.000153994 0)
(-0.0147972 3.58355e-05 0)
(-0.0147198 -9.354e-05 0)
(-0.0144902 -0.000231541 0)
(-0.0141039 -0.000375058 0)
(-0.0135575 -0.000519896 0)
(-0.012855 -0.000661349 0)
(-0.0120029 -0.000794052 0)
(-0.0110159 -0.000912522 0)
(-0.00991162 -0.0010114 0)
(-0.0087152 -0.0010859 0)
(-0.00745323 -0.00113234 0)
(-0.00615848 -0.00114823 0)
(-0.00486173 -0.00113299 0)
(-0.00359759 -0.00108744 0)
(-0.00239441 -0.00101454 0)
(-0.00128219 -0.00091811 0)
(-0.000280596 -0.000803721 0)
(0.000589664 -0.000676617 0)
(0.00132122 -0.000543149 0)
(0.00190379 -0.000407939 0)
(0.0023422 -0.000276342 0)
(0.00263413 -0.000150841 0)
(0.00279373 -3.50584e-05 0)
(0.00282237 7.09928e-05 0)
(0.00274038 0.000164698 0)
(0.00254941 0.000247594 0)
(0.00227542 0.000315842 0)
(0.00192075 0.000370711 0)
(0.00152101 0.000403339 0)
(0.00108493 0.00041236 0)
(0.00066658 0.000376932 0)
(0.000292184 0.00029049 0)
(4.53305e-05 0.000114486 0)
(-2.46111e-05 6.06338e-05 0)
(-0.000264472 0.00036907 0)
(-0.000724095 0.000656023 0)
(-0.00135291 0.000907124 0)
(-0.00212312 0.00106985 0)
(-0.0029744 0.00118382 0)
(-0.00389353 0.00124712 0)
(-0.00484198 0.00129554 0)
(-0.00582576 0.00132954 0)
(-0.00682397 0.00136727 0)
(-0.00784963 0.00140347 0)
(-0.00888844 0.00144445 0)
(-0.00995101 0.00148275 0)
(-0.0110233 0.00151952 0)
(-0.0121098 0.00154778 0)
(-0.0131946 0.00156678 0)
(-0.014276 0.00157069 0)
(-0.0153355 0.00155816 0)
(-0.0163661 0.00152453 0)
(-0.0173477 0.00146838 0)
(-0.018269 0.00138616 0)
(-0.019109 0.00127676 0)
(-0.019854 0.00113773 0)
(-0.020483 0.000968621 0)
(-0.0209811 0.000768385 0)
(-0.0213286 0.000537826 0)
(-0.0215114 0.000277891 0)
(-0.0215128 -8.4567e-06 0)
(-0.0213221 -0.000317405 0)
(-0.0209282 -0.000642954 0)
(-0.0203274 -0.000977823 0)
(-0.0195174 -0.00131272 0)
(-0.018505 -0.00163723 0)
(-0.0173 -0.00193975 0)
(-0.0159219 -0.00220852 0)
(-0.0143937 -0.00243208 0)
(-0.0127477 -0.0026003 0)
(-0.0110181 -0.00270528 0)
(-0.00924643 -0.00274184 0)
(-0.00747235 -0.00270853 0)
(-0.00573986 -0.00260721 0)
(-0.00408609 -0.00244385 0)
(-0.00254952 -0.00222682 0)
(-0.0011568 -0.00196771 0)
(6.51991e-05 -0.00167827 0)
(0.00110509 -0.00137184 0)
(0.00194939 -0.0010593 0)
(0.00260206 -0.000751899 0)
(0.00306016 -0.000456365 0)
(0.00333955 -0.000180128 0)
(0.00344256 7.48801e-05 0)
(0.00339314 0.000303631 0)
(0.00319487 0.000506643 0)
(0.00287943 0.000676666 0)
(0.00245212 0.000812238 0)
(0.001958 0.000897021 0)
(0.00140984 0.000922817 0)
(0.000877377 0.00085483 0)
(0.000391054 0.000671463 0)
(6.59776e-05 0.000300511 0)
(-5.59917e-05 0.000227221 0)
(-0.00044227 0.000816877 0)
(-0.00113258 0.00132526 0)
(-0.00202162 0.00174677 0)
(-0.00308199 0.0020259 0)
(-0.0042312 0.00221953 0)
(-0.00546119 0.00233231 0)
(-0.00672252 0.00241554 0)
(-0.00802454 0.00247383 0)
(-0.00933923 0.00253296 0)
(-0.0106807 0.00258709 0)
(-0.0120292 0.00264446 0)
(-0.0133948 0.00269474 0)
(-0.0147586 0.00273845 0)
(-0.0161236 0.00276539 0)
(-0.0174693 0.00277346 0)
(-0.018792 0.00275409 0)
(-0.0200693 0.00270469 0)
(-0.0212921 0.00261867 0)
(-0.0224375 0.00249387 0)
(-0.0234931 0.00232562 0)
(-0.0244362 0.00211261 0)
(-0.025253 0.00185203 0)
(-0.0259219 0.00154372 0)
(-0.0264289 0.00118694 0)
(-0.0267543 0.00078343 0)
(-0.0268849 0.000335353 0)
(-0.0268043 -0.000152326 0)
(-0.0265022 -0.000673215 0)
(-0.0259676 -0.00121775 0)
(-0.0251969 -0.00177429 0)
(-0.024188 -0.00232821 0)
(-0.0229477 -0.00286305 0)
(-0.0214866 -0.00336053 0)
(-0.0198255 -0.00380198 0)
(-0.0179898 -0.00416918 0)
(-0.0160151 -0.00444587 0)
(-0.0139403 -0.00461916 0)
(-0.011813 -0.00468048 0)
(-0.00967959 -0.00462708 0)
(-0.00759181 -0.00446161 0)
(-0.00559431 -0.00419329 0)
(-0.00373302 -0.00383553 0)
(-0.00204068 -0.00340682 0)
(-0.000549358 -0.00292647 0)
(0.000726472 -0.00241603 0)
(0.00177126 -0.00189372 0)
(0.00258909 -0.00137778 0)
(0.00317741 -0.000879953 0)
(0.00355439 -0.000412111 0)
(0.00372382 2.14097e-05 0)
(0.00371306 0.000412844 0)
(0.00352713 0.000761182 0)
(0.00320209 0.00105551 0)
(0.00274434 0.00129073 0)
(0.0022051 0.00144312 0)
(0.00159776 0.00149609 0)
(0.00100188 0.00140112 0)
(0.000449385 0.00111433 0)
(7.70131e-05 0.000521182 0)
(-8.36617e-05 0.000483281 0)
(-0.000612181 0.00145725 0)
(-0.0015311 0.00224753 0)
(-0.0026766 0.00287032 0)
(-0.00401923 0.0032841 0)
(-0.00545167 0.00356619 0)
(-0.00697214 0.003734 0)
(-0.00851991 0.00385382 0)
(-0.0101093 0.00393642 0)
(-0.0117049 0.00401413 0)
(-0.0133228 0.00408124 0)
(-0.014937 0.00414702 0)
(-0.0165575 0.00419859 0)
(-0.01816 0.00423532 0)
(-0.0197466 0.00424399 0)
(-0.0212923 0.00422103 0)
(-0.0227922 0.00415552 0)
(-0.0242213 0.0040439 0)
(-0.0255705 0.0038783 0)
(-0.0268158 0.00365639 0)
(-0.0279465 0.00337316 0)
(-0.028941 0.00302766 0)
(-0.0297881 0.00261725 0)
(-0.0304686 0.00214232 0)
(-0.0309713 0.00160248 0)
(-0.0312784 0.00100019 0)
(-0.0313783 0.000338455 0)
(-0.0312546 -0.00037633 0)
(-0.0308964 -0.00113573 0)
(-0.0302907 -0.00192716 0)
(-0.0294307 -0.00273493 0)
(-0.0283106 -0.00353915 0)
(-0.026933 -0.00431698 0)
(-0.0253046 -0.00504273 0)
(-0.0234434 -0.00568962 0)
(-0.0213733 -0.00623108 0)
(-0.0191308 -0.00664284 0)
(-0.0167581 -0.00690506 0)
(-0.0143087 -0.00700397 0)
(-0.0118376 -0.00693408 0)
(-0.0094067 -0.00669815 0)
(-0.00707167 -0.00630862 0)
(-0.00488945 -0.00578492 0)
(-0.0029021 -0.00515398 0)
(-0.0011492 -0.00444487 0)
(0.000350527 -0.00368961 0)
(0.00157952 -0.00291608 0)
(0.00254312 -0.00215121 0)
(0.00324106 -0.00141326 0)
(0.00369607 -0.000719129 0)
(0.00391558 -7.60791e-05 0)
(0.0039322 0.000505654 0)
(0.0037535 0.00102332 0)
(0.0034203 0.00146282 0)
(0.00293974 0.00181473 0)
(0.00236802 0.00204808 0)
(0.00171837 0.00213599 0)
(0.0010782 0.00201517 0)
(0.00048167 0.00161461 0)
(8.11753e-05 0.000771023 0)
(-0.000110593 0.000827119 0)
(-0.000778324 0.00228479 0)
(-0.00191783 0.00340853 0)
(-0.00330846 0.00425309 0)
(-0.00491725 0.00480854 0)
(-0.00661241 0.00517857 0)
(-0.00839878 0.00539918 0)
(-0.0102047 0.00555139 0)
(-0.0120501 0.00565314 0)
(-0.0138922 0.00574189 0)
(-0.0157494 0.00581218 0)
(-0.0175892 0.00587346 0)
(-0.0194218 0.00591054 0)
(-0.0212176 0.00592146 0)
(-0.022978 0.00589055 0)
(-0.0246747 0.00581312 0)
(-0.0263028 0.00567686 0)
(-0.0278363 0.00547813 0)
(-0.0292682 0.00520903 0)
(-0.0305767 0.00486813 0)
(-0.0317552 0.00445122 0)
(-0.0327868 0.00395847 0)
(-0.0336659 0.00338782 0)
(-0.0343785 0.0027401 0)
(-0.0349178 0.00201471 0)
(-0.035269 0.00121372 0)
(-0.0354217 0.000339455 0)
(-0.0353584 -0.000602018 0)
(-0.0350645 -0.00160212 0)
(-0.0345204 -0.00264705 0)
(-0.0337112 -0.00371864 0)
(-0.0326203 -0.00479278 0)
(-0.0312395 -0.00584066 0)
(-0.0295641 -0.00682868 0)
(-0.0276024 -0.00772057 0)
(-0.025371 -0.00847902 0)
(-0.0229033 -0.00906864 0)
(-0.0202429 -0.00945898 0)
(-0.0174504 -0.00962743 0)
(-0.0145924 -0.00956251 0)
(-0.0117474 -0.00926482 0)
(-0.00898955 -0.00874912 0)
(-0.00639549 -0.00804144 0)
(-0.00402485 -0.00717929 0)
(-0.00193171 -0.00620461 0)
(-0.000143804 -0.00516364 0)
(0.00131696 -0.00409751 0)
(0.00245736 -0.0030449 0)
(0.00328147 -0.00203264 0)
(0.00381999 -0.00108372 0)
(0.00408783 -0.000208427 0)
(0.00412659 0.00058119 0)
(0.00394958 0.00128159 0)
(0.0036045 0.0018767 0)
(0.00310068 0.0023536 0)
(0.00249935 0.00267466 0)
(0.00181375 0.00280233 0)
(0.00113736 0.00265681 0)
(0.000506492 0.00213723 0)
(8.41312e-05 0.0010278 0)
(-0.000134061 0.00125206 0)
(-0.000929351 0.00328992 0)
(-0.00227245 0.00479938 0)
(-0.0038898 0.00588851 0)
(-0.00574405 0.00659399 0)
(-0.00767948 0.00705183 0)
(-0.00970696 0.00732239 0)
(-0.0117439 0.00750165 0)
(-0.013816 0.00761607 0)
(-0.0158729 0.007707 0)
(-0.0179359 0.00776951 0)
(-0.0199662 0.00781244 0)
(-0.0219747 0.00781872 0)
(-0.023927 0.00778492 0)
(-0.0258251 0.00769384 0)
(-0.0276381 0.00754031 0)
(-0.0293636 0.00731202 0)
(-0.0309767 0.00700658 0)
(-0.0324756 0.00661774 0)
(-0.0338441 0.00614641 0)
(-0.0350843 0.00559044 0)
(-0.0361875 0.00495169 0)
(-0.0371577 0.0042287 0)
(-0.0379884 0.00342178 0)
(-0.0386799 0.00252848 0)
(-0.0392203 0.001548 0)
(-0.0395995 0.00047911 0)
(-0.0397953 -0.000675806 0)
(-0.0397846 -0.00191139 0)
(-0.0395344 -0.00321585 0)
(-0.0390123 -0.00457121 0)
(-0.0381813 -0.00595097 0)
(-0.0370106 -0.00732092 0)
(-0.0354727 -0.00863867 0)
(-0.033555 -0.00985583 0)
(-0.0312572 -0.01092 0)
(-0.0286024 -0.0117788 0)
(-0.0256321 -0.0123842 0)
(-0.0224142 -0.0126975 0)
(-0.0190324 -0.0126943 0)
(-0.0155909 -0.0123679 0)
(-0.0121962 -0.0117325 0)
(-0.00896008 -0.0108209 0)
(-0.00597625 -0.00968414 0)
(-0.00332812 -0.00838271 0)
(-0.00106401 -0.00698409 0)
(0.000782648 -0.00555017 0)
(0.00221766 -0.00413781 0)
(0.00325114 -0.00278726 0)
(0.00392646 -0.00153021 0)
(0.00427229 -0.000380832 0)
(0.00434594 0.000647952 0)
(0.00417241 0.00155336 0)
(0.00381124 0.00231954 0)
(0.0032775 0.00293172 0)
(0.00263977 0.00334683 0)
(0.00191284 0.00351681 0)
(0.00119689 0.00334404 0)
(0.000530575 0.00269642 0)
(8.67706e-05 0.00130143 0)
(-0.000156303 0.00175248 0)
(-0.00107015 0.00445848 0)
(-0.00259974 0.00639842 0)
(-0.00442377 0.00774913 0)
(-0.00650022 0.00860756 0)
(-0.00865154 0.00914877 0)
(-0.0108941 0.00946253 0)
(-0.013135 0.00966036 0)
(-0.0154056 0.00977807 0)
(-0.0176484 0.00985988 0)
(-0.0198875 0.00990151 0)
(-0.0220783 0.00991058 0)
(-0.0242331 0.00986865 0)
(-0.0263135 0.0097712 0)
(-0.0283232 0.00960069 0)
(-0.0302311 0.00935284 0)
(-0.0320394 0.00901746 0)
(-0.0337283 0.00859556 0)
(-0.0353059 0.008085 0)
(-0.0367665 0.00749104 0)
(-0.0381266 0.00681513 0)
(-0.0393914 0.00606129 0)
(-0.0405794 0.00522798 0)
(-0.0416958 0.00431298 0)
(-0.0427494 0.00330881 0)
(-0.0437318 0.00220754 0)
(-0.0446305 0.000999275 0)
(-0.0454137 -0.000322941 0)
(-0.046042 -0.00176278 0)
(-0.0464585 -0.00331609 0)
(-0.0466006 -0.00496992 0)
(-0.0463954 -0.00669903 0)
(-0.045773 -0.00846552 0)
(-0.0446662 -0.0102175 0)
(-0.0430249 -0.0118911 0)
(-0.0408173 -0.0134124 0)
(-0.0380445 -0.0147031 0)
(-0.0347379 -0.0156863 0)
(-0.030971 -0.0162946 0)
(-0.0268484 -0.0164786 0)
(-0.0225112 -0.0162133 0)
(-0.0181156 -0.0155048 0)
(-0.0138322 -0.0143897 0)
(-0.00981496 -0.0129353 0)
(-0.00620346 -0.0112283 0)
(-0.00308983 -0.00936887 0)
(-0.000535865 -0.00745278 0)
(0.00145436 -0.00556749 0)
(0.00289596 -0.00377643 0)
(0.00385019 -0.002126 0)
(0.00436872 -0.000636597 0)
(0.00453523 0.000678875 0)
(0.00439698 0.00182113 0)
(0.0040342 0.00277834 0)
(0.00347461 0.00353741 0)
(0.00279897 0.00405261 0)
(0.00202661 0.00426682 0)
(0.00126624 0.00406405 0)
(0.000559637 0.0032799 0)
(9.07277e-05 0.00158301 0)
(-0.000175557 0.00232002 0)
(-0.00119529 0.00577399 0)
(-0.0028918 0.00818593 0)
(-0.00490074 0.00981515 0)
(-0.00717576 0.0108305 0)
(-0.00951934 0.011452 0)
(-0.0119528 0.0118031 0)
(-0.0143736 0.0120118 0)
(-0.0168183 0.012124 0)
(-0.0192228 0.0121861 0)
(-0.0216141 0.0121946 0)
(-0.0239427 0.0121558 0)
(-0.0262228 0.0120507 0)
(-0.0284136 0.0118743 0)
(-0.0305226 0.0116106 0)
(-0.0325211 0.0112585 0)
(-0.0344206 0.0108128 0)
(-0.0362111 0.0102814 0)
(-0.0379178 0.00966952 0)
(-0.039553 0.00898942 0)
(-0.0411556 0.00824774 0)
(-0.042752 0.00745043 0)
(-0.0443816 0.00659396 0)
(-0.0460652 0.00566965 0)
(-0.0478219 0.00465947 0)
(-0.0496451 0.00354133 0)
(-0.0515153 0.00228867 0)
(-0.0533828 0.000876438 0)
(-0.0551799 -0.000716947 0)
(-0.0568104 -0.00250348 0)
(-0.0581632 -0.00448251 0)
(-0.0591093 -0.00663524 0)
(-0.0595183 -0.00892245 0)
(-0.059262 -0.0112817 0)
(-0.0582329 -0.0136286 0)
(-0.05635 -0.0158588 0)
(-0.0535771 -0.0178552 0)
(-0.0499246 -0.0194961 0)
(-0.0454641 -0.020667 0)
(-0.0403208 -0.0212735 0)
(-0.0346796 -0.0212537 0)
(-0.0287632 -0.02059 0)
(-0.0228272 -0.0193135 0)
(-0.0171219 -0.0175062 0)
(-0.0118832 -0.0152891 0)
(-0.00728776 -0.0128115 0)
(-0.00345984 -0.0102248 0)
(-0.000436411 -0.00766979 0)
(0.00179311 -0.00525286 0)
(0.00331041 -0.00304875 0)
(0.00420166 -0.00109095 0)
(0.00459289 0.00060711 0)
(0.00457052 0.00205304 0)
(0.00425079 0.00324503 0)
(0.00368624 0.00417749 0)
(0.00297919 0.00480733 0)
(0.00215944 0.00507154 0)
(0.00134901 0.00483695 0)
(0.000594846 0.00390586 0)
(9.58485e-05 0.00188473 0)
(-0.000193549 0.00295058 0)
(-0.00130936 0.00722454 0)
(-0.00315528 0.0101442 0)
(-0.00532913 0.0120652 0)
(-0.00778046 0.0132387 0)
(-0.0102943 0.0139357 0)
(-0.0128964 0.0143173 0)
(-0.0154758 0.0145283 0)
(-0.0180738 0.0146255 0)
(-0.0206203 0.0146572 0)
(-0.0231456 0.0146211 0)
(-0.0255961 0.0145219 0)
(-0.0279891 0.0143413 0)
(-0.0302832 0.0140754 0)
(-0.0324928 0.0137127 0)
(-0.034596 0.0132586 0)
(-0.0366194 0.0127179 0)
(-0.0385718 0.0121098 0)
(-0.0405045 0.0114517 0)
(-0.042459 0.0107661 0)
(-0.0445067 0.0100661 0)
(-0.0467041 0.00935808 0)
(-0.0491179 0.0086324 0)
(-0.0517876 0.00786716 0)
(-0.0547421 0.00702492 0)
(-0.0579712 0.0060587 0)
(-0.0614392 0.00491327 0)
(-0.0650642 0.00353266 0)
(-0.0687322 0.00186458 0)
(-0.0722858 -0.000130821 0)
(-0.0755421 -0.00247461 0)
(-0.0782924 -0.0051606 0)
(-0.0803243 -0.00815016 0)
(-0.0814298 -0.0113678 0)
(-0.0814286 -0.0147015 0)
(-0.0801768 -0.0180058 0)
(-0.0775886 -0.0211098 0)
(-0.0736405 -0.0238287 0)
(-0.0683895 -0.0259786 0)
(-0.0619697 -0.0273951 0)
(-0.0546026 -0.027952 0)
(-0.0465794 -0.0275812 0)
(-0.0382568 -0.0262859 0)
(-0.0300135 -0.0241499 0)
(-0.022231 -0.0213293 0)
(-0.0152295 -0.0180386 0)
(-0.00925556 -0.0145145 0)
(-0.00442854 -0.0109884 0)
(-0.000772839 -0.00764587 0)
(0.00180421 -0.00461846 0)
(0.00343225 -0.00196964 0)
(0.00429972 0.000281528 0)
(0.00455704 0.00215269 0)
(0.00438033 0.00366077 0)
(0.00386721 0.00481735 0)
(0.00315705 0.00559136 0)
(0.0023007 0.00592001 0)
(0.00144136 0.00565659 0)
(0.000635531 0.00456979 0)
(0.000102302 0.00220259 0)
(-0.000208871 0.00363354 0)
(-0.00140926 0.00879002 0)
(-0.00338726 0.0122489 0)
(-0.00570684 0.0144741 0)
(-0.00831414 0.0158078 0)
(-0.0109787 0.0165772 0)
(-0.0137306 0.0169839 0)
(-0.0164513 0.0171906 0)
(-0.0191863 0.0172657 0)
(-0.0218609 0.0172587 0)
(-0.0245088 0.0171693 0)
(-0.0270734 0.0170013 0)
(-0.0295769 0.0167388 0)
(-0.0319803 0.0163818 0)
(-0.0343092 0.0159274 0)
(-0.0365553 0.0153932 0)
(-0.03877 0.0148009 0)
(-0.040992 0.0141878 0)
(-0.0433122 0.0135895 0)
(-0.0458142 0.0130417 0)
(-0.0486134 0.0125633 0)
(-0.0518047 0.012157 0)
(-0.0554856 0.0117991 0)
(-0.059713 0.011443 0)
(-0.0645184 0.0110183 0)
(-0.0698757 0.0104371 0)
(-0.0757137 0.00959844 0)
(-0.0818947 0.0083979 0)
(-0.0882302 0.00673644 0)
(-0.0944736 0.00453335 0)
(-0.100345 0.00173781 0)
(-0.105536 -0.00165883 0)
(-0.109745 -0.0056152 0)
(-0.11268 -0.0100351 0)
(-0.114093 -0.0147689 0)
(-0.113782 -0.0196182 0)
(-0.111611 -0.0243463 0)
(-0.107516 -0.0286906 0)
(-0.101519 -0.0323804 0)
(-0.0937361 -0.0351576 0)
(-0.0843923 -0.0368008 0)
(-0.0738168 -0.0371543 0)
(-0.062448 -0.0361535 0)
(-0.0507986 -0.0338488 0)
(-0.0394295 -0.0304102 0)
(-0.0288712 -0.0261192 0)
(-0.0195786 -0.0213263 0)
(-0.011844 -0.0164037 0)
(-0.00579856 -0.0116768 0)
(-0.00137968 -0.00738866 0)
(0.0015787 -0.00367128 0)
(0.00334516 -0.000567268 0)
(0.00416597 0.00194991 0)
(0.00431173 0.00392668 0)
(0.0039563 0.00540609 0)
(0.00330105 0.0063846 0)
(0.00243557 0.00681049 0)
(0.00153717 0.00653135 0)
(0.00067956 0.0052836 0)
(0.000109613 0.00254559 0)
(-0.000223133 0.00436865 0)
(-0.00149938 0.0104653 0)
(-0.00359455 0.0144915 0)
(-0.00604332 0.0170313 0)
(-0.00878883 0.0185265 0)
(-0.0115875 0.0193653 0)
(-0.0144733 0.0197922 0)
(-0.0173213 0.0199891 0)
(-0.0201817 0.0200361 0)
(-0.0229755 0.0199844 0)
(-0.0257404 0.0198363 0)
(-0.0284189 0.019596 0)
(-0.0310402 0.0192529 0)
(-0.0335721 0.0188151 0)
(-0.036058 0.0182954 0)
(-0.0385133 0.017732 0)
(-0.0410268 0.0171728 0)
(-0.0436829 0.0166822 0)
(-0.0466276 0.0163196 0)
(-0.0500002 0.0161351 0)
(-0.0539694 0.0161497 0)
(-0.0586719 0.0163526 0)
(-0.0642323 0.0166921 0)
(-0.0707135 0.0170798 0)
(-0.0781306 0.0173913 0)
(-0.0864141 0.0174754 0)
(-0.0954227 0.0171621 0)
(-0.104924 0.0162771 0)
(-0.114616 0.0146589 0)
(-0.124134 0.012178 0)
(-0.133086 0.00875607 0)
(-0.14107 0.00438018 0)
(-0.147714 -0.000889757 0)
(-0.152683 -0.00692082 0)
(-0.155699 -0.0135131 0)
(-0.156534 -0.0204092 0)
(-0.155026 -0.0273051 0)
(-0.15107 -0.0338624 0)
(-0.144634 -0.0397221 0)
(-0.135772 -0.0445237 0)
(-0.124646 -0.0479286 0)
(-0.111546 -0.0496546 0)
(-0.0969178 -0.0495141 0)
(-0.0813476 -0.0474589 0)
(-0.0655564 -0.0436107 0)
(-0.0503192 -0.0382783 0)
(-0.0363908 -0.0319256 0)
(-0.024368 -0.0251122 0)
(-0.0146258 -0.0183861 0)
(-0.0072384 -0.0121969 0)
(-0.00205576 -0.0068246 0)
(0.00126804 -0.00238243 0)
(0.0031069 0.00114946 0)
(0.00387041 0.00385621 0)
(0.00385366 0.00583163 0)
(0.00335729 0.00712343 0)
(0.00253732 0.00770918 0)
(0.00162492 0.00744502 0)
(0.000723482 0.0060399 0)
(0.000117542 0.0029102 0)
(-0.000234964 0.00514236 0)
(-0.00157723 0.0122269 0)
(-0.00377553 0.0168443 0)
(-0.00633834 0.0197084 0)
(-0.00920666 0.0213671 0)
(-0.0121254 0.0222738 0)
(-0.0151326 0.0227186 0)
(-0.018098 0.0229028 0)
(-0.0210761 0.0229191 0)
(-0.0239852 0.0228207 0)
(-0.0268679 0.0226137 0)
(-0.0296681 0.0223051 0)
(-0.0324254 0.0218941 0)
(-0.0351211 0.0214041 0)
(-0.037826 0.0208732 0)
(-0.040593 0.0203724 0)
(-0.043565 0.0199884 0)
(-0.0468896 0.0198217 0)
(-0.0507833 0.0199594 0)
(-0.0554508 0.0204624 0)
(-0.0611156 0.0213424 0)
(-0.0679481 0.0225577 0)
(-0.0760819 0.0240057 0)
(-0.085557 0.0255289 0)
(-0.0963313 0.026919 0)
(-0.108241 0.0279301 0)
(-0.121018 0.0282948 0)
(-0.134279 0.02775 0)
(-0.147574 0.0260666 0)
(-0.160407 0.0230796 0)
(-0.172296 0.0187107 0)
(-0.182802 0.012978 0)
(-0.191559 0.00599319 0)
(-0.198267 -0.00205142 0)
(-0.202695 -0.010898 0)
(-0.204657 -0.0202375 0)
(-0.204002 -0.0297187 0)
(-0.200602 -0.0389546 0)
(-0.194357 -0.047526 0)
(-0.185207 -0.0549903 0)
(-0.173173 -0.0608954 0)
(-0.158391 -0.0648112 0)
(-0.141168 -0.0663727 0)
(-0.122025 -0.0653461 0)
(-0.101718 -0.0616944 0)
(-0.0812077 -0.0556429 0)
(-0.0615757 -0.0476933 0)
(-0.0438561 -0.0385868 0)
(-0.0288694 -0.0291713 0)
(-0.0170389 -0.0202392 0)
(-0.00838185 -0.0123647 0)
(-0.00254001 -0.00583994 0)
(0.000998764 -0.000704751 0)
(0.00283154 0.00316104 0)
(0.00343468 0.0059234 0)
(0.0032616 0.0077152 0)
(0.00257612 0.00857192 0)
(0.00169293 0.00838218 0)
(0.000764082 0.00683826 0)
(0.000125783 0.00330068 0)
(-0.000246031 0.00595956 0)
(-0.001647 0.0140785 0)
(-0.00393629 0.0193098 0)
(-0.00660025 0.0225075 0)
(-0.00957812 0.0243323 0)
(-0.0126055 0.0253069 0)
(-0.0157241 0.0257688 0)
(-0.0187998 0.0259398 0)
(-0.0218917 0.0259257 0)
(-0.0249165 0.0257827 0)
(-0.0279233 0.0255228 0)
(-0.0308606 0.0251597 0)
(-0.0337836 0.0247093 0)
(-0.0366963 0.0242206 0)
(-0.0397095 0.0237716 0)
(-0.0429311 0.0234814 0)
(-0.0465769 0.0234889 0)
(-0.0508743 0.0239377 0)
(-0.0561201 0.0249401 0)
(-0.0625837 0.0265545 0)
(-0.0705302 0.0287615 0)
(-0.0801368 0.0314587 0)
(-0.0915047 0.0344578 0)
(-0.104594 0.0374916 0)
(-0.119234 0.0402259 0)
(-0.135087 0.0422814 0)
(-0.151681 0.0432697 0)
(-0.168438 0.042839 0)
(-0.18475 0.0407229 0)
(-0.20004 0.0367753 0)
(-0.213827 0.0309836 0)
(-0.225747 0.0234563 0)
(-0.235556 0.0143972 0)
(-0.2431 0.00407408 0)
(-0.248288 -0.00720467 0)
(-0.251044 -0.0191064 0)
(-0.251285 -0.031276 0)
(-0.248888 -0.043333 0)
(-0.243694 -0.0548571 0)
(-0.235508 -0.065382 0)
(-0.224142 -0.0743866 0)
(-0.209463 -0.0813133 0)
(-0.19148 -0.0855981 0)
(-0.170426 -0.0867472 0)
(-0.14686 -0.0844284 0)
(-0.121706 -0.0786011 0)
(-0.0962396 -0.0696118 0)
(-0.0719466 -0.0582465 0)
(-0.0502793 -0.0456381 0)
(-0.0323242 -0.0330523 0)
(-0.0185836 -0.0215822 0)
(-0.00889725 -0.011916 0)
(-0.0026791 -0.00429224 0)
(0.000886046 0.00139972 0)
(0.00252821 0.00541122 0)
(0.00292629 0.00800439 0)
(0.00251176 0.00931513 0)
(0.00172592 0.00930245 0)
(0.000797689 0.00766224 0)
(0.000134381 0.00371274 0)
(-0.000254714 0.0068026 0)
(-0.00170563 0.0159912 0)
(-0.00407433 0.0218552 0)
(-0.00682749 0.0253949 0)
(-0.00990346 0.0273892 0)
(-0.0130298 0.0284336 0)
(-0.0162524 0.0289145 0)
(-0.0194339 0.0290753 0)
(-0.0226385 0.0290355 0)
(-0.0257834 0.0288559 0)
(-0.0289256 0.0285574 0)
(-0.032023 0.0281665 0)
(-0.035154 0.0277263 0)
(-0.0383569 0.0273263 0)
(-0.0417996 0.0271028 0)
(-0.0456638 0.0272407 0)
(-0.0502556 0.0279426 0)
(-0.0558925 0.0293952 0)
(-0.062948 0.0317219 0)
(-0.0717375 0.0349512 0)
(-0.0825309 0.0389952 0)
(-0.0954579 0.0436451 0)
(-0.110513 0.0485735 0)
(-0.127482 0.0533466 0)
(-0.145963 0.0574519 0)
(-0.165348 0.0603461 0)
(-0.184911 0.0615266 0)
(-0.203885 0.0606066 0)
(-0.22159 0.0573734 0)
(-0.237496 0.051803 0)
(-0.251272 0.044037 0)
(-0.262768 0.0343322 0)
(-0.271978 0.0230094 0)
(-0.278979 0.0104076 0)
(-0.283886 -0.00314122 0)
(-0.286785 -0.0173245 0)
(-0.287705 -0.0318404 0)
(-0.286576 -0.046383 0)
(-0.283218 -0.0606106 0)
(-0.277332 -0.0741203 0)
(-0.268525 -0.0864111 0)
(-0.256354 -0.0968766 0)
(-0.24041 -0.104801 0)
(-0.220445 -0.109423 0)
(-0.19652 -0.110019 0)
(-0.169163 -0.106087 0)
(-0.13948 -0.0975266 0)
(-0.109149 -0.0848453 0)
(-0.0802231 -0.0692223 0)
(-0.0547174 -0.0523724 0)
(-0.0340936 -0.0361346 0)
(-0.0188581 -0.0219549 0)
(-0.00861186 -0.0105814 0)
(-0.00237162 -0.00206542 0)
(0.000914132 0.00390474 0)
(0.00224288 0.00776927 0)
(0.00229759 0.00982344 0)
(0.00170819 0.0101545 0)
(0.00082148 0.00849607 0)
(0.000143639 0.00414716 0)
(-0.000262851 0.00768217 0)
(-0.00175714 0.0179782 0)
(-0.00419462 0.0244943 0)
(-0.00702627 0.0283857 0)
(-0.0101899 0.0305548 0)
(-0.0134069 0.0316729 0)
(-0.0167272 0.0321774 0)
(-0.0200119 0.0323339 0)
(-0.0233305 0.0322774 0)
(-0.0266026 0.0320753 0)
(-0.0298965 0.0317627 0)
(-0.0331853 0.0313878 0)
(-0.03658 0.0310355 0)
(-0.0401681 0.0308558 0)
(-0.0441922 0.0310646 0)
(-0.0489261 0.031929 0)
(-0.054776 0.0337192 0)
(-0.062145 0.0366507 0)
(-0.0714603 0.0408258 0)
(-0.0830387 0.0461969 0)
(-0.0970891 0.0525501 0)
(-0.113604 0.0595025 0)
(-0.13236 0.0665143 0)
(-0.152848 0.0729173 0)
(-0.174323 0.0779814 0)
(-0.19586 0.0810149 0)
(-0.216518 0.0814845 0)
(-0.235473 0.0791031 0)
(-0.252153 0.0738554 0)
(-0.266259 0.0659538 0)
(-0.27776 0.0557612 0)
(-0.286813 0.0437048 0)
(-0.2937 0.0302103 0)
(-0.298746 0.0156558 0)
(-0.302262 0.000355758 0)
(-0.304496 -0.0154424 0)
(-0.3056 -0.0315377 0)
(-0.305595 -0.0477553 0)
(-0.30435 -0.0639002 0)
(-0.301555 -0.0797222 0)
(-0.296721 -0.0948516 0)
(-0.289181 -0.108763 0)
(-0.278152 -0.120721 0)
(-0.262837 -0.129799 0)
(-0.2426 -0.134917 0)
(-0.217206 -0.135012 0)
(-0.18707 -0.129269 0)
(-0.153486 -0.117478 0)
(-0.118644 -0.100338 0)
(-0.0853662 -0.0796144 0)
(-0.0564373 -0.0578632 0)
(-0.0337429 -0.0376859 0)
(-0.0177161 -0.0209081 0)
(-0.00749827 -0.00814245 0)
(-0.0017121 0.000838861 0)
(0.00106134 0.00668436 0)
(0.00186937 0.0099238 0)
(0.00161835 0.0108569 0)
(0.000831777 0.00930974 0)
(0.00015423 0.0045999 0)
(-0.000268322 0.00857474 0)
(-0.00179709 0.0200025 0)
(-0.00429246 0.0271858 0)
(-0.00719193 0.0314373 0)
(-0.0104335 0.0337873 0)
(-0.0137338 0.0349849 0)
(-0.0171466 0.0355203 0)
(-0.0205327 0.0356826 0)
(-0.0239678 0.0356238 0)
(-0.0273764 0.0354214 0)
(-0.0308416 0.0351322 0)
(-0.0343599 0.0348384 0)
(-0.0380862 0.0346863 0)
(-0.042174 0.0349096 0)
(-0.0469575 0.0358256 0)
(-0.0528135 0.0377936 0)
(-0.0602445 0.0411405 0)
(-0.0697137 0.046076 0)
(-0.0816513 0.0526272 0)
(-0.0963009 0.060601 0)
(-0.113711 0.0695755 0)
(-0.133615 0.0789035 0)
(-0.155437 0.0877473 0)
(-0.178263 0.0951554 0)
(-0.200978 0.100206 0)
(-0.222423 0.102178 0)
(-0.241637 0.100691 0)
(-0.257981 0.095745 0)
(-0.27121 0.0876565 0)
(-0.281407 0.076937 0)
(-0.288905 0.0641715 0)
(-0.294163 0.0499172 0)
(-0.297693 0.0346484 0)
(-0.299972 0.0187272 0)
(-0.30142 0.00240822 0)
(-0.302364 -0.0141535 0)
(-0.303037 -0.0308728 0)
(-0.303554 -0.0477165 0)
(-0.303898 -0.0646579 0)
(-0.303875 -0.0816463 0)
(-0.303085 -0.0985297 0)
(-0.300868 -0.115002 0)
(-0.296299 -0.130494 0)
(-0.288219 -0.144134 0)
(-0.275357 -0.154686 0)
(-0.256565 -0.16065 0)
(-0.23116 -0.160436 0)
(-0.199348 -0.152779 0)
(-0.162586 -0.137255 0)
(-0.123727 -0.114852 0)
(-0.0865986 -0.0882006 0)
(-0.0549733 -0.0610569 0)
(-0.0311545 -0.0370171 0)
(-0.0152396 -0.0180877 0)
(-0.00576659 -0.00458275 0)
(-0.000824295 0.00429096 0)
(0.00113958 0.00937501 0)
(0.0014275 0.0113 0)
(0.000823686 0.0100665 0)
(0.000166871 0.00507005 0)
(-0.000273281 0.0094974 0)
(-0.00182954 0.0220872 0)
(-0.00437178 0.0299553 0)
(-0.0073284 0.0345781 0)
(-0.0106379 0.0371174 0)
(-0.0140136 0.0384032 0)
(-0.0175136 0.0389799 0)
(-0.0209994 0.0391615 0)
(-0.024554 0.03912 0)
(-0.02811 0.0389482 0)
(-0.03177 0.0387347 0)
(-0.0355629 0.038613 0)
(-0.0397002 0.0388142 0)
(-0.0444169 0.0396811 0)
(-0.0501494 0.041649 0)
(-0.0573754 0.0451643 0)
(-0.0666685 0.0505768 0)
(-0.0785005 0.05803 0)
(-0.093227 0.0673955 0)
(-0.110916 0.0782398 0)
(-0.131331 0.0898284 0)
(-0.153814 0.10115 0)
(-0.177339 0.111014 0)
(-0.200583 0.118222 0)
(-0.222197 0.121817 0)
(-0.241051 0.121285 0)
(-0.256462 0.11663 0)
(-0.268226 0.108288 0)
(-0.27657 0.0969549 0)
(-0.281988 0.0834045 0)
(-0.285114 0.0683577 0)
(-0.286582 0.0524012 0)
(-0.286969 0.0359684 0)
(-0.28674 0.0193428 0)
(-0.286269 0.00269024 0)
(-0.285835 -0.0139228 0)
(-0.285665 -0.0304962 0)
(-0.28592 -0.0470929 0)
(-0.286709 -0.0638053 0)
(-0.28804 -0.0807517 0)
(-0.289771 -0.0980069 0)
(-0.291517 -0.11556 0)
(-0.292566 -0.133171 0)
(-0.291805 -0.150283 0)
(-0.287717 -0.165839 0)
(-0.278508 -0.178264 0)
(-0.262389 -0.185464 0)
(-0.238086 -0.185161 0)
(-0.205449 -0.175417 0)
(-0.166117 -0.155537 0)
(-0.12374 -0.12695 0)
(-0.0834756 -0.0935864 0)
(-0.0502392 -0.0609368 0)
(-0.0265653 -0.0335739 0)
(-0.0118183 -0.0134667 0)
(-0.00370683 -5.9835e-05 0)
(-2.07379e-05 0.0078322 0)
(0.00109034 0.0113239 0)
(0.000787617 0.0107101 0)
(0.000182048 0.00555308 0)
(-0.000274889 0.0104182 0)
(-0.00184813 0.0241828 0)
(-0.00442497 0.0327477 0)
(-0.00742711 0.0377512 0)
(-0.0107941 0.040489 0)
(-0.0142374 0.0418732 0)
(-0.0178187 0.0425044 0)
(-0.0214019 0.0427234 0)
(-0.0250783 0.0427255 0)
(-0.028792 0.042626 0)
(-0.0326707 0.0425585 0)
(-0.0367855 0.0427287 0)
(-0.041417 0.0434783 0)
(-0.0468923 0.0452818 0)
(-0.053751 0.0486966 0)
(-0.0625508 0.0542293 0)
(-0.0738874 0.0621926 0)
(-0.0881644 0.072577 0)
(-0.105562 0.0849942 0)
(-0.125854 0.0986556 0)
(-0.148397 0.112404 0)
(-0.172062 0.1248 0)
(-0.195397 0.134344 0)
(-0.21685 0.13978 0)
(-0.235151 0.140398 0)
(-0.249536 0.136167 0)
(-0.259867 0.12764 0)
(-0.266496 0.115713 0)
(-0.270108 0.101384 0)
(-0.27149 0.0855493 0)
(-0.271392 0.0689141 0)
(-0.270416 0.0519644 0)
(-0.269007 0.0350032 0)
(-0.267454 0.0181913 0)
(-0.265951 0.00160471 0)
(-0.264631 -0.0147451 0)
(-0.263627 -0.0308812 0)
(-0.263085 -0.0468799 0)
(-0.263191 -0.0628552 0)
(-0.264133 -0.0789935 0)
(-0.266071 -0.0955095 0)
(-0.269028 -0.112647 0)
(-0.272778 -0.130538 0)
(-0.276677 -0.149109 0)
(-0.279521 -0.167812 0)