/*--------------------------------*- C++ -*----------------------------------*\
| =========                 |                                                 |
| \\      /  F ield         | OpenFOAM: The Open Source CFD Toolbox           |
|  \\    /   O peration     | Version:  2406                                  |
|   \\  /    A nd           | Website:  www.openfoam.com                      |
|    \\/     M anipulation  |                                                 |
\*---------------------------------------------------------------------------*/
FoamFile
{
    version     2.0;
    format      ascii;
    arch        "LSB;label=32;scalar=64";
    class       volVectorField;
    location    "12.45";
    object      Uold;
}
// * * * * * * * * * * * * * * * * * * * * * * * * * * * * * * * * * * * * * //

dimensions      [0 1 -1 0 0 0 0];

internalField   nonuniform List<vector> 
3600
(
(2.06343e-05 -1.88192e-05 0)
(1.17935e-05 7.4727e-07 0)
(-5.41907e-05 2.20439e-05 0)
(-0.000185043 4.17862e-05 0)
(-0.000359634 5.10767e-05 0)
(-0.000559189 5.72797e-05 0)
(-0.000776923 5.87296e-05 0)
(-0.000999903 6.06411e-05 0)
(-0.00123363 6.15479e-05 0)
(-0.00147061 6.40795e-05 0)
(-0.00171989 6.65834e-05 0)
(-0.00197555 7.03459e-05 0)
(-0.00224543 7.39347e-05 0)
(-0.00252348 7.80756e-05 0)
(-0.00281497 8.16717e-05 0)
(-0.00311341 8.51789e-05 0)
(-0.00342136 8.77662e-05 0)
(-0.00373185 8.97123e-05 0)
(-0.004045 9.03638e-05 0)
(-0.00435327 8.98667e-05 0)
(-0.0046546 8.76867e-05 0)
(-0.00494084 8.3875e-05 0)
(-0.00520806 7.79905e-05 0)
(-0.00544755 7.00365e-05 0)
(-0.00565398 5.96792e-05 0)
(-0.00581835 4.69475e-05 0)
(-0.00593465 3.16755e-05 0)
(-0.00599436 1.40259e-05 0)
(-0.00599199 -5.90105e-06 0)
(-0.00592078 -2.76893e-05 0)
(-0.00577749 -5.08808e-05 0)
(-0.00555883 -7.47359e-05 0)
(-0.00526579 -9.84298e-05 0)
(-0.00490021 -0.000120957 0)
(-0.00446878 -0.00014127 0)
(-0.00397926 -0.000158328 0)
(-0.00344426 -0.000171166 0)
(-0.0028766 -0.000179062 0)
(-0.00229317 -0.000181486 0)
(-0.00170916 -0.000178361 0)
(-0.00114255 -0.000169804 0)
(-0.000607017 -0.000156482 0)
(-0.000118003 -0.000139085 0)
(0.000315835 -0.000118819 0)
(0.000684112 -9.65953e-05 0)
(0.000985063 -7.37649e-05 0)
(0.00121371 -5.1016e-05 0)
(0.00137488 -2.94973e-05 0)
(0.00146729 -9.36063e-06 0)
(0.00150061 8.56516e-06 0)
(0.00147457 2.47425e-05 0)
(0.00140178 3.84869e-05 0)
(0.00128086 5.07387e-05 0)
(0.00112674 6.04711e-05 0)
(0.000936893 6.87865e-05 0)
(0.000730379 7.32945e-05 0)
(0.000507533 7.45307e-05 0)
(0.000297308 6.60786e-05 0)
(0.000115192 4.69011e-05 0)
(6.99847e-06 7.99053e-06 0)
(2.5485e-06 -1.31956e-05 0)
(-0.000108928 0.000106574 0)
(-0.000356478 0.000224454 0)
(-0.00073151 0.000332459 0)
(-0.0012066 0.000397477 0)
(-0.00174269 0.000443463 0)
(-0.00232635 0.000466194 0)
(-0.00293077 0.000485222 0)
(-0.00356104 0.00049818 0)
(-0.00420271 0.000515 0)
(-0.0048678 0.000531465 0)
(-0.00554627 0.000551596 0)
(-0.00624863 0.000570874 0)
(-0.00696472 0.000590757 0)
(-0.00770046 0.000607386 0)
(-0.00844413 0.000621164 0)
(-0.00919659 0.000628986 0)
(-0.00994434 0.000630753 0)
(-0.0106836 0.000623962 0)
(-0.0113993 0.000608268 0)
(-0.0120839 0.000581664 0)
(-0.0127208 0.000543738 0)
(-0.0132997 0.000492967 0)
(-0.0138033 0.000429089 0)
(-0.0142197 0.000351196 0)
(-0.0145318 0.000259505 0)
(-0.0147274 0.000154044 0)
(-0.0147916 3.59806e-05 0)
(-0.0147144 -9.32872e-05 0)
(-0.0144852 -0.00023117 0)
(-0.0140993 -0.000374563 0)
(-0.0135535 -0.000519275 0)
(-0.0128516 -0.000660608 0)
(-0.0120004 -0.000793203 0)
(-0.0110144 -0.000911585 0)
(-0.0099111 -0.00101041 0)
(-0.00871576 -0.00108488 0)
(-0.00745487 -0.00113132 0)
(-0.00616119 -0.00114726 0)
(-0.00486544 -0.00113211 0)
(-0.00360221 -0.00108668 0)
(-0.00239979 -0.00101394 0)
(-0.00128819 -0.000917673 0)
(-0.000287034 -0.000803459 0)
(0.000582969 -0.00067653 0)
(0.00131444 -0.000543226 0)
(0.0018971 -0.000408163 0)
(0.00233574 -0.00027669 0)
(0.00262804 -0.00015129 0)
(0.00278811 -3.55813e-05 0)
(0.00281729 7.04193e-05 0)
(0.00273589 0.000164096 0)
(0.00254555 0.000246981 0)
(0.00227219 0.000315234 0)
(0.00191816 0.000370117 0)
(0.00151904 0.00040277 0)
(0.00108355 0.000411825 0)
(0.000665747 0.00037646 0)
(0.000291822 0.00029013 0)
(4.5275e-05 0.00011435 0)
(-2.4588e-05 6.05167e-05 0)
(-0.00026435 0.000368854 0)
(-0.000723843 0.000655778 0)
(-0.00135252 0.000906868 0)
(-0.00212259 0.00106958 0)
(-0.00297371 0.00118353 0)
(-0.00389266 0.0012468 0)
(-0.00484091 0.00129518 0)
(-0.00582446 0.00132915 0)
(-0.0068224 0.00136683 0)
(-0.00784777 0.00140299 0)
(-0.00888625 0.00144392 0)
(-0.00994847 0.00148218 0)
(-0.0110203 0.00151891 0)
(-0.0121065 0.00154713 0)
(-0.0131909 0.00156611 0)
(-0.0142717 0.00157001 0)
(-0.0153308 0.00155747 0)
(-0.0163609 0.00152384 0)
(-0.017342 0.00146771 0)
(-0.0182629 0.00138553 0)
(-0.0191025 0.00127617 0)
(-0.0198472 0.00113722 0)
(-0.0204758 0.00096821 0)
(-0.0209737 0.0007681 0)
(-0.021321 0.000537698 0)
(-0.0215037 0.00027795 0)
(-0.0215051 -8.1783e-06 0)
(-0.0213146 -0.00031688 0)
(-0.0209211 -0.000642159 0)
(-0.0203208 -0.000976745 0)
(-0.0195116 -0.00131135 0)
(-0.0185 -0.00163559 0)
(-0.017296 -0.00193787 0)
(-0.0159191 -0.00220643 0)
(-0.0143922 -0.00242985 0)
(-0.0127475 -0.002598 0)
(-0.0110193 -0.00270299 0)
(-0.00924899 -0.00273963 0)
(-0.00747622 -0.00270651 0)
(-0.00574492 -0.00260543 0)
(-0.00409219 -0.00244239 0)
(-0.00255648 -0.00222572 0)
(-0.0011644 -0.00196699 0)
(5.71945e-05 -0.00167794 0)
(0.0010969 -0.00137188 0)
(0.00194123 -0.00105967 0)
(0.00259412 -0.000752565 0)
(0.00305262 -0.000457272 0)
(0.00333253 -0.00018122 0)
(0.00343619 7.36547e-05 0)
(0.00338748 0.000302322 0)
(0.00318998 0.000505293 0)
(0.00287533 0.000675311 0)
(0.00244882 0.000810904 0)
(0.00195547 0.000895736 0)
(0.00140807 0.000921606 0)
(0.000876291 0.000853754 0)
(0.000390575 0.00067063 0)
(6.58973e-05 0.000300146 0)
(-5.59669e-05 0.000227035 0)
(-0.000442138 0.000816539 0)
(-0.00113231 0.00132488 0)
(-0.0020212 0.00174636 0)
(-0.00308139 0.00202548 0)
(-0.00423042 0.00221906 0)
(-0.00546021 0.00233179 0)
(-0.00672131 0.00241495 0)
(-0.00802306 0.00247317 0)
(-0.00933744 0.00253222 0)
(-0.0106786 0.00258628 0)
(-0.0120267 0.00264356 0)
(-0.0133919 0.00269376 0)
(-0.0147552 0.00273741 0)
(-0.0161197 0.00276428 0)
(-0.017465 0.00277231 0)
(-0.0187871 0.0027529 0)
(-0.0200639 0.0027035 0)
(-0.0212862 0.00261748 0)
(-0.022431 0.00249271 0)
(-0.0234861 0.00232451 0)
(-0.0244287 0.00211159 0)
(-0.025245 0.00185112 0)
(-0.0259135 0.00154298 0)
(-0.0264201 0.00118639 0)
(-0.0267453 0.00078314 0)
(-0.0268757 0.000335367 0)
(-0.026795 -0.000151957 0)
(-0.0264931 -0.000672444 0)
(-0.0259588 -0.00121654 0)
(-0.0251886 -0.00177262 0)
(-0.0241804 -0.00232607 0)
(-0.022941 -0.00286045 0)
(-0.021481 -0.00335752 0)
(-0.0198211 -0.00379862 0)
(-0.0179868 -0.00416557 0)
(-0.0160136 -0.00444211 0)
(-0.0139404 -0.00461539 0)
(-0.0118147 -0.00467684 0)
(-0.00968287 -0.00462369 0)
(-0.00759654 -0.00445862 0)
(-0.00560032 -0.00419079 0)
(-0.0037401 -0.0038336 0)
(-0.0020486 -0.0034055 0)
(-0.000557849 -0.00292578 0)
(0.000717671 -0.00241594 0)
(0.00176241 -0.00189419 0)
(0.00258041 -0.00137874 0)
(0.00316912 -0.000881323 0)
(0.00354665 -0.000413801 0)
(0.00371676 1.94847e-05 0)
(0.00370678 0.000410766 0)
(0.00352169 0.00075902 0)
(0.00319751 0.00105332 0)
(0.00274065 0.00128857 0)
(0.00220227 0.00144104 0)
(0.00159578 0.00149412 0)
(0.00100065 0.00139935 0)
(0.000448842 0.00111295 0)
(7.69208e-05 0.00052055 0)
(-8.36349e-05 0.000483019 0)
(-0.000612035 0.00145677 0)
(-0.0015308 0.00224699 0)
(-0.00267612 0.00286975 0)
(-0.00401855 0.00328348 0)
(-0.00545079 0.00356552 0)
(-0.00697102 0.00373324 0)
(-0.00851853 0.00385297 0)
(-0.0101076 0.00393546 0)
(-0.0117029 0.00401305 0)
(-0.0133204 0.00408004 0)
(-0.0149342 0.0041457 0)
(-0.0165542 0.00419715 0)
(-0.0181563 0.00423377 0)
(-0.0197422 0.00424237 0)
(-0.0212874 0.00421933 0)
(-0.0227867 0.00415377 0)
(-0.0242153 0.00404213 0)
(-0.0255639 0.00387654 0)
(-0.0268086 0.00365466 0)
(-0.0279387 0.0033715 0)
(-0.0289326 0.00302611 0)
(-0.0297791 0.00261585 0)
(-0.0304591 0.00214112 0)
(-0.0309613 0.00160155 0)
(-0.0312679 0.000999605 0)
(-0.0313674 0.000338285 0)
(-0.0312434 -0.000376003 0)
(-0.0308852 -0.00113484 0)
(-0.0302796 -0.00192563 0)
(-0.0294199 -0.00273273 0)
(-0.0283003 -0.00353626 0)
(-0.0269234 -0.00431341 0)
(-0.0252961 -0.00503853 0)
(-0.0234361 -0.00568487 0)
(-0.0213675 -0.00622591 0)
(-0.0191267 -0.00663741 0)
(-0.0167557 -0.00689955 0)
(-0.0143083 -0.00699858 0)
(-0.011839 -0.00692902 0)
(-0.00940996 -0.00669361 0)
(-0.00707658 -0.00630477 0)
(-0.00489579 -0.00578187 0)
(-0.00290959 -0.00515182 0)
(-0.00115753 -0.00444363 0)
(0.000341669 -0.00368926 0)
(0.00157045 -0.00291657 0)
(0.00253412 -0.00215243 0)
(0.00323238 -0.00141509 0)
(0.00368792 -0.00072145 0)
(0.00390812 -7.87601e-05 0)
(0.00392554 0.000502732 0)
(0.00374773 0.00102026 0)
(0.00341544 0.00145972 0)
(0.00293583 0.00181165 0)
(0.00236502 0.0020451 0)
(0.00171626 0.00213317 0)
(0.00107691 0.00201265 0)
(0.000481101 0.00161263 0)
(8.10802e-05 0.000770093 0)
(-0.000110562 0.000826772 0)
(-0.000778154 0.00228417 0)
(-0.00191747 0.00340781 0)
(-0.0033079 0.00425232 0)
(-0.00491646 0.00480771 0)
(-0.00661137 0.00517766 0)
(-0.00839747 0.00539816 0)
(-0.0102031 0.00555023 0)
(-0.0120482 0.00565184 0)
(-0.0138899 0.00574043 0)
(-0.0157466 0.00581056 0)
(-0.017586 0.00587168 0)
(-0.019418 0.00590861 0)
(-0.0212133 0.00591939 0)
(-0.0229732 0.00588837 0)
(-0.0246693 0.00581085 0)
(-0.0262968 0.00567452 0)
(-0.0278297 0.00547576 0)
(-0.029261 0.00520664 0)
(-0.0305687 0.00486576 0)
(-0.0317465 0.0044489 0)
(-0.0327774 0.00395624 0)
(-0.0336557 0.00338575 0)
(-0.0343675 0.00273825 0)
(-0.0349059 0.00201315 0)
(-0.0352563 0.00121256 0)
(-0.0354083 0.000338793 0)
(-0.0353442 -0.000602064 0)
(-0.0350497 -0.00160144 0)
(-0.0345053 -0.00264554 0)
(-0.0336958 -0.00371623 0)
(-0.0326051 -0.00478942 0)
(-0.0312247 -0.00583634 0)
(-0.0295501 -0.00682343 0)
(-0.0275895 -0.00771448 0)
(-0.0253595 -0.00847224 0)
(-0.0228937 -0.00906137 0)
(-0.0202354 -0.00945147 0)
(-0.0174451 -0.00961996 0)
(-0.0145896 -0.00955536 0)
(-0.0117469 -0.00925829 0)
(-0.00899138 -0.00874345 0)
(-0.00639939 -0.00803684 0)
(-0.00403051 -0.00717589 0)
(-0.00193876 -0.00620249 0)
(-0.00015183 -0.00516276 0)
(0.00130836 -0.0040978 0)
(0.00244856 -0.00304623 0)
(0.00327281 -0.00203484 0)
(0.00381175 -0.00108662 0)
(0.00408021 -0.000211841 0)
(0.00411976 0.000577428 0)
(0.00394363 0.00127763 0)
(0.00359948 0.00187266 0)
(0.00309663 0.00234959 0)
(0.00249624 0.00267076 0)
(0.00181157 0.00279864 0)
(0.00113603 0.0026535 0)
(0.000505908 0.00213463 0)
(8.40353e-05 0.00102657 0)
(-0.000134025 0.00125161 0)
(-0.000929149 0.0032891 0)
(-0.00227202 0.00479844 0)
(-0.00388912 0.0058875 0)
(-0.00574309 0.0065929 0)
(-0.00767824 0.00705063 0)
(-0.0097054 0.00732105 0)
(-0.0117419 0.00750015 0)
(-0.0138136 0.00761439 0)
(-0.0158702 0.00770511 0)
(-0.0179327 0.00776743 0)
(-0.0199625 0.00781016 0)
(-0.0219705 0.00781626 0)
(-0.0239223 0.0077823 0)
(-0.0258198 0.00769108 0)
(-0.0276322 0.00753743 0)
(-0.029357 0.00730905 0)
(-0.0309694 0.00700353 0)
(-0.0324676 0.00661463 0)
(-0.0338353 0.00614326 0)
(-0.0350745 0.00558727 0)
(-0.0361766 0.00494854 0)
(-0.0371456 0.00422562 0)
(-0.037975 0.00341885 0)
(-0.038665 0.0025258 0)
(-0.0392039 0.00154571 0)
(-0.0395816 0.000477354 0)
(-0.0397759 -0.000676864 0)
(-0.0397637 -0.00191158 0)
(-0.0395122 -0.00321501 0)
(-0.0389891 -0.00456919 0)
(-0.0381574 -0.00594767 0)
(-0.0369864 -0.00731627 0)
(-0.0354487 -0.00863267 0)
(-0.0335317 -0.00984853 0)
(-0.0312352 -0.0109116 0)
(-0.0285824 -0.0117694 0)
(-0.0256145 -0.0123743 0)
(-0.0223994 -0.0126873 0)
(-0.0190208 -0.0126843 0)
(-0.0155828 -0.0123586 0)
(-0.0121914 -0.0117242 0)
(-0.00895854 -0.0108139 0)
(-0.00597758 -0.00967871 0)
(-0.00333186 -0.00837898 0)
(-0.00106963 -0.00698209 0)
(0.000775712 -0.00554981 0)
(0.00220995 -0.00413891 0)
(0.00324314 -0.0027896 0)
(0.00391857 -0.00153354 0)
(0.00426485 -0.000384905 0)
(0.00433915 0.000643375 0)
(0.00416645 0.00154848 0)
(0.00380619 0.00231454 0)
(0.00327341 0.00292673 0)
(0.00263663 0.00334197 0)
(0.00191064 0.00351221 0)
(0.00119555 0.00333991 0)
(0.000529993 0.00269318 0)
(8.6677e-05 0.0012999 0)
(-0.000156259 0.00175192 0)
(-0.00106991 0.00445745 0)
(-0.00259922 0.00639722 0)
(-0.00442295 0.00774783 0)
(-0.00649907 0.00860617 0)
(-0.00865005 0.00914724 0)
(-0.0108922 0.00946083 0)
(-0.0131327 0.00965847 0)
(-0.0154029 0.00977596 0)
(-0.0176453 0.00985754 0)
(-0.0198838 0.00989894 0)
(-0.0220742 0.00990778 0)
(-0.0242284 0.00986565 0)
(-0.0263082 0.00976801 0)
(-0.0283173 0.00959732 0)
(-0.0302245 0.00934932 0)
(-0.0320322 0.00901379 0)
(-0.0337202 0.00859173 0)
(-0.0352969 0.00808099 0)
(-0.0367563 0.00748685 0)
(-0.0381151 0.00681075 0)
(-0.0393782 0.00605673 0)
(-0.0405643 0.00522329 0)
(-0.0416785 0.00430826 0)
(-0.0427297 0.00330418 0)
(-0.0437094 0.00220317 0)
(-0.0446053 0.000995373 0)
(-0.0453856 -0.000326132 0)
(-0.046011 -0.001765 0)
(-0.0464247 -0.00331707 0)
(-0.0465643 -0.00496942 0)
(-0.0463571 -0.00669681 0)
(-0.0457333 -0.00846141 0)
(-0.0446257 -0.0102114 0)
(-0.0429844 -0.011883 0)
(-0.0407778 -0.0134024 0)
(-0.0380069 -0.0146915 0)
(-0.0347032 -0.0156734 0)
(-0.0309399 -0.0162809 0)
(-0.0268216 -0.0164647 0)
(-0.0224893 -0.0161998 0)
(-0.0180987 -0.0154923 0)
(-0.0138203 -0.0143788 0)
(-0.00980783 -0.0129264 0)
(-0.00620052 -0.0112217 0)
(-0.00309036 -0.00936463 0)
(-0.000539075 -0.00745085 0)
(0.00144927 -0.00556765 0)
(0.00288973 -0.00377839 0)
(0.00384345 -0.0021294 0)
(0.00436198 -0.000641079 0)
(0.00452887 0.000673645 0)
(0.00439126 0.00181544 0)
(0.00402929 0.00277244 0)
(0.00347059 0.00353149 0)
(0.00279587 0.00404681 0)
(0.00202444 0.00426132 0)
(0.00126492 0.00405911 0)
(0.000559067 0.00327602 0)
(9.06376e-05 0.00158118 0)
(-0.000175507 0.00231932 0)
(-0.00119501 0.00577269 0)
(-0.00289119 0.00818441 0)
(-0.00489978 0.00981351 0)
(-0.00717442 0.0108287 0)
(-0.00951761 0.01145 0)
(-0.0119506 0.011801 0)
(-0.0143711 0.0120095 0)
(-0.0168153 0.0121214 0)
(-0.0192192 0.0121832 0)
(-0.02161 0.0121915 0)
(-0.0239381 0.0121525 0)
(-0.0262176 0.0120471 0)
(-0.0284077 0.0118705 0)
(-0.0305162 0.0116066 0)
(-0.0325139 0.0112542 0)
(-0.0344125 0.0108083 0)
(-0.036202 0.0102766 0)
(-0.0379073 0.00966428 0)
(-0.0395409 0.00898371 0)
(-0.0411414 0.00824149 0)
(-0.0427353 0.00744364 0)
(-0.0443618 0.00658666 0)
(-0.0460418 0.00566194 0)
(-0.0477945 0.00465151 0)
(-0.0496133 0.00353336 0)
(-0.0514787 0.00228098 0)
(-0.0533413 0.000869387 0)
(-0.0551334 -0.000722966 0)
(-0.056759 -0.00250804 0)
(-0.0581074 -0.00448518 0)
(-0.0590495 -0.00663561 0)
(-0.0594555 -0.00892016 0)
(-0.059197 -0.0112765 0)
(-0.0581671 -0.0136203 0)
(-0.0562846 -0.0158475 0)
(-0.0535134 -0.0178411 0)
(-0.0498641 -0.0194797 0)
(-0.0454082 -0.0206487 0)
(-0.0402705 -0.0212542 0)
(-0.034636 -0.0212343 0)
(-0.0287268 -0.0205714 0)
(-0.0227984 -0.0192965 0)
(-0.0171004 -0.0174916 0)
(-0.0118686 -0.0152775 0)
(-0.00727915 -0.0128032 0)
(-0.00345616 -0.0102197 0)
(-0.000436508 -0.00766771 0)
(0.00179037 -0.00525344 0)
(0.00330603 -0.0030515 0)
(0.00419647 -0.00109536 0)
(0.00458752 0.000601545 0)
(0.00456542 0.00204674 0)
(0.00424625 0.00323834 0)
(0.00368246 0.00417069 0)
(0.00297623 0.00480064 0)
(0.00215735 0.00506516 0)
(0.00134774 0.0048312 0)
(0.000594303 0.00390135 0)
(9.57646e-05 0.00188261 0)
(-0.000193491 0.00294972 0)
(-0.00130904 0.00722294 0)
(-0.00315458 0.0101423 0)
(-0.00532804 0.0120632 0)
(-0.00777892 0.0132365 0)
(-0.0102923 0.0139334 0)
(-0.012894 0.0143147 0)
(-0.0154729 0.0145255 0)
(-0.0180703 0.0146225 0)
(-0.0206163 0.0146538 0)
(-0.0231411 0.0146174 0)
(-0.025591 0.014518 0)
(-0.0279834 0.0143371 0)
(-0.0302768 0.014071 0)
(-0.0324857 0.013708 0)
(-0.034588 0.0132535 0)
(-0.0366103 0.0127123 0)
(-0.0385612 0.0121035 0)
(-0.040492 0.0114446 0)
(-0.0424439 0.0107581 0)
(-0.0444883 0.010057 0)
(-0.0466818 0.00934779 0)
(-0.0490909 0.00862096 0)
(-0.0517551 0.00785471 0)
(-0.0547033 0.00701167 0)
(-0.0579257 0.00604498 0)
(-0.0613864 0.00489951 0)
(-0.0650039 0.00351937 0)
(-0.0686642 0.00185238 0)
(-0.0722105 -0.000141273 0)
(-0.07546 -0.00248262 0)
(-0.0782041 -0.00516549 0)
(-0.0802312 -0.00815132 0)
(-0.0813332 -0.0113647 0)
(-0.08133 -0.0146939 0)
(-0.080078 -0.0179936 0)
(-0.0774913 -0.0210932 0)
(-0.0735467 -0.0238081 0)
(-0.0683009 -0.0259547 0)
(-0.061888 -0.0273688 0)
(-0.0545293 -0.0279246 0)
(-0.0465157 -0.0275539 0)
(-0.0382033 -0.02626 0)
(-0.0299706 -0.0241266 0)
(-0.0221984 -0.0213096 0)
(-0.0152064 -0.0180231 0)
(-0.0092406 -0.0145036 0)
(-0.00442024 -0.0109819 0)
(-0.00076956 -0.00764338 0)
(0.00180398 -0.0046193 0)
(0.00342983 -0.00197305 0)
(0.00429614 0.000276251 0)
(0.00455308 0.00214619 0)
(0.0043765 0.00365356 0)
(0.00386387 0.00480984 0)
(0.00315435 0.00558387 0)
(0.00229878 0.00591282 0)
(0.00144018 0.00565009 0)
(0.000635028 0.0045647 0)
(0.000102226 0.00220021 0)
(-0.000208807 0.00363249 0)
(-0.0014089 0.00878806 0)
(-0.00338648 0.0122466 0)
(-0.00570561 0.0144716 0)
(-0.00831243 0.0158052 0)
(-0.0109765 0.0165744 0)
(-0.0137279 0.0169808 0)
(-0.016448 0.0171873 0)
(-0.0191826 0.0172621 0)
(-0.0218566 0.0172548 0)
(-0.0245039 0.0171651 0)
(-0.0270679 0.0169968 0)
(-0.0295707 0.016734 0)
(-0.0319734 0.0163766 0)
(-0.0343013 0.0159217 0)
(-0.0365463 0.0153869 0)
(-0.0387594 0.0147937 0)
(-0.0409792 0.0141795 0)
(-0.0432965 0.0135797 0)
(-0.0457947 0.0130301 0)
(-0.048589 0.0125498 0)
(-0.0517745 0.0121414 0)
(-0.0554484 0.0117814 0)
(-0.0596678 0.0114235 0)
(-0.0644642 0.0109972 0)
(-0.0698119 0.0104149 0)
(-0.0756397 0.0095758 0)
(-0.0818103 0.00837561 0)
(-0.0881356 0.0067154 0)
(-0.0943693 0.00451458 0)
(-0.100232 0.00172233 0)
(-0.105416 -0.00167002 0)
(-0.109618 -0.00562123 0)
(-0.112549 -0.0100353 0)
(-0.113959 -0.0147628 0)
(-0.113648 -0.0196056 0)
(-0.111478 -0.0243272 0)
(-0.107386 -0.0286656 0)
(-0.101395 -0.0323502 0)
(-0.0936191 -0.0351232 0)
(-0.0842846 -0.0367636 0)
(-0.07372 -0.0371159 0)
(-0.0623637 -0.0361156 0)
(-0.0507277 -0.0338133 0)
(-0.0393724 -0.0303787 0)
(-0.0288274 -0.0260929 0)
(-0.0195471 -0.021306 0)
(-0.011823 -0.0163897 0)
(-0.00578592 -0.0116687 0)
(-0.00137332 -0.00738557 0)
(0.00158075 -0.00367224 0)
(0.0033445 -0.000571235 0)
(0.00416388 0.00194389 0)
(0.00430907 0.0039194 0)
(0.00395366 0.00539816 0)
(0.00329878 0.00637649 0)
(0.00243388 0.00680259 0)
(0.00153612 0.00652417 0)
(0.000679114 0.00527796 0)
(0.000109548 0.00254297 0)
(-0.000223064 0.0043674 0)
(-0.00149899 0.010463 0)
(-0.0035937 0.0144887 0)
(-0.00604198 0.0170284 0)
(-0.00878696 0.0185234 0)
(-0.0115851 0.019362 0)
(-0.0144704 0.0197886 0)
(-0.0173178 0.0199853 0)
(-0.0201776 0.0200319 0)
(-0.0229708 0.0199799 0)
(-0.0257351 0.0198314 0)
(-0.028413 0.0195908 0)
(-0.0310335 0.0192473 0)
(-0.0335645 0.018809 0)
(-0.0360492 0.0182886 0)
(-0.0385029 0.0177241 0)
(-0.0410142 0.0171634 0)
(-0.043667 0.0166708 0)
(-0.0466074 0.0163057 0)
(-0.0499745 0.0161183 0)
(-0.0539368 0.0161297 0)
(-0.0586309 0.0163293 0)
(-0.0641816 0.0166656 0)
(-0.070652 0.0170503 0)
(-0.0780572 0.0173594 0)
(-0.0863282 0.0174418 0)
(-0.095324 0.0171278 0)
(-0.104812 0.0162433 0)
(-0.114493 0.0146269 0)
(-0.124 0.0121493 0)
(-0.132943 0.00873204 0)
(-0.14092 0.00436206 0)
(-0.147559 -0.000900947 0)
(-0.152524 -0.00692433 0)
(-0.155537 -0.0135085 0)
(-0.156372 -0.0203963 0)
(-0.154866 -0.0272839 0)
(-0.150912 -0.0338333 0)
(-0.144481 -0.0396859 0)
(-0.135624 -0.0444813 0)
(-0.124506 -0.0478813 0)
(-0.111418 -0.0496042 0)
(-0.0968013 -0.0494626 0)
(-0.0812456 -0.0474086 0)
(-0.0654702 -0.043564 0)
(-0.0502496 -0.0382373 0)
(-0.0363373 -0.0318918 0)
(-0.0243294 -0.0250866 0)
(-0.0145998 -0.0183687 0)
(-0.0072224 -0.012187 0)
(-0.00204707 -0.00682089 0)
(0.00127179 -0.00238351 0)
(0.00310762 0.001145 0)
(0.00386949 0.00384955 0)
(0.00385207 0.00582373 0)
(0.00335564 0.00711497 0)
(0.00253598 0.00770077 0)
(0.00162405 0.00743726 0)
(0.000723109 0.0060338 0)
(0.000117489 0.00290737 0)
(-0.00023489 0.0051409 0)
(-0.00157682 0.0122242 0)
(-0.00377462 0.0168411 0)
(-0.0063369 0.0197049 0)
(-0.00920465 0.0213634 0)
(-0.0121229 0.0222699 0)
(-0.0151295 0.0227144 0)
(-0.0180943 0.0228984 0)
(-0.0210718 0.0229143 0)
(-0.0239802 0.0228156 0)
(-0.0268623 0.0226082 0)
(-0.0296617 0.0222992 0)
(-0.0324182 0.0218877 0)
(-0.0351128 0.0213968 0)
(-0.0378161 0.0208648 0)
(-0.0405808 0.0203622 0)
(-0.0435495 0.0199757 0)
(-0.0468695 0.0198058 0)
(-0.050757 0.0199397 0)
(-0.0554168 0.0204382 0)
(-0.0610722 0.0213135 0)
(-0.0678937 0.022524 0)
(-0.0760149 0.0239674 0)
(-0.0854764 0.0254866 0)
(-0.0962365 0.0268736 0)
(-0.108132 0.0278828 0)
(-0.120894 0.0282471 0)
(-0.134144 0.0277037 0)
(-0.147428 0.0260236 0)
(-0.160252 0.0230418 0)
(-0.172135 0.0186795 0)
(-0.182637 0.0129547 0)
(-0.191391 0.00597864 0)
(-0.198098 -0.00205676 0)
(-0.202526 -0.0108939 0)
(-0.204489 -0.0202241 0)
(-0.203835 -0.029696 0)
(-0.200436 -0.0389229 0)
(-0.194193 -0.0474858 0)
(-0.185046 -0.0549423 0)
(-0.173017 -0.0608404 0)
(-0.15824 -0.0647508 0)
(-0.141027 -0.0663087 0)
(-0.121895 -0.065281 0)
(-0.101604 -0.061631 0)
(-0.0811103 -0.0555842 0)
(-0.0614967 -0.0476421 0)
(-0.0437956 -0.0385453 0)
(-0.0288259 -0.0291404 0)
(-0.0170098 -0.0202187 0)
(-0.0083639 -0.0123533 0)
(-0.00253005 -0.00583587 0)
(0.00100347 -0.000706081 0)
(0.00283308 0.00315605 0)
(0.00343456 0.00591618 0)
(0.0032608 0.00770681 0)
(0.00257525 0.00856323 0)
(0.00169229 0.008374 0)
(0.000763799 0.00683178 0)
(0.000125744 0.00329768 0)
(-0.000245954 0.00595787 0)
(-0.00164656 0.0140753 0)
(-0.00393534 0.019306 0)
(-0.00659874 0.0225034 0)
(-0.00957601 0.024328 0)
(-0.0126028 0.0253025 0)
(-0.0157208 0.025764 0)
(-0.0187959 0.0259348 0)
(-0.0218871 0.0259203 0)
(-0.0249113 0.025777 0)
(-0.0279174 0.0255166 0)
(-0.0308539 0.0251529 0)
(-0.0337759 0.0247017 0)
(-0.036687 0.0242118 0)
(-0.039698 0.0237609 0)
(-0.0429164 0.0234679 0)
(-0.0465575 0.0234715 0)
(-0.0508485 0.0239155 0)
(-0.056086 0.0249123 0)
(-0.0625395 0.0265204 0)
(-0.0704739 0.028721 0)
(-0.0800669 0.0314119 0)
(-0.09142 0.0344053 0)
(-0.104494 0.0374345 0)
(-0.119119 0.0401656 0)
(-0.134957 0.04222 0)
(-0.15154 0.0432095 0)
(-0.168288 0.0427825 0)
(-0.184594 0.0406724 0)
(-0.199881 0.0367327 0)
(-0.213669 0.0309501 0)
(-0.225591 0.0234326 0)
(-0.235403 0.0143834 0)
(-0.242951 0.00407012 0)
(-0.248142 -0.00719917 0)
(-0.2509 -0.0190918 0)
(-0.251142 -0.0312526 0)
(-0.248745 -0.0433009 0)
(-0.243549 -0.0548165 0)
(-0.235362 -0.0653329 0)
(-0.223994 -0.0743293 0)
(-0.209315 -0.0812485 0)
(-0.191332 -0.0855268 0)
(-0.170284 -0.0866713 0)
(-0.146726 -0.0843508 0)
(-0.121585 -0.0785252 0)
(-0.0961358 -0.0695416 0)
(-0.0718622 -0.0581857 0)
(-0.0502149 -0.0455893 0)
(-0.0322784 -0.0330167 0)
(-0.0185534 -0.0215593 0)
(-0.00887893 -0.0119037 0)
(-0.00266899 -0.00428828 0)
(0.000890933 0.00139786 0)
(0.00253007 0.00540563 0)
(0.0029266 0.00799665 0)
(0.00251148 0.00930651 0)
(0.00172556 0.00929407 0)
(0.000797509 0.0076555 0)
(0.000134356 0.00370962 0)
(-0.000254635 0.00680067 0)
(-0.00170518 0.0159875 0)
(-0.00407334 0.0218508 0)
(-0.00682592 0.0253902 0)
(-0.00990128 0.0273843 0)
(-0.013027 0.0284285 0)
(-0.0162489 0.0289092 0)
(-0.0194298 0.0290696 0)
(-0.0226338 0.0290295 0)
(-0.025778 0.0288494 0)
(-0.0289194 0.0285505 0)
(-0.0320159 0.0281587 0)
(-0.0351455 0.0277173 0)
(-0.0383464 0.0273154 0)
(-0.041786 0.0270889 0)
(-0.0456457 0.0272225 0)
(-0.0502312 0.0279189 0)
(-0.0558596 0.0293647 0)
(-0.0629045 0.0316836 0)
(-0.0716814 0.0349048 0)
(-0.0824605 0.0389407 0)
(-0.0953721 0.0435832 0)
(-0.110411 0.0485054 0)
(-0.127366 0.0532743 0)
(-0.145834 0.0573779 0)
(-0.165209 0.0602737 0)
(-0.184766 0.0614589 0)
(-0.20374 0.0605466 0)
(-0.221448 0.0573231 0)
(-0.23736 0.0517637 0)
(-0.251146 0.0440089 0)
(-0.262651 0.034315 0)
(-0.271871 0.0230021 0)
(-0.278881 0.0104092 0)
(-0.283794 -0.00313173 0)
(-0.286697 -0.0173079 0)
(-0.287618 -0.031817 0)
(-0.286487 -0.046353 0)
(-0.283125 -0.0605738 0)
(-0.277232 -0.0740761 0)
(-0.268417 -0.0863589 0)
(-0.256236 -0.0968157 0)
(-0.240285 -0.104732 0)
(-0.220314 -0.109345 0)
(-0.196387 -0.109935 0)
(-0.169034 -0.106 0)
(-0.13936 -0.0974403 0)
(-0.109044 -0.084765 0)
(-0.0801372 -0.069153 0)
(-0.0546525 -0.0523176 0)
(-0.0340484 -0.0360957 0)
(-0.018829 -0.0219307 0)
(-0.00859467 -0.0105693 0)
(-0.00236235 -0.00206221 0)
(0.000918561 0.00390203 0)
(0.00224462 0.00776296 0)
(0.00229804 0.00981536 0)
(0.00170816 0.0101462 0)
(0.000821414 0.00848921 0)
(0.000143627 0.00414397 0)
(-0.000262771 0.00768 0)
(-0.00175668 0.0179741 0)
(-0.00419362 0.0244894 0)
(-0.00702468 0.0283804 0)
(-0.0101877 0.0305493 0)
(-0.0134041 0.0316672 0)
(-0.0167237 0.0321714 0)
(-0.0200077 0.0323276 0)
(-0.0233257 0.0322707 0)
(-0.0265971 0.032068 0)
(-0.02989 0.0317548 0)
(-0.0331777 0.0313787 0)
(-0.0365706 0.0310247 0)
(-0.040156 0.030842 0)
(-0.044176 0.0310463 0)
(-0.0489038 0.0319046 0)
(-0.0547455 0.0336871 0)
(-0.0621039 0.0366095 0)
(-0.0714065 0.0407748 0)
(-0.0829705 0.0461361 0)
(-0.0970054 0.0524801 0)
(-0.113505 0.0594249 0)
(-0.132247 0.0664315 0)
(-0.152723 0.0728327 0)
(-0.174191 0.077899 0)
(-0.195727 0.0809389 0)
(-0.21639 0.0814186 0)
(-0.235355 0.0790497 0)
(-0.252049 0.0738155 0)
(-0.266171 0.0659272 0)
(-0.277689 0.0557467 0)
(-0.286758 0.0437007 0)
(-0.29366 0.0302145 0)
(-0.298717 0.0156664 0)
(-0.302242 0.000371408 0)
(-0.304481 -0.0154228 0)
(-0.305587 -0.0315149 0)
(-0.305579 -0.0477292 0)
(-0.304328 -0.0638704 0)
(-0.301524 -0.0796878 0)
(-0.296677 -0.0948111 0)
(-0.289122 -0.108715 0)
(-0.278077 -0.120664 0)
(-0.262745 -0.129731 0)
(-0.242495 -0.134838 0)
(-0.21709 -0.134924 0)
(-0.186952 -0.129176 0)
(-0.153372 -0.117384 0)
(-0.118542 -0.10025 0)
(-0.0852826 -0.0795385 0)
(-0.056375 -0.0578043 0)
(-0.0337007 -0.0376455 0)
(-0.01769 -0.0208843 0)
(-0.0074834 -0.00813163 0)
(-0.0017044 0.000840697 0)
(0.00106487 0.0066805 0)
(0.00187071 0.00991686 0)
(0.00161872 0.010849 0)
(0.000831834 0.00930293 0)
(0.000154229 0.00459669 0)
(-0.000268243 0.00857232 0)
(-0.00179663 0.0199978 0)
(-0.00429146 0.0271803 0)
(-0.00719033 0.0314314 0)
(-0.0104313 0.0337811 0)
(-0.0137309 0.0349786 0)
(-0.0171431 0.0355137 0)
(-0.0205285 0.0356756 0)
(-0.0239629 0.0356164 0)
(-0.0273707 0.0354133 0)
(-0.0308349 0.0351231 0)
(-0.0343517 0.0348277 0)
(-0.0380756 0.0346729 0)
(-0.0421599 0.0348919 0)
(-0.046938 0.0358016 0)
(-0.0527863 0.0377612 0)
(-0.0602072 0.041098 0)
(-0.0696639 0.0460222 0)
(-0.0815872 0.0525618 0)
(-0.0962217 0.0605248 0)
(-0.113617 0.0694902 0)
(-0.133508 0.0788121 0)
(-0.155321 0.0876541 0)
(-0.178143 0.0950655 0)
(-0.200861 0.100125 0)
(-0.222316 0.102109 0)
(-0.241546 0.100638 0)
(-0.25791 0.0957091 0)
(-0.271162 0.0876362 0)
(-0.28138 0.0769304 0)
(-0.288898 0.0641757 0)
(-0.294175 0.0499295 0)
(-0.297719 0.0346661 0)
(-0.300009 0.0187481 0)
(-0.301465 0.00243064 0)
(-0.302413 -0.0141307 0)
(-0.303088 -0.0308502 0)
(-0.303604 -0.0476943 0)
(-0.303942 -0.0646356 0)
(-0.303912 -0.081623 0)
(-0.30311 -0.0985039 0)
(-0.300877 -0.114971 0)
(-0.296289 -0.130456 0)
(-0.288187 -0.144086 0)
(-0.275302 -0.154626 0)
(-0.256489 -0.160577 0)
(-0.231066 -0.160349 0)
(-0.199244 -0.152683 0)
(-0.162481 -0.137156 0)
(-0.123631 -0.114758 0)
(-0.0865202 -0.0881204 0)
(-0.0549163 -0.0609965 0)
(-0.0311175 -0.0369777 0)
(-0.0152177 -0.0180661 0)
(-0.00575478 -0.00457425 0)
(-0.000818544 0.00429086 0)
(0.00114202 0.00936997 0)
(0.00142832 0.0112928 0)
(0.000823872 0.01006 0)
(0.000166878 0.00506688 0)
(-0.000273204 0.00949474 0)
(-0.0018291 0.0220821 0)
(-0.0043708 0.0299492 0)
(-0.00732682 0.0345716 0)
(-0.0106356 0.0371107 0)
(-0.0140108 0.0383962 0)
(-0.0175101 0.0389726 0)
(-0.0209952 0.0391539 0)
(-0.0245491 0.0391118 0)
(-0.0281042 0.0389392 0)
(-0.031763 0.0387243 0)
(-0.0355539 0.0386002 0)
(-0.0396883 0.0387975 0)
(-0.0444003 0.0396583 0)
(-0.050126 0.0416177 0)
(-0.0573427 0.0451221 0)
(-0.0666241 0.0505221 0)
(-0.0784424 0.0579622 0)
(-0.0931542 0.0673151 0)
(-0.110829 0.078149 0)
(-0.131232 0.0897305 0)
(-0.153707 0.10105 0)
(-0.177231 0.110918 0)
(-0.200481 0.118137 0)
(-0.222109 0.121748 0)
(-0.240984 0.121235 0)
(-0.256419 0.1166 0)
(-0.268209 0.108277 0)
(-0.276577 0.0969583 0)
(-0.282016 0.0834193 0)
(-0.28516 0.0683802 0)
(-0.286642 0.0524282 0)
(-0.287039 0.0359973 0)
(-0.286818 0.0193717 0)
(-0.286351 0.00271785 0)
(-0.28592 -0.0138974 0)
(-0.285751 -0.0304734 0)
(-0.286006 -0.047073 0)
(-0.286793 -0.063788 0)
(-0.288119 -0.0807365 0)
(-0.289843 -0.0979928 0)
(-0.291578 -0.115545 0)
(-0.292613 -0.133153 0)
(-0.291833 -0.150258 0)
(-0.287722 -0.165804 0)
(-0.278487 -0.178215 0)
(-0.262341 -0.185399 0)
(-0.238015 -0.185079 0)
(-0.205361 -0.175322 0)
(-0.166023 -0.155435 0)
(-0.123652 -0.126853 0)
(-0.0834048 -0.0935046 0)
(-0.0501897 -0.0608777 0)
(-0.0265349 -0.0335379 0)
(-0.0118014 -0.0134489 0)
(-0.00369833 -5.45114e-05 0)
(-1.69849e-05 0.00783003 0)
(0.00109169 0.0113181 0)
(0.000787942 0.010704 0)
(0.000182058 0.00554999 0)
(-0.000274817 0.0104154 0)
(-0.0018477 0.0241772 0)
(-0.00442402 0.0327411 0)
(-0.00742558 0.0377441 0)
(-0.010792 0.0404816 0)
(-0.0142346 0.0418656 0)
(-0.0178152 0.0424964 0)
(-0.0213978 0.042715 0)
(-0.0250733 0.0427164 0)
(-0.028786 0.0426159 0)
(-0.0326633 0.0425465 0)
(-0.0367757 0.0427133 0)
(-0.0414035 0.0434575 0)
(-0.0468731 0.0452527 0)
(-0.0537236 0.0486565 0)
(-0.0625126 0.0541759 0)
(-0.0738365 0.0621247 0)
(-0.0880996 0.0724949 0)
(-0.105483 0.0849 0)
(-0.125764 0.0985531 0)
(-0.148301 0.112298 0)
(-0.171966 0.1247 0)
(-0.195309 0.134256 0)
(-0.216779 0.13971 0)
(-0.235102 0.140351 0)
(-0.249514 0.136143 0)
(-0.259871 0.127636 0)
(-0.266524 0.115726 0)
(-0.270157 0.101408 0)
(-0.271553 0.0855806 0)
(-0.271465 0.0689488 0)
(-0.270496 0.052 0)
(-0.269091 0.0350377 0)
(-0.26754 0.0182238 0)
(-0.266038 0.00163446 0)
(-0.264718 -0.0147185 0)
(-0.263715 -0.030858 0)
(-0.263173 -0.0468603 0)
(-0.26328 -0.0628392 0)
(-0.264221 -0.0789813 0)
(-0.266157 -0.0955007 0)
(-0.269112 -0.112641 0)
(-0.272855 -0.130533 0)
(-0.276743 -0.149102 0)