/*--------------------------------*- C++ -*----------------------------------*\
| =========                 |                                                 |
| \\      /  F ield         | OpenFOAM: The Open Source CFD Toolbox           |
|  \\    /   O peration     | Version:  2406                                  |
|   \\  /    A nd           | Website:  www.openfoam.com                      |
|    \\/     M anipulation  |                                                 |
\*---------------------------------------------------------------------------*/
FoamFile
{
    version     2.0;
    format      ascii;
    arch        "LSB;label=32;scalar=64";
    class       volScalarField;
    location    "24.05";
    object      p;
}
// * * * * * * * * * * * * * * * * * * * * * * * * * * * * * * * * * * * * * //

dimensions      [0 2 -2 0 0 0 0];

internalField   nonuniform List<scalar> 
14400
(
-7.68066e-09
4.24575e-06
8.26637e-06
8.7533e-06
4.42578e-06
-5.37907e-06
-2.08179e-05
-4.1735e-05
-6.78064e-05
-9.8629e-05
-0.000133777
-0.000172843
-0.000215459
-0.000261321
-0.000310193
-0.000361914
-0.000416407
-0.000473695
-0.000533882
-0.000597068
-0.000663508
-0.000733518
-0.000807454
-0.000885718
-0.000968744
-0.00105699
-0.00115091
-0.00125097
-0.00135759
-0.00147117
-0.00159204
-0.00172047
-0.00185665
-0.00200064
-0.00215238
-0.00231168
-0.00247815
-0.00265117
-0.00282995
-0.00301337
-0.00320008
-0.0033884
-0.00357634
-0.00376158
-0.00394151
-0.00411317
-0.00427337
-0.00441865
-0.00454538
-0.00464982
-0.00472819
-0.00477676
-0.004792
-0.00477063
-0.00470977
-0.00460707
-0.00446083
-0.00427008
-0.00403475
-0.00375573
-0.00343495
-0.00307543
-0.00268108
-0.00225734
-0.00181099
-0.0013491
-0.000879968
-0.000412675
4.31863e-05
0.000477724
0.000881027
0.00124348
0.00155606
0.00181071
0.00200061
0.0021205
0.00216687
0.00213819
0.00203495
0.00185972
0.001617
0.0013131
0.000955825
0.000554178
0.000117954
-0.000342657
-0.000817483
-0.00129675
-0.00177142
-0.00223343
-0.00267598
-0.00309389
-0.00348263
-0.00383929
-0.00416253
-0.00445194
-0.00470799
-0.00493197
-0.00512572
-0.00529151
-0.00543185
-0.00554937
-0.00564671
-0.00572641
-0.00579088
-0.00584232
-0.00588273
-0.00591386
-0.0059372
-0.005954
-0.00596527
-0.00597176
-0.00597404
-0.0059725
-0.00596749
-0.00595941
-0.00594896
-0.00593741
-0.00592692
-0.00592047
-4.24796e-06
1.39862e-08
3.70534e-06
3.36254e-06
-1.61565e-06
-1.17613e-05
-2.72462e-05
-4.79558e-05
-7.36155e-05
-0.000103871
-0.000138335
-0.000176631
-0.000218412
-0.000263387
-0.000311329
-0.000362083
-0.000415568
-0.000471757
-0.000530774
-0.000592765
-0.000657942
-0.000726586
-0.000799038
-0.000875684
-0.000956942
-0.00104325
-0.00113505
-0.00123279
-0.00133689
-0.00144772
-0.00156563
-0.0016909
-0.00182372
-0.00196418
-0.00211227
-0.00226781
-0.00243046
-0.0025997
-0.00277476
-0.00295463
-0.00313804
-0.00332338
-0.00350878
-0.00369199
-0.00387049
-0.00404142
-0.00420164
-0.00434777
-0.00447623
-0.00458329
-0.00466521
-0.00471825
-0.00473885
-0.00472369
-0.00466983
-0.00457485
-0.00443693
-0.00425502
-0.00402892
-0.0037594
-0.0034482
-0.00309825
-0.00271382
-0.00229969
-0.00186212
-0.00140857
-0.000947285
-0.000487205
-3.78561e-05
0.000390921
0.000789248
0.00114752
0.00145672
0.00170877
0.00189685
0.00201566
0.00206169
0.00203339
0.00193126
0.00175785
0.00151771
0.00121714
0.000863976
0.000467227
3.66814e-05
-0.000417504
-0.000885216
-0.00135678
-0.00182328
-0.00227687
-0.00271089
-0.00311982
-0.00349987
-0.00384862
-0.00416454
-0.00444729
-0.0046975
-0.0049165
-0.00510617
-0.00526876
-0.00540675
-0.0055227
-0.00561916
-0.00569857
-0.00576325
-0.00581531
-0.00585664
-0.00588891
-0.00591355
-0.00593177
-0.00594454
-0.00595262
-0.00595658
-0.00595685
-0.0059538
-0.00594782
-0.00593954
-0.00592997
-0.00592048
-0.00591399
-8.32243e-06
-3.70534e-06
-8.20396e-09
-1.11149e-06
-6.7788e-06
-1.73528e-05
-3.29807e-05
-5.35643e-05
-7.88647e-05
-0.000108568
-0.000142324
-0.00017978
-0.000220611
-0.000264537
-0.000311336
-0.000360856
-0.000413022
-0.000467815
-0.000525276
-0.000585594
-0.000648967
-0.00071566
-0.000785997
-0.000860349
-0.000939116
-0.00102272
-0.00111161
-0.0012062
-0.00130691
-0.00141415
-0.00152826
-0.00164954
-0.00177823
-0.00191448
-0.00205833
-0.00220968
-0.0023683
-0.00253375
-0.00270539
-0.00288232
-0.00306339
-0.00324712
-0.00343174
-0.00361512
-0.00379481
-0.00396804
-0.0041317
-0.00428244
-0.00441666
-0.00453061
-0.00462049
-0.00468247
-0.00471288
-0.00470829
-0.00466561
-0.00458228
-0.00445633
-0.00428656
-0.00407261
-0.00381508
-0.00351561
-0.00317685
-0.00280284
-0.00239885
-0.00197072
-0.00152565
-0.00107183
-0.000618182
-0.000174216
0.000250231
0.000645265
0.00100124
0.00130909
0.00156066
0.00174904
0.00186884
0.00191648
0.00189032
0.00179081
0.00162049
0.00138387
0.00108731
0.000738663
0.000347004
-7.78212e-05
-0.000525602
-0.000986193
-0.00144991
-0.00190787
-0.00235228
-0.0027766
-0.0031756
-0.00354571
-0.00388456
-0.00419081
-0.00446437
-0.00470606
-0.00491737
-0.00510027
-0.00525709
-0.00539031
-0.00550249
-0.00559611
-0.00567356
-0.00573703
-0.00578853
-0.00582985
-0.00586256
-0.00588801
-0.00590732
-0.00592143
-0.00593107
-0.0059368
-0.00593905
-0.00593817
-0.00593448
-0.00592843
-0.00592062
-0.00591112
-0.00590355
-9.01825e-06
-3.55024e-06
8.62318e-07
-3.38491e-07
-6.32263e-06
-1.72322e-05
-3.31235e-05
-5.38471e-05
-7.9141e-05
-0.000108685
-0.000142128
-0.000179121
-0.000219337
-0.000262495
-0.000308373
-0.000356809
-0.000407719
-0.000461109
-0.000517018
-0.000575593
-0.000637041
-0.000701632
-0.00076969
-0.000841586
-0.000917727
-0.000998546
-0.00108449
-0.00117601
-0.00127357
-0.00137758
-0.00148845
-0.00160657
-0.00173223
-0.00186569
-0.0020071
-0.0021565
-0.00231378
-0.00247865
-0.00265061
-0.0028289
-0.00301247
-0.00319998
-0.00338971
-0.00357958
-0.00376714
-0.00394957
-0.0041237
-0.00428606
-0.00443289
-0.00456028
-0.0046642
-0.00474062
-0.00478567
-0.00479567
-0.00476735
-0.00469794
-0.00458531
-0.00442809
-0.00422577
-0.00397884
-0.00368887
-0.0033585
-0.00299141
-0.00259281
-0.0021688
-0.0017265
-0.00127402
-0.000820332
-0.000374981
5.21061e-05
0.000450913
0.000811641
0.00112504
0.00138274
0.0015776
0.00170402
0.00175816
0.00173821
0.00164445
0.00147929
0.00124722
0.000954579
0.000609323
0.000220653
-0.000201396
-0.000646398
-0.00110398
-0.00156423
-0.00201809
-0.00245761
-0.00287618
-0.00326867
-0.00363142
-0.00396196
-0.0042594
-0.00452387
-0.00475636
-0.0049586
-0.0051328
-0.00528146
-0.00540723
-0.00551277
-0.00560063
-0.00567321
-0.0057327
-0.00578106
-0.00582001
-0.00585104
-0.00587542
-0.00589421
-0.00590827
-0.00591827
-0.00592473
-0.00592799
-0.00592829
-0.00592579
-0.00592069
-0.00591316
-0.0059021
-0.00589254
-5.10628e-06
1.00833e-06
5.97799e-06
4.71962e-06
-1.57716e-06
-1.2901e-05
-2.92096e-05
-5.02824e-05
-7.58113e-05
-0.000105448
-0.000138822
-0.000175571
-0.000215359
-0.000257897
-0.000302953
-0.000350364
-0.000400039
-0.000451968
-0.000506215
-0.000562919
-0.000622296
-0.000684625
-0.000750248
-0.000819556
-0.000892983
-0.000970998
-0.00105409
-0.00114277
-0.00123756
-0.00133897
-0.00144751
-0.00156368
-0.00168793
-0.00182067
-0.00196223
-0.00211281
-0.00227251
-0.00244119
-0.00261852
-0.00280387
-0.00299629
-0.00319446
-0.00339665
-0.00360073
-0.00380412
-0.00400381
-0.00419642
-0.00437818
-0.00454509
-0.00469291
-0.00481732
-0.00491401
-0.00497883
-0.00500788
-0.00499768
-0.00494528
-0.00484839
-0.00470553
-0.0045161
-0.00428047
-0.00400014
-0.00367769
-0.00331685
-0.00292255
-0.0025009
-0.00205902
-0.00160502
-0.00114786
-0.000697109
-0.000262789
0.000144956
0.000516142
0.000841278
0.00111171
0.00131998
0.0014601
0.00152789
0.00152117
0.0014399
0.00128623
0.00106444
0.000780761
0.000443141
6.08565e-05
-0.000355891
-0.000796437
-0.00125012
-0.00170671
-0.00215683
-0.00259225
-0.0030061
-0.00339305
-0.00374928
-0.00407247
-0.00436169
-0.00461718
-0.00484015
-0.00503253
-0.00519679
-0.00533569
-0.0054521
-0.00554888
-0.00562873
-0.00569416
-0.00574742
-0.00579047
-0.00582503
-0.00585254
-0.00587421
-0.00589102
-0.00590377
-0.00591304
-0.00591925
-0.00592267
-0.00592337
-0.00592133
-0.00591648
-0.00590862
-0.00589567
-0.00588403
4.1447e-06
1.05535e-05
1.57141e-05
1.42288e-05
7.47952e-06
-4.41517e-06
-2.13235e-05
-4.29515e-05
-6.89353e-05
-9.88862e-05
-0.000132405
-0.000169104
-0.000208631
-0.000250684
-0.00029502
-0.000341469
-0.000389939
-0.000440419
-0.000492981
-0.000547781
-0.000605053
-0.000665108
-0.000728322
-0.000795136
-0.000866043
-0.000941581
-0.00102233
-0.00110891
-0.00120196
-0.00130215
-0.00141017
-0.00152669
-0.0016524
-0.00178792
-0.00193381
-0.00209052
-0.00225833
-0.0024373
-0.0026272
-0.00282747
-0.00303717
-0.00325487
-0.00347872
-0.00370633
-0.00393482
-0.00416087
-0.0043807
-0.00459017
-0.00478487
-0.00496022
-0.00511157
-0.00523432
-0.00532406
-0.00537671
-0.00538861
-0.0053567
-0.00527859
-0.00515271
-0.00497836
-0.00475588
-0.00448664
-0.00417313
-0.00381902
-0.00342912
-0.00300936
-0.00256679
-0.00210942
-0.00164613
-0.00118649
-0.000740546
-0.000318536
6.9367e-05
0.000413407
0.000704581
0.000934989
0.00109817
0.00118941
0.00120597
0.00114728
0.001015
0.000812993
0.0005472
0.000225365
-0.000143297
-0.000548518
-0.000979453
-0.00142516
-0.00187507
-0.00231941
-0.00274954
-0.00315822
-0.00353976
-0.00389008
-0.00420668
-0.00448851
-0.00473577
-0.00494976
-0.00513256
-0.0052868
-0.00541549
-0.00552175
-0.00560865
-0.00567913
-0.00573585
-0.0057812
-0.00581725
-0.00584572
-0.00586809
-0.00588552
-0.00589896
-0.00590912
-0.00591652
-0.00592148
-0.00592415
-0.00592447
-0.00592222
-0.00591712
-0.00590862
-0.00589385
-0.00588038
1.91055e-05
2.54527e-05
3.0399e-05
2.84316e-05
2.10168e-05
8.35032e-06
-9.35796e-06
-3.17445e-05
-5.83881e-05
-8.88548e-05
-0.000122709
-0.000159537
-0.000198964
-0.000240671
-0.000284404
-0.000329989
-0.000377334
-0.000426439
-0.000477394
-0.000530384
-0.000585684
-0.000643658
-0.000704752
-0.000769491
-0.000838472
-0.00091236
-0.000991884
-0.00107784
-0.00117107
-0.00127247
-0.001383
-0.0015036
-0.00163525
-0.00177887
-0.00193527
-0.00210514
-0.00228895
-0.00248686
-0.00269867
-0.00292376
-0.00316099
-0.00340871
-0.0036647
-0.00392615
-0.00418976
-0.00445169
-0.00470772
-0.00495324
-0.00518346
-0.00539342
-0.00557818
-0.00573289
-0.00585297
-0.00593418
-0.00597278
-0.00596561
-0.00591022
-0.00580496
-0.00564907
-0.00544278
-0.00518734
-0.00488508
-0.0045395
-0.00415519
-0.0037379
-0.00329443
-0.0028326
-0.00236112
-0.00188942
-0.00142749
-0.000985634
-0.000574154
-0.000203079
0.000118194
0.000381251
0.000579006
0.000706026
0.000758812
0.000736004
0.000638502
0.000469481
0.000234287
-5.97777e-05
-0.000403781
-0.00078757
-0.00120025
-0.00163067
-0.00206794
-0.00250187
-0.00292334
-0.00332463
-0.00369956
-0.00404361
-0.0043539
-0.00462909
-0.00486918
-0.00507535
-0.00524967
-0.00539486
-0.00551404
-0.00561051
-0.00568757
-0.00574838
-0.00579581
-0.00583243
-0.00586045
-0.00588171
-0.00589774
-0.00590972
-0.0059186
-0.00592506
-0.00592954
-0.0059323
-0.00593338
-0.00593259
-0.00592956
-0.0059238
-0.00591451
-0.00589822
-0.00588331
3.99724e-05
4.59236e-05
5.02548e-05
4.75154e-05
3.91897e-05
2.55331e-05
6.82415e-06
-1.65113e-05
-4.3998e-05
-7.51571e-05
-0.000109517
-0.000146635
-0.000186114
-0.000227618
-0.000270887
-0.000315745
-0.000362111
-0.000410005
-0.000459556
-0.000510997
-0.000564675
-0.000621041
-0.000680654
-0.000744177
-0.00081237
-0.000886097
-0.000966318
-0.00105409
-0.00115056
-0.00125695
-0.00137456
-0.00150469
-0.00164866
-0.00180769
-0.00198288
-0.00217507
-0.00238483
-0.00261228
-0.00285709
-0.00311836
-0.0033946
-0.00368369
-0.00398287
-0.00428881
-0.00459761
-0.00490493
-0.00520602
-0.00549585
-0.00576924
-0.00602094
-0.00624576
-0.0064387
-0.00659503
-0.00671044
-0.00678111
-0.00680383
-0.00677609
-0.00669616
-0.00656318
-0.00637724
-0.0061394
-0.0058518
-0.00551764
-0.00514124
-0.00472799
-0.00428437
-0.00381786
-0.00333685
-0.00285055
-0.00236875
-0.00190169
-0.00145974
-0.00105317
-0.000691759
-0.000384486
-0.000139174
3.7867e-05
0.000142144
0.000171238
0.000124972
5.48835e-06
-0.0001828
-0.000433375
-0.000737895
-0.00108659
-0.00146871
-0.00187306
-0.00228851
-0.00270446
-0.00311129
-0.00350069
-0.00386589
-0.00420178
-0.00450493
-0.0047735
-0.00500711
-0.00520662
-0.0053739
-0.00551156
-0.00562271
-0.00571071
-0.005779
-0.0058309
-0.00586947
-0.00589749
-0.00591732
-0.00593098
-0.0059401
-0.00594594
-0.00594949
-0.00595143
-0.00595219
-0.00595198
-0.00595078
-0.00594829
-0.00594402
-0.00593734
-0.00592723
-0.00590985
-0.00589399
6.68785e-05
7.21255e-05
7.54641e-05
7.16618e-05
6.21775e-05
4.73176e-05
2.74209e-05
2.96692e-06
-2.55217e-05
-5.75259e-05
-9.25411e-05
-0.000130098
-0.000169781
-0.000211243
-0.000254221
-0.000298549
-0.000344172
-0.000391149
-0.00043967
-0.000490053
-0.000542754
-0.000598362
-0.000657608
-0.000721361
-0.00079063
-0.000866565
-0.000950457
-0.00104373
-0.00114793
-0.0012647
-0.00139574
-0.00154279
-0.00170748
-0.00189132
-0.00209558
-0.00232117
-0.00256853
-0.0028376
-0.00312765
-0.00343732
-0.00376455
-0.00410658
-0.00446004
-0.00482095
-0.00518481
-0.00554673
-0.00590151
-0.00624372
-0.00656787
-0.00686848
-0.00714017
-0.00737783
-0.00757665
-0.00773226
-0.00784079
-0.00789901
-0.00790433
-0.00785495
-0.00774988
-0.00758904
-0.00737326
-0.00710442
-0.00678537
-0.00642003
-0.00601336
-0.00557139
-0.0051011
-0.00461044
-0.00410819
-0.00360382
-0.00310734
-0.00262905
-0.00217932
-0.00176826
-0.00140539
-0.0010993
-0.000857294
-0.000685046
-0.000586298
-0.000562625
-0.000613301
-0.000735257
-0.000923181
-0.00116974
-0.0014659
-0.00180139
-0.00216521
-0.00254613
-0.00293325
-0.00331645
-0.0036868
-0.00403681
-0.00436065
-0.00465417
-0.00491485
-0.00514171
-0.00533512
-0.0054965
-0.00562818
-0.00573307
-0.00581443
-0.00587569
-0.00592022
-0.00595123
-0.00597163
-0.00598396
-0.0059904
-0.00599273
-0.00599234
-0.0059903
-0.00598734
-0.00598394
-0.00598029
-0.00597633
-0.00597174
-0.00596593
-0.00595818
-0.00594732
-0.0059293
-0.005913
9.99364e-05
0.000104194
0.000106191
0.000101053
9.01811e-05
7.39257e-05
5.26784e-05
2.69624e-05
-2.66192e-06
-3.56427e-05
-7.14491e-05
-0.000109592
-0.000149644
-0.000191255
-0.000234173
-0.000278258
-0.0003235
-0.000370029
-0.000418132
-0.000468255
-0.000521019
-0.000577219
-0.000637836
-0.000704034
-0.000777171
-0.00085879
-0.000950622
-0.00105456
-0.00117264
-0.001307
-0.00145979
-0.00163311
-0.00182891
-0.00204884
-0.00229418
-0.00256568
-0.00286348
-0.00318704
-0.00353508
-0.00390554
-0.00429566
-0.00470197
-0.00512038
-0.00554624
-0.00597451
-0.00639977
-0.0068164
-0.00721865
-0.00760076
-0.00795705
-0.00828205
-0.00857055
-0.0088177
-0.0090191
-0.0091709
-0.00926982
-0.00931325
-0.00929932
-0.00922693
-0.00909581
-0.00890659
-0.0086608
-0.00836094
-0.00801045
-0.00761378
-0.00717637
-0.0067046
-0.00620579
-0.00568813
-0.00516053
-0.00463258
-0.00411431
-0.00361597
-0.00314782
-0.00271979
-0.00234119
-0.00202031
-0.00176408
-0.00157777
-0.00146463
-0.00142573
-0.00145979
-0.0015632
-0.00173014
-0.00195282
-0.0022219
-0.00252694
-0.0028569
-0.00320077
-0.00354802
-0.00388909
-0.00421573
-0.00452123
-0.00480054
-0.00505031
-0.00526874
-0.00545546
-0.0056113
-0.00573804
-0.0058382
-0.00591475
-0.00597094
-0.00601008
-0.00603535
-0.00604974
-0.00605593
-0.00605622
-0.00605254
-0.00604643
-0.00603907
-0.00603132
-0.0060237
-0.00601647
-0.00600958
-0.00600271
-0.00599523
-0.00598637
-0.00597491
-0.00595671
-0.00594045
0.000139243
0.000142241
0.00014257
0.000135851
0.00012339
0.000105578
8.28481e-05
5.57554e-05
2.48859e-05
-9.18644e-06
-4.59144e-05
-8.47994e-05
-0.000125413
-0.000167418
-0.000210591
-0.000254844
-0.000300243
-0.000347031
-0.000395638
-0.000446705
-0.000501088
-0.000559875
-0.000624392
-0.000696208
-0.000777142
-0.000869246
-0.000974795
-0.00109625
-0.00123618
-0.00139723
-0.00158196
-0.00179278
-0.00203175
-0.00230051
-0.0026001
-0.00293088
-0.00329243
-0.00368353
-0.00410213
-0.00454539
-0.00500971
-0.00549088
-0.00598406
-0.00648401
-0.00698508
-0.00748143
-0.00796704
-0.00843587
-0.00888197
-0.00929951
-0.00968294
-0.010027
-0.0103269
-0.0105783
-0.0107773
-0.0109208
-0.0110061
-0.0110313
-0.0109953
-0.0108978
-0.010739
-0.0105202
-0.0102436
-0.00991212
-0.00952956
-0.00910073
-0.00863128
-0.00812776
-0.00759755
-0.00704884
-0.00649049
-0.00593199
-0.00538321
-0.00485426
-0.00435523
-0.00389589
-0.00348538
-0.00313184
-0.00284207
-0.0026212
-0.00247236
-0.00239648
-0.00239217
-0.00245571
-0.00258117
-0.00276073
-0.00298506
-0.00324382
-0.00352619
-0.00382148
-0.00411959
-0.0044115
-0.00468953
-0.00494761
-0.00518131
-0.0053878
-0.00556576
-0.00571516
-0.00583706
-0.00593334
-0.00600649
-0.0060594
-0.00609509
-0.00611665
-0.00612698
-0.0061288
-0.00612449
-0.0061161
-0.00610531
-0.00609342
-0.00608143
-0.00606996
-0.00605936
-0.00604966
-0.00604057
-0.00603148
-0.00602161
-0.00600973
-0.00599181
-0.00597603
0.000184864
0.000186342
0.000184692
0.000176174
0.00016196
0.000142465
0.000118155
8.95993e-05
5.73957e-05
2.21262e-05
-1.56592e-05
-5.54668e-05
-9.68847e-05
-0.000139609
-0.000183474
-0.000228477
-0.000274806
-0.000322869
-0.000373312
-0.000427045
-0.000485254
-0.000549422
-0.000621336
-0.00070309
-0.000797078
-0.00090597
-0.00103267
-0.00118023
-0.00135179
-0.00155042
-0.00177898
-0.00203998
-0.00233541
-0.00266662
-0.00303416
-0.00343773
-0.00387615
-0.00434732
-0.00484831
-0.00537537
-0.00592407
-0.00648938
-0.00706577
-0.00764735
-0.00822797
-0.00880133
-0.0093611
-0.00990099
-0.0104149
-0.0108969
-0.0113415
-0.0117435
-0.0120981
-0.0124013
-0.0126491
-0.0128387
-0.0129676
-0.0130338
-0.0130364
-0.0129747
-0.0128491
-0.0126606
-0.0124108
-0.0121023
-0.0117383
-0.0113229
-0.0108609
-0.0103579
-0.00982051
-0.00925581
-0.00867176
-0.00807695
-0.00748056
-0.00689217
-0.00632161
-0.00577877
-0.00527327
-0.00481419
-0.00440969
-0.00406672
-0.00379059
-0.0035847
-0.00345031
-0.00338637
-0.0033895
-0.00345414
-0.00357281
-0.00373652
-0.00393528
-0.00415863
-0.00439625
-0.00463845
-0.00487661
-0.00510348
-0.00531339
-0.00550225
-0.00566752
-0.00580806
-0.00592393
-0.00601617
-0.00608657
-0.00613741
-0.00617131
-0.00619102
-0.00619927
-0.00619866
-0.00619157
-0.00618011
-0.00616604
-0.00615081
-0.00613552
-0.00612094
-0.00610754
-0.00609543
-0.00608441
-0.00607394
-0.00606328
-0.00605123
-0.006034
-0.00601907
0.000236808
0.000236512
0.000232586
0.000222079
0.000205985
0.000184719
0.000158763
0.000128684
9.50707e-05
5.84968e-05
1.94972e-05
-2.14589e-05
-6.39999e-05
-0.000107886
-0.000153045
-0.000199608
-0.000247947
-0.000298706
-0.000352829
-0.000411595
-0.000476632
-0.000549937
-0.00063388
-0.000731199
-0.000844969
-0.000978551
-0.00113551
-0.00131949
-0.00153409
-0.00178267
-0.00206819
-0.00239302
-0.00275879
-0.00316626
-0.00361526
-0.00410459
-0.00463211
-0.00519474
-0.00578852
-0.00640878
-0.00705019
-0.0077069
-0.00837267
-0.00904101
-0.00970527
-0.0103588
-0.0109949
-0.0116072
-0.0121895
-0.0127361
-0.0132413
-0.0137003
-0.0141086
-0.0144622
-0.0147578
-0.0149925
-0.015164
-0.0152708
-0.0153118
-0.0152866
-0.0151953
-0.0150388
-0.0148185
-0.0145364
-0.0141952
-0.0137983
-0.0133497
-0.012854
-0.0123167
-0.0117438
-0.0111422
-0.0105192
-0.00988291
-0.00924205
-0.00860573
-0.00798341
-0.0073847
-0.00681909
-0.00629571
-0.00582296
-0.00540817
-0.0050572
-0.00477418
-0.00456113
-0.00441785
-0.00434181
-0.00432826
-0.00437046
-0.00446006
-0.00458761
-0.00474311
-0.00491658
-0.00509863
-0.00528086
-0.0054562
-0.00561909
-0.0057655
-0.00589287
-0.00599999
-0.00608677
-0.00615401
-0.00620322
-0.00623636
-0.00625568
-0.00626357
-0.00626239
-0.00625439
-0.00624163
-0.00622592
-0.00620879
-0.00619145
-0.0061748
-0.00615942
-0.00614557
-0.00613314
-0.0061217
-0.00611056
-0.00609863
-0.00608244
-0.00606865
0.000294998
0.000292671
0.000286189
0.000273532
0.000255464
0.000232377
0.00020474
0.000173094
0.000137999
9.99967e-05
5.95853e-05
1.71834e-05
-2.69097e-05
-7.2558e-05
-0.000119835
-0.000169068
-0.000220888
-0.000276263
-0.000336543
-0.000403489
-0.000479293
-0.000566594
-0.000668466
-0.000788392
-0.000930198
-0.00109796
-0.00129587
-0.00152805
-0.00179839
-0.00211033
-0.00246662
-0.00286922
-0.00331908
-0.00381613
-0.00435918
-0.00494599
-0.00557329
-0.00623687
-0.00693172
-0.00765216
-0.00839192
-0.00914435
-0.00990252
-0.0106594
-0.0114078
-0.0121409
-0.0128518
-0.0135341
-0.0141817
-0.014789
-0.0153509
-0.0158626
-0.0163202
-0.01672
-0.0170591
-0.017335
-0.017546
-0.0176905
-0.0177678
-0.0177776
-0.01772
-0.0175958
-0.0174062
-0.0171529
-0.016838
-0.0164643
-0.0160349
-0.0155536
-0.0150248
-0.0144533
-0.0138446
-0.0132047
-0.0125405
-0.0118593
-0.0111691
-0.0104783
-0.00979589
-0.0091312
-0.0084936
-0.00789233
-0.0073362
-0.00683319
-0.00639009
-0.00601214
-0.00570265
-0.00546276
-0.00529131
-0.0051848
-0.00513762
-0.00514235
-0.00519023
-0.00527174
-0.0053772
-0.00549731
-0.00562365
-0.00574902
-0.00586766
-0.00597528
-0.00606903
-0.00614737
-0.00620983
-0.00625683
-0.00628946
-0.00630926
-0.00631807
-0.00631788
-0.00631067
-0.00629837
-0.00628272
-0.00626526
-0.00624729
-0.0062298
-0.0062135
-0.00619876
-0.00618562
-0.00617374
-0.00616254
-0.00615105
-0.00613618
-0.00612373
0.000359286
0.000354577
0.0003453
0.000330382
0.000310277
0.000285346
0.000256016
0.000222768
0.000186106
0.000146516
0.000104429
6.01802e-05
1.39548e-05
-3.42676e-05
-8.47706e-05
-0.000138159
-0.000195412
-0.000257934
-0.000327597
-0.00040677
-0.000498342
-0.000605711
-0.000732757
-0.000883769
-0.00106334
-0.0012762
-0.00152706
-0.00182032
-0.00215992
-0.00254904
-0.00298995
-0.00348383
-0.0040307
-0.00462938
-0.00527746
-0.00597147
-0.00670687
-0.00747826
-0.00827949
-0.00910381
-0.00994405
-0.0107928
-0.0116424
-0.0124854
-0.0133144
-0.0141224
-0.0149025
-0.0156484
-0.0163545
-0.0170154
-0.0176265
-0.0181836
-0.0186832
-0.0191222
-0.0194984
-0.0198095
-0.0200544
-0.0202318
-0.0203414
-0.020383
-0.0203569
-0.0202638
-0.0201047
-0.019881
-0.0195946
-0.0192476
-0.0188425
-0.0183823
-0.0178701
-0.0173098
-0.0167055
-0.0160619
-0.0153842
-0.0146783
-0.0139505
-0.013208
-0.0124584
-0.0117101
-0.010972
-0.0102534
-0.00956352
-0.00891187
-0.00830729
-0.00775781
-0.00727021
-0.00684954
-0.00649881
-0.0062187
-0.00600746
-0.00586096
-0.00577296
-0.00573553
-0.00573963
-0.0057757
-0.00583434
-0.00590678
-0.00598538
-0.00606383
-0.00613729
-0.00620234
-0.00625687
-0.00629988
-0.00633128
-0.00635166
-0.00636211
-0.00636405
-0.00635905
-0.00634876
-0.00633478
-0.00631858
-0.00630146
-0.00628448
-0.00626844
-0.00625382
-0.00624077
-0.00622909
-0.00621831
-0.00620759
-0.00619425
-0.00618326
0.000429283
0.000421926
0.000409547
0.00039229
0.000370133
0.000343367
0.000312342
0.00027745
0.000239106
0.000197707
0.000153584
0.000106946
5.781e-05
5.93269e-06
-4.92607e-05
-0.000108746
-0.000173964
-0.000246876
-0.000330003
-0.000426459
-0.000539944
-0.000674716
-0.000835516
-0.00102745
-0.0012558
-0.00152584
-0.00184254
-0.00221035
-0.0026329
-0.00311279
-0.00365146
-0.00424902
-0.00490424
-0.00561459
-0.0063763
-0.00718447
-0.0080332
-0.00891581
-0.00982498
-0.0107529
-0.0116916
-0.0126329
-0.0135687
-0.0144913
-0.0153932
-0.0162674
-0.0171074
-0.0179074
-0.0186619
-0.0193665
-0.0200169
-0.0206098
-0.0211423
-0.021612
-0.0220171
-0.0223561
-0.0226281
-0.0228325
-0.0229692
-0.0230382
-0.0230399
-0.0229752
-0.0228449
-0.0226505
-0.0223932
-0.022075
-0.0216977
-0.0212635
-0.0207748
-0.0202344
-0.0196452
-0.0190106
-0.0183342
-0.0176203
-0.0168737
-0.0160995
-0.0153039
-0.0144937
-0.0136763
-0.0128602
-0.0120545
-0.0112686
-0.0105127
-0.00979665
-0.00913002
-0.00852149
-0.00797833
-0.00750587
-0.00710714
-0.00678257
-0.00652988
-0.00634424
-0.00621864
-0.00614445
-0.00611209
-0.00611172
-0.00613394
-0.00617028
-0.00621359
-0.00625815
-0.00629974
-0.00633553
-0.00636385
-0.00638403
-0.00639613
-0.0064008
-0.00639902
-0.00639202
-0.00638112
-0.00636766
-0.00635284
-0.00633773
-0.00632318
-0.00630975
-0.00629769
-0.00628691
-0.00627705
-0.00626742
-0.00625576
-0.00624625
0.000504344
0.000494169
0.000478427
0.000458747
0.000434545
0.000405966
0.000373244
0.00033664
0.000296444
0.000252928
0.000206279
0.000156524
0.000103448
4.65022e-05
-1.52746e-05
-8.3342e-05
-0.000159725
-0.000247072
-0.000348689
-0.00046855
-0.000611264
-0.000782004
-0.000986371
-0.00123021
-0.00151935
-0.00185935
-0.0022552
-0.00271098
-0.0032297
-0.00381302
-0.00446117
-0.0051729
-0.0059455
-0.00677487
-0.00765567
-0.00858148
-0.00954498
-0.0105382
-0.0115526
-0.0125795
-0.0136102
-0.0146361
-0.0156488
-0.0166406
-0.0176042
-0.018533
-0.0194209
-0.0202628
-0.021054
-0.0217907
-0.0224695
-0.0230878
-0.0236433
-0.0241345
-0.02456
-0.0249191
-0.0252112
-0.0254362
-0.0255941
-0.0256855
-0.0257109
-0.025671
-0.025567
-0.0253999
-0.025171
-0.0248819
-0.0245339
-0.0241287
-0.0236682
-0.0231541
-0.0225885
-0.0219735
-0.0213115
-0.0206052
-0.0198577
-0.0190723
-0.0182534
-0.0174056
-0.0165347
-0.0156474
-0.0147514
-0.0138555
-0.0129694
-0.0121038
-0.0112698
-0.0104788
-0.00974157
-0.00906807
-0.0084664
-0.0079424
-0.00749909
-0.00713636
-0.00685102
-0.00663703
-0.00648606
-0.00638828
-0.00633313
-0.00631018
-0.00630982
-0.00632369
-0.00634498
-0.00636847
-0.00639047
-0.00640859
-0.00642155
-0.00642892
-0.00643089
-0.00642809
-0.00642145
-0.00641199
-0.00640081
-0.00638887
-0.00637702
-0.00636585
-0.00635569
-0.00634652
-0.00633811
-0.00632987
-0.00631995
-0.00631188
0.000583719
0.000570467
0.000551143
0.000528999
0.000502778
0.000472414
0.000437974
0.000399545
0.000357248
0.000311186
0.00026135
0.00020752
0.000149167
8.53434e-05
1.45881e-05
-6.51654e-05
-0.000156659
-0.000263359
-0.000389476
-0.00053994
-0.000720323
-0.000936705
-0.00119547
-0.00150302
-0.00186552
-0.00228849
-0.00277654
-0.00333307
-0.00396001
-0.00465775
-0.00542499
-0.00625883
-0.00715483
-0.00810716
-0.00910878
-0.0101517
-0.0112272
-0.0123259
-0.0134386
-0.0145557
-0.015668
-0.0167668
-0.0178439
-0.0188917
-0.0199035
-0.0208733
-0.0217958
-0.0226668
-0.0234823
-0.0242395
-0.0249358
-0.0255692
-0.0261385
-0.0266425
-0.0270806
-0.0274525
-0.0277581
-0.0279976
-0.0281716
-0.0282804
-0.028325
-0.0283062
-0.0282251
-0.0280826
-0.0278801
-0.0276188
-0.0272999
-0.0269246
-0.0264943
-0.0260102
-0.0254735
-0.0248856
-0.0242477
-0.0235613
-0.0228279
-0.0220493
-0.0212279
-0.0203664
-0.0194684
-0.0185384
-0.017582
-0.0166063
-0.0156196
-0.0146317
-0.013654
-0.0126988
-0.0117794
-0.0109091
-0.0101007
-0.00936562
-0.00871285
-0.00814841
-0.00767469
-0.00729029
-0.00699013
-0.00676608
-0.00660774
-0.00650351
-0.00644157
-0.00641079
-0.00640135
-0.00640512
-0.00641576
-0.00642866
-0.0064407
-0.00645002
-0.00645571
-0.00645761
-0.00645605
-0.00645166
-0.00644526
-0.00643766
-0.00642964
-0.00642176
-0.00641438
-0.00640753
-0.00640104
-0.00639447
-0.00638628
-0.00637955
0.000666317
0.000649742
0.000626637
0.000602019
0.000573816
0.000541684
0.000505467
0.000465028
0.000420273
0.000371083
0.000317187
0.000258044
0.000192716
0.000119747
3.70511e-05
-5.81743e-05
-0.00016952
-0.000301391
-0.000458997
-0.000648277
-0.000875758
-0.00114834
-0.00147302
-0.00185652
-0.00230499
-0.00282355
-0.00341604
-0.00408472
-0.00483011
-0.00565093
-0.00654409
-0.00750477
-0.00852662
-0.00960197
-0.010722
-0.0118773
-0.0130576
-0.0142529
-0.0154528
-0.0166477
-0.0178282
-0.0189857
-0.0201125
-0.0212017
-0.0222473
-0.0232443
-0.0241883
-0.025076
-0.0259044
-0.0266715
-0.0273755
-0.0280155
-0.0285905
-0.0291001
-0.0295443
-0.0299231
-0.0302369
-0.030486
-0.0306713
-0.0307934
-0.0308532
-0.0308517
-0.0307899
-0.030669
-0.0304901
-0.0302542
-0.0299624
-0.0296159
-0.0292156
-0.0287622
-0.0282567
-0.0276996
-0.0270916
-0.026433
-0.0257243
-0.0249661
-0.0241589
-0.0233037
-0.0224021
-0.0214563
-0.0204694
-0.019446
-0.0183922
-0.0173159
-0.0162269
-0.015137
-0.01406
-0.013011
-0.0120061
-0.0110613
-0.0101915
-0.00940933
-0.0087242
-0.00814122
-0.00766088
-0.00727905
-0.00698755
-0.00677513
-0.00662875
-0.00653484
-0.00648042
-0.00645398
-0.00644592
-0.00644871
-0.00645682
-0.00646644
-0.0064752
-0.0064818
-0.00648579
-0.00648723
-0.00648654
-0.0064843
-0.00648111
-0.00647745
-0.00647365
-0.00646976
-0.00646567
-0.006461
-0.00645449
-0.00644893
0.000750727
0.000730613
0.000703548
0.000676462
0.000646315
0.000612407
0.000574295
0.000531567
0.000483858
0.000430767
0.000371688
0.000305667
0.000231252
0.000146356
4.81431e-05
-6.70602e-05
-0.000203812
-0.000367554
-0.000564547
-0.00080173
-0.0010865
-0.00142642
-0.00182882
-0.00230044
-0.00284698
-0.00347277
-0.00418044
-0.0049707
-0.00584231
-0.00679198
-0.00781456
-0.00890315
-0.0100494
-0.0112437
-0.0124757
-0.0137344
-0.0150088
-0.0162879
-0.0175613
-0.0188191
-0.0200525
-0.0212533
-0.0224148
-0.0235308
-0.0245965
-0.0256078
-0.0265615
-0.0274551
-0.0282868
-0.0290553
-0.0297596
-0.0303992
-0.0309741
-0.0314842
-0.0319298
-0.0323113
-0.0326293
-0.0328844
-0.0330775
-0.0332094
-0.0332811
-0.0332937
-0.0332481
-0.0331454
-0.0329868
-0.0327733
-0.0325059
-0.0321855
-0.0318129
-0.0313888
-0.0309138
-0.030388
-0.0298116
-0.0291844
-0.0285062
-0.0277765
-0.0269948
-0.0261605
-0.0252734
-0.0243337
-0.0233422
-0.0223009
-0.021213
-0.0200837
-0.0189201
-0.0177321
-0.0165318
-0.0153343
-0.0141568
-0.0130182
-0.0119378
-0.0109345
-0.010025
-0.00922211
-0.00853403
-0.00796316
-0.00750619
-0.00715464
-0.00689601
-0.00671543
-0.00659717
-0.00652617
-0.00648902
-0.00647458
-0.00647413
-0.00648129
-0.00649165
-0.00650242
-0.00651201
-0.00651973
-0.00652544
-0.00652936
-0.00653183
-0.0065332
-0.00653369
-0.00653335
-0.00653204
-0.00652948
-0.00652456
-0.00652
0.000835192
0.000811352
0.000780176
0.000750643
0.000718577
0.000682837
0.000642631
0.000597211
0.000545884
0.000487894
0.000422218
0.000347387
0.000261317
0.000161166
4.32151e-05
-9.71974e-05
-0.000265695
-0.000468811
-0.000713853
-0.00100868
-0.0013614
-0.00177996
-0.00227172
-0.002843
-0.00349866
-0.00424175
-0.00507327
-0.00599202
-0.00699461
-0.00807553
-0.00922736
-0.010441
-0.0117062
-0.0130114
-0.014345
-0.015695
-0.0170496
-0.0183976
-0.0197288
-0.0210338
-0.0223043
-0.0235335
-0.0247152
-0.0258449
-0.0269187
-0.0279335
-0.0288874
-0.0297788
-0.0306066
-0.0313703
-0.0320697
-0.0327048
-0.0332759
-0.0337832