/*--------------------------------*- C++ -*----------------------------------*\
| =========                 |                                                 |
| \\      /  F ield         | OpenFOAM: The Open Source CFD Toolbox           |
|  \\    /   O peration     | Version:  2406                                  |
|   \\  /    A nd           | Website:  www.openfoam.com                      |
|    \\/     M anipulation  |                                                 |
\*---------------------------------------------------------------------------*/
FoamFile
{
    version     2.0;
    format      ascii;
    arch        "LSB;label=32;scalar=64";
    class       surfaceScalarField;
    location    "26";
    object      phi_0;
}
// * * * * * * * * * * * * * * * * * * * * * * * * * * * * * * * * * * * * * //

dimensions      [0 3 -1 0 0 0 0];

oriented        oriented;

internalField   nonuniform List<scalar> 
28560
(
3.4228e-09
-3.42073e-09
4.98489e-08
-4.64261e-08
1.45508e-07
-9.56588e-08
2.78324e-07
-1.32817e-07
4.34877e-07
-1.56553e-07
6.02883e-07
-1.68006e-07
7.72188e-07
-1.69304e-07
9.34903e-07
-1.62715e-07
1.0853e-06
-1.50399e-07
1.21959e-06
-1.34286e-07
1.33563e-06
-1.1604e-07
1.43266e-06
-9.70368e-08
1.51102e-06
-7.8354e-08
1.5718e-06
-6.07783e-08
1.61662e-06
-4.48186e-08
1.64734e-06
-3.07289e-08
1.66596e-06
-1.8617e-08
1.67406e-06
-8.10307e-09
1.67274e-06
1.32264e-09
1.6633e-06
9.44511e-09
1.64586e-06
1.7436e-08
1.6201e-06
2.57654e-08
1.58502e-06
3.50725e-08
1.53905e-06
4.59763e-08
1.48e-06
5.90453e-08
1.40522e-06
7.4777e-08
1.31164e-06
9.35849e-08
1.19584e-06
1.15798e-07
1.05418e-06
1.41666e-07
8.82802e-07
1.71374e-07
6.77749e-07
2.05053e-07
4.34962e-07
2.42788e-07
1.50342e-07
2.8462e-07
-1.80198e-07
3.30541e-07
-5.6068e-07
3.80482e-07
-9.94976e-07
4.34296e-07
-1.48672e-06
4.91741e-07
-2.03918e-06
5.52461e-07
-2.65515e-06
6.15973e-07
-3.33681e-06
6.81655e-07
-4.08555e-06
7.48743e-07
-4.90188e-06
8.16329e-07
-5.78524e-06
8.83366e-07
-6.73392e-06
9.48678e-07
-7.7449e-06
1.01098e-06
-8.8138e-06
1.06889e-06
-9.93477e-06
1.12097e-06
-1.11005e-05
1.16573e-06
-1.23022e-05
1.20168e-06
-1.35295e-05
1.22735e-06
-1.47709e-05
1.24132e-06
-1.60131e-05
1.24226e-06
-1.72421e-05
1.22896e-06
-1.84424e-05
1.20033e-06
-1.95979e-05
1.15549e-06
-2.06916e-05
1.09373e-06
-2.17062e-05
1.01455e-06
-2.26239e-05
9.17727e-07
-2.34272e-05
8.0331e-07
-2.40989e-05
6.71679e-07
-2.46224e-05
5.23518e-07
-2.4983e-05
3.60585e-07
-2.51662e-05
1.83234e-07
-2.51545e-05
-1.17012e-08
-2.49449e-05
-2.09629e-07
-2.45268e-05
-4.18095e-07
-2.38956e-05
-6.3123e-07
-2.30499e-05
-8.45637e-07
-2.19924e-05
-1.05755e-06
-2.07295e-05
-1.26292e-06
-1.9272e-05
-1.45749e-06
-1.76351e-05
-1.63691e-06
-1.58382e-05
-1.79682e-06
-1.39052e-05
-1.93307e-06
-1.18634e-05
-2.0418e-06
-9.74365e-06
-2.11973e-06
-7.57944e-06
-2.16421e-06
-5.40596e-06
-2.17348e-06
-3.25921e-06
-2.14675e-06
-1.17488e-06
-2.08433e-06
8.12789e-07
-1.98766e-06
2.67212e-06
-1.85933e-06
4.37508e-06
-1.70296e-06
5.89823e-06
-1.52315e-06
7.22344e-06
-1.32521e-06
8.3384e-06
-1.11497e-06
9.2369e-06
-8.98501e-07
9.91876e-06
-6.81855e-07
1.03895e-05
-4.70768e-07
1.066e-05
-2.70447e-07
1.07461e-05
-8.60907e-08
1.06644e-05
8.16394e-08
1.04361e-05
2.28303e-07
1.00854e-05
3.5073e-07
9.63487e-06
4.50522e-07
9.10683e-06
5.28044e-07
8.52269e-06
5.84135e-07
7.90218e-06
6.20516e-07
7.26283e-06
6.39349e-07
6.61976e-06
6.43063e-07
5.98556e-06
6.34203e-07
5.37027e-06
6.15289e-07
4.78155e-06
5.88723e-07
4.22484e-06
5.56713e-07
3.7036e-06
5.21232e-07
3.21961e-06
4.83991e-07
2.77318e-06
4.46434e-07
2.36345e-06
4.09729e-07
1.9887e-06
3.74753e-07
1.64664e-06
3.42059e-07
1.33482e-06
3.11816e-07
1.0511e-06
2.83721e-07
7.94201e-07
2.569e-07
5.64376e-07
2.29825e-07
3.64084e-07
2.00292e-07
1.98452e-07
1.65632e-07
7.51019e-08
1.2335e-07
2.32921e-09
7.27727e-08
-1.61734e-08
1.85026e-08
-1.61734e-08
4.5472e-08
-4.88927e-08
1.97466e-07
-1.9842e-07
4.50478e-07
-3.48671e-07
7.81171e-07
-4.63509e-07
1.16245e-06
-5.37831e-07
1.56848e-06
-5.74036e-07
1.97684e-06
-5.77669e-07
2.36938e-06
-5.55253e-07
2.73231e-06
-5.13323e-07
3.05594e-06
-4.57922e-07
3.33427e-06
-3.94371e-07
3.56437e-06
-3.27132e-07
3.74576e-06
-2.59749e-07
3.87982e-06
-1.94836e-07
3.9691e-06
-1.341e-07
4.01678e-06
-7.84078e-08
4.02603e-06
-2.78706e-08
3.99979e-06
1.81454e-08
3.9402e-06
6.09111e-08
3.84782e-06
1.01827e-07
3.72228e-06
1.42968e-07
3.56156e-06
1.86487e-07
3.36205e-06
2.34582e-07
3.11863e-06
2.89396e-07
2.82477e-06
3.52907e-07
2.47271e-06
4.26841e-07
2.05366e-06
5.12626e-07
1.55808e-06
6.11377e-07
9.75847e-07
7.23903e-07
2.96491e-07
8.50731e-07
-4.90587e-07
9.92131e-07
-1.39593e-06
1.14813e-06
-2.42981e-06
1.31851e-06
-3.60204e-06
1.50277e-06
-4.92166e-06
1.7001e-06
-6.39669e-06
1.90933e-06
-8.0338e-06
2.12885e-06
-9.83795e-06
2.35661e-06
-1.1812e-05
2.59006e-06
-1.39565e-05
2.82613e-06
-1.62691e-05
3.06129e-06
-1.87443e-05
3.29156e-06
-2.13735e-05
3.51256e-06
-2.41444e-05
3.71961e-06
-2.70413e-05
3.90783e-06
-3.00446e-05
4.07224e-06
-3.31315e-05
4.20787e-06
-3.62757e-05
4.30992e-06
-3.94479e-05
4.37384e-06
-4.2616e-05
4.39548e-06
-4.57458e-05
4.37114e-06
-4.88013e-05
4.29774e-06
-5.17451e-05
4.1728e-06
-5.45394e-05
3.99456e-06
-5.71458e-05
3.76197e-06
-5.95269e-05
3.47478e-06
-6.16458e-05
3.1335e-06
-6.34676e-05
2.73946e-06
-6.4959e-05
2.29477e-06
-6.60898e-05
1.80244e-06
-6.68326e-05
1.26635e-06
-6.71631e-05
6.91054e-07
-6.70639e-05
8.40395e-08
-6.65202e-05
-5.55418e-07
-6.55179e-05
-1.21195e-06
-6.40557e-05
-1.88031e-06
-6.21348e-05
-2.55213e-06
-5.97628e-05
-3.21755e-06
-5.69541e-05
-3.86624e-06
-5.37297e-05
-4.4874e-06
-5.01172e-05
-5.06992e-06
-4.61516e-05
-5.60259e-06
-4.1874e-05
-6.07438e-06
-3.73323e-05
-6.47479e-06
-3.25799e-05
-6.7942e-06
-2.76754e-05
-7.02425e-06
-2.26814e-05
-7.15821e-06
-1.76635e-05
-7.19138e-06
-1.26888e-05
-7.12139e-06
-7.82469e-06
-6.94848e-06
-3.1367e-06
-6.67565e-06
1.31269e-06
-6.30872e-06
5.466e-06
-5.85627e-06
9.27228e-06
-5.32943e-06
1.26886e-05
-4.74151e-06
1.56812e-05
-4.10757e-06
1.82265e-05
-3.44384e-06
2.03117e-05
-2.76706e-06
2.19348e-05
-2.09381e-06
2.31043e-05
-1.43994e-06
2.38379e-05
-8.19731e-07
2.41641e-05
-2.44541e-07
2.41184e-05
2.73948e-07
2.37406e-05
7.28538e-07
2.30753e-05
1.11581e-06
2.21698e-05
1.43356e-06
2.10715e-05
1.68249e-06
1.98265e-05
1.86553e-06
1.84783e-05
1.98752e-06
1.70667e-05
2.05465e-06
1.56269e-05
2.07405e-06
1.41888e-05
2.05332e-06
1.27774e-05
2.00013e-06
1.14122e-05
1.92193e-06
1.01078e-05
1.82564e-06
8.87425e-06
1.71754e-06
7.71759e-06
1.6031e-06
6.64041e-06
1.48691e-06
5.64262e-06
1.37254e-06
4.72225e-06
1.26243e-06
3.8764e-06
1.15767e-06
3.10238e-06
1.05774e-06
2.399e-06
9.60287e-07
1.76785e-06
8.60969e-07
1.2146e-06
7.53544e-07
7.49545e-07
6.30689e-07
3.86932e-07
4.85963e-07
1.4157e-07
3.18135e-07
2.11137e-08
1.38959e-07
4.94028e-09
9.32975e-08
-1.4219e-07
3.44512e-07
-4.49635e-07
7.2469e-07
-7.28849e-07
1.20159e-06
-9.40409e-07
1.74077e-06
-1.07701e-06
2.30918e-06
-1.14245e-06
2.87754e-06
-1.14603e-06
3.42149e-06
-1.0992e-06
3.92194e-06
-1.01377e-06
4.36497e-06
-9.00956e-07
4.74133e-06
-7.70732e-07
5.04577e-06
-6.31563e-07
5.27623e-06
-4.90218e-07
5.43311e-06
-3.51715e-07
5.51836e-06
-2.19346e-07
5.53471e-06
-9.47588e-08
5.48491e-06
2.19346e-08
5.37121e-06
1.31839e-07
5.19467e-06
2.37453e-07
4.95455e-06
3.41951e-07
4.64825e-06
4.49268e-07
4.271e-06
5.63736e-07
3.81578e-06
6.898e-07
3.2734e-06
8.31772e-07
2.6327e-06
9.93611e-07
1.88079e-06
1.17875e-06
1.00345e-06
1.38997e-06
-1.45448e-08
1.62937e-06
-1.18899e-06
1.89835e-06
-2.53587e-06
2.19761e-06
-4.07093e-06
2.5272e-06
-5.80932e-06
2.88651e-06
-7.76507e-06
3.27425e-06
-9.95068e-06
3.68838e-06
-1.23766e-05
4.12602e-06
-1.50507e-05
4.58338e-06
-1.79775e-05
5.05571e-06
-2.11581e-05
5.5372e-06
-2.45891e-05
6.02103e-06
-2.82624e-05
6.49944e-06
-3.21649e-05
6.96379e-06
-3.62781e-05
7.40481e-06
-4.05783e-05
7.81271e-06
-4.50362e-05
8.17754e-06
-4.96177e-05
8.48937e-06
-5.42841e-05
8.73864e-06
-5.89927e-05
8.91638e-06
-6.36972e-05
9.0145e-06
-6.83494e-05
9.02599e-06
-7.2899e-05
8.94507e-06
-7.72952e-05
8.76735e-06
-8.14873e-05
8.48986e-06
-8.54256e-05
8.11111e-06
-8.90621e-05
7.63105e-06
-9.23512e-05
7.05104e-06
-9.52502e-05
6.37378e-06
-9.77199e-05
5.60324e-06
-9.97251e-05
4.7446e-06
-0.000101234
3.8042e-06
-0.000102222
2.78946e-06
-0.000102664
1.70894e-06
-0.000102545
5.72019e-07
-0.000101851
-6.09873e-07
-0.00010058
-1.82687e-06
-9.87264e-05
-3.06521e-06
-9.62961e-05
-4.31066e-06
-9.32994e-05
-5.54885e-06
-8.97527e-05
-6.76416e-06
-8.56789e-05
-7.94009e-06
-8.11068e-05
-9.05946e-06
-7.6072e-05
-1.01047e-05
-7.06164e-05
-1.10582e-05
-6.47881e-05
-1.19027e-05
-5.86415e-05
-1.26213e-05
-5.22368e-05
-1.3199e-05
-4.56391e-05
-1.3622e-05
-3.8918e-05
-1.38792e-05
-3.21469e-05
-1.39625e-05
-2.54012e-05
-1.38671e-05
-1.87574e-05
-1.35923e-05
-1.22917e-05
-1.31413e-05
-6.0782e-06
-1.25222e-05
-1.87276e-07
-1.17472e-05
5.31602e-06
-1.08327e-05
1.03736e-05
-9.79914e-06
1.4936e-05
-8.66997e-06
1.89635e-05
-7.47127e-06
2.24271e-05
-6.23065e-06
2.53096e-05
-4.97637e-06
2.76059e-05
-3.73622e-06
2.93227e-05
-2.53649e-06
3.04793e-05
-1.40115e-06
3.11051e-05
-3.51916e-07
3.12383e-05
5.9541e-07
3.09258e-05
1.42828e-06
3.0221e-05
2.1384e-06
2.91808e-05
2.72267e-06
2.78641e-05
3.18219e-06
2.63296e-05
3.52201e-06
2.46338e-05
3.75048e-06
2.28293e-05
3.87851e-06
2.09639e-05
3.91878e-06
1.9079e-05
3.88496e-06
1.72099e-05
3.79102e-06
1.5385e-05
3.65058e-06
1.36261e-05
3.47642e-06
1.19491e-05
3.28011e-06
1.03644e-05
3.07164e-06
8.87784e-06
2.85907e-06
7.49202e-06
2.64826e-06
6.20731e-06
2.44237e-06
5.02359e-06
2.24146e-06
3.94179e-06
2.04208e-06
2.96563e-06
1.83713e-06
2.10296e-06
1.61621e-06
1.36646e-06
1.36719e-06
7.72927e-07
1.07949e-06
3.40412e-07
7.5065e-07
8.25386e-08
3.96832e-07
8.74789e-08
1.29827e-07
-2.72017e-07
4.59025e-07
-7.78833e-07
9.37307e-07
-1.20713e-06
1.52135e-06
-1.52446e-06
2.16999e-06
-1.72565e-06
2.84522e-06
-1.81768e-06
3.51355e-06
-1.81436e-06
4.14691e-06
-1.73255e-06
4.72293e-06
-1.5898e-06
5.22485e-06
-1.40287e-06
5.64095e-06
-1.18683e-06
5.96388e-06
-9.54493e-07
6.1898e-06
-7.1614e-07
6.31746e-06
-4.79383e-07
6.34729e-06
-2.49175e-07
6.28046e-06
-2.79266e-08
6.11806e-06
1.8434e-07
5.86022e-06
3.89673e-07
5.50567e-06
5.92003e-07
5.05097e-06
7.96655e-07
4.49021e-06
1.01002e-06
3.81485e-06
1.2391e-06
3.01359e-06
1.49106e-06
2.07257e-06
1.77279e-06
9.75631e-07
2.09055e-06
-2.95256e-07
2.44963e-06
-1.7595e-06
2.85422e-06
-3.43731e-06
3.30718e-06
-5.34906e-06
3.8101e-06
-7.51467e-06
4.36322e-06
-9.95293e-06
4.96546e-06
-1.26808e-05
5.61439e-06
-1.57127e-05
6.30615e-06
-1.90597e-05
7.03536e-06
-2.27287e-05
7.79504e-06
-2.67219e-05
8.57652e-06
-3.10356e-05
9.36941e-06
-3.56601e-05
1.01617e-05
-4.05789e-05
1.09398e-05
-4.57685e-05
1.16891e-05
-5.11985e-05
1.23938e-05
-5.68317e-05
1.3038e-05
-6.26245e-05
1.36055e-05
-6.85279e-05
1.4081e-05
-7.44884e-05
1.44499e-05
-8.0449e-05
1.46992e-05
-8.63506e-05
1.4818e-05
-9.21333e-05
1.47972e-05
-9.77374e-05
1.46301e-05
-0.000103105
1.43125e-05
-0.00010818
1.38425e-05
-0.000112911
1.32204e-05
-0.000117248
1.24487e-05
-0.000121149
1.15316e-05
-0.000124573
1.04751e-05
-0.000127486
9.2868e-06
-0.000129858
7.97534e-06
-0.000131664
6.55065e-06
-0.000132883
5.02364e-06
-0.0001335
3.40621e-06
-0.000133502
1.71112e-06
-0.000132883
-4.75404e-08
-0.000131637
-1.85574e-06
-0.000129767
-3.69709e-06
-0.000127277
-5.5548e-06
-0.000124177
-7.41079e-06
-0.00012048
-9.24572e-06
-0.000116205
-1.10392e-05
-0.000111375
-1.27699e-05
-0.000106019
-1.44154e-05
-0.000100171
-1.59526e-05
-9.38714e-05
-1.73582e-05
-8.71648e-05
-1.86092e-05
-8.01032e-05
-1.9683e-05
-7.27435e-05
-2.05586e-05
-6.51486e-05
-2.1217e-05
-5.73858e-05
-2.1642e-05
-4.95271e-05
-2.18212e-05
-4.16477e-05
-2.17465e-05
-3.38251e-05
-2.14148e-05
-2.61379e-05
-2.08286e-05
-1.8664e-05
-1.9996e-05
-1.14797e-05
-1.89316e-05
-4.65716e-06
-1.76552e-05
1.73629e-06
-1.61926e-05
7.64032e-06
-1.4574e-05
1.30027e-05
-1.28337e-05
1.77809e-05
-1.10088e-05
2.19427e-05
-9.13815e-06
2.54674e-05
-7.26089e-06
2.83462e-05
-5.41533e-06
3.05827e-05
-3.63763e-06
3.21915e-05
-1.9607e-06
3.31995e-05
-4.12616e-07
3.36441e-05
9.83643e-07
3.35716e-05
2.2109e-06
3.30359e-05
3.25839e-06
3.20964e-05
4.1217e-06
3.08159e-05
4.80249e-06
2.92584e-05
5.30798e-06
2.74868e-05
5.65011e-06
2.5561e-05
5.84459e-06
2.35362e-05
5.9098e-06
2.14615e-05
5.86568e-06
1.93794e-05
5.73269e-06
1.7325e-05
5.53086e-06
1.53261e-05
5.27897e-06
1.34039e-05
4.99379e-06
1.15736e-05
4.68945e-06
9.84513e-06
4.3767e-06
8.2253e-06
4.06219e-06
6.71894e-06
3.74782e-06
5.33091e-06
3.43012e-06
4.06793e-06
3.10011e-06
2.94023e-06
2.74391e-06
1.96261e-06
2.34481e-06
1.15464e-06
1.88746e-06
5.39883e-07
1.36541e-06
1.44634e-07
7.92081e-07
2.32113e-07
1.55234e-07
-4.27251e-07
5.40118e-07
-1.16372e-06
1.08821e-06
-1.75523e-06
1.74534e-06
-2.18158e-06
2.4636e-06
-2.44391e-06
3.20068e-06
-2.55476e-06
3.92005e-06
-2.53373e-06
4.59123e-06
-2.40373e-06
5.18981e-06
-2.18838e-06
5.69713e-06
-1.9102e-06
6.0997e-06
-1.58939e-06
6.38836e-06
-1.24316e-06
6.55745e-06
-8.85225e-07
6.60375e-06
-5.25683e-07
6.52554e-06
-1.70971e-07
6.32162e-06
1.75992e-07
5.99038e-06
5.15581e-07
5.52894e-06
8.51114e-07
4.9325e-06
1.18844e-06
4.19373e-06
1.53543e-06
3.30241e-06
1.90134e-06
2.24527e-06
2.29624e-06
1.00604e-06
2.73029e-06
-4.34284e-07
3.21311e-06
-2.09699e-06
3.75325e-06
-4.00501e-06
4.35766e-06
-6.18221e-06
5.03141e-06
-8.65251e-06
5.77748e-06
-1.1439e-05
6.5966e-06
-1.45631e-05
7.48726e-06
-1.80432e-05
8.44561e-06
-2.18942e-05
9.46542e-06
-2.61261e-05
1.0538e-05
-3.07429e-05
1.16522e-05
-3.57421e-05
1.27942e-05
-4.11132e-05
1.39477e-05
-4.68379e-05
1.50941e-05
-5.2889e-05
1.62128e-05
-5.92309e-05
1.72817e-05
-6.58199e-05
1.8278e-05
-7.26046e-05
1.91786e-05
-7.95276e-05
1.9961e-05
-8.65266e-05
2.06044e-05
-9.35357e-05
2.10901e-05
-0.000100488
2.14019e-05
-0.000107316
2.15271e-05
-0.000113954
2.14563e-05
-0.00012034
2.11836e-05
-0.000126417
2.07065e-05
-0.00013213
2.00256e-05
-0.000137432
1.91444e-05
-0.00014228
1.80691e-05
-0.000146639
1.68075e-05
-0.000150477
1.53695e-05
-0.000153768
1.37659e-05
-0.00015649
1.2009e-05
-0.000158626
1.01115e-05
-0.000160163
8.08706e-06
-0.000161089
5.94982e-06
-0.000161397
3.71457e-06
-0.000161083
1.39678e-06
-0.000160143
-9.87253e-07
-0.000158578
-3.4206e-06
-0.00015639
-5.88491e-06
-0.000153585
-8.36057e-06
-0.000150169
-1.08268e-05
-0.000146153
-1.32611e-05
-0.000141553
-1.56398e-05
-0.000136385
-1.79373e-05
-0.000130674
-2.01268e-05
-0.000124446
-2.21805e-05
-0.000117735
-2.40696e-05
-0.000110579
-2.57653e-05
-0.000103023
-2.7239e-05
-9.5118e-05
-2.84634e-05
-8.69214e-05
-2.94135e-05
-7.84963e-05
-3.00671e-05
-6.99111e-05
-3.04064e-05
-6.12391e-05
-3.04185e-05
-5.25572e-05
-3.00968e-05
-4.39447e-05
-2.94411e-05
-3.5482e-05
-2.84587e-05
-2.7249e-05
-2.71646e-05
-1.93233e-05
-2.55809e-05
-1.17787e-05
-2.37372e-05
-4.68353e-06
-2.16692e-05
1.9007e-06
-1.94179e-05
7.92075e-06
-1.70289e-05
1.33327e-05
-1.45501e-05
1.81028e-05
-1.2031e-05
2.22083e-05
-9.52082e-06
2.56377e-05
-7.06703e-06
2.8391e-05
-4.71404e-06
3.04801e-05
-2.5017e-06
3.1928e-05
-4.64284e-07
3.27684e-05
1.3705e-06
3.30447e-05
2.98217e-06
3.28084e-05
4.358e-06
3.21178e-05
5.49307e-06
3.10357e-05
6.39002e-06
2.96274e-05
7.05841e-06
2.79582e-05
7.51382e-06
2.60914e-05
7.77662e-06
2.40864e-05
7.87068e-06
2.19972e-05
7.82192e-06
1.98711e-05
7.65695e-06
1.77483e-05
7.40174e-06
1.56617e-05
7.08037e-06
1.36373e-05
6.71387e-06
1.16949e-05
6.31909e-06
9.84962e-06
5.9075e-06
8.11322e-06
5.48422e-06
6.49621e-06
5.04713e-06
5.00971e-06
4.58661e-06
3.66742e-06
4.0862e-06
2.48736e-06
3.52487e-06
1.49341e-06
2.88141e-06
7.16922e-07
2.1419e-06
1.99282e-07
1.30972e-06
4.31396e-07
1.71607e-07
-5.98858e-07
5.92686e-07
-1.58479e-06
1.18503e-06
-2.34757e-06
1.88505e-06
-2.8816e-06
2.63851e-06
-3.19737e-06
3.39908e-06
-3.31533e-06
4.12767e-06
-3.26231e-06
4.79204e-06
-3.0681e-06
5.36644e-06
-2.76278e-06
5.83093e-06
-2.37469e-06
6.17067e-06
-1.92914e-06
6.37498e-06
-1.44747e-06
6.43634e-06
-9.46581e-07
6.34935e-06
-4.38695e-07
6.10972e-06
6.86614e-08
5.71321e-06
5.72499e-07
5.15473e-06
1.07406e-06
4.42745e-06
1.57839e-06
3.52213e-06
2.09376e-06
2.42659e-06
2.63097e-06
1.12541e-06
3.20252e-06
-4.00066e-07
3.82172e-06
-2.17154e-06
4.50177e-06
-4.21326e-06
5.25483e-06
-6.55125e-06
6.09124e-06
-9.21245e-06
7.01886e-06
-1.22236e-05
8.04259e-06
-1.56102e-05
9.16404e-06
-1.9395e-05
1.03814e-05
-2.35969e-05
1.16892e-05
-2.82296e-05
1.30784e-05
-3.33004e-05
1.45362e-05
-3.88088e-05
1.60464e-05
-4.47455e-05
1.75889e-05
-5.10915e-05
1.91402e-05
-5.7818e-05
2.06742e-05
-6.48859e-05
2.2162e-05
-7.22466e-05
2.35735e-05
-7.98427e-05
2.48779e-05
-8.76099e-05
2.60452e-05
-9.54784e-05
2.70471e-05
-0.000103375
2.78579e-05
-0.000111227
2.84557e-05
-0.000118959
2.8823e-05
-0.000126504
2.89467e-05
-0.000133796
2.88188e-05
-0.000140775
2.84355e-05
-0.000147389
2.77976e-05
-0.000153592
2.69095e-05
-0.000159345
2.57785e-05
-0.000164615
2.44145e-05
-0.000169376
2.28295e-05
-0.000173605
2.10367e-05
-0.000177285
1.905e-05
-0.000180403
1.68841e-05
-0.000182949
1.4554e-05
-0.000184912
1.20749e-05
-0.000186287
9.4621e-06
-0.000187068
6.73103e-06
-0.000187251
3.89759e-06
-0.000186833
9.7814e-07
-0.000185809
-2.01032e-06
-0.00018418
-5.04971e-06
-0.000181945
-8.12074e-06
-0.000179103
-1.12025e-05
-0.000175657
-1.42725e-05
-0.000171612
-1.73061e-05
-0.000166975
-2.02768e-05
-0.000161756
-2.31557e-05
-0.000155971
-2.59122e-05
-0.000149638
-2.85136e-05
-0.000142781
-3.09261e-05
-0.000135432
-3.31146e-05
-0.000127627
-3.50442e-05
-0.000119409
-3.66808e-05
-0.000110831
-3.7992e-05
-0.000101949
-3.89487e-05
-9.28295e-05
-3.95261e-05
-8.35429e-05
-3.97051e-05
-7.4166e-05
-3.94737e-05
-6.47793e-05
-3.88277e-05
-5.54663e-05
-3.77717e-05
-4.63111e-05
-3.63198e-05
-3.73971e-05
-3.4495e-05
-2.88048e-05
-3.23295e-05
-2.06101e-05
-2.98638e-05
-1.28828e-05
-2.71452e-05
-5.68511e-06
-2.42266e-05
9.29699e-07
-2.11649e-05
6.9178e-06
-1.80191e-05
1.22456e-05
-1.48486e-05
1.68902e-05
-1.17116e-05
2.08395e-05
-8.66327e-06
2.40921e-05
-5.75438e-06
2.6658e-05
-3.03012e-06
2.85574e-05
-5.28911e-07
2.9821e-05
1.71858e-06
3.04889e-05
3.69006e-06
3.06099e-05
5.37212e-06
3.02396e-05
6.76033e-06
2.9439e-05
7.85892e-06
2.82727e-05
8.68016e-06
2.6806e-05
9.24331e-06
2.51034e-05
9.57328e-06
2.32263e-05
9.69904e-06
2.12313e-05
9.65195e-06
1.9169e-05
9.46399e-06
1.70834e-05
9.166e-06
1.50113e-05
8.78598e-06
1.2983e-05
8.34738e-06
1.10231e-05
7.86742e-06
9.15175e-06
7.35558e-06
7.3865e-06
6.81238e-06
5.74433e-06
6.22878e-06
4.24389e-06
5.58664e-06
2.90796e-06
4.8608e-06
1.76629e-06
4.02308e-06
8.59215e-07
3.04897e-06
2.42792e-07
1.92614e-06
6.74188e-07
1.81287e-07
-7.80146e-07
6.22559e-07
-2.02607e-06
1.23687e-06
-2.96188e-06
1.95287e-06
-3.5976e-06
2.71075e-06
-3.95525e-06
3.46053e-06
-4.06512e-06
4.1609e-06
-3.96268e-06
4.77825e-06
-3.68546e-06
5.28587e-06
-3.27039e-06
5.66291e-06
-2.75174e-06
5.89346e-06
-2.15968e-06
5.96539e-06
-1.51939e-06
5.86929e-06
-8.50484e-07
5.59736e-06
-1.6677e-07
5.14232e-06
5.23707e-07
4.49634e-06
1.21848e-06
3.65015e-06
1.92025e-06
2.5922e-06
2.63635e-06
1.30801e-06
3.37796e-06
-2.20183e-07
4.15916e-06
-2.01355e-06
4.99588e-06
-4.09646e-06
5.90463e-06
-6.49597e-06
6.90128e-06
-9.24096e-06
7.99982e-06
-1.23611e-05
9.21133e-06
-1.58853e-05
1.05431e-05
-1.98407e-05
1.1998e-05
-2.42506e-05
1.3574e-05
-2.91332e-05
1.5264e-05
-3.44999e-05
1.70559e-05
-4.03538e-05
1.89322e-05
-4.66883e-05
2.08707e-05
-5.34859e-05
2.2844e-05
-6.07178e-05
2.48208e-05
-6.83437e-05
2.67661e-05
-7.6312e-05
2.86424e-05
-8.45611e-05
3.04111e-05
-9.30212e-05
3.20336e-05
-0.000101616
3.34732e-05
-0.000110268
3.46964e-05
-0.000118895
3.56741e-05
-0.00012742
3.63828e-05
-0.000135769
3.68048e-05
-0.000143874
3.69284e-05
-0.000151676
3.67482e-05
-0.000159121
3.62639e-05
-0.000166165
3.54801e-05
-0.000172773
3.44053e-05
-0.000178914
3.30509e-05
-0.000184567
3.14309e-05
-0.000189712
2.95603e-05
-0.000194338
2.74552e-05
-0.000198434
2.51321e-05
-0.000201991
2.26074e-05
-0.000205004
1.98975e-05
-0.000207469
1.70183e-05
-0.000209379
1.39853e-05
-0.000210731
1.08142e-05
-0.00021152
7.52038e-06
-0.000211742
4.11937e-06
-0.000211391
6.27357e-07
-0.000210463
-2.93891e-06
-0.000208951
-6.56131e-06
-0.000206852
-1.02204e-05
-0.000204159
-1.38948e-05
-0.000200871
-1.75611e-05
-0.000196984
-2.11933e-05
-0.000192498
-2.47628e-05
-0.000187415
-2.82383e-05
-0.000181742
-3.15856e-05
-0.000175487
-3.4768e-05
-0.000168667
-3.77464e-05
-0.000161301
-4.048e-05
-0.000153418
-4.29271e-05
-0.000145053
-4.5046e-05
-0.000136249
-4.67964e-05
-0.000127057
-4.81407e-05
-0.000117537
-4.90456e-05
-0.000107759
-4.94839e-05
-9.77963e-05
-4.94361e-05
-8.77324e-05
-4.88916e-05
-7.76537e-05
-4.78504e-05
-6.765e-05
-4.63234e-05
-5.78119e-05
-4.43331e-05
-4.82284e-05
-4.19131e-05
-3.89848e-05
-3.91074e-05
-3.01607e-05
-3.59693e-05
-2.1828e-05
-3.25593e-05
-1.40497e-05
-2.89433e-05
-6.8786e-06
-2.51901e-05
-3.57346e-07
-2.13699e-05
5.48235e-06
-1.75513e-05
1.06194e-05
-1.38003e-05
1.50432e-05
-1.01782e-05
1.87537e-05
-6.74053e-06
2.17604e-05
-3.53567e-06
2.40832e-05
-6.04166e-07
2.57509e-05
2.02227e-06
2.68018e-05
4.32127e-06
2.72819e-05
6.2802e-06
2.72446e-05
7.89624e-06
2.67487e-05
9.17605e-06
2.58569e-05
1.01351e-05
2.46338e-05
1.07965e-05
2.31434e-05
1.11894e-05
2.14477e-05
1.13476e-05
1.96047e-05
1.1307e-05
1.76669e-05
1.11038e-05
1.56808e-05
1.07721e-05
1.36865e-05
1.03417e-05
1.17182e-05
9.83575e-06
9.80487e-06
9.26886e-06
7.9722e-06
8.64505e-06
6.24415e-06
7.95682e-06
4.64568e-06
7.18511e-06
3.20571e-06
6.30077e-06
1.9609e-06
5.2679e-06
9.6062e-07
4.04925e-06
2.73538e-07
2.61323e-06
9.47726e-07
1.86015e-07
-9.6616e-07
6.34391e-07
-2.47444e-06
1.25121e-06
-3.57869e-06
1.95883e-06
-4.30522e-06
2.69278e-06
-4.6892e-06
3.4e-06
-4.77234e-06
4.03734e-06
-4.60001e-06
4.57016e-06
-4.21828e-06
4.97101e-06
-3.67125e-06
5.21837e-06
-2.99909e-06
5.29532e-06
-2.23663e-06
5.18829e-06
-1.41237e-06
4.88585e-06
-5.48045e-07
4.37749e-06
3.4159e-07
3.65251e-06
1.24869e-06
2.69897e-06
2.17202e-06
1.5028e-06
3.11642e-06
4.70726e-08
4.09207e-06
-1.68846e-06
5.11349e-06
-3.72756e-06
6.19826e-06
-6.09729e-06
7.36561e-06
-8.82745e-06
8.63478e-06
-1.19496e-05
1.00234e-05
-1.54957e-05
1.1546e-05
-1.94968e-05
1.32124e-05
-2.39809e-05
1.50272e-05
-2.89712e-05
1.69883e-05
-3.44844e-05
1.90871e-05
-4.05284e-05
2.1308e-05
-4.71012e-05
2.36286e-05
-5.41887e-05
2.60198e-05
-6.17647e-05
2.84466e-05
-6.97895e-05
3.08689e-05
-7.82111e-05
3.32423e-05
-8.69654e-05
3.55205e-05
-9.5979e-05
3.76561e-05
-0.000105171
3.96032e-05
-0.000114457
4.13193e-05
-0.00012375
4.27667e-05
-0.000132968
4.39141e-05
-0.000142032
4.47376e-05
-0.000150869
4.52207e-05
-0.000159419
4.53544e-05
-0.000167627
4.51364e-05
-0.000175449
4.45706e-05
-0.000182851
4.36657e-05
-0.000189805
4.24342e-05
-0.000196291
4.08914e-05
-0.000202295
3.90544e-05
-0.000207805
3.69413e-05
-0.000212816
3.45705e-05
-0.000217321
3.19603e-05
-0.000221317
2.91285e-05
-0.000224802
2.60923e-05
-0.000227773
2.28682e-05
-0.000230226
1.9472e-05
-0.00023216
1.59188e-05
-0.000233569
1.22237e-05
-0.00023445
8.40108e-06
-0.000234797
4.46587e-06
-0.000234603
4.33341e-07
-0.000233861
-3.68054e-06
-0.000232564
-7.8584e-06
-0.000230703
-1.20813e-05
-0.000228269
-1.63283e-05
-0.000225255
-2.05758e-05
-0.00022165
-2.47976e-05
-0.000217449
-2.89642e-05
-0.000212645
-3.30425e-05
-0.000207234
-3.69961e-05
-0.000201217
-4.0785e-05
-0.000194598
-4.43658e-05
-0.000187386
-4.76923e-05
-0.000179596
-5.07164e-05
-0.000171254
-5.33886e-05
-0.00016239
-5.566e-05
-0.000153047
-5.74834e-05
-0.000143278
-5.88154e-05
-0.000133143
-5.96185e-05
-0.000122716
-5.9863e-05
-0.000112078
-5.95292e-05
-0.00010132
-5.8609e-05
-9.05357e-05
-5.71075e-05
-7.98252e-05
-5.50436e-05
-6.9288e-05
-5.24502e-05
-5.9022e-05
-4.93734e-05
-4.91199e-05
-4.58714e-05
-3.96668e-05
-4.20124e-05
-3.07384e-05
-3.78717e-05
-2.23992e-05
-3.35294e-05
-1.47016e-05
-2.90675e-05
-7.68616e-06
-2.45668e-05
-1.38148e-06
-2.0105e-05
4.19513e-06
-1.57548e-05
9.03684e-06
-1.15822e-05
1.31467e-05
-7.64549e-06
1.65368e-05
-3.99434e-06
1.92284e-05
-6.69296e-07
2.12508e-05
2.29884e-06
2.26416e-05
4.8894e-06
2.34458e-05
7.09209e-06
2.37149e-05
8.90694e-06
2.3506e-05
1.03439e-05
2.28802e-05
1.14223e-05
2.19005e-05
1.21692e-05
2.06302e-05
1.26179e-05
1.91309e-05
1.28062e-05
1.74611e-05
1.27736e-05
1.56743e-05
1.25588e-05
1.3819e-05
1.2197e-05
1.19379e-05
1.17168e-05
1.00688e-05
1.1138e-05
8.2455e-06
1.04684e-05
6.49975e-06
9.70258e-06
4.86372e-06
8.82114e-06
3.37334e-06
7.79115e-06
2.07257e-06
6.56866e-06
1.01905e-06
5.10278e-06
2.91085e-07
3.34119e-06
1.23881e-06
1.86847e-07
-1.15301e-06
6.3112e-07
-2.91872e-06
1.23289e-06
-4.18046e-06
1.90943e-06
-4.98176e-06
2.59255e-06
-5.37233e-06
3.22684e-06
-5.40663e-06
3.76782e-06
-5.14099e-06
4.18012e-06
-4.63058e-06
4.43582e-06
-3.92694e-06
4.51276e-06
-3.07603e-06
4.39302e-06
-2.11689e-06
4.06146e-06
-1.08081e-06
3.50436e-06
9.06033e-09
2.70813e-06
1.13781e-06
1.65823e-06
2.29859e-06
3.38092e-07
3.49216e-06
-1.27165e-06
4.72617e-06
-3.19373e-06
6.01415e-06
-5.45443e-06
7.37419e-06
-8.08343e-06
8.82726e-06
-1.11132e-05
1.03954e-05
-1.45778e-05
1.20994e-05
-1.85114e-05
1.39571e-05
-2.29468e-05
1.59813e-05
-2.79125e-05
1.81781e-05
-3.34312e-05
2.05459e-05
-3.95175e-05
2.30745e-05
-4.61752e-05
2.57448e-05
-5.33962e-05
2.85291e-05
-6.11589e-05
3.13913e-05
-6.94273e-05
3.42882e-05
-7.81509e-05
3.71703e-05
-8.72661e-05
3.9984e-05
-9.66973e-05
4.26736e-05
-0.00010636
4.51836e-05
-0.000116166
4.74612e-05
-0.000126021
4.94588e-05
-0.000135838
5.11357e-05
-0.000145531
5.24595e-05
-0.000155023
5.34068e-05
-0.000164249
5.39632e-05
-0.000173151
5.41227e-05
-0.000181683
5.3887e-05
-0.000189811
5.32639e-05
-0.000197506
5.22659e-05
-0.00020475
5.09094e-05
-0.000211529
4.92129e-05
-0.000217834
4.71964e-05
-0.00022366
4.48806e-05
-0.000229004
4.22858e-05
-0.000233866
3.9432e-05
-0.000238244
3.63385e-05
-0.000242139
3.30234e-05
-0.000245551
2.95041e-05
-0.000248479
2.57966e-05
-0.000250923
2.19163e-05
-0.000252882
1.78776e-05
-0.000254353
1.36946e-05
-0.000255333
9.38091e-06
-0.000255817
4.95006e-06
-0.0002558
4.16078e-07
-0.000255274
-4.20635e-06
-0.000254231
-8.90133e-06
-0.000252661
-1.36513e-05
-0.000250553
-1.84367e-05
-0.000247893
-2.32352e-05
-0.00024467
-2.80212e-05
-0.000240868
-3.27659e-05
-0.000236474
-3.74361e-05
-0.000231476
-4.19944e-05
-0.000225862
-4.63992e-05
-0.000219624
-5.06041e-05
-0.000212757
-5.45588e-05
-0.000205264
-5.82095e-05
-0.000197153
-6.14997e-05
-0.000188442
-6.43716e-05
-0.000179157
-6.67678e-05
-0.000169339
-6.86336e-05
-0.000159038
-6.99189e-05
-0.00014832
-7.05812e-05
-0.000137262
-7.05879e-05
-0.000125951
-6.99191e-05
-0.000114489
-6.85698e-05
-0.000102982
-6.6551e-05
-9.15412e-05
-6.38909e-05
-8.028e-05
-6.06347e-05
-6.9308e-05
-5.68433e-05
-5.8729e-05
-5.25914e-05
-4.86366e-05
-4.79641e-05
-3.91122e-05
-4.30538e-05
-3.02232e-05
-3.79565e-05
-2.20222e-05
-3.27677e-05
-1.45473e-05
-2.75799e-05
-7.82289e-06
-2.24793e-05
-1.86087e-06
-1.75443e-05
3.33767e-06
-1.2844e-05
7.78125e-06
-8.43792e-06
1.14869e-05
-4.37494e-06
1.44794e-05
-6.93636e-07
1.67907e-05
2.57811e-06
1.84596e-05
5.42313e-06
1.95315e-05
7.83501e-06
2.00576e-05
9.8179e-06
2.00938e-05
1.13861e-05
1.97e-05
1.2563e-05
1.89381e-05
1.33799e-05
1.78702e-05
1.38741e-05
1.65576e-05
1.40863e-05
1.50585e-05
1.40579e-05
1.34273e-05
1.38282e-05
1.17139e-05
1.34302e-05
9.96386e-06
1.2888e-05
8.2188e-06
1.22134e-05
6.51828e-06
1.14031e-05
4.90202e-06
1.04374e-05
3.41321e-06
9.27996e-06
2.10288e-06
7.87898e-06
1.03554e-06
6.17012e-06
2.95887e-07
4.08084e-06
1.5347e-06
1.84224e-07
-1.33723e-06
6.14015e-07
-3.34851e-06
1.18404e-06
-4.75049e-06
1.8075e-06
-5.60523e-06
2.41353e-06
-5.97835e-06
2.94516e-06
-5.93826e-06
3.35715e-06
-5.55298e-06
3.61382e-06
-4.88725e-06
3.68691e-06
-4.00004e-06
3.55367e-06
-2.9428e-06
3.19506e-06
-1.75828e-06
2.5941e-06
-4.79853e-07
1.73445e-06
8.68709e-07
5.99072e-07
2.27319e-06
-8.30907e-07
3.72857e-06
-2.57709e-06
5.23835e-06
-4.66447e-06
6.81354e-06
-7.12167e-06
8.47135e-06
-9.9808e-06
1.02333e-05
-1.32768e-05
1.21232e-05
-1.7046e-05
1.41646e-05
-2.13249e-05
1.63782e-05
-2.61474e-05
1.87796e-05
-3.15427e-05
2.13766e-05
-3.75327e-05
2.41681e-05
-4.41293e-05
2.71426e-05
-5.13323e-05
3.02775e-05
-5.91273e-05
3.35398e-05
-6.74846e-05
3.68864e-05
-7.63585e-05
4.02653e-05
-8.56882e-05
4.36178e-05
-9.53989e-05
4.6881e-05
-0.000105405
4.99899e-05
-0.000115612
5.28811e-05
-0.000125925
5.54958e-05
-0.000136245
5.77819e-05
-0.000146483
5.96964e-05
-0.000156554
6.12064e-05
-0.000166384
6.22899e-05
-0.000175912
6.29348e-05
-0.000185087
6.31385e-05
-0.000193871
6.29062e-05
-0.000202233
6.22493e-05
-0.000210153
6.11841e-05
-0.000217617
5.973e-05
-0.000224617
5.79087e-05
-0.000231147
5.57428e-05
-0.000237206
5.32553e-05
-0.000242794
5.04687e-05
-0.000247913
4.74051e-05
-0.000252566
4.40853e-05
-0.000256757
4.05291e-05
-0.000260488
3.6755e-05
-0.000263765
3.27802e-05
-0.000266589
2.86208e-05
-0.000268964
2.42914e-05
-0.000270892
1.98059e-05
-0.000272375
1.51772e-05
-0.000273411
1.04177e-05
-0.000274001
5.53948e-06
-0.000274139
5.54692e-07
-0.000273822
-4.5239e-06
-0.000273041
-9.68268e-06
-0.000271785
-1.49065e-05
-0.000270044
-2.01781e-05
-0.000267802
-2.54776e-05
-0.000265041
-3.07819e-05
-0.000261743
-3.60641e-05
-0.000257886
-4.12928e-05
-0.000253449
-4.64316e-05
-0.000248409
-5.1439e-05
-0.000242745
-5.62678e-05
-0.000236439
-6.08653e-05
-0.000229474
-6.51739e-05
-0.000221843
-6.91313e-05
-0.000213543
-7.26718e-05
-0.000204582
-7.57283e-05
-0.000194982
-7.82339e-05
-0.000184776
-8.01246e-05
-0.000174015
-8.13426e-05
-0.000162764
-8.1839e-05
-0.000151105
-8.15777e-05
-0.000139137
-8.0538e-05
-0.00012697
-7.87177e-05
-0.000114727
-7.61345e-05
-0.000102534
-7.28273e-05
-9.05222e-05
-6.88551e-05
-7.88176e-05
-6.4296e-05
-6.75385e-05
-5.92432e-05
-5.67906e-05
-5.38017e-05
-4.66638e-05
-4.80832e-05
-3.72303e-05
-4.22013e-05
-2.85435e-05
-3.62666e-05
-2.06393e-05
-3.03835e-05
-1.35369e-05
-2.46467e-05
-7.24145e-06
-1.91395e-05
-1.74644e-06
-1.39329e-05
2.96435e-06
-9.08573e-06
6.91496e-06
-4.64425e-06
1.01361e-05