/*--------------------------------*- C++ -*----------------------------------*\
| =========                 |                                                 |
| \\      /  F ield         | OpenFOAM: The Open Source CFD Toolbox           |
|  \\    /   O peration     | Version:  2406                                  |
|   \\  /    A nd           | Website:  www.openfoam.com                      |
|    \\/     M anipulation  |                                                 |
\*---------------------------------------------------------------------------*/
FoamFile
{
    version     2.0;
    format      ascii;
    arch        "LSB;label=32;scalar=64";
    class       surfaceScalarField;
    location    "6.75";
    object      phi_0;
}
// * * * * * * * * * * * * * * * * * * * * * * * * * * * * * * * * * * * * * //

dimensions      [0 3 -1 0 0 0 0];

oriented        oriented;

internalField   nonuniform List<scalar> 
28560
(
3.39367e-09
-3.3887e-09
7.55548e-10
2.63828e-09
-1.19669e-08
1.27223e-08
-3.45214e-08
2.25547e-08
-6.54021e-08
3.08806e-08
-1.02839e-07
3.74364e-08
-1.45197e-07
4.23583e-08
-1.91111e-07
4.59145e-08
-2.39502e-07
4.83901e-08
-2.89541e-07
5.00398e-08
-3.40617e-07
5.10759e-08
-3.92285e-07
5.16675e-08
-4.4423e-07
5.19457e-08
-4.9624e-07
5.20094e-08
-5.48171e-07
5.19313e-08
-5.99935e-07
5.17635e-08
-6.51477e-07
5.15422e-08
-7.02768e-07
5.12914e-08
-7.53794e-07
5.10263e-08
-8.0455e-07
5.07554e-08
-8.55032e-07
5.04825e-08
-9.05241e-07
5.02084e-08
-9.55172e-07
4.99316e-08
-1.00482e-06
4.96493e-08
-1.05418e-06
4.93578e-08
-1.10323e-06
4.90532e-08
-1.15196e-06
4.87312e-08
-1.20035e-06
4.83876e-08
-1.24837e-06
4.80181e-08
-1.29599e-06
4.76185e-08
-1.34317e-06
4.71849e-08
-1.38989e-06
4.67132e-08
-1.43609e-06
4.61994e-08
-1.48173e-06
4.56396e-08
-1.52675e-06
4.50299e-08
-1.57112e-06
4.43664e-08
-1.61477e-06
4.36453e-08
-1.65763e-06
4.28627e-08
-1.69964e-06
4.20147e-08
-1.74074e-06
4.10978e-08
-1.78085e-06
4.0108e-08
-1.81989e-06
3.9042e-08
-1.85779e-06
3.78961e-08
-1.89445e-06
3.6667e-08
-1.92981e-06
3.53518e-08
-1.96375e-06
3.39474e-08
-1.99621e-06
3.24515e-08
-2.02707e-06
3.08616e-08
-2.05624e-06
2.91762e-08
-2.08364e-06
2.73936e-08
-2.10915e-06
2.55132e-08
-2.13268e-06
2.35346e-08
-2.15414e-06
2.1458e-08
-2.17343e-06
1.92844e-08
-2.19044e-06
1.70156e-08
-2.2051e-06
1.46538e-08
-2.2173e-06
1.22022e-08
-2.22696e-06
9.66498e-09
-2.23401e-06
7.04681e-09
-2.23836e-06
4.35343e-09
-2.23996e-06
1.59149e-09
-2.23872e-06
-1.23208e-09
-2.23462e-06
-4.10834e-09
-2.22759e-06
-7.02873e-09
-2.2176e-06
-9.98337e-09
-2.20464e-06
-1.29617e-08
-2.18869e-06
-1.59527e-08
-2.16974e-06
-1.89447e-08
-2.14782e-06
-2.19255e-08
-2.12294e-06
-2.48826e-08
-2.09513e-06
-2.78034e-08
-2.06446e-06
-3.0675e-08
-2.03097e-06
-3.34846e-08
-1.99475e-06
-3.62195e-08
-1.95589e-06
-3.88675e-08
-1.91447e-06
-4.14167e-08
-1.87061e-06
-4.38556e-08
-1.82444e-06
-4.61736e-08
-1.77608e-06
-4.8361e-08
-1.72567e-06
-5.04089e-08
-1.67336e-06
-5.23094e-08
-1.6193e-06
-5.40558e-08
-1.56366e-06
-5.56425e-08
-1.5066e-06
-5.70652e-08
-1.44828e-06
-5.83207e-08
-1.38887e-06
-5.94071e-08
-1.32855e-06
-6.03235e-08
-1.26748e-06
-6.10702e-08
-1.20583e-06
-6.16483e-08
-1.14377e-06
-6.20599e-08
-1.08146e-06
-6.23075e-08
-1.01907e-06
-6.23939e-08
-9.56744e-07
-6.23223e-08
-8.94648e-07
-6.20954e-08
-8.32933e-07
-6.17153e-08
-7.7175e-07
-6.11835e-08
-7.1125e-07
-6.04998e-08
-6.51587e-07
-5.96625e-08
-5.9292e-07
-5.86675e-08
-5.35412e-07
-5.75083e-08
-4.79236e-07
-5.61754e-08
-4.2458e-07
-5.4656e-08
-3.71647e-07
-5.29334e-08
-3.20659e-07
-5.09876e-08
-2.71865e-07
-4.87945e-08
-2.25538e-07
-4.63265e-08
-1.81985e-07
-4.35533e-08
-1.41543e-07
-4.04423e-08
-1.04582e-07
-3.6961e-08
-7.15022e-08
-3.30794e-08
-4.27278e-08
-2.87744e-08
-1.86906e-08
-2.40372e-08
1.94231e-10
-1.88848e-08
1.35728e-08
-1.33786e-08
2.12287e-08
-7.65593e-09
2.3235e-08
-2.00625e-09
2.00474e-08
3.18761e-09
1.30275e-08
7.01989e-09
4.95397e-09
8.07347e-09
4.95392e-09
-2.6888e-09
-6.99741e-10
-2.26488e-08
2.25981e-08
-6.58199e-08
5.58935e-08
-1.31453e-07
8.81882e-08
-2.16687e-07
1.16115e-07
-3.17963e-07
1.38712e-07
-4.31791e-07
1.56186e-07
-5.55087e-07
1.69211e-07
-6.85289e-07
1.78592e-07
-8.20347e-07
1.85098e-07
-9.58673e-07
1.89401e-07
-1.09907e-06
1.9206e-07
-1.24064e-06
1.93519e-07
-1.38275e-06
1.94126e-07
-1.52496e-06
1.94141e-07
-1.66696e-06
1.93759e-07
-1.80854e-06
1.93117e-07
-1.94956e-06
1.92312e-07
-2.08993e-06
1.91405e-07
-2.22961e-06
1.90436e-07
-2.36856e-06
1.89425e-07
-2.50673e-06
1.88382e-07
-2.6441e-06
1.87304e-07
-2.78064e-06
1.86186e-07
-2.9163e-06
1.85019e-07
-3.05104e-06
1.83789e-07
-3.18479e-06
1.82483e-07
-3.31749e-06
1.81088e-07
-3.44906e-06
1.79588e-07
-3.57941e-06
1.7797e-07
-3.70845e-06
1.7622e-07
-3.83606e-06
1.74323e-07
-3.96212e-06
1.72266e-07
-4.08652e-06
1.70035e-07
-4.20911e-06
1.67617e-07
-4.32974e-06
1.64997e-07
-4.44825e-06
1.62162e-07
-4.56449e-06
1.59099e-07
-4.67827e-06
1.55795e-07
-4.78941e-06
1.52236e-07
-4.89771e-06
1.48411e-07
-5.00297e-06
1.44306e-07
-5.10499e-06
1.39911e-07
-5.20354e-06
1.35213e-07
-5.29839e-06
1.30204e-07
-5.38931e-06
1.24873e-07
-5.47608e-06
1.19213e-07
-5.55843e-06
1.13216e-07
-5.63613e-06
1.06878e-07
-5.70893e-06
1.00193e-07
-5.77658e-06
9.31611e-08
-5.83883e-06
8.57814e-08
-5.89542e-06
7.80562e-08
-5.94613e-06
6.99899e-08
-5.9907e-06
6.15896e-08
-6.02891e-06
5.28648e-08
-6.06054e-06
4.38278e-08
-6.08537e-06
3.44937e-08
-6.1032e-06
2.48806e-08
-6.11386e-06
1.50094e-08
-6.11717e-06
4.90407e-09
-6.11299e-06
-5.40933e-09
-6.1012e-06
-1.59003e-08
-6.08169e-06
-2.65373e-08
-6.05439e-06
-3.72854e-08
-6.01925e-06
-4.81075e-08
-5.97623e-06
-5.89647e-08
-5.92536e-06
-6.98159e-08
-5.86667e-06
-8.06188e-08
-5.80022e-06
-9.13301e-08
-5.72612e-06
-1.01906e-07
-5.64449e-06
-1.12301e-07
-5.55551e-06
-1.22472e-07
-5.45935e-06
-1.32375e-07
-5.35625e-06
-1.41968e-07
-5.24646e-06
-1.51209e-07
-5.13025e-06
-1.6006e-07
-5.00794e-06
-1.68485e-07
-4.87985e-06
-1.7645e-07
-4.74634e-06
-1.83924e-07
-4.60777e-06
-1.90881e-07
-4.46453e-06
-1.97297e-07
-4.31702e-06
-2.03154e-07
-4.16564e-06
-2.08436e-07
-4.01083e-06
-2.13132e-07
-3.853e-06
-2.17236e-07
-3.69258e-06
-2.20744e-07
-3.53e-06
-2.23656e-07
-3.36567e-06
-2.25976e-07
-3.20002e-06
-2.27708e-07
-3.03347e-06
-2.28862e-07
-2.86642e-06
-2.29445e-07
-2.69927e-06
-2.29465e-07
-2.53244e-06
-2.28931e-07
-2.36631e-06
-2.27848e-07
-2.20127e-06
-2.26216e-07
-2.03774e-06
-2.24034e-07
-1.87611e-06
-2.21291e-07
-1.71681e-06
-2.17969e-07
-1.56028e-06
-2.14041e-07
-1.40698e-06
-2.0947e-07
-1.25743e-06
-2.04205e-07
-1.11218e-06
-1.98186e-07
-9.71832e-07
-1.91335e-07
-8.3706e-07
-1.83567e-07
-7.08606e-07
-1.74781e-07
-5.87289e-07
-1.6487e-07
-4.74009e-07
-1.53723e-07
-3.69737e-07
-1.41233e-07
-2.7551e-07
-1.27306e-07
-1.92401e-07
-1.11884e-07
-1.21471e-07
-9.49666e-08
-6.3702e-08
-7.66542e-08
-1.98733e-08
-5.72073e-08
9.61323e-09
-3.71424e-08
2.49818e-08
-1.73748e-08
2.75224e-08
6.47028e-10
2.01809e-08
1.43615e-08
8.02558e-09
2.02289e-08
1.29795e-08
-1.31213e-08
1.24215e-08
-5.70621e-08
6.65391e-08
-1.33529e-07
1.3236e-07
-2.4076e-07
1.9542e-07
-3.75083e-07
2.50437e-07
-5.32048e-07
2.95678e-07
-7.07191e-07
3.31329e-07
-8.96433e-07
3.58453e-07
-1.09627e-06
3.78427e-07
-1.3038e-06
3.92633e-07
-1.51673e-06
4.02325e-07
-1.73324e-06
4.08574e-07
-1.95198e-06
4.12256e-07
-2.17192e-06
4.14066e-07
-2.39232e-06
4.14541e-07
-2.61264e-06
4.14084e-07
-2.83252e-06
4.12992e-07
-3.05168e-06
4.11472e-07
-3.26994e-06
4.09668e-07
-3.48717e-06
4.0767e-07
-3.70328e-06
4.05531e-07
-3.91817e-06
4.03276e-07
-4.13178e-06
4.00913e-07
-4.34403e-06
3.98433e-07
-4.55483e-06
3.9582e-07
-4.76409e-06
3.93053e-07
-4.97172e-06
3.90106e-07
-5.17758e-06
3.86953e-07
-5.38156e-06
3.83565e-07
-5.58351e-06
3.79915e-07
-5.78326e-06
3.75973e-07
-5.98065e-06
3.71711e-07
-6.17548e-06
3.67101e-07
-6.36756e-06
3.62115e-07
-6.55667e-06
3.56726e-07
-6.74258e-06
3.50906e-07
-6.92504e-06
3.44627e-07
-7.10381e-06
3.37863e-07
-7.2786e-06
3.30586e-07
-7.44913e-06
3.22772e-07
-7.61512e-06
3.14394e-07
-7.77624e-06
3.05429e-07
-7.93218e-06
2.95853e-07
-8.08261e-06
2.85646e-07
-8.2272e-06
2.74787e-07
-8.36558e-06
2.63259e-07
-8.49742e-06
2.51046e-07
-8.62233e-06
2.38136e-07
-8.73998e-06
2.24519e-07
-8.84997e-06
2.10189e-07
-8.95196e-06
1.95145e-07
-9.04556e-06
1.79388e-07
-9.13043e-06
1.62925e-07
-9.20621e-06
1.45766e-07
-9.27255e-06
1.27928e-07
-9.32911e-06
1.09432e-07
-9.37559e-06
9.03067e-08
-9.41168e-06
7.05833e-08
-9.4371e-06
5.03008e-08
-9.4516e-06
2.95038e-08
-9.45493e-06
8.2423e-09
-9.44692e-06
-1.34277e-08
-9.42737e-06
-3.54448e-08
-9.39617e-06
-5.77423e-08
-9.3532e-06
-8.02486e-08
-9.29842e-06
-1.02888e-07
-9.23181e-06
-1.2558e-07
-9.15338e-06
-1.48241e-07
-9.06322e-06
-1.70786e-07
-8.96142e-06
-1.93126e-07
-8.84815e-06
-2.15173e-07
-8.72362e-06
-2.36836e-07
-8.58806e-06
-2.58027e-07
-8.44178e-06
-2.78658e-07
-8.2851e-06
-2.98645e-07
-8.11841e-06
-3.17905e-07
-7.94211e-06
-3.36361e-07
-7.75665e-06
-3.53941e-07
-7.56252e-06
-3.70577e-07
-7.36024e-06
-3.86209e-07
-7.15034e-06
-4.00784e-07
-6.93338e-06
-4.14256e-07
-6.70994e-06
-4.26587e-07
-6.48063e-06
-4.37746e-07
-6.24605e-06
-4.47713e-07
-6.00682e-06
-4.56472e-07
-5.76354e-06
-4.64017e-07
-5.51685e-06
-4.70348e-07
-5.26736e-06
-4.75469e-07
-5.01567e-06
-4.79392e-07
-4.76241e-06
-4.8213e-07
-4.50815e-06
-4.83698e-07
-4.25351e-06
-4.84111e-07
-3.99906e-06
-4.8338e-07
-3.74539e-06
-4.81513e-07
-3.4931e-06
-4.78508e-07
-3.24278e-06
-4.74355e-07
-2.99504e-06
-4.69029e-07
-2.75052e-06
-4.62487e-07
-2.5099e-06
-4.54669e-07
-2.27387e-06
-4.45493e-07
-2.04323e-06
-4.3485e-07
-1.8188e-06
-4.22609e-07
-1.60153e-06
-4.08613e-07
-1.39242e-06
-3.92677e-07
-1.1926e-06
-3.74601e-07
-1.0033e-06
-3.54166e-07
-8.25869e-07
-3.31154e-07
-6.61743e-07
-3.05358e-07
-5.12435e-07
-2.76614e-07
-3.79485e-07
-2.44833e-07
-2.6439e-07
-2.10062e-07
-1.68485e-07
-1.72559e-07
-9.2784e-08
-1.32908e-07
-3.77431e-08
-9.21834e-08
-2.94848e-09
-5.21694e-08
1.33751e-08
-1.56766e-08
1.47194e-08
1.30172e-08
7.0523e-09
2.7896e-08
2.00318e-08
-2.38058e-08
3.62273e-08
-9.21444e-08
1.34878e-07
-2.01822e-07
2.42037e-07
-3.4885e-07
3.42448e-07
-5.2838e-07
4.29967e-07
-7.352e-07
5.02498e-07
-9.64202e-07
5.60331e-07
-1.2107e-06
6.04955e-07
-1.47062e-06
6.38343e-07
-1.74051e-06
6.62526e-07
-2.01758e-06
6.79393e-07
-2.29959e-06
6.90585e-07
-2.58481e-06
6.97472e-07
-2.8719e-06
7.01161e-07
-3.15988e-06
7.0252e-07
-3.44801e-06
7.0221e-07
-3.73574e-06
7.00726e-07
-4.02269e-06
6.98421e-07
-4.30857e-06
6.95543e-07
-4.59315e-06
6.92256e-07
-4.87628e-06
6.88657e-07
-5.15781e-06
6.84802e-07
-5.4376e-06
6.80708e-07
-5.71554e-06
6.76372e-07
-5.99149e-06
6.71773e-07
-6.26532e-06
6.66881e-07
-6.53687e-06
6.61657e-07
-6.80598e-06
6.5606e-07
-7.07246e-06
6.50046e-07
-7.33611e-06
6.43569e-07
-7.59673e-06
6.36586e-07
-7.85406e-06
6.29049e-07
-8.10788e-06
6.20913e-07
-8.35789e-06
6.12133e-07
-8.60383e-06
6.02664e-07
-8.84539e-06
5.92462e-07
-9.08224e-06
5.81481e-07
-9.31406e-06
5.69678e-07
-9.54048e-06
5.57011e-07
-9.76115e-06
5.43439e-07
-9.97568e-06
5.28921e-07
-1.01837e-05
5.13418e-07
-1.03847e-05
4.96896e-07
-1.05784e-05
4.79319e-07
-1.07643e-05
4.60659e-07
-1.09419e-05
4.40887e-07
-1.11108e-05
4.19982e-07
-1.12706e-05
3.97925e-07
-1.14208e-05
3.74703e-07
-1.15609e-05
3.5031e-07
-1.16905e-05
3.24744e-07
-1.18091e-05
2.98012e-07
-1.19163e-05
2.70127e-07
-1.20117e-05
2.41111e-07
-1.20947e-05
2.10994e-07
-1.21651e-05
1.79813e-07
-1.22224e-05
1.47616e-07
-1.22663e-05
1.14459e-07
-1.22964e-05
8.04092e-08
-1.23125e-05
4.55407e-08
-1.23142e-05
9.93795e-09
-1.23013e-05
-2.63055e-08
-1.22736e-05
-6.30877e-08
-1.22311e-05
-1.00298e-07
-1.21735e-05
-1.37819e-07
-1.21009e-05
-1.75526e-07
-1.20132e-05
-2.13287e-07
-1.19104e-05
-2.50967e-07
-1.17928e-05
-2.88425e-07
-1.16604e-05
-3.2552e-07
-1.15135e-05
-3.62106e-07
-1.13523e-05
-3.9804e-07
-1.11771e-05
-4.33178e-07
-1.09884e-05
-4.6738e-07
-1.07865e-05
-5.00509e-07
-1.0572e-05
-5.32436e-07
-1.03453e-05
-5.63034e-07
-1.01071e-05
-5.9219e-07
-9.85785e-06
-6.19797e-07
-9.5983e-06
-6.45759e-07
-9.3291e-06
-6.69991e-07
-9.05093e-06
-6.92421e-07
-8.76453e-06
-7.12988e-07
-8.47063e-06
-7.31646e-07
-8.16998e-06
-7.48359e-07
-7.86335e-06
-7.63106e-07
-7.55149e-06
-7.75874e-07
-7.23518e-06
-7.86664e-07
-6.91516e-06
-7.95483e-07
-6.59221e-06
-8.02348e-07
-6.26706e-06
-8.07277e-07
-5.94047e-06
-8.10292e-07
-5.61316e-06
-8.11415e-07
-5.28588e-06
-8.1066e-07
-4.95936e-06
-8.08035e-07
-4.63434e-06
-8.03532e-07
-4.31157e-06
-7.97128e-07
-3.99182e-06
-7.88775e-07
-3.67591e-06
-7.784e-07
-3.36468e-06
-7.65895e-07
-3.05905e-06
-7.5112e-07
-2.76001e-06
-7.33893e-07
-2.46863e-06
-7.13994e-07
-2.18608e-06
-6.91161e-07
-1.91366e-06
-6.65095e-07
-1.6528e-06
-6.35467e-07
-1.40503e-06
-6.0193e-07
-1.17205e-06
-5.64139e-07
-9.55622e-07
-5.21782e-07
-7.57615e-07
-4.74621e-07
-5.79891e-07
-4.22557e-07
-4.24238e-07
-3.65716e-07
-2.92223e-07
-3.04574e-07
-1.85009e-07
-2.40122e-07
-1.03107e-07
-1.74086e-07
-4.60464e-08
-1.0923e-07
-1.19963e-08
-4.97267e-08
2.62767e-09
-1.60679e-09
3.66138e-09
2.68623e-08
2.36932e-08
-3.35301e-08
6.97574e-08
-1.24653e-07
2.26e-07
-2.65604e-07
3.82989e-07
-4.49741e-07
5.26585e-07
-6.7071e-07
6.50936e-07
-9.22421e-07
7.54209e-07
-1.19919e-06
8.37105e-07
-1.49591e-06
9.01674e-07
-1.80811e-06
9.50539e-07
-2.132e-06
9.86415e-07
-2.46445e-06
1.01185e-06
-2.80294e-06
1.02908e-06
-3.14548e-06
1.04e-06
-3.49049e-06
1.04617e-06
-3.83678e-06
1.04882e-06
-4.18346e-06
1.04889e-06
-4.52984e-06
1.0471e-06
-4.8754e-06
1.04398e-06
-5.21976e-06
1.0399e-06
-5.56262e-06
1.03511e-06
-5.90373e-06
1.02977e-06
-6.24289e-06
1.02397e-06
-6.57992e-06
1.01774e-06
-6.91464e-06
1.01109e-06
-7.24686e-06
1.00399e-06
-7.57639e-06
9.96416e-07
-7.90304e-06
9.88308e-07
-8.22659e-06
9.79611e-07
-8.54681e-06
9.70264e-07
-8.86345e-06
9.60205e-07
-9.17623e-06
9.49368e-07
-9.48487e-06
9.37688e-07
-9.78906e-06
9.25101e-07
-1.00885e-05
9.11541e-07
-1.03827e-05
8.96945e-07
-1.06715e-05
8.81247e-07
-1.09544e-05
8.64385e-07
-1.12311e-05
8.46297e-07
-1.1501e-05
8.26923e-07
-1.17637e-05
8.06203e-07
-1.20189e-05
7.84082e-07
-1.2266e-05
7.60505e-07
-1.25045e-05
7.35423e-07
-1.2734e-05
7.0879e-07
-1.29539e-05
6.80563e-07
-1.31637e-05
6.50708e-07
-1.33629e-05
6.19194e-07
-1.3551e-05
5.85999e-07
-1.37274e-05
5.51108e-07
-1.38916e-05
5.14515e-07
-1.40431e-05
4.76222e-07
-1.41813e-05
4.36243e-07
-1.43058e-05
3.94601e-07
-1.4416e-05
3.51332e-07
-1.45115e-05
3.06484e-07
-1.45918e-05
2.60115e-07
-1.46565e-05
2.12299e-07
-1.47051e-05
1.63122e-07
-1.47374e-05
1.12682e-07
-1.4753e-05
6.10924e-08
-1.47515e-05
8.47762e-09
-1.47328e-05
-4.50241e-08
-1.46966e-05
-9.92625e-08
-1.46428e-05
-1.54076e-07
-1.45714e-05
-2.09293e-07
-1.44822e-05
-2.64732e-07
-1.43752e-05
-3.20202e-07
-1.42507e-05
-3.75509e-07
-1.41087e-05
-4.30449e-07
-1.39494e-05
-4.84818e-07
-1.37731e-05
-5.3841e-07
-1.35801e-05
-5.91017e-07
-1.33708e-05
-6.42436e-07
-1.31457e-05
-6.92466e-07
-1.29053e-05
-7.40915e-07
-1.26502e-05
-7.87596e-07
-1.23809e-05
-8.32335e-07
-1.20981e-05
-8.74969e-07
-1.18026e-05
-9.15346e-07
-1.1495e-05
-9.53334e-07
-1.11762e-05
-9.88814e-07
-1.08469e-05
-1.02168e-06
-1.0508e-05
-1.05186e-06
-1.01604e-05
-1.07927e-06
-9.80487e-06
-1.10388e-06
-9.44232e-06
-1.12565e-06
-9.07363e-06
-1.14457e-06
-8.69966e-06
-1.16063e-06
-8.32129e-06
-1.17385e-06
-7.93939e-06
-1.18425e-06
-7.55481e-06
-1.19185e-06
-7.16842e-06
-1.19669e-06
-6.78105e-06
-1.19878e-06
-6.39355e-06
-1.19816e-06
-6.00677e-06
-1.19481e-06
-5.62157e-06
-1.18874e-06
-5.23881e-06
-1.17988e-06
-4.85941e-06
-1.16818e-06
-4.48429e-06
-1.15352e-06
-4.11445e-06
-1.13573e-06
-3.75095e-06
-1.11461e-06
-3.39495e-06
-1.08989e-06
-3.0477e-06
-1.06125e-06
-2.71056e-06
-1.0283e-06
-2.38504e-06
-9.90618e-07
-2.07277e-06
-9.47734e-07
-1.77554e-06
-8.99159e-07
-1.49526e-06
-8.44416e-07
-1.23396e-06
-7.83081e-07
-9.93735e-07
-7.14851e-07
-7.76662e-07
-6.3963e-07
-5.84724e-07
-5.57654e-07
-4.1965e-07
-4.69648e-07
-2.82725e-07
-3.77047e-07
-1.74546e-07
-2.82264e-07
-9.47417e-08
-1.89034e-07
-4.16509e-08
-1.02818e-07
-1.20091e-08
-3.12486e-08
-6.23417e-10
1.54766e-08
2.30697e-08
-4.19758e-08
1.11733e-07
-1.53459e-07
3.37483e-07
-3.2281e-07
5.5234e-07
-5.4076e-07
7.44535e-07
-7.99303e-07
9.09479e-07
-1.09136e-06
1.04626e-06
-1.41063e-06
1.15638e-06
-1.75162e-06
1.24266e-06
-2.10956e-06
1.30848e-06
-2.48042e-06
1.35728e-06
-2.86087e-06
1.39229e-06
-3.24818e-06
1.41639e-06
-3.64017e-06
1.432e-06
-4.03512e-06
1.44113e-06
-4.43169e-06
1.44539e-06
-4.82884e-06
1.44604e-06
-5.22578e-06
1.44403e-06
-5.62188e-06
1.44009e-06
-6.01667e-06
1.4347e-06
-6.40978e-06
1.42822e-06
-6.8009e-06
1.42089e-06
-7.18975e-06
1.41282e-06
-7.57609e-06
1.40408e-06
-7.95969e-06
1.39469e-06
-8.34033e-06
1.38463e-06
-8.71775e-06
1.37384e-06
-9.09173e-06
1.36228e-06
-9.46198e-06
1.34987e-06
-9.82824e-06
1.33652e-06
-1.01902e-05
1.32216e-06
-1.05475e-05
1.30671e-06
-1.08999e-05
1.29007e-06
-1.1247e-05
1.27216e-06
-1.15883e-05
1.25289e-06
-1.19236e-05
1.23219e-06
-1.22523e-05
1.20996e-06
-1.2574e-05
1.18613e-06
-1.28883e-05
1.1606e-06
-1.31947e-05
1.1333e-06
-1.34927e-05
1.10416e-06
-1.37817e-05
1.0731e-06
-1.40612e-05
1.04004e-06
-1.43307e-05
1.00494e-06
-1.45897e-05
9.67719e-07
-1.48374e-05
9.28336e-07
-1.50735e-05
8.86745e-07
-1.52972e-05
8.42909e-07
-1.5508e-05
7.96803e-07
-1.57053e-05
7.48412e-07
-1.58885e-05
6.97732e-07
-1.60571e-05
6.44773e-07
-1.62104e-05
5.89556e-07
-1.63479e-05
5.32121e-07
-1.64691e-05
4.72519e-07
-1.65734e-05
4.10821e-07
-1.66604e-05
3.47111e-07
-1.67296e-05
2.81492e-07
-1.67806e-05
2.14086e-07
-1.68129e-05
1.45028e-07
-1.68263e-05
7.44753e-08
-1.68204e-05
2.59911e-09
-1.6795e-05
-7.04117e-08
-1.67499e-05
-1.44353e-07
-1.6685e-05
-2.19005e-07
-1.66002e-05
-2.94136e-07
-1.64954e-05
-3.69501e-07
-1.63708e-05
-4.44845e-07
-1.62264e-05
-5.19906e-07
-1.60624e-05
-5.94413e-07
-1.58791e-05
-6.68094e-07
-1.56769e-05
-7.40674e-07
-1.5456e-05
-8.11878e-07
-1.5217e-05
-8.81437e-07
-1.49604e-05
-9.49087e-07
-1.46867e-05
-1.01457e-06
-1.43967e-05
-1.07765e-06
-1.40909e-05
-1.13809e-06
-1.37702e-05
-1.19568e-06
-1.34353e-05
-1.25022e-06
-1.30871e-05
-1.30154e-06
-1.27265e-05
-1.34948e-06
-1.23542e-05
-1.39391e-06
-1.19714e-05
-1.43473e-06
-1.15788e-05
-1.47186e-06
-1.11774e-05
-1.50522e-06
-1.07683e-05
-1.53478e-06
-1.03524e-05
-1.56052e-06
-9.93055e-06
-1.58245e-06
-9.50383e-06
-1.60057e-06
-9.07316e-06
-1.61492e-06
-8.63949e-06
-1.62553e-06
-8.20374e-06
-1.63244e-06
-7.76685e-06
-1.63567e-06
-7.32975e-06
-1.63525e-06
-6.89338e-06
-1.63118e-06
-6.45867e-06
-1.62344e-06
-6.0266e-06
-1.61196e-06
-5.59815e-06
-1.59663e-06
-5.17436e-06
-1.57731e-06
-4.75634e-06
-1.55376e-06
-4.34526e-06
-1.5257e-06
-3.94239e-06
-1.49277e-06
-3.5491e-06
-1.45453e-06
-3.16692e-06
-1.41048e-06
-2.79748e-06
-1.36006e-06
-2.44258e-06
-1.30264e-06
-2.10415e-06
-1.23758e-06
-1.78429e-06
-1.16428e-06
-1.48517e-06
-1.0822e-06
-1.20903e-06
-9.90984e-07
-9.58122e-07
-8.90542e-07
-7.34544e-07
-7.81232e-07
-5.40147e-07
-6.64044e-07
-3.76336e-07
-5.40859e-07
-2.43846e-07
-4.14754e-07
-1.42502e-07
-2.90378e-07
-7.09623e-08
-1.74357e-07
-2.64871e-08
-7.57238e-08
-4.76209e-09
-6.2484e-09
1.83076e-08
-4.91697e-08
1.60903e-07
-1.7843e-07
4.66744e-07
-3.72987e-07
7.46897e-07
-6.2119e-07
9.92737e-07
-9.13405e-07
1.20169e-06
-1.2415e-06
1.37436e-06
-1.59854e-06
1.51342e-06
-1.9786e-06
1.62272e-06
-2.37666e-06
1.70653e-06
-2.7885e-06
1.76912e-06
-3.21063e-06
1.81443e-06
-3.64021e-06
1.84596e-06
-4.07492e-06
1.86671e-06
-4.51294e-06
1.87915e-06
-4.95283e-06
1.88527e-06
-5.39343e-06
1.88664e-06
-5.83388e-06
1.88448e-06
-6.27347e-06
1.87967e-06
-6.71165e-06
1.87288e-06
-7.14798e-06
1.86455e-06
-7.58208e-06
1.85499e-06
-8.01363e-06
1.84437e-06
-8.44234e-06
1.83278e-06
-8.86791e-06
1.82026e-06
-9.29008e-06
1.80679e-06
-9.70855e-06
1.79232e-06
-1.0123e-05
1.77677e-06
-1.05332e-05
1.76006e-06
-1.09388e-05
1.7421e-06
-1.13394e-05
1.72277e-06
-1.17347e-05
1.70199e-06
-1.21243e-05
1.67963e-06
-1.25077e-05
1.65559e-06
-1.28846e-05
1.62977e-06
-1.32545e-05
1.60206e-06
-1.36168e-05
1.57234e-06
-1.39712e-05
1.54052e-06
-1.43171e-05
1.5065e-06
-1.4654e-05
1.47017e-06
-1.49813e-05
1.43144e-06
-1.52984e-05
1.39022e-06
-1.56048e-05
1.34642e-06
-1.58998e-05
1.29997e-06
-1.61829e-05
1.25079e-06
-1.64534e-05
1.19882e-06
-1.67106e-05
1.14402e-06
-1.6954e-05
1.08633e-06
-1.7183e-05
1.02574e-06
-1.73968e-05
9.62227e-07
-1.75949e-05
8.95796e-07
-1.77766e-05
8.26465e-07
-1.79413e-05
7.54268e-07
-1.80884e-05
6.7926e-07
-1.82174e-05
6.01517e-07
-1.83277e-05
5.21131e-07
-1.84188e-05
4.38219e-07
-1.84902e-05
3.52919e-07
-1.85416e-05
2.6539e-07
-1.85723e-05
1.75812e-07
-1.85823e-05
8.43901e-08
-1.8571e-05
-8.65304e-09
-1.85383e-05
-1.03072e-07
-1.84841e-05
-1.98604e-07
-1.84081e-05
-2.94965e-07
-1.83104e-05
-3.91858e-07
-1.81909e-05
-4.8897e-07
-1.80498e-05
-5.85975e-07
-1.78872e-05
-6.82539e-07
-1.77033e-05
-7.78319e-07
-1.74984e-05
-8.72969e-07
-1.72729e-05
-9.66142e-07
-1.70273e-05
-1.05749e-06
-1.67621e-05
-1.14668e-06
-1.64778e-05
-1.23337e-06
-1.61751e-05
-1.31725e-06
-1.58547e-05
-1.39801e-06
-1.55175e-05
-1.47537e-06
-1.51641e-05
-1.54905e-06
-1.47955e-05
-1.61882e-06
-1.44125e-05
-1.68446e-06
-1.40162e-05
-1.74578e-06
-1.36075e-05
-1.80262e-06
-1.31874e-05
-1.85484e-06
-1.27569e-05
-1.90235e-06
-1.23171e-05
-1.94507e-06
-1.18689e-05
-1.98295e-06
-1.14134e-05
-2.01598e-06
-1.09517e-05
-2.04416e-06
-1.04848e-05
-2.06751e-06
-1.00137e-05
-2.08606e-06
-9.53934e-06
-2.09985e-06
-9.06283e-06
-2.10895e-06
-8.58513e-06
-2.11337e-06
-8.10724e-06
-2.11314e-06
-7.63016e-06
-2.10827e-06
-7.15489e-06
-2.09871e-06
-6.68247e-06
-2.08438e-06
-6.21395e-06
-2.06515e-06
-5.75046e-06
-2.0408e-06
-5.29317e-06
-2.01105e-06
-4.84333e-06
-1.97554e-06
-4.40229e-06
-1.9338e-06
-3.97153e-06
-1.88529e-06
-3.55264e-06
-1.82937e-06
-3.14738e-06
-1.76532e-06
-2.75763e-06
-1.69239e-06
-2.38544e-06
-1.60977e-06
-2.03298e-06
-1.51673e-06
-1.70255e-06
-1.41263e-06
-1.39649e-06
-1.29705e-06
-1.11712e-06
-1.16991e-06
-8.6666e-07
-1.0317e-06
-6.47051e-07
-8.83653e-07
-4.59824e-07
-7.28086e-07
-3.05888e-07
-5.68691e-07
-1.85324e-07
-4.10942e-07
-9.71897e-08
-2.62492e-07
-3.9355e-08
-1.33559e-07
-8.42635e-09
-3.7177e-08
9.88129e-09
-5.52527e-08
2.16156e-07
-1.99843e-07
6.11334e-07
-4.16444e-07
9.63498e-07
-6.91348e-07
1.26764e-06
-1.01342e-06
1.52376e-06
-1.37348e-06
1.73443e-06
-1.76394e-06
1.90388e-06
-2.17844e-06
2.03722e-06
-2.6117e-06
2.13979e-06
-3.05933e-06
2.21675e-06
-3.51772e-06
2.27282e-06
-3.98393e-06
2.31217e-06
-4.45557e-06
2.33835e-06
-4.93075e-06
2.35432e-06
-5.40793e-06
2.36245e-06
-5.88592e-06
2.36463e-06
-6.36377e-06
2.36233e-06
-6.84071e-06
2.35662e-06
-7.31615e-06
2.34832e-06
-7.78957e-06
2.33798e-06
-8.26056e-06
2.32597e-06
-8.72873e-06
2.31254e-06
-9.19374e-06
2.2978e-06
-9.65526e-06
2.28179e-06
-1.0113e-05
2.26451e-06
-1.05666e-05
2.2459e-06
-1.10157e-05
2.22588e-06
-1.146e-05
2.20435e-06
-1.18991e-05
2.1812e-06
-1.23326e-05
2.1563e-06
-1.27601e-05
2.12952e-06
-1.31812e-05
2.10075e-06
-1.35955e-05
2.06985e-06
-1.40024e-05
2.03669e-06
-1.44015e-05
2.00114e-06
-1.47922e-05
1.96306e-06
-1.5174e-05
1.92235e-06
-1.55464e-05
1.87887e-06
-1.59087e-05
1.8325e-06
-1.62604e-05
1.78313e-06
-1.66009e-05
1.73065e-06
-1.69294e-05
1.67497e-06
-1.72454e-05
1.61598e-06
-1.75483e-05
1.55361e-06
-1.78372e-05
1.48779e-06
-1.81117e-05
1.41846e-06
-1.83709e-05
1.34557e-06
-1.86143e-05
1.26909e-06
-1.88411e-05
1.18903e-06
-1.90507e-05
1.10538e-06
-1.92424e-05
1.01818e-06
-1.94156e-05
9.27473e-07
-1.95696e-05
8.33339e-07
-1.9704e-05
7.35876e-07
-1.98181e-05
6.35207e-07
-1.99113e-05
5.31481e-07
-1.99833e-05
4.24875e-07
-2.00335e-05
3.15592e-07
-2.00616e-05
2.0386e-07
-2.00671e-05
8.99342e-08
-2.00498e-05
-2.59037e-08
-2.00096e-05
-1.43349e-07
-1.99461e-05
-2.62073e-07
-1.98593e-05
-3.81725e-07
-1.97493e-05
-5.01938e-07
-1.96159e-05
-6.22325e-07
-1.94594e-05
-7.42485e-07
-1.92799e-05
-8.62008e-07
-1.90778e-05
-9.80475e-07
-1.88533e-05
-1.09746e-06
-1.86069e-05
-1.21255e-06
-1.83391e-05
-1.32531e-06
-1.80504e-05
-1.43533e-06
-1.77416e-05
-1.54221e-06
-1.74133e-05
-1.64557e-06
-1.70662e-05
-1.74503e-06
-1.67014e-05
-1.84025e-06
-1.63195e-05
-1.93092e-06
-1.59216e-05
-2.01673e-06
-1.55086e-05
-2.09743e-06
-1.50816e-05
-2.1728e-06
-1.46416e-05
-2.24265e-06
-1.41896e-05
-2.30681e-06
-1.37268e-05
-2.36517e-06
-1.32542e-05
-2.41765e-06
-1.2773e-05
-2.46419e-06
-1.22842e-05
-2.50478e-06
-1.17889e-05
-2.53942e-06
-1.12883e-05
-2.56813e-06
-1.07833e-05
-2.59098e-06
-1.02752e-05
-2.608e-06
-9.7649e-06
-2.61925e-06
-9.25348e-06
-2.62479e-06
-8.74199e-06
-2.62463e-06
-8.23148e-06
-2.61878e-06
-7.72301e-06
-2.60718e-06
-7.21766e-06
-2.58973e-06
-6.71654e-06
-2.56626e-06
-6.22082e-06
-2.53652e-06
-5.73173e-06
-2.50015e-06
-5.25056e-06
-2.4567e-06
-4.77874e-06
-2.40562e-06
-4.31779e-06
-2.34625e-06
-3.86935e-06
-2.2778e-06
-3.43525e-06
-2.19943e-06
-3.01742e-06
-2.11021e-06
-2.61798e-06
-2.00922e-06
-2.23916e-06
-1.89556e-06
-1.8833e-06
-1.76849e-06
-1.55282e-06
-1.62753e-06
-1.25009e-06
-1.47263e-06
-9.7741e-07
-1.30438e-06
-7.36809e-07
-1.12425e-06
-5.29948e-07
-9.34947e-07
-3.57925e-07
-7.40713e-07
-2.21102e-07
-5.47765e-07
-1.18943e-07
-3.64651e-07
-4.98986e-08
-2.02603e-07
-1.13697e-08
-7.57059e-08
-1.48841e-09
-6.03873e-08
2.76543e-07
-2.18107e-07
7.69054e-07
-4.53805e-07
1.1992e-06
-7.52042e-07
1.56588e-06
-1.10034e-06
1.87206e-06
-1.48857e-06
2.12266e-06
-1.90846e-06
2.32377e-06
-2.35324e-06
2.482e-06
-2.81735e-06
2.6039e-06
-3.29623e-06
2.69563e-06
-3.78617e-06
2.76276e-06
-4.28414e-06
2.81015e-06
-4.78772e-06
2.84193e-06
-5.29494e-06
2.86154e-06
-5.80425e-06
2.87175e-06
-6.31439e-06
2.87477e-06
-6.82436e-06
2.8723e-06
-7.33338e-06
2.86563e-06
-7.84077e-06
2.85571e-06
-8.34599e-06
2.8432e-06
-8.84857e-06
2.82856e-06
-9.3481e-06
2.81207e-06
-9.84419e-06
2.79388e-06
-1.03365e-05
2.77407e-06
-1.08246e-05
2.75262e-06
-1.13081e-05
2.72947e-06
-1.17868e-05
2.70454e-06
-1.22602e-05
2.67771e-06
-1.27278e-05
2.64885e-06
-1.31894e-05
2.61782e-06
-1.36443e-05
2.58448e-06
-1.40922e-05
2.54866e-06
-1.45326e-05
2.51023e-06
-1.49649e-05
2.46902e-06
-1.53887e-05
2.42489e-06
-1.58033e-05
2.37768e-06
-1.62082e-05
2.32725e-06
-1.66028e-05
2.27345e-06
-1.69864e-05
2.21614e-06
-1.73585e-05
2.1552e-06
-1.77183e-05
2.09049e-06
-1.80653e-05
2.0219e-06
-1.83986e-05
1.94932e-06
-1.87177e-05
1.87267e-06
-1.90217e-05
1.79186e-06
-1.93101e-05
1.70684e-06
-1.95821e-05
1.61754e-06
-1.9837e-05
1.52396e-06
-2.0074e-05
1.42608e-06
-2.02926e-05
1.32393e-06
-2.04919e-05
1.21754e-06
-2.06714e-05
1.10699e-06
-2.08305e-05
9.92366e-07
-2.09684e-05
8.73805e-07
-2.10846e-05
7.51459e-07
-2.11787e-05
6.25515e-07
-2.125e-05
4.96191e-07
-2.12981e-05
3.63736e-07
-2.13227e-05
2.28432e-07
-2.13234e-05
9.05895e-08
-2.12998e-05
-4.94496e-08
-2.12519e-05
-1.91315e-07
-2.11793e-05
-3.34611e-07
-2.10821e-05
-4.78914e-07
-2.09603e-05
-6.23781e-07
-2.08139e-05
-7.68749e-07
-2.0643e-05
-9.13339e-07
-2.0448e-05
-1.05706e-06
-2.0229e-05
-1.19941e-06
-1.99866e-05
-1.33988e-06
-1.97212e-05
-1.47798e-06
-1.94333e-05
-1.61321e-06
-1.91235e-05
-1.74506e-06
-1.87927e-05
-1.87308e-06
-1.84414e-05
-1.99679e-06
-1.80707e-05
-2.11578e-06
-1.76813e-05
-2.22963e-06
-1.72743e-05
-2.33796e-06
-1.68505e-05
-2.44045e-06
-1.64112e-05
-2.53678e-06
-1.59573e-05
-2.6267e-06
-1.549e-05
-2.70998e-06
-1.50103e-05
-2.78644e-06
-1.45196e-05
-2.85596e-06
-1.40188e-05
-2.91843e-06
-1.35092e-05
-2.97381e-06
-1.29919e-05
-3.02206e-06
-1.24681e-05
-3.06322e-06
-1.19389e-05
-3.09731e-06
-1.14055e-05
-3.1244e-06
-1.08689e-05
-3.14454e-06
-1.03304e-05
-3.15782e-06
-9.7909e-06
-3.16428e-06
-9.25158e-06
-3.16395e-06
-8.71351e-06
-3.15685e-06
-8.17779e-06
-3.1429e-06
-7.64554e-06
-3.12198e-06
-7.11791e-06
-3.09389e-06
-6.59609e-06
-3.05833e-06
-6.08134e-06
-3.01489e-06
-5.57502e-06
-2.96303e-06
-5.07854e-06
-2.9021e-06
-4.59348e-06
-2.83131e-06
-4.12151e-06
-2.74977e-06
-3.66448e-06
-2.65646e-06
-3.22437e-06
-2.55033e-06
-2.8033e-06
-2.43029e-06
-2.40354e-06
-2.29531e-06
-2.02747e-06
-2.14456e-06
-1.67752e-06
-1.97748e-06
-1.35613e-06
-1.79402e-06
-1.06564e-06
-1.59488e-06
-8.08164e-07
-1.38173e-06
-5.85496e-07
-1.15761e-06
-3.98917e-07
-9.27292e-07
-2.49054e-07
-6.97628e-07
-1.35737e-07
-4.77969e-07
-5.78998e-08
-2.80439e-07
-1.35461e-08
-1.2006e-07
-1.50345e-08
-6.47226e-08
3.41265e-07
-2.33645e-07
9.37976e-07
-4.85785e-07
1.45134e-06
-8.04263e-07
1.88436e-06
-1.17544e-06
2.24324e-06
-1.58832e-06
2.53554e-06
-2.03402e-06
2.76947e-06
-2.50532e-06
2.95331e-06
-2.99641e-06
3.09499e-06
-3.50256e-06
3.20177e-06
-4.01994e-06
3.28014e-06
-4.54547e-06
3.33568e-06
-5.07667e-06
3.37314e-06
-5.61156e-06
3.39643e-06
-6.14854e-06
3.40873e-06
-6.68633e-06
3.41256e-06
-7.2239e-06
3.40988e-06
-7.76043e-06
3.40216e-06
-8.29522e-06
3.3905e-06
-8.82769e-06
3.37567e-06
-9.35734e-06
3.35821e-06
-9.88372e-06
3.33844e-06
-1.04064e-05
3.31657e-06
-1.0925e-05
3.29266e-06
-1.14391e-05
3.26671e-06
-1.19483e-05
3.23867e-06
-1.24522e-05
3.20844e-06
-1.29504e-05
3.17589e-06
-1.34424e-05
3.14087e-06
-1.39278e-05
3.10323e-06
-1.44061e-05
3.06278e-06
-1.48768e-05
3.01937e-06
-1.53394e-05
2.97282e-06
-1.57933e-05
2.92294e-06
-1.6238e-05
2.86957e-06
-1.66728e-05
2.81253e-06
-1.70972e-05
2.75166e-06
-1.75106e-05
2.68678e-06
-1.79122e-05
2.61774e-06
-1.83014e-05
2.54439e-06
-1.86775e-05
2.46659e-06
-1.90398e-05
2.3842e-06
-1.93875e-05
2.29711e-06
-1.97201e-05
2.20521e-06
-2.00366e-05
2.10843e-06
-2.03365e-05
2.00668e-06
-2.06189e-05
1.89993e-06
-2.08831e-05
1.78816e-06
-2.11284e-05
1.67136e-06
-2.1354e-05
1.54957e-06
-2.15593e-05
1.42284e-06
-2.17436e-05
1.29127e-06
-2.19062e-05
1.15497e-06
-2.20465e-05
1.0141e-06
-2.21639e-05
8.68857e-07
-2.22578e-05
7.19463e-07
-2.23278e-05
5.66182e-07
-2.23734e-05
4.09313e-07
-2.23942e-05
2.49193e-07
-2.23898e-05
8.61929e-08
-2.23599e-05
-7.92817e-08
-2.23044e-05
-2.46792e-07
-2.22232e-05
-4.15869e-07
-2.21161e-05
-5.86015e-07
-2.19832e-05
-7.56707e-07
-2.18245e-05
-9.274e-07
-2.16403e-05
-1.09753e-06
-2.14308e-05
-1.26653e-06
-2.11964e-05
-1.43381e-06
-2.09376e-05
-1.59878e-06
-2.06547e-05
-1.76085e-06
-2.03485e-05
-1.91944e-06
-2.00195e-05
-2.07399e-06
-1.96687e-05
-2.22394e-06
-1.92967e-05
-2.36876e-06