/*--------------------------------*- C++ -*----------------------------------*\
| =========                 |                                                 |
| \\      /  F ield         | OpenFOAM: The Open Source CFD Toolbox           |
|  \\    /   O peration     | Version:  2406                                  |
|   \\  /    A nd           | Website:  www.openfoam.com                      |
|    \\/     M anipulation  |                                                 |
\*---------------------------------------------------------------------------*/
FoamFile
{
    version     2.0;
    format      ascii;
    arch        "LSB;label=32;scalar=64";
    class       volVectorField;
    location    "25.2";
    object      U;
}
// * * * * * * * * * * * * * * * * * * * * * * * * * * * * * * * * * * * * * //

dimensions      [0 1 -1 0 0 0 0];

internalField   nonuniform List<vector> 
14400
(
(-9.09541e-06 9.04456e-06 0)
(1.37999e-05 -1.30203e-05 0)
(0.000100386 -3.3106e-05 0)
(0.000231991 -4.88473e-05 0)
(0.000400143 -5.67481e-05 0)
(0.000582326 -6.04022e-05 0)
(0.000772044 -5.97915e-05 0)
(0.000955349 -5.69939e-05 0)
(0.00112904 -5.22295e-05 0)
(0.00128592 -4.66221e-05 0)
(0.00142524 -4.03945e-05 0)
(0.00154424 -3.41667e-05 0)
(0.00164379 -2.80932e-05 0)
(0.00172376 -2.24872e-05 0)
(0.00178589 -1.74072e-05 0)
(0.00183128 -1.29632e-05 0)
(0.00186183 -9.11957e-06 0)
(0.00187889 -5.84726e-06 0)
(0.00188392 -3.03121e-06 0)
(0.00187777 -5.48277e-07 0)
(0.00186103 1.7737e-06 0)
(0.0018336 4.11279e-06 0)
(0.00179488 6.6677e-06 0)
(0.00174357 9.63136e-06 0)
(0.00167784 1.31938e-05 0)
(0.00159522 1.75263e-05 0)
(0.00149276 2.27818e-05 0)
(0.00136702 2.90881e-05 0)
(0.00121421 3.6551e-05 0)
(0.00103023 4.52539e-05 0)
(0.000810773 5.5263e-05 0)
(0.000551336 6.66289e-05 0)
(0.000247344 7.93887e-05 0)
(-0.000105825 9.35656e-05 0)
(-0.000512749 0.000109166 0)
(-0.000977894 0.000126175 0)
(-0.00150551 0.00014455 0)
(-0.00209949 0.000164217 0)
(-0.0027633 0.000185059 0)
(-0.00349977 0.000206919 0)
(-0.00431093 0.00022959 0)
(-0.00519792 0.000252814 0)
(-0.00616075 0.000276284 0)
(-0.00719819 0.000299643 0)
(-0.00830762 0.000322487 0)
(-0.00948489 0.00034437 0)
(-0.0107243 0.000364809 0)
(-0.0120183 0.000383292 0)
(-0.0133579 0.000399285 0)
(-0.0147322 0.000412244 0)
(-0.0161287 0.000421621 0)
(-0.0175333 0.000426875 0)
(-0.0189305 0.000427484 0)
(-0.0203033 0.000422954 0)
(-0.0216337 0.000412831 0)
(-0.0229026 0.00039671 0)
(-0.0240906 0.000374251 0)
(-0.0251773 0.00034519 0)
(-0.0261428 0.000309355 0)
(-0.026967 0.000266681 0)
(-0.0276306 0.00021723 0)
(-0.0281153 0.000161205 0)
(-0.028404 9.89748e-05 0)
(-0.0284819 3.10835e-05 0)
(-0.028336 -4.17289e-05 0)
(-0.0279566 -0.000118519 0)
(-0.027337 -0.000198135 0)
(-0.0264741 -0.000279222 0)
(-0.0253693 -0.000360233 0)
(-0.0240283 -0.00043946 0)
(-0.0224615 -0.000515066 0)
(-0.0206843 -0.000585146 0)
(-0.0187171 -0.000647785 0)
(-0.016585 -0.000701134 0)
(-0.0143177 -0.000743501 0)
(-0.0119485 -0.00077343 0)
(-0.0095145 -0.000789793 0)
(-0.00705465 -0.000791863 0)
(-0.00460942 -0.000779378 0)
(-0.00221933 -0.000752582 0)
(7.63035e-05 -0.000712236 0)
(0.00224057 -0.000659605 0)
(0.00424026 -0.000596405 0)
(0.00604693 -0.000524731 0)
(0.00763783 -0.000446945 0)
(0.00899655 -0.000365561 0)
(0.0101134 -0.000283114 0)
(0.0109857 -0.000202027 0)
(0.011617 -0.000124502 0)
(0.0120171 -5.24216e-05 0)
(0.0122011 1.27192e-05 0)
(0.0121884 6.98469e-05 0)
(0.0120015 0.000118319 0)
(0.0116652 0.0001579 0)
(0.0112049 0.000188722 0)
(0.0106463 0.000211218 0)
(0.010014 0.000226066 0)
(0.00933093 0.000234105 0)
(0.00861773 0.000236281 0)
(0.00789255 0.000233569 0)
(0.00717063 0.000226949 0)
(0.00646456 0.000217331 0)
(0.00578397 0.000205574 0)
(0.00513624 0.000192409 0)
(0.00452606 0.000178517 0)
(0.00395659 0.00016441 0)
(0.00342855 0.000150607 0)
(0.00294215 0.000137394 0)
(0.00249518 0.000125164 0)
(0.00208633 0.00011393 0)
(0.00171159 0.00010396 0)
(0.00137003 9.48113e-05 0)
(0.00105743 8.65731e-05 0)
(0.000776107 7.79571e-05 0)
(0.000524028 6.88485e-05 0)
(0.000310383 5.65347e-05 0)
(0.000138108 4.13421e-05 0)
(2.37877e-05 1.94685e-05 0)
(-2.80419e-05 -2.4058e-06 0)
(-1.88005e-05 -1.85035e-05 0)
(1.25635e-05 -1.35544e-05 0)
(0.000125938 -0.000126947 0)
(0.00036538 -0.000226696 0)
(0.000690402 -0.000305536 0)
(0.00108908 -0.00035118 0)
(0.00151951 -0.000373244 0)
(0.00196606 -0.000372998 0)
(0.00240037 -0.000357951 0)
(0.002812 -0.000330927 0)
(0.00318528 -0.00029682 0)
(0.00351553 -0.000258035 0)
(0.0037961 -0.000217563 0)
(0.00402665 -0.000176976 0)
(0.00420601 -0.00013786 0)
(0.00433632 -0.000100932 0)
(0.00441904 -6.67314e-05 0)
(0.00445695 -3.52326e-05 0)
(0.00445196 -6.19334e-06 0)
(0.00440598 2.10027e-05 0)
(0.0043197 4.71567e-05 0)
(0.00419297 7.32996e-05 0)
(0.00402413 0.00010057 0)
(0.00381024 0.000130203 0)
(0.00354675 0.000163434 0)
(0.00322771 0.000201467 0)
(0.0028457 0.000245411 0)
(0.0023921 0.000296247 0)
(0.0018572 0.000354796 0)
(0.00123041 0.000421719 0)
(0.00050054 0.000497507 0)
(-0.000344 0.000582489 0)
(-0.00131495 0.000676837 0)
(-0.00242394 0.000780568 0)
(-0.00368223 0.000893525 0)
(-0.00510045 0.00101537 0)
(-0.00668823 0.00114553 0)
(-0.0084539 0.00128321 0)
(-0.0104041 0.00142732 0)
(-0.0125433 0.00157647 0)
(-0.0148737 0.00172896 0)
(-0.0173942 0.00188274 0)
(-0.0201008 0.00203548 0)
(-0.0229858 0.00218455 0)
(-0.0260376 0.00232705 0)
(-0.0292405 0.00245989 0)
(-0.032575 0.00257982 0)
(-0.0360172 0.00268352 0)
(-0.0395394 0.00276765 0)
(-0.0431103 0.00282894 0)
(-0.0466951 0.00286427 0)
(-0.0502562 0.00287072 0)
(-0.0537536 0.00284567 0)
(-0.0571453 0.00278683 0)
(-0.0603884 0.00269234 0)
(-0.0634392 0.00256078 0)
(-0.0662542 0.00239125 0)
(-0.0687908 0.00218338 0)
(-0.0710076 0.00193739 0)
(-0.0728657 0.00165412 0)
(-0.0743285 0.00133505 0)
(-0.0753631 0.000982373 0)
(-0.0759404 0.00059896 0)
(-0.076036 0.000188434 0)
(-0.0756304 -0.000244834 0)
(-0.0747099 -0.000695719 0)
(-0.0732669 -0.00115835 0)
(-0.0713006 -0.00162613 0)
(-0.0688169 -0.00209183 0)
(-0.0658295 -0.00254763 0)
(-0.0623594 -0.00298527 0)
(-0.0584356 -0.00339622 0)
(-0.0540949 -0.00377187 0)
(-0.0493816 -0.00410378 0)
(-0.0443475 -0.00438394 0)
(-0.039051 -0.00460508 0)
(-0.0335565 -0.00476099 0)
(-0.0279335 -0.00484683 0)
(-0.022255 -0.00485937 0)
(-0.0165965 -0.00479731 0)
(-0.0110339 -0.0046614 0)
(-0.00564216 -0.00445452 0)
(-0.000493051 -0.00418176 0)
(0.00434652 -0.00385021 0)
(0.0088164 -0.00346882 0)
(0.0128649 -0.00304802 0)
(0.01645 -0.00259932 0)
(0.0195411 -0.00213485 0)
(0.0221189 -0.0016668 0)
(0.0241766 -0.00120696 0)
(0.0257192 -0.000766143 0)
(0.026763 -0.000353859 0)
(0.0273349 2.20864e-05 0)
(0.0274705 0.000355791 0)
(0.0272128 0.000643356 0)
(0.0266099 0.000882877 0)
(0.0257135 0.00107431 0)
(0.0245762 0.00121926 0)
(0.0232501 0.00132069 0)
(0.0217851 0.00138263 0)
(0.0202273 0.0014098 0)
(0.0186183 0.00140737 0)
(0.0169941 0.00138056 0)
(0.0153851 0.00133457 0)
(0.013816 0.00127419 0)
(0.0123055 0.00120394 0)
(0.0108677 0.00112767 0)
(0.00951096 0.0010489 0)
(0.00824105 0.000970242 0)
(0.00705832 0.000894124 0)
(0.00596329 0.000821553 0)
(0.00495143 0.000753619 0)
(0.00402261 0.000688951 0)
(0.00317143 0.000626909 0)
(0.00240334 0.000562486 0)
(0.0017168 0.000493531 0)
(0.00112932 0.00041048 0)
(0.000645486 0.000313733 0)
(0.000294304 0.000192988 0)
(7.49796e-05 7.27653e-05 0)
(-2.35683e-06 -2.79165e-05 0)
(3.19504e-05 -9.86712e-05 0)
(0.000223641 -0.000365773 0)
(0.00059 -0.000593661 0)
(0.00106203 -0.000769423 0)
(0.00162708 -0.000876011 0)
(0.00222952 -0.000926488 0)
(0.00284956 -0.000925993 0)
(0.00344987 -0.000888133 0)
(0.00401554 -0.000820954 0)
(0.00452517 -0.00073453 0)
(0.0049709 -0.000635452 0)
(0.00534282 -0.000530254 0)
(0.00563873 -0.000423188 0)
(0.00585578 -0.000317809 0)
(0.00599505 -0.000216097 0)
(0.00605704 -0.000119219 0)
(0.00604371 -2.72148e-05 0)
(0.00595593 6.06069e-05 0)
(0.00579437 0.000145746 0)
(0.00555803 0.000230264 0)
(0.00524457 0.000316738 0)
(0.00484957 0.000408069 0)
(0.00436665 0.000507363 0)
(0.00378719 0.000617754 0)
(0.00310054 0.000742273 0)
(0.00229401 0.000883697 0)
(0.00135328 0.00104445 0)
(0.000262581 0.00122653 0)
(-0.000994855 0.00143144 0)
(-0.0024364 0.0016602 0)
(-0.00407955 0.00191329 0)
(-0.00594151 0.00219071 0)
(-0.00803862 0.00249187 0)
(-0.0103859 0.00281564 0)
(-0.0129964 0.00316024 0)
(-0.0158806 0.00352319 0)
(-0.0190459 0.00390127 0)
(-0.0224959 0.00429044 0)
(-0.0262297 0.00468584 0)
(-0.0302416 0.00508178 0)
(-0.0345202 0.00547179 0)
(-0.0390485 0.00584874 0)
(-0.0438033 0.00620493 0)
(-0.0487555 0.00653224 0)
(-0.0538699 0.00682236 0)
(-0.0591061 0.00706697 0)
(-0.0644182 0.00725796 0)
(-0.0697563 0.00738763 0)
(-0.0750671 0.00744892 0)
(-0.0802943 0.00743559 0)
(-0.0853804 0.00734236 0)
(-0.0902671 0.00716504 0)
(-0.0948968 0.00690063 0)
(-0.0992128 0.0065474 0)
(-0.103161 0.00610488 0)
(-0.10669 0.00557392 0)
(-0.109751 0.00495667 0)
(-0.112302 0.00425654 0)
(-0.114303 0.00347823 0)
(-0.115721 0.00262766 0)
(-0.116526 0.00171201 0)
(-0.116696 0.000739666 0)
(-0.116213 -0.000279781 0)
(-0.115067 -0.00133555 0)
(-0.113254 -0.00241568 0)
(-0.110776 -0.00350711 0)
(-0.107641 -0.00459572 0)
(-0.103865 -0.00566646 0)
(-0.099473 -0.00670347 0)
(-0.0944944 -0.00769033 0)
(-0.0889674 -0.00861031 0)
(-0.0829379 -0.0094467 0)
(-0.0764585 -0.0101832 0)
(-0.0695895 -0.0108045 0)
(-0.0623975 -0.0112965 0)
(-0.0549555 -0.0116472 0)
(-0.0473415 -0.0118469 0)
(-0.0396381 -0.011889 0)
(-0.0319307 -0.0117702 0)
(-0.0243066 -0.011491 0)
(-0.016853 -0.0110562 0)
(-0.00965528 -0.0104744 0)
(-0.0027952 -0.00975826 0)
(0.00365092 -0.00892444 0)
(0.00961416 -0.00799271 0)
(0.0150347 -0.00698554 0)
(0.0198635 -0.0059273 0)
(0.0240634 -0.00484335 0)
(0.0276101 -0.00375905 0)
(0.030493 -0.00269886 0)
(0.032715 -0.00168533 0)
(0.0342925 -0.000738363 0)
(0.0352544 0.000125539 0)
(0.0356406 0.0008937 0)
(0.0355009 0.00155758 0)
(0.0348925 0.00211277 0)
(0.0338779 0.00255889 0)
(0.0325226 0.00289912 0)
(0.0308926 0.00313973 0)
(0.0290524 0.00328943 0)
(0.0270628 0.00335867 0)
(0.0249797 0.00335894 0)
(0.0228523 0.00330219 0)
(0.0207234 0.0032002 0)
(0.0186278 0.00306429 0)
(0.0165937 0.0029047 0)
(0.0146412 0.00273078 0)
(0.0127859 0.00255011 0)
(0.0110354 0.00236921 0)
(0.00939627 0.00219187 0)
(0.00786785 0.00202084 0)
(0.00645398 0.00185448 0)
(0.00515088 0.00169071 0)
(0.00396801 0.00152039 0)
(0.00290422 0.00133725 0)
(0.00198336 0.00112467 0)
(0.00120808 0.000880955 0)
(0.000619502 0.000592154 0)
(0.000210254 0.000297227 0)
(2.27789e-05 2.85817e-05 0)
(4.72307e-05 -0.000227522 0)
(0.000302035 -0.000689362 0)
(0.000766499 -0.00106574 0)
(0.00134446 -0.00134594 0)
(0.00202269 -0.00151602 0)
(0.00273495 -0.00159271 0)
(0.00346044 -0.00158626 0)
(0.00415594 -0.00151613 0)
(0.00480444 -0.0013961 0)
(0.00538054 -0.00124162 0)
(0.00587417 -0.00106392 0)
(0.00627254 -0.000873369 0)
(0.00657145 -0.000677208 0)
(0.0067658 -0.000481153 0)
(0.00685481 -0.000288551 0)
(0.00683689 -0.000101201 0)
(0.00671193 8.08975e-05 0)
(0.00647844 0.000259089 0)
(0.00613449 0.000436056 0)
(0.00567603 0.000615496 0)
(0.00509729 0.000801976 0)
(0.00438986 0.00100063 0)
(0.00354293 0.00121691 0)
(0.00254297 0.00145631 0)
(0.00137403 0.00172406 0)
(1.7876e-05 0.0020249 0)
(-0.00154552 0.00236286 0)
(-0.00333756 0.00274109 0)
(-0.00538034 0.00316177 0)
(-0.00769604 0.00362601 0)
(-0.0103062 0.00413381 0)
(-0.0132308 0.00468404 0)
(-0.0164877 0.00527435 0)
(-0.0200917 0.00590111 0)
(-0.0240533 0.00655931 0)
(-0.0283785 0.00724253 0)
(-0.0330673 0.00794282 0)
(-0.0381132 0.00865074 0)
(-0.0435027 0.00935542 0)
(-0.0492145 0.0100447 0)
(-0.0552197 0.0107052 0)
(-0.0614812 0.011323 0)
(-0.0679549 0.0118836 0)
(-0.0745893 0.0123724 0)
(-0.0813275 0.0127752 0)
(-0.0881072 0.0130787 0)
(-0.094863 0.0132708 0)
(-0.101527 0.0133408 0)
(-0.108031 0.0132799 0)
(-0.114308 0.0130813 0)
(-0.12029 0.0127403 0)
(-0.125915 0.0122545 0)
(-0.131125 0.0116234 0)
(-0.135864 0.0108489 0)
(-0.140083 0.00993464 0)
(-0.143737 0.008886 0)
(-0.146788 0.0077102 0)
(-0.149203 0.00641592 0)
(-0.150954 0.00501331 0)
(-0.152018 0.00351382 0)
(-0.152379 0.00193024 0)
(-0.152025 0.000276575 0)
(-0.150949 -0.0014319 0)
(-0.149149 -0.00317868 0)
(-0.146629 -0.00494601 0)
(-0.143397 -0.00671491 0)
(-0.139467 -0.00846521 0)
(-0.134859 -0.0101757 0)
(-0.129598 -0.011824 0)
(-0.123715 -0.0133874 0)
(-0.117247 -0.0148425 0)
(-0.11024 -0.0161657 0)
(-0.102742 -0.0173344 0)
(-0.0948124 -0.0183265 0)
(-0.0865142 -0.0191218 0)
(-0.0779177 -0.0197028 0)
(-0.0690988 -0.0200546 0)
(-0.0601386 -0.0201667 0)
(-0.0511223 -0.020033 0)
(-0.042138 -0.0196522 0)
(-0.0332754 -0.0190292 0)
(-0.0246242 -0.018174 0)
(-0.0162722 -0.017103 0)
(-0.00830384 -0.0158377 0)
(-0.000798021 -0.014405 0)
(0.00617348 -0.012836 0)
(0.0125478 -0.0111652 0)
(0.0182723 -0.00942963 0)
(0.0233063 -0.00766705 0)
(0.0276216 -0.00591516 0)
(0.0312034 -0.00421006 0)
(0.0340506 -0.00258505 0)
(0.036176 -0.00106947 0)
(0.0376053 0.000312241 0)
(0.0383765 0.00154122 0)
(0.0385387 0.00260463 0)
(0.0381499 0.00349582 0)
(0.037275 0.00421407 0)
(0.0359837 0.00476419 0)
(0.0343479 0.00515573 0)
(0.0324387 0.00540215 0)
(0.0303252 0.00551969 0)
(0.0280715 0.0055265 0)
(0.0257358 0.00544143 0)
(0.0233686 0.00528344 0)
(0.0210134 0.00507042 0)
(0.0187043 0.0048191 0)
(0.0164695 0.00454375 0)
(0.0143275 0.00425665 0)
(0.0122947 0.003966 0)
(0.0103774 0.00367758 0)
(0.0085867 0.00339071 0)
(0.00692262 0.00310274 0)
(0.00540035 0.00280146 0)
(0.00401917 0.00247677 0)
(0.00280936 0.0021062 0)
(0.00177004 0.00168424 0)
(0.000955865 0.00119278 0)
(0.000354382 0.000673167 0)
(4.99272e-05 0.000159173 0)
(5.55325e-05 -0.000393382 0)
(0.000351485 -0.00108933 0)
(0.000883173 -0.00163487 0)
(0.00153173 -0.00202707 0)
(0.00228151 -0.00226121 0)
(0.00305673 -0.00235872 0)
(0.00383587 -0.00233696 0)
(0.0045713 -0.00222134 0)
(0.00524504 -0.00203218 0)
(0.00582891 -0.00179045 0)
(0.00631134 -0.00151243 0)
(0.00667715 -0.00121244 0)
(0.00692024 -0.000900903 0)
(0.00703308 -0.000585702 0)
(0.0070125 -0.000271534 0)
(0.00685416 3.93244e-05 0)
(0.00655503 0.000347132 0)
(0.00611027 0.000654212 0)
(0.00551426 0.000964823 0)
(0.00475885 0.00128476 0)
(0.00383372 0.00162108 0)
(0.0027255 0.00198163 0)
(0.00141807 0.00237469 0)
(-0.000107675 0.00280845 0)
(-0.00187336 0.00329063 0)
(-0.00390281 0.00382798 0)
(-0.00622135 0.00442599 0)
(-0.00885505 0.0050886 0)
(-0.0118298 0.00581795 0)
(-0.0151704 0.00661429 0)
(-0.0188994 0.00747582 0)
(-0.0230358 0.00839863 0)
(-0.0275944 0.00937658 0)
(-0.0325841 0.0104012 0)
(-0.038007 0.0114618 0)
(-0.0438574 0.0125449 0)
(-0.0501209 0.0136353 0)
(-0.0567739 0.014715 0)
(-0.0637831 0.0157647 0)
(-0.0711058 0.0167634 0)
(-0.0786904 0.0176892 0)
(-0.0864771 0.0185202 0)
(-0.0943996 0.0192348 0)
(-0.102386 0.0198127 0)
(-0.110362 0.0202354 0)
(-0.118251 0.0204868 0)
(-0.125977 0.0205536 0)
(-0.133466 0.0204257 0)
(-0.140647 0.0200963 0)
(-0.147455 0.0195617 0)
(-0.15383 0.0188215 0)
(-0.159717 0.0178783 0)
(-0.165069 0.0167373 0)
(-0.169845 0.015406 0)
(-0.174007 0.0138938 0)
(-0.177528 0.012212 0)
(-0.180381 0.0103733 0)
(-0.182548 0.0083917 0)
(-0.184012 0.00628222 0)
(-0.184761 0.00406107 0)
(-0.184788 0.00174548 0)
(-0.184086 -0.000646243 0)
(-0.182654 -0.00309462 0)
(-0.180494 -0.00557895 0)
(-0.17761 -0.00807718 0)
(-0.174009 -0.0105659 0)
(-0.169702 -0.0130201 0)
(-0.164707 -0.0154136 0)
(-0.159041 -0.0177188 0)
(-0.152732 -0.0199068 0)
(-0.145809 -0.0219482 0)
(-0.138309 -0.0238131 0)
(-0.130276 -0.0254717 0)
(-0.121759 -0.0268954 0)
(-0.112815 -0.0280572 0)
(-0.10351 -0.0289327 0)
(-0.0939126 -0.0295014 0)
(-0.0841015 -0.0297471 0)
(-0.074159 -0.0296595 0)
(-0.0641726 -0.0292345 0)
(-0.0542329 -0.0284751 0)
(-0.044432 -0.0273916 0)
(-0.0348621 -0.0260023 0)
(-0.0256135 -0.0243324 0)
(-0.0167727 -0.0224145 0)
(-0.00842044 -0.0202871 0)
(-0.00063026 -0.0179938 0)
(0.00653334 -0.0155819 0)
(0.0130161 -0.013101 0)
(0.0187754 -0.0106017 0)
(0.0237807 -0.0081332 0)
(0.0280145 -0.00574262 0)
(0.0314727 -0.00347295 0)
(0.0341643 -0.00136193 0)
(0.0361116 0.000559103 0)
(0.0373492 0.0022661 0)
(0.0379229 0.00374282 0)
(0.0378886 0.004981 0)
(0.0373099 0.00598022 0)
(0.0362567 0.00674728 0)
(0.034802 0.0072954 0)
(0.0330198 0.00764299 0)
(0.0309826 0.00781245 0)
(0.0287596 0.00782862 0)
(0.0264136 0.00771771 0)
(0.0240016 0.0075056 0)
(0.0215714 0.00721726 0)
(0.0191647 0.00687491 0)
(0.0168124 0.00649805 0)
(0.0145424 0.00610095 0)
(0.0123707 0.00569382 0)
(0.0103174 0.00527862 0)
(0.00838857 0.00485309 0)
(0.00660659 0.00440348 0)
(0.00497244 0.00391594 0)
(0.00352423 0.00336317 0)
(0.00225922 0.00273335 0)
(0.00124795 0.0020029 0)
(0.000476422 0.00120425 0)
(7.12763e-05 0.000362253 0)
(6.07128e-05 -0.000576417 0)
(0.000382627 -0.00152851 0)
(0.000954746 -0.00225101 0)
(0.00164209 -0.00275249 0)
(0.00242553 -0.00304219 0)
(0.00322179 -0.00314852 0)
(0.00400849 -0.00309767 0)
(0.00473489 -0.00292136 0)
(0.0053825 -0.00264671 0)
(0.00592117 -0.00229997 0)
(0.00633821 -0.00190228 0)
(0.0066164 -0.00147159 0)
(0.00674767 -0.00102122 0)
(0.00672185 -0.000560842 0)
(0.00653299 -9.61934e-05 0)
(0.00617339 0.000370346 0)
(0.00563631 0.000839671 0)
(0.00491271 0.00131549 0)
(0.00399235 0.00180404 0)
(0.002862 0.00231364 0)
(0.00150588 0.00285416 0)
(-9.51559e-05 0.00343648 0)
(-0.00196314 0.00407185 0)
(-0.00412308 0.00477119 0)
(-0.00660221 0.00554443 0)
(-0.00942939 0.00639988 0)
(-0.0126341 0.00734372 0)
(-0.0162451 0.00837954 0)
(-0.0202896 0.009508 0)
(-0.0247915 0.0107266 0)
(-0.0297698 0.0120297 0)
(-0.0352377 0.0134079 0)
(-0.0412005 0.0148486 0)
(-0.047655 0.0163354 0)
(-0.0545875 0.0178487 0)
(-0.061974 0.0193655 0)
(-0.069779 0.0208599 0)
(-0.0779559 0.022304 0)
(-0.0864477 0.0236682 0)
(-0.0951882 0.0249222 0)
(-0.104103 0.0260363 0)
(-0.113114 0.0269823 0)
(-0.122137 0.0277343 0)
(-0.131089 0.0282698 0)
(-0.139889 0.0285703 0)
(-0.148457 0.0286216 0)
(-0.15672 0.0284142 0)
(-0.164612 0.0279429 0)
(-0.172073 0.0272072 0)
(-0.179051 0.02621 0)
(-0.185501 0.0249581 0)
(-0.191385 0.0234607 0)
(-0.196672 0.0217295 0)
(-0.201336 0.0197781 0)
(-0.205357 0.0176214 0)
(-0.208718 0.0152752 0)
(-0.211405 0.0127564 0)
(-0.213407 0.0100824 0)
(-0.214717 0.00727123 0)
(-0.215327 0.00434163 0)
(-0.215231 0.00131309 0)
(-0.214426 -0.00179396 0)
(-0.212909 -0.00495798 0)
(-0.210679 -0.00815609 0)
(-0.207735 -0.0113638 0)
(-0.204081 -0.014555 0)
(-0.199722 -0.0177016 0)
(-0.194665 -0.0207737 0)
(-0.188922 -0.0237392 0)
(-0.182509 -0.0265646 0)
(-0.175449 -0.0292147 0)
(-0.167767 -0.0316536 0)
(-0.159498 -0.033845 0)
(-0.150683 -0.0357528 0)
(-0.141371 -0.0373428 0)
(-0.131619 -0.0385833 0)
(-0.12149 -0.0394463 0)
(-0.11106 -0.0399092 0)
(-0.100406 -0.0399555 0)
(-0.0896157 -0.0395763 0)
(-0.0787807 -0.0387712 0)
(-0.067996 -0.0375489 0)
(-0.0573583 -0.0359274 0)
(-0.046964 -0.0339343 0)
(-0.0369073 -0.0316059 0)
(-0.0272775 -0.0289864 0)
(-0.018158 -0.0261271 0)
(-0.00962346 -0.0230842 0)
(-0.00173941 -0.0199177 0)
(0.00543962 -0.0166892 0)
(0.0118706 -0.0134603 0)
(0.0175228 -0.0102906 0)
(0.0223779 -0.00723602 0)
(0.0264303 -0.00434722 0)
(0.0296873 -0.00166833 0)
(0.0321683 0.000764364 0)
(0.033905 0.00292326 0)
(0.0349402 0.00479003 0)
(0.0353264 0.00635584 0)
(0.0351251 0.00762115 0)
(0.034404 0.00859511 0)
(0.0332356 0.00929456 0)
(0.0316937 0.00974274 0)
(0.0298526 0.00996766 0)
(0.0277827 0.0100006 0)
(0.0255512 0.00987397 0)
(0.0232168 0.00962031 0)
(0.020834 0.00926979 0)
(0.0184454 0.00884961 0)
(0.0160917 0.00838111 0)
(0.0137992 0.00788016 0)
(0.0115989 0.00735293 0)
(0.00950405 0.00679899 0)
(0.007546 0.00620473 0)
(0.00572917 0.00555323 0)
(0.00410054 0.00481328 0)
(0.00265779 0.00396432 0)
(0.00148734 0.00297466 0)
(0.000576557 0.0018577 0)
(8.85423e-05 0.000620635 0)
(6.28306e-05 -0.000773264 0)
(0.000396815 -0.00199657 0)
(0.000985997 -0.00289995 0)
(0.00168436 -0.00350624 0)
(0.00246876 -0.00384118 0)
(0.0032502 -0.0039421 0)
(0.00400497 -0.00384554 0)
(0.00468003 -0.0035901 0)
(0.00525638 -0.00321015 0)
(0.00570246 -0.00273707 0)
(0.00600454 -0.00219673 0)
(0.00614354 -0.00161033 0)
(0.00610932 -0.000993723 0)
(0.00588895 -0.000357952 0)
(0.00547326 0.000290677 0)
(0.00485072 0.000950163 0)
(0.00401024 0.00162252 0)
(0.00293789 0.00231335 0)
(0.00161804 0.00303134 0)
(3.16321e-05 0.00378772 0)
(-0.00184321 0.00459553 0)
(-0.00403184 0.00546883 0)
(-0.00656238 0.00642177 0)
(-0.00946543 0.00746764 0)
(-0.012773 0.00861793 0)
(-0.0165176 0.00988144 0)
(-0.0207304 0.0112636 0)
(-0.02544 0.0127657 0)
(-0.0306708 0.0143847 0)
(-0.0364406 0.0161127 0)
(-0.0427597 0.0179369 0)
(-0.0496285 0.0198396 0)
(-0.0570365 0.021798 0)
(-0.0649612 0.0237849 0)
(-0.0733672 0.0257688 0)
(-0.0822064 0.0277145 0)
(-0.0914187 0.0295847 0)
(-0.100933 0.0313405 0)
(-0.11067 0.0329432 0)
(-0.120544 0.0343555 0)
(-0.130465 0.035543 0)
(-0.140343 0.0364756 0)
(-0.150092 0.037128 0)
(-0.159628 0.0374808 0)
(-0.168876 0.0375206 0)
(-0.177768 0.03724 0)
(-0.186244 0.036637 0)
(-0.194254 0.0357148 0)
(-0.201756 0.0344806 0)
(-0.208716 0.0329454 0)
(-0.215106 0.0311227 0)
(-0.220904 0.029028 0)
(-0.226094 0.0266782 0)
(-0.230662 0.024091 0)
(-0.234598 0.0212846 0)
(-0.237892 0.0182776 0)
(-0.240536 0.0150886 0)
(-0.242525 0.0117363 0)
(-0.24385 0.00823979 0)
(-0.244506 0.00461851 0)
(-0.244487 0.00089257 0)
(-0.243785 -0.00291698 0)
(-0.242395 -0.00678783 0)
(-0.240311 -0.010696 0)
(-0.237527 -0.0146158 0)
(-0.23404 -0.018519 0)
(-0.229846 -0.0223752 0)
(-0.224946 -0.0261513 0)
(-0.219343 -0.0298115 0)
(-0.213042 -0.0333177 0)
(-0.206055 -0.0366292 0)
(-0.198398 -0.0397037 0)
(-0.190096 -0.0424978 0)
(-0.181177 -0.0449677 0)
(-0.171681 -0.0470709 0)
(-0.161657 -0.0487667 0)
(-0.151161 -0.0500186 0)
(-0.14026 -0.0507952 0)
(-0.12903 -0.0510722 0)
(-0.117557 -0.0508339 0)
(-0.105933 -0.0500743 0)
(-0.0942564 -0.0487985 0)
(-0.0826296 -0.0470229 0)
(-0.071157 -0.0447755 0)
(-0.0599422 -0.0420958 0)
(-0.0490852 -0.0390331 0)
(-0.0386806 -0.0356457 0)
(-0.0288149 -0.031999 0)
(-0.0195648 -0.0281632 0)
(-0.0109962 -0.0242112 0)
(-0.00316299 -0.0202167 0)
(0.00389335 -0.0162514 0)
(0.0101438 -0.012384 0)
(0.0155719 -0.0086775 0)
(0.0201733 -0.0051884 0)
(0.0239557 -0.00196506 0)
(0.0269382 0.000953347 0)
(0.0291513 0.00353759 0)
(0.030636 0.00576897 0)
(0.0314429 0.00763946 0)
(0.0316308 0.00915149 0)
(0.0312657 0.0103173 0)
(0.030418 0.0111578 0)
(0.0291613 0.011701 0)
(0.0275685 0.0119806 0)
(0.0257123 0.0120334 0)
(0.023659 0.0118978 0)
(0.0214725 0.0116111 0)
(0.019206 0.0112078 0)
(0.0169113 0.0107167 0)
(0.0146252 0.01016 0)
(0.0123899 0.0095492 0)
(0.0102269 0.00888674 0)
(0.00817741 0.0081606 0)
(0.00625119 0.00735128 0)
(0.00450495 0.00642423 0)
(0.00293954 0.00534836 0)
(0.00165622 0.00408188 0)
(0.000645866 0.00261274 0)
(9.97795e-05 0.000924491 0)
(6.36921e-05 -0.000972749 0)
(0.000400057 -0.00246933 0)
(0.00098686 -0.00354818 0)
(0.00167145 -0.00424765 0)
(0.0024265 -0.00461175 0)
(0.00315938 -0.00468857 0)
(0.00384493 -0.00452622 0)
(0.00442875 -0.00417078 0)
(0.00489124 -0.00366397 0)
(0.00519984 -0.00304205 0)
(0.00533967 -0.00233525 0)
(0.00528983 -0.00156741 0)
(0.00503785 -0.000756317 0)
(0.00456777 8.62566e-05 0)
(0.00386676 0.000954047 0)
(0.00291894 0.00184606 0)
(0.00170828 0.00276602 0)
(0.000215308 0.00372193 0)
(-0.00158158 0.00472537 0)
(-0.00370775 0.00579079 0)
(-0.00619146 0.00693447 0)
(-0.00906424 0.00817343 0)
(-0.0123598 0.00952418 0)
(-0.0161132 0.0110014 0)
(-0.0203595 0.0126168 0)
(-0.0251319 0.0143777 0)
(-0.0304601 0.0162863 0)
(-0.0363679 0.0183389 0)
(-0.0428713 0.0205256 0)
(-0.0499765 0.0228294 0)
(-0.057678 0.0252271 0)
(-0.0659572 0.0276887 0)
(-0.0747814 0.0301785 0)
(-0.0841036 0.0326556 0)
(-0.0938628 0.0350751 0)
(-0.103986 0.0373896 0)
(-0.114389 0.039551 0)
(-0.12498 0.0415123 0)
(-0.135666 0.0432294 0)
(-0.146349 0.044663 0)
(-0.156937 0.0457799 0)
(-0.167341 0.0465538 0)
(-0.177483 0.046966 0)
(-0.187291 0.0470052 0)
(-0.196706 0.0466672 0)
(-0.205677 0.0459541 0)
(-0.214163 0.0448733 0)
(-0.222132 0.0434366 0)
(-0.229559 0.041659 0)
(-0.236426 0.0395577 0)
(-0.242719 0.0371517 0)
(-0.248426 0.0344605 0)
(-0.253539 0.0315039 0)
(-0.258053 0.0283017 0)
(-0.261961 0.0248735 0)
(-0.265258 0.0212385 0)
(-0.267939 0.0174155 0)
(-0.269999 0.0134232 0)
(-0.27143 0.00928041 0)
(-0.272226 0.00500604 0)
(-0.27238 0.000619829 0)
(-0.271884 -0.00385753 0)
(-0.270728 -0.00840391 0)
(-0.268902 -0.0129954 0)
(-0.266399 -0.0176057 0)
(-0.263207 -0.022206 0)
(-0.259317 -0.0267644 0)
(-0.254723 -0.031246 0)
(-0.249417 -0.0356121 0)
(-0.243396 -0.0398209 0)
(-0.236661 -0.0438271 0)
(-0.229215 -0.0475829 0)
(-0.221069 -0.0510379 0)
(-0.212241 -0.0541406 0)
(-0.202757 -0.0568395 0)
(-0.192652 -0.0590844 0)
(-0.181973 -0.0608284 0)
(-0.170777 -0.0620297 0)
(-0.159133 -0.0626537 0)
(-0.147121 -0.062675 0)
(-0.134833 -0.0620792 0)
(-0.122369 -0.0608647 0)
(-0.109838 -0.0590435 0)
(-0.0973519 -0.0566418 0)
(-0.0850262 -0.0536998 0)
(-0.0729744 -0.0502708 0)
(-0.0613061 -0.0464194 0)
(-0.0501229 -0.0422199 0)
(-0.0395167 -0.0377531 0)
(-0.0295673 -0.0331039 0)
(-0.0203411 -0.0283586 0)
(-0.0118909 -0.0236021 0)
(-0.00425536 -0.0189156 0)
(0.00254017 -0.0143749 0)
(0.0084831 -0.0100484 0)
(0.0135729 -0.00599614 0)
(0.0178201 -0.0022684 0)
(0.0212462 0.00109488 0)
(0.0238826 0.0040649 0)
(0.0257704 0.00662431 0)
(0.0269593 0.00876734 0)
(0.0275072 0.0104994 0)
(0.027478 0.0118365 0)
(0.0269413 0.0128039 0)
(0.0259683 0.0134345 0)
(0.0246329 0.0137668 0)
(0.0230051 0.0138426 0)
(0.0211549 0.0137045 0)
(0.0191433 0.0133932 0)
(0.0170311 0.0129442 0)
(0.0148649 0.0123859 0)
(0.0126968 0.0117358 0)
(0.0105576 0.011 0)
(0.00849808 0.0101689 0)
(0.00653511 0.00922096 0)
(0.00473513 0.00811881 0)
(0.00310433 0.00681969 0)
(0.00175636 0.00527022 0)
(0.000687113 0.00342939 0)
(0.000106356 0.0012545 0)
(6.31334e-05 -0.00117344 0)
(0.000392995 -0.00293843 0)
(0.000960174 -0.00418166 0)
(0.0016084 -0.00495855 0)
(0.00230621 -0.00533253 0)
(0.0029593 -0.0053638 0)
(0.00354092 -0.00511285 0)
(0.00399621 -0.00463368 0)
(0.00430479 -0.00397541 0)
(0.00443338 -0.00317892 0)
(0.00436568 -0.00227829 0)
(0.00407892 -0.00129944 0)
(0.00355791 -0.000261446 0)
(0.00278338 0.000823902 0)
(0.00173834 0.00195105 0)
(0.000402132 0.00312068 0)
(-0.00124674 0.00433879 0)
(-0.00323369 0.00561633 0)
(-0.00558666 0.00696809 0)
(-0.00833737 0.00841182 0)
(-0.0115202 0.00996679 0)
(-0.0151722 0.0116524 0)
(-0.019331 0.0134862 0)
(-0.0240343 0.0154829 0)
(-0.0293168 0.0176518 0)
(-0.0352088 0.0199962 0)
(-0.0417332 0.0225118 0)
(-0.0489036 0.0251864 0)
(-0.0567214 0.0279989 0)
(-0.0651746 0.0309199 0)
(-0.0742358 0.0339119 0)
(-0.0838619 0.03693 0)
(-0.093994 0.0399234 0)
(-0.104559 0.042837 0)
(-0.115471 0.0456134 0)
(-0.126636 0.0481953 0)
(-0.137952 0.050528 0)
(-0.149318 0.0525615 0)
(-0.160634 0.0542527 0)
(-0.171807 0.0555664 0)
(-0.18275 0.0564766 0)
(-0.193389 0.0569663 0)
(-0.20366 0.0570271 0)
(-0.213511 0.0566587 0)
(-0.222899 0.0558672 0)
(-0.231794 0.0546643 0)
(-0.240169 0.0530659 0)
(-0.248009 0.0510905 0)
(-0.2553 0.0487587 0)
(-0.262033 0.0460921 0)
(-0.268202 0.0431124 0)
(-0.273804 0.0398413 0)
(-0.278835 0.0362999 0)
(-0.283293 0.0325086 0)
(-0.287175 0.0284871 0)
(-0.290479 0.0242544 0)
(-0.293201 0.0198289 0)
(-0.295339 0.0152286 0)
(-0.296888 0.0104715 0)
(-0.297841 0.00557555 0)
(-0.298193 0.000559611 0)
(-0.297935 -0.00455666 0)
(-0.297057 -0.00975208 0)
(-0.295549 -0.0150035 0)
(-0.293399 -0.0202853 0)
(-0.290592 -0.0255691 0)
(-0.287115 -0.0308227 0)
(-0.282952 -0.0360104 0)
(-0.27809 -0.0410923 0)
(-0.272513 -0.0460241 0)
(-0.266211 -0.0507572 0)
(-0.259174 -0.055239 0)
(-0.251398 -0.0594132 0)
(-0.242885 -0.0632209 0)
(-0.233644 -0.0666015 0)
(-0.223694 -0.0694945 0)
(-0.213066 -0.0718417 0)
(-0.201801 -0.0735886 0)
(-0.189956 -0.0746878 0)
(-0.177602 -0.075101 0)
(-0.164824 -0.0748019 0)
(-0.151722 -0.0737783 0)
(-0.138405 -0.0720337 0)
(-0.124996 -0.0695888 0)
(-0.11162 -0.0664818 0)
(-0.0984078 -0.0627672 0)
(-0.0854876 -0.0585152 0)
(-0.0729814 -0.0538083 0)
(-0.0610018 -0.0487388 0)
(-0.0496486 -0.0434053 0)
(-0.0390064 -0.0379087 0)
(-0.0291431 -0.0323491 0)
(-0.0201099 -0.0268228 0)
(-0.0119418 -0.0214196 0)
(-0.00465883 -0.0162211 0)
(0.00173273 -0.0112993 0)
(0.00723851 -0.00671542 0)
(0.011875 -0.00251958 0)
(0.0156682 0.00124991 0)
(0.0186533 0.00456677 0)
(0.0208734 0.00741695 0)
(0.0223797 0.00979848 0)
(0.0232297 0.0117211 0)
(0.0234877 0.0132054 0)
(0.0232211 0.0142814 0)
(0.0225019 0.0149867 0)
(0.0214007 0.0153643 0)
(0.0199903 0.0154598 0)
(0.0183363 0.0153182 0)
(0.0165065 0.0149806 0)
(0.0145548 0.0144811 0)
(0.0125424 0.0138427 0)
(0.0105086 0.0130751 0)
(0.00851356 0.0121719 0)
(0.00658214 0.0111099 0)
(0.00478993 0.00984906 0)
(0.00315015 0.0083348 0)
(0.00178587 0.00650182 0)
(0.00069877 0.00427969 0)
(0.000107716 0.00159894 0)
(6.17411e-05 -0.00136858 0)
(0.000377587 -0.00338739 0)
(0.000909203 -0.00477609 0)
(0.00149952 -0.00560821 0)
(0.00211302 -0.00596776 0)
(0.00265569 -0.00592806 0)
(0.00309932 -0.0055626 0)
(0.00338953 -0.00493344 0)
(0.003505 -0.00409692 0)
(0.00341194 -0.00309802 0)
(0.0030923 -0.00197406 0)
(0.00252124 -0.000752272 0)
(0.00168044 0.000547734 0)
(0.000546898 0.00191493 0)
(-0.000900993 0.0033452 0)
(-0.00268909 0.00484157 0)
(-0.00484471 0.00641289 0)
(-0.00739943 0.00807337 0)
(-0.0103874 0.00984111 0)
(-0.0138464 0.0117369 0)
(-0.017816 0.0137821 0)
(-0.0223367 0.0159973 0)
(-0.0274483 0.0183992 0)
(-0.033187 0.0209997 0)
(-0.0395834 0.0238027 0)
(-0.0466594 0.0268037 0)
(-0.0544256 0.0299879 0)
(-0.0628789 0.0333303 0)
(-0.072 0.036795 0)
(-0.0817531 0.0403365 0)
(-0.0920845 0.0439006 0)
(-0.102924 0.0474263 0)
(-0.114187 0.0508481 0)
(-0.125777 0.0540987 0)
(-0.137589 0.0571121 0)
(-0.149516 0.0598265 0)
(-0.161449 0.0621869 0)
(-0.173289 0.0641473 0)
(-0.184941 0.0656716 0)
(-0.196325 0.0667346 0)
(-0.207368 0.0673219 0)
(-0.218016 0.0674282 0)
(-0.22822 0.0670569 0)
(-0.237948 0.0662184 0)
(-0.247172 0.064928 0)
(-0.255873 0.0632053 0)
(-0.26404 0.0610721 0)
(-0.271663 0.0585519 0)
(-0.278738 0.0556688 0)