/*--------------------------------*- C++ -*----------------------------------*\
| =========                 |                                                 |
| \\      /  F ield         | OpenFOAM: The Open Source CFD Toolbox           |
|  \\    /   O peration     | Version:  2406                                  |
|   \\  /    A nd           | Website:  www.openfoam.com                      |
|    \\/     M anipulation  |                                                 |
\*---------------------------------------------------------------------------*/
FoamFile
{
    version     2.0;
    format      ascii;
    arch        "LSB;label=32;scalar=64";
    class       volVectorField;
    location    "43.7";
    object      U;
}
// * * * * * * * * * * * * * * * * * * * * * * * * * * * * * * * * * * * * * //

dimensions      [0 1 -1 0 0 0 0];

internalField   nonuniform List<vector> 
3600
(
(-3.80554e-06 -6.65616e-06 0)
(0.000472205 -0.000234471 0)
(0.00142741 -0.000353431 0)
(0.00249213 -0.000371328 0)
(0.0035023 -0.000301267 0)
(0.00423209 -0.000206892 0)
(0.00471715 -0.000119419 0)
(0.00494772 -6.54785e-05 0)
(0.00504645 -4.35169e-05 0)
(0.00504173 -4.35349e-05 0)
(0.00498472 -4.66353e-05 0)
(0.00483076 -3.80323e-05 0)
(0.00453698 -7.8822e-06 0)
(0.00401176 4.73323e-05 0)
(0.0031769 0.000128977 0)
(0.00193431 0.000238733 0)
(0.000197825 0.000379499 0)
(-0.0021243 0.000550816 0)
(-0.00510819 0.000743305 0)
(-0.00882057 0.000943026 0)
(-0.0132981 0.00114473 0)
(-0.0185349 0.0013579 0)
(-0.0244576 0.00159452 0)
(-0.0309147 0.00184798 0)
(-0.0376678 0.00208201 0)
(-0.0443976 0.00223899 0)
(-0.0507226 0.00225927 0)
(-0.0562309 0.00209876 0)
(-0.0605154 0.00173744 0)
(-0.0632071 0.00118011 0)
(-0.064003 0.000452947 0)
(-0.0626875 -0.000400524 0)
(-0.0591518 -0.00132325 0)
(-0.0534081 -0.0022476 0)
(-0.0456035 -0.00309891 0)
(-0.0360261 -0.00379977 0)
(-0.0251077 -0.00427659 0)
(-0.013408 -0.00446804 0)
(-0.00159062 -0.0043354 0)
(0.00963122 -0.00387296 0)
(0.0195524 -0.00311588 0)
(0.0275666 -0.00214293 0)
(0.0332306 -0.00106912 0)
(0.0363475 -3.0209e-05 0)
(0.0369767 0.000845234 0)
(0.0354477 0.00146252 0)
(0.0322689 0.00178728 0)
(0.0280653 0.00184658 0)
(0.0234246 0.001716 0)
(0.0188552 0.0014813 0)
(0.0146746 0.00121593 0)
(0.0110817 0.000961645 0)
(0.00809876 0.000742284 0)
(0.00572458 0.000561058 0)
(0.00384124 0.000423493 0)
(0.00240216 0.000315781 0)
(0.00127652 0.000234473 0)
(0.000483883 0.000135765 0)
(7.12077e-07 2.51224e-05 0)
(-9.59562e-05 -0.000101438 0)
(0.000198374 -0.000453884 0)
(0.00142124 -0.00146352 0)
(0.00342618 -0.00195486 0)
(0.00553227 -0.00197987 0)
(0.00746754 -0.00162101 0)
(0.00883513 -0.00110927 0)
(0.00964699 -0.000597436 0)
(0.00985516 -0.000192436 0)
(0.00960827 9.72155e-05 0)
(0.00891589 0.000322217 0)
(0.00780085 0.000566016 0)
(0.00613142 0.000907015 0)
(0.0037571 0.00139662 0)
(0.000447697 0.00206099 0)
(-0.00401209 0.00290705 0)
(-0.00985277 0.00393134 0)
(-0.0172607 0.00511594 0)
(-0.0263814 0.0064317 0)
(-0.0372532 0.00783932 0)
(-0.0497674 0.00928277 0)
(-0.0636172 0.010667 0)
(-0.0783134 0.0118522 0)
(-0.0932245 0.0126765 0)
(-0.107657 0.012993 0)
(-0.120928 0.0126956 0)
(-0.132435 0.0117307 0)
(-0.141682 0.0100967 0)
(-0.148289 0.00783766 0)
(-0.151989 0.00503338 0)
(-0.15261 0.00179153 0)
(-0.150065 -0.00175912 0)
(-0.144349 -0.00547125 0)
(-0.135538 -0.00918064 0)
(-0.123793 -0.0127061 0)
(-0.109374 -0.0158524 0)
(-0.0926475 -0.0184162 0)
(-0.0741005 -0.0201993 0)
(-0.0543369 -0.0210264 0)
(-0.0340744 -0.0207726 0)
(-0.0141097 -0.0193894 0)
(0.00471466 -0.0169311 0)
(0.0215866 -0.0135674 0)
(0.0357747 -0.00957932 0)
(0.0467254 -0.0053329 0)
(0.054088 -0.00122879 0)
(0.0577976 0.00235403 0)
(0.0580412 0.00512796 0)
(0.0553055 0.00693641 0)
(0.0502584 0.00778624 0)
(0.0437401 0.0078175 0)
(0.0365423 0.00726538 0)
(0.0294027 0.00637377 0)
(0.0227818 0.0053612 0)
(0.0170136 0.00436713 0)
(0.0121307 0.00348993 0)
(0.00817876 0.00273543 0)
(0.00498687 0.00210238 0)
(0.00259723 0.001455 0)
(0.000898687 0.000785449 0)
(7.60999e-05 2.84696e-05 0)
(0.000326187 -0.00137388 0)
(0.0020052 -0.00349797 0)
(0.00460333 -0.00446005 0)
(0.00715855 -0.00437483 0)
(0.00934736 -0.0034963 0)
(0.010686 -0.00225242 0)
(0.0111805 -0.000975721 0)
(0.0107447 0.000139976 0)
(0.0094886 0.00107646 0)
(0.00734185 0.00195878 0)
(0.00422228 0.00296805 0)
(-0.00013026 0.00428023 0)
(-0.00599574 0.00600479 0)
(-0.0137197 0.00819331 0)
(-0.0235974 0.0108388 0)
(-0.0358743 0.0138937 0)
(-0.0506279 0.0172567 0)
(-0.0677046 0.0207572 0)
(-0.0866412 0.0241257 0)
(-0.106715 0.0270206 0)
(-0.127046 0.0291011 0)
(-0.146749 0.0301096 0)
(-0.165045 0.0299065 0)
(-0.181328 0.0284656 0)
(-0.195162 0.0258431 0)
(-0.206266 0.0221471 0)
(-0.214469 0.0175125 0)
(-0.219681 0.0120891 0)
(-0.221856 0.00603357 0)
(-0.220977 -0.000488774 0)
(-0.217045 -0.0073021 0)
(-0.210078 -0.0142126 0)
(-0.20012 -0.0210025 0)
(-0.187252 -0.0274235 0)
(-0.171617 -0.033196 0)
(-0.153438 -0.0380137 0)
(-0.133048 -0.0415614 0)
(-0.1109 -0.0435409 0)
(-0.0875844 -0.0437133 0)
(-0.0638111 -0.0419426 0)
(-0.040388 -0.0382433 0)
(-0.0181553 -0.0328064 0)
(0.00206526 -0.0260051 0)
(0.0195654 -0.0183606 0)
(0.0337777 -0.0104816 0)
(0.0443537 -0.00298898 0)
(0.0511293 0.00356614 0)
(0.0542012 0.00875663 0)
(0.0538589 0.0123403 0)
(0.0506772 0.0142746 0)
(0.0453603 0.0147324 0)
(0.0387833 0.0140382 0)
(0.0316938 0.0126068 0)
(0.0247989 0.0108198 0)
(0.0184505 0.00899361 0)
(0.0129674 0.0072786 0)
(0.00830346 0.00573295 0)
(0.0046337 0.00418592 0)
(0.00182136 0.00255668 0)
(0.000271631 0.000679865 0)
(0.000410671 -0.00250748 0)
(0.0023512 -0.00583726 0)
(0.00516887 -0.00715298 0)
(0.00767235 -0.00671448 0)
(0.00951742 -0.00505511 0)
(0.0101955 -0.0028105 0)
(0.00972564 -0.000489403 0)
(0.00797703 0.00167193 0)
(0.00496944 0.0036858 0)
(0.000488973 0.0057887 0)
(-0.00571171 0.00827166 0)
(-0.0140428 0.0113961 0)
(-0.0248839 0.0152912 0)
(-0.0385879 0.0199721 0)
(-0.0553116 0.0253243 0)
(-0.074943 0.0311028 0)
(-0.096973 0.036889 0)
(-0.12055 0.0421396 0)
(-0.14462 0.0463043 0)
(-0.16816 0.0489713 0)
(-0.190325 0.0499234 0)
(-0.210521 0.049126 0)
(-0.228375 0.0466677 0)
(-0.243686 0.042707 0)
(-0.256362 0.0374273 0)
(-0.266377 0.0310144 0)
(-0.273728 0.0236429 0)
(-0.278421 0.0154768 0)
(-0.280454 0.0066712 0)
(-0.279807 -0.00261693 0)
(-0.276446 -0.0122196 0)
(-0.270324 -0.0219426 0)
(-0.26139 -0.0315547 0)
(-0.249602 -0.0407731 0)
(-0.234955 -0.0492598 0)
(-0.2175 -0.0566213 0)
(-0.197382 -0.0624272 0)
(-0.174875 -0.066241 0)
(-0.150408 -0.0676754 0)
(-0.124587 -0.066456 0)
(-0.0981817 -0.0624956 0)
(-0.0720803 -0.055945 0)
(-0.0472197 -0.047217 0)
(-0.0244666 -0.0369468 0)
(-0.00454615 -0.0259125 0)
(0.0120519 -0.0149226 0)
(0.0250311 -0.00471535 0)
(0.0343169 0.00409824 0)
(0.0399494 0.011079 0)
(0.0421843 0.0159708 0)
(0.0413967 0.0187463 0)
(0.0382307 0.0196002 0)
(0.0333608 0.0189348 0)
(0.0276132 0.0172459 0)
(0.0215609 0.0150364 0)
(0.0158139 0.0126605 0)
(0.0105416 0.0103065 0)
(0.00614308 0.00786144 0)
(0.00255302 0.00513895 0)
(0.000433541 0.00181 0)
(0.000463234 -0.00384178 0)
(0.00249756 -0.00839154 0)
(0.00521393 -0.00984853 0)
(0.0072414 -0.00871763 0)
(0.00822657 -0.00592573 0)
(0.00767748 -0.00232989 0)
(0.00562165 0.00140025 0)
(0.00186992 0.00505236 0)
(-0.00369452 0.00872524 0)
(-0.01146 0.0128039 0)
(-0.0218376 0.0176742 0)
(-0.0353094 0.0236211 0)
(-0.0521787 0.0306797 0)
(-0.072498 0.038653 0)
(-0.0958717 0.0470654 0)
(-0.121465 0.0552239 0)
(-0.148119 0.0623398 0)
(-0.174645 0.067754 0)
(-0.200051 0.0710566 0)
(-0.223652 0.0721072 0)
(-0.245037 0.0709596 0)
(-0.26401 0.0677902 0)
(-0.2805 0.0628269 0)
(-0.294515 0.0563118 0)
(-0.306099 0.0484711 0)
(-0.315307 0.0395086 0)
(-0.322194 0.0295992 0)
(-0.326802 0.0188974 0)
(-0.329152 0.00754166 0)
(-0.32924 -0.00433026 0)
(-0.327029 -0.0165707 0)
(-0.322448 -0.0290024 0)
(-0.315391 -0.0414036 0)
(-0.305724 -0.0534871 0)
(-0.293298 -0.0648884 0)
(-0.277974 -0.0751559 0)
(-0.259662 -0.083762 0)
(-0.238368 -0.0901277 0)
(-0.214258 -0.0936832 0)
(-0.187712 -0.0939462 0)
(-0.15937 -0.0906302 0)
(-0.130122 -0.0837393 0)
(-0.101066 -0.0736418 0)
(-0.0733623 -0.0610587 0)
(-0.048082 -0.0469768 0)
(-0.0260165 -0.0324742 0)
(-0.00762987 -0.0185468 0)
(0.00695964 -0.00599358 0)
(0.0177958 0.00461282 0)
(0.0250758 0.0128929 0)
(0.0290112 0.0186659 0)
(0.0300128 0.0219618 0)
(0.0285352 0.0230515 0)
(0.0252896 0.0224013 0)
(0.0208588 0.020577 0)
(0.0159936 0.0180896 0)
(0.0110384 0.0152541 0)
(0.00661474 0.0120669 0)
(0.00280382 0.00823071 0)
(0.000486295 0.00324248 0)
(0.000501123 -0.00521373 0)
(0.00245799 -0.0107754 0)
(0.00470608 -0.0119909 0)
(0.00579265 -0.00972767 0)
(0.00538155 -0.00540578 0)
(0.00304214 -9.02518e-05 0)
(-0.00122138 0.00544843 0)
(-0.00768764 0.0111127 0)
(-0.0166537 0.0171415 0)
(-0.0286595 0.0240555 0)
(-0.0441703 0.0322329 0)
(-0.0634964 0.0417998 0)
(-0.0865086 0.0524442 0)
(-0.112577 0.0634872 0)
(-0.140579 0.0739632 0)
(-0.169181 0.0829101 0)
(-0.197148 0.0895907 0)
(-0.223565 0.0936263 0)
(-0.247856 0.0949389 0)
(-0.269728 0.0936674 0)
(-0.289067 0.0900596 0)
(-0.305879 0.0844135 0)
(-0.320238 0.0770245 0)
(-0.332256 0.0681697 0)
(-0.342066 0.0580885 0)
(-0.349807 0.0469853 0)
(-0.355615 0.0350249 0)
(-0.359607 0.0223423 0)
(-0.361875 0.00904675 0)
(-0.362473 -0.00476202 0)
(-0.361404 -0.0189831 0)
(-0.358616 -0.0334915 0)
(-0.35399 -0.0481205 0)
(-0.347336 -0.0626327 0)
(-0.338396 -0.0767004 0)
(-0.326851 -0.0898799 0)
(-0.312356 -0.101607 0)
(-0.294588 -0.111202 0)
(-0.273319 -0.117917 0)
(-0.248518 -0.121013 0)
(-0.220453 -0.119886 0)
(-0.189775 -0.114209 0)
(-0.157556 -0.104092 0)
(-0.125205 -0.090153 0)
(-0.0942925 -0.0735021 0)
(-0.0662413 -0.0555531 0)
(-0.0420686 -0.0377408 0)
(-0.0221969 -0.0212418 0)
(-0.00659289 -0.00684664 0)
(0.00507772 0.00498846 0)
(0.0131391 0.01404 0)
(0.0179839 0.0202571 0)
(0.0199438 0.0237808 0)
(0.0195747 0.0249701 0)
(0.0173601 0.024334 0)
(0.0140452 0.0224359 0)
(0.0100651 0.0196506 0)
(0.00618451 0.0160695 0)
(0.00264967 0.0112934 0)
(0.000456157 0.00468111 0)
(0.000508664 -0.00659817 0)
(0.00216411 -0.0128011 0)
(0.00353582 -0.0132731 0)
(0.00321952 -0.00937853 0)
(0.000914554 -0.00309154 0)
(-0.00372357 0.00436764 0)
(-0.0107694 0.012215 0)
(-0.0206097 0.0205474 0)
(-0.0337041 0.0297411 0)
(-0.0505964 0.0403368 0)
(-0.0715422 0.0524761 0)
(-0.0963281 0.0658367 0)
(-0.124119 0.0795259 0)
(-0.15361 0.0923835 0)
(-0.183341 0.103264 0)
(-0.212056 0.111376 0)
(-0.23887 0.116332 0)
(-0.263261 0.118111 0)
(-0.284976 0.1169 0)
(-0.303946 0.113019 0)
(-0.320222 0.106823 0)
(-0.333937 0.098682 0)
(-0.345279 0.088935 0)
(-0.354472 0.0778889 0)
(-0.361754 0.0657965 0)
(-0.367361 0.0528626 0)
(-0.371511 0.0392377 0)
(-0.374396 0.0250319 0)
(-0.376169 0.0103175 0)
(-0.376936 -0.00485208 0)
(-0.376754 -0.020433 0)
(-0.375611 -0.0363674 0)
(-0.373425 -0.052567 0)
(-0.370018 -0.0688816 0)
(-0.36511 -0.0850741 0)
(-0.358304 -0.100783 0)
(-0.349093 -0.115497 0)
(-0.33688 -0.128534 0)
(-0.321046 -0.139057 0)
(-0.301044 -0.146111 0)
(-0.276552 -0.148747 0)
(-0.247639 -0.146172 0)
(-0.214932 -0.137979 0)
(-0.17969 -0.124345 0)
(-0.143755 -0.106172 0)
(-0.109259 -0.0850365 0)
(-0.0781975 -0.0629027 0)
(-0.0519114 -0.0416585 0)
(-0.0308751 -0.0226901 0)
(-0.0147722 -0.00673925 0)
(-0.00299926 0.00594295 0)
(0.00510761 0.0153617 0)
(0.0100148 0.0216586 0)
(0.0122574 0.0251367 0)
(0.012254 0.0262184 0)
(0.0106827 0.0254402 0)
(0.00800521 0.0231607 0)
(0.00503466 0.0195134 0)
(0.00215332 0.0140177 0)
(0.00035304 0.00595462 0)
(0.00046408 -0.00778968 0)
(0.00152215 -0.0140181 0)
(0.00155188 -0.01313 0)
(-0.000632608 -0.00708294 0)
(-0.00530005 0.00160366 0)
(-0.0126982 0.0116512 0)
(-0.0230388 0.0223603 0)
(-0.0367834 0.034042 0)
(-0.054434 0.047094 0)
(-0.0762646 0.061825 0)
(-0.102011 0.0778415 0)
(-0.130736 0.0941861 0)
(-0.16101 0.109472 0)
(-0.191273 0.122419 0)
(-0.220219 0.132111 0)
(-0.246941 0.138151 0)
(-0.270914 0.14052 0)
(-0.291886 0.139467 0)
(-0.309812 0.135365 0)
(-0.324787 0.128665 0)
(-0.337021 0.119819 0)
(-0.346792 0.109265 0)
(-0.354429 0.0973847 0)
(-0.360264 0.0845002 0)
(-0.364625 0.0708579 0)
(-0.367802 0.0566411 0)
(-0.370054 0.0419667 0)
(-0.371595 0.0269055 0)
(-0.372598 0.0114852 0)
(-0.373191 -0.00428914 0)
(-0.373466 -0.0204294 0)
(-0.373458 -0.0369432 0)
(-0.37315 -0.0538238 0)
(-0.372441 -0.0710215 0)
(-0.371133 -0.088422 0)
(-0.368887 -0.105804 0)
(-0.365211 -0.122803 0)
(-0.359425 -0.138862 0)
(-0.350688 -0.153202 0)
(-0.338045 -0.164815 0)
(-0.320564 -0.172519 0)
(-0.297525 -0.175078 0)
(-0.268693 -0.171429 0)
(-0.234569 -0.160972 0)
(-0.196584 -0.143889 0)
(-0.157054 -0.121352 0)
(-0.118849 -0.095489 0)
(-0.0846934 -0.0689607 0)
(-0.0564291 -0.0442416 0)
(-0.0345359 -0.0229651 0)
(-0.018436 -0.00576052 0)
(-0.00706821 0.00741286 0)
(0.000465366 0.016851 0)
(0.00493803 0.0229479 0)
(0.0068683 0.0261145 0)
(0.00691647 0.0268474 0)
(0.00556733 0.0254498 0)
(0.00361766 0.0220423 0)
(0.0015421 0.0160968 0)
(0.000233139 0.0068921 0)
(0.000338237 -0.00863116 0)
(0.000449081 -0.0140866 0)
(-0.00132455 -0.0111843 0)
(-0.00577522 -0.00249813 0)
(-0.0131768 0.00900573 0)
(-0.0236782 0.0221067 0)
(-0.0376528 0.0362478 0)
(-0.0555114 0.0518576 0)
(-0.0775791 0.0691101 0)
(-0.103576 0.0877815 0)
(-0.132585 0.106783 0)
(-0.163083 0.12464 0)
(-0.193449 0.139839 0)
(-0.222272 0.151354 0)
(-0.2486 0.158684 0)
(-0.271847 0.161819 0)
(-0.291765 0.161027 0)
(-0.308316 0.156771 0)
(-0.321668 0.149589 0)
(-0.332107 0.140055 0)
(-0.340027 0.128705 0)
(-0.345846 0.116019 0)
(-0.349989 0.102383 0)
(-0.35284 0.0880983 0)
(-0.354739 0.0733714 0)
(-0.355959 0.0583397 0)
(-0.356729 0.0430728 0)
(-0.357221 0.0275992 0)
(-0.357579 0.0119085 0)
(-0.35791 -0.00402672 0)
(-0.358304 -0.0202517 0)
(-0.358825 -0.0368112 0)
(-0.359512 -0.0537491 0)
(-0.360359 -0.0710872 0)
(-0.361301 -0.0888152 0)
(-0.362163 -0.106855 0)
(-0.362629 -0.125027 0)
(-0.362174 -0.142992 0)
(-0.360028 -0.160189 0)
(-0.35515 -0.175774 0)
(-0.346276 -0.188594 0)
(-0.332052 -0.197212 0)
(-0.311288 -0.200056 0)
(-0.283316 -0.195679 0)
(-0.248401 -0.183176 0)
(-0.208061 -0.162629 0)
(-0.165131 -0.135478 0)
(-0.12332 -0.104512 0)
(-0.0862834 -0.0732884 0)
(-0.0564082 -0.0450309 0)
(-0.0341985 -0.0216295 0)
(-0.0186107 -0.0035001 0)
(-0.00818589 0.00979062 0)
(-0.00161138 0.0189108 0)
(0.00199408 0.0244414 0)
(0.00342751 0.0269277 0)
(0.00325981 0.0266489 0)
(0.00226279 0.0236967 0)
(0.000965929 0.0175432 0)
(0.0001255 0.00752054 0)
(0.000102884 -0.00881543 0)
(-0.00111371 -0.0125134 0)
(-0.00511256 -0.00695352 0)
(-0.0121391 0.00479239 0)
(-0.0225346 0.0194913 0)
(-0.0363279 0.0360706 0)
(-0.0540112 0.0540823 0)
(-0.0757416 0.0738497 0)
(-0.10145 0.0950391 0)
(-0.130176 0.116725 0)
(-0.160493 0.137236 0)
(-0.190635 0.154927 0)
(-0.219147 0.168517 0)
(-0.244924 0.177409 0)
(-0.267359 0.181515 0)
(-0.286139 0.181151 0)
(-0.301283 0.176843 0)
(-0.312996 0.169263 0)
(-0.321687 0.159101 0)
(-0.327833 0.147028 0)
(-0.331966 0.133615 0)
(-0.334571 0.11933 0)
(-0.336091 0.10451 0)
(-0.336871 0.0893938 0)
(-0.337194 0.0741169 0)
(-0.337256 0.0587542 0)
(-0.337211 0.0433226 0)
(-0.337158 0.027812 0)
(-0.337186 0.0121846 0)
(-0.337357 -0.00360413 0)
(-0.33774 -0.0196114 0)
(-0.338394 -0.0358925 0)
(-0.339389 -0.0525081 0)
(-0.340778 -0.0695111 0)
(-0.342603 -0.0869486 0)
(-0.344852 -0.104839 0)
(-0.347429 -0.123158 0)
(-0.350082 -0.141781 0)
(-0.352341 -0.160435 0)
(-0.353419 -0.178596 0)
(-0.352167 -0.195406 0)
(-0.347064 -0.209588 0)
(-0.336355 -0.219449 0)
(-0.318321 -0.223011 0)
(-0.291765 -0.218334 0)
(-0.256582 -0.204054 0)
(-0.214298 -0.180049 0)
(-0.168257 -0.148024 0)
(-0.123154 -0.111594 0)
(-0.083687 -0.0754787 0)
(-0.0528563 -0.043804 0)
(-0.030968 -0.0186571 0)
(-0.0164585 -6.5608e-05 0)
(-0.00731845 0.0129187 0)
(-0.00200389 0.0212746 0)
(0.000666465 0.0257876 0)
(0.00148632 0.0268365 0)
(0.00126229 0.0245294 0)
(0.000572388 0.0184002 0)
(6.33157e-05 0.00787441 0)
(-0.000255888 -0.00808608 0)
(-0.00314449 -0.00896574 0)
(-0.00967348 -0.000195435 0)
(-0.0194371 0.0149253 0)
(-0.0329105 0.033119 0)
(-0.0499463 0.0534749 0)
(-0.0710516 0.0755173 0)
(-0.0959231 0.0991871 0)
(-0.124002 0.123463 0)
(-0.153736 0.146777 0)
(-0.183497 0.167189 0)
(-0.211577 0.183225 0)
(-0.236859 0.194031 0)
(-0.258553 0.199458 0)
(-0.276383 0.199793 0)
(-0.290319 0.195662 0)
(-0.300682 0.187843 0)
(-0.307928 0.17719 0)
(-0.312675 0.164497 0)
(-0.315509 0.150459 0)
(-0.317007 0.135608 0)
(-0.317616 0.120334 0)
(-0.317711 0.104882 0)
(-0.317532 0.0893956 0)
(-0.317263 0.0739338 0)
(-0.316996 0.0585106 0)
(-0.316802 0.0431006 0)
(-0.316711 0.0276694 0)
(-0.316755 0.0121682 0)
(-0.316956 -0.00344745 0)
(-0.317355 -0.0192286 0)
(-0.317994 -0.0352198 0)
(-0.318943 -0.0514728 0)
(-0.320273 -0.0680363 0)
(-0.322078 -0.0849678 0)
(-0.324436 -0.102322 0)
(-0.327406 -0.12015 0)
(-0.330972 -0.138474 0)
(-0.33499 -0.15725 0)
(-0.339081 -0.176289 0)
(-0.342529 -0.195151 0)
(-0.344155 -0.213006 0)
(-0.342282 -0.2285 0)
(-0.334794 -0.239689 0)
(-0.319457 -0.244143 0)
(-0.294471 -0.239318 0)
(-0.259266 -0.223249 0)
(-0.215295 -0.195512 0)
(-0.166454 -0.158124 0)
(-0.118535 -0.115797 0)
(-0.0774247 -0.07473 0)
(-0.0465697 -0.0400636 0)
(-0.0258381 -0.0138353 0)
(-0.0129006 0.00457202 0)
(-0.00535492 0.0166304 0)
(-0.00134712 0.023629 0)
(0.000348809 0.0262676 0)
(0.00071025 0.0248015 0)
(0.000402699 0.0189054 0)
(5.10944e-05 0.0081095 0)
(-0.000739746 -0.00612522 0)
(-0.00557382 -0.0031004 0)
(-0.0148002 0.00931311 0)
(-0.027311 0.0280113 0)
(-0.0437577 0.0498836 0)
(-0.0637229 0.0740954 0)
(-0.0876087 0.0999436 0)
(-0.114531 0.126764 0)
(-0.14351 0.152858 0)
(-0.172628 0.176256 0)
(-0.200344 0.195092 0)
(-0.225181 0.208284 0)
(-0.246405 0.215461 0)
(-0.263533 0.216903 0)
(-0.276643 0.213263 0)
(-0.286004 0.205469 0)
(-0.29223 0.194516 0)
(-0.295958 0.181367 0)
(-0.297914 0.16683 0)
(-0.298674 0.151536 0)
(-0.298759 0.135908 0)
(-0.298498 0.120216 0)
(-0.298149 0.104593 0)
(-0.297826 0.0890894 0)
(-0.297613 0.0736958 0)
(-0.297516 0.0583824 0)
(-0.297547 0.043099 0)
(-0.297683 0.0278021 0)
(-0.297929 0.0124437 0)
(-0.298276 -0.00301158 0)
(-0.298749 -0.0186017 0)
(-0.299372 -0.0343548 0)
(-0.300203 -0.050305 0)
(-0.301307 -0.0664835 0)
(-0.30278 -0.0829351 0)
(-0.304725 -0.0997105 0)
(-0.307266 -0.11688 0)
(-0.310505 -0.134521 0)
(-0.314512 -0.152711 0)
(-0.319232 -0.171481 0)
(-0.324407 -0.190744 0)
(-0.329413 -0.210159 0)
(-0.333117 -0.228952 0)
(-0.333743 -0.245713 0)
(-0.328901 -0.25824 0)
(-0.315864 -0.263607 0)
(-0.292224 -0.258551 0)
(-0.256896 -0.240389 0)
(-0.211261 -0.208327 0)
(-0.159854 -0.164876 0)
(-0.109765 -0.116237 0)
(-0.0680942 -0.0705122 0)
(-0.0384273 -0.0337326 0)
(-0.0196753 -0.00742398 0)
(-0.0087593 0.00991755 0)
(-0.00292359 0.0202887 0)
(-0.000262944 0.0249981 0)
(0.000578319 0.0246708 0)
(0.00045153 0.0192316 0)
(8.82519e-05 0.0083314 0)
(-0.00131821 -0.00273581 0)
(-0.00823123 0.00518882 0)
(-0.0201367 0.0215124 0)
(-0.0352224 0.0438407 0)
(-0.0543237 0.0693873 0)
(-0.0766518 0.0972337 0)
(-0.102421 0.12627 0)
(-0.130166 0.155138 0)
(-0.158669 0.181641 0)
(-0.185886 0.203705 0)
(-0.210558 0.219798 0)
(-0.231502 0.229321 0)
(-0.248379 0.232397 0)
(-0.261021 0.229719 0)
(-0.269874 0.222301 0)
(-0.275466 0.211321 0)
(-0.278625 0.197902 0)
(-0.280044 0.183009 0)
(-0.280439 0.167365 0)
(-0.280277 0.151464 0)
(-0.279953 0.135583 0)
(-0.279648 0.119861 0)
(-0.279497 0.104325 0)
(-0.279508 0.088956 0)
(-0.279693 0.0736992 0)
(-0.28 0.0585035 0)
(-0.280413 0.0433123 0)
(-0.280883 0.0280862 0)
(-0.281403 0.012787 0)
(-0.281952 -0.002607 0)
(-0.282546 -0.0181181 0)
(-0.283194 -0.0337567 0)
(-0.283942 -0.0495379 0)
(-0.284833 -0.0654719 0)
(-0.285949 -0.0815815 0)
(-0.287377 -0.097896 0)
(-0.289245 -0.11447 0)
(-0.291687 -0.131382 0)
(-0.294861 -0.148742 0)
(-0.298888 -0.16668 0)
(-0.303817 -0.185315 0)
(-0.309492 -0.204664 0)
(-0.315403 -0.224494 0)
(-0.320469 -0.244094 0)
(-0.322864 -0.261985 0)
(-0.319954 -0.275692 0)
(-0.308569 -0.281703 0)
(-0.285713 -0.275951 0)
(-0.249825 -0.254906 0)
(-0.202304 -0.217487 0)
(-0.148544 -0.16701 0)
(-0.0971836 -0.11185 0)
(-0.0564456 -0.0623376 0)
(-0.0293309 -0.0249143 0)
(-0.0133271 0.000135744 0)
(-0.0047177 0.0153734 0)
(-0.000707548 0.0229935 0)
(0.000680327 0.0242828 0)
(0.000637971 0.0195729 0)
(0.000156953 0.00867036 0)
(-0.00195058 0.00223363 0)
(-0.0109381 0.0159317 0)
(-0.025346 0.0362829 0)
(-0.0426853 0.0621607 0)
(-0.0639466 0.0911887 0)
(-0.0878961 0.122175 0)
(-0.114547 0.153498 0)
(-0.141954 0.183158 0)
(-0.168873 0.208726 0)
(-0.193318 0.228288 0)
(-0.214414 0.2408 0)
(-0.231282 0.246175 0)
(-0.243991 0.245028 0)
(-0.252678 0.238453 0)
(-0.258115 0.227772 0)
(-0.260992 0.214307 0)
(-0.262222 0.199194 0)
(-0.262437 0.183296 0)
(-0.26225 0.167175 0)
(-0.261962 0.151154 0)
(-0.261828 0.135364 0)
(-0.261891 0.119827 0)
(-0.262197 0.104498 0)
(-0.262679 0.0893129 0)
(-0.263317 0.0741999 0)
(-0.264032 0.0591038 0)
(-0.264803 0.0439739 0)
(-0.265576 0.028781 0)
(-0.266348 0.0134985 0)
(-0.267092 -0.00188273 0)
(-0.267827 -0.0173729 0)
(-0.26855 -0.0329698 0)
(-0.269297 -0.0486752 0)
(-0.270093 -0.064484 0)
(-0.270997 -0.0804002 0)
(-0.272065 -0.0964305 0)
(-0.273396 -0.112603 0)
(-0.275101 -0.128966 0)
(-0.277339 -0.145612 0)
(-0.280282 -0.16268 0)
(-0.284123 -0.180358 0)
(-0.288983 -0.198849 0)
(-0.294821 -0.21828 0)
(-0.301218 -0.238531 0)
(-0.307147 -0.258924 0)
(-0.310707 -0.277882 0)
(-0.309028 -0.292544 0)
(-0.298499 -0.29873 0)
(-0.275596 -0.291392 0)
(-0.238401 -0.266169 0)
(-0.18857 -0.221846 0)
(-0.132764 -0.163289 0)
(-0.0814429 -0.101904 0)
(-0.043529 -0.0503664 0)
(-0.0202819 -0.0143184 0)
(-0.00754666 0.00801216 0)
(-0.00146935 0.0198838 0)
(0.000754879 0.0235544 0)
(0.000855109 0.0199622 0)
(0.000237507 0.00916413 0)
(-0.00256811 0.00875481 0)
(-0.0134528 0.0289095 0)
(-0.0300203 0.0532396 0)
(-0.0491529 0.0824169 0)
(-0.0719487 0.11451 0)
(-0.0967051 0.147896 0)
(-0.123282 0.180447 0)
(-0.149406 0.209674 0)
(-0.173987 0.233184 0)
(-0.195208 0.249404 0)
(-0.212617 0.25786 0)
(-0.225634 0.258972 0)
(-0.234724 0.253837 0)
(-0.240278 0.24389 0)
(-0.2433 0.230662 0)
(-0.244512 0.215491 0)
(-0.244803 0.199415 0)
(-0.244653 0.18311 0)
(-0.244532 0.166955 0)
(-0.244568 0.1511 0)
(-0.244902 0.135554 0)
(-0.24547 0.12026 0)
(-0.246272 0.10513 0)
(-0.247202 0.0900852 0)
(-0.248235 0.0750543 0)
(-0.249285 0.0599902 0)
(-0.250344 0.0448549 0)
(-0.251357 0.0296313 0)
(-0.252333 0.014305 0)
(-0.253244 -0.00112278 0)
(-0.254111 -0.0166524 0)
(-0.254927 -0.0322728 0)
(-0.255724 -0.0479767 0)
(-0.256509 -0.063749 0)
(-0.257327 -0.0795818 0)
(-0.258207 -0.0954654 0)
(-0.259215 -0.111405 0)
(-0.260418 -0.127419 0)
(-0.261937 -0.143562 0)
(-0.263915 -0.159933 0)
(-0.26656 -0.1767 0)
(-0.270097 -0.194111 0)
(-0.274742 -0.212456 0)
(-0.280542 -0.231992 0)
(-0.287177 -0.252689 0)
(-0.293629 -0.273904 0)
(-0.297884 -0.293835 0)
(-0.296768 -0.309134 0)
(-0.28621 -0.314692 0)
(-0.262222 -0.304401 0)
(-0.22274 -0.273026 0)
(-0.170154 -0.219838 0)
(-0.112936 -0.152332 0)
(-0.0636428 -0.0861354 0)
(-0.0306814 -0.0353812 0)
(-0.0122125 -0.00293549 0)
(-0.00305904 0.0150791 0)
(0.000515185 0.0222562 0)
(0.000980855 0.0203473 0)
(0.000306721 0.00982054 0)
(-0.00311445 0.0167041 0)
(-0.0155983 0.0438357 0)
(-0.0338793 0.0719908 0)
(-0.0542707 0.104114 0)
(-0.0779261 0.138723 0)
(-0.102707 0.173666 0)
(-0.128404 0.206393 0)
(-0.152572 0.234121 0)
(-0.174398 0.254723 0)
(-0.19229 0.267079 0)
(-0.206221 0.271316 0)
(-0.215885 0.268342 0)
(-0.2221 0.259696 0)
(-0.225418 0.247052 0)
(-0.226954 0.232023 0)
(-0.227354 0.21584 0)
(-0.227404 0.199366 0)
(-0.227393 0.183058 0)
(-0.227653 0.167114 0)
(-0.228166 0.151541 0)
(-0.228998 0.13627 0)
(-0.230021 0.121195 0)
(-0.231224 0.106217 0)
(-0.232487 0.0912593 0)
(-0.233799 0.0762627 0)
(-0.235079 0.0611923 0)
(-0.236333 0.0460237 0)
(-0.237514 0.0307497 0)
(-0.238638 0.0153655 0)
(-0.239679 -0.000121009 0)
(-0.240664 -0.015704 0)
(-0.241579 -0.0313675 0)
(-0.242455 -0.0470995 0)
(-0.243291 -0.0628804 0)
(-0.244121 -0.0786959 0)
(-0.244956 -0.0945285 0)
(-0.245838 -0.110369 0)
(-0.246799 -0.126217 0)
(-0.247915 -0.142089 0)
(-0.249272 -0.158043 0)
(-0.251029 -0.174185 0)
(-0.253389 -0.190717 0)
(-0.256632 -0.207934 0)
(-0.261031 -0.226238 0)
(-0.266737 -0.245986 0)
(-0.273488 -0.267275 0)
(-0.280249 -0.289386 0)
(-0.284802 -0.310231 0)
(-0.28357 -0.325649 0)
(-0.271981 -0.329424 0)
(-0.245662 -0.314104 0)
(-0.202817 -0.273947 0)
(-0.147206 -0.209639 0)
(-0.0899681 -0.133258 0)
(-0.045457 -0.0653969 0)
(-0.0192669 -0.0189053 0)
(-0.00587904 0.00771211 0)
(-0.00025282 0.0199381 0)
(0.00092798 0.0205174 0)
(0.000350207 0.0105635 0)
(-0.00352436 0.0257951 0)
(-0.0171874 0.0602343 0)
(-0.0366506 0.0919461 0)
(-0.0577244 0.126537 0)
(-0.0815732 0.162988 0)
(-0.105698 0.198598 0)
(-0.129911 0.230542 0)
(-0.15173 0.255932 0)
(-0.170681 0.273078 0)
(-0.185417 0.281359 0)
(-0.196305 0.281507 0)
(-0.203275 0.27487 0)
(-0.20741 0.26335 0)
(-0.20932 0.248729 0)
(-0.210124 0.23258 0)
(-0.210316 0.215939 0)
(-0.210545 0.199455 0)
(-0.210919 0.183368 0)
(-0.211657 0.16773 0)
(-0.212639 0.152447 0)
(-0.213896 0.137405 0)
(-0.215273 0.122481 0)
(-0.216766 0.107587 0)
(-0.218258 0.0926526 0)
(-0.219759 0.0776381 0)
(-0.221194 0.0625195 0)
(-0.222584 0.0472847 0)
(-0.223885 0.031934 0)
(-0.225122 0.01647 0)
(-0.226269 0.000904859 0)
(-0.227352 -0.0147503 0)
(-0.228357 -0.0304765 0)
(-0.229313 -0.046258 0)
(-0.230214 -0.0620729 0)
(-0.231089 -0.0779034 0)
(-0.23194 -0.0937294 0)
(-0.232797 -0.109535 0)
(-0.23367 -0.12531 0)
(-0.234601 -0.141051 0)
(-0.235632 -0.156781 0)
(-0.236859 -0.172552 0)
(-0.238418 -0.188498 0)
(-0.240541 -0.204836 0)
(-0.243529 -0.221951 0)
(-0.247735 -0.240319 0)
(-0.253372 -0.260465 0)
(-0.260221 -0.28251 0)
(-0.267142 -0.30566 0)
(-0.271599 -0.327209 0)
(-0.2695 -0.341979 0)
(-0.255688 -0.342131 0)
(-0.225662 -0.318921 0)
(-0.178406 -0.26661 0)
(-0.120189 -0.18932 0)
(-0.0654768 -0.106279 0)
(-0.0290298 -0.0417114 0)
(-0.0101967 -0.00314479 0)
(-0.00166683 0.0160411 0)
(0.000656473 0.0202161 0)
(0.000361728 0.011306 0)
(-0.00376549 0.0356805 0)
(-0.0181395 0.077639 0)
(-0.0382358 0.112617 0)
(-0.0594391 0.14918 0)
(-0.0828883 0.186808 0)
(-0.105827 0.222287 0)
(-0.128161 0.252675 0)
(-0.147474 0.27515 0)
(-0.163649 0.288562 0)
(-0.175573 0.292803 0)
(-0.18396 0.289186 0)
(-0.188912 0.279429 0)
(-0.191681 0.265688 0)
(-0.192835 0.249725 0)
(-0.193424 0.232981 0)
(-0.193759 0.216245 0)
(-0.194353 0.199955 0)
(-0.195162 0.184165 0)
(-0.196335 0.168824 0)
(-0.197691 0.153775 0)
(-0.199256 0.138892 0)
(-0.200867 0.124053 0)
(-0.202542 0.109187 0)
(-0.204174 0.0942389 0)
(-0.20579 0.0791835 0)
(-0.207323 0.0640055 0)
(-0.208807 0.0487019 0)
(-0.210197 0.0332765 0)
(-0.211523 0.0177369 0)
(-0.212757 0.00209758 0)
(-0.213928 -0.0136271 0)
(-0.215017 -0.0294166 0)
(-0.216054 -0.0452522 0)
(-0.217027 -0.0611113 0)
(-0.217967 -0.0769742 0)
(-0.218868 -0.0928209 0)
(-0.219758 -0.108633 0)
(-0.220634 -0.124399 0)
(-0.221524 -0.140105 0)
(-0.222437 -0.155757 0)
(-0.223421 -0.171367 0)
(-0.224544 -0.187011 0)
(-0.225958 -0.202812 0)
(-0.227894 -0.219062 0)
(-0.230712 -0.236184 0)
(-0.234814 -0.254836 0)
(-0.240478 -0.275605 0)
(-0.247456 -0.298717 0)
(-0.25439 -0.322975 0)
(-0.258282 -0.344894 0)
(-0.254336 -0.35761 0)
(-0.23691 -0.351453 0)
(-0.201639 -0.316353 0)
(-0.149442 -0.248198 0)
(-0.0901595 -0.157777 0)
(-0.0422212 -0.0736367 0)
(-0.0160268 -0.0185911 0)
(-0.00383818 0.00989775 0)
(0.000184937 0.0191213 0)
(0.000338158 0.011941 0)
(-0.00380844 0.0459243 0)
(-0.0183857 0.0954713 0)
(-0.0385657 0.133382 0)
(-0.0593867 0.171384 0)
(-0.081935 0.209526 0)
(-0.103307 0.244173 0)
(-0.123553 0.272423 0)
(-0.140389 0.291642 0)
(-0.154035 0.301277 0)
(-0.163591 0.301716 0)
(-0.170046 0.294803 0)
(-0.173604 0.282528 0)
(-0.175585 0.267185 0)
(-0.17645 0.250408 0)
(-0.177139 0.23345 0)
(-0.177783 0.216841 0)
(-0.178783 0.200836 0)
(-0.179986 0.185342 0)
(-0.181504 0.170248 0)
(-0.183128 0.155362 0)
(-0.184898 0.140572 0)
(-0.186656 0.125763 0)
(-0.188444 0.110887 0)
(-0.190162 0.0958979 0)
(-0.191856 0.080785 0)
(-0.193461 0.0655372 0)
(-0.195019 0.0501579 0)
(-0.196483 0.0346524 0)
(-0.197887 0.0190321 0)
(-0.1992 0.00331247 0)
(-0.200449 -0.0124885 0)
(-0.201614 -0.0283488 0)
(-0.202722 -0.0442464 0)
(-0.203761 -0.0601575 0)
(-0.204759 -0.0760599 0)
(-0.205711 -0.0919346 0)
(-0.206642 -0.107762 0)
(-0.207548 -0.123533 0)
(-0.20845 -0.139231 0)
(-0.209345 -0.154862 0)
(-0.210255 -0.170415 0)
(-0.211198 -0.185934 0)
(-0.212252 -0.201462 0)
(-0.213554 -0.217194 0)
(-0.215374 -0.233415 0)
(-0.218109 -0.250731 0)
(-0.222235 -0.269864 0)
(-0.228057 -0.291645 0)
(-0.235203 -0.316088 0)
(-0.241953 -0.341536 0)
(-0.244581 -0.362946 0)
(-0.237556 -0.371394 0)
(-0.214777 -0.354819 0)
(-0.172987 -0.302831 0)
(-0.116207 -0.215831 0)
(-0.0596896 -0.116171 0)
(-0.0233612 -0.0403323 0)
(-0.006892 0.000948037 0)
(-0.000479204 0.0168458 0)
(0.000288604 0.0123992 0)
(-0.00365971 0.0561059 0)
(-0.0179576 0.113253 0)
(-0.0377205 0.153822 0)
(-0.0577303 0.192803 0)
(-0.0789949 0.230915 0)
(-0.0985686 0.264218 0)
(-0.116666 0.289974 0)
(-0.131179 0.305822 0)
(-0.142618 0.311821 0)
(-0.150263 0.30882 0)
(-0.1553 0.29912 0)
(-0.157963 0.284883 0)
(-0.159567 0.268438 0)
(-0.160428 0.251217 0)
(-0.161363 0.234264 0)
(-0.16235 0.217868 0)
(-0.163707 0.20214 0)
(-0.165213 0.186883 0)
(-0.166971 0.171958 0)
(-0.168762 0.157165 0)
(-0.17065 0.142411 0)
(-0.172486 0.127594 0)
(-0.174335 0.112685 0)
(-0.176102 0.0976461 0)
(-0.177846 0.0824756 0)
(-0.179503 0.0671634 0)
(-0.181119 0.0517166 0)
(-0.182646 0.0361397 0)
(-0.18412 0.0204467 0)
(-0.185504 0.00465311 0)
(-0.186827 -0.0112202 0)
(-0.188066 -0.0271504 0)
(-0.189246 -0.0431118 0)
(-0.190354 -0.0590803 0)
(-0.191415 -0.0750302 0)
(-0.192424 -0.0909436 0)
(-0.193406 -0.106799 0)
(-0.194356 -0.122591 0)
(-0.195297 -0.138302 0)
(-0.19622 -0.153944 0)
(-0.19714 -0.169498 0)
(-0.198048 -0.184996 0)
(-0.198977 -0.200434 0)
(-0.19998 -0.215933 0)
(-0.201221 -0.231634 0)
(-0.202989 -0.248004 0)
(-0.205755 -0.26567 0)