/*--------------------------------*- C++ -*----------------------------------*\
| =========                 |                                                 |
| \\      /  F ield         | OpenFOAM: The Open Source CFD Toolbox           |
|  \\    /   O peration     | Version:  2406                                  |
|   \\  /    A nd           | Website:  www.openfoam.com                      |
|    \\/     M anipulation  |                                                 |
\*---------------------------------------------------------------------------*/
FoamFile
{
    version     2.0;
    format      ascii;
    arch        "LSB;label=32;scalar=64";
    class       surfaceScalarField;
    location    "20.35";
    object      phi;
}
// * * * * * * * * * * * * * * * * * * * * * * * * * * * * * * * * * * * * * //

dimensions      [0 3 -1 0 0 0 0];

oriented        oriented;

internalField   nonuniform List<scalar> 
7080
(
1.98095e-07
-1.98156e-07
5.64441e-07
-3.6839e-07
9.43212e-07
-3.78605e-07
1.25318e-06
-3.10935e-07
1.49249e-06
-2.39489e-07
1.65997e-06
-1.67562e-07
1.76937e-06
-1.09533e-07
1.81458e-06
-4.45795e-08
1.79142e-06
2.33739e-08
1.68377e-06
1.08954e-07
1.47899e-06
2.056e-07
1.16087e-06
3.20199e-07
7.16765e-07
4.4579e-07
1.33145e-07
5.86592e-07
-6.02393e-07
7.38294e-07
-1.5031e-06
9.04711e-07
-2.58195e-06
1.0828e-06
-3.85003e-06
1.27319e-06
-5.31389e-06
1.46901e-06
-6.97104e-06
1.66327e-06
-8.80646e-06
1.84154e-06
-1.07877e-05
1.98795e-06
-1.28623e-05
2.08108e-06
-1.49552e-05
2.09937e-06
-1.69689e-05
2.01942e-06
-1.87855e-05
1.82159e-06
-2.02721e-05
1.49018e-06
-2.12892e-05
1.0191e-06
-2.17017e-05
4.12349e-07
-2.13921e-05
-3.11775e-07
-2.02748e-05
-1.12195e-06
-1.83089e-05
-1.97275e-06
-1.55092e-05
-2.80886e-06
-1.19528e-05
-3.56756e-06
-7.77951e-06
-4.18583e-06
-3.18767e-06
-4.60553e-06
1.5802e-06
-4.78185e-06
6.25511e-06
-4.68889e-06
1.05682e-05
-4.32595e-06
1.42759e-05
-3.71943e-06
1.71884e-05
-2.9219e-06
1.91875e-05
-2.0066e-06
2.024e-05
-1.05692e-06
2.03932e-05
-1.55773e-07
1.97652e-05
6.2875e-07
1.85178e-05
1.24916e-06
1.68358e-05
1.68656e-06
1.48962e-05
1.94375e-06
1.28572e-05
2.04569e-06
1.08384e-05
2.02363e-06
8.9278e-06
1.9178e-06
7.17293e-06
1.75898e-06
5.5979e-06
1.58207e-06
4.19996e-06
1.40067e-06
2.97071e-06
1.23583e-06
1.9038e-06
1.06801e-06
1.01209e-06
8.97623e-07
3.56372e-07
6.55224e-07
-2.4499e-09
3.63576e-07
-2.48322e-09
3.79148e-07
-5.75216e-07
9.51467e-07
-9.40503e-07
1.48811e-06
-9.13089e-07
1.87017e-06
-6.92352e-07
2.09474e-06
-4.63305e-07
2.15663e-06
-2.29077e-07
2.07017e-06
-2.35715e-08
1.81845e-06
2.06831e-07
1.3819e-06
4.58254e-07
7.20634e-07
7.68855e-07
-2.04249e-07
1.12747e-06
-1.43763e-06
1.55073e-06
-3.01997e-06
2.02348e-06
-4.99113e-06
2.55302e-06
-7.38675e-06
3.12734e-06
-1.02383e-05
3.74935e-06
-1.35695e-05
4.40522e-06
-1.73899e-05
5.08441e-06
-2.16885e-05
5.75668e-06
-2.64229e-05
6.38634e-06
-3.15133e-05
6.91927e-06
-3.68348e-05
7.29665e-06
-4.22173e-05
7.45034e-06
-4.74474e-05
7.31698e-06
-5.22782e-05
6.83838e-06
-5.64412e-05
5.97482e-06
-5.96651e-05
4.70655e-06
-6.16939e-05
3.04371e-06
-6.2307e-05
1.02487e-06
-6.13364e-05
-1.27839e-06
-5.86824e-05
-3.76747e-06
-5.43247e-05
-6.31729e-06
-4.83296e-05
-8.78643e-06
-4.08537e-05
-1.1022e-05
-3.21413e-05
-1.28737e-05
-2.2518e-05
-1.42022e-05
-1.2376e-05
-1.48963e-05
-2.15538e-06
-1.48826e-05
7.6854e-06
-1.41412e-05
1.66988e-05
-1.27105e-05
2.44879e-05
-1.06921e-05
3.07369e-05
-8.24183e-06
3.52454e-05
-5.55594e-06
3.79408e-05
-2.84753e-06
3.88876e-05
-3.18069e-07
3.82657e-05
1.86598e-06
3.63491e-05
3.59634e-06
3.34569e-05
4.82535e-06
2.99231e-05
5.56946e-06
2.60478e-05
5.88617e-06
2.20869e-05
5.8686e-06
1.82234e-05
5.6098e-06
1.4586e-05
5.21111e-06
1.12396e-05
4.73546e-06
8.22511e-06
4.2445e-06
5.56571e-06
3.7172e-06
3.31135e-06
3.14911e-06
1.54991e-06
2.40815e-06
3.99237e-07
1.51436e-06
3.91991e-07
3.74257e-07
-9.50002e-07
8.52997e-07
-1.42116e-06
1.20491e-06
-1.26546e-06
1.3204e-06
-8.08635e-07
1.20929e-06
-3.52785e-07
8.69189e-07
1.11424e-07
3.07545e-07
5.37999e-07
-5.07844e-07
1.02367e-06
-1.61996e-06
1.57116e-06
-3.09636e-06
2.24781e-06
-5.00778e-06
3.0409e-06
-7.43117e-06
3.97798e-06
-1.04392e-05
5.03506e-06
-1.41004e-05
6.21959e-06
-1.84743e-05
7.50668e-06
-2.36073e-05
8.88942e-06
-2.95249e-05
1.03301e-05
-3.62205e-05
1.1789e-05
-4.3645e-05
1.31904e-05
-5.16938e-05
1.44457e-05
-6.0202e-05
1.54381e-05
-6.89415e-05
1.60478e-05
-7.76301e-05
1.61501e-05
-8.59423e-05
1.56404e-05
-9.35307e-05
1.44367e-05
-0.000100045
1.24979e-05
-0.000105154
9.82235e-06
-0.000108565
6.45804e-06
-0.000110035
2.49537e-06
-0.000109387
-1.92978e-06
-0.000106515
-6.64639e-06
-0.000101395
-1.14492e-05
-9.40842e-05
-1.61121e-05
-8.47326e-05
-2.03924e-05
-7.35792e-05
-2.40489e-05
-6.09537e-05
-2.68514e-05
-4.72693e-05
-2.86052e-05
-3.30116e-05
-2.91648e-05
-1.8716e-05
-2.84596e-05
-4.94174e-06
-2.65054e-05
7.76787e-06
-2.34186e-05
1.89221e-05
-1.94095e-05
2.81291e-05
-1.47712e-05
3.51242e-05
-9.84744e-06
3.98007e-05
-4.99428e-06
4.22069e-05
-5.37625e-07
4.25428e-05
3.26725e-06
4.11174e-05
6.25796e-06
3.83176e-05
8.37959e-06
3.45444e-05
9.66803e-06
3.01858e-05
1.02387e-05
2.55629e-05
1.02407e-05
2.09368e-05
9.84831e-06
1.64807e-05
9.19756e-06
1.23268e-05
8.40866e-06
8.55757e-06
7.48976e-06
5.2818e-06
6.43438e-06
2.61671e-06
5.07319e-06
7.7048e-07
3.3693e-06
1.16288e-06
2.56011e-07
-1.2054e-06
4.37529e-07
-1.60218e-06
3.64816e-07
-1.19246e-06
-2.24584e-08
-4.20585e-07
-6.93283e-07
3.17341e-07
-1.64565e-06
1.06424e-06
-2.88871e-06
1.7795e-06
-4.47921e-06
2.6139e-06
-6.49484e-06
3.58441e-06
-9.03957e-06
4.79129e-06
-1.22245e-05
6.22252e-06
-1.61651e-05
7.91608e-06
-2.09718e-05
9.8373e-06
-2.67446e-05
1.19885e-05
-3.35671e-05
1.43235e-05
-4.14945e-05
1.68114e-05
-5.05431e-05
1.93716e-05
-6.06721e-05
2.1911e-05
-7.17736e-05
2.42835e-05
-8.36611e-05
2.63249e-05
-9.60735e-05
2.78413e-05
-0.000108682
2.86476e-05
-0.000121111
2.85698e-05
-0.000132956
2.74772e-05
-0.00014381
2.52826e-05
-0.000153279
2.19604e-05
-0.000161001
1.75398e-05
-0.000166656
1.21116e-05
-0.000169978
5.8176e-06
-0.000170756
-1.1477e-06
-0.000168847
-8.54904e-06
-0.000164176
-1.61097e-05
-0.00015675
-2.35254e-05
-0.00014666
-3.04665e-05
-0.000134093
-3.65978e-05
-0.000119338
-4.15875e-05
-0.000102786
-4.5137e-05
-8.49323e-05
-4.6999e-05
-6.63581e-05
-4.70151e-05
-4.77119e-05
-4.51352e-05
-2.96689e-05
-4.14474e-05
-1.28896e-05
-3.61783e-05
2.03792e-06
-2.9691e-05
1.46406e-05
-2.24466e-05
2.46079e-05
-1.49605e-05
3.18056e-05
-7.73816e-06
3.62874e-05
-1.21833e-06
3.82643e-05
4.27388e-06
3.80831e-05
8.55451e-06
3.61615e-05
1.15803e-05
3.29578e-05
1.34358e-05
2.88981e-05
1.42906e-05
2.43715e-05
1.43696e-05
1.96755e-05
1.3884e-05
1.50612e-05
1.30197e-05
1.06991e-05
1.18426e-05
6.77901e-06
1.03542e-05
3.46798e-06
8.37462e-06
1.07628e-06
5.7639e-06
2.23305e-06
7.21119e-08
-1.27823e-06
-1.73016e-07
-1.3561e-06
-8.24971e-07
-5.41785e-07
-1.87158e-06
6.27514e-07
-3.25662e-06
1.70136e-06
-4.97511e-06
2.78479e-06
-7.06318e-06
3.86725e-06
-9.61347e-06
5.16681e-06
-1.27525e-05
6.72406e-06
-1.66327e-05
8.67471e-06
-2.14169e-05
1.10084e-05
-2.72671e-05
1.37703e-05
-3.43373e-05
1.69104e-05
-4.27604e-05
2.04165e-05
-5.26403e-05
2.42075e-05
-6.40308e-05
2.82077e-05
-7.69218e-05
3.2268e-05
-9.1217e-05
3.62132e-05
-0.000106728
3.98013e-05
-0.000123171
4.27756e-05
-0.000140181
4.48588e-05
-0.000157331
4.58051e-05
-0.000174156
4.54029e-05
-0.000190181
4.35098e-05
-0.00020494
4.00479e-05
-0.000217993
3.50192e-05
-0.000228942
2.84924e-05
-0.000237435
2.06078e-05
-0.000243178
1.15602e-05
-0.00024593
1.60158e-06
-0.000245509
-8.97414e-06
-0.000241799
-1.98274e-05
-0.000234748
-3.05863e-05
-0.000224382
-4.08443e-05
-0.000210815
-5.01777e-05
-0.000194266
-5.8151e-05
-0.00017507
-6.43479e-05
-0.000153693
-6.83916e-05
-0.00013073
-6.99925e-05
-0.000106898
-6.89799e-05
-8.30031e-05
-6.53531e-05
-5.98915e-05
-5.92988e-05
-3.83793e-05
-5.12088e-05
-1.91847e-05
-4.1645e-05
-2.85364e-06
-3.12918e-05
1.02751e-05
-2.0866e-05
2.00954e-05
-1.10344e-05
2.67057e-05
-2.33245e-06
3.03886e-05
4.87849e-06
3.15434e-05
1.04306e-05
3.06558e-05
1.43316e-05
2.82179e-05
1.67331e-05
2.47178e-05
1.78781e-05
2.05657e-05
1.80392e-05
1.61327e-05
1.74612e-05
1.16934e-05
1.62826e-05
7.53779e-06
1.45188e-05
3.91135e-06
1.19984e-05
1.2287e-06
8.45669e-06
3.46093e-06
-1.63353e-07
-1.11636e-06
-9.40125e-07
-5.76922e-07
-2.29484e-06
8.10044e-07
-4.12513e-06
2.45978e-06
-6.35036e-06
3.92358e-06
-8.97037e-06
5.40595e-06
-1.20635e-05
6.95718e-06
-1.57736e-05
8.87705e-06
-2.02922e-05
1.12391e-05
-2.58329e-05
1.42145e-05
-3.2621e-05
1.77925e-05
-4.08706e-05
2.20179e-05
-5.07808e-05
2.68161e-05
-6.25117e-05
3.21442e-05
-7.61733e-05
3.7864e-05
-9.17942e-05
4.38244e-05
-0.000109306
4.97737e-05
-0.000128519
5.54216e-05
-0.000149131
6.04065e-05
-0.000170727
6.43661e-05
-0.000192814
6.69404e-05
-0.000214848
6.78331e-05
-0.000236266
6.68145e-05
-0.000256517
6.37557e-05
-0.00027509
5.86163e-05
-0.000291528
5.14544e-05
-0.000305441
4.24026e-05
-0.0003165
3.1667e-05
-0.000324442
1.95024e-05
-0.00032905
6.21317e-06
-0.000330156
-7.86346e-06
-0.000327626
-2.235e-05
-0.000321365
-3.68383e-05
-0.00031132
-5.08783e-05
-0.000297496
-6.39891e-05
-0.00027998
-7.56542e-05
-0.000258967
-8.53472e-05
-0.000234798
-9.2548e-05
-0.000207982
-9.67954e-05
-0.00017922
-9.77303e-05
-0.000149392
-9.5171e-05
-0.000119521
-8.91624e-05
-9.06934e-05
-8.00311e-05
-6.39574e-05
-6.83783e-05
-4.02014e-05
-5.50463e-05
-2.00641e-05
-4.10049e-05
-3.87183e-06
-2.72284e-05
8.34223e-06
-1.45511e-05
1.68039e-05
-3.58661e-06
2.19069e-05
5.32119e-06
2.41679e-05
1.20668e-05
2.41357e-05
1.67582e-05
2.23802e-05
1.96308e-05
1.94095e-05
2.10023e-05
1.57055e-05
2.11642e-05
1.16507e-05
2.03292e-05
7.63997e-06
1.85311e-05
4.01099e-06
1.56178e-05
1.26757e-06
1.12047e-05
4.72223e-06
-4.39379e-07
-6.78685e-07
-1.8275e-06
8.16207e-07
-3.976e-06
2.95501e-06
-6.68378e-06
5.17217e-06
-9.85272e-06
7.09018e-06
-1.35008e-05
9.05831e-06
-1.77667e-05
1.12221e-05
-2.28626e-05
1.39771e-05
-2.90607e-05
1.74374e-05
-3.66465e-05
2.18046e-05
-4.59138e-05
2.70611e-05
-5.71284e-05
3.32371e-05
-7.05263e-05
4.02164e-05
-8.62751e-05
4.7898e-05
-0.000104459
5.60516e-05
-0.000125037
6.44073e-05
-0.000147826
7.2567e-05
-0.000172487
8.00883e-05
-0.000198543
8.6467e-05
-0.000225401
9.12305e-05
-0.000252407
9.39514e-05
-0.000278885
9.43164e-05
-0.00030419
9.21248e-05
-0.000327745
8.73156e-05
-0.000349064
7.99391e-05
-0.000367761
7.01534e-05
-0.000383542
5.81854e-05
-0.000396196
4.43205e-05
-0.000405566
2.88707e-05
-0.000411531
1.21756e-05
-0.000413984
-5.41533e-06
-0.000412813
-2.35277e-05
-0.000407893
-4.17665e-05
-0.000399087
-5.96936e-05
-0.000386259
-7.68271e-05
-0.0003693
-9.26228e-05
-0.000348172
-0.000106486
-0.000322956
-0.000117773
-0.00029392
-0.00012584
-0.000261574
-0.000130085
-0.00022671
-0.000130041
-0.000190413
-0.000125464
-0.000154005
-0.000116443
-0.000118931
-0.000103455
-8.65845e-05
-8.7393e-05
-5.81185e-05
-6.94709e-05
-3.42802e-05
-5.10642e-05
-1.53612e-05
-3.34682e-05
-1.22738e-06
-1.77159e-05
8.54227e-06
-4.44566e-06
1.45509e-05
6.06401e-06
1.74513e-05
1.38603e-05
1.79201e-05
1.91684e-05
1.65718e-05
2.23519e-05
1.39963e-05
2.37467e-05
1.06847e-05
2.36401e-05
7.13394e-06
2.20899e-05
3.77812e-06
1.897e-05
1.18989e-06
1.38025e-05
5.9108e-06
-7.62818e-07
8.00396e-08
-2.8427e-06
2.90172e-06
-5.87206e-06
5.97733e-06
-9.54786e-06
8.8521e-06
-1.37674e-05
1.13038e-05
-1.85851e-05
1.38784e-05
-2.42213e-05
1.68528e-05
-3.0973e-05
2.07297e-05
-3.92061e-05
2.56654e-05
-4.92822e-05
3.18802e-05
-6.15609e-05
3.93348e-05
-7.63461e-05
4.80207e-05
-9.38844e-05
5.77497e-05
-0.000114308
6.83186e-05
-0.000137612
7.93513e-05
-0.000163607
9.0399e-05
-0.00019191
0.000100865
-0.000221948
0.000110122
-0.000253004
0.000117518
-0.000284277
0.000122499
-0.000314956
0.000124626
-0.000344288
0.000123645
-0.000371636
0.000119468
-0.000396502
0.000112178
-0.000418541
0.000101974
-0.000437545
8.91544e-05
-0.000453418
7.40562e-05
-0.000466141
5.70428e-05
-0.000475738
3.84667e-05
-0.000482234
1.86728e-05
-0.000485631
-2.01553e-06
-0.000485881
-2.32749e-05
-0.000482864
-4.47794e-05
-0.000476385
-6.61676e-05
-0.000466175
-8.70308e-05
-0.000451914
-0.000106877
-0.000433268
-0.000125125
-0.000409951
-0.000141083
-0.000381812
-0.000153972
-0.000348935
-0.000162955
-0.000311747
-0.000167223
-0.000271101
-0.000166105
-0.000228312
-0.000159227
-0.000185103
-0.000146661
-0.000143427
-0.000129067
-0.000105198
-0.0001077
-7.19574e-05
-8.43057e-05
-4.4623e-05
-6.08057e-05
-2.33965e-05
-3.89442e-05
-7.90433e-06
-1.99423e-05
2.59283e-06
-4.43522e-06
8.94852e-06
7.49935e-06
1.20334e-05
1.60822e-05
1.26267e-05
2.17527e-05
1.14554e-05
2.4918e-05
9.13243e-06
2.59565e-05
6.25688e-06
2.49676e-05
3.35695e-06
2.18618e-05
1.05596e-06
1.61079e-05
6.96142e-06
-1.12855e-06
1.20531e-06
-3.96979e-06
5.75303e-06
-7.95397e-06
9.95469e-06
-1.26788e-05
1.35854e-05
-1.80556e-05
1.66763e-05
-2.4197e-05
2.0027e-05
-3.14258e-05
2.40794e-05
-4.01375e-05
2.94477e-05
-5.07958e-05
3.63232e-05
-6.38316e-05
4.4922e-05
-7.96521e-05
5.51562e-05
-9.85651e-05
6.69392e-05
-0.000120774
7.99609e-05
-0.000146298
9.38478e-05
-0.000174948
0.000108004
-0.000206276
0.000121732
-0.000239603
0.000134195
-0.000274051
0.000144575
-0.00030865
0.00015212
-0.000342421
0.000156274
-0.000374489
0.000156697
-0.000404142
0.000153301
-0.000430879
0.000146207
-0.00045441
0.000135711
-0.000474638
0.000122204
-0.000491619
0.000106135
-0.000505513
8.79484e-05
-0.000516533
6.80618e-05
-0.000524908
4.68381e-05
-0.000530834
2.45943e-05
-0.000534447
1.59207e-06
-0.000535794
-2.19331e-05
-0.000534815
-4.57664e-05
-0.000531317
-6.96737e-05
-0.000524972
-9.33841e-05
-0.000515316
-0.000116542
-0.000501769
-0.000138682
-0.000483678
-0.000159184
-0.0004604
-0.000177259
-0.00043142
-0.000191943
-0.000396504
-0.000202145
-0.000355878
-0.000206736
-0.00031038
-0.000204727
-0.000261563
-0.00019548
-0.000211643
-0.000178986
-0.00016327
-0.000156072
-0.000119087
-0.000128487
-8.12013e-05
-9.86901e-05
-5.07465e-05
-6.9396e-05
-2.77933e-05
-4.28941e-05
-1.15871e-05
-2.06375e-05
-9.98878e-07
-3.0876e-06
5.17641e-06
9.91161e-06
8.00807e-06
1.89215e-05
8.44366e-06
2.44878e-05
7.26371e-06
2.71353e-05
5.1882e-06
2.70495e-05
2.84305e-06
2.42037e-05
8.95579e-07
1.80631e-05
7.85584e-06
-1.54634e-06
2.7445e-06
-5.22398e-06
9.44053e-06
-1.02408e-05
1.49594e-05
-1.61027e-05
1.94543e-05
-2.27578e-05
2.33217e-05
-3.0399e-05
2.76723e-05
-3.9469e-05
3.31414e-05
-5.04659e-05
4.04465e-05
-6.39436e-05
4.97939e-05
-8.03788e-05
6.13572e-05
-0.000100186
7.49571e-05
-0.000123615
9.03669e-05
-0.000150738
0.000107079
-0.000181349
0.000124456
-0.000214951
0.000141601
-0.000250733
0.000157512
-0.000287656
0.000171113
-0.000324542
0.000181458
-0.000360232
0.000187806
-0.000393699
0.000189738
-0.000424155
0.000187149
-0.000451094
0.000180237
-0.000474296
0.000169406
-0.00049379
0.000155202
-0.000509798
0.000138209
-0.000522667
0.000119004
-0.000532809
9.80897e-05
-0.000540642
7.58968e-05
-0.000546558
5.27562e-05
-0.000550885
2.8924e-05
-0.000553867
4.57865e-06
-0.00055565
-2.01456e-05
-0.000556258
-4.51532e-05
-0.000555576
-7.03494e-05
-0.00055333
-9.5625e-05
-0.000549058
-0.000120808
-0.000542102
-0.000145632
-0.00053161
-0.000169672
-0.000516569
-0.000192296
-0.000495897
-0.000212613
-0.000468589
-0.000229451
-0.00043394
-0.000241385
-0.000391809
-0.000246857
-0.000342901
-0.000244387
-0.00028896
-0.000232926
-0.000232781
-0.000212251
-0.0001779
-0.000183367
-0.00012795
-0.000148641
-8.57878e-05
-0.000111559
-5.28154e-05
-7.58693e-05
-2.88467e-05
-4.46074e-05
-1.26366e-05
-1.93015e-05
-2.5364e-06
-1.89297e-07
2.99462e-06
1.33862e-05
5.27929e-06
2.22035e-05
5.36507e-06
2.70445e-05
4.14677e-06
2.82697e-05
2.37088e-06
2.59732e-05
7.62092e-07
1.96753e-05
8.61384e-06
-2.00669e-06
4.74588e-06
-6.58304e-06
1.40329e-05
-1.26983e-05
2.10637e-05
-1.9778e-05
2.65471e-05
-2.78316e-05
3.13685e-05
-3.71523e-05
3.70035e-05
-4.83119e-05
4.42974e-05
-6.19029e-05
5.40462e-05
-7.85431e-05
6.64329e-05
-9.87098e-05
8.15314e-05
-0.000122758
9.90054e-05
-0.000150783
0.000118399
-0.00018261
0.000138907
-0.000217678
0.00015953
-0.000255079
0.000179004
-0.000293588
0.000196026
-0.000331832
0.000209359
-0.00036844
0.00021807
-0.000402234
0.000221601
-0.000432337
0.000219844
-0.00045825
0.000213064
-0.000479835
0.000201824
-0.000497266
0.000186838
-0.000510938
0.000168876
-0.000521382
0.000148655
-0.000529178
0.000126801
-0.000534897
0.000103808
-0.000539052
8.00529e-05
-0.000542088
5.57912e-05
-0.000544361
3.11964e-05
-0.000546146
6.36226e-06
-0.000547631
-1.86614e-05
-0.000548919
-4.38678e-05
-0.000550006
-6.92647e-05
-0.000550763
-9.487e-05
-0.000550897
-0.000120677
-0.000549902
-0.00014663
-0.000547014
-0.000172563
-0.000541178
-0.000198135
-0.000531054
-0.00022274
-0.000515092
-0.000245417
-0.000491702
-0.000264779
-0.000459544
-0.000279019
-0.000417919
-0.000286016
-0.000367214
-0.000283633
-0.000309277
-0.000270189
-0.000247529
-0.000245114
-0.000186605
-0.000209564
-0.00013139
-0.000166771
-8.56804e-05
-0.000121577
-5.10939e-05
-7.91912e-05
-2.70309e-05
-4.33637e-05
-1.15595e-05
-1.56576e-05
-2.5095e-06
4.33634e-06
2.03634e-06
1.76615e-05
3.56121e-06
2.55186e-05
3.24372e-06
2.8592e-05
2.00794e-06
2.72064e-05
6.77583e-07
2.10116e-05
9.29052e-06
-2.51683e-06
7.25213e-06
-8.05478e-06
1.95857e-05
-1.53338e-05
2.83249e-05
-2.37146e-05
3.49382e-05
-3.32904e-05
4.09307e-05
-4.44674e-05
4.81865e-05
-5.79418e-05
5.77608e-05
-7.43741e-05
7.04814e-05
-9.43999e-05
8.64496e-05
-0.000118428
0.00010556
-0.00014666
0.000127229
-0.000178922
0.000150661
-0.000214665
0.000174643
-0.000252876
0.000197739
-0.000292197
0.00021832
-0.000331042
0.000234869
-0.000367848
0.00024616
-0.000401265
0.000251485
-0.000430343
0.000250675
-0.000454588
0.000244087
-0.000473967
0.000232441
-0.000488812
0.000216667
-0.000499706
0.000197731
-0.000507355
0.000176525
-0.000512488
0.000153788
-0.000515775
0.00013009
-0.000517792
0.000105827
-0.000519002
8.1266e-05
-0.000519767
5.65589e-05
-0.000520359
3.17914e-05
-0.000520984
6.99161e-06
-0.000521802
-1.7839e-05
-0.000522934
-4.27306e-05
-0.000524465
-6.7729e-05
-0.000526424
-9.2905e-05
-0.000528755
-0.00011834
-0.000531257
-0.000144122
-0.000533511
-0.000170303
-0.000534787
-0.000196853
-0.000533959
-0.000223562
-0.00052946
-0.000249912
-0.000519304
-0.000274932
-0.000501269
-0.000297052
-0.000473238
-0.000314048
-0.000433745
-0.000323127
-0.000382648
-0.000321289
-0.000321765
-0.000305999
-0.000255184
-0.000276147
-0.000188854
-0.000233101
-0.000129204
-0.000181229
-8.10618e-05
-0.000127333
-4.61003e-05
-7.83271e-05
-2.2985e-05
-3.87736e-05
-9.01315e-06
-9.63829e-06
-1.45392e-06
1.01023e-05
1.84601e-06
2.22152e-05
2.52771e-06
2.79117e-05
1.80023e-06
2.79291e-05
6.63724e-07
2.21509e-05
9.95109e-06
-3.05699e-06
1.03015e-05
-9.59503e-06
2.61464e-05
-1.80798e-05
3.67941e-05
-2.78227e-05
4.46991e-05
-3.90197e-05
5.21182e-05
-5.21912e-05
6.1372e-05
-6.81382e-05
7.37027e-05
-8.7544e-05
8.98987e-05
-0.000110994
0.000109898
-0.000138739
0.000133314
-0.000170716
0.000159206
-0.000206367
0.00018632
-0.000244677
0.000212955
-0.000284159
0.000237228
-0.00032308
0.000257242
-0.000359669
0.000271462
-0.000392425
0.000278918
-0.000420298
0.000279362
-0.000442815
0.000273194
-0.000460039
0.000261315
-0.000472475
0.000244879
-0.000480892
0.000225087
-0.000486174
0.000203013
-0.000489173
0.000179527
-0.000490636
0.000155251
-0.00049115
0.000130604
-0.000491147
0.000105823
-0.000490918
8.10366e-05
-0.000490654
5.62924e-05
-0.000490473
3.16088e-05
-0.000490465
6.98055e-06
-0.000490708
-1.75987e-05
-0.000491295
-4.21475e-05
-0.000492334
-6.66933e-05
-0.000493953
-9.12895e-05
-0.000496276
-0.00011602
-0.00049939
-0.000141011
-0.000503273
-0.000166423
-0.000507701
-0.000192426
-0.000512114
-0.00021915
-0.000515465
-0.000246561
-0.000516091
-0.000274305
-0.000511674
-0.000301468
-0.000499366
-0.000326355
-0.000476189
-0.000346304
-0.00043973
-0.000357749
-0.000389111
-0.00035662
-0.000325993
-0.000339266
-0.00025519
-0.000303904
-0.000184232
-0.000252186
-0.000121349
-0.000190214
-7.23641e-05
-0.00012731
-3.85513e-05
-7.25845e-05
-1.75273e-05
-3.06617e-05
-5.70888e-06
-1.7141e-06
-1.40836e-08
1.65199e-05
1.90666e-06
2.59943e-05
1.71638e-06
2.81173e-05
7.1176e-07
2.31603e-05
1.0662e-05
-3.62845e-06
1.39158e-05
-1.11954e-05
3.37336e-05
-2.09158e-05
4.64904e-05
-3.20673e-05
5.58645e-05
-4.49571e-05
6.49901e-05
-6.02063e-05
7.66293e-05
-7.8681e-05
9.21634e-05
-0.000101024
0.000112246
-0.00012769
0.000136552
-0.000158671
0.000164297
-0.000193542
0.000194068
-0.000231281
0.000224058
-0.000270397
0.000252062
-0.000309012
0.000275841
-0.000345212
0.000293436
-0.00037731
0.000303558
-0.000404162
0.000305765
-0.000425266
0.000300465
-0.000440781
0.000288705
-0.000451354
0.000271888
-0.000457945
0.000251467
-0.000461595
0.000228737
-0.000463282
0.000204699
-0.000463801
0.000180046
-0.000463737
0.000155187
-0.000463462
0.000130329
-0.000463179
0.000105541
-0.000462967
8.08257e-05
-0.000462835
5.61609e-05
-0.000462758
3.15335e-05
-0.000462717
6.94085e-06
-0.000462715
-1.75991e-05
-0.000462797
-4.20636e-05
-0.000463056
-6.64314e-05
-0.000463643
-9.07012e-05
-0.000464753
-0.000114908
-0.000466626
-0.000139137
-0.0004695
-0.000163547
-0.000473558
-0.000188366
-0.000478815
-0.000213892
-0.000484956
-0.000240419
-0.00049112
-0.000268139
-0.000495686
-0.000296899
-0.000496115
-0.000325923
-0.000489007
-0.00035341
-0.000470496
-0.000376259
-0.000437119
-0.000389998
-0.00038712
-0.000389268
-0.000321952
-0.000369076
-0.000247311
-0.000326829
-0.000172647
-0.000264879
-0.000108209
-0.000191747
-6.04203e-05
-0.000120374
-2.94768e-05
-6.1606e-05
-1.15522e-05
-1.96396e-05
-2.44654e-06
7.41235e-06
1.18224e-06
2.23661e-05
1.67905e-06
2.76169e-05
8.02974e-07
2.40389e-05
1.14624e-05
-4.19666e-06
1.81026e-05
-1.278e-05
4.23463e-05
-2.37233e-05
5.74134e-05
-3.62821e-05
6.84464e-05
-5.08724e-05
7.95683e-05
-6.81878e-05
9.39624e-05
-8.91054e-05
0.000113075
-0.000114154
0.000137309
-0.000143569
0.000165965
-0.000177
0.000197739
-0.00021359
0.000230657
-0.000251845
0.000262322
-0.000289885
0.000290104
-0.000325638
0.000311601
-0.000357274
0.000325074
-0.000383484
0.000329773
-0.000403715
0.000325998
-0.000418142
0.000314896
-0.000427541
0.000298106
-0.000433017
0.000277368
-0.000435776
0.000254227
-0.000436895
0.000229859
-0.000437226
0.00020503
-0.000437337
0.000180158
-0.000437546
0.000155395
-0.000437961
0.000130745
-0.000438564
0.000106142
-0.000439254
8.15151e-05
-0.000439912
5.68173e-05
-0.000440424
3.20437e-05
-0.000440709
7.22349e-06
-0.000440727
-1.75833e-05
-0.000440491
-4.23021e-05
-0.000440067
-6.68573e-05
-0.000439586
-9.11851e-05
-0.00043924
-0.000115257
-0.000439292
-0.000139087
-0.000440068
-0.000162773
-0.000441942
-0.000186494
-0.000445276
-0.00021056
-0.000450318
-0.000235379
-0.000457011
-0.000261447
-0.000464734
-0.000289177
-0.000471973
-0.000318684
-0.000476059
-0.000349323
-0.000473103
-0.000379213
-0.000458383
-0.000404716
-0.000427355
-0.000420294
-0.000377373
-0.000419059
-0.000309783
-0.00039442
-0.000231509
-0.000343155
-0.000154388
-0.000268866
-9.06847e-05
-0.000184076
-4.65349e-05
-0.000105753
-2.00461e-05
-4.61282e-05
-6.06334e-06
-6.56984e-06
4.10247e-08
1.62631e-05
1.55032e-06
2.61064e-05
8.96456e-07
2.46962e-05
1.23581e-05
-4.75597e-06
2.28408e-05
-1.43224e-05
5.1938e-05
-2.645e-05
6.95108e-05
-4.03781e-05
8.23918e-05
-5.66137e-05
9.57819e-05
-7.58789e-05
0.000113238
-9.8997e-05
0.000136176
-0.000126309
0.000164625
-0.000157759
0.000197401
-0.000192601
0.000232583
-0.000229541
0.000267586
-0.000266697
0.000299478
-0.000301974
0.000325371
-0.000333354
0.000342979
-0.000359371
0.000351083
-0.000379306
0.000349707
-0.000393306
0.000339993
-0.000402181
0.00032377
-0.000407169
0.00030309
-0.000409598
0.000279796
-0.000410664
0.00025529
-0.000411267
0.000230461
-0.000411982
0.000205742
-0.000413071
0.000181247
-0.000414575
0.000156898
-0.000416383
0.000132553
-0.000418315
0.000108073
-0.000420171
8.33721e-05
-0.000421775
5.84213e-05
-0.000422982
3.3252e-05
-0.000423698
7.94057e-06
-0.000423872
-1.7407e-05
-0.000423506
-4.2667e-05
-0.000422644
-6.7718e-05
-0.000421384
-9.24437e-05
-0.000419877
-0.000116762
-0.000418345
-0.000140618
-0.000417082
-0.000164034
-0.000416478
-0.000187097
-0.000416999
-0.000210039
-0.000419162
-0.000233215
-0.000423421
-0.000257188
-0.000429973
-0.000282626
-0.000438422
-0.000310235
-0.000447377
-0.000340368
-0.000454035
-0.000372554
-0.000454034
-0.000404716
-0.000441802
-0.000432523
-0.000411771
-0.000449091
-0.000360533
-0.000445658
-0.000289695
-0.000413998
-0.000208034
-0.000350529
-0.000130336
-0.000261777
-7.03828e-05
-0.000165702
-3.23186e-05
-8.41936e-05
-1.15481e-05
-2.73401e-05
-1.87497e-06
6.5885e-06
1.17603e-06
2.30538e-05
9.49671e-07
2.49237e-05
1.33062e-05
-5.25707e-06
2.80861e-05
-1.57164e-05
6.24328e-05
-2.893e-05
8.27e-05
-4.4119e-05
9.76086e-05
-6.18513e-05
0.0001135
-8.28265e-05
0.000134234
-0.000107749
0.000161091
-0.000136711
0.000193603
-0.000169321
0.000230008
-0.000204431
0.000267706
-0.000240376
0.000303531
-0.000275033
0.000334145
-0.000306317
0.000356656
-0.000332515
0.000369185
-0.000352721
0.000371291
-0.000366904
0.000363897
-0.000375857
0.000348948
-0.000380858
0.000328776
-0.000383362
0.000305595
-0.000384663
0.000281101
-0.000385748
0.000256376
-0.000387202
0.000231918
-0.000389275
0.000207816
-0.000391945
0.000183918
-0.000395039
0.000159992
-0.000398306
0.000135821
-0.000401495
0.000111262
-0.000404377
8.62543e-05
-0.000406775
6.08181e-05
-0.000408557
3.50331e-05
-0.000409643
9.02542e-06
-0.000409994
-1.70574e-05
-0.000409612
-4.30501e-05
-0.000408533
-6.87985e-05
-0.000406831
-9.41476e-05
-0.000404614
-0.000118981
-0.00040204
-0.000143193
-0.000399327
-0.000166749
-0.00039678
-0.000189645
-0.000394808
-0.000212012
-0.000393951
-0.000234073
-0.000394845
-0.000256295
-0.000398143
-0.000279328
-0.00040427
-0.000304109
-0.000413046
-0.000331593
-0.000423138
-0.000362461
-0.000431548
-0.000396306
-0.000433336
-0.000430732
-0.000422054
-0.000460372
-0.000391186
-0.000476522
-0.000336923
-0.000468263
-0.000261826
-0.000425628
-0.000177522
-0.000346084
-0.000102202
-0.00024102
-4.95053e-05
-0.000136888
-1.95427e-05
-5.72994e-05
-4.92341e-06
-8.03318e-06
4.0587e-07
1.7726e-05
9.20515e-07
2.44094e-05
1.42271e-05
-5.69132e-06
3.37567e-05
-1.69269e-05
7.36974e-05
-3.10937e-05
9.68316e-05
-4.73851e-05
0.00011392
-6.63877e-05
0.000132477
-8.87241e-05
0.000156581
-0.000114925
0.000187273
-0.000144797
0.00022348
-0.000177608
0.000262804
-0.000211863
0.000301962
-0.000245647
0.000337303
-0.000276783
0.00036528
-0.000303414
0.000383278
-0.000324315
0.000390085
-0.00033923
0.000386198
-0.000348768
0.000373433
-0.000354205
0.000354379
-0.000357047
0.000331617
-0.00035872
0.000307263
-0.000360292
0.000282672
-0.000362424
0.000258504
-0.000365362
0.000234854
-0.000369068
0.000211519
-0.000373314
0.000188164
-0.00037781
0.000164485
-0.000382251
0.000140263
-0.000386382
0.000115392
-0.000389993
8.98659e-05
-0.000392936
6.37608e-05
-0.000395107
3.72046e-05
-0.00039645
1.03691e-05
-0.000396942
-1.65643e-05
-0.000396594
-4.33962e-05
-0.000395443
-6.99484e-05
-0.000393552
-9.6038e-05
-0.000391002
-0.00012153
-0.000387907
-0.000146286
-0.000384412
-0.000170243
-0.000380719
-0.000193338
-0.00037711
-0.00021562
-0.000374002
-0.000237181
-0.000371967
-0.00025833
-0.000371756
-0.000279539
-0.000374188
-0.000301677
-0.00037992
-0.000325862
-0.000388934
-0.000353446
-0.000399892
-0.00038535
-0.000409419
-0.000421203
-0.000411849
-0.000457943
-0.000399739
-0.000488626
-0.000365819
-0.000502185
-0.000306469
-0.000484977
-0.000226387
-0.000426175
-0.000141386
-0.00032602
-7.27147e-05
-0.000205562
-3.05981e-05
-9.94064e-05
-9.41312e-06
-2.92256e-05
-8.79836e-07
9.19602e-06
7.82839e-07
2.27434e-05
1.50105e-05
-6.0015e-06
3.97454e-05
-1.7834e-05
8.55698e-05
-3.27572e-05
0.000111728
-4.992e-05
0.000131114
-6.98802e-05
0.000152422
-9.3136e-05
0.000179861
-0.000120007
0.000214136
-0.00015001
0.000253501
-0.00018211
0.0002949
-0.000214554
0.000334421
-0.000245329
0.000368077
-0.000272391
0.000392354
-0.000294276
0.000405164
-0.000310334
0.000406152
-0.000320929
0.000396795
-0.000327166
0.000379678
-0.000330582
0.000357797
-0.000332678
0.000333719
-0.000334669
0.000309256
-0.000337297
0.000285305
-0.000340877
0.000262085
-0.000345367
0.000239348
-0.000350532
0.000216684
-0.000356035
0.00019367
-0.000361552
0.000170002
-0.000366789
0.000145501
-0.000371524
0.000120127
-0.000375585
9.39276e-05
-0.000378858
6.70334e-05
-0.000381265
3.96118e-05
-0.00038277
1.1873e-05
-0.00038336
-1.59747e-05
-0.000383056
-4.37012e-05
-0.000381896
-7.11093e-05
-0.000379943
-9.79909e-05
-0.000377274
-0.0001242
-0.000373981
-0.000149579
-0.000370169
-0.000174057
-0.000365968
-0.000197538
-0.00036155
-0.00022004
-0.000357176
-0.000241555
-0.000353238
-0.000262268
-0.000350346
-0.000282431
-0.000349332
-0.000302692
-0.000351196
-0.000323999
-0.000356775
-0.000347867
-0.000366182
-0.000375945
-0.000377894
-0.000409489
-0.000387975
-0.000447865
-0.000389743
-0.000486853
-0.000374721
-0.000517208
-0.00033518
-0.000524509
-0.000268775
-0.00049259
-0.000184031
-0.000410759
-0.000102358
-0.000287249
-4.54293e-05
-0.000156315
-1.55562e-05
-5.91072e-05
-2.81522e-06
-3.53913e-06
5.24135e-07
1.93989e-05
1.55374e-05
-6.18497e-06
4.59076e-05
-1.84136e-05
9.78291e-05
-3.38658e-05
0.000127142
-5.16262e-05
0.000148895
-7.21755e-05
0.000172943
-9.58521e-05
0.000203549
-0.000122753
0.000241016
-0.00015213
0.000282884
-0.000182716
0.000325469
-0.000212624
0.00036433
-0.000239891
0.00039533
-0.000262753
0.000415215
-0.000280228
0.000422628
-0.000292236
0.000418158
-0.000299642
0.000404192
-0.000303849
0.000383883
-0.000306443
0.000360383
-0.000308745
0.000336018
-0.00031166
0.000312165
-0.00031559
0.000289233
-0.000320565
0.000267055
-0.000326342
0.000245124
-0.000332587
0.000222925
-0.000338938
0.00020002
-0.000345092
0.000176154
-0.0003508
0.000151209
-0.000355884
0.00012521
-0.000360208
9.82511e-05
-0.000363682
7.05078e-05
-0.000366246
4.21755e-05
-0.000367869
1.34963e-05
-0.000368544
-1.5299e-05
-0.000368294
-4.39503e-05