/*--------------------------------*- C++ -*----------------------------------*\
| =========                 |                                                 |
| \\      /  F ield         | OpenFOAM: The Open Source CFD Toolbox           |
|  \\    /   O peration     | Version:  2406                                  |
|   \\  /    A nd           | Website:  www.openfoam.com                      |
|    \\/     M anipulation  |                                                 |
\*---------------------------------------------------------------------------*/
FoamFile
{
    version     2.0;
    format      ascii;
    arch        "LSB;label=32;scalar=64";
    class       volVectorField;
    location    "4.8";
    object      U;
}
// * * * * * * * * * * * * * * * * * * * * * * * * * * * * * * * * * * * * * //

dimensions      [0 1 -1 0 0 0 0];

internalField   nonuniform List<vector> 
3600
(
(1.02508e-05 -1.00945e-05 0)
(-3.19257e-05 1.61643e-05 0)
(-0.000138481 3.56977e-05 0)
(-0.000289164 4.89578e-05 0)
(-0.000469295 5.35649e-05 0)
(-0.000657892 5.57424e-05 0)
(-0.000855079 5.51982e-05 0)
(-0.00104873 5.47475e-05 0)
(-0.00124464 5.35752e-05 0)
(-0.00143494 5.28839e-05 0)
(-0.00162574 5.18822e-05 0)
(-0.00181107 5.1196e-05 0)
(-0.0019958 5.02421e-05 0)
(-0.00217516 4.94209e-05 0)
(-0.00235266 4.83314e-05 0)
(-0.00252446 4.72513e-05 0)
(-0.00269296 4.59014e-05 0)
(-0.00285502 4.44757e-05 0)
(-0.00301219 4.27737e-05 0)
(-0.00316185 4.09298e-05 0)
(-0.00330486 3.87975e-05 0)
(-0.003439 3.647e-05 0)
(-0.00356459 3.38404e-05 0)
(-0.00367972 3.09751e-05 0)
(-0.00378431 2.77987e-05 0)
(-0.00387667 2.4362e-05 0)
(-0.00395648 2.06167e-05 0)
(-0.00402227 1.6608e-05 0)
(-0.00407356 1.23126e-05 0)
(-0.00410915 7.77722e-06 0)
(-0.00412854 3.00289e-06 0)
(-0.00413085 -1.95623e-06 0)
(-0.00411567 -7.07692e-06 0)
(-0.00408253 -1.22944e-05 0)
(-0.0040312 -1.7567e-05 0)
(-0.00396172 -2.28194e-05 0)
(-0.00387411 -2.79989e-05 0)
(-0.00376899 -3.30223e-05 0)
(-0.00364665 -3.78371e-05 0)
(-0.00350831 -4.2358e-05 0)
(-0.00335448 -4.65467e-05 0)
(-0.00318701 -5.03208e-05 0)
(-0.00300646 -5.36738e-05 0)
(-0.00281527 -5.65281e-05 0)
(-0.00261385 -5.89266e-05 0)
(-0.00240516 -6.07909e-05 0)
(-0.00218923 -6.22313e-05 0)
(-0.00196947 -6.31465e-05 0)
(-0.0017453 -6.37259e-05 0)
(-0.00152068 -6.37844e-05 0)
(-0.00129445 -6.35741e-05 0)
(-0.00107155 -6.26629e-05 0)
(-0.000851011 -6.12664e-05 0)
(-0.000640049 -5.83208e-05 0)
(-0.000440227 -5.38016e-05 0)
(-0.000263368 -4.53984e-05 0)
(-0.000117363 -3.32131e-05 0)
(-1.78211e-05 -1.43918e-05 0)
(2.43351e-05 4.98204e-06 0)
(1.66968e-05 1.75235e-05 0)
(-1.66199e-05 3.23238e-05 0)
(-0.000171458 0.000168814 0)
(-0.000454809 0.000268764 0)
(-0.000820956 0.000339369 0)
(-0.00125077 0.000374052 0)
(-0.00170526 0.00039298 0)
(-0.00218129 0.000397641 0)
(-0.00265618 0.000398424 0)
(-0.00313588 0.000394683 0)
(-0.00360689 0.00039076 0)
(-0.00407684 0.00038511 0)
(-0.00453635 0.000379598 0)
(-0.00499172 0.000372839 0)
(-0.00543563 0.000365792 0)
(-0.00587253 0.000357451 0)
(-0.0062964 0.000348391 0)
(-0.00671005 0.000337904 0)
(-0.00710841 0.000326348 0)
(-0.00749295 0.000313212 0)
(-0.00785927 0.000298715 0)
(-0.00820781 0.000282483 0)
(-0.00853465 0.000264652 0)
(-0.00883943 0.000244955 0)
(-0.00911858 0.000223489 0)
(-0.00937118 0.000200083 0)
(-0.00959401 0.000174832 0)
(-0.00978576 0.000147665 0)
(-0.0099436 0.000118708 0)
(-0.0100661 8.79947e-05 0)
(-0.0101509 5.57076e-05 0)
(-0.0101967 2.19925e-05 0)
(-0.0102018 -1.28953e-05 0)
(-0.0101653 -4.87001e-05 0)
(-0.0100861 -8.50911e-05 0)
(-0.00996393 -0.000121718 0)
(-0.00979885 -0.00015819 0)
(-0.00959112 -0.000194096 0)
(-0.00934194 -0.000229017 0)
(-0.00905226 -0.000262532 0)
(-0.00872447 -0.000294238 0)
(-0.0083601 -0.000323772 0)
(-0.00796267 -0.000350793 0)
(-0.00753405 -0.000375064 0)
(-0.00707875 -0.000396335 0)
(-0.0065986 -0.000414558 0)
(-0.00609895 -0.000429565 0)
(-0.00558116 -0.000441529 0)
(-0.00505132 -0.000450257 0)
(-0.00450999 -0.000456098 0)
(-0.00396426 -0.000458503 0)
(-0.00341415 -0.000457736 0)
(-0.00286891 -0.000452074 0)
(-0.00232973 -0.000441041 0)
(-0.00181098 -0.000420182 0)
(-0.00131912 -0.00038763 0)
(-0.000877876 -0.000334879 0)
(-0.000502877 -0.000261837 0)
(-0.000224272 -0.000161681 0)
(-5.51577e-05 -5.7888e-05 0)
(4.1184e-06 2.39643e-05 0)
(-3.90484e-05 0.000143748 0)
(-0.000285202 0.000456789 0)
(-0.000710571 0.000685156 0)
(-0.00123857 0.000843757 0)
(-0.00185104 0.000930199 0)
(-0.00249603 0.00097762 0)
(-0.00317076 0.000993866 0)
(-0.00384584 0.000997562 0)
(-0.0045275 0.00099083 0)
(-0.00519877 0.000981366 0)
(-0.00586766 0.000968022 0)
(-0.00652283 0.000953697 0)
(-0.00717085 0.000936675 0)
(-0.00780306 0.000918173 0)
(-0.00842395 0.000896803 0)
(-0.00902641 0.000873169 0)
(-0.00961304 0.000846258 0)
(-0.0101778 0.000816376 0)
(-0.0107217 0.00078278 0)
(-0.0112395 0.000745607 0)
(-0.0117309 0.000704307 0)
(-0.0121913 0.000658936 0)
(-0.0126194 0.000609111 0)
(-0.013011 0.000554879 0)
(-0.0133643 0.000496025 0)
(-0.0136752 0.000432656 0)
(-0.0139418 0.000364748 0)
(-0.0141603 0.000292523 0)
(-0.0143289 0.000216176 0)
(-0.0144445 0.000136091 0)
(-0.0145053 5.27009e-05 0)
(-0.0145091 -3.34241e-05 0)
(-0.0144546 -0.000121613 0)
(-0.0143409 -0.000211115 0)
(-0.0141675 -0.000301058 0)
(-0.0139345 -0.000390557 0)
(-0.0136425 -0.000478608 0)
(-0.013293 -0.000564278 0)
(-0.0128877 -0.000646544 0)
(-0.0124295 -0.000724532 0)
(-0.0119208 -0.000797339 0)
(-0.0113661 -0.000864266 0)
(-0.0107682 -0.000924666 0)
(-0.0101328 -0.000978093 0)
(-0.00946273 -0.00102427 0)
(-0.00876462 -0.00106299 0)
(-0.00804085 -0.00109436 0)
(-0.00729895 -0.00111822 0)
(-0.00654044 -0.00113485 0)
(-0.0057741 -0.00114339 0)
(-0.00500095 -0.00114354 0)
(-0.00423271 -0.001132 0)
(-0.00347196 -0.00110621 0)
(-0.00273733 -0.00105742 0)
(-0.00203746 -0.000979384 0)
(-0.00140344 -0.000856628 0)
(-0.000853099 -0.000686331 0)
(-0.000428047 -0.000460868 0)
(-0.000140585 -0.000219667 0)
(-1.17714e-05 -1.24518e-05 0)
(-5.61679e-05 0.000309733 0)
(-0.00037495 0.000845295 0)
(-0.000909327 0.00122424 0)
(-0.00155563 0.00148011 0)
(-0.00229801 0.00162531 0)
(-0.00307512 0.00170529 0)
(-0.00388706 0.00173628 0)
(-0.00469963 0.00174421 0)
(-0.0055204 0.00173483 0)
(-0.00632951 0.00171897 0)
(-0.00713559 0.00169634 0)
(-0.00792555 0.00167087 0)
(-0.00870624 0.00164071 0)
(-0.00946783 0.00160734 0)
(-0.0102149 0.00156905 0)
(-0.0109394 0.00152645 0)
(-0.0116438 0.00147825 0)
(-0.0123214 0.00142467 0)
(-0.0129729 0.00136473 0)
(-0.0135923 0.00129847 0)
(-0.0141792 0.00122515 0)
(-0.014728 0.00114475 0)
(-0.0152374 0.00105675 0)
(-0.0157021 0.000961178 0)
(-0.0161202 0.000857767 0)
(-0.016487 0.000746664 0)
(-0.0168001 0.000627922 0)
(-0.0170554 0.0005019 0)
(-0.0172504 0.000369006 0)
(-0.0173818 0.000229886 0)
(-0.0174477 8.53319e-05 0)
(-0.0174454 -6.36926e-05 0)
(-0.0173739 -0.000216014 0)
(-0.0172318 -0.00037037 0)
(-0.0170189 -0.000525268 0)
(-0.0167355 -0.000679231 0)
(-0.0163823 -0.000830567 0)
(-0.0159614 -0.000977734 0)
(-0.0154747 -0.00111902 0)
(-0.0149259 -0.00125301 0)
(-0.0143178 -0.00137817 0)
(-0.0136556 -0.00149341 0)
(-0.0129429 -0.00159762 0)
(-0.0121861 -0.00169014 0)
(-0.0113887 -0.0017704 0)
(-0.0105584 -0.0018382 0)
(-0.00969807 -0.00189351 0)
(-0.00881628 -0.00193621 0)
(-0.0079151 -0.00196642 0)
(-0.00700454 -0.00198294 0)
(-0.00608609 -0.00198465 0)
(-0.0051732 -0.00196668 0)
(-0.00426883 -0.00192386 0)
(-0.00339433 -0.00184335 0)
(-0.00255827 -0.00171369 0)
(-0.00179611 -0.00151335 0)
(-0.00112441 -0.00123485 0)
(-0.000592892 -0.000870673 0)
(-0.000212381 -0.000467581 0)
(-2.51832e-05 -9.3693e-05 0)
(-6.51008e-05 0.000515657 0)
(-0.000431821 0.00131641 0)
(-0.00104312 0.00186944 0)
(-0.00177421 0.00223391 0)
(-0.00260959 0.00244487 0)
(-0.00347956 0.00256064 0)
(-0.00438697 0.00260845 0)
(-0.00529386 0.002621 0)
(-0.00620968 0.00260877 0)
(-0.00711235 0.00258533 0)
(-0.00801151 0.00255186 0)
(-0.00889261 0.00251303 0)
(-0.00976299 0.00246719 0)
(-0.0106118 0.00241589 0)
(-0.0114439 0.00235727 0)
(-0.0122504 0.00229183 0)
(-0.0130339 0.00221805 0)
(-0.013787 0.00213602 0)
(-0.0145104 0.00204453 0)
(-0.0151974 0.00194348 0)
(-0.0158475 0.00183195 0)
(-0.0164546 0.00170981 0)
(-0.0170172 0.00157643 0)
(-0.0175295 0.00143178 0)
(-0.0179893 0.00127558 0)
(-0.0183916 0.00110803 0)
(-0.0187335 0.000929286 0)
(-0.0190108 0.000739873 0)
(-0.0192207 0.000540469 0)
(-0.0193595 0.000332028 0)
(-0.0194252 0.00011578 0)
(-0.0194152 -0.00010685 0)
(-0.0193281 -0.000334087 0)
(-0.0191626 -0.000564077 0)
(-0.0189187 -0.00079459 0)
(-0.0185967 -0.00102347 0)
(-0.0181977 -0.00124822 0)
(-0.017724 -0.0014666 0)
(-0.0171779 -0.0016761 0)
(-0.0165635 -0.00187468 0)
(-0.0158843 -0.00206013 0)
(-0.015146 -0.00223088 0)
(-0.0143527 -0.0023853 0)
(-0.0135116 -0.00252251 0)
(-0.0126268 -0.00264165 0)
(-0.0117066 -0.00274252 0)
(-0.0107544 -0.00282494 0)
(-0.00977968 -0.00288892 0)
(-0.0087847 -0.00293426 0)
(-0.00778036 -0.0029596 0)
(-0.00676824 -0.0029627 0)
(-0.00576292 -0.00293724 0)
(-0.00476709 -0.00287487 0)
(-0.00380381 -0.00275889 0)
(-0.00288086 -0.00257155 0)
(-0.00203677 -0.00228571 0)
(-0.00128687 -0.00188714 0)
(-0.000687644 -0.00136866 0)
(-0.000249902 -0.000779142 0)
(-3.04955e-05 -0.000203173 0)
(-7.10865e-05 0.000743431 0)
(-0.000471476 0.00183655 0)
(-0.00113603 0.00257629 0)
(-0.00192608 0.00305343 0)
(-0.00282552 0.00333102 0)
(-0.00375863 0.00348208 0)
(-0.00473053 0.0035463 0)
(-0.0057005 0.00356288 0)
(-0.00667986 0.00354731 0)
(-0.00764484 0.00351556 0)
(-0.00860616 0.00347036 0)
(-0.00954808 0.00341698 0)
(-0.0104785 0.00335405 0)
(-0.0113858 0.00328314 0)
(-0.0122749 0.00320227 0)
(-0.0131366 0.00311184 0)
(-0.0139734 0.00301011 0)
(-0.0147773 0.002897 0)
(-0.0155492 0.00277111 0)
(-0.016282 0.00263219 0)
(-0.016975 0.00247914 0)
(-0.0176217 0.0023117 0)
(-0.0182204 0.00212916 0)
(-0.0187651 0.0019314 0)
(-0.0192533 0.00171818 0)
(-0.0196796 0.0014897 0)
(-0.0200411 0.00124627 0)
(-0.0203329 0.000988595 0)
(-0.0205524 0.000717643 0)
(-0.0206956 0.000434709 0)
(-0.0207601 0.000141496 0)
(-0.0207432 -0.000160065 0)
(-0.0206435 -0.000467551 0)
(-0.0204598 -0.000778457 0)
(-0.0201918 -0.00108976 0)
(-0.0198401 -0.00139857 0)
(-0.0194061 -0.00170149 0)
(-0.0188921 -0.00199556 0)
(-0.0183009 -0.00227737 0)
(-0.017637 -0.00254424 0)
(-0.0169044 -0.00279318 0)
(-0.0161093 -0.00302218 0)
(-0.0152566 -0.00322901 0)
(-0.0143538 -0.00341262 0)
(-0.0134059 -0.00357178 0)
(-0.0124218 -0.0037064 0)
(-0.0114054 -0.00381608 0)
(-0.0103667 -0.00390109 0)
(-0.00930849 -0.00396091 0)
(-0.00824228 -0.00399415 0)
(-0.00716969 -0.00399738 0)
(-0.00610607 -0.00396313 0)
(-0.0050537 -0.00387973 0)
(-0.00403669 -0.00372704 0)
(-0.00306191 -0.00348062 0)
(-0.00216974 -0.00310792 0)
(-0.00137458 -0.00258646 0)
(-0.000737014 -0.00190827 0)
(-0.000268344 -0.001121 0)
(-3.24802e-05 -0.000323975 0)
(-7.37729e-05 0.000988536 0)
(-0.000494899 0.00239629 0)
(-0.00119438 0.00333515 0)
(-0.00202466 0.00393137 0)
(-0.00296855 0.00427844 0)
(-0.00394559 0.0044657 0)
(-0.00496227 0.00454656 0)
(-0.00597566 0.00456688 0)
(-0.00699868 0.00454765 0)
(-0.00800626 0.00450698 0)
(-0.00901021 0.0044494 0)
(-0.00999386 0.00438058 0)
(-0.0109658 0.00429956 0)
(-0.0119136 0.0042078 0)
(-0.0128428 0.00410332 0)
(-0.0137434 0.00398627 0)
(-0.0146182 0.00385477 0)
(-0.015459 0.00370853 0)
(-0.0162664 0.00354598 0)
(-0.0170332 0.00336662 0)
(-0.0177585 0.00316923 0)
(-0.0184356 0.00295337 0)
(-0.0190625 0.00271824 0)
(-0.0196331 0.00246364 0)
(-0.0201445 0.00218931 0)
(-0.0205911 0.00189549 0)
(-0.0209697 0.00158264 0)
(-0.0212751 0.00125163 0)
(-0.0215044 0.000903753 0)
(-0.0216533 0.000540659 0)
(-0.0217192 0.00016457 0)
(-0.021699 -0.000222041 0)
(-0.0215914 -0.000616028 0)
(-0.0213947 -0.00101418 0)
(-0.0211088 -0.00141258 0)
(-0.0207342 -0.00180751 0)
(-0.0202724 -0.00219461 0)
(-0.0197259 -0.00257005 0)
(-0.019098 -0.00292945 0)
(-0.0183934 -0.0032694 0)
(-0.0176166 -0.003586 0)
(-0.0167746 -0.00387677 0)
(-0.0158726 -0.0041388 0)
(-0.0149192 -0.00437087 0)
(-0.0139198 -0.00457134 0)
(-0.0128842 -0.0047403 0)
(-0.0118168 -0.00487712 0)
(-0.0107284 -0.00498247 0)
(-0.00962219 -0.00505542 0)
(-0.00851015 -0.00509481 0)
(-0.00739406 -0.00509591 0)
(-0.00628979 -0.00505031 0)
(-0.00519938 -0.0049428 0)
(-0.00414761 -0.00474992 0)
(-0.00314095 -0.00444011 0)
(-0.00222109 -0.00397526 0)
(-0.0014024 -0.00332395 0)
(-0.000747811 -0.00247693 0)
(-0.000269074 -0.00148078 0)
(-3.10892e-05 -0.000449933 0)
(-7.58883e-05 0.00124127 0)
(-0.000511609 0.00297664 0)
(-0.0012348 0.00412143 0)
(-0.00209285 0.0048397 0)
(-0.00306738 0.00525661 0)
(-0.00407487 0.00547954 0)
(-0.00512263 0.00557625 0)
(-0.00616622 0.00559965 0)
(-0.0072198 0.00557627 0)
(-0.00825734 0.00552635 0)
(-0.00929162 0.00545615 0)
(-0.0103053 0.00537166 0)
(-0.0113075 0.00527233 0)
(-0.0122854 0.00515944 0)
(-0.0132448 0.005031 0)
(-0.0141753 0.00488692 0)
(-0.01508 0.00472519 0)
(-0.0159502 0.00454524 0)
(-0.0167868 0.00434534 0)
(-0.0175821 0.00412475 0)
(-0.0183353 0.00388209 0)
(-0.0190393 0.00361672 0)
(-0.0196922 0.00332773 0)
(-0.0202872 0.0030148 0)
(-0.0208216 0.00267766 0)
(-0.021289 0.00231655 0)
(-0.0216862 0.00193205 0)
(-0.0220075 0.0015252 0)
(-0.0222497 0.00109761 0)
(-0.0224079 0.000651271 0)
(-0.0224793 0.000188953 0)
(-0.0224605 -0.000286309 0)
(-0.0223496 -0.000770602 0)
(-0.022145 -0.00125995 0)
(-0.0218461 -0.00174947 0)
(-0.0214535 -0.00223456 0)
(-0.0209686 -0.00270973 0)
(-0.0203942 -0.00317025 0)
(-0.0197337 -0.0036106 0)
(-0.0189923 -0.00402656 0)
(-0.0181752 -0.00441324 0)
(-0.0172898 -0.00476759 0)
(-0.0163423 -0.00508594 0)
(-0.015342 -0.00536692 0)
(-0.0142953 -0.0056084 0)
(-0.0132125 -0.00581077 0)
(-0.0120993 -0.00597312 0)
(-0.0109669 -0.00609671 0)
(-0.00981915 -0.00618026 0)
(-0.00866864 -0.006223 0)
(-0.00751744 -0.00621895 0)
(-0.00638179 -0.00615902 0)
(-0.00526375 -0.00602443 0)
(-0.00418846 -0.00578853 0)
(-0.00316238 -0.00541245 0)
(-0.00222779 -0.00485229 0)
(-0.00139939 -0.00406742 0)
(-0.000740608 -0.0030469 0)
(-0.000263225 -0.0018375 0)
(-2.92333e-05 -0.000570666 0)
(-7.68065e-05 0.00150146 0)
(-0.000521978 0.00357493 0)
(-0.00126143 0.00493202 0)
(-0.00213925 0.00577635 0)
(-0.00313617 0.006265 0)
(-0.00416636 0.00652455 0)
(-0.0052376 0.00663744 0)
(-0.00630425 0.00666409 0)
(-0.00738139 0.00663672 0)
(-0.00844228 0.00657772 0)
(-0.00950053 0.00649514 0)
(-0.0105383 0.00639522 0)
(-0.0115653 0.00627784 0)
(-0.0125682 0.00614404 0)
(-0.0135534 0.00599186 0)
(-0.0145101 0.00582086 0)
(-0.0154415 0.00562894 0)
(-0.0163389 0.0054152 0)
(-0.0172031 0.00517772 0)
(-0.0180261 0.00491549 0)
(-0.0188073 0.00462694 0)
(-0.0195391 0.00431119 0)
(-0.0202194 0.00396717 0)
(-0.0208413 0.00359441 0)
(-0.0214016 0.00319258 0)
(-0.0218936 0.00276189 0)
(-0.0223136 0.002303 0)
(-0.0226555 0.00181709 0)
(-0.0229154 0.00130606 0)
(-0.0230882 0.000772269 0)
(-0.0231703 0.000219032 0)
(-0.0231579 -0.000350023 0)
(-0.0230486 -0.000930149 0)
(-0.0228402 -0.00151654 0)
(-0.0225322 -0.00210324 0)
(-0.0221246 -0.00268461 0)
(-0.0216189 -0.00325392 0)
(-0.0210179 -0.00380537 0)
(-0.0203255 -0.00433213 0)
(-0.0195471 -0.00482903 0)
(-0.0186887 -0.00528999 0)
(-0.0177584 -0.00571131 0)
(-0.0167635 -0.00608842 0)
(-0.0157141 -0.00641978 0)
(-0.0146178 -0.0067027 0)
(-0.0134859 -0.00693792 0)
(-0.0123251 -0.00712431 0)
(-0.0111476 -0.00726385 0)
(-0.00995796 -0.00735493 0)
(-0.0087694 -0.00739741 0)
(-0.00758453 -0.00738411 0)
(-0.00641984 -0.00730537 0)
(-0.00527777 -0.00713881 0)
(-0.00418359 -0.00685459 0)
(-0.00314421 -0.00640638 0)
(-0.00220208 -0.00574439 0)
(-0.00137258 -0.00481905 0)
(-0.000718427 -0.00361816 0)
(-0.000250767 -0.00219102 0)
(-2.63711e-05 -0.000687967 0)
(-7.7985e-05 0.00176556 0)
(-0.000530954 0.00418381 0)
(-0.00128295 0.00575707 0)
(-0.0021761 0.00672969 0)
(-0.00319035 0.00729078 0)
(-0.00423842 0.00758713 0)
(-0.00532838 0.00771606 0)
(-0.00641377 0.00774594 0)
(-0.00751038 0.00771467 0)
(-0.00859099 0.00764687 0)
(-0.0096699 0.00755236 0)
(-0.0107289 0.00743759 0)
(-0.0117782 0.00730284 0)
(-0.0128044 0.00714889 0)
(-0.0138139 0.00697375 0)
(-0.0147959 0.00677667 0)
(-0.0157539 0.00655538 0)
(-0.0166787 0.00630865 0)
(-0.0175715 0.00603436 0)
(-0.0184239 0.00573115 0)
(-0.0192352 0.00539724 0)
(-0.0199977 0.00503144 0)
(-0.0207091 0.00463251 0)
(-0.0213619 0.00419973 0)
(-0.0219526 0.00373268 0)
(-0.0224742 0.00323144 0)
(-0.0229223 0.00269675 0)
(-0.0232903 0.00212984 0)
(-0.0235737 0.0015329 0)
(-0.0237664 0.000908581 0)
(-0.0238646 0.000260777 0)
(-0.0238634 -0.000406288 0)
(-0.02376 -0.00108697 0)
(-0.0235514 -0.00177559 0)
(-0.0232368 -0.00246495 0)
(-0.0228158 -0.0031483 0)
(-0.0222899 -0.00381747 0)
(-0.0216617 -0.00446541 0)
(-0.0209355 -0.00508376 0)
(-0.0201172 -0.00566624 0)
(-0.0192137 -0.00620533 0)
(-0.0182339 -0.00669661 0)
(-0.0171863 -0.00713438 0)
(-0.0160821 -0.00751692 0)
(-0.0149305 -0.0078409 0)
(-0.0137439 -0.00810754 0)
(-0.0125306 -0.00831543 0)
(-0.0113035 -0.00846752 0)
(-0.0100686 -0.00856197 0)
(-0.00883966 -0.00859956 0)
(-0.00762002 -0.00857194 0)
(-0.00642639 -0.00846917 0)
(-0.00526181 -0.00826527 0)
(-0.00415142 -0.00792727 0)
(-0.00310281 -0.00740133 0)
(-0.00215808 -0.00663174 0)
(-0.00133324 -0.00556043 0)
(-0.000689263 -0.00417467 0)
(-0.000236049 -0.00252873 0)
(-2.36279e-05 -0.00079509 0)
(-7.86665e-05 0.00203323 0)
(-0.000537842 0.00480182 0)
(-0.00130038 0.00659495 0)
(-0.00220651 0.00769852 0)
(-0.00323578 0.00833366 0)
(-0.00429965 0.008668 0)
(-0.00540646 0.0088138 0)
(-0.00650908 0.00884771 0)
(-0.00762387 0.00881334 0)
(-0.00872325 0.00873769 0)
(-0.00982211 0.00863228 0)
(-0.0109019 0.00850382 0)
(-0.0119736 0.00835294 0)
(-0.0130232 0.00818014 0)
(-0.0140579 0.00798342 0)
(-0.0150664 0.00776164 0)
(-0.0160526 0.00751235 0)
(-0.0170071 0.00723392 0)
(-0.0179312 0.006924 0)
(-0.0188163 0.00658085 0)
(-0.0196617 0.0062024 0)
(-0.0204593 0.00578709 0)
(-0.0212065 0.00533342 0)
(-0.0218956 0.00484038 0)
(-0.0225226 0.00430736 0)
(-0.0230798 0.00373425 0)
(-0.0235623 0.00312177 0)
(-0.0239627 0.00247115 0)
(-0.0242758 0.0017848 0)
(-0.0244947 0.00106566 0)
(-0.0246145 0.000318184 0)
(-0.0246295 -0.000452798 0)
(-0.0245361 -0.00124068 0)
(-0.0243305 -0.00203879 0)
(-0.0240113 -0.00283856 0)
(-0.0235774 -0.00363197 0)
(-0.0230303 -0.00440913 0)
(-0.0223724 -0.00516154 0)
(-0.0216086 -0.00587901 0)
(-0.0207451 -0.00655389 0)
(-0.0197898 -0.00717697 0)
(-0.0187526 -0.00774285 0)
(-0.0176438 -0.00824453 0)
(-0.0164758 -0.00868002 0)
(-0.0152598 -0.00904525 0)
(-0.0140097 -0.00934199 0)
(-0.0127355 -0.00956862 0)
(-0.0114514 -0.00972929 0)
(-0.0101649 -0.00982203 0)
(-0.00889037 -0.00984883 0)
(-0.00763237 -0.00980031 0)
(-0.00640763 -0.00966651 0)
(-0.00522 -0.0094178 0)
(-0.00409431 -0.00901827 0)
(-0.00303895 -0.00840653 0)
(-0.00209529 -0.00752118 0)
(-0.00127991 -0.00629623 0)
(-0.000651283 -0.00471985 0)
(-0.000217331 -0.00285375 0)
(-2.02633e-05 -0.000895314 0)
(-7.98119e-05 0.00230535 0)
(-0.000545247 0.00542948 0)
(-0.00131765 0.00744545 0)
(-0.00223585 0.00868188 0)
(-0.00327895 0.00939207 0)
(-0.00435757 0.0097651 0)
(-0.00548025 0.00992824 0)
(-0.0065994 0.00996675 0)
(-0.00773188 0.00992993 0)
(-0.00884987 0.00984728 0)
(-0.00996878 0.00973196 0)
(-0.01107 0.009591 0)
(-0.0121647 0.00942534 0)
(-0.0132391 0.00923519 0)
(-0.0143004 0.00901848 0)
(-0.0153375 0.00877367 0)
(-0.0163545 0.00849811 0)
(-0.0173417 0.00818975 0)
(-0.0183005 0.00784594 0)
(-0.0192224 0.00746448 0)
(-0.0201063 0.00704298 0)
(-0.0209439 0.00657942 0)
(-0.0217326 0.00607199 0)
(-0.0224638 0.00551923 0)
(-0.0231334 0.00492029 0)
(-0.0237328 0.00427474 0)
(-0.0242566 0.00358321 0)
(-0.0246963 0.0028468 0)
(-0.0250458 0.00206811 0)
(-0.0252971 0.00125025 0)
(-0.0254445 0.000398224 0)
(-0.0254809 -0.000482517 0)
(-0.0254017 -0.00138435 0)
(-0.0252021 -0.00229952 0)
(-0.0248799 -0.00321795 0)
(-0.0244332 -0.0041301 0)
(-0.0238632 -0.00502411 0)
(-0.0231722 -0.00588975 0)
(-0.0223654 -0.00671464 0)
(-0.0214496 -0.00748945 0)
(-0.0204341 -0.00820288 0)
(-0.0193298 -0.00884834 0)
(-0.0181491 -0.00941721 0)
(-0.0169061 -0.00990717 0)
(-0.0156145 -0.0103132 0)
(-0.0142898 -0.0106379 0)
(-0.0129446 -0.0108793 0)
(-0.0115945 -0.0110432 0)
(-0.0102489 -0.0111276 0)
(-0.00892293 -0.0111362 0)
(-0.00762258 -0.0110587 0)
(-0.00636454 -0.0108855 0)
(-0.00515355 -0.0105834 0)
(-0.00401384 -0.0101138 0)
(-0.00295458 -0.00940776 0)
(-0.0020159 -0.0083985 0)
(-0.00121478 -0.0070128 0)
(-0.00060633 -0.00524129 0)
(-0.000195925 -0.0031558 0)
(-1.6741e-05 -0.000982618 0)
(-8.06076e-05 0.00257909 0)
(-0.00055189 0.0060626 0)
(-0.0013341 0.00830424 0)
(-0.00226417 0.00967562 0)
(-0.0033211 0.0104624 0)
(-0.00441454 0.0108754 0)
(-0.00555336 0.0110571 0)
(-0.0066895 0.0111015 0)
(-0.00784034 0.0110636 0)
(-0.00897781 0.0109755 0)
(-0.0101179 0.010852 0)
(-0.0112418 0.0107004 0)
(-0.0123612 0.010522 0)
(-0.0134623 0.0103167 0)
(-0.0145526 0.0100823 0)
(-0.015621 0.00981686 0)
(-0.0166717 0.00951746 0)
(-0.0176951 0.00918157 0)
(-0.0186928 0.0088062 0)
(-0.0196559 0.00838863 0)
(-0.0205834 0.00792607 0)
(-0.0214667 0.00741594 0)
(-0.0223028 0.006856 0)
(-0.0230829 0.00624426 0)
(-0.023802 0.00557949 0)
(-0.024451 0.00486083 0)
(-0.0250235 0.00408866 0)
(-0.0255101 0.00326387 0)
(-0.0259037 0.0023891 0)
(-0.0261948 0.0014676 0)
(-0.0263764 0.000504854 0)
(-0.0264401 -0.00049308 0)
(-0.02638 -0.00151749 0)
(-0.0261898 -0.00255945 0)
(-0.0258663 -0.00360714 0)
(-0.0254067 -0.00464928 0)
(-0.0248116 -0.00567169 0)
(-0.0240831 -0.00666203 0)
(-0.0232268 -0.00760527 0)
(-0.0222501 -0.00848999 0)
(-0.0211636 -0.00930231 0)
(-0.01998 -0.0100341 0)
(-0.018714 -0.0106748 0)
(-0.017382 -0.0112215 0)
(-0.0160005 -0.0116683 0)
(-0.0145876 -0.0120184 0)
(-0.0131587 -0.0122698 0)
(-0.0117312 -0.0124303 0)
(-0.0103172 -0.012498 0)
(-0.00893255 -0.012479 0)
(-0.0075849 -0.0123622 0)
(-0.00629078 -0.0121389 0)
(-0.00505596 -0.0117726 0)
(-0.00390365 -0.011222 0)
(-0.00284377 -0.0104109 0)
(-0.0019147 -0.00926766 0)
(-0.00113353 -0.00771256 0)
(-0.00055123 -0.00574069 0)
(-0.000169915 -0.00343675 0)
(-1.24655e-05 -0.00105938 0)
(-8.1883e-05 0.0028592 0)
(-0.000559427 0.00670776 0)
(-0.00135151 0.00917813 0)
(-0.00229351 0.0106864 0)
(-0.00336424 0.011551 0)
(-0.00447256 0.0120051 0)
(-0.00562764 0.0122062 0)
(-0.00678109 0.0122574 0)
(-0.00795075 0.0122195 0)
(-0.00910846 0.0121272 0)
(-0.0102706 0.0119969 0)
(-0.0114185 0.0118364 0)
(-0.0125643 0.0116471 0)
(-0.0136939 0.0114287 0)
(-0.0148155 0.0111789 0)
(-0.0159179 0.0108951 0)
(-0.0170056 0.0105744 0)
(-0.018069 0.0102136 0)
(-0.0191097 0.00980926 0)
(-0.0201187 0.00935815 0)
(-0.0210951 0.00885695 0)
(-0.02203 0.00830243 0)
(-0.0229202 0.00769181 0)
(-0.023756 0.00702242 0)
(-0.0245323 0.00629251 0)
(-0.0252389 0.00550063 0)
(-0.0258686 0.00464677 0)
(-0.0264107 0.0037314 0)
(-0.0268568 0.00275711 0)
(-0.027196 0.00172709 0)
(-0.0274197 0.000647295 0)
(-0.0275176 -0.000475706 0)
(-0.0274824 -0.00163205 0)
(-0.0273059 -0.00281156 0)
(-0.0269836 -0.00400043 0)
(-0.0265112 -0.00518538 0)
(-0.025889 -0.00634949 0)
(-0.025118 -0.00747789 0)
(-0.0242047 -0.00855226 0)
(-0.0231568 -0.00955862 0)
(-0.021987 -0.0104799 0)
(-0.0207096 -0.0113059 0)
(-0.0193425 -0.0120236 0)
(-0.0179047 -0.0126295 0)
(-0.0164168 -0.0131162 0)
(-0.0148994 -0.0134881 0)
(-0.0133721 -0.0137431 0)
(-0.0118544 -0.0138914 0)
(-0.0103616 -0.0139319 0)
(-0.00891047 -0.0138734 0)
(-0.00751071 -0.0137045 0)
(-0.0061784 -0.0134184 0)
(-0.00492033 -0.0129748 0)
(-0.00375819 -0.012331 0)
(-0.00270243 -0.011403 0)
(-0.00178896 -0.0101152 0)
(-0.0010347 -0.00838208 0)
(-0.000485475 -0.00620553 0)
(-0.000139463 -0.00368601 0)
(-7.65758e-06 -0.00111942 0)
(-8.27485e-05 0.00313911 0)
(-0.000566297 0.0073557 0)
(-0.00136854 0.0100574 0)
(-0.00232277 0.0117045 0)
(-0.0034078 0.0126486 0)
(-0.00453157 0.0131451 0)
(-0.00570364 0.0133671 0)
(-0.00687523 0.0134268 0)
(-0.00806472 0.0133907 0)
(-0.00924379 0.0132962 0)
(-0.0104294 0.0131616 0)
(-0.0116028 0.0129947 0)
(-0.0127766 0.0127973 0)
(-0.013937 0.0125688 0)
(-0.0150923 0.0123067 0)
(-0.0162315 0.0120081 0)
(-0.0173594 0.0116695 0)
(-0.0184664 0.0112873 0)
(-0.0195544 0.0108576 0)
(-0.0206143 0.0103764 0)
(-0.0216453 0.00983982 0)
(-0.022638 0.0092439 0)
(-0.023589 0.00858516 0)
(-0.0244883 0.00786009 0)
(-0.0253301 0.00706627 0)
(-0.0261032 0.00620141 0)
(-0.0267995 0.00526496 0)
(-0.0274068 0.00425676 0)
(-0.0279154 0.00317914 0)
(-0.0283125 0.00203509 0)
(-0.0285876 0.000830859 0)
(-0.0287284 -0.000426503 0)
(-0.0287254 -0.00172598 0)
(-0.0285682 -0.00305604 0)
(-0.0282505 -0.00440067 0)
(-0.0277663 -0.00574426 0)
(-0.0271147 -0.00706663 0)
(-0.0262961 -0.00834978 0)
(-0.0253171 -0.00957146 0)
(-0.0241862 -0.0107144 0)
(-0.0229183 -0.0117574 0)
(-0.0215296 -0.0126878 0)
(-0.0200421 -0.0134893 0)
(-0.0184782 -0.0141576 0)
(-0.0168632 -0.0146834 0)
(-0.0152217 -0.0150726 0)
(-0.0135781 -0.015323 0)
(-0.0119547 -0.0154481 0)
(-0.0103707 -0.0154477 0)
(-0.00884423 -0.0153346 0)
(-0.00738711 -0.0150978 0)
(-0.00601476 -0.0147326 0)
(-0.00473487 -0.014196 0)
(-0.00356694 -0.013444 0)
(-0.00252163 -0.012385 0)
(-0.00163156 -0.0109405 0)
(-0.000913018 -0.00901972 0)
(-0.000405624 -0.00663405 0)
(-0.000102793 -0.00390285 0)
(-1.86946e-06 -0.00116373 0)
(-8.40958e-05 0.00342772 0)
(-0.000573944 0.00801905 0)
(-0.00138624 0.0109555 0)
(-0.00235265 0.0127437 0)
(-0.0034519 0.0137686 0)
(-0.00459115 0.0143089 0)
(-0.00578028 0.0145529 0)
(-0.00697026 0.0146222 0)
(-0.00817994 0.0145892 0)
(-0.00938099 0.0144942 0)
(-0.0105909 0.0143569 0)
(-0.0117909 0.0141857 0)
(-0.0129942 0.0139825 0)
(-0.014187 0.0137465 0)
(-0.0153782 0.013475 0)
(-0.0165568 0.0131645 0)
(-0.017728 0.0128114 0)
(-0.0188824 0.0124113 0)
(-0.0200221 0.0119599 0)
(-0.0211379 0.0114523 0)
(-0.0222291 0.010884 0)
(-0.0232862 0.0102501 0)
(-0.0243056 0.00954641 0)
(-0.0252767 0.00876826 0)
(-0.0261931 0.00791239 0)
(-0.0270426 0.00697547 0)
(-0.0278162 0.00595612 0)
(-0.0285 0.00485331 0)
(-0.0290828 0.00366885 0)
(-0.0295494 0.00240525 0)
(-0.0298874 0.00106891 0)
(-0.0300816 -0.000332848 0)
(-0.0301201 -0.00178786 0)
(-0.0299897 -0.00328319 0)
(-0.0296818 -0.00480037 0)
(-0.0291877 -0.00632111 0)
(-0.0285053 -0.00782135 0)
(-0.0276335 -0.00927934 0)
(-0.0265795 -0.0106679 0)
(-0.0253519 -0.0119655 0)
(-0.0239683 -0.0131461 0)
(-0.0224477 -0.0141934 0)
(-0.0208168 -0.015087 0)
(-0.0191022 -0.0158212 0)
(-0.0173357 -0.0163849 0)
(-0.0155465 -0.0167852 0)
(-0.0137653 -0.0170202 0)
(-0.0120182 -0.0171078 0)
(-0.0103292 -0.0170491 0)
(-0.00871771 -0.0168625 0)
(-0.00719835 -0.0165376 0)
(-0.00578531 -0.0160739 0)
(-0.00448688 -0.0154252 0)
(-0.00331948 -0.0145478 0)
(-0.00229339 -0.0133423 0)
(-0.00143685 -0.011728 0)
(-0.000765006 -0.00960986 0)
(-0.000309922 -0.00701168 0)
(-5.94398e-05 -0.00407518 0)
(4.82856e-06 -0.00118555 0)
(-8.48809e-05 0.0037136 0)
(-0.00058055 0.00868165 0)
(-0.001403 0.0118553 0)
(-0.00238172 0.0137864 0)
(-0.00349557 0.014894 0)
(-0.0046507 0.0154796 0)
(-0.00585746 0.0157473 0)
(-0.00706642 0.0158283 0)
(-0.00829702 0.0158007 0)
(-0.00952085 0.0157077 0)
(-0.010756 0.0155706 0)
(-0.0119838 0.0153983 0)
(-0.0132179 0.0151929 0)
(-0.0144448 0.0149532 0)
(-0.0156739 0.0146765 0)
(-0.0168943 0.0143588 0)
(-0.0181118 0.0139959 0)
(-0.019317 0.0135827 0)
(-0.0205125 0.0131146 0)
(-0.0216891 0.0125856 0)
(-0.0228464 0.0119907 0)
(-0.0239746 0.0113236 0)
(-0.0250701 0.0105793 0)
(-0.0261218 0.00975194 0)
(-0.0271227 0.00883707 0)
(-0.0280598 0.00783002 0)
(-0.0289227 0.00672834 0)
(-0.029696 0.00552974 0)
(-0.0303664 0.0042352 0)
(-0.0309165 0.00284644 0)
(-0.0313311 0.00136969 0)
(-0.031592 -0.000187655 0)
(-0.031684 -0.0018124 0)
(-0.0315903 -0.0034902 0)
(-0.0312993 -0.00519988 0)
(-0.0307991 -0.00692006 0)
(-0.0300854 -0.00862215 0)
(-0.0291552 -0.0102797 0)
(-0.0280154 -0.0118596 0)
(-0.0266753 -0.0133348 0)
(-0.0251555 -0.0146728 0)
(-0.0234779 -0.0158528 0)
(-0.0216754 -0.0168492 0)
(-0.0197799 -0.0176541 0)
(-0.0178316 -0.0182538 0)
(-0.0158655 -0.0186573 0)
(-0.0139207 -0.0188631 0)
(-0.012028 -0.0188947 0)
(-0.0102174 -0.0187554 0)
(-0.00851013 -0.0184712 0)
(-0.0069237 -0.018033 0)
(-0.00547047 -0.0174465 0)
(-0.00415886 -0.0166629 0)
(-0.00300091 -0.0156397 0)
(-0.00200572 -0.0142697 0)
(-0.00119581 -0.0124713 0)
(-0.000584391 -0.0101457 0)
(-0.000194562 -0.00733244 0)
(-7.62781e-06 -0.00419921 0)
(1.28076e-05 -0.00118445 0)
(-8.61931e-05 0.00401078 0)
(-0.000587736 0.00936334 0)
(-0.00141973 0.0127781 0)
(-0.00241026 0.0148546 0)
(-0.00353808 0.0160466 0)
(-0.00470864 0.0166788 0)
(-0.00593257 0.0169716 0)
(-0.00716025 0.0170655 0)
(-0.00841161 0.0170448 0)
(-0.00965828 0.0169555 0)
(-0.0109189 0.0168207 0)
(-0.012175 0.0166495 0)
(-0.0134408 0.0164446 0)
(-0.014703 0.0162044 0)
(-0.0159716 0.0159259 0)
(-0.0172359 0.0156046 0)
(-0.0185023 0.0152362 0)
(-0.0197618 0.0148146 0)
(-0.0210171 0.0143347 0)
(-0.0222596 0.0137895 0)
(-0.0234889 0.0131732 0)
(-0.0246953 0.0124782 0)
(-0.0258752 0.0116985 0)
(-0.0270172 0.0108265 0)
(-0.0281136 0.00985654 0)
(-0.0291506 0.00878228 0)
(-0.0301165 0.00759978 0)
(-0.0309942 0.00630505 0)
(-0.0317683 0.00489787 0)
(-0.0324186 0.00337863 0)
(-0.0329268 0.00175303 0)
(-0.0332708 2.81281e-05 0)
(-0.0334316 -0.00178205 0)
(-0.033388 -0.00366184 0)
(-0.0331242 -0.00558721 0)
(-0.0326239 -0.00753325 0)
(-0.0318799 -0.00946606 0)
(-0.0308862 -0.0113535 0)
(-0.0296494 -0.0131549 0)
(-0.0281788 -0.0148364 0)
(-0.0264982 -0.0163571 0)
(-0.0246334 -0.0176901 0)
(-0.022625 -0.0188027 0)
(-0.0205118 -0.0196843 0)
(-0.0183443 -0.0203175 0)
(-0.0161657 -0.0207138 0)
(-0.0140257 -0.0208723 0)
(-0.0119611 -0.0208238 0)
(-0.01001 -0.0205752 0)
(-0.00819523 -0.0201625 0)
(-0.00653779 -0.0195796 0)
(-0.00504713 -0.0188404 0)
(-0.00373099 -0.0178943 0)
(-0.00259524 -0.0167018 0)
(-0.00164659 -0.0151474 0)
(-0.000900031 -0.01315 0)
(-0.000365948 -0.0106074 0)
(-5.68105e-05 -0.00757814 0)
(5.35974e-05 -0.00426029 0)
(2.21228e-05 -0.0011526 0)
(-8.6721e-05 0.00430163 0)
(-0.000593292 0.0100391 0)
(-0.00143462 0.013697 0)
(-0.00243674 0.0159209 0)