/*--------------------------------*- C++ -*----------------------------------*\
| =========                 |                                                 |
| \\      /  F ield         | OpenFOAM: The Open Source CFD Toolbox           |
|  \\    /   O peration     | Version:  2406                                  |
|   \\  /    A nd           | Website:  www.openfoam.com                      |
|    \\/     M anipulation  |                                                 |
\*---------------------------------------------------------------------------*/
FoamFile
{
    version     2.0;
    format      ascii;
    arch        "LSB;label=32;scalar=64";
    class       surfaceScalarField;
    location    "13.2";
    object      phi_0;
}
// * * * * * * * * * * * * * * * * * * * * * * * * * * * * * * * * * * * * * //

dimensions      [0 3 -1 0 0 0 0];

oriented        oriented;

internalField   nonuniform List<scalar> 
1740
(
8.40843e-08
-8.40816e-08
-9.8119e-07
1.06527e-06
-2.97831e-06
1.99712e-06
-5.45674e-06
2.47843e-06
-8.47157e-06
3.01483e-06
-1.22764e-05
3.80486e-06
-1.71652e-05
4.88878e-06
-2.33787e-05
6.21345e-06
-3.10693e-05
7.69067e-06
-4.02657e-05
9.19637e-06
-5.08196e-05
1.05538e-05
-6.23332e-05
1.15136e-05
-7.4033e-05
1.16998e-05
-8.46564e-05
1.06233e-05
-9.24737e-05
7.81734e-06
-9.54312e-05
2.95752e-06
-9.1713e-05
-3.71818e-06
-8.01964e-05
-1.15166e-05
-6.10262e-05
-1.91703e-05
-3.61326e-05
-2.48935e-05
-9.24759e-06
-2.68851e-05
1.48088e-05
-2.40564e-05
3.16169e-05
-1.6808e-05
3.90061e-05
-7.38926e-06
3.79505e-05
1.05567e-06
3.1317e-05
6.63345e-06
2.22671e-05
9.04994e-06
1.28922e-05
9.37493e-06
4.79505e-06
8.09711e-06
4.79505e-06
-2.40027e-06
2.31619e-06
-8.25472e-06
6.91973e-06
-1.59957e-05
9.73806e-06
-2.4778e-05
1.12607e-05
-3.46727e-05
1.29096e-05
-4.60894e-05
1.52215e-05
-5.94399e-05
1.82393e-05
-7.49635e-05
2.17371e-05
-9.26549e-05
2.5382e-05
-0.000112239
2.87803e-05
-0.000133156
3.14713e-05
-0.000154481
3.28388e-05
-0.00017479
3.20082e-05
-0.000192107
2.79409e-05
-0.000203972
1.96818e-05
-0.000207795
6.78123e-06
-0.000201263
-1.02503e-05
-0.000182682
-3.00975e-05
-0.000151904
-4.9949e-05
-0.000110841
-6.59565e-05
-6.37275e-05
-7.39983e-05
-1.70292e-05
-7.07547e-05
2.17246e-05
-5.55619e-05
4.63237e-05
-3.19883e-05
5.48291e-05
-7.44976e-06
5.04474e-05
1.10152e-05
3.84458e-05
2.10515e-05
2.33462e-05
2.44745e-05
8.68877e-06
2.27546e-05
1.34838e-05
-5.67241e-06
7.98859e-06
-1.69436e-05
1.81909e-05
-3.05559e-05
2.33504e-05
-4.55073e-05
2.62121e-05
-6.18781e-05
2.92804e-05
-7.99829e-05
3.33263e-05
-0.000100006
3.82623e-05
-0.000121914
4.36455e-05
-0.000145597
4.90652e-05
-0.00017106
5.42433e-05
-0.000198389
5.87996e-05
-0.000227396
6.18462e-05
-0.000257252
6.18645e-05
-0.000286193
5.68819e-05
-0.000311063
4.45511e-05
-0.000327691
2.34091e-05
-0.000332073
-5.86754e-06
-0.00032036
-4.18109e-05
-0.000291039
-7.92703e-05
-0.000244404
-0.000112592
-0.000183359
-0.000135043
-0.000114327
-0.000139786
-4.73561e-05
-0.000122533
5.87628e-06
-8.52207e-05
3.67131e-05
-3.82866e-05
4.53184e-05
2.4099e-06
3.87998e-05
2.75701e-05
2.49665e-05
3.83079e-05
9.65194e-06
3.80691e-05
2.31358e-05
-8.81098e-06
1.67996e-05
-2.49794e-05
3.43594e-05
-4.37606e-05
4.21315e-05
-6.3957e-05
4.64086e-05
-8.55598e-05
5.08832e-05
-0.000108657
5.64231e-05
-0.000133204
6.28095e-05
-0.000159325
6.97669e-05
-0.000187841
7.75807e-05
-0.000220436
8.6839e-05
-0.000259091
9.74544e-05
-0.000305009
0.000107764
-0.000357296
0.000114151
-0.000411581
0.000111167
-0.000460561
9.35308e-05
-0.000497121
5.9969e-05
-0.000516258
1.32699e-05
-0.000514927
-4.31418e-05
-0.000491215
-0.000102982
-0.000444218
-0.000159589
-0.000374226
-0.000205034
-0.000284416
-0.000229597
-0.000183475
-0.000223474
-8.7335e-05
-0.000181361
-1.53029e-05
-0.000110319
2.12943e-05
-3.41873e-05
2.88934e-05
1.9971e-05
2.12879e-05
4.59134e-05
8.61433e-06
5.07427e-05
3.17501e-05
-1.14675e-05
2.82671e-05
-3.1608e-05
5.44999e-05
-5.45057e-05
6.50292e-05
-7.87546e-05
7.06574e-05
-0.000104194
7.63226e-05
-0.000130767
8.29966e-05
-0.000158681
9.07234e-05
-0.000189285
0.000100371
-0.000225815
0.00011411
-0.000272846
0.00013387
-0.000334133
0.000158742
-0.000409297
0.000182928
-0.00049104
0.000195894
-0.000567558
0.000187686
-0.000629536
0.000155509
-0.000672825
0.000103258
-0.000695964
3.64087e-05
-0.000699899
-3.92069e-05
-0.000684489
-0.000118393
-0.000647687
-0.000196391
-0.000585739
-0.000266983
-0.000495084
-0.000320251
-0.000376406
-0.000342152
-0.000240427
-0.000317339
-0.000112382
-0.000238364
-2.4938e-05
-0.000121631
1.06474e-05
-1.56144e-05
1.45251e-05
4.20357e-05
6.76319e-06
5.85045e-05
3.85133e-05
-1.34728e-05
4.17399e-05
-3.65518e-05
7.75788e-05
-6.24815e-05
9.0959e-05
-8.96661e-05
9.7842e-05
-0.000117856
0.000104513
-0.000147194
0.000112334
-0.00017899
0.000122519
-0.000217156
0.000138537
-0.000268374
0.000165328
-0.000339044
0.00020454
-0.000429274
0.000248972
-0.000528492
0.000282147
-0.000619868
0.00028727
-0.000691529
0.000259347
-0.000740718
0.000204698
-0.000770025
0.000132564
-0.000784056
5.04404e-05
-0.000786908
-3.63554e-05
-0.000781336
-0.000123965
-0.000765111
-0.000212616
-0.000732142
-0.000299952
-0.000672339
-0.000380055
-0.000574402
-0.000440088
-0.000433274
-0.000458468
-0.000263785
-0.000407853
-0.000107647
-0.000277769
-1.75725e-05
-0.000105689
6.51902e-06
1.79443e-05
5.16392e-06
5.98596e-05
4.36772e-05
-1.47464e-05
5.64863e-05
-3.97615e-05
0.000102594
-6.77495e-05
0.000118947
-9.69869e-05
0.000127079
-0.000127321
0.000134847
-0.00015963
0.000144643
-0.000197324
0.000160213
-0.000247661
0.000188874
-0.000319068
0.000236735
-0.000413203
0.000298675
-0.000518217
0.000353985
-0.000613195
0.000377125
-0.000682637
0.000356712
-0.000724136
0.000300846
-0.000743501
0.000224063
-0.000748686
0.00013775
-0.000747146
4.89003e-05
-0.000744102
-3.93996e-05
-0.000742471
-0.000125596
-0.000743619
-0.000211467
-0.000744243
-0.000299328
-0.000733478
-0.000390819
-0.000692732
-0.000480834
-0.00060043
-0.00055077
-0.000443714
-0.00056457
-0.00024335
-0.000478132
-7.17738e-05
-0.000277266
-1.94741e-06
-5.18821e-05
3.56458e-06
5.43476e-05
4.72418e-05
-1.52725e-05
7.17588e-05
-4.12825e-05
0.000128604
-7.04833e-05
0.000148148
-0.000101112
0.000157708
-0.000133363
0.000167098
-0.000169366
0.000180646
-0.000214974
0.000205821
-0.000279161
0.000253061
-0.000366637
0.000324211
-0.000468267
0.000400305
-0.000562178
0.000447896
-0.000628463
0.00044341
-0.000662795
0.000391043
-0.000673636
0.000311687
-0.000671368
0.000221795
-0.000663294
0.000129676
-0.00065325
3.88563e-05
-0.000643009
-4.96405e-05
-0.000634543
-0.000134062
-0.000633148
-0.000212862
-0.000643213
-0.000289263
-0.000663036
-0.000370996
-0.00067898
-0.00046489
-0.000662795
-0.000566955
-0.000578555
-0.00064881
-0.000405168
-0.000651519
-0.000177077
-0.000505357
-2.09261e-05
-0.000208033
4.30799e-06
2.91136e-05
5.15498e-05
-1.50523e-05
8.68112e-05
-4.11592e-05
0.000154711
-7.07948e-05
0.000177783
-0.000102235
0.000189149
-0.000136189
0.000201052
-0.000176084
0.000220541
-0.00022911
0.000258847
-0.000302424
0.000326375
-0.000393139
0.000414927
-0.00048345
0.000490616
-0.000550932
0.000515378
-0.000586258
0.000478736
-0.000598117
0.000402902
-0.000600964
0.000314534
-0.000602906
0.000223737
-0.000603927
0.000130696
-0.000599768
3.46981e-05
-0.000587844
-6.15649e-05
-0.000569419
-0.000152487
-0.000549702
-0.000232579
-0.000538329
-0.000300635
-0.000545946
-0.000363379
-0.000574823
-0.000436013
-0.000607869
-0.000533909
-0.000605813
-0.000650866
-0.000517065
-0.000740266
-0.000318861
-0.000703561
-8.13682e-05
-0.000445526
5.77983e-06
-5.80344e-05
5.73296e-05
-1.40856e-05
0.000100897
-3.93991e-05
0.000180024
-6.86732e-05
0.000207058
-0.000100227
0.000220703
-0.000135188
0.000236013
-0.000177614
0.000262967
-0.00023407
0.000315303
-0.00030756
0.000399865
-0.000388879
0.000496245
-0.000458418
0.000560155
-0.000501064
0.000558024
-0.000519831
0.000497503
-0.000531469
0.000414541
-0.000547872
0.000330937
-0.000568048
0.000243913
-0.000584077
0.000146724
-0.000588363
3.89845e-05
-0.000578117
-7.18105e-05
-0.000554464
-0.00017614
-0.000521283
-0.00026576
-0.000486741
-0.000335177
-0.000464122
-0.000385999
-0.000468206
-0.000431929
-0.000502365
-0.00049975
-0.000543423
-0.000609809
-0.000538013
-0.000745676
-0.000421695
-0.000819879
-0.000181456
-0.000685765
-5.71921e-07
-0.000238919
5.67577e-05
-1.23902e-05
0.000113287
-3.59868e-05
0.000203621
-6.40068e-05
0.000235077
-9.47083e-05
0.000251404
-0.000129269
0.000270574
-0.000171368
0.000305066
-0.000225498
0.000369433
-0.000290826
0.000465193
-0.000356081
0.0005615
-0.000405481
0.000609555
-0.000433231
0.000585774
-0.000450588
0.00051486
-0.00047369
0.000437643
-0.000505509
0.000362756
-0.00053692
0.000275323
-0.000558342
0.000168147
-0.000565159
4.58013e-05
-0.000556408
-8.05615e-05
-0.000533077
-0.000199471
-0.000497628
-0.00030121
-0.000454572
-0.000378233
-0.000413229
-0.000427341
-0.000390139
-0.000455019
-0.000401786
-0.000488104
-0.000446812
-0.000564782
-0.000485603
-0.000706885
-0.000449778
-0.000855704
-0.000285625
-0.000849919
-4.02438e-05
-0.000484299
1.65138e-05
-1.00255e-05
0.000123312
-3.09685e-05
0.000224564
-5.67586e-05
0.000260868
-8.54185e-05
0.000280064
-0.000117687
0.000302842
-0.000156029
0.000343408
-0.000202515
0.00041592
-0.000254405
0.000517083
-0.000302217
0.000609312
-0.00033642
0.000643758
-0.000358084
0.000607438
-0.000379818
0.000536594
-0.000411346
0.000469171
-0.000448375
0.000399785
-0.000480384
0.000307332
-0.00050097
0.000188732
-0.000508206
5.30374e-05
-0.000501947
-8.68199e-05
-0.00048317
-0.000218248
-0.000453154
-0.000331226
-0.000413913
-0.000417474
-0.000369645
-0.000471609
-0.000331899
-0.000492765
-0.000319519
-0.000500484
-0.000349205
-0.000535096
-0.000404788
-0.000651301
-0.000427275
-0.000833218
-0.000333127
-0.000944067
-9.60089e-05
-0.000721418
-7.9495e-05
-7.09426e-06
0.000130407
-2.44737e-05
0.000241943
-4.70267e-05
0.000283421
-7.23736e-05
0.000305411
-0.000100442
0.000330911
-0.00013207
0.000375036
-0.000167271
0.000451121
-0.000203343
0.000553155
-0.000234845
0.000640815
-0.000258067
0.00066698
-0.000276837
0.000626207
-0.000300195
0.000559952
-0.000331312
0.000500288
-0.000363914
0.000432386
-0.000390505
0.000333923
-0.000407703
0.000205931
-0.000414542
5.98758e-05
-0.000410915
-9.04463e-05
-0.000398029
-0.000231135
-0.000376867
-0.000352388
-0.000348405
-0.000445936
-0.00031376
-0.000506253
-0.000278394
-0.000528132
-0.000254604
-0.000524273
-0.00026449
-0.000525211
-0.000315999
-0.000599791
-0.000370773
-0.000778444
-0.00033571
-0.00097913
-0.000160477
-0.000896651
-0.000239972
-3.81086e-06
0.000134218
-1.68614e-05
0.000254994
-3.5259e-05
0.000301818
-5.62093e-05
0.000326361
-7.85959e-05
0.000353297
-0.000101593
0.000398033
-0.00012367
0.000473197
-0.000143229
0.000572715
-0.00015942
0.000657005
-0.000173174
0.000680734
-0.000188197
0.000641231
-0.000207786
0.000579541
-0.00023073
0.000523232
-0.00025311
0.000454766
-0.000271592
0.000352405
-0.000284394
0.000218734
-0.000290703
6.6184e-05
-0.00029039
-9.07588e-05
-0.000284466
-0.000237059
-0.000273643
-0.000363211
-0.000257817
-0.000461762
-0.000237014
-0.000527057
-0.000213606
-0.00055154
-0.00019399
-0.000543889
-0.000195167
-0.000524035
-0.000234998
-0.00055996
-0.000299324
-0.000714118
-0.000310152
-0.000968302
-0.000194533
-0.00101227
-0.000434505
-4.34371e-07
0.000134652
-8.54988e-06
0.000263109
-2.2053e-05
0.000315321
-3.78125e-05
0.000342121
-5.36736e-05
0.000369158
-6.73808e-05
0.00041174
-7.61077e-05
0.000481924
-7.92898e-05
0.000575897
-8.04323e-05
0.000658147
-8.42008e-05
0.000684502
-9.26646e-05
0.000649695
-0.00010386
0.000590736
-0.000114519
0.000533891
-0.00012417
0.000464418
-0.000133198
0.000361433
-0.000140832
0.000226367
-0.000146806
7.21587e-05
-0.000150439
-8.71258e-05
-0.000152606
-0.000234893
-0.000152822
-0.000362995
-0.000151282
-0.000463302
-0.000145991
-0.000532348
-0.000138425
-0.000559105
-0.000130746
-0.000551568
-0.000133632
-0.000521148
-0.00016375
-0.000529842
-0.000226743
-0.000651125
-0.000261939
-0.000933106
-0.000187262
-0.00108695
-0.000621767
2.82636e-06
0.000131826
-1.24319e-07
0.00026606
-8.42681e-06
0.000323624
-1.86161e-05
0.00035231
-2.77829e-05
0.000378325
-3.25672e-05
0.000416525
-2.90079e-05
0.000478365
-1.65574e-05
0.000563446
-2.31766e-06
0.000643908
5.63839e-06
0.000676546
6.37037e-06
0.000648963
5.48152e-06
0.000591625
7.3673e-06
0.000532005
1.08189e-05
0.000460967
1.24898e-05
0.000359762
1.0998e-05
0.000227859
6.27308e-06
7.68836e-05
-1.90013e-06
-7.89526e-05
-1.18422e-05
-0.000224951
-2.39835e-05
-0.000350853
-3.54545e-05
-0.000451831
-4.6466e-05
-0.000521337
-5.62554e-05
-0.000549316
-6.47294e-05
-0.000543094
-7.77251e-05
-0.000508153
-0.000104967
-0.000502601
-0.000164319
-0.000591774
-0.000211828
-0.000885596
-0.000166236
-0.00113254
-0.000788003
5.61097e-06
0.000126215
7.69644e-06
0.000263975
4.83499e-06
0.000326485
2.91649e-07
0.000356853
-2.57886e-06
0.000381196
2.37747e-07
0.000413708
1.38426e-05
0.00046476
3.9665e-05
0.000537624
7.00935e-05
0.000613479
9.30806e-05
0.000653559
0.000104582
0.000637461
0.000112184
0.000584024
0.000124608
0.000519581
0.000140226
0.000445349
0.000152064
0.000347923
0.000156736
0.000223188
0.000152968
8.06517e-05
0.000141371
-6.73557e-05
0.000122983
-0.000206563
0.000101307
-0.000329177
7.69027e-05
-0.000427427
5.16832e-05
-0.000496117
2.5844e-05
-0.000523477
-6.98567e-07
-0.000516551
-2.43749e-05
-0.000484476
-5.51456e-05
-0.00047183
-0.000111425
-0.000535494
-0.000163402
-0.000833619
-0.000141681
-0.00115426
-0.000929684
7.63831e-06
0.000118576
1.42648e-05
0.000257348
1.65839e-05
0.000324166
1.73434e-05
0.000356094
2.01645e-05
0.000378374
2.91353e-05
0.000404737
4.96561e-05
0.000444239
8.53938e-05
0.000501886
0.000130371
0.000568501
0.00016988
0.000614051
0.000195496
0.000611845
0.000212566
0.000566954
0.000231144
0.000501003
0.000253171
0.000423321
0.000271988
0.000329107
0.000281592
0.000213583
0.000279456
8.27877e-05
0.000266186
-5.40856e-05
0.000243156
-0.000183533
0.000214465
-0.000300486
0.000180363
-0.000393324
0.000142426
-0.00045818
0.000100262
-0.000481313
5.99635e-05
-0.000476252
2.16588e-05
-0.000446172
-1.64571e-05
-0.000433714
-7.17561e-05
-0.000480195
-0.000126336
-0.00077904
-0.00012111
-0.00115949
-0.00105079
8.8952e-06
0.000109681
1.92894e-05
0.000246954
2.63276e-05
0.000317128
3.19521e-05
0.000350469
3.95783e-05
0.000370748
5.30686e-05
0.000391247
7.75815e-05
0.000419726
0.000118237
0.000461231
0.000173294
0.000513444
0.000229257
0.000558088
0.00027218
0.000568923
0.000301182
0.000537952
0.000324514
0.000477671
0.000347881
0.000399954
0.000368433
0.000308554
0.00038053
0.000201487
0.000380167
8.31509e-05
0.000367236
-4.11548e-05
0.000342939
-0.000159236
0.000309677
-0.000267224
0.000267274
-0.000350922
0.000217371
-0.000408277
0.000162171
-0.000426113
0.000109451
-0.000423532
5.93944e-05
-0.000396116
1.5379e-05
-0.000389699
-4.00595e-05
-0.000424756
-9.61285e-05
-0.000722971
-0.000104595
-0.00115102
-0.00115539
9.09816e-06
0.000100583
2.19312e-05
0.000234121
3.27384e-05
0.000306321
4.24994e-05
0.000340708
5.42356e-05
0.000359012
7.12715e-05
0.000374211
9.77713e-05
0.000393226
0.00013886
0.000420142
0.000196745
0.000455559
0.000263684
0.000491149
0.000324313
0.000508293
0.000370172
0.000492093
0.000403157
0.000444686
0.000428982
0.000374129
0.000449015
0.000288522
0.000460992
0.000189509
0.00046109
8.30534e-05
0.000448104
-2.8169e-05
0.000422304
-0.000133436
0.000383893
-0.000228812
0.000332716
-0.000299746
0.000272229
-0.000347789
0.000206751
-0.000360635
0.000145056
-0.000361837
8.75595e-05
-0.000338619
3.90322e-05
-0.000341171
-1.88849e-05
-0.000366839
-7.66019e-05
-0.000665254
-9.43321e-05
-0.00113329
-0.00124972
8.59084e-06
9.19921e-05
2.27355e-05
0.000219976
3.63956e-05
0.000292661
4.9563e-05
0.000327541
6.45105e-05
0.000344065
8.39948e-05
0.000354727
0.000111207
0.000366014
0.000150132
0.000381217
0.000204297
0.000401394
0.000272069
0.000423377
0.000342704
0.000437658
0.00040448
0.000430317
0.000452012
0.000397154
0.000486524
0.000339617
0.000509585
0.000265461
0.000521562
0.000177532
0.000520488
8.41275e-05
0.000505225
-1.29068e-05
0.000474707
-0.000102918
0.000429319
-0.000183425
0.000370072
-0.000240498
0.000302623
-0.000280341
0.000232247
-0.000290259
0.000167302
-0.000296891
0.000106887
-0.000278205
5.61859e-05
-0.00029047
3.41778e-07
-0.000310995
-6.22146e-05
-0.000602697
-8.96016e-05
-0.0011059
-0.00133932
6.75499e-06
8.52372e-05
2.01803e-05
0.000206551
3.51977e-05
0.000277643
5.09723e-05
0.000311766
6.89087e-05
0.000326128
9.08344e-05
0.000332801
0.000118737
0.000338111
0.000155266
0.000344688
0.000203186
0.000353474
0.000263777
0.000362786
0.000332377
0.000369058
0.000399781
0.000362912
0.000457423
0.000339513
0.000501513
0.000295527
0.000530611
0.000236363
0.000544718
0.000163425
0.000542979
8.5866e-05
0.000525302
4.77088e-06
0.000490484
-6.81003e-05
0.000440577
-0.000133518
0.00037835
-0.000178271
0.000310227
-0.000212218
0.000240886
-0.000220919
0.000177173
-0.000233178
0.000117289
-0.000218322
6.68285e-05
-0.000240009
1.02945e-05
-0.000254461
-5.29914e-05
-0.000539412
-8.73762e-05
-0.00107152
-0.0014267
4.47811e-06
8.0759e-05
1.64996e-05
0.000194529
3.17065e-05
0.000262436
4.90727e-05
0.0002944
6.89646e-05
0.000306236
9.24511e-05
0.000309315
0.000120855
0.000309708
0.000155524
0.000310018
0.000197899
0.0003111
0.000249222
0.000311463
0.000308253
0.000310027
0.000370017
0.000301148
0.000427206
0.000282324
0.000474177
0.000248556
0.000506873
0.000203668
0.000523508
0.00014679
0.00052301
8.63642e-05
0.000505288
2.24928e-05
0.000471078
-3.38894e-05
0.000422932
-8.53716e-05
0.000364728
-0.000120068
0.000301977
-0.000149466
0.000238568
-0.00015751
0.00017897
-0.00017358
0.00012265
-0.000162001
7.39637e-05
-0.000191323
2.11923e-05
-0.00020169
-4.09246e-05
-0.000477295
-7.97141e-05
-0.00103273
-0.00150641
-6.91445e-07
8.14505e-05
6.65335e-06
0.000187185
2.06108e-05
0.000248479
3.99213e-05
0.00027509
6.2652e-05
0.000283506
8.88154e-05
0.000283151
0.000118671
0.000279852
0.000152754
0.000275935
0.000191594
0.00027226
0.000235684
0.000267373
0.000284577
0.000261133
0.000335965
0.000249761
0.000385285
0.000233003
0.000427689
0.000206152
0.00045884
0.000172517
0.000475792
0.000129838
0.000476994
8.51615e-05
0.000462215
3.72719e-05
0.000432918
-4.59188e-06
0.00039137
-4.38236e-05
0.000341377
-7.00746e-05
0.000286521
-9.46098e-05
0.000230704
-0.000101693
0.000175332
-0.000118209
0.000124272
-0.000110941
7.60101e-05
-0.000143061
3.15522e-05
-0.000157232
-2.90198e-05
-0.000416723
-7.01466e-05
-0.000991601
-0.00157656
-6.04263e-06
8.74931e-05
-1.77583e-06
0.000182918
9.82347e-06
0.00023688
2.89576e-05
0.000255955
5.26658e-05
0.000259797
8.04183e-05
0.000255399
0.000111659
0.000248611
0.000145763
0.000241831
0.000182855
0.000235168
0.00022259
0.000227638
0.000264416
0.000219307
0.000306955
0.000207222
0.000347542
0.000192416
0.000382864
0.00017083
0.00040955
0.000145831
0.000424943
0.000114444
0.000427383
8.27218e-05
0.00041654
4.81154e-05
0.00039326
1.86882e-05
0.00035948
-1.00441e-05
0.000318359
-2.89536e-05
0.000271215
-4.74659e-05
0.000223466
-5.39438e-05
0.000171729
-6.64714e-05
0.000127433
-6.66448e-05
7.66732e-05
-9.23018e-05
4.5537e-05
-0.000126096
-2.03681e-05
-0.000350818
-7.25257e-05
-0.000939443
-0.00164908
-2.42694e-05
0.000111763
-2.74789e-05
0.000186127
-1.6786e-05
0.000226187
8.28101e-06
0.000230888
3.66224e-05
0.000231456
6.9486e-05
0.000222535
0.000103395
0.000214702
0.000138969
0.000206257
0.00017566
0.000198478
0.000213315
0.000189983
0.00025093
0.000181693
0.000287796
0.000170355
0.000321875
0.000158337
0.000351262
0.000141443
0.000373433
0.00012366
0.000386672
0.000101206
0.00038951
7.98835e-05
0.000381588
5.60378e-05
0.000363643
3.66326e-05
0.000336398
1.7201e-05
0.000303309
4.13586e-06
0.000263274
-7.43096e-06
0.000223832
-1.45017e-05
0.000176615
-1.92548e-05
0.00014029
-3.03201e-05
8.72105e-05
-3.9222e-05
6.90944e-05
-0.00010798
-1.05099e-05
-0.000271213
-7.26171e-05
-0.000877336
-0.0017217
-3.16457e-05
0.000143408
-3.90818e-05
0.000193563
-3.30466e-05
0.000220152
-9.95962e-06
0.000207801
2.02521e-05
0.000201244
5.46115e-05
0.000188176
9.06976e-05
0.000178616
0.000127874
0.00016908
0.000165052
0.0001613
0.00020236
0.000152674
0.000238245
0.000145809
0.000272815
0.000135785
0.000303577
0.000127575
0.000330402
0.000114618
0.000350209
0.000103853
0.000363285
8.81301e-05
0.000367212
7.59568e-05
0.000363146
6.01033e-05
0.000350562
4.92173e-05
0.000330822
3.69407e-05
0.00030616
2.8798e-05
0.000275631
2.30981e-05
0.000246491
1.4638e-05
0.000208562
1.86739e-05
0.000182038
-3.79603e-06
0.00013647
6.34592e-06
0.000124206
-9.57152e-05
7.0004e-05
-0.000217011
1.29922e-05
-0.000820324
-0.00170871
-0.000124297
0.000267705
-9.72261e-05
0.000166493
-7.8094e-05
0.000201019
-2.9741e-05
0.000159448
1.32512e-05
0.000158252
5.77162e-05
0.000143711
9.9241e-05
0.000137091
0.00014113
0.000127191
0.00017964
0.000122791
0.000218955
0.000113359
0.000254266
0.000110497
0.000289188
0.000100864
0.000318815
9.79486e-05
0.000345868
8.75643e-05
0.000366148
8.35729e-05
0.000381378
7.29e-05
0.000389657
6.76777e-05
0.000391216
5.8544e-05
0.00038819
5.22439e-05
0.000377635
4.74953e-05
0.00036738
3.90528e-05
0.00034849
4.19887e-05
0.000335916
2.72121e-05
0.000312612
4.1978e-05
0.000300146
8.66983e-06
0.000279529
2.69628e-05
0.000255781
-7.19673e-05
0.000251768
-0.000212998
0.000169545
-0.000738102
-0.00153916
-1.60492e-05
0.000283754
-2.414e-05
0.000174583
2.09926e-05
0.000155887
4.46356e-05
0.000135805
9.0385e-05
0.000112503
0.000135313
9.87833e-05
0.000181625
9.07784e-05
0.000227669
8.11473e-05
0.000274007
7.64533e-05
0.000318462
6.89028e-05
0.00036299
6.59699e-05
0.000404057
5.97967e-05
0.000444743
5.72625e-05
0.000480268
5.20395e-05
0.00051479
4.90501e-05
0.000542715
4.4975e-05
0.000569483
4.091e-05
0.000589216
3.88113e-05
0.000608374
3.30857e-05
0.00062152
3.43494e-05
0.000634676
2.58967e-05
0.000644802
3.18627e-05
0.000653053
1.89613e-05
0.000666229
2.8802e-05
0.000663982
1.09168e-05
0.000678844
1.21006e-05
0.000638126
-3.12492e-05
0.000607422
-0.000182295
0.000393981
-0.000524661
-0.00114518
0.000283754
0.000458338
0.000614224
0.00075003
0.000862533
0.000961316
0.00105209
0.00113324
0.00120969
0.0012786
0.00134457
0.00140436
0.00146163
0.00151367
0.00156272
0.00160769
0.0016486
0.00168741
0.0017205
0.00175485
0.00178074
0.00181261
0.00183157
0.00186037
0.00187129
0.00188339
0.00185214
0.00166984
0.00114518
)
;

boundaryField
{
    movingWall
    {
        type            calculated;
        value           uniform 0;
    }
    fixedWalls
    {
        type            calculated;
        value           uniform 0;
    }
    frontAndBack
    {
        type            empty;
    }
}


// ************************************************************************* //
