/*--------------------------------*- C++ -*----------------------------------*\
| =========                 |                                                 |
| \\      /  F ield         | OpenFOAM: The Open Source CFD Toolbox           |
|  \\    /   O peration     | Version:  2406                                  |
|   \\  /    A nd           | Website:  www.openfoam.com                      |
|    \\/     M anipulation  |                                                 |
\*---------------------------------------------------------------------------*/
FoamFile
{
    version     2.0;
    format      ascii;
    arch        "LSB;label=32;scalar=64";
    class       surfaceScalarField;
    location    "95";
    object      phi;
}
// * * * * * * * * * * * * * * * * * * * * * * * * * * * * * * * * * * * * * //

dimensions      [0 3 -1 0 0 0 0];

oriented        oriented;

internalField   nonuniform List<scalar> 
8064
(
2.55133e-07
-2.55456e-07
1.22795e-06
-9.72818e-07
2.67502e-06
-1.44707e-06
4.23158e-06
-1.55656e-06
5.59989e-06
-1.36831e-06
6.6197e-06
-1.01981e-06
7.26463e-06
-6.44927e-07
7.60179e-06
-3.37164e-07
7.73795e-06
-1.36151e-07
7.76852e-06
-3.05736e-08
7.74124e-06
2.72835e-08
7.65094e-06
9.02929e-08
7.43941e-06
2.1153e-07
7.01675e-06
4.22666e-07
6.27553e-06
7.4122e-07
5.10277e-06
1.17275e-06
3.38082e-06
1.72195e-06
9.8897e-07
2.39185e-06
-2.19254e-06
3.18151e-06
-6.27436e-06
4.08182e-06
-1.13483e-05
5.07392e-06
-1.74708e-05
6.12251e-06
-2.46454e-05
7.17464e-06
-3.28066e-05
8.16117e-06
-4.18088e-05
9.00224e-06
-5.1423e-05
9.61414e-06
-6.13385e-05
9.91552e-06
-7.11733e-05
9.8348e-06
-8.04919e-05
9.31858e-06
-8.88318e-05
8.33988e-06
-9.57351e-05
6.90333e-06
-0.000100778
5.04304e-06
-0.000103594
2.81608e-06
-0.000103947
3.52846e-07
-0.000101422
-2.52521e-06
-9.59629e-05
-5.45894e-06
-8.76048e-05
-8.35811e-06
-7.65017e-05
-1.11031e-05
-6.29598e-05
-1.3542e-05
-4.74487e-05
-1.55111e-05
-3.06028e-05
-1.68459e-05
-1.3206e-05
-1.73968e-05
3.84819e-06
-1.70542e-05
1.97091e-05
-1.58609e-05
3.33848e-05
-1.36757e-05
4.41731e-05
-1.07883e-05
5.14906e-05
-7.31748e-06
5.51775e-05
-3.68694e-06
5.54101e-05
-2.32584e-07
5.26402e-05
2.76991e-06
4.76423e-05
4.99786e-06
4.12635e-05
6.37876e-06
3.43433e-05
6.92021e-06
2.75722e-05
6.7711e-06
2.14165e-05
6.1557e-06
1.61182e-05
5.29834e-06
1.17395e-05
4.37867e-06
8.22354e-06
3.51598e-06
5.45161e-06
2.77193e-06
3.2936e-06
2.15802e-06
1.65604e-06
1.63756e-06
5.28116e-07
1.12792e-06
-1.50955e-08
5.43211e-07
-1.50956e-08
9.12189e-07
-1.16764e-06
3.25531e-06
-3.31595e-06
6.4092e-06
-4.60096e-06
9.68082e-06
-4.82817e-06
1.25131e-05
-4.20063e-06
1.45831e-05
-3.08974e-06
1.58009e-05
-1.86275e-06
1.62432e-05
-7.79447e-07
1.60569e-05
5.0137e-08
1.53676e-05
6.58669e-07
1.42142e-05
1.18072e-06
1.25169e-05
1.78762e-06
1.00926e-05
2.6358e-06
6.68793e-06
3.82733e-06
2.00872e-06
5.42043e-06
-4.24991e-06
7.43138e-06
-1.23816e-05
9.85366e-06
-2.26497e-05
1.26599e-05
-3.52534e-05
1.57852e-05
-5.02804e-05
1.91088e-05
-6.76512e-05
2.24447e-05
-8.70784e-05
2.55497e-05
-0.000108059
2.81549e-05
-0.000129906
3.00082e-05
-0.000151815
3.09115e-05
-0.000172942
3.07411e-05
-0.000192476
2.94502e-05
-0.000209698
2.70567e-05
-0.000224005
2.36251e-05
-0.000234916
1.92514e-05
-0.00024207
1.40567e-05
-0.000245223
8.19624e-06
-0.000244316
1.90907e-06
-0.000238982
-4.98103e-06
-0.000229387
-1.21203e-05
-0.000215593
-1.92524e-05
-0.000197775
-2.61767e-05
-0.000176231
-3.26474e-05
-0.000151394
-3.83787e-05
-0.000123847
-4.30576e-05
-9.43327e-05
-4.63604e-05
-6.37497e-05
-4.79798e-05
-3.31362e-05
-4.76677e-05
-3.69988e-06
-4.52971e-05
2.35826e-05
-4.09582e-05
4.7448e-05
-3.46537e-05
6.6765e-05
-2.66345e-05
8.09476e-05
-1.78695e-05
8.96034e-05
-8.88838e-06
9.29323e-05
-5.58972e-07
9.11509e-05
6.77925e-06
8.51754e-05
1.23542e-05
7.61516e-05
1.5944e-05
6.53453e-05
1.75774e-05
5.39506e-05
1.75504e-05
4.293e-05
1.6319e-05
3.29275e-05
1.43811e-05
2.42629e-05
1.21806e-05
1.70078e-05
1.0027e-05
1.10876e-05
8.07823e-06
6.39688e-06
6.32828e-06
2.9075e-06
4.61731e-06
7.25889e-07
2.72482e-06
7.10793e-07
1.41375e-06
-2.58139e-06
4.66769e-06
-6.56989e-06
8.77828e-06
-8.71155e-06
1.28422e-05
-8.89212e-06
1.61808e-05
-7.5392e-06
1.84072e-05
-5.31615e-06
1.93986e-05
-2.85416e-06
1.92041e-05
-5.84902e-07
1.79279e-05
1.32635e-06
1.56242e-05
2.96236e-06
1.22202e-05
4.58469e-06
7.49564e-06
6.5122e-06
1.10009e-06
9.03134e-06
-7.39801e-06
1.23254e-05
-1.84436e-05
1.64661e-05
-3.24536e-05
2.14414e-05
-4.97486e-05
2.71486e-05
-7.04652e-05
3.33765e-05
-9.44591e-05
3.97791e-05
-0.000121239
4.5889e-05
-0.000149982
5.1187e-05
-0.000179633
5.52009e-05
-0.000209067
5.7589e-05
-0.000237233
5.81739e-05
-0.000263248
5.69272e-05
-0.000286435
5.39278e-05
-0.000306303
4.93179e-05
-0.000322515
4.32689e-05
-0.000334849
3.59596e-05
-0.000343164
2.75661e-05
-0.000347378
1.82703e-05
-0.000347472
8.29095e-06
-0.000343405
-2.15825e-06
-0.00033517
-1.32159e-05
-0.000322884
-2.44067e-05
-0.000306594
-3.5542e-05
-0.000286406
-4.63646e-05
-0.000262508
-5.65461e-05
-0.00023518
-6.57064e-05
-0.000204827
-7.34109e-05
-0.000171995
-7.91919e-05
-0.000137395
-8.25805e-05
-0.000101897
-8.31651e-05
-6.6527e-05
-8.06674e-05
-3.25076e-05
-7.49776e-05
-1.00465e-06
-6.61566e-05
2.72214e-05
-5.48606e-05
5.07816e-05
-4.14297e-05
6.89721e-05
-2.70789e-05
8.13497e-05
-1.29366e-05
8.82999e-05
-1.70955e-07
8.96295e-05
1.10247e-05
8.62094e-05
1.93641e-05
7.90253e-05
2.47616e-05
6.92626e-05
2.73131e-05
5.8147e-05
2.74346e-05
4.67695e-05
2.57586e-05
3.59606e-05
2.29895e-05
2.62346e-05
1.9753e-05
1.78349e-05
1.6478e-05
1.08472e-05
1.33159e-05
5.35121e-06
1.01133e-05
1.56718e-06
6.50885e-06
2.27797e-06
1.74801e-06
-4.3294e-06
5.54899e-06
-1.03709e-05
1.00807e-05
-1.32432e-05
1.42499e-05
-1.30614e-05
1.73111e-05
-1.06004e-05
1.88729e-05
-6.87796e-06
1.88124e-05
-2.79364e-06
1.71388e-05
1.08867e-06
1.38644e-05
4.60074e-06
8.89602e-06
7.93077e-06
1.96879e-06
1.15119e-05
-7.35e-06
1.5831e-05
-1.95853e-05
2.12666e-05
-3.52806e-05
2.80208e-05
-5.48939e-05
3.60794e-05
-7.86643e-05
4.52118e-05
-0.000106474
5.4958e-05
-0.000137743
6.46455e-05
-0.000171447
7.3483e-05
-0.000206279
8.07218e-05
-0.000240896
8.58039e-05
-0.000274123
8.84274e-05
-0.000305058
8.85246e-05
-0.000333082
8.61971e-05
-0.000357802
8.16479e-05
-0.000379002
7.51276e-05
-0.000396579
6.68952e-05
-0.000410503
5.71926e-05
-0.000420777
4.62336e-05
-0.000427415
3.42043e-05
-0.000430425
2.12799e-05
-0.000429784
7.65018e-06
-0.000425424
-6.51886e-06
-0.000417497
-2.11423e-05
-0.000405909
-3.59949e-05
-0.000390607
-5.08445e-05
-0.000371569
-6.54022e-05
-0.000348814
-7.93005e-05
-0.000322431
-9.20896e-05
-0.000292606
-0.000103236
-0.000259661
-0.000112137
-0.000224087
-0.000118154
-0.000186573
-0.000120679
-0.000148022
-0.000119219
-0.000109526
-0.000113474
-7.2229e-05
-0.000103453
-3.75128e-05
-8.95767e-05
-6.39226e-06
-7.25503e-05
2.01948e-05
-5.36659e-05
4.14193e-05
-3.41611e-05
5.67777e-05
-1.55294e-05
6.67479e-05
1.05458e-06
7.12739e-05
1.4838e-05
7.10004e-05
2.50351e-05
6.67542e-05
3.15593e-05
5.95585e-05
3.46303e-05
5.05216e-05
3.47954e-05
4.06873e-05
3.28238e-05
3.09065e-05
2.95339e-05
2.17829e-05
2.56016e-05
1.37152e-05
2.13835e-05
7.02568e-06
1.68029e-05
2.16267e-06
1.13719e-05
4.44064e-06
1.97698e-06
-6.30637e-06
6.02962e-06
-1.44235e-05
1.05091e-05
-1.77227e-05
1.41626e-05
-1.67149e-05
1.62247e-05
-1.26625e-05
1.63394e-05
-6.99261e-06
1.44009e-05
-8.55131e-07
1.03481e-05
5.14143e-06
4.06724e-06
1.08816e-05
-4.76763e-06
1.67656e-05
-1.66565e-05
2.34008e-05
-3.22092e-05
3.13837e-05
-5.20256e-05
4.1083e-05
-7.65151e-05
5.25103e-05
-0.000105715
6.52791e-05
-0.000139134
7.86308e-05
-0.000175721
9.15446e-05
-0.000214022
0.000102947
-0.000252489
0.00011195
-0.000289765
0.000117998
-0.000324837
0.000120876
-0.000357047
0.000120638
-0.000386029
0.000117506
-0.000411621
0.00011179
-0.000433792
0.000103819
-0.000452582
9.39172e-05
-0.000468064
8.23772e-05
-0.000480319
6.94482e-05
-0.000489422
5.53369e-05
-0.00049543
4.02118e-05
-0.00049836
2.42096e-05
-0.000498123
7.41357e-06
-0.000494777
-9.86494e-06
-0.000488362
-2.75576e-05
-0.000478738
-4.5619e-05
-0.00046577
-6.3812e-05
-0.000449326
-8.18466e-05
-0.000429274
-9.93522e-05
-0.000405512
-0.000115851
-0.000377998
-0.000130751
-0.000346785
-0.00014335
-0.000312091
-0.000152849
-0.000274342
-0.000158427
-0.000234227
-0.000159334
-0.000192708
-0.000154993
-0.000151
-0.000145162
-0.000110529
-0.000130048
-7.26845e-05
-0.000110395
-3.8836e-05
-8.75144e-05
-9.94027e-06
-6.30569e-05
1.33757e-05
-3.88454e-05
3.0912e-05
-1.64817e-05
4.29388e-05
2.81121e-06
4.97528e-05
1.82212e-05
5.19133e-05
2.93988e-05
5.01506e-05
3.63929e-05
4.53572e-05
3.95888e-05
3.85084e-05
3.96726e-05
3.05506e-05
3.74917e-05
2.2305e-05
3.38472e-05
1.44432e-05
2.92454e-05
7.56238e-06
2.36837e-05
2.36958e-06
1.65647e-05
6.81022e-06
2.12152e-06
-8.4279e-06
6.12783e-06
-1.84298e-05
1.00629e-05
-2.16578e-05
1.25748e-05
-1.92268e-05
1.29338e-05
-1.30216e-05
1.08504e-05
-4.90922e-06
6.20111e-06
3.7942e-06
-1.14147e-06
1.2484e-05
-1.15307e-05
2.12709e-05
-2.55042e-05
3.07391e-05
-4.37437e-05
4.16402e-05
-6.68732e-05
5.45131e-05
-9.52141e-05
6.9424e-05
-0.000128559
8.58549e-05
-0.000166046
0.000102766
-0.000206237
0.000118822
-0.000247414
0.000132722
-0.000287954
0.000143487
-0.000326591
0.000150587
-0.000362488
0.000153894
-0.00039518
0.000153569
-0.000424469
0.000149927
-0.000450329
0.000143366
-0.000472835
0.000134296
-0.000492116
0.000123099
-0.000508319
0.000110121
-0.000521597
9.56545e-05
-0.00053209
7.99416e-05
-0.000539928
6.31753e-05
-0.000545218
4.5501e-05
-0.000548014
2.70056e-05
-0.000548261
7.66134e-06
-0.000546088
-1.20383e-05
-0.000541488
-3.21576e-05
-0.000534318
-5.27895e-05
-0.000524412
-7.37181e-05
-0.000511558
-9.47001e-05
-0.000495504
-0.000115406
-0.000475965
-0.00013539
-0.000452654
-0.000154061
-0.000425329
-0.000170675
-0.000393841
-0.000184337
-0.000358222
-0.000194047
-0.000318773
-0.000198782
-0.000276168
-0.000197598
-0.00023148
-0.000189849
-0.000186181
-0.000175347
-0.000142016
-0.00015456
-0.000100827
-0.000128704
-6.42147e-05
-9.96693e-05
-3.32943e-05
-6.97658e-05
-8.5223e-06
-4.12538e-05
1.01827e-05
-1.58938e-05
2.32337e-05
5.17016e-06
3.12225e-05
2.141e-05
3.47565e-05
3.28589e-05
3.45479e-05
3.97973e-05
3.14103e-05
4.28102e-05
2.62268e-05
4.26752e-05
1.98788e-05
4.01952e-05
1.32006e-05
3.59236e-05
7.00418e-06
2.98801e-05
2.19534e-06
2.13735e-05
9.00557e-06
2.15186e-06
-1.05798e-05
5.7466e-06
-2.20246e-05
8.58458e-06
-2.44958e-05
9.30502e-06
-1.99472e-05
7.26904e-06
-1.09856e-05
2.26383e-06
9.59857e-08
-5.88727e-06
1.19453e-05
-1.74591e-05
2.40559e-05
-3.29969e-05
3.68087e-05
-5.32113e-05
5.09535e-05
-7.87316e-05
6.71606e-05
-0.0001098
8.55819e-05
-0.000146006
0.000105629
-0.000186196
0.000126045
-0.00022866
0.00014523
-0.000271519
0.000161681
-0.000313129
0.000174332
-0.000352304
0.000182663
-0.000388324
0.000186607
-0.000420834
0.000186405
-0.000449731
0.000182465
-0.000475069
0.000175265
-0.000496992
0.000165289
-0.000515697
0.000153001
-0.00053141
0.000138811
-0.000544363
0.000123075
-0.00055479
0.000106081
-0.000562908
8.80596e-05
-0.000568916
6.9184e-05
-0.000572984
4.95685e-05
-0.000575234
2.92558e-05
-0.000575735
8.16213e-06
-0.000574571
-1.32021e-05
-0.000571742
-3.49865e-05
-0.00056716
-5.73711e-05
-0.000560672
-8.02068e-05
-0.00055204
-0.000103332
-0.000540942
-0.000126504
-0.000526967
-0.000149365
-0.000509629
-0.000171399
-0.000488396
-0.000191908
-0.000462742
-0.000209991
-0.000432235
-0.000224554
-0.000396654
-0.000234363
-0.000356109
-0.000238143
-0.000311208
-0.00023475
-0.00026317
-0.000223385
-0.000213814
-0.000203916
-0.00016543
-0.000177088
-0.000120443
-0.000144656
-8.09494e-05
-0.000109259
-4.82527e-05
-7.39505e-05
-2.2641e-05
-4.15054e-05
-3.66163e-06
-1.38093e-05
9.45175e-06
8.29667e-06
1.75749e-05
2.47358e-05
2.14834e-05
3.58888e-05
2.19118e-05
4.23818e-05
1.96673e-05
4.49198e-05
1.56116e-05
4.42509e-05
1.06423e-05
4.08928e-05
5.69166e-06
3.48308e-05
1.76085e-06
2.53043e-05
1.07664e-05
2.00401e-06
-1.25838e-05
4.7247e-06
-2.47453e-05
5.85242e-06
-2.56235e-05
4.12632e-06
-1.82211e-05
-9.46579e-07
-5.91267e-06
-9.56379e-06
8.7132e-06
-2.19306e-05
2.43121e-05
-3.85298e-05
4.06551e-05
-6.00243e-05
5.83032e-05
-8.70332e-05
7.79624e-05
-0.000119757
9.98846e-05
-0.000157667
0.000123491
-0.000199429
0.000147392
-0.000243155
0.000169771
-0.00028685
0.000188925
-0.000328838
0.00020367
-0.00036796
0.000213453
-0.000403539
0.000218242
-0.000435278
0.000218345
-0.000463121
0.000214248
-0.000487172
0.000206516
-0.000507638
0.000195731
-0.000524792
0.000182443
-0.000538942
0.000167151
-0.000550415
0.000150284
-0.000559534
0.000132194
-0.000566609
0.000113155
-0.000571921
9.33717e-05
-0.00057572
7.2983e-05
-0.000578217
5.20659e-05
-0.000579592
3.06306e-05
-0.000580008
8.5784e-06
-0.00057951
-1.37e-05
-0.000578109
-3.63885e-05
-0.00057579
-5.96893e-05
-0.000572461
-8.35364e-05
-0.00056793
-0.000107863
-0.000561894
-0.000132539
-0.000553924
-0.000157335
-0.000543449
-0.000181875
-0.00052976
-0.000205596
-0.000512044
-0.000227707
-0.000489441
-0.000247158
-0.000461155
-0.000262649
-0.000426617
-0.00027268
-0.000385688
-0.00027568
-0.00033885
-0.000270223
-0.000287458
-0.000255307
-0.000233772
-0.000230774
-0.000180782
-0.000197647
-0.000131733
-0.000158308
-8.93873e-05
-0.000116296
-5.52944e-05
-7.55983e-05
-2.95303e-05
-3.95734e-05
-1.11331e-05
-1.01005e-05
1.21436e-06
1.23883e-05
8.64407e-06
2.84591e-05
1.21425e-05
3.88834e-05
1.25494e-05
4.45128e-05
1.07223e-05
4.6078e-05
7.57564e-06
4.40395e-05
4.07879e-06
3.83276e-05
1.23029e-06
2.81528e-05
1.19967e-05
1.59913e-06
-1.41829e-05
2.8952e-06
-2.60413e-05
1.6597e-06
-2.4388e-05
-3.10069e-06
-1.34607e-05
-1.17705e-05
2.75716e-06
-2.4542e-05
2.14847e-05
-4.17215e-05
4.14915e-05
-6.38721e-05
6.28057e-05
-9.15692e-05
8.60003e-05
-0.000125007
0.0001114
-0.000163634
0.000138511
-0.000206049
0.000165906
-0.000250261
0.000191604
-0.000294179
0.000213689
-0.000336062
0.000230807
-0.000374712
0.00024232
-0.000409455
0.000248196
-0.000440001
0.000248789
-0.000466323
0.000244667
-0.000488572
0.000236497
-0.000507024
0.000224968
-0.000522036
0.000210742
-0.00053401
0.000194417
-0.000543364
0.000176506
-0.000550509
0.000157429
-0.000555825
0.00013751
-0.000559656
0.000116986
-0.0005623
9.60158e-05
-0.000564009
7.4692e-05
-0.000564992
5.30491e-05
-0.000565435
3.10739e-05
-0.000565547
8.69022e-06
-0.000565333
-1.39137e-05
-0.000564813
-3.69086e-05
-0.000564055
-6.0447e-05
-0.000563046
-8.4546e-05
-0.000561688
-0.000109221
-0.000559781
-0.000134446
-0.000556994
-0.000160122
-0.00055283
-0.00018604
-0.000546593
-0.000211833
-0.000537379
-0.00023692
-0.000524092
-0.000260445
-0.000505507
-0.000281234
-0.000480408
-0.000297779
-0.000447798
-0.00030829
-0.000407181
-0.00031084
-0.00035887
-0.000303619
-0.000304307
-0.000285336
-0.00024625
-0.000255703
-0.00018855
-0.000216008
-0.000135479
-0.000169367
-9.0623e-05
-0.000120454
-5.57812e-05
-7.44152e-05
-3.06368e-05
-3.52449e-05
-1.35987e-05
-4.6498e-06
-2.72739e-06
1.75878e-05
3.45649e-06
3.26995e-05
6.10718e-06
4.18621e-05
6.20893e-06
4.59763e-05
4.71135e-06
4.55371e-05
2.58017e-06
4.04588e-05
7.52466e-07
2.99805e-05
1.27492e-05
8.65694e-07
-1.50486e-05
1.26461e-07
-2.53021e-05
-4.0171e-06
-2.02444e-05
-1.23366e-05
-5.14122e-06
-2.50588e-05
1.54793e-05
-4.23628e-05
3.87887e-05
-6.46347e-05
6.37634e-05
-9.23569e-05
9.05279e-05
-0.00012573
0.000119374
-0.00016426
0.00014993
-0.000206582
0.000180834
-0.000250682
0.000210005
-0.000294385
0.000235308
-0.000335849
0.000255153
-0.000373797
0.000268755
-0.00040751
0.000276032
-0.000436682
0.000277368
-0.000461305
0.000273412
-0.00048158
0.000264943
-0.00049786
0.000252777
-0.000510595
0.000237703
-0.000520284
0.000220431
-0.000527436
0.000201569
-0.000532536
0.000181606
-0.000536021
0.000160913
-0.000538269
0.000139758
-0.000539597
0.000118314
-0.000540262
9.66808e-05
-0.000540469
7.48991e-05
-0.000540383
5.29637e-05
-0.000540152
3.08426e-05
-0.000539954
8.49213e-06
-0.000539776
-1.40915e-05
-0.000539663
-3.70213e-05
-0.000539718
-6.03917e-05
-0.000539989
-8.42752e-05
-0.000540478
-0.000108733
-0.00054112
-0.000133804
-0.000541754
-0.000159488
-0.000542072
-0.000185722
-0.000541571
-0.000212335
-0.000539494
-0.000238997
-0.000534796
-0.000265144
-0.000526134
-0.000289895
-0.00051193
-0.000311983
-0.000490516
-0.000329704
-0.0004604
-0.000340957
-0.000420633
-0.000343386
-0.000371273
-0.000334697
-0.00031381
-0.000313165
-0.00025153
-0.000278288
-0.000189294
-0.000231604
-0.000132604
-0.000177143
-8.59715e-05
-0.000121048
-5.13133e-05
-6.9903e-05
-2.76662e-05
-2.82969e-05
-1.26259e-05
2.54751e-06
-3.67133e-06
2.37449e-05
9.91687e-07
3.71991e-05
2.69384e-06
4.42741e-05
2.53037e-06
4.57006e-05
1.48348e-06
4.15057e-05
4.27902e-07
3.10361e-05
1.31771e-05
-2.43825e-07
-1.48048e-05
-3.54369e-06
-2.20022e-05
-1.11268e-05
-1.26613e-05
-2.33655e-05
7.09743e-06
-4.0362e-05
3.24758e-05
-6.23097e-05
6.07364e-05
-8.95399e-05
9.09937e-05
-0.000122241
0.000123229
-0.000160024
0.000157157
-0.000201654
0.00019156
-0.000245171
0.000224351
-0.000288353
0.000253187
-0.000329237
0.000276192
-0.000366427
0.000292343
-0.000399119
0.000301447
-0.000426975
0.000303888
-0.000449996
0.000300389
-0.000468432
0.000291848
-0.000482714
0.000279224
-0.000493387
0.00026345
-0.000501048
0.000245364
-0.00050629
0.000225674
-0.000509662
0.000204942
-0.000511644
0.000183588
-0.000512632
0.000161901
-0.00051294
0.000140066
-0.000512808
0.000118182
-0.000512415
9.6287e-05
-0.00051189
7.43741e-05
-0.000511335
5.2409e-05
-0.00051084
3.03474e-05
-0.000510501
8.15346e-06
-0.000510329
-1.42632e-05
-0.000510377
-3.69735e-05
-0.000510731
-6.00377e-05
-0.000511471
-8.35355e-05
-0.000512666
-0.000107538
-0.00051436
-0.00013211
-0.000516546
-0.000157302
-0.000519127
-0.00018314
-0.000521864
-0.000209598
-0.000524298
-0.000236563
-0.000525679
-0.000263763
-0.00052489
-0.000290685
-0.000520409
-0.000316463
-0.000510345
-0.000339768
-0.000492587
-0.000358715
-0.000465107
-0.000370866
-0.000426434
-0.00037337
-0.000376274
-0.000363325
-0.000316139
-0.000338423
-0.000249872
-0.000297871
-0.000183517
-0.000243499
-0.000123998
-0.000180567
-7.67408e-05
-0.00011716
-4.3461e-05
-6.15767e-05
-2.21986e-05
-1.87149e-05
-9.61751e-06
1.11638e-05
-2.7697e-06
3.03513e-05
3.7224e-07
4.11322e-05
1.2355e-06
4.48373e-05
9.186e-07
4.18226e-05
2.99713e-07
3.1655e-05
1.34768e-05
-1.72822e-06
-1.30765e-05
-8.08176e-06
-1.56487e-05
-1.94281e-05
-1.31494e-06
-3.57012e-05
2.33705e-05
-5.69554e-05
5.373e-05
-8.33156e-05
8.70966e-05
-0.000114907
0.000122585
-0.00015145
0.000159772
-0.000191907
0.000197614
-0.000234464
0.000234117
-0.000276908
0.000266795
-0.000317161
0.00029344
-0.000353674
0.000312705
-0.000385522
0.000324191
-0.000412307
0.000328232
-0.000434024
0.000325605
-0.000450962
0.000317327
-0.000463624
0.00030451
-0.000472644
0.000288245
-0.00047871
0.000269516
-0.000482493
0.000249146
-0.000484597
0.000227778
-0.000485533
0.000205878
-0.000485704
0.00018376
-0.000485414
0.000161611
-0.000484875
0.000139526
-0.00048423
0.000117537
-0.00048357
9.56271e-05
-0.000482953
7.37573e-05
-0.000482419
5.18756e-05
-0.000482004
2.99318e-05
-0.000481747
7.89635e-06
-0.000481659
-1.43513e-05
-0.000481789
-3.68433e-05
-0.000482207
-5.96196e-05
-0.000482994
-8.27482e-05
-0.000484244
-0.000106288
-0.000486053
-0.000130301
-0.000488507
-0.000154848
-0.000491657
-0.00017999
-0.000495476
-0.000205779
-0.000499804
-0.000232235
-0.000504263
-0.000259304
-0.000508153
-0.000286794
-0.00051035
-0.000314267
-0.000509223
-0.000340894
-0.000502632
-0.000365306
-0.000488058
-0.00038544
-0.000462939
-0.000398489
-0.00042524
-0.000401024
-0.000374255
-0.000389408
-0.000311507
-0.000360619
-0.000241496
-0.00031351
-0.000171667
-0.000250396
-0.000110535
-0.000178292
-6.4235e-05
-0.000107877
-3.36882e-05
-4.92617e-05
-1.55899e-05
-6.93446e-06
-5.7374e-06
2.04988e-05
-9.82341e-07
3.63771e-05
7.51149e-07
4.31038e-05
8.60894e-07
4.17129e-05
3.57774e-07
3.21581e-05
1.38346e-05
-3.54765e-06
-9.52889e-06
-1.32917e-05
-5.90466e-06
-2.84255e-05
1.38188e-05
-4.86703e-05
4.36153e-05
-7.38924e-05
7.89522e-05
-0.00010409
0.000117294
-0.000139052
0.000157547
-0.000177967
0.000198687
-0.000219251
0.000238899
-0.000260784
0.00027565
-0.000300409
0.000306419
-0.000336407
0.000329438
-0.000367692
0.00034399
-0.000393771
0.00035027
-0.000414605
0.000349066
-0.0004305
0.0003415
-0.000442015
0.000328841
-0.00044986
0.000312354
-0.000454803
0.000293188
-0.000457586
0.000272299
-0.000458864
0.000250424
-0.000459172
0.000228086
-0.000458916
0.000205623
-0.000458384
0.000183228
-0.000457762
0.000160988
-0.000457157
0.000138922
-0.000456624
0.000117004
-0.000456184
9.51873e-05
-0.000455842
7.34149e-05
-0.000455597
5.16306e-05
-0.00045545
2.97852e-05
-0.000455402
7.84834e-06
-0.000455473
-1.42801e-05
-0.000455699
-3.66173e-05
-0.000456129
-5.91899e-05
-0.000456832
-8.20449e-05
-0.000457898
-0.000105222
-0.000459433
-0.000128766
-0.000461556
-0.000152725
-0.000464385
-0.000177161
-0.000468017
-0.000202146
-0.000472492
-0.00022776
-0.000477724
-0.000254072
-0.000483418
-0.000281101
-0.000488946
-0.000308738
-0.000493212
-0.000336628
-0.000494526
-0.000363993
-0.000490551
-0.000389414
-0.000478413
-0.000410627
-0.000455039
-0.000424398
-0.000417829
-0.000426618
-0.000365666
-0.000412782
-0.000300138
-0.000379038
-0.000226609
-0.000323925
-0.000154239
-0.000250662
-9.32341e-05
-0.000168882
-4.98685e-05
-9.26273e-05
-2.34085e-05
-3.33944e-05
-8.9897e-06
6.07993e-06
-1.96619e-06
2.93536e-05
7.61633e-07
4.0376e-05
1.15715e-06
4.13173e-05
5.5087e-07
3.27644e-05
1.43854e-05
-5.58124e-06
-3.94764e-06
-1.87635e-05
7.27759e-06
-3.76268e-05
3.26821e-05
-6.14973e-05
6.74858e-05
-9.01365e-05
0.000107591
-0.000123317
0.000150475
-0.000160427
0.000194656
-0.000200173
0.000238432
-0.000240624
0.00027935
-0.000279621
0.000314647
-0.000315284
0.000342083
-0.000346332
0.000360486
-0.000372125
0.000369783
-0.000392553
0.000370698
-0.000407907
0.00036442
-0.000418772
0.000352366
-0.000425918
0.000335987
-0.000430182
0.000316618
-0.00043237
0.000295376
-0.000433183
0.000273112
-0.000433182
0.000250423
-0.000432778
0.000227681
-0.000432242
0.000205087
-0.000431738
0.000182723
-0.000431344
0.000160594
-0.000431085
0.000138663
-0.000430955
0.000116873
-0.000430931
9.51636e-05
-0.000430991
7.34747e-05
-0.000431115
5.17548e-05
-0.000431291
2.99608e-05
-0.000431504
8.06153e-06
-0.000431776
-1.40074e-05
-0.000432133
-3.62608e-05
-0.000432606
-5.87169e-05
-0.000433248
-8.14027e-05
-0.00043413
-0.000104341
-0.000435342
-0.000127554
-0.000436994
-0.000151073
-0.000439216
-0.000174939
-0.00044215
-0.000199212
-0.000445931
-0.000223979
-0.000450652
-0.000249351
-0.0004563
-0.000275452
-0.00046266
-0.000302378
-0.000469173
-0.000330115
-0.000474776
-0.00035839
-0.000477729
-0.000386462
-0.000475523
-0.000412833
-0.00046495
-0.00043497
-0.000442463
-0.000449105
-0.000404936
-0.000450309
-0.000350913
-0.000433061
-0.00028222
-0.000392618
-0.000205469
-0.000327413
-0.000131959
-0.000242393
-7.34577e-05
-0.000151129
-3.52137e-05
-7.16384e-05
-1.39034e-05
-1.52303e-05
-3.42336e-06
1.88736e-05
7.8427e-07
3.61684e-05
1.56752e-06
4.05341e-05
8.01901e-07
3.353e-05
1.51873e-05
-7.6641e-06
3.71645e-06
-2.41555e-05
2.3769e-05
-4.64122e-05
5.49388e-05
-7.33891e-05
9.44628e-05
-0.0001047
0.000138902
-0.000139849
0.000185624
-0.000177836
0.000232644
-0.000217017
0.000277613
-0.000255331
0.000317665
-0.000290794
0.00035011
-0.00032191
0.000373198
-0.00034784
0.000386416
-0.000368349
0.000390293
-0.00038367
0.000386019
-0.000394379
0.00037513
-0.000401278
0.000359264
-0.000405259
0.000339968
-0.000407188
0.000318547
-0.000407814
0.000296002
-0.000407728
0.000273026
-0.000407349
0.000250044
-0.000406943
0.000227275
-0.000406655
0.000204799
-0.00040654
0.000182609
-0.000406603
0.000160657
-0.000406816
0.000138876
-0.000407142
0.000117199
-0.000407542
9.55635e-05
-0.000407985
7.39185e-05
-0.000408451
5.22207e-05
-0.000408925
3.04351e-05
-0.000409397
8.53315e-06
-0.000409884
-1.3521e-05
-0.000410402
-3.57422e-05
-0.000410975
-5.81439e-05
-0.000411639
-8.07395e-05
-0.00041244
-0.000103539
-0.000413444
-0.00012655
-0.000414732
-0.000149785
-0.00041641
-0.000173261
-0.000418608
-0.000197014
-0.000421483
-0.000221105
-0.000425199
-0.000245635
-0.000429902
-0.000270749
-0.00043565
-0.000296631
-0.000442301
-0.000323464
-0.00044936
-0.00035133
-0.00045578
-0.000380042
-0.000459747
-0.000408866
-0.000458554
-0.000436164
-0.000448649
-0.00045901
-0.000426023
-0.000472934
-0.000387099
-0.000471985
-0.000330251
-0.000449466
-0.000257892
-0.000399772
-0.000178516
-0.000321769
-0.000106038
-0.000223607
-5.30508e-05
-0.000124626
-2.18894e-05
-4.63918e-05
-6.25453e-06
3.23872e-06
2.7866e-07
2.96352e-05
1.82395e-06
3.89888e-05
1.02682e-06
3.43271e-05
1.62142e-05
-9.62972e-06
1.33462e-05
-2.91266e-05
4.32659e-05
-5.42465e-05
8.00587e-05
-8.36514e-05
0.000123868
-0.000116774
0.000172024
-0.000152842
0.000221693
-0.000190542
0.000270344
-0.000228038
0.000315108
-0.000263332
0.000352959
-0.00029474
0.000381518
-0.000321182
0.00039964
-0.000342231
0.000407466
-0.000358008
0.00040607
-0.000369037
0.000397048
-0.000376117
0.000382209
-0.000380174
0.000363322
-0.000382129
0.000341922
-0.000382782
0.000319201
-0.000382764
0.000295984
-0.000382513
0.000272775
-0.000382299
0.00024983
-0.000382256
0.000227233
-0.000382428
0.000204971
-0.0003828
0.000182982
-0.000383334
0.00016119
-0.000383978
0.000139521
-0.000384689
0.00011791
-0.000385431
9.63047e-05
-0.000386176
7.46643e-05
-0.000386911
5.29557e-05
-0.000387628
3.11519e-05
-0.000388325
9.22938e-06
-0.000389013
-1.28327e-05
-0.000389707
-3.50479e-05
-0.000390424
-5.74269e-05
-0.000391187
-7.99769e-05
-0.000392024
-0.000102701
-0.000392975
-0.0001256
-0.000394088
-0.000148671
-0.000395434
-0.000171916
-0.000397105
-0.000195343
-0.000399226
-0.000218983
-0.00040196
-0.0002429
-0.000405499
-0.00026721
-0.000410035
-0.000292095
-0.000415694
-0.000317805
-0.000422411
-0.000344613
-0.000429743
-0.00037271
-0.000436628
-0.000401981
-0.000441132
-0.00043166
-0.00044028
-0.000459862
-0.000430121
-0.000483093
-0.000406186
-0.00049592
-0.000364553
-0.000491099
-0.000303725
-0.0004606
-0.000227311
-0.000398183
-0.000146614
-0.000304303
-7.84477e-05
-0.000192792
-3.42045e-05
-9.0635e-05
-1.12202e-05
-1.97455e-05
-1.19019e-06
1.96051e-05
1.70649e-06
3.60921e-05
1.15886e-06
3.48747e-05
1.7373e-05
-1.13646e-05
2.47108e-05
-3.33441e-05
6.52453e-05
-6.06832e-05
0.000107398
-9.17542e-05
0.000154939
-0.000125803
0.000206073
-0.000161815
0.000257706
-0.000198267
0.000306795
-0.000233284
0.000350125
-0.00026507
0.000384745
-0.000292294
0.000408742
-0.000314278
0.000421623
-0.000330962
0.00042415
-0.000342764
0.000417872
-0.000350435
0.000404719
-0.000354909
0.000386683
-0.000357147
0.000365561
-0.000358009
0.000342784
-0.000358172
0.000319364
-0.000358111
0.000295922
-0.000358111
0.000272775
-0.00035831
0.000250029
-0.000358744
0.000227666
-0.00035939
0.000205616
-0.000360197
0.000183789
-0.000361111
0.000162103
-0.000362081
0.000140491
-0.000363069
0.000118898
-0.000364049
9.72852e-05
-0.000365007
7.56222e-05
-0.000365936
5.38848e-05
-0.000366837
3.20523e-05
-0.000367714
1.01065e-05
-0.000368579
-1.19679e-05
-0.000369443
-3.41831e-05
-0.000370322
-5.65486e-05
-0.000371228
-7.90702e-05
-0.00037218
-0.00010175
-0.000373196
-0.000124584
-0.000374301
-0.000147566
-0.00037553
-0.000170687
-0.000376934
-0.000193939
-0.000378593
-0.000217325
-0.000380624
-0.00024087
-0.000383192
-0.000264642
-0.000386511
-0.000288776
-0.00039082
-0.000313496
-0.000396311
-0.000339123
-0.000402987
-0.000366034
-0.00041044
-0.000394528
-0.000417553
-0.000424547
-0.000422194
-0.000455222
-0.000421025
-0.000484261
-0.000409614
-0.000507331
-0.000383026
-0.000517687
-0.000337174
-0.000506452
-0.000271182
-0.000464175
-0.000190848
-0.000384637
-0.000111452
-0.000272188
-5.19971e-05
-0.00015009
-1.8889e-05
-5.28536e-05
-3.92802e-06
4.64417e-06
1.08465e-06
3.10794e-05
1.16402e-06
3.47954e-05
1.8537e-05
-1.27172e-05
3.7428e-05
-3.65547e-05
8.90828e-05
-6.54049e-05
0.000136248
-9.73657e-05
0.000186899
-0.000131507
0.000240214
-0.000166633
0.000292832
-0.000201118
0.000341281
-0.000233183
0.00038219
-0.000261299
0.000412861
-0.0002845
0.000431942
-0.000302473
0.000439596
-0.000315464
0.000437141
-0.000324124
0.000426532
-0.000329352
0.000409947
-0.00033213
0.000389462
-0.000333373
0.000366803
-0.00033382
0.000343231
-0.000333996
0.00031954
-0.000334219
0.000296146
-0.000334644
0.0002732
-0.000335309
0.000250693
-0.000336187
0.000228545
-0.000337223
0.000206652
-0.000338357
0.000184923
-0.000339536
0.000163282
-0.000340721
0.000141676
-0.000341888
0.000120065
-0.000343024
9.84204e-05
-0.000344123
7.67214e-05
-0.000345188
5.49501e-05
-0.000346226
3.30903e-05
-0.000347246
1.11268e-05
-0.00034826
-1.09539e-05
-0.00034928
-3.31635e-05
-0.000350316
-5.55122e-05
-0.00035138
-7.80066e-05
-0.00035248
-0.000100649
-0.000353625
-0.000123439
-0.000354823
-0.000146368
-0.000356085
-0.000169425
-0.00035743
-0.000192594
-0.000358893
-0.000215862
-0.000360539
-0.000239224
-0.000362476
-0.000262704
-0.000364877
-0.000286375
-0.000367977
-0.000310395
-0.000372063
-0.000335037
-0.000377387
-0.000360709
-0.00038401
-0.000387906
-0.000391522
-0.000417035
-0.000398687
-0.000448057
-0.000403069
-0.000479879
-0.000400846
-0.000509555
-0.000387009
-0.000531524
-0.000356204
-0.000537258
-0.000304488
-0.000515891
-0.000232404
-0.000456721
-0.0001495
-0.000355092
-7.60444e-05
-0.000223546
-2.97897e-05
-9.91084e-05
-8.10606e-06
-1.70394e-05
-1.03526e-07
2.30769e-05
1.04116e-06
3.36507e-05
1.95782e-05
-1.35942e-05
5.10222e-05
-3.86013e-05
0.00011409
-6.82421e-05
0.000165889
-0.000100355
0.000219013
-0.000133859
0.000273718
-0.000167445
0.000326418
-0.000199493
0.000373329
-0.000228397
0.000411094
-0.000252926
0.00043739
-0.000272458
0.000451475
-0.000286993
0.000454131
-0.000297015
0.000447163
-0.000303337
0.000432854
-0.000306927
0.000413536
-0.000308738
0.000391273
-0.00030958
0.000367645
-0.000310044
0.000343695
-0.000310501
0.000319997
-0.000311137
0.000296782
-0.000312005
0.000274068
-0.000313083
0.000251771