/*--------------------------------*- C++ -*----------------------------------*\
| =========                 |                                                 |
| \\      /  F ield         | OpenFOAM: The Open Source CFD Toolbox           |
|  \\    /   O peration     | Version:  2406                                  |
|   \\  /    A nd           | Website:  www.openfoam.com                      |
|    \\/     M anipulation  |                                                 |
\*---------------------------------------------------------------------------*/
FoamFile
{
    version     2.0;
    format      ascii;
    arch        "LSB;label=32;scalar=64";
    class       volVectorField;
    location    "17.55";
    object      U;
}
// * * * * * * * * * * * * * * * * * * * * * * * * * * * * * * * * * * * * * //

dimensions      [0 1 -1 0 0 0 0];

internalField   nonuniform List<vector> 
3600
(
(4.25703e-05 -3.88429e-05 0)
(0.000112674 -3.45982e-05 0)
(0.000145946 -1.45452e-05 0)
(0.000101139 8.18051e-06 0)
(1.20246e-05 1.81797e-05 0)
(-0.000107784 2.46945e-05 0)
(-0.000243695 2.52866e-05 0)
(-0.000386809 2.75043e-05 0)
(-0.000542699 2.89626e-05 0)
(-0.000707433 3.36267e-05 0)
(-0.000893603 3.89805e-05 0)
(-0.00109829 4.7296e-05 0)
(-0.00133484 5.65827e-05 0)
(-0.00160051 6.83142e-05 0)
(-0.00190715 8.09145e-05 0)
(-0.00225146 9.51641e-05 0)
(-0.00264171 0.000109547 0)
(-0.00307192 0.000124121 0)
(-0.00354407 0.000137214 0)
(-0.00404659 0.000148217 0)
(-0.00457243 0.000155219 0)
(-0.00510163 0.000157027 0)
(-0.00561592 0.000151467 0)
(-0.0060851 0.000136916 0)
(-0.00647917 0.000111175 0)
(-0.00675836 7.27742e-05 0)
(-0.00688438 2.03537e-05 0)
(-0.00681412 -4.61417e-05 0)
(-0.00651103 -0.00012577 0)
(-0.00594193 -0.000215639 0)
(-0.00508859 -0.00031126 0)
(-0.00394541 -0.000406151 0)
(-0.00252988 -0.000492616 0)
(-0.000877905 -0.000562138 0)
(0.000948912 -0.000606649 0)
(0.00287338 -0.000619527 0)
(0.00479952 -0.000596856 0)
(0.00662945 -0.000538342 0)
(0.0082623 -0.000447609 0)
(0.0096158 -0.000332236 0)
(0.010622 -0.000202385 0)
(0.0112488 -6.99133e-05 0)
(0.0114858 5.42335e-05 0)
(0.0113625 0.000160601 0)
(0.0109206 0.000243648 0)
(0.0102317 0.000300547 0)
(0.0093587 0.000332728 0)
(0.00838164 0.000342806 0)
(0.00735116 0.000336229 0)
(0.00633055 0.000317152 0)
(0.00534086 0.000291644 0)
(0.00442243 0.000262523 0)
(0.00356612 0.000235121 0)
(0.00279605 0.00020938 0)
(0.00208331 0.000189347 0)
(0.00145117 0.000168576 0)
(0.000877082 0.000147194 0)
(0.000411951 0.000104637 0)
(8.58292e-05 4.44684e-05 0)
(-3.61767e-05 -3.6691e-05 0)
(4.22696e-05 -0.00011619 0)
(4.76085e-05 -4.95464e-05 0)
(-6.70399e-05 6.89336e-05 0)
(-0.000334599 0.000193133 0)
(-0.000709235 0.000264486 0)
(-0.00115625 0.000315208 0)
(-0.00165268 0.000338288 0)
(-0.00217658 0.0003629 0)
(-0.00273567 0.000383909 0)
(-0.00332148 0.000416707 0)
(-0.00395441 0.000454543 0)
(-0.00463125 0.000505385 0)
(-0.00537482 0.000563317 0)
(-0.00618381 0.000632623 0)
(-0.00707893 0.000707901 0)
(-0.00805765 0.000790033 0)
(-0.00913341 0.000872482 0)
(-0.0102965 0.000952273 0)
(-0.0115459 0.00102073 0)
(-0.0128571 0.00107127 0)
(-0.014208 0.00109318 0)
(-0.0155532 0.00107731 0)
(-0.0168457 0.00101202 0)
(-0.0180177 0.000887739 0)
(-0.0190001 0.000694668 0)
(-0.0197091 0.000426875 0)
(-0.0200654 8.14098e-05 0)
(-0.0199863 -0.00033809 0)
(-0.0194039 -0.000821911 0)
(-0.0182614 -0.00135184 0)
(-0.0165298 -0.0019026 0)
(-0.014204 -0.00244152 0)
(-0.011317 -0.00293169 0)
(-0.0079321 -0.00333389 0)
(-0.00415311 -0.00361141 0)
(-0.000110257 -0.00373335 0)
(0.00403443 -0.00367964 0)
(0.00810945 -0.00344394 0)
(0.0119314 -0.00303624 0)
(0.0153351 -0.00248298 0)
(0.0181693 -0.00182467 0)
(0.020331 -0.00111201 0)
(0.0217503 -0.000398579 0)
(0.0224238 0.000264572 0)
(0.0223803 0.000837378 0)
(0.0217114 0.00129227 0)
(0.0205163 0.00161925 0)
(0.0189369 0.00182039 0)
(0.0170855 0.00191182 0)
(0.0150993 0.0019131 0)
(0.0130548 0.00185115 0)
(0.0110518 0.00174654 0)
(0.00911179 0.00162434 0)
(0.00729788 0.00149347 0)
(0.00558864 0.00136882 0)
(0.00403928 0.00123184 0)
(0.00262773 0.00107739 0)
(0.00145251 0.000839316 0)
(0.000545761 0.000521447 0)
(5.3691e-05 9.10886e-05 0)
(1.33515e-05 -0.000138743 0)
(-0.000134624 9.11938e-05 0)
(-0.000508857 0.000393838 0)
(-0.0010892 0.000684884 0)
(-0.00182677 0.000865595 0)
(-0.00266021 0.000993337 0)
(-0.00356937 0.00106267 0)
(-0.00451955 0.00112816 0)
(-0.00552352 0.00118642 0)
(-0.0065672 0.00126612 0)
(-0.00767715 0.00135871 0)
(-0.00884919 0.00147851 0)
(-0.0101137 0.00161712 0)
(-0.0114719 0.00178157 0)
(-0.0129528 0.00196284 0)
(-0.0145576 0.00216033 0)
(-0.016306 0.00236053 0)
(-0.0181888 0.00255352 0)
(-0.020205 0.00271918 0)
(-0.0223231 0.00283896 0)
(-0.0245113 0.00288735 0)
(-0.0267078 0.00284077 0)
(-0.0288461 0.00267274 0)
(-0.0308342 0.00236119 0)
(-0.0325773 0.00188648 0)
(-0.0339642 0.00123792 0)
(-0.0348892 0.000413354 0)
(-0.0352439 -0.000575471 0)
(-0.0349376 -0.00170372 0)
(-0.0338924 -0.00293045 0)
(-0.0320614 -0.00420148 0)
(-0.0294236 -0.00544956 0)
(-0.0260001 -0.00660004 0)
(-0.0218462 -0.00757415 0)
(-0.0170641 -0.00829723 0)
(-0.0117901 -0.00870409 0)
(-0.00620297 -0.00874814 0)
(-0.000502713 -0.0084064 0)
(0.00508515 -0.00768599 0)
(0.0103411 -0.00662508 0)
(0.0150478 -0.00529209 0)
(0.0190303 -0.00377952 0)
(0.0221443 -0.00219397 0)
(0.0243188 -0.000644673 0)
(0.0255261 0.000771037 0)
(0.0258213 0.00197646 0)
(0.0252867 0.00292576 0)
(0.0240721 0.00360193 0)
(0.022314 0.00401883 0)
(0.0201915 0.00420821 0)
(0.0178258 0.00421938 0)
(0.0153689 0.00409992 0)
(0.0128828 0.00390256 0)
(0.0104752 0.00365727 0)
(0.00814851 0.00339278 0)
(0.00599447 0.00308603 0)
(0.00399757 0.00271699 0)
(0.00230009 0.00218044 0)
(0.000928757 0.00144957 0)
(0.000132217 0.000454501 0)
(-2.89886e-05 -3.64208e-05 0)
(-0.000383426 0.000486936 0)
(-0.00108373 0.00104635 0)
(-0.00203006 0.00154066 0)
(-0.00317268 0.00185434 0)
(-0.00442003 0.00207519 0)
(-0.00576294 0.00220563 0)
(-0.00715389 0.00232528 0)
(-0.0086151 0.00243428 0)
(-0.010126 0.00257465 0)
(-0.0117218 0.00273779 0)
(-0.0133979 0.0029457 0)
(-0.0151955 0.00318939 0)
(-0.0171218 0.00347984 0)
(-0.0192191 0.00380521 0)
(-0.0214974 0.00416304 0)
(-0.0239884 0.0045315 0)
(-0.0266891 0.00489121 0)
(-0.0296044 0.00520733 0)
(-0.032702 0.0054455 0)
(-0.0359466 0.0055615 0)
(-0.0392664 0.00551362 0)
(-0.0425821 0.00525741 0)
(-0.0457828 0.00475592 0)
(-0.0487523 0.00397795 0)
(-0.0513531 0.00290682 0)
(-0.0534503 0.00154005 0)
(-0.0549021 -0.000103859 0)
(-0.0555819 -0.00198659 0)
(-0.0553724 -0.00404639 0)
(-0.0541865 -0.00620181 0)
(-0.0519629 -0.00835188 0)
(-0.0486851 -0.0103834 0)
(-0.0443757 -0.0121747 0)
(-0.0391123 -0.0136071 0)
(-0.0330178 -0.0145716 0)
(-0.0262717 -0.0149824 0)
(-0.0190912 -0.0147849 0)
(-0.0117374 -0.0139668 0)
(-0.00448315 -0.0125622 0)
(0.00238487 -0.0106534 0)
(0.00861034 -0.00836526 0)
(0.0139616 -0.00585348 0)
(0.0182813 -0.00328839 0)
(0.0214631 -0.000834524 0)
(0.0234985 0.00136637 0)
(0.0244244 0.00321244 0)
(0.0243679 0.00464607 0)
(0.0234631 0.00565855 0)
(0.0219084 0.00627791 0)
(0.0198557 0.00656499 0)
(0.0175014 0.00659042 0)
(0.0149496 0.00643399 0)
(0.0123569 0.00615245 0)
(0.0097588 0.00579214 0)
(0.00728949 0.00533673 0)
(0.00494608 0.00475137 0)
(0.00291236 0.00390204 0)
(0.00121397 0.00269848 0)
(0.000190375 0.00100005 0)
(-7.26714e-05 0.000194145 0)
(-0.000651974 0.00116213 0)
(-0.00170726 0.00206272 0)
(-0.0030461 0.00280016 0)
(-0.00461627 0.00326877 0)
(-0.00629074 0.00359466 0)
(-0.00807491 0.00379705 0)
(-0.00990753 0.00398082 0)
(-0.0118247 0.00415299 0)
(-0.0138007 0.00436925 0)
(-0.0158847 0.00462457 0)
(-0.018076 0.00495073 0)
(-0.0204349 0.00534194 0)
(-0.0229817 0.00581505 0)
(-0.025782 0.00635712 0)
(-0.028863 0.00696315 0)
(-0.0322781 0.00760131 0)
(-0.036038 0.008239 0)
(-0.0401606 0.00882213 0)
(-0.0446174 0.00929478 0)
(-0.0493734 0.00958809 0)
(-0.054347 0.00963567 0)
(-0.0594429 0.00936868 0)
(-0.0645238 0.00872854 0)
(-0.0694393 0.0076659 0)
(-0.0740071 0.00615164 0)
(-0.0780416 0.00417732 0)
(-0.081343 0.00176367 0)
(-0.0837247 -0.00104028 0)
(-0.0850089 -0.00415265 0)
(-0.0850513 -0.00746292 0)
(-0.0837374 -0.010832 0)
(-0.081004 -0.0141011 0)
(-0.0768341 -0.0170962 0)
(-0.0712755 -0.0196419 0)
(-0.0644323 -0.0215707 0)
(-0.0564807 -0.0227399 0)
(-0.0476527 -0.0230439 0)
(-0.0382456 -0.0224315 0)
(-0.028592 -0.0209133 0)
(-0.0190599 -0.0185712 0)
(-0.0100053 -0.0155528 0)
(-0.00176938 -0.0120618 0)
(0.00538049 -0.00833604 0)
(0.0112373 -0.00462152 0)
(0.0157102 -0.00114408 0)
(0.0187761 0.00191581 0)
(0.0205279 0.00443753 0)
(0.0210881 0.00636825 0)
(0.0206658 0.00771545 0)
(0.0194386 0.00853796 0)
(0.0176428 0.00892346 0)
(0.0154252 0.00897528 0)
(0.0129922 0.00878137 0)
(0.0104182 0.0084079 0)
(0.00788295 0.00785536 0)
(0.00540642 0.00707363 0)
(0.00321528 0.00590709 0)
(0.00134878 0.00418155 0)
(0.000213396 0.00166787 0)
(-0.000119883 0.000575176 0)
(-0.000940619 0.00215069 0)
(-0.00236895 0.00347119 0)
(-0.00411353 0.00448016 0)
(-0.00611914 0.00511291 0)
(-0.00822187 0.00554549 0)
(-0.010445 0.00582332 0)
(-0.012714 0.00607709 0)
(-0.0150838 0.00632395 0)
(-0.0175266 0.00663466 0)
(-0.0201138 0.00701243 0)
(-0.0228564 0.0075028 0)
(-0.0258453 0.00810817 0)
(-0.029125 0.00885418 0)
(-0.0327965 0.00972854 0)
(-0.0369146 0.0107226 0)
(-0.0415628 0.0117918 0)
(-0.0467712 0.0128853 0)
(-0.052573 0.0139234 0)
(-0.0589416 0.014821 0)
(-0.0658349 0.0154756 0)
(-0.0731475 0.0157861 0)
(-0.0807484 0.0156482 0)
(-0.0884468 0.0149701 0)
(-0.0960281 0.0136737 0)
(-0.103236 0.0117087 0)
(-0.10981 0.00905539 0)
(-0.115477 0.00573507 0)
(-0.119988 0.00180957 0)
(-0.123113 -0.00261449 0)
(-0.124664 -0.00739178 0)
(-0.124491 -0.0123397 0)
(-0.122495 -0.0172487 0)
(-0.118628 -0.0218878 0)
(-0.112903 -0.0260186 0)
(-0.105395 -0.0294054 0)
(-0.0962557 -0.0318347 0)
(-0.085708 -0.03313 0)
(-0.0740625 -0.033176 0)
(-0.0616945 -0.0319325 0)
(-0.0490484 -0.0294533 0)
(-0.0365899 -0.0258873 0)
(-0.0247944 -0.0214742 0)
(-0.014076 -0.0165205 0)
(-0.0047822 -0.0113668 0)
(0.00287674 -0.00634645 0)
(0.00879119 -0.00174644 0)
(0.0130033 0.00222118 0)
(0.0156177 0.00543387 0)
(0.0168529 0.00785776 0)
(0.0169143 0.00953355 0)
(0.016081 0.0105559 0)
(0.0145473 0.0110459 0)
(0.0125728 0.011123 0)
(0.0102789 0.0108755 0)
(0.00789363 0.010328 0)
(0.00547161 0.00941857 0)
(0.00327886 0.00797435 0)
(0.00137965 0.00573085 0)
(0.000217242 0.00236589 0)
(-0.00016783 0.00110303 0)
(-0.00123605 0.00345231 0)
(-0.00304301 0.00527296 0)
(-0.00519573 0.00658266 0)
(-0.0076365 0.00738838 0)
(-0.010164 0.0079288 0)
(-0.012822 0.00828571 0)
(-0.0155244 0.00861792 0)
(-0.0183505 0.00895834 0)
(-0.0212771 0.00939677 0)
(-0.0244087 0.00995245 0)
(-0.0277798 0.0106906 0)
(-0.0315268 0.0116285 0)
(-0.0357313 0.012803 0)
(-0.0405424 0.014203 0)
(-0.04605 0.0158119 0)
(-0.0523723 0.0175658 0)
(-0.0595557 0.0193851 0)
(-0.06764 0.0211522 0)
(-0.0765817 0.022737 0)
(-0.0863045 0.0239862 0)
(-0.0966424 0.0247448 0)
(-0.107385 0.0248549 0)
(-0.118245 0.0241772 0)
(-0.12891 0.0225972 0)
(-0.139033 0.0200449 0)
(-0.148284 0.0164996 0)
(-0.156344 0.0119996 0)
(-0.162943 0.00663702 0)
(-0.167844 0.000557292 0)
(-0.170861 -0.0060513 0)
(-0.17184 -0.0129611 0)
(-0.170674 -0.019916 0)
(-0.167285 -0.0266342 0)
(-0.161647 -0.032821 0)
(-0.153775 -0.0381744 0)
(-0.143759 -0.042405 0)
(-0.131763 -0.0452504 0)
(-0.118054 -0.0465049 0)
(-0.102998 -0.0460414 0)
(-0.0870777 -0.0438439 0)
(-0.07085 -0.0400218 0)
(-0.054937 -0.0348208 0)
(-0.0399411 -0.0286035 0)
(-0.026413 -0.0218163 0)
(-0.014752 -0.0149301 0)
(-0.00521324 -0.00838181 0)
(0.00215565 -0.00251922 0)
(0.00742672 0.00242715 0)
(0.010828 0.00635462 0)
(0.0126042 0.00926756 0)
(0.0130884 0.0112584 0)
(0.0125357 0.0124614 0)
(0.0112673 0.0130291 0)
(0.00946292 0.0130749 0)
(0.00740346 0.0126537 0)
(0.00518998 0.0116976 0)
(0.00312667 0.0100218 0)
(0.00131175 0.0072794 0)
(0.000201476 0.0030624 0)
(-0.00021926 0.00179336 0)
(-0.00154387 0.00508563 0)
(-0.00373415 0.00748058 0)
(-0.00629475 0.00911344 0)
(-0.00916714 0.0100952 0)
(-0.0121147 0.0107417 0)
(-0.0152052 0.0111818 0)
(-0.0183449 0.0116065 0)
(-0.0216454 0.0120722 0)
(-0.0250972 0.0126948 0)
(-0.0288521 0.0135193 0)
(-0.0329826 0.0146384 0)
(-0.0376854 0.0160899 0)
(-0.0430912 0.0179226 0)
(-0.0494042 0.0201223 0)
(-0.0567493 0.0226551 0)
(-0.0652702 0.0254237 0)
(-0.0750098 0.0283012 0)
(-0.0859827 0.0311103 0)
(-0.0980839 0.0336498 0)
(-0.111147 0.0356891 0)
(-0.124887 0.0369952 0)
(-0.138963 0.0373425 0)
(-0.152963 0.0365439 0)
(-0.166484 0.0344662 0)
(-0.179122 0.0310498 0)
(-0.190541 0.026308 0)
(-0.200447 0.0203258 0)
(-0.20862 0.0132453 0)
(-0.21488 0.0052576 0)
(-0.219092 -0.00341166 0)
(-0.221137 -0.0125051 0)
(-0.220919 -0.0217416 0)
(-0.218337 -0.0308144 0)
(-0.213313 -0.0393967 0)
(-0.205777 -0.0471411 0)
(-0.195705 -0.053693 0)
(-0.183133 -0.0587016 0)
(-0.168201 -0.0618498 0)
(-0.151168 -0.0628831 0)
(-0.132457 -0.0616559 0)
(-0.112644 -0.0581667 0)
(-0.0924561 -0.0525959 0)
(-0.0726952 -0.0453091 0)
(-0.0541812 -0.0368382 0)
(-0.0376115 -0.0278133 0)
(-0.0235065 -0.0188774 0)
(-0.0121046 -0.010587 0)
(-0.00342442 -0.00334912 0)
(0.00275386 0.00261468 0)
(0.00672629 0.00724307 0)
(0.00890129 0.0106134 0)
(0.00962055 0.0128701 0)
(0.00928538 0.0142018 0)
(0.00815201 0.0147531 0)
(0.00656331 0.014616 0)
(0.00467951 0.0137266 0)
(0.0028424 0.0118943 0)
(0.00119103 0.00870755 0)
(0.000178234 0.00369328 0)
(-0.00027187 0.00264173 0)
(-0.00185562 0.00704193 0)
(-0.00442817 0.0100815 0)
(-0.00739172 0.0120583 0)
(-0.0106899 0.0132199 0)
(-0.0140537 0.0139745 0)
(-0.0175795 0.0145092 0)
(-0.0211719 0.0150544 0)
(-0.0249844 0.0157009 0)
(-0.0290342 0.0166009 0)
(-0.0335358 0.017838 0)
(-0.0386145 0.0195395 0)
(-0.0445399 0.0217673 0)
(-0.0514966 0.0245761 0)
(-0.0597399 0.0279368 0)
(-0.0694125 0.0317773 0)
(-0.0806533 0.0359408 0)
(-0.0934551 0.0402201 0)
(-0.107745 0.0443409 0)
(-0.123285 0.0479937 0)
(-0.139747 0.0508411 0)
(-0.156674 0.0525608 0)
(-0.173583 0.0528742 0)
(-0.189969 0.0515866 0)
(-0.205398 0.0485999 0)
(-0.219499 0.0439185 0)
(-0.232013 0.0376314 0)
(-0.242753 0.0298961 0)
(-0.251614 0.0209133 0)
(-0.258525 0.0109144 0)
(-0.263448 0.000145774 0)
(-0.266332 -0.0111312 0)
(-0.267116 -0.0226434 0)
(-0.265697 -0.0340961 0)
(-0.26195 -0.0451704 0)
(-0.25571 -0.0555129 0)
(-0.246814 -0.0647377 0)
(-0.235112 -0.0724281 0)
(-0.220527 -0.0781591 0)
(-0.203093 -0.0815254 0)
(-0.183029 -0.0821954 0)
(-0.160771 -0.0799674 0)
(-0.137013 -0.0748422 0)
(-0.11267 -0.0670703 0)
(-0.0888249 -0.0571773 0)
(-0.0665683 -0.0459192 0)
(-0.046858 -0.0341859 0)
(-0.0303226 -0.0228439 0)
(-0.0172317 -0.0125992 0)
(-0.0074597 -0.00389569 0)
(-0.000671813 0.00307661 0)
(0.00364236 0.00835442 0)
(0.00595281 0.0120904 0)
(0.0067769 0.0145178 0)
(0.00647794 0.0158258 0)
(0.00547944 0.0161558 0)
(0.00401645 0.0154623 0)
(0.00247365 0.0135607 0)
(0.00103661 0.00999868 0)
(0.000149805 0.00426035 0)
(-0.000327631 0.00366317 0)
(-0.00217524 0.00933732 0)
(-0.0051293 0.0130871 0)
(-0.00849146 0.0154256 0)
(-0.012211 0.0167711 0)
(-0.0159912 0.0176407 0)
(-0.019963 0.0182931 0)
(-0.0240374 0.0190074 0)
(-0.0284221 0.0199234 0)
(-0.0331751 0.0212423 0)
(-0.0385885 0.0230986 0)
(-0.0448522 0.0256581 0)
(-0.0523123 0.0290023 0)
(-0.0611983 0.0331753 0)
(-0.0717929 0.0381072 0)
(-0.0842155 0.0436514 0)
(-0.0985399 0.0495485 0)
(-0.114632 0.0554621 0)
(-0.132247 0.0609744 0)
(-0.150934 0.0656352 0)
(-0.170162 0.0689972 0)
(-0.189308 0.0706827 0)
(-0.2078 0.0704239 0)
(-0.225127 0.0680936 0)
(-0.240925 0.0636971 0)
(-0.254947 0.0573528 0)
(-0.26709 0.0492548 0)
(-0.27733 0.0396434 0)
(-0.285727 0.0287737 0)
(-0.292354 0.0169008 0)
(-0.297295 0.00426763 0)
(-0.300593 -0.00889175 0)
(-0.302251 -0.0223487 0)
(-0.302192 -0.0358635 0)
(-0.300276 -0.0491737 0)
(-0.296271 -0.0619733 0)
(-0.28989 -0.0739013 0)
(-0.280792 -0.0845293 0)
(-0.268643 -0.0933666 0)
(-0.253159 -0.0998766 0)
(-0.234209 -0.103522 0)
(-0.211881 -0.103832 0)
(-0.186597 -0.100498 0)
(-0.159143 -0.0934773 0)
(-0.130691 -0.0830926 0)
(-0.102668 -0.0700646 0)
(-0.0765847 -0.0554652 0)
(-0.0537201 -0.0405383 0)
(-0.0349097 -0.0264621 0)
(-0.0203739 -0.014103 0)
(-0.0098575 -0.0039312 0)
(-0.0027552 0.00397452 0)
(0.00158248 0.00975932 0)
(0.00384839 0.0137158 0)
(0.00456445 0.0161014 0)
(0.00426987 0.0171294 0)
(0.00329837 0.0167965 0)
(0.00209014 0.0149408 0)
(0.00088531 0.0110977 0)
(0.000125075 0.00473631 0)
(-0.000383756 0.00484891 0)
(-0.00249378 0.0119545 0)
(-0.00582369 0.016475 0)
(-0.00957684 0.0191917 0)
(-0.0137128 0.0207291 0)
(-0.0179122 0.0217299 0)
(-0.022348 0.0225396 0)
(-0.0269478 0.0234993 0)
(-0.0319861 0.0248145 0)
(-0.0375762 0.0267499 0)
(-0.0440992 0.0294995 0)
(-0.0518118 0.0332639 0)
(-0.0611254 0.0381265 0)
(-0.0722853 0.0440881 0)
(-0.0855516 0.0509928 0)
(-0.10095 0.0585637 0)
(-0.118403 0.0663776 0)
(-0.137556 0.0739123 0)
(-0.157917 0.080572 0)
(-0.178791 0.0857705 0)
(-0.199466 0.0890024 0)
(-0.219229 0.0899195 0)
(-0.23753 0.088359 0)
(-0.253959 0.084343 0)
(-0.268322 0.0780377 0)
(-0.28057 0.0697075 0)
(-0.290804 0.0596618 0)
(-0.299196 0.0482167 0)
(-0.305974 0.035664 0)
(-0.311356 0.0222599 0)
(-0.315544 0.00821789 0)
(-0.318673 -0.00628153 0)
(-0.320822 -0.0210823 0)
(-0.321966 -0.0360318 0)
(-0.321995 -0.0509633 0)
(-0.320676 -0.0656683 0)
(-0.317671 -0.0798746 0)
(-0.312524 -0.0932182 0)
(-0.304696 -0.105227 0)
(-0.293601 -0.115313 0)
(-0.278693 -0.122789 0)
(-0.259567 -0.126923 0)
(-0.236113 -0.127028 0)
(-0.208647 -0.122606 0)
(-0.17804 -0.113514 0)
(-0.145731 -0.100125 0)
(-0.113622 -0.083417 0)
(-0.083754 -0.0648874 0)
(-0.0578952 -0.0462898 0)
(-0.0370868 -0.0291982 0)
(-0.0215198 -0.0146769 0)
(-0.0106475 -0.00312886 0)
(-0.00362684 0.00550492 0)
(0.000487202 0.0115831 0)
(0.00245617 0.0154687 0)
(0.0029969 0.0174888 0)
(0.00258131 0.0177193 0)
(0.00173154 0.0160497 0)
(0.000754629 0.0120348 0)
(0.000106488 0.00515063 0)
(-0.000441875 0.00621365 0)
(-0.00281365 0.0149092 0)
(-0.00651316 0.020259 0)
(-0.0106505 0.0233722 0)
(-0.0151997 0.0251161 0)
(-0.0198264 0.0262779 0)
(-0.0247524 0.0273075 0)
(-0.0299335 0.0286238 0)
(-0.035723 0.0305169 0)
(-0.0423003 0.033326 0)
(-0.0501377 0.0373052 0)
(-0.0595467 0.0426705 0)
(-0.0709719 0.049471 0)
(-0.0846202 0.0576089 0)
(-0.100654 0.0667767 0)
(-0.118913 0.0764946 0)
(-0.139076 0.086112 0)
(-0.160498 0.0948842 0)
(-0.182417 0.10205 0)
(-0.203937 0.106955 0)
(-0.224267 0.10914 0)
(-0.242733 0.108402 0)
(-0.258933 0.104779 0)
(-0.272672 0.0985063 0)
(-0.284 0.089943 0)
(-0.293106 0.0795016 0)
(-0.300306 0.0675874 0)
(-0.305939 0.0545624 0)
(-0.310365 0.0407218 0)
(-0.313892 0.0262922 0)
(-0.316791 0.0114346 0)
(-0.319249 -0.00373986 0)
(-0.321395 -0.0191574 0)
(-0.323261 -0.0347601 0)
(-0.324801 -0.0504886 0)
(-0.325848 -0.0662555 0)
(-0.326125 -0.0819199 0)
(-0.325195 -0.0972512 0)
(-0.322479 -0.111894 0)
(-0.317234 -0.125333 0)
(-0.308617 -0.13687 0)
(-0.295749 -0.145629 0)
(-0.27788 -0.150613 0)
(-0.254574 -0.150827 0)
(-0.225954 -0.145476 0)
(-0.192901 -0.134228 0)
(-0.157156 -0.117486 0)
(-0.121183 -0.0965466 0)
(-0.087747 -0.0735128 0)
(-0.0592083 -0.0508232 0)
(-0.0368873 -0.0305894 0)
(-0.0207988 -0.0140065 0)
(-0.0100741 -0.00136784 0)
(-0.00347132 0.0076905 0)
(0.000117827 0.0136748 0)
(0.00168542 0.0170925 0)
(0.0019081 0.0181583 0)
(0.00143613 0.0168594 0)
(0.000666526 0.0128063 0)
(9.9639e-05 0.00550678 0)
(-0.000498334 0.00774059 0)
(-0.00312336 0.0181717 0)
(-0.00717997 0.0244046 0)
(-0.01169 0.0279336 0)
(-0.0166474 0.0299058 0)
(-0.0217092 0.0312728 0)
(-0.0271547 0.0326088 0)
(-0.0329782 0.0344281 0)
(-0.0396215 0.0371226 0)
(-0.0473333 0.0411097 0)
(-0.0566661 0.0466904 0)
(-0.0679553 0.0540572 0)
(-0.0816231 0.0631657 0)
(-0.0977615 0.0737437 0)
(-0.116344 0.0852504 0)
(-0.136936 0.0969306 0)
(-0.158908 0.107866 0)
(-0.181317 0.117105 0)
(-0.203192 0.123801 0)
(-0.223559 0.127355 0)
(-0.241701 0.127493 0)
(-0.257136 0.124266 0)
(-0.269733 0.117987 0)
(-0.279586 0.109132 0)
(-0.287022 0.0982413 0)
(-0.292449 0.0858363 0)
(-0.296344 0.0723673 0)
(-0.299139 0.0581894 0)
(-0.301237 0.0435565 0)
(-0.30295 0.028635 0)
(-0.304532 0.013518 0)
(-0.306156 -0.00175276 0)
(-0.307947 -0.0171726 0)
(-0.309962 -0.0327562 0)
(-0.312218 -0.0485266 0)
(-0.314649 -0.0644976 0)
(-0.317115 -0.0806548 0)
(-0.31934 -0.0969262 0)
(-0.320892 -0.113139 0)
(-0.321124 -0.128969 0)
(-0.319164 -0.143877 0)
(-0.313917 -0.15706 0)
(-0.30416 -0.167431 0)
(-0.288704 -0.173666 0)
(-0.266679 -0.174354 0)
(-0.237876 -0.168274 0)
(-0.2031 -0.154795 0)
(-0.164387 -0.134314 0)
(-0.124885 -0.10856 0)
(-0.0882498 -0.0804562 0)
(-0.057591 -0.0534066 0)
(-0.0344337 -0.0301028 0)
(-0.0185084 -0.0118421 0)
(-0.00842277 0.00145333 0)
(-0.00262887 0.0104112 0)
(0.000272886 0.0158062 0)
(0.00126753 0.0180815 0)
(0.0012098 0.017397 0)
(0.000625828 0.0134661 0)
(0.000105311 0.00584967 0)
(-0.000554587 0.00944292 0)
(-0.00342385 0.0217566 0)
(-0.00782268 0.0289279 0)
(-0.0126933 0.032898 0)
(-0.0180534 0.0351323 0)
(-0.0235596 0.0367681 0)
(-0.029555 0.0385259 0)
(-0.0360812 0.0410327 0)
(-0.0436708 0.0447941 0)
(-0.0526341 0.0502963 0)
(-0.0635751 0.0578528 0)
(-0.0768025 0.0675695 0)
(-0.0926433 0.0792267 0)
(-0.11099 0.0922879 0)
(-0.131543 0.1059 0)
(-0.153542 0.118989 0)
(-0.17605 0.130385 0)
(-0.197901 0.139018 0)
(-0.218057 0.144098 0)
(-0.235639 0.14524 0)
(-0.250172 0.142487 0)
(-0.261495 0.136226 0)
(-0.269823 0.127065 0)
(-0.275551 0.115692 0)
(-0.27924 0.102767 0)
(-0.28144 0.0888435 0)
(-0.282684 0.0743416 0)
(-0.283395 0.0595472 0)
(-0.283916 0.0446295 0)
(-0.284473 0.029671 0)
(-0.285233 0.0146932 0)
(-0.286287 -0.000318807 0)
(-0.287709 -0.0154023 0)
(-0.289534 -0.0306063 0)
(-0.291805 -0.0459875 0)
(-0.294533 -0.0616079 0)
(-0.29772 -0.0775273 0)
(-0.301292 -0.0937927 0)
(-0.30508 -0.110405 0)
(-0.308729 -0.127274 0)
(-0.311639 -0.144139 0)
(-0.312879 -0.160483 0)
(-0.311176 -0.175422 0)
(-0.30496 -0.187656 0)
(-0.29256 -0.195478 0)
(-0.272555 -0.19695 0)
(-0.244266 -0.190277 0)
(-0.208319 -0.174398 0)
(-0.167036 -0.149687 0)
(-0.124383 -0.118453 0)
(-0.0851056 -0.084804 0)
(-0.0531365 -0.0533449 0)
(-0.0300676 -0.0274389 0)
(-0.0150427 -0.00811747 0)
(-0.00613491 0.00510573 0)
(-0.00140025 0.013335 0)
(0.000599247 0.0173601 0)
(0.00103648 0.0176293 0)
(0.000631968 0.0140262 0)
(0.000125051 0.00619749 0)
(-0.000605702 0.0112917 0)
(-0.00369956 0.0256159 0)
(-0.00841668 0.0337762 0)
(-0.0136278 0.0382156 0)
(-0.0193784 0.0407548 0)
(-0.0253312 0.0427383 0)
(-0.0318975 0.0450546 0)
(-0.039171 0.0484575 0)
(-0.0477688 0.0535673 0)
(-0.0580418 0.0609122 0)
(-0.0706009 0.0707615 0)
(-0.0856624 0.0830511 0)
(-0.10338 0.0972929 0)
(-0.123371 0.1126 0)
(-0.145022 0.127758 0)
(-0.16725 0.141382 0)
(-0.188896 0.152142 0)
(-0.208719 0.159 0)
(-0.225799 0.161405 0)
(-0.239528 0.159335 0)
(-0.249803 0.153238 0)
(-0.256845 0.143853 0)
(-0.261201 0.13204 0)
(-0.263502 0.118615 0)
(-0.264436 0.104253 0)
(-0.264573 0.0894493 0)
(-0.264392 0.0745171 0)
(-0.264205 0.0596222 0)
(-0.264223 0.0448234 0)
(-0.264535 0.0301144 0)
(-0.265184 0.0154555 0)
(-0.266158 0.00079696 0)
(-0.267454 -0.0139101 0)
(-0.269062 -0.0287117 0)
(-0.271012 -0.0436531 0)
(-0.273345 -0.0587887 0)
(-0.276145 -0.0741858 0)
(-0.279486 -0.089934 0)
(-0.28343 -0.10613 0)
(-0.287944 -0.122863 0)
(-0.292832 -0.140143 0)
(-0.297605 -0.157824 0)
(-0.301377 -0.175449 0)
(-0.302763 -0.192108 0)
(-0.299896 -0.206286 0)
(-0.290607 -0.215854 0)
(-0.27284 -0.218228 0)
(-0.245343 -0.210882 0)
(-0.208464 -0.192193 0)
(-0.164853 -0.162519 0)
(-0.119452 -0.12506 0)
(-0.0783226 -0.0855174 0)
(-0.0461818 -0.0500782 0)
(-0.0242989 -0.0224065 0)
(-0.0109614 -0.00306687 0)
(-0.0036259 0.0092546 0)
(-0.000234063 0.0158172 0)
(0.000858839 0.0175204 0)
(0.000665914 0.0145176 0)
(0.00015607 0.00659034 0)
(-0.000653093 0.0132964 0)
(-0.00395013 0.0297604 0)
(-0.00895701 0.0389648 0)
(-0.014485 0.0439108 0)
(-0.0206091 0.0468109 0)
(-0.0270046 0.0492393 0)
(-0.0341507 0.0522726 0)
(-0.0421913 0.0567987 0)
(-0.0518103 0.0635394 0)
(-0.0633648 0.0730163 0)
(-0.0774156 0.0853755 0)
(-0.0940202 0.100286 0)
(-0.113094 0.1169 0)
(-0.133943 0.133922 0)
(-0.155648 0.14978 0)
(-0.176889 0.162862 0)
(-0.196427 0.171833 0)
(-0.21313 0.175882 0)
(-0.22637 0.17486 0)
(-0.235933 0.169212 0)
(-0.242131 0.159806 0)
(-0.245536 0.147679 0)
(-0.246935 0.133833 0)
(-0.247068 0.119091 0)
(-0.246616 0.104038 0)
(-0.246054 0.089021 0)
(-0.245718 0.0741976 0)
(-0.245751 0.0595904 0)
(-0.246209 0.0451481 0)
(-0.247037 0.0307905 0)
(-0.248166 0.0164403 0)
(-0.249495 0.00203779 0)
(-0.250955 -0.012452 0)
(-0.252492 -0.027047 0)
(-0.254107 -0.0417528 0)
(-0.255838 -0.0565829 0)
(-0.257787 -0.0715649 0)
(-0.260091 -0.0867664 0)
(-0.262935 -0.102293 0)
(-0.266498 -0.118303 0)
(-0.270911 -0.13497 0)
(-0.276145 -0.152442 0)
(-0.281878 -0.170701 0)
(-0.287316 -0.189409 0)
(-0.291033 -0.207645 0)
(-0.290916 -0.223705 0)
(-0.284304 -0.234964 0)
(-0.268494 -0.238084 0)
(-0.241578 -0.229634 0)
(-0.203637 -0.207321 0)
(-0.157731 -0.171639 0)
(-0.110076 -0.127106 0)
(-0.0682092 -0.0817599 0)
(-0.0373772 -0.0433003 0)
(-0.0178579 -0.0153493 0)
(-0.00682716 0.00286232 0)
(-0.00144268 0.0131038 0)
(0.000584027 0.016931 0)
(0.000697009 0.0149075 0)
(0.000194735 0.00703518 0)
(-0.000690363 0.0154113 0)
(-0.00415539 0.0341171 0)
(-0.00941123 0.0444152 0)
(-0.0152208 0.0499073 0)
(-0.0216886 0.0532305 0)
(-0.0285057 0.0562078 0)
(-0.0362149 0.06012 0)
(-0.0450013 0.0659845 0)
(-0.0555881 0.0745942 0)
(-0.0682962 0.0863968 0)
(-0.0835781 0.101326 0)
(-0.101277 0.11869 0)
(-0.121035 0.137218 0)
(-0.141859 0.155198 0)
(-0.162596 0.170761 0)
(-0.18182 0.182218 0)
(-0.198386 0.188421 0)
(-0.211435 0.188966 0)
(-0.220743 0.184224 0)
(-0.226525 0.175129 0)
(-0.229461 0.162906 0)
(-0.230366 0.148766 0)
(-0.230126 0.133721 0)
(-0.22945 0.118475 0)
(-0.228899 0.103434 0)
(-0.228773 0.0887465 0)
(-0.229226 0.0743975 0)
(-0.23023 0.0602767 0)
(-0.231698 0.0462475 0)
(-0.233468 0.0321853 0)
(-0.235392 0.0180029 0)
(-0.237314 0.00365409 0)
(-0.239128 -0.010865 0)
(-0.240749 -0.0255316 0)
(-0.242155 -0.0403013 0)
(-0.243363 -0.0551336 0)
(-0.244459 -0.0699967 0)
(-0.245579 -0.0849028 0)
(-0.246936 -0.0999082 0)
(-0.248789 -0.115156 0)
(-0.25144 -0.130854 0)
(-0.255161 -0.147297 0)
(-0.260097 -0.164759 0)
(-0.266092 -0.183408 0)
(-0.272459 -0.203015 0)
(-0.277763 -0.222683 0)
(-0.27965 -0.240456 0)
(-0.275007 -0.253153 0)
(-0.260446 -0.256506 0)
(-0.233474 -0.246025 0)
(-0.19395 -0.218744 0)
(-0.145682 -0.175587 0)
(-0.0964725 -0.123323 0)
(-0.055494 -0.072875 0)
(-0.0276936 -0.0333661 0)
(-0.0115333 -0.00680327 0)
(-0.00330588 0.0087178 0)
(8.38917e-05 0.0156491 0)
(0.00067973 0.0151374 0)
(0.000234014 0.00753966 0)
(-0.000719321 0.0176403 0)
(-0.004315 0.0386905 0)
(-0.00977265 0.0501386 0)
(-0.015822 0.0562259 0)
(-0.022594 0.0600437 0)
(-0.0297973 0.0636815 0)
(-0.0380263 0.0686334 0)
(-0.0474916 0.0760311 0)
(-0.0589201 0.0866906 0)
(-0.0725516 0.100905 0)
(-0.088682 0.118303 0)
(-0.106912 0.137759 0)
(-0.126619 0.157553 0)
(-0.146571 0.1756 0)
(-0.165493 0.189868 0)
(-0.182008 0.198769 0)
(-0.195214 0.201534 0)
(-0.204632 0.198301 0)
(-0.210471 0.189997 0)
(-0.213319 0.177987 0)
(-0.214113 0.163726 0)
(-0.213762 0.148451 0)
(-0.213114 0.133048 0)
(-0.212738 0.118008 0)
(-0.213005 0.103505 0)
(-0.214018 0.0894827 0)
(-0.215754 0.0757703 0)
(-0.218047 0.0621581 0)
(-0.220712 0.0484613 0)
(-0.223524 0.0345432 0)
(-0.226301 0.0203323 0)
(-0.228864 0.00581127 0)
(-0.231099 -0.00898425 0)
(-0.232909 -0.0239893 0)
(-0.23426 -0.0391107 0)
(-0.235145 -0.0542581 0)
(-0.235622 -0.0693397 0)
(-0.235792 -0.0843048 0)
(-0.235834 -0.0991359 0)
(-0.235995 -0.11391 0)
(-0.23661 -0.128782 0)
(-0.238073 -0.144056 0)
(-0.240795 -0.160122 0)
(-0.245082 -0.17745 0)
(-0.250932 -0.196364 0)
(-0.257764 -0.216802 0)
(-0.264074 -0.237807 0)
(-0.267278 -0.257117 0)
(-0.263726 -0.270789 0)
(-0.249442 -0.273438 0)
(-0.221361 -0.259381 0)
(-0.179511 -0.225083 0)
(-0.12882 -0.172765 0)
(-0.0793124 -0.112548 0)
(-0.0413968 -0.0591434 0)
(-0.0183044 -0.0210436 0)
(-0.00614142 0.00192287 0)
(-0.000786353 0.0133149 0)
(0.000563714 0.0150644 0)
(0.000266954 0.00807219 0)
(-0.000732384 0.0199173 0)
(-0.00440544 0.0433763 0)
(-0.0100035 0.0560221 0)
(-0.0162363 0.0627523 0)
(-0.0232558 0.0671338 0)
(-0.0307854 0.0715335 0)
(-0.0394554 0.0776585 0)
(-0.0494804 0.0867254 0)
(-0.0615539 0.0995139 0)
(-0.0757981 0.116081 0)
(-0.0923232 0.135675 0)
(-0.110492 0.156699 0)
(-0.12946 0.177009 0)
(-0.147851 0.194243 0)
(-0.164399 0.206367 0)
(-0.17791 0.212079 0)
(-0.187823 0.211136 0)
(-0.194067 0.204276 0)
(-0.197236 0.192942 0)
(-0.198181 0.178806 0)
(-0.197949 0.163397 0)
(-0.197412 0.147837 0)
(-0.197274 0.13278 0)
(-0.197903 0.118455 0)
(-0.199465 0.104796 0)
(-0.201883 0.0915661 0)
(-0.204998 0.0784804 0)
(-0.208554 0.0652732 0)
(-0.212317 0.0517496 0)
(-0.216042 0.0377892 0)
(-0.219545 0.0233539 0)
(-0.222657 0.00846387 0)
(-0.225273 -0.00680431 0)
(-0.227301 -0.0223482 0)
(-0.228706 -0.0380343 0)
(-0.229465 -0.0537336 0)
(-0.229611 -0.0693062 0)
(-0.229201 -0.0846492 0)
(-0.228361 -0.0996738 0)
(-0.227272 -0.114378 0)
(-0.226213 -0.12882 0)
(-0.22556 -0.143225 0)
(-0.225792 -0.157941 0)
(-0.227448 -0.173539 0)
(-0.230982 -0.190642 0)
(-0.236553 -0.209829 0)
(-0.24361 -0.23112 0)
(-0.250574 -0.253489 0)
(-0.254446 -0.274118 0)
(-0.251078 -0.288056 0)
(-0.235794 -0.288507 0)
(-0.205345 -0.26848 0)
(-0.160263 -0.224496 0)
(-0.107583 -0.161289 0)
(-0.0598347 -0.0945667 0)
(-0.027662 -0.0415158 0)
(-0.010271 -0.00819316 0)
(-0.00217654 0.00945214 0)
(0.00030075 0.0144956 0)
(0.000284948 0.00859066 0)
(-0.000732606 0.0222408 0)
(-0.00442911 0.0481733 0)
(-0.0100995 0.0620726 0)
(-0.0164519 0.0695013 0)
(-0.0236497 0.0745167 0)
(-0.0314268 0.0797702 0)
(-0.0404275 0.0871736 0)
(-0.0508475 0.0979903 0)
(-0.0633126 0.112899 0)
(-0.0778046 0.131646 0)
(-0.0942446 0.15305 0)
(-0.111791 0.17504 0)
(-0.129454 0.195111 0)
(-0.145818 0.21076 0)
(-0.159742 0.220119 0)
(-0.170306 0.22233 0)
(-0.177324 0.217762 0)
(-0.181098 0.207737 0)