/*--------------------------------*- C++ -*----------------------------------*\
| =========                 |                                                 |
| \\      /  F ield         | OpenFOAM: The Open Source CFD Toolbox           |
|  \\    /   O peration     | Version:  2406                                  |
|   \\  /    A nd           | Website:  www.openfoam.com                      |
|    \\/     M anipulation  |                                                 |
\*---------------------------------------------------------------------------*/
FoamFile
{
    version     2.0;
    format      ascii;
    arch        "LSB;label=32;scalar=64";
    class       volVectorField;
    location    "25.4";
    object      Uold;
}
// * * * * * * * * * * * * * * * * * * * * * * * * * * * * * * * * * * * * * //

dimensions      [0 1 -1 0 0 0 0];

internalField   nonuniform List<vector> 
3600
(
(2.25831e-05 -2.30616e-05 0)
(0.000183471 -7.65175e-05 0)
(0.000442996 -9.72669e-05 0)
(0.00070013 -9.60165e-05 0)
(0.000941887 -8.40266e-05 0)
(0.00112145 -6.76001e-05 0)
(0.00125157 -5.3572e-05 0)
(0.00131927 -4.15243e-05 0)
(0.00133849 -3.31709e-05 0)
(0.00130087 -2.39748e-05 0)
(0.00120104 -1.22762e-05 0)
(0.00101543 7.2246e-06 0)
(0.000714046 3.59518e-05 0)
(0.000258529 7.68609e-05 0)
(-0.000394354 0.000129752 0)
(-0.00128764 0.00019616 0)
(-0.00246819 0.000276157 0)
(-0.0039794 0.000371204 0)
(-0.00586567 0.000480758 0)
(-0.00816022 0.000603441 0)
(-0.0108856 0.000734558 0)
(-0.0140382 0.000868218 0)
(-0.0175864 0.000996996 0)
(-0.0214547 0.00111312 0)
(-0.025523 0.00120534 0)
(-0.0296188 0.00125766 0)
(-0.0335263 0.00124831 0)
(-0.0369927 0.00115421 0)
(-0.0397503 0.000955975 0)
(-0.0415338 0.000644391 0)
(-0.042109 0.000223367 0)
(-0.0412905 -0.000288145 0)
(-0.038969 -0.000857844 0)
(-0.0351215 -0.00144177 0)
(-0.029832 -0.00198859 0)
(-0.0232892 -0.00244358 0)
(-0.0157956 -0.00275502 0)
(-0.00774265 -0.00288053 0)
(0.000397789 -0.00279482 0)
(0.0081302 -0.00249621 0)
(0.0149623 -0.00201085 0)
(0.0204872 -0.00139299 0)
(0.0244067 -0.000717634 0)
(0.0266067 -6.91917e-05 0)
(0.0271319 0.000477661 0)
(0.0262162 0.000871764 0)
(0.0241836 0.00109806 0)
(0.0214422 0.00117223 0)
(0.0183483 0.00113309 0)
(0.0152343 0.00102268 0)
(0.0122917 0.000880182 0)
(0.00967819 0.000730564 0)
(0.00740858 0.000593309 0)
(0.00552043 0.000474304 0)
(0.00393106 0.000382238 0)
(0.00264066 0.00030782 0)
(0.00155435 0.00025012 0)
(0.000718004 0.000169854 0)
(0.000142017 6.6495e-05 0)
(-6.80432e-05 -7.39331e-05 0)
(7.70306e-05 -0.000183203 0)
(0.000402422 -0.000399907 0)
(0.000864543 -0.000471318 0)
(0.00129133 -0.000439356 0)
(0.00164992 -0.00035207 0)
(0.00185383 -0.000230236 0)
(0.00190229 -0.000104895 0)
(0.00176108 2.58823e-05 0)
(0.00142996 0.00015596 0)
(0.000875796 0.000307269 0)
(5.95753e-05 0.000492193 0)
(-0.00108943 0.000737869 0)
(-0.00266138 0.00105606 0)
(-0.00476197 0.0014619 0)
(-0.00750706 0.00195611 0)
(-0.011007 0.00254173 0)
(-0.0153676 0.00321226 0)
(-0.0206683 0.00396006 0)
(-0.026959 0.00476406 0)
(-0.034229 0.00559376 0)
(-0.042398 0.00640143 0)
(-0.0512878 0.00712657 0)
(-0.0606277 0.00769228 0)
(-0.0700544 0.00801398 0)
(-0.0791487 0.00800615 0)
(-0.0874617 0.00759858 0)
(-0.0945609 0.00674522 0)
(-0.100053 0.00543387 0)
(-0.103613 0.00368576 0)
(-0.104989 0.00155665 0)
(-0.104019 -0.000869148 0)
(-0.100618 -0.00348033 0)
(-0.0947978 -0.00614541 0)
(-0.086652 -0.00871468 0)
(-0.0763768 -0.0110287 0)
(-0.0642598 -0.0129239 0)
(-0.0506967 -0.0142466 0)
(-0.0361699 -0.0148658 0)
(-0.0212565 -0.0146944 0)
(-0.00657844 -0.0137053 0)
(0.00720411 -0.0119493 0)
(0.0194781 -0.00956013 0)
(0.0296898 -0.00674899 0)
(0.0374518 -0.00378192 0)
(0.0425291 -0.000940124 0)
(0.0449365 0.00152189 0)
(0.0448614 0.00342452 0)
(0.042725 0.00468399 0)
(0.0390201 0.00532278 0)
(0.0343506 0.00543924 0)
(0.0292123 0.00517984 0)
(0.024088 0.00468918 0)
(0.0192312 0.00409961 0)
(0.0148783 0.00349715 0)
(0.0110278 0.00295111 0)
(0.00775753 0.00246171 0)
(0.00495548 0.00202892 0)
(0.00272141 0.00153064 0)
(0.00102733 0.000942528 0)
(0.000107779 0.000164758 0)
(9.89155e-05 -0.00044572 0)
(0.000467086 -0.000860831 0)
(0.000953112 -0.000969531 0)
(0.00134063 -0.000849135 0)
(0.00158008 -0.000603347 0)
(0.00156145 -0.000265832 0)
(0.00126192 0.000100273 0)
(0.000624079 0.000501635 0)
(-0.00038485 0.000930935 0)
(-0.00183466 0.00143855 0)
(-0.00381643 0.00205933 0)
(-0.00645776 0.0028551 0)
(-0.00991596 0.00385656 0)
(-0.0143585 0.00509412 0)
(-0.0199569 0.00656457 0)
(-0.0268529 0.00825807 0)
(-0.0351521 0.0101349 0)
(-0.0448797 0.0121369 0)
(-0.0559662 0.0141649 0)
(-0.068205 0.0160868 0)
(-0.0812616 0.0177328 0)
(-0.0946795 0.0189202 0)
(-0.107942 0.0194743 0)
(-0.120514 0.0192618 0)
(-0.131907 0.0182019 0)
(-0.141699 0.0162761 0)
(-0.149559 0.013516 0)
(-0.155232 0.00999852 0)
(-0.158543 0.00583097 0)
(-0.15937 0.00114899 0)
(-0.157648 -0.00389137 0)
(-0.15335 -0.00911036 0)
(-0.146502 -0.0143085 0)
(-0.137173 -0.0192624 0)
(-0.125505 -0.0237321 0)
(-0.111704 -0.027464 0)
(-0.0960783 -0.0302097 0)
(-0.0790221 -0.0317427 0)
(-0.0610441 -0.0318923 0)
(-0.0427302 -0.0305697 0)
(-0.0247482 -0.0278033 0)
(-0.007772 -0.0237516 0)
(0.00752835 -0.0187084 0)
(0.0205955 -0.0130753 0)
(0.0309766 -0.00731721 0)
(0.0384368 -0.00190093 0)
(0.0428987 0.00277244 0)
(0.0445453 0.00641779 0)
(0.0436909 0.0089056 0)
(0.0408705 0.0102605 0)
(0.0366217 0.0106427 0)
(0.0315808 0.0102896 0)
(0.0262009 0.00946999 0)
(0.020944 0.00841527 0)
(0.0159833 0.00731493 0)
(0.0115575 0.00624265 0)
(0.00762186 0.00521653 0)
(0.00437853 0.00406613 0)
(0.00178633 0.00268536 0)
(0.0002691 0.000863271 0)
(9.82658e-05 -0.000697242 0)
(0.0004132 -0.00125919 0)
(0.000768471 -0.00133583 0)
(0.000933485 -0.00103904 0)
(0.000842998 -0.000535544 0)
(0.000374401 0.000137254 0)
(-0.0005253 0.000887772 0)
(-0.00194202 0.0017375 0)
(-0.00395917 0.00268609 0)
(-0.006698 0.00382284 0)
(-0.0103201 0.00521216 0)
(-0.0150173 0.00695311 0)
(-0.0210117 0.00908922 0)
(-0.0285079 0.0116501 0)
(-0.0376853 0.0146001 0)
(-0.0486352 0.0178735 0)
(-0.0613472 0.0213377 0)
(-0.075647 0.0248105 0)
(-0.091205 0.028041 0)
(-0.107533 0.0307487 0)
(-0.124068 0.0326533 0)
(-0.140222 0.033533 0)
(-0.155477 0.0332436 0)
(-0.169393 0.0317321 0)
(-0.181644 0.0290158 0)
(-0.191979 0.025169 0)
(-0.200227 0.020298 0)
(-0.206253 0.0145349 0)
(-0.209962 0.0080246 0)
(-0.21127 0.000929429 0)
(-0.210114 -0.00657357 0)
(-0.206436 -0.0142816 0)
(-0.200203 -0.0219657 0)
(-0.191398 -0.0293598 0)
(-0.180056 -0.0361658 0)
(-0.166265 -0.042052 0)
(-0.150204 -0.0466753 0)
(-0.132146 -0.0497 0)
(-0.1125 -0.0508437 0)
(-0.0917914 -0.0499149 0)
(-0.0706774 -0.0468695 0)
(-0.0498819 -0.0418374 0)
(-0.0301772 -0.0351441 0)
(-0.0122661 -0.027281 0)
(0.00323285 -0.0188564 0)
(0.0159078 -0.0105124 0)
(0.0254985 -0.00284339 0)
(0.0319945 0.00367359 0)
(0.035508 0.00872825 0)
(0.0363896 0.0121978 0)
(0.0350412 0.0141462 0)
(0.0320548 0.0147906 0)
(0.0279271 0.0144484 0)
(0.0232534 0.01346 0)
(0.0183627 0.0121351 0)
(0.0136768 0.0106628 0)
(0.00927064 0.00911152 0)
(0.00548748 0.00731684 0)
(0.00232284 0.0050498 0)
(0.000385963 0.00193325 0)
(8.02682e-05 -0.000922887 0)
(0.000258332 -0.00154241 0)
(0.000348795 -0.00148834 0)
(0.00013399 -0.000903507 0)
(-0.00047215 -1.68934e-05 0)
(-0.001598 0.00114133 0)
(-0.00333827 0.00245886 0)
(-0.00581209 0.00398548 0)
(-0.00917017 0.00573984 0)
(-0.0135947 0.00786149 0)
(-0.0193269 0.0104478 0)
(-0.026613 0.0136268 0)
(-0.0357109 0.0174309 0)
(-0.0468011 0.0218474 0)
(-0.0599797 0.0267489 0)
(-0.0751673 0.0319364 0)
(-0.0921146 0.0371027 0)
(-0.110366 0.0418828 0)
(-0.129346 0.0458761 0)
(-0.148418 0.0487343 0)
(-0.166999 0.0501967 0)
(-0.184592 0.0501257 0)
(-0.200825 0.0484839 0)
(-0.215417 0.0453193 0)
(-0.228178 0.0407287 0)
(-0.238967 0.0348446 0)
(-0.247693 0.0278118 0)
(-0.254277 0.0197874 0)
(-0.258667 0.0109308 0)
(-0.260803 0.00141337 0)
(-0.260628 -0.00858261 0)
(-0.258072 -0.0188474 0)
(-0.253062 -0.0291407 0)
(-0.245513 -0.039174 0)
(-0.235355 -0.0486105 0)
(-0.222539 -0.057057 0)
(-0.207078 -0.0640822 0)
(-0.189069 -0.0692327 0)
(-0.168751 -0.0720859 0)
(-0.146514 -0.072299 0)
(-0.122949 -0.0696896 0)
(-0.0988046 -0.0642896 0)
(-0.0749746 -0.0563983 0)
(-0.0523694 -0.0465676 0)
(-0.0318516 -0.0355528 0)
(-0.0140685 -0.0241972 0)
(0.000540151 -0.0133155 0)
(0.0118365 -0.00358636 0)
(0.0198362 0.00450324 0)
(0.0247875 0.0106844 0)
(0.0269811 0.0148972 0)
(0.0269112 0.0172825 0)
(0.0250195 0.0181283 0)
(0.0219184 0.0178203 0)
(0.0180079 0.0167424 0)
(0.013837 0.0151981 0)
(0.00960073 0.0133112 0)
(0.00578552 0.0109593 0)
(0.00247341 0.00777691 0)
(0.000414339 0.00321033 0)
(4.63012e-05 -0.00103133 0)
(1.41275e-06 -0.0015394 0)
(-0.000313587 -0.00121142 0)
(-0.00107261 -0.000199469 0)
(-0.0023874 0.0012186 0)
(-0.0043859 0.00303653 0)
(-0.00721938 0.00513597 0)
(-0.0110464 0.00761123 0)
(-0.0161007 0.0105122 0)
(-0.0226274 0.014032 0)
(-0.0309396 0.0182877 0)
(-0.0412992 0.0234005 0)
(-0.0539332 0.0293346 0)
(-0.0688957 0.0359592 0)
(-0.0860821 0.0429706 0)
(-0.105138 0.0499662 0)
(-0.125541 0.0564422 0)
(-0.14662 0.0619067 0)
(-0.167715 0.0659318 0)
(-0.188215 0.0682342 0)
(-0.207647 0.0686647 0)
(-0.22564 0.0672054 0)
(-0.241948 0.063921 0)
(-0.256395 0.0589416 0)
(-0.268894 0.0524243 0)
(-0.279392 0.0445463 0)
(-0.287894 0.0354813 0)
(-0.29441 0.0254028 0)
(-0.298972 0.0144727 0)
(-0.301588 0.00285376 0)
(-0.302257 -0.0092909 0)
(-0.300932 -0.021777 0)
(-0.297532 -0.0343925 0)
(-0.291923 -0.0468716 0)
(-0.283937 -0.0588875 0)
(-0.273372 -0.070032 0)
(-0.260039 -0.079823 0)
(-0.243784 -0.0877094 0)
(-0.224565 -0.0931189 0)
(-0.202503 -0.0955104 0)
(-0.177964 -0.0944744 0)
(-0.15158 -0.0898224 0)
(-0.124276 -0.0816923 0)
(-0.0971712 -0.0705847 0)
(-0.0714751 -0.0573504 0)
(-0.0482544 -0.0430587 0)
(-0.0283178 -0.0288276 0)
(-0.0120469 -0.0156247 0)
(0.00048121 -0.00416413 0)
(0.00950099 0.00513639 0)
(0.0153053 0.0121067 0)
(0.0183605 0.0168104 0)
(0.0190685 0.0194713 0)
(0.0180145 0.0204658 0)
(0.0156134 0.0201926 0)
(0.0124738 0.0190308 0)
(0.00888615 0.0171408 0)
(0.00544469 0.0144467 0)
(0.00233925 0.0104575 0)
(0.000386734 0.0044685 0)
(-3.52675e-06 -0.00100943 0)
(-0.000356618 -0.00119125 0)
(-0.00121184 -0.000415842 0)
(-0.00266882 0.00118378 0)
(-0.00487294 0.00330637 0)
(-0.00794803 0.00599116 0)
(-0.0121184 0.00913241 0)
(-0.0175847 0.0128841 0)
(-0.0246709 0.0173343 0)
(-0.0336666 0.0227178 0)
(-0.0449195 0.0291337 0)
(-0.0586325 0.0366308 0)
(-0.0749045 0.0450192 0)
(-0.093557 0.0539614 0)
(-0.114213 0.0629173 0)
(-0.136242 0.0712823 0)
(-0.158938 0.078435 0)
(-0.181557 0.0838801 0)
(-0.203474 0.0872712 0)
(-0.22416 0.0884472 0)
(-0.243242 0.0873814 0)
(-0.260448 0.0841671 0)
(-0.275642 0.0789638 0)
(-0.28876 0.0719832 0)
(-0.299841 0.0634478 0)
(-0.308965 0.0535846 0)
(-0.316265 0.0425975 0)
(-0.32187 0.0306722 0)
(-0.325919 0.0179627 0)
(-0.328509 0.00460852 0)
(-0.329709 -0.00926711 0)
(-0.329518 -0.0235308 0)
(-0.327877 -0.0380313 0)
(-0.324639 -0.0525661 0)
(-0.319583 -0.0668685 0)
(-0.312394 -0.0805737 0)
(-0.302703 -0.0932116 0)
(-0.290095 -0.104192 0)
(-0.274197 -0.112833 0)
(-0.254733 -0.1184 0)
(-0.231659 -0.120201 0)
(-0.205245 -0.117709 0)
(-0.176194 -0.110714 0)
(-0.145628 -0.0994513 0)
(-0.115034 -0.0846807 0)
(-0.0860168 -0.0676187 0)
(-0.0600389 -0.0497544 0)
(-0.0380691 -0.0325288 0)
(-0.0205215 -0.0170804 0)
(-0.00723765 -0.00409217 0)
(0.00216931 0.00613766 0)
(0.00827448 0.0136313 0)
(0.0115557 0.0185797 0)
(0.0126192 0.0213526 0)
(0.0119016 0.022338 0)
(0.0100343 0.0219539 0)
(0.00737856 0.0203711 0)
(0.00459108 0.0175462 0)
(0.00196412 0.0128921 0)
(0.00030946 0.00560186 0)
(-7.47342e-05 -0.000762726 0)
(-0.000833766 -0.000327699 0)
(-0.00237259 0.00110433 0)
(-0.00468489 0.00347479 0)
(-0.00795978 0.00649916 0)
(-0.0123146 0.0102885 0)
(-0.0180618 0.0147694 0)
(-0.025441 0.020163 0)
(-0.0348576 0.0265869 0)
(-0.0466039 0.0342771 0)
(-0.060994 0.0432444 0)
(-0.0780728 0.053371 0)
(-0.0977156 0.0642245 0)
(-0.119448 0.0752081 0)
(-0.142629 0.0855619 0)
(-0.166435 0.0945646 0)
(-0.190085 0.101594 0)
(-0.212844 0.106244 0)
(-0.234146 0.108296 0)
(-0.253545 0.107729 0)
(-0.270778 0.104653 0)
(-0.285704 0.0992901 0)
(-0.298342 0.091916 0)
(-0.308795 0.0828388 0)
(-0.317268 0.0723508 0)
(-0.323986 0.0607217 0)
(-0.329212 0.0481701 0)
(-0.33318 0.0348739 0)
(-0.336113 0.0209591 0)
(-0.338175 0.00652204 0)
(-0.339494 -0.00837176 0)
(-0.340122 -0.0236589 0)
(-0.340047 -0.0392712 0)
(-0.339156 -0.0551011 0)
(-0.337246 -0.0709857 0)
(-0.333982 -0.0866651 0)
(-0.328915 -0.101761 0)
(-0.321465 -0.115738 0)
(-0.310979 -0.127904 0)
(-0.296778 -0.137409 0)
(-0.278297 -0.14332 0)
(-0.255219 -0.144723 0)
(-0.227674 -0.140906 0)
(-0.196368 -0.131565 0)
(-0.162681 -0.117017 0)
(-0.128534 -0.0982998 0)
(-0.0961198 -0.0771058 0)
(-0.0673827 -0.0554444 0)
(-0.0436063 -0.0351853 0)
(-0.0251237 -0.0176147 0)
(-0.0115919 -0.0033568 0)
(-0.0022498 0.00753453 0)
(0.00361459 0.0152671 0)
(0.00675734 0.0202565 0)
(0.00771807 0.0229046 0)
(0.00717021 0.0236582 0)
(0.00554696 0.0226864 0)
(0.00353325 0.0199604 0)
(0.00150728 0.0148387 0)
(0.000222258 0.00647774 0)
(-0.000167667 -0.000263111 0)
(-0.00142786 0.00112159 0)
(-0.00378303 0.0034384 0)
(-0.00708918 0.00677442 0)
(-0.0115926 0.0109162 0)
(-0.0174014 0.0160739 0)
(-0.0249267 0.0222229 0)
(-0.0344294 0.0296442 0)
(-0.0463671 0.0384524 0)
(-0.060965 0.0488135 0)
(-0.0784171 0.0605561 0)
(-0.0985186 0.0733019 0)
(-0.120869 0.0863243 0)
(-0.144707 0.0987821 0)
(-0.169199 0.109776 0)
(-0.193414 0.118571 0)
(-0.216566 0.124631 0)
(-0.237959 0.127687 0)
(-0.257125 0.127683 0)
(-0.273748 0.124771 0)
(-0.287748 0.119232 0)
(-0.299181 0.111441 0)
(-0.308271 0.101797 0)
(-0.315301 0.0906915 0)
(-0.320623 0.0784619 0)
(-0.324571 0.0653901 0)
(-0.32748 0.0516802 0)
(-0.329623 0.0374798 0)
(-0.33125 0.0228726 0)
(-0.332541 0.00790655 0)
(-0.333647 -0.0074078 0)
(-0.334648 -0.0230691 0)
(-0.335586 -0.0390836 0)
(-0.336415 -0.0554337 0)
(-0.337016 -0.0720682 0)
(-0.337141 -0.08886 0)
(-0.336409 -0.105581 0)
(-0.334254 -0.121846 0)
(-0.329937 -0.137083 0)
(-0.322546 -0.150488 0)
(-0.311093 -0.161043 0)
(-0.294636 -0.167561 0)
(-0.272516 -0.168839 0)
(-0.244603 -0.163881 0)
(-0.211571 -0.152212 0)
(-0.175026 -0.134179 0)
(-0.137442 -0.111154 0)
(-0.101705 -0.0854138 0)
(-0.070443 -0.0596794 0)
(-0.0452277 -0.0363199 0)
(-0.0263488 -0.016801 0)
(-0.0130541 -0.00153122 0)
(-0.00430357 0.00968368 0)
(0.000979963 0.0173846 0)
(0.00358621 0.0220701 0)
(0.00431474 0.0242592 0)
(0.00370604 0.0241438 0)
(0.00247091 0.0217112 0)
(0.00105656 0.0163146 0)
(0.000140402 0.00712733 0)
(-0.000288764 0.000594475 0)
(-0.00215326 0.00332634 0)
(-0.00545473 0.00677579 0)
(-0.00988228 0.0112836 0)
(-0.0157536 0.0167757 0)
(-0.0231625 0.0235848 0)
(-0.032618 0.0317392 0)
(-0.0443692 0.0415485 0)
(-0.0588741 0.0530619 0)
(-0.0762069 0.0662785 0)
(-0.0963611 0.0807495 0)
(-0.118826 0.0957763 0)
(-0.142931 0.110348 0)
(-0.167678 0.123448 0)
(-0.192123 0.134139 0)
(-0.215294 0.141761 0)
(-0.236459 0.145928 0)
(-0.255026 0.146566 0)
(-0.270715 0.143841 0)
(-0.283432 0.138125 0)
(-0.293352 0.129892 0)
(-0.300759 0.119667 0)
(-0.306075 0.107941 0)
(-0.309715 0.095145 0)
(-0.312117 0.0816127 0)
(-0.313638 0.0675942 0)
(-0.314611 0.0532456 0)
(-0.315276 0.0386618 0)
(-0.315845 0.0238746 0)
(-0.316459 0.0088854 0)
(-0.317247 -0.00633861 0)
(-0.318285 -0.0218381 0)
(-0.319642 -0.0376669 0)
(-0.321335 -0.0538688 0)
(-0.323351 -0.070477 0)
(-0.325582 -0.0874827 0)
(-0.327823 -0.104815 0)
(-0.32969 -0.122288 0)
(-0.330593 -0.139549 0)
(-0.329674 -0.156007 0)
(-0.325822 -0.170779 0)
(-0.317719 -0.182657 0)
(-0.304021 -0.190169 0)
(-0.283619 -0.191729 0)
(-0.256032 -0.185949 0)
(-0.221789 -0.172062 0)
(-0.182725 -0.150402 0)
(-0.141906 -0.122712 0)
(-0.103106 -0.0920592 0)
(-0.0697056 -0.0620521 0)
(-0.0436371 -0.0357126 0)
(-0.0249236 -0.0145375 0)
(-0.0124084 0.00131352 0)
(-0.00457543 0.0125001 0)
(-0.000198062 0.0197309 0)
(0.00179776 0.0237014 0)
(0.0021419 0.0247002 0)
(0.00160967 0.0227656 0)
(0.000717642 0.0173024 0)
(8.82895e-05 0.00754796 0)
(-0.000434369 0.0018452 0)
(-0.00298925 0.00634573 0)
(-0.00733808 0.0111741 0)
(-0.0129769 0.0170549 0)
(-0.0203089 0.0241304 0)
(-0.0294025 0.0328689 0)
(-0.0408518 0.0433387 0)
(-0.0548437 0.0558197 0)
(-0.0717711 0.0702114 0)
(-0.0914768 0.0862443 0)
(-0.113702 0.103125 0)
(-0.137623 0.119825 0)
(-0.162346 0.13511 0)
(-0.186712 0.147882 0)
(-0.209746 0.15726 0)
(-0.230514 0.162746 0)
(-0.248435 0.164182 0)
(-0.263134 0.161767 0)
(-0.274615 0.155937 0)
(-0.28307 0.147304 0)
(-0.288938 0.13651 0)
(-0.292691 0.124176 0)
(-0.294878 0.110817 0)
(-0.295954 0.0968383 0)
(-0.296347 0.0825141 0)
(-0.296358 0.0680229 0)
(-0.296244 0.0534486 0)
(-0.296155 0.0388246 0)
(-0.296224 0.0241347 0)
(-0.29652 0.00934677 0)
(-0.297119 -0.00559333 0)
(-0.298066 -0.0207398 0)
(-0.29943 -0.0361585 0)
(-0.30126 -0.0519116 0)
(-0.303615 -0.0680671 0)
(-0.306514 -0.0846817 0)
(-0.309939 -0.101795 0)
(-0.313748 -0.119391 0)
(-0.317647 -0.137355 0)
(-0.321075 -0.155396 0)
(-0.323155 -0.17295 0)
(-0.322623 -0.189082 0)
(-0.317886 -0.202417 0)
(-0.307167 -0.211156 0)
(-0.288859 -0.213259 0)
(-0.26201 -0.206814 0)
(-0.226925 -0.19065 0)
(-0.185615 -0.165028 0)
(-0.14185 -0.132188 0)
(-0.100402 -0.0962069 0)
(-0.0655468 -0.0618927 0)
(-0.0394004 -0.0328789 0)
(-0.02158 -0.0106291 0)
(-0.0102945 0.00529157 0)
(-0.00372567 0.0158547 0)
(-0.000331607 0.0220874 0)
(0.000940398 0.0245092 0)
(0.00102038 0.0232967 0)
(0.000520531 0.0179711 0)
(6.88086e-05 0.00785883 0)
(-0.000607875 0.00359066 0)
(-0.00393286 0.0103224 0)
(-0.00940851 0.0167761 0)
(-0.0163186 0.0242273 0)
(-0.0251604 0.0331165 0)
(-0.0359583 0.0440431 0)
(-0.0493625 0.057079 0)
(-0.065438 0.0723904 0)
(-0.0844483 0.089632 0)
(-0.105949 0.108181 0)
(-0.129418 0.126878 0)
(-0.153753 0.144409 0)
(-0.177912 0.159404 0)
(-0.20066 0.170792 0)
(-0.221091 0.177855 0)
(-0.23842 0.180355 0)
(-0.252338 0.178454 0)
(-0.262776 0.172681 0)
(-0.270073 0.163755 0)
(-0.274685 0.15248 0)
(-0.27725 0.139599 0)
(-0.278334 0.125741 0)
(-0.278503 0.111368 0)
(-0.278156 0.0967974 0)
(-0.277636 0.0822011 0)
(-0.277127 0.067664 0)
(-0.276778 0.0531928 0)
(-0.276633 0.0387641 0)
(-0.27674 0.0243261 0)
(-0.277093 0.00982898 0)
(-0.277719 -0.0047847 0)
(-0.278624 -0.0195629 0)
(-0.279859 -0.0345594 0)
(-0.281473 -0.0498252 0)
(-0.283557 -0.0654236 0)
(-0.286195 -0.0814243 0)
(-0.289486 -0.0979103 0)
(-0.29348 -0.114962 0)
(-0.298156 -0.132632 0)
(-0.303313 -0.150892 0)
(-0.308498 -0.16954 0)
(-0.312855 -0.188074 0)
(-0.31506 -0.20554 0)
(-0.31328 -0.220404 0)
(-0.30534 -0.230516 0)
(-0.289088 -0.233291 0)
(-0.263044 -0.226174 0)
(-0.227207 -0.207462 0)
(-0.183787 -0.177349 0)
(-0.137351 -0.138735 0)
(-0.093868 -0.0971263 0)
(-0.0584806 -0.0587245 0)
(-0.033254 -0.0277908 0)
(-0.0170146 -0.00522555 0)
(-0.00740306 0.00994666 0)
(-0.00222579 0.0192252 0)
(7.05604e-05 0.0235423 0)
(0.000713727 0.0233612 0)
(0.000477868 0.0184039 0)
(8.59437e-05 0.00811398 0)
(-0.000797981 0.00584771 0)
(-0.00493428 0.0152641 0)
(-0.0115656 0.0235648 0)
(-0.0197497 0.0327569 0)
(-0.0300802 0.0436553 0)
(-0.0425117 0.056965 0)
(-0.0577121 0.0727057 0)
(-0.0755634 0.0908343 0)
(-0.0961504 0.110678 0)
(-0.118718 0.131215 0)
(-0.14251 0.150942 0)
(-0.166213 0.168339 0)
(-0.188728 0.182016 0)
(-0.208851 0.191043 0)
(-0.225863 0.194983 0)
(-0.239246 0.193959 0)
(-0.249047 0.188519 0)
(-0.255533 0.179519 0)
(-0.259337 0.167907 0)
(-0.261092 0.154589 0)
(-0.26152 0.140304 0)
(-0.261166 0.125602 0)
(-0.260515 0.110822 0)
(-0.259842 0.096154 0)
(-0.259358 0.0816542 0)
(-0.259119 0.0673155 0)
(-0.259165 0.0530807 0)
(-0.259452 0.0388888 0)
(-0.25996 0.0246718 0)
(-0.260632 0.0103797 0)
(-0.261456 -0.00403268 0)
(-0.262409 -0.0185935 0)
(-0.263522 -0.0333309 0)
(-0.264829 -0.048268 0)
(-0.266418 -0.0634404 0)
(-0.268386 -0.0788965 0)
(-0.270883 -0.0947117 0)
(-0.274049 -0.110989 0)
(-0.278034 -0.127856 0)
(-0.282907 -0.145441 0)
(-0.288603 -0.163814 0)
(-0.29477 -0.182884 0)
(-0.300637 -0.202234 0)
(-0.304846 -0.220913 0)
(-0.305388 -0.237225 0)
(-0.299709 -0.248637 0)
(-0.28512 -0.251928 0)
(-0.259583 -0.243773 0)
(-0.22279 -0.22186 0)
(-0.177222 -0.186362 0)
(-0.128448 -0.141241 0)
(-0.0837995 -0.0938663 0)
(-0.049153 -0.052171 0)
(-0.025949 -0.020415 0)
(-0.011972 0.00128215 0)
(-0.00429416 0.0148348 0)
(-0.000678868 0.0217793 0)
(0.000585991 0.0230745 0)
(0.000544706 0.0187589 0)
(0.000129283 0.00842737 0)
(-0.00100289 0.00868618 0)
(-0.00597029 0.0212497 0)
(-0.0137498 0.0316023 0)
(-0.0231673 0.0426855 0)
(-0.0349035 0.0557553 0)
(-0.0488117 0.0715746 0)
(-0.0655336 0.0900382 0)
(-0.0847217 0.110797 0)
(-0.106259 0.132794 0)
(-0.129096 0.1546 0)
(-0.152303 0.174443 0)
(-0.174442 0.1907 0)
(-0.194466 0.202095 0)
(-0.211319 0.207966 0)
(-0.224577 0.208272 0)
(-0.234064 0.203565 0)
(-0.240199 0.194782 0)
(-0.24353 0.183043 0)
(-0.244882 0.169416 0)
(-0.244943 0.154797 0)
(-0.244402 0.139822 0)
(-0.243685 0.124892 0)
(-0.243142 0.110192 0)
(-0.242894 0.0957739 0)
(-0.243023 0.0815899 0)
(-0.243475 0.0675625 0)
(-0.244215 0.0535951 0)
(-0.245138 0.0396102 0)
(-0.24619 0.0255408 0)
(-0.247286 0.0113482 0)
(-0.248398 -0.00299408 0)
(-0.249485 -0.0174915 0)
(-0.250562 -0.0321447 0)
(-0.251642 -0.0469478 0)
(-0.252794 -0.061902 0)
(-0.254099 -0.0770217 0)
(-0.255697 -0.0923473 0)
(-0.257746 -0.107959 0)
(-0.26046 -0.123983 0)
(-0.264042 -0.140599 0)
(-0.268676 -0.158014 0)
(-0.274402 -0.176414 0)
(-0.280995 -0.195822 0)
(-0.287761 -0.21592 0)
(-0.293329 -0.235744 0)
(-0.295525 -0.253412 0)
(-0.291428 -0.265924 0)
(-0.277834 -0.269312 0)
(-0.252168 -0.259368 0)
(-0.213913 -0.23312 0)
(-0.166013 -0.191009 0)
(-0.115365 -0.138582 0)
(-0.070804 -0.0858922 0)
(-0.0384674 -0.0422702 0)
(-0.0183667 -0.0114153 0)
(-0.0071104 0.00822801 0)
(-0.00162376 0.018919 0)
(0.000477532 0.0223565 0)
(0.000659542 0.0190511 0)
(0.000188856 0.00882359 0)
(-0.00120276 0.0120731 0)
(-0.00696477 0.0281986 0)
(-0.0158215 0.0407639 0)
(-0.0263656 0.0538365 0)
(-0.0393482 0.0691621 0)
(-0.0544893 0.0874987 0)
(-0.0723647 0.108544 0)
(-0.0923701 0.131567 0)
(-0.114192 0.155106 0)
(-0.136531 0.177364 0)
(-0.158367 0.196399 0)
(-0.178236 0.210612 0)
(-0.195259 0.218974 0)
(-0.20862 0.221215 0)
(-0.218266 0.217768 0)
(-0.224369 0.209622 0)
(-0.227661 0.198035 0)
(-0.228865 0.184276 0)
(-0.22887 0.16941 0)
(-0.228301 0.154216 0)
(-0.227727 0.139156 0)
(-0.227409 0.124449 0)
(-0.227544 0.110123 0)
(-0.228113 0.0961123 0)
(-0.229099 0.0822945 0)
(-0.230373 0.0685512 0)
(-0.231859 0.0547733 0)
(-0.233428 0.0408859 0)
(-0.235016 0.0268363 0)
(-0.236531 0.0126032 0)
(-0.237945 -0.00181807 0)
(-0.239208 -0.0164119 0)
(-0.240327 -0.0311549 0)
(-0.241296 -0.0460159 0)
(-0.242164 -0.0609657 0)
(-0.24298 -0.075985 0)
(-0.24385 -0.0910716 0)
(-0.244905 -0.106262 0)
(-0.246342 -0.121638 0)
(-0.248395 -0.137359 0)
(-0.251349 -0.153652 0)
(-0.255467 -0.170824 0)
(-0.260914 -0.189174 0)
(-0.267576 -0.208872 0)
(-0.274825 -0.229677 0)
(-0.281262 -0.2506 0)
(-0.284503 -0.269474 0)
(-0.28126 -0.282709 0)
(-0.267792 -0.285429 0)
(-0.241104 -0.272407 0)
(-0.200641 -0.240151 0)
(-0.150241 -0.189807 0)
(-0.098521 -0.129651 0)
(-0.0558582 -0.0728718 0)
(-0.0275478 -0.029717 0)
(-0.0113357 -0.00149841 0)
(-0.00315676 0.0145255 0)
(0.000179151 0.0210652 0)
(0.000735664 0.0192805 0)
(0.000248081 0.00934055 0)
(-0.0013921 0.016019 0)
(-0.00788478 0.0361019 0)
(-0.0177094 0.0510166 0)
(-0.0292311 0.0661447 0)
(-0.0432433 0.0837553 0)
(-0.0593065 0.104529 0)
(-0.0779015 0.127898 0)
(-0.0981674 0.152695 0)
(-0.119626 0.177072 0)
(-0.140799 0.19894 0)
(-0.160665 0.216308 0)
(-0.17784 0.227739 0)
(-0.191695 0.232582 0)
(-0.201727 0.231047 0)
(-0.208254 0.224063 0)
(-0.211744 0.212998 0)
(-0.213136 0.199317 0)
(-0.213201 0.184306 0)
(-0.21278 0.168914 0)
(-0.212354 0.153724 0)
(-0.21233 0.138996 0)
(-0.212799 0.124767 0)
(-0.213825 0.110938 0)
(-0.215285 0.0973569 0)
(-0.217104 0.0838634 0)
(-0.219117 0.0703268 0)
(-0.22124 0.0566454 0)
(-0.223342 0.0427593 0)
(-0.225368 0.0286356 0)
(-0.227232 0.0142711 0)
(-0.228914 -0.000319918 0)
(-0.230363 -0.0151062 0)
(-0.231585 -0.0300465 0)
(-0.23256 -0.0450935 0)
(-0.233319 -0.0601957 0)
(-0.233881 -0.0753093 0)
(-0.234317 -0.0903959 0)
(-0.234708 -0.10545 0)
(-0.235201 -0.120494 0)
(-0.235989 -0.135629 0)
(-0.237345 -0.151027 0)
(-0.239599 -0.166992 0)
(-0.243108 -0.183913 0)
(-0.248146 -0.202241 0)
(-0.2547 -0.222274 0)
(-0.2622 -0.243866 0)
(-0.269144 -0.265908 0)
(-0.272904 -0.285828 0)
(-0.269711 -0.299219 0)
(-0.255356 -0.300065 0)
(-0.226495 -0.282075 0)
(-0.183 -0.241471 0)
(-0.13012 -0.181257 0)
(-0.0788198 -0.113671 0)
(-0.0404014 -0.0556321 0)
(-0.0175595 -0.0155993 0)
(-0.00565067 0.00786655 0)
(-0.000501231 0.0188378 0)
(0.000698008 0.0192899 0)
(0.000295401 0.00992719 0)
(-0.00154621 0.0204204 0)
(-0.00864486 0.044776 0)
(-0.0192683 0.0621213 0)
(-0.0315627 0.0792998 0)
(-0.0463329 0.0991216 0)
(-0.0629627 0.122123 0)
(-0.0818235 0.147425 0)
(-0.10182 0.17341 0)
(-0.122359 0.197897 0)
(-0.141864 0.2186 0)
(-0.159401 0.233612 0)
(-0.173745 0.241784 0)
(-0.184582 0.242945 0)
(-0.191729 0.237818 0)
(-0.195833 0.227793 0)
(-0.197556 0.214505 0)
(-0.197928 0.199493 0)
(-0.197658 0.183936 0)
(-0.197462 0.168587 0)
(-0.197641 0.153796 0)
(-0.198438 0.139626 0)
(-0.199799 0.125964 0)
(-0.201696 0.112617 0)
(-0.203944 0.0993923 0)
(-0.206447 0.0861195 0)
(-0.209035 0.0726772 0)
(-0.211634 0.0589847 0)
(-0.214125 0.0450022 0)
(-0.216471 0.030718 0)
(-0.218597 0.0161452 0)
(-0.220491 0.00131348 0)
(-0.222106 -0.0137346 0)
(-0.223448 -0.0289451 0)
(-0.22449 -0.0442608 0)
(-0.225253 -0.0596154 0)
(-0.225733 -0.0749502 0)
(-0.225975 -0.0902012 0)
(-0.226014 -0.105331 0)
(-0.225947 -0.120313 0)
(-0.225897 -0.135186 0)
(-0.226075 -0.150039 0)
(-0.226766 -0.165103 0)
(-0.228354 -0.180721 0)
(-0.231279 -0.197422 0)
(-0.23591 -0.215783 0)
(-0.24234 -0.23628 0)
(-0.249974 -0.258786 0)
(-0.257189 -0.281999 0)
(-0.260926 -0.302693 0)
(-0.25694 -0.315332 0)
(-0.240455 -0.312511 0)
(-0.208181 -0.286812 0)
(-0.16087 -0.23508 0)
(-0.106215 -0.163662 0)
(-0.0577693 -0.0910344 0)
(-0.0262018 -0.0355813 0)
(-0.00942191 -0.00189336 0)
(-0.00171516 0.015227 0)
(0.000489583 0.0188943 0)
(0.000320329 0.0105376 0)
(-0.00166107 0.0252198 0)
(-0.00922123 0.0541295 0)
(-0.0204484 0.0739685 0)
(-0.033286 0.093164 0)
(-0.0485147 0.115076 0)
(-0.0653403 0.14004 0)
(-0.0840242 0.166836 0)
(-0.103282 0.19341 0)
(-0.122463 0.217323 0)
(-0.139975 0.236208 0)
(-0.155043 0.248369 0)
(-0.166661 0.253052 0)
(-0.174844 0.250624 0)
(-0.179696 0.242309 0)
(-0.182108 0.229866 0)
(-0.182828 0.215066 0)
(-0.18287 0.199396 0)
(-0.182808 0.183835 0)
(-0.183197 0.168898 0)
(-0.184158 0.154708 0)
(-0.185798 0.141158 0)
(-0.187962 0.128026 0)
(-0.19057 0.115075 0)
(-0.193413 0.102096 0)
(-0.196403 0.0889369 0)
(-0.19938 0.0754955 0)
(-0.202295 0.0617169 0)
(-0.205043 0.0475809 0)
(-0.207607 0.033094 0)
(-0.20992 0.0182807 0)
(-0.211978 0.0031823 0)
(-0.213737 -0.0121525 0)
(-0.215204 -0.0276612 0)
(-0.216348 -0.043282 0)
(-0.217185 -0.0589389 0)
(-0.2177 -0.0745668 0)
(-0.217917 -0.0900853 0)
(-0.217845 -0.10544 0)
(-0.217538 -0.120567 0)
(-0.217058 -0.135458 0)
(-0.21654 -0.150124 0)
(-0.216183 -0.164702 0)
(-0.216301 -0.179423 0)
(-0.217329 -0.194754 0)
(-0.219775 -0.211313 0)
(-0.224125 -0.229896 0)
(-0.230491 -0.251081 0)
(-0.238269 -0.274754 0)
(-0.245483 -0.299177 0)
(-0.248643 -0.32015 0)
(-0.242757 -0.330605 0)
(-0.222785 -0.321381 0)
(-0.18571 -0.284428 0)
(-0.134385 -0.218445 0)
(-0.0796887 -0.136471 0)
(-0.037779 -0.063409 0)
(-0.0146444 -0.0157577 0)
(-0.00359326 0.0096184 0)
(8.89036e-05 0.0178054 0)
(0.000316999 0.0110734 0)
(-0.00171388 0.0302459 0)
(-0.00954132 0.0638899 0)
(-0.021136 0.0862287 0)
(-0.0342574 0.107334 0)
(-0.0496296 0.13112 0)
(-0.0662903 0.157688 0)
(-0.084404 0.185484 0)
(-0.102551 0.212057 0)
(-0.120084 0.234809 0)
(-0.135464 0.251397 0)
(-0.148124 0.260448 0)
(-0.157304 0.26167 0)
(-0.163322 0.255983 0)
(-0.166506 0.24504 0)
(-0.16789 0.230856 0)
(-0.168215 0.215206 0)
(-0.168399 0.199422 0)
(-0.16885 0.184236 0)
(-0.169957 0.169918 0)
(-0.17169 0.156389 0)
(-0.174062 0.143421 0)
(-0.176856 0.130726 0)
(-0.179979 0.118055 0)
(-0.183226 0.105212 0)
(-0.186529 0.0920718 0)
(-0.18975 0.0785569 0)
(-0.192861 0.0646371 0)
(-0.195775 0.0503076 0)
(-0.198487 0.0355893 0)
(-0.200933 0.0205137 0)
(-0.203119 0.00513086 0)
(-0.204997 -0.0105069 0)
(-0.206575 -0.0263296 0)
(-0.207822 -0.0422732 0)
(-0.20875 -0.0582536 0)
(-0.209339 -0.074204 0)
(-0.209609 -0.0900333 0)
(-0.209552 -0.105682 0)
(-0.209199 -0.121062 0)
(-0.20857 -0.136142 0)
(-0.207738 -0.150869 0)
(-0.206817 -0.165308 0)
(-0.206015 -0.179559 0)
(-0.205675 -0.193967 0)
(-0.206269 -0.209038 0)
(-0.208422 -0.225626 0)
(-0.212652 -0.244661 0)
(-0.219149 -0.266905 0)
(-0.227039 -0.292032 0)
(-0.234014 -0.317595 0)
(-0.235742 -0.337914 0)
(-0.226711 -0.343792 0)
(-0.201552 -0.324335 0)
(-0.158708 -0.271572 0)
(-0.104024 -0.189449 0)
(-0.0530452 -0.100697 0)
(-0.0213402 -0.0350652 0)
(-0.00629058 0.00142849 0)
(-0.000509618 0.0156946 0)
(0.000282032 0.0114637 0)
(-0.00170793 0.035392 0)
(-0.00960704 0.0739175 0)
(-0.021328 0.0987634 0)
(-0.0344757 0.121665 0)
(-0.0496863 0.1471 0)
(-0.0658555 0.174922 0)
(-0.0830697 0.203262 0)
(-0.0998366 0.229332 0)
(-0.11556 0.250468 0)
(-0.128814 0.264456 0)
(-0.139261 0.27033 0)
(-0.146381 0.268294 0)
(-0.150744 0.259789 0)
(-0.152825 0.246805 0)
(-0.153708 0.231487 0)
(-0.154052 0.215506 0)
(-0.15464 0.199978 0)
(-0.155708 0.185365 0)
(-0.157502 0.171721 0)
(-0.159883 0.158807 0)
(-0.162808 0.146317 0)
(-0.166037 0.133937 0)
(-0.169487 0.121435 0)
(-0.172972 0.108637 0)
(-0.176453 0.0954504 0)
(-0.179812 0.0818201 0)
(-0.183043 0.0677359 0)
(-0.186066 0.053202 0)
(-0.188885 0.0382489 0)
(-0.19144 0.0229107 0)
(-0.193734 0.00724382 0)
(-0.195719 -0.00869816 0)
(-0.197401 -0.0248378 0)
(-0.198747 -0.0411098 0)
(-0.199769 -0.0574218 0)
(-0.200446 -0.0737073 0)
(-0.200797 -0.0898662 0)
(-0.200811 -0.105841 0)