/*--------------------------------*- C++ -*----------------------------------*\
| =========                 |                                                 |
| \\      /  F ield         | OpenFOAM: The Open Source CFD Toolbox           |
|  \\    /   O peration     | Version:  2406                                  |
|   \\  /    A nd           | Website:  www.openfoam.com                      |
|    \\/     M anipulation  |                                                 |
\*---------------------------------------------------------------------------*/
FoamFile
{
    version     2.0;
    format      ascii;
    arch        "LSB;label=32;scalar=64";
    class       volVectorField;
    location    "39.1";
    object      U_0;
}
// * * * * * * * * * * * * * * * * * * * * * * * * * * * * * * * * * * * * * //

dimensions      [0 1 -1 0 0 0 0];

internalField   nonuniform List<vector> 
14400
(
(-6.42409e-06 6.3209e-06 0)
(1.78419e-05 -1.20188e-05 0)
(0.000128254 -3.54705e-05 0)
(0.000319296 -5.42201e-05 0)
(0.000570671 -6.70083e-05 0)
(0.000859947 -7.37507e-05 0)
(0.00116502 -7.51155e-05 0)
(0.00146654 -7.20334e-05 0)
(0.001749 -6.56076e-05 0)
(0.00200115 -5.69927e-05 0)
(0.00221619 -4.73044e-05 0)
(0.00239143 -3.75333e-05 0)
(0.00252775 -2.84796e-05 0)
(0.00262877 -2.07137e-05 0)
(0.00269995 -1.45594e-05 0)
(0.00274765 -1.00943e-05 0)
(0.00277832 -7.22107e-06 0)
(0.00279757 -5.78735e-06 0)
(0.00280962 -5.39422e-06 0)
(0.00281701 -5.58493e-06 0)
(0.00282026 -5.81345e-06 0)
(0.00281835 -5.28847e-06 0)
(0.00280878 -3.82866e-06 0)
(0.00278732 -1.29988e-06 0)
(0.00274891 2.46295e-06 0)
(0.00268793 7.55674e-06 0)
(0.00259844 1.40228e-05 0)
(0.00247432 2.18793e-05 0)
(0.0023094 3.11438e-05 0)
(0.0020974 4.18464e-05 0)
(0.0018319 5.40331e-05 0)
(0.00150635 6.77586e-05 0)
(0.00111402 8.30747e-05 0)
(0.000648119 0.000100016 0)
(0.00010188 0.00011859 0)
(-0.000531273 0.000138763 0)
(-0.00125752 0.000160455 0)
(-0.00208245 0.000183537 0)
(-0.00301075 0.000207825 0)
(-0.00404606 0.000233077 0)
(-0.00519062 0.000259001 0)
(-0.0064451 0.000285246 0)
(-0.00780836 0.000311414 0)
(-0.00927724 0.000337062 0)
(-0.0108464 0.000361708 0)
(-0.0125083 0.000384838 0)
(-0.0142529 0.000405918 0)
(-0.0160679 0.0004244 0)
(-0.0179386 0.00043973 0)
(-0.0198482 0.00045136 0)
(-0.0217776 0.00045875 0)
(-0.0237059 0.000461381 0)
(-0.0256104 0.000458759 0)
(-0.0274671 0.000450421 0)
(-0.0292505 0.000435947 0)
(-0.0309344 0.000414966 0)
(-0.0324921 0.000387162 0)
(-0.0338966 0.000352298 0)
(-0.0351212 0.000310213 0)
(-0.0361397 0.000260746 0)
(-0.0369277 0.000204151 0)
(-0.0374624 0.0001422 0)
(-0.0377202 7.55069e-05 0)
(-0.0376812 1.49835e-06 0)
(-0.0373327 -7.90189e-05 0)
(-0.0366638 -0.000163318 0)
(-0.0356665 -0.000249926 0)
(-0.0343391 -0.000337478 0)
(-0.0326857 -0.000424292 0)
(-0.0307165 -0.000508491 0)
(-0.0284483 -0.000588053 0)
(-0.0259047 -0.000660866 0)
(-0.0231162 -0.000724819 0)
(-0.0201198 -0.00077789 0)
(-0.0169585 -0.000818247 0)
(-0.0136807 -0.000844357 0)
(-0.0103388 -0.000855079 0)
(-0.00698825 -0.000849757 0)
(-0.00368567 -0.000828291 0)
(-0.000487274 -0.00079117 0)
(0.00255305 -0.000739485 0)
(0.00538552 -0.00067489 0)
(0.0079662 -0.000599537 0)
(0.0102585 -0.000515963 0)
(0.0122343 -0.000426959 0)
(0.0138751 -0.000335415 0)
(0.0151718 -0.000244162 0)
(0.0161252 -0.000155813 0)
(0.0167453 -7.25561e-05 0)
(0.0170513 3.38913e-06 0)
(0.0170678 6.89468e-05 0)
(0.0168232 0.000124059 0)
(0.0163537 0.000170658 0)
(0.015698 0.000208255 0)
(0.0148932 0.000236 0)
(0.0139756 0.000254509 0)
(0.0129803 0.000264797 0)
(0.0119392 0.000267937 0)
(0.0108806 0.000265066 0)
(0.00982866 0.00025733 0)
(0.00880329 0.000245834 0)
(0.00782005 0.0002316 0)
(0.00689049 0.000215547 0)
(0.00602247 0.000198476 0)
(0.00522059 0.000181064 0)
(0.00448667 0.000163866 0)
(0.00382023 0.000147325 0)
(0.00321895 0.00013178 0)
(0.00267914 0.000117468 0)
(0.00219616 0.000104516 0)
(0.00176499 9.29271e-05 0)
(0.00138078 8.25427e-05 0)
(0.0010396 7.30079e-05 0)
(0.000739258 6.37388e-05 0)
(0.000480159 5.39175e-05 0)
(0.000265968 4.25889e-05 0)
(0.000103669 2.89255e-05 0)
(2.06792e-06 1.27148e-05 0)
(-3.45932e-05 -3.93057e-06 0)
(-1.3338e-05 -1.33567e-05 0)
(1.08967e-05 -1.69876e-05 0)
(0.000157228 -0.000161521 0)
(0.000484852 -0.000334422 0)
(0.000985818 -0.000477178 0)
(0.00161388 -0.000576553 0)
(0.00232348 -0.000630238 0)
(0.00306681 -0.000641562 0)
(0.0038006 -0.000616927 0)
(0.00448902 -0.000564462 0)
(0.00510524 -0.000493005 0)
(0.00563191 -0.000411277 0)
(0.00606076 -0.000327174 0)
(0.00639151 -0.000247202 0)
(0.00663017 -0.000176121 0)
(0.00678707 -0.000116775 0)
(0.00687479 -7.01195e-05 0)
(0.00690602 -3.54231e-05 0)
(0.006892 -1.06514e-05 0)
(0.0068409 7.34558e-06 0)
(0.00675696 2.23841e-05 0)
(0.00664016 3.84356e-05 0)
(0.00648586 5.94313e-05 0)
(0.00628534 8.83724e-05 0)
(0.00602688 0.000127572 0)
(0.00569629 0.000178658 0)
(0.00527771 0.000242621 0)
(0.00475431 0.000319981 0)
(0.00410879 0.000410993 0)
(0.0033236 0.000515817 0)
(0.00238116 0.000634608 0)
(0.00126388 0.000767543 0)
(-4.56319e-05 0.000914757 0)
(-0.00156437 0.00107625 0)
(-0.00330858 0.00125179 0)
(-0.00529327 0.00144077 0)
(-0.00753165 0.00164219 0)
(-0.0100345 0.00185453 0)
(-0.0128095 0.00207579 0)
(-0.0158607 0.00230342 0)
(-0.0191874 0.00253435 0)
(-0.0227844 0.00276502 0)
(-0.0266409 0.00299144 0)
(-0.0307403 0.00320924 0)
(-0.0350603 0.00341378 0)
(-0.0395726 0.00360023 0)
(-0.0442432 0.00376372 0)
(-0.0490326 0.00389942 0)
(-0.0538966 0.00400267 0)
(-0.0587867 0.0040691 0)
(-0.0636507 0.00409472 0)
(-0.068434 0.00407598 0)
(-0.0730799 0.00400987 0)
(-0.0775309 0.00389399 0)
(-0.0817292 0.00372654 0)
(-0.0856181 0.0035064 0)
(-0.089142 0.00323314 0)
(-0.0922479 0.00290703 0)
(-0.0948856 0.00252909 0)
(-0.0970089 0.00210114 0)
(-0.0985755 0.00162578 0)
(-0.0995475 0.00110661 0)
(-0.0998937 0.000549191 0)
(-0.0995903 -4.03894e-05 0)
(-0.0986165 -0.000658626 0)
(-0.0969591 -0.00129852 0)
(-0.0946153 -0.00195075 0)
(-0.0915898 -0.00260582 0)
(-0.087896 -0.00325342 0)
(-0.0835566 -0.00388247 0)
(-0.0786038 -0.0044813 0)
(-0.0730799 -0.00503784 0)
(-0.0670369 -0.00553993 0)
(-0.0605369 -0.00597571 0)
(-0.0536509 -0.00633399 0)
(-0.0464589 -0.00660472 0)
(-0.0390482 -0.00677947 0)
(-0.0315123 -0.00685186 0)
(-0.0239496 -0.00681803 0)
(-0.0164606 -0.00667694 0)
(-0.00914652 -0.00643064 0)
(-0.00210626 -0.00608442 0)
(0.00456577 -0.00564667 0)
(0.0107823 -0.00512878 0)
(0.0164658 -0.00454467 0)
(0.0215504 -0.00391034 0)
(0.025984 -0.00324316 0)
(0.0297299 -0.00256115 0)
(0.0327674 -0.00188225 0)
(0.0350923 -0.00122352 0)
(0.0367163 -0.000600675 0)
(0.0376672 -2.81755e-05 0)
(0.037988 0.00048422 0)
(0.0377332 0.000931107 0)
(0.0369654 0.00130727 0)
(0.0357548 0.00160984 0)
(0.0341769 0.00183975 0)
(0.0323077 0.00200055 0)
(0.0302218 0.00209775 0)
(0.0279899 0.00213832 0)
(0.0256767 0.00213017 0)
(0.0233394 0.00208169 0)
(0.0210271 0.00200124 0)
(0.0187796 0.00189685 0)
(0.0166283 0.00177591 0)
(0.014596 0.00164502 0)
(0.0126978 0.00150983 0)
(0.010942 0.00137508 0)
(0.00933121 0.00124453 0)
(0.0078633 0.00112099 0)
(0.0065328 0.00100619 0)
(0.00533214 0.000900694 0)
(0.00425326 0.000803652 0)
(0.00328929 0.000712614 0)
(0.00243643 0.000623402 0)
(0.00169561 0.000530291 0)
(0.00107364 0.000426877 0)
(0.000582903 0.000308141 0)
(0.000237256 0.000174855 0)
(4.68801e-05 4.14974e-05 0)
(-2.83796e-06 -3.36294e-05 0)
(3.26686e-05 -0.000121684 0)
(0.000320579 -0.000485127 0)
(0.000848052 -0.000864941 0)
(0.0016018 -0.00117715 0)
(0.00251357 -0.00139516 0)
(0.0035257 -0.0015124 0)
(0.00457578 -0.00153443 0)
(0.0056065 -0.00147421 0)
(0.00656963 -0.00134912 0)
(0.00742828 -0.00117854 0)
(0.00815765 -0.000981889 0)
(0.00874468 -0.000776939 0)
(0.00918666 -0.000578503 0)
(0.00948918 -0.000397548 0)
(0.00966352 -0.000240762 0)
(0.00972387 -0.000110529 0)
(0.00968466 -5.25185e-06 0)
(0.00955811 7.99863e-05 0)
(0.00935241 0.000152476 0)
(0.00907023 0.000221038 0)
(0.0087081 0.000294881 0)
(0.00825641 0.000382588 0)
(0.00769992 0.000491738 0)
(0.00701888 0.000628236 0)
(0.00619004 0.000796212 0)
(0.00518779 0.00099824 0)
(0.00398517 0.00123571 0)
(0.00255461 0.00150923 0)
(0.000868486 0.001819 0)
(-0.0011004 0.00216495 0)
(-0.00337843 0.00254677 0)
(-0.00599062 0.00296373 0)
(-0.00895996 0.00341451 0)
(-0.0123066 0.00389688 0)
(-0.0160469 0.00440754 0)
(-0.0201923 0.00494192 0)
(-0.0247483 0.00549414 0)
(-0.0297137 0.00605696 0)
(-0.0350793 0.00662185 0)
(-0.0408273 0.00717913 0)
(-0.0469312 0.00771816 0)
(-0.0533554 0.00822756 0)
(-0.0600551 0.00869557 0)
(-0.0669776 0.00911032 0)
(-0.0740623 0.00946021 0)
(-0.0812423 0.00973427 0)
(-0.0884458 0.00992243 0)
(-0.0955972 0.0100158 0)
(-0.102619 0.010007 0)
(-0.109433 0.00989011 0)
(-0.115962 0.00966093 0)
(-0.122132 0.00931693 0)
(-0.127871 0.00885724 0)
(-0.133111 0.00828262 0)
(-0.137792 0.00759529 0)
(-0.141855 0.00679896 0)
(-0.145251 0.00589861 0)
(-0.147934 0.00490052 0)
(-0.149868 0.00381219 0)
(-0.15102 0.00264237 0)
(-0.151365 0.00140075 0)
(-0.150884 9.79395e-05 0)
(-0.149567 -0.00125311 0)
(-0.14741 -0.00263765 0)
(-0.144414 -0.00404154 0)
(-0.14059 -0.00544905 0)
(-0.135954 -0.00684257 0)
(-0.130533 -0.00820315 0)
(-0.12436 -0.00951085 0)
(-0.117479 -0.0107449 0)
(-0.109939 -0.0118842 0)
(-0.1018 -0.0129075 0)
(-0.0931331 -0.013794 0)
(-0.0840139 -0.0145243 0)
(-0.0745288 -0.0150807 0)
(-0.064771 -0.0154478 0)
(-0.0548404 -0.015614 0)
(-0.0448422 -0.0155715 0)
(-0.0348854 -0.015317 0)
(-0.0250808 -0.0148526 0)
(-0.0155392 -0.0141856 0)
(-0.00636877 -0.0133291 0)
(0.00232699 -0.0123013 0)
(0.0104519 -0.0111254 0)
(0.0179193 -0.00982888 0)
(0.0246544 -0.00844242 0)
(0.0305959 -0.00699911 0)
(0.035698 -0.00553312 0)
(0.0399315 -0.00407846 0)
(0.0432844 -0.00266761 0)
(0.0457629 -0.00132985 0)
(0.0473916 -9.12895e-05 0)
(0.0482104 0.00102569 0)
(0.0482735 0.00200407 0)
(0.0476502 0.00283362 0)
(0.0464205 0.00350933 0)
(0.0446721 0.00403155 0)
(0.0424967 0.00440582 0)
(0.0399877 0.00464209 0)
(0.037236 0.0047538 0)
(0.0343276 0.00475692 0)
(0.0313406 0.00466884 0)
(0.0283439 0.00450744 0)
(0.0253955 0.0042902 0)
(0.0225424 0.00403352 0)
(0.0198203 0.00375223 0)
(0.0172545 0.00345924 0)
(0.014861 0.00316528 0)
(0.0126474 0.00287875 0)
(0.0106153 0.00260542 0)
(0.00876145 0.0023481 0)
(0.00708053 0.00210624 0)
(0.00556721 0.00187557 0)
(0.00421868 0.00164805 0)
(0.00303683 0.00141245 0)
(0.00202959 0.00115644 0)
(0.0012107 0.000870669 0)
(0.000594004 0.000556738 0)
(0.000200744 0.000239771 0)
(1.66875e-05 1.10512e-05 0)
(4.98067e-05 -0.000301591 0)
(0.000456412 -0.000975724 0)
(0.00115208 -0.00161706 0)
(0.00211101 -0.00213401 0)
(0.00324081 -0.00249064 0)
(0.00447332 -0.00267729 0)
(0.00573568 -0.00270266 0)
(0.00696156 -0.00258766 0)
(0.0080951 -0.00236083 0)
(0.00909332 -0.00205433 0)
(0.00992676 -0.00170055 0)
(0.010579 -0.00132927 0)
(0.0110452 -0.00096538 0)
(0.0113294 -0.000627343 0)
(0.0114419 -0.000326417 0)
(0.0113957 -6.65398e-05 0)
(0.0112039 0.000155143 0)
(0.0108763 0.000347243 0)
(0.0104179 0.000522599 0)
(0.00982669 0.000696568 0)
(0.00909339 0.000885295 0)
(0.00820136 0.00110405 0)
(0.00712741 0.00136604 0)
(0.00584298 0.0016816 0)
(0.00431558 0.00205801 0)
(0.00251025 0.00249978 0)
(0.000390811 0.00300919 0)
(-0.00207902 0.00358693 0)
(-0.00493471 0.0042326 0)
(-0.00820999 0.00494487 0)
(-0.0119359 0.00572147 0)
(-0.0161398 0.00655884 0)
(-0.0208437 0.00745178 0)
(-0.0260634 0.00839303 0)
(-0.0318067 0.00937298 0)
(-0.038072 0.0103795 0)
(-0.044847 0.0113981 0)
(-0.0521082 0.0124118 0)
(-0.0598198 0.0134018 0)
(-0.0679338 0.0143477 0)
(-0.0763908 0.0152284 0)
(-0.0851208 0.0160224 0)
(-0.0940445 0.0167089 0)
(-0.103076 0.0172682 0)
(-0.112123 0.0176827 0)
(-0.121093 0.017937 0)
(-0.129892 0.0180189 0)
(-0.138428 0.017919 0)
(-0.146613 0.0176315 0)
(-0.154365 0.0171534 0)
(-0.161607 0.0164849 0)
(-0.168272 0.015629 0)
(-0.174297 0.0145909 0)
(-0.179631 0.013378 0)
(-0.184227 0.0119994 0)
(-0.188047 0.0104657 0)
(-0.191059 0.00878868 0)
(-0.193239 0.00698138 0)
(-0.194567 0.00505773 0)
(-0.195029 0.00303279 0)
(-0.194617 0.000922568 0)
(-0.193324 -0.00125625 0)
(-0.191153 -0.00348597 0)
(-0.188109 -0.00574585 0)
(-0.184201 -0.00801431 0)
(-0.179445 -0.0102688 0)
(-0.173861 -0.0124852 0)
(-0.167475 -0.0146374 0)
(-0.160319 -0.0166981 0)
(-0.152432 -0.0186388 0)
(-0.14386 -0.02043 0)
(-0.134659 -0.0220422 0)
(-0.124889 -0.0234461 0)
(-0.114621 -0.0246137 0)
(-0.103935 -0.0255193 0)
(-0.092916 -0.0261404 0)
(-0.0816587 -0.0264586 0)
(-0.0702636 -0.0264608 0)
(-0.0588365 -0.0261403 0)
(-0.0474867 -0.0254973 0)
(-0.0363256 -0.0245394 0)
(-0.0254643 -0.023282 0)
(-0.0150114 -0.0217483 0)
(-0.0050709 -0.0199687 0)
(0.00426003 -0.0179799 0)
(0.0128933 -0.0158243 0)
(0.0207516 -0.0135482 0)
(0.0277704 -0.0112007 0)
(0.0338992 -0.00883202 0)
(0.0391027 -0.00649156 0)
(0.0433623 -0.00422666 0)
(0.0466755 -0.00208149 0)
(0.0490564 -9.54612e-05 0)
(0.050537 0.00169899 0)
(0.0511656 0.00327711 0)
(0.051005 0.00462157 0)
(0.0501311 0.00572334 0)
(0.0486309 0.00658177 0)
(0.046599 0.00720414 0)
(0.0441343 0.00760479 0)
(0.0413363 0.00780389 0)
(0.0383018 0.00782598 0)
(0.0351213 0.00769836 0)
(0.0318766 0.00744953 0)
(0.0286387 0.00710774 0)
(0.0254665 0.00669976 0)
(0.022407 0.00624991 0)
(0.0194949 0.00577931 0)
(0.0167541 0.00530521 0)
(0.0141994 0.00484035 0)
(0.0118379 0.00439226 0)
(0.00967211 0.00396262 0)
(0.00770242 0.0035467 0)
(0.00592985 0.0031334 0)
(0.00435883 0.00270641 0)
(0.00299905 0.00224732 0)
(0.00186622 0.00174166 0)
(0.000976002 0.00118932 0)
(0.000368665 0.00061961 0)
(3.8014e-05 0.000135475 0)
(6.25233e-05 -0.000539738 0)
(0.00056126 -0.00159568 0)
(0.00139091 -0.00253528 0)
(0.00251079 -0.00327199 0)
(0.00380427 -0.00376791 0)
(0.00519176 -0.00401431 0)
(0.00659107 -0.00402534 0)
(0.00792896 -0.00383157 0)
(0.00914466 -0.00347407 0)
(0.0101917 -0.00299896 0)
(0.0110382 -0.00245257 0)
(0.0116661 -0.00187734 0)
(0.0120689 -0.00130858 0)
(0.012249 -0.000772333 0)
(0.0122146 -0.000284143 0)
(0.0119759 0.000151059 0)
(0.0115421 0.000538211 0)
(0.010918 0.000890604 0)
(0.0101023 0.00122771 0)
(0.00908579 0.0015726 0)
(0.00785086 0.00194934 0)
(0.00637188 0.00238057 0)
(0.00461628 0.00288567 0)
(0.00254611 0.00347967 0)
(0.000119889 0.00417288 0)
(-0.0027057 0.00497133 0)
(-0.00597409 0.00587746 0)
(-0.00972734 0.00689087 0)
(-0.0140047 0.00800893 0)
(-0.0188409 0.00922683 0)
(-0.0242649 0.0105375 0)
(-0.0302976 0.0119309 0)
(-0.0369503 0.013394 0)
(-0.0442227 0.0149096 0)
(-0.0521013 0.0164571 0)
(-0.0605578 0.0180118 0)
(-0.0695492 0.0195458 0)
(-0.0790172 0.0210284 0)
(-0.0888891 0.0224274 0)
(-0.0990796 0.02371 0)
(-0.109493 0.0248443 0)
(-0.120026 0.0258001 0)
(-0.130573 0.0265506 0)
(-0.141023 0.027073 0)
(-0.151273 0.027349 0)
(-0.16122 0.027366 0)
(-0.170773 0.027116 0)
(-0.179846 0.0265964 0)
(-0.188365 0.0258091 0)
(-0.196266 0.0247599 0)
(-0.203494 0.0234578 0)
(-0.210004 0.0219146 0)
(-0.215759 0.0201442 0)
(-0.220731 0.0181618 0)
(-0.224898 0.0159835 0)
(-0.228241 0.0136264 0)
(-0.230749 0.0111078 0)
(-0.232413 0.00844548 0)
(-0.233228 0.00565774 0)
(-0.233188 0.00276327 0)
(-0.232295 -0.000218422 0)
(-0.230547 -0.00326687 0)
(-0.227949 -0.00636072 0)
(-0.224504 -0.00947713 0)
(-0.22022 -0.0125909 0)
(-0.215108 -0.0156753 0)
(-0.209181 -0.0187013 0)
(-0.202456 -0.0216378 0)
(-0.194956 -0.0244518 0)
(-0.186711 -0.0271082 0)
(-0.177754 -0.0295704 0)
(-0.16813 -0.0318012 0)
(-0.157888 -0.0337631 0)
(-0.147088 -0.0354197 0)
(-0.135798 -0.0367367 0)
(-0.124095 -0.0376832 0)
(-0.112067 -0.0382333 0)
(-0.0998077 -0.0383672 0)
(-0.0874183 -0.0380727 0)
(-0.0750061 -0.0373462 0)
(-0.0626821 -0.0361934 0)
(-0.0505589 -0.0346302 0)
(-0.0387486 -0.0326821 0)
(-0.0273603 -0.0303844 0)
(-0.0164978 -0.0277807 0)
(-0.00625746 -0.0249223 0)
(0.00327346 -0.0218662 0)
(0.0120186 -0.0186737 0)
(0.0199137 -0.0154084 0)
(0.0269075 -0.0121343 0)
(0.0329625 -0.00891433 0)
(0.0380557 -0.00580845 0)
(0.0421785 -0.00287162 0)
(0.0453385 -0.000152388 0)
(0.0475585 0.00230753 0)
(0.0488767 0.00447545 0)
(0.0493468 0.00632856 0)
(0.0490363 0.00785442 0)
(0.0480257 0.00905125 0)
(0.046405 0.00992761 0)
(0.0442715 0.0105015 0)
(0.041726 0.0107991 0)
(0.0388689 0.0108528 0)
(0.0357965 0.0106991 0)
(0.0325982 0.0103766 0)
(0.0293532 0.00992402 0)
(0.0261295 0.00937811 0)
(0.0229827 0.00877223 0)
(0.0199557 0.0081349 0)
(0.0170806 0.0074885 0)
(0.0143793 0.00684804 0)
(0.0118664 0.00622004 0)
(0.00955172 0.00560168 0)
(0.00744346 0.00498088 0)
(0.00555118 0.00433772 0)
(0.00388863 0.00364826 0)
(0.00247598 0.00289159 0)
(0.00133401 0.0020612 0)
(0.000526025 0.00118009 0)
(5.76549e-05 0.000340937 0)
(7.18125e-05 -0.000821919 0)
(0.000640365 -0.00231765 0)
(0.00157294 -0.00358623 0)
(0.00281395 -0.00455156 0)
(0.00422368 -0.00517977 0)
(0.00571015 -0.00546772 0)
(0.00718182 -0.00543848 0)
(0.00855949 -0.00513486 0)
(0.00977895 -0.00461237 0)
(0.0107921 -0.0039324 0)
(0.0115664 -0.00315594 0)
(0.0120832 -0.00233827 0)
(0.0123355 -0.00152487 0)
(0.0123242 -0.000748631 0)
(0.0120544 -2.84108e-05 0)
(0.0115323 0.000631084 0)
(0.010761 0.00123823 0)
(0.00973825 0.00181235 0)
(0.00845375 0.00238073 0)
(0.00688853 0.00297511 0)
(0.00501455 0.00362811 0)
(0.00279568 0.00436994 0)
(0.000189278 0.00522596 0)
(-0.00285171 0.00621521 0)
(-0.00637649 0.00735004 0)
(-0.0104342 0.00863655 0)
(-0.0150717 0.0100754 0)
(-0.0203316 0.0116627 0)
(-0.0262501 0.0133905 0)
(-0.0328547 0.0152468 0)
(-0.0401619 0.0172149 0)
(-0.0481746 0.0192735 0)
(-0.0568805 0.0213959 0)
(-0.0662497 0.0235499 0)
(-0.0762344 0.0256982 0)
(-0.0867683 0.0277994 0)
(-0.0977682 0.0298093 0)
(-0.109136 0.0316823 0)
(-0.120762 0.0333737 0)
(-0.132528 0.0348413 0)
(-0.144313 0.0360471 0)
(-0.155996 0.0369595 0)
(-0.167463 0.0375532 0)
(-0.178607 0.0378109 0)
(-0.18933 0.0377225 0)
(-0.19955 0.0372851 0)
(-0.209195 0.0365023 0)
(-0.218208 0.0353828 0)
(-0.22654 0.0339399 0)
(-0.234158 0.0321899 0)
(-0.241034 0.0301515 0)
(-0.247148 0.0278447 0)
(-0.252488 0.0252902 0)
(-0.257044 0.0225086 0)
(-0.260811 0.0195205 0)
(-0.263785 0.0163463 0)
(-0.265963 0.0130056 0)
(-0.267344 0.00951787 0)
(-0.267926 0.00590262 0)
(-0.267708 0.00217943 0)
(-0.266686 -0.00163153 0)
(-0.26486 -0.00550904 0)
(-0.262228 -0.00943048 0)
(-0.258788 -0.0133715 0)
(-0.254539 -0.0173054 0)
(-0.249483 -0.0212028 0)
(-0.243624 -0.0250315 0)
(-0.236968 -0.0287565 0)
(-0.229525 -0.0323395 0)
(-0.221312 -0.0357396 0)
(-0.212351 -0.0389132 0)
(-0.202672 -0.0418151 0)
(-0.192312 -0.0443994 0)
(-0.181319 -0.0466202 0)
(-0.16975 -0.0484336 0)
(-0.157672 -0.0497988 0)
(-0.145163 -0.0506806 0)
(-0.132313 -0.0510503 0)
(-0.119219 -0.0508884 0)
(-0.105986 -0.0501852 0)
(-0.0927285 -0.0489428 0)
(-0.079561 -0.0471755 0)
(-0.0666014 -0.0449097 0)
(-0.0539656 -0.0421843 0)
(-0.0417654 -0.0390489 0)
(-0.0301059 -0.0355627 0)
(-0.019083 -0.0317926 0)
(-0.00878217 -0.027811 0)
(0.000723051 -0.0236935 0)
(0.00937152 -0.0195171 0)
(0.0171149 -0.0153577 0)
(0.0239175 -0.0112886 0)
(0.0297564 -0.00737883 0)
(0.0346219 -0.00369149 0)
(0.0385171 -0.000282693 0)
(0.0414589 0.00280008 0)
(0.0434779 0.0055192 0)
(0.0446188 0.00784808 0)
(0.0449405 0.00977201 0)
(0.0445146 0.0112887 0)
(0.0434243 0.012408 0)
(0.0417615 0.0131516 0)
(0.0396239 0.0135507 0)
(0.0371109 0.0136448 0)
(0.0343204 0.0134789 0)
(0.0313448 0.0131007 0)
(0.0282681 0.0125581 0)
(0.0251639 0.0118964 0)
(0.0220941 0.0111565 0)
(0.0191085 0.010372 0)
(0.0162461 0.00956775 0)
(0.0135363 0.00875749 0)
(0.0110013 0.00794291 0)
(0.00865945 0.00711324 0)
(0.00652848 0.00624662 0)
(0.00462908 0.00531412 0)
(0.00298872 0.00428681 0)
(0.00163629 0.00314697 0)
(0.000658526 0.00190195 0)
(7.40466e-05 0.000617875 0)
(7.88907e-05 -0.00113723 0)
(0.000700595 -0.00311707 0)
(0.00170996 -0.0047364 0)
(0.00303671 -0.00593144 0)
(0.00451959 -0.00667692 0)
(0.0060538 -0.00697992 0)
(0.00753855 -0.0068765 0)
(0.00888927 -0.00642495 0)
(0.0100394 -0.0056976 0)
(0.0109406 -0.00477257 0)
(0.011561 -0.00372604 0)
(0.0118828 -0.00262593 0)
(0.0118987 -0.00152698 0)
(0.0116079 -0.000467531 0)
(0.0110122 0.000531944 0)
(0.0101121 0.00146882 0)
(0.00890302 0.00235671 0)
(0.00737297 0.00322255 0)
(0.00550083 0.00410267 0)
(0.00325578 0.00503814 0)
(0.000598008 0.00607016 0)
(-0.00251966 0.0072359 0)
(-0.00614935 0.00856542 0)
(-0.0103454 0.01008 0)
(-0.0151614 0.0117917 0)
(-0.0206477 0.0137037 0)
(-0.0268481 0.0158117 0)
(-0.0337977 0.0181041 0)
(-0.0415199 0.0205627 0)
(-0.0500234 0.0231628 0)
(-0.0592995 0.0258726 0)
(-0.0693203 0.028653 0)
(-0.0800365 0.0314582 0)
(-0.0913777 0.0342361 0)
(-0.103254 0.03693 0)
(-0.115556 0.039481 0)
(-0.128162 0.0418302 0)
(-0.140942 0.0439214 0)
(-0.153762 0.045704 0)
(-0.16649 0.0471351 0)
(-0.179001 0.0481809 0)
(-0.191183 0.0488175 0)
(-0.202935 0.0490315 0)
(-0.214175 0.0488185 0)
(-0.224834 0.0481831 0)
(-0.234859 0.0471366 0)
(-0.244211 0.045696 0)
(-0.252862 0.043882 0)
(-0.260794 0.0417181 0)
(-0.267996 0.039229 0)
(-0.274462 0.0364397 0)
(-0.280191 0.0333751 0)
(-0.285182 0.0300591 0)
(-0.289437 0.0265143 0)
(-0.292958 0.0227623 0)
(-0.295746 0.0188236 0)
(-0.297799 0.0147175 0)
(-0.299118 0.010463 0)
(-0.2997 0.00607851 0)
(-0.299539 0.00158281 0)
(-0.298632 -0.00300472 0)
(-0.296972 -0.00766353 0)
(-0.29455 -0.0123712 0)
(-0.29136 -0.0171032 0)
(-0.287393 -0.021832 0)
(-0.282641 -0.0265269 0)
(-0.277099 -0.0311534 0)
(-0.270763 -0.0356733 0)
(-0.26363 -0.0400443 0)
(-0.255705 -0.0442199 0)
(-0.246995 -0.0481502 0)
(-0.237516 -0.0517824 0)
(-0.227291 -0.0550614 0)
(-0.216352 -0.0579316 0)
(-0.204742 -0.0603382 0)
(-0.192517 -0.0622291 0)
(-0.179745 -0.0635574 0)
(-0.166504 -0.0642834 0)
(-0.152889 -0.064377 0)
(-0.139002 -0.0638201 0)
(-0.124958 -0.0626079 0)
(-0.110878 -0.0607506 0)
(-0.0968862 -0.0582735 0)
(-0.0831103 -0.0552174 0)
(-0.0696739 -0.0516371 0)
(-0.0566951 -0.0475994 0)
(-0.0442828 -0.0431815 0)
(-0.0325342 -0.0384674 0)
(-0.0215336 -0.0335456 0)
(-0.0113511 -0.0285061 0)
(-0.0020428 -0.0234376 0)
(0.00634857 -0.0184261 0)
(0.0137929 -0.0135527 0)
(0.0202717 -0.00889266 0)
(0.0257778 -0.00451389 0)
(0.0303147 -0.000476246 0)
(0.033897 0.00316978 0)
(0.0365511 0.00638426 0)
(0.0383157 0.00913907 0)
(0.0392421 0.011419 0)
(0.0393944 0.0132223 0)
(0.0388483 0.014561 0)
(0.0376892 0.0154601 0)
(0.0360098 0.0159561 0)
(0.0339061 0.0160948 0)
(0.0314745 0.0159283 0)
(0.0288075 0.0155121 0)
(0.0259909 0.0149015 0)
(0.0231014 0.0141484 0)
(0.0202049 0.0132981 0)
(0.0173566 0.0123859 0)
(0.0146014 0.0114349 0)
(0.0119756 0.0104531 0)
(0.0095098 0.00943324 0)
(0.00723244 0.00835307 0)
(0.00517374 0.0071792 0)
(0.00337091 0.00587349 0)
(0.0018629 0.00440314 0)
(0.000757725 0.00275297 0)
(8.62185e-05 0.000951637 0)
(8.46115e-05 -0.00147834 0)
(0.000747364 -0.00397469 0)
(0.00181146 -0.00595678 0)
(0.00319187 -0.00737397 0)
(0.00470704 -0.00821333 0)
(0.00623956 -0.00849668 0)
(0.00767993 -0.00827746 0)
(0.00893906 -0.0076331 0)
(0.00994927 -0.00665546 0)
(0.0106631 -0.00544086 0)
(0.0110506 -0.00408109 0)
(0.0110952 -0.00265606 0)
(0.0107899 -0.00122827 0)
(0.0101319 0.000160453 0)
(0.0091185 0.00149041 0)
(0.00774293 0.00276343 0)
(0.00599111 0.00400051 0)
(0.00383956 0.00523786 0)
(0.00125443 0.00652179 0)
(-0.00180792 0.00790279 0)
(-0.00539926 0.00942978 0)
(-0.00957669 0.0111451 0)
(-0.0143993 0.0130809 0)
(-0.0199246 0.0152574 0)
(-0.0262048 0.0176824 0)
(-0.0332838 0.0203518 0)
(-0.0411933 0.0232509 0)
(-0.04995 0.0263547 0)
(-0.0595522 0.0296286 0)
(-0.0699768 0.0330286 0)
(-0.0811776 0.0365014 0)
(-0.0930842 0.0399853 0)
(-0.105603 0.0434119 0)
(-0.118619 0.0467084 0)
(-0.132 0.0498009 0)
(-0.145606 0.0526178 0)
(-0.15929 0.0550935 0)
(-0.172908 0.0571714 0)
(-0.186326 0.0588065 0)
(-0.199423 0.0599661 0)
(-0.212093 0.0606308 0)
(-0.224251 0.0607934 0)
(-0.235829 0.0604574 0)
(-0.246777 0.0596357 0)
(-0.257061 0.058348 0)
(-0.266657 0.0566189 0)
(-0.275554 0.0544764 0)
(-0.283747 0.0519498 0)
(-0.291236 0.0490687 0)
(-0.298026 0.0458621 0)
(-0.304121 0.0423576 0)
(-0.309529 0.0385814 0)
(-0.314254 0.0345573 0)
(-0.318302 0.0303078 0)
(-0.321676 0.0258533 0)
(-0.324379 0.0212129 0)
(-0.326411 0.0164043 0)
(-0.327771 0.0114448 0)
(-0.328454 0.00635109 0)
(-0.328456 0.00114032 0)
(-0.32777 -0.0041697 0)
(-0.326387 -0.00955976 0)
(-0.324296 -0.0150087 0)
(-0.321484 -0.0204926 0)
(-0.31794 -0.0259845 0)
(-0.313647 -0.0314533 0)
(-0.308593 -0.0368638 0)
(-0.302762 -0.042176 0)
(-0.296142 -0.0473447 0)
(-0.288722 -0.0523195 0)
(-0.280496 -0.0570452 0)
(-0.271462 -0.0614619 0)
(-0.261626 -0.0655063 0)
(-0.251002 -0.0691127 0)
(-0.239615 -0.0722148 0)
(-0.227502 -0.0747477 0)
(-0.214714 -0.0766509 0)
(-0.201318 -0.0778706 0)
(-0.187396 -0.078363 0)
(-0.173045 -0.0780971 0)
(-0.158378 -0.0770573 0)
(-0.143518 -0.0752454 0)
(-0.1286 -0.072682 0)
(-0.113763 -0.0694068 0)
(-0.0991474 -0.0654775 0)
(-0.0848909 -0.0609682 0)
(-0.0711224 -0.0559664 0)
(-0.0579588 -0.0505693 0)
(-0.0455019 -0.0448805 0)
(-0.0338366 -0.0390052 0)
(-0.0230301 -0.0330477 0)
(-0.013133 -0.0271081 0)
(-0.00418036 -0.0212804 0)
(0.00380605 -0.015651 0)
(0.0108157 -0.0102983 0)
(0.016848 -0.00529207 0)
(0.0219108 -0.000692531 0)
(0.026021 0.0034499 0)
(0.0292043 0.00709583 0)
(0.0314967 0.0102181 0)
(0.0329451 0.012803 0)
(0.0336078 0.0148509 0)
(0.0335543 0.0163769 0)
(0.0328641 0.01741 0)
(0.0316242 0.0179917 0)
(0.0299265 0.0181734 0)
(0.0278641 0.0180135 0)
(0.0255279 0.0175733 0)
(0.0230036 0.0169131 0)
(0.0203688 0.0160883 0)
(0.0176921 0.0151444 0)
(0.0150327 0.014114 0)
(0.0124409 0.0130128 0)
(0.00996054 0.0118383 0)
(0.0076321 0.0105692 0)
(0.00549719 0.00916815 0)
(0.00360422 0.0075872 0)
(0.00200312 0.00577624 0)
(0.000819211 0.00369358 0)
(9.3687e-05 0.00132465 0)
(8.94671e-05 -0.00184022 0)
(0.0007838 -0.00487487 0)
(0.0018828 -0.00722127 0)
(0.00328608 -0.00884325 0)
(0.00479292 -0.00974389 0)
(0.00627397 -0.00996438 0)
(0.00761214 -0.00958018 0)
(0.00871517 -0.00869181 0)
(0.00951557 -0.00741335 0)
(0.00996809 -0.00586073 0)
(0.0100453 -0.00414141 0)
(0.00973275 -0.00234609 0)
(0.00902297 -0.000543048 0)
(0.00791049 0.0012251 0)
(0.00638673 0.00294225 0)
(0.00443609 0.0046174 0)
(0.00203316 0.00628116 0)
(-0.00085852 0.00798043 0)
(-0.00428625 0.00977179 0)
(-0.00830626 0.0117142 0)
(-0.0129806 0.0138622 0)
(-0.0183729 0.01626 0)
(-0.0245443 0.0189375 0)
(-0.0315486 0.0219089 0)
(-0.0394281 0.0251719 0)
(-0.0482102 0.0287091 0)
(-0.0579027 0.0324885 0)
(-0.0684916 0.0364649 0)
(-0.0799376 0.0405806 0)
(-0.0921748 0.0447664 0)
(-0.105111 0.0489437 0)
(-0.118629 0.0530266 0)
(-0.132591 0.0569259 0)
(-0.146848 0.0605535 0)
(-0.16124 0.0638265 0)
(-0.175613 0.066672 0)
(-0.189819 0.0690302 0)
(-0.203726 0.0708564 0)
(-0.217221 0.0721219 0)
(-0.230211 0.0728136 0)
(-0.242626 0.0729318 0)
(-0.254414 0.0724889 0)
(-0.265541 0.0715058 0)
(-0.275987 0.0700101 0)
(-0.285744 0.0680334 0)
(-0.294809 0.0656095 0)
(-0.303189 0.0627726 0)
(-0.31089 0.0595563 0)
(-0.317922 0.0559926 0)
(-0.324297 0.0521116 0)
(-0.330023 0.0479411 0)
(-0.335112 0.0435064 0)
(-0.339572 0.0388307 0)
(-0.34341 0.0339348 0)
(-0.346632 0.0288376 0)
(-0.349244 0.0235565 0)
(-0.351246 0.0181076 0)
(-0.352641 0.0125059 0)
(-0.353427 0.00676635 0)
(-0.3536 0.000903858 0)
(-0.353154 -0.00506588 0)
(-0.352081 -0.0111258 0)
(-0.35037 -0.0172569 0)
(-0.348006 -0.0234373 0)
(-0.344973 -0.0296417 0)
(-0.341252 -0.0358406 0)
(-0.336821 -0.0419998 0)
(-0.331658 -0.0480792 0)
(-0.32574 -0.0540331 0)
(-0.319041 -0.0598092 0)
(-0.31154 -0.0653487 0)
(-0.303217 -0.070587 0)
(-0.294057 -0.0754535 0)
(-0.284053 -0.0798735 0)
(-0.273206 -0.0837694 0)
(-0.26153 -0.087063 0)
(-0.249052 -0.0896786 0)
(-0.235817 -0.0915455 0)
(-0.221889 -0.0926025 0)
(-0.20735 -0.092801 0)
(-0.192303 -0.0921091 0)
(-0.17687 -0.0905142 0)
(-0.161188 -0.0880261 0)
(-0.145408 -0.0846778 0)
(-0.12969 -0.0805256 0)
(-0.114194 -0.0756475 0)
(-0.099075 -0.0701403 0)
(-0.0844806 -0.0641151 0)
(-0.0705406 -0.0576925 0)
(-0.0573656 -0.0509973 0)
(-0.0450442 -0.0441535 0)
(-0.0336427 -0.0372798 0)
(-0.0232059 -0.030487 0)
(-0.0137604 -0.0238758 0)
(-0.00531759 -0.0175358 0)
(0.00212293 -0.0115461 0)
(0.0085705 -0.00597476 0)
(0.0140415 -0.000879725 0)
(0.0185586 0.00369179 0)
(0.022151 0.00770377 0)
(0.0248554 0.0111325 0)
(0.0267174 0.0139679 0)
(0.0277923 0.0162143 0)
(0.0281453 0.017891 0)
(0.0278512 0.0190317 0)
(0.0269921 0.0196828 0)
(0.0256558 0.0199008 0)
(0.0239316 0.0197489 0)
(0.0219081 0.0192921 0)
(0.0196694 0.0185926 0)
(0.0172936 0.0177045 0)
(0.0148511 0.0166689 0)
(0.0124047 0.0155094 0)
(0.0100109 0.0142284 0)
(0.00772274 0.0128063 0)
(0.00559379 0.0112025 0)
(0.00368403 0.00935914 0)
(0.00205422 0.00720838 0)
(0.000841978 0.00468093 0)
(9.63696e-05 0.0017181 0)
(9.3612e-05 -0.00221897 0)
(0.000810736 -0.00580351 0)
(0.00192486 -0.00850461 0)
(0.00331945 -0.0103032 0)
(0.0047757 -0.0112226 0)
(0.00615362 -0.0113284 0)
(0.00733019 -0.0107229 0)
(0.00821179 -0.00953366 0)
(0.00873271 -0.00789961 0)
(0.00885104 -0.0059573 0)
(0.00854264 -0.00382927 0)
(0.00779464 -0.00161533 0)
(0.00659879 0.000613182 0)
(0.00494546 0.002816 0)
(0.00281855 0.00498381 0)
(0.000191934 0.00713556 0)
(-0.00297247 0.00931336 0)
(-0.0067247 0.0115755 0)
(-0.0111249 0.0139879 0)
(-0.0162396 0.0166159 0)
(-0.0221371 0.0195154 0)
(-0.028882 0.0227273 0)
(-0.0365293 0.0262737 0)
(-0.0451198 0.0301554 0)
(-0.0546753 0.0343534 0)
(-0.0651942 0.038829 0)
(-0.0766489 0.0435259 0)
(-0.0889829 0.0483722 0)
(-0.10211 0.0532819 0)
(-0.115917 0.0581583 0)
(-0.130265 0.0628982 0)
(-0.144997 0.0673962 0)
(-0.159945 0.0715509 0)
(-0.174941 0.07527 0)
(-0.189824 0.0784752 0)
(-0.204446 0.0811057 0)
(-0.218683 0.0831194 0)
(-0.232431 0.084493 0)
(-0.245611 0.0852204 0)
(-0.258166 0.0853102 0)
(-0.270058 0.0847829 0)
(-0.281266 0.0836671 0)
(-0.291781 0.0819973 0)
(-0.301603 0.079811 0)
(-0.310738 0.0771469 0)
(-0.319196 0.0740433 0)
(-0.326991 0.0705373 0)
(-0.334136 0.0666638 0)
(-0.340647 0.0624555 0)
(-0.346536 0.0579422 0)
(-0.35182 0.0531513 0)
(-0.356512 0.0481073 0)
(-0.360625 0.0428322 0)
(-0.36417 0.0373457 0)
(-0.367159 0.0316653 0)
(-0.3696 0.0258066 0)
(-0.371501 0.0197839 0)