/*--------------------------------*- C++ -*----------------------------------*\
| =========                 |                                                 |
| \\      /  F ield         | OpenFOAM: The Open Source CFD Toolbox           |
|  \\    /   O peration     | Version:  2406                                  |
|   \\  /    A nd           | Website:  www.openfoam.com                      |
|    \\/     M anipulation  |                                                 |
\*---------------------------------------------------------------------------*/
FoamFile
{
    version     2.0;
    format      ascii;
    arch        "LSB;label=32;scalar=64";
    class       surfaceScalarField;
    location    "14";
    object      phi;
}
// * * * * * * * * * * * * * * * * * * * * * * * * * * * * * * * * * * * * * //

dimensions      [0 3 -1 0 0 0 0];

oriented        oriented;

internalField   nonuniform List<scalar> 
7080
(
-4.01928e-09
4.01824e-09
-1.30786e-07
1.26767e-07
-3.94947e-07
2.64161e-07
-7.54241e-07
3.59293e-07
-1.17118e-06
4.16941e-07
-1.61968e-06
4.48495e-07
-2.08511e-06
4.65436e-07
-2.56124e-06
4.76129e-07
-3.04693e-06
4.85687e-07
-3.54342e-06
4.96489e-07
-4.05245e-06
5.09037e-07
-4.57516e-06
5.22705e-07
-5.11145e-06
5.36291e-07
-5.65981e-06
5.48362e-07
-6.21724e-06
5.57431e-07
-6.77927e-06
5.62027e-07
-7.33996e-06
5.60693e-07
-7.89193e-06
5.51968e-07
-8.42628e-06
5.34351e-07
-8.93256e-06
5.06279e-07
-9.39869e-06
4.66127e-07
-9.81093e-06
4.12239e-07
-1.01539e-05
3.43002e-07
-1.04109e-05
2.56982e-07
-1.0564e-05
1.53103e-07
-1.0595e-05
3.10309e-08
-1.04857e-05
-1.09306e-07
-1.02202e-05
-2.65575e-07
-9.78492e-06
-4.35249e-07
-9.17134e-06
-6.13574e-07
-8.37705e-06
-7.9429e-07
-7.4074e-06
-9.69653e-07
-6.2766e-06
-1.1308e-06
-5.00823e-06
-1.26837e-06
-3.63498e-06
-1.37325e-06
-2.19743e-06
-1.43755e-06
-7.41966e-07
-1.45547e-06
6.82145e-07
-1.42411e-06
2.02616e-06
-1.34402e-06
3.24544e-06
-1.21928e-06
4.30267e-06
-1.05723e-06
5.1704e-06
-8.67731e-07
5.8325e-06
-6.62097e-07
6.28442e-06
-4.51922e-07
6.53233e-06
-2.47908e-07
6.59228e-06
-5.99504e-08
6.48238e-06
1.09906e-07
6.22791e-06
2.5447e-07
5.85557e-06
3.72338e-07
5.39008e-06
4.65492e-07
4.85342e-06
5.36658e-07
4.26399e-06
5.89432e-07
3.63707e-06
6.26914e-07
2.98562e-06
6.51455e-07
2.32242e-06
6.63193e-07
1.66434e-06
6.58079e-07
1.04009e-06
6.24253e-07
4.99748e-07
5.40343e-07
1.30472e-07
3.69276e-07
1.30472e-07
-1.41939e-07
1.45957e-07
-6.09684e-07
5.94512e-07
-1.37209e-06
1.02656e-06
-2.34803e-06
1.33524e-06
-3.46372e-06
1.53263e-06
-4.66557e-06
1.65034e-06
-5.92079e-06
1.72065e-06
-7.2129e-06
1.76824e-06
-8.53598e-06
1.80877e-06
-9.8894e-06
1.84992e-06
-1.12739e-05
1.89358e-06
-1.26892e-05
1.93796e-06
-1.41321e-05
1.97924e-06
-1.55965e-05
2.01271e-06
-1.70724e-05
2.03336e-06
-1.85466e-05
2.03624e-06
-2.00024e-05
2.01646e-06
-2.14197e-05
1.96927e-06
-2.27753e-05
1.88997e-06
-2.40429e-05
1.77389e-06
-2.51932e-05
1.61641e-06
-2.6194e-05
1.41307e-06
-2.70109e-05
1.15982e-06
-2.76073e-05
8.534e-07
-2.7946e-05
4.91876e-07
-2.79903e-05
7.53245e-08
-2.77061e-05
-3.93536e-07
-2.70634e-05
-9.08322e-07
-2.60398e-05
-1.45885e-06
-2.46228e-05
-2.0305e-06
-2.28128e-05
-2.60432e-06
-2.06249e-05
-3.1576e-06
-1.80908e-05
-3.66487e-06
-1.52596e-05
-4.09957e-06
-1.21968e-05
-4.43606e-06
-8.98236e-06
-4.65196e-06
-5.70729e-06
-4.73053e-06
-2.46868e-06
-4.66272e-06
6.35936e-07
-4.44864e-06
3.51476e-06
-4.0981e-06
6.08758e-06
-3.63006e-06
8.29083e-06
-3.07097e-06
1.00809e-05
-2.45222e-06
1.1436e-05
-1.80694e-06
1.23549e-05
-1.16683e-06
1.28542e-05
-5.5927e-07
1.29663e-05
-2.15749e-09
1.2736e-05
4.84743e-07
1.22085e-05
8.99869e-07
1.14319e-05
1.24207e-06
1.04522e-05
1.51632e-06
9.31128e-06
1.73037e-06
8.04612e-06
1.89208e-06
6.69075e-06
2.00682e-06
5.28032e-06
2.07363e-06
3.8586e-06
2.0798e-06
2.49012e-06
1.99273e-06
1.27819e-06
1.75227e-06
3.79384e-07
1.26808e-06
5.09856e-07
-3.25152e-07
4.71109e-07
-1.17265e-06
1.44201e-06
-2.42194e-06
2.27585e-06
-3.95829e-06
2.87159e-06
-5.68787e-06
3.26221e-06
-7.54305e-06
3.50553e-06
-9.48103e-06
3.65864e-06
-1.14783e-05
3.7655e-06
-1.35239e-05
3.85438e-06
-1.56133e-05
3.93935e-06
-1.77436e-05
4.02388e-06
-1.99102e-05
4.10455e-06
-2.2105e-05
4.17401e-06
-2.43154e-05
4.22314e-06
-2.65243e-05
4.24226e-06
-2.87099e-05
4.22184e-06
-3.08462e-05
4.15272e-06
-3.29032e-05
4.02623e-06
-3.48473e-05
3.83414e-06
-3.6642e-05
3.56856e-06
-3.82476e-05
3.22202e-06
-3.96222e-05
2.78763e-06
-4.07218e-05
2.25947e-06
-4.15016e-05
1.63323e-06
-4.19169e-05
9.07131e-07
-4.19245e-05
8.29275e-08
-4.14854e-05
-8.32607e-07
-4.05667e-05
-1.8271e-06
-3.91443e-05
-2.88119e-06
-3.72065e-05
-3.9683e-06
-3.47561e-05
-5.05471e-06
-3.18133e-05
-6.10042e-06
-2.84173e-05
-7.06087e-06
-2.46274e-05
-7.88946e-06
-2.05226e-05
-8.5409e-06
-1.61996e-05
-8.975e-06
-1.17694e-05
-9.16068e-06
-7.35254e-06
-9.07959e-06
-3.07224e-06
-8.72894e-06
9.52474e-07
-8.12281e-06
4.61421e-06
-7.2918e-06
7.82384e-06
-6.2806e-06
1.05156e-05
-5.14395e-06
1.26499e-05
-3.94123e-06
1.42137e-05
-2.7307e-06
1.52185e-05
-1.56399e-06
1.56982e-05
-4.81914e-07
1.56979e-05
4.85094e-07
1.52737e-05
1.32399e-06
1.44856e-05
2.03025e-06
1.33919e-05
2.60994e-06
1.20481e-05
3.07417e-06
1.05053e-05
3.43493e-06
8.81219e-06
3.69992e-06
7.02001e-06
3.86582e-06
5.19058e-06
3.90923e-06
3.40935e-06
3.77395e-06
1.8038e-06
3.35783e-06
5.65575e-07
2.50631e-06
1.07543e-06
-5.04748e-07
9.75857e-07
-1.73072e-06
2.66798e-06
-3.4592e-06
4.00433e-06
-5.52927e-06
4.94167e-06
-7.82573e-06
5.55866e-06
-1.02707e-05
5.95049e-06
-1.28157e-05
6.20361e-06
-1.5433e-05
6.38286e-06
-1.8108e-05
6.52935e-06
-2.08318e-05
6.6632e-06
-2.35968e-05
6.78887e-06
-2.63928e-05
6.90056e-06
-2.92055e-05
6.98674e-06
-3.20157e-05
7.03333e-06
-3.47992e-05
7.02568e-06
-3.7527e-05
6.9497e-06
-4.01667e-05
6.79237e-06
-4.26822e-05
6.54181e-06
-4.50354e-05
6.18726e-06
-4.71856e-05
5.71881e-06
-4.9091e-05
5.12735e-06
-5.0708e-05
4.40469e-06
-5.19925e-05
3.54397e-06
-5.28997e-05
2.54043e-06
-5.33853e-05
1.39268e-06
-5.34063e-05
1.03949e-07
-5.29231e-05
-1.3158e-06
-5.19011e-05
-2.84908e-06
-5.03133e-05
-4.46897e-06
-4.81431e-05
-6.1385e-06
-4.53873e-05
-7.81054e-06
-4.20591e-05
-9.42858e-06
-3.81914e-05
-1.09286e-05
-3.38385e-05
-1.22424e-05
-2.90778e-05
-1.33016e-05
-2.40093e-05
-1.40435e-05
-1.87533e-05
-1.44167e-05
-1.34458e-05
-1.43871e-05
-8.23183e-06
-1.39429e-05
-3.257e-06
-1.30976e-05
1.34218e-06
-1.1891e-05
5.44747e-06
-1.03859e-05
8.96675e-06
-8.66323e-06
1.18393e-05
-6.81373e-06
1.40374e-05
-4.92886e-06
1.55654e-05
-3.09195e-06
1.64547e-05
-1.37122e-06
1.67552e-05
1.84604e-07
1.65319e-05
1.54726e-06
1.58541e-05
2.7081e-06
1.47913e-05
3.67266e-06
1.341e-05
4.45553e-06
1.17717e-05
5.07321e-06
9.93559e-06
5.53603e-06
7.96296e-06
5.83844e-06
5.92614e-06
5.94605e-06
3.92223e-06
5.77786e-06
2.09452e-06
5.18554e-06
6.64491e-07
3.93634e-06
1.73992e-06
-6.76833e-07
1.65269e-06
-2.2693e-06
4.26045e-06
-4.46183e-06
6.19686e-06
-7.04159e-06
7.52142e-06
-9.86889e-06
8.38597e-06
-1.28556e-05
8.93724e-06
-1.5949e-05
9.29697e-06
-1.91186e-05
9.55247e-06
-2.23466e-05
9.75734e-06
-2.56201e-05
9.93671e-06
-2.89262e-05
1.0095e-05
-3.22489e-05
1.02233e-05
-3.55677e-05
1.03055e-05
-3.88573e-05
1.03229e-05
-4.20882e-05
1.02566e-05
-4.52277e-05
1.00892e-05
-4.82411e-05
9.80571e-06
-5.10925e-05
9.39323e-06
-5.3746e-05
8.84078e-06
-5.61659e-05
8.13867e-06
-5.83165e-05
7.27801e-06
-6.01624e-05
6.25052e-06
-6.16671e-05
5.04875e-06
-6.27936e-05
3.66688e-06
-6.3503e-05
2.10204e-06
-6.37549e-05
3.55875e-07
-6.35079e-05
-1.56279e-06
-6.27204e-05
-3.63653e-06
-6.13525e-05
-5.83689e-06
-5.93686e-05
-8.1224e-06
-5.67415e-05
-1.04377e-05
-5.34569e-05
-1.27131e-05
-4.95194e-05
-1.48662e-05
-4.49574e-05
-1.68044e-05
-3.98285e-05
-1.84305e-05
-3.42223e-05
-1.96497e-05
-2.82608e-05
-2.03782e-05
-2.20953e-05
-2.05525e-05
-1.58997e-05
-2.01385e-05
-9.8594e-06
-1.91379e-05
-4.15828e-06
-1.75921e-05
1.03584e-06
-1.558e-05
5.58461e-06
-1.3212e-05
9.38928e-06
-1.06184e-05
1.2396e-05
-7.93558e-06
1.45955e-05
-5.29142e-06
1.60174e-05
-2.79311e-06
1.67211e-05
-5.19187e-07
1.67852e-05
1.48324e-06
1.62967e-05
3.1966e-06
1.5343e-05
4.62632e-06
1.40065e-05
5.79203e-06
1.23625e-05
6.7172e-06
1.04811e-05
7.41743e-06
8.43251e-06
7.88703e-06
6.29682e-06
8.08175e-06
4.17948e-06
7.89519e-06
2.23612e-06
7.1289e-06
7.10369e-07
5.46209e-06
2.45029e-06
-8.40775e-07
2.49346e-06
-2.78323e-06
6.20291e-06
-5.41846e-06
8.83209e-06
-8.48081e-06
1.05838e-05
-1.18047e-05
1.17099e-05
-1.52911e-05
1.24236e-05
-1.88829e-05
1.28888e-05
-2.25473e-05
1.32169e-05
-2.62637e-05
1.34737e-05
-3.00152e-05
1.36882e-05
-3.3784e-05
1.38638e-05
-3.75487e-05
1.39879e-05
-4.12837e-05
1.40406e-05
-4.49601e-05
1.39993e-05
-4.85468e-05
1.38432e-05
-5.20122e-05
1.35546e-05
-5.53265e-05
1.312e-05
-5.84625e-05
1.25292e-05
-6.13966e-05
1.17748e-05
-6.41082e-05
1.08504e-05
-6.65795e-05
9.74932e-06
-6.87931e-05
8.46406e-06
-7.07299e-05
6.9856e-06
-7.23671e-05
5.30408e-06
-7.36751e-05
3.40995e-06
-7.4615e-05
1.29585e-06
-7.51372e-05
-1.04065e-06
-7.51807e-05
-3.59297e-06
-7.46739e-05
-6.34368e-06
-7.35378e-05
-9.2585e-06
-7.16919e-05
-1.22836e-05
-6.90623e-05
-1.53427e-05
-6.55926e-05
-1.83359e-05
-6.12549e-05
-2.1142e-05
-5.60613e-05
-2.36241e-05
-5.00723e-05
-2.56387e-05
-4.3402e-05
-2.70485e-05
-3.62179e-05
-2.77366e-05
-2.87344e-05
-2.76219e-05
-2.11999e-05
-2.66725e-05
-1.38775e-05
-2.49144e-05
-7.02313e-06
-2.24344e-05
-8.61612e-07
-1.93735e-05
4.43295e-06
-1.5913e-05
8.75053e-06
-1.22532e-05
1.20492e-05
-8.5901e-06
1.43497e-05
-5.09364e-06
1.57227e-05
-1.89211e-06
1.62712e-05
9.34677e-07
1.61146e-05
3.3532e-06
1.53734e-05
5.36754e-06
1.416e-05
7.00541e-06
1.25747e-05
8.30255e-06
1.07064e-05
9.28574e-06
8.63903e-06
9.95438e-06
6.46286e-06
1.02579e-05
4.29235e-06
1.00657e-05
2.29394e-06
9.1273e-06
7.26361e-07
7.02967e-06
3.17665e-06
-9.96296e-07
3.48976e-06
-3.26915e-06
8.47576e-06
-6.32082e-06
1.18838e-05
-9.83467e-06
1.40976e-05
-1.36194e-05
1.54946e-05
-1.75647e-05
1.6369e-05
-2.16092e-05
1.69332e-05
-2.57175e-05
1.73252e-05
-2.98662e-05
1.76225e-05
-3.4035e-05
1.78571e-05
-3.82019e-05
1.80306e-05
-4.23416e-05
1.81277e-05
-4.64263e-05
1.81252e-05
-5.04272e-05
1.80002e-05
-5.43175e-05
1.77335e-05
-5.8075e-05
1.73122e-05
-6.16846e-05
1.67296e-05
-6.51397e-05
1.59843e-05
-6.84421e-05
1.50772e-05
-7.16009e-05
1.40091e-05
-7.46295e-05
1.27779e-05
-7.75417e-05
1.13763e-05
-8.03463e-05
9.79027e-06
-8.30415e-05
7.99928e-06
-8.56081e-05
5.97649e-06
-8.80034e-05
3.69116e-06
-9.01555e-05
1.11145e-06
-9.19614e-05
-1.78702e-06
-9.32868e-05
-5.01832e-06
-9.39719e-05
-8.5734e-06
-9.38409e-05
-1.24146e-05
-9.27176e-05
-1.6466e-05
-9.04436e-05
-2.061e-05
-8.68984e-05
-2.46872e-05
-8.20186e-05
-2.85038e-05
-7.58137e-05
-3.18437e-05
-6.83766e-05
-3.44856e-05
-5.9888e-05
-3.62252e-05
-5.06118e-05
-3.68982e-05
-4.08812e-05
-3.64031e-05
-3.10756e-05
-3.47201e-05
-2.1588e-05
-3.1922e-05
-1.27891e-05
-2.81724e-05
-4.99006e-06
-2.3712e-05
1.58623e-06
-1.88295e-05
6.82126e-06
-1.38251e-05
1.07005e-05
-8.97292e-06
1.3298e-05
-4.48955e-06
1.47502e-05
-5.17505e-07
1.52272e-05
2.87613e-06
1.49072e-05
5.68753e-06
1.39574e-05
7.95524e-06
1.25245e-05
9.73544e-06
1.07338e-05
1.10765e-05
8.6953e-06
1.19928e-05
6.51781e-06
1.24354e-05
4.32962e-06
1.22539e-05
2.30943e-06
1.11475e-05
7.27872e-07
8.61123e-06
3.90452e-06
-1.14264e-06
4.6324e-06
-3.72382e-06
1.10569e-05
-7.16212e-06
1.53221e-05
-1.10931e-05
1.80286e-05
-1.53012e-05
1.97027e-05
-1.96653e-05
2.07331e-05
-2.41193e-05
2.13872e-05
-2.86255e-05
2.18314e-05
-3.31582e-05
2.21551e-05
-3.76939e-05
2.23928e-05
-4.22083e-05
2.2545e-05
-4.66748e-05
2.25942e-05
-5.10676e-05
2.2518e-05
-5.53646e-05
2.22972e-05
-5.95521e-05
2.1921e-05
-6.36285e-05
2.13886e-05
-6.76075e-05
2.07087e-05
-7.15191e-05
1.98958e-05
-7.54082e-05
1.89663e-05
-7.93314e-05
1.79324e-05
-8.3351e-05
1.67975e-05
-8.75266e-05
1.55519e-05
-9.19054e-05
1.4169e-05
-9.65101e-05
1.2604e-05
-0.000101326
1.07929e-05
-0.000106291
8.65576e-06
-0.000111283
6.10291e-06
-0.000116115
3.04557e-06
-0.000120544
-5.89706e-07
-0.000124279
-4.83825e-06
-0.000127
-9.69321e-06
-0.000128387
-1.50791e-05
-0.000128145
-2.08518e-05
-0.000126036
-2.67961e-05
-0.000121903
-3.26377e-05
-0.000115686
-3.80601e-05
-0.000107445
-4.27269e-05
-9.73598e-05
-4.63102e-05
-8.57371e-05
-4.85209e-05
-7.29974e-05
-4.91428e-05
-5.96545e-05
-4.8063e-05
-4.62786e-05
-4.52978e-05
-3.34472e-05
-4.10039e-05
-2.16878e-05
-3.54714e-05
-1.14228e-05
-2.90945e-05
-2.92773e-06
-2.23202e-05
3.68614e-06
-1.55868e-05
8.46181e-06
-9.26522e-06
1.15626e-05
-3.61833e-06
1.3226e-05
1.21272e-06
1.37176e-05
5.19596e-06
1.32949e-05
8.37796e-06
1.21856e-05
1.08448e-05
1.05803e-05
1.26817e-05
8.63821e-06
1.3935e-05
6.50244e-06
1.45712e-05
4.32568e-06
1.44306e-05
2.30459e-06
1.31686e-05
7.23114e-07
1.01927e-05
4.62764e-06
-1.2788e-06
5.9112e-06
-4.14425e-06
1.39224e-05
-7.93709e-06
1.91149e-05
-1.22491e-05
2.23406e-05
-1.68424e-05
2.4296e-05
-2.15859e-05
2.54766e-05
-2.64092e-05
2.62105e-05
-3.12725e-05
2.66947e-05
-3.61481e-05
2.70307e-05
-4.10112e-05
2.7256e-05
-4.58373e-05
2.7371e-05
-5.06029e-05
2.73599e-05
-5.52906e-05
2.72057e-05
-5.98941e-05
2.69008e-05
-6.44252e-05
2.64521e-05
-6.89186e-05
2.58821e-05
-7.34356e-05
2.52256e-05
-7.80636e-05
2.45238e-05
-8.29127e-05
2.38154e-05
-8.81084e-05
2.31281e-05
-9.37803e-05
2.24694e-05
-0.000100047
2.18186e-05
-0.000106998
2.11199e-05
-0.000114672
2.02778e-05
-0.000123035
1.91562e-05
-0.000131963
1.7584e-05
-0.000141229
1.53689e-05
-0.000150504
1.23204e-05
-0.000159373
8.2794e-06
-0.00016736
3.14846e-06
-0.000173974
-3.07956e-06
-0.00017874
-1.0313e-05
-0.00018123
-1.83612e-05
-0.000181104
-2.69228e-05
-0.000178119
-3.56228e-05
-0.00017215
-4.40281e-05
-0.000163207
-5.16704e-05
-0.00015144
-5.80777e-05
-0.000137155
-6.28055e-05
-0.000120819
-6.54783e-05
-0.00010305
-6.58323e-05
-8.45882e-05
-6.37598e-05
-6.62481e-05
-5.9344e-05
-4.88443e-05
-5.28752e-05
-3.31035e-05
-4.48353e-05
-1.95801e-05
-3.58435e-05
-8.59663e-06
-2.65703e-05
-2.26424e-07
-1.76354e-05
5.67603e-06
-9.52079e-06
9.41138e-06
-2.52263e-06
1.13588e-05
3.24857e-06
1.19086e-05
7.82817e-06
1.14164e-05
1.13369e-05
1.01817e-05
1.39164e-05
8.44786e-06
1.56688e-05
6.41911e-06
1.65999e-05
4.29055e-06
1.65592e-05
2.28824e-06
1.51709e-05
7.15916e-07
1.1765e-05
5.34355e-06
-1.40379e-06
7.31498e-06
-4.52802e-06
1.70466e-05
-8.64216e-06
2.3229e-05
-1.32985e-05
2.69969e-05
-1.82393e-05
2.92368e-05
-2.33248e-05
3.0562e-05
-2.84808e-05
3.13666e-05
-3.36659e-05
3.18798e-05
-3.88516e-05
3.22164e-05
-4.4014e-05
3.24184e-05
-4.91321e-05
3.24891e-05
-5.41918e-05
3.24195e-05
-5.91926e-05
3.22066e-05
-6.41573e-05
3.18654e-05
-6.91395e-05
3.14343e-05
-7.42309e-05
3.09735e-05
-7.95639e-05
3.05586e-05
-8.53085e-05
3.02684e-05
-9.16643e-05
3.01713e-05
-9.88465e-05
3.03103e-05
-0.000107065
3.06881e-05
-0.000116499
3.12522e-05
-0.000127262
3.18831e-05
-0.000139371
3.23867e-05
-0.000152711
3.24961e-05
-0.000167015
3.18883e-05
-0.000181864
3.02179e-05
-0.000196708
2.71648e-05
-0.000210914
2.24853e-05
-0.00022382
1.60547e-05
-0.000234791
7.89085e-06
-0.000243268
-1.83633e-06
-0.000248756
-1.28725e-05
-0.000250879
-2.48003e-05
-0.000249356
-3.71455e-05
-0.000244013
-4.93714e-05
-0.000234785
-6.08983e-05
-0.00022174
-7.11228e-05
-0.000205101
-7.94439e-05
-0.000185278
-8.53019e-05
-0.000162883
-8.82271e-05
-0.00013874
-8.79025e-05
-0.000113854
-8.42302e-05
-8.9341e-05
-7.73883e-05
-6.63187e-05
-6.78575e-05
-4.57679e-05
-5.63944e-05
-2.83993e-05
-4.39389e-05
-1.45681e-05
-3.14667e-05
-4.26329e-06
-1.98256e-05
2.82435e-06
-9.61027e-06
7.18952e-06
-1.1166e-06
9.39445e-06
5.62324e-06
9.97889e-06
1.07525e-05
9.40879e-06
1.44865e-05
8.06214e-06
1.70155e-05
6.24347e-06
1.84186e-05
4.21847e-06
1.85842e-05
2.26135e-06
1.7128e-05
7.07703e-07
1.33187e-05
6.05126e-06
-1.51674e-06
8.83172e-06
-4.87341e-06
2.04033e-05
-9.2754e-06
2.7631e-05
-1.424e-05
3.19615e-05
-1.94923e-05
3.44891e-05
-2.48849e-05
3.59547e-05
-3.03411e-05
3.68228e-05
-3.58187e-05
3.73574e-05
-4.12904e-05
3.76882e-05
-4.67362e-05
3.78642e-05
-5.21441e-05
3.78969e-05
-5.75171e-05
3.77925e-05
-6.28847e-05
3.75741e-05
-6.83146e-05
3.72953e-05
-7.39242e-05
3.70439e-05
-7.98872e-05
3.69365e-05
-8.64337e-05
3.71051e-05
-9.38425e-05
3.76771e-05
-0.000102424
3.87526e-05
-0.000112493
4.03797e-05
-0.000124335
4.25302e-05
-0.000138158
4.50748e-05
-0.00015404
4.77649e-05
-0.00017188
5.02272e-05
-0.000191366
5.19817e-05
-0.000211967
5.24898e-05
-0.000232979
5.12296e-05
-0.000253594
4.77794e-05
-0.000272992
4.18841e-05
-0.000290422
3.34848e-05
-0.000305241
2.27092e-05
-0.00031692
9.8424e-06
-0.000325073
-4.71909e-06
-0.000329349
-2.05243e-05
-0.000329507
-3.69871e-05
-0.000325339
-5.35401e-05
-0.000316689
-6.95476e-05
-0.000303478
-8.43342e-05
-0.000285735
-9.71865e-05
-0.000263659
-0.000107378
-0.000237677
-0.000114209
-0.000208502
-0.000117078
-0.000177159
-0.000115574
-0.000144959
-0.000109588
-0.000113408
-9.9409e-05
-8.40272e-05
-8.5775e-05
-5.8136e-05
-6.983e-05
-3.66364e-05
-5.29663e-05
-1.98903e-05
-3.65717e-05
-7.7336e-06
-2.1767e-05
3.86136e-07
-9.23634e-06
5.22025e-06
7.89127e-07
7.55011e-06
8.42261e-06
8.07923e-06
1.39574e-05
7.38714e-06
1.77076e-05
5.93338e-06
1.98724e-05
4.09464e-06
2.0423e-05
2.2212e-06
1.90015e-05
6.99092e-07
1.48408e-05
6.75035e-06
-1.61697e-06
1.04487e-05
-5.17933e-06
2.39656e-05
-9.83605e-06
3.22878e-05
-1.5074e-05
3.71995e-05
-2.06038e-05
4.00189e-05
-2.6272e-05
4.16228e-05
-3.20002e-05
4.2551e-05
-3.77474e-05
4.31046e-05
-4.34899e-05
4.34306e-05
-4.92157e-05
4.359e-05
-5.49289e-05
4.36101e-05
-6.0661e-05
4.35246e-05
-6.64865e-05
4.33997e-05
-7.25395e-05
4.33483e-05
-7.90261e-05
4.35304e-05
-8.62293e-05
4.41397e-05
-9.45036e-05
4.53794e-05
-0.000104256
4.74294e-05
-0.000115913
5.04102e-05
-0.000129877
5.43431e-05
-0.000146457
5.91106e-05
-0.000165803
6.44205e-05
-0.000187825
6.9787e-05
-0.000212146
7.45479e-05
-0.000238095
7.79307e-05
-0.000264773
7.9168e-05
-0.000291173
7.76293e-05
-0.000316315
7.29222e-05
-0.00033936
6.49284e-05
-0.000359654
5.37786e-05
-0.000376736
3.97913e-05
-0.000390293
2.33994e-05
-0.000400115
5.1031e-06
-0.000406054
-1.45856e-05
-0.00040793
-3.51107e-05
-0.000405552
-5.59182e-05
-0.000398683
-7.64163e-05
-0.000387054
-9.59637e-05
-0.000370414
-0.000113827
-0.000348601
-0.000129191
-0.000321641
-0.000141169
-0.00028986
-0.000148858
-0.000253996
-0.000151438
-0.000215266
-0.000148318
-0.000175356
-0.000139319
-0.000136288
-0.000124843
-0.000100148
-0.000105971
-6.87184e-05
-8.43957e-05
-4.31396e-05
-6.21505e-05
-2.37328e-05
-4.11737e-05
-1.00791e-05
-2.28901e-05
-1.28396e-06
-8.00598e-06
3.72163e-06
3.41702e-06
5.96155e-06
1.17175e-05
6.30321e-06
1.73659e-05
5.43481e-06
2.07408e-05
3.90005e-06
2.19577e-05
2.16442e-06
2.07371e-05
6.91006e-07
1.63142e-05
7.44135e-06
-1.70391e-06
1.21526e-05
-5.445e-06
2.77067e-05
-1.0324e-05
3.71667e-05
-1.5802e-05
4.26775e-05
-2.15776e-05
4.57944e-05
-2.74929e-05
4.75381e-05
-3.34695e-05
4.85276e-05
-3.94693e-05
4.91044e-05
-4.54755e-05
4.94369e-05
-5.14902e-05
4.96046e-05
-5.75424e-05
4.96624e-05
-6.37058e-05
4.9688e-05
-7.01193e-05
4.98132e-05
-7.70071e-05
5.02361e-05
-8.46908e-05
5.12141e-05
-9.35881e-05
5.30371e-05
-0.000104195
5.59864e-05
-0.000117048
6.02825e-05
-0.000132666
6.60279e-05
-0.000151468
7.31454e-05
-0.000173677
8.13192e-05
-0.000199211
8.99549e-05
-0.000227613
9.81883e-05
-0.000258037
0.000104972
-0.000289347
0.000109241
-0.000320295
0.000110116
-0.00034972
0.000107054
-0.000376693
9.98958e-05
-0.000400588
8.88228e-05
-0.000421059
7.425e-05
-0.00043799
5.67218e-05
-0.00045141
3.682e-05
-0.000461394
1.50871e-05
-0.000468
-7.97945e-06
-0.000471267
-3.18443e-05
-0.000471055
-5.61295e-05
-0.00046708
-8.03918e-05
-0.000458927
-0.000104116
-0.000446061
-0.000126693
-0.000427896
-0.000147355
-0.000403903
-0.000165163
-0.00037376
-0.000179
-0.000337543
-0.000187655
-0.000295912
-0.000189949
-0.000250259
-0.000184971
-0.000202731
-0.000172371
-0.00015605
-0.000152653
-0.000113087
-0.000127358
-7.62695e-05
-9.8968e-05
-4.702e-05
-7.04232e-05
-2.55302e-05
-4.43798e-05
-1.09816e-05
-2.25546e-05
-2.02757e-06
-5.53702e-06
2.76492e-06
6.925e-06
4.66311e-06
1.54677e-05
4.68356e-06
2.07203e-05
3.61387e-06
2.30274e-05
2.08876e-06
2.22622e-05
6.8536e-07
1.77176e-05
8.12671e-06
-1.777e-06
1.39296e-05
-5.66967e-06
3.15994e-05
-1.0739e-05
4.22361e-05
-1.64252e-05
4.83636e-05
-2.24168e-05
5.17861e-05
-2.85536e-05
5.36749e-05
-3.47586e-05
5.47327e-05
-4.09992e-05
5.53449e-05
-4.72699e-05
5.57076e-05
-5.35935e-05
5.59282e-05
-6.00355e-05
5.61044e-05
-6.67279e-05
5.63804e-05
-7.38956e-05
5.69809e-05
-8.18777e-05
5.82183e-05
-9.11349e-05
6.04712e-05
-0.000102234
6.41367e-05
-0.000115811
6.95626e-05
-0.000132496
7.69673e-05
-0.000152819
8.63516e-05
-0.000177083
9.74093e-05
-0.000205221
0.000109457
-0.00023669
0.000121424
-0.000270454
0.000131952
-0.000305106
0.000139624
-0.000339112
0.000143247
-0.000371087
0.000142092
-0.000399994
0.000135961
-0.000425222
0.000125124
-0.000446562
0.000110163
-0.000464121
9.1809e-05
-0.000478205
7.08059e-05
-0.000489216
4.78308e-05
-0.000497584
2.34556e-05
-0.000503547
-2.01653e-06
-0.000507432
-2.79595e-05
-0.000509157
-5.44042e-05
-0.000508515
-8.10345e-05
-0.000505058
-0.000107572
-0.000498087
-0.000133664
-0.000486691
-0.000158751
-0.000469818
-0.000182036
-0.000446413
-0.000202405
-0.00041563
-0.000218438
-0.000377111
-0.000228468
-0.000331304
-0.000230778
-0.000279733
-0.000223942
-0.000225097
-0.000207289
-0.000171049
-0.000181406
-0.000121546
-0.000148471
-7.98694e-05
-0.0001121
-4.77391e-05
-7.65102e-05
-2.50533e-05
-4.52404e-05
-1.04049e-05
-2.01854e-05
-1.89751e-06
-1.58241e-06
2.27606e-06
1.12941e-05
3.59946e-06
1.93969e-05
3.21199e-06
2.34149e-05
1.99308e-06
2.34811e-05
6.85193e-07
1.90255e-05
8.81191e-06
-1.83559e-06
1.57652e-05
-5.8523e-06
3.56161e-05
-1.10804e-05
4.74643e-05
-1.69435e-05
5.42267e-05
-2.31231e-05
5.79657e-05
-2.94578e-05
6.00096e-05
-3.58741e-05
6.1149e-05
-4.23478e-05
6.18186e-05
-4.88896e-05
6.22494e-05
-5.55516e-05
6.25902e-05
-6.24487e-05
6.30014e-05
-6.97893e-05
6.3721e-05
-7.7906e-05
6.50976e-05
-8.72741e-05
6.75864e-05
-9.8506e-05
7.17031e-05
-0.000112313
7.79436e-05
-0.000129428
8.66781e-05
-0.000150493
9.80316e-05
-0.000175898
0.000111757
-0.000205613
0.000127124
-0.000239036
0.000142879
-0.000274951
0.000157339
-0.000311673
0.000168674
-0.000347351
0.000175302
-0.000380337
0.000176233
-0.000409446
0.000171201
-0.000434065
0.000160579
-0.000454109
0.000145168
-0.000469907
0.00012596
-0.000482043
0.000103945
-0.000491224
7.99875e-05
-0.000498162
5.47688e-05
-0.000503467
2.87601e-05
-0.000507701
2.21743e-06
-0.000511105
-2.45555e-05
-0.00051389
-5.1619e-05
-0.000515967
-7.89576e-05
-0.000516993
-0.000106546
-0.000516342
-0.000134315
-0.000513049
-0.000162044
-0.000505822
-0.000189263
-0.00049309
-0.000215136
-0.000473164
-0.000238365
-0.000444498
-0.000257134
-0.000406098
-0.000269178
-0.000358013
-0.000272027
-0.000301813
-0.000263488
-0.000240842
-0.000242378
-0.000179957
-0.000209356
-0.00012455
-0.000167507
-7.89739e-05
-0.000122086
-4.5159e-05
-7.90553e-05
-2.24301e-05
-4.29143e-05
-8.58338e-06
-1.54292e-05
-1.12956e-06
3.84032e-06
2.06875e-06
1.61986e-05
2.65987e-06
2.28237e-05
1.8746e-06
2.42664e-05
6.93978e-07
2.02061e-05
9.50588e-06
-1.87886e-06
1.76441e-05
-5.9913e-06
3.97286e-05
-1.13463e-05
5.28193e-05
-1.73555e-05
6.02358e-05
-2.36956e-05
6.43058e-05
-3.02056e-05
6.65196e-05
-3.68175e-05
6.77609e-05
-4.35188e-05
6.85199e-05
-5.03423e-05
6.90729e-05
-5.73789e-05
6.96267e-05
-6.48066e-05
7.04292e-05
-7.29283e-05
7.18427e-05
-8.22026e-05
7.43719e-05
-9.32523e-05
7.86361e-05
-0.000106835
8.52861e-05
-0.000123767
9.48755e-05
-0.000144794
0.000107705
-0.000170414
0.000123652
-0.000200669
0.000142012
-0.000234949
0.000161404
-0.000271916
0.000179846
-0.000309638
0.000195061
-0.000345947
0.000204984
-0.000378902
0.000208257
-0.000407139
0.00020447
-0.000430019
0.000194081
-0.000447576
0.000178136
-0.000460351
0.000157943
-0.000469186
0.000134795
-0.000475036
0.000109795
-0.00047883
8.37818e-05
-0.000481379
5.73178e-05
-0.000483344
3.07253e-05
-0.000485288
4.16077e-06
-0.000487485
-2.23577e-05
-0.000490188
-4.89162e-05
-0.000493491
-7.56547e-05
-0.000497282
-0.000102754
-0.000501218
-0.00013038
-0.000504622
-0.00015864
-0.000506404
-0.000187481
-0.000504989
-0.000216552
-0.000498327
-0.000245027
-0.000484033
-0.000271428
-0.000459715
-0.000293497
-0.00042352
-0.000308222
-0.000374874
-0.000312133
-0.00031527
-0.000301982
-0.000248776
-0.00027585
-0.00018178
-0.000234503
-0.000121498
-0.000182368
-7.3483e-05
-0.000127071
-3.95799e-05
-7.68173e-05
-1.8127e-05
-3.68821e-05
-5.96908e-06
-8.31756e-06
-8.26416e-08
1.03122e-05
1.89761e-06
2.08435e-05
1.72259e-06
2.44414e-05
7.13929e-07
2.12148e-05
1.02198e-05
-1.90579e-06
1.95499e-05
-6.08438e-06
4.39071e-05
-1.15335e-05
5.82683e-05
-1.76574e-05
6.63597e-05
-2.41301e-05
7.07785e-05
-3.07926e-05
7.31821e-05
-3.75844e-05
7.45527e-05
-4.45083e-05
7.54438e-05
-5.16254e-05
7.619e-05
-5.90751e-05
7.70765e-05
-6.71125e-05
7.84665e-05
-7.61495e-05
8.08797e-05
-8.67809e-05
8.50033e-05
-9.97718e-05
9.1627e-05
-0.00011599
0.000101504
-0.000136276
0.000115161
-0.000161248
0.000132677
-0.000191064
0.000153469
-0.000225188
0.000176135
-0.00026225
0.000198467
-0.000300153
0.00021775
-0.000336454
0.000231361
-0.000368905
0.000237435
-0.00039593
0.000235282
-0.000416834
0.000225374
-0.000431754
0.000209
-0.000441442
0.000187824
-0.000446991
0.000163493
-0.000449582
0.000137386
-0.000450301
0.000110514
-0.00045004
8.35213e-05
-0.000449473
5.67499e-05
-0.00044908
3.03329e-05
-0.000449217
4.29716e-06
-0.000450099
-2.14753e-05
-0.000451929
-4.70864e-05
-0.000454878
-7.27052e-05
-0.000459073
-9.85597e-05
-0.000464533
-0.00012492
-0.000471079
-0.000152094
-0.000478189
-0.000180371
-0.000484833
-0.000209907
-0.000489316
-0.000240544
-0.000489204
-0.00027154
-0.000481419
-0.000301282
-0.000462607
-0.000327034
-0.00042985
-0.00034489
-0.000381723
-0.000350109
-0.000319513
-0.00033806
-0.00024814
-0.000305875
-0.000175914
-0.000254595
-0.000112264
-0.00019072
-6.38354e-05
-0.000125246
-3.17479e-05
-6.89696e-05
-1.28812e-05
-2.71842e-05
-3.15583e-06
5.86773e-07
8.13688e-07
1.6874e-05
1.50806e-06
2.3747e-05
7.43583e-07
2.19792e-05
1.09634e-05
-1.91513e-06
2.1465e-05
-6.12852e-06
4.81205e-05
-1.16373e-05
6.37771e-05
-1.78431e-05
7.25656e-05
-2.44193e-05
7.73546e-05
-3.121e-05
7.99729e-05
-3.81642e-05
8.15069e-05
-4.53037e-05
8.25833e-05
-5.27242e-05
8.36105e-05
-6.06228e-05
8.49751e-05
-6.93426e-05
8.71863e-05
-7.94133e-05
9.09504e-05
-9.15623e-05
9.71523e-05
-0.000106668
0.000106733
-0.000125641
0.000120477
-0.000149223
0.000138743
-0.000177733
0.000161187
-0.000210789
0.000186524
-0.000247114
0.00021246
-0.000284572
0.000235925
-0.000320524
0.000253702
-0.000352435
0.000263272
-0.000378468
0.000263469
-0.000397816
0.00025463
-0.000410676
0.000238234
-0.000417997
0.000216321
-0.000421122
0.000190949
-0.000421456
0.000163827
-0.000420227
0.000136157
-0.000418365
0.000108651
-0.000416477
8.16338e-05
-0.000414909
5.51822e-05
-0.000413826
2.92495e-05
-0.000413295
3.76579e-06
-0.000413369
-2.1401e-05
-0.00041415
-4.63052e-05
-0.000415808
-7.10475e-05
-0.000418593
-9.57748e-05
-0.000422803
-0.00012071
-0.000428714
-0.000146184
-0.000436446
-0.000172638
-0.000445779
-0.000200575
-0.000455898
-0.000230425
-0.000465137
-0.000262301
-0.000470789
-0.00029563
-0.000469124
-0.0003287
-0.000455766
-0.000358248
-0.000426583
-0.000379293
-0.000379127
-0.000385516
-0.000314444
-0.000370558
-0.000238557
-0.000330481
-0.000162215
-0.000267063
-9.73479e-05
-0.000190113
-5.10896e-05
-0.000115228
-2.27846e-05
-5.54892e-05
-7.58523e-06
-1.46126e-05
-7.7276e-07
1.00615e-05
1.17258e-06
2.18017e-05
7.72471e-07
2.23793e-05
1.17359e-05
-1.90543e-06
2.33704e-05
-6.12003e-06
5.23351e-05
-1.16518e-05
6.93089e-05
-1.79046e-05
7.88184e-05
-2.45526e-05
8.40025e-05
-3.14444e-05
8.68647e-05
-3.85401e-05
8.86026e-05
-4.58839e-05
8.99271e-05
-5.36113e-05
9.13379e-05
-6.19849e-05
9.33486e-05
-7.14418e-05
9.66433e-05
-8.26279e-05
0.000102137
-9.63822e-05
0.000110907
-0.000113643
0.000123994
-0.000135261
0.000142096
-0.000161739
0.000165222
-0.000192926
0.000192373
-0.000227762
0.000221361
-0.000264227
0.000248925
-0.000299617
0.000271314
-0.000331156
0.000285241
-0.000356707
0.000288823
-0.000375251
0.000282014
-0.00038696
0.000266339
-0.000392924
0.000244198
-0.000394721
0.000218118
-0.000393989
0.000190217
-0.000392109
0.000161947
-0.000390052
0.000134099
-0.000388354
0.000106953
-0.000387202
8.04815e-05
-0.00038655
5.45299e-05
-0.000386243
2.89425e-05
-0.000386102
3.62485e-06
-0.000386029
-2.14741e-05
-0.000386015
-4.63191e-05
-0.000386186
-7.08767e-05
-0.000386815
-9.51452e-05
-0.00038832
-0.000119205
-0.000391231
-0.000143273
-0.000396116
-0.000167753
-0.000403443
-0.000193247
-0.000413346
-0.000220522
-0.0004253
-0.000250348
-0.000437746
-0.000283183
-0.000447774
-0.000318672
-0.000451031
-0.000354991
-0.000442101
-0.000388222
-0.000415575
-0.000412042
-0.000367955
-0.000418178
-0.00030021
-0.000398226
-0.000219984
-0.000347288
-0.000141147
-0.00026895
-7.8064e-05
-0.000178311
-3.68908e-05
-9.66625e-05
-1.40046e-05
-3.74988e-05
-3.1407e-06
-8.02402e-07
6.18269e-07
1.80427e-05
7.79938e-07
2.22177e-05
1.25158e-05
-1.87516e-06
2.52456e-05
-6.05476e-06
5.65147e-05
-1.15701e-05
7.48243e-05
-1.78319e-05
8.50802e-05
-2.45168e-05
9.06874e-05
-3.14786e-05
9.38265e-05
-3.86899e-05
9.58139e-05
-4.62195e-05
9.74567e-05
-5.42473e-05
9.93657e-05
-6.31046e-05
0.000102206
-7.33221e-05
0.000106861
-8.5647e-05
0.000114461
-0.000100989
0.000126249
-0.00012027
0.000143274
-0.000144169
0.000165995
-0.00017281
0.000193863
-0.000205458
0.000225021
-0.000240367
0.000256269
-0.000274936
0.000283494
-0.000306253
0.000302631
-0.000331865
0.000310852
-0.000350427
0.000307385
-0.000361942
0.000293528
-0.000367535
0.000271932
-0.000368972
0.000245634
-0.000368122
0.000217269
-0.000366551
0.000188646
-0.000365302
0.000160697
-0.000364866
0.000133664
-0.000365296
0.000107383
-0.000366358
8.15439e-05
-0.000367694
5.58659e-05
-0.000368934
3.01822e-05
-0.000369765
4.45647e-06
-0.000369998
-2.12416e-05
-0.000369558