/*--------------------------------*- C++ -*----------------------------------*\
| =========                 |                                                 |
| \\      /  F ield         | OpenFOAM: The Open Source CFD Toolbox           |
|  \\    /   O peration     | Version:  2406                                  |
|   \\  /    A nd           | Website:  www.openfoam.com                      |
|    \\/     M anipulation  |                                                 |
\*---------------------------------------------------------------------------*/
FoamFile
{
    version     2.0;
    format      ascii;
    arch        "LSB;label=32;scalar=64";
    class       volVectorField;
    location    "42.2";
    object      U;
}
// * * * * * * * * * * * * * * * * * * * * * * * * * * * * * * * * * * * * * //

dimensions      [0 1 -1 0 0 0 0];

internalField   nonuniform List<vector> 
900
(
(0.000618948 -0.000629831 0)
(0.00346971 -0.00083845 0)
(0.00605081 -0.000568739 0)
(0.0073911 -0.000195797 0)
(0.00749918 -4.4715e-05 0)
(0.00698727 3.19408e-05 0)
(0.00582947 0.000196973 0)
(0.00346261 5.70272e-05 0)
(-0.00163531 -0.00057333 0)
(-0.0115252 -0.000160495 0)
(-0.0271176 0.00269004 0)
(-0.0476855 0.00643246 0)
(-0.0704389 0.00869333 0)
(-0.0906193 0.00849085 0)
(-0.104759 0.00626354 0)
(-0.110676 0.00269151 0)
(-0.107088 -0.00162976 0)
(-0.0936439 -0.0060803 0)
(-0.0709705 -0.0100849 0)
(-0.0411924 -0.0128561 0)
(-0.00803121 -0.0134418 0)
(0.0231389 -0.0111079 0)
(0.0465301 -0.00575419 0)
(0.0574135 0.00105689 0)
(0.0542137 0.00585867 0)
(0.0407341 0.00654913 0)
(0.0252328 0.00463777 0)
(0.0129985 0.00261148 0)
(0.00519084 0.00126836 0)
(0.000772707 0.000574791 0)
(0.00100679 -0.00358542 0)
(0.00632094 -0.00543767 0)
(0.00990255 -0.00343229 0)
(0.0105923 -0.000548676 0)
(0.00798372 0.00152941 0)
(0.00220584 0.00332968 0)
(-0.00866484 0.00618116 0)
(-0.0277132 0.0117276 0)
(-0.0572695 0.0212107 0)
(-0.0948577 0.03174 0)
(-0.132612 0.038266 0)
(-0.165026 0.0389791 0)
(-0.190039 0.0341055 0)
(-0.206566 0.0247868 0)
(-0.214597 0.0125645 0)
(-0.213952 -0.00135012 0)
(-0.204585 -0.015979 0)
(-0.186385 -0.0304051 0)
(-0.159742 -0.0431523 0)
(-0.125378 -0.052175 0)
(-0.0851812 -0.0548679 0)
(-0.0425714 -0.0490512 0)
(-0.00260671 -0.0340895 0)
(0.028401 -0.0128052 0)
(0.0452431 0.00760563 0)
(0.0466603 0.0200107 0)
(0.0377355 0.0225136 0)
(0.0241572 0.0183138 0)
(0.0114688 0.0120558 0)
(0.00176717 0.00538008 0)
(0.00133183 -0.00749623 0)
(0.00666283 -0.00994766 0)
(0.00785158 -0.00437546 0)
(0.0042143 0.00274851 0)
(-0.00557143 0.00934314 0)
(-0.0235675 0.0178316 0)
(-0.0535482 0.0316966 0)
(-0.0951239 0.0495021 0)
(-0.14049 0.0641151 0)
(-0.182404 0.0711189 0)
(-0.21731 0.0704336 0)
(-0.244118 0.0631862 0)
(-0.263273 0.0507431 0)
(-0.275406 0.0344655 0)
(-0.281202 0.0155296 0)
(-0.28092 -0.00521339 0)
(-0.274603 -0.0270521 0)
(-0.261599 -0.049077 0)
(-0.241212 -0.0696486 0)
(-0.212758 -0.0861869 0)
(-0.176137 -0.0950296 0)
(-0.13242 -0.0921984 0)
(-0.0846719 -0.0750646 0)
(-0.0387676 -0.0451604 0)
(-0.00319169 -0.0112425 0)
(0.0156849 0.0142858 0)
(0.0212786 0.0265483 0)
(0.0178056 0.0277508 0)
(0.0100399 0.0224658 0)
(0.0015746 0.0116179 0)
(0.00141173 -0.011538 0)
(0.00422726 -0.0121291 0)
(-3.86654e-05 -0.000511472 0)
(-0.0117937 0.0136056 0)
(-0.0338661 0.0299114 0)
(-0.0690602 0.0516888 0)
(-0.115156 0.076594 0)
(-0.163517 0.0965055 0)
(-0.206347 0.106184 0)
(-0.24072 0.105624 0)
(-0.266421 0.0967506 0)
(-0.284497 0.0817803 0)
(-0.296437 0.0626968 0)
(-0.303558 0.0408497 0)
(-0.306996 0.0169962 0)
(-0.307381 -0.00860475 0)
(-0.304913 -0.0356434 0)
(-0.299111 -0.0635161 0)
(-0.288938 -0.0910866 0)
(-0.272639 -0.115913 0)
(-0.247855 -0.133868 0)
(-0.212232 -0.139285 0)
(-0.164891 -0.126576 0)
(-0.109018 -0.0936119 0)
(-0.0544348 -0.0469849 0)
(-0.0159874 -0.00416438 0)
(0.00109928 0.0209131 0)
(0.00631733 0.0302766 0)
(0.00479468 0.0287311 0)
(0.000628247 0.0158505 0)
(0.000800086 -0.0137177 0)
(-0.00209737 -0.00867528 0)
(-0.0145897 0.011864 0)
(-0.0375956 0.0366776 0)
(-0.0732997 0.0661436 0)
(-0.119561 0.0982843 0)
(-0.167903 0.124628 0)
(-0.209616 0.138305 0)
(-0.241504 0.139087 0)
(-0.263729 0.129716 0)
(-0.277636 0.113234 0)
(-0.2854 0.0924304 0)
(-0.288995 0.0691728 0)
(-0.290288 0.0445656 0)
(-0.290643 0.0189706 0)
(-0.290913 -0.00766607 0)
(-0.291321 -0.0356509 0)
(-0.291884 -0.0653163 0)
(-0.291985 -0.0965212 0)
(-0.289992 -0.127939 0)
(-0.282681 -0.156238 0)
(-0.265278 -0.175555 0)
(-0.232269 -0.177725 0)
(-0.180606 -0.154879 0)
(-0.114558 -0.105321 0)
(-0.0503957 -0.0422864 0)
(-0.0128859 0.00507406 0)
(-0.00146932 0.0264958 0)
(0.00121228 0.030047 0)
(0.000174692 0.0174372 0)
(-0.00104162 -0.0115222 0)
(-0.0122704 0.00306772 0)
(-0.0339128 0.0349468 0)
(-0.0673806 0.0720415 0)
(-0.110929 0.111453 0)
(-0.157557 0.145411 0)
(-0.197791 0.165146 0)
(-0.226959 0.168698 0)
(-0.245409 0.159512 0)
(-0.25485 0.141707 0)
(-0.258077 0.119163 0)
(-0.257718 0.0945641 0)
(-0.25577 0.0693372 0)
(-0.253674 0.0440497 0)
(-0.252185 0.0186971 0)
(-0.251809 -0.00690771 0)
(-0.25284 -0.0333121 0)
(-0.255686 -0.0612787 0)
(-0.260395 -0.0913888 0)
(-0.266712 -0.123818 0)
(-0.272941 -0.157477 0)
(-0.274952 -0.188772 0)
(-0.265385 -0.210205 0)
(-0.235519 -0.210382 0)
(-0.179976 -0.177462 0)
(-0.104162 -0.109011 0)
(-0.0325781 -0.0280451 0)
(-0.00441138 0.0176557 0)
(0.000405089 0.0288363 0)
(0.000394411 0.0180489 0)
(-0.00390418 -0.00263817 0)
(-0.0242148 0.0242116 0)
(-0.0535576 0.0672124 0)
(-0.0930204 0.113437 0)
(-0.136558 0.155891 0)
(-0.175768 0.184382 0)
(-0.203773 0.193561 0)
(-0.220136 0.186231 0)
(-0.227133 0.167966 0)
(-0.227787 0.143811 0)
(-0.225501 0.117757 0)
(-0.222347 0.0917278 0)
(-0.219695 0.0664629 0)
(-0.217938 0.0418289 0)
(-0.217138 0.0174697 0)
(-0.217227 -0.00706149 0)
(-0.218375 -0.0321739 0)
(-0.220792 -0.0582195 0)
(-0.224873 -0.0856782 0)
(-0.231185 -0.115186 0)
(-0.24009 -0.147324 0)
(-0.250426 -0.18173 0)
(-0.257756 -0.215233 0)
(-0.25304 -0.239034 0)
(-0.2247 -0.237169 0)
(-0.16479 -0.19137 0)
(-0.0799591 -0.0990562 0)
(-0.00941345 -0.00531926 0)
(0.00103022 0.0283411 0)
(0.000488467 0.0191252 0)
(-0.00669529 0.0133728 0)
(-0.0341684 0.0526998 0)
(-0.0676209 0.104353 0)
(-0.107847 0.15497 0)
(-0.145988 0.194322 0)
(-0.175031 0.212924 0)
(-0.191695 0.210415 0)
(-0.198493 0.193296 0)
(-0.198639 0.168375 0)
(-0.195816 0.141013 0)
(-0.192661 0.114244 0)
(-0.190213 0.0887982 0)
(-0.188939 0.0645883 0)
(-0.188537 0.0409822 0)
(-0.188896 0.0175112 0)
(-0.1898 -0.00633239 0)
(-0.191339 -0.0308084 0)
(-0.193564 -0.0561014 0)
(-0.196816 -0.08239 0)
(-0.201462 -0.109951 0)
(-0.2082 -0.139258 0)
(-0.217569 -0.171093 0)
(-0.228822 -0.205786 0)
(-0.23748 -0.240626 0)
(-0.233551 -0.265008 0)
(-0.203363 -0.256553 0)
(-0.136474 -0.188076 0)
(-0.0402662 -0.0616816 0)
(0.00262073 0.0223181 0)
(-0.00154097 0.0208404 0)
(-0.00857439 0.0348889 0)
(-0.0400671 0.085273 0)
(-0.0740383 0.141894 0)
(-0.111237 0.191778 0)
(-0.141707 0.22351 0)
(-0.161235 0.230727 0)
(-0.169554 0.217879 0)
(-0.170789 0.193747 0)
(-0.168306 0.165495 0)
(-0.165436 0.137754 0)
(-0.1634 0.111918 0)
(-0.162484 0.0877211 0)
(-0.162538 0.0645419 0)
(-0.16317 0.0416807 0)
(-0.164272 0.0187671 0)
(-0.165662 -0.00453297 0)
(-0.167408 -0.028352 0)
(-0.169532 -0.0529015 0)
(-0.172246 -0.0782793 0)
(-0.175805 -0.104697 0)
(-0.180751 -0.132498 0)
(-0.187799 -0.162382 0)
(-0.197472 -0.19535 0)
(-0.208873 -0.231797 0)
(-0.216952 -0.268145 0)
(-0.209994 -0.289667 0)
(-0.172868 -0.263988 0)
(-0.0939897 -0.15833 0)
(-0.00199903 -0.00467575 0)
(-0.000693361 0.0250421 0)
(-0.00901851 0.0589408 0)
(-0.0409708 0.118413 0)
(-0.0724885 0.176648 0)
(-0.104499 0.222457 0)
(-0.1273 0.244985 0)
(-0.139568 0.241584 0)
(-0.142977 0.220652 0)
(-0.14208 0.192151 0)
(-0.139709 0.162851 0)
(-0.138227 0.135884 0)
(-0.137723 0.111166 0)
(-0.138234 0.0879165 0)
(-0.139346 0.0653113 0)
(-0.140831 0.0427831 0)
(-0.142538 0.0200448 0)
(-0.144374 -0.00311775 0)
(-0.146391 -0.026789 0)
(-0.14859 -0.0510203 0)
(-0.151022 -0.0758375 0)
(-0.153786 -0.101289 0)
(-0.157192 -0.127557 0)
(-0.16182 -0.155213 0)
(-0.168482 -0.185537 0)
(-0.178126 -0.220381 0)
(-0.190166 -0.260116 0)
(-0.196625 -0.298157 0)
(-0.183545 -0.3082 0)
(-0.128792 -0.242357 0)
(-0.0351875 -0.0664136 0)
(0.0120282 0.0265542 0)
(-0.00808189 0.0824417 0)
(-0.0375128 0.149415 0)
(-0.0648612 0.206748 0)
(-0.0911315 0.246527 0)
(-0.107547 0.259449 0)
(-0.115116 0.246962 0)
(-0.116265 0.220418 0)
(-0.115216 0.189917 0)
(-0.113959 0.161091 0)
(-0.113904 0.135364 0)
(-0.114606 0.111721 0)
(-0.116089 0.08921 0)
(-0.11786 0.0670172 0)
(-0.119842 0.0447407 0)
(-0.12186 0.0221511 0)
(-0.123951 -0.00087652 0)
(-0.126082 -0.0243983 0)
(-0.128346 -0.0484785 0)
(-0.130802 -0.0731701 0)
(-0.133522 -0.0985328 0)
(-0.136587 -0.124589 0)
(-0.140095 -0.15138 0)
(-0.144259 -0.179396 0)
(-0.150051 -0.210707 0)
(-0.160689 -0.248307 0)
(-0.172343 -0.293343 0)
(-0.175673 -0.328525 0)
(-0.141829 -0.308011 0)
(-0.0808958 -0.166983 0)
(0.0207628 0.0142546 0)
(-0.0060874 0.102643 0)
(-0.030783 0.176333 0)
(-0.0530411 0.231425 0)
(-0.0736051 0.264876 0)
(-0.0850364 0.269677 0)
(-0.089805 0.25058 0)
(-0.0903267 0.220606 0)
(-0.0900798 0.189397 0)
(-0.0901696 0.161316 0)
(-0.091319 0.136467 0)
(-0.0929432 0.113431 0)
(-0.0950996 0.0912442 0)
(-0.097336 0.0691668 0)
(-0.0996838 0.0469014 0)
(-0.101951 0.0242579 0)
(-0.104185 0.00120516 0)
(-0.106363 -0.0222512 0)
(-0.108582 -0.0461404 0)
(-0.110855 -0.0704851 0)
(-0.11335 -0.095404 0)
(-0.116202 -0.121069 0)
(-0.119373 -0.147646 0)
(-0.122974 -0.175091 0)
(-0.126513 -0.204707 0)
(-0.134765 -0.238409 0)
(-0.144521 -0.28169 0)
(-0.156245 -0.32825 0)
(-0.138838 -0.34562 0)
(-0.106086 -0.25149 0)
(0.00964469 -0.0174557 0)
(-0.00341194 0.11767 0)
(-0.0219743 0.198053 0)
(-0.0389405 0.250533 0)
(-0.0544126 0.278368 0)
(-0.0622778 0.276499 0)
(-0.0657402 0.252447 0)
(-0.0665635 0.220312 0)
(-0.0672912 0.189104 0)
(-0.0683773 0.161913 0)
(-0.0702177 0.137876 0)
(-0.0723328 0.115404 0)
(-0.0748311 0.0935242 0)
(-0.0773446 0.0715704 0)
(-0.0799361 0.0493097 0)
(-0.082408 0.0266056 0)
(-0.0848008 0.00346147 0)
(-0.0870712 -0.0201083 0)
(-0.0893141 -0.0440387 0)
(-0.0915764 -0.0683638 0)
(-0.0939757 -0.0931617 0)
(-0.0967099 -0.118495 0)
(-0.0993543 -0.1447 0)
(-0.102835 -0.171451 0)
(-0.104802 -0.200258 0)
(-0.111895 -0.231508 0)
(-0.117483 -0.271646 0)
(-0.132691 -0.321203 0)
(-0.126432 -0.364922 0)
(-0.116807 -0.315345 0)
(-0.0119643 -0.0753884 0)
(-0.000400094 0.126338 0)
(-0.0120536 0.21394 0)
(-0.023796 0.264346 0)
(-0.03457 0.287917 0)
(-0.0397317 0.281651 0)
(-0.0424717 0.254794 0)
(-0.0437338 0.221744 0)
(-0.0452432 0.190807 0)
(-0.0470452 0.164175 0)
(-0.0493661 0.14051 0)
(-0.0518461 0.11822 0)
(-0.0545899 0.0963613 0)
(-0.0573038 0.0743457 0)
(-0.0600428 0.051974 0)
(-0.0626339 0.0291385 0)
(-0.0651123 0.00587256 0)
(-0.0674364 -0.0177576 0)
(-0.0696899 -0.041661 0)
(-0.0719677 -0.0658248 0)
(-0.0742854 -0.0904524 0)
(-0.0772519 -0.115496 0)
(-0.0795786 -0.141754 0)
(-0.0839279 -0.168437 0)
(-0.0848568 -0.197107 0)
(-0.0918664 -0.226159 0)
(-0.0924672 -0.262234 0)
(-0.108388 -0.3092 0)
(-0.105381 -0.369229 0)
(-0.110565 -0.363543 0)
(-0.0210716 -0.152605 0)
(0.00267229 0.128381 0)
(-0.00174983 0.223736 0)
(-0.00846143 0.273179 0)
(-0.0150802 0.294209 0)
(-0.0182986 0.285203 0)
(-0.0208506 0.256497 0)
(-0.0227184 0.222769 0)
(-0.0248285 0.191975 0)
(-0.0269796 0.16574 0)
(-0.0293682 0.142441 0)
(-0.0318021 0.120449 0)
(-0.0344239 0.0987958 0)
(-0.0370472 0.0769068 0)
(-0.0397267 0.054561 0)
(-0.0423242 0.0316564 0)
(-0.0448625 0.00826164 0)
(-0.0473106 -0.0154927 0)
(-0.0496844 -0.0395006 0)
(-0.0522225 -0.0635839 0)
(-0.0544329 -0.0881272 0)
(-0.0579131 -0.112698 0)
(-0.0595658 -0.138681 0)
(-0.0650791 -0.164929 0)
(-0.0649616 -0.193972 0)
(-0.0735273 -0.222694 0)
(-0.0704993 -0.257269 0)
(-0.0871687 -0.300198 0)
(-0.0831079 -0.366344 0)
(-0.0979996 -0.392883 0)
(-0.0193772 -0.222343 0)
(0.00539707 0.123627 0)
(0.0084324 0.22723 0)
(0.00660324 0.277534 0)
(0.00397042 0.297608 0)
(0.00252839 0.287907 0)
(0.000388159 0.25906 0)
(-0.00168795 0.225464 0)
(-0.00404408 0.194844 0)
(-0.00631655 0.168698 0)
(-0.00865126 0.145432 0)
(-0.01097 0.123445 0)
(-0.0134318 0.101752 0)
(-0.0159256 0.0797905 0)
(-0.0184945 0.0573339 0)
(-0.0210459 0.0343167 0)
(-0.0235938 0.0108262 0)
(-0.026197 -0.0129144 0)
(-0.0286479 -0.0369406 0)
(-0.0317459 -0.0608194 0)
(-0.0338012 -0.0852638 0)
(-0.0384768 -0.109535 0)
(-0.0395093 -0.135534 0)
(-0.0468866 -0.161411 0)
(-0.0455074 -0.190558 0)
(-0.0562546 -0.218551 0)
(-0.0501797 -0.252126 0)
(-0.0679436 -0.291068 0)
(-0.0601434 -0.360156 0)
(-0.0829528 -0.414051 0)
(-0.0155255 -0.284123 0)
(0.00748696 0.112556 0)
(0.0180437 0.224539 0)
(0.0210494 0.277498 0)
(0.022005 0.298363 0)
(0.0222626 0.289324 0)
(0.0204796 0.260893 0)
(0.0180742 0.227255 0)
(0.0154606 0.196413 0)
(0.0132483 0.170102 0)
(0.0112795 0.146852 0)
(0.00946405 0.125008 0)
(0.00756676 0.103511 0)
(0.00559205 0.08176 0)
(0.00346537 0.059498 0)
(0.00115554 0.0366657 0)
(-0.00124339 0.013314 0)
(-0.00406847 -0.0102822 0)
(-0.0065088 -0.0341828 0)
(-0.0105237 -0.0579394 0)
(-0.0122672 -0.0820021 0)
(-0.0186549 -0.106038 0)
(-0.018775 -0.131496 0)
(-0.0286029 -0.157231 0)
(-0.0258568 -0.186571 0)
(-0.0400053 -0.214986 0)
(-0.0319231 -0.249193 0)
(-0.0523426 -0.284824 0)
(-0.0407313 -0.352421 0)
(-0.0697837 -0.424249 0)
(-0.010324 -0.334807 0)
(0.00864791 0.0960279 0)
(0.0265299 0.215556 0)
(0.0343897 0.27313 0)
(0.0391705 0.29629 0)
(0.041559 0.289816 0)
(0.0408401 0.263361 0)
(0.0387077 0.230483 0)
(0.0361813 0.199552 0)
(0.0341533 0.172857 0)
(0.0325726 0.149303 0)
(0.0312479 0.127308 0)
(0.0298906 0.105776 0)
(0.0283995 0.0840707 0)
(0.0266805 0.061891 0)
(0.0245748 0.0392015 0)
(0.0223557 0.0160155 0)
(0.0191891 -0.00736701 0)
(0.0168377 -0.03089 0)
(0.011701 -0.0544681 0)
(0.0101826 -0.0778678 0)
(0.00172327 -0.102077 0)
(0.0023232 -0.126462 0)
(-0.0105971 -0.152788 0)
(-0.00608039 -0.18107 0)
(-0.0243948 -0.209902 0)
(-0.0140102 -0.243874 0)
(-0.0383035 -0.27758 0)
(-0.0231356 -0.344436 0)
(-0.0586164 -0.430636 0)
(-0.00562377 -0.377227 0)
(0.00848697 0.0756222 0)
(0.0330538 0.200237 0)
(0.0460766 0.264031 0)
(0.0548205 0.291264 0)
(0.059647 0.28844 0)
(0.0600478 0.264423 0)
(0.0581122 0.232188 0)
(0.0555896 0.20081 0)
(0.0537688 0.173445 0)
(0.0527309 0.149498 0)
(0.0521835 0.127443 0)
(0.0517235 0.106095 0)
(0.0510746 0.0847524 0)
(0.0501606 0.063022 0)
(0.0484966 0.0409135 0)
(0.0468229 0.0183111 0)
(0.0433223 -0.00447185 0)
(0.0411875 -0.0273293 0)
(0.0349578 -0.050402 0)
(0.0334129 -0.0730947 0)
(0.0231487 -0.0970495 0)
(0.0241092 -0.120371 0)
(0.00791628 -0.147078 0)
(0.013965 -0.174234 0)
(-0.00959785 -0.204828 0)
(0.00314282 -0.238064 0)
(-0.0272228 -0.27123 0)
(-0.0088378 -0.334965 0)
(-0.0504194 -0.429753 0)
(-0.00082777 -0.412075 0)
(0.00660546 0.0535068 0)
(0.0366647 0.178496 0)
(0.0552808 0.249933 0)
(0.068901 0.282652 0)
(0.0769895 0.285211 0)
(0.0796281 0.265404 0)
(0.0789228 0.235108 0)
(0.0769964 0.203794 0)
(0.0755074 0.175663 0)
(0.0748925 0.150951 0)
(0.0749147 0.128463 0)
(0.0751841 0.107007 0)
(0.0751653 0.0858733 0)
(0.0749997 0.0645016 0)
(0.0735008 0.0429503 0)
(0.0724282 0.0209911 0)
(0.0683365 -0.00106739 0)
(0.0666267 -0.0232198 0)
(0.0590265 -0.0455019 0)
(0.0576218 -0.067587 0)
(0.0453039 -0.0906882 0)
(0.046319 -0.113582 0)
(0.0272431 -0.139842 0)
(0.0340147 -0.165946 0)
(0.00552161 -0.196933 0)
(0.0208369 -0.228674 0)
(-0.0174107 -0.262472 0)
(0.00480516 -0.32384 0)
(-0.0446017 -0.426157 0)
(0.00341455 -0.441398 0)
(0.0034801 0.03311 0)
(0.0364336 0.150813 0)
(0.0612307 0.230023 0)
(0.0800057 0.269998 0)
(0.0919005 0.278507 0)
(0.0970248 0.263336 0)
(0.0977545 0.235327 0)
(0.0965819 0.20423 0)
(0.0955435 0.175303 0)
(0.0954614 0.149762 0)
(0.0961983 0.126887 0)
(0.0974864 0.105472 0)
(0.0982766 0.0848284 0)
(0.0993448 0.0641921 0)
(0.0981241 0.0435913 0)
(0.098236 0.0227541 0)
(0.0935937 0.00185675 0)
(0.0927503 -0.0190882 0)
(0.0837098 -0.0401868 0)
(0.0828614 -0.0612496 0)
(0.0683113 -0.0832488 0)
(0.0696148 -0.105537 0)
(0.0474281 -0.130749 0)
(0.0545207 -0.156614 0)
(0.0210988 -0.187237 0)
(0.0379048 -0.218263 0)
(-0.00908063 -0.252171 0)
(0.0173741 -0.309707 0)
(-0.0415113 -0.416393 0)
(0.00791074 -0.464646 0)
(0.000362047 0.0168625 0)
(0.0321559 0.118394 0)
(0.0630407 0.204225 0)
(0.0878477 0.252371 0)
(0.104558 0.268602 0)
(0.113952 0.259843 0)
(0.117888 0.235824 0)
(0.118737 0.206059 0)
(0.118709 0.176748 0)
(0.119239 0.150216 0)
(0.120322 0.126605 0)
(0.122373 0.104866 0)
(0.123374 0.0844353 0)
(0.125582 0.0644293 0)
(0.124119 0.0447349 0)
(0.125432 0.0250475 0)
(0.119837 0.00536298 0)
(0.120113 -0.0142641 0)
(0.109307 -0.0340932 0)
(0.10938 -0.0539753 0)
(0.0922788 -0.0747968 0)
(0.0942243 -0.0961856 0)
(0.0686388 -0.120174 0)
(0.0761346 -0.145212 0)
(0.0376223 -0.174316 0)
(0.0556017 -0.204432 0)
(-0.000305541 -0.237701 0)
(0.0306989 -0.293208 0)
(-0.0395525 -0.404044 0)
(0.013181 -0.483027 0)
(-0.000992549 0.00554441 0)
(0.0243359 0.0837077 0)
(0.0600562 0.172543 0)
(0.0898729 0.229248 0)
(0.111718 0.252812 0)
(0.125555 0.250534 0)
(0.133362 0.231101 0)
(0.13722 0.203558 0)
(0.139124 0.174638 0)
(0.141038 0.147613 0)
(0.142759 0.123557 0)
(0.146083 0.101738 0)
(0.147269 0.0817241 0)
(0.151131 0.0626282 0)
(0.149416 0.044155 0)
(0.152543 0.0259785 0)
(0.146073 0.00791801 0)
(0.148119 -0.00999011 0)
(0.135634 -0.0281625 0)
(0.13732 -0.0463705 0)
(0.117574 -0.0656369 0)
(0.120768 -0.0855269 0)
(0.091311 -0.107907 0)
(0.0994285 -0.131603 0)
(0.0550178 -0.15912 0)
(0.0737939 -0.188103 0)
(0.00823073 -0.220476 0)
(0.043949 -0.274263 0)
(-0.0382664 -0.387257 0)
(0.0202031 -0.499177 0)
(-0.000494099 -0.00111694 0)
(0.0155926 0.0522816 0)
(0.0516623 0.137266 0)
(0.0862562 0.200614 0)
(0.113766 0.232814 0)
(0.134344 0.237921 0)
(0.148307 0.224327 0)
(0.157369 0.20031 0)
(0.162825 0.172971 0)
(0.16746 0.146099 0)
(0.16995 0.12175 0)
(0.174821 0.0997657 0)
(0.175503 0.0799641 0)
(0.180918 0.0616032 0)
(0.178159 0.0442269 0)
(0.183061 0.0275262 0)
(0.175063 0.0110697 0)
(0.179009 -0.00505117 0)
(0.164382 -0.0214922 0)
(0.167908 -0.0378701 0)
(0.145117 -0.0554383 0)
(0.149842 -0.0734353 0)
(0.116033 -0.0939439 0)
(0.125043 -0.115332 0)
(0.0738901 -0.140375 0)
(0.0936341 -0.166676 0)
(0.0170146 -0.198536 0)
(0.0584101 -0.252588 0)
(-0.0385207 -0.369765 0)
(0.0280623 -0.51682 0)
(0.000318505 -0.00490036 0)
(0.00874642 0.0283868 0)
(0.037919 0.101563 0)
(0.0726687 0.166783 0)
(0.104969 0.204177 0)
(0.131453 0.215967 0)
(0.152397 0.208349 0)
(0.168559 0.189004 0)
(0.179457 0.16482 0)
(0.189214 0.139719 0)
(0.193873 0.116277 0)
(0.202035 0.0950271 0)
(0.202758 0.0759971 0)
(0.210803 0.0587395 0)
(0.207063 0.0427124 0)
(0.214586 0.027693 0)
(0.204988 0.0130588 0)
(0.211651 -0.00101588 0)
(0.194764 -0.0154188 0)
(0.20094 -0.029602 0)
(0.17493 -0.0449452 0)
(0.18181 -0.0603627 0)
(0.143233 -0.0781989 0)
(0.15334 -0.0962132 0)
(0.0948508 -0.118275 0)
(0.115356 -0.140884 0)
(0.0261134 -0.172599 0)
(0.0734487 -0.225184 0)
(-0.0437118 -0.348007 0)
(0.0364014 -0.530151 0)
(-0.000553273 -0.00592782 0)
(0.00314662 0.0141932 0)
(0.0207493 0.0729803 0)
(0.0528115 0.132202 0)
(0.0885291 0.173244 0)
(0.123233 0.189342 0)
(0.152495 0.187223 0)
(0.178178 0.172975 0)
(0.196234 0.152994 0)
(0.213726 0.130812 0)
(0.221705 0.109433 0)
(0.235046 0.0896582 0)
(0.235906 0.0719557 0)
(0.247551 0.0559928 0)
(0.242139 0.041511 0)
(0.252744 0.0281576 0)
(0.240466 0.0154734 0)
(0.25013 0.00342558 0)
(0.229685 -0.00869341 0)
(0.238758 -0.0204431 0)
(0.208185 -0.0330872 0)
(0.217506 -0.0454723 0)
(0.172914 -0.0599731 0)
(0.184712 -0.0740309 0)
(0.118596 -0.0924454 0)
(0.140838 -0.110414 0)
(0.040143 -0.141236 0)
(0.0927874 -0.189625 0)
(-0.0478524 -0.317423 0)
(0.0494374 -0.52551 0)
(-0.00577225 -0.00403231 0)
(-0.012722 0.00618543 0)
(-0.00490099 0.0528084 0)
(0.0168748 0.0953944 0)
(0.0551129 0.133128 0)
(0.0940461 0.150475 0)
(0.132361 0.153323 0)
(0.169132 0.145119 0)
(0.19499 0.130761 0)
(0.223346 0.113523 0)
(0.236032 0.096301 0)
(0.258009 0.0797762 0)
(0.260012 0.0649242 0)
(0.278363 0.051281 0)
(0.271481 0.0392142 0)
(0.287805 0.0279471 0)
(0.272231 0.0176979 0)
(0.287293 0.00782815 0)
(0.26218 -0.00157705 0)
(0.276626 -0.0107985 0)
(0.240025 -0.0202634 0)
(0.254699 -0.029508 0)
(0.202793 -0.0399537 0)
(0.219908 -0.0499578 0)
(0.14567 -0.0638113 0)
(0.173181 -0.0779827 0)
(0.0642143 -0.10743 0)
(0.12186 -0.153294 0)
(-0.032376 -0.27933 0)
(0.076157 -0.507213 0)
(-0.0261284 0.0213825 0)
(-0.0478465 0.0118917 0)
(-0.0363898 0.0466431 0)
(-0.0178166 0.0692318 0)
(0.022396 0.100636 0)
(0.0666974 0.108123 0)
(0.112098 0.114266 0)
(0.160836 0.109237 0)
(0.192397 0.100342 0)
(0.233455 0.0878525 0)
(0.249161 0.0759882 0)
(0.282541 0.0631472 0)
(0.283756 0.0525939 0)
(0.312294 0.0417171 0)
(0.301181 0.0333916 0)
(0.327167 0.0244586 0)
(0.304566 0.0178358 0)
(0.329638 0.0102129 0)
(0.295221 0.00464212 0)
(0.320691 -0.00220661 0)
(0.272859 -0.00729174 0)
(0.300419 -0.013782 0)
(0.235992 -0.0192147 0)
(0.268378 -0.0259982 0)
(0.18127 -0.0341331 0)
(0.22511 -0.0458752 0)
(0.104789 -0.0717588 0)
(0.175099 -0.125556 0)
(0.0126854 -0.251832 0)
(0.117624 -0.503086 0)
(0.014576 0.0707899 0)
(-0.0834205 0.00949533 0)
(-0.0553596 0.0294805 0)
(-0.0697434 0.0301818 0)
(-0.0186872 0.0482625 0)
(0.0210961 0.0540542 0)
(0.0750537 0.0634152 0)
(0.133558 0.063382 0)
(0.16616 0.0623772 0)
(0.224772 0.0565249 0)
(0.237258 0.0516849 0)
(0.290395 0.0442652 0)
(0.284153 0.038949 0)
(0.334206 0.0320569 0)
(0.311582 0.0274971 0)
(0.361315 0.0216208 0)
(0.323492 0.017918 0)
(0.375576 0.0129825 0)
(0.322543 0.00990849 0)
(0.379526 0.00571939 0)
(0.309983 0.0029681 0)
(0.374629 -0.000716995 0)
(0.28586 -0.00370265 0)
(0.361999 -0.00744483 0)
(0.249132 -0.011924 0)
(0.340011 -0.0195888 0)
(0.189282 -0.0372664 0)
(0.292553 -0.0910256 0)
(0.0761698 -0.21936 0)
(0.177705 -0.450809 0)
(0.074378 0.0683811 0)
(0.0986127 0.0536491 0)
(0.139838 0.0352253 0)
(0.185193 0.0256776 0)
(0.190527 0.0164918 0)
(0.246627 0.0142847 0)
(0.250462 0.0131017 0)
(0.323098 0.0133903 0)
(0.320789 0.0139504 0)
(0.401448 0.0135942 0)
(0.388241 0.013564 0)
(0.470281 0.0123311 0)
(0.442439 0.0120351 0)
(0.525514 0.0102532 0)
(0.482064 0.0101112 0)
(0.568053 0.00795308 0)
(0.508499 0.00826093 0)
(0.600097 0.00572359 0)
(0.523553 0.00669122 0)
(0.623666 0.00360538 0)
(0.528543 0.00541069 0)
(0.640355 0.0014585 0)
(0.524267 0.00439324 0)
(0.651383 -0.000937571 0)
(0.510367 0.00346479 0)
(0.654427 -0.00449894 0)
(0.471989 0.000245167 0)
(0.609798 -0.0200269 0)
(0.298279 -0.0332146 0)
(0.389507 -0.0958094 0)
)
;

boundaryField
{
    movingWall
    {
        type            fixedValue;
        value           uniform (1 0 0);
    }
    fixedWalls
    {
        type            noSlip;
    }
    frontAndBack
    {
        type            empty;
    }
}


// ************************************************************************* //
