/*--------------------------------*- C++ -*----------------------------------*\
| =========                 |                                                 |
| \\      /  F ield         | OpenFOAM: The Open Source CFD Toolbox           |
|  \\    /   O peration     | Version:  2406                                  |
|   \\  /    A nd           | Website:  www.openfoam.com                      |
|    \\/     M anipulation  |                                                 |
\*---------------------------------------------------------------------------*/
FoamFile
{
    version     2.0;
    format      ascii;
    arch        "LSB;label=32;scalar=64";
    class       surfaceScalarField;
    location    "46.6";
    object      phi;
}
// * * * * * * * * * * * * * * * * * * * * * * * * * * * * * * * * * * * * * //

dimensions      [0 3 -1 0 0 0 0];

oriented        oriented;

internalField   nonuniform List<scalar> 
7080
(
2.88498e-07
-2.87271e-07
1.58205e-06
-1.33111e-06
3.44949e-06
-1.86611e-06
5.34034e-06
-1.92165e-06
6.90106e-06
-1.56476e-06
7.94256e-06
-1.0593e-06
8.50652e-06
-5.64555e-07
8.70467e-06
-2.03643e-07
8.695e-06
1.39527e-08
8.56569e-06
1.32409e-07
8.33746e-06
2.37627e-07
7.94081e-06
4.08111e-07
7.2591e-06
6.99887e-07
6.14487e-06
1.13829e-06
4.44719e-06
1.73077e-06
2.01416e-06
2.47547e-06
-1.29822e-06
3.36569e-06
-5.62323e-06
4.38892e-06
-1.10742e-05
5.52671e-06
-1.77329e-05
6.7481e-06
-2.56244e-05
7.99702e-06
-3.46878e-05
9.18412e-06
-4.47479e-05
1.01909e-05
-5.54959e-05
1.08808e-05
-6.6486e-05
1.11151e-05
-7.71524e-05
1.0775e-05
-8.68499e-05
9.7828e-06
-9.49077e-05
8.11544e-06
-0.000100686
5.80586e-06
-0.000103625
2.93705e-06
-0.000103291
-3.66551e-07
-9.94046e-05
-3.94643e-06
-9.18746e-05
-7.61536e-06
-8.08202e-05
-1.11619e-05
-6.65898e-05
-1.43564e-05
-4.97692e-05
-1.69612e-05
-3.11732e-05
-1.8747e-05
-1.18124e-05
-1.95175e-05
7.16951e-06
-1.91392e-05
2.45913e-05
-1.7574e-05
3.93577e-05
-1.49066e-05
5.05926e-05
-1.13569e-05
5.77646e-05
-7.26825e-06
6.07671e-05
-3.06857e-06
5.99366e-05
7.98988e-07
5.59847e-05
3.95346e-06
4.98627e-05
6.1551e-06
4.25769e-05
7.34088e-06
3.50234e-05
7.62441e-06
2.78664e-05
7.23025e-06
2.15133e-05
6.42694e-06
1.6131e-05
5.44455e-06
1.17312e-05
4.45849e-06
8.21106e-06
3.56174e-06
5.44098e-06
2.81323e-06
3.26786e-06
2.19469e-06
1.61123e-06
1.68934e-06
4.6002e-07
1.15527e-06
-9.34797e-08
5.80125e-07
-9.37639e-08
1.24684e-06
-1.49684e-06
4.19614e-06
-4.28313e-06
8.00975e-06
-5.62495e-06
1.17212e-05
-5.61856e-06
1.47326e-05
-4.53641e-06
1.66688e-05
-2.98422e-06
1.75278e-05
-1.40568e-06
1.74211e-05
-9.71044e-08
1.65349e-05
9.00298e-07
1.49385e-05
1.71798e-06
1.25737e-05
2.58845e-06
9.21876e-06
3.73882e-06
4.55706e-06
5.32847e-06
-1.78504e-06
7.43293e-06
-1.01795e-05
1.00621e-05
-2.09683e-05
1.31817e-05
-3.44216e-05
1.67176e-05
-5.06898e-05
2.05376e-05
-6.97223e-05
2.44223e-05
-9.11941e-05
2.80614e-05
-0.000114474
3.10918e-05
-0.000138661
3.31604e-05
-0.000162684
3.3984e-05
-0.000185422
3.3384e-05
-0.000205818
3.12911e-05
-0.000222965
2.77304e-05
-0.000236133
2.2802e-05
-0.000244778
1.66618e-05
-0.000248522
9.50712e-06
-0.000247139
1.56786e-06
-0.000240538
-6.89687e-06
-0.000228763
-1.55971e-05
-0.000211998
-2.42081e-05
-0.000190579
-3.23663e-05
-0.000165014
-3.96711e-05
-0.000136004
-4.56956e-05
-0.000104447
-5.00103e-05
-7.14409e-05
-5.22237e-05
-3.82462e-05
-5.20367e-05
-6.23367e-06
-4.93041e-05
2.3209e-05
-4.4093e-05
4.87865e-05
-3.67173e-05
6.94211e-05
-2.77357e-05
8.43614e-05
-1.79014e-05
9.32732e-05
-8.06789e-06
9.62818e-05
9.27198e-07
9.39784e-05
8.38896e-06
8.7353e-05
1.38557e-05
7.76779e-05
1.71686e-05
6.6308e-05
1.84603e-05
5.44935e-05
1.81117e-05
4.31936e-05
1.66237e-05
3.30352e-05
1.45197e-05
2.42899e-05
1.22178e-05
1.70139e-05
1.0028e-05
1.1083e-05
8.06127e-06
6.40831e-06
6.33533e-06
2.9119e-06
4.60319e-06
7.30439e-07
2.76277e-06
6.10118e-07
1.85669e-06
-3.34976e-06
5.80821e-06
-8.29268e-06
1.06296e-05
-1.0442e-05
1.50291e-05
-1.00625e-05
1.83076e-05
-7.82214e-06
2.00122e-05
-4.71405e-06
2.01168e-05
-1.51323e-06
1.86767e-05
1.33519e-06
1.579e-05
3.79189e-06
1.13804e-05
6.13265e-06
5.20207e-06
8.78062e-06
-3.17578e-06
1.21352e-05
-1.42664e-05
1.6448e-05
-2.85972e-05
2.1803e-05
-4.66137e-05
2.81331e-05
-6.85878e-05
3.52273e-05
-9.44788e-05
4.26983e-05
-0.000123815
4.99777e-05
-0.000155664
5.63852e-05
-0.000188739
6.12635e-05
-0.000221612
6.41065e-05
-0.00025292
6.46268e-05
-0.000281517
6.27498e-05
-0.000306527
5.85642e-05
-0.000327337
5.22603e-05
-0.000343551
4.40799e-05
-0.000354928
3.42838e-05
-0.000361335
2.31364e-05
-0.000362705
1.09033e-05
-0.000359012
-2.14238e-06
-0.000350261
-1.57079e-05
-0.000336495
-2.94649e-05
-0.00031781
-4.30326e-05
-0.000294387
-5.59632e-05
-0.000266523
-6.77364e-05
-0.000234675
-7.77659e-05
-0.000199494
-8.54274e-05
-0.000161848
-9.01104e-05
-0.000122826
-9.12963e-05
-8.37012e-05
-8.86521e-05
-4.58664e-05
-8.21274e-05
-1.0728e-05
-7.20224e-05
2.04166e-05
-5.90056e-05
4.64906e-05
-4.40556e-05
6.67303e-05
-2.83402e-05
8.07269e-05
-1.30593e-05
8.84593e-05
7.05176e-07
9.02956e-05
1.20938e-05
8.70029e-05
2.05544e-05
7.96814e-05
2.58776e-05
6.96602e-05
2.82305e-05
5.82739e-05
2.80941e-05
4.67027e-05
2.61722e-05
3.57785e-05
2.32014e-05
2.60315e-05
1.98378e-05
1.76429e-05
1.64817e-05
1.0728e-05
1.33015e-05
5.26683e-06
1.00649e-05
1.57211e-06
6.50747e-06
2.17794e-06
2.25516e-06
-5.56998e-06
6.71904e-06
-1.27852e-05
1.1776e-05
-1.54506e-05
1.58948e-05
-1.41878e-05
1.8362e-05
-1.02602e-05
1.87332e-05
-5.08507e-06
1.69784e-05
2.54605e-07
1.30527e-05
5.25817e-06
6.8661e-06
9.97919e-06
-1.91646e-06
1.49066e-05
-1.38088e-05
2.06631e-05
-2.94553e-05
2.77643e-05
-4.94629e-05
3.64333e-05
-7.42624e-05
4.65719e-05
-0.000103916
5.77477e-05
-0.000137954
6.92133e-05
-0.000175305
7.9983e-05
-0.000214438
8.90326e-05
-0.000253665
9.55248e-05
-0.000291449
9.89514e-05
-0.000326588
9.91419e-05
-0.00035826
9.61873e-05
-0.00038596
9.03371e-05
-0.000409417
8.19142e-05
-0.000428507
7.12562e-05
-0.000443187
5.86842e-05
-0.000453447
4.4491e-05
-0.000459281
2.89419e-05
-0.000460665
1.22858e-05
-0.000457553
-5.22914e-06
-0.000449875
-2.33339e-05
-0.000437548
-4.17141e-05
-0.000420494
-5.99839e-05
-0.000398672
-7.76618e-05
-0.000372114
-9.41526e-05
-0.000340978
-0.000108745
-0.000305608
-0.000120633
-0.000266583
-0.000128966
-0.000224766
-0.000132947
-0.000181309
-0.000131952
-0.000137611
-0.000125683
-9.52193e-05
-0.000114292
-5.56743e-05
-9.84536e-05
-2.03358e-05
-7.93257e-05
9.76006e-06
-5.83964e-05
3.39564e-05
-3.7246e-05
5.19652e-05
-1.73186e-05
6.37985e-05
2.21712e-07
6.97566e-05
1.45446e-05
7.04206e-05
2.51495e-05
6.66885e-05
3.19008e-05
5.96836e-05
3.50335e-05
5.06613e-05
3.51436e-05
4.07565e-05
3.30508e-05
3.09299e-05
2.96339e-05
2.17688e-05
2.55959e-05
1.37407e-05
2.13247e-05
7.03598e-06
1.67191e-05
2.23817e-06
1.13309e-05
4.38345e-06
2.48728e-06
-8.04113e-06
7.04737e-06
-1.7401e-05
1.16841e-05
-2.00638e-05
1.46929e-05
-1.72299e-05
1.54005e-05
-1.09615e-05
1.34171e-05
-3.11836e-06
8.69996e-06
4.97445e-06
1.05627e-06
1.28967e-05
-9.86358e-06
2.0904e-05
-2.46902e-05
2.9737e-05
-4.41539e-05
4.01376e-05
-6.89176e-05
5.25417e-05
-9.93011e-05
6.68378e-05
-0.000135061
8.23583e-05
-0.000175234
9.7953e-05
-0.000218221
0.000112239
-0.000262116
0.000123925
-0.000305127
0.000132098
-0.000345854
0.000136312
-0.000383365
0.000136527
-0.000417121
0.000132969
-0.000446867
0.000126006
-0.000472521
0.000116062
-0.000494103
0.000103557
-0.000511676
8.88772e-05
-0.000525321
7.23607e-05
-0.000535112
5.42946e-05
-0.000541099
3.49228e-05
-0.000543295
1.44584e-05
-0.00054167
-6.89665e-06
-0.000536135
-2.89277e-05
-0.000526545
-5.13774e-05
-0.000512704
-7.39126e-05
-0.000494376
-9.60881e-05
-0.000471321
-0.000117314
-0.000443346
-0.000136832
-0.000410377
-0.000153717
-0.000372549
-0.000166907
-0.000330314
-0.000175291
-0.000284518
-0.00017785
-0.000236445
-0.000173846
-0.000187777
-0.000163039
-0.00014043
-0.000145862
-9.63129e-05
-0.000123488
-5.70224e-05
-9.77128e-05
-2.36283e-05
-7.06478e-05
3.38821e-06
-4.4323e-05
2.39964e-05
-2.03609e-05
3.84453e-05
1.35585e-07
4.71292e-05
1.6508e-05
5.06231e-05
2.84558e-05
4.96933e-05
3.60033e-05
4.53473e-05
3.95346e-05
3.86632e-05
3.97616e-05
3.07506e-05
3.75861e-05
2.2466e-05
3.38885e-05
1.46056e-05
2.92263e-05
7.64701e-06
2.3658e-05
2.47404e-06
1.65592e-05
6.8429e-06
2.59559e-06
-1.06071e-05
6.79318e-06
-2.16359e-05
1.02788e-05
-2.35102e-05
1.13084e-05
-1.82736e-05
9.31688e-06
-8.95029e-06
3.99033e-06
2.20367e-06
-4.78276e-06
1.37552e-05
-1.74126e-05
2.55227e-05
-3.45422e-05
3.80333e-05
-5.70064e-05
5.2195e-05
-8.54779e-05
6.8603e-05
-0.000120156
8.72094e-05
-0.000160466
0.000107135
-0.00020501
0.000126882
-0.000251792
0.000144712
-0.000298709
0.000159126
-0.000343974
0.000169155
-0.000386326
0.000174412
-0.000425006
0.000174951
-0.000459632
0.00017111
-0.000490076
0.000163366
-0.000516369
0.000152252
-0.000538642
0.00013829
-0.000557085
0.000121961
-0.000571917
0.00010368
-0.000583366
8.37922e-05
-0.000591646
6.2569e-05
-0.000596937
4.022e-05
-0.000599364
1.69041e-05
-0.000598983
-7.2485e-06
-0.00059576
-3.21122e-05
-0.000589556
-5.75335e-05
-0.000580121
-8.3294e-05
-0.000567082
-0.000109067
-0.000549963
-0.000134369
-0.000528211
-0.000158517
-0.000501265
-0.000180594
-0.000468659
-0.000199443
-0.00043017
-0.000213712
-0.000385984
-0.000221969
-0.000336865
-0.000222901
-0.000284259
-0.000215588
-0.000230262
-0.000199812
-0.000177409
-0.000176307
-0.000128257
-0.000146844
-8.48929e-05
-0.000114006
-4.85373e-05
-8.06845e-05
-1.94914e-05
-4.9425e-05
2.60231e-06
-2.198e-05
1.83489e-05
7.31783e-07
2.84017e-05
1.83778e-05
3.34115e-05
3.09616e-05
3.41655e-05
3.87605e-05
3.15498e-05
4.23465e-05
2.6609e-05
4.25178e-05
2.02873e-05
4.01782e-05
1.35826e-05
3.59397e-05
7.23187e-06
2.99645e-05
2.3481e-06
2.14771e-05
9.16115e-06
2.5005e-06
-1.30917e-05
5.77652e-06
-2.49538e-05
7.33218e-06
-2.50438e-05
5.54569e-06
-1.65075e-05
1.97732e-10
-3.39764e-06
-9.56664e-06
1.17623e-05
-2.34137e-05
2.76054e-05
-4.219e-05
4.42977e-05
-6.67191e-05
6.25666e-05
-9.77133e-05
8.31934e-05
-0.000135276
0.000106173
-0.000178604
0.000130545
-0.00022597
0.000154511
-0.000275111
0.000176035
-0.000323782
0.000193397
-0.00037019
0.000205551
-0.000413131
0.000212115
-0.00045191
0.000213212
-0.00048621
0.000209271
-0.000515969
0.000200889
-0.000541308
0.000188724
-0.000562476
0.000173437
-0.000579809
0.000155636
-0.00059369
0.000135851
-0.000604521
0.000114513
-0.000612689
9.19553e-05
-0.000618545
6.84132e-05
-0.000622385
4.40413e-05
-0.000624436
1.89288e-05
-0.00062484
-6.87772e-06
-0.000623639
-3.33519e-05
-0.00062076
-6.04576e-05
-0.000615987
-8.81168e-05
-0.000608942
-0.000116166
-0.000599062
-0.000144308
-0.000585594
-0.000172048
-0.000567616
-0.000198636
-0.00054411
-0.000223013
-0.000514096
-0.00024379
-0.000476837
-0.000259287
-0.000432112
-0.000267678
-0.000380496
-0.000267246
-0.000323576
-0.000256762
-0.000263976
-0.000235926
-0.000205078
-0.00020575
-0.000150407
-0.000168679
-0.000102806
-0.000128281
-6.37886e-05
-8.84342e-05
-3.34301e-05
-5.23236e-05
-1.08841e-05
-2.18001e-05
4.97307e-06
2.54214e-06
1.51263e-05
2.0823e-05
2.04501e-05
3.34602e-05
2.17615e-05
4.1044e-05
2.00036e-05
4.43003e-05
1.61027e-05
4.40768e-05
1.11293e-05
4.09434e-05
5.99392e-06
3.50782e-05
1.92017e-06
2.55951e-05
1.10669e-05
2.10291e-06
-1.51797e-05
3.77549e-06
-2.66473e-05
2.57221e-06
-2.3822e-05
-2.82656e-06
-1.11143e-05
-1.26939e-05
6.47616e-06
-2.7291e-05
2.63579e-05
-4.70742e-05
4.7389e-05
-7.28283e-05
7.00499e-05
-0.000105245
9.4981e-05
-0.000144419
0.000122364
-0.00018943
0.000151179
-0.000238362
0.000179471
-0.000288751
0.000204893
-0.000338217
0.000225492
-0.000384893
0.000240062
-0.00042754
0.000248186
-0.000465452
0.000250014
-0.000498323
0.00024607
-0.000526147
0.000237083
-0.00054915
0.000223881
-0.000567726
0.000207291
-0.000582378
0.000188085
-0.000593665
0.000166923
-0.000602148
0.00014434
-0.000608358
0.000120736
-0.000612771
9.63874e-05
-0.000615794
7.14614e-05
-0.000617762
4.60411e-05
-0.000618939
2.01427e-05
-0.000619513
-6.26087e-06
-0.000619595
-3.3223e-05
-0.000619202
-6.08007e-05
-0.000618233
-8.90332e-05
-0.000616435
-0.00011791
-0.000613359
-0.00014733
-0.000608308
-0.000177047
-0.000600299
-0.000206597
-0.000588061
-0.000235209
-0.000570088
-0.000261727
-0.000544795
-0.000284552
-0.00051079
-0.000301662
-0.000467263
-0.000310758
-0.000414431
-0.000309581
-0.000353928
-0.000296418
-0.00028894
-0.000270728
-0.000223892
-0.00023372
-0.000163564
-0.000188607
-0.000111832
-0.000140172
-7.05979e-05
-9.35654e-05
-3.96629e-05
-5.27498e-05
-1.75355e-05
-1.95951e-05
-2.51452e-06
5.78515e-06
6.82367e-06
2.41157e-05
1.1564e-05
3.62859e-05
1.27078e-05
4.31566e-05
1.11912e-05
4.55729e-05
8.09545e-06
4.40497e-05
4.42113e-06
3.87228e-05
1.38525e-06
2.86564e-05
1.24326e-05
1.28391e-06
-1.64643e-05
6.07371e-07
-2.59752e-05
-4.12737e-06
-1.9089e-05
-1.3793e-05
-1.44571e-06
-2.85763e-05
2.12562e-05
-4.87775e-05
4.65632e-05
-7.4999e-05
7.36095e-05
-0.000107886
0.000102942
-0.000147568
0.000134664
-0.000193138
0.000167939
-0.000242619
0.000200663
-0.000293415
0.00023027
-0.000342991
0.000254471
-0.000389345
0.00027185
-0.000431141
0.000281861
-0.000467615
0.000284664
-0.000498464
0.000280866
-0.00052375
0.00027136
-0.000543828
0.000257164
-0.000559257
0.000239313
-0.000570719
0.000218756
-0.000578936
0.000196302
-0.000584599
0.000172585
-0.000588336
0.000148072
-0.000590678
0.00012307
-0.000592066
9.77631e-05
-0.000592852
7.22309e-05
-0.000593314
4.64835e-05
-0.000593673
2.04779e-05
-0.0005941
-5.85992e-06
-0.000594726
-3.26255e-05
-0.000595635
-5.99209e-05
-0.000596852
-8.78466e-05
-0.000598307
-0.000116484
-0.00059979
-0.000145875
-0.00060088
-0.000175983
-0.000600864
-0.000206637
-0.00059865
-0.000237444
-0.000592717
-0.00026768
-0.000581131
-0.000296158
-0.000561691
-0.000321124
-0.000532255
-0.000340216
-0.000491255
-0.000350603
-0.000438354
-0.000349338
-0.000375075
-0.000334017
-0.000305144
-0.000303654
-0.000234169
-0.000259576
-0.000168456
-0.000205878
-0.000113117
-0.000148894
-7.04704e-05
-9.53907e-05
-3.9855e-05
-5.02e-05
-1.90159e-05
-1.50507e-05
-5.57952e-06
1.06919e-05
2.27684e-06
2.843e-05
5.94279e-06
3.95054e-05
6.53105e-06
4.49796e-05
5.16893e-06
4.54305e-05
2.905e-06
4.0972e-05
8.8356e-07
3.07038e-05
1.33076e-05
-4.22408e-08
-1.64362e-05
-3.80241e-06
-2.21884e-05
-1.2714e-05
-1.01994e-05
-2.7117e-05
1.29762e-05
-4.71881e-05
4.13131e-05
-7.32371e-05
7.2621e-05
-0.000105827
0.00010619
-0.000145099
0.000142217
-0.000190298
0.000179857
-0.000239494
0.000217135
-0.000290048
0.000251211
-0.00033926
0.00027948
-0.000384956
0.000300163
-0.000425647
0.000312538
-0.000460491
0.000316701
-0.000489174
0.000313347
-0.000511839
0.000303531
-0.000528981
0.000288504
-0.000541337
0.000269523
-0.000549764
0.000247746
-0.000555132
0.000224131
-0.000558239
0.000199419
-0.000559769
0.000174127
-0.000560272
0.000148588
-0.000560169
0.000122983
-0.000559774
9.73862e-05
-0.000559317
7.1794e-05
-0.000558969
4.61588e-05
-0.000558868
2.04018e-05
-0.000559132
-5.56952e-06
-0.000559871
-3.18583e-05
-0.000561192
-5.85706e-05
-0.000563193
-8.58161e-05
-0.000565943
-0.000113703
-0.000569454
-0.000142333
-0.000573618
-0.000171788
-0.000578126
-0.000202098
-0.000582355
-0.000233186
-0.000585233
-0.000264772
-0.000585127
-0.000296238
-0.000579787
-0.000326441
-0.000566452
-0.000353534
-0.000542197
-0.000374849
-0.000504567
-0.000386968
-0.000452473
-0.000386116
-0.000387157
-0.000368978
-0.000312821
-0.000333915
-0.0002364
-0.000282302
-0.000165959
-0.000219333
-0.000107999
-0.000153355
-6.50771e-05
-9.3123e-05
-3.58139e-05
-4.43238e-05
-1.70184e-05
-8.10387e-06
-5.69887e-06
1.70994e-05
3.74951e-07
3.34349e-05
2.79676e-06
4.25449e-05
2.88872e-06
4.53467e-05
1.77715e-06
4.20665e-05
5.42325e-07
3.19528e-05
1.38396e-05
-1.89901e-06
-1.45707e-05
-9.35018e-06
-1.4676e-05
-2.28536e-05
3.25522e-06
-4.21991e-05
3.23602e-05
-6.7607e-05
6.66976e-05
-9.92762e-05
0.000104311
-0.000137468
0.000144372
-0.000181534
0.000186296
-0.000229798
0.000228117
-0.000279621
0.000266964
-0.00032821
0.000299799
-0.000373165
0.000324437
-0.000412825
0.000339823
-0.000446225
0.00034594
-0.000473039
0.000343515
-0.000493471
0.00033378
-0.000508155
0.000318216
-0.000517997
0.000298345
-0.00052402
0.000275545
-0.000527222
0.000250946
-0.000528487
0.000225391
-0.000528529
0.000199454
-0.000527887
0.000173475
-0.000526938
0.000147628
-0.000525934
0.000121965
-0.000525033
9.64681e-05
-0.000524334
7.10754e-05
-0.000523904
4.57069e-05
-0.000523799
2.02732e-05
-0.00052408
-5.31378e-06
-0.000524822
-3.11429e-05
-0.00052612
-5.72999e-05
-0.00052809
-8.38743e-05
-0.000530862
-0.000110959
-0.000534566
-0.000138656
-0.000539303
-0.000167077
-0.000545086
-0.000196338
-0.000551757
-0.000226534
-0.000558848
-0.000257696
-0.000565414
-0.000289681
-0.000569842
-0.000322018
-0.000569712
-0.000353666
-0.000561818
-0.000382742
-0.000542491
-0.000406295
-0.00050833
-0.000420281
-0.000457354
-0.000419961
-0.000390375
-0.000400901
-0.000312057
-0.000360625
-0.000230813
-0.000300573
-0.00015672
-0.000227443
-9.76224e-05
-0.00015221
-5.59296e-05
-8.60159e-05
-2.91065e-05
-3.49184e-05
-1.2991e-05
9.79861e-07
-4.06497e-06
2.4519e-05
1.56011e-07
3.83178e-05
1.45946e-06
4.40552e-05
1.17238e-06
4.23436e-05
4.05991e-07
3.2734e-05
1.42406e-05
-4.23552e-06
-1.039e-05
-1.57858e-05
-3.02597e-06
-3.40345e-05
2.14229e-05
-5.82455e-05
5.66269e-05
-8.86733e-05
9.70847e-05
-0.000125223
0.000140885
-0.000167628
0.000186756
-0.000214374
0.000233052
-0.000263096
0.000276826
-0.000310878
0.000314749
-0.000355166
0.000344079
-0.000394043
0.000363315
-0.000426417
0.000372193
-0.000451882
0.000371407
-0.000470688
0.000362322
-0.00048357
0.000346665
-0.000491586
0.000326234
-0.0004959
0.000302664
-0.00049763
0.000277279
-0.000497724
0.000251045
-0.000496916
0.000224589
-0.000495721
0.000198266
-0.000494471
0.000172233
-0.000493352
0.000146519
-0.000492456
0.00012108
-0.000491815
9.58405e-05
-0.000491436
7.07103e-05
-0.000491316
4.56032e-05
-0.000491463
2.04373e-05
-0.0004919
-4.85827e-06
-0.000492673
-3.03499e-05
-0.000493857
-5.60968e-05
-0.000495552
-8.21596e-05
-0.000497891
-0.000108601
-0.000501033
-0.000135496
-0.000505156
-0.000162937
-0.000510434
-0.000191046
-0.000516987
-0.000219969
-0.000524799
-0.000249874
-0.000533574
-0.000280897
-0.000542533
-0.000313051
-0.000550163
-0.000346026
-0.000553984
-0.000378912
-0.000550461
-0.000409807
-0.000535264
-0.00043547
-0.000504056
-0.000451167
-0.000453914
-0.000451047
-0.00038518
-0.00042937
-0.000303063
-0.000382699
-0.000217733
-0.000312778
-0.00014149
-0.00022845
-8.32494e-05
-0.000144257
-4.44864e-05
-7.36762e-05
-2.11097e-05
-2.24065e-05
-8.10603e-06
1.15207e-05
-1.67683e-06
3.18781e-05
7.97517e-07
4.15889e-05
1.0739e-06
4.20546e-05
4.70731e-07
3.33483e-05
1.47044e-05
-6.90134e-06
-3.56306e-06
-2.26768e-05
1.28914e-05
-4.55142e-05
4.41501e-05
-7.41918e-05
8.53852e-05
-0.000108934
0.000131778
-0.000149178
0.000181169
-0.000194038
0.000231594
-0.000241263
0.000280296
-0.000288153
0.000323705
-0.000331887
0.000358493
-0.000370375
0.000382562
-0.000402261
0.000395208
-0.000427062
0.000396992
-0.000444974
0.000389323
-0.00045681
0.000374158
-0.000463726
0.000353583
-0.000467026
0.000329532
-0.000467921
0.000303558
-0.000467427
0.000276781
-0.00046629
0.000249904
-0.000465009
0.000223301
-0.000463867
0.000197118
-0.000463
0.000171356
-0.000462439
0.000145948
-0.000462167
0.000120797
-0.000462143
9.58033e-05
-0.000462323
7.0877e-05
-0.000462678
4.59423e-05
-0.000463191
2.09346e-05
-0.000463869
-4.19678e-06
-0.000464741
-2.94963e-05
-0.000465856
-5.49997e-05
-0.000467291
-8.07422e-05
-0.000469152
-0.000106757
-0.000471576
-0.000133089
-0.000474736
-0.000159793
-0.00047884
-0.000186956
-0.000484117
-0.000214705
-0.000490778
-0.000243224
-0.000498939
-0.000272746
-0.000508472
-0.000303526
-0.000518772
-0.000335732
-0.000528451
-0.000369235
-0.000535012
-0.000403245
-0.000534655
-0.000435823
-0.000522449
-0.000463366
-0.000493177
-0.000480314
-0.000443016
-0.000479532
-0.000371945
-0.000453777
-0.000286002
-0.000398732
-0.000197548
-0.000316901
-0.000121258
-0.000220548
-6.63184e-05
-0.000128598
-3.21993e-05
-5.65327e-05
-1.30592e-05
-7.61009e-06
-3.42716e-06
2.22366e-05
5.26368e-07
3.76465e-05
1.30357e-06
4.12659e-05
6.74877e-07
3.39912e-05
1.53735e-05
-9.69834e-06
6.03903e-06
-2.95492e-05
3.29202e-05
-5.65502e-05
7.1006e-05
-8.90241e-05
0.000117956
-0.000127072
0.000169758
-0.000169569
0.000223708
-0.000215057
0.000277048
-0.000260808
0.000326065
-0.000304128
0.000367006
-0.00034254
0.000396912
-0.000374525
0.000414537
-0.000399332
0.000420019
-0.000417108
0.000414764
-0.000428616
0.000400834
-0.000435108
0.000380649
-0.000437965
0.000356442
-0.000438513
0.00033008
-0.000437822
0.000302869
-0.000436673
0.000275634
-0.000435549
0.000248783
-0.000434708
0.000222463
-0.000434236
0.000196651
-0.000434127
0.000171253
-0.000434324
0.000146152
-0.000434755
0.000121235
-0.000435351
9.64098e-05
-0.000436063
7.15991e-05
-0.000436855
4.67461e-05
-0.000437714
2.18054e-05
-0.000438641
-3.25595e-06
-0.000439659
-2.84656e-05
-0.000440802
-5.38432e-05
-0.000442123
-7.94074e-05
-0.000443694
-0.000105173
-0.000445612
-0.000131159
-0.000448003
-0.000157391
-0.000451034
-0.000183915
-0.000454922
-0.000210809
-0.000459931
-0.000238208
-0.000466348
-0.000266324
-0.000474408
-0.000295463
-0.000484142
-0.000325997
-0.000495112
-0.000358263
-0.000506045
-0.000392312
-0.000514405
-0.00042746
-0.000516107
-0.00046166
-0.00050563
-0.000490784
-0.00047692
-0.000508237
-0.000425401
-0.000505297
-0.000350995
-0.000473151
-0.000261138
-0.000406769
-0.000171019
-0.000310675
-9.75189e-05
-0.000202087
-4.85786e-05
-0.000105473
-2.05074e-05
-3.56737e-05
-6.0838e-06
7.7997e-06
8.68735e-08
3.14866e-05
1.5883e-06
3.97495e-05
9.2904e-07
3.4665e-05
1.62947e-05
-1.23705e-05
1.82984e-05
-3.586e-05
5.66247e-05
-6.63458e-05
0.000101322
-0.000101717
0.000153446
-0.00014187
0.000209837
-0.000185119
0.000267013
-0.000229596
0.00032149
-0.000272379
0.000368875
-0.000311035
0.000405646
-0.000343569
0.000429462
-0.000369081
0.000440043
-0.000387429
0.000438377
-0.000399346
0.000426679
-0.000406031
0.000407526
-0.000408977
0.000383592
-0.00040957
0.000357038
-0.000408983
0.000329491
-0.000408026
0.000301912
-0.000407207
0.00027481
-0.000406755
0.00024833
-0.00040674
0.000222444
-0.000407118
0.000197024
-0.000407808
0.000171937
-0.000408714
0.000147052
-0.000409756
0.00012227
-0.000410869
9.75151e-05
-0.000412011
7.27323e-05
-0.000413158
4.78834e-05
-0.000414303
2.29401e-05
-0.000415453
-2.1168e-06
-0.000416626
-2.73034e-05
-0.000417851
-5.26294e-05
-0.000419165
-7.81045e-05
-0.000420614
-0.000103733
-0.00042226
-0.000129523
-0.00042418
-0.00015548
-0.000426483
-0.000181622
-0.000429317
-0.000207982
-0.000432894
-0.000234637
-0.000437499
-0.000261725
-0.000443477
-0.000289489
-0.000451174
-0.000318303
-0.000460775
-0.000348664
-0.000472001
-0.000381088
-0.000483657
-0.000415804
-0.000493107
-0.00045221
-0.000495886
-0.000487999
-0.000485806
-0.00051831
-0.000456014
-0.000535078
-0.000401414
-0.000527751
-0.000322459
-0.000485734
-0.000228893
-0.000404257
-0.0001395
-0.000291479
-7.24179e-05
-0.000172546
-3.19151e-05
-7.61593e-05
-1.06699e-05
-1.34619e-05
-1.12686e-06
2.19567e-05
1.62461e-06
3.69823e-05
1.13355e-06
3.51718e-05
1.74211e-05
-1.46937e-05
3.28643e-05
-4.11748e-05
8.33454e-05
-7.43073e-05
0.000134258
-0.000111562
0.000190831
-0.000152589
0.000250774
-0.000195232
0.000309713
-0.000237407
0.000363619
-0.000276246
0.000407739
-0.00030974
0.000439114
-0.000336436
0.000456171
-0.000356054
0.000459647
-0.000369009
0.000451338
-0.000376502
0.000434164
-0.000379978
0.000411005
-0.00038096
0.000384569
-0.000380673
0.000356753
-0.000380032
0.000328846
-0.000379554
0.000301436
-0.000379501
0.000274756
-0.000379911
0.000248743
-0.000380737
0.00022327
-0.000381869
0.00019816
-0.000383205
0.000173276
-0.000384648
0.000148501
-0.000386132
0.00012376
-0.000387608
9.8998e-05
-0.000389052
7.41823e-05
-0.000390449
4.92893e-05
-0.000391806
2.43043e-05
-0.000393131
-7.82488e-07
-0.000394446
-2.59794e-05
-0.000395776
-5.12909e-05
-0.000397149
-7.67224e-05
-0.000398599
-0.000102275
-0.000400162
-0.000127952
-0.000401882
-0.000153752
-0.000403818
-0.00017968
-0.000406052
-0.000205743
-0.000408713
-0.000231972
-0.000411998
-0.000258436
-0.000416203
-0.000285283
-0.000421719
-0.000312786
-0.000428992
-0.000341391
-0.000438346
-0.000371736
-0.000449638
-0.000404513
-0.000461701
-0.000440149
-0.000471693
-0.000478006
-0.000474615
-0.000515386
-0.000463486
-0.000546197
-0.000430684
-0.000560546
-0.000371013
-0.000545405
-0.000286367
-0.000488929
-0.000190163
-0.000387684
-0.000105299
-0.00025743
-4.8556e-05
-0.000132855
-1.79566e-05
-4.4084e-05
-3.61879e-06
7.63166e-06
1.17471e-06
3.21731e-05
1.21272e-06
3.51467e-05
1.86275e-05
-1.64573e-05
4.91863e-05
-4.51136e-05
0.000112265
-7.99503e-05
0.000168885
-0.000118038
0.000229066
-0.000158784
0.000291426
-0.0001997
0.000350696
-0.000238682
0.000402556
-0.000273095
0.000442186
-0.000301431
0.000467429
-0.000322788
0.00047755
-0.000337451
0.000474301
-0.000346289
0.000460191
-0.000350797
0.000438668
-0.000352471
0.000412687
-0.000352702
0.000384797
-0.000352455
0.000356511
-0.00035236
0.000328749
-0.000352681
0.00030176
-0.000353493
0.000275565
-0.000354719
0.00024997
-0.000356256
0.000224804
-0.000357978
0.000199882
-0.000359795
0.000175088
-0.000361625
0.000150328
-0.000363425
0.000125555
-0.000365161
0.00010073
-0.000366823
7.58385e-05
-0.000368408
5.08685e-05
-0.000369926
2.58153e-05
-0.00037139
6.75449e-07
-0.000372823
-2.45536e-05
-0.000374247
-4.9873e-05
-0.00037569
-7.52861e-05
-0.000377178
-0.000100794
-0.000378737
-0.000126399
-0.000380392
-0.000152102
-0.000382173
-0.000177904
-0.000384115
-0.000203804
-0.000386281
-0.000229809
-0.000388777
-0.000255943
-0.000391789
-0.000282272
-0.000395622
-0.000308955
-0.000400715
-0.000336299
-0.000407604
-0.000364848
-0.000416739
-0.000395379
-0.000428067
-0.000428823
-0.000440361
-0.000465711
-0.000450406
-0.000505343
-0.000452466
-0.000544127
-0.000438604
-0.000574399
-0.000400577
-0.000583419
-0.000333734
-0.000555779
-0.000242886
-0.000478552
-0.000146819
-0.00035352
-7.17637e-05
-0.000207885
-2.8404e-05
-8.7427e-05
-7.7315e-06
-1.30491e-05
1.14324e-07
2.43222e-05
1.13292e-06
3.41332e-05
1.97575e-05
-1.75373e-05
6.6579e-05
-4.74796e-05
0.000142481
-8.30713e-05
0.000204251
-0.000121015
0.00026716
-0.000160505
0.000330812
-0.000198883
0.00038914
-0.000234174
0.000437794
-0.000264086
0.000472129
-0.000287632
0.000490946
-0.000304419
0.000494354
-0.000315204
0.000485069
-0.000321164
0.000466159
-0.000323909
0.000441402
-0.000324831
0.000413612
-0.000325094
0.00038505
-0.000325374
0.000356794
-0.000326054
0.000329423
-0.000327202
0.000302909
-0.000328781
0.000277141
-0.000330661
0.000251852
-0.00033273
0.000226872
-0.000334873
0.000202028
-0.000337023
0.000177239
-0.000339119
0.000152429
-0.000341138
0.000127576
-0.000343058
0.000102655
-0.000344881
7.76645e-05
-0.000346606
5.25994e-05
-0.000348249
2.74628e-05
-0.000349824
2.25589e-06
-0.000351353
-2.30191e-05
-0.000352859
-4.83609e-05
-0.000354369
-7.3771e-05
-0.000355906
-9.92508e-05
-0.000357495
-0.000124805
-0.000359154
-0.000150438
-0.000360899
-0.000176155
-0.000362743
-0.000201957
-0.000364704
-0.000227845
-0.00036682
-0.000253824
-0.000369179
-0.000279911
-0.000371957
-0.000306176
-0.000375475
-0.00033278
-0.000380227
-0.000360097
-0.000386848
-0.000388758
-0.000395892
-0.000419784
-0.000407335
-0.000454268
-0.000419737
-0.000492947
-0.000429281
-0.000534578
-0.000429221
-0.000574458
-0.000410573
-0.000602049
-0.000364774
-0.00060157
-0.000288973
-0.000554376
-0.000192866
-0.000449635
-0.00010236
-0.000298437
-4.27076e-05
-0.000147005
-1.35434e-05
-4.22326e-05
-1.63956e-06
1.24155e-05
9.15147e-07
3.15784e-05
2.06725e-05
-1.78574e-05
8.4292e-05
-4.81714e-05
0.000173077
-8.36074e-05
0.000239461
-0.000120539
0.00030425
-0.000158002
0.000368172
-0.000193314
0.000424526
-0.000224736
0.000469164
-0.00025037
0.000497805
-0.000269718
0.00051027
-0.000282823
0.000507485
-0.000290787
0.000493023
-0.000294941
0.000470331
-0.00029686
0.000443315
-0.000297732
0.000414496
-0.00029846
0.000385775
-0.000299462
0.000357804
-0.000300927
0.000330886
-0.000302802
0.000304789
-0.000304997
0.000279335
-0.00030737
0.000254227
-0.000309825
0.000229326
-0.000312271
0.000204475
-0.000314664
0.000179628
-0.000316961
0.000154726
-0.000319152
0.000129764
-0.000321225
0.000104726
-0.000323184
7.96196e-05
-0.000325032
5.44446e-05
-0.000326785
2.92106e-05
-0.000328455
3.92224e-06
-0.000330065
-2.14135e-05
-0.000331636
-4.67931e-05
-0.000333196
-7.22156e-05
-0.000334768
-9.76825e-05
-0.000336377
-0.0001232
-0.000338041
-0.000148777
-0.000339776
-0.000174423
-0.000341587
-0.000200148
-0.000343476
-0.000225958
-0.000345443
-0.000251858
-0.000347509
-0.000277845
-0.000349744
-0.000303942
-0.000352322
-0.000330201
-0.000355587
-0.000356834
-0.000360105
-0.000384238
-0.000366617
-0.000413276
-0.000375765
-0.000445117
-0.00038745
-0.00048127
-0.0003998
-0.000522225
-0.000408056
-0.000566206
-0.000404191
-0.000605897
-0.000378171
-0.000627577
-0.000321982
-0.000610556
-0.000236385
-0.000535271
-0.000138943
-0.000395898
-6.19763e-05
-0.000223976
-2.10396e-05
-8.3096e-05
-4.18791e-06
-4.4898e-06
5.94286e-07
2.68106e-05
2.12647e-05
-1.74275e-05
0.000101574
-4.72473e-05
0.000203174
-8.17199e-05
0.000273705
-0.000116936
0.000339621
-0.00015183
0.000402956
-0.000183814
0.000456581
-0.000211439
0.000496731
-0.00023321
0.000519612
-0.00024905
0.000526077
-0.00025934
0.000517795
-0.000265396
0.000499057
-0.000268565
0.000473509
-0.000270282
0.000445016
-0.000271492
0.000415709
-0.000272851
0.000387122
-0.000274572
0.000359527
-0.000276715
0.000333021
-0.000279162
0.000307238
-0.000281814
0.000281981
-0.000284538
0.000256953
-0.000287266
0.000232051
-0.000289929
0.00020714
-0.000292501
0.0001822
-0.000294956
0.000157183
-0.000297289
0.000132098
-0.000299492
0.000106932
-0.000301571
8.17003e-05
-0.000303529
5.64061e-05
-0.00030538
3.10644e-05
-0.000307137
5.68323e-06
-0.000308822
-1.97261e-05
-0.000310454