/*--------------------------------*- C++ -*----------------------------------*\
| =========                 |                                                 |
| \\      /  F ield         | OpenFOAM: The Open Source CFD Toolbox           |
|  \\    /   O peration     | Version:  2406                                  |
|   \\  /    A nd           | Website:  www.openfoam.com                      |
|    \\/     M anipulation  |                                                 |
\*---------------------------------------------------------------------------*/
FoamFile
{
    version     2.0;
    format      ascii;
    arch        "LSB;label=32;scalar=64";
    class       volVectorField;
    location    "46.6";
    object      U;
}
// * * * * * * * * * * * * * * * * * * * * * * * * * * * * * * * * * * * * * //

dimensions      [0 1 -1 0 0 0 0];

internalField   nonuniform List<vector> 
3600
(
(-2.801e-06 -7.50503e-06 0)
(0.000477844 -0.000256739 0)
(0.00150301 -0.000388464 0)
(0.00264279 -0.000407218 0)
(0.00371925 -0.000326307 0)
(0.00448807 -0.000216526 0)
(0.00497289 -0.000113749 0)
(0.0051808 -4.82903e-05 0)
(0.00523253 -1.97286e-05 0)
(0.00518225 -1.77626e-05 0)
(0.00508017 -2.18077e-05 0)
(0.0048986 -1.48895e-05 0)
(0.00458705 1.48317e-05 0)
(0.00405889 7.15277e-05 0)
(0.00322743 0.000156066 0)
(0.00199903 0.000268743 0)
(0.000286276 0.000411244 0)
(-0.00199565 0.000582897 0)
(-0.0049205 0.000776212 0)
(-0.00854865 0.000979661 0)
(-0.0129141 0.00118826 0)
(-0.0180088 0.00140815 0)
(-0.0237636 0.00164638 0)
(-0.0300345 0.00189313 0)
(-0.0365947 0.00211284 0)
(-0.0431385 0.00225142 0)
(-0.0492986 0.00225341 0)
(-0.0546759 0.00207753 0)
(-0.0588728 0.00170486 0)
(-0.0615265 0.00113996 0)
(-0.0623357 0.000408212 0)
(-0.0610841 -0.000447861 0)
(-0.0576588 -0.00137201 0)
(-0.0520663 -0.00229735 0)
(-0.0444459 -0.00314968 0)
(-0.0350775 -0.00385201 0)
(-0.0243828 -0.00433092 0)
(-0.0129127 -0.00452506 0)
(-0.00131968 -0.0043954 0)
(0.00969072 -0.00393576 0)
(0.0194246 -0.00318082 0)
(0.0272812 -0.00220875 0)
(0.0328283 -0.00113449 0)
(0.0358719 -9.31881e-05 0)
(0.0364805 0.000786861 0)
(0.0349795 0.00141248 0)
(0.0318777 0.00174971 0)
(0.027781 0.00182577 0)
(0.0232669 0.00171332 0)
(0.0188159 0.00149554 0)
(0.01474 0.00124283 0)
(0.0112186 0.000997093 0)
(0.00828394 0.000781979 0)
(0.00592486 0.000602822 0)
(0.00404063 0.000464656 0)
(0.00257928 0.000356023 0)
(0.00142094 0.00027207 0)
(0.000589876 0.000172472 0)
(5.02514e-05 5.76153e-05 0)
(-7.59791e-05 -8.07923e-05 0)
(0.000216349 -0.000457391 0)
(0.00149659 -0.00155064 0)
(0.00366318 -0.00209344 0)
(0.00593864 -0.00212256 0)
(0.00802625 -0.0017245 0)
(0.00949784 -0.00115515 0)
(0.0103456 -0.000585513 0)
(0.0105441 -0.000138627 0)
(0.0102424 0.000171542 0)
(0.00949056 0.000393716 0)
(0.0083175 0.000618288 0)
(0.00662059 0.000931176 0)
(0.00424486 0.00139318 0)
(0.000971527 0.00203275 0)
(-0.00342085 0.00285597 0)
(-0.00915237 0.00385441 0)
(-0.0164069 0.00500764 0)
(-0.0253175 0.00628452 0)
(-0.0359198 0.00764555 0)
(-0.0481073 0.00903481 0)
(-0.0615919 0.0103622 0)
(-0.0759094 0.0114975 0)
(-0.0904585 0.0122908 0)
(-0.104571 0.012603 0)
(-0.117586 0.0123308 0)
(-0.128911 0.011418 0)
(-0.138053 0.0098578 0)
(-0.144631 0.00768704 0)
(-0.14837 0.0049789 0)
(-0.14909 0.00183477 0)
(-0.146696 -0.00162145 0)
(-0.141176 -0.00524658 0)
(-0.132595 -0.00887927 0)
(-0.121108 -0.0123408 0)
(-0.106968 -0.0154376 0)
(-0.0905357 -0.0179676 0)
(-0.0722905 -0.019733 0)
(-0.0528319 -0.0205592 0)
(-0.0328709 -0.0203204 0)
(-0.0132022 -0.0189676 0)
(0.00533807 -0.0165539 0)
(0.021937 -0.0132483 0)
(0.0358714 -0.00933096 0)
(0.0465875 -0.00516636 0)
(0.0537505 -0.00115289 0)
(0.0573005 0.00233742 0)
(0.0574483 0.00502555 0)
(0.0546826 0.00676808 0)
(0.0496851 0.0075805 0)
(0.0432722 0.00760777 0)
(0.0362255 0.00707875 0)
(0.0292377 0.00622867 0)
(0.0227595 0.00526293 0)
(0.0170906 0.00431548 0)
(0.0122745 0.00347629 0)
(0.00834419 0.00275473 0)
(0.00514436 0.00214325 0)
(0.00272541 0.00151794 0)
(0.000964004 0.000853309 0)
(0.000106159 7.63682e-05 0)
(0.00035617 -0.00143377 0)
(0.00213577 -0.00374453 0)
(0.00495942 -0.00481096 0)
(0.00774176 -0.00472735 0)
(0.0101303 -0.00376183 0)
(0.0116098 -0.00239241 0)
(0.0121668 -0.000987382 0)
(0.0117422 0.000224429 0)
(0.01045 0.00121265 0)
(0.00826645 0.0020947 0)
(0.00512145 0.0030653 0)
(0.000789522 0.00431382 0)
(-0.00500759 0.00596803 0)
(-0.0125966 0.00808243 0)
(-0.0222696 0.010649 0)
(-0.0342547 0.0136126 0)
(-0.0486303 0.0168706 0)
(-0.0652528 0.0202561 0)
(-0.083696 0.0235157 0)
(-0.103282 0.0263281 0)
(-0.123176 0.0283707 0)
(-0.142528 0.0293918 0)
(-0.160575 0.0292481 0)
(-0.176712 0.0279027 0)
(-0.190494 0.0254001 0)
(-0.201624 0.0218368 0)
(-0.209914 0.0173394 0)
(-0.215256 0.0120505 0)
(-0.217592 0.00612243 0)
(-0.216896 -0.0002831 0)
(-0.213161 -0.00699204 0)
(-0.206401 -0.0138121 0)
(-0.196657 -0.0205261 0)
(-0.184007 -0.0268864 0)
(-0.168594 -0.0326135 0)
(-0.15064 -0.0374017 0)
(-0.130474 -0.0409351 0)
(-0.108553 -0.0429152 0)
(-0.0854623 -0.0431011 0)
(-0.0619155 -0.0413554 0)
(-0.0387197 -0.0376902 0)
(-0.0167224 -0.0322965 0)
(0.00325387 -0.0255484 0)
(0.0204912 -0.0179709 0)
(0.034429 -0.0101777 0)
(0.0447181 -0.00279159 0)
(0.0512219 0.00363816 0)
(0.0540522 0.00869789 0)
(0.0535392 0.0121634 0)
(0.050264 0.014015 0)
(0.044949 0.0144384 0)
(0.0384356 0.0137613 0)
(0.0314593 0.0123846 0)
(0.0246752 0.0106748 0)
(0.0184296 0.00892611 0)
(0.0130102 0.00728379 0)
(0.00838055 0.00579224 0)
(0.00471568 0.00429559 0)
(0.00186684 0.00268673 0)
(0.000300639 0.000779524 0)
(0.000450531 -0.00264323 0)
(0.00252928 -0.00628183 0)
(0.00561928 -0.00775167 0)
(0.00838372 -0.00730379 0)
(0.0104483 -0.00550116 0)
(0.0112786 -0.00306296 0)
(0.0108827 -0.000547749 0)
(0.00916468 0.00175271 0)
(0.00615536 0.00383456 0)
(0.00169126 0.00592085 0)
(-0.0044597 0.00832493 0)
(-0.0126733 0.0113272 0)
(-0.0233238 0.0150828 0)
(-0.0367436 0.0196089 0)
(-0.0530897 0.0247926 0)
(-0.0722566 0.0303896 0)
(-0.0937772 0.036004 0)
(-0.116853 0.0411218 0)
(-0.140489 0.0452208 0)
(-0.163698 0.0478968 0)
(-0.18565 0.048926 0)
(-0.205741 0.0482561 0)
(-0.223579 0.0459575 0)
(-0.238939 0.0421718 0)
(-0.251708 0.0370705 0)
(-0.26184 0.0308307 0)
(-0.269322 0.0236227 0)
(-0.274151 0.0156072 0)
(-0.276318 0.00693877 0)
(-0.275805 -0.00222638 0)
(-0.272574 -0.0117197 0)
(-0.266579 -0.0213477 0)
(-0.25777 -0.0308786 0)
(-0.246109 -0.0400309 0)
(-0.231589 -0.0484669 0)
(-0.214264 -0.0557946 0)
(-0.194279 -0.0615834 0)
(-0.171907 -0.065397 0)
(-0.147579 -0.0668455 0)
(-0.121899 -0.0656518 0)
(-0.095638 -0.0617234 0)
(-0.0696904 -0.0552083 0)
(-0.0449964 -0.0465169 0)
(-0.0224378 -0.0362887 0)
(-0.0027446 -0.0253101 0)
(0.0135785 -0.0144011 0)
(0.0262468 -0.00431028 0)
(0.0351906 0.00435318 0)
(0.0404917 0.0111626 0)
(0.0424278 0.0158905 0)
(0.0414216 0.0185384 0)
(0.0381158 0.0193253 0)
(0.0331999 0.0186565 0)
(0.0274578 0.0170185 0)
(0.0214555 0.0148881 0)
(0.0157574 0.0126024 0)
(0.0105312 0.0103281 0)
(0.00616126 0.00795869 0)
(0.00256466 0.00528016 0)
(0.000456574 0.00192668 0)
(0.000512307 -0.00407795 0)
(0.0027223 -0.00907692 0)
(0.00574591 -0.0107273 0)
(0.00804687 -0.00955739 0)
(0.00924583 -0.00654989 0)
(0.00883674 -0.00268834 0)
(0.00685175 0.00129633 0)
(0.0031462 0.00511503 0)
(-0.0023748 0.00885119 0)
(-0.0100493 0.0128727 0)
(-0.020273 0.0175997 0)
(-0.0335004 0.0233404 0)
(-0.0500333 0.0301632 0)
(-0.0699215 0.03788 0)
(-0.0928026 0.0460407 0)
(-0.117895 0.053983 0)
(-0.144108 0.0609602 0)
(-0.170305 0.0663309 0)
(-0.195513 0.0696846 0)
(-0.219037 0.0708594 0)
(-0.240443 0.0698859 0)
(-0.259504 0.0669163 0)
(-0.276124 0.062162 0)
(-0.290291 0.0558518 0)
(-0.302031 0.0482058 0)
(-0.311391 0.0394228 0)
(-0.318416 0.0296774 0)
(-0.323147 0.0191232 0)
(-0.325602 0.00790036 0)
(-0.325778 -0.00385331 0)
(-0.323638 -0.0159886 0)
(-0.319114 -0.0283284 0)
(-0.312102 -0.0406502 0)
(-0.30247 -0.0526677 0)
(-0.290073 -0.0640166 0)
(-0.274777 -0.0742469 0)
(-0.256494 -0.0828309 0)
(-0.235235 -0.0891907 0)
(-0.21117 -0.092754 0)
(-0.184681 -0.0930367 0)
(-0.156406 -0.0897455 0)
(-0.127243 -0.0828802 0)
(-0.0982869 -0.0728027 0)
(-0.070708 -0.0602353 0)
(-0.045582 -0.0461706 0)
(-0.0237187 -0.0317022 0)
(-0.00558358 -0.0178443 0)
(0.00869352 -0.00540865 0)
(0.0191813 0.00503126 0)
(0.0260917 0.0131167 0)
(0.0296885 0.0186998 0)
(0.0303998 0.0218474 0)
(0.0287212 0.0228542 0)
(0.025345 0.0221912 0)
(0.0208626 0.0204087 0)
(0.0159805 0.0179962 0)
(0.0110379 0.0152458 0)
(0.00662931 0.0121471 0)
(0.00281045 0.00837698 0)
(0.000508604 0.00337129 0)
(0.00056145 -0.00558505 0)
(0.00273528 -0.0117462 0)
(0.00531433 -0.0131743 0)
(0.00667055 -0.0108201 0)
(0.00645233 -0.00619932 0)
(0.00423085 -0.000552616 0)
(3.59781e-05 0.00528037 0)
(-0.00635805 0.0111069 0)
(-0.015215 0.0171589 0)
(-0.0270328 0.0239434 0)
(-0.0422672 0.0318906 0)
(-0.0612233 0.0411582 0)
(-0.083794 0.0514857 0)
(-0.10939 0.0622276 0)
(-0.136955 0.0724729 0)
(-0.165221 0.0812937 0)
(-0.192991 0.0879702 0)
(-0.21935 0.0921057 0)
(-0.243698 0.0935954 0)
(-0.265706 0.0925438 0)
(-0.285228 0.0891736 0)
(-0.302242 0.0837611 0)
(-0.316799 0.0765913 0)
(-0.328998 0.0679335 0)
(-0.338963 0.058027 0)
(-0.34683 0.0470759 0)
(-0.352733 0.0352482 0)
(-0.356792 0.0226808 0)
(-0.359101 0.00948627 0)
(-0.359713 -0.00423433 0)
(-0.358638 -0.0183775 0)
(-0.355824 -0.0328179 0)
(-0.351156 -0.0473871 0)
(-0.344446 -0.0618485 0)
(-0.335439 -0.0758731 0)
(-0.323822 -0.0890187 0)
(-0.309254 -0.10072 0)
(-0.291419 -0.1103 0)
(-0.270097 -0.117007 0)
(-0.245263 -0.120102 0)
(-0.21719 -0.118976 0)
(-0.186537 -0.113299 0)
(-0.154373 -0.103174 0)
(-0.122113 -0.0892179 0)
(-0.0913238 -0.0725433 0)
(-0.0634369 -0.0545763 0)
(-0.0394692 -0.0367709 0)
(-0.0198599 -0.0203255 0)
(-0.00456752 -0.00604625 0)
(0.00673948 0.00561478 0)
(0.0144255 0.0144582 0)
(0.0189024 0.0204709 0)
(0.020555 0.0238333 0)
(0.0199405 0.0249247 0)
(0.0175692 0.0242593 0)
(0.0141548 0.0223829 0)
(0.0101291 0.0196566 0)
(0.00622783 0.0161535 0)
(0.0026648 0.0114513 0)
(0.000478638 0.00482111 0)
(0.000579533 -0.00712892 0)
(0.00248935 -0.0140766 0)
(0.00419467 -0.0147497 0)
(0.00412215 -0.010687 0)
(0.00197308 -0.00401113 0)
(-0.00257619 0.00383065 0)
(-0.00955198 0.0119833 0)
(-0.0192868 0.0204362 0)
(-0.0322017 0.0295782 0)
(-0.04882 0.0399488 0)
(-0.0694049 0.0517673 0)
(-0.0937745 0.0647607 0)
(-0.121146 0.078115 0)
(-0.150284 0.0907202 0)
(-0.179786 0.101481 0)
(-0.208423 0.109606 0)
(-0.235295 0.114691 0)
(-0.259845 0.116672 0)
(-0.28178 0.115703 0)
(-0.300994 0.112069 0)
(-0.317508 0.106111 0)
(-0.331438 0.0981858 0)
(-0.34296 0.088631 0)
(-0.352294 0.0777514 0)
(-0.359677 0.065804 0)
(-0.365348 0.052995 0)
(-0.369531 0.0394798 0)
(-0.37242 0.0253696 0)
(-0.374173 0.0107403 0)
(-0.374902 -0.00435451 0)
(-0.374663 -0.019869 0)
(-0.37345 -0.0357461 0)
(-0.371175 -0.051896 0)
(-0.367665 -0.0681694 0)
(-0.362637 -0.084327 0)
(-0.355696 -0.100007 0)
(-0.346338 -0.114696 0)
(-0.333973 -0.127712 0)
(-0.317988 -0.138212 0)
(-0.29785 -0.145241 0)
(-0.273249 -0.147846 0)
(-0.24427 -0.145233 0)
(-0.211548 -0.136992 0)
(-0.176354 -0.123302 0)
(-0.140524 -0.105072 0)
(-0.106191 -0.0838866 0)
(-0.0753344 -0.061726 0)
(-0.0492944 -0.040496 0)
(-0.0285338 -0.0215991 0)
(-0.0127485 -0.00578419 0)
(-0.00131744 0.00670785 0)
(0.00642761 0.0159073 0)
(0.0109987 0.0219991 0)
(0.0129414 0.0253128 0)
(0.0127121 0.0262971 0)
(0.0109728 0.0254797 0)
(0.0081878 0.0232211 0)
(0.00514696 0.0196305 0)
(0.00219846 0.0142057 0)
(0.000379446 0.00611308 0)
(0.000543885 -0.00851985 0)
(0.00188641 -0.0156235 0)
(0.00222857 -0.014891 0)
(0.000246196 -0.00858077 0)
(-0.00430676 0.000578667 0)
(-0.0116387 0.0110354 0)
(-0.0218935 0.0220264 0)
(-0.0354892 0.0337553 0)
(-0.0528932 0.0466641 0)
(-0.0743962 0.0610841 0)
(-0.0997645 0.0767324 0)
(-0.12813 0.0927198 0)
(-0.158124 0.107752 0)
(-0.188248 0.120583 0)
(-0.217206 0.130312 0)
(-0.244072 0.136505 0)
(-0.268274 0.139103 0)
(-0.289518 0.138307 0)
(-0.307716 0.134464 0)
(-0.32294 0.128 0)
(-0.335378 0.119363 0)
(-0.345305 0.108984 0)
(-0.353044 0.09725 0)
(-0.358933 0.0844848 0)
(-0.363303 0.070943 0)
(-0.366456 0.0568109 0)
(-0.368659 0.0422118 0)
(-0.370134 0.0272175 0)
(-0.37106 0.0118588 0)
(-0.371574 -0.00386066 0)
(-0.371766 -0.0199523 0)
(-0.371675 -0.0364265 0)
(-0.371278 -0.0532762 0)
(-0.370473 -0.0704533 0)
(-0.369053 -0.0878412 0)
(-0.366677 -0.105217 0)
(-0.362844 -0.122212 0)
(-0.356877 -0.138262 0)
(-0.347935 -0.152581 0)
(-0.335076 -0.164156 0)
(-0.317382 -0.171796 0)
(-0.294157 -0.174263 0)
(-0.265189 -0.170494 0)
(-0.231006 -0.159897 0)
(-0.193057 -0.142668 0)
(-0.153668 -0.120004 0)
(-0.115694 -0.094057 0)
(-0.0818374 -0.0675052 0)
(-0.0538983 -0.0428311 0)
(-0.0323404 -0.0216665 0)
(-0.0165711 -0.004632 0)
(-0.00554169 0.00832475 0)
(0.00166615 0.0175364 0)
(0.00583066 0.0234197 0)
(0.00750572 0.0264274 0)
(0.00734661 0.0270576 0)
(0.00584522 0.0256325 0)
(0.00378502 0.0222491 0)
(0.00160922 0.0163551 0)
(0.000260041 0.00708934 0)
(0.00041999 -0.00957349 0)
(0.000826529 -0.0159985 0)
(-0.000686834 -0.013171 0)
(-0.00499349 -0.00411845 0)
(-0.0123267 0.00792451 0)
(-0.0227822 0.0214293 0)
(-0.036654 0.0357953 0)
(-0.054335 0.051359 0)
(-0.0761293 0.068383 0)
(-0.101816 0.0866956 0)
(-0.130524 0.105346 0)
(-0.160817 0.12293 0)
(-0.191108 0.138012 0)
(-0.22001 0.149558 0)
(-0.246531 0.157048 0)
(-0.270049 0.16041 0)
(-0.290253 0.159873 0)
(-0.307075 0.155861 0)
(-0.320648 0.148899 0)
(-0.33125 0.139547 0)
(-0.339263 0.128345 0)
(-0.345112 0.115775 0)
(-0.349226 0.102233 0)
(-0.352002 0.0880263 0)
(-0.35379 0.0733708 0)
(-0.354879 0.0584068 0)
(-0.355508 0.0432097 0)
(-0.355864 0.027807 0)
(-0.356096 0.0121892 0)
(-0.35632 -0.00367608 0)
(-0.356628 -0.0198362 0)
(-0.357084 -0.0363424 0)
(-0.357723 -0.0532412 0)
(-0.358533 -0.0705592 0)
(-0.359436 -0.0882854 0)
(-0.360248 -0.106341 0)
(-0.360635 -0.12454 0)
(-0.360063 -0.142533 0)
(-0.357751 -0.159747 0)
(-0.352657 -0.175324 0)
(-0.343524 -0.188093 0)
(-0.329017 -0.196606 0)
(-0.307977 -0.199283 0)
(-0.279778 -0.194684 0)
(-0.24473 -0.181924 0)
(-0.204396 -0.161125 0)
(-0.161631 -0.133777 0)
(-0.120139 -0.102717 0)
(-0.0835148 -0.0715193 0)
(-0.0540766 -0.0433898 0)
(-0.032263 -0.0201802 0)
(-0.0170256 -0.00228275 0)
(-0.00691255 0.0107681 0)
(-0.00062774 0.0196458 0)
(0.00272641 0.0249787 0)
(0.00394289 0.0273157 0)
(0.00360066 0.0269702 0)
(0.00246743 0.0240122 0)
(0.00104815 0.0178838 0)
(0.000151627 0.00775806 0)
(0.000178035 -0.00998644 0)
(-0.0007501 -0.014707 0)
(-0.00456504 -0.0091166 0)
(-0.0115112 0.00309168 0)
(-0.0218813 0.0183686 0)
(-0.0356443 0.0353159 0)
(-0.0532136 0.0534777 0)
(-0.0747646 0.073114 0)
(-0.100223 0.0940281 0)
(-0.128721 0.11537 0)
(-0.158874 0.135616 0)
(-0.188992 0.153169 0)
(-0.217606 0.166788 0)
(-0.243603 0.175829 0)
(-0.266306 0.180161 0)
(-0.285367 0.180039 0)
(-0.300746 0.175962 0)
(-0.312637 0.168573 0)
(-0.321424 0.158564 0)
(-0.327591 0.146601 0)
(-0.331666 0.133266 0)
(-0.334151 0.119035 0)
(-0.335497 0.104259 0)
(-0.33607 0.0891814 0)
(-0.336164 0.0739514 0)
(-0.335994 0.0586451 0)
(-0.335724 0.0432846 0)
(-0.335472 0.0278564 0)
(-0.335328 0.0123218 0)
(-0.335368 -0.00337177 0)
(-0.335661 -0.0192863 0)
(-0.336271 -0.0354872 0)
(-0.337261 -0.0520413 0)
(-0.338682 -0.0690099 0)
(-0.340562 -0.0864433 0)
(-0.342877 -0.104363 0)
(-0.34551 -0.122737 0)
(-0.348191 -0.141436 0)
(-0.350422 -0.160167 0)
(-0.351399 -0.178384 0)
(-0.349959 -0.195203 0)
(-0.344583 -0.209319 0)
(-0.333531 -0.219018 0)
(-0.315126 -0.22231 0)
(-0.288228 -0.217267 0)
(-0.25281 -0.202566 0)
(-0.210473 -0.178161 0)
(-0.164618 -0.145849 0)
(-0.11993 -0.109327 0)
(-0.0810244 -0.0733253 0)
(-0.050761 -0.0419049 0)
(-0.0293463 -0.0170668 0)
(-0.0152013 0.00123165 0)
(-0.00635474 0.0139316 0)
(-0.00128212 0.0220551 0)
(0.00117868 0.0263797 0)
(0.00182428 0.0273265 0)
(0.00145995 0.0249826 0)
(0.00064768 0.0188431 0)
(8.3715e-05 0.00816071 0)
(-0.000201053 -0.00946229 0)
(-0.00283301 -0.011364 0)
(-0.0092771 -0.00244285 0)
(-0.0190282 0.0132186 0)
(-0.0325202 0.0319994 0)
(-0.0495468 0.0526646 0)
(-0.0705474 0.0747791 0)
(-0.0952764 0.0982575 0)
(-0.123177 0.122257 0)
(-0.152811 0.145292 0)
(-0.182556 0.165556 0)
(-0.210764 0.181584 0)
(-0.236252 0.19252 0)
(-0.258211 0.198142 0)
(-0.276281 0.198697 0)
(-0.290416 0.194761 0)
(-0.300892 0.187099 0)
(-0.308171 0.176553 0)
(-0.312853 0.163926 0)
(-0.315546 0.149917 0)
(-0.316827 0.135076 0)
(-0.317171 0.119804 0)
(-0.316958 0.10436 0)
(-0.316458 0.0888962 0)
(-0.315858 0.0734817 0)
(-0.315277 0.0581305 0)
(-0.314792 0.0428206 0)
(-0.314449 0.0275117 0)
(-0.314285 0.0121517 0)
(-0.314332 -0.00331473 0)
(-0.314633 -0.0189461 0)
(-0.315237 -0.0348004 0)
(-0.316208 -0.0509385 0)
(-0.31762 -0.0674219 0)
(-0.319553 -0.0843153 0)
(-0.322079 -0.101681 0)
(-0.325238 -0.119571 0)
(-0.328993 -0.138002 0)
(-0.333169 -0.156916 0)
(-0.337357 -0.1761 0)
(-0.340805 -0.195082 0)
(-0.342308 -0.212989 0)
(-0.340173 -0.228423 0)
(-0.332299 -0.239403 0)
(-0.316492 -0.243481 0)
(-0.291033 -0.238132 0)
(-0.255461 -0.221457 0)
(-0.211355 -0.193154 0)
(-0.162703 -0.155397 0)
(-0.115306 -0.113019 0)
(-0.0749138 -0.0722138 0)
(-0.044757 -0.0379842 0)
(-0.0245567 -0.012181 0)
(-0.0119854 0.00584834 0)
(-0.00469987 0.0176253 0)
(-0.000896936 0.0243968 0)
(0.000637828 0.0269043 0)
(0.000870195 0.0253731 0)
(0.00045835 0.0194297 0)
(6.42559e-05 0.00842688 0)
(-0.000717236 -0.00767798 0)
(-0.00534239 -0.00563168 0)
(-0.0145928 0.00705055 0)
(-0.0271561 0.0263402 0)
(-0.0436665 0.0487813 0)
(-0.0636546 0.0732338 0)
(-0.0874701 0.0990914 0)
(-0.114319 0.125697 0)
(-0.143217 0.151557 0)
(-0.172363 0.17477 0)
(-0.200179 0.193572 0)
(-0.225224 0.206845 0)
(-0.246666 0.214192 0)
(-0.26401 0.215814 0)
(-0.277258 0.212339 0)
(-0.286686 0.204659 0)
(-0.292871 0.193772 0)
(-0.296476 0.180639 0)
(-0.298213 0.166085 0)
(-0.298694 0.150748 0)
(-0.298435 0.135076 0)
(-0.297802 0.119347 0)
(-0.297052 0.10371 0)
(-0.296331 0.0882235 0)
(-0.295724 0.0728857 0)
(-0.295261 0.0576657 0)
(-0.294956 0.0425151 0)
(-0.294806 0.0273825 0)
(-0.294814 0.0122153 0)
(-0.294986 -0.003035 0)
(-0.295345 -0.0184153 0)
(-0.295925 -0.0339691 0)
(-0.29678 -0.049742 0)
(-0.297979 -0.0657808 0)
(-0.299611 -0.0821404 0)
(-0.301776 -0.0988838 0)
(-0.304584 -0.116086 0)
(-0.308126 -0.133829 0)
(-0.312442 -0.15218 0)
(-0.317452 -0.171156 0)
(-0.322851 -0.190638 0)
(-0.327971 -0.210241 0)
(-0.331634 -0.229133 0)
(-0.332032 -0.245837 0)
(-0.326772 -0.2581 0)
(-0.313171 -0.262964 0)
(-0.288917 -0.257194 0)
(-0.253079 -0.238203 0)
(-0.207216 -0.20539 0)
(-0.156012 -0.161501 0)
(-0.106571 -0.112907 0)
(-0.0657894 -0.0676677 0)
(-0.036933 -0.0315156 0)
(-0.0187367 -0.00578047 0)
(-0.00816908 0.01117 0)
(-0.00256542 0.0212422 0)
(-5.59399e-05 0.0257794 0)
(0.000674368 0.0253509 0)
(0.000475108 0.0198241 0)
(9.17415e-05 0.00867032 0)
(-0.00134152 -0.00439682 0)
(-0.00811039 0.00263531 0)
(-0.0201558 0.0193358 0)
(-0.0353574 0.0422805 0)
(-0.0545719 0.0683604 0)
(-0.076966 0.0963801 0)
(-0.102718 0.125383 0)
(-0.130473 0.154042 0)
(-0.158991 0.18037 0)
(-0.186332 0.202336 0)
(-0.21116 0.218468 0)
(-0.232315 0.2281 0)
(-0.249348 0.231319 0)
(-0.262104 0.228756 0)
(-0.270959 0.221414 0)
(-0.276477 0.21045 0)
(-0.27945 0.197002 0)
(-0.280617 0.18204 0)
(-0.280675 0.166307 0)
(-0.280136 0.150309 0)
(-0.279386 0.134347 0)
(-0.278643 0.118567 0)
(-0.278037 0.103013 0)
(-0.277607 0.087671 0)
(-0.277362 0.0724937 0)
(-0.277275 0.0574265 0)
(-0.277327 0.0424136 0)
(-0.277488 0.0274057 0)
(-0.27775 0.0123588 0)
(-0.278105 -0.00276355 0)
(-0.278568 -0.017994 0)
(-0.279158 -0.03336 0)
(-0.279917 -0.0488898 0)
(-0.280897 -0.064611 0)
(-0.282171 -0.080559 0)
(-0.283831 -0.0967783 0)
(-0.285994 -0.113333 0)
(-0.28879 -0.130309 0)
(-0.292356 -0.147818 0)
(-0.296798 -0.165984 0)
(-0.302126 -0.184905 0)
(-0.308141 -0.20456 0)
(-0.314272 -0.224663 0)
(-0.319378 -0.244423 0)
(-0.321579 -0.262276 0)
(-0.318226 -0.275664 0)
(-0.306181 -0.281039 0)
(-0.282569 -0.27436 0)
(-0.246023 -0.252251 0)
(-0.19819 -0.213899 0)
(-0.144672 -0.162964 0)
(-0.0941149 -0.108047 0)
(-0.0544321 -0.0592844 0)
(-0.0281768 -0.0227274 0)
(-0.0127078 0.00172099 0)
(-0.00441634 0.0165203 0)
(-0.000572065 0.0238978 0)
(0.000712912 0.0250344 0)
(0.000630827 0.0201947 0)
(0.000151429 0.00900404 0)
(-0.00202602 0.000532915 0)
(-0.0109378 0.013446 0)
(-0.0255965 0.0342593 0)
(-0.0431099 0.0607495 0)
(-0.0645384 0.0902627 0)
(-0.088607 0.121361 0)
(-0.115304 0.152627 0)
(-0.142802 0.182101 0)
(-0.169808 0.207552 0)
(-0.194426 0.227071 0)
(-0.215672 0.239644 0)
(-0.232697 0.2451 0)
(-0.245458 0.244029 0)
(-0.25414 0.237479 0)
(-0.25945 0.226778 0)
(-0.262134 0.213239 0)
(-0.263073 0.198018 0)
(-0.262952 0.181983 0)
(-0.26236 0.165722 0)
(-0.261647 0.149567 0)
(-0.261051 0.133672 0)
(-0.260652 0.118068 0)
(-0.260485 0.102722 0)
(-0.260514 0.087577 0)
(-0.26071 0.0725662 0)
(-0.261021 0.0576305 0)
(-0.261419 0.0427193 0)
(-0.26187 0.0277923 0)
(-0.262367 0.0128165 0)
(-0.2629 -0.00223287 0)
(-0.263483 -0.0173773 0)
(-0.264127 -0.0326328 0)
(-0.264862 -0.0480152 0)
(-0.265723 -0.0635381 0)
(-0.266763 -0.0792196 0)
(-0.268044 -0.095083 0)
(-0.269657 -0.111168 0)
(-0.271714 -0.127535 0)
(-0.274361 -0.144282 0)
(-0.277766 -0.161551 0)
(-0.282094 -0.17952 0)
(-0.287438 -0.198371 0)
(-0.293702 -0.218191 0)
(-0.300404 -0.238788 0)
(-0.306436 -0.259394 0)
(-0.309826 -0.278311 0)
(-0.307667 -0.292582 0)
(-0.296383 -0.297961 0)
(-0.272583 -0.289458 0)
(-0.234599 -0.262915 0)
(-0.18441 -0.217504 0)
(-0.12894 -0.15858 0)
(-0.0786248 -0.0977278 0)
(-0.0418852 -0.0473168 0)
(-0.0194691 -0.012205 0)
(-0.00721037 0.0094357 0)
(-0.00135971 0.0209379 0)
(0.000742896 0.02437 0)
(0.000825059 0.0205957 0)
(0.000223615 0.00948023 0)
(-0.00270086 0.00710821 0)
(-0.013584 0.0266055 0)
(-0.0305077 0.0514638 0)
(-0.049869 0.0812327 0)
(-0.0728867 0.113761 0)
(-0.0978151 0.147206 0)
(-0.124497 0.179685 0)
(-0.150771 0.208743 0)
(-0.175474 0.232167 0)
(-0.196869 0.248354 0)
(-0.214375 0.25684 0)
(-0.227463 0.257963 0)
(-0.236496 0.252814 0)
(-0.24194 0.2428 0)
(-0.244736 0.229465 0)
(-0.245679 0.214145 0)
(-0.245621 0.197898 0)
(-0.245098 0.181409 0)
(-0.244549 0.165077 0)
(-0.244151 0.149064 0)
(-0.244019 0.1334 0)
(-0.244128 0.118035 0)
(-0.24446 0.102896 0)
(-0.244942 0.0879079 0)
(-0.245535 0.0730051 0)
(-0.246183 0.058136 0)
(-0.246865 0.0432618 0)
(-0.24755 0.0283538 0)
(-0.248239 0.0133904 0)
(-0.248925 -0.00164366 0)
(-0.249622 -0.0167609 0)
(-0.250337 -0.0319697 0)
(-0.251097 -0.0472779 0)
(-0.251921 -0.0626906 0)
(-0.252846 -0.0782149 0)
(-0.253908 -0.0938591 0)
(-0.255166 -0.109641 0)
(-0.256693 -0.125593 0)
(-0.258599 -0.141778 0)
(-0.261029 -0.158301 0)
(-0.264175 -0.175332 0)
(-0.268251 -0.193107 0)
(-0.273434 -0.211899 0)
(-0.279723 -0.231909 0)
(-0.286717 -0.253033 0)
(-0.293308 -0.274502 0)
(-0.29739 -0.294382 0)
(-0.295735 -0.309181 0)
(-0.284311 -0.313731 0)
(-0.259288 -0.302002 0)
(-0.21892 -0.269051 0)
(-0.16599 -0.214714 0)
(-0.10929 -0.147051 0)
(-0.061227 -0.0819032 0)
(-0.0294626 -0.0324691 0)
(-0.0117048 -0.00110955 0)
(-0.00289482 0.0163354 0)
(0.000497394 0.0231368 0)
(0.00094574 0.0209742 0)
(0.00028678 0.0101028 0)
(-0.00329995 0.0151922 0)
(-0.0158484 0.0417937 0)
(-0.0345761 0.0705144 0)
(-0.055243 0.103186 0)
(-0.0791727 0.138174 0)
(-0.104174 0.173124 0)
(-0.130023 0.205763 0)
(-0.154378 0.233325 0)
(-0.176327 0.253842 0)
(-0.194361 0.266133 0)
(-0.208315 0.270333 0)
(-0.217964 0.267284 0)
(-0.224033 0.258536 0)
(-0.227169 0.245746 0)
(-0.228426 0.230544 0)
(-0.22853 0.21416 0)
(-0.228218 0.197474 0)
(-0.22784 0.180949 0)
(-0.227685 0.164804 0)
(-0.227784 0.149056 0)
(-0.228171 0.133656 0)
(-0.22876 0.118507 0)
(-0.229514 0.103526 0)
(-0.230348 0.0886365 0)
(-0.231235 0.0737874 0)
(-0.232122 0.0589387 0)
(-0.233003 0.0440644 0)
(-0.233853 0.0291463 0)
(-0.234681 0.0141716 0)
(-0.235482 -0.000868076 0)
(-0.236274 -0.01598 0)
(-0.237064 -0.0311684 0)
(-0.237874 -0.0464375 0)
(-0.238717 -0.0617889 0)
(-0.239619 -0.0772252 0)
(-0.240599 -0.0927472 0)
(-0.241692 -0.108361 0)
(-0.242935 -0.124076 0)
(-0.244393 -0.139924 0)
(-0.246158 -0.155965 0)
(-0.24838 -0.172315 0)
(-0.251261 -0.189171 0)
(-0.255063 -0.206826 0)
(-0.26003 -0.225649 0)
(-0.266256 -0.245953 0)
(-0.273394 -0.267726 0)
(-0.280298 -0.290116 0)
(-0.284639 -0.310848 0)
(-0.282783 -0.325609 0)
(-0.270198 -0.328117 0)
(-0.242724 -0.311042 0)
(-0.198946 -0.269116 0)
(-0.143112 -0.203692 0)
(-0.0866771 -0.127714 0)
(-0.0435934 -0.0613202 0)
(-0.0184498 -0.0164621 0)
(-0.00557385 0.00928977 0)
(-0.000235563 0.020932 0)
(0.000905468 0.0211504 0)
(0.000325735 0.0108139 0)
(-0.00375823 0.0245058 0)
(-0.0175494 0.0585491 0)
(-0.0375367 0.0908487 0)
(-0.0589261 0.125939 0)
(-0.0830939 0.162715 0)
(-0.107475 0.198279 0)
(-0.131869 0.230108 0)
(-0.153882 0.255307 0)
(-0.172933 0.272329 0)
(-0.187757 0.280478 0)
(-0.198596 0.280503 0)
(-0.205482 0.273705 0)
(-0.209416 0.262009 0)
(-0.211113 0.247184 0)
(-0.211628 0.230818 0)
(-0.211536 0.213942 0)
(-0.211426 0.197216 0)
(-0.211465 0.180889 0)
(-0.211823 0.165029 0)
(-0.21243 0.149555 0)
(-0.213279 0.134374 0)
(-0.214256 0.119373 0)
(-0.215332 0.104477 0)
(-0.216424 0.0896221 0)
(-0.217522 0.0747713 0)
(-0.218579 0.0598974 0)
(-0.219603 0.0449864 0)
(-0.220573 0.0300279 0)
(-0.221506 0.0150166 0)
(-0.222397 -5.14326e-05 0)
(-0.223266 -0.0151791 0)
(-0.22412 -0.0303681 0)
(-0.22498 -0.0456207 0)
(-0.225855 -0.0609375 0)
(-0.226769 -0.07632 0)
(-0.22773 -0.0917676 0)
(-0.22876 -0.107281 0)
(-0.229872 -0.122862 0)
(-0.2311 -0.138519 0)
(-0.232488 -0.154279 0)
(-0.234124 -0.170204 0)
(-0.236149 -0.186422 0)
(-0.238788 -0.203161 0)
(-0.242337 -0.220786 0)
(-0.247115 -0.23976 0)
(-0.253279 -0.26053 0)
(-0.26051 -0.283114 0)
(-0.26754 -0.306528 0)
(-0.271711 -0.327855 0)
(-0.268859 -0.341741 0)
(-0.253913 -0.34028 0)
(-0.222629 -0.315024 0)
(-0.174489 -0.260768 0)
(-0.116302 -0.182804 0)
(-0.0627784 -0.100768 0)
(-0.0277676 -0.0383461 0)
(-0.00968075 -0.00109591 0)
(-0.00157797 0.0172189 0)
(0.000661447 0.0208756 0)
(0.0003345 0.0115278 0)
(-0.00403481 0.0346771 0)
(-0.018586 0.0763635 0)
(-0.0392641 0.111925 0)
(-0.0608119 0.148921 0)
(-0.0846145 0.18681 0)
(-0.107832 0.222181 0)
(-0.130362 0.252411 0)
(-0.149861 0.274646 0)
(-0.166101 0.287871 0)
(-0.178063 0.291899 0)
(-0.186348 0.288076 0)
(-0.19118 0.278089 0)
(-0.193731 0.264122 0)
(-0.194682 0.247921 0)
(-0.195008 0.230936 0)
(-0.195101 0.213945 0)
(-0.195402 0.197394 0)
(-0.19593 0.181344 0)
(-0.196775 0.165763 0)
(-0.197808 0.150506 0)
(-0.199014 0.135472 0)
(-0.200274 0.120549 0)
(-0.201575 0.10568 0)
(-0.202845 0.0908135 0)
(-0.204087 0.0759287 0)
(-0.205264 0.0610077 0)
(-0.206391 0.0460454 0)
(-0.207451 0.031037 0)
(-0.208464 0.015982 0)
(-0.209425 0.00087997 0)
(-0.210357 -0.0142694 0)
(-0.211263 -0.0294661 0)
(-0.212168 -0.0447116 0)
(-0.213079 -0.0600067 0)
(-0.214016 -0.075354 0)
(-0.214988 -0.0907543 0)
(-0.216009 -0.10621 0)
(-0.217084 -0.121719 0)
(-0.218225 -0.137284 0)
(-0.219444 -0.152912 0)
(-0.220778 -0.168623 0)
(-0.222302 -0.184484 0)
(-0.224161 -0.200632 0)
(-0.226596 -0.217346 0)
(-0.229955 -0.235057 0)
(-0.234614 -0.254377 0)
(-0.240789 -0.275836 0)
(-0.248113 -0.299501 0)
(-0.25509 -0.323958 0)
(-0.258569 -0.345477 0)
(-0.253721 -0.35696 0)
(-0.235003 -0.348834 0)
(-0.198451 -0.311326 0)
(-0.145534 -0.241433 0)
(-0.0867207 -0.150923 0)
(-0.0403302 -0.0689573 0)
(-0.0152644 -0.0158547 0)
(-0.00363771 0.0113593 0)
(0.000227272 0.0198512 0)
(0.000310225 0.0121493 0)
(-0.0041033 0.0452658 0)
(-0.0189003 0.0946716 0)
(-0.039704 0.133155 0)
(-0.0608901 0.171523 0)
(-0.0838157 0.209864 0)
(-0.105477 0.244333 0)
(-0.125918 0.272365 0)
(-0.142919 0.291272 0)
(-0.156594 0.300636 0)
(-0.166149 0.300774 0)
(-0.172473 0.293582 0)
(-0.175904 0.281028 0)
(-0.177684 0.265431 0)
(-0.178385 0.248401 0)
(-0.178863 0.23119 0)
(-0.179325 0.214313 0)
(-0.180094 0.198029 0)
(-0.181079 0.182255 0)
(-0.182331 0.166899 0)
(-0.183693 0.15179 0)
(-0.185163 0.136833 0)
(-0.186627 0.12193 0)
(-0.188091 0.107043 0)
(-0.189491 0.0921313 0)
(-0.190846 0.0771878 0)
(-0.192119 0.0622007 0)
(-0.193334 0.0471719 0)
(-0.194471 0.0321 0)
(-0.195554 0.0169889 0)
(-0.196576 0.0018406 0)
(-0.197561 -0.0133422 0)
(-0.198511 -0.028558 0)
(-0.199451 -0.0438069 0)
(-0.200387 -0.0590899 0)
(-0.201341 -0.0744104 0)
(-0.20232 -0.0897718 0)
(-0.20334 -0.105179 0)
(-0.204402 -0.120635 0)
(-0.205514 -0.136143 0)
(-0.206669 -0.151703 0)
(-0.207878 -0.167318 0)
(-0.20916 -0.183013 0)
(-0.210587 -0.198847 0)
(-0.212306 -0.214994 0)
(-0.214589 -0.231763 0)
(-0.217833 -0.24973 0)
(-0.222488 -0.269607 0)
(-0.228777 -0.292115 0)
(-0.23621 -0.317088 0)
(-0.242878 -0.342612 0)
(-0.24494 -0.363293 0)
(-0.23681 -0.370129 0)
(-0.212636 -0.35106 0)
(-0.169622 -0.296629 0)
(-0.112486 -0.208202 0)
(-0.0570433 -0.10997 0)
(-0.0222892 -0.0365734 0)
(-0.00653358 0.00277932 0)
(-0.000381183 0.0177121 0)
(0.000260221 0.0126084 0)
(-0.00396421 0.055821 0)
(-0.0185089 0.112948 0)
(-0.0389178 0.154056 0)
(-0.0593017 0.193322 0)
(-0.0809561 0.231559 0)
(-0.100819 0.264602 0)
(-0.119107 0.290064 0)
(-0.133764 0.305515 0)
(-0.145209 0.311161 0)
(-0.152834 0.307783 0)
(-0.157741 0.297755 0)
(-0.160302 0.283216 0)
(-0.16175 0.266511 0)
(-0.162507 0.24904 0)
(-0.163298 0.231831 0)
(-0.164174 0.215158 0)
(-0.165372 0.199134 0)
(-0.166732 0.183578 0)
(-0.168293 0.168371 0)
(-0.169895 0.153336 0)
(-0.171551 0.138399 0)
(-0.173159 0.123473 0)
(-0.174742 0.108539 0)
(-0.176242 0.0935639 0)
(-0.177687 0.0785507 0)
(-0.179041 0.0634905 0)
(-0.180331 0.0483903 0)
(-0.181536 0.0332508 0)
(-0.182682 0.0180794 0)
(-0.18376 0.00288001 0)
(-0.184794 -0.012342 0)
(-0.185784 -0.0275838 0)
(-0.186756 -0.0428441 0)
(-0.187715 -0.0581237 0)
(-0.188684 -0.0734268 0)
(-0.18967 -0.0887591 0)
(-0.190692 -0.104129 0)
(-0.19175 -0.119544 0)
(-0.192853 -0.13501 0)
(-0.193991 -0.150535 0)
(-0.195162 -0.166113 0)
(-0.196355 -0.181754 0)
(-0.197592 -0.197466 0)
(-0.198932 -0.213337 0)
(-0.200545 -0.229538 0)
(-0.202734 -0.24651 0)
(-0.20597 -0.264901 0)
(-0.210752 -0.285717 0)
(-0.217282 -0.309603 0)