/*--------------------------------*- C++ -*----------------------------------*\
| =========                 |                                                 |
| \\      /  F ield         | OpenFOAM: The Open Source CFD Toolbox           |
|  \\    /   O peration     | Version:  2406                                  |
|   \\  /    A nd           | Website:  www.openfoam.com                      |
|    \\/     M anipulation  |                                                 |
\*---------------------------------------------------------------------------*/
FoamFile
{
    version     2.0;
    format      ascii;
    arch        "LSB;label=32;scalar=64";
    class       volVectorField;
    location    "6.05";
    object      U;
}
// * * * * * * * * * * * * * * * * * * * * * * * * * * * * * * * * * * * * * //

dimensions      [0 1 -1 0 0 0 0];

internalField   nonuniform List<vector> 
14400
(
(1.78386e-06 -1.77634e-06 0)
(2.89501e-06 2.17304e-07 0)
(-6.84339e-06 3.27355e-06 0)
(-2.81462e-05 6.11658e-06 0)
(-5.96904e-05 8.43385e-06 0)
(-9.94783e-05 1.02015e-05 0)
(-0.000145548 1.14925e-05 0)
(-0.000196227 1.24014e-05 0)
(-0.000250174 1.30184e-05 0)
(-0.000306353 1.34181e-05 0)
(-0.000363985 1.366e-05 0)
(-0.0004225 1.37896e-05 0)
(-0.000481486 1.38414e-05 0)
(-0.000540656 1.38409e-05 0)
(-0.000599815 1.38063e-05 0)
(-0.000658832 1.37508e-05 0)
(-0.000717625 1.36829e-05 0)
(-0.000776144 1.36086e-05 0)
(-0.000834359 1.35312e-05 0)
(-0.000892254 1.34527e-05 0)
(-0.000949819 1.33737e-05 0)
(-0.00100705 1.32942e-05 0)
(-0.00106393 1.32137e-05 0)
(-0.00112046 1.31314e-05 0)
(-0.00117662 1.30463e-05 0)
(-0.0012324 1.29574e-05 0)
(-0.00128777 1.28635e-05 0)
(-0.00134272 1.27638e-05 0)
(-0.00139721 1.26572e-05 0)
(-0.00145121 1.25426e-05 0)
(-0.00150469 1.24193e-05 0)
(-0.0015576 1.22862e-05 0)
(-0.0016099 1.21425e-05 0)
(-0.00166155 1.19873e-05 0)
(-0.00171248 1.18197e-05 0)
(-0.00176266 1.16389e-05 0)
(-0.00181201 1.14441e-05 0)
(-0.00186048 1.12345e-05 0)
(-0.00190801 1.10091e-05 0)
(-0.00195452 1.07672e-05 0)
(-0.00199994 1.05081e-05 0)
(-0.0020442 1.02308e-05 0)
(-0.00208723 9.93474e-06 0)
(-0.00212893 9.61915e-06 0)
(-0.00216923 9.28337e-06 0)
(-0.00220804 8.92678e-06 0)
(-0.00224528 8.54883e-06 0)
(-0.00228084 8.14903e-06 0)
(-0.00231465 7.72697e-06 0)
(-0.0023466 7.28234e-06 0)
(-0.00237661 6.81493e-06 0)
(-0.00240457 6.32463e-06 0)
(-0.0024304 5.81147e-06 0)
(-0.00245399 5.27559e-06 0)
(-0.00247526 4.71729e-06 0)
(-0.00249411 4.13702e-06 0)
(-0.00251045 3.53539e-06 0)
(-0.00252419 2.91317e-06 0)
(-0.00253527 2.27132e-06 0)
(-0.00254358 1.61096e-06 0)
(-0.00254907 9.33357e-07 0)
(-0.00255166 2.40152e-07 0)
(-0.00255129 -4.66649e-07 0)
(-0.00254792 -1.18602e-06 0)
(-0.00254149 -1.9156e-06 0)
(-0.00253196 -2.65305e-06 0)
(-0.00251931 -3.39607e-06 0)
(-0.00250353 -4.14221e-06 0)
(-0.0024846 -4.88885e-06 0)
(-0.00246253 -5.63329e-06 0)
(-0.00243733 -6.37275e-06 0)
(-0.00240903 -7.10439e-06 0)
(-0.00237767 -7.82535e-06 0)
(-0.0023433 -8.53275e-06 0)
(-0.00230598 -9.22374e-06 0)
(-0.00226578 -9.89554e-06 0)
(-0.00222278 -1.05454e-05 0)
(-0.00217709 -1.11708e-05 0)
(-0.0021288 -1.17693e-05 0)
(-0.00207804 -1.23385e-05 0)
(-0.00202492 -1.28764e-05 0)
(-0.00196958 -1.33812e-05 0)
(-0.00191216 -1.38511e-05 0)
(-0.0018528 -1.42849e-05 0)
(-0.00179166 -1.46813e-05 0)
(-0.00172888 -1.50396e-05 0)
(-0.00166462 -1.53591e-05 0)
(-0.00159906 -1.56395e-05 0)
(-0.00153234 -1.58807e-05 0)
(-0.00146463 -1.60829e-05 0)
(-0.00139609 -1.62462e-05 0)
(-0.00132687 -1.63711e-05 0)
(-0.00125714 -1.64581e-05 0)
(-0.00118706 -1.65076e-05 0)
(-0.00111678 -1.652e-05 0)
(-0.00104644 -1.64954e-05 0)
(-0.000976221 -1.64337e-05 0)
(-0.000906264 -1.63343e-05 0)
(-0.000836736 -1.61959e-05 0)
(-0.000767805 -1.60166e-05 0)
(-0.000699652 -1.57935e-05 0)
(-0.000632472 -1.55227e-05 0)
(-0.000566481 -1.51991e-05 0)
(-0.000501918 -1.48159e-05 0)
(-0.000439055 -1.43652e-05 0)
(-0.000378203 -1.38373e-05 0)
(-0.000319716 -1.32209e-05 0)
(-0.000263997 -1.25028e-05 0)
(-0.000211511 -1.16689e-05 0)
(-0.000162778 -1.07036e-05 0)
(-0.000118385 -9.59101e-06 0)
(-7.89751e-05 -8.31647e-06 0)
(-4.52378e-05 -6.86893e-06 0)
(-1.78795e-05 -5.24619e-06 0)
(2.43376e-06 -3.46313e-06 0)
(1.51953e-05 -1.56708e-06 0)
(2.02831e-05 2.88557e-07 0)
(1.80666e-05 1.85156e-06 0)
(1.09086e-05 2.62416e-06 0)
(2.21726e-06 2.22164e-06 0)
(-2.19764e-07 -2.87345e-06 0)
(-1.29313e-05 1.28396e-05 0)
(-5.05283e-05 3.66573e-05 0)
(-0.000114654 5.93837e-05 0)
(-0.000202247 7.8619e-05 0)
(-0.000309587 9.38598e-05 0)
(-0.000432607 0.000105421 0)
(-0.000567624 0.00011389 0)
(-0.000711527 0.000119891 0)
(-0.0008618 0.000123982 0)
(-0.00101647 0.000126635 0)
(-0.00117402 0.000128226 0)
(-0.00133332 0.000129053 0)
(-0.00149355 0.000129341 0)
(-0.00165411 0.000129258 0)
(-0.00181457 0.000128927 0)
(-0.00197466 0.000128436 0)
(-0.00213418 0.000127844 0)
(-0.00229299 0.000127189 0)
(-0.00245101 0.000126494 0)
(-0.00260818 0.000125772 0)
(-0.00276444 0.000125025 0)
(-0.00291975 0.000124254 0)
(-0.00307407 0.000123454 0)
(-0.00322734 0.000122618 0)
(-0.0033795 0.000121738 0)
(-0.0035305 0.000120807 0)
(-0.00368026 0.000119816 0)
(-0.00382869 0.000118756 0)
(-0.00397569 0.000117619 0)
(-0.00412118 0.000116397 0)
(-0.00426502 0.000115082 0)
(-0.00440711 0.000113668 0)
(-0.00454731 0.000112145 0)
(-0.00468549 0.000110506 0)
(-0.00482149 0.000108744 0)
(-0.00495515 0.000106852 0)
(-0.00508632 0.000104823 0)
(-0.00521482 0.000102649 0)
(-0.00534046 0.000100323 0)
(-0.00546305 9.78385e-05 0)
(-0.00558241 9.51892e-05 0)
(-0.00569831 9.23686e-05 0)
(-0.00581056 8.93708e-05 0)
(-0.00591893 8.61902e-05 0)
(-0.00602319 8.28218e-05 0)
(-0.00612312 7.92611e-05 0)
(-0.00621848 7.55042e-05 0)
(-0.00630903 7.15482e-05 0)
(-0.00639453 6.73905e-05 0)
(-0.00647475 6.303e-05 0)
(-0.00654943 5.84661e-05 0)
(-0.00661833 5.36997e-05 0)
(-0.00668121 4.87324e-05 0)
(-0.00673783 4.35675e-05 0)
(-0.00678797 3.82094e-05 0)
(-0.0068314 3.2664e-05 0)
(-0.00686789 2.69385e-05 0)
(-0.00689724 2.10416e-05 0)
(-0.00691926 1.49838e-05 0)
(-0.00693377 8.77689e-06 0)
(-0.00694059 2.43432e-06 0)
(-0.00693958 -4.02869e-06 0)
(-0.0069306 -1.05964e-05 0)
(-0.00691355 -1.72505e-05 0)
(-0.00688833 -2.39719e-05 0)
(-0.00685489 -3.074e-05 0)
(-0.00681319 -3.75332e-05 0)
(-0.0067632 -4.4329e-05 0)
(-0.00670494 -5.11038e-05 0)
(-0.00663847 -5.78337e-05 0)
(-0.00656383 -6.44941e-05 0)
(-0.00648114 -7.10603e-05 0)
(-0.00639052 -7.75076e-05 0)
(-0.00629214 -8.38115e-05 0)
(-0.00618616 -8.99482e-05 0)
(-0.00607281 -9.58942e-05 0)
(-0.00595233 -0.000101627 0)
(-0.00582497 -0.000107127 0)
(-0.00569103 -0.000112372 0)
(-0.00555082 -0.000117347 0)
(-0.00540467 -0.000122033 0)
(-0.00525292 -0.000126418 0)
(-0.00509594 -0.000130489 0)
(-0.0049341 -0.000134235 0)
(-0.0047678 -0.00013765 0)
(-0.00459742 -0.000140728 0)
(-0.00442337 -0.000143465 0)
(-0.00424604 -0.00014586 0)
(-0.00406586 -0.000147912 0)
(-0.00388321 -0.000149623 0)
(-0.00369851 -0.000150995 0)
(-0.00351216 -0.000152031 0)
(-0.00332455 -0.000152734 0)
(-0.0031361 -0.000153104 0)
(-0.00294719 -0.00015314 0)
(-0.00275824 -0.00015284 0)
(-0.00256965 -0.000152194 0)
(-0.00238187 -0.000151189 0)
(-0.00219534 -0.000149805 0)
(-0.00201055 -0.000148013 0)
(-0.00182802 -0.000145774 0)
(-0.00164834 -0.000143038 0)
(-0.00147217 -0.000139744 0)
(-0.00130023 -0.000135816 0)
(-0.00113337 -0.000131166 0)
(-0.000972543 -0.000125691 0)
(-0.00081882 -0.000119278 0)
(-0.000673425 -0.000111801 0)
(-0.000537723 -0.000103133 0)
(-0.000413214 -9.31501e-05 0)
(-0.000301517 -8.17506e-05 0)
(-0.000204315 -6.88792e-05 0)
(-0.000123268 -5.45746e-05 0)
(-5.98496e-05 -3.90472e-05 0)
(-1.50926e-05 -2.28138e-05 0)
(1.08165e-05 -6.93814e-06 0)
(1.90635e-05 6.58288e-06 0)
(1.43557e-05 1.43872e-05 0)
(2.59836e-06 1.08953e-05 0)
(-3.36393e-06 7.04916e-06 0)
(-3.74856e-05 5.07033e-05 0)
(-0.000107133 0.000105748 0)
(-0.000213851 0.00015802 0)
(-0.000352439 0.000203012 0)
(-0.000518531 0.0002395 0)
(-0.000707009 0.000267884 0)
(-0.000913078 0.000289231 0)
(-0.00113255 0.000304782 0)
(-0.00136193 0.000315726 0)
(-0.00159838 0.000323104 0)
(-0.00183968 0.000327786 0)
(-0.0020841 0.000330471 0)
(-0.00233036 0.000331707 0)
(-0.00257749 0.000331914 0)
(-0.00282478 0.000331403 0)
(-0.00307173 0.000330404 0)
(-0.003318 0.000329074 0)
(-0.00356331 0.000327522 0)
(-0.00380749 0.000325815 0)
(-0.0040504 0.000323993 0)
(-0.00429193 0.000322075 0)
(-0.00453198 0.000320064 0)
(-0.00477045 0.000317953 0)
(-0.00500726 0.000315732 0)
(-0.00524229 0.000313383 0)
(-0.00547544 0.000310889 0)
(-0.00570657 0.000308231 0)
(-0.00593556 0.000305388 0)
(-0.00616224 0.000302342 0)
(-0.00638646 0.000299073 0)
(-0.00660803 0.000295562 0)
(-0.00682677 0.00029179 0)
(-0.00704247 0.000287739 0)
(-0.00725492 0.00028339 0)
(-0.00746388 0.000278725 0)
(-0.00766912 0.000273727 0)
(-0.00787038 0.000268377 0)
(-0.0080674 0.00026266 0)
(-0.00825989 0.000256556 0)
(-0.00844757 0.000250052 0)
(-0.00863013 0.00024313 0)
(-0.00880728 0.000235777 0)
(-0.00897867 0.000227977 0)
(-0.009144 0.000219719 0)
(-0.00930291 0.00021099 0)
(-0.00945507 0.00020178 0)
(-0.00960012 0.000192081 0)
(-0.00973772 0.000181886 0)
(-0.00986749 0.000171191 0)
(-0.00998909 0.000159993 0)
(-0.0101022 0.000148292 0)
(-0.0102063 0.000136091 0)
(-0.0103013 0.000123395 0)
(-0.0103866 0.000110215 0)
(-0.010462 9.65609e-05 0)
(-0.0105272 8.24489e-05 0)
(-0.0105817 6.78979e-05 0)
(-0.0106254 5.29303e-05 0)
(-0.010658 3.75724e-05 0)
(-0.0106791 2.18542e-05 0)
(-0.0106886 5.80931e-06 0)
(-0.0106863 -1.05252e-05 0)
(-0.0106719 -2.71084e-05 0)
(-0.0106453 -4.3896e-05 0)
(-0.0106063 -6.08409e-05 0)
(-0.010555 -7.78926e-05 0)
(-0.0104913 -9.49984e-05 0)
(-0.0104151 -0.000112103 0)
(-0.0103264 -0.00012915 0)
(-0.0102254 -0.00014608 0)
(-0.0101121 -0.000162834 0)
(-0.00998679 -0.000179352 0)
(-0.00984953 -0.000195575 0)
(-0.0097006 -0.000211443 0)
(-0.00954028 -0.000226899 0)
(-0.00936888 -0.000241887 0)
(-0.00918674 -0.000256353 0)
(-0.00899427 -0.000270247 0)
(-0.00879187 -0.000283522 0)
(-0.00858001 -0.000296133 0)
(-0.00835915 -0.000308043 0)
(-0.00812982 -0.000319217 0)
(-0.00789253 -0.000329626 0)
(-0.00764783 -0.000339245 0)
(-0.00739628 -0.000348056 0)
(-0.00713846 -0.000356043 0)
(-0.00687495 -0.000363199 0)
(-0.00660632 -0.000369517 0)
(-0.00633319 -0.000374997 0)
(-0.00605612 -0.000379641 0)
(-0.00577572 -0.000383451 0)
(-0.00549258 -0.000386433 0)
(-0.00520727 -0.000388588 0)
(-0.0049204 -0.000389916 0)
(-0.00463256 -0.000390412 0)
(-0.00434435 -0.000390062 0)
(-0.00405639 -0.000388841 0)
(-0.00376934 -0.00038671 0)
(-0.00348388 -0.000383613 0)
(-0.00320074 -0.000379474 0)
(-0.00292074 -0.000374192 0)
(-0.00264476 -0.000367638 0)
(-0.0023738 -0.000359654 0)
(-0.00210898 -0.000350051 0)
(-0.00185157 -0.000338608 0)
(-0.001603 -0.000325074 0)
(-0.0013649 -0.000309171 0)
(-0.00113907 -0.000290608 0)
(-0.000927524 -0.00026909 0)
(-0.000732441 -0.000244352 0)
(-0.00055613 -0.000216198 0)
(-0.000400944 -0.000184567 0)
(-0.00026914 -0.000149649 0)
(-0.000162646 -0.000112046 0)
(-8.27261e-05 -7.30515e-05 0)
(-2.94819e-05 -3.50486e-05 0)
(-1.28509e-06 -2.10072e-06 0)
(6.96122e-06 1.92327e-05 0)
(1.85563e-06 1.80689e-05 0)
(-6.42318e-06 2.91346e-05 0)
(-6.19642e-05 0.000116415 0)
(-0.000163343 0.00021344 0)
(-0.000310925 0.000304084 0)
(-0.000496485 0.00038245 0)
(-0.000714985 0.000446778 0)
(-0.000960555 0.000497593 0)
(-0.00122772 0.000536459 0)
(-0.00151166 0.000565299 0)
(-0.00180824 0.000586017 0)
(-0.00211409 0.000600336 0)
(-0.00242646 0.000609726 0)
(-0.0027432 0.000615397 0)
(-0.00306265 0.000618315 0)
(-0.00338355 0.000619233 0)
(-0.00370494 0.000618721 0)
(-0.00402614 0.000617202 0)
(-0.00434662 0.000614979 0)
(-0.004666 0.00061226 0)
(-0.00498399 0.000609183 0)
(-0.00530039 0.000605831 0)
(-0.005615 0.000602247 0)
(-0.00592766 0.000598448 0)
(-0.00623824 0.000594429 0)
(-0.00654658 0.000590173 0)
(-0.00685253 0.000585658 0)
(-0.00715592 0.000580852 0)
(-0.00745658 0.000575723 0)
(-0.00775432 0.000570238 0)
(-0.00804893 0.000564363 0)
(-0.0083402 0.000558063 0)
(-0.00862789 0.000551305 0)
(-0.00891173 0.000544056 0)
(-0.00919148 0.000536281 0)
(-0.00946683 0.000527949 0)
(-0.0097375 0.000519026 0)
(-0.0100032 0.000509482 0)
(-0.0102635 0.000499284 0)
(-0.0105181 0.000488403 0)
(-0.0107668 0.000476808 0)
(-0.011009 0.000464471 0)
(-0.0112444 0.000451364 0)
(-0.0114726 0.000437462 0)
(-0.0116932 0.000422739 0)
(-0.0119058 0.000407175 0)
(-0.0121099 0.000390748 0)
(-0.0123052 0.000373443 0)
(-0.0124911 0.000355244 0)
(-0.0126673 0.000336142 0)
(-0.0128332 0.00031613 0)
(-0.0129885 0.000295205 0)
(-0.0131326 0.00027337 0)
(-0.0132652 0.000250631 0)
(-0.0133857 0.000226999 0)
(-0.0134938 0.000202494 0)
(-0.0135891 0.000177139 0)
(-0.0136711 0.000150962 0)
(-0.0137395 0.000124001 0)
(-0.0137939 9.62963e-05 0)
(-0.0138339 6.78981e-05 0)
(-0.0138592 3.88614e-05 0)
(-0.0138697 9.24806e-06 0)
(-0.0138649 -2.08737e-05 0)
(-0.0138447 -5.14293e-05 0)
(-0.013809 -8.23387e-05 0)
(-0.0137575 -0.000113516 0)
(-0.0136902 -0.00014487 0)
(-0.0136071 -0.000176306 0)
(-0.0135081 -0.000207725 0)
(-0.0133933 -0.000239024 0)
(-0.0132628 -0.000270099 0)
(-0.0131167 -0.000300844 0)
(-0.0129553 -0.000331152 0)
(-0.0127788 -0.000360917 0)
(-0.0125875 -0.000390034 0)
(-0.0123817 -0.0004184 0)
(-0.0121619 -0.000445918 0)
(-0.0119285 -0.000472491 0)
(-0.0116819 -0.00049803 0)
(-0.0114228 -0.000522452 0)
(-0.0111516 -0.000545681 0)
(-0.010869 -0.000567647 0)
(-0.0105756 -0.000588291 0)
(-0.010272 -0.00060756 0)
(-0.00995894 -0.000625411 0)
(-0.00963712 -0.00064181 0)
(-0.00930723 -0.000656731 0)
(-0.00896999 -0.000670158 0)
(-0.00862612 -0.000682081 0)
(-0.00827636 -0.000692495 0)
(-0.00792143 -0.000701403 0)
(-0.00756207 -0.000708808 0)
(-0.00719901 -0.000714714 0)
(-0.00683298 -0.000719123 0)
(-0.00646473 -0.000722029 0)
(-0.00609499 -0.000723418 0)
(-0.00572454 -0.000723258 0)
(-0.00535415 -0.0007215 0)
(-0.00498464 -0.000718067 0)
(-0.0046169 -0.000712851 0)
(-0.00425186 -0.000705706 0)
(-0.00389055 -0.000696443 0)
(-0.0035341 -0.000684825 0)
(-0.00318378 -0.000670561 0)
(-0.00284103 -0.000653307 0)
(-0.00250743 -0.000632663 0)
(-0.00218481 -0.000608181 0)
(-0.0018752 -0.000579375 0)
(-0.00158084 -0.000545737 0)
(-0.0013042 -0.000506776 0)
(-0.00104795 -0.000462064 0)
(-0.000814861 -0.000411318 0)
(-0.000607729 -0.000354521 0)
(-0.00042919 -0.000292104 0)
(-0.000281461 -0.000225213 0)
(-0.000165994 -0.000156112 0)
(-8.29914e-05 -8.8731e-05 0)
(-3.08085e-05 -2.94246e-05 0)
(-5.14853e-06 1.21808e-05 0)
(4.45785e-07 2.06856e-05 0)
(-9.09167e-06 6.25859e-05 0)
(-8.4023e-05 0.000208125 0)
(-0.000214751 0.000356273 0)
(-0.000400066 0.000491633 0)
(-0.000628385 0.000608259 0)
(-0.00089376 0.000704489 0)
(-0.00118957 0.000781214 0)
(-0.00150982 0.000840589 0)
(-0.00184924 0.000885242 0)
(-0.00220334 0.000917818 0)
(-0.00256835 0.000940748 0)
(-0.00294121 0.000956142 0)
(-0.00331946 0.000965765 0)
(-0.00370117 0.000971048 0)
(-0.00408486 0.00097312 0)
(-0.00446936 0.000972853 0)
(-0.00485383 0.000970897 0)
(-0.00523759 0.000967729 0)
(-0.00562017 0.000963683 0)
(-0.00600116 0.000958983 0)
(-0.00638028 0.000953772 0)
(-0.00675727 0.000948129 0)
(-0.00713191 0.000942088 0)
(-0.00750399 0.000935654 0)
(-0.00787332 0.000928808 0)
(-0.00823969 0.000921519 0)
(-0.00860289 0.000913746 0)
(-0.00896269 0.000905442 0)
(-0.00931886 0.000896559 0)
(-0.00967113 0.000887047 0)
(-0.0100192 0.000876855 0)
(-0.0103629 0.000865931 0)
(-0.0107018 0.000854227 0)
(-0.0110356 0.000841691 0)
(-0.011364 0.000828274 0)
(-0.0116865 0.000813928 0)
(-0.0120029 0.000798604 0)
(-0.0123128 0.000782255 0)
(-0.0126156 0.000764836 0)
(-0.0129111 0.000746301 0)
(-0.0131987 0.000726609 0)
(-0.013478 0.000705717 0)
(-0.0137485 0.000683588 0)
(-0.0140098 0.000660187 0)
(-0.0142613 0.000635481 0)
(-0.0145025 0.000609441 0)
(-0.014733 0.000582044 0)
(-0.0149522 0.000553271 0)
(-0.0151596 0.000523107 0)
(-0.0153547 0.000491545 0)
(-0.015537 0.000458583 0)
(-0.0157059 0.000424228 0)
(-0.0158609 0.000388492 0)
(-0.0160015 0.000351397 0)
(-0.0161273 0.000312972 0)
(-0.0162377 0.000273256 0)
(-0.0163323 0.000232297 0)
(-0.0164107 0.000190152 0)
(-0.0164724 0.000146889 0)
(-0.0165172 0.000102584 0)
(-0.0165445 5.73234e-05 0)
(-0.0165542 1.12045e-05 0)
(-0.0165459 -3.56672e-05 0)
(-0.0165194 -8.31767e-05 0)
(-0.0164745 -0.0001312 0)
(-0.0164111 -0.000179606 0)
(-0.0163292 -0.000228256 0)
(-0.0162285 -0.000277003 0)
(-0.0161093 -0.000325698 0)
(-0.0159715 -0.000374184 0)
(-0.0158154 -0.000422303 0)
(-0.015641 -0.000469894 0)
(-0.0154486 -0.000516798 0)
(-0.0152385 -0.000562852 0)
(-0.0150112 -0.0006079 0)
(-0.014767 -0.000651788 0)
(-0.0145063 -0.000694366 0)
(-0.0142298 -0.000735493 0)
(-0.0139379 -0.000775035 0)
(-0.0136314 -0.000812868 0)
(-0.0133107 -0.000848876 0)
(-0.0129767 -0.000882958 0)
(-0.0126301 -0.000915023 0)
(-0.0122716 -0.000944994 0)
(-0.011902 -0.000972807 0)
(-0.0115221 -0.00099841 0)
(-0.0111327 -0.00102177 0)
(-0.0107347 -0.00104285 0)
(-0.0103288 -0.00106164 0)
(-0.00991597 -0.00107814 0)
(-0.00949696 -0.00109234 0)
(-0.00907265 -0.00110424 0)
(-0.00864387 -0.00111386 0)
(-0.00821148 -0.00112118 0)
(-0.00777632 -0.0011262 0)
(-0.00733925 -0.00112889 0)
(-0.00690117 -0.00112919 0)
(-0.00646298 -0.00112702 0)
(-0.00602564 -0.00112225 0)
(-0.00559017 -0.00111472 0)
(-0.00515767 -0.00110419 0)
(-0.00472933 -0.00109036 0)
(-0.00430649 -0.00107288 0)
(-0.00389062 -0.00105129 0)
(-0.00348338 -0.00102506 0)
(-0.00308663 -0.000993598 0)
(-0.00270244 -0.000956228 0)
(-0.00233315 -0.000912226 0)
(-0.00198131 -0.000860857 0)
(-0.00164972 -0.000801419 0)
(-0.00134136 -0.000733325 0)
(-0.00105931 -0.000656229 0)
(-0.000806656 -0.000570193 0)
(-0.000586292 -0.000475947 0)
(-0.000400661 -0.000375236 0)
(-0.000251436 -0.000271318 0)
(-0.000139105 -0.000169606 0)
(-6.23159e-05 -7.84793e-05 0)
(-1.83283e-05 -1.01194e-05 0)
(-1.11065e-06 1.69465e-05 0)
(-1.13276e-05 0.000105904 0)
(-0.000103033 0.000323248 0)
(-0.000259852 0.00053144 0)
(-0.000479009 0.000717515 0)
(-0.000745655 0.000876666 0)
(-0.00105275 0.00100806 0)
(-0.00139284 0.00111333 0)
(-0.00175943 0.00119542 0)
(-0.00214689 0.00125775 0)
(-0.00255045 0.00130374 0)
(-0.00296611 0.00133656 0)
(-0.00339058 0.00135897 0)
(-0.00382123 0.00137333 0)
(-0.00425591 0.00138154 0)
(-0.00469299 0.00138516 0)
(-0.00513116 0.00138536 0)
(-0.00556943 0.00138305 0)
(-0.00600702 0.00137891 0)
(-0.00644335 0.0013734 0)
(-0.00687794 0.00136687 0)
(-0.00731041 0.00135951 0)
(-0.00774045 0.00135145 0)
(-0.00816779 0.00134276 0)
(-0.00859214 0.00133344 0)
(-0.00901328 0.00132348 0)
(-0.00943094 0.00131285 0)
(-0.00984486 0.0013015 0)
(-0.0102548 0.00128936 0)
(-0.0106604 0.00127636 0)
(-0.0110614 0.00126245 0)
(-0.0114575 0.00124756 0)
(-0.0118484 0.0012316 0)
(-0.0122336 0.00121453 0)
(-0.0126128 0.00119626 0)
(-0.0129857 0.00117673 0)
(-0.0133518 0.00115587 0)
(-0.0137106 0.00113362 0)
(-0.0140617 0.00110992 0)
(-0.0144047 0.00108469 0)
(-0.014739 0.00105788 0)
(-0.0150642 0.00102943 0)
(-0.0153798 0.000999293 0)
(-0.0156851 0.000967407 0)
(-0.0159798 0.000933729 0)
(-0.0162631 0.000898216 0)
(-0.0165346 0.000860832 0)
(-0.0167937 0.000821545 0)
(-0.0170397 0.000780332 0)
(-0.0172722 0.000737177 0)
(-0.0174906 0.000692072 0)
(-0.0176942 0.000645018 0)
(-0.0178825 0.000596028 0)
(-0.018055 0.000545122 0)
(-0.0182111 0.000492335 0)
(-0.0183501 0.000437711 0)
(-0.0184718 0.000381307 0)
(-0.0185754 0.000323194 0)
(-0.0186606 0.000263455 0)
(-0.018727 0.000202186 0)
(-0.0187741 0.000139497 0)
(-0.0188015 7.55113e-05 0)
(-0.0188089 1.03657e-05 0)
(-0.0187961 -5.57907e-05 0)
(-0.0187627 -0.000122796 0)
(-0.0187087 -0.000190478 0)
(-0.0186339 -0.000258651 0)
(-0.0185381 -0.000327123 0)
(-0.0184215 -0.000395691 0)
(-0.018284 -0.000464146 0)
(-0.0181257 -0.000532273 0)
(-0.0179468 -0.000599852 0)
(-0.0177475 -0.000666664 0)
(-0.0175282 -0.000732485 0)
(-0.0172892 -0.000797098 0)
(-0.0170308 -0.000860284 0)
(-0.0167537 -0.000921835 0)
(-0.0164582 -0.000981545 0)
(-0.0161451 -0.00103922 0)
(-0.0158149 -0.00109468 0)
(-0.0154683 -0.00114776 0)
(-0.0151061 -0.0011983 0)
(-0.014729 -0.00124615 0)
(-0.014338 -0.00129121 0)
(-0.0139336 -0.00133336 0)
(-0.013517 -0.00137252 0)
(-0.0130889 -0.00140861 0)
(-0.0126502 -0.0014416 0)
(-0.0122019 -0.00147143 0)
(-0.0117448 -0.00149809 0)
(-0.01128 -0.00152158 0)
(-0.0108082 -0.00154188 0)
(-0.0103305 -0.001559 0)
(-0.00984783 -0.00157294 0)
(-0.00936102 -0.00158369 0)
(-0.00887107 -0.00159124 0)
(-0.00837891 -0.00159553 0)
(-0.00788554 -0.00159649 0)
(-0.00739195 -0.00159398 0)
(-0.00689923 -0.00158784 0)
(-0.00640848 -0.00157782 0)
(-0.00592094 -0.00156358 0)
(-0.00543793 -0.00154472 0)
(-0.00496092 -0.00152072 0)
(-0.00449153 -0.00149096 0)
(-0.0040316 -0.00145472 0)
(-0.00358315 -0.00141118 0)
(-0.00314847 -0.00135942 0)
(-0.00273007 -0.00129846 0)
(-0.00233073 -0.00122735 0)
(-0.00195346 -0.00114515 0)
(-0.00160143 -0.00105114 0)
(-0.00127794 -0.000944919 0)
(-0.000986272 -0.000826639 0)
(-0.000729502 -0.000697342 0)
(-0.000510295 -0.000559364 0)
(-0.000330603 -0.000416893 0)
(-0.00019133 -0.00027666 0)
(-9.16313e-05 -0.000148743 0)
(-3.05064e-05 -4.73319e-05 0)
(-2.53856e-06 7.14114e-06 0)
(-1.31733e-05 0.000157533 0)
(-0.000119084 0.000458669 0)
(-0.000298558 0.000735145 0)
(-0.000547444 0.000977468 0)
(-0.000847943 0.00118291 0)
(-0.00119186 0.00135213 0)
(-0.00157087 0.00148796 0)
(-0.00197792 0.00159436 0)
(-0.00240706 0.00167566 0)
(-0.00285328 0.00173615 0)
(-0.00331241 0.00177975 0)
(-0.00378103 0.00180991 0)
(-0.00425635 0.00182957 0)
(-0.00473612 0.00184115 0)
(-0.00521858 0.00184659 0)
(-0.00570233 0.00184744 0)
(-0.00618627 0.00184485 0)
(-0.00666955 0.0018397 0)
(-0.00715148 0.00183263 0)
(-0.00763154 0.00182407 0)
(-0.00810927 0.0018143 0)
(-0.0085843 0.00180352 0)
(-0.00905629 0.0017918 0)
(-0.00952494 0.00177918 0)
(-0.00998993 0.00176564 0)
(-0.010451 0.00175116 0)
(-0.0109078 0.00173566 0)
(-0.01136 0.00171907 0)
(-0.0118074 0.00170132 0)
(-0.0122495 0.00168231 0)
(-0.012686 0.00166197 0)
(-0.0131165 0.0016402 0)
(-0.0135406 0.00161691 0)
(-0.013958 0.00159203 0)
(-0.014368 0.00156545 0)
(-0.0147704 0.0015371 0)
(-0.0151646 0.00150689 0)
(-0.0155501 0.00147473 0)
(-0.0159263 0.00144056 0)
(-0.0162929 0.00140428 0)
(-0.0166491 0.00136583 0)
(-0.0169945 0.00132513 0)
(-0.0173284 0.00128213 0)
(-0.0176503 0.00123676 0)
(-0.0179596 0.00118897 0)
(-0.0182556 0.00113871 0)
(-0.0185377 0.00108596 0)
(-0.0188053 0.00103067 0)
(-0.0190579 0.000972843 0)
(-0.0192946 0.000912461 0)
(-0.019515 0.000849533 0)
(-0.0197185 0.000784079 0)
(-0.0199043 0.000716131 0)
(-0.020072 0.000645738 0)
(-0.0202209 0.000572963 0)
(-0.0203505 0.000497885 0)
(-0.0204603 0.000420601 0)
(-0.0205498 0.000341222 0)
(-0.0206186 0.000259879 0)
(-0.0206661 0.00017672 0)
(-0.0206921 9.19095e-05 0)
(-0.0206962 5.62806e-06 0)
(-0.020678 -8.19262e-05 0)
(-0.0206375 -0.00017054 0)
(-0.0205743 -0.000259985 0)
(-0.0204884 -0.00035002 0)
(-0.0203797 -0.000440391 0)
(-0.0202482 -0.000530834 0)
(-0.0200939 -0.000621076 0)
(-0.0199171 -0.000710837 0)
(-0.0197179 -0.000799833 0)
(-0.0194967 -0.000887778 0)
(-0.0192536 -0.000974383 0)
(-0.0189892 -0.00105937 0)
(-0.0187038 -0.00114245 0)
(-0.0183981 -0.00122336 0)
(-0.0180727 -0.00130183 0)
(-0.0177281 -0.00137763 0)
(-0.0173651 -0.0014505 0)
(-0.0169845 -0.00152025 0)
(-0.016587 -0.00158666 0)
(-0.0161736 -0.00164957 0)
(-0.015745 -0.00170881 0)
(-0.0153021 -0.00176426 0)
(-0.0148461 -0.00181581 0)
(-0.0143776 -0.00186336 0)
(-0.0138979 -0.00190686 0)
(-0.0134078 -0.00194625 0)
(-0.0129083 -0.00198151 0)
(-0.0124004 -0.00201264 0)
(-0.0118852 -0.00203961 0)
(-0.0113635 -0.00206244 0)
(-0.0108365 -0.00208113 0)
(-0.0103051 -0.00209566 0)
(-0.00977035 -0.002106 0)
(-0.00923323 -0.00211207 0)
(-0.0086948 -0.00211379 0)
(-0.00815617 -0.00211096 0)
(-0.00761846 -0.00210336 0)
(-0.00708289 -0.00209066 0)
(-0.00655077 -0.00207243 0)
(-0.00602352 -0.00204813 0)
(-0.00550271 -0.00201708 0)
(-0.00499007 -0.0019785 0)
(-0.00448754 -0.00193144 0)
(-0.00399728 -0.00187485 0)
(-0.00352169 -0.00180758 0)
(-0.00306341 -0.00172839 0)
(-0.00262537 -0.00163608 0)
(-0.00221068 -0.00152951 0)
(-0.00182267 -0.0014078 0)
(-0.00146478 -0.00127049 0)
(-0.00114041 -0.00111785 0)
(-0.000852817 -0.000951187 0)
(-0.000604888 -0.000773376 0)
(-0.000398896 -0.000589418 0)
(-0.000236228 -0.000407153 0)
(-0.000116633 -0.000238031 0)
(-4.07297e-05 -9.7767e-05 0)
(-3.69991e-06 -7.97635e-06 0)
(-1.46903e-05 0.000216084 0)
(-0.000132512 0.000611395 0)
(-0.000331371 0.000963578 0)
(-0.000605996 0.00126723 0)
(-0.000936028 0.00152238 0)
(-0.00131215 0.00173174 0)
(-0.00172517 0.00189975 0)
(-0.00216748 0.00203164 0)
(-0.00263277 0.00213284 0)
(-0.00311582 0.00220855 0)
(-0.00361232 0.00226353 0)
(-0.00411873 0.00230192 0)
(-0.00463217 0.00232726 0)
(-0.00515033 0.00234249 0)
(-0.00567136 0.00234997 0)
(-0.00619379 0.00235156 0)
(-0.00671646 0.00234872 0)
(-0.00723844 0.00234253 0)
(-0.00775901 0.00233378 0)
(-0.00827755 0.00232302 0)
(-0.00879358 0.00231062 0)
(-0.00930667 0.00229683 0)
(-0.00981642 0.00228175 0)
(-0.0103225 0.00226545 0)
(-0.0108245 0.00224792 0)
(-0.0113222 0.00222911 0)
(-0.0118152 0.00220895 0)
(-0.0123031 0.00218737 0)
(-0.0127856 0.00216427 0)
(-0.0132623 0.00213954 0)
(-0.0137327 0.00211308 0)
(-0.0141965 0.00208478 0)
(-0.0146533 0.00205454 0)
(-0.0151024 0.00202224 0)
(-0.0155436 0.00198777 0)
(-0.0159763 0.00195104 0)
(-0.0163999 0.00191194 0)
(-0.0168139 0.00187037 0)
(-0.0172177 0.00182622 0)
(-0.0176109 0.00177941 0)
(-0.0179927 0.00172985 0)
(-0.0183626 0.00167744 0)
(-0.01872 0.00162212 0)
(-0.0190642 0.00156381 0)
(-0.0193945 0.00150245 0)
(-0.0197104 0.00143798 0)
(-0.0200111 0.00137038 0)
(-0.020296 0.0012996 0)
(-0.0205644 0.00122562 0)
(-0.0208158 0.00114846 0)
(-0.0210493 0.00106811 0)
(-0.0212644 0.000984611 0)
(-0.0214604 0.000898006 0)
(-0.0216367 0.000808361 0)
(-0.0217928 0.000715761 0)
(-0.021928 0.000620309 0)
(-0.0220418 0.00052213 0)
(-0.0221337 0.000421371 0)
(-0.0222031 0.0003182 0)
(-0.0222498 0.000212804 0)
(-0.0222733 0.000105394 0)
(-0.0222732 -3.79954e-06 0)
(-0.0222493 -0.000114526 0)
(-0.0222013 -0.000226516 0)
(-0.0221291 -0.000339482 0)
(-0.0220326 -0.00045312 0)
(-0.0219117 -0.000567112 0)
(-0.0217664 -0.000681127 0)
(-0.0215969 -0.000794824 0)
(-0.0214033 -0.000907854 0)
(-0.0211858 -0.00101986 0)
(-0.0209448 -0.0011305 0)
(-0.0206806 -0.00123939 0)
(-0.0203937 -0.00134621 0)
(-0.0200847 -0.00145059 0)
(-0.019754 -0.00155221 0)
(-0.0194024 -0.00165074 0)
(-0.0190306 -0.00174588 0)
(-0.0186392 -0.00183734 0)
(-0.0182293 -0.00192485 0)
(-0.0178015 -0.00200818 0)
(-0.0173569 -0.00208711 0)
(-0.0168963 -0.00216144 0)
(-0.0164208 -0.00223102 0)
(-0.0159313 -0.00229571 0)
(-0.0154289 -0.00235541 0)
(-0.0149146 -0.00241005 0)
(-0.0143895 -0.00245956 0)
(-0.0138545 -0.00250392 0)
(-0.0133109 -0.00254311 0)
(-0.0127595 -0.00257713 0)
(-0.0122015 -0.00260598 0)
(-0.011638 -0.00262965 0)
(-0.0110699 -0.00264813 0)
(-0.0104984 -0.00266136 0)
(-0.00992452 -0.00266928 0)
(-0.00934939 -0.00267173 0)
(-0.00877415 -0.0026685 0)
(-0.0082 -0.00265929 0)
(-0.00762822 -0.00264369 0)
(-0.00706016 -0.00262117 0)
(-0.00649733 -0.00259104 0)
(-0.00594134 -0.00255249 0)
(-0.00539402 -0.00250452 0)
(-0.00485737 -0.00244599 0)
(-0.00433362 -0.00237561 0)
(-0.00382525 -0.00229198 0)
(-0.00333499 -0.00219361 0)
(-0.00286582 -0.00207904 0)
(-0.00242096 -0.00194694 0)
(-0.00200382 -0.00179626 0)
(-0.00161791 -0.00162649 0)
(-0.00126679 -0.00143795 0)
(-0.000953837 -0.00123221 0)
(-0.000682179 -0.00101258 0)
(-0.000454418 -0.000784742 0)
(-0.000272427 -0.00055746 0)
(-0.000136533 -0.000343276 0)
(-4.87005e-05 -0.000159096 0)
(-4.57593e-06 -2.73445e-05 0)
(-1.59382e-05 0.000280375 0)
(-0.0001437 0.000778737 0)
(-0.000358999 0.00121318 0)
(-0.000655674 0.00158276 0)
(-0.00101121 0.00189073 0)
(-0.00141528 0.00214232 0)
(-0.00185785 0.00234388 0)
(-0.00233076 0.0025022 0)
(-0.00282734 0.00262396 0)
(-0.00334216 0.00271539 0)
(-0.00387078 0.00278212 0)
(-0.00440955 0.00282903 0)
(-0.00495554 0.00286028 0)
(-0.00550639 0.00287932 0)
(-0.0060602 0.00288893 0)
(-0.00661545 0.00289133 0)
(-0.00717093 0.00288823 0)
(-0.00772569 0.00288093 0)
(-0.00827893 0.00287039 0)
(-0.00883001 0.00285727 0)
(-0.0093784 0.00284204 0)
(-0.00992363 0.00282498 0)
(-0.0104653 0.00280625 0)
(-0.0110029 0.00278593 0)
(-0.0115362 0.00276402 0)
(-0.0120648 0.00274047 0)
(-0.0125883 0.00271522 0)
(-0.0131062 0.00268816 0)
(-0.0136183 0.00265918 0)
(-0.014124 0.00262816 0)
(-0.0146229 0.00259499 0)
(-0.0151147 0.00255953 0)
(-0.0155987 0.00252165 0)
(-0.0160746 0.00248123 0)
(-0.0165418 0.00243813 0)
(-0.0169997 0.00239224 0)
(-0.0174478 0.00234343 0)
(-0.0178856 0.00229158 0)
(-0.0183124 0.00223657 0)
(-0.0187276 0.00217829 0)
(-0.0191306 0.00211663 0)
(-0.0195208 0.0020515 0)
(-0.0198974 0.0019828 0)
(-0.0202599 0.00191046 0)
(-0.0206074 0.0018344 0)
(-0.0209395 0.00175456 0)
(-0.0212552 0.0016709 0)
(-0.0215541 0.00158338 0)
(-0.0218353 0.00149199 0)
(-0.0220981 0.00139673 0)
(-0.022342 0.00129763 0)
(-0.0225661 0.00119472 0)
(-0.0227699 0.00108806 0)
(-0.0229528 0.000977748 0)
(-0.023114 0.00086388 0)
(-0.0232529 0.000746593 0)
(-0.0233692 0.000626044 0)
(-0.0234621 0.000502414 0)
(-0.0235313 0.000375912 0)
(-0.0235762 0.000246772 0)
(-0.0235966 0.000115252 0)
(-0.0235919 -1.83637e-05 0)
(-0.0235621 -0.000153768 0)
(-0.0235068 -0.000290631 0)
(-0.0234259 -0.000428603 0)
(-0.0233193 -0.000567312 0)
(-0.023187 -0.000706372 0)
(-0.0230289 -0.000845382 0)
(-0.0228454 -0.000983928 0)
(-0.0226364 -0.00112159 0)
(-0.0224024 -0.00125793 0)
(-0.0221437 -0.00139254 0)
(-0.0218606 -0.00152497 0)
(-0.0215537 -0.00165481 0)
(-0.0212236 -0.00178163 0)
(-0.0208708 -0.00190505 0)
(-0.0204962 -0.00202467 0)
(-0.0201003 -0.00214014 0)
(-0.0196842 -0.00225109 0)
(-0.0192486 -0.00235723 0)
(-0.0187946 -0.00245827 0)
(-0.0183229 -0.00255394 0)
(-0.0178348 -0.00264403 0)
(-0.0173311 -0.00272834 0)
(-0.016813 -0.00280673 0)
(-0.0162815 -0.00287906 0)
(-0.0157378 -0.00294525 0)
(-0.015183 -0.00300524 0)
(-0.0146181 -0.00305899 0)
(-0.0140443 -0.00310649 0)