/*--------------------------------*- C++ -*----------------------------------*\
| =========                 |                                                 |
| \\      /  F ield         | OpenFOAM: The Open Source CFD Toolbox           |
|  \\    /   O peration     | Version:  2406                                  |
|   \\  /    A nd           | Website:  www.openfoam.com                      |
|    \\/     M anipulation  |                                                 |
\*---------------------------------------------------------------------------*/
FoamFile
{
    version     2.0;
    format      ascii;
    arch        "LSB;label=32;scalar=64";
    class       volScalarField;
    location    "6.3";
    object      p;
}
// * * * * * * * * * * * * * * * * * * * * * * * * * * * * * * * * * * * * * //

dimensions      [0 2 -2 0 0 0 0];

internalField   nonuniform List<scalar> 
3600
(
0.00896085
0.0089547
0.008954
0.00895109
0.0089564
0.00896116
0.00897354
0.00898597
0.00900489
0.00902435
0.00904939
0.00907549
0.00910651
0.00913907
0.00917606
0.00921496
0.00925789
0.00930297
0.00935173
0.00940271
0.009457
0.00951344
0.00957275
0.00963395
0.00969744
0.00976238
0.0098289
0.0098962
0.0099642
0.0100321
0.0100997
0.0101661
0.010231
0.0102937
0.0103536
0.0104102
0.0104629
0.0105112
0.0105548
0.0105932
0.0106263
0.0106539
0.0106761
0.0106927
0.0107042
0.0107107
0.0107127
0.0107105
0.0107048
0.0106957
0.0106844
0.0106709
0.0106562
0.0106405
0.0106249
0.0106096
0.0105961
0.0105847
0.010577
0.0105742
0.00896689
0.00896062
0.00896222
0.00896078
0.00896769
0.00897316
0.00898617
0.00899871
0.00901776
0.0090371
0.00906207
0.00908798
0.00911884
0.00915114
0.0091879
0.00922648
0.00926909
0.00931376
0.00936209
0.00941257
0.00946631
0.00952213
0.00958074
0.00964117
0.00970384
0.00976787
0.00983341
0.00989967
0.00996655
0.0100333
0.0100996
0.0101648
0.0102285
0.0102898
0.0103485
0.0104038
0.0104553
0.0105024
0.0105449
0.0105823
0.0106145
0.0106413
0.0106627
0.0106788
0.0106899
0.010696
0.0106979
0.0106956
0.0106899
0.0106812
0.0106703
0.0106573
0.0106435
0.0106288
0.0106147
0.0106011
0.0105895
0.01058
0.0105738
0.0105711
0.00896775
0.00895893
0.00896071
0.00895858
0.00896593
0.00897126
0.00898458
0.00899707
0.00901628
0.00903557
0.00906061
0.00908645
0.00911732
0.00914957
0.00918632
0.00922485
0.00926746
0.00931211
0.00936046
0.00941096
0.00946475
0.00952064
0.00957936
0.00963993
0.00970277
0.00976702
0.00983282
0.00989936
0.00996658
0.0100337
0.0101004
0.010166
0.01023
0.0102918
0.0103508
0.0104064
0.0104582
0.0105055
0.0105481
0.0105855
0.0106175
0.0106441
0.0106652
0.0106809
0.0106914
0.010697
0.0106981
0.0106951
0.0106888
0.0106793
0.0106678
0.0106541
0.0106398
0.0106245
0.0106101
0.010596
0.0105842
0.010574
0.0105677
0.010564
0.00897013
0.00895931
0.00896202
0.00895982
0.0089683
0.00897386
0.00898786
0.00900042
0.00901992
0.00903914
0.00906423
0.00908992
0.00912073
0.00915278
0.00918939
0.0092277
0.00927014
0.00931456
0.0093627
0.00941296
0.00946655
0.00952221
0.00958074
0.00964112
0.00970379
0.00976787
0.00983354
0.00989996
0.00996708
0.0100341
0.0101008
0.0101663
0.0102302
0.0102919
0.0103507
0.0104061
0.0104576
0.0105046
0.0105467
0.0105836
0.010615
0.0106408
0.0106611
0.0106759
0.0106855
0.0106901
0.0106902
0.0106863
0.0106791
0.0106688
0.0106566
0.0106425
0.0106278
0.0106125
0.0105982
0.0105843
0.0105731
0.0105631
0.0105571
0.0105524
0.00896329
0.00895029
0.00895304
0.00894989
0.00895868
0.00896388
0.00897819
0.00899062
0.00901033
0.00902947
0.00905469
0.00908034
0.00911123
0.00914328
0.00917998
0.00921834
0.00926091
0.00930547
0.00935383
0.00940435
0.00945829
0.00951437
0.00957341
0.00963439
0.00969778
0.00976268
0.00982927
0.00989672
0.00996496
0.0100332
0.0101011
0.0101679
0.0102331
0.010296
0.010356
0.0104125
0.0104648
0.0105125
0.0105551
0.0105921
0.0106235
0.010649
0.0106686
0.0106825
0.0106909
0.0106942
0.0106929
0.0106875
0.0106786
0.0106668
0.010653
0.0106373
0.0106213
0.0106047
0.0105893
0.0105743
0.0105623
0.0105513
0.0105449
0.0105392
0.00895507
0.00894068
0.00894387
0.00894035
0.0089498
0.00895498
0.00896978
0.0089822
0.00900219
0.00902127
0.00904662
0.00907217
0.00910311
0.00913507
0.0091718
0.00921012
0.00925273
0.00929732
0.0093458
0.00939647
0.00945064
0.00950701
0.00956646
0.00962792
0.0096919
0.00975749
0.00982488
0.00989322
0.00996244
0.0100317
0.0101007
0.0101686
0.010235
0.0102989
0.0103599
0.0104172
0.0104701
0.0105182
0.0105609
0.0105978
0.0106286
0.0106533
0.0106719
0.0106844
0.0106912
0.0106928
0.0106896
0.0106822
0.0106714
0.0106578
0.0106422
0.0106252
0.0106079
0.0105902
0.010574
0.0105585
0.0105461
0.0105348
0.0105282
0.0105221
0.00893648
0.00892083
0.00892406
0.00891985
0.00892949
0.00893432
0.00894934
0.00896159
0.00898177
0.00900079
0.00902631
0.00905189
0.00908301
0.00911508
0.00915205
0.00919059
0.00923356
0.00927854
0.00932756
0.00937883
0.00943377
0.00949102
0.00955152
0.00961419
0.00967956
0.00974671
0.00981583
0.00988607
0.00995733
0.0100288
0.0101
0.0101702
0.0102388
0.0103049
0.0103679
0.010427
0.0104815
0.0105307
0.0105742
0.0106114
0.0106421
0.0106662
0.0106836
0.0106947
0.0106996
0.0106989
0.0106933
0.0106834
0.0106699
0.0106537
0.0106357
0.0106164
0.0105969
0.0105774
0.0105596
0.0105427
0.0105291
0.010517
0.0105098
0.0105035
0.00891508
0.0088987
0.00890217
0.00889769
0.00890772
0.00891246
0.00892781
0.00894002
0.00896042
0.00897942
0.0090051
0.00903068
0.00906196
0.0090941
0.00913126
0.00917
0.00921328
0.00925861
0.00930813
0.00935998
0.00941567
0.00947381
0.00953538
0.00959928
0.00966608
0.00973484
0.00980577
0.00987798
0.00995137
0.0100251
0.0100986
0.0101712
0.0102421
0.0103105
0.0103756
0.0104365
0.0104924
0.0105427
0.0105867
0.0106241
0.0106542
0.0106773
0.0106931
0.0107021
0.0107045
0.0107012
0.0106925
0.0106795
0.010663
0.0106439
0.010623
0.0106013
0.0105796
0.0105584
0.010539
0.0105211
0.0105067
0.0104942
0.0104867
0.0104806
0.00888303
0.00886596
0.00886947
0.00886457
0.00887471
0.00887921
0.0088947
0.00890679
0.00892737
0.00894636
0.00897225
0.00899794
0.0090295
0.00906189
0.00909947
0.00913864
0.00918253
0.00922856
0.00927895
0.00933183
0.00938875
0.00944831
0.00951155
0.00957734
0.0096463
0.00971746
0.00979104
0.00986615
0.00994264
0.0100196
0.0100965
0.0101726
0.0102469
0.0103186
0.0103867
0.0104503
0.0105085
0.0105606
0.0106057
0.0106434
0.0106732
0.0106953
0.0107093
0.010716
0.0107154
0.0107087
0.0106963
0.0106796
0.0106592
0.0106364
0.010612
0.0105871
0.0105625
0.010539
0.0105174
0.010498
0.0104822
0.0104692
0.0104611
0.0104555
0.00884746
0.00883
0.00883367
0.0088286
0.00883898
0.00884342
0.00885911
0.00887117
0.00889192
0.00891093
0.00893699
0.00896277
0.00899456
0.00902716
0.0090651
0.00910467
0.00914913
0.00919581
0.00924707
0.00930096
0.00935914
0.00942016
0.00948513
0.00955292
0.00962416
0.00969789
0.00977432
0.00985255
0.00993239
0.0100129
0.0100936
0.0101733
0.0102514
0.0103267
0.0103981
0.0104647
0.0105253
0.0105792
0.0106253
0.0106634
0.0106926
0.0107132
0.0107249
0.0107286
0.0107243
0.0107136
0.0106967
0.0106755
0.0106505
0.0106236
0.0105951
0.0105669
0.0105391
0.0105133
0.0104896
0.0104689
0.0104519
0.0104386
0.0104301
0.0104252
0.00880105
0.00878318
0.00878687
0.00878153
0.00879199
0.00879626
0.00881205
0.00882405
0.00884494
0.00886398
0.00889027
0.00891623
0.00894837
0.00898133
0.0090198
0.00905998
0.00910524
0.00915287
0.0092053
0.00926058
0.00932041
0.00938336
0.00945058
0.00952093
0.00959509
0.00967209
0.00975216
0.00983436
0.00991847
0.0100035
0.0100889
0.0101735
0.0102564
0.0103363
0.0104121
0.0104826
0.0105465
0.0106029
0.0106506
0.0106892
0.0107179
0.010737
0.010746
0.0107462
0.0107376
0.010722
0.0106998
0.0106733
0.0106429
0.010611
0.0105777
0.0105454
0.0105139
0.0104852
0.0104589
0.0104368
0.0104182
0.0104046
0.0103956
0.0103916
0.00875087
0.00873278
0.00873656
0.00873112
0.0087417
0.00874591
0.00876181
0.00877377
0.00879477
0.00881381
0.00884024
0.00886629
0.00889867
0.00893189
0.00897078
0.00901147
0.00905743
0.00910591
0.00915944
0.00921604
0.0092775
0.00934238
0.00941188
0.00948489
0.0095621
0.00964257
0.00972651
0.00981299
0.00990176
0.00999181
0.0100824
0.0101724
0.0102606
0.0103458
0.0104265
0.0105015
0.010569
0.0106283
0.0106776
0.0107169
0.0107447
0.0107619
0.0107676
0.0107635
0.0107496
0.0107283
0.0106997
0.010667
0.0106302
0.0105927
0.010554
0.0105174
0.0104818
0.0104504
0.0104214
0.0103979
0.0103779
0.0103642
0.0103547
0.0103519
0.0086895
0.00867109
0.00867488
0.00866922
0.00867983
0.00868389
0.00869984
0.00871172
0.0087328
0.00875187
0.00877846
0.00880467
0.00883736
0.00887094
0.00891036
0.00895169
0.00899851
0.00904804
0.00910287
0.00916105
0.00922442
0.00929156
0.00936373
0.00943984
0.00952062
0.00960514
0.00969364
0.00978518
0.00987948
0.00997548
0.0100723
0.0101689
0.0102636
0.0103553
0.0104421
0.0105227
0.0105949
0.0106578
0.0107095
0.0107497
0.0107769
0.0107919
0.0107938
0.0107848
0.0107645
0.0107364
0.0107003
0.0106603
0.0106162
0.0105722
0.0105273
0.0104858
0.0104457
0.0104111
0.0103793
0.0103543
0.0103327
0.0103191
0.010309
0.0103075
0.00862453
0.00860595
0.00860978
0.00860402
0.00861466
0.00861861
0.00863455
0.0086463
0.00866735
0.00868631
0.0087129
0.00873909
0.00877188
0.00880561
0.00884533
0.00888708
0.00893451
0.00898487
0.0090408
0.00910036
0.00916547
0.00923475
0.0093095
0.00938868
0.00947307
0.00956178
0.00965504
0.00975196
0.00985219
0.00995468
0.0100585
0.0101623
0.0102644
0.0103635
0.0104573
0.0105443
0.010622
0.0106893
0.0107437
0.010785
0.0108112
0.0108236
0.0108209
0.0108058
0.0107781
0.0107419
0.010697
0.0106485
0.0105959
0.0105446
0.0104929
0.0104461
0.0104013
0.0103637
0.010329
0.0103029
0.0102798
0.0102665
0.010256
0.010256
0.0085477
0.00852884
0.00853262
0.00852664
0.00853722
0.00854098
0.00855684
0.00856842
0.0085894
0.00860826
0.00863484
0.00866102
0.00869393
0.00872783
0.00876788
0.00881009
0.0088582
0.00890943
0.00896652
0.00902756
0.00909452
0.00916608
0.00924359
0.0093261
0.0094144
0.0095077
0.00960625
0.00970918
0.00981613
0.00992604
0.0100378
0.0101501
0.010261
0.0103689
0.0104712
0.0105661
0.0106507
0.0107234
0.0107815
0.0108244
0.0108499
0.0108593
0.0108512
0.0108292
0.0107926
0.0107468
0.0106916
0.0106333
0.0105711
0.0105115
0.0104523
0.0103999
0.0103501
0.0103095
0.0102719
0.0102448
0.0102204
0.0102075
0.0101967
0.0101985
0.00846786
0.00844887
0.00845264
0.00844651
0.008457
0.00846052
0.00847618
0.00848747
0.00850816
0.00852667
0.00855295
0.00857882
0.00861148
0.00864519
0.00868518
0.00872743
0.00877577
0.00882746
0.00888528
0.00894737
0.00901578
0.00908925
0.00916921
0.00925477
0.00934681
0.00944461
0.00954846
0.00965757
0.00977156
0.0098894
0.0100099
0.0101315
0.0102522
0.0103701
0.0104822
0.0105863
0.010679
0.0107583
0.0108207
0.0108656
0.0108902
0.0108961
0.0108817
0.0108512
0.0108041
0.010747
0.0106797
0.0106101
0.0105369
0.0104684
0.0104011
0.010343
0.0102883
0.010245
0.010205
0.0101773
0.0101518
0.0101399
0.0101289
0.0101328
0.00837514
0.00835588
0.00835954
0.00835313
0.00836342
0.00836662
0.008382
0.00839291
0.00841328
0.00843141
0.00845734
0.00848287
0.00851524
0.00854871
0.00858855
0.00863078
0.00867926
0.00873129
0.00878971
0.00885272
0.00892243
0.00899768
0.00907996
0.00916851
0.00926427
0.00936664
0.00947598
0.00959162
0.00971318
0.00983967
0.0099698
0.0101021
0.010234
0.0103636
0.0104873
0.0106026
0.0107051
0.0107926
0.0108606
0.0109084
0.0109324
0.0109344
0.0109126
0.0108721
0.0108126
0.0107423
0.0106609
0.0105784
0.010493
0.0104147
0.0103389
0.0102753
0.0102159
0.0101706
0.0101285
0.010101
0.0100749
0.0100643
0.0100533
0.0100596
0.00828053
0.00826119
0.00826476
0.00825814
0.00826816
0.00827095
0.00828584
0.00829615
0.00831585
0.00833323
0.00835838
0.00838308
0.00841462
0.00844727
0.00848634
0.00852789
0.00857582
0.00862747
0.00868574
0.00874893
0.00881919
0.00889548
0.00897935
0.0090702
0.00916905
0.00927548
0.0093899
0.00951182
0.00964089
0.00977624
0.00991649
0.0100601
0.0102044
0.0103471
0.0104839
0.010612
0.0107261
0.0108233
0.0108982
0.0109496
0.010973
0.0109706
0.0109401
0.0108879
0.0108137
0.0107277
0.0106301
0.0105328
0.0104339
0.0103453
0.010261
0.0101924
0.0101292
0.0100828
0.0100398
0.0100133
0.00998733
0.00997875
0.00996808
0.00997708
0.00817157
0.00815197
0.00815535
0.00814835
0.00815798
0.00816024
0.00817457
0.00818419
0.00820317
0.00821974
0.00824404
0.00826783
0.00829844
0.00833016
0.0083683
0.00840896
0.00845606
0.00850703
0.00856479
0.00862773
0.00869804
0.00877484
0.00885974
0.00895232
0.00905369
0.00916365
0.00928272
0.00941064
0.00954714
0.00969153
0.00984239
0.00999825
0.0101561
0.0103134
0.0104654
0.0106084
0.0107363
0.0108453
0.0109288
0.010985
0.0110085
0.0110016
0.0109616
0.010896
0.0108051
0.0107012
0.0105848
0.0104711
0.0103573
0.0102581
0.0101656
0.010093
0.0100271
0.00998139
0.00993868
0.00991474
0.00988973
0.00988393
0.00987394
0.00988591
0.00806256
0.00804296
0.00804616
0.00803885
0.00804797
0.00804956
0.00806302
0.00807162
0.0080894
0.00810464
0.00812745
0.00814967
0.00817857
0.00820852
0.00824482
0.00828365
0.0083289
0.00837812
0.00843421
0.0084957
0.00856482
0.00864084
0.00872543
0.00881839
0.00892094
0.00903312
0.00915561
0.00928841
0.0094314
0.00958415
0.00974527
0.00991336
0.0100852
0.0102579
0.010426
0.0105852
0.0107282
0.0108503
0.0109437
0.0110058
0.0110303
0.0110195
0.0109701
0.0108908
0.0107819
0.0106584
0.0105214
0.0103892
0.0102591
0.010149
0.0100484
0.00997335
0.00990647
0.00986345
0.00982288
0.00980313
0.00978032
0.0097782
0.00976938
0.00978453
0.00793719
0.00791735
0.00792024
0.00791242
0.00792091
0.00792169
0.00793421
0.00794172
0.00795825
0.00797211
0.00799339
0.00801394
0.00804102
0.00806903
0.00810324
0.00813991
0.00818289
0.00822981
0.00828358
0.00834285
0.00840984
0.00848401
0.0085671
0.00865913
0.00876141
0.00887433
0.00899869
0.0091349
0.009283
0.00944295
0.00961341
0.00979315
0.00997864
0.0101667
0.0103509
0.0105263
0.0106841
0.010819
0.0109221
0.0109907
0.0110177
0.0110055
0.0109502
0.0108611
0.0107379
0.0105973
0.0104405
0.0102897
0.010142
0.01002
0.00991099
0.00983437
0.0097679
0.00972983
0.00969333
0.00967969
0.0096604
0.00966286
0.00965566
0.00967398
0.00781451
0.00779479
0.00779739
0.00778917
0.00779685
0.00779665
0.0078078
0.00781377
0.00782842
0.00784021
0.00785909
0.00787706
0.00790127
0.00792624
0.00795714
0.00799034
0.00802962
0.00807275
0.00812255
0.00817785
0.00824084
0.00831116
0.00839057
0.00847936
0.00857892
0.00869
0.00881357
0.00895047
0.00910096
0.0092654
0.00944251
0.00963113
0.00982716
0.0100267
0.0102222
0.0104074
0.0105724
0.0107115
0.0108159
0.010884
0.01091
0.0108982
0.0108449
0.0107593
0.0106382
0.0104972
0.0103342
0.0101736
0.0100122
0.0098786
0.00975958
0.00968036
0.00961377
0.00958165
0.00955032
0.00954426
0.00952951
0.00953714
0.00953189
0.00955307
0.00767276
0.00765283
0.00765499
0.00764611
0.00765286
0.00765155
0.00766131
0.0076657
0.00767848
0.00768821
0.00770471
0.00772008
0.00774134
0.0077631
0.00779041
0.00781976
0.00785478
0.00789338
0.00793827
0.00798843
0.00804596
0.00811073
0.00818441
0.00826764
0.0083618
0.00846806
0.0085875
0.00872151
0.00887047
0.00903518
0.00921411
0.00940573
0.00960448
0.00980471
0.00999603
0.01017
0.0103148
0.0104254
0.0104958
0.0105312
0.0105329
0.0105131
0.0104718
0.0104188
0.0103444
0.0102559
0.010139
0.010012
0.00986583
0.00973539
0.0096098
0.00952607
0.00945572
0.00942743
0.00939998
0.00940141
0.00939111
0.00940377
0.00940024
0.00942353
0.00753767
0.00751802
0.00751977
0.00751039
0.00751599
0.00751333
0.00752118
0.00752341
0.0075335
0.00754027
0.0075533
0.00756489
0.00758185
0.00759898
0.00762112
0.00764493
0.00767384
0.00770594
0.00774373
0.0077864
0.00783584
0.00789217
0.00795693
0.00803104
0.00811583
0.00821288
0.00832331
0.00844897
0.00859019
0.00874777
0.00891902
0.00910046
0.00928258
0.00945459
0.00959942
0.00970292
0.00975041
0.00974084
0.00967911
0.00958932
0.00949423
0.00942706
0.00939942
0.00942478
0.00948234
0.00956161
0.00961976
0.00965017
0.00962079
0.00956217
0.00946531
0.00938767
0.00931045
0.00927988
0.00925044
0.00925579
0.00924752
0.00926327
0.00926037
0.00928428
0.00737983
0.00736002
0.00736117
0.00735098
0.00735534
0.00735124
0.00735722
0.00735737
0.00736493
0.0073689
0.00737862
0.00738657
0.00739929
0.00741176
0.00742852
0.00744644
0.00746864
0.0074934
0.00752291
0.00755658
0.00759599
0.0076415
0.00769436
0.00775581
0.00782694
0.00790974
0.00800513
0.00811532
0.00823987
0.00837861
0.00852527
0.00867074
0.00879548
0.00887592
0.00887974
0.00878217
0.00856722
0.00825017
0.00786665
0.00748359
0.00716297
0.00697231
0.00694103
0.00709128
0.00739075
0.00780739
0.00825615
0.00868254
0.00899984
0.00920196
0.00926241
0.00925706
0.0091935
0.00915778
0.00911694
0.00911801
0.00910549
0.00911992
0.00911492
0.00913723
0.00723422
0.00721489
0.00721551
0.00720474
0.0072076
0.00720179
0.00720524
0.00720258
0.00720657
0.00720661
0.00721165
0.00721448
0.00722129
0.00722734
0.00723679
0.00724675
0.00725996
0.00727495
0.00729347
0.00731518
0.00734118
0.0073721
0.00740872
0.00745255
0.00750422
0.00756604
0.00763833
0.00772305
0.00781767
0.00791826
0.00801
0.00806994
0.00805669
0.00792018
0.00760298
0.00707221
0.00633003
0.00544008
0.00449879
0.00363459
0.00295267
0.00255369
0.00248035
0.00276684
0.00337565
0.00426752
0.00532324
0.00643851
0.0074463
0.00825505
0.00876535
0.00903025
0.00908055
0.00906793
0.00901102
0.0089961
0.00896904
0.00897387
0.0089622
0.00897958
0.00706084
0.00704138
0.00704126
0.00702954
0.00703086
0.00702332
0.00702447
0.00701927
0.0070201
0.00701665
0.00701748
0.00701565
0.0070169
0.00701678
0.00701895
0.00702082
0.00702459
0.00702906
0.00703536
0.00704346
0.00705376
0.0070672
0.00708375
0.00710525
0.00713144
0.0071648
0.00720423
0.00725044
0.00729585
0.00732793
0.00731379
0.00720284
0.00691366
0.00635704
0.00545464
0.00419751
0.00265287
0.000974779
-0.000665182
-0.00208541
-0.00316457
-0.00379416
-0.00394118
-0.00356297
-0.00269553
-0.00135411
0.000345683
0.00229608
0.00427336
0.00608385
0.00748847
0.00841336
0.00884469
0.00897928
0.00893629
0.00889801
0.00884345
0.00882748
0.00880208
0.00881052
0.00690736
0.00688864
0.00688788
0.00687553
0.00687501
0.00686542
0.00686344
0.00685479
0.00685115
0.00684282
0.00683772
0.00682944
0.0068231
0.00681471
0.0068073
0.00679868
0.00679035
0.00678149
0.00677244
0.00676351
0.00675416
0.00674564
0.00673683
0.00672978
0.00672292
0.00671847
0.00671273
0.00670296
0.00667174
0.00658913
0.00638964
0.00597571
0.00521087
0.0039741
0.00220972
8.67913e-07
-0.00246506
-0.00492885
-0.00717224
-0.00900803
-0.01035
-0.0111192
-0.0113218
-0.0109178
-0.00994614
-0.00837632
-0.00628228
-0.00369888
-0.000821333
0.00213395
0.00479899
0.00688195
0.00816407
0.0087581
0.00885833
0.00881447
0.0087246
0.00867386
0.00862653
0.00862054
0.00671917
0.00670033
0.00669871
0.0066853
0.00668303
0.00667151
0.0066669
0.00665541
0.00664813
0.00663582
0.00662576
0.00661201
0.00659895
0.00658309
0.00656662
0.00654787
0.00652738
0.00650486
0.00647951
0.00645215
0.00642091
0.00638747
0.00634911
0.00630813
0.0062608
0.00620869
0.00614334
0.00605548
0.00591017
0.00564834
0.00515341
0.00426621
0.0028008
0.000654821
-0.00212334
-0.0052883
-0.00852379
-0.0115104
-0.0140546
-0.01602
-0.0173946
-0.0181444
-0.0183266
-0.0179106
-0.0169568
-0.015399
-0.0132794
-0.0105248
-0.00722674
-0.00347989
0.000366885
0.00387587
0.00652931
0.0080942
0.00867277
0.0087197
0.00860006
0.00850644
0.00842714
0.00840062
0.00656131
0.0065435
0.00654116
0.00652717
0.00652275
0.00650894
0.00650065
0.00648517
0.00647258
0.00645453
0.00643739
0.00641599
0.00639378
0.00636798
0.00633978
0.00630822
0.00627263
0.00623343
0.00618843
0.00613904
0.00608174
0.00601868
0.00594509
0.00586338
0.00576688
0.00565558
0.00551366
0.00532045
0.00501409
0.00449199
0.00357146
0.00203377
-0.000313013
-0.00346769
-0.0072009
-0.0110957
-0.0147726
-0.0179403
-0.0204943
-0.0223706
-0.0236246
-0.024245
-0.0243267
-0.0238431
-0.0228941
-0.0214067
-0.0194425
-0.0168598
-0.0136696
-0.0097745
-0.00534294
-0.000708541
0.00347571
0.00652228
0.00811362
0.00854234
0.00843947
0.00830325
0.00818579
0.00812803
0.0063591
0.00634113
0.00633783
0.00632274
0.00631647
0.00630071
0.00628969
0.00627134
0.00625492
0.00623277
0.00621027
0.00618301
0.00615332
0.00611924
0.00608066
0.0060375
0.00598754
0.00593216
0.00586729
0.00579531
0.00571038
0.00561551
0.00550299
0.00537564
0.00522239
0.00504101
0.0048044
0.00447564
0.00395498
0.00308552
0.00161401
-0.000707243
-0.00400639
-0.0080983
-0.0125595
-0.0168705
-0.0206967
-0.0238417
-0.0263054
-0.0280637
-0.0291987
-0.0296802
-0.0296192
-0.0289809
-0.0279181
-0.0263727
-0.0244774
-0.0220818
-0.0192036
-0.0156058
-0.0112676
-0.00622539
-0.000963025
0.00367816
0.00677711
0.00813165
0.00820504
0.00803677
0.00788895
0.00778187
0.00620125
0.00618466
0.00618063
0.00616507
0.00615645
0.00613827
0.00612313
0.00610041
0.006078
0.00604949
0.00601894
0.00598315
0.00594301
0.00589779
0.00584574
0.00578805
0.00572058
0.005646
0.00555792
0.00546001
0.00534359
0.00521276
0.00505618
0.00487711
0.00465885
0.0043958
0.004046
0.00355085
0.00276412
0.00146929
-0.00064446
-0.00380437
-0.00800569
-0.0128498
-0.0177778
-0.0222768
-0.0261375
-0.0292684
-0.0317361
-0.0334982
-0.0346186
-0.0350119
-0.0347943
-0.0339149
-0.0325905
-0.030788
-0.0287405
-0.0263269
-0.0236441
-0.0204078
-0.0165108
-0.0117078
-0.00612367
-0.000394562
0.00438147
0.00710973
0.00788172
0.00764169
0.00751523
0.00732655
0.00598555
0.00596868
0.00596366
0.00594704
0.00593667
0.00591682
0.00589916
0.00587398
0.00584797
0.00581579
0.00578002
0.00573869
0.00569095
0.00563751
0.00557451
0.00550481
0.00542174
0.00532983
0.0052196
0.00509672
0.00494866
0.00478151
0.00457895
0.00434554
0.00405683
0.00370393
0.00322555
0.00253909
0.00144548
-0.000325079
-0.00311714
-0.00708368
-0.0120538
-0.0174416
-0.0226528
-0.0272647
-0.03122
-0.0344883
-0.0371495
-0.0390841
-0.0403123
-0.0406704
-0.0402856
-0.0390839
-0.0373601
-0.0351055
-0.0326726
-0.0299831
-0.0272487
-0.0241933
-0.0207345
-0.0164558
-0.0111834
-0.00511529
0.000918921
0.0052262
0.00728725
0.00712596
0.00700905
0.00675099
0.00583308
0.00581798
0.00581227
0.00579543
0.00578262
0.00576039
0.00573832
0.00570864
0.00567613
0.00563731
0.00559281
0.00554256
0.00548351
0.00541842
0.00534086
0.00525595
0.00515392
0.00504178
0.00490629
0.00475576
0.00457303
0.00436679
0.00411478
0.00382339
0.003459
0.0030093
0.0023912
0.00149723
7.56761e-05
-0.00218405
-0.00563136
-0.0103113
-0.0158926
-0.0216666
-0.0270911
-0.0318691
-0.0360731
-0.0396745
-0.0427198
-0.0449734
-0.046408
-0.0467728
-0.0462197
-0.0446431
-0.0424243
-0.0395691
-0.0365576
-0.0333591
-0.0303182
-0.0271951
-0.0239885
-0.0202154
-0.0155599
-0.00975982
-0.00326321
0.00252599
0.00594183
0.0066142
0.00621873
0.00605532
0.00560379
0.00558817
0.00558152
0.00556379
0.0055496
0.00552634
0.00550242
0.00547128
0.00543602
0.00539474
0.00534586
0.00529137
0.00522544
0.00515338
0.00506536
0.00496955
0.00485206
0.00472348
0.0045655
0.00439051
0.00417508
0.0039323
0.00363189
0.00328422
0.00284377
0.00229746
0.00153724
0.000435985
-0.00130865
-0.00402775
-0.00805849
-0.0133254
-0.0193787
-0.0254484
-0.0311007
-0.0361486
-0.0407593
-0.0448467
-0.0484037
-0.0510554
-0.0527466
-0.0531346
-0.0524186
-0.0504483
-0.0477015
-0.0441751
-0.0404784
-0.0366161
-0.0330715
-0.0296561
-0.0264688
-0.0230393
-0.0190084
-0.0138411
-0.00752094
-0.000861554
0.00383292
0.00593794
0.00520754
0.00519482
0.0054631
0.00544967
0.00544245
0.00542487
0.00540827
0.0053829
0.00535443
0.00531895
0.00527688
0.0052291
0.0051711
0.00510789
0.00503026
0.00494695
0.00484405
0.00473369
0.00459702
0.0044492
0.00426585
0.00406458
0.00381445
0.00353435
0.00318448
0.00278085
0.00226455
0.00162419
0.000726803
-0.000567616
-0.00260433
-0.00571812
-0.010227
-0.0159488
-0.0223661
-0.0286932
-0.0346181
-0.040026
-0.0451426
-0.0497859
-0.0538956
-0.056954
-0.0589056
-0.0593144
-0.05845
-0.0561029
-0.0528556
-0.0486693
-0.0442772
-0.0396975
-0.0355519
-0.0317007
-0.0283465
-0.0250692
-0.0215243
-0.0171071
-0.0113331
-0.00461831
0.00123962
0.00456
0.0041804
0.00399576
0.00521895
0.00520456
0.00519654
0.00517842
0.00516116
0.00513593
0.00510684
0.00507172
0.00502845
0.00498047
0.00491979
0.00485486
0.00477205
0.00468449
0.00457278
0.0044545
0.00430405
0.00414315
0.0039392
0.00371756
0.00343714
0.00312583
0.00273109
0.00227883
0.00169298
0.000970606
-4.82287e-05
-0.00150255
-0.00377631
-0.00718859
-0.0120517
-0.0180969
-0.0247958
-0.0313576
-0.0375869
-0.0433847
-0.0490218
-0.0541935
-0.0588166
-0.062229
-0.0644123
-0.0648265
-0.0638368
-0.0611553
-0.0574814
-0.0527101
-0.0476948
-0.0424341
-0.0376885
-0.0333482
-0.0297266
-0.0264507
-0.0232322
-0.0195011
-0.0144511
-0.00828442
-0.00168292
0.00238448
0.00314189
0.00236819
0.00509754
0.00508584
0.00507742
0.00505999
0.00504044
0.00501362
0.00497993
0.00494094
0.00489069
0.00483675
0.00476676
0.00469398
0.00459946
0.00450203
0.00437577
0.00424508
0.00407633
0.00389942
0.00367183
0.00342871
0.00311677
0.0027754
0.00233696
0.00184055
0.00119089
0.000399149
-0.000720337
-0.00229258
-0.00473223
-0.00833096
-0.013413
-0.019654
-0.0265579
-0.0333247
-0.0398496
-0.0460003
-0.0520885
-0.0576845
-0.062722
-0.0664003
-0.0687687
-0.0691717
-0.0680886
-0.065136
-0.0611408
-0.0559053
-0.0503996
-0.0445665
-0.0393063
-0.0345065
-0.0306047
-0.0272415
-0.0242325
-0.0210446
-0.0167733
-0.0114394
-0.00474101
-0.000267003
0.0017709
0.000334413
0.00483532
0.00482195
0.00481299
0.00479558
0.00477654
0.00475172
0.00471938
0.00468363
0.0046346
0.00458402
0.00451397
0.00444348
0.00434644
0.00424917
0.00411684
0.00398319
0.00380367
0.00361964
0.0033752
0.00311942
0.00278255
0.00242083
0.00194623
0.00141825
0.000716353
-0.000122983
-0.00131525
-0.00295077
-0.00547555
-0.00913438
-0.0142958
-0.0205975
-0.0276249
-0.0345396
-0.0413121
-0.0477162
-0.0541259
-0.0599833
-0.0652982
-0.0691266
-0.0716238
-0.0719964
-0.0708599
-0.0677099
-0.063516
-0.0579589
-0.052131
-0.0458787
-0.04025
-0.0350848
-0.0309663
-0.0274932
-0.024634
-0.0218407
-0.0183247
-0.0138811
-0.00772615
-0.00315666
-0.000358071
-0.00211162
0.00474203
0.00473189
0.00472276
0.00470677
0.00468562
0.00465997
0.00462297
0.00458411
0.00452784
0.00447227
0.00439268
0.00431581
0.00420711
0.00410228
0.00395602
0.00381349
0.00361717
0.00342237
0.0031572
0.00288776
0.00252461
0.00214482
0.00163612
0.00108367
0.000337791
-0.00053138
-0.00177025
-0.00341833
-0.00594896
-0.00954587
-0.0146444
-0.020866
-0.0279146
-0.0348951
-0.041832
-0.0483588
-0.0549257
-0.0608556
-0.0662867
-0.0701382
-0.0727012
-0.0730297
-0.0718884
-0.0686281
-0.0643672
-0.0586396
-0.0526692
-0.0461707
-0.0403509
-0.0349529
-0.0307295
-0.0271755
-0.0244571
-0.0219422
-0.0191074
-0.0154923
-0.0102835
-0.00592125
-0.00299908
-0.00462404
0.0044556
0.00444273
0.00443346
0.00441836
0.00439946
0.00437868
0.00434585
0.00431456
0.00426291
0.00421591
0.0041398
0.00407096
0.00396323
0.00386478
0.00371591
0.00357737
0.00337403
0.00318041
0.00290306
0.00263166
0.00225029
0.00186513
0.00133127
0.000770358
-6.60685e-06
-0.000880425
-0.0021389
-0.00374588
-0.0062112
-0.00962684
-0.0145268
-0.0205122
-0.0274619
-0.0343943
-0.0413991
-0.0479064
-0.0544711
-0.0602796
-0.0656649
-0.0694019
-0.0719648
-0.0722307
-0.0711361
-0.0678508
-0.063655
-0.0578993
-0.0519642
-0.0453928
-0.0395749
-0.0340958
-0.0299105
-0.0263384
-0.0237926
-0.0214764
-0.0192284
-0.0163118
-0.0121581
-0.00821138
-0.00549473
-0.00672127
0.00440089
0.00439191
0.00438271
0.00437002
0.00434913
0.00432857
0.00429078
0.00425741
0.00419786
0.00414715
0.00406078
0.00398751
0.00386773
0.00376479
0.00360224
0.00345944
0.00324055
0.00304294
0.00274763
0.00247247
0.00207014
0.00168166
0.00112359
0.00056137
-0.000240129
-0.00110272
-0.00236206
-0.00389076
-0.00623779
-0.00937997
-0.0139593
-0.0195539
-0.0262594
-0.0330093
-0.0399723
-0.0463376
-0.0527667
-0.0582948
-0.0634875
-0.0669852
-0.0694798
-0.0696642
-0.0686594
-0.065425
-0.0614091
-0.0557478
-0.0500049
-0.0435182
-0.0378865
-0.0324739
-0.0284715
-0.0249523
-0.022629
-0.0204603
-0.0187117
-0.0163461
-0.013176
-0.00972645
-0.00726389
-0.00799593
0.00407995
0.00406663
0.00405787
0.00404747
0.00403133
0.00401997
0.00399025
0.00397077
0.0039203
0.00388552
0.003807
0.00374959
0.00363473
0.00354635
0.00338478
0.00325482
0.0030325
0.00284624
0.00254296
0.0022785
0.00186387
0.001487
0.000913271
0.000367122
-0.000448541
-0.00127701
-0.00252154
-0.00393691
-0.00613322
-0.00892969
-0.0130971
-0.0181479
-0.0244567
-0.0308575
-0.0376667
-0.0437803
-0.0499946
-0.0551329
-0.0600407
-0.0631979
-0.0655728
-0.0656458
-0.0647608
-0.0616195
-0.0578725
-0.0523936
-0.0469828
-0.0407164
-0.0354502
-0.0302377
-0.0265662
-0.0231659
-0.0211332
-0.0190734
-0.0177602
-0.0157799
-0.0134334
-0.0104242
-0.00813925
-0.00836021
0.00407635
0.00406777
0.0040593
0.00405277
0.00403453
0.0040249
0.00398928
0.00396903
0.00390896
0.00387198
0.00378127
0.00372173
0.00359316
0.00350388
0.00332762
0.00319876
0.00296078
0.0027782
0.00245814
0.00220073
0.00176831
0.00140349
0.000812074
0.000286896
-0.000541053
-0.00132571
-0.00255005
-0.00383905
-0.00587604
-0.00830034
-0.0120057
-0.0164012
-0.0221605
-0.0280349
-0.0345511
-0.0403143
-0.0462637
-0.0509693
-0.0555541
-0.0583233
-0.0605438
-0.0604783
-0.0597156
-0.0566789
-0.0532492
-0.0480121
-0.0430444
-0.0371088
-0.032357
-0.027444
-0.0242193
-0.0209753
-0.0192896
-0.0173003
-0.016386
-0.0146459
-0.0129862
-0.0103163
-0.00814029
-0.00785839
0.00370461
0.00368935
0.00368216
0.00368024
0.00367023
0.00367648
0.00365407
0.00365702
0.00361153
0.00360084
0.00352285
0.00348965
0.00336988
0.00330556
0.00313321
0.00302787
0.0027888
0.00262926
0.00230352
0.00207053
0.00162879
0.00129277
0.000690523
0.000203952
-0.000630319
-0.00135213
-0.00255338
-0.00370089
-0.00558877
-0.00763566
-0.0108826
-0.0145541
-0.0196551
-0.0248163
-0.030889
-0.0361703
-0.0418187
-0.0460668
-0.050351
-0.0527193
-0.0547947
-0.0545624
-0.0539288
-0.050982
-0.0479173
-0.0429628
-0.0385581
-0.0330397
-0.0289472
-0.0243951
-0.0217294
-0.0186489
-0.0173812
-0.015409
-0.0148932
-0.0132355
-0.0121496
-0.00964774
-0.00752145
-0.00673888
0.00376717
0.0037579
0.00375114
0.0037556
0.00374291
0.00375326
0.00372269
0.00372661
0.00366779
0.00365657
0.00356213
0.0035293
0.00339177