/*--------------------------------*- C++ -*----------------------------------*\
| =========                 |                                                 |
| \\      /  F ield         | OpenFOAM: The Open Source CFD Toolbox           |
|  \\    /   O peration     | Version:  2406                                  |
|   \\  /    A nd           | Website:  www.openfoam.com                      |
|    \\/     M anipulation  |                                                 |
\*---------------------------------------------------------------------------*/
FoamFile
{
    version     2.0;
    format      ascii;
    arch        "LSB;label=32;scalar=64";
    class       volVectorField;
    location    "21.7";
    object      U;
}
// * * * * * * * * * * * * * * * * * * * * * * * * * * * * * * * * * * * * * //

dimensions      [0 1 -1 0 0 0 0];

internalField   nonuniform List<vector> 
3600
(
(2.1744e-05 -2.17706e-05 0)
(0.000214421 -8.79212e-05 0)
(0.00052353 -0.000109093 0)
(0.000818766 -0.000102522 0)
(0.0010886 -8.46215e-05 0)
(0.00128423 -6.37307e-05 0)
(0.00142532 -4.41885e-05 0)
(0.00149095 -2.42396e-05 0)
(0.00149305 -4.97208e-06 0)
(0.00141664 1.57328e-05 0)
(0.0012646 3.63961e-05 0)
(0.00102657 5.83815e-05 0)
(0.000700641 8.07253e-05 0)
(0.000278146 0.000105205 0)
(-0.000248854 0.000132074 0)
(-0.000892474 0.000163481 0)
(-0.0016676 0.000199975 0)
(-0.00258948 0.000242843 0)
(-0.00367408 0.000291526 0)
(-0.00493148 0.000345394 0)
(-0.00636656 0.000401909 0)
(-0.00797086 0.00045799 0)
(-0.00972339 0.000508725 0)
(-0.0115829 0.000548536 0)
(-0.0134901 0.000570417 0)
(-0.0153628 0.000567158 0)
(-0.0171016 0.000531167 0)
(-0.0185903 0.000456054 0)
(-0.0197073 0.000337175 0)
(-0.0203306 0.000173596 0)
(-0.0203538 -3.12189e-05 0)
(-0.0196935 -0.000268064 0)
(-0.0183054 -0.000522418 0)
(-0.0161889 -0.000774755 0)
(-0.0133987 -0.00100268 0)
(-0.0100406 -0.00118299 0)
(-0.00627569 -0.00129504 0)
(-0.0023021 -0.00132374 0)
(0.00165017 -0.00126259 0)
(0.00535228 -0.0011157 0)
(0.00858592 -0.000898027 0)
(0.0111843 -0.000633985 0)
(0.0130316 -0.000353064 0)
(0.0140976 -8.54963e-05 0)
(0.0144108 0.000144332 0)
(0.0140776 0.000320171 0)
(0.0132261 0.000437222 0)
(0.0120239 0.000498456 0)
(0.0106071 0.000514438 0)
(0.00912008 0.000496518 0)
(0.00764198 0.000458248 0)
(0.00625985 0.000408656 0)
(0.00498568 0.000358066 0)
(0.00386069 0.000309488 0)
(0.00285134 0.000269483 0)
(0.00198285 0.000231899 0)
(0.00121658 0.000197811 0)
(0.000603518 0.000143453 0)
(0.000162403 7.14215e-05 0)
(-2.90099e-05 -3.08778e-05 0)
(9.07358e-05 -0.000215514 0)
(0.00049356 -0.00048705 0)
(0.00105903 -0.000561448 0)
(0.00157698 -0.000512377 0)
(0.0020262 -0.000410711 0)
(0.0023255 -0.000283769 0)
(0.00249131 -0.000153361 0)
(0.00248412 -1.13207e-05 0)
(0.00230689 0.000136903 0)
(0.00192613 0.000301078 0)
(0.00132911 0.000475742 0)
(0.000485932 0.000667042 0)
(-0.000624469 0.000871627 0)
(-0.00203101 0.00109649 0)
(-0.00376273 0.00134242 0)
(-0.00585118 0.00161621 0)
(-0.00832885 0.00191733 0)
(-0.0112206 0.00224555 0)
(-0.0145423 0.00259137 0)
(-0.0182865 0.00294182 0)
(-0.0224215 0.00327444 0)
(-0.0268771 0.00356239 0)
(-0.0315475 0.0037715 0)
(-0.036283 0.00386593 0)
(-0.0409016 0.00380829 0)
(-0.0451905 0.00356627 0)
(-0.048926 0.00311479 0)
(-0.0518823 0.00244247 0)
(-0.0538541 0.00155313 0)
(-0.0546648 0.000469787 0)
(-0.0541853 -0.000766784 0)
(-0.0523374 -0.00209749 0)
(-0.049108 -0.00344945 0)
(-0.0445459 -0.00473851 0)
(-0.0387724 -0.00587647 0)
(-0.0319714 -0.00677634 0)
(-0.0243956 -0.00736206 0)
(-0.0163457 -0.00757573 0)
(-0.00817039 -0.00738784 0)
(-0.000229812 -0.00680297 0)
(0.00711008 -0.00586461 0)
(0.0135304 -0.00465285 0)
(0.0187607 -0.00327661 0)
(0.022638 -0.00186014 0)
(0.0250848 -0.000523734 0)
(0.0261579 0.000631886 0)
(0.0259851 0.00154205 0)
(0.0248008 0.00217956 0)
(0.0228427 0.00255652 0)
(0.0203972 0.00270839 0)
(0.0176763 0.00268958 0)
(0.0149056 0.00255191 0)
(0.0121909 0.00235 0)
(0.00966347 0.00211679 0)
(0.00732624 0.00188635 0)
(0.00525644 0.00165043 0)
(0.00341701 0.00141203 0)
(0.00190991 0.0010986 0)
(0.00074428 0.000709276 0)
(8.71721e-05 0.000171197 0)
(0.000116818 -0.000534008 0)
(0.000573548 -0.00105391 0)
(0.00117602 -0.0011718 0)
(0.00168114 -0.00103363 0)
(0.00206837 -0.000790269 0)
(0.00224863 -0.000484841 0)
(0.00222933 -0.000161182 0)
(0.00195769 0.000201042 0)
(0.00141659 0.000593092 0)
(0.000552963 0.00103643 0)
(-0.000671257 0.00152251 0)
(-0.00230865 0.00206409 0)
(-0.00440712 0.00265574 0)
(-0.00701855 0.00330989 0)
(-0.0101956 0.00402616 0)
(-0.0139853 0.00481189 0)
(-0.0184282 0.0056573 0)
(-0.0235406 0.00654762 0)
(-0.029313 0.00744643 0)
(-0.0356882 0.00830602 0)
(-0.0425646 0.00905924 0)
(-0.0497813 0.00963131 0)
(-0.057132 0.00993944 0)
(-0.0643653 0.00990691 0)
(-0.07121 0.00946727 0)
(-0.0773845 0.008577 0)
(-0.0826238 0.00721772 0)
(-0.0866855 0.00540276 0)
(-0.0893689 0.00317419 0)
(-0.0905135 0.000604128 0)
(-0.0900111 -0.00221126 0)
(-0.0878004 -0.0051525 0)
(-0.0838779 -0.00808401 0)
(-0.0782922 -0.0108562 0)
(-0.0711567 -0.0133153 0)
(-0.0626429 -0.0153083 0)
(-0.0529931 -0.0166978 0)
(-0.0425064 -0.0173713 0)
(-0.0315473 -0.0172596 0)
(-0.0205143 -0.0163464 0)
(-0.00984041 -0.0146819 0)
(5.98809e-05 -0.0123827 0)
(0.00879468 -0.0096273 0)
(0.0160632 -0.00663658 0)
(0.0216447 -0.00364774 0)
(0.0254657 -0.000883182 0)
(0.027549 0.00148051 0)
(0.0280683 0.00333048 0)
(0.0272461 0.00462877 0)
(0.0254059 0.00540088 0)
(0.0228305 0.0057254 0)
(0.019846 0.00570275 0)
(0.0166567 0.0054469 0)
(0.0134968 0.0050474 0)
(0.0104408 0.00458394 0)
(0.00764081 0.00406964 0)
(0.0050871 0.00350949 0)
(0.0029432 0.00279866 0)
(0.00121246 0.00189873 0)
(0.000184042 0.000663962 0)
(0.000115223 -0.000841071 0)
(0.000515899 -0.00155586 0)
(0.000987914 -0.00165827 0)
(0.00130018 -0.00137592 0)
(0.0014383 -0.000943388 0)
(0.00131985 -0.000407407 0)
(0.000936792 0.000173159 0)
(0.000222181 0.000838648 0)
(-0.00087111 0.00158005 0)
(-0.00241969 0.00243305 0)
(-0.00449501 0.00338674 0)
(-0.00717567 0.00446091 0)
(-0.0105416 0.00564717 0)
(-0.014668 0.00696048 0)
(-0.0196292 0.00839284 0)
(-0.0254778 0.00994094 0)
(-0.032246 0.0115695 0)
(-0.0399163 0.013229 0)
(-0.0484235 0.0148335 0)
(-0.0576313 0.0162798 0)
(-0.0673468 0.0174416 0)
(-0.0773142 0.0181919 0)
(-0.0872462 0.0184082 0)
(-0.0968312 0.0179943 0)
(-0.105767 0.0168837 0)
(-0.113765 0.0150511 0)
(-0.120571 0.0125082 0)
(-0.125961 0.00930527 0)
(-0.129753 0.00552376 0)
(-0.131795 0.00127627 0)
(-0.131977 -0.0033006 0)
(-0.13022 -0.00804466 0)
(-0.126492 -0.0127748 0)
(-0.1208 -0.0172901 0)
(-0.113207 -0.0213797 0)
(-0.103835 -0.0248269 0)
(-0.092877 -0.0274262 0)
(-0.0805971 -0.028996 0)
(-0.0673451 -0.0294038 0)
(-0.0535341 -0.0285825 0)
(-0.0396457 -0.0265556 0)
(-0.0261796 -0.0234425 0)
(-0.0136446 -0.0194626 0)
(-0.00248126 -0.0149134 0)
(0.00693968 -0.0101409 0)
(0.0143986 -0.00549483 0)
(0.0197876 -0.00128391 0)
(0.0231762 0.00225995 0)
(0.0247151 0.00500494 0)
(0.0246982 0.00691982 0)
(0.0234166 0.00806437 0)
(0.021247 0.00855782 0)
(0.018465 0.00855691 0)
(0.0153997 0.00820941 0)
(0.0122073 0.00764814 0)
(0.0091315 0.00692954 0)
(0.00621045 0.0060706 0)
(0.00368135 0.00495646 0)
(0.00156063 0.00347821 0)
(0.000256405 0.00138057 0)
(9.68424e-05 -0.00112033 0)
(0.000365684 -0.00194419 0)
(0.000592739 -0.00195336 0)
(0.000589591 -0.00146348 0)
(0.00034607 -0.000786118 0)
(-0.000206088 4.30163e-05 0)
(-0.00110016 0.000960854 0)
(-0.00241959 0.00203679 0)
(-0.00425214 0.00326541 0)
(-0.00670171 0.00469873 0)
(-0.00988053 0.00632361 0)
(-0.0138948 0.00816609 0)
(-0.0188587 0.0102119 0)
(-0.0248658 0.0124717 0)
(-0.0320034 0.014918 0)
(-0.0403111 0.017518 0)
(-0.0497892 0.0201878 0)
(-0.0603575 0.0228169 0)
(-0.071871 0.025248 0)
(-0.0840992 0.0273086 0)
(-0.0967613 0.0288128 0)
(-0.109528 0.0295954 0)
(-0.122064 0.0295177 0)
(-0.134035 0.02849 0)
(-0.145135 0.0264666 0)
(-0.155081 0.0234526 0)
(-0.163635 0.0194922 0)
(-0.170582 0.01467 0)
(-0.175751 0.0090996 0)
(-0.178991 0.00292624 0)
(-0.180189 -0.00368137 0)
(-0.179248 -0.0105265 0)
(-0.176109 -0.0173903 0)
(-0.170734 -0.0240272 0)
(-0.163129 -0.0301735 0)
(-0.153345 -0.0355482 0)
(-0.141503 -0.0398712 0)
(-0.127796 -0.0428758 0)
(-0.112521 -0.0443407 0)
(-0.0960706 -0.0441144 0)
(-0.0789496 -0.0421536 0)
(-0.0617349 -0.0385424 0)
(-0.045063 -0.0335104 0)
(-0.0295433 -0.0274158 0)
(-0.0157317 -0.0207157 0)
(-0.00402647 -0.0139036 0)
(0.00531541 -0.00744819 0)
(0.0122524 -0.0017317 0)
(0.0168627 0.00298621 0)
(0.0194016 0.00658427 0)
(0.0201504 0.0090683 0)
(0.0195073 0.0105473 0)
(0.017791 0.0111959 0)
(0.0154016 0.011211 0)
(0.0125676 0.0107745 0)
(0.0096205 0.00999983 0)
(0.00666048 0.00892123 0)
(0.00400553 0.00743141 0)
(0.00171152 0.00533287 0)
(0.000283341 0.00224599 0)
(6.80824e-05 -0.00128994 0)
(0.000144 -0.00207102 0)
(2.8556e-05 -0.00188078 0)
(-0.000396003 -0.00111146 0)
(-0.00113837 -0.000130441 0)
(-0.00224877 0.00105855 0)
(-0.00379902 0.00240471 0)
(-0.00589385 0.00401554 0)
(-0.00867315 0.0058927 0)
(-0.0122712 0.00810412 0)
(-0.0168465 0.0106324 0)
(-0.0225313 0.0135055 0)
(-0.0294708 0.0166956 0)
(-0.0377639 0.0201952 0)
(-0.0474916 0.0239367 0)
(-0.058651 0.027832 0)
(-0.0711778 0.0317213 0)
(-0.0848981 0.035412 0)
(-0.099568 0.0386659 0)
(-0.114858 0.0412473 0)
(-0.130408 0.0429301 0)
(-0.145832 0.0435366 0)
(-0.160763 0.0429371 0)
(-0.174852 0.0410671 0)
(-0.187799 0.037914 0)
(-0.19934 0.0335208 0)
(-0.209266 0.0279698 0)
(-0.217404 0.0213814 0)
(-0.223626 0.0139008 0)
(-0.227826 0.00569942 0)
(-0.22992 -0.0030334 0)
(-0.229831 -0.0120837 0)
(-0.227489 -0.0212164 0)
(-0.222823 -0.0301657 0)
(-0.215776 -0.0386389 0)
(-0.206303 -0.0463105 0)
(-0.194404 -0.0528363 0)
(-0.18014 -0.0578616 0)
(-0.163675 -0.0610556 0)
(-0.145295 -0.0621415 0)
(-0.125446 -0.0609505 0)
(-0.104718 -0.0574614 0)
(-0.0838511 -0.0518458 0)
(-0.0636448 -0.044472 0)
(-0.0449069 -0.0358884 0)
(-0.0283086 -0.0267486 0)
(-0.0143448 -0.0177249 0)
(-0.00322764 -0.00940251 0)
(0.00503096 -0.00221684 0)
(0.0106569 0.00358563 0)
(0.01394 0.00792915 0)
(0.0153077 0.0108899 0)
(0.0151207 0.0126378 0)
(0.013836 0.0134028 0)
(0.0117464 0.0134039 0)
(0.00925923 0.0128118 0)
(0.00654351 0.0116802 0)
(0.0039915 0.00991785 0)
(0.00171611 0.00723687 0)
(0.000282858 0.00313721 0)
(3.04995e-05 -0.00135593 0)
(-0.00013826 -0.00191809 0)
(-0.000675251 -0.00140852 0)
(-0.00160668 -0.000279652 0)
(-0.00294643 0.00107657 0)
(-0.00472813 0.00271437 0)
(-0.00707788 0.00461347 0)
(-0.0101268 0.00692685 0)
(-0.0140769 0.00966471 0)
(-0.0190925 0.0129074 0)
(-0.0253796 0.0166285 0)
(-0.0330878 0.0208483 0)
(-0.042381 0.0255113 0)
(-0.0533392 0.030569 0)
(-0.0660054 0.0358847 0)
(-0.0802956 0.0412835 0)
(-0.0960459 0.0465046 0)
(-0.112961 0.0512606 0)
(-0.130682 0.0552353 0)
(-0.148774 0.0581452 0)
(-0.166803 0.0597459 0)
(-0.184324 0.0598699 0)
(-0.200951 0.058418 0)
(-0.216338 0.0553725 0)
(-0.230226 0.0507757 0)
(-0.242413 0.0447292 0)
(-0.252779 0.037369 0)
(-0.261245 0.0288615 0)
(-0.267782 0.0193842 0)
(-0.27237 0.00912748 0)
(-0.275001 -0.00171435 0)
(-0.275641 -0.0129327 0)
(-0.274243 -0.0243056 0)
(-0.270712 -0.0355802 0)
(-0.264932 -0.0464713 0)
(-0.256753 -0.0566446 0)
(-0.246027 -0.0657225 0)
(-0.232622 -0.0732821 0)
(-0.216486 -0.0788833 0)
(-0.197678 -0.0820979 0)
(-0.176447 -0.0825731 0)
(-0.153256 -0.0800926 0)
(-0.128828 -0.0746588 0)
(-0.10409 -0.0665404 0)
(-0.080124 -0.0562992 0)
(-0.0579851 -0.0447313 0)
(-0.038579 -0.0327629 0)
(-0.0224632 -0.0212807 0)
(-0.00985481 -0.0110006 0)
(-0.000594275 -0.00237056 0)
(0.00564327 0.00441196 0)
(0.00935825 0.00937752 0)
(0.0109939 0.0126858 0)
(0.0110827 0.0145971 0)
(0.00999011 0.0153623 0)
(0.0081941 0.0152073 0)
(0.00593606 0.0142062 0)
(0.00367243 0.0122881 0)
(0.00158108 0.00908859 0)
(0.000254241 0.00400519 0)
(-1.88534e-05 -0.00124871 0)
(-0.000489652 -0.00136545 0)
(-0.00153008 -0.000398272 0)
(-0.00305567 0.00118018 0)
(-0.0050954 0.00299709 0)
(-0.00767085 0.00519584 0)
(-0.010979 0.00780534 0)
(-0.0151813 0.0110276 0)
(-0.0205481 0.0148785 0)
(-0.0272688 0.0194421 0)
(-0.0355911 0.0246722 0)
(-0.0456639 0.0305642 0)
(-0.0576453 0.0370105 0)
(-0.0715569 0.0438886 0)
(-0.0873595 0.0509575 0)
(-0.10484 0.0579253 0)
(-0.123694 0.0644135 0)
(-0.143475 0.0700395 0)
(-0.163692 0.0744235 0)
(-0.183798 0.0772582 0)
(-0.203288 0.0783119 0)
(-0.221689 0.0774637 0)
(-0.238637 0.0746857 0)
(-0.253858 0.070047 0)
(-0.267201 0.0636799 0)
(-0.278598 0.0557688 0)
(-0.288075 0.0465155 0)
(-0.295697 0.0361321 0)
(-0.301567 0.0248179 0)
(-0.305781 0.0127644 0)
(-0.308423 0.000145972 0)
(-0.309528 -0.012864 0)
(-0.309089 -0.0260916 0)
(-0.307022 -0.0393382 0)
(-0.303179 -0.0523725 0)
(-0.297329 -0.0649039 0)
(-0.289191 -0.076576 0)
(-0.278432 -0.0869489 0)
(-0.264734 -0.0955121 0)
(-0.247836 -0.1017 0)
(-0.227638 -0.104948 0)
(-0.204268 -0.104766 0)
(-0.178197 -0.100851 0)
(-0.150258 -0.0931883 0)
(-0.12166 -0.082163 0)
(-0.09383 -0.0685709 0)
(-0.0682348 -0.053556 0)
(-0.046055 -0.0383981 0)
(-0.0280095 -0.0242718 0)
(-0.0142104 -0.012007 0)
(-0.00436231 -0.00204111 0)
(0.00214095 0.00556681 0)
(0.00589746 0.010966 0)
(0.00757478 0.0144616 0)
(0.00765478 0.0163486 0)
(0.00670141 0.0169138 0)
(0.00504014 0.0162584 0)
(0.00318382 0.0143351 0)
(0.00137788 0.0107275 0)
(0.000215854 0.00476317 0)
(-8.04158e-05 -0.000966283 0)
(-0.000909287 -0.000391934 0)
(-0.00252985 0.00117902 0)
(-0.00473009 0.00330507 0)
(-0.00756849 0.00568711 0)
(-0.0110616 0.0085912 0)
(-0.015493 0.0121113 0)
(-0.0210546 0.0164957 0)
(-0.0280854 0.0217578 0)
(-0.0367864 0.0279702 0)
(-0.0474307 0.035049 0)
(-0.0601352 0.0429369 0)
(-0.0750123 0.0514383 0)
(-0.0919723 0.0603139 0)
(-0.11084 0.0691805 0)
(-0.131221 0.0776032 0)
(-0.152635 0.0850794 0)
(-0.174456 0.0911423 0)
(-0.19606 0.0953771 0)
(-0.21681 0.0974949 0)
(-0.236182 0.0973314 0)
(-0.253751 0.0948717 0)
(-0.269268 0.0902146 0)
(-0.282611 0.0835586 0)
(-0.293813 0.0751509 0)
(-0.302985 0.0652662 0)
(-0.310322 0.0541665 0)
(-0.316036 0.0420948 0)
(-0.320356 0.0292537 0)
(-0.323475 0.0158152 0)
(-0.325564 0.00191446 0)
(-0.326724 -0.0123305 0)
(-0.327002 -0.0268154 0)
(-0.326353 -0.0414228 0)
(-0.324652 -0.0560113 0)
(-0.321658 -0.070382 0)
(-0.317029 -0.084262 0)
(-0.310308 -0.0972707 0)
(-0.300964 -0.10891 0)
(-0.288418 -0.118552 0)
(-0.272152 -0.125474 0)
(-0.251799 -0.128907 0)
(-0.227312 -0.12816 0)
(-0.199085 -0.122757 0)
(-0.168082 -0.112637 0)
(-0.135811 -0.098288 0)
(-0.104197 -0.080825 0)
(-0.0752123 -0.0618479 0)
(-0.0504752 -0.0431397 0)
(-0.0308227 -0.0262095 0)
(-0.0162934 -0.0120197 0)
(-0.00626761 -0.000881395 0)
(6.14987e-05 0.00730338 0)
(0.00358983 0.0129096 0)
(0.0049995 0.0163142 0)
(0.00499219 0.0178951 0)
(0.00400674 0.0178042 0)
(0.00261994 0.016031 0)
(0.00114659 0.0121393 0)
(0.000174136 0.00541764 0)
(-0.0001592 -0.000432985 0)
(-0.00141167 0.00112244 0)
(-0.00369573 0.0034564 0)
(-0.0066569 0.00624047 0)
(-0.0104003 0.00931612 0)
(-0.0149445 0.0131052 0)
(-0.0206717 0.0177764 0)
(-0.0277978 0.0236124 0)
(-0.0367218 0.0306073 0)
(-0.0476336 0.038798 0)
(-0.0608026 0.0480341 0)
(-0.0762683 0.0581644 0)
(-0.0940424 0.0688586 0)
(-0.113861 0.0797139 0)
(-0.135354 0.0901718 0)
(-0.157901 0.0996415 0)
(-0.180821 0.107509 0)
(-0.203321 0.113261 0)
(-0.224689 0.116507 0)
(-0.244283 0.117057 0)
(-0.261675 0.114895 0)
(-0.276601 0.110182 0)
(-0.289028 0.103189 0)
(-0.299055 0.0942632 0)
(-0.306924 0.0837625 0)
(-0.312922 0.0720305 0)
(-0.317388 0.0593599 0)
(-0.320629 0.0459941 0)
(-0.322945 0.032112 0)
(-0.324577 0.0178466 0)
(-0.325734 0.00328088 0)
(-0.326551 -0.0115284 0)
(-0.327122 -0.0265494 0)
(-0.327457 -0.0417497 0)
(-0.327498 -0.057088 0)
(-0.327072 -0.072482 0)
(-0.325897 -0.0877878 0)
(-0.323529 -0.102756 0)
(-0.319381 -0.117003 0)
(-0.312705 -0.129966 0)
(-0.302657 -0.140892 0)
(-0.288381 -0.14885 0)
(-0.269178 -0.152805 0)
(-0.244701 -0.15176 0)
(-0.215207 -0.144983 0)
(-0.181723 -0.132278 0)
(-0.146129 -0.114254 0)
(-0.110933 -0.0924178 0)
(-0.0788095 -0.0690202 0)
(-0.0518662 -0.0464826 0)
(-0.03112 -0.0267594 0)
(-0.016352 -0.01083 0)
(-0.00664329 0.00115043 0)
(-0.000795125 0.00960614 0)
(0.00219218 0.0150486 0)
(0.00325215 0.018009 0)
(0.00299616 0.0187406 0)
(0.00209603 0.0173015 0)
(0.000947138 0.0132751 0)
(0.000143396 0.00594618 0)
(-0.000254129 0.000363293 0)
(-0.00199085 0.0032041 0)
(-0.00501407 0.00646295 0)
(-0.00881386 0.0100233 0)
(-0.0135615 0.013943 0)
(-0.0192827 0.0188278 0)
(-0.026464 0.0249213 0)
(-0.0353303 0.0325182 0)
(-0.0463221 0.0415682 0)
(-0.0595829 0.0520375 0)
(-0.0753356 0.0636687 0)
(-0.0934827 0.0761628 0)
(-0.113872 0.0890015 0)
(-0.136001 0.101573 0)
(-0.159263 0.113126 0)
(-0.182794 0.122924 0)
(-0.205741 0.130291 0)
(-0.227219 0.134748 0)
(-0.246554 0.136035 0)
(-0.263242 0.13416 0)
(-0.277089 0.129338 0)
(-0.288097 0.121947 0)
(-0.2965 0.112439 0)
(-0.302623 0.101283 0)
(-0.306886 0.0889029 0)
(-0.309685 0.0756629 0)
(-0.311417 0.0618392 0)
(-0.312402 0.047638 0)
(-0.312929 0.0331908 0)
(-0.313208 0.0185802 0)
(-0.313426 0.00384015 0)
(-0.313704 -0.0110211 0)
(-0.314151 -0.0260222 0)
(-0.314818 -0.0411898 0)
(-0.315728 -0.0565575 0)
(-0.316824 -0.0721424 0)
(-0.317971 -0.087931 0)
(-0.318887 -0.103838 0)
(-0.319124 -0.119668 0)
(-0.318006 -0.13505 0)
(-0.314633 -0.149381 0)
(-0.307889 -0.16178 0)
(-0.29656 -0.171081 0)
(-0.279518 -0.175908 0)
(-0.256022 -0.174858 0)
(-0.226061 -0.166815 0)
(-0.190689 -0.151377 0)
(-0.15216 -0.129258 0)
(-0.113718 -0.102522 0)
(-0.0788653 -0.0742656 0)
(-0.0503239 -0.0477974 0)
(-0.0291436 -0.0254676 0)
(-0.0147825 -0.00823925 0)
(-0.00581278 0.0041562 0)
(-0.000808455 0.0123807 0)
(0.00152733 0.0172106 0)
(0.00207468 0.0190869 0)
(0.00166603 0.0182001 0)
(0.000804576 0.0142028 0)
(0.00012751 0.00640427 0)
(-0.000369898 0.00150414 0)
(-0.00265664 0.00597292 0)
(-0.00649468 0.0103282 0)
(-0.0112097 0.0147976 0)
(-0.0170575 0.019739 0)
(-0.0240713 0.0259603 0)
(-0.0328378 0.0337678 0)
(-0.0435661 0.0434323 0)
(-0.0567083 0.0548227 0)
(-0.0723162 0.0677868 0)
(-0.0905126 0.0819061 0)
(-0.110998 0.0966722 0)
(-0.133395 0.111329 0)
(-0.156921 0.125031 0)
(-0.180727 0.136846 0)
(-0.20375 0.145956 0)
(-0.225073 0.151725 0)
(-0.243872 0.153839 0)
(-0.259679 0.152293 0)
(-0.272277 0.147381 0)
(-0.281801 0.139586 0)
(-0.288551 0.129493 0)
(-0.293006 0.117683 0)
(-0.295645 0.10468 0)
(-0.296972 0.0909041 0)
(-0.297387 0.0766739 0)
(-0.297249 0.0622019 0)
(-0.296802 0.0476264 0)
(-0.296252 0.0330174 0)
(-0.295726 0.0184077 0)
(-0.295339 0.00379471 0)
(-0.295166 -0.0108392 0)
(-0.295294 -0.0255326 0)
(-0.295785 -0.0403328 0)
(-0.296718 -0.0553036 0)
(-0.298137 -0.0705143 0)
(-0.300063 -0.0860367 0)
(-0.302429 -0.101921 0)
(-0.305049 -0.118161 0)
(-0.307524 -0.134637 0)
(-0.309193 -0.15103 0)
(-0.309055 -0.166729 0)
(-0.305778 -0.180741 0)
(-0.297774 -0.191644 0)
(-0.283438 -0.197653 0)
(-0.261522 -0.19684 0)
(-0.231645 -0.18758 0)
(-0.194807 -0.169154 0)
(-0.153687 -0.14244 0)
(-0.112389 -0.110228 0)
(-0.0754289 -0.0768304 0)
(-0.0461076 -0.0465608 0)
(-0.0253604 -0.0221952 0)
(-0.0120265 -0.00427571 0)
(-0.00425959 0.00784559 0)
(-0.000264609 0.0152726 0)
(0.00124033 0.0187523 0)
(0.00135237 0.0187125 0)
(0.000736498 0.0149425 0)
(0.000131742 0.00681217 0)
(-0.000501635 0.00300129 0)
(-0.00338814 0.00944339 0)
(-0.00809669 0.0150626 0)
(-0.013782 0.0205778 0)
(-0.0208003 0.026731 0)
(-0.0291863 0.034536 0)
(-0.0396129 0.044336 0)
(-0.0522394 0.0563298 0)
(-0.0674901 0.0702608 0)
(-0.0852706 0.0857997 0)
(-0.105545 0.102306 0)
(-0.127753 0.119003 0)
(-0.151257 0.134865 0)
(-0.174998 0.148824 0)
(-0.197943 0.159838 0)
(-0.21896 0.167127 0)
(-0.237239 0.170251 0)
(-0.252197 0.1692 0)
(-0.26372 0.164318 0)
(-0.271956 0.156217 0)
(-0.277373 0.145612 0)
(-0.280506 0.133223 0)
(-0.281978 0.119664 0)
(-0.282302 0.105425 0)
(-0.281942 0.0908461 0)
(-0.281206 0.0761486 0)
(-0.280334 0.0614519 0)
(-0.279446 0.046817 0)
(-0.278636 0.0322574 0)
(-0.27793 0.0177716 0)
(-0.277371 0.00334071 0)
(-0.276977 -0.0110544 0)
(-0.276801 -0.0254442 0)
(-0.276896 -0.0398646 0)
(-0.277356 -0.0543692 0)
(-0.278277 -0.0690295 0)
(-0.279781 -0.0839411 0)
(-0.281961 -0.0992192 0)
(-0.284872 -0.114982 0)
(-0.288439 -0.131317 0)
(-0.292393 -0.148205 0)
(-0.296137 -0.16542 0)
(-0.298659 -0.182379 0)
(-0.298456 -0.198002 0)
(-0.293605 -0.210601 0)
(-0.281991 -0.217914 0)
(-0.261791 -0.217376 0)
(-0.232166 -0.206695 0)
(-0.194025 -0.184785 0)
(-0.150541 -0.152745 0)
(-0.10687 -0.114479 0)
(-0.0686615 -0.0758376 0)
(-0.0396784 -0.042393 0)
(-0.0203108 -0.0168427 0)
(-0.00866652 0.000787886 0)
(-0.00238162 0.0118914 0)
(0.000375393 0.0176451 0)
(0.00110726 0.0188643 0)
(0.000725975 0.0155685 0)
(0.000152578 0.00723424 0)
(-0.000651884 0.0049307 0)
(-0.00418377 0.0137179 0)
(-0.00980645 0.0207739 0)
(-0.0165026 0.0274831 0)
(-0.0247368 0.0350527 0)
(-0.0345311 0.0446898 0)
(-0.046619 0.0567326 0)
(-0.061069 0.0712484 0)
(-0.0782326 0.0877981 0)
(-0.0978164 0.105809 0)
(-0.119577 0.12436 0)
(-0.142661 0.142366 0)
(-0.166181 0.158544 0)
(-0.188867 0.171674 0)
(-0.209642 0.180743 0)
(-0.227477 0.185178 0)
(-0.241855 0.184892 0)
(-0.252566 0.18028 0)
(-0.259912 0.172058 0)
(-0.264374 0.161101 0)
(-0.266664 0.148261 0)
(-0.26742 0.134274 0)
(-0.267267 0.119685 0)
(-0.266628 0.104866 0)
(-0.265835 0.0900244 0)
(-0.265041 0.0752649 0)
(-0.264348 0.060614 0)
(-0.263747 0.0460696 0)
(-0.263239 0.0316104 0)
(-0.262776 0.0172222 0)
(-0.26235 0.00289054 0)
(-0.261939 -0.0113889 0)
(-0.261573 -0.0256231 0)
(-0.261284 -0.0398209 0)
(-0.261162 -0.054006 0)
(-0.261306 -0.0682228 0)
(-0.261869 -0.0825467 0)
(-0.263014 -0.097094 0)
(-0.264933 -0.112021 0)
(-0.267775 -0.127521 0)
(-0.271609 -0.143776 0)
(-0.276293 -0.160896 0)
(-0.28135 -0.178764 0)
(-0.285795 -0.196861 0)
(-0.288015 -0.214027 0)
(-0.285781 -0.228288 0)
(-0.276473 -0.236831 0)
(-0.257673 -0.236317 0)
(-0.228045 -0.223677 0)
(-0.188455 -0.197395 0)
(-0.14272 -0.159084 0)
(-0.0972993 -0.114189 0)
(-0.059038 -0.0707377 0)
(-0.0317328 -0.03519 0)
(-0.0147213 -0.00985882 0)
(-0.00522236 0.00647416 0)
(-0.000723922 0.0154848 0)
(0.000837869 0.0185585 0)
(0.000741173 0.0160724 0)
(0.000185862 0.00768559 0)
(-0.000809752 0.00728466 0)
(-0.00500095 0.018771 0)
(-0.0115449 0.0274231 0)
(-0.0192524 0.0354655 0)
(-0.0286977 0.0446404 0)
(-0.0398685 0.0563149 0)
(-0.0535257 0.0707707 0)
(-0.0696041 0.0878769 0)
(-0.0883374 0.106955 0)
(-0.109188 0.127125 0)
(-0.131681 0.147146 0)
(-0.154678 0.165622 0)
(-0.177113 0.181082 0)
(-0.197633 0.192289 0)
(-0.215291 0.198439 0)
(-0.229335 0.199332 0)
(-0.239664 0.195344 0)
(-0.246484 0.187297 0)
(-0.250456 0.176208 0)
(-0.252284 0.163099 0)
(-0.252769 0.148825 0)
(-0.252505 0.134015 0)
(-0.251993 0.119063 0)
(-0.251484 0.104175 0)
(-0.251144 0.0894191 0)
(-0.250967 0.074794 0)
(-0.250939 0.0602618 0)
(-0.250964 0.0457877 0)
(-0.250988 0.0313438 0)
(-0.250927 0.0169237 0)
(-0.250754 0.0025323 0)
(-0.250431 -0.0118115 0)
(-0.249978 -0.0260869 0)
(-0.249411 -0.0402734 0)
(-0.248803 -0.0543608 0)
(-0.248233 -0.0683582 0)
(-0.24784 -0.0823013 0)
(-0.247788 -0.0962719 0)
(-0.248298 -0.110402 0)
(-0.249615 -0.124897 0)
(-0.251997 -0.140018 0)
(-0.255629 -0.156068 0)
(-0.260516 -0.173283 0)
(-0.266296 -0.191688 0)
(-0.272027 -0.210821 0)
(-0.276006 -0.229436 0)
(-0.275698 -0.245207 0)
(-0.268007 -0.254662 0)
(-0.249907 -0.253552 0)
(-0.219654 -0.237898 0)
(-0.17819 -0.205908 0)
(-0.130316 -0.160084 0)
(-0.0840657 -0.108382 0)
(-0.0473721 -0.0611568 0)
(-0.0232034 -0.0254455 0)
(-0.00928511 -0.00177187 0)
(-0.00233436 0.0118748 0)
(0.00040714 0.0176484 0)
(0.000729502 0.0164357 0)
(0.000222187 0.00819221 0)
(-0.000974528 0.0101136 0)
(-0.00582491 0.0246624 0)
(-0.0132736 0.0350691 0)
(-0.0219647 0.0445839 0)
(-0.0325702 0.0555401 0)
(-0.0450163 0.0694165 0)
(-0.0600526 0.0863755 0)
(-0.0774419 0.106017 0)
(-0.0972655 0.127364 0)
(-0.118722 0.149182 0)
(-0.141114 0.169902 0)
(-0.163082 0.187876 0)
(-0.183497 0.201572 0)
(-0.201083 0.209918 0)
(-0.215182 0.212493 0)
(-0.225435 0.209598 0)
(-0.232183 0.202095 0)
(-0.235984 0.191154 0)
(-0.237731 0.177968 0)
(-0.238188 0.16355 0)
(-0.238095 0.148629 0)
(-0.237884 0.133646 0)
(-0.23787 0.118797 0)
(-0.238113 0.104127 0)
(-0.238626 0.0895895 0)
(-0.239292 0.0751176 0)
(-0.240028 0.0606462 0)
(-0.240698 0.0461389 0)
(-0.241236 0.031583 0)
(-0.241554 0.016993 0)
(-0.241627 0.0023984 0)
(-0.241421 -0.0121588 0)
(-0.240954 -0.0266334 0)
(-0.240234 -0.0409824 0)
(-0.239318 -0.0551683 0)
(-0.23826 -0.069171 0)
(-0.237166 -0.0829866 0)
(-0.236158 -0.0966527 0)
(-0.235426 -0.110247 0)
(-0.235204 -0.123929 0)
(-0.235799 -0.137938 0)
(-0.237545 -0.152628 0)
(-0.24075 -0.168408 0)
(-0.245555 -0.185684 0)
(-0.251703 -0.204609 0)
(-0.258289 -0.224782 0)
(-0.263463 -0.244797 0)
(-0.264387 -0.261859 0)
(-0.25743 -0.271662 0)
(-0.239064 -0.268851 0)
(-0.207224 -0.248556 0)
(-0.163338 -0.208925 0)
(-0.113598 -0.154415 0)
(-0.0680043 -0.0963245 0)
(-0.0348781 -0.0476854 0)
(-0.0150768 -0.0139396 0)
(-0.00475024 0.00618874 0)
(-0.000327845 0.0158295 0)
(0.000638527 0.0165369 0)
(0.000254111 0.00872538 0)
(-0.00112877 0.0133677 0)
(-0.00659242 0.0312983 0)
(-0.01488 0.0435928 0)
(-0.0244737 0.0546882 0)
(-0.0361236 0.0675449 0)
(-0.0496654 0.0836921 0)
(-0.0658007 0.103111 0)
(-0.084092 0.125069 0)
(-0.104449 0.148252 0)
(-0.125817 0.17105 0)
(-0.147323 0.191608 0)
(-0.167487 0.20813 0)
(-0.185256 0.219192 0)
(-0.199578 0.224065 0)
(-0.210189 0.222852 0)
(-0.217147 0.216384 0)
(-0.221171 0.205945 0)
(-0.223039 0.192915 0)
(-0.223715 0.178496 0)
(-0.223872 0.16356 0)
(-0.224085 0.148614 0)
(-0.22457 0.133875 0)
(-0.225453 0.119356 0)
(-0.226637 0.104975 0)
(-0.228038 0.090621 0)
(-0.229478 0.0762029 0)
(-0.230856 0.0616635 0)
(-0.232034 0.0469866 0)
(-0.232957 0.0321867 0)
(-0.233549 0.017304 0)
(-0.233801 0.00239262 0)
(-0.233686 -0.0124858 0)
(-0.233231 -0.0272668 0)
(-0.232441 -0.0418928 0)
(-0.231366 -0.056308 0)
(-0.23004 -0.0704752 0)
(-0.228539 -0.0843621 0)
(-0.226939 -0.0979722 0)
(-0.225372 -0.111327 0)
(-0.224008 -0.124525 0)
(-0.223104 -0.137723 0)
(-0.222996 -0.151225 0)
(-0.224098 -0.165449 0)
(-0.226834 -0.180967 0)
(-0.23146 -0.198332 0)
(-0.237834 -0.217869 0)
(-0.245002 -0.239174 0)
(-0.250952 -0.260577 0)
(-0.252387 -0.278601 0)
(-0.245192 -0.287819 0)
(-0.225312 -0.281627 0)
(-0.190782 -0.254251 0)
(-0.143944 -0.204717 0)
(-0.0932025 -0.140638 0)
(-0.0504831 -0.0783416 0)
(-0.0230277 -0.0313458 0)
(-0.0082528 -0.00233532 0)
(-0.00149909 0.0127124 0)
(0.000421376 0.0162215 0)
(0.000273766 0.00925538 0)
(-0.00126967 0.0170525 0)
(-0.00728179 0.0386759 0)
(-0.0163137 0.0529856 0)
(-0.0266953 0.065755 0)
(-0.0392229 0.0805932 0)
(-0.0536163 0.099013 0)
(-0.0704977 0.120754 0)
(-0.0892195 0.144697 0)
(-0.109525 0.169168 0)
(-0.130145 0.192199 0)
(-0.150114 0.211736 0)
(-0.167948 0.225979 0)
(-0.182797 0.233797 0)
(-0.193932 0.234948 0)
(-0.201512 0.230117 0)
(-0.205954 0.220617 0)
(-0.208227 0.208017 0)
(-0.209175 0.193738 0)
(-0.209689 0.178848 0)
(-0.210255 0.163973 0)
(-0.211237 0.149373 0)
(-0.212649 0.13505 0)
(-0.214468 0.120883 0)
(-0.216501 0.106717 0)
(-0.218623 0.0924229 0)
(-0.220642 0.0779211 0)
(-0.222471 0.0631823 0)
(-0.223987 0.0482197 0)
(-0.225157 0.0330777 0)
(-0.225918 0.0178198 0)
(-0.22628 0.0025223 0)
(-0.226222 -0.0127383 0)
(-0.225779 -0.0278824 0)
(-0.22496 -0.0428438 0)
(-0.223814 -0.0575554 0)
(-0.222368 -0.0719738 0)
(-0.220681 -0.0860511 0)
(-0.218796 -0.0997741 0)
(-0.216796 -0.113126 0)
(-0.214778 -0.126151 0)
(-0.212913 -0.138922 0)
(-0.211452 -0.151644 0)
(-0.210763 -0.164635 0)
(-0.211334 -0.178447 0)
(-0.21368 -0.193774 0)
(-0.218201 -0.211396 0)
(-0.224775 -0.231754 0)
(-0.232413 -0.254398 0)
(-0.238718 -0.27718 0)
(-0.239946 -0.295599 0)
(-0.231298 -0.3028 0)
(-0.20854 -0.290636 0)
(-0.170094 -0.25306 0)
(-0.120306 -0.191098 0)
(-0.0703267 -0.118388 0)
(-0.0335643 -0.0556688 0)
(-0.0130678 -0.014621 0)
(-0.00322982 0.00776401 0)
(4.66223e-05 0.0152526 0)
(0.000275495 0.00971398 0)
(-0.00137593 0.0210602 0)
(-0.00782067 0.0466172 0)
(-0.0174519 0.0630318 0)
(-0.0284552 0.0775152 0)
(-0.0416389 0.0943276 0)
(-0.056587 0.114903 0)
(-0.0738225 0.138696 0)
(-0.0924957 0.164169 0)
(-0.112209 0.189303 0)
(-0.131544 0.211825 0)
(-0.149533 0.2296 0)
(-0.1648 0.240986 0)
(-0.176788 0.24529 0)
(-0.185126 0.24284 0)
(-0.19035 0.234882 0)
(-0.193127 0.22309 0)
(-0.194534 0.209152 0)
(-0.195341 0.194374 0)
(-0.196273 0.179583 0)
(-0.197596 0.165122 0)
(-0.199474 0.151017 0)
(-0.201768 0.137111 0)
(-0.204372 0.123203 0)
(-0.20705 0.109119 0)
(-0.20968 0.0947461 0)
(-0.212086 0.0800352 0)
(-0.214205 0.0649918 0)
(-0.215932 0.0496578 0)
(-0.217254 0.0341049 0)
(-0.218118 0.0184158 0)
(-0.218542 0.00268598 0)
(-0.218512 -0.0129955 0)
(-0.21807 -0.0285351 0)
(-0.217228 -0.0438605 0)
(-0.216042 -0.0588958 0)
(-0.214539 -0.0735979 0)
(-0.212775 -0.0879122 0)
(-0.21078 -0.101825 0)
(-0.208609 -0.1153 0)
(-0.206307 -0.128355 0)
(-0.203966 -0.140995 0)
(-0.201734 -0.153338 0)
(-0.199859 -0.165561 0)
(-0.198753 -0.178092 0)
(-0.198951 -0.191552 0)
(-0.201107 -0.206878 0)
(-0.205665 -0.225022 0)
(-0.212573 -0.246567 0)
(-0.220547 -0.270826 0)
(-0.226826 -0.294845 0)
(-0.226862 -0.312683 0)
(-0.215433 -0.315498 0)
(-0.188159 -0.293817 0)
(-0.145002 -0.242046 0)
(-0.0930877 -0.166439 0)
(-0.0472944 -0.0885141 0)
(-0.0193022 -0.0318049 0)
(-0.00567454 0.000407701 0)
(-0.000508186 0.0133493 0)
(0.00025314 0.0100393 0)
(-0.00144645 0.0253448 0)
(-0.00819384 0.0550567 0)
(-0.0182563 0.0736613 0)
(-0.0296904 0.0898787 0)
(-0.0432758 0.108616 0)
(-0.0584547 0.131176 0)
(-0.0756416 0.156698 0)
(-0.0938145 0.183217 0)
(-0.112476 0.208399 0)
(-0.130138 0.229752 0)
(-0.145918 0.245199 0)
(-0.158632 0.253399 0)
(-0.168054 0.254206 0)
(-0.174148 0.248529 0)
(-0.177737 0.238086 0)
(-0.179607 0.224757 0)
(-0.180812 0.21019 0)
(-0.181962 0.195456 0)
(-0.183578 0.181093 0)
(-0.185719 0.167174 0)
(-0.188403 0.153544 0)
(-0.191398 0.139946 0)
(-0.19457 0.126158 0)
(-0.197685 0.112017 0)
(-0.200645 0.0974499 0)
(-0.203298 0.0824383 0)
(-0.205604 0.0670211 0)
(-0.207473 0.0512628 0)
(-0.2089 0.0352571 0)