/*--------------------------------*- C++ -*----------------------------------*\
| =========                 |                                                 |
| \\      /  F ield         | OpenFOAM: The Open Source CFD Toolbox           |
|  \\    /   O peration     | Version:  2406                                  |
|   \\  /    A nd           | Website:  www.openfoam.com                      |
|    \\/     M anipulation  |                                                 |
\*---------------------------------------------------------------------------*/
FoamFile
{
    version     2.0;
    format      ascii;
    arch        "LSB;label=32;scalar=64";
    class       volVectorField;
    location    "14.2";
    object      U;
}
// * * * * * * * * * * * * * * * * * * * * * * * * * * * * * * * * * * * * * //

dimensions      [0 1 -1 0 0 0 0];

internalField   nonuniform List<vector> 
3600
(
(6.53866e-06 -6.5575e-06 0)
(-2.42854e-05 1.3171e-05 0)
(-0.000143368 3.57731e-05 0)
(-0.000333758 5.05157e-05 0)
(-0.000568941 5.89155e-05 0)
(-0.000829822 6.30154e-05 0)
(-0.00110413 6.48902e-05 0)
(-0.00138582 6.59198e-05 0)
(-0.00167296 6.69101e-05 0)
(-0.00196579 6.82063e-05 0)
(-0.00226532 6.98594e-05 0)
(-0.00257246 7.17536e-05 0)
(-0.00288751 7.36967e-05 0)
(-0.00320995 7.54723e-05 0)
(-0.0035384 7.68643e-05 0)
(-0.00387058 7.76627e-05 0)
(-0.00420333 7.76597e-05 0)
(-0.00453264 7.66414e-05 0)
(-0.0048536 7.43795e-05 0)
(-0.00516037 7.06239e-05 0)
(-0.00544609 6.50998e-05 0)
(-0.00570288 5.75113e-05 0)
(-0.0059218 4.75536e-05 0)
(-0.00609287 3.49331e-05 0)
(-0.00620529 1.93941e-05 0)
(-0.00624779 7.95299e-07 0)
(-0.0062089 -2.07758e-05 0)
(-0.00607778 -4.52621e-05 0)
(-0.00584522 -7.21699e-05 0)
(-0.00550434 -0.000100719 0)
(-0.00505179 -0.00012984 0)
(-0.00448878 -0.000158163 0)
(-0.00382191 -0.000184091 0)
(-0.00306368 -0.000205911 0)
(-0.00223253 -0.000221957 0)
(-0.00135234 -0.000230795 0)
(-0.000451277 -0.000231406 0)
(0.000439854 -0.000223354 0)
(0.00128976 -0.000206872 0)
(0.00206896 -0.00018288 0)
(0.00275196 -0.000152899 0)
(0.00331918 -0.000118871 0)
(0.00375808 -8.29325e-05 0)
(0.00406361 -4.71479e-05 0)
(0.00423782 -1.31013e-05 0)
(0.00429095 1.77156e-05 0)
(0.00423379 4.16303e-05 0)
(0.0040805 6.13413e-05 0)
(0.00385023 7.71805e-05 0)
(0.00355936 8.91863e-05 0)
(0.00322267 9.7646e-05 0)
(0.00285269 0.000103162 0)
(0.00245968 0.000106434 0)
(0.00205186 0.000107994 0)
(0.00163647 0.000107956 0)
(0.00122183 0.00010567 0)
(0.000820874 9.8814e-05 0)
(0.000454291 8.44725e-05 0)
(0.000172628 5.4596e-05 0)
(1.83641e-05 1.8048e-05 0)
(-1.58396e-05 2.69021e-05 0)
(-0.000200179 0.000186647 0)
(-0.000573418 0.000354338 0)
(-0.00110839 0.00047243 0)
(-0.00174606 0.000545394 0)
(-0.00244996 0.000586679 0)
(-0.00319389 0.000609781 0)
(-0.00396339 0.00062472 0)
(-0.0047522 0.000637665 0)
(-0.00555876 0.000651517 0)
(-0.00638331 0.000666901 0)
(-0.007226 0.000683053 0)
(-0.0080857 0.000698487 0)
(-0.00895945 0.00071142 0)
(-0.0098422 0.000720002 0)
(-0.0107268 0.000722398 0)
(-0.0116039 0.000716806 0)
(-0.0124624 0.000701426 0)
(-0.0132891 0.000674422 0)
(-0.0140688 0.000633896 0)
(-0.0147845 0.000577886 0)
(-0.0154174 0.000504411 0)
(-0.015947 0.000411576 0)
(-0.0163513 0.00029774 0)
(-0.0166074 0.000161753 0)
(-0.0166921 3.28502e-06 0)
(-0.0165833 -0.000176706 0)
(-0.016261 -0.000376102 0)
(-0.0157088 -0.000590788 0)
(-0.0149158 -0.000814744 0)
(-0.0138787 -0.00104002 0)
(-0.0126029 -0.00125695 0)
(-0.0111037 -0.00145466 0)
(-0.0094076 -0.00162175 0)
(-0.00755181 -0.0017473 0)
(-0.00558335 -0.00182189 0)
(-0.00355731 -0.00183874 0)
(-0.00153401 -0.00179456 0)
(0.000424425 -0.0016902 0)
(0.00225799 -0.0015308 0)
(0.00391275 -0.00132542 0)
(0.00534432 -0.00108616 0)
(0.0065206 -0.000826959 0)
(0.0074233 -0.000562085 0)
(0.00804817 -0.00030471 0)
(0.00840196 -6.58755e-05 0)
(0.00850443 0.000144639 0)
(0.00838345 0.00032493 0)
(0.00806825 0.000473471 0)
(0.00759055 0.000591326 0)
(0.00698121 0.00068144 0)
(0.00626836 0.000747848 0)
(0.00547656 0.000794647 0)
(0.00462729 0.000824751 0)
(0.003741 0.000838212 0)
(0.00284074 0.000829862 0)
(0.00195851 0.000785648 0)
(0.00113771 0.000679522 0)
(0.000482183 0.000473179 0)
(5.73484e-05 0.000174772 0)
(-4.6178e-05 0.000166919 0)
(-0.000423062 0.000580921 0)
(-0.00105926 0.00095752 0)
(-0.00191956 0.00122635 0)
(-0.00291759 0.00139968 0)
(-0.00400986 0.0015047 0)
(-0.00516285 0.0015687 0)
(-0.00635705 0.00161248 0)
(-0.00758258 0.00164919 0)
(-0.00883527 0.00168521 0)
(-0.010113 0.00172204 0)
(-0.0114136 0.00175801 0)
(-0.0127329 0.00178975 0)
(-0.0140643 0.00181315 0)
(-0.0153987 0.00182388 0)
(-0.0167237 0.00181765 0)
(-0.0180247 0.00179036 0)
(-0.0192845 0.00173799 0)
(-0.0204838 0.00165664 0)
(-0.0216011 0.00154244 0)
(-0.0226133 0.00139155 0)
(-0.0234954 0.00120033 0)
(-0.0242211 0.000965449 0)
(-0.0247632 0.000684341 0)
(-0.0250938 0.000355604 0)
(-0.0251858 -2.03675e-05 0)
(-0.0250134 -0.000440636 0)
(-0.0245544 -0.000899451 0)
(-0.0237908 -0.00138747 0)
(-0.0227113 -0.0018916 0)
(-0.0213132 -0.00239514 0)
(-0.0196039 -0.00287818 0)
(-0.0176023 -0.00331856 0)
(-0.0153399 -0.00369325 0)
(-0.0128606 -0.00398009 0)
(-0.0102208 -0.00415976 0)
(-0.0074868 -0.00421788 0)
(-0.00473257 -0.00414669 0)
(-0.00203592 -0.00394645 0)
(0.000526013 -0.0036259 0)
(0.00288147 -0.00320182 0)
(0.00496872 -0.00269772 0)
(0.00673987 -0.00214149 0)
(0.00816343 -0.00156273 0)
(0.0092253 -0.000989859 0)
(0.00992778 -0.000447468 0)
(0.0102888 4.71377e-05 0)
(0.0103368 0.000480645 0)
(0.0101065 0.000847399 0)
(0.00963722 0.00114789 0)
(0.00896814 0.00138695 0)
(0.00813629 0.00157168 0)
(0.0071755 0.00170935 0)
(0.00611666 0.0018049 0)
(0.00499014 0.00185752 0)
(0.00382974 0.0018561 0)
(0.00267988 0.00177281 0)
(0.0015945 0.00155753 0)
(0.00070731 0.00113713 0)
(9.03102e-05 0.000468565 0)
(-7.53632e-05 0.000419038 0)
(-0.000643889 0.00121437 0)
(-0.00154206 0.00186896 0)
(-0.00271827 0.00233113 0)
(-0.0040545 0.00263331 0)
(-0.00550178 0.00282236 0)
(-0.00702196 0.00294235 0)
(-0.00859274 0.00302649 0)
(-0.0102019 0.00309575 0)
(-0.0118428 0.00316025 0)
(-0.0135105 0.00322217 0)
(-0.0151996 0.00327854 0)
(-0.0169023 0.00332355 0)
(-0.018608 0.00335015 0)
(-0.020303 0.00335103 0)
(-0.021971 0.00331914 0)
(-0.023593 0.00324785 0)
(-0.0251484 0.00313098 0)
(-0.0266146 0.00296272 0)
(-0.0279679 0.00273754 0)
(-0.0291838 0.00245016 0)
(-0.0302364 0.00209565 0)
(-0.0310995 0.00166974 0)
(-0.0317459 0.00116932 0)
(-0.0321486 0.000593144 0)
(-0.0322804 -5.73273e-05 0)
(-0.0321157 -0.000777235 0)
(-0.0316311 -0.00155678 0)
(-0.0308065 -0.00238124 0)
(-0.0296276 -0.00323029 0)
(-0.0280868 -0.00407807 0)
(-0.0261861 -0.00489372 0)
(-0.0239388 -0.00564267 0)
(-0.021371 -0.00628848 0)
(-0.0185236 -0.00679536 0)
(-0.0154522 -0.00713123 0)
(-0.0122265 -0.00727083 0)
(-0.00892831 -0.00719878 0)
(-0.00564764 -0.00691195 0)
(-0.00247789 -0.00642084 0)
(0.000490174 -0.00574941 0)
(0.00317477 -0.00493338 0)
(0.00550876 -0.00401697 0)
(0.00744409 -0.00304853 0)
(0.00895409 -0.00207573 0)
(0.0100335 -0.00114092 0)
(0.0106966 -0.000277724 0)
(0.0109725 0.00049025 0)
(0.010901 0.00115116 0)
(0.0105273 0.00170297 0)
(0.00989792 0.00215114 0)
(0.00905757 0.0025055 0)
(0.00804751 0.00277662 0)
(0.00690577 0.00297148 0)
(0.00566964 0.00308817 0)
(0.00437971 0.00310884 0)
(0.00308765 0.00299037 0)
(0.00185357 0.0026549 0)
(0.000832628 0.00198532 0)
(0.000107214 0.000857411 0)
(-0.000103206 0.000779124 0)
(-0.000856557 0.00207515 0)
(-0.00200944 0.00306646 0)
(-0.00349018 0.00375046 0)
(-0.00514658 0.0041965 0)
(-0.00692342 0.00447899 0)
(-0.00877847 0.00466185 0)
(-0.0106876 0.00479144 0)
(-0.0126367 0.00489628 0)
(-0.0146171 0.00498969 0)
(-0.0166209 0.00507394 0)
(-0.0186391 0.00514427 0)
(-0.0206602 0.00519216 0)
(-0.0226697 0.00520759 0)
(-0.0246508 0.00518052 0)
(-0.0265845 0.00510162 0)
(-0.0284503 0.00496257 0)
(-0.0302276 0.00475605 0)
(-0.0318953 0.00447549 0)
(-0.0334328 0.00411487 0)
(-0.0348196 0.00366846 0)
(-0.0360354 0.00313087 0)
(-0.0370595 0.00249729 0)
(-0.0378704 0.00176403 0)
(-0.0384451 0.00092937 0)
(-0.0387596 -5.40445e-06 0)
(-0.0387877 -0.00103502 0)
(-0.038502 -0.00214822 0)
(-0.037875 -0.00332754 0)
(-0.0368799 -0.0045481 0)
(-0.0354935 -0.00577725 0)
(-0.0336984 -0.00697474 0)
(-0.0314876 -0.00809388 0)
(-0.0288676 -0.00908355 0)
(-0.0258626 -0.00989136 0)
(-0.0225174 -0.0104678 0)
(-0.0188981 -0.0107707 0)
(-0.0150923 -0.0107706 0)
(-0.011205 -0.0104546 0)
(-0.00735318 -0.0098296 0)
(-0.00365761 -0.00892342 0)
(-0.000233673 -0.00778317 0)
(0.00281819 -0.00647115 0)
(0.00542047 -0.00505861 0)
(0.00752389 -0.0036182 0)
(0.00910906 -0.00221658 0)
(0.0101845 -0.000908366 0)
(0.0107815 0.000267612 0)
(0.0109474 0.00128964 0)
(0.0107383 0.00215134 0)
(0.0102127 0.00285845 0)
(0.00942679 0.00342397 0)
(0.00843211 0.00386257 0)
(0.00727524 0.00418418 0)
(0.00600038 0.00438654 0)
(0.00465381 0.00444552 0)
(0.00329264 0.00430239 0)
(0.00198224 0.00384924 0)
(0.000892309 0.00291725 0)
(0.000115164 0.00128877 0)
(-0.000129765 0.00124302 0)
(-0.00105981 0.00315704 0)
(-0.00245652 0.00454344 0)
(-0.00422744 0.00547519 0)
(-0.00618572 0.00607553 0)
(-0.00826919 0.00645554 0)
(-0.0104313 0.00670288 0)
(-0.0126462 0.00687806 0)
(-0.0148983 0.0070168 0)
(-0.0171768 0.00713488 0)
(-0.019471 0.00723403 0)
(-0.0217686 0.00730736 0)
(-0.024055 0.00734369 0)
(-0.0263134 0.00733061 0)
(-0.0285254 0.00725635 0)
(-0.0306727 0.00711079 0)
(-0.0327378 0.00688574 0)
(-0.0347051 0.00657469 0)
(-0.0365616 0.00617232 0)
(-0.0382964 0.00567379 0)
(-0.0399009 0.00507418 0)
(-0.0413672 0.00436819 0)
(-0.0426868 0.0035501 0)
(-0.0438487 0.00261428 0)
(-0.0448377 0.00155594 0)
(-0.0456323 0.000372416 0)
(-0.0462029 -0.000935183 0)
(-0.0465109 -0.00236044 0)
(-0.0465094 -0.00388911 0)
(-0.0461441 -0.00549731 0)
(-0.0453567 -0.00715065 0)
(-0.0440901 -0.00880246 0)
(-0.0422953 -0.0103943 0)
(-0.039939 -0.0118575 0)
(-0.037011 -0.0131172 0)
(-0.0335315 -0.0140975 0)
(-0.0295551 -0.0147284 0)
(-0.0251726 -0.0149537 0)
(-0.0205088 -0.0147383 0)
(-0.0157158 -0.014075 0)
(-0.0109626 -0.0129876 0)
(-0.0064214 -0.0115315 0)
(-0.00225195 -0.009789 0)
(0.00141278 -0.00786079 0)
(0.0044782 -0.00585469 0)
(0.00689402 -0.00387343 0)
(0.00865394 -0.00200392 0)
(0.00978944 -0.000310051 0)
(0.0103595 0.0011702 0)
(0.0104393 0.0024231 0)
(0.0101092 0.00345422 0)
(0.00944671 0.00428116 0)
(0.00852218 0.00492508 0)
(0.00739706 0.0054016 0)
(0.00612677 0.00571041 0)
(0.00476576 0.00582264 0)
(0.00337768 0.00566415 0)
(0.0020338 0.00509512 0)
(0.000913803 0.00389069 0)
(0.000117338 0.00173856 0)
(-0.00015517 0.00180597 0)
(-0.00125295 0.0044494 0)
(-0.00288016 0.00628576 0)
(-0.00492415 0.00748801 0)
(-0.00716447 0.00824957 0)
(-0.00953177 0.00872735 0)
(-0.011975 0.00903683 0)
(-0.0144666 0.00925378 0)
(-0.0169894 0.00942091 0)
(-0.0195306 0.00955579 0)
(-0.0220772 0.00965913 0)
(-0.0246145 0.00972196 0)
(-0.0271262 0.00973118 0)
(-0.0295953 0.00967338 0)
(-0.032006 0.00953721 0)
(-0.0343452 0.00931443 0)
(-0.0366046 0.009 0)
(-0.0387814 0.00859137 0)
(-0.0408789 0.00808722 0)
(-0.0429057 0.00748611 0)
(-0.044874 0.00678513 0)
(-0.0467973 0.00597893 0)
(-0.0486867 0.0050592 0)
(-0.0505468 0.00401472 0)
(-0.0523714 0.00283202 0)
(-0.0541388 0.00149681 0)
(-0.0558075 -3.82548e-06 0)
(-0.0573137 -0.00167884 0)
(-0.0585706 -0.00352814 0)
(-0.0594726 -0.0055375 0)
(-0.0599007 -0.00767918 0)
(-0.0597305 -0.00990346 0)
(-0.0588456 -0.0121393 0)
(-0.0571502 -0.0142954 0)
(-0.0545818 -0.0162647 0)
(-0.051122 -0.0179315 0)
(-0.0468043 -0.0191807 0)
(-0.0417187 -0.0199106 0)
(-0.0360112 -0.0200442 0)
(-0.029878 -0.0195413 0)
(-0.0235536 -0.0184068 0)
(-0.0172932 -0.0166949 0)
(-0.0113498 -0.014506 0)
(-0.00595038 -0.0119773 0)
(-0.00127361 -0.00926615 0)
(0.00256587 -0.00653093 0)
(0.00552313 -0.00391194 0)
(0.00761787 -0.00151694 0)
(0.00892056 0.000585931 0)
(0.00953391 0.00236771 0)
(0.00957428 0.00383142 0)
(0.00915669 0.00500104 0)
(0.0083852 0.00590853 0)
(0.00734908 0.0065803 0)
(0.00612475 0.00702286 0)
(0.00478176 0.00720623 0)
(0.00339463 0.00704271 0)
(0.00204313 0.00636068 0)
(0.000915196 0.0048783 0)
(0.000116702 0.00219231 0)
(-0.000179333 0.00246297 0)
(-0.00143496 0.00594003 0)
(-0.00327747 0.00827672 0)
(-0.00557534 0.0097693 0)
(-0.0080764 0.0106966 0)
(-0.0107044 0.01127 0)
(-0.013404 0.0116368 0)
(-0.0161456 0.0118893 0)
(-0.0189107 0.0120769 0)
(-0.021685 0.0122187 0)
(-0.0244537 0.0123144 0)
(-0.0272015 0.0123536 0)
(-0.0299127 0.0123231 0)
(-0.0325743 0.012211 0)
(-0.035178 0.0120099 0)
(-0.0377232 0.0117178 0)
(-0.0402194 0.0113372 0)
(-0.0426871 0.010874 0)
(-0.0451571 0.0103344 0)
(-0.0476691 0.00972296 0)
(-0.0502679 0.00903935 0)
(-0.052998 0.00827672 0)
(-0.0558971 0.00741985 0)
(-0.0589884 0.00644444 0)
(-0.062271 0.00531746 0)
(-0.0657121 0.00399897 0)
(-0.0692399 0.00244596 0)
(-0.0727393 0.000618451 0)
(-0.0760527 -0.00151332 0)
(-0.0789914 -0.00396147 0)
(-0.0813469 -0.0067057 0)
(-0.0829017 -0.00969549 0)
(-0.0834549 -0.0128441 0)
(-0.0828362 -0.0160276 0)
(-0.080923 -0.0190931 0)
(-0.0776513 -0.0218679 0)
(-0.0730265 -0.024173 0)
(-0.0671289 -0.0258387 0)
(-0.0601173 -0.0267216 0)
(-0.0522267 -0.0267227 0)
(-0.043759 -0.0258032 0)
(-0.0350661 -0.0239952 0)
(-0.0265224 -0.0214056 0)
(-0.0184912 -0.0182076 0)
(-0.0112874 -0.014622 0)
(-0.00514421 -0.0108885 0)
(-0.000192503 -0.00723372 0)
(0.00354295 -0.00384295 0)
(0.0061293 -0.00084224 0)
(0.00769894 0.00170556 0)
(0.00841848 0.00379253 0)
(0.00846107 0.00544903 0)
(0.00798701 0.00672337 0)
(0.00713376 0.00766092 0)
(0.00601549 0.00828342 0)
(0.00472937 0.0085668 0)
(0.00336938 0.00841468 0)
(0.00202921 0.00762639 0)
(0.000906652 0.00586514 0)
(0.000114793 0.00264276 0)
(-0.000202079 0.00320847 0)
(-0.00160464 0.00761541 0)
(-0.00364591 0.010498 0)
(-0.0061771 0.012298 0)
(-0.00891677 0.0133941 0)
(-0.0117825 0.0140598 0)
(-0.0147147 0.014478 0)
(-0.0176822 0.0147585 0)
(-0.0206653 0.014958 0)
(-0.0236488 0.0150968 0)
(-0.0266178 0.0151745 0)
(-0.0295584 0.0151811 0)
(-0.0324597 0.0151059 0)
(-0.0353179 0.0149432 0)
(-0.0381398 0.014695 0)
(-0.0409472 0.0143713 0)
(-0.0437791 0.0139888 0)
(-0.046692 0.0135672 0)
(-0.0497589 0.0131247 0)
(-0.053064 0.0126738 0)
(-0.0566964 0.0122161 0)
(-0.0607402 0.0117384 0)
(-0.0652621 0.0112092 0)
(-0.0702971 0.0105766 0)
(-0.0758337 0.00976845 0)
(-0.0818001 0.00869614 0)
(-0.0880567 0.00726258 0)
(-0.0943964 0.00537484 0)
(-0.100557 0.002958 0)
(-0.10623 -3.00687e-05 0)
(-0.1111 -0.00357893 0)
(-0.114864 -0.00762811 0)
(-0.117243 -0.0120646 0)
(-0.118007 -0.0167138 0)
(-0.116989 -0.0213645 0)
(-0.114086 -0.0257747 0)
(-0.10927 -0.029688 0)
(-0.102594 -0.0328504 0)
(-0.0942022 -0.0350305 0)
(-0.0843357 -0.036043 0)
(-0.0733335 -0.0357714 0)
(-0.0616246 -0.0341907 0)
(-0.0497051 -0.0313821 0)
(-0.0381011 -0.0275355 0)
(-0.0273158 -0.0229344 0)
(-0.0177731 -0.017922 0)
(-0.00976688 -0.0128524 0)
(-0.0034334 -0.0080398 0)
(0.0012467 -0.00371808 0)
(0.0044177 -2.24511e-05 0)
(0.00630191 0.00300578 0)
(0.00715156 0.00539638 0)
(0.00721105 0.00721841 0)
(0.00669443 0.00854703 0)
(0.00577844 0.00943206 0)
(0.00460739 0.00986726 0)
(0.00330883 0.00975683 0)
(0.00199975 0.0088775 0)
(0.00089304 0.0068426 0)
(0.000112398 0.00308666 0)
(-0.000223194 0.00403628 0)
(-0.00176079 0.00946092 0)
(-0.00398337 0.0129302 0)
(-0.0067267 0.0150526 0)
(-0.00968278 0.0163193 0)
(-0.0127639 0.0170738 0)
(-0.0159066 0.0175374 0)
(-0.0190786 0.017839 0)
(-0.0222598 0.0180426 0)
(-0.0254349 0.0181709 0)
(-0.0285913 0.0182247 0)
(-0.0317199 0.0181977 0)
(-0.03482 0.0180867 0)
(-0.0379044 0.0178985 0)
(-0.0410055 0.017652 0)
(-0.0441798 0.0173781 0)
(-0.0475103 0.0171154 0)
(-0.0511057 0.0169039 0)
(-0.0550957 0.016778 0)
(-0.0596225 0.0167582 0)
(-0.0648276 0.0168428 0)
(-0.0708342 0.0170007 0)
(-0.0777258 0.0171648 0)
(-0.0855226 0.0172287 0)
(-0.0941598 0.0170493 0)
(-0.103473 0.0164559 0)
(-0.113199 0.0152692 0)
(-0.122989 0.0133253 0)
(-0.132444 0.0105025 0)
(-0.141148 0.00674343 0)
(-0.148704 0.00206395 0)
(-0.154768 -0.00343634 0)
(-0.15904 -0.00958456 0)
(-0.161274 -0.0161621 0)
(-0.161299 -0.0228905 0)
(-0.158986 -0.0294628 0)
(-0.154267 -0.0355483 0)
(-0.147141 -0.0408105 0)
(-0.137689 -0.0449226 0)
(-0.126094 -0.0475922 0)
(-0.112656 -0.0485898 0)
(-0.0978142 -0.0477834 0)
(-0.0821324 -0.0451713 0)
(-0.0662805 -0.0409059 0)
(-0.0509759 -0.035298 0)
(-0.0369036 -0.0287897 0)
(-0.0246253 -0.0218967 0)
(-0.0145016 -0.0151265 0)
(-0.00665579 -0.0088991 0)
(-0.000989794 -0.00349301 0)
(0.00275572 0.000967593 0)
(0.00492392 0.00448785 0)
(0.00587259 0.00715525 0)
(0.00592756 0.00908592 0)
(0.0053617 0.0103752 0)
(0.00439426 0.0110528 0)
(0.00320722 0.0110386 0)
(0.00195541 0.0100983 0)
(0.000876196 0.007804 0)
(0.000109934 0.00352264 0)
(-0.000242473 0.00493951 0)
(-0.00190239 0.0114611 0)
(-0.00428837 0.0155533 0)
(-0.00722257 0.0180112 0)
(-0.0103733 0.0194504 0)
(-0.0136485 0.0202905 0)
(-0.0169818 0.0207946 0)
(-0.0203402 0.0211118 0)
(-0.0237039 0.0213145 0)
(-0.0270599 0.0214292 0)
(-0.0304003 0.0214612 0)
(-0.0337261 0.0214127 0)
(-0.0370535 0.0212953 0)
(-0.0404224 0.0211371 0)
(-0.0439031 0.0209848 0)
(-0.0476023 0.0209003 0)
(-0.0516634 0.0209534 0)
(-0.0562633 0.0212109 0)
(-0.0616016 0.0217245 0)
(-0.0678844 0.022517 0)
(-0.0753006 0.0235689 0)
(-0.0839915 0.0248056 0)
(-0.0940161 0.0260878 0)
(-0.105317 0.0272105 0)
(-0.1177 0.0279136 0)
(-0.13083 0.0279088 0)
(-0.144261 0.0269184 0)
(-0.157487 0.0247187 0)
(-0.17 0.0211759 0)
(-0.181342 0.016263 0)
(-0.191126 0.0100542 0)
(-0.199042 0.00271466 0)
(-0.204867 -0.00551883 0)
(-0.208412 -0.0143711 0)
(-0.209523 -0.0235239 0)
(-0.208077 -0.0326292 0)
(-0.203961 -0.0413137 0)
(-0.197095 -0.0491832 0)
(-0.187436 -0.0558316 0)
(-0.175027 -0.0608584 0)
(-0.160025 -0.0638971 0)
(-0.142749 -0.0646576 0)
(-0.123711 -0.0629777 0)
(-0.103624 -0.0588779 0)
(-0.0833706 -0.0526029 0)
(-0.0639231 -0.04463 0)
(-0.0462132 -0.0356261 0)
(-0.0309847 -0.0263465 0)
(-0.0186721 -0.0175004 0)
(-0.00935586 -0.00962695 0)
(-0.00281027 -0.00303037 0)
(0.0013856 0.0022115 0)
(0.00372668 0.00618382 0)
(0.00469073 0.00905048 0)
(0.00468943 0.0109731 0)
(0.0040544 0.012042 0)
(0.0030512 0.012216 0)
(0.00189332 0.0112678 0)
(0.000856761 0.00874205 0)
(0.000107724 0.00395026 0)
(-0.000259728 0.00591074 0)
(-0.00202861 0.0136 0)
(-0.00455987 0.0183474 0)
(-0.00766396 0.0211524 0)
(-0.0109886 0.0227663 0)
(-0.0144382 0.02369 0)
(-0.0179442 0.0242317 0)
(-0.021474 0.0245618 0)
(-0.0250095 0.024763 0)
(-0.0285423 0.0248683 0)
(-0.0320735 0.0248923 0)
(-0.0356201 0.0248528 0)
(-0.0392248 0.0247861 0)
(-0.0429664 0.0247542 0)
(-0.0469684 0.0248442 0)
(-0.0514042 0.0251613 0)
(-0.0564938 0.025815 0)
(-0.0624937 0.0269015 0)
(-0.0696771 0.0284835 0)
(-0.0783031 0.0305679 0)
(-0.0885763 0.0330845 0)
(-0.100598 0.0358661 0)
(-0.114317 0.0386413 0)
(-0.129496 0.0410446 0)
(-0.145711 0.042654 0)
(-0.162396 0.0430525 0)
(-0.178921 0.0418977 0)
(-0.194681 0.0389759 0)
(-0.209168 0.0342225 0)
(-0.221998 0.0277095 0)
(-0.23291 0.0196129 0)
(-0.241739 0.0101752 0)
(-0.248388 -0.000315981 0)
(-0.252791 -0.0115388 0)
(-0.254874 -0.0231746 0)
(-0.254537 -0.0348824 0)
(-0.251642 -0.0462966 0)
(-0.246015 -0.0570176 0)
(-0.237466 -0.0666045 0)
(-0.225825 -0.0745815 0)
(-0.210996 -0.0804528 0)
(-0.19303 -0.0837428 0)
(-0.172196 -0.0840574 0)
(-0.149051 -0.0811665 0)
(-0.124468 -0.0750966 0)
(-0.0996048 -0.0662037 0)
(-0.075781 -0.0551944 0)
(-0.0542747 -0.0430532 0)
(-0.036077 -0.0308697 0)
(-0.0217011 -0.0196115 0)
(-0.0111355 -0.009938 0)
(-0.00395904 -0.00213651 0)
(0.000463016 0.00381519 0)
(0.00280307 0.00812003 0)
(0.00366488 0.0110269 0)
(0.003542 0.0127192 0)
(0.00282321 0.0132272 0)
(0.00180946 0.0123577 0)
(0.000835472 0.00964783 0)
(0.00010618 0.00436988 0)
(-0.000274791 0.00694202 0)
(-0.00213874 0.0158611 0)
(-0.00479712 0.0212923 0)
(-0.00805054 0.0244557 0)
(-0.0115292 0.026247 0)
(-0.0151349 0.0272545 0)
(-0.018798 0.0278334 0)
(-0.0224873 0.028178 0)
(-0.0261885 0.0283832 0)
(-0.0299007 0.0284931 0)
(-0.0336392 0.0285381 0)
(-0.037445 0.0285622 0)
(-0.041398 0.0286394 0)
(-0.0456301 0.0288803 0)
(-0.0503341 0.0294276 0)
(-0.0557649 0.0304407 0)
(-0.0622296 0.0320734 0)
(-0.0700649 0.0344444 0)
(-0.0796006 0.0376055 0)
(-0.0911069 0.0415066 0)
(-0.10473 0.0459638 0)
(-0.120424 0.0506389 0)
(-0.137903 0.055048 0)
(-0.156635 0.0586105 0)
(-0.175907 0.0607409 0)
(-0.194942 0.0609559 0)
(-0.213023 0.058956 0)
(-0.229589 0.0546509 0)
(-0.244269 0.0481333 0)
(-0.256874 0.0396274 0)
(-0.267362 0.0294311 0)
(-0.27578 0.0178677 0)
(-0.28221 0.00525635 0)
(-0.286743 -0.00809676 0)
(-0.289427 -0.0219007 0)
(-0.290225 -0.0358797 0)
(-0.289008 -0.0497351 0)
(-0.285548 -0.063131 0)
(-0.27952 -0.0756644 0)
(-0.270541 -0.0868538 0)
(-0.258209 -0.0961312 0)
(-0.242191 -0.102862 0)
(-0.222326 -0.106397 0)
(-0.198754 -0.106165 0)
(-0.172029 -0.101803 0)
(-0.143197 -0.0933068 0)
(-0.113767 -0.0811674 0)
(-0.0855383 -0.0664083 0)
(-0.0602735 -0.050469 0)
(-0.0392956 -0.0349032 0)
(-0.0231872 -0.0209982 0)
(-0.0117647 -0.00950583 0)
(-0.00432459 -0.000619386 0)
(3.1334e-05 0.00585348 0)
(0.00216556 0.0102628 0)
(0.00280042 0.0129255 0)
(0.00250248 0.013988 0)
(0.00169987 0.0133301 0)
(0.000813844 0.0105106 0)
(0.000105908 0.00478309 0)
(-0.00028749 0.00802497 0)
(-0.00223207 0.0182279 0)
(-0.00499933 0.0243685 0)
(-0.00838192 0.0279011 0)
(-0.0119955 0.0298742 0)
(-0.0157405 0.0309677 0)
(-0.019547 0.031587 0)
(-0.0233867 0.0319525 0)
(-0.0272513 0.0321752 0)
(-0.0311514 0.032316 0)
(-0.0351227 0.0324307 0)
(-0.0392394 0.0326024 0)
(-0.043631 0.0329593 0)
(-0.0484971 0.0336779 0)
(-0.0541132 0.03497 0)
(-0.060825 0.0370562 0)
(-0.0690245 0.0401277 0)
(-0.0791077 0.0443012 0)
(-0.0914111 0.0495686 0)
(-0.106131 0.0557469 0)
(-0.123233 0.0624408 0)
(-0.142383 0.0690419 0)
(-0.162937 0.0747887 0)
(-0.18402 0.0788937 0)
(-0.20468 0.0807007 0)
(-0.224063 0.0798064 0)
(-0.241539 0.0760993 0)
(-0.256741 0.0697195 0)
(-0.269557 0.0609779 0)
(-0.280073 0.05027 0)
(-0.288505 0.0380067 0)
(-0.29513 0.0245666 0)
(-0.300226 0.0102641 0)
(-0.304028 -0.00464632 0)
(-0.306707 -0.0199552 0)
(-0.308323 -0.0354885 0)
(-0.308796 -0.0510659 0)
(-0.307916 -0.0664778 0)
(-0.305314 -0.0814445 0)
(-0.300478 -0.0955711 0)
(-0.292767 -0.108325 0)
(-0.281474 -0.119007 0)
(-0.265931 -0.126786 0)
(-0.245659 -0.130746 0)
(-0.22056 -0.130036 0)
(-0.19112 -0.124061 0)
(-0.158556 -0.112736 0)
(-0.124818 -0.0967149 0)
(-0.0923497 -0.0774696 0)
(-0.0635749 -0.057094 0)
(-0.0402375 -0.0377775 0)
(-0.0229415 -0.0211716 0)
(-0.0112057 -0.0080376 0)
(-0.00394749 0.0016438 0)
(2.52479e-05 0.0083057 0)
(0.0017546 0.0124447 0)
(0.00206231 0.0143852 0)
(0.00155986 0.0141357 0)
(0.000794069 0.0113179 0)
(0.00010769 0.00519338 0)
(-0.000297642 0.00915069 0)
(-0.00230779 0.0206833 0)
(-0.00516545 0.0275562 0)
(-0.00865719 0.031469 0)
(-0.0123873 0.03363 0)
(-0.0162555 0.0348148 0)
(-0.020193 0.0354818 0)
(-0.0241759 0.0358808 0)
(-0.0282045 0.0361437 0)
(-0.0323059 0.0363562 0)
(-0.0365429 0.0366121 0)
(-0.0410331 0.0370497 0)
(-0.0459681 0.03787 0)
(-0.0516271 0.0393317 0)
(-0.0583766 0.0417255 0)
(-0.0666496 0.045328 0)
(-0.0768996 0.0503421 0)
(-0.089529 0.0568284 0)
(-0.104791 0.0646326 0)
(-0.122679 0.0733246 0)
(-0.142831 0.0821805 0)
(-0.164505 0.0902454 0)
(-0.186662 0.0964952 0)
(-0.208163 0.100056 0)
(-0.227993 0.100384 0)
(-0.245427 0.0973352 0)
(-0.260093 0.0911083 0)
(-0.271949 0.0821357 0)
(-0.281206 0.0709558 0)
(-0.28824 0.0581101 0)
(-0.293495 0.0440777 0)
(-0.297424 0.0292431 0)
(-0.300432 0.0138822 0)
(-0.302843 -0.00183693 0)
(-0.304905 -0.0178183 0)
(-0.306741 -0.03398 0)
(-0.308365 -0.0502963 0)
(-0.309658 -0.0667095 0)
(-0.310331 -0.0831179 0)
(-0.309907 -0.0993037 0)
(-0.307699 -0.114891 0)
(-0.302812 -0.129281 0)
(-0.294203 -0.14162 0)
(-0.280791 -0.150801 0)
(-0.261665 -0.155544 0)
(-0.236365 -0.15458 0)
(-0.205208 -0.146954 0)
(-0.169562 -0.132426 0)
(-0.131912 -0.111861 0)
(-0.095544 -0.0873792 0)
(-0.0637426 -0.0620133 0)
(-0.0387319 -0.0387895 0)
(-0.0210068 -0.0197051 0)
(-0.00961009 -0.00535766 0)
(-0.00300184 0.00463365 0)
(0.000293259 0.0109798 0)
(0.00146196 0.0142657 0)
(0.00138069 0.0147093 0)
(0.0007778 0.0120548 0)
(0.000112308 0.00560642 0)
(-0.000305035 0.0103098 0)
(-0.00236487 0.0232095 0)
(-0.00529399 0.0308354 0)
(-0.00887463 0.0351402 0)
(-0.0127029 0.0374972 0)
(-0.0166786 0.0387816 0)
(-0.0207353 0.0395081 0)
(-0.0248551 0.0399598 0)
(-0.0290503 0.0402961 0)
(-0.033369 0.040638 0)
(-0.0379092 0.041132 0)
(-0.0428417 0.0419905 0)
(-0.0484304 0.0435057 0)
(-0.0550412 0.0460314 0)
(-0.0631279 0.0499356 0)
(-0.0731881 0.0555264 0)
(-0.0856858 0.0629631 0)
(-0.100941 0.072158 0)
(-0.118998 0.0826857 0)
(-0.139505 0.093737 0)
(-0.16166 0.104171 0)
(-0.184287 0.1127 0)
(-0.206064 0.11818 0)
(-0.225798 0.119869 0)
(-0.242649 0.117549 0)
(-0.256227 0.111475 0)
(-0.266551 0.102219 0)
(-0.273959 0.0904962 0)
(-0.278974 0.0770175 0)
(-0.282187 0.0623968 0)
(-0.284167 0.0471053 0)
(-0.285412 0.0314682 0)
(-0.286338 0.0156825 0)
(-0.287264 -0.000167828 0)
(-0.28839 -0.0160754 0)
(-0.289866 -0.0320648 0)
(-0.291793 -0.0482137 0)
(-0.29416 -0.0645988 0)
(-0.296861 -0.0812808 0)
(-0.299616 -0.0982562 0)
(-0.301932 -0.115393 0)
(-0.303034 -0.132351 0)
(-0.301833 -0.148485 0)
(-0.296953 -0.162771 0)
(-0.286853 -0.173772 0)
(-0.270084 -0.179724 0)
(-0.245684 -0.178782 0)
(-0.213678 -0.169466 0)
(-0.175548 -0.151297 0)
(-0.134421 -0.125441 0)
(-0.0946495 -0.0949692 0)
(-0.0605806 -0.0642447 0)
(-0.0348801 -0.0373126 0)
(-0.0176636 -0.0163454 0)
(-0.00729273 -0.00149419 0)
(-0.00176022 0.0081115 0)
(0.000631978 0.0134166 0)
(0.00114284 0.0149614 0)
(0.000763584 0.0127004 0)
(0.000120188 0.00602969 0)
(-0.000309426 0.011492 0)
(-0.00240203 0.0257883 0)
(-0.00538281 0.0341858 0)
(-0.00903149 0.0388951 0)
(-0.012939 0.0414585 0)
(-0.0170063 0.0428542 0)
(-0.0211699 0.0436566 0)
(-0.0254202 0.0441874 0)
(-0.0297845 0.0446415 0)
(-0.0343373 0.0451879 0)
(-0.0392189 0.0460431 0)
(-0.0446614 0.047513 0)
(-0.051007 0.0499966 0)
(-0.0587056 0.0539461 0)
(-0.0682786 0.0597867 0)
(-0.0802421 0.0678061 0)
(-0.0949896 0.0780282 0)
(-0.112645 0.0900883 0)
(-0.132912 0.103148 0)
(-0.154991 0.115918 0)
(-0.177629 0.126845 0)
(-0.199344 0.134463 0)
(-0.218763 0.137751 0)
(-0.234911 0.13635 0)
(-0.247352 0.130534 0)
(-0.256162 0.121018 0)
(-0.261798 0.108719 0)
(-0.264929 0.0945485 0)
(-0.266284 0.0792788 0)
(-0.266526 0.0634856 0)
(-0.266198 0.0475447 0)
(-0.265698 0.0316632 0)
(-0.265312 0.0159276 0)
(-0.265236 0.000353569 0)
(-0.265585 -0.0150935 0)
(-0.266461 -0.0305155 0)
(-0.267969 -0.0460133 0)
(-0.270204 -0.0617256 0)
(-0.273232 -0.0778032 0)
(-0.277045 -0.0944017 0)
(-0.28149 -0.111629 0)
(-0.286169 -0.129471 0)
(-0.290328 -0.147669 0)
(-0.292768 -0.165575 0)
(-0.291826 -0.182002 0)
(-0.285479 -0.195142 0)
(-0.271652 -0.202631 0)
(-0.248754 -0.201862 0)
(-0.216398 -0.190645 0)
(-0.176159 -0.168182 0)
(-0.131943 -0.136119 0)
(-0.0894398 -0.0989514 0)
(-0.0542057 -0.0628632 0)
(-0.0290975 -0.0329531 0)
(-0.0134084 -0.0111313 0)
(-0.00468341 0.00323976 0)
(-0.00054539 0.0115321 0)
(0.00080595 0.0147615 0)
(0.000743087 0.0132215 0)
(0.000131072 0.00647069 0)
(-0.000310537 0.0126865 0)
(-0.00241771 0.0284002 0)
(-0.0054292 0.0375858 0)
(-0.00912391 0.0427133 0)
(-0.0130909 0.0454958 0)
(-0.0172324 0.0470177 0)
(-0.0214896 0.0479172 0)
(-0.0258624 0.0485604 0)
(-0.0303966 0.0491879 0)
(-0.0351976 0.0500313 0)
(-0.040454 0.0513951 0)
(-0.0464639 0.0536964 0)
(-0.0536461 0.0574493 0)
(-0.0625191 0.0631922 0)
(-0.0736332 0.0713626 0)
(-0.0874543 0.0821429 0)
(-0.104207 0.0952968 0)
(-0.123704 0.110038 0)
(-0.145221 0.125003 0)
(-0.167504 0.13841 0)
(-0.188976 0.148439 0)
(-0.208091 0.153704 0)
(-0.22371 0.153593 0)
(-0.235316 0.148325 0)
(-0.243004 0.138735 0)
(-0.247341 0.125955 0)
(-0.249144 0.111133 0)
(-0.249272 0.095227 0)
(-0.248482 0.0789284 0)
(-0.247343 0.0626602 0)
(-0.246222 0.0466311 0)
(-0.245318 0.0309036 0)
(-0.244714 0.0154601 0)
(-0.244422 0.000256164 0)
(-0.244447 -0.0147589 0)
(-0.244819 -0.029664 0)
(-0.245606 -0.0445381 0)
(-0.246939 -0.0594919 0)
(-0.248995 -0.0746768 0)
(-0.251974 -0.090299 0)
(-0.256042 -0.106605 0)
(-0.261235 -0.123838 0)
(-0.267331 -0.142139 0)
(-0.273684 -0.161386 0)
(-0.279063 -0.180976 0)
(-0.281568 -0.199583 0)
(-0.278703 -0.214984 0)
(-0.267717 -0.224086 0)
(-0.246296 -0.223326 0)
(-0.213579 -0.209606 0)
(-0.171275 -0.1818 0)
(-0.124306 -0.14239 0)
(-0.0800091 -0.0980189 0)
(-0.0451399 -0.0572115 0)
(-0.0221175 -0.0257383 0)
(-0.00888503 -0.0044935 0)
(-0.00225867 0.00816666 0)
(0.000298427 0.0139147 0)
(0.000697378 0.0135598 0)
(0.000143987 0.00693244 0)
(-0.00030807 0.0138814 0)
(-0.00241014 0.031024 0)
(-0.00542986 0.0410127 0)
(-0.00914703 0.0465731 0)
(-0.013152 0.0495898 0)
(-0.0173489 0.0512557 0)
(-0.0216839 0.0522776 0)
(-0.0261685 0.0530732 0)
(-0.0308692 0.0539401 0)
(-0.0359264 0.0551877 0)
(-0.0415799 0.0572266 0)
(-0.0481931 0.0605971 0)
(-0.0562503 0.065925 0)
(-0.0663084 0.0738009 0)
(-0.0788918 0.0846028 0)
(-0.0943352 0.0982935 0)
(-0.112599 0.114237 0)
(-0.133109 0.131106 0)
(-0.154707 0.146976 0)
(-0.175801 0.159692 0)
(-0.194713 0.167421 0)
(-0.210117 0.169166 0)
(-0.221348 0.164955 0)
(-0.228466 0.155674 0)
(-0.232106 0.142669 0)
(-0.233216 0.127355 0)
(-0.232798 0.110923 0)
(-0.231704 0.0942083 0)
(-0.230539 0.0776855 0)
(-0.229637 0.0615455 0)
(-0.229114 0.0458005 0)
(-0.228933 0.0303802 0)
(-0.228981 0.0152 0)
(-0.229124 0.0001971 0)
(-0.229269 -0.014663 0)
(-0.229378 -0.0293921 0)
(-0.22948 -0.043999 0)
(-0.229695 -0.0585168 0)
(-0.230234 -0.0730288 0)
(-0.231389 -0.0876978 0)
(-0.233512 -0.102784 0)
(-0.236955 -0.118644 0)
(-0.241965 -0.13568 0)
(-0.248523 -0.154229 0)
(-0.256125 -0.174348 0)
(-0.263548 -0.195506 0)
(-0.268682 -0.216229 0)
(-0.268563 -0.233804 0)
(-0.259745 -0.244253 0)
(-0.239173 -0.24284 0)
(-0.205548 -0.225407 0)
(-0.160912 -0.190645 0)
(-0.111587 -0.142585 0)
(-0.0668969 -0.0910703 0)
(-0.0343852 -0.0472088 0)
(-0.0149014 -0.0162728 0)
(-0.00477511 0.0026843 0)
(-0.00048947 0.01213 0)
(0.000592898 0.0136178 0)