/*--------------------------------*- C++ -*----------------------------------*\
| =========                 |                                                 |
| \\      /  F ield         | OpenFOAM: The Open Source CFD Toolbox           |
|  \\    /   O peration     | Version:  2406                                  |
|   \\  /    A nd           | Website:  www.openfoam.com                      |
|    \\/     M anipulation  |                                                 |
\*---------------------------------------------------------------------------*/
FoamFile
{
    version     2.0;
    format      ascii;
    arch        "LSB;label=32;scalar=64";
    class       volVectorField;
    location    "14.2";
    object      U_0;
}
// * * * * * * * * * * * * * * * * * * * * * * * * * * * * * * * * * * * * * //

dimensions      [0 1 -1 0 0 0 0];

internalField   nonuniform List<vector> 
3600
(
(6.47199e-06 -6.48979e-06 0)
(-2.45067e-05 1.32361e-05 0)
(-0.000143674 3.58163e-05 0)
(-0.000334132 5.05473e-05 0)
(-0.000569361 5.89469e-05 0)
(-0.000830293 6.30512e-05 0)
(-0.00110467 6.49318e-05 0)
(-0.00138645 6.59671e-05 0)
(-0.0016737 6.69626e-05 0)
(-0.00196665 6.82636e-05 0)
(-0.00226632 6.99214e-05 0)
(-0.00257362 7.18202e-05 0)
(-0.00288884 7.37679e-05 0)
(-0.00321148 7.55481e-05 0)
(-0.00354014 7.69446e-05 0)
(-0.00387256 7.7747e-05 0)
(-0.00420557 7.77474e-05 0)
(-0.00453516 7.67321e-05 0)
(-0.00485642 7.44726e-05 0)
(-0.00516352 7.07194e-05 0)
(-0.00544959 6.51986e-05 0)
(-0.00570677 5.76151e-05 0)
(-0.00592611 4.76653e-05 0)
(-0.00609767 3.50572e-05 0)
(-0.00621066 1.95367e-05 0)
(-0.00625383 9.645e-07 0)
(-0.00621572 -2.05759e-05 0)
(-0.00608553 -4.50248e-05 0)
(-0.00585407 -7.18895e-05 0)
(-0.00551445 -0.000100393 0)
(-0.00506334 -0.00012947 0)
(-0.00450193 -0.000157756 0)
(-0.00383676 -0.000183659 0)
(-0.00308029 -0.000205472 0)
(-0.00225088 -0.000221535 0)
(-0.00137232 -0.000230415 0)
(-0.0004727 -0.000231095 0)
(0.00041729 -0.000223136 0)
(0.00126643 -0.000206768 0)
(0.0020453 -0.000182902 0)
(0.00272845 -0.000153049 0)
(0.00329628 -0.000119142 0)
(0.00373624 -8.33116e-05 0)
(0.00404321 -4.76133e-05 0)
(0.00421916 -1.36431e-05 0)
(0.00427419 1.71248e-05 0)
(0.00421906 4.10895e-05 0)
(0.00406786 6.08265e-05 0)
(0.00383959 7.66895e-05 0)
(0.00355059 8.87377e-05 0)
(0.00321561 9.72511e-05 0)
(0.00284716 0.000102823 0)
(0.00245548 0.000106147 0)
(0.0020488 0.000107755 0)
(0.00163439 0.000107759 0)
(0.00122056 0.000105511 0)
(0.000820259 9.86974e-05 0)
(0.000454143 8.44085e-05 0)
(0.00017271 5.4599e-05 0)
(1.84147e-05 1.81006e-05 0)
(-1.58987e-05 2.71199e-05 0)
(-0.000200351 0.000186848 0)
(-0.000573522 0.000354413 0)
(-0.00110834 0.000472434 0)
(-0.00174581 0.000545386 0)
(-0.0024495 0.000586693 0)
(-0.00319325 0.000609829 0)
(-0.0039626 0.000624802 0)
(-0.00475128 0.000637779 0)
(-0.00555773 0.000651662 0)
(-0.00638221 0.000667077 0)
(-0.00722485 0.000683263 0)
(-0.00808455 0.000698736 0)
(-0.00895834 0.000711714 0)
(-0.00984118 0.000720343 0)
(-0.0107259 0.000722792 0)
(-0.0116033 0.000717255 0)
(-0.0124621 0.000701932 0)
(-0.0132892 0.000674989 0)
(-0.0140694 0.000634531 0)
(-0.0147858 0.0005786 0)
(-0.0154195 0.000505221 0)
(-0.01595 0.000412507 0)
(-0.0163554 0.000298825 0)
(-0.0166128 0.000163033 0)
(-0.0166991 4.80257e-06 0)
(-0.0165922 -0.000174908 0)
(-0.0162721 -0.000373987 0)
(-0.0157224 -0.000588331 0)
(-0.0149324 -0.000811941 0)
(-0.0138986 -0.00103689 0)
(-0.0126263 -0.00125356 0)
(-0.011131 -0.00145109 0)
(-0.00943886 -0.00161813 0)
(-0.00758705 -0.00174378 0)
(-0.00562242 -0.00181866 0)
(-0.00359989 -0.00183596 0)
(-0.0015796 -0.00179242 0)
(0.000376493 -0.00168885 0)
(0.00220852 -0.00153033 0)
(0.00386264 -0.00132587 0)
(0.00529451 -0.00108753 0)
(0.00647204 -0.000829176 0)
(0.00737686 -0.000565026 0)
(0.0080046 -0.000308217 0)
(0.0083619 -6.97688e-05 0)
(0.00846828 0.000140585 0)
(0.00835141 0.00032087 0)
(0.00804043 0.000469539 0)
(0.00756687 0.000587632 0)
(0.00696146 0.000678062 0)
(0.00625227 0.000744825 0)
(0.00546381 0.000791987 0)
(0.00461753 0.000822441 0)
(0.00373389 0.000836232 0)
(0.00283593 0.000828205 0)
(0.00195563 0.000784345 0)
(0.00113634 0.000678655 0)
(0.000481786 0.000472842 0)
(5.73338e-05 0.000174841 0)
(-4.61993e-05 0.000167176 0)
(-0.000422991 0.00058101 0)
(-0.00105885 0.000957326 0)
(-0.00191866 0.001226 0)
(-0.00291614 0.00139929 0)
(-0.00400785 0.00150434 0)
(-0.00516029 0.00156839 0)
(-0.00635395 0.00161223 0)
(-0.00757896 0.00164898 0)
(-0.00883115 0.00168506 0)
(-0.0101084 0.00172194 0)
(-0.0114086 0.00175799 0)
(-0.0127274 0.00178982 0)
(-0.0140586 0.00181333 0)
(-0.0153927 0.00182419 0)
(-0.0167176 0.00181811 0)
(-0.0180186 0.00179097 0)
(-0.0192785 0.00173878 0)
(-0.0204781 0.00165762 0)
(-0.0215958 0.00154362 0)
(-0.0226086 0.00139297 0)
(-0.0234915 0.00120202 0)
(-0.0242182 0.000967464 0)
(-0.0247615 0.000686747 0)
(-0.0250936 0.000358478 0)
(-0.0251873 -1.69462e-05 0)
(-0.0250172 -0.000436578 0)
(-0.0245607 -0.000894691 0)
(-0.0238 -0.00138196 0)
(-0.0227239 -0.00188535 0)
(-0.0213296 -0.00238818 0)
(-0.0196245 -0.00287062 0)
(-0.0176275 -0.00331058 0)
(-0.01537 -0.00368509 0)
(-0.0128958 -0.00397204 0)
(-0.010261 -0.00415219 0)
(-0.00753184 -0.00421113 0)
(-0.00478207 -0.00414113 0)
(-0.00208928 -0.00394241 0)
(0.000469577 -0.00362361 0)
(0.00282294 -0.00320146 0)
(0.00490918 -0.00269931 0)
(0.00668047 -0.00214496 0)
(0.00810533 -0.00156789 0)
(0.00916957 -0.000996409 0)
(0.00987535 -0.000455063 0)
(0.0102404 3.88363e-05 0)
(0.010293 0.000472043 0)
(0.0100676 0.000838828 0)
(0.0096034 0.00113962 0)
(0.00893932 0.00137918 0)
(0.00811228 0.00156453 0)
(0.00715602 0.0017029 0)
(0.00610136 0.00179916 0)
(0.00497865 0.00185248 0)
(0.00382165 0.00185178 0)
(0.00267472 0.00176929 0)
(0.00159176 0.00155499 0)
(0.000706274 0.00113577 0)
(9.02075e-05 0.000468326 0)
(-7.5343e-05 0.000419234 0)
(-0.000643537 0.0012141 0)
(-0.00154107 0.00186818 0)
(-0.00271643 0.00233006 0)
(-0.00405174 0.00263217 0)
(-0.00549807 0.00282123 0)
(-0.0070173 0.00294129 0)
(-0.00858713 0.0030255 0)
(-0.0101953 0.00309482 0)
(-0.0118353 0.00315939 0)
(-0.0135021 0.0032214 0)
(-0.0151904 0.00327788 0)
(-0.0168922 0.00332305 0)
(-0.0185972 0.00334985 0)
(-0.0202916 0.00335098 0)
(-0.021959 0.00331936 0)
(-0.0235807 0.00324837 0)
(-0.0251359 0.00313183 0)
(-0.026602 0.00296392 0)
(-0.0279555 0.00273911 0)
(-0.0291716 0.00245214 0)
(-0.0302246 0.00209808 0)
(-0.0310881 0.00167269 0)
(-0.0317352 0.00117288 0)
(-0.0321386 0.000597429 0)
(-0.0322713 -5.21894e-05 0)
(-0.0321078 -0.000771132 0)
(-0.0316247 -0.00154959 0)
(-0.030802 -0.00237288 0)
(-0.0296252 -0.00322071 0)
(-0.0280872 -0.00406729 0)
(-0.0261899 -0.00488187 0)
(-0.0239465 -0.00562995 0)
(-0.0213833 -0.0062752 0)
(-0.0185411 -0.00678195 0)
(-0.0154752 -0.0071182 0)
(-0.0122554 -0.00725874 0)
(-0.00896309 -0.00718821 0)
(-0.00568811 -0.00690348 0)
(-0.00252358 -0.00641495 0)
(0.000440048 -0.00574645 0)
(0.00312122 -0.00493353 0)
(0.00545302 -0.00402024 0)
(0.00738746 -0.00305473 0)
(0.00889791 -0.00208448 0)
(0.00997908 -0.00115174 0)
(0.010645 -0.00029005 0)
(0.0109247 0.000477011 0)
(0.0108575 0.00113757 0)
(0.0104887 0.00168952 0)
(0.00986439 0.00213821 0)
(0.00902912 0.00249336 0)
(0.00802401 0.00276544 0)
(0.00688699 0.00296135 0)
(0.00565527 0.00307913 0)
(0.00436936 0.00310095 0)
(0.00308087 0.00298379 0)
(0.00184982 0.00264993 0)
(0.000831111 0.00198235 0)
(0.000107045 0.000856573 0)
(-0.000103145 0.000779107 0)
(-0.000855913 0.00207423 0)
(-0.00200783 0.00306474 0)
(-0.00348736 0.00374832 0)
(-0.00514246 0.00419423 0)
(-0.00691799 0.00447672 0)
(-0.0087717 0.00465964 0)
(-0.0106794 0.0047893 0)
(-0.0126272 0.00489419 0)
(-0.0146063 0.00498768 0)
(-0.0166087 0.00507204 0)
(-0.0186256 0.00514255 0)
(-0.0206455 0.00519067 0)
(-0.0226539 0.00520642 0)
(-0.024634 0.00517972 0)
(-0.0265667 0.00510123 0)
(-0.0284319 0.00496263 0)
(-0.0302084 0.00475656 0)
(-0.0318755 0.00447645 0)
(-0.0334124 0.00411627 0)
(-0.0347985 0.0036703 0)
(-0.0360135 0.00313319 0)
(-0.0370366 0.00250013 0)
(-0.0378462 0.00176748 0)
(-0.0384196 0.000933567 0)
(-0.0387325 -2.90309e-07 0)
(-0.0387589 -0.00102879 0)
(-0.0384715 -0.00214067 0)
(-0.0378431 -0.00331845 0)
(-0.0368471 -0.00453728 0)
(-0.0354603 -0.0057646 0)
(-0.0336659 -0.00696023 0)
(-0.0314568 -0.00807763 0)
(-0.0288398 -0.00906584 0)
(-0.0258392 -0.00987264 0)
(-0.0224997 -0.0104486 0)
(-0.0188874 -0.010752 0)
(-0.0150895 -0.0107531 0)
(-0.0112107 -0.0104392 0)
(-0.00736744 -0.00981722 0)
(-0.00368019 -0.00891473 0)
(-0.000263814 -0.00777866 0)
(0.00278166 -0.00647108 0)
(0.00537903 -0.00506292 0)
(0.00747921 -0.00362656 0)
(0.00906284 -0.00222842 0)
(0.0101384 -0.000922961 0)
(0.0107369 0.000251075 0)
(0.0109056 0.00127198 0)
(0.0107001 0.0021333 0)
(0.0101787 0.00284066 0)
(0.00939732 0.0034069 0)
(0.00840735 0.00384655 0)
(0.00725514 0.00416941 0)
(0.00598476 0.00437315 0)
(0.0046424 0.00443366 0)
(0.00328506 0.00429233 0)
(0.00197796 0.00384143 0)
(0.000890541 0.00291231 0)
(0.00011496 0.00128714 0)
(-0.000129661 0.00124264 0)
(-0.00105886 0.00315517 0)
(-0.00245428 0.00454043 0)
(-0.00422361 0.0054716 0)
(-0.00618022 0.00607175 0)
(-0.00826198 0.00645175 0)
(-0.0104224 0.00669914 0)
(-0.0126355 0.00687436 0)
(-0.0148859 0.00701315 0)
(-0.0171626 0.00713132 0)
(-0.0194551 0.00723062 0)
(-0.021751 0.00730418 0)
(-0.0240358 0.00734084 0)
(-0.0262926 0.00732817 0)
(-0.0285033 0.00725439 0)
(-0.0306492 0.00710934 0)
(-0.0327129 0.00688477 0)
(-0.0346787 0.00657415 0)
(-0.0365334 0.00617211 0)
(-0.0382661 0.00567381 0)
(-0.039868 0.00507435 0)
(-0.041331 0.00436843 0)
(-0.0426465 0.0035504 0)
(-0.0438035 0.0026147 0)
(-0.0447866 0.00155663 0)
(-0.0455746 0.00037362 0)
(-0.046138 -0.000933092 0)
(-0.0464385 -0.00235701 0)
(-0.0464295 -0.00388384 0)
(-0.0460573 -0.00548965 0)
(-0.0452641 -0.00714011 0)
(-0.0439935 -0.00878867 0)
(-0.0421967 -0.0103771 0)
(-0.0398408 -0.0118369 0)
(-0.036916 -0.0130936 0)
(-0.0334424 -0.0140716 0)
(-0.0294746 -0.0147012 0)
(-0.025103 -0.0149263 0)
(-0.0204519 -0.0147122 0)
(-0.0156728 -0.0140514 0)
(-0.010934 -0.012968 0)
(-0.00640688 -0.011517 0)
(-0.00225053 -0.00978025 0)
(0.00140272 -0.00785815 0)
(0.00445873 -0.00585806 0)
(0.00686748 -0.00388229 0)
(0.00862271 -0.00201744 0)
(0.00975578 -0.00032719 0)
(0.0103254 0.00115055 0)
(0.0104063 0.00240202 0)
(0.0100786 0.00343267 0)
(0.00941939 0.00425989 0)
(0.00849865 0.00490467 0)
(0.00737758 0.00538242 0)
(0.0061114 0.00569275 0)
(0.00475439 0.00580678 0)
(0.00337005 0.00565049 0)
(0.00202946 0.00508432 0)
(0.000911999 0.00388363 0)
(0.000117129 0.00173608 0)
(-0.000155019 0.00180506 0)
(-0.00125167 0.00444627 0)
(-0.00287723 0.00628109 0)
(-0.00491925 0.0074826 0)
(-0.00715752 0.00824391 0)
(-0.00952273 0.00872166 0)
(-0.0119638 0.00903116 0)
(-0.0144533 0.00924814 0)
(-0.0169739 0.00941531 0)
(-0.019513 0.00955028 0)
(-0.0220575 0.00965381 0)
(-0.0245927 0.00971694 0)
(-0.0271024 0.00972656 0)
(-0.0295696 0.00966924 0)
(-0.0319782 0.00953356 0)
(-0.0343153 0.00931121 0)
(-0.0365723 0.00899707 0)
(-0.0387461 0.00858849 0)
(-0.0408399 0.00808411 0)
(-0.0428619 0.00748246 0)
(-0.0448241 0.00678063 0)
(-0.0467396 0.00597334 0)
(-0.0486194 0.00505238 0)
(-0.050468 0.00400669 0)
(-0.0522793 0.00282299 0)
(-0.0540318 0.00148724 0)
(-0.0556845 -1.32083e-05 0)
(-0.057174 -0.00168709 0)
(-0.0584146 -0.00353413 0)
(-0.0593015 -0.0055399 0)
(-0.0597166 -0.00767684 0)
(-0.0595363 -0.00989534 0)
(-0.0586451 -0.0121247 0)
(-0.0569475 -0.014274 0)
(-0.0543815 -0.0162367 0)
(-0.0509286 -0.0178976 0)
(-0.046622 -0.0191422 0)
(-0.0415515 -0.0198691 0)
(-0.0358623 -0.0200017 0)
(-0.0297499 -0.0195 0)
(-0.0234479 -0.0183689 0)
(-0.0172103 -0.0166624 0)
(-0.0112892 -0.0144806 0)
(-0.00591048 -0.0119599 0)
(-0.00125202 -0.0092573 0)
(0.00257218 -0.00653037 0)
(0.0055175 -0.00391887 0)
(0.00760364 -0.00153016 0)
(0.00890083 0.000567894 0)
(0.00951136 0.00234636 0)
(0.0095511 0.00380817 0)
(0.00913451 0.00497706 0)
(0.00836517 0.00588477 0)
(0.00733194 0.00655744 0)
(0.00611091 0.00700141 0)
(0.00477136 0.00718667 0)
(0.00338758 0.00702566 0)
(0.0020391 0.00634701 0)
(0.000913523 0.00486919 0)
(0.00011651 0.002189 0)
(-0.000179132 0.00246135 0)
(-0.00143333 0.0059353 0)
(-0.00327383 0.00827001 0)
(-0.00556932 0.00976167 0)
(-0.00806792 0.0106887 0)
(-0.0106935 0.011262 0)
(-0.0133905 0.0116289 0)
(-0.0161296 0.0118813 0)
(-0.0188922 0.012069 0)
(-0.0216639 0.0122109 0)
(-0.0244302 0.0123067 0)
(-0.0271754 0.0123463 0)
(-0.0298842 0.0123162 0)
(-0.0325431 0.0122045 0)
(-0.0351439 0.0120037 0)
(-0.0376857 0.0117116 0)
(-0.0401777 0.0113307 0)
(-0.0426399 0.0108665 0)
(-0.0451027 0.0103254 0)
(-0.0476055 0.0097116 0)
(-0.0501923 0.00902508 0)
(-0.0529075 0.008259 0)
(-0.0557886 0.00739839 0)
(-0.0588586 0.00641928 0)
(-0.062117 0.00528908 0)
(-0.0655317 0.00396836 0)
(-0.0690317 0.00241463 0)
(-0.0725034 0.000588371 0)
(-0.0757902 -0.00153982 0)
(-0.0787052 -0.00398212 0)
(-0.0810411 -0.00671822 0)
(-0.0825813 -0.00969798 0)
(-0.0831256 -0.0128352 0)
(-0.0825039 -0.0160067 0)
(-0.0805938 -0.0190602 0)
(-0.0773311 -0.0218239 0)
(-0.0727208 -0.0241196 0)
(-0.0668428 -0.025778 0)
(-0.0598552 -0.0266563 0)
(-0.0519924 -0.026656 0)
(-0.0435552 -0.0257381 0)
(-0.0348944 -0.0239352 0)
(-0.0263832 -0.0213534 0)
(-0.0183835 -0.0181654 0)
(-0.0112088 -0.0145911 0)
(-0.00509133 -0.0108695 0)
(-0.000161141 -0.00722615 0)
(0.00355731 -0.00384554 0)
(0.00613112 -0.000853231 0)
(0.00769226 0.00168819 0)
(0.00840672 0.0037708 0)
(0.00844698 0.00542474 0)
(0.00797262 0.00669799 0)
(0.00712049 0.00763561 0)
(0.00600426 0.00825906 0)
(0.00472068 0.00854417 0)
(0.00336339 0.00839467 0)
(0.00202577 0.00761017 0)
(0.000905228 0.0058542 0)
(0.000114632 0.00263871 0)
(-0.000201823 0.00320596 0)
(-0.00160264 0.00760872 0)
(-0.00364151 0.0104888 0)
(-0.0061699 0.0122878 0)
(-0.0089067 0.0133834 0)
(-0.0117696 0.0140491 0)
(-0.0146988 0.0144673 0)
(-0.0176634 0.0147478 0)
(-0.0206436 0.0149473 0)
(-0.0236241 0.0150863 0)
(-0.0265901 0.0151641 0)
(-0.0295277 0.015171 0)
(-0.0324258 0.0150961 0)
(-0.0352804 0.0149335 0)
(-0.0380981 0.0146849 0)
(-0.0409001 0.0143603 0)
(-0.0437248 0.013976 0)
(-0.0466283 0.0135514 0)
(-0.0496827 0.0131048 0)
(-0.0529716 0.0126484 0)
(-0.0565835 0.0121842 0)
(-0.0606022 0.0116992 0)
(-0.0650943 0.0111623 0)
(-0.0700952 0.0105223 0)
(-0.0755941 0.00970809 0)
(-0.0815209 0.00863186 0)
(-0.0877379 0.00719741 0)
(-0.0940399 0.00531247 0)
(-0.100166 0.00290241 0)
(-0.105812 -7.51526e-05 0)
(-0.110661 -0.00361017 0)
(-0.11441 -0.00764298 0)
(-0.116782 -0.0120614 0)
(-0.117546 -0.016692 0)
(-0.116534 -0.0213245 0)
(-0.113642 -0.0257177 0)
(-0.108843 -0.029616 0)
(-0.10219 -0.032766 0)
(-0.0938255 -0.034937 0)
(-0.083991 -0.0359441 0)
(-0.0730247 -0.0356714 0)
(-0.0613547 -0.034094 0)
(-0.0494761 -0.0312928 0)
(-0.0379132 -0.0274574 0)
(-0.0271678 -0.0228705 0)
(-0.0176619 -0.0178739 0)
(-0.00968811 -0.0128205 0)
(-0.00338167 -0.00802309 0)
(0.0012771 -0.00371475 0)
(0.00443229 -3.00027e-05 0)
(0.00630561 0.00299008 0)
(0.00714845 0.00537514 0)
(0.00720433 0.00719387 0)
(0.00668642 0.00852102 0)
(0.00577074 0.00940605 0)
(0.004601 0.00984247 0)
(0.00330425 0.00973452 0)
(0.00199708 0.0088592 0)
(0.000891938 0.00683014 0)
(0.000112277 0.00308201 0)
(-0.00022288 0.00403267 0)
(-0.0017584 0.00945192 0)
(-0.00397819 0.0129181 0)
(-0.00671828 0.0150393 0)
(-0.00967107 0.0163056 0)
(-0.0127488 0.01706 0)
(-0.0158882 0.0175236 0)
(-0.019057 0.0178252 0)
(-0.0222347 0.0180287 0)
(-0.0254064 0.0181571 0)
(-0.0285592 0.0182111 0)
(-0.0316841 0.0181841 0)
(-0.03478 0.018073 0)
(-0.0378594 0.0178841 0)
(-0.0409542 0.0176361 0)
(-0.04412 0.0173593 0)
(-0.047439 0.017092 0)
(-0.0510191 0.0168741 0)
(-0.0549891 0.0167398 0)
(-0.0594902 0.0167096 0)
(-0.0646634 0.0167823 0)
(-0.0706318 0.0169274 0)
(-0.0774795 0.0170787 0)
(-0.0852282 0.0171314 0)
(-0.093815 0.0169437 0)
(-0.103079 0.0163464 0)
(-0.112758 0.0151614 0)
(-0.122508 0.0132251 0)
(-0.131931 0.0104156 0)
(-0.140611 0.00667484 0)
(-0.148153 0.00201725 0)
(-0.154209 -0.00345902 0)
(-0.15848 -0.00958252 0)
(-0.16072 -0.0161354 0)
(-0.160754 -0.0228402 0)
(-0.158454 -0.0293904 0)
(-0.153752 -0.0354561 0)
(-0.146648 -0.0407012 0)
(-0.137222 -0.0447995 0)
(-0.125656 -0.0474593 0)
(-0.112254 -0.0484515 0)
(-0.097452 -0.0476449 0)
(-0.0818141 -0.045038 0)
(-0.066009 -0.0407833 0)
(-0.0507521 -0.0351907 0)
(-0.0367265 -0.0287015 0)
(-0.0244912 -0.0218294 0)
(-0.0144053 -0.0150804 0)
(-0.00659068 -0.00887273 0)
(-0.00094906 -0.00348353 0)
(0.00277854 0.000963632 0)
(0.00493444 0.004474 0)
(0.00587535 0.00713475 0)
(0.00592601 0.00906154 0)
(0.00535829 0.0103492 0)
(0.00439062 0.011027 0)
(0.00320429 0.0110148 0)
(0.00195361 0.0100785 0)
(0.000875447 0.00779044 0)
(0.000109855 0.00351756 0)
(-0.000242099 0.0049346 0)
(-0.0018996 0.0114494 0)
(-0.00428239 0.015538 0)
(-0.00721292 0.0179944 0)
(-0.01036 0.0194332 0)
(-0.0136314 0.0202731 0)
(-0.0169609 0.0207772 0)
(-0.0203155 0.0210944 0)
(-0.0236753 0.021297 0)
(-0.0270274 0.0214117 0)
(-0.0303636 0.0214436 0)
(-0.0336846 0.0213948 0)
(-0.0370065 0.0212763 0)
(-0.0403682 0.0211159 0)
(-0.0438395 0.0209598 0)
(-0.0475257 0.0208692 0)
(-0.0515694 0.0209136 0)
(-0.056146 0.0211594 0)
(-0.0614543 0.0216583 0)
(-0.0676995 0.0224336 0)
(-0.0750704 0.0234666 0)
(-0.0837092 0.0246841 0)
(-0.0936767 0.0259488 0)
(-0.104919 0.0270581 0)
(-0.117245 0.027754 0)
(-0.130324 0.02775 0)
(-0.143714 0.0267689 0)
(-0.15691 0.0245864 0)
(-0.169405 0.0210671 0)
(-0.180738 0.0161819 0)
(-0.190522 0.010003 0)
(-0.198444 0.00269372 0)
(-0.204278 -0.0055103 0)
(-0.207834 -0.0143344 0)
(-0.208957 -0.023461 0)
(-0.207523 -0.0325419 0)
(-0.203422 -0.041204 0)
(-0.196569 -0.0490534 0)
(-0.186928 -0.0556841 0)
(-0.174539 -0.0606964 0)
(-0.159562 -0.0637245 0)
(-0.142318 -0.0644794 0)
(-0.123319 -0.0627998 0)
(-0.103276 -0.0587069 0)
(-0.0830725 -0.0524456 0)
(-0.0636771 -0.0444927 0)
(-0.0460188 -0.0355133 0)
(-0.0308381 -0.0262607 0)
(-0.0185671 -0.0174413 0)
(-0.00928483 -0.00959211 0)
(-0.00276519 -0.00301585 0)
(0.00141197 0.00221026 0)
(0.00374042 0.00617127 0)
(0.00469657 0.00903054 0)
(0.00469085 0.0109491 0)
(0.00405379 0.0120166 0)
(0.00305004 0.0121917 0)
(0.00189242 0.0112472 0)
(0.000856355 0.00872782 0)
(0.000107681 0.00394491 0)
(-0.000259296 0.00590432 0)
(-0.00202543 0.0135852 0)
(-0.00455311 0.0183283 0)
(-0.00765309 0.0211317 0)
(-0.0109736 0.0227451 0)
(-0.014419 0.0236687 0)
(-0.0179208 0.0242103 0)
(-0.0214463 0.0245403 0)
(-0.0249774 0.0247413 0)
(-0.0285056 0.0248464 0)
(-0.0320317 0.0248698 0)
(-0.0355723 0.024829 0)
(-0.0391694 0.0247597 0)
(-0.0429009 0.0247232 0)
(-0.0468893 0.0248058 0)
(-0.0513062 0.025112 0)
(-0.0563705 0.0257508 0)
(-0.0623374 0.0268182 0)
(-0.069479 0.0283774 0)
(-0.0780544 0.0304363 0)
(-0.0882692 0.0329266 0)
(-0.100227 0.0356839 0)
(-0.113881 0.0384401 0)
(-0.129001 0.0408331 0)
(-0.145166 0.0424432 0)
(-0.161815 0.0428541 0)
(-0.178319 0.0417221 0)
(-0.194073 0.0388307 0)
(-0.208565 0.0341119 0)
(-0.221409 0.027635 0)
(-0.23234 0.0195735 0)
(-0.24119 0.0101687 0)
(-0.247859 -0.000292444 0)
(-0.25228 -0.011488 0)
(-0.254375 -0.0230989 0)
(-0.254048 -0.0347839 0)
(-0.251158 -0.0461766 0)
(-0.245535 -0.0568773 0)
(-0.236989 -0.0664448 0)
(-0.225352 -0.0744039 0)
(-0.21053 -0.0802593 0)
(-0.192577 -0.0835369 0)
(-0.171764 -0.083844 0)
(-0.14865 -0.0809524 0)
(-0.124108 -0.0748899 0)
(-0.099294 -0.0660132 0)
(-0.0755244 -0.0550283 0)
(-0.0540733 -0.0429177 0)
(-0.0359272 -0.0307676 0)
(-0.0215955 -0.0195419 0)
(-0.0110652 -0.00989724 0)
(-0.00391484 -0.0021191 0)
(0.000488924 0.00381509 0)
(0.00281696 0.00810779 0)
(0.00367143 0.0110071 0)
(0.0035445 0.0126959 0)
(0.0028238 0.0132036 0)
(0.00180941 0.012337 0)
(0.000835358 0.00963334 0)
(0.000106164 0.0043644 0)
(-0.000274302 0.00693388 0)
(-0.00213519 0.0158429 0)
(-0.00478961 0.0212692 0)
(-0.00803851 0.0244307 0)
(-0.0115126 0.0262215 0)
(-0.0151137 0.0272288 0)
(-0.0187722 0.0278075 0)
(-0.0224567 0.0281519 0)
(-0.0261529 0.0283567 0)
(-0.0298597 0.0284658 0)
(-0.0335919 0.0285094 0)
(-0.0373899 0.0285307 0)
(-0.0413327 0.0286028 0)
(-0.045551 0.0288354 0)
(-0.0502358 0.0293701 0)
(-0.0556405 0.0303656 0)
(-0.0620706 0.0319752 0)
(-0.0698618 0.034318 0)
(-0.0793437 0.0374469 0)
(-0.0907878 0.0413144 0)
(-0.104344 0.0457401 0)
(-0.119971 0.0503906 0)
(-0.13739 0.0547866 0)
(-0.156077 0.0583508 0)
(-0.175323 0.0604983 0)
(-0.194351 0.0607436 0)
(-0.212444 0.058783 0)
(-0.229036 0.0545213 0)
(-0.243749 0.0480471 0)
(-0.256393 0.0395816 0)
(-0.266919 0.0294211 0)
(-0.275371 0.0178881 0)
(-0.281831 0.00530245 0)
(-0.286384 -0.00802888 0)
(-0.289081 -0.021814 0)
(-0.289886 -0.0357759 0)
(-0.288667 -0.049615 0)
(-0.285198 -0.0629942 0)
(-0.279157 -0.07551 0)
(-0.270163 -0.0866807 0)
(-0.257815 -0.0959387 0)
(-0.241784 -0.10265 0)
(-0.221914 -0.106169 0)
(-0.198346 -0.105925 0)
(-0.171639 -0.101559 0)
(-0.142839 -0.0930687 0)
(-0.113455 -0.0809468 0)
(-0.0852806 -0.0662164 0)
(-0.0600736 -0.050314 0)
(-0.0391501 -0.0347886 0)
(-0.0230875 -0.0209221 0)
(-0.0117002 -0.00946262 0)
(-0.00428522 -0.000601782 0)
(5.38349e-05 0.00585268 0)
(0.0021774 0.0102499 0)
(0.00280597 0.0129059 0)
(0.00250467 0.0139661 0)
(0.00170051 0.0133101 0)
(0.00081393 0.0104962 0)
(0.000105903 0.00477759 0)
(-0.000286949 0.00801492 0)
(-0.00222818 0.0182059 0)
(-0.00499113 0.0243408 0)
(-0.0083688 0.0278713 0)
(-0.0119774 0.0298438 0)
(-0.0157174 0.0309372 0)
(-0.0195188 0.0315562 0)
(-0.0233532 0.0319213 0)
(-0.027212 0.0321432 0)
(-0.0311058 0.0322824 0)
(-0.0350693 0.0323942 0)
(-0.0391761 0.0325608 0)
(-0.0435543 0.032909 0)
(-0.0484017 0.033614 0)
(-0.0539922 0.0348865 0)
(-0.0606696 0.0369463 0)
(-0.0688246 0.0399849 0)
(-0.078853 0.0441201 0)
(-0.091093 0.0493469 0)
(-0.105744 0.0554866 0)
(-0.12278 0.0621501 0)
(-0.141873 0.0687353 0)
(-0.162389 0.0744852 0)
(-0.183457 0.0786133 0)
(-0.204127 0.08046 0)
(-0.223542 0.0796161 0)
(-0.241065 0.0759632 0)
(-0.256324 0.0696357 0)
(-0.269199 0.0609409 0)
(-0.279772 0.050272 0)
(-0.288255 0.0380396 0)
(-0.294923 0.0246228 0)
(-0.300051 0.0103373 0)
(-0.303875 -0.00456146 0)
(-0.306567 -0.0198606 0)
(-0.308185 -0.035386 0)
(-0.308651 -0.0509555 0)
(-0.307755 -0.0663579 0)
(-0.30513 -0.0813127 0)
(-0.300263 -0.0954239 0)
(-0.292516 -0.108158 0)
(-0.281187 -0.118819 0)
(-0.265609 -0.126573 0)
(-0.245309 -0.13051 0)
(-0.220195 -0.129781 0)
(-0.190756 -0.123795 0)
(-0.158212 -0.112473 0)
(-0.124513 -0.0964688 0)
(-0.0920985 -0.0772561 0)
(-0.0633834 -0.0569242 0)
(-0.0401023 -0.0376554 0)
(-0.0228525 -0.0210936 0)
(-0.0111506 -0.00799577 0)
(-0.00391545 0.00165889 0)
(4.25849e-05 0.00830264 0)
(0.0017631 0.0124307 0)
(0.0020659 0.0143662 0)
(0.00156101 0.0141169 0)
(0.000794239 0.011304 0)
(0.000107676 0.00518789 0)
(-0.000297055 0.00913857 0)
(-0.0023036 0.0206572 0)
(-0.00515664 0.0275236 0)
(-0.00864311 0.0314341 0)
(-0.0123679 0.0335944 0)
(-0.0162307 0.034779 0)
(-0.0201626 0.0354456 0)
(-0.0241396 0.0358438 0)
(-0.0281617 0.0361052 0)
(-0.0322555 0.036315 0)
(-0.0364831 0.0365659 0)
(-0.0409607 0.0369951 0)
(-0.0458783 0.0378016 0)
(-0.0515132 0.0392428 0)
(-0.05823 0.0416082 0)
(-0.06646 0.0451742 0)
(-0.0766566 0.0501449 0)
(-0.0892234 0.0565841 0)
(-0.104418 0.0643427 0)
(-0.122241 0.0729983 0)
(-0.14234 0.081835 0)
(-0.163983 0.0899041 0)
(-0.186137 0.0961832 0)
(-0.207664 0.0997939 0)
(-0.227544 0.100185 0)
(-0.245045 0.0972028 0)
(-0.259787 0.0910388 0)
(-0.271719 0.0821202 0)
(-0.281048 0.0709833 0)
(-0.288144 0.058169 0)
(-0.29345 0.0441577 0)
(-0.29742 0.0293357 0)
(-0.300457 0.0139811 0)
(-0.302887 -0.00173597 0)
(-0.304957 -0.0177185 0)
(-0.306793 -0.0338822 0)
(-0.30841 -0.0501998 0)
(-0.309687 -0.0666126 0)
(-0.310336 -0.0830174 0)
(-0.309878 -0.0991952 0)
(-0.307629 -0.114769 0)
(-0.302694 -0.129139 0)
(-0.294032 -0.141453 0)
(-0.280566 -0.150604 0)
(-0.261392 -0.155315 0)
(-0.236055 -0.154322 0)
(-0.20488 -0.146676 0)
(-0.16924 -0.132144 0)
(-0.131622 -0.111595 0)
(-0.0953057 -0.0871493 0)
(-0.0635651 -0.0618345 0)
(-0.0386118 -0.0386658 0)
(-0.0209319 -0.0196304 0)
(-0.00956648 -0.00532091 0)
(-0.00297826 0.00464402 0)
(0.000304797 0.0109736 0)
(0.00146678 0.0142509 0)
(0.00138216 0.0146925 0)
(0.000777936 0.0120414 0)
(0.000112267 0.00560091 0)
(-0.000304411 0.0102954 0)
(-0.00236043 0.0231791 0)
(-0.00528466 0.0307976 0)
(-0.00885974 0.0350998 0)
(-0.0126823 0.037456 0)
(-0.0166523 0.0387401 0)
(-0.0207029 0.0394659 0)
(-0.0248162 0.0399163 0)
(-0.029004 0.0402501 0)
(-0.0333139 0.0405876 0)
(-0.0378427 0.0410738 0)
(-0.0427595 0.0419193 0)
(-0.0483265 0.0434143 0)
(-0.0549074 0.0459111 0)
(-0.0629543 0.0497767 0)
(-0.0729642 0.0553204 0)
(-0.0854021 0.0627046 0)
(-0.100593 0.0718474 0)
(-0.118588 0.0823321 0)
(-0.139045 0.0933596 0)
(-0.161173 0.103797 0)
(-0.183807 0.112361 0)
(-0.205621 0.1179 0)
(-0.22542 0.119665 0)
(-0.242354 0.117426 0)
(-0.256021 0.111426 0)
(-0.266433 0.102232 0)
(-0.273919 0.0905561 0)
(-0.278999 0.0771095 0)
(-0.282264 0.0625078 0)
(-0.284282 0.0472251 0)
(-0.285554 0.0315891 0)
(-0.286496 0.0157998 0)
(-0.287432 -5.6597e-05 0)
(-0.288562 -0.015973 0)
(-0.290036 -0.0319712 0)
(-0.291957 -0.0481281 0)
(-0.294314 -0.06452 0)
(-0.296998 -0.0812063 0)
(-0.29973 -0.0981825 0)
(-0.302015 -0.115315 0)
(-0.303076 -0.132262 0)
(-0.301825 -0.148378 0)
(-0.296886 -0.162635 0)
(-0.286721 -0.173601 0)
(-0.269888 -0.179512 0)
(-0.245433 -0.17853 0)
(-0.213392 -0.169183 0)
(-0.175254 -0.151002 0)
(-0.134151 -0.12516 0)
(-0.0944294 -0.0947292 0)
(-0.0604223 -0.064064 0)
(-0.0347788 -0.0371941 0)
(-0.0176046 -0.0162791 0)
(-0.00726114 -0.00146551 0)
(-0.00174503 0.00811588 0)
(0.000638113 0.0134074 0)
(0.00114455 0.0149471 0)
(0.000763607 0.0126878 0)
(0.000120108 0.00602408 0)
(-0.000308776 0.0114753 0)
(-0.00239741 0.0257533 0)
(-0.00537311 0.0341425 0)
(-0.00901597 0.0388489 0)
(-0.0129176 0.0414114 0)
(-0.0169787 0.0428065 0)
(-0.0211358 0.043608 0)
(-0.025379 0.0441366 0)
(-0.029735 0.044587 0)
(-0.0342776 0.0451267 0)
(-0.0391455 0.0459703 0)
(-0.0445691 0.0474214 0)
(-0.0508885 0.049877 0)
(-0.0585516 0.0537879 0)
(-0.0680789 0.0595796 0)
(-0.0799872 0.0675425 0)
(-0.0946739 0.0777067 0)
(-0.11227 0.0897168 0)
(-0.13249 0.102746 0)
(-0.154546 0.115516 0)
(-0.177194 0.12648 0)
(-0.198954 0.134165 0)
(-0.218446 0.137542 0)
(-0.234686 0.136234 0)
(-0.247224 0.130505 0)
(-0.256126 0.121059 0)
(-0.26184 0.108811 0)
(-0.265034 0.0946727 0)
(-0.266433 0.0794197 0)
(-0.266705 0.0636312 0)
(-0.266393 0.047687 0)
(-0.2659 0.0317976 0)
(-0.265516 0.0160516 0)
(-0.265438 0.000466116 0)
(-0.265783 -0.0149921 0)
(-0.266655 -0.0304247 0)
(-0.268159 -0.0459327 0)
(-0.27039 -0.0616544 0)
(-0.273412 -0.0777404 0)
(-0.277218 -0.0943458 0)
(-0.28165 -0.111578 0)
(-0.286309 -0.129419 0)
(-0.290437 -0.14761 0)
(-0.292835 -0.1655 0)
(-0.291836 -0.181899 0)
(-0.285422 -0.195001 0)
(-0.271524 -0.202442 0)
(-0.248558 -0.201623 0)
(-0.216154 -0.190363 0)
(-0.175895 -0.16788 0)
(-0.131696 -0.13583 0)
(-0.0892424 -0.0987087 0)
(-0.0540708 -0.0626889 0)
(-0.0290173 -0.0328467 0)
(-0.0133656 -0.0110775 0)
(-0.00466308 0.00325857 0)
(-0.000537372 0.0115304 0)
(0.000808032 0.0147505 0)
(0.000743002 0.0132096 0)
(0.000130948 0.00646485 0)
(-0.000309873 0.0126674 0)
(-0.00241299 0.0283604 0)
(-0.00541927 0.0375369 0)
(-0.00910798 0.0426611 0)
(-0.0130688 0.0454426 0)
(-0.0172039 0.0469636 0)
(-0.0214542 0.0478615 0)
(-0.0258193 0.0485017 0)
(-0.0303443 0.0491237 0)
(-0.0351335 0.0499573 0)
(-0.040374 0.0513048 0)
(-0.0463617 0.0535806 0)
(-0.0535135 0.0572968 0)
(-0.0623465 0.062991 0)
(-0.0734112 0.071103 0)
(-0.0871766 0.0818208 0)
(-0.103874 0.0949177 0)
(-0.123325 0.109621 0)
(-0.144819 0.124579 0)
(-0.167113 0.13802 0)
(-0.18863 0.14812 0)
(-0.207821 0.153482 0)
(-0.223537 0.153478 0)
(-0.235242 0.148308 0)
(-0.243023 0.138797 0)
(-0.247435 0.126073 0)
(-0.249292 0.111283 0)
(-0.249456 0.0953912 0)
(-0.248683 0.0790929 0)
(-0.247547 0.0628166 0)
(-0.246422 0.0467753 0)
(-0.245509 0.0310346 0)
(-0.244894 0.0155783 0)
(-0.244592 0.000362824 0)
(-0.244609 -0.0146627 0)
(-0.244975 -0.029577 0)
(-0.245758 -0.0444594 0)
(-0.24709 -0.0594212 0)
(-0.249148 -0.0746141 0)
(-0.25213 -0.0902445 0)
(-0.2562 -0.106558 0)
(-0.261394 -0.123798 0)
(-0.267484 -0.142103 0)
(-0.27382 -0.161348 0)
(-0.279169 -0.180926 0)
(-0.281627 -0.199508 0)
(-0.278699 -0.214869 0)
(-0.26764 -0.223919 0)
(-0.246146 -0.223099 0)
(-0.213371 -0.209327 0)
(-0.17104 -0.181493 0)
(-0.124085 -0.142097 0)
(-0.0798387 -0.0977824 0)
(-0.0450318 -0.0570529 0)
(-0.0220589 -0.0256501 0)
(-0.00885707 -0.00445488 0)
(-0.00224764 0.00817523 0)
(0.000301336 0.0139081 0)
(0.00069732 0.0135491 0)
(0.000143831 0.00692628 0)
(-0.000307408 0.0138599 0)
(-0.0024054 0.0309795 0)
(-0.00541987 0.040958 0)
(-0.00913094 0.0465148 0)
(-0.0131296 0.0495302 0)
(-0.0173198 0.0511949 0)
(-0.0216476 0.0522145 0)
(-0.0261239 0.0530058 0)
(-0.0308146 0.0538649 0)
(-0.0358585 0.0550992 0)
(-0.0414939 0.0571162 0)
(-0.048082 0.0604536 0)
(-0.0561055 0.0657356 0)
(-0.066121 0.0735536 0)
(-0.0786546 0.0842903 0)
(-0.0940465 0.0979178 0)
(-0.112266 0.113814 0)
(-0.132752 0.130665 0)
(-0.154356 0.14656 0)
(-0.175491 0.159345 0)
(-0.194477 0.167178 0)
(-0.209976 0.16904 0)
(-0.221307 0.16494 0)
(-0.228516 0.155748 0)
(-0.232227 0.142804 0)
(-0.233385 0.127524 0)
(-0.232992 0.111103 0)
(-0.231905 0.0943843 0)
(-0.230733 0.0778486 0)
(-0.229817 0.0616923 0)
(-0.229275 0.0459311 0)
(-0.229077 0.0304965 0)
(-0.229109 0.0153045 0)
(-0.229239 0.000292277 0)
(-0.229374 -0.0145751 0)
(-0.229477 -0.0293101 0)
(-0.229575 -0.043922 0)
(-0.229791 -0.0584445 0)
(-0.230333 -0.0729616 0)
(-0.231495 -0.0876367 0)
(-0.233627 -0.10273 0)
(-0.23708 -0.118598 0)
(-0.242099 -0.135643 0)
(-0.248663 -0.1542 0)
(-0.256261 -0.174321 0)
(-0.263667 -0.195472 0)
(-0.268766 -0.216173 0)
(-0.268592 -0.233709 0)
(-0.259703 -0.244102 0)
(-0.239056 -0.242622 0)
(-0.205369 -0.225129 0)
(-0.160703 -0.190337 0)
(-0.111394 -0.142297 0)
(-0.0667571 -0.0908509 0)
(-0.0343052 -0.0470751 0)
(-0.0148626 -0.0162071 0)
(-0.00475928 0.00270701 0)
(-0.000484947 0.0121295 0)