/*--------------------------------*- C++ -*----------------------------------*\
| =========                 |                                                 |
| \\      /  F ield         | OpenFOAM: The Open Source CFD Toolbox           |
|  \\    /   O peration     | Version:  2406                                  |
|   \\  /    A nd           | Website:  www.openfoam.com                      |
|    \\/     M anipulation  |                                                 |
\*---------------------------------------------------------------------------*/
FoamFile
{
    version     2.0;
    format      ascii;
    arch        "LSB;label=32;scalar=64";
    class       volVectorField;
    location    "0.3";
    object      analytical_velocity;
}
// * * * * * * * * * * * * * * * * * * * * * * * * * * * * * * * * * * * * * //

dimensions      [0 1 -1 0 0 0 0];

internalField   nonuniform List<vector> 
16384
(
(-0.024533835691 0.024533835691 0)
(-0.0244747315319 0.0735424029138 0)
(-0.0243566656008 0.122373800047 0)
(-0.0241799223289 0.170910387977 0)
(-0.0239449275062 0.219035237812 0)
(-0.0236522472558 0.266632412574 0)
(-0.0233025866701 0.3135872465 0)
(-0.022896788112 0.359786621282 0)
(-0.022435829186 0.405119238579 0)
(-0.0219208203821 0.449475888147 0)
(-0.021353002402 0.492749710932 0)
(-0.0207337431688 0.534836456502 0)
(-0.0200645345322 0.575634734203 0)
(-0.0193469886745 0.61504625741 0)
(-0.0185828342265 0.652976080311 0)
(-0.0177739121032 0.689332826641 0)
(-0.0169221710688 0.724028909813 0)
(-0.0160296630421 0.756980743924 0)
(-0.0150985381531 0.788108945119 0)
(-0.0141310395632 0.817338522836 0)
(-0.0131294980613 0.84459906046 0)
(-0.0120963264486 0.86982488497 0)
(-0.0110340137259 0.892955225144 0)
(-0.00994511909771 0.913934357967 0)
(-0.00883226580653 0.932711742871 0)
(-0.0076981348134 0.949242143491 0)
(-0.00654545833912 0.963485736644 0)
(-0.00537701328239 0.975408208267 0)
(-0.0041956145298 0.984980836079 0)
(-0.00300410817432 0.992180558783 0)
(-0.00180536465913 0.996990031616 0)
(-0.000602271862333 0.999397668138 0)
(0.00060227186013 0.99939766814 0)
(0.00180536465693 0.996990031623 0)
(0.00300410817214 0.992180558794 0)
(0.00419561452763 0.984980836094 0)
(0.00537701328024 0.975408208287 0)
(0.006545458337 0.963485736668 0)
(0.00769813481131 0.949242143519 0)
(0.00883226580447 0.932711742903 0)
(0.00994511909569 0.913934358004 0)
(0.0110340137239 0.892955225184 0)
(0.0120963264466 0.869824885014 0)
(0.0131294980594 0.844599060509 0)
(0.0141310395614 0.817338522888 0)
(0.0150985381513 0.788108945176 0)
(0.0160296630404 0.756980743985 0)
(0.0169221710672 0.724028909875 0)
(0.0177739121017 0.689332826703 0)
(0.0185828342251 0.652976080377 0)
(0.0193469886732 0.615046257479 0)
(0.020064534531 0.575634734276 0)
(0.0207337431676 0.534836456578 0)
(0.0213530024009 0.49274971101 0)
(0.0219208203811 0.449475888229 0)
(0.022435829185 0.405119238664 0)
(0.0228967881112 0.359786621368 0)
(0.0233025866694 0.313587246588 0)
(0.0236522472552 0.26663241266 0)
(0.0239449275057 0.219035237895 0)
(0.0241799223285 0.170910388061 0)
(0.0243566656005 0.122373800133 0)
(0.0244747315317 0.073542403002 0)
(0.0245338356909 0.0245338357802 0)
(0.024533835691 -0.0245338356008 0)
(0.024474731532 -0.0735424028229 0)
(0.0243566656011 -0.122373799955 0)
(0.0241799223293 -0.170910387885 0)
(0.0239449275067 -0.21903523772 0)
(0.0236522472564 -0.266632412487 0)
(0.0233025866708 -0.313587246418 0)
(0.0228967881128 -0.359786621201 0)
(0.0224358291868 -0.405119238499 0)
(0.0219208203831 -0.449475888068 0)
(0.0213530024031 -0.492749710854 0)
(0.02073374317 -0.534836456426 0)
(0.0200645345335 -0.575634734129 0)
(0.0193469886759 -0.615046257337 0)
(0.018582834228 -0.652976080241 0)
(0.0177739121047 -0.689332826576 0)
(0.0169221710703 -0.724028909754 0)
(0.0160296630437 -0.756980743868 0)
(0.0150985381548 -0.788108945066 0)
(0.014131039565 -0.817338522785 0)
(0.0131294980632 -0.844599060412 0)
(0.0120963264505 -0.869824884926 0)
(0.0110340137279 -0.892955225104 0)
(0.00994511909972 -0.913934357931 0)
(0.00883226580858 -0.932711742839 0)
(0.0076981348155 -0.949242143462 0)
(0.00654545834125 -0.96348573662 0)
(0.00537701328454 -0.975408208247 0)
(0.00419561453197 -0.984980836064 0)
(0.00300410817651 -0.992180558772 0)
(0.00180536466132 -0.99699003161 0)
(0.000602271864536 -0.999397668135 0)
(-0.000602271857927 -0.999397668142 0)
(-0.00180536465473 -0.996990031629 0)
(-0.00300410816995 -0.992180558805 0)
(-0.00419561452546 -0.98498083611 0)
(-0.00537701327809 -0.975408208306 0)
(-0.00654545833488 -0.963485736692 0)
(-0.00769813480922 -0.949242143547 0)
(-0.00883226580241 -0.932711742936 0)
(-0.00994511909368 -0.91393435804 0)
(-0.011034013722 -0.892955225225 0)
(-0.0120963264447 -0.869824885058 0)
(-0.0131294980576 -0.844599060557 0)
(-0.0141310395596 -0.81733852294 0)
(-0.0150985381496 -0.788108945231 0)
(-0.0160296630387 -0.756980744044 0)
(-0.0169221710656 -0.724028909937 0)
(-0.0177739121002 -0.689332826768 0)
(-0.0185828342237 -0.652976080445 0)
(-0.0193469886718 -0.61504625755 0)
(-0.0200645345297 -0.575634734349 0)
(-0.0207337431664 -0.534836456654 0)
(-0.0213530023998 -0.492749711088 0)
(-0.0219208203801 -0.449475888309 0)
(-0.0224358291841 -0.405119238746 0)
(-0.0228967881104 -0.359786621452 0)
(-0.0233025866687 -0.313587246674 0)
(-0.0236522472546 -0.266632412746 0)
(-0.0239449275053 -0.219035237982 0)
(-0.0241799223282 -0.17091038815 0)
(-0.0243566656003 -0.122373800222 0)
(-0.0244747315316 -0.0735424030915 0)
(-0.0245338356909 -0.02453383587 0)
(-0.0735424029138 0.0244747315319 0)
(-0.0733652328237 0.0733652328237 0)
(-0.0730113194616 0.122078990844 0)
(-0.0724815154359 0.170498649882 0)
(-0.071777097091 0.218507562739 0)
(-0.0708997614322 0.265990071738 0)
(-0.069851622038 0.312831787356 0)
(-0.0686352039682 0.358919863798 0)
(-0.06725343768 0.40414327085 0)
(-0.0657096519701 0.448393061363 0)
(-0.0640075659529 0.491562633718 0)
(-0.062151280103 0.533547988633 0)
(-0.0601452663755 0.574247979709 0)
(-0.0579943574333 0.613564557105 0)
(-0.0557037350042 0.65140300374 0)
(-0.0532789173985 0.687672163483 0)
(-0.0507257462141 0.722284660752 0)
(-0.048050372264 0.755157111008 0)
(-0.0452592407584 0.78621032164 0)
(-0.0423590757776 0.815369482744 0)
(-0.0393568640731 0.842564347346 0)
(-0.0362598382358 0.867729400634 0)
(-0.0330754592722 0.890804017793 0)
(-0.0298113986301 0.911732610048 0)
(-0.0264755197177 0.930464758587 0)
(-0.0230758589592 0.946955336023 0)
(-0.0196206064349 0.961164615114 0)
(-0.0161180861512 0.973058364458 0)
(-0.0125767359865 0.982607930971 0)
(-0.00900508736326 0.989790308912 0)
(-0.00541174469579 0.994588195304 0)
(-0.00180536466133 0.996990031618 0)
(0.00180536465473 0.996990031621 0)
(0.0054117446892 0.994588195311 0)
(0.0090050873567 0.989790308923 0)
(0.01257673598 0.982607930986 0)
(0.0161180861448 0.973058364477 0)
(0.0196206064286 0.961164615137 0)
(0.0230758589529 0.946955336051 0)
(0.0264755197115 0.930464758619 0)
(0.0298113986241 0.911732610084 0)
(0.0330754592663 0.890804017833 0)
(0.03625983823 0.867729400679 0)
(0.0393568640675 0.842564347394 0)
(0.0423590757722 0.815369482796 0)
(0.0452592407531 0.786210321697 0)
(0.0480503722588 0.755157111069 0)
(0.0507257462093 0.722284660813 0)
(0.0532789173942 0.687672163545 0)
(0.0557037350001 0.651403003805 0)
(0.0579943574293 0.613564557173 0)
(0.0601452663718 0.574247979781 0)
(0.0621512800995 0.533547988708 0)
(0.0640075659496 0.491562633797 0)
(0.065709651967 0.448393061445 0)
(0.0672534376774 0.404143270933 0)
(0.0686352039657 0.358919863884 0)
(0.0698516220359 0.312831787444 0)
(0.0708997614304 0.265990071824 0)
(0.0717770970896 0.218507562822 0)
(0.0724815154349 0.170498649967 0)
(0.0730113194608 0.12207899093 0)
(0.0733652328232 0.0733652329116 0)
(0.0735424029137 0.0244747316209 0)
(0.073542402914 -0.0244747314419 0)
(0.0733652328242 -0.073365232733 0)
(0.0730113194624 -0.122078990752 0)
(0.0724815154371 -0.17049864979 0)
(0.0717770970925 -0.218507562647 0)
(0.0708997614339 -0.265990071651 0)
(0.06985162204 -0.312831787274 0)
(0.0686352039704 -0.358919863717 0)
(0.0672534376827 -0.40414327077 0)
(0.065709651973 -0.448393061285 0)
(0.0640075659562 -0.491562633641 0)
(0.0621512801066 -0.533547988557 0)
(0.0601452663794 -0.574247979635 0)
(0.0579943574374 -0.613564557032 0)
(0.0557037350087 -0.65140300367 0)
(0.053278917403 -0.687672163419 0)
(0.0507257462186 -0.722284660693 0)
(0.0480503722688 -0.755157110952 0)
(0.0452592407635 -0.786210321587 0)
(0.042359075783 -0.815369482693 0)
(0.0393568640786 -0.842564347298 0)
(0.0362598382415 -0.86772940059 0)
(0.0330754592781 -0.890804017753 0)
(0.0298113986362 -0.911732610011 0)
(0.0264755197238 -0.930464758554 0)
(0.0230758589655 -0.946955335995 0)
(0.0196206064413 -0.96116461509 0)
(0.0161180861577 -0.973058364438 0)
(0.012576735993 -0.982607930955 0)
(0.00900508736981 -0.989790308901 0)
(0.00541174470237 -0.994588195298 0)
(0.00180536466793 -0.996990031616 0)
(-0.00180536464812 -0.996990031623 0)
(-0.00541174468261 -0.994588195317 0)
(-0.00900508735015 -0.989790308934 0)
(-0.0125767359735 -0.982607931001 0)
(-0.0161180861383 -0.973058364497 0)
(-0.0196206064222 -0.961164615161 0)
(-0.0230758589466 -0.94695533608 0)
(-0.0264755197053 -0.930464758651 0)
(-0.0298113986181 -0.91173261012 0)
(-0.0330754592604 -0.890804017874 0)
(-0.0362598382243 -0.867729400723 0)
(-0.0393568640619 -0.842564347442 0)
(-0.0423590757668 -0.815369482848 0)
(-0.0452592407479 -0.786210321752 0)
(-0.0480503722538 -0.755157111128 0)
(-0.0507257462046 -0.722284660875 0)
(-0.0532789173896 -0.68767216361 0)
(-0.0557037349958 -0.651403003873 0)
(-0.0579943574252 -0.613564557244 0)
(-0.060145266368 -0.574247979854 0)
(-0.062151280096 -0.533547988783 0)
(-0.0640075659464 -0.491562633874 0)
(-0.0657096519641 -0.448393061525 0)
(-0.0672534376747 -0.404143271015 0)
(-0.0686352039633 -0.358919863967 0)
(-0.0698516220338 -0.312831787529 0)
(-0.0708997614287 -0.26599007191 0)
(-0.0717770970881 -0.218507562909 0)
(-0.0724815154337 -0.170498650055 0)
(-0.07301131946 -0.122078991019 0)
(-0.0733652328227 -0.0733652330009 0)
(-0.0735424029135 -0.0244747317105 0)
(-0.122373800047 0.0243566656008 0)
(-0.122078990844 0.0730113194616 0)
(-0.121490082659 0.121490082659 0)
(-0.120608494224 0.169676165606 0)
(-0.119436349362 0.217453483808 0)
(-0.117976471873 0.264706937521 0)
(-0.11623237873 0.311322689036 0)
(-0.114208271606 0.357188436924 0)
(-0.111909026752 0.402193686582 0)
(-0.109340183251 0.44623001642 0)
(-0.106507929671 0.489191339064 0)
(-0.10341908916 0.530974156925 0)
(-0.100081103004 0.571477811534 0)
(-0.0965020127053 0.610604726039 0)
(-0.0926904406053 0.648260640277 0)
(-0.0886555691152 0.684354837851 0)
(-0.0844071185938 0.718800364679 0)
(-0.0799553239305 0.751514238468 0)
(-0.0753109098886 0.782417648633 0)
(-0.0704850652684 0.81143614615 0)
(-0.0654894159521 0.838499822918 0)
(-0.0603359968967 0.863543480169 0)
(-0.0550372231401 0.886506785538 0)
(-0.0496058598922 0.907334418412 0)
(-0.0440549917828 0.9259762032 0)
(-0.0383979913396 0.942387230208 0)
(-0.0326484867713 0.956527963837 0)
(-0.0268203291387 0.968364337819 0)
(-0.0209275589847 0.977867837291 0)
(-0.014984372508 0.985015567492 0)
(-0.00900508736547 0.989790308914 0)
(-0.00300410817873 0.992180558787 0)
(0.00300410816774 0.992180558789 0)
(0.00900508735451 0.989790308921 0)
(0.0149843724971 0.985015567503 0)
(0.0209275589738 0.977867837306 0)
(0.026820329128 0.968364337838 0)
(0.0326484867607 0.956527963861 0)
(0.0383979913291 0.942387230236 0)
(0.0440549917726 0.925976203232 0)
(0.0496058598821 0.907334418449 0)
(0.0550372231302 0.886506785578 0)
(0.0603359968872 0.863543480213 0)
(0.0654894159428 0.838499822966 0)
(0.0704850652592 0.811436146202 0)
(0.0753109098797 0.782417648689 0)
(0.0799553239219 0.751514238529 0)
(0.0844071185859 0.71880036474 0)
(0.088655569108 0.684354837912 0)
(0.0926904405984 0.648260640341 0)
(0.0965020126987 0.610604726107 0)
(0.100081102998 0.571477811605 0)
(0.103419089154 0.530974157 0)
(0.106507929666 0.489191339142 0)
(0.109340183246 0.446230016501 0)
(0.111909026748 0.402193686665 0)
(0.114208271602 0.35718843701 0)
(0.116232378727 0.311322689124 0)
(0.11797647187 0.264706937606 0)
(0.11943634936 0.217453483891 0)
(0.120608494222 0.16967616569 0)
(0.121490082658 0.121490082745 0)
(0.122078990843 0.0730113195491 0)
(0.122373800046 0.0243566656894 0)
(0.122373800047 -0.0243566655113 0)
(0.122078990845 -0.0730113193714 0)
(0.12149008266 -0.121490082568 0)
(0.120608494226 -0.169676165515 0)
(0.119436349365 -0.217453483717 0)
(0.117976471876 -0.264706937434 0)
(0.116232378734 -0.311322688954 0)
(0.11420827161 -0.357188436843 0)
(0.111909026757 -0.402193686502 0)
(0.109340183256 -0.446230016342 0)
(0.106507929677 -0.489191338987 0)
(0.103419089166 -0.530974156849 0)
(0.100081103011 -0.57147781146 0)
(0.0965020127123 -0.610604725967 0)
(0.0926904406128 -0.648260640206 0)
(0.0886555691227 -0.684354837787 0)
(0.0844071186014 -0.71880036462 0)
(0.0799553239385 -0.751514238412 0)
(0.075310909897 -0.78241764858 0)
(0.0704850652772 -0.8114361461 0)
(0.0654894159614 -0.838499822871 0)
(0.0603359969063 -0.863543480125 0)
(0.0550372231499 -0.886506785498 0)
(0.0496058599022 -0.907334418376 0)
(0.0440549917931 -0.925976203168 0)
(0.03839799135 -0.94238723018 0)
(0.0326484867819 -0.956527963813 0)
(0.0268203291495 -0.968364337799 0)
(0.0209275589955 -0.977867837276 0)
(0.0149843725189 -0.985015567481 0)
(0.00900508737643 -0.989790308908 0)
(0.00300410818972 -0.992180558785 0)
(-0.00300410815675 -0.992180558791 0)
(-0.00900508734355 -0.989790308927 0)
(-0.0149843724862 -0.985015567514 0)
(-0.020927558963 -0.977867837321 0)
(-0.0268203291173 -0.968364337858 0)
(-0.0326484867501 -0.956527963884 0)
(-0.0383979913187 -0.942387230264 0)
(-0.0440549917623 -0.925976203264 0)
(-0.0496058598721 -0.907334418485 0)
(-0.0550372231204 -0.886506785618 0)
(-0.0603359968776 -0.863543480257 0)
(-0.0654894159335 -0.838499823014 0)
(-0.0704850652502 -0.811436146254 0)
(-0.075310909871 -0.782417648744 0)
(-0.0799553239135 -0.751514238587 0)
(-0.0844071185771 -0.718800364803 0)
(-0.0886555691008 -0.684354837979 0)
(-0.0926904405913 -0.648260640409 0)
(-0.096502012692 -0.610604726177 0)
(-0.100081102992 -0.571477811678 0)
(-0.103419089148 -0.530974157075 0)
(-0.10650792966 -0.48919133922 0)
(-0.109340183241 -0.446230016581 0)
(-0.111909026743 -0.402193686746 0)
(-0.114208271598 -0.357188437093 0)
(-0.116232378723 -0.311322689208 0)
(-0.117976471867 -0.264706937692 0)
(-0.119436349357 -0.217453483977 0)
(-0.12060849422 -0.169676165778 0)
(-0.121490082656 -0.121490082833 0)
(-0.122078990842 -0.073011319638 0)
(-0.122373800046 -0.0243566657785 0)
(-0.170910387977 0.0241799223289 0)
(-0.170498649882 0.0724815154359 0)
(-0.169676165606 0.120608494224 0)
(-0.168444916585 0.168444916585 0)
(-0.166807869006 0.215875540388 0)
(-0.16476896666 0.262786101106 0)
(-0.162333121441 0.309063587089 0)
(-0.159506201514 0.35459651182 0)
(-0.156295017177 0.399275182495 0)
(-0.152707304453 0.442991964282 0)
(-0.148751706458 0.485641539627 0)
(-0.144437752572 0.527121161966 0)
(-0.13977583549 0.567330903255 0)
(-0.134777186176 0.606173894706 0)
(-0.129453846816 0.64355656015 0)
(-0.123818641801 0.679388841472 0)
(-0.117885146832 0.713584415567 0)
(-0.111667656218 0.746060902303 0)
(-0.10518114844 0.776740062978 0)
(-0.0984412500631 0.805547988807 0)
(-0.091464198092 0.832415278974 0)
(-0.0842668008564 0.857277207822 0)
(-0.0768663975167 0.880073880788 0)
(-0.0692808162927 0.90075037869 0)
(-0.0615283315141 0.919256890034 0)
(-0.0536276195955 0.935548831012 0)
(-0.0455977140434 0.949586952914 0)
(-0.0374579596042 0.961337436671 0)
(-0.0292279656602 0.97077197434 0)
(-0.0209275589869 0.977867837293 0)
(-0.0125767359909 0.982607930975 0)
(-0.0041956145364 0.984980836085 0)
(0.00419561452105 0.984980836087 0)
(0.0125767359756 0.982607930981 0)
(0.0209275589717 0.977867837304 0)
(0.0292279656451 0.970771974355 0)
(0.0374579595892 0.961337436691 0)
(0.0455977140286 0.949586952937 0)
(0.053627619581 0.93554883104 0)
(0.0615283314997 0.919256890066 0)
(0.0692808162787 0.900750378726 0)
(0.076866397503 0.880073880828 0)
(0.084266800843 0.857277207866 0)
(0.0914641980789 0.832415279021 0)
(0.0984412500503 0.805547988859 0)
(0.105181148428 0.776740063034 0)
(0.111667656206 0.746060902363 0)
(0.117885146821 0.713584415628 0)
(0.123818641791 0.679388841533 0)
(0.129453846807 0.643556560214 0)
(0.134777186167 0.606173894774 0)
(0.139775835481 0.567330903326 0)
(0.144437752564 0.52712116204 0)
(0.14875170645 0.485641539704 0)
(0.152707304446 0.442991964363 0)
(0.156295017171 0.399275182577 0)
(0.159506201509 0.354596511905 0)
(0.162333121436 0.309063587176 0)
(0.164768966656 0.262786101191 0)
(0.166807869003 0.21587554047 0)
(0.168444916582 0.168444916669 0)
(0.169676165604 0.120608494309 0)
(0.170498649881 0.0724815155228 0)
(0.170910387976 0.0241799224169 0)
(0.170910387977 -0.02417992224 0)
(0.170498649883 -0.0724815153463 0)
(0.169676165608 -0.120608494134 0)
(0.168444916588 -0.168444916494 0)
(0.16680786901 -0.215875540297 0)
(0.164768966664 -0.26278610102 0)
(0.162333121446 -0.309063587008 0)
(0.15950620152 -0.35459651174 0)
(0.156295017183 -0.399275182415 0)
(0.15270730446 -0.442991964204 0)
(0.148751706465 -0.48564153955 0)
(0.144437752581 -0.52712116189 0)
(0.139775835499 -0.567330903181 0)
(0.134777186186 -0.606173894634 0)
(0.129453846827 -0.64355656008 0)
(0.123818641811 -0.679388841406 0)
(0.117885146843 -0.713584415508 0)
(0.11166765623 -0.746060902248 0)
(0.105181148452 -0.776740062925 0)
(0.0984412500754 -0.805547988757 0)
(0.0914641981048 -0.832415278927 0)
(0.0842668008697 -0.857277207779 0)
(0.0768663975304 -0.880073880748 0)
(0.0692808163068 -0.900750378654 0)
(0.0615283315284 -0.919256890002 0)
(0.0536276196101 -0.935548830984 0)
(0.0455977140582 -0.94958695289 0)
(0.0374579596192 -0.961337436652 0)
(0.0292279656753 -0.970771974325 0)
(0.0209275590021 -0.977867837282 0)
(0.0125767360062 -0.982607930968 0)
(0.00419561455174 -0.984980836083 0)
(-0.0041956145057 -0.984980836089 0)
(-0.0125767359603 -0.982607930988 0)
(-0.0209275589564 -0.977867837314 0)
(-0.02922796563 -0.97077197437 0)
(-0.0374579595742 -0.96133743671 0)
(-0.0455977140138 -0.949586952961 0)
(-0.0536276195664 -0.935548831068 0)
(-0.0615283314854 -0.919256890098 0)
(-0.0692808162647 -0.900750378762 0)
(-0.0768663974893 -0.880073880868 0)
(-0.0842668008297 -0.857277207909 0)
(-0.0914641980659 -0.832415279069 0)
(-0.0984412500378 -0.80554798891 0)
(-0.105181148416 -0.776740063089 0)
(-0.111667656195 -0.746060902421 0)
(-0.117885146809 -0.713584415692 0)
(-0.123818641779 -0.6793888416 0)
(-0.129453846797 -0.643556560281 0)
(-0.134777186158 -0.606173894843 0)
(-0.139775835472 -0.567330903398 0)
(-0.144437752556 -0.527121162115 0)
(-0.148751706443 -0.485641539781 0)
(-0.15270730444 -0.442991964442 0)
(-0.156295017164 -0.399275182658 0)
(-0.159506201503 -0.354596511987 0)
(-0.162333121432 -0.30906358726 0)
(-0.164768966652 -0.262786101276 0)
(-0.166807869 -0.215875540556 0)
(-0.16844491658 -0.168444916756 0)
(-0.169676165602 -0.120608494397 0)
(-0.17049864988 -0.072481515611 0)
(-0.170910387976 -0.0241799225053 0)
(-0.219035237812 0.0239449275062 0)
(-0.218507562739 0.071777097091 0)
(-0.217453483808 0.119436349362 0)
(-0.215875540388 0.166807869006 0)
(-0.213777533883 0.213777533883 0)
(-0.211164518574 0.260232189956 0)
(-0.208042789444 0.30605992389 0)
(-0.204419867012 0.35115033266 0)
(-0.200304479216 0.395394789521 0)
(-0.195706540384 0.438686705701 0)
(-0.190637127355 0.480921787183 0)
(-0.185108452788 0.521998285957 0)
(-0.179133835744 0.561817245138 0)
(-0.172727669601 0.600282737366 0)
(-0.165905387371 0.637302095901 0)
(-0.158683424533 0.672786137866 0)
(-0.151079179425 0.706649379096 0)
(-0.143110971342 0.738810240077 0)
(-0.134797996393 0.769191242478 0)
(-0.126160281264 0.797719195802 0)
(-0.117218634967 0.824325373712 0)
(-0.107994598712 0.848945679593 0)
(-0.098510394009 0.871520800974 0)
(-0.0887888691386 0.89199635241 0)
(-0.0788534441054 0.910323006502 0)
(-0.0687280542187 0.926456612738 0)
(-0.0584370924284 0.940358303847 0)
(-0.048005350564 0.951994589436 0)
(-0.0374579596064 0.961337436673 0)
(-0.0268203291431 0.968364337822 0)
(-0.0161180861578 0.973058364463 0)
(-0.00537701329116 0.975408208275 0)
(0.00537701327149 0.975408208277 0)
(0.0161180861382 0.97305836447 0)
(0.0268203291236 0.968364337833 0)
(0.037457959587 0.961337436688 0)
(0.0480053505448 0.951994589455 0)
(0.0584370924095 0.94035830387 0)
(0.0687280542 0.926456612765 0)
(0.0788534440871 0.910323006534 0)
(0.0887888691206 0.891996352445 0)
(0.0985103939915 0.871520801014 0)
(0.107994598695 0.848945679637 0)
(0.117218634951 0.824325373759 0)
(0.126160281248 0.797719195853 0)
(0.134797996377 0.769191242533 0)
(0.143110971326 0.738810240137 0)
(0.151079179411 0.706649379156 0)
(0.15868342452 0.672786137927 0)
(0.165905387359 0.637302095965 0)
(0.172727669589 0.600282737433 0)
(0.179133835733 0.561817245208 0)
(0.185108452777 0.52199828603 0)
(0.190637127345 0.48092178726 0)
(0.195706540375 0.43868670578 0)
(0.200304479207 0.395394789602 0)
(0.204419867005 0.351150332744 0)
(0.208042789438 0.306059923977 0)
(0.211164518569 0.26023219004 0)
(0.213777533879 0.213777533964 0)
(0.215875540385 0.166807869089 0)
(0.217453483806 0.119436349447 0)
(0.218507562737 0.071777097177 0)
(0.219035237811 0.0239449275933 0)
(0.219035237812 -0.0239449274182 0)
(0.21850756274 -0.0717770970022 0)
(0.21745348381 -0.119436349273 0)
(0.215875540392 -0.166807868916 0)
(0.213777533888 -0.213777533793 0)
(0.211164518579 -0.260232189871 0)
(0.20804278945 -0.30605992381 0)
(0.204419867019 -0.35115033258 0)
(0.200304479223 -0.395394789442 0)
(0.195706540393 -0.438686705624 0)
(0.190637127364 -0.480921787107 0)
(0.185108452798 -0.521998285882 0)
(0.179133835756 -0.561817245065 0)
(0.172727669613 -0.600282737295 0)
(0.165905387385 -0.637302095832 0)
(0.158683424547 -0.672786137801 0)
(0.151079179439 -0.706649379037 0)
(0.143110971356 -0.738810240022 0)
(0.134797996408 -0.769191242425 0)
(0.12616028128 -0.797719195752 0)
(0.117218634984 -0.824325373665 0)
(0.107994598729 -0.84894567955 0)
(0.0985103940266 -0.871520800935 0)
(0.0887888691566 -0.891996352374 0)
(0.0788534441238 -0.910323006471 0)
(0.0687280542374 -0.92645661271 0)
(0.0584370924474 -0.940358303824 0)
(0.0480053505832 -0.951994589417 0)
(0.0374579596258 -0.961337436658 0)
(0.0268203291627 -0.968364337812 0)
(0.0161180861774 -0.973058364457 0)
(0.00537701331082 -0.975408208273 0)
(-0.00537701325182 -0.975408208279 0)
(-0.0161180861186 -0.973058364476 0)
(-0.0268203291041 -0.968364337844 0)
(-0.0374579595676 -0.961337436703 0)
(-0.0480053505256 -0.951994589474 0)
(-0.0584370923905 -0.940358303894 0)
(-0.0687280541813 -0.926456612793 0)
(-0.0788534440687 -0.910323006565 0)
(-0.0887888691026 -0.891996352481 0)
(-0.0985103939739 -0.871520801053 0)
(-0.107994598678 -0.84894567968 0)
(-0.117218634934 -0.824325373806 0)
(-0.126160281232 -0.797719195904 0)
(-0.134797996361 -0.769191242587 0)
(-0.143110971311 -0.738810240194 0)
(-0.151079179397 -0.706649379218 0)
(-0.158683424505 -0.672786137992 0)
(-0.165905387346 -0.637302096031 0)
(-0.172727669577 -0.600282737502 0)
(-0.179133835722 -0.56181724528 0)
(-0.185108452767 -0.521998286104 0)
(-0.190637127335 -0.480921787336 0)
(-0.195706540366 -0.438686705859 0)
(-0.200304479199 -0.395394789682 0)
(-0.204419866998 -0.351150332826 0)
(-0.208042789432 -0.30605992406 0)
(-0.211164518564 -0.260232190125 0)
(-0.213777533875 -0.21377753405 0)
(-0.215875540382 -0.166807869175 0)
(-0.217453483803 -0.119436349534 0)
(-0.218507562736 -0.0717770972644 0)
(-0.219035237811 -0.0239449276809 0)
(-0.266632412574 0.0236522472558 0)
(-0.265990071738 0.0708997614322 0)
(-0.264706937521 0.117976471873 0)
(-0.262786101106 0.16476896666 0)
(-0.260232189956 0.211164518574 0)
(-0.257051356667 0.257051356667 0)
(-0.253251264145 0.302318935527 0)
(-0.248841067145 0.346858201591 0)
(-0.243831390219 0.390561855866 0)
(-0.238234302117 0.433324612421 0)
(-0.232063286714 0.475043452031 0)
(-0.225333210527 0.515617870355 0)
(-0.218060286899 0.554950120068 0)
(-0.21026203694 0.592945446333 0)
(-0.201957247317 0.629512315082 0)
(-0.193165924996 0.664562633526 0)
(-0.183909249043 0.698011962376 0)
(-0.1742095196 0.729779719271 0)
(-0.164090104165 0.759789372901 0)
(-0.153575381297 0.787968627382 0)
(-0.142690681884 0.814249596422 0)
(-0.13146222812 0.838568966864 0)
(-0.119917070334 0.860868151215 0)
(-0.108083021822 0.881093428786 0)
(-0.0959885918432 0.899196075114 0)
(-0.0836629169394 0.915132479336 0)
(-0.0711356907393 0.928864249261 0)
(-0.0584370924296 0.94035830385 0)
(-0.0455977140469 0.949586952918 0)
(-0.0326484867773 0.956527963844 0)
(-0.0196206064434 0.961164615122 0)
(-0.00654545834992 0.963485736655 0)
(0.00654545832598 0.963485736657 0)
(0.0196206064195 0.961164615129 0)
(0.0326484867535 0.956527963854 0)
(0.0455977140233 0.949586952933 0)
(0.0584370924062 0.940358303869 0)
(0.0711356907163 0.928864249284 0)
(0.0836629169166 0.915132479363 0)
(0.0959885918209 0.899196075145 0)
(0.1080830218 0.881093428821 0)
(0.119917070312 0.860868151254 0)
(0.131462228099 0.838568966906 0)
(0.142690681863 0.814249596468 0)
(0.153575381277 0.787968627432 0)
(0.164090104146 0.759789372955 0)
(0.174209519581 0.72977971933 0)
(0.183909249025 0.698011962435 0)
(0.19316592498 0.664562633585 0)
(0.201957247302 0.629512315145 0)
(0.210262036925 0.592945446399 0)
(0.218060286885 0.554950120137 0)
(0.225333210514 0.515617870428 0)
(0.232063286702 0.475043452106 0)
(0.238234302106 0.4333246125 0)
(0.243831390209 0.390561855947 0)
(0.248841067136 0.346858201674 0)
(0.253251264137 0.302318935612 0)
(0.257051356661 0.25705135675 0)
(0.260232189951 0.211164518654 0)
(0.262786101102 0.164768966742 0)
(0.264706937518 0.117976471957 0)
(0.265990071736 0.0708997615171 0)
(0.266632412573 0.0236522473419 0)
(0.266632412574 -0.0236522471689 0)
(0.26599007174 -0.0708997613445 0)
(0.264706937524 -0.117976471785 0)
(0.26278610111 -0.164768966572 0)
(0.260232189962 -0.211164518486 0)
(0.257051356674 -0.257051356583 0)
(0.253251264152 -0.302318935448 0)
(0.248841067154 -0.346858201513 0)
(0.243831390229 -0.390561855789 0)
(0.238234302127 -0.433324612345 0)
(0.232063286725 -0.475043451956 0)
(0.225333210539 -0.515617870282 0)
(0.218060286913 -0.554950119996 0)
(0.210262036955 -0.592945446263 0)
(0.201957247333 -0.629512315014 0)
(0.193165925012 -0.664562633462 0)
(0.18390924906 -0.698011962318 0)
(0.174209519617 -0.729779719217 0)
(0.164090104183 -0.759789372849 0)
(0.153575381316 -0.787968627333 0)
(0.142690681904 -0.814249596376 0)
(0.131462228141 -0.838568966821 0)
(0.119917070355 -0.860868151176 0)
(0.108083021844 -0.881093428751 0)
(0.0959885918655 -0.899196075082 0)
(0.0836629169621 -0.915132479309 0)
(0.0711356907624 -0.928864249238 0)
(0.0584370924529 -0.940358303831 0)
(0.0455977140705 -0.949586952904 0)
(0.0326484868011 -0.956527963833 0)
(0.0196206064672 -0.961164615116 0)
(0.00654545837387 -0.963485736653 0)
(-0.00654545830204 -0.963485736659 0)
(-0.0196206063956 -0.961164615135 0)
(-0.0326484867298 -0.956527963865 0)
(-0.0455977139998 -0.949586952948 0)
(-0.0584370923828 -0.940358303888 0)
(-0.0711356906932 -0.928864249307 0)
(-0.0836629168939 -0.91513247939 0)
(-0.0959885917985 -0.899196075176 0)
(-0.108083021778 -0.881093428856 0)
(-0.119917070291 -0.860868151292 0)
(-0.131462228078 -0.838568966949 0)
(-0.142690681843 -0.814249596514 0)
(-0.153575381258 -0.787968627482 0)
(-0.164090104127 -0.759789373009 0)
(-0.174209519563 -0.729779719386 0)
(-0.183909249008 -0.698011962495 0)
(-0.193165924964 -0.664562633648 0)
(-0.201957247286 -0.629512315211 0)
(-0.210262036911 -0.592945446467 0)
(-0.218060286871 -0.554950120208 0)
(-0.225333210501 -0.515617870501 0)
(-0.23206328669 -0.475043452182 0)
(-0.238234302095 -0.433324612577 0)
(-0.243831390199 -0.390561856026 0)
(-0.248841067128 -0.346858201755 0)
(-0.25325126413 -0.302318935695 0)
(-0.257051356654 -0.257051356834 0)
(-0.260232189946 -0.211164518739 0)
(-0.262786101098 -0.164768966827 0)
(-0.264706937515 -0.117976472043 0)
(-0.265990071734 -0.0708997616034 0)
(-0.266632412573 -0.0236522474284 0)
(-0.3135872465 0.0233025866701 0)
(-0.312831787356 0.069851622038 0)
(-0.311322689036 0.11623237873 0)
(-0.309063587089 0.162333121441 0)
(-0.30605992389 0.208042789444 0)
(-0.302318935527 0.253251264145 0)
(-0.297849634368 0.297849634368 0)
(-0.292662787352 0.341730458734 0)
(-0.286770890046 0.384788024492 0)
(-0.280188136549 0.426918602195 0)
(-0.272930385289 0.468020695593 0)
(-0.265015120825 0.507995286142 0)
(-0.256461411722 0.546746071551 0)
(-0.247289864615 0.584179697784 0)
(-0.237522574564 0.620205983957 0)
(-0.227183071827 0.654738139592 0)
(-0.21629626517 0.6876929737 0)
(-0.204888381866 0.7189910952 0)
(-0.192986904504 0.748557104175 0)
(-0.180620504785 0.776319773521 0)
(-0.167818974449 0.802212220534 0)
(-0.154613153506 0.826172068043 0)
(-0.141034855932 0.848141594676 0)
(-0.127116793038 0.868067873919 0)
(-0.112892494656 0.88590290162 0)
(-0.0983962283651 0.901603711635 0)
(-0.0836629169405 0.915132479339 0)
(-0.068728054221 0.926456612744 0)
(-0.0536276196005 0.93554883102 0)
(-0.0383979913472 0.942387230218 0)
(-0.0230758589694 0.946955336035 0)
(-0.00769813482621 0.949242143505 0)
(0.00769813479806 0.949242143507 0)
(0.0230758589413 0.946955336042 0)
(0.0383979913192 0.942387230229 0)
(0.0536276195727 0.935548831035 0)
(0.0687280541935 0.926456612763 0)
(0.0836629169134 0.915132479362 0)
(0.0983962283384 0.901603711662 0)
(0.112892494629 0.88590290165 0)
(0.127116793013 0.868067873953 0)
(0.141034855907 0.848141594714 0)
(0.154613153481 0.826172068085 0)
(0.167818974426 0.80221222058 0)
(0.180620504761 0.77631977357 0)
(0.192986904481 0.748557104229 0)
(0.204888381844 0.718991095258 0)
(0.21629626515 0.687692973758 0)
(0.227183071808 0.654738139651 0)
(0.237522574546 0.620205984019 0)
(0.247289864598 0.584179697849 0)
(0.256461411706 0.546746071619 0)