/*--------------------------------*- C++ -*----------------------------------*\
| =========                 |                                                 |
| \\      /  F ield         | OpenFOAM: The Open Source CFD Toolbox           |
|  \\    /   O peration     | Version:  2406                                  |
|   \\  /    A nd           | Website:  www.openfoam.com                      |
|    \\/     M anipulation  |                                                 |
\*---------------------------------------------------------------------------*/
FoamFile
{
    version     2.0;
    format      ascii;
    arch        "LSB;label=32;scalar=64";
    class       surfaceScalarField;
    location    "40.65";
    object      phi_0;
}
// * * * * * * * * * * * * * * * * * * * * * * * * * * * * * * * * * * * * * //

dimensions      [0 3 -1 0 0 0 0];

oriented        oriented;

internalField   nonuniform List<scalar> 
28560
(
-3.36787e-09
3.37971e-09
5.09028e-08
-5.42707e-08
1.79458e-07
-1.28555e-07
3.69426e-07
-1.89969e-07
6.02142e-07
-2.32715e-07
8.57994e-07
-2.55852e-07
1.11892e-06
-2.60931e-07
1.3697e-06
-2.50774e-07
1.59862e-06
-2.28922e-07
1.79782e-06
-1.99196e-07
1.96317e-06
-1.65353e-07
2.09395e-06
-1.30781e-07
2.19221e-06
-9.82589e-08
2.26202e-06
-6.98104e-08
2.30866e-06
-4.66418e-08
2.33783e-06
-2.91695e-08
2.35502e-06
-1.71873e-08
2.36456e-06
-9.54115e-09
2.36957e-06
-5.01085e-09
2.37157e-06
-2.00385e-09
2.37046e-06
1.10971e-09
2.36493e-06
5.53357e-09
2.35196e-06
1.29708e-08
2.32764e-06
2.43168e-08
2.28741e-06
4.02361e-08
2.22629e-06
6.11167e-08
2.13914e-06
8.71455e-08
2.02074e-06
1.184e-07
1.86582e-06
1.54928e-07
1.66902e-06
1.96796e-07
1.42492e-06
2.44103e-07
1.12795e-06
2.96965e-07
7.72476e-07
3.55476e-07
3.52814e-07
4.19661e-07
-1.36619e-07
4.89434e-07
-7.01177e-07
5.64558e-07
-1.3458e-06
6.44622e-07
-2.07482e-06
7.29023e-07
-2.89177e-06
8.1695e-07
-3.79916e-06
9.07386e-07
-4.79827e-06
9.99108e-07
-5.88896e-06
1.0907e-06
-7.06953e-06
1.18057e-06
-8.33651e-06
1.26697e-06
-9.68456e-06
1.34806e-06
-1.11065e-05
1.42189e-06
-1.25929e-05
1.48649e-06
-1.41328e-05
1.5399e-06
-1.5713e-05
1.5802e-06
-1.73186e-05
1.60557e-06
-1.89329e-05
1.6143e-06
-2.05378e-05
1.60486e-06
-2.21137e-05
1.57591e-06
-2.364e-05
1.52632e-06
-2.50952e-05
1.4552e-06
-2.64571e-05
1.36192e-06
-2.77033e-05
1.24616e-06
-2.88112e-05
1.10789e-06
-2.97586e-05
9.47477e-07
-3.05243e-05
7.65629e-07
-3.10884e-05
5.64161e-07
-3.14322e-05
3.43795e-07
-3.15356e-05
1.03409e-07
-3.13856e-05
-1.50002e-07
-3.09728e-05
-4.12849e-07
-3.02881e-05
-6.84733e-07
-2.93274e-05
-9.60624e-07
-2.80916e-05
-1.23588e-06
-2.65861e-05
-1.50546e-06
-2.48221e-05
-1.76399e-06
-2.28163e-05
-2.00585e-06
-2.05909e-05
-2.22533e-06
-1.81741e-05
-2.41677e-06
-1.55993e-05
-2.57483e-06
-1.29046e-05
-2.6947e-06
-1.01323e-05
-2.77233e-06
-7.32761e-06
-2.80467e-06
-4.53769e-06
-2.78993e-06
-1.81001e-06
-2.72767e-06
8.08981e-07
-2.619e-06
3.27552e-06
-2.46654e-06
5.54998e-06
-2.27446e-06
7.59825e-06
-2.04827e-06
9.39293e-06
-1.79468e-06
1.09141e-05
-1.52122e-06
1.21501e-05
-1.23598e-06
1.30973e-05
-9.47199e-07
1.37602e-05
-6.62873e-07
1.41507e-05
-3.90458e-07
1.4288e-05
-1.37366e-07
1.4194e-05
9.39992e-08
1.38951e-05
2.98903e-07
1.34243e-05
4.70824e-07
1.28129e-05
6.11377e-07
1.20917e-05
7.21232e-07
1.12908e-05
8.00886e-07
1.04384e-05
8.52437e-07
9.55967e-06
8.78699e-07
8.67668e-06
8.82984e-07
7.80782e-06
8.68862e-07
6.96787e-06
8.3995e-07
6.16813e-06
7.99743e-07
5.41664e-06
7.51486e-07
4.71856e-06
6.98084e-07
4.0765e-06
6.42057e-07
3.49098e-06
5.85523e-07
2.96077e-06
5.30204e-07
2.48334e-06
4.77438e-07
2.05515e-06
4.28188e-07
1.67214e-06
3.83011e-07
1.33013e-06
3.42012e-07
1.02538e-06
3.04749e-07
7.55247e-07
2.7013e-07
5.18903e-07
2.36344e-07
3.18009e-07
2.00894e-07
1.57091e-07
1.60918e-07
4.30477e-08
1.14043e-07
-1.72477e-08
6.02953e-08
-2.35226e-08
6.27484e-09
-2.35227e-08
5.15537e-08
-4.8174e-08
2.50653e-07
-2.5337e-07
6.0569e-07
-4.83592e-07
1.0905e-06
-6.74777e-07
1.66678e-06
-8.09e-07
2.2929e-06
-8.8197e-07
2.92912e-06
-8.97146e-07
3.5409e-06
-8.62555e-07
4.10088e-06
-7.88906e-07
4.58981e-06
-6.88118e-07
4.99657e-06
-5.72114e-07
5.31758e-06
-4.51793e-07
5.55555e-06
-3.36228e-07
5.71787e-06
-2.32136e-07
5.81486e-06
-1.43629e-07
5.85791e-06
-7.22167e-08
5.85781e-06
-1.70875e-08
5.8235e-06
2.47643e-08
5.76083e-06
5.76595e-08
5.67206e-06
8.67684e-08
5.55558e-06
1.17586e-07
5.40584e-06
1.55273e-07
5.21443e-06
2.04385e-07
4.97032e-06
2.68425e-07
4.66072e-06
3.49836e-07
4.27172e-06
4.50119e-07
3.78881e-06
5.70059e-07
3.19721e-06
7.09992e-07
2.48211e-06
8.70031e-07
1.6287e-06
1.05021e-06
6.22298e-07
1.2505e-06
-5.5151e-07
1.47077e-06
-1.90666e-06
1.71062e-06
-3.45625e-06
1.96926e-06
-5.21216e-06
2.24534e-06
-7.1845e-06
2.53689e-06
-9.38109e-06
2.84122e-06
-1.18069e-05
3.15487e-06
-1.44636e-05
3.47364e-06
-1.73489e-05
3.79265e-06
-2.04562e-05
4.10637e-06
-2.37742e-05
4.40875e-06
-2.7287e-05
4.69335e-06
-3.09735e-05
4.95349e-06
-3.48079e-05
5.18247e-06
-3.87597e-05
5.37369e-06
-4.27941e-05
5.52086e-06
-4.68724e-05
5.61817e-06
-5.09526e-05
5.66045e-06
-5.49903e-05
5.64322e-06
-5.89388e-05
5.56287e-06
-6.27506e-05
5.41667e-06
-6.63775e-05
5.20278e-06
-6.97715e-05
4.92031e-06
-7.28856e-05
4.5693e-06
-7.56744e-05
4.15069e-06
-7.80945e-05
3.66632e-06
-8.01056e-05
3.11891e-06
-8.16702e-05
2.51208e-06
-8.2755e-05
1.85044e-06
-8.33302e-05
1.13942e-06
-8.33726e-05
3.86136e-07
-8.28643e-05
-4.04909e-07
-8.17895e-05
-1.22477e-06
-8.01412e-05
-2.06117e-06
-7.79202e-05
-2.90569e-06
-7.51336e-05
-3.74727e-06
-7.17958e-05
-4.5736e-06
-6.79296e-05
-5.3717e-06
-6.35656e-05
-6.12799e-06
-5.87429e-05
-6.82853e-06
-5.3509e-05
-7.4593e-06
-4.79191e-05
-8.00662e-06
-4.20364e-05
-8.45755e-06
-3.59307e-05
-8.80041e-06
-2.96777e-05
-9.0253e-06
-2.33578e-05
-9.12456e-06
-1.70545e-05
-9.09327e-06
-1.08525e-05
-8.92969e-06
-4.83592e-06
-8.63554e-06
9.13727e-07
-8.21619e-06
6.31991e-06
-7.68064e-06
1.1313e-05
-7.04141e-06
1.58325e-05
-6.31415e-06
1.98285e-05
-5.51718e-06
2.32633e-05
-4.67076e-06
2.61124e-05
-3.79638e-06
2.83654e-05
-2.91583e-06
3.00254e-05
-2.0505e-06
3.11084e-05
-1.22029e-06
3.16443e-05
-4.41931e-07
3.16748e-05
2.68416e-07
3.12487e-05
8.96918e-07
3.04216e-05
1.4385e-06
2.92553e-05
1.88751e-06
2.78133e-05
2.24284e-06
2.6159e-05
2.50674e-06
2.43534e-05
2.68438e-06
2.24531e-05
2.78329e-06
2.05092e-05
2.81271e-06
1.85662e-05
2.78297e-06
1.66611e-05
2.70482e-06
1.48236e-05
2.58894e-06
1.30763e-05
2.44547e-06
1.14346e-05
2.28367e-06
9.90846e-06
2.11171e-06
8.50212e-06
1.93654e-06
7.2157e-06
1.76386e-06
6.04592e-06
1.59796e-06
4.98722e-06
1.44171e-06
4.03295e-06
1.29629e-06
3.17672e-06
1.16098e-06
2.4139e-06
1.03294e-06
1.74318e-06
9.07072e-07
1.16774e-06
7.76329e-07
6.95814e-07
6.32846e-07
3.39403e-07
4.70454e-07
1.09933e-07
2.89765e-07
9.3643e-09
1.06844e-07
-1.41585e-08
1.21002e-07
-1.69176e-07
4.69193e-07
-6.01561e-07
1.02056e-06
-1.03496e-06
1.73609e-06
-1.39031e-06
2.56563e-06
-1.63853e-06
3.45505e-06
-1.7714e-06
4.3522e-06
-1.79429e-06
5.21105e-06
-1.72141e-06
5.99449e-06
-1.57234e-06
6.67564e-06
-1.36927e-06
7.23814e-06
-1.13461e-06
7.67534e-06
-8.88985e-07
7.98879e-06
-6.49681e-07
8.18625e-06
-4.29597e-07
8.27932e-06
-2.36695e-07
8.28102e-06
-7.39256e-08
8.20361e-06
6.03231e-08
8.05671e-06
1.71671e-07
7.84573e-06
2.68637e-07
7.57105e-06
3.61452e-07
7.22767e-06
4.60966e-07
6.80542e-06
5.77522e-07
6.28972e-06
7.20085e-07
5.66243e-06
8.95718e-07
4.90285e-06
1.10941e-06
3.98872e-06
1.36425e-06
2.89692e-06
1.66185e-06
1.60414e-06
2.00277e-06
8.72638e-08
2.38691e-06
-1.67627e-06
2.81374e-06
-3.70805e-06
3.28229e-06
-6.02827e-06
3.79099e-06
-8.65507e-06
4.33742e-06
-1.16038e-05
4.91801e-06
-1.48863e-05
5.52785e-06
-1.85099e-05
6.16047e-06
-2.24765e-05
6.80785e-06
-2.67821e-05
7.4604e-06
-3.14156e-05
8.10713e-06
-3.63588e-05
8.73587e-06
-4.1586e-05
9.33356e-06
-4.70638e-05
9.88663e-06
-5.27519e-05
1.03814e-05
-5.86029e-05
1.08045e-05
-6.45639e-05
1.11434e-05
-7.05769e-05
1.13867e-05
-7.65805e-05
1.15244e-05
-8.25107e-05
1.15484e-05
-8.83025e-05
1.14522e-05
-9.3891e-05
1.12318e-05
-9.92128e-05
1.08846e-05
-0.000104207
1.04104e-05
-0.000108814
9.81045e-06
-0.000112982
9.08771e-06
-0.000116659
8.24663e-06
-0.000119801
7.29294e-06
-0.000122368
6.23354e-06
-0.000124326
5.07639e-06
-0.000125644
3.83046e-06
-0.0001263
2.50572e-06
-0.000126273
1.11305e-06
-0.000125551
-3.3584e-07
-0.000124129
-1.82684e-06
-0.000122006
-3.34837e-06
-0.000119184
-4.88296e-06
-0.000115675
-6.41424e-06
-0.000111498
-7.92473e-06
-0.000106676
-9.39552e-06
-0.000101241
-1.08066e-05
-9.52318e-05
-1.21372e-05
-8.86944e-05
-1.33659e-05
-8.16824e-05
-1.44713e-05
-7.42567e-05
-1.54323e-05
-6.64853e-05
-1.62289e-05
-5.84431e-05
-1.68426e-05
-5.02108e-05
-1.72576e-05
-4.18744e-05
-1.7461e-05
-3.35235e-05
-1.74442e-05
-2.52504e-05
-1.72027e-05
-1.71483e-05
-1.67377e-05
-9.30922e-06
-1.60553e-05
-1.82223e-06
-1.51676e-05
5.22853e-06
-1.40922e-05
1.17659e-05
-1.28516e-05
1.77219e-05
-1.14731e-05
2.30388e-05
-9.98769e-06
2.76715e-05
-8.42907e-06
3.15881e-05
-6.83252e-06
3.47713e-05
-5.23367e-06
3.72182e-05
-3.66717e-06
3.8942e-05
-2.1657e-06
3.997e-05
-7.59666e-07
4.03415e-05
5.25501e-07
4.01082e-05
1.67175e-06
3.93336e-05
2.66216e-06
3.80878e-05
3.48857e-06
3.64465e-05
4.14808e-06
3.44873e-05
4.64355e-06
3.22876e-05
4.98299e-06
2.99215e-05
5.1788e-06
2.74578e-05
5.24672e-06
2.49578e-05
5.20478e-06
2.24746e-05
5.07217e-06
2.00518e-05
4.86825e-06
1.77238e-05
4.61164e-06
1.5516e-05
4.31955e-06
1.34453e-05
4.00726e-06
1.15214e-05
3.68776e-06
9.74794e-06
3.37141e-06
8.12405e-06
3.0656e-06
6.64599e-06
2.77435e-06
5.30907e-06
2.4979e-06
4.10971e-06
2.2323e-06
3.04736e-06
1.96942e-06
2.12608e-06
1.69761e-06
1.35513e-06
1.4038e-06
7.47845e-07
1.07774e-06
3.1791e-07
7.197e-07
7.2404e-08
3.5235e-07
5.82455e-08
1.78289e-07
-3.47465e-07
6.52836e-07
-1.07611e-06
1.36783e-06
-1.74995e-06
2.26639e-06
-2.28887e-06
3.28621e-06
-2.65835e-06
4.36346e-06
-2.84865e-06
5.43762e-06
-2.86845e-06
6.45552e-06
-2.73931e-06
7.37414e-06
-2.49096e-06
8.162e-06
-2.15713e-06
8.79934e-06
-1.77196e-06
9.27721e-06
-1.36686e-06
9.59569e-06
-9.68155e-07
9.76155e-06
-5.95458e-07
9.78562e-06
-2.60768e-07
9.68006e-06
3.164e-08
9.45568e-06
2.84703e-07
9.11989e-06
5.07463e-07
8.67496e-06
7.1356e-07
8.11703e-06
9.19381e-07
7.4358e-06
1.1422e-06
6.61487e-06
1.39845e-06
5.63263e-06
1.70232e-06
4.46341e-06
2.06494e-06
3.07871e-06
2.4941e-06
1.44847e-06
2.99449e-06
-4.57923e-07
3.56825e-06
-2.67076e-06
4.2156e-06
-5.2192e-06
4.93535e-06
-8.13055e-06
5.72509e-06
-1.14294e-05
6.58112e-06
-1.51366e-05
7.49817e-06
-1.92682e-05
8.46903e-06
-2.38343e-05
9.48413e-06
-2.88378e-05
1.05313e-05
-3.42732e-05
1.15959e-05
-4.0126e-05
1.26606e-05
-4.63715e-05
1.37059e-05
-5.29753e-05
1.47109e-05
-5.98926e-05
1.56532e-05
-6.70696e-05
1.65106e-05
-7.44442e-05
1.72612e-05
-8.19474e-05
1.78845e-05
-8.9505e-05
1.83622e-05
-9.70399e-05
1.86783e-05
-0.000104474
1.88205e-05
-0.000111729
1.87794e-05
-0.00011873
1.85493e-05
-0.000125405
1.81279e-05
-0.000131689
1.75157e-05
-0.000137521
1.67164e-05
-0.000142846
1.57356e-05
-0.000147617
1.45813e-05
-0.000151792
1.32627e-05
-0.000155336
1.17906e-05
-0.00015822
1.01765e-05
-0.000160419
8.4328e-06
-0.000161915
6.5725e-06
-0.000162694
4.60927e-06
-0.000162745
2.55739e-06
-0.000162064
4.31919e-07
-0.000160649
-1.7516e-06
-0.0001585
-3.97576e-06
-0.000155625
-6.22304e-06
-0.000152034
-8.47383e-06
-0.000147741
-1.07072e-05
-0.000142765
-1.29006e-05
-0.00013713
-1.50304e-05
-0.000130866
-1.70709e-05
-0.000124008
-1.89956e-05
-0.000116597
-2.07768e-05
-0.000108682
-2.23865e-05
-0.000100317
-2.37965e-05
-9.15663e-05
-2.49801e-05
-8.24971e-05
-2.59118e-05
-7.31854e-05
-2.65693e-05
-6.37126e-05
-2.69338e-05
-5.41651e-05
-2.69917e-05
-4.46332e-05
-2.67347e-05
-3.52095e-05
-2.61613e-05
-2.59876e-05
-2.52772e-05
-1.70598e-05
-2.40954e-05
-8.51584e-06
-2.26361e-05
-4.40403e-07
-2.0927e-05
7.08837e-06
-1.90019e-05
1.40007e-05
-1.69e-05
2.02368e-05
-1.46651e-05
2.5748e-05
-1.23437e-05
3.04981e-05
-9.98377e-06
3.44643e-05
-7.6334e-06
3.76379e-05
-5.3393e-06
4.00237e-05
-3.14549e-06
4.16407e-05
-1.09151e-06
4.25237e-05
7.88801e-07
4.27187e-05
2.4671e-06
4.22845e-05
3.92276e-06
4.12897e-05
5.1429e-06
3.98106e-05
6.12266e-06
3.79285e-05
6.86509e-06
3.57268e-05
7.38056e-06
3.32876e-05
7.68586e-06
3.06895e-05
7.80291e-06
2.80044e-05
7.75726e-06
2.52961e-05
7.57654e-06
2.26188e-05
7.28894e-06
2.00165e-05
6.92186e-06
1.7523e-05
6.50073e-06
1.51627e-05
6.04808e-06
1.29514e-05
5.58276e-06
1.08979e-05
5.11908e-06
9.00605e-06
4.66617e-06
7.27681e-06
4.22714e-06
5.71049e-06
3.79862e-06
4.30916e-06
3.37075e-06
3.07856e-06
2.9282e-06
2.02934e-06
2.45303e-06
1.17705e-06
1.93002e-06
5.40864e-07
1.35589e-06
1.41332e-07
7.51882e-07
1.99578e-07
2.22103e-07
-5.69568e-07
7.96829e-07
-1.65083e-06
1.64225e-06
-2.59537e-06
2.68243e-06
-3.32905e-06
3.84175e-06
-3.81767e-06
5.04691e-06
-4.0538e-06
6.23047e-06
-4.05202e-06
7.33428e-06
-3.84312e-06
8.31176e-06
-3.46844e-06
9.12902e-06
-2.97439e-06
9.76462e-06
-2.40756e-06
1.02083e-05
-1.81056e-06
1.0459e-05
-1.21882e-06
1.05219e-05
-6.58392e-07
1.0406e-05
-1.44819e-07
1.01206e-05
3.17058e-07
9.67291e-06
7.32343e-07
9.06583e-06
1.11455e-06
8.29596e-06
1.48343e-06
7.35292e-06
1.86242e-06
6.21916e-06
2.27596e-06
4.8706e-06
2.74701e-06
3.27774e-06
3.29518e-06
1.40718e-06
3.93551e-06
-7.76861e-07
4.67815e-06
-3.31099e-06
5.52862e-06
-6.23129e-06
6.48855e-06
-9.57206e-06
7.55637e-06
-1.33646e-05
8.72785e-06
-1.76357e-05
9.99623e-06
-2.24066e-05
1.1352e-05
-2.76911e-05
1.27827e-05
-3.34942e-05
1.42721e-05
-3.98104e-05
1.58003e-05
-4.66228e-05
1.73437e-05
-5.3902e-05
1.88751e-05
-6.16058e-05
2.03645e-05
-6.968e-05
2.17801e-05
-7.80588e-05
2.30896e-05
-8.66667e-05
2.42611e-05
-9.54208e-05
2.52647e-05
-0.000104233
2.60736e-05
-0.000113014
2.66652e-05
-0.000121673
2.70216e-05
-0.000130125
2.71302e-05
-0.000138288
2.69835e-05
-0.000146088
2.65791e-05
-0.000153458
2.59192e-05
-0.000160339
2.50095e-05
-0.000166683
2.38594e-05
-0.000172447
2.24803e-05
-0.000177597
2.08856e-05
-0.000182106
1.90899e-05
-0.000185951
1.71083e-05
-0.000189117
1.49566e-05
-0.000191591
1.26505e-05
-0.000193364
1.02057e-05
-0.00019443
7.63807e-06
-0.000194784
4.96355e-06
-0.000194425
2.19831e-06
-0.000193352
-6.40913e-07
-0.000191567
-3.53677e-06
-0.000189072
-6.47064e-06
-0.000185872
-9.42258e-06
-0.000181975
-1.2371e-05
-0.00017739
-1.52923e-05
-0.00017213
-1.8161e-05
-0.000166211
-2.09494e-05
-0.000159654
-2.36275e-05
-0.000152486
-2.61635e-05
-0.000144739
-2.8524e-05
-0.000136451
-3.06742e-05
-0.000127668
-3.25793e-05
-0.000118444
-3.42046e-05
-0.000108838
-3.55174e-05
-9.89201e-05
-3.64875e-05
-8.87647e-05
-3.70892e-05
-7.84543e-05
-3.73021e-05
-6.80762e-05
-3.71127e-05
-5.77222e-05
-3.65154e-05
-4.74862e-05
-3.55133e-05
-3.74627e-05
-3.41188e-05
-2.7745e-05
-3.23539e-05
-1.84228e-05
-3.02492e-05
-9.58049e-06
-2.78441e-05
-1.29566e-06
-2.51849e-05
6.3627e-06
-2.23235e-05
1.33352e-05
-1.93162e-05
1.95732e-05
-1.62218e-05
2.50393e-05
-1.30995e-05
2.97081e-05
-1.00081e-05
3.35663e-05
-7.00366e-06
3.66135e-05
-4.13876e-06
3.88629e-05
-1.4606e-06
4.03403e-05
9.8974e-07
4.10845e-05
3.1786e-06
4.11466e-05
5.08074e-06
4.05891e-05
6.68015e-06
3.94838e-05
7.97046e-06
3.79094e-05
8.95496e-06
3.59491e-05
9.64614e-06
3.36873e-05
1.00647e-05
3.12064e-05
1.02382e-05
2.8584e-05
1.01989e-05
2.58906e-05
9.98233e-06
2.31876e-05
9.6249e-06
2.05262e-05
9.16208e-06
1.79475e-05
8.6268e-06
1.54825e-05
8.0478e-06
1.31533e-05
7.44828e-06
1.09749e-05
6.84455e-06
8.9572e-06
6.24484e-06
7.10739e-06
5.64843e-06
5.43257e-06
5.04557e-06
3.94218e-06
4.4186e-06
2.65011e-06
3.7451e-06
1.57646e-06
3.00367e-06
7.49029e-07
2.18332e-06
2.05432e-07
1.29548e-06
4.0501e-07
2.55034e-07
-8.24603e-07
9.06925e-07
-2.30273e-06
1.85259e-06
-3.54104e-06
2.99771e-06
-4.47417e-06
4.25278e-06
-5.07275e-06
5.53467e-06
-5.3357e-06
6.76944e-06
-5.28678e-06
7.89495e-06
-4.96864e-06
8.86262e-06
-4.4361e-06
9.6377e-06
-3.74947e-06
1.01985e-05
-2.96836e-06
1.05345e-05
-2.14655e-06
1.06438e-05
-1.32808e-06
1.05299e-05
-5.44557e-07
1.0199e-05
1.8611e-07
9.65623e-06
8.59821e-07
8.90338e-06
1.48519e-06
7.93647e-06
2.08146e-06
6.74435e-06
2.67555e-06
5.3081e-06
3.29868e-06
3.60132e-06
3.98274e-06
1.59121e-06
4.75712e-06
-7.5984e-07
5.64623e-06
-3.49235e-06
6.66802e-06
-6.6478e-06
7.83359e-06
-1.02667e-05
9.14753e-06
-1.43869e-05
1.06087e-05
-1.90416e-05
1.22111e-05
-2.42579e-05
1.39441e-05
-3.00545e-05
1.57929e-05
-3.64401e-05
1.77376e-05
-4.34112e-05
1.97538e-05
-5.09505e-05
2.18115e-05
-5.90262e-05
2.3876e-05
-6.75908e-05
2.59084e-05
-7.65824e-05
2.78667e-05
-8.59254e-05
2.97074e-05
-9.55329e-05
3.13876e-05
-0.00010531
3.28665e-05
-0.000115156
3.41075e-05
-0.000124971
3.50795e-05
-0.000134655
3.57581e-05
-0.000144116
3.61263e-05
-0.000153269
3.61741e-05
-0.000162037
3.58986e-05
-0.000170357
3.53029e-05
-0.000178173
3.43953e-05
-0.000185442
3.31882e-05
-0.000192129
3.16968e-05
-0.000198209
2.99388e-05
-0.000203661
2.79324e-05
-0.000208472
2.56967e-05
-0.000212633
2.32506e-05
-0.000216137
2.06125e-05
-0.00021898
1.78002e-05
-0.000221161
1.48308e-05
-0.000222676
1.1721e-05
-0.000223525
8.48686e-06
-0.000223705
5.14428e-06
-0.000223217
1.70936e-06
-0.000222056
-1.80134e-06
-0.000220223
-5.37036e-06
-0.000217714
-8.97891e-06
-0.00021453
-1.26065e-05
-0.000210671
-1.62304e-05
-0.000206138
-1.98257e-05
-0.000200934
-2.33643e-05
-0.000195068
-2.68157e-05
-0.000188549
-3.0146e-05
-0.000181394
-3.33187e-05
-0.000173624
-3.62946e-05
-0.000165265
-3.90326e-05
-0.000156354
-4.14903e-05
-0.000146934
-4.36251e-05
-0.000137056
-4.53954e-05
-0.000126781
-4.67625e-05
-0.000116179
-4.76915e-05
-0.000105327
-4.81538e-05
-9.43114e-05
-4.81283e-05
-8.32234e-05
-4.76034e-05
-7.2159e-05
-4.65777e-05
-6.12164e-05
-4.50614e-05
-5.04942e-05
-4.30761e-05
-4.00883e-05
-4.06551e-05
-3.00904e-05
-3.78421e-05
-2.05853e-05
-3.46899e-05
-1.16498e-05
-3.1259e-05
-3.35089e-06
-2.76151e-05
4.25445e-06
-2.38271e-05
1.11201e-05
-1.99652e-05
1.72107e-05
-1.60987e-05
2.25018e-05
-1.22948e-05
2.69798e-05
-8.61673e-06
3.06421e-05
-5.12291e-06
3.34975e-05
-1.86564e-06
3.55662e-05
1.10987e-06
3.68803e-05
3.76663e-06
3.74836e-05
6.07681e-06
3.74313e-05
8.02279e-06
3.67886e-05
9.59766e-06
3.56292e-05
1.08055e-05
3.40328e-05
1.16611e-05
3.20822e-05
1.21888e-05
2.98601e-05
1.2421e-05
2.7446e-05
1.23964e-05
2.49137e-05
1.21572e-05
2.23289e-05
1.17469e-05
1.97479e-05
1.12078e-05
1.72173e-05
1.05785e-05
1.47736e-05
9.8919e-06
1.24452e-05
9.17299e-06
1.02532e-05
8.43688e-06
8.21407e-06
7.68751e-06
6.34255e-06
6.91709e-06
4.65413e-06
6.10702e-06
3.1684e-06
5.23083e-06
1.9123e-06
4.25977e-06
9.24184e-07
3.17143e-06
2.59078e-07
1.96058e-06
6.64088e-07
2.80411e-07
-1.10501e-06
9.91204e-07
-3.01352e-06
2.011e-06
-4.56083e-06
3.22811e-06
-5.69128e-06
4.53911e-06
-6.38375e-06
5.85091e-06
-6.6475e-06
7.08331e-06
-6.51918e-06
8.17102e-06
-6.05635e-06
9.06451e-06
-5.3296e-06
9.72947e-06
-4.41443e-06
1.01451e-05
-3.38395e-06
1.03013e-05
-2.30278e-06
1.01957e-05
-1.22253e-06
9.83009e-06
-1.78913e-07
9.20667e-06
8.09539e-07
8.32519e-06
1.74129e-06
7.18018e-06
2.63021e-06
5.75896e-06
3.50267e-06
4.04074e-06
4.39377e-06
1.99658e-06
5.34285e-06
-4.09669e-07
6.38898e-06
-3.21956e-06
7.56701e-06
-6.47787e-06
8.90454e-06
-1.02301e-05
1.04203e-05
-1.45202e-05
1.21237e-05
-1.93879e-05
1.40152e-05
-2.48667e-05
1.60875e-05
-3.09814e-05
1.83258e-05
-3.77459e-05
2.07087e-05
-4.51608e-05
2.32078e-05
-5.32113e-05
2.57881e-05
-6.18656e-05
2.84081e-05
-7.10742e-05
3.10201e-05
-8.07703e-05
3.3572e-05
-9.0871e-05
3.6009e-05
-0.00010128
3.82759e-05
-0.000111892
4.03196e-05
-0.000122597
4.20919e-05
-0.000133282
4.35517e-05
-0.00014384
4.46661e-05
-0.000154173
4.54119e-05
-0.00016419
4.57752e-05
-0.000173815
4.57512e-05
-0.000182984
4.53432e-05
-0.000191646
4.45612e-05
-0.000199764
4.34202e-05
-0.000207308
4.19392e-05
-0.000214259
4.01392e-05
-0.000220605
3.80428e-05
-0.000226339
3.56727e-05
-0.000231457
3.30512e-05
-0.00023596
3.01996e-05
-0.000239848
2.71383e-05
-0.000243122
2.38861e-05
-0.000245782
2.04608e-05
-0.00024783
1.68788e-05
-0.000249265
1.31557e-05
-0.000250085
9.30668e-06
-0.000250287
5.34639e-06
-0.000249867
1.2898e-06
-0.000248821
-2.84761e-06
-0.000247142
-7.0492e-06
-0.000244824
-1.12968e-05
-0.000241861
-1.55702e-05
-0.000238245
-1.98465e-05
-0.00023397
-2.41001e-05
-0.000229033
-2.83018e-05
-0.00022343
-3.24186e-05
-0.000217162
-3.64141e-05
-0.000210233
-4.02476e-05
-0.000202652
-4.38751e-05
-0.000194436
-4.72491e-05
-0.000185606
-5.03201e-05
-0.000176194
-5.3037e-05
-0.00016624
-5.53489e-05
-0.000155796
-5.72067e-05
-0.000144922
-5.85651e-05
-0.000133691
-5.93848e-05
-0.000122185
-5.96345e-05
-0.000110495
-5.92937e-05
-9.87191e-05
-5.83535e-05
-8.69615e-05
-5.68189e-05
-7.53284e-05
-5.47092e-05
-6.39254e-05
-5.20581e-05
-5.28548e-05
-4.89127e-05
-4.22125e-05
-4.53322e-05
-3.20859e-05
-4.13856e-05
-2.25518e-05
-3.71492e-05
-1.36755e-05
-3.27034e-05
-5.51037e-06
-2.81303e-05
1.90195e-06
-2.3511e-05
8.53084e-06
-1.89236e-05
1.43561e-05
-1.4442e-05
1.93671e-05
-1.0134e-05
2.35628e-05
-6.06129e-06
2.69511e-05
-2.27844e-06
2.95497e-05
1.16796e-06
3.13865e-05
4.24003e-06
3.24997e-05
6.9096e-06
3.29382e-05
9.15919e-06
3.2761e-05
1.09827e-05
3.2036e-05
1.23861e-05
3.08381e-05
1.33866e-05
2.92468e-05
1.40124e-05
2.73425e-05
1.43007e-05
2.52045e-05
1.42953e-05
2.29072e-05
1.40442e-05
2.05184e-05
1.35965e-05
1.80976e-05
1.29993e-05
1.56949e-05
1.22946e-05
1.33518e-05
1.1516e-05
1.11019e-05
1.06868e-05
8.97262e-06
9.8168e-06
6.98804e-06
8.90167e-06
5.17198e-06
7.92308e-06
3.55181e-06
6.851e-06
2.16307e-06
5.64851e-06
1.05525e-06
4.27925e-06
2.99051e-07
2.71678e-06
9.63139e-07
3.00806e-07
-1.40582e-06
1.05621e-06
-3.76892e-06
2.12736e-06
-5.63198e-06
3.38585e-06
-6.94977e-06
4.71466e-06
-7.71256e-06
6.01107e-06
-7.94391e-06
7.18922e-06
-7.69733e-06
8.18155e-06
-7.04868e-06
8.93869e-06
-6.08673e-06
9.4278e-06
-4.90355e-06
9.62981e-06
-3.58596e-06
9.53571e-06
-2.20868e-06
9.1426e-06
-8.29416e-07
8.44967e-06
5.14015e-07
7.45449e-06
1.80472e-06
6.14983e-06
3.04595e-06
4.5213e-06
4.25874e-06
2.54595e-06
5.47801e-06
1.92091e-07
6.74763e-06
-2.57988e-06
8.11481e-06
-5.81549e-06
9.6246e-06
-9.56364e-06
1.13152e-05
-1.38735e-05
1.32144e-05
-1.87915e-05
1.53383e-05
-2.43583e-05
1.76905e-05
-3.06061e-05
2.0263e-05
-3.75556e-05
2.30369e-05
-4.52135e-05
2.59837e-05
-5.357e-05
2.90652e-05
-6.25967e-05
3.22345e-05
-7.22454e-05
3.54368e-05
-8.24477e-05
3.86104e-05
-9.31169e-05
4.16892e-05
-0.00010415
4.46053e-05
-0.000115433
4.72921e-05
-0.000126845
4.96882e-05
-0.000138266
5.17397e-05
-0.000149577
5.34032e-05
-0.000160672
5.46466e-05
-0.000171456
5.545e-05
-0.000181849
5.58047e-05
-0.000191786
5.57126e-05
-0.000201219
5.51837e-05
-0.000210111
5.42351e-05
-0.000218438
5.28885e-05
-0.000226186
5.11683e-05
-0.000233348
4.9101e-05
-0.000239921
4.6713e-05
-0.000245909
4.40303e-05
-0.000251314
4.10777e-05
-0.000256141
3.78786e-05
-0.000260396
3.44545e-05
-0.000264083
3.08252e-05
-0.000267206
2.70086e-05
-0.000269766
2.30213e-05
-0.000271766
1.88785e-05
-0.000273204
1.45942e-05
-0.00027408
1.01819e-05
-0.000274388
5.65488e-06
-0.000274125
1.02643e-06
-0.000273283
-3.68949e-06
-0.000271854
-8.47776e-06
-0.000269829
-1.33216e-05
-0.000267198
-1.82018e-05
-0.000263948
-2.30967e-05
-0.000260067
-2.7981e-05
-0.000255543
-3.28255e-05
-0.000250365
-3.75967e-05
-0.000244522
-4.22566e-05
-0.000238008
-4.67621e-05
-0.000230818
-5.10653e-05
-0.000222953
-5.51141e-05
-0.000214421
-5.88522e-05
-0.000205237
-6.22205e-05
-0.000195428
-6.51585e-05
-0.000185028
-6.7606e-05
-0.000174088
-6.95056e-05
-0.000162668
-7.08049e-05
-0.000150843
-7.14597e-05
-0.0001387
-7.14362e-05
-0.000126339
-7.07144e-05
-0.000113868
-6.92898e-05
-0.000101402
-6.71751e-05
-8.90599e-05
-6.44007e-05
-7.6958e-05
-6.10146e-05
-6.52093e-05
-5.70808e-05
-5.39182e-05
-5.26768e-05
-4.31774e-05
-4.78901e-05
-3.3066e-05
-4.28148e-05
-2.36486e-05
-3.75477e-05
-1.4975e-05
-3.21845e-05
-7.08149e-06
-2.68172e-05
8.20738e-09
-2.15317e-05
6.28072e-06
-1.64065e-05
1.17317e-05
-1.15123e-05
1.63648e-05
-6.9115e-06
2.01908e-05
-2.65807e-06
2.32283e-05
1.20259e-06
2.55036e-05
4.63424e-06
2.70523e-05
7.61057e-06
2.79188e-05
1.01162e-05
2.81574e-05
1.21475e-05
2.78309e-05
1.37131e-05
2.70094e-05
1.48339e-05
2.57682e-05
1.55419e-05
2.41849e-05
1.58785e-05
2.23366e-05
1.58925e-05
2.02971e-05
1.5636e-05
1.81346e-05
1.51619e-05
1.59099e-05
1.45192e-05
1.36761e-05
1.37498e-05
1.14785e-05
1.28844e-05
9.35594e-06
1.19394e-05
7.34292e-06
1.09147e-05
5.47298e-06
9.79301e-06
3.78274e-06
8.54124e-06
2.31718e-06
7.11407e-06
1.13639e-06
5.46005e-06
3.23719e-07
3.52945e-06
1.28686e-06
3.17723e-07
-1.72354e-06
1.10571e-06
-4.5569e-06
2.20707e-06
-6.73335e-06
3.47697e-06
-8.21967e-06
4.78537e-06
-9.02096e-06
6.02073e-06
-9.17927e-06
7.0926e-06
-8.7692e-06
7.93235e-06
-7.88842e-06
8.49193e-06
-6.64631e-06
8.74099e-06
-5.15261e-06
8.66276e-06
-3.50773e-06
8.24934e-06
-1.79526e-06
7.49693e-06
-7.70024e-08
6.4013e-06
1.60965e-06
4.95397e-06
3.25205e-06
3.13925e-06
4.86067e-06
9.32436e-07
6.46556e-06
-1.70072e-06
8.11117e-06
-4.80316e-06
9.85006e-06
-8.42435e-06
1.1736e-05
-1.26172e-05
1.38175e-05
-1.74346e-05
1.61325e-05
-2.2925e-05
1.87048e-05
-2.91295e-05
2.15427e-05
-3.60776e-05
2.46386e-05
-4.37846e-05
2.797e-05
-5.22486e-05
3.15009e-05
-6.14477e-05
3.51828e-05
-7.13384e-05
3.89559e-05
-8.18549e-05
4.27511e-05
-9.29101e-05
4.6492e-05
-0.000104398
5.00981e-05
-0.000116197
5.34889e-05
-0.00012818
5.65877e-05
-0.000140214
5.93259e-05
-0.000152172
6.16461e-05
-0.000163936
6.35046e-05
-0.000175405
6.4872e-05
-0.000186492
6.57331e-05
-0.000197127
6.60857e-05
-0.000207261
6.59383e-05
-0.000216857
6.53082e-05
-0.000225891
6.42186e-05
-0.000234353
6.26971e-05
-0.000242238
6.07732e-05
-0.000249547
5.84773e-05
-0.000256285
5.58393e-05
-0.000262461
5.28881e-05
-0.000268081
4.96505e-05
-0.000273155
4.61519e-05
-0.000277692
4.24152e-05
-0.000281698
3.84612e-05
-0.000285182
3.43088e-05
-0.000288148
2.99749e-05
-0.000290602
2.54748e-05
-0.000292545
2.08222e-05
-0.000293981
1.60298e-05
-0.000294908
1.11093e-05
-0.000295326
6.07204e-06
-0.000295229
9.29482e-07
-0.000294612
-4.30647e-06
-0.000293466
-9.62293e-06
-0.000291783
-1.50053e-05
-0.000289548
-2.04369e-05
-0.000286746
-2.5898e-05
-0.000283362
-3.13652e-05
-0.000279376
-3.68112e-05
-0.00027477
-4.22036e-05
-0.000269521
-4.75048e-05
-0.000263612
-5.26712e-05
-0.000257024
-5.76535e-05
-0.000249742
-6.23962e-05
-0.000241756
-6.68382e-05
-0.000233063
-7.09139e-05
-0.000223667
-7.45538e-05
-0.000213587
-7.76867e-05
-0.00020285
-8.02423e-05
-0.000191501
-8.21534e-05
-0.000179601
-8.33595e-05
-0.000167227
-8.38103e-05
-0.000154473
-8.34692e-05
-0.000141446
-8.23166e-05
-0.000128268
-8.03526e-05
-0.00011507
-7.75987e-05
-0.000101986
-7.40985e-05
-8.91507e-05
-6.99166e-05
-7.66913e-05
-6.51362e-05
-6.47254e-05
-5.98559e-05
-5.33554e-05
-5.41848e-05
-4.2666e-05
-4.82371e-05
-3.27228e-05
-4.21277e-05
-2.35732e-05
-3.59669e-05
-1.52472e-05
-2.98576e-05
-7.76091e-06
-2.38928e-05
-1.11846e-06
-1.81548e-05
4.68466e-06
-1.27146e-05
9.65985e-06
-7.63325e-06
1.38241e-05
-2.96168e-06
1.71999e-05
1.25842e-06
1.98156e-05
4.99486e-06
2.17064e-05
8.22542e-06
2.29151e-05
1.09388e-05
2.34929e-05
1.31353e-05
2.34989e-05
1.48279e-05
2.29993e-05
1.60415e-05
2.20656e-05
1.68123e-05
2.0772e-05
1.7186e-05
1.91933e-05
1.72148e-05
1.74015e-05
1.69536e-05
1.54645e-05
1.64563e-05
1.34438e-05
1.57705e-05
1.13949e-05
1.49334e-05
9.367e-06
1.39673e-05
7.40519e-06
1.28765e-05
5.55314e-06
1.16451e-05
3.8572e-06
1.02372e-05
2.37181e-06
8.59946e-06
1.16625e-06
6.6656e-06
3.32772e-07
4.36293e-06
1.61963e-06
3.31613e-07
-2.05516e-06
1.14054e-06
-5.36584e-06
2.25069e-06
-7.84349e-06
3.50095e-06
-9.46993e-06
4.74912e-06
-1.02691e-05
5.87619e-06
-1.03063e-05
6.78865e-06
-9.68166e-06
7.41832e-06
-8.5181e-06
7.71977e-06
-6.94776e-06
7.66591e-06
-5.09875e-06
7.24256e-06
-3.08438e-06
6.4426e-06
-9.95296e-07
5.26042e-06
1.10518e-06
3.68711e-06
3.18295e-06
1.70669e-06
5.23247e-06
-7.06356e-07
7.27372e-06
-3.58798e-06
9.34718e-06
-6.98382e-06
1.1507e-05
-1.09469e-05
1.38132e-05
-1.55342e-05
1.63232e-05
-2.08018e-05
1.90851e-05
-2.68006e-05
2.21313e-05
-3.35715e-05
2.54758e-05
-4.11414e-05
2.91126e-05
-4.95193e-05
3.30165e-05
-5.86935e-05
3.71443e-05
-6.86295e-05
4.14369e-05
-7.9268e-05
4.58213e-05
-9.05257e-05
5.02136e-05
-0.000102297
5.45224e-05
-0.000114458
5.86533e-05
-0.000126874
6.25136e-05
-0.000139403
6.60176e-05
-0.000151906
6.90911e-05
-0.000164255
7.16749e-05
-0.000176335
7.37262e-05
-0.00018805
7.52197e-05
-0.000199324
7.61455e-05
-0.000210099
7.6508e-05
-0.000220335
7.63222e-05
-0.000230008
7.56116e-05
-0.000239106
7.44054e-05
-0.000247623
7.27359e-05
-0.000255563
7.06369e-05
-0.000262932
6.81425e-05
-0.00026974
6.52857e-05
-0.000275999
6.20979e-05
-0.00028172
5.86088e-05
-0.000286915
5.48458e-05
-0.000291597
5.08338e-05
-0.000295777
4.65954e-05
-0.000299467
4.21511e-05
-0.000302677
3.7519e-05
-0.000305417
3.2715e-05
-0.000307696
2.77532e-05
-0.00030952
2.26461e-05
-0.000310894
1.74047e-05
-0.000311824
1.20388e-05
-0.00031231
6.55776e-06
-0.000312351
9.70457e-07
-0.000311943
-4.71374e-06
-0.000311081
-1.04849e-05
-0.000309755
-1.63317e-05
-0.000307951
-2.22405e-05
-0.000305654
-2.81952e-05
-0.000302844
-3.41758e-05
-0.000299496
-4.01583e-05
-0.000295587
-4.61135e-05
-0.000291085
-5.20062e-05
-0.000285961
-5.7795e-05
-0.000280184
-6.34312e-05
-0.000273721
-6.8859e-05
-0.000266544
-7.40151e-05
-0.000258628
-7.88294e-05
-0.000249956
-8.32257e-05
-0.00024052
-8.71234e-05
-0.000230322
-9.04397e-05
-0.000219384
-9.30921e-05
-0.000207741
-9.50021e-05
-0.000195452
-9.60996e-05
-0.000182594
-9.63268e-05
-0.000169268
-9.56427e-05
-0.000155593
-9.40276e-05
-0.000141706
-9.1486e-05
-0.000127755
-8.80488e-05
-0.000113898
-8.37738e-05
-0.00010029
-7.87444e-05
-8.70798e-05
-7.30659e-05
-7.44037e-05
-6.68609e-05
-6.2378e-05
-6.02628e-05
-5.10967e-05
-5.3409e-05
-4.06294e-05
-4.64342e-05
-3.1022e-05
-3.9465e-05
-2.2299e-05
-3.26157e-05
-1.44676e-05
-2.59862e-05
-7.52117e-06
-1.9661e-05
-1.44412e-06
-1.37103e-05
3.78547e-06
-8.19127e-06
8.1936e-06
-3.14971e-06