/*--------------------------------*- C++ -*----------------------------------*\
| =========                 |                                                 |
| \\      /  F ield         | OpenFOAM: The Open Source CFD Toolbox           |
|  \\    /   O peration     | Version:  2406                                  |
|   \\  /    A nd           | Website:  www.openfoam.com                      |
|    \\/     M anipulation  |                                                 |
\*---------------------------------------------------------------------------*/
FoamFile
{
    version     2.0;
    format      ascii;
    arch        "LSB;label=32;scalar=64";
    class       volScalarField;
    location    "34.05";
    object      p;
}
// * * * * * * * * * * * * * * * * * * * * * * * * * * * * * * * * * * * * * //

dimensions      [0 2 -2 0 0 0 0];

internalField   nonuniform List<scalar> 
14400
(
0.0419318
0.0419441
0.0419541
0.0419661
0.041968
0.0419644
0.0419489
0.0419257
0.0418924
0.0418524
0.0418053
0.0417538
0.0416981
0.0416401
0.0415797
0.0415177
0.0414536
0.0413873
0.0413179
0.0412445
0.041166
0.0410813
0.0409891
0.0408883
0.0407779
0.0406567
0.040524
0.0403788
0.0402203
0.0400478
0.0398607
0.0396584
0.0394405
0.0392066
0.0389567
0.038691
0.0384102
0.0381151
0.0378071
0.037488
0.0371604
0.0368271
0.0364916
0.0361582
0.0358315
0.0355167
0.0352196
0.0349462
0.0347028
0.034496
0.0343324
0.0342182
0.0341596
0.0341621
0.0342307
0.0343692
0.0345807
0.0348669
0.035228
0.0356628
0.0361683
0.0367399
0.037371
0.0380533
0.0387765
0.0395287
0.0402966
0.0410653
0.041819
0.0425414
0.0432157
0.0438256
0.0443558
0.0447922
0.0451228
0.0453381
0.0454317
0.0454004
0.0452448
0.0449689
0.0445803
0.0440898
0.0435111
0.0428598
0.042153
0.0414088
0.0406448
0.039878
0.0391242
0.0383968
0.0377075
0.0370649
0.0364757
0.0359436
0.0354704
0.0350558
0.0346977
0.0343931
0.0341377
0.0339268
0.0337553
0.0336183
0.0335108
0.0334283
0.0333664
0.0333216
0.0332904
0.0332702
0.0332583
0.0332534
0.0332533
0.033258
0.0332653
0.0332767
0.0332895
0.0333066
0.033323
0.0333423
0.0333559
0.0333658
0.0419195
0.0419317
0.0419362
0.0419437
0.0419411
0.0419351
0.0419187
0.0418964
0.0418651
0.0418282
0.0417847
0.0417372
0.0416855
0.0416312
0.0415743
0.0415152
0.0414538
0.0413897
0.0413222
0.0412507
0.0411742
0.0410916
0.0410019
0.0409042
0.0407974
0.0406806
0.0405529
0.0404135
0.0402617
0.0400965
0.0399175
0.039724
0.0395155
0.0392917
0.0390525
0.0387979
0.0385284
0.0382449
0.0379483
0.0376406
0.0373237
0.0370004
0.0366741
0.0363486
0.0360284
0.0357184
0.0354242
0.0351516
0.0349068
0.0346963
0.0345264
0.0344036
0.0343338
0.0343227
0.0343752
0.0344954
0.0346864
0.0349501
0.0352868
0.0356957
0.0361741
0.0367174
0.0373196
0.0379725
0.0386664
0.0393896
0.0401291
0.0408705
0.0415985
0.0422969
0.0429494
0.0435401
0.0440538
0.0444768
0.0447972
0.0450059
0.0450964
0.0450659
0.0449146
0.0446469
0.0442701
0.0437949
0.0432348
0.0426052
0.0419228
0.041205
0.0404693
0.0397319
0.0390079
0.0383102
0.0376496
0.0370345
0.0364706
0.0359615
0.0355084
0.0351107
0.0347665
0.0344725
0.0342248
0.0340187
0.0338495
0.0337127
0.0336035
0.0335178
0.0334517
0.0334019
0.0333652
0.0333393
0.0333217
0.0333113
0.0333058
0.0333053
0.0333075
0.0333139
0.0333212
0.0333327
0.0333428
0.0333569
0.0333653
0.0333755
0.0419094
0.0419272
0.0419319
0.0419409
0.0419378
0.041932
0.0419151
0.0418927
0.0418612
0.0418245
0.0417813
0.0417344
0.0416836
0.0416304
0.0415748
0.0415173
0.0414575
0.0413952
0.0413297
0.0412603
0.0411859
0.0411056
0.0410184
0.0409233
0.0408192
0.0407053
0.0405808
0.0404448
0.0402964
0.040135
0.0399597
0.03977
0.0395652
0.0393449
0.0391088
0.0388569
0.0385895
0.0383072
0.038011
0.0377025
0.0373835
0.0370569
0.0367258
0.036394
0.0360661
0.0357469
0.0354422
0.0351579
0.0349005
0.0346765
0.0344926
0.0343554
0.0342712
0.0342459
0.0342846
0.0343916
0.0345703
0.0348227
0.0351494
0.0355495
0.0360205
0.036558
0.0371559
0.0378061
0.0384988
0.0392224
0.0399638
0.0407085
0.041441
0.0421449
0.0428039
0.0434017
0.0439227
0.044353
0.0446804
0.0448954
0.0449912
0.0449647
0.0448163
0.0445498
0.044173
0.0436966
0.0431343
0.0425019
0.0418165
0.0410961
0.0403584
0.0396201
0.0388966
0.0382011
0.0375446
0.0369351
0.0363786
0.0358781
0.0354347
0.0350475
0.034714
0.0344306
0.0341929
0.0339961
0.0338353
0.0337058
0.0336026
0.0335219
0.0334597
0.0334127
0.033378
0.0333534
0.0333363
0.033326
0.03332
0.0333189
0.0333199
0.0333253
0.033331
0.0333418
0.0333504
0.0333655
0.0333736
0.0333895
0.0418963
0.041919
0.0419225
0.0419318
0.0419268
0.0419202
0.0419021
0.0418796
0.0418481
0.0418122
0.0417703
0.0417253
0.0416767
0.0416261
0.0415733
0.0415189
0.0414623
0.0414034
0.0413413
0.0412754
0.0412046
0.0411282
0.041045
0.0409543
0.0408549
0.0407462
0.0406271
0.0404969
0.0403548
0.0401997
0.040031
0.0398478
0.0396492
0.0394347
0.0392037
0.0389558
0.0386912
0.03841
0.0381132
0.0378018
0.0374778
0.0371437
0.0368026
0.0364583
0.0361154
0.0357791
0.0354551
0.0351498
0.0348699
0.0346222
0.034414
0.0342519
0.0341427
0.0340924
0.0341065
0.0341896
0.0343449
0.0345749
0.0348801
0.03526
0.0357119
0.0362318
0.0368136
0.0374495
0.0381297
0.038843
0.0395762
0.0403151
0.0410441
0.0417471
0.0424076
0.0430091
0.043536
0.0439742
0.044311
0.0445367
0.0446441
0.0446297
0.0444935
0.0442392
0.0438743
0.0434094
0.0428582
0.0422367
0.0415621
0.0408526
0.0401263
0.0394001
0.0386897
0.0380083
0.037367
0.036774
0.0362348
0.0357525
0.0353277
0.0349591
0.0346439
0.034378
0.0341567
0.0339748
0.0338271
0.0337087
0.0336149
0.0335415
0.0334847
0.0334417
0.0334093
0.0333858
0.0333689
0.0333579
0.0333505
0.0333476
0.033346
0.033349
0.0333514
0.0333598
0.033365
0.0333798
0.0333863
0.0334082
0.0418915
0.0419195
0.0419238
0.0419352
0.0419297
0.0419231
0.0419038
0.0418803
0.0418476
0.0418109
0.0417684
0.0417235
0.0416756
0.0416264
0.0415755
0.0415236
0.0414699
0.0414143
0.0413558
0.0412936
0.0412268
0.0411543
0.0410751
0.0409883
0.040893
0.0407882
0.040673
0.0405464
0.0404075
0.0402551
0.0400883
0.0399059
0.0397067
0.0394898
0.0392544
0.0389996
0.0387253
0.0384315
0.0381188
0.0377884
0.0374422
0.0370828
0.0367136
0.0363389
0.0359638
0.0355938
0.0352356
0.0348958
0.0345819
0.0343012
0.0340612
0.0338691
0.0337319
0.0336558
0.0336463
0.0337081
0.0338446
0.034058
0.034349
0.034717
0.0351593
0.035672
0.0362489
0.0368824
0.0375629
0.0382791
0.039018
0.0397655
0.040506
0.0412234
0.0419008
0.0425219
0.0430705
0.043532
0.0438933
0.044144
0.0442762
0.0442857
0.044172
0.0439381
0.0435911
0.0431414
0.0426025
0.0419906
0.0413231
0.0406188
0.0398962
0.0391728
0.038465
0.0377867
0.0371495
0.036562
0.0360302
0.0355571
0.0351436
0.0347882
0.0344876
0.0342376
0.0340329
0.0338678
0.0337367
0.0336341
0.0335548
0.0334946
0.0334494
0.0334163
0.0333921
0.0333754
0.0333636
0.0333566
0.0333518
0.0333508
0.0333501
0.0333537
0.0333558
0.0333648
0.0333695
0.0333866
0.0333935
0.0334224
0.0418901
0.0419218
0.0419259
0.0419381
0.0419312
0.0419235
0.0419022
0.0418773
0.0418431
0.0418056
0.0417629
0.0417186
0.041672
0.0416249
0.0415768
0.0415283
0.0414785
0.0414271
0.0413731
0.0413156
0.0412534
0.0411856
0.0411112
0.041029
0.0409381
0.0408375
0.0407261
0.0406027
0.0404661
0.0403149
0.0401476
0.0399626
0.0397584
0.0395335
0.0392867
0.0390168
0.0387233
0.0384061
0.0380658
0.0377037
0.0373221
0.036924
0.0365135
0.0360955
0.0356758
0.0352608
0.0348576
0.0344737
0.0341169
0.033795
0.0335157
0.0332866
0.0331144
0.0330057
0.0329658
0.0329992
0.0331093
0.0332983
0.033567
0.0339145
0.0343385
0.0348351
0.0353984
0.0360211
0.0366938
0.0374058
0.0381443
0.0388956
0.0396445
0.0403749
0.0410703
0.041714
0.0422899
0.0427827
0.0431789
0.0434673
0.0436392
0.0436894
0.0436163
0.0434221
0.0431129
0.0426986
0.0421921
0.0416092
0.0409674
0.0402854
0.0395822
0.0388758
0.0381829
0.0375182
0.0368937
0.0363187
0.0357996
0.0353398
0.0349404
0.0346
0.0343155
0.0340823
0.033895
0.0337475
0.0336338
0.0335481
0.0334847
0.0334392
0.033407
0.0333853
0.0333708
0.033362
0.0333564
0.0333542
0.0333529
0.0333542
0.0333546
0.0333589
0.0333606
0.0333697
0.0333733
0.0333918
0.0333984
0.0334329
0.0418979
0.0419327
0.0419371
0.0419501
0.0419418
0.041933
0.0419093
0.0418821
0.0418456
0.0418064
0.0417625
0.041718
0.0416719
0.0416264
0.0415807
0.0415353
0.0414893
0.0414421
0.0413925
0.0413395
0.0412818
0.0412183
0.0411478
0.0410691
0.0409809
0.0408821
0.0407712
0.0406467
0.0405069
0.0403499
0.0401736
0.0399758
0.0397546
0.039508
0.0392342
0.0389321
0.038601
0.0382412
0.0378535
0.0374399
0.0370035
0.0365483
0.0360792
0.0356022
0.035124
0.0346518
0.0341933
0.0337567
0.0333501
0.0329816
0.0326588
0.0323894
0.0321801
0.0320371
0.0319656
0.0319701
0.0320537
0.0322184
0.0324651
0.0327929
0.0331997
0.0336816
0.0342333
0.0348476
0.0355157
0.0362274
0.0369705
0.0377316
0.038496
0.039248
0.0399714
0.0406494
0.0412656
0.0418045
0.0422519
0.0425954
0.0428255
0.0429355
0.0429225
0.0427873
0.0425347
0.0421735
0.0417156
0.0411761
0.0405724
0.0399231
0.0392473
0.0385635
0.0378892
0.0372396
0.0366278
0.0360636
0.0355543
0.035104
0.0347144
0.0343845
0.0341115
0.0338911
0.0337177
0.0335853
0.0334873
0.0334178
0.0333707
0.0333409
0.0333238
0.0333159
0.0333138
0.033316
0.0333198
0.0333254
0.0333303
0.0333367
0.0333408
0.033348
0.0333514
0.0333623
0.0333665
0.0333873
0.0333944
0.0334335
0.0419118
0.0419486
0.0419524
0.0419651
0.0419547
0.0419435
0.0419167
0.0418867
0.0418475
0.0418064
0.0417614
0.0417168
0.0416717
0.0416281
0.0415852
0.0415434
0.0415014
0.0414586
0.0414135
0.041365
0.0413116
0.0412518
0.0411843
0.0411076
0.0410202
0.0409204
0.0408062
0.0406757
0.0405263
0.0403556
0.0401608
0.0399391
0.039688
0.0394051
0.0390888
0.0387379
0.0383522
0.0379325
0.0374806
0.0369996
0.0364936
0.0359678
0.0354282
0.0348817
0.0343358
0.0337984
0.0332778
0.0327823
0.0323202
0.0318995
0.0315279
0.0312127
0.0309605
0.0307772
0.0306678
0.0306364
0.0306862
0.0308191
0.0310357
0.0313356
0.0317167
0.0321756
0.0327074
0.0333054
0.0339617
0.0346666
0.0354087
0.0361756
0.0369532
0.0377265
0.0384797
0.0391964
0.0398603
0.0404555
0.0409671
0.041382
0.0416892
0.0418805
0.0419514
0.0419007
0.0417314
0.0414504
0.0410683
0.0405988
0.0400584
0.0394652
0.0388382
0.0381963
0.0375572
0.036937
0.0363494
0.0358053
0.0353126
0.0348766
0.0344994
0.034181
0.0339191
0.0337099
0.0335481
0.0334279
0.0333429
0.0332867
0.0332534
0.0332374
0.0332337
0.0332387
0.0332486
0.0332616
0.0332749
0.0332887
0.0333004
0.0333124
0.0333206
0.0333312
0.0333366
0.0333493
0.0333541
0.0333762
0.0333835
0.0334253
0.0419354
0.0419736
0.0419767
0.0419884
0.0419754
0.0419614
0.0419309
0.0418975
0.041855
0.0418115
0.0417649
0.0417198
0.0416752
0.0416332
0.0415927
0.041554
0.0415157
0.0414767
0.0414353
0.0413902
0.0413396
0.0412816
0.0412146
0.0411365
0.0410453
0.0409387
0.0408139
0.0406682
0.0404984
0.040301
0.0400727
0.0398103
0.039511
0.0391724
0.0387933
0.0383731
0.0379126
0.0374138
0.0368798
0.036315
0.0357248
0.0351155
0.0344943
0.033869
0.0332475
0.0326384
0.0320501
0.031491
0.0309693
0.0304929
0.0300693
0.0297054
0.0294075
0.0291812
0.0290312
0.0289615
0.0289749
0.0290733
0.0292573
0.0295266
0.0298794
0.0303126
0.0308218
0.0314011
0.0320433
0.0327395
0.0334795
0.0342517
0.0350431
0.0358395
0.036626
0.0373868
0.0381057
0.038767
0.0393553
0.0398565
0.0402585
0.0405514
0.0407285
0.0407864
0.0407257
0.0405509
0.0402703
0.0398959
0.0394427
0.0389277
0.0383693
0.0377865
0.0371973
0.0366184
0.0360645
0.0355475
0.0350764
0.0346574
0.0342938
0.0339866
0.0337342
0.0335336
0.0333802
0.0332686
0.0331927
0.0331465
0.0331236
0.0331187
0.0331265
0.033143
0.0331641
0.0331878
0.033211
0.0332338
0.0332532
0.0332718
0.0332855
0.0333005
0.0333092
0.0333245
0.0333307
0.0333542
0.033362
0.033405
0.0419674
0.0420062
0.0420078
0.0420176
0.0420012
0.0419834
0.0419487
0.0419113
0.0418653
0.0418191
0.0417709
0.0417253
0.0416813
0.0416409
0.0416027
0.0415668
0.0415315
0.0414955
0.0414568
0.0414135
0.0413634
0.0413045
0.0412341
0.0411498
0.0410486
0.0409274
0.0407826
0.0406103
0.0404066
0.0401675
0.039889
0.0395678
0.0392013
0.0387879
0.0383271
0.0378196
0.0372676
0.0366745
0.0360449
0.0353847
0.0347004
0.0339996
0.0332901
0.0325803
0.0318786
0.0311938
0.0305342
0.0299083
0.029324
0.028789
0.0283104
0.0278947
0.0275478
0.027275
0.0270807
0.0269683
0.0269407
0.0269994
0.0271453
0.027378
0.0276959
0.0280965
0.028576
0.0291291
0.0297495
0.0304295
0.03116
0.0319305
0.0327295
0.033544
0.0343602
0.0351632
0.0359379
0.0366686
0.0373401
0.0379376
0.038448
0.0388597
0.0391639
0.0393547
0.0394297
0.0393905
0.0392424
0.0389946
0.0386597
0.0382531
0.0377918
0.0372941
0.0367781
0.0362609
0.035758
0.0352823
0.0348442
0.0344511
0.0341075
0.0338156
0.0335749
0.0333834
0.0332374
0.0331323
0.0330625
0.0330225
0.0330064
0.0330088
0.0330245
0.0330493
0.0330789
0.0331111
0.0331425
0.033173
0.0331995
0.0332243
0.0332432
0.0332624
0.0332744
0.0332919
0.0332997
0.0333238
0.0333319
0.0333742
0.0420105
0.0420491
0.042049
0.042056
0.0420358
0.0420135
0.0419741
0.0419322
0.0418824
0.0418332
0.0417831
0.0417367
0.0416929
0.0416535
0.0416169
0.0415828
0.0415492
0.0415144
0.041476
0.0414316
0.0413785
0.0413137
0.0412339
0.0411358
0.0410154
0.0408684
0.0406902
0.0404761
0.0402214
0.0399217
0.0395732
0.0391728
0.0387189
0.0382109
0.0376499
0.0370381
0.0363795
0.035679
0.0349429
0.0341781
0.0333925
0.0325942
0.0317919
0.0309942
0.0302099
0.0294477
0.028716
0.0280229
0.027376
0.0267827
0.0262496
0.0257828
0.0253876
0.0250689
0.0248306
0.0246758
0.024607
0.0246256
0.0247323
0.0249267
0.0252077
0.0255729
0.0260191
0.0265418
0.0271356
0.0277939
0.0285087
0.0292712
0.0300712
0.0308972
0.031737
0.0325772
0.0334036
0.0342016
0.0349563
0.0356532
0.0362782
0.0368187
0.0372638
0.0376052
0.0378374
0.0379584
0.0379701
0.037878
0.0376914
0.0374229
0.0370874
0.0367018
0.0362835
0.0358497
0.0354163
0.0349975
0.0346049
0.0342474
0.0339311
0.0336595
0.0334336
0.0332527
0.0331141
0.0330142
0.0329485
0.032912
0.0328993
0.0329056
0.0329257
0.0329557
0.032991
0.0330294
0.0330672
0.033104
0.0331365
0.0331669
0.0331908
0.0332142
0.0332296
0.0332495
0.033259
0.0332834
0.0332918
0.0333321
0.0420649
0.0421023
0.0420998
0.0421032
0.0420784
0.042051
0.0420064
0.0419597
0.0419058
0.0418536
0.0418015
0.0417541
0.0417101
0.0416711
0.0416351
0.0416015
0.0415677
0.0415317
0.0414904
0.0414408
0.0413793
0.0413021
0.0412049
0.041083
0.0409315
0.0407447
0.0405174
0.040244
0.0399195
0.0395397
0.0391014
0.0386026
0.038043
0.0374238
0.0367477
0.036019
0.0352433
0.0344271
0.0335779
0.032704
0.0318138
0.0309163
0.0300205
0.0291353
0.0282696
0.0274318
0.0266302
0.0258726
0.0251661
0.0245175
0.0239329
0.0234177
0.0229769
0.0226145
0.0223339
0.0221378
0.0220283
0.0220066
0.022073
0.0222274
0.0224686
0.0227947
0.0232028
0.0236893
0.0242497
0.0248783
0.0255686
0.0263132
0.0271035
0.0279299
0.0287818
0.0296476
0.0305149
0.0313705
0.0322005
0.0329911
0.0337283
0.0343989
0.0349907
0.0354929
0.0358975
0.0361988
0.0363946
0.0364864
0.036479
0.0363812
0.0362047
0.0359635
0.0356735
0.0353511
0.0350122
0.0346719
0.0343429
0.0340358
0.0337585
0.0335161
0.0333114
0.0331453
0.0330165
0.0329227
0.0328605
0.0328258
0.0328142
0.0328213
0.0328426
0.0328741
0.0329118
0.0329532
0.0329946
0.0330353
0.033072
0.0331064
0.0331341
0.0331607
0.0331789
0.0332004
0.0332114
0.0332353
0.0332438
0.0332809
0.0421327
0.042168
0.0421628
0.0421616
0.0421319
0.0420987
0.0420488
0.0419969
0.0419388
0.0418833
0.0418289
0.0417799
0.041735
0.0416951
0.0416581
0.0416227
0.041586
0.0415451
0.0414962
0.0414355
0.0413583
0.0412596
0.041134
0.0409755
0.0407778
0.0405345
0.0402396
0.0398873
0.039473
0.0389932
0.0384458
0.0378308
0.0371496
0.0364054
0.0356029
0.0347483
0.0338486
0.0329119
0.0319469
0.0309626
0.0299684
0.0289735
0.0279873
0.0270187
0.0260765
0.0251688
0.0243036
0.023488
0.0227287
0.0220317
0.0214024
0.0208455
0.0203653
0.019965
0.0196475
0.0194149
0.0192688
0.0192101
0.0192389
0.0193549
0.0195571
0.0198436
0.0202122
0.0206598
0.0211825
0.0217759
0.0224347
0.0231528
0.0239232
0.0247381
0.025589
0.0264661
0.0273591
0.0282567
0.0291468
0.0300169
0.0308539
0.0316448
0.032377
0.0330384
0.0336186
0.0341089
0.0345032
0.0347983
0.0349945
0.0350955
0.0351084
0.0350435
0.0349135
0.0347328
0.0345164
0.0342794
0.0340355
0.0337966
0.0335726
0.0333707
0.0331959
0.0330506
0.0329358
0.0328504
0.0327926
0.0327596
0.0327478
0.0327538
0.0327737
0.0328042
0.0328413
0.0328828
0.0329252
0.0329675
0.0330062
0.0330429
0.0330731
0.0331018
0.0331221
0.0331446
0.0331568
0.0331797
0.0331881
0.0332213
0.0422149
0.0422468
0.0422384
0.0422317
0.0421967
0.0421572
0.0421017
0.0420445
0.0419822
0.0419231
0.0418661
0.0418148
0.0417678
0.0417255
0.0416853
0.0416452
0.0416016
0.0415508
0.0414881
0.0414085
0.0413062
0.0411747
0.0410073
0.0407968
0.0405358
0.0402176
0.0398356
0.0393849
0.0388615
0.0382636
0.037591
0.0368456
0.036031
0.0351526
0.0342169
0.0332319
0.0322062
0.031149
0.0300701
0.0289791
0.0278859
0.0268001
0.0257309
0.0246872
0.0236775
0.0227094
0.0217902
0.0209264
0.0201239
0.0193878
0.0187227
0.0181325
0.0176206
0.0171895
0.0168415
0.0165781
0.0164002
0.0163085
0.0163028
0.0163827
0.016547
0.0167942
0.0171223
0.0175287
0.0180103
0.0185634
0.0191838
0.0198668
0.0206069
0.021398
0.0222335
0.0231057
0.0240064
0.0249266
0.0258564
0.0267851
0.0277015
0.0285938
0.0294497
0.0302571
0.0310043
0.0316805
0.0322764
0.0327846
0.0332005
0.0335224
0.0337519
0.033894
0.0339569
0.0339514
0.0338899
0.0337864
0.0336545
0.0335072
0.033356
0.0332103
0.0330774
0.0329623
0.032868
0.0327956
0.0327449
0.0327147
0.0327028
0.0327068
0.0327237
0.0327508
0.0327849
0.0328238
0.0328643
0.0329055
0.032944
0.0329808
0.0330118
0.033041
0.0330622
0.0330847
0.0330975
0.0331188
0.0331269
0.0331556
0.0423133
0.0423405
0.0423286
0.0423156
0.0422751
0.0422289
0.0421678
0.042105
0.0420383
0.0419752
0.0419149
0.0418602
0.0418095
0.0417624
0.0417158
0.0416669
0.0416112
0.041544
0.0414594
0.041351
0.0412117
0.0410336
0.0408086
0.0405286
0.0401856
0.0397729
0.0392845
0.0387165
0.0380668
0.0373355
0.0365247
0.0356386
0.0346831
0.0336655
0.0325945
0.0314793
0.03033
0.0291568
0.0279702
0.0267805
0.0255976
0.0244313
0.0232906
0.0221839
0.021119
0.020103
0.0191423
0.0182424
0.0174084
0.0166444
0.0159541
0.0153405
0.0148062
0.0143529
0.0139822
0.013695
0.0134919
0.0133729
0.0133377
0.0133856
0.0135156
0.0137261
0.0140154
0.0143812
0.0148209
0.0153316
0.0159099
0.0165523
0.0172544
0.0180118
0.0188195
0.0196719
0.0205627
0.0214854
0.0224323
0.0233952
0.024365
0.025332
0.0262856
0.0272145
0.0281072
0.0289521
0.0297379
0.0304541
0.0310919
0.0316444
0.0321075
0.03248
0.0327641
0.0329652
0.0330917
0.0331543
0.0331651
0.033137
0.0330825
0.033013
0.0329381
0.0328655
0.0328011
0.0327483
0.0327093
0.0326848
0.0326741
0.0326764
0.0326896
0.0327121
0.0327413
0.0327756
0.0328121
0.0328499
0.032886
0.0329208
0.0329507
0.032979
0.0329999
0.0330215
0.0330341
0.0330534
0.0330609
0.033085
0.0424288
0.0424498
0.0424341
0.042414
0.0423679
0.0423147
0.042248
0.0421795
0.0421083
0.0420405
0.0419759
0.0419162
0.0418596
0.0418046
0.0417476
0.0416846
0.0416102
0.0415183
0.0414017
0.0412526
0.0410623
0.0408216
0.0405216
0.0401535
0.0397095
0.0391834
0.0385708
0.0378694
0.0370794
0.0362034
0.0352459
0.0342135
0.0331144
0.0319578
0.030754
0.0295137
0.0282481
0.0269681
0.0256848
0.0244086
0.0231494
0.0219167
0.0207188
0.0195637
0.0184581
0.0174083
0.0164196
0.0154965
0.0146431
0.0138625
0.0131574
0.01253
0.0119819
0.0115144
0.0111282
0.0108238
0.0106013
0.0104604
0.0104004
0.0104207
0.01052
0.0106968
0.0109495
0.0112762
0.0116746
0.0121424
0.0126769
0.0132753
0.0139344
0.0146509
0.0154213
0.0162416
0.0171076
0.0180147
0.0189575
0.0199304
0.0209268
0.0219394
0.0229599
0.0239791
0.0249869
0.0259723
0.0269236
0.027829
0.0286767
0.0294558
0.0301568
0.0307724
0.0312981
0.0317326
0.0320782
0.0323405
0.0325279
0.0326514
0.0327228
0.0327547
0.0327588
0.0327457
0.0327239
0.0327004
0.0326799
0.0326656
0.032659
0.032661
0.032671
0.0326885
0.0327117
0.0327398
0.0327704
0.0328028
0.0328342
0.0328652
0.0328922
0.0329178
0.0329371
0.0329567
0.0329684
0.0329851
0.0329918
0.0330115
0.0425628
0.042576
0.0425562
0.0425282
0.0424766
0.0424163
0.0423442
0.0422697
0.0421934
0.0421202
0.0420498
0.0419829
0.0419173
0.0418504
0.0417776
0.0416939
0.0415924
0.0414658
0.0413052
0.0411013
0.0408441
0.0405237
0.0401302
0.0396554
0.039092
0.0384354
0.0376832
0.0368356
0.0358954
0.0348676
0.0337596
0.0325802
0.0313395
0.0300488
0.0287196
0.0273639
0.0259936
0.0246201
0.0232546
0.0219074
0.020588
0.019305
0.0180661
0.0168782
0.015747
0.0146776
0.0136742
0.0127404
0.0118789
0.011092
0.0103816
0.00974903
0.00919512
0.00872051
0.00832545
0.00800993
0.00777365
0.00761606
0.00753637
0.00753359
0.00760651
0.0077537
0.00797358
0.0082644
0.00862423
0.00905106
0.00954272
0.010097
0.0107115
0.0113838
0.0121115
0.0128919
0.0137224
0.0146
0.0155215
0.0164835
0.0174817
0.0185116
0.0195676
0.020643
0.0217301
0.0228199
0.023902
0.0249647
0.0259955
0.0269812
0.0279084
0.0287646
0.029539
0.0302231
0.0308117
0.0313033
0.0317006
0.0320097
0.0322403
0.0324039
0.0325133
0.0325812
0.0326195
0.0326383
0.032646
0.0326487
0.0326508
0.0326553
0.0326636
0.0326765
0.0326935
0.0327145
0.0327378
0.0327633
0.0327885
0.0328139
0.0328363
0.0328578
0.0328742
0.0328908
0.0329008
0.0329148
0.0329204
0.0329361
0.0427157
0.0427193
0.0426953
0.0426589
0.0426019
0.0425344
0.0424568
0.042376
0.042294
0.042214
0.0421359
0.0420589
0.0419804
0.0418964
0.0418014
0.0416888
0.0415504
0.0413771
0.0411587
0.0408845
0.0405435
0.0401252
0.0396203
0.039021
0.0383221
0.0375208
0.0366174
0.035615
0.034519
0.0333374
0.0320798
0.0307574
0.0293822
0.0279669
0.0265242
0.0250669
0.0236072
0.0221567
0.0207262
0.0193254
0.0179629
0.0166466
0.0153828
0.0141772
0.0130345
0.0119585
0.0109521
0.010018
0.00915784
0.00837313
0.00766484
0.0070336
0.00647974
0.00600336
0.00560427
0.00528211
0.00503632
0.00486612
0.00477059
0.00474864
0.00479902
0.00492033
0.00511105
0.00536957
0.00569416
0.00608304
0.0065344
0.00704641
0.00761725
0.00824515
0.0089284
0.00966532
0.0104543
0.0112939
0.0121823
0.0131179
0.0140988
0.0151227
0.0161865
0.0172865
0.0184178
0.0195742
0.0207477
0.0219287
0.0231056
0.0242649
0.0253918
0.0264706
0.0274853
0.0284209
0.0292648
0.0300072
0.0306428
0.0311709
0.0315955
0.0319251
0.0321713
0.0323476
0.0324685
0.0325474
0.0325965
0.0326259
0.0326433
0.0326547
0.0326639
0.0326736
0.0326848
0.0326985
0.0327139
0.0327313
0.0327489
0.0327672
0.0327836
0.0327997
0.0328119
0.0328247
0.0328322
0.0328432
0.0328475
0.0328599
0.0428875
0.0428797
0.0428517
0.0428063
0.0427443
0.0426693
0.0425864
0.0424986
0.0424101
0.0423213
0.0422329
0.0421421
0.0420458
0.0419384
0.0418133
0.041662
0.0414751
0.0412417
0.0409504
0.0405893
0.0401471
0.0396135
0.0389801
0.0382409
0.0373931
0.0364365
0.0353745
0.0342131
0.0329607
0.0316278
0.0302265
0.0287698
0.0272714
0.025745
0.0242043
0.0226622
0.0211309
0.0196215
0.0181441
0.0167074
0.0153189
0.013985
0.0127111
0.0115012
0.010359
0.00928684
0.00828689
0.00736053
0.00650877
0.00573225
0.0050313
0.00440602
0.00385629
0.0033818
0.0029821
0.00265657
0.00240446
0.00222488
0.00211683
0.00207916
0.00211062
0.00220984
0.00237537
0.00260568
0.00289918
0.00325427
0.00366935
0.00414285
0.00467328
0.00525928
0.00589961
0.00659323
0.00733926
0.00813705
0.00898611
0.00988607
0.0108366
0.0118373
0.0128875
0.0139859
0.0151305
0.0163182
0.0175442
0.0188017
0.0200818
0.021373
0.0226611
0.0239296
0.0251599
0.0263326
0.0274284
0.0284297
0.0293221
0.0300961
0.0307476
0.0312786
0.0316966
0.0320138
0.0322453
0.0324074
0.0325159
0.0325852
0.0326275
0.0326522
0.0326665
0.0326755
0.0326822
0.032689
0.0326962
0.032705
0.032714
0.0327242
0.0327333
0.032743
0.03275
0.0327582
0.0327626
0.0327705
0.0327734
0.0327833
0.0430774
0.0430566
0.0430247
0.0429698
0.0429033
0.0428207
0.0427322
0.0426366
0.04254
0.0424402
0.0423381
0.0422289
0.0421089
0.0419705
0.0418059
0.0416049
0.0413565
0.0410484
0.0406682
0.0402034
0.0396432
0.038978
0.0382015
0.0373102
0.0363038
0.0351856
0.0339621
0.0326423
0.0312374
0.0297604
0.0282255
0.0266473
0.0250407
0.02342
0.0217991
0.0201907
0.0186065
0.0170566
0.0155499
0.0140939
0.0126946
0.0113571
0.0100851
0.00888171
0.00774904
0.00668863
0.00570151
0.00478829
0.00394927
0.0031845
0.00249381
0.00187691
0.00133336
0.000862625
0.000464047
0.000136885
-0.000119705
-0.000306662
-0.000425025
-0.00047593
-0.000460606
-0.000380368
-0.000236606
-3.07641e-05
0.000235676
0.000561227
0.000944426
0.00138388
0.00187828
0.0024265
0.00302759
0.00368082
0.00438577
0.00514231
0.00595063
0.00681121
0.00772483
0.00869241
0.00971495
0.0107933
0.0119279
0.0131183
0.014363
0.0156588
0.0170002
0.0183789
0.0197834
0.021199
0.0226072
0.0239869
0.0253147
0.0265667
0.0277203
0.0287561
0.0296602
0.0304251
0.031051
0.0315451
0.0319206
0.0321945
0.0323858
0.0325131
0.0325932
0.0326404
0.0326658
0.0326778
0.0326822
0.0326832
0.0326826
0.0326825
0.0326825
0.0326839
0.0326849
0.0326872
0.0326882
0.0326913
0.032692
0.0326969
0.0326982
0.0327064
0.043284
0.0432485
0.0432129
0.0431483
0.0430776
0.0429872
0.0428927
0.0427881
0.0426815
0.0425676
0.0424476
0.0423144
0.0421636
0.0419855
0.041771
0.0415079
0.0411841
0.0407859
0.0403007
0.0397162
0.0390224
0.0382119
0.0372807
0.0362283
0.035058
0.0337763
0.0323928
0.0309196
0.0293706
0.027761
0.0261063
0.0244226
0.0227252
0.0210287
0.0193466
0.0176908
0.0160719
0.0144986
0.0129785
0.0115174
0.0101199
0.00878957
0.00752885
0.00633948
0.00522258
0.00417874
0.00320821
0.00231095
0.00148672
0.00073514
5.57404e-05
-0.000552038
-0.00108881
-0.00155526
-0.00195211
-0.00228015
-0.00254025
-0.00273334
-0.00286044
-0.00292263
-0.00292111
-0.00285711
-0.00273195
-0.002547
-0.00230366
-0.00200332
-0.00164736
-0.00123706
-0.000773638
-0.000258105
0.000308713
0.000926259
0.00159429
0.00231292
0.00308268
0.0039045
0.00477975
0.00571018
0.00669788
0.0077451
0.00885408
0.0100268
0.0112643
0.0125668
0.0139324
0.0153569
0.0168327
0.0183486
0.0198889
0.0214335
0.0229584
0.0244362
0.0258383
0.0271366
0.0283066
0.0293299
0.030196
0.0309034
0.0314596
0.0318794
0.0321827
0.0323913
0.032527
0.0326093
0.0326544
0.0326751
0.0326805
0.0326776
0.0326702
0.0326615
0.0326523
0.0326444
0.0326368
0.0326313
0.0326256
0.0326232
0.0326198
0.0326217
0.0326214
0.0326287
0.0435046
0.0434528
0.0434139
0.0433394
0.0432648
0.0431662
0.0430651
0.0429498
0.0428306
0.0426989
0.042556
0.0423924
0.0422026
0.0419748
0.0416988
0.0413604
0.0409467
0.0404433
0.0398378
0.0391188
0.0382784
0.0373116
0.0362177
0.0349997
0.0336643
0.0322215
0.0306841
0.0290668
0.0273859
0.0256581
0.0239004
0.0221292
0.02036
0.0186067
0.0168819
0.0151965
0.0135592
0.0119776
0.0104572
0.00900229
0.00761609
0.00630063
0.00505721
0.00388649
0.00278868
0.00176365
0.000811039
-6.96479e-05
-0.000879006
-0.00161767
-0.00228632
-0.00288562
-0.00341627
-0.00387899
-0.0042745
-0.00460358
-0.00486707
-0.00506583
-0.00520083
-0.00527309
-0.00528371
-0.00523385
-0.00512477
-0.00495773
-0.00473405
-0.00445507
-0.00412207
-0.00373629
-0.00329887
-0.0028108
-0.00227284
-0.00168554
-0.00104908
-0.000363294
0.000372412
0.00115912
0.00199842
0.00289244
0.00384379
0.00485555
0.00593108
0.00707388
0.00828725
0.00957386
0.0109352
0.0123709
0.0138778
0.0154492
0.0170739
0.0187356
0.0204125
0.0220773
0.0236987
0.0252429
0.0266765
0.0279695
0.0290992
0.0300522
0.0308261
0.0314292
0.0318788
0.0321981
0.0324125
0.0325471
0.0326238
0.032661
0.0326725
0.0326686
0.0326559
0.0326394
0.0326213
0.0326041
0.0325876
0.032574
0.0325613
0.0325531
0.0325453
0.0325443
0.0325423
0.0325493
0.0437354
0.043666
0.0436243
0.0435398
0.0434615
0.0433541
0.0432453
0.0431171
0.0429823
0.0428282
0.0426567
0.042455
0.0422172
0.0419291
0.0415792
0.0411519
0.0406339
0.0400108
0.039271
0.0384051
0.0374079
0.0362776
0.035017
0.0336328
0.0321354
0.0305382
0.0288567
0.0271082
0.0253105
0.0234817
0.0216392
0.0197994
0.0179771
0.0161852
0.014435
0.0127354
0.0110938
0.00951565
0.00800496
0.00656445
0.00519582
0.00389993
0.00267703
0.00152693
0.000449153
-0.000556961
-0.00149217
-0.00235727
-0.00315305
-0.00388029
-0.00453971
-0.00513202
-0.00565791
-0.00611806
-0.00651315
-0.0068439
-0.00711104
-0.00731539
-0.00745782
-0.00753925
-0.00756071
-0.00752327
-0.00742808
-0.00727634
-0.00706928
-0.00680817
-0.00649423
-0.00612867
-0.00571257
-0.00524692
-0.0047325
-0.00416987
-0.00355928
-0.00290063
-0.00219338
-0.00143654
-0.000628539
0.000232759
0.0011501
0.00212686
0.00316693
0.00427469
0.00545473
0.00671158
0.00804926
0.00947063
0.0109766
0.0125653
0.0142306
0.0159615
0.017741
0.0195452
0.0213439
0.0231013
0.0247785
0.0263362
0.0277393
0.0289607
0.0299846
0.0308085
0.0314425
0.031907
0.0322291
0.0324385
0.0325632
0.032628
0.0326526
0.032652
0.0326364
0.0326135
0.032587
0.0325609
0.0325354
0.0325136
0.0324937
0.0324797
0.0324674
0.0324637
0.0324598
0.0324672
0.0439715
0.0438834
0.0438394
0.0437447
0.0436629
0.0435458
0.0434278
0.043284
0.0431298
0.0429482
0.0427413
0.0424935
0.0421979
0.0418379
0.0414016
0.040872
0.0402361
0.0394801
0.0385944
0.0375721
0.0364113
0.0351139
0.0336866
0.0321399
0.0304876
0.0287462
0.0269339
0.0250695
0.0231723
0.0212608
0.0193523
0.0174624
0.0156047
0.0137907
0.0120297
0.0103289
0.00869373
0.00712788
0.00563375
0.00421264
0.002865
0.00159068
0.000389128
-0.000740489
-0.00179912
-0.00278778
-0.00370746
-0.00455908
-0.00534352
-0.00606156
-0.00671392
-0.00730127
-0.00782421
-0.00828336
-0.0086793
-0.00901265
-0.00928407
-0.00949426
-0.00964399
-0.0097341
-0.0097655
-0.00973918
-0.0096562
-0.00951767
-0.00932475
-0.00907861
-0.00878045
-0.00843139
-0.00803253
-0.00758483
-0.00708912
-0.00654599
-0.0059558
-0.00531856
-0.00463391
-0.00390103
-0.00311856
-0.00228455
-0.00139642
-0.00045089
0.000556015
0.00162893
0.00277306
0.00399398
0.00529734
0.00668836
0.00817121
0.00974807
0.011418
0.0131758
0.0150105
0.016904
0.0188306
0.0207566
0.0226418
0.0244416
0.026111
0.0276095
0.0289062
0.0299837
0.03084
0.031488
0.0319523
0.0322649
0.0324591
0.0325668
0.0326145
0.0326234
0.0326086
0.0325811
0.0325474
0.0325127
0.0324786
0.0324488
0.0324216
0.0324018
0.0323849
0.0323784
0.0323727
0.0323807
0.0442068
0.0440992
0.0440534
0.0439483
0.0438627
0.0437348
0.0436056
0.0434431
0.0432651
0.0430502
0.0428007
0.0424978
0.0421341