/*--------------------------------*- C++ -*----------------------------------*\
| =========                 |                                                 |
| \\      /  F ield         | OpenFOAM: The Open Source CFD Toolbox           |
|  \\    /   O peration     | Version:  2406                                  |
|   \\  /    A nd           | Website:  www.openfoam.com                      |
|    \\/     M anipulation  |                                                 |
\*---------------------------------------------------------------------------*/
FoamFile
{
    version     2.0;
    format      ascii;
    arch        "LSB;label=32;scalar=64";
    class       volScalarField;
    location    "45.8";
    object      p;
}
// * * * * * * * * * * * * * * * * * * * * * * * * * * * * * * * * * * * * * //

dimensions      [0 2 -2 0 0 0 0];

internalField   nonuniform List<scalar> 
900
(
2.85781e-06
7.19715e-05
-0.000104813
-0.000246016
-0.000450552
-0.000621768
-0.00086764
-0.00119319
-0.00175523
-0.0025098
-0.00319467
-0.00356963
-0.00362912
-0.00356945
-0.00340761
-0.00289721
-0.0018195
9.72785e-06
0.00248646
0.00546526
0.00827408
0.0104984
0.0110881
0.010234
0.00774666
0.00566362
0.00412156
0.00398423
0.00362633
0.0038293
-4.37239e-05
2.36104e-05
-0.000149326
-0.00025887
-0.000417755
-0.000535144
-0.000737399
-0.00101168
-0.00131858
-0.00172807
-0.00248203
-0.00331009
-0.00384517
-0.00415464
-0.00424944
-0.00391692
-0.00297894
-0.00127665
0.00107828
0.00394959
0.0066985
0.00891643
0.00958275
0.0088379
0.00649796
0.00465625
0.0034382
0.00373977
0.00361543
0.00391557
1.14199e-05
3.63069e-05
-0.000191191
-0.000325261
-0.000455717
-0.0005428
-0.000668918
-0.000892623
-0.00156479
-0.00267241
-0.00397266
-0.00529539
-0.00643124
-0.00727868
-0.00771952
-0.00758064
-0.00675648
-0.00513285
-0.00283338
5.36394e-05
0.00296748
0.00555611
0.00686548
0.00683893
0.00517563
0.00366906
0.00253232
0.00301098
0.00295356
0.00327686
0.000205024
0.000139619
-0.000134706
-0.000277879
-0.000365755
-0.000453877
-0.000826842
-0.00164559
-0.0029299
-0.00469379
-0.00675264
-0.00877502
-0.0104918
-0.0117822
-0.0125575
-0.0126958
-0.0121587
-0.0108383
-0.00886064
-0.00619728
-0.00330026
-0.000311136
0.00194162
0.00331849
0.00335068
0.00292054
0.00251183
0.00286105
0.00265032
0.00293167
0.000503476
0.000292495
-4.33324e-05
-0.000254263
-0.000449297
-0.000925617
-0.00192271
-0.00361012
-0.00592756
-0.00859485
-0.0112749
-0.0137257
-0.0157501
-0.017253
-0.01819
-0.0184862
-0.0181717
-0.0171355
-0.0155311
-0.0132036
-0.0105378
-0.00738424
-0.00444153
-0.00165419
0.000282392
0.00163515
0.0022187
0.00284578
0.00220511
0.00242669
0.00120324
0.000851155
0.000472953
4.35838e-05
-0.000574983
-0.00180704
-0.00382948
-0.00658753
-0.00974194
-0.0129785
-0.0159895
-0.0185863
-0.0206616
-0.0221714
-0.0231377
-0.0235066
-0.0233716
-0.0225959
-0.0213871
-0.0194758
-0.017261
-0.0143128
-0.0112737
-0.00768823
-0.0043073
-0.00106474
0.00113942
0.00289972
0.00168916
0.00208642
0.0020058
0.00151081
0.00101968
0.000158377
-0.00118888
-0.00349694
-0.00661547
-0.010274
-0.013994
-0.0174819
-0.0205139
-0.0230108
-0.0249542
-0.0263376
-0.0272342
-0.0275842
-0.0275341
-0.0269043
-0.0259731
-0.0243711
-0.0225832
-0.0199616
-0.0172262
-0.0134988
-0.00959747
-0.00526099
-0.000947082
0.00105137
0.00179369
0.00117188
0.00295913
0.00234656
0.00161859
8.99623e-05
-0.00224456
-0.0056789
-0.0097288
-0.0139645
-0.0179218
-0.0214144
-0.0243287
-0.0266666
-0.0284774
-0.0297592
-0.0306248
-0.030979
-0.0310201
-0.0305014
-0.0297824
-0.0283826
-0.0269121
-0.0245416
-0.0221742
-0.0185752
-0.0148087
-0.00985854
-0.0045106
-0.00127037
0.00227142
-0.000184527
0.00331066
0.00258696
0.00153318
-0.000730569
-0.00401878
-0.00838456
-0.013043
-0.0175489
-0.0215119
-0.0248732
-0.02761
-0.0297811
-0.0314704
-0.0326622
-0.0335006
-0.0338442
-0.0339502
-0.0334949
-0.0329333
-0.0316627
-0.030437
-0.0282451
-0.0262123
-0.0228194
-0.0194551
-0.0144302
-0.00908452
-0.00390596
-0.00012299
-0.00107152
0.00306412
0.0022506
0.00081334
-0.0021231
-0.00619739
-0.0111685
-0.0161156
-0.0206442
-0.0244922
-0.0276898
-0.0302852
-0.032345
-0.0339749
-0.0351235
-0.0359705
-0.0363155
-0.0364867
-0.0360692
-0.0356288
-0.0344281
-0.0333819
-0.0312945
-0.0295309
-0.0263119
-0.0233745
-0.0185196
-0.0133732
-0.0071406
-0.00205275
-0.000155498
0.00189154
0.00101837
-0.000740022
-0.00417258
-0.00875501
-0.0140373
-0.0190347
-0.0234585
-0.0271418
-0.0301809
-0.0326602
-0.0346326
-0.036219
-0.037325
-0.0381756
-0.0385033
-0.0387219
-0.038313
-0.037969
-0.0368014
-0.0358984
-0.0338635
-0.0323058
-0.0291988
-0.0266378
-0.0220004
-0.017249
-0.0104561
-0.00342372
0.000173254
0.00020586
-0.000687352
-0.00270809
-0.00642037
-0.0112571
-0.0165775
-0.021465
-0.0257064
-0.0292311
-0.0321446
-0.0345617
-0.0364876
-0.0380712
-0.0391566
-0.0400306
-0.0403435
-0.0406109
-0.0401969
-0.0399379
-0.0387832
-0.0380095
-0.03601
-0.0346388
-0.0316208
-0.0294003
-0.0250539
-0.0209691
-0.0143982
-0.00703502
-0.00255218
-0.00189608
-0.00277653
-0.00495538
-0.00879221
-0.0136965
-0.01894
-0.0236639
-0.027732
-0.0311209
-0.0339357
-0.0363066
-0.0381876
-0.039765
-0.0408136
-0.041698
-0.041972
-0.0422701
-0.0418222
-0.0416249
-0.0404517
-0.0397819
-0.0377888
-0.0365785
-0.0336198
-0.0316965
-0.0276059
-0.024237
-0.0182866
-0.0116345
-0.00713177
-0.00392285
-0.00475398
-0.00703725
-0.0108425
-0.0156887
-0.0207382
-0.0252745
-0.0291647
-0.0324533
-0.0351966
-0.0375598
-0.0394205
-0.0410242
-0.0420553
-0.042975
-0.0432206
-0.0435623
-0.0430802
-0.0429457
-0.0417458
-0.041174
-0.0391787
-0.0381217
-0.0352153
-0.0335698
-0.0297257
-0.0270684
-0.021845
-0.0163564
-0.0121294
-0.00579032
-0.00656454
-0.00888616
-0.0126234
-0.017363
-0.0222513
-0.026642
-0.0304146
-0.0336391
-0.0363323
-0.0386943
-0.0405263
-0.0421496
-0.0431439
-0.0440876
-0.0442817
-0.0446509
-0.0441069
-0.0440117
-0.0427523
-0.0422486
-0.0402161
-0.0392806
-0.0363872
-0.0349701
-0.0312914
-0.0292363
-0.024693
-0.0204806
-0.0167143
-0.00718032
-0.00786402
-0.0102035
-0.0137855
-0.0183934
-0.0230749
-0.0273441
-0.0310007
-0.0341943
-0.036851
-0.0392437
-0.0410677
-0.0427457
-0.0437279
-0.0447287
-0.0448918
-0.045312
-0.0447166
-0.0446697
-0.043349
-0.0429072
-0.0408246
-0.0399945
-0.0370939
-0.035882
-0.032314
-0.030767
-0.0267201
-0.0236496
-0.0203054
-0.00821627
-0.00881437
-0.011105
-0.0145547
-0.0190204
-0.0235782
-0.0277832
-0.0313965
-0.0345965
-0.0372367
-0.0396688
-0.0414763
-0.0432073
-0.0441602
-0.045212
-0.0453229
-0.0457812
-0.0451079
-0.0450859
-0.0436684
-0.0432519
-0.0410713
-0.0402955
-0.0373217
-0.036246
-0.0326849
-0.0315291
-0.0278072
-0.0257363
-0.0227304
-0.00874473
-0.00919931
-0.0114079
-0.0146251
-0.0189449
-0.0233149
-0.0274783
-0.0310305
-0.0342665
-0.0368979
-0.0394033
-0.0412173
-0.0430402
-0.0439932
-0.0451329
-0.0452185
-0.0457419
-0.0450075
-0.0450219
-0.0435096
-0.0431111
-0.0408164
-0.0400708
-0.0369882
-0.0360147
-0.0323855
-0.0315439
-0.0279467
-0.0267101
-0.023899
-0.00909669
-0.00940408
-0.0113983
-0.0143921
-0.0184908
-0.0227386
-0.0268811
-0.0304418
-0.0337512
-0.0363978
-0.038996
-0.0408122
-0.0427363
-0.0436763
-0.0449067
-0.0449493
-0.0455309
-0.0447102
-0.0447393
-0.0430938
-0.0426713
-0.0402037
-0.0394223
-0.0361446
-0.0351897
-0.0313754
-0.0307622
-0.0271171
-0.0266149
-0.0238415
-0.00908858
-0.00915202
-0.010891
-0.0134865
-0.0173525
-0.0213372
-0.025463
-0.0289816
-0.0323977
-0.0350723
-0.0378095
-0.0396615
-0.041731
-0.042694
-0.0440502
-0.04408
-0.0447421
-0.0438537
-0.0439032
-0.0421261
-0.0416654
-0.0390045
-0.0381528
-0.0346343
-0.0336535
-0.0295748
-0.0291457
-0.0252905
-0.0254742
-0.0225665
-0.00913759
-0.00897398
-0.0103191
-0.0125135
-0.0159421
-0.0196779
-0.0237188
-0.0272429
-0.0307977
-0.0335318
-0.0364501
-0.0383455
-0.0405918
-0.041574
-0.0430775
-0.043083
-0.0438337
-0.0428553
-0.0429137
-0.0409655
-0.0404278
-0.0375091
-0.0365169
-0.0326613
-0.0315646
-0.0270955
-0.0267877
-0.022545
-0.0233939
-0.0201238
-0.00870054
-0.00824022
-0.00932827
-0.0108842
-0.0139133
-0.0171429
-0.0210886
-0.0245154
-0.0282487
-0.031068
-0.0342357
-0.0362342
-0.0387117
-0.0397655
-0.0414462
-0.0414659
-0.0423133
-0.0412672
-0.041322
-0.0392041
-0.0385557
-0.0353532
-0.0341656
-0.0299178
-0.0286423
-0.0237028
-0.0234878
-0.0187193
-0.0203038
-0.0164254
-0.0084439
-0.00794693
-0.00861298
-0.00962499
-0.0118261
-0.0145109
-0.018122
-0.0214398
-0.0253485
-0.0282856
-0.0317789
-0.0339136
-0.0366976
-0.0378389
-0.0397564
-0.0397874
-0.0407743
-0.0396393
-0.0397135
-0.0373846
-0.0366214
-0.0330718
-0.0316528
-0.0269266
-0.0254123
-0.0198868
-0.0197133
-0.0142059
-0.0164864
-0.0115301
-0.00760671
-0.00708797
-0.00751211
-0.00769529
-0.00923496
-0.0109787
-0.0142748
-0.0173082
-0.0214266
-0.0245069
-0.0284018
-0.0307633
-0.0339133
-0.0352265
-0.0373988
-0.037507
-0.0386137
-0.0374377
-0.0374818
-0.034968
-0.0340157
-0.0301118
-0.0283658
-0.0231076
-0.021244
-0.0150319
-0.0148104
-0.00839574
-0.0114572
-0.00490018
-0.0073308
-0.00737145
-0.00714245
-0.00685511
-0.0068955
-0.00771846
-0.0102081
-0.0128885
-0.017124
-0.0203512
-0.0247359
-0.0273743
-0.0310158
-0.0325382
-0.0350841
-0.0352694
-0.0366091
-0.0353549
-0.0354856
-0.0327225
-0.0317087
-0.0273785
-0.0254436
-0.019595
-0.0174988
-0.0105415
-0.0102415
-0.00268773
-0.00604598
0.00351335
-0.00662656
-0.00638249
-0.00617852
-0.0047053
-0.00402183
-0.00346634
-0.00545998
-0.00761808
-0.0120196
-0.0153936
-0.0202775
-0.0232709
-0.0274043
-0.0292402
-0.0321286
-0.0325054
-0.0340047
-0.0327995
-0.0329001
-0.0300289
-0.0287912
-0.024166
-0.0218226
-0.0154377
-0.0128053
-0.00495898
-0.00410086
0.00502744
0.00204801
0.0159766
-0.00581367
-0.00734574
-0.00613202
-0.00445386
-0.00167007
-0.000148888
-0.000954265
-0.00265509
-0.00704438
-0.010546
-0.0159578
-0.0193185
-0.0240483
-0.0262055
-0.0295844
-0.0301124
-0.0319762
-0.0307136
-0.0310856
-0.0279373
-0.0269321
-0.0218138
-0.0197209
-0.0126288
-0.0102132
-0.00132092
-0.000133141
0.0109517
0.0102649
0.0340829
-0.00641697
-0.00563738
-0.00507451
-0.000900267
0.00178472
0.00445348
0.00362519
0.00229987
-0.00226361
-0.00589417
-0.0116773
-0.0153836
-0.0205288
-0.0230432
-0.0267534
-0.027558
-0.0296159
-0.0285371
-0.0289467
-0.0259087
-0.0247539
-0.0196709
-0.017141
-0.00986273
-0.00641158
0.00348089
0.00724248
0.0220025
0.0308653
0.0694895
-0.000533539
-0.00707596
-0.00507659
-0.00211068
0.00335806
0.00648352
0.00678092
0.00552617
0.00101485
-0.00277519
-0.00891649
-0.0129017
-0.0184815
-0.0212486
-0.0253642
-0.0262948
-0.0287381
-0.0276062
-0.0284529
-0.0251394
-0.0245947
-0.0189452
-0.0173399
-0.00905112
-0.00675386
0.00520125
0.00931023
0.0312437
0.0507542
0.117496
-0.0213769
-0.00388629
-0.000316069
0.00380334
0.00736602
0.00997369
0.00882933
0.00731825
0.00251923
-0.00132777
-0.00746033
-0.0115186
-0.0171027
-0.0199869
-0.0241426
-0.0252102
-0.0276855
-0.0267097
-0.0275181
-0.0244152
-0.0236414
-0.0183064
-0.0159143
-0.00786947
-0.00275995
0.011053
0.0267772
0.0649875
0.128335
0.24318
)
;

boundaryField
{
    movingWall
    {
        type            zeroGradient;
    }
    fixedWalls
    {
        type            zeroGradient;
    }
    frontAndBack
    {
        type            empty;
    }
}


// ************************************************************************* //
