/*--------------------------------*- C++ -*----------------------------------*\
| =========                 |                                                 |
| \\      /  F ield         | OpenFOAM: The Open Source CFD Toolbox           |
|  \\    /   O peration     | Version:  2406                                  |
|   \\  /    A nd           | Website:  www.openfoam.com                      |
|    \\/     M anipulation  |                                                 |
\*---------------------------------------------------------------------------*/
FoamFile
{
    version     2.0;
    format      ascii;
    arch        "LSB;label=32;scalar=64";
    class       volScalarField;
    location    "48.5";
    object      p;
}
// * * * * * * * * * * * * * * * * * * * * * * * * * * * * * * * * * * * * * //

dimensions      [0 2 -2 0 0 0 0];

internalField   nonuniform List<scalar> 
3600
(
0.0411842
0.0412186
0.0412074
0.0411926
0.0411229
0.0410493
0.0409431
0.0408419
0.0407206
0.0405967
0.0404457
0.0402732
0.0400607
0.0398106
0.0395118
0.039166
0.0387679
0.0383214
0.0378291
0.037303
0.0367609
0.0362321
0.035754
0.03537
0.0351247
0.0350589
0.0352049
0.0355825
0.0361966
0.0370334
0.0380586
0.0392144
0.0404202
0.0415754
0.0425658
0.0432758
0.043602
0.0434729
0.0428601
0.0417937
0.0403539
0.0386693
0.0368823
0.0351395
0.0335507
0.0321985
0.0311096
0.0302927
0.0297101
0.0293335
0.0291002
0.0289838
0.0289258
0.0289234
0.0289287
0.0289637
0.0289842
0.02903
0.0290518
0.0290894
0.0411519
0.0411874
0.0411682
0.0411537
0.041088
0.041025
0.0409313
0.0408439
0.0407357
0.0406249
0.0404877
0.0403313
0.0401385
0.0399126
0.0396423
0.0393285
0.0389638
0.0385495
0.0380869
0.0375867
0.0370638
0.0365411
0.0360486
0.0356249
0.035315
0.035164
0.0352116
0.0354849
0.0359954
0.036734
0.0376698
0.0387478
0.0398891
0.040994
0.0419485
0.0426365
0.0429529
0.0428244
0.0422206
0.0411712
0.0397576
0.0381119
0.0363802
0.0347122
0.0332166
0.0319712
0.0309923
0.0302765
0.0297748
0.0294528
0.0292474
0.0291376
0.0290714
0.0290534
0.029039
0.029055
0.029055
0.0290848
0.0290895
0.0291273
0.0411548
0.0412012
0.0411794
0.0411627
0.0410911
0.041026
0.0409338
0.0408526
0.0407542
0.0406545
0.0405291
0.0403834
0.0402006
0.0399824
0.0397163
0.0393997
0.0390227
0.0385821
0.0380732
0.0374998
0.0368749
0.0362276
0.0356003
0.0350444
0.0346143
0.03436
0.0343236
0.0345327
0.0349987
0.0357121
0.0366418
0.037732
0.0389036
0.0400563
0.0410746
0.0418388
0.0422386
0.0421922
0.0416605
0.0406643
0.0392798
0.0376391
0.0358952
0.0342093
0.0327037
0.0314671
0.0305214
0.0298627
0.029435
0.029194
0.0290655
0.0290207
0.0290029
0.0290181
0.029023
0.0290508
0.029054
0.0290884
0.0290911
0.0291434
0.0411597
0.0412111
0.0411819
0.0411588
0.0410816
0.0410179
0.0409347
0.0408687
0.0407901
0.040711
0.0406062
0.040478
0.0403085
0.0400945
0.0398189
0.0394702
0.0390299
0.038486
0.0378341
0.037086
0.0362687
0.0354223
0.0345976
0.0338502
0.0332381
0.032813
0.0326187
0.0326837
0.0330212
0.033624
0.0344649
0.0354932
0.0366366
0.0378013
0.0388771
0.0397464
0.0402957
0.0404343
0.0401083
0.0393206
0.0381302
0.0366566
0.0350479
0.033468
0.0320477
0.0308861
0.0300137
0.0294318
0.0290851
0.028927
0.0288777
0.0289033
0.0289416
0.0289977
0.0290274
0.0290692
0.0290748
0.0291106
0.0291075
0.0291687
0.0412089
0.0412603
0.0412208
0.0411838
0.0410946
0.0410244
0.0409441
0.0408858
0.0408197
0.0407505
0.0406512
0.040516
0.0403219
0.0400533
0.0396828
0.0391863
0.038543
0.0377464
0.0368073
0.0357528
0.0346273
0.033485
0.0323884
0.0313987
0.0305751
0.0299664
0.0296132
0.0295403
0.02976
0.030266
0.0310356
0.032025
0.0331718
0.0343926
0.0355878
0.0366462
0.0374546
0.0379128
0.0379479
0.0375347
0.0367014
0.0355389
0.0341774
0.0327754
0.0314712
0.030379
0.0295471
0.0289931
0.0286742
0.0285519
0.0285492
0.0286296
0.0287247
0.0288338
0.0289073
0.0289828
0.0290107
0.0290618
0.0290646
0.0291331
0.0412842
0.0413272
0.0412739
0.0412183
0.0411191
0.0410441
0.0409707
0.0409206
0.0408646
0.0407954
0.0406825
0.040505
0.0402289
0.0398204
0.0392443
0.0384743
0.0375025
0.036339
0.0350174
0.0335841
0.0320997
0.0306259
0.0292286
0.0279666
0.0268963
0.0260619
0.0255006
0.025234
0.0252743
0.025617
0.0262456
0.0271257
0.0282094
0.0294298
0.030706
0.0319428
0.0330378
0.0338901
0.0344129
0.0345509
0.0342913
0.0336784
0.032802
0.0317942
0.0307856
0.029898
0.0291974
0.028721
0.0284451
0.0283465
0.0283607
0.028459
0.0285767
0.028711
0.0288101
0.028907
0.0289513
0.0290113
0.0290185
0.029085
0.0414128
0.0414383
0.041368
0.0412865
0.0411745
0.041087
0.0410111
0.0409514
0.0408801
0.040771
0.0405865
0.0402817
0.0398103
0.0391238
0.0381934
0.0370052
0.0355781
0.0339468
0.0321703
0.0303108
0.0284415
0.0266286
0.0249399
0.0234294
0.0221477
0.0211292
0.0204032
0.0199835
0.0198781
0.0200808
0.0205788
0.0213456
0.0223466
0.0235329
0.0248463
0.0262148
0.027558
0.0287886
0.0298204
0.0305796
0.0310151
0.0311163
0.030913
0.0304846
0.0299299
0.0293639
0.0288679
0.0285052
0.0282809
0.0281962
0.0282067
0.0282967
0.0284114
0.0285499
0.0286613
0.0287723
0.0288327
0.0289017
0.028917
0.0289776
0.0415967
0.0415946
0.041508
0.0413979
0.0412759
0.0411717
0.0410857
0.0409954
0.0408746
0.0406686
0.04033
0.039787
0.0389908
0.0378924
0.0364878
0.0347883
0.0328465
0.0307208
0.0284923
0.0262339
0.0240257
0.0219306
0.0200106
0.0183087
0.0168646
0.015701
0.0148379
0.0142808
0.0140335
0.0140876
0.0144329
0.0150488
0.0159122
0.0169902
0.0182461
0.0196337
0.021101
0.0225874
0.0240264
0.0253489
0.0264882
0.0273921
0.0280283
0.0284019
0.0285453
0.0285283
0.0284209
0.0283015
0.0282084
0.028177
0.028195
0.0282679
0.0283593
0.0284755
0.0285738
0.0286761
0.0287363
0.0288017
0.028819
0.0288678
0.0418457
0.0418052
0.0417031
0.0415581
0.0414218
0.0412842
0.0411621
0.0409961
0.0407605
0.0403641
0.0397525
0.0388343
0.0375765
0.0359472
0.033982
0.0317231
0.0292579
0.0266647
0.0240415
0.0214633
0.0190093
0.0167316
0.0146812
0.0128853
0.0113709
0.0101468
0.00922319
0.00859696
0.00826716
0.00822221
0.00845275
0.0089409
0.00967064
0.0106194
0.0117659
0.0130841
0.0145475
0.0161244
0.0177789
0.0194676
0.0211379
0.0227303
0.0241786
0.0254244
0.0264193
0.0271504
0.0276298
0.0279144
0.0280612
0.0281447
0.0281987
0.0282633
0.0283286
0.0284126
0.0284854
0.0285667
0.0286171
0.0286723
0.0286885
0.0287253
0.0421692
0.0420819
0.0419696
0.0417868
0.0416318
0.0414402
0.0412477
0.0409469
0.0405125
0.0398149
0.0388052
0.0373891
0.0355709
0.0333497
0.0308083
0.0280179
0.025096
0.0221302
0.0192246
0.0164445
0.0138583
0.0114994
0.00940391
0.00758185
0.00604868
0.0048019
0.00384567
0.00317101
0.00277514
0.00264499
0.00277267
0.00314225
0.00374236
0.00455623
0.00557177
0.00677442
0.00815425
0.00970037
0.0114035
0.0132503
0.0152192
0.017275
0.0193601
0.0213957
0.0232802
0.0249135
0.0262094
0.0271411
0.0277305
0.0280653
0.0282306
0.02832
0.0283693
0.0284178
0.0284547
0.0285014
0.0285285
0.0285632
0.0285714
0.0285958
0.0425469
0.0424053
0.0422858
0.0420553
0.0418652
0.0415824
0.0412633
0.0407445
0.040006
0.0388864
0.0373627
0.0353569
0.0329277
0.0301111
0.0270362
0.023796
0.0205265
0.0173113
0.0142478
0.0113813
0.00876377
0.00640773
0.00433507
0.00254135
0.00103394
-0.000197663
-0.00115255
-0.00184319
-0.00227258
-0.0024545
-0.00239529
-0.0021097
-0.00160624
-0.000898846
4.7829e-06
0.00109524
0.00237018
0.00382902
0.00547773
0.00732383
0.00937445
0.0116281
0.014063
0.0166265
0.0192198
0.0217038
0.0239087
0.0256884
0.0269572
0.0277447
0.0281524
0.0283332
0.0283949
0.028418
0.0284201
0.028429
0.0284275
0.0284383
0.0284353
0.0284505
0.0429769
0.0427785
0.0426558
0.0423675
0.0421201
0.0417007
0.0411876
0.0403587
0.0392101
0.0375651
0.0354492
0.0328168
0.0297892
0.0264365
0.0229259
0.019357
0.0158691
0.0125269
0.00941119
0.00654153
0.00395259
0.00163775
-0.000391019
-0.00214844
-0.00363054
-0.0048521
-0.00581204
-0.00652388
-0.00698891
-0.00722035
-0.00722218
-0.00700772
-0.00658288
-0.00595978
-0.00514366
-0.004142
-0.00295472
-0.00157959
-5.91172e-06
0.00178199
0.00380582
0.00608761
0.00864093
0.0114567
0.0144819
0.0176023
0.0206318
0.0233391
0.0255021
0.0270045
0.0278749
0.0282798
0.0284129
0.0284322
0.0284053
0.0283754
0.0283414
0.0283251
0.0283076
0.0283156
0.0433947
0.0431378
0.0430085
0.042643
0.042302
0.0416873
0.0409008
0.0396681
0.0380175
0.0357773
0.0330394
0.0297987
0.0262374
0.0224496
0.0186254
0.0148539
0.0112638
0.00789088
0.00479584
0.00197297
-0.000556269
-0.00281285
-0.00478953
-0.00650719
-0.00796192
-0.00917056
-0.0101304
-0.0108552
-0.0113443
-0.0116103
-0.0116549
-0.0114904
-0.0111205
-0.0105562
-0.0098012
-0.00886238
-0.0077394
-0.00643042
-0.00492539
-0.00320837
-0.00125475
0.000966522
0.00348883
0.00633791
0.00951342
0.0129624
0.0165502
0.0200458
0.0231471
0.0255704
0.0271683
0.0280145
0.0283357
0.0283969
0.0283578
0.0282949
0.0282307
0.0281887
0.0281564
0.0281599
0.0437751
0.0434622
0.0433203
0.0428567
0.0423812
0.041511
0.0403753
0.0386614
0.0364485
0.0335889
0.030251
0.0264691
0.0224764
0.0183744
0.0143588
0.010493
0.00688567
0.00354049
0.000500085
-0.00226228
-0.00473264
-0.00694138
-0.00888158
-0.0105773
-0.0120222
-0.013234
-0.0142071
-0.0149552
-0.0154749
-0.015778
-0.0158641
-0.0157441
-0.0154197
-0.0149004
-0.0141887
-0.0132909
-0.012207
-0.0109365
-0.00947241
-0.00780228
-0.00590556
-0.00375272
-0.00130637
0.00147511
0.00462664
0.00815354
0.0120007
0.0160076
0.0198931
0.0232808
0.0258288
0.0273921
0.0281111
0.0283053
0.0282856
0.0281994
0.0281079
0.0280413
0.0279944
0.0279933
0.0440109
0.0436434
0.0434743
0.0428851
0.0422285
0.0410449
0.0394969
0.0372527
0.0344585
0.0310035
0.027132
0.0229094
0.0186036
0.014306
0.0102031
0.00632301
0.00275264
-0.000534264
-0.00350748
-0.00620892
-0.00862661
-0.0107963
-0.0127087
-0.0143892
-0.0158285
-0.0170445
-0.0180292
-0.0187961
-0.0193399
-0.0196721
-0.0197901
-0.019704
-0.019414
-0.0189282
-0.0182481
-0.0173789
-0.016321
-0.0150746
-0.0136356
-0.0119952
-0.0101392
-0.00804406
-0.0056778
-0.00299768
4.51078e-05
0.00349168
0.00735471
0.011566
0.0159393
0.0201216
0.0236682
0.0261834
0.0275775
0.028085
0.0281444
0.0280559
0.0279431
0.0278527
0.0277926
0.0277852
0.0440655
0.0436476
0.0434349
0.0426963
0.0418177
0.0402775
0.0382781
0.0354902
0.0321363
0.0281487
0.023839
0.0192893
0.0147846
0.0103907
0.00627525
0.00242864
-0.00108117
-0.00430474
-0.00721795
-0.0098726
-0.0122547
-0.014403
-0.0163039
-0.0179837
-0.0194297
-0.0206601
-0.0216642
-0.0224559
-0.0230277
-0.0233906
-0.0235406
-0.0234867
-0.0232277
-0.0227704
-0.0221154
-0.0212667
-0.0202249
-0.01899
-0.0175603
-0.0159297
-0.01409
-0.0120245
-0.00971075
-0.00711354
-0.00418633
-0.000875595
0.00287112
0.00706074
0.0116204
0.0163027
0.0206911
0.0242422
0.0265654
0.0276623
0.0279245
0.0278694
0.0277462
0.0276292
0.0275556
0.0275374
0.04382
0.0433538
0.0430778
0.042168
0.0410349
0.0391143
0.0366544
0.0333465
0.0294915
0.0250629
0.0204244
0.0156603
0.011056
0.00664203
0.00256407
-0.00122235
-0.0046626
-0.00782492
-0.010686
-0.0133033
-0.0156586
-0.0177921
-0.0196857
-0.0213665
-0.0228186
-0.0240608
-0.0250804
-0.0258915
-0.0264854
-0.0268727
-0.0270484
-0.0270207
-0.0267873
-0.0263542
-0.025721
-0.0248906
-0.0238635
-0.0226391
-0.0212172
-0.0195926
-0.0177618
-0.0157128
-0.0134325
-0.0108951
-0.00806467
-0.00489142
-0.00130963
0.00273064
0.00724886
0.0121227
0.0170627
0.0215189
0.0249062
0.0268575
0.0275741
0.0276033
0.0274987
0.0273493
0.0272603
0.0272255
0.0432623
0.0427529
0.0423977
0.0413058
0.0399019
0.0376016
0.0347013
0.0309277
0.0266541
0.0218882
0.017029
0.0121483
0.00751999
0.00313603
-0.000878888
-0.00459792
-0.00797368
-0.0110861
-0.0139089
-0.0165027
-0.0188437
-0.020973
-0.0228683
-0.0245574
-0.0260215
-0.0272802
-0.028319
-0.0291522
-0.0297697
-0.0301821
-0.0303833
-0.0303807
-0.0301716
-0.0297603
-0.0291468
-0.028332
-0.0273174
-0.0261006
-0.0246833
-0.0230597
-0.0212302
-0.0191852
-0.0169193
-0.0144148
-0.0116483
-0.00858162
-0.00515384
-0.00130125
0.00305107
0.00788466
0.0130661
0.0181557
0.0225418
0.025525
0.0269899
0.0272565
0.0271888
0.0270209
0.0269058
0.0268492
0.0423057
0.0417574
0.0413099
0.0400338
0.038359
0.0357024
0.0324077
0.0282449
0.0236482
0.0186501
0.0136673
0.0087498
0.00415264
-0.000168993
-0.00410735
-0.00775709
-0.0110731
-0.0141422
-0.016933
-0.0195075
-0.0218367
-0.0239622
-0.025858
-0.0275528
-0.0290256
-0.0302965
-0.0313499
-0.0322001
-0.0328363
-0.0332687
-0.0334909
-0.0335091
-0.0333208
-0.0329288
-0.0323337
-0.0315345
-0.0305339
-0.0293275
-0.0279189
-0.0263007
-0.0244762
-0.0224359
-0.0201803
-0.0176965
-0.0149726
-0.0119824
-0.00867855
-0.00500307
-0.000859582
0.0037978
0.00897058
0.0143845
0.0195269
0.0235766
0.0259825
0.0267977
0.0267729
0.0266271
0.0264709
0.026388
0.0409954
0.0404164
0.039871
0.0384214
0.0364928
0.0335231
0.0298975
0.0254335
0.0206104
0.0154759
0.0104496
0.00555395
0.00102232
-0.00322167
-0.00708239
-0.0106691
-0.0139353
-0.0169711
-0.0197393
-0.0223024
-0.0246264
-0.0267533
-0.0286543
-0.0303585
-0.0318434
-0.0331293
-0.0341996
-0.0350684
-0.0357247
-0.0361775
-0.0364205
-0.0364586
-0.0362901
-0.0359157
-0.0353372
-0.0345518
-0.0335639
-0.0323667
-0.0309666
-0.0293536
-0.0275345
-0.025498
-0.0232493
-0.0207773
-0.0180792
-0.0151384
-0.011923
-0.00839005
-0.00444451
-1.5564e-05
0.00499415
0.0104603
0.0160609
0.0210088
0.0244652
0.0260892
0.0262706
0.0261289
0.0259639
0.02583
0.0393002
0.0386987
0.0380547
0.0364506
0.0342972
0.0310697
0.0271855
0.0225088
0.017548
0.0123579
0.00734918
0.00251655
-0.00192837
-0.0060864
-0.00986989
-0.0133967
-0.0166171
-0.0196221
-0.022369
-0.0249199
-0.027237
-0.0293626
-0.0312656
-0.0329756
-0.0344688
-0.0357656
-0.036849
-0.0377324
-0.0384048
-0.0388739
-0.0391344
-0.0391891
-0.0390376
-0.0386785
-0.0381156
-0.0373432
-0.0363687
-0.0351823
-0.0337937
-0.0321898
-0.0303812
-0.0283534
-0.0261163
-0.0236573
-0.0209807
-0.0180753
-0.0149234
-0.0114981
-0.00771864
-0.00351648
0.00125837
0.0065866
0.012365
0.0179173
0.022416
0.0249419
0.0256863
0.0254737
0.0253733
0.0251479
0.0373252
0.036713
0.0359766
0.0342456
0.031906
0.0284833
0.0244147
0.0196092
0.0145877
0.0094068
0.00445947
-0.000284559
-0.00463374
-0.00870602
-0.0124185
-0.0158927
-0.019075
-0.0220553
-0.0247864
-0.0273294
-0.0296438
-0.0317713
-0.0336799
-0.0353985
-0.0369031
-0.0382133
-0.0393121
-0.0402117
-0.0409016
-0.0413878
-0.041666
-0.0417367
-0.0416015
-0.041256
-0.0407071
-0.0399457
-0.038983
-0.0378055
-0.0364276
-0.0348319
-0.0330344
-0.0310161
-0.0287922
-0.0263464
-0.0236895
-0.0208112
-0.0177055
-0.0143587
-0.0107088
-0.00670367
-0.00217838
0.00291143
0.00863857
0.0145044
0.01985
0.0233209
0.0248949
0.024691
0.0246504
0.02434
0.0350843
0.0344724
0.0336524
0.0318241
0.0293391
0.0257817
0.0215956
0.0167314
0.0117086
0.00658282
0.00172444
-0.00291662
-0.00716683
-0.0111542
-0.0147989
-0.0182224
-0.0213678
-0.0243225
-0.0270362
-0.0295684
-0.031877
-0.0340031
-0.0359138
-0.0376376
-0.0391503
-0.0404704
-0.0415815
-0.0424938
-0.0431982
-0.043698
-0.0439911
-0.0440749
-0.0439538
-0.0436196
-0.0430834
-0.0423315
-0.0413805
-0.0402116
-0.0388454
-0.0372593
-0.0354756
-0.0334698
-0.0312635
-0.028835
-0.0262013
-0.0233498
-0.0202838
-0.0169976
-0.0134483
-0.00960409
-0.00531066
-0.000493935
0.00502637
0.0109668
0.0168455
0.0212614
0.0236957
0.0238247
0.0237187
0.0234011
0.0327178
0.03212
0.0312292
0.0293359
0.0267471
0.0231129
0.0188696
0.0140061
0.00902816
0.00399058
-0.000762483
-0.00529478
-0.00944882
-0.0133566
-0.0169407
-0.0203195
-0.0234337
-0.0263672
-0.0290677
-0.0315926
-0.0338991
-0.0360269
-0.0379434
-0.0396754
-0.0411995
-0.042532
-0.0436579
-0.0445847
-0.0453052
-0.0458195
-0.0461281
-0.0462246
-0.0461172
-0.0457931
-0.0452684
-0.0445241
-0.0435829
-0.0424203
-0.0410644
-0.0394858
-0.0377153
-0.0357211
-0.0335334
-0.031123
-0.0285146
-0.0256903
-0.0226615
-0.0194259
-0.0159562
-0.0122414
-0.00814744
-0.00360124
0.0016343
0.00746149
0.0135732
0.0188032
0.0220365
0.0228448
0.0225705
0.0223179
0.0302554
0.0296828
0.0287332
0.0268027
0.0241455
0.0204808
0.0162248
0.011403
0.00649777
0.00156553
-0.00307732
-0.00750126
-0.0115638
-0.0153957
-0.0189225
-0.0222572
-0.0253399
-0.0282499
-0.0309349
-0.0334492
-0.0357506
-0.0378767
-0.039796
-0.0415327
-0.0430653
-0.0444069
-0.0455447
-0.0464827
-0.0472166
-0.0477421
-0.048064
-0.0481702
-0.0480746
-0.0477581
-0.0472434
-0.0465046
-0.0455726
-0.0444148
-0.043069
-0.0414971
-0.0397404
-0.0377581
-0.0355909
-0.0332004
-0.0306211
-0.0278265
-0.0248371
-0.0216491
-0.0182477
-0.0146399
-0.0107117
-0.0064164
-0.00148432
0.00409153
0.0102144
0.0159896
0.0199816
0.0215982
0.0212448
0.0210395
0.0278425
0.0273082
0.0263137
0.0243731
0.02168
0.0180255
0.0137938
0.00904591
0.00423305
-0.000583604
-0.00511622
-0.00943603
-0.0134147
-0.0171778
-0.0206544
-0.0239506
-0.0270071
-0.029898
-0.0325718
-0.0350794
-0.03738
-0.039508
-0.041434
-0.0431788
-0.0447232
-0.0460765
-0.047229
-0.0481799
-0.0489291
-0.0494667
-0.0498027
-0.0499186
-0.0498348
-0.0495249
-0.0490196
-0.0482844
-0.0473602
-0.0462049
-0.0448675
-0.0432997
-0.0415554
-0.0395826
-0.0374355
-0.0350638
-0.0325147
-0.0297507
-0.0268031
-0.0236619
-0.0203237
-0.0168083
-0.0130183
-0.00894781
-0.00430601
0.000934049
0.00691741
0.0129222
0.0176222
0.0199688
0.0198067
0.0195384
0.0254962
0.0250096
0.023981
0.0220494
0.0193422
0.0157237
0.0115365
0.00687727
0.00216078
-0.0025421
-0.0069724
-0.011196
-0.0150989
-0.0187979
-0.0222277
-0.0254857
-0.0285156
-0.0313851
-0.0340456
-0.0365432
-0.0388402
-0.0409667
-0.0428964
-0.0446458
-0.0461991
-0.0475606
-0.048725
-0.0496855
-0.0504473
-0.0509938
-0.0513415
-0.051464
-0.0513901
-0.0510838
-0.0505862
-0.0498522
-0.0489346
-0.0477795
-0.0464497
-0.0448837
-0.0431513
-0.0411862
-0.0390591
-0.036705
-0.0341877
-0.0314548
-0.028552
-0.0254585
-0.0221834
-0.0187519
-0.0150819
-0.0112091
-0.00683344
-0.00196268
0.00377673
0.00974169
0.0150276
0.017957
0.0182679
0.0178132
0.0233471
0.0229194
0.0218694
0.0199655
0.0172642
0.0137043
0.00957832
0.00501928
0.000401418
-0.00419071
-0.00852692
-0.0126631
-0.0164998
-0.0201428
-0.0235332
-0.026759
-0.0297682
-0.0326213
-0.0352738
-0.037766
-0.0400643
-0.0421934
-0.0441313
-0.0458887
-0.0474546
-0.0488271
-0.0500062
-0.050978
-0.0517546
-0.0523107
-0.0526715
-0.0528006
-0.052737
-0.0524336
-0.0519436
-0.051209
-0.0502972
-0.0491397
-0.0478162
-0.0462491
-0.0445269
-0.042566
-0.0404576
-0.0381182
-0.0356322
-0.0329287
-0.0300726
-0.0270264
-0.0238165
-0.0204631
-0.0169034
-0.0132033
-0.00907065
-0.00456554
0.000854756
0.00659056
0.0122555
0.0156275
0.0165531
0.015864
0.0213835
0.0210215
0.0199589
0.0180924
0.0154061
0.0119129
0.00785015
0.0033882
-0.00114137
-0.00563516
-0.00989161
-0.0139519
-0.0177321
-0.0213246
-0.0246794
-0.0278736
-0.030862
-0.0336967
-0.0363392
-0.0388228
-0.0411197
-0.0432478
-0.0451908
-0.0469525
-0.0485281
-0.0499077
-0.0510987
-0.0520781
-0.0528668
-0.053429
-0.0538005
-0.0539327
-0.0538775
-0.0535735
-0.0530893
-0.0523509
-0.0514434
-0.0502803
-0.0489616
-0.0473901
-0.0456767
-0.0437166
-0.0416255
-0.0392972
-0.036842
-0.0341649
-0.0313567
-0.0283563
-0.0252142
-0.0219349
-0.0184815
-0.0149326
-0.0110239
-0.00685898
-0.001807
0.00358395
0.00937825
0.0130629
0.014573
0.0137001
0.0197147
0.0194276
0.0183647
0.0165477
0.0138871
0.0104704
0.00647524
0.00211015
-0.00233749
-0.00674207
-0.0109301
-0.0149251
-0.0186591
-0.0222097
-0.0255369
-0.0287064
-0.0316806
-0.034503
-0.0371415
-0.039622
-0.041923
-0.0440547
-0.0460078
-0.0477774
-0.0493667
-0.0507562
-0.0519624
-0.0529512
-0.0537546
-0.0543238
-0.0547078
-0.0548431
-0.0547972
-0.0544918
-0.0540138
-0.0532699
-0.0523663
-0.051195
-0.0498802
-0.0483008
-0.0465947
-0.0446311
-0.0425554
-0.0402335
-0.0378073
-0.0351522
-0.0323915
-0.0294335
-0.026361
-0.0231515
-0.0198034
-0.0163884
-0.0126883
-0.00882994
-0.00417074
0.000812433
0.00650167
0.0103661
0.0123293
0.0113791
0.018294
0.0180859
0.017031
0.0152676
0.0126337
0.00929129
0.00535566
0.00107529
-0.00330725
-0.0076396
-0.0117761
-0.0157188
-0.0194171
-0.0229318
-0.0262353
-0.0293809
-0.0323411
-0.035149
-0.0377818
-0.0402557
-0.042558
-0.0446895
-0.0466495
-0.0484231
-0.0500231
-0.0514183
-0.0526368
-0.0536311
-0.0544465
-0.0550187
-0.0554128
-0.0555474
-0.0555087
-0.055198
-0.0547242
-0.0539707
-0.0530691
-0.0518856
-0.0505726
-0.0489807
-0.0472797
-0.0453076
-0.0432448
-0.0409236
-0.0385237
-0.0358847
-0.0331697
-0.0302488
-0.027246
-0.024101
-0.0208574
-0.0175613
-0.0140567
-0.0104696
-0.00620441
-0.00165448
0.00375119
0.00766144
0.00992829
0.00900481
0.0172134
0.0170912
0.0160577
0.0143579
0.0117579
0.00849403
0.00461811
0.000418398
-0.0039071
-0.00817743
-0.0122735
-0.0161748
-0.0198473
-0.023335
-0.0266233
-0.0297526
-0.0327062
-0.0355066
-0.0381406
-0.0406141
-0.042924
-0.0450603
-0.0470328
-0.0488143
-0.0504295
-0.0518335
-0.0530682
-0.0540698
-0.0549003
-0.0554767
-0.0558832
-0.0560171
-0.0559873
-0.0556705
-0.0552018
-0.054437
-0.0535376
-0.0523389
-0.0510272
-0.0494188
-0.0477214
-0.0457356
-0.0436833
-0.0413565
-0.0389801
-0.03635
-0.0336777
-0.0307867
-0.027852
-0.0247644
-0.0216238
-0.0184335
-0.0151119
-0.0117626
-0.00787583
-0.00375816
0.00125106
0.00508443
0.00752911
0.0067019
0.0163902
0.0163545
0.0153519
0.0137185
0.0111518
0.00796072
0.00413463
1.72265e-06
-0.0042839
-0.00850942
-0.0125818
-0.0164544
-0.0201115
-0.0235782
-0.0268552
-0.0299688
-0.0329158
-0.0357061
-0.0383392
-0.0408085
-0.0431234
-0.0452602
-0.0472422
-0.0490272
-0.050655
-0.0520633
-0.0533117
-0.0543163
-0.0551596
-0.0557356
-0.0561525
-0.0562812
-0.0562583
-0.0559308
-0.0554652
-0.0546842
-0.0537848
-0.0525655
-0.0512527
-0.0496219
-0.0479251
-0.0459188
-0.0438733
-0.041533
-0.0391755
-0.0365453
-0.033911
-0.0310403
-0.0281694
-0.0251297
-0.0220881
-0.0189898
-0.0158384
-0.012695
-0.00915955
-0.00545321
-0.000897188
0.00275988
0.00528229
0.00458354
0.0159086
0.0159617
0.0150061
0.0134508
0.0109274
0.00781413
0.00404083
-2.68772e-05
-0.00427697
-0.00846516
-0.0125222
-0.0163755
-0.0200262
-0.0234808
-0.0267551
-0.0298611
-0.0328097
-0.0355976
-0.0382378
-0.0407096
-0.0430366
-0.0451796
-0.0471775
-0.0489705
-0.0506164
-0.0520323
-0.0532989
-0.0543088
-0.0551688
-0.0557457
-0.0561762
-0.0563
-0.0562865
-0.0559474
-0.0554866
-0.0546874
-0.0537889
-0.0525459
-0.0512316
-0.0495738
-0.0478762
-0.045843
-0.0438018
-0.0414398
-0.0390972
-0.0364572
-0.0338555
-0.0309941
-0.0281813
-0.0251778
-0.0222291
-0.0192083
-0.016214
-0.0132462
-0.0100302
-0.00670136
-0.00261604
0.000792915
0.00330903
0.00274359
0.015648
0.0157842
0.0148871
0.0134149
0.0109391
0.00790075
0.00417525
0.000163224
-0.00406367
-0.00822811
-0.0122837
-0.0161287
-0.0197823
-0.0232297
-0.0265048
-0.029603
-0.0325528
-0.0353352
-0.0379802
-0.0404503
-0.0427868
-0.0449314
-0.0469428
-0.0487391
-0.050401
-0.05182
-0.0531031
-0.0541136
-0.0549887
-0.0555618
-0.0560044
-0.0561183
-0.0561126
-0.0557565
-0.0552989
-0.0544755
-0.0535757
-0.0523023
-0.0509839
-0.0492913
-0.0475893
-0.0455203
-0.0434785
-0.0410844
-0.0387507
-0.0360883
-0.0335119
-0.0306457
-0.0278827
-0.0249003
-0.0220356
-0.0190748
-0.0162229
-0.0134006
-0.01047
-0.00747614
-0.00385345
-0.000736916
0.0016987
0.00125508
0.0156971
0.0159109
0.0150909
0.0137172
0.0113074
0.00835471
0.0046885
0.000737833
-0.00346191
-0.00760392
-0.0116613
-0.0155043
-0.0191678
-0.0226163
-0.0259007
-0.0289998
-0.0319598
-0.0347451
-0.0374039
-0.0398799
-0.0422343
-0.044387
-0.0464195
-0.0482244
-0.0499089
-0.0513349
-0.0526404
-0.0536541
-0.0545496
-0.0551203
-0.0555794
-0.0556838
-0.0556895
-0.0553157
-0.0548639
-0.0540143
-0.053115
-0.0518074
-0.0504853
-0.0487525
-0.0470451
-0.0449327
-0.0428875
-0.0404512
-0.0381214
-0.0354241
-0.0328658
-0.0299795
-0.0272574
-0.0242789
-0.0214881
-0.0185679
-0.0158435
-0.0131367
-0.0104588
-0.00775372
-0.00457098
-0.00176743
0.0005223
0.000181138
0.0158916
0.0161677
0.0154388
0.014172
0.0118433
0.00898084
0.00537955
0.0014901
-0.00268505
-0.0068105
-0.0108775
-0.0147256
-0.0184059
-0.0218586
-0.0251548
-0.0282534
-0.031223
-0.034007
-0.0366777
-0.0391547
-0.0415252
-0.0436811
-0.0457334
-0.0475422
-0.0492486
-0.050677
-0.0520045
-0.0530169
-0.0539323
-0.0544958
-0.054971
-0.0550604
-0.055077
-0.0546792
-0.0542322
-0.0533493
-0.0524487
-0.0510988
-0.0497703
-0.0479875
-0.0462709
-0.0441035
-0.0420495
-0.0395573
-0.0372241
-0.0344757
-0.0319262
-0.029001
-0.0263084
-0.0233126
-0.0205826
-0.0176799
-0.0150664
-0.0124437
-0.00998659
-0.00752104
-0.00474587
-0.00225477
-0.000164791
-0.000425181
0.0163423
0.0166654
0.0160458
0.014904
0.012687
0.00993464
0.00642203
0.0026103
-0.00152418
-0.00562476
-0.00969634
-0.0135507
-0.0172514
-0.0207153
-0.0240318
-0.027139
-0.0301283
-0.0329206
-0.0356136
-0.0381004
-0.0404972
-0.0426641
-0.0447457
-0.0465646
-0.0483015
-0.0497371
-0.0510942
-0.0521086
-0.0530508
-0.053609
-0.0541063
-0.0541814
-0.0542139
-0.0537916
-0.0533534
-0.052435
-0.051536
-0.0501397
-0.0488063
-0.0469673
-0.0452409
-0.0430096
-0.0409442
-0.0383839
-0.036042
-0.0332266
-0.0306777
-0.027694
-0.0250198
-0.0219843
-0.0193019
-0.0163914
-0.0138725
-0.0113022
-0.00903676
-0.0067619
-0.00435755
-0.00216178
-0.000311155
-0.000510615
0.0168306
0.0171779
0.0166797
0.015674
0.0135963
0.0109704
0.00756614
0.00384578
-0.000236474
-0.00430539
-0.00837969
-0.0122395
-0.0159632
-0.0194379
-0.022776
-0.0258888
-0.0288972
-0.0316929
-0.0344073
-0.0368987
-0.0393215
-0.0414944
-0.0436061
-0.0454308
-0.0471997
-0.0486383
-0.050027
-0.0510389
-0.0520097
-0.0525575
-0.0530785
-0.0531333
-0.0531828
-0.0527288
-0.0522997
-0.0513373
-0.0504392
-0.0489865
-0.0476462
-0.0457389
-0.0439993
-0.0416897
-0.0396073
-0.0369616
-0.0346033
-0.0317003
-0.0291414
-0.0260753
-0.0234064
-0.0203039
-0.0176539
-0.0147062
-0.0122643
-0.00971182
-0.00760978
-0.00547494
-0.00340023
-0.00146693
0.000122608
-3.12955e-05
0.017519
0.017872
0.0175029
0.0166501
0.0147495
0.0122807
0.00902063
0.00542101
0.00142119
-0.00259457
-0.00665498
-0.0105131
-0.0142582
-0.017748
-0.0211157
-0.0242439
-0.0272833
-0.0300935
-0.0328424
-0.035349
-0.0378106
-0.039999
-0.0421529
-0.0439912
-0.0458032
-0.0472507
-0.048681
-0.0496947
-0.0507032
-0.0512433
-0.0517959
-0.0518317
-0.0519052
-0.0514191
-0.0510051
-0.0499965
-0.049104
-0.0475903
-0.0462461
-0.0442633
-0.0425113
-0.0401128
-0.0380117
-0.0352661
-0.0328864
-0.0298766
-0.0272994
-0.0241267
-0.0214514
-0.0182534
-0.0156218
-0.0126056
-0.0102247
-0.00765492
-0.00569211
-0.00364806
-0.0018626
-0.000148426
0.00117619
0.00105933
0.0181217
0.0184615
0.0182185
0.0175295
0.0158375
0.0135564
0.0104735
0.00702565
0.00313669
-0.000800781
-0.00483075
-0.00867336
-0.0124345
-0.0159325
-0.0193292
-0.0224674
-0.0255384
-0.0283577
-0.0311424
-0.0336593
-0.0361626
-0.0383624
-0.0405626
-0.0424109
-0.0442712
-0.0457241
-0.0472014
-0.0482126
-0.0492639
-0.0497911
-0.0503798
-0.0503899
-0.0504909
-0.0499646
-0.049568
-0.0485032
-0.0476172
-0.0460306
-0.0446819
-0.0426091
-0.0408423
-0.0383373
-0.0362128
-0.033346
-0.0309375
-0.0277956
-0.0251898
-0.0218809
-0.0191863
-0.0158596
-0.0132318
-0.0101111
-0.00777556
-0.00514903
-0.0033028
-0.00129691
0.000241419
0.00179269
0.00286848
0.00278845
0.0188963
0.0192148
0.0190801
0.0185628
0.0171062
0.015051
0.0121877
0.00893341
0.00519848
0.00137657
-0.00259187
-0.00639913
-0.0101662
-0.0136714
-0.0171036
-0.0202621
-0.0233793
-0.0262214
-0.0290589
-0.0315995
-0.0341614
-0.0363843
-0.0386468
-0.0405148
-0.0424379
-0.0439038
-0.0454411
-0.0464556
-0.0475614
-0.0480795
-0.0487149
-0.0487012
-0.0488391
-0.0482726
-0.0479018
-0.0467786
-0.0459061
-0.0442417
-0.0428938
-0.040723
-0.0389444
-0.0363208
-0.0341729
-0.0311679
-0.0287272
-0.0254302
-0.0227885
-0.0193143
-0.0165897
-0.0130997
-0.0104633
-0.00720023
-0.0048978
-0.00217407
-0.000428383
0.00159021
0.00291618
0.00436517
0.00522163
0.00518753
0.0194622
0.0197531
0.0197043
0.0193616
0.0181598
0.0163709
0.0137693
0.0107584
0.00722359
0.00356608
-0.000304254
-0.00404153
-0.00779612
-0.0112899
-0.0147531
-0.0179224
-0.0210884
-0.023948
-0.0268443
-0.0294052
-0.0320339
-0.0342776
-0.0366121
-0.0384978
-0.0404941
-0.0419704
-0.0435781
-0.044592
-0.0457618
-0.0462652
-0.0469556
-0.0469106
-0.0470925
-0.046476
-0.0461366
-0.0449429
-0.0440881
-0.0423311
-0.0409864
-0.0386996
-0.0369094
-0.0341457
-0.0319723
-0.0288031
-0.0263252
-0.0228424
-0.0201572
-0.0164819
-0.013718
-0.0100247
-0.00737027
-0.00392203
-0.00164444
0.00122263
0.00287951
0.00496893
0.00611568
0.00753677
0.00821863
0.00825044
0.0202266
0.0204929
0.0204958
0.0203114
0.0193614
0.0178672
0.0155657
0.0128469
0.0095641
0.00612357
0.00239814
-0.00123248
-0.0049518
-0.00842367
-0.0119204
-0.0151094
-0.0183416
-0.0212357
-0.0242133
-0.0268122
-0.0295303
-0.0318103
-0.0342377
-0.0361538
-0.0382421
-0.0397388
-0.0414336
-0.0424544
-0.0437034
-0.0441973
-0.0449563
-0.044883
-0.0451211
-0.0444555
-0.0441583
-0.0428928
-0.042065
-0.0402111
-0.0388773
-0.0364665
-0.0346704
-0.0317536
-0.0295574
-0.026205
-0.023689
-0.019994
-0.0172605
-0.01335
-0.0105391
-0.00660127
-0.00392103
-0.000241366
0.00201564
0.00507514
0.00664514
0.00886239
0.00984595
0.0113116
0.011861
0.0119883
0.0206594
0.0208976
0.0209347
0.0208915
0.020194
0.0190272
0.0170719
0.0147109
0.0117437
0.00859609
0.00507657
0.00161635
-0.00202914
-0.00544065
-0.00895833
-0.0121498
-0.0154531
-0.0183763
-0.0214487
-0.0240852
-0.0269098
-0.029227
-0.0317655
-0.0337123
-0.0359106
-0.0374264
-0.0392253
-0.0402492
-0.0415927
-0.0420706
-0.0429119
-0.042801
-0.0431074
-0.0423802
-0.0421359
-0.0407828
-0.0399913
-0.0380215
-0.0367061
-0.0341486
-0.0323521
-0.0292553
-0.0270396
-0.0234722
-0.0209191
-0.0169748
-0.0141924
-0.0100044
-0.00714591
-0.00291684
-0.000213336
0.00374834
0.00597707
0.00928558
0.0107602
0.0131772
0.0140083
0.0156145
0.0160806
0.0163484
0.0213851
0.0215995
0.0216456
0.021698
0.0212116
0.0203621
0.0187692
0.016808
0.0142088
0.0114166
0.00816257
0.00492738
0.00139381
-0.00193203
-0.00546545
-0.00866299
-0.0120561
-0.0150274
-0.0182238
-0.0209206
-0.023882
-0.026257
-0.0289342
-0.0309286
-0.0332612
-0.0348093
-0.0367335
-0.0377707
-0.0392272
-0.0396965
-0.0406366
-0.0404931
-0.0408825
-0.0400966
-0.0399185
-0.0384782
-0.0377347
-0.0356465
-0.0343597
-0.031649
-0.0298604
-0.0265717
-0.0243422
-0.0205409
-0.0179532
-0.013732
-0.0109