/*--------------------------------*- C++ -*----------------------------------*\
| =========                 |                                                 |
| \\      /  F ield         | OpenFOAM: The Open Source CFD Toolbox           |
|  \\    /   O peration     | Version:  2406                                  |
|   \\  /    A nd           | Website:  www.openfoam.com                      |
|    \\/     M anipulation  |                                                 |
\*---------------------------------------------------------------------------*/
FoamFile
{
    version     2.0;
    format      ascii;
    arch        "LSB;label=32;scalar=64";
    class       volVectorField;
    location    "12.65";
    object      U;
}
// * * * * * * * * * * * * * * * * * * * * * * * * * * * * * * * * * * * * * //

dimensions      [0 1 -1 0 0 0 0];

internalField   nonuniform List<vector> 
14400
(
(3.8193e-06 -3.804e-06 0)
(1.64748e-05 -3.52295e-06 0)
(2.2562e-05 -1.32969e-06 0)
(1.76557e-05 1.8545e-06 0)
(-2.94244e-08 4.93206e-06 0)
(-2.93538e-05 7.56827e-06 0)
(-6.83788e-05 9.6424e-06 0)
(-0.000114962 1.11778e-05 0)
(-0.000167125 1.22549e-05 0)
(-0.000223215 1.29723e-05 0)
(-0.000281952 1.34272e-05 0)
(-0.000342415 1.37052e-05 0)
(-0.000403992 1.3877e-05 0)
(-0.000466326 1.39974e-05 0)
(-0.000529256 1.41068e-05 0)
(-0.000592763 1.42331e-05 0)
(-0.000656926 1.43941e-05 0)
(-0.000721885 1.45996e-05 0)
(-0.000787812 1.48535e-05 0)
(-0.00085489 1.51556e-05 0)
(-0.000923297 1.55027e-05 0)
(-0.000993197 1.58898e-05 0)
(-0.00106473 1.63109e-05 0)
(-0.00113803 1.67593e-05 0)
(-0.00121316 1.72282e-05 0)
(-0.0012902 1.77104e-05 0)
(-0.00136918 1.81992e-05 0)
(-0.0014501 1.86877e-05 0)
(-0.00153294 1.91691e-05 0)
(-0.00161764 1.96366e-05 0)
(-0.00170412 2.00837e-05 0)
(-0.00179227 2.05036e-05 0)
(-0.00188195 2.08896e-05 0)
(-0.00197299 2.12349e-05 0)
(-0.00206519 2.15328e-05 0)
(-0.00215833 2.17763e-05 0)
(-0.00225215 2.19583e-05 0)
(-0.00234636 2.20718e-05 0)
(-0.00244066 2.21096e-05 0)
(-0.00253469 2.20645e-05 0)
(-0.00262808 2.1929e-05 0)
(-0.00272042 2.16959e-05 0)
(-0.00281129 2.13577e-05 0)
(-0.00290022 2.09071e-05 0)
(-0.00298672 2.0337e-05 0)
(-0.00307027 1.96402e-05 0)
(-0.00315032 1.88102e-05 0)
(-0.00322631 1.78405e-05 0)
(-0.00329765 1.67256e-05 0)
(-0.00336373 1.54603e-05 0)
(-0.00342392 1.40408e-05 0)
(-0.0034776 1.24639e-05 0)
(-0.00352411 1.07281e-05 0)
(-0.00356282 8.83346e-06 0)
(-0.0035931 6.78029e-06 0)
(-0.00361435 4.57157e-06 0)
(-0.00362601 2.23669e-06 0)
(-0.00362745 -1.97852e-07 0)
(-0.00361819 -2.7987e-06 0)
(-0.00359785 -5.51597e-06 0)
(-0.003566 -8.31751e-06 0)
(-0.00352237 -1.11859e-05 0)
(-0.00346676 -1.40981e-05 0)
(-0.00339906 -1.70276e-05 0)
(-0.0033193 -1.99457e-05 0)
(-0.0032276 -2.28214e-05 0)
(-0.00312424 -2.56222e-05 0)
(-0.00300961 -2.83149e-05 0)
(-0.00288424 -3.08658e-05 0)
(-0.0027488 -3.32415e-05 0)
(-0.00260407 -3.541e-05 0)
(-0.00245096 -3.73413e-05 0)
(-0.00229052 -3.90081e-05 0)
(-0.00212385 -4.03864e-05 0)
(-0.00195218 -4.14567e-05 0)
(-0.00177679 -4.22038e-05 0)
(-0.00159899 -4.26181e-05 0)
(-0.00142017 -4.26951e-05 0)
(-0.00124166 -4.24361e-05 0)
(-0.00106483 -4.18479e-05 0)
(-0.000890976 -4.09429e-05 0)
(-0.000721358 -3.97383e-05 0)
(-0.000557149 -3.8256e-05 0)
(-0.000399432 -3.65217e-05 0)
(-0.000249181 -3.45645e-05 0)
(-0.000107252 -3.24158e-05 0)
(2.56251e-05 -3.01084e-05 0)
(0.000148854 -2.76759e-05 0)
(0.000261969 -2.51518e-05 0)
(0.000364639 -2.25686e-05 0)
(0.000456657 -1.99574e-05 0)
(0.000537938 -1.73466e-05 0)
(0.000608508 -1.47624e-05 0)
(0.00066849 -1.22275e-05 0)
(0.000718097 -9.76125e-06 0)
(0.000757616 -7.37939e-06 0)
(0.000787394 -5.09438e-06 0)
(0.000807824 -2.91355e-06 0)
(0.000819346 -8.33243e-07 0)
(0.000822455 1.11117e-06 0)
(0.00081753 2.85439e-06 0)
(0.000805023 4.5378e-06 0)
(0.00078549 6.14242e-06 0)
(0.000759365 7.63129e-06 0)
(0.000727081 9.00809e-06 0)
(0.000689076 1.02791e-05 0)
(0.000645786 1.14461e-05 0)
(0.000597657 1.25069e-05 0)
(0.000545161 1.34542e-05 0)
(0.000488825 1.42721e-05 0)
(0.000429274 1.49331e-05 0)
(0.000367281 1.53927e-05 0)
(0.000303853 1.55832e-05 0)
(0.000240319 1.54055e-05 0)
(0.000178472 1.47185e-05 0)
(0.000120708 1.33365e-05 0)
(7.0158e-05 1.10228e-05 0)
(3.05345e-05 7.61294e-06 0)
(6.21817e-06 3.04387e-06 0)
(-8.19643e-07 -8.18128e-07 0)
(3.62063e-06 -1.65242e-05 0)
(1.50384e-05 -1.48967e-05 0)
(6.72752e-06 4.93642e-06 0)
(-2.88726e-05 3.08918e-05 0)
(-9.50621e-05 5.67162e-05 0)
(-0.000189553 7.93894e-05 0)
(-0.000308307 9.78259e-05 0)
(-0.000446653 0.000111991 0)
(-0.000600081 0.000122373 0)
(-0.000764665 0.000129675 0)
(-0.000937239 0.000134636 0)
(-0.00111541 0.000137946 0)
(-0.0012975 0.000140189 0)
(-0.00148244 0.000141839 0)
(-0.00166962 0.000143254 0)
(-0.00185883 0.000144692 0)
(-0.0020501 0.000146324 0)
(-0.00224364 0.000148254 0)
(-0.00243977 0.000150531 0)
(-0.00263883 0.000153168 0)
(-0.00284119 0.000156147 0)
(-0.00304719 0.000159432 0)
(-0.00325712 0.000162975 0)
(-0.00347122 0.000166722 0)
(-0.00368964 0.000170612 0)
(-0.0039125 0.000174585 0)
(-0.00413979 0.000178576 0)
(-0.00437148 0.000182525 0)
(-0.00460743 0.000186368 0)
(-0.00484742 0.000190042 0)
(-0.00509118 0.000193486 0)
(-0.00533833 0.000196636 0)
(-0.00558843 0.000199431 0)
(-0.00584098 0.000201808 0)
(-0.00609536 0.000203703 0)
(-0.00635092 0.000205055 0)
(-0.0066069 0.000205801 0)
(-0.00686248 0.000205877 0)
(-0.00711677 0.000205221 0)
(-0.00736881 0.000203771 0)
(-0.00761754 0.000201465 0)
(-0.00786188 0.000198242 0)
(-0.00810065 0.000194043 0)
(-0.0083326 0.00018881 0)
(-0.00855645 0.000182486 0)
(-0.00877084 0.00017502 0)
(-0.00897436 0.000166362 0)
(-0.00916557 0.000156468 0)
(-0.00934299 0.0001453 0)
(-0.00950509 0.000132828 0)
(-0.00965035 0.000119031 0)
(-0.00977722 0.000103897 0)
(-0.00988416 8.74287e-05 0)
(-0.00996968 6.9642e-05 0)
(-0.0100323 5.0569e-05 0)
(-0.0100706 3.02608e-05 0)
(-0.0100833 8.80403e-06 0)
(-0.0100692 -1.36769e-05 0)
(-0.0100271 -3.71475e-05 0)
(-0.00995617 -6.14428e-05 0)
(-0.00985562 -8.63918e-05 0)
(-0.00972491 -0.000111809 0)
(-0.00956374 -0.000137486 0)
(-0.00937203 -0.000163197 0)
(-0.00914999 -0.000188698 0)
(-0.00889813 -0.00021373 0)
(-0.00861723 -0.000238025 0)
(-0.00830841 -0.000261308 0)
(-0.00797306 -0.000283304 0)
(-0.00761291 -0.000303744 0)
(-0.00722997 -0.000322369 0)
(-0.00682651 -0.000338937 0)
(-0.0064051 -0.000353229 0)
(-0.00596849 -0.000365057 0)
(-0.00551964 -0.000374261 0)
(-0.00506167 -0.000380725 0)
(-0.00459778 -0.000384369 0)
(-0.00413127 -0.000385159 0)
(-0.00366543 -0.000383104 0)
(-0.0032035 -0.00037826 0)
(-0.00274868 -0.000370722 0)
(-0.002304 -0.000360629 0)
(-0.00187234 -0.000348155 0)
(-0.00145635 -0.000333506 0)
(-0.00105846 -0.000316914 0)
(-0.000680825 -0.000298631 0)
(-0.000325294 -0.000278925 0)
(6.57242e-06 -0.000258069 0)
(0.000313525 -0.000236337 0)
(0.00059462 -0.000213997 0)
(0.000849215 -0.000191308 0)
(0.00107695 -0.000168509 0)
(0.00127774 -0.000145823 0)
(0.00145172 -0.000123445 0)
(0.00159927 -0.000101549 0)
(0.00172094 -8.02784e-05 0)
(0.00181745 -5.97503e-05 0)
(0.00188963 -4.00555e-05 0)
(0.00193842 -2.12601e-05 0)
(0.0019648 -3.42714e-06 0)
(0.0019699 1.33748e-05 0)
(0.00195481 2.92906e-05 0)
(0.00192057 4.42549e-05 0)
(0.0018683 5.82641e-05 0)
(0.00179911 7.13314e-05 0)
(0.00171413 8.34613e-05 0)
(0.00161449 9.46385e-05 0)
(0.0015014 0.000104815 0)
(0.00137615 0.000113894 0)
(0.00124025 0.000121707 0)
(0.00109544 0.000127989 0)
(0.000943873 0.000132339 0)
(0.000788272 0.000134184 0)
(0.000632087 0.000132732 0)
(0.000479741 0.000126935 0)
(0.000336817 0.000115507 0)
(0.000210139 9.70714e-05 0)
(0.000107037 7.06779e-05 0)
(3.7079e-05 3.70326e-05 0)
(3.04843e-06 6.22709e-06 0)
(1.3617e-06 -2.25923e-05 0)
(-5.97624e-06 -6.20031e-06 0)
(-4.70402e-05 4.46579e-05 0)
(-0.000129325 0.000106735 0)
(-0.000254836 0.00016823 0)
(-0.000420696 0.000222907 0)
(-0.000621605 0.000268227 0)
(-0.000851395 0.000303868 0)
(-0.001104 0.000330723 0)
(-0.00137399 0.000350242 0)
(-0.0016569 0.000364044 0)
(-0.00194922 0.00037368 0)
(-0.00224843 0.000380513 0)
(-0.00255279 0.000385665 0)
(-0.00286128 0.000390009 0)
(-0.00317338 0.000394186 0)
(-0.00348898 0.000398639 0)
(-0.00380821 0.000403644 0)
(-0.00413139 0.000409348 0)
(-0.0044589 0.000415799 0)
(-0.00479116 0.000422973 0)
(-0.00512855 0.000430796 0)
(-0.0054714 0.00043916 0)
(-0.00581995 0.000447933 0)
(-0.00617437 0.000456972 0)
(-0.0065347 0.000466124 0)
(-0.00690087 0.000475233 0)
(-0.00727271 0.000484141 0)
(-0.00764993 0.000492688 0)
(-0.00803212 0.000500715 0)
(-0.00841873 0.000508062 0)
(-0.00880914 0.00051457 0)
(-0.00920256 0.00052008 0)
(-0.00959813 0.000524434 0)
(-0.00999484 0.000527475 0)
(-0.0103916 0.000529048 0)
(-0.0107872 0.000528997 0)
(-0.0111803 0.000527172 0)
(-0.0115695 0.000523421 0)
(-0.0119532 0.000517598 0)
(-0.0123299 0.00050956 0)
(-0.0126978 0.000499168 0)
(-0.0130552 0.000486289 0)
(-0.0134001 0.000470796 0)
(-0.0137307 0.00045257 0)
(-0.0140449 0.0004315 0)
(-0.0143408 0.000407489 0)
(-0.0146161 0.000380451 0)
(-0.0148687 0.000350318 0)
(-0.0150965 0.00031704 0)
(-0.0152974 0.000280593 0)
(-0.0154692 0.000240977 0)
(-0.0156097 0.000198223 0)
(-0.015717 0.000152398 0)
(-0.0157891 0.000103608 0)
(-0.0158241 5.19992e-05 0)
(-0.0158202 -2.23868e-06 0)
(-0.0157759 -5.88568e-05 0)
(-0.01569 -0.000117545 0)
(-0.0155611 -0.000177975 0)
(-0.0153886 -0.000239749 0)
(-0.0151717 -0.000302415 0)
(-0.0149103 -0.000365475 0)
(-0.0146045 -0.000428388 0)
(-0.0142548 -0.000490576 0)
(-0.0138621 -0.000551432 0)
(-0.0134276 -0.000610329 0)
(-0.0129532 -0.000666629 0)
(-0.0124409 -0.000719697 0)
(-0.0118933 -0.000768914 0)
(-0.0113133 -0.000813686 0)
(-0.0107043 -0.000853462 0)
(-0.0100698 -0.000887744 0)
(-0.00941393 -0.000916098 0)
(-0.00874075 -0.00093817 0)
(-0.0080547 -0.00095369 0)
(-0.00736032 -0.000962482 0)
(-0.00666223 -0.000964468 0)
(-0.00596508 -0.000959671 0)
(-0.00527345 -0.000948215 0)
(-0.00459183 -0.000930321 0)
(-0.00392451 -0.000906302 0)
(-0.00327558 -0.000876556 0)
(-0.00264884 -0.000841553 0)
(-0.00204776 -0.000801827 0)
(-0.00147545 -0.000757957 0)
(-0.000934613 -0.000710559 0)
(-0.000427574 -0.000660266 0)
(4.37817e-05 -0.000607715 0)
(0.000477986 -0.000553533 0)
(0.000873982 -0.000498327 0)
(0.00123111 -0.000442667 0)
(0.00154907 -0.000387079 0)
(0.00182793 -0.000332038 0)
(0.00206805 -0.000277963 0)
(0.00227006 -0.00022521 0)
(0.00243482 -0.000174074 0)
(0.00256341 -0.000124791 0)
(0.00265701 -7.75384e-05 0)
(0.00271696 -3.24277e-05 0)
(0.00274475 1.05047e-05 0)
(0.00274181 5.11173e-05 0)
(0.0027096 8.94524e-05 0)
(0.00264974 0.000125511 0)
(0.00256379 0.000159283 0)
(0.00245338 0.000190732 0)
(0.00232021 0.000219776 0)
(0.00216611 0.000246248 0)
(0.00199307 0.000269863 0)
(0.00180341 0.000290168 0)
(0.00159984 0.000306483 0)
(0.00138567 0.000317837 0)
(0.00116494 0.000322897 0)
(0.000942683 0.000319905 0)
(0.00072513 0.000306653 0)
(0.000519834 0.000280593 0)
(0.00033567 0.000239195 0)
(0.000181576 0.000180915 0)
(7.10628e-05 0.000107121 0)
(7.65723e-06 3.06344e-05 0)
(-2.27937e-06 -1.65058e-05 0)
(-3.61884e-05 3.29464e-05 0)
(-0.000119495 0.000129585 0)
(-0.000258535 0.000241203 0)
(-0.000451481 0.000350523 0)
(-0.000694307 0.000448043 0)
(-0.00098044 0.000529683 0)
(-0.00130255 0.00059479 0)
(-0.00165347 0.000644704 0)
(-0.0020268 0.000681752 0)
(-0.00241715 0.000708605 0)
(-0.00282026 0.000727882 0)
(-0.00323295 0.000741921 0)
(-0.003653 0.000752679 0)
(-0.00407899 0.0007617 0)
(-0.00451013 0.000770138 0)
(-0.0049461 0.000778803 0)
(-0.00538692 0.000788213 0)
(-0.0058328 0.000798658 0)
(-0.00628408 0.000810245 0)
(-0.00674112 0.000822951 0)
(-0.00720427 0.000836657 0)
(-0.0076738 0.000851177 0)
(-0.00814988 0.000866282 0)
(-0.00863259 0.000881714 0)
(-0.00912185 0.000897196 0)
(-0.00961745 0.000912442 0)
(-0.0101191 0.00092716 0)
(-0.0106261 0.000941055 0)
(-0.011138 0.000953831 0)
(-0.011654 0.000965193 0)
(-0.012173 0.000974847 0)
(-0.012694 0.000982501 0)
(-0.0132156 0.000987866 0)
(-0.0137366 0.000990657 0)
(-0.0142555 0.000990595 0)
(-0.0147704 0.000987404 0)
(-0.0152797 0.000980818 0)
(-0.0157815 0.000970577 0)
(-0.0162738 0.00095643 0)
(-0.0167544 0.000938136 0)
(-0.0172212 0.000915467 0)
(-0.0176719 0.000888205 0)
(-0.018104 0.000856149 0)
(-0.0185153 0.000819113 0)
(-0.0189032 0.000776933 0)
(-0.0192651 0.000729464 0)
(-0.0195986 0.00067659 0)
(-0.0199011 0.000618226 0)
(-0.0201701 0.00055432 0)
(-0.0204029 0.000484865 0)
(-0.0205971 0.000409898 0)
(-0.0207503 0.000329514 0)
(-0.0208601 0.000243865 0)
(-0.0209243 0.000153174 0)
(-0.0209409 5.7735e-05 0)
(-0.0209079 -4.20815e-05 0)
(-0.0208237 -0.000145833 0)
(-0.0206868 -0.000252957 0)
(-0.0204962 -0.00036283 0)
(-0.020251 -0.000474737 0)
(-0.0199507 -0.000587882 0)
(-0.0195954 -0.000701386 0)
(-0.0191853 -0.000814302 0)
(-0.0187214 -0.000925624 0)
(-0.0182047 -0.0010343 0)
(-0.0176372 -0.00113924 0)
(-0.017021 -0.00123936 0)
(-0.0163588 -0.00133356 0)
(-0.0156539 -0.00142079 0)
(-0.0149098 -0.00150003 0)
(-0.0141306 -0.00157034 0)
(-0.0133208 -0.00163088 0)
(-0.0124852 -0.00168092 0)
(-0.0116288 -0.00171985 0)
(-0.010757 -0.00174721 0)
(-0.00987519 -0.00176271 0)
(-0.00898901 -0.00176622 0)
(-0.00810401 -0.00175777 0)
(-0.00722573 -0.00173758 0)
(-0.00635959 -0.00170603 0)
(-0.00551078 -0.00166364 0)
(-0.00468427 -0.00161109 0)
(-0.00388466 -0.00154919 0)
(-0.00311621 -0.00147884 0)
(-0.00238274 -0.00140105 0)
(-0.00168763 -0.00131687 0)
(-0.00103376 -0.00122739 0)
(-0.000423537 -0.00113371 0)
(0.000141138 -0.00103692 0)
(0.000658849 -0.000938088 0)
(0.00112865 -0.000838197 0)
(0.00155004 -0.000738179 0)
(0.00192295 -0.000638877 0)
(0.00224765 -0.000541034 0)
(0.00252477 -0.000445293 0)
(0.00275523 -0.00035219 0)
(0.00294017 -0.000262158 0)
(0.00308096 -0.000175531 0)
(0.00317911 -9.25458e-05 0)
(0.00323622 -1.33583e-05 0)
(0.00325403 6.18541e-05 0)
(0.00323437 0.000133091 0)
(0.00317906 0.000200302 0)
(0.00309001 0.000263421 0)
(0.00296924 0.000322335 0)
(0.00281885 0.000376838 0)
(0.00264117 0.000426576 0)
(0.00243875 0.000470981 0)
(0.00221453 0.000509196 0)
(0.00197198 0.000539988 0)
(0.00171525 0.000561645 0)
(0.00144938 0.000571891 0)
(0.00118047 0.000567819 0)
(0.000915913 0.000545902 0)
(0.000664497 0.000502201 0)
(0.000436424 0.000432903 0)
(0.000241842 0.000335528 0)
(9.82724e-05 0.000211001 0)
(1.11596e-05 7.0616e-05 0)
(-6.29593e-06 5.22247e-06 0)
(-7.02985e-05 0.000110064 0)
(-0.000200987 0.00026792 0)
(-0.000402658 0.000440726 0)
(-0.000668258 0.000607155 0)
(-0.000991948 0.000755211 0)
(-0.00136559 0.000879676 0)
(-0.0017807 0.000979781 0)
(-0.00222922 0.00105744 0)
(-0.00270401 0.00111595 0)
(-0.00319906 0.00115913 0)
(-0.00370958 0.00119076 0)
(-0.00423194 0.00121424 0)
(-0.00476356 0.00123247 0)
(-0.00530271 0.00124773 0)
(-0.00584837 0.00126176 0)
(-0.00640003 0.0012758 0)
(-0.00695753 0.00129064 0)
(-0.00752097 0.00130675 0)
(-0.00809055 0.0013243 0)
(-0.00866654 0.00134328 0)
(-0.00924915 0.00136352 0)
(-0.00983856 0.00138476 0)
(-0.0104348 0.00140663 0)
(-0.0110378 0.00142876 0)
(-0.0116472 0.00145071 0)
(-0.0122628 0.00147204 0)
(-0.0128838 0.0014923 0)
(-0.0135096 0.00151103 0)
(-0.0141392 0.00152777 0)
(-0.0147715 0.00154206 0)
(-0.0154053 0.00155344 0)
(-0.016039 0.00156147 0)
(-0.016671 0.0015657 0)
(-0.0172997 0.0015657 0)
(-0.017923 0.00156105 0)
(-0.0185389 0.00155135 0)
(-0.0191452 0.00153621 0)
(-0.0197397 0.00151525 0)
(-0.0203199 0.00148811 0)
(-0.0208832 0.00145446 0)
(-0.0214272 0.001414 0)
(-0.0219492 0.00136642 0)
(-0.0224465 0.00131146 0)
(-0.0229163 0.0012489 0)
(-0.0233558 0.00117853 0)
(-0.0237622 0.00110017 0)
(-0.0241328 0.00101371 0)
(-0.0244647 0.000919074 0)
(-0.0247552 0.000816226 0)
(-0.0250016 0.000705207 0)
(-0.0252011 0.000586123 0)
(-0.0253514 0.000459161 0)
(-0.0254499 0.000324593 0)
(-0.0254943 0.000182792 0)
(-0.0254826 3.42332e-05 0)
(-0.0254129 -0.000120493 0)
(-0.0252835 -0.000280683 0)
(-0.025093 -0.000445505 0)
(-0.0248404 -0.000614003 0)
(-0.0245251 -0.000785101 0)
(-0.0241466 -0.000957605 0)
(-0.0237053 -0.00113021 0)
(-0.0232015 -0.00130152 0)
(-0.0226365 -0.00147004 0)
(-0.0220118 -0.00163423 0)
(-0.0213295 -0.0017925 0)
(-0.0205921 -0.00194326 0)
(-0.0198029 -0.0020849 0)
(-0.0189655 -0.0022159 0)
(-0.018084 -0.00233477 0)
(-0.0171631 -0.00244016 0)
(-0.0162077 -0.00253083 0)
(-0.0152232 -0.00260572 0)
(-0.0142154 -0.00266394 0)
(-0.0131903 -0.00270485 0)
(-0.0121539 -0.002728 0)
(-0.0111127 -0.00273319 0)
(-0.0100727 -0.00272049 0)
(-0.00904042 -0.0026902 0)
(-0.0080218 -0.00264286 0)
(-0.00702278 -0.00257924 0)
(-0.00604898 -0.00250034 0)
(-0.00510565 -0.00240731 0)
(-0.00419764 -0.0023015 0)
(-0.00332935 -0.00218436 0)
(-0.00250466 -0.00205744 0)
(-0.00172692 -0.00192234 0)
(-0.000998941 -0.00178069 0)
(-0.000322987 -0.00163411 0)
(0.000299232 -0.00148416 0)
(0.000866532 -0.00133232 0)
(0.00137823 -0.00117999 0)
(0.00183412 -0.00102842 0)
(0.00223439 -0.00087875 0)
(0.00257966 -0.000731945 0)
(0.00287083 -0.000588831 0)
(0.00310911 -0.000450083 0)
(0.00329594 -0.000316228 0)
(0.00343293 -0.000187668 0)
(0.00352185 -6.47003e-05 0)
(0.00356458 5.25245e-05 0)
(0.00356313 0.000163822 0)
(0.00351954 0.000269077 0)
(0.00343598 0.000368144 0)
(0.00331472 0.000460793 0)
(0.0031582 0.000546648 0)
(0.00296907 0.000625108 0)
(0.00275032 0.000695258 0)
(0.00250536 0.00075576 0)
(0.00223821 0.000804742 0)
(0.00195362 0.000839672 0)
(0.0016573 0.00085726 0)
(0.00135607 0.000853397 0)
(0.00105811 0.000823198 0)
(0.000773058 0.00076126 0)
(0.00051217 0.000662264 0)
(0.000286802 0.000522137 0)
(0.000118108 0.000339796 0)
(1.36242e-05 0.000122034 0)
(-1.03925e-05 4.35407e-05 0)
(-0.000105614 0.000227718 0)
(-0.000285948 0.000463668 0)
(-0.000553151 0.000709811 0)
(-0.000894184 0.000942334 0)
(-0.00130088 0.0011478 0)
(-0.0017632 0.00132053 0)
(-0.00227137 0.00146006 0)
(-0.00281647 0.00156913 0)
(-0.00339073 0.00165218 0)
(-0.00398768 0.00171428 0)
(-0.00460216 0.00176045 0)
(-0.00523024 0.00179524 0)
(-0.00586908 0.00182251 0)
(-0.00651675 0.00184535 0)
(-0.00717201 0.00186611 0)
(-0.00783419 0.00188648 0)
(-0.00850297 0.00190756 0)
(-0.00917829 0.00193 0)
(-0.00986019 0.00195405 0)
(-0.0105488 0.0019797 0)
(-0.0112441 0.00200673 0)
(-0.0119462 0.00203477 0)
(-0.0126549 0.00206334 0)
(-0.0133699 0.00209189 0)
(-0.0140907 0.00211983 0)
(-0.0148167 0.00214654 0)
(-0.015547 0.00217137 0)
(-0.0162806 0.00219368 0)
(-0.0170163 0.00221283 0)
(-0.0177526 0.00222816 0)
(-0.0184878 0.00223905 0)
(-0.0192203 0.00224487 0)
(-0.0199481 0.00224502 0)
(-0.0206689 0.00223891 0)
(-0.0213806 0.00222599 0)
(-0.0220806 0.0022057 0)
(-0.0227666 0.00217755 0)
(-0.0234359 0.00214105 0)
(-0.0240857 0.00209576 0)
(-0.0247133 0.00204127 0)
(-0.0253158 0.0019772 0)
(-0.0258903 0.00190321 0)
(-0.026434 0.00181901 0)
(-0.0269439 0.00172432 0)
(-0.0274171 0.00161895 0)
(-0.0278507 0.00150273 0)
(-0.0282417 0.00137555 0)
(-0.0285874 0.00123737 0)
(-0.028885 0.00108822 0)
(-0.0291317 0.000928191 0)
(-0.0293249 0.000757496 0)
(-0.0294621 0.000576433 0)
(-0.0295409 0.000385415 0)
(-0.0295591 0.000184987 0)
(-0.0295146 -2.41757e-05 0)
(-0.0294056 -0.000241246 0)
(-0.0292306 -0.000465245 0)
(-0.0289882 -0.000695033 0)
(-0.0286776 -0.000929311 0)
(-0.0282981 -0.00116662 0)
(-0.0278495 -0.00140534 0)
(-0.0273323 -0.00164373 0)
(-0.026747 -0.0018799 0)
(-0.0260948 -0.00211186 0)
(-0.0253777 -0.00233754 0)
(-0.0245978 -0.00255482 0)
(-0.023758 -0.00276156 0)
(-0.0228618 -0.00295564 0)
(-0.0219129 -0.003135 0)
(-0.020916 -0.00329766 0)
(-0.019876 -0.00344181 0)
(-0.0187983 -0.00356579 0)
(-0.0176887 -0.00366818 0)
(-0.0165535 -0.00374779 0)
(-0.0153992 -0.00380373 0)
(-0.0142323 -0.00383541 0)
(-0.0130599 -0.00384255 0)
(-0.0118887 -0.00382522 0)
(-0.0107255 -0.00378381 0)
(-0.00957718 -0.00371903 0)
(-0.00845011 -0.00363192 0)
(-0.00735052 -0.00352378 0)
(-0.00628422 -0.00339619 0)
(-0.0052566 -0.00325093 0)
(-0.00427254 -0.00308995 0)
(-0.00333637 -0.00291536 0)
(-0.00245186 -0.00272931 0)
(-0.00162217 -0.00253401 0)
(-0.000849864 -0.00233165 0)
(-0.00013689 -0.00212436 0)
(0.00051537 -0.00191416 0)
(0.00110609 -0.00170297 0)
(0.00163497 -0.0014925 0)
(0.00210217 -0.00128431 0)
(0.00250828 -0.00107975 0)
(0.00285423 -0.000879972 0)
(0.00314129 -0.00068591 0)
(0.00337098 -0.000498319 0)
(0.00354502 -0.000317775 0)
(0.00366531 -0.000144706 0)
(0.00373387 2.05845e-05 0)
(0.00375284 0.000177851 0)
(0.00372445 0.000326874 0)
(0.00365106 0.000467392 0)
(0.00353515 0.000599028 0)
(0.00337938 0.000721199 0)
(0.00318668 0.000833016 0)
(0.00296033 0.000933166 0)
(0.0027041 0.00101978 0)
(0.00242236 0.0010903 0)
(0.00212028 0.00114132 0)
(0.00180404 0.00116849 0)
(0.00148094 0.00116646 0)
(0.00115971 0.00112891 0)
(0.000850681 0.00104882 0)
(0.000566032 0.000919027 0)
(0.000318309 0.00073318 0)
(0.000131615 0.000487008 0)
(1.52208e-05 0.000181451 0)
(-1.44267e-05 9.85811e-05 0)
(-0.000140837 0.000386775 0)
(-0.000371325 0.000718398 0)
(-0.000704933 0.00105029 0)
(-0.00112231 0.00135765 0)
(-0.0016126 0.00162679 0)
(-0.0021636 0.00185238 0)
(-0.00276411 0.00203482 0)
(-0.00340427 0.00217807 0)
(-0.00407571 0.00228791 0)
(-0.00477158 0.00237082 0)
(-0.00548643 0.00243316 0)
(-0.00621615 0.00248065 0)
(-0.00695772 0.00251816 0)
(-0.00770905 0.00254961 0)
(-0.00846878 0.00257797 0)
(-0.00923605 0.00260537 0)
(-0.0100104 0.00263324 0)
(-0.0107916 0.00266238 0)
(-0.0115796 0.00269313 0)
(-0.0123742 0.00272549 0)
(-0.0131753 0.00275915 0)
(-0.0139826 0.00279364 0)
(-0.0147959 0.00282832 0)
(-0.0156146 0.00286249 0)
(-0.0164379 0.00289536 0)
(-0.0172649 0.0029261 0)
(-0.0180945 0.00295388 0)
(-0.0189252 0.00297785 0)
(-0.0197557 0.00299715 0)
(-0.0205841 0.00301095 0)
(-0.0214084 0.00301843 0)
(-0.0222266 0.00301879 0)
(-0.0230363 0.00301126 0)
(-0.0238351 0.0029951 0)
(-0.0246204 0.00296962 0)
(-0.0253895 0.00293417 0)
(-0.0261396 0.00288814 0)
(-0.0268679 0.00283097 0)
(-0.0275714 0.00276215 0)
(-0.0282473 0.00268122 0)
(-0.0288924 0.00258778 0)
(-0.029504 0.00248147 0)
(-0.0300789 0.002362 0)
(-0.0306144 0.0022291 0)
(-0.0311074 0.0020826 0)
(-0.0315551 0.00192236 0)
(-0.0319548 0.00174833 0)
(-0.0323036 0.0015605 0)
(-0.0325989 0.001359 0)
(-0.0328381 0.00114399 0)
(-0.0330187 0.00091579 0)
(-0.0331384 0.000674819 0)
(-0.0331948 0.000421637 0)
(-0.0331858 0.000156958 0)
(-0.0331095 -0.000118341 0)
(-0.0329642 -0.0004032 0)
(-0.0327483 -0.000696373 0)
(-0.0324607 -0.000996417 0)
(-0.0321005 -0.00130169 0)
(-0.031667 -0.00161035 0)
(-0.03116 -0.00192037 0)
(-0.03058 -0.00222954 0)
(-0.0299275 -0.00253549 0)
(-0.0292039 -0.00283571 0)
(-0.0284108 -0.00312759 0)
(-0.0275506 -0.00340846 0)
(-0.0266263 -0.00367562 0)
(-0.0256412 -0.00392636 0)
(-0.0245994 -0.00415808 0)
(-0.0235056 -0.00436828 0)
(-0.0223649 -0.00455461 0)
(-0.0211831 -0.00471497 0)
(-0.0199664 -0.00484752 0)
(-0.0187212 -0.00495074 0)
(-0.0174545 -0.00502345 0)
(-0.0161736 -0.00506486 0)
(-0.0148857 -0.0050746 0)
(-0.0135984 -0.00505272 0)
(-0.012319 -0.00499967 0)
(-0.0110549 -0.00491635 0)
(-0.00981314 -0.00480404 0)
(-0.00860061 -0.0046644 0)
(-0.00742369 -0.00449942 0)
(-0.00628832 -0.00431137 0)
(-0.00519991 -0.00410275 0)
(-0.00416325 -0.00387624 0)
(-0.00318254 -0.00363463 0)
(-0.00226127 -0.00338075 0)
(-0.00140231 -0.00311742 0)
(-0.000607818 -0.0028474 0)
(0.000120658 -0.00257332 0)
(0.000782199 -0.00229763 0)
(0.00137645 -0.00202259 0)
(0.00190359 -0.00175021 0)
(0.00236424 -0.00148226 0)
(0.00275944 -0.00122024 0)
(0.00309055 -0.000965382 0)
(0.00335923 -0.000718687 0)
(0.00356736 -0.000480922 0)
(0.00371699 -0.000252667 0)
(0.0038103 -3.43571e-05 0)
(0.00384961 0.000173661 0)
(0.00383733 0.000371061 0)
(0.00377599 0.000557455 0)
(0.00366824 0.000732302 0)
(0.00351696 0.000894792 0)
(0.00332528 0.00104373 0)
(0.0030967 0.00117737 0)
(0.00283521 0.00129329 0)
(0.00254546 0.00138821 0)
(0.0022329 0.00145783 0)
(0.001904 0.0014967 0)
(0.00156644 0.00149817 0)
(0.00122938 0.00145439 0)
(0.000903716 0.00135655 0)
(0.000602451 0.0011953 0)
(0.000339205 0.000961438 0)
(0.000140279 0.000646799 0)
(1.61951e-05 0.000246054 0)
(-1.83493e-05 0.000170071 0)
(-0.000175367 0.000587007 0)
(-0.00045549 0.00103215 0)
(-0.000855051 0.00146233 0)
(-0.00134831 0.00185317 0)
(-0.00192156 0.00219186 0)
(-0.00256023 0.00247436 0)
(-0.00325156 0.00270256 0)
(-0.00398468 0.00288205 0)
(-0.00475063 0.00302029 0)
(-0.00554217 0.00312532 0)
(-0.00635366 0.00320493 0)
(-0.00718082 0.00326608 0)
(-0.00802052 0.00331466 0)
(-0.00887058 0.00335542 0)
(-0.0097295 0.00339193 0)
(-0.0105963 0.00342679 0)
(-0.0114704 0.0034617 0)
(-0.0123514 0.00349763 0)
(-0.013239 0.00353498 0)
(-0.0141328 0.00357373 0)
(-0.0150326 0.00361349 0)
(-0.0159378 0.00365366 0)
(-0.0168478 0.00369344 0)
(-0.0177619 0.00373193 0)
(-0.0186789 0.00376815 0)
(-0.0195977 0.00380107 0)
(-0.0205168 0.00382962 0)
(-0.0214346 0.00385275 0)
(-0.0223491 0.0038694 0)
(-0.0232583 0.00387854 0)
(-0.02416 0.00387914 0)
(-0.0250517 0.00387026 0)
(-0.0259308 0.00385096 0)
(-0.0267946 0.00382039 0)
(-0.0276403 0.00377774 0)
(-0.0284649 0.00372226 0)
(-0.0292656 0.0036533 0)
(-0.0300394 0.00357024 0)
(-0.0307832 0.00347256 0)
(-0.0314941 0.00335979 0)
(-0.0321692 0.00323155 0)
(-0.0328055 0.0030875 0)
(-0.0334002 0.00292737 0)
(-0.0339506 0.00275098 0)
(-0.0344539 0.00255818 0)
(-0.0349074 0.00234891 0)
(-0.0353087 0.00212316 0)
(-0.0356551 0.00188102 0)
(-0.0359443 0.00162266 0)
(-0.0361739 0.00134836 0)
(-0.0363416 0.00105851 0)
(-0.0364452 0.000753647 0)
(-0.0364826 0.000434448 0)
(-0.0364518 0.000101777 0)
(-0.0363509 -0.000243318 0)
(-0.0361783 -0.000599577 0)
(-0.0359324 -0.000965518 0)
(-0.0356119 -0.00133943 0)
(-0.0352159 -0.00171935 0)
(-0.0347435 -0.00210308 0)
(-0.0341945 -0.00248821 0)
(-0.0335689 -0.00287207 0)
(-0.0328671 -0.00325183 0)
(-0.0320903 -0.00362444 0)
(-0.0312398 -0.00398677 0)
(-0.0303179 -0.00433554 0)
(-0.0293272 -0.00466745 0)
(-0.0282711 -0.00497922 0)
(-0.0271536 -0.0052676 0)
(-0.0259792 -0.00552951 0)
(-0.0247533 -0.00576204 0)
(-0.0234816 -0.00596255 0)
(-0.0221707 -0.00612872 0)
(-0.0208274 -0.0062586 0)
(-0.019459 -0.00635068 0)
(-0.0180733 -0.00640391 0)
(-0.0166782 -0.00641776 0)
(-0.0152818 -0.0063922 0)
(-0.0138922 -0.00632775 0)
(-0.0125175 -0.00622544 0)
(-0.0111656 -0.00608682 0)
(-0.00984408 -0.00591391 0)
(-0.00856001 -0.00570912 0)
(-0.00732008 -0.00547527 0)
(-0.00613033 -0.00521546 0)
(-0.00499615 -0.004933 0)
(-0.00392224 -0.00463138 0)
(-0.00291252 -0.00431413 0)
(-0.00197017 -0.00398479 0)
(-0.00109763 -0.0036468 0)
(-0.000296571 -0.00330347 0)
(0.000431999 -0.00295788 0)
(0.00108773 -0.00261287 0)
(0.00167087 -0.00227096 0)
(0.00218216 -0.00193438 0)
(0.00262282 -0.00160503 0)
(0.0029944 -0.00128445 0)
(0.0032988 -0.000973905 0)
(0.00353812 -0.000674369 0)
(0.00371465 -0.000386577 0)
(0.00383085 -0.000111089 0)
(0.00388923 0.000151643 0)
(0.00389245 0.000401189 0)
(0.00384323 0.000637039 0)
(0.00374446 0.000858489 0)
(0.00359917 0.0010645 0)
(0.0034107 0.00125357 0)
(0.00318272 0.00142351 0)
(0.00291941 0.00157135 0)
(0.0026256 0.00169304 0)
(0.00230695 0.00178339 0)
(0.00197015 0.00183581 0)
(0.00162316 0.00184228 0)
(0.00127549 0.00179333 0)
(0.000938523 0.00167815 0)
(0.000625984 0.00148492 0)
(0.000352372 0.00120126 0)
(0.000145514 0.000814731 0)
(1.67464e-05 0.000313812 0)
(-2.21458e-05 0.00025757 0)
(-0.000208935 0.000827597 0)
(-0.00053759 0.00140403 0)
(-0.00100181 0.001945 0)
(-0.00156955 0.00242784 0)
(-0.00222417 0.00284174 0)
(-0.00294865 0.00318481 0)
(-0.00372859 0.00346115 0)
(-0.00455206 0.00367847 0)
(-0.00540947 0.0038462 0)
(-0.00629321 0.00397417 0)
(-0.00719742 0.00407171 0)
(-0.00811771 0.00414706 0)
(-0.0090509 0.00420719 0)
(-0.0099947 0.00425762 0)
(-0.0109475 0.00430256 0)
(-0.0119083 0.00434501 0)
(-0.0128763 0.00438693 0)
(-0.0138509 0.00442944 0)
(-0.0148317 0.00447299 0)
(-0.0158181 0.00451749 0)
(-0.0168095 0.00456248 0)
(-0.0178051 0.00460718 0)
(-0.0188042 0.00465065 0)
(-0.0198055 0.00469177 0)
(-0.0208077 0.00472935 0)
(-0.0218094 0.00476212 0)
(-0.0228088 0.00478883 0)
(-0.0238038 0.00480818 0)
(-0.0247923 0.00481891 0)
(-0.0257719 0.00481981 0)
(-0.0267401 0.00480968 0)
(-0.0276942 0.00478742 0)
(-0.0286313 0.00475198 0)
(-0.0295486 0.0047024 0)
(-0.0304431 0.0046378 0)
(-0.0313117 0.0045574 0)
(-0.0321515 0.00446051 0)
(-0.0329595 0.00434655 0)
(-0.0337329 0.00421502 0)
(-0.0344687 0.00406549 0)
(-0.0351642 0.00389765 0)
(-0.0358167 0.00371125 0)
(-0.0364237 0.00350608 0)
(-0.0369827 0.00328205 0)
(-0.0374914 0.00303909 0)
(-0.0379475 0.00277721 0)
(-0.0383487 0.00249648 0)
(-0.038693 0.00219706 0)
(-0.0389783 0.00187917 0)
(-0.0392024 0.00154316 0)
(-0.0393633 0.00118946 0)
(-0.0394592 0.000818689 0)
(-0.039488 0.000431587 0)
(-0.0394477 2.91075e-05 0)
(-0.0393366 -0.000387591 0)
(-0.0391527 -0.000817111 0)
(-0.0388945 -0.0012578 0)
(-0.0385604 -0.00170773 0)
(-0.038149 -0.0021647 0)
(-0.0376593 -0.00262619 0)
(-0.0370903 -0.00308944 0)
(-0.0364417 -0.00355138 0)
(-0.0357135 -0.00400869 0)
(-0.0349059 -0.00445784 0)
(-0.0340202 -0.00489511 0)
(-0.0330578 -0.00531662 0)
(-0.032021 -0.00571842 0)
(-0.0309127 -0.00609657 0)
(-0.0297365 -0.00644713 0)
(-0.028497 -0.00676634 0)
(-0.0271992 -0.00705061 0)
(-0.0258491 -0.00729666 0)
(-0.0244531 -0.00750157 0)
(-0.0230186 -0.00766287 0)
(-0.0215533 -0.00777858 0)
(-0.0200655 -0.0078473 0)
(-0.0185639 -0.00786823 0)
(-0.0170575 -0.00784122 0)
(-0.0155551 -0.00776676 0)
(-0.014066 -0.007646 0)
(-0.0125989 -0.00748074 0)
(-0.0111626 -0.00727333 0)
(-0.00976501 -0.00702669 0)
(-0.00841392 -0.0067442 0)
(-0.00711622 -0.00642963 0)
(-0.00587814 -0.00608702 0)
(-0.00470505 -0.00572065 0)
(-0.00360149 -0.00533484 0)
(-0.00257108 -0.00493397 0)
(-0.00161659 -0.00452228 0)
(-0.000739902 -0.00410384 0)
(5.79004e-05 -0.00368246 0)
(0.0007765 -0.00326165 0)
(0.00141626 -0.00284452 0)
(0.00197815 -0.00243383 0)
(0.00246364 -0.00203188 0)
(0.00287463 -0.0016406 0)
(0.00321334 -0.00126152 0)
(0.00348228 -0.000895821 0)
(0.00368409 -0.000544407 0)
(0.00382159 -0.000207946 0)
(0.00389766 0.000113018 0)
(0.00391526 0.000417972 0)
(0.00387742 0.000706303 0)
(0.00378727 0.000977164 0)
(0.00364811 0.00122931 0)