/*--------------------------------*- C++ -*----------------------------------*\
| =========                 |                                                 |
| \\      /  F ield         | OpenFOAM: The Open Source CFD Toolbox           |
|  \\    /   O peration     | Version:  2406                                  |
|   \\  /    A nd           | Website:  www.openfoam.com                      |
|    \\/     M anipulation  |                                                 |
\*---------------------------------------------------------------------------*/
FoamFile
{
    version     2.0;
    format      ascii;
    arch        "LSB;label=32;scalar=64";
    class       volScalarField;
    location    "29.3";
    object      p;
}
// * * * * * * * * * * * * * * * * * * * * * * * * * * * * * * * * * * * * * //

dimensions      [0 2 -2 0 0 0 0];

internalField   nonuniform List<scalar> 
14400
(
0.0399309
0.0399412
0.0399487
0.0399572
0.0399568
0.0399514
0.039936
0.0399141
0.0398837
0.0398474
0.039805
0.0397582
0.0397074
0.0396536
0.0395971
0.0395383
0.0394768
0.0394126
0.0393451
0.0392736
0.0391973
0.0391153
0.0390267
0.0389307
0.0388264
0.0387128
0.0385893
0.0384551
0.0383095
0.0381518
0.0379815
0.0377982
0.0376014
0.0373909
0.0371667
0.036929
0.0366783
0.0364155
0.0361417
0.0358586
0.0355683
0.0352734
0.0349771
0.034683
0.0343952
0.0341184
0.0338576
0.0336182
0.033406
0.0332266
0.0330861
0.0329901
0.0329442
0.0329533
0.033022
0.0331539
0.0333517
0.0336171
0.0339503
0.0343503
0.0348145
0.0353387
0.035917
0.0365417
0.0372037
0.0378921
0.0385948
0.0392982
0.039988
0.0406493
0.0412667
0.0418255
0.0423115
0.0427119
0.0430157
0.0432142
0.0433013
0.0432742
0.043133
0.0428813
0.0425259
0.0420765
0.0415453
0.0409466
0.0402958
0.0396092
0.0389031
0.0381931
0.0374935
0.0368171
0.0361744
0.0355739
0.0350217
0.0345216
0.0340754
0.0336832
0.0333433
0.0330529
0.0328084
0.0326057
0.03244
0.032307
0.0322019
0.0321208
0.0320594
0.0320146
0.0319829
0.0319621
0.0319495
0.0319439
0.031943
0.031947
0.0319537
0.0319646
0.0319769
0.0319935
0.0320096
0.0320286
0.032042
0.0320518
0.0399206
0.0399309
0.0399337
0.0399387
0.0399346
0.0399276
0.0399115
0.0398903
0.0398614
0.0398275
0.0397878
0.0397442
0.0396964
0.0396457
0.0395919
0.0395356
0.0394765
0.0394144
0.0393488
0.0392792
0.0392049
0.0391252
0.0390392
0.0389462
0.0388453
0.0387358
0.038617
0.0384881
0.0383484
0.0381974
0.0380345
0.0378591
0.0376709
0.0374696
0.0372551
0.0370274
0.0367871
0.0365348
0.0362716
0.0359989
0.0357186
0.0354331
0.0351454
0.0348588
0.0345773
0.0343053
0.0340476
0.0338094
0.0335963
0.033414
0.0332682
0.0331646
0.0331088
0.0331057
0.0331599
0.0332751
0.0334541
0.0336987
0.0340094
0.0343854
0.0348243
0.0353221
0.0358732
0.0364704
0.0371047
0.0377658
0.0384416
0.0391192
0.0397845
0.0404228
0.0410194
0.0415597
0.0420298
0.0424172
0.0427111
0.0429029
0.0429868
0.0429599
0.0428226
0.0425783
0.0422337
0.0417985
0.0412846
0.040706
0.0400779
0.0394161
0.0387365
0.038054
0.0373824
0.0367337
0.0361181
0.0355434
0.035015
0.0345366
0.0341094
0.0337333
0.0334065
0.0331264
0.0328894
0.0326915
0.0325283
0.0323956
0.0322892
0.0322054
0.0321403
0.0320909
0.0320543
0.0320283
0.0320105
0.0319998
0.0319939
0.0319931
0.0319949
0.032001
0.032008
0.0320193
0.0320292
0.0320431
0.0320514
0.0320615
0.039913
0.039928
0.0399309
0.0399371
0.0399326
0.0399257
0.0399092
0.039888
0.039859
0.0398254
0.0397859
0.0397428
0.0396957
0.0396459
0.0395932
0.0395382
0.0394804
0.0394198
0.0393559
0.0392881
0.0392157
0.039138
0.0390541
0.0389634
0.038865
0.0387581
0.0386421
0.0385162
0.0383798
0.0382321
0.0380726
0.0379006
0.0377158
0.0375177
0.0373061
0.037081
0.0368427
0.0365918
0.0363291
0.036056
0.0357743
0.0354862
0.0351946
0.0349028
0.0346147
0.0343349
0.0340681
0.0338198
0.0335956
0.0334013
0.033243
0.0331266
0.0330577
0.0330417
0.0330832
0.0331862
0.0333539
0.0335879
0.0338892
0.0342569
0.0346887
0.0351808
0.0357276
0.036322
0.0369549
0.037616
0.0382933
0.0389736
0.0396427
0.0402859
0.0408882
0.0414346
0.0419112
0.042305
0.042605
0.0428023
0.0428908
0.0428674
0.0427324
0.0424892
0.0421445
0.0417081
0.0411922
0.0406111
0.0399803
0.0393161
0.0386346
0.0379514
0.0372803
0.0366337
0.0360217
0.0354522
0.0349305
0.03446
0.0340417
0.0336751
0.0333581
0.0330877
0.0328599
0.0326705
0.032515
0.0323891
0.0322884
0.0322091
0.0321477
0.0321011
0.0320663
0.0320416
0.0320243
0.0320137
0.0320075
0.0320061
0.0320069
0.032012
0.0320176
0.0320282
0.0320367
0.0320516
0.0320596
0.0320753
0.0399037
0.0399225
0.0399245
0.0399309
0.0399248
0.0399172
0.0398998
0.0398786
0.0398497
0.0398167
0.0397783
0.0397367
0.0396914
0.0396437
0.0395933
0.0395408
0.0394856
0.0394278
0.0393668
0.0393021
0.0392329
0.0391586
0.0390785
0.0389917
0.0388976
0.0387954
0.0386844
0.0385638
0.038433
0.0382912
0.0381376
0.0379716
0.0377925
0.0375998
0.0373931
0.037172
0.0369367
0.0366874
0.0364248
0.0361499
0.0358644
0.0355705
0.0352708
0.0349686
0.034668
0.0343734
0.03409
0.0338233
0.0335792
0.0333639
0.0331837
0.0330447
0.032953
0.032914
0.0329328
0.0330135
0.0331593
0.0333724
0.0336535
0.034002
0.0344158
0.0348912
0.0354228
0.0360035
0.0366245
0.0372755
0.0379448
0.0386191
0.0392846
0.0399263
0.0405292
0.0410785
0.0415598
0.0419601
0.0422681
0.0424745
0.042573
0.0425601
0.0424358
0.0422033
0.0418691
0.0414429
0.040937
0.0403657
0.0397448
0.0390906
0.0384197
0.0377477
0.0370887
0.0364552
0.0358575
0.0353032
0.0347977
0.034344
0.0339429
0.0335936
0.0332935
0.0330393
0.0328267
0.032651
0.0325077
0.0323922
0.0323001
0.0322277
0.0321714
0.0321285
0.0320961
0.0320725
0.0320555
0.0320443
0.0320368
0.0320338
0.0320322
0.0320351
0.0320375
0.0320459
0.0320511
0.0320657
0.0320721
0.0320938
0.0399023
0.0399253
0.0399278
0.0399357
0.0399292
0.0399216
0.0399033
0.0398814
0.0398517
0.0398182
0.0397795
0.0397381
0.0396934
0.0396467
0.0395978
0.0395471
0.0394942
0.039439
0.0393809
0.0393192
0.0392532
0.0391823
0.0391056
0.0390223
0.0389317
0.038833
0.0387255
0.0386082
0.0384804
0.0383411
0.0381895
0.0380245
0.0378453
0.037651
0.0374408
0.0372144
0.0369713
0.0367116
0.0364359
0.0361451
0.0358408
0.0355252
0.0352014
0.0348729
0.034544
0.0342198
0.0339058
0.0336082
0.0333332
0.0330877
0.0328782
0.0327114
0.0325935
0.0325302
0.0325267
0.0325871
0.0327149
0.032912
0.0331794
0.0335164
0.033921
0.0343893
0.0349161
0.0354944
0.0361155
0.036769
0.0374434
0.0381255
0.0388013
0.0394559
0.0400742
0.040641
0.0411417
0.0415629
0.0418926
0.0421213
0.0422418
0.0422501
0.0421455
0.0419309
0.0416124
0.0411994
0.0407042
0.0401411
0.0395262
0.0388764
0.0382085
0.0375388
0.036882
0.0362513
0.0356571
0.0351078
0.034609
0.0341638
0.0337731
0.0334358
0.0331493
0.0329096
0.0327122
0.032552
0.0324238
0.0323227
0.0322441
0.0321839
0.0321383
0.0321046
0.0320798
0.0320626
0.0320504
0.032043
0.0320381
0.0320369
0.0320362
0.0320397
0.0320419
0.0320508
0.0320555
0.0320724
0.0320792
0.0321077
0.0399044
0.03993
0.0399323
0.0399407
0.0399331
0.0399247
0.039905
0.0398821
0.0398514
0.0398175
0.0397787
0.0397378
0.0396941
0.0396491
0.0396023
0.0395543
0.0395044
0.0394525
0.0393979
0.03934
0.039278
0.039211
0.0391384
0.0390592
0.0389726
0.0388777
0.0387737
0.0386595
0.038534
0.0383961
0.0382445
0.0380779
0.037895
0.0376945
0.0374754
0.0372367
0.0369778
0.0366988
0.0363999
0.0360823
0.0357478
0.0353989
0.035039
0.0346724
0.0343039
0.0339392
0.0335846
0.0332466
0.0329322
0.0326484
0.0324022
0.0322005
0.0320495
0.0319552
0.0319226
0.0319559
0.0320585
0.0322323
0.0324783
0.0327959
0.033183
0.0336361
0.03415
0.034718
0.0353318
0.0359812
0.036655
0.0373404
0.0380236
0.0386899
0.0393242
0.0399112
0.0404362
0.0408854
0.0412462
0.0415084
0.0416642
0.0417086
0.0416401
0.0414607
0.0411759
0.0407943
0.0403278
0.0397905
0.0391985
0.0385686
0.0379181
0.0372636
0.0366203
0.0360019
0.0354194
0.0348817
0.0343946
0.0339618
0.0335842
0.0332609
0.0329893
0.0327653
0.0325841
0.0324402
0.0323282
0.0322428
0.0321789
0.0321322
0.0320987
0.0320756
0.0320598
0.03205
0.0320437
0.0320409
0.0320391
0.0320402
0.0320406
0.0320449
0.0320467
0.0320557
0.0320594
0.0320776
0.0320842
0.032118
0.0399151
0.0399429
0.0399452
0.0399541
0.0399455
0.0399362
0.0399148
0.0398904
0.039858
0.039823
0.0397834
0.0397424
0.0396991
0.0396552
0.0396102
0.0395645
0.0395174
0.0394687
0.0394175
0.0393632
0.0393047
0.0392413
0.0391719
0.0390957
0.0390116
0.0389184
0.0388151
0.0387003
0.0385725
0.0384301
0.0382714
0.0380945
0.0378978
0.0376794
0.037438
0.0371724
0.0368819
0.0365666
0.036227
0.0358649
0.0354825
0.0350832
0.0346712
0.0342515
0.03383
0.0334129
0.0330073
0.0326202
0.032259
0.031931
0.0316434
0.0314031
0.0312163
0.0310889
0.0310257
0.0310311
0.0311079
0.0312584
0.0314832
0.0317819
0.0321526
0.0325918
0.0330948
0.033655
0.0342645
0.0349137
0.0355918
0.0362863
0.0369838
0.0376699
0.0383297
0.0389479
0.0395095
0.0400003
0.0404072
0.040719
0.0409269
0.041025
0.0410103
0.0408836
0.0406493
0.0403151
0.0398919
0.0393934
0.0388353
0.0382345
0.0376084
0.036974
0.0363473
0.0357425
0.0351714
0.0346434
0.0341654
0.0337413
0.0333729
0.0330595
0.0327987
0.0325867
0.0324185
0.0322887
0.0321914
0.0321211
0.0320722
0.0320402
0.0320206
0.0320103
0.0320061
0.0320065
0.0320089
0.0320135
0.0320176
0.0320235
0.0320274
0.0320345
0.0320379
0.0320487
0.032053
0.0320734
0.0320804
0.0321186
0.0399317
0.0399605
0.0399623
0.0399706
0.0399604
0.0399494
0.0399259
0.0398995
0.0398653
0.039829
0.0397887
0.0397476
0.039705
0.0396625
0.0396195
0.0395763
0.0395323
0.0394869
0.0394392
0.0393884
0.0393333
0.039273
0.0392062
0.0391318
0.0390485
0.0389547
0.038849
0.0387295
0.0385942
0.0384408
0.0382671
0.0380707
0.0378493
0.0376008
0.0373237
0.0370168
0.0366797
0.0363127
0.0359174
0.0354959
0.0350517
0.0345891
0.0341132
0.0336299
0.0331459
0.0326683
0.0322042
0.0317614
0.0313473
0.0309694
0.0306348
0.0303501
0.0301217
0.0299551
0.0298551
0.0298257
0.0298699
0.0299896
0.0301856
0.0304576
0.030804
0.0312215
0.0317058
0.0322509
0.0328494
0.0334925
0.0341699
0.0348699
0.0355797
0.0362855
0.0369727
0.0376264
0.0382315
0.0387735
0.0392387
0.0396151
0.0398928
0.0400642
0.0401251
0.0400745
0.0399151
0.039653
0.0392979
0.0388623
0.0383611
0.0378108
0.0372288
0.0366322
0.0360373
0.0354591
0.03491
0.0344004
0.0339377
0.0335268
0.03317
0.0328675
0.0326173
0.0324159
0.0322588
0.0321407
0.0320556
0.0319979
0.031962
0.0319429
0.0319359
0.0319377
0.0319447
0.0319552
0.0319665
0.0319787
0.0319893
0.0320004
0.0320082
0.0320185
0.0320238
0.0320363
0.0320411
0.0320628
0.0320701
0.0321108
0.039957
0.0399863
0.0399874
0.0399948
0.0399827
0.0399696
0.0399435
0.0399147
0.0398784
0.0398403
0.0397989
0.0397574
0.0397151
0.0396736
0.0396323
0.0395914
0.0395499
0.0395073
0.0394624
0.0394142
0.0393613
0.0393023
0.0392359
0.0391604
0.0390741
0.0389749
0.0388607
0.0387289
0.0385768
0.0384016
0.0382003
0.03797
0.0377082
0.0374127
0.037082
0.0367154
0.0363133
0.035877
0.0354088
0.0349122
0.0343919
0.033853
0.0333019
0.0327453
0.0321904
0.0316448
0.0311162
0.0306122
0.0301405
0.0297083
0.0293228
0.0289904
0.0287171
0.0285082
0.0283684
0.0283013
0.0283099
0.028396
0.0285605
0.0288031
0.0291224
0.0295156
0.0299788
0.0305065
0.0310922
0.0317277
0.0324035
0.033109
0.0338321
0.0345598
0.0352783
0.0359729
0.036629
0.0372318
0.0377674
0.0382228
0.0385869
0.0388507
0.039008
0.0390558
0.0389947
0.0388287
0.0385654
0.0382158
0.0377933
0.0373137
0.0367938
0.0362507
0.0357011
0.0351603
0.0346419
0.034157
0.033714
0.0333188
0.0329747
0.0326826
0.0324415
0.0322484
0.0320994
0.0319896
0.0319134
0.0318652
0.0318394
0.0318309
0.0318347
0.0318474
0.0318649
0.0318854
0.0319059
0.0319266
0.0319444
0.0319618
0.0319748
0.0319892
0.0319976
0.0320125
0.0320188
0.0320418
0.0320495
0.0320912
0.0399899
0.0400189
0.0400188
0.0400244
0.0400099
0.039994
0.039965
0.0399334
0.0398947
0.0398547
0.0398121
0.0397702
0.0397282
0.0396878
0.039648
0.039609
0.0395697
0.0395292
0.0394861
0.0394392
0.0393867
0.0393268
0.0392577
0.0391771
0.0390826
0.0389716
0.038841
0.0386874
0.0385075
0.0382976
0.0380544
0.0377746
0.0374558
0.0370961
0.0366948
0.0362519
0.0357689
0.0352484
0.034694
0.0341106
0.0335037
0.0328798
0.0322459
0.0316094
0.030978
0.0303596
0.0297619
0.0291928
0.0286596
0.0281696
0.0277296
0.0273457
0.0270236
0.0267685
0.0265845
0.0264752
0.0264433
0.0264906
0.026618
0.0268252
0.0271112
0.0274735
0.0279087
0.0284121
0.0289779
0.0295988
0.0302665
0.0309713
0.0317025
0.032448
0.0331949
0.0339297
0.0346381
0.0353057
0.0359185
0.0364629
0.0369267
0.0372996
0.0375732
0.0377424
0.037805
0.0377624
0.0376197
0.0373851
0.0370703
0.0366892
0.0362575
0.0357919
0.035309
0.0348246
0.0343528
0.0339058
0.0334932
0.0331219
0.0327963
0.0325185
0.0322884
0.0321041
0.0319624
0.031859
0.0317889
0.0317469
0.0317277
0.0317264
0.0317379
0.0317584
0.0317841
0.0318127
0.031841
0.0318689
0.0318934
0.0319166
0.0319345
0.0319529
0.0319644
0.0319815
0.0319892
0.0320127
0.0320207
0.0320617
0.0400324
0.0400604
0.0400589
0.0400621
0.0400449
0.0400257
0.0399936
0.0399588
0.0399174
0.0398753
0.0398313
0.0397886
0.0397467
0.0397067
0.0396679
0.03963
0.0395917
0.0395519
0.0395089
0.0394608
0.0394056
0.0393408
0.039264
0.0391721
0.0390618
0.0389296
0.0387714
0.0385832
0.0383608
0.0381001
0.0377976
0.0374503
0.0370561
0.0366141
0.0361245
0.0355889
0.0350101
0.0343921
0.03374
0.0330597
0.0323579
0.031642
0.0309195
0.0301985
0.0294869
0.0287928
0.0281239
0.0274879
0.0268922
0.0263435
0.0258483
0.0254126
0.0250416
0.0247398
0.0245114
0.0243594
0.0242863
0.0242938
0.0243827
0.0245527
0.024803
0.0251316
0.0255354
0.0260105
0.0265519
0.0271533
0.0278075
0.0285061
0.0292396
0.0299975
0.0307681
0.031539
0.032297
0.0330285
0.0337197
0.0343571
0.0349278
0.0354201
0.035824
0.0361319
0.0363389
0.0364432
0.0364467
0.0363545
0.0361752
0.0359203
0.0356036
0.0352404
0.0348469
0.0344388
0.0340308
0.0336361
0.0332654
0.0329269
0.0326266
0.0323678
0.0321516
0.0319774
0.0318428
0.0317447
0.0316787
0.0316404
0.0316249
0.0316275
0.0316435
0.0316692
0.0317004
0.031735
0.0317694
0.0318033
0.0318335
0.031862
0.0318846
0.031907
0.0319217
0.031941
0.0319503
0.031974
0.0319823
0.0320214
0.0400843
0.0401104
0.0401071
0.0401073
0.0400869
0.040064
0.0400284
0.0399902
0.039946
0.0399016
0.0398561
0.0398125
0.0397702
0.0397303
0.0396916
0.0396537
0.039615
0.039574
0.0395284
0.0394759
0.0394137
0.0393387
0.0392475
0.039136
0.0390001
0.038835
0.038636
0.0383982
0.038117
0.0377883
0.0374088
0.0369762
0.0364895
0.0359491
0.0353566
0.0347153
0.0340295
0.0333046
0.0325469
0.0317637
0.0309624
0.030151
0.0293378
0.028531
0.0277388
0.0269691
0.0262298
0.0255283
0.0248714
0.0242658
0.0237174
0.0232315
0.0228131
0.0224661
0.0221942
0.022
0.0218858
0.0218528
0.0219018
0.0220326
0.0222444
0.0225354
0.0229033
0.0233445
0.023855
0.0244295
0.025062
0.0257454
0.0264717
0.0272319
0.028016
0.0288131
0.0296116
0.030399
0.0311625
0.031889
0.0325657
0.0331801
0.033721
0.0341787
0.0345455
0.0348166
0.0349899
0.0350669
0.0350524
0.0349542
0.0347833
0.0345528
0.0342771
0.0339714
0.0336505
0.0333281
0.0330161
0.0327244
0.0324602
0.0322287
0.0320323
0.0318721
0.0317469
0.0316548
0.0315925
0.0315563
0.0315422
0.031546
0.0315634
0.031591
0.0316247
0.0316623
0.0317002
0.031738
0.0317722
0.0318045
0.0318307
0.031856
0.0318734
0.0318942
0.0319049
0.0319281
0.0319364
0.0319724
0.0401471
0.0401706
0.0401652
0.0401616
0.0401379
0.0401109
0.0400716
0.0400298
0.0399827
0.0399358
0.0398885
0.0398436
0.0398003
0.0397594
0.0397196
0.03968
0.0396386
0.0395934
0.0395414
0.0394797
0.0394045
0.0393119
0.0391972
0.0390555
0.0388814
0.0386692
0.0384136
0.0381091
0.0377513
0.0373364
0.0368621
0.0363273
0.0357324
0.0350794
0.034372
0.0336147
0.0328136
0.0319754
0.0311077
0.0302185
0.0293162
0.0284094
0.0275065
0.026616
0.0257462
0.0249049
0.0240996
0.0233374
0.0226248
0.0219677
0.0213715
0.0208411
0.0203805
0.0199933
0.0196824
0.0194502
0.0192983
0.0192277
0.019239
0.0193319
0.0195056
0.0197586
0.0200888
0.0204935
0.0209691
0.0215114
0.0221155
0.0227756
0.0234852
0.0242369
0.0250226
0.0258331
0.0266585
0.0274882
0.0283109
0.0291146
0.0298871
0.0306162
0.0312901
0.0318976
0.0324291
0.0328766
0.0332346
0.0335004
0.0336742
0.0337597
0.0337637
0.0336957
0.0335675
0.0333925
0.0331847
0.0329577
0.0327245
0.0324961
0.0322815
0.0320877
0.0319193
0.0317787
0.0316668
0.0315829
0.031525
0.0314907
0.0314768
0.03148
0.0314965
0.0315234
0.0315569
0.0315949
0.0316339
0.0316733
0.0317096
0.0317441
0.0317727
0.0318
0.0318194
0.0318411
0.0318529
0.0318751
0.0318833
0.0319154
0.0402212
0.0402411
0.0402333
0.0402253
0.040198
0.0401664
0.0401234
0.0400779
0.0400277
0.0399782
0.0399288
0.0398819
0.0398367
0.0397937
0.039751
0.0397074
0.0396603
0.0396069
0.0395435
0.0394663
0.0393705
0.0392509
0.0391017
0.0389169
0.03869
0.0384148
0.0380855
0.0376968
0.0372448
0.0367267
0.0361417
0.0354902
0.0347747
0.0339989
0.0331682
0.0322889
0.0313684
0.0304149
0.0294367
0.0284429
0.0274424
0.0264441
0.0254567
0.0244888
0.0235484
0.0226431
0.0217798
0.0209652
0.0202051
0.0195047
0.0188687
0.0183012
0.0178055
0.0173846
0.0170407
0.0167756
0.0165905
0.0164861
0.0164625
0.0165195
0.0166561
0.0168711
0.0171627
0.0175284
0.0179655
0.0184705
0.0190396
0.0196681
0.0203511
0.0210826
0.0218563
0.022665
0.0235009
0.0243552
0.0252185
0.0260808
0.0269313
0.0277587
0.0285515
0.0292985
0.0299885
0.0306116
0.0311591
0.0316244
0.0320032
0.0322944
0.0324995
0.0326235
0.032674
0.0326611
0.0325967
0.0324935
0.0323641
0.0322208
0.0320741
0.0319328
0.0318037
0.0316915
0.031599
0.0315275
0.0314766
0.0314453
0.0314316
0.0314332
0.0314472
0.0314713
0.0315023
0.0315381
0.0315757
0.0316142
0.0316503
0.031685
0.0317143
0.0317422
0.0317625
0.0317841
0.0317964
0.031817
0.0318249
0.0318526
0.0403077
0.0403228
0.0403124
0.0402995
0.0402684
0.0402322
0.0401854
0.0401359
0.0400827
0.0400301
0.039978
0.0399282
0.03988
0.0398329
0.039785
0.0397341
0.0396771
0.0396102
0.039529
0.0394282
0.039302
0.0391439
0.0389471
0.0387042
0.0384084
0.0380531
0.0376325
0.0371422
0.0365794
0.035943
0.0352338
0.0344545
0.0336092
0.0327039
0.0317455
0.030742
0.0297021
0.0286351
0.0275503
0.0264572
0.0253653
0.0242837
0.0232211
0.0221857
0.0211852
0.0202267
0.0193166
0.0184605
0.0176637
0.0169304
0.0162646
0.0156694
0.0151476
0.0147012
0.0143318
0.0140408
0.0138287
0.013696
0.0136424
0.0136675
0.0137703
0.0139497
0.014204
0.0145311
0.0149287
0.0153942
0.0159243
0.0165156
0.0171643
0.0178658
0.0186156
0.0194081
0.0202376
0.0210975
0.0219805
0.0228787
0.0237834
0.0246851
0.0255737
0.0264386
0.0272687
0.0280531
0.0287812
0.0294434
0.0300314
0.0305391
0.0309628
0.0313018
0.0315584
0.0317378
0.031848
0.0318991
0.0319025
0.0318702
0.0318136
0.0317435
0.0316687
0.0315966
0.0315323
0.0314794
0.0314398
0.0314141
0.0314019
0.0314022
0.0314132
0.0314332
0.0314599
0.0314916
0.0315256
0.0315611
0.031595
0.031628
0.0316563
0.0316832
0.0317033
0.031724
0.0317361
0.0317547
0.031762
0.0317852
0.0404068
0.040416
0.0404028
0.0403843
0.0403496
0.0403084
0.0402579
0.0402043
0.0401477
0.0400916
0.0400361
0.0399823
0.0399292
0.0398757
0.0398193
0.039757
0.0396848
0.0395979
0.0394907
0.0393565
0.0391884
0.0389786
0.0387192
0.0384023
0.0380207
0.037568
0.0370395
0.0364319
0.0357442
0.0349774
0.0341342
0.0332196
0.0322398
0.0312026
0.0301166
0.0289912
0.0278364
0.0266623
0.025479
0.0242964
0.023124
0.021971
0.0208456
0.0197557
0.0187083
0.0177097
0.0167654
0.0158802
0.0150582
0.0143031
0.0136177
0.0130044
0.0124651
0.0120013
0.0116138
0.0113035
0.0110705
0.0109147
0.0108359
0.0108332
0.0109058
0.0110523
0.0112714
0.0115612
0.0119197
0.0123447
0.0128338
0.0133842
0.0139931
0.0146574
0.0153735
0.0161377
0.016946
0.0177939
0.0186761
0.0195872
0.0205207
0.0214695
0.0224255
0.0233798
0.0243226
0.0252434
0.0261311
0.0269744
0.0277623
0.0284849
0.0291333
0.029701
0.0301843
0.0305821
0.030897
0.0311344
0.0313025
0.0314115
0.0314725
0.0314972
0.0314966
0.0314802
0.0314564
0.0314312
0.0314093
0.0313935
0.0313855
0.0313858
0.031394
0.0314095
0.0314308
0.0314569
0.0314855
0.031516
0.0315457
0.0315751
0.0316007
0.0316252
0.0316436
0.0316624
0.0316735
0.0316897
0.0316962
0.0317151
0.040519
0.0405211
0.040505
0.0404804
0.0404421
0.0403958
0.0403417
0.0402837
0.0402235
0.040163
0.0401031
0.0400435
0.0399832
0.0399202
0.0398512
0.0397722
0.0396782
0.0395631
0.03942
0.039241
0.0390177
0.0387414
0.0384035
0.037996
0.0375118
0.0369457
0.0362943
0.0355562
0.0347326
0.0338267
0.0328437
0.0317906
0.0306757
0.0295086
0.0282994
0.0270589
0.0257979
0.0245273
0.0232575
0.0219985
0.0207597
0.0195497
0.0183764
0.0172466
0.0161666
0.0151416
0.0141762
0.0132741
0.0124386
0.0116722
0.0109769
0.0103545
0.00980591
0.00933206
0.00893338
0.00861003
0.00836189
0.00818858
0.00808948
0.00806376
0.00811035
0.00822802
0.00841533
0.00867069
0.00899237
0.00937848
0.00982705
0.010336
0.0109031
0.0115261
0.0122028
0.0129305
0.0137066
0.0145284
0.0153928
0.0162962
0.0172345
0.0182031
0.0191966
0.0202082
0.0212304
0.0222544
0.0232701
0.0242663
0.0252309
0.0261515
0.0270158
0.0278121
0.0285305
0.0291635
0.0297068
0.0301593
0.0305238
0.0308065
0.0310164
0.0311644
0.0312624
0.0313223
0.0313551
0.03137
0.0313749
0.0313755
0.0313759
0.0313789
0.0313858
0.0313972
0.0314128
0.0314323
0.0314543
0.0314784
0.0315023
0.0315264
0.0315477
0.0315683
0.0315839
0.0315998
0.0316093
0.0316227
0.0316281
0.0316433
0.0406441
0.0406377
0.0406187
0.0405876
0.0405458
0.0404943
0.0404366
0.040374
0.0403096
0.0402438
0.0401778
0.0401103
0.0400399
0.0399632
0.0398765
0.0397744
0.0396506
0.0394977
0.0393074
0.0390705
0.0387777
0.0384194
0.0379869
0.0374725
0.0368704
0.0361768
0.0353902
0.0345118
0.0335451
0.0324957
0.0313712
0.0301808
0.0289348
0.0276442
0.0263207
0.0249759
0.0236214
0.0222683
0.020927
0.0196073
0.018318
0.0170669
0.015861
0.0147062
0.0136076
0.0125693
0.0115947
0.0106868
0.00984757
0.00907882
0.00838176
0.00775727
0.00720588
0.00672786
0.00632322
0.00599174
0.005733
0.00554639
0.00543112
0.00538623
0.00541063
0.00550306
0.00566214
0.00588641
0.00617428
0.00652414
0.0069343
0.00740309
0.00792883
0.00850987
0.00914462
0.00983152
0.0105691
0.0113557
0.0121899
0.01307
0.0139939
0.0149593
0.0159632
0.0170016
0.0180697
0.0191611
0.020268
0.0213808
0.0224884
0.0235777
0.0246347
0.0256445
0.0265924
0.0274646
0.0282495
0.0289386
0.0295275
0.0300158
0.0304077
0.0307114
0.0309379
0.0310997
0.0312102
0.031282
0.0313262
0.0313523
0.0313676
0.0313774
0.0313853
0.031394
0.0314042
0.031417
0.0314315
0.031448
0.0314648
0.0314822
0.0314978
0.0315132
0.0315248
0.031537
0.0315441
0.0315546
0.0315588
0.0315707
0.0407816
0.0407654
0.0407435
0.0407055
0.0406605
0.0406037
0.0405423
0.0404745
0.0404052
0.0403328
0.0402588
0.0401805
0.0400961
0.0400009
0.0398902
0.0397572
0.0395943
0.0393926
0.0391425
0.0388337
0.0384562
0.0380002
0.0374576
0.0368217
0.0360884
0.0352559
0.0343254
0.0333005
0.0321874
0.0309944
0.0297312
0.0284091
0.0270401
0.0256367
0.0242114
0.0227765
0.0213439
0.0199246
0.0185285
0.0171648
0.0158413
0.0145648
0.0133411
0.0121749
0.0110701
0.0100297
0.00905611
0.00815111
0.00731601
0.0065517
0.00585877
0.00523749
0.00468791
0.0042099
0.00380312
0.00346711
0.00320123
0.00300472
0.0028767
0.00281614
0.00282192
0.0028928
0.00302745
0.00322447
0.00348242
0.00379982
0.00417519
0.00460711
0.0050942
0.00563522
0.00622904
0.00687471
0.00757145
0.00831864
0.00911582
0.00996262
0.0108587
0.0118035
0.0127962
0.0138355
0.0149191
0.0160437
0.0172044
0.0183944
0.0196048
0.0208241
0.0220387
0.0232328
0.0243888
0.0254884
0.0265139
0.0274491
0.0282812
0.0290017
0.0296074
0.0301005
0.0304886
0.0307829
0.0309977
0.0311479
0.0312485
0.0313127
0.0313517
0.0313744
0.0313874
0.0313956
0.0314018
0.0314081
0.031415
0.0314233
0.0314319
0.0314416
0.0314503
0.0314595
0.0314661
0.0314738
0.031478
0.0314855
0.0314882
0.0314977
0.0409303
0.040903
0.0408783
0.0408331
0.0407852
0.0407228
0.0406576
0.040584
0.0405087
0.0404278
0.0403432
0.0402506
0.0401476
0.040028
0.039886
0.0397131
0.0395005
0.0392378
0.0389145
0.0385193
0.0380421
0.0374737
0.036807
0.0360371
0.035162
0.0341828
0.0331033
0.0319299
0.0306716
0.029339
0.0279441
0.0265
0.0250199
0.0235176
0.022006
0.0204977
0.0190041
0.0175359
0.016102
0.0147106
0.0133682
0.0120805
0.0108518
0.00968561
0.00858465
0.00755083
0.00658556
0.00568975
0.00486395
0.00410844
0.00342323
0.00280819
0.00226302
0.00178728
0.00138046
0.00104192
0.000770924
0.000566637
0.000428132
0.000354386
0.000344282
0.000396621
0.000510128
0.000683475
0.000915299
0.00120423
0.00154891
0.00194807
0.00240051
0.0029052
0.00346129
0.00406815
0.00472541
0.00543301
0.00619117
0.00700037
0.00786135
0.00877497
0.00974211
0.0107634
0.0118392
0.0129687
0.0141502
0.0153801
0.0166528
0.01796
0.0192904
0.0206292
0.021959
0.0232595
0.0245087
0.0256844
0.0267657
0.027735
0.0285798
0.0292939
0.0298779
0.030339
0.0306895
0.0309454
0.0311243
0.0312435
0.0313187
0.031363
0.0313868
0.0313981
0.0314022
0.0314031
0.0314026
0.0314025
0.0314025
0.0314037
0.0314046
0.0314067
0.0314075
0.0314103
0.0314108
0.0314154
0.0314166
0.0314243
0.0410884
0.0410487
0.0410215
0.0409688
0.0409182
0.0408501
0.0407807
0.0407003
0.0406175
0.0405258
0.0404275
0.0403162
0.0401891
0.0400381
0.0398563
0.0396336
0.0393599
0.0390234
0.0386129
0.038117
0.0375261
0.0368319
0.0360293
0.0351156
0.0340918
0.0329617
0.0317322
0.0304126
0.0290143
0.0275502
0.0260344
0.0244812
0.0229051
0.0213201
0.0197394
0.0181751
0.0166381
0.0151377
0.013682
0.0122775
0.0109296
0.00964227
0.00841875
0.00726127
0.00617136
0.00515
0.00419773
0.00331477
0.00250109
0.00175647
0.00108058
0.000472967
-6.6869e-05
-0.000539504
-0.000945574
-0.00128577
-0.00156086
-0.00177168
-0.00191912
-0.00200419
-0.00202795
-0.00199154
-0.00189618
-0.00174311
-0.00153364
-0.00126906
-0.000950644
-0.000579593
-0.000157008
0.000316166
0.00083919
0.00141158
0.00203315
0.00270408
0.00342492
0.00419662
0.00502054
0.00589837
0.00683212
0.00782389
0.00887573
0.00998932
0.0111656
0.0124042
0.0137031
0.0150577
0.0164603
0.0178996
0.0193603
0.0208229
0.0222643
0.0236587
0.0249792
0.0261998
0.0272982
0.0282576
0.029069
0.0297315
0.0302527
0.0306464
0.0309312
0.0311276
0.0312556
0.0313335
0.0313763
0.0313961
0.0314014
0.0313986
0.0313916
0.0313833
0.0313744
0.0313668
0.0313593
0.0313539
0.0313482
0.0313456
0.0313422
0.0313438
0.0313433
0.0313502
0.0412532
0.0412
0.0411705
0.0411102
0.0410571
0.0409829
0.0409087
0.0408203
0.040728
0.0406226
0.0405067
0.0403717
0.0402142
0.040024
0.0397931
0.0395097
0.0391627
0.0387394
0.0382282
0.0376182
0.0369009
0.0360699
0.0351224
0.0340587
0.0328828
0.0316017
0.0302252
0.0287653
0.027236
0.0256521
0.0240292
0.0223826
0.0207273
0.0190772
0.017445
0.0158421
0.014278
0.0127607
0.0112969
0.00989156
0.00854851
0.0072705
0.00605937
0.00491625
0.00384174
0.00283598
0.00189888
0.00103009
0.000229185
-0.000504367
-0.00117113
-0.00177169
-0.00230667
-0.00277667
-0.00318235
-0.00352439
-0.0038035
-0.00402048
-0.00417616
-0.00427146
-0.00430738
-0.00428497
-0.00420537
-0.00406976
-0.00387936
-0.00363542
-0.00333914
-0.00299169
-0.00259413
-0.00214738
-0.00165217
-0.00110896
-0.000517906
0.000121194
0.000808972
0.00154652
0.00233543
0.00317779
0.00407616
0.00503351
0.00605306
0.00713812
0.00829171
0.0095162
0.0108127
0.0121805
0.0136161
0.0151125
0.0166584
0.0182378
0.0198294
0.0214069
0.0229407
0.0243988
0.0257503
0.0269675
0.0280297
0.0289253
0.0296524
0.0302195
0.0306429
0.0309441
0.0311469
0.0312746
0.0313478
0.0313835
0.0313947
0.0313911
0.031379
0.0313633
0.0313458
0.0313292
0.0313131
0.0312997
0.0312872
0.031279
0.0312713
0.03127
0.0312678
0.0312744
0.0414214
0.0413537
0.0413223
0.041254
0.0411986
0.0411178
0.041038
0.0409398
0.0408357
0.0407132
0.0405753
0.0404107
0.0402155
0.0399775
0.0396875
0.0393321
0.0388996
0.0383765
0.0377521
0.0370161
0.036162
0.0351859
0.0340879
0.0328715
0.0315439
0.0301154
0.0285986
0.0270081
0.02536
0.0236707
0.0219567
0.0202338
0.0185168
0.0168191
0.0151524
0.0135266
0.0119498
0.0104286
0.00896773
0.00757078
0.00624013
0.00497721
0.00378277
0.00265699
0.00159967
0.000610362
-0.000311523
-0.00116666
-0.00195575
-0.00267949
-0.00333852
-0.00393348
-0.00446498
-0.0049336
-0.00533993
-0.00568459
-0.0059682
-0.00619146
-0.00635512
-0.00645999
-0.00650696
-0.00649702
-0.00643119
-0.0063106
-0.00613638
-0.00590971
-0.00563177
-0.00530369
-0.00492651
-0.00450119
-0.00402847
-0.00350887
-0.00294264
-0.00232965
-0.00166937
-0.000960786
-0.000202342
0.000608077
0.00147318
0.00239627
0.00338115
0.00443205
0.00555335
0.00674935
0.00802373
0.00937899
0.0108157
0.0123314
0.0139198
0.0155699
0.0172645
0.0189804
0.0206886
0.0223548
0.0239421
0.0254141
0.0267382
0.0278896
0.0288545
0.0296309
0.0302288
0.0306677
0.0309728
0.0311717
0.0312907
0.031353
0.0313768
0.0313766
0.0313618
0.0313398
0.0313142
0.0312888
0.0312641
0.0312427
0.0312231
0.0312092
0.031197
0.0311929
0.031189
0.0311958
0.0415886
0.0415057
0.0414725
0.0413963
0.0413384
0.0412502
0.0411637
0.0410537
0.0409349
0.0407914
0.0406262
0.0404257
0.040185
0.0398899
0.0395304
0.0390916
0.0385616
0.037927
0.0371781
0.0363065
0.0353079
0.0341815
0.0329307
0.0315625
0.0300874
0.0285186
0.0268716
0.0251632
0.023411
0.0216325
0.0198445
0.0180627
0.0163013
0.0145723
0.0128862
0.0112512
0.00967364
0.00815833
0.00670851
0.00532622
0.00401254
0.00276779
0.00159178
0.000483956
-0.00055644
-0.00153028
-0.00243847
-0.00328186
-0.00406127
-0.00477741
-0.00543095
-0.00602247
-0.0065525
-0.00702153
-0.00743005
-0.00777855
-0.00806756
-0.00829763
-0.00846941
-0.00858361
-0.008641
-0.00864245
-0.00858892
-0.00848142
-0.00832102
-0.00810884
-0.007846
-0.00753361
-0.00717273
-0.0067643
-0.00630915
-0.00580789
-0.00526087
-0.00466814
-0.00402933
-0.00334366
-0.00260978
-0.00182579
-0.000989135
-9.6579e-05
0.000855779
0.00187248
0.00295859
0.00411951
0.00536064
0.00668691
0.0081021
0.009608
0.0112033
0.0128823
0.0146339
0.0164402
0.0182759
0.0201086
0.0218995
0.0236065
0.0251874
0.0266047
0.02783
0.0288477
0.0296568
0.0302697
0.0307098
0.0310068
0.0311921
0.0312954
0.0313415
0.0313505
0.0313365
0.0313101
0.0312775
0.0312438
0.0312106
0.0311813
0.0311546
0.031135
0.0311181
0.0311114
0.0311056
0.031113
0.0417498
0.0416509
0.0416164
0.041532
0.0414715
0.041375
0.0412802
0.041156
0.0410192
0.04085
0.0406519
0.0404084
0.040114
0.0397524
0.0393128
0.0387796
0.0381411
0.0373846
0.0365022