/*--------------------------------*- C++ -*----------------------------------*\
| =========                 |                                                 |
| \\      /  F ield         | OpenFOAM: The Open Source CFD Toolbox           |
|  \\    /   O peration     | Version:  2406                                  |
|   \\  /    A nd           | Website:  www.openfoam.com                      |
|    \\/     M anipulation  |                                                 |
\*---------------------------------------------------------------------------*/
FoamFile
{
    version     2.0;
    format      ascii;
    arch        "LSB;label=32;scalar=64";
    class       surfaceScalarField;
    location    "41.4";
    object      phi;
}
// * * * * * * * * * * * * * * * * * * * * * * * * * * * * * * * * * * * * * //

dimensions      [0 3 -1 0 0 0 0];

oriented        oriented;

internalField   nonuniform List<scalar> 
28560
(
-1.74587e-08
1.74452e-08
3.23948e-08
-5.21825e-08
1.58616e-07
-1.26735e-07
3.49427e-07
-1.9394e-07
5.84875e-07
-2.37278e-07
8.43464e-07
-2.62059e-07
1.10731e-06
-2.66323e-07
1.35987e-06
-2.55771e-07
1.58988e-06
-2.32382e-07
1.78872e-06
-2.01369e-07
1.95275e-06
-1.65852e-07
2.08102e-06
-1.29947e-07
2.17608e-06
-9.618e-08
2.2421e-06
-6.6933e-08
2.28486e-06
-4.32737e-08
2.31024e-06
-2.57381e-08
2.32402e-06
-1.38874e-08
2.33082e-06
-6.81178e-09
2.33399e-06
-3.04838e-09
2.33515e-06
-9.49996e-10
2.33422e-06
1.24324e-09
2.32951e-06
5.1399e-09
2.31798e-06
1.21187e-08
2.29556e-06
2.32047e-08
2.25753e-06
3.90831e-08
2.19878e-06
6.01242e-08
2.11406e-06
8.64861e-08
1.99807e-06
1.18207e-07
1.84551e-06
1.55303e-07
1.65103e-06
1.97818e-07
1.40918e-06
2.45847e-07
1.11441e-06
2.99509e-07
7.61026e-07
3.5891e-07
3.43332e-07
4.2409e-07
-1.4432e-07
4.94974e-07
-7.0735e-07
5.71337e-07
-1.35078e-06
6.52769e-07
-2.07904e-06
7.38666e-07
-2.89575e-06
8.28208e-07
-3.80352e-06
9.20365e-07
-4.80371e-06
1.01389e-06
-5.8963e-06
1.10735e-06
-7.07963e-06
1.19911e-06
-8.35029e-06
1.28739e-06
-9.70301e-06
1.3703e-06
-1.11305e-05
1.44585e-06
-1.26237e-05
1.51203e-06
-1.41711e-05
1.56682e-06
-1.57598e-05
1.60826e-06
-1.73747e-05
1.63449e-06
-1.8999e-05
1.64376e-06
-2.06144e-05
1.6345e-06
-2.22014e-05
1.60534e-06
-2.3739e-05
1.5551e-06
-2.52055e-05
1.48288e-06
-2.65786e-05
1.38803e-06
-2.78356e-05
1.27021e-06
-2.89536e-05
1.12936e-06
-2.99101e-05
9.65804e-07
-3.06835e-05
7.80219e-07
-3.12528e-05
5.73694e-07
-3.15989e-05
3.47764e-07
-3.17045e-05
1.04439e-07
-3.15549e-05
-1.53759e-07
-3.11381e-05
-4.23773e-07
-3.04461e-05
-7.01998e-07
-2.94748e-05
-9.84283e-07
-2.82247e-05
-1.26596e-06
-2.67015e-05
-1.54188e-06
-2.49162e-05
-1.80653e-06
-2.28857e-05
-2.05412e-06
-2.06327e-05
-2.27876e-06
-1.81856e-05
-2.47465e-06
-1.55785e-05
-2.63626e-06
-1.285e-05
-2.75864e-06
-1.00434e-05
-2.83761e-06
-7.20457e-06
-2.87004e-06
-4.3816e-06
-2.85405e-06
-1.62288e-06
-2.78921e-06
1.0243e-06
-2.67664e-06
3.51537e-06
-2.51907e-06
5.81001e-06
-2.32078e-06
7.87358e-06
-2.0875e-06
9.67831e-06
-1.82614e-06
1.12042e-05
-1.54452e-06
1.24395e-05
-1.25099e-06
1.33809e-05
-9.5407e-07
1.40333e-05
-6.62006e-07
1.44092e-05
-3.82425e-07
1.45276e-05
-1.21999e-07
1.44129e-05
1.1381e-07
1.40935e-05
3.20911e-07
1.36006e-05
4.96666e-07
1.29663e-05
6.39866e-07
1.22228e-05
7.50643e-07
1.14008e-05
8.30294e-07
1.05289e-05
8.81087e-07
9.63266e-06
9.06004e-07
8.73416e-06
9.08517e-07
7.85189e-06
8.92324e-07
7.00062e-06
8.61185e-07
6.19151e-06
8.18684e-07
5.43248e-06
7.68182e-07
4.72844e-06
7.12615e-07
4.08188e-06
6.54604e-07
3.493e-06
5.96229e-07
2.96048e-06
5.39337e-07
2.48142e-06
4.85144e-07
2.05224e-06
4.34827e-07
1.66844e-06
3.88688e-07
1.32585e-06
3.47238e-07
1.02017e-06
3.0948e-07
7.48899e-07
2.75086e-07
5.10641e-07
2.40987e-07
3.07552e-07
2.06144e-07
1.44305e-07
1.64813e-07
2.87914e-08
1.17696e-07
-2.96573e-08
5.88545e-08
-3.26933e-08
4.24216e-09
-3.27453e-08
4.99017e-08
-3.01253e-08
2.48247e-07
-2.50487e-07
5.99346e-07
-4.73224e-07
1.07767e-06
-6.69513e-07
1.64898e-06
-8.02776e-07
2.26985e-06
-8.78362e-07
2.9025e-06
-8.92935e-07
3.51054e-06
-8.58913e-07
4.06753e-06
-7.84145e-07
4.55293e-06
-6.82645e-07
4.95615e-06
-5.65229e-07
5.27291e-06
-4.43882e-07
5.50637e-06
-3.27284e-07
5.6637e-06
-2.22706e-07
5.75564e-06
-1.34092e-07
5.79368e-06
-6.317e-08
5.78902e-06
-8.91536e-09
5.7507e-06
3.15318e-08
5.6848e-06
6.26884e-08
5.59362e-06
8.9879e-08
5.47557e-06
1.18773e-07
5.32527e-06
1.54698e-07
5.1341e-06
2.02259e-07
4.8909e-06
2.65014e-07
4.58267e-06
3.45435e-07
4.19534e-06
4.44994e-07
3.71423e-06
5.6442e-07
3.12444e-06
7.03974e-07
2.41105e-06
8.63705e-07
1.55919e-06
1.0436e-06
5.54121e-07
1.2436e-06
-6.18616e-07
1.46357e-06
-1.973e-06
1.70313e-06
-3.5222e-06
1.96152e-06
-5.27815e-06
2.23743e-06
-7.25105e-06
2.52891e-06
-9.44883e-06
2.83329e-06
-1.18766e-05
3.14715e-06
-1.4536e-05
3.46632e-06
-1.74249e-05
3.78591e-06
-2.05367e-05
4.10039e-06
-2.38605e-05
4.40371e-06
-2.738e-05
4.6894e-06
-3.10744e-05
4.95076e-06
-3.49177e-05
5.18102e-06
-3.88793e-05
5.37355e-06
-4.29243e-05
5.52201e-06
-4.70138e-05
5.62054e-06
-5.11057e-05
5.66389e-06
-5.51551e-05
5.64756e-06
-5.91152e-05
5.5679e-06
-6.2938e-05
5.42212e-06
-6.65751e-05
5.20839e-06
-6.99781e-05
4.9258e-06
-7.30998e-05
4.57436e-06
-7.58944e-05
4.15501e-06
-7.83182e-05
3.66959e-06
-8.03306e-05
3.12081e-06
-8.18941e-05
2.51228e-06
-8.29749e-05
1.84848e-06
-8.3544e-05
1.13481e-06
-8.35767e-05
3.77607e-07
-8.3054e-05
-4.1584e-07
-8.19626e-05
-1.23723e-06
-8.02956e-05
-2.07725e-06
-7.8053e-05
-2.92556e-06
-7.52417e-05
-3.77082e-06
-7.18767e-05
-4.60079e-06
-6.79808e-05
-5.4024e-06
-6.35851e-05
-6.16195e-06
-5.87289e-05
-6.86538e-06
-5.34602e-05
-7.49855e-06
-4.78348e-05
-8.04766e-06
-4.19161e-05
-8.49967e-06
-3.57746e-05
-8.84277e-06
-2.94866e-05
-9.06696e-06
-2.31329e-05
-9.16454e-06
-1.67974e-05
-9.13055e-06
-1.05657e-05
-8.96326e-06
-4.52211e-06
-8.66445e-06
1.25131e-06
-8.23957e-06
6.67764e-06
-7.69778e-06
1.1687e-05
-7.05177e-06
1.62185e-05
-6.31739e-06
2.02222e-05
-5.51319e-06
2.36603e-05
-4.65968e-06
2.65085e-05
-3.77854e-06
2.87561e-05
-2.89182e-06
3.04069e-05
-2.02101e-06
3.14778e-05
-1.18621e-06
3.19986e-05
-4.05349e-07
3.20101e-05
3.06441e-07
3.15624e-05
9.37329e-07
3.07126e-05
1.47908e-06
2.95228e-05
1.92717e-06
2.80569e-05
2.2807e-06
2.63787e-05
2.54212e-06
2.45498e-05
2.71677e-06
2.26273e-05
2.81234e-06
2.06627e-05
2.83825e-06
1.87005e-05
2.80498e-06
1.67779e-05
2.7234e-06
1.49248e-05
2.60433e-06
1.31634e-05
2.45792e-06
1.15096e-05
2.29357e-06
9.97264e-06
2.11937e-06
8.55701e-06
1.94244e-06
7.26241e-06
1.76823e-06
6.08562e-06
1.60138e-06
5.02058e-06
1.44428e-06
4.06092e-06
1.29875e-06
3.19958e-06
1.16312e-06
2.43257e-06
1.03585e-06
1.75768e-06
9.09715e-07
1.1791e-06
7.80453e-07
7.0393e-07
6.3536e-07
3.44934e-07
4.74685e-07
1.12377e-07
2.88495e-07
5.6509e-09
1.11126e-07
-2.82797e-08
1.18831e-07
-1.48487e-07
4.58851e-07
-5.95067e-07
1.00654e-06
-1.02094e-06
1.71574e-06
-1.38355e-06
2.54271e-06
-1.63221e-06
3.42885e-06
-1.76953e-06
4.32482e-06
-1.79246e-06
5.18161e-06
-1.72032e-06
5.96333e-06
-1.56934e-06
6.64134e-06
-1.36432e-06
7.19996e-06
-1.12655e-06
7.63176e-06
-8.78159e-07
7.93894e-06
-6.36175e-07
8.12915e-06
-4.14306e-07
8.21466e-06
-2.20451e-07
8.2088e-06
-5.78892e-08
8.12443e-06
7.51946e-08
7.97145e-06
1.84417e-07
7.75568e-06
2.78563e-07
7.47763e-06
3.6815e-07
7.13242e-06
4.64369e-07
6.70983e-06
5.7783e-07
6.19512e-06
7.17743e-07
5.56989e-06
8.91305e-07
4.81318e-06
1.10357e-06
3.90246e-06
1.35761e-06
2.81438e-06
1.65495e-06
1.52544e-06
1.99602e-06
1.23732e-08
2.38065e-06
-1.7475e-06
2.8082e-06
-3.77587e-06
3.27768e-06
-6.09304e-06
3.78751e-06
-8.71725e-06
4.3353e-06
-1.1664e-05
4.91754e-06
-1.49453e-05
5.52933e-06
-1.85686e-05
6.16427e-06
-2.2536e-05
6.81435e-06
-2.68437e-05
7.47e-06
-3.14807e-05
8.12021e-06
-3.64291e-05
8.75278e-06
-4.16631e-05
9.35458e-06
-4.71496e-05
9.91195e-06
-5.28481e-05
1.04111e-05
-5.87113e-05
1.08386e-05
-6.46862e-05
1.11817e-05
-7.07146e-05
1.14289e-05
-7.67349e-05
1.157e-05
-8.26828e-05
1.15967e-05
-8.8493e-05
1.15027e-05
-9.41003e-05
1.12835e-05
-9.94407e-05
1.09366e-05
-0.000104453
1.04617e-05
-0.000109078
9.86e-06
-0.000113261
9.13445e-06
-0.000116953
8.28948e-06
-0.000120107
7.33082e-06
-0.000122684
6.26538e-06
-0.000124649
5.10117e-06
-0.000125971
3.84718e-06
-0.000126626
2.5134e-06
-0.000126597
1.11084e-06
-0.000125869
-3.48502e-07
-0.000124436
-1.8515e-06
-0.000122296
-3.38389e-06
-0.000119454
-4.93019e-06
-0.000115922
-6.47368e-06
-0.000111716
-7.99637e-06
-0.000106862
-9.47909e-06
-0.000101391
-1.09016e-05
-9.53428e-05
-1.22429e-05
-8.87628e-05
-1.34812e-05
-8.17055e-05
-1.45949e-05
-7.42323e-05
-1.55627e-05
-6.64118e-05
-1.63641e-05
-5.83195e-05
-1.69807e-05
-5.00369e-05
-1.73963e-05
-4.16506e-05
-1.75979e-05
-3.32511e-05
-1.75768e-05
-2.49315e-05
-1.73286e-05
-1.67858e-05
-1.68544e-05
-8.9066e-06
-1.61607e-05
-1.38387e-06
-1.52596e-05
5.69767e-06
-1.4169e-05
1.22604e-05
-1.2912e-05
1.82357e-05
-1.15162e-05
2.35657e-05
-1.00131e-05
2.82052e-05
-8.43685e-06
3.21224e-05
-6.82323e-06
3.52999e-05
-5.20836e-06
3.77357e-05
-3.62747e-06
3.94424e-05
-2.11364e-06
4.04476e-05
-6.96673e-07
4.07924e-05
5.97898e-07
4.05298e-05
1.74963e-06
3.97235e-05
2.74379e-06
3.84446e-05
3.57163e-06
3.67695e-05
4.23051e-06
3.47769e-05
4.72353e-06
3.25448e-05
5.05905e-06
3.0148e-05
5.24978e-06
2.76556e-05
5.31185e-06
2.51295e-05
5.2636e-06
2.26226e-05
5.12458e-06
2.01789e-05
4.91433e-06
1.78325e-05
4.65178e-06
1.56085e-05
4.35416e-06
1.35239e-05
4.03706e-06
1.15879e-05
3.71326e-06
9.80402e-06
3.39353e-06
8.17076e-06
3.08474e-06
6.68465e-06
2.79167e-06
5.33998e-06
2.51336e-06
4.13403e-06
2.2474e-06
3.06478e-06
1.98291e-06
2.13813e-06
1.71165e-06
1.36115e-06
1.4144e-06
7.50413e-07
1.08905e-06
3.16116e-07
7.22547e-07
7.01457e-08
3.60179e-07
4.12077e-08
1.80865e-07
-3.26256e-07
6.46607e-07
-1.06352e-06
1.35964e-06
-1.72916e-06
2.25109e-06
-2.27504e-06
3.26839e-06
-2.64537e-06
4.34143e-06
-2.84092e-06
5.41399e-06
-2.86131e-06
6.42915e-06
-2.73325e-06
7.3457e-06
-2.48282e-06
8.13003e-06
-2.14658e-06
8.76327e-06
-1.75756e-06
9.2355e-06
-1.34888e-06
9.54749e-06
-9.46751e-07
9.70583e-06
-5.71764e-07
9.72206e-06
-2.35957e-07
9.60856e-06
5.60012e-08
9.37682e-06
3.07187e-07
9.03457e-06
5.26721e-07
8.58449e-06
7.28598e-07
8.02289e-06
9.29574e-07
7.33958e-06
1.14739e-06
6.51812e-06
1.39887e-06
5.53673e-06
1.69854e-06
4.36949e-06
2.05774e-06
2.98763e-06
2.48435e-06
1.3608e-06
2.98302e-06
-5.41884e-07
3.5558e-06
-2.75093e-06
4.20276e-06
-5.29571e-06
4.92257e-06
-8.20373e-06
5.71273e-06
-1.14997e-05
6.56951e-06
-1.52048e-05
7.48764e-06
-1.93353e-05
8.45996e-06
-2.39015e-05
9.47696e-06
-2.89065e-05
1.05266e-05
-3.43451e-05
1.15941e-05
-4.0203e-05
1.26623e-05
-4.64557e-05
1.37117e-05
-5.30688e-05
1.47211e-05
-5.99978e-05
1.56683e-05
-6.71887e-05
1.65309e-05
-7.45792e-05
1.72868e-05
-8.21001e-05
1.79153e-05
-8.9677e-05
1.83978e-05
-9.72322e-05
1.87184e-05
-0.000104687
1.88644e-05
-0.000111963
1.88263e-05
-0.000118985
1.85984e-05
-0.000125681
1.81781e-05
-0.000131984
1.7566e-05
-0.000137833
1.67655e-05
-0.000143173
1.57826e-05
-0.000147957
1.4625e-05
-0.000152142
1.3302e-05
-0.000155693
1.18244e-05
-0.000158581
1.02039e-05
-0.000160781
8.45276e-06
-0.000162274
6.58416e-06
-0.000163047
4.6118e-06
-0.00016309
2.55004e-06
-0.000162396
4.13968e-07
-0.000160965
-1.78044e-06
-0.000158798
-4.01621e-06
-0.000155901
-6.27517e-06
-0.000152285
-8.53778e-06
-0.000147964
-1.0783e-05
-0.000142957
-1.29884e-05
-0.000137289
-1.51296e-05
-0.00013099
-1.71811e-05
-0.000124094
-1.91159e-05
-0.000116644
-2.09062e-05
-0.000108688
-2.25235e-05
-0.000100282
-2.39398e-05
-9.14884e-05
-2.51276e-05
-8.23762e-05
-2.60615e-05
-7.30215e-05
-2.67189e-05
-6.35061e-05
-2.70811e-05
-5.39169e-05
-2.71339e-05
-4.43446e-05
-2.68695e-05
-3.48825e-05
-2.62863e-05
-2.56245e-05
-2.539e-05
-1.66634e-05
-2.41938e-05
-8.08941e-06
-2.27184e-05
1.2391e-08
-2.09918e-05
7.56348e-06
-1.90481e-05
1.44938e-05
-1.69271e-05
2.07431e-05
-1.4673e-05
2.62628e-05
-1.23327e-05
3.10164e-05
-9.95487e-06
3.49809e-05
-7.5879e-06
3.81475e-05
-5.27885e-06
4.05215e-05
-3.07188e-06
4.21229e-05
-1.0069e-06
4.29856e-05
8.8159e-07
4.31568e-05
2.56556e-06
4.26958e-05
4.02433e-06
4.1672e-05
5.2451e-06
4.01624e-05
6.22321e-06
3.82492e-05
6.962e-06
3.60165e-05
7.47218e-06
3.35471e-05
7.77097e-06
3.09201e-05
7.88066e-06
2.82079e-05
7.82725e-06
2.54745e-05
7.63866e-06
2.27744e-05
7.34351e-06
2.01515e-05
6.96928e-06
1.76397e-05
6.5418e-06
1.52629e-05
6.08347e-06
1.30371e-05
5.61357e-06
1.09705e-05
5.14591e-06
9.0673e-06
4.69038e-06
7.32724e-06
4.24884e-06
5.75192e-06
3.81953e-06
4.34124e-06
3.38965e-06
3.10371e-06
2.94748e-06
2.04602e-06
2.46851e-06
1.18921e-06
1.94612e-06
5.45093e-07
1.36281e-06
1.45136e-07
7.62776e-07
1.8397e-07
2.24492e-07
-5.48872e-07
7.89115e-07
-1.63401e-06
1.63436e-06
-2.57179e-06
2.66844e-06
-3.31335e-06
3.82784e-06
-3.80463e-06
5.03078e-06
-4.04717e-06
6.2151e-06
-4.04667e-06
7.31788e-06
-3.8387e-06
8.29481e-06
-3.46112e-06
9.10946e-06
-2.96325e-06
9.74154e-06
-2.39084e-06
1.01798e-05
-1.78846e-06
1.04238e-05
-1.19166e-06
1.04789e-05
-6.27677e-07
1.03548e-05
-1.12248e-07
1.00611e-05
3.49321e-07
9.60586e-06
7.62268e-07
8.99224e-06
1.14025e-06
8.21737e-06
1.50351e-06
7.27104e-06
1.87602e-06
6.13583e-06
2.28283e-06
4.78752e-06
2.74749e-06
3.19645e-06
3.29006e-06
1.32892e-06
3.92588e-06
-8.51148e-07
4.66524e-06
-3.38068e-06
5.51363e-06
-6.29606e-06
6.47254e-06
-9.63183e-06
7.54026e-06
-1.34195e-05
8.7124e-06
-1.76863e-05
9.98212e-06
-2.24536e-05
1.13399e-05
-2.77356e-05
1.27733e-05
-3.35374e-05
1.42661e-05
-3.98539e-05
1.57986e-05
-4.66686e-05
1.7347e-05
-5.39522e-05
1.88843e-05
-6.1663e-05
2.03804e-05
-6.97466e-05
2.18035e-05
-7.81373e-05
2.31209e-05
-8.67597e-05
2.43006e-05
-9.55306e-05
2.53125e-05
-0.000104362
2.61295e-05
-0.000113163
2.67286e-05
-0.000121844
2.70918e-05
-0.000130318
2.72061e-05
-0.000138504
2.7064e-05
-0.000146326
2.66629e-05
-0.000153718
2.60047e-05
-0.000160621
2.50952e-05
-0.000166984
2.39437e-05
-0.000172766
2.25616e-05
-0.000177933
2.09624e-05
-0.000182455
1.91606e-05
-0.000186313
1.71715e-05
-0.000189488
1.5011e-05
-0.000191969
1.26947e-05
-0.000193746
1.02385e-05
-0.000194813
7.65835e-06
-0.000195166
4.97026e-06
-0.000194803
2.1905e-06
-0.000193724
-6.64117e-07
-0.000191928
-3.57598e-06
-0.000189421
-6.5264e-06
-0.000186205
-9.49529e-06
-0.000182289
-1.24609e-05
-0.000177681
-1.53995e-05
-0.000172395
-1.82852e-05
-0.000166447
-2.10902e-05
-0.000159858
-2.37842e-05
-0.000152656
-2.6335e-05
-0.000144871
-2.87088e-05
-0.000136543
-3.08707e-05
-0.000127718
-3.27852e-05
-0.00011845
-3.44176e-05
-0.000108799
-3.57347e-05
-9.88341e-05
-3.67061e-05
-8.8632e-05
-3.73058e-05
-7.82751e-05
-3.75133e-05
-6.78515e-05
-3.73151e-05
-5.74533e-05
-3.67056e-05
-4.71753e-05
-3.56881e-05
-3.71125e-05
-3.42753e-05
-2.73588e-05
-3.24895e-05
-1.80042e-05
-3.03618e-05
-9.13387e-06
-2.7932e-05
-8.25473e-07
-2.5247e-05
6.85164e-06
-2.23595e-05
1.38379e-05
-1.93263e-05
2.00845e-05
-1.62066e-05
2.55539e-05
-1.30604e-05
3.02208e-05
-9.9469e-06
3.40723e-05
-6.92266e-06
3.71081e-05
-4.04055e-06
3.93416e-05
-1.34825e-06
4.07989e-05
1.11298e-06
4.15196e-05
3.30936e-06
4.15553e-05
5.21572e-06
4.09693e-05
6.81615e-06
3.98339e-05
8.10454e-06
3.82288e-05
9.08454e-06
3.62379e-05
9.76911e-06
3.39461e-05
1.01794e-05
3.14366e-05
1.03436e-05
2.87873e-05
1.02944e-05
2.60689e-05
1.00679e-05
2.3343e-05
9.70076e-06
2.0661e-05
9.22899e-06
1.80636e-05
8.6855e-06
1.5582e-05
8.09955e-06
1.32376e-05
7.49393e-06
1.1046e-05
6.88569e-06
9.0156e-06
6.28185e-06
7.15529e-06
5.68317e-06
5.46928e-06
5.07708e-06
3.97086e-06
4.44912e-06
2.66848e-06
3.77069e-06
1.59028e-06
3.02806e-06
7.53177e-07
2.19719e-06
2.11273e-07
1.30994e-06
3.93218e-07
2.58643e-07
-8.03878e-07
9.01312e-07
-2.28161e-06
1.84907e-06
-3.51424e-06
2.98921e-06
-4.45551e-06
4.24612e-06
-5.05809e-06
5.52677e-06
-5.32803e-06
6.76344e-06
-5.28084e-06
7.88859e-06
-4.96325e-06
8.85637e-06
-4.42704e-06
9.62922e-06
-3.73532e-06
1.01869e-05
-2.94723e-06
1.05177e-05
-2.11862e-06
1.06208e-05
-1.29392e-06
1.04996e-05
-5.06061e-07
1.01611e-05
2.26725e-07
9.6108e-06
8.99837e-07
8.85122e-06
1.52203e-06
7.87874e-06
2.11276e-06
6.68266e-06
2.69959e-06
5.24418e-06
3.3144e-06
3.53697e-06
3.98988e-06
1.52807e-06
4.75614e-06
-8.20353e-07
5.63814e-06
-3.54914e-06
6.6542e-06
-6.70009e-06
7.81557e-06
-1.03141e-05
9.1268e-06
-1.44292e-05
1.05867e-05
-1.90792e-05
1.21889e-05
-2.42913e-05
1.39229e-05
-3.00847e-05
1.57736e-05
-3.64684e-05
1.77213e-05
-4.34394e-05
1.97415e-05
-5.09808e-05
2.18043e-05
-5.9061e-05
2.38751e-05
-6.7633e-05
2.59148e-05
-7.6635e-05
2.78814e-05
-8.59912e-05
2.97313e-05
-9.56149e-05
3.14211e-05
-0.000105411
3.291e-05
-0.000115278
3.41608e-05
-0.000125116
3.51423e-05
-0.000134824
3.58297e-05
-0.00014431
3.62056e-05
-0.000153488
3.62598e-05
-0.000162281
3.59893e-05
-0.000170624
3.53969e-05
-0.000178462
3.4491e-05
-0.000185751
3.32837e-05
-0.000192457
3.17907e-05
-0.000198552
3.00292e-05
-0.000204018
2.80178e-05
-0.000208841
2.57756e-05
-0.000213011
2.33215e-05
-0.000216521
2.06741e-05
-0.000219369
1.78513e-05
-0.000221551
1.48703e-05
-0.000223066
1.17477e-05
-0.000223911
8.4997e-06
-0.000224087
5.14239e-06
-0.00022359
1.69189e-06
-0.000222419
-1.83513e-06
-0.000220573
-5.4211e-06
-0.00021805
-9.04711e-06
-0.000214849
-1.26925e-05
-0.00021097
-1.63345e-05
-0.000206415
-1.99479e-05
-0.000201188
-2.35045e-05
-0.000195295
-2.69734e-05
-0.000188748
-3.03205e-05
-0.000181562
-3.35089e-05
-0.000173758
-3.64992e-05
-0.000165365
-3.92498e-05
-0.000156418
-4.17179e-05
-0.000146959
-4.38606e-05
-0.000137042
-4.56361e-05
-0.000126727
-4.7005e-05
-0.000116084
-4.79324e-05
-0.000105192
-4.83895e-05
-9.41367e-05
-4.83552e-05
-8.30096e-05
-4.78177e-05
-7.19076e-05
-4.67759e-05
-6.09293e-05
-4.52403e-05
-5.01737e-05
-4.32328e-05
-3.97373e-05
-4.07872e-05
-2.97119e-05
-3.79477e-05
-2.01828e-05
-3.47679e-05
-1.12269e-05
-3.13086e-05
-2.91153e-06
-2.76364e-05
4.70634e-06
-2.38206e-05
1.15804e-05
-1.99321e-05
1.76753e-05
-1.60408e-05
2.29666e-05
-1.22141e-05
2.74406e-05
-8.51593e-06
3.1095e-05
-5.00492e-06
3.39385e-05
-1.73369e-06
3.59917e-05
1.25236e-06
3.72869e-05
3.91614e-06
3.78684e-05
6.22988e-06
3.77919e-05
8.17606e-06
3.71232e-05
9.74808e-06
3.59368e-05
1.09504e-05
3.4313e-05
1.17983e-05
3.23351e-05
1.23166e-05
3.00864e-05
1.25385e-05
2.7647e-05
1.2503e-05
2.50907e-05
1.22529e-05
2.24839e-05
1.18322e-05
1.98824e-05
1.12834e-05
1.73335e-05
1.06457e-05
1.48727e-05
9.95163e-06
1.25294e-05
9.2269e-06
1.03229e-05
8.48563e-06
8.27197e-06
7.73291e-06
6.38771e-06
6.95861e-06
4.69038e-06
6.14654e-06
3.19265e-06
5.26513e-06
1.93149e-06
4.29137e-06
9.3123e-07
3.19236e-06
2.67853e-07
1.97851e-06
6.57608e-07
2.83602e-07
-1.08457e-06
9.85489e-07
-2.9903e-06
2.00946e-06
-4.53394e-06
3.22334e-06
-5.67361e-06
4.53879e-06
-6.37197e-06
5.85147e-06
-6.64339e-06
7.08797e-06
-6.51709e-06
8.17689e-06
-6.05401e-06
9.07183e-06
-5.32228e-06
9.73542e-06
-4.40017e-06
1.01486e-05
-3.36079e-06
1.03001e-05
-2.27095e-06
1.01888e-05
-1.183e-06
9.8163e-06
-1.34063e-07
9.18597e-06
8.56842e-07
8.29787e-06
1.7877e-06
7.1473e-06
2.67252e-06
5.72193e-06
3.53806e-06
4.00136e-06
4.42019e-06
1.95668e-06
5.35913e-06
-4.48243e-07
6.39493e-06
-3.25522e-06
7.56329e-06
-6.5093e-06
8.89248e-06
-1.02564e-05
1.04016e-05
-1.45407e-05
1.21004e-05
-1.94024e-05
1.39891e-05
-2.48754e-05
1.60605e-05
-3.0985e-05
1.82994e-05
-3.77454e-05
2.06845e-05
-4.51576e-05
2.31873e-05
-5.32074e-05
2.57729e-05
-6.18634e-05
2.83996e-05
-7.10765e-05
3.10199e-05
-8.07801e-05
3.35815e-05
-9.08916e-05
3.60294e-05
-0.000101315
3.83081e-05
-0.000111944
4.03644e-05
-0.000122668
4.21495e-05
-0.000133375
4.36218e-05
-0.000143957
4.47482e-05
-0.000154314
4.55049e-05
-0.000164356
4.58777e-05
-0.000174006
4.58617e-05
-0.000183199
4.54599e-05
-0.000191885
4.46821e-05
-0.000200024
4.35433e-05
-0.000207588
4.20624e-05
-0.000214558
4.02608e-05
-0.000220921
3.81608e-05
-0.00022667
3.57853e-05
-0.000231802
3.31567e-05
-0.000236317
3.02965e-05
-0.000240214
2.72249e-05
-0.000243496
2.39612e-05
-0.000246163
2.05229e-05
-0.000248215
1.69267e-05
-0.000249652
1.31883e-05
-0.000250472
9.32279e-06
-0.000250673
5.345e-06
-0.000250251
1.26994e-06
-0.000249199
-2.88677e-06
-0.000247513
-7.10842e-06
-0.000245185
-1.13767e-05
-0.00024221
-1.56713e-05
-0.00023858
-1.99691e-05
-0.000234288
-2.42443e-05
-0.000229332
-2.84674e-05
-0.000223707
-3.26054e-05
-0.000217414
-3.66211e-05
-0.000210458
-4.04738e-05
-0.000202848
-4.4119e-05
-0.000194599
-4.75087e-05
-0.000185734
-5.0593e-05
-0.000176286
-5.33204e-05
-0.000166294
-5.56394e-05
-0.000155809
-5.75007e-05
-0.000144895
-5.88586e-05
-0.000133622
-5.96734e-05
-0.000122074
-5.99141e-05
-0.000110343
-5.95596e-05
-9.85269e-05
-5.86016e-05
-8.67313e-05
-5.70452e-05
-7.50624e-05
-5.49102e-05
-6.36266e-05
-5.22308e-05
-5.25264e-05
-4.90547e-05
-4.18581e-05
-4.54419e-05
-3.17093e-05
-4.14622e-05
-2.2157e-05
-3.71925e-05
-1.32663e-05
-3.2714e-05
-5.09081e-06
-2.81093e-05
2.32799e-06
-2.34603e-05
8.95957e-06
-1.88456e-05
1.47838e-05
-1.43393e-05
1.97902e-05
-1.00098e-05
2.39778e-05
-5.91903e-06
2.73546e-05
-2.1218e-06
2.99386e-05
1.33517e-06
3.17579e-05
4.41394e-06
3.2851e-05
7.08643e-06
3.32674e-05
9.33532e-06
3.30665e-05
1.11549e-05
3.23168e-05
1.25515e-05
3.10938e-05
1.3543e-05
2.94774e-05
1.41581e-05
2.75489e-05
1.44347e-05
2.53874e-05
1.44172e-05
2.30682e-05
1.41542e-05
2.06587e-05
1.36951e-05
1.82191e-05
1.30877e-05
1.57987e-05
1.23737e-05
1.34402e-05
1.15876e-05
1.1175e-05
1.07518e-05
9.03327e-06
9.87685e-06
7.0351e-06
8.9568e-06
5.20975e-06
7.9746e-06
3.57668e-06
6.8966e-06
2.18301e-06
5.68917e-06
1.06198e-06
4.30885e-06
3.08527e-07
2.73888e-06
9.62944e-07
3.04621e-07
-1.38523e-06
1.05212e-06
-3.74414e-06
2.12961e-06
-5.60569e-06
3.38663e-06
-6.93379e-06
4.72205e-06
-7.70413e-06
6.02091e-06
-7.94346e-06
7.20463e-06
-7.69881e-06
8.19909e-06
-7.04872e-06
8.95839e-06
-6.08029e-06
9.44657e-06
-4.88821e-06
9.64654e-06
-3.55992e-06
9.54815e-06
-2.17235e-06
9.14998e-06
-7.84311e-07
8.45114e-06
5.6495e-07
7.45034e-06
1.85792e-06
6.14067e-06
3.09746e-06
4.50851e-06
4.3048e-06
2.53114e-06
5.51544e-06
1.77165e-07
6.77418e-06
-2.5931e-06
8.12933e-06
-5.82532e-06
9.62707e-06
-9.56874e-06
1.13066e-05
-1.38729e-05
1.31964e-05
-1.87847e-05
1.53131e-05
-2.43452e-05
1.76605e-05
-3.0587e-05
2.02305e-05
-3.75312e-05
2.30041e-05
-4.51852e-05
2.59527e-05
-5.35397e-05
2.90381e-05
-6.25668e-05
3.22133e-05
-7.22187e-05
3.54235e-05
-8.24276e-05
3.86069e-05
-9.31067e-05
4.16972e-05
-0.000104153
4.46262e-05
-0.000115453
4.73271e-05
-0.000126886
4.97378e-05
-0.000138329
5.18042e-05
-0.000149665
5.34821e-05
-0.000160785
5.47391e-05
-0.000171596
5.55547e-05
-0.000182015
5.592e-05
-0.000191978
5.58365e-05
-0.000201435
5.53143e-05
-0.00021035
5.43702e-05
-0.000218699
5.30258e-05
-0.000226466
5.1306e-05
-0.000233646
4.92368e-05
-0.000240235
4.68451e-05
-0.000246236
4.41569e-05
-0.000251653
4.11972e-05
-0.00025649
3.79893e-05
-0.000260752
3.45549e-05
-0.000264445
3.09139e-05
-0.000267572
2.70844e-05
-0.000270136
2.3083e-05
-0.000272136
1.89248e-05
-0.000273574
1.46241e-05
-0.000274447
1.01944e-05
-0.000274752
5.64893e-06
-0.000274484
1.00113e-06
-0.000273635
-3.73497e-06
-0.000272198
-8.54418e-06
-0.000270163
-1.34096e-05
-0.00026752
-1.8312e-05
-0.000264256
-2.32294e-05
-0.00026036
-2.81363e-05
-0.00025582
-3.30035e-05
-0.000250623
-3.7797e-05
-0.000244759
-4.24786e-05
-0.000238222
-4.70048e-05
-0.000231006
-5.13273e-05
-0.000223114
-5.53934e-05
-0.000214553
-5.91465e-05
-0.000205338
-6.2527e-05
-0.000195496
-6.54737e-05
-0.000185062
-6.79263e-05
-0.000174086
-6.98266e-05
-0.000162629
-7.11222e-05
-0.000150767
-7.17683e-05
-0.000138587
-7.17315e-05
-0.00012619
-7.09916e-05
-0.000113684
-6.95444e-05
-0.000101185
-6.74031e-05
-8.88118e-05
-6.45986e-05
-7.66819e-05
-6.11798e-05
-6.49084e-05
-5.72113e-05
-5.35958e-05
-5.27714e-05
-4.28369e-05
-4.79487e-05
-3.27109e-05
-4.2838e-05
-2.32823e-05
-3.75367e-05
-1.46008e-05
-3.21412e-05
-6.70248e-06
-2.67439e-05
3.88951e-07
-2.14312e-05
6.66026e-06
-1.62821e-05
1.21072e-05
-1.13674e-05
1.67333e-05
-6.74971e-06
2.05496e-05
-2.48321e-06
2.35747e-05
1.38663e-06
2.58352e-05
4.82357e-06
2.73666e-05
7.80142e-06
2.82141e-05
1.0305e-05
2.8432e-05
1.23311e-05
2.80838e-05
1.38888e-05
2.724e-05
1.49996e-05
2.59766e-05
1.5696e-05
2.43713e-05
1.60204e-05
2.2502e-05
1.60218e-05
2.04421e-05
1.57531e-05
1.82609e-05
1.52676e-05
1.60183e-05
1.46146e-05
1.37687e-05
1.38363e-05
1.15554e-05
1.29633e-05
9.42006e-06
1.20121e-05
7.3929e-06
1.09818e-05
5.51343e-06
9.85517e-06
3.80961e-06
8.59719e-06
2.33897e-06
7.16307e-06
1.14398e-06
5.49801e-06
3.34101e-07
3.55549e-06
1.293e-06
3.21739e-07
-1.7034e-06
1.10259e-06
-4.53238e-06
2.21238e-06
-6.71025e-06
3.48279e-06
-8.20851e-06
4.8002e-06
-9.01919e-06
6.03994e-06
-9.18564e-06
7.11912e-06
-8.77708e-06
7.96216e-06
-7.89321e-06
8.52479e-06
-6.64268e-06
8.77345e-06
-5.13778e-06
8.69367e-06
-3.48017e-06
8.27651e-06
-1.75574e-06
7.51983e-06
-2.77258e-08
6.41941e-06
1.66505e-06
4.96802e-06
3.30924e-06
3.15026e-06
4.91506e-06
9.42148e-07
6.51289e-06
-1.69046e-06
8.14799e-06
-4.79033e-06
9.87407e-06
-8.4072e-06
1.17462e-05
-1.25943e-05
1.38142e-05
-1.74048e-05
1.61172e-05
-2.28879e-05
1.86797e-05
-2.90849e-05
2.15104e-05
-3.60261e-05
2.4602e-05
-4.37272e-05
2.79319e-05
-5.21868e-05
3.14642e-05
-6.13836e-05
3.51501e-05
-7.12747e-05
3.89299e-05
-8.17949e-05
4.27343e-05
-9.28572e-05
4.64868e-05
-0.000104356
5.01066e-05
-0.00011617
5.35128e-05
-0.000128171
5.66282e-05
-0.000140225
5.93837e-05
-0.000152207
6.17212e-05
-0.000163997
6.35964e-05
-0.000175492
6.49793e-05
-0.000186605
6.58544e-05
-0.000197266
6.6219e-05
-0.000207425
6.60815e-05
-0.000217044
6.54589e-05
-0.000226101
6.43745e-05
-0.000234583
6.28558e-05
-0.000242487
6.09325e-05
-0.000249812
5.86351e-05
-0.000256566
5.59935e-05
-0.000262754
5.30368e-05
-0.000268386
4.9792e-05
-0.00027347
4.62845e-05
-0.000278015
4.25373e-05
-0.000282029
3.85715e-05
-0.000285518
3.44059e-05
-0.000288489
3.00575e-05
-0.000290946
2.55417e-05
-0.000292892
2.08722e-05
-0.000294328
1.60618e-05
-0.000295255
1.11222e-05
-0.000295671
6.06494e-06
-0.000295572
9.01396e-07
-0.000294951
-4.35648e-06
-0.000293801
-9.69567e-06
-0.00029211
-1.51016e-05
-0.000289867
-2.05572e-05
-0.000287057
-2.60428e-05
-0.000283662
-3.15348e-05
-0.000279663
-3.70057e-05
-0.000275042
-4.24228e-05
-0.000269777
-4.77481e-05
-0.000263849
-5.29377e-05
-0.00025724
-5.79418e-05
-0.000249934
-6.27045e-05
-0.000241922
-6.71641e-05
-0.000233201
-7.12544e-05
-0.000223775
-7.49054e-05
-0.000213662
-7.80455e-05
-0.000202891
-8.06036e-05
-0.000191507
-8.25122e-05
-0.00017957
-8.37105e-05
-0.000167159
-8.4148e-05
-0.000154368
-8.37883e-05
-0.000141305
-8.26118e-05
-0.000128093
-8.06192e-05
-0.000114863
-7.78326e-05
-0.00010175
-7.42962e-05
-8.88884e-05
-7.00757e-05
-7.64068e-05
-6.52555e-05
-6.44224e-05
-5.99349e-05
-5.30378e-05
-5.42241e-05
-4.23372e-05
-4.82381e-05
-3.23863e-05
-4.20925e-05
-2.3232e-05
-3.58983e-05
-1.49042e-05
-2.97587e-05
-7.41854e-06
-2.37671e-05
-7.79139e-07
-1.80058e-05
5.01866e-06
-1.25463e-05
9.98633e-06
-7.44944e-06
1.41409e-05
-2.76638e-06
1.75049e-05
1.46123e-06
2.01068e-05
5.20125e-06
2.1982e-05
8.43165e-06
2.31734e-05
1.11414e-05
2.37327e-05
1.33313e-05
2.37192e-05
1.50146e-05
2.31998e-05
1.6217e-05
2.2246e-05
1.69755e-05
2.0933e-05
1.73362e-05
1.93351e-05
1.7352e-05
1.75256e-05
1.70785e-05
1.55711e-05
1.65697e-05
1.35351e-05
1.58737e-05
1.14706e-05
1.50279e-05
9.43008e-06
1.40543e-05
7.45413e-06
1.2957e-05
5.59264e-06
1.17191e-05
3.88309e-06
1.03045e-05
2.39283e-06
8.65755e-06
1.17307e-06
6.71243e-06
3.42768e-07
4.39328e-06
1.63206e-06
3.36486e-07
-2.03575e-06
1.13939e-06
-5.34243e-06
2.26014e-06
-7.82497e-06
3.51287e-06
-9.46502e-06
4.77215e-06
-1.02753e-05
5.90516e-06
-1.03204e-05
6.82619e-06
-9.69633e-06
7.45988e-06
-8.52758e-06
7.76485e-06
-6.94662e-06
7.71088e-06
-5.08401e-06
7.28637e-06
-3.05505e-06
6.48329e-06
-9.52664e-07
5.29789e-06
1.15803e-06
3.72134e-06
3.24163e-06
1.73893e-06
5.29185e-06
-6.74646e-07
7.32865e-06
-3.55471e-06
9.39304e-06
-6.947e-06
1.15403e-05
-1.09046e-05
1.38317e-05
-1.54848e-05
1.63264e-05
-2.07443e-05
1.90737e-05
-2.67346e-05
2.21074e-05
-3.34971e-05
2.54421e-05
-4.10593e-05
2.90725e-05
-4.94309e-05
3.29733e-05
-5.86008e-05
3.71016e-05
-6.85349e-05
4.1398e-05
-7.91747e-05
4.57894e-05
-9.04372e-05
5.0192e-05
-0.000102217
5.45139e-05
-0.000114392
5.86603e-05
-0.000126824
6.25381e-05
-0.000139373
6.60609e-05
-0.0001519
6.91538e-05
-0.000164274
7.17568e-05
-0.000176381
7.38267e-05
-0.000188123
7.53372e-05
-0.000199424
7.62783e-05
-0.000210225
7.66537e-05
-0.000220486
7.64785e-05
-0.000230183
7.5776e-05
-0.000239302
7.45753e-05
-0.000247838
7.29089e-05
-0.000255795
7.08107e-05
-0.00026318
6.83149e-05
-0.000270002
6.54545e-05
-0.000276272
6.22613e-05
-0.000282003
5.87651e-05
-0.000287206
5.49932e-05
-0.000291894
5.09708e-05
-0.00029608
4.67207e-05
-0.000299774
4.22634e-05
-0.000302987
3.7617e-05
-0.000305728
3.27976e-05
-0.000308007
2.78193e-05
-0.00030983
2.26947e-05
-0.000311204
1.74346e-05
-0.000312131
1.20492e-05
-0.000312614
6.54763e-06
-0.000312651
9.38945e-07
-0.000312239
-4.76761e-06
-0.000311372
-1.0562e-05
-0.00031004
-1.64326e-05
-0.000308229
-2.2366e-05
-0.000305924
-2.83458e-05
-0.000303104
-3.43519e-05
-0.000299747
-4.03601e-05
-0.000295826
-4.63409e-05
-0.000291312
-5.22589e-05
-0.000286173
-5.80722e-05
-0.000280379
-6.37318e-05
-0.000273898
-6.91814e-05
-0.000266701
-7.4357e-05
-0.000258763
-7.9188e-05
-0.000250067
-8.35977e-05
-0.000240603
-8.75048e-05
-0.000230377
-9.08258e-05
-0.000219407
-9.34777e-05
-0.000207732
-9.53817e-05
-0.000195409
-9.64672e-05
-0.000182517
-9.66763e-05
-0.000169157
-9.59684e-05
-0.000155449
-9.4324e-05
-0.000141531
-9.17481e-05
-0.000127552
-8.82726e-05
-0.000113669
-8.39564e-05
-0.000100039
-7.88839e-05
-8.68107e-05
-7.31616e-05
-7.41203e-05
-6.69135e-05
-6.20841e-05
-6.02737e-05
-5.07957e-05
-5.33806e-05
-4.03243e-05
-4.63696e-05
-3.07155e-05
-3.93678e-05
-2.19933e-05
-3.24897e-05
-1.41646e-05
-2.58353e-05
-7.22259e-06
-1.94891e-05
-1.15156e-06
-1.35215e-05
4.07042e-06
-7.98945e-06
8.46937e-06
-2.93886e-06