/*--------------------------------*- C++ -*----------------------------------*\
| =========                 |                                                 |
| \\      /  F ield         | OpenFOAM: The Open Source CFD Toolbox           |
|  \\    /   O peration     | Version:  2406                                  |
|   \\  /    A nd           | Website:  www.openfoam.com                      |
|    \\/     M anipulation  |                                                 |
\*---------------------------------------------------------------------------*/
FoamFile
{
    version     2.0;
    format      ascii;
    arch        "LSB;label=32;scalar=64";
    class       volScalarField;
    location    "40.9";
    object      p;
}
// * * * * * * * * * * * * * * * * * * * * * * * * * * * * * * * * * * * * * //

dimensions      [0 2 -2 0 0 0 0];

internalField   nonuniform List<scalar> 
14400
(
0.0438099
0.0438228
0.0438336
0.0438465
0.0438488
0.0438452
0.0438291
0.0438047
0.0437695
0.0437272
0.0436775
0.0436232
0.0435646
0.0435036
0.0434404
0.0433755
0.0433087
0.0432396
0.0431672
0.0430906
0.0430085
0.0429198
0.042823
0.0427171
0.0426007
0.042473
0.0423328
0.0421794
0.0420118
0.0418292
0.041631
0.0414165
0.0411853
0.040937
0.0406716
0.0403893
0.0400907
0.0397769
0.0394493
0.0391099
0.0387614
0.038407
0.0380505
0.0376964
0.0373497
0.037016
0.0367015
0.0364126
0.0361562
0.035939
0.0357679
0.0356498
0.0355908
0.0355966
0.0356723
0.0358218
0.0360478
0.0363518
0.0367337
0.0371918
0.0377224
0.0383202
0.0389776
0.0396855
0.0404327
0.0412062
0.0419915
0.0427729
0.0435337
0.0442565
0.0449241
0.0455197
0.0460277
0.0464339
0.0467266
0.0468971
0.0469395
0.0468519
0.0466361
0.0462974
0.045845
0.0452911
0.0446509
0.0439412
0.0431805
0.0423873
0.0415802
0.0407765
0.0399919
0.03924
0.0385319
0.037876
0.0372781
0.0367416
0.0362673
0.0358544
0.0355002
0.035201
0.034952
0.0347481
0.0345839
0.0344541
0.0343535
0.0342775
0.0342217
0.0341823
0.0341559
0.03414
0.0341319
0.0341303
0.0341329
0.0341399
0.0341492
0.0341622
0.0341762
0.0341941
0.0342111
0.0342305
0.0342441
0.0342536
0.043797
0.0438098
0.0438147
0.0438227
0.0438202
0.0438142
0.043797
0.0437736
0.0437406
0.0437016
0.0436558
0.0436058
0.0435514
0.0434944
0.0434348
0.043373
0.0433088
0.0432418
0.0431714
0.0430967
0.0430165
0.04293
0.0428359
0.0427331
0.0426206
0.0424974
0.0423626
0.0422153
0.0420547
0.0418799
0.0416902
0.0414851
0.0412638
0.0410262
0.040772
0.0405014
0.0402147
0.039913
0.0395973
0.0392697
0.0389324
0.0385883
0.0382411
0.0378949
0.0375546
0.0372255
0.0369135
0.0366249
0.0363663
0.0361446
0.0359664
0.0358384
0.0357671
0.035758
0.0358163
0.035946
0.03615
0.0364301
0.0367862
0.0372169
0.037719
0.0382872
0.0389146
0.0395921
0.040309
0.0410527
0.0418091
0.0425629
0.0432976
0.0439965
0.0446425
0.0452191
0.0457111
0.0461046
0.0463881
0.0465529
0.0465934
0.0465077
0.0462976
0.0459685
0.0455293
0.0449924
0.0443723
0.0436858
0.0429509
0.0421857
0.0414082
0.040635
0.0398813
0.03916
0.0384814
0.0378533
0.0372811
0.0367675
0.0363132
0.035917
0.0355762
0.0352871
0.0350452
0.0348454
0.0346829
0.0345525
0.0344496
0.0343698
0.0343092
0.0342643
0.034232
0.0342101
0.0341959
0.0341885
0.0341855
0.0341871
0.034191
0.0341989
0.0342073
0.0342196
0.0342303
0.0342446
0.0342531
0.0342629
0.0437861
0.0438049
0.04381
0.0438197
0.0438166
0.0438108
0.0437931
0.0437696
0.0437364
0.0436976
0.0436521
0.0436027
0.0435492
0.0434934
0.0434351
0.043375
0.0433126
0.0432476
0.0431792
0.0431067
0.0430288
0.0429447
0.0428531
0.042753
0.0426434
0.0425234
0.0423919
0.0422481
0.0420912
0.0419203
0.0417347
0.0415335
0.0413162
0.0410822
0.0408313
0.0405634
0.0402788
0.0399781
0.0396626
0.0393339
0.0389941
0.0386461
0.0382934
0.0379402
0.0375913
0.0372521
0.0369286
0.0366274
0.0363551
0.0361189
0.0359257
0.0357826
0.035696
0.0356721
0.035716
0.0358322
0.0360236
0.0362922
0.0366383
0.0370604
0.0375553
0.0381179
0.0387413
0.0394166
0.0401329
0.0408775
0.0416364
0.0423941
0.043134
0.043839
0.044492
0.0450762
0.0455758
0.0459769
0.0462674
0.0464385
0.0464841
0.0464023
0.0461945
0.0458663
0.0454267
0.044888
0.0442653
0.0435758
0.0428378
0.0420699
0.0412905
0.0405168
0.0397642
0.0390456
0.0383717
0.0377502
0.0371861
0.0366821
0.0362383
0.0358532
0.0355238
0.0352457
0.0350143
0.0348242
0.0346702
0.0345472
0.0344504
0.0343755
0.0343186
0.0342765
0.034246
0.0342252
0.0342114
0.0342038
0.0342002
0.0342011
0.0342038
0.0342105
0.0342173
0.0342289
0.0342381
0.0342533
0.0342615
0.034277
0.0437721
0.043796
0.0437999
0.0438099
0.0438048
0.0437982
0.0437791
0.0437554
0.0437222
0.0436843
0.0436401
0.0435927
0.0435416
0.0434886
0.0434334
0.0433765
0.0433175
0.043256
0.0431912
0.0431223
0.0430483
0.0429681
0.0428808
0.0427853
0.0426807
0.042566
0.0424403
0.0423028
0.0421524
0.0419883
0.0418095
0.0416151
0.0414043
0.0411762
0.0409304
0.0406665
0.0403844
0.0400846
0.0397678
0.0394355
0.0390896
0.038733
0.0383689
0.0380017
0.0376362
0.0372781
0.0369337
0.0366096
0.0363132
0.0360517
0.0358327
0.0356632
0.0355504
0.0355003
0.0355187
0.0356099
0.0357773
0.0360228
0.0363469
0.0367483
0.0372239
0.0377688
0.0383762
0.0390373
0.0397414
0.0404761
0.0412274
0.0419798
0.0427171
0.043422
0.0440774
0.0446663
0.0451729
0.0455828
0.0458837
0.0460663
0.0461243
0.0460552
0.0458603
0.0455447
0.0451173
0.0445905
0.0439794
0.0433011
0.0425743
0.0418179
0.0410505
0.0402896
0.0395508
0.0388473
0.0381896
0.0375854
0.0370398
0.0365548
0.0361306
0.0357651
0.0354546
0.0351948
0.0349802
0.0348053
0.0346646
0.0345529
0.0344654
0.0343977
0.0343461
0.0343076
0.0342793
0.0342593
0.0342453
0.0342369
0.0342316
0.0342305
0.0342304
0.0342345
0.0342379
0.034247
0.0342528
0.0342678
0.0342744
0.0342959
0.0437665
0.0437962
0.0438009
0.0438132
0.0438077
0.0438009
0.0437805
0.0437557
0.0437211
0.0436824
0.0436376
0.0435903
0.0435399
0.0434884
0.0434352
0.0433811
0.0433252
0.0432673
0.0432063
0.0431415
0.0430716
0.0429956
0.0429125
0.0428212
0.0427208
0.0426102
0.0424886
0.0423548
0.0422078
0.0420464
0.0418695
0.0416757
0.041464
0.041233
0.040982
0.0407102
0.0404172
0.0401031
0.0397687
0.0394153
0.0390449
0.0386606
0.038266
0.0378658
0.0374656
0.0370715
0.0366905
0.03633
0.0359978
0.0357017
0.0354496
0.0352492
0.0351074
0.035031
0.0350253
0.0350951
0.0352435
0.0354725
0.0357826
0.0361723
0.0366387
0.0371769
0.0377801
0.0384395
0.0391447
0.0398834
0.0406415
0.0414039
0.042154
0.0428747
0.0435487
0.0441588
0.0446886
0.0451233
0.0454501
0.0456589
0.0457428
0.0456984
0.0455265
0.0452317
0.0448225
0.0443109
0.043712
0.0430432
0.0423233
0.041572
0.0408083
0.0400504
0.0393146
0.0386146
0.0379616
0.0373638
0.0368264
0.0363518
0.03594
0.0355887
0.0352942
0.0350513
0.0348543
0.0346972
0.0345739
0.0344786
0.0344062
0.0343521
0.0343123
0.0342839
0.0342638
0.0342505
0.0342416
0.034237
0.0342342
0.0342348
0.0342355
0.0342402
0.0342432
0.0342527
0.0342579
0.0342752
0.0342823
0.0343108
0.0437643
0.043798
0.0438026
0.0438158
0.0438087
0.0438009
0.0437783
0.0437519
0.0437156
0.043676
0.0436309
0.0435842
0.0435353
0.0434861
0.043436
0.0433856
0.043334
0.0432806
0.0432245
0.0431645
0.0430996
0.0430286
0.0429504
0.0428639
0.0427681
0.042662
0.0425442
0.0424137
0.0422689
0.0421085
0.0419307
0.0417337
0.041516
0.0412758
0.0410118
0.0407229
0.0404084
0.0400683
0.0397034
0.0393151
0.038906
0.0384796
0.0380404
0.0375937
0.0371458
0.0367038
0.0362753
0.0358684
0.0354913
0.0351522
0.0348594
0.0346206
0.034443
0.034333
0.0342961
0.0343369
0.0344585
0.0346628
0.0349501
0.0353193
0.0357673
0.0362896
0.0368795
0.0375287
0.038227
0.0389625
0.0397217
0.0404895
0.0412499
0.041986
0.0426803
0.0433157
0.0438755
0.0443444
0.0447089
0.0449581
0.0450841
0.0450827
0.0449535
0.0447
0.0443301
0.0438549
0.0432892
0.0426501
0.0419564
0.0412279
0.040484
0.0397434
0.0390229
0.038337
0.0376973
0.0371126
0.0365885
0.036128
0.035731
0.0353957
0.0351181
0.034893
0.0347143
0.0345757
0.0344705
0.0343928
0.0343369
0.0342979
0.0342715
0.0342546
0.0342442
0.0342388
0.0342361
0.0342362
0.0342367
0.0342395
0.0342412
0.0342464
0.0342488
0.0342585
0.0342626
0.0342812
0.034288
0.0343222
0.0437717
0.0438089
0.0438137
0.0438279
0.0438194
0.0438101
0.0437849
0.0437561
0.0437172
0.0436757
0.0436293
0.0435824
0.0435342
0.0434868
0.0434394
0.0433925
0.0433449
0.0432962
0.0432448
0.0431897
0.0431296
0.0430631
0.042989
0.0429061
0.0428131
0.0427086
0.0425912
0.0424592
0.0423106
0.0421434
0.0419553
0.041744
0.0415071
0.0412426
0.0409486
0.040624
0.0402681
0.0398812
0.0394646
0.0390205
0.0385523
0.0380645
0.0375627
0.0370533
0.0365436
0.0360415
0.0355552
0.0350933
0.0346645
0.0342773
0.0339397
0.0336595
0.0334437
0.0332987
0.0332297
0.0332409
0.0333355
0.0335153
0.0337804
0.0341299
0.0345608
0.0350688
0.0356476
0.0362893
0.0369842
0.0377209
0.0384865
0.0392664
0.0400451
0.0408059
0.0415316
0.0422049
0.042809
0.0433279
0.0437476
0.0440559
0.0442438
0.0443056
0.0442396
0.0440478
0.0437367
0.0433164
0.0428006
0.042206
0.0415511
0.0408557
0.0401396
0.0394219
0.0387202
0.0380496
0.0374228
0.0368492
0.0363354
0.0358848
0.0354982
0.0351741
0.0349087
0.0346971
0.0345332
0.0344104
0.0343219
0.0342612
0.0342222
0.0341996
0.0341887
0.0341862
0.0341885
0.0341943
0.034201
0.034209
0.0342157
0.0342235
0.0342288
0.0342369
0.0342409
0.0342524
0.0342569
0.0342779
0.0342852
0.0343241
0.0437852
0.0438248
0.0438291
0.043843
0.043832
0.0438203
0.0437917
0.0437597
0.0437179
0.0436742
0.0436267
0.0435797
0.0435326
0.0434874
0.0434432
0.0434002
0.0433572
0.0433132
0.0432668
0.0432165
0.0431608
0.0430983
0.0430273
0.0429464
0.0428539
0.0427481
0.0426267
0.0424877
0.0423282
0.0421454
0.0419364
0.0416982
0.041428
0.0411233
0.0407824
0.0404041
0.0399884
0.0395364
0.0390503
0.0385336
0.0379909
0.0374278
0.0368512
0.0362685
0.0356877
0.0351174
0.0345663
0.0340432
0.0335569
0.0331157
0.0327277
0.0324004
0.0321405
0.031954
0.0318459
0.0318205
0.0318804
0.0320276
0.0322622
0.0325834
0.0329885
0.0334736
0.0340329
0.0346591
0.0353434
0.036075
0.0368418
0.0376303
0.0384255
0.0392113
0.0399713
0.0406881
0.0413451
0.0419258
0.0424154
0.0428007
0.0430713
0.0432198
0.0432426
0.0431397
0.0429156
0.0425788
0.0421414
0.0416188
0.0410288
0.0403906
0.0397242
0.0390489
0.0383828
0.0377419
0.0371395
0.0365862
0.0360893
0.0356531
0.0352792
0.0349667
0.0347127
0.0345127
0.0343608
0.0342508
0.0341757
0.0341289
0.0341042
0.0340959
0.034099
0.0341097
0.0341243
0.0341412
0.0341576
0.0341739
0.0341874
0.0342008
0.0342101
0.0342215
0.0342275
0.0342406
0.0342457
0.0342681
0.0342756
0.0343174
0.0438089
0.0438502
0.0438538
0.0438667
0.0438529
0.043838
0.0438054
0.0437696
0.0437242
0.0436779
0.0436286
0.0435812
0.0435348
0.0434915
0.0434501
0.0434106
0.0433716
0.0433318
0.0432894
0.0432428
0.04319
0.0431293
0.0430586
0.042976
0.0428791
0.0427654
0.042632
0.0424758
0.0422933
0.0420807
0.0418344
0.041551
0.0412274
0.0408615
0.0404517
0.039998
0.0395013
0.0389639
0.0383897
0.0377835
0.0371513
0.0365001
0.0358376
0.0351721
0.0345124
0.0338674
0.0332459
0.0326569
0.032109
0.0316103
0.0311687
0.0307912
0.0304843
0.0302537
0.0301041
0.0300393
0.0300621
0.030174
0.0303755
0.0306657
0.0310423
0.0315018
0.032039
0.0326474
0.0333188
0.0340437
0.0348108
0.0356076
0.0364202
0.0372336
0.0380319
0.0387985
0.0395167
0.0401702
0.0407434
0.0412223
0.0415949
0.0418519
0.0419873
0.0419991
0.041889
0.041663
0.041331
0.0409066
0.0404061
0.0398478
0.0392512
0.0386358
0.03802
0.0374207
0.0368522
0.036326
0.0358506
0.0354315
0.0350712
0.0347698
0.0345254
0.0343341
0.0341907
0.0340895
0.0340238
0.0339873
0.0339735
0.0339767
0.0339917
0.0340143
0.0340405
0.0340683
0.0340948
0.0341202
0.0341416
0.0341617
0.0341765
0.0341923
0.0342015
0.0342172
0.0342238
0.0342476
0.0342555
0.0342987
0.0438414
0.0438835
0.0438856
0.0438965
0.043879
0.0438599
0.0438226
0.0437824
0.043733
0.0436839
0.0436329
0.0435852
0.0435396
0.0434981
0.0434594
0.0434231
0.0433875
0.043351
0.0433114
0.0432668
0.0432145
0.0431525
0.0430779
0.0429881
0.0428798
0.0427497
0.0425937
0.0424078
0.0421874
0.0419283
0.0416264
0.0412782
0.0408809
0.0404332
0.0399346
0.0393864
0.0387912
0.0381529
0.0374769
0.0367695
0.036038
0.0352904
0.0345353
0.0337816
0.0330383
0.0323145
0.0316192
0.0309611
0.0303486
0.0297895
0.0292912
0.0288604
0.0285033
0.0282249
0.0280297
0.0279213
0.027902
0.0279735
0.028136
0.028389
0.0287305
0.0291573
0.029665
0.0302478
0.0308986
0.0316089
0.0323687
0.033167
0.033991
0.034827
0.0356604
0.0364756
0.0372565
0.0379872
0.0386518
0.0392356
0.0397253
0.0401098
0.0403809
0.0405335
0.0405665
0.0404825
0.0402886
0.0399954
0.0396169
0.0391697
0.0386721
0.0381432
0.0376014
0.0370643
0.036547
0.0360622
0.0356196
0.0352262
0.0348856
0.0345994
0.0343663
0.0341839
0.0340477
0.0339528
0.0338932
0.0338629
0.0338559
0.0338667
0.0338896
0.0339208
0.0339558
0.0339924
0.0340273
0.0340606
0.0340891
0.0341155
0.0341355
0.0341556
0.0341681
0.0341861
0.0341941
0.0342186
0.0342268
0.0342695
0.0438856
0.0439279
0.043928
0.043936
0.0439143
0.0438902
0.0438476
0.0438025
0.0437489
0.0436966
0.0436437
0.0435952
0.04355
0.0435099
0.043473
0.0434389
0.0434052
0.0433701
0.0433308
0.0432848
0.0432291
0.0431604
0.0430753
0.0429699
0.04284
0.042681
0.0424877
0.0422552
0.0419782
0.0416522
0.0412732
0.0408382
0.0403457
0.0397953
0.0391887
0.0385286
0.0378194
0.037067
0.0362782
0.0354605
0.0346225
0.0337729
0.0329209
0.0320758
0.0312468
0.0304429
0.0296731
0.0289458
0.0282689
0.0276499
0.0270958
0.0266127
0.0262062
0.0258809
0.0256408
0.0254889
0.0254276
0.0254581
0.0255808
0.0257949
0.0260989
0.0264901
0.0269645
0.0275173
0.0281423
0.0288323
0.0295786
0.0303715
0.0312001
0.0320521
0.0329144
0.0337729
0.0346128
0.0354188
0.0361755
0.036868
0.0374823
0.0380057
0.0384277
0.0387406
0.0389398
0.0390245
0.0389976
0.0388663
0.0386412
0.0383362
0.0379674
0.0375526
0.0371098
0.0366567
0.0362092
0.0357813
0.0353841
0.0350259
0.0347123
0.0344459
0.0342273
0.0340549
0.0339258
0.0338357
0.0337798
0.0337528
0.0337491
0.0337637
0.0337911
0.0338275
0.0338683
0.0339112
0.0339527
0.0339925
0.0340272
0.0340593
0.0340845
0.0341087
0.0341247
0.034145
0.0341548
0.0341796
0.0341881
0.034229
0.0439418
0.0439831
0.0439808
0.0439848
0.043958
0.0439283
0.0438799
0.0438294
0.0437715
0.0437159
0.0436609
0.0436115
0.0435664
0.0435268
0.0434908
0.0434573
0.0434235
0.0433871
0.0433446
0.0432928
0.0432276
0.0431451
0.0430404
0.0429084
0.0427437
0.0425404
0.0422925
0.0419942
0.0416402
0.0412262
0.040749
0.0402069
0.0396
0.0389299
0.0382
0.0374152
0.0365818
0.0357071
0.0347992
0.033867
0.0329196
0.0319666
0.0310176
0.0300818
0.0291686
0.028287
0.0274454
0.0266519
0.0259141
0.0252387
0.0246321
0.0240998
0.0236466
0.0232768
0.0229936
0.0227997
0.0226968
0.0226861
0.0227677
0.022941
0.0232046
0.023556
0.0239922
0.0245088
0.0251009
0.0257621
0.0264854
0.0272627
0.0280846
0.0289409
0.0298202
0.0307102
0.0315979
0.0324693
0.0333102
0.0341063
0.0348432
0.0355076
0.0360875
0.0365725
0.0369549
0.0372301
0.0373967
0.0374575
0.0374185
0.0372898
0.0370842
0.036817
0.0365047
0.0361642
0.0358119
0.0354626
0.0351288
0.0348207
0.0345454
0.0343077
0.0341097
0.0339515
0.0338315
0.033747
0.033694
0.0336684
0.0336653
0.0336804
0.0337088
0.0337466
0.0337898
0.0338357
0.0338809
0.0339246
0.0339636
0.0339998
0.0340288
0.0340564
0.0340752
0.0340972
0.0341085
0.0341328
0.0341414
0.0341792
0.0440125
0.0440518
0.0440465
0.0440456
0.0440133
0.0439772
0.0439228
0.0438666
0.0438041
0.043745
0.0436877
0.0436369
0.0435909
0.0435506
0.0435136
0.0434782
0.0434412
0.0433994
0.0433485
0.0432843
0.0432016
0.0430951
0.0429587
0.0427859
0.0425699
0.0423039
0.0419812
0.041596
0.0411435
0.0406203
0.0400248
0.0393572
0.0386195
0.0378157
0.0369513
0.0360329
0.0350687
0.0340673
0.0330381
0.0319908
0.0309353
0.0298814
0.028839
0.0278174
0.0268258
0.0258728
0.0249664
0.024114
0.0233226
0.0225982
0.0219464
0.0213719
0.0208788
0.0204706
0.0201499
0.0199188
0.0197786
0.0197301
0.0197732
0.0199073
0.0201311
0.0204424
0.0208385
0.0213159
0.0218704
0.0224969
0.0231896
0.0239419
0.0247462
0.0255941
0.0264764
0.0273828
0.0283023
0.029223
0.0301323
0.0310171
0.0318641
0.03266
0.0333919
0.034048
0.0346181
0.0350939
0.03547
0.0357442
0.0359177
0.0359952
0.0359852
0.0358989
0.0357498
0.0355532
0.0353246
0.0350791
0.0348303
0.03459
0.0343675
0.0341696
0.0340006
0.0338625
0.0337557
0.0336789
0.0336296
0.033605
0.0336012
0.0336146
0.0336413
0.0336778
0.0337202
0.0337662
0.0338122
0.0338575
0.0338987
0.0339372
0.0339688
0.0339985
0.0340194
0.0340425
0.034055
0.0340783
0.0340869
0.0341208
0.0440987
0.0441347
0.0441259
0.0441192
0.0440808
0.0440377
0.0439771
0.0439151
0.043848
0.0437851
0.0437251
0.0436719
0.0436239
0.0435811
0.0435407
0.0435002
0.0434557
0.0434029
0.0433367
0.0432515
0.0431408
0.0429978
0.0428149
0.0425843
0.0422982
0.0419493
0.0415309
0.0410378
0.0404665
0.0398153
0.0390847
0.0382771
0.0373971
0.0364506
0.0354453
0.0343897
0.0332932
0.0321659
0.0310181
0.0298602
0.0287025
0.027555
0.0264277
0.0253295
0.0242694
0.0232552
0.0222943
0.0213935
0.0205586
0.019795
0.0191073
0.0184993
0.0179743
0.0175349
0.0171832
0.0169206
0.016748
0.0166657
0.0166735
0.0167705
0.0169555
0.0172266
0.0175815
0.0180171
0.0185301
0.0191163
0.0197711
0.0204892
0.0212648
0.0220912
0.0229612
0.0238668
0.0247991
0.0257486
0.0267048
0.0276568
0.0285927
0.0295005
0.0303676
0.0311818
0.0319314
0.0326057
0.0331957
0.0336946
0.0340985
0.0344064
0.034621
0.0347482
0.034797
0.034779
0.0347075
0.0345966
0.0344601
0.0343111
0.0341608
0.0340183
0.0338904
0.0337816
0.0336944
0.0336296
0.0335867
0.0335641
0.0335594
0.0335702
0.0335933
0.033626
0.0336649
0.0337081
0.0337522
0.0337964
0.0338372
0.0338759
0.0339082
0.0339385
0.0339605
0.0339836
0.0339967
0.0340185
0.0340267
0.0340561
0.0442026
0.044234
0.0442212
0.0442076
0.0441631
0.0441126
0.0440456
0.0439775
0.0439057
0.0438386
0.0437751
0.0437184
0.0436665
0.0436186
0.0435712
0.0435211
0.0434632
0.0433922
0.0433017
0.0431845
0.0430326
0.0428377
0.0425909
0.0422834
0.0419069
0.0414541
0.0409193
0.0402987
0.0395906
0.0387958
0.0379171
0.0369595
0.0359299
0.0348366
0.0336888
0.032497
0.0312717
0.030024
0.028765
0.0275055
0.026256
0.0250266
0.0238267
0.022665
0.0215494
0.0204873
0.0194851
0.0185485
0.0176824
0.0168912
0.0161784
0.0155471
0.0149996
0.0145378
0.0141631
0.0138762
0.0136777
0.0135673
0.0135447
0.0136089
0.0137585
0.013992
0.0143071
0.0147013
0.0151718
0.0157152
0.0163279
0.0170058
0.0177444
0.0185386
0.0193831
0.0202719
0.0211983
0.0221551
0.0231345
0.0241278
0.0251255
0.0261174
0.0270926
0.0280398
0.028947
0.0298026
0.0305953
0.0313149
0.0319528
0.0325027
0.0329608
0.0333268
0.0336037
0.0337976
0.0339177
0.0339751
0.0339825
0.033953
0.033899
0.0338319
0.0337609
0.0336936
0.0336352
0.033589
0.0335568
0.0335389
0.0335347
0.033543
0.0335618
0.0335894
0.033623
0.0336612
0.033701
0.0337417
0.0337799
0.0338167
0.033848
0.0338773
0.033899
0.0339213
0.0339342
0.033954
0.0339617
0.0339864
0.0443255
0.0443505
0.0443334
0.0443121
0.0442612
0.044203
0.0441298
0.0440554
0.0439786
0.0439066
0.0438386
0.0437766
0.0437182
0.0436617
0.0436029
0.0435373
0.0434586
0.0433602
0.0432341
0.0430716
0.0428632
0.042599
0.0422692
0.0418646
0.0413771
0.0408005
0.0401306
0.0393657
0.0385068
0.0375571
0.0365222
0.0354097
0.0342287
0.0329895
0.0317031
0.0303812
0.0290356
0.0276781
0.02632
0.0249724
0.0236457
0.0223494
0.0210923
0.0198824
0.0187266
0.0176313
0.0166017
0.0156425
0.0147576
0.0139502
0.0132229
0.0125779
0.0120166
0.0115404
0.0111498
0.0108451
0.0106265
0.0104933
0.010445
0.0104805
0.0105984
0.0107971
0.0110746
0.0114288
0.0118572
0.0123572
0.0129258
0.0135597
0.0142557
0.01501
0.0158188
0.0166777
0.0175822
0.0185273
0.0195074
0.0205165
0.0215476
0.0225931
0.0236444
0.024692
0.0257255
0.0267336
0.0277045
0.0286261
0.0294867
0.0302755
0.0309831
0.0316027
0.0321301
0.0325647
0.0329094
0.0331704
0.0333569
0.03348
0.0335521
0.0335859
0.033593
0.0335839
0.0335671
0.0335489
0.033534
0.0335254
0.0335244
0.0335316
0.0335464
0.0335683
0.0335954
0.033627
0.0336605
0.0336955
0.0337291
0.0337618
0.0337901
0.0338169
0.033837
0.0338572
0.0338693
0.0338865
0.0338934
0.0339136
0.0444689
0.0444857
0.0444641
0.0444342
0.044377
0.0443109
0.0442316
0.0441507
0.0440685
0.0439905
0.0439163
0.0438465
0.0437783
0.0437087
0.0436325
0.0435438
0.0434352
0.0432982
0.0431232
0.0428998
0.0426173
0.0422648
0.0418322
0.0413104
0.0406927
0.0399744
0.0391537
0.0382317
0.0372122
0.0361012
0.0349071
0.0336399
0.0323107
0.0309317
0.0295154
0.0280746
0.0266216
0.0251688
0.0237275
0.0223085
0.0209215
0.0195754
0.018278
0.0170361
0.0158557
0.0147416
0.0136983
0.012729
0.0118366
0.0110234
0.010291
0.00964085
0.00907367
0.00859002
0.00819007
0.00787371
0.00764054
0.00748988
0.00742084
0.00743224
0.00752272
0.00769068
0.00793433
0.00825172
0.0086407
0.00909901
0.00962425
0.0102139
0.0108654
0.0115761
0.0123431
0.0131637
0.0140349
0.0149534
0.015916
0.0169186
0.0179571
0.0190264
0.0201207
0.0212331
0.0223556
0.0234788
0.024592
0.0256833
0.0267397
0.0277478
0.0286942
0.0295663
0.0303532
0.0310467
0.0316421
0.0321384
0.0325388
0.0328502
0.0330826
0.0332482
0.03336
0.0334309
0.0334727
0.0334956
0.0335076
0.0335149
0.0335215
0.0335303
0.0335426
0.0335592
0.0335795
0.0336035
0.0336295
0.0336572
0.0336843
0.0337113
0.033735
0.0337576
0.0337748
0.033792
0.0338024
0.0338169
0.0338227
0.0338389
0.0446334
0.0446401
0.0446139
0.0445747
0.0445115
0.0444373
0.044352
0.0442642
0.0441758
0.0440904
0.0440077
0.0439269
0.0438445
0.043756
0.0436551
0.0435343
0.0433845
0.0431957
0.0429565
0.0426553
0.0422801
0.0418199
0.0412649
0.0406075
0.0398425
0.038968
0.037985
0.0368977
0.0357128
0.0344394
0.0330882
0.0316716
0.0302026
0.0286948
0.0271619
0.0256173
0.0240738
0.0225433
0.0210371
0.0195649
0.0181358
0.0167573
0.0154361
0.0141777
0.0129868
0.0118671
0.0108216
0.00985264
0.0089621
0.00815129
0.00742114
0.00677223
0.00620485
0.005719
0.00531445
0.00499075
0.00474725
0.00458307
0.00449719
0.00448838
0.00455525
0.00469626
0.00490972
0.00519384
0.00554671
0.00596636
0.00645076
0.00699789
0.00760571
0.00827225
0.00899556
0.0097738
0.0106051
0.0114878
0.0124201
0.0134
0.0144254
0.0154938
0.016602
0.0177461
0.0189209
0.0201198
0.0213345
0.0225551
0.0237694
0.0249636
0.0261223
0.0272295
0.0282687
0.029225
0.0300854
0.0308407
0.0314857
0.0320204
0.0324497
0.0327824
0.0330311
0.0332097
0.0333329
0.0334145
0.0334665
0.0334991
0.0335199
0.0335346
0.0335469
0.0335595
0.0335735
0.0335896
0.0336072
0.0336265
0.0336458
0.0336655
0.033683
0.0337002
0.0337132
0.0337266
0.0337345
0.0337459
0.0337505
0.0337633
0.0448194
0.0448141
0.0447833
0.0447343
0.0446654
0.0445829
0.0444916
0.0443962
0.0443005
0.0442057
0.0441116
0.0440155
0.0439133
0.0437988
0.0436644
0.0435006
0.0432969
0.0430413
0.0427213
0.042324
0.0418373
0.0412507
0.0405555
0.0397463
0.0388206
0.0377795
0.0366273
0.0353714
0.0340214
0.0325893
0.0310882
0.0295323
0.0279364
0.026315
0.0246824
0.0230521
0.0214369
0.019848
0.0182957
0.0167888
0.0153348
0.0139401
0.01261
0.0113485
0.010159
0.00904403
0.00800552
0.00704483
0.00616293
0.00536038
0.00463749
0.0039943
0.00343065
0.00294617
0.00254037
0.00221255
0.00196189
0.00178743
0.00168806
0.00166252
0.00170944
0.00182734
0.00201462
0.0022696
0.00259055
0.0029757
0.00342327
0.00393154
0.00449884
0.00512363
0.00580452
0.00654029
0.00732991
0.00817258
0.00906766
0.0100146
0.0110131
0.0120624
0.0131618
0.0143099
0.0155045
0.0167421
0.0180177
0.0193243
0.0206522
0.0219895
0.0233214
0.0246307
0.0258981
0.0271035
0.0282273
0.0292516
0.0301621
0.0309494
0.0316102
0.0321473
0.0325692
0.0328887
0.0331218
0.0332852
0.0333952
0.0334663
0.0335105
0.0335374
0.0335538
0.0335649
0.0335736
0.0335823
0.0335913
0.0336016
0.0336121
0.0336235
0.0336336
0.0336442
0.0336519
0.0336608
0.0336656
0.033674
0.0336771
0.0336873
0.0450262
0.045007
0.0449718
0.0449125
0.0448383
0.0447475
0.04465
0.044546
0.0444414
0.0443343
0.0442251
0.0441085
0.0439799
0.0438308
0.0436525
0.0434334
0.0431613
0.0428229
0.0424045
0.041893
0.0412768
0.0405466
0.0396961
0.0387225
0.0376268
0.0364133
0.0350899
0.033667
0.0321574
0.0305752
0.0289359
0.0272552
0.0255487
0.0238318
0.0221186
0.0204224
0.018755
0.0171268
0.0155465
0.0140216
0.0125582
0.0111612
0.00983412
0.00858
0.00740086
0.00629816
0.00527286
0.00432552
0.00345639
0.00266547
0.00195258
0.0013174
0.000759446
0.000278138
-0.000127217
-0.000457419
-0.000713374
-0.000896094
-0.0010067
-0.00104643
-0.00101659
-0.000918631
-0.000754043
-0.000524398
-0.000231305
0.000123616
0.000538766
0.00101261
0.00154371
0.00213079
0.00277277
0.00346881
0.00421834
0.00502112
0.00587723
0.00678707
0.0077513
0.00877077
0.00984639
0.0109789
0.0121686
0.0134149
0.0147161
0.0160685
0.0174664
0.0189009
0.0203599
0.0218277
0.0232851
0.0247099
0.026078
0.0273647
0.0285469
0.0296051
0.0305256
0.0313017
0.0319345
0.0324323
0.0328094
0.0330839
0.0332753
0.0334028
0.0334833
0.0335313
0.0335577
0.033571
0.0335767
0.033579
0.0335797
0.0335807
0.0335818
0.0335842
0.0335861
0.0335892
0.0335909
0.0335945
0.0335957
0.033601
0.0336025
0.033611
0.0452524
0.0452173
0.0451781
0.0451081
0.0450292
0.0449297
0.0448256
0.0447116
0.0445959
0.0444731
0.0443439
0.0442006
0.0440376
0.0438442
0.0436102
0.043322
0.0429662
0.0425281
0.0419939
0.0413509
0.0405889
0.0397008
0.0386833
0.037537
0.0362664
0.0348796
0.0333878
0.0318045
0.030145
0.0284257
0.0266636
0.0248755
0.0230774
0.0212846
0.0195108
0.0177682
0.0160674
0.0144172
0.012825
0.0112965
0.00983609
0.00844723
0.00713228
0.00589284
0.00472993
0.00364408
0.0026355
0.0017041
0.000849615
7.16593e-05
-0.000630269
-0.00125675
-0.00180842
-0.00228599
-0.00269023
-0.00302199
-0.00328219
-0.00347182
-0.00359197
-0.00364383
-0.00362866
-0.00354779
-0.00340265
-0.00319471
-0.00292546
-0.00259641
-0.00220904
-0.00176477
-0.00126488
-0.000710516
-0.000102603
0.000558201
0.00127156
0.0020375
0.00285646
0.00372931
0.00465735
0.00564227
0.00668609
0.00779102
0.00895921
0.0101925
0.0114919
0.0128572
0.0142864
0.0157746
0.0173138
0.0188919
0.0204923
0.0220939
0.0236713
0.0251961
0.0266387
0.0279703
0.0291662
0.0302082
0.0310866
0.031801
0.0323603
0.0327806
0.0330831
0.0332905
0.033425
0.0335066
0.0335514
0.0335723
0.0335782
0.0335759
0.0335692
0.0335614
0.033553
0.0335459
0.0335389
0.0335342
0.0335291
0.0335272
0.0335242
0.0335265
0.0335264
0.033534
0.0454952
0.0454426
0.0453997
0.0453189
0.0452356
0.0451271
0.0450155
0.0448896
0.0447598
0.0446172
0.0444624
0.0442849
0.0440784
0.0438296
0.043527
0.0431551
0.0426997
0.0421454
0.041479
0.040689
0.0397676
0.0387107
0.0375186
0.0361956
0.03475
0.0331936
0.0315408
0.0298078
0.0280122
0.026172
0.0243053
0.022429
0.0205593
0.0187105
0.0168953
0.0151245
0.0134069
0.0117498
0.0101586
0.00863745
0.00718929
0.00581607
0.00451895
0.00329851
0.00215489
0.00108792
9.72124e-05
-0.000817745
-0.00165755
-0.00242286
-0.00311435
-0.00373271
-0.00427866
-0.00475295
-0.00515635
-0.00548969
-0.00575386
-0.0059498
-0.00607854
-0.00614117
-0.00613888
-0.00607292
-0.00594461
-0.00575532
-0.00550645
-0.00519941
-0.00483558
-0.00441628
-0.00394272
-0.00341596
-0.00283687
-0.00220604
-0.00152374
-0.000789864
-3.8702e-06
0.000835266
0.00172909
0.00267968
0.00368961
0.00476191
0.00589991
0.00710705
0.00838651
0.00974082
0.0111712
0.012677
0.0142545
0.0158964
0.0175906
0.0193197
0.0210605
0.0227845
0.0244588
0.0260485
0.0275192
0.0288408
0.0299906
0.0309562
0.0317365
0.0323417
0.0327905
0.0331075
0.0333193
0.0334515
0.0335265
0.0335627
0.0335736
0.0335696
0.0335571
0.033541
0.0335234
0.0335068
0.0334908
0.0334777
0.0334655
0.0334579
0.0334505
0.03345
0.0334482
0.0334555
0.0457507
0.0456791
0.0456331
0.0455413
0.0454539
0.0453356
0.0452153
0.045075
0.0449278
0.0447601
0.0445731
0.0443531
0.0440929
0.0437767
0.0433919
0.0429214
0.0423507
0.0416645
0.0408512
0.0399013
0.0388104
0.0375777
0.0362076
0.0347085
0.0330924
0.0313745
0.029572
0.0277037
0.0257887
0.0238462
0.0218942
0.0199498
0.018028
0.016142
0.0143028
0.0125194
0.0107989
0.00914654
0.0075661
0.00606014
0.00463018
0.00327694
0.0020006
0.000800916
-0.000322636
-0.00137073
-0.00234413
-0.00324362
-0.00406999
-0.00482403
-0.00550647
-0.00611804
-0.00665945
-0.00713142
-0.00753469
-0.00787003
-0.00813825
-0.00834022
-0.00847688
-0.00854924
-0.00855839
-0.00850549
-0.00839175
-0.00821844
-0.00798688
-0.00769837
-0.00735422
-0.00695567
-0.00650387
-0.00599985
-0.00544446
-0.00483827
-0.0041816
-0.00347438
-0.00271612
-0.00190584
-0.00104202
-0.000122553
0.000855289
0.00189484
0.00299997
0.00417501
0.00542449
0.00675285
0.00816393
0.00966036
0.0112427
0.0129084
0.0146508
0.0164579
0.0183112
0.0201856
0.0220492
0.0238646
0.0255913
0.0271892
0.0286226
0.0298647
0.0309009
0.0317303
0.0323647
0.0328269
0.0331453
0.0333508
0.0334722
0.0335346
0.0335575
0.033556
0.0335399
0.0335169
0.0334906
0.0334648
0.0334397
0.0334184
0.0333989
0.0333854
0.0333735
0.0333702
0.0333666
0.0333743
0.0460135
0.0459218
0.0458732
0.0457703
0.0456788
0.0455498
0.0454192
0.0452615
0.0450923
0.0448938
0.0446672
0.0443954
0.0440705
0.0436743
0.0431933
0.0426095
0.0419089
0.041077
0.0401047
0.0389854
0.0377185
0.0363072
0.0347603
0.0330898
0.0313118
0.0294442
0.0275069
0.0255202
0.0235045
0.021479
0.0194616
0.0174681
0.0155124
0.0136058
0.0117574
0.00997412
0.00826119
0.00662207
0.00505892
0.00357286
0.00216422
0.00083275
-0.000422149
-0.00160133
-0.00270574
-0.00373639
-0.00469425
-0.00558025
-0.00639525
-0.00714004
-0.00781536
-0.00842191
-0.00896034
-0.0094313
-0.00983545
-0.0101735
-0.0104461
-0.0106541
-0.0107984
-0.0108798
-0.0108994
-0.0108581
-0.0107572
-0.0105977
-0.010381
-0.0101081
-0.00978043
-0.00939904
-0.00896506
-0.0084795
-0.00794319
-0.00735675
-0.00672055
-0.00603462
-0.0052986
-0.00451169
-0.00367255
-0.00277924
-0.00182921
-0.000819186
0.000254772
0.00139727
0.00261346
0.00390885
0.00528898
0.00675889
0.00832248
0.00998154
0.0117346
0.0135755
0.0154923
0.0174655
0.0194677
0.0214636
0.0234109
0.0252634
0.026975
0.0285048
0.0298221
0.0309109
0.0317711
0.032418
0.0328783
0.0331858
0.0333752
0.0334788
0.0335235
0.0335305
0.0335144
0.0334864
0.0334525
0.0334179
0.0333841
0.0333546
0.0333278
0.0333084
0.0332919
0.0332859
0.0332804
0.0332889
0.0462771
0.0461643
0.0461138
0.0459996
0.0459038
0.0457627
0.0456195
0.0454407
0.0452448
0.0450088
0.0447344
0.044401
0.0439999
0.0435109
0.0429203