/*--------------------------------*- C++ -*----------------------------------*\
| =========                 |                                                 |
| \\      /  F ield         | OpenFOAM: The Open Source CFD Toolbox           |
|  \\    /   O peration     | Version:  2406                                  |
|   \\  /    A nd           | Website:  www.openfoam.com                      |
|    \\/     M anipulation  |                                                 |
\*---------------------------------------------------------------------------*/
FoamFile
{
    version     2.0;
    format      ascii;
    arch        "LSB;label=32;scalar=64";
    class       volVectorField;
    location    "40.9";
    object      Uold;
}
// * * * * * * * * * * * * * * * * * * * * * * * * * * * * * * * * * * * * * //

dimensions      [0 1 -1 0 0 0 0];

internalField   nonuniform List<vector> 
14400
(
(-1.88736e-05 1.883e-05 0)
(-3.62025e-06 -1.06868e-05 0)
(0.000106877 -4.34223e-05 0)
(0.000299372 -7.27033e-05 0)
(0.000562173 -9.02659e-05 0)
(0.000860912 -0.000100091 0)
(0.00117967 -0.000101141 0)
(0.00149125 -9.65589e-05 0)
(0.00178415 -8.68938e-05 0)
(0.00204252 -7.45846e-05 0)
(0.00226217 -6.06977e-05 0)
(0.00243814 -4.70112e-05 0)
(0.0025732 -3.43973e-05 0)
(0.00267022 -2.3835e-05 0)
(0.00273615 -1.56479e-05 0)
(0.00277736 -1.00415e-05 0)
(0.00280136 -6.77864e-06 0)
(0.00281403 -5.49265e-06 0)
(0.00282042 -5.57826e-06 0)
(0.00282332 -6.39283e-06 0)
(0.00282376 -7.2445e-06 0)
(0.0028206 -7.52331e-06 0)
(0.00281104 -6.71097e-06 0)
(0.00279079 -4.44165e-06 0)
(0.00275462 -4.83164e-07 0)
(0.00269662 5.26984e-06 0)
(0.00261063 1.28462e-05 0)
(0.00249033 2.22356e-05 0)
(0.00232942 3.34324e-05 0)
(0.0021215 4.64558e-05 0)
(0.00186013 6.13589e-05 0)
(0.0015387 7.8218e-05 0)
(0.00115049 9.71166e-05 0)
(0.000688642 0.000118123 0)
(0.000146353 0.000141274 0)
(-0.000483024 0.000166555 0)
(-0.00120576 0.000193896 0)
(-0.00202753 0.000223159 0)
(-0.00295315 0.000254135 0)
(-0.00398637 0.000286539 0)
(-0.00512958 0.000320012 0)
(-0.00638357 0.000354119 0)
(-0.00774734 0.000388353 0)
(-0.00921786 0.000422144 0)
(-0.0107899 0.000454861 0)
(-0.012456 0.000485828 0)
(-0.0142062 0.000514335 0)
(-0.0160284 0.000539647 0)
(-0.0179078 0.000561021 0)
(-0.0198277 0.000577717 0)
(-0.021769 0.000589012 0)
(-0.0237107 0.000594205 0)
(-0.0256301 0.000592633 0)
(-0.0275031 0.000583676 0)
(-0.029304 0.000566771 0)
(-0.0310066 0.000541417 0)
(-0.032584 0.000507198 0)
(-0.0340087 0.00046379 0)
(-0.0352539 0.000410988 0)
(-0.0362929 0.000348727 0)
(-0.0371004 0.000277113 0)
(-0.0376523 0.000196444 0)
(-0.0379269 0.00010725 0)
(-0.0379048 1.0315e-05 0)
(-0.0375703 -9.3294e-05 0)
(-0.0369113 -0.000202209 0)
(-0.0359204 -0.000314751 0)
(-0.0345954 -0.000428934 0)
(-0.03294 -0.000542483 0)
(-0.030964 -0.000652876 0)
(-0.0286841 -0.000757401 0)
(-0.0261238 -0.00085324 0)
(-0.0233137 -0.000937571 0)
(-0.020291 -0.00100769 0)
(-0.0170992 -0.00106114 0)
(-0.0137873 -0.00109586 0)
(-0.0104085 -0.00111031 0)
(-0.00701925 -0.0011036 0)
(-0.00367717 -0.00107555 0)
(-0.00043962 -0.0010268 0)
(0.00263835 -0.000958788 0)
(0.00550583 -0.000873701 0)
(0.00811786 -0.000774401 0)
(0.010437 -0.000664276 0)
(0.0124344 -0.000547063 0)
(0.0140911 -0.000426644 0)
(0.015398 -0.000306835 0)
(0.016356 -0.000191192 0)
(0.0169753 -8.28314e-05 0)
(0.0172748 1.56938e-05 0)
(0.0172804 0.00010248 0)
(0.0170239 0.000176301 0)
(0.0165408 0.000236594 0)
(0.015869 0.000283395 0)
(0.015047 0.000317262 0)
(0.0141125 0.000339158 0)
(0.0131009 0.000350353 0)
(0.0120448 0.000352299 0)
(0.0109726 0.000346548 0)
(0.00990869 0.000334642 0)
(0.00887285 0.000318076 0)
(0.00788073 0.0002982 0)
(0.00694362 0.000276244 0)
(0.00606938 0.000253222 0)
(0.00526221 0.000230036 0)
(0.00452404 0.000207338 0)
(0.00385377 0.000185747 0)
(0.00324949 0.000165589 0)
(0.00270652 0.000147286 0)
(0.00222107 0.000130824 0)
(0.00178654 0.000116458 0)
(0.00139963 0.000103639 0)
(0.00105385 9.23846e-05 0)
(0.000749734 8.11656e-05 0)
(0.000483998 6.97425e-05 0)
(0.000264931 5.50663e-05 0)
(9.5481e-05 3.75783e-05 0)
(-9.21684e-06 1.35801e-05 0)
(-4.52918e-05 -8.76682e-06 0)
(-2.25356e-05 -2.20776e-05 0)
(9.40409e-06 4.33799e-06 0)
(0.000153224 -0.000156699 0)
(0.000494695 -0.000322845 0)
(0.000995019 -0.000470772 0)
(0.00163819 -0.000568718 0)
(0.00235857 -0.000624438 0)
(0.00312102 -0.000634617 0)
(0.00386977 -0.00061015 0)
(0.00457555 -0.000556253 0)
(0.00520392 -0.000483885 0)
(0.00574112 -0.000400575 0)
(0.00617496 -0.000315308 0)
(0.00650754 -0.000234124 0)
(0.00674334 -0.000162346 0)
(0.00689464 -0.000102631 0)
(0.00697386 -5.62094e-05 0)
(0.00699539 -2.22314e-05 0)
(0.00697086 1.36394e-06 0)
(0.00690973 1.78528e-05 0)
(0.00681672 3.10191e-05 0)
(0.00669243 4.48961e-05 0)
(0.00653252 6.32303e-05 0)
(0.00632867 8.92527e-05 0)
(0.00606894 0.000125426 0)
(0.00573892 0.000173445 0)
(0.00532238 0.000234293 0)
(0.00480214 0.000308451 0)
(0.00416052 0.000396091 0)
(0.0033797 0.000497281 0)
(0.00244184 0.000612085 0)
(0.00132922 0.000740603 0)
(2.43398e-05 0.00088292 0)
(-0.00148986 0.00103901 0)
(-0.00322967 0.00120864 0)
(-0.00521016 0.00139122 0)
(-0.00744464 0.00158578 0)
(-0.00994398 0.00179087 0)
(-0.012716 0.00200454 0)
(-0.0157648 0.00222432 0)
(-0.01909 0.00244725 0)
(-0.0226865 0.00266989 0)
(-0.0265437 0.00288838 0)
(-0.0306453 0.0030985 0)
(-0.0349691 0.00329576 0)
(-0.039487 0.00347553 0)
(-0.044165 0.00363311 0)
(-0.048964 0.00376386 0)
(-0.0538396 0.00386331 0)
(-0.0587433 0.00392729 0)
(-0.063623 0.00395196 0)
(-0.0684239 0.00393395 0)
(-0.0730891 0.00387039 0)
(-0.0775609 0.00375899 0)
(-0.0817814 0.00359803 0)
(-0.0856934 0.00338644 0)
(-0.0892411 0.0031238 0)
(-0.0923713 0.0028104 0)
(-0.0950333 0.00244719 0)
(-0.0971804 0.00203591 0)
(-0.0987701 0.00157903 0)
(-0.0997647 0.00107987 0)
(-0.100132 0.000542593 0)
(-0.099846 -2.77237e-05 0)
(-0.0988873 -0.000625062 0)
(-0.0972437 -0.00124243 0)
(-0.094911 -0.00187184 0)
(-0.0918932 -0.00250437 0)
(-0.0882035 -0.00313018 0)
(-0.0838642 -0.00373863 0)
(-0.0789075 -0.00431846 0)
(-0.0733754 -0.00485801 0)
(-0.0673202 -0.00534548 0)
(-0.0608036 -0.00576934 0)
(-0.053897 -0.00611865 0)
(-0.0466805 -0.00638358 0)
(-0.0392417 -0.00655581 0)
(-0.0316747 -0.00662905 0)
(-0.0240781 -0.00659937 0)
(-0.0165533 -0.00646564 0)
(-0.00920211 -0.00622974 0)
(-0.00212418 -0.00589665 0)
(0.00458527 -0.00547447 0)
(0.0108382 -0.0049742 0)
(0.0165562 -0.00440934 0)
(0.0216727 -0.00379543 0)
(0.026135 -0.0031494 0)
(0.0299059 -0.00248879 0)
(0.0329641 -0.00183106 0)
(0.0353055 -0.0011928 0)
(0.0369422 -0.000589064 0)
(0.0379022 -3.27448e-05 0)
(0.0382276 0.000465826 0)
(0.0379729 0.000899184 0)
(0.0372022 0.00126282 0)
(0.0359867 0.00155515 0)
(0.034402 0.00177725 0)
(0.0325246 0.00193257 0)
(0.0304296 0.00202644 0)
(0.028188 0.00206563 0)
(0.0258649 0.0020578 0)
(0.0235178 0.00201109 0)
(0.0211957 0.00193355 0)
(0.0189387 0.00183299 0)
(0.0167782 0.0017165 0)
(0.0147366 0.0015905 0)
(0.0128295 0.00146034 0)
(0.0110645 0.00133075 0)
(0.00944495 0.00120513 0)
(0.0079675 0.00108651 0)
(0.00662823 0.00097613 0)
(0.00541741 0.000875214 0)
(0.00432984 0.000782053 0)
(0.0033549 0.000695655 0)
(0.00249372 0.000609985 0)
(0.001741 0.000522277 0)
(0.00111144 0.000421604 0)
(0.000607691 0.000308915 0)
(0.000255341 0.000174227 0)
(5.05459e-05 4.78669e-05 0)
(-8.93675e-06 -4.52384e-05 0)
(3.90432e-05 -0.000100595 0)
(0.000308787 -0.000494917 0)
(0.00086233 -0.000881106 0)
(0.00161766 -0.00121508 0)
(0.0025572 -0.0014433 0)
(0.0035907 -0.00157084 0)
(0.00467311 -0.00159397 0)
(0.00573012 -0.00153194 0)
(0.00672175 -0.00139917 0)
(0.0076014 -0.00121882 0)
(0.00834856 -0.00100995 0)
(0.0089454 -0.000792773 0)
(0.00939212 -0.000582475 0)
(0.00969262 -0.000391446 0)
(0.00986064 -0.000226666 0)
(0.0099105 -9.10901e-05 0)
(0.0098588 1.69428e-05 0)
(0.00971864 0.000102399 0)
(0.00949984 0.000173068 0)
(0.00920587 0.000238223 0)
(0.00883427 0.000307733 0)
(0.00837581 0.000390926 0)
(0.00781558 0.000495897 0)
(0.00713362 0.000628961 0)
(0.0063064 0.000794559 0)
(0.00530785 0.0009954 0)
(0.00411052 0.00123287 0)
(0.00268639 0.00150748 0)
(0.00100748 0.00181924 0)
(-0.000953737 0.00216794 0)
(-0.00322383 0.00255313 0)
(-0.00582798 0.00297402 0)
(-0.00878932 0.00342924 0)
(-0.0121281 0.00391659 0)
(-0.0158609 0.00443278 0)
(-0.0199993 0.00497328 0)
(-0.0245492 0.0055322 0)
(-0.0295095 0.00610233 0)
(-0.0348713 0.00667511 0)
(-0.0406172 0.00724082 0)
(-0.0467212 0.00778875 0)
(-0.0531478 0.00830745 0)
(-0.0598529 0.00878504 0)
(-0.0667837 0.0092095 0)
(-0.0738801 0.00956908 0)
(-0.0810754 0.0098526 0)
(-0.0882978 0.0100498 0)
(-0.0954718 0.0101515 0)
(-0.10252 0.0101502 0)
(-0.109364 0.0100396 0)
(-0.115926 0.0098153 0)
(-0.122131 0.00947455 0)
(-0.127908 0.00901625 0)
(-0.133189 0.00844092 0)
(-0.137911 0.00775064 0)
(-0.142016 0.00694895 0)
(-0.145455 0.00604074 0)
(-0.14818 0.00503222 0)
(-0.150155 0.00393084 0)
(-0.151346 0.0027453 0)
(-0.151728 0.00148554 0)
(-0.151282 0.000162761 0)
(-0.149995 -0.00121053 0)
(-0.147864 -0.00262045 0)
(-0.144889 -0.00405178 0)
(-0.141081 -0.00548785 0)
(-0.136456 -0.00691068 0)
(-0.131039 -0.00830098 0)
(-0.124865 -0.00963837 0)
(-0.117976 -0.0109016 0)
(-0.110421 -0.0120689 0)
(-0.102262 -0.0131185 0)
(-0.0935679 -0.0140291 0)
(-0.0844156 -0.0147803 0)
(-0.0748916 -0.015354 0)
(-0.0650898 -0.0157344 0)
(-0.0551107 -0.0159091 0)
(-0.0450605 -0.01587 0)
(-0.0350489 -0.0156137 0)
(-0.025188 -0.015142 0)
(-0.0155895 -0.0144625 0)
(-0.00636299 -0.0135884 0)
(0.00238703 -0.0125385 0)
(0.0105632 -0.0113365 0)
(0.0180777 -0.0100107 0)
(0.0248548 -0.00859287 0)
(0.0308326 -0.007117 0)
(0.0359647 -0.00561827 0)
(0.0402215 -0.00413164 0)
(0.0435914 -0.00269056 0)
(0.0460804 -0.00132574 0)
(0.0477126 -6.40543e-05 0)
(0.0485288 0.00107239 0)
(0.0485855 0.00206691 0)
(0.0479524 0.00290865 0)
(0.0467102 0.0035927 0)
(0.0449473 0.00411984 0)
(0.0427566 0.00449609 0)
(0.0402319 0.00473193 0)
(0.0374649 0.00484134 0)
(0.0345417 0.00484081 0)
(0.031541 0.00474817 0)
(0.0285313 0.00458176 0)
(0.0255711 0.0043593 0)
(0.0227065 0.00409756 0)
(0.019974 0.0038114 0)
(0.0173976 0.00351406 0)
(0.0149942 0.00321609 0)
(0.0127699 0.00292632 0)
(0.0107279 0.00264997 0)
(0.00886231 0.00239069 0)
(0.00717124 0.00214663 0)
(0.00564439 0.00191523 0)
(0.00428557 0.00168547 0)
(0.00308786 0.00144977 0)
(0.00207112 0.0011889 0)
(0.00123389 0.000902068 0)
(0.000613583 0.00057582 0)
(0.000197669 0.000259787 0)
(1.77777e-05 -3.16676e-06 0)
(6.50916e-05 -0.000279992 0)
(0.000448121 -0.000983926 0)
(0.00118522 -0.00163349 0)
(0.00214712 -0.0021745 0)
(0.00331362 -0.00254305 0)
(0.00457266 -0.00274178 0)
(0.00587475 -0.00276871 0)
(0.00713254 -0.00265155 0)
(0.00830092 -0.00241538 0)
(0.00932531 -0.0020967 0)
(0.0101816 -0.00172757 0)
(0.0108477 -0.0013407 0)
(0.0113221 -0.000961587 0)
(0.0116069 -0.000610514 0)
(0.0117149 -0.000299251 0)
(0.0116593 -3.25377e-05 0)
(0.0114555 0.00019245 0)
(0.0111143 0.000384307 0)
(0.0106424 0.000556365 0)
(0.0100389 0.000724587 0)
(0.00929548 0.000905934 0)
(0.00839608 0.0011165 0)
(0.0073178 0.00137027 0)
(0.00603193 0.00167817 0)
(0.00450574 0.00204792 0)
(0.00270376 0.0024842 0)
(0.00058937 0.00298926 0)
(-0.00187422 0.00356364 0)
(-0.00472286 0.00420667 0)
(-0.00799065 0.00491678 0)
(-0.0117089 0.0056915 0)
(-0.0159051 0.00652717 0)
(-0.0206018 0.00741856 0)
(-0.025815 0.00835842 0)
(-0.0315526 0.00933724 0)
(-0.0378136 0.010343 0)
(-0.0445862 0.0113613 0)
(-0.051847 0.0123753 0)
(-0.0595608 0.0133662 0)
(-0.0676802 0.0143139 0)
(-0.0761459 0.0151972 0)
(-0.0848882 0.0159947 0)
(-0.0938282 0.0166857 0)
(-0.10288 0.0172504 0)
(-0.111951 0.017671 0)
(-0.120949 0.0179323 0)
(-0.12978 0.0180216 0)
(-0.138351 0.0179297 0)
(-0.146573 0.0176503 0)
(-0.154364 0.0171804 0)
(-0.161647 0.0165201 0)
(-0.168354 0.0156721 0)
(-0.174422 0.0146414 0)
(-0.179799 0.0134354 0)
(-0.184437 0.0120631 0)
(-0.188298 0.0105349 0)
(-0.19135 0.0088626 0)
(-0.193567 0.00705909 0)
(-0.19493 0.00513824 0)
(-0.195425 0.00311495 0)
(-0.195041 0.00100517 0)
(-0.193775 -0.00117406 0)
(-0.191627 -0.00340442 0)
(-0.188602 -0.00566623 0)
(-0.184709 -0.00793833 0)
(-0.179964 -0.0101979 0)
(-0.174386 -0.0124207 0)
(-0.168001 -0.0145806 0)
(-0.160842 -0.0166502 0)
(-0.152947 -0.0186008 0)
(-0.144363 -0.0204028 0)
(-0.135144 -0.0220265 0)
(-0.125351 -0.0234424 0)
(-0.115056 -0.0246223 0)
(-0.104337 -0.02554 0)
(-0.0932808 -0.0261726 0)
(-0.0819822 -0.0265014 0)
(-0.0705419 -0.026513 0)
(-0.0590664 -0.0262002 0)
(-0.0476657 -0.0255629 0)
(-0.036452 -0.0246085 0)
(-0.0255373 -0.0233523 0)
(-0.0150311 -0.0218173 0)
(-0.00503857 -0.020034 0)
(0.00434219 -0.0180395 0)
(0.0130221 -0.0158763 0)
(0.0209229 -0.0135913 0)
(0.0279795 -0.0112339 0)
(0.0341405 -0.00885504 0)
(0.0393704 -0.00650473 0)
(0.0436498 -0.00423102 0)
(0.0469766 -0.00207821 0)
(0.0493658 -8.54636e-05 0)
(0.0508494 0.00171444 0)
(0.0514761 0.00329616 0)
(0.0513094 0.00464243 0)
(0.0504264 0.00574452 0)
(0.0489147 0.0066021 0)
(0.0468699 0.00722281 0)
(0.0443914 0.00762135 0)
(0.0415794 0.00781827 0)
(0.0385312 0.00783834 0)
(0.0353372 0.00770916 0)
(0.0320797 0.00745929 0)
(0.0288291 0.00711714 0)
(0.0256452 0.00670934 0)
(0.0225736 0.0062604 0)
(0.0196503 0.00579103 0)
(0.0168972 0.00531886 0)
(0.0143313 0.00485588 0)
(0.0119564 0.00441055 0)
(0.00977953 0.00398307 0)
(0.00779464 0.00357077 0)
(0.00601149 0.00315928 0)
(0.00442253 0.00273673 0)
(0.00305385 0.00227693 0)
(0.00189859 0.00177521 0)
(0.00100905 0.00121359 0)
(0.000366 0.000647285 0)
(4.91923e-05 0.000123691 0)
(8.15753e-05 -0.00052628 0)
(0.000550235 -0.00161848 0)
(0.0014338 -0.00257876 0)
(0.00255903 -0.00334986 0)
(0.00389939 -0.00386631 0)
(0.00532049 -0.00412988 0)
(0.00676859 -0.00414397 0)
(0.00814521 -0.00394595 0)
(0.00940262 -0.00357399 0)
(0.010481 -0.00307932 0)
(0.0113548 -0.0025088 0)
(0.0119998 -0.00190868 0)
(0.0124133 -0.00131569 0)
(0.0125957 -0.000758306 0)
(0.0125581 -0.000253103 0)
(0.0123108 0.000193881 0)
(0.0118656 0.000587443 0)
(0.0112284 0.000940949 0)
(0.0103998 0.00127457 0)
(0.00937169 0.00161231 0)
(0.00812755 0.0019795 0)
(0.00664217 0.00240003 0)
(0.0048833 0.00289447 0)
(0.0028128 0.00347878 0)
(0.000388867 0.00416393 0)
(-0.0024323 0.00495624 0)
(-0.00569459 0.00585812 0)
(-0.00944056 0.00686898 0)
(-0.0137098 0.00798585 0)
(-0.0185375 0.00920365 0)
(-0.0239529 0.010515 0)
(-0.0299773 0.01191 0)
(-0.0366223 0.0133753 0)
(-0.0438882 0.0148941 0)
(-0.0517617 0.0164456 0)
(-0.0602155 0.0180054 0)
(-0.0692069 0.0195457 0)
(-0.0786781 0.0210359 0)
(-0.0885571 0.0224439 0)
(-0.0987589 0.0237368 0)
(-0.109188 0.0248826 0)
(-0.119742 0.0258511 0)
(-0.130314 0.026615 0)
(-0.140795 0.0271514 0)
(-0.151079 0.0274417 0)
(-0.161066 0.0274727 0)
(-0.170661 0.0272363 0)
(-0.179779 0.0267294 0)
(-0.188346 0.0259534 0)
(-0.196296 0.0249141 0)
(-0.203574 0.0236201 0)
(-0.210135 0.0220831 0)
(-0.215942 0.0203167 0)
(-0.220965 0.0183361 0)
(-0.22518 0.0161573 0)
(-0.228572 0.0137974 0)
(-0.231126 0.0112737 0)
(-0.232834 0.00860389 0)
(-0.233689 0.00580635 0)
(-0.233688 0.00289979 0)
(-0.232829 -9.62908e-05 0)
(-0.231113 -0.00316145 0)
(-0.228542 -0.006274 0)
(-0.225121 -0.00941076 0)
(-0.220856 -0.0125468 0)
(-0.215758 -0.015655 0)
(-0.209839 -0.0187064 0)
(-0.203118 -0.0216696 0)
(-0.195617 -0.024511 0)
(-0.187364 -0.0271952 0)
(-0.178395 -0.0296854 0)
(-0.168751 -0.0319435 0)
(-0.158483 -0.0339316 0)
(-0.147651 -0.0356128 0)
(-0.136324 -0.036952 0)
(-0.124578 -0.0379178 0)
(-0.112501 -0.0384836 0)
(-0.100188 -0.0386291 0)
(-0.0877414 -0.0383415 0)
(-0.0752685 -0.0376169 0)
(-0.0628815 -0.0364608 0)
(-0.0506943 -0.0348891 0)
(-0.0388201 -0.0329274 0)
(-0.0273691 -0.0306112 0)
(-0.0164466 -0.0279849 0)
(-0.00614999 -0.0251004 0)
(0.00343237 -0.0220157 0)
(0.0122232 -0.018793 0)
(0.0201575 -0.015497 0)
(0.0271834 -0.0121929 0)
(0.0332632 -0.00894438 0)
(0.0383738 -0.00581219 0)
(0.0425073 -0.00285217 0)
(0.0456715 -0.000113782 0)
(0.0478897 0.00236127 0)
(0.0492012 0.00454032 0)
(0.0496606 0.00640071 0)
(0.0493366 0.0079304 0)
(0.0483103 0.00912817 0)
(0.046673 0.0100032 0)
(0.0445225 0.0105742 0)
(0.0419605 0.010868 0)
(0.0390873 0.0109174 0)
(0.0360001 0.0107595 0)
(0.0327874 0.0104334 0)
(0.0295295 0.00997772 0)
(0.0262929 0.00942961 0)
(0.0231345 0.00882212 0)
(0.0200951 0.00818419 0)
(0.0172091 0.00753748 0)
(0.0144944 0.00689786 0)
(0.0119711 0.00627033 0)
(0.00964099 0.00565403 0)
(0.00752321 0.00503354 0)
(0.00561204 0.00439315 0)
(0.00394256 0.00370111 0)
(0.00250503 0.00294582 0)
(0.00137044 0.00210306 0)
(0.0005171 0.00122001 0)
(7.58061e-05 0.000336578 0)
(9.41233e-05 -0.000813599 0)
(0.000630405 -0.00235109 0)
(0.00162845 -0.00365106 0)
(0.00287777 -0.0046581 0)
(0.00434274 -0.00531285 0)
(0.00586783 -0.00562067 0)
(0.00739454 -0.00559469 0)
(0.00881493 -0.00528423 0)
(0.0100801 -0.0047427 0)
(0.0111272 -0.00403702 0)
(0.0119312 -0.00322948 0)
(0.0124668 -0.00237974 0)
(0.0127314 -0.00153531 0)
(0.0127236 -0.000731984 0)
(0.012452 9.97964e-06 0)
(0.0119228 0.000684544 0)
(0.0111417 0.00129983 0)
(0.0101075 0.00187527 0)
(0.008812 0.00243905 0)
(0.00723697 0.00302412 0)
(0.00535554 0.00366468 0)
(0.00313184 0.00439254 0)
(0.000523445 0.00523455 0)
(-0.00251699 0.00621093 0)
(-0.006039 0.00733478 0)
(-0.0100922 0.00861254 0)
(-0.014724 0.0100448 0)
(-0.0199774 0.0116275 0)
(-0.0258891 0.0133523 0)
(-0.032487 0.0152068 0)
(-0.039788 0.0171742 0)
(-0.0477958 0.0192332 0)
(-0.0564985 0.021357 0)
(-0.0658669 0.0235136 0)
(-0.0758537 0.025666 0)
(-0.0863937 0.0277728 0)
(-0.0974039 0.02979 0)
(-0.108787 0.0316722 0)
(-0.120433 0.0333744 0)
(-0.132224 0.0348544 0)
(-0.14404 0.0360742 0)
(-0.155759 0.0370014 0)
(-0.167266 0.0376108 0)
(-0.178454 0.0378845 0)
(-0.189225 0.0378119 0)
(-0.199494 0.0373898 0)
(-0.209191 0.0366213 0)
(-0.218256 0.035515 0)
(-0.226642 0.0340839 0)
(-0.234312 0.0323441 0)
(-0.241239 0.0303143 0)
(-0.247404 0.0280142 0)
(-0.252792 0.0254645 0)
(-0.257395 0.022686 0)
(-0.261206 0.0196992 0)
(-0.264222 0.0165243 0)
(-0.266439 0.0131812 0)
(-0.267857 0.00968934 0)
(-0.268472 0.00606812 0)
(-0.268284 0.00233715 0)
(-0.26729 -0.00148337 0)
(-0.265489 -0.00537229 0)
(-0.262878 -0.00930703 0)
(-0.259455 -0.0132631 0)
(-0.255221 -0.0172139 0)
(-0.250175 -0.0211301 0)
(-0.244323 -0.0249794 0)
(-0.237669 -0.0287266 0)
(-0.230225 -0.0323333 0)
(-0.222005 -0.0357583 0)
(-0.213034 -0.0389578 0)
(-0.203338 -0.0418862 0)
(-0.192957 -0.044497 0)
(-0.181937 -0.0467438 0)
(-0.170334 -0.0485821 0)
(-0.158218 -0.0499707 0)
(-0.145666 -0.0508732 0)
(-0.132767 -0.0512606 0)
(-0.119618 -0.0511125 0)
(-0.106328 -0.0504188 0)
(-0.0930088 -0.049181 0)
(-0.0797772 -0.0474131 0)
(-0.0667522 -0.0451416 0)
(-0.0540508 -0.0424052 0)
(-0.0417861 -0.0392539 0)
(-0.0300645 -0.0357476 0)
(-0.0189833 -0.0319539 0)
(-0.00862885 -0.0279461 0)
(0.00092409 -0.0238008 0)
(0.00961363 -0.0195961 0)
(0.0173908 -0.0154089 0)
(0.0242197 -0.0113137 0)
(0.0300775 -0.00738026 0)
(0.0349546 -0.00367252 0)
(0.0388545 -0.000246989 0)
(0.0417948 0.00284862 0)
(0.043807 0.0055767 0)
(0.0449369 0.00791092 0)
(0.0452442 0.00983705 0)
(0.0448019 0.0113534 0)
(0.0436937 0.0124706 0)
(0.0420128 0.0132109 0)
(0.039857 0.0136063 0)
(0.0373268 0.0136968 0)
(0.0345196 0.0135279 0)
(0.0315288 0.0131474 0)
(0.0284371 0.0126035 0)
(0.0253198 0.0119414 0)
(0.0222359 0.0112022 0)
(0.0192388 0.0104189 0)
(0.0163622 0.00961701 0)
(0.013642 0.00880893 0)
(0.0110912 0.00799802 0)
(0.00874088 0.00717055 0)
(0.00659038 0.00630825 0)
(0.00468612 0.00537522 0)
(0.00301874 0.00435005 0)
(0.00167904 0.00319915 0)
(0.000646555 0.00194891 0)
(9.83851e-05 0.000620746 0)
(0.000102743 -0.00113868 0)
(0.000689827 -0.00317171 0)
(0.0017741 -0.00483693 0)
(0.00311275 -0.00608396 0)
(0.00465919 -0.00686397 0)
(0.00623761 -0.00719016 0)
(0.00778378 -0.00708983 0)
(0.00918121 -0.00662747 0)
(0.0103806 -0.00587459 0)
(0.0113176 -0.00491538 0)
(0.011969 -0.0038285 0)
(0.0123099 -0.00268689 0)
(0.0123383 -0.00154815 0)
(0.0120513 -0.000454018 0)
(0.0114543 0.000573204 0)
(0.0105479 0.00152938 0)
(0.00933042 0.0024278 0)
(0.00779078 0.00329569 0)
(0.00590984 0.00417051 0)
(0.00365746 0.00509498 0)
(0.000994772 0.00611229 0)
(-0.00212535 0.00726163 0)
(-0.00575498 0.00857494 0)
(-0.00994888 0.0100749 0)
(-0.0147611 0.0117744 0)
(-0.0202423 0.013677 0)
(-0.0264371 0.0157784 0)
(-0.0333808 0.0180667 0)
(-0.0410974 0.0205235 0)
(-0.049596 0.0231236 0)
(-0.0588688 0.0258352 0)
(-0.0688884 0.0286194 0)
(-0.0796063 0.0314302 0)
(-0.0909531 0.0342158 0)
(-0.102839 0.0369199 0)
(-0.115156 0.0394833 0)
(-0.127783 0.0418472 0)
(-0.140589 0.0439554 0)
(-0.153441 0.0457568 0)
(-0.166206 0.0472081 0)
(-0.17876 0.048275 0)
(-0.190988 0.0489332 0)
(-0.202791 0.0491684 0)
(-0.214084 0.0489761 0)
(-0.224798 0.04836 0)
(-0.23488 0.0473313 0)
(-0.244289 0.0459064 0)
(-0.252997 0.0441059 0)
(-0.260984 0.0419532 0)
(-0.268241 0.0394727 0)
(-0.27476 0.0366897 0)
(-0.28054 0.0336286 0)
(-0.285581 0.0303136 0)
(-0.289883 0.0267673 0)
(-0.293449 0.0230113 0)
(-0.296278 0.0190662 0)
(-0.298372 0.0149512 0)
(-0.299727 0.0106854 0)
(-0.300343 0.00628728 0)
(-0.300215 0.00177553 0)
(-0.299336 -0.00283041 0)
(-0.297701 -0.00750993 0)
(-0.295303 -0.0122406 0)
(-0.292132 -0.0169979 0)
(-0.288181 -0.0217541 0)
(-0.283442 -0.0264785 0)
(-0.277909 -0.0311365 0)
(-0.271577 -0.0356897 0)
(-0.264445 -0.0400953 0)
(-0.256515 -0.0443067 0)
(-0.247796 -0.0482736 0)
(-0.238302 -0.0519424 0)
(-0.228056 -0.0552576 0)
(-0.21709 -0.0581628 0)
(-0.205448 -0.0606024 0)
(-0.193184 -0.0625236 0)
(-0.180366 -0.0638784 0)
(-0.167074 -0.0646265 0)
(-0.153401 -0.0647368 0)
(-0.139452 -0.0641904 0)
(-0.12534 -0.062982 0)
(-0.111189 -0.0611214 0)
(-0.0971242 -0.0586339 0)
(-0.0832739 -0.0555603 0)
(-0.0697635 -0.0519557 0)
(-0.0567126 -0.047888 0)
(-0.0442314 -0.043435 0)
(-0.0324189 -0.0386822 0)
(-0.0213605 -0.0337194 0)
(-0.0111272 -0.0286378 0)
(-0.00177613 -0.0235279 0)
(0.00664963 -0.0184768 0)
(0.0141197 -0.0135671 0)
(0.0206159 -0.00887487 0)
(0.0261312 -0.00446884 0)
(0.0306699 -0.000409316 0)
(0.0342474 0.00325312 0)
(0.0368911 0.00647871 0)
(0.0386409 0.00923984 0)
(0.0395494 0.0115219 0)
(0.0396816 0.0133242 0)
(0.0391144 0.0146595 0)
(0.037934 0.0155539 0)
(0.0362339 0.0160445 0)
(0.0341103 0.0161779 0)
(0.0316606 0.0160068 0)
(0.028976 0.015587 0)
(0.0261442 0.0149737 0)
(0.0232391 0.0142194 0)
(0.0203301 0.0133686 0)
(0.0174669 0.0124573 0)
(0.0147014 0.0115074 0)
(0.0120596 0.0105281 0)
(0.00958635 0.00950992 0)
(0.0072892 0.00843291 0)
(0.00522769 0.00725829 0)
(0.00339678 0.00595267 0)
(0.00190656 0.00447087 0)
(0.000740839 0.00280983 0)
(0.000114122 0.000964578 0)
(0.000110398 -0.00148764 0)
(0.000738127 -0.00405004 0)
(0.00188592 -0.00609252 0)
(0.00328225 -0.00757122 0)
(0.0048682 -0.00845164 0)
(0.00644943 -0.00875974 0)
(0.00795571 -0.00854185 0)
(0.00926367 -0.00788148 0)
(0.0103245 -0.00687119 0)
(0.011074 -0.00561389 0)
(0.0114919 -0.00420502 0)
(0.0115546 -0.00273004 0)
(0.011261 -0.00125506 0)
(0.0106062 0.000174436 0)
(0.00959168 0.00153657 0)
(0.00821067 0.00283161 0)
(0.00645213 0.00408027 0)
(0.00429323 0.0053193 0)
(0.001702 0.00659644 0)
(-0.00136486 0.00796423 0)
(-0.00495842 0.00947398 0)
(-0.00913606 0.0111704 0)
(-0.013957 0.0130878 0)
(-0.0194794 0.0152478 0)
(-0.025756 0.0176592 0)
(-0.0328311 0.0203183 0)
(-0.0407371 0.0232102 0)
(-0.0494911 0.0263097 0)
(-0.059092 0.029582 0)
(-0.0695176 0.0329829 0)
(-0.0807223 0.0364591 0)
(-0.0926365 0.039949 0)
(-0.105167 0.0433843 0)
(-0.118201 0.0466923 0)
(-0.131606 0.0497991 0)
(-0.145241 0.052633 0)
(-0.158961 0.0551282 0)
(-0.172621 0.0572275 0)
(-0.186086 0.0588854 0)
(-0.199233 0.0600686 0)
(-0.211959 0.060757 0)
(-0.224174 0.0609428 0)
(-0.235812 0.060629 0)
(-0.24682 0.0598279 0)
(-0.257164 0.058559 0)
(-0.26682 0.0568465 0)
(-0.275774 0.0547183 0)
(-0.284023 0.0522036 0)
(-0.291566 0.0493319 0)
(-0.298407 0.0461323 0)
(-0.304551 0.0426325 0)
(-0.310004 0.0388586 0)
(-0.314772 0.0348346 0)
(-0.31886 0.0305829 0)
(-0.322272 0.0261242 0)
(-0.325009 0.0214773 0)
(-0.327072 0.0166603 0)
(-0.32846 0.0116903 0)
(-0.32917 0.00658411 0)
(-0.329196 0.00135874 0)
(-0.328531 -0.00396799 0)
(-0.327167 -0.0093769 0)
(-0.325092 -0.0148468 0)
(-0.322295 -0.020354 0)
(-0.318762 -0.0258713 0)
(-0.314479 -0.0313679 0)
(-0.309431 -0.0368084 0)
(-0.303604 -0.0421528 0)
(-0.296985 -0.0473556 0)
(-0.289563 -0.0523664 0)
(-0.28133 -0.0571295 0)
(-0.272286 -0.0615848 0)
(-0.262435 -0.0656682 0)
(-0.25179 -0.0693134 0)
(-0.240377 -0.0724534 0)
(-0.228233 -0.0750224 0)
(-0.215407 -0.0769588 0)
(-0.201967 -0.0782079 0)
(-0.187994 -0.0787249 0)
(-0.173586 -0.0784776 0)
(-0.158856 -0.0774496 0)
(-0.143928 -0.0756422 0)
(-0.128937 -0.0730753 0)
(-0.114024 -0.0697885 0)
(-0.0993309 -0.0658398 0)
(-0.0849968 -0.0613037 0)
(-0.0711522 -0.0562686 0)
(-0.0579158 -0.0508331 0)
(-0.0453911 -0.0451018 0)
(-0.0336642 -0.0391819 0)
(-0.0228038 -0.0331791 0)
(-0.0128611 -0.0271952 0)
(-0.00387185 -0.0213256 0)
(0.0041419 -0.0156582 0)
(0.0111698 -0.0102723 0)
(0.0172116 -0.00523835 0)
(0.0222759 -0.000616994 0)
(0.0263805 0.00354136 0)
(0.0295523 0.00719766 0)
(0.0318285 0.0103253 0)
(0.0332571 0.0129115 0)
(0.0338979 0.0149575 0)
(0.0338212 0.0164795 0)
(0.0331078 0.0175074 0)
(0.0318449 0.0180837 0)
(0.0301259 0.0182603 0)
(0.0280427 0.0180961 0)
(0.0256885 0.0176528 0)
(0.0231459 0.0169909 0)
(0.0204967 0.0161655 0)
(0.0178034 0.0152224 0)
(0.015133 0.0141934 0)
(0.0125242 0.013095 0)
(0.0100365 0.0119231 0)
(0.00768775 0.0106575 0)
(0.00555112 0.00925718 0)
(0.0036291 0.00767576 0)
(0.00204867 0.00585479 0)
(0.000800142 0.0037567 0)
(0.000123943 0.00134613 0)
(0.000116869 -0.00186095 0)
(0.000775923 -0.00497882 0)
(0.00196664 -0.00740251 0)
(0.00339027 -0.00909692 0)
(0.00497472 -0.0100455 0)
(0.00650885 -0.0102916 0)
(0.00791677 -0.00990575 0)
(0.00907004 -0.00899448 0)
(0.00992145 -0.00767453 0)
(0.0104083 -0.00606908 0)
(0.0105143 -0.00429062 0)
(0.0102176 -0.00243598 0)
(0.00951782 -0.000577788 0)
(0.00840726 0.00123741 0)
(0.00688201 0.00299108 0)
(0.00492647 0.00469076 0)
(0.00251832 0.0063669 0)
(-0.000378477 0.00806731 0)
(-0.00380961 0.00985045 0)
(-0.00783132 0.0117778 0)
(-0.0125053 0.0139067 0)
(-0.0178959 0.0162841 0)
(-0.0240646 0.0189422 0)
(-0.0310658 0.0218968 0)
(-0.0389427 0.0251465 0)
(-0.047723 0.0286743 0)
(-0.0574153 0.032448 0)
(-0.068006 0.0364223 0)
(-0.0794567 0.0405394 0)
(-0.0917022 0.0447301 0)
(-0.104651 0.0489156 0)
(-0.118187 0.0530103 0)
(-0.132174 0.0569249 0)
(-0.14646 0.060571 0)
(-0.16089 0.0638657 0)
(-0.175306 0.0667356 0)
(-0.18956 0.0691201 0)
(-0.203521 0.0709738 0)
(-0.217073 0.0722674 0)
(-0.230124 0.0729868 0)
(-0.242601 0.0731318 0)
(-0.254452 0.0727141 0)
(-0.265643 0.0717541 0)
(-0.276151 0.0702792 0)
(-0.285968 0.0683206 0)
(-0.295092 0.065912 0)
(-0.303528 0.0630876 0)
(-0.311282 0.0598808 0)
(-0.318365 0.0563239 0)
(-0.324786 0.0524468 0)
(-0.330557 0.0482776 0)
(-0.335687 0.0438416 0)
(-0.340185 0.0391621 0)
(-0.344058 0.0342599 0)
(-0.347313 0.0291542 0)
(-0.349953 0.0238622 0)
(-0.351983 0.0184001 0)
(-0.353403 0.0127831 0)
(-0.354211 0.00702602 0)
(-0.354405 0.00114374 0)
(-0.353978 -0.00484803 0)
(-0.352921 -0.0109323 0)
(-0.351224 -0.01709 0)
(-0.348873 -0.0232993 0)
(-0.345851 -0.0295351 0)
(-0.342138 -0.0357677 0)
(-0.337715 -0.0419629 0)
(-0.332557 -0.0480807 0)
(-0.32664 -0.054075 0)
(-0.319941 -0.0598933 0)
(-0.312436 -0.0654768 0)
(-0.304106 -0.07076 0)
(-0.294936 -0.0756721 0)
(-0.284916 -0.0801375 0)
(-0.274048 -0.0840779 0)
(-0.262346 -0.0874141 0)
(-0.249835 -0.0900692 0)
(-0.236562 -0.0919715 0)
(-0.222587 -0.0930585 0)
(-0.207995 -0.0932804 0)
(-0.192888 -0.0926041 0)
(-0.177388 -0.0910164 0)
(-0.161633 -0.0885261 0)
(-0.145776 -0.085166 0)
(-0.129976 -0.0809924 0)
(-0.114397 -0.0760838 0)
(-0.0991947 -0.0705378 0)
(-0.0845187 -0.0644668 0)
(-0.0705007 -0.057993 0)
(-0.0572533 -0.051243 0)
(-0.0448665 -0.0443428 0)
(-0.0334079 -0.0374132 0)
(-0.0229234 -0.0305668 0)
(-0.01344 -0.0239059 0)
(-0.00496947 -0.0175216 0)
(0.00248899 -0.0114939 0)
(0.00894514 -0.00589155 0)
(0.0144162 -0.000772672 0)
(0.0189259 0.00381569 0)
(0.0225047 0.00783806 0)
(0.0251906 0.0112716 0)
(0.0270307 0.0141072 0)
(0.0280811 0.0163504 0)
(0.028409 0.0180216 0)
(0.0280891 0.0191557 0)
(0.0272059 0.0197999 0)
(0.0258456 0.0200117 0)
(0.0241005 0.0198544 0)
(0.022056 0.0193936 0)
(0.0198006 0.0186915 0)
(0.0174062 0.0178022 0)
(0.0149513 0.0167668 0)
(0.0124867 0.0156085 0)
(0.0100853 0.0143295 0)
(0.00777614 0.0129096 0)
(0.00564582 0.0113067 0)
(0.00370662 0.00946096 0)
(0.00209894 0.00730058 0)
(0.00082092 0.00475227 0)
(0.000126928 0.00174923 0)
(0.000123076 -0.00225127 0)
(0.000805788 -0.00593786 0)
(0.00201936 -0.00873391 0)
(0.00343903 -0.0106153 0)
(0.00497882 -0.0115881 0)
(0.00641324 -0.0117185 0)
(0.00766176 -0.0111064 0)
(0.00859342 -0.00988568 0)
(0.00916391 -0.00820019 0)
(0.00931384 -0.00619442 0)
(0.00903107 -0.00399742 0)
(0.00829586 -0.00171551 0)
(0.0071075 0.000574902 0)
(0.00545445 0.00282959 0)
(0.00332553 0.00503671 0)
(0.000694596 0.007214 0)
(-0.00247348 0.00940374 0)
(-0.00622861 0.0116656 0)
(-0.0106297 0.0140679 0)
(-0.0157439 0.0166789 0)
(-0.0216394 0.0195578 0)
(-0.0283818 0.0227485 0)
(-0.0360269 0.0262753 0)
(-0.0446163 0.0301407 0)
(-0.0541723 0.0343265 0)
(-0.0646942 0.0387942 0)
(-0.0761549 0.0434878 0)
(-0.0884987 0.0483349 0)
(-0.101641 0.0532497 0)
(-0.115467 0.0581355 0)
(-0.12984 0.0628888 0)
(-0.144604 0.0674044 0)
(-0.159591 0.0715804 0)
(-0.174633 0.0753242 0)
(-0.189567 0.0785569 0)
(-0.204246 0.0812166 0)
(-0.218544 0.0832605 0)
(-0.232357 0.0846645 0)
(-0.245603 0.0854216 0)
(-0.258225 0.0855398 0)
(-0.270184 0.0850388 0)
(-0.281457 0.0839469 0)
(-0.292036 0.0822983 0)
(-0.301918 0.0801302 0)
(-0.311111 0.0774813 0)
(-0.319623 0.0743899 0)
(-0.327468 0.0708931 0)
(-0.33466 0.0670259 0)
(-0.341213 0.0628212 0)
(-0.347142 0.0583089 0)
(-0.352462 0.0535164 0)
(-0.357185 0.0484686 0)
(-0.361326 0.0431874 0)
(-0.364897 0.0376928 0)
(-0.367908 0.0320022 0)
(-0.370369 0.0261315 0)
(-0.372287 0.0200949 0)
(-0.373669 0.0139055 0)
(-0.374517 0.00757571 0)