/*--------------------------------*- C++ -*----------------------------------*\
| =========                 |                                                 |
| \\      /  F ield         | OpenFOAM: The Open Source CFD Toolbox           |
|  \\    /   O peration     | Version:  2406                                  |
|   \\  /    A nd           | Website:  www.openfoam.com                      |
|    \\/     M anipulation  |                                                 |
\*---------------------------------------------------------------------------*/
FoamFile
{
    version     2.0;
    format      ascii;
    arch        "LSB;label=32;scalar=64";
    class       volVectorField;
    location    "45.1";
    object      U;
}
// * * * * * * * * * * * * * * * * * * * * * * * * * * * * * * * * * * * * * //

dimensions      [0 1 -1 0 0 0 0];

internalField   nonuniform List<vector> 
3600
(
(-1.33571e-05 -1.37756e-06 0)
(0.000501846 -0.0002438 0)
(0.00151349 -0.000372302 0)
(0.00265365 -0.000392055 0)
(0.00373171 -0.000318001 0)
(0.0045069 -0.000217183 0)
(0.00502098 -0.00012432 0)
(0.00525435 -6.69698e-05 0)
(0.00535158 -4.51349e-05 0)
(0.00533434 -4.78056e-05 0)
(0.00527583 -5.61188e-05 0)
(0.00512236 -5.30622e-05 0)
(0.00484375 -2.82669e-05 0)
(0.00433551 2.31003e-05 0)
(0.0035257 0.000101406 0)
(0.00230675 0.000208237 0)
(0.000598356 0.000345537 0)
(-0.00169689 0.000513419 0)
(-0.00465131 0.000702066 0)
(-0.00833607 0.000897466 0)
(-0.0127862 0.00109314 0)
(-0.0179997 0.00129864 0)
(-0.0239034 0.00152691 0)
(-0.0303505 0.00177478 0)
(-0.0371067 0.00200958 0)
(-0.0438608 0.00217698 0)
(-0.0502395 0.00221821 0)
(-0.0558392 0.00208861 0)
(-0.0602587 0.00176558 0)
(-0.0631315 0.00125098 0)
(-0.0641535 0.000567171 0)
(-0.0631031 -0.000245781 0)
(-0.0598627 -0.0011346 0)
(-0.054429 -0.00203465 0)
(-0.0469333 -0.00287414 0)
(-0.0376415 -0.00357722 0)
(-0.0269665 -0.00407116 0)
(-0.0154446 -0.00429359 0)
(-0.00372619 -0.00420354 0)
(0.00749007 -0.00379125 0)
(0.0174968 -0.00308696 0)
(0.0256851 -0.00216391 0)
(0.03159 -0.00113211 0)
(0.0349974 -0.000123437 0)
(0.0359338 0.000735608 0)
(0.0347096 0.00135031 0)
(0.0318032 0.00168401 0)
(0.0278316 0.00175977 0)
(0.0233655 0.00164824 0)
(0.0189223 0.00143135 0)
(0.0148157 0.00118031 0)
(0.0112644 0.000936777 0)
(0.00829026 0.000725224 0)
(0.00591048 0.00054973 0)
(0.00400594 0.000416504 0)
(0.00254023 0.00031184 0)
(0.00138566 0.000233173 0)
(0.000556929 0.000136584 0)
(4.61798e-05 2.80824e-05 0)
(-9.29489e-05 -0.000100178 0)
(0.000198431 -0.000477984 0)
(0.00151213 -0.00155835 0)
(0.00364279 -0.00208828 0)
(0.0058986 -0.00211647 0)
(0.00797222 -0.00173198 0)
(0.00944056 -0.00118034 0)
(0.0103235 -0.000629592 0)
(0.0105577 -0.00019301 0)
(0.0103227 0.000112379 0)
(0.00962168 0.000340454 0)
(0.00850985 0.000574077 0)
(0.00684659 0.00090174 0)
(0.00449915 0.00137741 0)
(0.00122127 0.00203374 0)
(-0.0031944 0.00287405 0)
(-0.00898984 0.00389569 0)
(-0.0163435 0.0050773 0)
(-0.0254079 0.00639235 0)
(-0.0362187 0.00780037 0)
(-0.0486763 0.00924836 0)
(-0.0624785 0.0106416 0)
(-0.0771488 0.011844 0)
(-0.0920656 0.0126932 0)
(-0.106547 0.013044 0)
(-0.11992 0.0127886 0)
(-0.131582 0.0118736 0)
(-0.141038 0.0102949 0)
(-0.147905 0.00809459 0)
(-0.151911 0.0053484 0)
(-0.152876 0.00216081 0)
(-0.150706 -0.00134468 0)
(-0.145388 -0.00502448 0)
(-0.136985 -0.00871988 0)
(-0.125646 -0.0122531 0)
(-0.111616 -0.0154336 0)
(-0.0952438 -0.0180592 0)
(-0.0769999 -0.0199323 0)
(-0.0574667 -0.0208737 0)
(-0.0373509 -0.0207522 0)
(-0.017433 -0.0195081 0)
(0.00144205 -0.0171836 0)
(0.0184651 -0.0139345 0)
(0.0328846 -0.0100314 0)
(0.0441374 -0.00583335 0)
(0.051843 -0.00174008 0)
(0.0559257 0.00186658 0)
(0.0565431 0.00469202 0)
(0.0541759 0.0065719 0)
(0.0494633 0.00750296 0)
(0.0432426 0.00761655 0)
(0.0362802 0.00713885 0)
(0.029322 0.00630917 0)
(0.022817 0.00534377 0)
(0.0171198 0.00438296 0)
(0.0122644 0.00352778 0)
(0.00831393 0.00278524 0)
(0.00510761 0.00215988 0)
(0.00268469 0.00151616 0)
(0.00095833 0.000850272 0)
(8.07021e-05 7.52405e-05 0)
(0.000333716 -0.00145136 0)
(0.00213619 -0.00372637 0)
(0.00490619 -0.00476776 0)
(0.00765305 -0.00468726 0)
(0.0100184 -0.0037575 0)
(0.0114852 -0.00243291 0)
(0.0120722 -0.00107698 0)
(0.0116763 0.00010437 0)
(0.0104424 0.00107439 0)
(0.00829488 0.0019639 0)
(0.00518564 0.00295284 0)
(0.000845447 0.00423806 0)
(-0.00498993 0.00593479 0)
(-0.0126824 0.00810723 0)
(-0.0225205 0.010741 0)
(-0.0347608 0.0137893 0)
(-0.0494762 0.0171439 0)
(-0.0665224 0.0206406 0)
(-0.0854381 0.0240112 0)
(-0.105513 0.0269224 0)
(-0.125873 0.029034 0)
(-0.145644 0.0300927 0)
(-0.164047 0.0299557 0)
(-0.180476 0.0285971 0)
(-0.194494 0.026068 0)
(-0.205814 0.0224752 0)
(-0.214263 0.0179486 0)
(-0.219747 0.0126354 0)
(-0.222217 0.00668649 0)
(-0.221653 0.000263478 0)
(-0.218057 -0.00646528 0)
(-0.211439 -0.0133111 0)
(-0.20184 -0.0200653 0)
(-0.189332 -0.0264853 0)
(-0.174049 -0.0323006 0)
(-0.156196 -0.0372082 0)
(-0.136093 -0.0408966 0)
(-0.11417 -0.0430625 0)
(-0.0910051 -0.0434592 0)
(-0.0672866 -0.0419328 0)
(-0.0438226 -0.0384785 0)
(-0.0214492 -0.0332626 0)
(-0.00101026 -0.0266403 0)
(0.0167738 -0.019119 0)
(0.031301 -0.0113053 0)
(0.0422125 -0.00382378 0)
(0.0493186 0.00276436 0)
(0.0527201 0.00802391 0)
(0.0526884 0.0117028 0)
(0.0498046 0.0137517 0)
(0.0447489 0.0143319 0)
(0.0383994 0.0137581 0)
(0.0314816 0.0124337 0)
(0.0247141 0.0107336 0)
(0.0184428 0.00897218 0)
(0.0130028 0.0072994 0)
(0.00835742 0.00578262 0)
(0.00468074 0.00425352 0)
(0.00186354 0.00264031 0)
(0.000271092 0.000745649 0)
(0.000424121 -0.00265139 0)
(0.00251249 -0.00622221 0)
(0.00553272 -0.00765581 0)
(0.00824434 -0.00721124 0)
(0.0102748 -0.00546582 0)
(0.0110803 -0.00309111 0)
(0.0107012 -0.000646658 0)
(0.00899157 0.00161752 0)
(0.00600875 0.00368379 0)
(0.00153397 0.00580014 0)
(-0.00464998 0.00825617 0)
(-0.0129655 0.0113463 0)
(-0.0237812 0.0152063 0)
(-0.0374651 0.0198684 0)
(-0.0541672 0.0252068 0)
(-0.0737852 0.0309809 0)
(-0.0958099 0.0367664 0)
(-0.119402 0.0420311 0)
(-0.143514 0.0462246 0)
(-0.16713 0.0489425 0)
(-0.189403 0.0499629 0)
(-0.209739 0.0492522 0)
(-0.227759 0.0468917 0)
(-0.243257 0.0430394 0)
(-0.256139 0.0378727 0)
(-0.266372 0.0315779 0)
(-0.273955 0.0243248 0)
(-0.27889 0.0162772 0)
(-0.281178 0.00758452 0)
(-0.280799 -0.00159834 0)
(-0.277722 -0.0111118 0)
(-0.271896 -0.020767 0)
(-0.263272 -0.0303442 0)
(-0.251803 -0.0395687 0)
(-0.237478 -0.0481152 0)
(-0.220332 -0.0555967 0)
(-0.2005 -0.0615901 0)
(-0.178226 -0.0656546 0)
(-0.153926 -0.0673947 0)
(-0.128173 -0.066512 0)
(-0.101732 -0.0628917 0)
(-0.0754766 -0.0566473 0)
(-0.0503655 -0.0481624 0)
(-0.027284 -0.0380503 0)
(-0.00700533 -0.0270878 0)
(0.00995481 -0.0160942 0)
(0.0232631 -0.00582986 0)
(0.0328489 0.0030775 0)
(0.0387431 0.0101744 0)
(0.0412233 0.0152016 0)
(0.0406546 0.0181241 0)
(0.037694 0.0191317 0)
(0.032995 0.0186128 0)
(0.0273911 0.0170537 0)
(0.0214411 0.0149479 0)
(0.0157657 0.0126464 0)
(0.010538 0.0103447 0)
(0.0061552 0.00793594 0)
(0.00257926 0.005244 0)
(0.000428203 0.00190042 0)
(0.000484601 -0.00408063 0)
(0.00269021 -0.00897576 0)
(0.0056341 -0.0105856 0)
(0.00787417 -0.00942511 0)
(0.00903757 -0.00650371 0)
(0.00859772 -0.00272318 0)
(0.00661392 0.00117269 0)
(0.00288626 0.00496038 0)
(-0.00266278 0.00869795 0)
(-0.0104272 0.0127932 0)
(-0.0207977 0.0176326 0)
(-0.0342725 0.0235468 0)
(-0.0511509 0.0305749 0)
(-0.0714955 0.0385392 0)
(-0.0949049 0.0469486 0)
(-0.120551 0.0551196 0)
(-0.147276 0.0622574 0)
(-0.1739 0.0677154 0)
(-0.199429 0.071078 0)
(-0.223174 0.07221 0)
(-0.244719 0.0711557 0)
(-0.263858 0.0680929 0)
(-0.280518 0.0632412 0)
(-0.2947 0.0568448 0)
(-0.306446 0.0491249 0)
(-0.315812 0.0402884 0)
(-0.322856 0.030506 0)
(-0.32762 0.0199341 0)
(-0.330134 0.00870536 0)
(-0.330395 -0.00304377 0)
(-0.328375 -0.0151753 0)
(-0.324003 -0.0275178 0)
(-0.31718 -0.0398639 0)
(-0.30777 -0.0519367 0)
(-0.295626 -0.0633898 0)
(-0.280598 -0.0737826 0)
(-0.262587 -0.0826016 0)
(-0.241574 -0.0892688 0)
(-0.217703 -0.0932098 0)
(-0.191312 -0.0939169 0)
(-0.163014 -0.0910685 0)
(-0.133668 -0.0846157 0)
(-0.104372 -0.0748768 0)
(-0.0762968 -0.0625299 0)
(-0.0505718 -0.0485488 0)
(-0.02804 -0.0340248 0)
(-0.00923517 -0.0199937 0)
(0.00570289 -0.00729259 0)
(0.0168018 0.00347397 0)
(0.0242902 0.0119205 0)
(0.0283874 0.0178601 0)
(0.0295359 0.0213282 0)
(0.0281811 0.0225848 0)
(0.0250488 0.0220909 0)
(0.0207055 0.0203971 0)
(0.0159103 0.0180112 0)
(0.0110049 0.0152493 0)
(0.00660607 0.0121184 0)
(0.00281914 0.00832944 0)
(0.000477948 0.00333878 0)
(0.000532274 -0.00555268 0)
(0.00267965 -0.0115615 0)
(0.00516868 -0.0129474 0)
(0.00645259 -0.0106088 0)
(0.00619133 -0.00610102 0)
(0.00392439 -0.00054109 0)
(-0.000301337 0.00520171 0)
(-0.00676981 0.0110276 0)
(-0.0157416 0.0171278 0)
(-0.0277659 0.0240635 0)
(-0.0433006 0.0322155 0)
(-0.0626731 0.0417644 0)
(-0.0857509 0.0523932 0)
(-0.111905 0.0634417 0)
(-0.140005 0.0739268 0)
(-0.168723 0.0829018 0)
(-0.196822 0.0896216 0)
(-0.223388 0.0937186 0)
(-0.247838 0.0951029 0)
(-0.269868 0.0939174 0)
(-0.28936 0.0903988 0)
(-0.306312 0.0848497 0)
(-0.320795 0.0775589 0)
(-0.332918 0.0688097 0)
(-0.34282 0.0588374 0)
(-0.350639 0.0478523 0)
(-0.356518 0.0360147 0)
(-0.360576 0.0234635 0)
(-0.362915 0.0103015 0)
(-0.36359 -0.00337152 0)
(-0.362616 -0.0174649 0)
(-0.359942 -0.0318589 0)
(-0.355465 -0.0464024 0)
(-0.348993 -0.0608701 0)
(-0.340281 -0.0749558 0)
(-0.329007 -0.0882321 0)
(-0.314827 -0.100157 0)
(-0.297399 -0.110061 0)
(-0.276477 -0.117202 0)
(-0.251985 -0.120823 0)
(-0.224148 -0.120287 0)
(-0.193557 -0.115205 0)
(-0.161246 -0.105614 0)
(-0.128598 -0.0920545 0)
(-0.0972174 -0.0755909 0)
(-0.0685857 -0.057629 0)
(-0.0438279 -0.0396524 0)
(-0.0234438 -0.022906 0)
(-0.00745906 -0.00825202 0)
(0.00447591 0.00382591 0)
(0.0127037 0.0130901 0)
(0.0176682 0.0195068 0)
(0.0197114 0.0232129 0)
(0.0194179 0.0245742 0)
(0.0172607 0.0240837 0)
(0.0139962 0.0223056 0)
(0.0100524 0.0196102 0)
(0.00618866 0.0161041 0)
(0.00266988 0.0113914 0)
(0.00044917 0.00478713 0)
(0.000553475 -0.00707517 0)
(0.00241401 -0.0138273 0)
(0.00402827 -0.0144666 0)
(0.00387863 -0.0104304 0)
(0.0016817 -0.0038923 0)
(-0.00293011 0.00387161 0)
(-0.00998046 0.0119553 0)
(-0.0198572 0.0204697 0)
(-0.0329926 0.0297412 0)
(-0.049943 0.0403733 0)
(-0.0709671 0.0525083 0)
(-0.0958594 0.0658793 0)
(-0.123778 0.079575 0)
(-0.153411 0.0924571 0)
(-0.183295 0.103363 0)
(-0.212172 0.111521 0)
(-0.239156 0.116531 0)
(-0.26371 0.118379 0)
(-0.285578 0.117239 0)
(-0.304676 0.113434 0)
(-0.321055 0.107312 0)
(-0.334838 0.0992484 0)
(-0.346222 0.0895788 0)
(-0.355425 0.0786187 0)
(-0.362697 0.0666169 0)
(-0.368271 0.0537867 0)
(-0.372379 0.0402743 0)
(-0.375213 0.0261957 0)
(-0.376938 0.0116165 0)
(-0.377664 -0.00340768 0)
(-0.37746 -0.0188436 0)
(-0.376317 -0.034637 0)
(-0.374169 -0.0507156 0)
(-0.370842 -0.0669401 0)
(-0.366075 -0.0830972 0)
(-0.359475 -0.0988439 0)
(-0.35055 -0.113699 0)
(-0.338699 -0.127001 0)
(-0.323298 -0.137932 0)
(-0.303765 -0.145539 0)
(-0.279738 -0.148852 0)
(-0.251208 -0.147024 0)
(-0.218728 -0.139567 0)
(-0.183476 -0.126548 0)
(-0.147259 -0.108772 0)
(-0.112225 -0.0877481 0)
(-0.0804728 -0.0654574 0)
(-0.0534742 -0.0438668 0)
(-0.031844 -0.024489 0)
(-0.0153176 -0.00815001 0)
(-0.00329265 0.00484738 0)
(0.00495754 0.0145276 0)
(0.0099341 0.021035 0)
(0.0122229 0.0246996 0)
(0.0122445 0.0259333 0)
(0.0106963 0.0252838 0)
(0.00803264 0.0231024 0)
(0.00506278 0.0195431 0)
(0.00218232 0.0141227 0)
(0.000348924 0.00607299 0)
(0.000522214 -0.00840528 0)
(0.00178235 -0.0152611 0)
(0.0020338 -0.0145064 0)
(-3.70519e-05 -0.00822972 0)
(-0.00465487 0.000779876 0)
(-0.0120836 0.0111898 0)
(-0.0224809 0.0221604 0)
(-0.036308 0.0340411 0)
(-0.0540525 0.0471814 0)
(-0.0759994 0.0619719 0)
(-0.10189 0.0780082 0)
(-0.130777 0.0943841 0)
(-0.161228 0.109686 0)
(-0.191667 0.122662 0)
(-0.220795 0.132379 0)
(-0.247688 0.138463 0)
(-0.271818 0.14087 0)
(-0.292915 0.139862 0)
(-0.310933 0.135795 0)
(-0.325954 0.129132 0)
(-0.338195 0.120317 0)
(-0.34793 0.109802 0)
(-0.355499 0.0979634 0)
(-0.361234 0.0851366 0)
(-0.365476 0.0715636 0)
(-0.368515 0.0574376 0)
(-0.370626 0.04287 0)
(-0.372018 0.0279383 0)
(-0.372881 0.0126622 0)
(-0.373341 -0.0029499 0)
(-0.373503 -0.0189211 0)
(-0.373402 -0.0352607 0)
(-0.373037 -0.0519774 0)
(-0.372309 -0.06903 0)
(-0.37104 -0.0863266 0)
(-0.368902 -0.103664 0)
(-0.365424 -0.120709 0)
(-0.35994 -0.13693 0)
(-0.351624 -0.151586 0)
(-0.339514 -0.163686 0)
(-0.32266 -0.172057 0)
(-0.300278 -0.175435 0)
(-0.272049 -0.172693 0)
(-0.238352 -0.163117 0)
(-0.20051 -0.146751 0)
(-0.160759 -0.124625 0)
(-0.121987 -0.0987961 0)
(-0.0870309 -0.0719444 0)
(-0.0579365 -0.0466892 0)
(-0.0353526 -0.0248261 0)
(-0.0187915 -0.00712545 0)
(-0.00715856 0.00643803 0)
(0.000496514 0.0161564 0)
(0.00502379 0.022476 0)
(0.00696535 0.0258087 0)
(0.00701556 0.0266806 0)
(0.00565606 0.025389 0)
(0.00368541 0.022082 0)
(0.00158739 0.0162216 0)
(0.000234041 0.00702829 0)
(0.000410311 -0.0094146 0)
(0.000702128 -0.0155532 0)
(-0.000889666 -0.012723 0)
(-0.00529364 -0.00370744 0)
(-0.0127109 0.00818991 0)
(-0.0233022 0.0217048 0)
(-0.0373893 0.036129 0)
(-0.0553822 0.051958 0)
(-0.0776041 0.069318 0)
(-0.103773 0.0880772 0)
(-0.132977 0.107118 0)
(-0.163669 0.125019 0)
(-0.194233 0.140236 0)
(-0.223236 0.15178 0)
(-0.249733 0.159127 0)
(-0.273113 0.162287 0)
(-0.293128 0.161501 0)
(-0.30972 0.157251 0)
(-0.323067 0.150059 0)
(-0.333445 0.140521 0)
(-0.341266 0.129162 0)
(-0.346941 0.116481 0)
(-0.350918 0.102857 0)
(-0.353573 0.0886079 0)
(-0.355266 0.0739328 0)
(-0.356266 0.0589808 0)
(-0.356817 0.0438143 0)
(-0.357088 0.0284697 0)
(-0.357237 0.0129277 0)
(-0.357367 -0.00283539 0)
(-0.357581 -0.0188761 0)
(-0.357938 -0.0352396 0)
(-0.358494 -0.0519839 0)
(-0.359239 -0.0691366 0)
(-0.360126 -0.0867065 0)
(-0.360988 -0.104629 0)
(-0.361534 -0.122753 0)
(-0.361255 -0.140763 0)
(-0.359417 -0.158139 0)
(-0.354996 -0.17407 0)
(-0.346746 -0.187437 0)
(-0.333289 -0.196814 0)
(-0.313386 -0.200604 0)
(-0.286252 -0.197282 0)
(-0.25201 -0.185807 0)
(-0.212008 -0.166078 0)
(-0.168969 -0.139359 0)
(-0.12659 -0.108332 0)
(-0.0886791 -0.0766112 0)
(-0.0578718 -0.0476036 0)
(-0.0349117 -0.0234617 0)
(-0.0188364 -0.00472341 0)
(-0.00815802 0.00898742 0)
(-0.00146927 0.0184093 0)
(0.00216278 0.0241399 0)
(0.00359245 0.0267818 0)
(0.00339739 0.0266177 0)
(0.00236193 0.0237756 0)
(0.00102241 0.0177115 0)
(0.000130157 0.00768669 0)
(0.000183257 -0.00974418 0)
(-0.000902963 -0.0141351 0)
(-0.00478295 -0.00855812 0)
(-0.0118448 0.00362375 0)
(-0.0223288 0.0187819 0)
(-0.0362755 0.0358192 0)
(-0.0541322 0.0541319 0)
(-0.0760521 0.0741382 0)
(-0.101972 0.0954504 0)
(-0.13091 0.117238 0)
(-0.161449 0.137788 0)
(-0.191788 0.155513 0)
(-0.220488 0.169101 0)
(-0.246411 0.177996 0)
(-0.268961 0.182078 0)
(-0.287792 0.181686 0)
(-0.302938 0.177326 0)
(-0.314584 0.169691 0)
(-0.323166 0.159464 0)
(-0.329149 0.147337 0)
(-0.333093 0.133875 0)
(-0.335474 0.119564 0)
(-0.336758 0.104735 0)
(-0.337282 0.0896396 0)
(-0.337348 0.0744076 0)
(-0.337143 0.0591247 0)
(-0.336838 0.043799 0)
(-0.336526 0.0284282 0)
(-0.336309 0.0129644 0)
(-0.336243 -0.0026331 0)
(-0.336411 -0.0184336 0)
(-0.336866 -0.0344922 0)
(-0.337689 -0.0508839 0)
(-0.338929 -0.0676655 0)
(-0.340642 -0.0849004 0)
(-0.342814 -0.102617 0)
(-0.34537 -0.120809 0)
(-0.348071 -0.139375 0)
(-0.350481 -0.158073 0)
(-0.351842 -0.176413 0)
(-0.351052 -0.193584 0)
(-0.346611 -0.208348 0)
(-0.336768 -0.219036 0)
(-0.31975 -0.223649 0)
(-0.294248 -0.220168 0)
(-0.259966 -0.207062 0)
(-0.218224 -0.183989 0)
(-0.172189 -0.152416 0)
(-0.126531 -0.115838 0)
(-0.086118 -0.0790297 0)
(-0.0542814 -0.0464213 0)
(-0.0316027 -0.0203794 0)
(-0.0166096 -0.00113414 0)
(-0.00722033 0.0123058 0)
(-0.00181595 0.0209413 0)
(0.000872169 0.0256521 0)
(0.00166117 0.0268368 0)
(0.00138813 0.0246543 0)
(0.000638609 0.0186181 0)
(7.16094e-05 0.00807053 0)
(-0.000171428 -0.00915746 0)
(-0.00300182 -0.0107043 0)
(-0.00948604 -0.00181377 0)
(-0.01937 0.0138433 0)
(-0.0330031 0.0325517 0)
(-0.0502528 0.0534012 0)
(-0.0715883 0.07576 0)
(-0.096694 0.0996846 0)
(-0.125021 0.124089 0)
(-0.154978 0.147503 0)
(-0.184955 0.167936 0)
(-0.213203 0.183984 0)
(-0.238628 0.194755 0)
(-0.260397 0.200141 0)
(-0.278256 0.200396 0)
(-0.29214 0.196179 0)
(-0.302406 0.18825 0)
(-0.309493 0.177495 0)
(-0.314053 0.164697 0)
(-0.316659 0.150577 0)
(-0.31792 0.135654 0)
(-0.318266 0.120339 0)
(-0.318097 0.104864 0)
(-0.317636 0.0893918 0)
(-0.317086 0.0739688 0)
(-0.316527 0.0586226 0)
(-0.31605 0.0433182 0)
(-0.315671 0.0280306 0)
(-0.315443 0.0127001 0)
(-0.315378 -0.0027131 0)
(-0.315535 -0.0182727 0)
(-0.315946 -0.0340234 0)
(-0.316697 -0.0500313 0)
(-0.317852 -0.0663488 0)
(-0.319514 -0.0830489 0)
(-0.321756 -0.100192 0)
(-0.324653 -0.117848 0)
(-0.328187 -0.136049 0)
(-0.332242 -0.154773 0)
(-0.336457 -0.173855 0)
(-0.340163 -0.192897 0)
(-0.342227 -0.211113 0)
(-0.341019 -0.227201 0)
(-0.334443 -0.239253 0)
(-0.320232 -0.244834 0)
(-0.296462 -0.241315 0)
(-0.262359 -0.226552 0)
(-0.219107 -0.199841 0)
(-0.170379 -0.162919 0)
(-0.121908 -0.120314 0)
(-0.0797968 -0.0783672 0)
(-0.0478953 -0.0425635 0)
(-0.02639 -0.0153716 0)
(-0.0129964 0.00373834 0)
(-0.00524141 0.0162215 0)
(-0.00115736 0.023499 0)
(0.000525869 0.0263134 0)
(0.00084238 0.0249926 0)
(0.000468992 0.019191 0)
(6.07253e-05 0.00834553 0)
(-0.00066119 -0.00727892 0)
(-0.00553438 -0.00484659 0)
(-0.0147998 0.00779956 0)
(-0.0275179 0.0271258 0)
(-0.0441917 0.0495578 0)
(-0.0644248 0.0742885 0)
(-0.0885867 0.100458 0)
(-0.115769 0.127532 0)
(-0.145008 0.153737 0)
(-0.174332 0.177207 0)
(-0.202233 0.196024 0)
(-0.227182 0.209179 0)
(-0.248478 0.216261 0)
(-0.265589 0.217594 0)
(-0.278635 0.213804 0)
(-0.287854 0.205863 0)
(-0.293912 0.194747 0)
(-0.297423 0.181459 0)
(-0.299157 0.166789 0)
(-0.299666 0.151392 0)
(-0.299503 0.135678 0)
(-0.298971 0.119934 0)
(-0.29835 0.104278 0)
(-0.297734 0.0887815 0)
(-0.29723 0.073422 0)
(-0.296823 0.058185 0)
(-0.296551 0.0430107 0)
(-0.296377 0.0278661 0)
(-0.296328 0.0126922 0)
(-0.296384 -0.00254178 0)
(-0.296593 -0.0178871 0)
(-0.296967 -0.0333726 0)
(-0.297583 -0.0490478 0)
(-0.298495 -0.0649487 0)
(-0.299814 -0.0811358 0)
(-0.301632 -0.0976669 0)
(-0.304084 -0.114627 0)
(-0.307266 -0.132101 0)
(-0.311259 -0.150181 0)
(-0.316016 -0.168912 0)
(-0.321309 -0.188231 0)
(-0.326548 -0.207831 0)
(-0.330661 -0.226989 0)
(-0.331926 -0.24435 0)
(-0.328001 -0.257768 0)
(-0.316136 -0.26432 0)
(-0.293817 -0.260672 0)
(-0.25973 -0.243927 0)
(-0.214943 -0.212983 0)
(-0.163706 -0.169967 0)
(-0.113038 -0.120912 0)
(-0.0703067 -0.074066 0)
(-0.0396001 -0.0360347 0)
(-0.0201324 -0.0086912 0)
(-0.00882938 0.00930325 0)
(-0.00281362 0.0200961 0)
(-0.000119067 0.0250562 0)
(0.000699435 0.0249117 0)
(0.000511815 0.0195739 0)
(9.84182e-05 0.00859886 0)
(-0.00125065 -0.00393169 0)
(-0.00830792 0.0035001 0)
(-0.020332 0.0201598 0)
(-0.0357036 0.0431884 0)
(-0.0550897 0.0693234 0)
(-0.0777278 0.0976994 0)
(-0.103802 0.127048 0)
(-0.13181 0.156151 0)
(-0.160558 0.182728 0)
(-0.187939 0.204819 0)
(-0.212743 0.220837 0)
(-0.233721 0.230261 0)
(-0.250588 0.233172 0)
(-0.263126 0.230321 0)
(-0.271844 0.222699 0)
(-0.277239 0.211532 0)
(-0.280201 0.197926 0)
(-0.281391 0.182881 0)
(-0.28157 0.167096 0)
(-0.281167 0.151085 0)
(-0.280609 0.135109 0)
(-0.280039 0.119323 0)
(-0.279621 0.10374 0)
(-0.279333 0.0883629 0)
(-0.279216 0.0731266 0)
(-0.279195 0.057997 0)
(-0.279283 0.0429092 0)
(-0.279416 0.0278353 0)
(-0.279614 0.0127264 0)
(-0.279843 -0.00243412 0)
(-0.280145 -0.0176823 0)
(-0.280516 -0.03303 0)
(-0.281025 -0.0485083 0)
(-0.281704 -0.0641339 0)
(-0.282652 -0.0799457 0)
(-0.283945 -0.0959824 0)
(-0.285721 -0.112312 0)
(-0.288102 -0.129022 0)
(-0.291255 -0.146232 0)
(-0.295295 -0.164083 0)
(-0.300286 -0.1827 0)
(-0.306085 -0.202123 0)
(-0.312225 -0.222149 0)
(-0.317677 -0.242116 0)
(-0.320687 -0.260612 0)
(-0.318678 -0.275221 0)
(-0.308482 -0.282465 0)
(-0.287003 -0.278191 0)
(-0.252438 -0.258665 0)
(-0.205832 -0.222394 0)
(-0.152243 -0.172292 0)
(-0.10023 -0.116471 0)
(-0.0583896 -0.0656464 0)
(-0.0303023 -0.0268398 0)
(-0.0136987 -0.000829926 0)
(-0.00476682 0.0150421 0)
(-0.000645504 0.0230319 0)
(0.000764145 0.0245643 0)
(0.000681112 0.0199712 0)
(0.00016551 0.00897159 0)
(-0.00190247 0.00108424 0)
(-0.0111468 0.0144215 0)
(-0.025748 0.0352038 0)
(-0.043442 0.061839 0)
(-0.0650314 0.0914701 0)
(-0.089316 0.122978 0)
(-0.116278 0.154583 0)
(-0.143929 0.184433 0)
(-0.171059 0.210015 0)
(-0.195611 0.229535 0)
(-0.216773 0.241899 0)
(-0.233598 0.247099 0)
(-0.246225 0.245716 0)
(-0.254746 0.238911 0)
(-0.260015 0.227987 0)
(-0.262681 0.214316 0)
(-0.263727 0.199009 0)
(-0.263734 0.182953 0)
(-0.26336 0.166685 0)
(-0.262853 0.150544 0)
(-0.262505 0.134641 0)
(-0.262311 0.119019 0)
(-0.262351 0.103622 0)
(-0.262526 0.0884082 0)
(-0.262849 0.0732991 0)
(-0.263218 0.0582581 0)
(-0.263645 0.0432274 0)
(-0.264057 0.0281896 0)
(-0.264483 0.013108 0)
(-0.264882 -0.0020223 0)
(-0.265298 -0.0172249 0)
(-0.265719 -0.0325003 0)
(-0.266204 -0.0478666 0)
(-0.266767 -0.0633272 0)
(-0.267487 -0.0789032 0)
(-0.268409 -0.0946133 0)
(-0.269644 -0.1105 0)
(-0.271291 -0.126623 0)
(-0.273515 -0.143085 0)
(-0.276476 -0.160031 0)
(-0.280371 -0.177652 0)
(-0.285319 -0.196161 0)
(-0.291299 -0.215696 0)
(-0.297925 -0.236166 0)
(-0.304227 -0.256946 0)
(-0.30838 -0.276523 0)
(-0.307579 -0.292121 0)
(-0.298236 -0.299583 0)
(-0.276724 -0.293811 0)
(-0.240879 -0.270158 0)
(-0.191955 -0.226999 0)
(-0.13624 -0.168622 0)
(-0.0841475 -0.106324 0)
(-0.04512 -0.0532116 0)
(-0.0210418 -0.0158432 0)
(-0.00782231 0.00740717 0)
(-0.00153017 0.0198192 0)
(0.000780632 0.0238262 0)
(0.000873881 0.020384 0)
(0.000243776 0.00948184 0)
(-0.00253922 0.00770867 0)
(-0.0137808 0.027637 0)
(-0.0306007 0.0524674 0)
(-0.0501411 0.0824329 0)
(-0.073293 0.115121 0)
(-0.0983936 0.149001 0)
(-0.125271 0.181784 0)
(-0.151606 0.211138 0)
(-0.17635 0.234587 0)
(-0.197615 0.25069 0)
(-0.215027 0.25892 0)
(-0.227935 0.259788 0)
(-0.236899 0.254365 0)
(-0.242264 0.24416 0)
(-0.245125 0.230682 0)
(-0.24615 0.215311 0)
(-0.246297 0.199048 0)
(-0.245978 0.18259 0)
(-0.245709 0.16628 0)
(-0.245553 0.150288 0)
(-0.245691 0.134604 0)
(-0.246009 0.119196 0)
(-0.246547 0.103968 0)
(-0.247164 0.0888668 0)
(-0.247873 0.0738162 0)
(-0.248564 0.0587893 0)
(-0.249263 0.043742 0)
(-0.249895 0.0286691 0)
(-0.250503 0.0135473 0)
(-0.251042 -0.00161872 0)
(-0.251564 -0.0168418 0)
(-0.252049 -0.0321148 0)
(-0.252554 -0.0474462 0)
(-0.253078 -0.0628318 0)
(-0.253686 -0.0782803 0)
(-0.254397 -0.0937975 0)
(-0.255293 -0.109403 0)
(-0.25643 -0.125133 0)
(-0.257935 -0.141047 0)
(-0.259939 -0.15726 0)
(-0.262649 -0.173937 0)
(-0.266281 -0.191331 0)
(-0.271049 -0.209731 0)
(-0.277012 -0.229403 0)
(-0.283881 -0.250345 0)
(-0.290703 -0.271962 0)
(-0.295535 -0.292541 0)
(-0.295288 -0.308806 0)
(-0.285902 -0.315714 0)
(-0.263305 -0.307039 0)
(-0.225146 -0.277296 0)
(-0.173387 -0.22515 0)
(-0.116097 -0.157582 0)
(-0.0658833 -0.0900476 0)
(-0.0318816 -0.0376644 0)
(-0.0127607 -0.00393915 0)
(-0.00327462 0.0148307 0)
(0.000466271 0.0224739 0)
(0.000968595 0.0207702 0)
(0.000309957 0.0101484 0)
(-0.0031075 0.0158488 0)
(-0.0160388 0.0429034 0)
(-0.0346189 0.0716134 0)
(-0.0554552 0.104541 0)
(-0.0794772 0.139722 0)
(-0.104594 0.175109 0)
(-0.130566 0.207996 0)
(-0.1549 0.235769 0)
(-0.176838 0.256223 0)
(-0.194716 0.268376 0)
(-0.208597 0.27231 0)
(-0.218114 0.269037 0)
(-0.224192 0.260073 0)
(-0.227333 0.247166 0)
(-0.228746 0.231897 0)
(-0.229007 0.215528 0)
(-0.228964 0.198873 0)
(-0.228827 0.182405 0)
(-0.228973 0.166287 0)
(-0.229316 0.150549 0)
(-0.229967 0.135104 0)
(-0.230746 0.119877 0)
(-0.231689 0.104767 0)
(-0.232638 0.0897224 0)
(-0.233625 0.074682 0)
(-0.23454 0.0596307 0)
(-0.235428 0.0445396 0)
(-0.236217 0.0294126 0)
(-0.236959 0.0142372 0)
(-0.23761 -0.000975733 0)
(-0.238228 -0.0162316 0)
(-0.238786 -0.0315202 0)
(-0.239344 -0.0468436 0)
(-0.23989 -0.0621959 0)
(-0.240481 -0.0775787 0)
(-0.24112 -0.0929937 0)
(-0.241866 -0.108446 0)
(-0.242742 -0.123956 0)
(-0.243832 -0.139551 0)
(-0.245212 -0.155303 0)
(-0.247039 -0.171319 0)
(-0.249505 -0.18781 0)
(-0.25288 -0.20506 0)
(-0.257433 -0.22347 0)
(-0.263318 -0.2434 0)
(-0.270313 -0.264967 0)
(-0.277432 -0.28752 0)
(-0.282561 -0.309044 0)
(-0.282183 -0.325507 0)
(-0.271767 -0.330689 0)
(-0.246806 -0.317087 0)
(-0.205212 -0.278511 0)
(-0.150259 -0.21509 0)
(-0.0927016 -0.13814 0)
(-0.0471433 -0.0686539 0)
(-0.0200961 -0.0204698 0)
(-0.00625987 0.00716849 0)
(-0.000377472 0.0200277 0)
(0.000886065 0.0208964 0)
(0.000351693 0.0108805 0)
(-0.00353267 0.0251738 0)
(-0.017708 0.0596703 0)
(-0.0374984 0.0919595 0)
(-0.0590367 0.127343 0)
(-0.0832484 0.164319 0)
(-0.107691 0.200305 0)
(-0.132146 0.232324 0)
(-0.154086 0.257669 0)
(-0.173104 0.274579 0)
(-0.187781 0.28258 0)
(-0.198593 0.282368 0)
(-0.205406 0.275402 0)
(-0.209428 0.263565 0)
(-0.2112 0.248701 0)
(-0.211939 0.232339 0)
(-0.212048 0.21553 0)
(-0.212238 0.198869 0)
(-0.212525 0.182608 0)
(-0.213181 0.166769 0)
(-0.214013 0.151283 0)
(-0.215106 0.136028 0)
(-0.216251 0.120912 0)
(-0.217496 0.105848 0)
(-0.218683 0.0907942 0)
(-0.219868 0.0757082 0)
(-0.220943 0.0605854 0)
(-0.221968 0.0454111 0)
(-0.222873 0.0301959 0)
(-0.223719 0.014937 0)
(-0.22446 -0.000351156 0)
(-0.225156 -0.0156665 0)
(-0.225779 -0.0309969 0)
(-0.226387 -0.0463392 0)
(-0.226966 -0.0616876 0)
(-0.227569 -0.0770391 0)
(-0.22819 -0.0923963 0)
(-0.228878 -0.107757 0)
(-0.229634 -0.123137 0)
(-0.230514 -0.138541 0)
(-0.231548 -0.154015 0)
(-0.232834 -0.169612 0)
(-0.234497 -0.185478 0)
(-0.236759 -0.201821 0)
(-0.239913 -0.219022 0)
(-0.244292 -0.237547 0)
(-0.250131 -0.257915 0)
(-0.257218 -0.280282 0)
(-0.264508 -0.3039 0)
(-0.269529 -0.326203 0)
(-0.268303 -0.342074 0)
(-0.255647 -0.34377 0)
(-0.226946 -0.322289 0)
(-0.180797 -0.271524 0)
(-0.122986 -0.194668 0)
(-0.0676379 -0.110562 0)
(-0.0301495 -0.0440208 0)
(-0.0107338 -0.00407359 0)
(-0.00186115 0.0159425 0)
(0.00059116 0.0205254 0)
(0.000362638 0.0116063 0)
(-0.00378744 0.0353541 0)
(-0.0187212 0.077513 0)
(-0.0391602 0.11308 0)
(-0.0608327 0.150415 0)
(-0.0846288 0.188509 0)
(-0.107858 0.224284 0)
(-0.130397 0.254652 0)
(-0.14979 0.276985 0)
(-0.165994 0.290072 0)
(-0.177832 0.293964 0)
(-0.186138 0.289947 0)
(-0.190952 0.279855 0)
(-0.193652 0.265817 0)
(-0.194725 0.249642 0)
(-0.195311 0.23271 0)
(-0.195617 0.215816 0)
(-0.196218 0.19934 0)
(-0.196974 0.183349 0)
(-0.198092 0.167769 0)
(-0.199319 0.152472 0)
(-0.20074 0.137332 0)
(-0.202138 0.12226 0)
(-0.203587 0.107188 0)
(-0.204933 0.0920855 0)
(-0.206252 0.0769297 0)
(-0.207439 0.0617218 0)
(-0.208567 0.0464587 0)
(-0.209563 0.0311539 0)
(-0.210497 0.0158126 0)
(-0.211315 0.000450345 0)
(-0.212085 -0.0149242 0)
(-0.212771 -0.0302994 0)
(-0.213436 -0.0456666 0)
(-0.214059 -0.0610224 0)
(-0.214697 -0.0763598 0)
(-0.215335 -0.0916866 0)
(-0.216023 -0.106996 0)
(-0.216751 -0.122309 0)
(-0.217557 -0.137617 0)
(-0.218443 -0.152958 0)
(-0.219462 -0.168341 0)
(-0.220672 -0.183862 0)
(-0.222215 -0.199635 0)
(-0.224319 -0.215953 0)
(-0.227314 -0.233223 0)
(-0.231612 -0.252084 0)
(-0.237468 -0.273133 0)
(-0.244701 -0.296597 0)
(-0.251985 -0.321399 0)
(-0.25647 -0.344122 0)
(-0.253391 -0.358094 0)
(-0.237136 -0.353544 0)
(-0.203093 -0.320253 0)
(-0.151806 -0.253335 0)
(-0.0925619 -0.162826 0)
(-0.0436934 -0.0768883 0)
(-0.0166932 -0.0200354 0)
(-0.00410292 0.00954086 0)
(0.000106014 0.0193226 0)
(0.000339257 0.0122124 0)
(-0.0038345 0.0459031 0)
(-0.0189905 0.0957714 0)
(-0.0395132 0.134254 0)
(-0.0607937 0.172981 0)
(-0.0836651 0.211513 0)
(-0.105298 0.246364 0)
(-0.125715 0.274497 0)
(-0.142602 0.293483 0)
(-0.156256 0.302721 0)
(-0.165722 0.302766 0)
(-0.172116 0.295441 0)
(-0.175576 0.28285 0)
(-0.177546 0.267249 0)
(-0.178393 0.250298 0)
(-0.17914 0.233178 0)
(-0.179804 0.216412 0)
(-0.180852 0.200204 0)
(-0.182032 0.184476 0)
(-0.183524 0.169102 0)
(-0.185045 0.153925 0)
(-0.1867 0.138837 0)
(-0.188274 0.123755 0)
(-0.189866 0.108635 0)
(-0.191326 0.0934563 0)
(-0.192749 0.0782097 0)
(-0.194027 0.0628999 0)
(-0.195243 0.0475338 0)
(-0.19632 0.0321253 0)
(-0.197332 0.0166878 0)
(-0.198221 0.00123692 0)
(-0.199057 -0.0142113 0)
(-0.1998 -0.0296459 0)
(-0.200514 -0.0450515 0)
(-0.201175 -0.0604274 0)
(-0.201842 -0.0757614 0)
(-0.202498 -0.0910672 0)
(-0.203193 -0.106335 0)
(-0.203914 -0.121593 0)
(-0.204698 -0.136831 0)
(-0.205532 -0.152089 0)
(-0.206442 -0.167354 0)
(-0.207444 -0.182697 0)
(-0.208603 -0.198151 0)
(-0.210058 -0.213919 0)
(-0.212049 -0.230269 0)
(-0.214983 -0.247787 0)
(-0.21929 -0.267191 0)
(-0.225322 -0.289277 0)
(-0.232695 -0.314145 0)
(-0.23983 -0.340167 0)
(-0.243046 -0.362538 0)
(-0.23694 -0.372328 0)
(-0.215293 -0.357539 0)
(-0.174615 -0.307203 0)
(-0.118434 -0.221075 0)
(-0.0615008 -0.120352 0)
(-0.0241748 -0.0424755 0)
(-0.00723067 0.000294972 0)
(-0.000573875 0.0169064 0)
(0.000292611 0.0126445 0)
(-0.00368775 0.0564153 0)
(-0.0185668 0.114017 0)
(-0.0386644 0.155142 0)
(-0.0591147 0.194799 0)
(-0.0806737 0.233225 0)
(-0.100479 0.26664 0)
(-0.118718 0.292182 0)
(-0.13326 0.307711 0)
(-0.144699 0.313251 0)
(-0.152267 0.309824 0)
(-0.157274 0.29972 0)
(-0.159891 0.2852 0)
(-0.161543 0.26854 0)
(-0.162445 0.251178 0)
(-0.163489 0.234076 0)
(-0.164537 0.217513 0)
(-0.165977 0.201555 0)
(-0.167489 0.186022 0)
(-0.169251 0.170776 0)
(-0.170971 0.155648 0)
(-0.172779 0.140555 0)
(-0.174467 0.125425 0)
(-0.176156 0.110235 0)
(-0.177699 0.0949663 0)
(-0.179202 0.0796247 0)
(-0.180555 0.0642131 0)
(-0.181848 0.0487465 0)
(-0.183 0.0332376 0)
(-0.184086 0.017707 0)
(-0.185046 0.00216902 0)
(-0.18595 -0.0133529 0)
(-0.186756 -0.0288496 0)
(-0.187527 -0.0442986 0)
(-0.188236 -0.059703 0)
(-0.188942 -0.0750437 0)
(-0.189628 -0.090342 0)
(-0.190345 -0.105582 0)
(-0.191079 -0.120805 0)
(-0.191868 -0.135995 0)
(-0.192697 -0.151206 0)
(-0.193582 -0.166413 0)
(-0.194515 -0.181684 0)
(-0.195514 -0.197001 0)
(-0.196644 -0.212499 0)
(-0.198032 -0.228306 0)
(-0.19999 -0.24487 0)
(-0.202927 -0.262811 0)