/*--------------------------------*- C++ -*----------------------------------*\
| =========                 |                                                 |
| \\      /  F ield         | OpenFOAM: The Open Source CFD Toolbox           |
|  \\    /   O peration     | Version:  2406                                  |
|   \\  /    A nd           | Website:  www.openfoam.com                      |
|    \\/     M anipulation  |                                                 |
\*---------------------------------------------------------------------------*/
FoamFile
{
    version     2.0;
    format      ascii;
    arch        "LSB;label=32;scalar=64";
    class       volVectorField;
    location    "20.3";
    object      U_0;
}
// * * * * * * * * * * * * * * * * * * * * * * * * * * * * * * * * * * * * * //

dimensions      [0 1 -1 0 0 0 0];

internalField   nonuniform List<vector> 
14400
(
(2.88685e-06 -2.87024e-06 0)
(2.40699e-05 -7.41715e-06 0)
(6.00407e-05 -1.07038e-05 0)
(0.000104098 -1.16464e-05 0)
(0.000148488 -1.13281e-05 0)
(0.000189688 -1.02479e-05 0)
(0.000225767 -8.86911e-06 0)
(0.000256035 -7.44273e-06 0)
(0.000280552 -6.09745e-06 0)
(0.000299744 -4.89217e-06 0)
(0.000314131 -3.85702e-06 0)
(0.000324192 -2.98484e-06 0)
(0.000330244 -2.19454e-06 0)
(0.000332294 -1.468e-06 0)
(0.000330434 -5.56943e-07 0)
(0.000324584 4.17223e-07 0)
(0.00031427 1.46626e-06 0)
(0.000298994 2.63346e-06 0)
(0.000278151 3.94467e-06 0)
(0.000251044 5.41946e-06 0)
(0.000216896 7.0743e-06 0)
(0.000174864 8.92371e-06 0)
(0.00012404 1.09819e-05 0)
(6.34515e-05 1.32637e-05 0)
(-7.94211e-06 1.57857e-05 0)
(-9.12572e-05 1.85666e-05 0)
(-0.000187692 2.16272e-05 0)
(-0.000298533 2.49901e-05 0)
(-0.000425162 2.86794e-05 0)
(-0.000569051 3.27194e-05 0)
(-0.000731766 3.71339e-05 0)
(-0.000914954 4.19445e-05 0)
(-0.00112033 4.71692e-05 0)
(-0.00134964 5.28204e-05 0)
(-0.00160468 5.89035e-05 0)
(-0.00188717 6.54147e-05 0)
(-0.0021988 7.23392e-05 0)
(-0.00254113 7.96491e-05 0)
(-0.00291551 8.73015e-05 0)
(-0.00332306 9.5237e-05 0)
(-0.00376455 0.000103378 0)
(-0.00424035 0.000111627 0)
(-0.00475032 0.000119867 0)
(-0.00529374 0.00012796 0)
(-0.00586924 0.000135747 0)
(-0.00647469 0.00014305 0)
(-0.00710714 0.00014967 0)
(-0.00776277 0.000155396 0)
(-0.00843683 0.000160001 0)
(-0.00912361 0.000163249 0)
(-0.00981645 0.000164899 0)
(-0.0105077 0.000164714 0)
(-0.0111889 0.000162458 0)
(-0.0118507 0.000157915 0)
(-0.012483 0.000150885 0)
(-0.0130751 0.000141201 0)
(-0.0136159 0.000128729 0)
(-0.0140941 0.000113383 0)
(-0.0144983 9.51274e-05 0)
(-0.0148173 7.39554e-05 0)
(-0.0150407 5.00369e-05 0)
(-0.0151586 2.39866e-05 0)
(-0.0151617 -4.30742e-06 0)
(-0.0150426 -3.50212e-05 0)
(-0.0147962 -6.73182e-05 0)
(-0.0144184 -0.000100556 0)
(-0.0139075 -0.000134186 0)
(-0.0132644 -0.000167556 0)
(-0.0124924 -0.000199956 0)
(-0.0115976 -0.000230641 0)
(-0.0105889 -0.000258855 0)
(-0.00947761 -0.000283859 0)
(-0.00827787 -0.000304957 0)
(-0.007006 -0.000321526 0)
(-0.00568031 -0.000333051 0)
(-0.00432072 -0.000339145 0)
(-0.00294819 -0.000339579 0)
(-0.00158421 -0.000334294 0)
(-0.000250178 -0.000323412 0)
(0.00103322 -0.00030724 0)
(0.00224663 -0.000286256 0)
(0.00337262 -0.000261091 0)
(0.00439619 -0.000232504 0)
(0.00530517 -0.000201346 0)
(0.00609054 -0.000168519 0)
(0.00674659 -0.000134934 0)
(0.007271 -0.000101474 0)
(0.00766463 -6.89465e-05 0)
(0.00793142 -3.80428e-05 0)
(0.00807806 -9.31958e-06 0)
(0.00811382 1.63686e-05 0)
(0.00804817 3.80995e-05 0)
(0.00789288 5.71575e-05 0)
(0.00766165 7.33996e-05 0)
(0.00736705 8.63418e-05 0)
(0.00702151 9.61087e-05 0)
(0.00663713 0.000102971 0)
(0.00622518 0.000107219 0)
(0.00579586 0.000109175 0)
(0.00535816 0.000109178 0)
(0.00491977 0.000107564 0)
(0.0044871 0.000104662 0)
(0.00406526 0.00010078 0)
(0.00365816 9.62016e-05 0)
(0.0032686 9.11815e-05 0)
(0.00289837 8.59441e-05 0)
(0.00254836 8.06799e-05 0)
(0.00221875 7.5542e-05 0)
(0.00190915 7.0639e-05 0)
(0.00161882 6.60255e-05 0)
(0.0013469 6.1686e-05 0)
(0.00109275 5.75163e-05 0)
(0.000856329 5.32996e-05 0)
(0.000638691 4.86847e-05 0)
(0.000442462 4.31698e-05 0)
(0.00027232 3.61365e-05 0)
(0.000135191 2.6951e-05 0)
(3.94341e-05 1.53454e-05 0)
(-7.6366e-06 2.15881e-06 0)
(-6.96574e-06 -6.97823e-06 0)
(7.52801e-06 -2.41377e-05 0)
(6.11991e-05 -6.08328e-05 0)
(0.000139521 -8.24225e-05 0)
(0.000231547 -8.86942e-05 0)
(0.000321785 -8.49797e-05 0)
(0.000403219 -7.56242e-05 0)
(0.00047161 -6.37126e-05 0)
(0.000525212 -5.11824e-05 0)
(0.000563841 -3.9106e-05 0)
(0.000588128 -2.79462e-05 0)
(0.000598985 -1.77748e-05 0)
(0.000597359 -8.40318e-06 0)
(0.000583727 4.15671e-07 0)
(0.000558253 9.16722e-06 0)
(0.000520652 1.83736e-05 0)
(0.000470077 2.82716e-05 0)
(0.000405451 3.91601e-05 0)
(0.000325254 5.131e-05 0)
(0.000227644 6.49486e-05 0)
(0.000110513 8.02676e-05 0)
(-2.84848e-05 9.74337e-05 0)
(-0.000191908 0.000116599 0)
(-0.000382519 0.000137911 0)
(-0.000603273 0.000161519 0)
(-0.00085733 0.000187584 0)
(-0.00114805 0.000216275 0)
(-0.00147901 0.000247773 0)
(-0.00185399 0.000282266 0)
(-0.00227698 0.000319942 0)
(-0.00275216 0.000360981 0)
(-0.00328387 0.000405543 0)
(-0.00387655 0.000453755 0)
(-0.00453468 0.000505693 0)
(-0.00526271 0.000561371 0)
(-0.00606495 0.000620721 0)
(-0.00694539 0.000683573 0)
(-0.00790765 0.000749644 0)
(-0.0089547 0.000818515 0)
(-0.0100888 0.000889622 0)
(-0.0113111 0.000962239 0)
(-0.0126217 0.00103547 0)
(-0.0140194 0.00110825 0)
(-0.0155011 0.00117933 0)
(-0.0170621 0.00124729 0)
(-0.0186959 0.00131056 0)
(-0.0203937 0.00136743 0)
(-0.0221447 0.00141606 0)
(-0.0239355 0.00145453 0)
(-0.0257509 0.00148089 0)
(-0.0275733 0.00149318 0)
(-0.0293831 0.00148949 0)
(-0.0311588 0.00146802 0)
(-0.0328773 0.00142713 0)
(-0.0345142 0.0013654 0)
(-0.0360442 0.00128171 0)
(-0.0374416 0.00117525 0)
(-0.0386804 0.00104562 0)
(-0.0397353 0.000892854 0)
(-0.040582 0.000717467 0)
(-0.0411976 0.000520481 0)
(-0.0415611 0.000303478 0)
(-0.0416547 6.8909e-05 0)
(-0.0414636 -0.000180264 0)
(-0.0409754 -0.000441833 0)
(-0.0401828 -0.000711685 0)
(-0.0390828 -0.000985504 0)
(-0.037677 -0.00125864 0)
(-0.0359717 -0.00152616 0)
(-0.0339783 -0.00178292 0)
(-0.0317136 -0.00202368 0)
(-0.0291989 -0.00224327 0)
(-0.0264609 -0.00243672 0)
(-0.0235303 -0.00259941 0)
(-0.0204423 -0.00272727 0)
(-0.0172354 -0.00281693 0)
(-0.0139509 -0.00286587 0)
(-0.0106321 -0.00287252 0)
(-0.00732334 -0.00283645 0)
(-0.00406905 -0.00275832 0)
(-0.000912653 -0.00263999 0)
(0.00210448 -0.00248443 0)
(0.00494408 -0.00229569 0)
(0.00757192 -0.00207872 0)
(0.00995873 -0.00183919 0)
(0.0120809 -0.00158332 0)
(0.0139209 -0.00131759 0)
(0.0154678 -0.0010485 0)
(0.0167172 -0.000782331 0)
(0.0176713 -0.000524887 0)
(0.0183381 -0.000281343 0)
(0.0187308 -5.6251e-05 0)
(0.0188684 0.000146629 0)
(0.0187735 0.000326223 0)
(0.0184707 0.000480882 0)
(0.0179868 0.000609726 0)
(0.0173497 0.000713091 0)
(0.0165875 0.000792097 0)
(0.015727 0.000848436 0)
(0.0147937 0.000884235 0)
(0.0138109 0.000901914 0)
(0.0127995 0.000904045 0)
(0.0117777 0.000893247 0)
(0.0107609 0.000872084 0)
(0.00976141 0.000842996 0)
(0.00878917 0.000808237 0)
(0.00785138 0.000769833 0)
(0.00695299 0.000729533 0)
(0.00609698 0.00068876 0)
(0.0052848 0.000648546 0)
(0.00451685 0.000609444 0)
(0.00379308 0.000571409 0)
(0.00311378 0.000533671 0)
(0.00248039 0.000494591 0)
(0.00189649 0.000451562 0)
(0.00136869 0.000401026 0)
(0.000907348 0.000338846 0)
(0.000526518 0.000261328 0)
(0.000241275 0.000167762 0)
(6.78111e-05 6.54501e-05 0)
(2.63822e-06 -7.19416e-06 0)
(1.09117e-05 -6.05311e-05 0)
(8.30731e-05 -0.000139289 0)
(0.000180196 -0.000179859 0)
(0.000289849 -0.0001892 0)
(0.000393049 -0.000177719 0)
(0.00048159 -0.000154069 0)
(0.000550211 -0.000124588 0)
(0.000596595 -9.3421e-05 0)
(0.000620313 -6.29424e-05 0)
(0.000621961 -3.42074e-05 0)
(0.000602492 -7.34913e-06 0)
(0.000562671 1.80643e-05 0)
(0.000502975 4.26932e-05 0)
(0.000423324 6.75431e-05 0)
(0.000322803 9.3459e-05 0)
(0.000199929 0.0001214 0)
(5.26434e-05 0.00015217 0)
(-0.000121702 0.000186464 0)
(-0.000326263 0.000224886 0)
(-0.000564639 0.000267959 0)
(-0.000840831 0.000316149 0)
(-0.0011592 0.000369883 0)
(-0.00152446 0.000429572 0)
(-0.00194165 0.000495626 0)
(-0.00241612 0.000568461 0)
(-0.00295354 0.000648507 0)
(-0.0035599 0.000736199 0)
(-0.00424146 0.000831966 0)
(-0.00500473 0.000936211 0)
(-0.0058564 0.00104928 0)
(-0.0068033 0.00117145 0)
(-0.00785224 0.00130287 0)
(-0.00900989 0.00144351 0)
(-0.0102826 0.00159317 0)
(-0.0116763 0.00175137 0)
(-0.013196 0.00191737 0)
(-0.0148458 0.00209008 0)
(-0.0166286 0.00226805 0)
(-0.0185455 0.00244944 0)
(-0.0205958 0.00263199 0)
(-0.0227765 0.00281303 0)
(-0.0250824 0.00298945 0)
(-0.0275053 0.00315778 0)
(-0.0300341 0.00331416 0)
(-0.0326545 0.00345443 0)
(-0.0353494 0.00357421 0)
(-0.0380981 0.00366897 0)
(-0.0408772 0.00373415 0)
(-0.0436601 0.00376526 0)
(-0.0464179 0.00375799 0)
(-0.0491192 0.00370839 0)
(-0.0517311 0.00361295 0)
(-0.0542193 0.00346875 0)
(-0.0565489 0.00327356 0)
(-0.0586848 0.00302597 0)
(-0.0605926 0.00272545 0)
(-0.0622391 0.00237245 0)
(-0.0635929 0.00196843 0)
(-0.0646251 0.00151594 0)
(-0.0653096 0.00101858 0)
(-0.0656241 0.000480967 0)
(-0.0655495 -9.12475e-05 0)
(-0.0650727 -0.000690811 0)
(-0.0641842 -0.00131036 0)
(-0.0628795 -0.00194152 0)
(-0.0611597 -0.00257501 0)
(-0.0590314 -0.00320095 0)
(-0.0565069 -0.00380908 0)
(-0.053604 -0.00438887 0)
(-0.050346 -0.0049298 0)
(-0.0467618 -0.00542157 0)
(-0.0428855 -0.00585438 0)
(-0.0387559 -0.00621916 0)
(-0.0344164 -0.00650793 0)
(-0.0299142 -0.00671401 0)
(-0.0252999 -0.00683232 0)
(-0.0206262 -0.00685962 0)
(-0.0159474 -0.00679469 0)
(-0.0113184 -0.00663847 0)
(-0.00679359 -0.00639414 0)
(-0.0024255 -0.00606707 0)
(0.00173597 -0.00566477 0)
(0.00564489 -0.00519664 0)
(0.00926027 -0.00467373 0)
(0.012547 -0.00410837 0)
(0.0154767 -0.00351376 0)
(0.0180283 -0.00290346 0)
(0.0201885 -0.002291 0)
(0.0219518 -0.00168931 0)
(0.0233204 -0.00111033 0)
(0.0243042 -0.000564476 0)
(0.0249203 -6.01645e-05 0)
(0.0251913 0.000395314 0)
(0.0251446 0.000796917 0)
(0.024812 0.00114205 0)
(0.0242282 0.00142989 0)
(0.0234291 0.00166132 0)
(0.0224511 0.00183881 0)
(0.0213297 0.00196604 0)
(0.020099 0.00204769 0)
(0.0187904 0.00208907 0)
(0.0174323 0.00209586 0)
(0.0160499 0.00207387 0)
(0.0146644 0.00202881 0)
(0.0132936 0.0019661 0)
(0.0119515 0.00189073 0)
(0.0106489 0.00180709 0)
(0.00939355 0.00171883 0)
(0.00819082 0.00162867 0)
(0.00704431 0.00153819 0)
(0.00595674 0.00144757 0)
(0.00493085 0.00135536 0)
(0.00397057 0.00125819 0)
(0.00308212 0.00115071 0)
(0.0022751 0.0010258 0)
(0.0015631 0.000875462 0)
(0.000963513 0.000693011 0)
(0.000493459 0.000477624 0)
(0.000178824 0.000242265 0)
(1.70785e-05 4.33975e-05 0)
(1.18385e-05 -0.000105025 0)
(8.82785e-05 -0.000230637 0)
(0.000185809 -0.000288448 0)
(0.000290528 -0.000296277 0)
(0.00038202 -0.000270929 0)
(0.000451962 -0.000226023 0)
(0.000495056 -0.000171541 0)
(0.000508998 -0.000114084 0)
(0.000493366 -5.7476e-05 0)
(0.000448718 -3.42996e-06 0)
(0.000375863 4.78458e-05 0)
(0.000275341 9.71121e-05 0)
(0.000147188 0.000145781 0)
(-9.30095e-06 0.000195404 0)
(-0.000195725 0.00024767 0)
(-0.000414503 0.000304227 0)
(-0.000668847 0.000366574 0)
(-0.000962719 0.000436038 0)
(-0.00130076 0.000513789 0)
(-0.00168822 0.000600857 0)
(-0.0021309 0.000698168 0)
(-0.00263513 0.000806574 0)
(-0.00320771 0.00092689 0)
(-0.00385588 0.00105991 0)
(-0.00458733 0.00120643 0)
(-0.00541013 0.00136721 0)
(-0.00633271 0.00154304 0)
(-0.0073638 0.00173459 0)
(-0.00851233 0.00194249 0)
(-0.00978733 0.00216719 0)
(-0.0111978 0.00240893 0)
(-0.0127524 0.00266766 0)
(-0.0144593 0.00294298 0)
(-0.0163261 0.00323401 0)
(-0.018359 0.00353939 0)
(-0.0205629 0.00385713 0)
(-0.022941 0.00418457 0)
(-0.025494 0.00451838 0)
(-0.0282201 0.00485443 0)
(-0.0311148 0.00518787 0)
(-0.0341698 0.0055131 0)
(-0.0373736 0.00582385 0)
(-0.0407106 0.00611321 0)
(-0.0441616 0.0063738 0)
(-0.0477033 0.00659789 0)
(-0.0513086 0.00677756 0)
(-0.054947 0.00690491 0)
(-0.0585847 0.00697228 0)
(-0.0621854 0.00697246 0)
(-0.0657105 0.0068989 0)
(-0.0691199 0.00674594 0)
(-0.0723728 0.00650898 0)
(-0.0754284 0.00618467 0)
(-0.0782464 0.00577103 0)
(-0.0807878 0.00526757 0)
(-0.0830157 0.00467535 0)
(-0.0848957 0.00399705 0)
(-0.0863965 0.00323694 0)
(-0.0874903 0.00240087 0)
(-0.0881533 0.0014963 0)
(-0.0883658 0.000532137 0)
(-0.0881126 -0.000481384 0)
(-0.0873834 -0.00153294 0)
(-0.0861728 -0.00260929 0)
(-0.0844802 -0.00369671 0)
(-0.0823102 -0.00478054 0)
(-0.0796727 -0.00584543 0)
(-0.0765829 -0.00687551 0)
(-0.0730613 -0.00785471 0)
(-0.0691334 -0.00876703 0)
(-0.0648303 -0.00959686 0)
(-0.0601878 -0.0103293 0)
(-0.0552467 -0.0109506 0)
(-0.0500523 -0.0114485 0)
(-0.0446538 -0.0118126 0)
(-0.0391043 -0.0120348 0)
(-0.0334594 -0.0121096 0)
(-0.0277771 -0.0120344 0)
(-0.0221166 -0.0118099 0)
(-0.0165373 -0.01144 0)
(-0.0110978 -0.0109319 0)
(-0.00585496 -0.0102961 0)
(-0.000862395 -0.00954622 0)
(0.00383036 -0.00869843 0)
(0.008179 -0.00777123 0)
(0.0121454 -0.00678483 0)
(0.0156987 -0.00576044 0)
(0.0188153 -0.00471962 0)
(0.0214802 -0.00368357 0)
(0.0236866 -0.0026724 0)
(0.0254362 -0.00170444 0)
(0.0267388 -0.000795794 0)
(0.0276116 3.98514e-05 0)
(0.0280786 0.000792248 0)
(0.02817 0.00145437 0)
(0.0279204 0.00202225 0)
(0.0273678 0.00249497 0)
(0.0265525 0.00287441 0)
(0.0255155 0.00316488 0)
(0.0242974 0.0033727 0)
(0.0229373 0.0035057 0)
(0.0214719 0.00357273 0)
(0.0199347 0.00358327 0)
(0.0183553 0.00354693 0)
(0.0167595 0.00347313 0)
(0.015169 0.00337074 0)
(0.0136012 0.00324772 0)
(0.0120701 0.00311085 0)
(0.0105864 0.00296534 0)
(0.00915839 0.00281446 0)
(0.00779286 0.00265911 0)
(0.00649608 0.00249741 0)
(0.00527508 0.00232438 0)
(0.00413883 0.0021319 0)
(0.00309939 0.00190915 0)
(0.00217273 0.00164408 0)
(0.00137883 0.00132659 0)
(0.000737104 0.000954334 0)
(0.00028669 0.000541862 0)
(3.08106e-05 0.000148856 0)
(1.12167e-05 -0.000148977 0)
(8.08061e-05 -0.000316794 0)
(0.000163632 -0.000384998 0)
(0.000244866 -0.000383676 0)
(0.000304519 -0.000336963 0)
(0.000334809 -0.00026369 0)
(0.000331056 -0.000177441 0)
(0.000291427 -8.71412e-05 0)
(0.000215747 2.09695e-06 0)
(0.00010459 8.8072e-05 0)
(-4.14421e-05 0.000170673 0)
(-0.000222205 0.000251185 0)
(-0.000438305 0.000331741 0)
(-0.000691294 0.000414844 0)
(-0.000983761 0.000503122 0)
(-0.00131932 0.000599121 0)
(-0.00170255 0.000705202 0)
(-0.00213897 0.000823489 0)
(-0.00263491 0.000955878 0)
(-0.00319751 0.00110406 0)
(-0.00383457 0.00126957 0)
(-0.00455457 0.00145381 0)
(-0.00536658 0.00165813 0)
(-0.00628023 0.00188381 0)
(-0.00730565 0.00213209 0)
(-0.00845338 0.00240413 0)
(-0.00973435 0.00270102 0)
(-0.0111597 0.00302368 0)
(-0.0127406 0.0033728 0)
(-0.0144881 0.00374873 0)
(-0.016413 0.00415139 0)
(-0.0185251 0.00458014 0)
(-0.0208334 0.00503366 0)
(-0.0233455 0.00550981 0)
(-0.0260667 0.00600553 0)
(-0.0290004 0.00651676 0)
(-0.032147 0.00703831 0)
(-0.0355033 0.00756387 0)
(-0.0390628 0.00808597 0)
(-0.0428147 0.00859605 0)
(-0.0467438 0.00908452 0)
(-0.0508306 0.00954094 0)
(-0.0550508 0.00995416 0)
(-0.0593758 0.0103126 0)
(-0.063773 0.0106046 0)
(-0.0682059 0.0108185 0)
(-0.072635 0.0109433 0)
(-0.0770183 0.0109687 0)
(-0.081312 0.0108854 0)
(-0.0854716 0.0106859 0)
(-0.0894522 0.0103638 0)
(-0.0932099 0.00991492 0)
(-0.096702 0.00933695 0)
(-0.0998878 0.0086296 0)
(-0.102729 0.00779469 0)
(-0.105192 0.00683614 0)
(-0.107243 0.00575991 0)
(-0.108856 0.00457392 0)
(-0.110006 0.00328798 0)
(-0.110672 0.00191368 0)
(-0.11084 0.000464286 0)
(-0.110496 -0.00104544 0)
(-0.109634 -0.0025994 0)
(-0.10825 -0.00418005 0)
(-0.106345 -0.00576878 0)
(-0.103923 -0.00734605 0)
(-0.100995 -0.00889156 0)
(-0.0975761 -0.0103845 0)
(-0.0936846 -0.0118037 0)
(-0.0893449 -0.0131282 0)
(-0.0845862 -0.0143374 0)
(-0.0794426 -0.0154114 0)
(-0.073953 -0.0163319 0)
(-0.0681613 -0.017082 0)
(-0.0621157 -0.0176474 0)
(-0.0558687 -0.0180164 0)
(-0.0494765 -0.0181807 0)
(-0.0429981 -0.0181354 0)
(-0.0364949 -0.0178801 0)
(-0.0300293 -0.0174183 0)
(-0.0236644 -0.0167582 0)
(-0.017462 -0.0159121 0)
(-0.0114822 -0.0148967 0)
(-0.00578161 -0.0137326 0)
(-0.000412645 -0.0124434 0)
(0.00457781 -0.0110557 0)
(0.00914932 -0.00959793 0)
(0.0132687 -0.00809935 0)
(0.0169109 -0.00658951 0)
(0.0200591 -0.00509706 0)
(0.0227053 -0.00364896 0)
(0.0248502 -0.00226971 0)
(0.0265028 -0.00098049 0)
(0.0276803 0.000201386 0)
(0.028407 0.00126259 0)
(0.0287136 0.00219417 0)
(0.028636 0.00299151 0)
(0.028214 0.00365411 0)
(0.02749 0.00418523 0)
(0.0265077 0.00459139 0)
(0.0253107 0.00488182 0)
(0.0239414 0.00506777 0)
(0.0224399 0.00516188 0)
(0.0208431 0.00517753 0)
(0.0191841 0.00512825 0)
(0.0174921 0.00502711 0)
(0.0157917 0.00488616 0)
(0.0141038 0.0047159 0)
(0.0124453 0.00452469 0)
(0.0108302 0.00431813 0)
(0.00927023 0.00409847 0)
(0.00777608 0.00386403 0)
(0.00635845 0.00360878 0)
(0.00502942 0.00332231 0)
(0.00380373 0.00299048 0)
(0.00269984 0.00259722 0)
(0.0017408 0.00212807 0)
(0.000949656 0.00157636 0)
(0.000379932 0.000951773 0)
(4.23991e-05 0.000303988 0)
(9.39603e-06 -0.000187346 0)
(6.38496e-05 -0.000386689 0)
(0.000119711 -0.000455135 0)
(0.000162078 -0.000435021 0)
(0.000173056 -0.000358207 0)
(0.000146003 -0.000248788 0)
(7.73773e-05 -0.000123777 0)
(-3.3823e-05 5.85185e-06 0)
(-0.000187322 0.000134 0)
(-0.000382466 0.000258275 0)
(-0.000618914 0.000378947 0)
(-0.000897076 0.000498064 0)
(-0.0012184 0.000618731 0)
(-0.0015855 0.000744569 0)
(-0.00200224 0.000879333 0)
(-0.00247371 0.00102667 0)
(-0.00300613 0.00118997 0)
(-0.00360684 0.00137233 0)
(-0.00428415 0.00157652 0)
(-0.00504729 0.00180503 0)
(-0.00590634 0.00206015 0)
(-0.00687214 0.00234397 0)
(-0.00795622 0.00265845 0)
(-0.00917076 0.00300543 0)
(-0.0105284 0.00338663 0)
(-0.0120423 0.00380359 0)
(-0.0137258 0.00425763 0)
(-0.0155922 0.00474973 0)
(-0.0176547 0.0052804 0)
(-0.019926 0.00584954 0)
(-0.0224179 0.00645627 0)
(-0.0251407 0.00709875 0)
(-0.028103 0.00777402 0)
(-0.0313111 0.00847781 0)
(-0.0347682 0.00920441 0)
(-0.0384742 0.00994662 0)
(-0.0424249 0.0106956 0)
(-0.0466118 0.0114409 0)
(-0.0510214 0.0121707 0)
(-0.0556354 0.0128717 0)
(-0.0604302 0.0135294 0)
(-0.0653774 0.0141287 0)
(-0.0704436 0.0146537 0)
(-0.0755913 0.0150888 0)
(-0.0807796 0.0154185 0)
(-0.0859642 0.0156282 0)
(-0.0910993 0.0157045 0)
(-0.0961378 0.0156358 0)
(-0.101032 0.0154123 0)
(-0.105736 0.0150266 0)
(-0.110205 0.0144735 0)
(-0.114394 0.0137505 0)
(-0.118264 0.0128576 0)
(-0.121776 0.0117975 0)
(-0.124897 0.010575 0)
(-0.127596 0.00919758 0)
(-0.129844 0.00767472 0)
(-0.131618 0.00601802 0)
(-0.132896 0.00424102 0)
(-0.133663 0.00235902 0)
(-0.133902 0.000388982 0)
(-0.133604 -0.00165057 0)
(-0.132761 -0.00373965 0)
(-0.131368 -0.00585693 0)
(-0.129426 -0.00797986 0)
(-0.126937 -0.0100848 0)
(-0.123908 -0.012147 0)
(-0.12035 -0.0141414 0)
(-0.116279 -0.0160421 0)
(-0.111715 -0.0178233 0)
(-0.106683 -0.0194593 0)
(-0.101213 -0.0209254 0)
(-0.0953413 -0.0221981 0)
(-0.0891078 -0.0232556 0)
(-0.0825588 -0.0240788 0)
(-0.0757454 -0.0246517 0)
(-0.068723 -0.0249621 0)
(-0.0615515 -0.0250021 0)
(-0.0542938 -0.0247689 0)
(-0.0470155 -0.0242646 0)
(-0.0397835 -0.0234972 0)
(-0.0326649 -0.0224799 0)
(-0.0257258 -0.0212316 0)
(-0.0190303 -0.0197761 0)
(-0.0126385 -0.0181417 0)
(-0.00660599 -0.0163606 0)
(-0.00098234 -0.0144678 0)
(0.0041898 -0.0125001 0)
(0.00887553 -0.0104953 0)
(0.0130483 -0.00849049 0)
(0.0166904 -0.00652156 0)
(0.0197931 -0.00462173 0)
(0.0223566 -0.00282079 0)
(0.0243897 -0.00114424 0)
(0.0259095 0.000387236 0)
(0.0269406 0.00175822 0)
(0.0275142 0.00295872 0)
(0.0276669 0.00398411 0)
(0.0274397 0.00483484 0)
(0.0268764 0.00551602 0)
(0.0260224 0.00603675 0)
(0.0249233 0.00640942 0)
(0.0236237 0.00664888 0)
(0.0221661 0.00677159 0)
(0.0205901 0.0067948 0)
(0.0189314 0.00673567 0)
(0.0172218 0.00661048 0)
(0.0154889 0.00643379 0)
(0.0137564 0.00621755 0)
(0.0120444 0.00597032 0)
(0.0103703 0.00569633 0)
(0.00874975 0.00539477 0)
(0.0071978 0.00505924 0)
(0.00573018 0.00467762 0)
(0.00436482 0.00423278 0)
(0.00312335 0.00370438 0)
(0.0020327 0.00307241 0)
(0.00112058 0.00232283 0)
(0.000454067 0.00145498 0)
(5.14197e-05 0.000499996 0)
(6.74964e-06 -0.000216226 0)
(3.96539e-05 -0.000430918 0)
(5.8513e-05 -0.000486034 0)
(4.91208e-05 -0.000435439 0)
(-2.91241e-06 -0.000318618 0)
(-0.000102467 -0.000164704 0)
(-0.000251476 6.22609e-06 0)
(-0.000449815 0.000181587 0)
(-0.0006966 0.000354733 0)
(-0.000991064 0.000523494 0)
(-0.0013332 0.00068889 0)
(-0.00172412 0.000854049 0)
(-0.00216632 0.00102334 0)
(-0.00266374 0.00120174 0)
(-0.00322181 0.00139433 0)
(-0.00384737 0.00160605 0)
(-0.0045486 0.0018415 0)
(-0.00533494 0.0021049 0)
(-0.00621696 0.00240003 0)
(-0.00720629 0.00273035 0)
(-0.00831552 0.00309899 0)
(-0.00955806 0.00350882 0)
(-0.0109481 0.00396248 0)
(-0.0125005 0.00446238 0)
(-0.0142305 0.0050107 0)
(-0.0161538 0.00560923 0)
(-0.0182858 0.00625934 0)
(-0.0206421 0.00696176 0)
(-0.0232371 0.00771641 0)
(-0.0260846 0.00852218 0)
(-0.0291965 0.00937671 0)
(-0.0325825 0.0102762 0)
(-0.0362496 0.0112149 0)
(-0.0402012 0.0121856 0)
(-0.0444368 0.0131788 0)
(-0.0489511 0.0141828 0)
(-0.0537338 0.0151841 0)
(-0.0587691 0.0161672 0)
(-0.0640356 0.0171147 0)
(-0.0695064 0.0180082 0)
(-0.0751491 0.0188279 0)
(-0.0809264 0.0195538 0)
(-0.086797 0.020166 0)
(-0.0927161 0.020645 0)
(-0.0986364 0.0209729 0)
(-0.104509 0.0211333 0)
(-0.110285 0.0211121 0)
(-0.115917 0.0208978 0)
(-0.121355 0.0204816 0)
(-0.126557 0.0198579 0)
(-0.131478 0.0190238 0)
(-0.136079 0.0179796 0)
(-0.140323 0.0167284 0)
(-0.144177 0.015276 0)
(-0.147611 0.0136307 0)
(-0.150598 0.011803 0)
(-0.153112 0.00980561 0)
(-0.155132 0.00765318 0)
(-0.156638 0.00536218 0)
(-0.157615 0.00295077 0)
(-0.158048 0.000438748 0)
(-0.157924 -0.00215252 0)
(-0.157235 -0.00480014 0)
(-0.155974 -0.00747973 0)
(-0.154136 -0.0101655 0)
(-0.151721 -0.0128302 0)
(-0.148731 -0.0154456 0)
(-0.145172 -0.0179822 0)
(-0.141056 -0.0204098 0)
(-0.136397 -0.0226978 0)
(-0.131214 -0.0248155 0)
(-0.125534 -0.0267326 0)
(-0.119386 -0.0284202 0)
(-0.112809 -0.029851 0)
(-0.105844 -0.0310002 0)
(-0.0985411 -0.0318465 0)
(-0.0909537 -0.0323727 0)
(-0.0831421 -0.0325666 0)
(-0.0751709 -0.0324218 0)
(-0.0671083 -0.0319378 0)
(-0.0590256 -0.031121 0)
(-0.0509955 -0.0299846 0)
(-0.0430909 -0.0285483 0)
(-0.0353836 -0.0268387 0)
(-0.0279423 -0.0248877 0)
(-0.0208319 -0.0227328 0)
(-0.0141115 -0.0204152 0)
(-0.00783347 -0.017979 0)
(-0.00204263 -0.01547 0)
(0.00322479 -0.012934 0)
(0.00794157 -0.010416 0)
(0.0120898 -0.00795821 0)
(0.0156609 -0.00559962 0)
(0.0186556 -0.00337451 0)
(0.0210836 -0.00131182 0)
(0.0229626 0.000565477 0)
(0.0243183 0.00224073 0)
(0.0251827 0.00370376 0)
(0.0255935 0.00495068 0)
(0.0255929 0.00598359 0)
(0.025226 0.00680991 0)
(0.0245395 0.00744172 0)
(0.0235808 0.00789479 0)
(0.0223962 0.00818761 0)
(0.0210301 0.00834038 0)
(0.019524 0.00837384 0)
(0.0179159 0.00830826 0)
(0.0162399 0.00816224 0)
(0.0145263 0.0079516 0)
(0.0128015 0.00768822 0)
(0.0110889 0.00737889 0)
(0.00940945 0.0070243 0)
(0.0077831 0.00661831 0)
(0.00622983 0.00614764 0)
(0.00477147 0.00559242 0)
(0.0034335 0.00492778 0)
(0.00224735 0.00412695 0)
(0.00124594 0.00316606 0)
(0.000507861 0.00203019 0)
(5.78414e-05 0.000726915 0)
(3.54396e-06 -0.00023257 0)
(9.6843e-06 -0.000441993 0)
(-1.69564e-05 -0.000466894 0)
(-8.908e-05 -0.000372216 0)
(-0.000216511 -0.000204394 0)
(-0.000401755 2.91013e-06 0)
(-0.000644687 0.000227115 0)
(-0.000943811 0.000454606 0)
(-0.00129752 0.000678765 0)
(-0.00170496 0.000898163 0)
(-0.00216653 0.00111503 0)
(-0.00268424 0.00133396 0)
(-0.00326188 0.00156092 0)
(-0.00390496 0.0018025 0)
(-0.00462078 0.00206537 0)
(-0.00541826 0.00235594 0)
(-0.00630784 0.00268019 0)
(-0.00730139 0.00304361 0)
(-0.00841204 0.00345116 0)
(-0.00965407 0.00390733 0)
(-0.0110428 0.0044162 0)
(-0.0125945 0.00498146 0)
(-0.0143261 0.00560645 0)
(-0.0162552 0.0062941 0)
(-0.0183995 0.00704686 0)
(-0.0207771 0.0078666 0)
(-0.0234055 0.00875435 0)
(-0.0263014 0.00971014 0)
(-0.0294804 0.0107327 0)
(-0.032956 0.0118191 0)
(-0.0367394 0.0129647 0)
(-0.0408382 0.0141625 0)
(-0.0452563 0.0154033 0)
(-0.0499928 0.0166753 0)
(-0.0550417 0.017964 0)
(-0.060391 0.0192524 0)
(-0.0660228 0.0205213 0)
(-0.0719131 0.0217492 0)
(-0.0780319 0.022913 0)
(-0.0843435 0.0239886 0)
(-0.0908075 0.0249516 0)
(-0.0973792 0.0257776 0)
(-0.104011 0.0264436 0)
(-0.110653 0.0269279 0)
(-0.117255 0.0272114 0)
(-0.123767 0.0272776 0)
(-0.130139 0.0271133 0)
(-0.136325 0.0267087 0)
(-0.142279 0.0260572 0)
(-0.147961 0.0251559 0)
(-0.15333 0.0240051 0)
(-0.158351 0.022608 0)
(-0.162992 0.0209709 0)
(-0.167222 0.0191026 0)
(-0.171015 0.0170139 0)
(-0.174345 0.0147183 0)
(-0.177189 0.0122306 0)
(-0.179526 0.00956783 0)
(-0.181339 0.00674853 0)
(-0.182608 0.00379291 0)
(-0.183319 0.000722797 0)
(-0.183459 -0.00243834 0)
(-0.183014 -0.00566538 0)
(-0.181976 -0.00893155 0)
(-0.180336 -0.0122084 0)
(-0.17809 -0.0154657 0)
(-0.175236 -0.0186718 0)
(-0.171774 -0.0217935 0)
(-0.167709 -0.0247964 0)
(-0.163051 -0.0276452 0)
(-0.157813 -0.0303039 0)
(-0.152015 -0.032737 0)
(-0.145681 -0.0349092 0)
(-0.138844 -0.0367871 0)
(-0.131541 -0.0383395 0)
(-0.123817 -0.0395387 0)
(-0.115724 -0.0403612 0)
(-0.107321 -0.0407892 0)
(-0.0986733 -0.0408109 0)
(-0.0898511 -0.0404219 0)
(-0.0809298 -0.0396255 0)
(-0.0719877 -0.0384332 0)
(-0.0631051 -0.0368647 0)
(-0.0543623 -0.0349478 0)
(-0.0458381 -0.0327177 0)
(-0.0376075 -0.0302164 0)
(-0.0297408 -0.0274912 0)
(-0.0223013 -0.0245935 0)
(-0.0153448 -0.0215771 0)
(-0.0089179 -0.0184971 0)
(-0.00305769 -0.0154077 0)
(0.00220865 -0.0123609 0)
(0.00686403 -0.00940533 0)
(0.0109013 -0.00658461 0)
(0.014323 -0.00393668 0)
(0.0171406 -0.00149288 0)
(0.019374 0.000722583 0)
(0.0210506 0.00269288 0)
(0.0222045 0.0044086 0)
(0.022875 0.00586749 0)
(0.0231058 0.00707393 0)
(0.0229437 0.00803829 0)
(0.0224371 0.00877592 0)
(0.0216346 0.00930615 0)
(0.0205842 0.00965109 0)
(0.0193319 0.00983429 0)
(0.0179211 0.00987945 0)
(0.0163916 0.00980894 0)
(0.0147798 0.0096424 0)
(0.0131182 0.00939522 0)
(0.0114363 0.0090771 0)
(0.00976053 0.00869074 0)
(0.00811616 0.00823076 0)
(0.00652791 0.00768317 0)
(0.0050221 0.00702558 0)
(0.00362862 0.00622836 0)
(0.00238375 0.00525712 0)
(0.00132558 0.00407654 0)
(0.000541648 0.00265517 0)
(6.17778e-05 0.000974785 0)
(-2.17591e-07 -0.000233759 0)
(-2.51673e-05 -0.000413521 0)
(-0.000104622 -0.000388604 0)
(-0.000249239 -0.000234365 0)
(-0.000462917 -3.48764e-06 0)
(-0.00074546 0.000266638 0)
(-0.00109428 0.000551691 0)
(-0.0015063 0.000837779 0)
(-0.00197914 0.001119 0)
(-0.00251187 0.00139531 0)
(-0.00310548 0.00167067 0)
(-0.00376309 0.0019516 0)
(-0.00449 0.00224605 0)
(-0.00529365 0.00256251 0)
(-0.00618348 0.00290948 0)
(-0.00717082 0.00329506 0)
(-0.00826871 0.00372679 0)
(-0.00949175 0.00421156 0)
(-0.0108559 0.00475559 0)
(-0.0123784 0.00536452 0)
(-0.0140775 0.00604339 0)
(-0.0159724 0.00679672 0)
(-0.0180829 0.00762844 0)
(-0.0204291 0.00854184 0)
(-0.0230313 0.00953942 0)
(-0.0259095 0.0106227 0)
(-0.0290825 0.0117918 0)
(-0.0325679 0.0130455 0)
(-0.0363811 0.0143804 0)
(-0.0405345 0.015791 0)
(-0.045037 0.0172689 0)
(-0.0498927 0.0188031 0)
(-0.0551009 0.0203794 0)
(-0.0606547 0.0219803 0)
(-0.066541 0.0235855 0)
(-0.0727401 0.0251716 0)
(-0.0792257 0.0267129 0)
(-0.085965 0.0281817 0)
(-0.0929196 0.0295495 0)
(-0.100046 0.030787 0)
(-0.107298 0.0318659 0)
(-0.114623 0.0327589 0)
(-0.121972 0.0334412 0)
(-0.129293 0.0338907 0)
(-0.136533 0.0340886 0)
(-0.143644 0.03402 0)
(-0.150578 0.0336737 0)
(-0.157291 0.0330425 0)
(-0.163741 0.032123 0)
(-0.169891 0.0309152 0)
(-0.175705 0.0294224 0)
(-0.18115 0.0276509 0)
(-0.186196 0.0256095 0)
(-0.190816 0.0233093 0)
(-0.194985 0.0207638 0)
(-0.198679 0.0179879 0)
(-0.201876 0.0149986 0)
(-0.204556 0.0118145 0)
(-0.206701 0.00845558 0)
(-0.208293 0.00494366 0)
(-0.209316 0.00130203 0)
(-0.209756 -0.00244427 0)
(-0.209598 -0.00626847 0)
(-0.208831 -0.010142 0)
(-0.207445 -0.0140342 0)
(-0.205431 -0.0179128 0)
(-0.202782 -0.0217431 0)
(-0.199494 -0.0254889 0)
(-0.195566 -0.0291121 0)
(-0.191001 -0.032573 0)
(-0.185805 -0.0358309 0)
(-0.179991 -0.0388445 0)
(-0.173575 -0.0415726 0)
(-0.166581 -0.043975 0)
(-0.159041 -0.0460134 0)
(-0.150993 -0.0476525 0)
(-0.142483 -0.0488613 0)
(-0.133568 -0.0496146 0)
(-0.12431 -0.0498938 0)
(-0.114781 -0.0496881 0)
(-0.105058 -0.048996 0)
(-0.0952244 -0.0478252 0)
(-0.085368 -0.0461935 0)
(-0.0755785 -0.0441288 0)
(-0.0659455 -0.0416681 0)
(-0.0565565 -0.0388572 0)
(-0.0474948 -0.0357491 0)
(-0.0388371 -0.0324025 0)
(-0.0306522 -0.02888 0)
(-0.0229991 -0.0252461 0)
(-0.0159267 -0.0215655 0)
(-0.00947244 -0.0179007 0)
(-0.00366254 -0.0143107 0)
(0.00148784 -0.0108497 0)
(0.00597429 -0.00756533 0)
(0.00980241 -0.00449808 0)
(0.0129871 -0.00168054 0)
(0.0155516 0.000862998 0)
(0.0175265 0.00311667 0)
(0.0189487 0.00507288 0)
(0.0198602 0.00673189 0)
(0.0203071 0.00810116 0)
(0.0203381 0.00919449 0)
(0.0200033 0.0100309 0)
(0.0193533 0.0106332 0)
(0.0184374 0.011027 0)
(0.0173034 0.0112387 0)
(0.0159962 0.0112938 0)
(0.0145574 0.0112155 0)
(0.0130255 0.0110228 0)
(0.0114356 0.0107284 0)
(0.00981997 0.0103372 0)
(0.00820917 0.009845 0)
(0.00663305 0.00923746 0)
(0.00512282 0.00848984 0)
(0.00371315 0.00756768 0)
(0.00244514 0.00642857 0)
(0.00136175 0.00502501 0)
(0.000556682 0.00330826 0)
(6.3428e-05 0.00123414 0)
(-4.56323e-06 -0.000217655 0)
(-6.46179e-05 -0.00033975 0)
(-0.000203341 -0.000243079 0)
(-0.000429076 -1.21827e-05 0)
(-0.000738771 0.000294772 0)
(-0.001129 0.000637643 0)
(-0.00159443 0.000991346 0)
(-0.00213022 0.00134262 0)
(-0.00273322 0.00168712 0)
(-0.00340256 0.00202688 0)
(-0.00413998 0.00236823 0)
(-0.00494996 0.00272013 0)
(-0.00583962 0.00309289 0)
(-0.00681859 0.00349727 0)
(-0.00789885 0.00394384 0)
(-0.00909446 0.0044426 0)
(-0.0104214 0.0050028 0)
(-0.0118972 0.00563283 0)
(-0.013541 0.00634029 0)
(-0.0153731 0.00713195 0)
(-0.017415 0.0080138 0)
(-0.0196886 0.00899108 0)
(-0.0222167 0.0100681 0)
(-0.0250218 0.0112483 0)
(-0.0281263 0.0125337 0)
(-0.0315514 0.0139249 0)