/*--------------------------------*- C++ -*----------------------------------*\
| =========                 |                                                 |
| \\      /  F ield         | OpenFOAM: The Open Source CFD Toolbox           |
|  \\    /   O peration     | Version:  2406                                  |
|   \\  /    A nd           | Website:  www.openfoam.com                      |
|    \\/     M anipulation  |                                                 |
\*---------------------------------------------------------------------------*/
FoamFile
{
    version     2.0;
    format      ascii;
    arch        "LSB;label=32;scalar=64";
    class       surfaceScalarField;
    location    "3.5";
    object      phi;
}
// * * * * * * * * * * * * * * * * * * * * * * * * * * * * * * * * * * * * * //

dimensions      [0 3 -1 0 0 0 0];

oriented        oriented;

internalField   nonuniform List<scalar> 
32512
(
1.7704e-09
-1.75983e-09
-8.23426e-10
2.5938e-09
-9.27937e-09
8.45579e-09
-2.33336e-08
1.40541e-08
-4.20399e-08
1.87064e-08
-6.4379e-08
2.23392e-08
-8.94474e-08
2.50683e-08
-1.165e-07
2.70522e-08
-1.44946e-07
2.84463e-08
-1.74333e-07
2.93869e-08
-2.04321e-07
2.99879e-08
-2.34662e-07
3.03413e-08
-2.65181e-07
3.05191e-08
-2.95758e-07
3.05763e-08
-3.26312e-07
3.05539e-08
-3.56793e-07
3.0481e-08
-3.8717e-07
3.03776e-08
-4.17427e-07
3.02566e-08
-4.47552e-07
3.01256e-08
-4.77541e-07
2.99888e-08
-5.07389e-07
2.9848e-08
-5.37093e-07
2.97036e-08
-5.66648e-07
2.95551e-08
-5.96049e-07
2.94012e-08
-6.2529e-07
2.92408e-08
-6.54363e-07
2.90727e-08
-6.83258e-07
2.88956e-08
-7.11967e-07
2.87084e-08
-7.40477e-07
2.85102e-08
-7.68777e-07
2.83e-08
-7.96854e-07
2.80768e-08
-8.24694e-07
2.78399e-08
-8.52282e-07
2.75884e-08
-8.79604e-07
2.73216e-08
-9.06642e-07
2.70386e-08
-9.33381e-07
2.67388e-08
-9.59802e-07
2.64213e-08
-9.85888e-07
2.60854e-08
-1.01162e-06
2.57303e-08
-1.03697e-06
2.53553e-08
-1.06193e-06
2.49597e-08
-1.08648e-06
2.45428e-08
-1.11058e-06
2.41039e-08
-1.13422e-06
2.3642e-08
-1.15738e-06
2.31567e-08
-1.18003e-06
2.26471e-08
-1.20214e-06
2.21127e-08
-1.22369e-06
2.15529e-08
-1.24466e-06
2.0967e-08
-1.26501e-06
2.03544e-08
-1.28473e-06
1.97145e-08
-1.30377e-06
1.90469e-08
-1.32212e-06
1.83512e-08
-1.33975e-06
1.76268e-08
-1.35663e-06
1.68735e-08
-1.37272e-06
1.6091e-08
-1.388e-06
1.5279e-08
-1.40243e-06
1.44374e-08
-1.416e-06
1.35662e-08
-1.42866e-06
1.26652e-08
-1.4404e-06
1.17345e-08
-1.45117e-06
1.07745e-08
-1.46096e-06
9.78526e-09
-1.46973e-06
8.76725e-09
-1.47745e-06
7.72094e-09
-1.48409e-06
6.6469e-09
-1.48964e-06
5.54583e-09
-1.49406e-06
4.41853e-09
-1.49732e-06
3.26592e-09
-1.49941e-06
2.08909e-09
-1.5003e-06
8.89359e-10
-1.49997e-06
-3.32796e-10
-1.49839e-06
-1.57464e-09
-1.49556e-06
-2.83561e-09
-1.49145e-06
-4.11379e-09
-1.48604e-06
-5.40745e-09
-1.47932e-06
-6.71471e-09
-1.47129e-06
-8.03361e-09
-1.46193e-06
-9.36207e-09
-1.45123e-06
-1.06979e-08
-1.43919e-06
-1.2039e-08
-1.42581e-06
-1.33828e-08
-1.41108e-06
-1.47272e-08
-1.39501e-06
-1.60695e-08
-1.3776e-06
-1.74075e-08
-1.35887e-06
-1.87384e-08
-1.33881e-06
-2.00598e-08
-1.31744e-06
-2.13692e-08
-1.29477e-06
-2.26639e-08
-1.27083e-06
-2.39415e-08
-1.24563e-06
-2.51995e-08
-1.2192e-06
-2.64355e-08
-1.19155e-06
-2.7647e-08
-1.16272e-06
-2.88318e-08
-1.13273e-06
-2.99876e-08
-1.10162e-06
-3.11124e-08
-1.06941e-06
-3.22042e-08
-1.03615e-06
-3.3261e-08
-1.00187e-06
-3.42813e-08
-9.66607e-07
-3.52634e-08
-9.30401e-07
-3.62059e-08
-8.93294e-07
-3.71075e-08
-8.55327e-07
-3.79671e-08
-8.16543e-07
-3.87833e-08
-7.76988e-07
-3.95551e-08
-7.36707e-07
-4.0281e-08
-6.95748e-07
-4.09589e-08
-6.54162e-07
-4.15859e-08
-6.12004e-07
-4.21578e-08
-5.69336e-07
-4.2668e-08
-5.26229e-07
-4.3107e-08
-4.82768e-07
-4.34612e-08
-4.39057e-07
-4.37109e-08
-3.95228e-07
-4.38296e-08
-3.51447e-07
-4.37811e-08
-3.07929e-07
-4.35181e-08
-2.64949e-07
-4.29796e-08
-2.22861e-07
-4.20886e-08
-1.8211e-07
-4.07508e-08
-1.43257e-07
-3.88523e-08
-1.06997e-07
-3.62604e-08
-7.41701e-08
-3.28269e-08
-4.57706e-08
-2.83995e-08
-2.29177e-08
-2.2853e-08
-6.74806e-09
-1.61697e-08
1.89886e-09
-8.64697e-09
3.2376e-09
-1.33878e-09
3.23755e-09
-2.59982e-09
8.39958e-10
-1.61487e-08
1.61427e-08
-4.29417e-08
3.52487e-08
-8.22084e-08
5.33205e-08
-1.32235e-07
6.87325e-08
-1.91046e-07
8.11503e-08
-2.56744e-07
9.07667e-08
-3.27661e-07
9.79685e-08
-4.02401e-07
1.03187e-07
-4.79845e-07
1.06831e-07
-5.59117e-07
1.0926e-07
-6.39553e-07
1.10777e-07
-7.20663e-07
1.11629e-07
-8.02094e-07
1.12007e-07
-8.83599e-07
1.1206e-07
-9.65013e-07
1.11895e-07
-1.04622e-06
1.11588e-07
-1.12716e-06
1.11192e-07
-1.20777e-06
1.10739e-07
-1.28803e-06
1.10248e-07
-1.36791e-06
1.0973e-07
-1.4474e-06
1.09188e-07
-1.52647e-06
1.08623e-07
-1.6051e-06
1.08033e-07
-1.68327e-06
1.07415e-07
-1.76096e-06
1.06765e-07
-1.83815e-06
1.06079e-07
-1.91479e-06
1.05355e-07
-1.99087e-06
1.04588e-07
-2.06635e-06
1.03776e-07
-2.14119e-06
1.02916e-07
-2.21535e-06
1.02005e-07
-2.2888e-06
1.01039e-07
-2.3615e-06
1.00017e-07
-2.4334e-06
9.89351e-08
-2.50445e-06
9.77915e-08
-2.57461e-06
9.65832e-08
-2.64383e-06
9.53077e-08
-2.71206e-06
9.39625e-08
-2.77925e-06
9.25448e-08
-2.84535e-06
9.10523e-08
-2.91029e-06
8.94823e-08
-2.97401e-06
8.78324e-08
-3.03647e-06
8.61003e-08
-3.0976e-06
8.42835e-08
-3.15733e-06
8.23796e-08
-3.2156e-06
8.03863e-08
-3.27235e-06
7.83016e-08
-3.32751e-06
7.61235e-08
-3.38101e-06
7.38498e-08
-3.43277e-06
7.14789e-08
-3.48273e-06
6.90091e-08
-3.53082e-06
6.64387e-08
-3.57696e-06
6.37666e-08
-3.62108e-06
6.09916e-08
-3.6631e-06
5.81127e-08
-3.70295e-06
5.51292e-08
-3.74055e-06
5.20408e-08
-3.77583e-06
4.88473e-08
-3.80872e-06
4.55486e-08
-3.83913e-06
4.21454e-08
-3.86699e-06
3.86382e-08
-3.89224e-06
3.50282e-08
-3.91478e-06
3.13167e-08
-3.93457e-06
2.75056e-08
-3.95152e-06
2.35969e-08
-3.96557e-06
1.95932e-08
-3.97665e-06
1.54975e-08
-3.98469e-06
1.13131e-08
-3.98965e-06
7.04379e-09
-3.99145e-06
2.69434e-09
-3.99005e-06
-1.73231e-09
-3.9854e-06
-6.23097e-09
-3.97744e-06
-1.07941e-08
-3.96613e-06
-1.54176e-08
-3.95145e-06
-2.00951e-08
-3.93334e-06
-2.482e-08
-3.91179e-06
-2.95853e-08
-3.88677e-06
-3.43837e-08
-3.85826e-06
-3.92079e-08
-3.82625e-06
-4.40498e-08
-3.79073e-06
-4.89013e-08
-3.7517e-06
-5.37542e-08
-3.70917e-06
-5.85999e-08
-3.66315e-06
-6.34296e-08
-3.61365e-06
-6.82348e-08
-3.56071e-06
-7.30064e-08
-3.50434e-06
-7.77356e-08
-3.44459e-06
-8.24133e-08
-3.3815e-06
-8.7031e-08
-3.31512e-06
-9.15798e-08
-3.24551e-06
-9.60511e-08
-3.17272e-06
-1.00437e-07
-3.09682e-06
-1.04728e-07
-3.01789e-06
-1.08918e-07
-2.936e-06
-1.12999e-07
-2.85124e-06
-1.16964e-07
-2.7637e-06
-1.20806e-07
-2.67346e-06
-1.24519e-07
-2.58063e-06
-1.28097e-07
-2.4853e-06
-1.31535e-07
-2.38758e-06
-1.34828e-07
-2.28757e-06
-1.37971e-07
-2.1854e-06
-1.40959e-07
-2.08117e-06
-1.43787e-07
-1.975e-06
-1.46449e-07
-1.86702e-06
-1.48936e-07
-1.75737e-06
-1.51234e-07
-1.6462e-06
-1.53327e-07
-1.53368e-06
-1.55188e-07
-1.42001e-06
-1.5678e-07
-1.30542e-06
-1.5805e-07
-1.19021e-06
-1.58924e-07
-1.07473e-06
-1.59304e-07
-9.59458e-07
-1.59056e-07
-8.44963e-07
-1.58013e-07
-7.31984e-07
-1.55959e-07
-6.21444e-07
-1.52628e-07
-5.14492e-07
-1.47703e-07
-4.12531e-07
-1.40814e-07
-3.17245e-07
-1.31546e-07
-2.30606e-07
-1.19466e-07
-1.54827e-07
-1.04178e-07
-9.225e-08
-8.54303e-08
-4.50702e-08
-6.33496e-08
-1.48191e-08
-3.88981e-08
-1.31156e-09
-1.48464e-08
1.92599e-09
-8.5613e-09
9.4011e-09
-3.55684e-08
4.31497e-08
-8.09794e-08
8.06598e-08
-1.43375e-07
1.15716e-07
-2.20548e-07
1.45905e-07
-3.10018e-07
1.70619e-07
-4.09349e-07
1.90098e-07
-5.16335e-07
2.04954e-07
-6.29074e-07
2.15926e-07
-7.45991e-07
2.23748e-07
-8.65824e-07
2.29093e-07
-9.87589e-07
2.32542e-07
-1.11054e-06
2.3458e-07
-1.23413e-06
2.35593e-07
-1.35795e-06
2.35883e-07
-1.48173e-06
2.35675e-07
-1.60527e-06
2.35131e-07
-1.72844e-06
2.34364e-07
-1.85115e-06
2.33448e-07
-1.97334e-06
2.3243e-07
-2.09494e-06
2.31334e-07
-2.21592e-06
2.30174e-07
-2.33625e-06
2.28952e-07
-2.45589e-06
2.27669e-07
-2.57479e-06
2.26319e-07
-2.69293e-06
2.24897e-07
-2.81024e-06
2.23396e-07
-2.9267e-06
2.21809e-07
-3.04224e-06
2.20132e-07
-3.15682e-06
2.18356e-07
-3.27038e-06
2.16477e-07
-3.38287e-06
2.14489e-07
-3.49421e-06
2.12386e-07
-3.60436e-06
2.10163e-07
-3.71324e-06
2.07815e-07
-3.82078e-06
2.05335e-07
-3.92692e-06
2.0272e-07
-4.03157e-06
1.99964e-07
-4.13467e-06
1.97061e-07
-4.23613e-06
1.94007e-07
-4.33588e-06
1.90796e-07
-4.43382e-06
1.87424e-07
-4.52987e-06
1.83885e-07
-4.62395e-06
1.80175e-07
-4.71595e-06
1.76289e-07
-4.8058e-06
1.72222e-07
-4.89338e-06
1.6797e-07
-4.97861e-06
1.63529e-07
-5.06138e-06
1.58894e-07
-5.14159e-06
1.54062e-07
-5.21914e-06
1.49029e-07
-5.29392e-06
1.43792e-07
-5.36583e-06
1.38347e-07
-5.43476e-06
1.32694e-07
-5.50059e-06
1.26828e-07
-5.56323e-06
1.2075e-07
-5.62256e-06
1.14456e-07
-5.67846e-06
1.07948e-07
-5.73084e-06
1.01224e-07
-5.77958e-06
9.42843e-08
-5.82456e-06
8.71312e-08
-5.86569e-06
7.97656e-08
-5.90285e-06
7.219e-08
-5.93594e-06
6.44075e-08
-5.96486e-06
5.64219e-08
-5.9895e-06
4.82376e-08
-6.00977e-06
3.98601e-08
-6.02556e-06
3.12955e-08
-6.0368e-06
2.25507e-08
-6.04339e-06
1.36336e-08
-6.04525e-06
4.55319e-09
-6.0423e-06
-4.6818e-09
-6.03447e-06
-1.40619e-08
-6.02169e-06
-2.35741e-08
-6.0039e-06
-3.32074e-08
-5.98105e-06
-4.29491e-08
-5.95308e-06
-5.27859e-08
-5.91996e-06
-6.27037e-08
-5.88166e-06
-7.26875e-08
-5.83814e-06
-8.27221e-08
-5.7894e-06
-9.27913e-08
-5.73542e-06
-1.02879e-07
-5.67621e-06
-1.12968e-07
-5.61177e-06
-1.2304e-07
-5.54212e-06
-1.33079e-07
-5.46729e-06
-1.43066e-07
-5.38731e-06
-1.52984e-07
-5.30224e-06
-1.62813e-07
-5.21211e-06
-1.72537e-07
-5.117e-06
-1.82138e-07
-5.01699e-06
-1.91597e-07
-4.91214e-06
-2.00897e-07
-4.80256e-06
-2.10021e-07
-4.68833e-06
-2.18953e-07
-4.56958e-06
-2.27676e-07
-4.4464e-06
-2.36176e-07
-4.31892e-06
-2.44439e-07
-4.18728e-06
-2.52449e-07
-4.0516e-06
-2.60195e-07
-3.91204e-06
-2.67664e-07
-3.76873e-06
-2.74846e-07
-3.62182e-06
-2.81729e-07
-3.47149e-06
-2.88303e-07
-3.31789e-06
-2.94557e-07
-3.1612e-06
-3.00479e-07
-3.0016e-06
-3.06052e-07
-2.83928e-06
-3.11258e-07
-2.67444e-06
-3.16067e-07
-2.50733e-06
-3.20439e-07
-2.3382e-06
-3.24317e-07
-2.16737e-06
-3.27618e-07
-1.99519e-06
-3.30228e-07
-1.82212e-06
-3.31993e-07
-1.64872e-06
-3.32704e-07
-1.47569e-06
-3.32089e-07
-1.3039e-06
-3.298e-07
-1.13445e-06
-3.25405e-07
-9.68705e-07
-3.18376e-07
-8.08314e-07
-3.08094e-07
-6.55274e-07
-2.93853e-07
-5.1193e-07
-2.7489e-07
-3.80955e-07
-2.50441e-07
-2.65274e-07
-2.19859e-07
-1.67886e-07
-1.82818e-07
-9.15454e-08
-1.3969e-07
-3.82424e-08
-9.22011e-08
-8.41871e-09
-4.46701e-08
-6.49268e-09
-1.4388e-08
2.3789e-08
-5.4371e-08
8.31324e-08
-1.17391e-07
1.4368e-07
-2.00834e-07
1.9916e-07
-3.0187e-07
2.46941e-07
-4.17601e-07
2.8635e-07
-5.45245e-07
3.17743e-07
-6.8227e-07
3.41978e-07
-8.26461e-07
3.60116e-07
-9.75954e-07
3.73241e-07
-1.12923e-06
3.82367e-07
-1.28507e-06
3.88387e-07
-1.44255e-06
3.9206e-07
-1.60096e-06
3.94002e-07
-1.75978e-06
3.94699e-07
-1.91862e-06
3.9452e-07
-2.07723e-06
3.93736e-07
-2.2354e-06
3.92537e-07
-2.39301e-06
3.91052e-07
-2.54994e-06
3.89364e-07
-2.70613e-06
3.8752e-07
-2.8615e-06
3.85548e-07
-3.01601e-06
3.83457e-07
-3.16959e-06
3.81248e-07
-3.32218e-06
3.78918e-07
-3.47375e-06
3.76458e-07
-3.62421e-06
3.7386e-07
-3.77352e-06
3.71115e-07
-3.9216e-06
3.68211e-07
-4.06838e-06
3.65142e-07
-4.2138e-06
3.61896e-07
-4.35778e-06
3.58465e-07
-4.50023e-06
3.54841e-07
-4.64108e-06
3.51014e-07
-4.78024e-06
3.46977e-07
-4.91763e-06
3.42721e-07
-5.05315e-06
3.38237e-07
-5.1867e-06
3.33517e-07
-5.31819e-06
3.28553e-07
-5.44752e-06
3.23338e-07
-5.57459e-06
3.17861e-07
-5.69928e-06
3.12117e-07
-5.82149e-06
3.06096e-07
-5.94111e-06
2.99791e-07
-6.05801e-06
2.93195e-07
-6.17209e-06
2.863e-07
-6.28322e-06
2.79099e-07
-6.39128e-06
2.71586e-07
-6.49614e-06
2.63753e-07
-6.59767e-06
2.55596e-07
-6.69575e-06
2.47108e-07
-6.79024e-06
2.38285e-07
-6.88102e-06
2.29122e-07
-6.96794e-06
2.19615e-07
-7.05087e-06
2.09761e-07
-7.12968e-06
1.99558e-07
-7.20423e-06
1.89003e-07
-7.27438e-06
1.78097e-07
-7.33999e-06
1.66838e-07
-7.40094e-06
1.55228e-07
-7.45708e-06
1.4327e-07
-7.50828e-06
1.30965e-07
-7.5544e-06
1.18318e-07
-7.59533e-06
1.05335e-07
-7.63093e-06
9.20214e-08
-7.66108e-06
7.83855e-08
-7.68565e-06
6.44361e-08
-7.70454e-06
5.01835e-08
-7.71763e-06
3.56393e-08
-7.72481e-06
2.08164e-08
-7.72599e-06
5.72937e-09
-7.72106e-06
-9.60695e-09
-7.70995e-06
-2.51755e-08
-7.69257e-06
-4.09576e-08
-7.66884e-06
-5.69339e-08
-7.63871e-06
-7.30837e-08
-7.60211e-06
-8.93852e-08
-7.559e-06
-1.05815e-07
-7.50933e-06
-1.22349e-07
-7.45309e-06
-1.38963e-07
-7.39025e-06
-1.5563e-07
-7.32081e-06
-1.72323e-07
-7.24476e-06
-1.89014e-07
-7.16213e-06
-2.05676e-07
-7.07293e-06
-2.2228e-07
-6.9772e-06
-2.38797e-07
-6.87498e-06
-2.55197e-07
-6.76634e-06
-2.71451e-07
-6.65135e-06
-2.87531e-07
-6.53008e-06
-3.03405e-07
-6.40263e-06
-3.19047e-07
-6.2691e-06
-3.34428e-07
-6.1296e-06
-3.4952e-07
-5.98426e-06
-3.64296e-07
-5.83321e-06
-3.7873e-07
-5.67658e-06
-3.92799e-07
-5.51454e-06
-4.06477e-07
-5.34725e-06
-4.19742e-07
-5.17487e-06
-4.32574e-07
-4.99758e-06
-4.44953e-07
-4.81557e-06
-4.56859e-07
-4.62903e-06
-4.68274e-07
-4.43815e-06
-4.7918e-07
-4.24315e-06
-4.89559e-07
-4.04424e-06
-4.99387e-07
-3.84166e-06
-5.08637e-07
-3.63564e-06
-5.17272e-07
-3.42646e-06
-5.25244e-07
-3.21442e-06
-5.32481e-07
-2.99986e-06
-5.38883e-07
-2.78316e-06
-5.44311e-07
-2.56482e-06
-5.48575e-07
-2.3454e-06
-5.51413e-07
-2.12562e-06
-5.52484e-07
-1.90636e-06
-5.51344e-07
-1.68873e-06
-5.4743e-07
-1.47408e-06
-5.40051e-07
-1.26409e-06
-5.28375e-07
-1.06074e-06
-5.11438e-07
-8.66435e-07
-4.8816e-07
-6.83924e-07
-4.57401e-07
-5.1631e-07
-4.18056e-07
-3.66945e-07
-3.69225e-07
-2.39256e-07
-3.10507e-07
-1.36478e-07
-2.42468e-07
-6.12957e-08
-1.67384e-07
-1.54948e-08
-9.0471e-08
-2.19874e-08
-1.93987e-08
4.31878e-08
-7.09321e-08
1.34665e-07
-1.49752e-07
2.225e-07
-2.51906e-07
3.01313e-07
-3.73808e-07
3.68842e-07
-5.12114e-07
4.24657e-07
-6.63747e-07
4.69375e-07
-8.2594e-07
5.04171e-07
-9.96281e-07
5.30457e-07
-1.17272e-06
5.49683e-07
-1.35358e-06
5.6322e-07
-1.53748e-06
5.72293e-07
-1.72337e-06
5.77951e-07
-1.91043e-06
5.8106e-07
-2.09804e-06
5.82309e-07
-2.28575e-06
5.82227e-07
-2.47322e-06
5.81207e-07
-2.66021e-06
5.79531e-07
-2.84655e-06
5.77392e-07
-3.0321e-06
5.74915e-07
-3.21676e-06
5.72178e-07
-3.40044e-06
5.69225e-07
-3.58306e-06
5.66075e-07
-3.76454e-06
5.62734e-07
-3.94482e-06
5.592e-07
-4.12383e-06
5.55464e-07
-4.30148e-06
5.51515e-07
-4.47771e-06
5.4734e-07
-4.65243e-06
5.42928e-07
-4.82555e-06
5.38265e-07
-4.99699e-06
5.33339e-07
-5.16667e-06
5.28138e-07
-5.33447e-06
5.22648e-07
-5.50032e-06
5.16858e-07
-5.6641e-06
5.10756e-07
-5.82571e-06
5.04331e-07
-5.98504e-06
4.97569e-07
-6.14198e-06
4.90461e-07
-6.29642e-06
4.82993e-07
-6.44824e-06
4.75154e-07
-6.59731e-06
4.66934e-07
-6.74351e-06
4.5832e-07
-6.88672e-06
4.49302e-07
-7.0268e-06
4.39869e-07
-7.16361e-06
4.3001e-07
-7.29703e-06
4.19714e-07
-7.4269e-06
4.08973e-07
-7.55309e-06
3.97777e-07
-7.67545e-06
3.86116e-07
-7.79384e-06
3.73983e-07
-7.9081e-06
3.6137e-07
-8.01809e-06
3.48269e-07
-8.12364e-06
3.34676e-07
-8.22461e-06
3.20585e-07
-8.32084e-06
3.0599e-07
-8.41217e-06
2.90891e-07
-8.49845e-06
2.75283e-07
-8.57952e-06
2.59168e-07
-8.65523e-06
2.42544e-07
-8.72541e-06
2.25413e-07
-8.78992e-06
2.0778e-07
-8.84861e-06
1.89649e-07
-8.90131e-06
1.71026e-07
-8.9479e-06
1.51919e-07
-8.98821e-06
1.32337e-07
-9.02212e-06
1.12294e-07
-9.04949e-06
9.1801e-08
-9.07018e-06
7.08741e-08
-9.08407e-06
4.95302e-08
-9.09104e-06
2.77883e-08
-9.09098e-06
5.66937e-09
-9.08378e-06
-1.68044e-08
-9.06935e-06
-3.96079e-08
-9.04759e-06
-6.27147e-08
-9.01843e-06
-8.60965e-08
-8.98179e-06
-1.09723e-07
-8.93761e-06
-1.33563e-07
-8.88585e-06
-1.57583e-07
-8.82645e-06
-1.81747e-07
-8.75939e-06
-2.0602e-07
-8.68466e-06
-2.30364e-07
-8.60224e-06
-2.5474e-07
-8.51215e-06
-2.79108e-07
-8.41439e-06
-3.03428e-07
-8.30902e-06
-3.27659e-07
-8.19605e-06
-3.51759e-07
-8.07557e-06
-3.75685e-07
-7.94762e-06
-3.99396e-07
-7.8123e-06
-4.22849e-07
-7.6697e-06
-4.46004e-07
-7.51993e-06
-4.68817e-07
-7.36311e-06
-4.9125e-07
-7.19937e-06
-5.13262e-07
-7.02885e-06
-5.34814e-07
-6.85171e-06
-5.5587e-07
-6.66812e-06
-5.76394e-07
-6.47824e-06
-5.96352e-07
-6.28227e-06
-6.15711e-07
-6.08041e-06
-6.34441e-07
-5.87285e-06
-6.52512e-07
-5.65981e-06
-6.69896e-07
-5.44152e-06
-6.86568e-07
-5.2182e-06
-7.02498e-07
-4.9901e-06
-7.17658e-07
-4.75747e-06
-7.32014e-07
-4.52059e-06
-7.45522e-07
-4.27973e-06
-7.58128e-07
-4.03522e-06
-7.69753e-07
-3.78741e-06
-7.80293e-07
-3.53669e-06
-7.89597e-07
-3.28355e-06
-7.97459e-07
-3.02853e-06
-8.03597e-07
-2.77231e-06
-8.07633e-07
-2.51572e-06
-8.09073e-07
-2.25978e-06
-8.0728e-07
-2.00575e-06
-8.01456e-07
-1.75518e-06
-7.90627e-07
-1.50992e-06
-7.73633e-07
-1.27222e-06
-7.49144e-07
-1.04469e-06
-7.15689e-07
-8.3035e-07
-6.71738e-07
-6.3258e-07
-6.15826e-07
-4.55026e-07
-5.46778e-07
-3.01483e-07
-4.6405e-07
-1.75711e-07
-3.68239e-07
-8.12714e-08
-2.61823e-07
-2.15024e-08
-1.5024e-07
-4.34898e-08
-2.34964e-08
6.66842e-08
-8.48465e-08
1.96015e-07
-1.77321e-07
3.14974e-07
-2.95699e-07
4.19691e-07
-4.35602e-07
5.08745e-07
-5.93208e-07
5.82262e-07
-7.65139e-07
6.41306e-07
-9.48433e-07
6.87465e-07
-1.14053e-06
7.22552e-07
-1.33926e-06
7.48411e-07
-1.54282e-06
7.66785e-07
-1.74977e-06
7.79241e-07
-1.95895e-06
7.8713e-07
-2.16947e-06
7.91576e-07
-2.38064e-06
7.93481e-07
-2.59195e-06
7.93543e-07
-2.80303e-06
7.92288e-07
-3.0136e-06
7.90095e-07
-3.22343e-06
7.87228e-07
-3.43238e-06
7.8386e-07
-3.6403e-06
7.80103e-07
-3.8471e-06
7.76021e-07
-4.05267e-06
7.71646e-07
-4.25693e-06
7.66991e-07
-4.45979e-06
7.62056e-07
-4.66115e-06
7.56831e-07
-4.86094e-06
7.51305e-07
-5.05907e-06
7.45464e-07
-5.25543e-06
7.39291e-07
-5.44994e-06
7.3277e-07
-5.64248e-06
7.25886e-07
-5.83297e-06
7.18622e-07
-6.02128e-06
7.10964e-07
-6.20732e-06
7.02894e-07
-6.39096e-06
6.94397e-07
-6.57209e-06
6.85459e-07
-6.75058e-06
6.76063e-07
-6.92631e-06
6.66194e-07
-7.09916e-06
6.55838e-07
-7.26898e-06
6.44978e-07
-7.43565e-06
6.336e-07
-7.59902e-06
6.21689e-07
-7.75895e-06
6.09231e-07
-7.91529e-06
5.96212e-07
-8.0679e-06
5.82618e-07
-8.21662e-06
5.68435e-07
-8.3613e-06
5.53651e-07
-8.50177e-06
5.38254e-07
-8.63789e-06
5.22232e-07
-8.76948e-06
5.05575e-07
-8.89639e-06
4.88272e-07
-9.01843e-06
4.70316e-07
-9.13545e-06
4.51698e-07
-9.24728e-06
4.32413e-07
-9.35375e-06
4.12454e-07
-9.45467e-06
3.91819e-07
-9.54989e-06
3.70504e-07
-9.63924e-06
3.4851e-07
-9.72253e-06
3.25837e-07
-9.79961e-06
3.02489e-07
-9.8703e-06
2.7847e-07
-9.93443e-06
2.53787e-07
-9.99186e-06
2.2845e-07
-1.00424e-05
2.0247e-07
-1.00859e-05
1.75859e-07
-1.01223e-05
1.48634e-07
-1.01513e-05
1.20814e-07
-1.01728e-05
9.24183e-08
-1.01868e-05
6.3471e-08
-1.0193e-05
3.39976e-08
-1.01913e-05
4.02648e-09
-1.01817e-05
-2.64119e-08
-1.01641e-05
-5.7284e-08
-1.01382e-05
-8.85543e-08
-1.01041e-05
-1.20184e-07
-1.00617e-05
-1.52134e-07
-1.00109e-05
-1.84361e-07
-9.95168e-06
-2.1682e-07
-9.88396e-06
-2.49464e-07
-9.80774e-06
-2.82245e-07
-9.72299e-06
-3.15112e-07
-9.62972e-06
-3.48014e-07
-9.52793e-06
-3.80898e-07
-9.41765e-06
-4.13709e-07
-9.29891e-06
-4.46392e-07
-9.17178e-06
-4.78893e-07
-9.03631e-06
-5.11154e-07
-8.89259e-06
-5.4312e-07
-8.7407e-06
-5.74735e-07
-8.58076e-06
-6.05942e-07
-8.41289e-06
-6.36688e-07
-8.23722e-06
-6.66919e-07
-8.0539e-06
-6.96581e-07
-7.86309e-06
-7.25623e-07
-7.66497e-06
-7.53997e-07
-7.45971e-06
-7.81653e-07
-7.24751e-06
-8.08548e-07
-7.02859e-06
-8.34637e-07
-6.80315e-06
-8.5988e-07
-6.57142e-06
-8.84237e-07
-6.33365e-06
-9.0767e-07
-6.09007e-06
-9.30143e-07
-5.84095e-06
-9.51617e-07
-5.58656e-06
-9.72051e-07
-5.32718e-06
-9.91397e-07
-5.0631e-06
-1.0096e-06
-4.79466e-06
-1.02657e-06
-4.52221e-06
-1.04221e-06
-4.24613e-06
-1.05637e-06
-3.96687e-06
-1.06885e-06
-3.68497e-06
-1.07936e-06
-3.40104e-06
-1.08753e-06
-3.11582e-06
-1.09285e-06
-2.83024e-06
-1.09466e-06
-2.5454e-06
-1.09212e-06
-2.26266e-06
-1.08419e-06
-1.9837e-06
-1.06959e-06
-1.71049e-06
-1.04684e-06
-1.44543e-06
-1.01421e-06
-1.19127e-06
-9.69841e-07
-9.51222e-07
-9.1179e-07
-7.2884e-07
-8.38208e-07
-5.2803e-07
-7.47588e-07
-3.52947e-07
-6.39134e-07
-2.07917e-07
-5.13269e-07
-9.74116e-08
-3.72328e-07
-2.62099e-08
-2.21442e-07
-6.96997e-08
-2.67622e-08
9.34463e-08
-9.62048e-08
2.65458e-07
-2.00148e-07
4.18917e-07
-3.32274e-07
5.51817e-07
-4.87456e-07
6.63927e-07
-6.61387e-07
7.56193e-07
-8.50388e-07
8.30307e-07
-1.0513e-06
8.88381e-07
-1.26145e-06
9.32695e-07
-1.47856e-06
9.65523e-07
-1.70077e-06
9.88998e-07
-1.92657e-06
1.00504e-06
-2.15475e-06
1.01531e-06
-2.38437e-06
1.0212e-06
-2.61471e-06
1.02382e-06
-2.84521e-06
1.02405e-06
-3.07547e-06
1.02255e-06
-3.30517e-06
1.0198e-06
-3.53407e-06
1.01613e-06
-3.762e-06
1.01178e-06
-3.98879e-06
1.0069e-06
-4.21433e-06
1.00156e-06
-4.4385e-06
9.95815e-07
-4.66119e-06
9.89687e-07
-4.88231e-06
9.83178e-07
-5.10176e-06
9.76281e-07
-5.31944e-06
9.68982e-07
-5.53524e-06
9.61265e-07
-5.74906e-06
9.53111e-07
-5.9608e-06
9.44503e-07
-6.17033e-06
9.35419e-07
-6.37755e-06
9.25842e-07
-6.58233e-06
9.15751e-07
-6.78457e-06
9.05127e-07
-6.98412e-06
8.93951e-07
-7.18087e-06
8.82204e-07
-7.37467e-06
8.69867e-07
-7.5654e-06
8.5692e-07
-7.75291e-06
8.43345e-07
-7.93705e-06
8.29124e-07
-8.11769e-06
8.14237e-07
-8.29466e-06
7.98666e-07
-8.46783e-06
7.82393e-07
-8.63702e-06
7.65402e-07
-8.80207e-06
7.47674e-07
-8.96283e-06
7.29195e-07
-9.11913e-06
7.09947e-07
-9.27079e-06
6.89915e-07
-9.41764e-06
6.69087e-07
-9.55952e-06
6.47449e-07
-9.69624e-06
6.24989e-07
-9.82762e-06
6.01697e-07
-9.95348e-06
5.77564e-07
-1.00737e-05
5.52581e-07
-1.01879e-05
5.26743e-07
-1.02962e-05
5.00046e-07
-1.03982e-05
4.72488e-07
-1.04937e-05
4.44068e-07
-1.05827e-05
4.14789e-07
-1.06648e-05
3.84654e-07
-1.074e-05
3.53672e-07
-1.08081e-05
3.2185e-07
-1.08688e-05
2.89201e-07
-1.09221e-05
2.55741e-07
-1.09677e-05
2.21486e-07
-1.10056e-05
1.86458e-07
-1.10354e-05
1.5068e-07
-1.10572e-05
1.14179e-07
-1.10707e-05
7.69853e-08
-1.10758e-05
3.91316e-08
-1.10725e-05
6.54468e-10
-1.10605e-05
-3.84068e-08
-1.10397e-05
-7.80094e-08
-1.10102e-05
-1.18108e-07
-1.09717e-05
-1.58653e-07
-1.09243e-05
-1.99594e-07
-1.08677e-05
-2.40876e-07
-1.08021e-05
-2.82442e-07
-1.07274e-05
-3.24233e-07
-1.06434e-05
-3.66187e-07
-1.05503e-05
-4.0824e-07
-1.0448e-05
-4.50326e-07
-1.03365e-05
-4.92378e-07
-1.02159e-05
-5.34327e-07
-1.00862e-05
-5.76104e-07
-9.94742e-06
-6.17639e-07
-9.79971e-06
-6.58859e-07
-9.64314e-06
-6.99696e-07
-9.4778e-06
-7.40077e-07
-9.30381e-06
-7.79932e-07
-9.1213e-06
-8.19193e-07
-8.93043e-06
-8.57791e-07
-8.73135e-06
-8.95659e-07
-8.52424e-06
-9.32734e-07
-8.30929e-06
-9.68951e-07
-8.08669e-06
-1.00425e-06
-7.85666e-06
-1.03858e-06
-7.61942e-06
-1.07188e-06
-7.3752e-06
-1.10409e-06
-7.12426e-06
-1.13518e-06
-6.86684e-06
-1.16509e-06
-6.60322e-06
-1.19376e-06
-6.33368e-06
-1.22116e-06
-6.05849e-06
-1.24723e-06
-5.77798e-06
-1.27191e-06
-5.49246e-06
-1.29511e-06
-5.20229e-06
-1.31674e-06
-4.90784e-06
-1.33666e-06
-4.60955e-06
-1.35467e-06
-4.30789e-06
-1.37051e-06
-4.00343e-06
-1.38382e-06
-3.69684e-06
-1.39413e-06
-3.3889e-06
-1.40078e-06
-3.08059e-06
-1.40297e-06
-2.77308e-06
-1.39963e-06
-2.46781e-06
-1.38946e-06
-2.1665e-06
-1.3709e-06
-1.87123e-06
-1.34211e-06
-1.58447e-06
-1.30097e-06
-1.30909e-06
-1.24522e-06
-1.0484e-06
-1.17248e-06
-8.06146e-07
-1.08047e-06
-5.86456e-07
-9.67278e-07
-3.9385e-07
-8.3174e-07
-2.3321e-07
-6.7391e-07
-1.09845e-07
-4.95693e-07
-2.97174e-08
-3.01569e-07
-9.94171e-08
-2.93198e-08
1.22766e-07
-1.05287e-07
3.41425e-07
-2.18645e-07
5.32276e-07
-3.62185e-07
6.95357e-07
-5.30118e-07
8.3186e-07
-7.17684e-07
9.43759e-07
-9.20905e-07
1.03353e-06
-1.13644e-06
1.10391e-06
-1.36147e-06
1.15773e-06
-1.59368e-06
1.19773e-06
-1.83113e-06
1.22645e-06
-2.07227e-06
1.24619e-06
-2.31588e-06
1.25891e-06
-2.56097e-06
1.26629e-06
-2.80679e-06
1.26965e-06
-3.05279e-06
1.27004e-06
-3.29851e-06
1.26827e-06
-3.54363e-06
1.26492e-06
-3.7879e-06
1.2604e-06
-4.0311e-06
1.25499e-06
-4.27308e-06
1.24888e-06
-4.51369e-06
1.24217e-06
-4.75282e-06
1.23494e-06
-4.99033e-06
1.2272e-06
-5.22612e-06
1.21897e-06
-5.46009e-06
1.21024e-06
-5.69211e-06
1.201e-06
-5.92208e-06
1.19123e-06
-6.14988e-06
1.18091e-06
-6.3754e-06
1.17002e-06
-6.59852e-06
1.15853e-06
-6.8191e-06
1.14643e-06
-7.03703e-06
1.13368e-06
-7.25218e-06
1.12027e-06
-7.46441e-06
1.10618e-06
-7.67357e-06
1.09137e-06
-7.87954e-06
1.07584e-06
-8.08217e-06
1.05954e-06
-8.28129e-06
1.04247e-06
-8.47678e-06
1.02461e-06
-8.66845e-06
1.00592e-06
-8.85617e-06
9.86381e-07
-9.03976e-06
9.65982e-07
-9.21905e-06
9.44697e-07
-9.39389e-06
9.22507e-07
-9.56408e-06
8.9939e-07
-9.72947e-06
8.7533e-07
-9.88986e-06
8.50308e-07
-1.00451e-05
8.24307e-07
-1.01949e-05
7.97313e-07
-1.03393e-05
7.69312e-07
-1.04779e-05
7.40291e-07
-1.06105e-05
7.1024e-07
-1.07371e-05
6.79149e-07
-1.08574e-05
6.47014e-07
-1.09712e-05
6.13828e-07
-1.10783e-05
5.7959e-07
-1.11785e-05
5.44301e-07
-1.12717e-05
5.07963e-07
-1.13576e-05
4.70584e-07
-1.14361e-05
4.3217e-07
-1.1507e-05
3.92736e-07
-1.15701e-05
3.52296e-07
-1.16252e-05
3.10868e-07
-1.16722e-05
2.68477e-07
-1.17109e-05
2.25146e-07
-1.17411e-05
1.80907e-07
-1.17627e-05
1.35791e-07
-1.17756e-05
8.98377e-08
-1.17795e-05
4.30867e-08
-1.17745e-05
-4.41683e-09
-1.17602e-05
-5.2624e-08
-1.17368e-05
-1.01482e-07
-1.17039e-05
-1.50936e-07
-1.16617e-05
-2.00924e-07
-1.16099e-05
-2.51384e-07
-1.15485e-05
-3.0225e-07
-1.14775e-05
-3.5345e-07
-1.13968e-05
-4.04912e-07
-1.13064e-05
-4.5656e-07
-1.12064e-05
-5.08317e-07
-1.10966e-05
-5.60102e-07
-1.09771e-05
-6.11833e-07
-1.0848e-05
-6.63425e-07
-1.07093e-05
-7.14794e-07
-1.05611e-05
-7.65854e-07
-1.04035e-05
-8.16518e-07
-1.02365e-05
-8.66701e-07
-1.00602e-05
-9.16314e-07
-9.87488e-06
-9.65275e-07
-9.68058e-06
-1.0135e-06
-9.47747e-06
-1.0609e-06
-9.26574e-06
-1.1074e-06
-9.04556e-06
-1.15291e-06
-8.81713e-06
-1.19738e-06
-8.58067e-06
-1.24071e-06
-8.33641e-06
-1.28284e-06
-8.08459e-06
-1.32371e-06
-7.82544e-06
-1.36324e-06
-7.55924e-06
-1.40138e-06
-7.28625e-06
-1.43807e-06
-7.00676e-06
-1.47325e-06
-6.72106e-06
-1.50686e-06
-6.42947e-06
-1.53883e-06
-6.1323e-06
-1.56908e-06
-5.82991e-06
-1.59751e-06
-5.52265e-06
-1.624e-06
-5.21094e-06
-1.64837e-06
-4.89523e-06
-1.67038e-06
-4.57602e-06
-1.68972e-06
-4.2539e-06
-1.70594e-06
-3.92957e-06
-1.71845e-06
-3.60387e-06
-1.72649e-06
-3.27778e-06
-1.72905e-06
-2.95253e-06
-1.72488e-06
-2.62959e-06
-1.71241e-06
-2.31072e-06
-1.68977e-06
-1.99807e-06
-1.65476e-06
-1.69415e-06
-1.60489e-06
-1.40192e-06
-1.53745e-06
-1.1248e-06
-1.4496e-06
-8.6666e-07
-1.3386e-06
-6.31885e-07
-1.20205e-06
-4.25332e-07
-1.03829e-06
-2.5239e-07
-8.46851e-07
-1.19071e-07
-6.29012e-07
-3.22294e-08
-3.88411e-07
-1.31647e-07
-3.12939e-08
1.5406e-07
-1.12427e-07
4.22558e-07
-2.33368e-07
6.53217e-07
-3.86212e-07
8.48201e-07
-5.64617e-07
1.01027e-06
-7.63417e-07
1.14256e-06
-9.78357e-07
1.24847e-06
-1.20591e-06
1.33146e-06
-1.44315e-06
1.39497e-06
-1.68767e-06
1.44225e-06
-1.93751e-06
1.47629e-06
-2.19108e-06
1.49976e-06
-2.44713e-06
1.51496e-06
-2.70468e-06
1.52383e-06
-2.96295e-06
1.52792e-06
-3.22137e-06
1.52846e-06
-3.47949e-06
1.52639e-06
-3.73695e-06
1.52238e-06
-3.9935e-06
1.51695e-06
-4.24892e-06
1.51041e-06
-4.50304e-06
1.50299e-06
-4.75569e-06
1.49483e-06
-5.00675e-06
1.486e-06
-5.25609e-06
1.47654e-06
-5.50359e-06
1.46647e-06
-5.74913e-06
1.45578e-06
-5.99259e-06
1.44446e-06
-6.23385e-06
1.43249e-06
-6.47278e-06
1.41985e-06
-6.70927e-06
1.40651e-06
-6.94319e-06
1.39245e-06
-7.1744e-06
1.37764e-06
-7.40277e-06
1.36205e-06
-7.62817e-06
1.34567e-06
-7.85045e-06
1.32845e-06
-8.06946e-06
1.31039e-06
-8.28506e-06
1.29144e-06
-8.4971e-06
1.27158e-06
-8.70541e-06
1.25079e-06
-8.90985e-06
1.22904e-06
-9.11024e-06
1.20631e-06
-9.30642e-06
1.18256e-06
-9.49822e-06
1.15778e-06
-9.68546e-06
1.13194e-06
-9.86798e-06
1.10502e-06
-1.00456e-05
1.07699e-06
-1.02181e-05
1.04784e-06
-1.03853e-05
1.01753e-06
-1.05471e-05
9.86065e-07
-1.07032e-05
9.53412e-07
-1.08534e-05
9.19558e-07
-1.09976e-05
8.84491e-07
-1.11356e-05
8.48199e-07
-1.12671e-05
8.10671e-07
-1.1392e-05
7.719e-07
-1.151e-05
7.31882e-07
-1.16211e-05
6.90615e-07
-1.17249e-05
6.481e-07
-1.18212e-05
6.04342e-07
-1.191e-05
5.59349e-07
-1.1991e-05
5.13132e-07
-1.20639e-05
4.65705e-07
-1.21287e-05
4.17089e-07
-1.21852e-05
3.67306e-07
-1.22331e-05
3.16383e-07
-1.22723e-05
2.64351e-07
-1.23026e-05
2.11248e-07
-1.23239e-05
1.57112e-07
-1.23361e-05
1.01989e-07
-1.23389e-05
4.59287e-08
-1.23323e-05
-1.10158e-08
-1.23162e-05
-6.87858e-08
-1.22903e-05
-1.27318e-07
-1.22547e-05
-1.86546e-07
-1.22093e-05
-2.46397e-07
-1.21538e-05
-3.06796e-07
-1.20884e-05
-3.67664e-07
-1.2013e-05
-4.28916e-07
-1.19274e-05
-4.90465e-07
-1.18317e-05
-5.52223e-07
-1.1726e-05
-6.14095e-07
-1.16101e-05
-6.75986e-07
-1.14841e-05
-7.37798e-07
-1.13481e-05
-7.99431e-07
-1.12021e-05
-8.60785e-07
-1.10462e-05
-9.21757e-07
-1.08805e-05
-9.82244e-07
-1.0705e-05
-1.04214e-06
-1.052e-05
-1.10136e-06
-1.03255e-05
-1.15978e-06
-1.01217e-05
-1.21731e-06
-9.90874e-06
-1.27385e-06
-9.68684e-06
-1.32931e-06
-9.45617e-06
-1.38358e-06
-9.21695e-06
-1.4366e-06
-8.9694e-06
-1.48825e-06
-8.71377e-06
-1.53847e-06
-8.4503e-06
-1.58717e-06
-8.17926e-06
-1.63428e-06
-7.90091e-06
-1.67973e-06
-7.61555e-06
-1.72344e-06
-7.32346e-06
-1.76534e-06
-7.02497e-06
-1.80536e-06
-6.72038e-06
-1.84341e-06
-6.41005e-06
-1.87941e-06
-6.09434e-06
-1.91323e-06
-5.77362e-06
-1.94472e-06
-5.44832e-06
-1.97367e-06
-5.1189e-06
-1.99979e-06
-4.78591e-06
-2.02272e-06
-4.44993e-06
-2.04191e-06
-4.1117e-06
-2.05669e-06
-3.77205e-06
-2.06614e-06
-3.43202e-06
-2.06908e-06
-3.09284e-06
-2.06406e-06
-2.75601e-06
-2.04924e-06
-2.42333e-06
-2.02245e-06
-2.09696e-06
-1.98112e-06
-1.77948e-06
-1.92237e-06
-1.4739e-06
-1.84303e-06
-1.18374e-06
-1.73976e-06
-9.13036e-07
-1.60931e-06
-6.66371e-07
-1.44872e-06
-4.48922e-07
-1.25574e-06
-2.66511e-07
-1.02926e-06
-1.25699e-07
-7.69824e-07
-3.39636e-08
-4.80146e-07
-1.6561e-07
-3.27978e-08
1.86857e-07
-1.17959e-07
5.07718e-07
-2.44908e-07
7.80166e-07
-4.05214e-07
1.00851e-06
-5.9209e-07
1.19714e-06
-8.00027e-07
1.3505e-06