/*--------------------------------*- C++ -*----------------------------------*\
| =========                 |                                                 |
| \\      /  F ield         | OpenFOAM: The Open Source CFD Toolbox           |
|  \\    /   O peration     | Version:  2406                                  |
|   \\  /    A nd           | Website:  www.openfoam.com                      |
|    \\/     M anipulation  |                                                 |
\*---------------------------------------------------------------------------*/
FoamFile
{
    version     2.0;
    format      ascii;
    arch        "LSB;label=32;scalar=64";
    class       surfaceScalarField;
    location    "22.55";
    object      phi;
}
// * * * * * * * * * * * * * * * * * * * * * * * * * * * * * * * * * * * * * //

dimensions      [0 3 -1 0 0 0 0];

oriented        oriented;

internalField   nonuniform List<scalar> 
7080
(
1.07888e-07
-1.07799e-07
4.72745e-07
-3.67855e-07
9.40851e-07
-4.67662e-07
1.38446e-06
-4.45833e-07
1.73817e-06
-3.53532e-07
1.9667e-06
-2.29647e-07
2.06701e-06
-9.98435e-08
2.03385e-06
3.32997e-08
1.87334e-06
1.61649e-07
1.58363e-06
2.91098e-07
1.16774e-06
4.17931e-07
6.20052e-07
5.50341e-07
-6.71621e-08
6.90385e-07
-9.13546e-07
8.5042e-07
-1.94649e-06
1.03754e-06
-3.20457e-06
1.26376e-06
-4.73131e-06
1.53313e-06
-6.57234e-06
1.84867e-06
-8.76728e-06
2.20342e-06
-1.13437e-05
2.5862e-06
-1.4309e-05
2.97579e-06
-1.76431e-05
3.34572e-06
-2.12917e-05
3.66063e-06
-2.51603e-05
3.88098e-06
-2.91104e-05
3.96209e-06
-3.29599e-05
3.86068e-06
-3.64879e-05
3.53746e-06
-3.94459e-05
2.9653e-06
-4.15746e-05
2.13295e-06
-4.26255e-05
1.05168e-06
-4.23846e-05
-2.4396e-07
-4.06978e-05
-1.69385e-06
-3.74924e-05
-3.21631e-06
-3.27963e-05
-4.71074e-06
-2.67475e-05
-6.06643e-06
-1.95979e-05
-7.16994e-06
-1.17015e-05
-7.91805e-06
-3.49535e-06
-8.22897e-06
4.53906e-06
-8.05657e-06
1.1918e-05
-7.40031e-06
1.82114e-05
-6.31197e-06
2.30894e-05
-4.89415e-06
2.63659e-05
-3.28814e-06
2.80129e-05
-1.65547e-06
2.81583e-05
-1.48625e-07
2.70476e-05
1.10979e-06
2.50016e-05
2.05013e-06
2.23525e-05
2.65353e-06
1.9409e-05
2.95196e-06
1.64134e-05
3.00214e-06
1.35443e-05
2.87921e-06
1.09027e-05
2.64749e-06
8.54173e-06
2.37107e-06
6.46185e-06
2.0839e-06
4.64789e-06
1.82347e-06
3.07382e-06
1.5757e-06
1.7386e-06
1.34398e-06
7.04912e-07
1.03292e-06
7.43738e-08
6.38028e-07
7.44015e-08
3.72926e-07
-4.77849e-07
1.14638e-06
-1.14154e-06
2.05216e-06
-1.36963e-06
2.87006e-06
-1.26319e-06
3.48579e-06
-9.66864e-07
3.81871e-06
-5.62536e-07
3.84008e-06
-1.20861e-07
3.5173e-06
3.54767e-07
2.83484e-06
8.42266e-07
1.76466e-06
1.35819e-06
2.83699e-07
1.89477e-06
-1.64555e-06
2.47439e-06
-4.06656e-06
3.1048e-06
-7.04155e-06
3.81768e-06
-1.06441e-05
4.63061e-06
-1.49596e-05
5.56837e-06
-2.00708e-05
6.63137e-06
-2.60459e-05
7.80903e-06
-3.29183e-05
9.05883e-06
-4.06698e-05
1.03189e-05
-4.92125e-05
1.14975e-05
-5.83769e-05
1.24877e-05
-6.79063e-05
1.31663e-05
-7.74615e-05
1.34123e-05
-8.66361e-05
1.31131e-05
-9.49813e-05
1.21841e-05
-0.000102037
1.05745e-05
-0.000107366
8.27952e-06
-0.000110581
5.33935e-06
-0.000111374
1.84275e-06
-0.000109532
-2.08008e-06
-0.000104954
-6.25834e-06
-9.76579e-05
-1.0491e-05
-8.77892e-05
-1.45507e-05
-7.56222e-05
-1.81982e-05
-6.15602e-05
-2.11919e-05
-4.61243e-05
-2.33103e-05
-2.99396e-05
-2.43689e-05
-1.37023e-05
-2.42494e-05
1.85737e-06
-2.29186e-05
1.6033e-05
-2.04502e-05
2.81966e-05
-1.70273e-05
3.78656e-05
-1.29333e-05
4.47462e-05
-8.52135e-06
4.87717e-05
-4.16621e-06
5.0094e-05
-2.13467e-07
4.90639e-05
3.0749e-06
4.61596e-05
5.54582e-06
4.19279e-05
7.17099e-06
3.68934e-05
8.01939e-06
3.15214e-05
8.23708e-06
2.61595e-05
7.9915e-06
2.10567e-05
7.46172e-06
1.63442e-05
6.77971e-06
1.20963e-05
6.06285e-06
8.33351e-06
5.32368e-06
5.10308e-06
4.57009e-06
2.4972e-06
3.62594e-06
7.0117e-07
2.43404e-06
7.68018e-07
4.91072e-07
-9.68924e-07
1.40853e-06
-2.06272e-06
2.41658e-06
-2.37734e-06
3.24641e-06
-2.09563e-06
3.76772e-06
-1.48819e-06
3.8735e-06
-6.69163e-07
3.50995e-06
2.43512e-07
2.61038e-06
1.25547e-06
1.1227e-06
2.33219e-06
-1.02227e-06
3.50632e-06
-3.89143e-06
4.76794e-06
-7.56919e-06
6.15745e-06
-1.21481e-05
7.68984e-06
-1.77385e-05
9.41571e-06
-2.44557e-05
1.13564e-05
-3.24112e-05
1.35343e-05
-4.16878e-05
1.59196e-05
-5.23157e-05
1.84507e-05
-6.42442e-05
2.10024e-05
-7.73193e-05
2.34111e-05
-9.12716e-05
2.54683e-05
-0.000105719
2.6955e-05
-0.000120186
2.76538e-05
-0.000134137
2.73847e-05
-0.00014702
2.60162e-05
-0.000158301
2.34849e-05
-0.000167502
1.97918e-05
-0.000174215
1.50052e-05
-0.000178116
9.24805e-06
-0.000178968
2.69696e-06
-0.000176622
-4.4301e-06
-0.000171019
-1.18722e-05
-0.000162193
-1.93356e-05
-0.000150276
-2.64927e-05
-0.000135509
-3.29964e-05
-0.000118249
-3.84875e-05
-9.89762e-05
-4.26222e-05
-7.82918e-05
-4.50939e-05
-5.6905e-05
-4.56761e-05
-3.56085e-05
-4.42532e-05
-1.52295e-05
-4.08626e-05
3.42221e-06
-3.57076e-05
1.96305e-05
-2.91627e-05
3.28316e-05
-2.17375e-05
4.26806e-05
-1.40219e-05
4.9073e-05
-6.60764e-06
5.21603e-05
-6.93194e-09
5.2305e-05
5.40855e-06
5.004e-05
9.44878e-06
4.5971e-05
1.20998e-05
4.07212e-05
1.35025e-05
3.48344e-05
1.38896e-05
2.87652e-05
1.35465e-05
2.28242e-05
1.27295e-05
1.72379e-05
1.16639e-05
1.21285e-05
1.0438e-05
7.63396e-06
9.07847e-06
3.88891e-06
7.37123e-06
1.197e-06
5.13897e-06
1.96601e-06
4.93054e-07
-1.46013e-06
1.33049e-06
-2.9014e-06
2.14935e-06
-3.19375e-06
2.67557e-06
-2.62224e-06
2.78072e-06
-1.59243e-06
2.34203e-06
-2.31062e-07
1.2763e-06
1.3085e-06
-5.25587e-07
3.0558e-06
-3.16531e-06
4.96946e-06
-6.7658e-06
7.10385e-06
-1.14511e-05
9.44905e-06
-1.73634e-05
1.20651e-05
-2.46513e-05
1.49716e-05
-3.34702e-05
1.8228e-05
-4.39599e-05
2.1838e-05
-5.62206e-05
2.57861e-05
-7.02763e-05
2.99648e-05
-8.60427e-05
3.42056e-05
-0.000103302
3.82488e-05
-0.000121699
4.17933e-05
-0.000140753
4.45074e-05
-0.000159903
4.60888e-05
-0.00017855
4.62839e-05
-0.000196107
4.49258e-05
-0.000212036
4.19293e-05
-0.000225864
3.72986e-05
-0.00023719
3.11064e-05
-0.000245685
2.34917e-05
-0.000251082
1.46402e-05
-0.000253171
4.78628e-06
-0.000251797
-5.7981e-06
-0.000246863
-1.67956e-05
-0.000238332
-2.78507e-05
-0.000226242
-3.85609e-05
-0.000210723
-4.8489e-05
-0.000192017
-5.71647e-05
-0.000170493
-6.41145e-05
-0.000146669
-6.88847e-05
-0.000121214
-7.10979e-05
-9.49407e-05
-7.04963e-05
-6.87653e-05
-6.70101e-05
-4.36594e-05
-6.07906e-05
-2.0562e-05
-5.22413e-05
-3.01303e-07
-4.19862e-05
1.64985e-05
-3.0814e-05
2.94623e-05
-1.95704e-05
3.85017e-05
-9.04787e-06
4.37854e-05
1.17514e-07
4.57163e-05
7.51062e-06
4.48446e-05
1.29596e-05
4.18208e-05
1.65174e-05
3.72858e-05
1.84112e-05
3.18467e-05
1.89779e-05
2.59837e-05
1.85791e-05
2.0097e-05
1.75457e-05
1.44471e-05
1.60747e-05
9.29561e-06
1.42291e-05
4.85333e-06
1.17997e-05
1.55111e-06
8.44473e-06
3.50818e-06
4.10633e-07
-1.87031e-06
1.00027e-06
-3.49281e-06
1.41631e-06
-3.60907e-06
1.40443e-06
-2.61091e-06
8.41208e-07
-1.0288e-06
-4.12094e-07
1.02305e-06
-2.47713e-06
3.37456e-06
-5.51416e-06
6.09504e-06
-9.68526e-06
9.14271e-06
-1.51755e-05
1.25978e-05
-2.21735e-05
1.64506e-05
-3.08813e-05
2.07781e-05
-4.14976e-05
2.55931e-05
-5.42028e-05
3.09399e-05
-6.91223e-05
3.67645e-05
-8.62869e-05
4.29592e-05
-0.000105592
4.92786e-05
-0.000126772
5.53959e-05
-0.000149402
6.08908e-05
-0.000172932
6.53358e-05
-0.000196735
6.83228e-05
-0.000220166
6.95339e-05
-0.000242613
6.87452e-05
-0.000263523
6.58499e-05
-0.000282415
6.0834e-05
-0.000298878
5.37745e-05
-0.000312572
4.48099e-05
-0.000323211
3.41376e-05
-0.000330559
2.19917e-05
-0.000334421
8.64801e-06
-0.000334635
-5.58833e-06
-0.000331071
-2.03688e-05
-0.000323629
-3.53058e-05
-0.000312252
-4.99547e-05
-0.000296941
-6.382e-05
-0.000277783
-7.63458e-05
-0.000254981
-8.69406e-05
-0.000228896
-9.49947e-05
-0.000200077
-9.99421e-05
-0.000169281
-0.000101316
-0.000137467
-9.88445e-05
-0.000105757
-9.25192e-05
-7.53432e-05
-8.26693e-05
-4.73791e-05
-6.99612e-05
-2.28388e-05
-5.53595e-05
-2.41983e-06
-3.9992e-05
1.35311e-05
-2.49961e-05
2.49974e-05
-1.13453e-05
3.2262e-05
2.54092e-07
3.58082e-05
9.41982e-06
3.62716e-05
1.60647e-05
3.43284e-05
2.03608e-05
3.06742e-05
2.26437e-05
2.59123e-05
2.33456e-05
2.05918e-05
2.28781e-05
1.5115e-05
2.1553e-05
9.88209e-06
1.94746e-05
5.21589e-06
1.64629e-05
1.6758e-06
1.19989e-05
5.18342e-06
2.65138e-07
-2.13532e-06
4.59969e-07
-3.68814e-06
2.78547e-07
-3.42785e-06
-4.89731e-07
-1.84272e-06
-1.96194e-06
4.42116e-07
-4.29846e-06
3.3591e-06
-7.67302e-06
6.74674e-06
-1.23079e-05
1.07285e-05
-1.84357e-05
1.52671e-05
-2.6309e-05
2.04684e-05
-3.61818e-05
2.63188e-05
-4.83071e-05
3.28993e-05
-6.29102e-05
4.01904e-05
-8.01521e-05
4.81764e-05
-0.00010008
5.66851e-05
-0.000122578
6.54504e-05
-0.000147344
7.40361e-05
-0.000173892
8.1936e-05
-0.000201601
8.85894e-05
-0.00022977
9.34955e-05
-0.000257693
9.62348e-05
-0.000284699
9.653e-05
-0.000310192
9.42264e-05
-0.000333657
8.93047e-05
-0.000354675
8.18416e-05
-0.000372914
7.2005e-05
-0.000388126
6.00138e-05
-0.000400126
4.61327e-05
-0.000408779
3.06429e-05
-0.000413978
1.38476e-05
-0.000415622
-3.94111e-06
-0.0004136
-2.23826e-05
-0.000407788
-4.11073e-05
-0.000398042
-5.96869e-05
-0.000384216
-7.76298e-05
-0.000366188
-9.43553e-05
-0.000343904
-0.000109204
-0.00031744
-0.000121439
-0.000287062
-0.000130299
-0.000253301
-0.000135057
-0.000216994
-0.000135133
-0.000179293
-0.000130204
-0.000141606
-0.000120344
-0.000105471
-0.000106087
-7.23617e-05
-8.84627e-05
-4.34863e-05
-6.88661e-05
-1.96143e-05
-4.88679e-05
-1.03661e-06
-2.99274e-05
1.24027e-05
-1.31888e-05
2.11581e-05
6.56585e-07
2.58887e-05
1.13293e-05
2.73187e-05
1.89213e-05
2.62161e-05
2.37422e-05
2.32797e-05
2.62717e-05
1.91783e-05
2.69776e-05
1.44442e-05
2.62759e-05
9.61026e-06
2.431e-05
5.12287e-06
2.09374e-05
1.64766e-06
1.54794e-05
6.8225e-06
6.53988e-08
-2.20071e-06
-2.60148e-07
-3.36089e-06
-1.20217e-06
-2.48645e-06
-2.91229e-06
-1.3022e-07
-5.50746e-06
3.03697e-06
-9.18193e-06
7.03665e-06
-1.4177e-05
1.17424e-05
-2.07857e-05
1.7341e-05
-2.93161e-05
2.37993e-05
-4.00842e-05
3.12411e-05
-5.33974e-05
3.96352e-05
-6.95311e-05
4.90385e-05
-8.86895e-05
5.93532e-05
-0.000110945
7.04387e-05
-0.000136188
8.19337e-05
-0.000164086
9.33552e-05
-0.000194095
0.000104053
-0.000225509
0.000113358
-0.000257529
0.000120618
-0.000289339
0.000125315
-0.000320168
0.000127072
-0.00034933
0.000125702
-0.000376261
0.000121166
-0.000400531
0.000113583
-0.00042185
0.000103167
-0.000440051
9.02125e-05
-0.000455075
7.5041e-05
-0.000466929
5.79879e-05
-0.000475657
3.93693e-05
-0.000481303
1.94903e-05
-0.000483884
-1.36769e-06
-0.000483357
-2.29192e-05
-0.000479606
-4.48695e-05
-0.000472434
-6.68737e-05
-0.000461559
-8.85211e-05
-0.00044664
-0.000109292
-0.000427316
-0.000128546
-0.000403274
-0.000145499
-0.000374338
-0.000159253
-0.000340583
-0.000168827
-0.000302452
-0.000173277
-0.00026085
-0.000171819
-0.000217168
-0.000164034
-0.000173227
-0.000150035
-0.000131069
-0.000130624
-9.26603e-05
-0.000107277
-5.95407e-05
-8.19861e-05
-3.25897e-05
-5.68774e-05
-1.19568e-05
-3.38167e-05
2.76287e-06
-1.40599e-05
1.23246e-05
1.77486e-06
1.75925e-05
1.36568e-05
1.94691e-05
2.18742e-05
1.87755e-05
2.69675e-05
1.62984e-05
2.94642e-05
1.26936e-05
2.98804e-05
8.61405e-06
2.84002e-05
4.62706e-06
2.49205e-05
1.47599e-06
1.8643e-05
8.29742e-06
-2.0041e-07
-2.0027e-06
-1.1828e-06
-2.37645e-06
-3.0559e-06
-6.17515e-07
-5.90026e-06
2.7157e-06
-9.84323e-06
6.9756e-06
-1.51274e-05
1.23213e-05
-2.20756e-05
1.8686e-05
-3.10554e-05
2.632e-05
-4.24473e-05
3.51861e-05
-5.66154e-05
4.54071e-05
-7.38913e-05
5.69055e-05
-9.45213e-05
6.9665e-05
-0.000118615
8.34412e-05
-0.000146069
9.78882e-05
-0.000176531
0.000112389
-0.000209389
0.000126209
-0.000243835
0.000138492
-0.000278933
0.000148449
-0.000313714
0.000155391
-0.000347258
0.000158852
-0.000378767
0.000158572
-0.000407609
0.000154536
-0.000433358
0.000146906
-0.000455788
0.000136006
-0.000474858
0.00012223
-0.000490668
0.000106017
-0.000503415
8.77841e-05
-0.000513345
6.79158e-05
-0.000520708
4.67316e-05
-0.000525719
2.45031e-05
-0.000528528
1.44487e-06
-0.00052919
-2.2251e-05
-0.000527644
-4.64073e-05
-0.000523694
-7.08145e-05
-0.000516995
-9.521e-05
-0.000507055
-0.000119221
-0.000493254
-0.000142335
-0.000474894
-0.000163848
-0.000451283
-0.000182852
-0.000421869
-0.000198231
-0.000386408
-0.000208729
-0.000345153
-0.000213065
-0.000299027
-0.000210152
-0.000249703
-0.000199353
-0.000199533
-0.000180789
-0.000151269
-0.00015554
-0.000107565
-0.000125688
-7.04468e-05
-9.39985e-05
-4.08994e-05
-6.33657e-05
-1.88748e-05
-3.60898e-05
-3.57163e-06
-1.35309e-05
6.1151e-06
3.96338e-06
1.13547e-05
1.66325e-05
1.31923e-05
2.51222e-05
1.25877e-05
3.00683e-05
1.03437e-05
3.21158e-05
7.23258e-06
3.15132e-05
3.93546e-06
2.82072e-05
1.24781e-06
2.13353e-05
9.5383e-06
-5.33894e-07
-1.47016e-06
-2.30633e-06
-5.97216e-07
-5.27058e-06
2.34312e-06
-9.42899e-06
6.88055e-06
-1.49356e-05
1.24801e-05
-2.20965e-05
1.94883e-05
-3.13247e-05
2.79138e-05
-4.30569e-05
3.80583e-05
-5.77291e-05
4.98595e-05
-7.57205e-05
6.34046e-05
-9.73344e-05
7.85219e-05
-0.000122711
9.50482e-05
-0.000151774
0.000112507
-0.000184146
0.000130267
-0.00021916
0.000147407
-0.000255882
0.000162936
-0.000293214
0.000175829
-0.000329999
0.00018524
-0.000365139
0.000190537
-0.000397696
0.000191416
-0.000426977
0.000187858
-0.000452564
0.000180129
-0.00047432
0.000168667
-0.000492342
0.000154032
-0.000506907
0.000136798
-0.000518405
0.000117518
-0.000527277
9.6657e-05
-0.000533964
7.46027e-05
-0.00053887
5.16366e-05
-0.000542335
2.79657e-05
-0.000544612
3.7175e-06
-0.000545849
-2.10202e-05
-0.000546069
-4.61949e-05
-0.000545149
-7.17433e-05
-0.000542794
-9.7575e-05
-0.000538512
-0.000123514
-0.000531598
-0.000149261
-0.000521137
-0.000174321
-0.00050605
-0.000197952
-0.000485187
-0.000219106
-0.000457503
-0.000236425
-0.000422292
-0.000248285
-0.000379487
-0.000252964
-0.000329942
-0.000248904
-0.000275612
-0.000235122
-0.000219507
-0.000211646
-0.000165294
-0.0001799
-0.000116565
-0.000142727
-7.59457e-05
-0.000103982
-4.45323e-05
-6.75017e-05
-2.19167e-05
-3.61416e-05
-6.8098e-06
-1.11418e-05
2.36496e-06
7.46372e-06
7.0473e-06
2.04408e-05
8.49846e-06
2.8624e-05
7.74199e-06
3.28716e-05
5.70112e-06
3.35621e-05
3.17525e-06
3.07299e-05
1.00337e-06
2.35166e-05
1.05409e-05
-9.55367e-07
-5.20561e-07
-3.66836e-06
2.12216e-06
-7.89501e-06
6.56015e-06
-1.35557e-05
1.25458e-05
-2.08496e-05
1.97656e-05
-3.01563e-05
2.87972e-05
-4.19788e-05
3.97286e-05
-5.68034e-05
5.28831e-05
-7.50897e-05
6.81387e-05
-9.71786e-05
8.5492e-05
-0.00012327
0.000104606
-0.000153301
0.000125077
-0.000186904
0.000146104
-0.000223344
0.000166704
-0.000261576
0.000185632
-0.000300318
0.000201675
-0.000338213
0.000213718
-0.000373964
0.000220986
-0.000406496
0.000223062
-0.000435051
0.000219965
-0.000459244
0.000212046
-0.000479042
0.000199922
-0.000494703
0.000184323
-0.000506685
0.000166011
-0.00051556
0.000145671
-0.000521932
0.00012389
-0.000526387
0.000101112
-0.00052945
7.76682e-05
-0.000531571
5.37614e-05
-0.000533116
2.95158e-05
-0.000534365
4.97325e-06
-0.000535512
-1.9865e-05
-0.000536657
-4.50407e-05
-0.000537788
-7.06015e-05
-0.000538755
-9.6597e-05
-0.000539225
-0.000123032
-0.000538634
-0.00014984
-0.000536139
-0.000176805
-0.000530588
-0.000203493
-0.000520537
-0.000229148
-0.000504343
-0.000252612
-0.000480366
-0.000272258
-0.000447293
-0.000286034
-0.000404564
-0.000291631
-0.000352831
-0.000286854
-0.000294296
-0.000270181
-0.000232729
-0.000241465
-0.000172953
-0.000202504
-0.000119724
-0.00015721
-7.63944e-05
-0.000110835
-4.40399e-05
-6.84975e-05
-2.17386e-05
-3.34475e-05
-7.54096e-06
-6.73517e-06
5.71549e-07
1.2323e-05
4.36063e-06
2.48347e-05
5.21073e-06
3.20153e-05
4.27618e-06
3.44982e-05
2.50844e-06
3.24901e-05
8.08578e-07
2.52198e-05
1.13445e-05
-1.46082e-06
9.3664e-07
-5.25442e-06
5.92943e-06
-1.08973e-05
1.21948e-05
-1.82276e-05
1.98878e-05
-2.7508e-05
2.90411e-05
-3.91946e-05
4.04939e-05
-5.38667e-05
5.43987e-05
-7.20261e-05
7.10514e-05
-9.41044e-05
9.02173e-05
-0.00012033
0.000111725
-0.000150702
0.000134981
-0.000184851
0.000159233
-0.000222024
0.00018328
-0.00026106
0.000205747
-0.000300527
0.000225102
-0.000338853
0.000240006
-0.000374554
0.000249423
-0.000406409
0.000252846
-0.000433615
0.000250271
-0.000455828
0.000242183
-0.000473143
0.000229365
-0.000485988
0.000212772
-0.000495009
0.000193347
-0.000500945
0.00017195
-0.000504535
0.000149263
-0.000506453
0.00012581
-0.000507276
0.000101936
-0.000507471
7.78631e-05
-0.000507408
5.36967e-05
-0.000507373
2.94784e-05
-0.00050759
5.18595e-06
-0.000508231
-1.92285e-05
-0.000509429
-4.38491e-05
-0.000511265
-6.87716e-05
-0.000513754
-9.41136e-05
-0.000516804
-0.00011999
-0.00052015
-0.0001465
-0.000523278
-0.000173682
-0.000525334
-0.000201441
-0.000525043
-0.000229445
-0.000520673
-0.000256986
-0.000510107
-0.000282829
-0.00049105
-0.000305095
-0.000461445
-0.000321241
-0.000420055
-0.000328247
-0.000367166
-0.000323074
-0.000305161
-0.000303471
-0.000238679
-0.000268986
-0.000173931
-0.000221955
-0.000117082
-0.000167682
-7.21897e-05
-0.000113386
-4.00957e-05
-6.55402e-05
-1.90678e-05
-2.77593e-05
-6.47225e-06
-2.71923e-07
1.83623e-07
1.81834e-05
2.85269e-06
2.93457e-05
3.06558e-06
3.4291e-05
2.00362e-06
3.35498e-05
6.85357e-07
2.65448e-05
1.20294e-05
-2.0665e-06
2.99314e-06
-7.08554e-06
1.0961e-05
-1.4294e-05
1.93865e-05
-2.34502e-05
2.90527e-05
-3.48934e-05
4.04709e-05
-4.91461e-05
5.47513e-05
-6.68345e-05
7.20758e-05
-8.84251e-05
9.26436e-05
-0.000114254
0.000116037
-0.000144347
0.000141817
-0.000178404
0.000169029
-0.000215649
0.000196477
-0.000254884
0.000222507
-0.000294524
0.000245384
-0.000332832
0.000263403
-0.000368124
0.000275295
-0.000399052
0.000280345
-0.000424754
0.000278544
-0.000444942
0.000270454
-0.000459836
0.000257075
-0.000470049
0.000239574
-0.000476409
0.00021913
-0.000479816
0.000196752
-0.000481119
0.000173252
-0.000481048
0.000149192
-0.000480183
0.000124945
-0.000478953
0.000100707
-0.000477665
7.65764e-05
-0.000476529
5.25632e-05
-0.000475695
2.86485e-05
-0.000475284
4.77851e-06
-0.000475403
-1.91041e-05
-0.000476168
-4.30785e-05
-0.000477702
-6.72312e-05
-0.000480131
-9.16781e-05
-0.000483557
-0.000116557
-0.000488014
-0.000142037
-0.000493391
-0.000168297
-0.00049933
-0.000195496
-0.000505082
-0.000223685
-0.000509376
-0.000252685
-0.000510306
-0.000281893
-0.000505341
-0.000310055
-0.000491523
-0.000335056
-0.00046595
-0.000353818
-0.000426554
-0.000362471
-0.000373093
-0.000356933
-0.000308088
-0.000333993
-0.000237172
-0.000292872
-0.000168234
-0.000236622
-0.000109006
-0.000172615
-6.40819e-05
-0.000110466
-3.35959e-05
-5.82463e-05
-1.47992e-05
-1.90719e-05
-4.32481e-06
7.70848e-06
5.97731e-07
2.44192e-05
2.08895e-06
3.28006e-05
1.69588e-06
3.39376e-05
6.52919e-07
2.759e-05
1.26787e-05
-2.75133e-06
5.73781e-06
-9.10616e-06
1.7338e-05
-1.79868e-05
2.82529e-05
-2.90751e-05
4.01592e-05
-4.27923e-05
5.41797e-05
-5.97046e-05
7.16783e-05
-8.04411e-05
9.28083e-05
-0.000105368
0.000117583
-0.000134646
0.000145313
-0.000168001
0.000175183
-0.000204745
0.000205774
-0.00024364
0.00023538
-0.000283052
0.000261921
-0.000321078
0.000283417
-0.000355884
0.000298211
-0.000385961
0.000305378
-0.000410392
0.000304778
-0.000428909
0.000297066
-0.000441859
0.000283407
-0.000450017
0.000265237
-0.000454393
0.000243953
-0.000456032
0.000220772
-0.00045588
0.000196602
-0.000454698
0.000172072
-0.000453046
0.00014754
-0.00045129
0.000123189
-0.000449646
9.90622e-05
-0.000448223
7.51517e-05
-0.000447068
5.14054e-05
-0.000446201
2.77778e-05
-0.000445644
4.2168e-06
-0.000445439
-1.9314e-05
-0.000445665
-4.28587e-05
-0.000446439
-6.64626e-05
-0.000447927
-9.0197e-05
-0.000450326
-0.000114164
-0.000453852
-0.000138517
-0.000458691
-0.000163465
-0.000464922
-0.00018927
-0.00047239
-0.000216222
-0.000480537
-0.000244541
-0.000488191
-0.000274242
-0.000493377
-0.00030487
-0.000493235
-0.000335198
-0.000484179
-0.000362875
-0.000462418
-0.000384231
-0.000424952
-0.0003944
-0.000370922
-0.000388025
-0.000303008
-0.000360787
-0.000228071
-0.000311559
-0.000155989
-0.000244695
-9.61179e-05
-0.000170335
-5.30403e-05
-0.000101321
-2.56025e-05
-4.65085e-05
-9.82107e-06
-8.07076e-06
-1.87693e-06
1.64752e-05
1.20279e-06
2.97243e-05
1.52774e-06
3.36112e-05
6.92745e-07
2.84299e-05
1.33711e-05
-3.51905e-06
9.24195e-06
-1.13029e-05
2.51418e-05
-2.19334e-05
3.88583e-05
-3.50182e-05
5.32575e-05
-5.10523e-05
7.01948e-05
-7.0607e-05
9.12405e-05
-9.42576e-05
0.000116444
-0.000122199
0.000145528
-0.000154335
0.000177436
-0.000190015
0.000210864
-0.000228112
0.00024386
-0.000266943
0.00027421
-0.00030455
0.000299519
-0.000338925
0.000317789
-0.000368426
0.000327706
-0.000392012
0.000328963
-0.000409418
0.000322178
-0.000421055
0.000308701
-0.00042785
0.000290198
-0.000430965
0.000268351
-0.000431588
0.000244573
-0.000430743
0.000219926
-0.000429222
0.000195078
-0.000427549
0.000170399
-0.000426027
0.000146017
-0.00042478
0.000121942
-0.00042382
9.81033e-05
-0.000423099
7.44318e-05
-0.000422547
5.08553e-05
-0.000422102
2.73351e-05
-0.000421727
3.84501e-06
-0.000421421
-1.9616e-05
-0.000421229
-4.30471e-05
-0.000421242
-6.64449e-05
-0.000421611
-8.98235e-05
-0.000422544
-0.000113227
-0.00042431
-0.000136746
-0.000427225
-0.000160545
-0.000431618
-0.000184874
-0.000437748
-0.000210088
-0.000445681
-0.000236605
-0.00045507
-0.00026485
-0.000464894
-0.000295044
-0.000473164
-0.000326925
-0.000476756
-0.00035928
-0.000471486
-0.000389499
-0.000452688
-0.000413197
-0.000416404
-0.000424309
-0.000361189
-0.000416005
-0.000290064
-0.000382686
-0.00021151
-0.000323251
-0.000137768
-0.000244078
-7.953e-05
-0.000159559
-4.04076e-05
-8.56311e-05
-1.72379e-05
-3.12421e-05
-5.08491e-06
4.32035e-06
1.54907e-07
2.44842e-05
1.39373e-06
3.2369e-05
7.76779e-07
2.90485e-05
1.41452e-05
-4.32296e-06
1.35548e-05
-1.3564e-05
3.44145e-05
-2.59488e-05
5.12219e-05
-4.10094e-05
6.83433e-05
-5.92956e-05
8.84686e-05
-8.13354e-05
0.0001133
-0.000107588
0.00014269
-0.000138007
0.000175962
-0.000172168
0.000211595
-0.000209003
0.000247711
-0.000246958
0.000281815
-0.000284011
0.000311274
-0.000318086
0.000333595
-0.000347345
0.000347057
-0.000370623
0.000350985
-0.000387545
0.000345892
-0.000398558
0.000333193
-0.000404667
0.000314816
-0.000407182
0.000292715
-0.000407404
0.000268577
-0.000406449
0.00024362
-0.000405127
0.000218607
-0.000403945
0.000193896
-0.000403136
0.000169592
-0.000402751
0.000145631
-0.000402714
0.000121905
-0.000402904
9.82913e-05
-0.00040318
7.47068e-05
-0.000403424
5.10966e-05
-0.000403542
2.74508e-05
-0.000403481
3.77998e-06
-0.00040322
-1.988e-05
-0.000402783
-4.34877e-05
-0.000402233
-6.6999e-05
-0.000401683
-9.03783e-05
-0.0004013
-0.000113615
-0.000401322
-0.000136728
-0.000402063
-0.000159808
-0.000403921
-0.000183021
-0.000407342
-0.000206671
-0.000412762
-0.000231188
-0.000420453
-0.000257162
-0.000430286
-0.000285213
-0.000441385
-0.000315827
-0.000451758
-0.000348908
-0.000457998
-0.000383258
-0.000455329
-0.000415865
-0.00043821
-0.000441426
-0.000401798
-0.000452417
-0.00034425
-0.000440234
-0.000269362
-0.000398141
-0.000187861
-0.000325578
-0.000114648
-0.000232772
-6.08778e-05
-0.000139396
-2.76602e-05
-6.44594e-05
-9.68355e-06
-1.36549e-05
-1.40293e-06
1.62045e-05
1.13565e-06
2.98301e-05
8.56103e-07
2.9331e-05
1.50013e-05
-5.15126e-06
1.86861e-05
-1.58402e-05
4.51312e-05
-2.99341e-05
6.52821e-05
-4.68819e-05
8.531e-05
-6.72536e-05
0.000108816
-9.14796e-05
0.000137536
-0.000119844
0.000171036
-0.000152003
0.000208126
-0.000187172
0.000246749
-0.000223875
0.000284415
-0.000260226
0.000318154
-0.000294043
0.00034509
-0.000323381
0.000362924
-0.000346837
0.000370511
-0.000363902
0.000368043
-0.000374922
0.00035691
-0.000380952
0.000339218
-0.000383381
0.000317243
-0.00038364
0.000292969
-0.000382922
0.000267857
-0.000382086
0.00024278
-0.000381621
0.000218141
-0.000381724
0.000193996
-0.000382369
0.000170237
-0.000383424
0.000146685
-0.000384699
0.000123181
-0.000386012
9.96045e-05
-0.000387202
7.58983e-05
-0.000388149
5.20454e-05
-0.000388769
2.8073e-05
-0.000389016
4.029e-06
-0.000388872
-2.00207e-05
-0.000388353
-4.40036e-05
-0.000387499
-6.78496e-05
-0.000386386
-9.14888e-05
-0.000385123
-0.000114874
-0.000383881
-0.000137967
-0.000382898
-0.000160788
-0.000382512
-0.000183404
-0.000383169
-0.000206012
-0.000385422
-0.000228932
-0.000389863
-0.00025272
-0.00039697
-0.000278105
-0.000406816
-0.00030598
-0.000418656
-0.000337068
-0.000430425
-0.000371489
-0.000438369
-0.00040792
-0.000437032
-0.000442761
-0.000420002
-0.000469446
-0.000381691
-0.000478544
-0.000320284
-0.000459552
-0.00024111
-0.000404755
-0.000158018
-0.000315868
-8.85063e-05
-0.000208906
-4.21952e-05
-0.00011077
-1.63427e-05
-3.95068e-05
-3.8359e-06
3.69505e-06
5.94642e-07
2.53988e-05
8.85996e-07
2.90394e-05
1.5886e-05
-5.93194e-06
2.46046e-05
-1.79708e-05
5.72109e-05
-3.36359e-05
8.09192e-05
-5.22796e-05
0.000103986
-7.4451e-05
0.000130971
-0.000100432
0.000163541
-0.000130282
0.000200878
-0.000163331
0.000241193
-0.00019844
0.000281855
-0.000233795
0.000319784
-0.000267326
0.000351684
-0.000296913
0.000374688
-0.000320979
0.000386991
-0.000338724
0.000388266
-0.000350353
0.000379673
-0.000356828
0.000363392
-0.000359607
0.000341999
-0.000360199
0.000317842
-0.000359917
0.000292688
-0.000359669
0.000267613
-0.000359973
0.000243085
-0.00036099
0.000219161
-0.00036266
0.000195666
-0.000364787
0.000172366
-0.000367144
0.000149041
-0.000369505
0.000125542
-0.000371689
0.000101788
-0.000373553
7.7762e-05
-0.000375004
5.34946e-05
-0.00037598
2.90478e-05
-0.000376456
4.50237e-06
-0.000376425
-2.00535e-05
-0.000375906
-4.45254e-05
-0.000374929
-6.88293e-05
-0.000373545
-9.28758e-05
-0.000371821
-0.000116601
-0.000369859
-0.000139931
-0.000367807
-0.000162844
-0.000365892
-0.000185321
-0.000364451
-0.000207455
-0.00036397
-0.000229415
-0.000365082
-0.00025161
-0.000368533
-0.000274656
-0.000374989
-0.000299525
-0.00038472
-0.000327338
-0.000397048
-0.000359161
-0.000409751
-0.000395219
-0.000418559
-0.000433951
-0.000417215
-0.00047079
-0.000398403
-0.000497351
-0.000356078
-0.000501878
-0.000289166
-0.000471667
-0.00020572
-0.00039932
-0.000123707
-0.000290918
-6.19823e-05
-0.000172493
-2.56387e-05
-7.58442e-05
-7.4926e-06
-1.44552e-05
-3.71919e-07
1.82813e-05
8.25691e-07
2.78407e-05
1.6713e-05
-6.64458e-06
3.12247e-05
-1.98909e-05
7.04916e-05
-3.69341e-05
9.79208e-05
-5.7011e-05
0.000124086
-8.06027e-05
0.000154533
-0.000107801
0.000190753
-0.000138417
0.000231471
-0.000171457
0.00027424
-0.000205484
0.000315864
-0.000238465
0.000352768
-0.00026833
0.000381534
-0.000293224
0.000399582
-0.000312101
0.000405857
-0.000324827
0.000400992
-0.000332233
0.00038707
-0.000335708
0.000366866
-0.000336861
0.000343144
-0.000337088
0.000318067
-0.000337416
0.000293011
-0.000338399
0.000268594
-0.000340221
0.000244903
-0.000342784
0.000221722
-0.000345868
0.000198747
-0.000349198
0.000175696
-0.000352529
0.000152371
-0.000355651
0.000128665
-0.000358415
0.000104551
-0.000360711
8.0059e-05
-0.000362476
5.52598e-05
-0.000363671
3.02452e-05
-0.000364291
5.12369e-06
-0.000364342
-2.00005e-05
-0.00036385
-4.50152e-05
-0.000362846
-6.98307e-05
-0.000361374
-9.4346e-05
-0.000359476
-0.000118496
-0.000357212
-0.000142192
-0.000354659
-0.000165395
-0.000351941
-0.000188036
-0.000349257
-0.000210137
-0.000346943
-0.000231727
-0.000345502
-0.00025305
-0.000345658
-0.000274498
-0.000348287
-0.000296896
-0.000354252
-0.000321373
-0.000363961
-0.000349452
-0.000376741
-0.000382441
-0.000390026
-0.000420663
-0.000398851
-0.000461967
-0.000395944
-0.000500253
-0.000373158
-0.000524665
-0.000324456
-0.000520364
-0.000250711
-0.000473076
-0.000164315
-0.000377312
-8.79009e-05
-0.000248916
-3.81691e-05
-0.00012556
-1.26486e-05
-3.99861e-05
-1.89427e-06
7.53198e-06
6.52071e-07
2.52891e-05
1.73663e-05
-7.20499e-06
3.8414e-05
-2.14239e-05
8.47586e-05
-3.95643e-05
0.000116028
-6.07249e-05
0.000145284
-8.52753e-05
0.000179064
-0.000113093
0.000218598
-0.000143736
0.000262104
-0.000175931
0.000306457
-0.000208026
0.000347955
-0.000237917
0.000382674
-0.000263704
0.00040732
-0.000283951
0.000419841
-0.000298212
0.000420119
-0.000306964
0.000409755
-0.000311499
0.000391607
-0.0003134
0.000368775
-0.000314203
0.000343949
-0.000315034
0.000318905
-0.000316568
0.000294547
-0.000319015
0.000271047
-0.000322304
0.000248193
-0.000326179
0.000225601
-0.000330351
0.000202921
-0.000334541
0.000179888
-0.000338529
0.00015636
-0.000342144
0.000132281
-0.000345273
0.000107679
-0.000347834
8.2621e-05
-0.000349788
5.72122e-05
-0.000351111
3.15674e-05
-0.000351808
5.81979e-06
-0.000351897
-1.99129e-05
-0.000351413
-4.55009e-05
-0.000350395
-7.08507e-05
-0.000348891
-9.58519e-05
-0.000346942
-0.000120447
-0.000344592
-0.000144543
-0.00034188
-0.00016811
-0.000338861
-0.000191056
-0.000335623
-0.000213377
-0.000332345
-0.000235006
-0.000329344
-0.000256053
-0.000327165
-0.000276678
-0.000326604
-0.000297457
-0.000328702
-0.000319276
-0.000334474
-0.00034368
-0.000344438
-0.000372479
-0.000357739
-0.000407361
-0.000371274
-0.000448436
-0.00037905
-0.000492471
-0.000372675
-0.000531043
-0.000343324
-0.000549705
-0.000285943
-0.000530465
-0.000205069
-0.000458182
-0.000119462
-0.000334539
-5.47527e-05
-0.000190252
-1.94711e-05
-7.52712e-05
-4.13379e-06
-7.80134e-06
3.54105e-07
2.07958e-05
1.77238e-05
-7.59991e-06
4.59863e-05
-2.25232e-05
9.97201e-05
-4.14406e-05
0.000134899
-6.32915e-05
0.000167161
-8.82971e-05
0.000204037
-0.000116117
0.000246433
-0.000146083
0.000292045
-0.000176708
0.000337089
-0.000206236
0.000377464
-0.000232637
0.000409077
-0.000254316
0.000428983
-0.000270335
0.000435861
-0.000280825
0.000430596
-0.00028674
0.000415669
-0.00028963
0.000394486
-0.00029106
0.000370203
-0.000292338
0.000345219
-0.000294251
0.000320815
-0.000297132
0.000297421
-0.00030093
0.000274843
-0.000305412
0.00025267
-0.000310259
0.000230447
-0.000315186
0.000207843
-0.000319943
0.000184645
-0.000324358
0.000160772
-0.000328294
0.000136217
-0.000331666
0.000111051
-0.000334411
8.53661e-05
-0.000336496
5.92979e-05
-0.000337907
3.29783e-05
-0.000338651
6.56487e-06
-0.000338752
-1.98111e-05