/*--------------------------------*- C++ -*----------------------------------*\
| =========                 |                                                 |
| \\      /  F ield         | OpenFOAM: The Open Source CFD Toolbox           |
|  \\    /   O peration     | Version:  2406                                  |
|   \\  /    A nd           | Website:  www.openfoam.com                      |
|    \\/     M anipulation  |                                                 |
\*---------------------------------------------------------------------------*/
FoamFile
{
    version     2.0;
    format      ascii;
    arch        "LSB;label=32;scalar=64";
    class       volScalarField;
    location    "18.5";
    object      p;
}
// * * * * * * * * * * * * * * * * * * * * * * * * * * * * * * * * * * * * * //

dimensions      [0 2 -2 0 0 0 0];

internalField   nonuniform List<scalar> 
16384
(
-4.81358e-08
6.19551e-07
5.02438e-08
-2.22984e-06
-6.32774e-06
-1.21549e-05
-1.95537e-05
-2.83526e-05
-3.84008e-05
-4.95858e-05
-6.18355e-05
-7.5075e-05
-8.93015e-05
-0.000104502
-0.000120676
-0.000137835
-0.000155989
-0.00017515
-0.000195325
-0.00021652
-0.000238737
-0.000261978
-0.000286241
-0.000311525
-0.000337823
-0.000365131
-0.00039344
-0.000422743
-0.000453028
-0.000484279
-0.000516473
-0.000549577
-0.000583546
-0.000618321
-0.00065382
-0.000689939
-0.000726545
-0.000763475
-0.000800526
-0.000837454
-0.000873969
-0.00090973
-0.00094434
-0.000977342
-0.00100822
-0.00103639
-0.0010612
-0.00108195
-0.00109784
-0.00110807
-0.00111173
-0.0011079
-0.00109565
-0.001074
-0.00104201
-0.000998767
-0.00094341
-0.000875176
-0.00079342
-0.000697651
-0.000587566
-0.000463084
-0.000324374
-0.000171892
-6.39788e-06
0.000171017
0.00035895
0.000555726
0.000759043
0.000966592
0.00117566
0.00138328
0.00158627
0.00178135
0.00196515
0.00213434
0.00228568
0.00241617
0.00252307
0.00260403
0.0026572
0.00268122
0.00267534
0.00263942
0.00257398
0.00248015
0.00235954
0.00221456
0.00204782
0.00186244
0.00166175
0.00144925
0.00122849
0.00100295
0.00077595
0.000550578
0.000329603
0.000115435
-8.99052e-05
-0.000284799
-0.000468031
-0.00063876
-0.000796499
-0.00094107
-0.00107257
-0.0011913
-0.00129778
-0.00139262
-0.00147654
-0.00155034
-0.00161481
-0.00167077
-0.00171899
-0.00176023
-0.00179516
-0.00182441
-0.00184851
-0.00186792
-0.00188299
-0.00189403
-0.00190123
-0.00190479
-0.00190489
-0.00190182
-0.00189612
-0.00188874
-0.00188109
-0.00187581
-1.69184e-06
-7.40183e-07
-1.27521e-06
-3.53346e-06
-7.4838e-06
-1.30411e-05
-2.0085e-05
-2.84839e-05
-3.8119e-05
-4.88946e-05
-6.07423e-05
-7.36276e-05
-8.75031e-05
-0.000102359
-0.00011819
-0.000134999
-0.00015279
-0.000171566
-0.000191329
-0.000212079
-0.000233815
-0.000256531
-0.000280225
-0.000304889
-0.000330517
-0.0003571
-0.000384626
-0.000413085
-0.00044246
-0.000472734
-0.000503881
-0.000535865
-0.000568639
-0.000602143
-0.000636295
-0.000670994
-0.00070611
-0.000741486
-0.000776926
-0.000812198
-0.000847026
-0.000881085
-0.000913997
-0.000945331
-0.000974595
-0.00100123
-0.00102463
-0.00104411
-0.00105894
-0.00106831
-0.00107138
-0.00106727
-0.00105506
-0.00103383
-0.00100266
-0.000960665
-0.000907004
-0.000840928
-0.000761801
-0.000669131
-0.000562607
-0.000442129
-0.000307844
-0.000160172
1.56656e-07
0.000172062
0.000354167
0.00054513
0.000742733
0.000944468
0.00114772
0.00134961
0.00154706
0.00173685
0.00191569
0.00208032
0.00222756
0.00235445
0.00245831
0.00253684
0.0025882
0.00261107
0.00260472
0.00256902
0.00250448
0.00241221
0.00229391
0.00215173
0.00198843
0.00180704
0.00161079
0.00140313
0.00118752
0.000967347
0.000745848
0.000526005
0.000310493
0.000101628
-9.86607e-05
-0.000288788
-0.00046761
-0.000634352
-0.000788555
-0.000930058
-0.00105896
-0.00117555
-0.00128033
-0.00137387
-0.00145688
-0.00153009
-0.00159426
-0.00165016
-0.00169853
-0.00174007
-0.00177545
-0.00180524
-0.00182998
-0.00185011
-0.001866
-0.00187797
-0.00188626
-0.00189108
-0.00189268
-0.00189134
-0.00188754
-0.00188201
-0.00187583
-0.00187053
-1.70265e-06
-6.3231e-07
-1.13181e-06
-3.37915e-06
-7.24533e-06
-1.26223e-05
-1.94058e-05
-2.74923e-05
-3.67904e-05
-4.72194e-05
-5.87175e-05
-7.12488e-05
-8.47797e-05
-9.92933e-05
-0.000114782
-0.00013124
-0.000148664
-0.000167052
-0.000186401
-0.000206705
-0.00022796
-0.000250156
-0.000273285
-0.000297338
-0.000322303
-0.000348171
-0.000374927
-0.000402559
-0.00043105
-0.000460379
-0.000490521
-0.000521443
-0.000553097
-0.000585426
-0.000618354
-0.000651786
-0.000685601
-0.000719651
-0.000753756
-0.000787699
-0.000821224
-0.000854027
-0.000885756
-0.000916005
-0.000944312
-0.000970154
-0.000992947
-0.00101204
-0.00102674
-0.00103626
-0.0010398
-0.00103649
-0.00102544
-0.00100573
-0.000976463
-0.000936739
-0.000885721
-0.000822642
-0.000746845
-0.000657809
-0.000555188
-0.000438839
-0.000308861
-0.000165624
-9.80984e-06
0.000157566
0.00033523
0.000521804
0.000714913
0.000912386
0.00111164
0.00130982
0.00150386
0.00169056
0.00186665
0.00202886
0.00217404
0.00229922
0.00240171
0.00247922
0.00252989
0.00255239
0.00254599
0.00251055
0.00244657
0.00235516
0.00223805
0.00209747
0.00193579
0.00175657
0.00156278
0.00135786
0.00114528
0.000928417
0.000710461
0.000494359
0.000282737
7.78623e-05
-0.000118383
-0.000304546
-0.00047953
-0.000642584
-0.000793302
-0.000931574
-0.00105753
-0.0011715
-0.00127398
-0.00136556
-0.00144693
-0.0015188
-0.00158193
-0.00163705
-0.00168487
-0.00172609
-0.00176132
-0.00179115
-0.00181607
-0.00183653
-0.00185291
-0.00186551
-0.0018746
-0.0018804
-0.00188313
-0.00188304
-0.00188047
-0.00187586
-0.00186967
-0.00186281
2.68448e-07
1.30254e-06
7.50894e-07
-1.55186e-06
-5.41763e-06
-1.07174e-05
-1.73526e-05
-2.52335e-05
-3.42818e-05
-4.44382e-05
-5.56475e-05
-6.78749e-05
-8.10944e-05
-9.52905e-05
-0.000110454
-0.000126577
-0.000143653
-0.000161674
-0.000180632
-0.000200518
-0.000221322
-0.000243033
-0.000265638
-0.000289124
-0.000313479
-0.00033869
-0.000364744
-0.000391627
-0.000419323
-0.000447815
-0.00047708
-0.000507089
-0.000537803
-0.000569171
-0.000601129
-0.000633593
-0.000666459
-0.000699596
-0.000732844
-0.00076601
-0.000798862
-0.000831125
-0.000862476
-0.00089254
-0.000920886
-0.000947021
-0.00097039
-0.000990371
-0.00100628
-0.00101737
-0.00102283
-0.0010218
-0.00101338
-0.000996658
-0.00097069
-0.000934561
-0.000887391
-0.000828369
-0.000756783
-0.000672058
-0.000573786
-0.000461763
-0.000336023
-0.000196881
-4.49727e-05
0.000118802
0.000293444
0.000476853
0.00066731
0.000862548
0.00105997
0.00125672
0.00144973
0.00163577
0.00181154
0.00197375
0.00211919
0.00224485
0.00234798
0.00242624
0.0024777
0.00250102
0.00249539
0.00246067
0.00239733
0.00230649
0.00218986
0.00204969
0.00188865
0.00170988
0.0015167
0.00131253
0.00110095
0.000885335
0.000668912
0.000454653
0.000245186
4.27624e-05
-0.00015077
-0.000333979
-0.000505809
-0.000665627
-0.000813063
-0.00094807
-0.00107084
-0.00118177
-0.00128139
-0.00137033
-0.0014493
-0.00151905
-0.00158032
-0.00163385
-0.00168035
-0.0017205
-0.0017549
-0.00178412
-0.00180866
-0.00182895
-0.00184535
-0.00185817
-0.00186766
-0.00187401
-0.00187739
-0.00187796
-0.00187591
-0.00187139
-0.00186434
-0.00185554
4.33763e-06
5.09589e-06
4.30692e-06
1.82892e-06
-2.13352e-06
-7.44817e-06
-1.4023e-05
-2.17783e-05
-3.06496e-05
-4.05847e-05
-5.15449e-05
-6.35022e-05
-7.64379e-05
-9.03396e-05
-0.000105198
-0.000121004
-0.00013775
-0.000155425
-0.000174017
-0.000193514
-0.0002139
-0.000235163
-0.000257287
-0.000280257
-0.000304059
-0.000328681
-0.00035411
-0.000380335
-0.000407347
-0.000435132
-0.000463676
-0.000492959
-0.000522957
-0.000553632
-0.000584938
-0.000616812
-0.000649173
-0.000681916
-0.000714911
-0.000747996
-0.000780971
-0.000813597
-0.000845585
-0.000876595
-0.000906226
-0.000934015
-0.00095943
-0.000981868
-0.00100065
-0.00101503
-0.0010242
-0.00102726
-0.0010233
-0.00101135
-0.000990424
-0.000959543
-0.000917761
-0.000864194
-0.000798056
-0.000718691
-0.000625613
-0.000518541
-0.000397438
-0.000262554
-0.000114479
4.59197e-05
0.000217718
0.000398961
0.000587799
0.000781986
0.000978935
0.00117578
0.00136942
0.0015566
0.00173395
0.00189812
0.00204583
0.00217397
0.00227972
0.00236063
0.00241471
0.0024405
0.00243714
0.00240442
0.00234276
0.00225327
0.00213764
0.00199815
0.00183755
0.001659
0.00146595
0.00126166
0.00105021
0.000834821
0.000618845
0.000405328
0.000196952
-3.99899e-06
-0.000195669
-0.000376634
-0.000545885
-0.000702776
-0.000847083
-0.0009788
-0.00109819
-0.00120572
-0.001302
-0.00138772
-0.00146364
-0.00153055
-0.00158923
-0.00164043
-0.00168488
-0.00172325
-0.00175617
-0.00178417
-0.00180776
-0.00182736
-0.00184331
-0.00185592
-0.00186538
-0.00187188
-0.00187549
-0.0018763
-0.00187433
-0.00186947
-0.00186128
-0.0018505
1.04454e-05
1.06842e-05
9.46695e-06
6.68272e-06
2.52093e-06
-2.89563e-06
-9.48614e-06
-1.71801e-05
-2.59275e-05
-3.56887e-05
-4.64375e-05
-5.81572e-05
-7.08375e-05
-8.44707e-05
-9.90495e-05
-0.000114566
-0.00013101
-0.00014837
-0.000166631
-0.000185779
-0.000205796
-0.000226665
-0.00024837
-0.000270895
-0.000294227
-0.000318356
-0.000343274
-0.000368977
-0.000395462
-0.000422729
-0.000450778
-0.000479605
-0.000509205
-0.000539566
-0.000570667
-0.000602477
-0.000634946
-0.000668009
-0.000701573
-0.000735516
-0.000769682
-0.000803872
-0.000837837
-0.000871272
-0.000903808
-0.000935005
-0.000964344
-0.000991228
-0.00101497
-0.00103481
-0.00104988
-0.00105928
-0.001062
-0.00105702
-0.00104327
-0.00101969
-0.000985232
-0.000938923
-0.000879878
-0.000807348
-0.000720754
-0.00061973
-0.000504157
-0.00037421
-0.000230415
-7.3598e-05
9.53418e-05
0.000274556
0.000462167
0.000655936
0.000853273
0.0010513
0.00124688
0.0014367
0.00161735
0.00178539
0.00193743
0.00207027
0.00218096
0.00226692
0.00232604
0.00235672
0.00235798
0.00232951
0.00227164
0.00218541
0.00207247
0.0019351
0.00177607
0.00159857
0.00140611
0.0012023
0.00099093
0.000775554
0.000559689
0.000346436
0.00013859
-6.14892e-05
-0.000251888
-0.000431153
-0.000598275
-0.000752639
-0.00089403
-0.00102255
-0.00113852
-0.00124248
-0.00133512
-0.00141721
-0.00148959
-0.00155311
-0.00160859
-0.00165683
-0.0016986
-0.00173457
-0.00176538
-0.00179159
-0.00181369
-0.00183208
-0.00184712
-0.00185906
-0.00186809
-0.00187434
-0.00187783
-0.00187853
-0.00187635
-0.00187096
-0.00186164
-0.00184912
1.84341e-05
1.79476e-05
1.61351e-05
1.29208e-05
8.46277e-06
2.86451e-06
-3.80501e-06
-1.1493e-05
-2.01631e-05
-2.97916e-05
-4.03666e-05
-5.18835e-05
-6.43409e-05
-7.77376e-05
-9.20705e-05
-0.000107333
-0.000123516
-0.000140606
-0.000158588
-0.000177446
-0.00019716
-0.000217712
-0.000239085
-0.000261267
-0.000284248
-0.000308024
-0.000332595
-0.000357968
-0.000384157
-0.000411178
-0.000439053
-0.000467805
-0.000497458
-0.000528036
-0.000559555
-0.000592026
-0.000625448
-0.000659801
-0.000695044
-0.000731107
-0.000767883
-0.00080522
-0.000842911
-0.000880688
-0.000918205
-0.000955038
-0.00099067
-0.00102449
-0.00105578
-0.00108374
-0.00110745
-0.00112591
-0.00113805
-0.00114274
-0.0011388
-0.00112507
-0.0011004
-0.00106367
-0.00101391
-0.000950257
-0.000872019
-0.000778738
-0.000670204
-0.000546501
-0.00040805
-0.000255602
-9.01637e-05
8.66372e-05
0.000272915
0.00046645
0.000664663
0.000864667
0.00106331
0.00125723
0.00144296
0.00161695
0.00177572
0.00191594
0.0020345
0.00212865
0.00219611
0.00223509
0.00224444
0.00222365
0.00217292
0.00209315
0.0019859
0.00185338
0.00169835
0.00152403
0.00133395
0.00113189
0.000921676
0.000707086
0.000491723
0.000278862
7.14829e-05
-0.000127955
-0.000317425
-0.000495396
-0.00066081
-0.00081305
-0.000951869
-0.00107744
-0.00119014
-0.00129057
-0.0013795
-0.00145779
-0.00152636
-0.00158613
-0.001638
-0.00168283
-0.0017214
-0.00175447
-0.00178266
-0.00180657
-0.00182667
-0.0018434
-0.00185706
-0.00186792
-0.00187614
-0.00188178
-0.00188482
-0.00188516
-0.00188257
-0.0018766
-0.00186629
-0.00185237
2.81074e-05
2.67263e-05
2.41698e-05
2.04217e-05
1.55836e-05
9.73643e-06
2.93224e-06
-4.79461e-06
-1.3427e-05
-2.29599e-05
-3.33974e-05
-4.47476e-05
-5.70192e-05
-7.02183e-05
-8.43472e-05
-9.94027e-05
-0.000115377
-0.000132257
-0.000150028
-0.000168673
-0.000188172
-0.000208509
-0.000229671
-0.000251649
-0.000274442
-0.000298055
-0.000322504
-0.000347815
-0.000374023
-0.000401171
-0.000429315
-0.000458515
-0.000488837
-0.000520352
-0.000553131
-0.000587241
-0.00062274
-0.000659671
-0.000698055
-0.000737885
-0.000779111
-0.000821631
-0.000865283
-0.000909827
-0.000954937
-0.00100019
-0.00104505
-0.00108888
-0.0011309
-0.00117024
-0.00120589
-0.00123677
-0.00126168
-0.00127937
-0.00128854
-0.00128788
-0.00127612
-0.00125203
-0.00121447
-0.00116247
-0.00109522
-0.00101214
-0.000912928
-0.000797538
-0.000666238
-0.000519671
-0.000359042
-0.000185641
-1.33937e-06
0.000191694
0.000390913
0.000593449
0.000796146
0.000995622
0.00118834
0.00137067
0.00153901
0.00168988
0.00181998
0.00192637
0.00200649
0.00205834
0.0020805
0.00207221
0.00203342
0.00196482
0.00186778
0.00174439
0.0015973
0.00142969
0.00124514
0.00104747
0.00084063
0.000628555
0.000415012
0.000203493
-2.87075e-06
-0.000201423
-0.000389948
-0.000566796
-0.000730799
-0.000881272
-0.00101796
-0.00114092
-0.00125068
-0.00134785
-0.00143325
-0.00150782
-0.00157256
-0.00162847
-0.00167654
-0.00171769
-0.00175277
-0.00178257
-0.00180777
-0.00182897
-0.00184669
-0.00186134
-0.00187326
-0.00188267
-0.00188973
-0.00189446
-0.00189679
-0.00189655
-0.00189345
-0.00188691
-0.0018758
-0.00186086
3.92557e-05
3.68124e-05
3.33972e-05
2.90258e-05
2.37418e-05
1.75922e-05
1.06107e-05
2.80843e-06
-5.82014e-06
-1.5291e-05
-2.56257e-05
-3.68466e-05
-4.89733e-05
-6.20205e-05
-7.59966e-05
-9.0903e-05
-0.000106734
-0.00012348
-0.000141127
-0.000159657
-0.000179056
-0.000199312
-0.000220418
-0.000242374
-0.000265193
-0.000288898
-0.000313526
-0.000339131
-0.000365781
-0.000393558
-0.000422563
-0.000452908
-0.000484718
-0.000518128
-0.000553278
-0.000590307
-0.000629351
-0.00067053
-0.000713941
-0.000759646
-0.000807659
-0.000857934
-0.000910345
-0.000964679
-0.00102061
-0.00107771
-0.0011354
-0.00119297
-0.0012496
-0.00130429
-0.00135594
-0.00140333
-0.00144512
-0.00147993
-0.0015063
-0.00152278
-0.00152792
-0.00152036
-0.00149881
-0.00146215
-0.00140942
-0.0013399
-0.00125316
-0.00114899
-0.00102748
-0.000889138
-0.000735287
-0.000566889
-0.000385756
-0.00019396
6.02377e-06
0.000211382
0.000418988
0.000625456
0.000827205
0.00102054
0.00120172
0.0013671
0.00151317
0.00163673
0.00173494
0.00180546
0.00184653
0.00185703
0.00183658
0.00178552
0.00170495
0.00159668
0.00146321
0.00130757
0.0011333
0.000944233
0.000744404
0.000537881
0.000328619
0.000120333
-8.36202e-05
-0.000280327
-0.000467373
-0.000642889
-0.000805521
-0.000954452
-0.00108933
-0.0012102
-0.0013174
-0.00141174
-0.001494
-0.00156516
-0.0016263
-0.00167849
-0.00172281
-0.00176025
-0.00179173
-0.0018181
-0.00184009
-0.00185835
-0.00187341
-0.00188571
-0.00189558
-0.00190327
-0.00190889
-0.00191247
-0.0019139
-0.00191295
-0.00190927
-0.00190221
-0.00189053
-0.00187495
5.16122e-05
4.79781e-05
4.36105e-05
3.8549e-05
3.2763e-05
2.62725e-05
1.90823e-05
1.11758e-05
2.52189e-06
-6.91785e-06
-1.7184e-05
-2.83146e-05
-4.03418e-05
-5.32898e-05
-6.71738e-05
-8.20009e-05
-9.77699e-05
-0.000114474
-0.000132102
-0.000150643
-0.000170087
-0.000190431
-0.00021168
-0.00023385
-0.000256973
-0.000281101
-0.000306302
-0.000332669
-0.000360315
-0.00038938
-0.000420022
-0.000452426
-0.000486793
-0.00052334
-0.000562298
-0.000603897
-0.000648368
-0.000695921
-0.000746743
-0.000800975
-0.000858698
-0.000919918
-0.000984546
-0.00105238
-0.00112308
-0.00119619
-0.00127107
-0.00134694
-0.00142285
-0.00149771
-0.00157026
-0.00163912
-0.00170282
-0.00175978
-0.00180839
-0.001847
-0.00187401
-0.00188785
-0.00188707
-0.00187037
-0.00183661
-0.00178492
-0.00171466
-0.00162546
-0.00151719
-0.0013902
-0.00124575
-0.00108454
-0.0009083
-0.000718951
-0.000518843
-0.000310684
-9.75329e-05
0.000117258
0.000330097
0.000537225
0.000734798
0.000918983
0.00108606
0.00123251
0.00135516
0.00145128
0.00151865
0.00155572
0.00156162
0.00153623
0.00148023
0.00139503
0.00128279
0.00114633
0.000988999
0.000814575
0.000627111
0.000430774
0.000229696
2.78216e-05
-0.000171221
-0.000364226
-0.000548488
-0.00072185
-0.000882713
-0.00103003
-0.00116327
-0.00128236
-0.00138761
-0.00147952
-0.00155915
-0.0016274
-0.00168537
-0.00173422
-0.00177508
-0.001809
-0.00183701
-0.00185999
-0.00187875
-0.00189398
-0.00190626
-0.00191605
-0.00192371
-0.00192948
-0.0019335
-0.00193577
-0.00193615
-0.00193441
-0.00193014
-0.00192264
-0.00191061
-0.00189475
6.49145e-05
5.99304e-05
5.45864e-05
4.87678e-05
4.24405e-05
3.55809e-05
2.81596e-05
2.01272e-05
1.1424e-05
1.98695e-06
-8.24533e-06
-1.93276e-05
-3.13058e-05
-4.42147e-05
-5.80777e-05
-7.29084e-05
-8.87115e-05
-0.000105486
-0.000123227
-0.000141931
-0.0001616
-0.000182244
-0.000203886
-0.000226569
-0.000250355
-0.00027533
-0.000301611
-0.000329344
-0.000358705
-0.000389905
-0.000423188
-0.000458825
-0.000497119
-0.000538394
-0.000582988
-0.000631248
-0.000683515
-0.000740107
-0.000801309
-0.00086735
-0.00093838
-0.00101445
-0.00109551
-0.00118133
-0.00127158
-0.00136571
-0.00146302
-0.00156261
-0.00166342
-0.00176417
-0.00186347
-0.00195976
-0.00205134
-0.00213647
-0.00221331
-0.00228002
-0.00233477
-0.00237579
-0.00240143
-0.00241015
-0.00240062
-0.00237175
-0.0023227
-0.0022529
-0.00216201
-0.00205012
-0.00191822
-0.00176686
-0.00159776
-0.00141255
-0.0012134
-0.00100286
-0.000783875
-0.000559719
-0.000333953
-0.000110358
0.000107136
0.00031454
0.000507899
0.0006834
0.00083748
0.000966944
0.00106907
0.00114173
0.00118345
0.00119351
0.00117198
0.00111974
0.00103843
0.000930463
0.000798875
0.000647242
0.000479532
0.00029994
0.000112727
-7.79405e-05
-0.000268147
-0.00045435
-0.000633485
-0.00080303
-0.000961041
-0.00110616
-0.00123756
-0.00135497
-0.0014585
-0.00154867
-0.00162617
-0.00169208
-0.00174748
-0.00179353
-0.0018314
-0.00186222
-0.00188707
-0.00190691
-0.00192261
-0.00193491
-0.00194445
-0.00195173
-0.00195713
-0.00196093
-0.00196326
-0.00196414
-0.00196343
-0.00196086
-0.00195602
-0.00194817
-0.00193601
-0.00192019
7.89217e-05
7.27461e-05
6.6092e-05
5.94308e-05
5.25275e-05
4.52792e-05
3.76119e-05
2.94386e-05
2.06666e-05
1.12055e-05
9.71636e-07
-1.01082e-05
-2.20939e-05
-3.50322e-05
-4.89563e-05
-6.38877e-05
-7.98393e-05
-9.68178e-05
-0.000114829
-0.000133884
-0.000153999
-0.000175207
-0.000197559
-0.000221131
-0.000246029
-0.000272392
-0.000300399
-0.000330266
-0.000362257
-0.000396675
-0.000433871
-0.000474233
-0.000518187
-0.000566189
-0.000618713
-0.00067624
-0.000739241
-0.000808158
-0.000883384
-0.000965238
-0.00105394
-0.00114958
-0.00125211
-0.00136131
-0.00147676
-0.00159786
-0.00172378
-0.00185349
-0.00198575
-0.00211911
-0.00225197
-0.00238254
-0.00250891
-0.00262908
-0.00274098
-0.00284251
-0.0029316
-0.00300624
-0.00306452
-0.00310467
-0.00312511
-0.00312451
-0.0031018
-0.00305621
-0.00298717
-0.00289437
-0.00277814
-0.0026401
-0.0024809
-0.00230198
-0.00210533
-0.00189332
-0.00166873
-0.00143469
-0.00119469
-0.000952464
-0.000711972
-0.000477313
-0.000252638
-4.20511e-05
0.000150499
0.000321334
0.000467159
0.000585184
0.000673228
0.000729814
0.000754238
0.000746623
0.000707926
0.000639918
0.000545127
0.000426738
0.000288468
0.000134412
-3.11304e-05
-0.000203826
-0.00037948
-0.000554193
-0.000724482
-0.000887383
-0.00104051
-0.00118207
-0.00131087
-0.00142628
-0.00152814
-0.00161676
-0.00169272
-0.0017569
-0.00181038
-0.00185427
-0.00188979
-0.00191808
-0.00194028
-0.00195741
-0.00197039
-0.00198004
-0.00198704
-0.00199195
-0.00199519
-0.00199707
-0.00199774
-0.00199724
-0.00199545
-0.00199209
-0.00198674
-0.00197866
-0.00196656
-0.00195104
9.31627e-05
8.54545e-05
7.76916e-05
7.021e-05
6.27259e-05
5.50833e-05
4.71642e-05
3.88404e-05
2.99829e-05
2.04714e-05
1.01983e-05
-9.28943e-07
-1.2986e-05
-2.60322e-05
-4.01119e-05
-5.52571e-05
-7.14914e-05
-8.8834e-05
-0.000107306
-0.000126937
-0.00014777
-0.000169867
-0.000193319
-0.000218252
-0.000244828
-0.000273259
-0.000303804
-0.000336777
-0.000372548
-0.000411545
-0.000454252
-0.000501203
-0.000552977
-0.000610189
-0.000673474
-0.000743471
-0.000820798
-0.000906034
-0.000999686
-0.00110216
-0.00121374
-0.00133455
-0.00146453
-0.00160341
-0.00175069
-0.00190565
-0.00206731
-0.00223445
-0.00240563
-0.00257916
-0.00275319
-0.00292564
-0.00309435
-0.00325701
-0.00341126
-0.00355473
-0.00368505
-0.00379994
-0.0038972
-0.00397481
-0.00403094
-0.004064
-0.0040727
-0.00405603
-0.00401322
-0.00394367
-0.00384728
-0.00372557
-0.00357901
-0.0034088
-0.00321663
-0.00300464
-0.00277537
-0.00253175
-0.00227708
-0.002015
-0.00174942
-0.00148445
-0.00122438
-0.000973521
-0.000736178
-0.000516488
-0.000318325
-0.000145178
-2.50667e-08
0.000114777
0.000197596
0.000247603
0.000264828
0.00025017
0.000205386
0.000133021
3.631e-05
-8.09567e-05
-0.000214601
-0.000360238
-0.000513461
-0.000670024
-0.000826001
-0.000977915
-0.00112284
-0.00125844
-0.00138302
-0.00149546
-0.00159523
-0.00168227
-0.00175693
-0.00181988
-0.00187204
-0.00191448
-0.00194834
-0.00197479
-0.00199498
-0.00200997
-0.00202074
-0.00202817
-0.00203299
-0.00203581
-0.00203712
-0.00203725
-0.00203641
-0.00203464
-0.00203185
-0.00202777
-0.00202201
-0.00201382
-0.00200196
-0.00198698
0.000107318
9.80639e-05
8.90938e-05
8.07695e-05
7.27014e-05
6.46663e-05
5.64953e-05
4.80147e-05
3.9056e-05
2.94667e-05
1.91134e-05
7.88303e-06
-4.31713e-06
-1.75607e-05
-3.19052e-05
-4.73956e-05
-6.40704e-05
-8.19668e-05
-0.000101128
-0.00012161
-0.00014349
-0.000166877
-0.000191913
-0.00021879
-0.000247749
-0.000279093
-0.00031319
-0.000350477
-0.000391464
-0.000436731
-0.000486929
-0.000542771
-0.000605021
-0.000674482
-0.000751976
-0.00083832
-0.000934299
-0.00104063
-0.00115794
-0.00128673
-0.0014273
-0.0015798
-0.00174412
-0.00191992
-0.00210656
-0.00230315
-0.00250851
-0.00272117
-0.00293941
-0.00316125
-0.0033845
-0.00360678
-0.00382556
-0.0040382
-0.00424202
-0.00443431
-0.0046124
-0.0047737
-0.00491575
-0.00503628
-0.00513319
-0.00520467
-0.0052492
-0.00526557
-0.00525285
-0.00521023
-0.00513738
-0.00503496
-0.0049039
-0.00474505
-0.0045598
-0.00434995
-0.00411774
-0.00386583
-0.00359727
-0.00331549
-0.00302423
-0.00272753
-0.00242966
-0.00213506
-0.00184826
-0.00157377
-0.00131599
-0.00107908
-0.000866822
-0.000682527
-0.000528871
-0.000407804
-0.000320446
-0.00026703
-0.000246866
-0.000258357
-0.000299055
-0.000365766
-0.000454686
-0.000561582
-0.000681984
-0.000811384
-0.000945432
-0.00108011
-0.00121186
-0.00133771
-0.00145529
-0.0015629
-0.00165942
-0.00174432
-0.00181757
-0.00187952
-0.00193083
-0.00197243
-0.00200534
-0.00203068
-0.00204958
-0.00206313
-0.00207232
-0.00207809
-0.00208122
-0.00208238
-0.0020821
-0.00208078
-0.00207865
-0.00207581
-0.00207218
-0.00206753
-0.00206147
-0.0020533
-0.00204184
-0.00202757
0.000120992
0.00011014
9.99102e-05
9.07265e-05
8.20761e-05
7.3655e-05
6.52354e-05
5.65931e-05
4.75169e-05
3.78196e-05
2.73403e-05
1.59438e-05
3.51895e-06
-1.00243e-05
-2.47592e-05
-4.07481e-05
-5.80492e-05
-7.67243e-05
-9.68469e-05
-0.000118511
-0.000141843
-0.000167008
-0.000194222
-0.000223762
-0.000255972
-0.000291276
-0.000330179
-0.000373273
-0.000421242
-0.000474856
-0.000534969
-0.000602507
-0.000678454
-0.000763831
-0.000859671
-0.000966987
-0.00108674
-0.00121979
-0.00136687
-0.00152853
-0.00170512
-0.00189673
-0.00210317
-0.00232394
-0.00255823
-0.00280489
-0.00306245
-0.00332913
-0.00360283
-0.00388119
-0.00416164
-0.00444138
-0.0047175
-0.00498697
-0.00524674
-0.00549377
-0.00572506
-0.00593776
-0.00612916
-0.00629674
-0.00643823
-0.00655162
-0.00663522
-0.00668767
-0.00670792
-0.00669505
-0.00664827
-0.00656775
-0.00645493
-0.00631021
-0.00613459
-0.00592951
-0.0056969
-0.00543908
-0.00515878
-0.0048591
-0.00454351
-0.00421581
-0.00388011
-0.00354081
-0.00320249
-0.00286988
-0.00254774
-0.0022408
-0.00195357
-0.00169027
-0.00145468
-0.00124995
-0.00107853
-0.000942024
-0.000841105
-0.000775469
-0.000743829
-0.000743959
-0.000772795
-0.000826572
-0.000901018
-0.000991552
-0.00109351
-0.00120237
-0.00131392
-0.00142443
-0.00153076
-0.00163041
-0.00172156
-0.00180302
-0.00187418
-0.00193494
-0.00198561
-0.00202681
-0.00205939
-0.00208434
-0.0021027
-0.00211554
-0.00212387
-0.00212864
-0.00213067
-0.0021307
-0.0021293
-0.00212692
-0.00212384
-0.0021202
-0.00211596
-0.00211092
-0.00210472
-0.00209671
-0.00208577
-0.00207235
0.000133735
0.000121227
0.000109702
9.96512e-05
9.0425e-05
8.16274e-05
7.29642e-05
6.41549e-05
5.49424e-05
4.51024e-05
3.44447e-05
2.28102e-05
1.00674e-05
-3.89291e-06
-1.91638e-05
-3.58301e-05
-5.39766e-05
-7.3698e-05
-9.51088e-05
-0.000118355
-0.000143626
-0.000171165
-0.000201282
-0.000234367
-0.000270894
-0.00031144
-0.000356681
-0.000407405
-0.000464508
-0.00052899
-0.000601947
-0.000684556
-0.000778053
-0.000883704
-0.00100277
-0.00113648
-0.00128596
-0.0014522
-0.00163603
-0.00183801
-0.00205847
-0.00229738
-0.00255439
-0.00282878
-0.00311945
-0.00342489
-0.00374325
-0.0040723
-0.00440951
-0.00475203
-0.00509682
-0.00544062
-0.00578008
-0.00611176
-0.00643224
-0.00673816
-0.00702626
-0.00729342
-0.00753677
-0.00775363
-0.00794161
-0.00809858
-0.00822277
-0.00831276
-0.00836747
-0.00838587
-0.00836681
-0.00830989
-0.00821751
-0.00808938
-0.00792605
-0.00772866
-0.00749879
-0.00723841
-0.00694984
-0.00663578
-0.00629927
-0.00594374
-0.00557297
-0.00519108
-0.00480252
-0.00441198
-0.00402438
-0.00364477
-0.00327822
-0.00292972
-0.00260401
-0.00230547
-0.00203794
-0.00180455
-0.00160757
-0.00144834
-0.00132712
-0.0012431
-0.00119441
-0.0011782
-0.00119081
-0.0012279
-0.00128477
-0.00135652
-0.00143833
-0.0015257
-0.0016146
-0.00170159
-0.00178394
-0.0018596
-0.00192722
-0.00198603
-0.00203582
-0.00207679
-0.00210948
-0.00213462
-0.00215316
-0.00216605
-0.00217427
-0.00217877
-0.0021804
-0.00217991
-0.00217794
-0.00217498
-0.00217136
-0.00216727
-0.00216271
-0.00215751
-0.00215136
-0.00214364
-0.00213334
-0.00212085
0.000145051
0.000130832
0.000117985
0.000107066
9.72745e-05
8.81115e-05
7.92091e-05
7.02255e-05
6.08537e-05
5.08302e-05
3.99334e-05
2.7978e-05
1.48098e-05
2.96485e-07
-1.56799e-05
-3.32332e-05
-5.24836e-05
-7.35693e-05
-9.66599e-05
-0.000121969
-0.000149769
-0.000180405
-0.000214307
-0.000252007
-0.000294147
-0.00034149
-0.000394929
-0.000455486
-0.000524313
-0.000602684
-0.000691977
-0.000793657
-0.00090924
-0.00104026
-0.00118822
-0.00135455
-0.00154053
-0.00174727
-0.0019756
-0.00222608
-0.00249888
-0.00279381
-0.00311023
-0.00344706
-0.00380279
-0.00417545
-0.00456266
-0.00496164
-0.00536929
-0.00578224
-0.00619688
-0.00660947
-0.0070162
-0.00741326
-0.00779687
-0.00816341
-0.00850941
-0.00883162
-0.00912706
-0.009393
-0.00962704
-0.00982706
-0.00999128
-0.0101183
-0.010207
-0.0102565
-0.0102655
-0.0102331
-0.0101629
-0.0100531
-0.00990431
-0.00971741
-0.00949372
-0.00923479
-0.0089425
-0.00861904
-0.00826695
-0.00788913
-0.00748885
-0.00706976
-0.0066359
-0.00619169
-0.00574188
-0.00529156
-0.00484603
-0.00441078
-0.00399131
-0.00359302
-0.00322104
-0.00288003
-0.00257403
-0.00230621
-0.00207876
-0.00189274
-0.00174799
-0.00164314
-0.00157566
-0.00154201
-0.00153782
-0.00155816
-0.00159782
-0.00165158
-0.0017145
-0.0017821
-0.00185053
-0.0019167
-0.00197825
-0.00203354
-0.00208162
-0.00212209
-0.00215501
-0.00218079
-0.0022001
-0.00221375
-0.00222262
-0.0022276
-0.00222954
-0.00222922
-0.0022273
-0.00222431
-0.00222064
-0.00221651
-0.00221196
-0.00220688
-0.00220097
-0.0021937
-0.00218412
-0.0021726
0.000154397
0.000138418
0.000124229
0.000112447
0.000102101
9.25841e-05
8.3445e-05
7.42755e-05
6.47154e-05
5.44594e-05
4.32523e-05
3.08802e-05
1.71617e-05
1.93721e-06
-1.49428e-05
-3.36296e-05
-5.42894e-05
-7.71182e-05
-0.000102357
-0.000130306
-0.000161346
-0.00019595
-0.000234701
-0.000278309
-0.000327621
-0.000383634
-0.000447498
-0.000520519
-0.000604151
-0.000699983
-0.000809717
-0.000935135
-0.00107806
-0.00124029
-0.00142359
-0.00162954
-0.00185956
-0.00211478
-0.002396
-0.00270361
-0.00303758
-0.00339737
-0.00378191
-0.00418965
-0.00461847
-0.00506581
-0.00552862
-0.00600348
-0.00648664
-0.00697411
-0.00746173
-0.00794527
-0.0084205
-0.00888326
-0.00932954
-0.00975554
-0.0101577
-0.0105327
-0.0108777
-0.0111899
-0.0114672
-0.0117074
-0.0119089
-0.0120704
-0.0121908
-0.0122694
-0.0123059
-0.0122998
-0.0122507
-0.0121595
-0.0120267
-0.0118527
-0.0116386
-0.0113853
-0.0110944
-0.0107675
-0.0104066
-0.0100139
-0.00959199
-0.00914397
-0.00867321
-0.00818354
-0.00767927
-0.00716514
-0.00664633
-0.0061284
-0.00561724
-0.00511892
-0.00463959
-0.00418527
-0.00376163
-0.0033738
-0.0030261
-0.0027218
-0.00246296
-0.0022503
-0.0020831
-0.00195923
-0.00187534
-0.00182698
-0.00180894
-0.00181559
-0.00184116
-0.00188012
-0.00192739
-0.0019786
-0.00203014
-0.00207925
-0.00212397
-0.00216307
-0.00219595
-0.0022225
-0.00224301
-0.00225801
-0.00226822
-0.00227443
-0.00227744
-0.002278
-0.0022768
-0.00227439
-0.0022712
-0.00226748
-0.00226333
-0.00225866
-0.00225323
-0.00224654
-0.00223775
-0.00222721
0.000161186
0.000143404
0.000127856
0.000115217
0.000104333
9.44707e-05
8.50933e-05
7.57207e-05
6.59354e-05
5.53879e-05
4.37864e-05
3.0885e-05
1.64708e-05
3.50076e-07
-1.76659e-05
-3.77766e-05
-6.02079e-05
-8.52298e-05
-0.000113174
-0.000144455
-0.000179586
-0.000219202
-0.000264077
-0.000315139
-0.000373487
-0.000440397
-0.000517328
-0.000605916
-0.000707965
-0.000825422
-0.000960343
-0.00111485
-0.00129108
-0.00149111
-0.00171688
-0.00197013
-0.0022523
-0.00256448
-0.00290727
-0.00328081
-0.00368465
-0.00411774
-0.00457843
-0.00506447
-0.00557304
-0.00610079
-0.00664392
-0.00719828
-0.00775941
-0.00832271
-0.00888348
-0.00943705
-0.00997887
-0.0105046
-0.01101
-0.0114913
-0.011945
-0.0123679
-0.0127572
-0.0131106
-0.0134258
-0.0137013
-0.0139355
-0.0141273
-0.0142757
-0.0143804
-0.0144414
-0.014459
-0.0144307
-0.0143583
-0.0142423
-0.0140831
-0.0138813
-0.0136377
-0.0133532
-0.0130291
-0.0126666
-0.0122674
-0.0118333
-0.0113666
-0.0108699
-0.0103462
-0.00979912
-0.00923263
-0.00865138
-0.00806059
-0.00746601
-0.00687393
-0.00629102
-0.00572424
-0.00518063
-0.00466704
-0.00418989
-0.00375486
-0.00336658
-0.00302837
-0.00274198