/*--------------------------------*- C++ -*----------------------------------*\
| =========                 |                                                 |
| \\      /  F ield         | OpenFOAM: The Open Source CFD Toolbox           |
|  \\    /   O peration     | Version:  2406                                  |
|   \\  /    A nd           | Website:  www.openfoam.com                      |
|    \\/     M anipulation  |                                                 |
\*---------------------------------------------------------------------------*/
FoamFile
{
    version     2.0;
    format      ascii;
    arch        "LSB;label=32;scalar=64";
    class       volVectorField;
    location    "34.4";
    object      Uc;
}
// * * * * * * * * * * * * * * * * * * * * * * * * * * * * * * * * * * * * * //

dimensions      [0 1 -1 0 0 0 0];

internalField   nonuniform List<vector> 
900
(
(0.000326095 -0.000535771 0)
(0.00356768 -0.00124905 0)
(0.0072774 -0.00100242 0)
(0.00887601 -0.000560267 0)
(0.00937979 -0.000458974 0)
(0.00916358 -0.000711105 0)
(0.00896934 -0.00109704 0)
(0.00864502 -0.00153879 0)
(0.00749525 -0.00281115 0)
(0.00317097 -0.0044364 0)
(-0.00647736 -0.00297332 0)
(-0.02259 0.0027329 0)
(-0.0443615 0.00871388 0)
(-0.0679188 0.0115097 0)
(-0.0892855 0.0113571 0)
(-0.106148 0.00956154 0)
(-0.117139 0.00678158 0)
(-0.121293 0.00337623 0)
(-0.118174 -0.000420903 0)
(-0.10725 -0.00439053 0)
(-0.0889546 -0.00818732 0)
(-0.0635411 -0.0112687 0)
(-0.0337187 -0.0128 0)
(-0.00197991 -0.0117622 0)
(0.0244726 -0.00694401 0)
(0.0398828 0.000253129 0)
(0.0379893 0.00631499 0)
(0.0251544 0.0069902 0)
(0.0119897 0.00485228 0)
(0.00159824 0.00198203 0)
(0.00120227 -0.00335001 0)
(0.00675062 -0.00586568 0)
(0.0121931 -0.00431556 0)
(0.0140502 -0.00158475 0)
(0.0134092 0.000207027 0)
(0.0101614 0.00113196 0)
(0.00392042 0.00164674 0)
(-0.00857504 0.00299501 0)
(-0.0303624 0.00840659 0)
(-0.0613197 0.0188513 0)
(-0.0970907 0.0293056 0)
(-0.131267 0.0355269 0)
(-0.159919 0.0366464 0)
(-0.18222 0.0332077 0)
(-0.198388 0.0266285 0)
(-0.208352 0.0180566 0)
(-0.211976 0.00815384 0)
(-0.209038 -0.00266909 0)
(-0.199369 -0.014078 0)
(-0.182643 -0.0257021 0)
(-0.158913 -0.0366617 0)
(-0.128286 -0.0457226 0)
(-0.0920905 -0.0504429 0)
(-0.0525043 -0.0482275 0)
(-0.0142076 -0.035551 0)
(0.0164893 -0.0140948 0)
(0.030727 0.00883005 0)
(0.0265535 0.0187672 0)
(0.0154899 0.0190126 0)
(0.0024123 0.0115347 0)
(0.00201037 -0.00839201 0)
(0.00799957 -0.0123345 0)
(0.0121287 -0.00826467 0)
(0.0111859 -0.00182957 0)
(0.00588649 0.00341171 0)
(-0.00571865 0.00868103 0)
(-0.0267974 0.017558 0)
(-0.0596917 0.032677 0)
(-0.10086 0.0495357 0)
(-0.14168 0.0612138 0)
(-0.176577 0.0656976 0)
(-0.204233 0.0644518 0)
(-0.224938 0.0585123 0)
(-0.239626 0.0487294 0)
(-0.249236 0.0362949 0)
(-0.254261 0.0220369 0)
(-0.255037 0.00646279 0)
(-0.251526 -0.0102612 0)
(-0.243565 -0.0278686 0)
(-0.230639 -0.0461765 0)
(-0.21217 -0.0639844 0)
(-0.187485 -0.079926 0)
(-0.155983 -0.0901082 0)
(-0.118266 -0.0910143 0)
(-0.0752752 -0.0758796 0)
(-0.0328253 -0.0443815 0)
(0.00126202 -0.00297067 0)
(0.0110005 0.0217713 0)
(0.00889009 0.0288632 0)
(0.000477436 0.0193079 0)
(0.00251774 -0.0132671 0)
(0.0066854 -0.0160688 0)
(0.00624393 -0.0073961 0)
(-0.00118335 0.00472927 0)
(-0.0165107 0.0172131 0)
(-0.042882 0.0338519 0)
(-0.0808149 0.055461 0)
(-0.124089 0.0763839 0)
(-0.163834 0.0895467 0)
(-0.195979 0.0938794 0)
(-0.220637 0.0911839 0)
(-0.238375 0.0832202 0)
(-0.250289 0.0714375 0)
(-0.257696 0.0570146 0)
(-0.261789 0.0408811 0)
(-0.263311 0.0234925 0)
(-0.262802 0.00503837 0)
(-0.26038 -0.0147034 0)
(-0.256018 -0.0357053 0)
(-0.249184 -0.0582786 0)
(-0.239127 -0.0813047 0)
(-0.224475 -0.103966 0)
(-0.203391 -0.121685 0)
(-0.174169 -0.130852 0)
(-0.134498 -0.121451 0)
(-0.0866825 -0.0903997 0)
(-0.0343302 -0.0336398 0)
(-0.00182042 0.0112285 0)
(0.00335499 0.0299338 0)
(-0.00110979 0.020875 0)
(0.0021992 -0.0175725 0)
(0.00193314 -0.0161461 0)
(-0.00590021 -0.000309977 0)
(-0.0228056 0.0209487 0)
(-0.0502001 0.0450214 0)
(-0.0877939 0.072549 0)
(-0.129653 0.0980224 0)
(-0.167332 0.114795 0)
(-0.19657 0.12031 0)
(-0.217474 0.116853 0)
(-0.23121 0.107162 0)
(-0.239075 0.0934756 0)
(-0.242817 0.0774377 0)
(-0.243703 0.0600119 0)
(-0.243027 0.041864 0)
(-0.241441 0.0230946 0)
(-0.239671 0.0036891 0)
(-0.237874 -0.0169346 0)
(-0.236398 -0.0389343 0)
(-0.234834 -0.0632347 0)
(-0.232895 -0.0890359 0)
(-0.228965 -0.116613 0)
(-0.221091 -0.141637 0)
(-0.205677 -0.16149 0)
(-0.178301 -0.164454 0)
(-0.135783 -0.14492 0)
(-0.0774122 -0.0876292 0)
(-0.016988 -0.01603 0)
(0.00321337 0.0283344 0)
(-0.00130346 0.0213326 0)
(0.000325692 -0.0172961 0)
(-0.00710051 -0.00781753 0)
(-0.0239284 0.017628 0)
(-0.0498595 0.0491995 0)
(-0.0846322 0.0820484 0)
(-0.123394 0.112831 0)
(-0.158982 0.13422 0)
(-0.185733 0.142443 0)
(-0.203247 0.139071 0)
(-0.213202 0.128279 0)
(-0.217312 0.112842 0)
(-0.21743 0.0951462 0)
(-0.215209 0.0765779 0)
(-0.211747 0.0578688 0)
(-0.208085 0.0393845 0)
(-0.20459 0.0209303 0)
(-0.201911 0.0023696 0)
(-0.200062 -0.0171428 0)
(-0.19969 -0.0378002 0)
(-0.200521 -0.0610742 0)
(-0.203115 -0.0864631 0)
(-0.206223 -0.115641 0)
(-0.209022 -0.145152 0)
(-0.207549 -0.174619 0)
(-0.196975 -0.192498 0)
(-0.170473 -0.192639 0)
(-0.121369 -0.152821 0)
(-0.0515411 -0.0702286 0)
(0.00568123 0.0147237 0)
(-0.00153236 0.0227268 0)
(-0.00241299 -0.0109539 0)
(-0.0173178 0.00812639 0)
(-0.0416854 0.0424029 0)
(-0.0725612 0.081447 0)
(-0.108093 0.117963 0)
(-0.14161 0.146054 0)
(-0.167613 0.159496 0)
(-0.183521 0.158476 0)
(-0.191484 0.147511 0)
(-0.193469 0.130988 0)
(-0.191671 0.111728 0)
(-0.187905 0.0919007 0)
(-0.183477 0.072408 0)
(-0.179022 0.0535946 0)
(-0.1751 0.0355019 0)
(-0.171632 0.017707 0)
(-0.169069 9.21685e-05 0)
(-0.167146 -0.018276 0)
(-0.166667 -0.0373437 0)
(-0.167267 -0.0588234 0)
(-0.1702 -0.0820455 0)
(-0.174581 -0.109807 0)
(-0.181247 -0.139353 0)
(-0.187114 -0.173354 0)
(-0.18927 -0.201871 0)
(-0.180107 -0.221852 0)
(-0.149329 -0.207447 0)
(-0.0944088 -0.1458 0)
(-0.00851008 -0.0204803 0)
(0.00511892 0.0249452 0)
(-0.00518376 0.00223528 0)
(-0.026139 0.0315405 0)
(-0.0549233 0.072675 0)
(-0.0865059 0.115259 0)
(-0.118634 0.15036 0)
(-0.144532 0.171674 0)
(-0.161287 0.175683 0)
(-0.168811 0.166303 0)
(-0.170408 0.149344 0)
(-0.168034 0.129046 0)
(-0.164083 0.107967 0)
(-0.159811 0.0876728 0)
(-0.155957 0.0684118 0)
(-0.15255 0.0501403 0)
(-0.149708 0.0326526 0)
(-0.147043 0.0154483 0)
(-0.14495 -0.00146084 0)
(-0.143 -0.0190342 0)
(-0.142177 -0.0368965 0)
(-0.141905 -0.0569612 0)
(-0.143854 -0.0781021 0)
(-0.147032 -0.10387 0)
(-0.153483 -0.131406 0)
(-0.160736 -0.165944 0)
(-0.168639 -0.199066 0)
(-0.170044 -0.232696 0)
(-0.157158 -0.240641 0)
(-0.120974 -0.211865 0)
(-0.045546 -0.0859414 0)
(0.0179128 0.019602 0)
(-0.00673672 0.0196933 0)
(-0.030839 0.0574691 0)
(-0.0607185 0.101941 0)
(-0.0900801 0.144321 0)
(-0.117101 0.175007 0)
(-0.135711 0.188097 0)
(-0.145537 0.183568 0)
(-0.147864 0.167812 0)
(-0.146504 0.147164 0)
(-0.143057 0.125216 0)
(-0.139807 0.104073 0)
(-0.137023 0.0843036 0)
(-0.135016 0.0656591 0)
(-0.133188 0.0477739 0)
(-0.131563 0.0304702 0)
(-0.129549 0.0133063 0)
(-0.127709 -0.00343331 0)
(-0.125461 -0.020718 0)
(-0.124034 -0.0377835 0)
(-0.122546 -0.0567881 0)
(-0.123028 -0.0760119 0)
(-0.124095 -0.0996982 0)
(-0.128748 -0.124418 0)
(-0.134575 -0.157533 0)
(-0.14399 -0.191455 0)
(-0.150405 -0.232963 0)
(-0.149583 -0.258009 0)
(-0.128175 -0.257607 0)
(-0.0774007 -0.164249 0)
(0.00802902 -0.000909192 0)
(-0.0070979 0.0391134 0)
(-0.0317496 0.0850632 0)
(-0.0604393 0.130937 0)
(-0.0861618 0.170816 0)
(-0.107839 0.195213 0)
(-0.120517 0.199929 0)
(-0.125759 0.188061 0)
(-0.125576 0.167838 0)
(-0.123639 0.145181 0)
(-0.121145 0.123004 0)
(-0.119807 0.102517 0)
(-0.119039 0.0833728 0)
(-0.118869 0.0650323 0)
(-0.118345 0.0470248 0)
(-0.117646 0.0294057 0)
(-0.116084 0.011821 0)
(-0.11449 -0.0051406 0)
(-0.112095 -0.0225606 0)
(-0.110402 -0.0392893 0)
(-0.10811 -0.0578408 0)
(-0.107562 -0.0757898 0)
(-0.10666 -0.097949 0)
(-0.109131 -0.119796 0)
(-0.112008 -0.150252 0)
(-0.12023 -0.181828 0)
(-0.127803 -0.226503 0)
(-0.134277 -0.262624 0)
(-0.125267 -0.28514 0)
(-0.0909521 -0.224173 0)
(-0.021691 -0.0483923 0)
(-0.00625156 0.0576047 0)
(-0.0291743 0.110013 0)
(-0.0547961 0.1551 0)
(-0.0762179 0.190768 0)
(-0.0931282 0.208671 0)
(-0.101624 0.205979 0)
(-0.104594 0.188924 0)
(-0.103929 0.166187 0)
(-0.103008 0.14321 0)
(-0.102348 0.121813 0)
(-0.103094 0.102331 0)
(-0.104021 0.0836506 0)
(-0.105172 0.06527 0)
(-0.105425 0.0467528 0)
(-0.105273 0.0285272 0)
(-0.103898 0.0102839 0)
(-0.102459 -0.00704699 0)
(-0.0999165 -0.0247517 0)
(-0.0981556 -0.0412766 0)
(-0.0953803 -0.0596462 0)
(-0.0944137 -0.076768 0)
(-0.0922402 -0.0981606 0)
(-0.0932957 -0.118034 0)
(-0.0932517 -0.146271 0)
(-0.0990108 -0.174198 0)
(-0.104291 -0.218298 0)
(-0.113404 -0.259588 0)
(-0.111372 -0.301519 0)
(-0.0887096 -0.269452 0)
(-0.0349699 -0.115135 0)
(-0.00466268 0.0738226 0)
(-0.0243485 0.132931 0)
(-0.0461586 0.176894 0)
(-0.0634005 0.20846 0)
(-0.0763496 0.220285 0)
(-0.0821452 0.211734 0)
(-0.0841564 0.190933 0)
(-0.0840094 0.16693 0)
(-0.0844655 0.144192 0)
(-0.0855134 0.123607 0)
(-0.0877541 0.10464 0)
(-0.0897475 0.085816 0)
(-0.0916614 0.0668389 0)
(-0.092349 0.0473926 0)
(-0.0925933 0.0282841 0)
(-0.0913931 0.00916531 0)
(-0.0902338 -0.0086783 0)
(-0.0877061 -0.0268284 0)
(-0.0861516 -0.0432844 0)
(-0.0831651 -0.0616655 0)
(-0.0822509 -0.0782084 0)
(-0.0793413 -0.0992388 0)
(-0.0798678 -0.117779 0)
(-0.0777807 -0.144642 0)
(-0.0816929 -0.169353 0)
(-0.0838612 -0.211713 0)
(-0.0929373 -0.254171 0)
(-0.0932298 -0.309897 0)
(-0.0787184 -0.303698 0)
(-0.0327925 -0.175773 0)
(-0.00251304 0.0859121 0)
(-0.0179558 0.150721 0)
(-0.0352807 0.193103 0)
(-0.0485357 0.220292 0)
(-0.0583077 0.227173 0)
(-0.0624874 0.21409 0)
(-0.0645286 0.191221 0)
(-0.0653255 0.166938 0)
(-0.0671546 0.145061 0)
(-0.0694226 0.125367 0)
(-0.0725702 0.106825 0)
(-0.0750835 0.0877546 0)
(-0.0774043 0.0681748 0)
(-0.0783113 0.0478471 0)
(-0.0789014 0.0279418 0)
(-0.0778844 0.00800599 0)
(-0.0771322 -0.010289 0)
(-0.0747363 -0.0288727 0)
(-0.0736252 -0.0452596 0)
(-0.0706187 -0.0637208 0)
(-0.0701407 -0.0798477 0)
(-0.0668598 -0.100838 0)
(-0.0675105 -0.11858 0)
(-0.0640242 -0.144758 0)
(-0.0668792 -0.166712 0)
(-0.0660574 -0.206892 0)
(-0.0747371 -0.248471 0)
(-0.0759721 -0.315141 0)
(-0.0684119 -0.331933 0)
(-0.0294814 -0.23007 0)
(-0.000231683 0.0938818 0)
(-0.0108299 0.165109 0)
(-0.0236776 0.206707 0)
(-0.0333515 0.231113 0)
(-0.040497 0.234296 0)
(-0.0437372 0.21853 0)
(-0.0459379 0.194413 0)
(-0.0475176 0.17019 0)
(-0.0501169 0.148828 0)
(-0.0529331 0.129484 0)
(-0.0563447 0.110785 0)
(-0.0589424 0.0910479 0)
(-0.0614211 0.0705967 0)
(-0.0624506 0.0492173 0)
(-0.0634387 0.0284252 0)
(-0.0627006 0.00758045 0)
(-0.06257 -0.0112283 0)
(-0.06048 -0.030334 0)
(-0.0601019 -0.0467224 0)
(-0.0572603 -0.0653339 0)
(-0.0575672 -0.0811259 0)
(-0.0542147 -0.102225 0)
(-0.0556156 -0.119534 0)
(-0.0514566 -0.145742 0)
(-0.0543048 -0.165918 0)
(-0.0510331 -0.204019 0)
(-0.059098 -0.242456 0)
(-0.0597785 -0.315573 0)
(-0.0583153 -0.351367 0)
(-0.0255959 -0.276366 0)
(0.00216187 0.0966063 0)
(-0.00337711 0.173491 0)
(-0.0115508 0.214937 0)
(-0.0179172 0.236687 0)
(-0.0228773 0.23759 0)
(-0.0254564 0.219918 0)
(-0.0279765 0.195423 0)
(-0.030071 0.171458 0)
(-0.0330684 0.150759 0)
(-0.0358842 0.131793 0)
(-0.0391625 0.113128 0)
(-0.0415027 0.0930333 0)
(-0.0439768 0.0720989 0)
(-0.0450039 0.0500483 0)
(-0.0464055 0.0287077 0)
(-0.0459585 0.00721128 0)
(-0.0466042 -0.011923 0)
(-0.0449231 -0.0314408 0)
(-0.0455317 -0.0477856 0)
(-0.0429952 -0.0665341 0)
(-0.0443732 -0.082012 0)
(-0.0410985 -0.103242 0)
(-0.0436397 -0.120203 0)
(-0.0391933 -0.146672 0)
(-0.0429752 -0.165709 0)
(-0.0381958 -0.202517 0)
(-0.0465937 -0.23783 0)
(-0.0464822 -0.31535 0)
(-0.0502334 -0.366372 0)
(-0.0221567 -0.316069 0)
(0.00425991 0.0949585 0)
(0.00399915 0.178305 0)
(0.000300071 0.220804 0)
(-0.0029481 0.242252 0)
(-0.00578267 0.242097 0)
(-0.00774962 0.224254 0)
(-0.0101806 0.199688 0)
(-0.0123756 0.175883 0)
(-0.0151722 0.155215 0)
(-0.0175209 0.136062 0)
(-0.0202967 0.117026 0)
(-0.0221256 0.096344 0)
(-0.0244728 0.0748363 0)
(-0.0254017 0.0520591 0)
(-0.027271 0.0301744 0)
(-0.027151 0.0080119 0)
(-0.0287811 -0.0114499 0)
(-0.0276381 -0.0314183 0)
(-0.0295311 -0.0477815 0)
(-0.0274696 -0.0667434 0)
(-0.0302543 -0.0819975 0)
(-0.0272397 -0.103432 0)
(-0.0313219 -0.120181 0)
(-0.0268682 -0.147096 0)
(-0.0322498 -0.165425 0)
(-0.0264909 -0.201087 0)
(-0.0359094 -0.232317 0)
(-0.0347701 -0.311684 0)
(-0.0436476 -0.375317 0)
(-0.0191874 -0.350311 0)
(0.00614063 0.0881666 0)
(0.0109386 0.176756 0)
(0.0118535 0.221442 0)
(0.0115871 0.242411 0)
(0.0106905 0.242534 0)
(0.00947711 0.224659 0)
(0.00713409 0.200463 0)
(0.00511192 0.176723 0)
(0.00265187 0.156208 0)
(0.00107306 0.137088 0)
(-0.00100899 0.118122 0)
(-0.0020375 0.0974184 0)
(-0.00408992 0.0759421 0)
(-0.0047014 0.0530374 0)
(-0.0069737 0.0311437 0)
(-0.00705885 0.00876857 0)
(-0.00972906 -0.0106812 0)
(-0.00910345 -0.0308549 0)
(-0.0124472 -0.0471042 0)
(-0.0109114 -0.0661941 0)
(-0.0153415 -0.0812006 0)
(-0.0126629 -0.102767 0)
(-0.0186011 -0.11926 0)
(-0.0143131 -0.146555 0)
(-0.0219353 -0.16451 0)
(-0.0158133 -0.199748 0)
(-0.027207 -0.227619 0)
(-0.0250234 -0.307698 0)
(-0.0387088 -0.381088 0)
(-0.0165475 -0.380146 0)
(0.00723928 0.0778661 0)
(0.0171861 0.17203 0)
(0.0225187 0.219889 0)
(0.0253909 0.243268 0)
(0.026802 0.244537 0)
(0.0266489 0.228403 0)
(0.024983 0.204754 0)
(0.0234282 0.180961 0)
(0.0216269 0.159927 0)
(0.0209874 0.140229 0)
(0.0197227 0.120916 0)
(0.0196366 0.0999406 0)
(0.0179268 0.0784444 0)
(0.0177642 0.0553923 0)
(0.0150627 0.0335618 0)
(0.0148517 0.0110138 0)
(0.0110276 -0.00836418 0)
(0.0111454 -0.0287321 0)
(0.00614911 -0.0448901 0)
(0.00711195 -0.0641607 0)
(0.000771364 -0.0790102 0)
(0.00304314 -0.10075 0)
(-0.00506073 -0.117045 0)
(-0.00101062 -0.144627 0)
(-0.0113109 -0.16221 0)
(-0.00508976 -0.196916 0)
(-0.0192852 -0.221121 0)
(-0.0161314 -0.30068 0)
(-0.0349604 -0.382534 0)
(-0.0141434 -0.406598 0)
(0.00758533 0.0636065 0)
(0.0220737 0.160639 0)
(0.0320664 0.212866 0)
(0.0380903 0.237674 0)
(0.0416921 0.241421 0)
(0.0429239 0.2267 0)
(0.04185 0.204117 0)
(0.0409391 0.18029 0)
(0.0396388 0.15902 0)
(0.0400165 0.13911 0)
(0.0395472 0.119958 0)
(0.0406354 0.0993584 0)
(0.0394145 0.0785079 0)
(0.0400258 0.0560156 0)
(0.0370745 0.034889 0)
(0.0370422 0.0127667 0)
(0.0321832 -0.00607247 0)
(0.0320419 -0.0262465 0)
(0.0254241 -0.042076 0)
(0.0259777 -0.0613318 0)
(0.0176335 -0.0759341 0)
(0.0195573 -0.097691 0)
(0.00905331 -0.113697 0)
(0.0128113 -0.141339 0)
(-0.000603682 -0.158617 0)
(0.0054447 -0.193105 0)
(-0.0123146 -0.214449 0)
(-0.00812823 -0.292946 0)
(-0.0322903 -0.381456 0)
(-0.0117142 -0.430209 0)
(0.00627214 0.0482989 0)
(0.0252871 0.146946 0)
(0.0397359 0.20365 0)
(0.049453 0.233442 0)
(0.0560631 0.240007 0)
(0.0593039 0.228745 0)
(0.0596952 0.207492 0)
(0.0597333 0.18375 0)
(0.0591053 0.161652 0)
(0.0604149 0.140789 0)
(0.0605742 0.121214 0)
(0.0627711 0.10051 0)
(0.0619222 0.0801504 0)
(0.0633906 0.0580986 0)
(0.0601609 0.0377505 0)
(0.0605019 0.0160801 0)
(0.0546053 -0.00212595 0)
(0.0544238 -0.0220723 0)
(0.0461355 -0.0375326 0)
(0.0464453 -0.0567621 0)
(0.0359563 -0.071126 0)
(0.0376132 -0.0928579 0)
(0.0244629 -0.108547 0)
(0.0279326 -0.136023 0)
(0.0110165 -0.152798 0)
(0.0167524 -0.186727 0)
(-0.00538827 -0.205197 0)
(-0.000256926 -0.282079 0)
(-0.0304418 -0.376912 0)
(-0.00912867 -0.451568 0)
(0.00376609 0.0320061 0)
(0.0257879 0.126234 0)
(0.0450357 0.188289 0)
(0.0584512 0.220667 0)
(0.0678101 0.231624 0)
(0.073515 0.223058 0)
(0.0752817 0.204137 0)
(0.076694 0.180989 0)
(0.0766142 0.15881 0)
(0.0789918 0.137644 0)
(0.079613 0.118178 0)
(0.0830787 0.0979884 0)
(0.0826183 0.0786617 0)
(0.0852923 0.0577122 0)
(0.0819647 0.0387006 0)
(0.083156 0.0181132 0)
(0.0764696 0.00100993 0)
(0.0767486 -0.0182155 0)
(0.0670119 -0.0329871 0)
(0.0674981 -0.0518462 0)
(0.0549562 -0.0657658 0)
(0.0565772 -0.0871634 0)
(0.040654 -0.102327 0)
(0.0438408 -0.12923 0)
(0.0230715 -0.145351 0)
(0.0283578 -0.17859 0)
(0.00117245 -0.194906 0)
(0.00739105 -0.26987 0)
(-0.0294002 -0.370108 0)
(-0.00612988 -0.47088 0)
(0.000317156 0.0191429 0)
(0.0236926 0.105205 0)
(0.0471001 0.170824 0)
(0.0648295 0.210402 0)
(0.0782786 0.225145 0)
(0.087404 0.221591 0)
(0.091971 0.205086 0)
(0.0954327 0.182911 0)
(0.0963726 0.160314 0)
(0.0998087 0.138156 0)
(0.100653 0.118183 0)
(0.105124 0.0977641 0)
(0.104726 0.0791417 0)
(0.108539 0.0589196 0)
(0.10496 0.0412125 0)
(0.10721 0.0215818 0)
(0.0997336 0.00568013 0)
(0.100829 -0.0128436 0)
(0.0896621 -0.026784 0)
(0.0906488 -0.0452063 0)
(0.0759578 -0.0584956 0)
(0.0777146 -0.0793687 0)
(0.0587609 -0.0937619 0)
(0.0616677 -0.119719 0)
(0.0366167 -0.13485 0)
(0.041304 -0.166869 0)
(0.00826374 -0.181218 0)
(0.0155598 -0.254006 0)
(-0.0288813 -0.360218 0)
(-0.00245481 -0.488371 0)
(-0.00120236 0.0081203 0)
(0.0190217 0.0783561 0)
(0.0458265 0.146768 0)
(0.0670508 0.188449 0)
(0.083424 0.208952 0)
(0.0964099 0.208941 0)
(0.103679 0.196514 0)
(0.110356 0.176488 0)
(0.112826 0.15504 0)
(0.118269 0.133218 0)
(0.119537 0.11358 0)
(0.125547 0.0936867 0)
(0.125144 0.0761133 0)
(0.130578 0.0571784 0)
(0.126716 0.0410272 0)
(0.1306 0.022905 0)
(0.12243 0.00847951 0)
(0.124955 -0.0087883 0)
(0.112516 -0.0215978 0)
(0.11453 -0.039045 0)
(0.0977908 -0.0513893 0)
(0.0999919 -0.0711981 0)
(0.077921 -0.0844686 0)
(0.0805465 -0.108854 0)
(0.0508726 -0.122677 0)
(0.0547853 -0.152954 0)
(0.0152913 -0.166063 0)
(0.0238419 -0.236251 0)
(-0.0290257 -0.348274 0)
(0.00221273 -0.503919 0)
(-0.00179166 0.00191433 0)
(0.013066 0.0579652 0)
(0.0400154 0.122873 0)
(0.064863 0.172613 0)
(0.0860564 0.195854 0)
(0.103906 0.20136 0)
(0.115767 0.191815 0)
(0.126679 0.174007 0)
(0.131774 0.153502 0)
(0.1398 0.131635 0)
(0.141829 0.112164 0)
(0.149462 0.0922113 0)
(0.148911 0.0754824 0)
(0.155894 0.05729 0)
(0.151548 0.0426746 0)
(0.157106 0.0256712 0)
(0.148132 0.0129144 0)
(0.152252 -0.00331845 0)
(0.13843 -0.0146241 0)
(0.141638 -0.0311139 0)
(0.12259 -0.0419749 0)
(0.125288 -0.0604633 0)
(0.099624 -0.071943 0)
(0.101938 -0.0942244 0)
(0.0670798 -0.106131 0)
(0.0702198 -0.133985 0)
(0.0236035 -0.146241 0)
(0.0338093 -0.21367 0)
(-0.028733 -0.333342 0)
(0.00858277 -0.517202 0)
(0.00117621 -0.00318897 0)
(0.0087924 0.0354249 0)
(0.0309413 0.0947169 0)
(0.0565785 0.141025 0)
(0.0785147 0.169642 0)
(0.101593 0.178136 0)
(0.117527 0.173947 0)
(0.134768 0.159907 0)
(0.143715 0.142611 0)
(0.156691 0.122763 0)
(0.160499 0.10484 0)
(0.171618 0.0861668 0)
(0.171171 0.0707197 0)
(0.180958 0.0540187 0)
(0.175879 0.0409336 0)
(0.184011 0.025671 0)
(0.173801 0.0145205 0)
(0.180235 6.57726e-05 0)
(0.164589 -0.00969813 0)
(0.169583 -0.0243312 0)
(0.147865 -0.0335646 0)
(0.151544 -0.0497965 0)
(0.12207 -0.0593333 0)
(0.124415 -0.078698 0)
(0.084174 -0.088629 0)
(0.0865857 -0.113429 0)
(0.032617 -0.125974 0)
(0.0445037 -0.189755 0)
(-0.0279376 -0.316864 0)
(0.0172939 -0.527049 0)
(-0.000617874 -0.00783904 0)
(0.00222675 0.02912 0)
(0.0167992 0.0754809 0)
(0.0422551 0.125677 0)
(0.0685987 0.150793 0)
(0.096799 0.162075 0)
(0.118507 0.158992 0)
(0.142287 0.147462 0)
(0.156036 0.132622 0)
(0.174698 0.114617 0)
(0.181129 0.0986606 0)
(0.196343 0.0813173 0)
(0.196709 0.0677434 0)
(0.209436 0.0523008 0)
(0.204119 0.0413429 0)
(0.214583 0.0273494 0)
(0.203444 0.0185366 0)
(0.211792 0.00530202 0)
(0.194422 -0.00195367 0)
(0.200846 -0.0152545 0)
(0.176241 -0.0216414 0)
(0.180775 -0.0359445 0)
(0.146813 -0.0420749 0)
(0.149559 -0.0583418 0)
(0.102949 -0.0647441 0)
(0.106299 -0.0858664 0)
(0.0446627 -0.0986257 0)
(0.0611555 -0.158495 0)
(-0.0213107 -0.296504 0)
(0.0307161 -0.531231 0)
(0.00486573 -0.00450369 0)
(0.0048272 0.0168535 0)
(-0.0010048 0.054943 0)
(0.0192879 0.0875682 0)
(0.0400722 0.114709 0)
(0.0749073 0.126192 0)
(0.100755 0.128188 0)
(0.134111 0.120842 0)
(0.153195 0.110632 0)
(0.18068 0.0966179 0)
(0.190557 0.0840984 0)
(0.212752 0.0697205 0)
(0.214181 0.0587225 0)
(0.232373 0.0457517 0)
(0.22616 0.0369508 0)
(0.241238 0.0253988 0)
(0.227649 0.0185094 0)
(0.24021 0.00795867 0)
(0.219024 0.00249116 0)
(0.229476 -0.00758943 0)
(0.199849 -0.0121711 0)
(0.20843 -0.0223915 0)
(0.168673 -0.0266456 0)
(0.175893 -0.0380346 0)
(0.123506 -0.043413 0)
(0.1321 -0.0605555 0)
(0.0643371 -0.0768778 0)
(0.0849892 -0.132017 0)
(-0.00583344 -0.275832 0)
(0.050711 -0.52264 0)
(-0.0231708 -0.0193578 0)
(-0.023068 0.0379846 0)
(-0.0179282 0.0616633 0)
(-0.0080321 0.0871399 0)
(0.0196238 0.0952071 0)
(0.0569175 0.101038 0)
(0.0877513 0.099525 0)
(0.127557 0.0936664 0)
(0.151282 0.0865655 0)
(0.185565 0.0761096 0)
(0.198703 0.067788 0)
(0.226694 0.056879 0)
(0.229533 0.049715 0)
(0.25245 0.0396484 0)
(0.245976 0.0343126 0)
(0.265172 0.0251225 0)
(0.250009 0.0216015 0)
(0.266684 0.0129446 0)
(0.242863 0.0110668 0)
(0.258146 0.00251055 0)
(0.224904 0.00207919 0)
(0.240051 -0.00682103 0)
(0.19553 -0.00616628 0)
(0.212412 -0.0161076 0)
(0.15334 -0.0161416 0)
(0.175688 -0.0306648 0)
(0.0984187 -0.0432441 0)
(0.135985 -0.0921639 0)
(0.0441507 -0.239647 0)
(0.0886174 -0.490294 0)
(-0.0860478 0.0461997 0)
(-0.0867977 0.00948655 0)
(-0.115873 0.0412739 0)
(-0.0722244 0.0461911 0)
(-0.0518752 0.0485595 0)
(0.00236645 0.0545488 0)
(0.0341334 0.0564379 0)
(0.0867423 0.0544744 0)
(0.112005 0.0522991 0)
(0.159319 0.0470437 0)
(0.172555 0.0432829 0)
(0.214712 0.0371524 0)
(0.215599 0.0336326 0)
(0.254236 0.0277437 0)
(0.243572 0.0250877 0)
(0.280751 0.0198003 0)
(0.259009 0.017983 0)
(0.296886 0.0134148 0)
(0.263891 0.0121175 0)
(0.304691 0.00841348 0)
(0.25959 0.0070947 0)
(0.305673 0.00452516 0)
(0.247034 0.00225466 0)
(0.300901 0.000634698 0)
(0.227063 -0.0051007 0)
(0.290841 -0.0110891 0)
(0.20061 -0.0333054 0)
(0.27207 -0.081858 0)
(0.156741 -0.210226 0)
(0.149001 -0.405263 0)
(0.0820434 0.134221 0)
(0.121147 0.0754903 0)
(0.156548 0.0501178 0)
(0.210146 0.0288619 0)
(0.227733 0.0209671 0)
(0.276902 0.0147288 0)
(0.292881 0.0140404 0)
(0.345999 0.0135041 0)
(0.357983 0.0136755 0)
(0.411667 0.0134558 0)
(0.416329 0.0130773 0)
(0.468415 0.0123571 0)
(0.464109 0.0115695 0)
(0.514427 0.0105958 0)
(0.500905 0.00966974 0)
(0.550323 0.0086757 0)
(0.527836 0.00777843 0)
(0.577544 0.00682654 0)
(0.546389 0.00610024 0)
(0.59756 0.00505588 0)
(0.557912 0.00474316 0)
(0.611567 0.00315467 0)
(0.563301 0.00374179 0)
(0.620103 0.000383062 0)
(0.561717 0.00252522 0)
(0.620384 -0.00641397 0)
(0.54185 -0.00415862 0)
(0.586093 -0.0343582 0)
(0.420781 -0.0525421 0)
(0.307684 -0.177745 0)
)
;

boundaryField
{
    movingWall
    {
        type            fixedValue;
        value           uniform (1 0 0);
    }
    fixedWalls
    {
        type            noSlip;
    }
    frontAndBack
    {
        type            empty;
    }
}


// ************************************************************************* //
