/*--------------------------------*- C++ -*----------------------------------*\
| =========                 |                                                 |
| \\      /  F ield         | OpenFOAM: The Open Source CFD Toolbox           |
|  \\    /   O peration     | Version:  2406                                  |
|   \\  /    A nd           | Website:  www.openfoam.com                      |
|    \\/     M anipulation  |                                                 |
\*---------------------------------------------------------------------------*/
FoamFile
{
    version     2.0;
    format      ascii;
    arch        "LSB;label=32;scalar=64";
    class       volVectorField;
    location    "25.65";
    object      U;
}
// * * * * * * * * * * * * * * * * * * * * * * * * * * * * * * * * * * * * * //

dimensions      [0 1 -1 0 0 0 0];

internalField   nonuniform List<vector> 
3600
(
(2.61386e-05 -2.64674e-05 0)
(0.000206712 -8.51504e-05 0)
(0.000494109 -0.000107178 0)
(0.000778147 -0.000105636 0)
(0.00104686 -9.31001e-05 0)
(0.00125106 -7.61948e-05 0)
(0.00140537 -6.17629e-05 0)
(0.001495 -4.90761e-05 0)
(0.00153386 -3.97376e-05 0)
(0.0015112 -2.90122e-05 0)
(0.00142042 -1.53769e-05 0)
(0.0012361 6.28662e-06 0)
(0.000927879 3.70147e-05 0)
(0.000457318 7.95989e-05 0)
(-0.000218317 0.000133883 0)
(-0.00114229 0.000201806 0)
(-0.0023626 0.00028387 0)
(-0.00392473 0.00038187 0)
(-0.00587541 0.000495244 0)
(-0.00824964 0.000622303 0)
(-0.0110708 0.000757849 0)
(-0.0143349 0.000895711 0)
(-0.0180081 0.00102856 0)
(-0.0220107 0.00114884 0)
(-0.0262164 0.00124509 0)
(-0.0304445 0.00130029 0)
(-0.0344701 0.00129115 0)
(-0.0380312 0.00119324 0)
(-0.0408519 0.000986503 0)
(-0.0426605 0.000662009 0)
(-0.0432189 0.000224673 0)
(-0.0423404 -0.000305065 0)
(-0.0399168 -0.000893257 0)
(-0.0359292 -0.00149428 0)
(-0.0304678 -0.00205527 0)
(-0.0237294 -0.00252012 0)
(-0.0160268 -0.00283603 0)
(-0.00776297 -0.0029599 0)
(0.000577908 -0.00286624 0)
(0.00848807 -0.00255384 0)
(0.0154641 -0.00205006 0)
(0.0210906 -0.00141111 0)
(0.0250644 -0.000714546 0)
(0.0272712 -4.75245e-05 0)
(0.0277601 0.000512881 0)
(0.0267743 0.000914097 0)
(0.0246495 0.00114109 0)
(0.0218068 0.00121094 0)
(0.0186141 0.00116462 0)
(0.0154124 0.00104627 0)
(0.012398 0.00089645 0)
(0.00972977 0.000740755 0)
(0.00742161 0.000598772 0)
(0.00550886 0.000476233 0)
(0.00390609 0.000381677 0)
(0.00261077 0.000305536 0)
(0.00152587 0.000246706 0)
(0.000695287 0.000165444 0)
(0.000128997 6.17267e-05 0)
(-7.13223e-05 -7.7262e-05 0)
(8.60992e-05 -0.000206664 0)
(0.000447244 -0.000444497 0)
(0.000956287 -0.000520875 0)
(0.0014279 -0.000487521 0)
(0.00183101 -0.000397955 0)
(0.00207579 -0.000273663 0)
(0.00216359 -0.0001457 0)
(0.00205689 -1.03763e-05 0)
(0.00175372 0.00012696 0)
(0.00121548 0.000289464 0)
(0.000398613 0.000489135 0)
(-0.000772951 0.000752388 0)
(-0.00239269 0.00108926 0)
(-0.00456871 0.00151399 0)
(-0.00741826 0.00202727 0)
(-0.0110536 0.00263347 0)
(-0.015583 0.00332736 0)
(-0.0210883 0.00410184 0)
(-0.0276198 0.00493486 0)
(-0.0351636 0.00579404 0)
(-0.0436313 0.00662898 0)
(-0.0528311 0.00737599 0)
(-0.0624743 0.00795427 0)
(-0.0721787 0.00827542 0)
(-0.0815075 0.00825125 0)
(-0.0899987 0.00781102 0)
(-0.0972119 0.00691015 0)
(-0.102751 0.00553956 0)
(-0.106293 0.0037243 0)
(-0.107591 0.00152418 0)
(-0.106487 -0.000972745 0)
(-0.102904 -0.00365174 0)
(-0.0968595 -0.00637836 0)
(-0.0884547 -0.00900013 0)
(-0.0778928 -0.0113552 0)
(-0.0654688 -0.0132774 0)
(-0.0515871 -0.0146113 0)
(-0.0367394 -0.0152241 0)
(-0.0215129 -0.0150283 0)
(-0.00654014 -0.0139972 0)
(0.00750802 -0.0121837 0)
(0.0200089 -0.00972575 0)
(0.0304004 -0.00683956 0)
(0.0382889 -0.00379764 0)
(0.043436 -0.000887942 0)
(0.0458564 0.00162889 0)
(0.0457412 0.00356878 0)
(0.0435201 0.00484606 0)
(0.0396985 0.00548448 0)
(0.0348954 0.00558629 0)
(0.0296223 0.0053034 0)
(0.0243746 0.00478562 0)
(0.0194142 0.00416939 0)
(0.0149811 0.00354315 0)
(0.0110737 0.00297755 0)
(0.00776701 0.0024728 0)
(0.00494543 0.00202861 0)
(0.00270481 0.00152125 0)
(0.00101452 0.000927827 0)
(0.000103805 0.000152186 0)
(0.000109485 -0.000497268 0)
(0.000516144 -0.000951671 0)
(0.00105059 -0.00106872 0)
(0.00148224 -0.000944461 0)
(0.00176386 -0.000693664 0)
(0.00178206 -0.000350451 0)
(0.00151546 2.23898e-05 0)
(0.000902012 0.00043588 0)
(-9.53533e-05 0.000885076 0)
(-0.00155498 0.00142351 0)
(-0.00357632 0.00208568 0)
(-0.00629571 0.00293195 0)
(-0.00987686 0.00398934 0)
(-0.0144918 0.00528604 0)
(-0.0203149 0.00681814 0)
(-0.0274896 0.00857713 0)
(-0.0361213 0.0105236 0)
(-0.0462296 0.0125971 0)
(-0.0577323 0.0146925 0)
(-0.0704014 0.016669 0)
(-0.0838755 0.0183466 0)
(-0.0976703 0.0195347 0)
(-0.111247 0.0200552 0)
(-0.124056 0.0197765 0)
(-0.135607 0.018624 0)
(-0.145478 0.0165867 0)
(-0.153347 0.0137043 0)
(-0.15897 0.01006 0)
(-0.162179 0.00576632 0)
(-0.162862 0.000962723 0)
(-0.16096 -0.00419196 0)
(-0.15645 -0.00951563 0)
(-0.149363 -0.0148067 0)
(-0.139772 -0.0198393 0)
(-0.127819 -0.0243711 0)
(-0.113717 -0.0281451 0)
(-0.0977757 -0.0309104 0)
(-0.0803965 -0.0324376 0)
(-0.0620947 -0.0325545 0)
(-0.0434638 -0.0311724 0)
(-0.0251799 -0.0283218 0)
(-0.00792493 -0.0241658 0)
(0.00762394 -0.0190045 0)
(0.0209036 -0.0132476 0)
(0.0314562 -0.00736795 0)
(0.0390431 -0.00184079 0)
(0.0435833 0.00292533 0)
(0.0452583 0.00663904 0)
(0.0443837 0.00916682 0)
(0.041501 0.0105326 0)
(0.0371593 0.0109003 0)
(0.0320096 0.0105136 0)
(0.0265196 0.00964995 0)
(0.0211634 0.00854837 0)
(0.0161212 0.00740446 0)
(0.0116341 0.00629499 0)
(0.00765655 0.00523931 0)
(0.00438839 0.0040652 0)
(0.00178509 0.00266846 0)
(0.000267472 0.000844118 0)
(0.000108687 -0.000775788 0)
(0.000458353 -0.00139167 0)
(0.000853823 -0.00147681 0)
(0.00105165 -0.0011711 0)
(0.000988938 -0.000657561 0)
(0.000539734 2.70796e-05 0)
(-0.000349315 0.000792725 0)
(-0.00177071 0.00166871 0)
(-0.00381576 0.00265939 0)
(-0.00661769 0.00385954 0)
(-0.0103502 0.00533305 0)
(-0.015216 0.00717605 0)
(-0.021445 0.00942556 0)
(-0.0292456 0.0121065 0)
(-0.0387971 0.01518 0)
(-0.0501848 0.018578 0)
(-0.0633837 0.0221618 0)
(-0.0781937 0.0257376 0)
(-0.094251 0.0290386 0)
(-0.111032 0.0317705 0)
(-0.127943 0.0336457 0)
(-0.144384 0.0344452 0)
(-0.159832 0.0340341 0)
(-0.173856 0.0323724 0)
(-0.186142 0.0294893 0)
(-0.196453 0.0254692 0)
(-0.204628 0.0204255 0)
(-0.210545 0.0144952 0)
(-0.214116 0.00782583 0)
(-0.215264 0.00058142 0)
(-0.213927 -0.00706004 0)
(-0.21005 -0.0148947 0)
(-0.2036 -0.0226925 0)
(-0.194563 -0.030185 0)
(-0.182972 -0.0370714 0)
(-0.168915 -0.0430162 0)
(-0.152572 -0.0476721 0)
(-0.13422 -0.0506994 0)
(-0.114272 -0.0518125 0)
(-0.0932581 -0.0508192 0)
(-0.0718445 -0.0476772 0)
(-0.0507623 -0.0425216 0)
(-0.0307909 -0.0356854 0)
(-0.0126378 -0.0276695 0)
(0.00307552 -0.0190912 0)
(0.0159361 -0.0106008 0)
(0.025682 -0.00279945 0)
(0.0322996 0.00382948 0)
(0.0358968 0.00896973 0)
(0.0368205 0.0124934 0)
(0.0354728 0.0144624 0)
(0.0324515 0.015096 0)
(0.0282637 0.0147183 0)
(0.0235178 0.0136793 0)
(0.0185542 0.0122985 0)
(0.0138038 0.0107729 0)
(0.00934521 0.00917544 0)
(0.00552427 0.00734191 0)
(0.00233475 0.00504539 0)
(0.000387322 0.0019163 0)
(8.96529e-05 -0.00102667 0)
(0.000294567 -0.00170953 0)
(0.000410825 -0.00165984 0)
(0.000210568 -0.00105755 0)
(-0.000390532 -0.000152321 0)
(-0.00152433 0.00102873 0)
(-0.00328897 0.00237698 0)
(-0.00581289 0.00395458 0)
(-0.00925935 0.00578783 0)
(-0.0138257 0.00802379 0)
(-0.0197677 0.0107579 0)
(-0.0273415 0.0141118 0)
(-0.0368092 0.0181062 0)
(-0.0483476 0.0227186 0)
(-0.0620406 0.0278103 0)
(-0.0777835 0.0331701 0)
(-0.0952905 0.0384716 0)
(-0.114062 0.0433298 0)
(-0.133485 0.04733 0)
(-0.152898 0.0501219 0)
(-0.171713 0.0514545 0)
(-0.189439 0.0512067 0)
(-0.20572 0.0493583 0)
(-0.220291 0.0459732 0)
(-0.23298 0.0411599 0)
(-0.243659 0.0350591 0)
(-0.252248 0.0278206 0)
(-0.25868 0.0196041 0)
(-0.262908 0.0105694 0)
(-0.264875 0.000887845 0)
(-0.26453 -0.00925922 0)
(-0.2618 -0.0196625 0)
(-0.256613 -0.0300816 0)
(-0.24888 -0.0402264 0)
(-0.238531 -0.0497579 0)
(-0.225509 -0.0582784 0)
(-0.209826 -0.0653515 0)
(-0.191578 -0.070518 0)
(-0.171002 -0.0733501 0)
(-0.148493 -0.0735018 0)
(-0.124648 -0.0707908 0)
(-0.100223 -0.0652536 0)
(-0.0761242 -0.0571988 0)
(-0.0532692 -0.0471899 0)
(-0.0325262 -0.035995 0)
(-0.0145432 -0.0244672 0)
(0.000242304 -0.013428 0)
(0.0116951 -0.00355952 0)
(0.0198299 0.00464751 0)
(0.0248907 0.0109195 0)
(0.0271619 0.0151913 0)
(0.0271342 0.0176008 0)
(0.0252504 0.0184377 0)
(0.0221297 0.0180945 0)
(0.0181815 0.016965 0)
(0.0139658 0.0153632 0)
(0.00968475 0.0134207 0)
(0.00583194 0.0110183 0)
(0.00249087 0.00779311 0)
(0.000417065 0.00320071 0)
(5.39851e-05 -0.00115404 0)
(2.42596e-05 -0.0017259 0)
(-0.000285212 -0.00139224 0)
(-0.00105438 -0.000349701 0)
(-0.00239466 0.00110071 0)
(-0.00443798 0.00295975 0)
(-0.00734357 0.00511622 0)
(-0.0112827 0.00768203 0)
(-0.0165067 0.0107174 0)
(-0.023277 0.0144228 0)
(-0.0319201 0.0189086 0)
(-0.0427006 0.0242825 0)
(-0.0558381 0.0304875 0)
(-0.0713656 0.0373722 0)
(-0.0891451 0.0446088 0)
(-0.108776 0.0517695 0)
(-0.129688 0.0583268 0)
(-0.151172 0.063777 0)
(-0.17255 0.067696 0)
(-0.193211 0.0698175 0)
(-0.212696 0.0700147 0)
(-0.230654 0.0682926 0)
(-0.24686 0.0647349 0)
(-0.261159 0.0594863 0)
(-0.27348 0.0527137 0)
(-0.283787 0.0445999 0)
(-0.292095 0.0353207 0)
(-0.298424 0.0250495 0)
(-0.30281 0.0139459 0)
(-0.305267 0.00217022 0)
(-0.305793 -0.0101177 0)
(-0.30434 -0.022736 0)
(-0.300824 -0.0354742 0)
(-0.295105 -0.0480665 0)
(-0.287011 -0.0601847 0)
(-0.276331 -0.0714163 0)
(-0.26287 -0.0812738 0)
(-0.246464 -0.0891988 0)
(-0.227069 -0.094611 0)
(-0.204799 -0.0969625 0)
(-0.180025 -0.0958397 0)
(-0.153384 -0.091055 0)
(-0.125814 -0.0827536 0)
(-0.0984481 -0.0714494 0)
(-0.0725103 -0.0580101 0)
(-0.0490759 -0.0435211 0)
(-0.0289548 -0.0291112 0)
(-0.0125226 -0.0157521 0)
(0.000150172 -0.00415782 0)
(0.00930112 0.00525427 0)
(0.0152197 0.0123111 0)
(0.0183659 0.0170717 0)
(0.0191357 0.0197566 0)
(0.0181133 0.0207438 0)
(0.015717 0.0204385 0)
(0.0125634 0.0192295 0)
(0.00895074 0.0172855 0)
(0.00548281 0.0145367 0)
(0.00235406 0.010495 0)
(0.000389082 0.00446767 0)
(1.41374e-06 -0.00114415 0)
(-0.000352621 -0.00137961 0)
(-0.00122854 -0.000581835 0)
(-0.00272648 0.00106665 0)
(-0.00499387 0.00324178 0)
(-0.00815957 0.00599557 0)
(-0.0124616 0.00923428 0)
(-0.0181166 0.0131345 0)
(-0.0254692 0.0177953 0)
(-0.0348228 0.0234545 0)
(-0.0465301 0.0301944 0)
(-0.0607813 0.0380366 0)
(-0.0776486 0.0467558 0)
(-0.0969097 0.0559793 0)
(-0.118136 0.0651321 0)
(-0.140646 0.0735836 0)
(-0.163696 0.0807018 0)
(-0.186528 0.0860011 0)
(-0.208522 0.089158 0)
(-0.229166 0.090041 0)
(-0.248114 0.0886517 0)
(-0.26512 0.0851075 0)
(-0.280071 0.079586 0)
(-0.292928 0.0723111 0)
(-0.303747 0.0635117 0)
(-0.312623 0.0534172 0)
(-0.319697 0.0422298 0)
(-0.325106 0.0301317 0)
(-0.328991 0.017272 0)
(-0.331449 0.00378494 0)
(-0.332548 -0.0102113 0)
(-0.332282 -0.0245873 0)
(-0.330591 -0.0391951 0)
(-0.32732 -0.0538335 0)
(-0.322244 -0.0682356 0)
(-0.315038 -0.0820339 0)
(-0.305324 -0.0947536 0)
(-0.292677 -0.105797 0)
(-0.276712 -0.114473 0)
(-0.257143 -0.120036 0)
(-0.233918 -0.121787 0)
(-0.207308 -0.11919 0)
(-0.178021 -0.11204 0)
(-0.147194 -0.100578 0)
(-0.116337 -0.0855815 0)
(-0.0870738 -0.0682905 0)
(-0.0608843 -0.0502142 0)
(-0.0387403 -0.0328065 0)
(-0.0210485 -0.0172079 0)
(-0.00763825 -0.00409658 0)
(0.00188429 0.00623317 0)
(0.00809373 0.0138035 0)
(0.0114619 0.0188015 0)
(0.0125894 0.0215947 0)
(0.0119103 0.0225726 0)
(0.0100589 0.0221595 0)
(0.00740246 0.0205323 0)
(0.00460626 0.0176547 0)
(0.00196921 0.0129431 0)
(0.000309901 0.00560608 0)
(-7.39146e-05 -0.000897388 0)
(-0.000855106 -0.000492253 0)
(-0.00244715 0.000986212 0)
(-0.00483735 0.00342958 0)
(-0.00822047 0.00653457 0)
(-0.0127202 0.0104326 0)
(-0.0186693 0.0150678 0)
(-0.0263246 0.020687 0)
(-0.0361119 0.0274146 0)
(-0.048327 0.0354781 0)
(-0.0632728 0.0448544 0)
(-0.0809592 0.0553802 0)
(-0.101213 0.0665721 0)
(-0.1235 0.0777891 0)
(-0.147127 0.088239 0)
(-0.171231 0.0971907 0)
(-0.19502 0.104035 0)
(-0.217764 0.108395 0)
(-0.238925 0.11009 0)
(-0.258083 0.109134 0)
(-0.275011 0.105668 0)
(-0.289598 0.0999373 0)
(-0.301891 0.0922319 0)
(-0.312015 0.082868 0)
(-0.32019 0.0721388 0)
(-0.326651 0.060311 0)
(-0.331665 0.0475971 0)
(-0.335464 0.0341677 0)
(-0.33827 0.0201415 0)
(-0.340244 0.00560793 0)
(-0.341509 -0.00937346 0)
(-0.342112 -0.0247439 0)
(-0.34204 -0.0404389 0)
(-0.341174 -0.0563532 0)
(-0.339307 -0.0723247 0)
(-0.3361 -0.0880926 0)
(-0.331096 -0.103276 0)
(-0.323705 -0.117334 0)
(-0.313262 -0.129565 0)
(-0.299073 -0.139111 0)
(-0.28056 -0.145025 0)
(-0.257391 -0.14638 0)
(-0.229691 -0.142457 0)
(-0.198171 -0.13295 0)
(-0.164227 -0.118186 0)
(-0.129806 -0.0992228 0)
(-0.0971342 -0.0777801 0)
(-0.0681789 -0.0558942 0)
(-0.0442327 -0.035451 0)
(-0.0256199 -0.0177374 0)
(-0.011981 -0.00336889 0)
(-0.00254303 0.00760914 0)
(0.00340828 0.0154064 0)
(0.00662488 0.020437 0)
(0.00764153 0.0231002 0)
(0.00713011 0.023845 0)
(0.00552659 0.0228428 0)
(0.00352189 0.0200706 0)
(0.00150092 0.0148911 0)
(0.000220519 0.00648105 0)
(-0.000172602 -0.000383266 0)
(-0.00148125 0.00101016 0)
(-0.00392769 0.00340468 0)
(-0.00735352 0.00684344 0)
(-0.0120157 0.0111028 0)
(-0.0180301 0.0164222 0)
(-0.0258335 0.0227989 0)
(-0.0357019 0.0305381 0)
(-0.0481064 0.0397496 0)
(-0.0632577 0.0505714 0)
(-0.0813174 0.0627754 0)
(-0.102023 0.07592 0)
(-0.124912 0.089219 0)
(-0.149161 0.101792 0)
(-0.173901 0.112725 0)
(-0.198184 0.121301 0)
(-0.221239 0.127016 0)
(-0.242394 0.129648 0)
(-0.261223 0.129187 0)
(-0.277448 0.125824 0)
(-0.29103 0.119866 0)
(-0.302055 0.111709 0)
(-0.310775 0.101759 0)
(-0.317484 0.0904076 0)
(-0.322545 0.0779853 0)
(-0.326289 0.0647654 0)
(-0.329047 0.0509418 0)
(-0.331085 0.0366524 0)
(-0.332647 0.0219724 0)
(-0.333904 0.0069431 0)
(-0.335003 -0.00843037 0)
(-0.336017 -0.0241503 0)
(-0.336986 -0.0402255 0)
(-0.337862 -0.0566402 0)
(-0.338527 -0.0733441 0)
(-0.338731 -0.0902104 0)
(-0.338093 -0.10701 0)
(-0.336041 -0.123357 0)
(-0.33183 -0.138672 0)
(-0.324535 -0.152147 0)
(-0.313154 -0.162751 0)
(-0.296723 -0.169283 0)
(-0.274566 -0.170526 0)
(-0.246539 -0.16547 0)
(-0.213316 -0.153638 0)
(-0.176518 -0.135381 0)
(-0.13865 -0.112093 0)
(-0.102639 -0.0860847 0)
(-0.0711483 -0.0601118 0)
(-0.0457649 -0.0365647 0)
(-0.0267687 -0.0169091 0)
(-0.0133862 -0.00154075 0)
(-0.00456086 0.00974698 0)
(0.000789496 0.0175001 0)
(0.00345308 0.0222158 0)
(0.00422628 0.0244121 0)
(0.00364998 0.0242792 0)
(0.00243729 0.0218077 0)
(0.00104064 0.0163567 0)
(0.000136942 0.00712388 0)
(-0.000301206 0.000508689 0)
(-0.00224512 0.00330434 0)
(-0.00568019 0.00686956 0)
(-0.0102726 0.0115157 0)
(-0.0163566 0.0171717 0)
(-0.0240344 0.0242081 0)
(-0.0338438 0.0326766 0)
(-0.0460411 0.0429013 0)
(-0.0610838 0.0549069 0)
(-0.0790085 0.0686381 0)
(-0.0997552 0.0835675 0)
(-0.12274 0.0989232 0)
(-0.147232 0.11364 0)
(-0.172187 0.126683 0)
(-0.196648 0.137127 0)
(-0.219651 0.144355 0)
(-0.240503 0.148033 0)
(-0.258654 0.148147 0)
(-0.273875 0.144908 0)
(-0.286118 0.138726 0)
(-0.295596 0.130096 0)
(-0.302619 0.119554 0)
(-0.307624 0.107583 0)
(-0.311028 0.0946077 0)
(-0.313263 0.0809475 0)
(-0.314679 0.0668389 0)
(-0.315595 0.0524253 0)
(-0.316239 0.0377913 0)
(-0.316814 0.0229608 0)
(-0.317451 0.00793016 0)
(-0.318271 -0.00733684 0)
(-0.319347 -0.0228824 0)
(-0.320747 -0.0387611 0)
(-0.322486 -0.0550166 0)
(-0.324552 -0.0716822 0)
(-0.326842 -0.0887488 0)
(-0.329154 -0.106146 0)
(-0.331105 -0.123687 0)
(-0.332109 -0.141021 0)
(-0.331301 -0.157552 0)
(-0.327564 -0.172393 0)
(-0.319561 -0.184328 0)
(-0.305928 -0.191869 0)
(-0.28553 -0.193413 0)
(-0.257867 -0.187555 0)
(-0.223457 -0.173516 0)
(-0.184146 -0.151631 0)
(-0.143034 -0.123666 0)
(-0.103943 -0.0927263 0)
(-0.0703032 -0.062465 0)
(-0.0440677 -0.0359328 0)
(-0.0252491 -0.0146266 0)
(-0.0126636 0.00131152 0)
(-0.00477535 0.0125578 0)
(-0.000349286 0.0198268 0)
(0.0016887 0.0238141 0)
(0.0020686 0.0248047 0)
(0.001565 0.0228379 0)
(0.000697434 0.0173257 0)
(8.42597e-05 0.007534 0)
(-0.000455835 0.0018162 0)
(-0.00312413 0.00645154 0)
(-0.00765061 0.0114393 0)
(-0.0134998 0.0174988 0)
(-0.0210981 0.0247932 0)
(-0.030521 0.0338344 0)
(-0.0423901 0.0447095 0)
(-0.0568855 0.0576947 0)
(-0.074381 0.0726374 0)
(-0.0946585 0.0891866 0)
(-0.117392 0.106457 0)
(-0.141684 0.12335 0)
(-0.166595 0.138598 0)
(-0.190941 0.151113 0)
(-0.213764 0.160057 0)
(-0.234165 0.164997 0)
(-0.251618 0.165842 0)
(-0.265802 0.162853 0)
(-0.276781 0.156513 0)
(-0.284785 0.147456 0)
(-0.290281 0.136335 0)
(-0.293755 0.123764 0)
(-0.295751 0.110244 0)
(-0.296717 0.0961616 0)
(-0.297066 0.0817726 0)
(-0.297081 0.0672399 0)
(-0.297004 0.052635 0)
(-0.296971 0.0379829 0)
(-0.297106 0.0232618 0)
(-0.297467 0.00843705 0)
(-0.298128 -0.00654642 0)
(-0.299129 -0.0217421 0)
(-0.300538 -0.0372144 0)
(-0.302403 -0.0530237 0)
(-0.304788 -0.0692363 0)
(-0.307713 -0.0859073 0)
(-0.311164 -0.103075 0)
(-0.315007 -0.120725 0)
(-0.318952 -0.138744 0)
(-0.322444 -0.156842 0)
(-0.324608 -0.174456 0)
(-0.324175 -0.190649 0)
(-0.319539 -0.20404 0)
(-0.308901 -0.21282 0)
(-0.290625 -0.214925 0)
(-0.263729 -0.208423 0)
(-0.2285 -0.192123 0)
(-0.186951 -0.166279 0)
(-0.142885 -0.133152 0)
(-0.101134 -0.0968623 0)
(-0.0660316 -0.062277 0)
(-0.039723 -0.0330663 0)
(-0.0218102 -0.0106924 0)
(-0.0104703 0.00530296 0)
(-0.00386183 0.0159103 0)
(-0.000433838 0.0221639 0)
(0.000869678 0.0245823 0)
(0.000977175 0.0233418 0)
(0.000501714 0.0179734 0)
(6.53341e-05 0.00783398 0)
(-0.000639498 0.00364437 0)
(-0.00411307 0.0105971 0)
(-0.00980951 0.0172577 0)
(-0.0169732 0.0249321 0)
(-0.0261303 0.0341014 0)
(-0.0373081 0.04541 0)
(-0.0511787 0.058936 0)
(-0.0677809 0.0748148 0)
(-0.0873405 0.0926194 0)
(-0.109334 0.111625 0)
(-0.133173 0.130579 0)
(-0.15769 0.148116 0)
(-0.181822 0.162865 0)
(-0.20434 0.173799 0)
(-0.224377 0.180268 0)
(-0.241207 0.182118 0)
(-0.254589 0.179586 0)
(-0.264512 0.173256 0)
(-0.271364 0.16388 0)
(-0.275628 0.152272 0)
(-0.277954 0.139163 0)
(-0.278899 0.125166 0)
(-0.279016 0.110716 0)
(-0.278684 0.0961076 0)
(-0.278225 0.0814946 0)
(-0.277806 0.0669471 0)
(-0.277559 0.052462 0)
(-0.277519 0.0380109 0)
(-0.277726 0.0235393 0)
(-0.278168 0.00899775 0)
(-0.27887 -0.00567018 0)
(-0.279836 -0.02051 0)
(-0.281118 -0.0355731 0)
(-0.282763 -0.0509072 0)
(-0.284864 -0.0665728 0)
(-0.287507 -0.0826371 0)
(-0.290794 -0.0991808 0)
(-0.294779 -0.116283 0)
(-0.299447 -0.133996 0)
(-0.304606 -0.152295 0)
(-0.309808 -0.170981 0)
(-0.314206 -0.189556 0)
(-0.316477 -0.207069 0)
(-0.31478 -0.221984 0)
(-0.306919 -0.232142 0)
(-0.290712 -0.234935 0)
(-0.264643 -0.227783 0)
(-0.228681 -0.208951 0)
(-0.185029 -0.178618 0)
(-0.138287 -0.139701 0)
(-0.09449 -0.0977592 0)
(-0.0588543 -0.0590706 0)
(-0.0334757 -0.0279404 0)
(-0.017158 -0.00526209 0)
(-0.007505 0.00996919 0)
(-0.00230058 0.019273 0)
(1.91998e-05 0.0235889 0)
(0.000683131 0.0233825 0)
(0.000465493 0.018388 0)
(8.39894e-05 0.00808064 0)
(-0.000840019 0.00601018 0)
(-0.00515827 0.0157462 0)
(-0.0120491 0.0243032 0)
(-0.0205236 0.0337647 0)
(-0.0312089 0.0450066 0)
(-0.0440548 0.0587727 0)
(-0.0597408 0.0750689 0)
(-0.0781026 0.0937893 0)
(-0.0991721 0.114153 0)
(-0.122109 0.135027 0)
(-0.146099 0.154831 0)
(-0.169787 0.172022 0)
(-0.19208 0.185248 0)
(-0.211809 0.193653 0)
(-0.228317 0.196892 0)
(-0.241155 0.195179 0)
(-0.250443 0.189135 0)
(-0.256495 0.179655 0)
(-0.259977 0.167698 0)
(-0.261529 0.154161 0)
(-0.261864 0.139755 0)
(-0.261507 0.125001 0)
(-0.260919 0.110211 0)
(-0.260351 0.0955495 0)
(-0.259995 0.081058 0)
(-0.259891 0.0667188 0)
(-0.26007 0.0524692 0)
(-0.260479 0.0382468 0)
(-0.261097 0.0239837 0)
(-0.261862 0.00963238 0)
(-0.262765 -0.00485013 0)
(-0.263781 -0.0194888 0)
(-0.264941 -0.0343087 0)
(-0.266279 -0.0493298 0)
(-0.267884 -0.0645842 0)
(-0.269855 -0.0801172 0)
(-0.272338 -0.096001 0)
(-0.275478 -0.112336 0)
(-0.279428 -0.129249 0)
(-0.28426 -0.146866 0)
(-0.289919 -0.165261 0)
(-0.296061 -0.184348 0)
(-0.301926 -0.203717 0)
(-0.306163 -0.222423 0)
(-0.306761 -0.238775 0)
(-0.30115 -0.250232 0)
(-0.286609 -0.253553 0)
(-0.261061 -0.245379 0)
(-0.224156 -0.223358 0)
(-0.178361 -0.187637 0)
(-0.129274 -0.14219 0)
(-0.0843075 -0.0944568 0)
(-0.0494213 -0.052465 0)
(-0.0260834 -0.0205224 0)
(-0.0120431 0.00126971 0)
(-0.00433551 0.0148609 0)
(-0.000703098 0.0218084 0)
(0.000573881 0.0230807 0)
(0.000541353 0.0187326 0)
(0.000129269 0.00839032 0)
(-0.00105472 0.0089827 0)
(-0.00623307 0.0219741 0)
(-0.0143035 0.0326322 0)
(-0.024039 0.0440302 0)
(-0.0361555 0.0575035 0)
(-0.0504911 0.0738401 0)
(-0.0676867 0.0928945 0)
(-0.0873308 0.114223 0)
(-0.109246 0.136642 0)
(-0.132302 0.158619 0)
(-0.15553 0.178332 0)
(-0.177477 0.194175 0)
(-0.197132 0.204942 0)
(-0.213492 0.210075 0)
(-0.226215 0.209639 0)
(-0.235193 0.204274 0)
(-0.240906 0.194971 0)
(-0.243934 0.182867 0)
(-0.24511 0.169019 0)
(-0.245109 0.154293 0)
(-0.244599 0.139288 0)
(-0.243976 0.124372 0)
(-0.243566 0.109702 0)
(-0.243468 0.0953109 0)
(-0.24375 0.0811402 0)
(-0.244347 0.0671071 0)
(-0.245219 0.053114 0)
(-0.246259 0.0390847 0)
(-0.247415 0.0249545 0)
(-0.248599 0.0106875 0)
(-0.249786 -0.00373963 0)
(-0.250935 -0.0183293 0)
(-0.252061 -0.0330794 0)
(-0.253177 -0.0479807 0)
(-0.254354 -0.0630316 0)
(-0.255668 -0.0782432 0)
(-0.257262 -0.0936526 0)
(-0.259291 -0.109337 0)
(-0.261969 -0.125418 0)
(-0.265501 -0.142075 0)
(-0.270074 -0.159513 0)
(-0.275736 -0.17792 0)
(-0.282273 -0.197326 0)
(-0.289001 -0.21742 0)
(-0.294564 -0.237252 0)
(-0.29679 -0.254946 0)
(-0.292746 -0.2675 0)
(-0.2792 -0.270925 0)
(-0.253528 -0.260974 0)
(-0.215169 -0.234623 0)
(-0.16704 -0.192274 0)
(-0.116073 -0.13949 0)
(-0.0711953 -0.0864168 0)
(-0.0386412 -0.0425017 0)
(-0.0184316 -0.0114833 0)
(-0.00712827 0.00823001 0)
(-0.00162353 0.0189365 0)
(0.000483618 0.0223567 0)
(0.000665125 0.0190232 0)
(0.00019069 0.00878798 0)
(-0.00126251 0.0125248 0)
(-0.00725701 0.0291919 0)
(-0.0164258 0.0421093 0)
(-0.0273033 0.0555376 0)
(-0.0406746 0.0713171 0)
(-0.0562326 0.0902097 0)
(-0.0745398 0.111844 0)
(-0.0949159 0.135367 0)
(-0.116989 0.159188 0)
(-0.139391 0.181425 0)
(-0.16109 0.200121 0)
(-0.180633 0.213736 0)
(-0.197198 0.221344 0)
(-0.210041 0.222796 0)
(-0.21919 0.218632 0)
(-0.224877 0.209913 0)
(-0.227877 0.197926 0)
(-0.228917 0.183932 0)
(-0.228879 0.168963 0)
(-0.228358 0.153754 0)
(-0.227896 0.138727 0)
(-0.227724 0.12407 0)
(-0.228018 0.109789 0)
(-0.228743 0.0958046 0)
(-0.229875 0.0819908 0)
(-0.23128 0.0682282 0)
(-0.232884 0.0544094 0)
(-0.234554 0.0404628 0)
(-0.236232 0.0263384 0)
(-0.237826 0.0120184 0)
(-0.239308 -0.00249932 0)
(-0.24063 -0.0171963 0)
(-0.241801 -0.0320465 0)
(-0.242813 -0.0470166 0)
(-0.243714 -0.0620744 0)
(-0.244553 -0.0771981 0)
(-0.245436 -0.0923826 0)
(-0.246489 -0.107661 0)
(-0.247909 -0.123111 0)
(-0.249927 -0.138889 0)
(-0.252826 -0.155218 0)
(-0.256874 -0.172404 0)
(-0.262241 -0.190747 0)
(-0.268824 -0.210424 0)
(-0.276011 -0.231205 0)
(-0.282418 -0.252116 0)
(-0.285668 -0.271003 0)
(-0.282467 -0.284275 0)
(-0.269044 -0.287037 0)
(-0.242354 -0.274014 0)
(-0.201784 -0.241648 0)
(-0.151147 -0.191038 0)
(-0.0990991 -0.130484 0)
(-0.0561345 -0.0733046 0)
(-0.0276449 -0.0298807 0)
(-0.0113531 -0.00153446 0)
(-0.00314451 0.0145314 0)
(0.000197019 0.021066 0)
(0.00074732 0.0192586 0)
(0.000251121 0.0093109 0)
(-0.00145698 0.0166409 0)
(-0.00819426 0.0373812 0)
(-0.01834 0.0526904 0)
(-0.0301967 0.068208 0)
(-0.0445877 0.0863081 0)
(-0.0610344 0.107649 0)
(-0.079995 0.131567 0)
(-0.100528 0.156756 0)
(-0.122106 0.181246 0)
(-0.143201 0.202893 0)
(-0.162808 0.219734 0)
(-0.179572 0.230427 0)
(-0.192943 0.23445 0)
(-0.20249 0.232136 0)
(-0.208608 0.224514 0)
(-0.211803 0.212996 0)
(-0.213033 0.199048 0)
(-0.213056 0.183922 0)
(-0.212689 0.16852 0)
(-0.212378 0.153377 0)
(-0.212503 0.138716 0)
(-0.213128 0.124548 0)
(-0.214306 0.110759 0)
(-0.215905 0.0971928 0)
(-0.217848 0.0836886 0)
(-0.219969 0.0701177 0)
(-0.222189 0.0563821 0)
(-0.224374 0.0424252 0)
(-0.226477 0.0282169 0)
(-0.228411 0.0137571 0)
(-0.230155 -0.000937637 0)
(-0.231662 -0.0158337 0)
(-0.232936 -0.0308879 0)
(-0.233959 -0.0460505 0)
(-0.23476 -0.0612682 0)
(-0.235359 -0.0764948 0)
(-0.235824 -0.0916898 0)
(-0.236234 -0.106845 0)
(-0.236736 -0.121979 0)
(-0.237516 -0.13719 0)
(-0.238845 -0.152645 0)
(-0.241049 -0.168644 0)
(-0.244487 -0.185571 0)
(-0.249436 -0.20388 0)
(-0.255898 -0.223874 0)
(-0.263319 -0.245422 0)
(-0.270216 -0.267434 0)
(-0.273975 -0.287356 0)
(-0.270817 -0.300784 0)
(-0.256505 -0.301676 0)
(-0.22764 -0.283683 0)
(-0.184028 -0.242948 0)
(-0.130892 -0.182421 0)
(-0.0792587 -0.114389 0)
(-0.0405739 -0.0559548 0)
(-0.0176032 -0.0157005 0)
(-0.00564324 0.00785148 0)
(-0.000480942 0.0188398 0)
(0.000711565 0.0192777 0)
(0.000298786 0.0099057 0)
(-0.00161249 0.0212195 0)
(-0.00895675 0.0463463 0)
(-0.0198975 0.0641221 0)
(-0.0325144 0.0817133 0)
(-0.047636 0.102041 0)
(-0.0645972 0.125593 0)
(-0.0837413 0.15137 0)
(-0.103895 0.17761 0)
(-0.124431 0.20203 0)
(-0.143746 0.222327 0)
(-0.160943 0.236661 0)
(-0.174845 0.244009 0)
(-0.185224 0.24434 0)
(-0.191961 0.238498 0)
(-0.195765 0.227947 0)
(-0.197314 0.214337 0)
(-0.197636 0.19918 0)
(-0.197411 0.183603 0)
(-0.197325 0.168306 0)
(-0.197644 0.153594 0)
(-0.198591 0.1395 0)
(-0.200093 0.125891 0)
(-0.202118 0.112572 0)
(-0.204477 0.0993457 0)
(-0.207079 0.0860475 0)
(-0.209752 0.0725585 0)
(-0.212428 0.0588019 0)
(-0.21499 0.0447407 0)
(-0.217402 0.030366 0)
(-0.21959 0.0156928 0)
(-0.221544 0.000753135 0)
(-0.223215 -0.0144087 0)
(-0.22461 -0.0297367 0)
(-0.225703 -0.0451719 0)
(-0.226514 -0.0606459 0)
(-0.227039 -0.0760983 0)
(-0.227321 -0.0914634 0)
(-0.227397 -0.106703 0)
(-0.227359 -0.121786 0)
(-0.227329 -0.136749 0)
(-0.227512 -0.151679 0)
(-0.228188 -0.1668 0)
(-0.229736 -0.182449 0)
(-0.232595 -0.19915 0)
(-0.237136 -0.217479 0)
(-0.243466 -0.23792 0)
(-0.251012 -0.260364 0)
(-0.258172 -0.283532 0)
(-0.261904 -0.304222 0)
(-0.257954 -0.3169 0)
(-0.241511 -0.314127 0)
(-0.209224 -0.288416 0)
(-0.161775 -0.236511 0)
(-0.106839 -0.164708 0)
(-0.0580661 -0.0915951 0)
(-0.0262944 -0.0357896 0)
(-0.00943534 -0.00194586 0)
(-0.00170114 0.0152245 0)
(0.000501177 0.0188912 0)
(0.000323273 0.0105244 0)
(-0.00172467 0.0261936 0)
(-0.00951998 0.0559837 0)
(-0.0210477 0.0762827 0)
(-0.0341823 0.0959022 0)
(-0.0497203 0.118317 0)
(-0.0668122 0.143786 0)
(-0.0856904 0.170959 0)
(-0.105001 0.197636 0)
(-0.124078 0.22131 0)
(-0.141321 0.239629 0)
(-0.156011 0.251007 0)
(-0.167201 0.254831 0)
(-0.174985 0.251615 0)
(-0.179523 0.242682 0)
(-0.181744 0.229838 0)
(-0.182393 0.214838 0)
(-0.182463 0.19912 0)
(-0.182496 0.183604 0)
(-0.183014 0.168752 0)
(-0.18411 0.154649 0)
(-0.18588 0.141167 0)
(-0.188157 0.128075 0)
(-0.190864 0.115134 0)
(-0.193791 0.102141 0)
(-0.196856 0.0889456 0)
(-0.199901 0.07545 0)
(-0.202879 0.0616022 0)
(-0.205689 0.0473842 0)
(-0.208313 0.0328043 0)
(-0.210684 0.0178888 0)
(-0.212801 0.00268043 0)
(-0.214616 -0.0127703 0)
(-0.216138 -0.0283987 0)
(-0.217335 -0.0441413 0)
(-0.218223 -0.0599199 0)
(-0.218786 -0.0756679 0)
(-0.219051 -0.0913032 0)
(-0.219025 -0.106771 0)
(-0.218761 -0.122004 0)
(-0.218321 -0.136995 0)
(-0.217834 -0.151752 0)
(-0.217497 -0.166407 0)
(-0.217614 -0.181185 0)
(-0.218614 -0.196545 0)
(-0.221 -0.213099 0)
(-0.225262 -0.231637 0)
(-0.231528 -0.25275 0)
(-0.239214 -0.276343 0)
(-0.246373 -0.30071 0)
(-0.249532 -0.321679 0)
(-0.243688 -0.332179 0)
(-0.223758 -0.323007 0)
(-0.186652 -0.286014 0)
(-0.135153 -0.219786 0)
(-0.0801471 -0.137337 0)
(-0.037947 -0.063789 0)
(-0.0146883 -0.0158704 0)
(-0.00359192 0.00960019 0)
(9.67064e-05 0.0178076 0)
(0.00031905 0.0110666 0)
(-0.00177066 0.0313826 0)
(-0.00981172 0.0660085 0)
(-0.0216787 0.0888295 0)
(-0.0350606 0.110357 0)
(-0.0506891 0.134623 0)
(-0.0675447 0.161631 0)
(-0.0857653 0.189688 0)
(-0.103875 0.216213 0)
(-0.121228 0.238571 0)
(-0.136296 0.254472 0)
(-0.148578 0.262681 0)
(-0.157372 0.263057 0)
(-0.163071 0.256656 0)
(-0.166037 0.24521 0)
(-0.167324 0.230744 0)
(-0.167651 0.214994 0)
(-0.16791 0.199232 0)
(-0.168471 0.184126 0)
(-0.169701 0.169902 0)
(-0.171548 0.156452 0)
(-0.17402 0.143537 0)
(-0.176898 0.130865 0)
(-0.180092 0.118192 0)
(-0.1834 0.105325 0)
(-0.18676 0.0921425 0)
(-0.190035 0.0785703 0)
(-0.193202 0.0645801 0)
(-0.196172 0.0501684 0)
(-0.19894 0.0353572 0)
(-0.201445 0.0201791 0)
(-0.203689 0.00468566 0)
(-0.205625 -0.0110693 0)
(-0.207261 -0.0270135 0)
(-0.208562 -0.0430808 0)
(-0.209543 -0.0591848 0)
(-0.210183 -0.0752568 0)
(-0.210503 -0.0912037 0)
(-0.210495 -0.106965 0)
(-0.210191 -0.122453 0)
(-0.209613 -0.137635 0)
(-0.20883 -0.152459 0)
(-0.207954 -0.166986 0)
(-0.207185 -0.181315 0)
(-0.206858 -0.19578 0)
(-0.207437 -0.210879 0)
(-0.209538 -0.227453 0)
(-0.213684 -0.246431 0)
(-0.220081 -0.268584 0)
(-0.227882 -0.293617 0)
(-0.23481 -0.319119 0)
(-0.236549 -0.339442 0)
(-0.22757 -0.345379 0)
(-0.202446 -0.325968 0)
(-0.159539 -0.273111 0)
(-0.104633 -0.190632 0)
(-0.0533282 -0.101326 0)
(-0.0214181 -0.0352763 0)
(-0.00630706 0.00138233 0)
(-0.000505471 0.0156953 0)
(0.000283153 0.0114617 0)
(-0.00175418 0.0366704 0)
(-0.00983564 0.0762705 0)
(-0.0217909 0.101615 0)
(-0.0351545 0.124926 0)
(-0.0505623 0.150801 0)
(-0.0668542 0.178982 0)
(-0.084096 0.207463 0)
(-0.100754 0.233345 0)
(-0.116248 0.25396 0)
(-0.129177 0.267179 0)
(-0.139272 0.272193 0)
(-0.146068 0.269359 0)
(-0.150195 0.260235 0)
(-0.152143 0.24686 0)
(-0.152998 0.231362 0)
(-0.153388 0.215355 0)
(-0.154068 0.199889 0)
(-0.15524 0.185369 0)
(-0.157135 0.171812 0)
(-0.159601 0.158962 0)
(-0.162596 0.146509 0)
(-0.165881 0.13414 0)
(-0.16938 0.121627 0)
(-0.172909 0.108801 0)
(-0.176434 0.095571 0)
(-0.179838 0.0818846 0)
(-0.183117 0.0677323 0)
(-0.186192 0.0531187 0)
(-0.189067 0.0380751 0)
(-0.19168 0.0226359 0)
(-0.194035 0.00685896 0)
(-0.19608 -0.00920066 0)
(-0.197823 -0.0254633 0)
(-0.199227 -0.0418612 0)
(-0.200306 -0.0582991 0)
(-0.201036 -0.0747082 0)
(-0.201439 -0.0909858 0)
(-0.201503 -0.107074 0)