/*--------------------------------*- C++ -*----------------------------------*\
| =========                 |                                                 |
| \\      /  F ield         | OpenFOAM: The Open Source CFD Toolbox           |
|  \\    /   O peration     | Version:  2406                                  |
|   \\  /    A nd           | Website:  www.openfoam.com                      |
|    \\/     M anipulation  |                                                 |
\*---------------------------------------------------------------------------*/
FoamFile
{
    version     2.0;
    format      ascii;
    arch        "LSB;label=32;scalar=64";
    class       volVectorField;
    location    "28.4";
    object      U;
}
// * * * * * * * * * * * * * * * * * * * * * * * * * * * * * * * * * * * * * //

dimensions      [0 1 -1 0 0 0 0];

internalField   nonuniform List<vector> 
3600
(
(4.08788e-05 -4.25522e-05 0)
(0.000443153 -0.000188753 0)
(0.00112103 -0.000246205 0)
(0.00181689 -0.000246638 0)
(0.0024834 -0.000212526 0)
(0.0030087 -0.000169147 0)
(0.00341814 -0.000126094 0)
(0.00367967 -8.89023e-05 0)
(0.00382716 -5.83738e-05 0)
(0.00384901 -3.26096e-05 0)
(0.00375907 -8.85274e-06 0)
(0.0035369 1.74824e-05 0)
(0.00316606 5.07789e-05 0)
(0.00260407 9.63743e-05 0)
(0.00180373 0.000158443 0)
(0.000701896 0.000240649 0)
(-0.000765612 0.000344736 0)
(-0.0026642 0.000471034 0)
(-0.00504944 0.000616573 0)
(-0.00796297 0.000775174 0)
(-0.0114229 0.000939108 0)
(-0.0154142 0.0011029 0)
(-0.0198768 0.00126266 0)
(-0.0246948 0.00141103 0)
(-0.0296926 0.00153068 0)
(-0.0346372 0.00159348 0)
(-0.0392496 0.00156605 0)
(-0.0432242 0.00141923 0)
(-0.0462533 0.00113591 0)
(-0.048053 0.000715439 0)
(-0.0483887 0.000174016 0)
(-0.0470956 -0.000456854 0)
(-0.0440972 -0.00113338 0)
(-0.0394183 -0.00180262 0)
(-0.0331949 -0.00240653 0)
(-0.0256759 -0.00288656 0)
(-0.0172209 -0.00318971 0)
(-0.00828082 -0.00327528 0)
(0.000625921 -0.00312247 0)
(0.00896082 -0.00273686 0)
(0.016211 -0.00215411 0)
(0.0219571 -0.00143915 0)
(0.0259157 -0.000677854 0)
(0.0279926 3.63959e-05 0)
(0.028277 0.000622943 0)
(0.0270412 0.00102961 0)
(0.0246633 0.00124521 0)
(0.0215847 0.00129348 0)
(0.0182025 0.00122244 0)
(0.0148581 0.00108153 0)
(0.0117609 0.000913783 0)
(0.00905332 0.00074487 0)
(0.00675474 0.000593252 0)
(0.00487981 0.000463487 0)
(0.00334877 0.000362782 0)
(0.00214314 0.000281011 0)
(0.00117085 0.00021614 0)
(0.000467049 0.000131687 0)
(2.53744e-05 3.33137e-05 0)
(-7.70359e-05 -8.09108e-05 0)
(0.000184943 -0.000441051 0)
(0.00105656 -0.00105988 0)
(0.00234397 -0.00128756 0)
(0.00361755 -0.00125864 0)
(0.00479315 -0.00107541 0)
(0.00567465 -0.000822287 0)
(0.00626694 -0.000548833 0)
(0.00649423 -0.000273352 0)
(0.00637059 -3.29652e-06 0)
(0.00584452 0.000274522 0)
(0.00489055 0.000574135 0)
(0.00342893 0.00092136 0)
(0.00137486 0.0013389 0)
(-0.00139743 0.00185306 0)
(-0.00502256 0.00248102 0)
(-0.00964819 0.00323261 0)
(-0.0154039 0.00410123 0)
(-0.0223853 0.00506653 0)
(-0.0306224 0.00609198 0)
(-0.040053 0.00712797 0)
(-0.0504951 0.00810663 0)
(-0.0616384 0.00894001 0)
(-0.07306 0.00952298 0)
(-0.0842611 0.00974954 0)
(-0.0947169 0.00953065 0)
(-0.103923 0.00880951 0)
(-0.111435 0.00756737 0)
(-0.116886 0.00582445 0)
(-0.12 0.00363539 0)
(-0.120589 0.00108451 0)
(-0.11855 -0.00172011 0)
(-0.113865 -0.00465033 0)
(-0.106601 -0.00756214 0)
(-0.0969078 -0.0102986 0)
(-0.0850311 -0.0126957 0)
(-0.0713103 -0.0145895 0)
(-0.0561847 -0.0158288 0)
(-0.0401849 -0.0162903 0)
(-0.0239238 -0.0158986 0)
(-0.00806267 -0.0146436 0)
(0.00671869 -0.0125968 0)
(0.0197848 -0.00991474 0)
(0.030584 -0.00683062 0)
(0.0387236 -0.00362915 0)
(0.0439878 -0.000605358 0)
(0.046397 0.00197817 0)
(0.0461708 0.00393954 0)
(0.0437494 0.00519811 0)
(0.0396797 0.00578617 0)
(0.0346019 0.00581602 0)
(0.0290791 0.00545152 0)
(0.0236222 0.00485176 0)
(0.0185314 0.00416016 0)
(0.0140395 0.00346794 0)
(0.0101611 0.00284574 0)
(0.00694973 0.00229349 0)
(0.00429081 0.00180926 0)
(0.0022578 0.00128064 0)
(0.000790046 0.000707704 0)
(7.00709e-05 4.54111e-05 0)
(0.000251717 -0.00112042 0)
(0.00131394 -0.00235265 0)
(0.00280948 -0.00277017 0)
(0.00419963 -0.0026342 0)
(0.00538264 -0.00217843 0)
(0.00612043 -0.00154327 0)
(0.00638927 -0.000834045 0)
(0.0060713 -7.49097e-05 0)
(0.00513102 0.000721484 0)
(0.00345746 0.00159223 0)
(0.00095246 0.00257312 0)
(-0.0025437 0.00372503 0)
(-0.00720276 0.00509788 0)
(-0.0132296 0.00674194 0)
(-0.0208181 0.00867706 0)
(-0.0301308 0.0108924 0)
(-0.0412447 0.013326 0)
(-0.0541049 0.0158675 0)
(-0.0684797 0.0183495 0)
(-0.0839512 0.0205584 0)
(-0.0999522 0.0222561 0)
(-0.115838 0.0232258 0)
(-0.130973 0.0233077 0)
(-0.144788 0.0224193 0)
(-0.156825 0.0205506 0)
(-0.166735 0.0177513 0)
(-0.174272 0.0141121 0)
(-0.179272 0.00975276 0)
(-0.181632 0.0048118 0)
(-0.181294 -0.000555787 0)
(-0.178238 -0.00618027 0)
(-0.172478 -0.0118742 0)
(-0.164066 -0.0174315 0)
(-0.153104 -0.0226251 0)
(-0.139754 -0.0272109 0)
(-0.124254 -0.030935 0)
(-0.106937 -0.0335503 0)
(-0.088235 -0.0348388 0)
(-0.0686838 -0.0346434 0)
(-0.0489047 -0.0328985 0)
(-0.0295845 -0.0296603 0)
(-0.0114207 -0.0251201 0)
(0.00491721 -0.0196021 0)
(0.0188636 -0.0135331 0)
(0.0299786 -0.00739423 0)
(0.0380173 -0.00166179 0)
(0.042908 0.00325785 0)
(0.0448128 0.00707249 0)
(0.0440558 0.00964665 0)
(0.041171 0.011 0)
(0.0367474 0.0113005 0)
(0.0314589 0.0108012 0)
(0.0258366 0.00979764 0)
(0.0203774 0.00854551 0)
(0.0153068 0.00725516 0)
(0.0108631 0.00601307 0)
(0.0070124 0.00484592 0)
(0.00393308 0.00360344 0)
(0.00154813 0.00222942 0)
(0.000229824 0.000609456 0)
(0.000274584 -0.00185115 0)
(0.00134524 -0.00365974 0)
(0.00274852 -0.00416888 0)
(0.00390301 -0.00379563 0)
(0.00469379 -0.00292816 0)
(0.00486413 -0.00174624 0)
(0.00435085 -0.00040096 0)
(0.00298767 0.00109539 0)
(0.000665504 0.00273699 0)
(-0.00280494 0.00459737 0)
(-0.00761684 0.00674142 0)
(-0.0140176 0.00926548 0)
(-0.0222553 0.0122331 0)
(-0.0325637 0.0156847 0)
(-0.0450923 0.0195831 0)
(-0.0598438 0.0238096 0)
(-0.0766071 0.0281329 0)
(-0.0949335 0.03223 0)
(-0.11418 0.0357222 0)
(-0.13361 0.0382572 0)
(-0.15251 0.0395711 0)
(-0.170275 0.0395235 0)
(-0.186444 0.0380848 0)
(-0.200693 0.0353112 0)
(-0.212808 0.0313103 0)
(-0.222649 0.0262191 0)
(-0.230126 0.020186 0)
(-0.235177 0.0133657 0)
(-0.237751 0.00591665 0)
(-0.237801 -0.0019941 0)
(-0.235286 -0.010186 0)
(-0.230167 -0.0184554 0)
(-0.222418 -0.0265699 0)
(-0.212037 -0.0342604 0)
(-0.199064 -0.0412227 0)
(-0.183601 -0.047122 0)
(-0.16584 -0.0516123 0)
(-0.146082 -0.0543632 0)
(-0.124758 -0.0551039 0)
(-0.10243 -0.0536683 0)
(-0.079781 -0.0500451 0)
(-0.0575676 -0.0444065 0)
(-0.0365703 -0.0371181 0)
(-0.0175019 -0.0287046 0)
(-0.000960171 -0.0197911 0)
(0.0126478 -0.0110223 0)
(0.023081 -0.00298493 0)
(0.0303078 0.00384598 0)
(0.0344293 0.0091539 0)
(0.0357528 0.0127937 0)
(0.0346809 0.0148115 0)
(0.0318007 0.0154125 0)
(0.027667 0.0149286 0)
(0.0229151 0.0137251 0)
(0.0179502 0.0121501 0)
(0.0132238 0.0104245 0)
(0.00884797 0.00864788 0)
(0.00516345 0.00669243 0)
(0.0021406 0.00440876 0)
(0.000359423 0.00155846 0)
(0.000265732 -0.0025993 0)
(0.00120065 -0.00488167 0)
(0.00227781 -0.00533463 0)
(0.00292316 -0.00455168 0)
(0.00299825 -0.00308384 0)
(0.00223818 -0.00113043 0)
(0.000520974 0.00112545 0)
(-0.00237406 0.00370372 0)
(-0.00664849 0.0066184 0)
(-0.0125742 0.00998954 0)
(-0.0204365 0.0139087 0)
(-0.0305344 0.0184875 0)
(-0.0431155 0.0237531 0)
(-0.058301 0.0296483 0)
(-0.075998 0.0359535 0)
(-0.0958325 0.0423004 0)
(-0.11717 0.0481917 0)
(-0.13921 0.0531147 0)
(-0.16115 0.0566392 0)
(-0.182293 0.0584945 0)
(-0.202116 0.0585676 0)
(-0.220256 0.0568767 0)
(-0.236484 0.0535222 0)
(-0.250655 0.0486539 0)
(-0.26269 0.0424403 0)
(-0.27254 0.0350555 0)
(-0.280179 0.0266679 0)
(-0.285585 0.0174418 0)
(-0.288736 0.0075372 0)
(-0.289601 -0.00288052 0)
(-0.288133 -0.013634 0)
(-0.284265 -0.0245196 0)
(-0.277919 -0.0352979 0)
(-0.269002 -0.04568 0)
(-0.257431 -0.0553228 0)
(-0.243145 -0.0638269 0)
(-0.22615 -0.0707519 0)
(-0.206544 -0.0756425 0)
(-0.184575 -0.0780787 0)
(-0.160662 -0.0777362 0)
(-0.135428 -0.0744625 0)
(-0.109673 -0.0683371 0)
(-0.0843315 -0.0597118 0)
(-0.0603527 -0.0491911 0)
(-0.0386014 -0.0375645 0)
(-0.0197198 -0.0256862 0)
(-0.00410549 -0.0143554 0)
(0.0081193 -0.00422849 0)
(0.0169881 0.00422409 0)
(0.0227119 0.0107191 0)
(0.0255579 0.0151705 0)
(0.0259715 0.0176788 0)
(0.0244052 0.0185185 0)
(0.0214774 0.0180772 0)
(0.0176527 0.0167755 0)
(0.0135175 0.0149564 0)
(0.00932263 0.0127982 0)
(0.00557614 0.0102351 0)
(0.00235273 0.00701256 0)
(0.000402707 0.00275414 0)
(0.000235468 -0.00322712 0)
(0.000900668 -0.0057427 0)
(0.00141822 -0.00591192 0)
(0.00128193 -0.0045004 0)
(0.000318208 -0.0022056 0)
(-0.00173659 0.00078292 0)
(-0.00508827 0.00427414 0)
(-0.0100166 0.0083396 0)
(-0.0168273 0.0130214 0)
(-0.0258571 0.0184778 0)
(-0.0374407 0.0247928 0)
(-0.0518275 0.032021 0)
(-0.0691058 0.0400377 0)
(-0.0890789 0.0485421 0)
(-0.11124 0.057007 0)
(-0.134803 0.0647924 0)
(-0.158878 0.0712633 0)
(-0.182626 0.0759417 0)
(-0.205378 0.0785479 0)
(-0.226653 0.0789974 0)
(-0.246137 0.0773416 0)
(-0.263638 0.0737236 0)
(-0.279057 0.0683309 0)
(-0.292357 0.0613723 0)
(-0.303551 0.0530542 0)
(-0.312681 0.0435741 0)
(-0.319808 0.0331103 0)
(-0.324992 0.021826 0)
(-0.328289 0.00986845 0)
(-0.329721 -0.00261942 0)
(-0.329284 -0.015491 0)
(-0.326921 -0.028578 0)
(-0.322529 -0.0416766 0)
(-0.315949 -0.0545261 0)
(-0.30698 -0.0667957 0)
(-0.295386 -0.0780704 0)
(-0.280939 -0.0878541 0)
(-0.263456 -0.0955838 0)
(-0.242871 -0.100675 0)
(-0.219301 -0.102586 0)
(-0.193129 -0.100919 0)
(-0.165034 -0.0955179 0)
(-0.136004 -0.0865679 0)
(-0.107242 -0.0746349 0)
(-0.0800247 -0.0606303 0)
(-0.0554708 -0.04567 0)
(-0.034378 -0.0308804 0)
(-0.0170982 -0.0172092 0)
(-0.0036439 -0.00532862 0)
(0.00623743 0.00436018 0)
(0.012846 0.0116843 0)
(0.016597 0.0166609 0)
(0.0178728 0.0194801 0)
(0.0172244 0.020486 0)
(0.0150967 0.0200945 0)
(0.0121191 0.0187124 0)
(0.00863769 0.0165649 0)
(0.00528169 0.0136479 0)
(0.00225053 0.0096104 0)
(0.000382883 0.00396117 0)
(0.00017646 -0.00370128 0)
(0.000425418 -0.0061256 0)
(0.00015204 -0.0057322 0)
(-0.00102424 -0.00343608 0)
(-0.00332999 -4.09963e-05 0)
(-0.00702296 0.00430949 0)
(-0.0124163 0.00943998 0)
(-0.0198404 0.0154819 0)
(-0.02969 0.0224944 0)
(-0.0423044 0.0306315 0)
(-0.0579636 0.0398853 0)
(-0.0767047 0.0501225 0)
(-0.0982817 0.0609188 0)
(-0.122068 0.0716334 0)
(-0.147192 0.0814685 0)
(-0.172676 0.08969 0)
(-0.197657 0.0957461 0)
(-0.221443 0.0993423 0)
(-0.243558 0.100393 0)
(-0.263679 0.0989764 0)
(-0.281629 0.0952672 0)
(-0.297331 0.0895033 0)
(-0.310804 0.0819453 0)
(-0.322129 0.0728597 0)
(-0.331444 0.0624938 0)
(-0.338909 0.0510698 0)
(-0.344698 0.0387738 0)
(-0.348968 0.0257601 0)
(-0.351858 0.012152 0)
(-0.353463 -0.00194467 0)
(-0.353831 -0.0164327 0)
(-0.352943 -0.0312029 0)
(-0.350713 -0.0461187 0)
(-0.346966 -0.0609894 0)
(-0.34144 -0.0755499 0)
(-0.333782 -0.0894334 0)
(-0.32357 -0.102158 0)
(-0.310338 -0.11312 0)
(-0.29365 -0.121616 0)
(-0.273185 -0.126891 0)
(-0.248863 -0.128241 0)
(-0.220955 -0.125134 0)
(-0.190196 -0.117378 0)
(-0.157794 -0.105248 0)
(-0.125351 -0.0895678 0)
(-0.0946065 -0.0716313 0)
(-0.0671171 -0.0529909 0)
(-0.0438997 -0.0351236 0)
(-0.0253223 -0.0191463 0)
(-0.0111608 -0.00570781 0)
(-0.000950571 0.00493604 0)
(0.00588773 0.0127901 0)
(0.00982777 0.0180225 0)
(0.0114263 0.0209488 0)
(0.0111201 0.0219505 0)
(0.0095332 0.0214472 0)
(0.00706811 0.0196691 0)
(0.00441314 0.0166489 0)
(0.00187951 0.0119634 0)
(0.000306695 0.00505156 0)
(7.97389e-05 -0.00388099 0)
(-0.000257305 -0.0057663 0)
(-0.0015694 -0.00447714 0)
(-0.00404745 -0.00100873 0)
(-0.00799523 0.0037962 0)
(-0.0136573 0.00987845 0)
(-0.0214684 0.0170938 0)
(-0.0317775 0.0256173 0)
(-0.0450185 0.0354784 0)
(-0.0614215 0.0467329 0)
(-0.0810674 0.0591478 0)
(-0.103626 0.0722617 0)
(-0.128448 0.0852814 0)
(-0.154553 0.0972954 0)
(-0.18092 0.107426 0)
(-0.206599 0.115045 0)
(-0.230866 0.119797 0)
(-0.25318 0.121589 0)
(-0.273206 0.120508 0)
(-0.29075 0.116777 0)
(-0.305779 0.110694 0)
(-0.318365 0.102605 0)
(-0.32869 0.0928519 0)
(-0.336983 0.0817609 0)
(-0.343519 0.0696108 0)
(-0.348564 0.0566319 0)
(-0.352382 0.0429976 0)
(-0.355195 0.0288354 0)
(-0.357197 0.0142286 0)
(-0.358528 -0.000766121 0)
(-0.359284 -0.0161116 0)
(-0.359495 -0.0317693 0)
(-0.359127 -0.0476869 0)
(-0.358052 -0.0637711 0)
(-0.356045 -0.0798665 0)
(-0.352749 -0.0957192 0)
(-0.347677 -0.11095 0)
(-0.340203 -0.125019 0)
(-0.329605 -0.137218 0)
(-0.315129 -0.146678 0)
(-0.296123 -0.152433 0)
(-0.272198 -0.153537 0)
(-0.243434 -0.149246 0)
(-0.210548 -0.139241 0)
(-0.174988 -0.123849 0)
(-0.138827 -0.10416 0)
(-0.104445 -0.0819525 0)
(-0.0739785 -0.0593471 0)
(-0.0488108 -0.0382858 0)
(-0.0292725 -0.0200815 0)
(-0.0149111 -0.00530594 0)
(-0.00487447 0.00601283 0)
(0.00161606 0.0141096 0)
(0.00530069 0.0193561 0)
(0.00671731 0.0221408 0)
(0.00651304 0.0228846 0)
(0.00514337 0.0218017 0)
(0.00331028 0.0189329 0)
(0.00141067 0.0138183 0)
(0.000216319 0.00588716 0)
(-6.48072e-05 -0.00367933 0)
(-0.00116917 -0.00449684 0)
(-0.0037572 -0.00195295 0)
(-0.00776965 0.00298996 0)
(-0.0136162 0.00954205 0)
(-0.0215147 0.0177574 0)
(-0.0320158 0.0275174 0)
(-0.0454231 0.0389877 0)
(-0.0621212 0.0520774 0)
(-0.0820944 0.0666102 0)
(-0.105104 0.081998 0)
(-0.130401 0.0973915 0)
(-0.157018 0.111705 0)
(-0.183807 0.123938 0)
(-0.209776 0.133313 0)
(-0.234081 0.139404 0)
(-0.256144 0.142065 0)
(-0.275562 0.141399 0)
(-0.292166 0.137672 0)
(-0.305944 0.13127 0)
(-0.317066 0.122631 0)
(-0.325793 0.112204 0)
(-0.332473 0.100398 0)
(-0.337459 0.0875678 0)
(-0.341109 0.0739912 0)
(-0.343736 0.0598764 0)
(-0.345622 0.0453617 0)
(-0.346988 0.0305339 0)
(-0.348023 0.0154334 0)
(-0.348866 7.31708e-05 0)
(-0.349628 -0.0155565 0)
(-0.35037 -0.0314704 0)
(-0.35112 -0.0476829 0)
(-0.351837 -0.0641862 0)
(-0.352405 -0.0809363 0)
(-0.352589 -0.0978186 0)
(-0.352009 -0.114616 0)
(-0.350092 -0.130959 0)
(-0.346065 -0.146281 0)
(-0.338962 -0.159781 0)
(-0.3277 -0.170423 0)
(-0.311223 -0.176986 0)
(-0.288744 -0.17821 0)
(-0.260021 -0.17303 0)
(-0.22567 -0.160898 0)
(-0.187331 -0.142121 0)
(-0.147623 -0.118082 0)
(-0.109693 -0.0911631 0)
(-0.0764503 -0.0642435 0)
(-0.0496803 -0.0398671 0)
(-0.0296929 -0.0195533 0)
(-0.0156259 -0.00370376 0)
(-0.00628133 0.00796334 0)
(-0.000509796 0.0159933 0)
(0.00252062 0.0209009 0)
(0.00359115 0.0231692 0)
(0.00325564 0.0230236 0)
(0.00222451 0.0205094 0)
(0.000956871 0.0151751 0)
(0.000133044 0.00648591 0)
(-0.000266132 -0.00292961 0)
(-0.00232542 -0.00205859 0)
(-0.00640998 0.00211342 0)
(-0.0121554 0.0088363 0)
(-0.020105 0.0174815 0)
(-0.0304217 0.0282215 0)
(-0.0437398 0.040925 0)
(-0.0602258 0.0556522 0)
(-0.080111 0.0720707 0)
(-0.103023 0.0896441 0)
(-0.128369 0.107375 0)
(-0.155046 0.124089 0)
(-0.181932 0.138575 0)
(-0.207858 0.149913 0)
(-0.231945 0.157525 0)
(-0.253476 0.161213 0)
(-0.27205 0.161063 0)
(-0.287462 0.157404 0)
(-0.299788 0.150709 0)
(-0.309255 0.141541 0)
(-0.316254 0.130461 0)
(-0.32121 0.117984 0)
(-0.324581 0.104537 0)
(-0.326769 0.0904523 0)
(-0.328136 0.075963 0)
(-0.328959 0.0612226 0)
(-0.32947 0.0463143 0)
(-0.329829 0.0312765 0)
(-0.330174 0.0161092 0)
(-0.330598 0.000794006 0)
(-0.331192 -0.0147057 0)
(-0.332019 -0.030431 0)
(-0.333143 -0.0464296 0)
(-0.334599 -0.062743 0)
(-0.336391 -0.0794037 0)
(-0.338451 -0.0964113 0)
(-0.340607 -0.113711 0)
(-0.342516 -0.131142 0)
(-0.343614 -0.148385 0)
(-0.343049 -0.164883 0)
(-0.339675 -0.179778 0)
(-0.332093 -0.191869 0)
(-0.318822 -0.199649 0)
(-0.298574 -0.20146 0)
(-0.270674 -0.195791 0)
(-0.235499 -0.181733 0)
(-0.194833 -0.159487 0)
(-0.151869 -0.130761 0)
(-0.110681 -0.0987149 0)
(-0.0750682 -0.0672267 0)
(-0.0472851 -0.0395814 0)
(-0.0274353 -0.0174506 0)
(-0.0142032 -0.000933024 0)
(-0.00589482 0.010688 0)
(-0.0011487 0.0182119 0)
(0.00114059 0.0223235 0)
(0.00173079 0.0233536 0)
(0.00138862 0.0213925 0)
(0.000635167 0.0160514 0)
(8.33047e-05 0.00686644 0)
(-0.000524628 -0.00151573 0)
(-0.00370152 0.00170533 0)
(-0.00944791 0.00786142 0)
(-0.0170519 0.016648 0)
(-0.0272098 0.0277082 0)
(-0.0399855 0.0413024 0)
(-0.0560427 0.0572142 0)
(-0.0753094 0.0752745 0)
(-0.0977813 0.0947957 0)
(-0.122686 0.114812 0)
(-0.149132 0.133963 0)
(-0.175793 0.150889 0)
(-0.201535 0.164423 0)
(-0.225258 0.17383 0)
(-0.246245 0.178785 0)
(-0.263967 0.179358 0)
(-0.278285 0.175913 0)
(-0.28927 0.169038 0)
(-0.297286 0.159418 0)
(-0.302785 0.14775 0)
(-0.306325 0.134658 0)
(-0.308408 0.120654 0)
(-0.30951 0.106114 0)
(-0.309983 0.0912985 0)
(-0.310118 0.0763595 0)
(-0.310094 0.0613775 0)
(-0.310051 0.0463765 0)
(-0.310061 0.0313522 0)
(-0.310186 0.0162778 0)
(-0.310462 0.00112183 0)
(-0.310939 -0.0141556 0)
(-0.311662 -0.0295935 0)
(-0.312699 -0.0452386 0)
(-0.314119 -0.0611389 0)
(-0.316004 -0.0773511 0)
(-0.31841 -0.0939298 0)
(-0.321357 -0.110922 0)
(-0.324766 -0.128335 0)
(-0.328401 -0.146094 0)
(-0.331767 -0.163961 0)
(-0.334035 -0.181438 0)
(-0.333955 -0.197654 0)
(-0.329884 -0.211269 0)
(-0.319914 -0.220478 0)
(-0.30222 -0.223148 0)
(-0.275575 -0.2172 0)
(-0.240009 -0.201218 0)
(-0.197374 -0.175225 0)
(-0.151498 -0.141319 0)
(-0.107509 -0.1037 0)
(-0.0702359 -0.0675361 0)
(-0.0422656 -0.0369402 0)
(-0.0233108 -0.0135591 0)
(-0.0113891 0.00304608 0)
(-0.00444015 0.0140246 0)
(-0.000798965 0.0204612 0)
(0.000665209 0.022963 0)
(0.000886415 0.0217705 0)
(0.000482837 0.0166248 0)
(7.19053e-05 0.00714774 0)
(-0.000837715 0.000714207 0)
(-0.00526132 0.00697693 0)
(-0.0127727 0.0154434 0)
(-0.0222837 0.0265428 0)
(-0.0346465 0.0402874 0)
(-0.0497674 0.0569546 0)
(-0.0682732 0.0761441 0)
(-0.0897719 0.0973328 0)
(-0.113991 0.119409 0)
(-0.139788 0.14099 0)
(-0.166088 0.160473 0)
(-0.191467 0.176474 0)
(-0.214886 0.187994 0)
(-0.235382 0.19456 0)
(-0.252479 0.196162 0)
(-0.265919 0.193197 0)
(-0.275898 0.186342 0)
(-0.28278 0.17643 0)
(-0.287175 0.164301 0)
(-0.289676 0.150708 0)
(-0.290902 0.13625 0)
(-0.291322 0.121358 0)
(-0.291336 0.106307 0)
(-0.291184 0.0912488 0)
(-0.29104 0.076244 0)
(-0.29097 0.0613014 0)
(-0.291019 0.0463959 0)
(-0.291176 0.0314951 0)
(-0.291446 0.0165615 0)
(-0.291815 0.00156548 0)
(-0.2923 -0.0135218 0)
(-0.292921 -0.0287225 0)
(-0.293739 -0.0440644 0)
(-0.29482 -0.0595777 0)
(-0.296271 -0.0753086 0)
(-0.298202 -0.0913161 0)
(-0.300737 -0.10768 0)
(-0.303969 -0.12449 0)
(-0.30793 -0.141823 0)
(-0.312494 -0.159696 0)
(-0.317294 -0.177981 0)
(-0.321569 -0.19627 0)
(-0.324061 -0.213712 0)
(-0.322944 -0.228859 0)
(-0.315943 -0.239586 0)
(-0.300677 -0.243225 0)
(-0.275317 -0.236994 0)
(-0.239465 -0.218846 0)
(-0.195021 -0.188571 0)
(-0.146538 -0.148838 0)
(-0.100384 -0.105254 0)
(-0.0624364 -0.0646274 0)
(-0.035361 -0.0318223 0)
(-0.0180623 -0.00806136 0)
(-0.00790356 0.00780082 0)
(-0.00245919 0.0174071 0)
(-1.39608e-05 0.0218669 0)
(0.000706737 0.0217514 0)
(0.000502179 0.0170234 0)
(0.000100187 0.00741077 0)
(-0.00118746 0.00383725 0)
(-0.00691669 0.0138065 0)
(-0.0162002 0.0248503 0)
(-0.0275595 0.0384446 0)
(-0.0419876 0.0550402 0)
(-0.0591722 0.0748303 0)
(-0.0796454 0.0971315 0)
(-0.102651 0.120975 0)
(-0.127673 0.144821 0)
(-0.153277 0.166953 0)
(-0.178328 0.185674 0)
(-0.201416 0.19971 0)
(-0.221684 0.208335 0)
(-0.238381 0.211413 0)
(-0.25136 0.209313 0)
(-0.260688 0.202794 0)
(-0.266894 0.192825 0)
(-0.270569 0.18041 0)
(-0.272468 0.166447 0)
(-0.273202 0.15164 0)
(-0.273338 0.136482 0)
(-0.27323 0.12127 0)
(-0.273148 0.106147 0)
(-0.273193 0.0911564 0)
(-0.273425 0.0762774 0)
(-0.273811 0.061466 0)
(-0.274326 0.0466695 0)
(-0.274904 0.0318469 0)
(-0.275516 0.0169653 0)
(-0.276118 0.00200942 0)
(-0.276709 -0.0130298 0)
(-0.277291 -0.0281508 0)
(-0.277909 -0.0433548 0)
(-0.278616 -0.0586446 0)
(-0.27951 -0.0740392 0)
(-0.280706 -0.0895749 0)
(-0.282357 -0.10532 0)
(-0.284624 -0.121374 0)
(-0.287677 -0.137874 0)
(-0.291632 -0.15497 0)
(-0.296492 -0.17278 0)
(-0.302007 -0.191294 0)
(-0.307529 -0.210213 0)
(-0.311821 -0.22873 0)
(-0.312944 -0.245284 0)
(-0.308294 -0.257418 0)
(-0.294968 -0.261838 0)
(-0.270524 -0.254958 0)
(-0.234131 -0.233975 0)
(-0.187809 -0.198508 0)
(-0.13702 -0.152104 0)
(-0.0895816 -0.102365 0)
(-0.0523168 -0.0580242 0)
(-0.0273663 -0.0242655 0)
(-0.0124632 -0.00135272 0)
(-0.00436903 0.0127943 0)
(-0.00058753 0.0200096 0)
(0.00070897 0.0214387 0)
(0.000633693 0.0173992 0)
(0.000155288 0.00776128 0)
(-0.00155546 0.00791962 0)
(-0.00858356 0.0222216 0)
(-0.0195613 0.0360501 0)
(-0.0326171 0.0522504 0)
(-0.0488515 0.0717525 0)
(-0.0676816 0.0945477 0)
(-0.089509 0.119587 0)
(-0.113218 0.145409 0)
(-0.138111 0.170108 0)
(-0.162568 0.191749 0)
(-0.185509 0.208696 0)
(-0.205625 0.219901 0)
(-0.222324 0.225004 0)
(-0.235141 0.224277 0)
(-0.244298 0.218509 0)
(-0.250173 0.208792 0)
(-0.253549 0.196307 0)
(-0.255131 0.182117 0)
(-0.255691 0.167063 0)
(-0.25575 0.151718 0)
(-0.255751 0.136413 0)
(-0.255888 0.121292 0)
(-0.256296 0.106372 0)
(-0.256952 0.091607 0)
(-0.257834 0.0769213 0)
(-0.258843 0.0622436 0)
(-0.259919 0.0475149 0)
(-0.260972 0.0327001 0)
(-0.26196 0.0177808 0)
(-0.26283 0.00275987 0)
(-0.263576 -0.0123507 0)
(-0.264188 -0.0275275 0)
(-0.2647 -0.0427477 0)
(-0.265146 -0.0579886 0)
(-0.265606 -0.0732405 0)
(-0.266168 -0.0885088 0)
(-0.26697 -0.10383 0)
(-0.268171 -0.119277 0)
(-0.269976 -0.134977 0)
(-0.2726 -0.151111 0)
(-0.276248 -0.167905 0)
(-0.281023 -0.185585 0)
(-0.286806 -0.204264 0)
(-0.293042 -0.223755 0)
(-0.298532 -0.243275 0)
(-0.30122 -0.261134 0)
(-0.298205 -0.274448 0)
(-0.286083 -0.279218 0)
(-0.261841 -0.270901 0)
(-0.224317 -0.245923 0)
(-0.175843 -0.203904 0)
(-0.12314 -0.149917 0)
(-0.0756781 -0.0943191 0)
(-0.0408091 -0.0477768 0)
(-0.0192007 -0.0148769 0)
(-0.00722568 0.00584113 0)
(-0.00145642 0.0170531 0)
(0.000682919 0.0207492 0)
(0.000793459 0.0177758 0)
(0.000222229 0.00823262 0)
(-0.00190762 0.0129284 0)
(-0.0101343 0.032103 0)
(-0.0226253 0.0488412 0)
(-0.0371239 0.0676553 0)
(-0.0547954 0.0899689 0)
(-0.0747558 0.115464 0)
(-0.0972674 0.142683 0)
(-0.120898 0.169684 0)
(-0.144854 0.194295 0)
(-0.167435 0.214495 0)
(-0.187707 0.228845 0)
(-0.204544 0.236621 0)
(-0.217679 0.237914 0)
(-0.226968 0.233439 0)
(-0.232982 0.224391 0)
(-0.236327 0.212105 0)
(-0.237926 0.197855 0)
(-0.238468 0.182641 0)
(-0.238644 0.167159 0)
(-0.238816 0.151794 0)
(-0.239276 0.136703 0)
(-0.240064 0.121885 0)
(-0.241205 0.107264 0)
(-0.242591 0.0927335 0)
(-0.244152 0.0781932 0)
(-0.24576 0.0635677 0)
(-0.247347 0.0488081 0)
(-0.248818 0.0338949 0)
(-0.250136 0.0188295 0)
(-0.251249 0.0036336 0)
(-0.252154 -0.0116612 0)
(-0.252835 -0.0270125 0)
(-0.253319 -0.0423787 0)
(-0.253627 -0.0577166 0)
(-0.253819 -0.0729936 0)
(-0.253955 -0.0881883 0)
(-0.254139 -0.103303 0)
(-0.254493 -0.118374 0)
(-0.255196 -0.133484 0)
(-0.256459 -0.148785 0)
(-0.25855 -0.164504 0)
(-0.261738 -0.180951 0)
(-0.266236 -0.198461 0)
(-0.27203 -0.217289 0)
(-0.27866 -0.237343 0)
(-0.284922 -0.257855 0)
(-0.288618 -0.27689 0)
(-0.286509 -0.291045 0)
(-0.274692 -0.295394 0)
(-0.249679 -0.284357 0)
(-0.210165 -0.253596 0)
(-0.159227 -0.203274 0)
(-0.105302 -0.140999 0)
(-0.0596759 -0.0807923 0)
(-0.0291205 -0.0345439 0)
(-0.011756 -0.00450473 0)
(-0.00306933 0.0124569 0)
(0.000384181 0.0194721 0)
(0.000879672 0.0181064 0)
(0.00028193 0.00883491 0)
(-0.00221823 0.0187936 0)
(-0.0114763 0.0433005 0)
(-0.0252283 0.0630109 0)
(-0.0408501 0.0843677 0)
(-0.0595232 0.109289 0)
(-0.0800603 0.13706 0)
(-0.102601 0.165811 0)
(-0.125467 0.193169 0)
(-0.147857 0.216818 0)
(-0.168081 0.234783 0)
(-0.185433 0.24594 0)
(-0.199018 0.249979 0)
(-0.208928 0.247489 0)
(-0.215315 0.239622 0)
(-0.219026 0.227896 0)
(-0.22078 0.213771 0)
(-0.221517 0.198488 0)
(-0.221818 0.182885 0)
(-0.222232 0.16746 0)
(-0.222945 0.152396 0)
(-0.224107 0.137694 0)
(-0.22564 0.123244 0)
(-0.227501 0.108908 0)
(-0.229532 0.0945538 0)
(-0.231652 0.0800812 0)
(-0.233728 0.0654255 0)
(-0.235702 0.0505567 0)
(-0.237486 0.0354738 0)
(-0.239054 0.0201972 0)
(-0.240359 0.00476518 0)
(-0.241402 -0.0107748 0)
(-0.242168 -0.0263665 0)
(-0.242681 -0.041954 0)
(-0.242952 -0.0574807 0)
(-0.243027 -0.0728982 0)
(-0.242945 -0.0881666 0)
(-0.242782 -0.103264 0)
(-0.242618 -0.118194 0)
(-0.242583 -0.132994 0)
(-0.242835 -0.147762 0)
(-0.24361 -0.162668 0)
(-0.245192 -0.177995 0)
(-0.247925 -0.194125 0)
(-0.252102 -0.211528 0)
(-0.257823 -0.230582 0)
(-0.264687 -0.251315 0)
(-0.271447 -0.27287 0)
(-0.27568 -0.292984 0)
(-0.273724 -0.307446 0)
(-0.261181 -0.310231 0)
(-0.234184 -0.294516 0)
(-0.191706 -0.255536 0)
(-0.138146 -0.194926 0)
(-0.0843809 -0.124482 0)
(-0.0430942 -0.0624899 0)
(-0.0185218 -0.0195924 0)
(-0.00580766 0.00541723 0)
(-0.000387869 0.0171973 0)
(0.00081251 0.0182069 0)
(0.00032137 0.0095073 0)
(-0.00245163 0.0253476 0)
(-0.0124937 0.0555323 0)
(-0.027182 0.0781991 0)
(-0.0435511 0.101924 0)
(-0.0627534 0.129121 0)
(-0.0833227 0.158635 0)
(-0.105309 0.188219 0)
(-0.12687 0.215152 0)
(-0.147277 0.237103 0)
(-0.164926 0.252257 0)
(-0.179383 0.259904 0)
(-0.190017 0.260197 0)
(-0.197256 0.254237 0)
(-0.201486 0.243542 0)
(-0.203724 0.229845 0)
(-0.204688 0.214595 0)
(-0.205247 0.198897 0)
(-0.205818 0.183371 0)
(-0.206791 0.168301 0)
(-0.208196 0.153685 0)
(-0.210079 0.139406 0)
(-0.212283 0.125283 0)
(-0.214734 0.111152 0)
(-0.217261 0.0968792 0)
(-0.219791 0.0823805 0)
(-0.222199 0.0676096 0)
(-0.224444 0.0525578 0)
(-0.226449 0.0372418 0)
(-0.228198 0.021699 0)
(-0.229649 0.00598141 0)
(-0.230807 -0.00985038 0)
(-0.231656 -0.025729 0)
(-0.232219 -0.041587 0)
(-0.232502 -0.0573578 0)
(-0.232544 -0.0729817 0)
(-0.232372 -0.0884078 0)
(-0.232043 -0.103598 0)
(-0.231608 -0.118536 0)
(-0.231157 -0.133226 0)
(-0.230792 -0.147721 0)
(-0.230683 -0.162124 0)
(-0.231053 -0.176646 0)
(-0.232224 -0.191604 0)
(-0.23458 -0.207493 0)
(-0.238509 -0.224887 0)
(-0.244186 -0.244342 0)
(-0.251244 -0.265918 0)
(-0.258313 -0.288642 0)
(-0.262626 -0.309619 0)
(-0.260012 -0.323598 0)
(-0.245518 -0.323032 0)
(-0.215195 -0.2999 0)
(-0.168801 -0.249608 0)
(-0.113103 -0.177068 0)
(-0.0619021 -0.100544 0)
(-0.027877 -0.0410813 0)
(-0.0099497 -0.00496916 0)
(-0.00176241 0.0134044 0)
(0.000546719 0.0178406 0)
(0.000333086 0.0101746 0)
(-0.00259038 0.0323944 0)
(-0.0131311 0.0685174 0)
(-0.0283998 0.094089 0)
(-0.0451274 0.119962 0)
(-0.0643968 0.149057 0)
(-0.0845102 0.17977 0)
(-0.105468 0.209537 0)
(-0.125349 0.235382 0)
(-0.143553 0.255078 0)
(-0.158623 0.26707 0)
(-0.170416 0.271131 0)
(-0.178554 0.267899 0)
(-0.183751 0.258946 0)
(-0.186536 0.246059 0)
(-0.187988 0.231056 0)
(-0.188742 0.215267 0)
(-0.189538 0.199597 0)
(-0.190618 0.184423 0)
(-0.192233 0.169834 0)
(-0.194291 0.155682 0)
(-0.196775 0.141774 0)
(-0.199491 0.127891 0)
(-0.202361 0.113873 0)
(-0.205221 0.0995974 0)
(-0.208018 0.0850043 0)
(-0.21064 0.0700661 0)
(-0.213063 0.0547935 0)
(-0.215218 0.0392168 0)
(-0.217099 0.0233868 0)
(-0.218664 0.00736538 0)
(-0.219921 -0.00877601 0)
(-0.220852 -0.0249612 0)
(-0.221481 -0.0411132 0)
(-0.221808 -0.0571576 0)
(-0.221871 -0.073026 0)
(-0.22169 -0.0886607 0)
(-0.221313 -0.104014 0)
(-0.220775 -0.119058 0)
(-0.220139 -0.13378 0)
(-0.219468 -0.148201 0)
(-0.218871 -0.162372 0)
(-0.218495 -0.176431 0)
(-0.218579 -0.190596 0)
(-0.219458 -0.205279 0)
(-0.22158 -0.22104 0)
(-0.225397 -0.238651 0)
(-0.231148 -0.258755 0)
(-0.238429 -0.281487 0)
(-0.245624 -0.305459 0)
(-0.2495 -0.32694 0)
(-0.245199 -0.339055 0)
(-0.227355 -0.332507 0)
(-0.192226 -0.298194 0)
(-0.141474 -0.233177 0)
(-0.0851732 -0.148739 0)
(-0.0404008 -0.0710346 0)
(-0.0155799 -0.0197536 0)
(-0.00385209 0.00745635 0)
(8.19559e-05 0.0167041 0)
(0.00031379 0.0107384 0)
(-0.00261281 0.0396694 0)
(-0.0133247 0.0818767 0)
(-0.0287926 0.110249 0)
(-0.045489 0.137984 0)
(-0.064394 0.168539 0)
(-0.0836398 0.199897 0)
(-0.103217 0.229257 0)
(-0.121201 0.253485 0)
(-0.13716 0.270562 0)
(-0.149817 0.279264 0)
(-0.159308 0.279886 0)
(-0.165476 0.273527 0)
(-0.169238 0.262156 0)
(-0.171178 0.24771 0)
(-0.172352 0.231979 0)
(-0.173256 0.216096 0)
(-0.17449 0.200738 0)
(-0.176135 0.186049 0)
(-0.178336 0.171961 0)
(-0.180922 0.158221 0)
(-0.183849 0.144597 0)
(-0.186912 0.130862 0)
(-0.190051 0.116874 0)
(-0.193116 0.10253 0)
(-0.196075 0.0877932 0)
(-0.198831 0.0726528 0)
(-0.201372 0.0571343 0)
(-0.203634 0.0412781 0)
(-0.205616 0.025145 0)
(-0.207276 0.00880529 0)
(-0.208621 -0.00766031 0)
(-0.209632 -0.0241674 0)
(-0.210331 -0.0406294 0)
(-0.210716 -0.0569645 0)
(-0.210823 -0.0730959 0)
(-0.210669 -0.0889605 0)
(-0.2103 -0.104504 0)
(-0.209743 -0.119696 0)
(-0.209052 -0.134511 0)
(-0.208266 -0.148961 0)
(-0.207455 -0.163064 0)
(-0.206703 -0.176908 0)
(-0.206162 -0.190618 0)
(-0.206067 -0.204495 0)
(-0.206793 -0.218974 0)
(-0.208838 -0.234816 0)
(-0.212727 -0.252893 0)
(-0.218721 -0.274068 0)
(-0.226262 -0.298267 0)
(-0.233358 -0.323557 0)
(-0.236045 -0.344679 0)
(-0.2288 -0.352719 0)
(-0.205897 -0.336255 0)
(-0.164777 -0.286024 0)
(-0.110085 -0.203668 0)
(-0.0568221 -0.110904 0)
(-0.0227022 -0.0404496 0)
(-0.00678578 -0.00122849 0)
(-0.000579974 0.0144331 0)
(0.000267732 0.0111235 0)
(-0.00251988 0.0469156 0)
(-0.013078 0.0952847 0)
(-0.0283757 0.12636 0)
(-0.0446851 0.15568 0)
(-0.0628555 0.187289 0)
(-0.0809176 0.218821 0)
(-0.0988843 0.247314 0)
(-0.11489 0.269572 0)
(-0.128691 0.283859 0)
(-0.1392 0.289328 0)
(-0.146799 0.286799 0)
(-0.151499 0.277786 0)
(-0.154335 0.264557 0)
(-0.155872 0.249087 0)
(-0.157082 0.233055 0)
(-0.158311 0.217357 0)
(-0.160019 0.202441 0)
(-0.162164 0.188254 0)
(-0.16482 0.17461 0)
(-0.167774 0.161191 0)
(-0.170981 0.147757 0)
(-0.174243 0.134088 0)
(-0.177524 0.120068 0)
(-0.180693 0.105616 0)
(-0.183736 0.0907127 0)
(-0.186567 0.0753597 0)
(-0.189183 0.0595928 0)
(-0.191521 0.043458 0)
(-0.193583 0.0270241 0)
(-0.195325 0.0103672 0)
(-0.196755 -0.00642341 0)
(-0.197849 -0.0232558 0)
(-0.198627 -0.0400343 0)
(-0.199087 -0.0566697 0)
(-0.199262 -0.0730765 0)
(-0.199167 -0.089187 0)
(-0.198846 -0.10494 0)
(-0.198325 -0.120304 0)
(-0.197654 -0.135248 0)
(-0.196862 -0.149784 0)
(-0.196002 -0.163913 0)
(-0.195119 -0.177701 0)