/*--------------------------------*- C++ -*----------------------------------*\
| =========                 |                                                 |
| \\      /  F ield         | OpenFOAM: The Open Source CFD Toolbox           |
|  \\    /   O peration     | Version:  2406                                  |
|   \\  /    A nd           | Website:  www.openfoam.com                      |
|    \\/     M anipulation  |                                                 |
\*---------------------------------------------------------------------------*/
FoamFile
{
    version     2.0;
    format      ascii;
    arch        "LSB;label=32;scalar=64";
    class       volScalarField;
    location    "9.5";
    object      p;
}
// * * * * * * * * * * * * * * * * * * * * * * * * * * * * * * * * * * * * * //

dimensions      [0 2 -2 0 0 0 0];

internalField   nonuniform List<scalar> 
14400
(
0.0153769
0.0153751
0.0153722
0.0153681
0.0153646
0.015361
0.0153586
0.0153567
0.015356
0.015356
0.015357
0.0153588
0.0153615
0.0153649
0.015369
0.0153738
0.0153793
0.0153854
0.0153922
0.0153996
0.0154076
0.0154162
0.0154256
0.0154355
0.0154462
0.0154576
0.0154697
0.0154826
0.0154962
0.0155107
0.015526
0.0155421
0.0155592
0.0155771
0.0155961
0.0156159
0.0156368
0.0156587
0.0156816
0.0157055
0.0157305
0.0157566
0.0157837
0.0158119
0.0158411
0.0158714
0.0159028
0.0159351
0.0159684
0.0160027
0.0160378
0.0160738
0.0161106
0.0161481
0.0161863
0.0162249
0.0162641
0.0163036
0.0163434
0.0163833
0.0164232
0.016463
0.0165025
0.0165417
0.0165804
0.0166184
0.0166556
0.0166918
0.016727
0.0167609
0.0167935
0.0168246
0.0168542
0.016882
0.016908
0.0169322
0.0169543
0.0169745
0.0169926
0.0170086
0.0170224
0.0170342
0.0170438
0.0170514
0.0170569
0.0170604
0.0170621
0.0170618
0.0170598
0.0170562
0.017051
0.0170445
0.0170366
0.0170275
0.0170174
0.0170063
0.0169945
0.0169821
0.0169691
0.0169557
0.0169421
0.0169284
0.0169146
0.016901
0.0168876
0.0168745
0.0168619
0.0168498
0.0168384
0.0168278
0.016818
0.0168093
0.0168015
0.016795
0.0167897
0.016786
0.0167833
0.0167827
0.0167825
0.0167839
0.0153787
0.0153768
0.015375
0.015372
0.0153696
0.0153671
0.0153655
0.0153643
0.0153641
0.0153645
0.0153659
0.0153678
0.0153706
0.0153741
0.0153783
0.0153831
0.0153886
0.0153947
0.0154014
0.0154088
0.0154168
0.0154255
0.0154348
0.0154447
0.0154554
0.0154668
0.0154789
0.0154918
0.0155054
0.0155198
0.0155351
0.0155512
0.0155682
0.0155861
0.015605
0.0156247
0.0156455
0.0156672
0.01569
0.0157138
0.0157386
0.0157644
0.0157913
0.0158192
0.0158481
0.0158781
0.015909
0.015941
0.0159739
0.0160077
0.0160423
0.0160778
0.0161141
0.016151
0.0161885
0.0162265
0.016265
0.0163039
0.0163429
0.0163821
0.0164213
0.0164604
0.0164992
0.0165376
0.0165755
0.0166128
0.0166493
0.0166848
0.0167193
0.0167526
0.0167845
0.0168151
0.016844
0.0168713
0.0168969
0.0169206
0.0169424
0.0169623
0.0169801
0.0169959
0.0170096
0.0170212
0.0170308
0.0170384
0.017044
0.0170476
0.0170494
0.0170493
0.0170476
0.0170443
0.0170395
0.0170332
0.0170257
0.0170171
0.0170075
0.0169969
0.0169856
0.0169737
0.0169613
0.0169485
0.0169355
0.0169223
0.0169092
0.0168962
0.0168834
0.016871
0.016859
0.0168476
0.0168369
0.0168269
0.0168178
0.0168096
0.0168024
0.0167965
0.0167915
0.016788
0.0167853
0.0167845
0.0167839
0.0167853
0.0153816
0.0153787
0.0153768
0.0153735
0.0153714
0.0153689
0.0153676
0.0153666
0.0153666
0.0153671
0.0153685
0.0153706
0.0153735
0.015377
0.0153812
0.0153861
0.0153916
0.0153977
0.0154044
0.0154118
0.0154198
0.0154284
0.0154377
0.0154477
0.0154583
0.0154697
0.0154817
0.0154946
0.0155082
0.0155225
0.0155378
0.0155538
0.0155708
0.0155886
0.0156074
0.0156271
0.0156478
0.0156694
0.0156921
0.0157158
0.0157405
0.0157662
0.015793
0.0158208
0.0158496
0.0158795
0.0159103
0.0159421
0.0159749
0.0160085
0.016043
0.0160784
0.0161144
0.0161512
0.0161886
0.0162265
0.0162648
0.0163035
0.0163424
0.0163814
0.0164205
0.0164594
0.0164981
0.0165364
0.0165741
0.0166113
0.0166476
0.016683
0.0167174
0.0167506
0.0167824
0.0168129
0.0168417
0.0168689
0.0168944
0.016918
0.0169398
0.0169595
0.0169773
0.016993
0.0170067
0.0170183
0.0170278
0.0170353
0.0170409
0.0170445
0.0170462
0.0170462
0.0170444
0.0170411
0.0170363
0.01703
0.0170226
0.017014
0.0170043
0.0169938
0.0169826
0.0169707
0.0169584
0.0169456
0.0169327
0.0169197
0.0169066
0.0168937
0.0168811
0.0168688
0.016857
0.0168458
0.0168352
0.0168254
0.0168164
0.0168084
0.0168013
0.0167955
0.0167906
0.0167872
0.0167846
0.0167839
0.0167833
0.0167852
0.0153858
0.0153816
0.0153799
0.0153766
0.015375
0.0153729
0.0153721
0.0153715
0.0153719
0.0153727
0.0153744
0.0153767
0.0153797
0.0153833
0.0153876
0.0153925
0.015398
0.0154041
0.0154109
0.0154182
0.0154262
0.0154348
0.0154441
0.015454
0.0154646
0.0154759
0.0154879
0.0155007
0.0155142
0.0155285
0.0155437
0.0155596
0.0155765
0.0155942
0.0156129
0.0156325
0.015653
0.0156745
0.015697
0.0157205
0.015745
0.0157706
0.0157971
0.0158247
0.0158532
0.0158828
0.0159134
0.0159449
0.0159773
0.0160107
0.0160449
0.0160799
0.0161156
0.016152
0.016189
0.0162265
0.0162645
0.0163028
0.0163413
0.0163799
0.0164186
0.0164571
0.0164954
0.0165333
0.0165707
0.0166075
0.0166434
0.0166785
0.0167126
0.0167454
0.016777
0.0168071
0.0168357
0.0168627
0.0168879
0.0169113
0.0169328
0.0169524
0.01697
0.0169856
0.0169991
0.0170106
0.0170201
0.0170276
0.0170331
0.0170366
0.0170384
0.0170384
0.0170367
0.0170334
0.0170287
0.0170226
0.0170152
0.0170067
0.0169973
0.016987
0.0169759
0.0169643
0.0169521
0.0169397
0.016927
0.0169143
0.0169015
0.016889
0.0168767
0.0168648
0.0168533
0.0168424
0.0168322
0.0168228
0.0168142
0.0168066
0.0167998
0.0167943
0.0167896
0.0167864
0.0167838
0.0167831
0.0167824
0.0167845
0.0153896
0.0153838
0.015382
0.015378
0.0153765
0.0153742
0.0153736
0.015373
0.0153736
0.0153745
0.0153764
0.0153788
0.0153819
0.0153856
0.01539
0.0153949
0.0154004
0.0154066
0.0154133
0.0154206
0.0154286
0.0154372
0.0154464
0.0154562
0.0154668
0.015478
0.0154899
0.0155026
0.0155161
0.0155303
0.0155453
0.0155612
0.0155779
0.0155956
0.0156141
0.0156336
0.015654
0.0156753
0.0156977
0.0157211
0.0157454
0.0157708
0.0157972
0.0158246
0.0158531
0.0158825
0.0159129
0.0159443
0.0159766
0.0160099
0.0160439
0.0160788
0.0161144
0.0161507
0.0161876
0.0162251
0.016263
0.0163012
0.0163397
0.0163783
0.0164169
0.0164554
0.0164936
0.0165315
0.0165689
0.0166057
0.0166417
0.0166768
0.0167109
0.0167437
0.0167753
0.0168055
0.0168341
0.0168611
0.0168863
0.0169097
0.0169312
0.0169508
0.0169684
0.0169839
0.0169974
0.0170088
0.0170182
0.0170256
0.017031
0.0170345
0.0170361
0.017036
0.0170342
0.0170308
0.0170259
0.0170197
0.0170122
0.0170036
0.016994
0.0169836
0.0169725
0.0169608
0.0169486
0.0169361
0.0169234
0.0169106
0.0168979
0.0168853
0.0168731
0.0168612
0.0168498
0.016839
0.0168289
0.0168195
0.016811
0.0168035
0.0167968
0.0167914
0.0167867
0.0167836
0.016781
0.0167805
0.0167798
0.016782
0.0153932
0.015386
0.0153841
0.0153796
0.0153783
0.015376
0.0153757
0.0153752
0.0153761
0.0153772
0.0153793
0.0153818
0.0153851
0.0153889
0.0153934
0.0153983
0.0154039
0.01541
0.0154168
0.0154241
0.015432
0.0154405
0.0154496
0.0154594
0.0154699
0.015481
0.0154929
0.0155054
0.0155188
0.0155329
0.0155478
0.0155635
0.0155801
0.0155976
0.015616
0.0156353
0.0156555
0.0156767
0.0156989
0.0157221
0.0157462
0.0157714
0.0157976
0.0158248
0.0158531
0.0158823
0.0159125
0.0159437
0.0159758
0.0160088
0.0160427
0.0160774
0.0161128
0.0161489
0.0161857
0.016223
0.0162607
0.0162988
0.0163371
0.0163756
0.0164141
0.0164525
0.0164907
0.0165285
0.0165658
0.0166026
0.0166385
0.0166736
0.0167076
0.0167404
0.016772
0.0168021
0.0168307
0.0168576
0.0168828
0.0169062
0.0169277
0.0169472
0.0169647
0.0169802
0.0169936
0.0170049
0.0170142
0.0170215
0.0170268
0.0170302
0.0170317
0.0170315
0.0170296
0.0170261
0.0170211
0.0170148
0.0170072
0.0169985
0.0169889
0.0169784
0.0169672
0.0169555
0.0169433
0.0169308
0.0169181
0.0169054
0.0168927
0.0168803
0.0168681
0.0168563
0.0168451
0.0168344
0.0168245
0.0168153
0.016807
0.0167996
0.0167931
0.0167878
0.0167832
0.0167802
0.0167777
0.0167771
0.0167764
0.0167786
0.0153956
0.015387
0.0153848
0.0153796
0.0153782
0.0153757
0.0153755
0.0153751
0.0153761
0.0153773
0.0153795
0.0153821
0.0153855
0.0153894
0.0153939
0.0153989
0.0154045
0.0154106
0.0154173
0.0154246
0.0154324
0.0154409
0.01545
0.0154597
0.01547
0.015481
0.0154928
0.0155052
0.0155184
0.0155324
0.0155471
0.0155627
0.0155792
0.0155965
0.0156147
0.0156338
0.0156539
0.0156749
0.0156969
0.0157199
0.0157439
0.0157689
0.015795
0.015822
0.0158501
0.0158792
0.0159093
0.0159404
0.0159724
0.0160053
0.0160391
0.0160738
0.0161092
0.0161453
0.016182
0.0162193
0.0162571
0.0162953
0.0163337
0.0163722
0.0164109
0.0164494
0.0164877
0.0165257
0.0165632
0.0166001
0.0166363
0.0166715
0.0167057
0.0167387
0.0167704
0.0168007
0.0168295
0.0168566
0.0168819
0.0169054
0.0169269
0.0169465
0.016964
0.0169795
0.0169929
0.0170042
0.0170134
0.0170206
0.0170258
0.017029
0.0170304
0.0170299
0.0170278
0.0170241
0.0170189
0.0170123
0.0170045
0.0169956
0.0169857
0.016975
0.0169636
0.0169516
0.0169393
0.0169266
0.0169137
0.0169009
0.0168881
0.0168755
0.0168632
0.0168514
0.0168401
0.0168295
0.0168195
0.0168103
0.016802
0.0167947
0.0167882
0.0167829
0.0167784
0.0167753
0.0167728
0.0167722
0.0167715
0.0167736
0.0153969
0.015387
0.0153847
0.0153789
0.0153776
0.0153749
0.0153749
0.0153744
0.0153756
0.015377
0.0153794
0.0153821
0.0153856
0.0153895
0.015394
0.0153991
0.0154047
0.0154108
0.0154175
0.0154247
0.0154325
0.0154409
0.0154498
0.0154594
0.0154697
0.0154806
0.0154921
0.0155044
0.0155175
0.0155313
0.0155459
0.0155613
0.0155775
0.0155946
0.0156126
0.0156316
0.0156514
0.0156723
0.0156941
0.0157169
0.0157407
0.0157655
0.0157914
0.0158183
0.0158462
0.0158751
0.0159051
0.015936
0.0159679
0.0160007
0.0160345
0.016069
0.0161044
0.0161405
0.0161772
0.0162145
0.0162523
0.0162905
0.016329
0.0163677
0.0164065
0.0164451
0.0164836
0.0165218
0.0165595
0.0165966
0.0166329
0.0166683
0.0167027
0.016736
0.0167679
0.0167984
0.0168273
0.0168545
0.01688
0.0169036
0.0169253
0.0169449
0.0169625
0.016978
0.0169913
0.0170026
0.0170117
0.0170188
0.0170238
0.0170269
0.0170281
0.0170274
0.0170251
0.0170211
0.0170157
0.0170088
0.0170008
0.0169916
0.0169815
0.0169705
0.0169589
0.0169467
0.0169341
0.0169213
0.0169083
0.0168953
0.0168824
0.0168697
0.0168574
0.0168455
0.0168342
0.0168235
0.0168136
0.0168045
0.0167961
0.0167888
0.0167824
0.0167771
0.0167726
0.0167696
0.0167671
0.0167664
0.0167657
0.0167676
0.0153965
0.0153854
0.0153829
0.0153765
0.0153751
0.0153722
0.0153721
0.0153717
0.015373
0.0153743
0.0153768
0.0153796
0.0153832
0.0153871
0.0153918
0.0153968
0.0154024
0.0154085
0.0154151
0.0154223
0.01543
0.0154383
0.0154471
0.0154566
0.0154667
0.0154775
0.0154889
0.015501
0.0155139
0.0155275
0.0155419
0.0155571
0.0155731
0.0155901
0.0156079
0.0156266
0.0156463
0.0156669
0.0156885
0.0157111
0.0157347
0.0157594
0.0157851
0.0158118
0.0158396
0.0158685
0.0158983
0.0159292
0.015961
0.0159938
0.0160276
0.0160622
0.0160976
0.0161338
0.0161706
0.0162081
0.0162461
0.0162845
0.0163232
0.0163621
0.0164012
0.0164401
0.0164789
0.0165174
0.0165555
0.0165929
0.0166296
0.0166654
0.0167002
0.0167338
0.0167661
0.0167969
0.0168261
0.0168536
0.0168794
0.0169032
0.016925
0.0169448
0.0169625
0.016978
0.0169914
0.0170026
0.0170117
0.0170186
0.0170235
0.0170264
0.0170273
0.0170264
0.0170238
0.0170195
0.0170137
0.0170066
0.0169981
0.0169886
0.0169781
0.0169668
0.0169549
0.0169424
0.0169294
0.0169163
0.016903
0.0168898
0.0168766
0.0168637
0.0168512
0.0168392
0.0168277
0.016817
0.0168069
0.0167977
0.0167893
0.016782
0.0167755
0.0167702
0.0167657
0.0167626
0.0167601
0.0167594
0.0167587
0.0167604
0.0153944
0.0153823
0.0153796
0.0153726
0.0153712
0.0153681
0.0153682
0.0153677
0.0153691
0.0153705
0.0153731
0.0153759
0.0153796
0.0153835
0.0153882
0.0153932
0.0153988
0.0154049
0.0154114
0.0154185
0.0154261
0.0154343
0.0154431
0.0154524
0.0154623
0.0154729
0.0154842
0.0154961
0.0155088
0.0155222
0.0155364
0.0155514
0.0155672
0.0155839
0.0156015
0.01562
0.0156395
0.0156599
0.0156813
0.0157037
0.0157271
0.0157516
0.0157771
0.0158037
0.0158314
0.0158601
0.0158899
0.0159207
0.0159525
0.0159853
0.0160191
0.0160537
0.0160892
0.0161255
0.0161625
0.0162001
0.0162383
0.016277
0.016316
0.0163552
0.0163946
0.0164339
0.0164731
0.016512
0.0165504
0.0165883
0.0166254
0.0166616
0.0166968
0.0167308
0.0167635
0.0167946
0.0168242
0.0168521
0.0168781
0.0169022
0.0169242
0.0169442
0.016962
0.0169776
0.016991
0.0170022
0.0170112
0.0170181
0.0170228
0.0170254
0.0170261
0.0170249
0.017022
0.0170174
0.0170112
0.0170037
0.0169949
0.016985
0.0169741
0.0169624
0.0169501
0.0169372
0.0169239
0.0169105
0.0168969
0.0168833
0.01687
0.0168569
0.0168442
0.016832
0.0168204
0.0168095
0.0167993
0.01679
0.0167816
0.0167742
0.0167677
0.0167624
0.0167578
0.0167547
0.0167522
0.0167514
0.0167506
0.0167522
0.0153902
0.0153771
0.0153742
0.0153667
0.0153653
0.0153619
0.015362
0.0153615
0.015363
0.0153644
0.015367
0.0153699
0.0153736
0.0153776
0.0153822
0.0153872
0.0153928
0.0153988
0.0154053
0.0154123
0.0154198
0.0154278
0.0154364
0.0154456
0.0154554
0.0154658
0.0154769
0.0154886
0.0155011
0.0155143
0.0155283
0.015543
0.0155586
0.0155751
0.0155925
0.0156107
0.01563
0.0156502
0.0156714
0.0156936
0.0157169
0.0157412
0.0157666
0.0157931
0.0158206
0.0158493
0.015879
0.0159098
0.0159417
0.0159745
0.0160084
0.0160431
0.0160788
0.0161153
0.0161525
0.0161905
0.016229
0.016268
0.0163073
0.016347
0.0163868
0.0164266
0.0164663
0.0165057
0.0165446
0.016583
0.0166207
0.0166575
0.0166932
0.0167277
0.0167609
0.0167926
0.0168226
0.0168509
0.0168773
0.0169017
0.0169241
0.0169443
0.0169623
0.016978
0.0169915
0.0170027
0.0170116
0.0170183
0.0170228
0.0170253
0.0170257
0.0170242
0.0170208
0.0170158
0.0170093
0.0170013
0.016992
0.0169816
0.0169703
0.0169581
0.0169453
0.016932
0.0169183
0.0169044
0.0168905
0.0168766
0.0168629
0.0168495
0.0168365
0.0168241
0.0168123
0.0168012
0.0167909
0.0167815
0.0167729
0.0167654
0.0167588
0.0167534
0.0167488
0.0167457
0.0167431
0.0167423
0.0167415
0.016743
0.0153838
0.0153699
0.0153669
0.0153589
0.0153574
0.0153539
0.015354
0.0153535
0.015355
0.0153564
0.0153591
0.015362
0.0153657
0.0153697
0.0153743
0.0153793
0.0153848
0.0153907
0.0153972
0.0154041
0.0154115
0.0154194
0.0154278
0.0154368
0.0154465
0.0154567
0.0154675
0.0154791
0.0154913
0.0155043
0.015518
0.0155326
0.0155479
0.0155642
0.0155813
0.0155994
0.0156184
0.0156384
0.0156594
0.0156814
0.0157045
0.0157287
0.0157539
0.0157803
0.0158078
0.0158364
0.0158661
0.0158969
0.0159288
0.0159617
0.0159957
0.0160307
0.0160665
0.0161033
0.0161408
0.016179
0.0162179
0.0162573
0.0162972
0.0163373
0.0163776
0.0164179
0.0164582
0.0164981
0.0165377
0.0165767
0.016615
0.0166524
0.0166888
0.0167239
0.0167576
0.0167899
0.0168204
0.0168492
0.016876
0.0169008
0.0169235
0.016944
0.0169622
0.0169781
0.0169916
0.0170028
0.0170117
0.0170183
0.0170226
0.0170248
0.0170249
0.017023
0.0170193
0.0170139
0.0170068
0.0169983
0.0169886
0.0169777
0.0169658
0.0169532
0.0169398
0.016926
0.0169119
0.0168976
0.0168832
0.016869
0.0168549
0.0168412
0.0168279
0.0168153
0.0168032
0.0167919
0.0167814
0.0167719
0.0167632
0.0167556
0.0167489
0.0167434
0.0167388
0.0167356
0.016733
0.0167322
0.0167313
0.0167328
0.0153751
0.0153603
0.0153571
0.0153488
0.0153472
0.0153435
0.0153437
0.015343
0.0153446
0.015346
0.0153488
0.0153516
0.0153553
0.0153593
0.0153639
0.0153688
0.0153743
0.0153801
0.0153865
0.0153932
0.0154005
0.0154083
0.0154166
0.0154254
0.0154348
0.0154448
0.0154555
0.0154668
0.0154788
0.0154916
0.0155051
0.0155194
0.0155345
0.0155505
0.0155674
0.0155852
0.015604
0.0156238
0.0156446
0.0156665
0.0156894
0.0157135
0.0157386
0.0157649
0.0157924
0.015821
0.0158507
0.0158816
0.0159136
0.0159467
0.0159808
0.016016
0.0160521
0.0160892
0.0161271
0.0161658
0.0162051
0.016245
0.0162854
0.0163261
0.016367
0.016408
0.0164489
0.0164895
0.0165298
0.0165696
0.0166086
0.0166467
0.0166838
0.0167196
0.016754
0.0167869
0.0168181
0.0168474
0.0168748
0.0169
0.0169231
0.0169439
0.0169624
0.0169784
0.0169921
0.0170033
0.0170121
0.0170186
0.0170227
0.0170246
0.0170244
0.0170221
0.017018
0.017012
0.0170045
0.0169954
0.0169851
0.0169736
0.0169612
0.0169479
0.0169341
0.0169197
0.016905
0.0168902
0.0168754
0.0168607
0.0168462
0.0168321
0.0168186
0.0168056
0.0167932
0.0167817
0.016771
0.0167613
0.0167524
0.0167447
0.0167379
0.0167324
0.0167277
0.0167244
0.0167218
0.0167209
0.0167201
0.0167217
0.0153638
0.0153483
0.015345
0.0153363
0.0153347
0.0153309
0.015331
0.0153304
0.015332
0.0153333
0.0153361
0.0153389
0.0153426
0.0153466
0.0153511
0.015356
0.0153614
0.0153671
0.0153734
0.01538
0.0153871
0.0153947
0.0154029
0.0154115
0.0154207
0.0154305
0.015441
0.0154521
0.0154639
0.0154764
0.0154896
0.0155037
0.0155186
0.0155343
0.015551
0.0155686
0.0155872
0.0156068
0.0156274
0.0156491
0.0156719
0.0156958
0.0157209
0.0157472
0.0157746
0.0158032
0.015833
0.015864
0.0158961
0.0159294
0.0159638
0.0159992
0.0160357
0.0160731
0.0161114
0.0161506
0.0161904
0.0162309
0.0162719
0.0163132
0.0163548
0.0163965
0.0164381
0.0164796
0.0165207
0.0165612
0.016601
0.0166399
0.0166778
0.0167144
0.0167496
0.0167832
0.0168151
0.016845
0.016873
0.0168988
0.0169223
0.0169434
0.0169622
0.0169785
0.0169922
0.0170035
0.0170123
0.0170186
0.0170225
0.0170242
0.0170236
0.0170209
0.0170162
0.0170097
0.0170016
0.016992
0.016981
0.0169689
0.0169559
0.016942
0.0169275
0.0169126
0.0168973
0.016882
0.0168666
0.0168515
0.0168366
0.0168221
0.0168081
0.0167948
0.0167822
0.0167705
0.0167595
0.0167496
0.0167406
0.0167327
0.0167258
0.0167202
0.0167154
0.0167122
0.0167095
0.0167087
0.0167079
0.0167095
0.0153498
0.0153337
0.0153303
0.0153212
0.0153196
0.0153156
0.0153158
0.015315
0.0153167
0.015318
0.0153208
0.0153236
0.0153273
0.0153311
0.0153356
0.0153404
0.0153457
0.0153513
0.0153574
0.015364
0.0153709
0.0153784
0.0153863
0.0153948
0.0154038
0.0154134
0.0154236
0.0154345
0.015446
0.0154583
0.0154713
0.0154851
0.0154998
0.0155153
0.0155317
0.0155491
0.0155675
0.0155869
0.0156074
0.0156289
0.0156516
0.0156755
0.0157005
0.0157267
0.0157542
0.0157828
0.0158127
0.0158438
0.0158761
0.0159097
0.0159443
0.0159801
0.016017
0.0160548
0.0160937
0.0161333
0.0161738
0.0162149
0.0162565
0.0162986
0.016341
0.0163835
0.016426
0.0164683
0.0165102
0.0165516
0.0165924
0.0166322
0.0166709
0.0167084
0.0167445
0.0167789
0.0168115
0.0168422
0.0168708
0.0168972
0.0169212
0.0169428
0.0169619
0.0169784
0.0169924
0.0170037
0.0170124
0.0170186
0.0170223
0.0170236
0.0170226
0.0170195
0.0170143
0.0170073
0.0169985
0.0169882
0.0169766
0.0169638
0.01695
0.0169355
0.0169203
0.0169047
0.0168889
0.0168729
0.016857
0.0168414
0.016826
0.0168111
0.0167967
0.0167831
0.0167702
0.0167581
0.0167469
0.0167368
0.0167276
0.0167196
0.0167126
0.0167069
0.0167021
0.0166988
0.0166961
0.0166953
0.0166946
0.0166963
0.015333
0.0153164
0.0153129
0.0153035
0.0153018
0.0152977
0.0152979
0.0152971
0.0152987
0.0153
0.0153028
0.0153055
0.0153092
0.015313
0.0153174
0.0153221
0.0153273
0.0153328
0.0153388
0.0153452
0.015352
0.0153592
0.015367
0.0153753
0.0153841
0.0153935
0.0154034
0.0154141
0.0154254
0.0154374
0.0154502
0.0154638
0.0154782
0.0154935
0.0155097
0.0155269
0.0155451
0.0155643
0.0155846
0.015606
0.0156286
0.0156524
0.0156774
0.0157036
0.0157311
0.0157599
0.0157899
0.0158212
0.0158537
0.0158875
0.0159225
0.0159587
0.015996
0.0160343
0.0160737
0.016114
0.0161551
0.0161969
0.0162393
0.0162821
0.0163253
0.0163687
0.0164121
0.0164553
0.0164983
0.0165407
0.0165824
0.0166232
0.0166629
0.0167013
0.0167383
0.0167737
0.0168071
0.0168386
0.016868
0.016895
0.0169196
0.0169417
0.0169612
0.016978
0.0169921
0.0170035
0.0170122
0.0170183
0.0170217
0.0170227
0.0170213
0.0170177
0.0170119
0.0170042
0.0169948
0.0169838
0.0169715
0.0169579
0.0169434
0.0169281
0.0169122
0.016896
0.0168794
0.0168629
0.0168464
0.0168302
0.0168143
0.016799
0.0167842
0.0167702
0.0167569
0.0167446
0.0167332
0.0167228
0.0167135
0.0167053
0.0166982
0.0166924
0.0166875
0.0166843
0.0166815
0.0166809
0.0166801
0.0166821
0.0153133
0.0152961
0.0152925
0.0152829
0.0152812
0.015277
0.0152771
0.0152763
0.0152779
0.0152792
0.0152819
0.0152846
0.0152882
0.0152919
0.0152963
0.0153009
0.015306
0.0153113
0.0153172
0.0153234
0.01533
0.0153371
0.0153447
0.0153527
0.0153613
0.0153705
0.0153802
0.0153906
0.0154017
0.0154135
0.015426
0.0154394
0.0154536
0.0154686
0.0154847
0.0155016
0.0155196
0.0155387
0.0155589
0.0155802
0.0156027
0.0156265
0.0156514
0.0156777
0.0157053
0.0157341
0.0157643
0.0157958
0.0158286
0.0158627
0.0158981
0.0159347
0.0159725
0.0160114
0.0160514
0.0160923
0.0161341
0.0161767
0.0162199
0.0162636
0.0163077
0.0163521
0.0163964
0.0164407
0.0164847
0.0165281
0.0165709
0.0166128
0.0166536
0.0166931
0.0167311
0.0167674
0.0168019
0.0168342
0.0168644
0.0168922
0.0169174
0.0169401
0.01696
0.0169771
0.0169915
0.017003
0.0170117
0.0170176
0.0170208
0.0170215
0.0170196
0.0170154
0.0170091
0.0170007
0.0169906
0.0169788
0.0169657
0.0169513
0.016936
0.0169199
0.0169033
0.0168863
0.016869
0.0168518
0.0168347
0.0168179
0.0168015
0.0167857
0.0167705
0.0167561
0.0167425
0.0167299
0.0167182
0.0167077
0.0166981
0.0166898
0.0166825
0.0166767
0.0166717
0.0166685
0.0166658
0.0166652
0.0166645
0.0166667
0.0152906
0.0152729
0.0152692
0.0152593
0.0152576
0.0152533
0.0152535
0.0152525
0.0152542
0.0152554
0.0152581
0.0152607
0.0152642
0.0152679
0.0152722
0.0152766
0.0152816
0.0152868
0.0152925
0.0152986
0.015305
0.0153119
0.0153193
0.0153271
0.0153355
0.0153444
0.015354
0.0153641
0.015375
0.0153865
0.0153988
0.0154119
0.0154259
0.0154408
0.0154566
0.0154734
0.0154912
0.0155101
0.0155302
0.0155514
0.0155739
0.0155976
0.0156226
0.0156489
0.0156766
0.0157056
0.0157359
0.0157677
0.0158008
0.0158353
0.0158711
0.0159082
0.0159465
0.015986
0.0160266
0.0160682
0.0161108
0.0161542
0.0161983
0.0162429
0.016288
0.0163333
0.0163788
0.0164241
0.0164692
0.0165138
0.0165577
0.0166008
0.0166427
0.0166834
0.0167225
0.0167599
0.0167954
0.0168287
0.0168598
0.0168884
0.0169144
0.0169376
0.0169581
0.0169756
0.0169902
0.0170018
0.0170105
0.0170163
0.0170193
0.0170196
0.0170173
0.0170126
0.0170056
0.0169965
0.0169856
0.016973
0.016959
0.0169438
0.0169277
0.0169107
0.0168933
0.0168754
0.0168575
0.0168395
0.0168218
0.0168044
0.0167874
0.0167711
0.0167555
0.0167407
0.0167268
0.0167139
0.0167019
0.0166912
0.0166814
0.016673
0.0166656
0.0166598
0.0166547
0.0166515
0.0166488
0.0166484
0.0166477
0.0166502
0.0152647
0.0152466
0.0152428
0.0152327
0.015231
0.0152265
0.0152267
0.0152257
0.0152273
0.0152285
0.0152311
0.0152337
0.0152372
0.0152407
0.0152449
0.0152492
0.0152541
0.0152592
0.0152647
0.0152705
0.0152768
0.0152835
0.0152907
0.0152983
0.0153065
0.0153152
0.0153245
0.0153344
0.015345
0.0153563
0.0153684
0.0153813
0.015395
0.0154097
0.0154253
0.0154419
0.0154596
0.0154784
0.0154983
0.0155195
0.0155419
0.0155656
0.0155906
0.015617
0.0156448
0.015674
0.0157046
0.0157366
0.0157701
0.0158049
0.0158412
0.0158788
0.0159177
0.0159578
0.0159991
0.0160415
0.0160848
0.0161291
0.0161741
0.0162197
0.0162658
0.0163122
0.0163588
0.0164053
0.0164516
0.0164974
0.0165426
0.0165869
0.0166301
0.0166719
0.0167123
0.0167509
0.0167875
0.0168219
0.016854
0.0168835
0.0169103
0.0169342
0.0169553
0.0169733
0.0169882
0.017
0.0170087
0.0170145
0.0170172
0.0170171
0.0170144
0.017009
0.0170014
0.0169915
0.0169798
0.0169664
0.0169515
0.0169354
0.0169183
0.0169005
0.0168821
0.0168635
0.0168447
0.016826
0.0168076
0.0167896
0.016772
0.0167552
0.0167391
0.016724
0.0167097
0.0166965
0.0166843
0.0166733
0.0166634
0.0166549
0.0166474
0.0166415
0.0166364
0.0166332
0.0166305
0.0166303
0.0166297
0.0166325
0.0152355
0.015217
0.0152133
0.015203
0.0152012
0.0151967
0.0151968
0.0151958
0.0151973
0.0151985
0.015201
0.0152035
0.0152069
0.0152104
0.0152144
0.0152186
0.0152233
0.0152283
0.0152336
0.0152393
0.0152454
0.0152519
0.0152588
0.0152663
0.0152742
0.0152827
0.0152917
0.0153014
0.0153118
0.0153228
0.0153347
0.0153473
0.0153609
0.0153753
0.0153907
0.0154072
0.0154247
0.0154434
0.0154632
0.0154843
0.0155067
0.0155304
0.0155555
0.015582
0.0156099
0.0156393
0.0156701
0.0157025
0.0157363
0.0157715
0.0158082
0.0158464
0.0158858
0.0159266
0.0159686
0.0160118
0.016056
0.0161012
0.0161471
0.0161938
0.016241
0.0162885
0.0163362
0.0163839
0.0164314
0.0164785
0.016525
0.0165706
0.0166152
0.0166584
0.0167
0.0167399
0.0167777
0.0168134
0.0168465
0.0168771
0.0169048
0.0169296
0.0169513
0.0169698
0.0169851
0.0169972
0.017006
0.0170117
0.0170142
0.0170138
0.0170105
0.0170046
0.0169963
0.0169856
0.016973
0.0169587
0.0169429
0.0169258
0.0169077
0.016889
0.0168697
0.0168502
0.0168306
0.0168111
0.016792
0.0167733
0.0167552
0.0167379
0.0167214
0.0167058
0.0166912
0.0166777
0.0166652
0.0166541
0.016644
0.0166354
0.0166278
0.0166218
0.0166167
0.0166136
0.0166109
0.0166109
0.0166104
0.0166135
0.0152031
0.0151842
0.0151804
0.0151699
0.0151681
0.0151635
0.0151636
0.0151626
0.0151641
0.0151651
0.0151677
0.0151701
0.0151733
0.0151767
0.0151806
0.0151847
0.0151892
0.015194
0.0151992
0.0152047
0.0152106
0.0152169
0.0152236
0.0152308
0.0152385
0.0152467
0.0152555
0.015265
0.0152751
0.0152859
0.0152975
0.01531
0.0153233
0.0153375
0.0153527
0.015369
0.0153864
0.015405
0.0154247
0.0154458
0.0154681
0.0154918
0.015517
0.0155436
0.0155716
0.0156012
0.0156323
0.015665
0.0156991
0.0157348
0.015772
0.0158107
0.0158508
0.0158923
0.015935
0.015979
0.0160241
0.0160701
0.0161171
0.0161648
0.016213
0.0162617
0.0163106
0.0163596
0.0164084
0.0164568
0.0165047
0.0165517
0.0165976
0.0166422
0.0166853
0.0167265
0.0167657
0.0168026
0.016837
0.0168687
0.0168975
0.0169232
0.0169457
0.0169649
0.0169807
0.0169931
0.0170021
0.0170078
0.0170102
0.0170095
0.0170057
0.0169992
0.0169901
0.0169787
0.0169652
0.0169499
0.0169331
0.016915
0.0168959
0.0168762
0.0168559
0.0168355
0.016815
0.0167948
0.0167749
0.0167555
0.0167369
0.016719
0.016702
0.0166861
0.0166711
0.0166574
0.0166447
0.0166334
0.0166231
0.0166144
0.0166067
0.0166007
0.0165956
0.0165926
0.0165899
0.0165901
0.0165897
0.0165932
0.0151672
0.0151481
0.0151442
0.0151335
0.0151318
0.015127
0.0151271
0.015126
0.0151275
0.0151285
0.0151309
0.0151332
0.0151364
0.0151396
0.0151434
0.0151473
0.0151517
0.0151563
0.0151613
0.0151666
0.0151723
0.0151784
0.0151849
0.0151918
0.0151993
0.0152073
0.0152159
0.015225
0.0152349
0.0152455
0.0152569
0.0152691
0.0152822
0.0152962
0.0153112
0.0153273
0.0153446
0.015363
0.0153827
0.0154036
0.015426
0.0154497
0.0154749
0.0155016
0.0155298
0.0155596
0.015591
0.0156239
0.0156585
0.0156946
0.0157323
0.0157715
0.0158122
0.0158544
0.0158979
0.0159426
0.0159885
0.0160355
0.0160835
0.0161322
0.0161815
0.0162314
0.0162815
0.0163317
0.0163818
0.0164316
0.0164808
0.0165293
0.0165767
0.0166228
0.0166673
0.01671
0.0167507
0.016789
0.0168248
0.0168578
0.0168877
0.0169145
0.016938
0.016958
0.0169745
0.0169874
0.0169967
0.0170025
0.0170048
0.0170038
0.0169997
0.0169926
0.0169828
0.0169706
0.0169562
0.0169399
0.016922
0.0169028
0.0168827
0.0168619
0.0168407
0.0168192
0.0167979
0.0167768
0.0167562
0.0167362
0.0167169
0.0166985
0.0166811
0.0166648
0.0166495
0.0166355
0.0166226
0.0166111
0.0166007
0.0165919
0.0165842
0.0165782
0.016573
0.0165701
0.0165675
0.0165679
0.0165675
0.0165715
0.0151279
0.0151085
0.0151046
0.0150938
0.015092
0.0150871
0.0150872
0.015086
0.0150875
0.0150884
0.0150907
0.0150929
0.015096
0.0150991
0.0151027
0.0151065
0.0151107
0.0151151
0.0151199
0.015125
0.0151305
0.0151363
0.0151426
0.0151493
0.0151565
0.0151642
0.0151726
0.0151815
0.0151911
0.0152014
0.0152125
0.0152245
0.0152374
0.0152512
0.015266
0.0152819
0.015299
0.0153173
0.0153369
0.0153578
0.0153801
0.0154038
0.015429
0.0154558
0.0154842
0.0155142
0.0155458
0.0155791
0.015614
0.0156505
0.0156887
0.0157285
0.0157698
0.0158126
0.0158568
0.0159023
0.015949
0.0159969
0.0160458
0.0160955
0.0161459
0.0161968
0.0162481
0.0162995
0.0163509
0.016402
0.0164526
0.0165025
0.0165514
0.016599
0.0166451
0.0166894
0.0167316
0.0167715
0.0168088
0.0168432
0.0168746
0.0169027
0.0169273
0.0169484
0.0169658
0.0169794
0.0169892
0.0169953
0.0169977
0.0169966
0.0169922
0.0169846
0.0169742
0.0169611
0.0169458
0.0169285
0.0169095
0.0168893
0.0168681
0.0168461
0.0168238
0.0168014
0.0167791
0.0167572
0.0167358
0.0167151
0.0166952
0.0166763
0.0166585
0.0166418
0.0166262
0.016612
0.0165989
0.0165872
0.0165768
0.0165679
0.0165601
0.0165541
0.016549
0.0165461
0.0165436
0.0165442
0.016544
0.0165483
0.015085
0.0150654
0.0150614
0.0150505
0.0150487
0.0150438
0.0150438
0.0150425
0.0150439
0.0150447
0.015047
0.0150491
0.0150521
0.015055
0.0150585
0.0150621
0.0150661
0.0150703
0.0150749
0.0150798
0.015085
0.0150906
0.0150966
0.0151031
0.01511
0.0151175
0.0151255
0.0151342
0.0151435
0.0151536
0.0151644
0.0151761
0.0151887
0.0152023
0.0152169
0.0152327
0.0152496
0.0152677
0.0152871
0.015308
0.0153302
0.0153539
0.0153792
0.0154061
0.0154345
0.0154647
0.0154965
0.0155301
0.0155653
0.0156023
0.0156409
0.0156811
0.015723
0.0157664
0.0158112
0.0158575
0.015905
0.0159536
0.0160033
0.0160539
0.0161053
0.0161572
0.0162095
0.016262
0.0163146
0.0163669
0.0164188
0.01647
0.0165203
0.0165694
0.016617
0.0166629
0.0167068
0.0167484
0.0167873
0.0168235
0.0168565
0.0168862
0.0169123
0.0169347
0.0169533
0.0169679
0.0169786
0.0169853
0.0169881
0.0169872
0.0169827
0.0169748
0.0169638
0.0169501
0.0169339
0.0169156
0.0168956
0.0168743
0.0168519
0.0168288
0.0168054
0.016782
0.0167587
0.0167359
0.0167137
0.0166923
0.0166718
0.0166524
0.0166341
0.0166171
0.0166012
0.0165867
0.0165735
0.0165617
0.0165512
0.0165422
0.0165344
0.0165285
0.0165233
0.0165206
0.0165181
0.016519
0.0165188
0.0165236
0.0150386
0.0150188
0.0150148
0.0150037
0.0150019
0.0149969
0.0149969
0.0149955
0.0149968
0.0149976
0.0149997
0.0150017
0.0150045
0.0150073
0.0150106
0.015014
0.0150178
0.0150218
0.0150262
0.0150308
0.0150358
0.0150412
0.0150469
0.0150531
0.0150597
0.0150669
0.0150747
0.015083
0.0150921
0.0151018
0.0151124
0.0151238
0.0151361
0.0151495
0.0151638
0.0151793
0.015196
0.015214
0.0152333
0.015254
0.0152761
0.0152998
0.0153251
0.0153519
0.0153805
0.0154108
0.0154428
0.0154766
0.0155121
0.0155494
0.0155884
0.0156291
0.0156714
0.0157153
0.0157607
0.0158075
0.0158556
0.0159049
0.0159553
0.0160066
0.0160586
0.0161113