/*--------------------------------*- C++ -*----------------------------------*\
| =========                 |                                                 |
| \\      /  F ield         | OpenFOAM: The Open Source CFD Toolbox           |
|  \\    /   O peration     | Version:  2406                                  |
|   \\  /    A nd           | Website:  www.openfoam.com                      |
|    \\/     M anipulation  |                                                 |
\*---------------------------------------------------------------------------*/
FoamFile
{
    version     2.0;
    format      ascii;
    arch        "LSB;label=32;scalar=64";
    class       volScalarField;
    location    "18.9";
    object      p;
}
// * * * * * * * * * * * * * * * * * * * * * * * * * * * * * * * * * * * * * //

dimensions      [0 2 -2 0 0 0 0];

internalField   nonuniform List<scalar> 
3600
(
0.0269452
0.0269424
0.0269304
0.0269101
0.026886
0.0268539
0.0268202
0.0267784
0.0267353
0.0266844
0.0266327
0.0265747
0.0265166
0.0264542
0.0263931
0.0263297
0.026269
0.0262085
0.0261524
0.0260994
0.0260535
0.0260142
0.0259852
0.0259666
0.0259608
0.025967
0.0259852
0.0260117
0.0260426
0.0260705
0.0260869
0.0260814
0.0260434
0.0259624
0.0258301
0.0256417
0.025396
0.0250979
0.0247558
0.024384
0.0239969
0.0236128
0.0232451
0.0229088
0.02261
0.022357
0.0221468
0.0219821
0.0218529
0.0217607
0.0216914
0.0216489
0.0216172
0.0216049
0.0215941
0.0215995
0.0216009
0.0216181
0.0216265
0.0216438
0.0269475
0.0269441
0.0269337
0.0269149
0.026893
0.0268624
0.0268305
0.0267898
0.0267484
0.0266991
0.0266495
0.0265937
0.0265385
0.0264791
0.0264214
0.0263614
0.0263042
0.0262468
0.0261933
0.0261418
0.0260963
0.0260557
0.0260236
0.0259996
0.0259862
0.0259823
0.0259882
0.0260005
0.0260159
0.0260275
0.0260277
0.0260068
0.025955
0.0258624
0.0257212
0.0255273
0.0252797
0.0249838
0.0246479
0.0242863
0.0239133
0.0235463
0.0231977
0.0228815
0.0226022
0.0223669
0.0221715
0.0220182
0.0218967
0.0218089
0.0217411
0.0216981
0.021664
0.0216487
0.0216336
0.0216347
0.0216301
0.021642
0.0216434
0.0216609
0.0269611
0.0269546
0.0269442
0.026924
0.0269028
0.0268716
0.0268401
0.026799
0.0267576
0.0267077
0.026658
0.0266015
0.0265461
0.0264862
0.0264282
0.0263677
0.0263099
0.0262513
0.0261961
0.0261423
0.0260935
0.0260489
0.026012
0.0259828
0.0259642
0.0259554
0.0259573
0.0259669
0.0259811
0.0259931
0.0259954
0.0259774
0.0259289
0.0258392
0.0256997
0.0255052
0.0252546
0.0249529
0.0246088
0.0242376
0.0238547
0.0234791
0.0231246
0.022806
0.0225282
0.0222982
0.0221107
0.0219671
0.0218558
0.0217778
0.0217186
0.0216829
0.0216544
0.0216434
0.0216308
0.0216341
0.0216295
0.0216434
0.0216442
0.0216686
0.0269827
0.0269712
0.0269617
0.0269401
0.0269209
0.0268896
0.0268599
0.0268188
0.0267785
0.0267285
0.0266795
0.0266231
0.0265682
0.0265083
0.0264505
0.0263894
0.0263304
0.0262693
0.0262101
0.0261501
0.0260929
0.0260374
0.0259874
0.0259428
0.0259071
0.0258803
0.025864
0.025856
0.0258544
0.0258529
0.0258447
0.0258197
0.0257678
0.025678
0.0255412
0.0253513
0.0251063
0.0248102
0.0244714
0.0241047
0.0237259
0.0233549
0.0230061
0.0226953
0.0224279
0.0222107
0.0220379
0.0219101
0.0218143
0.0217508
0.0217038
0.0216783
0.021657
0.0216513
0.0216411
0.0216459
0.0216399
0.021654
0.0216523
0.0216814
0.0270101
0.026992
0.0269828
0.026958
0.0269398
0.0269068
0.0268776
0.0268348
0.026794
0.0267419
0.0266913
0.0266321
0.0265746
0.026511
0.0264489
0.0263819
0.0263156
0.0262445
0.0261727
0.0260966
0.0260198
0.0259409
0.0258643
0.0257904
0.025724
0.0256661
0.0256203
0.025586
0.0255629
0.0255463
0.0255308
0.0255069
0.0254644
0.0253918
0.0252785
0.025116
0.0248998
0.0246309
0.0243153
0.0239661
0.0235984
0.0232325
0.0228847
0.0225729
0.0223048
0.022089
0.0219208
0.0218011
0.0217162
0.0216655
0.021632
0.0216194
0.0216097
0.0216141
0.0216115
0.0216228
0.0216204
0.0216385
0.0216379
0.0216714
0.0270429
0.0270175
0.0270094
0.0269817
0.0269656
0.0269313
0.0269034
0.0268592
0.0268184
0.0267641
0.026712
0.0266493
0.0265881
0.0265185
0.0264488
0.0263708
0.0262896
0.0261983
0.0261001
0.02599
0.0258715
0.0257425
0.0256081
0.0254698
0.0253344
0.0252054
0.0250898
0.0249906
0.0249112
0.0248508
0.0248069
0.0247725
0.0247388
0.0246942
0.0246266
0.0245247
0.0243794
0.0241866
0.0239467
0.0236674
0.0233599
0.023042
0.0227298
0.0224424
0.0221902
0.021985
0.0218249
0.0217129
0.0216365
0.0215953
0.021572
0.0215698
0.0215696
0.0215825
0.0215865
0.021603
0.0216035
0.0216235
0.0216231
0.0216576
0.027074
0.0270404
0.0270333
0.0270017
0.0269871
0.0269502
0.0269225
0.0268753
0.0268328
0.0267741
0.0267176
0.0266478
0.0265781
0.0264959
0.0264098
0.0263086
0.0261967
0.0260643
0.0259133
0.0257368
0.0255376
0.0253137
0.0250717
0.0248157
0.0245569
0.0243037
0.024069
0.0238615
0.0236906
0.0235605
0.0234732
0.0234248
0.0234089
0.0234139
0.0234265
0.0234316
0.0234146
0.0233634
0.0232695
0.0231309
0.0229505
0.0227392
0.0225099
0.0222812
0.0220665
0.0218822
0.0217322
0.0216243
0.0215501
0.0215115
0.0214924
0.0214959
0.0215027
0.0215228
0.0215338
0.0215562
0.0215614
0.0215844
0.0215857
0.0216198
0.0271055
0.0270635
0.0270582
0.0270233
0.027011
0.0269718
0.0269449
0.0268946
0.0268503
0.0267861
0.0267236
0.0266432
0.0265594
0.0264559
0.0263403
0.0261972
0.0260287
0.0258208
0.0255732
0.0252764
0.0249335
0.0245436
0.0241178
0.0236657
0.0232059
0.0227547
0.0223331
0.0219573
0.0216438
0.0214024
0.0212408
0.0211591
0.0211541
0.0212163
0.0213325
0.0214853
0.0216552
0.021822
0.021966
0.0220718
0.0221277
0.0221311
0.0220839
0.0219985
0.0218872
0.0217705
0.0216593
0.02157
0.0215024
0.0214644
0.0214444
0.0214472
0.0214547
0.0214762
0.0214898
0.021514
0.0215214
0.0215445
0.0215465
0.0215778
0.0271256
0.0270748
0.0270713
0.0270323
0.0270218
0.0269793
0.0269518
0.0268966
0.0268479
0.0267748
0.0267011
0.0266027
0.0264938
0.0263528
0.0261847
0.0259681
0.0257008
0.0253635
0.0249538
0.0244608
0.0238908
0.0232481
0.0225528
0.0218239
0.0210908
0.0203794
0.0197193
0.0191333
0.0186438
0.018265
0.0180086
0.017878
0.0178738
0.0179891
0.0182135
0.0185305
0.0189194
0.0193552
0.0198097
0.0202538
0.0206585
0.0210007
0.0212625
0.0214393
0.0215336
0.0215632
0.0215453
0.0215068
0.0214613
0.021428
0.021405
0.0214019
0.0214046
0.0214222
0.0214344
0.0214574
0.0214654
0.0214873
0.0214897
0.0215175
0.0271383
0.0270787
0.0270778
0.0270354
0.0270272
0.0269814
0.0269534
0.0268924
0.0268378
0.0267521
0.0266611
0.0265341
0.0263837
0.0261807
0.025925
0.025587
0.0251594
0.0246177
0.0239598
0.023178
0.0222877
0.0213045
0.0202623
0.0191931
0.018138
0.0171313
0.0162089
0.015397
0.01472
0.0141931
0.0138289
0.0136326
0.013607
0.013749
0.014053
0.0145072
0.0150958
0.0157964
0.01658
0.0174109
0.0182471
0.0190446
0.019759
0.0203562
0.0208124
0.0211269
0.0213118
0.0214004
0.0214228
0.0214168
0.0213984
0.0213885
0.0213817
0.0213892
0.0213938
0.0214099
0.0214141
0.0214315
0.0214323
0.0214557
0.027127
0.0270583
0.0270599
0.0270132
0.0270066
0.0269561
0.0269255
0.0268555
0.0267901
0.0266844
0.0265645
0.0263915
0.0261738
0.0258716
0.0254779
0.0249535
0.0242872
0.0234532
0.022456
0.0212995
0.0200158
0.0186381
0.0172172
0.0157979
0.0144302
0.0131522
0.0120002
0.010998
0.0101668
0.00951784
0.00906116
0.00880023
0.00873859
0.0088755
0.0092102
0.00973809
0.0104523
0.0113403
0.0123825
0.0135496
0.0148003
0.0160815
0.0173286
0.0184748
0.0194563
0.0202313
0.0207817
0.0211278
0.0213079
0.0213811
0.0213919
0.021383
0.0213665
0.0213598
0.0213523
0.0213569
0.0213537
0.0213642
0.021362
0.0213812
0.0270976
0.02702
0.0270247
0.0269741
0.026969
0.0269133
0.0268787
0.026797
0.0267153
0.0265801
0.0264156
0.0261719
0.0258502
0.0253981
0.0248005
0.0240106
0.0230183
0.0218053
0.0203929
0.0188061
0.0171002
0.0153284
0.0135562
0.0118359
0.0102192
0.00874024
0.00742934
0.00630225
0.00537286
0.00464569
0.00412602
0.00381399
0.003712
0.00382
0.00414033
0.00467396
0.00542267
0.00638561
0.00755807
0.00892756
0.0104689
0.0121404
0.0138787
0.0156013
0.0172097
0.0186089
0.0197217
0.0205178
0.0210127
0.0212716
0.0213707
0.0213886
0.0213699
0.0213479
0.0213241
0.0213122
0.0212971
0.0212972
0.0212899
0.021305
0.0270283
0.0269416
0.0269489
0.0268933
0.0268879
0.0268243
0.0267816
0.0266817
0.0265738
0.0263936
0.026161
0.0258122
0.0253387
0.0246747
0.0237991
0.022664
0.0212705
0.0196197
0.0177606
0.0157452
0.0136533
0.0115527
0.00951587
0.00759233
0.00582653
0.00424153
0.00285675
0.00167744
0.000709367
-4.95097e-05
-0.00059818
-0.000939492
-0.00107256
-0.000997978
-0.000712748
-0.000213695
0.000505216
0.00145069
0.0026297
0.0040468
0.00569918
0.00757134
0.00962532
0.0117947
0.0139782
0.0160475
0.0178631
0.0193113
0.0203337
0.0209543
0.021258
0.0213627
0.0213656
0.0213341
0.0212931
0.0212613
0.0212311
0.0212185
0.0212044
0.0212158
0.0269275
0.0268322
0.0268422
0.0267814
0.0267747
0.0267012
0.0266464
0.0265213
0.0263752
0.0261305
0.0257997
0.0253025
0.0246201
0.0236757
0.0224491
0.0209023
0.0190612
0.0169573
0.0146732
0.0122869
0.00989494
0.00756838
0.00537427
0.00334952
0.00152449
-9.21224e-05
-0.0014922
-0.00267944
-0.00365366
-0.00442052
-0.00498073
-0.00533809
-0.00549216
-0.00544397
-0.00519122
-0.00473128
-0.00405853
-0.00316501
-0.00204017
-0.000670699
0.00095591
0.00284869
0.0050032
0.00739194
0.00994906
0.0125607
0.0150655
0.0172772
0.0190318
0.0202452
0.020946
0.0212584
0.0213394
0.0213175
0.021263
0.0212091
0.021161
0.0211329
0.0211104
0.0211178
0.0267685
0.0266646
0.0266759
0.0266079
0.0265965
0.0265081
0.0264335
0.0262718
0.0260698
0.0257345
0.0252681
0.0245735
0.0236231
0.0223359
0.020704
0.0187129
0.0164246
0.0139067
0.0112724
0.00861561
0.00603546
0.00359281
0.00133894
-0.000707805
-0.00253287
-0.00414044
-0.00553044
-0.00671146
-0.00768495
-0.00845667
-0.00902627
-0.00939632
-0.00956551
-0.00953453
-0.00930194
-0.00886661
-0.0082258
-0.00737437
-0.00630481
-0.00500426
-0.00345688
-0.0016419
0.000459104
0.00285607
0.00553394
0.0084326
0.0114292
0.0143281
0.0168918
0.0188991
0.0202403
0.0209602
0.0212353
0.0212697
0.0212158
0.021141
0.0210736
0.0210278
0.0209955
0.0209984
0.0265637
0.0264519
0.0264638
0.0263877
0.0263685
0.0262611
0.0261589
0.0259483
0.0256703
0.0252148
0.0245718
0.0236293
0.0223564
0.0206791
0.0186149
0.016185
0.013493
0.0106387
0.00775445
0.0049345
0.00226606
-0.000210588
-0.00246476
-0.00449682
-0.00630487
-0.00790136
-0.0092893
-0.0104776
-0.0114658
-0.0122566
-0.0128467
-0.0132357
-0.0134206
-0.013401
-0.013176
-0.012746
-0.0121116
-0.011272
-0.0102255
-0.00896501
-0.00748016
-0.00575123
-0.00375401
-0.0014589
0.00115735
0.00409346
0.00729978
0.01064
0.0138884
0.0167407
0.0189253
0.0203048
0.0209733
0.0211634
0.0211439
0.0210558
0.020969
0.0209028
0.0208595
0.0208558
0.026282
0.0261623
0.0261725
0.026085
0.0260526
0.0259185
0.0257772
0.025501
0.0251227
0.0245142
0.0236539
0.0224194
0.0207861
0.0186991
0.0162133
0.0133916
0.0103752
0.0072847
0.00425503
0.00136558
-0.0013184
-0.00378123
-0.00601175
-0.00802475
-0.00982567
-0.0114298
-0.0128387
-0.0140581
-0.0150831
-0.0159116
-0.0165364
-0.0169533
-0.0171573
-0.0171463
-0.0169199
-0.0164792
-0.0158284
-0.0149703
-0.0139101
-0.0126471
-0.0111806
-0.00949829
-0.00758258
-0.00540211
-0.00291856
-9.56409e-05
0.0030839
0.00657124
0.0102265
0.0137666
0.0168342
0.0190832
0.0204015
0.0209313
0.0210191
0.020938
0.0208356
0.0207455
0.0206898
0.0206764
0.0259421
0.0258159
0.0258226
0.0257218
0.0256714
0.0255041
0.0253125
0.0249544
0.0244519
0.0236593
0.022546
0.0209874
0.0189753
0.0164865
0.0136195
0.010477
0.00722734
0.00399513
0.000902737
-0.0019955
-0.00466001
-0.0070979
-0.00931272
-0.0113277
-0.01315
-0.0147933
-0.0162545
-0.0175338
-0.0186203
-0.0195068
-0.0201814
-0.0206365
-0.0208647
-0.0208622
-0.020629
-0.0201666
-0.0194822
-0.0185811
-0.0174748
-0.0161687
-0.0146718
-0.0129816
-0.0110926
-0.00898229
-0.00661571
-0.00394482
-0.000914066
0.0024997
0.00626459
0.0101983
0.013981
0.0171487
0.0193413
0.0204658
0.0208088
0.020777
0.0206712
0.020553
0.0204826
0.0204547
0.0255103
0.0253777
0.0253776
0.0252593
0.0251836
0.0249739
0.0247183
0.0242602
0.0236095
0.022606
0.0212146
0.0193178
0.0169345
0.0140804
0.0108977
0.00751996
0.00412683
0.000832032
-0.00226553
-0.00514034
-0.00777673
-0.0101993
-0.0124203
-0.0144657
-0.0163402
-0.0180524
-0.0195928
-0.0209549
-0.0221219
-0.0230809
-0.0238161
-0.0243163
-0.0245725
-0.024579
-0.0243366
-0.0238463
-0.0231184
-0.0221597
-0.0209869
-0.0196094
-0.0180452
-0.0162999
-0.0143814
-0.01228
-0.00997431
-0.00742255
-0.00455927
-0.00132304
0.00233995
0.00636687
0.0105668
0.0144941
0.0176453
0.0196002
0.0204427
0.0205453
0.0204614
0.0203148
0.0202255
0.0201773
0.0250146
0.0248773
0.0248679
0.0247299
0.0246231
0.0243641
0.0240329
0.0234599
0.0226421
0.0214092
0.0197275
0.0174964
0.014769
0.0116027
0.0081771
0.00464336
0.00117784
-0.00212802
-0.00520342
-0.00805018
-0.0106716
-0.0131035
-0.0153614
-0.0174692
-0.0194266
-0.021235
-0.0228779
-0.0243417
-0.0256039
-0.0266465
-0.0274504
-0.0280008
-0.0282879
-0.0283041
-0.0280513
-0.0275299
-0.0267532
-0.0257285
-0.0244776
-0.023012
-0.0213569
-0.0195238
-0.0175321
-0.015384
-0.013075
-0.0105788
-0.00783961
-0.00478814
-0.00132355
0.00258516
0.00689761
0.0112937
0.0152827
0.0181976
0.0197905
0.0202193
0.0201847
0.0200267
0.0199107
0.0198361
0.0244202
0.0242787
0.0242561
0.0240941
0.0239489
0.0236319
0.0232135
0.0225124
0.021514
0.0200431
0.018074
0.0155307
0.0125039
0.00908999
0.00549508
0.0018747
-0.00161027
-0.00489624
-0.00794044
-0.0107672
-0.0133932
-0.0158595
-0.0181807
-0.0203759
-0.0224377
-0.0243598
-0.0261189
-0.0276943
-0.0290592
-0.0301901
-0.0310661
-0.0316685
-0.0319874
-0.032013
-0.0317489
-0.0311943
-0.0303663
-0.029272
-0.0279382
-0.0263771
-0.0246205
-0.0226823
-0.0205917
-0.018359
-0.0159955
-0.013492
-0.0108114
-0.00789724
-0.00463621
-0.00094616
0.00325655
0.00781322
0.0123695
0.016198
0.0187024
0.0197307
0.0198164
0.0196683
0.0195275
0.0194157
0.0237674
0.0236241
0.023586
0.0233984
0.0232099
0.0228301
0.0223169
0.0214809
0.0202965
0.0185902
0.0163494
0.013528
0.0102535
0.00665453
0.00295212
-0.000705406
-0.00417987
-0.00743644
-0.0104569
-0.0132823
-0.0159371
-0.0184635
-0.0208721
-0.0231752
-0.0253582
-0.0274067
-0.0292914
-0.0309853
-0.0324577
-0.0336807
-0.0346313
-0.0352874
-0.0356393
-0.0356743
-0.0353985
-0.0348096
-0.0339289
-0.0327628
-0.0313441
-0.0296847
-0.0278227
-0.0257727
-0.0235714
-0.0212334
-0.0187826
-0.0162239
-0.0135408
-0.0106988
-0.00759512
-0.00413598
-0.000158315
0.00431454
0.00913471
0.0136482
0.0171146
0.0189305
0.019361
0.0192005
0.0190747
0.0188997
0.023021
0.0228769
0.0228197
0.0226035
0.0223663
0.0219188
0.0213055
0.0203317
0.0189634
0.0170345
0.0145488
0.0114923
0.00802505
0.00429957
0.000540478
-0.0031188
-0.006566
-0.0097925
-0.0128
-0.0156408
-0.018343
-0.0209464
-0.0234563
-0.0258773
-0.0281881
-0.0303665
-0.0323785
-0.0341913
-0.0357713
-0.037086
-0.0381113
-0.0388209
-0.0392056
-0.0392494
-0.0389613
-0.0383367
-0.0374024
-0.0361632
-0.0346591
-0.0329007
-0.0309338
-0.0287715
-0.0264579
-0.0240079
-0.0214551
-0.0188128
-0.0160831
-0.0132543
-0.0102455
-0.00697756
-0.00325343
0.000991731
0.00581222
0.01071
0.015028
0.0177029
0.0187692
0.0186057
0.0185285
0.0182735
0.0222359
0.0220941
0.0220164
0.021772
0.0214839
0.0209685
0.0202548
0.0191475
0.0176057
0.0154753
0.0127782
0.00953186
0.00592215
0.00211704
-0.00166399
-0.00530652
-0.00872384
-0.0119292
-0.0149395
-0.0178132
-0.0205794
-0.0232731
-0.0258941
-0.0284393
-0.0308811
-0.0331909
-0.0353306
-0.0372621
-0.0389503
-0.0403572
-0.0414584
-0.0422222
-0.042641
-0.042694
-0.0423943
-0.0417338
-0.0407459
-0.039433
-0.0378437
-0.0359867
-0.0339165
-0.031644
-0.0292212
-0.0266606
-0.0240035
-0.0212664
-0.0184653
-0.0156072
-0.0126366
-0.00950139
-0.00600584
-0.00204154
0.00259212
0.00760088
0.0125084
0.0160481
0.0178928
0.017913
0.0178341
0.0175348
0.0213753
0.021237
0.0211367
0.0208631
0.0205223
0.0199396
0.0191281
0.017896
0.0161966
0.0138918
0.0110205
0.00762904
0.00392185
7.5044e-05
-0.0037031
-0.00731784
-0.010706
-0.0138978
-0.0169211
-0.0198372
-0.0226741
-0.0254614
-0.0281935
-0.0308596
-0.0334278
-0.035863
-0.0381251
-0.0401705
-0.0419632
-0.0434593
-0.0446347
-0.0454514
-0.0459039
-0.0459656
-0.0456546
-0.044958
-0.0439172
-0.0425309
-0.0408578
-0.0389033
-0.0367328
-0.0343536
-0.0318272
-0.0291617
-0.026406
-0.0235747
-0.0206942
-0.0177833
-0.0148096
-0.0117518
-0.00843547
-0.00474602
-0.000398616
0.00450884
0.00970023
0.0140084
0.0166219
0.0171221
0.0169567
0.0166745
0.0205086
0.0203778
0.0202553
0.0199555
0.0195635
0.0189185
0.0180165
0.0166736
0.014838
0.0123895
0.00938176
0.0058858
0.00211733
-0.00174493
-0.00550713
-0.00909279
-0.0124587
-0.0156473
-0.0186941
-0.0216604
-0.0245727
-0.0274541
-0.030295
-0.0330772
-0.0357662
-0.0383208
-0.0407003
-0.042855
-0.0447491
-0.0463322
-0.0475809
-0.0484501
-0.048937
-0.0490083
-0.048688
-0.0479571
-0.0468662
-0.045409
-0.0436557
-0.0416068
-0.0393409
-0.0368598
-0.0342368
-0.0314741
-0.0286292
-0.0257115
-0.0227551
-0.0197842
-0.0167841
-0.0137623
-0.0105722
-0.00712292
-0.00308825
0.00157007
0.00679108
0.0116461
0.0149767
0.0161481
0.0159177
0.0156656
0.0195936
0.0194719
0.0193268
0.0190022
0.0185609
0.0178593
0.0168765
0.0154394
0.0134915
0.0109312
0.00782285
0.00425817
0.000457667
-0.0034005
-0.00713823
-0.0106941
-0.0140416
-0.017231
-0.0203036
-0.0233186
-0.0263013
-0.0292683
-0.0322072
-0.0350932
-0.0378905
-0.0405521
-0.0430379
-0.0452918
-0.0472795
-0.0489424
-0.0502596
-0.0511772
-0.0516969
-0.0517767
-0.0514483
-0.0506847
-0.0495476
-0.048023
-0.046195
-0.0440571
-0.0417024
-0.0391259
-0.0364149
-0.0335639
-0.0306412
-0.0276483
-0.0246268
-0.0215996
-0.0185652
-0.0155543
-0.0124467
-0.00919409
-0.00545351
-0.00112994
0.00394341
0.00905764
0.0130333
0.0148793
0.0147589
0.0144762
0.0187138
0.0186055
0.0184404
0.0180962
0.0176108
0.0168618
0.0158107
0.0142992
0.0122649
0.00962448
0.00644874
0.00284552
-0.000965246
-0.00480782
-0.00851929
-0.0120495
-0.0153853
-0.0185807
-0.0216814
-0.0247433
-0.0277909
-0.0308346
-0.0338608
-0.0368383
-0.0397319
-0.0424887
-0.0450703
-0.0474137
-0.049487
-0.051223
-0.0526043
-0.0535668
-0.0541187
-0.0542073
-0.053874
-0.0530816
-0.0519047
-0.0503196
-0.0484258
-0.046207
-0.0437737
-0.0411109
-0.0383229
-0.035394
-0.0324065
-0.0293512
-0.0262789
-0.0232062
-0.0201415
-0.0171308
-0.0140764
-0.0109793
-0.00749575
-0.00353792
0.00127381
0.00638
0.0108775
0.0132945
0.0135093
0.013109
0.0178156
0.0177218
0.0175382
0.0171779
0.0166532
0.0158658
0.0147602
0.0131945
0.0110995
0.00840909
0.00519553
0.00157913
-0.00222497
-0.00604319
-0.00972668
-0.0132322
-0.0165571
-0.0197562
-0.0228792
-0.0259774
-0.0290762
-0.0321798
-0.0352754
-0.0383252
-0.0412968
-0.0441302
-0.046791
-0.0492078
-0.0513533
-0.0531498
-0.054586
-0.0555858
-0.056166
-0.0562612
-0.0559247
-0.0551065
-0.0538966
-0.0522582
-0.050309
-0.0480196
-0.04552
-0.0427821
-0.03993
-0.0369348
-0.0338966
-0.030792
-0.0276851
-0.0245801
-0.0214966
-0.0184856
-0.01547
-0.0124948
-0.00922973
-0.00562892
-0.00114789
0.00375155
0.00858527
0.0114448
0.0121387
0.0115769
0.0169956
0.0169207
0.0167229
0.0163535
0.0157972
0.0149827
0.0138376
0.0122386
0.0101082
0.00739609
0.00417123
0.000562643
-0.00322244
-0.00701226
-0.0106698
-0.0141549
-0.0174723
-0.0206752
-0.0238164
-0.0269425
-0.0300808
-0.0332295
-0.0363783
-0.0394833
-0.0425158
-0.0454087
-0.048133
-0.0506079
-0.0528127
-0.0546577
-0.0561405
-0.0571708
-0.0577768
-0.0578779
-0.0575422
-0.0567037
-0.0554703
-0.0537889
-0.0517979
-0.0494511
-0.0469008
-0.0441019
-0.0412016
-0.0381538
-0.0350805
-0.0319403
-0.0288156
-0.0256928
-0.0226062
-0.0196008
-0.0166217
-0.0137442
-0.0106659
-0.00739126
-0.00327755
0.00128939
0.0062392
0.00941115
0.0105958
0.0099007
0.0161813
0.0161256
0.0159165
0.0155422
0.0149612
0.0141298
0.0129602
0.0113482
0.0092069
0.00649924
0.00328667
-0.000295754
-0.00405136
-0.00780823
-0.0114395
-0.0149034
-0.0182108
-0.0214102
-0.0245585
-0.0276965
-0.0308556
-0.0340275
-0.0372073
-0.0403436
-0.0434144
-0.0463435
-0.0491101
-0.0516217
-0.0538676
-0.0557438
-0.0572601
-0.0583097
-0.0589356
-0.0590389
-0.0587057
-0.0578503
-0.0566021
-0.0548875
-0.0528685
-0.0504777
-0.0478933
-0.0450482
-0.0421168
-0.0390305
-0.0359385
-0.0327761
-0.0296502
-0.026523
-0.02345
-0.0204593
-0.0175222
-0.0147271
-0.0118123
-0.00882441
-0.00508894
-0.000922092
0.00393504
0.00728585
0.00887721
0.00812308
0.015484
0.0154511
0.0152366
0.0148652
0.0142684
0.0134319
0.0122524
0.0106467
0.00851677
0.0058374
0.00265838
-0.000882181
-0.00460003
-0.00832213
-0.0119294
-0.0153752
-0.0186738
-0.0218673
-0.0250161
-0.0281548
-0.0313205
-0.0344984
-0.0376908
-0.0408384
-0.043928
-0.0468728
-0.0496627
-0.0521918
-0.0544625
-0.0563546
-0.0578933
-0.0589527
-0.0595946
-0.0596982
-0.0593716
-0.0585052
-0.0572535
-0.0555175
-0.0534868
-0.0510678
-0.0484681
-0.0455936
-0.0426501
-0.039541
-0.0364479
-0.0332768
-0.0301661
-0.0270471
-0.0240043
-0.021038
-0.0181529
-0.0154317
-0.012665
-0.00992551
-0.00656044
-0.00282109
0.00177866
0.00517308
0.00705401
0.00631718
0.0148041
0.0147927
0.0145761
0.0142121
0.0136071
0.0127756
0.0116008
0.0100199
0.00792337
0.00529544
0.00217046
-0.00131226
-0.00498317
-0.00866578
-0.0122478
-0.0156729
-0.0189586
-0.0221368
-0.0252736
-0.0283952
-0.0315477
-0.034708
-0.0378896
-0.0410227
-0.0441069
-0.0470418
-0.0498319
-0.0523548
-0.0546301
-0.0565181
-0.0580644
-0.0591202
-0.0597709
-0.0598695
-0.0595506
-0.0586762
-0.0574299
-0.055682
-0.0536544
-0.0512209
-0.0486238
-0.0457353
-0.042798
-0.0396803
-0.036603
-0.0334353
-0.0303548
-0.027254
-0.024256
-0.0213223
-0.0185002
-0.0158485
-0.0132203
-0.0106945
-0.00767923
-0.00436678
-0.000134312
0.00317677
0.00523404
0.00456454
0.0142721
0.0142848
0.0140725
0.0137238
0.0131202
0.0123044
0.0111471
0.00960697
0.0075625
0.00500587
0.0019533
-0.0014574
-0.00507302
-0.00871335
-0.0122712
-0.015678
-0.018952
-0.0221133
-0.0252327
-0.0283277
-0.0314543
-0.034581
-0.0377344
-0.0408336
-0.0438932
-0.0467979
-0.0495694
-0.0520666
-0.0543303
-0.0561981
-0.0577405
-0.0587825
-0.0594374
-0.0595283
-0.0592209
-0.0583433
-0.0571134
-0.0553647
-0.0533564
-0.0509232
-0.0483477
-0.0454608
-0.0425488
-0.0394371
-0.0363926
-0.0332392
-0.0302033
-0.0271286
-0.0241881
-0.0212932
-0.0185444
-0.0159598
-0.0134643
-0.0111229
-0.00843117
-0.00552721
-0.00172503
0.00139344
0.00352479
0.00294166
0.0137522
0.0137855
0.013581
0.0132511
0.0126569
0.0118659
0.0107395
0.00925657
0.00728394
0.00482034
0.0018606
-0.00146035
-0.0050087
-0.00859861
-0.0121285
-0.015513
-0.0187716
-0.0219077
-0.0249997
-0.0280524
-0.0311361
-0.0342074
-0.0373115
-0.0403524
-0.0433652
-0.046215
-0.0489467
-0.0513955
-0.053629
-0.0554573
-0.0569823
-0.0579968
-0.0586491
-0.0587257
-0.0584303
-0.0575503
-0.0563444
-0.0546018
-0.0526257
-0.0502034
-0.0476652
-0.0447921
-0.0419218
-0.0388267
-0.0358297
-0.0326985
-0.0297187
-0.0266745
-0.0238009
-0.0209469
-0.0182794
-0.0157583
-0.0133917
-0.0112086
-0.00881183
-0.00628548
-0.00294129
-0.00010084
0.00200875
0.0015067
0.0134035
0.013459
0.013268
0.0129646
0.0123889
0.0116321
0.010547
0.0091331
0.00724668
0.00489238
0.00204238
-0.00117371
-0.00464363
-0.00817696
-0.0116777
-0.0150415
-0.0182877
-0.0214002
-0.0244645
-0.0274706
-0.0305045
-0.0335094
-0.0365517
-0.0395188
-0.0424699
-0.0452478
-0.047925
-0.0503089
-0.0524996
-0.0542748
-0.0557734
-0.0567512
-0.0573977
-0.0574568
-0.0571767
-0.0562972
-0.0551245
-0.0533958
-0.0514656
-0.049065
-0.0465802
-0.0437321
-0.0409195
-0.0378508
-0.0349149
-0.0318116
-0.0288979
-0.0258856
-0.0230859
-0.0202713
-0.0176907
-0.0152279
-0.0129872
-0.0109391
-0.00881054
-0.00662458
-0.00374401
-0.00124265
0.000752418
0.000311157
0.0130427
0.0131148
0.0129398
0.012665
0.0121158
0.0114016
0.0103698
0.00903957
0.00725743
0.00503385
0.00231578
-0.000773044
-0.0041466
-0.00760861
-0.0110719
-0.0144087
-0.0176397
-0.0207235
-0.0237552
-0.0267046
-0.0296783
-0.0326008
-0.0355663
-0.0384397
-0.0413122
-0.0439977
-0.0466043
-0.0489045
-0.0510389
-0.052745
-0.0542075
-0.0551367
-0.0557722
-0.0558068
-0.0555422
-0.0546612
-0.0535272
-0.0518147
-0.0499398
-0.0475658
-0.045146
-0.0423286
-0.0395855
-0.0365472
-0.0336825
-0.0306076
-0.0277665
-0.0247823
-0.0220601
-0.0192785
-0.0167867
-0.014373
-0.0122546
-0.0103181
-0.0084322
-0.00654361
-0.00411572
-0.00198876
-0.000196169
-0.000604664
0.0128729
0.0129624
0.0128078
0.0125682
0.0120535
0.0113895
0.0104184
0.00917933
0.00751054
0.0054295
0.00285813
-8.70865e-05
-0.00334911
-0.00672824
-0.0101484
-0.0134576
-0.0166778
-0.0197384
-0.0227444
-0.0256409
-0.0285569
-0.0313947
-0.0342798
-0.0370516
-0.039838
-0.0424204
-0.0449481
-0.0471539
-0.049225
-0.050853
-0.0522751
-0.0531494
-0.0537733
-0.0537804
-0.0535347
-0.0526526
-0.0515645
-0.0498715
-0.048062
-0.0457196
-0.0433765
-0.0405945
-0.037932
-0.0349264
-0.0321413
-0.0290926
-0.0263286
-0.0233652
-0.0207212
-0.0179621
-0.0155588
-0.0131816
-0.0111814
-0.00933325
-0.00766759
-0.00603181
-0.00403655
-0.00229643
-0.00078551
-0.00119056
0.0126478
0.0127475
0.012614
0.0124101
0.0119372
0.0113316
0.0104328
0.00929828
0.00775934
0.00584216
0.00344137
0.000667852
-0.00245702
-0.00572872
-0.0090898
-0.012359
-0.0155648
-0.018599
-0.0215807
-0.0244217
-0.0272794
-0.0300253
-0.0328248
-0.0354831
-0.0381751
-0.0406403
-0.0430805
-0.0451783
-0.0471792
-0.0487174
-0.0500948
-0.0509048
-0.0515153
-0.0514878
-0.051262
-0.0503741
-0.0493356
-0.0476592
-0.0459212
-0.0436083
-0.041349
-0.0385999
-0.0360248
-0.0330469
-0.0303458
-0.0273144
-0.0246284
-0.0216728
-0.0191054
-0.0163529
-0.0140355
-0.0116775
-0.00979046
-0.00800457
-0.00653743
-0.00510484
-0.00351065
-0.00214311
-0.000975303
-0.00140262
0.0126371
0.0127481
0.0126378
0.0124741
0.0120488
0.0115072
0.0106846
0.00965738
0.00825069
0.00650249
0.00428178
0.00169489
-0.00127518
-0.00442172
-0.00771111
-0.0109339
-0.0141275
-0.0171425
-0.0201126
-0.0229105
-0.0257236
-0.0283868
-0.0311094
-0.033657
-0.0362578
-0.0386038
-0.0409567
-0.0429426
-0.0448735
-0.046318
-0.0476517
-0.0483943
-0.0489941
-0.0489297
-0.0487282
-0.047833
-0.04685
-0.0451894
-0.0435298
-0.0412455
-0.0390773
-0.0363581
-0.0338764
-0.0309196
-0.0283053
-0.0252794
-0.0226704
-0.0197056
-0.0172109
-0.0144451
-0.0122094
-0.00984959
-0.00807062
-0.00631971
-0.00503298
-0.00375415
-0.00252516
-0.0014949
-0.000708124
-0.00117444
0.012509
0.0126227
0.0125346
0.0124101
0.0120387
0.0115696
0.010835
0.00992906
0.00867
0.00711176
0.00509481
0.00272678
-5.62667e-05
-0.00304159
-0.00623222
-0.00938477
-0.0125564
-0.0155456
-0.0185091
-0.0212666
-0.024045
-0.0266286
-0.0292822
-0.0317178
-0.034231
-0.0364523
-0.0387191
-0.0405855
-0.0424471
-0.0437903
-0.0450821
-0.0457498
-0.0463413
-0.0462328
-0.0460587
-0.0451487
-0.0442249
-0.042572
-0.0409951
-0.0387301
-0.0366567
-0.0339563
-0.0315699
-0.0286194
-0.0260916
-0.023052
-0.0205171
-0.0175207
-0.015095
-0.012292
-0.0101354
-0.00774911
-0.00607507
-0.00432781
-0.00320456
-0.0020232
-0.0011125
-0.00035479
4.98385e-05
-0.000458104
0.0126321
0.0127511
0.0126845
0.0126009
0.0122849
0.0118909
0.0112438
0.0104568
0.00933979
0.00796736
0.00615343
0.00401198
0.00143038
-0.00137282
-0.00444522
-0.00751138
-0.0106556
-0.0136209
-0.0165909
-0.0193245
-0.022091
-0.024615
-0.0272215
-0.029561
-0.0320032
-0.0341091
-0.036301
-0.0380525
-0.0398528
-0.0410964
-0.0423528
-0.0429458
-0.0435353
-0.0433814
-0.0432404
-0.042313
-0.041454
-0.0398043
-0.0383151
-0.0360626
-0.034088
-0.0313956
-0.0291061
-0.0261461
-0.0237026
-0.0206283
-0.0181627
-0.0151092
-0.0127474
-0.0098794
-0.00779859
-0.00535726
-0.00378662
-0.00200997
-0.00103969
9.84436e-05
0.000734123
0.00129873
0.00135451
0.000820176
0.0125547
0.0126695
0.0126223
0.0125774
0.0123225
0.0120133
0.0114673
0.010816
0.00985685
0.00869161
0.00710197
0.00521992
0.00287359
0.000297539
-0.00261864
-0.00555829
-0.00865258
-0.0115749
-0.0145519
-0.0172622
-0.0200327
-0.0225069
-0.025087
-0.0273397
-0.0297291
-0.0317244
-0.0338552
-0.0354918
-0.0372415
-0.0383821
-0.039612
-0.0401244
-0.0407195
-0.0405118
-0.0404106
-0.0394549
-0.0386661
-0.0370061
-0.0356085
-0.0333517
-0.0314779
-0.0287728
-0.0265799
-0.0235854
-0.0212244
-0.0180869
-0.015689
-0.0125486
-0.010252
-0.00728958
-0.00529068
-0.00276413
-0.00130489
0.000538918
0.0013601
0.00251975
0.00292924
0.00341099
0.00319719
0.00267514
0.01279
0.0129055
0.0128747
0.0128672
0.0126686
0.0124416
0.0119897
0.0114656
0.0106496
0.00967627
0.00829525
0.00666574
0.00455609
0.00222229
-0.000517692
-0.0033059
-0.00633343
-0.00920135
-0.0121893
-0.0148865
-0.0176841
-0.0201323
-0.0227173
-0.0249096
-0.027276
-0.0291823
-0.0312761
-0.0328124
-0.0345296
-0.0355758
-0.0367929
-0.0372287
-0.0378397
-0.0375785
-0.0375249
-0.0365374
-0.0358244
-0.0341467
-0.0328443
-0.0305714
-0.0287991
-0.0260643
-0.0239659
-0.0209145
-0.0186318
-0.0154036
-0.0130693
-0.00981115
-0.00757853
-0.00448843
-0.00257556
7.19937e-05
0.00141038
0.00336279
0.00402789
0.0052698
0.00548036
0.00598802
0.00560021
0.0051493
0.0127154
0.0128207
0.0128045
0.0128324
0.0126968
0.0125648
0.0122242
0.0118501
0.0111966
0.01044
0.00928636
0.00794002
0.00609519
0.00404986
0.00152737
-0.00105522
-0.00397874
-0.00675209
-0.00973676
-0.0124063
-0.0152422
-0.0176699
-0.0202861
-0.0224318
-0.0248056
-0.0266358
-0.0287205
-0.0301643
-0.0318721
-0.0328254
-0.0340483
-0.034403
-0.0350449
-0.0347202
-0.034726
-0.0336915
-0.0330632
-0.0313475
-0.0301464
-0.0278319
-0.0261651
-0.0233703
-0.0213692
-0.0182269
-0.0160264
-0.0126727
-0.0104109
-0.00700103
-0.00485
-0.00159962
0.000199887
0.00300398
0.00418842
0.00629771
0.00678127
0.0081851
0.00821656
0.00889378
0.00845362
0.00816154
0.0130522
0.0131557
0.0131493
0.0132091
0.0131236
0.0130762
0.0128296
0.0125881
0.0120712
0.0115034
0.010544
0.00945383
0.00785228
0.00609136
0.00379254
0.00143814
-0.00135899
-0.00401132
-0.00698019
-0.00961385
-0.0124983
-0.014919
-0.0175951
-0.0197201
-0.0221373
-0.0239195
-0.0260295
-0.0274042
-0.0291312
-0.030008
-0.0312583
-0.0315414
-0.0322297
-0.0318447
-0.0319201
-0.0308359
-0.0302983
-0.0285364
-0.0274388
-0.0250693
-0.0235072
-0.0206339
-0.0187276
-0.0154717
-0.0133517
-0.00984571
-0.00765845
-0.00406616
-0.0020049
0.00144286
0.00311312
0.00612035
0.00712546
0.00945024
0.00971738
0.0113599