/*--------------------------------*- C++ -*----------------------------------*\
| =========                 |                                                 |
| \\      /  F ield         | OpenFOAM: The Open Source CFD Toolbox           |
|  \\    /   O peration     | Version:  2406                                  |
|   \\  /    A nd           | Website:  www.openfoam.com                      |
|    \\/     M anipulation  |                                                 |
\*---------------------------------------------------------------------------*/
FoamFile
{
    version     2.0;
    format      ascii;
    arch        "LSB;label=32;scalar=64";
    class       volVectorField;
    location    "18.6";
    object      dU;
}
// * * * * * * * * * * * * * * * * * * * * * * * * * * * * * * * * * * * * * //

dimensions      [0 1 -1 0 0 0 0];

internalField   nonuniform List<vector> 
900
(
(2.92827e-06 1.83687e-06 0)
(-6.52209e-06 -1.55878e-06 0)
(-2.37534e-05 -8.15767e-07 0)
(-3.3132e-05 1.016e-06 0)
(-4.22284e-05 4.19786e-06 0)
(-5.02043e-05 8.22613e-06 0)
(-6.13661e-05 1.35057e-05 0)
(-7.9866e-05 1.98218e-05 0)
(-0.000110551 3.07973e-05 0)
(-0.000143236 5.53843e-05 0)
(-0.000146455 8.10342e-05 0)
(-0.000110043 7.54634e-05 0)
(-5.34684e-05 3.80312e-05 0)
(5.13845e-07 -7.7431e-06 0)
(5.70191e-05 -4.70352e-05 0)
(0.000137079 -7.62066e-05 0)
(0.000256656 -9.87308e-05 0)
(0.000399438 -0.000117904 0)
(0.000545543 -0.000136258 0)
(0.000645275 -0.000153252 0)
(0.000663129 -0.000166755 0)
(0.000539995 -0.000173654 0)
(0.000282483 -0.000169795 0)
(-6.8385e-05 -0.000157669 0)
(-0.000344983 -0.000138304 0)
(-0.000413181 -0.000112141 0)
(-0.000269945 -7.89579e-05 0)
(-0.000108448 -3.71805e-05 0)
(-2.83372e-05 -6.29127e-06 0)
(1.72537e-05 3.07975e-06 0)
(8.37204e-07 1.00204e-05 0)
(-6.42098e-06 6.93962e-07 0)
(-1.74675e-05 5.10221e-07 0)
(-2.29054e-05 1.17282e-06 0)
(-2.91901e-05 5.16486e-06 0)
(-3.61175e-05 1.01036e-05 0)
(-4.85242e-05 1.79511e-05 0)
(-6.86939e-05 2.77451e-05 0)
(-9.34901e-05 3.55209e-05 0)
(-0.000127821 2.6601e-05 0)
(-0.000174328 -1.05932e-05 0)
(-0.000197489 -8.09222e-05 0)
(-0.000161656 -0.000175018 0)
(-9.31613e-05 -0.000273264 0)
(-1.52078e-05 -0.000355557 0)
(8.20137e-05 -0.000413491 0)
(0.000211928 -0.000455675 0)
(0.000358991 -0.000489011 0)
(0.000507301 -0.0005215 0)
(0.000611754 -0.000548123 0)
(0.00063945 -0.000562137 0)
(0.000533209 -0.000549132 0)
(0.000294055 -0.000495232 0)
(-4.23867e-05 -0.000411641 0)
(-0.00030529 -0.000307194 0)
(-0.000358921 -0.000229828 0)
(-0.000197622 -0.000169276 0)
(-3.60903e-05 -0.000123255 0)
(1.30703e-05 -8.12628e-05 0)
(2.7204e-05 -7.22421e-05 0)
(-1.67828e-06 2.76957e-05 0)
(-9.16078e-06 1.39025e-05 0)
(-1.94528e-05 1.51786e-05 0)
(-2.54028e-05 1.64731e-05 0)
(-3.21689e-05 2.25091e-05 0)
(-4.27379e-05 2.61853e-05 0)
(-6.35271e-05 2.60615e-05 0)
(-0.000106966 5.70592e-06 0)
(-0.000183738 -5.38052e-05 0)
(-0.000265277 -0.000165412 0)
(-0.000305277 -0.000306687 0)
(-0.000300073 -0.000436779 0)
(-0.000255162 -0.000548309 0)
(-0.000180366 -0.000647642 0)
(-8.12235e-05 -0.000727866 0)
(3.89309e-05 -0.000785615 0)
(0.000182311 -0.00083498 0)
(0.000333387 -0.000882095 0)
(0.00048458 -0.000938476 0)
(0.000600752 -0.000989667 0)
(0.000655852 -0.00102525 0)
(0.000597779 -0.00100799 0)
(0.000407792 -0.000910011 0)
(0.00010421 -0.000726852 0)
(-0.000179478 -0.000473979 0)
(-0.00028908 -0.000268576 0)
(-0.00017122 -0.000135434 0)
(-2.44684e-05 -0.000117284 0)
(2.23854e-05 -0.000121045 0)
(2.68883e-05 -0.000132636 0)
(-5.65021e-06 3.66371e-05 0)
(-1.26946e-05 1.91757e-05 0)
(-2.19927e-05 2.52907e-05 0)
(-3.20396e-05 3.0165e-05 0)
(-4.69558e-05 3.80558e-05 0)
(-7.93103e-05 3.11401e-05 0)
(-0.000142288 -6.5697e-06 0)
(-0.000232381 -0.000105806 0)
(-0.000319161 -0.000265599 0)
(-0.000388313 -0.000441525 0)
(-0.000425675 -0.000594171 0)
(-0.000412113 -0.000715204 0)
(-0.000345657 -0.000803945 0)
(-0.000249166 -0.000865643 0)
(-0.000133714 -0.000910381 0)
(-9.55838e-06 -0.00094528 0)
(0.000127402 -0.000989184 0)
(0.000264184 -0.00104455 0)
(0.000405297 -0.00112697 0)
(0.000527217 -0.00121568 0)
(0.000619575 -0.00130558 0)
(0.000642191 -0.00133986 0)
(0.000563276 -0.00128284 0)
(0.000375375 -0.00108558 0)
(0.000130945 -0.000752604 0)
(-4.00044e-05 -0.000388087 0)
(-5.52592e-05 -0.000135949 0)
(-2.34415e-05 -2.68535e-05 0)
(-2.26723e-06 -0.000100332 0)
(1.6494e-05 -0.000122277 0)
(-1.22236e-05 5.00525e-05 0)
(-2.19605e-05 3.31374e-05 0)
(-3.54751e-05 4.69301e-05 0)
(-5.95341e-05 5.45151e-05 0)
(-9.84766e-05 5.23876e-05 0)
(-0.000172504 6.4094e-06 0)
(-0.000278128 -0.000105692 0)
(-0.000396133 -0.000287437 0)
(-0.000492035 -0.000494901 0)
(-0.000541205 -0.000676138 0)
(-0.0005294 -0.000798771 0)
(-0.00046738 -0.000864457 0)
(-0.000370972 -0.000891497 0)
(-0.000259118 -0.000897153 0)
(-0.000138234 -0.000897266 0)
(-2.14302e-05 -0.000897478 0)
(9.85346e-05 -0.000916514 0)
(0.000208253 -0.000952719 0)
(0.00032357 -0.00102699 0)
(0.000429253 -0.00111906 0)
(0.000535575 -0.00123982 0)
(0.000620234 -0.00133171 0)
(0.000656273 -0.00137211 0)
(0.000621039 -0.00127809 0)
(0.000496548 -0.00102194 0)
(0.000303134 -0.000648533 0)
(0.000177503 -0.000277094 0)
(1.48036e-05 -6.895e-05 0)
(-6.82783e-05 -9.85969e-05 0)
(7.27548e-06 -0.000150247 0)
(-1.90213e-05 4.62844e-05 0)
(-3.19569e-05 3.43262e-05 0)
(-5.49782e-05 5.55939e-05 0)
(-0.000106045 6.0487e-05 0)
(-0.000184663 3.2308e-05 0)
(-0.000308158 -6.97053e-05 0)
(-0.000451752 -0.000248632 0)
(-0.000574167 -0.000469574 0)
(-0.000632312 -0.000659636 0)
(-0.000625363 -0.000775877 0)
(-0.000562378 -0.000824396 0)
(-0.00046444 -0.00082744 0)
(-0.000348011 -0.000805344 0)
(-0.000229903 -0.000773463 0)
(-0.000112446 -0.000744808 0)
(-9.0242e-06 -0.000720541 0)
(9.06703e-05 -0.000716055 0)
(0.000170471 -0.000725572 0)
(0.000253443 -0.000772718 0)
(0.000325461 -0.000839514 0)
(0.000414114 -0.000953285 0)
(0.000512708 -0.00106685 0)
(0.00061498 -0.00118793 0)
(0.000717409 -0.00122566 0)
(0.000743878 -0.00114542 0)
(0.000678456 -0.00091812 0)
(0.000499715 -0.000506591 0)
(0.000150378 -0.000322386 0)
(-7.42739e-05 -4.14875e-05 0)
(-3.06596e-05 -0.000256352 0)
(-2.73719e-05 2.64478e-05 0)
(-4.8175e-05 2.15641e-05 0)
(-8.82281e-05 4.29282e-05 0)
(-0.000174606 3.41991e-05 0)
(-0.00029888 -3.13524e-05 0)
(-0.000468609 -0.000183013 0)
(-0.000626027 -0.000393653 0)
(-0.000716377 -0.000594956 0)
(-0.000714714 -0.000722692 0)
(-0.000647384 -0.00077081 0)
(-0.000539205 -0.000767479 0)
(-0.000418212 -0.000737532 0)
(-0.000293587 -0.000700698 0)
(-0.000176364 -0.000664375 0)
(-6.33467e-05 -0.000633963 0)
(3.07792e-05 -0.000604157 0)
(0.000117754 -0.000586355 0)
(0.000176206 -0.000571318 0)
(0.000232968 -0.000584057 0)
(0.000269045 -0.000607262 0)
(0.00032354 -0.000678866 0)
(0.000394688 -0.000761059 0)
(0.000500015 -0.000892385 0)
(0.000659553 -0.000994351 0)
(0.000793623 -0.00107108 0)
(0.000920642 -0.00101053 0)
(0.000742993 -0.000778761 0)
(0.00045687 -0.000544575 0)
(3.30684e-06 -0.000133738 0)
(-0.000199256 -0.00036475 0)
(-3.46622e-05 -2.11331e-05 0)
(-6.6727e-05 -1.78149e-05 0)
(-0.000130266 -9.09792e-07 0)
(-0.000259137 -2.59274e-05 0)
(-0.000430706 -0.000123467 0)
(-0.000628847 -0.000299561 0)
(-0.000768024 -0.000499691 0)
(-0.000801392 -0.000649437 0)
(-0.000737389 -0.000711819 0)
(-0.000627789 -0.000712513 0)
(-0.000500965 -0.000690473 0)
(-0.000378117 -0.000664474 0)
(-0.000256895 -0.000646233 0)
(-0.000144031 -0.000630837 0)
(-3.19417e-05 -0.000617135 0)
(6.13813e-05 -0.000593793 0)
(0.000148445 -0.000571252 0)
(0.000200764 -0.000537499 0)
(0.00024727 -0.000520572 0)
(0.000260803 -0.000502319 0)
(0.000287156 -0.000526527 0)
(0.000319653 -0.00055967 0)
(0.000393513 -0.000656027 0)
(0.000540594 -0.000753996 0)
(0.000722501 -0.000895137 0)
(0.000957576 -0.000949372 0)
(0.0009412 -0.000939112 0)
(0.000758658 -0.000646534 0)
(9.51309e-05 -0.000442546 0)
(-0.000249228 -0.000253061 0)
(-4.16769e-05 -8.81475e-05 0)
(-8.87542e-05 -7.78547e-05 0)
(-0.000178861 -6.98716e-05 0)
(-0.000346933 -0.000107539 0)
(-0.000554566 -0.000220209 0)
(-0.000759076 -0.000390738 0)
(-0.000860743 -0.000555046 0)
(-0.000836276 -0.000649519 0)
(-0.000728262 -0.00066859 0)
(-0.000601396 -0.000655899 0)
(-0.000476982 -0.000647257 0)
(-0.00036527 -0.000650162 0)
(-0.000251944 -0.000666909 0)
(-0.000141277 -0.000680351 0)
(-2.20338e-05 -0.000686573 0)
(8.15635e-05 -0.000668894 0)
(0.000181903 -0.000640844 0)
(0.000241087 -0.000587392 0)
(0.000289448 -0.000542147 0)
(0.000291439 -0.000485322 0)
(0.000297835 -0.000464998 0)
(0.000294978 -0.000450723 0)
(0.000328986 -0.000498946 0)
(0.000431528 -0.000561827 0)
(0.000599112 -0.000696934 0)
(0.000868661 -0.000803774 0)
(0.00102986 -0.000891238 0)
(0.000920967 -0.000703886 0)
(0.000371567 -0.00046229 0)
(-3.80768e-06 3.39247e-05 0)
(-4.59999e-05 -0.000161452 0)
(-0.000110294 -0.000143667 0)
(-0.000227794 -0.000141279 0)
(-0.000428606 -0.000182619 0)
(-0.000658385 -0.000294743 0)
(-0.000851334 -0.000445096 0)
(-0.000910289 -0.000570949 0)
(-0.000842394 -0.000626308 0)
(-0.000716898 -0.000628596 0)
(-0.000598967 -0.000627066 0)
(-0.000496209 -0.000648655 0)
(-0.000405265 -0.0006888 0)
(-0.000300807 -0.000741584 0)
(-0.000186379 -0.000780295 0)
(-4.90909e-05 -0.000802631 0)
(7.75472e-05 -0.000787204 0)
(0.000204959 -0.000753728 0)
(0.000284456 -0.000682513 0)
(0.000347164 -0.000613975 0)
(0.000349838 -0.000524652 0)
(0.000345589 -0.000466424 0)
(0.000315254 -0.000411912 0)
(0.000312741 -0.000413917 0)
(0.000362992 -0.0004361 0)
(0.000488891 -0.000536863 0)
(0.000759628 -0.00064129 0)
(0.00103131 -0.000765442 0)
(0.00116489 -0.000705392 0)
(0.000799349 -0.000352122 0)
(0.000235654 5.42197e-05 0)
(-4.87256e-05 -0.00022452 0)
(-0.000129287 -0.000199801 0)
(-0.000269598 -0.000200268 0)
(-0.000491557 -0.000236609 0)
(-0.000732041 -0.000336331 0)
(-0.000908128 -0.00045952 0)
(-0.000934005 -0.000553824 0)
(-0.000844298 -0.000587555 0)
(-0.00072361 -0.000591642 0)
(-0.000631463 -0.000611334 0)
(-0.000558682 -0.000664766 0)
(-0.000489708 -0.000736492 0)
(-0.000388683 -0.000816056 0)
(-0.000261832 -0.000870195 0)
(-9.61039e-05 -0.000901986 0)
(6.28864e-05 -0.000885361 0)
(0.000226031 -0.000847924 0)
(0.000333502 -0.000764091 0)
(0.000417296 -0.000680988 0)
(0.000427885 -0.000570151 0)
(0.000418395 -0.000485981 0)
(0.000367617 -0.000403026 0)
(0.000334199 -0.000369284 0)
(0.000334358 -0.00035788 0)
(0.000409185 -0.000421427 0)
(0.000641484 -0.000506624 0)
(0.000959097 -0.000662793 0)
(0.00132042 -0.000717764 0)
(0.00109727 -0.000567181 0)
(0.000378713 -0.000341083 0)
(-4.78915e-05 -0.000264395 0)
(-0.000143113 -0.00023201 0)
(-0.000300819 -0.000230512 0)
(-0.000533745 -0.000257343 0)
(-0.000776578 -0.000341444 0)
(-0.000936768 -0.00044264 0)
(-0.000944513 -0.000518335 0)
(-0.000853646 -0.000545328 0)
(-0.00075577 -0.000559136 0)
(-0.000700599 -0.000598226 0)
(-0.000662265 -0.000674763 0)
(-0.000613784 -0.000764382 0)
(-0.00051042 -0.000856475 0)
(-0.000364185 -0.000913837 0)
(-0.000162985 -0.000947659 0)
(3.42288e-05 -0.00092677 0)
(0.000238285 -0.00088734 0)
(0.000379001 -0.000797678 0)
(0.000489042 -0.000710076 0)
(0.000514067 -0.000591038 0)
(0.000504563 -0.000495146 0)
(0.000439533 -0.000397095 0)
(0.00038002 -0.000341943 0)
(0.000336486 -0.000307235 0)
(0.000359275 -0.000340597 0)
(0.000524038 -0.00040051 0)
(0.000815226 -0.000561457 0)
(0.00125542 -0.000690766 0)
(0.00115298 -0.000788869 0)
(0.000441807 -0.000719087 0)
(-4.53968e-05 -0.000275317 0)
(-0.000150788 -0.000235173 0)
(-0.000319631 -0.00022923 0)
(-0.000555394 -0.000243464 0)
(-0.000798991 -0.000311189 0)
(-0.000951997 -0.000394061 0)
(-0.000956919 -0.000459493 0)
(-0.000878657 -0.000484756 0)
(-0.000809045 -0.000506264 0)
(-0.000791049 -0.000553456 0)
(-0.000782389 -0.00063714 0)
(-0.000748275 -0.000726302 0)
(-0.000635638 -0.000815446 0)
(-0.000465685 -0.00086509 0)
(-0.000226627 -0.000895416 0)
(8.92598e-06 -0.000869951 0)
(0.000252275 -0.000832367 0)
(0.000424811 -0.000746064 0)
(0.000560302 -0.000665512 0)
(0.000601738 -0.000553731 0)
(0.000595036 -0.000462756 0)
(0.000519826 -0.000365323 0)
(0.000437965 -0.000305184 0)
(0.000357285 -0.000258013 0)
(0.000335072 -0.000271612 0)
(0.000428267 -0.000305622 0)
(0.000662894 -0.000451012 0)
(0.00108885 -0.000594332 0)
(0.00105526 -0.000820682 0)
(0.000437722 -0.000848631 0)
(-3.92217e-05 -0.000261894 0)
(-0.00015141 -0.000213796 0)
(-0.000325068 -0.000200216 0)
(-0.000557374 -0.000201407 0)
(-0.000799919 -0.000252937 0)
(-0.000952859 -0.000322032 0)
(-0.000967655 -0.00038173 0)
(-0.000910284 -0.000406752 0)
(-0.000870574 -0.000429747 0)
(-0.000886036 -0.000472125 0)
(-0.000902267 -0.000547483 0)
(-0.000879012 -0.000621018 0)
(-0.000756285 -0.000696043 0)
(-0.000564736 -0.000730758 0)
(-0.000291531 -0.000754098 0)
(-2.13413e-05 -0.000724568 0)
(0.000256621 -0.000691384 0)
(0.000457561 -0.00061513 0)
(0.000616196 -0.000549476 0)
(0.000675463 -0.000456023 0)
(0.000675663 -0.000383065 0)
(0.00059545 -0.000299497 0)
(0.000497335 -0.000249254 0)
(0.000387178 -0.000199744 0)
(0.00032839 -0.000205034 0)
(0.000352303 -0.000215482 0)
(0.000519908 -0.000338301 0)
(0.000880914 -0.000459649 0)
(0.000888307 -0.000731379 0)
(0.00040697 -0.000800307 0)
(-3.23356e-05 -0.000225816 0)
(-0.000145462 -0.000169021 0)
(-0.000319462 -0.000146243 0)
(-0.00054399 -0.000132713 0)
(-0.000786547 -0.000168392 0)
(-0.000948007 -0.000223712 0)
(-0.000980441 -0.000278644 0)
(-0.000946018 -0.000299486 0)
(-0.00092809 -0.000315968 0)
(-0.000966841 -0.000339897 0)
(-0.000998447 -0.000392243 0)
(-0.000982258 -0.000436241 0)
(-0.000849925 -0.000486827 0)
(-0.000641077 -0.000500717 0)
(-0.000339791 -0.000514652 0)
(-4.10324e-05 -0.000483757 0)
(0.000263776 -0.000459225 0)
(0.00048598 -0.000400788 0)
(0.000660888 -0.000357735 0)
(0.000734456 -0.000291948 0)
(0.000742356 -0.000247969 0)
(0.000659425 -0.000189728 0)
(0.000550615 -0.000162156 0)
(0.000417142 -0.000120008 0)
(0.000332889 -0.000129199 0)
(0.000300028 -0.000120545 0)
(0.000409865 -0.000222325 0)
(0.000689894 -0.000301713 0)
(0.000706365 -0.000567969 0)
(0.000364578 -0.000642568 0)
(-2.16284e-05 -0.000184725 0)
(-0.000131929 -0.000119895 0)
(-0.000300187 -8.47831e-05 0)
(-0.000513096 -5.55325e-05 0)
(-0.00075321 -7.13306e-05 0)
(-0.000926109 -0.000110943 0)
(-0.000982059 -0.000157779 0)
(-0.000970374 -0.000172443 0)
(-0.000967553 -0.000177022 0)
(-0.00101798 -0.000174189 0)
(-0.00105733 -0.000194231 0)
(-0.00104752 -0.000200969 0)
(-0.000912531 -0.000222251 0)
(-0.000696844 -0.000213554 0)
(-0.0003801 -0.000218254 0)
(-6.34517e-05 -0.000190056 0)
(0.000257915 -0.000179203 0)
(0.00049421 -0.00014426 0)
(0.000679802 -0.000128016 0)
(0.000764838 -9.2987e-05 0)
(0.000782641 -8.25802e-05 0)
(0.000700644 -5.47279e-05 0)
(0.000588941 -5.68734e-05 0)
(0.000438653 -2.73825e-05 0)
(0.000339988 -4.8612e-05 0)
(0.000260854 -2.46688e-05 0)
(0.000326598 -0.000112481 0)
(0.000527361 -0.0001453 0)
(0.000539286 -0.00038993 0)
(0.000329224 -0.000444407 0)
(-1.21009e-05 -0.000133308 0)
(-0.000112274 -6.00433e-05 0)
(-0.000271095 -1.25357e-05 0)
(-0.000467639 3.51425e-05 0)
(-0.000702348 3.96316e-05 0)
(-0.00089002 2.00115e-05 0)
(-0.000971593 -1.74288e-05 0)
(-0.0009828 -2.23233e-05 0)
(-0.000984352 -1.35685e-05 0)
(-0.0010336 1.89121e-05 0)
(-0.00106935 3.40946e-05 0)
(-0.00106344 6.75699e-05 0)
(-0.000930394 7.93845e-05 0)
(-0.000716646 0.000112947 0)
(-0.000396386 0.000119535 0)
(-7.28488e-05 0.000142664 0)
(0.000253984 0.000135976 0)
(0.000495975 0.00014329 0)
(0.000685901 0.000130115 0)
(0.000777133 0.00013329 0)
(0.000803694 0.000107883 0)
(0.000722563 0.000102841 0)
(0.000613359 6.70212e-05 0)
(0.00045055 8.05145e-05 0)
(0.000348264 4.11968e-05 0)
(0.000233691 7.62259e-05 0)
(0.000272056 -5.46613e-06 0)
(0.000401362 7.02841e-06 0)
(0.000398582 -0.000218046 0)
(0.0003076 -0.000240301 0)
(1.07839e-06 -9.59497e-05 0)
(-8.64993e-05 -1.85307e-05 0)
(-0.000228714 4.33082e-05 0)
(-0.000405587 0.000108941 0)
(-0.000628402 0.000140928 0)
(-0.000826737 0.00014575 0)
(-0.000936476 0.000124993 0)
(-0.00097099 0.000129586 0)
(-0.000975589 0.000149229 0)
(-0.00101323 0.000206402 0)
(-0.00103574 0.000253252 0)
(-0.00102857 0.000323511 0)
(-0.000902293 0.000365972 0)
(-0.000700617 0.0004215 0)
(-0.000393038 0.00043607 0)
(-7.83374e-05 0.000450826 0)
(0.000239516 0.000423832 0)
(0.000476984 0.000404661 0)
(0.000666178 0.000363849 0)
(0.000760226 0.000339296 0)
(0.000796329 0.000280333 0)
(0.00071767 0.000245408 0)
(0.000617767 0.000176901 0)
(0.000446838 0.00017593 0)
(0.000350942 0.000116488 0)
(0.000208249 0.000161405 0)
(0.000234416 7.81624e-05 0)
(0.000299032 0.000135695 0)
(0.000281377 -7.7731e-05 0)
(0.000304401 -5.6219e-05 0)
(8.86689e-06 -5.00286e-05 0)
(-5.84665e-05 2.93046e-05 0)
(-0.000180663 0.000101095 0)
(-0.000330346 0.000186806 0)
(-0.000532086 0.000242911 0)
(-0.000737608 0.000277932 0)
(-0.00087354 0.000273783 0)
(-0.00093873 0.000289764 0)
(-0.000946426 0.000312888 0)
(-0.000968986 0.00038367 0)
(-0.000966868 0.000449369 0)
(-0.000949868 0.000543241 0)
(-0.000828633 0.000606208 0)
(-0.000643897 0.000675593 0)
(-0.00036068 0.000694878 0)
(-6.81583e-05 0.00070271 0)
(0.000229271 0.000662533 0)
(0.000454257 0.000627273 0)
(0.000639514 0.000568368 0)
(0.000733351 0.000523109 0)
(0.000777409 0.000436158 0)
(0.000698984 0.000376446 0)
(0.000611375 0.000280096 0)
(0.000433473 0.000268592 0)
(0.000352408 0.000190513 0)
(0.000186292 0.000244625 0)
(0.000216681 0.000154324 0)
(0.000223466 0.00025389 0)
(0.00019342 3.77695e-05 0)
(0.000326274 0.00010831 0)
(2.03363e-05 -2.9381e-05 0)
(-3.04888e-05 4.06508e-05 0)
(-0.0001238 0.000123143 0)
(-0.000245406 0.000220959 0)
(-0.00041752 0.000308894 0)
(-0.000617414 0.000375185 0)
(-0.000777473 0.00040051 0)
(-0.00087435 0.000430801 0)
(-0.000899523 0.000455555 0)
(-0.000914568 0.00052589 0)
(-0.000891242 0.000593244 0)
(-0.000857574 0.00069426 0)
(-0.000737301 0.000763079 0)
(-0.000568476 0.00083716 0)
(-0.000315984 0.000856051 0)
(-5.54342e-05 0.000861449 0)
(0.000213122 0.000815922 0)
(0.000420157 0.00077647 0)
(0.000599441 0.000705638 0)
(0.000690817 0.000645024 0)
(0.000742146 0.000531873 0)
(0.000662788 0.000453686 0)
(0.000591539 0.000333245 0)
(0.000407895 0.00031732 0)
(0.000348577 0.000221819 0)
(0.000160508 0.000286818 0)
(0.000207682 0.000184153 0)
(0.00015317 0.000327887 0)
(0.000119104 0.000102985 0)
(0.000371678 0.000237976 0)
(1.96749e-05 6.5671e-06 0)
(-6.9745e-06 6.76839e-05 0)
(-7.121e-05 0.000150043 0)
(-0.00015694 0.000263355 0)
(-0.000286152 0.000369359 0)
(-0.00046959 0.000471349 0)
(-0.000639016 0.000519942 0)
(-0.000776808 0.000570088 0)
(-0.000829496 0.000593283 0)
(-0.000856824 0.000655839 0)
(-0.000822848 0.000709034 0)
(-0.000777411 0.000798999 0)
(-0.000656582 0.000857954 0)
(-0.000501524 0.000925197 0)
(-0.000277805 0.000941027 0)
(-4.83897e-05 0.000947876 0)
(0.000193937 0.000906915 0)
(0.000386226 0.000870089 0)
(0.000561952 0.000793359 0)
(0.000649148 0.000720182 0)
(0.000705739 0.000588707 0)
(0.000621424 0.000501153 0)
(0.000567275 0.000369477 0)
(0.000376839 0.000357107 0)
(0.00034518 0.000252639 0)
(0.000135116 0.000329558 0)
(0.000215776 0.000214158 0)
(0.000104238 0.000397418 0)
(8.24677e-05 0.000151973 0)
(0.000457614 0.000360089 0)
(2.88233e-05 1.07782e-05 0)
(1.23145e-05 4.57694e-05 0)
(-1.33261e-05 0.000133265 0)
(-7.07151e-05 0.000239075 0)
(-0.000160175 0.000370482 0)
(-0.000309232 0.000495874 0)
(-0.000476369 0.000583797 0)
(-0.000637003 0.000660507 0)
(-0.000728907 0.000697613 0)
(-0.000783928 0.000757629 0)
(-0.000765297 0.000794733 0)
(-0.000722713 0.00086735 0)
(-0.000608672 0.000908153 0)
(-0.000463307 0.000964902 0)
(-0.000260421 0.000972681 0)
(-5.05527e-05 0.000981373 0)
(0.000174737 0.000937683 0)
(0.000358541 0.000900303 0)
(0.000531608 0.000805167 0)
(0.00061113 0.000720492 0)
(0.000670259 0.000565877 0)
(0.000578197 0.000479816 0)
(0.000542504 0.000336662 0)
(0.000344029 0.000336128 0)
(0.000343277 0.000220623 0)
(0.000107054 0.000311095 0)
(0.000229881 0.000179442 0)
(4.55077e-05 0.00039899 0)
(5.82391e-05 0.000140133 0)
(0.00057748 0.0004573 0)
(1.33833e-05 3.13296e-05 0)
(2.37433e-05 6.37478e-05 0)
(2.67455e-05 0.000135494 0)
(5.73858e-06 0.00025637 0)
(-3.4989e-05 0.00038011 0)
(-0.000149923 0.000528884 0)
(-0.000280617 0.000630133 0)
(-0.000455718 0.000731798 0)
(-0.000570209 0.000777636 0)
(-0.000663995 0.000840756 0)
(-0.000671519 0.000864834 0)
(-0.000647756 0.000920465 0)
(-0.000549722 0.000940393 0)
(-0.000418624 0.000980707 0)
(-0.000233842 0.000974356 0)
(-4.02432e-05 0.000974411 0)
(0.000172745 0.000920361 0)
(0.000344853 0.000872206 0)
(0.000511836 0.000760891 0)
(0.000574107 0.000667527 0)
(0.000632098 0.000510635 0)
(0.000528635 0.000435694 0)
(0.000511957 0.000305581 0)
(0.000306744 0.000319831 0)
(0.000339632 0.000212599 0)
(7.90702e-05 0.000314637 0)
(0.000256825 0.000177276 0)
(1.26587e-05 0.000421052 0)
(0.000115196 0.000155381 0)
(0.000774785 0.000615753 0)
(3.33576e-05 3.78352e-05 0)
(4.02718e-05 2.25544e-05 0)
(8.28934e-05 0.000105125 0)
(8.16322e-05 0.000186267 0)
(5.79406e-05 0.000325275 0)
(-2.19098e-05 0.000459174 0)
(-0.000131302 0.000582908 0)
(-0.000284393 0.000697214 0)
(-0.000408733 0.000763663 0)
(-0.000516603 0.000837594 0)
(-0.000550633 0.000861524 0)
(-0.000544205 0.000909466 0)
(-0.000467439 0.000911218 0)
(-0.000349973 0.000937261 0)
(-0.000183372 0.000908719 0)
(-3.41887e-06 0.000899099 0)
(0.000194715 0.000820767 0)
(0.000351782 0.000768004 0)
(0.000505556 0.000631211 0)
(0.000549161 0.0005503 0)
(0.00060433 0.000383374 0)
(0.000493638 0.000341614 0)
(0.000497471 0.000205301 0)
(0.000284936 0.000249243 0)
(0.000352972 0.000129801 0)
(5.90065e-05 0.000248845 0)
(0.000293775 0.000101665 0)
(-2.97613e-05 0.000349306 0)
(0.000231038 0.00013399 0)
(0.0010447 0.000865229 0)
(-1.7776e-05 4.10654e-06 0)
(3.29734e-05 4.56579e-05 0)
(9.87463e-05 9.33601e-05 0)
(0.000125239 0.00022443 0)
(0.000149841 0.000326898 0)
(7.63875e-05 0.000462988 0)
(1.6431e-05 0.000557903 0)
(-0.000129518 0.000664739 0)
(-0.000236203 0.00071671 0)
(-0.000355492 0.00078529 0)
(-0.000402623 0.000796904 0)
(-0.000414265 0.000834942 0)
(-0.000355838 0.0008181 0)
(-0.000258745 0.000830396 0)
(-0.000110603 0.000781512 0)
(4.34197e-05 0.000761256 0)
(0.000223753 0.000668302 0)
(0.000349271 0.000613158 0)
(0.000488075 0.000478746 0)
(0.000501681 0.000411781 0)
(0.000558324 0.000273219 0)
(0.000436892 0.00025022 0)
(0.000463611 0.000150046 0)
(0.000249315 0.000200514 0)
(0.00034769 0.000117679 0)
(4.33062e-05 0.000239745 0)
(0.000323906 0.000133514 0)
(-8.25116e-06 0.00037667 0)
(0.000611571 0.000331298 0)
(0.00152037 0.00145773 0)
(6.91711e-05 0.000107847 0)
(8.85067e-05 -5.90756e-06 0)
(0.000179248 8.8269e-05 0)
(0.00021503 0.000108813 0)
(0.00019259 0.000241695 0)
(0.000132527 0.000335008 0)
(5.02355e-05 0.000435909 0)
(-6.77146e-05 0.000524112 0)
(-0.000170711 0.000573853 0)
(-0.000272257 0.000634009 0)
(-0.00032036 0.000640176 0)
(-0.000332424 0.0006712 0)
(-0.000282902 0.00064279 0)
(-0.000196898 0.00064889 0)
(-6.41968e-05 0.000585301 0)
(7.22094e-05 0.000568092 0)
(0.000232691 0.000463573 0)
(0.00034045 0.000430497 0)
(0.000462675 0.000291034 0)
(0.000470743 0.000270292 0)
(0.000529168 0.000122981 0)
(0.000420659 0.000157068 0)
(0.000470238 2.37737e-05 0)
(0.000263885 0.000128843 0)
(0.000401718 2.69916e-06 0)
(8.1422e-05 0.00016634 0)
(0.000416615 6.99134e-05 0)
(0.000123498 0.000322711 0)
(0.00130779 0.000654664 0)
(0.00220376 0.00282328 0)
(-0.00013148 -0.000220341 0)
(-1.20332e-05 1.3375e-05 0)
(0.000145709 4.32812e-05 0)
(0.000188581 0.000238705 0)
(0.000272667 0.000305813 0)
(0.00017244 0.000388728 0)
(0.000131445 0.000425612 0)
(-1.46989e-05 0.000477894 0)
(-0.000102077 0.000486713 0)
(-0.000216714 0.000520588 0)
(-0.000263415 0.000503776 0)
(-0.000288129 0.000521487 0)
(-0.000244475 0.000478183 0)
(-0.000176619 0.000481239 0)
(-5.24804e-05 0.000408431 0)
(5.78747e-05 0.000397806 0)
(0.000211636 0.000294733 0)
(0.000288204 0.000276983 0)
(0.000414706 0.000156321 0)
(0.000395836 0.000150084 0)
(0.000478815 4.06994e-05 0)
(0.000354178 6.80396e-05 0)
(0.000439021 -3.19203e-06 0)
(0.00023299 6.6902e-05 0)
(0.000394768 5.12287e-05 0)
(0.000129772 0.00019441 0)
(0.000487473 0.000344915 0)
(0.000524546 0.00081107 0)
(0.00309122 0.00247647 0)
(0.00373067 0.00614574 0)
(0.00029198 0.000344075 0)
(0.000321587 -0.00015177 0)
(0.000339453 -3.07724e-05 0)
(0.000390725 -3.39611e-05 0)
(0.000244209 0.000128316 0)
(0.000150152 0.000202371 0)
(4.41656e-05 0.000263484 0)
(-7.83073e-05 0.000309411 0)
(-0.000170096 0.000317545 0)
(-0.000265702 0.000342323 0)
(-0.000303157 0.000319232 0)
(-0.000321716 0.000330072 0)
(-0.000274008 0.000283497 0)
(-0.000209791 0.000284947 0)
(-8.99138e-05 0.000216272 0)
(1.40286e-05 0.000214974 0)
(0.000158184 0.000125178 0)
(0.00023759 0.000134201 0)
(0.000355488 2.87456e-05 0)
(0.000362185 6.81371e-05 0)
(0.000441825 -4.69178e-05 0)
(0.000367502 4.1895e-05 0)
(0.00045918 -8.60366e-05 0)
(0.000316512 6.68504e-05 0)
(0.000537569 -6.28573e-05 0)
(0.000401781 0.000220247 0)
(0.00106273 0.00040383 0)
(0.00220796 0.00165089 0)
(0.00673132 0.00477609 0)
(0.00600846 0.0115001 0)
(-0.000650179 -0.0020905 0)
(-0.000421754 0.000189803 0)
(0.000209338 0.000336101 0)
(0.000288156 0.000277531 0)
(0.000436692 0.000307834 0)
(0.000222742 0.000304463 0)
(0.000146984 0.000274635 0)
(-5.74273e-05 0.000273382 0)
(-0.000158494 0.00024884 0)
(-0.000298249 0.000246155 0)
(-0.000348475 0.000218654 0)
(-0.00039009 0.000216656 0)
(-0.000349899 0.000181611 0)
(-0.000302342 0.000181944 0)
(-0.000180175 0.000135633 0)
(-9.36466e-05 0.000141061 0)
(6.82769e-05 8.17835e-05 0)
(0.000125199 9.67182e-05 0)
(0.000281992 2.757e-05 0)
(0.000254058 5.66816e-05 0)
(0.00039368 -1.21068e-05 0)
(0.00026422 3.46342e-05 0)
(0.000428049 1.98809e-06 0)
(0.000234286 9.19257e-05 0)
(0.000544809 0.000306428 0)
(0.000602382 0.000767654 0)
(0.00191072 0.00253393 0)
(0.00462338 0.00604883 0)
(0.0125931 0.0148097 0)
(0.0103216 0.0266835 0)
(0.00258466 -0.00277482 0)
(0.00279343 0.000487419 0)
(0.000438044 0.000426973 0)
(0.00034886 0.000674862 0)
(0.000247621 0.000478219 0)
(6.65971e-05 0.000479033 0)
(-6.29745e-05 0.000332507 0)
(-0.000210316 0.000300919 0)
(-0.000324338 0.000232001 0)
(-0.000443883 0.000205283 0)
(-0.00048973 0.000173929 0)
(-0.000528234 0.000159643 0)
(-0.000477395 0.000142692 0)
(-0.000431964 0.000137402 0)
(-0.000299403 0.000124701 0)
(-0.000212566 0.000121099 0)
(-4.58518e-05 0.000111734 0)
(2.25205e-05 9.98688e-05 0)
(0.000172438 0.000103538 0)
(0.000180929 7.03958e-05 0)
(0.000301797 0.000112319 0)
(0.00026991 4.5022e-05 0)
(0.000435901 0.000183341 0)
(0.000548574 9.74424e-05 0)
(0.00116894 0.000535495 0)
(0.00260726 0.000735114 0)
(0.00631781 0.00252624 0)
(0.0140451 0.0051069 0)
(0.0270761 0.0120397 0)
(0.01825 0.0192382 0)
)
;

boundaryField
{
    movingWall
    {
        type            fixedValue;
        value           uniform (1 0 0);
    }
    fixedWalls
    {
        type            noSlip;
    }
    frontAndBack
    {
        type            empty;
    }
}


// ************************************************************************* //
