/*--------------------------------*- C++ -*----------------------------------*\
| =========                 |                                                 |
| \\      /  F ield         | OpenFOAM: The Open Source CFD Toolbox           |
|  \\    /   O peration     | Version:  2406                                  |
|   \\  /    A nd           | Website:  www.openfoam.com                      |
|    \\/     M anipulation  |                                                 |
\*---------------------------------------------------------------------------*/
FoamFile
{
    version     2.0;
    format      ascii;
    arch        "LSB;label=32;scalar=64";
    class       volScalarField;
    location    "17.8";
    object      p;
}
// * * * * * * * * * * * * * * * * * * * * * * * * * * * * * * * * * * * * * //

dimensions      [0 2 -2 0 0 0 0];

internalField   nonuniform List<scalar> 
3600
(
0.0254018
0.0253958
0.0253841
0.0253665
0.0253471
0.0253237
0.0252986
0.0252696
0.0252382
0.025203
0.0251655
0.025125
0.0250828
0.0250392
0.0249955
0.0249523
0.0249109
0.0248722
0.0248375
0.0248074
0.0247829
0.0247642
0.0247514
0.0247439
0.0247404
0.0247388
0.0247362
0.0247282
0.0247098
0.0246747
0.0246164
0.0245279
0.0244028
0.0242363
0.0240254
0.0237701
0.0234737
0.0231425
0.0227861
0.0224159
0.0220443
0.0216837
0.0213445
0.0210355
0.020762
0.020527
0.0203303
0.0201705
0.0200434
0.0199458
0.019872
0.0198191
0.0197811
0.0197574
0.0197418
0.0197375
0.0197367
0.0197475
0.0197559
0.019772
0.0254074
0.0254009
0.0253914
0.0253756
0.0253583
0.025336
0.0253119
0.0252833
0.0252523
0.0252175
0.0251803
0.0251402
0.0250985
0.0250555
0.0250124
0.0249698
0.024929
0.0248907
0.0248561
0.0248258
0.0248003
0.0247798
0.0247642
0.0247527
0.024744
0.0247361
0.024726
0.0247097
0.0246824
0.0246382
0.0245708
0.0244737
0.0243411
0.0241682
0.0239527
0.0236948
0.023398
0.023069
0.0227174
0.0223546
0.0219929
0.021644
0.0213178
0.0210222
0.0207616
0.0205383
0.0203515
0.0201993
0.0200776
0.0199833
0.0199109
0.0198581
0.019819
0.0197938
0.0197755
0.0197684
0.0197629
0.0197694
0.0197717
0.019788
0.0254204
0.0254101
0.0254008
0.0253841
0.0253676
0.0253453
0.0253217
0.0252931
0.0252622
0.025227
0.0251894
0.0251486
0.0251062
0.0250622
0.025018
0.0249743
0.0249322
0.0248927
0.0248568
0.0248252
0.0247985
0.0247769
0.0247602
0.0247478
0.0247386
0.0247305
0.0247205
0.0247049
0.0246786
0.0246356
0.0245694
0.024473
0.0243402
0.0241658
0.023947
0.0236839
0.02338
0.0230425
0.0226815
0.0223095
0.0219396
0.0215847
0.0212552
0.0209594
0.0207016
0.0204837
0.0203039
0.0201597
0.0200462
0.0199596
0.019894
0.019847
0.0198123
0.0197906
0.0197743
0.0197689
0.0197635
0.0197715
0.0197733
0.0197958
0.0254388
0.0254238
0.0254152
0.0253979
0.0253829
0.025361
0.0253384
0.0253099
0.0252791
0.0252435
0.0252054
0.0251637
0.0251202
0.0250747
0.0250289
0.0249832
0.024939
0.024897
0.0248584
0.0248237
0.0247935
0.024768
0.0247472
0.0247303
0.0247164
0.0247036
0.0246891
0.0246693
0.0246392
0.0245931
0.0245243
0.0244256
0.0242905
0.0241135
0.0238913
0.0236238
0.0233143
0.0229701
0.0226019
0.0222227
0.0218468
0.0214879
0.0211576
0.0208643
0.0206126
0.0204036
0.020235
0.0201032
0.0200021
0.0199273
0.019872
0.0198338
0.0198058
0.0197892
0.0197759
0.0197726
0.019767
0.0197755
0.0197758
0.0198025
0.025459
0.0254381
0.0254297
0.0254106
0.0253965
0.0253743
0.0253522
0.0253234
0.0252924
0.0252558
0.0252165
0.0251729
0.0251272
0.0250789
0.0250298
0.0249802
0.0249316
0.0248847
0.0248405
0.0247997
0.0247627
0.0247298
0.024701
0.0246758
0.0246534
0.0246323
0.0246101
0.0245837
0.0245486
0.0244994
0.0244295
0.0243319
0.0241996
0.0240265
0.0238085
0.0235443
0.0232362
0.0228908
0.0225184
0.0221325
0.021748
0.0213803
0.0210423
0.020744
0.0204909
0.0202847
0.0201228
0.0200008
0.0199115
0.0198495
0.0198069
0.0197805
0.0197627
0.0197549
0.0197483
0.0197503
0.019748
0.0197598
0.0197612
0.0197918
0.0254791
0.0254522
0.0254444
0.0254237
0.0254109
0.0253885
0.0253672
0.0253379
0.0253066
0.0252688
0.0252279
0.025182
0.0251333
0.0250811
0.0250271
0.0249715
0.0249156
0.0248598
0.0248049
0.0247511
0.0246989
0.024648
0.0245985
0.0245501
0.0245025
0.024455
0.0244066
0.0243555
0.0242989
0.0242332
0.0241532
0.0240528
0.0239255
0.0237646
0.0235647
0.0233225
0.0230381
0.0227152
0.0223621
0.0219908
0.0216158
0.0212528
0.0209164
0.0206183
0.0203658
0.0201623
0.0200057
0.0198919
0.0198131
0.019763
0.0197326
0.0197181
0.0197111
0.0197126
0.0197133
0.0197212
0.0197224
0.0197368
0.019739
0.0197709
0.0254948
0.0254618
0.0254545
0.025432
0.0254202
0.0253973
0.0253763
0.0253462
0.0253142
0.0252746
0.0252315
0.0251822
0.025129
0.0250708
0.0250092
0.0249436
0.0248749
0.0248028
0.0247274
0.0246479
0.024564
0.0244749
0.0243807
0.0242814
0.024178
0.0240718
0.0239647
0.0238583
0.0237535
0.0236502
0.0235464
0.0234383
0.0233205
0.0231862
0.0230282
0.02284
0.0226172
0.0223587
0.0220674
0.0217507
0.02142
0.0210896
0.0207744
0.0204884
0.0202418
0.0200411
0.0198868
0.0197766
0.0197035
0.0196613
0.0196403
0.019636
0.0196389
0.0196497
0.0196585
0.0196729
0.019679
0.0196968
0.0197008
0.0197328
0.0255038
0.0254646
0.0254582
0.0254342
0.0254237
0.0254002
0.0253797
0.0253487
0.0253157
0.025274
0.0252279
0.025174
0.0251145
0.0250472
0.0249733
0.0248909
0.0247996
0.0246974
0.0245825
0.0244524
0.0243051
0.0241391
0.0239544
0.0237528
0.0235383
0.0233167
0.0230954
0.0228822
0.0226843
0.0225073
0.0223543
0.0222253
0.0221172
0.0220237
0.0219361
0.0218443
0.021738
0.0216083
0.0214495
0.0212599
0.0210429
0.020807
0.0205643
0.0203289
0.0201142
0.0199311
0.0197855
0.0196797
0.0196096
0.019571
0.0195549
0.0195566
0.0195663
0.0195839
0.0195988
0.0196184
0.0196285
0.0196483
0.0196536
0.0196842
0.0255013
0.0254559
0.0254505
0.0254249
0.0254157
0.0253915
0.0253711
0.0253389
0.0253044
0.0252597
0.0252094
0.0251486
0.0250793
0.0249976
0.0249032
0.0247918
0.0246605
0.0245037
0.0243165
0.0240933
0.0238302
0.0235254
0.023181
0.022803
0.0224019
0.0219914
0.0215874
0.0212061
0.0208627
0.0205698
0.0203366
0.0201678
0.0200635
0.020019
0.0200254
0.0200699
0.0201367
0.0202086
0.0202688
0.0203026
0.0202996
0.0202555
0.0201729
0.020061
0.0199331
0.0198048
0.0196893
0.0195972
0.0195317
0.019494
0.0194781
0.0194809
0.0194929
0.0195135
0.019532
0.0195546
0.0195676
0.0195886
0.0195949
0.0196232
0.0254839
0.0254324
0.0254283
0.0254013
0.0253934
0.0253685
0.0253482
0.0253143
0.0252779
0.0252289
0.0251722
0.0251012
0.0250162
0.024911
0.0247819
0.0246207
0.0244195
0.0241675
0.023855
0.0234732
0.0230176
0.0224892
0.0218961
0.0212534
0.020582
0.0199065
0.0192532
0.0186473
0.0181118
0.0176652
0.0173217
0.0170901
0.016974
0.0169716
0.0170758
0.0172741
0.0175488
0.0178775
0.0182339
0.01859
0.0189178
0.0191937
0.0194008
0.0195326
0.0195936
0.0195983
0.0195663
0.0195192
0.0194733
0.0194407
0.0194233
0.0194228
0.0194317
0.0194504
0.0194682
0.0194904
0.0195036
0.0195236
0.0195299
0.0195551
0.0254462
0.0253888
0.025386
0.0253576
0.0253508
0.025325
0.0253042
0.025268
0.0252282
0.0251729
0.0251061
0.0250187
0.0249083
0.0247643
0.0245778
0.0243335
0.0240165
0.0236091
0.0230975
0.0224718
0.0217317
0.0208869
0.019958
0.0189738
0.0179691
0.0169804
0.0160431
0.0151889
0.0144445
0.013831
0.0133639
0.0130536
0.0129059
0.012922
0.0130985
0.0134272
0.0138942
0.014479
0.0151537
0.0158834
0.0166266
0.0173389
0.0179773
0.0185069
0.0189069
0.0191755
0.0193286
0.0193957
0.0194095
0.0194007
0.0193873
0.0193822
0.0193838
0.0193957
0.0194078
0.0194256
0.0194359
0.019453
0.0194579
0.0194799
0.0253838
0.0253205
0.0253193
0.0252895
0.0252837
0.0252566
0.0252347
0.0251951
0.0251499
0.0250848
0.0250021
0.0248886
0.0247374
0.0245308
0.0242517
0.0238754
0.0233784
0.0227374
0.0219378
0.0209759
0.0198636
0.0186275
0.0173066
0.0159467
0.0145961
0.0132999
0.0120977
0.0110214
0.0100955
0.00933792
0.00876107
0.00837323
0.00817975
0.00818359
0.00838563
0.00878411
0.00937357
0.010143
0.0110735
0.0121359
0.0132887
0.0144775
0.0156382
0.016703
0.0176112
0.0183213
0.0188208
0.0191291
0.019288
0.0193515
0.0193639
0.0193605
0.0193535
0.0193542
0.0193557
0.0193646
0.019368
0.0193795
0.0193814
0.0194
0.0252907
0.0252218
0.025222
0.0251906
0.0251852
0.0251559
0.0251316
0.0250865
0.0250325
0.0249519
0.0248441
0.0246896
0.0244745
0.0241709
0.0237508
0.0231787
0.0224244
0.0214638
0.0202908
0.018918
0.0173797
0.0157261
0.0140168
0.0123126
0.0106692
0.00913274
0.00773869
0.00651199
0.0054691
0.00462
0.00397064
0.00352462
0.00328482
0.00325414
0.00343609
0.00383445
0.00445265
0.00529188
0.0063486
0.00761057
0.00905232
0.0106304
0.0122801
0.0139165
0.015442
0.0167618
0.0178045
0.0185424
0.0189972
0.0192328
0.0193248
0.0193456
0.0193358
0.0193238
0.0193105
0.0193059
0.0192986
0.0193018
0.0192988
0.0193141
0.0251619
0.0250877
0.025089
0.0250557
0.0250499
0.0250174
0.0249888
0.0249352
0.0248674
0.0247631
0.0246167
0.0244002
0.0240891
0.0236428
0.023021
0.0221797
0.0210881
0.0197322
0.0181265
0.0163115
0.0143505
0.0123179
0.010289
0.00833055
0.00649546
0.00482122
0.00333179
0.00204
0.000951461
6.72209e-05
-0.000613439
-0.00109154
-0.00136695
-0.00143786
-0.00130017
-0.000947539
-0.000371417
0.000438023
0.00149036
0.00279181
0.00434051
0.00611965
0.00808937
0.0101792
0.0122849
0.0142756
0.0160138
0.0173893
0.0183522
0.0189311
0.0192131
0.0193135
0.0193215
0.0193013
0.0192707
0.0192489
0.0192269
0.0192191
0.0192092
0.0192213
0.0249912
0.024912
0.024914
0.024878
0.0248704
0.0248327
0.0247967
0.0247298
0.0246408
0.0245011
0.0242975
0.0239907
0.0235431
0.0228997
0.0220103
0.020829
0.0193359
0.0175408
0.0154909
0.0132608
0.0109416
0.00862392
0.0063871
0.00429073
0.0023746
0.000660448
-0.00084283
-0.00213499
-0.00321986
-0.00410291
-0.00478889
-0.00528121
-0.00558099
-0.00568717
-0.00559601
-0.0053012
-0.00479341
-0.00406038
-0.00308694
-0.00185625
-0.000352327
0.00143471
0.00350019
0.00581302
0.00830219
0.0108476
0.0132828
0.0154215
0.0171043
0.0182575
0.0189161
0.0192103
0.0192877
0.0192761
0.0192305
0.0191892
0.0191489
0.0191274
0.0191088
0.0191173
0.0247737
0.0246898
0.024692
0.0246523
0.0246411
0.0245956
0.0245483
0.0244622
0.0243423
0.0241519
0.0238678
0.0234365
0.0228056
0.0219077
0.0206889
0.0191133
0.0171861
0.0149533
0.0125008
0.00993442
0.00736276
0.00487821
0.00254939
0.000418207
-0.00149497
-0.00318594
-0.00465927
-0.0059239
-0.00698893
-0.00786223
-0.00854906
-0.00905232
-0.00937239
-0.00950779
-0.00945498
-0.00920867
-0.00876124
-0.00810242
-0.00721836
-0.00609119
-0.00469902
-0.00301779
-0.0010261
0.00128522
0.00389718
0.00674306
0.00968909
0.012533
0.0150316
0.0169721
0.0182526
0.0189353
0.0191913
0.019231
0.0191819
0.0191214
0.0190602
0.0190224
0.0189931
0.0189973
0.0245038
0.0244157
0.0244168
0.0243721
0.0243546
0.0242977
0.0242336
0.0241201
0.0239568
0.023697
0.0233046
0.0227106
0.0218487
0.0206447
0.0190518
0.0170578
0.0147055
0.0120833
0.00931229
0.00651778
0.0038095
0.00126624
-0.00106485
-0.00316474
-0.00503264
-0.00667861
-0.00811592
-0.00935756
-0.0104133
-0.0112894
-0.0119888
-0.0125115
-0.0128556
-0.0130181
-0.0129949
-0.0127819
-0.0123736
-0.0117636
-0.0109426
-0.0098977
-0.00861063
-0.00705664
-0.00520534
-0.00302444
-0.000490945
0.00239088
0.00555943
0.00886935
0.0120764
0.0148764
0.0169954
0.018321
0.0189491
0.0191328
0.019111
0.0190379
0.0189544
0.0188974
0.0188555
0.0188536
0.0241779
0.024086
0.0240849
0.0240334
0.0240066
0.0239341
0.0238469
0.0236967
0.023476
0.0231257
0.0225954
0.0218008
0.0206657
0.0191183
0.0171316
0.0147296
0.0119998
0.00906974
0.00608394
0.00316993
0.000422713
-0.00210338
-0.00438696
-0.00643082
-0.00824931
-0.00986112
-0.0112826
-0.0125261
-0.0135982
-0.0145011
-0.0152331
-0.0157901
-0.0161669
-0.0163581
-0.0163589
-0.0161653
-0.0157742
-0.0151828
-0.0143874
-0.0133822
-0.0121568
-0.0106941
-0.00896778
-0.00694168
-0.00457387
-0.00182571
0.00131126
0.00478313
0.00842426
0.0119447
0.0149646
0.0171591
0.018418
0.0189232
0.0189955
0.0189287
0.0188248
0.0187454
0.0186889
0.0186781
0.023792
0.0236969
0.0236919
0.0236314
0.0235913
0.0234982
0.0233803
0.0231826
0.0228886
0.0224257
0.0217288
0.0207006
0.0192623
0.0173552
0.0149843
0.0122173
0.00918495
0.00604313
0.00294277
-2.43445e-06
-0.00272326
-0.00519386
-0.00741691
-0.00941188
-0.0112021
-0.0128092
-0.0142478
-0.0155263
-0.0166456
-0.0176023
-0.0183891
-0.0189973
-0.0194177
-0.0196425
-0.0196652
-0.0194819
-0.019091
-0.0184926
-0.0176883
-0.016679
-0.0154636
-0.0140352
-0.0123789
-0.0104665
-0.00825712
-0.00569579
-0.00273162
0.000661796
0.00442612
0.00837382
0.0121438
0.0152799
0.0174109
0.0184921
0.0187995
0.0187774
0.0186639
0.0185582
0.0184845
0.0184606
0.0233452
0.0232476
0.023237
0.0231653
0.0231081
0.0229891
0.0228328
0.0225768
0.0221941
0.0215982
0.0207104
0.0194253
0.0176699
0.0154097
0.0126897
0.00962237
0.00637286
0.00311008
-2.47815e-05
-0.0029434
-0.00560673
-0.00801566
-0.0101915
-0.0121641
-0.01396
-0.0155989
-0.0170908
-0.0184376
-0.0196338
-0.0206693
-0.0215312
-0.0222059
-0.0226806
-0.0229447
-0.0229902
-0.0228127
-0.0224114
-0.0217887
-0.0209498
-0.0199017
-0.0186511
-0.0172018
-0.0155517
-0.0136864
-0.0115776
-0.00917411
-0.00641244
-0.00321882
0.000436749
0.00449751
0.00871788
0.0126574
0.0157658
0.017675
0.0184597
0.0185588
0.0184606
0.0183278
0.0182331
0.0181909
0.0228367
0.0227374
0.0227192
0.0226337
0.0225549
0.0224043
0.0222017
0.0218767
0.0213911
0.0206452
0.0195492
0.0179963
0.0159281
0.0133421
0.0103265
0.00703311
0.00364826
0.000338355
-0.00277723
-0.00564087
-0.00824252
-0.0106046
-0.0127608
-0.0147452
-0.0165831
-0.0182893
-0.0198671
-0.0213109
-0.0226082
-0.0237424
-0.0246953
-0.0254487
-0.0259864
-0.0262952
-0.0263657
-0.0261928
-0.025776
-0.0251193
-0.0242307
-0.0231211
-0.0218038
-0.0202911
-0.0185928
-0.0167087
-0.0146282
-0.0123146
-0.0097134
-0.00673567
-0.00330181
0.000640346
0.00499186
0.00944501
0.0134284
0.0163211
0.0178431
0.0182487
0.0181903
0.0180472
0.0179233
0.0178573
0.0222697
0.0221697
0.022142
0.0220406
0.0219363
0.0217493
0.0214934
0.0210906
0.0204914
0.0195843
0.0182727
0.0164546
0.0140936
0.011224
0.00797478
0.00452688
0.00107428
-0.00223169
-0.00530006
-0.00810392
-0.0106577
-0.0129991
-0.0151682
-0.017199
-0.0191122
-0.0209159
-0.0226055
-0.0241681
-0.025584
-0.026831
-0.0278855
-0.0287258
-0.0293326
-0.0296903
-0.0297882
-0.0296206
-0.029187
-0.0284923
-0.0275466
-0.0263637
-0.0249616
-0.0233585
-0.0215742
-0.0196203
-0.0175037
-0.0152057
-0.0126925
-0.00988221
-0.00668287
-0.0029753
0.00126552
0.00590906
0.0105045
0.0143497
0.0167979
0.0177858
0.0178306
0.0176991
0.0175459
0.0174461
0.0216474
0.0215476
0.0215086
0.0213891
0.0212555
0.0210275
0.0207125
0.0202253
0.0195054
0.0184326
0.0169074
0.014839
0.0122177
0.00911481
0.00569362
0.00215306
-0.00131754
-0.00458975
-0.0076027
-0.0103567
-0.012885
-0.0152345
-0.0174474
-0.0195541
-0.021569
-0.0234924
-0.0253118
-0.0270071
-0.0285524
-0.02992
-0.0310825
-0.0320145
-0.032694
-0.0331037
-0.0332311
-0.0330699
-0.0326199
-0.0318867
-0.0308818
-0.0296212
-0.0281265
-0.0264199
-0.0245283
-0.022472
-0.0202726
-0.0179284
-0.0154297
-0.0127132
-0.00970063
-0.00624617
-0.00224858
0.00232558
0.00721325
0.0117969
0.0152411
0.0170183
0.0173862
0.0172423
0.0170964
0.0169388
0.0209777
0.0208796
0.0208279
0.020689
0.0205233
0.0202516
0.0198739
0.0192991
0.018457
0.0172213
0.0154942
0.0132003
0.0103584
0.00707389
0.0035358
-4.97868e-05
-0.00350682
-0.00673323
-0.0096963
-0.0124186
-0.0149462
-0.0173311
-0.0196137
-0.0218192
-0.0239544
-0.0260119
-0.0279718
-0.0298072
-0.0314869
-0.0329791
-0.0342525
-0.0352788
-0.0360335
-0.0364971
-0.0366558
-0.0365024
-0.0360369
-0.0352655
-0.0342015
-0.0328628
-0.0312741
-0.02946
-0.027453
-0.0252782
-0.022969
-0.0205358
-0.0179928
-0.0152982
-0.0124012
-0.00915864
-0.00544036
-0.00109434
0.00379917
0.00882619
0.0131517
0.0158268
0.0168135
0.0166554
0.0165549
0.0163203
0.0202677
0.0201726
0.0201071
0.0199479
0.0197481
0.0194307
0.0189888
0.0183264
0.017365
0.0159758
0.0140659
0.0115777
0.00855752
0.00513937
0.00152949
-0.00206764
-0.00549428
-0.00867461
-0.0116002
-0.0143106
-0.0168601
-0.019302
-0.0216729
-0.0239918
-0.0262579
-0.0284562
-0.0305602
-0.0325375
-0.0343526
-0.0359699
-0.0373551
-0.0384771
-0.0393085
-0.0398277
-0.0400192
-0.0398749
-0.0393947
-0.0385856
-0.0374631
-0.036047
-0.0343652
-0.0324445
-0.0303219
-0.0280246
-0.0255948
-0.0230498
-0.020424
-0.0176944
-0.0148435
-0.011747
-0.00828092
-0.00422847
0.000472344
0.00564954
0.0105933
0.0141984
0.0159576
0.0159683
0.0158665
0.0155848
0.0195299
0.0194395
0.0193599
0.0191805
0.0189461
0.0185835
0.0180785
0.0173323
0.0162599
0.0147327
0.0126645
0.0100167
0.00685971
0.00334974
-0.000297738
-0.00388569
-0.00727647
-0.010418
-0.0133216
-0.0160387
-0.0186285
-0.021143
-0.0236141
-0.026054
-0.0284548
-0.0307947
-0.0330417
-0.0351591
-0.0371078
-0.0388493
-0.0403463
-0.0415646
-0.0424741
-0.0430504
-0.0432762
-0.0431419
-0.0426479
-0.0418015
-0.0406211
-0.0391281
-0.0373551
-0.0353302
-0.0330956
-0.0306786
-0.0281283
-0.0254645
-0.0227367
-0.0199355
-0.0170762
-0.0140589
-0.0107886
-0.00702778
-0.00262337
0.00246032
0.00772756
0.0121536
0.0147026
0.0151893
0.0149908
0.0147247
0.018774
0.01869
0.0185961
0.0183973
0.0181286
0.0177224
0.0171575
0.0163341
0.0151626
0.0135166
0.0113181
0.00854537
0.00528928
0.00172148
-0.00193949
-0.00550728
-0.00886362
-0.0119765
-0.0148724
-0.0176109
-0.0202532
-0.0228488
-0.0254245
-0.0279859
-0.0305187
-0.0329957
-0.0353804
-0.0376328
-0.039711
-0.0415738
-0.043181
-0.0444953
-0.0454835
-0.0461179
-0.0463792
-0.0462562
-0.0457491
-0.0448661
-0.0436284
-0.0420594
-0.040197
-0.0380707
-0.0357289
-0.0331981
-0.0305339
-0.0277544
-0.024921
-0.0220307
-0.0191276
-0.0161351
-0.0129994
-0.00948945
-0.00541348
-0.000587952
0.00474591
0.00974306
0.0130658
0.0142264
0.0139429
0.013713
0.0180152
0.0179395
0.0178325
0.0176163
0.0173154
0.0168692
0.0162502
0.0153594
0.014104
0.0123617
0.0100621
0.00719852
0.00387662
0.000277834
-0.00338071
-0.0069244
-0.010252
-0.0133473
-0.0162478
-0.0190183
-0.0217201
-0.0243996
-0.0270786
-0.0297569
-0.0324149
-0.0350209
-0.0375352
-0.0399154
-0.0421172
-0.0440969
-0.0458115
-0.0472204
-0.0482868
-0.0489797
-0.0492773
-0.0491663
-0.0486476
-0.0477291
-0.0464357
-0.0447923
-0.0428431
-0.0406188
-0.0381753
-0.0355378
-0.032769
-0.0298828
-0.0269503
-0.0239682
-0.0210046
-0.0180001
-0.0149464
-0.0116326
-0.00787271
-0.0033883
0.00180819
0.00708125
0.0111186
0.0129611
0.0127751
0.0125219
0.017264
0.0171982
0.0170791
0.0168478
0.0165173
0.0160357
0.0153695
0.0144228
0.0131006
0.0112856
0.00891394
0.00599056
0.00263094
-0.000978616
-0.00462515
-0.00814502
-0.0114508
-0.0145381
-0.0174517
-0.0202593
-0.0230217
-0.0257819
-0.0285572
-0.0313428
-0.0341147
-0.036838
-0.0394707
-0.0419684
-0.044285
-0.0463745
-0.0481911
-0.0496904
-0.0508324
-0.0515822
-0.0519159
-0.0518176
-0.0512887
-0.0503368
-0.0489908
-0.0472762
-0.0452445
-0.0429271
-0.0403885
-0.0376522
-0.0347894
-0.0318083
-0.0287887
-0.0257224
-0.0226962
-0.0196604
-0.016651
-0.013481
-0.0100017
-0.00587934
-0.000967792
0.00432709
0.0089307
0.011368
0.0115226
0.0111497
0.0165361
0.016482
0.0163533
0.0161105
0.0157547
0.0152439
0.0145395
0.01355
0.0121794
0.010316
0.00790064
0.00494619
0.00157306
-0.00203162
-0.00566047
-0.00915919
-0.0124505
-0.0155376
-0.0184699
-0.0213162
-0.024136
-0.0269697
-0.0298308
-0.0327109
-0.0355828
-0.0384094
-0.041147
-0.0437498
-0.0461702
-0.0483598
-0.0502702
-0.0518535
-0.0530661
-0.0538696
-0.0542379
-0.0541525
-0.0536155
-0.0526333
-0.0512394
-0.0494592
-0.0473517
-0.0449482
-0.0423228
-0.039497
-0.0365517
-0.0334888
-0.0303971
-0.0272596
-0.0241788
-0.0211069
-0.0181195
-0.0150517
-0.0118101
-0.00803483
-0.0034988
0.00162947
0.00656989
0.00949809
0.010147
0.00959911
0.0158396
0.0157986
0.0156623
0.0154114
0.0150347
0.0145013
0.0137678
0.012749
0.0113487
0.00946028
0.00702776
0.00406796
0.000701709
-0.00288608
-0.00649414
-0.00997504
-0.0132579
-0.0163501
-0.0193028
-0.0221849
-0.0250548
-0.0279505
-0.0308831
-0.0338414
-0.0367963
-0.0397091
-0.042535
-0.0452271
-0.0477366
-0.0500128
-0.0520051
-0.0536619
-0.0549372
-0.0557884
-0.0561882
-0.0561147
-0.0555717
-0.0545633
-0.053128
-0.0512897
-0.0491159
-0.0466359
-0.0439348
-0.0410305
-0.0380154
-0.0348843
-0.0317364
-0.0285435
-0.0254221
-0.022319
-0.0193449
-0.0163512
-0.0133067
-0.00984687
-0.00572682
-0.000896635
0.00412476
0.00742602
0.00857491
0.00787587
0.0151892
0.0151627
0.0150222
0.014768
0.0143763
0.0138278
0.0130756
0.0120416
0.01063
0.00873964
0.00631505
0.00337372
3.28442e-05
-0.00352756
-0.0071123
-0.0105785
-0.0138579
-0.0169586
-0.0199316
-0.0228447
-0.0257551
-0.0286994
-0.0316873
-0.034706
-0.0377254
-0.0407056
-0.0436015
-0.0463649
-0.0489462
-0.0512928
-0.0533521
-0.0550695
-0.0563969
-0.057288
-0.0577147
-0.0576517
-0.0571049
-0.0560751
-0.0546066
-0.05272
-0.0504916
-0.0479475
-0.045184
-0.0422144
-0.0391437
-0.0359587
-0.0327707
-0.0295388
-0.0263933
-0.02327
-0.0203105
-0.0173745
-0.0144944
-0.0113132
-0.0076129
-0.00316596
0.00170984
0.00524085
0.00679104
0.00601904
0.0145885
0.0145767
0.0144347
0.0141811
0.0137798
0.0132236
0.0124624
0.0114265
0.0100213
0.00815032
0.00575698
0.00285607
-0.000442526
-0.00396582
-0.00752465
-0.0109781
-0.0142574
-0.0173679
-0.0203585
-0.023295
-0.0262339
-0.0292111
-0.0322358
-0.0352949
-0.0383579
-0.0413846
-0.0443294
-0.0471433
-0.0497761
-0.0521733
-0.0542815
-0.0560429
-0.057409
-0.0583293
-0.0587768
-0.0587214
-0.0581726
-0.0571264
-0.0556334
-0.0537095
-0.0514403
-0.0488464
-0.046036
-0.0430161
-0.0399052
-0.0366811
-0.0334691
-0.0302139
-0.0270612
-0.0239311
-0.0209937
-0.0181079
-0.0153687
-0.0124298
-0.00913033
-0.00511143
-0.000550168
0.00305148
0.00487111
0.00410982
0.0140496
0.0140535
0.0139137
0.013666
0.013262
0.0127063
0.0119464
0.0109219
0.00953972
0.00770822
0.00536807
0.0025286
-0.000710795
-0.00418641
-0.00771517
-0.0111563
-0.0144374
-0.0175584
-0.0205635
-0.023516
-0.0264714
-0.0294657
-0.0325088
-0.0355881
-0.0386738
-0.0417254
-0.0446974
-0.0475399
-0.0502025
-0.0526293
-0.0547667
-0.0565543
-0.0579443
-0.0588823
-0.0593433
-0.0592923
-0.058743
-0.0576856
-0.0561777
-0.0542285
-0.0519332
-0.0493051
-0.0464645
-0.0434103
-0.0402756
-0.0370273
-0.0338067
-0.0305427
-0.0273987
-0.0242749
-0.0213701
-0.0185326
-0.015919
-0.0131888
-0.0102597
-0.00667893
-0.0025407
0.000980783
0.00294493
0.00225136
0.0135698
0.0135885
0.0134535
0.0132154
0.0128144
0.0122662
0.011517
0.0105158
0.00917195
0.00739844
0.00513208
0.00237447
-0.000788455
-0.0042044
-0.00769702
-0.0111242
-0.0144074
-0.0175379
-0.0205537
-0.0235139
-0.0264732
-0.0294682
-0.0325106
-0.0355892
-0.0386756
-0.0417295
-0.0447057
-0.0475537
-0.0502233
-0.052657
-0.0548024
-0.0565966
-0.0579941
-0.0589364
-0.0594024
-0.0593512
-0.058802
-0.0577379
-0.0562239
-0.0542611
-0.0519542
-0.0493076
-0.0464539
-0.0433816
-0.0402392
-0.0369812
-0.0337664
-0.0305063
-0.0273847
-0.0242784
-0.0214167
-0.0186283
-0.0161306
-0.0135793
-0.0109857
-0.00782649
-0.00416978
-0.000851667
0.00114603
0.000544311
0.0131595
0.0131931
0.0130665
0.0128433
0.0124525
0.0119202
0.0111913
0.0102248
0.00893312
0.00723423
0.0050607
0.00240474
-0.000663457
-0.00400553
-0.00745303
-0.0108622
-0.0141462
-0.0172855
-0.0203092
-0.023271
-0.0262239
-0.0292054
-0.0322299
-0.0352885
-0.0383549
-0.0413896
-0.0443484
-0.0471796
-0.0498344
-0.0522532
-0.0543863
-0.0561682
-0.0575574
-0.0584912
-0.0589538
-0.0588979
-0.0583494
-0.0572827
-0.0557711
-0.0538055
-0.0515012
-0.0488509
-0.0460002
-0.0429252
-0.0397907
-0.0365358
-0.0333398
-0.0300936
-0.0270055
-0.0239249
-0.0211152
-0.0183765
-0.0159883
-0.0135897
-0.011296
-0.00852413
-0.00537009
-0.00234309
-0.000412856
-0.000923775
0.0128082
0.0128545
0.0127382
0.0125325
0.0121574
0.0116474
0.0109471
0.0100253
0.00879829
0.00718928
0.00512662
0.00259228
-0.000361432
-0.00361249
-0.00700245
-0.0103863
-0.0136677
-0.0168141
-0.019843
-0.0228009
-0.0257383
-0.0286935
-0.0316839
-0.0347038
-0.0377304
-0.0407248
-0.0436451
-0.046438
-0.0490569
-0.0514399
-0.0535413
-0.0552925
-0.056658
-0.0575702
-0.0580206
-0.0579544
-0.0574057
-0.0563388
-0.0548363
-0.0528772
-0.0505873
-0.0479461
-0.0451129
-0.0420484
-0.0389352
-0.0356943
-0.0325277
-0.0293026
-0.0262557
-0.0232054
-0.0204535
-0.0177634
-0.0154797
-0.0132097
-0.0111821
-0.00875269
-0.00609604
-0.00341237
-0.00164133
-0.00207724
0.0125264
0.0125849
0.0124822
0.0122989
0.0119466
0.0114666
0.0108037
0.00993594
0.0087843
0.00727783
0.00534166
0.00294739
0.000128395
-0.00301226
-0.00632862
-0.00967629
-0.0129495
-0.0161009
-0.0191343
-0.0220863
-0.0250033
-0.0279235
-0.030868
-0.0338343
-0.0368044
-0.0397407
-0.0426042
-0.0453402
-0.0479053
-0.0502347
-0.0522881
-0.053993
-0.0553219
-0.0562015
-0.0566323
-0.0565511
-0.0560016
-0.0549367
-0.0534491
-0.0515037
-0.0492385
-0.0466169
-0.0438132
-0.0407698
-0.037689
-0.03447
-0.0313404
-0.02814
-0.0251389
-0.022119
-0.0194276
-0.0167819
-0.0145974
-0.0124332
-0.0106402
-0.00850259
-0.00631946
-0.00399841
-0.00246472
-0.00284707
0.0122951
0.0123624
0.0122734
0.0121136
0.0117886
0.0113442
0.0107258
0.00992032
0.00885366
0.00746147
0.00566664
0.00343117
0.000768776
-0.00223847
-0.00546064
-0.00875649
-0.0120122
-0.0151646
-0.0182015
-0.0211468
-0.0240411
-0.0269207
-0.0298103
-0.0327108
-0.0356101
-0.0384722
-0.0412629
-0.0439255
-0.0464211
-0.0486814
-0.0506729
-0.0523183
-0.0535995
-0.0544366
-0.0548409
-0.0547398
-0.0541877
-0.0531249
-0.0516554
-0.0497285
-0.0474951
-0.0449001
-0.0421346
-0.0391193
-0.0360786
-0.0328858
-0.0297977
-0.0266217
-0.0236672
-0.0206738
-0.0180418
-0.0154329
-0.0133415
-0.01126
-0.00967285
-0.00777315
-0.00602688
-0.00405745
-0.00281889
-0.00316742
0.0121287
0.0122044
0.0121317
0.0119994
0.0117081
0.0113066
0.0107406
0.0100046
0.00903041
0.00776065
0.00611798
0.00405627
0.00157052
-0.00127995
-0.00438424
-0.00760861
-0.0108336
-0.013981
-0.0170209
-0.0199621
-0.0228363
-0.0256758
-0.028508
-0.0313365
-0.0341562
-0.0369331
-0.0396393
-0.0422161
-0.0446311
-0.046811
-0.048731
-0.0503075
-0.0515336
-0.0523214
-0.0526949
-0.0525702
-0.0520149
-0.0509543
-0.0495058
-0.0476002
-0.0454039
-0.04284
-0.0401188
-0.0371355
-0.0341394
-0.0309731
-0.0279274
-0.0247716
-0.021861
-0.018886
-0.0163093
-0.0137258
-0.0117204
-0.00969778
-0.00829065
-0.00657296
-0.00521862
-0.00356165
-0.00264924
-0.00297574
0.011997
0.0120764
0.0120186
0.0119127
0.0116579
0.0113037
0.0107962
0.0101367
0.00926228
0.00812328
0.00664341
0.00477065
0.00248246
-0.00018484
-0.00314302
-0.00626995
-0.00944519
-0.0125766
-0.0156169
-0.0185562
-0.0214151
-0.0242186
-0.0269953
-0.0297499
-0.0324856
-0.0351697
-0.0377832
-0.0402647
-0.0425906
-0.0446815
-0.046523
-0.0480238
-0.0491897
-0.0499231
-0.0502625
-0.050111
-0.049551
-0.0484911
-0.0470643
-0.0451803
-0.0430233
-0.0404914
-0.0378169
-0.0348651
-0.0319142
-0.0287708
-0.0257646
-0.0226207
-0.0197482
-0.0167796
-0.0142517
-0.0116791
-0.00975196
-0.00776321
-0.0065138
-0.00492076
-0.00390967
-0.00250018
-0.00191453
-0.0022173
0.0119253
0.0120089
0.0119678
0.0118914
0.0116785
0.0113777
0.0109357
0.010358
0.00958793
0.00858307
0.00727059
0.005595
0.00351947
0.00105781
-0.0017261
-0.00472698
-0.00782838
-0.0109286
-0.0139635
-0.0169036
-0.0197552
-0.0225322
-0.0252626
-0.0279496
-0.0306046
-0.0331956
-0.0357144
-0.0380968
-0.04033
-0.0423278
-0.0440882
-0.0455102
-0.0466146
-0.0472917
-0.0475964
-0.0474168
-0.0468526
-0.0457926
-0.0443885
-0.0425256
-0.0404094
-0.0379083
-0.035281
-0.0323574
-0.0294497
-0.0263217
-0.0233493
-0.0202055
-0.0173626
-0.0143857
-0.0118983
-0.00931972
-0.00746363
-0.00548266
-0.00437309
-0.00284641
-0.002131
-0.000881339
-0.000593887
-0.000853184
0.0118667
0.0119486
0.0119208
0.0118704
0.0117002
0.0114558
0.0110846
0.0105952
0.00993562
0.00907073
0.00793176
0.0064627
0.00461507
0.00238289
-0.000195961
-0.00303632
-0.00603273
-0.00907816
-0.0120956
-0.0150343
-0.0178855
-0.020647
-0.0233441
-0.0259742
-0.0285576
-0.0310603
-0.0334876
-0.0357707
-0.0379114
-0.0398146
-0.0414939
-0.042836
-0.0438794
-0.0444993
-0.0447701
-0.0445612
-0.0439929
-0.042931
-0.0415493
-0.0397047
-0.037628
-0.0351534
-0.0325705
-0.0296677
-0.0267973
-0.0236734
-0.0207259
-0.0175669
-0.0147434
-0.0117411
-0.0092858
-0.00668281
-0.00489197
-0.00289212
-0.00191014
-0.000391266
6.96534e-05
0.00126542
0.00130526
0.00113067
0.0118678
0.0119502
0.0119379
0.0119162
0.0117925
0.0116092
0.011314
0.0109162
0.0103687
0.00964258
0.00867485
0.00741121
0.0057962
0.00380721
0.00145779
-0.00119032
-0.00404795
-0.00700991
-0.0099911
-0.0129217
-0.0157769
-0.0185352
-0.0212164
-0.0238077
-0.0263368
-0.0287648
-0.031112
-0.0333034
-0.0353582
-0.0371707
-0.0387734
-0.0400384
-0.0410248
-0.0415896
-0.0418297
-0.0415923
-0.0410223
-0.0399577
-0.0385992
-0.03677
-0.034732
-0.0322783
-0.0297361
-0.0268448
-0.0240046
-0.0208711
-0.0179384
-0.0147476
-0.0119329
-0.00888744
-0.00645692
-0.00381073
-0.00208222
-3.66237e-05
0.000823197
0.00239257
0.00262853
0.00388887
0.00374058
0.00371548
0.0118534
0.0119285
0.0119265
0.0119278
0.0118496
0.0117293
0.0115154
0.0112162
0.0107872
0.0102049
0.00941124
0.00835617
0.00697973
0.00524813
0.00315196
0.000730452
-0.00195001
-0.0047908
-0.00770742
-0.0106126
-0.0134689
-0.0162311
-0.0189126
-0.0214839
-0.0239801
-0.0263518
-0.0286364
-0.0307486
-0.0327292
-0.0344585
-0.0359927
-0.0371853
-0.0381206
-0.038633
-0.0388469
-0.0385816
-0.038012
-0.0369425
-0.0356072
-0.0337883
-0.0317858
-0.0293441
-0.0268361
-0.0239433
-0.0211236
-0.0179639
-0.0150346
-0.0117937
-0.00897823
-0.00587138
-0.00346066
-0.000752523
0.00091278
0.00303125
0.00376674
0.00544473
0.00546963
0.00692029
0.00663602
0.00684831
0.01191
0.0119832
0.0119948
0.0120224
0.0119924
0.0119372
0.0118069
0.0116063
0.0112937
0.010849
0.0102205
0.00936294
0.00821627
0.00673996
0.00490652
0.0027339
0.000263585
-0.00241878
-0.00523664
-0.00809153
-0.0109372
-0.0137041
-0.0163989
-0.0189699
-0.0214583
-0.0237984
-0.0260453
-0.0280989
-0.0300248
-0.0316855
-0.0331653
-0.034295
-0.0351897
-0.0356555
-0.0358504
-0.0355596
-0.034995
-0.0339196
-0.0326086
-0.0307951
-0.0288261
-0.0263874
-0.0239082
-0.0210008
-0.0181932
-0.0149916
-0.012057
-0.00874944
-0.00592714
-0.00274267
-0.000351042
0.0024371
0.00403374
0.00625317
0.00685452
0.00870013
0.00851049
0.0102809
0.00989041