/*--------------------------------*- C++ -*----------------------------------*\
| =========                 |                                                 |
| \\      /  F ield         | OpenFOAM: The Open Source CFD Toolbox           |
|  \\    /   O peration     | Version:  2406                                  |
|   \\  /    A nd           | Website:  www.openfoam.com                      |
|    \\/     M anipulation  |                                                 |
\*---------------------------------------------------------------------------*/
FoamFile
{
    version     2.0;
    format      ascii;
    arch        "LSB;label=32;scalar=64";
    class       volScalarField;
    location    "92.5";
    object      p;
}
// * * * * * * * * * * * * * * * * * * * * * * * * * * * * * * * * * * * * * //

dimensions      [0 2 -2 0 0 0 0];

internalField   nonuniform List<scalar> 
4096
(
-1.61137e-07
2.42412e-05
2.76729e-05
2.83878e-06
-5.18907e-05
-0.000131251
-0.000227031
-0.000332414
-0.000444167
-0.000563059
-0.000693297
-0.000840901
-0.00101273
-0.00121514
-0.00145372
-0.00173316
-0.00205738
-0.00242915
-0.00284942
-0.00331637
-0.00382382
-0.00436026
-0.00490756
-0.00544068
-0.00592839
-0.00633491
-0.00662249
-0.00675447
-0.00669864
-0.00643023
-0.00593483
-0.00521066
-0.00427036
-0.00314073
-0.00185931
-0.000497842
0.000862004
0.00212604
0.00319361
0.00396661
0.00436112
0.00432112
0.00383025
0.00290841
0.00163285
0.000111861
-0.00152867
-0.00315509
-0.00465769
-0.00595984
-0.00701806
-0.00782653
-0.00840485
-0.00878992
-0.0090256
-0.00915424
-0.00921169
-0.00922536
-0.00921434
-0.00919061
-0.00916059
-0.00912731
-0.00909389
-0.00906521
-2.18136e-05
3.13614e-06
5.08262e-06
-2.07173e-05
-7.39603e-05
-0.000149174
-0.000238802
-0.000336832
-0.000440696
-0.000551421
-0.000672971
-0.000811125
-0.000971934
-0.00116101
-0.00138341
-0.00164347
-0.00194555
-0.00229297
-0.00268763
-0.00312873
-0.00361155
-0.00412668
-0.00465979
-0.00519094
-0.00569359
-0.00613422
-0.00647374
-0.00667109
-0.00668788
-0.00649332
-0.0060686
-0.00540907
-0.00452159
-0.00342284
-0.00217228
-0.0008341
0.000511775
0.00177013
0.00283833
0.00361586
0.00401639
0.00398178
0.0034942
0.00257715
0.00128808
-0.000238959
-0.00187972
-0.00348837
-0.00495333
-0.00619521
-0.00718726
-0.00792175
-0.00842798
-0.00875469
-0.00895164
-0.00906077
-0.00911384
-0.00913319
-0.00913324
-0.00912272
-0.00910623
-0.00908536
-0.00906009
-0.00903175
-2.98407e-05
-1.6806e-06
-5.63176e-07
-2.95902e-05
-8.55106e-05
-0.000160773
-0.000246901
-0.000337936
-0.000432022
-0.000531097
-0.000639942
-0.000764573
-0.000911122
-0.00108472
-0.00129112
-0.00153533
-0.00182316
-0.00216053
-0.00255292
-0.0030045
-0.00351643
-0.00408367
-0.00469166
-0.00531493
-0.00591857
-0.00646125
-0.00689879
-0.00718765
-0.00728847
-0.00716954
-0.00680966
-0.0061999
-0.00534626
-0.00428032
-0.00305368
-0.00172752
-0.000380935
0.000892016
0.00198838
0.00280571
0.00325397
0.00326951
0.00282763
0.00194793
0.000697087
-0.000805503
-0.00244494
-0.00403731
-0.00547945
-0.00668154
-0.00760031
-0.00826278
-0.00868883
-0.00893436
-0.00905866
-0.00910985
-0.00912186
-0.00911568
-0.00910285
-0.00908864
-0.00907432
-0.00905807
-0.00903473
-0.00900182
-1.85333e-05
1.24941e-05
1.10002e-05
-2.48509e-05
-8.78634e-05
-0.000166948
-0.000251644
-0.00033579
-0.000418407
-0.000502996
-0.000596131
-0.000704903
-0.000836963
-0.000998836
-0.00119799
-0.00144347
-0.00174663
-0.0021206
-0.00257803
-0.00312688
-0.00376616
-0.00448342
-0.00525444
-0.00604441
-0.00681045
-0.00750529
-0.00808137
-0.00849434
-0.00870545
-0.00868278
-0.00840276
-0.00785499
-0.00705162
-0.00603149
-0.00483477
-0.00351865
-0.00215886
-0.000845967
0.000319326
0.00123442
0.00180558
0.00196122
0.00166515
0.000925686
-0.000198856
-0.00160284
-0.00315492
-0.00469675
-0.00610651
-0.00727623
-0.00816531
-0.00875761
-0.00911017
-0.00927565
-0.00931773
-0.00929231
-0.00923972
-0.00918435
-0.00913771
-0.00910283
-0.00907782
-0.0090573
-0.00903108
-0.00899291
1.7624e-05
4.80767e-05
3.97048e-05
-7.66665e-06
-8.18231e-05
-0.000167391
-0.000251759
-0.000329177
-0.000399627
-0.000469589
-0.000548312
-0.000646098
-0.0007733
-0.000941462
-0.00116487
-0.00146147
-0.00185166
-0.0023543
-0.0029814
-0.00373379
-0.00459907
-0.0055519
-0.00655615
-0.00756782
-0.00853827
-0.00941785
-0.0101592
-0.0107199
-0.0110632
-0.0111578
-0.0109799
-0.0105212
-0.00980077
-0.00884935
-0.00770177
-0.00640855
-0.00503752
-0.00367152
-0.00240484
-0.00133672
-0.000562513
-0.000162046
-0.000186003
-0.000644216
-0.00149905
-0.00266515
-0.00401893
-0.00541436
-0.00671647
-0.00781517
-0.00865131
-0.00921181
-0.00951987
-0.00963604
-0.00962291
-0.00953864
-0.00942852
-0.00932207
-0.00923421
-0.00916921
-0.00912466
-0.00909333
-0.00906177
-0.00902078
8.48625e-05
0.000110059
8.97781e-05
2.625e-05
-6.22748e-05
-0.000156132
-0.000241661
-0.000313173
-0.000373783
-0.000434839
-0.00050927
-0.000612878
-0.000763704
-0.000983318
-0.00129732
-0.00173308
-0.00231455
-0.00305625
-0.00395894
-0.0050084
-0.00617658
-0.00742456
-0.00870625
-0.00997169
-0.0111702
-0.0122527
-0.0131745
-0.0138965
-0.0143855
-0.0146133
-0.0145588
-0.014217
-0.0136067
-0.0127506
-0.0116767
-0.0104274
-0.00905991
-0.00764561
-0.0062679
-0.00501798
-0.00398796
-0.003261
-0.00290025
-0.00293759
-0.00336444
-0.00412614
-0.00512549
-0.00623631
-0.00732688
-0.00828274
-0.00902903
-0.00953765
-0.00981801
-0.00991265
-0.00987829
-0.00976849
-0.00962774
-0.00948819
-0.00936851
-0.00927633
-0.00921136
-0.00916726
-0.00913019
-0.0090895
0.000191429
0.00020606
0.000168979
8.55328e-05
-1.94631e-05
-0.000122663
-0.000211219
-0.000281266
-0.000341603
-0.000408257
-0.00050228
-0.000649446
-0.000880268
-0.00122926
-0.00173134
-0.00241552
-0.00329817
-0.00437897
-0.00564032
-0.00704997
-0.0085653
-0.0101371
-0.0117128
-0.0132397
-0.0146675
-0.0159502
-0.0170475
-0.0179253
-0.018556
-0.0189182
-0.0189981
-0.0187928
-0.0183119
-0.0175717
-0.016596
-0.0154188
-0.0140853
-0.0126524
-0.0111878
-0.00976845
-0.0084761
-0.00739142
-0.00658517
-0.00610745
-0.00597736
-0.006178
-0.00665363
-0.00731382
-0.00804854
-0.00874921
-0.00933085
-0.00974573
-0.00998474
-0.0100694
-0.0100345
-0.00992799
-0.00978653
-0.00964025
-0.00950857
-0.00940222
-0.00932421
-0.009271
-0.009231
-0.00919381
0.000347124
0.000345629
0.000287608
0.000181604
5.86863e-05
-5.73201e-05
-0.000152177
-0.000231029
-0.000308702
-0.000410077
-0.000568164
-0.000822879
-0.00121864
-0.00179905
-0.002599
-0.00363707
-0.00491152
-0.00640079
-0.00806764
-0.00986376
-0.0117345
-0.0136233
-0.0154748
-0.0172371
-0.0188636
-0.020314
-0.0215544
-0.0225578
-0.0233039
-0.0237803
-0.0239816
-0.0239074
-0.0235587
-0.0229455
-0.0220879
-0.0210129
-0.0197547
-0.0183549
-0.0168631
-0.0153369
-0.0138404
-0.0124416
-0.0112076
-0.0101976
-0.00945418
-0.00899534
-0.00880919
-0.00885533
-0.00906727
-0.00936341
-0.00966392
-0.00990714
-0.0100594
-0.0101148
-0.0100875
-0.0100011
-0.0098796
-0.00975038
-0.00962833
-0.00952509
-0.00944634
-0.00939169
-0.00935322
-0.00932212
0.000561608
0.000538955
0.000456873
0.000326588
0.000184905
5.44467e-05
-5.8894e-05
-0.000165897
-0.000292305
-0.000476328
-0.000766216
-0.00121634
-0.00187987
-0.00279893
-0.00399549
-0.00546706
-0.00718826
-0.00911547
-0.0111931
-0.0133596
-0.0155527
-0.0177131
-0.019787
-0.0217275
-0.0234952
-0.0250581
-0.0263908
-0.0274744
-0.0282968
-0.0288539
-0.0291475
-0.0291795
-0.0289457
-0.0284525
-0.0277181
-0.026764
-0.0256148
-0.024299
-0.0228493
-0.0213036
-0.0197048
-0.0181005
-0.0165421
-0.015082
-0.0137701
-0.0126482
-0.0117441
-0.0110663
-0.0106042
-0.0103283
-0.010192
-0.0101406
-0.0101236
-0.010104
-0.0100623
-0.0099957
-0.00990756
-0.00981009
-0.00971483
-0.0096309
-0.00956458
-0.0095176
-0.0094856
-0.00946207
0.000841671
0.000794083
0.000684862
0.000532155
0.000369462
0.000214386
6.49223e-05
-0.00010135
-0.000324597
-0.000659044
-0.00116779
-0.00191379
-0.0029476
-0.0042963
-0.00595816
-0.00790424
-0.0100841
-0.0124338
-0.0148838
-0.0173647
-0.0198124
-0.0221704
-0.0243916
-0.026438
-0.02828
-0.0298955
-0.0312683
-0.0323878
-0.0332488
-0.0338527
-0.0342051
-0.0343099
-0.0341637
-0.033773
-0.0331532
-0.0323208
-0.0312937
-0.0300907
-0.028732
-0.0272398
-0.0256381
-0.0239531
-0.0222149
-0.0204573
-0.0187187
-0.0170426
-0.0154753
-0.0140637
-0.0128499
-0.0118649
-0.0111229
-0.0106122
-0.0102939
-0.0101123
-0.0100099
-0.00994213
-0.00988491
-0.00982617
-0.00976852
-0.00971579
-0.00967285
-0.00964173
-0.00962033
-0.00960458
0.001188
0.00111193
0.000977683
0.000802052
0.000612006
0.000416886
0.000202767
-6.82185e-05
-0.000452922
-0.00102087
-0.00184395
-0.00298205
-0.00446917
-0.00630625
-0.00846191
-0.0108792
-0.0134856
-0.0162022
-0.0189521
-0.0216654
-0.0242825
-0.0267558
-0.0290485
-0.0311338
-0.0329932
-0.0346141
-0.0359886
-0.0371127
-0.0379864
-0.0386136
-0.0390007
-0.0391528
-0.0390715
-0.0387634
-0.0382403
-0.0375151
-0.0366011
-0.0355116
-0.0342593
-0.0328562
-0.0313132
-0.0296407
-0.0278493
-0.0259517
-0.0239658
-0.021918
-0.0198478
-0.017811
-0.0158804
-0.0141391
-0.0126679
-0.0115265
-0.0107319
-0.0102474
-0.00999511
-0.00988345
-0.0098375
-0.0098159
-0.00979953
-0.00978481
-0.00977229
-0.00976272
-0.00975454
-0.00974573
0.00159171
0.00148752
0.00132842
0.00112856
0.000899731
0.000640678
0.000321561
-0.000112872
-0.000735384
-0.00162507
-0.00285127
-0.00445672
-0.0064473
-0.00879124
-0.0114261
-0.0142708
-0.0172369
-0.0202386
-0.0231998
-0.0260572
-0.0287622
-0.0312791
-0.0335839
-0.0356611
-0.0375018
-0.0391012
-0.0404578
-0.041572
-0.0424465
-0.0430862
-0.0434968
-0.0436837
-0.0436511
-0.0434066
-0.0429596
-0.0423203
-0.0414994
-0.0405068
-0.0393512
-0.0380391
-0.0365746
-0.0349588
-0.03319
-0.0312654
-0.0291831
-0.0269475
-0.0245758
-0.0221069
-0.0196093
-0.0171854
-0.0149642
-0.0130791
-0.0116331
-0.0106612
-0.0101125
-0.00987058
-0.00980084
-0.00980256
-0.00982453
-0.00984887
-0.00986961
-0.00988424
-0.00989022
-0.00988698
0.00203146
0.00190202
0.00172165
0.00148799
0.00120244
0.000846483
0.000371938
-0.000293149
-0.00123242
-0.00252403
-0.00422097
-0.00633679
-0.00884212
-0.0116709
-0.0147341
-0.0179332
-0.0211731
-0.02437
-0.0274563
-0.0303814
-0.0331105
-0.0356216
-0.0379024
-0.0399471
-0.0417539
-0.0433234
-0.0446574
-0.045759
-0.046632
-0.0472809
-0.0477105
-0.0479256
-0.0479325
-0.047738
-0.0473499
-0.0467767
-0.0460271
-0.0451092
-0.0440297
-0.042793
-0.0414003
-0.0398487
-0.038131
-0.0362359
-0.0341499
-0.0318598
-0.02936
-0.0266618
-0.0238061
-0.0208771
-0.0180096
-0.0153806
-0.0131764
-0.0115368
-0.0104994
-0.00998093
-0.00981077
-0.00980895
-0.00986141
-0.00992187
-0.00997497
-0.0100137
-0.0100335
-0.0100346
0.00247036
0.00232102
0.00211411
0.0018378
0.00147184
0.000978831
0.000292909
-0.000670491
-0.00199674
-0.00375004
-0.00595465
-0.00858728
-0.0115811
-0.0148402
-0.0182562
-0.0217233
-0.0251487
-0.0284587
-0.0315998
-0.034537
-0.0372499
-0.0397287
-0.0419705
-0.0439761
-0.0457482
-0.0472903
-0.0486059
-0.0496988
-0.0505728
-0.0512317
-0.0516794
-0.0519203
-0.0519606
-0.0518064
-0.0514641
-0.0509409
-0.0502442
-0.0493807
-0.0483561
-0.0471741
-0.0458353
-0.0443363
-0.0426689
-0.0408195
-0.0387695
-0.0364973
-0.0339818
-0.0312104
-0.0281911
-0.0249702
-0.0216502
-0.0184015
-0.0154516
-0.0130373
-0.0113238
-0.0103317
-0.00992322
-0.00986035
-0.00992655
-0.0100174
-0.0100997
-0.0101609
-0.0101935
-0.0101984
0.00286037
0.00269325
0.00245555
0.00212122
0.0016456
0.000972138
2.00959e-05
-0.00130035
-0.00306471
-0.00531091
-0.00802633
-0.0111476
-0.0145742
-0.018188
-0.0218713
-0.0255204
-0.0290532
-0.0324115
-0.0355583
-0.0384741
-0.0411511
-0.0435888
-0.0457904
-0.0477609
-0.0495051
-0.0510273
-0.0523316
-0.0534214
-0.0543
-0.0549707
-0.0554366
-0.0557015
-0.0557709
-0.0556498
-0.055344
-0.0548592
-0.0542017
-0.0533773
-0.0523909
-0.0512458
-0.0499428
-0.0484795
-0.046849
-0.0450393
-0.0430322
-0.0408042
-0.0383276
-0.0355756
-0.0325309
-0.029201
-0.0256404
-0.0219744
-0.0184139
-0.0152401
-0.0127358
-0.0110728
-0.0102293
-0.00998751
-0.0100339
-0.0101464
-0.010254
-0.0103361
-0.0103809
-0.0103904
0.00313888
0.00295373
0.00268029
0.00227014
0.00165441
0.00075952
-0.000504657
-0.00222357
-0.00445127
-0.00719087
-0.0103885
-0.013943
-0.0177278
-0.0216123
-0.0254792
-0.0292353
-0.0328145
-0.0361761
-0.0392997
-0.0421786
-0.0448143
-0.0472127
-0.0493803
-0.0513238
-0.0530486
-0.0545589
-0.0558582
-0.0569495
-0.0578356
-0.0585192
-0.0590028
-0.05929
-0.0593848
-0.0592918
-0.0590157
-0.0585614
-0.0579341
-0.0571385
-0.0561789
-0.0550581
-0.0537775
-0.0523356
-0.0507276
-0.0489443
-0.046971
-0.0447868
-0.0423645
-0.0396722
-0.0366785
-0.0333628
-0.0297345
-0.0258604
-0.0218949
-0.0180981
-0.0148084
-0.0123449
-0.010858
-0.0102496
-0.010195
-0.0103166
-0.010446
-0.0105483
-0.0106066
-0.0106226
0.0032381
0.00303728
0.00272002
0.00221537
0.00143184
0.000282571
-0.00132463
-0.00346072
-0.00614951
-0.00935423
-0.0129802
-0.0168953
-0.020956
-0.0250292
-0.0290064
-0.0328102
-0.0363929
-0.039731
-0.0428175
-0.0456556
-0.048253
-0.0506186
-0.0527604
-0.0546852
-0.0563978
-0.057902
-0.0592008
-0.0602965
-0.0611914
-0.0618876
-0.0623878
-0.0626947
-0.0628119
-0.0627429
-0.0624919
-0.0620628
-0.0614599
-0.060687
-0.0597476
-0.0586441
-0.0573777
-0.0559481
-0.0543521
-0.0525834
-0.0506313
-0.0484798
-0.046106
-0.04348
-0.0405663
-0.0373292
-0.0337462
-0.0298309
-0.0256686
-0.0214535
-0.0175056
-0.0142242
-0.011943
-0.010751
-0.0104341
-0.0105336
-0.0106813
-0.0108049
-0.0108801
-0.0109061
0.00309978
0.00288174
0.00251193
0.00189624
0.000923811
-0.000500323
-0.00246243
-0.00501046
-0.00813283
-0.0117513
-0.0157355
-0.0199309
-0.0241868
-0.0283759
-0.0324044
-0.0362132
-0.0397725
-0.0430731
-0.0461187
-0.0489186
-0.0514836
-0.0538238
-0.055947
-0.0578592
-0.0595646
-0.0610664
-0.0623667
-0.0634677
-0.0643711
-0.0650791
-0.0655939
-0.065918
-0.0660544
-0.0660061
-0.0657766
-0.0653691
-0.064787
-0.0640333
-0.0631108
-0.0620213
-0.0607659
-0.0593444
-0.0577551
-0.0559938
-0.0540534
-0.0519226
-0.0495845
-0.0470148
-0.044181
-0.0410437
-0.0375629
-0.0337148
-0.0295219
-0.0250974
-0.0206906
-0.0166965
-0.0135702
-0.0116185
-0.0108214
-0.0108
-0.0109669
-0.0111122
-0.0112103
-0.0112508
0.00267428
0.00243684
0.00200712
0.00126864
9.57185e-05
-0.0016088
-0.0039179
-0.0068512
-0.0103591
-0.0143248
-0.0185895
-0.0229858
-0.0273642
-0.0316092
-0.0356449
-0.0394303
-0.042951
-0.0462092
-0.0492152
-0.0519817
-0.0545204
-0.0568411
-0.0589507
-0.0608542
-0.0625551
-0.0640557
-0.0653581
-0.0664638
-0.0673748
-0.0680928
-0.06862
-0.0689587
-0.0691114
-0.069081
-0.06887
-0.0684814
-0.0679177
-0.0671813
-0.0662741
-0.0651977
-0.0639527
-0.062539
-0.0609553
-0.0591989
-0.0572654
-0.0551474
-0.0528333
-0.0503056
-0.0475385
-0.0444963
-0.0411344
-0.037408
-0.033294
-0.0288312
-0.0241764
-0.0196553
-0.015751
-0.0129514
-0.0114749
-0.0111355
-0.0113133
-0.0114795
-0.0116052
-0.0116669
0.00193022
0.00167128
0.00117702
0.000310385
-0.00106374
-0.00303906
-0.00566957
-0.00894432
-0.0127761
-0.0170151
-0.0214829
-0.0260074
-0.0304469
-0.0347017
-0.0387136
-0.0424584
-0.0459336
-0.049149
-0.0521187
-0.0548564
-0.0573736
-0.0596787
-0.0617776
-0.0636742
-0.0653712
-0.0668707
-0.0681743
-0.0692837
-0.0702006
-0.0709267
-0.0714641
-0.071815
-0.0719816
-0.0719663
-0.0717716
-0.0713996
-0.0708524
-0.070132
-0.0692397
-0.0681764
-0.0669426
-0.0655379
-0.0639613
-0.0622109
-0.0602838
-0.0581751
-0.0558779
-0.0533805
-0.0506644
-0.0477016
-0.0444513
-0.0408624
-0.0368849
-0.032501
-0.0277784
-0.0229413
-0.0184197
-0.0147874
-0.0125055
-0.0116255
-0.0117206
-0.0119207
-0.0120759
-0.0121666
0.000858035
0.000576351
1.64415e-05
-0.000976753
-0.00254217
-0.00476523
-0.00767817
-0.011239
-0.0153263
-0.0197646
-0.0243639
-0.0289543
-0.0334063
-0.037637
-0.0416052
-0.0452997
-0.048727
-0.0519014
-0.0548382
-0.0575509
-0.0600495
-0.0623411
-0.0644303
-0.0663203
-0.0680131
-0.0695106
-0.0708143
-0.0719258
-0.0728468
-0.0735792
-0.0741248
-0.0744857
-0.074664
-0.0746617
-0.0744809
-0.0741237
-0.0735915
-0.072886
-0.0720081
-0.0709584
-0.0697369
-0.0683433
-0.0667764
-0.0650347
-0.063116
-0.0610173
-0.0587342
-0.0562599
-0.0535826
-0.0506822
-0.0475265
-0.0440676
-0.0402457
-0.0360067
-0.0313475
-0.0263867
-0.0214513
-0.0171029
-0.0139762
-0.0123975
-0.0121893
-0.0124596
-0.0126368
-0.0127655
-0.000529645
-0.000833328
-0.00145634
-0.00256792
-0.00430569
-0.00674339
-0.00989123
-0.0136774
-0.0179516
-0.0225202
-0.0271889
-0.0317948
-0.0362227
-0.0404062
-0.0443185
-0.0479583
-0.0513378
-0.0544733
-0.05738
-0.0600698
-0.0625513
-0.06483
-0.0669095
-0.0687921
-0.0704798
-0.0719741
-0.0732766
-0.0743888
-0.0753125
-0.0760494
-0.0766015
-0.0769705
-0.0771585
-0.0771673
-0.0769988
-0.0766545
-0.0761359
-0.0754443
-0.0745803
-0.0735443
-0.0723363
-0.0709555
-0.069401
-0.0676712
-0.0657642
-0.0636781
-0.0614101
-0.0589564
-0.0563102
-0.053459
-0.0503797
-0.0470334
-0.0433621
-0.0392952
-0.0347803
-0.0298461
-0.0246994
-0.019816
-0.0158969
-0.0135336
-0.0127926
-0.0131062
-0.0133078
-0.0134769
-0.00219903
-0.00252169
-0.00320209
-0.0044186
-0.00630346
-0.00891688
-0.0122483
-0.016199
-0.0205961
-0.0252349
-0.0299219
-0.0345045
-0.0388824
-0.0430041
-0.0468538
-0.0504376
-0.0537705
-0.0568691
-0.0597473
-0.0624154
-0.0648801
-0.0671456
-0.0692146
-0.071089
-0.0727705
-0.0742605
-0.0755605
-0.0766722
-0.0775972
-0.0783373
-0.0788943
-0.0792699
-0.079466
-0.0794842
-0.0793262
-0.0789934
-0.0784872
-0.0778083
-0.0769577
-0.0759353
-0.0747412
-0.0733746
-0.0718346
-0.0701195
-0.0682279
-0.0661578
-0.0639077
-0.0614753
-0.0588573
-0.056047
-0.0530297
-0.0497771
-0.0462401
-0.0423465
-0.0380161
-0.033211
-0.0280253
-0.0228093
-0.0182306
-0.0150661
-0.013677
-0.0138433
-0.0141134
-0.0143185
-0.00409878
-0.00443615
-0.0051655
-0.00647
-0.00847321
-0.0112217
-0.0146859
-0.0187446
-0.0232086
-0.0278677
-0.0325333
-0.0370648
-0.0413757
-0.045427
-0.0492115
-0.0527395
-0.0560273
-0.0590905
-0.0619413
-0.0645879
-0.0670355
-0.0692871
-0.0713448
-0.07321
-0.0748843
-0.076369
-0.0776656
-0.0787757
-0.079701
-0.0804432
-0.0810039
-0.0813848
-0.0815876
-0.0816138
-0.0814649
-0.0811423
-0.080647
-0.07998
-0.0791418
-0.0781328
-0.0769527
-0.075601
-0.0740768
-0.0723787
-0.0705051
-0.0684546
-0.0662257
-0.0638172
-0.0612279
-0.0584547
-0.0554901
-0.0523154
-0.0488936
-0.0451604
-0.0410265
-0.0364099
-0.0313143
-0.0259561
-0.0209001
-0.0170019
-0.0149251
-0.01467
-0.0150957
-0.0153117
-0.00616599
-0.00651273
-0.00728093
-0.00865487
-0.010747
-0.0135913
-0.0171414
-0.0212586
-0.0257431
-0.0303836
-0.0349991
-0.0394607
-0.0436947
-0.0476717
-0.0513907
-0.0548643
-0.0581087
-0.0611377
-0.0639615
-0.0665865
-0.0690164
-0.0712534
-0.073299
-0.0751543
-0.0768206
-0.0782993
-0.0795917
-0.0806996
-0.0816244
-0.0823678
-0.0829312
-0.0833164
-0.0835247
-0.0835577
-0.0834166
-0.0831028
-0.0826173
-0.081961
-0.0811345
-0.080138
-0.0789717
-0.0776351
-0.0761274
-0.0744476
-0.0725942
-0.0705658
-0.0683613
-0.0659799
-0.0634214
-0.0606851
-0.0577682
-0.0546608
-0.0513373
-0.0477464
-0.0438031
-0.0394026
-0.0344828
-0.0291403
-0.0238013
-0.019298
-0.0165175
-0.0156814
-0.0162542
-0.0164797
-0.00833186
-0.00868158
-0.0094779
-0.0109029
-0.0130562
-0.0159605
-0.0195559
-0.0236908
-0.0281595
-0.0327531
-0.037299
-0.0416798
-0.0458322
-0.0497346
-0.0533896
-0.0568108
-0.0600133
-0.0630091
-0.0658063
-0.0684095
-0.0708214
-0.0730432
-0.0750761
-0.076921
-0.0785789
-0.0800511
-0.0813391
-0.0824442
-0.083368
-0.0841118
-0.0846773
-0.0850657
-0.0852786
-0.0853173
-0.0851829
-0.0848768
-0.0843999
-0.0837532
-0.0829373
-0.0819526
-0.0807995
-0.0794776
-0.0779865
-0.0763254
-0.0744932
-0.0724889
-0.0703112
-0.0679597
-0.0654347
-0.0627368
-0.0598665
-0.05682
-0.0535823
-0.0501161
-0.0463487
-0.0421708
-0.0374764
-0.0322675
-0.0268226
-0.0218695
-0.018414
-0.0170034
-0.0175555
-0.0178321
-0.0105268
-0.0108723
-0.0116863
-0.0131453
-0.0153351
-0.0182688
-0.0218762
-0.0259971
-0.0304236
-0.0349512
-0.0394162
-0.0437112
-0.0477817
-0.0516113
-0.0552051
-0.0585764
-0.0617388
-0.0647024
-0.0674733
-0.0700548
-0.0724485
-0.074655
-0.0766751
-0.0785093
-0.0801587
-0.0816245
-0.0829077
-0.0840099
-0.0849323
-0.0856762
-0.086243
-0.0866341
-0.0868506
-0.086894
-0.0867653
-0.0864657
-0.0859964
-0.0853581
-0.0845517
-0.0835778
-0.0824369
-0.081129
-0.079654
-0.0780115
-0.0762008
-0.0742212
-0.0720718
-0.0697524
-0.0672633
-0.0646061
-0.061783
-0.0587948
-0.0556348
-0.052279
-0.0486706
-0.0447081
-0.0402631
-0.0352669
-0.0298629
-0.0246308
-0.0206061
-0.0186769
-0.0189581
-0.0193677
-0.0126845
-0.0130183
-0.0138401
-0.0153184
-0.0175238
-0.0204621
-0.0240558
-0.0281398
-0.0325066
-0.0369572
-0.0413364
-0.0455455
-0.0495366
-0.0532971
-0.0568332
-0.0601576
-0.0632819
-0.0662145
-0.0689599
-0.0715201
-0.0738959
-0.0760873
-0.0780947
-0.0799186
-0.0815597
-0.0830191
-0.0842978
-0.085397
-0.0863178
-0.0870615
-0.0876293
-0.0880224
-0.0882419
-0.0882891
-0.0881652
-0.0878711
-0.0874081
-0.0867771
-0.085979
-0.0850147
-0.0838848
-0.0825897
-0.0811299
-0.0795052
-0.0777155
-0.0757605
-0.0736398
-0.0713534
-0.068902
-0.0662875
-0.0635132
-0.0605828
-0.0574961
-0.0542403
-0.050775
-0.0470142
-0.0428249
-0.0380879
-0.0328398
-0.0275044
-0.0230731
-0.020659
-0.0204644
-0.0210835
-0.014745
-0.0150614
-0.0158811
-0.0173659
-0.0195702
-0.0224941
-0.0260556
-0.0300873
-0.0343843
-0.0387536
-0.0430471
-0.0471736
-0.0510902
-0.0547867
-0.0582696
-0.0615503
-0.064639
-0.0675422
-0.0702633
-0.072803
-0.0751615
-0.0773385
-0.0793339
-0.081148
-0.0827814
-0.0842349
-0.0855093
-0.0866057
-0.0875251
-0.0882685
-0.0888369
-0.0892316
-0.0894535
-0.0895039
-0.0893837
-0.0890941
-0.0886363
-0.0880113
-0.0872203
-0.0862641
-0.0851438
-0.0838602
-0.082414
-0.0808058
-0.0790359
-0.0771046
-0.075012
-0.0727586
-0.0703455
-0.0677748
-0.0650507
-0.0621786
-0.059163
-0.0560003
-0.0526652
-0.04909
-0.0451501
-0.0406963
-0.0356881
-0.0304064
-0.0257345
-0.0228719
-0.022147
-0.0229745
-0.0166525
-0.0169534
-0.0177597
-0.0192407
-0.0214309
-0.0243266
-0.0278432
-0.031814
-0.0360374
-0.0403258
-0.0445378
-0.0485876
-0.0524362
-0.0560748
-0.0595094
-0.0627503
-0.0658062
-0.0686822
-0.0713804
-0.073901
-0.0762434
-0.078407
-0.0803914
-0.0821967
-0.0838232
-0.0852715
-0.0865423
-0.0876363
-0.0885544
-0.0892976
-0.0898667
-0.0902626
-0.0904865
-0.0905393
-0.090422
-0.090136
-0.0896822
-0.0890619
-0.0882764
-0.0873268
-0.0862144
-0.0849405
-0.0835061
-0.0819125
-0.0801605
-0.0782511
-0.0761852
-0.0739637
-0.0715883
-0.0690616
-0.0663881
-0.0635748
-0.0606293
-0.0575551
-0.0543399
-0.0509347
-0.0472309
-0.0430698
-0.0383557
-0.0332494
-0.0284808
-0.0252346
-0.0240765
-0.0250348
-0.0183691
-0.0186447
-0.0194371
-0.0209048
-0.0230712
-0.0259295
-0.0293936
-0.0332993
-0.0374503
-0.041662
-0.045799
-0.0497801
-0.0535685
-0.057156
-0.0605479
-0.0637533
-0.0667796
-0.0696308
-0.0723083
-0.0748116
-0.0771395
-0.0792912
-0.0812661
-0.0830638
-0.0846845
-0.0861286
-0.0873966
-0.0884889
-0.0894063
-0.0901495
-0.0907192
-0.0911163
-0.0913417
-0.0913963
-0.0912813
-0.0909977
-0.0905467
-0.0899298
-0.0891482
-0.0882034
-0.0870971
-0.0858307
-0.0844059
-0.0828245
-0.0810879
-0.079198
-0.0771563
-0.0749646
-0.0726251
-0.0701411
-0.0675178
-0.0647629
-0.0618865
-0.0588975
-0.0557942
-0.0525447
-0.049061
-0.0451903
-0.0407992
-0.0359537
-0.0312163
-0.0277025
-0.0262383
-0.0272316
-0.019866
-0.0201031
-0.0208805
-0.0223285
-0.0244655
-0.027281
-0.0306882
-0.0345273
-0.0386111
-0.0427521
-0.0468228
-0.0507445
-0.0544815
-0.0580254
-0.0613806
-0.0645551
-0.0675555
-0.070385
-0.0730442
-0.0755323
-0.0778479
-0.0799895
-0.0819565
-0.0837483
-0.0853647
-0.0868059
-0.0880721
-0.0891636
-0.090081
-0.0908246
-0.0913952
-0.0917935
-0.0920201
-0.0920761
-0.0919625
-0.0916803
-0.091231
-0.0906159
-0.0898365
-0.0888946
-0.087792
-0.0865308
-0.085113
-0.0835409
-0.0818168
-0.0799432
-0.0779224
-0.0757573
-0.0734508
-0.071007
-0.0684317
-0.0657337
-0.0629247
-0.0600177
-0.0570195
-0.0539134
-0.0506331
-0.0470412
-0.0429823
-0.0384522
-0.0338586
-0.0302181
-0.0285529
-0.0294917
-0.0211227
-0.0213139
-0.022066
-0.0234911
-0.0255973
-0.0283671
-0.0317159
-0.0354884
-0.0395101
-0.0435869
-0.0476021
-0.0514753
-0.0551704
-0.0586786
-0.0620034
-0.065152
-0.0681305
-0.0709415
-0.0735854
-0.0760609
-0.0783664
-0.0805002
-0.0824614
-0.0842491
-0.085863
-0.0873028
-0.0885686
-0.0896605
-0.0905786
-0.0913235
-0.0918954
-0.0922949
-0.0925227
-0.0925796
-0.0924667
-0.0921851
-0.0917361
-0.0911212
-0.0903422
-0.089401
-0.0882998
-0.0870409
-0.085627
-0.0840609
-0.0823457
-0.0804845
-0.0784807
-0.076338
-0.0740604
-0.0716528
-0.0691221
-0.0664778
-0.0637332
-0.0609044
-0.0580049
-0.0550311
-0.0519371
-0.048606
-0.0448752
-0.0406899
-0.0363288
-0.0326878
-0.0309061
-0.0317238
-0.0221278
-0.0222672
-0.0229844
-0.0243802
-0.0264551
-0.029182
-0.0324751
-0.0361848
-0.0401366
-0.0441605
-0.0481315
-0.0519676
-0.055631
-0.0591117
-0.0624125
-0.0655405
-0.0685012
-0.0712974
-0.0739291
-0.0763949
-0.078693
-0.0808216
-0.0827794
-0.0845652
-0.0861785
-0.0876188
-0.0888858
-0.0899795
-0.0908996
-0.0916465
-0.0922203
-0.0926214
-0.0928504
-0.0929081
-0.0927952
-0.0925132
-0.0920632
-0.0914469
-0.0906663
-0.0897234
-0.0886208
-0.0873612
-0.0859477
-0.0843839
-0.0826733
-0.0808201
-0.0788285
-0.0767031
-0.0744491
-0.0720727
-0.0695814
-0.0669861
-0.0643012
-0.0615456
-0.058738
-0.0558857
-0.0529608
-0.0498692
-0.0464533
-0.0426225
-0.0385541
-0.035011
-0.0331785
-0.0338405
-0.0228787
-0.0229608
-0.0236355
-0.0249947
-0.0270333
-0.0297156
-0.032955
-0.0366075
-0.0405022
-0.0444801
-0.0484142
-0.0522213
-0.055861
-0.0593215
-0.0626047
-0.0657174
-0.0686649
-0.0714501
-0.0740729
-0.0765322
-0.0788258
-0.080952
-0.0829089
-0.0846955
-0.0863105
-0.0877534
-0.0890236
-0.0901206
-0.0910442
-0.0917943
-0.0923708
-0.092774
-0.0930044
-0.0930625
-0.0929493
-0.0926658
-0.0922136
-0.0915942
-0.0908098
-0.0898628
-0.0887558
-0.0874921
-0.0860753
-0.0845095
-0.0827988
-0.0809483
-0.0789632
-0.0768493
-0.0746127
-0.0722608
-0.0698025
-0.0672497
-0.0646184
-0.0619293
-0.0592059
-0.0564639
-0.0536913
-0.0508163
-0.0476951
-0.0442135
-0.0404713
-0.0370978
-0.0352683
-0.0357673
-0.0233812
-0.0234017
-0.0240275
-0.0253423
-0.0273373
-0.0299709
-0.0331571
-0.0367577
-0.0406066
-0.0445467
-0.0484512
-0.0522363
-0.0558593
-0.059306
-0.0625775
-0.0656798
-0.0686186
-0.0713966
-0.0740142
-0.0764703
-0.0787627
-0.0808895
-0.0828486
-0.0846386
-0.0862581
-0.087706
-0.0889816
-0.090084
-0.0910127
-0.0917673
-0.0923476
-0.0927537
-0.0929858
-0.0930445
-0.0929304
-0.0926447
-0.0921889
-0.0915647
-0.0907743
-0.0898204
-0.0887059
-0.0874345
-0.0860101
-0.0844374
-0.0827215
-0.0808679
-0.0788831
-0.0767737
-0.0745471
-0.0722121
-0.0697788
-0.0672605
-0.0646747
-0.062044
-0.0593954
-0.0567521
-0.0541149
-0.0514334
-0.0485824
-0.0454336
-0.0420299
-0.0388752
-0.0370963
-0.0374441
-0.0236487
-0.0236058
-0.024176
-0.0254376
-0.0273811
-0.0299608
-0.0330922
-0.0366426
-0.0404506
-0.0443592
-0.0482412
-0.0520111
-0.0556239
-0.0590631
-0.0623283
-0.0654253
-0.0683596
-0.0711344
-0.0737506
-0.076207
-0.0785016
-0.0806323
-0.0825968
-0.0843933
-0.0860202
-0.087476
-0.0887594
-0.0898695
-0.0908053
-0.0915662
-0.0921517
-0.0925616
-0.092796
-0.0928553
-0.0927401
-0.0924514
-0.0919908
-0.09136
-0.0905614
-0.0895978
-0.0884725
-0.0871894
-0.0857531
-0.084168
-0.0824412
-0.0805783
-0.0785867
-0.076474
-0.0742491
-0.071922
-0.0695043
-0.0670109
-0.0644608
-0.0618786
-0.0592943
-0.0567369
-0.0542184
-0.0517074
-0.0490992
-0.0462595
-0.0431906
-0.0402868
-0.0386032
-0.0388221
-0.0237012
-0.0235964
-0.0241043
-0.0253022
-0.0271845
-0.0297035
-0.0327754
-0.0362731
-0.0400399
-0.0439196
-0.0477839
-0.0515445
-0.055153
-0.0585904
-0.0618548
-0.0649512
-0.0678854
-0.0706611
-0.0732795
-0.0757399
-0.0780403
-0.0801784
-0.0821519
-0.0839584
-0.0855959
-0.0870626
-0.0883569
-0.0894773
-0.0904226
-0.0911918
-0.0917841
-0.0921991
-0.0924366
-0.0924968
-0.0923803
-0.0920881
-0.0916214
-0.0909824
-0.0901733
-0.0891971
-0.0880574
-0.0867584
-0.0853051
-0.0837029
-0.0819586
-0.0800795
-0.0780735
-0.0759488
-0.0737165
-0.0713874
-0.0689743
-0.0664944
-0.0639684
-0.0614229
-0.0588909
-0.0564058
-0.0539889
-0.0516256
-0.0492316
-0.0466733
-0.0439247
-0.041291
-0.0397438
-0.0398601
-0.0235641
-0.0234031
-0.0238414
-0.024963
-0.0267719
-0.0292202
-0.0322247
-0.0356633
-0.0393844
-0.043234
-0.047082
-0.0508367
-0.0544456
-0.0578861
-0.0611544
-0.0642548
-0.0671932
-0.0699737
-0.0725983
-0.0750665
-0.0773765
-0.0795259
-0.0815121
-0.0833323
-0.0849841
-0.0864653
-0.0877737
-0.0889075
-0.089865
-0.0906448
-0.091246
-0.0916676
-0.0919093
-0.0919711
-0.0918534
-0.091557
-0.0910834
-0.0904343
-0.0896124
-0.0886206
-0.0874629
-0.0861437
-0.0846684
-0.083043
-0.0812749
-0.079372
-0.077343
-0.0751979
-0.0729482
-0.0706062
-0.0681856
-0.0657068
-0.0631907
-0.0606682
-0.0581745
-0.0557468
-0.0534146
-0.0511765
-0.0489679
-0.0466617
-0.0442123
-0.0418577
-0.0404817
-0.0405213
-0.0232674
-0.0230597
-0.0234211
-0.024452
-0.026172
-0.0285361
-0.0314614
-0.0348304
-0.0384975
-0.0423114
-0.0461409
-0.0498901
-0.0535015
-0.0569487
-0.0602249
-0.0633333
-0.0662799
-0.0690694
-0.0717041
-0.074184
-0.0765077
-0.0786725
-0.0806755
-0.0825136
-0.0841838
-0.0856834
-0.0870097
-0.0881603
-0.0891332
-0.0899265
-0.0905388
-0.0909689
-0.0912163
-0.0912805
-0.0911619
-0.0908611
-0.0903795
-0.0897189
-0.0888819
-0.0878716
-0.0866922
-0.0853483
-0.0838457
-0.082191
-0.080392
-0.0784573
-0.0763967
-0.0742211
-0.071943
-0.0695762
-0.067137
-0.0646461
-0.0621237
-0.0596091
-0.057136
-0.0547497
-0.0524849
-0.0503502
-0.0482992
-0.046215
-0.0440408
-0.0419668
-0.0407851
-0.0407708
-0.0228435
-0.0226022
-0.0228799
-0.0238047
-0.0254178
-0.0276803
-0.0305103
-0.0337951
-0.0373953
-0.0411636
-0.0449678
-0.0487081
-0.0523216
-0.0557767
-0.0590636
-0.0621836
-0.0651423
-0.0679446
-0.0705935
-0.0730894
-0.075431
-0.0776157
-0.0796401
-0.0815006
-0.0831938
-0.0847162
-0.0860646
-0.087236
-0.0882279
-0.0890379
-0.0896642
-0.0901052
-0.0903599
-0.0904278
-0.0903089
-0.0900036
-0.0895134
-0.0888398
-0.0879856
-0.0869539
-0.085749
-0.0843759
-0.0828406
-0.0811502
-0.079313