/*--------------------------------*- C++ -*----------------------------------*\
| =========                 |                                                 |
| \\      /  F ield         | OpenFOAM: The Open Source CFD Toolbox           |
|  \\    /   O peration     | Version:  2406                                  |
|   \\  /    A nd           | Website:  www.openfoam.com                      |
|    \\/     M anipulation  |                                                 |
\*---------------------------------------------------------------------------*/
FoamFile
{
    version     2.0;
    format      ascii;
    arch        "LSB;label=32;scalar=64";
    class       surfaceScalarField;
    location    "40.1";
    object      phi;
}
// * * * * * * * * * * * * * * * * * * * * * * * * * * * * * * * * * * * * * //

dimensions      [0 3 -1 0 0 0 0];

oriented        oriented;

internalField   nonuniform List<scalar> 
7080
(
2.15031e-07
-2.14476e-07
1.40788e-06
-1.20355e-06
3.14667e-06
-1.73652e-06
4.94365e-06
-1.80747e-06
6.41034e-06
-1.46509e-06
7.37222e-06
-9.68861e-07
7.85713e-06
-4.8235e-07
7.98614e-06
-1.32124e-07
7.92434e-06
6.53089e-08
7.7683e-06
1.55862e-07
7.5486e-06
2.24088e-07
7.194e-06
3.57151e-07
6.58764e-06
6.12625e-07
5.57181e-06
1.02206e-06
3.99189e-06
1.58975e-06
1.68683e-06
2.31637e-06
-1.49188e-06
3.19368e-06
-5.68828e-06
4.21368e-06
-1.1025e-05
5.35758e-06
-1.76e-05
6.59939e-06
-2.54575e-05
7.88662e-06
-3.45603e-05
9.1366e-06
-4.4755e-05
1.02323e-05
-5.5755e-05
1.10392e-05
-6.7132e-05
1.1415e-05
-7.83313e-05
1.12335e-05
-8.87056e-05
1.04024e-05
-9.75685e-05
8.88343e-06
-0.00010425
6.69322e-06
-0.00010815
3.90289e-06
-0.000108782
6.2576e-07
-0.000105811
-2.98627e-06
-9.90829e-05
-6.75214e-06
-8.86525e-05
-1.04615e-05
-7.48062e-05
-1.38837e-05
-5.80769e-05
-1.67721e-05
-3.92397e-05
-1.88836e-05
-1.92914e-05
-1.99973e-05
6.09637e-07
-1.99501e-05
1.92284e-05
-1.86672e-05
3.53825e-05
-1.61983e-05
4.80773e-05
-1.27344e-05
5.66512e-05
-8.60471e-06
6.08714e-05
-4.24332e-06
6.09804e-05
-1.20072e-07
5.76393e-05
3.33815e-06
5.18071e-05
5.84095e-06
4.45416e-05
7.27864e-06
3.68238e-05
7.73881e-06
2.9402e-05
7.44081e-06
2.27563e-05
6.66891e-06
1.70976e-05
5.67477e-06
1.24596e-05
4.6578e-06
8.74608e-06
3.72335e-06
5.81767e-06
2.94429e-06
3.52245e-06
2.2992e-06
1.75359e-06
1.78164e-06
5.26028e-07
1.22709e-06
-9.47583e-08
6.30697e-07
-9.46804e-08
1.11835e-06
-1.32266e-06
3.909e-06
-3.99561e-06
7.53035e-06
-5.34147e-06
1.10993e-05
-5.37483e-06
1.39686e-05
-4.32165e-06
1.57803e-05
-2.78056e-06
1.6515e-05
-1.21075e-06
1.6299e-05
8.06371e-08
1.53358e-05
1.02907e-06
1.37134e-05
1.77228e-06
1.13945e-05
2.53889e-06
8.15881e-06
3.58358e-06
3.6895e-06
5.0722e-06
-2.40513e-06
7.10157e-06
-1.05106e-05
9.6772e-06
-2.09938e-05
1.27754e-05
-3.41502e-05
1.63212e-05
-5.01744e-05
2.02034e-05
-6.90703e-05
2.42144e-05
-9.05749e-05
2.80585e-05
-0.000114105
3.13632e-05
-0.00013879
3.37596e-05
-0.000163558
3.49314e-05
-0.000187265
3.46729e-05
-0.000208808
3.28875e-05
-0.000227226
2.95867e-05
-0.000241733
2.48571e-05
-0.000251738
1.88497e-05
-0.00025682
1.17535e-05
-0.000256715
3.79464e-06
-0.000251298
-4.7768e-06
-0.000240575
-1.3676e-05
-0.00022469
-2.25874e-05
-0.000203937
-3.11502e-05
-0.000178776
-3.89659e-05
-0.000149865
-4.55957e-05
-0.000118061
-5.05915e-05
-8.44374e-05
-5.35219e-05
-5.02497e-05
-5.40382e-05
-1.68942e-05
-5.19277e-05
1.41874e-05
-4.71922e-05
4.16101e-05
-4.00826e-05
6.41868e-05
-3.11218e-05
8.10396e-05
-2.10568e-05
9.17138e-05
-1.07735e-05
9.62259e-05
-1.17512e-06
9.50916e-05
6.95944e-06
8.92597e-05
1.30787e-05
8.00128e-05
1.69496e-05
6.87535e-05
1.86569e-05
5.68156e-05
1.85696e-05
4.52461e-05
1.72051e-05
3.4751e-05
1.51251e-05
2.56593e-05
1.27842e-05
1.8052e-05
1.05346e-05
1.1829e-05
8.49854e-06
6.88045e-06
6.72255e-06
3.16808e-06
4.92121e-06
7.96609e-07
3.002e-06
6.91756e-07
1.7186e-06
-3.04081e-06
5.5168e-06
-7.81066e-06
1.01624e-05
-9.98464e-06
1.4449e-05
-9.67575e-06
1.76167e-05
-7.48867e-06
1.92256e-05
-4.39798e-06
1.92355e-05
-1.21821e-06
1.77216e-05
1.59196e-06
1.48105e-05
3.94519e-06
1.04517e-05
6.13325e-06
4.42489e-06
8.57326e-06
-3.70443e-06
1.17198e-05
-1.4461e-05
1.58404e-05
-2.84094e-05
2.10631e-05
-4.60359e-05
2.73223e-05
-6.76778e-05
3.44397e-05
-9.33679e-05
4.20397e-05
-0.000122713
4.95815e-05
-0.000154831
5.63689e-05
-0.00018845
6.17177e-05
-0.000222104
6.50637e-05
-0.00025437
6.6078e-05
-0.000284027
6.4647e-05
-0.000310141
6.08481e-05
-0.000332057
5.48626e-05
-0.000349354
4.69383e-05
-0.000361787
3.73341e-05
-0.000369223
2.6318e-05
-0.000371598
1.4147e-05
-0.00036889
1.08857e-06
-0.000361098
-1.25823e-05
-0.000348252
-2.65511e-05
-0.000330425
-4.04597e-05
-0.00030776
-5.38743e-05
-0.000280507
-6.62897e-05
-0.000249069
-7.71151e-05
-0.000214035
-8.57125e-05
-0.000176223
-9.14256e-05
-0.000136677
-9.36742e-05
-9.66606e-05
-9.20314e-05
-5.75801e-05
-8.63509e-05
-2.08984e-05
-7.68318e-05
1.20052e-05
-6.40767e-05
3.99469e-05
-4.90344e-05
6.20562e-05
-3.28995e-05
7.78186e-05
-1.69399e-05
8.71258e-05
-2.33362e-06
9.0269e-05
9.95717e-06
8.79662e-05
1.9284e-05
8.12931e-05
2.53603e-05
7.15986e-05
2.8299e-05
6.0268e-05
2.85626e-05
4.85566e-05
2.68672e-05
3.73744e-05
2.39852e-05
2.73084e-05
2.06257e-05
1.85942e-05
1.72227e-05
1.13499e-05
1.39878e-05
5.61463e-06
1.06575e-05
1.67175e-06
6.96363e-06
2.3648e-06
2.11965e-06
-5.15012e-06
6.4589e-06
-1.21577e-05
1.13817e-05
-1.48924e-05
1.54365e-05
-1.37343e-05
1.7847e-05
-9.88914e-06
1.81812e-05
-4.73524e-06
1.64056e-05
5.61805e-07
1.25012e-05
5.49186e-06
6.41654e-06
1.00292e-05
-2.15693e-06
1.47002e-05
-1.37145e-05
2.01259e-05
-2.89221e-05
2.6918e-05
-4.84238e-05
3.53326e-05
-7.27234e-05
4.53494e-05
-0.00010197
5.65541e-05
-0.000135798
6.82483e-05
-0.00017321
7.94275e-05
-0.000212696
8.90391e-05
-0.000252518
9.61588e-05
-0.000291052
0.000100216
-0.000327008
0.00010098
-0.000359498
9.85238e-05
-0.000387985
9.30872e-05
-0.000412194
8.50091e-05
-0.00043201
7.46327e-05
-0.000447408
6.22966e-05
-0.000458399
4.8293e-05
-0.000464996
3.28925e-05
-0.00046719
1.63302e-05
-0.000464946
-1.1551e-06
-0.000458194
-1.93207e-05
-0.000446845
-3.78737e-05
-0.000430804
-5.64634e-05
-0.000409996
-7.46331e-05
-0.000384409
-9.18185e-05
-0.000354141
-0.000107317
-0.000319461
-0.000120321
-0.000280871
-0.000129941
-0.000239156
-0.000135315
-0.00019541
-0.000135706
-0.000151005
-0.00013069
-0.00010751
-0.00012027
-6.65309e-05
-0.00010501
-2.95372e-05
-8.5996e-05
2.31529e-06
-6.47313e-05
2.82544e-05
-4.28734e-05
4.791e-05
-2.19925e-05
6.12306e-05
-3.37903e-06
6.84728e-05
1.20233e-05
7.01736e-05
2.3633e-05
6.72059e-05
3.12441e-05
6.06844e-05
3.50563e-05
5.18896e-05
3.56435e-05
4.2005e-05
3.38451e-05
3.20459e-05
3.05736e-05
2.26682e-05
2.65788e-05
1.43635e-05
2.22896e-05
7.40343e-06
1.75968e-05
2.34855e-06
1.20234e-05
4.69999e-06
2.3654e-06
-7.51164e-06
6.84962e-06
-1.66579e-05
1.14247e-05
-1.94598e-05
1.44502e-05
-1.67708e-05
1.51882e-05
-1.06228e-05
1.32623e-05
-2.81481e-06
8.64262e-06
5.18579e-06
1.1721e-06
1.29618e-05
-9.45304e-06
2.06599e-05
-2.3849e-05
2.90997e-05
-4.27554e-05
3.90401e-05
-6.69001e-05
5.10704e-05
-9.66933e-05
6.51369e-05
-0.000132014
8.0682e-05
-0.000171999
9.65541e-05
-0.000215099
0.000111366
-0.000259369
0.000123718
-0.000302917
0.00013261
-0.000344229
0.000137498
-0.000382295
0.000138312
-0.000416534
0.000135252
-0.000446688
0.000128714
-0.000472689
0.000119126
-0.000494583
0.00010694
-0.000512465
9.25478e-05
-0.000526444
7.6304e-05
-0.00053662
5.84903e-05
-0.00054307
3.93537e-05
-0.000545826
1.90886e-05
-0.000544874
-2.11407e-06
-0.00054014
-2.4072e-05
-0.000531488
-4.6553e-05
-0.000518718
-6.92688e-05
-0.000501584
-9.18097e-05
-0.000479818
-0.000113635
-0.000453176
-0.000134014
-0.000421508
-0.000152047
-0.000384852
-0.000166656
-0.000343539
-0.000176686
-0.000298296
-0.000181006
-0.0002503
-0.000178736
-0.000201177
-0.000169439
-0.000152855
-0.000153367
-0.00010734
-0.000131538
-6.63868e-05
-0.000105701
-3.1247e-05
-7.80207e-05
-2.54635e-06
-5.06888e-05
1.95944e-05
-2.55107e-05
3.53938e-05
-3.75761e-06
4.52293e-05
1.38149e-05
4.96673e-05
2.68296e-05
4.94555e-05
3.5285e-05
4.55979e-05
3.95237e-05
3.9186e-05
4.02688e-05
3.13578e-05
3.84221e-05
2.3028e-05
3.49134e-05
1.50194e-05
3.03177e-05
7.90398e-06
2.47089e-05
2.54361e-06
1.74049e-05
7.24315e-06
2.49251e-06
-9.99583e-06
6.67578e-06
-2.08518e-05
1.01881e-05
-2.29604e-05
1.13237e-05
-1.79124e-05
9.46261e-06
-8.75562e-06
4.31058e-06
2.33287e-06
-4.20786e-06
1.37055e-05
-1.6461e-05
2.52101e-05
-3.30543e-05
3.72504e-05
-5.4846e-05
5.0885e-05
-8.25757e-05
6.67639e-05
-0.000116569
8.50557e-05
-0.000156381
0.00010494
-0.000200711
0.000125001
-0.000247572
0.000143401
-0.000294775
0.000158554
-0.000340408
0.000169332
-0.000383104
0.000175285
-0.00042204
0.000176411
-0.000456819
0.000173066
-0.000487328
0.000165733
-0.000513626
0.000154982
-0.000535876
0.000141345
-0.000554298
0.000125333
-0.000569139
0.000107361
-0.000580648
8.77914e-05
-0.000589059
6.68856e-05
-0.000594572
4.48578e-05
-0.000597331
2.18469e-05
-0.000597414
-2.02469e-06
-0.000594807
-2.66641e-05
-0.000589397
-5.19409e-05
-0.000580953
-7.76848e-05
-0.000569121
-0.000103609
-0.000553425
-0.000129292
-0.000533298
-0.000154099
-0.000508134
-0.000177168
-0.000477382
-0.000197363
-0.00044069
-0.000213332
-0.00039808
-0.000223573
-0.000350126
-0.000226649
-0.000298099
-0.00022143
-0.000243978
-0.000207457
-0.000190289
-0.000185204
-0.00013971
-0.000156263
-9.45641e-05
-0.000123161
-5.63359e-05
-8.89168e-05
-2.5542e-05
-5.63138e-05
-1.92361e-06
-2.73861e-05
1.51066e-05
-3.23228e-06
2.62258e-05
1.56974e-05
3.20944e-05
2.93975e-05
3.35054e-05
3.81017e-05
3.13474e-05
4.24086e-05
2.66746e-05
4.30887e-05
2.0473e-05
4.10975e-05
1.37587e-05
3.70321e-05
7.36249e-06
3.10859e-05
2.37471e-06
2.2399e-05
9.60508e-06
2.44047e-06
-1.24316e-05
5.79261e-06
-2.42153e-05
7.49702e-06
-2.46572e-05
5.93472e-06
-1.63556e-05
6.55718e-07
-3.47213e-06
-8.57463e-06
1.15623e-05
-2.19559e-05
2.70907e-05
-4.01032e-05
4.336e-05
-6.38374e-05
6.09897e-05
-9.39608e-05
8.10141e-05
-0.000130713
0.000103523
-0.000173448
0.000127799
-0.000220524
0.000152025
-0.000269662
0.000174149
-0.000318502
0.000192252
-0.000365116
0.000205182
-0.000408199
0.000212429
-0.000447013
0.000214117
-0.000481239
0.000210655
-0.000510841
0.000202688
-0.000535966
0.000190879
-0.000556892
0.00017593
-0.000573975
0.00015845
-0.00058762
0.000138999
-0.000598244
0.000118002
-0.000606249
9.58101e-05
-0.000612002
7.26467e-05
-0.000615816
4.86745e-05
-0.000617935
2.39622e-05
-0.000618523
-1.44598e-06
-0.00061765
-2.75538e-05
-0.000615271
-5.43409e-05
-0.000611209
-8.17735e-05
-0.000605126
-0.000109723
-0.000596498
-0.000137955
-0.000584602
-0.000166033
-0.000568525
-0.000193284
-0.000547221
-0.000218708
-0.000519624
-0.00024097
-0.000484847
-0.000258389
-0.000442447
-0.000269084
-0.00039273
-0.000271178
-0.00033701
-0.000263201
-0.00027771
-0.000244523
-0.000218155
-0.000215829
-0.000162018
-0.000179305
-0.000112465
-0.000138469
-7.14041e-05
-9.73713e-05
-3.92043e-05
-5.95757e-05
-1.51455e-05
-2.72824e-05
1.91372e-06
-1.34707e-06
1.3011e-05
1.83098e-05
1.90707e-05
3.20577e-05
2.0934e-05
4.05523e-05
1.95564e-05
4.44817e-05
1.58978e-05
4.47585e-05
1.10375e-05
4.19082e-05
5.97047e-06
3.61496e-05
1.89226e-06
2.64947e-05
1.14972e-05
2.10069e-06
-1.45289e-05
3.95354e-06
-2.60752e-05
3.03572e-06
-2.37354e-05
-2.01227e-06
-1.1311e-05
-1.14588e-05
5.974e-06
-2.55321e-05
2.5633e-05
-4.46181e-05
4.6173e-05
-6.9505e-05
6.82435e-05
-0.000100949
9.24275e-05
-0.000139205
0.000119266
-0.000183516
0.000147827
-0.000232063
0.000176339
-0.000282352
0.000202303
-0.000331875
0.000223664
-0.000378626
0.000238992
-0.000421275
0.000247819
-0.000459082
0.000250222
-0.000491749
0.000246769
-0.000519292
0.000238182
-0.00054196
0.00022534
-0.000560169
0.000209069
-0.00057444
0.000190185
-0.000585348
0.000169342
-0.000593472
0.000147109
-0.000599353
0.000123873
-0.00060348
9.99315e-05
-0.00060627
7.54343e-05
-0.000608066
5.04746e-05
-0.000609141
2.50464e-05
-0.000609697
-8.75304e-07
-0.000609862
-2.73705e-05
-0.000609676
-5.45026e-05
-0.000609076
-8.23461e-05
-0.000607857
-0.000110912
-0.000605626
-0.000140153
-0.000601755
-0.00016987
-0.000595325
-0.00019968
-0.000585112
-0.000228888
-0.000569615
-0.000256436
-0.000547185
-0.000280791
-0.000516271
-0.000299973
-0.000475798
-0.00031163
-0.000425626
-0.000313354
-0.000367002
-0.000303134
-0.000302788
-0.000280032
-0.000237281
-0.000244807
-0.000175415
-0.000200332
-0.000121502
-0.000151288
-7.79839e-05
-0.000103098
-4.50661e-05
-6.02108e-05
-2.13936e-05
-2.50271e-05
-5.22354e-06
2.12704e-06
4.96899e-06
2.18586e-05
1.03417e-05
3.51666e-05
1.19394e-05
4.28804e-05
1.07422e-05
4.59427e-05
7.84012e-06
4.48103e-05
4.30768e-06
3.96681e-05
1.33158e-06
2.94745e-05
1.28193e-05
1.37447e-06
-1.59019e-05
1.00816e-06
-2.57085e-05
-3.2782e-06
-1.94482e-05
-1.24436e-05
-2.14143e-06
-2.66194e-05
2.01499e-05
-4.60808e-05
4.51007e-05
-7.13731e-05
7.14663e-05
-0.000103213
0.000100091
-0.000141864
0.000131081
-0.000186607
0.000164018
-0.000235575
0.000196799
-0.000286152
0.000226925
-0.00033568
0.000251836
-0.000382015
0.000270009
-0.000423732
0.000280717
-0.000460038
0.000284137
-0.000490636
0.000280829
-0.000515602
0.000271749
-0.000535308
0.000257901
-0.000550332
0.000240378
-0.000561371
0.000220121
-0.000569161
0.000197989
-0.000574412
0.000174605
-0.000577761
0.000150469
-0.000579754
0.000125873
-0.000580834
0.000101017
-0.000581359
7.59588e-05
-0.000581606
5.07189e-05
-0.000581797
2.5229e-05
-0.000582105
-5.79537e-07
-0.000582664
-2.68269e-05
-0.000583572
-5.36133e-05
-0.000584875
-8.10655e-05
-0.000586539
-0.000109271
-0.000588408
-0.000138309
-0.000590134
-0.000168169
-0.000591095
-0.000198744
-0.000590301
-0.000229706
-0.000586324
-0.000260437
-0.000577282
-0.000289855
-0.000560954
-0.000316323
-0.000535055
-0.00033755
-0.000497726
-0.0003507
-0.000448198
-0.000352677
-0.000387477
-0.000340762
-0.00031882
-0.00031347
-0.000247599
-0.000271553
-0.000180276
-0.000218609
-0.000122524
-0.000160844
-7.73796e-05
-0.00010535
-4.46857e-05
-5.77118e-05
-2.23233e-05
-2.02299e-05
-7.81806e-06
7.36375e-06
7.82374e-07
2.65704e-05
4.96848e-06
3.87049e-05
5.92771e-06
4.49853e-05
4.81091e-06
4.5938e-05
2.73454e-06
4.17434e-05
8.15106e-07
3.14052e-05
1.36356e-05
1.56157e-07
-1.60637e-05
-3.16488e-06
-2.2382e-05
-1.14646e-05
-1.11589e-05
-2.52196e-05
1.16189e-05
-4.44955e-05
3.94149e-05
-6.96087e-05
7.02168e-05
-0.000101105
0.000102952
-0.000139274
0.00013826
-0.000183529
0.000175326
-0.000232085
0.000212572
-0.000282307
0.000247011
-0.000331385
0.000275999
-0.000377008
0.000297449
-0.000417591
0.000310586
-0.000452258
0.000315374
-0.000480693
0.000312564
-0.000503046
0.000303171
-0.00051982
0.000288514
-0.000531765
0.000269835
-0.000539753
0.000248358
-0.000544675
0.000225033
-0.000547347
0.000200654
-0.000548474
0.000175724
-0.000548615
0.000150606
-0.000548202
0.000125456
-0.000547549
0.000100364
-0.000546883
7.52958e-05
-0.00054637
5.02123e-05
-0.000546138
2.5006e-05
-0.000546296
-4.0846e-07
-0.000546949
-2.61581e-05
-0.000548202
-5.23414e-05
-0.000550159
-7.9088e-05
-0.000552907
-0.000106501
-0.000556488
-0.000134704
-0.000560848
-0.000163785
-0.000565755
-0.000193812
-0.000570692
-0.000224745
-0.000574719
-0.000256387
-0.000576338
-0.000288214
-0.000573413
-0.000319228
-0.000563222
-0.000347725
-0.000542739
-0.000371169
-0.000509222
-0.000386186
-0.000461087
-0.000388891
-0.000398931
-0.000375624
-0.00032632
-0.000344162
-0.000249815
-0.000295116
-0.000177633
-0.000233027
-0.000116989
-0.000166
-7.1365e-05
-0.00010334
-3.997e-05
-5.16329e-05
-1.96951e-05
-1.29155e-05
-7.40328e-06
1.42701e-05
-6.91488e-07
3.19903e-05
2.15889e-06
4.21264e-05
2.52776e-06
4.55683e-05
1.61569e-06
4.26466e-05
4.86599e-07
3.2535e-05
1.41161e-05
-1.5636e-06
-1.45066e-05
-8.44024e-06
-1.54845e-05
-2.11624e-05
1.54945e-06
-3.97126e-05
3.01884e-05
-6.41493e-05
6.38426e-05
-9.47359e-05
0.00010082
-0.000131766
0.000139978
-0.00017479
0.000181297
-0.000222275
0.00022281
-0.000271638
0.000261948
-0.000320005
0.000295379
-0.000364838
0.000320842
-0.00040438
0.000336994
-0.000437614
0.00034383
-0.000464206
0.00034197
-0.000484349
0.000332718
-0.000498685
0.000317513
-0.000508121
0.00029796
-0.000513703
0.000275424
-0.000516449
0.000251114
-0.000517273
0.000225863
-0.000516908
0.000200297
-0.000515913
0.000174732
-0.000514674
0.000149371
-0.000513445
0.000124227
-0.000512379
9.92964e-05
-0.000511566
7.44776e-05
-0.00051106
4.9699e-05
-0.000510904
2.48393e-05
-0.000511145
-1.8081e-07
-0.000511845
-2.54732e-05
-0.000513092
-5.11124e-05
-0.000514996
-7.72035e-05
-0.00051769
-0.000103827
-0.000521319
-0.000131097
-0.000526008
-0.000159118
-0.00053182
-0.000188021
-0.000538669
-0.000217916
-0.0005462
-0.000248875
-0.00055361
-0.00028082
-0.000559459
-0.000313393
-0.000561493
-0.000345702
-0.000556613
-0.000376057
-0.000541115
-0.000401691
-0.000511337
-0.000418675
-0.000464767
-0.0004222
-0.000401449
-0.000407483
-0.000325228
-0.000371339
-0.000243989
-0.000314263
-0.00016796
-0.000242025
-0.000105912
-0.000165381
-6.13983e-05
-9.61429e-05
-3.24871e-05
-4.18202e-05
-1.50171e-05
-3.197e-06
-5.24229e-06
2.22221e-05
-4.9575e-07
3.73815e-05
1.12316e-06
4.39563e-05
1.0389e-06
4.2731e-05
3.6759e-07
3.32134e-05
1.44853e-05
-3.76779e-06
-1.07573e-05
-1.46335e-05
-4.5927e-06
-3.1954e-05
1.88383e-05
-5.52498e-05
5.35037e-05
-8.45753e-05
9.31434e-05
-0.000119975
0.000136231
-0.000161255
0.000181238
-0.000207103
0.000227151
-0.000255232
0.000270923
-0.000302696
0.000309413
-0.000346821
0.00033949
-0.000385574
0.000359595
-0.000417805
0.000369215
-0.000443075
0.000369098
-0.000461625
0.00036051
-0.000474171
0.000345261
-0.000481783
0.000325117
-0.00048564
0.000301812
-0.000486892
0.000276668
-0.000486516
0.000250734
-0.000485282
0.000224622
-0.000483724
0.000198736
-0.000482191
0.000173196
-0.000480871
0.000148051
-0.000479854
0.00012321
-0.000479159
9.86047e-05
-0.000478779
7.41016e-05
-0.000478693
4.96209e-05
-0.000478892
2.50477e-05
-0.000479382
3.2127e-07
-0.000480196
-2.46464e-05
-0.000481393
-4.99004e-05
-0.000483067
-7.55134e-05
-0.000485344
-0.000101532
-0.000488388
-0.000128036
-0.000492383
-0.000155104
-0.000497527
-0.00018286
-0.000503979
-0.000211447
-0.000511793
-0.000241046
-0.000520776
-0.000271823
-0.000530301
-0.000303855
-0.000539045
-0.000336946
-0.000544739
-0.000370354
-0.000544016
-0.000402406
-0.00053258
-0.000430104
-0.00050588
-0.000448896
-0.000460442
-0.00045292
-0.000395725
-0.000436058
-0.000315929
-0.000394063
-0.000230537
-0.000327421
-0.000152049
-0.000243871
-9.0595e-05
-0.0001576
-4.89979e-05
-8.34198e-05
-2.36924e-05
-2.85076e-05
-9.49017e-06
8.01727e-06
-2.36138e-06
3.02473e-05
4.97985e-07
4.10958e-05
9.85941e-07
4.22371e-05
4.58138e-07
3.37414e-05
1.49391e-05
-6.29627e-06
-4.47821e-06
-2.12928e-05
1.04505e-05
-4.30766e-05
4.05879e-05
-7.07561e-05
8.12211e-05
-0.000104328
0.000126694
-0.000143444
0.000175375
-0.000187292
0.000225073
-0.000233794
0.000273675
-0.00028025
0.000317372
-0.000323756
0.000352935
-0.000362104
0.000377836
-0.000393855
0.000391359
-0.000418488
0.000393848
-0.000436161
0.000386782
-0.000447676
0.000372027
-0.000454181
0.000351775
-0.000457004
0.000327943
-0.000457386
0.000302203
-0.00045639
0.000275675
-0.000454796
0.000249146
-0.000453139
0.000222966
-0.000451714
0.000197316
-0.000450668
0.000172149
-0.000450024
0.000147408
-0.000449756
0.000122939
-0.0004498
9.86465e-05
-0.000450099
7.4394e-05
-0.000450597
5.01121e-05
-0.000451263
2.57037e-05
-0.000452083
1.13023e-06
-0.00045307
-2.3672e-05
-0.000454262
-4.87222e-05
-0.000455727
-7.40641e-05
-0.000457561
-9.9713e-05
-0.000459901
-0.000125712
-0.00046292
-0.000152101
-0.000466835
-0.000178961
-0.000471891
-0.000206405
-0.000478338
-0.000234613
-0.000486349
-0.000263825
-0.000495897
-0.000294318
-0.000506526
-0.000326326
-0.000517055
-0.000359832
-0.000525224
-0.000394242
-0.000527452
-0.000427879
-0.000518904
-0.000457446
-0.000494191
-0.000477633
-0.000448925
-0.000481324
-0.00038209
-0.000460898
-0.00029852
-0.000410992
-0.000209749
-0.00033264
-0.000130801
-0.000236545
-7.24748e-05
-0.00014174
-3.5696e-05
-6.52833e-05
-1.48632e-05
-1.28123e-05
-4.2599e-06
1.96457e-05
2.06711e-07
3.66336e-05
1.23591e-06
4.12079e-05
6.78005e-07
3.43048e-05
1.56179e-05
-8.99295e-06
4.48285e-06
-2.80163e-05
2.95235e-05
-5.38833e-05
6.63996e-05
-8.53266e-05
0.0001127
-0.000122201
0.000163529
-0.000163653
0.000216848
-0.000208277
0.000269669
-0.000253469
0.000318879
-0.000296471
0.000360351
-0.000334704
0.000391175
-0.000366554
0.00040967
-0.000391202
0.00041601
-0.00040876
0.000411393
-0.00041995
0.000397973
-0.000426025
0.000378091
-0.000428373
0.000354122
-0.000428369
0.00032793
-0.000427124
0.000300956
-0.000425476
0.00027402
-0.000423938
0.000247608
-0.0004228
0.000221822
-0.00042215
0.000196666
-0.000421984
0.000171981
-0.000422225
0.000147651
-0.000422789
0.000123502
-0.000423578
9.94408e-05
-0.000424524
7.53442e-05
-0.000425566
5.11617e-05
-0.000426673
2.68182e-05
-0.000427826
2.29431e-06
-0.000429035
-2.24531e-05
-0.000430319
-4.74258e-05
-0.000431724
-7.26463e-05
-0.000433314
-9.81098e-05
-0.000435182
-0.000123831
-0.000437452
-0.000149818
-0.000440296
-0.000176104
-0.000443935
-0.000202754
-0.000448649
-0.000229888
-0.000454751
-0.000257713
-0.000462533
-0.000286528
-0.000472117
-0.000316735
-0.000483221
-0.000348722
-0.000494781
-0.000382678
-0.000504532
-0.000418124
-0.000508643
-0.000453331
-0.000501733
-0.00048454
-0.000477603
-0.000505452
-0.000431079
-0.000507423
-0.000360966
-0.000481108
-0.000273298
-0.000420314
-0.000182356
-0.00032749
-0.000105716
-0.000218381
-5.33993e-05
-0.000117599
-2.29865e-05
-4.32282e-05
-7.22156e-06
3.87769e-06
-3.31237e-07
2.97418e-05
1.50894e-06
3.93632e-05
9.39729e-07
3.48749e-05
1.65541e-05
-1.15835e-05
1.60389e-05
-3.42232e-05
5.22344e-05
-6.3534e-05
9.56557e-05
-9.78921e-05
0.000147114
-0.000136929
0.000202533
-0.000179265
0.000259223
-0.000223036
0.00031342
-0.000265396
0.000361266
-0.000303807
0.000398752
-0.000336181
0.000423569
-0.000361538
0.000435021
-0.000379671
0.000434159
-0.000391283
0.000423002
-0.00039754
0.000404243
-0.000399958
0.000380509
-0.000399954
0.000354129
-0.000398769
0.000326746
-0.000397259
0.000299454
-0.00039599
0.000272751
-0.000395213
0.000246837
-0.000395019
0.000221627
-0.000395351
0.000197002
-0.000396123
0.000172751
-0.00039721
0.000148738
-0.000398512
0.000124801
-0.000399934
0.000100861
-0.000401415
7.68185e-05
-0.000402902
5.26436e-05
-0.000404374
2.82819e-05
-0.000405816
3.72852e-06
-0.000407237
-2.10432e-05
-0.000408648
-4.60245e-05
-0.000410082
-7.12238e-05
-0.000411577
-9.66261e-05
-0.000413192
-0.000122228
-0.000415002
-0.000148019
-0.000417119
-0.000173998
-0.000419694
-0.000200189
-0.000422948
-0.000226643
-0.000427174
-0.000253496
-0.000432744
-0.000280965
-0.000440048
-0.000309438
-0.000449363
-0.000339413
-0.000460559
-0.000371485
-0.000472676
-0.00040601
-0.000483365
-0.000442643
-0.000488456
-0.000479449
-0.000481918
-0.000511988
-0.000456749
-0.000532591
-0.000407184
-0.00053067
-0.000332405
-0.000495097
-0.000240565
-0.00041933
-0.000149592
-0.000309356
-7.89644e-05
-0.00018822
-3.53567e-05
-8.68329e-05
-1.22997e-05
-1.91777e-05
-1.74759e-06
1.91914e-05
1.48579e-06
3.613e-05
1.13613e-06
3.52287e-05
1.76906e-05
-1.38843e-05
2.98804e-05
-3.95445e-05
7.79637e-05
-7.15119e-05
0.000127548
-0.000107815
0.000183466
-0.000147819
0.000242486
-0.000189687
0.000301121
-0.00023129
0.000354986
-0.000269798
0.000399791
-0.000303079
0.000432007
-0.000329601
0.000450101
-0.000349009
0.000454409
-0.00036166
0.000446816
-0.000368732
0.000430059
-0.00037166
0.000407172
-0.000372016
0.000380853
-0.000371075
0.000353188
-0.000369829
0.000325489
-0.000368843
0.000298469
-0.000368426
0.000272326
-0.000368627
0.000247039
-0.000369405
0.0002224
-0.000370627
0.000198225
-0.000372176
0.000174298
-0.000373921
0.000150487
-0.000375777
0.000126657
-0.000377661
0.000102749
-0.00037953
7.86907e-05
-0.000381345
5.44658e-05
-0.000383097
3.00389e-05
-0.000384774
5.41453e-06
-0.000386388
-1.9421e-05
-0.000387949
-4.44542e-05
-0.00038948
-6.96833e-05
-0.000391005
-9.5091e-05
-0.00039256
-0.000120663
-0.000394185
-0.000146384
-0.000395943
-0.000172232
-0.000397916
-0.000198207
-0.000400244
-0.000224308
-0.000403127
-0.000250606
-0.000406873
-0.000277213
-0.000411892
-0.000304414
-0.000418673
-0.000332627
-0.000427623
-0.000362533
-0.00043876
-0.000394872
-0.00045116
-0.000430242
-0.000462309
-0.000468301
-0.000467522
-0.000506773
-0.000459986
-0.000540127
-0.000431874
-0.000558778
-0.000377194
-0.000549779
-0.00029638
-0.000500149
-0.000201085
-0.000404656
-0.000113702
-0.000275607
-5.3288e-05
-0.000147241
-2.02277e-05
-5.22388e-05
-4.52882e-06
3.48893e-06
9.45132e-07
3.06545e-05
1.20004e-06
3.49731e-05
1.88886e-05
-1.56501e-05
4.54961e-05
-4.35362e-05
0.000105938
-7.72526e-05
0.000161195
-0.000114483
0.000220765
-0.000154323
0.000282284
-0.000194604
0.000341449
-0.000233124
0.000393481
-0.000267266
0.000433965
-0.000295393
0.000460119
-0.000316535
0.000471267
-0.000330909
0.000468776
-0.000339334
0.00045526
-0.000343302
0.000434022
-0.000344324
0.00040821
-0.000343868
0.000380394
-0.000342957
0.000352289
-0.000342302
0.000324834
-0.000342203
0.000298378
-0.000342771
0.000272894
-0.000343921
0.000248196
-0.000345548
0.000224025
-0.000347492
0.000200173
-0.000349641
0.000176445
-0.00035188
0.000152727
-0.000354143
0.000128916
-0.000356366
0.000104971
-0.000358522
8.08414e-05
-0.000360582
5.65228e-05
-0.000362545
3.19952e-05
-0.000364405
7.26818e-06
-0.000366173
-1.76604e-05
-0.000367859
-4.27755e-05
-0.000369485
-6.80667e-05
-0.000371065
-9.35185e-05
-0.000372627
-0.00011911
-0.000374192
-0.000144827
-0.000375793
-0.000170639
-0.000377467
-0.00019654
-0.000379285
-0.000222497
-0.000381356
-0.000248541
-0.000383881
-0.000274693
-0.000387167
-0.000301132
-0.00039168
-0.000328118
-0.000397988
-0.000356228
-0.000406631
-0.00038623
-0.000417715
-0.000419159
-0.000430291
-0.000455727
-0.000441489
-0.000495573
-0.000445926
-0.000535691
-0.000435794
-0.000568905
-0.000402541
-0.000583031
-0.000340534
-0.000562152
-0.000252868
-0.00049233
-0.000156501
-0.000371974
-7.80696e-05
-0.000225674
-3.14708e-05
-9.88225e-05
-8.98806e-06
-1.90019e-05
-2.33494e-07
2.19052e-05
1.09995e-06
3.36387e-05
1.99903e-05
-1.67912e-05
6.22384e-05
-4.60541e-05
0.000135281
-8.06086e-05
0.000195662
-0.000117806
0.000258021
-0.000156511
0.00032093
-0.00019437
0.000379341
-0.000229271
0.000428341
-0.000258932
0.000463647
-0.000282238
0.000483395
-0.00029874
0.000487781
-0.000309134
0.000479148
-0.000314565
0.000460698
-0.000316665
0.000436104
-0.000316867
0.000408415
-0.000316423
0.000379936
-0.000316075
0.000351942
-0.000316275
0.000325022
-0.000317114
0.000299218
-0.000318577
0.000274348
-0.000320509
0.000250129
-0.000322789
0.000226298
-0.000325261
0.000202647
-0.000327838
0.000179018
-0.000330423
0.000155315
-0.000332974
0.000131466
-0.00033544
0.000107441
-0.000337809
8.32116e-05
-0.000340057
5.87761e-05
-0.000342187
3.41292e-05
-0.000344195
9.28238e-06
-0.000346094
-1.57555e-05
-0.000347892
-4.09699e-05
-0.000349611
-6.63414e-05
-0.000351263
-9.18585e-05
-0.000352873
-0.000117493
-0.000354454
-0.00014324
-0.000356025
-0.000169061
-0.000357599
-0.00019496
-0.000359205
-0.000220885
-0.000360883
-0.000246858
-0.000362735
-0.000272838
-0.000364939
-0.000298924
-0.000367833
-0.000325221
-0.00037192
-0.000352138
-0.000377885
-0.000380266
-0.000386361
-0.000410681
-0.000397517
-0.000444572
-0.000410199
-0.00048289
-0.000420992
-0.000524901
-0.000423485
-0.000566407
-0.000408774
-0.000597744
-0.000367804
-0.000603113
-0.000296458
-0.000563689
-0.000202474
-0.000465953
-0.000110141
-0.00031803
-4.68198e-05
-0.000162118
-1.51741e-05
-5.06591e-05
-2.15063e-06
8.88494e-06
8.59933e-07
3.06233e-05
2.08507e-05
-1.71863e-05
7.93876e-05
-4.6919e-05
0.000165109
-8.14184e-05
0.000230087
-0.000117721
0.000294397
-0.000154517
0.00035768
-0.000189407
0.000414282
-0.000220489
0.000459395
-0.000245874
0.000489068
-0.000264938
0.000502443
-0.000277681
0.000500551
-0.000285157
0.000486614
-0.000288685
0.000464249
-0.00028989
0.000437304
-0.000290018
0.000408561
-0.000290068
0.000379983
-0.000290515
0.000352403
-0.000291608
0.000326113
-0.000293296
0.000300918
-0.0002955
0.000276551
-0.000298043
0.00025268
-0.000300812
0.000229066
-0.000303674
0.000205515
-0.000306567
0.000181909
-0.000309415
0.000158165
-0.00031219
0.000134239
-0.000314853
0.000110105
-0.000317397
8.57513e-05
-0.000319801
6.11782e-05
-0.00032207
3.63931e-05
-0.000324198
1.14069e-05
-0.0003262
-1.37595e-05
-0.000328082
-3.90935e-05
-0.000329865
-6.45646e-05
-0.000331563
-9.01667e-05
-0.000333199
-0.000115862
-0.000334788
-0.000141657
-0.000336347
-0.000167506
-0.000337883
-0.00019343
-0.000339405
-0.000219367
-0.000340919
-0.000245349
-0.000342458
-0.000271301
-0.000344095
-0.00029729
-0.000346023
-0.000323295
-0.000348585
-0.000349577
-0.000352376
-0.000376476
-0.000358163
-0.000404894
-0.000366708
-0.00043603
-0.000378101
-0.000471495
-0.000390825
-0.00051218
-0.000400526
-0.000556702
-0.000399504
-0.000598768
-0.00037767
-0.000624937
-0.000326226
-0.000615136
-0.000244394
-0.000547786
-0.000147438
-0.000414996
-6.73289e-05
-0.000242225
-2.31706e-05
-9.48007e-05
-4.92696e-06
-9.36659e-06
4.96885e-07
2.51995e-05
2.13496e-05
-1.68753e-05
9.62129e-05
-4.62351e-05
0.00019455
-7.98922e-05
0.000263655
-0.000114597
0.000329161
-0.000148928
0.00039195
-0.000180561
0.00044595
-0.000207866
0.000486655
-0.000229361
0.000510585
-0.000244854
0.000517903
-0.000254696
0.000510407
-0.000260172
0.000492064
-0.000262643
0.000466727
-0.000263612
0.000438252
-0.000264093
0.000409046
-0.000264836
0.000380709
-0.000266097
0.000353666
-0.00026798
0.000327983
-0.000270357
0.000303296
-0.000273124
0.000279308
-0.000276112
0.000255668
-0.000279232
0.000232179
-0.000282375
0.00020866
-0.000285501
0.00018503
-0.000288549
0.000161215
-0.000291504
0.000137192
-0.00029433
0.000112934
-0.000297024
8.84453e-05
-0.000299565
6.37232e-05
-0.000301958
3.87883e-05
-0.000304196
1.36493e-05
-0.000306291
-1.16601e-05
-0.00030825
-3.71301e-05
-0.000310092