/*--------------------------------*- C++ -*----------------------------------*\
| =========                 |                                                 |
| \\      /  F ield         | OpenFOAM: The Open Source CFD Toolbox           |
|  \\    /   O peration     | Version:  2406                                  |
|   \\  /    A nd           | Website:  www.openfoam.com                      |
|    \\/     M anipulation  |                                                 |
\*---------------------------------------------------------------------------*/
FoamFile
{
    version     2.0;
    format      ascii;
    arch        "LSB;label=32;scalar=64";
    class       volVectorField;
    location    "33.7";
    object      Uold;
}
// * * * * * * * * * * * * * * * * * * * * * * * * * * * * * * * * * * * * * //

dimensions      [0 1 -1 0 0 0 0];

internalField   nonuniform List<vector> 
3600
(
(-1.67296e-05 5.94858e-06 0)
(0.00035564 -0.000177127 0)
(0.00111271 -0.000279471 0)
(0.00198084 -0.000299679 0)
(0.00280858 -0.000246027 0)
(0.00340451 -0.00016956 0)
(0.00379528 -9.86152e-05 0)
(0.00396631 -5.56394e-05 0)
(0.00403119 -4.146e-05 0)
(0.00400954 -4.64433e-05 0)
(0.00395505 -5.42984e-05 0)
(0.00381861 -4.96516e-05 0)
(0.00356307 -2.36621e-05 0)
(0.00309366 2.71626e-05 0)
(0.0023414 0.000101852 0)
(0.00121304 0.000200702 0)
(-0.000364105 0.000324921 0)
(-0.00247649 0.000476451 0)
(-0.00519289 0.000650714 0)
(-0.00858003 0.000837262 0)
(-0.0126765 0.00102642 0)
(-0.0174905 0.0012198 0)
(-0.022972 0.00142626 0)
(-0.0290044 0.00164817 0)
(-0.0353919 0.00186579 0)
(-0.0418629 0.0020368 0)
(-0.0480801 0.0021074 0)
(-0.053664 0.00202984 0)
(-0.0582238 0.00177334 0)
(-0.0613877 0.00132985 0)
(-0.0628339 0.00071244 0)
(-0.0623119 -4.65348e-05 0)
(-0.0596676 -0.0008996 0)
(-0.0548556 -0.0017861 0)
(-0.0479619 -0.00263628 0)
(-0.0392065 -0.00337426 0)
(-0.0289594 -0.00392482 0)
(-0.0177207 -0.00422052 0)
(-0.00611625 -0.00421257 0)
(0.00516458 -0.00388136 0)
(0.015404 -0.00324615 0)
(0.0239639 -0.00237024 0)
(0.030332 -0.0013567 0)
(0.0342378 -0.000335825 0)
(0.0356496 0.000561404 0)
(0.0348302 0.00123011 0)
(0.0322271 0.00162092 0)
(0.0284497 0.00174536 0)
(0.0240777 0.00166746 0)
(0.019652 0.00146844 0)
(0.0155098 0.00122315 0)
(0.0118947 0.000978222 0)
(0.00884145 0.000762208 0)
(0.00638049 0.000581829 0)
(0.00439187 0.000444833 0)
(0.00284482 0.000338407 0)
(0.00160229 0.000259972 0)
(0.000687481 0.000162432 0)
(9.26938e-05 4.64518e-05 0)
(-9.2865e-05 -0.000101354 0)
(0.000145954 -0.000339192 0)
(0.00113515 -0.00116253 0)
(0.00276395 -0.00158576 0)
(0.00450298 -0.0016226 0)
(0.00610059 -0.00132899 0)
(0.00721288 -0.000893301 0)
(0.00784272 -0.000453535 0)
(0.00793992 -0.000103783 0)
(0.00764646 0.000139428 0)
(0.00696795 0.000323518 0)
(0.00593974 0.000522205 0)
(0.00443403 0.00081572 0)
(0.00231707 0.00125172 0)
(-0.000635992 0.00185602 0)
(-0.00462062 0.00262745 0)
(-0.00985619 0.00356238 0)
(-0.0165125 0.00464503 0)
(-0.024737 0.00585536 0)
(-0.0345881 0.00715825 0)
(-0.0460167 0.00850846 0)
(-0.0588019 0.00983046 0)
(-0.0725559 0.0110134 0)
(-0.0867389 0.011914 0)
(-0.100725 0.0123899 0)
(-0.113866 0.0123233 0)
(-0.125556 0.011642 0)
(-0.135274 0.0103197 0)
(-0.142602 0.00837722 0)
(-0.147228 0.00587132 0)
(-0.148935 0.00289122 0)
(-0.147595 -0.000451121 0)
(-0.14316 -0.00402093 0)
(-0.135661 -0.00766566 0)
(-0.125215 -0.0112118 0)
(-0.112032 -0.0144702 0)
(-0.0964266 -0.017237 0)
(-0.0788356 -0.0193084 0)
(-0.0598096 -0.0204933 0)
(-0.0400299 -0.020642 0)
(-0.020261 -0.019671 0)
(-0.00134575 -0.0175949 0)
(0.0158937 -0.0145426 0)
(0.0306764 -0.0107631 0)
(0.0423982 -0.00660485 0)
(0.0506289 -0.00246993 0)
(0.0552446 0.00124355 0)
(0.056358 0.00421571 0)
(0.0544176 0.00625385 0)
(0.0500396 0.00733047 0)
(0.0440557 0.00756171 0)
(0.0372325 0.00716839 0)
(0.0303309 0.00639313 0)
(0.0238107 0.00545928 0)
(0.0180477 0.0045164 0)
(0.0130817 0.00367269 0)
(0.00899342 0.00294142 0)
(0.00561771 0.00232699 0)
(0.00301613 0.00168457 0)
(0.00110724 0.000987821 0)
(0.000105394 0.000125065 0)
(0.000254513 -0.00107647 0)
(0.00163274 -0.00282332 0)
(0.00377115 -0.00365639 0)
(0.00589848 -0.00361222 0)
(0.00771334 -0.00287718 0)
(0.00878724 -0.00180254 0)
(0.00911512 -0.000689925 0)
(0.00861253 0.000285214 0)
(0.00739301 0.0010874 0)
(0.00539745 0.0018317 0)
(0.00257251 0.00268105 0)
(-0.00132296 0.00381552 0)
(-0.00654186 0.00533934 0)
(-0.0134166 0.0073058 0)
(-0.0222236 0.00969884 0)
(-0.0332118 0.0124786 0)
(-0.0464924 0.0155578 0)
(-0.062006 0.0188084 0)
(-0.079425 0.0220179 0)
(-0.098175 0.0249045 0)
(-0.117489 0.0271502 0)
(-0.136539 0.0284853 0)
(-0.154547 0.0287291 0)
(-0.170868 0.027811 0)
(-0.185015 0.0257445 0)
(-0.196649 0.0226078 0)
(-0.205555 0.0185109 0)
(-0.211606 0.013587 0)
(-0.214732 0.00797676 0)
(-0.214898 0.0018333 0)
(-0.212092 -0.00468222 0)
(-0.206316 -0.0113886 0)
(-0.197598 -0.018084 0)
(-0.185994 -0.0245329 0)
(-0.171617 -0.0304693 0)
(-0.154648 -0.0355919 0)
(-0.135374 -0.0395841 0)
(-0.114193 -0.0421298 0)
(-0.0916492 -0.0429585 0)
(-0.0684036 -0.0418831 0)
(-0.0452461 -0.0388579 0)
(-0.0230083 -0.0340074 0)
(-0.00254634 -0.0276502 0)
(0.0153933 -0.0202724 0)
(0.0301721 -0.0124782 0)
(0.0413936 -0.00490956 0)
(0.0488327 0.00184181 0)
(0.0525646 0.00730509 0)
(0.0528387 0.0111961 0)
(0.0502233 0.0134431 0)
(0.0453831 0.0141939 0)
(0.0391902 0.0137595 0)
(0.0323591 0.0125437 0)
(0.0256121 0.010928 0)
(0.0192909 0.0092327 0)
(0.0137456 0.00761672 0)
(0.0089379 0.00614417 0)
(0.00507159 0.00463221 0)
(0.00204773 0.00296318 0)
(0.000306026 0.000893196 0)
(0.000324841 -0.00199453 0)
(0.00192149 -0.0047435 0)
(0.00424774 -0.00588907 0)
(0.00633037 -0.00555077 0)
(0.00784694 -0.00413998 0)
(0.00833824 -0.00217835 0)
(0.00780974 -0.000135173 0)
(0.00613961 0.00176957 0)
(0.00336776 0.00351298 0)
(-0.000685768 0.00531335 0)
(-0.00622171 0.00743687 0)
(-0.0136187 0.0101575 0)
(-0.0232299 0.0136043 0)
(-0.0354104 0.0178075 0)
(-0.0503527 0.0226623 0)
(-0.0680534 0.0279802 0)
(-0.0881762 0.0334285 0)
(-0.110065 0.0385633 0)
(-0.132809 0.0428747 0)
(-0.15544 0.0459324 0)
(-0.177091 0.0474522 0)
(-0.197097 0.0473311 0)
(-0.215013 0.0455958 0)
(-0.230574 0.0423661 0)
(-0.243644 0.0377976 0)
(-0.254166 0.0320634 0)
(-0.262126 0.0253266 0)
(-0.26752 0.0177456 0)
(-0.270346 0.00946547 0)
(-0.270585 0.000634638 0)
(-0.268206 -0.0085945 0)
(-0.263157 -0.0180433 0)
(-0.255387 -0.0275029 0)
(-0.24484 -0.0367112 0)
(-0.231491 -0.0453538 0)
(-0.215357 -0.053052 0)
(-0.196545 -0.0593834 0)
(-0.175268 -0.063898 0)
(-0.1519 -0.0661769 0)
(-0.126975 -0.0658839 0)
(-0.101216 -0.0628526 0)
(-0.0754739 -0.0571394 0)
(-0.0506952 -0.0490741 0)
(-0.0277773 -0.0392331 0)
(-0.00752497 -0.0283822 0)
(0.00950403 -0.0173579 0)
(0.0229344 -0.00695854 0)
(0.0326662 0.00214325 0)
(0.0387128 0.00945457 0)
(0.0413471 0.0146919 0)
(0.0409275 0.017808 0)
(0.0381063 0.0189923 0)
(0.0335193 0.0186329 0)
(0.0279896 0.0172201 0)
(0.0220559 0.0152455 0)
(0.0163403 0.0130636 0)
(0.0110084 0.0108569 0)
(0.00648321 0.00849666 0)
(0.00273799 0.00573807 0)
(0.00045904 0.00214394 0)
(0.000365433 -0.00308199 0)
(0.00202773 -0.00684797 0)
(0.00426061 -0.00813126 0)
(0.00593055 -0.00720908 0)
(0.00670186 -0.00481518 0)
(0.00612064 -0.00165469 0)
(0.00420183 0.00164077 0)
(0.000778932 0.00486212 0)
(-0.00422217 0.00804753 0)
(-0.011134 0.0115588 0)
(-0.0203167 0.0157604 0)
(-0.0322333 0.0209733 0)
(-0.0472089 0.0272593 0)
(-0.0653885 0.0344908 0)
(-0.0865533 0.0422821 0)
(-0.110101 0.0500751 0)
(-0.135072 0.0571632 0)
(-0.160373 0.0628948 0)
(-0.18499 0.0667833 0)
(-0.208156 0.0685989 0)
(-0.22937 0.0683073 0)
(-0.248354 0.0660288 0)
(-0.26499 0.0619492 0)
(-0.279252 0.0562925 0)
(-0.291165 0.0492708 0)
(-0.300777 0.0410857 0)
(-0.30814 0.0319062 0)
(-0.313296 0.0218855 0)
(-0.316274 0.0111533 0)
(-0.31707 -0.000159865 0)
(-0.315661 -0.0119232 0)
(-0.31198 -0.0239764 0)
(-0.305933 -0.0361243 0)
(-0.297388 -0.0481059 0)
(-0.286199 -0.0595902 0)
(-0.272214 -0.0701519 0)
(-0.255323 -0.0792863 0)
(-0.235484 -0.0864157 0)
(-0.212807 -0.0909504 0)
(-0.187583 -0.09235 0)
(-0.160369 -0.0902392 0)
(-0.131965 -0.0845008 0)
(-0.103421 -0.0753794 0)
(-0.0758809 -0.0634895 0)
(-0.0504776 -0.0497694 0)
(-0.0280918 -0.0353139 0)
(-0.0093157 -0.0211991 0)
(0.00565312 -0.00832165 0)
(0.0168013 0.00265579 0)
(0.0243423 0.0113113 0)
(0.0284934 0.0174426 0)
(0.0297037 0.0210903 0)
(0.0284133 0.0225208 0)
(0.0253417 0.0222045 0)
(0.021034 0.0206879 0)
(0.0162405 0.0184761 0)
(0.0112884 0.0158596 0)
(0.0068093 0.0128118 0)
(0.00291709 0.00895456 0)
(0.000495539 0.00365632 0)
(0.000390045 -0.00417572 0)
(0.00196294 -0.00877845 0)
(0.00378481 -0.00987693 0)
(0.00463767 -0.00799027 0)
(0.00419568 -0.00426205 0)
(0.0020519 0.000424845 0)
(-0.00179095 0.0053193 0)
(-0.00756677 0.0103034 0)
(-0.015508 0.0155307 0)
(-0.0260948 0.0215117 0)
(-0.0397776 0.0286329 0)
(-0.056923 0.0371164 0)
(-0.0775504 0.0467537 0)
(-0.101262 0.0570316 0)
(-0.127191 0.0671171 0)
(-0.154179 0.0761224 0)
(-0.181032 0.0832564 0)
(-0.206761 0.0880378 0)
(-0.230691 0.0902651 0)
(-0.252425 0.0899919 0)
(-0.271784 0.0873993 0)
(-0.288725 0.0827547 0)
(-0.303293 0.07633 0)
(-0.315578 0.068398 0)
(-0.325702 0.0591913 0)
(-0.333795 0.0489177 0)
(-0.339989 0.0377384 0)
(-0.344401 0.0257917 0)
(-0.347128 0.0131806 0)
(-0.348229 1.93231e-06 0)
(-0.347726 -0.0136575 0)
(-0.34558 -0.0276864 0)
(-0.341696 -0.0419443 0)
(-0.335904 -0.0562216 0)
(-0.327972 -0.0702297 0)
(-0.317596 -0.0835618 0)
(-0.304443 -0.0956937 0)
(-0.288173 -0.10597 0)
(-0.268529 -0.11365 0)
(-0.245403 -0.11796 0)
(-0.218965 -0.118224 0)
(-0.189735 -0.113992 0)
(-0.158661 -0.105218 0)
(-0.127043 -0.0923579 0)
(-0.0964281 -0.0763993 0)
(-0.0682835 -0.0587105 0)
(-0.0437712 -0.0407878 0)
(-0.0234673 -0.0239337 0)
(-0.00748131 -0.0090899 0)
(0.00447622 0.00319548 0)
(0.0127213 0.012649 0)
(0.0176992 0.0192371 0)
(0.019758 0.0231083 0)
(0.0194884 0.0246475 0)
(0.0173544 0.0243489 0)
(0.0141048 0.0227732 0)
(0.0101532 0.020256 0)
(0.00626269 0.0168582 0)
(0.00270281 0.01208 0)
(0.000452642 0.00513663 0)
(0.000390504 -0.00527286 0)
(0.00168627 -0.0104042 0)
(0.00275671 -0.0108962 0)
(0.00239984 -0.0076134 0)
(0.000317794 -0.00216819 0)
(-0.00382323 0.00441375 0)
(-0.0100759 0.0113306 0)
(-0.0187605 0.0186336 0)
(-0.0302716 0.0266102 0)
(-0.0451372 0.0358454 0)
(-0.0637017 0.0465696 0)
(-0.085944 0.058664 0)
(-0.111308 0.0714219 0)
(-0.138748 0.083857 0)
(-0.166958 0.0948493 0)
(-0.194674 0.103534 0)
(-0.220922 0.109372 0)
(-0.245057 0.112213 0)
(-0.266738 0.112139 0)
(-0.285817 0.109411 0)
(-0.302304 0.10434 0)
(-0.316285 0.0972789 0)
(-0.327929 0.0885508 0)
(-0.33743 0.0784641 0)
(-0.345017 0.0672682 0)
(-0.350914 0.0551777 0)
(-0.355344 0.0423444 0)
(-0.358496 0.0288875 0)
(-0.360537 0.0148774 0)
(-0.361581 0.000370341 0)
(-0.361705 -0.0146002 0)
(-0.360912 -0.0299848 0)
(-0.359148 -0.0457177 0)
(-0.35626 -0.0616722 0)
(-0.35201 -0.0776492 0)
(-0.346032 -0.0933266 0)
(-0.337864 -0.108244 0)
(-0.326932 -0.121764 0)
(-0.312632 -0.133083 0)
(-0.294386 -0.141255 0)
(-0.27181 -0.145299 0)
(-0.244843 -0.144334 0)
(-0.213952 -0.137805 0)
(-0.180207 -0.125695 0)
(-0.145295 -0.108712 0)
(-0.111266 -0.0882744 0)
(-0.0801712 -0.0663147 0)
(-0.0535108 -0.0448077 0)
(-0.0319901 -0.0253337 0)
(-0.0154577 -0.00880886 0)
(-0.0033976 0.00438769 0)
(0.00487738 0.0142505 0)
(0.00986371 0.0209242 0)
(0.0121585 0.0247621 0)
(0.0121888 0.0261855 0)
(0.0106538 0.025744 0)
(0.00800132 0.0237527 0)
(0.00503937 0.0203116 0)
(0.00216512 0.0148262 0)
(0.000341822 0.00642412 0)
(0.000348736 -0.00617599 0)
(0.00112076 -0.0113146 0)
(0.0010512 -0.0106733 0)
(-0.000915047 -0.00553433 0)
(-0.0050419 0.00201354 0)
(-0.0115759 0.0108739 0)
(-0.0206765 0.0202812 0)
(-0.032739 0.030498 0)
(-0.0482492 0.0418788 0)
(-0.0675763 0.0548908 0)
(-0.0906917 0.0693468 0)
(-0.116955 0.0845745 0)
(-0.145219 0.0993451 0)
(-0.174047 0.112423 0)
(-0.202122 0.122762 0)
(-0.228414 0.129807 0)
(-0.252286 0.133368 0)
(-0.273376 0.133592 0)
(-0.291571 0.13077 0)
(-0.306894 0.125311 0)
(-0.319512 0.117632 0)
(-0.329658 0.108167 0)
(-0.337639 0.0972883 0)
(-0.343766 0.0853316 0)
(-0.348368 0.0725485 0)
(-0.351735 0.0591403 0)
(-0.354141 0.0452294 0)
(-0.355802 0.0308999 0)
(-0.356913 0.0161789 0)
(-0.357606 0.00107659 0)
(-0.357991 -0.0144273 0)
(-0.358112 -0.030345 0)
(-0.357974 -0.0466874 0)
(-0.357494 -0.0634212 0)
(-0.356509 -0.0804634 0)
(-0.354717 -0.0976257 0)
(-0.351677 -0.114592 0)
(-0.346763 -0.130855 0)
(-0.33919 -0.145694 0)
(-0.328034 -0.158142 0)
(-0.312367 -0.167041 0)
(-0.291406 -0.171125 0)
(-0.264791 -0.169244 0)
(-0.23282 -0.160631 0)
(-0.196687 -0.145249 0)
(-0.158478 -0.124024 0)
(-0.120938 -0.0989059 0)
(-0.0868114 -0.0724977 0)
(-0.05815 -0.0474081 0)
(-0.0357022 -0.0254944 0)
(-0.0191207 -0.00763104 0)
(-0.00742429 0.00612562 0)
(0.000282868 0.0160275 0)
(0.00484148 0.0225276 0)
(0.00680379 0.0260479 0)
(0.00687472 0.0271227 0)
(0.00554114 0.0260183 0)
(0.00360093 0.0228267 0)
(0.00153959 0.0168987 0)
(0.000221316 0.0073555 0)
(0.000246587 -0.00679052 0)
(0.000212786 -0.0112714 0)
(-0.00137791 -0.00893293 0)
(-0.00529341 -0.00150351 0)
(-0.0117832 0.00851536 0)
(-0.0210042 0.0200526 0)
(-0.0332565 0.0324479 0)
(-0.0489328 0.0461319 0)
(-0.0684501 0.061347 0)
(-0.091765 0.0781757 0)
(-0.118298 0.0958097 0)
(-0.146803 0.113025 0)
(-0.175812 0.128315 0)
(-0.20387 0.140541 0)
(-0.229917 0.148982 0)
(-0.253226 0.15346 0)
(-0.273446 0.154092 0)
(-0.290433 0.151264 0)
(-0.304284 0.145439 0)
(-0.315212 0.137167 0)
(-0.323571 0.12696 0)
(-0.329741 0.11531 0)
(-0.334148 0.102608 0)
(-0.337171 0.0891826 0)
(-0.339172 0.0752532 0)
(-0.340435 0.0609806 0)
(-0.341217 0.0464409 0)
(-0.341699 0.031676 0)
(-0.342045 0.016673 0)
(-0.342365 0.001408 0)
(-0.342765 -0.0141737 0)
(-0.343304 -0.0301201 0)
(-0.344037 -0.04649 0)
(-0.344961 -0.0633153 0)
(-0.34603 -0.0806076 0)
(-0.347091 -0.0983097 0)
(-0.347871 -0.116278 0)
(-0.347893 -0.134212 0)
(-0.346458 -0.151606 0)
(-0.342593 -0.167675 0)
(-0.335102 -0.181322 0)
(-0.322656 -0.191146 0)
(-0.304037 -0.195564 0)
(-0.27845 -0.19305 0)
(-0.245952 -0.182533 0)
(-0.207765 -0.163845 0)
(-0.166438 -0.138146 0)
(-0.125477 -0.107985 0)
(-0.0885487 -0.0768603 0)
(-0.0582594 -0.0481292 0)
(-0.0354555 -0.0239982 0)
(-0.0193433 -0.00511612 0)
(-0.00856984 0.00878968 0)
(-0.00179548 0.018415 0)
(0.00190001 0.0243464 0)
(0.00337822 0.0271927 0)
(0.00323017 0.0272113 0)
(0.0022436 0.0244782 0)
(0.000959386 0.0183439 0)
(0.000115522 0.0079808 0)
(5.9648e-05 -0.00683993 0)
(-0.00109459 -0.00982465 0)
(-0.0045656 -0.00521803 0)
(-0.0107059 0.00488832 0)
(-0.0197916 0.0177151 0)
(-0.0318807 0.0323055 0)
(-0.0474021 0.0481132 0)
(-0.0665983 0.0655839 0)
(-0.0896252 0.0845997 0)
(-0.115855 0.104644 0)
(-0.144188 0.124287 0)
(-0.173002 0.141982 0)
(-0.200842 0.156281 0)
(-0.226459 0.166381 0)
(-0.24912 0.171955 0)
(-0.268361 0.173171 0)
(-0.284102 0.170419 0)
(-0.29643 0.164307 0)
(-0.305689 0.155467 0)
(-0.312287 0.144571 0)
(-0.316745 0.132187 0)
(-0.319535 0.11882 0)
(-0.321131 0.104829 0)
(-0.321896 0.0904884 0)
(-0.322152 0.0759512 0)
(-0.322114 0.0613156 0)
(-0.321969 0.0465999 0)
(-0.321824 0.031803 0)
(-0.321783 0.0168785 0)
(-0.321907 0.00178158 0)
(-0.322272 -0.0135579 0)
(-0.322929 -0.0291997 0)
(-0.323952 -0.0452188 0)
(-0.325387 -0.0616751 0)
(-0.327287 -0.0786313 0)
(-0.329642 -0.096118 0)
(-0.33238 -0.114131 0)
(-0.335277 -0.132571 0)
(-0.337915 -0.1512 0)
(-0.339573 -0.169543 0)
(-0.339189 -0.186803 0)
(-0.335324 -0.201767 0)
(-0.326285 -0.212797 0)
(-0.310356 -0.217928 0)
(-0.286246 -0.215166 0)
(-0.253631 -0.202983 0)
(-0.213719 -0.180997 0)
(-0.169495 -0.15057 0)
(-0.125392 -0.11504 0)
(-0.0860772 -0.0790044 0)
(-0.0548156 -0.046795 0)
(-0.0322991 -0.0208185 0)
(-0.0172478 -0.00144247 0)
(-0.00773429 0.0122077 0)
(-0.00220977 0.0210669 0)
(0.000574447 0.025997 0)
(0.00144512 0.027369 0)
(0.00124452 0.025294 0)
(0.000566784 0.0191894 0)
(5.6736e-05 0.00832469 0)
(-0.000219078 -0.00615512 0)
(-0.00277702 -0.0067396 0)
(-0.00839319 0.000638678 0)
(-0.0169101 0.0137192 0)
(-0.0286821 0.0296291 0)
(-0.0436379 0.047568 0)
(-0.0622698 0.0670283 0)
(-0.0844921 0.0882406 0)
(-0.110066 0.110515 0)
(-0.137775 0.132689 0)
(-0.166202 0.152908 0)
(-0.193635 0.169621 0)
(-0.21885 0.181684 0)
(-0.240877 0.188716 0)
(-0.259308 0.190771 0)
(-0.273949 0.188345 0)
(-0.285019 0.182094 0)
(-0.292859 0.172833 0)
(-0.298047 0.161331 0)
(-0.301134 0.148315 0)
(-0.302725 0.134344 0)
(-0.303287 0.119866 0)
(-0.303252 0.105153 0)
(-0.302889 0.0903911 0)
(-0.302431 0.0756485 0)
(-0.301985 0.0609562 0)
(-0.301651 0.0462815 0)
(-0.301453 0.0315919 0)
(-0.301438 0.0168235 0)
(-0.301611 0.0019279 0)
(-0.302018 -0.0131614 0)
(-0.302686 -0.028494 0)
(-0.303687 -0.0441351 0)
(-0.30508 -0.060138 0)
(-0.306965 -0.0765722 0)
(-0.309415 -0.093498 0)
(-0.312505 -0.110981 0)
(-0.316228 -0.129053 0)
(-0.320472 -0.14769 0)
(-0.324893 -0.166729 0)
(-0.328841 -0.185773 0)
(-0.331216 -0.204047 0)
(-0.330439 -0.220268 0)
(-0.324478 -0.232561 0)
(-0.31114 -0.238542 0)
(-0.288564 -0.235637 0)
(-0.255984 -0.221746 0)
(-0.214511 -0.196159 0)
(-0.167629 -0.16052 0)
(-0.120795 -0.119156 0)
(-0.0798462 -0.0781555 0)
(-0.0485319 -0.0428474 0)
(-0.0271672 -0.0157503 0)
(-0.0136919 0.00350103 0)
(-0.00578603 0.0162128 0)
(-0.00155706 0.0237327 0)
(0.00025115 0.0267524 0)
(0.000670662 0.0255494 0)
(0.000388571 0.0196906 0)
(4.56966e-05 0.00855839 0)
(-0.000596937 -0.00444638 0)
(-0.00479902 -0.00167213 0)
(-0.0127249 0.0088964 0)
(-0.0236547 0.0251607 0)
(-0.0380605 0.0443483 0)
(-0.0556812 0.0657826 0)
(-0.0769759 0.0888459 0)
(-0.101394 0.113324 0)
(-0.128291 0.137872 0)
(-0.156 0.160813 0)
(-0.183047 0.180167 0)
(-0.20783 0.194634 0)
(-0.229465 0.203497 0)
(-0.247268 0.206808 0)
(-0.261175 0.204997 0)
(-0.271285 0.198882 0)
(-0.278126 0.189366 0)
(-0.282249 0.177421 0)
(-0.284392 0.16387 0)
(-0.285136 0.149413 0)
(-0.285072 0.134523 0)
(-0.284569 0.119537 0)
(-0.283955 0.104612 0)
(-0.283372 0.0898331 0)
(-0.282948 0.0751872 0)
(-0.282688 0.0606504 0)
(-0.282623 0.0461547 0)
(-0.282713 0.0316512 0)
(-0.282966 0.0170717 0)
(-0.28335 0.00237419 0)
(-0.28389 -0.0124953 0)
(-0.284588 -0.0275689 0)
(-0.285505 -0.042892 0)
(-0.28669 -0.0584983 0)
(-0.288248 -0.0744403 0)
(-0.290274 -0.0907717 0)
(-0.292908 -0.10757 0)
(-0.296257 -0.12492 0)
(-0.300411 -0.142909 0)
(-0.305336 -0.161582 0)
(-0.310812 -0.180875 0)
(-0.316262 -0.200482 0)
(-0.320628 -0.219679 0)
(-0.322224 -0.237124 0)
(-0.318762 -0.250702 0)
(-0.30758 -0.257549 0)
(-0.286251 -0.254419 0)
(-0.253523 -0.238501 0)
(-0.210427 -0.20873 0)
(-0.161031 -0.167148 0)
(-0.112031 -0.119531 0)
(-0.0704624 -0.0737771 0)
(-0.0402937 -0.0362899 0)
(-0.0209206 -0.00902558 0)
(-0.00950601 0.00913295 0)
(-0.00332312 0.0201729 0)
(-0.000464151 0.0253611 0)
(0.000491686 0.0253561 0)
(0.000419656 0.0199844 0)
(8.25533e-05 0.00876522 0)
(-0.00104898 -0.00158397 0)
(-0.00702091 0.0054389 0)
(-0.0172679 0.0194785 0)
(-0.0304951 0.0390106 0)
(-0.047309 0.0615286 0)
(-0.0671821 0.0863761 0)
(-0.0904505 0.11266 0)
(-0.116044 0.139571 0)
(-0.143017 0.165182 0)
(-0.16945 0.187534 0)
(-0.194027 0.204799 0)
(-0.215369 0.216078 0)
(-0.232966 0.221131 0)
(-0.246436 0.220438 0)
(-0.256082 0.214807 0)
(-0.262278 0.205346 0)
(-0.26581 0.193139 0)
(-0.26734 0.179217 0)
(-0.267646 0.164357 0)
(-0.267238 0.149151 0)
(-0.266606 0.133932 0)
(-0.265971 0.118897 0)
(-0.26554 0.104085 0)
(-0.265327 0.0894944 0)
(-0.265378 0.0750527 0)
(-0.265621 0.0607023 0)
(-0.266047 0.04636 0)
(-0.266579 0.0319763 0)
(-0.267206 0.0174904 0)
(-0.267878 0.0028741 0)
(-0.268608 -0.0119095 0)
(-0.269381 -0.0268724 0)
(-0.270244 -0.0420375 0)
(-0.271225 -0.0574139 0)
(-0.272415 -0.0730273 0)
(-0.273894 -0.0889061 0)
(-0.275805 -0.105107 0)
(-0.278289 -0.12171 0)
(-0.281524 -0.138833 0)
(-0.28565 -0.156614 0)
(-0.290744 -0.175185 0)
(-0.296677 -0.194585 0)
(-0.302984 -0.214613 0)
(-0.308644 -0.234605 0)
(-0.311911 -0.253151 0)
(-0.310253 -0.267861 0)
(-0.300581 -0.275321 0)
(-0.279915 -0.271489 0)
(-0.246553 -0.252767 0)
(-0.201545 -0.217743 0)
(-0.149771 -0.169248 0)
(-0.0994114 -0.115053 0)
(-0.0586555 -0.0654047 0)
(-0.0309989 -0.0271097 0)
(-0.0144225 -0.00112528 0)
(-0.00535608 0.0149433 0)
(-0.00105423 0.0231697 0)
(0.000520161 0.0248677 0)
(0.000576571 0.0202754 0)
(0.000148489 0.00908702 0)
(-0.00155278 0.00260316 0)
(-0.00932145 0.0146974 0)
(-0.0217772 0.032374 0)
(-0.0370658 0.055157 0)
(-0.0559141 0.0809186 0)
(-0.0774602 0.108871 0)
(-0.101871 0.137712 0)
(-0.127599 0.166002 0)
(-0.153559 0.191416 0)
(-0.177767 0.21197 0)
(-0.199202 0.226188 0)
(-0.216758 0.233652 0)
(-0.230316 0.234613 0)
(-0.239799 0.229973 0)
(-0.245858 0.220891 0)
(-0.249076 0.208688 0)
(-0.250387 0.194522 0)
(-0.250442 0.179372 0)
(-0.249961 0.163887 0)
(-0.249303 0.148492 0)
(-0.248823 0.133362 0)
(-0.24859 0.118562 0)
(-0.248705 0.104037 0)
(-0.249087 0.0897219 0)
(-0.249732 0.075513 0)
(-0.250528 0.0613398 0)
(-0.251453 0.0471201 0)
(-0.252414 0.032812 0)
(-0.253403 0.0183674 0)
(-0.254362 0.00377137 0)
(-0.255305 -0.0109978 0)
(-0.256204 -0.0259372 0)
(-0.257097 -0.0410521 0)
(-0.257991 -0.056333 0)
(-0.258952 -0.0717819 0)
(-0.260032 -0.0874007 0)
(-0.261345 -0.103213 0)
(-0.263006 -0.119269 0)
(-0.265199 -0.135658 0)
(-0.268115 -0.152529 0)
(-0.271974 -0.170075 0)
(-0.276926 -0.18852 0)
(-0.282959 -0.208013 0)
(-0.289694 -0.228467 0)
(-0.296152 -0.249252 0)
(-0.300505 -0.268856 0)
(-0.299969 -0.284518 0)
(-0.291031 -0.292144 0)
(-0.270192 -0.286775 0)
(-0.235426 -0.263943 0)
(-0.188028 -0.222152 0)
(-0.134098 -0.165585 0)
(-0.0835874 -0.105069 0)
(-0.0454826 -0.0531141 0)
(-0.0216794 -0.0161439 0)
(-0.0084242 0.00715929 0)
(-0.00197306 0.0197759 0)
(0.000512236 0.0239653 0)
(0.000760917 0.0205647 0)
(0.000226264 0.00954068 0)
(-0.00205214 0.00807709 0)
(-0.0114939 0.0259001 0)
(-0.0258993 0.0472298 0)
(-0.0428882 0.0730998 0)
(-0.0632744 0.101826 0)
(-0.0858204 0.132342 0)
(-0.110529 0.162878 0)
(-0.135478 0.191437 0)
(-0.159606 0.215526 0)
(-0.181009 0.233342 0)
(-0.199032 0.243896 0)
(-0.212855 0.247272 0)
(-0.222754 0.244217 0)
(-0.228927 0.236023 0)
(-0.232306 0.224122 0)
(-0.233568 0.209931 0)
(-0.233685 0.194568 0)
(-0.233192 0.178866 0)
(-0.232686 0.163289 0)
(-0.232351 0.148081 0)
(-0.232413 0.133271 0)
(-0.232811 0.118819 0)
(-0.233578 0.104607 0)
(-0.234576 0.0905381 0)
(-0.235782 0.0765 0)
(-0.237068 0.0624254 0)
(-0.238418 0.0482438 0)
(-0.239739 0.0339261 0)
(-0.241033 0.0194386 0)
(-0.242241 0.00477895 0)
(-0.243381 -0.0100613 0)
(-0.244421 -0.0250682 0)
(-0.245392 -0.0402337 0)
(-0.246286 -0.055536 0)
(-0.247152 -0.0709591 0)
(-0.248009 -0.0864852 0)
(-0.248938 -0.102108 0)
(-0.250011 -0.117842 0)
(-0.25137 -0.133732 0)
(-0.25318 -0.149885 0)
(-0.255681 -0.166469 0)
(-0.259128 -0.183753 0)
(-0.263771 -0.202045 0)
(-0.26969 -0.221632 0)
(-0.276596 -0.242525 0)
(-0.28352 -0.264124 0)
(-0.288498 -0.284711 0)
(-0.288449 -0.301014 0)
(-0.279379 -0.308063 0)
(-0.257358 -0.299791 0)
(-0.2202 -0.270943 0)
(-0.169931 -0.220346 0)
(-0.11439 -0.154818 0)
(-0.0656179 -0.0891388 0)
(-0.0322841 -0.0377588 0)
(-0.0132855 -0.00425706 0)
(-0.00370446 0.0146245 0)
(0.000196591 0.0224429 0)
(0.000856291 0.02082 0)
(0.000293556 0.0101498 0)
(-0.00251037 0.014797 0)
(-0.0134083 0.0388917 0)
(-0.0294164 0.0638073 0)
(-0.0476727 0.0925196 0)
(-0.0690342 0.123813 0)
(-0.0918923 0.156223 0)
(-0.116132 0.187532 0)
(-0.139587 0.215319 0)
(-0.161359 0.237155 0)
(-0.179709 0.251574 0)
(-0.194374 0.258143 0)
(-0.204816 0.25745 0)
(-0.211675 0.250718 0)
(-0.215358 0.239553 0)
(-0.216973 0.225551 0)
(-0.217179 0.210099 0)
(-0.216889 0.194179 0)
(-0.216465 0.178417 0)
(-0.216364 0.163082 0)
(-0.216601 0.14825 0)
(-0.217306 0.133839 0)
(-0.21833 0.119737 0)
(-0.219676 0.105799 0)
(-0.221176 0.0919181 0)
(-0.222816 0.0779907 0)
(-0.224467 0.0639606 0)
(-0.22613 0.0497731 0)
(-0.227717 0.0354108 0)
(-0.229242 0.0208532 0)
(-0.230649 0.00610624 0)
(-0.231962 -0.00882891 0)
(-0.233144 -0.0239326 0)
(-0.234228 -0.0391885 0)
(-0.235192 -0.0545689 0)
(-0.236076 -0.0700475 0)
(-0.236876 -0.0855958 0)
(-0.237646 -0.101187 0)
(-0.238415 -0.11681 0)
(-0.239278 -0.132466 0)
(-0.240339 -0.14821 0)
(-0.241789 -0.164146 0)
(-0.243868 -0.180492 0)
(-0.246896 -0.197562 0)
(-0.251189 -0.215791 0)
(-0.256926 -0.235576 0)
(-0.263887 -0.257052 0)
(-0.271056 -0.279565 0)
(-0.276285 -0.301081 0)
(-0.276051 -0.317574 0)
(-0.265889 -0.322899 0)
(-0.241448 -0.30975 0)
(-0.200832 -0.272216 0)
(-0.147372 -0.210605 0)
(-0.091513 -0.135919 0)
(-0.0471428 -0.0682035 0)
(-0.020466 -0.0207339 0)
(-0.00663119 0.00684838 0)
(-0.000626404 0.0198386 0)
(0.00078319 0.020818 0)
(0.000337961 0.0108277 0)
(-0.00286761 0.0225168 0)
(-0.0148838 0.0532385 0)
(-0.0320587 0.0815529 0)
(-0.0510961 0.112735 0)
(-0.0728546 0.146057 0)
(-0.095394 0.1796 0)
(-0.118549 0.21078 0)
(-0.140038 0.23692 0)
(-0.159211 0.255842 0)
(-0.174544 0.26651 0)
(-0.186158 0.269076 0)
(-0.193766 0.264608 0)
(-0.198316 0.254749 0)
(-0.200327 0.241307 0)
(-0.200978 0.225922 0)
(-0.20082 0.209842 0)
(-0.200649 0.193853 0)
(-0.200641 0.17835 0)
(-0.201124 0.163429 0)
(-0.201983 0.149029 0)
(-0.203289 0.134997 0)
(-0.204843 0.121184 0)
(-0.206645 0.107442 0)
(-0.208522 0.0936688 0)
(-0.210478 0.0797795 0)
(-0.21239 0.0657308 0)
(-0.214279 0.0514844 0)
(-0.216059 0.0370326 0)
(-0.217759 0.0223664 0)
(-0.219321 0.00749735 0)
(-0.220775 -0.00756521 0)
(-0.222081 -0.0227982 0)
(-0.223273 -0.0381786 0)
(-0.224323 -0.0536767 0)
(-0.225266 -0.0692585 0)
(-0.226085 -0.0848925 0)
(-0.226819 -0.100539 0)
(-0.227469 -0.116174 0)
(-0.22809 -0.131767 0)
(-0.228734 -0.147334 0)
(-0.229524 -0.162911 0)
(-0.230629 -0.178641 0)
(-0.232326 -0.194754 0)
(-0.234974 -0.211674 0)
(-0.238961 -0.229922 0)
(-0.244557 -0.250069 0)
(-0.251549 -0.272301 0)
(-0.258848 -0.295859 0)
(-0.263931 -0.31815 0)
(-0.262807 -0.334053 0)
(-0.250368 -0.335923 0)
(-0.222178 -0.315004 0)
(-0.17704 -0.265525 0)
(-0.120761 -0.190815 0)
(-0.066993 -0.109107 0)
(-0.0303096 -0.0440239 0)
(-0.0110112 -0.00443967 0)
(-0.00207925 0.0156249 0)
(0.000501151 0.0203298 0)
(0.000351875 0.0115065 0)
(-0.00310192 0.0310053 0)
(-0.015858 0.0686207 0)
(-0.0337406 0.100131 0)
(-0.0530772 0.133394 0)
(-0.074692 0.168193 0)
(-0.0963855 0.202146 0)
(-0.118008 0.232422 0)
(-0.137274 0.256249 0)
(-0.153827 0.271843 0)
(-0.166372 0.278649 0)
(-0.175381 0.277405 0)
(-0.180774 0.269608 0)
(-0.183716 0.257236 0)
(-0.18475 0.242176 0)
(-0.185032 0.226003 0)
(-0.184956 0.209751 0)
(-0.185179 0.193987 0)
(-0.18571 0.178891 0)
(-0.186777 0.164419 0)
(-0.188179 0.150414 0)
(-0.189963 0.13669 0)
(-0.191907 0.123085 0)
(-0.194028 0.109464 0)
(-0.196159 0.0957403 0)
(-0.198328 0.0818465 0)
(-0.200417 0.0677511 0)
(-0.202464 0.05343 0)
(-0.204385 0.038881 0)
(-0.206219 0.0241038 0)
(-0.207906 0.00911214 0)
(-0.20948 -0.006078 0)
(-0.210897 -0.0214429 0)
(-0.212193 -0.0369537 0)
(-0.213336 -0.0525814 0)
(-0.21436 -0.0682869 0)
(-0.215242 -0.0840399 0)
(-0.216014 -0.0997933 0)
(-0.216662 -0.115521 0)
(-0.217221 -0.131174 0)
(-0.2177 -0.146747 0)
(-0.218166 -0.162219 0)
(-0.218712 -0.177668 0)
(-0.219526 -0.193213 0)
(-0.220905 -0.209183 0)
(-0.223251 -0.226045 0)
(-0.227048 -0.244516 0)
(-0.23259 -0.265269 0)
(-0.239686 -0.28856 0)
(-0.246953 -0.313298 0)
(-0.251473 -0.336014 0)
(-0.248466 -0.350037 0)
(-0.232418 -0.345732 0)
(-0.198927 -0.313199 0)
(-0.148744 -0.247926 0)
(-0.0910726 -0.15994 0)
(-0.0435206 -0.0762763 0)
(-0.0168698 -0.0203588 0)
(-0.00428454 0.00913711 0)
(2.2306e-05 0.0190214 0)
(0.000331156 0.0120715 0)
(-0.0031767 0.0398769 0)
(-0.0162364 0.0844865 0)
(-0.0343479 0.118921 0)
(-0.0535199 0.153804 0)
(-0.0745148 0.189487 0)
(-0.0949589 0.223171 0)
(-0.114773 0.251911 0)
(-0.131751 0.272978 0)
(-0.145835 0.285076 0)
(-0.155954 0.288139 0)
(-0.162873 0.28346 0)
(-0.16666 0.272892 0)
(-0.168606 0.258639 0)
(-0.169198 0.242553 0)
(-0.169511 0.226064 0)
(-0.169763 0.209954 0)
(-0.170484 0.194579 0)
(-0.171547 0.179937 0)
(-0.173121 0.165885 0)
(-0.174951 0.152208 0)
(-0.177086 0.138714 0)
(-0.179304 0.125244 0)
(-0.181644 0.111685 0)
(-0.183948 0.0979633 0)
(-0.186265 0.0840316 0)
(-0.188484 0.0698652 0)
(-0.190653 0.055451 0)
(-0.192689 0.0407893 0)
(-0.194635 0.0258871 0)
(-0.196426 0.0107589 0)
(-0.198101 -0.00457272 0)
(-0.199612 -0.0200837 0)
(-0.200994 -0.0357386 0)
(-0.202212 -0.0515092 0)
(-0.203302 -0.0673501 0)
(-0.204241 -0.0832343 0)
(-0.205058 -0.0991091 0)
(-0.205738 -0.114953 0)
(-0.206304 -0.130708 0)
(-0.206748 -0.146363 0)
(-0.207099 -0.161866 0)
(-0.207394 -0.17725 0)
(-0.207731 -0.192539 0)
(-0.208307 -0.207949 0)
(-0.209435 -0.223802 0)
(-0.211609 -0.240766 0)
(-0.215339 -0.259667 0)
(-0.221018 -0.28139 0)
(-0.228239 -0.306069 0)
(-0.235348 -0.332037 0)
(-0.238579 -0.354419 0)
(-0.23253 -0.364299 0)
(-0.211113 -0.349884 0)
(-0.171093 -0.300619 0)
(-0.116148 -0.21663 0)
(-0.0607677 -0.118683 0)
(-0.0242523 -0.0425641 0)
(-0.00736217 -0.000160946 0)
(-0.000661487 0.016518 0)
(0.000286213 0.012462 0)
(-0.00309981 0.0488195 0)
(-0.0160475 0.100488 0)
(-0.0339438 0.13763 0)
(-0.0525486 0.173739 0)
(-0.072539 0.209803 0)
(-0.091458 0.242688 0)
(-0.109329 0.269454 0)
(-0.124086 0.287527 0)
(-0.135947 0.296147 0)
(-0.144044 0.295723 0)
(-0.149366 0.288058 0)
(-0.15207 0.275265 0)
(-0.153482 0.259675 0)
(-0.153989 0.24301 0)
(-0.154549 0.226509 0)
(-0.155217 0.210697 0)
(-0.15642 0.195752 0)
(-0.157933 0.181524 0)
(-0.159893 0.167815 0)
(-0.162027 0.154379 0)
(-0.164398 0.141038 0)
(-0.166791 0.127641 0)
(-0.169272 0.114104 0)
(-0.171691 0.10036 0)
(-0.174112 0.0863782 0)
(-0.176429 0.0721369 0)
(-0.178696 0.0576313 0)
(-0.18083 0.0428604 0)
(-0.182874 0.0278372 0)
(-0.184762 0.012575 0)
(-0.18653 -0.00289738 0)
(-0.188127 -0.0185566 0)
(-0.189589 -0.0343598 0)
(-0.190878 -0.0502801 0)
(-0.192031 -0.0662647 0)
(-0.193023 -0.0822909 0)
(-0.193888 -0.0982993 0)
(-0.194609 -0.114277 0)
(-0.195211 -0.130159 0)
(-0.195678 -0.145942 0)
(-0.196026 -0.161555 0)
(-0.196255 -0.177016 0)
(-0.196403 -0.19228 0)
(-0.196573 -0.207474 0)
(-0.196954 -0.222756 0)
(-0.197945 -0.238647 0)