/*--------------------------------*- C++ -*----------------------------------*\
| =========                 |                                                 |
| \\      /  F ield         | OpenFOAM: The Open Source CFD Toolbox           |
|  \\    /   O peration     | Version:  2406                                  |
|   \\  /    A nd           | Website:  www.openfoam.com                      |
|    \\/     M anipulation  |                                                 |
\*---------------------------------------------------------------------------*/
FoamFile
{
    version     2.0;
    format      ascii;
    arch        "LSB;label=32;scalar=64";
    class       volVectorField;
    location    "28.4";
    object      U_0;
}
// * * * * * * * * * * * * * * * * * * * * * * * * * * * * * * * * * * * * * //

dimensions      [0 1 -1 0 0 0 0];

internalField   nonuniform List<vector> 
14400
(
(-4.03653e-06 3.97535e-06 0)
(1.90132e-05 -1.05047e-05 0)
(0.000108488 -2.83834e-05 0)
(0.00025816 -4.21169e-05 0)
(0.000451256 -5.1178e-05 0)
(0.000670815 -5.57738e-05 0)
(0.000900899 -5.65899e-05 0)
(0.0011281 -5.43873e-05 0)
(0.00134191 -4.99609e-05 0)
(0.00153483 -4.40772e-05 0)
(0.00170219 -3.744e-05 0)
(0.00184192 -3.06574e-05 0)
(0.00195414 -2.42168e-05 0)
(0.00204065 -1.84708e-05 0)
(0.0021044 -1.36308e-05 0)
(0.00214898 -9.76585e-06 0)
(0.00217817 -6.86377e-06 0)
(0.00219534 -4.92635e-06 0)
(0.00220298 -3.72344e-06 0)
(0.00220278 -2.78771e-06 0)
(0.00219554 -1.75904e-06 0)
(0.00218077 -4.80117e-07 0)
(0.00215673 1.27938e-06 0)
(0.00212077 3.74558e-06 0)
(0.00206944 7.08916e-06 0)
(0.00199865 1.14312e-05 0)
(0.00190387 1.68528e-05 0)
(0.00178025 2.34066e-05 0)
(0.00162278 3.11303e-05 0)
(0.00142624 4.00571e-05 0)
(0.00118533 5.0222e-05 0)
(0.0008946 6.16625e-05 0)
(0.000548504 7.44144e-05 0)
(0.000141432 8.85047e-05 0)
(-0.000332221 0.000103943 0)
(-0.000877943 0.000120714 0)
(-0.00150097 0.000138768 0)
(-0.00220613 0.000158019 0)
(-0.00299764 0.000178336 0)
(-0.00387891 0.000199545 0)
(-0.00485237 0.000221426 0)
(-0.00591921 0.000243713 0)
(-0.00707926 0.000266095 0)
(-0.00833073 0.00028822 0)
(-0.00967013 0.000309698 0)
(-0.0110921 0.000330108 0)
(-0.0125893 0.000349002 0)
(-0.0141524 0.000365915 0)
(-0.01577 0.000380369 0)
(-0.0174287 0.00039188 0)
(-0.0191134 0.00039997 0)
(-0.0208068 0.000404169 0)
(-0.0224902 0.000404022 0)
(-0.0241434 0.000399102 0)
(-0.0257448 0.00038901 0)
(-0.0272719 0.000373388 0)
(-0.0287014 0.000351926 0)
(-0.0300095 0.000324368 0)
(-0.0311723 0.000290541 0)
(-0.0321663 0.000250338 0)
(-0.0329687 0.000203657 0)
(-0.0335584 0.000151167 0)
(-0.0339154 9.50761e-05 0)
(-0.0340181 3.38109e-05 0)
(-0.0338514 -3.537e-05 0)
(-0.0334072 -0.000108505 0)
(-0.0326743 -0.000183943 0)
(-0.0316484 -0.000260892 0)
(-0.0303303 -0.000337982 0)
(-0.0287257 -0.000413656 0)
(-0.0268464 -0.000486199 0)
(-0.0247099 -0.000553791 0)
(-0.0223401 -0.000614571 0)
(-0.0197666 -0.000666716 0)
(-0.0170247 -0.000708523 0)
(-0.0141551 -0.000738503 0)
(-0.0112023 -0.000755465 0)
(-0.00821439 -0.000758603 0)
(-0.0052411 -0.000747566 0)
(-0.0023327 -0.000722501 0)
(0.000461741 -0.00068408 0)
(0.00309594 -0.000633486 0)
(0.00552803 -0.000572369 0)
(0.00772194 -0.000502773 0)
(0.00964866 -0.000427026 0)
(0.0112872 -0.000347619 0)
(0.0126249 -0.000267063 0)
(0.0136579 -0.000187766 0)
(0.0143908 -0.000111875 0)
(0.0148358 -4.10266e-05 0)
(0.0150137 2.27279e-05 0)
(0.0149467 7.60244e-05 0)
(0.0146624 0.000121159 0)
(0.0141951 0.000159191 0)
(0.0135778 0.000188878 0)
(0.0128427 0.000210156 0)
(0.0120212 0.000223784 0)
(0.0111425 0.00023066 0)
(0.010233 0.000231743 0)
(0.00931565 0.00022803 0)
(0.00840968 0.000220502 0)
(0.00753056 0.000210084 0)
(0.00669017 0.000197621 0)
(0.00589707 0.000183863 0)
(0.0051568 0.000169454 0)
(0.0044723 0.000154937 0)
(0.00384428 0.000140757 0)
(0.00327166 0.000127263 0)
(0.00275194 0.000114714 0)
(0.00228163 0.000103264 0)
(0.00185675 9.29488e-05 0)
(0.00147335 8.36462e-05 0)
(0.0011283 7.50392e-05 0)
(0.000820062 6.65742e-05 0)
(0.000549627 5.74404e-05 0)
(0.000321312 4.66416e-05 0)
(0.00014304 3.32116e-05 0)
(2.50466e-05 1.67672e-05 0)
(-2.52593e-05 -1.0217e-06 0)
(-1.21892e-05 -1.22179e-05 0)
(9.88173e-06 -1.85471e-05 0)
(0.000130893 -0.000133191 0)
(0.000390274 -0.000264167 0)
(0.000778698 -0.000368691 0)
(0.00125839 -0.000439243 0)
(0.00179511 -0.000476073 0)
(0.00235433 -0.000482942 0)
(0.0029058 -0.000465129 0)
(0.00342495 -0.000428523 0)
(0.00389345 -0.000379038 0)
(0.00429918 -0.000322232 0)
(0.00463574 -0.000262999 0)
(0.00490168 -0.000205336 0)
(0.00509945 -0.000152194 0)
(0.00523421 -0.000105427 0)
(0.00531267 -6.58056e-05 0)
(0.00534181 -3.31407e-05 0)
(0.00532803 -6.49385e-06 0)
(0.00527619 1.58572e-05 0)
(0.00518885 3.62545e-05 0)
(0.00506584 5.71554e-05 0)
(0.00490427 8.08815e-05 0)
(0.00469859 0.000109642 0)
(0.00444078 0.00014536 0)
(0.00412072 0.000189574 0)
(0.00372668 0.000243434 0)
(0.00324575 0.000307739 0)
(0.00266424 0.000383019 0)
(0.00196793 0.000469626 0)
(0.00114234 0.000567806 0)
(0.000172911 0.000677737 0)
(-0.000954892 0.000799532 0)
(-0.00225533 0.000933202 0)
(-0.00374216 0.0010786 0)
(-0.0054283 0.00123533 0)
(-0.00732543 0.00140273 0)
(-0.00944352 0.00157975 0)
(-0.0117903 0.00176496 0)
(-0.0143708 0.0019565 0)
(-0.0171867 0.00215211 0)
(-0.0202359 0.00234906 0)
(-0.0235122 0.00254427 0)
(-0.0270047 0.00273428 0)
(-0.0306978 0.00291536 0)
(-0.0345708 0.00308352 0)
(-0.0385982 0.00323467 0)
(-0.0427497 0.00336466 0)
(-0.0469902 0.00346936 0)
(-0.0512807 0.00354481 0)
(-0.0555784 0.00358726 0)
(-0.0598377 0.00359325 0)
(-0.0640103 0.00355974 0)
(-0.0680463 0.00348412 0)
(-0.071895 0.00336427 0)
(-0.0755054 0.00319862 0)
(-0.0788271 0.00298621 0)
(-0.0818108 0.00272668 0)
(-0.0844093 0.00242031 0)
(-0.0865779 0.0020681 0)
(-0.0882753 0.00167183 0)
(-0.0894637 0.00123394 0)
(-0.0901096 0.000757829 0)
(-0.0901876 0.000249252 0)
(-0.0896767 -0.000285494 0)
(-0.0885547 -0.0008459 0)
(-0.0868162 -0.00142223 0)
(-0.0844598 -0.00200654 0)
(-0.0814923 -0.0025898 0)
(-0.0779283 -0.00316244 0)
(-0.0737916 -0.00371416 0)
(-0.069115 -0.00423424 0)
(-0.0639404 -0.00471173 0)
(-0.058319 -0.00513576 0)
(-0.0523106 -0.00549587 0)
(-0.0459837 -0.00578244 0)
(-0.0394139 -0.00598708 0)
(-0.0326833 -0.00610305 0)
(-0.0258791 -0.00612566 0)
(-0.0190917 -0.00605262 0)
(-0.0124126 -0.00588433 0)
(-0.005933 -0.005624 0)
(0.000259393 -0.00527771 0)
(0.00608212 -0.00485429 0)
(0.0114605 -0.00436509 0)
(0.0163296 -0.00382351 0)
(0.0206363 -0.00324453 0)
(0.0243409 -0.00264401 0)
(0.027418 -0.0020381 0)
(0.0298573 -0.00144247 0)
(0.031663 -0.000871684 0)
(0.0328534 -0.00033886 0)
(0.0334608 0.000143569 0)
(0.0335315 0.000570551 0)
(0.0331177 0.000937641 0)
(0.0322789 0.0012407 0)
(0.0310808 0.00147923 0)
(0.0295905 0.00165546 0)
(0.0278747 0.00177354 0)
(0.0259972 0.00183909 0)
(0.0240169 0.00185873 0)
(0.0219868 0.00183962 0)
(0.0199529 0.00178907 0)
(0.0179533 0.00171421 0)
(0.0160186 0.00162169 0)
(0.0141719 0.00151755 0)
(0.0124296 0.00140708 0)
(0.0108015 0.00129479 0)
(0.00929226 0.00118434 0)
(0.00790222 0.00107855 0)
(0.0066283 0.000979257 0)
(0.00546537 0.000887192 0)
(0.0044077 0.000801735 0)
(0.00345059 0.000720675 0)
(0.0025922 0.000640021 0)
(0.00183537 0.000554065 0)
(0.00118897 0.000456085 0)
(0.000667936 0.000340201 0)
(0.000289456 0.000205652 0)
(7.01261e-05 6.48187e-05 0)
(5.97149e-08 -2.42781e-05 0)
(2.69088e-05 -0.000105012 0)
(0.000257251 -0.000390578 0)
(0.000668664 -0.000676798 0)
(0.00124765 -0.000904764 0)
(0.00193951 -0.00105941 0)
(0.00270129 -0.00113982 0)
(0.00348801 -0.00115273 0)
(0.00425943 -0.00110882 0)
(0.00498216 -0.00102064 0)
(0.00563063 -0.000901173 0)
(0.00618713 -0.000762849 0)
(0.00664141 -0.000616746 0)
(0.00698964 -0.000472004 0)
(0.00723316 -0.000335454 0)
(0.00737691 -0.000211445 0)
(0.00742784 -0.000101847 0)
(0.00739329 -6.20615e-06 0)
(0.00727965 7.79362e-05 0)
(0.00709117 0.000154553 0)
(0.00682889 0.000228706 0)
(0.00649006 0.000306057 0)
(0.00606806 0.000392405 0)
(0.00555242 0.000493135 0)
(0.00492915 0.000612924 0)
(0.00418134 0.000755558 0)
(0.00328973 0.000923884 0)
(0.00223347 0.00111988 0)
(0.000990634 0.00134482 0)
(-0.000461206 0.00159941 0)
(-0.00214452 0.00188396 0)
(-0.00408139 0.00219844 0)
(-0.00629307 0.00254241 0)
(-0.00879948 0.00291499 0)
(-0.0116186 0.00331468 0)
(-0.0147656 0.00373919 0)
(-0.0182525 0.00418534 0)
(-0.0220868 0.00464893 0)
(-0.0262711 0.00512467 0)
(-0.030802 0.00560622 0)
(-0.0356694 0.00608623 0)
(-0.0408566 0.0065564 0)
(-0.0463389 0.00700772 0)
(-0.0520846 0.00743058 0)
(-0.0580544 0.00781508 0)
(-0.0642021 0.00815122 0)
(-0.0704751 0.00842925 0)
(-0.0768155 0.00863988 0)
(-0.0831612 0.00877453 0)
(-0.0894465 0.0088256 0)
(-0.0956041 0.00878662 0)
(-0.101566 0.00865239 0)
(-0.107264 0.00841906 0)
(-0.112632 0.0080842 0)
(-0.117607 0.00764682 0)
(-0.122127 0.00710731 0)
(-0.126138 0.00646742 0)
(-0.129588 0.00573023 0)
(-0.13243 0.00490009 0)
(-0.134623 0.00398258 0)
(-0.136131 0.00298456 0)
(-0.136927 0.00191401 0)
(-0.136985 0.000779654 0)
(-0.136288 -0.000408215 0)
(-0.134829 -0.00163502 0)
(-0.132603 -0.0028891 0)
(-0.129613 -0.00415716 0)
(-0.125869 -0.00542362 0)
(-0.121389 -0.00667143 0)
(-0.116201 -0.00788265 0)
(-0.110337 -0.0090385 0)
(-0.10384 -0.0101196 0)
(-0.0967613 -0.0111065 0)
(-0.0891595 -0.0119799 0)
(-0.0811022 -0.0127212 0)
(-0.0726646 -0.0133133 0)
(-0.0639296 -0.0137411 0)
(-0.0549863 -0.0139922 0)
(-0.0459297 -0.0140575 0)
(-0.0368587 -0.013932 0)
(-0.0278749 -0.0136151 0)
(-0.0190806 -0.0131111 0)
(-0.0105767 -0.0124292 0)
(-0.00246055 -0.0115838 0)
(0.00517609 -0.0105938 0)
(0.0122496 -0.0094822 0)
(0.0186866 -0.00827576 0)
(0.0244255 -0.00700362 0)
(0.0294188 -0.00569646 0)
(0.0336337 -0.00438538 0)
(0.0370536 -0.00310065 0)
(0.0396778 -0.00187043 0)
(0.0415235 -0.000718844 0)
(0.0426232 0.000332623 0)
(0.0430213 0.00126575 0)
(0.042776 0.0020697 0)
(0.0419571 0.00273845 0)
(0.0406411 0.0032707 0)
(0.0389093 0.0036699 0)
(0.0368442 0.00394365 0)
(0.0345273 0.00410288 0)
(0.0320359 0.00416096 0)
(0.0294411 0.00413277 0)
(0.0268061 0.00403382 0)
(0.0241849 0.00387951 0)
(0.0216219 0.00368448 0)
(0.0191517 0.00346214 0)
(0.0168 0.00322436 0)
(0.0145837 0.0029812 0)
(0.0125127 0.00274064 0)
(0.0105908 0.00250836 0)
(0.00881791 0.00228725 0)
(0.00719165 0.00207705 0)
(0.00570979 0.00187384 0)
(0.00437255 0.00166985 0)
(0.00318485 0.00145386 0)
(0.0021579 0.00121286 0)
(0.00130921 0.000935876 0)
(0.000656988 0.000621703 0)
(0.000230415 0.000291637 0)
(2.0649e-05 3.38998e-05 0)
(3.9964e-05 -0.000249237 0)
(0.000359527 -0.00077462 0)
(0.000895364 -0.00125563 0)
(0.00162456 -0.00163177 0)
(0.00247463 -0.00188402 0)
(0.0033954 -0.00201148 0)
(0.00433471 -0.00202457 0)
(0.00524602 -0.00194034 0)
(0.00609045 -0.00177922 0)
(0.00683778 -0.00156267 0)
(0.00746653 -0.00131144 0)
(0.00796344 -0.0010441 0)
(0.00832237 -0.000776066 0)
(0.00854283 -0.000518865 0)
(0.00862822 -0.000279831 0)
(0.008584 -6.20671e-05 0)
(0.00841583 0.000135297 0)
(0.00812792 0.000316631 0)
(0.00772168 0.000489028 0)
(0.00719456 0.000661481 0)
(0.00653945 0.000844028 0)
(0.00574441 0.00104686 0)
(0.00479286 0.0012795 0)
(0.00366406 0.00155023 0)
(0.00233387 0.00186573 0)
(0.000775562 0.00223097 0)
(-0.00103924 0.00264929 0)
(-0.00313973 0.00312262 0)
(-0.00555507 0.0036517 0)
(-0.00831362 0.00423627 0)
(-0.0114421 0.00487508 0)
(-0.0149649 0.00556585 0)
(-0.0189027 0.00630505 0)
(-0.0232718 0.00708766 0)
(-0.0280831 0.00790694 0)
(-0.0333405 0.00875425 0)
(-0.0390401 0.00961898 0)
(-0.0451691 0.0104886 0)
(-0.0517057 0.0113487 0)
(-0.0586178 0.0121834 0)
(-0.0658635 0.0129757 0)
(-0.0733918 0.013708 0)
(-0.0811425 0.0143623 0)
(-0.0890482 0.0149212 0)
(-0.0970354 0.0153684 0)
(-0.105026 0.0156886 0)
(-0.11294 0.0158689 0)
(-0.120696 0.0158985 0)
(-0.128214 0.0157689 0)
(-0.135417 0.0154746 0)
(-0.142232 0.0150122 0)
(-0.14859 0.0143813 0)
(-0.154428 0.0135836 0)
(-0.159691 0.0126229 0)
(-0.164329 0.0115051 0)
(-0.168297 0.0102378 0)
(-0.171559 0.00882981 0)
(-0.174083 0.00729169 0)
(-0.175845 0.00563503 0)
(-0.176825 0.00387266 0)
(-0.177007 0.00201868 0)
(-0.176383 8.83272e-05 0)
(-0.174947 -0.00190265 0)
(-0.172699 -0.00393772 0)
(-0.169646 -0.00599506 0)
(-0.165797 -0.00805469 0)
(-0.161167 -0.0100947 0)
(-0.155777 -0.0120916 0)
(-0.149653 -0.0140204 0)
(-0.14283 -0.0158549 0)
(-0.135345 -0.017568 0)
(-0.127248 -0.0191324 0)
(-0.118591 -0.0205207 0)
(-0.109438 -0.0217064 0)
(-0.0998586 -0.0226646 0)
(-0.0899298 -0.0233732 0)
(-0.0797365 -0.0238132 0)
(-0.0693697 -0.0239702 0)
(-0.0589256 -0.0238352 0)
(-0.0485048 -0.023405 0)
(-0.03821 -0.0226833 0)
(-0.0281448 -0.0216809 0)
(-0.0184114 -0.0204156 0)
(-0.0091085 -0.0189121 0)
(-0.000329286 -0.0172015 0)
(0.00784078 -0.0153205 0)
(0.0153258 -0.0133102 0)
(0.0220614 -0.0112148 0)
(0.027996 -0.00908018 0)
(0.0330923 -0.00695246 0)
(0.0373284 -0.00487603 0)
(0.0406984 -0.00289228 0)
(0.0432113 -0.00103932 0)
(0.0448927 0.000650726 0)
(0.0457844 0.00215364 0)
(0.0459408 0.00345183 0)
(0.0454289 0.00453512 0)
(0.0443255 0.00540105 0)
(0.0427146 0.00605447 0)
(0.040684 0.00650669 0)
(0.0383225 0.0067744 0)
(0.0357165 0.00687836 0)
(0.0329474 0.00684202 0)
(0.030089 0.00669013 0)
(0.027206 0.00644749 0)
(0.024353 0.00613785 0)
(0.021574 0.00578307 0)
(0.0189027 0.00540235 0)
(0.0163631 0.00501156 0)
(0.0139712 0.00462262 0)
(0.0117365 0.00424268 0)
(0.00966428 0.00387342 0)
(0.0077582 0.00351032 0)
(0.00602281 0.00314252 0)
(0.00446626 0.00275352 0)
(0.00310223 0.00232391 0)
(0.0019509 0.00183689 0)
(0.00103285 0.00128832 0)
(0.000396627 0.000701863 0)
(4.1851e-05 0.000173585 0)
(4.93257e-05 -0.000436768 0)
(0.000435467 -0.00125315 0)
(0.00106618 -0.001954 0)
(0.00190765 -0.00248748 0)
(0.00287024 -0.00283657 0)
(0.00389622 -0.00300339 0)
(0.00492731 -0.0030036 0)
(0.00591234 -0.00286153 0)
(0.00680883 -0.00260619 0)
(0.00758365 -0.00226814 0)
(0.00821291 -0.00187689 0)
(0.00868124 -0.00145892 0)
(0.00898052 -0.00103611 0)
(0.0091082 -0.000624769 0)
(0.00906539 -0.0002351 0)
(0.00885484 0.000128865 0)
(0.00847901 0.000468885 0)
(0.00793821 0.000791825 0)
(0.00722913 0.0011086 0)
(0.00634382 0.00143292 0)
(0.00526898 0.00177991 0)
(0.00398591 0.00216483 0)
(0.0024708 0.00260187 0)
(0.000695488 0.00310322 0)
(-0.00137156 0.00367855 0)
(-0.00376412 0.0043348 0)
(-0.00651699 0.00507624 0)
(-0.0096648 0.00590472 0)
(-0.0132408 0.00681993 0)
(-0.0172757 0.00781951 0)
(-0.0217961 0.0088991 0)
(-0.0268237 0.0100521 0)
(-0.0323732 0.0112694 0)
(-0.0384511 0.0125392 0)
(-0.0450545 0.0138466 0)
(-0.0521694 0.0151737 0)
(-0.0597703 0.0164995 0)
(-0.0678194 0.0178008 0)
(-0.0762666 0.0190519 0)
(-0.0850506 0.0202263 0)
(-0.0940996 0.0212968 0)
(-0.103333 0.0222368 0)
(-0.112665 0.0230213 0)
(-0.122003 0.0236275 0)
(-0.131257 0.0240359 0)
(-0.140335 0.0242305 0)
(-0.14915 0.0241996 0)
(-0.15762 0.0239353 0)
(-0.165668 0.023434 0)
(-0.173228 0.0226959 0)
(-0.180237 0.0217246 0)
(-0.186646 0.0205265 0)
(-0.192408 0.0191108 0)
(-0.197488 0.0174884 0)
(-0.201856 0.0156719 0)
(-0.205486 0.0136752 0)
(-0.208361 0.0115131 0)
(-0.210464 0.0092013 0)
(-0.211785 0.00675605 0)
(-0.212317 0.00419446 0)
(-0.212054 0.00153446 0)
(-0.210993 -0.0012049 0)
(-0.209134 -0.00400358 0)
(-0.206481 -0.00684104 0)
(-0.203037 -0.00969382 0)
(-0.198811 -0.0125371 0)
(-0.193814 -0.0153445 0)
(-0.18806 -0.0180874 0)
(-0.18157 -0.0207357 0)
(-0.174367 -0.0232571 0)
(-0.166484 -0.0256182 0)
(-0.157956 -0.0277845 0)
(-0.148828 -0.0297212 0)
(-0.139153 -0.0313941 0)
(-0.128992 -0.0327704 0)
(-0.118413 -0.0338201 0)
(-0.107494 -0.0345169 0)
(-0.0963189 -0.03484 0)
(-0.0849803 -0.0347744 0)
(-0.0735758 -0.0343132 0)
(-0.0622075 -0.0334574 0)
(-0.0509799 -0.032217 0)
(-0.039998 -0.0306113 0)
(-0.0293652 -0.0286685 0)
(-0.0191811 -0.0264253 0)
(-0.00953911 -0.0239261 0)
(-0.000524928 -0.0212215 0)
(0.00778552 -0.0183667 0)
(0.0153274 -0.0154203 0)
(0.0220484 -0.0124419 0)
(0.0279092 -0.00949083 0)
(0.0328849 -0.00662412 0)
(0.0369646 -0.00389487 0)
(0.0401529 -0.00134949 0)
(0.0424695 0.000971462 0)
(0.0439485 0.00303591 0)
(0.044638 0.00482122 0)
(0.0445992 0.00631433 0)
(0.0439045 0.00751201 0)
(0.0426348 0.00842048 0)
(0.0408772 0.00905452 0)
(0.0387218 0.00943621 0)
(0.036258 0.00959331 0)
(0.0335719 0.00955742 0)
(0.0307434 0.00936217 0)
(0.0278441 0.00904144 0)
(0.0249355 0.00862774 0)
(0.0220689 0.00815079 0)
(0.0192847 0.00763621 0)
(0.016614 0.00710424 0)
(0.0140792 0.00656848 0)
(0.0116966 0.00603465 0)
(0.00947872 0.00549962 0)
(0.00743694 0.00495114 0)
(0.00558465 0.00436881 0)
(0.00393974 0.00372734 0)
(0.00252702 0.00300287 0)
(0.00137224 0.00218389 0)
(0.000546303 0.00128614 0)
(6.05988e-05 0.000391895 0)
(5.57439e-05 -0.000655531 0)
(0.00048904 -0.00180241 0)
(0.00118736 -0.00274255 0)
(0.0021064 -0.00343746 0)
(0.00314097 -0.00387686 0)
(0.0042255 -0.00406928 0)
(0.00529585 -0.00403787 0)
(0.00629696 -0.00381567 0)
(0.00718376 -0.0034412 0)
(0.00792135 -0.00295467 0)
(0.0084844 -0.00239467 0)
(0.00885616 -0.00179557 0)
(0.00902687 -0.00118559 0)
(0.00899186 -0.000585414 0)
(0.00874945 -7.58596e-06 0)
(0.0082988 0.000543601 0)
(0.00763785 0.0010716 0)
(0.00676148 0.0015866 0)
(0.0056601 0.00210412 0)
(0.00431864 0.00264327 0)
(0.00271618 0.00322488 0)
(0.000826046 0.00386964 0)
(-0.00138351 0.00459649 0)
(-0.00394823 0.00542132 0)
(-0.00690645 0.00635627 0)
(-0.0102976 0.00740935 0)
(-0.0141607 0.00858453 0)
(-0.0185324 0.00988192 0)
(-0.0234457 0.011298 0)
(-0.0289279 0.0128258 0)
(-0.0349989 0.0144546 0)
(-0.0416694 0.0161699 0)
(-0.048939 0.017953 0)
(-0.0567947 0.0197809 0)
(-0.0652097 0.0216265 0)
(-0.0741425 0.0234586 0)
(-0.0835374 0.0252429 0)
(-0.0933248 0.0269431 0)
(-0.103423 0.0285215 0)
(-0.113742 0.0299414 0)
(-0.124182 0.0311676 0)
(-0.134643 0.0321684 0)
(-0.145023 0.0329165 0)
(-0.155222 0.0333899 0)
(-0.165149 0.0335722 0)
(-0.174717 0.0334534 0)
(-0.183852 0.0330287 0)
(-0.192485 0.032299 0)
(-0.200563 0.0312698 0)
(-0.208038 0.0299503 0)
(-0.214874 0.0283528 0)
(-0.221041 0.026492 0)
(-0.226516 0.0243841 0)
(-0.231282 0.0220464 0)
(-0.235328 0.0194965 0)
(-0.238642 0.0167528 0)
(-0.241218 0.0138332 0)
(-0.243052 0.0107563 0)
(-0.244137 0.00754024 0)
(-0.244472 0.00420391 0)
(-0.244052 0.000766561 0)
(-0.242875 -0.00275165 0)
(-0.240938 -0.00632938 0)
(-0.238239 -0.00994381 0)
(-0.234779 -0.0135701 0)
(-0.230557 -0.0171814 0)
(-0.225577 -0.020748 0)
(-0.219843 -0.024238 0)
(-0.213366 -0.0276165 0)
(-0.206159 -0.0308463 0)
(-0.198241 -0.0338876 0)
(-0.189637 -0.0366991 0)
(-0.180381 -0.0392382 0)
(-0.170514 -0.0414625 0)
(-0.160085 -0.0433303 0)
(-0.149154 -0.0448027 0)
(-0.13779 -0.0458447 0)
(-0.126072 -0.0464269 0)
(-0.114087 -0.0465271 0)
(-0.101931 -0.0461322 0)
(-0.0897065 -0.0452387 0)
(-0.0775198 -0.0438543 0)
(-0.0654802 -0.0419978 0)
(-0.0536968 -0.0396995 0)
(-0.0422765 -0.0370006 0)
(-0.031321 -0.0339518 0)
(-0.0209248 -0.030612 0)
(-0.0111734 -0.0270466 0)
(-0.00214184 -0.0233254 0)
(0.00610683 -0.0195203 0)
(0.0135217 -0.0157036 0)
(0.0200649 -0.0119457 0)
(0.0257114 -0.0083134 0)
(0.0304497 -0.00486797 0)
(0.0342815 -0.001664 0)
(0.0372223 0.00125234 0)
(0.0393012 0.00384453 0)
(0.0405602 0.00608669 0)
(0.0410544 0.00796415 0)
(0.04085 0.00947376 0)
(0.0400233 0.0106235 0)
(0.0386574 0.0114318 0)
(0.0368403 0.0119258 0)
(0.0346611 0.0121398 0)
(0.0322069 0.0121129 0)
(0.0295603 0.0118867 0)
(0.0267965 0.0115033 0)
(0.0239817 0.0110027 0)
(0.0211722 0.0104208 0)
(0.0184144 0.00978749 0)
(0.0157453 0.00912447 0)
(0.013194 0.0084435 0)
(0.0107841 0.00774492 0)
(0.00853616 0.00701698 0)
(0.00647112 0.00623682 0)
(0.00461338 0.00537365 0)
(0.00299469 0.00439514 0)
(0.00164847 0.00327785 0)
(0.000667542 0.00202069 0)
(7.56012e-05 0.000676978 0)
(6.01283e-05 -0.000895852 0)
(0.000525337 -0.00240054 0)
(0.00126765 -0.00359164 0)
(0.00223298 -0.00444586 0)
(0.00330255 -0.0049632 0)
(0.00440303 -0.00516179 0)
(0.00546468 -0.00507471 0)
(0.00642903 -0.00474547 0)
(0.00724908 -0.00422322 0)
(0.00788889 -0.00355839 0)
(0.00832242 -0.00279878 0)
(0.00853203 -0.00198646 0)
(0.00850655 -0.00115538 0)
(0.00823909 -0.00032989 0)
(0.00772468 0.000476099 0)
(0.00695804 0.00125906 0)
(0.00593143 0.00202518 0)
(0.00463297 0.00278898 0)
(0.00304533 0.00357144 0)
(0.00114504 0.00439769 0)
(-0.00109754 0.00529453 0)
(-0.00371763 0.00628799 0)
(-0.00675486 0.00740122 0)
(-0.0102517 0.00865288 0)
(-0.0142514 0.0100561 0)
(-0.0187964 0.0116182 0)
(-0.0239257 0.0133404 0)
(-0.0296728 0.0152184 0)
(-0.0360639 0.0172419 0)
(-0.0431153 0.0193955 0)
(-0.050831 0.0216579 0)
(-0.0592015 0.0240021 0)
(-0.0682013 0.0263951 0)
(-0.0777883 0.0287989 0)
(-0.0879037 0.0311704 0)
(-0.0984728 0.0334632 0)
(-0.109407 0.035629 0)
(-0.120606 0.0376195 0)
(-0.131962 0.0393883 0)
(-0.143364 0.0408931 0)
(-0.154702 0.0420974 0)
(-0.165868 0.0429714 0)
(-0.176766 0.0434932 0)
(-0.187307 0.0436487 0)
(-0.197414 0.0434317 0)
(-0.207022 0.0428429 0)
(-0.216081 0.041889 0)
(-0.224548 0.0405816 0)
(-0.232393 0.0389363 0)
(-0.239593 0.0369712 0)
(-0.246132 0.0347059 0)
(-0.252 0.0321613 0)
(-0.257189 0.0293581 0)
(-0.261696 0.0263171 0)
(-0.265517 0.0230582 0)
(-0.268651 0.0196011 0)
(-0.271095 0.0159647 0)
(-0.272846 0.0121674 0)
(-0.273902 0.00822756 0)
(-0.274257 0.0041635 0)
(-0.273906 -5.82924e-06 0)
(-0.272844 -0.00426057 0)
(-0.271064 -0.00857958 0)
(-0.268557 -0.0129397 0)
(-0.265319 -0.0173154 0)
(-0.26134 -0.0216784 0)
(-0.256617 -0.0259974 0)
(-0.251144 -0.0302375 0)
(-0.244921 -0.0343603 0)
(-0.23795 -0.0383239 0)
(-0.230237 -0.0420831 0)
(-0.221796 -0.0455896 0)
(-0.212647 -0.0487933 0)
(-0.202817 -0.0516426 0)
(-0.192343 -0.0540866 0)
(-0.181274 -0.056076 0)
(-0.169669 -0.0575653 0)
(-0.157597 -0.0585148 0)
(-0.145141 -0.0588927 0)
(-0.132393 -0.058677 0)
(-0.119455 -0.0578572 0)
(-0.106437 -0.0564362 0)
(-0.0934526 -0.0544304 0)
(-0.0806204 -0.0518703 0)
(-0.0680568 -0.0488001 0)
(-0.0558749 -0.0452763 0)
(-0.0441813 -0.041366 0)
(-0.0330732 -0.0371444 0)
(-0.0226365 -0.0326928 0)
(-0.012945 -0.0280953 0)
(-0.00405899 -0.023437 0)
(0.00397433 -0.0188011 0)
(0.0111208 -0.0142671 0)
(0.017359 -0.00990909 0)
(0.0226796 -0.00579433 0)
(0.0270852 -0.0019816 0)
(0.0305902 0.00147972 0)
(0.0332213 0.00455106 0)
(0.0350165 0.0072055 0)
(0.0360262 0.00942853 0)
(0.0363113 0.0112183 0)
(0.0359427 0.0125855 0)
(0.0349994 0.0135523 0)
(0.0335656 0.014151 0)
(0.031728 0.0144218 0)
(0.0295729 0.0144105 0)
(0.0271829 0.0141658 0)
(0.0246347 0.0137361 0)
(0.0219974 0.0131668 0)
(0.0193306 0.0124973 0)
(0.0166854 0.0117583 0)
(0.0141041 0.0109689 0)
(0.0116225 0.0101346 0)
(0.00927201 0.00924566 0)
(0.00708291 0.00827818 0)
(0.00508825 0.00719625 0)
(0.0033286 0.00595791 0)
(0.0018466 0.0045242 0)
(0.000754198 0.00287094 0)
(8.62046e-05 0.00101295 0)
(6.31107e-05 -0.00115069 0)
(0.00054842 -0.00302963 0)
(0.00131434 -0.00447509 0)
(0.00229751 -0.00547989 0)
(0.0033674 -0.00605693 0)
(0.00444336 -0.00623679 0)
(0.00545063 -0.00606496 0)
(0.00632783 -0.00559727 0)
(0.00702663 -0.00489473 0)
(0.00751062 -0.00401855 0)
(0.00775352 -0.00302577 0)
(0.00773713 -0.00196567 0)
(0.00744893 -0.000877149 0)
(0.00687948 0.000212963 0)
(0.00601995 0.00129063 0)
(0.0048597 0.00235444 0)
(0.00338425 0.00341457 0)
(0.00157375 0.00449098 0)
(-0.000598 0.00561086 0)
(-0.0031637 0.0068057 0)
(-0.00616205 0.00810807 0)
(-0.00963645 0.00954859 0)
(-0.0136332 0.0111532 0)
(-0.018199 0.0129415 0)
(-0.0233789 0.0149249 0)
(-0.0292132 0.0171071 0)
(-0.0357351 0.0194829 0)
(-0.0429678 0.0220392 0)
(-0.0509221 0.024755 0)
(-0.059594 0.0276011 0)
(-0.0689623 0.0305409 0)
(-0.0789877 0.0335302 0)
(-0.0896117 0.0365184 0)
(-0.100757 0.0394494 0)
(-0.112332 0.0422641 0)
(-0.124228 0.044902 0)
(-0.13633 0.0473045 0)
(-0.148518 0.049417 0)
(-0.160672 0.0511918 0)
(-0.172679 0.0525895 0)
(-0.184433 0.0535804 0)
(-0.195841 0.0541448 0)
(-0.206825 0.0542731 0)
(-0.217319 0.0539644 0)
(-0.227275 0.0532259 0)
(-0.236652 0.0520706 0)
(-0.245426 0.0505168 0)
(-0.253577 0.0485855 0)
(-0.261095 0.0463001 0)
(-0.267975 0.0436847 0)
(-0.274214 0.0407634 0)
(-0.279812 0.0375597 0)
(-0.284772 0.0340963 0)
(-0.289094 0.0303944 0)
(-0.292779 0.0264744 0)
(-0.295828 0.022355 0)
(-0.298241 0.0180545 0)
(-0.300014 0.01359 0)
(-0.301145 0.00897858 0)
(-0.301628 0.00423735 0)
(-0.301457 -0.000616057 0)
(-0.300623 -0.00556294 0)
(-0.299117 -0.010583 0)
(-0.296928 -0.0156539 0)
(-0.294043 -0.0207503 0)
(-0.290451 -0.0258439 0)
(-0.286138 -0.0309023 0)
(-0.281092 -0.0358894 0)
(-0.275302 -0.0407641 0)
(-0.268758 -0.0454813 0)
(-0.261455 -0.0499908 0)
(-0.253392 -0.0542387 0)
(-0.244572 -0.0581673 0)
(-0.235007 -0.0617166 0)
(-0.22472 -0.0648255 0)
(-0.213743 -0.0674335 0)
(-0.202118 -0.069483 0)
(-0.189905 -0.0709217 0)
(-0.177174 -0.0717053 0)
(-0.164011 -0.0717998 0)
(-0.150514 -0.0711843 0)
(-0.136795 -0.069853 0)
(-0.122974 -0.0678166 0)
(-0.109177 -0.065103 0)
(-0.0955339 -0.0617572 0)
(-0.0821739 -0.0578401 0)
(-0.0692202 -0.0534265 0)
(-0.0567874 -0.0486022 0)
(-0.0449782 -0.0434609 0)
(-0.0338811 -0.0381006 0)
(-0.0235689 -0.0326207 0)
(-0.0140989 -0.0271183 0)
(-0.0055133 -0.0216866 0)
(0.00215988 -0.016412 0)
(0.0089053 -0.0113737 0)
(0.0147191 -0.00664165 0)
(0.0196081 -0.00227625 0)
(0.0235892 0.00167289 0)
(0.0266893 0.00516775 0)
(0.0289458 0.00818276 0)
(0.0304061 0.0107055 0)
(0.0311278 0.0127369 0)
(0.0311776 0.0142913 0)
(0.0306304 0.0153952 0)
(0.0295665 0.016086 0)
(0.0280697 0.0164095 0)
(0.026224 0.0164172 0)
(0.0241112 0.016163 0)
(0.0218081 0.0156996 0)
(0.0193846 0.0150748 0)
(0.0169034 0.0143276 0)
(0.0144189 0.013485 0)
(0.011979 0.0125582 0)
(0.00962638 0.011541 0)
(0.00740203 0.0104092 0)
(0.00534894 0.00912225 0)
(0.00351755 0.00762791 0)
(0.00196024 0.00586979 0)
(0.000803843 0.00379719 0)
(9.21817e-05 0.00138208 0)
(6.50659e-05 -0.00141478 0)
(0.000560773 -0.00367465 0)
(0.00133195 -0.00536934 0)
(0.00230617 -0.00650871 0)
(0.00334275 -0.00712093 0)
(0.00435455 -0.0072516 0)
(0.00526254 -0.00696103 0)
(0.00600321 -0.00631919 0)
(0.00652751 -0.00540012 0)
(0.0067991 -0.00427631 0)
(0.00679179 -0.00301387 0)
(0.00648689 -0.0016686 0)
(0.00587031 -0.00028318 0)
(0.00492964 0.00111446 0)
(0.00365141 0.00251174 0)
(0.00201868 0.0039109 0)
(9.20106e-06 0.00532749 0)
(-0.00240578 0.00678786 0)
(-0.00526193 0.00832592 0)
(-0.00860127 0.00997931 0)
(-0.0124708 0.0117855 0)
(-0.0169206 0.0137779 0)
(-0.0220005 0.0159829 0)
(-0.0277577 0.0184176 0)
(-0.0342333 0.0210882 0)
(-0.0414591 0.0239901 0)
(-0.0494545 0.0271072 0)
(-0.0582235 0.0304124 0)
(-0.0677525 0.0338683 0)
(-0.0780079 0.0374274 0)
(-0.0889355 0.0410334 0)
(-0.10046 0.044622 0)
(-0.112487 0.0481238 0)
(-0.124905 0.0514664 0)
(-0.137594 0.0545778 0)
(-0.150424 0.0573898 0)
(-0.163267 0.0598412 0)
(-0.175999 0.0618807 0)
(-0.188507 0.063468 0)
(-0.20069 0.0645753 0)
(-0.212465 0.0651871 0)
(-0.223764 0.0652991 0)
(-0.234534 0.0649168 0)
(-0.244737 0.0640537 0)
(-0.254349 0.0627294 0)
(-0.263353 0.0609678 0)
(-0.271742 0.0587951 0)
(-0.279512 0.0562389 0)
(-0.286666 0.0533269 0)
(-0.293208 0.050086 0)
(-0.299141 0.0465421 0)
(-0.304473 0.0427192 0)
(-0.309208 0.03864 0)
(-0.31335 0.0343251 0)
(-0.316904 0.0297939 0)
(-0.319873 0.0250641 0)
(-0.322257 0.0201523 0)
(-0.324057 0.0150743 0)
(-0.32527 0.00984544 0)
(-0.325893 0.00448113 0)
(-0.325921 -0.0010028 0)
(-0.325345 -0.00658947 0)
(-0.324155 -0.0122603 0)
(-0.32234 -0.0179946 0)
(-0.319885 -0.0237686 0)
(-0.316773 -0.029555 0)
(-0.312986 -0.0353224 0)
(-0.308504 -0.0410346 0)
(-0.303307 -0.0466501 0)
(-0.297374 -0.0521219 0)
(-0.290686 -0.057397 0)
(-0.283226 -0.0624171 0)
(-0.274982 -0.0671186 0)
(-0.265946 -0.0714336 0)
(-0.25612 -0.0752913 0)
(-0.245515 -0.0786198 0)
(-0.234155 -0.0813481 0)
(-0.222078 -0.0834095 0)
(-0.209339 -0.084744 0)
(-0.196009 -0.0853021 0)
(-0.182178 -0.0850478 0)
(-0.167951 -0.0839618 0)
(-0.15345 -0.0820438 0)
(-0.138811 -0.0793144 0)
(-0.124175 -0.0758153 0)
(-0.109689 -0.0716085 0)
(-0.0954993 -0.0667747 0)
(-0.0817446 -0.06141 0)
(-0.068552 -0.0556217 0)
(-0.0560333 -0.0495239 0)
(-0.0442818 -0.0432333 0)
(-0.0333716 -0.0368645 0)
(-0.0233569 -0.030527 0)
(-0.0142741 -0.0243223 0)
(-0.00614367 -0.0183423 0)
(0.00102769 -0.0126686 0)
(0.00724447 -0.00737161 0)
(0.0125207 -0.00251015 0)
(0.0168791 0.00186858 0)
(0.0203503 0.00572975 0)
(0.0229733 0.00905149 0)
(0.0247957 0.0118254 0)
(0.0258735 0.0140569 0)
(0.0262712 0.0157649 0)
(0.0260605 0.016981 0)
(0.0253186 0.0177476 0)
(0.0241264 0.0181156 0)
(0.0225656 0.0181408 0)
(0.0207162 0.0178801 0)
(0.0186545 0.0173876 0)
(0.0164514 0.0167092 0)
(0.0141712 0.0158789 0)
(0.0118727 0.0149137 0)
(0.00960937 0.0138113 0)
(0.00743311 0.0125477 0)
(0.00539728 0.0110781 0)
(0.00356232 0.00934002 0)
(0.00198998 0.00725937 0)
(0.000816999 0.00475839 0)
(9.36475e-05 0.00176627 0)
(6.61323e-05 -0.00168375 0)
(0.000563307 -0.00432207 0)
(0.00132204 -0.00625207 0)
(0.00226082 -0.0075023 0)
(0.00323039 -0.00811851 0)
(0.00413815 -0.00816391 0)
(0.0049019 -0.00771583 0)
(0.00545688 -0.00686014 0)
(0.00575409 -0.0056849 0)
(0.00575767 -0.00427416 0)
(0.00544172 -0.00270267 0)
(0.00478696 -0.00103176 0)
(0.00377731 0.000693514 0)
(0.00239669 0.00244582 0)
(0.000626114 0.00421578 0)
(-0.00155856 0.00601089 0)
(-0.00418817 0.00785331 0)
(-0.00730082 0.00977647 0)
(-0.0109415 0.0118209 0)
(-0.0151606 0.0140294 0)
(-0.0200113 0.0164423 0)
(-0.0255469 0.019093 0)
(-0.0318164 0.0220046 0)
(-0.0388614 0.0251871 0)
(-0.0467119 0.0286365 0)
(-0.0553828 0.0323344 0)
(-0.0648709 0.036248 0)
(-0.0751523 0.040331 0)
(-0.0861805 0.0445248 0)
(-0.0978861 0.0487599 0)
(-0.110178 0.0529583 0)
(-0.122944 0.0570366 0)
(-0.136059 0.0609096 0)
(-0.149389 0.0644942 0)
(-0.162795 0.0677141 0)
(-0.176142 0.0705028 0)
(-0.189308 0.0728066 0)
(-0.202181 0.0745863 0)
(-0.214669 0.0758171 0)
(-0.226695 0.0764884 0)
(-0.238204 0.0766018 0)
(-0.249153 0.076169 0)
(-0.259515 0.0752096 0)
(-0.269274 0.0737491 0)
(-0.278421 0.0718162 0)
(-0.286956 0.0694417 0)
(-0.294882 0.0666569 0)
(-0.302205 0.0634925 0)
(-0.308933 0.0599784 0)
(-0.315075 0.0561423 0)
(-0.32064 0.0520106 0)
(-0.325638 0.0476073 0)
(-0.330078 0.0429543 0)