/*--------------------------------*- C++ -*----------------------------------*\
| =========                 |                                                 |
| \\      /  F ield         | OpenFOAM: The Open Source CFD Toolbox           |
|  \\    /   O peration     | Version:  2406                                  |
|   \\  /    A nd           | Website:  www.openfoam.com                      |
|    \\/     M anipulation  |                                                 |
\*---------------------------------------------------------------------------*/
FoamFile
{
    version     2.0;
    format      ascii;
    arch        "LSB;label=32;scalar=64";
    class       volVectorField;
    location    "11.5";
    object      U_0;
}
// * * * * * * * * * * * * * * * * * * * * * * * * * * * * * * * * * * * * * //

dimensions      [0 1 -1 0 0 0 0];

internalField   nonuniform List<vector> 
14400
(
(3.60681e-06 -3.59153e-06 0)
(1.34244e-05 -2.48439e-06 0)
(1.36013e-05 4.90884e-07 0)
(6.26558e-07 4.04165e-06 0)
(-2.61055e-05 7.26597e-06 0)
(-6.47748e-05 9.90893e-06 0)
(-0.000113035 1.19197e-05 0)
(-0.000168551 1.33649e-05 0)
(-0.000229281 1.43483e-05 0)
(-0.000293573 1.49781e-05 0)
(-0.000360169 1.53527e-05 0)
(-0.000428167 1.5555e-05 0)
(-0.000496963 1.56509e-05 0)
(-0.000566188 1.56907e-05 0)
(-0.000635651 1.57108e-05 0)
(-0.000705294 1.57363e-05 0)
(-0.000775145 1.57834e-05 0)
(-0.000845288 1.58613e-05 0)
(-0.00091584 1.59741e-05 0)
(-0.000986931 1.61222e-05 0)
(-0.00105869 1.63038e-05 0)
(-0.00113123 1.65153e-05 0)
(-0.00120467 1.67522e-05 0)
(-0.00127908 1.70093e-05 0)
(-0.00135453 1.72813e-05 0)
(-0.00143107 1.75627e-05 0)
(-0.00150871 1.78478e-05 0)
(-0.00158745 1.81313e-05 0)
(-0.00166727 1.84074e-05 0)
(-0.00174811 1.86706e-05 0)
(-0.00182991 1.89152e-05 0)
(-0.00191255 1.91356e-05 0)
(-0.00199593 1.9326e-05 0)
(-0.00207989 1.94806e-05 0)
(-0.00216427 1.95935e-05 0)
(-0.00224887 1.96587e-05 0)
(-0.00233346 1.96702e-05 0)
(-0.0024178 1.9622e-05 0)
(-0.00250162 1.95083e-05 0)
(-0.00258463 1.9323e-05 0)
(-0.0026665 1.90605e-05 0)
(-0.0027469 1.87152e-05 0)
(-0.00282545 1.82818e-05 0)
(-0.00290178 1.77551e-05 0)
(-0.00297548 1.71306e-05 0)
(-0.00304612 1.64039e-05 0)
(-0.00311328 1.55715e-05 0)
(-0.00317651 1.46301e-05 0)
(-0.00323534 1.35774e-05 0)
(-0.00328931 1.24118e-05 0)
(-0.00333795 1.11323e-05 0)
(-0.00338081 9.73934e-06 0)
(-0.00341741 8.23402e-06 0)
(-0.0034473 6.61878e-06 0)
(-0.00347006 4.89653e-06 0)
(-0.00348527 3.07262e-06 0)
(-0.00349256 1.16669e-06 0)
(-0.00349154 -8.18712e-07 0)
(-0.00348189 -2.89404e-06 0)
(-0.00346338 -5.03716e-06 0)
(-0.00343577 -7.22966e-06 0)
(-0.0033989 -9.45839e-06 0)
(-0.00335267 -1.17077e-05 0)
(-0.00329706 -1.39601e-05 0)
(-0.00323209 -1.61971e-05 0)
(-0.00315791 -1.83991e-05 0)
(-0.00307471 -2.05458e-05 0)
(-0.00298277 -2.26163e-05 0)
(-0.00288247 -2.45897e-05 0)
(-0.00277425 -2.64453e-05 0)
(-0.00265866 -2.81631e-05 0)
(-0.0025363 -2.97241e-05 0)
(-0.00240786 -3.11107e-05 0)
(-0.00227409 -3.23071e-05 0)
(-0.00213579 -3.32999e-05 0)
(-0.00199382 -3.4078e-05 0)
(-0.00184907 -3.46332e-05 0)
(-0.00170247 -3.49601e-05 0)
(-0.00155495 -3.50568e-05 0)
(-0.00140744 -3.49243e-05 0)
(-0.00126087 -3.45666e-05 0)
(-0.00111615 -3.39912e-05 0)
(-0.000974149 -3.32081e-05 0)
(-0.000835686 -3.223e-05 0)
(-0.000701533 -3.10718e-05 0)
(-0.000572398 -2.97504e-05 0)
(-0.00044892 -2.8284e-05 0)
(-0.000331662 -2.66921e-05 0)
(-0.000221109 -2.49945e-05 0)
(-0.000117668 -2.32113e-05 0)
(-2.16656e-05 -2.13622e-05 0)
(6.66498e-05 -1.94663e-05 0)
(0.000147103 -1.75415e-05 0)
(0.000219591 -1.56046e-05 0)
(0.000284073 -1.36708e-05 0)
(0.000340567 -1.17534e-05 0)
(0.000389144 -9.86392e-06 0)
(0.000429917 -8.01192e-06 0)
(0.000463038 -6.20488e-06 0)
(0.000488687 -4.44857e-06 0)
(0.000507067 -2.74628e-06 0)
(0.000518403 -1.09524e-06 0)
(0.00052297 4.88703e-07 0)
(0.000520949 1.94331e-06 0)
(0.000512552 3.35487e-06 0)
(0.000498123 4.74598e-06 0)
(0.000477931 6.07206e-06 0)
(0.000452243 7.32073e-06 0)
(0.000421381 8.48702e-06 0)
(0.000385719 9.55774e-06 0)
(0.000345715 1.05099e-05 0)
(0.000301956 1.1307e-05 0)
(0.000255221 1.18923e-05 0)
(0.000206574 1.2181e-05 0)
(0.000157483 1.20479e-05 0)
(0.00010998 1.13199e-05 0)
(6.68151e-05 9.75756e-06 0)
(3.13845e-05 7.17633e-06 0)
(8.22036e-06 3.37379e-06 0)
(-1.44802e-07 -1.42766e-07 0)
(2.54699e-06 -1.34403e-05 0)
(5.24971e-06 -5.22905e-06 0)
(-1.76138e-05 1.98797e-05 0)
(-7.21359e-05 4.87593e-05 0)
(-0.000159088 7.5787e-05 0)
(-0.000274987 9.85863e-05 0)
(-0.000414928 0.000116569 0)
(-0.000573796 0.000130029 0)
(-0.000746902 0.000139642 0)
(-0.000930285 0.000146194 0)
(-0.0011208 0.000150447 0)
(-0.00131608 0.000153071 0)
(-0.00151444 0.000154621 0)
(-0.00171476 0.000155533 0)
(-0.0019164 0.000156135 0)
(-0.00211901 0.000156661 0)
(-0.00232252 0.000157271 0)
(-0.00252699 0.000158062 0)
(-0.00273261 0.000159085 0)
(-0.0029396 0.000160357 0)
(-0.00314819 0.000161872 0)
(-0.00335864 0.000163608 0)
(-0.00357112 0.000165528 0)
(-0.00378581 0.000167594 0)
(-0.00400281 0.000169759 0)
(-0.00422219 0.000171976 0)
(-0.00444395 0.000174196 0)
(-0.00466802 0.000176369 0)
(-0.00489428 0.000178444 0)
(-0.00512256 0.000180371 0)
(-0.00535261 0.000182097 0)
(-0.00558412 0.00018357 0)
(-0.00581673 0.000184738 0)
(-0.00604998 0.000185548 0)
(-0.00628339 0.000185945 0)
(-0.00651638 0.000185877 0)
(-0.00674833 0.00018529 0)
(-0.00697854 0.00018413 0)
(-0.00720625 0.000182346 0)
(-0.00743065 0.000179886 0)
(-0.00765086 0.000176702 0)
(-0.00786596 0.000172747 0)
(-0.00807496 0.000167976 0)
(-0.00827683 0.00016235 0)
(-0.00847051 0.000155832 0)
(-0.0086549 0.00014839 0)
(-0.00882886 0.000139998 0)
(-0.00899124 0.000130636 0)
(-0.00914089 0.00012029 0)
(-0.00927662 0.000108954 0)
(-0.00939727 9.66306e-05 0)
(-0.00950171 8.33308e-05 0)
(-0.0095888 6.90751e-05 0)
(-0.00965748 5.38945e-05 0)
(-0.00970671 3.78304e-05 0)
(-0.00973553 2.09341e-05 0)
(-0.00974308 3.27925e-06 0)
(-0.00972855 -1.5019e-05 0)
(-0.00969124 -3.39281e-05 0)
(-0.0096306 -5.33315e-05 0)
(-0.00954621 -7.31055e-05 0)
(-0.00943778 -9.31196e-05 0)
(-0.00930518 -0.000113233 0)
(-0.00914847 -0.000133296 0)
(-0.00896788 -0.000153149 0)
(-0.00876381 -0.000172625 0)
(-0.00853689 -0.000191554 0)
(-0.00828791 -0.000209763 0)
(-0.00801787 -0.000227078 0)
(-0.00772798 -0.000243329 0)
(-0.00741962 -0.000258353 0)
(-0.00709434 -0.000271995 0)
(-0.00675387 -0.000284112 0)
(-0.0064001 -0.000294578 0)
(-0.00603502 -0.000303283 0)
(-0.00566075 -0.00031014 0)
(-0.0052795 -0.000315083 0)
(-0.00489352 -0.00031807 0)
(-0.0045051 -0.000319083 0)
(-0.00411654 -0.000318133 0)
(-0.0037301 -0.000315252 0)
(-0.00334801 -0.0003105 0)
(-0.00297239 -0.000303958 0)
(-0.0026053 -0.000295729 0)
(-0.00224863 -0.000285932 0)
(-0.00190415 -0.000274706 0)
(-0.00157348 -0.000262197 0)
(-0.00125804 -0.000248565 0)
(-0.000959095 -0.000233972 0)
(-0.000677714 -0.000218582 0)
(-0.000414781 -0.000202558 0)
(-0.000171 -0.00018606 0)
(5.31039e-05 -0.000169237 0)
(0.000257169 -0.000152231 0)
(0.000440992 -0.00013517 0)
(0.000604509 -0.00011817 0)
(0.000747784 -0.000101331 0)
(0.00087099 -8.47411e-05 0)
(0.000974395 -6.84705e-05 0)
(0.00105835 -5.25776e-05 0)
(0.00112326 -3.7108e-05 0)
(0.00116961 -2.20972e-05 0)
(0.00119785 -7.58369e-06 0)
(0.00120856 6.36878e-06 0)
(0.00120237 1.98349e-05 0)
(0.00117986 3.2775e-05 0)
(0.00114168 4.51201e-05 0)
(0.0010886 5.68049e-05 0)
(0.00102148 6.77329e-05 0)
(0.000941341 7.77532e-05 0)
(0.000849458 8.6636e-05 0)
(0.000747446 9.40403e-05 0)
(0.000637411 9.94711e-05 0)
(0.000522123 0.000102229 0)
(0.000405242 0.000101354 0)
(0.000291548 9.56051e-05 0)
(0.00018711 8.35278e-05 0)
(9.87628e-05 6.38131e-05 0)
(3.62e-05 3.62354e-05 0)
(3.361e-06 8.2135e-06 0)
(-5.53237e-07 -1.34695e-05 0)
(-2.12714e-05 1.81219e-05 0)
(-8.25189e-05 7.97642e-05 0)
(-0.000190292 0.000147932 0)
(-0.000343341 0.00021197 0)
(-0.00053739 0.000266899 0)
(-0.000766116 0.00031119 0)
(-0.00102279 0.000345206 0)
(-0.00130109 0.000370248 0)
(-0.00159553 0.00038796 0)
(-0.00190163 0.000400013 0)
(-0.00221592 0.00040793 0)
(-0.00253581 0.000413006 0)
(-0.00285955 0.000416286 0)
(-0.00318597 0.000418575 0)
(-0.00351442 0.000420463 0)
(-0.00384462 0.000422361 0)
(-0.0041765 0.000424532 0)
(-0.00451021 0.000427126 0)
(-0.00484593 0.000430208 0)
(-0.00518392 0.00043378 0)
(-0.00552442 0.000437797 0)
(-0.00586764 0.000442187 0)
(-0.00621373 0.000446856 0)
(-0.00656278 0.000451697 0)
(-0.00691481 0.000456594 0)
(-0.00726974 0.000461426 0)
(-0.00762741 0.00046607 0)
(-0.00798758 0.000470398 0)
(-0.0083499 0.000474281 0)
(-0.00871393 0.000477589 0)
(-0.00907913 0.00048019 0)
(-0.00944489 0.000481951 0)
(-0.00981046 0.000482738 0)
(-0.010175 0.000482417 0)
(-0.0105377 0.000480855 0)
(-0.0108974 0.00047792 0)
(-0.011253 0.000473482 0)
(-0.0116034 0.000467415 0)
(-0.0119473 0.000459597 0)
(-0.0122833 0.000449913 0)
(-0.01261 0.000438254 0)
(-0.0129259 0.00042452 0)
(-0.0132294 0.000408622 0)
(-0.013519 0.000390482 0)
(-0.0137929 0.000370034 0)
(-0.0140496 0.000347229 0)
(-0.0142872 0.000322031 0)
(-0.0145042 0.000294425 0)
(-0.0146988 0.000264413 0)
(-0.0148695 0.00023202 0)
(-0.0150145 0.00019729 0)
(-0.0151323 0.000160294 0)
(-0.0152215 0.000121127 0)
(-0.0152806 7.99082e-05 0)
(-0.0153085 3.67835e-05 0)
(-0.0153038 -8.07376e-06 0)
(-0.0152656 -5.44255e-05 0)
(-0.0151932 -0.000102063 0)
(-0.0150857 -0.000150729 0)
(-0.0149428 -0.000200129 0)
(-0.0147642 -0.000249945 0)
(-0.0145499 -0.000299836 0)
(-0.0143001 -0.00034944 0)
(-0.0140153 -0.000398376 0)
(-0.0136962 -0.00044625 0)
(-0.0133438 -0.00049266 0)
(-0.0129595 -0.000537199 0)
(-0.0125447 -0.000579465 0)
(-0.0121013 -0.000619063 0)
(-0.0116313 -0.000655614 0)
(-0.0111371 -0.000688764 0)
(-0.0106211 -0.000718187 0)
(-0.010086 -0.000743593 0)
(-0.00953482 -0.000764733 0)
(-0.00897051 -0.000781409 0)
(-0.00839622 -0.000793472 0)
(-0.00781518 -0.000800828 0)
(-0.00723063 -0.000803442 0)
(-0.00664583 -0.000801336 0)
(-0.00606401 -0.000794591 0)
(-0.00548831 -0.000783341 0)
(-0.00492177 -0.000767776 0)
(-0.00436731 -0.000748132 0)
(-0.00382764 -0.000724688 0)
(-0.00330532 -0.000697759 0)
(-0.00280265 -0.000667689 0)
(-0.00232173 -0.000634843 0)
(-0.0018644 -0.000599599 0)
(-0.00143226 -0.00056234 0)
(-0.00102663 -0.000523447 0)
(-0.000648621 -0.000483292 0)
(-0.000299064 -0.000442228 0)
(2.14232e-05 -0.00040059 0)
(0.000312441 -0.000358684 0)
(0.00057379 -0.000316786 0)
(0.000805449 -0.000275141 0)
(0.00100755 -0.000233961 0)
(0.00118038 -0.000193423 0)
(0.00132431 -0.000153677 0)
(0.00143985 -0.000114844 0)
(0.00152756 -7.70241e-05 0)
(0.00158808 -4.02987e-05 0)
(0.00162215 -4.70986e-06 0)
(0.00163056 2.96551e-05 0)
(0.00161412 6.26703e-05 0)
(0.00157382 9.42231e-05 0)
(0.00151076 0.000124129 0)
(0.00142624 0.000152107 0)
(0.00132181 0.000177744 0)
(0.00119942 0.000200442 0)
(0.00106152 0.000219353 0)
(0.000911277 0.000233299 0)
(0.000752716 0.000240689 0)
(0.000591013 0.000239453 0)
(0.000432669 0.000227061 0)
(0.00028562 0.000200728 0)
(0.000158266 0.000158114 0)
(6.38357e-05 9.88201e-05 0)
(7.16159e-06 3.13486e-05 0)
(-4.58641e-06 9.37338e-07 0)
(-5.4524e-05 7.63935e-05 0)
(-0.000161106 0.000190163 0)
(-0.00032883 0.000311241 0)
(-0.000552274 0.000424403 0)
(-0.000825973 0.000522122 0)
(-0.00114232 0.000601887 0)
(-0.00149341 0.000664129 0)
(-0.00187185 0.000710836 0)
(-0.00227114 0.000744653 0)
(-0.00268591 0.000768339 0)
(-0.00311187 0.000784468 0)
(-0.00354581 0.000795267 0)
(-0.00398542 0.000802567 0)
(-0.00442913 0.000807799 0)
(-0.00487597 0.000812031 0)
(-0.00532541 0.00081602 0)
(-0.00577725 0.000820266 0)
(-0.00623148 0.000825064 0)
(-0.00668823 0.000830555 0)
(-0.00714766 0.000836762 0)
(-0.00760996 0.000843624 0)
(-0.00807528 0.000851022 0)
(-0.00854371 0.000858794 0)
(-0.00901525 0.000866753 0)
(-0.00948983 0.000874692 0)
(-0.00996725 0.000882392 0)
(-0.0104472 0.000889628 0)
(-0.0109293 0.000896166 0)
(-0.011413 0.000901768 0)
(-0.0118976 0.000906196 0)
(-0.0123824 0.000909206 0)
(-0.0128665 0.000910554 0)
(-0.0133489 0.000909995 0)
(-0.0138283 0.000907286 0)
(-0.0143036 0.000902186 0)
(-0.0147734 0.000894457 0)
(-0.0152362 0.000883869 0)
(-0.0156904 0.000870199 0)
(-0.0161343 0.000853235 0)
(-0.0165662 0.00083278 0)
(-0.0169841 0.000808649 0)
(-0.0173862 0.000780679 0)
(-0.0177704 0.000748724 0)
(-0.0181348 0.000712664 0)
(-0.0184773 0.000672404 0)
(-0.0187957 0.000627877 0)
(-0.0190881 0.000579047 0)
(-0.0193523 0.000525911 0)
(-0.0195864 0.000468503 0)
(-0.0197883 0.000406893 0)
(-0.0199561 0.000341193 0)
(-0.0200882 0.000271554 0)
(-0.0201826 0.000198174 0)
(-0.020238 0.000121297 0)
(-0.0202528 4.12145e-05 0)
(-0.0202258 -4.17369e-05 0)
(-0.0201559 -0.000127194 0)
(-0.0200424 -0.000214696 0)
(-0.0198846 -0.000303768 0)
(-0.019682 -0.000393887 0)
(-0.0194347 -0.000484488 0)
(-0.0191427 -0.000574963 0)
(-0.0188066 -0.000664673 0)
(-0.018427 -0.000752952 0)
(-0.0180052 -0.000839111 0)
(-0.0175423 -0.000922451 0)
(-0.0170403 -0.00100227 0)
(-0.0165009 -0.00107788 0)
(-0.0159267 -0.00114859 0)
(-0.0153201 -0.00121377 0)
(-0.014684 -0.0012728 0)
(-0.0140216 -0.00132514 0)
(-0.0133362 -0.00137029 0)
(-0.0126313 -0.00140784 0)
(-0.0119106 -0.00143744 0)
(-0.011178 -0.00145886 0)
(-0.0104374 -0.00147193 0)
(-0.0096926 -0.0014766 0)
(-0.00894767 -0.00147292 0)
(-0.00820646 -0.00146102 0)
(-0.00747278 -0.00144114 0)
(-0.00675032 -0.00141361 0)
(-0.00604258 -0.00137883 0)
(-0.0053529 -0.00133729 0)
(-0.00468435 -0.00128951 0)
(-0.00403977 -0.00123611 0)
(-0.00342174 -0.0011777 0)
(-0.00283252 -0.00111494 0)
(-0.00227411 -0.0010485 0)
(-0.00174819 -0.000979021 0)
(-0.00125616 -0.000907159 0)
(-0.000799113 -0.00083353 0)
(-0.000377896 -0.000758715 0)
(6.91653e-06 -0.000683251 0)
(0.000354981 -0.000607625 0)
(0.00066617 -0.000532269 0)
(0.000940544 -0.000457562 0)
(0.00117833 -0.000383825 0)
(0.00137991 -0.000311329 0)
(0.00154577 -0.000240299 0)
(0.00167652 -0.000170923 0)
(0.00177287 -0.000103361 0)
(0.00183563 -3.77609e-05 0)
(0.00186568 2.56832e-05 0)
(0.00186402 8.67842e-05 0)
(0.00183183 0.000145274 0)
(0.00177046 0.000200767 0)
(0.00168153 0.000252709 0)
(0.00156699 0.000300317 0)
(0.00142931 0.000342486 0)
(0.00127155 0.000377699 0)
(0.00109761 0.00040391 0)
(0.000912379 0.000418447 0)
(0.000722001 0.000417944 0)
(0.000534028 0.000398419 0)
(0.000357544 0.000355598 0)
(0.000202028 0.00028579 0)
(8.39316e-05 0.000187501 0)
(9.7683e-06 6.68215e-05 0)
(-8.7463e-06 3.20253e-05 0)
(-8.96236e-05 0.000174285 0)
(-0.0002443 0.000355585 0)
(-0.000474995 0.000540878 0)
(-0.000770909 0.00071204 0)
(-0.00112482 0.000859868 0)
(-0.00152763 0.000981292 0)
(-0.00197036 0.00107701 0)
(-0.00244477 0.00114981 0)
(-0.00294366 0.00120341 0)
(-0.00346102 0.00124174 0)
(-0.00399203 0.0012685 0)
(-0.00453303 0.00128696 0)
(-0.00508129 0.00129981 0)
(-0.00563493 0.00130918 0)
(-0.00619271 0.0013167 0)
(-0.00675388 0.00132351 0)
(-0.00731804 0.00133041 0)
(-0.00788505 0.00133786 0)
(-0.0084549 0.0013461 0)
(-0.00902765 0.00135519 0)
(-0.00960336 0.00136506 0)
(-0.0101821 0.00137553 0)
(-0.0107638 0.00138638 0)
(-0.0113484 0.00139731 0)
(-0.0119356 0.00140802 0)
(-0.0125251 0.00141817 0)
(-0.0131165 0.00142741 0)
(-0.013709 0.00143538 0)
(-0.0143021 0.00144172 0)
(-0.0148948 0.00144606 0)
(-0.015486 0.00144801 0)
(-0.0160747 0.00144719 0)
(-0.0166594 0.00144325 0)
(-0.0172389 0.00143579 0)
(-0.0178113 0.00142446 0)
(-0.0183752 0.00140889 0)
(-0.0189286 0.00138875 0)
(-0.0194695 0.00136371 0)
(-0.0199961 0.00133345 0)
(-0.020506 0.0012977 0)
(-0.0209971 0.00125619 0)
(-0.0214672 0.0012087 0)
(-0.0219139 0.00115504 0)
(-0.0223348 0.00109506 0)
(-0.0227276 0.00102864 0)
(-0.0230899 0.000955732 0)
(-0.0234195 0.000876309 0)
(-0.0237139 0.000790411 0)
(-0.0239709 0.000698128 0)
(-0.0241885 0.000599611 0)
(-0.0243646 0.000495066 0)
(-0.0244972 0.000384765 0)
(-0.0245846 0.000269044 0)
(-0.0246252 0.000148304 0)
(-0.0246175 2.30131e-05 0)
(-0.0245604 -0.00010629 0)
(-0.0244528 -0.00023901 0)
(-0.0242941 -0.000374468 0)
(-0.0240836 -0.000511929 0)
(-0.0238212 -0.000650595 0)
(-0.0235071 -0.00078961 0)
(-0.0231415 -0.000928067 0)
(-0.0227252 -0.00106501 0)
(-0.0222593 -0.00119946 0)
(-0.0217451 -0.00133039 0)
(-0.0211844 -0.00145678 0)
(-0.0205792 -0.00157761 0)
(-0.0199319 -0.00169185 0)
(-0.0192452 -0.00179853 0)
(-0.0185221 -0.00189671 0)
(-0.017766 -0.00198551 0)
(-0.0169805 -0.00206412 0)
(-0.0161692 -0.00213186 0)
(-0.0153364 -0.00218811 0)
(-0.014486 -0.00223239 0)
(-0.0136226 -0.00226435 0)
(-0.0127504 -0.00228378 0)
(-0.0118739 -0.0022906 0)
(-0.0109975 -0.00228489 0)
(-0.0101256 -0.00226684 0)
(-0.00926248 -0.00223682 0)
(-0.00841229 -0.0021953 0)
(-0.00757897 -0.00214289 0)
(-0.00676627 -0.00208028 0)
(-0.00597766 -0.00200827 0)
(-0.00521636 -0.00192773 0)
(-0.00448528 -0.00183959 0)
(-0.003787 -0.00174481 0)
(-0.0031238 -0.00164435 0)
(-0.00249763 -0.0015392 0)
(-0.00191009 -0.0014303 0)
(-0.00136249 -0.00131856 0)
(-0.000855835 -0.00120485 0)
(-0.000390845 -0.00108996 0)
(3.20234e-05 -0.000974618 0)
(0.000412548 -0.000859475 0)
(0.000750718 -0.000745094 0)
(0.00104671 -0.000631965 0)
(0.00130087 -0.000520501 0)
(0.00151367 -0.000411054 0)
(0.00168573 -0.000303924 0)
(0.00181776 -0.000199379 0)
(0.0019106 -9.7682e-05 0)
(0.00196523 8.7566e-07 0)
(0.00198273 9.59543e-05 0)
(0.0019644 0.000187089 0)
(0.00191176 0.000273643 0)
(0.00182666 0.000354729 0)
(0.00171135 0.000429113 0)
(0.00156862 0.000495104 0)
(0.00140199 0.000550428 0)
(0.00121584 0.000592092 0)
(0.00101561 0.000616269 0)
(0.000808054 0.000618248 0)
(0.000601419 0.000592525 0)
(0.00040562 0.000533171 0)
(0.000231094 0.000434655 0)
(9.69599e-05 0.000293193 0)
(1.14096e-05 0.000110289 0)
(-1.27917e-05 7.98237e-05 0)
(-0.000124315 0.000312638 0)
(-0.000327353 0.000577815 0)
(-0.000621499 0.000838843 0)
(-0.000990048 0.0010764 0)
(-0.00142357 0.00128073 0)
(-0.00191121 0.00144889 0)
(-0.00244284 0.00158222 0)
(-0.00300941 0.00168454 0)
(-0.00360316 0.00176078 0)
(-0.00421761 0.00181614 0)
(-0.00484761 0.00185551 0)
(-0.00548914 0.00188324 0)
(-0.00613922 0.00190294 0)
(-0.00679571 0.00191749 0)
(-0.00745717 0.00192911 0)
(-0.00812265 0.00193937 0)
(-0.00879159 0.00194937 0)
(-0.00946366 0.00195978 0)
(-0.0101387 0.00197095 0)
(-0.0108167 0.00198297 0)
(-0.0114975 0.00199576 0)
(-0.012181 0.00200909 0)
(-0.0128671 0.00202266 0)
(-0.0135555 0.00203606 0)
(-0.0142458 0.00204888 0)
(-0.0149374 0.00206065 0)
(-0.0156297 0.00207087 0)
(-0.0163219 0.00207904 0)
(-0.017013 0.00208465 0)
(-0.017702 0.00208717 0)
(-0.0183874 0.00208608 0)
(-0.0190679 0.00208085 0)
(-0.0197418 0.00207096 0)
(-0.0204075 0.0020559 0)
(-0.0210631 0.00203516 0)
(-0.0217065 0.00200826 0)
(-0.0223356 0.00197474 0)
(-0.0229482 0.00193416 0)
(-0.0235418 0.00188613 0)
(-0.0241142 0.00183026 0)
(-0.0246627 0.00176625 0)
(-0.0251848 0.00169383 0)
(-0.0256781 0.00161276 0)
(-0.0261398 0.00152289 0)
(-0.0265675 0.00142411 0)
(-0.0269585 0.00131639 0)
(-0.0273105 0.00119977 0)
(-0.027621 0.00107434 0)
(-0.0278876 0.00094029 0)
(-0.0281082 0.000797876 0)
(-0.0282808 0.000647437 0)
(-0.0284034 0.000489395 0)
(-0.0284742 0.000324254 0)
(-0.0284918 0.000152607 0)
(-0.0284548 -2.48685e-05 0)
(-0.0283621 -0.000207408 0)
(-0.0282129 -0.00039416 0)
(-0.0280066 -0.00058419 0)
(-0.0277428 -0.000776478 0)
(-0.0274216 -0.000969929 0)
(-0.0270433 -0.00116338 0)
(-0.0266084 -0.00135559 0)
(-0.0261181 -0.00154528 0)
(-0.0255735 -0.00173112 0)
(-0.0249763 -0.00191175 0)
(-0.0243285 -0.0020858 0)
(-0.0236325 -0.00225189 0)
(-0.0228909 -0.00240869 0)
(-0.0221069 -0.00255488 0)
(-0.0212837 -0.00268922 0)
(-0.020425 -0.00281055 0)
(-0.0195347 -0.00291782 0)
(-0.018617 -0.00301009 0)
(-0.0176763 -0.00308658 0)
(-0.0167171 -0.00314665 0)
(-0.0157441 -0.00318984 0)
(-0.0147621 -0.00321587 0)
(-0.0137758 -0.00322466 0)
(-0.0127902 -0.00321631 0)
(-0.0118099 -0.0031911 0)
(-0.0108396 -0.00314952 0)
(-0.00988381 -0.00309221 0)
(-0.00894674 -0.00301997 0)
(-0.00803248 -0.00293377 0)
(-0.00714482 -0.00283467 0)
(-0.00628722 -0.00272384 0)
(-0.00546287 -0.00260252 0)
(-0.00467456 -0.00247201 0)
(-0.00392478 -0.00233362 0)
(-0.00321564 -0.00218867 0)
(-0.00254892 -0.00203842 0)
(-0.00192605 -0.00188413 0)
(-0.00134814 -0.00172694 0)
(-0.000815994 -0.00156795 0)
(-0.000330146 -0.00140812 0)
(0.000109129 -0.00124836 0)
(0.000501783 -0.00108942 0)
(0.000847962 -0.000931977 0)
(0.00114799 -0.000776604 0)
(0.00140234 -0.00062379 0)
(0.00161163 -0.000473961 0)
(0.00177658 -0.000327508 0)
(0.00189807 -0.000184817 0)
(0.00197709 -4.63163e-05 0)
(0.00201482 8.74707e-05 0)
(0.00201261 0.000215861 0)
(0.00197212 0.000337927 0)
(0.00189534 0.000452399 0)
(0.0017847 0.000557542 0)
(0.00164323 0.000651022 0)
(0.00147472 0.000729754 0)
(0.00128386 0.000789745 0)
(0.00107646 0.000825968 0)
(0.000859668 0.000832301 0)
(0.000642228 0.000801612 0)
(0.00043472 0.000726075 0)
(0.000248443 0.000597833 0)
(0.000104479 0.000409981 0)
(1.22969e-05 0.00015866 0)
(-1.66258e-05 0.000143771 0)
(-0.000157673 0.00049074 0)
(-0.00040796 0.000856379 0)
(-0.000764427 0.00120466 0)
(-0.00120436 0.00151663 0)
(-0.00171584 0.00178317 0)
(-0.00228604 0.00200225 0)
(-0.00290356 0.00217642 0)
(-0.00355852 0.00231082 0)
(-0.00424262 0.0024118 0)
(-0.00494904 0.00248593 0)
(-0.00567234 0.00253937 0)
(-0.00640828 0.00257759 0)
(-0.00715371 0.00260514 0)
(-0.00790632 0.00262568 0)
(-0.00866449 0.00264201 0)
(-0.00942712 0.00265618 0)
(-0.0101935 0.00266958 0)
(-0.0109631 0.00268309 0)
(-0.0117357 0.00269716 0)
(-0.012511 0.00271194 0)
(-0.0132888 0.00272733 0)
(-0.0140688 0.00274305 0)
(-0.0148506 0.00275868 0)
(-0.0156339 0.00277374 0)
(-0.016418 0.00278766 0)
(-0.0172022 0.00279983 0)
(-0.0179856 0.0028096 0)
(-0.0187672 0.00281632 0)
(-0.0195458 0.00281932 0)
(-0.02032 0.00281789 0)
(-0.0210882 0.00281136 0)
(-0.0218488 0.00279904 0)
(-0.0225999 0.00278025 0)
(-0.0233395 0.00275434 0)
(-0.0240654 0.00272066 0)
(-0.0247753 0.0026786 0)
(-0.0254669 0.00262759 0)
(-0.0261376 0.00256708 0)
(-0.0267848 0.0024966 0)
(-0.0274058 0.00241571 0)
(-0.027998 0.00232405 0)
(-0.0285587 0.00222131 0)
(-0.029085 0.00210726 0)
(-0.0295744 0.00198177 0)
(-0.030024 0.00184476 0)
(-0.0304313 0.00169626 0)
(-0.0307938 0.00153637 0)
(-0.031109 0.00136531 0)
(-0.0313747 0.00118337 0)
(-0.0315886 0.000990946 0)
(-0.0317489 0.000788545 0)
(-0.0318536 0.000576762 0)
(-0.0319012 0.000356297 0)
(-0.0318903 0.000127957 0)
(-0.0318196 -0.000107351 0)
(-0.0316884 -0.000348616 0)
(-0.0314958 -0.000594723 0)
(-0.0312415 -0.000844457 0)
(-0.0309254 -0.00109651 0)
(-0.0305477 -0.00134947 0)
(-0.0301089 -0.00160186 0)
(-0.0296098 -0.00185211 0)
(-0.0290516 -0.0020986 0)
(-0.0284358 -0.00233965 0)
(-0.0277642 -0.00257355 0)
(-0.0270391 -0.00279857 0)
(-0.026263 -0.00301299 0)
(-0.0254389 -0.00321512 0)
(-0.02457 -0.00340333 0)
(-0.02366 -0.00357606 0)
(-0.0227126 -0.00373185 0)
(-0.0217322 -0.00386938 0)
(-0.020723 -0.00398749 0)
(-0.0196899 -0.00408519 0)
(-0.0186376 -0.00416168 0)
(-0.0175712 -0.00421641 0)
(-0.0164957 -0.00424901 0)
(-0.0154163 -0.0042594 0)
(-0.014338 -0.0042477 0)
(-0.013266 -0.0042143 0)
(-0.0122051 -0.00415979 0)
(-0.0111603 -0.00408502 0)
(-0.0101359 -0.00399101 0)
(-0.00913638 -0.00387898 0)
(-0.00816575 -0.00375029 0)
(-0.0072277 -0.00360644 0)
(-0.0063256 -0.00344901 0)
(-0.00546243 -0.00327967 0)
(-0.00464082 -0.00310007 0)
(-0.003863 -0.00291191 0)
(-0.00313084 -0.0027168 0)
(-0.00244584 -0.00251634 0)
(-0.00180917 -0.00231201 0)
(-0.00122166 -0.00210518 0)
(-0.000683853 -0.00189711 0)
(-0.00019603 -0.00168894 0)
(0.000241768 -0.00148164 0)
(0.000629709 -0.00127609 0)
(0.000968136 -0.00107301 0)
(0.00125755 -0.000873039 0)
(0.00149859 -0.000676741 0)
(0.00169203 -0.000484631 0)
(0.00183876 -0.000297231 0)
(0.00193984 -0.000115124 0)
(0.00199647 6.09778e-05 0)
(0.0020101 0.000230149 0)
(0.00198243 0.000391147 0)
(0.00191556 0.000542287 0)
(0.00181205 0.000681306 0)
(0.00167508 0.000805193 0)
(0.00150858 0.000910018 0)
(0.00131746 0.000990755 0)
(0.00110774 0.00104113 0)
(0.000886879 0.00105355 0)
(0.000663979 0.00101913 0)
(0.000450161 0.000927908 0)
(0.000257435 0.000769363 0)
(0.00010818 0.000533016 0)
(1.26962e-05 0.000209602 0)
(-2.0236e-05 0.00022307 0)
(-0.000189378 0.000707125 0)
(-0.000485101 0.00118965 0)
(-0.000901805 0.0016366 0)
(-0.00141089 0.00203079 0)
(-0.00199785 0.00236483 0)
(-0.00264775 0.00263848 0)
(-0.00334781 0.00285607 0)
(-0.00408728 0.00302447 0)
(-0.00485732 0.00315168 0)
(-0.00565077 0.00324578 0)
(-0.00646198 0.00331429 0)
(-0.00728656 0.00336383 0)
(-0.00812122 0.00339992 0)
(-0.00896354 0.00342699 0)
(-0.00981178 0.00344845 0)
(-0.0106647 0.00346678 0)
(-0.0115214 0.00348369 0)
(-0.0123814 0.00350025 0)
(-0.0132441 0.00351703 0)
(-0.0141091 0.00353421 0)
(-0.0149761 0.00355166 0)
(-0.0158446 0.00356904 0)
(-0.016714 0.00358584 0)
(-0.0175837 0.00360146 0)
(-0.0184529 0.00361517 0)
(-0.0193206 0.00362623 0)
(-0.0201859 0.00363383 0)
(-0.0210473 0.00363713 0)
(-0.0219035 0.00363529 0)
(-0.0227528 0.00362745 0)
(-0.0235935 0.00361275 0)
(-0.0244236 0.00359035 0)
(-0.0252409 0.00355941 0)
(-0.0260432 0.00351913 0)
(-0.026828 0.00346874 0)
(-0.027593 0.00340749 0)
(-0.0283354 0.00333471 0)
(-0.0290525 0.00324978 0)
(-0.0297415 0.00315214 0)
(-0.0303996 0.00304133 0)
(-0.0310239 0.00291695 0)
(-0.0316117 0.00277869 0)
(-0.03216 0.00262636 0)
(-0.0326661 0.00245986 0)
(-0.0331274 0.00227918 0)
(-0.0335411 0.00208443 0)
(-0.0339049 0.00187584 0)
(-0.0342164 0.00165375 0)
(-0.0344733 0.00141859 0)
(-0.0346737 0.00117094 0)
(-0.0348156 0.000911478 0)
(-0.0348976 0.000640993 0)
(-0.034918 0.000360402 0)
(-0.0348757 7.07361e-05 0)
(-0.0347697 -0.000226858 0)
(-0.0345993 -0.000531115 0)
(-0.0343639 -0.000840655 0)
(-0.0340634 -0.00115399 0)
(-0.0336979 -0.0014695 0)
(-0.0332676 -0.0017855 0)
(-0.0327733 -0.00210017 0)
(-0.0322159 -0.00241163 0)
(-0.0315967 -0.00271791 0)
(-0.0309175 -0.00301698 0)
(-0.03018 -0.00330679 0)
(-0.0293868 -0.00358526 0)
(-0.0285405 -0.0038503 0)
(-0.0276441 -0.00409989 0)
(-0.0267011 -0.00433203 0)
(-0.0257152 -0.00454486 0)
(-0.0246905 -0.0047366 0)
(-0.0236314 -0.00490566 0)
(-0.0225424 -0.00505061 0)
(-0.0214286 -0.00517027 0)
(-0.020295 -0.00526367 0)
(-0.0191468 -0.00533011 0)
(-0.0179895 -0.00536918 0)
(-0.0168285 -0.00538074 0)
(-0.0156692 -0.00536498 0)
(-0.0145169 -0.00532234 0)
(-0.013377 -0.00525359 0)
(-0.0122545 -0.00515974 0)
(-0.0111543 -0.00504206 0)
(-0.0100809 -0.00490206 0)
(-0.00903861 -0.00474142 0)
(-0.00803142 -0.00456198 0)
(-0.00706283 -0.00436571 0)
(-0.00613599 -0.00415464 0)
(-0.00525365 -0.00393083 0)
(-0.00441812 -0.00369637 0)
(-0.00363132 -0.00345326 0)
(-0.0028948 -0.00320346 0)
(-0.00220969 -0.00294878 0)
(-0.00157682 -0.00269093 0)
(-0.000996689 -0.00243146 0)
(-0.000469506 -0.00217175 0)
(4.75647e-06 -0.00191302 0)
(0.00042634 -0.00165631 0)
(0.000795668 -0.00140254 0)
(0.00111332 -0.00115248 0)
(0.00138002 -0.000906823 0)
(0.0015966 -0.000666221 0)
(0.00176403 -0.000431328 0)
(0.00188342 -0.000202881 0)
(0.00195605 1.82126e-05 0)
(0.00198342 0.000230778 0)
(0.0019673 0.000433245 0)
(0.00190986 0.000623506 0)
(0.00181373 0.000798749 0)
(0.00168218 0.000955269 0)
(0.00151925 0.00108827 0)
(0.00132997 0.00119167 0)
(0.00112051 0.0012579 0)
(0.00089854 0.00127783 0)
(0.000673455 0.00124069 0)
(0.000456793 0.00113425 0)
(0.000261098 0.000945085 0)
(0.000109513 0.000658999 0)
(1.28056e-05 0.000261607 0)
(-2.36339e-05 0.000316877 0)
(-0.000219373 0.000960001 0)
(-0.000558395 0.00157539 0)
(-0.00103273 0.0021322 0)
(-0.00160814 0.00261618 0)
(-0.00226752 0.00302275 0)
(-0.00299379 0.00335427 0)
(-0.00377273 0.00361743 0)
(-0.00459267 0.00382128 0)
(-0.00544423 0.00397575 0)
(-0.00631991 0.00409059 0)
(-0.00721385 0.00417479 0)
(-0.00812156 0.00423614 0)
(-0.00903966 0.00428116 0)
(-0.00996563 0.00431506 0)
(-0.0108976 0.00434183 0)
(-0.0118343 0.00436438 0)
(-0.0127748 0.00438473 0)
(-0.0137182 0.00440412 0)
(-0.014664 0.00442322 0)
(-0.0156115 0.00444224 0)
(-0.0165603 0.00446102 0)
(-0.0175097 0.00447915 0)
(-0.0184588 0.00449601 0)
(-0.019407 0.00451086 0)
(-0.0203532 0.00452284 0)
(-0.0212961 0.00453103 0)
(-0.0222346 0.00453446 0)
(-0.0231671 0.00453212 0)
(-0.0240919 0.00452298 0)
(-0.0250071 0.00450602 0)
(-0.0259108 0.00448021 0)
(-0.0268007 0.00444453 0)
(-0.0276745 0.004398 0)
(-0.0285297 0.00433967 0)
(-0.0293636 0.00426865 0)
(-0.0301735 0.0041841 0)
(-0.0309567 0.00408524 0)
(-0.0317102 0.0039714 0)
(-0.0324311 0.00384197 0)
(-0.0331166 0.00369647 0)
(-0.0337635 0.00353451 0)
(-0.0343692 0.00335583 0)
(-0.0349307 0.00316026 0)
(-0.0354452 0.00294779 0)
(-0.0359103 0.00271852 0)
(-0.0363232 0.00247268 0)
(-0.0366817 0.00221064 0)
(-0.0369836 0.00193288 0)
(-0.0372269 0.00164002 0)
(-0.0374096 0.00133282 0)
(-0.0375301 0.00101216 0)
(-0.0375871 0.000679021 0)
(-0.0375792 0.000334553 0)
(-0.0375054 -1.99923e-05 0)
(-0.0373651 -0.000383231 0)
(-0.0371575 -0.000753654 0)
(-0.0368825 -0.00112963 0)
(-0.0365399 -0.00150939 0)
(-0.0361299 -0.00189106 0)
(-0.035653 -0.00227265 0)
(-0.03511 -0.00265205 0)
(-0.0345018 -0.00302706 0)
(-0.0338298 -0.00339538 0)
(-0.0330957 -0.00375466 0)
(-0.0323015 -0.00410249 0)
(-0.0314496 -0.00443643 0)
(-0.0305427 -0.00475404 0)
(-0.0295838 -0.00505293 0)
(-0.0285764 -0.00533077 0)
(-0.0275243 -0.00558532 0)
(-0.0264317 -0.00581449 0)
(-0.025303 -0.00601639 0)
(-0.0241432 -0.00618931 0)
(-0.0229573 -0.00633182 0)
(-0.0217506 -0.00644275 0)
(-0.0205286 -0.00652126 0)
(-0.0192971 -0.00656685 0)
(-0.0180617 -0.00657933 0)
(-0.0168283 -0.0065589 0)
(-0.0156026 -0.00650612 0)
(-0.0143902 -0.00642187 0)
(-0.0131966 -0.00630737 0)
(-0.0120269 -0.00616416 0)
(-0.0108861 -0.00599404 0)
(-0.00977874 -0.00579905 0)
(-0.00870904 -0.0055814 0)
(-0.00768074 -0.00534349 0)
(-0.00669719 -0.00508775 0)
(-0.00576123 -0.0048167 0)
(-0.00487529 -0.00453284 0)
(-0.00404133 -0.0042386 0)
(-0.00326085 -0.00393634 0)
(-0.00253499 -0.00362824 0)
(-0.00186447 -0.00331637 0)
(-0.00124969 -0.00300257 0)
(-0.000690733 -0.00268849 0)
(-0.000187437 -0.0023756 0)
(0.000260592 -0.00206513 0)
(0.000653929 -0.00175817 0)
(0.000993303 -0.00145564 0)
(0.00127957 -0.00115835 0)
(0.0015137 -0.000867069 0)