/*--------------------------------*- C++ -*----------------------------------*\
| =========                 |                                                 |
| \\      /  F ield         | OpenFOAM: The Open Source CFD Toolbox           |
|  \\    /   O peration     | Version:  2406                                  |
|   \\  /    A nd           | Website:  www.openfoam.com                      |
|    \\/     M anipulation  |                                                 |
\*---------------------------------------------------------------------------*/
FoamFile
{
    version     2.0;
    format      ascii;
    arch        "LSB;label=32;scalar=64";
    class       surfaceScalarField;
    location    "30.7";
    object      phi;
}
// * * * * * * * * * * * * * * * * * * * * * * * * * * * * * * * * * * * * * //

dimensions      [0 3 -1 0 0 0 0];

oriented        oriented;

internalField   nonuniform List<scalar> 
28560
(
9.5493e-10
-9.51852e-10
5.2756e-08
-5.1801e-08
1.67001e-07
-1.14245e-07
3.30879e-07
-1.63878e-07
5.28175e-07
-1.97297e-07
7.42875e-07
-2.147e-07
9.60852e-07
-2.17976e-07
1.17054e-06
-2.0969e-07
1.36325e-06
-1.92705e-07
1.53315e-06
-1.69904e-07
1.67716e-06
-1.44006e-07
1.79456e-06
-1.17401e-07
1.88658e-06
-9.20255e-08
1.95587e-06
-6.92839e-08
2.00589e-06
-5.00239e-08
2.04045e-06
-3.45548e-08
2.06324e-06
-2.27909e-08
2.0772e-06
-1.39683e-08
2.08441e-06
-7.20569e-09
2.08568e-06
-1.27339e-09
2.08129e-06
4.39573e-09
2.06999e-06
1.12956e-08
2.04957e-06
2.04261e-08
2.01702e-06
3.25463e-08
1.96876e-06
4.82572e-08
1.90078e-06
6.79809e-08
1.80878e-06
9.19985e-08
1.68828e-06
1.20499e-07
1.53466e-06
1.53627e-07
1.34315e-06
1.91511e-07
1.10887e-06
2.34279e-07
8.26815e-07
2.82052e-07
4.919e-07
3.34915e-07
9.90094e-08
3.92891e-07
-3.56898e-07
4.55908e-07
-8.80666e-07
5.23768e-07
-1.47679e-06
5.96126e-07
-2.14926e-06
6.72471e-07
-2.90137e-06
7.52111e-07
-3.73555e-06
8.34175e-07
-4.65315e-06
9.17603e-07
-5.65431e-06
1.00116e-06
-6.73777e-06
1.08346e-06
-7.90071e-06
1.16294e-06
-9.13869e-06
1.23797e-06
-1.04455e-05
1.30681e-06
-1.18132e-05
1.36766e-06
-1.32319e-05
1.41873e-06
-1.46901e-05
1.45824e-06
-1.61746e-05
1.4845e-06
-1.76705e-05
1.4959e-06
-1.91615e-05
1.49097e-06
-2.06299e-05
1.46839e-06
-2.20569e-05
1.42705e-06
-2.3423e-05
1.36604e-06
-2.47077e-05
1.28468e-06
-2.58902e-05
1.18257e-06
-2.69498e-05
1.05958e-06
-2.78657e-05
9.15922e-07
-2.86179e-05
7.52162e-07
-2.91873e-05
5.69448e-07
-2.95568e-05
3.69429e-07
-2.97082e-05
1.51436e-07
-2.96257e-05
-8.25209e-08
-2.93021e-05
-3.23581e-07
-2.87275e-05
-5.74557e-07
-2.78972e-05
-8.30289e-07
-2.68107e-05
-1.08657e-06
-2.54719e-05
-1.33882e-06
-2.38897e-05
-1.58213e-06
-2.20784e-05
-1.81134e-06
-2.00572e-05
-2.02116e-06
-1.78509e-05
-2.20635e-06
-1.5489e-05
-2.36187e-06
-1.30059e-05
-2.48314e-06
-1.04396e-05
-2.56624e-06
-7.8315e-06
-2.60812e-06
-5.22469e-06
-2.60681e-06
-2.6631e-06
-2.56159e-06
-1.9001e-07
-2.47309e-06
2.15338e-06
-2.34339e-06
4.3293e-06
-2.17593e-06
6.30477e-06
-1.97546e-06
8.05264e-06
-1.74787e-06
9.55253e-06
-1.4999e-06
1.07914e-05
-1.23885e-06
1.17636e-05
-9.72256e-07
1.24712e-05
-7.07549e-07
1.29229e-05
-4.51708e-07
1.31338e-05
-2.10902e-07
1.31279e-05
5.94228e-09
1.29202e-05
2.07617e-07
1.25447e-05
3.75558e-07
1.20297e-05
5.1499e-07
1.14033e-05
6.26388e-07
1.06936e-05
7.09695e-07
9.92705e-06
7.66554e-07
9.12772e-06
7.99329e-07
8.31681e-06
8.10909e-07
7.51233e-06
8.04488e-07
6.72896e-06
7.83363e-07
5.9782e-06
7.50762e-07
5.26848e-06
7.09726e-07
4.60546e-06
6.63016e-07
3.9924e-06
6.13058e-07
3.43048e-06
5.61925e-07
2.91914e-06
5.11333e-07
2.4565e-06
4.62642e-07
2.03964e-06
4.1686e-07
1.66504e-06
3.74605e-07
1.32899e-06
3.36049e-07
1.02817e-06
3.00815e-07
7.60302e-07
2.67872e-07
5.24845e-07
2.35457e-07
3.23749e-07
2.01095e-07
1.61828e-07
1.61921e-07
4.63018e-08
1.15526e-07
-1.55741e-08
6.18759e-08
-2.30374e-08
7.46324e-09
-2.30374e-08
4.99984e-08
-5.09503e-08
2.2922e-07
-2.31023e-07
5.37959e-07
-4.22983e-07
9.51058e-07
-5.76977e-07
1.43558e-06
-6.81816e-07
1.95763e-06
-7.36755e-07
2.48606e-06
-7.46401e-07
2.99445e-06
-7.18084e-07
3.46221e-06
-6.60464e-07
3.87486e-06
-5.82556e-07
4.22388e-06
-4.93026e-07
4.50608e-06
-3.99595e-07
4.72266e-06
-3.08604e-07
4.87809e-06
-2.2472e-07
4.97888e-06
-1.50814e-07
5.03231e-06
-8.79856e-08
5.04524e-06
-3.57227e-08
5.02348e-06
7.79399e-09
4.97044e-06
4.58342e-08
4.88746e-06
8.17041e-08
4.77259e-06
1.19268e-07
4.62153e-06
1.62355e-07
4.42757e-06
2.1439e-07
4.18192e-06
2.78192e-07
3.87425e-06
3.55932e-07
3.49306e-06
4.49168e-07
3.02611e-06
5.58944e-07
2.46068e-06
6.85934e-07
1.78374e-06
8.30567e-07
9.82134e-07
9.93117e-07
4.26903e-08
1.17372e-06
-1.04761e-06
1.37235e-06
-2.3014e-06
1.58871e-06
-3.73065e-06
1.82214e-06
-5.34627e-06
2.07153e-06
-7.15772e-06
2.33521e-06
-9.17249e-06
2.6109e-06
-1.13957e-05
2.89565e-06
-1.38294e-05
3.18587e-06
-1.64726e-05
3.47732e-06
-1.93201e-05
3.76517e-06
-2.23631e-05
4.04412e-06
-2.55881e-05
4.30844e-06
-2.89773e-05
4.55215e-06
-3.25085e-05
4.76915e-06
-3.61551e-05
4.95341e-06
-3.98865e-05
5.09908e-06
-4.36684e-05
5.20065e-06
-4.74633e-05
5.25314e-06
-5.12309e-05
5.25214e-06
-5.4929e-05
5.19397e-06
-5.85138e-05
5.07572e-06
-6.19407e-05
4.89529e-06
-6.51651e-05
4.65144e-06
-6.81428e-05
4.34375e-06
-7.08308e-05
3.97271e-06
-7.31879e-05
3.53962e-06
-7.51749e-05
3.04664e-06
-7.67558e-05
2.4968e-06
-7.78977e-05
1.89408e-06
-7.85715e-05
1.24318e-06
-7.87518e-05
5.498e-07
-7.84222e-05
-1.78225e-07
-7.75654e-05
-9.39243e-07
-7.61717e-05
-1.71735e-06
-7.42403e-05
-2.50597e-06
-7.17755e-05
-3.29507e-06
-6.87888e-05
-4.07323e-06
-6.52992e-05
-4.8284e-06
-6.13334e-05
-5.54795e-06
-5.69259e-05
-6.21886e-06
-5.21191e-05
-6.82798e-06
-4.6963e-05
-7.36241e-06
-4.1515e-05
-7.80984e-06
-3.58391e-05
-8.15906e-06
-3.0005e-05
-8.4004e-06
-2.40869e-05
-8.52617e-06
-1.81626e-05
-8.53115e-06
-1.23112e-05
-8.41299e-06
-6.61181e-06
-8.17247e-06
-1.14145e-06
-7.81374e-06
4.02696e-06
-7.34434e-06
8.82657e-06
-6.77508e-06
1.31985e-05
-6.11979e-06
1.70935e-05
-5.39487e-06
2.04733e-05
-4.61871e-06
2.33121e-05
-3.81102e-06
2.55965e-05
-2.99198e-06
2.73264e-05
-2.18154e-06
2.85143e-05
-1.39885e-06
2.91812e-05
-6.60913e-07
2.93662e-05
2.25726e-08
2.91145e-05
6.2728e-07
2.84729e-05
1.15652e-06
2.74986e-05
1.60077e-06
2.62498e-05
1.95849e-06
2.47853e-05
2.23103e-06
2.31622e-05
2.42243e-06
2.14341e-05
2.53904e-06
1.96496e-05
2.58897e-06
1.78515e-05
2.58142e-06
1.60761e-05
2.52618e-06
1.43527e-05
2.43309e-06
1.27041e-05
2.3116e-06
1.11467e-05
2.17046e-06
9.69119e-06
2.01748e-06
8.34308e-06
1.85945e-06
7.10378e-06
1.70194e-06
5.97133e-06
1.54931e-06
4.94142e-06
1.40451e-06
4.00861e-06
1.26886e-06
3.16761e-06
1.14182e-06
2.41479e-06
1.02069e-06
1.74973e-06
9.00511e-07
1.17653e-06
7.74302e-07
7.04247e-07
6.34199e-07
3.45805e-07
4.73968e-07
1.1358e-07
2.94102e-07
1.04958e-08
1.10547e-07
-1.25416e-08
1.09473e-07
-1.60423e-07
4.14193e-07
-5.35743e-07
8.86462e-07
-8.95252e-07
1.49002e-06
-1.18053e-06
2.18219e-06
-1.37399e-06
2.91917e-06
-1.47374e-06
3.66004e-06
-1.48727e-06
4.36944e-06
-1.42749e-06
5.01918e-06
-1.3102e-06
5.58877e-06
-1.15215e-06
6.06542e-06
-9.69668e-07
6.4432e-06
-7.77382e-07
6.722e-06
-5.87396e-07
6.90595e-06
-4.08675e-07
7.0019e-06
-2.46759e-07
7.01767e-06
-1.03765e-07
6.96056e-06
2.13963e-08
6.83605e-06
1.32297e-07
6.64689e-06
2.34999e-07
6.3921e-06
3.36489e-07
6.0669e-06
4.44471e-07
5.66275e-06
5.66503e-07
5.16773e-06
7.09416e-07
4.567e-06
8.78922e-07
3.84349e-06
1.07944e-06
2.97853e-06
1.31413e-06
1.95242e-06
1.58506e-06
7.44913e-07
1.89344e-06
-6.64354e-07
2.23983e-06
-2.29551e-06
2.62427e-06
-4.16803e-06
3.04625e-06
-6.30031e-06
3.50463e-06
-8.70908e-06
3.99748e-06
-1.14088e-05
4.52185e-06
-1.44109e-05
5.07362e-06
-1.7723e-05
5.64732e-06
-2.13482e-05
6.23613e-06
-2.52844e-05
6.83183e-06
-2.95234e-05
7.42492e-06
-3.40509e-05
8.00477e-06
-3.88456e-05
8.55987e-06
-4.38796e-05
9.07811e-06
-4.91183e-05
9.54713e-06
-5.45208e-05
9.9547e-06
-6.00407e-05
1.02891e-05
-6.56267e-05
1.05394e-05
-7.12236e-05
1.06959e-05
-7.67734e-05
1.07505e-05
-8.22165e-05
1.06963e-05
-8.7493e-05
1.05286e-05
-9.25431e-05
1.02441e-05
-9.7309e-05
9.8416e-06
-0.000101735
9.3213e-06
-0.000105769
8.68508e-06
-0.000109361
7.93627e-06
-0.000112468
7.07949e-06
-0.000115049
6.12059e-06
-0.000117069
5.06652e-06
-0.000118497
3.92523e-06
-0.000119309
2.70573e-06
-0.000119484
1.41832e-06
-0.000119006
7.14904e-08
-0.000117868
-1.31611e-06
-0.000116068
-2.73946e-06
-0.000113605
-4.18001e-06
-0.000110489
-5.62232e-06
-0.000106733
-7.0502e-06
-0.000102361
-8.44596e-06
-9.73983e-05
-9.79083e-06
-9.1881e-05
-1.10653e-05
-8.58507e-05
-1.22491e-05
-7.93565e-05
-1.33222e-05
-7.24545e-05
-1.42645e-05
-6.52075e-05
-1.50568e-05
-5.7685e-05
-1.56815e-05
-4.99623e-05
-1.61232e-05
-4.21194e-05
-1.6369e-05
-3.42407e-05
-1.64099e-05
-2.64127e-05
-1.62409e-05
-1.87235e-05
-1.58617e-05
-1.12602e-05
-1.5277e-05
-4.10776e-06
-1.44968e-05
2.65336e-06
-1.35362e-05
8.94884e-06
-1.24153e-05
1.47124e-05
-1.11585e-05
1.98877e-05
-9.79396e-06
2.44293e-05
-8.35267e-06
2.83046e-05
-6.86728e-06
3.14942e-05
-5.37114e-06
3.39923e-05
-3.89695e-06
3.58068e-05
-2.47542e-06
3.69643e-05
-1.13489e-06
3.74961e-05
9.55e-08
3.74477e-05
1.20486e-06
3.68776e-05
2.17089e-06
3.58496e-05
2.98651e-06
3.44331e-05
3.64758e-06
3.27e-05
4.15554e-06
3.07223e-05
4.51673e-06
2.85696e-05
4.74167e-06
2.63068e-05
4.84417e-06
2.39926e-05
4.84039e-06
2.16779e-05
4.74777e-06
1.94054e-05
4.58411e-06
1.72091e-05
4.36676e-06
1.51146e-05
4.11195e-06
1.31398e-05
3.83424e-06
1.12956e-05
3.5462e-06
9.58692e-06
3.25798e-06
8.01449e-06
2.97694e-06
6.57613e-06
2.70722e-06
5.26872e-06
2.44923e-06
4.09017e-06
2.19924e-06
3.04138e-06
1.9493e-06
2.12782e-06
1.68787e-06
1.3601e-06
1.40191e-06
7.52939e-07
1.08113e-06
3.21333e-07
7.25708e-07
7.36381e-08
3.58242e-07
6.10965e-08
1.57036e-07
-3.17459e-07
5.65186e-07
-9.43893e-07
1.1699e-06
-1.49996e-06
1.92024e-06
-1.93087e-06
2.76394e-06
-2.21769e-06
3.64972e-06
-2.35952e-06
4.53028e-06
-2.36782e-06
5.36469e-06
-2.26191e-06
6.12005e-06
-2.06555e-06
6.77205e-06
-1.80416e-06
7.30488e-06
-1.5025e-06
7.7104e-06
-1.1829e-06
7.98677e-06
-8.63763e-07
8.13681e-06
-5.5872e-07
8.16614e-06
-2.76093e-07
8.08128e-06
-1.88991e-08
7.88785e-06
2.14828e-07
7.58895e-06
4.31193e-07
7.18429e-06
6.39659e-07
6.66908e-06
8.51698e-07
6.03391e-06
1.07965e-06
5.26481e-06
1.3356e-06
4.34377e-06
1.63046e-06
3.24942e-06
1.97327e-06
1.95786e-06
2.371e-06
4.43526e-07
2.82846e-06
-1.32e-06
3.34858e-06
-3.35926e-06
3.9327e-06
-5.70019e-06
4.58077e-06
-8.36743e-06
5.29151e-06
-1.13835e-05
6.06233e-06
-1.4768e-05
6.88911e-06
-1.85365e-05
7.76597e-06
-2.26996e-05
8.68494e-06
-2.72618e-05
9.63583e-06
-3.22206e-05
1.06061e-05
-3.75655e-05
1.1581e-05
-4.32774e-05
1.25437e-05
-4.93282e-05
1.34757e-05
-5.56809e-05
1.43575e-05
-6.22898e-05
1.51688e-05
-6.91015e-05
1.58897e-05
-7.60555e-05
1.65012e-05
-8.30862e-05
1.69854e-05
-9.01242e-05
1.73271e-05
-9.7098e-05
1.75131e-05
-0.000103936
1.75336e-05
-0.000110567
1.73814e-05
-0.000116923
1.70526e-05
-0.00012294
1.6546e-05
-0.000128559
1.58633e-05
-0.000133726
1.50085e-05
-0.000138392
1.39874e-05
-0.000142515
1.28078e-05
-0.000146058
1.14788e-05
-0.000148989
1.00105e-05
-0.000151282
8.41411e-06
-0.000152917
6.70152e-06
-0.000153877
4.8854e-06
-0.000154151
2.97917e-06
-0.000153729
9.96892e-07
-0.000152611
-1.04688e-06
-0.000150792
-3.13481e-06
-0.000148281
-5.25115e-06
-0.000145083
-7.37719e-06
-0.000141213
-9.49302e-06
-0.000136686
-1.15775e-05
-0.000131523
-1.3608e-05
-0.000125754
-1.55607e-05
-0.000119409
-1.74103e-05
-0.000112527
-1.91309e-05
-0.000105153
-2.06959e-05
-9.73387e-05
-2.20789e-05
-8.91414e-05
-2.3254e-05
-8.06257e-05
-2.41972e-05
-7.18622e-05
-2.48867e-05
-6.2927e-05
-2.53042e-05
-5.39012e-05
-2.54357e-05
-4.48699e-05
-2.52722e-05
-3.59205e-05
-2.48111e-05
-2.71417e-05
-2.40559e-05
-1.86212e-05
-2.30172e-05
-1.04448e-05
-2.17126e-05
-2.69371e-06
-2.01663e-05
4.55652e-06
-1.84087e-05
1.12381e-05
-1.64755e-05
1.72922e-05
-1.44068e-05
2.26707e-05
-1.22458e-05
2.73369e-05
-1.00373e-05
3.12667e-05
-7.82671e-06
3.44494e-05
-5.65817e-06
3.68883e-05
-3.57381e-06
3.85962e-05
-1.61232e-06
3.96064e-05
1.94654e-07
3.9959e-05
1.81826e-06
3.97075e-05
3.238e-06
3.89147e-05
4.44038e-06
3.76509e-05
5.41938e-06
3.59912e-05
6.17637e-06
3.40132e-05
6.71966e-06
3.17938e-05
7.06364e-06
2.94065e-05
7.22766e-06
2.69196e-05
7.2347e-06
2.43938e-05
7.10991e-06
2.18813e-05
6.87926e-06
1.9425e-05
6.56824e-06
1.70584e-05
6.20079e-06
1.48063e-05
5.79834e-06
1.26853e-05
5.37899e-06
1.07055e-05
4.95668e-06
8.8724e-06
4.54036e-06
7.18845e-06
4.13318e-06
5.65579e-06
3.7319e-06
4.27827e-06
3.32682e-06
3.06342e-06
2.90272e-06
2.02362e-06
2.44172e-06
1.17608e-06
1.92866e-06
5.41507e-07
1.36028e-06
1.41817e-07
7.57932e-07
2.02914e-07
1.92233e-07
-5.09692e-07
6.79529e-07
-1.43119e-06
1.38583e-06
-2.20627e-06
2.24501e-06
-2.79004e-06
3.19459e-06
-3.16728e-06
4.17625e-06
-3.34119e-06
5.13757e-06
-3.32913e-06
6.03378e-06
-3.15812e-06
6.82904e-06
-2.86081e-06
7.49677e-06
-2.47189e-06
8.01931e-06
-2.02504e-06
8.38687e-06
-1.55045e-06
8.596e-06
-1.0729e-06
8.64773e-06
-6.10452e-07
8.5455e-06
-1.73862e-07
8.2931e-06
2.33501e-07
7.89281e-06
6.15121e-07
7.34369e-06
9.8031e-07
6.64051e-06
1.34284e-06
5.77294e-06
1.71926e-06
4.7254e-06
2.12719e-06
3.47731e-06
2.58369e-06
2.00381e-06
3.10395e-06
2.76711e-07
3.70037e-06
-1.73445e-06
4.38216e-06
-4.06126e-06
5.15527e-06
-6.73533e-06
6.02265e-06
-9.78719e-06
6.98456e-06
-1.32452e-05
8.03877e-06
-1.71343e-05
9.18064e-06
-2.14749e-05
1.04029e-05
-2.62813e-05
1.16955e-05
-3.15604e-05
1.30451e-05
-3.73106e-05
1.44351e-05
-4.352e-05
1.58453e-05
-5.01664e-05
1.72525e-05
-5.72162e-05
1.86308e-05
-6.46246e-05
1.99521e-05
-7.23364e-05
2.11875e-05
-8.0287e-05
2.23081e-05
-8.8404e-05
2.32859e-05
-9.66096e-05
2.40953e-05
-0.000104822
2.4714e-05
-0.00011296
2.51233e-05
-0.000120942
2.53092e-05
-0.000128692
2.52623e-05
-0.000136135
2.49774e-05
-0.000143208
2.44539e-05
-0.00014985
2.36949e-05
-0.000156011
2.27068e-05
-0.000161646
2.14986e-05
-0.000166719
2.00812e-05
-0.000171199
1.84672e-05
-0.000175061
1.66701e-05
-0.000178286
1.4704e-05
-0.000180859
1.25837e-05
-0.000182769
1.03238e-05
-0.000184007
7.93949e-06
-0.000184567
5.44588e-06
-0.000184447
2.85857e-06
-0.000183644
1.93671e-07
-0.000182158
-2.53209e-06
-0.000179993
-5.30075e-06
-0.00017715
-8.09341e-06
-0.000173638
-1.08893e-05
-0.000169465
-1.36663e-05
-0.000164642
-1.64002e-05
-0.000159185
-1.90647e-05
-0.000153114
-2.16317e-05
-0.000146453
-2.40712e-05
-0.000139232
-2.63519e-05
-0.000131487
-2.8441e-05
-0.000123261
-3.03055e-05
-0.000114602
-3.19128e-05
-0.000105568
-3.32315e-05
-9.62218e-05
-3.42328e-05
-8.66345e-05
-3.48915e-05
-7.68827e-05
-3.51875e-05
-6.70484e-05
-3.51065e-05
-5.72179e-05
-3.46416e-05
-4.74799e-05
-3.37939e-05
-3.79242e-05
-3.2573e-05
-2.86393e-05
-3.09975e-05
-1.97115e-05
-2.90941e-05
-1.12221e-05
-2.68981e-05
-3.24642e-06
-2.44512e-05
4.14816e-06
-2.18014e-05
1.09031e-05
-1.90007e-05
1.69698e-05
-1.6104e-05
2.23105e-05
-1.31675e-05
2.68991e-05
-1.02467e-05
3.07209e-05
-7.3956e-06
3.37733e-05
-4.66468e-06
3.60675e-05
-2.09956e-06
3.76261e-05
2.59595e-07
3.84844e-05
2.37974e-06
3.86892e-05
4.23555e-06
3.82981e-05
5.81052e-06
3.73773e-05
7.09712e-06
3.60001e-05
8.09689e-06
3.42437e-05
8.82005e-06
3.21868e-05
9.28457e-06
2.99066e-05
9.5149e-06
2.74762e-05
9.54034e-06
2.49622e-05
9.39323e-06
2.24233e-05
9.10715e-06
1.99089e-05
8.71517e-06
1.74591e-05
8.24818e-06
1.51046e-05
7.73343e-06
1.28683e-05
7.19304e-06
1.0766e-05
6.64265e-06
8.80901e-06
6.09012e-06
7.00632e-06
5.5346e-06
5.36682e-06
4.96631e-06
3.90191e-06
4.36763e-06
2.62739e-06
3.71623e-06
1.56517e-06
2.99089e-06
7.44578e-07
2.18087e-06
2.04423e-07
1.29809e-06
4.07336e-07
2.17409e-07
-7.271e-07
7.62451e-07
-1.97623e-06
1.54223e-06
-2.98605e-06
2.47644e-06
-3.72425e-06
3.49234e-06
-4.18318e-06
4.52451e-06
-4.37336e-06
5.51582e-06
-4.32044e-06
6.41853e-06
-4.06084e-06
7.19492e-06
-3.63719e-06
7.81719e-06
-3.09416e-06
8.26673e-06
-2.47458e-06
8.5327e-06
-1.81643e-06
8.61022e-06
-1.15042e-06
8.49823e-06
-4.98459e-07
8.19727e-06
1.27096e-07
7.70734e-06
7.23429e-07
7.02594e-06
1.29652e-06
6.14649e-06
1.85976e-06
5.05725e-06
2.43208e-06
3.74082e-06
3.03569e-06
2.1742e-06
3.69381e-06
3.29388e-07
4.42851e-06
-1.82559e-06
5.25893e-06
-4.32538e-06
6.20016e-06
-7.20586e-06
7.26265e-06
-1.05027e-05
8.45208e-06
-1.42497e-05
9.76966e-06
-1.84775e-05
1.12123e-05
-2.32116e-05
1.27729e-05
-2.84712e-05
1.44402e-05
-3.42668e-05
1.61986e-05
-4.05992e-05
1.80278e-05
-4.74572e-05
1.99032e-05
-5.48173e-05
2.17951e-05
-6.26423e-05
2.36703e-05
-7.0882e-05
2.54922e-05
-7.94733e-05
2.72221e-05
-8.83424e-05
2.88212e-05
-9.74067e-05
3.02519e-05
-0.000106578
3.1479e-05
-0.000115764
3.2472e-05
-0.000124874
3.32056e-05
-0.000133821
3.36604e-05
-0.000142521
3.38237e-05
-0.000150901
3.36889e-05
-0.000158894
3.32552e-05
-0.000166443
3.25272e-05
-0.000173503
3.15133e-05
-0.000180034
3.02255e-05
-0.000186005
2.86784e-05
-0.000191394
2.68878e-05
-0.000196184
2.48706e-05
-0.000200361
2.26441e-05
-0.000203916
2.02254e-05
-0.000206843
1.76315e-05
-0.000209138
1.48787e-05
-0.000210798
1.19831e-05
-0.000211819
8.96051e-06
-0.000212199
5.82642e-06
-0.000211937
2.59658e-06
-0.000211031
-7.12798e-07
-0.000209478
-4.08482e-06
-0.000207278
-7.50122e-06
-0.000204429
-1.09425e-05
-0.000200931
-1.43869e-05
-0.000196787
-1.78106e-05
-0.000192
-2.11874e-05
-0.000186576
-2.44884e-05
-0.000180526
-2.76817e-05
-0.000173864
-3.07331e-05
-0.00016661
-3.36059e-05
-0.00015879
-3.62614e-05
-0.000150435
-3.86598e-05
-0.000141587
-4.07608e-05
-0.000132293
-4.25253e-05
-0.00012261
-4.39161e-05
-0.000112602
-4.48996e-05
-0.000102342
-4.54478e-05
-9.19088e-05
-4.55394e-05
-8.13889e-05
-4.51615e-05
-7.08722e-05
-4.43106e-05
-6.04514e-05
-4.29938e-05
-5.022e-05
-4.12289e-05
-4.02696e-05
-3.90445e-05
-3.06883e-05
-3.64794e-05
-2.15584e-05
-3.35812e-05
-1.29548e-05
-3.0405e-05
-4.9438e-06
-2.70117e-05
2.41781e-06
-2.34656e-05
9.08347e-06
-1.98331e-05
1.5017e-05
-1.61803e-05
2.01929e-05
-1.25715e-05
2.45962e-05
-9.06796e-06
2.82229e-05
-5.7263e-06
3.10801e-05
-2.59761e-06
3.31861e-05
2.73776e-07
3.45702e-05
2.85139e-06
3.52733e-05
5.10744e-06
3.53466e-05
7.02383e-06
3.48509e-05
8.59258e-06
3.38549e-05
9.81606e-06
3.24329e-05
1.07066e-05
3.0662e-05
1.12858e-05
2.86197e-05
1.15827e-05
2.63806e-05
1.16323e-05
2.40144e-05
1.14734e-05
2.15834e-05
1.11462e-05
1.91416e-05
1.069e-05
1.6734e-05
1.01411e-05
1.43967e-05
9.53034e-06
1.2158e-05
8.88132e-06
1.004e-05
8.20815e-06
8.0605e-06
7.51411e-06
6.23576e-06
6.79104e-06
4.5832e-06
6.0202e-06
3.12425e-06
5.17518e-06
1.88759e-06
4.22755e-06
9.12914e-07
3.15555e-06
2.5602e-07
1.95498e-06
6.63356e-07
2.3534e-07
-9.62441e-07
8.20691e-07
-2.56158e-06
1.64928e-06
-3.81463e-06
2.62801e-06
-4.70298e-06
3.6742e-06
-5.22937e-06
4.7155e-06
-5.41466e-06
5.69039e-06
-5.29533e-06
6.54866e-06
-4.91911e-06
7.25147e-06
-4.34e-06
7.7706e-06
-3.61328e-06
8.08713e-06
-2.79111e-06
8.18959e-06
-1.91889e-06
8.07172e-06
-1.03255e-06
7.73008e-06
-1.56821e-07
7.16165e-06
6.95534e-07
6.36156e-06
1.52351e-06
5.32129e-06
2.33679e-06
4.02718e-06
3.15388e-06
2.45966e-06
3.9996e-06
5.9315e-07
4.9022e-06
-1.60346e-06
5.89043e-06
-4.1657e-06
6.99074e-06
-7.13199e-06
8.22522e-06
-1.05419e-05
9.61007e-06
-1.44342e-05
1.1155e-05
-1.8845e-05
1.28629e-05
-2.38055e-05
1.47302e-05
-2.93405e-05
1.67472e-05
-3.54655e-05
1.88979e-05
-4.21853e-05
2.116e-05
-4.94918e-05
2.35051e-05
-5.73625e-05
2.58985e-05
-6.57595e-05
2.83001e-05
-7.46293e-05
3.0665e-05
-8.39039e-05
3.29449e-05
-9.35022e-05
3.50904e-05
-0.000103333
3.7053e-05
-0.000113299
3.87869e-05
-0.000123299
4.02517e-05
-0.000133233
4.14136e-05
-0.000143008
4.22467e-05
-0.000152535
4.27333e-05
-0.000161739
4.2864e-05
-0.000170552
4.26371e-05
-0.000178921
4.20575e-05
-0.000186801
4.11356e-05
-0.00019416
3.9886e-05
-0.000200973
3.83261e-05
-0.000207223
3.64754e-05
-0.000212899
3.43541e-05
-0.000217994
3.19826e-05
-0.000222504
2.93808e-05
-0.000226428
2.6568e-05
-0.000229765
2.35623e-05
-0.000232514
2.03811e-05
-0.000234676
1.70405e-05
-0.000236249
1.3556e-05
-0.000237231
9.94252e-06
-0.000237619
6.21467e-06
-0.00023741
2.38725e-06
-0.000236598
-1.52448e-06
-0.000235179
-5.50434e-06
-0.000233145
-9.53465e-06
-0.000230492
-1.3596e-05
-0.000227212
-1.76667e-05
-0.0002233
-2.17221e-05
-0.000218753
-2.57349e-05
-0.000213567
-2.9674e-05
-0.000207744
-3.35051e-05
-0.000201287
-3.71902e-05
-0.000194205
-4.06879e-05
-0.000186512
-4.3954e-05
-0.00017823
-4.69418e-05
-0.000169387
-4.96035e-05
-0.000160022
-5.18911e-05
-0.00015018
-5.37579e-05
-0.000139919
-5.51607e-05
-0.000129305
-5.60616e-05
-0.000118415
-5.64296e-05
-0.000107333
-5.62433e-05
-9.61513e-05
-5.54922e-05
-8.49671e-05
-5.41779e-05
-7.38803e-05
-5.23157e-05
-6.29909e-05
-4.99339e-05
-5.23966e-05
-4.70737e-05
-4.21898e-05
-4.3788e-05
-3.24555e-05
-4.01393e-05
-2.32694e-05
-3.61978e-05
-1.46967e-05
-3.20384e-05
-6.79147e-06
-2.77383e-05
4.03119e-07
-2.33749e-05
6.85489e-06
-1.90232e-05
1.25418e-05
-1.47549e-05
1.74518e-05
-1.06363e-05
2.15821e-05
-6.72792e-06
2.49394e-05
-3.08354e-06
2.754e-05
2.50827e-07
2.94098e-05
3.23759e-06
3.05851e-05
5.84858e-06
3.11118e-05
8.06587e-06
3.10454e-05
9.88241e-06
3.04497e-05
1.13023e-05
2.93948e-05
1.23407e-05
2.79549e-05
1.30226e-05
2.62055e-05
1.33816e-05
2.4221e-05
1.3458e-05
2.20714e-05
1.32957e-05
1.98211e-05
1.29403e-05
1.75267e-05
1.24354e-05
1.52368e-05
1.18202e-05
1.2992e-05
1.11262e-05
1.08257e-05
1.03744e-05
8.76611e-06
9.57369e-06
6.8385e-06
8.71866e-06
5.06817e-06
7.79052e-06
3.48413e-06
6.75922e-06
2.12335e-06
5.58834e-06
1.03625e-06
4.24265e-06
2.93644e-07
2.69758e-06
9.57e-07
2.48115e-07
-1.21056e-06
8.59606e-07
-3.17307e-06
1.7152e-06
-4.67023e-06
2.71011e-06
-5.6979e-06
3.75242e-06
-6.27168e-06
4.76328e-06
-6.42552e-06
5.67726e-06
-6.2093e-06
6.44231e-06
-5.68416e-06
7.01906e-06
-4.91676e-06
7.37948e-06
-3.9737e-06
7.50481e-06
-2.91643e-06
7.38313e-06
-1.79721e-06
7.0067e-06
-6.56122e-07
6.36922e-06
4.80655e-07
5.4633e-06
1.60146e-06
4.2782e-06
2.70861e-06
2.79817e-06
3.81683e-06
1.00132e-06
4.95073e-06
-1.14063e-06
6.14154e-06
-3.66191e-06
7.42349e-06
-6.60155e-06
8.83006e-06
-1.00015e-05
1.03907e-05
-1.39048e-05
1.21284e-05
-1.83525e-05
1.40578e-05
-2.33822e-05
1.61847e-05
-2.90248e-05
1.85054e-05
-3.53022e-05
2.10077e-05
-4.22252e-05
2.36702e-05
-4.97907e-05
2.64634e-05
-5.79801e-05
2.93494e-05
-6.67576e-05
3.22826e-05
-7.60698e-05
3.52108e-05
-8.58464e-05
3.80767e-05
-9.60019e-05
4.08204e-05
-0.000106438
4.33815e-05
-0.00011705
4.57024e-05
-0.000127729
4.77311e-05
-0.000138365
4.94233e-05
-0.000148857
5.07442e-05
-0.000159113
5.16692e-05
-0.00016905
5.21842e-05
-0.000178602
5.22848e-05
-0.000187713
5.19751e-05
-0.000196342
5.12661e-05
-0.000204459
5.01742e-05
-0.000212043
4.87197e-05
-0.000219082
4.69249e-05
-0.000225569
4.48134e-05
-0.000231503
4.2409e-05
-0.000236883
3.97346e-05
-0.000241713
3.68124e-05
-0.000245995
3.3663e-05
-0.000249733
3.03056e-05
-0.000252928
2.6758e-05
-0.000255584
2.30363e-05
-0.000257699
1.91559e-05
-0.000259274
1.51307e-05
-0.000260306
1.09744e-05
-0.000260791
6.70023e-06
-0.000260725
2.32143e-06
-0.000260102
-2.1481e-06
-0.000258913
-6.69348e-06
-0.000257149
-1.12983e-05
-0.000254801
-1.59442e-05
-0.000251857
-2.06102e-05
-0.000248307
-2.52723e-05
-0.000244139
-2.99028e-05
-0.000239343
-3.44703e-05
-0.000233909
-3.89388e-05
-0.000227831
-4.32681e-05
-0.000221106
-4.74134e-05
-0.000213734
-5.13258e-05
-0.000205723
-5.49526e-05
-0.000197088
-5.82385e-05
-0.000187852
-6.11268e-05
-0.000178049
-6.35607e-05
-0.000167724
-6.54857e-05
-0.000156934
-6.6852e-05
-0.000145747
-6.76164e-05
-0.000134245
-6.77455e-05
-0.000122519
-6.72181e-05
-0.00011067
-6.60269e-05
-9.88055e-05
-6.41804e-05
-8.70359e-05
-6.17035e-05
-7.54723e-05
-5.86374e-05
-6.42217e-05
-5.50385e-05
-5.33846e-05
-5.09764e-05
-4.30514e-05
-4.65311e-05
-3.33004e-05
-4.17894e-05
-2.41968e-05
-3.68418e-05
-1.57924e-05
-3.17793e-05
-8.12577e-06
-2.66899e-05
-1.22348e-06
-2.16572e-05
4.89841e-06
-1.67582e-05
1.02332e-05
-1.20627e-05
1.47825e-05
-7.63287e-06
1.85559e-05
-3.52249e-06
2.15704e-05
2.23062e-07
2.38514e-05
3.56754e-06
2.54328e-05
6.48447e-06
2.63573e-05
8.95798e-06
2.66761e-05
1.09835e-05
2.64489e-05
1.2568e-05
2.57415e-05
1.37299e-05
2.46248e-05
1.44983e-05
2.31717e-05
1.49111e-05
2.14545e-05
1.50128e-05
1.95431e-05
1.48518e-05
1.75019e-05
1.44766e-05
1.53892e-05
1.39329e-05
1.32563e-05
1.32591e-05
1.11475e-05
1.24833e-05
9.1014e-06
1.16198e-05
7.15326e-06
1.06668e-05
5.33753e-06
9.60625e-06
3.69196e-06
8.40479e-06
2.26251e-06
7.01779e-06
1.10962e-06
5.39554e-06
3.15946e-07
3.49125e-06
1.27295e-06
2.56952e-07
-1.46751e-06
8.82339e-07
-3.79846e-06
1.74471e-06
-5.53259e-06
2.72844e-06
-6.68163e-06
3.73317e-06
-7.27641e-06
4.67436e-06
-7.36671e-06
5.48344e-06
-7.01838e-06
6.10724e-06
-6.30795e-06
6.50656e-06
-5.31608e-06
6.65402e-06
-4.12116e-06
6.53127e-06
-2.79368e-06
6.12591e-06
-1.39185e-06
5.42834e-06
4.14467e-08
4.42873e-06
1.48026e-06
3.11441e-06
2.91578e-06
1.46772e-06
4.3553e-06
-5.353e-07
5.81985e-06
-2.92546e-06
7.34088e-06
-5.73999e-06
8.95607e-06
-9.02126e-06
1.07048e-05
-1.28147e-05
1.26235e-05
-1.71663e-05
1.47424e-05
-2.21196e-05
1.70817e-05
-2.77128e-05
1.96509e-05
-3.39754e-05
2.24473e-05
-4.0926e-05
2.5456e-05
-4.85689e-05
2.86506e-05
-5.68921e-05
3.19934e-05
-6.58651e-05
3.54365e-05
-7.54381e-05
3.89224e-05
-8.55419e-05
4.23863e-05
-9.60894e-05
4.57583e-05
-0.000106979
4.89664e-05
-0.000118099
5.194e-05
-0.000129331
5.46139e-05
-0.00014056
5.69309e-05
-0.000151673
5.88447e-05
-0.000162571
6.03211e-05
-0.000173165
6.13385e-05
-0.000183384
6.18874e-05
-0.000193168
6.19691e-05
-0.000202477
6.15937e-05
-0.00021128
6.07782e-05
-0.000219559
5.95446e-05
-0.000227303
5.7918e-05
-0.000234508
5.59249e-05
-0.000241176
5.35925e-05
-0.000247309
5.09473e-05
-0.000252915
4.80148e-05
-0.000257999
4.48188e-05
-0.000262568
4.13814e-05
-0.000266629
3.77231e-05
-0.000270185
3.38623e-05
-0.000273243
2.98158e-05
-0.000275806
2.55989e-05
-0.000277875
2.12254e-05
-0.000279453
1.67081e-05
-0.000280537
1.20591e-05
-0.000281127
7.28992e-06
-0.000281218
2.4122e-06
-0.000280804
-2.56208e-06
-0.000279877
-7.62001e-06
-0.000278428
-1.27472e-05
-0.000276445
-1.79273e-05
-0.000273914
-2.31413e-05
-0.000270819
-2.83669e-05
-0.000267144
-3.35779e-05
-0.000262871
-3.87438e-05
-0.000257981
-4.38291e-05
-0.000252456
-4.87931e-05
-0.00024628
-5.35892e-05
-0.00023944
-5.81658e-05
-0.000231927
-6.24656e-05
-0.000223738
-6.64273e-05
-0.000214879
-6.99858e-05
-0.000205365
-7.30745e-05
-0.000195224
-7.5627e-05
-0.000184496
-7.75797e-05
-0.000173238
-7.88749e-05
-0.000161519
-7.94638e-05
-0.000149427
-7.931e-05
-0.000137062
-7.83921e-05
-0.000124536
-7.67067e-05
-0.000111969
-7.427e-05
-9.94883e-05
-7.11184e-05
-8.72188e-05
-6.7308e-05
-7.52822e-05
-6.2913e-05
-6.3791e-05
-5.80223e-05
-5.28447e-05
-5.27356e-05
-4.25274e-05
-4.71591e-05
-3.29062e-05
-4.14005e-05
-2.40309e-05
-3.55652e-05
-1.59355e-05
-2.97526e-05
-8.63986e-06
-2.40538e-05
-2.15228e-06
-1.85503e-05
3.52846e-06
-1.33136e-05
8.41109e-06
-8.40513e-06
1.25108e-05
-3.87661e-06
1.58486e-05
2.29679e-07
1.8452e-05
3.88108e-06
2.03551e-05
7.05494e-06
2.15992e-05
9.73932e-06
2.22336e-05
1.19336e-05
2.23146e-05
1.36489e-05
2.1905e-05
1.49079e-05
2.10723e-05
1.57438e-05
1.98867e-05
1.61984e-05
1.84185e-05
1.63199e-05
1.67362e-05
1.61589e-05
1.49041e-05
1.5765e-05
1.29814e-05
1.51818e-05
1.10218e-05
1.4443e-05
9.07359e-06
1.35679e-05
7.18175e-06
1.25586e-05
5.39026e-06
1.13977e-05
3.74601e-06
1.0049e-05
2.30377e-06
8.46003e-06
1.1325e-06
6.56681e-06
3.2288e-07
4.30087e-06
1.59583e-06
2.62246e-07
-1.72975e-06
8.8979e-07
-4.42601e-06
1.73886e-06
-6.38166e-06
2.68371e-06
-7.62648e-06
3.61656e-06
-8.20926e-06
4.44826e-06
-8.19841e-06
5.10815e-06
-7.67827e-06
5.54283e-06
-6.74263e-06
5.71395e-06
-5.4872e-06
5.59518e-06
-4.00239e-06
5.16862e-06
-2.36712e-06
4.4211e-06
-6.44331e-07
3.34053e-06
1.12202e-06
1.9127e-06
2.90809e-06
1.18659e-07
4.70982e-06
-2.06705e-06
6.541e-06
-4.67718e-06
8.42998e-06
-7.7515e-06
1.04152e-05
-1.13354e-05
1.254e-05
-1.54776e-05
1.48469e-05
-2.02268e-05
1.73728e-05
-2.56288e-05
2.01443e-05
-3.17221e-05
2.3175e-05
-3.85348e-05
2.64637e-05
-4.60813e-05
2.99938e-05
-5.4359e-05
3.37337e-05
-6.33461e-05
3.76377e-05
-7.29999e-05
4.16472e-05
-8.32562e-05
4.56928e-05
-9.40305e-05
4.96966e-05
-0.00010522
5.3576e-05
-0.000116709
5.72474e-05
-0.000128374
6.06308e-05
-0.000140088
6.36543e-05
-0.000151731
6.62569e-05
-0.000163191
6.83916e-05
-0.000174373
7.00259e-05
-0.000185194
7.11422e-05
-0.000195591
7.1736e-05
-0.000205518
7.18142e-05
-0.000214942
7.13926e-05
-0.000223842
7.04937e-05
-0.000232208
6.91443e-05
-0.000240037
6.73736e-05
-0.000247331
6.5212e-05
-0.000254096
6.26896e-05
-0.000260339
5.98358e-05
-0.00026607
5.66782e-05
-0.000271298
5.3243e-05
-0.000276034
4.95543e-05
-0.000280286
4.5634e-05
-0.000284065
4.15022e-05
-0.00028738
3.71766e-05
-0.000290237
3.26735e-05
-0.000292645
2.8007e-05
-0.00029461
2.319e-05
-0.000296136
1.82337e-05
-0.000297225
1.31487e-05
-0.00029788
7.94453e-06
-0.000298098
2.63075e-06
-0.000297877
-2.78308e-06
-0.000297211
-8.28665e-06
-0.00029609
-1.38685e-05
-0.000294502
-1.95151e-05
-0.000292432
-2.52107e-05
-0.000289863
-3.0936e-05
-0.000286773
-3.66681e-05
-0.000283138
-4.2379e-05
-0.000278931
-4.80358e-05
-0.000274125
-5.35991e-05
-0.000268691
-5.90234e-05
-0.0002626
-6.42564e-05
-0.000255827
-6.92389e-05
-0.000248349
-7.39052e-05
-0.000240151
-7.81844e-05
-0.000231224
-8.20008e-05
-0.000221575
-8.52768e-05
-0.000211219
-8.79348e-05
-0.000200194
-8.99008e-05
-0.00018855
-9.11078e-05
-0.00017636
-9.14998e-05
-0.000163716
-9.10361e-05
-0.000150728
-8.96948e-05
-0.000137521
-8.74763e-05
-0.000124235
-8.44048e-05
-0.000111013
-8.05296e-05
-9.80028e-05
-7.59237e-05
-8.53437e-05
-7.06814e-05
-7.31657e-05
-6.49136e-05
-6.1582e-05
-5.87428e-05
-5.06856e-05
-5.2297e-05
-4.05478e-05
-4.5703e-05
-3.12181e-05
-3.90823e-05
-2.27261e-05
-3.25458e-05
-1.50841e-05
-2.61923e-05
-8.29112e-06
-2.01066e-05
-2.336e-06
-1.43602e-05
2.79956e-06
-9.01217e-06
7.13902e-06
-4.10978e-06
1.07101e-05