/*--------------------------------*- C++ -*----------------------------------*\
| =========                 |                                                 |
| \\      /  F ield         | OpenFOAM: The Open Source CFD Toolbox           |
|  \\    /   O peration     | Version:  2406                                  |
|   \\  /    A nd           | Website:  www.openfoam.com                      |
|    \\/     M anipulation  |                                                 |
\*---------------------------------------------------------------------------*/
FoamFile
{
    version     2.0;
    format      ascii;
    arch        "LSB;label=32;scalar=64";
    class       surfaceScalarField;
    location    "47.8";
    object      phi;
}
// * * * * * * * * * * * * * * * * * * * * * * * * * * * * * * * * * * * * * //

dimensions      [0 3 -1 0 0 0 0];

oriented        oriented;

internalField   nonuniform List<scalar> 
7080
(
2.37883e-07
-2.36699e-07
1.43951e-06
-1.23718e-06
3.20934e-06
-1.76876e-06
5.01235e-06
-1.83251e-06
6.49071e-06
-1.4821e-06
7.45479e-06
-9.80904e-07
7.94724e-06
-4.92486e-07
8.0867e-06
-1.44207e-07
8.03751e-06
5.39566e-08
7.89218e-06
1.488e-07
7.67047e-06
2.31238e-07
7.29754e-06
3.84362e-07
6.64878e-06
6.66784e-07
5.56907e-06
1.10354e-06
3.90181e-06
1.70011e-06
1.49162e-06
2.45244e-06
-1.8076e-06
3.35244e-06
-6.13081e-06
4.38712e-06
-1.15935e-05
5.53847e-06
-1.82802e-05
6.77656e-06
-2.622e-05
8.04601e-06
-3.53547e-05
9.25663e-06
-4.55093e-05
1.02872e-05
-5.63717e-05
1.0997e-05
-6.74873e-05
1.12423e-05
-7.8277e-05
1.08996e-05
-8.80792e-05
9.8883e-06
-9.62057e-05
8.18457e-06
-0.000102001
5.8232e-06
-0.000104895
2.8907e-06
-0.000104444
-4.8394e-07
-0.000100369
-4.13717e-06
-9.25791e-05
-7.87654e-06
-8.12032e-05
-1.14853e-05
-6.66028e-05
-1.47286e-05
-4.93821e-05
-1.73636e-05
-3.03787e-05
-1.91569e-05
-1.06293e-05
-1.99087e-05
8.69527e-06
-1.94845e-05
2.63879e-05
-1.78474e-05
4.13318e-05
-1.50865e-05
5.2637e-05
-1.14291e-05
5.9768e-05
-7.22863e-06
6.26261e-05
-2.92469e-06
6.15673e-05
1.02764e-06
5.7333e-05
4.23732e-06
5.0909e-05
6.45919e-06
4.33354e-05
7.63143e-06
3.55335e-05
7.87572e-06
2.81807e-05
7.42875e-06
2.16857e-05
6.57104e-06
1.62088e-05
5.5409e-06
1.17512e-05
4.51754e-06
8.19939e-06
3.59411e-06
5.41477e-06
2.82838e-06
3.23674e-06
2.19988e-06
1.58021e-06
1.68954e-06
4.33654e-07
1.1507e-06
-1.08777e-07
5.69208e-07
-1.09092e-07
1.15394e-06
-1.35538e-06
3.95795e-06
-4.04386e-06
7.62175e-06
-5.38024e-06
1.11953e-05
-5.39224e-06
1.40707e-05
-4.3196e-06
1.58707e-05
-2.77058e-06
1.65956e-05
-1.20105e-06
1.63703e-05
7.97206e-08
1.5395e-05
1.02838e-06
1.37492e-05
1.7832e-06
1.13754e-05
2.59072e-06
8.04422e-06
3.69137e-06
3.42552e-06
5.25264e-06
-2.86894e-06
7.35091e-06
-1.12245e-05
9.99288e-06
-2.19946e-05
1.31403e-05
-3.54604e-05
1.67168e-05
-5.1783e-05
2.05901e-05
-7.09214e-05
2.45398e-05
-9.25543e-05
2.82505e-05
-0.000116044
3.13499e-05
-0.000140474
3.34731e-05
-0.000164746
3.43268e-05
-0.000187712
3.3726e-05
-0.000208292
3.1599e-05
-0.000225558
2.79725e-05
-0.000238771
2.29505e-05
-0.000247379
1.66943e-05
-0.000251006
9.4076e-06
-0.000249427
1.32677e-06
-0.000242555
-7.28248e-06
-0.000230442
-1.61236e-05
-0.000213278
-2.48648e-05
-0.000191408
-3.31355e-05
-0.000165356
-4.05273e-05
-0.000135833
-4.66054e-05
-0.000103759
-5.09332e-05
-7.02493e-05
-5.31135e-05
-3.65874e-05
-5.28446e-05
-4.1651e-06
-4.99828e-05
2.56101e-05
-4.46017e-05
5.14271e-05
-3.70262e-05
7.21971e-05
-2.78297e-05
8.71624e-05
-1.77824e-05
9.59887e-05
-7.7553e-06
9.88077e-05
1.39744e-06
9.62259e-05
8.96686e-06
8.92593e-05
1.44823e-05
7.92144e-05
1.77843e-05
6.74836e-05
1.90148e-05
5.53483e-05
1.85727e-05
4.37863e-05
1.69792e-05
3.34289e-05
1.47757e-05
2.4541e-05
1.23913e-05
1.71668e-05
1.01405e-05
1.11683e-05
8.13332e-06
6.44668e-06
6.38217e-06
2.91942e-06
4.62907e-06
7.25414e-07
2.76451e-06
5.89622e-07
1.75828e-06
-3.10962e-06
5.56526e-06
-7.90638e-06
1.02431e-05
-1.00536e-05
1.45102e-05
-9.70205e-06
1.7652e-05
-7.46796e-06
1.92124e-05
-4.35483e-06
1.91706e-05
-1.16119e-06
1.75993e-05
1.64425e-06
1.46148e-05
4.01855e-06
1.01529e-05
6.25071e-06
3.96774e-06
8.79e-06
-4.38284e-06
1.20605e-05
-1.54304e-05
1.63289e-05
-2.97228e-05
2.16825e-05
-4.77265e-05
2.80509e-05
-6.97342e-05
3.52195e-05
-9.57242e-05
4.27966e-05
-0.000125234
5.02045e-05
-0.000157325
5.67454e-05
-0.000190688
6.17401e-05
-0.000223858
6.46627e-05
-0.00025544
6.52143e-05
-0.000284259
6.33174e-05
-0.000309426
5.90649e-05
-0.000330321
5.26546e-05
-0.000346549
4.43368e-05
-0.000357873
3.43801e-05
-0.000364168
2.30561e-05
-0.000365372
1.06364e-05
-0.000361463
-2.60067e-06
-0.000352451
-1.63568e-05
-0.000338381
-3.02978e-05
-0.000319353
-4.40358e-05
-0.000295551
-5.71151e-05
-0.000267278
-6.90056e-05
-0.000234999
-7.91105e-05
-0.000199377
-8.67952e-05
-0.000161295
-9.14408e-05
-0.000121857
-9.25238e-05
-8.23533e-05
-8.97128e-05
-4.41912e-05
-8.29659e-05
-8.78744e-06
-7.25984e-05
2.25553e-05
-5.92985e-05
4.87582e-05
-4.40652e-05
6.90564e-05
-2.80846e-05
8.30384e-05
-1.2572e-05
9.06797e-05
1.37737e-06
9.23485e-05
1.28914e-05
8.88212e-05
2.14084e-05
8.12186e-05
2.67166e-05
7.08993e-05
2.89922e-05
5.92283e-05
2.87365e-05
4.7408e-05
2.66789e-05
3.62804e-05
2.35794e-05
2.63748e-05
2.01098e-05
1.78642e-05
1.66762e-05
1.08558e-05
1.34424e-05
5.32393e-06
1.01615e-05
1.58552e-06
6.55343e-06
2.17067e-06
2.16254e-06
-5.23849e-06
6.5034e-06
-1.22754e-05
1.14457e-05
-1.49492e-05
1.54577e-05
-1.37208e-05
1.78078e-05
-9.7901e-06
1.8051e-05
-4.5984e-06
1.6168e-05
7.34015e-07
1.21353e-05
5.6737e-06
5.88124e-06
1.02727e-05
-2.92082e-06
1.50438e-05
-1.47918e-05
2.0651e-05
-3.03955e-05
2.76467e-05
-5.03651e-05
3.62763e-05
-7.51601e-05
4.6447e-05
-0.000104871
5.7723e-05
-0.000139049
6.93454e-05
-0.000176624
8.0305e-05
-0.000216042
8.95438e-05
-0.000255575
9.61905e-05
-0.000293644
9.97136e-05
-0.00032902
9.99338e-05
-0.000360863
9.69455e-05
-0.000388668
9.1008e-05
-0.000412167
8.24563e-05
-0.000431247
7.16388e-05
-0.000445872
5.88858e-05
-0.000456041
4.44962e-05
-0.000461754
2.87409e-05
-0.00046299
1.18721e-05
-0.000459706
-5.85832e-06
-0.000451832
-2.41775e-05
-0.000439284
-4.27663e-05
-0.000421983
-6.12324e-05
-0.000399887
-7.90851e-05
-0.000373029
-9.57184e-05
-0.000341573
-0.000110408
-0.000305867
-0.000122333
-0.000266504
-0.000130632
-0.000224359
-0.000134499
-0.000180601
-0.000133311
-0.000136643
-0.000126779
-9.4043e-05
-0.000115075
-5.43416e-05
-9.89018e-05
-1.88928e-05
-7.94451e-05
1.12776e-05
-5.82155e-05
3.55203e-05
-3.68058e-05
5.35466e-05
-1.66653e-05
6.536e-05
1.03748e-06
7.12498e-05
1.54649e-05
7.17922e-05
2.61079e-05
6.78924e-05
3.28282e-05
6.0691e-05
3.58708e-05
5.14653e-05
3.58523e-05
4.1369e-05
3.36194e-05
3.13741e-05
3.00736e-05
2.20706e-05
2.59321e-05
1.39255e-05
2.15824e-05
7.12672e-06
1.69091e-05
2.2649e-06
1.14412e-05
4.40253e-06
2.40494e-06
-7.62727e-06
6.87309e-06
-1.67979e-05
1.14336e-05
-1.94864e-05
1.43687e-05
-1.66883e-05
1.49877e-05
-1.04024e-05
1.29064e-05
-2.53311e-06
8.10134e-06
5.54227e-06
4.04046e-07
1.33663e-05
-1.05203e-05
2.12024e-05
-2.53054e-05
2.98328e-05
-4.47027e-05
4.00591e-05
-6.94081e-05
5.23659e-05
-9.97789e-05
6.6668e-05
-0.000135605
8.22997e-05
-0.000175941
9.80911e-05
-0.000219176
0.000112619
-0.000263365
0.000124541
-0.000306666
0.0001329
-0.000347641
0.000137226
-0.000385335
0.000137473
-0.000419206
0.000133875
-0.000449004
0.000126816
-0.00047466
0.000116734
-0.000496204
0.000104062
-0.000513711
8.91945e-05
-0.000527272
7.24777e-05
-0.000536966
5.42028e-05
-0.000542848
3.46164e-05
-0.000544934
1.39333e-05
-0.000543193
-7.64277e-06
-0.000537535
-2.98951e-05
-0.000527814
-5.2563e-05
-0.000513828
-7.53074e-05
-0.000495338
-9.76748e-05
-0.000472101
-0.000119064
-0.000443921
-0.000138702
-0.000410725
-0.000155645
-0.000372656
-0.000168817
-0.000330173
-0.000177093
-0.000284142
-0.000179446
-0.000235865
-0.000175148
-0.00018704
-0.00016398
-0.000139595
-0.000146411
-9.54315e-05
-0.000123654
-5.61297e-05
-9.75431e-05
-2.27353e-05
-7.02075e-05
4.28916e-06
-4.36768e-05
2.49152e-05
-1.95617e-05
3.93788e-05
1.04275e-06
4.80547e-05
1.74759e-05
5.15041e-05
2.94293e-05
5.04904e-05
3.69256e-05
4.60301e-05
4.03587e-05
3.92155e-05
4.04614e-05
3.11705e-05
3.81587e-05
2.27613e-05
3.43496e-05
1.47908e-05
2.95947e-05
7.73974e-06
2.39403e-05
2.50203e-06
1.67349e-05
6.88978e-06
2.52797e-06
-1.0126e-05
6.67338e-06
-2.09807e-05
1.01284e-05
-2.29028e-05
1.11227e-05
-1.7697e-05
9.07967e-06
-8.33996e-06
3.70135e-06
2.84027e-06
-5.09511e-06
1.43461e-05
-1.7697e-05
2.59639e-05
-3.47445e-05
3.82494e-05
-5.70959e-05
5.21778e-05
-8.5466e-05
6.84231e-05
-0.000120103
8.6992e-05
-0.000160469
0.000107021
-0.000205179
0.00012699
-0.000252214
0.000145102
-0.000299415
0.00015979
-0.000344942
0.000170033
-0.000387497
0.000175417
-0.000426307
0.000175995
-0.000460992
0.000172115
-0.000491437
0.000164274
-0.000517689
0.000153021
-0.000539892
0.000138893
-0.000558249
0.000122381
-0.00057299
0.000103907
-0.000584349
8.38203e-05
-0.000592547
6.23955e-05
-0.000597765
3.9842e-05
-0.000600131
1.63185e-05
-0.000599699
-8.04485e-06
-0.000596432
-3.3122e-05
-0.000590189
-5.87573e-05
-0.000580712
-8.47285e-05
-0.000567624
-0.000110701
-0.00055044
-0.000136182
-0.000528599
-0.000160474
-0.000501536
-0.000182639
-0.000468782
-0.0002015
-0.000430117
-0.000215687
-0.000385741
-0.000223754
-0.000336439
-0.000224385
-0.000283684
-0.000216677
-0.000229597
-0.000200449
-0.000176727
-0.00017649
-0.000127624
-0.000146625
-8.43447e-05
-0.000113482
-4.80671e-05
-7.99609e-05
-1.90622e-05
-4.85857e-05
3.03335e-06
-2.10755e-05
1.88063e-05
1.67242e-06
2.88829e-05
1.93266e-05
3.3893e-05
3.18829e-05
3.46157e-05
3.96153e-05
3.19403e-05
4.31055e-05
2.69214e-05
4.31682e-05
2.05137e-05
4.07248e-05
1.37258e-05
3.63912e-05
7.30253e-06
3.0319e-05
2.36843e-06
2.17035e-05
9.22806e-06
2.45531e-06
-1.2565e-05
5.72827e-06
-2.42956e-05
7.3053e-06
-2.44573e-05
5.52877e-06
-1.59409e-05
-1.80455e-08
-2.78543e-06
-9.5698e-06
1.23838e-05
-2.33514e-05
2.81313e-05
-4.19997e-05
4.46111e-05
-6.63585e-05
6.26127e-05
-9.71916e-05
8.30149e-05
-0.000134663
0.000105902
-0.000178016
0.000130354
-0.000225534
0.000154549
-0.000274916
0.000176384
-0.000323853
0.000194054
-0.000370495
0.000206449
-0.000413602
0.000213159
-0.000452472
0.000214307
-0.000486793
0.000210336
-0.00051652
0.000201863
-0.000541793
0.000189566
-0.000562876
0.000174121
-0.000580118
0.000156148
-0.000593914
0.000136184
-0.000604671
0.000114666
-0.000612783
9.19271e-05
-0.000618603
6.82026e-05
-0.000622426
4.36459e-05
-0.000624479
1.83444e-05
-0.0006249
-7.65662e-06
-0.000623731
-3.43312e-05
-0.000620892
-6.16423e-05
-0.000616162
-8.95087e-05
-0.000609158
-0.000117762
-0.000599306
-0.000146094
-0.000585844
-0.000173998
-0.00056784
-0.000200708
-0.000544266
-0.00022514
-0.000514135
-0.000245882
-0.000476715
-0.000261234
-0.000431799
-0.000269354
-0.000379991
-0.000268528
-0.000322918
-0.000257552
-0.000263244
-0.000236182
-0.000204375
-0.000205502
-0.000149826
-0.000168032
-0.000102396
-0.000127386
-6.35371e-05
-8.74365e-05
-3.32758e-05
-5.13214e-05
-1.07569e-05
-2.08318e-05
5.11969e-06
3.47218e-06
1.53051e-05
2.17125e-05
2.06488e-05
3.42956e-05
2.19563e-05
4.18072e-05
2.01716e-05
4.49778e-05
1.62281e-05
4.46662e-05
1.12068e-05
4.1443e-05
6.02851e-06
3.54755e-05
1.92764e-06
2.58488e-05
1.11413e-05
2.08972e-06
-1.46393e-05
3.81757e-06
-2.60456e-05
2.69402e-06
-2.33146e-05
-2.64027e-06
-1.06131e-05
-1.24419e-05
7.02302e-06
-2.69357e-05
2.68755e-05
-4.65488e-05
4.7745e-05
-7.20782e-05
7.01381e-05
-0.000104267
9.47999e-05
-0.000143287
0.000122031
-0.000188272
0.000150883
-0.000237321
0.000179396
-0.000287928
0.000205148
-0.000337641
0.000226087
-0.000384531
0.000240932
-0.000427323
0.00024923
-0.000465306
0.000251129
-0.000498184
0.000247172
-0.000525971
0.000238109
-0.000548908
0.000224789
-0.000567408
0.000208057
-0.000581986
0.000188695
-0.000593212
0.000167375
-0.000601654
0.000144634
-0.000607848
0.000120873
-0.000612268
9.63673e-05
-0.000615322
7.12827e-05
-0.000617343
4.56988e-05
-0.00061859
1.96294e-05
-0.000619249
-6.95454e-06
-0.000619426
-3.41069e-05
-0.000619134
-6.18837e-05
-0.000618267
-9.03214e-05
-0.00061657
-0.000119404
-0.000613584
-0.000149025
-0.000608603
-0.000178926
-0.000600636
-0.000208627
-0.000588394
-0.000237338
-0.000570359
-0.000263881
-0.000544936
-0.000286628
-0.000510735
-0.000303534
-0.000466962
-0.000312284
-0.000413874
-0.000310628
-0.00035316
-0.000296885
-0.000288066
-0.000270586
-0.000223056
-0.000233036
-0.000162902
-0.000187538
-0.000111417
-0.000138927
-7.0417e-05
-9.23301e-05
-3.96351e-05
-5.16288e-05
-1.75681e-05
-1.86049e-05
-2.54433e-06
6.67147e-06
6.82127e-06
2.49235e-05
1.15858e-05
3.70247e-05
1.27385e-05
4.38251e-05
1.12155e-05
4.61685e-05
8.10535e-06
4.45636e-05
4.41859e-06
3.91324e-05
1.3799e-06
2.89129e-05
1.25015e-05
1.3135e-06
-1.59523e-05
7.57862e-07
-2.54962e-05
-3.83356e-06
-1.87233e-05
-1.337e-05
-1.0746e-06
-2.80049e-05
2.16555e-05
-4.80024e-05
4.68767e-05
-7.39551e-05
7.36972e-05
-0.000106556
0.000102743
-0.000146011
0.000134258
-0.00019149
0.000167514
-0.000241038
0.000200434
-0.000292019
0.000230381
-0.000341824
0.000254955
-0.000388382
0.00027265
-0.000430321
0.000282874
-0.000466871
0.000285783
-0.000497738
0.000282
-0.000523004
0.000272442
-0.000543039
0.000258148
-0.000558421
0.000240174
-0.000569844
0.000219482
-0.000578038
0.00019689
-0.000583704
0.000173039
-0.00058747
0.000148394
-0.000589869
0.000123263
-0.00059134
9.78249e-05
-0.00059223
7.21563e-05
-0.000592815
4.62631e-05
-0.00059331
2.00996e-05
-0.000593881
-6.41031e-06
-0.000594655
-3.33623e-05
-0.000595712
-6.08572e-05
-0.000597072
-8.89924e-05
-0.000598663
-0.000117844
-0.000600269
-0.000147448
-0.000601465
-0.000177757
-0.000601527
-0.000208589
-0.000599352
-0.000239535
-0.000593403
-0.000269851
-0.000581726
-0.000298326
-0.000562107
-0.000323175
-0.000532402
-0.000342013
-0.000491063
-0.000351989
-0.0004378
-0.000350166
-0.000374214
-0.000334184
-0.000304108
-0.000303144
-0.000233153
-0.000258487
-0.000167647
-0.000204425
-0.000112622
-0.000147345
-7.02757e-05
-9.39694e-05
-3.98623e-05
-4.90077e-05
-1.91145e-05
-1.40729e-05
-5.69416e-06
1.1516e-05
2.17938e-06
2.91518e-05
5.86779e-06
4.01516e-05
6.47281e-06
4.55585e-05
5.12228e-06
4.5933e-05
2.87168e-06
4.13684e-05
8.68116e-07
3.09424e-05
1.33612e-05
3.95476e-08
-1.60045e-05
-3.53034e-06
-2.19025e-05
-1.22321e-05
-1.00417e-05
-2.64334e-05
1.31441e-05
-4.62661e-05
4.14749e-05
-7.20179e-05
7.26365e-05
-0.000104273
0.000105944
-0.000143253
0.000141726
-0.000188285
0.000179284
-0.000237484
0.000216712
-0.000288179
0.000251124
-0.0003376
0.000279798
-0.000383498
0.000300849
-0.000424342
0.000313491
-0.000459279
0.000317809
-0.000488007
0.00031451
-0.000510682
0.000304675
-0.000527813
0.000289575
-0.000540154
0.000270493
-0.000548573
0.0002486
-0.000553951
0.000224867
-0.000557093
0.000200042
-0.000558685
0.000174643
-0.000559279
0.000149002
-0.000559295
0.000123295
-0.000559043
9.75919e-05
-0.00055875
7.1884e-05
-0.000558582
4.6119e-05
-0.000558672
2.02147e-05
-0.000559132
-5.92351e-06
-0.000560066
-3.23988e-05
-0.000561578
-5.93155e-05
-0.00056376
-8.67798e-05
-0.000566679
-0.000114894
-0.000570341
-0.000143754
-0.000574635
-0.000173431
-0.000579247
-0.000203946
-0.000583545
-0.000235207
-0.000586444
-0.000266923
-0.000586292
-0.000298451
-0.000580818
-0.000328626
-0.000567243
-0.000355571
-0.000542635
-0.000376588
-0.000504558
-0.000388242
-0.000451983
-0.000386764
-0.000386242
-0.000368891
-0.000311649
-0.000333084
-0.000235215
-0.000280861
-0.000165006
-0.000217553
-0.000107413
-0.000151567
-6.48417e-05
-9.158e-05
-3.58138e-05
-4.31109e-05
-1.71307e-05
-7.16739e-06
-5.84168e-06
1.78515e-05
2.40983e-07
3.40722e-05
2.68562e-06
4.3101e-05
2.80426e-06
4.58222e-05
1.72379e-06
4.2432e-05
5.20992e-07
3.21589e-05
1.3872e-05
-1.75906e-06
-1.42771e-05
-8.95194e-06
-1.46518e-05
-2.21804e-05
3.14068e-06
-4.12516e-05
3.22521e-05
-6.63392e-05
6.65404e-05
-9.76466e-05
0.000103964
-0.000135489
0.000143778
-0.000179313
0.000185561
-0.000227501
0.000227469
-0.00027741
0.000266627
-0.000326181
0.000299892
-0.000371335
0.000324955
-0.000411164
0.000340676
-0.000444684
0.000347013
-0.000471573
0.000344698
-0.000492045
0.000334984
-0.000506748
0.000319378
-0.000516598
0.000299426
-0.000522632
0.000276525
-0.000525858
0.000251823
-0.000527167
0.000226171
-0.000527279
0.000200146
-0.000526736
0.000174089
-0.000525916
0.00014817
-0.00052507
0.000122434
-0.000524352
9.68573e-05
-0.00052386
7.13713e-05
-0.000523654
4.58906e-05
-0.000523785
2.03215e-05
-0.000524308
-5.42632e-06
-0.000525292
-3.14421e-05
-0.000526826
-5.78098e-05
-0.000529019
-8.4615e-05
-0.000531997
-0.000111944
-0.000535886
-0.000139893
-0.000540781
-0.000168562
-0.000546694
-0.000198057
-0.000553458
-0.000228463
-0.0005606
-0.000259796
-0.000567161
-0.0002919
-0.000571509
-0.000324283
-0.0005712
-0.000355881
-0.000563005
-0.000384783
-0.000543244
-0.000408003
-0.000508534
-0.000421478
-0.00045696
-0.000420473
-0.000389444
-0.000400607
-0.000310786
-0.000359523
-0.000229501
-0.000298833
-0.000155663
-0.0002254
-9.69755e-05
-0.000150257
-5.5663e-05
-8.44229e-05
-2.90876e-05
-3.37341e-05
-1.30913e-05
1.85129e-06
-4.20136e-06
2.51924e-05
2.76314e-08
3.8866e-05
1.3592e-06
4.45025e-05
1.11089e-06
4.26707e-05
3.83e-07
3.29013e-05
1.42503e-05
-4.03733e-06
-1.02925e-05
-1.52686e-05
-3.32479e-06
-3.31848e-05
2.09789e-05
-5.70587e-05
5.61798e-05
-8.71086e-05
9.65509e-05
-0.000123275
0.000140154
-0.000165368
0.00018585
-0.000211956
0.000232158
-0.000260691
0.000276192
-0.000308615
0.000314553
-0.000353094
0.000344363
-0.000392152
0.000364014
-0.000424668
0.00037319
-0.000450235
0.000372582
-0.000469107
0.00036357
-0.000482025
0.000347905
-0.000490057
0.000327413
-0.000494381
0.000303754
-0.000496124
0.000278272
-0.000496244
0.000251948
-0.000495484
0.000225417
-0.000494366
0.000199036
-0.000493224
0.000172956
-0.000492248
0.000147204
-0.000491529
0.000121726
-0.000491098
9.64389e-05
-0.000490955
7.12434e-05
-0.000491095
4.6047e-05
-0.000491518
2.07626e-05
-0.000492241
-4.68391e-06
-0.000493304
-3.03597e-05
-0.000494771
-5.63221e-05
-0.000496738
-8.26278e-05
-0.00049933
-0.000109333
-0.0005027
-0.000136504
-0.000507021
-0.000164224
-0.00051246
-0.000192602
-0.000519137
-0.000221774
-0.000527028
-0.000251894
-0.000535832
-0.000283086
-0.000544758
-0.000315348
-0.000552276
-0.000348355
-0.000555877
-0.000381171
-0.000552003
-0.000411868
-0.000536305
-0.000437169
-0.000504463
-0.000452314
-0.000453623
-0.000451452
-0.000384255
-0.000428902
-0.000301732
-0.000381365
-0.00021635
-0.000310787
-0.000140392
-0.00022621
-8.25931e-05
-0.000142223
-4.42129e-05
-7.21092e-05
-2.10723e-05
-2.12992e-05
-8.18001e-06
1.23057e-05
-1.78142e-06
3.24569e-05
7.05939e-07
4.20231e-05
1.01683e-06
4.23474e-05
4.5019e-07
3.34788e-05
1.46937e-05
-6.65196e-06
-3.71273e-06
-2.20614e-05
1.22225e-05
-4.45234e-05
4.33339e-05
-7.2822e-05
8.45568e-05
-0.000107163
0.000130845
-0.000147048
0.000180077
-0.000191666
0.000230448
-0.000238823
0.000279334
-0.000285796
0.000323155
-0.000329698
0.000358465
-0.000368368
0.000383029
-0.000400413
0.000396066
-0.000425335
0.000398111
-0.000443328
0.000390578
-0.000455206
0.000375448
-0.000462134
0.000354835
-0.000465424
0.000330701
-0.000466301
0.000304629
-0.000465793
0.00027776
-0.000464658
0.00025081
-0.000463407
0.000224159
-0.000462331
0.000197952
-0.000461568
0.000172185
-0.000461155
0.000146781
-0.000461073
0.000121632
-0.000461277
9.66305e-05
-0.000461722
7.16741e-05
-0.00046237
4.66794e-05
-0.0004632
2.15756e-05
-0.000464209
-3.69207e-06
-0.000465418
-2.91695e-05
-0.000466867
-5.4891e-05
-0.000468626
-8.08878e-05
-0.00047079
-0.000107187
-0.000473489
-0.000133822
-0.000476891
-0.000160839
-0.000481196
-0.000188312
-0.000486629
-0.000216354
-0.000493399
-0.000245135
-0.000501618
-0.000274877
-0.000511152
-0.000305822
-0.000521387
-0.000338125
-0.000530919
-0.000371642
-0.000537224
-0.000405561
-0.000536472
-0.000437915
-0.000523714
-0.000465065
-0.000493742
-0.000481419
-0.000442806
-0.00047984
-0.00037103
-0.000453147
-0.000284645
-0.000397183
-0.000196155
-0.000314698
-0.000120192
-0.000218187
-6.57055e-05
-0.000126578
-3.19406e-05
-5.50714e-05
-1.30056e-05
-6.62002e-06
-3.46431e-06
2.29062e-05
4.69413e-07
3.81006e-05
1.26364e-06
4.15417e-05
6.60689e-07
3.40957e-05
1.53487e-05
-9.41177e-06
5.6049e-06
-2.88686e-05
3.18531e-05
-5.54715e-05
6.9795e-05
-8.75515e-05
0.000116731
-0.000125213
0.00016844
-0.000167405
0.000222311
-0.000212736
0.000275745
-0.000258496
0.000325111
-0.00030194
0.00036658
-0.000340522
0.000397054
-0.00037267
0.000415167
-0.000397608
0.000421008
-0.000415472
0.00041597
-0.000427021
0.00040213
-0.000433508
0.000381934
-0.000436324
0.000357653
-0.000436808
0.000331185
-0.000436047
0.00030387
-0.000434838
0.000276553
-0.000433679
0.000249655
-0.00043284
0.000223323
-0.000432416
0.000197533
-0.000432405
0.00017218
-0.000432752
0.000147135
-0.000433383
0.000122272
-0.000434228
9.74855e-05
-0.000435231
7.26871e-05
-0.000436349
4.78101e-05
-0.000437562
2.28014e-05
-0.000438864
-2.37667e-06
-0.000440266
-2.7754e-05
-0.000441793
-5.33492e-05
-0.00044349
-7.91771e-05
-0.000445418
-0.000105245
-0.000447663
-0.000131564
-0.000450344
-0.000158146
-0.000453622
-0.000185024
-0.000457706
-0.000212261
-0.000462857
-0.000239977
-0.00046936
-0.000268369
-0.000477449
-0.00029773
-0.00048715
-0.000328422
-0.000498021
-0.00036077
-0.00050877
-0.000394811
-0.000516839
-0.000429844
-0.000518111
-0.000463789
-0.00050704
-0.000492483
-0.000477581
-0.000509294
-0.000425233
-0.000505495
-0.000350083
-0.000472346
-0.000259785
-0.000405006
-0.00016968
-0.0003083
-9.65545e-05
-0.000199691
-4.80488e-05
-0.000103578
-2.02773e-05
-3.43836e-05
-6.01509e-06
8.63043e-06
8.84864e-08
3.2008e-05
1.57722e-06
4.00379e-05
9.24701e-07
3.47628e-05
1.62657e-05
-1.2066e-05
1.75618e-05
-3.51554e-05
5.51537e-05
-6.52439e-05
9.97173e-05
-0.000100234
0.000151839
-0.000140044
0.000208177
-0.000183062
0.000265384
-0.00022746
0.000320109
-0.000270305
0.000367983
-0.0003091
0.000405358
-0.000341789
0.000429759
-0.000367433
0.000440804
-0.000385868
0.000439454
-0.000397819
0.000427918
-0.00040448
0.000408798
-0.000407349
0.000384801
-0.000407827
0.000358134
-0.000407108
0.000330463
-0.000406019
0.000302781
-0.000405089
0.000275619
-0.000404565
0.000249128
-0.000404527
0.000223281
-0.000404939
0.00019794
-0.000405723
0.000172958
-0.000406784
0.00014819
-0.000408039
0.00012352
-0.000409419
9.88576e-05
-0.000410877
7.41354e-05
-0.00041238
4.93038e-05
-0.000413916
2.43259e-05
-0.00041548
-8.23424e-07
-0.000417082
-2.61631e-05
-0.00041874
-5.17027e-05
-0.00042048
-7.74483e-05
-0.000422338
-0.000103398
-0.000424364
-0.000129549
-0.000426625
-0.000155894
-0.000429221
-0.000182437
-0.000432295
-0.000209195
-0.000436052
-0.000236227
-0.000440773
-0.000263653
-0.000446804
-0.000291703
-0.000454492
-0.000320737
-0.000464022
-0.000351243
-0.00047511
-0.000383726
-0.000486547
-0.000418407
-0.000495672
-0.000454663
-0.000497989
-0.000490161
-0.00048728
-0.000519995
-0.000456703
-0.000536062
-0.000401242
-0.000527808
-0.000321536
-0.000484723
-0.000227574
-0.000402277
-0.000138282
-0.000288982
-7.16118e-05
-0.000170238
-3.14906e-05
-7.44878e-05
-1.04743e-05
-1.24025e-05
-1.05144e-06
2.25986e-05
1.6499e-06
3.73206e-05
1.14115e-06
3.52876e-05
1.73995e-05
-1.43932e-05
3.18288e-05
-4.04907e-05
8.14874e-05
-7.32493e-05
0.000132282
-0.00011016
0.000188878
-0.000150905
0.000248833
-0.000193391
0.000307926
-0.00023555
0.000362222
-0.000274479
0.000406936
-0.000308104
0.000438959
-0.000334924
0.000456591
-0.000354625
0.000460491
-0.000367605
0.000452441
-0.000375056
0.000435361
-0.000378423
0.000412168
-0.000379243
0.000385615
-0.00037876
0.000357654
-0.000377914
0.000329613
-0.000377247
0.000302116
-0.000377039
0.00027541
-0.000377347
0.000249439
-0.000378131
0.000224066
-0.000379288
0.000199101
-0.000380716
0.00017439
-0.000382318
0.000149798
-0.000384026
0.000125232
-0.000385784
0.000100623
-0.000387562
7.59209e-05
-0.000389342
5.10917e-05
-0.000391118
2.61105e-05
-0.000392893
9.60713e-07
-0.000394677
-2.437e-05
-0.000396484
-4.98867e-05
-0.000398331
-7.55919e-05
-0.00040024
-0.00010148
-0.000402235
-0.000127545
-0.000404349
-0.000153772
-0.00040663
-0.00018015
-0.000409151
-0.000206668
-0.000412034
-0.000233339
-0.000415473
-0.000260211
-0.00041976
-0.000287415
-0.000425289
-0.000315207
-0.000432509
-0.000344023
-0.000441748
-0.000374489
-0.000452861
-0.000407295
-0.00046467
-0.000442857
-0.000474306
-0.000480523
-0.000476736
-0.000517562
-0.00046495
-0.000547838
-0.000431336
-0.000561415
-0.000370792
-0.000545266
-0.000285425
-0.00048767
-0.000188921
-0.000385487
-0.000104271
-0.00025491
-4.79417e-05
-0.000130769
-1.7639e-05
-4.2729e-05
-3.46801e-06
8.44122e-06
1.23614e-06
3.26001e-05
1.23176e-06
3.53054e-05
1.86246e-05
-1.61819e-05
4.78768e-05
-4.44916e-05
0.000110058
-7.89966e-05
0.000166579
-0.000116795
0.000226822
-0.000157326
0.000289272
-0.000198151
0.000348818
-0.000237158
0.000401184
-0.000271665
0.000441477
-0.000300106
0.000467379
-0.000321539
0.000478045
-0.00033622
0.000475164
-0.000345003
0.000461239
-0.000349379
0.000439732
-0.000350851
0.000413649
-0.000350831
0.000385593
-0.000350312
0.000357139
-0.000349951
0.00032925
-0.000350036
0.000302204
-0.000350661
0.000276033
-0.000351763
0.000250542
-0.000353247
0.000225546
-0.000354988
0.000200841
-0.000356895
0.000176293
-0.000358887
0.000151787
-0.000360916
0.000127256
-0.000362943
0.000102646
-0.000364954
7.79261e-05
-0.000366939
5.30711e-05
-0.000368901
2.80651e-05
-0.000370843
2.89669e-06
-0.000372779
-2.24419e-05
-0.000374719
-4.79535e-05
-0.000376679
-7.36392e-05
-0.000378671
-9.94939e-05
-0.000380711
-0.000125511
-0.000382811
-0.000151678
-0.000384988
-0.000177978
-0.000387267
-0.000204392
-0.000389703
-0.000230907
-0.000392394
-0.000257523
-0.000395524
-0.000284286
-0.000399396
-0.000311336
-0.000404456
-0.000338964
-0.000411245
-0.000367702
-0.000420219
-0.000398321
-0.000431328
-0.000431751
-0.000443332
-0.000468517
-0.000452993
-0.000507904
-0.000454535
-0.000546287
-0.00043999
-0.000575951
-0.000401133
-0.000584111
-0.000333429
-0.000555383
-0.000241933
-0.000477001
-0.000145718
-0.000351149
-7.09803e-05
-0.000205479
-2.79819e-05
-8.57136e-05
-7.51809e-06
-1.20293e-05
2.04548e-07
2.48712e-05
1.15993e-06
3.4356e-05
1.97813e-05
-1.73053e-05
6.50386e-05
-4.69543e-05
0.000139978
-8.22701e-05
0.000201671
-0.000119986
0.000264687
-0.000159328
0.00032851
-0.000197665
0.000387221
-0.000233
0.000436466
-0.000262992
0.0004715
-0.0002866
0.000490959
-0.0003034
0.000494861
-0.000314126
0.000485872
-0.000319941
0.000467062
-0.00032246
0.000442239
-0.000323091
0.000414283
-0.000323025
0.000385518
-0.000322971
0.000357086
-0.000323337
0.00032961
-0.000324216
0.000303085
-0.000325588
0.000277402
-0.000327331
0.000252287
-0.000329336
0.000227551
-0.000331492
0.000203
-0.000333728
0.000178529
-0.000335983
0.000154046
-0.00033823
0.000129506
-0.000340446
0.000104866
-0.000342625
8.0109e-05
-0.000344763
5.52146e-05
-0.000346867
3.01736e-05
-0.000348941
4.97744e-06
-0.000351
-2.0378e-05
-0.000353053
-4.58943e-05
-0.000355115
-7.15716e-05
-0.000357197
-9.7406e-05
-0.000359311
-0.000123393
-0.00036146
-0.000149523
-0.00036365
-0.000175785
-0.00036588
-0.000202159
-0.000368159
-0.000228625
-0.000370517
-0.000255163
-0.000373035
-0.000281767
-0.000375889
-0.000308483
-0.000379399
-0.000335452
-0.000384068
-0.000363034
-0.000390539
-0.00039185
-0.000399378
-0.000422917
-0.000410563
-0.000457331
-0.000422646
-0.000495828
-0.00043178
-0.000537148
-0.000431176
-0.000576553
-0.000411823
-0.000603446
-0.000365186
-0.000602012
-0.000288563
-0.000553648
-0.000191938
-0.000447782
-0.000101476
-0.000295986
-4.21868e-05
-0.000144928
-1.32894e-05
-4.09462e-05
-1.52871e-06
1.31074e-05
9.4507e-07
3.18827e-05
2.0726e-05
-1.76821e-05
8.2577e-05
-4.7767e-05
0.000170344
-8.29906e-05
0.00023667
-0.000119757
0.000301612
-0.00015713
0.00036578
-0.000192435
0.000422599
-0.000223902
0.000467882
-0.000249586
0.000497224
-0.000268944
0.000510293
-0.00028199
0.000507934
-0.000289811
0.000493682
-0.00029373
0.000471
-0.000295336
0.000443839
-0.00029584
0.000414799
-0.000296178
0.000385852
-0.000296799
0.000357716
-0.00029792
0.000330729
-0.000299507
0.000304677
-0.000301481
0.000279375
-0.000303707
0.000254515
-0.00030609
0.000229932
-0.00030854
0.000205451
-0.000311011
0.000180998
-0.000313462
0.000156496
-0.000315879
0.000131919
-0.000318246
0.000107232
-0.000320565
8.24241e-05
-0.000322833
5.74794e-05
-0.000325057
3.23931e-05
-0.000327242
7.1588e-06
-0.000329401
-1.82244e-05
-0.000331542
-4.37568e-05
-0.000333681
-6.94372e-05
-0.000335828
-9.52623e-05
-0.000337996
-0.00012123
-0.000340189
-0.000147333
-0.00034241
-0.000173567
-0.000344651
-0.000199919
-0.000346904
-0.000226374
-0.000349159
-0.000252909
-0.000351429
-0.000279497
-0.000353779
-0.000306133
-0.000356383
-0.000332847
-0.00035959
-0.000359829
-0.000363974
-0.000387464
-0.000370288
-0.000416606
-0.00037919
-0.000448426
-0.000390585
-0.00048444
-0.00040259
-0.000525138
-0.000410413
-0.000568735
-0.000405981
-0.00060786
-0.000379236
-0.000628746
-0.000322216
-0.000610659
-0.000235874
-0.000534163
-0.000138112
-0.000393768
-6.1367e-05
-0.000221674
-2.07518e-05
-8.14902e-05
-4.06303e-06
-3.63459e-06
6.25202e-07
2.72094e-05
2.13487e-05
-1.73167e-05
9.97483e-05
-4.6978e-05
0.000200281
-8.13035e-05
0.000270768
-0.000116414
0.000336877
-0.000151264
0.00040052
-0.00018326
0.000454666
-0.000210917
0.000495481
-0.000232696
0.00051904
-0.000248486
0.000526049
-0.000258644
0.000518112
-0.000264474
0.000499491
-0.000267328
0.000473863
-0.00026866
0.000445155
-0.000269443
0.000415587
-0.00027037
0.000386766
-0.000271682
0.00035903
-0.000273464
0.000332502
-0.000275612
0.000306826
-0.000278034
0.000281792
-0.000280603
0.000257086
-0.000283251
0.000232577
-0.000285909
0.00020811
-0.000288552
0.00018364
-0.000291152
0.000159099
-0.000293705
0.000134473
-0.0002962
0.000109729
-0.000298639
8.48648e-05
-0.000301019
5.98634e-05
-0.000303348
3.47245e-05
-0.000305629
9.44338e-06
-0.000307872
-1.59777e-05
-0.000310088
-4.15374e-05
-0.000312289
-6.72326e-05