/*--------------------------------*- C++ -*----------------------------------*\
| =========                 |                                                 |
| \\      /  F ield         | OpenFOAM: The Open Source CFD Toolbox           |
|  \\    /   O peration     | Version:  2406                                  |
|   \\  /    A nd           | Website:  www.openfoam.com                      |
|    \\/     M anipulation  |                                                 |
\*---------------------------------------------------------------------------*/
FoamFile
{
    version     2.0;
    format      ascii;
    arch        "LSB;label=32;scalar=64";
    class       volScalarField;
    location    "30.7";
    object      p;
}
// * * * * * * * * * * * * * * * * * * * * * * * * * * * * * * * * * * * * * //

dimensions      [0 2 -2 0 0 0 0];

internalField   nonuniform List<scalar> 
3600
(
0.0367191
0.0367505
0.036734
0.036712
0.0366376
0.0365576
0.0364463
0.0363375
0.0362117
0.0360856
0.0359413
0.035784
0.0355988
0.0353865
0.0351375
0.0348522
0.0345265
0.0341636
0.0337663
0.033344
0.0329104
0.0324864
0.0320994
0.0317819
0.0315687
0.0314931
0.0315837
0.03186
0.0323306
0.0329889
0.0338128
0.0347614
0.035776
0.0367813
0.0376899
0.0384111
0.0388596
0.0389709
0.0387095
0.0380824
0.0371348
0.0359521
0.034636
0.0332993
0.0320327
0.0309124
0.0299715
0.0292304
0.0286687
0.0282738
0.028
0.0278323
0.0277228
0.0276726
0.0276381
0.0276404
0.0276368
0.027665
0.0276764
0.0277103
0.0366893
0.0367213
0.0366979
0.0366758
0.0366044
0.0365327
0.0364317
0.036335
0.0362215
0.0361083
0.0359775
0.0358353
0.0356674
0.0354753
0.0352495
0.03499
0.0346917
0.0343558
0.0339834
0.0335822
0.033164
0.0327464
0.0323527
0.0320115
0.0317562
0.0316212
0.0316392
0.0318344
0.0322208
0.0327964
0.0335428
0.034422
0.0353776
0.0363355
0.0372093
0.037908
0.0383454
0.0384557
0.0382019
0.03759
0.0366654
0.0355154
0.0342435
0.0329646
0.0317684
0.0307279
0.0298687
0.0292033
0.0287035
0.0283526
0.0281042
0.0279464
0.0278352
0.0277766
0.0277294
0.0277183
0.027699
0.0277143
0.0277107
0.0277446
0.0366995
0.0367398
0.0367135
0.0366883
0.0366111
0.0365356
0.0364337
0.0363393
0.0362319
0.0361266
0.0360055
0.0358727
0.0357142
0.0355295
0.0353084
0.0350484
0.0347425
0.0343887
0.0339852
0.0335357
0.0330497
0.0325463
0.0320549
0.031612
0.0312594
0.0310374
0.0309823
0.03112
0.0314655
0.0320166
0.0327551
0.0336425
0.0346223
0.0356194
0.036546
0.0373081
0.0378152
0.0379949
0.0378028
0.0372379
0.0363407
0.0351975
0.0339163
0.0326205
0.0314106
0.0303688
0.0295262
0.0288955
0.028444
0.0281478
0.0279529
0.0278418
0.0277668
0.0277347
0.027704
0.0277039
0.0276885
0.0277087
0.0277042
0.0277508
0.0367145
0.0367565
0.0367235
0.0366914
0.0366083
0.0365312
0.0364336
0.0363482
0.0362547
0.0361652
0.0360616
0.0359447
0.0357998
0.035622
0.0353987
0.035121
0.0347771
0.0343582
0.0338606
0.0332894
0.0326618
0.032005
0.0313561
0.030757
0.0302533
0.0298875
0.0296981
0.0297125
0.0299475
0.0304032
0.0310645
0.0318971
0.0328492
0.0338507
0.0348181
0.0356587
0.0362803
0.0366037
0.0365736
0.0361749
0.0354342
0.0344264
0.0332543
0.0320424
0.0308978
0.0299115
0.0291227
0.0285487
0.0281579
0.0279244
0.0277897
0.0277326
0.0277015
0.0277023
0.0276927
0.0277056
0.0276938
0.0277164
0.0277079
0.0277619
0.0367768
0.0368156
0.0367736
0.036728
0.0366334
0.0365464
0.0364462
0.0363612
0.0362737
0.0361893
0.03609
0.0359693
0.0358094
0.0355965
0.0353117
0.0349363
0.0344547
0.0338577
0.0331493
0.0323445
0.0314732
0.0305734
0.0296928
0.0288798
0.0281843
0.0276492
0.0273124
0.0271998
0.0273274
0.0276961
0.0282938
0.0290908
0.0300426
0.0310866
0.032147
0.033136
0.0339619
0.0345389
0.0347977
0.0347017
0.034253
0.0335027
0.0325372
0.0314741
0.0304254
0.0294942
0.0287357
0.028182
0.0278123
0.0276068
0.0275085
0.0274936
0.0275064
0.0275483
0.0275734
0.0276138
0.0276209
0.0276568
0.0276541
0.0277144
0.0368649
0.0368931
0.03684
0.036777
0.0366725
0.0365764
0.0364768
0.0363929
0.0363104
0.0362249
0.0361171
0.0359687
0.0357559
0.0354509
0.0350279
0.0344623
0.0337431
0.0328693
0.0318601
0.030744
0.0295656
0.0283718
0.027217
0.026151
0.025224
0.0244767
0.0239455
0.0236539
0.0236184
0.0238408
0.0243136
0.0250142
0.0259083
0.0269463
0.0280663
0.0291931
0.0302441
0.0311338
0.0317838
0.0321354
0.0321589
0.0318679
0.0313142
0.03059
0.0297972
0.029043
0.0283973
0.0279103
0.0275791
0.0273974
0.0273182
0.0273228
0.0273576
0.0274226
0.0274702
0.0275292
0.0275508
0.0275947
0.0275963
0.027655
0.0370052
0.0370156
0.0369495
0.0368633
0.036746
0.0366339
0.0365271
0.0364303
0.0363336
0.036217
0.0360585
0.0358214
0.035474
0.0349741
0.034296
0.0334174
0.0323433
0.0310884
0.0296924
0.0281989
0.0266664
0.0251493
0.0237073
0.0223898
0.0212451
0.0203083
0.0196102
0.0191683
0.018995
0.01909
0.0194478
0.0200506
0.0208742
0.0218821
0.0230299
0.0242608
0.0255097
0.0267035
0.027766
0.0286263
0.0292271
0.0295391
0.0295647
0.0293495
0.0289637
0.0285027
0.0280461
0.0276657
0.0273851
0.0272212
0.0271452
0.0271489
0.0271867
0.0272587
0.0273191
0.0273911
0.0274269
0.0274788
0.0274874
0.0275415
0.0371938
0.0371789
0.037101
0.0369898
0.0368623
0.036732
0.036614
0.0364911
0.0363576
0.0361711
0.0359045
0.0354994
0.0349195
0.0341152
0.0330729
0.0317836
0.0302768
0.0285869
0.026775
0.024898
0.0230256
0.0212146
0.0195245
0.0179982
0.0166771
0.0155863
0.014749
0.0141745
0.0138705
0.0138336
0.014059
0.0145326
0.0152385
0.0161523
0.0172469
0.018486
0.0198283
0.0212231
0.0226125
0.0239326
0.025117
0.0261064
0.0268544
0.0273443
0.0275863
0.0276305
0.027539
0.0273918
0.0272407
0.0271343
0.0270745
0.0270727
0.0270992
0.0271592
0.0272137
0.0272817
0.0273193
0.0273693
0.0273801
0.0274247
0.0374391
0.0373912
0.0373028
0.0371619
0.0370214
0.036861
0.0367142
0.0365333
0.0363166
0.0359926
0.0355296
0.0348489
0.0339199
0.0326973
0.031193
0.02942
0.0274381
0.0253023
0.0230945
0.0208802
0.0187344
0.0167093
0.0148581
0.0132118
0.0118011
0.0106384
0.0097374
0.00909796
0.00872228
0.00860224
0.00873232
0.00909914
0.00969181
0.0104935
0.0114893
0.0126594
0.013984
0.0154371
0.0169883
0.0185978
0.0202153
0.0217801
0.0232227
0.024476
0.0254819
0.0262147
0.0266782
0.0269238
0.0270136
0.0270284
0.027014
0.0270146
0.0270268
0.0270658
0.0271038
0.0271573
0.0271889
0.0272314
0.0272419
0.0272766
0.0377441
0.0376573
0.0375628
0.037391
0.0372361
0.0370334
0.0368357
0.0365568
0.0361979
0.0356547
0.0348967
0.0338338
0.0324561
0.0307358
0.0287214
0.0264524
0.02402
0.0214957
0.0189745
0.0165205
0.0142046
0.0120654
0.0101439
0.00845522
0.00701831
0.00583374
0.00490762
0.00423294
0.00380857
0.00362355
0.00367227
0.00394183
0.00442424
0.00510673
0.00598139
0.00703791
0.00827036
0.00967114
0.0112337
0.012946
0.0147878
0.0167237
0.0186971
0.0206294
0.0224207
0.0239706
0.0251935
0.0260583
0.0265851
0.0268581
0.0269661
0.0270034
0.0270114
0.0270267
0.0270396
0.0270673
0.0270819
0.0271084
0.0271127
0.0271371
0.0380901
0.0379591
0.0378613
0.0376521
0.0374724
0.0372022
0.0369146
0.0364777
0.0358973
0.0350381
0.0338824
0.032342
0.030444
0.0281882
0.0256658
0.0229424
0.0201352
0.0173217
0.0145987
0.0120177
0.00963695
0.00747633
0.00556266
0.00389591
0.0024856
0.00132313
0.000410048
-0.000265122
-0.000704902
-0.000921878
-0.000921274
-0.000715967
-0.000312455
0.000277863
0.00104994
0.00199707
0.00311938
0.00441811
0.00590048
0.00757403
0.00944577
0.0115132
0.0137559
0.0161231
0.0185238
0.0208283
0.0228796
0.0245388
0.0257219
0.0264481
0.0268109
0.0269533
0.0269852
0.0269849
0.0269722
0.02697
0.0269622
0.026969
0.0269642
0.0269805
0.0384727
0.0382958
0.0381984
0.0379461
0.0377281
0.0373603
0.0369356
0.0362726
0.0353866
0.0341201
0.0324842
0.0304076
0.027967
0.0251951
0.0222248
0.0191391
0.0160688
0.0130828
0.0102679
0.00765383
0.00528194
0.00315262
0.00128089
-0.000345007
-0.0017207
-0.00286002
-0.00376231
-0.00444067
-0.00489664
-0.00514282
-0.00518293
-0.00502929
-0.00468696
-0.0041667
-0.00347244
-0.00261027
-0.00157882
-0.000375045
0.0010123
0.00259837
0.00440439
0.00645087
0.00875165
0.011299
0.0140474
0.0168949
0.0196758
0.0221795
0.0242005
0.0256189
0.0264484
0.0268309
0.0269492
0.0269553
0.0269221
0.0268879
0.0268537
0.0268373
0.0268202
0.0268295
0.0388374
0.0386133
0.0385144
0.038206
0.0379249
0.0374174
0.0367962
0.035832
0.0345589
0.0328109
0.0306439
0.0280162
0.0250602
0.0218389
0.0185179
0.0151832
0.0119643
0.00890912
0.00608641
0.00350122
0.00117972
-0.000893787
-0.00271123
-0.0042916
-0.00563166
-0.00674751
-0.00763719
-0.00831407
-0.00877789
-0.00904089
-0.0091052
-0.00898266
-0.0086773
-0.00819968
-0.00755353
-0.00674549
-0.00577512
-0.00464075
-0.00333244
-0.00183521
-0.000124938
0.00182783
0.00405658
0.00658719
0.00942487
0.0125264
0.0157782
0.0189759
0.0218492
0.0241302
0.0256664
0.0264981
0.0268229
0.0268836
0.0268458
0.0267835
0.0267232
0.0266832
0.0266531
0.0266569
0.0391643
0.0388953
0.0387914
0.0384131
0.0380405
0.0373492
0.0364717
0.0351388
0.0334154
0.0311434
0.0284368
0.02529
0.021889
0.0183173
0.0147581
0.0112838
0.00801035
0.00495653
0.00217194
-0.000361001
-0.00262657
-0.00465142
-0.0064295
-0.00798316
-0.00930727
-0.0104182
-0.0113112
-0.011999
-0.012479
-0.0127627
-0.0128504
-0.0127532
-0.012474
-0.012023
-0.0114038
-0.0106237
-0.00968365
-0.00858438
-0.00731959
-0.00587828
-0.00424034
-0.00237782
-0.000252852
0.00217574
0.00494711
0.00807278
0.0115147
0.0151369
0.0186962
0.0218501
0.0242765
0.0258078
0.0265437
0.0267561
0.0267473
0.0266661
0.0265813
0.0265173
0.0264735
0.0264709
0.0393656
0.0390527
0.0389334
0.0384654
0.037966
0.0370444
0.0358552
0.0341019
0.031893
0.0290928
0.0258797
0.0222843
0.0185359
0.0147235
0.0110316
0.00750607
0.00424246
0.00122968
-0.00149849
-0.00397684
-0.00619429
-0.00818353
-0.00993671
-0.0114771
-0.012796
-0.0139094
-0.0148096
-0.0155086
-0.0160018
-0.0163001
-0.0164025
-0.0163196
-0.0160536
-0.0156143
-0.0150053
-0.014234
-0.013303
-0.0122148
-0.0109668
-0.00955255
-0.00795832
-0.00616236
-0.00413173
-0.00182431
0.00081255
0.00382361
0.00723442
0.010995
0.0149542
0.0187999
0.0221296
0.0245557
0.0259549
0.0265001
0.0265854
0.0265068
0.0264025
0.0263135
0.0262562
0.026245
0.0394153
0.0390623
0.0389157
0.0383402
0.0376817
0.0364921
0.0349507
0.0327504
0.0300532
0.0267569
0.0231038
0.0191527
0.0151618
0.011209
0.00746669
0.00394743
0.000725556
-0.00223621
-0.00491399
-0.00735388
-0.00954449
-0.0115209
-0.0132713
-0.0148183
-0.0161493
-0.0172793
-0.0181977
-0.0189161
-0.0194278
-0.0197433
-0.0198603
-0.0197892
-0.0195312
-0.0190959
-0.0184869
-0.0177117
-0.0167737
-0.0156767
-0.0144214
-0.0130048
-0.0114198
-0.00965196
-0.0076775
-0.00546191
-0.00295449
-9.95026e-05
0.0031658
0.00686031
0.0109394
0.0151921
0.019255
0.02262
0.0248995
0.0260306
0.0263439
0.026305
0.0261938
0.0260762
0.0260045
0.0259801
0.0392148
0.0388235
0.0386339
0.0379328
0.0370857
0.0356013
0.0336873
0.0310417
0.0278863
0.0241569
0.020152
0.0159468
0.0118116
0.0078002
0.00406531
0.000585184
-0.0025833
-0.00549732
-0.00813697
-0.0105545
-0.0127347
-0.014713
-0.0164724
-0.0180345
-0.019383
-0.0205322
-0.021469
-0.0222046
-0.022731
-0.0230584
-0.0231839
-0.0231174
-0.0228601
-0.0224211
-0.0218045
-0.0210172
-0.0200642
-0.0189492
-0.0176757
-0.0162426
-0.0146482
-0.0128836
-0.0109345
-0.00877627
-0.00636829
-0.00365924
-0.000574031
0.00294492
0.00693869
0.0113127
0.0158277
0.0199836
0.023236
0.0251825
0.0259623
0.0260264
0.0259354
0.0257863
0.0256973
0.0256544
0.0387581
0.0383332
0.0380871
0.0372495
0.0361956
0.0344077
0.0321234
0.0290613
0.0255029
0.0214219
0.0171597
0.0127947
0.00859443
0.00458112
0.000884942
-0.00254618
-0.00566721
-0.00854871
-0.0111699
-0.0135853
-0.0157743
-0.0177712
-0.0195539
-0.021143
-0.0225185
-0.0236942
-0.024655
-0.0254116
-0.025955
-0.0262949
-0.0264282
-0.0263641
-0.0261042
-0.0256571
-0.0250276
-0.0242222
-0.0232473
-0.0221063
-0.020805
-0.0193433
-0.0177236
-0.0159407
-0.0139885
-0.0118513
-0.00950082
-0.00689772
-0.00397166
-0.000653748
0.00314839
0.00743505
0.0121141
0.0167965
0.0209291
0.0238323
0.0253311
0.0256641
0.0256114
0.0254482
0.0253317
0.0252657
0.0379684
0.0375131
0.037198
0.0362181
0.0349495
0.0328659
0.0302353
0.0268075
0.0229188
0.0185753
0.0141467
0.00970259
0.00549724
0.00151872
-0.00212344
-0.00550533
-0.00858822
-0.0114503
-0.0140668
-0.016492
-0.0186995
-0.0207218
-0.0225322
-0.0241504
-0.0255535
-0.0267546
-0.0277372
-0.0285116
-0.029068
-0.0294157
-0.0295516
-0.0294845
-0.0292168
-0.0287562
-0.0281093
-0.0272815
-0.0262814
-0.0251115
-0.0237802
-0.0222869
-0.0206377
-0.0188286
-0.0168599
-0.0147219
-0.012398
-0.00986187
-0.00705624
-0.00391915
-0.000338429
0.00374378
0.00836182
0.0132809
0.0180553
0.0219109
0.0242926
0.0251697
0.0251871
0.0250406
0.02489
0.024794
0.0368845
0.0364056
0.0360146
0.0348965
0.0334193
0.0310651
0.0281297
0.0244015
0.0202618
0.0157422
0.0112253
0.00676369
0.00259161
-0.00133459
-0.00492226
-0.00826456
-0.0113244
-0.0141832
-0.0168105
-0.019259
-0.0214963
-0.0235533
-0.0253993
-0.027053
-0.028489
-0.0297199
-0.0307276
-0.0315219
-0.0320925
-0.032448
-0.0325858
-0.0325137
-0.0322356
-0.031758
-0.0310898
-0.0302352
-0.0292057
-0.0280023
-0.0266371
-0.0251076
-0.0234242
-0.0215821
-0.0195869
-0.017432
-0.0151102
-0.0126063
-0.00987816
-0.0068798
-0.00350055
0.00033868
0.00476138
0.00967068
0.014807
0.0194353
0.0227802
0.0244113
0.0246772
0.0245265
0.024377
0.0242266
0.035471
0.0349745
0.0345036
0.0332576
0.0315874
0.0289991
0.025811
0.021853
0.0175396
0.0129202
0.00837743
0.00394233
-0.000173164
-0.00403924
-0.00757591
-0.0108868
-0.0139338
-0.0167979
-0.0194431
-0.0219193
-0.0241893
-0.0262822
-0.028164
-0.0298521
-0.0313197
-0.0325781
-0.0336085
-0.0344195
-0.035001
-0.0353604
-0.0354961
-0.0354147
-0.035122
-0.0346232
-0.0339301
-0.0330452
-0.0319838
-0.0307449
-0.0293448
-0.0277789
-0.0260617
-0.0241866
-0.0221637
-0.0199867
-0.0176557
-0.0151627
-0.0124798
-0.00957843
-0.0063616
-0.00275423
0.00141577
0.00614864
0.0113882
0.0165149
0.0207798
0.0232454
0.024063
0.02387
0.0237756
0.0235415
0.033816
0.0333116
0.0327631
0.0314074
0.0295695
0.0267928
0.0234096
0.0192927
0.0148759
0.0102201
0.00569709
0.00131632
-0.00273284
-0.00654059
-0.0100358
-0.013327
-0.0163733
-0.0192533
-0.0219254
-0.0244367
-0.0267458
-0.0288797
-0.0308022
-0.032529
-0.034032
-0.035321
-0.0363767
-0.0372062
-0.0377999
-0.0381634
-0.0382968
-0.0382046
-0.0378957
-0.037373
-0.0366522
-0.0357335
-0.0346369
-0.0333589
-0.031921
-0.0303157
-0.0285629
-0.0266526
-0.0246004
-0.0223976
-0.0200507
-0.0175547
-0.0148936
-0.0120537
-0.0089567
-0.00554458
-0.0016315
0.002841
0.00797922
0.0133378
0.0183221
0.0216518
0.023224
0.0230968
0.0230395
0.0227365
0.0319202
0.0314164
0.0307946
0.0293495
0.0273726
0.024454
0.0209308
0.0167174
0.0122541
0.00760878
0.00313564
-0.00117511
-0.00515523
-0.00890806
-0.0123688
-0.0156465
-0.0186973
-0.0215958
-0.0242961
-0.0268421
-0.0291893
-0.0313624
-0.0333237
-0.0350869
-0.0366231
-0.03794
-0.0390187
-0.0398637
-0.0404668
-0.0408311
-0.0409591
-0.0408529
-0.0405248
-0.039975
-0.0392239
-0.0382686
-0.0371349
-0.0358159
-0.0343394
-0.032694
-0.0309062
-0.0289617
-0.026882
-0.0246545
-0.0222916
-0.0197879
-0.0171366
-0.0143349
-0.0113227
-0.00806414
-0.00438264
-0.000194394
0.00470912
0.0100808
0.0154985
0.0196616
0.0220114
0.0222301
0.0221128
0.0218049
0.0299048
0.0294131
0.0287266
0.0272167
0.0251326
0.0221195
0.0185083
0.0142533
0.00978952
0.00518953
0.000784645
-0.00344964
-0.00736432
-0.0110697
-0.0145055
-0.0177781
-0.0208409
-0.0237636
-0.0264973
-0.0290817
-0.0314709
-0.0336866
-0.0356901
-0.0374927
-0.0390652
-0.0404125
-0.0415164
-0.0423786
-0.0429926
-0.0433584
-0.0434817
-0.043361
-0.0430132
-0.0424348
-0.0416521
-0.040658
-0.0394856
-0.0381229
-0.0366061
-0.0349183
-0.0330944
-0.0311143
-0.0290073
-0.0267549
-0.0243764
-0.0218628
-0.0192154
-0.0164371
-0.0134836
-0.0103417
-0.00685365
-0.00293902
0.00166718
0.00688382
0.0124679
0.0173189
0.0203982
0.0212278
0.0209955
0.020731
0.0277849
0.0273145
0.0265719
0.0250187
0.0228557
0.0197878
0.0161296
0.0118736
0.00743937
0.0029047
-0.00142477
-0.00558249
-0.00943716
-0.0131005
-0.0165165
-0.0197863
-0.0228619
-0.0258072
-0.028572
-0.0311915
-0.0336194
-0.0358739
-0.0379165
-0.0397548
-0.0413606
-0.042735
-0.0438615
-0.0447378
-0.0453603
-0.0457248
-0.0458411
-0.0457033
-0.0453341
-0.044725
-0.0439096
-0.042875
-0.0416631
-0.0402556
-0.0386983
-0.0369675
-0.0351082
-0.0330928
-0.0309604
-0.0286848
-0.0262937
-0.0237717
-0.0211279
-0.0183666
-0.0154562
-0.0124035
-0.00907059
-0.00540308
-0.00110441
0.00383954
0.00938989
0.0146804
0.0184401
0.0199707
0.0197205
0.0194762
0.0256915
0.0252537
0.0244662
0.0228925
0.0206783
0.0175925
0.013923
0.00969922
0.00531686
0.00086039
-0.00339182
-0.00747666
-0.0112791
-0.0149078
-0.0183112
-0.0215832
-0.0246758
-0.0276466
-0.030445
-0.0331017
-0.0355706
-0.0378658
-0.0399497
-0.0418258
-0.0434672
-0.0448706
-0.0460219
-0.0469138
-0.0475467
-0.0479108
-0.0480217
-0.0478674
-0.047478
-0.0468382
-0.0459906
-0.0449151
-0.0436639
-0.0422108
-0.040613
-0.0388381
-0.0369434
-0.0348919
-0.0327349
-0.0304361
-0.0280343
-0.025505
-0.0228664
-0.0201197
-0.0172439
-0.0142616
-0.0110519
-0.00759957
-0.00358998
0.00101425
0.00639397
0.0118493
0.0162182
0.0183864
0.0183363
0.0180273
0.023631
0.0232339
0.0224105
0.020833
0.0185877
0.0155093
0.0118508
0.00767758
0.00335562
-0.00102086
-0.00520117
-0.00921979
-0.0129773
-0.0165759
-0.019969
-0.0232424
-0.0263498
-0.0293418
-0.0321694
-0.0348578
-0.0373626
-0.0396931
-0.0418137
-0.0437226
-0.0453955
-0.0468237
-0.0479965
-0.0489006
-0.0495415
-0.0499028
-0.0500068
-0.0498343
-0.049424
-0.0487524
-0.0478729
-0.046756
-0.0454665
-0.0439675
-0.0423306
-0.0405117
-0.0385831
-0.0364958
-0.034316
-0.031995
-0.0295855
-0.0270508
-0.0244209
-0.0216891
-0.0188459
-0.0159223
-0.0128136
-0.00954476
-0.00579549
-0.00155317
0.00356385
0.00895155
0.0138006
0.0164868
0.0168465
0.0163891
0.0217264
0.0213802
0.0205324
0.0189686
0.0167116
0.013664
0.010036
0.0059286
0.0016733
-0.00262302
-0.0067373
-0.010697
-0.0144176
-0.0179919
-0.0213798
-0.0246574
-0.0277818
-0.030796
-0.0336539
-0.0363746
-0.0389165
-0.041283
-0.0434414
-0.045384
-0.0470901
-0.0485442
-0.0497405
-0.0506583
-0.0513096
-0.0516696
-0.0517693
-0.0515802
-0.0511516
-0.0504499
-0.049541
-0.0483842
-0.0470586
-0.0455148
-0.0438407
-0.0419783
-0.0400176
-0.0378944
-0.0356935
-0.0333503
-0.0309353
-0.0283959
-0.0257781
-0.0230619
-0.0202524
-0.0173803
-0.0143589
-0.0112454
-0.00772796
-0.00383796
0.000955334
0.00611038
0.0112517
0.0143322
0.0152021
0.0145717
0.0199603
0.0196708
0.0188071
0.0172671
0.0150094
0.0120042
0.00841371
0.00437491
0.000181585
-0.00404254
-0.00810159
-0.0120111
-0.0157019
-0.0192549
-0.0226378
-0.0259166
-0.0290537
-0.032084
-0.034966
-0.0377116
-0.0402839
-0.0426791
-0.0448692
-0.0468391
-0.0485732
-0.0500479
-0.051264
-0.0521916
-0.0528509
-0.0532072
-0.0533019
-0.0530949
-0.0526487
-0.0519166
-0.0509801
-0.0497837
-0.0484245
-0.046837
-0.0451283
-0.0432233
-0.0412331
-0.0390746
-0.036855
-0.0344898
-0.032072
-0.0295283
-0.0269262
-0.0242263
-0.0214536
-0.0186286
-0.0156878
-0.0127059
-0.00939599
-0.00583043
-0.00139616
0.00342402
0.0086456
0.0119991
0.0133547
0.0125947
0.0184408
0.0182164
0.0173485
0.0158453
0.0135993
0.0106496
0.00710572
0.00314027
-0.000992668
-0.00514986
-0.00916178
-0.0130289
-0.0166968
-0.0202331
-0.0236143
-0.0268959
-0.0300468
-0.0330932
-0.0359992
-0.0387694
-0.0413719
-0.0437954
-0.0460176
-0.0480146
-0.0497778
-0.0512737
-0.0525115
-0.0534502
-0.0541205
-0.0544752
-0.0545685
-0.0543464
-0.0538868
-0.0531274
-0.0521677
-0.0509349
-0.0495465
-0.0479176
-0.0461786
-0.0442327
-0.0422163
-0.0400234
-0.0377878
-0.0354005
-0.0329821
-0.0304336
-0.0278501
-0.0251661
-0.0224336
-0.0196524
-0.0167896
-0.0139206
-0.0107985
-0.00752255
-0.00346062
0.000969312
0.0060767
0.00957947
0.0113227
0.0105115
0.0171188
0.0169627
0.016099
0.0146385
0.012409
0.00951768
0.00601919
0.00212185
-0.00196092
-0.00606274
-0.0100396
-0.0138731
-0.0175242
-0.0210452
-0.0244238
-0.0277035
-0.0308623
-0.033917
-0.0368394
-0.0396251
-0.0422498
-0.0446928
-0.0469396
-0.0489559
-0.0507422
-0.0522529
-0.0535083
-0.0544536
-0.0551329
-0.0554834
-0.0555753
-0.0553371
-0.0548658
-0.0540795
-0.0530995
-0.0518316
-0.0504175
-0.0487491
-0.0469833
-0.0449981
-0.0429589
-0.0407322
-0.0384833
-0.0360734
-0.0336566
-0.0311021
-0.0285393
-0.0258696
-0.0231801
-0.0204395
-0.017654
-0.0148827
-0.0119321
-0.00891007
-0.00521517
-0.0011969
0.00364722
0.00717658
0.00919105
0.00840255
0.0160901
0.0160079
0.0151615
0.0137547
0.0115517
0.0087271
0.00527937
0.0014516
-0.00258381
-0.00663593
-0.0105849
-0.0143915
-0.0180313
-0.021541
-0.0249192
-0.0281982
-0.0313653
-0.0344277
-0.037366
-0.0401661
-0.0428124
-0.0452735
-0.0475447
-0.0495796
-0.0513897
-0.0529155
-0.0541905
-0.0551439
-0.0558356
-0.0561844
-0.0562797
-0.0560292
-0.055552
-0.054743
-0.053749
-0.05245
-0.0510166
-0.0493122
-0.0475254
-0.0455033
-0.043446
-0.0411866
-0.0389278
-0.0364948
-0.0340817
-0.0315191
-0.0289786
-0.0263203
-0.0236755
-0.0209714
-0.0182629
-0.0155768
-0.0127843
-0.00998266
-0.00663687
-0.00302799
0.00145496
0.00489872
0.00707764
0.00636044
0.0152708
0.0152619
0.0144421
0.0130936
0.0109208
0.00816274
0.00476319
0.000998618
-0.0029992
-0.00701242
-0.0109442
-0.0147316
-0.018365
-0.0218636
-0.0252395
-0.0285117
-0.0316806
-0.0347414
-0.037687
-0.0404911
-0.04315
-0.0456193
-0.0479069
-0.0499514
-0.051779
-0.0533128
-0.0546033
-0.0555598
-0.0562622
-0.0566068
-0.056706
-0.0564423
-0.0559616
-0.0551305
-0.0541263
-0.0527979
-0.0513495
-0.0496106
-0.0478072
-0.0457493
-0.0436777
-0.0413854
-0.0391194
-0.0366614
-0.0342535
-0.0316792
-0.0291613
-0.0265097
-0.0239096
-0.0212361
-0.0186033
-0.0159903
-0.0133438
-0.0107313
-0.00770879
-0.00448969
-0.000421437
0.00284377
0.00509367
0.00446876
0.0147524
0.014818
0.0140396
0.0127614
0.0106312
0.00794827
0.00460471
0.000907082
-0.00305204
-0.00702883
-0.0109473
-0.0147202
-0.0183515
-0.0218424
-0.0252181
-0.0284849
-0.031656
-0.0347151
-0.0376675
-0.0404745
-0.0431457
-0.0456219
-0.0479259
-0.0499792
-0.0518253
-0.0533672
-0.0546758
-0.0556369
-0.0563544
-0.0566976
-0.0568067
-0.0565341
-0.0560569
-0.0552087
-0.0542019
-0.0528488
-0.0513929
-0.0496237
-0.0478104
-0.0457193
-0.0436388
-0.0413143
-0.0390446
-0.03656
-0.0341587
-0.0315686
-0.0290731
-0.026422
-0.0238656
-0.0212151
-0.0186556
-0.0161037
-0.0135922
-0.0111401
-0.00841218
-0.0055523
-0.00192035
0.00109624
0.00333281
0.00280032
0.014413
0.0145463
0.0138201
0.0126179
0.010538
0.00793203
0.00464626
0.00101353
-0.00291134
-0.0068581
-0.0107705
-0.0145341
-0.0181667
-0.0216492
-0.0250222
-0.028277
-0.0314433
-0.0344906
-0.0374411
-0.04024
-0.0429144
-0.0453869
-0.0476995
-0.0497524
-0.0516111
-0.0531539
-0.054477
-0.0554377
-0.0561691
-0.0565081
-0.0566283
-0.0563457
-0.0558753
-0.0550102
-0.0540051
-0.0526282
-0.0511696
-0.0493706
-0.0475519
-0.0454274
-0.0433415
-0.0409828
-0.0387114
-0.0361961
-0.0338016
-0.0311891
-0.0287141
-0.0260546
-0.0235386
-0.0209006
-0.01841
-0.0159054
-0.0135175
-0.0111981
-0.00873505
-0.00619615
-0.00299988
-0.000278113
0.00186751
0.0014145
0.0143522
0.0145476
0.0138895
0.0127774
0.0107667
0.00825041
0.00503709
0.00147935
-0.00240232
-0.00631523
-0.01022
-0.0139759
-0.0176123
-0.0210897
-0.0244628
-0.0277079
-0.0308712
-0.0339077
-0.0368573
-0.0396481
-0.0423268
-0.0447951
-0.0471177
-0.04917
-0.0510437
-0.0525879
-0.0539292
-0.0548914
-0.0556421
-0.0559802
-0.0561186
-0.0558303
-0.0553748
-0.0544977
-0.053503
-0.0521069
-0.050654
-0.0488289
-0.047012
-0.0448557
-0.04277
-0.0403764
-0.0381068
-0.0355569
-0.0331697
-0.0305277
-0.0280712
-0.0253932
-0.0229135
-0.0202757
-0.0178483
-0.0153756
-0.0131006
-0.0108868
-0.00866077
-0.00640106
-0.00362623
-0.00122377
0.000760497
0.00036761
0.0144038
0.014647
0.0140683
0.0130538
0.0111278
0.00870886
0.00557837
0.00210206
-0.00173134
-0.00560862
-0.00950648
-0.0132557
-0.0168972
-0.0203674
-0.0237382
-0.0269666
-0.0301208
-0.0331364
-0.0360772
-0.038849
-0.0415242
-0.0439781
-0.0463045
-0.0483474
-0.0502317
-0.0517705
-0.053128
-0.0540866
-0.0548569
-0.0551908
-0.0553495
-0.0550539
-0.054617
-0.0537272
-0.0527474
-0.0513315
-0.0498889
-0.0480364
-0.0462256
-0.0440348
-0.0419521
-0.0395189
-0.0372518
-0.0346598
-0.0322786
-0.0295964
-0.0271544
-0.0244442
-0.0219946
-0.0193408
-0.0169691
-0.0145096
-0.0123356
-0.0101995
-0.00818315
-0.00615747
-0.00377929
-0.00169962
6.35817e-05
-0.000290181
0.014694
0.0149728
0.0144871
0.013585
0.0117704
0.00946785
0.00644364
0.00306759
-0.000698123
-0.00452676
-0.00840816
-0.0121473
-0.0157937
-0.0192596
-0.022632
-0.0258483
-0.0289978
-0.031996
-0.034932
-0.037687
-0.0403625
-0.0428038
-0.0451377
-0.0471728
-0.0490723
-0.0506074
-0.0519867
-0.0529444
-0.0537411
-0.0540744
-0.0542615
-0.0539629
-0.0535536
-0.0526554
-0.0516999
-0.0502679
-0.0488445
-0.0469669
-0.0451695
-0.0429443
-0.0408702
-0.038394
-0.0361324
-0.0334914
-0.0311158
-0.0283824
-0.0259513
-0.0231939
-0.0207681
-0.0180804
-0.015756
-0.0132892
-0.0112047
-0.00911818
-0.00728692
-0.00544968
-0.00343762
-0.00166655
-0.00016979
-0.000502918
0.0150029
0.0152988
0.0149127
0.0141311
0.0124506
0.0102809
0.00738346
0.00412563
0.000445206
-0.00332051
-0.00717624
-0.0108982
-0.0145467
-0.0180037
-0.0213754
-0.0245728
-0.0277133
-0.0306852
-0.033611
-0.0363397
-0.0390107
-0.0414303
-0.0437687
-0.0457883
-0.0477016
-0.0492271
-0.0506286
-0.0515808
-0.052406
-0.0527353
-0.0529544
-0.0526501
-0.0522728
-0.0513637
-0.0504373
-0.0489863
-0.0475867
-0.0456798
-0.0438996
-0.0416339
-0.0395703
-0.0370426
-0.0347862
-0.0320843
-0.0297114
-0.026911
-0.0244852
-0.0216614
-0.0192513
-0.0165074
-0.0142207
-0.0117222
-0.00971486
-0.00764722
-0.00597688
-0.00427953
-0.00259616
-0.00110091
0.000103821
-0.000221668
0.0155121
0.0158128
0.0155284
0.0148794
0.0133611
0.0113498
0.00860965
0.00549799
0.00193305
-0.00174519
-0.00555499
-0.00924825
-0.0128938
-0.016343
-0.0197192
-0.0229046
-0.0260448
-0.0289978
-0.0319221
-0.0346307
-0.0373053
-0.0397082
-0.0420587
-0.0440671
-0.0460021
-0.0475217
-0.0489537
-0.0499041
-0.0507667
-0.0510958
-0.0513563
-0.0510501
-0.0507147
-0.0497983
-0.0489108
-0.0474432
-0.0460763
-0.0441407
-0.0423852
-0.0400767
-0.038029
-0.0354437
-0.0331949
-0.0304213
-0.0280501
-0.0251672
-0.022742
-0.0198313
-0.0174295
-0.0146054
-0.0123473
-0.00979039
-0.0078494
-0.0057692
-0.00423933
-0.00263416
-0.00124089
2.4515e-05
0.000933143
0.000610846
0.0159322
0.0162234
0.0160347
0.0155242
0.0141899
0.0123626
0.0098087
0.00687429
0.00345601
-0.000103759
-0.00384413
-0.00748819
-0.01112
-0.0145508
-0.0179284
-0.0210949
-0.0242336
-0.0271608
-0.030083
-0.0327644
-0.0354428
-0.0378226
-0.0401868
-0.0421784
-0.0441381
-0.0456471
-0.0471138
-0.0480582
-0.0489634
-0.0492884
-0.0495959
-0.0492836
-0.048996
-0.0480673
-0.0472243
-0.0457341
-0.044405
-0.0424328
-0.0407057
-0.0383439
-0.0363139
-0.0336573
-0.0314155
-0.0285527
-0.0261798
-0.0231928
-0.0207623
-0.0177394
-0.0153381
-0.0124054
-0.0101673
-0.00752151
-0.00563715
-0.00350897
-0.0021006
-0.000535328
0.000610866
0.00170942
0.00234402
0.00203125
0.016541
0.016818
0.016709
0.0163388
0.0152044
0.0135883
0.0112524
0.00852978
0.00529618
0.0018913
-0.00174714
-0.00531864
-0.00892324
-0.0123316
-0.0157151
-0.0188713
-0.0220221
-0.024936
-0.0278714
-0.0305373
-0.0332338
-0.0356001
-0.0379912
-0.0399738
-0.0419703
-0.0434752
-0.0449882
-0.0459318
-0.0468908
-0.047216
-0.0475817
-0.0472669
-0.047038
-0.0460995
-0.0453115
-0.0437995
-0.0425177
-0.0405072
-0.0388165
-0.0363965
-0.0343898
-0.0316524
-0.0294201
-0.0264535
-0.0240777
-0.0209661
-0.0185258
-0.0153646
-0.0129571
-0.00988545
-0.00766027
-0.0048924
-0.00305796
-0.000845159
0.000454026
0.00202989
0.00296535
0.00396628
0.00436831
0.00408351
0.0169491
0.0172051
0.0171594
0.0169265
0.0160032
0.0146273
0.0125435
0.0100761
0.00707104
0.00387133
0.000376218
-0.00308209
-0.00663501
-0.00999829
-0.0133803
-0.0165164
-0.0196815
-0.0225778
-0.0255324
-0.0281799
-0.0309022
-0.0332524
-0.0356788
-0.0376497
-0.0396922
-0.0411898
-0.0427584
-0.0436977
-0.0447195
-0.0450402
-0.0454729
-0.0451493
-0.0449874
-0.0440312
-0.0433056
-0.0417618
-0.0405337
-0.0384724
-0.0368229
-0.034329
-0.0323483
-0.0295108
-0.0272883
-0.0241942
-0.0218137
-0.0185496
-0.016096
-0.012765
-0.0103476
-0.00710258
-0.00488822
-0.00196145
-0.000176233
0.00216315
0.00336018
0.00500535
0.00576595
0.00675551
0.00698847
0.00676425
0.0175812
0.0178181
0.0178119
0.0176982
0.0169772
0.0158551
0.0140471
0.0118693
0.00913242
0.0061825
0.00287385
-0.000433926
-0.00390971
-0.00721377
-0.0105942
-0.0137172
-0.0169136
-0.0198092
-0.0228061
-0.0254535
-0.0282242
-0.030574
-0.033056
-0.0350277
-0.0371338
-0.0386338
-0.0402737
-0.0412157
-0.0423147
-0.042636
-0.0431489
-0.04282
-0.0427373
-0.0417651
-0.0411134
-0.0395373
-0.0383731
-0.0362579
-0.0346581
-0.0320832
-0.0301348
-0.027185
-0.0249757
-0.021736
-0.019351
-0.0159097
-0.0134405
-0.00990832
-0.00747779
-0.00402233
-0.00181714
0.00130976
0.0030433
0.00555452
0.00664613
0.00841736
0.00901949
0.0100803
0.0102066
0.0100872
0.0178937
0.0181058
0.0181279
0.0181181
0.0175971
0.01675
0.0152519
0.0134168
0.0110026
0.00837208
0.00530989
0.00221864
-0.00113627
-0.00433785
-0.0076995
-0.0107904
-0.0140216
-0.0169125
-0.0199657
-0.0226146
-0.0254515
-0.0278034
-0.0303591
-0.0323327
-0.0345198
-0.0360211
-0.0377484
-0.0386896
-0.0398805
-0.0401962
-0.0408024
-0.0404592
-0.0404677
-0.0394675
-0.0389004
-0.037277
-0.0361862
-0.0339985
-0.0324566
-0.0297783
-0.0278687
-0.0247802
-0.022589
-0.019173
-0.0167874
-0.0131342
-0.010654
-0.0068827
-0.00444637
-0.000739951
0.0014434
0.00481458
0.00647834
0.00921394
0.0101839
0.012154
0.0126072
0.013847
0.0139367
0.0139837
0.0185244
0.0187167
0.0187473
0.0188072
0.0184469
0.0178569
0.0166688
0.0151984
0.0131387
0.0108719
0.00810256
0.00527583
0.00207882
-0.000992146
-0.00432545
-0.00738372
-0.0106655
-0.0135695
-0.016708
-0.0193825
-0.0223169
-0.0246933
-0.0273513
-0.029345
-0.0316377
-0.033154
-0.0349894
-0.0359397
-0.0372401
-0.037557
-0.038272
-0.0379187
-0.038032
-0.0370057
-0.0365355
-0.0348643
-0.0338578
-0.0315939
-0.0301192
-0.0273302
-0.0254666
-0.0222271
-0.0200591
-0.0164483
-0.0140653
-0.0101743