/*--------------------------------*- C++ -*----------------------------------*\
| =========                 |                                                 |
| \\      /  F ield         | OpenFOAM: The Open Source CFD Toolbox           |
|  \\    /   O peration     | Version:  2406                                  |
|   \\  /    A nd           | Website:  www.openfoam.com                      |
|    \\/     M anipulation  |                                                 |
\*---------------------------------------------------------------------------*/
FoamFile
{
    version     2.0;
    format      ascii;
    arch        "LSB;label=32;scalar=64";
    class       volVectorField;
    location    "7";
    object      Uold;
}
// * * * * * * * * * * * * * * * * * * * * * * * * * * * * * * * * * * * * * //

dimensions      [0 1 -1 0 0 0 0];

internalField   nonuniform List<vector> 
3600
(
(9.52343e-06 -9.11264e-06 0)
(-3.27597e-05 2.23354e-05 0)
(-0.000158587 4.6368e-05 0)
(-0.000333795 6.3189e-05 0)
(-0.00054832 6.99894e-05 0)
(-0.000774571 7.32188e-05 0)
(-0.00101135 7.31385e-05 0)
(-0.00124624 7.26149e-05 0)
(-0.00148198 7.13666e-05 0)
(-0.00171346 7.03969e-05 0)
(-0.00194333 6.92888e-05 0)
(-0.00216918 6.83698e-05 0)
(-0.00239245 6.73222e-05 0)
(-0.00261159 6.62542e-05 0)
(-0.00282699 6.49629e-05 0)
(-0.0030373 6.34781e-05 0)
(-0.00324213 6.1668e-05 0)
(-0.00344008 5.95241e-05 0)
(-0.0036302 5.69509e-05 0)
(-0.0038109 5.39191e-05 0)
(-0.00398079 5.0354e-05 0)
(-0.00413806 4.622e-05 0)
(-0.00428097 4.1462e-05 0)
(-0.00440752 3.60535e-05 0)
(-0.00451575 2.99668e-05 0)
(-0.00460359 2.32014e-05 0)
(-0.00466905 1.57693e-05 0)
(-0.00471021 7.71286e-06 0)
(-0.00472533 -9.02851e-07 0)
(-0.00471292 -9.98005e-06 0)
(-0.00467183 -1.93931e-05 0)
(-0.00460131 -2.89853e-05 0)
(-0.00450113 -3.85745e-05 0)
(-0.00437161 -4.79564e-05 0)
(-0.00421367 -5.69131e-05 0)
(-0.0040289 -6.52212e-05 0)
(-0.00381949 -7.26639e-05 0)
(-0.00358823 -7.90413e-05 0)
(-0.00333846 -8.41834e-05 0)
(-0.00307392 -8.79594e-05 0)
(-0.00279869 -9.02873e-05 0)
(-0.00251702 -9.11384e-05 0)
(-0.00223316 -9.05403e-05 0)
(-0.00195125 -8.85721e-05 0)
(-0.00167516 -8.53602e-05 0)
(-0.0014084 -8.10629e-05 0)
(-0.00115403 -7.58593e-05 0)
(-0.000914644 -6.99223e-05 0)
(-0.000692459 -6.3405e-05 0)
(-0.000489325 -5.64014e-05 0)
(-0.000307104 -4.89399e-05 0)
(-0.00014753 -4.09328e-05 0)
(-1.3206e-05 -3.22068e-05 0)
(9.34746e-05 -2.24559e-05 0)
(0.000167927 -1.13981e-05 0)
(0.000207599 1.2072e-06 0)
(0.000206287 1.48821e-05 0)
(0.000167824 2.78224e-05 0)
(9.32391e-05 3.38995e-05 0)
(2.09442e-05 2.15625e-05 0)
(-2.27013e-05 3.31086e-05 0)
(-0.000195554 0.000191429 0)
(-0.000534054 0.000312249 0)
(-0.000970061 0.000399705 0)
(-0.00149086 0.000445973 0)
(-0.00204615 0.000471216 0)
(-0.00262975 0.000479319 0)
(-0.00321682 0.000480854 0)
(-0.00380815 0.000477322 0)
(-0.00439309 0.000472655 0)
(-0.00497401 0.000466589 0)
(-0.00554595 0.000460239 0)
(-0.00611026 0.000452912 0)
(-0.00666374 0.000444782 0)
(-0.00720622 0.000435233 0)
(-0.00773479 0.000424152 0)
(-0.00824799 0.00041105 0)
(-0.00874267 0.000395713 0)
(-0.0092163 0.000377735 0)
(-0.00966531 0.000356867 0)
(-0.0100863 0.000332771 0)
(-0.0104753 0.000305217 0)
(-0.0108281 0.000273962 0)
(-0.0111405 0.000238864 0)
(-0.011408 0.00019983 0)
(-0.0116262 0.000156889 0)
(-0.0117908 0.000110169 0)
(-0.0118977 5.99459e-05 0)
(-0.0119434 6.63476e-06 0)
(-0.0119248 -4.91858e-05 0)
(-0.0118397 -0.000106785 0)
(-0.0116865 -0.000165278 0)
(-0.0114652 -0.000223651 0)
(-0.0111763 -0.000280787 0)
(-0.0108222 -0.000335505 0)
(-0.0104061 -0.000386607 0)
(-0.0099328 -0.000432933 0)
(-0.009408 -0.000473422 0)
(-0.00883866 -0.000507164 0)
(-0.00823254 -0.000533452 0)
(-0.00759803 -0.000551825 0)
(-0.0069439 -0.000562088 0)
(-0.00627897 -0.000564326 0)
(-0.00561191 -0.000558882 0)
(-0.00495093 -0.000546323 0)
(-0.00430362 -0.000527374 0)
(-0.0036768 -0.000502843 0)
(-0.00307655 -0.000473497 0)
(-0.00250832 -0.000439966 0)
(-0.00197711 -0.000402569 0)
(-0.001488 -0.000361273 0)
(-0.00104628 -0.000315476 0)
(-0.000658693 -0.00026427 0)
(-0.000332282 -0.00020623 0)
(-7.69072e-05 -0.000140586 0)
(0.000100266 -6.70679e-05 0)
(0.000189353 1.03264e-05 0)
(0.000195416 8.28659e-05 0)
(0.000124767 0.000124844 0)
(3.24022e-05 9.25816e-05 0)
(-5.16569e-05 0.000166926 0)
(-0.000339884 0.000538358 0)
(-0.00086183 0.000818438 0)
(-0.00150813 0.00101866 0)
(-0.00226792 0.00113512 0)
(-0.00307474 0.00120054 0)
(-0.00392177 0.00122736 0)
(-0.00477614 0.00123498 0)
(-0.0056376 0.00122969 0)
(-0.00649151 0.00121907 0)
(-0.00733958 0.00120432 0)
(-0.00817476 0.00118742 0)
(-0.00899782 0.00116773 0)
(-0.00980415 0.00114529 0)
(-0.0105929 0.00111914 0)
(-0.0113598 0.00108879 0)
(-0.0121025 0.00105331 0)
(-0.0128165 0.0010121 0)
(-0.0134981 0.000964309 0)
(-0.0141422 0.000909313 0)
(-0.0147441 0.000846408 0)
(-0.0152981 0.000775057 0)
(-0.0157988 0.000694775 0)
(-0.0162403 0.000605273 0)
(-0.0166165 0.000506424 0)
(-0.0169218 0.000398362 0)
(-0.0171504 0.000281479 0)
(-0.0172973 0.000156494 0)
(-0.0173579 2.4457e-05 0)
(-0.0173284 -0.000113222 0)
(-0.0172062 -0.00025479 0)
(-0.0169898 -0.000398159 0)
(-0.0166792 -0.000540967 0)
(-0.016276 -0.00068063 0)
(-0.0157831 -0.000814445 0)
(-0.0152054 -0.000939686 0)
(-0.0145492 -0.00105373 0)
(-0.0138225 -0.00115419 0)
(-0.0130342 -0.00123901 0)
(-0.0121947 -0.0013066 0)
(-0.0113149 -0.00135591 0)
(-0.0104063 -0.0013865 0)
(-0.00948027 -0.00139849 0)
(-0.00854815 -0.00139262 0)
(-0.00762059 -0.00137006 0)
(-0.0067075 -0.00133236 0)
(-0.00581789 -0.00128119 0)
(-0.00495988 -0.00121812 0)
(-0.00414085 -0.00114436 0)
(-0.00336781 -0.00106042 0)
(-0.00264789 -0.000965967 0)
(-0.00198879 -0.000859439 0)
(-0.00139978 -0.000738611 0)
(-0.000891131 -0.00060041 0)
(-0.000475587 -0.000443417 0)
(-0.000163919 -0.000268032 0)
(3.25634e-05 -8.39478e-05 0)
(0.000116457 8.93529e-05 0)
(9.72505e-05 0.00020112 0)
(2.83643e-05 0.000169016 0)
(-7.58761e-05 0.000367457 0)
(-0.000463533 0.0010139 0)
(-0.00113954 0.00148476 0)
(-0.00195508 0.00181297 0)
(-0.00290219 0.00201034 0)
(-0.00390147 0.00212291 0)
(-0.00494861 0.00217339 0)
(-0.0060049 0.00218964 0)
(-0.00707054 0.00218337 0)
(-0.00812763 0.00216588 0)
(-0.00917757 0.00214023 0)
(-0.0102113 0.00210941 0)
(-0.0112292 0.00207297 0)
(-0.0122251 0.00203093 0)
(-0.0131977 0.00198196 0)
(-0.0141415 0.00192522 0)
(-0.0150533 0.00185933 0)
(-0.0159276 0.00178321 0)
(-0.0167598 0.0016956 0)
(-0.0175436 0.00159544 0)
(-0.0182732 0.00148166 0)
(-0.0189422 0.00135342 0)
(-0.0195437 0.00121001 0)
(-0.020071 0.00105105 0)
(-0.0205171 0.000876461 0)
(-0.0208755 0.000686578 0)
(-0.0211397 0.000482191 0)
(-0.021304 0.000264621 0)
(-0.0213634 3.57326e-05 0)
(-0.021314 -0.000202031 0)
(-0.0211531 -0.000445674 0)
(-0.0208795 -0.000691684 0)
(-0.0204937 -0.000936114 0)
(-0.0199978 -0.0011747 0)
(-0.0193959 -0.00140299 0)
(-0.018694 -0.00161656 0)
(-0.0178998 -0.00181114 0)
(-0.0170229 -0.00198289 0)
(-0.0160739 -0.00212852 0)
(-0.015065 -0.00224552 0)
(-0.0140091 -0.00233222 0)
(-0.0129193 -0.00238795 0)
(-0.0118089 -0.00241297 0)
(-0.010691 -0.00240845 0)
(-0.00957765 -0.00237631 0)
(-0.00848031 -0.00231901 0)
(-0.00740921 -0.00223916 0)
(-0.00637365 -0.0021392 0)
(-0.00538207 -0.00202094 0)
(-0.00444251 -0.00188502 0)
(-0.00356312 -0.00173066 0)
(-0.00275283 -0.00155527 0)
(-0.00202201 -0.00135509 0)
(-0.00138251 -0.00112547 0)
(-0.000847955 -0.00086418 0)
(-0.000431096 -0.000572872 0)
(-0.000143077 -0.000266418 0)
(1.53605e-05 2.42379e-05 0)
(5.53508e-05 0.000226645 0)
(2.03759e-05 0.000220639 0)
(-9.16584e-05 0.000629646 0)
(-0.000554344 0.00161489 0)
(-0.00135273 0.00231141 0)
(-0.00230328 0.0027854 0)
(-0.00339895 0.00307458 0)
(-0.00454822 0.00324024 0)
(-0.00574957 0.00331807 0)
(-0.00695962 0.00334439 0)
(-0.00817994 0.00333716 0)
(-0.00939018 0.00331139 0)
(-0.010592 0.00327235 0)
(-0.0117748 0.00322405 0)
(-0.0129385 0.00316641 0)
(-0.0140762 0.00309935 0)
(-0.0151856 0.00302128 0)
(-0.0162606 0.00293092 0)
(-0.0172973 0.00282643 0)
(-0.0182892 0.00270625 0)
(-0.0192311 0.00256863 0)
(-0.0201158 0.00241208 0)
(-0.0209369 0.00223512 0)
(-0.0216869 0.00203663 0)
(-0.0223584 0.0018157 0)
(-0.0229438 0.0015719 0)
(-0.0234355 0.00130525 0)
(-0.0238263 0.00101641 0)
(-0.0241093 0.000706664 0)
(-0.0242783 0.000378102 0)
(-0.024328 3.35805e-05 0)
(-0.0242545 -0.000323215 0)
(-0.0240551 -0.00068782 0)
(-0.0237287 -0.00105504 0)
(-0.0232763 -0.00141909 0)
(-0.0227007 -0.00177375 0)
(-0.0220069 -0.00211256 0)
(-0.0212018 -0.00242913 0)
(-0.0202944 -0.00271734 0)
(-0.0192957 -0.00297167 0)
(-0.018218 -0.00318747 0)
(-0.0170751 -0.00336118 0)
(-0.0158815 -0.00349051 0)
(-0.0146522 -0.00357458 0)
(-0.0134021 -0.00361387 0)
(-0.0121456 -0.00361014 0)
(-0.0108963 -0.00356623 0)
(-0.00966656 -0.00348569 0)
(-0.00846765 -0.0033723 0)
(-0.0073095 -0.00322955 0)
(-0.00620104 -0.00305992 0)
(-0.00515068 -0.00286431 0)
(-0.00416676 -0.00264147 0)
(-0.00325847 -0.00238777 0)
(-0.00243623 -0.00209771 0)
(-0.00171232 -0.00176515 0)
(-0.00110026 -0.0013868 0)
(-0.000613869 -0.000965936 0)
(-0.000263901 -0.000522078 0)
(-5.41525e-05 -9.82783e-05 0)
(2.71699e-05 0.000213722 0)
(1.52856e-05 0.000255729 0)
(-0.00010361 0.000928722 0)
(-0.000624528 0.00229807 0)
(-0.00151789 0.003243 0)
(-0.00257367 0.0038719 0)
(-0.00378459 0.00425627 0)
(-0.00504902 0.00447578 0)
(-0.00636789 0.00458109 0)
(-0.00769414 0.00461708 0)
(-0.00903097 0.00460824 0)
(-0.0103561 0.00457297 0)
(-0.0116719 0.00451878 0)
(-0.0129663 0.00445059 0)
(-0.0142394 0.00436871 0)
(-0.015483 0.00427296 0)
(-0.0166949 0.00416148 0)
(-0.017868 0.00403258 0)
(-0.0189979 0.00388395 0)
(-0.0200776 0.00371355 0)
(-0.0211011 0.00351914 0)
(-0.0220608 0.0032988 0)
(-0.0229495 0.00305069 0)
(-0.023759 0.00277338 0)
(-0.0244815 0.00246582 0)
(-0.0251086 0.00212755 0)
(-0.0256324 0.00175875 0)
(-0.0260448 0.00136044 0)
(-0.0263386 0.000934526 0)
(-0.0265071 0.000483918 0)
(-0.0265448 1.25846e-05 0)
(-0.0264473 -0.000474428 0)
(-0.026212 -0.000971042 0)
(-0.0258379 -0.00147024 0)
(-0.025326 -0.00196421 0)
(-0.0246798 -0.00244459 0)
(-0.0239048 -0.00290276 0)
(-0.023009 -0.00333015 0)
(-0.0220025 -0.00371861 0)
(-0.0208978 -0.00406083 0)
(-0.0197087 -0.00435065 0)
(-0.0184508 -0.00458342 0)
(-0.0171406 -0.0047562 0)
(-0.0157947 -0.00486796 0)
(-0.0144298 -0.0049195 0)
(-0.0130622 -0.00491336 0)
(-0.0117066 -0.00485348 0)
(-0.0103768 -0.00474478 0)
(-0.00908466 -0.00459243 0)
(-0.00784064 -0.00440122 0)
(-0.00665388 -0.00417452 0)
(-0.00553268 -0.00391372 0)
(-0.00448508 -0.00361717 0)
(-0.00351979 -0.00328038 0)
(-0.00264662 -0.00289611 0)
(-0.00187732 -0.0024568 0)
(-0.0012247 -0.00195779 0)
(-0.000702565 -0.00140392 0)
(-0.000321181 -0.000818262 0)
(-8.58831e-05 -0.000255516 0)
(1.52616e-05 0.000175608 0)
(1.34664e-05 0.000279353 0)
(-0.000111462 0.00126153 0)
(-0.000674766 0.00305499 0)
(-0.00163967 0.00427017 0)
(-0.00277608 0.00506484 0)
(-0.00407591 0.00554921 0)
(-0.00542903 0.0058242 0)
(-0.00683803 0.00595733 0)
(-0.0082528 0.00600259 0)
(-0.00967804 0.00599136 0)
(-0.0110902 0.00594538 0)
(-0.0124921 0.00587448 0)
(-0.0138711 0.00578435 0)
(-0.0152273 0.00567571 0)
(-0.0165518 0.00554824 0)
(-0.0178423 0.00539981 0)
(-0.0190911 0.00522826 0)
(-0.0202936 0.00503084 0)
(-0.021442 0.00480496 0)
(-0.0225301 0.00454792 0)
(-0.0235497 0.00425732 0)
(-0.0244931 0.00393093 0)
(-0.0253517 0.00356703 0)
(-0.0261169 0.00316437 0)
(-0.0267798 0.00272249 0)
(-0.0273318 0.00224173 0)
(-0.0277643 0.00172348 0)
(-0.0280694 0.0011703 0)
(-0.0282397 0.000585987 0)
(-0.0282691 -2.42977e-05 0)
(-0.0281528 -0.000654031 0)
(-0.0278876 -0.00129537 0)
(-0.0274724 -0.00193928 0)
(-0.0269081 -0.0025757 0)
(-0.0261984 -0.00319387 0)
(-0.0253491 -0.00378267 0)
(-0.0243693 -0.00433108 0)
(-0.0232701 -0.00482859 0)
(-0.0220654 -0.00526581 0)
(-0.020771 -0.00563482 0)
(-0.0194044 -0.00592971 0)
(-0.0179843 -0.0061468 0)
(-0.0165298 -0.00628491 0)
(-0.0150597 -0.00634528 0)
(-0.0135922 -0.00633145 0)
(-0.012144 -0.00624875 0)
(-0.0107301 -0.00610385 0)
(-0.00936335 -0.00590368 0)
(-0.00805469 -0.00565475 0)
(-0.00681328 -0.00536169 0)
(-0.00564701 -0.00502666 0)
(-0.00456324 -0.00464787 0)
(-0.00356968 -0.00422013 0)
(-0.00267511 -0.00373447 0)
(-0.00189011 -0.00318197 0)
(-0.00122662 -0.00255634 0)
(-0.000697539 -0.00186389 0)
(-0.000312827 -0.0011308 0)
(-7.73709e-05 -0.000423422 0)
(2.0879e-05 0.000132668 0)
(1.49909e-05 0.000302767 0)
(-0.000117512 0.00161371 0)
(-0.000712866 0.00385863 0)
(-0.00173158 0.00535909 0)
(-0.00292929 0.00632653 0)
(-0.00429699 0.0069131 0)
(-0.00571797 0.00724361 0)
(-0.00719596 0.00740383 0)
(-0.00867846 0.00745747 0)
(-0.0101715 0.00744303 0)
(-0.0116504 0.00738555 0)
(-0.0131189 0.00729708 0)
(-0.0145637 0.00718401 0)
(-0.0159851 0.00704741 0)
(-0.0173738 0.00688675 0)
(-0.0187275 0.00669961 0)
(-0.0200381 0.00648336 0)
(-0.0213007 0.00623474 0)
(-0.0225073 0.00595063 0)
(-0.0236513 0.00562782 0)
(-0.024724 0.00526339 0)
(-0.0257173 0.0048547 0)
(-0.0266221 0.00439968 0)
(-0.0274291 0.00389686 0)
(-0.0281289 0.0033457 0)
(-0.0287119 0.00274666 0)
(-0.0291689 0.0021015 0)
(-0.0294909 0.00141336 0)
(-0.0296698 0.000686936 0)
(-0.0296985 -7.1394e-05 0)
(-0.0295712 -0.000853567 0)
(-0.0292839 -0.00164987 0)
(-0.0288348 -0.00244906 0)
(-0.0282244 -0.00323862 0)
(-0.0274562 -0.00400509 0)
(-0.0265364 -0.00473453 0)
(-0.0254746 -0.00541304 0)
(-0.0242831 -0.00602741 0)
(-0.0229775 -0.00656574 0)
(-0.0215758 -0.00701805 0)
(-0.0200978 -0.00737688 0)
(-0.0185651 -0.00763768 0)
(-0.0169997 -0.00779911 0)
(-0.0154232 -0.00786296 0)
(-0.0138565 -0.00783404 0)
(-0.0123186 -0.00771947 0)
(-0.010826 -0.00752812 0)
(-0.00939309 -0.00726921 0)
(-0.0080311 -0.00695152 0)
(-0.00674921 -0.00658141 0)
(-0.00555462 -0.00616229 0)
(-0.00445374 -0.00569251 0)
(-0.00345273 -0.00516646 0)
(-0.00255906 -0.00457347 0)
(-0.00178145 -0.00390324 0)
(-0.00113083 -0.00314763 0)
(-0.000618234 -0.0023142 0)
(-0.000253309 -0.00143195 0)
(-3.83789e-05 -0.00057899 0)
(3.89588e-05 0.000101218 0)
(1.85545e-05 0.000332921 0)
(-0.000121688 0.00198412 0)
(-0.000740609 0.00470333 0)
(-0.00179972 0.00650217 0)
(-0.00304411 0.00764956 0)
(-0.00446405 0.00834146 0)
(-0.00593771 0.00872861 0)
(-0.00746956 0.00891601 0)
(-0.0090052 0.00897782 0)
(-0.0105517 0.00895991 0)
(-0.0120838 0.00889068 0)
(-0.0136059 0.00878444 0)
(-0.0151043 0.00864816 0)
(-0.0165797 0.00848328 0)
(-0.0180227 0.00828894 0)
(-0.0194309 0.00806245 0)
(-0.020796 0.00780062 0)
(-0.0221131 0.00749966 0)
(-0.023374 0.00715587 0)
(-0.0245717 0.00676545 0)
(-0.0256971 0.00632492 0)
(-0.0267419 0.00583112 0)
(-0.0276962 0.00528154 0)
(-0.0285502 0.00467441 0)
(-0.0292935 0.00400898 0)
(-0.0299158 0.00328575 0)
(-0.0304066 0.0025067 0)
(-0.0307558 0.00167549 0)
(-0.0309539 0.000797674 0)
(-0.0309925 -0.000119182 0)
(-0.0308642 -0.00106543 0)
(-0.0305639 -0.00202934 0)
(-0.0300884 -0.00299729 0)
(-0.0294375 -0.00395398 0)
(-0.028614 -0.00488284 0)
(-0.0276242 -0.00576663 0)
(-0.0264781 -0.00658804 0)
(-0.0251894 -0.00733053 0)
(-0.0237754 -0.00797914 0)
(-0.0222568 -0.00852128 0)
(-0.0206565 -0.00894754 0)
(-0.0189996 -0.00925223 0)
(-0.0173117 -0.00943376 0)
(-0.0156184 -0.00949463 0)
(-0.0139438 -0.00944124 0)
(-0.01231 -0.00928301 0)
(-0.0107359 -0.00903167 0)
(-0.00923713 -0.00869947 0)
(-0.00782566 -0.00829816 0)
(-0.00651056 -0.00783653 0)
(-0.00529795 -0.0073198 0)
(-0.00419299 -0.0067469 0)
(-0.00319973 -0.00611203 0)
(-0.00232398 -0.00540291 0)
(-0.00157194 -0.00460779 0)
(-0.000953388 -0.00371657 0)
(-0.000476564 -0.00273798 0)
(-0.000150778 -0.00170407 0)
(2.61755e-05 -0.000705405 0)
(6.74483e-05 9.4499e-05 0)
(2.37567e-05 0.00037579 0)
(-0.000125074 0.00236527 0)
(-0.00076228 0.00557459 0)
(-0.00185244 0.00768116 0)
(-0.00313305 0.00901362 0)
(-0.00459383 0.00981298 0)
(-0.00610912 0.0102575 0)
(-0.007684 0.0104722 0)
(-0.00926262 0.0105422 0)
(-0.010853 0.010521 0)
(-0.0124294 0.0104405 0)
(-0.0139969 0.0103171 0)
(-0.0155417 0.0101584 0)
(-0.0170649 0.0099661 0)
(-0.0185571 0.00973903 0)
(-0.020016 0.00947411 0)
(-0.0214333 0.00916756 0)
(-0.0228041 0.00881503 0)
(-0.0241199 0.00841211 0)
(-0.0253737 0.00795438 0)
(-0.026556 0.00743767 0)
(-0.027658 0.00685822 0)
(-0.0286692 0.00621292 0)
(-0.0295791 0.00549951 0)
(-0.0303763 0.00471693 0)
(-0.0310492 0.00386549 0)
(-0.0315861 0.00294725 0)
(-0.0319752 0.00196623 0)
(-0.0322052 0.000928692 0)
(-0.0322658 -0.000156664 0)
(-0.0321477 -0.00127859 0)
(-0.0318438 -0.00242328 0)
(-0.0313492 -0.00357448 0)
(-0.0306622 -0.00471375 0)
(-0.0297846 -0.00582096 0)
(-0.0287223 -0.00687493 0)
(-0.0274857 -0.00785425 0)
(-0.0260899 -0.00873825 0)
(-0.0245544 -0.00950811 0)
(-0.0229028 -0.0101479 0)
(-0.0211622 -0.0106458 0)
(-0.019362 -0.0109944 0)
(-0.0175328 -0.0111919 0)
(-0.0157049 -0.0112415 0)
(-0.013907 -0.0111517 0)
(-0.0121651 -0.010935 0)
(-0.0105008 -0.0106068 0)
(-0.00893185 -0.0101832 0)
(-0.00747078 -0.00968015 0)
(-0.0061264 -0.00910956 0)
(-0.00490335 -0.00847928 0)
(-0.00380501 -0.00778931 0)
(-0.00283256 -0.007034 0)
(-0.00198969 -0.00619947 0)
(-0.00127926 -0.00527249 0)
(-0.000709598 -0.00424079 0)
(-0.000285185 -0.00311418 0)
(-1.48333e-05 -0.00192823 0)
(0.000109907 -0.00078691 0)
(0.000103269 0.00012356 0)
(2.99209e-05 0.000435664 0)
(-0.000127639 0.00275698 0)
(-0.000779127 0.00646977 0)
(-0.00189384 0.00889209 0)
(-0.00320335 0.0104145 0)
(-0.00469712 0.0113239 0)
(-0.00624654 0.0118272 0)
(-0.00785721 0.0120701 0)
(-0.00947226 0.0121492 0)
(-0.0111005 0.0121257 0)
(-0.0127159 0.012035 0)
(-0.0143243 0.0118959 0)
(-0.015912 0.0117165 0)
(-0.0174805 0.0114987 0)
(-0.0190204 0.0112409 0)
(-0.0205298 0.0109396 0)
(-0.0220003 0.0105905 0)
(-0.0234273 0.0101884 0)
(-0.0248021 0.00972831 0)
(-0.0261176 0.00920492 0)
(-0.027364 0.0086133 0)
(-0.028532 0.00794889 0)
(-0.0296105 0.00720782 0)
(-0.030588 0.00638713 0)
(-0.0314521 0.00548518 0)
(-0.0321898 0.00450187 0)
(-0.0327874 0.00343907 0)
(-0.0332314 0.00230093 0)
(-0.0335081 0.00109424 0)
(-0.0336046 -0.000171324 0)
(-0.0335091 -0.00148295 0)
(-0.0332119 -0.00282465 0)
(-0.0327055 -0.00417729 0)
(-0.0319861 -0.0055189 0)
(-0.031054 -0.00682516 0)
(-0.0299142 -0.00807014 0)
(-0.0285774 -0.00922737 0)
(-0.02706 -0.010271 0)
(-0.025384 -0.0111773 0)
(-0.023577 -0.011926 0)
(-0.0216708 -0.0125018 0)
(-0.0197009 -0.0128954 0)
(-0.0177038 -0.0131041 0)
(-0.0157164 -0.0131325 0)
(-0.0137731 -0.0129915 0)
(-0.0119049 -0.0126974 0)
(-0.0101372 -0.0122707 0)
(-0.00849009 -0.0117328 0)
(-0.0069767 -0.0111048 0)
(-0.00560533 -0.0104031 0)
(-0.00437846 -0.00963918 0)
(-0.00329694 -0.00881468 0)
(-0.00235815 -0.00792442 0)
(-0.00156287 -0.00695302 0)
(-0.000909674 -0.00588553 0)
(-0.000405016 -0.00470739 0)
(-4.86695e-05 -0.00342947 0)
(0.000151226 -0.00209144 0)
(0.000210833 -0.000812105 0)
(0.000145721 0.00019663 0)
(3.69966e-05 0.000515641 0)
(-0.000129886 0.00315563 0)
(-0.000793268 0.00738185 0)
(-0.00192825 0.0101261 0)
(-0.0032618 0.0118424 0)
(-0.00478323 0.012864 0)
(-0.00636173 0.0134276 0)
(-0.00800346 0.0136998 0)
(-0.0096508 0.0137893 0)
(-0.0113133 0.013765 0)
(-0.012965 0.0136662 0)
(-0.0146123 0.0135137 0)
(-0.0162416 0.0133162 0)
(-0.0178551 0.0130758 0)
(-0.0194436 0.0127905 0)
(-0.0210055 0.0124564 0)
(-0.0225326 0.0120682 0)
(-0.0240204 0.0116203 0)
(-0.0254603 0.0111065 0)
(-0.0268451 0.0105209 0)
(-0.0281647 0.0098574 0)
(-0.0294094 0.00911053 0)
(-0.0305674 0.00827539 0)
(-0.0316263 0.00734807 0)
(-0.0325721 0.00632601 0)
(-0.0333904 0.00520838 0)
(-0.0340653 0.00399653 0)
(-0.0345809 0.0026944 0)
(-0.0349207 0.001309 0)
(-0.0350686 -0.000149209 0)
(-0.0350096 -0.00166599 0)
(-0.0347302 -0.00322312 0)
(-0.03422 -0.00479836 0)
(-0.0334719 -0.00636573 0)
(-0.032484 -0.00789597 0)
(-0.0312599 -0.00935745 0)
(-0.0298102 -0.0107174 0)
(-0.0281526 -0.0119434 0)
(-0.0263122 -0.0130054 0)
(-0.0243212 -0.0138774 0)
(-0.0222176 -0.0145395 0)
(-0.0200441 -0.0149794 0)
(-0.0178454 -0.0151939 0)
(-0.0156666 -0.0151883 0)
(-0.0135495 -0.0149772 0)
(-0.0115317 -0.014582 0)
(-0.00964346 -0.0140296 0)
(-0.00790766 -0.0133485 0)
(-0.00633811 -0.0125668 0)
(-0.00494212 -0.0117071 0)
(-0.00371903 -0.0107854 0)
(-0.00266612 -0.00980601 0)
(-0.00177562 -0.00876455 0)
(-0.00104432 -0.00764404 0)
(-0.00046531 -0.00642756 0)
(-4.25451e-05 -0.00509785 0)
(0.000229899 -0.00366679 0)
(0.000344715 -0.00217873 0)
(0.000327033 -0.000768866 0)
(0.000193829 0.000321978 0)
(4.47757e-05 0.000618811 0)
(-0.000131769 0.00356133 0)
(-0.000805252 0.00830987 0)
(-0.00195763 0.0113817 0)
(-0.00331194 0.0132954 0)
(-0.00485754 0.0144317 0)
(-0.0064619 0.0150575 0)
(-0.00813174 0.0153608 0)
(-0.00980898 0.0154626 0)
(-0.011504 0.0154399 0)
(-0.0131907 0.0153356 0)
(-0.0148764 0.0151728 0)
(-0.0165478 0.0149608 0)
(-0.0182076 0.0147017 0)
(-0.0198469 0.0143932 0)
(-0.0214647 0.0140307 0)
(-0.023053 0.0136083 0)
(-0.0246076 0.0131194 0)
(-0.0261199 0.012557 0)
(-0.0275828 0.0119139 0)
(-0.0289861 0.011183 0)
(-0.0303196 0.0103576 0)
(-0.0315707 0.00943136 0)
(-0.032726 0.0083992 0)
(-0.0337702 0.00725725 0)
(-0.0346867 0.0060035 0)
(-0.0354576 0.00463834 0)
(-0.0360638 0.00316506 0)
(-0.0364856 0.00159047 0)
(-0.0367029 -7.45348e-05 0)
(-0.0366965 -0.00181449 0)
(-0.0364486 -0.00360898 0)
(-0.0359442 -0.00543246 0)
(-0.0351724 -0.00725438 0)
(-0.0341279 -0.00903969 0)
(-0.0328122 -0.0107498 0)
(-0.0312352 -0.0123441 0)
(-0.0294161 -0.0137819 0)
(-0.0273833 -0.0150248 0)
(-0.0251746 -0.0160393 0)
(-0.0228355 -0.0167993 0)
(-0.0204177 -0.0172886 0)
(-0.0179761 -0.0175024 0)
(-0.0155661 -0.0174475 0)
(-0.0132396 -0.0171428 0)
(-0.0110424 -0.0166164 0)
(-0.00901113 -0.0159038 0)
(-0.00717256 -0.015043 0)
(-0.00554116 -0.0140715 0)
(-0.0041227 -0.01302 0)
(-0.00291216 -0.011911 0)
(-0.00190173 -0.0107522 0)
(-0.00107665 -0.00954058 0)
(-0.000428272 -0.00825729 0)
(5.74018e-05 -0.00688293 0)
(0.000379717 -0.00539694 0)
(0.000551335 -0.00381191 0)
(0.000565903 -0.00217747 0)
(0.000458578 -0.000646918 0)
(0.000247675 0.000506542 0)
(5.33266e-05 0.000747605 0)
(-0.000133491 0.00397234 0)
(-0.000815916 0.00925055 0)
(-0.00198371 0.0126547 0)
(-0.00335656 0.0147692 0)
(-0.00492397 0.0160224 0)
(-0.00655205 0.0167126 0)
(-0.00824813 0.0170491 0)
(-0.00995388 0.0171657 0)
(-0.0116804 0.0171473 0)
(-0.0134019 0.0170408 0)
(-0.0151265 0.0168716 0)
(-0.0168411 0.0166493 0)
(-0.0185492 0.0163765 0)
(-0.0202423 0.01605 0)
(-0.02192 0.015665 0)
(-0.0235747 0.0152144 0)
(-0.0252026 0.014691 0)
(-0.0267954 0.0140864 0)
(-0.028346 0.0133923 0)
(-0.0298441 0.0126002 0)
(-0.0312792 0.0117018 0)
(-0.032638 0.0106894 0)
(-0.0339062 0.0095559 0)
(-0.0350668 0.00829587 0)
(-0.0361013 0.00690559 0)
(-0.0369889 0.00538388 0)
(-0.0377074 0.00373282 0)
(-0.0382329 0.00195845 0)
(-0.038541 7.15783e-05 0)
(-0.038607 -0.00191148 0)
(-0.0384076 -0.00396826 0)
(-0.0379223 -0.00606972 0)
(-0.037135 -0.00818022 0)
(-0.0360358 -0.0102579 0)
(-0.0346235 -0.0122556 0)
(-0.0329068 -0.0141232 0)
(-0.0309061 -0.0158092 0)
(-0.0286535 -0.0172647 0)
(-0.0261929 -0.0184463 0)
(-0.0235782 -0.01932 0)
(-0.0208718 -0.0198638 0)
(-0.0181402 -0.0200707 0)
(-0.0154517 -0.0199489 0)
(-0.0128705 -0.0195224 0)
(-0.0104542 -0.0188278 0)
(-0.00824799 -0.0179121 0)
(-0.00628443 -0.0168258 0)
(-0.00457953 -0.0156191 0)
(-0.00313726 -0.0143339 0)
(-0.00194686 -0.0130014 0)
(-0.000993456 -0.0116342 0)
(-0.000252867 -0.0102308 0)
(0.00029124 -0.00877035 0)
(0.000662035 -0.00722993 0)
(0.000863425 -0.00558467 0)
(0.000915991 -0.00384721 0)
(0.000814477 -0.00207282 0)
(0.000604975 -0.000434666 0)
(0.000306884 0.000757985 0)
(6.25518e-05 0.000904832 0)
(-0.000134974 0.00438864 0)
(-0.000825283 0.0102033 0)
(-0.00200692 0.0139443 0)
(-0.00339661 0.0162628 0)
(-0.0049841 0.0176355 0)
(-0.00663437 0.0183924 0)
(-0.00835543 0.0187647 0)
(-0.0100888 0.0188989 0)
(-0.0118465 0.0188882 0)
(-0.013603 0.0187835 0)
(-0.0153671 0.0186123 0)
(-0.0171264 0.0183851 0)
(-0.018885 0.0181041 0)
(-0.0206351 0.0177661 0)
(-0.0223769 0.0173653 0)
(-0.0241034 0.0168939 0)
(-0.0258113 0.0163436 0)
(-0.0274926 0.0157047 0)
(-0.0291407 0.0149677 0)
(-0.0307452 0.0141223 0)
(-0.0322955 0.0131584 0)
(-0.0337776 0.0120664 0)
(-0.0351763 0.010837 0)
(-0.0364732 0.00946239 0)
(-0.0376474 0.00793666 0)
(-0.0386755 0.00625635 0)
(-0.0395314 0.00442154 0)
(-0.0401867 0.00243674 0)
(-0.0406115 0.000311961 0)
(-0.0407749 -0.00193617 0)
(-0.0406471 -0.00428342 0)
(-0.0402006 -0.00669711 0)
(-0.0394131 -0.0091358 0)
(-0.0382697 -0.0115495 0)
(-0.0367657 -0.0138809 0)
(-0.0349088 -0.0160678 0)
(-0.0327201 -0.0180457 0)
(-0.0302352 -0.0197528 0)
(-0.0275032 -0.0211334 0)
(-0.0245853 -0.0221433 0)
(-0.0215531 -0.0227529 0)
(-0.0184851 -0.0229511 0)
(-0.0154635 -0.0227467 0)
(-0.0125682 -0.0221687 0)
(-0.00987263 -0.0212639 0)
(-0.00743613 -0.0200935 0)
(-0.00530198 -0.0187247 0)
(-0.00349106 -0.0172253 0)
(-0.00200709 -0.0156527 0)
(-0.000832764 -0.0140504 0)
(5.60913e-05 -0.012438 0)
(0.000696534 -0.0108167 0)
(0.00111596 -0.00916255 0)
(0.00134997 -0.007448 0)
(0.00140918 -0.00564201 0)
(0.00132377 -0.00375604 0)
(0.00109001 -0.00185096 0)
(0.000765764 -0.000121482 0)
(0.000371206 0.00108308 0)
(7.24237e-05 0.00109275 0)
(-0.000136271 0.00480918 0)
(-0.000833489 0.0111664 0)
(-0.00202749 0.0152484 0)
(-0.0034325 0.0177739 0)
(-0.00503853 0.0192688 0)
(-0.00670967 0.0200949 0)
(-0.0084546 0.0205057 0)
(-0.0102149 0.0206609 0)
(-0.0120033 0.0206617 0)
(-0.0137949 0.0205633 0)
(-0.0155992 0.0203953 0)
(-0.0174045 0.0201689 0)
(-0.0192158 0.0198864 0)
(-0.0210258 0.019544 0)
(-0.0228356 0.0191354 0)
(-0.024639 0.0186519 0)
(-0.0264333 0.0180837 0)
(-0.0282112 0.0174203 0)
(-0.0299665 0.0166501 0)
(-0.0316891 0.0157613 0)
(-0.0333685 0.0147417 0)
(-0.0349903 0.0135789 0)
(-0.0365384 0.0122614 0)
(-0.0379931 0.0107783 0)
(-0.0393315 0.0091206 0)
(-0.0405269 0.00728178 0)
(-0.0415495 0.00525896 0)
(-0.0423657 0.00305413 0)
(-0.0429395 0.000675638 0)
(-0.0432331 -0.00186029 0)
(-0.0432094 -0.00452787 0)
(-0.0428338 -0.00729046 0)
(-0.042078 -0.0100997 0)
(-0.0409231 -0.0128958 0)
(-0.0393625 -0.0156092 0)
(-0.0374037 -0.0181636 0)
(-0.0350684 -0.0204803 0)
(-0.0323925 -0.022483 0)
(-0.0294246 -0.0241029 0)
(-0.0262253 -0.0252838 0)
(-0.0228674 -0.025986 0)
(-0.0194348 -0.0261909 0)
(-0.0160216 -0.0259035 0)
(-0.0127261 -0.0251553 0)
(-0.00964598 -0.0240022 0)
(-0.00686625 -0.0225213 0)
(-0.00445349 -0.0208016 0)
(-0.00244426 -0.0189355 0)
(-0.000848976 -0.0170033 0)
(0.000354041 -0.0150676 0)
(0.00120009 -0.0131592 0)
(0.00174396 -0.0112839 0)
(0.00202984 -0.00941425 0)
(0.00211152 -0.00751586 0)
(0.00201065 -0.00554866 0)
(0.00177021 -0.00352062 0)
(0.00138935 -0.00149736 0)
(0.000938871 0.00030354 0)
(0.00043963 0.00148863 0)
(8.27367e-05 0.00131361 0)
(-0.000137276 0.00523352 0)
(-0.000840232 0.0121386 0)
(-0.00204498 0.0165657 0)
(-0.00346366 0.0193014 0)
(-0.00508661 0.0209211 0)
(-0.0067772 0.0218193 0)
(-0.00854479 0.0222717 0)
(-0.0103311 0.0224514 0)
(-0.0121497 0.0224681 0)
(-0.0139762 0.0223809 0)
(-0.0158211 0.0222219 0)
(-0.0176732 0.0220027 0)
(-0.0195386 0.0217261 0)
(-0.021411 0.0213875 0)
(-0.0232922 0.0209802 0)
(-0.025177 0.0204942 0)
(-0.0270636 0.019919 0)
(-0.0289457 0.0192421 0)
(-0.0308176 0.0184507 0)
(-0.03267 0.0175306 0)
(-0.0344925 0.0164671 0)
(-0.0362709 0.0152454 0)
(-0.0379886 0.0138505 0)
(-0.0396246 0.0122679 0)
(-0.0411542 0.0104848 0)
(-0.0425478 0.00849049 0)
(-0.0437714 0.00627809 0)
(-0.0447864 0.00384594 0)
(-0.0455504 0.00119975 0)
(-0.0460193 -0.00164505 0)
(-0.0461495 -0.00466079 0)
(-0.0459025 -0.00780543 0)
(-0.0452488 -0.0110215 0)
(-0.0441715 -0.0142371 0)
(-0.042668 -0.0173687 0)
(-0.0407484 -0.0203265 0)
(-0.0384323 -0.0230195 0)
(-0.035745 -0.0253612 0)
(-0.0327161 -0.0272728 0)
(-0.0293824 -0.0286864 0)
(-0.025794 -0.0295484 0)
(-0.0220208 -0.0298243 0)
(-0.0181588 -0.0295046 0)
(-0.0143271 -0.0286113 0)
(-0.0106618 -0.0272011 0)
(-0.00729777 -0.025365 0)
(-0.00435387 -0.0232181 0)
(-0.00190976 -0.0208879 0)
(-3.44384e-06 -0.0184914 0)
(0.00138037 -0.016124 0)
(0.00228686 -0.0138376 0)
(0.00279507 -0.0116481 0)
(0.00297611 -0.00952469 0)
(0.00291304 -0.0074237 0)
(0.00264784 -0.00529127 0)
(0.00224322 -0.00312761 0)
(0.00170532 -0.00100065 0)
(0.00112032 0.000848919 0)
(0.000510529 0.00197959 0)
(9.32209e-05 0.00156872 0)
(-0.000137974 0.00566071 0)
(-0.000845315 0.0131184 0)
(-0.00205885 0.0178943 0)
(-0.00348928 0.0208433 0)
(-0.0051272 0.0225907 0)
(-0.00683551 0.0235639 0)
(-0.00862418 0.0240613 0)
(-0.0104352 0.0242694 0)
(-0.0122829 0.0243065 0)
(-0.0141436 0.0242359 0)
(-0.0160287 0.0240921 0)
(-0.0179279 0.0238873 0)
(-0.0198484 0.0236245 0)
(-0.0217846 0.0232989 0)
(-0.0237398 0.0229028 0)
(-0.0257096 0.0224256 0)
(-0.0276937 0.0218553 0)
(-0.0296866 0.0211782 0)
(-0.0316839 0.0203794 0)
(-0.0336773 0.0194425 0)
(-0.035657 0.0183503 0)
(-0.0376093 0.0170846 0)
(-0.0395176 0.0156266 0)
(-0.0413601 0.0139576 0)
(-0.0431108 0.0120599 0)
(-0.0447376 0.00991763 0)
(-0.0462027 0.00751868 0)
(-0.0474632 0.00485684 0)
(-0.0484722 0.00193493 0)
(-0.0491824 -0.00123148 0)
(-0.0495511 -0.00461018 0)
(-0.0495464 -0.00814953 0)
(-0.0491524 -0.0117784 0)
(-0.0483706 -0.0154101 0)
(-0.0472145 -0.0189493 0)
(-0.0456994 -0.0223006 0)
(-0.0438292 -0.0253746 0)
(-0.0415888 -0.0280897 0)
(-0.0389455 -0.0303688 0)
(-0.0358613 -0.0321364 0)
(-0.032315 -0.0333176 0)
(-0.0283245 -0.0338434 0)
(-0.023966 -0.0336635 0)
(-0.0193793 -0.0327619 0)
(-0.014761 -0.031172 0)
(-0.0103376 -0.0289845 0)
(-0.00633483 -0.0263412 0)
(-0.00293291 -0.0234194 0)
(-0.000246703 -0.0203977 0)
(0.00170093 -0.0174317 0)
(0.0029532 -0.0146179 0)
(0.00361958 -0.011997 0)
(0.00381484 -0.00953952 0)
(0.00367222 -0.00718987 0)
(0.00327345 -0.00487276 0)
(0.00271596 -0.00257304 0)
(0.00202319 -0.000354967 0)
(0.00130253 0.00151966 0)
(0.000581003 0.00255871 0)
(0.000103392 0.00185851 0)
(-0.00013824 0.00608969 0)
(-0.000848256 0.0141037 0)
(-0.00206821 0.019232 0)
(-0.003508 0.0223973 0)
(-0.00515851 0.0242755 0)
(-0.00688235 0.0253267 0)
(-0.00869003 0.0258727 0)
(-0.0105239 0.0261134 0)
(-0.0123991 0.0261757 0)
(-0.0142926 0.0261274 0)