/*--------------------------------*- C++ -*----------------------------------*\
| =========                 |                                                 |
| \\      /  F ield         | OpenFOAM: The Open Source CFD Toolbox           |
|  \\    /   O peration     | Version:  2406                                  |
|   \\  /    A nd           | Website:  www.openfoam.com                      |
|    \\/     M anipulation  |                                                 |
\*---------------------------------------------------------------------------*/
FoamFile
{
    version     2.0;
    format      ascii;
    arch        "LSB;label=32;scalar=64";
    class       volScalarField;
    location    "40.75";
    object      p;
}
// * * * * * * * * * * * * * * * * * * * * * * * * * * * * * * * * * * * * * //

dimensions      [0 2 -2 0 0 0 0];

internalField   nonuniform List<scalar> 
16384
(
1.47968e-08
9.50666e-06
2.13388e-05
3.09909e-05
3.52274e-05
3.19568e-05
2.01042e-05
-5.94671e-07
-2.97859e-05
-6.66691e-05
-0.000110166
-0.000159084
-0.000212258
-0.000268671
-0.000327534
-0.000388341
-0.00045089
-0.00051528
-0.00058188
-0.000651299
-0.000724324
-0.000801889
-0.000885002
-0.000974603
-0.00107173
-0.00117734
-0.00129234
-0.00141756
-0.00155382
-0.00170185
-0.00186237
-0.00203605
-0.00222352
-0.00242532
-0.00264191
-0.0028736
-0.00312053
-0.00338264
-0.0036596
-0.00395076
-0.00425516
-0.00457141
-0.00489772
-0.00523185
-0.00557106
-0.00591215
-0.00625143
-0.00658474
-0.00690748
-0.00721468
-0.00750105
-0.00776104
-0.00798897
-0.0081791
-0.0083258
-0.00842361
-0.00846743
-0.00845263
-0.00837519
-0.00823185
-0.00802022
-0.00773895
-0.00738781
-0.00696782
-0.00648131
-0.00593203
-0.00532523
-0.00466736
-0.00396525
-0.00323067
-0.00247377
-0.00170615
-0.000940877
-0.000191737
0.00052703
0.00120105
0.00181621
0.00235903
0.00281713
0.00317968
0.00343776
0.00358479
0.00361681
0.00353275
0.00333452
0.00302693
0.00261752
0.00211685
0.00153719
0.000892728
0.000198735
-0.000528957
-0.00127459
-0.00202306
-0.00276039
-0.0034742
-0.00415395
-0.00479137
-0.00538005
-0.00591595
-0.00639692
-0.00682258
-0.00719409
-0.00751388
-0.00778533
-0.00801249
-0.00819978
-0.00835179
-0.00847307
-0.00856799
-0.00864065
-0.00869476
-0.00873365
-0.00876023
-0.00877699
-0.00878601
-0.00878902
-0.00878737
-0.00878206
-0.00877384
-0.00876315
-0.00875032
-0.00873557
-0.0087193
-0.00870225
-0.00868563
-0.00867219
-0.00866479
-9.23753e-06
2.20269e-07
9.82391e-06
1.66935e-05
1.84874e-05
1.35316e-05
8.85985e-07
-1.97288e-05
-4.80565e-05
-8.34431e-05
-0.00012498
-0.00017165
-0.000222445
-0.000276485
-0.000333087
-0.000391816
-0.000452503
-0.000515244
-0.000580373
-0.000648452
-0.000720187
-0.000796398
-0.000877975
-0.000965899
-0.00106107
-0.00116437
-0.00127667
-0.00139877
-0.00153145
-0.00167545
-0.00183147
-0.00200018
-0.00218222
-0.00237816
-0.00258845
-0.00281346
-0.00305339
-0.00330821
-0.00357768
-0.00386126
-0.00415807
-0.00446686
-0.00478597
-0.0051133
-0.00544626
-0.00578181
-0.0061164
-0.00644602
-0.00676621
-0.00707211
-0.00735852
-0.00761999
-0.00785089
-0.00804551
-0.00819823
-0.00830357
-0.00835638
-0.00835196
-0.00828621
-0.00815576
-0.00795811
-0.00769175
-0.00735632
-0.0069527
-0.0064832
-0.00595169
-0.00536287
-0.0047205
-0.00403587
-0.00331705
-0.00257485
-0.00182146
-0.00106969
-0.000333139
0.0003741
0.00103777
0.00164383
0.00217887
0.00263058
0.00298813
0.00324264
0.00338756
0.00341894
0.00333573
0.00313985
0.0028362
0.00243248
0.00193873
0.00136781
0.000733759
5.16891e-05
-0.000662634
-0.00139359
-0.00212628
-0.00284701
-0.00354372
-0.00420631
-0.00482671
-0.00539881
-0.00591922
-0.00638594
-0.00679888
-0.00715943
-0.00747014
-0.00773442
-0.00795626
-0.00814
-0.00829006
-0.0084108
-0.0085064
-0.00858071
-0.00863724
-0.00867911
-0.00870903
-0.00872935
-0.00874202
-0.00874867
-0.00875057
-0.00874874
-0.00874389
-0.00873655
-0.00872709
-0.0087158
-0.00870307
-0.00868952
-0.00867621
-0.00866486
-0.0086574
-2.10249e-05
-9.29814e-06
4.26763e-07
6.17095e-06
6.60452e-06
5.34699e-07
-1.27802e-05
-3.35505e-05
-6.15201e-05
-9.60759e-05
-0.000136376
-0.000181481
-0.000230475
-0.000282556
-0.000337113
-0.000393769
-0.000452395
-0.000513107
-0.000576222
-0.00064228
-0.000711959
-0.000786038
-0.000865359
-0.000950804
-0.00104324
-0.00114351
-0.00125242
-0.00137077
-0.0014993
-0.00163874
-0.00178982
-0.00195322
-0.00212963
-0.00231966
-0.00252384
-0.00274264
-0.00297634
-0.00322506
-0.00348868
-0.00376681
-0.00405873
-0.00436338
-0.00467925
-0.00500439
-0.00533639
-0.00567231
-0.0060087
-0.00634164
-0.00666669
-0.00697901
-0.00727335
-0.00754419
-0.0077858
-0.00799234
-0.00815803
-0.00827724
-0.00834463
-0.00835534
-0.00830507
-0.0081903
-0.00800834
-0.00775753
-0.00743735
-0.00704862
-0.00659353
-0.00607513
-0.00549656
-0.00486729
-0.00419452
-0.00348683
-0.00275462
-0.00200974
-0.00126508
-0.000534266
0.000168552
0.000829066
0.00143317
0.00196737
0.00241922
0.00277778
0.00303405
0.0031813
0.00321551
0.00313549
0.00294311
0.00264322
0.00224363
0.00175472
0.00118831
0.000560006
-0.000115653
-0.000822623
-0.00154519
-0.00226834
-0.00297836
-0.00366319
-0.00431275
-0.00491907
-0.00547671
-0.00598282
-0.00643532
-0.00683415
-0.0071812
-0.0074794
-0.00773242
-0.00794442
-0.00811985
-0.00826318
-0.00837874
-0.00847062
-0.00854254
-0.00859785
-0.00863948
-0.00866999
-0.00869152
-0.0087059
-0.00871459
-0.0087188
-0.00871944
-0.00871721
-0.00871261
-0.00870596
-0.00869754
-0.00868761
-0.00867657
-0.00866499
-0.00865363
-0.00864369
-3.14333e-05
-1.66759e-05
-5.41321e-06
5.42762e-07
5.61244e-07
-6.14753e-06
-2.01009e-05
-4.13645e-05
-6.9582e-05
-0.000104073
-0.000143956
-0.000188275
-0.000236119
-0.000286713
-0.000339486
-0.0003941
-0.000450471
-0.000508747
-0.000569314
-0.000632698
-0.000699585
-0.000770755
-0.000847035
-0.000929269
-0.0010183
-0.00111494
-0.00121996
-0.00133414
-0.00145823
-0.00159298
-0.00173915
-0.00189751
-0.00206882
-0.00225381
-0.00245319
-0.00266755
-0.00289738
-0.003143
-0.0034045
-0.00368171
-0.00397412
-0.00428085
-0.00460058
-0.00493148
-0.00527121
-0.00561687
-0.00596498
-0.00631152
-0.00665191
-0.0069811
-0.00729361
-0.00758365
-0.00784518
-0.00807211
-0.00825835
-0.00839801
-0.00848553
-0.00851582
-0.00848444
-0.0083877
-0.00822279
-0.00798794
-0.0076826
-0.00730758
-0.00686487
-0.006357
-0.00578802
-0.00516655
-0.00449988
-0.00379688
-0.00306794
-0.00232476
-0.00158015
-0.000847751
-0.000141749
0.000523447
0.00113359
0.001675
0.002135
0.0025024
0.00276787
0.00292443
0.00296773
0.00289635
0.00271191
0.00241913
0.00202572
0.00154206
0.000980706
0.000356362
-0.000315738
-0.0010188
-0.00173715
-0.00245534
-0.00315938
-0.00383699
-0.00447801
-0.00507454
-0.00562093
-0.00611248
-0.00655164
-0.00693613
-0.00726813
-0.00755119
-0.00778944
-0.00798743
-0.0081499
-0.00828156
-0.00838693
-0.00847015
-0.00853498
-0.0085847
-0.00862214
-0.0086497
-0.00866938
-0.00868282
-0.00869135
-0.00869602
-0.00869764
-0.00869679
-0.00869386
-0.0086891
-0.00868263
-0.00867451
-0.00866482
-0.00865362
-0.00864079
-0.00862718
-3.80158e-05
-2.02952e-05
-7.17859e-06
-5.67369e-07
-6.72536e-07
-7.984e-06
-2.27969e-05
-4.49839e-05
-7.40206e-05
-0.000109082
-0.000149172
-0.000193254
-0.000240369
-0.000289734
-0.000340795
-0.000393259
-0.000447101
-0.000502536
-0.000559997
-0.000620083
-0.000683521
-0.000751116
-0.00082371
-0.000902152
-0.000987274
-0.00107987
-0.00118075
-0.00129063
-0.00141037
-0.00154077
-0.00168269
-0.00183705
-0.00200478
-0.00218684
-0.00238417
-0.00259763
-0.00282799
-0.00307585
-0.00334159
-0.00362529
-0.00392665
-0.00424493
-0.00457888
-0.00492669
-0.00528592
-0.00565347
-0.00602561
-0.00639796
-0.00676556
-0.00712294
-0.00746418
-0.00778306
-0.00807317
-0.00832805
-0.00854133
-0.00870687
-0.00881894
-0.00887233
-0.00886251
-0.00878573
-0.00863919
-0.00842109
-0.00813091
-0.00776947
-0.0073384
-0.00683935
-0.00627988
-0.00566541
-0.00500352
-0.00430322
-0.00357491
-0.00283021
-0.00208183
-0.00134336
-0.000628992
4.68168e-05
0.000669684
0.00122573
0.00170199
0.00208692
0.00237081
0.00254619
0.00260825
0.00255511
0.00238797
0.00211119
0.00173218
0.00126118
0.000710818
9.56955e-05
-0.000568365
-0.00126477
-0.00197736
-0.00268981
-0.00338818
-0.00405945
-0.00469324
-0.00528134
-0.00581809
-0.00630025
-0.00672371
-0.00709394
-0.00741084
-0.00767781
-0.00789951
-0.00808098
-0.00822737
-0.00834378
-0.00843504
-0.00850554
-0.00855919
-0.00859936
-0.00862886
-0.00865004
-0.00866478
-0.00867457
-0.00868058
-0.00868371
-0.00868461
-0.00868371
-0.00868125
-0.00867733
-0.00867188
-0.00866471
-0.00865558
-0.00864405
-0.00862921
-0.00861187
-3.93146e-05
-1.90451e-05
-4.27312e-06
2.92366e-06
2.57347e-06
-5.59712e-06
-2.16708e-05
-4.52937e-05
-7.57193e-05
-0.000111922
-0.000152737
-0.000197
-0.000243678
-0.000291954
-0.000341289
-0.000391439
-0.000442465
-0.000494661
-0.000548554
-0.000604834
-0.000664306
-0.000727838
-0.000796317
-0.000870627
-0.000951638
-0.00104011
-0.001137
-0.00124306
-0.00135924
-0.00148651
-0.00162595
-0.00177872
-0.00194606
-0.00212925
-0.00232958
-0.0025483
-0.00278653
-0.00304519
-0.00332493
-0.00362603
-0.00394828
-0.00429092
-0.00465256
-0.0050311
-0.00542372
-0.00582686
-0.00623621
-0.00664684
-0.00705318
-0.00744918
-0.00782843
-0.00818426
-0.0085099
-0.00879859
-0.00904379
-0.00923925
-0.00937919
-0.0094584
-0.0094724
-0.00941752
-0.00929103
-0.00909124
-0.0088176
-0.00847081
-0.00805273
-0.00756484
-0.00701446
-0.00640723
-0.00575036
-0.00505262
-0.00432417
-0.00357645
-0.00282196
-0.00207414
-0.00134706
-0.000655173
-1.29209e-05
0.000565628
0.00106723
0.00147991
0.00179343
0.00199974
0.00209336
0.00207169
0.00193527
0.00168782
0.00133619
0.0008902
0.00036222
-0.000233288
-0.000880405
-0.00156242
-0.00226253
-0.00296433
-0.003654
-0.00431651
-0.0049419
-0.00552133
-0.00604859
-0.00652008
-0.00693417
-0.00728974
-0.00759263
-0.00784457
-0.00805017
-0.00821491
-0.00834437
-0.00844406
-0.0085192
-0.00857453
-0.00861424
-0.00864192
-0.00866051
-0.00867239
-0.00867941
-0.00868299
-0.00868418
-0.00868372
-0.0086821
-0.0086796
-0.00867629
-0.00867208
-0.00866668
-0.00865968
-0.00865051
-0.00863827
-0.00862137
-0.00860058
-3.44692e-05
-1.21572e-05
3.86444e-06
1.13131e-05
1.03521e-05
8.80262e-07
-1.69714e-05
-4.25952e-05
-7.49781e-05
-0.000112848
-0.000154832
-0.000199613
-0.000246063
-0.000293331
-0.000340899
-0.000388597
-0.000436551
-0.0004852
-0.000535189
-0.000587329
-0.000642534
-0.000701769
-0.000766009
-0.000836198
-0.000913301
-0.000998228
-0.00109195
-0.00119549
-0.00130999
-0.00143671
-0.00157707
-0.00173262
-0.00190503
-0.00209603
-0.00230738
-0.00254071
-0.00279751
-0.00307897
-0.00338586
-0.00371844
-0.00407634
-0.00445847
-0.00486294
-0.00528706
-0.0057273
-0.00617935
-0.00663817
-0.00709808
-0.00755289
-0.00799599
-0.00842051
-0.00881945
-0.00918579
-0.00951269
-0.00979356
-0.0100222
-0.0101929
-0.0103006
-0.010341
-0.0103105
-0.0102066
-0.0100278
-0.0097733
-0.00944324
-0.00903875
-0.00856607
-0.00802793
-0.00743012
-0.00677992
-0.00608582
-0.00535767
-0.00460651
-0.0038445
-0.00308476
-0.00234112
-0.00162789
-0.000959496
-0.000350116
0.00018672
0.000638596
0.000994674
0.00124615
0.00138666
0.00141269
0.00132377
0.00112266
0.000815351
0.00041088
-7.89721e-05
-0.00064015
-0.00125693
-0.0019126
-0.00259014
-0.003273
-0.00394594
-0.00459484
-0.00520834
-0.00577689
-0.00629386
-0.006755
-0.00715856
-0.00750473
-0.00779407
-0.008033
-0.00822467
-0.00837448
-0.00848832
-0.00857203
-0.00863119
-0.0086709
-0.00869572
-0.0087095
-0.00871546
-0.00871611
-0.00871339
-0.00870874
-0.00870315
-0.00869727
-0.00869146
-0.00868585
-0.00868037
-0.00867473
-0.00866846
-0.00866091
-0.00865122
-0.0086381
-0.00861937
-0.00859577
-2.28517e-05
9.98831e-07
1.77761e-05
2.49941e-05
2.2906e-05
1.1571e-05
-8.64707e-06
-3.68557e-05
-7.17405e-05
-0.000111748
-0.000155274
-0.000200835
-0.000247206
-0.000293511
-0.00033927
-0.000384397
-0.00042915
-0.0004741
-0.00052005
-0.000567966
-0.000618907
-0.000673976
-0.000734287
-0.000800937
-0.000875033
-0.000957705
-0.00105016
-0.00115375
-0.00126998
-0.00140057
-0.00154742
-0.00171262
-0.00189839
-0.00210697
-0.00234055
-0.00260113
-0.00289041
-0.0032096
-0.00355931
-0.00393943
-0.00434906
-0.00478637
-0.00524866
-0.00573235
-0.006233
-0.00674543
-0.0072638
-0.00778175
-0.00829252
-0.00878909
-0.00926428
-0.00971095
-0.010122
-0.0104907
-0.0108105
-0.0110754
-0.01128
-0.0114193
-0.0114892
-0.0114864
-0.0114085
-0.0112541
-0.0110222
-0.0107131
-0.0103285
-0.00987268
-0.0093495
-0.00876418
-0.0081234
-0.0074352
-0.00670889
-0.00595498
-0.00518512
-0.00441192
-0.00364881
-0.00290979
-0.00220911
-0.00156096
-0.000979096
-0.00047634
-6.4182e-05
0.000247718
0.000451966
0.000543835
0.000521584
0.000386663
0.000143778
-0.000199196
-0.000631474
-0.00113978
-0.00170892
-0.00232243
-0.00296333
-0.00361485
-0.00426118
-0.00488794
-0.00548284
-0.00603588
-0.0065396
-0.00698904
-0.00738174
-0.00771753
-0.00799798
-0.00822515
-0.00840555
-0.00854334
-0.00864434
-0.00871452
-0.00875969
-0.00878523
-0.00879601
-0.00879621
-0.00878933
-0.00877813
-0.00876473
-0.00875069
-0.00873703
-0.00872439
-0.00871307
-0.00870312
-0.00869433
-0.00868627
-0.00867831
-0.00866959
-0.00865903
-0.00864498
-0.00862484
-0.00859923
-3.84008e-06
2.10679e-05
3.80675e-05
4.44861e-05
4.06651e-05
2.68402e-05
3.63685e-06
-2.77321e-05
-6.56201e-05
-0.000108171
-0.000153539
-0.000200076
-0.000246475
-0.00029186
-0.000335819
-0.000378362
-0.000419918
-0.000461229
-0.000503281
-0.000547233
-0.000594336
-0.000645893
-0.000703223
-0.000767662
-0.000840596
-0.000923498
-0.00101799
-0.00112591
-0.00124931
-0.00139053
-0.00155209
-0.00173672
-0.00194718
-0.00218619
-0.00245626
-0.00275948
-0.00309746
-0.00347104
-0.00388028
-0.00432429
-0.00480123
-0.00530827
-0.00584165
-0.00639675
-0.00696819
-0.00754997
-0.00813554
-0.00871801
-0.00929024
-0.00984495
-0.0103749
-0.0108729
-0.011332
-0.0117455
-0.0121073
-0.0124116
-0.012653
-0.0128271
-0.01293
-0.0129585
-0.0129103
-0.012784
-0.0125786
-0.0122945
-0.0119337
-0.0114994
-0.0109954
-0.0104265
-0.00979886
-0.00911986
-0.00839815
-0.00764355
-0.00686699
-0.0060804
-0.0052966
-0.00452906
-0.00379167
-0.00309847
-0.00246325
-0.00189916
-0.00141831
-0.00103122
-0.000746444
-0.000570093
-0.000505469
-0.00055279
-0.000709042
-0.000967975
-0.00132028
-0.00175392
-0.00225465
-0.00280666
-0.00339326
-0.00399769
-0.00460383
-0.00519685
-0.00576376
-0.00629384
-0.0067788
-0.00721289
-0.00759282
-0.00791758
-0.00818825
-0.0084074
-0.00857827
-0.00870694
-0.00879835
-0.00885832
-0.00889263
-0.0089068
-0.00890587
-0.00889429
-0.00887581
-0.00885349
-0.00882968
-0.00880611
-0.00878396
-0.00876393
-0.00874635
-0.00873123
-0.00871832
-0.0087071
-0.00869682
-0.00868648
-0.00867479
-0.00865989
-0.00863884
-0.00861215
2.33017e-05
4.87973e-05
6.5461e-05
7.04645e-05
6.42591e-05
4.72918e-05
2.04898e-05
-1.45787e-05
-5.59106e-05
-0.000101338
-0.000148777
-0.000196436
-0.000242957
-0.000287498
-0.000329734
-0.000369842
-0.00040843
-0.000446457
-0.000485118
-0.000525838
-0.000570105
-0.000619498
-0.000675649
-0.000740264
-0.000815163
-0.000902339
-0.00100402
-0.00112269
-0.00126116
-0.00142246
-0.00160984
-0.0018266
-0.00207597
-0.00236089
-0.00268387
-0.00304674
-0.00345054
-0.00389534
-0.0043802
-0.00490312
-0.00546106
-0.00605002
-0.00666515
-0.00730082
-0.0079508
-0.00860841
-0.00926659
-0.0099181
-0.0105556
-0.0111717
-0.0117592
-0.0123111
-0.0128207
-0.0132815
-0.0136876
-0.0140336
-0.0143145
-0.0145261
-0.0146647
-0.0147274
-0.0147121
-0.0146174
-0.0144422
-0.0141869
-0.0138537
-0.0134453
-0.012965
-0.0124169
-0.0118068
-0.0111413
-0.0104281
-0.00967644
-0.00889619
-0.00809843
-0.00729512
-0.006499
-0.00572334
-0.00498174
-0.00428783
-0.00365487
-0.00309539
-0.00262072
-0.00224056
-0.00196249
-0.00179155
-0.00172995
-0.00177674
-0.0019278
-0.00217581
-0.00251053
-0.00291924
-0.00338724
-0.00389858
-0.00443684
-0.00498584
-0.00553038
-0.00605687
-0.00655377
-0.0070119
-0.00742458
-0.00778757
-0.00809893
-0.00835882
-0.00856909
-0.00873301
-0.00885459
-0.00893927
-0.00899232
-0.00901926
-0.00902548
-0.00901604
-0.00899551
-0.0089678
-0.00893622
-0.00890334
-0.00887114
-0.00884097
-0.0088137
-0.00878976
-0.0087692
-0.0087518
-0.00873702
-0.00872405
-0.0087118
-0.00869889
-0.00868329
-0.00866186
-0.008635
5.94711e-05
8.50733e-05
0.000100819
0.000103765
9.45091e-05
7.37558e-05
4.27767e-05
3.52814e-06
-4.16152e-05
-9.01776e-05
-0.000139861
-0.000188764
-0.000235517
-0.000279364
-0.000320112
-0.000358142
-0.000394283
-0.000429759
-0.000466054
-0.00050487
-0.000548046
-0.000597546
-0.000655453
-0.000724003
-0.00080564
-0.000903069
-0.0010193
-0.00115766
-0.00132176
-0.00151539
-0.00174242
-0.00200655
-0.00231116
-0.00265907
-0.00305231
-0.00349198
-0.0039781
-0.00450957
-0.00508416
-0.00569855
-0.00634844
-0.00702866
-0.00773332
-0.00845596
-0.00918968
-0.00992727
-0.0106614
-0.0113845
-0.0120893
-0.0127685
-0.0134149
-0.0140219
-0.0145829
-0.0150919
-0.0155433
-0.015932
-0.0162535
-0.0165038
-0.0166795
-0.0167782
-0.0167978
-0.0167369
-0.0165948
-0.0163716
-0.0160694
-0.0156907
-0.015238
-0.0147154
-0.0141275
-0.0134804
-0.012781
-0.0120373
-0.0112583
-0.010454
-0.00963531
-0.00881384
-0.00800202
-0.00721272
-0.00645906
-0.00575411
-0.00511055
-0.00454026
-0.0040539
-0.00366044
-0.00336673
-0.00317711
-0.00309303
-0.00311288
-0.0032319
-0.00344228
-0.00373341
-0.00409239
-0.0045046
-0.00495443
-0.00542604
-0.00590413
-0.00637463
-0.00682521
-0.00724574
-0.00762846
-0.00796803
-0.00826142
-0.00850772
-0.00870783
-0.00886414
-0.00898002
-0.00905996
-0.00910873
-0.00913142
-0.00913307
-0.00911854
-0.00909233
-0.00905841
-0.00902018
-0.00898043
-0.00894132
-0.00890442
-0.0088708
-0.00884105
-0.00881536
-0.00879357
-0.00877521
-0.00875949
-0.00874529
-0.00873119
-0.0087151
-0.00869385
-0.00866767
0.000105736
0.000130924
0.000145142
0.000145375
0.000132413
0.000107267
7.15929e-05
2.776e-05
-2.14829e-05
-7.33727e-05
-0.000125436
-0.00017571
-0.000222887
-0.00026631
-0.000306013
-0.000342614
-0.000377235
-0.000411401
-0.000446953
-0.00048598
-0.000530776
-0.000583832
-0.000647851
-0.000725791
-0.000820915
-0.000936821
-0.00107745
-0.00124701
-0.00144992
-0.0016906
-0.00197325
-0.00230165
-0.00267887
-0.0031071
-0.00358742
-0.00411974
-0.00470273
-0.00533384
-0.00600943
-0.00672483
-0.00747453
-0.00825231
-0.00905141
-0.00986471
-0.0106848
-0.0115041
-0.0123151
-0.0131102
-0.0138822
-0.014624
-0.0153286
-0.0159896
-0.0166009
-0.0171569
-0.0176524
-0.0180828
-0.0184439
-0.0187322
-0.0189448
-0.0190793
-0.019134
-0.0191079
-0.0190002
-0.0188113
-0.0185426
-0.0181964
-0.017775
-0.0172818
-0.0167209
-0.0160976
-0.0154178
-0.0146885
-0.0139175
-0.0131135
-0.0122862
-0.0114461
-0.0106042
-0.00977252
-0.00896316
-0.00818864
-0.00746139
-0.00679343
-0.00619604
-0.00567933
-0.00525175
-0.00491972
-0.00468721
-0.00455543
-0.00452257
-0.00458384
-0.00473146
-0.00495508
-0.00524213
-0.00557855
-0.00594943
-0.00633982
-0.00673546
-0.00712343
-0.00749264
-0.00783415
-0.00814137
-0.00841
-0.00863784
-0.00882462
-0.00897162
-0.00908134
-0.00915723
-0.0092033
-0.00922404
-0.00922392
-0.00920743
-0.00917877
-0.0091418
-0.00909989
-0.00905592
-0.00901219
-0.00897046
-0.00893199
-0.00889757
-0.00886756
-0.00884196
-0.0088204
-0.00880216
-0.0087862
-0.00877111
-0.00875482
-0.00873425
-0.00870949
0.000163313
0.000187503
0.000199551
0.000196418
0.000179126
0.000149039
0.000108233
5.94992e-05
5.94659e-06
-4.94122e-05
-0.000103982
-0.000155799
-0.000203699
-0.000247194
-0.000286588
-0.000322808
-0.000357326
-0.000392055
-0.000429283
-0.00047161
-0.000521927
-0.000583425
-0.000659617
-0.000754376
-0.000871949
-0.00101695
-0.00119427
-0.00140896
-0.00166604
-0.00197022
-0.00232565
-0.00273568
-0.00320256
-0.00372734
-0.00430975
-0.00494817
-0.00563972
-0.00638034
-0.00716495
-0.00798764
-0.0088418
-0.00972035
-0.0106158
-0.0115206
-0.0124268
-0.0133268
-0.014213
-0.0150779
-0.0159143
-0.0167154
-0.0174747
-0.0181862
-0.0188442
-0.0194436
-0.0199797
-0.0204484
-0.020846
-0.0211696
-0.0214166
-0.0215851
-0.0216735
-0.0216812
-0.0216077
-0.0214536
-0.0212197
-0.0209078
-0.0205202
-0.0200598
-0.0195302
-0.0189358
-0.0182816
-0.0175735
-0.0168181
-0.016023
-0.0151963
-0.014347
-0.0134849
-0.0126203
-0.0117644
-0.0109286
-0.0101245
-0.00936385
-0.00865799
-0.00801767
-0.00745255
-0.00697084
-0.00657884
-0.00628056
-0.00607744
-0.00596807
-0.00594815
-0.0060106
-0.00614581
-0.00634211
-0.00658639
-0.00686476
-0.00716336
-0.00746901
-0.00776987
-0.0080559
-0.0083191
-0.0085537
-0.00875603
-0.00892435
-0.00905863
-0.00916015
-0.00923126
-0.00927503
-0.00929505
-0.00929509
-0.00927907
-0.00925073
-0.00921363
-0.00917098
-0.00912557
-0.00907977
-0.00903546
-0.00899406
-0.00895655
-0.00892348
-0.00889503
-0.00887099
-0.00885078
-0.00883347
-0.00881771
-0.00880157
-0.00878214
-0.0087594
0.000233523
0.000256051
0.000265252
0.000258116
0.000235924
0.00020043
0.000154149
0.000100289
4.22833e-05
-1.66636e-05
-7.39175e-05
-0.00012761
-0.00017668
-0.00022101
-0.00026121
-0.00029859
-0.000335053
-0.000373005
-0.000415301
-0.000465199
-0.000526362
-0.000602867
-0.000699221
-0.000820362
-0.000971619
-0.00115861
-0.00138709
-0.00166269
-0.00199065
-0.00237553
-0.0028209
-0.00332911
-0.00390114
-0.00453649
-0.00523324
-0.00598809
-0.00679656
-0.00765309
-0.0085513
-0.00948416
-0.0104441
-0.0114234
-0.012414
-0.0134078
-0.014397
-0.0153736
-0.0163302
-0.0172595
-0.0181546
-0.0190092
-0.0198171
-0.0205728
-0.0212714
-0.0219081
-0.0224791
-0.0229808
-0.02341
-0.0237643
-0.0240416
-0.0242404
-0.0243596
-0.0243987
-0.0243577
-0.0242373
-0.0240378
-0.0237608
-0.0234084
-0.022983
-0.0224879
-0.0219266
-0.0213035
-0.0206232
-0.0198914
-0.019114
-0.018298
-0.0174509
-0.0165806
-0.0156962
-0.0148071
-0.0139233
-0.0130552
-0.0122137
-0.0114096
-0.0106536
-0.00995603
-0.00932619
-0.00877228
-0.00830083
-0.00791635
-0.00762096
-0.0074142
-0.00729289
-0.00725118
-0.00728077
-0.00737135
-0.00751111
-0.00768745
-0.00788766
-0.00809962
-0.00831241
-0.00851672
-0.00870519
-0.00887242
-0.009015
-0.00913123
-0.00922091
-0.00928505
-0.00932554
-0.00934489
-0.00934603
-0.00933203
-0.0093061
-0.00927126
-0.00923045
-0.00918624
-0.00914091
-0.00909639
-0.00905418
-0.00901543
-0.00898085
-0.00895082
-0.00892531
-0.00890391
-0.00888581
-0.00886985
-0.00885423
-0.00883633
-0.00881602
0.000317728
0.000337843
0.000343492
0.000331748
0.000304162
0.000262893
0.000210898
0.000151771
8.92108e-05
2.65419e-05
-3.36593e-05
-8.96383e-05
-0.000140686
-0.000186999
-0.000229612
-0.000270313
-0.000311543
-0.00035633
-0.000408242
-0.000471371
-0.000550329
-0.000650257
-0.000776792
-0.000936007
-0.00113428
-0.00137809
-0.00167374
-0.00202703
-0.00244293
-0.00292529
-0.00347653
-0.00409756
-0.00478767
-0.00554458
-0.00636458
-0.00724268
-0.00817281
-0.00914806
-0.0101609
-0.0112033
-0.0122669
-0.0133435
-0.0144245
-0.0155017
-0.0165672
-0.0176132
-0.0186325
-0.019618
-0.0205635
-0.0214629
-0.022311
-0.0231027
-0.0238338
-0.0245003
-0.0250989
-0.0256266
-0.026081
-0.0264602
-0.0267626
-0.026987
-0.0271328
-0.0271997
-0.0271882
-0.0270991
-0.0269325
-0.0266895
-0.0263722
-0.0259828
-0.0255241
-0.024999
-0.024411
-0.0237641
-0.0230626
-0.0223114
-0.0215161
-0.0206825
-0.0198172
-0.0189274
-0.0180208
-0.0171057
-0.016191
-0.015286
-0.0144006
-0.0135447
-0.0127283
-0.0119613
-0.0112529
-0.0106115
-0.0100441
-0.00955621
-0.00915105
-0.00882966
-0.00859052
-0.00842957
-0.00834034
-0.00831427
-0.00834119
-0.00840991
-0.00850891
-0.00862699
-0.0087539
-0.00888074
-0.00900033
-0.00910727
-0.00919794
-0.0092703
-0.0093237
-0.00935855
-0.00937608
-0.0093781
-0.00936678
-0.00934454
-0.00931361
-0.00927673
-0.00923598
-0.00919345
-0.00915098
-0.00911011
-0.00907205
-0.00903768
-0.00900752
-0.00898174
-0.00896009
-0.00894195
-0.00892631
-0.0089116
-0.00889553
-0.0088779
0.000417256
0.000434125
0.000435498
0.000418591
0.00038521
0.000337912
0.000280065
0.000215586
0.000148373
8.17602e-05
1.82418e-05
-4.07669e-05
-9.49066e-05
-0.000144816
-0.00019205
-0.000238983
-0.000288727
-0.000345077
-0.000412487
-0.000496057
-0.000601516
-0.000735187
-0.000903887
-0.00111476
-0.00137505
-0.00169174
-0.00207126
-0.00251902
-0.00303916
-0.00363423
-0.00430507
-0.00505076
-0.00586868
-0.00675465
-0.00770315
-0.00870756
-0.00976038
-0.0108535
-0.0119782
-0.0131259
-0.0142875
-0.0154543
-0.0166178
-0.0177696
-0.0189019
-0.0200073
-0.0210788
-0.0221101
-0.0230955
-0.0240297
-0.0249079
-0.0257261
-0.0264805
-0.0271681
-0.0277862
-0.0283325
-0.0288053
-0.029203
-0.0295246
-0.0297694
-0.029937
-0.0300277
-0.0300419
-0.0299807
-0.0298442
-0.0296332
-0.0293498
-0.0289961
-0.0285741
-0.0280866
-0.0275363
-0.0269264
-0.0262604
-0.0255421
-0.0247758
-0.023966
-0.0231179
-0.0222367
-0.0213287
-0.0204002
-0.0194583
-0.0185106
-0.0175652
-0.0166309
-0.0157167
-0.0148319
-0.0139859
-0.013188
-0.012447
-0.0117707
-0.0111657
-0.0106371
-0.0101878
-0.0098184
-0.0095272
-0.00931001
-0.00916038
-0.00907001
-0.00902922
-0.00902761
-0.00905472
-0.0091006
-0.00915641
-0.0092147
-0.00926963
-0.00931698
-0.00935405
-0.0093794
-0.00939266
-0.00939426
-0.00938525
-0.00936702
-0.00934119
-0.0093096
-0.00927404
-0.00923623
-0.00919785
-0.00916031
-0.00912485
-0.00909241
-0.00906366
-0.00903889
-0.00901805
-0.00900068
-0.00898594
-0.00897251
-0.00895847
-0.00894356
0.000533306
0.000546025
0.000542402
0.000519851
0.000480387
0.000426925
0.000363151
0.000293244
0.000221269
0.000150418
8.29151e-05
1.98182e-05
-3.89809e-05
-9.46793e-05
-0.000149465
-0.00020643
-0.000269502
-0.00034341
-0.000433667
-0.000546533
-0.000688965
-0.000868496
-0.00109304
-0.00137058
-0.00170887
-0.00211493
-0.00259471
-0.00315268
-0.00379155
-0.00451215
-0.00531334
-0.00619217
-0.007144
-0.00816276
-0.00924121
-0.0103712
-0.0115439
-0.0127502
-0.0139806
-0.0152257
-0.0164762
-0.0177233
-0.0189583
-0.0201731
-0.0213603
-0.0225129
-0.0236247
-0.0246901
-0.0257039
-0.0266617
-0.0275597
-0.0283944
-0.0291631
-0.0298632
-0.0304929
-0.0310505
-0.0315348
-0.0319448
-0.03228
-0.03254
-0.0327248
-0.0328348
-0.0328708
-0.0328338
-0.032724
-0.0325424
-0.0322907
-0.0319709
-0.0315847
-0.0311345
-0.0306226
-0.0300515
-0.0294239
-0.0287429
-0.0280116
-0.0272335
-0.0264122
-0.0255519
-0.0246567
-0.0237315
-0.0227815
-0.0218122
-0.0208301
-0.0198419
-0.0188551
-0.0178779
-0.0169187
-0.0159869
-0.0150915
-0.014242
-0.0134472
-0.0127154
-0.0120535
-0.0114669
-0.0109589
-0.0105304
-0.0101801
-0.00990375
-0.00969523
-0.00954636
-0.00944773
-0.00938932
-0.00936119
-0.00935406
-0.0093598
-0.00937171
-0.00938461
-0.00939481
-0.00939992
-0.00939865
-0.00939057
-0.00937592
-0.00935535
-0.00932987
-0.00930071
-0.00926911
-0.00923648
-0.00920402
-0.00917289
-0.00914404
-0.00911818
-0.00909574
-0.00907677
-0.00906099
-0.00904774
-0.00903593
-0.009024
-0.00901172
0.00066685
0.000674461
0.000665151
0.000636565
0.000590848
0.000531203
0.000461366
0.000386121
0.000309144
0.000233499
0.000161063
9.24036e-05
2.68254e-05
-3.75435e-05
-0.000103653
-0.000175459
-0.000257865
-0.000356701
-0.00047868
-0.000631325
-0.00082283
-0.00106184
-0.00135711
-0.00171711
-0.00214955
-0.00266092
-0.0032561
-0.00393802
-0.00470753
-0.00556334
-0.00650218
-0.00751894
-0.00860698
-0.00975841
-0.0109644
-0.0122154
-0.0135016
-0.0148129
-0.0161392
-0.0174709
-0.0187985
-0.0201131
-0.0214065
-0.022671
-0.0238999
-0.0250868
-0.0262262
-0.0273134
-0.0283443
-0.029315
-0.0302228
-0.0310649
-0.0318393
-0.0325443
-0.0331785
-0.0337409
-0.0342308
-0.0346478
-0.0349916
-0.0352622
-0.0354599
-0.0355853
-0.0356392
-0.0356226
-0.0355361
-0.0353807
-0.0351579
-0.0348694
-0.034517
-0.0341025
-0.033628
-0.0330954
-0.032507
-0.0318651
-0.0311721
-0.0304305
-0.0296429
-0.0288122
-0.0279411
-0.027033
-0.0260912
-0.0251197
-0.0241226
-0.023105
-0.0220722
-0.0210305
-0.0199871
-0.0189498
-0.0179274
-0.0169294
-0.0159655
-0.0150461
-0.0141811
-0.0133798
-0.0126503
-0.011999
-0.0114301
-0.0109449
-0.0105422
-0.0102179
-0.00996529
-0.00977576
-0.00963943
-0.00954591
-0.00948509
-0.00944771
-0.00942582
-0.00941299
-0.00940433
-0.00939635
-0.00938678
-0.00937433
-0.00935852
-0.00933928
-0.00931713
-0.00929279
-0.00926716
-0.0092412
-0.00921589
-0.00919209
-0.00917051
-0.00915161
-0.00913555
-0.00912216
-0.00911094
-0.00910103
-0.00909122
-0.00908131
0.000818516
0.000820037
0.000804417
0.00076947
0.000717396
0.00065151
0.000575962
0.000495121
0.000412725
0.000331488
0.000252786
0.000176576
0.000101453
2.47429e-05
-5.74095e-05
-0.000149976
-0.000258998
-0.000391537
-0.000555601
-0.000759974
-0.00101398
-0.0013271
-0.00170856
-0.00216676
-0.00270879
-0.00333999
-0.00406357
-0.00488048
-0.00578933
-0.00678655
-0.0078666
-0.00902225
-0.010245
-0.0115252
-0.0128526
-0.0142166
-0.0156064
-0.0170114
-0.0184213
-0.0198261
-0.0212168
-0.0225848
-0.0239224
-0.0252227
-0.0264797
-0.0276879
-0.0288429
-0.0299407
-0.030978
-0.0319522
-0.032861
-0.0337027
-0.0344758
-0.0351793
-0.0358124
-0.0363745
-0.0368655
-0.0372851
-0.0376335
-0.037911
-0.0381181
-0.0382554
-0.0383238
-0.0383244
-0.0382579
-0.0381255
-0.0379285
-0.0376684
-0.0373468
-0.0369654
-0.0365259
-0.03603
-0.0354796
-0.0348764
-0.0342224
-0.0335192
-0.0327688
-0.0319729
-0.0311333
-0.0302521
-0.0293311
-0.0283726
-0.0273791
-0.0263535
-0.0252992
-0.0242205
-0.0231224
-0.0220109
-0.0208932
-0.0197777
-0.018674
-0.0175928
-0.0165455
-0.0155441
-0.0146005
-0.013726
-0.0129302
-0.0122208
-0.0116025
-0.0110768
-0.0106418
-0.0102922
-0.01002
-0.00981495
-0.00966587
-0.00956131
-0.00949051
-0.00944393
-0.00941365
-0.00939344
-0.00937867
-0.00936611
-0.00935366
-0.00934021
-0.00932518
-0.0093086
-0.00929083
-0.00927245
-0.00925414
-0.00923663
-0.00922053
-0.00920626
-0.00919404
-0.00918376
-0.00917506
-0.00916727
-0.00915948
-0.00915158
0.000988462
0.00098292
0.000960492
0.000918794
0.00086053
0.000788606
0.000707217
0.00062057
0.000532148
0.000444174
0.000357403
0.000271058
0.000182894
8.9295e-05
-1.46447e-05
-0.000135064
-0.000279266
-0.000455633
-0.000673459
-0.000942673
-0.00127346
-0.00167574
-0.00215866
-0.00272995
-0.00339546
-0.00415877
-0.00502098
-0.00598068
-0.00703406
-0.00817515
-0.00939619
-0.0106879
-0.0120401
-0.0134416
-0.014881
-0.0163468