/*--------------------------------*- C++ -*----------------------------------*\
| =========                 |                                                 |
| \\      /  F ield         | OpenFOAM: The Open Source CFD Toolbox           |
|  \\    /   O peration     | Version:  2406                                  |
|   \\  /    A nd           | Website:  www.openfoam.com                      |
|    \\/     M anipulation  |                                                 |
\*---------------------------------------------------------------------------*/
FoamFile
{
    version     2.0;
    format      ascii;
    arch        "LSB;label=32;scalar=64";
    class       surfaceScalarField;
    location    "25.8";
    object      phi_0;
}
// * * * * * * * * * * * * * * * * * * * * * * * * * * * * * * * * * * * * * //

dimensions      [0 3 -1 0 0 0 0];

oriented        oriented;

internalField   nonuniform List<scalar> 
1740
(
5.35439e-06
-5.3544e-06
1.30585e-05
-7.70412e-06
1.87396e-05
-5.68109e-06
2.10354e-05
-2.29585e-06
2.04834e-05
5.52029e-07
1.75306e-05
2.95281e-06
1.13493e-05
6.18132e-06
-8.46622e-08
1.1434e-05
-2.12752e-05
2.11905e-05
-5.68232e-05
3.55481e-05
-0.000107355
5.05313e-05
-0.000168417
6.10628e-05
-0.000230737
6.23199e-05
-0.000282939
5.22022e-05
-0.000316257
3.33173e-05
-0.000324811
8.55418e-06
-0.000305704
-1.9107e-05
-0.000257996
-4.77077e-05
-0.000184847
-7.31492e-05
-9.36733e-05
-9.11739e-05
2.29274e-06
-9.5966e-05
8.64901e-05
-8.41974e-05
0.000141535
-5.50448e-05
0.000156916
-1.53808e-05
0.00013581
2.11053e-05
9.59798e-05
3.98306e-05
5.62801e-05
3.96997e-05
2.66147e-05
2.96654e-05
8.12388e-06
1.84908e-05
8.12388e-06
8.47735e-06
-1.38318e-05
1.96515e-05
-1.88783e-05
2.49337e-05
-1.09632e-05
2.18794e-05
7.58374e-07
9.54288e-06
1.28886e-05
-1.46409e-05
2.71366e-05
-5.69066e-05
4.84469e-05
-0.000125106
7.96333e-05
-0.000218908
0.000114993
-0.000326588
0.000143228
-0.000431074
0.000155017
-0.000519032
0.000149021
-0.000583945
0.000127233
-0.000624227
9.24845e-05
-0.000639223
4.83133e-05
-0.000629265
-1.40445e-06
-0.000592303
-5.60686e-05
-0.00052961
-0.000110401
-0.000441904
-0.000160855
-0.000332158
-0.00020092
-0.000207489
-0.000220635
-8.12303e-05
-0.000210456
2.91285e-05
-0.000165404
0.000104916
-9.1168e-05
0.000135775
-9.75441e-06
0.000127054
4.85518e-05
9.39645e-05
7.27895e-05
5.35205e-05
7.01093e-05
1.84816e-05
5.35297e-05
2.66055e-05
8.02428e-06
-2.1856e-05
1.4252e-05
-2.5106e-05
9.4851e-06
-6.19633e-06
-1.00576e-05
2.03011e-05
-4.91212e-05
5.19521e-05
-0.000115764
9.37796e-05
-0.000214958
0.00014764
-0.000338181
0.000202857
-0.000465551
0.000242363
-0.000580137
0.000257813
-0.000674641
0.000249522
-0.000746782
0.000221162
-0.000797161
0.000177613
-0.000827717
0.00012304
-0.000839892
6.04888e-05
-0.00083269
-8.6064e-06
-0.000807818
-8.09408e-05
-0.000761961
-0.000156258
-0.000692581
-0.000230235
-0.000597795
-0.000295706
-0.000477974
-0.000340456
-0.000338872
-0.000349558
-0.000194651
-0.000309625
-6.76865e-05
-0.000218132
1.93033e-05
-9.67442e-05
5.84131e-05
9.44196e-06
6.19267e-05
6.9276e-05
4.33797e-05
8.86563e-05
1.68181e-05
8.00913e-05
4.34236e-05
3.62081e-06
-2.54768e-05
-2.10047e-06
-1.93847e-05
-2.57514e-05
1.74546e-05
-7.32451e-05
6.77948e-05
-0.000152169
0.000130876
-0.000264943
0.000206553
-0.000399093
0.00028179
-0.000532462
0.000336226
-0.000649017
0.000358917
-0.000742452
0.000351249
-0.00081251
0.000319579
-0.000862027
0.000270678
-0.000894663
0.000210249
-0.000913918
0.000142295
-0.000922397
6.89675e-05
-0.000921212
-9.79085e-06
-0.000910967
-9.11861e-05
-0.000889636
-0.000177588
-0.000852931
-0.00026694
-0.000794578
-0.000354059
-0.000706562
-0.000428473
-0.000583092
-0.000473027
-0.000426667
-0.00046605
-0.000256459
-0.00038834
-0.000108924
-0.000244279
-1.95745e-05
-7.99074e-05
1.44765e-05
3.52249e-05
1.87294e-05
8.44035e-05
8.28631e-06
9.05344e-05
5.17099e-05
-5.74307e-06
-1.97338e-05
-3.03061e-05
5.17831e-06
-8.01413e-05
6.72898e-05
-0.000161234
0.000148887
-0.000275087
0.000244729
-0.000409508
0.000340974
-0.000541956
0.000414239
-0.000654387
0.000448657
-0.000740374
0.000444904
-0.000800544
0.000411419
-0.000838684
0.00035772
-0.000860371
0.000292365
-0.000871109
0.000220987
-0.000875425
0.000146611
-0.000876675
7.02177e-05
-0.000878732
-7.73373e-06
-0.000880023
-8.98946e-05
-0.000881299
-0.000176313
-0.000879953
-0.000268286
-0.000868921
-0.000365092
-0.00083585
-0.000461543
-0.000764639
-0.000544238
-0.000641108
-0.000589581
-0.000463197
-0.000566252
-0.000259746
-0.00044773
-9.45065e-05
-0.000245147
-1.77055e-05
-4.15761e-05
1.8046e-06
6.48933e-05
2.91521e-06
8.94238e-05
5.46251e-05
-2.00884e-05
3.54643e-07
-6.7585e-05
5.26749e-05
-0.000144258
0.000143963
-0.000251272
0.000255901
-0.000379219
0.000372677
-0.00050695
0.000468705
-0.000614052
0.000521341
-0.000691742
0.000526346
-0.000740699
0.000493861
-0.000765998
0.000436718
-0.000774975
0.000366697
-0.000774677
0.000292067
-0.000770422
0.000216731
-0.000765625
0.000141814
-0.000762411
6.70043e-05
-0.000762212
-7.93325e-06
-0.000766026
-8.60807e-05
-0.000775411
-0.000166927
-0.000791165
-0.000252532
-0.000811177
-0.00034508
-0.000827353
-0.000445368
-0.00082301
-0.000548581
-0.000772451
-0.00064014
-0.000649842
-0.000688862
-0.000448802
-0.00064877
-0.000213735
-0.000480213
-4.94767e-05
-0.000205834
-1.60166e-06
1.70183e-05
2.64359e-06
8.51786e-05
5.72687e-05
-3.67923e-05
3.7147e-05
-0.000105848
0.000121731
-0.000202007
0.000240122
-0.000319245
0.000373139
-0.000440404
0.000493835
-0.00054409
0.000572392
-0.000617711
0.000594962
-0.000660624
0.00056926
-0.000678812
0.000512049
-0.000681139
0.000439044
-0.00067647
0.000362028
-0.000670606
0.000286203
-0.000666359
0.000212484
-0.0006642
0.000139655
-0.000663611
6.64152e-05
-0.000663342
-8.20156e-06
-0.000665033
-8.43898e-05
-0.000669777
-0.000162184
-0.000680429
-0.000241881
-0.000700268
-0.00032524
-0.000729997
-0.000415639
-0.000762267
-0.000516311
-0.00077703
-0.000625377
-0.000740274
-0.000725617
-0.000613792
-0.000775253
-0.000388165
-0.00070584
-0.000131292
-0.000462707
-2.69673e-06
-0.000111577
4.49851e-06
7.79833e-05
6.17672e-05
-5.14507e-05
8.85976e-05
-0.000135225
0.000205505
-0.000239274
0.000344171
-0.000351963
0.000485828
-0.000453936
0.000595808
-0.000528988
0.000647444
-0.000572567
0.000638541
-0.00059019
0.000586882
-0.000591589
0.000513448
-0.000587062
0.000434518
-0.00058369
0.000358657
-0.000584091
0.000286604
-0.000587841
0.000216234
-0.000592972
0.000144785
-0.000597449
7.08922e-05
-0.000599967
-5.68276e-06
-0.000600601
-8.3756e-05
-0.000600547
-0.000162237
-0.00060227
-0.000240158
-0.000609691
-0.000317819
-0.000627454
-0.000397876
-0.000657987
-0.000485777
-0.000695537
-0.000587827
-0.000717523
-0.000703631
-0.000681462
-0.000811314
-0.000536683
-0.000850618
-0.000280115
-0.000719276
-4.20064e-05
-0.000349685
7.89843e-06
2.80785e-05
6.96656e-05
-6.01489e-05
0.000148747
-0.000149815
0.000295171
-0.000251248
0.000445603
-0.000350215
0.000584796
-0.000429551
0.000675144
-0.000479432
0.000697325
-0.000501816
0.000660925
-0.000506095
0.000591162
-0.000503378
0.00051073
-0.000502458
0.000433598
-0.000506836
0.000363035
-0.000515965
0.000295732
-0.000527378
0.000227647
-0.000538348
0.000155755
-0.000546739
7.92837e-05
-0.000551472
-9.49753e-07
-0.000552052
-8.3176e-05
-0.000549371
-0.000164919
-0.000545316
-0.000244213
-0.000543045
-0.00032009
-0.000547263
-0.000393658
-0.00056355
-0.000469491
-0.000594991
-0.000556385
-0.000634243
-0.000664379
-0.000653815
-0.000791742
-0.000602379
-0.000902055
-0.000426119
-0.000895536
-0.000134385
-0.000641419
1.06487e-05
-0.000116955
8.03143e-05
-6.11149e-05
0.000209861
-0.000148317
0.000382373
-0.000239712
0.000536998
-0.000321275
0.000666359
-0.000379827
0.000733696
-0.000411325
0.000728822
-0.000421908
0.000671508
-0.000422391
0.000591644
-0.000422909
0.000511248
-0.000429095
0.000439785
-0.000441289
0.000375229
-0.000457224
0.000311668
-0.000473924
0.000244346
-0.000488881
0.000170712
-0.000500345
9.07474e-05
-0.000506989
5.69431e-06
-0.000508713
-8.14518e-05
-0.000505614
-0.000168017
-0.000498874
-0.000250953
-0.000490671
-0.000328294
-0.000484556
-0.000399773
-0.000486123
-0.000467924
-0.000502562
-0.000539946
-0.000537307
-0.000629634
-0.00057931
-0.000749738
-0.000587479
-0.000893886
-0.000492858
-0.000990157
-0.000259899
-0.000874378
-1.22722e-05
-0.000364583
6.80421e-05
-5.48149e-05
0.000264676
-0.000133181
0.000460739
-0.000210658
0.000614476
-0.000274948
0.000730648
-0.000317058
0.000775806
-0.000337027
0.000748792
-0.000342802
0.000677282
-0.00034462
0.000593463
-0.000350227
0.000516855
-0.000362254
0.000451812
-0.000379304
0.00039228
-0.000398709
0.000331073
-0.000417829
0.000263466
-0.00043467
0.000187553
-0.00044771
0.000103787
-0.000456068
1.4052e-05
-0.000459141
-7.83781e-05
-0.00045722
-0.000169939
-0.000451078
-0.000257094
-0.000442125
-0.000337247
-0.000432449
-0.000409449
-0.000425349
-0.000475024
-0.000427403
-0.000537892
-0.000446697
-0.000610339
-0.000486341
-0.000710095
-0.000523599
-0.000856628
-0.000504634
-0.00100912
-0.000356867
-0.00102214
-6.70661e-05
-0.000654384
9.76047e-07
-4.27954e-05
0.000307472
-0.000108252
0.000526196
-0.000170256
0.000676479
-0.000218857
0.000779249
-0.000248744
0.000805693
-0.000262195
0.000762243
-0.000267033
0.00068212
-0.000271648
0.000598078
-0.000281157
0.000526364
-0.000296193
0.000466848
-0.000314859
0.000410945
-0.000334823
0.000351037
-0.000354092
0.000282735
-0.000371185
0.000204646
-0.000384888
0.00011749
-0.00039432
2.34841e-05
-0.00039892
-7.37777e-05
-0.00039869
-0.000170169
-0.000394178
-0.000261607
-0.000386477
-0.000344948
-0.000377453
-0.000418474
-0.000369023
-0.000483453
-0.000365192
-0.000541723
-0.000371871
-0.000603661
-0.000398409
-0.000683557
-0.000442677
-0.00081236
-0.000467523
-0.000984276
-0.000381552
-0.00110812
-0.000139249
-0.000896686
-0.000138273
-2.73171e-05
0.000334789
-7.73895e-05
0.000576269
-0.000123856
0.000722946
-0.000159018
0.000814412
-0.000180285
0.000826961
-0.000190489
0.000772446
-0.00019594
0.000687572
-0.000202627
0.000604765
-0.000213523
0.00053726
-0.000228422
0.000481746
-0.000245745
0.000428268
-0.000263849
0.000369141
-0.000281417
0.000300304
-0.000297412
0.000220641
-0.00031089
0.000130968
-0.000321059
3.36533e-05
-0.000327378
-6.7459e-05
-0.00032971
-0.000167837
-0.000328322
-0.000262995
-0.000323643
-0.000349626
-0.000317311
-0.000424806
-0.000310364
-0.0004904
-0.000305512
-0.000546575
-0.000305911
-0.000603262
-0.000321738
-0.00066773
-0.000360402
-0.000773695
-0.000404791
-0.000939888
-0.000376781
-0.00113613
-0.000207299
-0.00106617
-0.000345573
-1.03513e-05
0.00034514
-4.3591e-05
0.000609509
-7.50139e-05
0.000754368
-9.86084e-05
0.000838006
-0.000113294
0.000841647
-0.000121467
0.000780618
-0.000127389
0.000693494
-0.000134581
0.000611957
-0.000144559
0.000547239
-0.000157016
0.000494203
-0.000171004
0.000442256
-0.000185584
0.000383721
-0.000200007
0.000314726
-0.000213627
0.000234261
-0.000225811
0.000143152
-0.000236019
4.3861e-05
-0.000243804
-5.96734e-05
-0.00024889
-0.000162752
-0.000251475
-0.00026041
-0.000251562
-0.00034954
-0.000250159
-0.000426209
-0.000247882
-0.000492677
-0.000246354
-0.000548104
-0.000246363
-0.000603252
-0.000255988
-0.000658105
-0.000282783
-0.000746901
-0.000328148
-0.000894522
-0.000335989
-0.00112828
-0.000223494
-0.00117866
-0.000569067
6.8347e-06
0.000338305
-8.70775e-06
0.000625051
-2.64464e-05
0.000772107
-3.99648e-05
0.000851525
-4.92988e-05
0.000850981
-5.60984e-05
0.000787418
-6.21333e-05
0.000699528
-6.84976e-05
0.000618322
-7.57881e-05
0.000554529
-8.3979e-05
0.000502394
-9.29464e-05
0.000451223
-0.000102485
0.000393259
-0.000112404
0.000324646
-0.000122503
0.00024436
-0.00013254
0.00015319
-0.000142247
5.35676e-05
-0.000151418
-5.05025e-05
-0.000159508
-0.000154662
-0.000166492
-0.000253426
-0.00017219
-0.000343842
-0.000176565
-0.000421834
-0.000180238
-0.000489004
-0.000183923
-0.000544419
-0.000188051
-0.000599124
-0.000196786
-0.00064937
-0.000215882
-0.000727804
-0.000256772
-0.000853632
-0.000282437
-0.00110262
-0.000205223
-0.00125588
-0.00077429
2.31229e-05
0.000315182
2.45687e-05
0.000623605
2.02907e-05
0.000776385
1.63984e-05
0.000855417
1.22798e-05
0.000855099
7.43466e-06
0.000792263
2.40696e-06
0.000704556
-2.27082e-06
0.000623
-6.07142e-06
0.00055833
-9.29454e-06
0.000505617
-1.2577e-05
0.000454506
-1.64517e-05
0.000397134
-2.12761e-05
0.00032947
-2.72876e-05
0.000250371
-3.46599e-05
0.000160562
-4.33525e-05
6.22602e-05
-5.34518e-05
-4.04033e-05
-6.44627e-05
-0.000143651
-7.60774e-05
-0.000241811
-8.75453e-05
-0.000332374
-9.93533e-05
-0.000410026
-0.000110079
-0.000478278
-0.000120682
-0.000533816
-0.000130308
-0.000589497
-0.000140972
-0.000638707
-0.000156399
-0.000712377
-0.000191085
-0.000818946
-0.00022387
-0.00106983
-0.000177019
-0.00130273
-0.000951309
3.67406e-05
0.000278442
5.54373e-05
0.000604909
6.43349e-05
0.000767487
6.987e-05
0.000849882
7.07687e-05
0.0008542
6.76009e-05
0.000795431
6.32481e-05
0.000708909
6.05852e-05
0.000625662
6.06434e-05
0.000558271
6.28094e-05
0.000503451
6.56716e-05
0.000451644
6.79618e-05
0.000394844
6.87456e-05
0.000328686
6.73515e-05
0.000251766
6.31091e-05
0.000164804
5.5795e-05
6.95743e-05
4.53078e-05
-2.99161e-05
3.15688e-05
-0.000129912
1.61209e-05
-0.000226363
-2.52339e-06
-0.00031373
-1.96207e-05
-0.000392928
-3.88546e-05
-0.000459044
-5.68305e-05
-0.00051584
-7.32691e-05
-0.000573059
-8.96949e-05
-0.000622281
-0.000106474
-0.000695598
-0.000137727
-0.000787694
-0.000173
-0.00103456
-0.000148201
-0.00132753
-0.00109951
4.66079e-05
0.000231834
8.21235e-05
0.000569393
0.000104246
0.000745365
0.000119426
0.000834702
0.000126573
0.000847053
0.000126722
0.000795282
0.000124153
0.000711477
0.000123314
0.000626502
0.000126443
0.000555142
0.000133108
0.000496786
0.000141411
0.000443341
0.000149363
0.000386892
0.00015535
0.0003227
0.000158303
0.000248812
0.00015712
0.000165987
0.000151238
7.54562e-05
0.000140446
-1.91243e-05
0.000125
-0.000114465
0.000105004
-0.000206368
8.23655e-05
-0.000291091
5.71672e-05
-0.00036773
3.0507e-05
-0.000432384
6.97163e-06
-0.000492305
-1.92357e-05
-0.000546852
-4.05158e-05
-0.000601001
-6.09379e-05
-0.000675176
-9.13408e-05
-0.000757291
-0.000129335
-0.000996566
-0.0001236
-0.00133326
-0.00122311
5.14053e-05
0.000180429
0.000103015
0.000517783
0.000138682
0.000709697
0.000163924
0.000809461
0.000178131
0.000832846
0.000182206
0.000791208
0.000181381
0.000712302
0.000181716
0.000626167
0.000186801
0.000550057
0.000196836
0.000486751
0.000209715
0.000430462
0.000222834
0.000373773
0.000233768
0.000311765
0.000240962
0.000241619
0.000243009
0.00016394
0.000238992
7.94734e-05
0.000228386
-8.51832e-06
0.000211488
-9.75676e-05
0.000188579
-0.000183459
0.000161352
-0.000263863
0.00013
-0.000336378
9.78731e-05
-0.000400257
6.51251e-05
-0.000459557
3.31672e-05
-0.000514894
6.51886e-06
-0.000574352
-2.28388e-05
-0.000645818
-5.52501e-05
-0.000724879
-9.56671e-05
-0.000956149
-0.000103596
-0.00132533
-0.00132671
5.02562e-05
0.000130173
0.000116138
0.000451902
0.000166017
0.000659818
0.000202513
0.000772964
0.000225718
0.000809641
0.000236315
0.000780611
0.000239154
0.000709463
0.000241057
0.000624265
0.000247001
0.000544112
0.000258443
0.000475309
0.00027375
0.000415155
0.000290197
0.000357326
0.000304728
0.000297234
0.000315132
0.000231215
0.0003197
0.000159373
0.000317198
8.19753e-05
0.000307025
1.65455e-06
0.000289141
-7.96838e-05
0.000264056
-0.000158374
0.000232998
-0.000232805
0.000197244
-0.000300624
0.000159563
-0.000362576
0.00012054
-0.000420534
8.35028e-05
-0.000477856
4.79172e-05
-0.000538767
1.23238e-05
-0.000610225
-2.32337e-05
-0.000689322
-6.85198e-05
-0.000910863
-8.92477e-05
-0.00130461
-0.00141595
4.37393e-05
8.64333e-05
0.000120536
0.000375105
0.000184157
0.000596197
0.000232398
0.000724724
0.000265668
0.00077637
0.000283946
0.000762333
0.000291579
0.00070183
0.000295567
0.000620276
0.000301894
0.000537786
0.00031346
0.000463743
0.000329533
0.000399082
0.000347695
0.000339164
0.000364702
0.000280226
0.000377695
0.000218222
0.000384517
0.00015255
0.000383735
8.27573e-05
0.000374379
1.10106e-05
0.000356383
-6.16874e-05
0.000330188
-0.00013218
0.000296967
-0.000199584
0.000258391
-0.000262048
0.00021666
-0.000320845
0.000173334
-0.000377209
0.000130613
-0.000435135
8.79761e-05
-0.00049613
4.6513e-05
-0.000568762
5.17106e-06
-0.00064798
-4.79629e-05
-0.000857729
-7.99887e-05
-0.00127258
-0.00149594
3.44154e-05
5.2018e-05
0.000115319
0.000294201
0.000191131
0.000520385
0.000252062
0.000663793
0.00029773
0.000730702
0.000327697
0.000732366
0.000344222
0.000685305
0.000353237
0.000611261
0.000361091
0.000529932
0.000372017
0.000452817
0.000386779
0.00038432
0.000403917
0.000322026
0.000420694
0.000263449
0.000434139
0.000204777
0.000441723
0.000144967
0.000441665
8.28149e-05
0.000432967
1.97085e-05
0.000415139
-4.38593e-05
0.000388734
-0.000105775
0.000354657
-0.000165507
0.000314755
-0.000222146
0.00027063
-0.00027672
0.000224281
-0.000330859
0.000176669
-0.000387524
0.00012821
-0.000447671
7.91506e-05
-0.000519702
2.88552e-05
-0.000597685
-2.90642e-05
-0.00079981
-7.21337e-05
-0.00122951
-0.00156808
2.42855e-05
2.77325e-05
0.000100947
0.000217539
0.000184422
0.000436911
0.000256725
0.00059149
0.000314773
0.000672654
0.000357285
0.000689854
0.000385116
0.000657475
0.000402506
0.000593871
0.000414863
0.000517575
0.000426941
0.000440738
0.000440907
0.000370354
0.000456524
0.000306409
0.000471964
0.00024801
0.000484699
0.000192041
0.000492292
0.000137374
0.000492734
8.23733e-05
0.000484928
2.75142e-05
0.000468132
-2.70638e-05
0.000442836
-8.04779e-05
0.00040949
-0.000132161
0.00036993
-0.000182586
0.000324824
-0.000231613
0.000276306
-0.000282341
0.000223678
-0.000334896
0.000168942
-0.000392935
0.000110486
-0.000461246
5.29479e-05
-0.000540147
-1.11955e-05
-0.000735666
-6.05697e-05
-0.00118014
-0.00162865
1.49903e-05
1.27422e-05
7.83825e-05
0.000154147
0.000163056
0.000352237
0.000245294
0.000509253
0.000317948
0.0006
0.000377362
0.00063044
0.000421518
0.000613318
0.000452837
0.000562552
0.000474823
0.000495589
0.00049179
0.000423771
0.000506871
0.000355274
0.00052117
0.000292109
0.000534204
0.000234976
0.000544449
0.000181796
0.000550176
0.000131647
0.000549497
8.30524e-05
0.000541451
3.55598e-05
0.000525124
-1.0736e-05
0.00050079
-5.61447e-05
0.000468369
-9.97395e-05
0.000429424
-0.000143641
0.000383503
-0.000185693
0.000332671
-0.000231509
0.000274545
-0.00027677
0.000212993
-0.000331382
0.000143788
-0.000392041
7.92318e-05
-0.000475591
7.90534e-06
-0.00066434
-4.84322e-05
-0.0011238
-0.00167708
5.49649e-06
7.24572e-06
5.07459e-05
0.000108898
0.000124612
0.000278371
0.000210542
0.000423323
0.000294639
0.000515903
0.000369032
0.000556046
0.000431792
0.000550559
0.000481051
0.000513292
0.00051804
0.000458601
0.00054606
0.000395751
0.000567899
0.000333435
0.000585471
0.000274537
0.000599408
0.00022104
0.000609336
0.000171867
0.00061443
0.000126553
0.000613443
8.40397e-05
0.000605662
4.33404e-05
0.000590023
4.90321e-06
0.000566936
-3.30579e-05
0.000535577
-6.83802e-05
0.0004971
-0.000105164
0.000450129
-0.000138721
0.000396347
-0.000177727
0.000332374
-0.000212796
0.000262927
-0.000261936
0.000181198
-0.000310313
0.000108276
-0.000402669
2.40607e-05
-0.000580124
-4.63846e-05
-0.00105335
-0.00172346
-9.73936e-06
1.69851e-05
1.29111e-05
8.62473e-05
7.05947e-05
0.000220688
0.00015972
0.000334197
0.000253629
0.000421993
0.000347487
0.000462189
0.000431971
0.000466074
0.000502812
0.000442451
0.000559817
0.000401597
0.000604323
0.000351245
0.000638134
0.000299624
0.000663476
0.000249195
0.000681615
0.000202901
0.00069336
0.000160122
0.000698592
0.000121321
0.000697187
8.54448e-05
0.000688612
5.19154e-05
0.00067247
2.10459e-05
0.000648588
-9.17618e-06
0.000616586
-3.63782e-05
0.000576371
-6.4949e-05
0.00052719
-8.954e-05
0.00046937
-0.000119907
0.000400516
-0.000143943
0.00032454
-0.00018596
0.000234126
-0.000219899
0.00015154
-0.000320082
4.848e-05
-0.000477064
-3.56292e-05
-0.000969245
-0.00175909
-4.22476e-05
5.92327e-05
-4.13423e-05
8.53419e-05
-5.86268e-06
0.000185208
7.51439e-05
0.000253191
0.000172051
0.000325087
0.000281766
0.000352473
0.000385109
0.000362732
0.000478201
0.000349359
0.000557364
0.000322434
0.000622465
0.000286144
0.000673195
0.000248893
0.000712791
0.0002096
0.000740988
0.000174703
0.000760756
0.000140354
0.000770882
0.000111194
0.000773648
8.26788e-05
0.000767167
5.83968e-05
0.000753542
3.46708e-05
0.000730531
1.38354e-05
0.000700075
-5.92267e-06
0.000660044
-2.49185e-05
0.000611618
-4.11133e-05
0.000553364
-6.16538e-05
0.000484816
-7.53944e-05
0.000407686
-0.00010883
0.00031975
-0.000131963
0.000229893
-0.000230226
0.000133431
-0.000380602
3.96762e-05
-0.00087549
-0.00171941
-0.000141973
0.000201206
-0.000130266
7.36354e-05
-9.67382e-05
0.00015168
-6.20015e-06
0.000162653
0.000102064
0.000216822
0.000228384
0.000226153
0.000347103
0.000244013
0.000463321
0.000233141
0.00056157
0.000224185
0.00064701
0.000200704
0.000714444
0.000181459
0.000769196
0.000154849
0.000808769
0.00013513
0.000837963
0.000111161
0.000854749
9.44077e-05
0.000863023
7.44051e-05
0.000860538
6.08822e-05
0.000850408
4.48003e-05
0.000830928
3.33152e-05
0.000803898
2.11072e-05
0.000768759
1.02205e-05
0.000726069
1.57723e-06
0.0006752
-1.07849e-05
0.000616868
-1.70625e-05
0.00054754
-3.95019e-05
0.000475327
-5.97491e-05
0.000384323
-0.000139222
0.000313168
-0.000309447
0.000190294
-0.000752616
-0.00152912
-8.42582e-05
0.000285464
-0.000155962
0.000145339
-0.000135504
0.000131222
-8.22669e-05
0.000109416
2.97146e-05
0.000104841
0.000152074
0.000103793
0.000287032
0.000109055
0.000412455
0.000107718
0.000529427
0.000107213
0.000630522
9.96086e-05
0.000718
9.39805e-05
0.000789531
8.33173e-05
0.000848448
7.62134e-05
0.000894388
6.52207e-05
0.000929873
5.89229e-05
0.000955439
4.88391e-05
0.000972247
4.40739e-05
0.00098204
3.50074e-05
0.000983536
3.18196e-05
0.000981093
2.35494e-05
0.000969482
2.18314e-05
0.000957463
1.35968e-05
0.00093384
1.28377e-05
0.000914324
2.45387e-06
0.000873197
1.62512e-06
0.000836081
-2.26335e-05
0.000747124
-5.02648e-05
0.000643525
-0.000205848
0.000403871
-0.000512962
-0.00112525
0.000285464
0.000430803
0.000562025
0.000671441
0.000776282
0.000880075
0.00098913
0.00109685
0.00120406
0.00130367
0.00139765
0.00148097
0.00155718
0.0016224
0.00168132
0.00173016
0.00177424
0.00180924
0.00184106
0.00186461
0.00188645
0.00190004
0.00191288
0.00191533
0.00191696
0.00189433
0.00184406
0.00163821
0.00112525
)
;

boundaryField
{
    movingWall
    {
        type            calculated;
        value           uniform 0;
    }
    fixedWalls
    {
        type            calculated;
        value           uniform 0;
    }
    frontAndBack
    {
        type            empty;
    }
}


// ************************************************************************* //
