/*--------------------------------*- C++ -*----------------------------------*\
| =========                 |                                                 |
| \\      /  F ield         | OpenFOAM: The Open Source CFD Toolbox           |
|  \\    /   O peration     | Version:  2406                                  |
|   \\  /    A nd           | Website:  www.openfoam.com                      |
|    \\/     M anipulation  |                                                 |
\*---------------------------------------------------------------------------*/
FoamFile
{
    version     2.0;
    format      ascii;
    arch        "LSB;label=32;scalar=64";
    class       volVectorField;
    location    "7.85";
    object      U;
}
// * * * * * * * * * * * * * * * * * * * * * * * * * * * * * * * * * * * * * //

dimensions      [0 1 -1 0 0 0 0];

internalField   nonuniform List<vector> 
3600
(
(1.76741e-05 -1.67659e-05 0)
(-2.81558e-05 1.67191e-05 0)
(-0.000157578 4.27122e-05 0)
(-0.000349036 6.11628e-05 0)
(-0.000580841 6.74471e-05 0)
(-0.000825234 7.047e-05 0)
(-0.00108117 6.93789e-05 0)
(-0.00133189 6.85212e-05 0)
(-0.00158521 6.65369e-05 0)
(-0.00183011 6.54017e-05 0)
(-0.00207544 6.38255e-05 0)
(-0.00231275 6.2846e-05 0)
(-0.00254928 6.1479e-05 0)
(-0.00277801 6.03677e-05 0)
(-0.00300418 5.88086e-05 0)
(-0.00322176 5.72339e-05 0)
(-0.00343417 5.51363e-05 0)
(-0.00363615 5.28074e-05 0)
(-0.00382957 4.98696e-05 0)
(-0.00400969 4.65157e-05 0)
(-0.00417712 4.24611e-05 0)
(-0.00432745 3.78368e-05 0)
(-0.00446034 3.24368e-05 0)
(-0.00457167 2.63657e-05 0)
(-0.00466048 1.94976e-05 0)
(-0.00472304 1.19443e-05 0)
(-0.00475819 3.66904e-06 0)
(-0.00476285 -5.18058e-06 0)
(-0.00473618 -1.45435e-05 0)
(-0.0046761 -2.42196e-05 0)
(-0.00458262 -3.40524e-05 0)
(-0.00445502 -4.37929e-05 0)
(-0.00429463 -5.32106e-05 0)
(-0.00410237 -6.20359e-05 0)
(-0.00388113 -7.00083e-05 0)
(-0.00363347 -7.68881e-05 0)
(-0.00336379 -8.24424e-05 0)
(-0.00307599 -8.65219e-05 0)
(-0.00277557 -8.89755e-05 0)
(-0.00246713 -8.97926e-05 0)
(-0.00215661 -8.89348e-05 0)
(-0.0018485 -8.65472e-05 0)
(-0.00154847 -8.26955e-05 0)
(-0.00126006 -7.76576e-05 0)
(-0.000988105 -7.15543e-05 0)
(-0.000734653 -6.47379e-05 0)
(-0.000503512 -5.73059e-05 0)
(-0.000295072 -4.96069e-05 0)
(-0.000112447 -4.16253e-05 0)
(4.53457e-05 -3.36276e-05 0)
(0.000175006 -2.5405e-05 0)
(0.000278293 -1.70855e-05 0)
(0.000350473 -8.23093e-06 0)
(0.000393618 1.14446e-06 0)
(0.000400619 1.15738e-05 0)
(0.000374942 2.26862e-05 0)
(0.000309047 3.39274e-05 0)
(0.000215802 4.1614e-05 0)
(0.000101762 3.9259e-05 0)
(1.48862e-05 1.60448e-05 0)
(-1.64855e-05 2.83092e-05 0)
(-0.000212551 0.000207035 0)
(-0.000581906 0.000342608 0)
(-0.00106965 0.000442139 0)
(-0.00164762 0.00049115 0)
(-0.00226298 0.00051866 0)
(-0.0029097 0.000524842 0)
(-0.00355559 0.000525709 0)
(-0.0042084 0.000519566 0)
(-0.0048486 0.000513592 0)
(-0.0054872 0.000505047 0)
(-0.00611044 0.000497105 0)
(-0.00672767 0.00048724 0)
(-0.00732775 0.000476994 0)
(-0.00791706 0.000464404 0)
(-0.00848583 0.000450286 0)
(-0.00903752 0.000433159 0)
(-0.00956313 0.000413442 0)
(-0.0100636 0.000389995 0)
(-0.0105304 0.00036301 0)
(-0.0109624 0.00033162 0)
(-0.0113513 0.000295936 0)
(-0.0116944 0.000255373 0)
(-0.0119837 0.000210107 0)
(-0.0122159 0.000159903 0)
(-0.0123837 0.000105151 0)
(-0.0124836 4.60469e-05 0)
(-0.0125098 -1.6687e-05 0)
(-0.0124599 -8.23682e-05 0)
(-0.0123304 -0.000149889 0)
(-0.0121209 -0.000218103 0)
(-0.0118308 -0.000285576 0)
(-0.0114627 -0.00035083 0)
(-0.0110193 -0.00041229 0)
(-0.0105067 -0.000468395 0)
(-0.00993103 -0.000517717 0)
(-0.00930131 -0.000558921 0)
(-0.0086264 -0.000591046 0)
(-0.00791766 -0.000613272 0)
(-0.00718539 -0.000625348 0)
(-0.00644186 -0.00062713 0)
(-0.0056973 -0.000619158 0)
(-0.00496345 -0.000601927 0)
(-0.00424893 -0.000576639 0)
(-0.00356383 -0.000544179 0)
(-0.00291415 -0.000506083 0)
(-0.00230789 -0.000463218 0)
(-0.00174816 -0.000417002 0)
(-0.00124149 -0.000367811 0)
(-0.000788791 -0.000316493 0)
(-0.000396711 -0.000262562 0)
(-6.52847e-05 -0.000206056 0)
(0.000196595 -0.000145702 0)
(0.000389011 -8.1202e-05 0)
(0.00050004 -1.18672e-05 0)
(0.000532958 6.01662e-05 0)
(0.00047822 0.000129299 0)
(0.000357262 0.000180409 0)
(0.000184761 0.000185311 0)
(3.65465e-05 0.000100344 0)
(-4.89417e-05 0.000168562 0)
(-0.000380893 0.000588457 0)
(-0.000963438 0.000903868 0)
(-0.00169613 0.00113074 0)
(-0.00255222 0.00125576 0)
(-0.00345916 0.00132672 0)
(-0.00441155 0.00135097 0)
(-0.00536653 0.00135716 0)
(-0.00633221 0.00134694 0)
(-0.00728316 0.00133312 0)
(-0.00823084 0.00131322 0)
(-0.00915797 0.00129226 0)
(-0.0100741 0.00126685 0)
(-0.0109655 0.00123891 0)
(-0.0118383 0.00120545 0)
(-0.0126803 0.00116714 0)
(-0.0134943 0.00112158 0)
(-0.0142689 0.00106887 0)
(-0.0150036 0.00100708 0)
(-0.0156877 0.000936067 0)
(-0.0163181 0.000854369 0)
(-0.0168843 0.000761842 0)
(-0.0173817 0.000657597 0)
(-0.0178001 0.000541814 0)
(-0.0181342 0.000414349 0)
(-0.0183748 0.000276008 0)
(-0.0185172 0.000127594 0)
(-0.0185541 -2.92334e-05 0)
(-0.0184826 -0.000192614 0)
(-0.0182986 -0.00035997 0)
(-0.0180019 -0.000528459 0)
(-0.0175925 -0.000694764 0)
(-0.0170744 -0.000855391 0)
(-0.016452 -0.00100673 0)
(-0.0157334 -0.00114521 0)
(-0.0149276 -0.00126756 0)
(-0.0140465 -0.00137081 0)
(-0.0131024 -0.00145274 0)
(-0.0121101 -0.00151158 0)
(-0.0110835 -0.00154668 0)
(-0.0100385 -0.00155778 0)
(-0.00898889 -0.00154595 0)
(-0.00794972 -0.0015124 0)
(-0.00693268 -0.00145959 0)
(-0.00595077 -0.00138963 0)
(-0.00501244 -0.00130566 0)
(-0.00412804 -0.00120978 0)
(-0.0033026 -0.00110479 0)
(-0.00254459 -0.000991742 0)
(-0.00185662 -0.000872034 0)
(-0.00124731 -0.000744856 0)
(-0.0007186 -0.000609739 0)
(-0.000281734 -0.000464357 0)
(6.10463e-05 -0.00030771 0)
(0.0002954 -0.000139552 0)
(0.000422815 3.51974e-05 0)
(0.000433112 0.000202258 0)
(0.000349187 0.000331151 0)
(0.000189827 0.000363389 0)
(3.94422e-05 0.000215104 0)
(-7.69461e-05 0.000394596 0)
(-0.000529936 0.00113089 0)
(-0.00129591 0.00166411 0)
(-0.00222978 0.00203575 0)
(-0.00330817 0.00224983 0)
(-0.00444244 0.00237232 0)
(-0.00563189 0.00242092 0)
(-0.00682525 0.00243553 0)
(-0.0080328 0.00242245 0)
(-0.00922383 0.00239975 0)
(-0.0104106 0.00236589 0)
(-0.0115725 0.00232773 0)
(-0.0127191 0.0022813 0)
(-0.0138342 0.00222885 0)
(-0.0149236 0.00216643 0)
(-0.015973 0.00209449 0)
(-0.0169845 0.00200969 0)
(-0.0179448 0.00191171 0)
(-0.0188524 0.00179783 0)
(-0.0196944 0.00166748 0)
(-0.020467 0.00151862 0)
(-0.0211575 0.00135089 0)
(-0.0217603 0.00116315 0)
(-0.0222635 0.000955712 0)
(-0.0226608 0.000728685 0)
(-0.022942 0.000483513 0)
(-0.0231016 0.000221868 0)
(-0.0231318 -5.33463e-05 0)
(-0.0230295 -0.000338755 0)
(-0.0227909 -0.000629949 0)
(-0.0224163 -0.000922028 0)
(-0.0219068 -0.00120943 0)
(-0.0212674 -0.00148631 0)
(-0.0205043 -0.00174673 0)
(-0.0196276 -0.00198481 0)
(-0.0186482 -0.0021953 0)
(-0.0175807 -0.00237339 0)
(-0.0164396 -0.00251556 0)
(-0.0152423 -0.00261905 0)
(-0.0140052 -0.00268286 0)
(-0.0127466 -0.00270673 0)
(-0.0114824 -0.00269239 0)
(-0.0102299 -0.00264191 0)
(-0.00900245 -0.00255921 0)
(-0.00781474 -0.0024478 0)
(-0.00667647 -0.00231263 0)
(-0.00559919 -0.00215713 0)
(-0.00458882 -0.00198563 0)
(-0.00365478 -0.0017998 0)
(-0.0028004 -0.00160169 0)
(-0.00203521 -0.00138995 0)
(-0.00136206 -0.00116368 0)
(-0.000793135 -0.000919253 0)
(-0.00033185 -0.000655273 0)
(6.78519e-06 -0.000371823 0)
(0.000223009 -7.73617e-05 0)
(0.000306991 0.000205426 0)
(0.000279918 0.000429815 0)
(0.000162317 0.000508216 0)
(3.428e-05 0.000314704 0)
(-9.52448e-05 0.000691122 0)
(-0.000641725 0.00181875 0)
(-0.00155619 0.00261141 0)
(-0.00265448 0.00314844 0)
(-0.00391386 0.00346459 0)
(-0.00523016 0.00364519 0)
(-0.00660761 0.00372259 0)
(-0.0079876 0.00374702 0)
(-0.00938373 0.00373121 0)
(-0.0107608 0.00369773 0)
(-0.0121326 0.00364699 0)
(-0.0134752 0.00358716 0)
(-0.0147991 0.00351421 0)
(-0.0160854 0.00343038 0)
(-0.01734 0.00333099 0)
(-0.0185468 0.00321602 0)
(-0.0197071 0.00308128 0)
(-0.020806 0.00292585 0)
(-0.0218414 0.00274625 0)
(-0.0227988 0.0025414 0)
(-0.0236734 0.00230873 0)
(-0.0244512 0.00204763 0)
(-0.0251257 0.00175684 0)
(-0.0256838 0.00143688 0)
(-0.0261186 0.00108831 0)
(-0.0264189 0.000713406 0)
(-0.026579 0.000314985 0)
(-0.0265907 -0.000102519 0)
(-0.026451 -0.00053386 0)
(-0.0261562 -0.000972448 0)
(-0.0257075 -0.00141093 0)
(-0.0251066 -0.00184112 0)
(-0.02436 -0.00225444 0)
(-0.0234751 -0.00264226 0)
(-0.0224641 -0.00299612 0)
(-0.0213396 -0.00330848 0)
(-0.0201186 -0.00357254 0)
(-0.0188176 -0.00378337 0)
(-0.0174566 -0.00393716 0)
(-0.016054 -0.00403266 0)
(-0.0146304 -0.00406971 0)
(-0.0132036 -0.00405095 0)
(-0.0117926 -0.00397954 0)
(-0.010412 -0.00386124 0)
(-0.00907778 -0.0037012 0)
(-0.00780021 -0.00350653 0)
(-0.0065914 -0.00328225 0)
(-0.00545737 -0.00303444 0)
(-0.00440763 -0.00276551 0)
(-0.00344536 -0.00247821 0)
(-0.00257995 -0.0021706 0)
(-0.00181415 -0.00184132 0)
(-0.00116001 -0.00148522 0)
(-0.000621188 -0.00110059 0)
(-0.000212517 -0.000687652 0)
(6.53758e-05 -0.000258971 0)
(0.000203142 0.000154653 0)
(0.000219745 0.000488964 0)
(0.000136972 0.000628891 0)
(2.91609e-05 0.000404536 0)
(-0.000109917 0.00103695 0)
(-0.000732702 0.00261262 0)
(-0.0017667 0.00369236 0)
(-0.00299733 0.0044052 0)
(-0.00440109 0.00482742 0)
(-0.00586097 0.00506678 0)
(-0.00738563 0.00517333 0)
(-0.0089105 0.00520708 0)
(-0.0104527 0.00518787 0)
(-0.0119732 0.00514204 0)
(-0.0134877 0.00507216 0)
(-0.0149695 0.0049874 0)
(-0.0164296 0.0048838 0)
(-0.0178474 0.00476344 0)
(-0.0192286 0.00462104 0)
(-0.0205553 0.004456 0)
(-0.0218289 0.00426335 0)
(-0.0230327 0.00404152 0)
(-0.0241641 0.00378633 0)
(-0.0252075 0.00349617 0)
(-0.0261572 0.00316801 0)
(-0.0269981 0.00280102 0)
(-0.027723 0.00239393 0)
(-0.0283179 0.00194755 0)
(-0.0287752 0.00146303 0)
(-0.0290831 0.000943619 0)
(-0.0292353 0.000393463 0)
(-0.0292233 -0.000181276 0)
(-0.0290443 -0.000773264 0)
(-0.0286943 -0.0013735 0)
(-0.0281753 -0.00197191 0)
(-0.0274894 -0.00255747 0)
(-0.0266443 -0.00311859 0)
(-0.0256486 -0.00364374 0)
(-0.0245163 -0.00412163 0)
(-0.0232618 -0.0045423 0)
(-0.0219043 -0.00489681 0)
(-0.0204627 -0.00517878 0)
(-0.0189594 -0.00538337 0)
(-0.0174152 -0.00550917 0)
(-0.0158532 -0.00555628 0)
(-0.014293 -0.00552849 0)
(-0.0127555 -0.00543037 0)
(-0.0112568 -0.00526982 0)
(-0.00981378 -0.00505399 0)
(-0.00843715 -0.00479249 0)
(-0.0071393 -0.00449218 0)
(-0.00592583 -0.00416121 0)
(-0.00480581 -0.00380283 0)
(-0.00378149 -0.00342074 0)
(-0.00286143 -0.00301231 0)
(-0.00204728 -0.00257588 0)
(-0.00135018 -0.00210452 0)
(-0.000772938 -0.00159637 0)
(-0.000329559 -0.00105113 0)
(-2.06089e-05 -0.000485622 0)
(0.000145243 6.26005e-05 0)
(0.000185424 0.000511563 0)
(0.000122441 0.000721396 0)
(2.62399e-05 0.000478939 0)
(-0.000119764 0.00142556 0)
(-0.000800263 0.00349949 0)
(-0.00192731 0.00489366 0)
(-0.00326299 0.00579569 0)
(-0.00478219 0.0063302 0)
(-0.00635679 0.00663043 0)
(-0.00799869 0.00676687 0)
(-0.00963811 0.00680944 0)
(-0.0112955 0.00678598 0)
(-0.0129285 0.00672614 0)
(-0.014555 0.00663506 0)
(-0.0161459 0.00652242 0)
(-0.0177134 0.00638464 0)
(-0.0192346 0.00622331 0)
(-0.0207161 0.0060327 0)
(-0.0221382 0.00581146 0)
(-0.0235022 0.00555391 0)
(-0.0247903 0.00525771 0)
(-0.0259996 0.004918 0)
(-0.027113 0.00453257 0)
(-0.0281245 0.00409796 0)
(-0.0290179 0.00361309 0)
(-0.0297853 0.00307673 0)
(-0.0304116 0.00248998 0)
(-0.0308886 0.00185468 0)
(-0.0312034 0.00117513 0)
(-0.0313492 0.000456974 0)
(-0.0313168 -0.000291755 0)
(-0.0311026 -0.00106139 0)
(-0.0307027 -0.00184025 0)
(-0.0301189 -0.00261525 0)
(-0.0293537 -0.00337212 0)
(-0.0284154 -0.00409587 0)
(-0.0273138 -0.00477167 0)
(-0.0260644 -0.005385 0)
(-0.0246836 -0.00592307 0)
(-0.0231931 -0.00637452 0)
(-0.0216144 -0.00673126 0)
(-0.0199728 -0.00698734 0)
(-0.0182922 -0.0071412 0)
(-0.0165985 -0.00719336 0)
(-0.0149139 -0.0071491 0)
(-0.0132618 -0.00701474 0)
(-0.0116598 -0.00680086 0)
(-0.0101261 -0.00651711 0)
(-0.00867198 -0.00617621 0)
(-0.00730988 -0.0057873 0)
(-0.00604462 -0.00536113 0)
(-0.00488449 -0.00490206 0)
(-0.00383009 -0.00441507 0)
(-0.00288865 -0.00389687 0)
(-0.00205989 -0.00334565 0)
(-0.00135359 -0.0027524 0)
(-0.000770883 -0.00211518 0)
(-0.000324821 -0.00143268 0)
(-1.50009e-05 -0.00072612 0)
(0.000150405 -3.91797e-05 0)
(0.000189115 0.000527945 0)
(0.000124359 0.000811317 0)
(2.63966e-05 0.000553353 0)
(-0.000128098 0.00184259 0)
(-0.000855073 0.00445133 0)
(-0.00205547 0.00617892 0)
(-0.00347435 0.00727841 0)
(-0.00508475 0.00792759 0)
(-0.00675003 0.00828839 0)
(-0.0084845 0.00845367 0)
(-0.0102143 0.00850378 0)
(-0.0119627 0.00847496 0)
(-0.0136848 0.00839986 0)
(-0.0154006 0.00828623 0)
(-0.0170789 0.008144 0)
(-0.0187331 0.00796997 0)
(-0.0203389 0.0077651 0)
(-0.0219031 0.00752324 0)
(-0.0234051 0.00724217 0)
(-0.0248461 0.00691554 0)
(-0.0262072 0.00654016 0)
(-0.0274853 0.00611051 0)
(-0.0286622 0.00562369 0)
(-0.0297315 0.0050758 0)
(-0.0306758 0.00446547 0)
(-0.0314865 0.00379143 0)
(-0.0321472 0.00305509 0)
(-0.0326487 0.00225893 0)
(-0.0329768 0.00140831 0)
(-0.0331238 0.000510394 0)
(-0.033079 -0.000424811 0)
(-0.0328381 -0.00138517 0)
(-0.0323961 -0.00235611 0)
(-0.0317543 -0.00332123 0)
(-0.0309151 -0.00426266 0)
(-0.0298871 -0.0051616 0)
(-0.028681 -0.00599941 0)
(-0.0273139 -0.00675785 0)
(-0.0258042 -0.00742083 0)
(-0.0241764 -0.00797414 0)
(-0.0224553 -0.00840768 0)
(-0.0206699 -0.00871419 0)
(-0.0188475 -0.00889198 0)
(-0.017018 -0.00894214 0)
(-0.0152069 -0.00887178 0)
(-0.0134407 -0.00868944 0)
(-0.011739 -0.00840903 0)
(-0.010122 -0.00804331 0)
(-0.00860127 -0.00760887 0)
(-0.00718953 -0.00711773 0)
(-0.00589046 -0.00658387 0)
(-0.0047112 -0.00601318 0)
(-0.00365007 -0.0054123 0)
(-0.00271247 -0.00477736 0)
(-0.00189536 -0.00410651 0)
(-0.00120674 -0.00338841 0)
(-0.000645235 -0.00262086 0)
(-0.000222761 -0.00180105 0)
(6.3074e-05 -0.000954324 0)
(0.000204529 -0.000130027 0)
(0.000221448 0.000553231 0)
(0.000137926 0.000907154 0)
(2.84129e-05 0.000629407 0)
(-0.000133888 0.0022853 0)
(-0.000896314 0.00545969 0)
(-0.00215373 0.00753789 0)
(-0.00363824 0.00884405 0)
(-0.00532134 0.00961202 0)
(-0.00705954 0.010035 0)
(-0.00886887 0.0102295 0)
(-0.0106721 0.010287 0)
(-0.0124949 0.0102526 0)
(-0.0142904 0.0101619 0)
(-0.0160804 0.0100253 0)
(-0.0178322 0.00985285 0)
(-0.0195605 0.00964176 0)
(-0.0212398 0.00939215 0)
(-0.0228776 0.00909751 0)
(-0.0244521 0.00875457 0)
(-0.0259651 0.00835632 0)
(-0.0273964 0.00789857 0)
(-0.0287429 0.00737506 0)
(-0.0299854 0.0067821 0)
(-0.031117 0.00611524 0)
(-0.032119 0.00537263 0)
(-0.0329818 0.0045529 0)
(-0.0336875 0.00365756 0)
(-0.0342256 0.00268969 0)
(-0.03458 0.0016556 0)
(-0.0347414 0.00056395 0)
(-0.034697 -0.000573216 0)
(-0.0344411 -0.00174114 0)
(-0.0339668 -0.0029221 0)
(-0.0332743 -0.00409595 0)
(-0.0323652 -0.00524073 0)
(-0.0312481 -0.00633315 0)
(-0.0299343 -0.00735003 0)
(-0.0284425 -0.00826862 0)
(-0.0267935 -0.0090688 0)
(-0.0250152 -0.00973278 0)
(-0.0231363 -0.0102479 0)
(-0.0211904 -0.0106053 0)
(-0.0192095 -0.0108031 0)
(-0.0172286 -0.0108429 0)
(-0.0152772 -0.0107343 0)
(-0.0133861 -0.0104886 0)
(-0.0115777 -0.0101238 0)
(-0.00987446 -0.00965684 0)
(-0.00828866 -0.00910906 0)
(-0.0068333 -0.00849627 0)
(-0.00551049 -0.00783659 0)
(-0.00432591 -0.00713797 0)
(-0.0032748 -0.00640928 0)
(-0.00236021 -0.00564617 0)
(-0.00157545 -0.00484686 0)
(-0.000926396 -0.00399739 0)
(-0.00040829 -0.0030951 0)
(-3.19111e-05 -0.00213525 0)
(0.000208105 -0.00114723 0)
(0.000304361 -0.000186196 0)
(0.000280726 0.000610155 0)
(0.000162536 0.00102756 0)
(3.21039e-05 0.000717148 0)
(-0.00013913 0.00274606 0)
(-0.000930592 0.00650904 0)
(-0.00223346 0.00895027 0)
(-0.00377048 0.0104694 0)
(-0.00551178 0.0113585 0)
(-0.00730886 0.0118442 0)
(-0.0091791 0.0120678 0)
(-0.0110428 0.0121325 0)
(-0.0129276 0.0120926 0)
(-0.0147852 0.0119866 0)
(-0.0166391 0.0118276 0)
(-0.0184557 0.0116256 0)
(-0.0202506 0.0113782 0)
(-0.0219977 0.0110845 0)
(-0.0237051 0.0107376 0)
(-0.0253504 0.0103332 0)
(-0.0269355 0.00986337 0)
(-0.0284397 0.00932293 0)
(-0.0298595 0.00870476 0)
(-0.031175 0.00800413 0)
(-0.0323784 0.00721592 0)
(-0.0334498 0.00633756 0)
(-0.0343782 0.00536736 0)
(-0.0351441 0.00430669 0)
(-0.0357349 0.00315899 0)
(-0.0361322 0.00193131 0)
(-0.0363241 0.000633713 0)
(-0.0362955 -0.000719791 0)
(-0.0360378 -0.00211171 0)
(-0.0355417 -0.0035209 0)
(-0.0348057 -0.00492306 0)
(-0.0338296 -0.00629147 0)
(-0.0326219 -0.00759755 0)
(-0.031194 -0.00881266 0)
(-0.0295664 -0.00990853 0)
(-0.0277629 -0.01086 0)
(-0.0258153 -0.0116448 0)
(-0.0237569 -0.0122471 0)
(-0.0216275 -0.0126558 0)
(-0.0194645 -0.0128686 0)
(-0.0173093 -0.0128882 0)
(-0.015197 -0.0127267 0)
(-0.0131635 -0.0123991 0)
(-0.0112349 -0.0119288 0)
(-0.00943695 -0.0113376 0)
(-0.00778263 -0.0106532 0)
(-0.0062854 -0.00989624 0)
(-0.00494541 -0.00909016 0)
(-0.00376637 -0.00824568 0)
(-0.00273953 -0.00737455 0)
(-0.00186482 -0.00647208 0)
(-0.00113086 -0.00553657 0)
(-0.000540755 -0.00455108 0)
(-8.5445e-05 -0.00351204 0)
(0.000225671 -0.00241234 0)
(0.00040186 -0.00128506 0)
(0.000436102 -0.000191563 0)
(0.000357757 0.000710672 0)
(0.000193726 0.0011793 0)
(3.65099e-05 0.000817595 0)
(-0.000142875 0.00322206 0)
(-0.000957163 0.0075923 0)
(-0.00229645 0.0104073 0)
(-0.00387596 0.0121458 0)
(-0.005665 0.0131594 0)
(-0.00751109 0.0137099 0)
(-0.00943282 0.0139639 0)
(-0.0113485 0.0140373 0)
(-0.0132876 0.0139933 0)
(-0.0152008 0.0138737 0)
(-0.017113 0.0136943 0)
(-0.0189901 0.013465 0)
(-0.020849 0.0131836 0)
(-0.0226628 0.0128483 0)
(-0.0244406 0.0124516 0)
(-0.0261595 0.011988 0)
(-0.0278218 0.0114488 0)
(-0.0294061 0.0108273 0)
(-0.030909 0.0101155 0)
(-0.0323093 0.00930732 0)
(-0.0335987 0.00839676 0)
(-0.0347557 0.00738018 0)
(-0.035768 0.00625522 0)
(-0.0366134 0.00502275 0)
(-0.0372771 0.00368621 0)
(-0.0377376 0.0022531 0)
(-0.0379797 0.000734663 0)
(-0.0379847 -0.000853204 0)
(-0.0377405 -0.00249017 0)
(-0.0372345 -0.00415136 0)
(-0.0364622 -0.00580769 0)
(-0.0354214 -0.00742683 0)
(-0.0341196 -0.00897383 0)
(-0.0325686 -0.0104133 0)
(-0.0307911 -0.0117101 0)
(-0.0288138 -0.0128326 0)
(-0.0266736 -0.0137531 0)
(-0.0244093 -0.0144515 0)
(-0.0220673 -0.014914 0)
(-0.0196921 -0.0151376 0)
(-0.0173325 -0.0151259 0)
(-0.0150302 -0.0148944 0)
(-0.012828 -0.0144624 0)
(-0.0107568 -0.0138599 0)
(-0.00884686 -0.0131154 0)
(-0.00711276 -0.0122643 0)
(-0.00556882 -0.0113337 0)
(-0.00421297 -0.010354 0)
(-0.00304643 -0.00933964 0)
(-0.00205533 -0.00830622 0)
(-0.00123549 -0.00724891 0)
(-0.000569415 -0.00616607 0)
(-5.65725e-05 -0.0050373 0)
(0.000317562 -0.00385759 0)
(0.000545354 -0.00261688 0)
(0.000640864 -0.00135175 0)
(0.000597535 -0.000130298 0)
(0.000451432 0.000869063 0)
(0.000231323 0.00137337 0)
(4.17067e-05 0.000936067 0)
(-0.000146573 0.00371162 0)
(-0.000980318 0.0087046 0)
(-0.00234972 0.0119019 0)
(-0.00396448 0.0138646 0)
(-0.00579329 0.0150053 0)
(-0.00768087 0.0156224 0)
(-0.00964687 0.0159082 0)
(-0.0116083 0.0159917 0)
(-0.0135962 0.0159457 0)
(-0.0155607 0.0158149 0)
(-0.0175281 0.0156181 0)
(-0.019464 0.0153647 0)
(-0.0213866 0.0150531 0)
(-0.0232686 0.0146802 0)
(-0.0251203 0.0142381 0)
(-0.0269182 0.0137197 0)
(-0.0286652 0.0131154 0)
(-0.0303394 0.012417 0)
(-0.0319374 0.0116153 0)
(-0.0334372 0.0107025 0)
(-0.0348295 0.00967137 0)
(-0.036091 0.00851677 0)
(-0.0372077 0.00723521 0)
(-0.0381547 0.00582655 0)
(-0.0389142 0.00429375 0)
(-0.0394609 0.00264428 0)
(-0.0397754 0.000890219 0)
(-0.0398345 -0.000950855 0)
(-0.0396215 -0.00285569 0)
(-0.0391193 -0.00479529 0)
(-0.0383201 -0.00673504 0)
(-0.037219 -0.00863589 0)
(-0.0358226 -0.0104551 0)
(-0.0341434 -0.0121489 0)
(-0.0322063 -0.0136738 0)
(-0.030042 -0.0149904 0)
(-0.0276921 -0.0160643 0)
(-0.0252013 -0.0168702 0)
(-0.0226225 -0.017391 0)
(-0.0200066 -0.0176226 0)
(-0.0174104 -0.0175695 0)
(-0.0148831 -0.0172504 0)
(-0.0124761 -0.0166898 0)
(-0.0102275 -0.0159252 0)
(-0.00817449 -0.0149933 0)
(-0.00633553 -0.0139397 0)
(-0.00472758 -0.0128 0)
(-0.00334687 -0.0116137 0)
(-0.00219204 -0.0104008 0)
(-0.00124287 -0.0091818 0)
(-0.00048955 -0.00795229 0)
(9.34803e-05 -0.00671067 0)
(0.000512006 -0.00543236 0)
(0.00078764 -0.00411001 0)
(0.000915411 -0.00272981 0)
(0.000915161 -0.00133124 0)
(0.000781036 1.02748e-05 0)
(0.000556673 0.0010943 0)
(0.000272878 0.00161462 0)
(4.72073e-05 0.00107321 0)
(-0.000149231 0.00420971 0)
(-0.000998825 0.00983693 0)
(-0.00239351 0.0134235 0)
(-0.00403811 0.0156152 0)
(-0.00590119 0.0168863 0)
(-0.0078252 0.0175726 0)
(-0.00983094 0.0178929 0)
(-0.0118345 0.0179896 0)
(-0.0138684 0.0179449 0)
(-0.0158823 0.017807 0)
(-0.0179043 0.0175973 0)
(-0.0198996 0.0173251 0)
(-0.0218879 0.016989 0)
(-0.0238419 0.0165848 0)
(-0.0257728 0.0161037 0)
(-0.0276572 0.0155372 0)
(-0.0294986 0.0148745 0)
(-0.0312748 0.0141057 0)
(-0.0329824 0.0132199 0)
(-0.0345984 0.0122076 0)
(-0.0361129 0.0110595 0)
(-0.0375006 0.00976866 0)
(-0.0387455 0.00832975 0)
(-0.0398196 0.00674097 0)
(-0.0407014 0.00500416 0)
(-0.0413611 0.00312616 0)
(-0.0417743 0.00111941 0)
(-0.0419122 -0.000997026 0)
(-0.0417529 -0.00319682 0)
(-0.0412743 -0.0054462 0)
(-0.0404648 -0.00770388 0)
(-0.0393176 -0.00992248 0)
(-0.0378396 -0.0120496 0)
(-0.0360449 -0.0140316 0)
(-0.0339619 -0.0158151 0)
(-0.0316245 -0.0173521 0)
(-0.0290778 -0.018601 0)
(-0.0263685 -0.0195313 0)
(-0.0235522 -0.0201219 0)
(-0.0206825 -0.0203669 0)
(-0.0178215 -0.0202702 0)
(-0.0150255 -0.0198527 0)
(-0.0123572 -0.0191429 0)
(-0.00986621 -0.0181863 0)
(-0.0076031 -0.0170289 0)
(-0.00559632 -0.0157291 0)
(-0.00387098 -0.0143343 0)
(-0.00242495 -0.0128967 0)
(-0.00125571 -0.011445 0)
(-0.000335748 -0.0100072 0)
(0.000352458 -0.00858024 0)
(0.00084564 -0.0071628 0)
(0.00115781 -0.00572517 0)
(0.00132046 -0.00425648 0)
(0.00133321 -0.0027378 0)
(0.00122318 -0.00121068 0)
(0.000985893 0.00024185 0)
(0.00067337 0.00139612 0)
(0.000318661 0.00190994 0)
(5.32009e-05 0.00123203 0)
(-0.000152084 0.00472002 0)
(-0.00101564 0.0109934 0)
(-0.00243189 0.0149759 0)
(-0.00410216 0.0174008 0)
(-0.00599498 0.0188052 0)
(-0.00795133 0.0195636 0)
(-0.00999304 0.0199212 0)
(-0.0120358 0.0200343 0)
(-0.0141134 0.0199947 0)
(-0.0161757 0.0198543 0)
(-0.0182521 0.019637 0)
(-0.0203083 0.019352 0)
(-0.0223649 0.0189981 0)
(-0.0243954 0.0185698 0)
(-0.0264117 0.0180578 0)
(-0.0283909 0.0174516 0)
(-0.0303371 0.0167393 0)
(-0.0322282 0.0159088 0)
(-0.0340607 0.0149474 0)
(-0.0358112 0.0138432 0)
(-0.0374687 0.0125846 0)
(-0.0390063 0.0111619 0)
(-0.0404054 0.00956743 0)
(-0.0416349 0.00779682 0)
(-0.0426691 0.00584996 0)
(-0.043473 0.00373225 0)
(-0.0440167 0.00145601 0)
(-0.0442652 -0.000958322 0)
(-0.0441915 -0.00348079 0)
(-0.0437695 -0.00607154 0)
(-0.0429864 -0.00868059 0)
(-0.0418369 -0.0112499 0)
(-0.040332 -0.0137156 0)
(-0.0384909 -0.0160127 0)
(-0.0363457 -0.0180788 0)
(-0.0339301 -0.0198589 0)
(-0.0312847 -0.0213066 0)
(-0.0284467 -0.0223875 0)
(-0.0254608 -0.0230769 0)
(-0.0223711 -0.0233645 0)
(-0.0192362 -0.0232493 0)
(-0.016117 -0.0227492 0)
(-0.0130905 -0.0218918 0)
(-0.0102278 -0.0207271 0)
(-0.00760689 -0.0193103 0)
(-0.0052813 -0.0177151 0)
(-0.00329874 -0.0160061 0)
(-0.00166899 -0.0142551 0)
(-0.000394258 -0.0125055 0)
(0.000559549 -0.0107985 0)
(0.00122051 -0.00913488 0)
(0.00164178 -0.00751498 0)
(0.00185152 -0.00590277 0)
(0.00189655 -0.00428198 0)
(0.00178547 -0.00262623 0)
(0.00155569 -0.000977277 0)
(0.00120596 0.000574528 0)
(0.000797796 0.00178157 0)
(0.000366979 0.00226308 0)
(5.93722e-05 0.00141319 0)
(-0.00015397 0.0052336 0)
(-0.00102883 0.01216 0)
(-0.00246356 0.0165433 0)
(-0.00415614 0.0192054 0)
(-0.00607548 0.0207465 0)
(-0.00806129 0.0215804 0)
(-0.0101366 0.021979 0)
(-0.0122168 0.0221131 0)
(-0.0143371 0.022084 0)
(-0.0164477 0.0219472 0)
(-0.0185795 0.0217294 0)
(-0.0206985 0.0214397 0)
(-0.0228269 0.0210769 0)
(-0.0249387 0.0206344 0)
(-0.0270471 0.0201018 0)
(-0.0291297 0.0194671 0)
(-0.0311917 0.0187167 0)
(-0.0332111 0.0178361 0)
(-0.0351849 0.0168106 0)
(-0.0370891 0.0156252 0)
(-0.0389121 0.0142654 0)
(-0.0406254 0.0127182 0)
(-0.042208 0.0109725 0)
(-0.0436252 0.00902044 0)
(-0.0448471 0.00685906 0)
(-0.0458333 0.00449159 0)
(-0.0465485 0.00193002 0)
(-0.0469529 -0.000803183 0)
(-0.0470171 -0.00367251 0)
(-0.0467169 -0.00662892 0)
(-0.0460463 -0.00960991 0)
(-0.0450116 -0.0125436 0)
(-0.0436371 -0.0153535 0)
(-0.0419517 -0.0179661 0)
(-0.0399883 -0.0203158 0)
(-0.0377674 -0.0223493 0)
(-0.0353023 -0.0240235 0)
(-0.0325921 -0.0253055 0)
(-0.0296408 -0.0261666 0)
(-0.0264562 -0.026586 0)
(-0.0230757 -0.0265469 0)
(-0.0195572 -0.0260492 0)
(-0.0159984 -0.0251057 0)
(-0.0125092 -0.02376 0)
(-0.00922171 -0.0220712 0)
(-0.00624645 -0.0201307 0)
(-0.00368504 -0.0180278 0)
(-0.0015845 -0.0158672 0)
(3.16196e-05 -0.0137201 0)
(0.00119806 -0.0116532 0)
(0.00195603 -0.00967848 0)
(0.00238376 -0.00780195 0)
(0.00253486 -0.00598046 0)
(0.00248246 -0.00418969 0)
(0.00225367 -0.00239162 0)
(0.0019028 -0.000624784 0)
(0.00143641 0.00101504 0)
(0.000927979 0.00225646 0)
(0.000417444 0.00267805 0)
(6.58136e-05 0.00161838 0)
(-0.000156128 0.00575946 0)
(-0.00104074 0.0133489 0)
(-0.00249084 0.0181389 0)
(-0.00420245 0.0210421 0)
(-0.0061448 0.0227235 0)
(-0.00815699 0.0236366 0)
(-0.0102631 0.0240803 0)
(-0.0123786 0.0242399 0)
(-0.0145402 0.0242267 0)
(-0.0166985 0.0240999 0)
(-0.0188858 0.0238889 0)
(-0.0210692 0.0236028 0)
(-0.0232721 0.0232406 0)
(-0.0254696 0.0227943 0)
(-0.0276762 0.0222529 0)
(-0.0298706 0.0216022 0)
(-0.0320589 0.020827 0)
(-0.0342201 0.0199103 0)
(-0.0363516 0.0188347 0)
(-0.0384295 0.0175819 0)
(-0.0404419 0.0161338 0)
(-0.0423586 0.0144731 0)
(-0.0441569 0.0125843 0)
(-0.0457987 0.0104552 0)
(-0.04725 0.00807907 0)
(-0.0484663 0.0054567 0)
(-0.0494094 0.00260078 0)
(-0.0500405 -0.000461174 0)
(-0.050338 -0.00368279 0)
(-0.0502947 -0.00699888 0)
(-0.0499316 -0.0103279 0)
(-0.0492867 -0.0135814 0)
(-0.0484117 -0.0166745 0)
(-0.0473462 -0.019538 0)
(-0.0461061 -0.0221226 0)
(-0.0446641 -0.0243982 0)
(-0.0429581 -0.0263428 0)
(-0.040896 -0.0279334 0)
(-0.0383896 -0.0291343 0)
(-0.0353699 -0.0298992 0)
(-0.0318253 -0.030171 0)
(-0.027801 -0.0299027 0)
(-0.0234222 -0.0290622 0)
(-0.0188625 -0.0276619 0)
(-0.0143491 -0.0257496 0)
(-0.010101 -0.0234316 0)
(-0.00633022 -0.0208329 0)
(-0.00317225 -0.0181124 0)
(-0.000710665 -0.0153954 0)
(0.00106968 -0.0128 0)
(0.00222071 -0.0103682 0)
(0.00285718 -0.00812248 0)
(0.00307745 -0.00601401 0)
(0.00300154 -0.00400703 0)
(0.00269406 -0.00204471 0)
(0.00224011 -0.000155395 0)
(0.0016643 0.00156457 0)
(0.00105761 0.0028226 0)
(0.000467743 0.00315582 0)
(7.21721e-05 0.00184759 0)
(-0.000157119 0.00628307 0)
(-0.00104865 0.0145385 0)
(-0.00251112 0.0197386 0)
(-0.00423863 0.0228865 0)
(-0.00620112 0.0247117 0)
(-0.00823712 0.025708 0)
(-0.0103718 0.0262017 0)
(-0.012521 0.0263928 0)
(-0.0147226 0.0264023 0)
(-0.0169281 0.0262936 0)
(-0.0191713 0.0260987 0)
(-0.0214202 0.0258268 0)
(-0.0237 0.0254771 0)
(-0.0259869 0.0250403 0)
(-0.0282972 0.0245045 0)
(-0.0306106 0.0238536 0)
(-0.0329353 0.0230704 0)
(-0.0352509 0.0221353 0)
(-0.0375564 0.0210279 0)
(-0.0398282 0.0197258 0)
(-0.0420545 0.018207 0)
(-0.0442047 0.0164487 0)
(-0.0462544 0.0144305 0)
(-0.0481633 0.0121347 0)
(-0.0498954 0.00955085 0)
(-0.051406 0.00667914 0)
(-0.0526624 0.00353759 0)
(-0.0536418 0.000167419 0)
(-0.0543545 -0.00336177 0)
(-0.0548434 -0.00695559 0)
(-0.0551921 -0.0105056 0)
(-0.0554981 -0.0139109 0)
(-0.0558484 -0.0170988 0)
(-0.0562722 -0.0200399 0)
(-0.0567191 -0.0227435 0)
(-0.0570423 -0.025241 0)
(-0.057026 -0.0275561 0)
(-0.0564134 -0.0296816 0)
(-0.0549656 -0.0315607 0)
(-0.052495 -0.0330918 0)
(-0.0489165 -0.0341366 0)
(-0.0442522 -0.0345536 0)
(-0.0386592 -0.0342187 0)
(-0.0323957 -0.033069 0)
(-0.0258233 -0.0311087 0)
(-0.019331 -0.0284431 0)
(-0.0133181 -0.0252393 0)
(-0.00809326 -0.0217389 0)
(-0.0038756 -0.0181649 0)
(-0.000721937 -0.0147366 0)
(0.00140865 -0.0115667 0)
(0.002674 -0.00872231 0)
(0.00324361 -0.00615794 0)
(0.00331766 -0.00382415 0)
(0.00303207 -0.00163395 0)
(0.00252898 0.000406971 0)
(0.00187128 0.00221249 0)
(0.00117911 0.00347589 0)
(0.000515834 0.00369511 0)
(7.83497e-05 0.00210081 0)
(-0.000158386 0.00681932 0)
(-0.00105487 0.0157495 0)
(-0.00252595 0.021365 0)
(-0.00426553 0.0247618 0)
(-0.00624403 0.026735 0)
(-0.00830016 0.0278189 0)
(-0.0104599 0.0283674 0)
(-0.0126397 0.0285954 0)
(-0.0148789 0.0286343 0)
(-0.0171297 0.0285513 0)
(-0.0194276 0.0283814 0)
(-0.0217418 0.028134 0)
(-0.0240993 0.0278086 0)
(-0.0264778 0.0273948 0)
(-0.0288957 0.0268797 0)
(-0.0313345 0.0262453 0)
(-0.033804 0.0254728 0)
(-0.036286 0.0245393 0)
(-0.038781 0.0234213 0)
(-0.0412669 0.0220921 0)
(-0.0437327 0.0205248 0)
(-0.0461482 0.0186908 0)
(-0.048489 0.016564 0)
(-0.0507151 0.0141215 0)
(-0.0527937 0.0113515 0)
(-0.05469 0.00825989 0)
(-0.0563966 0.00488277 0)
(-0.057939 0.00129467 0)
(-0.0594059 -0.00238843 0)
(-0.0609434 -0.00602531 0)
(-0.0627417 -0.00948088 0)
(-0.0649736 -0.01267 0)
(-0.0677331 -0.0155878 0)
(-0.0709662 -0.0183151 0)
(-0.074454 -0.0209872 0)
(-0.0778249 -0.0237431 0)
(-0.0806217 -0.026667 0)
(-0.0823664 -0.0297535 0)
(-0.0826422 -0.0328893 0)
(-0.0811348 -0.0358705 0)
(-0.0776818 -0.0384256 0)
(-0.0722767 -0.0402649 0)
(-0.0650956 -0.0411148 0)
(-0.0564721 -0.0407801 0)
(-0.0469052 -0.039166 0)
(-0.0369869 -0.0363351 0)
(-0.0273727 -0.032479 0)
(-0.0186499 -0.0279404 0)
(-0.0112937 -0.0230945 0)
(-0.00554225 -0.0183411 0)
(-0.00143584 -0.0139423 0)
(0.00120539 -0.0100732 0)
(0.00264351 -0.00672167 0)
(0.0032026 -0.00383041 0)
(0.00314183 -0.00126785 0)
(0.00270412 0.00100383 0)
(0.0020264 0.0029288 0)
(0.00127961 0.00420165 0)
(0.000557932 0.00428919 0)
(8.3926e-05 0.00237602 0)
(-0.000158096 0.00734634 0)
(-0.00105584 0.0169495 0)
(-0.00253165 0.0229823 0)
(-0.00427932 0.0266311 0)
(-0.00627016 0.0287563 0)
(-0.00834294 0.0299324 0)
(-0.0105246 0.0305413 0)
(-0.0127321 0.0308131 0)
(-0.0150061 0.0308894 0)
(-0.0172999 0.0308415 0)
(-0.0196506 0.0307078 0)
(-0.0220289 0.0304976 0)
(-0.0244637 0.0302112 0)
(-0.0269346 0.0298367 0)