/*--------------------------------*- C++ -*----------------------------------*\
| =========                 |                                                 |
| \\      /  F ield         | OpenFOAM: The Open Source CFD Toolbox           |
|  \\    /   O peration     | Version:  2406                                  |
|   \\  /    A nd           | Website:  www.openfoam.com                      |
|    \\/     M anipulation  |                                                 |
\*---------------------------------------------------------------------------*/
FoamFile
{
    version     2.0;
    format      ascii;
    arch        "LSB;label=32;scalar=64";
    class       volVectorField;
    location    "6.4";
    object      Uc;
}
// * * * * * * * * * * * * * * * * * * * * * * * * * * * * * * * * * * * * * //

dimensions      [0 1 -1 0 0 0 0];

internalField   nonuniform List<vector> 
900
(
(-2.79023e-05 -1.8175e-06 0)
(-0.00073806 0.000167553 0)
(-0.00181872 0.000215741 0)
(-0.00292519 0.000234047 0)
(-0.00413751 0.000234768 0)
(-0.00533065 0.000243945 0)
(-0.00661319 0.000256374 0)
(-0.0079178 0.000276193 0)
(-0.00931879 0.000300209 0)
(-0.0107743 0.000329629 0)
(-0.012332 0.000363925 0)
(-0.0139615 0.000402414 0)
(-0.015687 0.000444932 0)
(-0.0174733 0.000487426 0)
(-0.0193121 0.000527093 0)
(-0.0211369 0.000553248 0)
(-0.0228837 0.000556239 0)
(-0.024419 0.000515282 0)
(-0.025596 0.000413963 0)
(-0.0261955 0.000227827 0)
(-0.0260097 -4.73431e-05 0)
(-0.0248111 -0.000409039 0)
(-0.0224921 -0.000804451 0)
(-0.019066 -0.0011714 0)
(-0.0147955 -0.0013928 0)
(-0.0101858 -0.00141466 0)
(-0.00580412 -0.00118273 0)
(-0.00234257 -0.000770135 0)
(-3.98618e-05 -0.000178446 0)
(0.000396813 0.000372191 0)
(-0.000252095 0.000769435 0)
(-0.00178887 0.00166629 0)
(-0.00396977 0.00198617 0)
(-0.00622353 0.00212636 0)
(-0.00867222 0.00219346 0)
(-0.0111205 0.00227062 0)
(-0.0137161 0.00235946 0)
(-0.0163595 0.00246778 0)
(-0.0191513 0.0025905 0)
(-0.0220275 0.00272348 0)
(-0.0250464 0.00286281 0)
(-0.0281526 0.00299516 0)
(-0.0313604 0.00311089 0)
(-0.0345939 0.00318113 0)
(-0.0378059 0.0031812 0)
(-0.0408629 0.00305764 0)
(-0.0436269 0.00276363 0)
(-0.0458699 0.00222134 0)
(-0.0473485 0.00137937 0)
(-0.0477461 0.000177159 0)
(-0.0467766 -0.00136109 0)
(-0.044164 -0.00317313 0)
(-0.0398032 -0.00502436 0)
(-0.0337788 -0.00665145 0)
(-0.0265147 -0.0076131 0)
(-0.0187948 -0.00771495 0)
(-0.0114747 -0.00676205 0)
(-0.005555 -0.00507506 0)
(-0.00131231 -0.00259462 0)
(0.000182475 -2.10412e-05 0)
(-0.000352874 0.00199106 0)
(-0.00228786 0.00387896 0)
(-0.00501549 0.00460351 0)
(-0.00782308 0.004915 0)
(-0.01086 0.00508699 0)
(-0.0138984 0.00525738 0)
(-0.0171015 0.00545115 0)
(-0.0203569 0.00567408 0)
(-0.0237729 0.00592314 0)
(-0.0272765 0.00618218 0)
(-0.0309276 0.00644252 0)
(-0.0346602 0.00666942 0)
(-0.0384827 0.00683802 0)
(-0.0423035 0.00688285 0)
(-0.0460605 0.00674815 0)
(-0.0495973 0.00632496 0)
(-0.0527522 0.0055214 0)
(-0.0552668 0.00419547 0)
(-0.0568644 0.00226144 0)
(-0.0571852 -0.000373108 0)
(-0.0558915 -0.00364253 0)
(-0.0526372 -0.00740348 0)
(-0.0472566 -0.0111969 0)
(-0.039796 -0.0144846 0)
(-0.0307849 -0.0163817 0)
(-0.0212664 -0.0164658 0)
(-0.0124985 -0.0144051 0)
(-0.00565716 -0.010913 0)
(-0.00109449 -0.00588644 0)
(0.000271276 -0.000719482 0)
(-0.000399396 0.00339557 0)
(-0.00251726 0.00636825 0)
(-0.00548346 0.00751835 0)
(-0.00852191 0.00799801 0)
(-0.011803 0.0082736 0)
(-0.0150828 0.00853363 0)
(-0.0185353 0.00882754 0)
(-0.0220408 0.0091575 0)
(-0.0257135 0.00952257 0)
(-0.0294768 0.0098946 0)
(-0.0333956 0.0102605 0)
(-0.0374031 0.0105645 0)
(-0.0415143 0.010768 0)
(-0.0456399 0.01077 0)
(-0.0497272 0.010487 0)
(-0.0536253 0.00975572 0)
(-0.0571807 0.00844117 0)
(-0.0601325 0.00633135 0)
(-0.0621869 0.00329463 0)
(-0.0629318 -0.000820658 0)
(-0.0619317 -0.00594319 0)
(-0.0586777 -0.0118845 0)
(-0.0528138 -0.0179602 0)
(-0.0442143 -0.023272 0)
(-0.0334718 -0.026287 0)
(-0.0220357 -0.0261591 0)
(-0.0118188 -0.0224788 0)
(-0.00432496 -0.0165614 0)
(-0.000131013 -0.00855727 0)
(0.000492044 -0.000861264 0)
(-0.00039391 0.00485005 0)
(-0.00254743 0.00895902 0)
(-0.00557927 0.0105569 0)
(-0.00868075 0.0112127 0)
(-0.0120323 0.0116012 0)
(-0.0153798 0.0119584 0)
(-0.0189071 0.0123645 0)
(-0.0224914 0.0128147 0)
(-0.0262562 0.0133145 0)
(-0.0301272 0.013822 0)
(-0.0341821 0.0143238 0)
(-0.0383632 0.0147423 0)
(-0.0427055 0.0150298 0)
(-0.0471383 0.0150491 0)
(-0.0516375 0.014692 0)
(-0.0560785 0.0137356 0)
(-0.0603351 0.0119954 0)
(-0.0641579 0.00916642 0)
(-0.0672353 0.00503665 0)
(-0.0690807 -0.00066368 0)
(-0.0691004 -0.0079272 0)
(-0.0665185 -0.0165874 0)
(-0.0606361 -0.025734 0)
(-0.0509888 -0.0339594 0)
(-0.0381346 -0.0386751 0)
(-0.0240453 -0.0382433 0)
(-0.0113924 -0.0321751 0)
(-0.00244437 -0.0226374 0)
(0.00137731 -0.0106828 0)
(0.000840948 -0.00035133 0)
(-0.000382576 0.00631879 0)
(-0.00250803 0.0115923 0)
(-0.0055113 0.0136434 0)
(-0.00858709 0.014475 0)
(-0.0119152 0.0149727 0)
(-0.0152401 0.0154251 0)
(-0.0187514 0.0159432 0)
(-0.0223277 0.0165181 0)
(-0.0261025 0.0171634 0)
(-0.0300077 0.0178271 0)
(-0.0341383 0.0185004 0)
(-0.0384522 0.0190889 0)
(-0.043014 0.0195438 0)
(-0.0477843 0.019697 0)
(-0.0527846 0.0194244 0)
(-0.057938 0.018442 0)
(-0.0631716 0.0165124 0)
(-0.068276 0.0132092 0)
(-0.0729481 0.00819464 0)
(-0.0766463 0.000989926 0)
(-0.078617 -0.00857482 0)
(-0.0777891 -0.020486 0)
(-0.0730195 -0.033659 0)
(-0.0632988 -0.0460372 0)
(-0.0488223 -0.0534651 0)
(-0.0318036 -0.053141 0)
(-0.0150085 -0.0442224 0)
(-0.00212846 -0.0294264 0)
(0.00280126 -0.0118475 0)
(0.00119931 0.00130404 0)
(-0.000349961 0.00768095 0)
(-0.00239445 0.014081 0)
(-0.00531482 0.0165824 0)
(-0.00831468 0.0175932 0)
(-0.0115692 0.0182067 0)
(-0.014822 0.0187624 0)
(-0.018268 0.0194076 0)
(-0.0217875 0.0201274 0)
(-0.0255262 0.0209503 0)
(-0.0294233 0.0218138 0)
(-0.0335965 0.022723 0)
(-0.0380225 0.0235691 0)
(-0.0428058 0.024315 0)
(-0.0479471 0.0247665 0)
(-0.0535333 0.0247978 0)
(-0.0595576 0.0240653 0)
(-0.0660384 0.0222818 0)
(-0.0728576 0.0188748 0)
(-0.0797951 0.0133394 0)
(-0.0863577 0.00489902 0)
(-0.0917604 -0.00691186 0)
(-0.0947627 -0.0224036 0)
(-0.0937324 -0.0404939 0)
(-0.0866908 -0.0585563 0)
(-0.0726892 -0.0704921 0)
(-0.0534019 -0.0723476 0)
(-0.0301379 -0.0619991 0)
(-0.00839705 -0.0405249 0)
(0.00276644 -0.0139657 0)
(0.00139036 0.0035855 0)
(-0.000324515 0.00905087 0)
(-0.00226706 0.0165985 0)
(-0.0050662 0.01956 0)
(-0.00795408 0.0207566 0)
(-0.0110945 0.0214843 0)
(-0.0142355 0.0221432 0)
(-0.0175732 0.0229162 0)
(-0.0209912 0.0237885 0)
(-0.0246462 0.0248057 0)
(-0.0284848 0.0259012 0)
(-0.0326482 0.0271015 0)
(-0.0371328 0.028292 0)
(-0.0420876 0.0294628 0)
(-0.0475606 0.0304051 0)
(-0.0537214 0.0310169 0)
(-0.0606621 0.0309081 0)
(-0.0685465 0.0297709 0)
(-0.0774384 0.0268881 0)
(-0.0873516 0.0215978 0)
(-0.098084 0.0127789 0)
(-0.109154 -0.000418396 0)
(-0.119424 -0.0189406 0)
(-0.126425 -0.0422829 0)
(-0.125854 -0.0678039 0)
(-0.114664 -0.0872929 0)
(-0.094028 -0.0961294 0)
(-0.0628441 -0.0894152 0)
(-0.0282572 -0.0623527 0)
(-0.000947318 -0.0214886 0)
(0.00139609 0.00538988 0)
(-0.000279852 0.0102106 0)
(-0.00209032 0.0188083 0)
(-0.00474555 0.0222127 0)
(-0.00749863 0.0235922 0)
(-0.0105017 0.0244377 0)
(-0.0135031 0.0252034 0)
(-0.0167006 0.0261161 0)
(-0.0199768 0.0271563 0)
(-0.0235011 0.0283973 0)
(-0.0272212 0.0297649 0)
(-0.0313047 0.031322 0)
(-0.0357611 0.0329494 0)
(-0.04079 0.0346884 0)
(-0.0464835 0.036328 0)
(-0.0531122 0.0378306 0)
(-0.0608876 0.038792 0)
(-0.0701852 0.0389532 0)
(-0.0813651 0.0375176 0)
(-0.0949131 0.0337787 0)
(-0.1113 0.0263551 0)
(-0.130738 0.0139243 0)
(-0.151784 -0.00594582 0)
(-0.169013 -0.0351118 0)
(-0.174054 -0.0716672 0)
(-0.164704 -0.103429 0)
(-0.143936 -0.125179 0)
(-0.107784 -0.128261 0)
(-0.0640259 -0.102624 0)
(-0.0125479 -0.0433711 0)
(0.00179946 0.00406834 0)
(-0.00024905 0.0114216 0)
(-0.00191783 0.0211125 0)
(-0.00440123 0.0249771 0)
(-0.00699014 0.0265485 0)
(-0.00982085 0.0275046 0)
(-0.0126447 0.0283695 0)
(-0.0156578 0.0294078 0)
(-0.0187402 0.0306069 0)
(-0.0220712 0.0320654 0)
(-0.0255948 0.0337113 0)
(-0.0295012 0.0356496 0)
(-0.0338032 0.0377677 0)
(-0.0387465 0.0401795 0)
(-0.0444545 0.0426922 0)
(-0.0512996 0.0453865 0)
(-0.0596146 0.0478971 0)
(-0.0700347 0.0501456 0)
(-0.0833193 0.0514126 0)
(-0.100639 0.0512301 0)
(-0.123272 0.0480221 0)
(-0.151474 0.0391365 0)
(-0.181101 0.0178611 0)
(-0.201947 -0.0217879 0)
(-0.205908 -0.0742142 0)
(-0.198095 -0.11918 0)
(-0.180987 -0.154847 0)
(-0.149554 -0.17094 0)
(-0.107412 -0.158169 0)
(-0.0407352 -0.0875449 0)
(0.00297631 -0.0050438 0)
(-0.000194381 0.0123101 0)
(-0.00169815 0.0229318 0)
(-0.00399995 0.0272217 0)
(-0.00641357 0.0289699 0)
(-0.00906001 0.0300348 0)
(-0.0116854 0.0309909 0)
(-0.0144866 0.032158 0)
(-0.0173303 0.0335139 0)
(-0.0204095 0.0352002 0)
(-0.0236485 0.0371323 0)
(-0.0272627 0.0394776 0)
(-0.0312432 0.0421202 0)
(-0.0358803 0.0452773 0)
(-0.0412892 0.0487811 0)
(-0.0479349 0.0528975 0)
(-0.0562155 0.0573652 0)
(-0.0670113 0.062466 0)
(-0.0813925 0.0677666 0)
(-0.101018 0.0731899 0)
(-0.12712 0.0761965 0)
(-0.158312 0.0703733 0)
(-0.186936 0.042952 0)
(-0.202366 -0.0113908 0)
(-0.20299 -0.0768061 0)
(-0.198231 -0.12941 0)
(-0.186495 -0.175326 0)
(-0.168084 -0.204204 0)
(-0.137452 -0.212236 0)
(-0.0798618 -0.156002 0)
(-0.0044327 -0.0326171 0)
(-0.000164395 0.0133355 0)
(-0.00150188 0.024979 0)
(-0.00359751 0.0297216 0)
(-0.00580497 0.031659 0)
(-0.00823038 0.0328117 0)
(-0.0106158 0.0338372 0)
(-0.0131561 0.0350892 0)
(-0.0157035 0.0365597 0)
(-0.0184589 0.038417 0)
(-0.0213201 0.040579 0)
(-0.0245189 0.0432698 0)
(-0.0280037 0.0463767 0)
(-0.0320904 0.0502318 0)
(-0.0368344 0.0546963 0)
(-0.042743 0.0602725 0)
(-0.05015 0.0668322 0)
(-0.0600165 0.0751454 0)
(-0.0733312 0.0850085 0)
(-0.0916316 0.096338 0)
(-0.115216 0.104266 0)
(-0.141386 0.0980776 0)
(-0.16225 0.0618874 0)
(-0.171501 -0.00429415 0)
(-0.171293 -0.0773292 0)
(-0.167999 -0.1345 0)
(-0.15871 -0.185006 0)
(-0.151577 -0.220713 0)
(-0.136819 -0.247845 0)
(-0.100995 -0.22287 0)
(-0.0288722 -0.0889089 0)
(-0.000101991 0.0138976 0)
(-0.00125822 0.0263133 0)
(-0.00315355 0.0314482 0)
(-0.00516195 0.0335394 0)
(-0.00737384 0.0347749 0)
(-0.00951496 0.0358464 0)
(-0.0117861 0.0371812 0)
(-0.014005 0.0387419 0)
(-0.0163946 0.0407588 0)
(-0.0187959 0.043111 0)
(-0.0214725 0.0461066 0)
(-0.0242834 0.0495967 0)
(-0.0275775 0.0540478 0)
(-0.0312634 0.0593046 0)
(-0.0358612 0.0661174 0)
(-0.0414423 0.0744178 0)
(-0.0488795 0.0854166 0)
(-0.0586007 0.0988784 0)
(-0.0717203 0.114445 0)
(-0.0877508 0.125062 0)
(-0.1049 0.117491 0)
(-0.117818 0.074916 0)
(-0.124769 0.00157334 0)
(-0.126609 -0.0773929 0)
(-0.125591 -0.139105 0)
(-0.117995 -0.190326 0)
(-0.115632 -0.225107 0)
(-0.110198 -0.263306 0)
(-0.0905472 -0.266398 0)
(-0.0416885 -0.165582 0)
(-8.26614e-05 0.0147472 0)
(-0.00106695 0.0281128 0)
(-0.00274385 0.0336841 0)
(-0.00451912 0.0359534 0)
(-0.0064791 0.0372295 0)
(-0.00833333 0.0383133 0)
(-0.0102874 0.0396455 0)
(-0.0121287 0.0412177 0)
(-0.0140948 0.0432725 0)
(-0.015969 0.0456852 0)
(-0.0180382 0.0488142 0)
(-0.0200543 0.0524774 0)
(-0.022391 0.057253 0)
(-0.0247534 0.0629219 0)
(-0.0276527 0.0704503 0)
(-0.030746 0.0796766 0)
(-0.0347366 0.0921612 0)
(-0.03919 0.107369 0)
(-0.0448956 0.125006 0)
(-0.0509139 0.136804 0)
(-0.0578449 0.129155 0)
(-0.0633457 0.0848505 0)
(-0.0697423 0.00980507 0)
(-0.0749274 -0.0729123 0)
(-0.0799461 -0.139695 0)
(-0.0776813 -0.193397 0)
(-0.0805766 -0.227036 0)
(-0.0800185 -0.271927 0)
(-0.0703479 -0.29464 0)
(-0.0327508 -0.225619 0)
(-1.48438e-05 0.014947 0)
(-0.000827505 0.0288875 0)
(-0.00231326 0.0348005 0)
(-0.00389414 0.0371765 0)
(-0.00564407 0.0384967 0)
(-0.00723963 0.0395515 0)
(-0.00891039 0.040895 0)
(-0.0103773 0.042443 0)
(-0.0119307 0.0445316 0)
(-0.0132479 0.0469433 0)
(-0.0146889 0.0501385 0)
(-0.0158378 0.0538226 0)
(-0.0171565 0.0587026 0)
(-0.0180614 0.0644008 0)
(-0.0191454 0.072054 0)
(-0.0195148 0.0812342 0)
(-0.0198603 0.0937034 0)
(-0.0186845 0.108479 0)
(-0.0167903 0.125775 0)
(-0.0124024 0.137449 0)
(-0.00882003 0.131435 0)
(-0.00592613 0.0904097 0)
(-0.0101754 0.019376 0)
(-0.0163627 -0.0628902 0)
(-0.0275547 -0.132249 0)
(-0.032742 -0.188137 0)
(-0.0449194 -0.221035 0)
(-0.0527581 -0.271979 0)
(-0.0538997 -0.31479 0)
(-0.02711 -0.271907 0)
(-2.09755e-05 0.0156834 0)
(-0.000681074 0.030529 0)
(-0.00197154 0.0368523 0)
(-0.00331462 0.0393959 0)
(-0.00480882 0.0406836 0)
(-0.00609973 0.0416799 0)
(-0.00743584 0.0428949 0)
(-0.00849716 0.0443163 0)
(-0.00960532 0.0462534 0)
(-0.0103571 0.04849 0)
(-0.0111721 0.051512 0)
(-0.0114758 0.0549461 0)
(-0.0118354 0.0595799 0)
(-0.0113681 0.0648407 0)
(-0.0108351 0.0719892 0)
(-0.0087789 0.0801878 0)
(-0.00614737 0.0913391 0)
(-0.000398217 0.103789 0)
(0.00715008 0.118567 0)
(0.0197468 0.128284 0)
(0.0319741 0.124313 0)
(0.0435483 0.0895397 0)
(0.0430662 0.0266681 0)
(0.0383029 -0.0508779 0)
(0.0221098 -0.118573 0)
(0.00925407 -0.174316 0)
(-0.012776 -0.205095 0)
(-0.0274571 -0.261063 0)
(-0.0378568 -0.320165 0)
(-0.0218761 -0.308334 0)
(5.45131e-05 0.0155109 0)
(-0.000480556 0.0306977 0)
(-0.00162282 0.0372966 0)
(-0.00281578 0.0398608 0)
(-0.00414872 0.0411537 0)
(-0.00520818 0.0420214 0)
(-0.00630986 0.0431832 0)
(-0.00701178 0.0444548 0)
(-0.00775749 0.046307 0)
(-0.00797089 0.0483475 0)
(-0.00823953 0.0512042 0)
(-0.00774266 0.0543066 0)
(-0.00728484 0.0585779 0)
(-0.00560029 0.0631747 0)
(-0.00382419 0.0694756 0)
(0.000137942 0.076199 0)
(0.00466628 0.0853165 0)
(0.0133629 0.0945423 0)
(0.0236695 0.105515 0)
(0.0407177 0.111753 0)
(0.0573438 0.108658 0)
(0.0754826 0.0810778 0)
(0.0785826 0.0294137 0)
(0.0759566 -0.0388152 0)
(0.0561573 -0.0995533 0)
(0.037109 -0.152636 0)
(0.00685691 -0.182946 0)
(-0.0123518 -0.245886 0)
(-0.0290072 -0.319562 0)
(-0.01754 -0.332806 0)
(-1.27687e-06 0.016263 0)
(-0.000430178 0.0323822 0)
(-0.00145354 0.03935 0)
(-0.00242842 0.0420959 0)
(-0.00352397 0.0432474 0)
(-0.00428682 0.0439968 0)
(-0.00506414 0.0448753 0)
(-0.00538572 0.0458861 0)
(-0.00573663 0.0473904 0)
(-0.00545696 0.0490436 0)
(-0.00524146 0.0514635 0)
(-0.00408104 0.0539945 0)
(-0.00300819 0.0576272 0)
(-0.00040883 0.0612842 0)
(0.00213652 0.0664614 0)
(0.00731887 0.071434 0)
(0.0126457 0.0783245 0)
(0.0226822 0.0842026 0)
(0.0332126 0.0913437 0)
(0.0511981 0.093608 0)
(0.0675147 0.0901281 0)
(0.0882605 0.0684929 0)
(0.0932948 0.0290274 0)
(0.0932408 -0.0273632 0)
(0.0727258 -0.0775519 0)
(0.0526059 -0.125674 0)
(0.0186699 -0.154765 0)
(-0.00227891 -0.225285 0)
(-0.0240003 -0.313787 0)
(-0.015821 -0.355581 0)
(9.85409e-05 0.0157429 0)
(-0.000304004 0.0319283 0)
(-0.00124713 0.0390978 0)
(-0.00216176 0.0416915 0)
(-0.00320417 0.0428296 0)
(-0.00379921 0.0433164 0)
(-0.00445884 0.0441257 0)
(-0.00447667 0.0448851 0)
(-0.00459127 0.0462643 0)
(-0.00386077 0.0476099 0)
(-0.00329008 0.0497712 0)
(-0.00152834 0.0518118 0)
(-2.23945e-05 0.0549176 0)
(0.00331821 0.0577067 0)
(0.00626215 0.0618391 0)
(0.0122159 0.0652343 0)
(0.017556 0.0701191 0)
(0.0279315 0.0732463 0)
(0.0371671 0.0771728 0)
(0.0540666 0.0762886 0)
(0.0671247 0.0718695 0)
(0.0867899 0.0543449 0)
(0.0913436 0.025722 0)
(0.0933845 -0.018908 0)
(0.0735822 -0.057866 0)
(0.0556249 -0.100302 0)
(0.0206992 -0.127341 0)
(0.00168808 -0.204371 0)
(-0.0227367 -0.304608 0)
(-0.0136878 -0.373307 0)
(-5.96594e-05 0.0167054 0)
(-0.000430834 0.0340009 0)
(-0.00142062 0.0414522 0)
(-0.00215372 0.0443288 0)
(-0.00296089 0.0451467 0)
(-0.00327137 0.0454997 0)
(-0.00359302 0.0458241 0)
(-0.00327696 0.0462085 0)
(-0.00306089 0.0470481 0)
(-0.00195727 0.047851 0)
(-0.00109185 0.0494117 0)
(0.00108632 0.0507321 0)
(0.0028202 0.0530865 0)
(0.0065836 0.0548694 0)
(0.00956421 0.0579219 0)
(0.0157807 0.0598153 0)
(0.0205968 0.0630464 0)
(0.0305681 0.0639745 0)
(0.0378704 0.065706 0)
(0.0527473 0.0626263 0)
(0.0617408 0.0579268 0)
(0.0784363 0.0430231 0)
(0.0807598 0.0232981 0)
(0.0843118 -0.0110726 0)
(0.065741 -0.0390463 0)
(0.0519064 -0.0752223 0)
(0.0173698 -0.100008 0)
(0.00231837 -0.184329 0)
(-0.0249108 -0.296844 0)
(-0.012701 -0.392961 0)
(0.000129287 0.0159406 0)
(-0.000391992 0.0329462 0)
(-0.00135759 0.0405402 0)
(-0.00216584 0.0428472 0)
(-0.00313578 0.0436801 0)
(-0.00336492 0.0435593 0)
(-0.00377527 0.0439009 0)
(-0.0032066 0.0439773 0)
(-0.00291723 0.0447817 0)
(-0.00143235 0.0452741 0)
(-0.000396562 0.0466562 0)
(0.00222174 0.0475167 0)
(0.00408928 0.0494581 0)
(0.00825722 0.0505153 0)
(0.0111247 0.0528113 0)
(0.0175103 0.0536198 0)
(0.0215933 0.0556494 0)
(0.0310494 0.0551599 0)
(0.0363593 0.0554462 0)
(0.0493053 0.0512792 0)
(0.0545894 0.0467218 0)
(0.0683544 0.0338618 0)
(0.0677633 0.0205702 0)
(0.0725522 -0.00581542 0)
(0.054969 -0.0246347 0)
(0.0464996 -0.0548465 0)
(0.0132144 -0.0764359 0)
(0.00396112 -0.165442 0)
(-0.0275003 -0.287421 0)
(-0.0102708 -0.412112 0)
(-0.000293259 0.0173105 0)
(-0.000918933 0.0359216 0)
(-0.00228103 0.0435758 0)
(-0.00293612 0.0465582 0)
(-0.00350256 0.0467315 0)
(-0.00340971 0.0465421 0)
(-0.00333572 0.0460757 0)
(-0.0024657 0.0456509 0)
(-0.00185859 0.0456882 0)
(-0.000116591 0.0454985 0)
(0.00106545 0.046176 0)
(0.0038957 0.0462608 0)
(0.00572722 0.0475013 0)
(0.0100022 0.0476681 0)
(0.0125483 0.0491969 0)
(0.0187635 0.0489582 0)
(0.0219875 0.050168 0)
(0.0306504 0.0485448 0)
(0.034151 0.0482831 0)
(0.0452542 0.0434162 0)
(0.0475277 0.0399009 0)
(0.0589583 0.0285384 0)
(0.0555486 0.0204024 0)
(0.0614342 -0.000119816 0)
(0.0441798 -0.0113048 0)
(0.0411408 -0.036397 0)
(0.00877543 -0.0549695 0)
(0.00541449 -0.147585 0)
(-0.0315194 -0.279411 0)
(-0.00725374 -0.43234 0)
(0.000250037 0.0167433 0)
(-0.000752749 0.0343986 0)
(-0.00206579 0.0421796 0)
(-0.00301713 0.0434392 0)
(-0.00431538 0.0437631 0)
(-0.00424394 0.0427608 0)
(-0.00463966 0.0426078 0)
(-0.00349604 0.0419114 0)
(-0.0029855 0.0421866 0)
(-0.000834256 0.0418002 0)
(0.000413764 0.0425405 0)
(0.00365321 0.0423044 0)
(0.00549056 0.0434113 0)
(0.0100701 0.0430859 0)
(0.0123453 0.0442925 0)
(0.0186291 0.0434405 0)
(0.0210619 0.0442072 0)
(0.0293487 0.0420451 0)
(0.0312839 0.0415041 0)
(0.0413719 0.0366625 0)
(0.0412648 0.0339089 0)
(0.0515896 0.0242116 0)
(0.0458976 0.0193044 0)
(0.0531825 0.00322164 0)
(0.0358513 -0.00259507 0)
(0.0380964 -0.0231211 0)
(0.00590697 -0.0379038 0)
(0.00828169 -0.13048 0)
(-0.0355558 -0.270913 0)
(-0.00271065 -0.453235 0)
(-0.00114659 0.0182432 0)
(-0.00274459 0.0389331 0)
(-0.00499669 0.0462805 0)
(-0.00561782 0.0495759 0)
(-0.00560137 0.0485152 0)
(-0.00502995 0.0475423 0)
(-0.00447565 0.0459489 0)
(-0.0030524 0.044484 0)
(-0.00214991 0.0436463 0)
(0.000145974 0.0423619 0)
(0.00144065 0.0422991 0)
(0.00474304 0.0412172 0)
(0.00639764 0.0417223 0)
(0.0109288 0.0406068 0)
(0.0127822 0.0413698 0)
(0.0187917 0.0397691 0)
(0.0204646 0.0403561 0)
(0.0280894 0.0375487 0)
(0.0287876 0.0374345 0)
(0.0377962 0.0323252 0)
(0.0359212 0.0312327 0)
(0.0454297 0.0224001 0)
(0.0378701 0.020938 0)
(0.0466805 0.00776539 0)
(0.0287062 0.00684243 0)
(0.0367439 -0.00993552 0)
(0.00453009 -0.0204715 0)
(0.0141904 -0.111561 0)
(-0.0387399 -0.262262 0)
(0.00421918 -0.473211 0)
(0.00105993 0.0201996 0)
(-0.000711104 0.0374121 0)
(-0.00347951 0.0446274 0)
(-0.00499598 0.0429637 0)
(-0.0074749 0.0425987 0)
(-0.00694022 0.0405808 0)
(-0.00752919 0.0400825 0)
(-0.00558153 0.0386551 0)
(-0.00490388 0.0386117 0)
(-0.00198573 0.0373851 0)
(-0.000604404 0.0377905 0)
(0.00322856 0.0365636 0)
(0.00492244 0.0373093 0)
(0.00984979 0.035876 0)
(0.0114781 0.0367556 0)
(0.0177498 0.0348049 0)
(0.0187735 0.0354895 0)
(0.0265485 0.0325519 0)
(0.0260764 0.0326547 0)
(0.0352474 0.0280342 0)
(0.0317713 0.0274639 0)
(0.0419214 0.0202495 0)
(0.0328639 0.0197502 0)
(0.0437892 0.00941581 0)
(0.0253113 0.00998925 0)
(0.0379976 -0.00370037 0)
(0.0054766 -0.0107681 0)
(0.0207643 -0.0946865 0)
(-0.0417206 -0.25385 0)
(0.0133857 -0.491726 0)
(-0.00525404 0.0180803 0)
(-0.00863379 0.0446056 0)
(-0.0102852 0.0509461 0)
(-0.0108188 0.0549616 0)
(-0.00920707 0.0512784 0)
(-0.00818978 0.0487714 0)
(-0.00702397 0.0455558 0)
(-0.00495884 0.042647 0)
(-0.00379733 0.0409858 0)
(-0.00090606 0.0384659 0)
(0.000415681 0.0379684 0)
(0.00417799 0.0357495 0)
(0.00558578 0.0359911 0)
(0.0103926 0.0337877 0)
(0.0116081 0.0344632 0)
(0.01762 0.0318772 0)
(0.0181156 0.0327764 0)
(0.025382 0.0292732 0)
(0.0242515 0.0303285 0)
(0.0326939 0.0252179 0)
(0.0283766 0.0267355 0)
(0.0380984 0.0193372 0)
(0.0279241 0.0221575 0)
(0.0401771 0.0125088 0)
(0.0202723 0.0171585 0)
(0.0385772 0.00559142 0)
(0.00511243 0.00369531 0)
(0.0325842 -0.0712936 0)
(-0.0384015 -0.243658 0)
(0.0277519 -0.505793 0)
(0.00461944 0.0344203 0)
(-0.000773581 0.0411164 0)
(-0.0111836 0.0465892 0)
(-0.0119846 0.0398648 0)
(-0.0158363 0.0390371 0)
(-0.0129229 0.0365888 0)
(-0.0131196 0.0359503 0)
(-0.00939607 0.033954 0)
(-0.00831236 0.0339776 0)
(-0.00437236 0.0319432 0)
(-0.00281496 0.0324894 0)
(0.0015874 0.0302776 0)
(0.0031639 0.0312206 0)
(0.00844949 0.0287248 0)
(0.00955401 0.0299737 0)
(0.0161178 0.027045 0)
(0.0160447 0.0284843 0)
(0.0242234 0.0249386 0)
(0.0219059 0.0264198 0)
(0.03207 0.0220732 0)
(0.0258998 0.0235081 0)
(0.038773 0.0182409 0)
(0.0264331 0.0196873 0)
(0.0436086 0.0133971 0)
(0.0221113 0.0147437 0)
(0.0464776 0.00547979 0)
(0.0123127 0.000882868 0)
(0.0510181 -0.0604156 0)
(-0.0252487 -0.236424 0)
(0.0483657 -0.508037 0)
(-0.011113 0.0122387 0)
(-0.0109267 0.0623419 0)
(-0.00257482 0.062059 0)
(-0.0105629 0.0623989 0)
(-0.00925501 0.0536142 0)
(-0.0104596 0.0481457 0)
(-0.0104997 0.0436126 0)
(-0.00910612 0.0390985 0)
(-0.00838654 0.03739 0)
(-0.00510497 0.0335593 0)
(-0.00376132 0.0332841 0)
(0.00131773 0.0298517 0)
(0.00268293 0.0303615 0)
(0.009663 0.0270507 0)
(0.0102835 0.0281331 0)
(0.0193741 0.02461 0)
(0.0183241 0.0262916 0)
(0.0298184 0.0221371 0)
(0.0258936 0.0246212 0)
(0.040257 0.0193196 0)
(0.0316837 0.0230228 0)
(0.0500043 0.0160653 0)
(0.0338167 0.0216592 0)
(0.058916 0.0130151 0)
(0.0301147 0.0206461 0)
(0.0689974 0.0102667 0)
(0.0229225 0.00861395 0)
(0.0932035 -0.0387173 0)
(0.0241069 -0.215924 0)
(0.0873782 -0.487189 0)
(-0.072852 0.0615971 0)
(-0.0595952 0.0294307 0)
(-0.0787739 0.0465854 0)
(-0.0549907 0.042409 0)
(-0.0514345 0.037065 0)
(-0.0314557 0.0347471 0)
(-0.0240085 0.0330327 0)
(-0.00555939 0.0295363 0)
(0.00115227 0.0290838 0)
(0.0200471 0.0255002 0)
(0.0242645 0.0257806 0)
(0.0447568 0.0222361 0)
(0.0455592 0.0230889 0)
(0.0686039 0.0195479 0)
(0.0650534 0.0209032 0)
(0.0918456 0.0173096 0)
(0.0825412 0.0190643 0)
(0.114778 0.0154609 0)
(0.0975991 0.0173554 0)
(0.137643 0.0140646 0)
(0.109639 0.0154551 0)
(0.160666 0.0133736 0)
(0.118238 0.0128365 0)
(0.184385 0.0132069 0)
(0.124517 0.00750769 0)
(0.210748 0.0063154 0)
(0.135265 -0.0179035 0)
(0.241716 -0.06538 0)
(0.145573 -0.20758 0)
(0.149982 -0.410829 0)
(0.0842852 0.129439 0)
(0.127734 0.0743025 0)
(0.175754 0.0581094 0)
(0.231638 0.0406383 0)
(0.255725 0.0327683 0)
(0.299929 0.0240883 0)
(0.312116 0.0203477 0)
(0.352467 0.0157315 0)
(0.355512 0.0140097 0)
(0.39527 0.0112229 0)
(0.390592 0.0104825 0)
(0.431718 0.0086629 0)
(0.419869 0.00829192 0)
(0.463705 0.00714061 0)
(0.444813 0.00675563 0)
(0.492372 0.00618532 0)
(0.466341 0.00556651 0)
(0.51842 0.00550366 0)
(0.485046 0.00463525 0)
(0.542243 0.00482247 0)
(0.501323 0.00402845 0)
(0.563994 0.00376948 0)
(0.515421 0.00391583 0)
(0.583487 0.00160269 0)
(0.526708 0.00408455 0)
(0.598421 -0.00442213 0)
(0.525466 -0.000357018 0)
(0.584755 -0.0312584 0)
(0.425958 -0.0498447 0)
(0.314638 -0.180074 0)
)
;

boundaryField
{
    movingWall
    {
        type            fixedValue;
        value           uniform (1 0 0);
    }
    fixedWalls
    {
        type            noSlip;
    }
    frontAndBack
    {
        type            empty;
    }
}


// ************************************************************************* //
