/*--------------------------------*- C++ -*----------------------------------*\
| =========                 |                                                 |
| \\      /  F ield         | OpenFOAM: The Open Source CFD Toolbox           |
|  \\    /   O peration     | Version:  2406                                  |
|   \\  /    A nd           | Website:  www.openfoam.com                      |
|    \\/     M anipulation  |                                                 |
\*---------------------------------------------------------------------------*/
FoamFile
{
    version     2.0;
    format      ascii;
    arch        "LSB;label=32;scalar=64";
    class       volVectorField;
    location    "35.8";
    object      Uold;
}
// * * * * * * * * * * * * * * * * * * * * * * * * * * * * * * * * * * * * * //

dimensions      [0 1 -1 0 0 0 0];

internalField   nonuniform List<vector> 
14400
(
(-1.75992e-05 1.75522e-05 0)
(-3.65027e-06 -9.81071e-06 0)
(9.87129e-05 -4.02068e-05 0)
(0.000277341 -6.74362e-05 0)
(0.00052142 -8.37955e-05 0)
(0.000799071 -9.29916e-05 0)
(0.00109556 -9.4058e-05 0)
(0.00138564 -8.99126e-05 0)
(0.00165867 -8.10554e-05 0)
(0.00189989 -6.97406e-05 0)
(0.00210538 -5.69468e-05 0)
(0.00227047 -4.43186e-05 0)
(0.00239766 -3.26619e-05 0)
(0.00248956 -2.28871e-05 0)
(0.00255254 -1.52974e-05 0)
(0.00259247 -1.00873e-05 0)
(0.00261627 -7.03818e-06 0)
(0.00262936 -5.80956e-06 0)
(0.00263638 -5.8358e-06 0)
(0.00263983 -6.51403e-06 0)
(0.00264058 -7.19307e-06 0)
(0.00263743 -7.29678e-06 0)
(0.00262764 -6.33411e-06 0)
(0.00260701 -3.9574e-06 0)
(0.00257048 5.41101e-08 0)
(0.00251232 5.79976e-06 0)
(0.00242658 1.33046e-05 0)
(0.00230716 2.25553e-05 0)
(0.00214798 3.35424e-05 0)
(0.0019429 4.62815e-05 0)
(0.0016857 6.08225e-05 0)
(0.00137004 7.72405e-05 0)
(0.000989413 9.56201e-05 0)
(0.000537221 0.000116034 0)
(6.84695e-06 0.000138523 0)
(-0.000608185 0.000163085 0)
(-0.00131402 0.000189658 0)
(-0.00211624 0.000218118 0)
(-0.00301967 0.00024827 0)
(-0.00402808 0.000279849 0)
(-0.00514399 0.000312513 0)
(-0.00636837 0.000345851 0)
(-0.0077005 0.000379378 0)
(-0.00913768 0.000412547 0)
(-0.0106751 0.000444752 0)
(-0.0123059 0.000475341 0)
(-0.0140206 0.000503625 0)
(-0.0158077 0.000528889 0)
(-0.0176531 0.000550408 0)
(-0.0195408 0.000567458 0)
(-0.0214524 0.000579326 0)
(-0.0233677 0.000585321 0)
(-0.0252646 0.000584783 0)
(-0.0271197 0.000577096 0)
(-0.028908 0.000561691 0)
(-0.0306039 0.000538063 0)
(-0.0321808 0.00050578 0)
(-0.0336119 0.000464502 0)
(-0.0348705 0.000413997 0)
(-0.0359302 0.000354166 0)
(-0.0367658 0.000285072 0)
(-0.0373531 0.000206963 0)
(-0.0376701 0.000120309 0)
(-0.0376971 2.5826e-05 0)
(-0.0374178 -7.54941e-05 0)
(-0.0368192 -0.000182362 0)
(-0.0358932 -0.000293182 0)
(-0.0346364 -0.000406045 0)
(-0.033051 -0.000518755 0)
(-0.0311457 -0.000628853 0)
(-0.0289356 -0.000733679 0)
(-0.0264427 -0.000830447 0)
(-0.0236958 -0.000916344 0)
(-0.0207307 -0.000988647 0)
(-0.0175893 -0.00104486 0)
(-0.0143195 -0.00108283 0)
(-0.0109732 -0.00110093 0)
(-0.00760617 -0.00109812 0)
(-0.00427547 -0.00107411 0)
(-0.00103834 -0.00102936 0)
(0.00204995 -0.000965145 0)
(0.0049379 -0.000883519 0)
(0.0075796 -0.000787208 0)
(0.00993633 -0.000679497 0)
(0.0119779 -0.000564053 0)
(0.0136835 -0.000444728 0)
(0.0150425 -0.000325346 0)
(0.0160538 -0.000209505 0)
(0.0167262 -0.000100397 0)
(0.0170771 -6.69123e-07 0)
(0.0171311 8.76643e-05 0)
(0.0169188 0.000163264 0)
(0.0164753 0.000225457 0)
(0.0158378 0.000274184 0)
(0.0150449 0.000309918 0)
(0.014134 0.000333559 0)
(0.0131411 0.000346332 0)
(0.0120989 0.000349659 0)
(0.0110363 0.000345081 0)
(0.00997848 0.000334139 0)
(0.00894563 0.000318337 0)
(0.00795401 0.000299043 0)
(0.00701542 0.000277507 0)
(0.00613824 0.000254766 0)
(0.00532704 0.000231748 0)
(0.00458416 0.000209125 0)
(0.00390875 0.000187541 0)
(0.00329914 0.00016734 0)
(0.00275078 0.000148969 0)
(0.00226002 0.000132427 0)
(0.00182024 0.000117995 0)
(0.00142819 0.000105128 0)
(0.00107728 9.38563e-05 0)
(0.000768114 8.26285e-05 0)
(0.000497327 7.11919e-05 0)
(0.000273492 5.64118e-05 0)
(9.97182e-05 3.86942e-05 0)
(-8.17703e-06 1.42011e-05 0)
(-4.59572e-05 -8.76083e-06 0)
(-2.30698e-05 -2.26061e-05 0)
(8.65956e-06 4.29163e-06 0)
(0.000142157 -0.000145217 0)
(0.000459432 -0.000299659 0)
(0.000924614 -0.000437355 0)
(0.00152293 -0.000528687 0)
(0.00219341 -0.000580863 0)
(0.00290342 -0.000590769 0)
(0.0036011 -0.000568503 0)
(0.00425915 -0.000518864 0)
(0.00484543 -0.000451987 0)
(0.00534702 -0.000374829 0)
(0.00575239 -0.000295715 0)
(0.00606334 -0.00022025 0)
(0.00628387 -0.000153389 0)
(0.00642523 -9.7616e-05 0)
(0.00649884 -5.40893e-05 0)
(0.00651796 -2.20234e-05 0)
(0.00649327 5.05741e-07 0)
(0.00643339 1.65697e-05 0)
(0.00634253 2.97286e-05 0)
(0.00622096 4.37888e-05 0)
(0.00606428 6.22973e-05 0)
(0.00586433 8.8323e-05 0)
(0.00560949 0.000124212 0)
(0.00528576 0.000171581 0)
(0.00487742 0.000231369 0)
(0.00436784 0.000304026 0)
(0.00373989 0.000389705 0)
(0.00297634 0.000488455 0)
(0.00205995 0.000600332 0)
(0.000973573 0.000725436 0)
(-0.000299746 0.000863867 0)
(-0.00177658 0.00101564 0)
(-0.00347282 0.00118056 0)
(-0.00540327 0.00135813 0)
(-0.00758106 0.00154748 0)
(-0.0100171 0.00174726 0)
(-0.0127195 0.00195564 0)
(-0.0156926 0.00217031 0)
(-0.0189368 0.00238845 0)
(-0.0224478 0.00260677 0)
(-0.026216 0.00282158 0)
(-0.0302263 0.00302882 0)
(-0.034458 0.00322415 0)
(-0.0388844 0.00340306 0)
(-0.0434733 0.00356097 0)
(-0.0481872 0.00369333 0)
(-0.0529835 0.00379575 0)
(-0.0578153 0.00386406 0)
(-0.0626321 0.00389445 0)
(-0.0673805 0.00388353 0)
(-0.0720051 0.00382835 0)
(-0.0764492 0.00372655 0)
(-0.0806559 0.0035763 0)
(-0.0845687 0.00337639 0)
(-0.0881322 0.00312624 0)
(-0.0912934 0.00282596 0)
(-0.0940017 0.00247631 0)
(-0.0962101 0.00207879 0)
(-0.0978755 0.00163565 0)
(-0.0989595 0.00114995 0)
(-0.099429 0.000625579 0)
(-0.0992567 6.73455e-05 0)
(-0.0984218 -0.00051902 0)
(-0.0969106 -0.00112681 0)
(-0.0947171 -0.00174833 0)
(-0.0918433 -0.00237491 0)
(-0.0883002 -0.00299696 0)
(-0.084108 -0.00360405 0)
(-0.0792966 -0.00418511 0)
(-0.0739055 -0.00472856 0)
(-0.0679847 -0.00522268 0)
(-0.0615936 -0.00565586 0)
(-0.0548013 -0.00601708 0)
(-0.0476857 -0.00629625 0)
(-0.0403327 -0.00648478 0)
(-0.0328347 -0.00657593 0)
(-0.0252892 -0.00656532 0)
(-0.0177966 -0.00645126 0)
(-0.0104582 -0.00623503 0)
(-0.00337402 -0.00592101 0)
(0.00336035 -0.0055167 0)
(0.00965577 -0.00503252 0)
(0.0154323 -0.00448151 0)
(0.0206215 -0.00387884 0)
(0.0251684 -0.00324113 0)
(0.029033 -0.00258584 0)
(0.0321915 -0.00193043 0)
(0.0346369 -0.00129163 0)
(0.0363785 -0.000684751 0)
(0.0374417 -0.000123054 0)
(0.0378662 0.000382699 0)
(0.0377043 0.000824574 0)
(0.0370187 0.00119759 0)
(0.0358792 0.00149969 0)
(0.0343607 0.00173155 0)
(0.0325392 0.00189625 0)
(0.0304901 0.00199886 0)
(0.0282846 0.00204595 0)
(0.0259887 0.00204504 0)
(0.0236605 0.00200421 0)
(0.0213504 0.00193155 0)
(0.0190991 0.00183488 0)
(0.0169395 0.00172138 0)
(0.0148947 0.00159759 0)
(0.0129813 0.00146897 0)
(0.0112076 0.00134037 0)
(0.00957782 0.00121532 0)
(0.00808891 0.00109698 0)
(0.00673744 0.000986707 0)
(0.00551386 0.000885818 0)
(0.00441318 0.000792665 0)
(0.00342482 0.000706292 0)
(0.00255015 0.000620572 0)
(0.00178394 0.000532631 0)
(0.00114155 0.000431212 0)
(0.000626058 0.000317077 0)
(0.000264352 0.000179826 0)
(5.30965e-05 5.02971e-05 0)
(-8.90286e-06 -4.58862e-05 0)
(3.63545e-05 -9.31978e-05 0)
(0.000287486 -0.000459714 0)
(0.000802837 -0.000818971 0)
(0.00150617 -0.00113002 0)
(0.00238124 -0.00134292 0)
(0.00334412 -0.00146234 0)
(0.00435286 -0.00148469 0)
(0.0053382 -0.0014278 0)
(0.00626275 -0.00130494 0)
(0.00708289 -0.00113758 0)
(0.00777927 -0.000943349 0)
(0.00833499 -0.000741017 0)
(0.00874996 -0.000544717 0)
(0.00902755 -0.000365991 0)
(0.00918033 -0.000211369 0)
(0.00922141 -8.36269e-05 0)
(0.00916606 1.87755e-05 0)
(0.00902623 0.00010049 0)
(0.00881083 0.00016884 0)
(0.00852271 0.000232567 0)
(0.00815918 0.000301002 0)
(0.00771103 0.000382996 0)
(0.00716372 0.000486253 0)
(0.00649784 0.000616803 0)
(0.00569056 0.000778896 0)
(0.00471659 0.00097513 0)
(0.00354934 0.00120682 0)
(0.00216162 0.00147445 0)
(0.000526293 0.00177802 0)
(-0.00138335 0.00211731 0)
(-0.00359316 0.00249194 0)
(-0.00612771 0.00290121 0)
(-0.00900969 0.00334392 0)
(-0.0122592 0.00381808 0)
(-0.0158926 0.00432069 0)
(-0.0199222 0.00484754 0)
(-0.0243542 0.00539313 0)
(-0.0291888 0.00595063 0)
(-0.0344183 0.00651191 0)
(-0.0400272 0.00706768 0)
(-0.0459912 0.00760766 0)
(-0.0522772 0.00812078 0)
(-0.0588435 0.00859552 0)
(-0.0656399 0.00902015 0)
(-0.0726088 0.00938315 0)
(-0.0796858 0.00967347 0)
(-0.0868016 0.00988088 0)
(-0.0938827 0.00999626 0)
(-0.100853 0.0100118 0)
(-0.107637 0.0099211 0)
(-0.114157 0.0097195 0)
(-0.120339 0.00940387 0)
(-0.126112 0.00897274 0)
(-0.131408 0.00842623 0)
(-0.136164 0.00776597 0)
(-0.140323 0.00699504 0)
(-0.143833 0.00611788 0)
(-0.146647 0.00514024 0)
(-0.148726 0.00406911 0)
(-0.150036 0.00291272 0)
(-0.15055 0.00168055 0)
(-0.150248 0.000383342 0)
(-0.149117 -0.000966848 0)
(-0.147148 -0.0023566 0)
(-0.144344 -0.0037711 0)
(-0.14071 -0.00519413 0)
(-0.136263 -0.00660806 0)
(-0.131026 -0.00799396 0)
(-0.12503 -0.00933175 0)
(-0.118316 -0.0106004 0)
(-0.110931 -0.0117782 0)
(-0.102934 -0.0128435 0)
(-0.0943921 -0.0137748 0)
(-0.0853806 -0.0145516 0)
(-0.0759836 -0.0151552 0)
(-0.0662932 -0.0155693 0)
(-0.0564084 -0.015781 0)
(-0.0464337 -0.0157811 0)
(-0.036478 -0.0155655 0)
(-0.0266526 -0.0151348 0)
(-0.0170689 -0.0144955 0)
(-0.00783655 -0.0136598 0)
(0.000939361 -0.0126454 0)
(0.00916044 -0.0114751 0)
(0.0167375 -0.0101763 0)
(0.023593 -0.00878018 0)
(0.0296628 -0.0073203 0)
(0.0348979 -0.00583163 0)
(0.0392663 -0.00434916 0)
(0.0427533 -0.00290663 0)
(0.0453622 -0.00153519 0)
(0.0471142 -0.000262374 0)
(0.0480474 0.000888935 0)
(0.0482158 0.00190118 0)
(0.0476871 0.0027626 0)
(0.0465401 0.00346737 0)
(0.0448621 0.00401544 0)
(0.042745 0.00441208 0)
(0.0402822 0.00466714 0)
(0.0375657 0.00479414 0)
(0.0346819 0.00480924 0)
(0.0317102 0.00473012 0)
(0.0287204 0.00457505 0)
(0.0257718 0.00436184 0)
(0.0229119 0.00410739 0)
(0.0201781 0.00382679 0)
(0.0175959 0.00353354 0)
(0.0151829 0.00323846 0)
(0.012946 0.00295068 0)
(0.0108893 0.00267567 0)
(0.00900712 0.00241733 0)
(0.00729827 0.00217397 0)
(0.00575256 0.00194307 0)
(0.00437434 0.00171345 0)
(0.00315693 0.00147725 0)
(0.00212115 0.00121463 0)
(0.00126611 0.000924346 0)
(0.000631043 0.000592304 0)
(0.000203932 0.000268855 0)
(1.85624e-05 -1.89249e-06 0)
(6.08044e-05 -0.000260478 0)
(0.000418089 -0.000915419 0)
(0.0011053 -0.00152001 0)
(0.00200191 -0.00202401 0)
(0.00308924 -0.00236783 0)
(0.00426292 -0.00255378 0)
(0.0054768 -0.00257984 0)
(0.00664932 -0.00247158 0)
(0.00773818 -0.00225214 0)
(0.00869215 -0.00195532 0)
(0.00948832 -0.00161087 0)
(0.0101057 -0.00124918 0)
(0.0105425 -0.000894026 0)
(0.0108002 -0.000564324 0)
(0.0108906 -0.000271102 0)
(0.0108256 -1.88162e-05 0)
(0.0106191 0.000195168 0)
(0.0102811 0.000378922 0)
(0.00981742 0.000545001 0)
(0.00922657 0.000708486 0)
(0.00850038 0.000885445 0)
(0.00762296 0.00109117 0)
(0.00657207 0.001339 0)
(0.00531983 0.00163941 0)
(0.00383448 0.00199978 0)
(0.00208162 0.00242465 0)
(2.56726e-05 0.00291618 0)
(-0.00236911 0.00347489 0)
(-0.00513764 0.00410016 0)
(-0.0083132 0.00479054 0)
(-0.0119265 0.00554378 0)
(-0.0160048 0.00635652 0)
(-0.0205706 0.00722397 0)
(-0.0256402 0.00813944 0)
(-0.0312227 0.00909407 0)
(-0.0373183 0.0100766 0)
(-0.043917 0.0110733 0)
(-0.0509979 0.0120683 0)
(-0.0585285 0.0130435 0)
(-0.0664644 0.0139796 0)
(-0.0747497 0.014856 0)
(-0.0833179 0.0156519 0)
(-0.0920933 0.0163468 0)
(-0.100993 0.0169214 0)
(-0.109928 0.0173578 0)
(-0.118807 0.0176406 0)
(-0.127538 0.0177569 0)
(-0.13603 0.0176969 0)
(-0.144194 0.0174539 0)
(-0.15195 0.0170242 0)
(-0.159219 0.0164071 0)
(-0.165932 0.0156046 0)
(-0.172028 0.0146212 0)
(-0.17745 0.0134634 0)
(-0.182153 0.0121396 0)
(-0.186096 0.0106596 0)
(-0.189245 0.00903461 0)
(-0.191574 0.00727694 0)
(-0.193062 0.00539995 0)
(-0.193693 0.00341804 0)
(-0.193457 0.00134665 0)
(-0.192348 -0.000797645 0)
(-0.190364 -0.00299702 0)
(-0.187511 -0.00523228 0)
(-0.183795 -0.00748272 0)
(-0.179232 -0.00972605 0)
(-0.173838 -0.0119383 0)
(-0.16764 -0.0140939 0)
(-0.160666 -0.0161658 0)
(-0.152956 -0.0181255 0)
(-0.144552 -0.0199436 0)
(-0.135508 -0.0215905 0)
(-0.125883 -0.0230366 0)
(-0.115746 -0.0242532 0)
(-0.105174 -0.025214 0)
(-0.0942523 -0.0258952 0)
(-0.0830729 -0.0262774 0)
(-0.0717354 -0.0263459 0)
(-0.0603448 -0.0260925 0)
(-0.0490102 -0.0255157 0)
(-0.0378428 -0.0246213 0)
(-0.0269544 -0.0234233 0)
(-0.0164546 -0.0219432 0)
(-0.00644882 -0.0202101 0)
(0.0029639 -0.0182599 0)
(0.0116933 -0.0161341 0)
(0.0196596 -0.0138789 0)
(0.0267956 -0.0115432 0)
(0.0330482 -0.00917765 0)
(0.0383794 -0.00683248 0)
(0.0427673 -0.00455607 0)
(0.0462073 -0.00239337 0)
(0.0487117 -0.00038438 0)
(0.0503101 0.0014371 0)
(0.0510486 0.00304456 0)
(0.0509886 0.00441954 0)
(0.0502051 0.00555206 0)
(0.0487842 0.0064406 0)
(0.04682 0.00709177 0)
(0.0444113 0.0075193 0)
(0.0416577 0.00774304 0)
(0.0386567 0.00778722 0)
(0.035499 0.00767914 0)
(0.0322677 0.00744723 0)
(0.0290341 0.00711998 0)
(0.0258591 0.00672419 0)
(0.0227893 0.00628469 0)
(0.0198619 0.00582256 0)
(0.0170998 0.00535586 0)
(0.0145209 0.00489699 0)
(0.0121296 0.00445479 0)
(0.00993387 0.0040297 0)
(0.00792799 0.00361915 0)
(0.00612254 0.00320855 0)
(0.00451037 0.00278557 0)
(0.00311885 0.00232319 0)
(0.00194174 0.00181599 0)
(0.00103351 0.00124516 0)
(0.000375483 0.000666469 0)
(5.06484e-05 0.000128783 0)
(7.6345e-05 -0.000490522 0)
(0.000513937 -0.00150741 0)
(0.00133823 -0.00240147 0)
(0.00238746 -0.00311978 0)
(0.00363704 -0.00360143 0)
(0.00496172 -0.0038478 0)
(0.00631135 -0.00386177 0)
(0.0075939 -0.00367772 0)
(0.00876445 -0.00333091 0)
(0.00976668 -0.00286875 0)
(0.0105763 -0.00233478 0)
(0.0111698 -0.001772 0)
(0.0115444 -0.00121471 0)
(0.0116998 -0.000689517 0)
(0.011646 -0.000211981 0)
(0.0113921 0.000212213 0)
(0.0109489 0.000587551 0)
(0.0103213 0.000926606 0)
(0.00950945 0.00124841 0)
(0.00850506 0.00157568 0)
(0.00729196 0.00193245 0)
(0.00584562 0.00234147 0)
(0.00413472 0.00282242 0)
(0.00212227 0.0033906 0)
(-0.000232293 0.00405661 0)
(-0.00297154 0.00482657 0)
(-0.00613823 0.00570288 0)
(-0.00977388 0.00668505 0)
(-0.0139173 0.00777033 0)
(-0.0186034 0.00895403 0)
(-0.0238611 0.0102293 0)
(-0.0297124 0.011587 0)
(-0.03617 0.0130147 0)
(-0.0432356 0.0144966 0)
(-0.0508986 0.0160134 0)
(-0.0591344 0.0175417 0)
(-0.0679037 0.019055 0)
(-0.0771528 0.0205242 0)
(-0.0868135 0.0219179 0)
(-0.096805 0.0232045 0)
(-0.107036 0.0243523 0)
(-0.117407 0.0253315 0)
(-0.127814 0.026115 0)
(-0.138151 0.0266793 0)
(-0.148313 0.0270056 0)
(-0.1582 0.0270797 0)
(-0.167719 0.0268927 0)
(-0.176785 0.0264404 0)
(-0.185321 0.0257233 0)
(-0.193261 0.0247459 0)
(-0.200549 0.0235161 0)
(-0.207138 0.0220444 0)
(-0.212989 0.0203438 0)
(-0.218072 0.0184286 0)
(-0.222363 0.0163143 0)
(-0.225842 0.0140172 0)
(-0.228496 0.0115543 0)
(-0.230315 0.0089428 0)
(-0.231293 0.00620049 0)
(-0.231423 0.0033457 0)
(-0.230706 0.000397464 0)
(-0.229139 -0.00262424 0)
(-0.226726 -0.00569823 0)
(-0.22347 -0.00880182 0)
(-0.219378 -0.0119106 0)
(-0.214457 -0.0149981 0)
(-0.208722 -0.0180358 0)
(-0.202188 -0.0209928 0)
(-0.194876 -0.0238362 0)
(-0.186814 -0.0265308 0)
(-0.178035 -0.02904 0)
(-0.16858 -0.0313262 0)
(-0.158497 -0.0333513 0)
(-0.147844 -0.0350781 0)
(-0.136688 -0.0364713 0)
(-0.125103 -0.0374986 0)
(-0.113175 -0.0381325 0)
(-0.100997 -0.0383513 0)
(-0.0886691 -0.038141 0)
(-0.076298 -0.0374957 0)
(-0.0639943 -0.0364195 0)
(-0.0518711 -0.034926 0)
(-0.0400412 -0.0330393 0)
(-0.028615 -0.0307929 0)
(-0.0176978 -0.0282297 0)
(-0.00738822 -0.0254001 0)
(0.00222444 -0.0223612 0)
(0.0110614 -0.0191745 0)
(0.019056 -0.015904 0)
(0.0261545 -0.0126151 0)
(0.0323173 -0.00937164 0)
(0.0375191 -0.00623491 0)
(0.0417498 -0.00326156 0)
(0.0450151 -0.000502093 0)
(0.0473361 0.00200058 0)
(0.0487498 0.00421243 0)
(0.0493087 0.00610937 0)
(0.0490795 0.00767791 0)
(0.0481414 0.0089154 0)
(0.0465844 0.00982972 0)
(0.044505 0.0104384 0)
(0.042004 0.0107673 0)
(0.0391815 0.0108487 0)
(0.0361346 0.010719 0)
(0.0329522 0.0104172 0)
(0.0297151 0.00998204 0)
(0.0264908 0.0094508 0)
(0.023337 0.00885695 0)
(0.0202954 0.00822988 0)
(0.0174016 0.00759177 0)
(0.0146742 0.00695897 0)
(0.0121341 0.00633679 0)
(0.0097841 0.0057245 0)
(0.00764406 0.00510642 0)
(0.00570894 0.00446622 0)
(0.00401532 0.00377115 0)
(0.00255413 0.0030085 0)
(0.00139886 0.00215305 0)
(0.000528405 0.00125209 0)
(7.76268e-05 0.000346969 0)
(8.81289e-05 -0.00075914 0)
(0.000588836 -0.00219116 0)
(0.0015197 -0.00340154 0)
(0.00268412 -0.00433934 0)
(0.00404905 -0.00494961 0)
(0.00546955 -0.0052369 0)
(0.00689104 -0.00521303 0)
(0.00821254 -0.00492326 0)
(0.00938795 -0.00441691 0)
(0.0103578 -0.00375588 0)
(0.011098 -0.00299807 0)
(0.0115842 -0.002199 0)
(0.011813 -0.00140309 0)
(0.0117826 -0.000643862 0)
(0.0115005 5.96233e-05 0)
(0.0109716 0.000701648 0)
(0.0102011 0.0012898 0)
(0.00918714 0.00184241 0)
(0.0079214 0.00238607 0)
(0.00638612 0.00295205 0)
(0.00455516 0.00357284 0)
(0.00239377 0.00427883 0)
(-0.00013918 0.00509575 0)
(-0.00308962 0.0060431 0)
(-0.00650572 0.00713361 0)
(-0.0104359 0.00837363 0)
(-0.0149265 0.00976399 0)
(-0.02002 0.0113009 0)
(-0.0257529 0.0129767 0)
(-0.0321536 0.0147798 0)
(-0.03924 0.0166948 0)
(-0.0470178 0.0187015 0)
(-0.0554776 0.0207748 0)
(-0.0645939 0.0228847 0)
(-0.0743235 0.0249958 0)
(-0.0846055 0.0270687 0)
(-0.0953621 0.029061 0)
(-0.1065 0.0309285 0)
(-0.117915 0.0326274 0)
(-0.129493 0.0341158 0)
(-0.141116 0.0353557 0)
(-0.152665 0.0363146 0)
(-0.164027 0.0369663 0)
(-0.175093 0.0372917 0)
(-0.185767 0.037279 0)
(-0.195963 0.0369236 0)
(-0.205607 0.0362271 0)
(-0.21464 0.0351967 0)
(-0.223012 0.0338441 0)
(-0.230686 0.0321845 0)
(-0.237631 0.0302353 0)
(-0.243827 0.0280156 0)
(-0.24926 0.0255455 0)
(-0.253919 0.022845 0)
(-0.257797 0.0199344 0)
(-0.260891 0.0168335 0)
(-0.263196 0.0135616 0)
(-0.264712 0.0101379 0)
(-0.265436 0.00658152 0)
(-0.265366 0.00291161 0)
(-0.2645 -0.000852069 0)
(-0.262836 -0.00468883 0)
(-0.260372 -0.00857663 0)
(-0.257106 -0.0124916 0)
(-0.253037 -0.0164078 0)
(-0.248166 -0.0202965 0)
(-0.242495 -0.0241261 0)
(-0.23603 -0.0278622 0)
(-0.228781 -0.031467 0)
(-0.220762 -0.0349 0)
(-0.211993 -0.0381178 0)
(-0.202502 -0.0410752 0)
(-0.192325 -0.0437258 0)
(-0.181507 -0.0460233 0)
(-0.170103 -0.0479226 0)
(-0.158177 -0.0493819 0)
(-0.145807 -0.050364 0)
(-0.133078 -0.0508383 0)
(-0.120086 -0.0507827 0)
(-0.106936 -0.0501854 0)
(-0.0937402 -0.0490457 0)
(-0.0806131 -0.0473752 0)
(-0.0676728 -0.0451981 0)
(-0.0550361 -0.0425511 0)
(-0.042816 -0.039482 0)
(-0.0311195 -0.036049 0)
(-0.0200448 -0.0323182 0)
(-0.00967959 -0.028362 0)
(-0.000100081 -0.0242565 0)
(0.00863015 -0.0200793 0)
(0.0164604 -0.0159078 0)
(0.0233529 -0.0118167 0)
(0.0292829 -0.00787657 0)
(0.0342391 -0.00415245 0)
(0.0382233 -0.000701968 0)
(0.041251 0.00242582 0)
(0.0433519 0.00519188 0)
(0.0445699 0.00756833 0)
(0.0449629 0.00953938 0)
(0.044602 0.0111018 0)
(0.0435694 0.0122648 0)
(0.0419568 0.0130493 0)
(0.039861 0.0134863 0)
(0.0373818 0.013615 0)
(0.0346161 0.0134801 0)
(0.0316575 0.0131294 0)
(0.0285889 0.012611 0)
(0.025486 0.0119703 0)
(0.0224088 0.0112489 0)
(0.0194112 0.0104803 0)
(0.016528 0.0096903 0)
(0.013796 0.00889181 0)
(0.0112288 0.00808827 0)
(0.00885894 0.00726566 0)
(0.00668633 0.00640494 0)
(0.00475905 0.00546908 0)
(0.00306855 0.00443518 0)
(0.00170823 0.00326847 0)
(0.000658327 0.00199486 0)
(0.000100318 0.000636999 0)
(9.61133e-05 -0.0010629 0)
(0.000643627 -0.00295649 0)
(0.00165368 -0.00450658 0)
(0.00289968 -0.00566725 0)
(0.00433843 -0.00639365 0)
(0.00580623 -0.00669742 0)
(0.0072431 -0.0066034 0)
(0.00854008 -0.00617066 0)
(0.00965048 -0.00546517 0)
(0.0105132 -0.00456474 0)
(0.0111056 -0.00354247 0)
(0.0114034 -0.00246634 0)
(0.0114037 -0.00139025 0)
(0.0111028 -0.000353392 0)
(0.0105051 0.000623173 0)
(0.00961051 0.00153545 0)
(0.00841678 0.00239586 0)
(0.00691288 0.00323009 0)
(0.00508012 0.00407356 0)
(0.00288933 0.00496684 0)
(0.000302934 0.0059511 0)
(-0.00272466 0.00706388 0)
(-0.00624393 0.00833592 0)
(-0.0103082 0.0097892 0)
(-0.0149701 0.0114365 0)
(-0.0202797 0.0132816 0)
(-0.0262809 0.0153208 0)
(-0.0330096 0.017543 0)
(-0.0404906 0.0199312 0)
(-0.0487352 0.022462 0)
(-0.0577383 0.0251053 0)
(-0.0674763 0.0278247 0)
(-0.0779055 0.0305766 0)
(-0.0889616 0.0333118 0)
(-0.10056 0.035976 0)
(-0.1126 0.0385122 0)
(-0.124964 0.0408629 0)
(-0.137526 0.0429727 0)
(-0.150156 0.0447908 0)
(-0.162724 0.0462734 0)
(-0.175107 0.0473851 0)
(-0.18719 0.0481002 0)
(-0.198872 0.0484026 0)
(-0.210068 0.048286 0)
(-0.220706 0.0477523 0)
(-0.230731 0.0468108 0)
(-0.2401 0.0454765 0)
(-0.248783 0.0437687 0)
(-0.256759 0.0417095 0)
(-0.264016 0.0393227 0)
(-0.270548 0.0366326 0)
(-0.27635 0.0336636 0)
(-0.281423 0.0304389 0)
(-0.285768 0.0269812 0)
(-0.289386 0.0233117 0)
(-0.292278 0.0194507 0)
(-0.294444 0.0154173 0)
(-0.295884 0.0112301 0)
(-0.296593 0.00690728 0)
(-0.29657 0.00246719 0)
(-0.295807 -0.00207123 0)
(-0.294299 -0.00668793 0)
(-0.292039 -0.0113611 0)
(-0.289018 -0.0160669 0)
(-0.285227 -0.0207785 0)
(-0.28066 -0.0254658 0)
(-0.275308 -0.0300954 0)
(-0.269167 -0.0346294 0)
(-0.262235 -0.0390261 0)
(-0.254513 -0.0432398 0)
(-0.246009 -0.0472207 0)
(-0.236735 -0.0509161 0)
(-0.226712 -0.0542707 0)
(-0.215972 -0.0572282 0)
(-0.204554 -0.0597329 0)
(-0.192511 -0.0617313 0)
(-0.179909 -0.0631747 0)
(-0.166824 -0.0640212 0)
(-0.153347 -0.0642381 0)
(-0.139579 -0.0638043 0)
(-0.125634 -0.0627119 0)
(-0.11163 -0.0609681 0)
(-0.0976929 -0.0585955 0)
(-0.0839494 -0.055632 0)
(-0.0705245 -0.0521302 0)
(-0.0575378 -0.0481558 0)
(-0.0451003 -0.0437848 0)
(-0.033312 -0.0391011 0)
(-0.0222598 -0.0341939 0)
(-0.0120166 -0.0291539 0)
(-0.00264144 -0.0240719 0)
(0.00582079 -0.0190354 0)
(0.0133379 -0.0141278 0)
(0.0198899 -0.00942614 0)
(0.0254681 -0.00500046 0)
(0.0300753 -0.000912356 0)
(0.0337253 0.00278615 0)
(0.0364442 0.00605383 0)
(0.0382698 0.00886149 0)
(0.0392535 0.011193 0)
(0.0394584 0.013046 0)
(0.03896 0.0144319 0)
(0.0378428 0.0153753 0)
(0.0361993 0.0159124 0)
(0.0341247 0.0160888 0)
(0.0317157 0.0159565 0)
(0.0290633 0.015571 0)
(0.0262552 0.0149877 0)
(0.0233655 0.0142589 0)
(0.0204643 0.0134298 0)
(0.0176018 0.0125367 0)
(0.014831 0.0116017 0)
(0.0121783 0.0106342 0)
(0.00969024 0.00962419 0)
(0.0073749 0.00855091 0)
(0.0052936 0.00737427 0)
(0.00344218 0.0060591 0)
(0.00193335 0.00455885 0)
(0.000751679 0.00286936 0)
(0.000115899 0.000986652 0)
(0.000103036 -0.00138845 0)
(0.000687148 -0.00377427 0)
(0.00175401 -0.00567457 0)
(0.00305076 -0.00704979 0)
(0.00452279 -0.0078688 0)
(0.00598941 -0.00815477 0)
(0.00738501 -0.00795002 0)
(0.00859416 -0.00733087 0)
(0.00957039 -0.0063826 0)
(0.0102525 -0.00520025 0)
(0.0106202 -0.00387255 0)
(0.0106503 -0.00247916 0)
(0.0103403 -0.00108208 0)
(0.00968462 0.000275855 0)
(0.00868371 0.00157385 0)
(0.00733046 0.00281196 0)
(0.00561377 0.00400956 0)
(0.00351148 0.00520131 0)
(0.000992705 0.00643244 0)
(-0.00198428 0.00775296 0)
(-0.00546879 0.00921193 0)
(-0.00951635 0.0108524 0)
(-0.0141846 0.0127075 0)
(-0.0195304 0.0147986 0)
(-0.0256057 0.0171347 0)
(-0.0324549 0.019713 0)
(-0.0401111 0.0225199 0)
(-0.0485934 0.0255321 0)
(-0.0579035 0.028717 0)
(-0.068023 0.032033 0)
(-0.0789117 0.0354299 0)
(-0.0905057 0.0388492 0)
(-0.102718 0.0422257 0)
(-0.115442 0.0454894 0)
(-0.128552 0.0485683 0)
(-0.141912 0.0513922 0)
(-0.15538 0.0538957 0)
(-0.168815 0.0560212 0)
(-0.182081 0.0577221 0)
(-0.195058 0.0589632 0)
(-0.207638 0.0597224 0)
(-0.219732 0.0599895 0)
(-0.231269 0.0597652 0)
(-0.242195 0.0590598 0)
(-0.252473 0.0578908 0)
(-0.262077 0.056281 0)
(-0.270992 0.054257 0)
(-0.279213 0.0518469 0)
(-0.286739 0.0490798 0)
(-0.293571 0.0459841 0)
(-0.299717 0.0425871 0)
(-0.305181 0.0389147 0)
(-0.30997 0.0349908 0)
(-0.314088 0.0308375 0)
(-0.31754 0.0264752 0)
(-0.320328 0.0219227 0)
(-0.322453 0.0171978 0)
(-0.323914 0.0123172 0)
(-0.324707 0.00729737 0)
(-0.324828 0.00215492 0)
(-0.32427 -0.00309287 0)
(-0.323024 -0.00842742 0)
(-0.321079 -0.0138283 0)
(-0.318424 -0.0192724 0)
(-0.315045 -0.0247336 0)
(-0.310927 -0.0301819 0)
(-0.306057 -0.035583 0)
(-0.300419 -0.0408977 0)
(-0.293999 -0.0460819 0)
(-0.286788 -0.0510861 0)
(-0.278776 -0.0558556 0)
(-0.269961 -0.060331 0)
(-0.260346 -0.0644491 0)
(-0.249944 -0.0681439 0)
(-0.238778 -0.0713486 0)
(-0.226881 -0.073997 0)
(-0.214301 -0.0760269 0)
(-0.201103 -0.0773823 0)
(-0.187365 -0.0780166 0)
(-0.173181 -0.0778955 0)
(-0.158661 -0.0769999 0)
(-0.143927 -0.0753278 0)
(-0.129111 -0.0728962 0)
(-0.114351 -0.0697412 0)
(-0.0997887 -0.0659175 0)
(-0.0855618 -0.0614968 0)
(-0.0718012 -0.056565 0)
(-0.0586262 -0.0512188 0)
(-0.0461417 -0.0455616 0)
(-0.0344358 -0.0396999 0)
(-0.0235793 -0.0337395 0)
(-0.0136257 -0.0277826 0)
(-0.00461295 -0.0219257 0)
(0.00343494 -0.0162577 0)
(0.0105057 -0.0108595 0)
(0.0165976 -0.00580267 0)
(0.0217176 -0.00114958 0)
(0.0258824 0.00304794 0)
(0.0291173 0.00674934 0)
(0.0314584 0.00992652 0)
(0.0329522 0.0125651 0)
(0.0336571 0.0146649 0)
(0.0336417 0.0162406 0)
(0.0329858 0.0173209 0)
(0.0317749 0.017947 0)
(0.0301016 0.0181701 0)
(0.0280569 0.0180484 0)
(0.0257337 0.0176431 0)
(0.0232143 0.0170148 0)
(0.0205806 0.0162186 0)
(0.0178956 0.0153005 0)
(0.0152268 0.0142925 0)
(0.0126139 0.013211 0)
(0.0101173 0.0120513 0)
(0.00775577 0.0107921 0)
(0.00560418 0.0093913 0)
(0.00366597 0.00780015 0)
(0.00207051 0.00595878 0)
(0.000808965 0.00382795 0)
(0.000125375 0.0013732 0)
(0.000108694 -0.00173572 0)
(0.000719955 -0.00463667 0)
(0.00182319 -0.00688986 0)
(0.00314105 -0.00846414 0)
(0.00460674 -0.0093453 0)
(0.00602438 -0.00957238 0)
(0.00732292 -0.00920962 0)
(0.00838222 -0.0083543 0)
(0.00915689 -0.00711382 0)
(0.009587 -0.00560187 0)
(0.00965551 -0.003923 0)
(0.00934053 -0.00216759 0)
(0.00864006 -0.000403903 0)
(0.00754574 0.00132406 0)
(0.00605279 0.00299845 0)
(0.00414575 0.00462604 0)
(0.00180282 0.00623533 0)
(-0.0010107 0.00787147 0)
(-0.00433876 0.00958995 0)
(-0.00823551 0.0114495 0)
(-0.0127606 0.0135051 0)
(-0.0179766 0.0158022 0)
(-0.0239435 0.0183726 0)
(-0.0307156 0.0212321 0)
(-0.038336 0.0243807 0)
(-0.0468342 0.0278028 0)
(-0.0562213 0.0314689 0)
(-0.0664878 0.0353367 0)
(-0.0776004 0.0393517 0)
(-0.0895001 0.0434485 0)
(-0.102102 0.0475522 0)
(-0.115298 0.0515806 0)
(-0.128958 0.0554473 0)
(-0.142938 0.0590662 0)
(-0.157085 0.0623552 0)
(-0.171245 0.0652407 0)
(-0.185273 0.0676611 0)
(-0.199036 0.0695692 0)
(-0.212417 0.0709329 0)
(-0.225321 0.0717355 0)
(-0.237674 0.071974 0)
(-0.249419 0.0716575 0)
(-0.26052 0.0708044 0)
(-0.270953 0.06944 0)
(-0.280707 0.0675944 0)
(-0.289778 0.0652999 0)
(-0.298171 0.06259 0)
(-0.305892 0.0594978 0)
(-0.312951 0.0560548 0)
(-0.319358 0.052291 0)
(-0.325124 0.0482341 0)
(-0.330258 0.0439093 0)
(-0.33477 0.0393397 0)
(-0.338668 0.0345461 0)
(-0.341957 0.0295472 0)
(-0.344642 0.0243603 0)
(-0.346727 0.0190011 0)
(-0.348212 0.0134844 0)
(-0.349096 0.00782488 0)
(-0.349375 0.00203686 0)
(-0.349045 -0.00386447 0)
(-0.348097 -0.0098627 0)
(-0.34652 -0.0159395 0)
(-0.3443 -0.0220738 0)
(-0.34142 -0.0282413 0)
(-0.337863 -0.0344135 0)
(-0.333607 -0.0405571 0)
(-0.328629 -0.0466332 0)
(-0.322905 -0.052597 0)
(-0.316411 -0.0583973 0)
(-0.309124 -0.0639763 0)
(-0.301024 -0.0692699 0)
(-0.292094 -0.074208 0)
(-0.282325 -0.0787161 0)
(-0.271717 -0.0827162 0)
(-0.26028 -0.0861293 0)
(-0.24804 -0.088878 0)
(-0.235037 -0.09089 0)
(-0.221333 -0.092101 0)
(-0.207004 -0.0924593 0)
(-0.192152 -0.091929 0)
(-0.176893 -0.0904936 0)
(-0.161362 -0.0881584 0)
(-0.14571 -0.0849522 0)
(-0.130091 -0.0809275 0)
(-0.114668 -0.076159 0)
(-0.0995958 -0.0707409 0)
(-0.0850239 -0.064783 0)
(-0.0710848 -0.0584055 0)
(-0.0578926 -0.0517339 0)
(-0.0455398 -0.0448939 0)
(-0.0340962 -0.0380066 0)
(-0.0236109 -0.0311857 0)
(-0.0141134 -0.0245349 0)
(-0.00561776 -0.0181469 0)
(0.00187449 -0.0121034 0)
(0.00837144 -0.00647494 0)
(0.0138889 -0.00132123 0)
(0.0184492 0.00330909 0)
(0.0220819 0.00737907 0)
(0.0248236 0.0108644 0)
(0.0267204 0.0137545 0)
(0.0278272 0.0160536 0)
(0.0282096 0.0177807 0)
(0.0279412 0.0189694 0)
(0.0271051 0.019666 0)
(0.0257867 0.0199268 0)
(0.0240772 0.0198148 0)
(0.0220616 0.0193949 0)
(0.0198282 0.0187293 0)
(0.0174489 0.0178719 0)
(0.0150026 0.0168638 0)
(0.0125407 0.0157278 0)
(0.0101369 0.0144655 0)
(0.00782127 0.0130554 0)
(0.00568184 0.0114539 0)
(0.00373192 0.0095988 0)
(0.00211393 0.00741674 0)
(0.000826901 0.00483246 0)
(0.000127865 0.00178008 0)
(0.000113952 -0.00209742 0)
(0.000744501 -0.00552389 0)
(0.00186427 -0.00812048 0)
(0.00317291 -0.00986639 0)
(0.00459084 -0.0107685 0)
(0.00590932 -0.0108863 0)
(0.00705282 -0.010311 0)
(0.00789876 -0.00916443 0)
(0.00840403 -0.00757884 0)
(0.0085115 -0.00568747 0)
(0.00820763 -0.00361033 0)
(0.00747217 -0.00144679 0)
(0.00630268 0.000731143 0)
(0.004687 0.00288136 0)
(0.00261348 0.00499211 0)
(5.66622e-05 0.00707961 0)
(-0.00301739 0.00918349 0)
(-0.00665658 0.0113602 0)
(-0.0109175 0.0136748 0)
(-0.015865 0.0161926 0)
(-0.0215654 0.0189711 0)
(-0.0280828 0.0220531 0)
(-0.0354726 0.0254631 0)
(-0.0437774 0.0292052 0)
(-0.0530215 0.0332633 0)
(-0.063208 0.037602 0)
(-0.0743147 0.0421691 0)
(-0.0862923 0.0468965 0)
(-0.099063 0.0517029 0)
(-0.112521 0.056496 0)
(-0.126538 0.0611763 0)
(-0.140963 0.0656414 0)
(-0.155635 0.0697915 0)
(-0.170389 0.0735344 0)
(-0.185067 0.0767902 0)
(-0.19952 0.0794953 0)
(-0.213621 0.081604 0)
(-0.227262 0.0830891 0)
(-0.240361 0.0839402 0)
(-0.252855 0.0841625 0)
(-0.264703 0.0837729 0)
(-0.275881 0.0827976 0)
(-0.286376 0.0812689 0)
(-0.296187 0.079223 0)
(-0.305318 0.0766974 0)
(-0.313779 0.0737299 0)
(-0.321582 0.0703571 0)
(-0.328741 0.0666138 0)
(-0.335271 0.0625324 0)
(-0.341187 0.0581428 0)
(-0.346502 0.0534722 0)
(-0.351231 0.0485451 0)
(-0.355386 0.0433835 0)
(-0.35898 0.038007 0)
(-0.362024 0.032433 0)
(-0.364527 0.026677 0)
(-0.366496 0.0207529 0)