/*--------------------------------*- C++ -*----------------------------------*\
| =========                 |                                                 |
| \\      /  F ield         | OpenFOAM: The Open Source CFD Toolbox           |
|  \\    /   O peration     | Version:  2406                                  |
|   \\  /    A nd           | Website:  www.openfoam.com                      |
|    \\/     M anipulation  |                                                 |
\*---------------------------------------------------------------------------*/
FoamFile
{
    version     2.0;
    format      ascii;
    arch        "LSB;label=32;scalar=64";
    class       surfaceScalarField;
    location    "19";
    object      phi_0;
}
// * * * * * * * * * * * * * * * * * * * * * * * * * * * * * * * * * * * * * //

dimensions      [0 3 -1 0 0 0 0];

oriented        oriented;

internalField   nonuniform List<scalar> 
28560
(
8.47128e-09
-8.46635e-09
2.73065e-08
-1.88352e-08
5.05667e-08
-2.32602e-08
7.28311e-08
-2.22644e-08
9.11672e-08
-1.83362e-08
1.04267e-07
-1.30999e-08
1.11866e-07
-7.59855e-09
1.14216e-07
-2.35012e-09
1.11925e-07
2.29044e-09
1.05694e-07
6.23135e-09
9.60725e-08
9.62159e-09
8.35069e-08
1.25656e-08
6.82873e-08
1.52197e-08
5.05435e-08
1.77438e-08
3.02569e-08
2.02866e-08
7.27969e-09
2.29772e-08
-1.86432e-08
2.59229e-08
-4.78529e-08
2.92097e-08
-8.07584e-08
3.29055e-08
-1.17822e-07
3.7064e-08
-1.59551e-07
4.17289e-08
-2.06489e-07
4.69376e-08
-2.59214e-07
5.27247e-08
-3.18338e-07
5.91242e-08
-3.84509e-07
6.61713e-08
-4.58412e-07
7.39031e-08
-5.40771e-07
8.23586e-08
-6.32349e-07
9.15781e-08
-7.3395e-07
1.01601e-07
-8.46417e-07
1.12466e-07
-9.70623e-07
1.24206e-07
-1.10747e-06
1.36846e-07
-1.25787e-06
1.50401e-07
-1.42274e-06
1.6487e-07
-1.60298e-06
1.80236e-07
-1.79943e-06
1.96458e-07
-2.0129e-06
2.13468e-07
-2.24407e-06
2.31166e-07
-2.49349e-06
2.49421e-07
-2.76155e-06
2.68058e-07
-3.04841e-06
2.86863e-07
-3.35399e-06
3.05577e-07
-3.67788e-06
3.23892e-07
-4.01933e-06
3.41455e-07
-4.3772e-06
3.57863e-07
-4.74987e-06
3.72672e-07
-5.13526e-06
3.85395e-07
-5.53078e-06
3.95514e-07
-5.93326e-06
4.02483e-07
-6.339e-06
4.05744e-07
-6.74374e-06
4.04736e-07
-7.14265e-06
3.98912e-07
-7.53041e-06
3.87755e-07
-7.9012e-06
3.70796e-07
-8.24884e-06
3.47637e-07
-8.5668e-06
3.17963e-07
-8.84837e-06
2.81571e-07
-9.08676e-06
2.38387e-07
-9.27525e-06
1.88483e-07
-9.40733e-06
1.32085e-07
-9.47736e-06
7.00314e-08
-9.47816e-06
8.02249e-10
-9.40695e-06
-7.12174e-08
-9.25905e-06
-1.47895e-07
-9.03185e-06
-2.27203e-07
-8.72394e-06
-3.07905e-07
-8.33537e-06
-3.88574e-07
-7.8677e-06
-4.67671e-07
-7.32411e-06
-5.43585e-07
-6.70944e-06
-6.14671e-07
-6.03014e-06
-6.79304e-07
-5.29422e-06
-7.35923e-07
-4.51112e-06
-7.83098e-07
-3.69154e-06
-8.19578e-07
-2.84719e-06
-8.44347e-07
-1.99052e-06
-8.56671e-07
-1.13438e-06
-8.56138e-07
-2.91697e-07
-8.42687e-07
5.24921e-07
-8.16618e-07
1.30352e-06
-7.78595e-07
2.03314e-06
-7.29625e-07
2.70417e-06
-6.71027e-07
3.30854e-06
-6.04376e-07
3.83999e-06
-5.31448e-07
4.29413e-06
-4.54143e-07
4.66854e-06
-3.7441e-07
4.96271e-06
-2.9417e-07
5.17796e-06
-2.15244e-07
5.31725e-06
-1.39292e-07
5.38497e-06
-6.77223e-08
5.38769e-06
-2.71982e-09
5.32951e-06
5.81799e-08
5.21921e-06
1.10297e-07
5.0642e-06
1.55016e-07
4.87171e-06
1.92493e-07
4.64905e-06
2.2266e-07
4.40318e-06
2.45863e-07
4.14058e-06
2.626e-07
3.86709e-06
2.73488e-07
3.58788e-06
2.79219e-07
3.30735e-06
2.80525e-07
3.02921e-06
2.78143e-07
2.75641e-06
2.72799e-07
2.49123e-06
2.65181e-07
2.2353e-06
2.55925e-07
1.9897e-06
2.45602e-07
1.755e-06
2.34705e-07
1.53137e-06
2.23627e-07
1.31872e-06
2.12644e-07
1.11685e-06
2.01878e-07
9.25584e-07
1.91263e-07
7.45092e-07
1.80492e-07
5.7613e-07
1.68962e-07
4.20403e-07
1.55727e-07
2.80933e-07
1.3947e-07
1.6233e-07
1.18602e-07
7.07499e-08
9.15805e-08
1.28875e-08
5.78624e-08
-6.9828e-09
1.98703e-08
-6.9828e-09
1.90595e-08
-2.75258e-08
5.80379e-08
-5.78135e-08
1.02228e-07
-6.74502e-08
1.41847e-07
-6.18837e-08
1.70986e-07
-4.74746e-08
1.86826e-07
-2.89402e-08
1.88656e-07
-9.42845e-09
1.77041e-07
9.2651e-09
1.53111e-07
2.622e-08
1.18186e-07
4.1157e-08
7.35357e-08
5.42714e-08
2.01383e-08
6.5963e-08
-4.13829e-08
7.67409e-08
-1.10781e-07
8.71419e-08
-1.88171e-07
9.76762e-08
-2.73992e-07
1.08798e-07
-3.68964e-07
1.20895e-07
-4.74041e-07
1.34287e-07
-5.90369e-07
1.49234e-07
-7.19256e-07
1.65951e-07
-8.62141e-07
1.84614e-07
-1.02058e-06
2.0538e-07
-1.19625e-06
2.28389e-07
-1.3909e-06
2.53779e-07
-1.60641e-06
2.81684e-07
-1.84475e-06
3.12241e-07
-2.10798e-06
3.45587e-07
-2.39826e-06
3.81855e-07
-2.71782e-06
4.21167e-07
-3.06899e-06
4.6363e-07
-3.4541e-06
5.09322e-07
-3.87554e-06
5.58281e-07
-4.33563e-06
6.10496e-07
-4.83665e-06
6.65888e-07
-5.38071e-06
7.24299e-07
-5.96973e-06
7.85477e-07
-6.60533e-06
8.4906e-07
-7.28872e-06
9.14562e-07
-8.02066e-06
9.81364e-07
-8.8013e-06
1.0487e-06
-9.63009e-06
1.11564e-06
-1.05056e-05
1.18112e-06
-1.14256e-05
1.2439e-06
-1.23868e-05
1.30257e-06
-1.33845e-05
1.35562e-06
-1.44132e-05
1.40137e-06
-1.54659e-05
1.43808e-06
-1.65343e-05
1.46392e-06
-1.76088e-05
1.47702e-06
-1.86787e-05
1.47556e-06
-1.97317e-05
1.45776e-06
-2.07548e-05
1.42197e-06
-2.17337e-05
1.36672e-06
-2.26537e-05
1.29076e-06
-2.34992e-05
1.19318e-06
-2.42546e-05
1.07336e-06
-2.49042e-05
9.31141e-07
-2.54326e-05
7.66774e-07
-2.58251e-05
5.81014e-07
-2.60682e-05
3.75142e-07
-2.61491e-05
1.50955e-07
-2.60588e-05
-8.9537e-08
-2.57869e-05
-3.43079e-07
-2.53283e-05
-6.06441e-07
-2.46796e-05
-8.75976e-07
-2.384e-05
-1.14746e-06
-2.28122e-05
-1.41639e-06
-2.16018e-05
-1.67804e-06
-2.02179e-05
-1.92754e-06
-1.86725e-05
-2.16e-06
-1.69812e-05
-2.37067e-06
-1.51621e-05
-2.55503e-06
-1.32362e-05
-2.70896e-06
-1.12269e-05
-2.82886e-06
-9.15947e-06
-2.9118e-06
-7.06049e-06
-2.95565e-06
-4.95747e-06
-2.95916e-06
-2.87812e-06
-2.92204e-06
-8.49722e-07
-2.84501e-06
1.10151e-06
-2.72982e-06
2.95109e-06
-2.5792e-06
4.67686e-06
-2.3968e-06
6.25952e-06
-2.18704e-06
7.68312e-06
-1.95504e-06
8.93532e-06
-1.70635e-06
1.00077e-05
-1.44681e-06
1.08959e-05
-1.18231e-06
1.15992e-05
-9.18603e-07
1.2121e-05
-6.61074e-07
1.24679e-05
-4.1465e-07
1.26487e-05
-1.83498e-07
1.26771e-05
2.97814e-08
1.25667e-05
2.20747e-07
1.23325e-05
3.89163e-07
1.19912e-05
5.3376e-07
1.15595e-05
6.54416e-07
1.10537e-05
7.51692e-07
1.04895e-05
8.26745e-07
9.8818e-06
8.81203e-07
9.24398e-06
9.17041e-07
8.58804e-06
9.36462e-07
7.92439e-06
9.41795e-07
7.26179e-06
9.35397e-07
6.60739e-06
9.19576e-07
5.96681e-06
8.96511e-07
5.34421e-06
8.68197e-07
4.74255e-06
8.36373e-07
4.16372e-06
8.02452e-07
3.60892e-06
7.6744e-07
3.07898e-06
7.31825e-07
2.57478e-06
6.95462e-07
2.09784e-06
6.57429e-07
1.65091e-06
6.15895e-07
1.2386e-06
5.68031e-07
8.68029e-07
5.10046e-07
5.49046e-07
4.37585e-07
2.93854e-07
3.46773e-07
1.15039e-07
2.36677e-07
2.09121e-08
1.13997e-07
1.39293e-08
2.36023e-08
-5.11281e-08
6.75808e-08
-1.01792e-07
1.13155e-07
-1.13025e-07
1.48946e-07
-9.76747e-08
1.68123e-07
-6.66509e-08
1.67343e-07
-2.81602e-08
1.4571e-07
1.2204e-08
1.03901e-07
5.1074e-08
4.33466e-08
8.67746e-08
-3.42793e-08
1.18783e-07
-1.27399e-07
1.47391e-07
-2.34795e-07
1.73359e-07
-3.55733e-07
1.97679e-07
-4.90001e-07
2.21411e-07
-6.37906e-07
2.45581e-07
-8.00229e-07
2.7112e-07
-9.78169e-07
2.98835e-07
-1.17329e-06
3.29408e-07
-1.38746e-06
3.63407e-07
-1.62282e-06
4.01308e-07
-1.88172e-06
4.43514e-07
-2.16672e-06
4.90381e-07
-2.48057e-06
5.42234e-07
-2.82617e-06
5.99381e-07
-3.2066e-06
6.62117e-07
-3.62509e-06
7.30731e-07
-4.085e-06
8.05499e-07
-4.58982e-06
8.86676e-07
-5.14313e-06
9.74477e-07
-5.74857e-06
1.06907e-06
-6.40978e-06
1.17053e-06
-7.13034e-06
1.27884e-06
-7.9137e-06
1.39386e-06
-8.76308e-06
1.51527e-06
-9.68134e-06
1.64256e-06
-1.06709e-05
1.77502e-06
-1.17335e-05
1.91166e-06
-1.28702e-05
2.05124e-06
-1.4081e-05
2.19221e-06
-1.5365e-05
2.33271e-06
-1.67199e-05
2.47056e-06
-1.81421e-05
2.60327e-06
-1.96262e-05
2.72804e-06
-2.11654e-05
2.8418e-06
-2.27511e-05
2.94125e-06
-2.43726e-05
3.02288e-06
-2.60176e-05
3.0831e-06
-2.76719e-05
3.11826e-06
-2.93197e-05
3.12476e-06
-3.09433e-05
3.09917e-06
-3.25238e-05
3.03831e-06
-3.40412e-05
2.93938e-06
-3.54745e-05
2.80003e-06
-3.68023e-05
2.61851e-06
-3.80028e-05
2.39371e-06
-3.90548e-05
2.12531e-06
-3.99374e-05
1.81375e-06
-4.0631e-05
1.46038e-06
-4.11174e-05
1.06744e-06
-4.13804e-05
6.38083e-07
-4.14057e-05
1.76283e-07
-4.11824e-05
-3.12846e-07
-4.07017e-05
-8.23776e-07
-3.99583e-05
-1.34977e-06
-3.89507e-05
-1.88367e-06
-3.76804e-05
-2.41769e-06
-3.61532e-05
-2.94359e-06
-3.43784e-05
-3.45282e-06
-3.23693e-05
-3.93673e-06
-3.01426e-05
-4.38669e-06
-2.77189e-05
-4.79435e-06
-2.51221e-05
-5.15181e-06
-2.23792e-05
-5.45188e-06
-1.95198e-05
-5.68826e-06
-1.65758e-05
-5.85577e-06
-1.35809e-05
-5.95053e-06
-1.05699e-05
-5.97016e-06
-7.57811e-06
-5.91388e-06
-4.6405e-06
-5.78262e-06
-1.79126e-06
-5.57906e-06
9.37113e-07
-5.30757e-06
3.51447e-06
-4.97416e-06
5.91371e-06
-4.58628e-06
8.11135e-06
-4.15268e-06
1.0088e-05
-3.68303e-06
1.18289e-05
-3.18772e-06
1.33241e-05
-2.67742e-06
1.45682e-05
-2.16277e-06
1.55612e-05
-1.65404e-06
1.63073e-05
-1.16073e-06
1.68151e-05
-6.91275e-07
1.70978e-05
-2.52997e-07
1.71707e-05
1.47925e-07
1.7052e-05
5.07769e-07
1.67625e-05
8.23355e-07
1.63234e-05
1.09349e-06
1.57568e-05
1.31824e-06
1.50846e-05
1.49895e-06
1.43279e-05
1.63796e-06
1.35064e-05
1.73847e-06
1.26386e-05
1.80431e-06
1.17407e-05
1.83968e-06
1.08271e-05
1.84901e-06
9.90994e-06
1.83674e-06
8.99926e-06
1.80719e-06
8.1031e-06
1.76435e-06
7.22769e-06
1.71178e-06
6.37773e-06
1.65242e-06
5.55677e-06
1.5884e-06
4.76774e-06
1.52086e-06
4.01349e-06
1.44971e-06
3.29751e-06
1.37341e-06
2.62467e-06
1.28874e-06
2.00196e-06
1.19074e-06
1.43907e-06
1.07293e-06
9.48642e-07
9.28017e-07
5.45662e-07
7.49753e-07
2.45739e-07
5.366e-07
6.17887e-08
2.97947e-07
7.5718e-08
2.20991e-08
-7.32272e-08
5.94425e-08
-1.39135e-07
9.20003e-08
-1.45583e-07
1.08067e-07
-1.13742e-07
1.00948e-07
-5.95313e-08
6.75709e-08
5.21679e-09
7.32046e-09
7.24544e-08
-7.88756e-08
1.3727e-07
-1.89307e-07
1.97206e-07
-3.22077e-07
2.51553e-07
-4.7548e-07
3.00794e-07
-6.48261e-07
3.4614e-07
-8.39757e-07
3.89174e-07
-1.04995e-06
4.31602e-07
-1.27946e-06
4.7509e-07
-1.5295e-06
5.21166e-07
-1.80184e-06
5.71173e-07
-2.0987e-06
6.26269e-07
-2.42273e-06
6.87433e-07
-2.77692e-06
7.555e-07
-3.1646e-06
8.31193e-07
-3.58937e-06
9.1515e-07
-4.05509e-06
1.00795e-06
-4.56586e-06
1.11015e-06
-5.12599e-06
1.22225e-06
-5.73999e-06
1.34473e-06
-6.41253e-06
1.47804e-06
-7.14841e-06
1.62255e-06
-7.95248e-06
1.77855e-06
-8.82963e-06
1.94621e-06
-9.78462e-06
2.12552e-06
-1.08221e-05
2.31627e-06
-1.19462e-05
2.518e-06
-1.31608e-05
2.72991e-06
-1.44691e-05
2.95087e-06
-1.58735e-05
3.17933e-06
-1.73751e-05
3.41329e-06
-1.89741e-05
3.65027e-06
-2.06692e-05
3.88728e-06
-2.24573e-05
4.12081e-06
-2.43336e-05
4.34686e-06
-2.62912e-05
4.56091e-06
-2.83212e-05
4.75805e-06
-3.04124e-05
4.93296e-06
-3.25512e-05
5.08008e-06
-3.4722e-05
5.19366e-06
-3.69068e-05
5.26794e-06
-3.90858e-05
5.29724e-06
-4.12373e-05
5.2762e-06
-4.3338e-05
5.19986e-06
-4.53635e-05
5.06387e-06
-4.72888e-05
4.86461e-06
-4.90881e-05
4.59937e-06
-5.0736e-05
4.26644e-06
-5.22076e-05
3.86524e-06
-5.34786e-05
3.39635e-06
-5.45265e-05
2.86164e-06
-5.53303e-05
2.26421e-06
-5.58713e-05
1.60846e-06
-5.61333e-05
9.00033e-07
-5.61028e-05
1.45774e-07
-5.57693e-05
-6.46303e-07
-5.5126e-05
-1.46714e-06
-5.4169e-05
-2.30674e-06
-5.28984e-05
-3.15425e-06
-5.1318e-05
-3.99814e-06
-4.94352e-05
-4.82638e-06
-4.72614e-05
-5.62662e-06
-4.48117e-05
-6.38636e-06
-4.21052e-05
-7.09325e-06
-3.91642e-05
-7.73531e-06
-3.60148e-05
-8.30119e-06
-3.26862e-05
-8.78049e-06
-2.92105e-05
-9.164e-06
-2.56222e-05
-9.44404e-06
-2.19581e-05
-9.61469e-06
-1.82562e-05
-9.67204e-06
-1.45556e-05
-9.61442e-06
-1.08958e-05
-9.4425e-06
-7.31543e-06
-9.1594e-06
-3.85229e-06
-8.77071e-06
-5.42085e-07
-8.28436e-06
2.58213e-06
-7.7105e-06
5.49068e-06
-7.06122e-06
8.15784e-06
-6.3502e-06
1.05624e-05
-5.59233e-06
1.26883e-05
-4.80323e-06
1.45242e-05
-3.99877e-06
1.60648e-05
-3.19457e-06
1.73095e-05
-2.40549e-06
1.82634e-05
-1.64518e-06
1.89362e-05
-9.25741e-07
1.93415e-05
-2.57403e-07
1.94974e-05
3.51877e-07
1.94245e-05
8.96224e-07
1.91459e-05
1.37208e-06
1.86861e-05
1.77805e-06
1.80703e-05
2.11475e-06
1.73237e-05
2.38459e-06
1.64707e-05
2.59147e-06
1.55345e-05
2.74048e-06
1.45366e-05
2.83758e-06
1.34963e-05
2.88929e-06
1.24307e-05
2.90236e-06
1.13544e-05
2.88347e-06
1.02798e-05
2.83902e-06
9.21683e-06
2.77473e-06
8.17377e-06
2.69547e-06
7.15727e-06
2.60489e-06
6.17302e-06
2.50511e-06
5.22636e-06
2.39637e-06
4.32307e-06
2.2767e-06
3.47011e-06
2.14169e-06
2.67647e-06
1.98439e-06
1.95369e-06
1.79571e-06
1.31629e-06
1.56542e-06
7.81605e-07
1.28443e-06
3.69202e-07
9.49003e-07
1.00259e-07
5.66891e-07
1.75977e-07
1.65089e-08
-8.97361e-08
3.81738e-08
-1.608e-07
4.61514e-08
-1.5356e-07
2.95899e-08
-9.71803e-08
-1.72762e-08
-1.26652e-08
-9.66707e-08
8.46113e-08
-2.08514e-07
1.84298e-07
-3.51388e-07
2.80144e-07
-5.23264e-07
3.69083e-07
-7.22071e-07
4.5036e-07
-9.46073e-07
5.24796e-07
-1.19412e-06
5.94184e-07
-1.46576e-06
6.60819e-07
-1.76133e-06
7.2717e-07
-2.08189e-06
7.95656e-07
-2.42924e-06
8.68509e-07
-2.80578e-06
9.47718e-07
-3.21453e-06
1.03502e-06
-3.65899e-06
1.13189e-06
-4.14313e-06
1.23964e-06
-4.67131e-06
1.35938e-06
-5.24829e-06
1.49212e-06
-5.87911e-06
1.63878e-06
-6.56916e-06
1.80019e-06
-7.32405e-06
1.97714e-06
-8.14962e-06
2.17031e-06
-9.0519e-06
2.38032e-06
-1.0037e-05
2.60763e-06
-1.1111e-05
2.85255e-06
-1.22799e-05
3.11512e-06
-1.35495e-05
3.39513e-06
-1.49252e-05
3.69195e-06
-1.64117e-05
4.00453e-06
-1.80131e-05
4.33131e-06
-1.97323e-05
4.67011e-06
-2.15711e-05
5.01814e-06
-2.35297e-05
5.37187e-06
-2.56065e-05
5.72707e-06
-2.7798e-05
6.07875e-06
-3.00984e-05
6.42118e-06
-3.24995e-05
6.74796e-06
-3.49906e-05
7.05205e-06
-3.75585e-05
7.32593e-06
-4.01872e-05
7.56169e-06
-4.28584e-05
7.75121e-06
-4.55511e-05
7.88637e-06
-4.82423e-05
7.95922e-06
-5.09074e-05
7.96226e-06
-5.35198e-05
7.88859e-06
-5.60521e-05
7.73216e-06
-5.84762e-05
7.48798e-06
-6.07638e-05
7.15226e-06
-6.2887e-05
6.72255e-06
-6.48185e-05
6.1979e-06
-6.65321e-05
5.57886e-06
-6.80033e-05
4.8676e-06
-6.92095e-05
4.06786e-06
-7.01303e-05
3.18497e-06
-7.07476e-05
2.2258e-06
-7.10463e-05
1.19868e-06
-7.10139e-05
1.13342e-07
-7.0641e-05
-1.01916e-06
-6.99216e-05
-2.18658e-06
-6.88527e-05
-3.37562e-06
-6.74349e-05
-4.57202e-06
-6.56723e-05
-5.76077e-06
-6.35724e-05
-6.92625e-06
-6.11465e-05
-8.05248e-06
-5.84096e-05
-9.12331e-06
-5.53801e-05
-1.01227e-05
-5.20804e-05
-1.1035e-05
-4.85362e-05
-1.18454e-05
-4.47766e-05
-1.254e-05
-4.08342e-05
-1.31065e-05
-3.6744e-05
-1.35342e-05
-3.2544e-05
-1.38147e-05
-2.8274e-05
-1.39421e-05
-2.39752e-05
-1.39131e-05
-1.96901e-05
-1.37277e-05
-1.54609e-05
-1.33886e-05
-1.13295e-05
-1.29021e-05
-7.33638e-06
-1.22775e-05
-3.51988e-06
-1.1527e-05
8.4559e-08
-1.06657e-05
3.44514e-06
-9.71078e-06
6.53435e-06
-8.68154e-06
9.32951e-06
-7.59838e-06
1.18132e-05
-6.48247e-06
1.39736e-05
-5.35497e-06
1.58046e-05
-4.23644e-06
1.73056e-05
-3.14625e-06
1.84818e-05
-2.10195e-06
1.93433e-05
-1.11891e-06
1.99051e-05
-2.0983e-07
2.01858e-05
6.15434e-07
2.02079e-05
1.34998e-06
1.99961e-05
1.98988e-06
1.95768e-05
2.53406e-06
1.89774e-05
2.98403e-06
1.82252e-05
3.34361e-06
1.73472e-05
3.61855e-06
1.63687e-05
3.81607e-06
1.53135e-05
3.94448e-06
1.42032e-05
4.01268e-06
1.30569e-05
4.02977e-06
1.18913e-05
4.00459e-06
1.07207e-05
3.94533e-06
9.55713e-06
3.85903e-06
8.41086e-06
3.75117e-06
7.29077e-06
3.62519e-06
6.20512e-06
3.48202e-06
5.1622e-06
3.31962e-06
4.17119e-06
3.13269e-06
3.24298e-06
2.91261e-06
2.39089e-06
2.6478e-06
1.63136e-06
2.32495e-06
9.84474e-07
1.93132e-06
4.74748e-07
1.45873e-06
1.32627e-07
9.09011e-07
3.08604e-07
7.95951e-09
-9.76956e-08
7.13206e-09
-1.59973e-07
-1.87696e-08
-1.27659e-07
-7.85925e-08
-3.73573e-08
-1.76442e-07
8.51846e-08
-3.1319e-07
2.21359e-07
-4.87725e-07
3.58833e-07
-6.97917e-07
4.90335e-07
-9.41318e-07
6.12484e-07
-1.21568e-06
7.24725e-07
-1.51931e-06
8.28424e-07
-1.85125e-06
9.26127e-07
-2.21143e-06
1.02099e-06
-2.60064e-06
1.11638e-06
-3.02056e-06
1.21558e-06
-3.47369e-06
1.32163e-06
-3.96324e-06
1.43727e-06
-4.49313e-06
1.56491e-06
-5.06787e-06
1.70664e-06
-5.69253e-06
1.8643e-06
-6.37267e-06
2.03951e-06
-7.11427e-06
2.23373e-06
-7.92374e-06
2.44825e-06
-8.80782e-06
2.68428e-06
-9.77355e-06
2.94287e-06
-1.08282e-05
3.22495e-06
-1.19791e-05
3.53125e-06
-1.32338e-05
3.86228e-06
-1.45995e-05
4.21823e-06
-1.60832e-05
4.59888e-06
-1.76916e-05
5.00355e-06
-1.94306e-05
5.43093e-06
-2.13051e-05
5.87906e-06
-2.3319e-05
6.34517e-06
-2.54745e-05
6.82561e-06
-2.77721e-05
7.31579e-06
-3.02104e-05
7.81017e-06
-3.27855e-05
8.30215e-06
-3.5491e-05
8.7842e-06
-3.83177e-05
9.24786e-06
-4.12535e-05
9.68384e-06
-4.42837e-05
1.00822e-05
-4.73903e-05
1.04325e-05
-5.05528e-05
1.07242e-05
-5.37481e-05
1.09465e-05
-5.69508e-05
1.10891e-05
-6.01339e-05
1.11423e-05
-6.32685e-05
1.10969e-05
-6.63253e-05
1.09453e-05
-6.92741e-05
1.06809e-05
-7.20848e-05
1.02987e-05
-7.4728e-05
9.7954e-06
-7.71748e-05
9.16941e-06
-7.9398e-05
8.42107e-06
-8.13717e-05
7.55253e-06
-8.30719e-05
6.56781e-06
-8.44767e-05
5.47274e-06
-8.55667e-05
4.27489e-06
-8.63244e-05
2.98354e-06
-8.67353e-05
1.60953e-06
-8.67871e-05
1.65223e-07
-8.64707e-05
-1.33563e-06
-8.57793e-05
-2.87797e-06
-8.47093e-05
-4.44555e-06
-8.32603e-05
-6.02108e-06
-8.14347e-05
-7.58636e-06
-7.92385e-05
-9.12245e-06
-7.66811e-05
-1.06099e-05
-7.37754e-05
-1.2029e-05
-7.05381e-05
-1.336e-05
-6.69895e-05
-1.45836e-05
-6.3154e-05
-1.56809e-05
-5.90595e-05
-1.66346e-05
-5.47375e-05
-1.74284e-05
-5.02233e-05
-1.80484e-05
-4.5555e-05
-1.8483e-05
-4.07737e-05
-1.87234e-05
-3.59226e-05
-1.87642e-05
-3.10467e-05
-1.86036e-05
-2.61918e-05
-1.82435e-05
-2.14039e-05
-1.769e-05
-1.67283e-05
-1.69531e-05
-1.22088e-05
-1.60465e-05
-7.88675e-06
-1.49877e-05
-3.8003e-06
-1.37972e-05
1.64691e-08
-1.24983e-05
3.53418e-06
-1.11161e-05
6.72871e-06
-9.677e-06
9.58161e-06
-8.20787e-06
1.20804e-05
-6.73526e-06
1.42188e-05
-5.28459e-06
1.59963e-05
-3.87945e-06
1.74184e-05
-2.54099e-06
1.84959e-05
-1.28733e-06
1.92446e-05
-1.33267e-07
1.96845e-05
9.10062e-07
1.98392e-05
1.83521e-06
1.97348e-05
2.6384e-06
1.93995e-05
3.31931e-06
1.88624e-05
3.88079e-06
1.81525e-05
4.32841e-06
1.72986e-05
4.67002e-06
1.63279e-05
4.91516e-06
1.5266e-05
5.07453e-06
1.41364e-05
5.15943e-06
1.29599e-05
5.18108e-06
1.17551e-05
5.15015e-06
1.05381e-05
5.07602e-06
9.32298e-06
4.96626e-06
8.12224e-06
4.82594e-06
6.94725e-06
4.65701e-06
5.80911e-06
4.45776e-06
4.71942e-06
4.22238e-06
3.69119e-06
3.94083e-06
2.73978e-06
3.59921e-06
1.88389e-06
3.18084e-06
1.14687e-06
2.66833e-06
5.58508e-07
2.04709e-06
1.57872e-07
1.30965e-06
4.66476e-07
-2.88879e-09
-9.48068e-08
-3.15216e-08
-1.3134e-07
-9.87691e-08
-6.04111e-08
-2.10674e-07
7.45473e-08
-3.68978e-07
2.43489e-07
-5.72725e-07
4.25106e-07
-8.19462e-07
6.0557e-07
-1.10615e-06
7.77022e-07
-1.42982e-06
9.36159e-07
-1.78805e-06
1.08295e-06
-2.17921e-06
1.21959e-06
-2.60267e-06
1.34958e-06
-3.05881e-06
1.47713e-06
-3.54907e-06
1.60664e-06
-4.07588e-06
1.74239e-06
-4.6426e-06
1.88835e-06
-5.25343e-06
2.0481e-06
-5.91336e-06
2.22484e-06
-6.62807e-06
2.42135e-06
-7.4039e-06
2.64012e-06
-8.24774e-06
2.88335e-06
-9.16702e-06
3.153e-06
-1.01696e-05
3.45084e-06
-1.12638e-05
3.77843e-06
-1.2458e-05
4.13715e-06
-1.37612e-05
4.5281e-06
-1.5182e-05
4.95209e-06
-1.67293e-05
5.40953e-06
-1.84114e-05
5.90032e-06
-2.02363e-05
6.42376e-06
-2.22111e-05
6.97838e-06
-2.4342e-05
7.56187e-06
-2.66338e-05
8.17087e-06
-2.90896e-05
8.80096e-06
-3.17105e-05
9.44646e-06
-3.44952e-05
1.01005e-05
-3.74398e-05
1.07548e-05
-4.05377e-05
1.14e-05
-4.37791e-05
1.20255e-05
-4.71509e-05
1.26197e-05
-5.06371e-05
1.317e-05
-5.42183e-05
1.36635e-05
-5.78725e-05
1.40867e-05
-6.15749e-05
1.44265e-05
-6.52983e-05
1.46699e-05
-6.90139e-05
1.48047e-05
-7.26915e-05
1.48198e-05
-7.63e-05
1.47055e-05
-7.98081e-05
1.44534e-05
-8.31844e-05
1.40573e-05
-8.63985e-05
1.35128e-05
-8.94207e-05
1.28175e-05
-9.22224e-05
1.19712e-05
-9.4777e-05
1.09756e-05
-9.70591e-05
9.83469e-06
-9.90456e-05
8.55425e-06
-0.000100715
7.14207e-06
-0.000102048
5.60774e-06
-0.000103027
3.9626e-06
-0.000103637
2.21961e-06
-0.000103865
3.93357e-07
-0.000103701
-1.50012e-06
-0.000103135
-3.44335e-06
-0.000102163
-5.41753e-06
-0.000100782
-7.40264e-06
-9.89904e-05
-9.37757e-06
-9.67926e-05
-1.13203e-05
-9.41946e-05
-1.32079e-05
-9.12064e-05
-1.50172e-05
-8.78417e-05
-1.67247e-05
-8.41182e-05
-1.8307e-05
-8.00579e-05
-1.97413e-05
-7.56867e-05
-2.10058e-05
-7.10349e-05
-2.20802e-05
-6.61369e-05
-2.29464e-05
-6.10311e-05
-2.35888e-05
-5.57593e-05
-2.39952e-05
-5.03666e-05
-2.41569e-05
-4.49007e-05
-2.40695e-05
-3.94111e-05
-2.37332e-05
-3.39482e-05
-2.31529e-05
-2.85626e-05
-2.23386e-05
-2.33042e-05
-2.13049e-05
-1.82208e-05
-2.00711e-05
-1.33575e-05
-1.86606e-05
-8.75546e-06
-1.71003e-05
-4.4514e-06
-1.54201e-05
-4.7667e-07
-1.36517e-05
3.14328e-06
-1.18278e-05
6.38925e-06
-9.98124e-06
9.24855e-06
-8.14389e-06
1.1715e-05
-6.34593e-06
1.37889e-05
-4.61488e-06
1.54766e-05
-2.97501e-06
1.67901e-05
-1.44677e-06
1.77466e-05
-4.63964e-08
1.83675e-05
1.21429e-06
1.8678e-05
2.3279e-06
1.87059e-05
3.29136e-06
1.84811e-05
4.10564e-06
1.80342e-05
4.77534e-06
1.7396e-05
5.30813e-06
1.6597e-05
5.71419e-06
1.56661e-05
6.00548e-06
1.46304e-05
6.1951e-06
1.3515e-05
6.29645e-06
1.23426e-05
6.32257e-06
1.11334e-05
6.28523e-06
9.90542e-06
6.19422e-06
8.67486e-06
6.0565e-06
7.45651e-06
5.87536e-06
6.26453e-06
5.64975e-06
5.11323e-06
5.37368e-06
4.01806e-06
5.036e-06
2.99678e-06
4.6205e-06
2.07076e-06
4.10685e-06
1.26686e-06
3.47224e-06
6.19861e-07
2.69409e-06
1.76058e-07
1.75345e-06
6.42534e-07
-1.52307e-08
-7.95761e-08
-7.61546e-08
-7.04161e-08
-1.91075e-07
5.45092e-08
-3.62487e-07
2.45959e-07
-5.89278e-07
4.7028e-07
-8.68257e-07
7.04085e-07
-1.19534e-06
9.32657e-07
-1.56642e-06
1.1481e-06
-1.97794e-06
1.34768e-06
-2.42727e-06
1.53228e-06
-2.91292e-06
1.70524e-06
-3.43465e-06
1.87131e-06
-3.99346e-06
2.03595e-06
-4.59158e-06
2.20476e-06
-5.23234e-06
2.38316e-06
-5.92017e-06
2.57617e-06
-6.66042e-06
2.78835e-06
-7.45934e-06
3.02376e-06
-8.324e-06
3.28601e-06
-9.26218e-06
3.5783e-06
-1.02823e-05
3.90349e-06
-1.13934e-05
4.26412e-06
-1.26051e-05
4.66246e-06
-1.39271e-05
5.10046e-06
-1.53697e-05
5.57976e-06
-1.69432e-05
6.1016e-06
-1.86578e-05
6.66672e-06
-2.05236e-05
7.27526e-06
-2.25498e-05
7.92659e-06
-2.47453e-05
8.61921e-06
-2.71174e-05
9.35049e-06
-2.96722e-05
1.01166e-05
-3.24137e-05
1.09124e-05
-3.5344e-05
1.17312e-05
-3.84623e-05
1.25648e-05
-4.17651e-05
1.34033e-05
-4.52457e-05
1.42354e-05
-4.88939e-05
1.50482e-05
-5.26962e-05
1.58279e-05
-5.66356e-05
1.65592e-05
-6.0692e-05
1.72264e-05
-6.48419e-05
1.78134e-05
-6.90594e-05
1.83042e-05
-7.3316e-05
1.86831e-05
-7.75816e-05
1.89355e-05
-8.18248e-05
1.90479e-05
-8.60135e-05
1.90085e-05
-9.01152e-05
1.88072e-05
-9.40979e-05
1.84361e-05
-9.793e-05
1.78894e-05
-0.000101581
1.71638e-05
-0.000105021
1.6258e-05
-0.000108223
1.51732e-05
-0.00011116
1.39127e-05
-0.000113808
1.24819e-05
-0.000116142
1.08884e-05
-0.000118141
9.14151e-06
-0.000119786
7.25255e-06
-0.000121058
5.23455e-06
-0.000121941
3.10227e-06
-0.000122419
8.72126e-07
-0.000122482
-1.43789e-06
-0.000122117
-3.80823e-06
-0.000121317
-6.21784e-06
-0.000120075
-8.64424e-06
-0.000118389
-1.10637e-05
-0.000116258
-1.34511e-05
-0.000113685
-1.57806e-05
-0.000110677
-1.80252e-05
-0.000107244
-2.01578e-05
-0.000103401
-2.21508e-05
-9.91649e-05
-2.3977e-05
-9.45606e-05
-2.561e-05
-8.96159e-05
-2.70249e-05
-8.43635e-05
-2.81987e-05
-7.88413e-05
-2.91111e-05
-7.30913e-05
-2.97451e-05
-6.71601e-05
-3.00881e-05
-6.10976e-05
-3.0132e-05
-5.49568e-05
-2.98739e-05
-4.87931e-05
-2.93167e-05
-4.26626e-05
-2.84691e-05
-3.66217e-05
-2.73458e-05
-3.07256e-05
-2.59672e-05
-2.50272e-05
-2.4359e-05
-1.95758e-05
-2.25517e-05
-1.44164e-05
-2.05795e-05
-9.58846e-06
-1.84797e-05
-5.12531e-06
-1.6291e-05
-1.05355e-06
-1.4053e-05
2.60726e-06
-1.18047e-05
5.84477e-06
-9.58343e-06
8.6537e-06
-7.42382e-06
1.10357e-05
-5.357e-06
1.29988e-05
-3.40987e-06
1.45569e-05
-1.60456e-06
1.57293e-05
4.1894e-08
1.65396e-05
1.51766e-06
1.70149e-05
2.81608e-06
1.71851e-05
3.93542e-06
1.70819e-05
4.87849e-06
1.6738e-05
5.65205e-06
1.6186e-05
6.26622e-06
1.54578e-05
6.73367e-06
1.45841e-05
7.06881e-06
1.35936e-05
7.28691e-06
1.2513e-05
7.40316e-06
1.13666e-05
7.43166e-06
1.01763e-05
7.38449e-06
8.96223e-06
7.27061e-06
7.74266e-06
7.09492e-06
6.53508e-06
6.85733e-06
5.3568e-06
6.55196e-06
4.22608e-06
6.16672e-06
3.16339e-06
5.68319e-06
2.19306e-06
5.07718e-06
1.34544e-06
4.31987e-06
6.59707e-07
3.37982e-06
1.87646e-07
2.22551e-06
8.30181e-07
-2.90778e-08
-5.04983e-08
-1.25911e-07
2.64173e-08
-2.93805e-07
2.22403e-07
-5.31064e-07
4.83218e-07
-8.33205e-07
7.72422e-07
-1.19445e-06
1.06533e-06
-1.60887e-06
1.34707e-06
-2.07113e-06
1.61036e-06
-2.57703e-06
1.85358e-06
-3.12376e-06
2.07901e-06
-3.71005e-06
2.29152e-06
-4.33615e-06
2.49741e-06
-5.00381e-06
2.70362e-06
-5.71621e-06
2.91715e-06
-6.47779e-06
3.14474e-06
-7.2942e-06
3.39259e-06
-8.1722e-06
3.66634e-06
-9.1195e-06
3.97107e-06
-1.01448e-05
4.31127e-06
-1.12574e-05
4.69096e-06
-1.24677e-05
5.11374e-06
-1.37863e-05
5.58277e-06
-1.52247e-05
6.10082e-06
-1.67944e-05
6.67022e-06
-1.85075e-05
7.29281e-06
-2.03757e-05
7.96982e-06
-2.24107e-05
8.70175e-06
-2.46237e-05
9.48821e-06
-2.70248e-05
1.03277e-05
-2.96232e-05
1.12176e-05
-3.24262e-05
1.21535e-05
-3.54393e-05
1.31298e-05
-3.86655e-05
1.41387e-05
-4.2105e-05
1.51707e-05
-4.57548e-05
1.62146e-05
-4.96084e-05
1.72569e-05
-5.36559e-05
1.82828e-05
-5.78833e-05
1.92757e-05
-6.22733e-05
2.02179e-05
-6.68049e-05
2.10908e-05
-7.14539e-05
2.18754e-05
-7.61932e-05
2.25527e-05
-8.09935e-05
2.31044e-05
-8.58235e-05
2.35131e-05
-9.06507e-05
2.37628e-05
-9.54421e-05
2.38393e-05
-0.000100164
2.37306e-05
-0.000104784
2.34269e-05
-0.000109269
2.29208e-05
-0.000113587
2.22076e-05
-0.000117708
2.12848e-05
-0.000121602
2.01526e-05
-0.000125243
1.88134e-05
-0.000128602
1.7272e-05
-0.000131655
1.55351e-05
-0.000134379
1.36119e-05
-0.00013675
1.1513e-05
-0.000138749
9.2514e-06
-0.000140356
6.8415e-06
-0.000141553
4.29966e-06
-0.000142325
1.64391e-06
-0.000142657
-1.10604e-06
-0.000142536
-3.92886e-06
-0.000141953
-6.80151e-06
-0.000140897
-9.69943e-06
-0.000139365
-1.25965e-05
-0.000137351
-1.54651e-05
-0.000134855
-1.82763e-05
-0.00013188
-2.10001e-05
-0.000128432
-2.36056e-05
-0.000124522
-2.60612e-05
-0.000120163
-2.83354e-05
-0.000115376
-3.03971e-05
-0.000110185
-3.2216e-05
-0.00010462
-3.37637e-05
-9.87169e-05
-3.50145e-05
-9.25161e-05
-3.59459e-05
-8.60646e-05
-3.65397e-05
-7.94137e-05
-3.67829e-05
-7.26193e-05
-3.66683e-05
-6.5741e-05
-3.61951e-05
-5.88405e-05
-3.53695e-05
-5.19814e-05
-3.4205e-05
-4.52267e-05
-3.27219e-05
-3.86382e-05
-3.09475e-05
-3.22748e-05
-2.89151e-05
-2.61911e-05
-2.66632e-05
-2.04363e-05
-2.42346e-05
-1.50528e-05
-2.16745e-05
-1.0076e-05
-1.90298e-05
-5.53334e-06
-1.63473e-05
-1.44435e-06
-1.36724e-05
2.17965e-06
-1.10478e-05
5.33511e-06
-8.51245e-06
8.02586e-06
-6.10063e-06
1.02626e-05
-3.84128e-06
1.2062e-05
-1.75754e-06
1.34462e-05
1.33493e-07
1.44415e-05
1.82075e-06
1.50779e-05
3.29904e-06
1.53878e-05
4.56861e-06
1.54052e-05
5.63465e-06
1.51648e-05
6.50655e-06
1.47014e-05
7.19712e-06
1.40486e-05
7.72163e-06
1.32387e-05
8.0968e-06
1.23021e-05
8.33972e-06
1.12671e-05
8.46669e-06
1.01595e-05
8.49201e-06
9.00338e-06
8.42677e-06
7.82067e-06
8.27763e-06
6.63235e-06
8.04565e-06
5.45901e-06
7.72531e-06
4.32197e-06
7.30376e-06
3.24471e-06
6.76045e-06
2.25463e-06
6.06725e-06
1.38538e-06
5.18912e-06
6.79737e-07
4.08546e-06
1.93268e-07
2.71198e-06
1.02345e-06
-4.42113e-08
-6.28706e-09
-1.80204e-07
1.6241e-07
-4.05695e-07
4.47893e-07
-7.14276e-07
7.91799e-07
-1.09768e-06
1.15582e-06
-1.54723e-06
1.51489e-06
-2.05495e-06
1.8548e-06
-2.61422e-06
2.16963e-06
-3.22016e-06
2.45951e-06
-3.86983e-06
2.72868e-06
-4.56223e-06
2.98393e-06
-5.29828e-06
3.23345e-06
-6.08062e-06
3.48596e-06
-6.91354e-06
3.75008e-06
-7.80281e-06
4.03401e-06
-8.75554e-06
4.34532e-06
-9.78007e-06
4.69087e-06
-1.08858e-05
5.07684e-06
-1.20833e-05
5.50873e-06
-1.33838e-05
5.99148e-06
-1.47995e-05
6.52943e-06
-1.63431e-05
7.12641e-06
-1.8028e-05
7.78567e-06
-1.98676e-05
8.50984e-06
-2.18756e-05
9.30083e-06
-2.40655e-05
1.01597e-05
-2.64501e-05
1.10864e-05
-2.90416e-05
1.20797e-05
-3.18508e-05
1.31369e-05
-3.48867e-05
1.42535e-05
-3.81563e-05
1.54231e-05
-4.16639e-05
1.66374e-05
-4.54109e-05
1.78856e-05
-4.9395e-05
1.91549e-05
-5.36106e-05
2.04301e-05
-5.80478e-05
2.16941e-05
-6.26927e-05
2.29278e-05
-6.75278e-05
2.41108e-05
-7.25315e-05
2.52216e-05
-7.76789e-05
2.62381e-05
-8.29419e-05
2.71384e-05
-8.82904e-05
2.79011e-05
-9.36918e-05
2.85059e-05
-9.91126e-05
2.89339e-05
-0.000104518
2.91686e-05
-0.000109874
2.91954e-05
-0.000115146
2.90024e-05
-0.0001203
2.85805e-05
-0.000125302
2.79231e-05
-0.000130121
2.70264e-05
-0.000134726
2.58893e-05
-0.000139086
2.45131e-05
-0.000143174
2.29016e-05
-0.000146964
2.10612e-05
-0.000150428
1.9e-05
-0.000153545
1.67286e-05
-0.000156291
1.42593e-05
-0.000158646
1.16063e-05
-0.000160591
8.78587e-06
-0.000162107
5.81563e-06
-0.000163178
2.71513e-06
-0.000163789
-4.94421e-07
-0.000163928
-3.7903e-06
-0.000163582
-7.14786e-06
-0.00016274
-1.05409e-05
-0.000161395
-1.39416e-05
-0.00015954
-1.73204e-05
-0.00015717
-2.0646e-05
-0.000154284
-2.38858e-05
-0.000150884
-2.70058e-05
-0.000146974
-2.99709e-05
-0.000142564
-3.27454e-05
-0.000137668
-3.52935e-05
-0.000132304
-3.75796e-05
-0.000126498
-3.95697e-05
-0.000120281
-4.12317e-05
-0.00011369
-4.25365e-05
-0.000106771
-4.34594e-05
-9.95727e-05
-4.39808e-05
-9.21537e-05
-4.40873e-05
-8.45759e-05
-4.37728e-05
-7.69064e-05
-4.3039e-05
-6.92151e-05
-4.18962e-05
-6.15738e-05
-4.03632e-05
-5.4054e-05
-3.84672e-05
-4.67256e-05
-3.62435e-05
-3.96545e-05
-3.37343e-05
-3.29016e-05
-3.09875e-05
-2.65209e-05
-2.80552e-05
-2.05584e-05
-2.49923e-05
-1.50516e-05
-2.18542e-05
-1.00284e-05
-1.86955e-05
-5.50781e-06
-1.55684e-05
-1.4993e-06
-1.2521e-05
1.99617e-06
-9.5961e-06
4.98567e-06
-6.83077e-06
7.48344e-06