/*--------------------------------*- C++ -*----------------------------------*\
| =========                 |                                                 |
| \\      /  F ield         | OpenFOAM: The Open Source CFD Toolbox           |
|  \\    /   O peration     | Version:  2406                                  |
|   \\  /    A nd           | Website:  www.openfoam.com                      |
|    \\/     M anipulation  |                                                 |
\*---------------------------------------------------------------------------*/
FoamFile
{
    version     2.0;
    format      ascii;
    arch        "LSB;label=32;scalar=64";
    class       surfaceScalarField;
    location    "11.4";
    object      phi;
}
// * * * * * * * * * * * * * * * * * * * * * * * * * * * * * * * * * * * * * //

dimensions      [0 3 -1 0 0 0 0];

oriented        oriented;

internalField   nonuniform List<scalar> 
7080
(
5.55556e-08
-5.56414e-08
2.13568e-08
3.54693e-08
-1.17615e-07
1.38676e-07
-3.50598e-07
2.34875e-07
-6.3754e-07
2.86929e-07
-9.56244e-07
3.20882e-07
-1.28838e-06
3.32424e-07
-1.62788e-06
3.41677e-07
-1.97267e-06
3.453e-07
-2.32379e-06
3.53201e-07
-2.68367e-06
3.60605e-07
-3.05362e-06
3.71928e-07
-3.43537e-06
3.82656e-07
-3.82838e-06
3.94901e-07
-4.23235e-06
4.05034e-07
-4.64466e-06
4.14121e-07
-5.06283e-06
4.19318e-07
-5.48222e-06
4.21105e-07
-5.89829e-06
4.17239e-07
-6.30463e-06
4.07882e-07
-6.69484e-06
3.91306e-07
-7.06111e-06
3.67587e-07
-7.39572e-06
3.35516e-07
-7.69002e-06
2.95294e-07
-7.9357e-06
2.46293e-07
-8.12415e-06
1.89036e-07
-8.24752e-06
1.23581e-07
-8.29839e-06
5.0967e-08
-8.27071e-06
-2.7943e-08
-8.15971e-06
-1.11439e-07
-7.96269e-06
-1.97791e-07
-7.67908e-06
-2.84601e-07
-7.31096e-06
-3.69396e-07
-6.86313e-06
-4.49333e-07
-6.34322e-06
-5.21604e-07
-5.76165e-06
-5.83475e-07
-5.13117e-06
-6.32475e-07
-4.46661e-06
-6.6672e-07
-3.78394e-06
-6.84794e-07
-3.09988e-06
-6.86303e-07
-2.43062e-06
-6.71319e-07
-1.7916e-06
-6.41158e-07
-1.19615e-06
-5.97268e-07
-6.55736e-07
-5.42319e-07
-1.78693e-07
-4.78478e-07
2.28746e-07
-4.09003e-07
5.63639e-07
-3.35855e-07
8.24536e-07
-2.62083e-07
1.01276e-06
-1.88664e-07
1.12998e-06
-1.1804e-07
1.17998e-06
-4.99171e-08
1.16597e-06
1.35058e-08
1.09325e-06
7.3303e-08
9.67028e-07
1.25955e-07
7.96264e-07
1.7179e-07
5.93347e-07
2.02728e-07
3.78214e-07
2.16427e-07
1.81449e-07
1.96458e-07
4.03248e-08
1.42396e-07
4.02811e-08
-3.56886e-08
-2.1147e-08
-2.96644e-07
2.9669e-07
-7.83115e-07
6.22659e-07
-1.46236e-06
9.13654e-07
-2.26946e-06
1.09079e-06
-3.15695e-06
1.20721e-06
-4.08772e-06
1.2597e-06
-5.04242e-06
1.29481e-06
-6.01217e-06
1.31157e-06
-6.99388e-06
1.33304e-06
-7.98871e-06
1.35204e-06
-8.99641e-06
1.37749e-06
-1.00177e-05
1.40063e-06
-1.10496e-05
1.42437e-06
-1.20887e-05
1.44093e-06
-1.31279e-05
1.4508e-06
-1.41594e-05
1.44758e-06
-1.51716e-05
1.43075e-06
-1.61526e-05
1.39523e-06
-1.70873e-05
1.34024e-06
-1.79607e-05
1.26204e-06
-1.87555e-05
1.16022e-06
-1.94547e-05
1.03258e-06
-2.00406e-05
8.79584e-07
-2.04965e-05
7.00716e-07
-2.08061e-05
4.97738e-07
-2.09552e-05
2.72063e-07
-2.09314e-05
2.71034e-08
-2.07254e-05
-2.33599e-07
-2.03311e-05
-5.04732e-07
-1.97468e-05
-7.80584e-07
-1.89754e-05
-1.05405e-06
-1.80246e-05
-1.31767e-06
-1.69077e-05
-1.56332e-06
-1.5643e-05
-1.78295e-06
-1.42538e-05
-1.96892e-06
-1.27679e-05
-2.11442e-06
-1.12162e-05
-2.21425e-06
-9.63189e-06
-2.26476e-06
-8.04913e-06
-2.26484e-06
-6.50105e-06
-2.21512e-06
-5.01913e-06
-2.11915e-06
-3.63097e-06
-1.98153e-06
-2.36046e-06
-1.80949e-06
-1.22581e-06
-1.60985e-06
-2.40903e-07
-1.39138e-06
5.86338e-07
-1.1606e-06
1.25137e-06
-9.25522e-07
1.75467e-06
-6.90283e-07
2.09825e-06
-4.60997e-07
2.28808e-06
-2.38823e-07
2.33036e-06
-2.90738e-08
2.23582e-06
1.68121e-07
2.01681e-06
3.43829e-07
1.69429e-06
4.94159e-07
1.29621e-06
5.99063e-07
8.65578e-07
6.46847e-07
4.57587e-07
6.02477e-07
1.41907e-07
4.58208e-07
1.80967e-07
-1.72559e-07
1.5127e-07
-7.22629e-07
8.49449e-07
-1.60394e-06
1.5035e-06
-2.74349e-06
2.0564e-06
-4.05937e-06
2.40709e-06
-5.48447e-06
2.63574e-06
-6.97217e-06
2.74844e-06
-8.49278e-06
2.81883e-06
-1.00326e-05
2.85287e-06
-1.15833e-05
2.88707e-06
-1.31434e-05
2.91384e-06
-1.47088e-05
2.94615e-06
-1.62776e-05
2.97144e-06
-1.78427e-05
2.99262e-06
-1.93971e-05
2.99754e-06
-2.09285e-05
2.98528e-06
-2.24242e-05
2.94561e-06
-2.38669e-05
2.87636e-06
-2.52389e-05
2.76955e-06
-2.65193e-05
2.62328e-06
-2.76873e-05
2.43212e-06
-2.87203e-05
2.1955e-06
-2.95969e-05
1.91091e-06
-3.02953e-05
1.57978e-06
-3.07962e-05
1.20274e-06
-3.10811e-05
7.83694e-07
-3.11351e-05
3.26526e-07
-3.09459e-05
-1.61979e-07
-3.05054e-05
-6.74507e-07
-2.98098e-05
-1.20114e-06
-2.88606e-05
-1.73112e-06
-2.76648e-05
-2.25161e-06
-2.62356e-05
-2.74913e-06
-2.45923e-05
-3.20922e-06
-2.27606e-05
-3.61763e-06
-2.07721e-05
-3.96084e-06
-1.86631e-05
-4.22695e-06
-1.64744e-05
-4.40675e-06
-1.4249e-05
-4.49398e-06
-1.2031e-05
-4.48671e-06
-9.86348e-06
-4.38636e-06
-7.78711e-06
-4.19926e-06
-5.83787e-06
-3.93406e-06
-4.04697e-06
-3.60368e-06
-2.43855e-06
-3.22092e-06
-1.03119e-06
-2.8014e-06
1.63986e-07
-2.35763e-06
1.14027e-06
-1.90375e-06
1.89723e-06
-1.44822e-06
2.43656e-06
-1.00157e-06
2.76503e-06
-5.674e-07
2.89004e-06
-1.54714e-07
2.82517e-06
2.337e-07
2.58642e-06
5.82401e-07
2.20169e-06
8.80295e-07
1.70705e-06
1.0937e-06
1.15917e-06
1.19659e-06
6.26466e-07
1.13493e-06
2.03318e-07
8.83349e-07
3.8435e-07
-3.30061e-07
4.79251e-07
-1.19948e-06
1.72045e-06
-2.49313e-06
2.79362e-06
-4.08869e-06
3.65262e-06
-5.88922e-06
4.20416e-06
-7.81269e-06
4.55903e-06
-9.80885e-06
4.74125e-06
-1.18408e-05
4.84998e-06
-1.38919e-05
4.9008e-06
-1.59483e-05
4.94232e-06
-1.80052e-05
4.96769e-06
-2.00536e-05
4.9931e-06
-2.20878e-05
5.00275e-06
-2.40958e-05
4.99891e-06
-2.60663e-05
4.96532e-06
-2.79822e-05
4.8993e-06
-2.98261e-05
4.78696e-06
-3.15762e-05
4.62457e-06
-3.32108e-05
4.40173e-06
-3.47053e-05
4.1159e-06
-3.60361e-05
3.76082e-06
-3.71787e-05
3.33657e-06
-3.81109e-05
2.84141e-06
-3.8811e-05
2.27868e-06
-3.92605e-05
1.65104e-06
-3.94428e-05
9.65314e-07
-3.93451e-05
2.28406e-07
-3.89579e-05
-5.49176e-07
-3.82761e-05
-1.35614e-06
-3.72985e-05
-2.17792e-06
-3.603e-05
-2.99867e-06
-3.44803e-05
-3.79979e-06
-3.2666e-05
-4.56165e-06
-3.06099e-05
-5.26316e-06
-2.83416e-05
-5.88343e-06
-2.58973e-05
-6.40249e-06
-2.33187e-05
-6.80263e-06
-2.06524e-05
-7.07004e-06
-1.7948e-05
-7.19523e-06
-1.52566e-05
-7.17509e-06
-1.2628e-05
-7.01173e-06
-1.01099e-05
-6.71456e-06
-7.74417e-06
-6.29688e-06
-5.56727e-06
-5.77817e-06
-3.60738e-06
-5.17833e-06
-1.88596e-06
-4.52101e-06
-4.15804e-07
-3.82583e-06
7.95608e-07
-3.11405e-06
1.74802e-06
-2.39923e-06
2.4437e-06
-1.69687e-06
2.89065e-06
-1.01346e-06
3.09755e-06
-3.61959e-07
3.08014e-06
2.51599e-07
2.85661e-06
8.04928e-07
2.4587e-06
1.27849e-06
1.9263e-06
1.62455e-06
1.3228e-06
1.80047e-06
7.23581e-07
1.73218e-06
2.38283e-07
1.3694e-06
6.21363e-07
-4.73195e-07
9.51629e-07
-1.64905e-06
2.90063e-06
-3.34061e-06
4.48322e-06
-5.37259e-06
5.68852e-06
-7.62923e-06
6.46001e-06
-1.00131e-05
6.94644e-06
-1.24714e-05
7.1996e-06
-1.49615e-05
7.34332e-06
-1.74655e-05
7.40538e-06
-1.99646e-05
7.44448e-06
-2.24513e-05
7.45539e-06
-2.49117e-05
7.45624e-06
-2.73361e-05
7.42847e-06
-2.97077e-05
7.37313e-06
-3.20111e-05
7.27028e-06
-3.42247e-05
7.11532e-06
-3.63275e-05
6.8914e-06
-3.82942e-05
6.59356e-06
-4.01008e-05
6.20994e-06
-4.17211e-05
5.73819e-06
-4.31312e-05
5.17246e-06
-4.43075e-05
4.51457e-06
-4.52296e-05
3.76466e-06
-4.58785e-05
2.92887e-06
-4.62392e-05
2.01257e-06
-4.62988e-05
1.02568e-06
-4.60482e-05
-2.19451e-08
-4.54806e-05
-1.11659e-06
-4.45934e-05
-2.2437e-06
-4.33869e-05
-3.38489e-06
-4.18665e-05
-4.52004e-06
-4.00421e-05
-5.62539e-06
-3.79299e-05
-6.67533e-06
-3.55529e-05
-7.642e-06
-3.29412e-05
-8.49714e-06
-3.01327e-05
-9.21323e-06
-2.71724e-05
-9.76535e-06
-2.41116e-05
-1.01334e-05
-2.1006e-05
-1.03033e-05
-1.79141e-05
-1.02696e-05
-1.48939e-05
-1.00344e-05
-1.20008e-05
-9.61022e-06
-9.28414e-06
-9.01577e-06
-6.78622e-06
-8.27838e-06
-4.53948e-06
-7.42682e-06
-2.56775e-06
-6.49465e-06
-8.84294e-07
-5.51047e-06
5.04327e-07
-4.50415e-06
1.60003e-06
-3.4955e-06
2.40764e-06
-2.50554e-06
2.93815e-06
-1.54391e-06
3.20276e-06
-6.27288e-07
3.21986e-06
2.35173e-07
3.00955e-06
1.01473e-06
2.60614e-06
1.68314e-06
2.05179e-06
2.17837e-06
1.41429e-06
2.43969e-06
7.74936e-07
2.37066e-06
2.54008e-07
1.89239e-06
8.75097e-07
-6.08495e-07
1.55714e-06
-2.07292e-06
4.36826e-06
-4.13556e-06
6.54101e-06
-6.57044e-06
8.12536e-06
-9.24234e-06
9.12789e-06
-1.20398e-05
9.7447e-06
-1.49082e-05
1.00645e-05
-1.78004e-05
1.02356e-05
-2.06979e-05
1.02998e-05
-2.35779e-05
1.03239e-05
-2.643e-05
1.03047e-05
-2.92356e-05
1.0261e-05
-3.19816e-05
1.01719e-05
-3.46463e-05
1.00367e-05
-3.72108e-05
9.83243e-06
-3.96496e-05
9.55282e-06
-4.19393e-05
9.17893e-06
-4.40524e-05
8.70535e-06
-4.59645e-05
8.12007e-06
-4.76498e-05
7.4222e-06
-4.90868e-05
6.60776e-06
-5.02549e-05
5.68162e-06
-5.11387e-05
4.64704e-06
-5.17242e-05
3.51362e-06
-5.20023e-05
2.28966e-06
-5.19647e-05
9.87695e-07
-5.16065e-05
-3.80577e-07
-5.09232e-05
-1.79991e-06
-4.99123e-05
-3.25449e-06
-4.85724e-05
-4.72427e-06
-4.69051e-05
-6.1867e-06
-4.49151e-05
-7.6143e-06
-4.26131e-05
-8.97617e-06
-4.00162e-05
-1.02374e-05
-3.71506e-05
-1.13611e-05
-3.40518e-05
-1.23102e-05
-3.07658e-05
-1.30494e-05
-2.73481e-05
-1.35491e-05
-2.38619e-05
-1.37873e-05
-2.03762e-05
-1.37533e-05
-1.69611e-05
-1.34473e-05
-1.36851e-05
-1.28843e-05
-1.06096e-05
-1.20892e-05
-7.78733e-06
-1.1099e-05
-5.25784e-06
-9.9545e-06
-3.04881e-06
-8.7025e-06
-1.17382e-06
-7.38397e-06
3.63025e-07
-6.04032e-06
1.56835e-06
-4.69966e-06
2.45259e-06
-3.38965e-06
3.03286e-06
-2.12331e-06
3.32566e-06
-9.20508e-07
3.35409e-06
2.0743e-07
3.14146e-06
1.2264e-06
2.72481e-06
2.10045e-06
2.14823e-06
2.75348e-06
1.48217e-06
3.10662e-06
8.12217e-07
3.03866e-06
2.65091e-07
2.44074e-06
1.13896e-06
-7.26165e-07
2.28174e-06
-2.4486e-06
6.09659e-06
-4.84492e-06
8.93396e-06
-7.6428e-06
1.09281e-05
-1.06873e-05
1.21705e-05
-1.38531e-05
1.29146e-05
-1.70835e-05
1.32941e-05
-2.03271e-05
1.34826e-05
-2.3565e-05
1.35376e-05
-2.67706e-05
1.35325e-05
-2.99317e-05
1.34663e-05
-3.30254e-05
1.33573e-05
-3.60355e-05
1.31828e-05
-3.89365e-05
1.294e-05
-4.17066e-05
1.26036e-05
-4.43176e-05
1.21659e-05
-4.67448e-05
1.16073e-05
-4.89602e-05
1.09227e-05
-5.09408e-05
1.01018e-05
-5.26636e-05
9.14677e-06
-5.41122e-05
8.05741e-06
-5.52725e-05
6.84326e-06
-5.61366e-05
5.51204e-06
-5.66992e-05
4.0773e-06
-5.69589e-05
2.54989e-06
-5.69139e-05
9.43369e-07
-5.6563e-05
-7.31292e-07
-5.59019e-05
-2.46084e-06
-5.49244e-05
-4.23215e-06
-5.36214e-05
-6.02758e-06
-5.19831e-05
-7.82573e-06
-5.00001e-05
-9.59805e-06
-4.76677e-05
-1.13096e-05
-4.49882e-05
-1.29181e-05
-4.19748e-05
-1.43759e-05
-3.86547e-05
-1.56318e-05
-3.50705e-05
-1.66352e-05
-3.12813e-05
-1.73401e-05
-2.73607e-05
-1.77096e-05
-2.33944e-05
-1.77215e-05
-1.94738e-05
-1.73696e-05
-1.56912e-05
-1.66687e-05
-1.21318e-05
-1.565e-05
-8.86891e-06
-1.43636e-05
-5.95755e-06
-1.2867e-05
-3.43464e-06
-1.12268e-05
-1.31618e-06
-9.50314e-06
3.97019e-07
-7.75469e-06
1.71941e-06
-6.02231e-06
2.67165e-06
-4.34285e-06
3.28203e-06
-2.73347e-06
3.57722e-06
-1.21649e-06
3.58911e-06
1.96261e-07
3.34735e-06
1.46739e-06
2.89376e-06
2.55526e-06
2.27562e-06
3.3707e-06
1.56661e-06
3.81733e-06
8.56598e-07
3.74736e-06
2.78138e-07
3.02131e-06
1.41655e-06
-8.33666e-07
3.11165e-06
-2.78798e-06
8.05552e-06
-5.48197e-06
1.16219e-05
-8.60224e-06
1.40514e-05
-1.19756e-05
1.55392e-05
-1.54648e-05
1.64054e-05
-1.90107e-05
1.68362e-05
-2.25584e-05
1.7031e-05
-2.60887e-05
1.70648e-05
-2.9572e-05
1.70158e-05
-3.29943e-05
1.68859e-05
-3.63291e-05
1.66917e-05
-3.95578e-05
1.64091e-05
-4.26517e-05
1.60331e-05
-4.55872e-05
1.5537e-05
-4.83344e-05
1.49122e-05
-5.08687e-05
1.41397e-05
-5.31638e-05
1.32168e-05
-5.52005e-05
1.21368e-05
-5.69622e-05
1.09075e-05
-5.84417e-05
9.53545e-06
-5.96363e-05
8.03701e-06
-6.05516e-05
6.4261e-06
-6.11953e-05
4.72041e-06
-6.15781e-05
2.93186e-06
-6.17067e-05
1.07158e-06
-6.1583e-05
-8.55416e-07
-6.11994e-05
-2.84447e-06
-6.05392e-05
-4.8924e-06
-5.95753e-05
-6.99122e-06
-5.82735e-05
-9.12705e-06
-5.65959e-05
-1.12751e-05
-5.4506e-05
-1.33988e-05
-5.19751e-05
-1.54481e-05
-4.89888e-05
-1.73611e-05
-4.55534e-05
-1.90661e-05
-4.17002e-05
-2.0487e-05
-3.74889e-05
-2.15501e-05
-3.30064e-05
-2.21907e-05
-2.83641e-05
-2.23625e-05
-2.36894e-05
-2.20428e-05
-1.91175e-05
-2.12393e-05
-1.47781e-05
-1.99879e-05
-1.07861e-05
-1.83546e-05
-7.22984e-06
-1.64219e-05
-4.16854e-06
-1.42874e-05
-1.62786e-06
-1.20426e-05
3.9323e-07
-9.77545e-06
1.92047e-06
-7.54855e-06
2.99139e-06
-5.41385e-06
3.6538e-06
-3.39499e-06
3.95293e-06
-1.51616e-06
3.93705e-06
2.1299e-07
3.64806e-06
1.75537e-06
3.13696e-06
3.06731e-06
2.45687e-06
4.04928e-06
1.68642e-06
4.58905e-06
9.20328e-07
4.5114e-06
2.9821e-07
3.64507e-06
1.71354e-06
-9.26614e-07
4.03612e-06
-3.08437e-06
1.02205e-05
-6.03992e-06
1.45729e-05
-9.44376e-06
1.7461e-05
-1.31062e-05
1.91989e-05
-1.68792e-05
2.01829e-05
-2.07012e-05
2.06568e-05
-2.45141e-05
2.08476e-05
-2.82985e-05
2.08485e-05
-3.20219e-05
2.07423e-05
-3.56694e-05
2.05334e-05
-3.92115e-05
2.02364e-05
-4.26282e-05
1.98262e-05
-4.58881e-05
1.92953e-05
-4.89673e-05
1.86168e-05
-5.18353e-05
1.77823e-05
-5.447e-05
1.67753e-05
-5.68492e-05
1.55978e-05
-5.89622e-05
1.42507e-05
-6.08044e-05
1.27513e-05
-6.23851e-05
1.1117e-05
-6.37217e-05
9.37489e-06
-6.48419e-05
7.54702e-06
-6.57751e-05
5.65455e-06
-6.65495e-05
3.70679e-06
-6.71828e-05
1.70538e-06
-6.76778e-05
-3.60206e-07
-6.80165e-05
-2.50549e-06
-6.81596e-05
-4.74945e-06
-6.80455e-05
-7.10556e-06
-6.75953e-05
-9.57769e-06
-6.67186e-05
-1.21523e-05
-6.53227e-05
-1.47955e-05
-6.33228e-05
-1.7449e-05
-6.06536e-05
-2.00312e-05
-5.72808e-05
-2.24401e-05
-5.32099e-05
-2.45592e-05
-4.84935e-05
-2.62678e-05
-4.32329e-05
-2.74525e-05
-3.75757e-05
-2.80213e-05
-3.17051e-05
-2.79145e-05
-2.58277e-05
-2.71182e-05
-2.01519e-05
-2.56647e-05
-1.48704e-05
-2.36374e-05
-1.01392e-05
-2.11538e-05
-6.06745e-06
-1.83603e-05
-2.7087e-06
-1.54018e-05
-6.76309e-08
-1.24175e-05
1.89468e-06
-9.51086e-06
3.24169e-06
-6.76177e-06
4.05387e-06
-4.20678e-06
4.40929e-06
-1.87248e-06
4.38599e-06
2.3712e-07
4.04918e-06
2.09118e-06
3.46763e-06
3.65017e-06
2.70616e-06
4.80948e-06
1.8527e-06
5.44434e-06
1.00952e-06
5.35283e-06
3.26892e-07
4.33002e-06
2.03961e-06
-1.011e-06
5.04271e-06
-3.3495e-06
1.25647e-05
-6.53573e-06
1.77519e-05
-1.01889e-05
2.11181e-05
-1.4105e-05
2.31096e-05
-1.81267e-05
2.4207e-05
-2.21908e-05
2.47165e-05
-2.62364e-05
2.48944e-05
-3.02441e-05
2.48527e-05
-3.41794e-05
2.4678e-05
-3.80266e-05
2.43777e-05
-4.1754e-05
2.39638e-05
-4.53408e-05
2.34105e-05
-4.87543e-05
2.27084e-05
-5.19711e-05
2.18314e-05
-5.49625e-05
2.0773e-05
-5.77118e-05
1.95226e-05
-6.02061e-05
1.80913e-05
-6.24506e-05
1.64935e-05
-6.4463e-05
1.47628e-05
-6.62821e-05
1.29347e-05
-6.79597e-05
1.10518e-05
-6.95597e-05
9.14584e-06
-7.1144e-05
7.2383e-06
-7.27655e-05
5.32747e-06
-7.44528e-05
3.39225e-06
-7.62034e-05
1.38994e-06
-7.79753e-05
-7.3375e-07
-7.96863e-05
-3.03862e-06
-8.12148e-05
-5.57699e-06
-8.24075e-05
-8.38491e-06
-8.30889e-05
-1.14706e-05
-8.30762e-05
-1.48077e-05
-8.21956e-05
-1.83291e-05
-8.02999e-05
-2.19263e-05
-7.72871e-05
-2.54522e-05
-7.31155e-05
-2.873e-05
-6.78165e-05
-3.15661e-05
-6.15008e-05
-3.37674e-05
-5.43582e-05
-3.51632e-05
-4.66474e-05
-3.56244e-05
-3.86787e-05
-3.50862e-05
-3.07852e-05
-3.35573e-05
-2.32919e-05
-3.11302e-05
-1.64795e-05
-2.79653e-05
-1.0559e-05
-2.42805e-05
-5.65131e-06
-2.03085e-05
-1.78977e-06
-1.6279e-05
1.0725e-06
-1.23722e-05
3.03409e-06
-8.72366e-06
4.22688e-06
-5.39866e-06
4.78454e-06
-2.43082e-06
4.83748e-06
1.85184e-07
4.49357e-06
2.43395e-06
3.85472e-06
4.29025e-06
3.00821e-06
5.65433e-06
2.05908e-06
6.39512e-06
1.12223e-06
6.28737e-06
3.63941e-07
5.09045e-06
2.40223e-06
-1.08396e-06
6.12412e-06
-3.58108e-06
1.50702e-05
-6.97003e-06
2.11355e-05
-1.08426e-05
2.49973e-05
-1.49824e-05
2.72461e-05
-1.92246e-05
2.84544e-05
-2.35043e-05
2.89943e-05
-2.77586e-05
2.91528e-05
-3.19682e-05
2.90614e-05
-3.60973e-05
2.88104e-05
-4.01299e-05
2.84101e-05
-4.4033e-05
2.78697e-05
-4.77858e-05
2.71635e-05
-5.13556e-05
2.62806e-05
-5.47214e-05
2.51977e-05
-5.78597e-05
2.39134e-05
-6.07647e-05
2.24284e-05
-6.34422e-05
2.07706e-05
-6.59261e-05
1.89782e-05
-6.82739e-05
1.71122e-05
-7.05743e-05
1.52359e-05
-7.29339e-05
1.34127e-05
-7.54704e-05
1.1683e-05
-7.82899e-05
1.00588e-05
-8.14726e-05
8.51061e-06
-8.50515e-05
6.97172e-06
-8.90026e-05
5.34127e-06
-9.32355e-05
3.4994e-06
-9.75943e-05
1.32015e-06
-0.000101862
-1.30976e-06
-0.000105771
-4.47566e-06
-0.000109024
-8.21844e-06
-0.000111309
-1.2523e-05
-0.000112329
-1.73094e-05
-0.000111825
-2.2431e-05
-0.000109599
-2.76784e-05
-0.00010554
-3.27899e-05
-9.96373e-05
-3.74697e-05
-9.19956e-05
-4.14098e-05
-8.284e-05
-4.43197e-05
-7.25093e-05
-4.59559e-05
-6.144e-05
-4.61566e-05
-5.01329e-05
-4.48651e-05
-3.91098e-05
-4.21545e-05
-2.88562e-05
-3.82194e-05
-1.97703e-05
-3.33676e-05
-1.21169e-05
-2.7962e-05
-6.01301e-06
-2.23839e-05
-1.43043e-06
-1.69546e-05
1.76541e-06
-1.19204e-05
3.77927e-06
-7.41197e-06
4.83311e-06
-3.48567e-06
5.14533e-06
-1.26066e-07
4.89863e-06
2.67943e-06
4.25444e-06
4.93592e-06
3.34163e-06
6.56553e-06
2.2963e-06
7.44255e-06
1.25511e-06
7.3263e-06
4.08432e-07
5.93984e-06
2.80952e-06
-1.15064e-06
7.26975e-06
-3.78914e-06
1.77152e-05
-7.35779e-06
2.46959e-05
-1.14248e-05
2.90687e-05
-1.57635e-05
3.15787e-05
-2.02029e-05
3.28965e-05
-2.46772e-05
3.34639e-05
-2.91223e-05
3.35994e-05
-3.35195e-05
3.34548e-05
-3.78322e-05
3.31237e-05
-4.20449e-05
3.26197e-05
-4.61241e-05
3.19489e-05
-5.00498e-05
3.10866e-05
-5.37913e-05
3.00217e-05
-5.73332e-05
2.87373e-05
-6.06628e-05
2.72424e-05
-6.37956e-05
2.55592e-05
-6.6771e-05
2.37452e-05
-6.96737e-05
2.18791e-05
-7.26273e-05
2.0065e-05
-7.5798e-05
1.84052e-05
-7.9372e-05
1.69859e-05
-8.35368e-05
1.58465e-05
-8.8447e-05
1.49684e-05
-9.42013e-05
1.42639e-05
-0.000100816
1.35857e-05
-0.000108213
1.27383e-05
-0.000116216
1.15021e-05
-0.000124551
9.65495e-06
-0.000132861
6.99975e-06
-0.000140724
3.38736e-06
-0.000147681
-1.26065e-06
-0.000153267
-6.93581e-06
-0.000157043
-1.35333e-05
-0.000158621
-2.08511e-05
-0.000157701
-2.85976e-05
-0.000154085
-3.64052e-05
-0.0001477
-4.38526e-05
-0.00013862
-5.04891e-05
-0.00012707
-5.58687e-05
-0.000113439
-5.95855e-05
-9.8273e-05
-6.13218e-05
-8.22488e-05
-6.08884e-05
-6.61295e-05
-5.82736e-05
-5.06895e-05
-5.36587e-05
-3.66304e-05
-4.74268e-05
-2.44886e-05
-4.01032e-05
-1.45777e-05
-3.22952e-05
-6.96472e-06
-2.45668e-05
-1.50884e-06
-1.73768e-05
2.07967e-06
-1.09995e-05
4.15033e-06
-5.55718e-06
5.06035e-06
-1.03493e-06
5.11698e-06
2.62151e-06
4.58349e-06
5.47092e-06
3.66217e-06
7.48496e-06
2.54301e-06
8.5638e-06
1.39971e-06
8.4669e-06
4.58367e-07
6.88393e-06
3.26637e-06
-1.20824e-06
8.47522e-06
-3.97171e-06
2.04881e-05
-7.69996e-06
2.84182e-05
-1.19404e-05
3.33166e-05
-1.64581e-05
3.60927e-05
-2.10769e-05
3.75211e-05
-2.57311e-05
3.8116e-05
-3.03559e-05
3.82287e-05
-3.49336e-05
3.80316e-05
-3.94278e-05
3.76215e-05
-4.38238e-05
3.70154e-05
-4.80888e-05
3.6217e-05
-5.22054e-05
3.52034e-05
-5.61476e-05
3.39665e-05
-5.99113e-05
3.25015e-05
-6.35051e-05
3.08385e-05
-6.6982e-05
2.90368e-05
-7.04404e-05
2.72055e-05
-7.40468e-05
2.54864e-05
-7.80255e-05
2.40455e-05
-8.26512e-05
2.30317e-05
-8.82091e-05
2.25452e-05
-9.49601e-05
2.25983e-05
-0.000103093
2.31024e-05
-0.000112693
2.3865e-05
-0.000123717
2.46097e-05
-0.00013598
2.50019e-05
-0.000149161
2.46836e-05
-0.000162814
2.33087e-05
-0.000176395
2.0581e-05
-0.000189295
1.62877e-05
-0.000200882
1.03273e-05
-0.000210544
2.72646e-06
-0.000217719
-6.35698e-06
-0.000221929
-1.66407e-05
-0.000222791
-2.77347e-05
-0.000220036
-3.9159e-05
-0.000213522
-5.03664e-05
-0.000203247
-6.07627e-05
-0.000189378
-6.97373e-05
-0.000172269
-7.6694e-05
-0.000152485
-8.11052e-05
-0.000130808
-8.25652e-05
-0.000108211
-8.08707e-05
-8.57931e-05
-7.60765e-05
-6.46686e-05
-6.85521e-05
-4.58179e-05
-5.89539e-05
-2.99485e-05
-4.81657e-05
-1.73936e-05
-3.71214e-05
-8.11241e-06
-2.66591e-05
-1.76001e-06
-1.73513e-05
2.17139e-06
-9.4897e-06
4.24146e-06
-3.1039e-06
4.9534e-06
1.90817e-06
4.73686e-06
5.68911e-06
3.91778e-06
8.30213e-06
2.77653e-06
9.70745e-06
1.54827e-06
9.69239e-06
5.12257e-07
7.92316e-06
3.77715e-06
-1.2615e-06
9.7311e-06
-4.13704e-06
2.33706e-05
-8.00811e-06
3.22802e-05
-1.24046e-05
3.77179e-05
-1.70846e-05
4.07659e-05
-2.18688e-05
4.23082e-05
-2.66919e-05
4.29337e-05
-3.14895e-05
4.30277e-05
-3.62455e-05
4.27833e-05
-4.09242e-05
4.23008e-05
-4.55131e-05
4.16007e-05
-4.99811e-05
4.0685e-05
-5.4316e-05
3.95353e-05
-5.85014e-05
3.81515e-05
-6.25539e-05
3.65514e-05
-6.65199e-05
3.48037e-05
-7.0516e-05
3.30307e-05
-7.47342e-05
3.14228e-05
-7.94632e-05
3.02134e-05
-8.50643e-05
2.96456e-05
-9.19431e-05
2.99087e-05
-0.000100485
3.10861e-05
-0.000111
3.31122e-05
-0.000123665
3.57668e-05
-0.00013849
3.8689e-05
-0.000155296
4.14145e-05
-0.000173714
4.34202e-05
-0.000193206
4.41755e-05
-0.000213094
4.31966e-05
-0.000232612
4.00995e-05
-0.000250967
3.46438e-05
-0.000267397
2.67584e-05
-0.000281215
1.65454e-05
-0.000291833
4.26262e-06
-0.000298772
-9.70079e-06
-0.00030165
-2.4855e-05
-0.000300178
-4.06288e-05
-0.000294155
-5.63885e-05
-0.000283473
-7.14425e-05
-0.000268151
-8.50568e-05
-0.000248377
-9.64656e-05
-0.000224565
-0.000104916
-0.000197409
-0.000109718
-0.000167926
-0.000110352
-0.000137436
-0.000106565
-0.000107474
-9.85137e-05
-7.96114e-05
-8.68151e-05
-5.52152e-05
-7.25623e-05
-3.51957e-05
-5.71401e-05
-1.98735e-05
-4.19821e-05
-8.99279e-06
-2.82311e-05
-1.90932e-06
-1.65742e-05
2.2e-06
-7.21199e-06
4.128e-06
-2.12482e-08
4.56422e-06
5.2546e-06
4.03415e-06
8.83011e-06
2.96463e-06
1.07794e-05
1.68988e-06
1.0964e-05
5.68211e-07
9.04818e-06
4.3436e-06
-1.30672e-06
1.1035e-05
-4.28134e-06
2.63556e-05
-8.28018e-06
3.62728e-05
-1.28178e-05
4.22637e-05
-1.76471e-05
4.55914e-05
-2.25863e-05
4.72538e-05
-2.75715e-05
4.79168e-05
-3.25391e-05
4.80004e-05
-3.74756e-05
4.77189e-05
-4.23469e-05
4.71762e-05
-4.71434e-05
4.63971e-05
-5.18384e-05
4.53834e-05
-5.64286e-05
4.41259e-05
-6.09156e-05
4.26414e-05
-6.53517e-05
4.09881e-05
-6.98463e-05
3.93009e-05
-7.46157e-05
3.78011e-05
-7.9989e-05
3.67984e-05
-8.64175e-05
3.6643e-05
-9.44243e-05
3.76544e-05
-0.000104543
4.00281e-05
-0.000117221
4.37667e-05
-0.000132755
4.86468e-05
-0.000151219
5.42324e-05
-0.000172446
5.9917e-05
-0.000196015
6.4984e-05
-0.000221271
6.86778e-05
-0.000247377
7.0282e-05
-0.000273381
6.9202e-05
-0.000298315
6.50346e-05
-0.000321281
5.76103e-05
-0.000341515
4.69924e-05
-0.000358414
3.3445e-05
-0.000371531
1.7379e-05
-0.000380536
-6.96814e-07
-0.000385174
-2.02178e-05
-0.000385225
-4.0579e-05
-0.000380472
-6.11425e-05
-0.000370698
-8.12173e-05
-0.000355706
-0.000100049
-0.000335377
-0.000116795
-0.000309754
-0.000130538
-0.000279165
-0.000140306
-0.000244335
-0.000145181
-0.000206484
-0.000144415
-0.00016734
-0.000137656
-0.000129019
-0.000125135
-9.37408e-05
-0.000107841
-6.34057e-05
-8.74746e-05
-3.91887e-05
-6.62001e-05
-2.13163e-05
-4.61028e-05
-9.19227e-06
-2.86994e-05
-1.72574e-06
-1.46774e-05
2.2702e-06
-4.01867e-06
3.87392e-06
3.6526e-06
3.92203e-06
8.77989e-06
3.07229e-06
1.16318e-05
1.81486e-06
1.22183e-05
6.25453e-07
1.02413e-05
4.96729e-06
-1.3486e-06
1.23774e-05
-4.41132e-06
2.94255e-05
-8.52416e-06
4.03757e-05
-1.31892e-05
4.69336e-05
-1.81558e-05
5.05504e-05
-2.32409e-05
5.23417e-05
-2.83827e-05
5.30526e-05
-3.35194e-05
5.31385e-05
-3.86407e-05
5.28354e-05
-4.37151e-05
5.22511e-05
-4.87381e-05
5.1416e-05
-5.36899e-05
5.0335e-05
-5.85828e-05
4.90153e-05
-6.34487e-05
4.75067e-05
-6.83978e-05
4.59343e-05
-7.36366e-05
4.45386e-05
-7.95247e-05
4.36866e-05
-8.65717e-05
4.38442e-05
-9.54185e-05
4.54874e-05
-0.000106743
4.89777e-05
-0.000121158
5.4441e-05
-0.00013909
6.16969e-05
-0.000160699
7.02551e-05
-0.00018583
7.9362e-05
-0.000213994
8.80804e-05
-0.000244393
9.53822e-05
-0.000275979
0.000100263
-0.000307563
0.000101866
-0.000337958
9.95963e-05
-0.000366113
9.3189e-05
-0.000391214
8.271e-05
-0.000412714
6.84908e-05
-0.000430311
5.10404e-05
-0.000443886
3.09506e-05
-0.000453417
8.83184e-06
-0.000458906
-1.47323e-05
-0.000460302
-3.91863e-05
-0.000457452
-6.39957e-05
-0.000450075
-8.85978e-05
-0.000437762
-0.000112366
-0.000420023
-0.000134537
-0.000396377
-0.000154186
-0.000366504
-0.00017018
-0.000330436
-0.000181249
-0.000288783
-0.000186067
-0.000242918
-0.00018352
-0.000195058
-0.000172992
-0.00014811
-0.000154788
-0.000105209
-0.000130374
-6.90174e-05
-0.000102392
-4.10128e-05
-7.41064e-05
-2.12134e-05
-4.84999e-05
-8.46896e-06
-2.74207e-05
-1.14083e-06
-1.13482e-05
2.39952e-06
1.13918e-07
3.45932e-06
7.71797e-06
3.0526e-06
1.20412e-05
1.91068e-06
1.33568e-05
6.83305e-07
1.14724e-05
5.64866e-06
-1.38184e-06
1.37566e-05
-4.5201e-06
3.2575e-05
-8.73336e-06
4.45827e-05
-1.35133e-05
5.17227e-05
-1.86068e-05
5.56403e-05
-2.38304e-05
5.75724e-05
-2.9125e-05
5.83453e-05
-3.44315e-05
5.84506e-05
-3.97433e-05
5.81466e-05
-4.50334e-05
5.75458e-05
-5.03039e-05
5.66866e-05
-5.55473e-05
5.55823e-05
-6.08006e-05
5.42693e-05
-6.61444e-05
5.28538e-05
-7.17764e-05
5.15673e-05
-7.80415e-05
5.08068e-05
-8.5487e-05
5.11334e-05
-9.48319e-05
5.31919e-05
-0.000106899
5.7556e-05
-0.000122463
6.45446e-05
-0.00014211
7.40887e-05
-0.000166097
8.56871e-05
-0.000194293
9.84522e-05
-0.000226132
0.000111203
-0.000260641
0.000122591
-0.000296513
0.000131255
-0.000332255
0.000136006
-0.000366399
0.00013601
-0.000397704
0.000130901
-0.000425301
0.000120785
-0.000448734
0.000106141
-0.00046791
8.76644e-05
-0.000483007
6.61343e-05
-0.000494352
4.22931e-05
-0.000502315
1.67921e-05
-0.00050721
-9.84043e-06
-0.000509221
-3.7179e-05
-0.000508339
-6.48813e-05
-0.000504322
-9.26183e-05
-0.000496666
-0.000120027
-0.000484611
-0.000146597
-0.000467187
-0.000171615
-0.000443343
-0.000194029
-0.000412148
-0.000212449
-0.000373105
-0.000225114
-0.00032651
-0.000230117
-0.000273819
-0.000225682
-0.000217834
-0.000210773
-0.000162525
-0.00018568
-0.000112322
-0.000152594
-7.09055e-05
-0.000115522
-4.00631e-05
-7.93431e-05
-1.93442e-05
-4.81388e-05
-6.8418e-06
-2.38519e-05
-2.31283e-07
-6.49516e-06
2.47934e-06
5.00537e-06
2.84414e-06
1.16789e-05
1.96243e-06
1.42352e-05
7.41732e-07
1.2697e-05
6.38846e-06
-1.41151e-06
1.51612e-05
-4.61345e-06
3.5784e-05
-8.91276e-06
4.88711e-05
-1.37938e-05
5.66084e-05
-1.90025e-05
6.08405e-05
-2.43559e-05
6.29283e-05
-2.97983e-05
6.37811e-05
-3.5274e-05
6.39272e-05
-4.07815e-05
6.36487e-05
-4.62996e-05
6.30639e-05
-5.18406e-05
6.2223e-05
-5.74157e-05
6.11568e-05
-6.30999e-05
5.99496e-05
-6.90456e-05
5.87984e-05
-7.55734e-05
5.80916e-05
-8.32078e-05
5.84397e-05
-9.27142e-05
6.06366e-05
-0.000105016
6.5492e-05
-0.000121056
7.35934e-05
-0.000141588
8.5074e-05
-0.000167003
9.9502e-05
-0.00019721
0.000115892
-0.000231582
0.000132822
-0.000268958
0.000148578
-0.000307742
0.000161373
-0.000346085
0.000169597
-0.000382185
0.000172104
-0.000414574
0.000168396
-0.00044232
0.000158644
-0.000465068
0.000143531
-0.000482962
0.000124033
-0.000496493
0.000101195
-0.000506341
7.5982e-05
-0.000513233
4.91852e-05
-0.000517842
2.14021e-05
-0.000520718
-6.96324e-06
-0.000522241
-3.5654e-05
-0.000522581
-6.45392e-05
-0.000521656
-9.35415e-05
-0.000519075
-0.000122607
-0.000514087
-0.000151585
-0.000505545
-0.000180158
-0.000491931
-0.000207646
-0.000471468
-0.000232916
-0.000442403
-0.000254182
-0.000403437
-0.000269087
-0.00035432
-0.000274801
-0.000296464
-0.000268631
-0.00023336
-0.000248784
-0.000170397
-0.000215556
-0.000113747
-0.00017217
-6.83751e-05
-0.000124715
-3.61856e-05
-8.03272e-05
-1.59008e-05
-4.41375e-05
-4.56945e-06
-1.78255e-05
7.31207e-07
-2.96993e-07
2.35141e-06
1.00609e-05
1.9444e-06
1.4639e-05
7.99042e-07
1.38461e-05
7.18559e-06
-1.43016e-06
1.65891e-05
-4.68067e-06
3.90468e-05
-9.05035e-06
5.32349e-05
-1.40184e-05
6.15863e-05
-1.93304e-05
6.61494e-05
-2.48049e-05
6.84108e-05
-3.03898e-05
6.93646e-05
-3.60335e-05
6.95773e-05
-4.17405e-05
6.93556e-05
-4.74975e-05
6.88263e-05
-5.33313e-05
6.80575e-05
-5.92807e-05
6.71106e-05
-6.54754e-05
6.61455e-05
-7.21673e-05
6.54943e-05
-7.98358e-05
6.57618e-05
-8.92165e-05
6.7824e-05
-0.000101293
7.2715e-05
-0.000117136
8.13386e-05
-0.000137686
9.41451e-05
-0.000163495
0.000110887
-0.000194565
0.000130574
-0.000230241
0.000151571
-0.000269213
0.000171795
-0.000309598
0.000188966
-0.000349191
0.000200966
-0.000385829
0.000206235
-0.0004178
0.000204075
-0.000444106
0.000194703
-0.000464514
0.000179053
-0.000479419
0.000158438
-0.000489626
0.000134242
-0.000496121
0.000107691
-0.00049989
7.97542e-05
-0.000501815
5.1113e-05
-0.000502621
2.22124e-05
-0.000502877
-6.70396e-06
-0.000503004
-3.55223e-05
-0.000503287
-6.42522e-05
-0.000503854
-9.29691e-05
-0.000504621
-0.000121836
-0.000505193
-0.000151008
-0.000504735
-0.000180612
-0.000501854
-0.000210524
-0.000494533
-0.000240235
-0.000480227
-0.000268488
-0.000456165
-0.000293152
-0.000419974
-0.000310996
-0.000370557
-0.000318052
-0.000309132
-0.000310211
-0.000239989
-0.0002847
-0.00017037
-0.000241788
-0.000108706
-0.000186378
-6.13339e-05
-0.000127698
-2.98074e-05
-7.56642e-05
-1.14132e-05
-3.62193e-05
-2.16165e-06
-9.54974e-06
1.42526e-06
6.47561e-06
1.81263e-06
1.42489e-05
8.49883e-07
1.48122e-05
8.03375e-06
-1.44393e-06
1.80253e-05
-4.72764e-06
4.2337e-05
-9.14934e-06
5.76448e-05
-1.41867e-05
6.66277e-05
-1.95866e-05
7.154e-05
-2.51694e-05
7.39954e-05
-3.08873e-05
7.5075e-05
-3.66936e-05
7.53839e-05
-4.26001e-05
7.52559e-05
-4.86042e-05
7.48297e-05
-5.47524e-05
7.42004e-05
-6.11218e-05
7.34787e-05
-6.79159e-05
7.2935e-05
-7.55137e-05
7.30904e-05
-8.45811e-05
7.4825e-05
-9.60696e-05
7.93104e-05
-0.000111135
8.77767e-05
-0.00013088
0.000101081
-0.000156065
0.000119327
-0.000186842
0.000141661
-0.000222613
0.000166342
-0.000261986
0.000190942
-0.00030287
0.000212676
-0.000342738
0.000228831
-0.000379085
0.000237311
-0.000409946
0.000237093
-0.000434254
0.000228381
-0.000451906
0.000212355
-0.000463575
0.000190722
-0.000470386
0.00016525
-0.000473608
0.000137466
-0.000474414