/*--------------------------------*- C++ -*----------------------------------*\
| =========                 |                                                 |
| \\      /  F ield         | OpenFOAM: The Open Source CFD Toolbox           |
|  \\    /   O peration     | Version:  2406                                  |
|   \\  /    A nd           | Website:  www.openfoam.com                      |
|    \\/     M anipulation  |                                                 |
\*---------------------------------------------------------------------------*/
FoamFile
{
    version     2.0;
    format      ascii;
    arch        "LSB;label=32;scalar=64";
    class       volVectorField;
    location    "17.95";
    object      U;
}
// * * * * * * * * * * * * * * * * * * * * * * * * * * * * * * * * * * * * * //

dimensions      [0 1 -1 0 0 0 0];

internalField   nonuniform List<vector> 
14400
(
(2.55588e-06 -2.49683e-06 0)
(1.77405e-05 -7.33884e-06 0)
(4.08108e-05 -8.38669e-06 0)
(6.07692e-05 -7.08676e-06 0)
(7.57838e-05 -4.71491e-06 0)
(8.25134e-05 -2.11048e-06 0)
(8.1884e-05 2.90124e-07 0)
(7.38592e-05 2.3546e-06 0)
(5.98556e-05 4.01898e-06 0)
(4.06326e-05 5.35102e-06 0)
(1.72596e-05 6.3942e-06 0)
(-9.63433e-06 7.24855e-06 0)
(-3.95022e-05 7.97415e-06 0)
(-7.20808e-05 8.65247e-06 0)
(-0.000107268 9.3295e-06 0)
(-0.000145127 1.00573e-05 0)
(-0.000185853 1.08622e-05 0)
(-0.000229724 1.1772e-05 0)
(-0.000277099 1.27982e-05 0)
(-0.000328373 1.39538e-05 0)
(-0.000383986 1.52434e-05 0)
(-0.000444392 1.66734e-05 0)
(-0.000510076 1.82472e-05 0)
(-0.000581533 1.99703e-05 0)
(-0.000659282 2.18476e-05 0)
(-0.000743859 2.38858e-05 0)
(-0.000835826 2.60916e-05 0)
(-0.000935764 2.84729e-05 0)
(-0.00104428 3.1037e-05 0)
(-0.00116199 3.37914e-05 0)
(-0.00128955 3.67422e-05 0)
(-0.0014276 3.98939e-05 0)
(-0.0015768 4.32486e-05 0)
(-0.0017378 4.68051e-05 0)
(-0.00191122 5.05583e-05 0)
(-0.00209763 5.44976e-05 0)
(-0.00229758 5.86069e-05 0)
(-0.0025115 6.28626e-05 0)
(-0.00273972 6.7233e-05 0)
(-0.00298245 7.16775e-05 0)
(-0.00323969 7.61451e-05 0)
(-0.00351129 8.05741e-05 0)
(-0.0037968 8.48911e-05 0)
(-0.00409554 8.90107e-05 0)
(-0.00440648 9.28353e-05 0)
(-0.00472825 9.62555e-05 0)
(-0.0050591 9.91505e-05 0)
(-0.00539686 0.000101389 0)
(-0.00573892 0.000102833 0)
(-0.00608222 0.000103336 0)
(-0.00642324 0.000102749 0)
(-0.00675802 0.000100926 0)
(-0.00708214 9.77213e-05 0)
(-0.00739081 9.3003e-05 0)
(-0.00767889 8.66518e-05 0)
(-0.00794093 7.85699e-05 0)
(-0.00817133 6.86861e-05 0)
(-0.00836436 5.69624e-05 0)
(-0.00851434 4.33994e-05 0)
(-0.00861573 2.80422e-05 0)
(-0.0086633 1.09851e-05 0)
(-0.00865227 -7.62479e-06 0)
(-0.0085785 -2.75847e-05 0)
(-0.00843858 -4.86362e-05 0)
(-0.00823006 -7.04661e-05 0)
(-0.00795155 -9.27102e-05 0)
(-0.00760285 -0.00011496 0)
(-0.00718506 -0.00013677 0)
(-0.00670064 -0.000157671 0)
(-0.00615344 -0.000177182 0)
(-0.00554873 -0.000194828 0)
(-0.0048931 -0.000210153 0)
(-0.00419439 -0.000222743 0)
(-0.00346155 -0.00023224 0)
(-0.00270444 -0.000238358 0)
(-0.0019336 -0.000240901 0)
(-0.00115999 -0.000239771 0)
(-0.000394724 -0.000234976 0)
(0.000351272 -0.000226632 0)
(0.00106752 -0.000214962 0)
(0.00174431 -0.000200286 0)
(0.00237294 -0.000183011 0)
(0.00294596 -0.00016361 0)
(0.00345733 -0.000142606 0)
(0.00390259 -0.000120548 0)
(0.00427885 -9.79896e-05 0)
(0.00458487 -7.54636e-05 0)
(0.00482093 -5.3466e-05 0)
(0.00498878 -3.24375e-05 0)
(0.00509142 -1.27516e-05 0)
(0.00513298 5.2949e-06 0)
(0.00511843 2.14839e-05 0)
(0.0050534 3.56774e-05 0)
(0.00494392 4.78112e-05 0)
(0.00479623 5.78904e-05 0)
(0.00461658 6.59766e-05 0)
(0.00441102 7.21822e-05 0)
(0.00418532 7.6653e-05 0)
(0.00394476 7.95662e-05 0)
(0.00369419 8.11089e-05 0)
(0.0034378 8.14855e-05 0)
(0.00317928 8.08887e-05 0)
(0.0029216 7.95234e-05 0)
(0.00266731 7.75613e-05 0)
(0.00241815 7.51934e-05 0)
(0.00217568 7.25485e-05 0)
(0.00194057 6.97971e-05 0)
(0.00171369 6.69975e-05 0)
(0.00149483 6.42956e-05 0)
(0.0012847 6.16264e-05 0)
(0.00108255 5.9103e-05 0)
(0.000889794 5.64309e-05 0)
(0.000705734 5.36757e-05 0)
(0.000533831 5.01e-05 0)
(0.000374408 4.5722e-05 0)
(0.000234904 3.89775e-05 0)
(0.000117939 3.01107e-05 0)
(3.5716e-05 1.66487e-05 0)
(-8.24997e-06 2.26104e-06 0)
(-1.02089e-05 -1.01054e-05 0)
(7.61932e-06 -1.7882e-05 0)
(3.67915e-05 -3.63865e-05 0)
(7.46929e-05 -3.83622e-05 0)
(0.000103413 -2.95776e-05 0)
(0.000119005 -1.571e-05 0)
(0.000115582 9.61506e-09 0)
(9.38848e-05 1.51252e-05 0)
(5.39557e-05 2.88424e-05 0)
(-1.81117e-06 4.05585e-05 0)
(-7.16586e-05 5.04796e-05 0)
(-0.000153427 5.87524e-05 0)
(-0.000245594 6.58623e-05 0)
(-0.000346935 7.21559e-05 0)
(-0.000456761 7.80865e-05 0)
(-0.00057481 8.39637e-05 0)
(-0.000701195 9.01067e-05 0)
(-0.000836374 9.67205e-05 0)
(-0.000981027 0.000103993 0)
(-0.00113606 0.000112037 0)
(-0.0013025 0.000120954 0)
(-0.0014815 0.000130802 0)
(-0.00167428 0.00014164 0)
(-0.00188217 0.000153509 0)
(-0.00210653 0.000166454 0)
(-0.00234878 0.000180517 0)
(-0.00261042 0.000195743 0)
(-0.00289298 0.000212177 0)
(-0.00319807 0.000229863 0)
(-0.00352732 0.000248839 0)
(-0.00388241 0.000269139 0)
(-0.00426504 0.00029078 0)
(-0.00467688 0.000313766 0)
(-0.00511958 0.000338075 0)
(-0.00559473 0.00036366 0)
(-0.00610379 0.000390437 0)
(-0.00664803 0.000418283 0)
(-0.00722852 0.000447028 0)
(-0.00784602 0.000476447 0)
(-0.00850092 0.000506257 0)
(-0.00919315 0.000536109 0)
(-0.00992212 0.000565586 0)
(-0.0106866 0.000594197 0)
(-0.0114846 0.00062138 0)
(-0.0123134 0.000646496 0)
(-0.0131694 0.00066884 0)
(-0.014048 0.000687639 0)
(-0.0149437 0.000702068 0)
(-0.0158496 0.000711259 0)
(-0.0167583 0.000714316 0)
(-0.0176608 0.000710336 0)
(-0.0185474 0.000698434 0)
(-0.0194072 0.000677764 0)
(-0.0202288 0.000647552 0)
(-0.0209997 0.000607126 0)
(-0.0217069 0.000555944 0)
(-0.0223373 0.000493632 0)
(-0.0228775 0.00042001 0)
(-0.0233142 0.000335124 0)
(-0.0236347 0.000239271 0)
(-0.0238268 0.000133019 0)
(-0.0238797 1.72241e-05 0)
(-0.0237836 -0.000106964 0)
(-0.0235306 -0.0002381 0)
(-0.0231149 -0.000374455 0)
(-0.0225325 -0.000514035 0)
(-0.0217823 -0.000654612 0)
(-0.0208656 -0.000793767 0)
(-0.0197865 -0.000928938 0)
(-0.0185523 -0.00105748 0)
(-0.0171726 -0.00117676 0)
(-0.0156602 -0.00128418 0)
(-0.0140305 -0.00137731 0)
(-0.0123013 -0.00145397 0)
(-0.0104925 -0.00151225 0)
(-0.00862587 -0.00155066 0)
(-0.00672453 -0.00156816 0)
(-0.00481242 -0.0015642 0)
(-0.00291383 -0.00153878 0)
(-0.00105283 -0.00149247 0)
(0.000747271 -0.00142634 0)
(0.00246453 -0.00134204 0)
(0.00407887 -0.00124163 0)
(0.00557251 -0.0011276 0)
(0.00693043 -0.00100273 0)
(0.00814066 -0.000869986 0)
(0.00919446 -0.000732448 0)
(0.0100865 -0.000593159 0)
(0.0108146 -0.000455039 0)
(0.0113802 -0.00032078 0)
(0.0117872 -0.000192771 0)
(0.0120428 -7.30299e-05 0)
(0.012156 3.68335e-05 0)
(0.0121379 0.000135639 0)
(0.012001 0.000222633 0)
(0.0117587 0.00029747 0)
(0.011425 0.000360175 0)
(0.0110139 0.000411104 0)
(0.0105389 0.000450877 0)
(0.0100132 0.000480337 0)
(0.00944898 0.000500475 0)
(0.00885718 0.000512401 0)
(0.00824773 0.000517254 0)
(0.00762905 0.000516221 0)
(0.00700846 0.00051041 0)
(0.00639167 0.000500937 0)
(0.00578361 0.000488718 0)
(0.00518748 0.000474682 0)
(0.00460644 0.000459383 0)
(0.00404177 0.000443437 0)
(0.003496 0.00042677 0)
(0.00296943 0.00040953 0)
(0.00246586 0.000390576 0)
(0.00198605 0.000369418 0)
(0.00153778 0.000343171 0)
(0.00112398 0.00031083 0)
(0.000759544 0.000267026 0)
(0.00045006 0.000212153 0)
(0.000217565 0.000139699 0)
(6.37601e-05 6.30785e-05 0)
(2.24413e-06 -8.22569e-06 0)
(8.86531e-06 -4.14357e-05 0)
(3.87327e-05 -7.41518e-05 0)
(7.24092e-05 -7.26511e-05 0)
(8.94274e-05 -4.80208e-05 0)
(8.46616e-05 -1.25634e-05 0)
(5.18849e-05 2.74308e-05 0)
(-8.33769e-06 6.62987e-05 0)
(-9.54412e-05 0.00010215 0)
(-0.000206583 0.000133433 0)
(-0.000339218 0.000160475 0)
(-0.000490611 0.000183574 0)
(-0.000658611 0.000203807 0)
(-0.000841626 0.000222027 0)
(-0.00103869 0.000239309 0)
(-0.00124948 0.000256453 0)
(-0.0014742 0.000274254 0)
(-0.00171355 0.000293268 0)
(-0.00196856 0.000313986 0)
(-0.00224061 0.000336738 0)
(-0.00253129 0.000361803 0)
(-0.0028424 0.000389373 0)
(-0.00317585 0.000419618 0)
(-0.00353373 0.000452671 0)
(-0.00391821 0.000488665 0)
(-0.00433156 0.000527722 0)
(-0.00477618 0.000569963 0)
(-0.00525451 0.000615502 0)
(-0.00576911 0.000664445 0)
(-0.00632255 0.000716872 0)
(-0.00691747 0.000772841 0)
(-0.00755646 0.000832361 0)
(-0.0082421 0.000895389 0)
(-0.00897682 0.000961811 0)
(-0.0097629 0.00103143 0)
(-0.0106024 0.00110393 0)
(-0.0114969 0.00117891 0)
(-0.0124476 0.00125581 0)
(-0.0134553 0.00133392 0)
(-0.01452 0.00141238 0)
(-0.0156407 0.00149014 0)
(-0.0168157 0.00156598 0)
(-0.0180423 0.00163851 0)
(-0.0193165 0.00170612 0)
(-0.0206329 0.00176706 0)
(-0.0219849 0.0018194 0)
(-0.0233644 0.0018611 0)
(-0.0247617 0.00189001 0)
(-0.0261657 0.0019039 0)
(-0.0275637 0.00190055 0)
(-0.0289418 0.00187778 0)
(-0.0302845 0.0018335 0)
(-0.0315753 0.00176581 0)
(-0.0327967 0.00167305 0)
(-0.0339307 0.00155388 0)
(-0.0349585 0.00140734 0)
(-0.0358617 0.00123294 0)
(-0.0366217 0.00103069 0)
(-0.0372209 0.000801195 0)
(-0.0376424 0.000545646 0)
(-0.0378709 0.000265894 0)
(-0.0378929 -3.55615e-05 0)
(-0.0376968 -0.000355568 0)
(-0.0372738 -0.000690346 0)
(-0.0366175 -0.00103552 0)
(-0.0357249 -0.0013862 0)
(-0.034596 -0.00173703 0)
(-0.0332344 -0.00208232 0)
(-0.0316469 -0.00241612 0)
(-0.0298441 -0.00273242 0)
(-0.0278401 -0.00302522 0)
(-0.0256523 -0.00328874 0)
(-0.0233013 -0.00351757 0)
(-0.0208106 -0.00370682 0)
(-0.0182066 -0.00385229 0)
(-0.0155174 -0.00395064 0)
(-0.0127733 -0.00399948 0)
(-0.0100054 -0.00399752 0)
(-0.00724567 -0.0039446 0)
(-0.00452576 -0.00384178 0)
(-0.00187679 -0.0036913 0)
(0.000671526 -0.00349654 0)
(0.00309145 -0.00326194 0)
(0.00535784 -0.00299286 0)
(0.00744869 -0.00269541 0)
(0.00934553 -0.00237624 0)
(0.0110338 -0.00204234 0)
(0.0125033 -0.00170076 0)
(0.0137477 -0.00135841 0)
(0.0147654 -0.00102184 0)
(0.0155584 -0.000697007 0)
(0.016133 -0.000389141 0)
(0.0164987 -0.000102611 0)
(0.0166679 0.00015916 0)
(0.0166556 0.000393722 0)
(0.0164787 0.000599597 0)
(0.016155 0.000776218 0)
(0.0157035 0.000923864 0)
(0.0151428 0.00104353 0)
(0.0144915 0.00113684 0)
(0.0137673 0.00120587 0)
(0.0129865 0.00125307 0)
(0.0121644 0.00128108 0)
(0.0113142 0.00129269 0)
(0.0104478 0.00129062 0)
(0.00957499 0.00127756 0)
(0.00870424 0.0012559 0)
(0.00784188 0.00122785 0)
(0.00699393 0.00119498 0)
(0.00616393 0.00115865 0)
(0.00535682 0.001119 0)
(0.0045747 0.00107602 0)
(0.00382392 0.00102759 0)
(0.00310693 0.000971868 0)
(0.002435 0.000903396 0)
(0.00181263 0.000818818 0)
(0.0012599 0.000708942 0)
(0.000782714 0.000573034 0)
(0.000411568 0.000402611 0)
(0.000145277 0.000218593 0)
(1.76527e-05 3.72093e-05 0)
(7.55764e-06 -6.17969e-05 0)
(2.82063e-05 -0.000101272 0)
(4.21874e-05 -8.81665e-05 0)
(3.0743e-05 -3.94939e-05 0)
(-1.1835e-05 2.53356e-05 0)
(-9.03392e-05 9.70353e-05 0)
(-0.00020424 0.000166687 0)
(-0.000352001 0.000231313 0)
(-0.000530602 0.000288383 0)
(-0.000736806 0.000338368 0)
(-0.000967655 0.00038176 0)
(-0.00122057 0.000420312 0)
(-0.00149385 0.00045548 0)
(-0.00178637 0.000489078 0)
(-0.00209791 0.000522511 0)
(-0.00242878 0.000557157 0)
(-0.00277997 0.000594028 0)
(-0.00315285 0.000634012 0)
(-0.00354929 0.000677738 0)
(-0.00397138 0.000725741 0)
(-0.00442154 0.000778408 0)
(-0.0049024 0.000836083 0)
(-0.00541676 0.000899047 0)
(-0.0059676 0.000967565 0)
(-0.00655807 0.00104188 0)
(-0.00719143 0.00112221 0)
(-0.00787107 0.00120878 0)
(-0.00860045 0.00130174 0)
(-0.00938311 0.00140123 0)
(-0.0102225 0.00150728 0)
(-0.0111222 0.00161985 0)
(-0.0120855 0.00173878 0)
(-0.0131156 0.00186375 0)
(-0.0142151 0.00199428 0)
(-0.0153865 0.00212967 0)
(-0.0166315 0.00226898 0)
(-0.0179514 0.00241104 0)
(-0.0193461 0.00255437 0)
(-0.0208151 0.00269719 0)
(-0.0223562 0.00283741 0)
(-0.0239661 0.0029726 0)
(-0.02564 0.00310004 0)
(-0.0273715 0.00321668 0)
(-0.0291522 0.0033192 0)
(-0.0309723 0.00340407 0)
(-0.0328199 0.00346757 0)
(-0.0346812 0.00350587 0)
(-0.0365408 0.00351513 0)
(-0.0383814 0.00349156 0)
(-0.0401842 0.00343159 0)
(-0.0419293 0.00333191 0)
(-0.0435954 0.00318962 0)
(-0.0451607 0.00300234 0)
(-0.0466029 0.00276834 0)
(-0.0478995 0.00248662 0)
(-0.0490286 0.002157 0)
(-0.0499689 0.0017802 0)
(-0.0507003 0.00135793 0)
(-0.0512043 0.000892871 0)
(-0.0514643 0.000388748 0)
(-0.051466 -0.000149719 0)
(-0.0511977 -0.000716826 0)
(-0.0506506 -0.00130595 0)
(-0.0498193 -0.00190962 0)
(-0.0487014 -0.00251965 0)
(-0.0472984 -0.00312722 0)
(-0.0456152 -0.00372308 0)
(-0.0436606 -0.00429769 0)
(-0.0414469 -0.00484146 0)
(-0.0389904 -0.00534488 0)
(-0.0363108 -0.00579882 0)
(-0.0334311 -0.00619474 0)
(-0.0303778 -0.0065249 0)
(-0.0271799 -0.00678263 0)
(-0.023869 -0.00696252 0)
(-0.0204789 -0.00706061 0)
(-0.0170446 -0.00707458 0)
(-0.0136022 -0.00700386 0)
(-0.0101881 -0.0068497 0)
(-0.00683833 -0.00661521 0)
(-0.00358792 -0.00630527 0)
(-0.000470114 -0.00592648 0)
(0.0024842 -0.00548694 0)
(0.00524714 -0.00499607 0)
(0.00779442 -0.00446425 0)
(0.0101058 -0.00390258 0)
(0.0121653 -0.00332246 0)
(0.013962 -0.00273529 0)
(0.0154892 -0.00215205 0)
(0.0167456 -0.00158303 0)
(0.0177339 -0.00103748 0)
(0.0184616 -0.000523424 0)
(0.0189397 -4.74469e-05 0)
(0.0191829 0.000385395 0)
(0.0192084 0.000771621 0)
(0.0190358 0.00110929 0)
(0.018686 0.00139791 0)
(0.0181809 0.00163832 0)
(0.0175423 0.0018325 0)
(0.0167918 0.00198336 0)
(0.0159502 0.00209456 0)
(0.0150367 0.00217025 0)
(0.0140692 0.00221494 0)
(0.0130637 0.00223316 0)
(0.0120339 0.00222946 0)
(0.0109921 0.00220795 0)
(0.00994826 0.00217246 0)
(0.0089115 0.00212584 0)
(0.0078882 0.00207041 0)
(0.00688619 0.00200674 0)
(0.00590978 0.00193477 0)
(0.00496811 0.0018515 0)
(0.00406525 0.00175372 0)
(0.00321558 0.00163361 0)
(0.00242422 0.00148536 0)
(0.00171547 0.00129649 0)
(0.00109398 0.00106424 0)
(0.000598517 0.000777989 0)
(0.000225583 0.000459439 0)
(3.27874e-05 0.000124649 0)
(4.63645e-06 -7.58228e-05 0)
(9.20322e-06 -0.000110462 0)
(-7.58052e-06 -7.47846e-05 0)
(-5.98796e-05 8.04446e-06 0)
(-0.000153824 0.000111515 0)
(-0.000291378 0.000223376 0)
(-0.000471896 0.000331514 0)
(-0.00069226 0.000431958 0)
(-0.000949309 0.000521279 0)
(-0.00123899 0.0006002 0)
(-0.00155828 0.00066952 0)
(-0.00190426 0.000731792 0)
(-0.0022753 0.000789204 0)
(-0.00267024 0.000844433 0)
(-0.00308908 0.00089961 0)
(-0.00353231 0.000956813 0)
(-0.00400131 0.00101761 0)
(-0.00449783 0.00108339 0)
(-0.00502425 0.00115517 0)
(-0.00558322 0.00123382 0)
(-0.00617785 0.00132 0)
(-0.00681145 0.0014143 0)
(-0.00748765 0.00151722 0)
(-0.00821028 0.0016292 0)
(-0.00898338 0.00175067 0)
(-0.00981117 0.00188198 0)
(-0.010698 0.00202345 0)
(-0.0116484 0.00217533 0)
(-0.0126667 0.00233775 0)
(-0.0137574 0.00251071 0)
(-0.0149249 0.00269402 0)
(-0.0161733 0.0028873 0)
(-0.0175061 0.00308988 0)
(-0.0189267 0.00330081 0)
(-0.0204376 0.00351876 0)
(-0.0220405 0.00374204 0)
(-0.0237361 0.0039685 0)
(-0.025524 0.00419554 0)
(-0.0274021 0.00442008 0)
(-0.0293671 0.00463856 0)
(-0.0314137 0.0048469 0)
(-0.0335346 0.0050406 0)
(-0.0357208 0.00521472 0)
(-0.0379609 0.00536395 0)
(-0.0402416 0.00548275 0)
(-0.0425472 0.00556538 0)
(-0.0448601 0.00560607 0)
(-0.0471609 0.00559915 0)
(-0.0494283 0.0055392 0)
(-0.0516397 0.00542122 0)
(-0.0537713 0.00524078 0)
(-0.0557984 0.00499416 0)
(-0.057696 0.00467858 0)
(-0.059439 0.00429223 0)
(-0.0610027 0.00383448 0)
(-0.062363 0.00330593 0)
(-0.0634974 0.00270849 0)
(-0.0643845 0.00204545 0)
(-0.0650051 0.00132145 0)
(-0.0653422 0.000542512 0)
(-0.0653811 -0.000284007 0)
(-0.0651102 -0.0011495 0)
(-0.0645208 -0.00204417 0)
(-0.0636074 -0.0029572 0)
(-0.062368 -0.00387683 0)
(-0.0608039 -0.0047906 0)
(-0.0589204 -0.00568549 0)
(-0.0567264 -0.00654815 0)
(-0.0542343 -0.0073652 0)
(-0.0514606 -0.00812339 0)
(-0.0484254 -0.00880999 0)
(-0.0451522 -0.009413 0)
(-0.0416683 -0.00992153 0)
(-0.0380037 -0.010326 0)
(-0.0341917 -0.0106186 0)
(-0.0302678 -0.0107933 0)
(-0.0262695 -0.0108464 0)
(-0.0222359 -0.0107763 0)
(-0.0182068 -0.0105843 0)
(-0.0142222 -0.0102737 0)
(-0.0103217 -0.00985077 0)
(-0.00654334 -0.00932392 0)
(-0.00292348 -0.00870388 0)
(0.000504401 -0.00800326 0)
(0.00371017 -0.00723631 0)
(0.00666766 -0.00641841 0)
(0.00935514 -0.00556565 0)
(0.0117558 -0.00469436 0)
(0.0138577 -0.00382058 0)
(0.0156545 -0.0029596 0)
(0.0171447 -0.00212552 0)
(0.0183319 -0.0013309 0)
(0.0192244 -0.00058641 0)
(0.0198346 9.93417e-05 0)
(0.0201788 0.000719944 0)
(0.020276 0.0012712 0)
(0.0201479 0.00175108 0)
(0.0198176 0.00215955 0)
(0.019309 0.00249841 0)
(0.0186466 0.00277097 0)
(0.017854 0.00298183 0)
(0.0169543 0.00313653 0)
(0.0159689 0.00324127 0)
(0.0149178 0.0033025 0)
(0.0138186 0.00332679 0)
(0.0126874 0.00332026 0)
(0.0115376 0.00328857 0)
(0.0103819 0.0032362 0)
(0.00922981 0.00316665 0)
(0.00809222 0.00308121 0)
(0.00697583 0.00297988 0)
(0.00589267 0.00285906 0)
(0.00484834 0.00271414 0)
(0.0038602 0.00253523 0)
(0.0029337 0.00231374 0)
(0.00209726 0.00203418 0)
(0.00135462 0.00169028 0)
(0.000753447 0.00126858 0)
(0.000289671 0.000785621 0)
(4.369e-05 0.000251731 0)
(8.45168e-07 -7.82979e-05 0)
(-1.56892e-05 -9.12277e-05 0)
(-7.21903e-05 -1.9354e-05 0)
(-0.000175683 0.000108487 0)
(-0.000332465 0.000259393 0)
(-0.000540397 0.000418507 0)
(-0.00079859 0.00057103 0)
(-0.00110179 0.000712329 0)
(-0.00144674 0.000838406 0)
(-0.0018284 0.000950446 0)
(-0.00224384 0.00104974 0)
(-0.00268983 0.00113976 0)
(-0.00316496 0.00122353 0)
(-0.00366813 0.00130469 0)
(-0.00419969 0.00138617 0)
(-0.00476042 0.00147082 0)
(-0.00535213 0.00156083 0)
(-0.00597708 0.00165817 0)
(-0.00663822 0.0017643 0)
(-0.00733886 0.00188051 0)
(-0.00808283 0.00200783 0)
(-0.00887427 0.00214715 0)
(-0.00971769 0.00229924 0)
(-0.0106179 0.00246481 0)
(-0.0115799 0.00264447 0)
(-0.0126091 0.00283879 0)
(-0.0137108 0.00304818 0)
(-0.0148906 0.00327295 0)
(-0.016154 0.00351321 0)
(-0.0175064 0.00376884 0)
(-0.018953 0.00403942 0)
(-0.0204986 0.00432418 0)
(-0.0221476 0.00462195 0)
(-0.0239033 0.00493106 0)
(-0.0257685 0.00524931 0)
(-0.0277447 0.00557393 0)
(-0.0298319 0.00590148 0)
(-0.0320287 0.00622787 0)
(-0.0343318 0.00654835 0)
(-0.0367361 0.00685745 0)
(-0.0392341 0.00714911 0)
(-0.0418161 0.00741665 0)
(-0.0444702 0.00765289 0)
(-0.0471819 0.0078503 0)
(-0.0499344 0.00800107 0)
(-0.0527088 0.00809734 0)
(-0.0554839 0.00813136 0)
(-0.0582367 0.00809568 0)
(-0.0609428 0.00798339 0)
(-0.0635764 0.00778829 0)
(-0.0661109 0.00750513 0)
(-0.068519 0.00712978 0)
(-0.0707737 0.00665939 0)
(-0.0728481 0.00609255 0)
(-0.074716 0.00542937 0)
(-0.0763523 0.00467162 0)
(-0.0777334 0.0038227 0)
(-0.0788373 0.00288773 0)
(-0.079644 0.00187351 0)
(-0.0801361 0.000788459 0)
(-0.0802981 -0.000357417 0)
(-0.0801178 -0.00155264 0)
(-0.0795854 -0.00278436 0)
(-0.0786947 -0.00403851 0)
(-0.0774422 -0.00529997 0)
(-0.0758282 -0.00655275 0)
(-0.0738565 -0.00778022 0)
(-0.0715344 -0.00896534 0)
(-0.0688732 -0.010091 0)
(-0.0658879 -0.0111401 0)
(-0.0625975 -0.0120963 0)
(-0.0590249 -0.0129439 0)
(-0.0551967 -0.0136686 0)
(-0.0511431 -0.0142576 0)
(-0.0468978 -0.0147 0)
(-0.0424977 -0.0149875 0)
(-0.037982 -0.0151142 0)
(-0.0333924 -0.0150772 0)
(-0.0287718 -0.0148766 0)
(-0.0241644 -0.014516 0)
(-0.019614 -0.0140018 0)
(-0.0151641 -0.0133441 0)
(-0.0108565 -0.0125556 0)
(-0.00673079 -0.0116517 0)
(-0.00282332 -0.0106503 0)
(0.000833252 -0.00957092 0)
(0.00421076 -0.00843422 0)
(0.007286 -0.0072616 0)
(0.0100411 -0.0060744 0)
(0.0124639 -0.00489331 0)
(0.0145477 -0.00373778 0)
(0.0162915 -0.0026255 0)
(0.0176998 -0.00157198 0)
(0.0187819 -0.000590183 0)
(0.0195517 0.000309714 0)
(0.020027 0.00112039 0)
(0.0202287 0.00183739 0)
(0.0201804 0.00245903 0)
(0.019907 0.00298616 0)
(0.0194347 0.00342184 0)
(0.0187897 0.0037711 0)
(0.0179979 0.00404042 0)
(0.0170839 0.00423739 0)
(0.0160714 0.00437024 0)
(0.0149816 0.00444747 0)
(0.0138345 0.00447723 0)
(0.0126471 0.00446716 0)
(0.0114357 0.00442349 0)
(0.0102131 0.00435115 0)
(0.00899355 0.0042524 0)
(0.00778632 0.00412759 0)
(0.00660644 0.00397284 0)
(0.00546116 0.0037824 0)
(0.00437078 0.00354469 0)
(0.00334127 0.00324823 0)
(0.00240502 0.00287461 0)
(0.0015655 0.00241254 0)
(0.000878698 0.00184397 0)
(0.000341207 0.00117522 0)
(5.22269e-05 0.000406483 0)
(-3.53128e-06 -6.79458e-05 0)
(-4.47562e-05 -3.906e-05 0)
(-0.000147586 8.50501e-05 0)
(-0.000310255 0.000270414 0)
(-0.000538997 0.000478669 0)
(-0.000826561 0.000692816 0)
(-0.00117166 0.000895984 0)
(-0.00156641 0.00108328 0)
(-0.00200739 0.00125054 0)
(-0.0024884 0.00139971 0)
(-0.00300669 0.00153281 0)
(-0.00355867 0.00165442 0)
(-0.0041433 0.00176855 0)
(-0.00475961 0.00187989 0)
(-0.00540841 0.00199228 0)
(-0.00609086 0.00210941 0)
(-0.00680937 0.00223421 0)
(-0.00756676 0.00236926 0)
(-0.0083667 0.00251661 0)
(-0.00921328 0.00267802 0)
(-0.0101112 0.00285497 0)
(-0.0110655 0.00304874 0)
(-0.0120819 0.00326047 0)
(-0.0131661 0.00349117 0)
(-0.0143245 0.00374174 0)
(-0.0155634 0.00401291 0)
(-0.0168897 0.00430526 0)
(-0.01831 0.0046191 0)
(-0.0198309 0.00495447 0)
(-0.021459 0.00531103 0)
(-0.0232004 0.005688 0)
(-0.0250606 0.00608405 0)
(-0.0270444 0.00649725 0)
(-0.0291558 0.00692499 0)
(-0.0313972 0.00736388 0)
(-0.0337697 0.00780971 0)
(-0.0362729 0.00825739 0)
(-0.0389039 0.00870094 0)
(-0.0416582 0.00913352 0)
(-0.0445285 0.00954741 0)
(-0.0475052 0.00993411 0)
(-0.0505761 0.0102845 0)
(-0.0537264 0.0105889 0)
(-0.0569385 0.0108372 0)
(-0.0601927 0.0110194 0)
(-0.0634669 0.0111253 0)
(-0.0667369 0.0111454 0)
(-0.0699769 0.0110704 0)
(-0.0731597 0.0108923 0)
(-0.0762572 0.0106038 0)
(-0.0792407 0.0101992 0)
(-0.0820812 0.00967427 0)
(-0.08475 0.00902634 0)
(-0.0872188 0.00825467 0)
(-0.0894604 0.00736035 0)
(-0.0914486 0.00634643 0)
(-0.0931586 0.00521793 0)
(-0.0945673 0.00398181 0)
(-0.0956537 0.00264695 0)
(-0.0963985 0.0012241 0)
(-0.096785 -0.000274242 0)
(-0.0967989 -0.00183387 0)
(-0.0964285 -0.00343906 0)
(-0.0956651 -0.00507264 0)
(-0.0945029 -0.00671622 0)
(-0.0929395 -0.00835036 0)
(-0.090976 -0.00995481 0)
(-0.0886172 -0.0115087 0)
(-0.0858718 -0.0129911 0)
(-0.0827524 -0.0143808 0)
(-0.079276 -0.0156574 0)
(-0.0754638 -0.0168012 0)
(-0.0713412 -0.0177938 0)
(-0.066938 -0.0186185 0)
(-0.0622879 -0.019261 0)
(-0.0574286 -0.0197095 0)
(-0.0524013 -0.0199553 0)
(-0.0472501 -0.0199934 0)
(-0.0420214 -0.0198222 0)
(-0.0367636 -0.0194443 0)
(-0.0315257 -0.0188664 0)
(-0.026357 -0.018099 0)
(-0.0213055 -0.0171568 0)
(-0.0164177 -0.0160576 0)
(-0.0117372 -0.0148227 0)
(-0.00730402 -0.0134757 0)
(-0.00315352 -0.0120422 0)
(0.000683865 -0.0105488 0)
(0.00418344 -0.00902253 0)
(0.00732651 -0.00749004 0)
(0.0101006 -0.00597672 0)
(0.0124996 -0.00450613 0)
(0.0145233 -0.00309936 0)
(0.0161774 -0.00177453 0)
(0.017473 -0.000546475 0)
(0.0184258 0.000573517 0)
(0.0190556 0.00157774 0)
(0.0193857 0.00246202 0)
(0.0194415 0.0032255 0)
(0.0192504 0.00387037 0)
(0.0188406 0.00440145 0)
(0.0182404 0.00482572 0)
(0.0174775 0.00515185 0)
(0.0165789 0.00538955 0)
(0.0155692 0.00554917 0)
(0.0144723 0.00564088 0)
(0.0133086 0.00567433 0)
(0.0120986 0.00565771 0)
(0.0108581 0.00559752 0)
(0.00960486 0.00549731 0)
(0.00835104 0.00535797 0)
(0.00711473 0.00517574 0)
(0.00590508 0.00494386 0)
(0.00474538 0.00464933 0)
(0.00364263 0.00427765 0)
(0.00263316 0.00380723 0)
(0.0017211 0.00322053 0)
(0.000969901 0.00249356 0)
(0.000377573 0.00161929 0)
(5.77351e-05 0.000584733 0)
(-8.32305e-06 -4.22751e-05 0)
(-7.71248e-05 5.1789e-05 0)
(-0.000231744 0.000246138 0)
(-0.000460258 0.000502502 0)
(-0.000768612 0.000778164 0)
(-0.00114357 0.00105468 0)
(-0.0015833 0.00131393 0)
(-0.00207685 0.00155132 0)
(-0.00262063 0.00176308 0)
(-0.00320713 0.00195227 0)
(-0.0038338 0.00212198 0)
(-0.00449675 0.00227807 0)
(-0.00519538 0.00242574 0)
(-0.00592892 0.00257082 0)
(-0.00669878 0.00271814 0)
(-0.00750661 0.00287235 0)
(-0.00835556 0.00303714 0)
(-0.00924913 0.00321584 0)
(-0.0101919 0.00341113 0)
(-0.0111888 0.00362536 0)
(-0.0122457 0.00386053 0)
(-0.0133688 0.00411844 0)
(-0.0145649 0.00440063 0)
(-0.0158411 0.00470852 0)
(-0.0172052 0.0050433 0)
(-0.018665 0.00540595 0)
(-0.0202285 0.00579713 0)
(-0.0219039 0.00621716 0)
(-0.0236991 0.00666591 0)
(-0.0256217 0.00714269 0)
(-0.0276789 0.00764618 0)
(-0.029877 0.00817428 0)
(-0.0322214 0.00872407 0)
(-0.034716 0.00929166 0)
(-0.0373634 0.00987212 0)
(-0.0401641 0.0104595 0)
(-0.0431168 0.0110465 0)
(-0.0462174 0.0116251 0)
(-0.0494595 0.0121859 0)
(-0.0528341 0.0127186 0)
(-0.0563292 0.0132119 0)
(-0.05993 0.013654 0)
(-0.0636188 0.0140325 0)
(-0.0673756 0.014335 0)
(-0.0711775 0.0145489 0)
(-0.0749998 0.014662 0)
(-0.0788157 0.0146629 0)
(-0.082597 0.0145412 0)
(-0.0863142 0.0142875 0)
(-0.0899373 0.0138941 0)
(-0.0934356 0.0133549 0)
(-0.0967787 0.0126657 0)
(-0.0999364 0.0118245 0)
(-0.102879 0.0108311 0)
(-0.105577 0.00968763 0)
(-0.108004 0.00839851 0)
(-0.110133 0.00697016 0)
(-0.111939 0.00541127 0)
(-0.113398 0.00373257 0)
(-0.11449 0.00194689 0)
(-0.115196 6.89816e-05 0)
(-0.115497 -0.0018845 0)
(-0.115379 -0.00389517 0)
(-0.114832 -0.00594299 0)
(-0.113845 -0.00800646 0)
(-0.112413 -0.0100628 0)
(-0.110533 -0.0120882 0)
(-0.108208 -0.014058 0)
(-0.105443 -0.0159471 0)
(-0.102247 -0.0177303 0)
(-0.0986343 -0.0193825 0)
(-0.0946243 -0.0208797 0)
(-0.0902404 -0.0221988 0)
(-0.0855111 -0.0233188 0)
(-0.08047 -0.0242208 0)
(-0.075155 -0.024889 0)
(-0.0696086 -0.0253111 0)
(-0.0638773 -0.0254786 0)
(-0.0580111 -0.0253875 0)
(-0.0520626 -0.0250387 0)
(-0.0460863 -0.0244379 0)
(-0.0401379 -0.0235956 0)
(-0.0342726 -0.0225274 0)
(-0.0285446 -0.0212534 0)
(-0.0230058 -0.0197978 0)
(-0.0177045 -0.0181882 0)
(-0.0126849 -0.0164551 0)
(-0.00798558 -0.0146306 0)
(-0.00363928 -0.0127477 0)
(0.000327874 -0.0108395 0)
(0.00389663 -0.00893809 0)
(0.00705479 -0.00707349 0)
(0.00979707 -0.00527319 0)
(0.0121249 -0.00356134 0)
(0.014046 -0.00195826 0)
(0.0155737 -0.000480113 0)
(0.0167264 0.000861274 0)
(0.0175265 0.00205839 0)
(0.0179999 0.00310791 0)
(0.0181749 0.00401035 0)
(0.0180813 0.00476971 0)
(0.0177499 0.0053929 0)
(0.017211 0.00588918 0)
(0.0164948 0.00626943 0)
(0.0156296 0.00654558 0)
(0.0146429 0.00672971 0)
(0.0135589 0.00683347 0)
(0.0124017 0.00686706 0)
(0.011191 0.00683874 0)
(0.00994799 0.00675356 0)
(0.00868784 0.00661324 0)
(0.0074319 0.00641443 0)
(0.00619159 0.00614963 0)
(0.00499328 0.00580465 0)
(0.00384553 0.00536183 0)
(0.00278838 0.00479616 0)
(0.00182736 0.00408296 0)
(0.00103203 0.00319095 0)
(0.000402218 0.00209804 0)
(6.13977e-05 0.000776687 0)
(-1.34747e-05 -3.94215e-07 0)
(-0.000112158 0.000184407 0)
(-0.000322886 0.000468717 0)
(-0.000622584 0.000810769 0)
(-0.00101671 0.00116464 0)
(-0.00148535 0.00151127 0)
(-0.00202603 0.00183217 0)
(-0.00262434 0.00212369 0)
(-0.00327649 0.0023831 0)
(-0.00397353 0.00261497 0)
(-0.00471319 0.00282383 0)
(-0.00549121 0.0030171 0)
(-0.0063076 0.00320132 0)
(-0.00716182 0.00338362 0)
(-0.00805604 0.00356997 0)
(-0.00899252 0.00376601 0)
(-0.00997527 0.00397636 0)
(-0.0110087 0.00420516 0)
(-0.0120984 0.00445582 0)
(-0.0132506 0.00473143 0)
(-0.0144722 0.0050346 0)
(-0.0157709 0.00536771 0)
(-0.017155 0.00573286 0)
(-0.0186332 0.0061319 0)
(-0.0202147 0.00656638 0)
(-0.0219091 0.00703749 0)
(-0.023726 0.007546 0)
(-0.025675 0.00809214 0)
(-0.0277655 0.00867549 0)
(-0.0300065 0.00929487 0)
(-0.0324061 0.00994818 0)
(-0.0349714 0.0106323 0)
(-0.0377083 0.011343 0)
(-0.040621 0.0120748 0)
(-0.0437117 0.0128209 0)
(-0.0469804 0.013573 0)
(-0.0504246 0.0143216 0)
(-0.0540389 0.0150559 0)
(-0.0578153 0.0157636 0)
(-0.0617423 0.0164315 0)
(-0.0658059 0.0170454 0)
(-0.0699884 0.0175907 0)
(-0.0742699 0.0180521 0)
(-0.0786273 0.0184146 0)
(-0.0830353 0.0186633 0)
(-0.0874664 0.0187842 0)
(-0.0918916 0.0187641 0)
(-0.0962801 0.0185914 0)
(-0.100601 0.0182558 0)
(-0.104821 0.0177492 0)
(-0.108908 0.0170652 0)
(-0.11283 0.0161999 0)
(-0.116555 0.0151516 0)
(-0.12005 0.013921 0)
(-0.123286 0.012511 0)
(-0.126231 0.0109271 0)
(-0.128859 0.00917711 0)
(-0.13114 0.00727122 0)
(-0.13305 0.00522187 0)
(-0.134564 0.00304376 0)
(-0.13566 0.00075372 0)
(-0.136319 -0.00162929 0)
(-0.136522 -0.00408436 0)
(-0.136255 -0.00658868 0)
(-0.135505 -0.00911773 0)
(-0.134264 -0.0116454 0)
(-0.132525 -0.0141443 0)
(-0.130287 -0.0165859 0)
(-0.127552 -0.0189409 0)
(-0.124325 -0.0211796 0)
(-0.120618 -0.0232723 0)
(-0.116447 -0.0251899 0)
(-0.111833 -0.0269043 0)
(-0.106801 -0.0283892 0)
(-0.101385 -0.0296206 0)
(-0.0956209 -0.0305777 0)
(-0.0895525 -0.0312433 0)
(-0.0832277 -0.0316048 0)
(-0.0766993 -0.0316543 0)
(-0.0700239 -0.0313899 0)
(-0.0632615 -0.0308151 0)
(-0.0564742 -0.0299396 0)
(-0.0497251 -0.0287793 0)
(-0.0430771 -0.0273555 0)
(-0.0365914 -0.0256952 0)
(-0.0303262 -0.0238298 0)
(-0.0243356 -0.0217946 0)
(-0.0186681 -0.0196275 0)
(-0.0133661 -0.0173682 0)
(-0.00846452 -0.0150569 0)
(-0.0039908 -0.012733 0)
(3.57096e-05 -0.0104341 0)
(0.00360364 -0.00819498 0)
(0.00670942 -0.00604689 0)
(0.00935685 -0.00401664 0)
(0.0115565 -0.00212623 0)
(0.013325 -0.000392562 0)
(0.014684 0.00117265 0)
(0.0156594 0.00256276 0)
(0.0162807 0.00377592 0)
(0.0165792 0.00481463 0)
(0.0165879 0.00568516 0)
(0.0163402 0.0063969 0)
(0.0158694 0.00696158 0)
(0.0152074 0.00739243 0)
(0.0143854 0.00770332 0)
(0.0134317 0.00790785 0)
(0.0123743 0.00801829 0)
(0.0112364 0.00804482 0)
(0.0100433 0.00799417 0)
(0.00881318 0.00786916 0)
(0.00757093 0.00766708 0)
(0.00633061 0.0073799 0)
(0.00512173 0.0069924 0)
(0.00395502 0.00648372 0)
(0.00287401 0.00582522 0)
(0.00188623 0.00498457 0)
(0.00106601 0.00392256 0)
(0.0004151 0.00260148 0)
(6.30191e-05 0.000978599 0)
(-1.89526e-05 5.9223e-05 0)
(-0.000149556 0.000362397 0)
(-0.000420131 0.000757707 0)
(-0.000795539 0.00120085 0)
(-0.0012806 0.00164394 0)
(-0.00184812 0.00206823 0)
(-0.00249489 0.00245588 0)
(-0.00320275 0.00280499 0)
(-0.00396775 0.0031145 0)
(-0.00477937 0.00339105 0)
(-0.00563568 0.00364099 0)
(-0.00653212 0.00387358 0)
(-0.00746936 0.00409692 0)
(-0.00844722 0.00431963 0)
(-0.00946875 0.0045489 0)
(-0.010537 0.00479153 0)
(-0.011657 0.00505314 0)
(-0.0128343 0.00533882 0)