/*--------------------------------*- C++ -*----------------------------------*\
| =========                 |                                                 |
| \\      /  F ield         | OpenFOAM: The Open Source CFD Toolbox           |
|  \\    /   O peration     | Version:  2406                                  |
|   \\  /    A nd           | Website:  www.openfoam.com                      |
|    \\/     M anipulation  |                                                 |
\*---------------------------------------------------------------------------*/
FoamFile
{
    version     2.0;
    format      ascii;
    arch        "LSB;label=32;scalar=64";
    class       volScalarField;
    location    "34.1";
    object      p;
}
// * * * * * * * * * * * * * * * * * * * * * * * * * * * * * * * * * * * * * //

dimensions      [0 2 -2 0 0 0 0];

internalField   nonuniform List<scalar> 
3600
(
0.03841
0.0384367
0.0384243
0.0384071
0.0383444
0.0382758
0.0381788
0.0380816
0.0379656
0.0378434
0.0376972
0.0375305
0.03733
0.0370967
0.0368224
0.0365073
0.0361477
0.0357462
0.0353058
0.0348364
0.0343538
0.0338828
0.0334564
0.0331133
0.0328945
0.0328383
0.0329766
0.0333302
0.0339066
0.0346961
0.0356702
0.0367787
0.03795
0.0390928
0.0401012
0.0408658
0.0412852
0.0412846
0.0408266
0.039928
0.0386533
0.0371163
0.0354483
0.0337907
0.0322535
0.0309244
0.0298369
0.0290071
0.0284037
0.0280035
0.0277476
0.0276118
0.0275383
0.0275246
0.0275216
0.0275515
0.0275681
0.0276125
0.0276332
0.0276724
0.0383848
0.0384123
0.0383935
0.0383765
0.0383172
0.0382571
0.0381704
0.0380846
0.0379798
0.037869
0.0377354
0.0375837
0.0374016
0.0371907
0.0369428
0.0366573
0.0363289
0.0359577
0.0355453
0.0351002
0.0346361
0.0341729
0.0337375
0.0333635
0.033091
0.032961
0.0330112
0.0332689
0.0337478
0.0344431
0.0353302
0.0363616
0.0374678
0.0385586
0.0395288
0.0402686
0.0406752
0.0406722
0.0402205
0.0393361
0.0380844
0.0365818
0.0349634
0.0333735
0.0319218
0.030692
0.0297083
0.0289757
0.0284519
0.0281075
0.0278822
0.0277565
0.027678
0.0276513
0.0276307
0.027643
0.0276402
0.0276691
0.0276726
0.0277119
0.0383914
0.0384272
0.0384064
0.0383878
0.0383245
0.038263
0.0381777
0.0380965
0.0379991
0.0378969
0.0377726
0.0376296
0.0374561
0.0372521
0.0370085
0.0367215
0.0363833
0.0359902
0.0355393
0.0350332
0.0344829
0.0339118
0.0333563
0.0328611
0.0324759
0.0322472
0.0322158
0.0324098
0.0328432
0.033511
0.0343885
0.0354276
0.0365588
0.0376911
0.0387182
0.039527
0.0400101
0.0400835
0.0396998
0.0388665
0.0376435
0.0361466
0.0345163
0.0329075
0.0314427
0.0302166
0.0292597
0.028577
0.0281204
0.0278513
0.0276988
0.0276357
0.0276047
0.0276116
0.0276111
0.0276361
0.0276371
0.0276711
0.0276729
0.0277266
0.0384029
0.0384415
0.0384155
0.0383922
0.0383257
0.0382657
0.038188
0.0381187
0.0380371
0.0379513
0.0378442
0.0377162
0.0375549
0.0373561
0.0371064
0.0367947
0.0364058
0.0359281
0.0353569
0.0346996
0.0339786
0.0332276
0.0324915
0.0318198
0.0312654
0.0308767
0.0306963
0.030753
0.0310627
0.0316223
0.0324105
0.0333843
0.0344799
0.0356128
0.0366819
0.0375768
0.0381879
0.038424
0.0382248
0.0375815
0.0365379
0.0351972
0.0336943
0.0321858
0.0308017
0.0296465
0.0287591
0.0281497
0.0277708
0.0275817
0.0275062
0.027512
0.0275368
0.0275849
0.0276102
0.0276502
0.027655
0.027691
0.0276876
0.0277497
0.0384532
0.0384904
0.0384573
0.0384235
0.0383491
0.038284
0.0382085
0.0381443
0.0380719
0.0379928
0.0378893
0.0377547
0.0375727
0.0373284
0.0369999
0.0365646
0.0360036
0.0353076
0.0344838
0.0335529
0.0325527
0.0315298
0.0305403
0.0296398
0.0288837
0.0283187
0.0279846
0.0279071
0.028101
0.0285636
0.0292775
0.0302056
0.0312931
0.0324651
0.0336305
0.0346857
0.0355226
0.0360425
0.036169
0.0358685
0.035156
0.0341075
0.0328398
0.0315024
0.0302312
0.0291441
0.0282969
0.0277153
0.027364
0.0272099
0.0271794
0.0272379
0.0273176
0.0274171
0.0274855
0.027559
0.0275865
0.027638
0.027641
0.0277098
0.0385274
0.0385561
0.0385138
0.0384662
0.0383857
0.038317
0.0382472
0.0381887
0.0381239
0.0380441
0.0379292
0.0377596
0.0375102
0.03715
0.0366493
0.0359807
0.0351348
0.034115
0.0329482
0.0316723
0.0303407
0.0290083
0.0277355
0.0265766
0.0255851
0.0248033
0.0242683
0.0240028
0.0240212
0.0243223
0.0248941
0.0257078
0.0267215
0.0278756
0.0290963
0.0302954
0.0313763
0.0322414
0.0328037
0.0330037
0.0328196
0.0322843
0.0314755
0.0305157
0.0295312
0.0286449
0.0279285
0.0274264
0.027121
0.0269939
0.0269832
0.0270615
0.0271648
0.0272898
0.027384
0.027479
0.0275233
0.0275837
0.0275916
0.0276577
0.0386447
0.0386576
0.0386043
0.0385373
0.0384484
0.0383693
0.0382974
0.0382299
0.0381519
0.0380383
0.0378638
0.0375883
0.0371757
0.0365803
0.0357752
0.0347412
0.0334907
0.0320486
0.030465
0.0287933
0.0270995
0.0254437
0.0238891
0.022487
0.0212863
0.0203214
0.019622
0.0192039
0.0190771
0.0192386
0.0196792
0.0203764
0.0213003
0.0224075
0.0236449
0.0249461
0.0262356
0.0274302
0.0284456
0.0292074
0.0296611
0.0297896
0.0296146
0.0292073
0.0286614
0.0280901
0.0275773
0.0271906
0.0269404
0.0268311
0.0268205
0.0268935
0.0269959
0.0271259
0.0272327
0.0273415
0.0274019
0.027471
0.0274871
0.0275468
0.0388055
0.038795
0.038732
0.0386435
0.0385487
0.0384561
0.0383763
0.0382836
0.0381654
0.0379724
0.0376711
0.0371974
0.0365104
0.0355608
0.0343403
0.0328503
0.0311329
0.0292349
0.0272278
0.0251762
0.0231542
0.0212206
0.019435
0.0178394
0.0164736
0.015361
0.0145229
0.0139669
0.0136987
0.0137128
0.0140015
0.0145476
0.0153312
0.0163231
0.0174901
0.0187897
0.0201734
0.0215834
0.0229559
0.024223
0.0253181
0.0261879
0.0267975
0.0271487
0.0272708
0.0272316
0.0271007
0.0269572
0.0268416
0.0267905
0.0267928
0.0268536
0.0269368
0.0270472
0.0271425
0.0272433
0.0273039
0.0273693
0.0273874
0.0274352
0.0390127
0.0389706
0.0388986
0.0387836
0.038679
0.0385595
0.0384511
0.0382968
0.0380854
0.0377359
0.037208
0.0364174
0.0353333
0.0339178
0.0321956
0.0301953
0.0279914
0.0256505
0.0232617
0.0208941
0.0186231
0.0164995
0.0145739
0.0128747
0.0114298
0.0102498
0.00934651
0.00871868
0.00836712
0.00828253
0.00845757
0.00887684
0.00952657
0.0103867
0.0114383
0.0126574
0.0140195
0.0154945
0.017048
0.0186377
0.0202122
0.0217134
0.0230771
0.0242467
0.0251761
0.0258537
0.0262919
0.0265459
0.0266709
0.0267387
0.0267821
0.0268391
0.0269
0.0269811
0.0270528
0.0271334
0.0271844
0.0272395
0.0272565
0.0272921
0.0392723
0.0391923
0.0391156
0.0389716
0.0388542
0.038692
0.0385284
0.0382658
0.0378933
0.0372955
0.0364335
0.0352162
0.0336412
0.0316957
0.029446
0.0269488
0.0243075
0.0216013
0.0189274
0.0163491
0.013934
0.0117169
0.00973495
0.00800028
0.00652954
0.00532214
0.0043833
0.00370584
0.00328819
0.00311919
0.00319236
0.00349377
0.00401358
0.00473696
0.00565322
0.00674932
0.0080163
0.0094441
0.0110239
0.0127425
0.0145793
0.0165
0.0184502
0.0203558
0.0221219
0.0236553
0.0248755
0.0257566
0.0263171
0.0266376
0.0267972
0.0268842
0.0269337
0.0269826
0.0270209
0.0270681
0.0270965
0.0271312
0.0271401
0.0271633
0.0395611
0.0394373
0.0393576
0.0391766
0.0390332
0.038799
0.0385354
0.0380972
0.0374761
0.0365264
0.0352264
0.0334946
0.0313731
0.0288821
0.0261313
0.0232001
0.0202133
0.0172502
0.0144053
0.0117259
0.00926503
0.00703827
0.00506885
0.00335467
0.00190384
0.000707595
-0.000232529
-0.000927365
-0.00137909
-0.00159976
-0.0015947
-0.00137697
-0.000954063
-0.000338457
0.000463
0.00144194
0.00259651
0.00392657
0.00543806
0.00713838
0.00903457
0.0111255
0.0133914
0.0157836
0.018211
0.0205446
0.0226263
0.0243182
0.025536
0.0263015
0.0267053
0.0268885
0.0269547
0.0269811
0.0269866
0.0269971
0.0269974
0.0270082
0.0270058
0.0270197
0.0398776
0.0397078
0.0396279
0.0394019
0.0392155
0.0388741
0.038457
0.037768
0.0368089
0.0354155
0.0336023
0.031313
0.0286445
0.0256498
0.0224768
0.0192165
0.0160011
0.0128966
0.00998422
0.00728819
0.00484478
0.00265084
0.000718927
-0.000963651
-0.00239291
-0.003582
-0.0045296
-0.00524752
-0.0057364
-0.00600766
-0.00606449
-0.0059186
-0.00557525
-0.0050454
-0.00433391
-0.00344759
-0.00238627
-0.00114753
0.000279141
0.00190925
0.00376426
0.00586613
0.00822932
0.0108471
0.0136721
0.0165995
0.0194567
0.022027
0.0240993
0.0255561
0.0264154
0.0268254
0.026968
0.0269941
0.0269728
0.0269454
0.0269138
0.0268974
0.0268804
0.026887
0.0401636
0.0399458
0.0398624
0.0395758
0.0393179
0.0388223
0.0381873
0.0371687
0.0357901
0.0338858
0.0315233
0.0286813
0.0255126
0.022097
0.0186086
0.0151348
0.0118017
0.00865158
0.00574687
0.00308757
0.000695911
-0.001446
-0.00333147
-0.00497954
-0.00638677
-0.00756817
-0.00852078
-0.00925634
-0.0097733
-0.0100822
-0.0101841
-0.0100896
-0.00980196
-0.00933123
-0.00868121
-0.00785844
-0.00686301
-0.00569328
-0.00433967
-0.00278659
-0.00100969
0.00102196
0.00334231
0.00597832
0.00893331
0.0121606
0.0155375
0.018848
0.0218081
0.0241442
0.0257074
0.0265526
0.026887
0.0269589
0.0269277
0.0268681
0.0268065
0.0267641
0.0267322
0.0267339
0.0404025
0.0401384
0.0400467
0.0396832
0.0393217
0.038624
0.0377082
0.0362923
0.0344369
0.0319917
0.0290883
0.025743
0.0221586
0.0184284
0.0147375
0.011155
0.00779059
0.004657
0.0017983
-0.000806774
-0.00314515
-0.00524464
-0.00709988
-0.00873289
-0.0101381
-0.0113307
-0.0123047
-0.013071
-0.0136253
-0.0139769
-0.0141244
-0.014077
-0.0138361
-0.0134104
-0.0128027
-0.0120195
-0.0110616
-0.00992929
-0.00861633
-0.00711107
-0.00539342
-0.00343417
-0.00119538
0.00136535
0.00428555
0.00757452
0.0111856
0.0149705
0.0186667
0.0219157
0.0243874
0.0259282
0.0266573
0.0268668
0.0268579
0.0267761
0.0266875
0.0266201
0.0265734
0.02657
0.0405043
0.0401944
0.0400825
0.0396201
0.0391174
0.0381692
0.0369175
0.0350576
0.0327004
0.0297248
0.0263296
0.0225636
0.018667
0.0147318
0.0109392
0.00732923
0.00399095
0.000908025
-0.00188973
-0.00443952
-0.00673201
-0.00880056
-0.0106379
-0.0122669
-0.0136787
-0.0148879
-0.0158855
-0.0166818
-0.0172699
-0.0176583
-0.0178434
-0.0178333
-0.0176279
-0.0172347
-0.0166555
-0.0158963
-0.0149588
-0.0138442
-0.01255
-0.011069
-0.00938774
-0.00748355
-0.00532404
-0.00286603
-5.84618e-05
0.00314252
0.00675571
0.0107215
0.0148689
0.0188636
0.0222819
0.024735
0.0261211
0.0266446
0.0267191
0.0266367
0.0265272
0.0264355
0.0263752
0.0263649
0.0404476
0.0400953
0.0399503
0.0393699
0.0386923
0.0374563
0.0358319
0.033509
0.0306595
0.027199
0.023389
0.0193006
0.0151965
0.0111519
0.00733343
0.00374724
0.000462333
-0.00256236
-0.00530567
-0.00781536
-0.0100815
-0.0121399
-0.0139795
-0.0156229
-0.0170574
-0.0182968
-0.0193293
-0.0201641
-0.0207923
-0.0212213
-0.0214458
-0.0214725
-0.0212999
-0.0209342
-0.0203764
-0.0196316
-0.0187018
-0.0175889
-0.0162932
-0.014811
-0.0131357
-0.0112521
-0.00913801
-0.00675826
-0.0040643
-0.00100053
0.00249057
0.00642188
0.0107322
0.0151894
0.0193995
0.0228368
0.0251174
0.0262174
0.0265003
0.0264531
0.0263347
0.026216
0.0261421
0.0261204
0.0401337
0.0397405
0.0395461
0.0388292
0.0379481
0.0364004
0.0343889
0.0316148
0.0283145
0.024442
0.0203109
0.016002
0.0117846
0.00770682
0.00391506
0.000382069
-0.00283896
-0.00580786
-0.00850669
-0.0109892
-0.0132421
-0.0153017
-0.0171523
-0.0188159
-0.0202763
-0.0215467
-0.0226129
-0.0234835
-0.0241479
-0.0246128
-0.0248715
-0.0249298
-0.024785
-0.0244419
-0.0239014
-0.023167
-0.0222412
-0.0211256
-0.0198228
-0.0183304
-0.0166476
-0.014765
-0.0126705
-0.0103394
-0.00773412
-0.00480351
-0.0014771
0.00229963
0.00655544
0.0111792
0.0159011
0.0201923
0.0234883
0.0254141
0.0261467
0.02619
0.0260907
0.0259407
0.0258509
0.0258122
0.0395624
0.039133
0.038876
0.0380125
0.0369117
0.0350479
0.032659
0.0294716
0.0257845
0.0215869
0.0172299
0.0127916
0.00853526
0.00447605
0.000739076
-0.00273186
-0.00589405
-0.00882014
-0.0114912
-0.0139639
-0.0162196
-0.0182946
-0.0201683
-0.0218622
-0.0233568
-0.024665
-0.0257702
-0.0266809
-0.0273847
-0.0278874
-0.0281815
-0.0282713
-0.0281535
-0.0278316
-0.0273063
-0.0265794
-0.0256546
-0.0245321
-0.0232165
-0.021706
-0.0200039
-0.0181046
-0.0160048
-0.0136891
-0.0111336
-0.00829937
-0.00512123
-0.00153159
0.0025528
0.00712183
0.0120578
0.0169403
0.0211824
0.0240988
0.0255568
0.0258446
0.0257832
0.0256163
0.0255007
0.0254399
0.0386584
0.0381963
0.0378648
0.0368505
0.0355256
0.0333591
0.0306242
0.027082
0.0230863
0.0186545
0.0141606
0.00966954
0.00542995
0.00142335
-0.00224417
-0.00565156
-0.0087616
-0.0116546
-0.0143081
-0.0167791
-0.019044
-0.021138
-0.0230365
-0.0247605
-0.0262879
-0.0276312
-0.0287725
-0.0297194
-0.0304588
-0.0309954
-0.031321
-0.0314386
-0.031345
-0.0310418
-0.0305302
-0.0298105
-0.0288873
-0.0277593
-0.0264335
-0.0249066
-0.023186
-0.0212669
-0.0191529
-0.0168349
-0.0143017
-0.0115278
-0.00846231
-0.00504393
-0.00116823
0.00321752
0.0081282
0.0133039
0.0182576
0.0221888
0.0245554
0.0253794
0.025372
0.0252247
0.0250714
0.024983
0.0374669
0.0369795
0.0365676
0.035409
0.0338697
0.0314309
0.0283976
0.024571
0.0203485
0.0157679
0.0112119
0.00672573
0.00253839
-0.00139913
-0.00499596
-0.00834733
-0.0114175
-0.0142904
-0.0169386
-0.0194186
-0.0217014
-0.0238214
-0.0257505
-0.0275094
-0.0290737
-0.0304557
-0.0316361
-0.0326219
-0.0333989
-0.0339707
-0.0343288
-0.0344744
-0.0344047
-0.0341191
-0.0336201
-0.0329058
-0.0319831
-0.0308483
-0.0295113
-0.0279671
-0.0262268
-0.0242848
-0.0221502
-0.0198171
-0.0172845
-0.0145385
-0.0115445
-0.00825741
-0.00457443
-0.000418361
0.00432029
0.00952822
0.0149059
0.0196862
0.0230617
0.0246642
0.024874
0.0247292
0.0245699
0.0244302
0.035954
0.0354476
0.034953
0.0336627
0.0319285
0.0292588
0.0259836
0.0219463
0.0175746
0.0129193
0.00836033
0.00392055
-0.00019228
-0.00405226
-0.00757988
-0.0108807
-0.0139179
-0.0167762
-0.0194232
-0.0219137
-0.0242145
-0.026359
-0.0283167
-0.0301074
-0.0317057
-0.033123
-0.0343394
-0.0353606
-0.0361723
-0.0367762
-0.0371641
-0.037335
-0.0372869
-0.037017
-0.0365295
-0.03582
-0.0348981
-0.0337576
-0.0324121
-0.0308537
-0.0290979
-0.0271366
-0.0249842
-0.0226346
-0.0200949
-0.0173583
-0.0144057
-0.01121
-0.00768291
-0.00375004
0.000750459
0.00580922
0.0113401
0.0166875
0.0210544
0.0235277
0.0242848
0.0240833
0.023983
0.023756
0.0342128
0.033698
0.033124
0.0317229
0.0298223
0.0269706
0.0235143
0.019338
0.0148861
0.0102169
0.0056981
0.0013309
-0.00269778
-0.00648084
-0.00994674
-0.0132062
-0.0162202
-0.019072
-0.0217246
-0.0242307
-0.0265539
-0.0287263
-0.0307156
-0.032541
-0.0341762
-0.0356315
-0.0368866
-0.0379454
-0.0387939
-0.0394312
-0.03985
-0.0400463
-0.04002
-0.0397649
-0.039288
-0.0385816
-0.0376593
-0.0365113
-0.0351562
-0.0335828
-0.0318118
-0.0298318
-0.0276625
-0.0252955
-0.0227448
-0.0200064
-0.0170741
-0.0139359
-0.0105234
-0.00677941
-0.00252684
0.00228811
0.00775247
0.0133866
0.0185535
0.0219366
0.0234863
0.023313
0.0232648
0.0229586
0.032244
0.0317295
0.0310821
0.0295924
0.0275566
0.0245721
0.020991
0.0167379
0.0122609
0.00762268
0.00317249
-0.00110677
-0.00504771
-0.00875553
-0.0121645
-0.0153866
-0.0183804
-0.0212262
-0.0238836
-0.0264028
-0.0287455
-0.030942
-0.0329596
-0.034816
-0.0364848
-0.0379747
-0.0392656
-0.0403591
-0.0412417
-0.0419099
-0.0423574
-0.0425769
-0.0425706
-0.0423284
-0.0418611
-0.0411566
-0.0402335
-0.0390778
-0.0377143
-0.0361269
-0.0343435
-0.0323475
-0.0301658
-0.0277851
-0.0252262
-0.0224842
-0.019563
-0.016461
-0.0131299
-0.00953449
-0.00550781
-0.00096704
0.00428316
0.00997227
0.0156399
0.0199227
0.022299
0.0224537
0.0223468
0.0220318
0.0301717
0.0296695
0.0289584
0.0274062
0.0252689
0.0222002
0.0185465
0.0142707
0.00981285
0.0052385
0.000874365
-0.00331047
-0.00716645
-0.0108052
-0.0141655
-0.0173573
-0.020337
-0.0231813
-0.0258471
-0.0283821
-0.0307467
-0.0329695
-0.0350177
-0.0369072
-0.0386122
-0.0401388
-0.0414678
-0.0425978
-0.0435166
-0.0442167
-0.0446942
-0.0449372
-0.0449513
-0.0447214
-0.0442632
-0.0435591
-0.0426343
-0.041469
-0.0400958
-0.0384929
-0.0366966
-0.0346844
-0.0324915
-0.0300984
-0.0275337
-0.0247882
-0.0218746
-0.0187966
-0.0155226
-0.0120404
-0.00820329
-0.00393013
0.00103313
0.00659641
0.0124773
0.0175273
0.0206766
0.0214738
0.0212229
0.0209625
0.028009
0.0275283
0.0267629
0.0251708
0.0229613
0.0198486
0.0161631
0.0119036
0.00749337
0.00300182
-0.00126938
-0.00535916
-0.00913456
-0.0127084
-0.016024
-0.0191865
-0.0221521
-0.0249923
-0.0276635
-0.0302099
-0.0325922
-0.0348367
-0.0369114
-0.0388298
-0.0405672
-0.0421267
-0.0434907
-0.0446538
-0.045606
-0.046335
-0.0468403
-0.0471043
-0.0471372
-0.0469176
-0.0464674
-0.0457624
-0.0448354
-0.0436596
-0.0422771
-0.0406584
-0.0388506
-0.036823
-0.0346217
-0.032219
-0.0296529
-0.0269073
-0.0240035
-0.0209456
-0.0177155
-0.014321
-0.0106367
-0.0066076
-0.00194694
0.00335979
0.00923866
0.0147989
0.0186768
0.0202367
0.0199284
0.0197055
0.0258878
0.0254403
0.0246323
0.0230238
0.0207703
0.0176503
0.0139676
0.00975644
0.00541479
0.00101808
-0.00315853
-0.0071567
-0.0108589
-0.0143751
-0.0176528
-0.0207912
-0.0237469
-0.0265857
-0.0292649
-0.0318244
-0.0342266
-0.0364943
-0.0385975
-0.0405463
-0.042318
-0.0439117
-0.0453124
-0.0465095
-0.0474964
-0.048255
-0.0487889
-0.049074
-0.0491261
-0.0489164
-0.0484744
-0.0477674
-0.0468381
-0.0456505
-0.0442582
-0.0426222
-0.0408025
-0.0387584
-0.0365494
-0.0341373
-0.0315725
-0.028829
-0.0259384
-0.0229004
-0.0197082
-0.0163851
-0.0128233
-0.00900885
-0.00463515
0.000336766
0.00606651
0.0118386
0.0163866
0.0186428
0.0185214
0.0182384
0.0238114
0.0234049
0.0225636
0.0209555
0.0186779
0.0155752
0.0119165
0.00777042
0.00350471
-0.000795946
-0.00488335
-0.00879632
-0.0124324
-0.0158951
-0.0191377
-0.0222513
-0.0251951
-0.0280288
-0.0307116
-0.0332791
-0.0356962
-0.0379817
-0.0401086
-0.0420825
-0.043884
-0.045507
-0.0469401
-0.0481667
-0.0491847
-0.0499689
-0.0505286
-0.0508315
-0.050901
-0.0506988
-0.0502639
-0.0495533
-0.0486215
-0.047421
-0.0460194
-0.0443654
-0.0425348
-0.040474
-0.038259
-0.0358383
-0.0332781
-0.0305393
-0.0276667
-0.0246509
-0.0214971
-0.0182362
-0.0147769
-0.0111477
-0.00703428
-0.00242689
0.00305318
0.00878089
0.0138757
0.0166938
0.0170124
0.0165622
0.0219032
0.0215477
0.0206845
0.0190941
0.0168116
0.0137487
0.010132
0.00606512
0.00188058
-0.00232446
-0.00632891
-0.0101643
-0.013743
-0.0171592
-0.0203726
-0.0234658
-0.0264014
-0.0292323
-0.0319211
-0.0344982
-0.0369319
-0.0392365
-0.0413883
-0.0433881
-0.0452204
-0.0468729
-0.0483392
-0.0495952
-0.0506449
-0.0514541
-0.0520402
-0.0523603
-0.0524476
-0.0522522
-0.0518252
-0.0511104
-0.0501767
-0.0489626
-0.0475523
-0.0458795
-0.0440386
-0.0419601
-0.0397399
-0.0373099
-0.0347564
-0.032023
-0.0291727
-0.0261811
-0.0230691
-0.0198656
-0.0164979
-0.0130277
-0.00914866
-0.00490022
0.000260152
0.0057613
0.0112056
0.0144519
0.0153395
0.0146816
0.020142
0.0198431
0.018966
0.017403
0.0151253
0.0121123
0.00854322
0.00455646
0.000447176
-0.003671
-0.00760383
-0.0113711
-0.0149001
-0.0182737
-0.0214598
-0.0245309
-0.0274555
-0.0302789
-0.0329689
-0.0355495
-0.0379944
-0.0403115
-0.0424827
-0.0445018
-0.0463592
-0.0480349
-0.049529
-0.0508084
-0.0518851
-0.0527142
-0.0533228
-0.0536558
-0.0537584
-0.0535668
-0.0531462
-0.0524252
-0.0514895
-0.0502605
-0.0488423
-0.0471499
-0.0452999
-0.0432029
-0.0409791
-0.0385394
-0.0359947
-0.033267
-0.030443
-0.0274771
-0.0244119
-0.0212635
-0.0179837
-0.0146507
-0.0109847
-0.00706909
-0.00227246
0.00288954
0.00844946
0.0119969
0.0134305
0.0126101
0.0186364
0.0184024
0.0175225
0.0159992
0.0137379
0.0107866
0.00727239
0.00336905
-0.000667849
-0.00470541
-0.00857575
-0.0122838
-0.0157718
-0.0191096
-0.0222741
-0.0253274
-0.0282447
-0.0310632
-0.033757
-0.0363428
-0.0388005
-0.0411309
-0.0433223
-0.0453607
-0.0472436
-0.0489417
-0.0504635
-0.0517651
-0.0528685
-0.0537161
-0.0543472
-0.054692
-0.0548102
-0.0546213
-0.0542082
-0.0534803
-0.052544
-0.0512999
-0.0498754
-0.048163
-0.0463055
-0.0441894
-0.0419634
-0.0395128
-0.0369786
-0.0342557
-0.0314609
-0.0285207
-0.025507
-0.0224122
-0.0192205
-0.0160079
-0.0125383
-0.00892172
-0.00450935
0.000251855
0.00570806
0.00942701
0.0112912
0.0104021
0.0173346
0.0171681
0.016293
0.0148138
0.012572
0.00968319
0.00622027
0.00239289
-0.00158371
-0.00555369
-0.00937499
-0.013034
-0.0164889
-0.0197943
-0.0229384
-0.0259716
-0.0288786
-0.0316868
-0.034379
-0.0369632
-0.0394275
-0.0417639
-0.043969
-0.046019
-0.0479207
-0.0496336
-0.0511769
-0.0524934
-0.053618
-0.0544776
-0.0551267
-0.0554777
-0.0556085
-0.0554181
-0.0550108
-0.0542731
-0.053336
-0.0520748
-0.0506448
-0.0489111
-0.0470474
-0.044911
-0.0426842
-0.040221
-0.0376986
-0.0349785
-0.032215
-0.0292992
-0.0263406
-0.0232973
-0.0201952
-0.0170899
-0.0138032
-0.0104506
-0.00642186
-0.00208667
0.00309704
0.00685705
0.00901614
0.00815002
0.0163329
0.0162398
0.0153815
0.0139566
0.0117429
0.00892293
0.00551452
0.00176248
-0.00215854
-0.0060683
-0.00984943
-0.0134683
-0.016898
-0.0201779
-0.0233073
-0.0263252
-0.0292258
-0.0320269
-0.0347205
-0.0373051
-0.0397779
-0.0421208
-0.0443406
-0.0464017
-0.0483224
-0.0500486
-0.051613
-0.0529424
-0.0540877
-0.0549571
-0.0556241
-0.0559795
-0.0561234
-0.0559302
-0.0555298
-0.0547815
-0.0538454
-0.0525668
-0.0511335
-0.0493781
-0.0475106
-0.0453529
-0.043127
-0.0406495
-0.0381402
-0.0354203
-0.0326892
-0.0297948
-0.0268936
-0.0238987
-0.0208876
-0.0178786
-0.0147635
-0.0116422
-0.0079814
-0.00407192
0.000729895
0.00441092
0.00674552
0.00596389
0.0155457
0.0155253
0.0146917
0.013324
0.0111396
0.00838571
0.00502591
0.00133968
-0.00253844
-0.00640122
-0.0101552
-0.0137435
-0.0171554
-0.0204127
-0.0235283
-0.026528
-0.0294187
-0.0322068
-0.034896
-0.0374735
-0.0399482
-0.0422896
-0.0445171
-0.0465808
-0.0485136
-0.0502447
-0.0518237
-0.0531579
-0.0543181
-0.05519
-0.0558701
-0.0562234
-0.0563769
-0.0561756
-0.0557802
-0.0550174
-0.0540817
-0.0527825
-0.0513464
-0.0495669
-0.0476964
-0.0455149
-0.043291
-0.0407958
-0.0382999
-0.0355757
-0.0328769
-0.0299988
-0.0271551
-0.0242031
-0.0212827
-0.0183592
-0.015405
-0.0124845
-0.00916606
-0.00566303
-0.00130098
0.0022021
0.0046131
0.00394385
0.0150654
0.0151196
0.0143249
0.0130252
0.0108805
0.00819911
0.00489296
0.00127351
-0.00256341
-0.00638418
-0.0101173
-0.0136826
-0.0170838
-0.0203252
-0.0234331
-0.0264199
-0.0293056
-0.0320846
-0.0347733
-0.0373462
-0.0398257
-0.0421665
-0.0444034
-0.0464694
-0.048415
-0.0501495
-0.0517432
-0.0530801
-0.0542552
-0.0551271
-0.0558207
-0.0561698
-0.0563337
-0.0561227
-0.0557339
-0.0549552
-0.0540222
-0.0527016
-0.0512653
-0.0494606
-0.0475896
-0.0453825
-0.0431622
-0.0406463
-0.0381642
-0.035431
-0.0327637
-0.0298954
-0.027108
-0.0241914
-0.0213598
-0.0185107
-0.0157071
-0.0129591
-0.00995352
-0.00682546
-0.0029244
0.000327326
0.00272868
0.00217463
0.0147696
0.0148924
0.0141459
0.0129182
0.0108178
0.0082075
0.00495258
0.00139361
-0.00241075
-0.00619947
-0.00992212
-0.0134722
-0.0168689
-0.0200964
-0.023197
-0.0261676
-0.0290447
-0.0318079
-0.0344905
-0.0370507
-0.0395286
-0.0418604
-0.0441002
-0.0461599
-0.0481121
-0.0498414
-0.051444
-0.0527752
-0.05396
-0.0548242
-0.0555268
-0.0558646
-0.0560358
-0.055809
-0.0554248
-0.054625
-0.0536937
-0.0523472
-0.0509106
-0.0490763
-0.0472051
-0.0449677
-0.0427508
-0.0402084
-0.037739
-0.0349891
-0.0323508
-0.029483
-0.0267482
-0.0238563
-0.0211089
-0.0183205
-0.0156564
-0.0130529
-0.0103291
-0.00753608
-0.0040926
-0.00113944
0.00117465
0.000723308
0.0147586
0.0149459
0.0142633
0.0131209
0.0110817
0.00855289
0.0053607
0.00186894
-0.00189762
-0.00565391
-0.0093677
-0.0129074
-0.0163052
-0.0195255
-0.0226254
-0.0255861
-0.0284607
-0.0312135
-0.0338952
-0.0364466
-0.0389271
-0.0412521
-0.0434981
-0.0455521
-0.0475131
-0.0492366
-0.0508496
-0.0521737
-0.0533694
-0.0542239
-0.054937
-0.0552616
-0.0554418
-0.0551973
-0.05482
-0.0539975
-0.0530707
-0.0516965
-0.0502624
-0.0483963
-0.0465272
-0.0442561
-0.0420441
-0.0394697
-0.0370127
-0.0342383
-0.0316263
-0.0287484
-0.0260616
-0.0231816
-0.0205124
-0.017769
-0.0152331
-0.012747
-0.0102753
-0.00777347
-0.0047695
-0.00213875
1.86327e-05
-0.000349961
0.0148668
0.0151056
0.0144977
0.0134466
0.0114809
0.00903786
0.00591405
0.00249077
-0.00123838
-0.00496532
-0.00867526
-0.0122086
-0.0156117
-0.0188253
-0.0219246
-0.0248714
-0.0277401
-0.0304753
-0.0331512
-0.0356855
-0.0381635
-0.0404734
-0.0427206
-0.0447607
-0.0467261
-0.0484357
-0.0500551
-0.0513641
-0.0525674
-0.0534044
-0.0541252
-0.0544291
-0.0546162
-0.0543471
-0.0539752
-0.0531235
-0.0522003
-0.050792
-0.04936
-0.0474554
-0.0455878
-0.0432753
-0.0410668
-0.0384512
-0.0360037
-0.0331932
-0.0306028
-0.0277002
-0.0250546
-0.0221696
-0.0195699
-0.0168521
-0.0144315
-0.0120339
-0.00978507
-0.00752733
-0.0049343
-0.00262809
-0.000685484
-0.000993328
0.01522
0.0154994
0.0149808
0.0140362
0.0121693
0.00982944
0.00679476
0.00345528
-0.000221321
-0.00391023
-0.00761081
-0.0111381
-0.0145496
-0.0177626
-0.0208686
-0.0238093
-0.0266804
-0.0294053
-0.032083
-0.0346062
-0.0370883
-0.0393872
-0.0416414
-0.04367
-0.0456445
-0.0473413
-0.0489711
-0.0502649
-0.051479
-0.0522979
-0.0530295
-0.0533115
-0.0535088
-0.0532134
-0.0528505
-0.0519676
-0.0510516
-0.0496065
-0.0481798
-0.046233
-0.0443694
-0.0420099
-0.0398058
-0.0371407
-0.0347016
-0.0318431
-0.0292702
-0.0263275
-0.0237159
-0.020807
-0.0182675
-0.0155534
-0.0132353
-0.0108971
-0.00884462
-0.00678336
-0.00456726
-0.00256992
-0.000885378
-0.00115221
0.0155992
0.015901
0.01548
0.0146498
0.0129028
0.0106791
0.00774993
0.00450679
0.000894098
-0.00274874
-0.00643622
-0.00995468
-0.0133749
-0.016585
-0.0196973
-0.0226271
-0.0254981
-0.0282056
-0.030882
-0.0333862
-0.0358696
-0.0381499
-0.0404089
-0.042419
-0.0444012
-0.0460781
-0.0477173
-0.0489889
-0.0502134
-0.0510067
-0.0517488
-0.0520014
-0.0522088
-0.0518794
-0.0515255
-0.0506033
-0.0496946
-0.0482042
-0.0467825
-0.0447838
-0.0429233
-0.0405056
-0.0383038
-0.0355758
-0.0331409
-0.0302178
-0.0276559
-0.0246528
-0.0220662
-0.0191096
-0.0166189
-0.0138822
-0.0116524
-0.00934083
-0.0074587
-0.00554372
-0.0036645
-0.00194259
-0.00053992
-0.000780321
0.016183
0.0164942
0.0161765
0.0154745
0.0138771
0.011795
0.00900084
0.00587935
0.00235691
-0.0012202
-0.00487934
-0.00838206
-0.0118097
-0.0150213
-0.018148
-0.0210763
-0.0239586
-0.026659
-0.0293454
-0.0318394
-0.0343345
-0.0366031
-0.0388763
-0.0408728
-0.0428709
-0.0445312
-0.0461871
-0.0474383
-0.0486795
-0.049448
-0.0502065
-0.0504295
-0.0506524
-0.050288
-0.0499482
-0.0489847
-0.0480881
-0.046549
-0.0451366
-0.0430807
-0.0412262
-0.0387424
-0.0365439
-0.0337412
-0.0313089
-0.0283052
-0.0257493
-0.0226646
-0.0200945
-0.0170647
-0.014612
-0.0118239
-0.0096692
-0.00735081
-0.00561643
-0.0037983
-0.00221544
-0.0007231
0.000394304
0.000173726
0.0166832
0.0169878
0.0167709
0.0162043
0.0147801
0.0128637
0.0102313
0.00725804
0.00385121
0.000363768
-0.00325034
-0.00672259
-0.0101512
-0.0133563
-0.0164958
-0.0194167
-0.02231
-0.0249969
-0.0276933
-0.0301707
-0.0326785
-0.0349295
-0.037219
-0.0391963
-0.0412132
-0.0428516
-0.0445274
-0.0457523
-0.0470136
-0.0477507
-0.0485286
-0.0487145
-0.0489557
-0.0485478
-0.0482246
-0.0472102
-0.0463274
-0.0447287
-0.0433264
-0.0412006
-0.039352
-0.0367867
-0.0345897
-0.0316939
-0.02926
-0.0261531
-0.0235963
-0.0204033
-0.0178402
-0.0147063
-0.0122802
-0.00940693
-0.00731444
-0.00495098
-0.00334294
-0.00156793
-0.000237551
0.00108645
0.00193882
0.00174129
0.0173713
0.0176628
0.017534
0.0171089
0.0158791
0.0141582
0.0117214
0.00893091
0.00567587
0.00231029
-0.00123167
-0.00465594
-0.00807715
-0.0112761
-0.0144361
-0.0173605
-0.02028
-0.0229674
-0.0256906
-0.0281643
-0.0307004
-0.0329444
-0.0352642
-0.0372307
-0.039279
-0.0409014
-0.0426084
-0.0438112
-0.0451026
-0.0458109
-0.0466173
-0.0467672
-0.047035
-0.0465832
-0.0462841
-0.0452169
-0.0443549
-0.0426925
-0.0413064
-0.0391039
-0.0372655
-0.0346085
-0.0324149
-0.029411
-0.0269743
-0.0237434
-0.0211807
-0.0178522
-0.0152878
-0.0120171
-0.00960764
-0.00661257
-0.00457213
-0.00212376
-0.000626938
0.00115723
0.00227219
0.00349477
0.00411918
0.00395894
0.0178603
0.0181306
0.0180745
0.0177919
0.0167721
0.0152781
0.0130717
0.0105058
0.00744265
0.00424309
0.000807313
-0.00253576
-0.00593132
-0.0091057
-0.0122814
-0.0152005
-0.0181487
-0.0208316
-0.0235873
-0.0260536
-0.0286253
-0.0308589
-0.0332173
-0.0351697
-0.0372581
-0.0388608
-0.0406078
-0.0417837
-0.0431134
-0.0437867
-0.0446292
-0.044735
-0.0450362
-0.0445308
-0.0442618
-0.04313
-0.0422936
-0.0405536
-0.0391874
-0.0368917
-0.0350656
-0.032297
-0.030107
-0.0269708
-0.0245291
-0.0211452
-0.018572
-0.015074
-0.0125018
-0.00905587
-0.00665628
-0.00349783
-0.00150357
0.00107568
0.00247207
0.00432567
0.00526137
0.0064649
0.00691721
0.00682126
0.018567
0.0188174
0.0188085
0.0186556
0.0178438
0.0165984
0.014652
0.0123494
0.00952005
0.00653001
0.00323956
8.7853e-06
-0.00334249
-0.00648451
-0.00968083
-0.0126051
-0.0156011
-0.0182977
-0.0211093
-0.0235866
-0.0262166
-0.0284554
-0.0308727
-0.0328232
-0.0349697
-0.0365621
-0.0383648
-0.0395207
-0.0409028
-0.0415457
-0.0424368
-0.0425015
-0.0428474
-0.0422892
-0.0420606
-0.0408628
-0.0400615
-0.03824
-0.0369018
-0.0345055
-0.0326982
-0.0298059
-0.0276234
-0.0243369
-0.0218907
-0.0183284
-0.0157413
-0.0120403
-0.00945431
-0.00579232
-0.00339654
-2.87164e-05
0.00192206
0.0046816
0.00597858
0.00796052
0.00873488
0.0099991
0.0103334
0.0103395
0.0189521
0.0191775
0.0192022
0.0191668
0.0185656
0.0175963
0.0159488
0.0139656
0.011425
0.00871167
0.00562122
0.00256134
-0.000709883
-0.00378336
-0.00698852
-0.00990226
-0.0129511
-0.0156573
-0.0185384
-0.0210268
-0.0237317
-0.0259765
-0.0284698
-0.0304182
-0.0326394
-0.0342194
-0.0360935
-0.0372251
-0.0386742
-0.0392798
-0.0402329
-0.0402467
-0.0406495
-0.0400261
-0.0398489
-0.0385699
-0.0378137
-0.0358922
-0.0345908
-0.032072
-0.0302908
-0.0272488
-0.0250792
-0.0216116
-0.019164
-0.0153871
-0.012788
-0.00884246
-0.00624473
-0.00232049
6.61823e-05
0.00369378
0.00559081
0.00858797
0.00977542
0.0119602
0.0125851
0.0140136
0.0142908
0.0144534
0.0196456
0.0198505
0.0198864
0.0199341
0.0195097
0.0188087
0.017471
0.0158393
0.0136275
0.0112403
0.00839699
0.00555231
0.0023914
-0.000593764
-0.00380631
-0.00671566
-0.00983827
-0.0125748
-0.0155558
-0.0180796
-0.0208904
-0.0231629
-0.0257603
-0.0277241
-0.0300441
-0.0316252
-0.0335915
-0.034709
-0.036243
-0.0368188
-0.0378497
-0.0378178
-0.0382917
-0.0376057
-0.037493
-0.036133
-0.0354336
-0.0334094
-0.0321552
-0.0295073
-0.0277607
-0.0245572
-0.0224066
-0.0187388
-0.016293
-0.0122736
-0.00966229