/*--------------------------------*- C++ -*----------------------------------*\
| =========                 |                                                 |
| \\      /  F ield         | OpenFOAM: The Open Source CFD Toolbox           |
|  \\    /   O peration     | Version:  2406                                  |
|   \\  /    A nd           | Website:  www.openfoam.com                      |
|    \\/     M anipulation  |                                                 |
\*---------------------------------------------------------------------------*/
FoamFile
{
    version     2.0;
    format      ascii;
    arch        "LSB;label=32;scalar=64";
    class       volVectorField;
    location    "37";
    object      Uold;
}
// * * * * * * * * * * * * * * * * * * * * * * * * * * * * * * * * * * * * * //

dimensions      [0 1 -1 0 0 0 0];

internalField   nonuniform List<vector> 
3600
(
(1.5767e-05 -2.30741e-05 0)
(0.000474254 -0.000238782 0)
(0.00138992 -0.000345028 0)
(0.0023859 -0.000357614 0)
(0.0033304 -0.00029306 0)
(0.00402776 -0.000207105 0)
(0.00450089 -0.000126105 0)
(0.00474758 -7.19439e-05 0)
(0.00485565 -4.38103e-05 0)
(0.00485742 -3.40098e-05 0)
(0.00478522 -2.74902e-05 0)
(0.00461153 -1.16613e-05 0)
(0.00429213 2.29093e-05 0)
(0.00375208 8.07346e-05 0)
(0.00291275 0.000164032 0)
(0.00168665 0.000274168 0)
(-9.95739e-06 0.000412826 0)
(-0.00225775 0.000579124 0)
(-0.005126 0.000765974 0)
(-0.00866929 0.000962547 0)
(-0.0129155 0.00116353 0)
(-0.0178505 0.00137329 0)
(-0.0234005 0.00159672 0)
(-0.0294194 0.00182333 0)
(-0.0356825 0.00201921 0)
(-0.0418912 0.00213382 0)
(-0.0476912 0.00211592 0)
(-0.0527008 0.00192814 0)
(-0.0565439 0.00155457 0)
(-0.058881 0.00100172 0)
(-0.0594356 0.00029586 0)
(-0.0580154 -0.000520656 0)
(-0.0545297 -0.00139288 0)
(-0.0490037 -0.00225647 0)
(-0.0415892 -0.00304123 0)
(-0.0325707 -0.00367561 0)
(-0.0223629 -0.00409298 0)
(-0.0114965 -0.00423958 0)
(-0.000589671 -0.00408383 0)
(0.00969961 -0.00362531 0)
(0.0187343 -0.0029012 0)
(0.0259722 -0.00198745 0)
(0.0310334 -0.000991347 0)
(0.0337593 -3.59067e-05 0)
(0.0342307 0.000764688 0)
(0.0327588 0.0013296 0)
(0.0298173 0.00163154 0)
(0.0259642 0.00169718 0)
(0.0217293 0.00159258 0)
(0.0175543 0.00139224 0)
(0.0137277 0.0011592 0)
(0.0104179 0.00093125 0)
(0.00765797 0.000730348 0)
(0.00544005 0.000561888 0)
(0.00367232 0.000431193 0)
(0.00230669 0.000327612 0)
(0.00123339 0.000246401 0)
(0.000475404 0.000149162 0)
(4.16963e-06 3.90939e-05 0)
(-8.11371e-05 -8.51743e-05 0)
(0.000212144 -0.000460745 0)
(0.001364 -0.00139706 0)
(0.00324853 -0.00183192 0)
(0.00519715 -0.0018413 0)
(0.00698585 -0.00151774 0)
(0.00826849 -0.00106079 0)
(0.0090395 -0.000598053 0)
(0.00926092 -0.00021661 0)
(0.00903036 7.60862e-05 0)
(0.00836081 0.000318556 0)
(0.00725115 0.00057827 0)
(0.00559781 0.000920557 0)
(0.00325667 0.00139436 0)
(2.94221e-05 0.00202744 0)
(-0.00428908 0.00283025 0)
(-0.00990472 0.00379872 0)
(-0.0169904 0.00491424 0)
(-0.0256675 0.00614552 0)
(-0.0359619 0.00745155 0)
(-0.0477613 0.0087753 0)
(-0.0607799 0.0100281 0)
(-0.0745634 0.0110847 0)
(-0.0885286 0.0118018 0)
(-0.102031 0.0120479 0)
(-0.114433 0.0117266 0)
(-0.125168 0.0107878 0)
(-0.133762 0.00922897 0)
(-0.139855 0.00709031 0)
(-0.143187 0.00444683 0)
(-0.143592 0.00140063 0)
(-0.140992 -0.0019249 0)
(-0.135384 -0.00538844 0)
(-0.126849 -0.00883239 0)
(-0.115554 -0.0120843 0)
(-0.101757 -0.0149601 0)
(-0.0858241 -0.017271 0)
(-0.0682301 -0.0188364 0)
(-0.0495601 -0.0195012 0)
(-0.0304983 -0.0191604 0)
(-0.0117997 -0.0177824 0)
(0.00575093 -0.0154308 0)
(0.0213994 -0.0122741 0)
(0.0344824 -0.00857841 0)
(0.0444984 -0.00468168 0)
(0.0511513 -0.000947437 0)
(0.0543994 0.00228851 0)
(0.0544505 0.0047763 0)
(0.0517684 0.00638868 0)
(0.0469944 0.00714131 0)
(0.0408944 0.00716643 0)
(0.0342016 0.00667284 0)
(0.0275669 0.0058761 0)
(0.0214166 0.00496648 0)
(0.0160352 0.00406948 0)
(0.0114677 0.00327109 0)
(0.00774642 0.00258039 0)
(0.00472993 0.00199002 0)
(0.00246656 0.0013818 0)
(0.000846633 0.000742609 0)
(8.37488e-05 2.81886e-05 0)
(0.000329762 -0.0013505 0)
(0.00188316 -0.00330514 0)
(0.0042793 -0.00414851 0)
(0.00660558 -0.00404298 0)
(0.00859262 -0.00324648 0)
(0.00981973 -0.00212677 0)
(0.0102656 -0.000959496 0)
(0.00985312 9.70045e-05 0)
(0.0086369 0.00102825 0)
(0.00655552 0.0019297 0)
(0.00351183 0.00294919 0)
(-0.000713105 0.00423285 0)
(-0.00638054 0.00588431 0)
(-0.0137922 0.00795597 0)
(-0.0232211 0.010448 0)
(-0.0348776 0.0133128 0)
(-0.0488289 0.0164506 0)
(-0.0649279 0.0196969 0)
(-0.0827593 0.0228054 0)
(-0.101667 0.0254673 0)
(-0.120846 0.0273736 0)
(-0.139476 0.0282839 0)
(-0.156824 0.0280621 0)
(-0.172302 0.0266754 0)
(-0.185483 0.0241698 0)
(-0.196078 0.0206427 0)
(-0.203905 0.016221 0)
(-0.20886 0.0110478 0)
(-0.210888 0.00527606 0)
(-0.209965 -0.000931781 0)
(-0.206091 -0.00740136 0)
(-0.199286 -0.0139412 0)
(-0.1896 -0.020337 0)
(-0.177125 -0.0263477 0)
(-0.162013 -0.0317054 0)
(-0.1445 -0.0361224 0)
(-0.12492 -0.0393071 0)
(-0.103726 -0.0409918 0)
(-0.0814943 -0.0409686 0)
(-0.0589086 -0.0391316 0)
(-0.0367351 -0.0355148 0)
(-0.0157682 -0.0303152 0)
(0.00322907 -0.0238926 0)
(0.019595 -0.0167373 0)
(0.0328148 -0.00941324 0)
(0.0425681 -0.00248884 0)
(0.0487297 0.00353509 0)
(0.0514058 0.0082792 0)
(0.0509078 0.0115349 0)
(0.047785 0.0132804 0)
(0.0427221 0.0136841 0)
(0.0365167 0.0130481 0)
(0.0298682 0.0117461 0)
(0.0233998 0.0101218 0)
(0.0174446 0.00845392 0)
(0.0122782 0.00687951 0)
(0.0078726 0.00543971 0)
(0.00439748 0.00398506 0)
(0.00172035 0.00243337 0)
(0.000271141 0.00065466 0)
(0.000401726 -0.00241658 0)
(0.00215958 -0.00545032 0)
(0.00470126 -0.00658663 0)
(0.00693239 -0.0061507 0)
(0.00856081 -0.00464706 0)
(0.00914225 -0.0026189 0)
(0.00865166 -0.000481433 0)
(0.00696539 0.00157021 0)
(0.00405258 0.0035483 0)
(-0.000274825 0.00563457 0)
(-0.00625887 0.00806929 0)
(-0.0142532 0.0110705 0)
(-0.024609 0.0147633 0)
(-0.0376354 0.019166 0)
(-0.0534784 0.0241785 0)
(-0.0720316 0.0295705 0)
(-0.0928449 0.0349624 0)
(-0.115152 0.0398609 0)
(-0.137997 0.043764 0)
(-0.160429 0.046282 0)
(-0.181648 0.047199 0)
(-0.201069 0.0464647 0)
(-0.218309 0.0441483 0)
(-0.233148 0.0403885 0)
(-0.24547 0.0353538 0)
(-0.255225 0.0292191 0)
(-0.262394 0.0221535 0)
(-0.266969 0.0143183 0)
(-0.268937 0.00586984 0)
(-0.268275 -0.00303265 0)
(-0.264947 -0.0122173 0)
(-0.258913 -0.0214881 0)
(-0.250129 -0.0306127 0)
(-0.238569 -0.0393138 0)
(-0.224244 -0.0472637 0)
(-0.207225 -0.0540895 0)
(-0.187675 -0.0593894 0)
(-0.165881 -0.0627661 0)
(-0.142279 -0.0638756 0)
(-0.117465 -0.0624874 0)
(-0.0921807 -0.0585472 0)
(-0.0672745 -0.0522217 0)
(-0.0436239 -0.0439119 0)
(-0.0220424 -0.0342174 0)
(-0.00319933 -0.0238607 0)
(0.0124416 -0.0135885 0)
(0.0246129 -0.00408297 0)
(0.0332409 0.0040944 0)
(0.0383922 0.0105422 0)
(0.040321 0.0150383 0)
(0.039425 0.0175733 0)
(0.0363148 0.0183435 0)
(0.0316497 0.0177257 0)
(0.0261795 0.0161769 0)
(0.0204492 0.0141488 0)
(0.0150008 0.0119602 0)
(0.0100031 0.00976688 0)
(0.00582904 0.00746533 0)
(0.00241088 0.00487664 0)
(0.000425284 0.00172006 0)
(0.000438954 -0.0036378 0)
(0.00223336 -0.00773324 0)
(0.00460925 -0.00896035 0)
(0.00634562 -0.00789227 0)
(0.00713308 -0.00536274 0)
(0.00653714 -0.00209835 0)
(0.00452235 0.0013633 0)
(0.000906275 0.00484117 0)
(-0.00446299 0.00841949 0)
(-0.0119238 0.0123945 0)
(-0.0218582 0.0170877 0)
(-0.034685 0.0227352 0)
(-0.0506887 0.0293816 0)
(-0.0699161 0.0368525 0)
(-0.0920285 0.0447279 0)
(-0.116283 0.0523802 0)
(-0.141641 0.059094 0)
(-0.16701 0.0642499 0)
(-0.191454 0.0674483 0)
(-0.214297 0.0685299 0)
(-0.235119 0.0675227 0)
(-0.253693 0.0645728 0)
(-0.269919 0.0598842 0)
(-0.283774 0.0536785 0)
(-0.295274 0.0461699 0)
(-0.304453 0.0375538 0)
(-0.311344 0.0280038 0)
(-0.315975 0.0176749 0)
(-0.318356 0.00671124 0)
(-0.318475 -0.00474365 0)
(-0.316292 -0.0165339 0)
(-0.311737 -0.0284758 0)
(-0.304709 -0.0403418 0)
(-0.295087 -0.0518448 0)
(-0.282741 -0.0626258 0)
(-0.267556 -0.0722504 0)
(-0.249475 -0.0802186 0)
(-0.228539 -0.0859948 0)
(-0.204945 -0.0890619 0)
(-0.179097 -0.0889987 0)
(-0.151634 -0.0855723 0)
(-0.12343 -0.0788249 0)
(-0.0955268 -0.069128 0)
(-0.0690149 -0.0571704 0)
(-0.0448821 -0.0438697 0)
(-0.0238627 -0.0302207 0)
(-0.00637802 -0.0171418 0)
(0.00744843 -0.00537415 0)
(0.0176664 0.00454522 0)
(0.024457 0.0122661 0)
(0.0280563 0.0176302 0)
(0.0288634 0.0206835 0)
(0.0273502 0.0216929 0)
(0.0241797 0.0210983 0)
(0.019923 0.0194202 0)
(0.0152615 0.017121 0)
(0.0105307 0.0144738 0)
(0.00630891 0.0114662 0)
(0.00266323 0.00781844 0)
(0.000479338 0.00308027 0)
(0.000457454 -0.00486272 0)
(0.00212297 -0.00979943 0)
(0.00399123 -0.0107688 0)
(0.00480971 -0.00868099 0)
(0.0042656 -0.00476369 0)
(0.00196832 8.81029e-05 0)
(-0.00215477 0.00526497 0)
(-0.00836837 0.0106682 0)
(-0.0169751 0.0164952 0)
(-0.0284414 0.0231448 0)
(-0.0431927 0.0309352 0)
(-0.0615056 0.0399646 0)
(-0.08329 0.049976 0)
(-0.108 0.0603661 0)
(-0.134646 0.0702746 0)
(-0.162019 0.0788115 0)
(-0.188972 0.0852784 0)
(-0.214621 0.0892847 0)
(-0.238383 0.0907232 0)
(-0.259933 0.0896901 0)
(-0.27912 0.0863962 0)
(-0.29591 0.0811052 0)
(-0.310338 0.07409 0)
(-0.322484 0.0656105 0)
(-0.332454 0.0558991 0)
(-0.340366 0.0451568 0)
(-0.346337 0.0335517 0)
(-0.350472 0.0212239 0)
(-0.352851 0.00829206 0)
(-0.353519 -0.00513487 0)
(-0.352476 -0.0189437 0)
(-0.349664 -0.0329987 0)
(-0.344965 -0.0471217 0)
(-0.338193 -0.0610687 0)
(-0.329103 -0.0745089 0)
(-0.317397 -0.0870067 0)
(-0.302764 -0.0980166 0)
(-0.284924 -0.106897 0)
(-0.263706 -0.112953 0)
(-0.239133 -0.115517 0)
(-0.211523 -0.114059 0)
(-0.181554 -0.108324 0)
(-0.150281 -0.0984614 0)
(-0.119058 -0.0850857 0)
(-0.0893539 -0.0692466 0)
(-0.0624848 -0.0522562 0)
(-0.0393676 -0.0354335 0)
(-0.0203899 -0.0198624 0)
(-0.00551051 -0.00628307 0)
(0.00556612 0.00486951 0)
(0.0131631 0.0133825 0)
(0.0176543 0.0192167 0)
(0.0193984 0.0225222 0)
(0.0189253 0.023646 0)
(0.0167283 0.0230702 0)
(0.0134969 0.0213081 0)
(0.00965841 0.0186955 0)
(0.00592898 0.0152992 0)
(0.00252916 0.0107485 0)
(0.000452577 0.00445403 0)
(0.000441609 -0.0060442 0)
(0.00176808 -0.0114506 0)
(0.00275422 -0.0117089 0)
(0.00223321 -0.00815678 0)
(-0.000104579 -0.00244659 0)
(-0.00458554 0.00440258 0)
(-0.0113612 0.0117782 0)
(-0.0207886 0.019721 0)
(-0.0332993 0.0285369 0)
(-0.0493636 0.0386307 0)
(-0.0692256 0.0501254 0)
(-0.0927171 0.0627298 0)
(-0.119126 0.0756748 0)
(-0.147299 0.0879106 0)
(-0.175906 0.0983848 0)
(-0.203767 0.106325 0)
(-0.230012 0.111328 0)
(-0.254096 0.113321 0)
(-0.275724 0.112444 0)
(-0.294777 0.108965 0)
(-0.311258 0.103204 0)
(-0.325257 0.0954995 0)
(-0.336924 0.0861776 0)
(-0.346456 0.0755326 0)
(-0.354067 0.0638164 0)
(-0.359977 0.0512342 0)
(-0.364393 0.0379441 0)
(-0.367499 0.0240626 0)
(-0.369441 0.00967367 0)
(-0.370321 -0.00515945 0)
(-0.370188 -0.0203797 0)
(-0.369026 -0.0359179 0)
(-0.366744 -0.0516718 0)
(-0.363161 -0.0674806 0)
(-0.357992 -0.0830964 0)
(-0.350848 -0.0981548 0)
(-0.341237 -0.11215 0)
(-0.3286 -0.124421 0)
(-0.31237 -0.134168 0)
(-0.292075 -0.140505 0)
(-0.267479 -0.142561 0)
(-0.238733 -0.139642 0)
(-0.20652 -0.131425 0)
(-0.172108 -0.11814 0)
(-0.137272 -0.100679 0)
(-0.104026 -0.0805354 0)
(-0.0742017 -0.0595344 0)
(-0.0490135 -0.0394109 0)
(-0.0288627 -0.0214406 0)
(-0.0134557 -0.00631867 0)
(-0.00221916 0.00570673 0)
(0.00546082 0.0146308 0)
(0.0100578 0.020598 0)
(0.0120854 0.0238994 0)
(0.0119825 0.0249475 0)
(0.0103889 0.0242335 0)
(0.00776452 0.0220884 0)
(0.00487813 0.0186133 0)
(0.00207958 0.0133671 0)
(0.000358022 0.00567691 0)
(0.000373462 -0.00700593 0)
(0.00109569 -0.0123001 0)
(0.000783174 -0.0112967 0)
(-0.00149629 -0.00581079 0)
(-0.00606008 0.00210637 0)
(-0.0131581 0.0113875 0)
(-0.0230607 0.0214894 0)
(-0.036183 0.0326013 0)
(-0.0529803 0.0450407 0)
(-0.0736993 0.05901 0)
(-0.0981355 0.0741811 0)
(-0.125491 0.0896988 0)
(-0.154503 0.104334 0)
(-0.18375 0.116885 0)
(-0.211992 0.126468 0)
(-0.23833 0.132644 0)
(-0.262199 0.135339 0)
(-0.283296 0.134729 0)
(-0.301514 0.131135 0)
(-0.31689 0.124958 0)
(-0.329582 0.11662 0)
(-0.33983 0.106536 0)
(-0.347928 0.095081 0)
(-0.354189 0.0825728 0)
(-0.358926 0.0692653 0)
(-0.362428 0.055348 0)
(-0.364949 0.0409501 0)
(-0.366706 0.0261514 0)
(-0.367873 0.0109923 0)
(-0.368583 -0.00451292 0)
(-0.368921 -0.0203644 0)
(-0.368923 -0.036561 0)
(-0.368559 -0.0530836 0)
(-0.367719 -0.0698724 0)
(-0.366187 -0.0867999 0)
(-0.363614 -0.103635 0)
(-0.359494 -0.120003 0)
(-0.353158 -0.135349 0)
(-0.343787 -0.148909 0)
(-0.330486 -0.159714 0)
(-0.312407 -0.166646 0)
(-0.288946 -0.168564 0)
(-0.259986 -0.164518 0)
(-0.226127 -0.154017 0)
(-0.188834 -0.137312 0)
(-0.150374 -0.115576 0)
(-0.113463 -0.0908368 0)
(-0.0806259 -0.065578 0)
(-0.0535127 -0.0420797 0)
(-0.0325242 -0.0218425 0)
(-0.0170891 -0.00545445 0)
(-0.00622114 0.00710291 0)
(0.000943034 0.0161074 0)
(0.00513824 0.021924 0)
(0.00689538 0.0249608 0)
(0.00684701 0.0256734 0)
(0.00547948 0.0243524 0)
(0.00355435 0.0210871 0)
(0.00151126 0.0153969 0)
(0.000244046 0.00659693 0)
(0.000226684 -0.00758441 0)
(3.39847e-05 -0.0120198 0)
(-0.00199098 -0.00916686 0)
(-0.0063936 -0.00129646 0)
(-0.0135341 0.00923508 0)
(-0.0235764 0.0213983 0)
(-0.0369198 0.0347573 0)
(-0.0539303 0.0495666 0)
(-0.0749032 0.0659554 0)
(-0.0996201 0.0836685 0)
(-0.127298 0.101772 0)
(-0.156603 0.118923 0)
(-0.186049 0.133732 0)
(-0.214301 0.145178 0)
(-0.240396 0.152727 0)
(-0.263711 0.156283 0)
(-0.283923 0.156041 0)
(-0.300928 0.152387 0)
(-0.314816 0.14581 0)
(-0.325824 0.13684 0)
(-0.334293 0.125997 0)
(-0.340614 0.11375 0)
(-0.345193 0.100491 0)
(-0.348409 0.0865259 0)
(-0.350601 0.0720772 0)
(-0.352053 0.0572923 0)
(-0.352999 0.0422561 0)
(-0.353625 0.0270059 0)
(-0.354081 0.0115436 0)
(-0.354483 -0.0041526 0)
(-0.354923 -0.0201191 0)
(-0.355468 -0.0363971 0)
(-0.35615 -0.0530234 0)
(-0.356954 -0.0700159 0)
(-0.357796 -0.0873554 0)
(-0.35848 -0.104956 0)
(-0.35866 -0.122624 0)
(-0.357788 -0.140008 0)
(-0.355077 -0.156541 0)
(-0.349497 -0.171381 0)
(-0.339828 -0.183403 0)
(-0.324807 -0.19123 0)
(-0.303376 -0.193386 0)
(-0.275022 -0.188555 0)
(-0.240153 -0.175964 0)
(-0.200369 -0.155798 0)
(-0.158467 -0.129512 0)
(-0.117994 -0.0997886 0)
(-0.0823441 -0.0699678 0)
(-0.0536699 -0.0430267 0)
(-0.0323555 -0.0206946 0)
(-0.0173959 -0.00336232 0)
(-0.00740586 0.0093728 0)
(-0.0011466 0.0181147 0)
(0.0022467 0.0234319 0)
(0.00354053 0.0258225 0)
(0.00330484 0.0255648 0)
(0.00228442 0.0227238 0)
(0.000975542 0.0168236 0)
(0.000141821 0.00722249 0)
(-1.99191e-05 -0.00752246 0)
(-0.00145613 -0.0101973 0)
(-0.00556776 -0.00491355 0)
(-0.012376 0.00574179 0)
(-0.022336 0.0192619 0)
(-0.0354977 0.0347166 0)
(-0.0523473 0.0517423 0)
(-0.0730325 0.070476 0)
(-0.0975037 0.0906203 0)
(-0.124957 0.111304 0)
(-0.154129 0.131058 0)
(-0.183429 0.148331 0)
(-0.211455 0.16189 0)
(-0.237117 0.171069 0)
(-0.259739 0.1757 0)
(-0.278942 0.17599 0)
(-0.294646 0.172386 0)
(-0.306987 0.165486 0)
(-0.316299 0.155944 0)
(-0.323019 0.144403 0)
(-0.327643 0.131433 0)
(-0.330651 0.117507 0)
(-0.332479 0.102979 0)
(-0.333488 0.0881014 0)
(-0.333967 0.0730304 0)
(-0.334131 0.0578534 0)
(-0.334142 0.0426032 0)
(-0.334118 0.0272779 0)
(-0.334153 0.0118505 0)
(-0.334322 -0.00371995 0)
(-0.334698 -0.0194845 0)
(-0.335348 -0.0354984 0)
(-0.33634 -0.05182 0)
(-0.337727 -0.0685045 0)
(-0.33954 -0.0855973 0)
(-0.341753 -0.103117 0)
(-0.34424 -0.121031 0)
(-0.346719 -0.139208 0)
(-0.348676 -0.157354 0)
(-0.34929 -0.174931 0)
(-0.347396 -0.191065 0)
(-0.341497 -0.204491 0)
(-0.329911 -0.213561 0)
(-0.311062 -0.216389 0)
(-0.283938 -0.211178 0)
(-0.248622 -0.196728 0)
(-0.206771 -0.17306 0)
(-0.161729 -0.141926 0)
(-0.118008 -0.106836 0)
(-0.0800009 -0.072243 0)
(-0.0504005 -0.0419625 0)
(-0.0293891 -0.0179012 0)
(-0.0154515 -6.01079e-05 0)
(-0.00668841 0.0124151 0)
(-0.00161917 0.0204664 0)
(0.000886212 0.0248083 0)
(0.00160955 0.0258223 0)
(0.00133223 0.023593 0)
(0.000603051 0.0177054 0)
(8.0194e-05 0.00759834 0)
(-0.000377701 -0.00657795 0)
(-0.00335615 -0.00651615 0)
(-0.00982948 0.00171059 0)
(-0.0191961 0.0154655 0)
(-0.0320587 0.032276 0)
(-0.0482968 0.05131 0)
(-0.0683956 0.0721612 0)
(-0.0921119 0.0946205 0)
(-0.11896 0.117802 0)
(-0.147608 0.140246 0)
(-0.176555 0.160192 0)
(-0.204217 0.176181 0)
(-0.229444 0.187326 0)
(-0.251416 0.193352 0)
(-0.269743 0.194439 0)
(-0.284316 0.191097 0)
(-0.29535 0.184031 0)
(-0.303244 0.17404 0)
(-0.308552 0.161899 0)
(-0.311848 0.148298 0)
(-0.313693 0.133788 0)
(-0.314553 0.118775 0)
(-0.314806 0.10353 0)
(-0.314719 0.0882141 0)
(-0.314484 0.0729064 0)
(-0.314215 0.0576316 0)
(-0.313987 0.0423789 0)
(-0.313845 0.0271194 0)
(-0.313823 0.0118136 0)
(-0.313955 -0.00358108 0)
(-0.314283 -0.0191103 0)
(-0.314861 -0.0348208 0)
(-0.315759 -0.0507635 0)
(-0.317059 -0.0669935 0)
(-0.318851 -0.0835719 0)
(-0.321214 -0.100562 0)
(-0.324195 -0.118019 0)
(-0.327757 -0.135966 0)
(-0.33172 -0.154352 0)
(-0.335659 -0.17297 0)
(-0.338802 -0.191354 0)
(-0.339932 -0.208644 0)
(-0.337358 -0.223472 0)
(-0.329023 -0.233914 0)
(-0.31282 -0.237623 0)
(-0.287154 -0.232201 0)
(-0.251686 -0.215881 0)
(-0.208056 -0.188433 0)
(-0.160194 -0.151966 0)
(-0.113709 -0.111089 0)
(-0.074111 -0.0716697 0)
(-0.044484 -0.038469 0)
(-0.0245707 -0.0133015 0)
(-0.0121342 0.00439379 0)
(-0.00489013 0.01603 0)
(-0.00107322 0.0227771 0)
(0.000509818 0.025329 0)
(0.000800976 0.0239102 0)
(0.00044184 0.0182407 0)
(6.65972e-05 0.00785342 0)
(-0.000843067 -0.00449192 0)
(-0.00559421 -0.000699045 0)
(-0.0145779 0.0108809 0)
(-0.0265144 0.0279491 0)
(-0.042186 0.048242 0)
(-0.0612171 0.0709462 0)
(-0.0839913 0.0954471 0)
(-0.109767 0.120998 0)
(-0.137666 0.146112 0)
(-0.166005 0.168923 0)
(-0.193293 0.187675 0)
(-0.218118 0.201207 0)
(-0.239641 0.209051 0)
(-0.257324 0.211324 0)
(-0.271101 0.208568 0)
(-0.281169 0.201598 0)
(-0.288041 0.191358 0)
(-0.292327 0.178781 0)
(-0.29471 0.164684 0)
(-0.295789 0.149711 0)
(-0.29608 0.13432 0)
(-0.29595 0.118802 0)
(-0.295661 0.103316 0)
(-0.295359 0.0879289 0)
(-0.295126 0.0726485 0)
(-0.294986 0.0574515 0)
(-0.294947 0.0423002 0)
(-0.294998 0.0271547 0)
(-0.295137 0.0119764 0)
(-0.295367 -0.00326819 0)
(-0.295712 -0.0186105 0)
(-0.296206 -0.0340798 0)
(-0.296912 -0.0497088 0)
(-0.297906 -0.0655353 0)
(-0.299292 -0.081609 0)
(-0.301184 -0.0979934 0)
(-0.303706 -0.114769 0)
(-0.306965 -0.132028 0)
(-0.31101 -0.149852 0)
(-0.315762 -0.168275 0)
(-0.320911 -0.18719 0)
(-0.325772 -0.206227 0)
(-0.329145 -0.224566 0)
(-0.329217 -0.240755 0)
(-0.323619 -0.252591 0)
(-0.309735 -0.257205 0)
(-0.285366 -0.25149 0)
(-0.249701 -0.232991 0)
(-0.204357 -0.201172 0)
(-0.153946 -0.15869 0)
(-0.105358 -0.111634 0)
(-0.065238 -0.0676962 0)
(-0.0367534 -0.0324052 0)
(-0.0187287 -0.00713544 0)
(-0.00822788 0.00959804 0)
(-0.00263321 0.0196022 0)
(-0.000101833 0.0241618 0)
(0.000659961 0.0238449 0)
(0.000483574 0.0186113 0)
(9.89013e-05 0.00810085 0)
(-0.00138939 -0.00108233 0)
(-0.00802648 0.00736848 0)
(-0.0195073 0.0225743 0)
(-0.0338608 0.0430368 0)
(-0.0520519 0.0668333 0)
(-0.0733613 0.0930296 0)
(-0.0980019 0.120652 0)
(-0.124724 0.14833 0)
(-0.152397 0.174107 0)
(-0.179188 0.195954 0)
(-0.203799 0.212359 0)
(-0.225063 0.222562 0)
(-0.242483 0.226546 0)
(-0.255828 0.224828 0)
(-0.265387 0.218319 0)
(-0.271645 0.208105 0)
(-0.275342 0.195292 0)
(-0.277187 0.180845 0)
(-0.277873 0.16552 0)
(-0.277915 0.149837 0)
(-0.27771 0.134115 0)
(-0.277481 0.118509 0)
(-0.277363 0.103071 0)
(-0.277387 0.0877893 0)
(-0.277555 0.0726229 0)
(-0.277828 0.0575233 0)
(-0.278175 0.0424448 0)
(-0.278556 0.027351 0)
(-0.278955 0.0122142 0)
(-0.279358 -0.0029841 0)
(-0.279778 -0.0182576 0)
(-0.280236 -0.0336158 0)
(-0.280781 -0.0490702 0)
(-0.281472 -0.0646362 0)
(-0.282399 -0.0803407 0)
(-0.283669 -0.0962264 0)
(-0.285418 -0.112362 0)
(-0.287798 -0.128844 0)
(-0.290969 -0.145803 0)
(-0.29505 -0.163384 0)
(-0.300065 -0.18171 0)
(-0.305812 -0.200785 0)
(-0.311713 -0.22034 0)
(-0.316604 -0.239604 0)
(-0.318594 -0.257034 0)
(-0.315041 -0.270116 0)
(-0.302862 -0.275386 0)
(-0.279273 -0.268923 0)
(-0.243018 -0.247478 0)
(-0.195785 -0.210287 0)
(-0.14308 -0.160877 0)
(-0.0933014 -0.107493 0)
(-0.0541178 -0.0598781 0)
(-0.0280742 -0.0239621 0)
(-0.0126785 0.000187105 0)
(-0.00440403 0.0148793 0)
(-0.000554401 0.0222616 0)
(0.000741341 0.0235122 0)
(0.00065769 0.0189817 0)
(0.000161845 0.00845018 0)
(-0.00197651 0.0037613 0)
(-0.0104861 0.0176859 0)
(-0.0243023 0.0366548 0)
(-0.0407798 0.0604645 0)
(-0.0610396 0.0876104 0)
(-0.0839532 0.116875 0)
(-0.109548 0.146833 0)
(-0.13614 0.175516 0)
(-0.162524 0.200709 0)
(-0.186882 0.220455 0)
(-0.208216 0.23364 0)
(-0.225637 0.239958 0)
(-0.239016 0.239863 0)
(-0.248441 0.234278 0)
(-0.25453 0.224445 0)
(-0.25797 0.211634 0)
(-0.259611 0.197 0)
(-0.260137 0.181426 0)
(-0.260152 0.165529 0)
(-0.260019 0.149659 0)
(-0.259988 0.133981 0)
(-0.260143 0.118531 0)
(-0.260514 0.103276 0)
(-0.261052 0.0881563 0)
(-0.261715 0.073108 0)
(-0.262434 0.0580775 0)
(-0.263165 0.0430251 0)
(-0.263864 0.0279258 0)
(-0.264512 0.0127661 0)
(-0.265094 -0.00245766 0)
(-0.265619 -0.0177441 0)
(-0.266101 -0.0330873 0)
(-0.266575 -0.0484825 0)
(-0.267083 -0.0639267 0)
(-0.267693 -0.0794258 0)
(-0.268483 -0.0949975 0)
(-0.269565 -0.110682 0)
(-0.271075 -0.126552 0)
(-0.273186 -0.142721 0)
(-0.276089 -0.159357 0)
(-0.279974 -0.176669 0)
(-0.284953 -0.194874 0)
(-0.290934 -0.21409 0)
(-0.297429 -0.234149 0)
(-0.303312 -0.254308 0)
(-0.306596 -0.272891 0)
(-0.304376 -0.286984 0)
(-0.293115 -0.292421 0)
(-0.269501 -0.284325 0)
(-0.231953 -0.258654 0)
(-0.182467 -0.214597 0)
(-0.127828 -0.157302 0)
(-0.0781845 -0.0979106 0)
(-0.0417598 -0.0484066 0)
(-0.0194174 -0.0137053 0)
(-0.00716692 0.00779779 0)
(-0.00131146 0.0192955 0)
(0.000794087 0.0228499 0)
(0.00086054 0.0193993 0)
(0.000235238 0.00894915 0)
(-0.00254657 0.0100195 0)
(-0.0127701 0.0300767 0)
(-0.0286125 0.0528038 0)
(-0.0467941 0.0797636 0)
(-0.0685485 0.109905 0)
(-0.0923154 0.14159 0)
(-0.117975 0.172936 0)
(-0.14353 0.201493 0)
(-0.167861 0.225018 0)
(-0.189277 0.2418 0)
(-0.207133 0.251217 0)
(-0.220831 0.25344 0)
(-0.230618 0.249402 0)
(-0.236865 0.240392 0)
(-0.240436 0.227899 0)
(-0.242097 0.213251 0)
(-0.242695 0.197534 0)
(-0.24279 0.181466 0)
(-0.242841 0.165477 0)
(-0.243043 0.149741 0)
(-0.243516 0.134292 0)
(-0.244233 0.119073 0)
(-0.24516 0.104005 0)
(-0.246208 0.0890058 0)
(-0.247319 0.0740116 0)
(-0.248418 0.0589769 0)
(-0.249468 0.0438763 0)
(-0.250426 0.0286992 0)
(-0.251282 0.0134466 0)
(-0.252022 -0.0018719 0)
(-0.252656 -0.0172424 0)
(-0.253193 -0.0326475 0)
(-0.253663 -0.0480708 0)
(-0.254094 -0.0634966 0)
(-0.254533 -0.0789161 0)
(-0.255033 -0.0943281 0)
(-0.255672 -0.109748 0)
(-0.256547 -0.125214 0)
(-0.257794 -0.140805 0)
(-0.259586 -0.156651 0)
(-0.262148 -0.172955 0)
(-0.265721 -0.189994 0)
(-0.270505 -0.208083 0)
(-0.276508 -0.227462 0)
(-0.283327 -0.248062 0)
(-0.289837 -0.269137 0)
(-0.293913 -0.288778 0)
(-0.292329 -0.303537 0)
(-0.281083 -0.308326 0)
(-0.256416 -0.297226 0)
(-0.216641 -0.265389 0)
(-0.164518 -0.212611 0)
(-0.108639 -0.146639 0)
(-0.0610943 -0.0827642 0)
(-0.0294569 -0.0339453 0)
(-0.0116872 -0.00275796 0)
(-0.00285858 0.0146826 0)
(0.000545757 0.0216233 0)
(0.000977893 0.0198001 0)
(0.000297216 0.0095954 0)
(-0.00304576 0.0175623 0)
(-0.0147101 0.044256 0)
(-0.0321675 0.070631 0)
(-0.0515603 0.100436 0)
(-0.0741856 0.133089 0)
(-0.0980769 0.166439 0)
(-0.123035 0.198215 0)
(-0.146884 0.22564 0)
(-0.168705 0.246646 0)
(-0.187 0.259889 0)
(-0.201498 0.265293 0)
(-0.211885 0.26351 0)
(-0.218754 0.255929 0)
(-0.222678 0.244121 0)
(-0.224656 0.229698 0)
(-0.225418 0.213925 0)
(-0.225717 0.197727 0)
(-0.22594 0.181609 0)
(-0.226394 0.165812 0)
(-0.227127 0.150356 0)
(-0.228164 0.135181 0)
(-0.229411 0.120175 0)
(-0.230809 0.105243 0)
(-0.232254 0.090301 0)
(-0.233696 0.0752995 0)
(-0.235066 0.0602068 0)
(-0.236341 0.0450131 0)
(-0.237485 0.0297212 0)
(-0.238495 0.0143441 0)
(-0.239361 -0.00109867 0)
(-0.240095 -0.0165844 0)
(-0.240704 -0.032088 0)
(-0.241212 -0.0475856 0)
(-0.241641 -0.0630542 0)
(-0.242026 -0.0784766 0)
(-0.242401 -0.0938401 0)
(-0.242818 -0.109144 0)
(-0.243338 -0.124403 0)
(-0.244049 -0.139659 0)
(-0.245073 -0.154993 0)
(-0.24659 -0.170555 0)
(-0.248836 -0.186583 0)
(-0.252102 -0.203418 0)
(-0.256661 -0.221482 0)
(-0.262619 -0.241136 0)
(-0.269629 -0.262406 0)
(-0.276525 -0.284467 0)
(-0.280961 -0.30507 0)
(-0.279301 -0.319947 0)
(-0.267045 -0.322899 0)
(-0.240093 -0.306707 0)
(-0.197062 -0.266162 0)
(-0.142116 -0.202493 0)
(-0.0864373 -0.128157 0)
(-0.0436637 -0.0627355 0)
(-0.0185047 -0.0181463 0)
(-0.00558941 0.0076077 0)
(-0.000215587 0.0194135 0)
(0.000922606 0.0199923 0)
(0.000332658 0.0103245 0)
(-0.00342025 0.02614 0)
(-0.0161503 0.0598128 0)
(-0.0347347 0.089629 0)
(-0.0548059 0.121868 0)
(-0.0776792 0.156434 0)
(-0.101046 0.190643 0)
(-0.124707 0.221949 0)
(-0.146424 0.247416 0)
(-0.165555 0.265315 0)
(-0.180822 0.274734 0)
(-0.19232 0.27617 0)
(-0.19999 0.270727 0)
(-0.204698 0.260187 0)
(-0.207118 0.246281 0)
(-0.208275 0.230624 0)
(-0.208779 0.214311 0)
(-0.209244 0.19806 0)
(-0.20988 0.182154 0)
(-0.210864 0.166671 0)
(-0.212135 0.151516 0)
(-0.21367 0.136575 0)
(-0.215339 0.121713 0)
(-0.217088 0.10684 0)
(-0.218816 0.0918859 0)
(-0.220489 0.0768169 0)
(-0.222049 0.0616169 0)
(-0.223485 0.0462905 0)
(-0.224766 0.030851 0)
(-0.225897 0.0153212 0)
(-0.226866 -0.000271833 0)
(-0.22769 -0.0158982 0)
(-0.228371 -0.0315266 0)
(-0.228933 -0.0471278 0)
(-0.229391 -0.062674 0)
(-0.229777 -0.0781428 0)
(-0.230113 -0.0935163 0)
(-0.230438 -0.108786 0)
(-0.230787 -0.123952 0)
(-0.231215 -0.139033 0)
(-0.231795 -0.154074 0)
(-0.232644 -0.169168 0)
(-0.233934 -0.184481 0)
(-0.235922 -0.200292 0)
(-0.238939 -0.217021 0)
(-0.243329 -0.235193 0)
(-0.249268 -0.25531 0)
(-0.256433 -0.277433 0)
(-0.263538 -0.300605 0)
(-0.267905 -0.321936 0)
(-0.265369 -0.336119 0)
(-0.250898 -0.33534 0)
(-0.220296 -0.311249 0)
(-0.173039 -0.25866 0)
(-0.115774 -0.182568 0)
(-0.0628527 -0.101979 0)
(-0.0279224 -0.0400752 0)
(-0.00976768 -0.00283585 0)
(-0.00160609 0.0156723 0)
(0.000655317 0.0197158 0)
(0.000336181 0.0110449 0)
(-0.00363656 0.0354255 0)
(-0.0170041 0.0762939 0)
(-0.0362025 0.109306 0)
(-0.0564338 0.143532 0)
(-0.0789927 0.179402 0)
(-0.101318 0.213727 0)
(-0.123276 0.243824 0)
(-0.142663 0.266742 0)
(-0.159141 0.281205 0)
(-0.17166 0.286766 0)
(-0.180645 0.28449 0)
(-0.186237 0.275879 0)
(-0.189488 0.263012 0)
(-0.191072 0.247656 0)
(-0.191958 0.231322 0)
(-0.192592 0.214875 0)
(-0.193443 0.198814 0)
(-0.194565 0.183224 0)
(-0.196047 0.16806 0)
(-0.197761 0.153155 0)
(-0.199668 0.138374 0)
(-0.201631 0.123582 0)
(-0.203612 0.108705 0)
(-0.205521 0.0936898 0)
(-0.207345 0.0785198 0)
(-0.209031 0.0631908 0)
(-0.21058 0.0477184 0)
(-0.211965 0.0321229 0)
(-0.213193 0.0164343 0)
(-0.214252 0.000684969 0)
(-0.215158 -0.0150894 0)
(-0.215913 -0.0308531 0)
(-0.216538 -0.0465721 0)
(-0.217045 -0.0622149 0)
(-0.217464 -0.0777563 0)
(-0.217813 -0.0931756 0)
(-0.218123 -0.108461 0)
(-0.218418 -0.123609 0)
(-0.218734 -0.138625 0)
(-0.219108 -0.153534 0)
(-0.219606 -0.168385 0)
(-0.220331 -0.183281 0)
(-0.22146 -0.198407 0)
(-0.223266 -0.2141 0)
(-0.226129 -0.230855 0)
(-0.230454 -0.249352 0)
(-0.236469 -0.270183 0)
(-0.243808 -0.293458 0)
(-0.25095 -0.317793 0)
(-0.254725 -0.339477 0)
(-0.250312 -0.351474 0)
(-0.232208 -0.344298 0)
(-0.196487 -0.308277 0)
(-0.144555 -0.240297 0)
(-0.0866151 -0.151662 0)
(-0.0405643 -0.0706674 0)
(-0.0154217 -0.0176862 0)
(-0.00372053 0.00976118 0)
(0.000193582 0.0186646 0)
(0.000306607 0.0116584 0)
(-0.00367228 0.0450321 0)
(-0.0172189 0.0931917 0)
(-0.0365178 0.129124 0)
(-0.0564274 0.164863 0)
(-0.0781895 0.20143 0)
(-0.0990884 0.235212 0)
(-0.119106 0.263518 0)
(-0.136141 0.28351 0)
(-0.150156 0.29443 0)
(-0.160314 0.296301 0)
(-0.167317 0.290723 0)
(-0.171436 0.279514 0)
(-0.173815 0.26494 0)
(-0.175051 0.248684 0)
(-0.176011 0.232089 0)
(-0.176966 0.215766 0)
(-0.178259 0.200011 0)
(-0.179829 0.18475 0)
(-0.181714 0.169859 0)
(-0.183753 0.155131 0)
(-0.185912 0.140437 0)
(-0.188065 0.125652 0)
(-0.190193 0.110725 0)
(-0.192221 0.0956163 0)
(-0.194147 0.0803242 0)
(-0.195926 0.0648524 0)
(-0.197566 0.0492241 0)
(-0.199038 0.0334645 0)
(-0.200353 0.0176092 0)
(-0.201496 0.00169494 0)
(-0.202482 -0.0142372 0)
(-0.203309 -0.0301467 0)
(-0.204 -0.045995 0)
(-0.204563 -0.0617469 0)
(-0.205025 -0.0773739 0)
(-0.205404 -0.0928538 0)
(-0.205729 -0.108174 0)
(-0.206021 -0.12333 0)
(-0.206306 -0.138326 0)
(-0.206607 -0.15318 0)
(-0.206958 -0.167917 0)
(-0.207409 -0.182601 0)
(-0.20806 -0.197337 0)
(-0.209088 -0.212353 0)
(-0.210797 -0.228026 0)
(-0.213614 -0.245003 0)
(-0.218014 -0.26407 0)
(-0.224234 -0.286014 0)
(-0.231774 -0.310711 0)
(-0.238701 -0.336266 0)
(-0.241158 -0.357315 0)
(-0.233576 -0.364907 0)
(-0.210152 -0.347109 0)
(-0.168099 -0.294477 0)
(-0.111992 -0.208165 0)
(-0.0572349 -0.111475 0)
(-0.0225182 -0.0385061 0)
(-0.00665906 0.00110748 0)
(-0.000445462 0.0164732 0)
(0.000253477 0.0120938 0)
(-0.00352814 0.0545646 0)
(-0.016808 0.110032 0)
(-0.0357306 0.14864 0)
(-0.0549064 0.185462 0)
(-0.0754939 0.222209 0)
(-0.0947196 0.254945 0)
(-0.112705 0.281087 0)
(-0.127495 0.297993 0)
(-0.139327 0.305456 0)
(-0.147547 0.303949 0)
(-0.153066 0.295548 0)
(-0.156214 0.282295 0)
(-0.158149 0.266531 0)
(-0.159347 0.249782 0)
(-0.160548 0.233182 0)
(-0.161872 0.217097 0)
(-0.163562 0.201659 0)
(-0.165483 0.186673 0)
(-0.167652 0.171977 0)
(-0.169898 0.15735 0)
(-0.172209 0.142679 0)
(-0.174469 0.127858 0)
(-0.176681 0.112854 0)
(-0.178779 0.0976384 0)
(-0.180772 0.0822199 0)
(-0.182619 0.0666062 0)
(-0.184331 0.0508256 0)
(-0.185878 0.0349058 0)
(-0.187271 0.0188867 0)
(-0.188493 0.00280901 0)
(-0.189559 -0.0132817 0)
(-0.190463 -0.0293406 0)
(-0.191226 -0.0453246 0)
(-0.191856 -0.0611947 0)
(-0.192377 -0.0769191 0)
(-0.192806 -0.092474 0)
(-0.19317 -0.107845 0)
(-0.19349 -0.12303 0)
(-0.19379 -0.138032 0)
(-0.194087 -0.15287 0)
(-0.194404 -0.167564 0)
(-0.19476 -0.182159 0)
(-0.195203 -0.196708 0)
(-0.195822 -0.211356 0)
(-0.196815 -0.226337 0)