/*--------------------------------*- C++ -*----------------------------------*\
| =========                 |                                                 |
| \\      /  F ield         | OpenFOAM: The Open Source CFD Toolbox           |
|  \\    /   O peration     | Version:  2406                                  |
|   \\  /    A nd           | Website:  www.openfoam.com                      |
|    \\/     M anipulation  |                                                 |
\*---------------------------------------------------------------------------*/
FoamFile
{
    version     2.0;
    format      ascii;
    arch        "LSB;label=32;scalar=64";
    class       volScalarField;
    location    "35.35";
    object      p;
}
// * * * * * * * * * * * * * * * * * * * * * * * * * * * * * * * * * * * * * //

dimensions      [0 2 -2 0 0 0 0];

internalField   nonuniform List<scalar> 
14400
(
-4.79352e-09
8.13004e-06
1.8841e-05
2.71299e-05
2.9711e-05
2.45058e-05
1.05478e-05
-1.226e-05
-4.33658e-05
-8.17817e-05
-0.000126289
-0.000175628
-0.000228656
-0.000284472
-0.00034249
-0.000402476
-0.000464559
-0.000529224
-0.000597191
-0.000669391
-0.000746836
-0.000830731
-0.000922241
-0.00102249
-0.00113253
-0.00125336
-0.00138588
-0.00153093
-0.0016893
-0.00186172
-0.00204885
-0.00225126
-0.00246941
-0.00270359
-0.00295387
-0.00322004
-0.00350158
-0.00379756
-0.00410661
-0.00442688
-0.00475597
-0.00509091
-0.00542812
-0.00576346
-0.00609219
-0.00640904
-0.00670824
-0.00698365
-0.00722882
-0.00743714
-0.00760199
-0.0077169
-0.00777572
-0.00777281
-0.00770324
-0.00756296
-0.00734903
-0.00705976
-0.0066949
-0.00625579
-0.00574551
-0.00516879
-0.00453204
-0.00384406
-0.00311596
-0.00235926
-0.00158769
-0.000816332
-6.1247e-05
0.000660872
0.00133317
0.00193913
0.00246316
0.00289118
0.00321116
0.0034137
0.0034925
0.00344466
0.00327097
0.00297587
0.00256739
0.00205678
0.00145805
0.000787332
6.21859e-05
-0.000699209
-0.00147881
-0.00225943
-0.00302537
-0.00376291
-0.00446085
-0.00511083
-0.00570561
-0.00624167
-0.00671783
-0.00713455
-0.00749394
-0.00779939
-0.00805521
-0.00826625
-0.00843763
-0.00857448
-0.00868177
-0.00876412
-0.00882576
-0.00887047
-0.00890151
-0.0089217
-0.00893336
-0.00893837
-0.0089382
-0.00893393
-0.0089263
-0.00891581
-0.0089028
-0.00888769
-0.00887123
-0.00885489
-0.00884125
-0.00883342
-8.07727e-06
8.25494e-08
9.914e-06
1.63575e-05
1.73261e-05
1.10934e-05
-3.22037e-06
-2.57237e-05
-5.59429e-05
-9.30075e-05
-0.000135831
-0.000183284
-0.000234346
-0.000288212
-0.000344368
-0.000402623
-0.000463104
-0.000526237
-0.000592696
-0.000663368
-0.000739313
-0.000821566
-0.000911214
-0.00100932
-0.00111689
-0.00123487
-0.00136414
-0.00150553
-0.00165983
-0.00182776
-0.00201002
-0.00220722
-0.00241984
-0.00264823
-0.00289253
-0.00315263
-0.00342808
-0.0037181
-0.00402143
-0.00433636
-0.00466064
-0.00499144
-0.00532535
-0.00565835
-0.00598584
-0.00630264
-0.00660309
-0.0068811
-0.00713026
-0.00734396
-0.00751557
-0.00763856
-0.0077067
-0.00771424
-0.00765613
-0.00752819
-0.0073273
-0.0070516
-0.00670066
-0.00627564
-0.00577929
-0.00521633
-0.00459368
-0.00391924
-0.00320306
-0.00245748
-0.00169619
-0.000934078
-0.00018715
0.000527954
0.00119438
0.0017956
0.00231597
0.00274133
0.00305958
0.00326126
0.00333998
0.00329283
0.00312056
0.00282767
0.00242221
0.00191554
0.00132176
0.000657115
-6.07566e-05
-0.000813629
-0.00158347
-0.00235319
-0.00310726
-0.00383225
-0.00451698
-0.00515265
-0.00573378
-0.00625721
-0.0067215
-0.0071274
-0.00747731
-0.00777476
-0.00802411
-0.00823022
-0.00839813
-0.00853287
-0.00863923
-0.00872166
-0.0087842
-0.00883045
-0.00886349
-0.00888598
-0.00890013
-0.00890773
-0.00891018
-0.00890854
-0.00890356
-0.00889577
-0.00888554
-0.00887329
-0.00885966
-0.00884582
-0.00883344
-0.00882555
-1.90038e-05
-9.81398e-06
1.69183e-07
5.14992e-06
4.58199e-06
-2.77586e-06
-1.7635e-05
-4.00474e-05
-6.95613e-05
-0.000105378
-0.000146509
-0.000191934
-0.000240739
-0.000292221
-0.000345944
-0.000401776
-0.000459873
-0.000520653
-0.000584781
-0.000653087
-0.000726518
-0.00080607
-0.00089276
-0.000987582
-0.00109148
-0.00120537
-0.00133008
-0.00146645
-0.00161528
-0.00177732
-0.00195333
-0.00214399
-0.0023499
-0.00257152
-0.00280914
-0.00306282
-0.0033323
-0.00361699
-0.00391585
-0.00422739
-0.00454954
-0.00487969
-0.00521456
-0.00555028
-0.00588231
-0.00620554
-0.00651427
-0.00680236
-0.0070633
-0.00729034
-0.00747666
-0.00761553
-0.00770051
-0.00772564
-0.00768564
-0.00757609
-0.00739369
-0.00713636
-0.00680348
-0.00639605
-0.00591656
-0.00536917
-0.00476141
-0.00410113
-0.00339803
-0.00266395
-0.00191252
-0.00115864
-0.000418265
0.000291955
0.000955125
0.00155463
0.00207472
0.00250107
0.0028214
0.00302607
0.00310849
0.00306559
0.002898
0.00261014
0.00221006
0.00170917
0.0011217
0.000464038
-0.000245998
-0.000990002
-0.00174979
-0.00250815
-0.00324953
-0.0039605
-0.00463006
-0.00524995
-0.00581505
-0.00632216
-0.00677023
-0.00716056
-0.00749592
-0.00778015
-0.00801787
-0.00821409
-0.00837394
-0.0085024
-0.00860418
-0.00868361
-0.00874451
-0.00879027
-0.00882376
-0.00884745
-0.00886334
-0.00887308
-0.00887796
-0.00887899
-0.00887686
-0.00887208
-0.008865
-0.00885592
-0.00884527
-0.00883369
-0.00882128
-0.00881195
-2.83549e-05
-1.69822e-05
-5.06721e-06
1.10295e-07
-8.91009e-07
-8.91246e-06
-2.44365e-05
-4.73358e-05
-7.70304e-05
-0.000112638
-0.000153121
-0.000197443
-0.000244704
-0.000294237
-0.000345662
-0.000398902
-0.000454183
-0.000511974
-0.000572969
-0.000638015
-0.000708053
-0.000784072
-0.000867063
-0.000957981
-0.00105774
-0.00116723
-0.00128728
-0.00141876
-0.0015625
-0.00171939
-0.0018903
-0.00207607
-0.00227751
-0.00249532
-0.00273004
-0.00298199
-0.0032512
-0.00353734
-0.00383963
-0.00415677
-0.00448688
-0.00482741
-0.00517513
-0.00552608
-0.00587558
-0.00621828
-0.00654822
-0.00685889
-0.00714342
-0.00739466
-0.00760542
-0.00776862
-0.00787748
-0.00792577
-0.00790795
-0.00781944
-0.00765676
-0.00741773
-0.0071016
-0.00670922
-0.00624334
-0.00570856
-0.00511004
-0.00445701
-0.00375952
-0.00302912
-0.00227923
-0.00152469
-0.00078147
-6.62955e-05
0.000603816
0.00121206
0.00174239
0.00218016
0.00251272
0.00272997
0.00282492
0.00279408
0.00263774
0.00236003
0.00196888
0.00147564
0.000894644
0.000242501
-0.000462649
-0.001202
-0.00195694
-0.00270983
-0.00344471
-0.00414784
-0.00480812
-0.00541728
-0.00596981
-0.00646246
-0.00689508
-0.00726922
-0.007588
-0.00785576
-0.00807756
-0.00825883
-0.00840504
-0.00852142
-0.00861283
-0.00868363
-0.00873764
-0.0087781
-0.00880777
-0.00882889
-0.00884331
-0.0088525
-0.00885758
-0.00885941
-0.00885858
-0.00885545
-0.0088502
-0.00884291
-0.00883368
-0.00882258
-0.00880825
-0.00879638
-3.36246e-05
-2.01086e-05
-6.11883e-06
-4.12166e-07
-1.69128e-06
-1.04945e-05
-2.70561e-05
-5.10034e-05
-8.15401e-05
-0.000117608
-0.000158037
-0.000201708
-0.000247688
-0.000295325
-0.00034429
-0.000394585
-0.000446518
-0.000500662
-0.000557788
-0.000618811
-0.000684722
-0.000756534
-0.000835243
-0.000921809
-0.00101715
-0.00112216
-0.00123776
-0.00136487
-0.00150451
-0.00165774
-0.00182569
-0.0020095
-0.00221031
-0.00242918
-0.00266703
-0.00292453
-0.00320206
-0.00349956
-0.00381645
-0.00415155
-0.00450293
-0.00486792
-0.00524302
-0.00562389
-0.00600538
-0.00638161
-0.00674601
-0.00709154
-0.00741074
-0.007696
-0.00793969
-0.0081344
-0.00827309
-0.00834934
-0.00835753
-0.00829299
-0.00815224
-0.00793308
-0.00763476
-0.00725811
-0.00680583
-0.0062823
-0.00569338
-0.0050472
-0.00435379
-0.00362476
-0.00287334
-0.00211424
-0.00136331
-0.000637262
4.68233e-05
0.000671952
0.00122179
0.00168128
0.00203723
0.00227895
0.00239878
0.00239253
0.00225986
0.00200434
0.00163341
0.00115814
0.000592729
-4.61514e-05
-0.000740148
-0.00147009
-0.00221689
-0.00296237
-0.00369002
-0.00438556
-0.00503739
-0.00563681
-0.00617799
-0.00665789
-0.00707614
-0.00743445
-0.00773625
-0.00798627
-0.00819004
-0.00835348
-0.00848253
-0.00858286
-0.00865966
-0.00871751
-0.00876037
-0.00879152
-0.00881365
-0.00882889
-0.00883892
-0.00884504
-0.00884818
-0.00884903
-0.00884798
-0.00884522
-0.00884071
-0.00883422
-0.00882552
-0.00881413
-0.0087974
-0.00878284
-3.32719e-05
-1.79772e-05
-2.27583e-06
3.78709e-06
1.98711e-06
-7.98455e-06
-2.61052e-05
-5.17092e-05
-8.37182e-05
-0.00012083
-0.000161684
-0.000205034
-0.000249892
-0.000295613
-0.000341928
-0.00038894
-0.000437083
-0.00048706
-0.000539772
-0.000596244
-0.000657559
-0.000724801
-0.000799024
-0.000881242
-0.000972448
-0.00107365
-0.0011859
-0.00131037
-0.00144834
-0.00160123
-0.00177058
-0.00195798
-0.00216505
-0.00239332
-0.00264415
-0.00291858
-0.00321727
-0.00354029
-0.00388705
-0.00425616
-0.00464534
-0.00505139
-0.00547015
-0.00589654
-0.00632463
-0.00674775
-0.00715862
-0.00754954
-0.00791253
-0.00823955
-0.00852269
-0.00875436
-0.00892746
-0.00903557
-0.00907312
-0.00903556
-0.00891947
-0.00872275
-0.00844471
-0.00808618
-0.00764963
-0.00713937
-0.0065613
-0.00592315
-0.0052345
-0.00450665
-0.00375253
-0.00298652
-0.0022242
-0.00148212
-0.000777292
-0.000126816
0.000452708
0.000945759
0.00133852
0.0016195
0.00178013
0.00181523
0.00172342
0.00150733
0.00117354
0.000732435
0.000197737
-0.000414132
-0.00108483
-0.00179497
-0.00252508
-0.00325645
-0.00397195
-0.00465665
-0.00529828
-0.00588751
-0.00641803
-0.00688643
-0.00729196
-0.00763619
-0.00792258
-0.00815602
-0.00834232
-0.00848778
-0.00859879
-0.00868148
-0.00874148
-0.00878377
-0.00881257
-0.00883137
-0.00884292
-0.00884936
-0.00885231
-0.0088529
-0.00885194
-0.0088499
-0.008847
-0.0088432
-0.00883824
-0.0088316
-0.0088227
-0.00881062
-0.00879158
-0.00877461
-2.6348e-05
-9.72094e-06
7.14707e-06
1.31292e-05
1.03249e-05
-1.37601e-06
-2.16757e-05
-4.95739e-05
-8.36574e-05
-0.000122331
-0.000164005
-0.000207289
-0.000251131
-0.000294902
-0.000338415
-0.000381904
-0.000425962
-0.000471465
-0.000519483
-0.000571201
-0.000627842
-0.000690622
-0.000760725
-0.000839314
-0.000927565
-0.00102673
-0.00113817
-0.00126347
-0.00140436
-0.0015628
-0.00174091
-0.00194087
-0.00216486
-0.0024149
-0.00269272
-0.0029996
-0.00333619
-0.00370236
-0.00409709
-0.00451834
-0.00496303
-0.00542703
-0.00590517
-0.00639139
-0.00687884
-0.00736003
-0.007827
-0.00827152
-0.00868527
-0.00906001
-0.00938774
-0.00966092
-0.00987256
-0.0100164
-0.0100871
-0.0100803
-0.0099927
-0.0098223
-0.00956846
-0.00923194
-0.0088151
-0.00832189
-0.00775794
-0.0071306
-0.00644891
-0.00572362
-0.00496708
-0.00419313
-0.00341687
-0.00265444
-0.00192263
-0.00123849
-0.000618783
-7.94694e-05
0.000364948
0.000702042
0.000922078
0.00101857
0.000988724
0.000833725
0.000558829
0.000173227
-0.00031031
-0.000876027
-0.00150594
-0.00218073
-0.00288072
-0.00358674
-0.00428107
-0.00494805
-0.00557466
-0.00615078
-0.00666937
-0.00712634
-0.00752036
-0.00785256
-0.00812608
-0.00834562
-0.008517
-0.00864664
-0.0087412
-0.00880716
-0.00885057
-0.00887682
-0.00889051
-0.00889544
-0.00889461
-0.00889027
-0.00888408
-0.00887714
-0.00887016
-0.00886348
-0.00885716
-0.00885097
-0.00884441
-0.00883673
-0.00882704
-0.00881402
-0.00879304
-0.0087742
-1.21065e-05
5.384e-06
2.27901e-05
2.80914e-05
2.3644e-05
9.54364e-06
-1.36047e-05
-4.44254e-05
-8.11304e-05
-0.000121801
-0.000164604
-0.000208004
-0.000250901
-0.000292709
-0.000333353
-0.000373232
-0.000413138
-0.00045416
-0.000497585
-0.000544806
-0.000597258
-0.00065637
-0.000723564
-0.000800286
-0.000888065
-0.00098858
-0.00110373
-0.00123569
-0.00138688
-0.00155995
-0.00175772
-0.001983
-0.00223848
-0.00252651
-0.00284893
-0.00320685
-0.00360047
-0.00402896
-0.00449037
-0.00498158
-0.00549831
-0.00603522
-0.00658605
-0.00714372
-0.00770051
-0.00824827
-0.0087786
-0.00928296
-0.00975291
-0.0101802
-0.0105571
-0.010876
-0.0111305
-0.0113144
-0.0114226
-0.011451
-0.0113966
-0.0112573
-0.0110326
-0.0107231
-0.010331
-0.00985971
-0.00931456
-0.00870226
-0.0080312
-0.00731137
-0.00655432
-0.00577309
-0.00498203
-0.00419663
-0.00343318
-0.00270844
-0.00203918
-0.00144165
-0.000930986
-0.000520622
-0.000221607
-4.20293e-05
1.3512e-05
-5.57109e-05
-0.000246348
-0.000550988
-0.000958412
-0.00145409
-0.0020209
-0.00263997
-0.00329169
-0.00395667
-0.00461661
-0.00525515
-0.00585841
-0.00641538
-0.00691809
-0.00736157
-0.00774369
-0.00806485
-0.00832756
-0.00853605
-0.00869577
-0.00881298
-0.00889432
-0.00894638
-0.00897546
-0.00898728
-0.0089868
-0.00897818
-0.00896471
-0.0089489
-0.00893257
-0.00891692
-0.00890263
-0.00889002
-0.00887903
-0.00886932
-0.00886022
-0.00885077
-0.00883984
-0.00882581
-0.00880343
-0.00878336
1.02259e-05
2.81082e-05
4.53871e-05
4.93187e-05
4.25049e-05
2.52847e-05
-1.38567e-06
-3.57162e-05
-7.55162e-05
-0.000118532
-0.000162696
-0.000206349
-0.00024838
-0.000288283
-0.000326139
-0.000362555
-0.000398564
-0.000435515
-0.000474965
-0.00051859
-0.000568122
-0.000625326
-0.000692015
-0.000770108
-0.000861699
-0.000969138
-0.00109508
-0.00124251
-0.00141467
-0.00161503
-0.00184706
-0.00211407
-0.00241898
-0.00276411
-0.00315089
-0.00357972
-0.00404983
-0.00455918
-0.00510446
-0.00568116
-0.00628367
-0.00690546
-0.00753917
-0.0081769
-0.00881032
-0.00943084
-0.0100298
-0.0105987
-0.0111291
-0.0116129
-0.0120427
-0.0124112
-0.0127123
-0.0129402
-0.0130901
-0.0131581
-0.0131413
-0.0130379
-0.0128473
-0.01257
-0.0122077
-0.0117638
-0.0112428
-0.0106508
-0.00999531
-0.00928543
-0.0085317
-0.0077461
-0.00694196
-0.00613378
-0.00533703
-0.00456787
-0.00384274
-0.00317792
-0.00258901
-0.00209032
-0.00169423
-0.00141059
-0.0012461
-0.00120384
-0.00128295
-0.00147844
-0.00178137
-0.00217915
-0.00265618
-0.00319464
-0.00377543
-0.00437919
-0.00498731
-0.00558273
-0.00615068
-0.00667912
-0.007159
-0.00758428
-0.00795181
-0.00826101
-0.00851353
-0.00871282
-0.00886369
-0.00897191
-0.00904377
-0.00908571
-0.009104
-0.00910448
-0.00909236
-0.00907208
-0.00904725
-0.00902067
-0.00899441
-0.00896985
-0.0089478
-0.00892861
-0.00891224
-0.00889828
-0.00888598
-0.00887426
-0.00886182
-0.00884681
-0.00882366
-0.00880308
4.15657e-05
5.93615e-05
7.58268e-05
7.76595e-05
6.77268e-05
4.66665e-05
1.58366e-05
-2.2524e-05
-6.5809e-05
-0.000111439
-0.000157142
-0.00020118
-0.000242483
-0.000280678
-0.000316056
-0.000349481
-0.000382282
-0.000416125
-0.000452913
-0.000494697
-0.000543639
-0.000602003
-0.000672198
-0.000756846
-0.000858858
-0.000981491
-0.00112836
-0.00130339
-0.00151072
-0.00175449
-0.0020386
-0.00236652
-0.0027409
-0.00316342
-0.00363455
-0.00415342
-0.00471779
-0.00532405
-0.00596737
-0.0066418
-0.00734045
-0.00805571
-0.00877941
-0.00950303
-0.0102179
-0.0109151
-0.0115861
-0.0122223
-0.0128157
-0.0133585
-0.0138434
-0.0142639
-0.0146139
-0.0148883
-0.0150825
-0.015193
-0.0152172
-0.0151533
-0.0150007
-0.0147598
-0.0144322
-0.0140207
-0.0135293
-0.0129633
-0.0123293
-0.0116353
-0.0108907
-0.0101062
-0.00929378
-0.00846664
-0.00763908
-0.00682624
-0.00604382
-0.00530771
-0.00463359
-0.00403632
-0.00352942
-0.00312442
-0.00283023
-0.00265257
-0.00259351
-0.00265117
-0.00281962
-0.00308907
-0.00344629
-0.00387529
-0.0043582
-0.00487625
-0.00541081
-0.00594434
-0.0064612
-0.00694825
-0.00739519
-0.0077947
-0.00814236
-0.00843639
-0.00867732
-0.0088676
-0.00901113
-0.00911289
-0.00917856
-0.00921409
-0.00922547
-0.0092184
-0.00919811
-0.00916917
-0.00913544
-0.00909997
-0.00906511
-0.00903247
-0.00900307
-0.00897742
-0.00895555
-0.00893711
-0.00892135
-0.00890713
-0.00889309
-0.00887726
-0.00885399
-0.00883358
8.30113e-05
0.000100218
0.000115155
0.000114146
0.000100351
7.4769e-05
3.92104e-05
-3.61392e-06
-5.0687e-05
-9.91356e-05
-0.000146535
-0.000191135
-0.000231971
-0.000268873
-0.000302404
-0.00033375
-0.000364598
-0.000397015
-0.000433349
-0.000476166
-0.000528227
-0.000592507
-0.000672252
-0.000771042
-0.00089284
-0.001042
-0.00122319
-0.00144127
-0.00170106
-0.00200708
-0.00236323
-0.00277249
-0.00323666
-0.00375616
-0.00432993
-0.00495543
-0.00562866
-0.00634438
-0.00709622
-0.0078769
-0.00867846
-0.00949246
-0.0103101
-0.0111225
-0.0119208
-0.0126961
-0.0134398
-0.0141438
-0.0148002
-0.0154017
-0.0159416
-0.0164136
-0.0168125
-0.0171333
-0.0173721
-0.0175258
-0.017592
-0.0175692
-0.0174568
-0.0172553
-0.0169659
-0.016591
-0.0161342
-0.0155998
-0.0149937
-0.0143225
-0.0135945
-0.0128188
-0.0120059
-0.0111675
-0.0103162
-0.0094658
-0.00863074
-0.00782601
-0.00706677
-0.00636795
-0.00574372
-0.00520692
-0.00476846
-0.00443668
-0.00421684
-0.00411058
-0.00411569
-0.00422606
-0.0044318
-0.00471978
-0.0050743
-0.00547802
-0.00591295
-0.00636151
-0.00680739
-0.00723638
-0.00763681
-0.00799986
-0.0083196
-0.00859275
-0.00881848
-0.00899793
-0.00913388
-0.00923027
-0.00929188
-0.00932394
-0.00933186
-0.00932095
-0.00929619
-0.00926212
-0.00922264
-0.00918098
-0.0091397
-0.00910067
-0.00906516
-0.00903387
-0.00900702
-0.00898439
-0.00896531
-0.00894869
-0.00893317
-0.00891677
-0.008894
-0.00887439
0.000135833
0.000151904
0.000164565
0.000159977
0.000141615
0.0001109
7.01363e-05
2.25114e-05
-2.8574e-05
-8.00089e-05
-0.00012929
-0.000174735
-0.000215571
-0.000251908
-0.000284655
-0.000315399
-0.000346276
-0.000379861
-0.000419091
-0.000467222
-0.00052783
-0.000604846
-0.000702602
-0.000825859
-0.000979795
-0.00116991
-0.00140185
-0.00168114
-0.00201292
-0.00240149
-0.00285012
-0.00336064
-0.00393338
-0.004567
-0.00525855
-0.0060036
-0.00679639
-0.00763006
-0.0084969
-0.0093885
-0.0102961
-0.0112105
-0.0121226
-0.0130233
-0.0139036
-0.0147548
-0.0155686
-0.0163373
-0.0170533
-0.0177101
-0.0183013
-0.0188215
-0.019266
-0.0196304
-0.0199114
-0.0201063
-0.0202132
-0.0202309
-0.0201589
-0.0199976
-0.0197482
-0.0194129
-0.0189944
-0.0184966
-0.0179242
-0.017283
-0.0165797
-0.0158221
-0.0150188
-0.0141799
-0.0133161
-0.0124394
-0.0115625
-0.0106989
-0.00986275
-0.00906819
-0.00832938
-0.0076598
-0.0070718
-0.00657594
-0.00618045
-0.00589063
-0.00570839
-0.00563195
-0.00565574
-0.0057706
-0.00596422
-0.00622183
-0.00652713
-0.00686327
-0.00721385
-0.00756384
-0.00790026
-0.00821266
-0.0084933
-0.00873714
-0.00894161
-0.00910628
-0.00923248
-0.00932288
-0.0093811
-0.00941141
-0.00941838
-0.00940668
-0.00938084
-0.00934508
-0.00930319
-0.00925841
-0.00921342
-0.0091703
-0.00913052
-0.00909503
-0.00906428
-0.00903823
-0.00901638
-0.00899776
-0.00898109
-0.00896447
-0.00894279
-0.0089245
0.000201426
0.000215762
0.000225357
0.000216478
0.000192913
0.000156551
0.000110213
5.75461e-05
2.2799e-06
-5.23156e-05
-0.000103752
-0.000150516
-0.000192117
-0.000229037
-0.000262625
-0.000294964
-0.00032876
-0.000367244
-0.000414123
-0.000473558
-0.000550185
-0.000649128
-0.000776013
-0.000936913
-0.00113822
-0.00138645
-0.00168787
-0.00204824
-0.00247231
-0.00296357
-0.0035239
-0.00415344
-0.00485052
-0.00561176
-0.00643218
-0.00730545
-0.00822416
-0.00918002
-0.0101641
-0.0111672
-0.0121797
-0.0131922
-0.0141952
-0.0151796
-0.0161366
-0.0170577
-0.0179352
-0.0187617
-0.0195305
-0.0202356
-0.0208714
-0.0214334
-0.0219174
-0.0223198
-0.0226381
-0.0228699
-0.0230139
-0.0230692
-0.0230356
-0.0229136
-0.0227042
-0.0224094
-0.0220315
-0.0215738
-0.0210402
-0.0204353
-0.0197646
-0.0190343
-0.0182517
-0.0174247
-0.0165622
-0.0156741
-0.014771
-0.0138646
-0.012967
-0.0120912
-0.0112503
-0.0104577
-0.00972616
-0.00906765
-0.00849275
-0.00800997
-0.00762525
-0.00734144
-0.00715792
-0.00707049
-0.00707147
-0.00715007
-0.00729304
-0.00748554
-0.00771208
-0.00795753
-0.00820797
-0.00845138
-0.00867811
-0.00888101
-0.00905545
-0.00919903
-0.00931126
-0.00939322
-0.0094471
-0.00947595
-0.00948327
-0.00947287
-0.00944857
-0.0094141
-0.0093729
-0.00932806
-0.00928224
-0.0092376
-0.00919579
-0.00915797
-0.00912483
-0.00909654
-0.00907281
-0.00905287
-0.00903556
-0.00901915
-0.00899905
-0.00898249
0.000281242
0.000293185
0.000298892
0.000285055
0.000255741
0.000213333
0.000161164
0.000103292
4.36956e-05
-1.43003e-05
-6.83343e-05
-0.00011717
-0.000160708
-0.000199907
-0.000236665
-0.00027369
-0.000314409
-0.000362895
-0.00042384
-0.00050255
-0.000604946
-0.000737537
-0.000907336
-0.00112169
-0.001388
-0.00171338
-0.00210422
-0.00256576
-0.00310173
-0.00371402
-0.0044026
-0.00516543
-0.00599863
-0.00689664
-0.00785249
-0.00885809
-0.00990452
-0.0109822
-0.0120814
-0.013192
-0.0143041
-0.0154079
-0.016494
-0.0175534
-0.0185777
-0.0195589
-0.02049
-0.0213643
-0.0221759
-0.0229196
-0.0235909
-0.0241859
-0.0247012
-0.0251343
-0.025483
-0.0257457
-0.0259215
-0.02601
-0.0260112
-0.0259257
-0.0257546
-0.0254996
-0.0251628
-0.0247469
-0.0242551
-0.0236911
-0.0230594
-0.0223648
-0.021613
-0.0208102
-0.0199633
-0.0190801
-0.018169
-0.0172393
-0.0163012
-0.0153654
-0.0144435
-0.0135474
-0.0126896
-0.0118822
-0.011137
-0.0104648
-0.00987494
-0.0093744
-0.00896765
-0.008656
-0.00843735
-0.00830626
-0.00825411
-0.00826968
-0.00833993
-0.00845087
-0.00858855
-0.00873992
-0.00889354
-0.00904005
-0.00917241
-0.00928581
-0.00937754
-0.00944663
-0.00949353
-0.0095197
-0.00952737
-0.00951921
-0.00949815
-0.00946719
-0.00942925
-0.00938709
-0.00934316
-0.00929961
-0.00925815
-0.00922011
-0.00918634
-0.00915728
-0.00913284
-0.00911245
-0.00909515
-0.00907943
-0.0090613
-0.00904674
0.000376697
0.000385536
0.000386512
0.000367119
0.000331622
0.000282894
0.000224739
0.000161547
9.74348e-05
3.56599e-05
-2.16691e-05
-7.37152e-05
-0.000120889
-0.000164747
-0.000207868
-0.000253747
-0.000306716
-0.000371904
-0.000455221
-0.000563336
-0.000703621
-0.000884034
-0.00111289
-0.00139856
-0.001749
-0.00217133
-0.00267129
-0.00325289
-0.0039181
-0.0046667
-0.00549627
-0.00640241
-0.00737892
-0.00841812
-0.00951118
-0.0106484
-0.0118196
-0.0130142
-0.0142215
-0.0154311
-0.0166329
-0.017817
-0.0189744
-0.0200964
-0.0211754
-0.022204
-0.0231761
-0.0240859
-0.0249285
-0.0256997
-0.0263959
-0.0270141
-0.0275518
-0.0280071
-0.0283786
-0.0286653
-0.0288669
-0.0289831
-0.0290145
-0.0289616
-0.0288257
-0.0286083
-0.0283114
-0.0279371
-0.0274882
-0.0269677
-0.026379
-0.025726
-0.0250129
-0.0242445
-0.0234259
-0.0225628
-0.0216616
-0.0207293
-0.0197734
-0.0188024
-0.0178256
-0.0168529
-0.015895
-0.0149633
-0.0140695
-0.0132251
-0.0124415
-0.011729
-0.0110963
-0.0105501
-0.0100941
-0.00972932
-0.00945302
-0.00925941
-0.00913974
-0.00908301
-0.00907677
-0.00910809
-0.00916443
-0.00923448
-0.00930865
-0.0093794
-0.00944129
-0.00949083
-0.00952619
-0.00954691
-0.00955355
-0.00954739
-0.00953022
-0.00950413
-0.00947133
-0.00943403
-0.00939438
-0.00935431
-0.00931552
-0.00927939
-0.0092469
-0.00921867
-0.00919482
-0.009175
-0.00915845
-0.00914391
-0.00912805
-0.00911562
0.000489063
0.000494046
0.000489449
0.000463991
0.000422008
0.000366805
0.000302587
0.00023396
0.000165043
9.88869e-05
3.72094e-05
-1.96842e-05
-7.28458e-05
-0.00012457
-0.00017828
-0.000238438
-0.000310498
-0.000400868
-0.000516881
-0.000666717
-0.000859243
-0.00110375
-0.00140956
-0.00178555
-0.00223959
-0.00277802
-0.0034052
-0.00412318
-0.00493161
-0.00582773
-0.00680658
-0.00786129
-0.00898342
-0.0101633
-0.0113905
-0.0126538
-0.0139419
-0.0152436
-0.0165478
-0.0178437
-0.0191215
-0.0203716
-0.0215854
-0.0227552
-0.0238741
-0.0249359
-0.0259352
-0.0268676
-0.027729
-0.0285164
-0.0292269
-0.0298586
-0.0304098
-0.0308792
-0.0312662
-0.0315703
-0.0317914
-0.0319299
-0.0319864
-0.0319617
-0.0318571
-0.0316741
-0.0314143
-0.0310799
-0.0306729
-0.0301961
-0.029652
-0.0290437
-0.0283743
-0.0276474
-0.0268665
-0.0260358
-0.0251596
-0.0242428
-0.0232906
-0.022309
-0.0213046
-0.020285
-0.0192585
-0.0182344
-0.0172229
-0.0162352
-0.0152828
-0.0143777
-0.0135316
-0.0127551
-0.0120577
-0.0114464
-0.0109255
-0.0104958
-0.0101548
-0.0098967
-0.00971259
-0.00959154
-0.00952137
-0.00948966
-0.00948468
-0.00949607
-0.00951528
-0.00953573
-0.00955278
-0.00956346
-0.00956622
-0.0095606
-0.00954695
-0.00952618
-0.0094996
-0.00946875
-0.00943525
-0.00940072
-0.00936669
-0.00933447
-0.00930513
-0.00927936
-0.00925747
-0.00923929
-0.00922426
-0.00921135
-0.00919791
-0.00918762
0.000619338
0.000619704
0.000608715
0.000576791
0.00052815
0.000466424
0.000396102
0.000321861
0.000247668
0.000176212
0.000108672
4.46793e-05
-1.76055e-05
-8.13771e-05
-0.000151086
-0.00023237
-0.000332018
-0.000457915
-0.000618951
-0.000824838
-0.0010858
-0.00141212
-0.00181359
-0.00229893
-0.0028751
-0.0035469
-0.00431656
-0.00518363
-0.00614504
-0.0071953
-0.00832687
-0.00953048
-0.0107956
-0.0121107
-0.013464
-0.0148431
-0.016236
-0.0176311
-0.019017
-0.0203834
-0.0217207
-0.0230203
-0.0242743
-0.0254761
-0.0266197
-0.0277003
-0.0287136
-0.0296562
-0.0305252
-0.0313184
-0.032034
-0.0326708
-0.0332278
-0.0337045
-0.0341006
-0.0344161
-0.0346515
-0.0348072
-0.034884
-0.0348831
-0.0348057
-0.0346531
-0.0344271
-0.0341294
-0.033762
-0.033327
-0.0328267
-0.0322634
-0.0316394
-0.0309573
-0.0302197
-0.0294293
-0.0285889
-0.0277015
-0.0267704
-0.0257993
-0.0247923
-0.0237542
-0.0226908
-0.0216086
-0.0205156
-0.0194208
-0.0183346
-0.0172688
-0.0162359
-0.0152492
-0.0143218
-0.0134662
-0.012693
-0.0120107
-0.011424
-0.0109343
-0.0105386
-0.0102306
-0.0100005
-0.00983656
-0.00972608
-0.00965632
-0.00961558
-0.00959381
-0.00958292
-0.00957679
-0.00957115
-0.00956326
-0.00955163
-0.00953573
-0.0095157
-0.00949219
-0.00946617
-0.0094388
-0.00941127
-0.00938476
-0.00936026
-0.00933851
-0.0093199
-0.0093044
-0.00929162
-0.00928077
-0.00926979
-0.0092615
0.000768092
0.000763117
0.000744981
0.000706297
0.000650951
0.000582727
0.000506242
0.000426073
0.000345862
0.000267771
0.000192289
0.000118217
4.27655e-05
-3.8339e-05
-0.000130773
-0.000241559
-0.000379002
-0.000552589
-0.000772776
-0.00105065
-0.00139743
-0.00182385
-0.00233946
-0.00295198
-0.00366669
-0.0044861
-0.00540975
-0.00643431
-0.0075538
-0.00875998
-0.0100428
-0.0113906
-0.0127912
-0.0142315
-0.0156985
-0.0171791
-0.0186611
-0.0201326
-0.0215828
-0.023002
-0.0243814
-0.0257134
-0.0269914
-0.0282099
-0.0293643
-0.0304508
-0.0314664
-0.0324087
-0.0332759
-0.0340667
-0.03478
-0.0354153
-0.0359723
-0.0364508
-0.0368511
-0.0371736
-0.0374189
-0.0375876
-0.0376809
-0.0376997
-0.0376454
-0.0375195
-0.0373233
-0.0370586
-0.0367273
-0.036331
-0.0358717
-0.0353513
-0.0347716
-0.0341345
-0.0334419
-0.0326954
-0.0318967
-0.0310475
-0.0301494
-0.0292043
-0.0282142
-0.0271814
-0.0261091
-0.0250009
-0.023862
-0.0226985
-0.0215185
-0.0203317
-0.0191498
-0.0179861
-0.0168555
-0.0157739
-0.014757
-0.0138198
-0.0129749
-0.0122318
-0.0115957
-0.0110672
-0.0106419
-0.0103114
-0.0100638
-0.00988556
-0.00976238
-0.00968072
-0.00962859
-0.00959605
-0.00957535
-0.00956081
-0.00954854
-0.0095361
-0.00952216
-0.00950624
-0.00948846
-0.00946935
-0.00944969
-0.00943035
-0.00941217
-0.00939581
-0.00938166
-0.0093698
-0.00935994
-0.00935149
-0.00934288
-0.00933638
0.000935439
0.000924271
0.000898378
0.000852822
0.000790795
0.00071612
0.000633329
0.000546702
0.000459369
0.000372801
0.000286628
0.000198661
0.000104986
5.62709e-08
-0.000123225
-0.000273438
-0.000460522
-0.000695563
-0.000990419
-0.00135719
-0.00180753
-0.00235188
-0.00299874
-0.003754
-0.00462052
-0.00559795
-0.00668277
-0.00786856
-0.00914641
-0.0105054
-0.0119331
-0.013416
-0.0149401
-0.0164915
-0.0180562
-0.0196211
-0.0211739
-0.0227034
-0.0241996
-0.0256537
-0.0270581
-0.0284065
-0.0296938
-0.0309157
-0.032069
-0.0331509
-0.0341596
-0.0350937
-0.0359523
-0.0367347
-0.0374407
-0.0380701
-0.0386231
-0.0391
-0.0395013
-0.0398276
-0.0400797
-0.0402585
-0.0403649
-0.0404002
-0.0403657
-0.0402626
-0.0400925
-0.0398569
-0.0395575
-0.0391958
-0.0387736
-0.0382925
-0.0377539
-0.0371594
-0.0365102
-0.0358074
-0.035052
-0.0342446
-0.0333859
-0.0324762
-0.031516
-0.0305057
-0.029446
-0.0283383
-0.0271845
-0.025988
-0.0247534
-0.0234876
-0.0221996
-0.020901
-0.019606
-0.0183312
-0.0170952
-0.0159176
-0.0148175
-0.0138126
-0.0129171
-0.0121406
-0.0114869
-0.0109539
-0.0105339
-0.0102145
-0.00998066
-0.00981606
-0.00970479
-0.00963256
-0.00958738
-0.00955979
-0.00954275
-0.00953129
-0.00952216
-0.00951341
-0.00950408
-0.00949389
-0.00948304
-0.00947198
-0.00946128
-0.00945145
-0.00944279
-0.00943537
-0.00942899
-0.00942319
-0.00941681
-0.00941181
0.00112089
0.00110248
0.0010683
0.00101595
0.000947362
0.000866249
0.000776849
0.00068293
0.000586927
0.000489439
0.000389073
0.000282476
0.000164426
2.79218e-05
-0.000135722
-0.000336749
-0.000586733
-0.000898193
-0.00128403
-0.00175679
-0.00232782
-0.00300647
-0.00379932
-0.00470969
-0.00573745
-0.00687899
-0.00812753
-0.00947354
-0.0109053
-0.0124093
-0.0139711
-0.0155758
-0.017208
-0.0188532
-0.0204974
-0.0221277
-0.0237325
-0.0253014
-0.0268258
-0.0282981
-0.0297123
-0.0310635
-0.0323479
-0.0335627
-0.0347057
-0.0357754
-0.0367709
-0.0376916
-0.0385372
-0.0393078
-0.0400035
-0.0406247
-0.0411717
-0.0416451
-0.0420457
-0.0423741
-0.0426312
-0.0428179
-0.0429353
-0.0429845
-0.0429668
-0.0428834
-0.0427358
-0.0425255
-0.0422539
-0.0419225
-0.0415329
-0.0410865
-0.0405846
-0.0400285
-0.039419
-0.038757
-0.0380429
-0.037277
-0.036459
-0.0355886
-0.034665
-0.0336874
-0.0326546
-0.0315661
-0.0304212
-0.0292206
-0.0279656
-0.0266596
-0.0253081
-0.0239195
-0.0225053
-0.0210804
-0.0196632
-0.0182753
-0.0169399
-0.0156811
-0.0145216
-0.0134807
-0.0125725
-0.0118041
-0.0111752
-0.0106785
-0.0103005
-0.0100241
-0.00983034
-0.00970051
-0.0096178
-0.0095681
-0.00954026
-0.009526
-0.00951947
-0.00951678
-0.00951554
-0.00951444
-0.00951291
-0.00951088
-0.00950853
-0.00950608
-0.00950371
-0.00950138
-0.00949891
-0.00949595
-0.00949157
-0.00948775
0.00132228
0.00129669
0.00125356
0.00119441
0.00111943
0.0010318
0.00093525
0.000832829
0.00072608
0.000614558
0.000495675
0.000364739
0.000215044
3.79784e-05
-0.000176833
-0.0004413
-0.00076847
-0.00117195
-0.00166513
-0.00226027
-0.0029676
-0.00379449
-0.00474488
-0.00581893
-0.00701309
-0.00832029
-0.00973048
-0.0112311
-0.0128078
-0.0144451
-0.0161267
-0.0178365
-0.0195589
-0.0212791
-0.0229836
-0.0246602
-0.0262986
-0.0278897
-0.0294264
-0.0309027
-0.0323142
-0.0336574
-0.0349299
-0.03613
-0.0372567
-0.0383095
-0.0392881
-0.0401927
-0.0410235
-0.0417809
-0.0424654
-0.0430777
-0.0436182
-0.0440877
-0.044487
-0.0448168
-0.045078
-0.0452715
-0.0453983
-0.0454596
-0.0454564
-0.0453901
-0.045262
-0.0450734
-0.0448257
-0.0445205
-0.0441589
-0.0437424
-0.0432722
-0.0427494
-0.0421747
-0.0415488
-0.040872
-0.0401442
-0.0393649
-0.0385331
-0.0376476
-0.0367067
-0.0357082
-0.03465