/*--------------------------------*- C++ -*----------------------------------*\
| =========                 |                                                 |
| \\      /  F ield         | OpenFOAM: The Open Source CFD Toolbox           |
|  \\    /   O peration     | Version:  2406                                  |
|   \\  /    A nd           | Website:  www.openfoam.com                      |
|    \\/     M anipulation  |                                                 |
\*---------------------------------------------------------------------------*/
FoamFile
{
    version     2.0;
    format      ascii;
    arch        "LSB;label=32;scalar=64";
    class       surfaceScalarField;
    location    "0.3";
    object      ddtCorrDdt0(phi);
}
// * * * * * * * * * * * * * * * * * * * * * * * * * * * * * * * * * * * * * //

dimensions      [0 3 -2 0 0 0 0];

oriented        oriented;

internalField   nonuniform List<scalar> 
32512
(
8.08846390708e-08
-8.08846222928e-08
1.30501438421e-07
-2.91925328276e-07
2.17084153342e-07
-4.8670101044e-07
3.34531916811e-07
-6.70890779967e-07
4.76690095471e-07
-8.42562380253e-07
6.37514118955e-07
-1.0002754243e-06
8.11097984417e-07
-1.14285091587e-06
9.9174821573e-07
-1.26938963594e-06
1.17405009088e-06
-1.37926915843e-06
1.35292662736e-06
-1.47214228712e-06
1.52369035019e-06
-1.54793441525e-06
1.68208646846e-06
-1.60683677105e-06
1.8243270067e-06
-1.64929655037e-06
1.9471168408e-06
-1.6760037462e-06
2.04767103426e-06
-1.68787397213e-06
2.1237244742e-06
-1.68602975227e-06
2.17353386169e-06
-1.67177686729e-06
2.19587299355e-06
-1.64657919146e-06
2.19002278355e-06
-1.61203159606e-06
2.15575552051e-06
-1.56982916446e-06
2.09331414306e-06
-1.52173588834e-06
2.00338810183e-06
-1.46955244929e-06
1.88708542373e-06
-1.4150822242e-06
1.74590129593e-06
-1.36009742728e-06
1.58168499272e-06
-1.30630631428e-06
1.39660482241e-06
-1.25532119398e-06
1.19311082434e-06
-1.2086274864e-06
9.73896258116e-07
-1.16755578677e-06
7.41858594914e-07
-1.1332566538e-06
5.00059557662e-07
-1.10667813177e-06
2.51684313451e-07
-1.08854757557e-06
2.77486414109e-13
-1.07935777954e-06
-2.5168393056e-07
-1.07935772114e-06
-5.00059399572e-07
-1.08854746675e-06
-7.41858443393e-07
-1.10667812206e-06
-9.73895999226e-07
-1.13325673024e-06
-1.19311056563e-06
-1.16755578874e-06
-1.39660472294e-06
-1.20862739203e-06
-1.5816850624e-06
-1.25532111997e-06
-1.74590147238e-06
-1.30630633475e-06
-1.88708567196e-06
-1.36009747909e-06
-2.00338827016e-06
-1.41508237871e-06
-2.09331403459e-06
-1.46955270984e-06
-2.15575526701e-06
-1.52173605684e-06
-2.19002251644e-06
-1.56982921882e-06
-2.19587270605e-06
-1.61203168089e-06
-2.17353359764e-06
-1.64657927478e-06
-2.12372422006e-06
-1.67177679055e-06
-2.04767062807e-06
-1.68602966438e-06
-1.94711629491e-06
-1.68787382231e-06
-1.82432647193e-06
-1.67600347755e-06
-1.68208609414e-06
-1.64929638581e-06
-1.52369023846e-06
-1.60683663348e-06
-1.35292669369e-06
-1.54793433598e-06
-1.17405026407e-06
-1.47214226035e-06
-9.91748421761e-07
-1.37926917815e-06
-8.11098147506e-07
-1.26938970836e-06
-6.37514302505e-07
-1.14285090462e-06
-4.76690343118e-07
-1.00027535595e-06
-3.3453218672e-07
-8.42562321677e-07
-2.17084450443e-07
-6.7089070481e-07
-1.3050177705e-07
-4.86700930353e-07
-8.08850309755e-08
-2.9192516965e-07
-8.14583223013e-08
-8.08847795057e-08
-8.08843504508e-08
8.0884100197e-08
-2.83892284753e-08
1.89813299056e-07
6.20691199899e-08
3.09659908421e-07
1.83712951163e-07
4.31799139023e-07
3.30330750062e-07
5.53786375293e-07
4.9583095013e-07
6.73951193869e-07
6.74252562669e-07
7.90845430578e-07
8.5984534233e-07
9.03146653615e-07
1.04714209746e-06
1.00967060817e-06
1.23102136164e-06
1.10938661596e-06
1.40676132336e-06
1.20143087319e-06
1.57008432127e-06
1.28511784646e-06
1.71719182972e-06
1.35994861853e-06
1.84478986824e-06
1.42561573773e-06
1.95010542796e-06
1.48200404113e-06
2.03089445234e-06
1.52918707818e-06
2.0854420154e-06
1.56741977759e-06
2.11255560438e-06
1.59712644741e-06
2.11155215241e-06
1.61888514191e-06
2.08223996195e-06
1.63340848567e-06
2.02489581512e-06
1.6415213494e-06
1.94023838446e-06
1.64413592104e-06
1.82939856875e-06
1.64222480637e-06
1.6938872914e-06
1.63679286502e-06
1.53556120241e-06
1.62884866162e-06
1.35658675536e-06
1.61937574658e-06
1.15940319201e-06
1.60930511139e-06
9.46684662772e-07
1.59948900132e-06
7.21301761478e-07
1.59067725022e-06
4.86282609957e-07
1.58349628861e-06
2.44773560734e-07
1.57843191145e-06
-9.2898182063e-14
1.57581563782e-06
-2.44773634207e-07
1.5758155313e-06
-4.86282378728e-07
1.57843172421e-06
-7.21301292751e-07
1.58349612196e-06
-9.46684179987e-07
1.59067719864e-06
-1.15940285581e-06
1.59948905613e-06
-1.35658648871e-06
1.60930511775e-06
-1.53556079196e-06
1.61937562029e-06
-1.69388663004e-06
1.62884848283e-06
-1.82939763484e-06
1.63679271398e-06
-1.94023716734e-06
1.64222468992e-06
-2.02489428459e-06
1.64413582505e-06
-2.08223807102e-06
1.64152124497e-06
-2.1115499757e-06
1.63340843837e-06
-2.11255338316e-06
1.61888521778e-06
-2.08544009305e-06
1.59712660961e-06
-2.03089291727e-06
1.56741991336e-06
-1.95010437931e-06
1.52918717342e-06
-1.84478931035e-06
1.48200410109e-06
-1.71719163497e-06
1.42561588923e-06
-1.570084336e-06
1.35994873811e-06
-1.40676128015e-06
1.28511791116e-06
-1.23102120893e-06
1.20143093576e-06
-1.04714191339e-06
1.10938664268e-06
-8.59845118583e-07
1.00967058713e-06
-6.7425230795e-07
9.03146636094e-07
-4.95830663716e-07
7.90845433296e-07
-3.30330438173e-07
6.73951190544e-07
-1.83712633409e-07
5.53786404349e-07
-6.20687810863e-08
4.317991735e-07
2.83895786075e-08
3.09659963325e-07
8.08846510277e-08
1.89813489745e-07
8.08846449743e-08
1.89813485546e-07
-2.83895775595e-08
1.86126077217e-07
-2.88237938082e-07
1.95287839899e-07
-4.95862769161e-07
2.13013210933e-07
-6.88616135685e-07
2.37381107501e-07
-8.66930273315e-07
2.67037692197e-07
-1.02993201618e-06
3.00737466021e-07
-1.17655069515e-06
3.37268753529e-07
-1.30592092273e-06
3.75430452814e-07
-1.41743084908e-06
4.1403393988e-07
-1.51074577489e-06
4.51914400873e-07
-1.58581488265e-06
4.8794700829e-07
-1.64286937902e-06
5.21064872622e-07
-1.68241441692e-06
5.50277014493e-07
-1.70521588753e-06
5.74685065421e-07
-1.7122820241e-06
5.93497302699e-07
-1.70484198882e-06
6.06041825914e-07
-1.68432138717e-06
6.11776777559e-07
-1.65231414118e-06
6.10297424197e-07
-1.61055224614e-06
6.01341735593e-07
-1.56087348741e-06
5.84792324277e-07
-1.50518647916e-06
5.60675418322e-07
-1.44543554105e-06
5.29158116399e-07
-1.38356493369e-06
4.90543569794e-07
-1.32148288458e-06
4.45263802343e-07
-1.26102654152e-06
3.93870491109e-07
-1.2039278884e-06
3.37024079154e-07
-1.15178107329e-06
2.75480561178e-07
-1.10601226395e-06
2.10077572263e-07
-1.06785367585e-06
1.41719954839e-07
-1.03832051984e-06
7.13638789628e-08
-1.01819148529e-06
-3.29543453304e-14
-1.00799386638e-06
-7.13639925926e-08
-1.00799378532e-06
-1.41720100701e-07
-1.01819136872e-06
-2.10077692722e-07
-1.03832051325e-06
-2.75480689938e-07
-1.0678537316e-06
-3.37024206111e-07
-1.10601229194e-06
-3.93870502287e-07
-1.15178109793e-06
-4.45263651245e-07
-1.20392795606e-06
-4.90543517239e-07
-1.26102647456e-06
-5.29158334486e-07
-1.32148268798e-06
-5.60675951796e-07
-1.38356477282e-06
-5.84793079304e-07
-1.44543557031e-06
-6.01342470336e-07
-1.50518665957e-06
-6.10297969474e-07
-1.56087373501e-06
-6.11777294702e-07
-1.61055236335e-06
-6.0604261801e-07
-1.65231393752e-06
-5.93498291745e-07
-1.68432110377e-06
-5.74686085265e-07
-1.70484187595e-06
-5.50277806481e-07
-1.71228211228e-06
-5.2106508895e-07
-1.70521619487e-06
-4.87946805299e-07
-1.68241465961e-06
-4.51914128392e-07
-1.64286930663e-06
-4.14033815529e-07
-1.58581465615e-06
-3.75430471281e-07
-1.51074560986e-06
-3.37268826047e-07
-1.41743082167e-06
-3.00737598156e-07
-1.30592093412e-06
-2.67037890549e-07
-1.17655060868e-06
-2.37381333521e-07
-1.02993191692e-06
-2.13013468474e-07
-8.66930192564e-07
-1.95288156248e-07
-6.8861601541e-07
-1.86126389084e-07
-4.95862694698e-07
-1.89813924438e-07
-2.88237631173e-07
-2.42308845377e-07
-2.83898561922e-08
-2.91925197694e-07
1.30500450125e-07
-2.88237629764e-07
1.86125729528e-07
-2.68928517295e-07
2.90350799017e-07
-2.39833997092e-07
4.0270462273e-07
-2.03226698209e-07
5.17179080175e-07
-1.60597745793e-07
6.3132224639e-07
-1.13275019255e-07
7.43522706366e-07
-6.25419921581e-08
8.52413630856e-07
-9.66281374215e-09
9.56791432194e-07
4.41169328499e-08
1.05560686922e-06
9.75802716118e-08
1.14796753764e-06
1.49553695216e-07
1.23314442951e-06
1.98923923702e-07
1.31057839801e-06
2.44654904712e-07
1.3798847616e-06
2.85804082339e-07
1.44085486598e-06
3.21537128202e-07
1.49345403411e-06
3.51140924768e-07
1.53781598185e-06
3.74034235875e-07
1.57423313916e-06
3.89775579882e-07
1.60314380278e-06
3.98069025254e-07
1.62511504358e-06
3.98767004967e-07
1.64082336792e-06
3.91870546223e-07
1.65103237679e-06
3.77526827436e-07
1.65656852495e-06
3.56024236799e-07
1.65829545766e-06
3.27785292044e-07
1.65708760972e-06
2.93357187385e-07
1.65380385081e-06
2.53400610178e-07
1.64926168359e-06
2.08676645939e-07
1.64421296462e-06
1.60032335068e-07
1.63932156114e-06
1.08384894631e-07
1.63514372308e-06
5.47052091181e-08
1.63211159506e-06
2.61151527448e-13
1.63052059007e-06
-5.47048396708e-08
1.63052063124e-06
-1.0838478831e-07
1.63211166526e-06
-1.6003245671e-07
1.63514378947e-06
-2.08676817158e-07
1.63932156252e-06
-2.53400670757e-07
1.64421291096e-06
-2.9335722462e-07
1.64926166751e-06
-3.27785506931e-07
1.65380390193e-06
-3.56024650599e-07
1.65708763239e-06
-3.77527300719e-07
1.65829536896e-06
-3.91870981848e-07
1.65656836385e-06
-3.98767348012e-07
1.65103218747e-06
-3.98069225199e-07
1.64082312725e-06
-3.89775669867e-07
1.62511488699e-06
-3.74034342377e-07
1.60314388755e-06
-3.51141182674e-07
1.57423344748e-06
-3.21537363358e-07
1.53781609958e-06
-2.85804389371e-07
1.49345420654e-06
-2.4465537574e-07
1.44085508686e-06
-1.98924231348e-07
1.37988474061e-06
-1.49553789506e-07
1.31057829577e-06
-9.75801408137e-08
1.23314426592e-06
-4.41166417128e-08
1.14796744049e-06
9.66316730048e-09
1.05560683319e-06
6.25423364429e-08
9.5679141369e-07
1.13275329466e-07
8.52413641004e-07
1.6059808074e-07
7.43522681618e-07
2.03227029787e-07
6.31322239104e-07
2.39834332819e-07
5.17179100876e-07
2.68928877156e-07
4.0270462711e-07
2.88237962426e-07
2.90350877615e-07
2.91925361026e-07
1.86126094738e-07
1.30501435647e-07
3.09659978706e-07
6.20687709418e-08
2.90350901438e-07
-2.68928865823e-07
2.83322076477e-07
-4.88833949274e-07
2.80771088858e-07
-6.8606514185e-07
2.8034404708e-07
-8.66503225046e-07
2.81144998413e-07
-1.03073296692e-06
2.82680548471e-07
-1.17808624968e-06
2.84622470153e-07
-1.30786285326e-06
2.86703194302e-07
-1.41951157385e-06
2.88677427015e-07
-1.51272000574e-06
2.90306529423e-07
-1.58744399107e-06
2.91353855047e-07
-1.64391670386e-06
2.91586078734e-07
-1.68264664141e-06
2.90777708371e-07
-1.70440751478e-06
2.88717562047e-07
-1.71022187922e-06
2.85213947888e-07
-1.70133837377e-06
2.80100323289e-07
-1.67920776757e-06
2.73240285216e-07
-1.64545410723e-06
2.64530726613e-07
-1.60184268217e-06
2.53904160667e-07
-1.5502469343e-06
2.41330365305e-07
-1.49261270091e-06
2.2681637038e-07
-1.4309215308e-06
2.1040595122e-07
-1.36715450905e-06
1.92178584269e-07
-1.30325553671e-06
1.72246890868e-07
-1.24109484217e-06
1.50753473637e-07
-1.1824344618e-06
1.27868356806e-07
-1.12889596085e-06
1.03785995529e-07
-1.08192990493e-06
7.87211667109e-08
-1.04278884486e-06
5.29048116956e-08
-1.01250417529e-06
2.65803392629e-08
-9.91867026244e-07
-2.25436230612e-13
-9.81413296579e-07
-2.65805985376e-08
-9.81413398812e-07
-5.29047499349e-08
-9.91867218335e-07
-7.87210486612e-08
-1.01250423104e-06
-1.03786065992e-07
-1.04278872586e-06
-1.27868537893e-07
-1.08192981333e-06
-1.50753610499e-07
-1.12889601775e-06
-1.72246980951e-07
-1.18243459353e-06
-1.92178562499e-07
-1.24109490347e-06
-2.10405694755e-07
-1.30325554619e-06
-2.26816018065e-07
-1.36715443353e-06
-2.41330269989e-07
-1.43092132449e-06
-2.53904401837e-07
-1.49261254571e-06
-2.64531180872e-07
-1.55024696032e-06
-2.73240838975e-07
-1.60184269119e-06
-2.80100757555e-07
-1.64545401176e-06
-2.85214185949e-07
-1.67920768714e-06
-2.88717753763e-07
-1.70133831994e-06
-2.90777892064e-07
-1.71022196925e-06
-2.91586293103e-07
-1.7044077795e-06
-2.91354304485e-07
-1.6826466421e-06
-2.90307087585e-07
-1.64391653074e-06
-2.88677839315e-07
-1.58744391185e-06
-2.86703369147e-07
-1.51272007877e-06
-2.84622585064e-07
-1.41951159739e-06
-2.82680767032e-07
-1.30786275218e-06
-2.81145277545e-07
-1.17808610419e-06
-2.8034431534e-07
-1.0307328851e-06
-2.80771366978e-07
-8.66503140912e-07
-2.83322373736e-07
-6.86065001308e-07
-2.90351128036e-07
-4.88833936958e-07
-3.09660395907e-07
-2.68928365478e-07
-4.00118769656e-07
6.20685143545e-08
-4.86701031401e-07
2.17082710741e-07
-4.95862517944e-07
1.95287217054e-07
-4.88833656395e-07
2.83321943351e-07
-4.75052014465e-07
3.8892298492e-07
-4.57462048046e-07
4.99589114724e-07
-4.37240091037e-07
6.11100291695e-07
-4.15029646703e-07
7.21312263333e-07
-3.91277688765e-07
8.28661674985e-07
-3.66346268151e-07
9.31860013517e-07
-3.40561027628e-07
1.02982163115e-06
-3.14232851183e-07
1.12163936663e-06
-2.87666373982e-07
1.20657795769e-06
-2.61161816738e-07
1.28407384685e-06
-2.35012844927e-07
1.35373579343e-06
-2.09502253602e-07
1.41534427575e-06
-1.84896701292e-07
1.46884848335e-06
-1.6144029495e-07
1.5143595801e-06
-1.39349098999e-07
1.55214194969e-06
-1.18805723773e-07
1.58260043629e-06
-9.99546216846e-08
1.60626394257e-06
-8.28985759667e-08
1.6237673147e-06
-6.76963104063e-08
1.63583010968e-06
-5.436131516e-08
1.64323353767e-06
-4.28618542171e-08
1.64679599945e-06
-3.31220764791e-08
1.64734782968e-06
-2.50242173662e-08
1.64570599544e-06
-1.84117270366e-08
1.64264919213e-06
-1.30933876895e-08
1.63889461585e-06
-8.84789644618e-09
1.63507606725e-06
-5.42924347154e-09
1.6317250789e-06
-2.57251497755e-09
1.62925487326e-06
-4.86194584517e-15
1.62794807496e-06
2.57249142958e-09
1.62794812908e-06
5.4292029549e-09
1.62925495734e-06
8.84784223246e-09
1.63172515199e-06
1.30933022887e-08
1.63507609489e-06
1.8411607142e-08
1.63889460648e-06
2.5024091447e-08
1.6426491941e-06
3.31219978889e-08
1.64570600145e-06
4.28616803616e-08
1.64734794579e-06
5.43608776916e-08
1.64679616864e-06
6.76954808254e-08
1.64323376156e-06
8.28973470308e-08
1.63583032513e-06
9.99530984384e-08
1.62376737704e-06
1.18804160281e-07
1.60626381929e-06
1.39347829926e-07
1.58260021523e-06
1.61439557295e-07
1.55214172539e-06
1.84896572546e-07
1.51435909166e-06
2.09502595234e-07
1.46884818533e-06
2.35013305438e-07
1.41534437382e-06
2.61162257958e-07
1.35373578539e-06
2.87666746138e-07
1.28407380961e-06
3.14233104439e-07
1.20657790784e-06
3.40561197356e-07
1.12163934414e-06
3.66346456354e-07
1.02982156957e-06
3.91277885858e-07
9.31859983506e-07
4.15029873186e-07
8.2866165411e-07
4.37240358069e-07
7.21312193192e-07
4.57462325023e-07
6.11100264575e-07
4.75052335316e-07
4.99589083731e-07
4.88833993885e-07
3.88922963482e-07
4.95862784571e-07
2.83322086697e-07
4.86701011033e-07
1.95287867438e-07
2.17084125948e-07
4.31799147971e-07
1.83712649372e-07
4.02704636217e-07
-2.39834349068e-07
3.88923005216e-07
-4.75052319444e-07
3.78969215789e-07
-6.76111350615e-07
3.69454240942e-07
-8.56988247351e-07
3.59283336242e-07
-1.02056206258e-06
3.4808763139e-07
-1.16689054504e-06
3.35825585699e-07
-1.29560081445e-06
3.22592569411e-07
-1.40627856194e-06
3.08542876477e-07
-1.49867031389e-06
2.93849522608e-07
-1.57275063626e-06
2.78683884187e-07
-1.62875106666e-06
2.63204072889e-07
-1.66716683179e-06
2.47549410802e-07
-1.68875285191e-06
2.31839069629e-07
-1.69451154335e-06
2.16173097391e-07
-1.6856724001e-06
2.00633320389e-07
-1.663667987e-06
1.85285152484e-07
-1.63010595161e-06
1.70179672437e-07
-1.58673719748e-06
1.5535475928e-07
-1.53542200586e-06
1.40836835452e-07
-1.4780947924e-06
1.26642428431e-07
-1.41672713642e-06
1.12778761944e-07
-1.35329082177e-06
9.92440267192e-08
-1.28972079359e-06
8.60279569731e-08
-1.22787878788e-06
7.31120959745e-08
-1.16951861575e-06
6.047004846e-08
-1.11625390713e-06
4.80684132183e-08
-1.06952826503e-06
3.58676432377e-08
-1.03058808755e-06
2.38227859947e-08
-1.00045932846e-06
1.18844510829e-08
-9.7992868565e-07
9.21214181906e-14
-9.69528941274e-07
-1.18843850586e-08
-9.69528942315e-07
-2.38229365054e-08
-9.79928673854e-07
-3.58678984878e-08
-1.00045925086e-06
-4.80686159677e-08
-1.03058799804e-06
-6.04702160885e-08
-1.06952822732e-06
-7.31123889295e-08
-1.11625385902e-06
-8.60284304514e-08
-1.16951854752e-06
-9.92444925141e-08
-1.22787883299e-06
-1.12779082572e-07
-1.28972096012e-06
-1.2664257422e-07
-1.35329095326e-06
-1.40836851787e-07
-1.41672705141e-06
-1.55354827548e-07
-1.47809456145e-06
-1.70179955154e-07
-1.53542182313e-06
-1.85285501033e-07
-1.58673714503e-06
-2.00633404899e-07
-1.63010611624e-06
-2.16172905025e-07
-1.66366819406e-06
-2.31838757017e-07
-1.68567246539e-06
-2.47549224175e-07
-1.69451149264e-06
-2.63204337087e-07
-1.68875266213e-06
-2.78684447394e-07
-1.66716653688e-06
-2.93849962794e-07
-1.62875102161e-06
-3.08543035999e-07
-1.57275083824e-06
-3.22592698301e-07
-1.49867041103e-06
-3.35825809363e-07
-1.40627848492e-06
-3.48087897395e-07
-1.29560067073e-06
-3.59283587112e-07
-1.16689042277e-06
-3.69454447056e-07
-1.0205620258e-06
-3.7896943208e-07
-8.5698815304e-07
-3.88923242512e-07
-6.7611118667e-07
-4.02704822397e-07
-4.75052358576e-07
-4.3179954197e-07
-2.39833653248e-07
-5.53443587805e-07
1.83712554678e-07
-6.70890984665e-07
3.34530105931e-07
-6.88615941092e-07
2.13012173959e-07
-6.86064819452e-07
2.80770822275e-07
-6.76111025976e-07
3.78969193729e-07
-6.62854813327e-07
4.86332901959e-07
-6.47800962077e-07
5.96046440243e-07
-6.3156785944e-07
7.05079158195e-07
-6.14422190874e-07
8.11516002661e-07
-5.96468865546e-07
9.1390668696e-07
-5.77737903481e-07
1.01109067236e-06
-5.58227703038e-07
1.10212917103e-06
-5.37926990365e-07
1.18627724785e-06
-5.16826086889e-07
1.26297294255e-06
-4.9492236851e-07
1.33183207327e-06
-4.72222475908e-07
1.39264438124e-06
-4.48742441845e-07
1.44536844993e-06
-4.24507390293e-07
1.49012453626e-06
-3.99549646609e-07
1.52718421266e-06
-3.73907407467e-07
1.55695819674e-06
-3.47623608689e-07
1.5799801414e-06
-3.20744418828e-07
1.59688812081e-06
-2.93318186695e-07
1.60840387374e-06
-2.65394662034e-07
1.61531001804e-06
-2.37024236356e-07
1.61842558475e-06
-2.08257511229e-07
1.61858110618e-06
-1.79144981116e-07
1.61659345447e-06
-1.4973691877e-07
1.61324112448e-06
-1.20083269019e-07
1.60924096918e-06
-9.02336149521e-08
1.60522641418e-06
-6.02371756913e-08
1.60172863676e-06
-3.01430417699e-08
1.59916074237e-06
-7.47351762528e-14
1.59780511299e-06
3.01429655668e-08
1.59780508431e-06
6.02372660921e-08
1.59916064696e-06
9.02338559016e-08
1.60172855754e-06
1.20083586893e-07
1.60522636838e-06
1.49737222632e-07
1.60924097832e-06
1.79145297009e-07
1.61324112136e-06
2.08257947078e-07
1.61659334611e-06
2.37024877431e-07
1.61858101563e-06
2.65395523584e-07
1.61842552716e-06
2.93319287002e-07
1.6153099956e-06
3.20745739314e-07
1.60840386727e-06
3.47624983313e-07
1.59688812983e-06
3.73908586587e-07
1.57998021576e-06
3.99550511209e-07
1.55695829591e-06
4.24508077923e-07
1.52718416218e-06
4.48742721541e-07
1.49012445057e-06
4.72222483136e-07
1.4453684235e-06
4.94922526153e-07
1.39264432775e-06
5.16826193604e-07
1.33183211635e-06
5.37927131022e-07
1.26297287033e-06
5.58227803565e-07
1.18627723327e-06
5.7773800437e-07
1.10212913969e-06
5.96468987757e-07
1.01109058585e-06
6.14422367411e-07
9.13906602161e-07
6.31568119374e-07
8.1151590063e-07
6.47801239878e-07
7.0507906666e-07
6.62855114937e-07
5.9604637973e-07
6.76111360431e-07
4.8633282939e-07
6.86065136733e-07
3.78969184202e-07
6.88616120983e-07
2.80771104572e-07
6.70890769154e-07
2.13013228396e-07
3.34531897373e-07
5.53786381278e-07
3.30330474208e-07
5.17179025242e-07
-2.0322699249e-07
4.99589038917e-07
-4.57462328854e-07
4.86332824215e-07
-6.62855133918e-07
4.72946118264e-07
-8.43601542065e-07
4.57932096351e-07
-1.00554804098e-06
4.40812237464e-07
-1.14977068696e-06
4.21593718183e-07
-1.2763822987e-06
4.00501814438e-07
-1.38518665675e-06
3.77868964706e-07
-1.47603746968e-06
3.54072403674e-07
-1.54895407577e-06
3.29499953581e-07
-1.60417861662e-06
3.04529136659e-07
-1.64219601817e-06
2.79513959345e-07
-1.66373767413e-06
2.5477581419e-07
-1.66977340039e-06
2.30599073069e-07
-1.66149566212e-06
2.07227962105e-07
-1.64029686674e-06
1.84865109939e-07
-1.60774309201e-06
1.63671497579e-07
-1.56554359256e-06
1.43766921631e-07
-1.51551742851e-06
1.25230973363e-07
-1.45955883097e-06
1.08104662447e-07
-1.39960082679e-06
9.23920366935e-08
-1.33757821694e-06
7.80619260204e-08
-1.27539068577e-06
6.505055981e-08
-1.21486740159e-06
5.32642338294e-08
-1.15773228712e-06
4.25819344556e-08
-1.10557162534e-06
3.28582970041e-08
-1.05980463479e-06
2.39272114347e-08
-1.0216569965e-06
1.56058553414e-08
-9.92137969118e-07
7.69833797585e-09
-9.72021174083e-07
-7.29488836709e-14
-9.61830538363e-07
-7.69852559703e-09
-9.61830489328e-07
-1.56061067209e-08
-9.72021086306e-07
-2.39273935915e-08
-9.9213797039e-07
-3.28583526635e-08
-1.02165705849e-06
-4.25819928869e-08
-1.05980459385e-06
-5.32643873669e-08
-1.10557145221e-06
-6.50507621149e-08
-1.157732168e-06
-7.80621833739e-08
-1.21486742622e-06
-9.23923790773e-08
-1.27539077783e-06
-1.08105038521e-07
-1.33757828806e-06
-1.25231198169e-07
-1.39960087929e-06
-1.43766935191e-07
-1.45955882184e-06
-1.63671431038e-07
-1.51551733466e-06
-1.84865040796e-07
-1.5655435411e-06
-2.07228014392e-07
-1.60774314105e-06
-2.30599303541e-07
-1.64029690074e-06
-2.54776121988e-07
-1.66149564587e-06
-2.79514249926e-07
-1.66977336755e-06
-3.04529355581e-07
-1.66373756109e-06
-3.29499913581e-07
-1.64219597932e-06
-3.54072251119e-07
-1.60417868179e-06
-3.77868935679e-07
-1.54895415302e-06
-4.00501981218e-07
-1.47603736866e-06
-4.2159393245e-07
-1.38518653865e-06
-4.40812446499e-07
-1.27638216385e-06
-4.57932245827e-07
-1.14977062671e-06
-4.72946276557e-07
-1.00554799435e-06
-4.86333036747e-07
-8.43601391202e-07
-4.99589327777e-07
-6.62854897374e-07
-5.17179229968e-07
-4.57462462168e-07
-5.53786674012e-07
-2.03226214423e-07
-7.00404816812e-07
3.30330691385e-07
-8.42562772705e-07
4.76688058062e-07
-8.66930238476e-07
2.37379635942e-07
-8.66502970967e-07
2.80343552698e-07
-8.56987940074e-07
3.69454160422e-07
-8.43601194918e-07
4.72946155676e-07
-8.2833089106e-07
5.80776132192e-07
-8.11973003359e-07
6.88721261532e-07
-7.94826006748e-07
7.94369001018e-07
-7.76948116217e-07
8.96028794651e-07
-7.58277575394e-07
9.92420134671e-07
-7.38695359395e-07
1.08254695983e-06
-7.18059353152e-07
1.16564123949e-06
-6.96223873157e-07
1.24113745525e-06
-6.73051561128e-07
1.30865975631e-06
-6.48420752074e-07
1.3680135747e-06
-6.22229990507e-07
1.41917769238e-06
-5.94400560543e-07
1.46229511006e-06
-5.64878846043e-07
1.49766250246e-06
-5.33636264156e-07
1.52571561426e-06
-5.0066962529e-07
1.54701349156e-06
-4.66000773343e-07
1.56221926182e-06
-4.29675725714e-07
1.57207883459e-06
-3.91763643957e-07
1.57739794617e-06
-3.52355559118e-07
1.57901749789e-06
-3.11562820306e-07
1.57778836269e-06
-2.695153793e-07
1.57454601244e-06
-2.26359951399e-07
1.57008569259e-06
-1.82257899264e-07
1.56513891072e-06
-1.37383125326e-07
1.56035163945e-06
-9.19197699835e-08
1.55626529302e-06
-4.60596756915e-08
1.55330065777e-06
7.77406453606e-14
1.55174535235e-06
4.60597883347e-08
1.5517453623e-06
9.19197388452e-08
1.55330069478e-06
1.37382978988e-07
1.55626532413e-06
1.82257731137e-07
1.56035161794e-06
2.26359865574e-07
1.56513884469e-06
2.6951534514e-07
1.57008564795e-06
3.11562701839e-07
1.57454599659e-06
3.52355394992e-07
1.57778832592e-06
3.91763505461e-07
1.57901741404e-06
4.29675675552e-07
1.57739781688e-06
4.66000864893e-07
1.57207867372e-06
5.00669895271e-07
1.56221910466e-06
5.33636636789e-07
1.54701347982e-06
5.64879208889e-07
1.52571572841e-06
5.94400800831e-07
1.49766257312e-06
6.2222994711e-07
1.46229530764e-06
6.48420691417e-07
1.4191776811e-06
6.73051531681e-07
1.36801348403e-06
6.96223995354e-07
1.30865964824e-06
7.18059584507e-07
1.24113727686e-06
7.38695600493e-07
1.16564121862e-06
7.58277856579e-07
1.08254688402e-06
7.76948409096e-07
9.9242003423e-07
7.94826304773e-07
8.96028705833e-07
8.11973304132e-07
7.94368895749e-07
8.28331177781e-07
6.8872118558e-07
8.43601501704e-07
5.80776049359e-07
8.56988239285e-07
4.72946087646e-07
8.66503236206e-07
3.69454185749e-07
8.66930283059e-07
2.80344060625e-07
8.42562378837e-07
2.37381142766e-07
4.7669005901e-07
6.73951224834e-07
4.95830612003e-07
6.31322237543e-07
-1.60598010787e-07
6.11100227423e-07
-4.37240316884e-07
5.96046326156e-07
-6.47801231422e-07
5.80776006714e-07
-8.28331220658e-07
5.63372031751e-07
-9.88144069636e-07
5.43176963188e-07
-1.1295756184e-06
5.20152833826e-07
-1.25335817275e-06
4.94550599807e-07
-1.35958442597e-06
4.66772857143e-07
-1.44825972574e-06
4.37294147594e-07
-1.51947537654e-06
4.06615590966e-07
-1.57350006092e-06
3.75236732224e-07
-1.61081715634e-06
3.43636750103e-07
-1.63213769265e-06
3.12261558595e-07
-1.63839820247e-06
2.81514506931e-07
-1.63074860224e-06
2.51750168802e-07
-1.61053252997e-06
2.23270133704e-07
-1.57926305841e-06
1.96320484695e-07
-1.53859393391e-06
1.7109075937e-07
-1.49028770938e-06
1.47713666328e-07
-1.43618175708e-06
1.26265875099e-07
-1.37815302827e-06
1.06769600004e-07
-1.31808192705e-06
8.9195085996e-08
-1.25781617194e-06
7.34634954865e-08
-1.199135819e-06
5.94507042842e-08
-1.14371949747e-06
4.69917431356e-08
-1.09311265236e-06
3.58854640086e-08
-1.04869834356e-06
2.58996535807e-08
-1.01167119265e-06
1.67767952417e-08
-9.83015126244e-07
8.24013717683e-09
-9.63484516013e-07
-1.06906216757e-13
-9.53590291915e-07
-8.24026892366e-09
-9.53590336324e-07
-1.67767514146e-08
-9.63484616164e-07
-2.58994553198e-08
-9.830152693e-07
-3.58852185669e-08
-1.01167128841e-06
-4.69914572459e-08
-1.04869834703e-06
-5.94503199201e-08
-1.09311258795e-06
-7.34630728139e-08
-1.14371942415e-06
-8.91947682524e-08
-1.19913573457e-06
-1.06769428021e-07
-1.2578161133e-06
-1.26265766491e-07
-1.31808194024e-06
-1.47713520596e-07
-1.37815312657e-06
-1.71090528608e-07
-1.43618182497e-06
-1.96320190978e-07
-1.49028767648e-06
-2.23269878367e-07
-1.53859384724e-06
-2.517500959e-07
-1.57926291778e-06
-2.8151460451e-07
-1.61053239651e-06
-3.12261710398e-07
-1.63074854771e-06
-3.43636838545e-07
-1.63839824225e-06
-3.75236694436e-07
-1.63213769993e-06
-4.06615543579e-07
-1.61081712783e-06
-4.37294216145e-07
-1.57350001096e-06
-4.66773074012e-07
-1.51947529958e-06
-4.94550837261e-07
-1.44825961021e-06
-5.20153052343e-07
-1.35958432814e-06
-5.43177146895e-07
-1.25335807043e-06
-5.63372191143e-07
-1.12957558232e-06
-5.80776242781e-07
-9.88143941498e-07
-5.96046553636e-07
-8.28331080839e-07
-6.11100502406e-07
-6.4780095177e-07
-6.3132236068e-07
-4.37240607074e-07
-6.73951373991e-07
-1.60597206844e-07
-8.39452015249e-07
4.95831328719e-07
-1.00027593884e-06
6.37511977838e-07
-1.02993210072e-06
2.67035794865e-07
-1.03073278026e-06
2.8114423116e-07
-1.02056182987e-06
3.59283209246e-07
-1.00554782597e-06
4.57932148567e-07
-9.88143811307e-07
5.63372111635e-07
-9.69370429586e-07
6.69947871022e-07
-9.49630651834e-07
7.74629216356e-07
-9.29021914548e-07
8.75420060719e-07
-9.07483237572e-07
9.70881461858e-07
-8.84874010263e-07
1.05993773209e-06
-8.61017934583e-07
1.1417851589e-06
-8.3572873581e-07
1.21584825298e-06
-8.08826178285e-07
1.28175719529e-06
-7.80145998179e-07
1.33933339754e-06
-7.49546825114e-07
1.38857852971e-06
-7.16914673966e-07
1.42966296388e-06
-6.82164762771e-07
1.4629125869e-06
-6.452442439e-07
1.48879508976e-06
-6.06132579819e-07
1.50790182765e-06
-5.64841872927e-07
1.52092855382e-06
-5.21416628494e-07
1.52865359271e-06
-4.75932874607e-07
1.53191420336e-06
-4.28497174577e-07
1.53158180525e-06
-3.79244970728e-07
1.52853615274e-06
-3.28338699003e-07
1.52363972793e-06
-2.75965434496e-07
1.51771242345e-06
-2.22334185011e-07
1.51150766648e-06
-1.67672912852e-07
1.50569037539e-06
-1.1222516168e-07
1.50081754651e-06
-5.62463107918e-08
1.49732180717e-06
1.18033906093e-13
1.49549891949e-06
5.6246570704e-08
1.495498904e-06
1.1222543093e-07
1.49732183064e-06
1.67673192478e-07
1.50081755831e-06
2.22334391718e-07
1.50569041645e-06
2.75965548091e-07
1.51150769597e-06
3.28338760694e-07
1.51771244542e-06
3.79245004628e-07
1.52363975348e-06
4.28497117013e-07
1.52853620698e-06
4.75932646216e-07
1.5315818751e-06
5.21416179865e-07
1.53191427483e-06
5.64841255279e-07
1.52865359688e-06
6.06131878211e-07
1.52092848454e-06
6.45243639682e-07
1.50790172137e-06
6.82164466379e-07
1.48879490593e-06
7.1691469617e-07
1.46291234676e-06
7.49547277298e-07
1.42966272698e-06
7.80146367241e-07
1.38857858568e-06
8.08826361934e-07
1.33933348093e-06
8.35728948574e-07
1.28175705761e-06
8.61018048092e-07
1.21584817868e-06
8.84874148954e-07
1.14178512056e-06
9.07483400838e-07
1.05993763523e-06
9.29022090189e-07
9.70881344417e-07
9.49630836235e-07
8.75419957618e-07
9.69370622083e-07
7.74629105709e-07
9.88144035751e-07
6.69947767835e-07
1.00554810352e-06
5.63371977136e-07
1.02056214226e-06
4.57932047577e-07
1.03073303399e-06
3.59283293755e-07
1.02993200672e-06
2.81145085236e-07
1.00027533432e-06
2.67037811496e-07
6.37514006389e-07
7.90845483718e-07
6.74252188955e-07
7.43522709836e-07
-1.13275240215e-07
7.21312187121e-07
-4.1502979972e-07
7.05079075391e-07
-6.3156812306e-07
6.88721151579e-07
-8.11973297222e-07
6.69947764654e-07
-9.69370686123e-07
6.4792122833e-07
-1.10754908396e-06
6.22528374192e-07
-1.22796531635e-06
5.94003473261e-07
-1.33105953693e-06
5.62770698503e-07
-1.41702695104e-06
5.29349876172e-07
-1.48605455777e-06
4.94302878403e-07
-1.53845306442e-06
4.58199423311e-07
-1.57471369862e-06
4.21593622571e-07
-1.59553188601e-06
3.85008097423e-07
-1.60181268047e-06
3.48922175932e-07
-1.59466267806e-06
3.13763370147e-07
-1.57537371944e-06
2.79901209733e-07
-1.54540090886e-06
2.47643058216e-07
-1.50633579059e-06
2.17231587319e-07
-1.45987622997e-06
1.88843489833e-07
-1.40779365763e-06
1.62589585531e-07
-1.35189912563e-06
1.38515906745e-07
-1.29400825159e-06
1.16606154868e-07
-1.23590640893e-06
9.6784808553e-08