/*--------------------------------*- C++ -*----------------------------------*\
| =========                 |                                                 |
| \\      /  F ield         | OpenFOAM: The Open Source CFD Toolbox           |
|  \\    /   O peration     | Version:  2406                                  |
|   \\  /    A nd           | Website:  www.openfoam.com                      |
|    \\/     M anipulation  |                                                 |
\*---------------------------------------------------------------------------*/
FoamFile
{
    version     2.0;
    format      ascii;
    arch        "LSB;label=32;scalar=64";
    class       volScalarField;
    location    "36.2";
    object      p;
}
// * * * * * * * * * * * * * * * * * * * * * * * * * * * * * * * * * * * * * //

dimensions      [0 2 -2 0 0 0 0];

internalField   nonuniform List<scalar> 
3600
(
0.0394763
0.0395015
0.039488
0.0394595
0.0393906
0.0393057
0.0391984
0.0390827
0.0389534
0.0388126
0.0386523
0.0384685
0.0382538
0.0380036
0.037713
0.0373793
0.0370008
0.0365795
0.0361201
0.0356331
0.035136
0.034655
0.0342235
0.0338802
0.0336644
0.0336119
0.03375
0.0340945
0.0346465
0.0353901
0.0362896
0.0372891
0.0383128
0.0392686
0.0400554
0.0405737
0.0407395
0.0404983
0.0398378
0.0387933
0.0374454
0.0359079
0.0343078
0.0327654
0.0313753
0.0301988
0.0292612
0.0285597
0.0280677
0.0277495
0.0275613
0.0274669
0.0274304
0.0274328
0.0274508
0.0274835
0.0275132
0.0275538
0.027581
0.0276132
0.0394519
0.0394778
0.0394578
0.0394293
0.0393632
0.0392861
0.0391881
0.0390834
0.0389653
0.0388365
0.0386895
0.0385215
0.0383257
0.0380981
0.0378335
0.0375286
0.0371799
0.0367872
0.0363535
0.0358878
0.0354046
0.0349249
0.0344765
0.0340948
0.0338197
0.033691
0.0337424
0.0339961
0.0344586
0.0351183
0.0359427
0.0368779
0.0378493
0.0387654
0.0395247
0.0400269
0.040186
0.0399461
0.0392933
0.0382631
0.0369377
0.0354342
0.0338831
0.0324068
0.0310988
0.0300154
0.0291724
0.0285567
0.0281325
0.0278593
0.0276934
0.0276035
0.027559
0.0275472
0.0275475
0.0275632
0.0275747
0.0276008
0.0276126
0.0276452
0.0394609
0.0394947
0.0394723
0.0394417
0.0393715
0.039293
0.0391965
0.0390969
0.0389866
0.0388675
0.0387312
0.038574
0.0383885
0.0381694
0.0379096
0.0376031
0.0372438
0.0368279
0.0363538
0.0358254
0.0352559
0.0346715
0.0341096
0.0336154
0.033236
0.0330156
0.0329898
0.033182
0.0335992
0.03423
0.0350419
0.0359811
0.0369729
0.0379251
0.0387348
0.0392984
0.039525
0.0393517
0.0387571
0.0377704
0.0364702
0.034975
0.0334212
0.0319407
0.030637
0.029574
0.0287708
0.0282125
0.0278572
0.027656
0.0275565
0.0275214
0.027517
0.0275321
0.0275475
0.0275716
0.0275845
0.0276131
0.0276229
0.0276686
0.0394817
0.0395171
0.0394885
0.0394518
0.0393763
0.0392975
0.0392059
0.0391162
0.0390196
0.0389161
0.0387959
0.0386537
0.0384794
0.0382639
0.0379947
0.0376588
0.037242
0.0367339
0.0361322
0.0354475
0.0347037
0.0339369
0.0331924
0.0325212
0.0319746
0.0315997
0.0314339
0.0315018
0.031812
0.032355
0.0331018
0.0340027
0.0349879
0.03597
0.0368491
0.0375214
0.0378912
0.0378862
0.0374713
0.0366605
0.0355188
0.0341558
0.0327061
0.031306
0.0300672
0.0290631
0.0283201
0.0278273
0.0275427
0.027415
0.027386
0.0274137
0.0274591
0.0275104
0.0275481
0.0275846
0.0276004
0.0276303
0.0276356
0.0276898
0.0395426
0.0395754
0.0395386
0.0394909
0.0394066
0.0393226
0.0392321
0.0391477
0.0390592
0.0389631
0.0388462
0.0386976
0.0385006
0.038237
0.037884
0.0374192
0.0368254
0.036097
0.0352429
0.0342876
0.0332698
0.0322384
0.031248
0.0303542
0.0296091
0.0290581
0.0287365
0.0286675
0.0288601
0.0293073
0.0299848
0.0308501
0.0318423
0.0328833
0.0338809
0.0347353
0.0353486
0.0356377
0.035549
0.0350712
0.0342432
0.0331521
0.0319189
0.030677
0.0295453
0.0286096
0.0279105
0.0274501
0.0271966
0.0271052
0.0271198
0.0271965
0.0272912
0.0273877
0.0274617
0.027526
0.0275594
0.0276012
0.0276108
0.0276714
0.0396334
0.0396561
0.0396081
0.0395453
0.0394517
0.0393622
0.039273
0.0391918
0.0391063
0.0390065
0.0388728
0.0386836
0.0384103
0.0380209
0.0374838
0.0367754
0.0358864
0.0348263
0.0336222
0.0323163
0.0309607
0.0296129
0.0283317
0.0271735
0.0261892
0.0254217
0.0249038
0.0246568
0.0246894
0.0249971
0.0255614
0.026349
0.0273113
0.028385
0.0294926
0.0305463
0.031454
0.0321281
0.0324979
0.0325231
0.0322049
0.0315911
0.030771
0.0298588
0.0289703
0.0282003
0.0276056
0.0272059
0.0269855
0.0269131
0.0269425
0.0270366
0.0271527
0.0272735
0.0273712
0.0274557
0.027504
0.0275544
0.0275678
0.0276269
0.0397721
0.0397778
0.0397172
0.0396355
0.0395312
0.0394318
0.0393373
0.0392467
0.039144
0.0390077
0.0388069
0.0385037
0.0380549
0.0374193
0.0365665
0.0354849
0.0341854
0.0326995
0.0310747
0.0293691
0.0276459
0.0259688
0.0243981
0.0229874
0.0217825
0.0208195
0.0201248
0.0197145
0.0195946
0.0197609
0.0201991
0.0208846
0.021782
0.0228449
0.0240159
0.0252274
0.0264039
0.0274661
0.0283384
0.0289585
0.0292893
0.0293287
0.0291137
0.0287164
0.0282286
0.0277428
0.0273302
0.0270332
0.0268604
0.026802
0.0268285
0.0269155
0.0270281
0.0271518
0.0272585
0.0273544
0.0274147
0.0274722
0.027491
0.0275444
0.0399571
0.039938
0.0398647
0.0397617
0.0396466
0.0395327
0.0394235
0.0393041
0.0391516
0.038927
0.0385838
0.0380667
0.0373241
0.0363174
0.0350323
0.0334805
0.0316993
0.0297436
0.0276802
0.0255799
0.0235128
0.0215432
0.0197272
0.0181112
0.0167316
0.0156149
0.0147786
0.0142317
0.0139758
0.0140053
0.0143084
0.0148668
0.015656
0.0166455
0.0177982
0.0190701
0.0204104
0.0217617
0.0230616
0.0242466
0.0252585
0.0260525
0.0266068
0.0269284
0.0270542
0.0270432
0.0269617
0.0268693
0.0268044
0.0267879
0.0268172
0.0268876
0.0269781
0.0270827
0.0271772
0.0272667
0.0273263
0.0273817
0.0274015
0.0274444
0.0401965
0.0401457
0.040061
0.0399341
0.0398047
0.0396648
0.0395201
0.0393358
0.0390781
0.0386855
0.0380966
0.037245
0.0360855
0.0345973
0.0327949
0.0307205
0.0284395
0.0260288
0.02357
0.0211407
0.0188102
0.0166363
0.0146648
0.0129296
0.0114546
0.0102546
0.00933769
0.00870558
0.00835515
0.00827882
0.00846535
0.00890016
0.00956602
0.0104432
0.0115101
0.0127427
0.0141145
0.015595
0.0171484
0.0187313
0.0202928
0.0217746
0.0231166
0.0242639
0.0251781
0.0258477
0.026292
0.0265583
0.0267046
0.0267888
0.0268481
0.0269096
0.0269739
0.0270483
0.0271169
0.0271865
0.0272345
0.0272801
0.027297
0.0273286
0.0404848
0.0403962
0.0403028
0.0401492
0.0399996
0.0398159
0.0396043
0.0393033
0.0388652
0.0382061
0.0372577
0.0359574
0.034283
0.0322451
0.0298944
0.0273048
0.0245672
0.0217739
0.0190124
0.0163566
0.0138665
0.0115859
0.00954575
0.00776568
0.00625718
0.00502515
0.00407008
0.00338855
0.00297446
0.00281901
0.00291154
0.00323966
0.00379017
0.00454948
0.00550474
0.0066442
0.0079577
0.00943591
0.0110687
0.0128414
0.0147302
0.016696
0.0186796
0.0206004
0.0223629
0.0238723
0.0250592
0.0259023
0.0264353
0.0267359
0.0268878
0.0269684
0.0270146
0.0270563
0.0270903
0.0271288
0.0271542
0.0271819
0.0271905
0.0272111
0.0408111
0.0406806
0.0405805
0.0403941
0.0402104
0.039954
0.0396284
0.0391409
0.0384314
0.0374002
0.0359876
0.034152
0.0319088
0.0293078
0.0264374
0.0233986
0.0202992
0.0172351
0.0142876
0.0115172
0.00896697
0.00666349
0.00462239
0.00285043
0.00134965
0.000118096
-0.000848024
-0.00155467
-0.00200894
-0.00221962
-0.00219642
-0.00195017
-0.00149179
-0.000831873
2.06634e-05
0.00105941
0.00228181
0.00368948
0.00528801
0.00708468
0.00908396
0.0112796
0.0136442
0.016117
0.0185963
0.020942
0.0229974
0.0246309
0.0257816
0.0264859
0.0268492
0.0270082
0.0270613
0.0270785
0.0270768
0.02708
0.0270763
0.0270817
0.0270785
0.0270904
0.0411508
0.0409766
0.0408706
0.0406424
0.0404043
0.0400364
0.0395378
0.0387837
0.0377085
0.0362106
0.0342573
0.0318429
0.0290296
0.0259068
0.0225949
0.0192112
0.0158666
0.0126471
0.00961763
0.00681847
0.00427387
0.00199393
-1.78816e-05
-0.00176361
-0.0032466
-0.00447199
-0.00544482
-0.00617127
-0.00665772
-0.00691187
-0.00694192
-0.00675712
-0.00636668
-0.00577963
-0.00500332
-0.00404267
-0.00289837
-0.00156605
-3.4981e-05
0.00171143
0.00369394
0.00593199
0.00843419
0.0111832
0.014117
0.0171128
0.0199843
0.0225102
0.0244955
0.0258497
0.0266218
0.0269752
0.0270865
0.0270985
0.0270667
0.0270344
0.0269986
0.0269796
0.0269619
0.0269679
0.0414651
0.0412468
0.0411314
0.0408464
0.0405237
0.0399959
0.0392572
0.0381555
0.0366328
0.0346024
0.0320749
0.0290894
0.0257562
0.0221976
0.0185541
0.014944
0.0114673
0.00818964
0.00515406
0.00237959
-0.000125844
-0.00236447
-0.00434029
-0.00605993
-0.00752848
-0.00875156
-0.00973347
-0.0104793
-0.010994
-0.0112837
-0.0113548
-0.0112152
-0.0108727
-0.0103352
-0.00960945
-0.00870043
-0.00760945
-0.00633327
-0.0048622
-0.00317943
-0.00126033
0.000925479
0.00340905
0.00621095
0.00932218
0.0126788
0.0161354
0.0194583
0.0223585
0.0245824
0.0260197
0.0267655
0.0270378
0.0270853
0.0270372
0.0269746
0.0269076
0.026865
0.0268323
0.0268344
0.0417041
0.041443
0.0413111
0.0409505
0.0405083
0.0397688
0.0387245
0.037206
0.0351793
0.0325885
0.0294981
0.0259939
0.0222276
0.0183417
0.0144811
0.0107505
0.00722881
0.00395629
0.000954386
-0.0017757
-0.00423737
-0.00644018
-0.00839116
-0.0100981
-0.0115653
-0.0127974
-0.0137967
-0.0145669
-0.0151109
-0.0154332
-0.0155387
-0.0154336
-0.0151245
-0.0146183
-0.0139213
-0.0130388
-0.0119734
-0.0107245
-0.00928603
-0.00764539
-0.00578176
-0.00366554
-0.00125936
0.00147688
0.00457317
0.00802772
0.0117712
0.0156337
0.0193269
0.0224934
0.0248251
0.0262251
0.0268466
0.0270087
0.0269728
0.0268894
0.0267943
0.0267299
0.0266825
0.0266812
0.0418047
0.0415022
0.0413419
0.0408827
0.0402827
0.0392819
0.0378773
0.0358966
0.0333443
0.0302071
0.0266067
0.0226698
0.0185773
0.014476
0.0105005
0.00673131
0.00322218
-1.13924e-05
-0.00296525
-0.00565068
-0.00807704
-0.0102569
-0.0121971
-0.0139046
-0.0153815
-0.0166308
-0.0176529
-0.0184498
-0.0190226
-0.0193747
-0.0195093
-0.0194314
-0.0191463
-0.0186602
-0.0179787
-0.0171073
-0.0160496
-0.0148072
-0.0133777
-0.011754
-0.00992172
-0.00785813
-0.00553019
-0.00289476
9.53976e-05
0.00347992
0.00725985
0.0113594
0.0155716
0.0195483
0.0228549
0.025153
0.0263855
0.0268224
0.0268515
0.0267661
0.0266472
0.0265625
0.026501
0.0264949
0.0417055
0.0413634
0.0411606
0.0405809
0.0397886
0.0384877
0.0366879
0.0342289
0.0311654
0.027532
0.0235033
0.0192358
0.0149244
0.0107051
0.006692
0.0029366
-0.000531312
-0.0037165
-0.00662628
-0.00927904
-0.0116857
-0.0138589
-0.0158033
-0.0175239
-0.0190206
-0.0202945
-0.021344
-0.0221699
-0.0227719
-0.0231519
-0.0233121
-0.0232565
-0.0229891
-0.0225154
-0.0218406
-0.02097
-0.0199078
-0.0186571
-0.0172185
-0.0155894
-0.013762
-0.0117217
-0.00944494
-0.0068955
-0.00402622
-0.000780352
0.00288715
0.00698297
0.0114097
0.015918
0.0200756
0.0233793
0.0254821
0.0264466
0.0266495
0.0265944
0.0264607
0.026354
0.0262784
0.0262637
0.0413446
0.0409646
0.040704
0.0399845
0.0389731
0.0373492
0.0351436
0.0322215
0.0286931
0.02464
0.0202801
0.0157856
0.0113512
0.0070906
0.00309245
-0.000620034
-0.00403643
-0.00717599
-0.0100519
-0.0126853
-0.0150857
-0.0172642
-0.0192224
-0.0209634
-0.0224846
-0.0237857
-0.0248636
-0.025718
-0.0263474
-0.0267529
-0.0269354
-0.0268982
-0.0266446
-0.0261793
-0.0255069
-0.0246327
-0.0235613
-0.0222966
-0.0208412
-0.0191954
-0.0173565
-0.0153171
-0.0130629
-0.0105685
-0.00779655
-0.00469137
-0.00119162
0.00276135
0.0071634
0.0118967
0.0166323
0.0208487
0.0239745
0.0257318
0.0263336
0.0263533
0.02623
0.0260963
0.0260048
0.0259758
0.0406794
0.0402642
0.0399328
0.0390614
0.037817
0.0358669
0.0332707
0.0299277
0.0260042
0.021622
0.0170301
0.0124022
0.00792093
0.00367203
-0.000281353
-0.00394017
-0.00730744
-0.0104113
-0.0132662
-0.0158933
-0.018299
-0.0204921
-0.0224711
-0.0242373
-0.0257862
-0.0271162
-0.028223
-0.0291054
-0.0297609
-0.0301898
-0.0303922
-0.0303707
-0.0301276
-0.0296674
-0.0289944
-0.0281137
-0.02703
-0.0257483
-0.024272
-0.0226038
-0.0207444
-0.0186911
-0.0164378
-0.0139686
-0.0112592
-0.00826429
-0.00492628
-0.00116521
0.0030731
0.00778659
0.0127901
0.0176698
0.0217788
0.0245263
0.0258048
0.0260296
0.0259379
0.0257865
0.0256702
0.0256217
0.0396821
0.039235
0.0388234
0.037796
0.0363181
0.0340577
0.0311072
0.0274053
0.0231687
0.0185505
0.0138172
0.00913283
0.00466082
0.000457396
-0.00343641
-0.00704013
-0.0103646
-0.0134422
-0.0162859
-0.0189151
-0.0213323
-0.0235441
-0.0255463
-0.0273386
-0.0289149
-0.030273
-0.0314073
-0.0323159
-0.0329955
-0.0334457
-0.0336657
-0.0336575
-0.0334229
-0.032966
-0.0322909
-0.0314028
-0.0303067
-0.0290081
-0.0275116
-0.0258208
-0.0239391
-0.0218666
-0.0196027
-0.0171389
-0.0144628
-0.0115415
-0.00833167
-0.00475359
-0.000730241
0.00381453
0.00882825
0.0140634
0.0189461
0.0227333
0.0249001
0.0256055
0.0255537
0.0254189
0.0252637
0.0251906
0.0383546
0.037881
0.0373849
0.0362073
0.0345094
0.0319713
0.0287194
0.0247321
0.0202682
0.0155014
0.0107038
0.00602165
0.00159614
-0.00254372
-0.00637406
-0.00992731
-0.0132175
-0.016278
-0.0191184
-0.0217554
-0.0241882
-0.026421
-0.0284474
-0.0302661
-0.0318696
-0.0332551
-0.0344159
-0.0353497
-0.036052
-0.036522
-0.0367579
-0.0367612
-0.0365333
-0.036078
-0.0353992
-0.0345025
-0.0333934
-0.0320778
-0.0305615
-0.0288491
-0.0269457
-0.0248529
-0.0225742
-0.0201051
-0.0174428
-0.0145649
-0.0114454
-0.00801546
-0.00420124
0.000113115
0.00496736
0.0102821
0.0156484
0.0203327
0.0235184
0.0249584
0.0250818
0.0249562
0.0247825
0.024666
0.0367184
0.0362251
0.0356452
0.0343306
0.0324367
0.0296645
0.0261721
0.0219749
0.0173636
0.0125227
0.00772066
0.00308194
-0.00127445
-0.00534236
-0.00911008
-0.012618
-0.01588
-0.0189286
-0.0217691
-0.0244158
-0.0268642
-0.0291171
-0.0311662
-0.0330095
-0.0346383
-0.0360492
-0.0372349
-0.0381921
-0.0389155
-0.0394036
-0.0396539
-0.0396674
-0.039445
-0.0389903
-0.0383073
-0.0374019
-0.0362801
-0.0349484
-0.0334139
-0.0316819
-0.0297593
-0.0276485
-0.0253557
-0.0228784
-0.0202204
-0.0173666
-0.0143065
-0.0109858
-0.00734783
-0.00326653
0.00134477
0.00654255
0.012099
0.0174249
0.0216182
0.0239222
0.0245314
0.0243525
0.0242213
0.0240279
0.0348218
0.0343175
0.0336592
0.0322278
0.0301699
0.0272137
0.0235446
0.0192102
0.0145224
0.00966831
0.00490622
0.000337861
-0.00393764
-0.00793201
-0.0116412
-0.0151095
-0.0183489
-0.0213893
-0.0242321
-0.026889
-0.0293527
-0.0316246
-0.0336952
-0.0355616
-0.0372144
-0.0386496
-0.0398588
-0.0408383
-0.0415817
-0.0420868
-0.0423505
-0.042373
-0.0421551
-0.0417001
-0.0410122
-0.0400975
-0.038963
-0.0376156
-0.0360639
-0.0343138
-0.0323741
-0.0302477
-0.0279433
-0.0254586
-0.0228026
-0.019963
-0.0169428
-0.0136992
-0.0101988
-0.00632311
-0.00197421
0.00299235
0.00850259
0.0141899
0.019201
0.0224477
0.0237918
0.0236181
0.023538
0.0232655
0.032725
0.0322192
0.0314911
0.0299662
0.027779
0.0246893
0.0209028
0.0164938
0.011786
0.00696332
0.00227027
-0.00221266
-0.00640296
-0.0103253
-0.0139799
-0.0174124
-0.0206313
-0.0236641
-0.0265081
-0.029173
-0.0316492
-0.0339372
-0.0360263
-0.0379131
-0.0395874
-0.0410446
-0.0422754
-0.0432752
-0.044037
-0.0445578
-0.0448336
-0.0448643
-0.0446502
-0.0441945
-0.0435019
-0.0425783
-0.0414317
-0.0400697
-0.0385023
-0.036736
-0.0347819
-0.0326427
-0.03033
-0.0278409
-0.0251883
-0.0223604
-0.01937
-0.0161822
-0.0127865
-0.00907929
-0.00497546
-0.000288284
0.00502184
0.0108089
0.0163621
0.0205493
0.0226893
0.0227964
0.0226701
0.0223755
0.0305032
0.0300064
0.0292195
0.027626
0.025345
0.0221698
0.018319
0.0138884
0.00920493
0.0044459
-0.000159714
-0.00454985
-0.00865522
-0.0125092
-0.0161137
-0.0195136
-0.022714
-0.0257393
-0.0285837
-0.0312548
-0.0337415
-0.0360435
-0.0381489
-0.0400541
-0.0417481
-0.0432254
-0.0444762
-0.045495
-0.0462739
-0.046809
-0.0470959
-0.047134
-0.0469232
-0.0464667
-0.0457692
-0.0448371
-0.0436793
-0.0423036
-0.0407219
-0.0389409
-0.0369744
-0.0348248
-0.0325071
-0.0300166
-0.0273709
-0.0245558
-0.0215925
-0.0184488
-0.0151351
-0.011562
-0.00767163
-0.00326624
0.0017618
0.00743788
0.0132684
0.0182412
0.0211681
0.0218595
0.0215959
0.0213422
0.0282306
0.0277532
0.026919
0.0252806
0.0229376
0.0197178
0.0158454
0.0114325
0.00680307
0.00212646
-0.0023839
-0.00668067
-0.0107046
-0.0144944
-0.018052
-0.0214207
-0.024602
-0.0276178
-0.0304596
-0.0331334
-0.0356268
-0.0379389
-0.0400572
-0.0419775
-0.0436879
-0.0451826
-0.0464508
-0.0474861
-0.0482799
-0.0488278
-0.0491246
-0.0491691
-0.0489613
-0.0485039
-0.0478022
-0.0468624
-0.0456947
-0.0443068
-0.0427128
-0.0409193
-0.0389429
-0.0367854
-0.0344657
-0.0319772
-0.0293421
-0.026543
-0.0236081
-0.0205042
-0.0172593
-0.0137943
-0.0100847
-0.00593813
-0.00122449
0.00420104
0.0100839
0.0155759
0.0192799
0.020679
0.0203469
0.0201295
0.0259843
0.0255366
0.0246671
0.0230057
0.0206287
0.0173991
0.013539
0.00917331
0.00461837
3.51859e-05
-0.00437744
-0.00858328
-0.0125307
-0.0162608
-0.0197749
-0.0231138
-0.0262762
-0.0292813
-0.0321186
-0.0347928
-0.0372905
-0.0396103
-0.0417389
-0.0436717
-0.0453963
-0.046906
-0.0481892
-0.0492391
-0.0500461
-0.0506051
-0.0509106
-0.0509608
-0.0507557
-0.0502975
-0.0495922
-0.0486456
-0.0474694
-0.0460709
-0.0444666
-0.0426625
-0.0406785
-0.0385155
-0.0361966
-0.033713
-0.0310922
-0.0283125
-0.0254095
-0.0223455
-0.0191639
-0.0157899
-0.012234
-0.00831463
-0.00391644
0.0011864
0.00693738
0.0126728
0.0170921
0.019156
0.0189826
0.0187178
0.0238303
0.0234217
0.0225278
0.0208615
0.0184726
0.0152587
0.011434
0.00713312
0.00266162
-0.0018265
-0.00614558
-0.0102668
-0.0141442
-0.0178192
-0.0212923
-0.0246016
-0.0277436
-0.0307351
-0.0335645
-0.0362352
-0.0387332
-0.0410565
-0.0431915
-0.0451329
-0.0468679
-0.048389
-0.049684
-0.0507454
-0.0515631
-0.0521311
-0.0524438
-0.0524985
-0.0522956
-0.0518367
-0.0511286
-0.0501764
-0.0489935
-0.0475863
-0.0459742
-0.0441617
-0.0421729
-0.0400067
-0.0376914
-0.0352152
-0.032612
-0.029855
-0.0269877
-0.0239659
-0.0208466
-0.0175545
-0.0141324
-0.0104102
-0.00631043
-0.00155527
0.0039252
0.00967967
0.0146581
0.0172942
0.0175204
0.0171074
0.0218297
0.0214691
0.0205618
0.018906
0.016523
0.0133444
0.0095714
0.00534669
0.000962686
-0.00343196
-0.00766312
-0.0117065
-0.01552
-0.0191445
-0.0225793
-0.0258599
-0.0289813
-0.0319582
-0.0347778
-0.0374429
-0.039939
-0.0422633
-0.044402
-0.0463494
-0.0480919
-0.0496216
-0.0509259
-0.0519963
-0.0528225
-0.0533978
-0.0537163
-0.0537748
-0.0535739
-0.0531144
-0.0524042
-0.0514475
-0.0502595
-0.0488455
-0.0472278
-0.0454091
-0.0434181
-0.0412509
-0.0389418
-0.0364751
-0.0338923
-0.0311605
-0.0283325
-0.0253556
-0.0223004
-0.0190861
-0.0157851
-0.0122356
-0.0084092
-0.00399986
0.00112038
0.00672539
0.0120327
0.0151477
0.0158966
0.0152928
0.0200278
0.0197226
0.0188114
0.0171782
0.0148127
0.0116817
0.00796824
0.00382242
-0.000477706
-0.00478659
-0.00893982
-0.0129147
-0.016672
-0.0202507
-0.0236496
-0.0269017
-0.0300009
-0.0329605
-0.0357673
-0.0384231
-0.0409132
-0.0432345
-0.0453729
-0.0473219
-0.049068
-0.0506023
-0.0519122
-0.0529882
-0.05382
-0.0544
-0.0547226
-0.0547836
-0.0545841
-0.054124
-0.0534124
-0.0524522
-0.0512608
-0.0498418
-0.0482208
-0.0463982
-0.0444075
-0.0422412
-0.0399407
-0.0374852
-0.0349249
-0.0322201
-0.029434
-0.0265043
-0.0235155
-0.0203776
-0.0171903
-0.013795
-0.0102162
-0.00613688
-0.00142246
0.00390859
0.00929808
0.0127847
0.0140348
0.0132781
0.0184623
0.0182197
0.0173146
0.0157142
0.0133759
0.0103011
0.00665212
0.00258568
-0.001635
-0.00586556
-0.00994971
-0.0138643
-0.0175721
-0.0211096
-0.0244754
-0.0277001
-0.0307774
-0.033719
-0.0365119
-0.0391568
-0.0416393
-0.0439554
-0.0460911
-0.0480392
-0.0497862
-0.0513226
-0.0526354
-0.0537147
-0.0545501
-0.055133
-0.0554585
-0.0555209
-0.0553227
-0.0548619
-0.0541497
-0.0531868
-0.0519937
-0.0505711
-0.0489489
-0.047124
-0.0451356
-0.0429719
-0.0406818
-0.0382385
-0.0357023
-0.0330251
-0.0302826
-0.027401
-0.0244806
-0.0214185
-0.0183408
-0.015086
-0.0117315
-0.00795941
-0.0036634
0.00130672
0.00656487
0.0102891
0.0119337
0.0111096
0.0171543
0.0169792
0.0160894
0.0145299
0.0122241
0.00920951
0.00562463
0.00163295
-0.00251744
-0.00668111
-0.0107082
-0.0145729
-0.0182392
-0.0217406
-0.025076
-0.0282739
-0.0313284
-0.0342501
-0.0370264
-0.0396573
-0.0421287
-0.0444359
-0.0465651
-0.0485085
-0.0502525
-0.0517871
-0.0530994
-0.0541785
-0.0550146
-0.0555981
-0.0559245
-0.055987
-0.0557892
-0.0553275
-0.054615
-0.0536501
-0.0524563
-0.0510314
-0.0494096
-0.0475838
-0.0455995
-0.0434394
-0.0411608
-0.0387302
-0.0362185
-0.0335686
-0.0308699
-0.028036
-0.0251845
-0.0221969
-0.0192259
-0.0161006
-0.0129508
-0.00945932
-0.00557234
-0.00101368
0.00395538
0.00776938
0.00968429
0.00887838
0.0161186
0.0160155
0.0151511
0.013641
0.0113736
0.00842291
0.00490253
0.000982413
-0.0031043
-0.00720962
-0.0111887
-0.0150115
-0.0186429
-0.022113
-0.025421
-0.028594
-0.0316266
-0.0345287
-0.0372882
-0.0399045
-0.0423639
-0.044661
-0.0467823
-0.0487192
-0.0504585
-0.0519892
-0.0532991
-0.0543763
-0.0552116
-0.0557941
-0.0561206
-0.0561824
-0.0559849
-0.0555221
-0.0548099
-0.0538433
-0.05265
-0.0512233
-0.0496032
-0.0477772
-0.0457979
-0.0436416
-0.0413751
-0.0389564
-0.0364689
-0.0338445
-0.0311886
-0.0283999
-0.0256162
-0.0227001
-0.0198329
-0.016827
-0.013865
-0.0106259
-0.00712545
-0.00299535
0.00158301
0.00534847
0.00742399
0.00669446
0.0153537
0.0153243
0.014495
0.0130417
0.0108166
0.00793144
0.00447342
0.000619272
-0.00341297
-0.007471
-0.0114135
-0.0152046
-0.0188091
-0.0222533
-0.0255372
-0.0286864
-0.0316969
-0.0345782
-0.0373191
-0.0399185
-0.0423633
-0.0446475
-0.0467579
-0.0486853
-0.0504168
-0.0519407
-0.0532454
-0.054318
-0.0551502
-0.0557296
-0.0560546
-0.0561142
-0.0559164
-0.0554518
-0.0547398
-0.0537714
-0.052579
-0.0511507
-0.0495329
-0.0477065
-0.0457326
-0.0435793
-0.0413245
-0.0389158
-0.036451
-0.033849
-0.0312331
-0.0284853
-0.0257663
-0.0229165
-0.0201484
-0.0172516
-0.0144618
-0.0114465
-0.00830252
-0.00459131
-0.000459127
0.00314593
0.00528854
0.00466273
0.0148553
0.0148996
0.0141167
0.0127301
0.0105545
0.00773912
0.00434536
0.000556106
-0.00342548
-0.00744215
-0.0113548
-0.0151209
-0.0187043
-0.0221272
-0.0253906
-0.0285187
-0.0315091
-0.034371
-0.0370942
-0.0396775
-0.0421081
-0.0443796
-0.0464791
-0.0483967
-0.05012
-0.0516366
-0.0529355
-0.0540026
-0.0548313
-0.055407
-0.0557302
-0.0557873
-0.0555891
-0.0551225
-0.054411
-0.0534408
-0.0522496
-0.0508195
-0.049204
-0.0473764
-0.0454074
-0.0432555
-0.0410108
-0.0386091
-0.0361642
-0.0335798
-0.0309998
-0.0282864
-0.0256267
-0.0228355
-0.02016
-0.0173603
-0.0147277
-0.0119073
-0.00908631
-0.00576575
-0.00210081
0.00126395
0.00339043
0.00287217
0.0146029
0.014717
0.0139911
0.0126807
0.0105616
0.00782032
0.00449225
0.000766468
-0.00316927
-0.0071518
-0.0110433
-0.0147928
-0.0183623
-0.0217696
-0.025016
-0.0281248
-0.0310957
-0.0339378
-0.0366426
-0.0392084
-0.0416236
-0.0438808
-0.0459679
-0.047874
-0.0495878
-0.0510952
-0.052387
-0.0534472
-0.054271
-0.0548416
-0.0551622
-0.0552156
-0.0550164
-0.0545469
-0.0538356
-0.0528626
-0.0516723
-0.0502392
-0.0486253
-0.0467948
-0.0448292
-0.0426757
-0.0404386
-0.0380396
-0.0356104
-0.0330372
-0.030487
-0.0277996
-0.0251916
-0.0224486
-0.0198568
-0.0171401
-0.014649
-0.0119948
-0.00946201
-0.00649244
-0.00329148
-0.00021643
0.00181842
0.00139711
0.0145771
0.0147547
0.0140982
0.0128766
0.0108274
0.00816962
0.00491543
0.00125876
-0.00262799
-0.00657633
-0.0104487
-0.0141852
-0.0177451
-0.0211409
-0.0243743
-0.0274675
-0.030422
-0.0332471
-0.035936
-0.0384867
-0.0408886
-0.0431335
-0.0452102
-0.0471065
-0.0488122
-0.0503118
-0.0515977
-0.0526518
-0.0534718
-0.0540379
-0.0543566
-0.0544066
-0.054207
-0.0537346
-0.0530238
-0.0520474
-0.0508577
-0.0494203
-0.047807
-0.0459711
-0.0440068
-0.0418479
-0.0396146
-0.0372125
-0.0347936
-0.0322235
-0.0296956
-0.0270234
-0.0244576
-0.0217496
-0.0192302
-0.0165799
-0.0142138
-0.0116966
-0.00941752
-0.00675286
-0.00399581
-0.0012331
0.000644124
0.000302167
0.0147424
0.0149719
0.0143956
0.0132746
0.0113097
0.00874597
0.00557461
0.00199371
-0.00184062
-0.00575469
-0.00961094
-0.0133392
-0.0168949
-0.020284
-0.0235081
-0.0265882
-0.0295279
-0.0323368
-0.0350103
-0.0375461
-0.0399349
-0.0421677
-0.0442343
-0.0461211
-0.0478193
-0.0493113
-0.0505918
-0.0516398
-0.0524563
-0.0530176
-0.0533345
-0.0533806
-0.0531805
-0.0527042
-0.0519932
-0.051012
-0.0498218
-0.0483778
-0.0467631
-0.0449184
-0.0429521
-0.0407827
-0.0385486
-0.0361361
-0.0337205
-0.0311438
-0.0286289
-0.0259592
-0.0234239
-0.0207351
-0.0182744
-0.0156715
-0.0134125
-0.0110023
-0.00894348
-0.00653419
-0.00418957
-0.00173859
-7.17473e-05
-0.000353315
0.0150699
0.0153383
0.0148539
0.0138482
0.0119897
0.00953766
0.00646696
0.00297737
-0.000790938
-0.00466128
-0.0084957
-0.0122141
-0.0157665
-0.019152
-0.022371
-0.0254425
-0.0283721
-0.0311694
-0.0338319
-0.0363571
-0.0387374
-0.0409623
-0.0430232
-0.0449044
-0.046599
-0.0480868
-0.0493655
-0.0504102
-0.0512262
-0.0517847
-0.0521022
-0.0521455
-0.0519464
-0.0514664
-0.050756
-0.0497692
-0.048578
-0.0471251
-0.0455072
-0.0436498
-0.0416781
-0.0394923
-0.0372517
-0.0348204
-0.0324002
-0.0298052
-0.0272927
-0.0246105
-0.0220923
-0.0194045
-0.016987
-0.0144094
-0.0122387
-0.00990474
-0.00803386
-0.00582847
-0.00385731
-0.00169702
-0.000276194
-0.000513308
0.0155144
0.0158049
0.0154193
0.0145403
0.0128105
0.0104884
0.00753702
0.00415582
0.000468222
-0.00334749
-0.00715406
-0.0108607
-0.0144109
-0.0177957
-0.0210129
-0.024079
-0.0270013
-0.0297894
-0.0324432
-0.03496
-0.037334
-0.0395534
-0.0416112
-0.0434892
-0.0451832
-0.0466692
-0.0479487
-0.048992
-0.0498098
-0.0503667
-0.0506862
-0.050727
-0.0505295
-0.0500452
-0.049335
-0.0483406
-0.047147
-0.0456821
-0.0440582
-0.0421831
-0.0402014
-0.037992
-0.0357382
-0.0332782
-0.0308442
-0.0282178
-0.0256954
-0.0229839
-0.0204677
-0.0177602
-0.0153686
-0.0127922
-0.0106899
-0.00839991
-0.00668647
-0.00463227
-0.00299124
-0.00108249
7.6328e-05
-0.000125709
0.0160478
0.0163458
0.0160636
0.0153238
0.0137514
0.0115853
0.00878181
0.00553572
0.00195521
-0.00178394
-0.00554568
-0.00923022
-0.0127737
-0.0161579
-0.0193766
-0.0224428
-0.0253644
-0.0281503
-0.0308028
-0.0333183
-0.0356933
-0.037914
-0.0399759
-0.0418574
-0.0435575
-0.0450477
-0.0463341
-0.047381
-0.0482056
-0.0487647
-0.0490902
-0.049131
-0.0489379
-0.0484502
-0.0477415
-0.0467389
-0.0455427
-0.0440631
-0.0424311
-0.0405334
-0.0385375
-0.0362969
-0.034023
-0.0315235
-0.0290656
-0.0263933
-0.0238476
-0.0210882
-0.0185575
-0.0158078
-0.0134234
-0.0108217
-0.00876769
-0.00648818
-0.00490372
-0.00294716
-0.00159151
0.000120712
0.00102167
0.000854789
0.0166227
0.0169141
0.0167295
0.0161347
0.0147426
0.0127571
0.0101291
0.00704586
0.00359989
-3.79463e-05
-0.0037358
-0.00738535
-0.0109155
-0.0142972
-0.0175191
-0.0205888
-0.023514
-0.0263024
-0.0289585
-0.0314776
-0.033859
-0.036086
-0.0381577
-0.0400476
-0.0417596
-0.0432586
-0.0445572
-0.0456117
-0.0464475
-0.0470115
-0.0473463
-0.0473884
-0.0472014
-0.0467101
-0.0460033
-0.0449906
-0.0437905
-0.0422923
-0.040649
-0.0387228
-0.0367072
-0.0344266
-0.0321247
-0.0295735
-0.0270806
-0.0243463
-0.0217629
-0.0189351
-0.0163723
-0.0135559
-0.0111591
-0.0085041
-0.00647799
-0.00417447
-0.00269323
-0.000780257
0.000333169
0.00191716
0.00258236
0.00246248
0.0172251
0.0175022
0.0174049
0.01696
0.015772
0.0139978
0.0115821
0.00869859
0.00542661
0.00192632
-0.00167605
-0.00526778
-0.00877038
-0.0121439
-0.0153697
-0.0184484
-0.0213861
-0.024187
-0.026858
-0.0293915
-0.0317907
-0.0340345
-0.0361267
-0.0380348
-0.0397686
-0.041285
-0.0426048
-0.0436739
-0.0445286
-0.0451031
-0.0454531
-0.0455002
-0.0453239
-0.0448308
-0.0441284
-0.0431053
-0.0419018
-0.0403825
-0.0387264
-0.0367662
-0.0347268
-0.0323975
-0.0300602
-0.0274448
-0.0249058
-0.0220924
-0.0194562
-0.0165385
-0.0139253
-0.0110162
-0.00858728
-0.00584927
-0.00383158
-0.0014687
-6.83932e-05
0.0018552
0.00276488
0.00429939
0.00476374
0.00471598
0.0178096
0.0180657
0.0180355
0.0177333
0.016759
0.0152206
0.0130488
0.0104016
0.00734305
0.00402048
0.000549219
-0.0029558
-0.00641153
-0.0097659
-0.0129925
-0.0160819
-0.0190378
-0.0218587
-0.0245536
-0.0271106
-0.0295372
-0.0318067
-0.0339291
-0.0358637
-0.0376284
-0.0391695
-0.0405186
-0.0416084
-0.0424887
-0.0430781
-0.0434486
-0.0435033
-0.0433408
-0.0428464
-0.04215
-0.0411148
-0.0399074
-0.038363
-0.0366912
-0.0346902
-0.0326216
-0.0302337
-0.0278525
-0.0251588
-0.0225618
-0.0196509
-0.0169462
-0.0139153
-0.011233
-0.00820399
-0.00572308
-0.00287153
-0.000844081
0.00161402
0.00295145
0.00493974
0.00567658
0.00724787
0.0075517
0.00761544
0.0183868
0.0186217
0.0186407
0.0184711
0.0177164
0.0164386
0.0145488
0.0121817
0.00938667
0.0062918
0.00299951
-0.000379986
-0.00376043
-0.00707971
-0.0103018
-0.0134055
-0.0163894
-0.0192437
-0.0219785
-0.0245749
-0.0270458
-0.0293565
-0.0315248
-0.0334993
-0.035309
-0.0368864
-0.038277
-0.039397
-0.0403132
-0.0409247
-0.0413239
-0.0413911
-0.0412489
-0.0407558
-0.0400696
-0.0390226
-0.0378135
-0.0362416
-0.0345539
-0.0325068
-0.0304058
-0.0279502
-0.0255183
-0.022733
-0.020067
-0.01704
-0.0142519
-0.0110842
-0.00831459
-0.00513775
-0.00258602
0.00041029
0.00246364
0.00505321
0.00634095
0.00844785
0.00903276
0.0107318
0.0109117
0.0111411
0.0189066
0.0191159
0.0191637
0.019101
0.0185533
0.0175463
0.0159654
0.0139197
0.0114366
0.00862448
0.00556459
0.00235943
-0.000908456
-0.00416664
-0.00737147
-0.010486
-0.0135033
-0.0164006
-0.0191892
-0.0218392
-0.0243706
-0.0267364
-0.0289661
-0.0309932
-0.0328617
-0.0344859
-0.0359298
-0.0370881
-0.03805
-0.0386894
-0.039125
-0.0392081
-0.0390915
-0.0386008
-0.037928
-0.0368677
-0.0356578
-0.0340542
-0.0323491
-0.0302487
-0.028111
-0.0255768
-0.0230866
-0.0201944
-0.017448
-0.014285
-0.0113982
-0.00806901
-0.00519438
-0.00184095
0.000799247
0.00397218
0.00606516
0.00882313
0.0100693
0.0123493
0.0127921
0.0147135
0.0147945
0.0152581
0.0194154
0.0196014
0.019668
0.0196875
0.019331
0.0185978
0.0173539
0.0156722
0.013557
0.0110874
0.00832185
0.00534592
0.00223562
-0.00093125
-0.00410289
-0.00722563
-0.0102845
-0.0132396
-0.0161024
-0.0188276
-0.0214429
-0.0238855
-0.0261986
-0.0282969
-0.0302435
-0.0319296
-0.0334431
-0.0346516
-0.0356726
-0.0363488
-0.0368316
-0.0369367
-0.0368543
-0.0363694
-0.0357164
-0.0346437
-0.0334372
-0.0318001
-0.0300795
-0.0279207
-0.0257452
-0.0231237
-0.0205707
-0.0175585
-0.0147232
-0.0114059