/*--------------------------------*- C++ -*----------------------------------*\
| =========                 |                                                 |
| \\      /  F ield         | OpenFOAM: The Open Source CFD Toolbox           |
|  \\    /   O peration     | Version:  2406                                  |
|   \\  /    A nd           | Website:  www.openfoam.com                      |
|    \\/     M anipulation  |                                                 |
\*---------------------------------------------------------------------------*/
FoamFile
{
    version     2.0;
    format      ascii;
    arch        "LSB;label=32;scalar=64";
    class       surfaceScalarField;
    location    "3.3";
    object      phi;
}
// * * * * * * * * * * * * * * * * * * * * * * * * * * * * * * * * * * * * * //

dimensions      [0 3 -1 0 0 0 0];

oriented        oriented;

internalField   nonuniform List<scalar> 
28560
(
2.52697e-09
-2.52799e-09
-4.34053e-10
3.21139e-09
-1.04796e-08
1.01082e-08
-2.72036e-08
1.69977e-08
-4.92487e-08
2.22291e-08
-7.52768e-08
2.63921e-08
-1.04247e-07
2.9273e-08
-1.35209e-07
3.13694e-08
-1.67547e-07
3.27055e-08
-2.00707e-07
3.35849e-08
-2.3437e-07
3.40621e-08
-2.68251e-07
3.43105e-08
-3.02208e-07
3.43714e-08
-3.36117e-07
3.43367e-08
-3.69928e-07
3.42275e-08
-4.03591e-07
3.40871e-08
-4.37097e-07
3.39216e-08
-4.70427e-07
3.37485e-08
-5.0358e-07
3.35666e-08
-5.36549e-07
3.33813e-08
-5.69329e-07
3.31893e-08
-6.01913e-07
3.29914e-08
-6.34293e-07
3.27844e-08
-6.66459e-07
3.25677e-08
-6.98399e-07
3.2339e-08
-7.30101e-07
3.20973e-08
-7.6155e-07
3.18409e-08
-7.9273e-07
3.15689e-08
-8.23625e-07
3.12799e-08
-8.54217e-07
3.09732e-08
-8.84487e-07
3.06476e-08
-9.14417e-07
3.03022e-08
-9.43985e-07
2.99361e-08
-9.73171e-07
2.95483e-08
-1.00195e-06
2.91379e-08
-1.0303e-06
2.87042e-08
-1.0582e-06
2.82461e-08
-1.08563e-06
2.77628e-08
-1.11254e-06
2.72534e-08
-1.13893e-06
2.67172e-08
-1.16477e-06
2.61532e-08
-1.19002e-06
2.55606e-08
-1.21465e-06
2.49386e-08
-1.23864e-06
2.42866e-08
-1.26196e-06
2.36037e-08
-1.28457e-06
2.28894e-08
-1.30644e-06
2.21428e-08
-1.32754e-06
2.13635e-08
-1.34784e-06
2.0551e-08
-1.36731e-06
1.97047e-08
-1.3859e-06
1.88242e-08
-1.4036e-06
1.79093e-08
-1.42035e-06
1.69597e-08
-1.43613e-06
1.59752e-08
-1.45091e-06
1.49558e-08
-1.46464e-06
1.39015e-08
-1.4773e-06
1.28125e-08
-1.48884e-06
1.16891e-08
-1.49925e-06
1.05316e-08
-1.50848e-06
9.34052e-09
-1.5165e-06
8.11658e-09
-1.52327e-06
6.86052e-09
-1.52878e-06
5.57327e-09
-1.53299e-06
4.25589e-09
-1.53586e-06
2.90958e-09
-1.53738e-06
1.53571e-09
-1.53752e-06
1.35779e-10
-1.53625e-06
-1.28857e-09
-1.53355e-06
-2.73553e-09
-1.52939e-06
-4.20316e-09
-1.52378e-06
-5.68939e-09
-1.51667e-06
-7.19199e-09
-1.50807e-06
-8.70861e-09
-1.49796e-06
-1.02368e-08
-1.48633e-06
-1.1774e-08
-1.47318e-06
-1.33174e-08
-1.4585e-06
-1.48643e-08
-1.44228e-06
-1.64119e-08
-1.42455e-06
-1.79571e-08
-1.40529e-06
-1.9497e-08
-1.38452e-06
-2.10286e-08
-1.36224e-06
-2.25487e-08
-1.33848e-06
-2.40543e-08
-1.31325e-06
-2.55424e-08
-1.28657e-06
-2.70098e-08
-1.25847e-06
-2.84535e-08
-1.22896e-06
-2.98707e-08
-1.19808e-06
-3.12583e-08
-1.16587e-06
-3.26137e-08
-1.13235e-06
-3.39341e-08
-1.09756e-06
-3.52171e-08
-1.06154e-06
-3.64601e-08
-1.02434e-06
-3.76611e-08
-9.85998e-07
-3.88178e-08
-9.46557e-07
-3.99287e-08
-9.06066e-07
-4.09918e-08
-8.64573e-07
-4.2006e-08
-8.22129e-07
-4.29692e-08
-7.78784e-07
-4.38809e-08
-7.34593e-07
-4.47379e-08
-6.89611e-07
-4.55392e-08
-6.43897e-07
-4.62785e-08
-5.9752e-07
-4.69524e-08
-5.50553e-07
-4.75462e-08
-5.03093e-07
-4.805e-08
-4.55248e-07
-4.84313e-08
-4.0718e-07
-4.86676e-08
-3.5907e-07
-4.86925e-08
-3.11206e-07
-4.84643e-08
-2.63909e-07
-4.78593e-08
-2.1768e-07
-4.68144e-08
-1.73077e-07
-4.51149e-08
-1.30933e-07
-4.26911e-08
-9.21609e-08
-3.91876e-08
-5.80407e-08
-3.45935e-08
-2.99455e-08
-2.83565e-08
-9.48718e-09
-2.08116e-08
1.84675e-09
-1.14123e-08
4.08699e-09
-2.45351e-09
4.08505e-09
-3.20748e-09
4.28971e-10
-1.97584e-08
1.97649e-08
-5.13586e-08
4.13151e-08
-9.70475e-08
6.24249e-08
-1.54918e-07
7.95208e-08
-2.22401e-07
9.33703e-08
-2.97386e-07
1.03561e-07
-3.77763e-07
1.11093e-07
-4.62031e-07
1.16212e-07
-5.48833e-07
1.19654e-07
-6.37279e-07
1.2172e-07
-7.26617e-07
1.2288e-07
-8.16392e-07
1.23353e-07
-9.06239e-07
1.23404e-07
-9.95958e-07
1.23155e-07
-1.08539e-06
1.22737e-07
-1.17445e-06
1.22203e-07
-1.26308e-06
1.21605e-07
-1.35125e-06
1.20958e-07
-1.43891e-06
1.20279e-07
-1.52605e-06
1.19567e-07
-1.61264e-06
1.18822e-07
-1.69865e-06
1.1804e-07
-1.78405e-06
1.17217e-07
-1.8688e-06
1.16348e-07
-1.95287e-06
1.15429e-07
-2.03622e-06
1.14456e-07
-2.1188e-06
1.13425e-07
-2.20057e-06
1.12332e-07
-2.28148e-06
1.11174e-07
-2.36148e-06
1.09947e-07
-2.44052e-06
1.08649e-07
-2.51855e-06
1.07276e-07
-2.5955e-06
1.05826e-07
-2.67132e-06
1.04295e-07
-2.74596e-06
1.0268e-07
-2.81933e-06
1.00978e-07
-2.89139e-06
9.91872e-08
-2.96207e-06
9.73038e-08
-3.03128e-06
9.53251e-08
-3.09897e-06
9.32484e-08
-3.16507e-06
9.10711e-08
-3.22949e-06
8.87906e-08
-3.29216e-06
8.64043e-08
-3.353e-06
8.391e-08
-3.41194e-06
8.13054e-08
-3.46889e-06
7.85885e-08
-3.52377e-06
7.57573e-08
-3.57649e-06
7.28102e-08
-3.62698e-06
6.97457e-08
-3.67515e-06
6.65627e-08
-3.7209e-06
6.326e-08
-3.76416e-06
5.98371e-08
-3.80484e-06
5.62936e-08
-3.84286e-06
5.26293e-08
-3.87811e-06
4.88447e-08
-3.91053e-06
4.49405e-08
-3.94002e-06
4.09175e-08
-3.9665e-06
3.67774e-08
-3.98989e-06
3.2522e-08
-4.01011e-06
2.81537e-08
-4.02708e-06
2.36753e-08
-4.04072e-06
1.909e-08
-4.05096e-06
1.44015e-08
-4.05773e-06
9.61428e-09
-4.06096e-06
4.7329e-09
-4.06058e-06
-2.37382e-10
-4.05655e-06
-5.29082e-09
-4.0488e-06
-1.04212e-08
-4.03728e-06
-1.56218e-08
-4.02195e-06
-2.08855e-08
-4.00277e-06
-2.62046e-08
-3.97971e-06
-3.15711e-08
-3.95274e-06
-3.69764e-08
-3.92183e-06
-4.24118e-08
-3.88697e-06
-4.7868e-08
-3.84816e-06
-5.33354e-08
-3.8054e-06
-5.88043e-08
-3.75868e-06
-6.42646e-08
-3.70803e-06
-6.9706e-08
-3.65346e-06
-7.51182e-08
-3.595e-06
-8.04906e-08
-3.5327e-06
-8.58127e-08
-3.46658e-06
-9.1074e-08
-3.39671e-06
-9.6264e-08
-3.32315e-06
-1.01372e-07
-3.24595e-06
-1.06389e-07
-3.16519e-06
-1.11304e-07
-3.08096e-06
-1.16107e-07
-2.99333e-06
-1.2079e-07
-2.9024e-06
-1.25344e-07
-2.80827e-06
-1.2976e-07
-2.71105e-06
-1.3403e-07
-2.61083e-06
-1.38147e-07
-2.50775e-06
-1.42105e-07
-2.40191e-06
-1.45897e-07
-2.29344e-06
-1.49518e-07
-2.18247e-06
-1.5296e-07
-2.06913e-06
-1.56218e-07
-1.95357e-06
-1.59283e-07
-1.83593e-06
-1.62143e-07
-1.71637e-06
-1.64779e-07
-1.59509e-06
-1.67166e-07
-1.47229e-06
-1.69258e-07
-1.34825e-06
-1.71e-07
-1.22329e-06
-1.72289e-07
-1.09785e-06
-1.73015e-07
-9.7245e-07
-1.72975e-07
-8.47863e-07
-1.71971e-07
-7.24982e-07
-1.69644e-07
-6.05084e-07
-1.6569e-07
-4.89627e-07
-1.59531e-07
-3.80623e-07
-1.50796e-07
-2.80248e-07
-1.38637e-07
-1.9133e-07
-1.22833e-07
-1.16619e-07
-1.02332e-07
-5.91771e-08
-7.79018e-08
-2.10155e-08
-4.90901e-08
-2.44642e-09
-2.10167e-08
1.85304e-09
-1.02356e-08
1.05957e-08
-4.17171e-08
5.16418e-08
-9.47049e-08
9.42965e-08
-1.66694e-07
1.34879e-07
-2.55484e-07
1.6857e-07
-3.57653e-07
1.96075e-07
-4.70561e-07
2.16903e-07
-5.91364e-07
2.32485e-07
-7.18016e-07
2.43399e-07
-8.48606e-07
2.5086e-07
-9.81839e-07
2.55538e-07
-1.1166e-06
2.58269e-07
-1.25219e-06
2.59545e-07
-1.38802e-06
2.59864e-07
-1.52377e-06
2.59513e-07
-1.65916e-06
2.58744e-07
-1.79404e-06
2.57692e-07
-1.92829e-06
2.56465e-07
-2.06183e-06
2.55109e-07
-2.19461e-06
2.53658e-07
-2.32656e-06
2.52121e-07
-2.45764e-06
2.50501e-07
-2.5878e-06
2.48793e-07
-2.71699e-06
2.46991e-07
-2.84514e-06
2.45086e-07
-2.9722e-06
2.43071e-07
-3.09811e-06
2.40939e-07
-3.2228e-06
2.38681e-07
-3.3462e-06
2.36291e-07
-3.46823e-06
2.33763e-07
-3.58882e-06
2.31089e-07
-3.70789e-06
2.28264e-07
-3.82535e-06
2.25282e-07
-3.94113e-06
2.22135e-07
-4.05513e-06
2.18819e-07
-4.16726e-06
2.15328e-07
-4.27743e-06
2.11655e-07
-4.38554e-06
2.07795e-07
-4.49149e-06
2.03743e-07
-4.59518e-06
1.99492e-07
-4.6965e-06
1.95038e-07
-4.79534e-06
1.90375e-07
-4.8916e-06
1.85498e-07
-4.98517e-06
1.80402e-07
-5.07592e-06
1.75083e-07
-5.16374e-06
1.69537e-07
-5.24851e-06
1.63758e-07
-5.33012e-06
1.57745e-07
-5.40843e-06
1.51493e-07
-5.48334e-06
1.45e-07
-5.5547e-06
1.38264e-07
-5.62241e-06
1.31283e-07
-5.68632e-06
1.24055e-07
-5.74632e-06
1.16581e-07
-5.80229e-06
1.0886e-07
-5.85409e-06
1.00893e-07
-5.90161e-06
9.26829e-08
-5.94471e-06
8.42307e-08
-5.98329e-06
7.554e-08
-6.01722e-06
6.66151e-08
-6.04638e-06
5.74608e-08
-6.07067e-06
4.80831e-08
-6.08997e-06
3.84889e-08
-6.10418e-06
2.8686e-08
-6.1132e-06
1.86833e-08
-6.11693e-06
8.4905e-09
-6.11529e-06
-1.88153e-09
-6.10818e-06
-1.2421e-08
-6.09554e-06
-2.31151e-08
-6.07729e-06
-3.39501e-08
-6.05337e-06
-4.49114e-08
-6.02372e-06
-5.59832e-08
-5.9883e-06
-6.71491e-08
-5.94707e-06
-7.83919e-08
-5.9e-06
-8.96935e-08
-5.84707e-06
-1.01035e-07
-5.78828e-06
-1.12397e-07
-5.72362e-06
-1.2376e-07
-5.6531e-06
-1.35103e-07
-5.57675e-06
-1.46406e-07
-5.4946e-06
-1.57646e-07
-5.40669e-06
-1.68804e-07
-5.31308e-06
-1.79857e-07
-5.21383e-06
-1.90785e-07
-5.10901e-06
-2.01565e-07
-4.99871e-06
-2.12177e-07
-4.88304e-06
-2.22601e-07
-4.76209e-06
-2.32815e-07
-4.63598e-06
-2.42802e-07
-4.50483e-06
-2.5254e-07
-4.36879e-06
-2.62014e-07
-4.228e-06
-2.71205e-07
-4.08261e-06
-2.80097e-07
-3.93278e-06
-2.88675e-07
-3.77867e-06
-2.96925e-07
-3.62047e-06
-3.04833e-07
-3.45836e-06
-3.12387e-07
-3.29251e-06
-3.19572e-07
-3.12315e-06
-3.26373e-07
-2.95046e-06
-3.32768e-07
-2.77469e-06
-3.38732e-07
-2.59608e-06
-3.44219e-07
-2.41492e-06
-3.49172e-07
-2.23153e-06
-3.53493e-07
-2.04634e-06
-3.57054e-07
-1.85984e-06
-3.59649e-07
-1.6727e-06
-3.61028e-07
-1.48574e-06
-3.60794e-07
-1.30007e-06
-3.58512e-07
-1.11703e-06
-3.53502e-07
-9.38468e-07
-3.45107e-07
-7.66453e-07
-3.32289e-07
-6.03798e-07
-3.14245e-07
-4.53444e-07
-2.89588e-07
-3.19196e-07
-2.57775e-07
-2.04489e-07
-2.17392e-07
-1.13417e-07
-1.69541e-07
-4.82825e-08
-1.14235e-07
-1.11332e-08
-5.86441e-08
-9.21167e-09
-1.73988e-08
2.77162e-08
-6.3688e-08
9.82072e-08
-1.36886e-07
1.67023e-07
-2.32521e-07
2.30521e-07
-3.4805e-07
2.83676e-07
-4.79375e-07
3.27203e-07
-6.23632e-07
3.60728e-07
-7.77517e-07
3.86051e-07
-9.38699e-07
4.04137e-07
-1.1049e-06
4.16676e-07
-1.27456e-06
4.2475e-07
-1.4463e-06
4.29599e-07
-1.61924e-06
4.32031e-07
-1.79262e-06
4.32815e-07
-1.96598e-06
4.32435e-07
-2.13897e-06
4.31296e-07
-2.31135e-06
4.29634e-07
-2.48294e-06
4.2763e-07
-2.65364e-06
4.25374e-07
-2.82333e-06
4.22927e-07
-2.99195e-06
4.20311e-07
-3.15941e-06
4.17538e-07
-3.32564e-06
4.14603e-07
-3.49057e-06
4.115e-07
-3.65411e-06
4.08217e-07
-3.81619e-06
4.04744e-07
-3.97673e-06
4.01069e-07
-4.13564e-06
3.97181e-07
-4.29282e-06
3.9307e-07
-4.44817e-06
3.88726e-07
-4.60161e-06
3.84138e-07
-4.75303e-06
3.79296e-07
-4.90232e-06
3.74191e-07
-5.04938e-06
3.68814e-07
-5.19409e-06
3.63154e-07
-5.33633e-06
3.57204e-07
-5.47599e-06
3.50953e-07
-5.61294e-06
3.44392e-07
-5.74705e-06
3.37514e-07
-5.87821e-06
3.30308e-07
-6.00627e-06
3.22768e-07
-6.1311e-06
3.14883e-07
-6.25257e-06
3.06648e-07
-6.37053e-06
2.98053e-07
-6.48484e-06
2.89093e-07
-6.59535e-06
2.7976e-07
-6.70192e-06
2.70049e-07
-6.8044e-06
2.59953e-07
-6.90264e-06
2.49469e-07
-6.99648e-06
2.38592e-07
-7.08577e-06
2.27319e-07
-7.17036e-06
2.15647e-07
-7.25009e-06
2.03575e-07
-7.32482e-06
1.91103e-07
-7.39438e-06
1.78231e-07
-7.45862e-06
1.64962e-07
-7.51739e-06
1.51297e-07
-7.57055e-06
1.37242e-07
-7.61794e-06
1.22802e-07
-7.65943e-06
1.07984e-07
-7.69487e-06
9.2796e-08
-7.72412e-06
7.72488e-08
-7.74705e-06
6.13535e-08
-7.76354e-06
4.51232e-08
-7.77346e-06
2.85723e-08
-7.77671e-06
1.17171e-08
-7.77316e-06
-5.42467e-09
-7.76273e-06
-2.28336e-08
-7.74532e-06
-4.04889e-08
-7.72085e-06
-5.8368e-08
-7.68924e-06
-7.64469e-08
-7.65043e-06
-9.47004e-08
-7.60436e-06
-1.13102e-07
-7.551e-06
-1.31622e-07
-7.49031e-06
-1.50234e-07
-7.42227e-06
-1.68905e-07
-7.34688e-06
-1.87604e-07
-7.26413e-06
-2.063e-07
-7.17404e-06
-2.24959e-07
-7.07665e-06
-2.43548e-07
-6.972e-06
-2.62032e-07
-6.86014e-06
-2.80377e-07
-6.74114e-06
-2.98549e-07
-6.61509e-06
-3.16513e-07
-6.48208e-06
-3.34234e-07
-6.34222e-06
-3.51679e-07
-6.19562e-06
-3.68815e-07
-6.04243e-06
-3.85609e-07
-5.88279e-06
-4.02029e-07
-5.71686e-06
-4.18045e-07
-5.5448e-06
-4.33627e-07
-5.36679e-06
-4.48748e-07
-5.18303e-06
-4.63381e-07
-4.99371e-06
-4.77501e-07
-4.79905e-06
-4.91084e-07
-4.59925e-06
-5.04108e-07
-4.39456e-06
-5.16551e-07
-4.1852e-06
-5.28386e-07
-3.97143e-06
-5.39587e-07
-3.75351e-06
-5.50116e-07
-3.53175e-06
-5.59924e-07
-3.30644e-06
-5.68935e-07
-3.07798e-06
-5.77045e-07
-2.84677e-06
-5.84089e-07
-2.61338e-06
-5.8985e-07
-2.37842e-06
-5.93989e-07
-2.14276e-06
-5.96085e-07
-1.90742e-06
-5.9551e-07
-1.67381e-06
-5.91543e-07
-1.44355e-06
-5.83142e-07
-1.21888e-06
-5.69235e-07
-1.00228e-06
-5.48292e-07
-7.97053e-07
-5.19024e-07
-6.06552e-07
-4.79523e-07
-4.35173e-07
-4.28875e-07
-2.86637e-07
-3.65397e-07
-1.65859e-07
-2.90305e-07
-7.55149e-08
-2.04022e-07
-2.0007e-08
-1.14476e-07
-2.88725e-08
-2.30711e-08
5.05899e-08
-8.21532e-08
1.57885e-07
-1.73159e-07
2.57748e-07
-2.89563e-07
3.47354e-07
-4.28258e-07
4.22361e-07
-5.84409e-07
4.83716e-07
-7.54966e-07
5.31431e-07
-9.36269e-07
5.67693e-07
-1.12583e-06
5.93932e-07
-1.32113e-06
6.12308e-07
-1.52046e-06
6.24359e-07
-1.72227e-06
6.31734e-07
-1.92554e-06
6.35594e-07
-2.1294e-06
6.36996e-07
-2.3333e-06
6.36645e-07
-2.5368e-06
6.35116e-07
-2.73963e-06
6.32765e-07
-2.94154e-06
6.29855e-07
-3.14239e-06
6.26529e-07
-3.34204e-06
6.22884e-07
-3.54038e-06
6.1896e-07
-3.73732e-06
6.14779e-07
-3.93276e-06
6.10341e-07
-4.1266e-06
6.0564e-07
-4.31875e-06
6.00663e-07
-4.5091e-06
5.95396e-07
-4.69757e-06
5.89826e-07
-4.88403e-06
5.83936e-07
-5.06839e-06
5.77713e-07
-5.25052e-06
5.71143e-07
-5.43032e-06
5.64211e-07
-5.60765e-06
5.56905e-07
-5.78239e-06
5.4921e-07
-5.95442e-06
5.41115e-07
-6.12361e-06
5.32604e-07
-6.28981e-06
5.23667e-07
-6.45289e-06
5.14289e-07
-6.6127e-06
5.04459e-07
-6.7691e-06
4.94164e-07
-6.92194e-06
4.83392e-07
-7.07107e-06
4.72132e-07
-7.21632e-06
4.60372e-07
-7.35755e-06
4.48101e-07
-7.49459e-06
4.35309e-07
-7.62726e-06
4.21986e-07
-7.75542e-06
4.08124e-07
-7.87889e-06
3.93714e-07
-7.99749e-06
3.78749e-07
-8.11105e-06
3.63222e-07
-8.21941e-06
3.47128e-07
-8.32239e-06
3.30463e-07
-8.4198e-06
3.13224e-07
-8.51148e-06
2.9541e-07
-8.59725e-06
2.7702e-07
-8.67694e-06
2.58056e-07
-8.75038e-06
2.38521e-07
-8.81739e-06
2.1842e-07
-8.8778e-06
1.9776e-07
-8.93145e-06
1.76549e-07
-8.97818e-06
1.54797e-07
-9.01784e-06
1.32519e-07
-9.05025e-06
1.09727e-07
-9.07529e-06
8.64401e-08
-9.09281e-06
6.26763e-08
-9.10267e-06
3.84571e-08
-9.10474e-06
1.38063e-08
-9.09892e-06
-1.12502e-08
-9.08508e-06
-3.66844e-08
-9.06313e-06
-6.24658e-08
-9.03298e-06
-8.85619e-08
-8.99454e-06
-1.14938e-07
-8.94775e-06
-1.41558e-07
-8.89255e-06
-1.68382e-07
-8.8289e-06
-1.95371e-07
-8.75676e-06
-2.22481e-07
-8.67611e-06
-2.49671e-07
-8.58696e-06
-2.76893e-07
-8.48931e-06
-3.04102e-07
-8.38318e-06
-3.31251e-07
-8.26861e-06
-3.58291e-07
-8.14566e-06
-3.85174e-07
-8.0144e-06
-4.11849e-07
-7.8749e-06
-4.38268e-07
-7.72726e-06
-4.64382e-07
-7.5716e-06
-4.9014e-07
-7.40804e-06
-5.15496e-07
-7.23673e-06
-5.404e-07
-7.05781e-06
-5.64807e-07
-6.87147e-06
-5.88671e-07
-6.67787e-06
-6.11948e-07
-6.47723e-06
-6.34596e-07
-6.26973e-06
-6.56576e-07
-6.0556e-06
-6.77848e-07
-5.83508e-06
-6.98376e-07
-5.6084e-06
-7.18127e-07
-5.37582e-06
-7.37065e-07
-5.13759e-06
-7.55157e-07
-4.894e-06
-7.72366e-07
-4.64534e-06
-7.88647e-07
-4.39192e-06
-8.03943e-07
-4.13408e-06
-8.18179e-07
-3.87219e-06
-8.31238e-07
-3.6067e-06
-8.42964e-07
-3.33811e-06
-8.53112e-07
-3.06704e-06
-8.61359e-07
-2.79424e-06
-8.67218e-07
-2.5207e-06
-8.70075e-07
-2.24758e-06
-8.69046e-07
-1.97648e-06
-8.63094e-07
-1.70923e-06
-8.50787e-07
-1.44831e-06
-8.30605e-07
-1.19642e-06
-8.00513e-07
-9.57202e-07
-7.5869e-07
-7.34219e-07
-7.02721e-07
-5.3232e-07
-6.31231e-07
-3.55467e-07
-5.42265e-07
-2.09454e-07
-4.36839e-07
-9.76131e-08
-3.15546e-07
-2.67642e-08
-1.86029e-07
-5.53974e-08
-2.77853e-08
7.7996e-08
-9.7734e-08
2.28371e-07
-2.03967e-07
3.63422e-07
-3.38139e-07
4.81745e-07
-4.96494e-07
5.80348e-07
-6.73489e-07
6.6072e-07
-8.65882e-07
7.23532e-07
-1.06972e-06
7.71429e-07
-1.28244e-06
8.06389e-07
-1.50135e-06
8.31048e-07
-1.72466e-06
8.47425e-07
-1.95071e-06
8.57582e-07
-2.1784e-06
8.63045e-07
-2.40678e-06
8.65163e-07
-2.63524e-06
8.64878e-07
-2.86329e-06
8.62941e-07
-3.09058e-06
8.59835e-07
-3.31686e-06
8.55914e-07
-3.54194e-06
8.51381e-07
-3.76564e-06
8.46372e-07
-3.98785e-06
8.4095e-07
-4.20844e-06
8.35149e-07
-4.42729e-06
8.28976e-07
-4.64429e-06
8.22428e-07
-4.85933e-06
8.15489e-07
-5.07229e-06
8.08147e-07
-5.28306e-06
8.00382e-07
-5.49151e-06
7.92176e-07
-5.69751e-06
7.83512e-07
-5.90094e-06
7.74372e-07
-6.10167e-06
7.64738e-07
-6.29956e-06
7.54593e-07
-6.49446e-06
7.43919e-07
-6.68624e-06
7.327e-07
-6.87475e-06
7.20919e-07
-7.05983e-06
7.0856e-07
-7.24133e-06
6.95605e-07
-7.41909e-06
6.82039e-07
-7.59295e-06
6.67846e-07
-7.76274e-06
6.5301e-07
-7.9283e-06
6.37517e-07
-8.08944e-06
6.21352e-07
-8.24601e-06
6.04501e-07
-8.39781e-06
5.86951e-07
-8.54466e-06
5.6869e-07
-8.68639e-06
5.49706e-07
-8.82281e-06
5.2999e-07
-8.95373e-06
5.09531e-07
-9.07897e-06
4.88323e-07
-9.19833e-06
4.66358e-07
-9.31162e-06
4.43632e-07
-9.41865e-06
4.20142e-07
-9.51924e-06
3.95887e-07
-9.61319e-06
3.70866e-07
-9.70031e-06
3.45083e-07
-9.78042e-06
3.18542e-07
-9.85333e-06
2.91251e-07
-9.91886e-06
2.63218e-07
-9.97684e-06
2.34457e-07
-1.00271e-05
2.04982e-07
-1.00694e-05
1.74811e-07
-1.01037e-05
1.43963e-07
-1.01298e-05
1.12462e-07
-1.01474e-05
8.03332e-08
-1.01566e-05
4.76066e-08
-1.01571e-05
1.43136e-08
-1.01489e-05
-1.95108e-08
-1.01317e-05
-5.38286e-08
-1.01056e-05
-8.85993e-08
-1.00703e-05
-1.23779e-07
-1.00259e-05
-1.59321e-07
-9.97222e-06
-1.95178e-07
-9.90925e-06
-2.31296e-07
-9.83693e-06
-2.67622e-07
-9.75524e-06
-3.041e-07
-9.66415e-06
-3.40671e-07
-9.56367e-06
-3.77277e-07
-9.45381e-06
-4.13853e-07
-9.3346e-06
-4.50339e-07
-9.2061e-06
-4.8667e-07
-9.06835e-06
-5.2278e-07
-8.92145e-06
-5.58605e-07
-8.76548e-06
-5.94079e-07
-8.60056e-06
-6.29137e-07
-8.42681e-06
-6.63713e-07
-8.24438e-06
-6.97743e-07
-8.05342e-06
-7.31165e-07
-7.85411e-06
-7.63915e-07
-7.64664e-06
-7.95936e-07
-7.4312e-06
-8.27167e-07
-7.20801e-06
-8.57553e-07
-6.97731e-06
-8.87042e-07
-6.73933e-06
-9.15581e-07
-6.49433e-06
-9.43123e-07
-6.24258e-06
-9.6962e-07
-5.98435e-06
-9.95026e-07
-5.71994e-06
-1.01929e-06
-5.44965e-06
-1.04237e-06
-5.17382e-06
-1.0642e-06
-4.89278e-06
-1.08469e-06
-4.60691e-06
-1.10375e-06
-4.31664e-06
-1.12121e-06
-4.02245e-06
-1.13685e-06
-3.72491e-06
-1.15035e-06
-3.4247e-06
-1.16126e-06
-3.12265e-06
-1.16895e-06
-2.81984e-06
-1.17258e-06
-2.51754e-06
-1.17103e-06
-2.21745e-06
-1.1629e-06
-1.92152e-06
-1.14638e-06
-1.6324e-06
-1.11949e-06
-1.35289e-06
-1.07967e-06
-1.08687e-06
-1.02455e-06
-8.38009e-07
-9.51209e-07
-6.11517e-07
-8.57708e-07
-4.11591e-07
-7.41743e-07
-2.44855e-07
-6.03816e-07
-1.1539e-07
-4.44351e-07
-3.20833e-08
-2.69958e-07
-8.70314e-08
-3.12984e-08
1.08966e-07
-1.09921e-07
3.07732e-07
-2.28633e-07
4.81662e-07
-3.77577e-07
6.31141e-07
-5.52341e-07
7.54941e-07
-7.46692e-07
8.55368e-07
-9.57156e-07
9.33987e-07
-1.17951e-06
9.94013e-07
-1.41111e-06
1.03806e-06
-1.64914e-06
1.06927e-06
-1.89177e-06
1.09018e-06
-2.13727e-06
1.10326e-06
-2.3845e-06
1.11042e-06
-2.63246e-06
1.11329e-06
-2.88051e-06
1.11308e-06
-3.1281e-06
1.1107e-06
-3.37488e-06
1.10677e-06
-3.62055e-06
1.10174e-06
-3.86489e-06
1.09588e-06
-4.10772e-06
1.08936e-06
-4.34889e-06
1.08227e-06
-4.58825e-06
1.07467e-06
-4.82568e-06
1.06656e-06
-5.06105e-06
1.05795e-06
-5.29422e-06
1.04881e-06
-5.52507e-06
1.03915e-06
-5.75347e-06
1.02893e-06
-5.97928e-06
1.01813e-06
-6.20237e-06
1.00674e-06
-6.42258e-06
9.94735e-07
-6.63979e-06
9.82086e-07
-6.85383e-06
9.68778e-07
-7.06456e-06
9.54789e-07
-7.27182e-06
9.40097e-07
-7.47545e-06
9.24683e-07
-7.67528e-06
9.08527e-07
-7.87115e-06
8.91607e-07
-8.06289e-06
8.73906e-07
-8.25032e-06
8.55402e-07
-8.43326e-06
8.36077e-07
-8.61154e-06
8.15913e-07
-8.78496e-06
7.94893e-07
-8.95334e-06
7.72999e-07
-9.11649e-06
7.50215e-07
-9.27422e-06
7.26527e-07
-9.42633e-06
7.01922e-07
-9.57263e-06
6.76386e-07
-9.7129e-06
6.49909e-07
-9.84697e-06
6.22482e-07
-9.97462e-06
5.94097e-07
-1.00956e-05
5.64749e-07
-1.02099e-05
5.34435e-07
-1.0317e-05
5.03154e-07
-1.0417e-05
4.70907e-07
-1.05096e-05
4.37699e-07
-1.05945e-05
4.03536e-07
-1.06716e-05
3.68428e-07
-1.07407e-05
3.32388e-07
-1.08017e-05
2.95431e-07
-1.08542e-05
2.57579e-07
-1.08982e-05
2.18852e-07
-1.09335e-05
1.79277e-07
-1.09599e-05
1.38885e-07
-1.09773e-05
9.77086e-08
-1.09854e-05
5.57852e-08
-1.09843e-05
1.31557e-08
-1.09736e-05
-3.01351e-08
-1.09534e-05
-7.40388e-08
-1.09235e-05
-1.18504e-07
-1.08839e-05
-1.63474e-07
-1.08343e-05
-2.0889e-07
-1.07748e-05
-2.5469e-07
-1.07054e-05
-3.00809e-07
-1.06259e-05
-3.47178e-07
-1.05363e-05
-3.93726e-07
-1.04367e-05
-4.40378e-07
-1.03269e-05
-4.8706e-07
-1.02072e-05
-5.33693e-07
-1.00774e-05
-5.80197e-07
-9.93767e-06
-6.26491e-07
-9.78806e-06
-6.72495e-07
-9.62864e-06
-7.18124e-07
-9.45954e-06
-7.63297e-07
-9.28086e-06
-8.07932e-07
-9.09275e-06
-8.51945e-07
-8.89537e-06
-8.95257e-07
-8.68889e-06
-9.37788e-07
-8.47349e-06
-9.7946e-07
-8.24938e-06
-1.0202e-06
-8.01677e-06
-1.05993e-06
-7.77591e-06
-1.09858e-06
-7.52704e-06
-1.13608e-06
-7.27042e-06
-1.17238e-06
-7.00632e-06
-1.2074e-06
-6.73503e-06
-1.24109e-06
-6.45685e-06
-1.27339e-06
-6.1721e-06
-1.30424e-06
-5.8811e-06
-1.33357e-06
-5.58421e-06
-1.36129e-06
-5.2818e-06
-1.38731e-06
-4.97428e-06
-1.41148e-06
-4.6621e-06
-1.4336e-06
-4.34579e-06
-1.45338e-06
-4.02594e-06
-1.47041e-06
-3.7033e-06
-1.48413e-06
-3.37874e-06
-1.49373e-06
-3.05339e-06
-1.49817e-06
-2.72857e-06
-1.49605e-06
-2.40607e-06
-1.48564e-06
-2.0879e-06
-1.46473e-06
-1.77681e-06
-1.43084e-06
-1.47566e-06
-1.38093e-06
-1.18849e-06
-1.31202e-06
-9.19076e-07
-1.22063e-06
-6.72961e-07
-1.10419e-06
-4.54627e-07
-9.59895e-07
-2.7148e-07
-7.87498e-07
-1.28341e-07
-5.86952e-07
-3.57095e-08
-3.63451e-07
-1.22364e-07
-3.40514e-08
1.42581e-07
-1.1956e-07
3.93951e-07
-2.48305e-07
6.09773e-07
-4.09256e-07
7.92445e-07
-5.97413e-07
9.42739e-07
-8.05937e-07
1.06402e-06
-1.03111e-06
1.15893e-06
-1.26846e-06
1.23137e-06
-1.51527e-06
1.28469e-06
-1.76862e-06
1.32257e-06
-2.02667e-06
1.34808e-06
-2.28762e-06
1.36413e-06
-2.55034e-06
1.373e-06
-2.81378e-06
1.37664e-06
-3.0773e-06
1.37647e-06
-3.34031e-06
1.3736e-06
-3.60244e-06
1.36879e-06
-3.86338e-06
1.36257e-06
-4.12289e-06
1.35527e-06
-4.38076e-06
1.34713e-06
-4.63684e-06
1.33824e-06
-4.89096e-06
1.32868e-06
-5.14299e-06
1.31847e-06
-5.39277e-06
1.30762e-06
-5.64017e-06
1.2961e-06
-5.88505e-06
1.28392e-06
-6.12726e-06
1.27103e-06
-6.36666e-06
1.25743e-06
-6.6031e-06
1.24308e-06
-6.83644e-06
1.22796e-06
-7.0665e-06
1.21205e-06
-7.29315e-06
1.19532e-06
-7.5162e-06
1.17774e-06
-7.7355e-06
1.1593e-06
-7.95088e-06
1.13997e-06
-8.16217e-06
1.11971e-06
-8.36918e-06
1.09852e-06
-8.57173e-06
1.07637e-06
-8.76965e-06
1.05323e-06
-8.96274e-06
1.02908e-06
-9.15082e-06
1.0039e-06
-9.33368e-06
9.77672e-07
-9.51114e-06
9.50373e-07
-9.68299e-06
9.21985e-07
-9.84903e-06
8.9249e-07
-1.00091e-05
8.61874e-07
-1.01629e-05
8.30121e-07
-1.03103e-05
7.97219e-07
-1.0451e-05
7.63159e-07
-1.05849e-05
7.27931e-07
-1.07117e-05
6.9153e-07
-1.08313e-05
6.53954e-07
-1.09434e-05
6.152e-07
-1.10478e-05
5.75273e-07
-1.11444e-05
5.34178e-07
-1.12328e-05
4.91924e-07
-1.13129e-05
4.48524e-07
-1.13846e-05
4.03994e-07
-1.14475e-05
3.58355e-07
-1.15016e-05
3.11631e-07
-1.15466e-05
2.6385e-07
-1.15824e-05
2.15046e-07
-1.16088e-05
1.65254e-07
-1.16256e-05
1.14518e-07
-1.16327e-05
6.28818e-08
-1.163e-05
1.03975e-08
-1.16172e-05
-4.28805e-08
-1.15944e-05
-9.68926e-08
-1.15613e-05
-1.51575e-07
-1.15179e-05
-2.06859e-07
-1.14641e-05
-2.62674e-07
-1.13998e-05
-3.18941e-07
-1.1325e-05
-3.75583e-07
-1.12397e-05
-4.32513e-07
-1.11437e-05
-4.89647e-07
-1.10371e-05
-5.46892e-07
-1.092e-05
-6.04158e-07
-1.07923e-05
-6.61349e-07
-1.0654e-05
-7.18368e-07
-1.05054e-05
-7.75116e-07
-1.03463e-05
-8.31495e-07
-1.01769e-05
-8.87402e-07
-9.99741e-06
-9.4274e-07
-9.80785e-06
-9.97406e-07
-9.6084e-06
-1.0513e-06
-9.39924e-06
-1.10433e-06
-9.18054e-06
-1.15639e-06
-8.9525e-06
-1.20739e-06
-8.71534e-06
-1.25724e-06
-8.4693e-06
-1.30585e-06
-8.21462e-06
-1.35314e-06
-7.95157e-06
-1.39902e-06
-7.68041e-06
-1.44341e-06
-7.40145e-06
-1.48624e-06
-7.11497e-06
-1.52743e-06
-6.82132e-06
-1.56692e-06
-6.5208e-06
-1.60462e-06
-6.21378e-06
-1.64045e-06
-5.90062e-06
-1.67431e-06
-5.58172e-06
-1.70606e-06
-5.25752e-06
-1.73554e-06
-4.92848e-06
-1.76248e-06
-4.59516e-06
-1.78655e-06
-4.25818e-06
-1.80723e-06
-3.91832e-06
-1.82384e-06
-3.57647e-06
-1.83541e-06
-3.23381e-06
-1.84068e-06
-2.89169e-06
-1.83799e-06
-2.55195e-06
-1.82526e-06
-2.21661e-06
-1.79987e-06
-1.88849e-06
-1.75887e-06
-1.57052e-06
-1.69868e-06
-1.26683e-06
-1.6157e-06
-9.81338e-07
-1.50584e-06
-7.19859e-07
-1.3658e-06
-4.87174e-07
-1.19216e-06
-2.9135e-07
-9.83716e-07
-1.37848e-07
-7.39723e-07
-3.83093e-08
-4.638e-07
-1.60168e-07
-3.60414e-08
1.78217e-07
-1.26802e-07
4.8554e-07
-2.63377e-07
7.45756e-07
-4.33858e-07
9.63405e-07
-6.32748e-07
1.14136e-06
-8.52686e-07
1.28423e-06
-1.08972e-06
1.39586e-06
-1.33913e-06
1.48096e-06
-1.59812e-06
1.54367e-06
-1.86368e-06
1.58827e-06
-2.13396e-06
1.6184e-06
-2.40713e-06
1.6374e-06
-2.68204e-06
1.64797e-06
-2.95765e-06
1.65233e-06
-3.23328e-06
1.65217e-06
-3.50835e-06
1.64876e-06
-3.78248e-06
1.643e-06
-4.05534e-06
1.63551e-06
-4.32668e-06
1.6267e-06
-4.59629e-06
1.61682e-06
-4.86399e-06
1.60602e-06
-5.12962e-06
1.59438e-06
-5.39301e-06
1.58194e-06
-5.65402e-06
1.5687e-06
-5.91249e-06
1.55466e-06
-6.16829e-06
1.53979e-06
-6.42125e-06
1.52407e-06
-6.67122e-06
1.50748e-06
-6.91804e-06
1.48998e-06
-7.16156e-06
1.47156e-06
-7.40162e-06
1.45218e-06
-7.63804e-06
1.43181e-06
-7.87066e-06
1.41043e-06
-8.09929e-06
1.38801e-06
-8.32378e-06
1.36452e-06
-8.54393e-06
1.33993e-06
-8.75956e-06
1.31422e-06
-8.97048e-06
1.28736e-06
-9.17651e-06
1.25932e-06
-9.37744e-06
1.23007e-06
-9.57308e-06
1.1996e-06
-9.76322e-06
1.16788e-06
-9.94768e-06
1.13488e-06
-1.01262e-05
1.10059e-06
-1.02987e-05
1.06498e-06
-1.04648e-05
1.02804e-06
-1.06244e-05
9.89751e-07
-1.07772e-05
9.50098e-07
-1.0923e-05
9.0907e-07
-1.10617e-05
8.66658e-07
-1.1193e-05
8.22857e-07
-1.13167e-05
7.77664e-07
-1.14325e-05
7.31078e-07
-1.15403e-05
6.83105e-07
-1.16398e-05
6.33751e-07
-1.17309e-05
5.83028e-07
-1.18133e-05
5.30952e-07
-1.18868e-05
4.77543e-07
-1.19513e-05
4.22826e-07
-1.20065e-05
3.66832e-07
-1.20522e-05
3.09593e-07
-1.20883e-05
2.5115e-07
-1.21146e-05
1.91548e-07
-1.21309e-05
1.30835e-07
-1.2137e-05
6.9069e-08
-1.2133e-05
6.30859e-09
-1.21185e-05
-5.73799e-08
-1.20934e-05
-1.21925e-07
-1.20578e-05
-1.87252e-07
-1.20114e-05
-2.53277e-07
-1.19541e-05
-3.19917e-07
-1.1886e-05
-3.87078e-07
-1.18069e-05
-4.54666e-07
-1.17169e-05
-5.22582e-07
-1.16159e-05
-5.90723e-07
-1.15038e-05
-6.5898e-07
-1.13807e-05
-7.27244e-07
-1.12467e-05
-7.95403e-07
-1.11018e-05
-8.63342e-07
-1.0946e-05
-9.30943e-07
-1.07795e-05
-9.98088e-07
-1.06023e-05
-1.06466e-06
-1.04145e-05
-1.13054e-06
-1.02164e-05
-1.19561e-06
-1.0008e-05
-1.25974e-06
-9.78957e-06
-1.32284e-06
-9.56126e-06
-1.38477e-06
-9.32329e-06
-1.44543e-06
-9.0759e-06
-1.50472e-06
-8.81932e-06
-1.56252e-06
-8.55381e-06
-1.61873e-06
-8.27966e-06
-1.67326e-06
-7.99714e-06
-1.72601e-06
-7.70657e-06
-1.7769e-06
-7.40826e-06
-1.82584e-06
-7.10253e-06
-1.87274e-06
-6.78975e-06
-1.9175e-06
-6.47027e-06
-1.96003e-06
-6.14449e-06
-2.0002e-06
-5.8128e-06
-2.03785e-06
-5.47567e-06
-2.07278e-06
-5.13358e-06
-2.10468e-06
-4.7871e-06
-2.13314e-06
-4.43688e-06
-2.15756e-06
-4.0837e-06
-2.17713e-06
-3.72849e-06
-2.19072e-06
-3.37244e-06
-2.19686e-06
-3.01691e-06
-2.1936e-06
-2.66377e-06
-2.17854e-06
-2.31507e-06
-2.14864e-06
-1.97367e-06
-2.10044e-06
-1.64254e-06
-2.02982e-06
-1.32594e-06
-1.93252e-06
-1.02788e-06
-1.8038e-06
-7.54469e-07
-1.63953e-06
-5.10774e-07
-1.43556e-06
-3.05406e-07
-1.18963e-06
-1.44329e-07
-9.00134e-07
-3.99517e-08
-5.69122e-07
-1.99662e-07
-3.75397e-08
2.15288e-07
-1.32288e-07
5.81104e-07
-2.74891e-07
8.87678e-07
-4.52806e-07
1.14175e-06
-6.60142e-07
1.34834e-06
-8.89117e-07
1.5134e-06
-1.13555e-06
1.64209e-06
-1.39453e-06
1.74002e-06
-1.66317e-06
1.81217e-06
-1.93838e-06
1.86349e-06
-2.21829e-06
1.8982e-06
-2.50104e-06
1.92013e-06
-2.78548e-06
1.93234e-06
-3.07057e-06
1.93738e-06
-3.35563e-06
1.93716e-06
-3.64007e-06
1.93316e-06
-3.92352e-06
1.92638e-06
-4.20562e-06
1.91756e-06
-4.48614e-06
1.90715e-06
-4.76485e-06
1.89547e-06
-5.04156e-06
1.88267e-06
-5.3161e-06
1.86886e-06
-5.5883e-06
1.85409e-06
-5.85801e-06
1.83836e-06
-6.12507e-06
1.82166e-06
-6.38933e-06
1.80399e-06
-6.65062e-06
1.7853e-06
-6.90878e-06
1.76559e-06
-7.16366e-06
1.74481e-06
-7.41509e-06
1.72293e-06
-7.66289e-06
1.69993e-06
-7.9069e-06
1.67577e-06
-8.14694e-06
1.65042e-06
-8.38283e-06
1.62385e-06
-8.61439e-06
1.59603e-06
-8.84143e-06
1.56692e-06
-9.06376e-06
1.53651e-06
-9.28119e-06
1.50474e-06
-9.49353e-06
1.4716e-06
-9.70056e-06
1.43706e-06
-9.9021e-06
1.40109e-06
-1.00979e-05
1.36366e-06
-1.02878e-05
1.32475e-06
-1.04716e-05
1.28433e-06
-1.06491e-05
1.24238e-06
-1.08199e-05
1.19888e-06
-1.0984e-05
1.15382e-06
-1.11411e-05
1.10717e-06
-1.1291e-05
1.05892e-06
-1.14335e-05
1.00907e-06
-1.15683e-05
9.57614e-07
-1.16952e-05
9.0454e-07
-1.1814e-05
8.49853e-07
-1.19245e-05
7.93559e-07
-1.20264e-05
7.35668e-07
-1.21196e-05
6.76192e-07
-1.22038e-05
6.15153e-07
-1.22789e-05
5.52573e-07
-1.23445e-05
4.88483e-07
-1.24006e-05
4.22917e-07
-1.2447e-05
3.55917e-07
-1.24834e-05
2.87527e-07
-1.25096e-05
2.17803e-07
-1.25256e-05
1.468e-07
-1.25311e-05
7.45858e-08
-1.2526e-05
1.2294e-09
-1.25102e-05
-7.31918e-08
-1.24836e-05
-1.48595e-07
-1.24459e-05
-2.2489e-07
-1.23972e-05
-3.01984e-07
-1.23373e-05
-3.79774e-07
-1.22662e-05
-4.58157e-07
-1.21839e-05
-5.37019e-07
-1.20902e-05
-6.16246e-07
-1.19852e-05
-6.95717e-07
-1.18688e-05
-7.75307e-07
-1.17412e-05
-8.5489e-07
-1.16022e-05
-9.34332e-07
-1.1452e-05