/*--------------------------------*- C++ -*----------------------------------*\
| =========                 |                                                 |
| \\      /  F ield         | OpenFOAM: The Open Source CFD Toolbox           |
|  \\    /   O peration     | Version:  2406                                  |
|   \\  /    A nd           | Website:  www.openfoam.com                      |
|    \\/     M anipulation  |                                                 |
\*---------------------------------------------------------------------------*/
FoamFile
{
    version     2.0;
    format      ascii;
    arch        "LSB;label=32;scalar=64";
    class       surfaceScalarField;
    location    "35.8";
    object      phi_0;
}
// * * * * * * * * * * * * * * * * * * * * * * * * * * * * * * * * * * * * * //

dimensions      [0 3 -1 0 0 0 0];

oriented        oriented;

internalField   nonuniform List<scalar> 
28560
(
-4.0227e-09
4.02363e-09
4.50331e-08
-4.90558e-08
1.63137e-07
-1.18104e-07
3.38717e-07
-1.75581e-07
5.54553e-07
-2.15835e-07
7.92391e-07
-2.37838e-07
1.03534e-06
-2.4295e-07
1.2691e-06
-2.33755e-07
1.48263e-06
-2.13535e-07
1.66848e-06
-1.85853e-07
1.82271e-06
-1.54231e-07
1.94457e-06
-1.21854e-07
2.03592e-06
-9.13498e-08
2.10056e-06
-6.46406e-08
2.14344e-06
-4.28824e-08
2.16994e-06
-2.64974e-08
2.18522e-06
-1.52802e-08
2.19335e-06
-8.13147e-09
2.19728e-06
-3.93088e-09
2.19837e-06
-1.0848e-09
2.19663e-06
1.73219e-09
2.19059e-06
6.04477e-09
2.17731e-06
1.32766e-08
2.15297e-06
2.43457e-08
2.11307e-06
3.99014e-08
2.05275e-06
6.03167e-08
1.96699e-06
8.57624e-08
1.85069e-06
1.16296e-07
1.69875e-06
1.51941e-07
1.50601e-06
1.92744e-07
1.26722e-06
2.3879e-07
9.77028e-07
2.90188e-07
6.2999e-07
3.47038e-07
2.20606e-07
4.09384e-07
-2.56562e-07
4.77168e-07
-8.06753e-07
5.5019e-07
-1.43484e-06
6.28087e-07
-2.14514e-06
7.10304e-07
-2.94123e-06
7.9609e-07
-3.82573e-06
8.84492e-07
-4.80008e-06
9.74354e-07
-5.86441e-06
1.06433e-06
-7.01731e-06
1.1529e-06
-8.25569e-06
1.23838e-06
-9.57468e-06
1.31899e-06
-1.09675e-05
1.39285e-06
-1.24256e-05
1.45803e-06
-1.39382e-05
1.5126e-06
-1.54928e-05
1.55467e-06
-1.70753e-05
1.58243e-06
-1.86694e-05
1.59418e-06
-2.02578e-05
1.58835e-06
-2.18214e-05
1.56358e-06
-2.33401e-05
1.5187e-06
-2.47928e-05
1.45276e-06
-2.61579e-05
1.36506e-06
-2.74131e-05
1.25519e-06
-2.85361e-05
1.12302e-06
-2.95049e-05
9.68812e-07
-3.02981e-05
7.93148e-07
-3.08954e-05
5.9737e-07
-3.12783e-05
3.82908e-07
-3.14274e-05
1.49052e-07
-3.13263e-05
-1.0113e-07
-3.09668e-05
-3.59453e-07
-3.03386e-05
-6.28207e-07
-2.94366e-05
-9.02014e-07
-2.82602e-05
-1.17635e-06
-2.6814e-05
-1.44627e-06
-2.51075e-05
-1.70649e-06
-2.3156e-05
-1.95143e-06
-2.09807e-05
-2.17535e-06
-1.86081e-05
-2.37256e-06
-1.60705e-05
-2.5376e-06
-1.3405e-05
-2.66551e-06
-1.0653e-05
-2.75202e-06
-7.85918e-06
-2.79383e-06
-5.07035e-06
-2.78884e-06
-2.33405e-06
-2.73629e-06
3.02906e-07
-2.63696e-06
2.79605e-06
-2.49314e-06
5.10476e-06
-2.3087e-06
7.19367e-06
-2.08891e-06
9.03393e-06
-1.84026e-06
1.06041e-05
-1.57017e-06
1.18908e-05
-1.2867e-06
1.28889e-05
-9.98091e-07
1.36014e-05
-7.12466e-07
1.40388e-05
-4.37437e-07
1.4219e-05
-1.80247e-07
1.4165e-05
5.40244e-08
1.38999e-05
2.65149e-07
1.34575e-05
4.42392e-07
1.28694e-05
5.88083e-07
1.21663e-05
7.03054e-07
1.13788e-05
7.87512e-07
1.05354e-05
8.43417e-07
9.66191e-06
8.73499e-07
8.78088e-06
8.81027e-07
7.91131e-06
8.69569e-07
7.06855e-06
8.42767e-07
6.26439e-06
8.0416e-07
5.50734e-06
7.57051e-07
4.80292e-06
7.04412e-07
4.15409e-06
6.4883e-07
3.5616e-06
5.92489e-07
3.02443e-06
5.37173e-07
2.54015e-06
4.84284e-07
2.10531e-06
4.34836e-07
1.71587e-06
3.89441e-07
1.36763e-06
3.48245e-07
1.05679e-06
3.10832e-07
7.8068e-07
2.76114e-07
5.38439e-07
2.42241e-07
3.31816e-07
2.06623e-07
1.65566e-07
1.6625e-07
4.70067e-08
1.18559e-07
-1.6416e-08
6.34227e-08
-2.38817e-08
7.46572e-09
-2.38818e-08
4.66533e-08
-4.26297e-08
2.29524e-07
-2.31926e-07
5.57853e-07
-4.46432e-07
1.0079e-06
-6.25629e-07
1.54422e-06
-7.52158e-07
2.12795e-06
-8.21562e-07
2.72178e-06
-8.36784e-07
3.29319e-06
-8.05158e-07
3.81627e-06
-7.36615e-07
4.2727e-06
-6.42291e-07
4.65186e-06
-5.33384e-07
4.95017e-06
-4.20172e-07
5.17008e-06
-3.11251e-07
5.31845e-06
-2.13017e-07
5.40498e-06
-1.29414e-07
5.44041e-06
-6.19267e-08
5.435e-06
-9.86413e-09
5.39714e-06
2.97198e-08
5.33241e-06
6.0803e-08
5.24293e-06
8.83948e-08
5.12692e-06
1.17746e-07
4.97906e-06
1.53898e-07
4.79109e-06
2.0125e-07
4.55222e-06
2.63217e-07
4.24993e-06
3.42187e-07
3.87064e-06
4.39615e-07
3.40016e-06
5.5624e-07
2.82411e-06
6.92341e-07
2.12808e-06
8.47978e-07
1.29768e-06
1.02314e-06
3.18684e-07
1.21779e-06
-8.22929e-07
1.4318e-06
-2.14074e-06
1.66485e-06
-3.64761e-06
1.91625e-06
-5.35527e-06
2.18482e-06
-7.27384e-06
2.46877e-06
-9.41135e-06
2.76559e-06
-1.17731e-05
3.07209e-06
-1.43613e-05
3.38431e-06
-1.71745e-05
3.69761e-06
-2.02068e-05
4.00672e-06
-2.34483e-05
4.30583e-06
-2.68842e-05
4.58872e-06
-3.04947e-05
4.84892e-06
-3.42556e-05
5.07986e-06
-3.81377e-05
5.27504e-06
-4.21079e-05
5.42823e-06
-4.6129e-05
5.53363e-06
-5.01603e-05
5.58599e-06
-5.41586e-05
5.58074e-06
-5.80786e-05
5.51412e-06
-6.18734e-05
5.38319e-06
-6.54957e-05
5.18589e-06
-6.88981e-05
4.92107e-06
-7.20338e-05
4.5885e-06
-7.48576e-05
4.18881e-06
-7.73259e-05
3.72352e-06
-7.93979e-05
3.19504e-06
-8.10358e-05
2.60666e-06
-8.22053e-05
1.96267e-06
-8.28759e-05
1.26803e-06
-8.3022e-05
5.28935e-07
-8.26258e-05
-2.47116e-07
-8.16701e-05
-1.05681e-06
-8.01449e-05
-1.88463e-06
-7.805e-05
-2.72319e-06
-7.53901e-05
-3.56184e-06
-7.2178e-05
-4.38845e-06
-6.84341e-05
-5.1902e-06
-6.4187e-05
-5.95359e-06
-5.94737e-05
-6.66472e-06
-5.43396e-05
-7.30949e-06
-4.88381e-05
-7.87403e-06
-4.30305e-05
-8.34515e-06
-3.69853e-05
-8.71078e-06
-3.07768e-05
-8.96049e-06
-2.44846e-05
-9.08604e-06
-1.81916e-05
-9.08183e-06
-1.19825e-05
-8.94538e-06
-5.94184e-06
-8.67762e-06
-1.51838e-07
-8.28314e-06
5.30968e-06
-7.77023e-06
1.03715e-05
-7.15072e-06
1.4971e-05
-6.43973e-06
1.90559e-05
-5.65515e-06
2.25863e-05
-4.81701e-06
2.55349e-05
-3.9467e-06
2.78885e-05
-3.06615e-06
2.96481e-05
-2.19696e-06
3.08274e-05
-1.35957e-06
3.14531e-05
-5.71643e-07
3.15661e-05
1.52133e-07
3.12146e-05
7.93905e-07
3.04522e-05
1.3504e-06
2.93408e-05
1.81455e-06
2.79435e-05
2.18472e-06
2.63242e-05
2.46271e-06
2.45444e-05
2.65332e-06
2.26617e-05
2.7638e-06
2.0728e-05
2.80324e-06
1.87888e-05
2.78192e-06
1.68824e-05
2.71063e-06
1.50393e-05
2.60014e-06
1.3283e-05
2.46073e-06
1.163e-05
2.30183e-06
1.00906e-05
2.1318e-06
8.67e-06
1.95781e-06
7.36857e-06
1.78571e-06
6.18339e-06
1.62002e-06
5.10907e-06
1.46375e-06
4.13909e-06
1.31823e-06
3.26708e-06
1.18284e-06
2.48845e-06
1.05474e-06
1.80199e-06
9.28708e-07
1.21118e-06
7.97434e-07
7.24809e-07
6.52616e-07
3.55804e-07
4.87564e-07
1.16751e-07
3.02475e-07
1.07032e-08
1.13514e-07
-1.31786e-08
1.11464e-07
-1.54094e-07
4.33845e-07
-5.54308e-07
9.46103e-07
-9.5869e-07
1.61253e-06
-1.29206e-06
2.38655e-06
-1.52618e-06
3.21754e-06
-1.65255e-06
4.0564e-06
-1.67565e-06
4.85966e-06
-1.60842e-06
5.5921e-06
-1.46905e-06
6.22809e-06
-1.27828e-06
6.7519e-06
-1.05719e-06
7.15699e-06
-8.25265e-07
7.44466e-06
-5.98919e-07
7.6221e-06
-3.90456e-07
7.70021e-06
-2.0753e-07
7.69132e-06
-5.30369e-08
7.60703e-06
7.44302e-08
7.45651e-06
1.8024e-07
7.24487e-06
2.72444e-07
6.9724e-06
3.60861e-07
6.6342e-06
4.55947e-07
6.22038e-06
5.67713e-07
5.71674e-06
7.0489e-07
5.10559e-06
8.74375e-07
4.36672e-06
1.08105e-06
3.4784e-06
1.32794e-06
2.41808e-06
1.61656e-06
1.163e-06
1.94742e-06
-3.09367e-07
2.32035e-06
-2.02104e-06
2.73481e-06
-3.99313e-06
3.18988e-06
-6.24545e-06
3.68412e-06
-8.79595e-06
4.21535e-06
-1.166e-05
4.78034e-06
-1.48498e-05
5.37458e-06
-1.83731e-05
5.99208e-06
-2.22329e-05
6.62534e-06
-2.64261e-05
7.26532e-06
-3.09434e-05
7.90158e-06
-3.57682e-05
8.52248e-06
-4.08769e-05
9.11542e-06
-4.62384e-05
9.66725e-06
-5.18143e-05
1.01646e-05
-5.75597e-05
1.05944e-05
-6.34238e-05
1.0944e-05
-6.93509e-05
1.12021e-05
-7.52811e-05
1.13585e-05
-8.11523e-05
1.14048e-05
-8.69006e-05
1.13343e-05
-9.24621e-05
1.11422e-05
-9.77738e-05
1.08259e-05
-0.000102775
1.03842e-05
-0.000107407
9.81813e-06
-0.000111616
9.12996e-06
-0.000115351
8.32364e-06
-0.000118567
7.40439e-06
-0.000121222
6.37861e-06
-0.000123281
5.2538e-06
-0.000124712
4.03844e-06
-0.000125492
2.74205e-06
-0.000125599
1.37553e-06
-0.000125017
-5.28178e-08
-0.000123742
-1.5222e-06
-0.000121771
-3.02865e-06
-0.000119103
-4.55221e-06
-0.000115749
-6.07677e-06
-0.000111726
-7.58535e-06
-0.000107055
-9.0593e-06
-0.000101766
-1.04788e-05
-9.58968e-05
-1.18232e-05
-8.94905e-05
-1.30711e-05
-8.25991e-05
-1.42008e-05
-7.52819e-05
-1.51912e-05
-6.76053e-05
-1.60218e-05
-5.96426e-05
-1.66735e-05
-5.14734e-05
-1.71298e-05
-4.31824e-05
-1.7377e-05
-3.48588e-05
-1.74054e-05
-2.65946e-05
-1.72096e-05
-1.84827e-05
-1.67895e-05
-1.06158e-05
-1.61501e-05
-3.08379e-06
-1.53023e-05
4.02804e-06
-1.42626e-05
1.0641e-05
-1.30527e-05
1.66849e-05
-1.16991e-05
2.21001e-05
-1.02322e-05
2.68389e-05
-8.68552e-06
3.0867e-05
-7.09425e-06
3.41643e-05
-5.49426e-06
3.67254e-05
-3.92065e-06
3.85604e-05
-2.40664e-06
3.96956e-05
-9.8307e-07
4.01674e-05
3.22037e-07
4.00258e-05
1.49202e-06
3.93331e-05
2.50729e-06
3.81586e-05
3.35921e-06
3.65774e-05
4.04395e-06
3.46671e-05
4.56357e-06
3.25054e-05
4.92547e-06
3.01671e-05
5.14155e-06
2.77218e-05
5.22727e-06
2.52319e-05
5.20053e-06
2.27515e-05
5.08052e-06
2.03255e-05
4.88673e-06
1.79893e-05
4.63798e-06
1.57694e-05
4.35177e-06
1.36835e-05
4.0437e-06
1.17421e-05
3.7271e-06
9.94948e-06
3.41266e-06
8.30514e-06
3.10809e-06
6.80567e-06
2.8177e-06
5.44662e-06
2.54189e-06
4.22464e-06
2.27672e-06
3.13947e-06
2.01388e-06
2.19568e-06
1.74122e-06
1.40333e-06
1.44497e-06
7.76931e-07
1.11396e-06
3.31627e-07
7.4778e-07
7.6004e-08
3.69137e-07
6.28254e-08
1.65414e-07
-3.19508e-07
6.06858e-07
-9.95751e-07
1.27334e-06
-1.62517e-06
2.11234e-06
-2.13106e-06
3.06581e-06
-2.47965e-06
4.0739e-06
-2.66064e-06
5.07957e-06
-2.68131e-06
6.03245e-06
-2.56131e-06
6.89161e-06
-2.32821e-06
7.62693e-06
-2.0136e-06
8.21936e-06
-1.64962e-06
8.66009e-06
-1.26599e-06
8.94893e-06
-8.87759e-07
9.09214e-06
-5.33666e-07
9.09989e-06
-2.15283e-07
8.9837e-06
6.31569e-08
8.75383e-06
3.04295e-07
8.41739e-06
5.16681e-07
7.97653e-06
7.13306e-07
7.4275e-06
9.09889e-07
6.76035e-06
1.1231e-06
5.9592e-06
1.36887e-06
5.00305e-06
1.66104e-06
3.86692e-06
2.01051e-06
2.52303e-06
2.42493e-06
9.42054e-07
2.90892e-06
-9.05931e-07
3.46455e-06
-3.05054e-06
4.09202e-06
-5.52035e-06
4.79016e-06
-8.34221e-06
5.55667e-06
-1.15404e-05
6.38812e-06
-1.5136e-05
7.27964e-06
-1.91452e-05
8.22459e-06
-2.3579e-05
9.21415e-06
-2.84415e-05
1.0237e-05
-3.37287e-05
1.12794e-05
-3.94283e-05
1.23249e-05
-4.5518e-05
1.33551e-05
-5.19661e-05
1.43496e-05
-5.87307e-05
1.52872e-05
-6.57612e-05
1.61459e-05
-7.29982e-05
1.69042e-05
-8.03754e-05
1.75419e-05
-8.78214e-05
1.80403e-05
-9.52609e-05
1.83835e-05
-0.000102617
1.85583e-05
-0.000109814
1.85549e-05
-0.000116776
1.83668e-05
-0.000123432
1.79906e-05
-0.000129716
1.74264e-05
-0.000135567
1.66767e-05
-0.000140929
1.57465e-05
-0.000145754
1.4643e-05
-0.000149999
1.33748e-05
-0.000153627
1.19519e-05
-0.000156608
1.03854e-05
-0.000158917
8.68714e-06
-0.000160532
6.86972e-06
-0.00016144
4.94634e-06
-0.000161629
2.93094e-06
-0.000161092
8.38012e-07
-0.000159827
-1.31763e-06
-0.000157831
-3.51765e-06
-0.000155114
-5.74614e-06
-0.000151682
-7.98372e-06
-0.00014755
-1.02097e-05
-0.000142733
-1.24019e-05
-0.000137255
-1.45369e-05
-0.000131145
-1.65894e-05
-0.000124435
-1.8533e-05
-0.000117166
-2.03401e-05
-0.000109384
-2.19825e-05
-0.000101144
-2.34319e-05
-9.25043e-05
-2.4661e-05
-8.35339e-05
-2.56439e-05
-7.43065e-05
-2.63572e-05
-6.49021e-05
-2.67813e-05
-5.54064e-05
-2.69011e-05
-4.59088e-05
-2.67072e-05
-3.65016e-05
-2.61966e-05
-2.72784e-05
-2.53733e-05
-1.83319e-05
-2.42488e-05
-9.75242e-06
-2.2842e-05
-1.62581e-06
-2.11793e-05
5.9684e-06
-1.92933e-05
1.29587e-05
-1.72225e-05
1.92834e-05
-1.50102e-05
2.48918e-05
-1.27026e-05
2.97453e-05
-1.03478e-05
3.38189e-05
-7.99421e-06
3.71014e-05
-5.6892e-06
3.9596e-05
-3.47762e-06
4.13183e-05
-1.4003e-06
4.23021e-05
5.08213e-07
4.25914e-05
2.21804e-06
4.22432e-05
3.70733e-06
4.13252e-05
4.96201e-06
3.99126e-05
5.97609e-06
3.80865e-05
6.75158e-06
3.593e-05
7.29804e-06
3.35257e-05
7.63161e-06
3.09525e-05
7.77376e-06
2.82832e-05
7.74983e-06
2.55825e-05
7.58741e-06
2.29056e-05
7.31482e-06
2.02977e-05
6.95971e-06
1.77935e-05
6.54789e-06
1.54183e-05
6.10232e-06
1.31887e-05
5.64228e-06
1.11142e-05
5.18256e-06
9.19924e-06
4.73266e-06
7.44516e-06
4.29597e-06
5.85275e-06
3.86914e-06
4.42458e-06
3.44205e-06
3.16709e-06
2.99871e-06
2.09191e-06
2.52015e-06
1.21594e-06
1.98993e-06
5.60034e-07
1.40369e-06
1.46739e-07
7.82431e-07
2.09565e-07
2.06885e-07
-5.26393e-07
7.43073e-07
-1.53194e-06
1.53283e-06
-2.41492e-06
2.50565e-06
-3.10388e-06
3.59093e-06
-3.56493e-06
4.71983e-06
-3.78954e-06
5.82869e-06
-3.79017e-06
6.86231e-06
-3.59493e-06
7.77628e-06
-3.24217e-06
8.53802e-06
-2.77535e-06
9.12677e-06
-2.23837e-06
9.53239e-06
-1.67161e-06
9.75347e-06
-1.10884e-06
9.79482e-06
-5.75019e-07
9.66474e-06
-8.52032e-08
9.37216e-06
3.55738e-07
8.924e-06
7.52453e-07
8.32298e-06
1.11771e-06
7.56594e-06
1.47035e-06
6.64294e-06
1.83289e-06
5.5371e-06
2.22894e-06
4.22513e-06
2.68083e-06
2.67844e-06
3.20773e-06
8.64516e-07
3.82443e-06
-1.25151e-06
4.54096e-06
-3.70542e-06
5.36283e-06
-6.5326e-06
6.29172e-06
-9.76678e-06
7.3262e-06
-1.34389e-05
8.46228e-06
-1.75759e-05
9.69364e-06
-2.21992e-05
1.10115e-05
-2.73237e-05
1.24042e-05
-3.29558e-05
1.38566e-05
-3.9092e-05
1.53503e-05
-4.57179e-05
1.6863e-05
-5.28073e-05
1.83687e-05
-6.03215e-05
1.98391e-05
-6.82097e-05
2.12433e-05
-7.641e-05
2.25499e-05
-8.48505e-05
2.37276e-05
-9.34514e-05
2.47468e-05
-0.000102128
2.55804e-05
-0.000110791
2.62054e-05
-0.000119354
2.66032e-05
-0.00012773
2.676e-05
-0.00013584
2.66674e-05
-0.000143606
2.63217e-05
-0.000150963
2.57238e-05
-0.000157851
2.48785e-05
-0.000164219
2.37938e-05
-0.000170023
2.24805e-05
-0.000175227
2.0951e-05
-0.000179803
1.92193e-05
-0.000183729
1.73e-05
-0.000186985
1.52083e-05
-0.000189559
1.29595e-05
-0.000191441
1.0569e-05
-0.000192623
8.05226e-06
-0.000193102
5.42493e-06
-0.000192874
2.70278e-06
-0.000191938
-9.76893e-08
-0.000190296
-2.95981e-06
-0.000187949
-5.86496e-06
-0.000184901
-8.79397e-06
-0.000181159
-1.17256e-05
-0.000176732
-1.46369e-05
-0.000171631
-1.75027e-05
-0.000165872
-2.02957e-05
-0.000159475
-2.29865e-05
-0.000152465
-2.55435e-05
-0.000144871
-2.79334e-05
-0.000136732
-3.01216e-05
-0.000128091
-3.20729e-05
-0.000119
-3.37525e-05
-0.000109517
-3.51268e-05
-9.97094e-05
-3.61649e-05
-8.9651e-05
-3.68397e-05
-7.94225e-05
-3.71297e-05
-6.91103e-05
-3.70195e-05
-5.88051e-05
-3.65018e-05
-4.86006e-05
-3.55778e-05
-3.85912e-05
-3.42582e-05
-2.88705e-05
-3.25628e-05
-1.95288e-05
-3.05209e-05
-1.06517e-05
-2.81703e-05
-2.31814e-06
-2.55562e-05
5.40142e-06
-2.27298e-05
1.24458e-05
-1.9747e-05
1.87644e-05
-1.66664e-05
2.43179e-05
-1.35477e-05
2.90789e-05
-1.04502e-05
3.30322e-05
-7.43098e-06
3.61755e-05
-4.54355e-06
3.852e-05
-1.83634e-06
4.00898e-05
6.48226e-07
4.0922e-05
2.87513e-06
4.10663e-05
4.81772e-06
4.05838e-05
6.45867e-06
3.9545e-05
7.79033e-06
3.80282e-05
8.81487e-06
3.6116e-05
9.54383e-06
3.38926e-05
9.99715e-06
3.14406e-05
1.02018e-05
2.88382e-05
1.01898e-05
2.61563e-05
9.99668e-06
2.34572e-05
9.65882e-06
2.0793e-05
9.21205e-06
1.82057e-05
8.68968e-06
1.5727e-05
8.12096e-06
1.33799e-05
7.52961e-06
1.11802e-05
6.93238e-06
9.13835e-06
6.33783e-06
7.26219e-06
5.7453e-06
5.55954e-06
5.1447e-06
4.04069e-06
4.51756e-06
2.72066e-06
3.84018e-06
1.62101e-06
3.08958e-06
7.71439e-07
2.25326e-06
2.11934e-07
1.34194e-06
4.21499e-07
2.38035e-07
-7.64428e-07
8.47109e-07
-2.14101e-06
1.73143e-06
-3.29925e-06
2.8032e-06
-4.17565e-06
3.9787e-06
-4.74043e-06
5.17979e-06
-4.99063e-06
6.3366e-06
-4.94698e-06
7.39008e-06
-4.64842e-06
8.29375e-06
-4.14583e-06
9.01408e-06
-3.49568e-06
9.5299e-06
-2.75419e-06
9.83069e-06
-1.9724e-06
9.91419e-06
-1.19234e-06
9.7836e-06
-4.44426e-07
9.44449e-06
2.53905e-07
8.90187e-06
8.98356e-07
8.15749e-06
1.49684e-06
7.20766e-06
2.06754e-06
6.04181e-06
2.6362e-06
4.64186e-06
3.23283e-06
2.98246e-06
3.88835e-06
1.0319e-06
4.6314e-06
-1.24631e-06
5.48594e-06
-3.89163e-06
6.46975e-06
-6.94461e-06
7.59394e-06
-1.04451e-05
8.86329e-06
-1.44303e-05
1.0277e-05
-1.89336e-05
1.18295e-05
-2.39824e-05
1.3511e-05
-2.95962e-05
1.53075e-05
-3.57854e-05
1.72007e-05
-4.25488e-05
1.91676e-05
-4.98723e-05
2.11801e-05
-5.77274e-05
2.32055e-05
-6.6071e-05
2.52066e-05
-7.48455e-05
2.71432e-05
-8.39797e-05
2.89732e-05
-9.33908e-05
3.06545e-05
-0.000102988
3.21467e-05
-0.000112673
3.3413e-05
-0.000122348
3.44218e-05
-0.000131915
3.51478e-05
-0.000141282
3.55723e-05
-0.000150363
3.56839e-05
-0.000159081
3.54782e-05
-0.00016737
3.49565e-05
-0.000175174
3.41258e-05
-0.000182448
3.29972e-05
-0.000189154
3.15848e-05
-0.000195265
2.99053e-05
-0.000200761
2.79763e-05
-0.000205626
2.58162e-05
-0.000209851
2.34436e-05
-0.000213427
2.08764e-05
-0.000216351
1.81323e-05
-0.00021862
1.52281e-05
-0.000220231
1.21802e-05
-0.000221183
9.00446e-06
-0.000221475
5.71644e-06
-0.000221104
2.33192e-06
-0.000220069
-1.13288e-06
-0.000218368
-4.66104e-06
-0.000215998
-8.23412e-06
-0.00021296
-1.18323e-05
-0.000209252
-1.54335e-05
-0.000204876
-1.90133e-05
-0.000199834
-2.25443e-05
-0.000194133
-2.59967e-05
-0.000187783
-2.9337e-05
-0.000180797
-3.25294e-05
-0.000173195
-3.55349e-05
-0.000165004
-3.83127e-05
-0.000156257
-4.08203e-05
-0.000146994
-4.30149e-05
-0.000137267
-4.48544e-05
-0.000127132
-4.62989e-05
-0.00011666
-4.73127e-05
-0.000105924
-4.78653e-05
-9.50093e-05
-4.7934e-05
-8.4006e-05
-4.7505e-05
-7.30091e-05
-4.65747e-05
-6.21163e-05
-4.51509e-05
-5.14261e-05
-4.32531e-05
-4.10347e-05
-4.09123e-05
-3.10347e-05
-3.81704e-05
-2.1512e-05
-3.50788e-05
-1.25448e-05
-3.1697e-05
-4.20192e-06
-2.80898e-05
3.45802e-06
-2.43263e-05
1.0387e-05
-2.04767e-05
1.6548e-05
-1.66112e-05
2.19147e-05
-1.27977e-05
2.64718e-05
-9.10066e-06
3.02152e-05
-5.57975e-06
3.31521e-05
-2.28868e-06
3.53013e-05
7.25935e-07
3.66934e-05
3.42565e-06
3.73708e-05
5.78126e-06
3.73874e-05
7.77374e-06
3.68073e-05
9.39494e-06
3.57033e-05
1.06478e-05
3.41544e-05
1.15461e-05
3.22429e-05
1.21133e-05
3.00513e-05
1.23814e-05
2.76593e-05
1.23887e-05
2.5141e-05
1.21771e-05
2.25626e-05
1.17904e-05
1.99812e-05
1.12711e-05
1.74438e-05
1.06583e-05
1.4988e-05
9.98537e-06
1.26428e-05
9.27765e-06
1.043e-05
8.55062e-06
8.367e-06
7.80826e-06
6.46932e-06
7.04238e-06
4.75345e-06
6.23343e-06
3.2402e-06
5.35343e-06
1.95808e-06
4.3717e-06
9.47445e-07
3.26389e-06
2.65912e-07
2.02347e-06
6.8741e-07
2.61831e-07
-1.02626e-06
9.26084e-07
-2.80527e-06
1.87976e-06
-4.25292e-06
3.01873e-06
-5.31462e-06
4.24622e-06
-5.96792e-06
5.47471e-06
-6.21911e-06
6.62834e-06
-6.10062e-06
7.64499e-06
-5.66506e-06
8.47709e-06
-4.97794e-06
9.09137e-06
-4.10996e-06
9.46732e-06
-3.13014e-06
9.59476e-06
-2.09984e-06
9.47091e-06
-1.06849e-06
9.09705e-06
-7.05694e-08
8.47527e-06
8.7569e-07
7.60534e-06
1.76828e-06
6.48217e-06
2.62001e-06
5.09383e-06
3.45588e-06
3.42057e-06
4.30945e-06
1.43472e-06
5.21869e-06
-8.98494e-07
6.22156e-06
-3.61929e-06
7.35219e-06
-6.77121e-06
8.63786e-06
-1.03988e-05
1.00973e-05
-1.45452e-05
1.17404e-05
-1.92501e-05
1.35681e-05
-2.4547e-05
1.55739e-05
-3.04617e-05
1.77442e-05
-3.70098e-05
2.00591e-05
-4.41942e-05
2.24919e-05
-5.20035e-05
2.501e-05
-6.041e-05
2.75741e-05
-6.93689e-05
3.0139e-05
-7.88185e-05
3.2655e-05
-8.8681e-05
3.50691e-05
-9.88652e-05
3.73275e-05
-0.00010927
3.93779e-05
-0.000119787
4.11721e-05
-0.000130309
4.26682e-05
-0.000140728
4.38321e-05
-0.000150945
4.46389e-05
-0.00016087
4.50728e-05
-0.000170425
4.51269e-05
-0.000179543
4.48025e-05
-0.000188173
4.41077e-05
-0.000196273
4.30561e-05
-0.000203812
4.16652e-05
-0.00021077
3.99553e-05
-0.000217133
3.7948e-05
-0.000222893
3.56654e-05
-0.000228047
3.31295e-05
-0.000232592
3.03615e-05
-0.000236529
2.73812e-05
-0.000239861
2.42076e-05
-0.000242586
2.0858e-05
-0.000244707
1.7349e-05
-0.000246223
1.36959e-05
-0.000247132
9.91341e-06
-0.000247431
6.01611e-06
-0.000247118
2.01851e-06
-0.000246187
-2.06433e-06
-0.000244631
-6.21631e-06
-0.000242446
-1.04198e-05
-0.000239623
-1.46553e-05
-0.000236155
-1.89007e-05
-0.000232038
-2.3131e-05
-0.000227264
-2.73178e-05
-0.000221832
-3.14291e-05
-0.00021574
-3.5429e-05
-0.000208992
-3.92776e-05
-0.000201595
-4.29315e-05
-0.000193564
-4.63438e-05
-0.000184919
-4.94648e-05
-0.000175691
-5.22436e-05
-0.000165916
-5.46289e-05
-0.000155644
-5.65708e-05
-0.000144934
-5.80227e-05
-0.000133856
-5.89439e-05
-0.000122488
-5.93013e-05
-0.000110922
-5.90716e-05
-9.9253e-05
-5.82437e-05
-8.75841e-05
-5.68198e-05
-7.60208e-05
-5.48164e-05
-6.46687e-05
-5.22644e-05
-5.36304e-05
-4.92087e-05
-4.30028e-05
-4.57064e-05
-3.28746e-05
-4.18252e-05
-2.33242e-05
-3.76402e-05
-1.44189e-05
-3.32316e-05
-6.21408e-06
-2.86816e-05
1.24676e-06
-2.4072e-05
7.93118e-06
-1.94821e-05
1.38172e-05
-1.49867e-05
1.88929e-05
-1.06554e-05
2.31557e-05
-6.55141e-06
2.66123e-05
-2.73066e-06
2.92792e-05
7.58723e-07
3.11831e-05
3.8774e-06
3.2361e-05
6.59583e-06
3.28607e-05
8.89523e-06
3.27401e-05
1.07684e-05
3.20662e-05
1.222e-05
3.09131e-05
1.32664e-05
2.93593e-05
1.39352e-05
2.74853e-05
1.42627e-05
2.53698e-05
1.42926e-05
2.30876e-05
1.40727e-05
2.07066e-05
1.36521e-05
1.82868e-05
1.30782e-05
1.5879e-05
1.23932e-05
1.35252e-05
1.16314e-05
1.12599e-05
1.0816e-05
9.11119e-06
9.95693e-06
7.10422e-06
9.04935e-06
5.26384e-06
8.07381e-06
3.61872e-06
6.99855e-06
2.20599e-06
5.78443e-06
1.07716e-06
4.39272e-06
3.05514e-07
2.79511e-06
9.92924e-07
2.80625e-07
-1.30688e-06
9.85945e-07
-3.51059e-06
1.98672e-06
-5.2537e-06
3.16323e-06
-6.49113e-06
4.40599e-06
-7.21069e-06
5.61842e-06
-7.43154e-06
6.71927e-06
-7.20147e-06
7.6441e-06
-6.58989e-06
8.34534e-06
-5.67918e-06
8.79094e-06
-4.55557e-06
8.96186e-06
-3.30105e-06
8.84875e-06
-1.98674e-06
8.44829e-06
-6.68027e-07
7.75938e-06
6.18338e-07
6.77962e-06
1.85545e-06
5.50221e-06
3.04569e-06
3.91363e-06
4.2086e-06
1.99218e-06
5.37732e-06
-2.92323e-07
6.59395e-06
-2.97783e-06
7.90419e-06
-6.10828e-06
9.35201e-06
-9.73115e-06
1.09751e-05
-1.38946e-05
1.28013e-05
-1.86444e-05
1.48472e-05
-2.40213e-05
1.71173e-05
-3.0058e-05
1.96048e-05
-3.67768e-05
2.22927e-05
-4.41868e-05
2.51543e-05
-5.22817e-05
2.81539e-05
-6.10373e-05
3.12476e-05
-7.04107e-05
3.43834e-05
-8.03392e-05
3.75026e-05
-9.07419e-05
4.05417e-05
-0.000101522
4.34348e-05
-0.000112569
4.61167e-05
-0.000123768
4.85262e-05
-0.000134999
5.06089e-05
-0.000146147
5.23199e-05
-0.000157104
5.36251e-05
-0.000167774
5.45023e-05
-0.000178075
5.49403e-05
-0.000187941
5.49384e-05
-0.000197319
5.45048e-05
-0.000206171
5.36543e-05
-0.00021447
5.24072e-05
-0.000222201
5.0787e-05
-0.000229355
4.88189e-05
-0.000235929
4.6529e-05
-0.000241923
4.39429e-05
-0.000247343
4.10851e-05
-0.000252192
3.79787e-05
-0.000256476
3.46453e-05
-0.000260199
3.11045e-05
-0.000263366
2.73742e-05
-0.000265979
2.34707e-05
-0.000268039
1.94091e-05
-0.000269546
1.52034e-05
-0.000270499
1.08666e-05
-0.000270895
6.41164e-06
-0.000270728
1.85148e-06
-0.000269992
-2.80042e-06
-0.000268679
-7.5295e-06
-0.000266779
-1.23196e-05
-0.000264282
-1.71523e-05
-0.000261176
-2.20066e-05
-0.000257449
-2.68581e-05
-0.000253088
-3.16786e-05
-0.000248082
-3.64354e-05
-0.000242419
-4.10915e-05
-0.000236092
-4.56046e-05
-0.000229096
-4.99278e-05
-0.00022143
-5.40095e-05
-0.000213101
-5.77939e-05
-0.000204122
-6.12222e-05
-0.000194518
-6.42338e-05
-0.00018432
-6.67679e-05
-0.000173577
-6.87663e-05
-0.000162346
-7.0175e-05
-0.000150699
-7.09478e-05
-0.000138722
-7.10488e-05
-0.000126511
-7.04551e-05
-0.000114171
-6.9159e-05
-0.000101818
-6.71699e-05
-8.95671e-05
-6.45152e-05
-7.75361e-05
-6.12396e-05
-6.5838e-05
-5.74045e-05
-5.4578e-05
-5.30852e-05
-4.38504e-05
-4.83678e-05
-3.37363e-05
-4.33457e-05
-2.43025e-05
-3.81154e-05
-1.56012e-05
-3.27733e-05
-7.67076e-06
-2.74125e-05
-5.37089e-07
-2.21204e-05
5.78473e-06
-1.69773e-05
1.12889e-05
-1.20555e-05
1.59776e-05
-7.41937e-06
1.98607e-05
-3.12443e-06
2.29558e-05
7.8233e-07
2.52884e-05
4.26327e-06
2.68928e-05
7.29079e-06
2.78129e-05
9.84832e-06
2.81016e-05
1.19312e-05
2.7821e-05
1.3547e-05
2.70404e-05
1.47159e-05
2.58341e-05
1.54689e-05
2.42794e-05
1.58473e-05
2.24529e-05
1.58991e-05
2.04284e-05
1.56766e-05
1.82742e-05
1.52324e-05
1.60514e-05
1.4616e-05
1.38136e-05
1.38692e-05
1.16068e-05
1.30228e-05
9.47056e-06
1.20932e-05
7.44035e-06
1.10796e-05
5.55079e-06
9.96336e-06
3.83978e-06
8.70956e-06
2.3539e-06
7.27032e-06
1.15514e-06
5.59148e-06
3.29239e-07
3.62102e-06
1.32216e-06
2.95824e-07
-1.60271e-06
1.03022e-06
-4.24498e-06
2.05737e-06
-6.28085e-06
3.24238e-06
-7.67614e-06
4.46364e-06
-8.43195e-06
5.61628e-06
-8.58418e-06
6.61462e-06
-8.19981e-06
7.39306e-06
-7.36833e-06
7.90506e-06
-6.19119e-06
8.12072e-06
-4.77122e-06
8.02303e-06
-3.20335e-06
7.60359e-06
-1.5673e-06
6.85818e-06
7.73821e-08
5.78248e-06
1.69403e-06
4.3684e-06
3.26953e-06
2.60116e-06
4.81294e-06
4.57416e-07
6.35234e-06
-2.09532e-06
7.93006e-06
-5.09806e-06
9.59669e-06
-8.59843e-06
1.14046e-05
-1.26478e-05
1.34014e-05
-1.72978e-05
1.5625e-05
-2.25965e-05
1.81001e-05
-2.85853e-05
2.08359e-05
-3.52948e-05
2.38268e-05
-4.27427e-05
2.70527e-05
-5.09301e-05
3.04801e-05
-5.98397e-05
3.40638e-05
-6.94333e-05
3.77476e-05
-7.96515e-05
4.14657e-05
-9.04135e-05
4.51454e-05
-0.00010162
4.87089e-05
-0.000113156
5.20775e-05
-0.000124896
5.51757e-05
-0.000136714
5.79343e-05
-0.000148483
6.0295e-05
-0.000160085
6.22115e-05
-0.000171418
6.3652e-05
-0.000182391
6.45983e-05
-0.000192934
6.50452e-05
-0.000202992
6.49985e-05
-0.000212527
6.44733e-05
-0.000221513
6.3491e-05
-0.000229936
6.20778e-05
-0.000237791
6.02621e-05
-0.000245078
5.80738e-05
-0.000251801
5.55422e-05
-0.000257968
5.26959e-05
-0.000263587
4.95617e-05
-0.000268667
4.61648e-05
-0.000273216
4.2528e-05
-0.000277243
3.86721e-05
-0.000280754
3.46159e-05
-0.000283756
3.03761e-05
-0.000286253
2.59679e-05
-0.000288249
2.14049e-05
-0.000289745
1.66994e-05
-0.000290742
1.1863e-05
-0.000291237
6.90663e-06
-0.000291226
1.84138e-06
-0.000290706
-3.32135e-06
-0.000289666
-8.5692e-06
-0.000288097
-1.38882e-05
-0.000285987
-1.92624e-05
-0.000283321
-2.46727e-05
-0.000280082
-3.0097e-05
-0.000276252
-3.55085e-05
-0.000271812
-4.08761e-05
-0.00026674
-4.61631e-05
-0.000261017
-5.13272e-05
-0.000254625
-5.63198e-05
-0.000247548
-6.10866e-05
-0.000239775
-6.55672e-05
-0.000231301
-6.96965e-05
-0.000222129
-7.34054e-05
-0.000212274
-7.66226e-05
-0.000201763
-7.92771e-05
-0.000190638
-8.13007e-05
-0.000178954
-8.26311e-05
-0.000166787
-8.32159e-05
-0.000154227
-8.30157e-05
-0.000141378
-8.20076e-05
-0.00012836
-8.01881e-05
-0.0001153
-7.75748e-05
-0.000102332
-7.42076e-05
-8.95892e-05
-7.01475e-05
-7.71995e-05
-6.54749e-05
-6.52814e-05
-6.0286e-05
-5.39389e-05
-5.46882e-05
-4.3259e-05
-4.87953e-05
-3.33101e-05
-4.27222e-05
-2.41421e-05
-3.65805e-05
-1.5788e-05
-3.04745e-05
-8.26606e-06
-2.44992e-05
-1.58256e-06
-1.8739e-05
4.26536e-06
-1.32673e-05
9.2878e-06
-8.14687e-06
1.35008e-05
-3.43064e-06
1.69259e-05
8.38153e-07
1.95907e-05
4.62592e-06
2.15298e-05
7.90929e-06
2.27851e-05
1.06759e-05
2.3407e-05
1.29252e-05
2.34537e-05
1.46691e-05
2.29908e-05
1.59319e-05
2.20888e-05
1.67493e-05
2.08215e-05
1.71664e-05
1.92631e-05
1.7235e-05
1.74856e-05
1.70099e-05
1.55568e-05
1.65448e-05
1.35386e-05
1.58873e-05
1.14868e-05
1.50746e-05
9.45145e-06
1.41286e-05
7.47837e-06
1.30526e-05
5.61232e-06
1.18294e-05
3.90088e-06
1.0421e-05
2.39996e-06
8.77124e-06
1.18057e-06
6.81087e-06
3.36941e-07
4.46465e-06
1.6591e-06
3.07885e-07
-1.91059e-06
1.0598e-06
-4.9969e-06
2.09246e-06
-7.3135e-06
3.25603e-06
-8.83971e-06
4.41765e-06
-9.59356e-06
5.4654e-06
-9.63194e-06
6.31062e-06
-9.04503e-06
6.88787e-06
-7.94558e-06
7.15289e-06
-6.4562e-06
7.07864e-06
-4.69698e-06
6.65043e-06
-2.77514e-06
5.86055e-06
-7.77417e-07
4.7031e-06
1.23484e-06
3.16936e-06
3.22777e-06
1.24419e-06
5.1947e-06
-1.09651e-06
7.15363e-06
-3.88676e-06
9.14259e-06
-7.17006e-06
1.12134e-05
-1.09974e-05
1.3424e-05
-1.54237e-05
1.58309e-05
-2.05042e-05
1.84818e-05
-2.62893e-05
2.14101e-05
-3.28205e-05
2.46313e-05
-4.01264e-05
2.81418e-05
-4.82191e-05
3.19195e-05
-5.7091e-05
3.59246e-05
-6.67129e-05
4.01021e-05
-7.70322e-05
4.43831e-05
-8.79725e-05
4.86879e-05
-9.94357e-05
5.29289e-05
-0.000111305
5.70145e-05
-0.00012345
6.08538e-05
-0.000135734
6.43616e-05
-0.000148021
6.74626e-05
-0.000160182
7.00955e-05
-0.000172102
7.22147e-05
-0.000183681
7.37913e-05
-0.000194842
7.48122e-05
-0.000205522
7.52784e-05
-0.000215679
7.52023e-05
-0.000225286
7.46052e-05
-0.000234327
7.35144e-05
-0.000242797
7.19611e-05
-0.000250697
6.99782e-05
-0.000258034
6.75992e-05
-0.000264817
6.48569e-05
-0.000271058
6.17824e-05
-0.000276767
5.84052e-05
-0.000281958
5.47525e-05
-0.000286642
5.08492e-05
-0.000290832
4.67179e-05
-0.000294539
4.23789e-05
-0.000297773
3.78501e-05
-0.000300545
3.31475e-05
-0.000302862
2.82849e-05
-0.000304731
2.32747e-05
-0.00030616
1.81276e-05
-0.00030715
1.28533e-05
-0.000307704
7.46087e-06
-0.000307822
1.95879e-06
-0.000307499
-3.64404e-06
-0.00030673
-9.33811e-06
-0.000305506
-1.51126e-05
-0.000303813
-2.09547e-05
-0.000301637
-2.68488e-05
-0.000298958
-3.27761e-05
-0.000295753
-3.87134e-05
-0.000291997
-4.46325e-05
-0.00028766
-5.04995e-05
-0.000282714
-5.6274e-05
-0.000277125
-6.19086e-05
-0.000270863
-6.73485e-05
-0.000263898
-7.25317e-05
-0.000256206
-7.7389e-05
-0.000247766
-8.18449e-05
-0.00023857
-8.58191e-05
-0.000228618
-8.92287e-05
-0.000217928
-9.19907e-05
-0.000206534
-9.40255e-05
-0.000194489
-9.5261e-05
-0.000181868
-9.5637e-05
-0.000168766
-9.51094e-05
-0.0001553
-9.36546e-05
-0.000141601
-9.1273e-05
-0.000127818
-8.79912e-05
-0.000114103
-8.38627e-05
-0.000100611
-7.89669e-05
-8.74908e-05
-7.34058e-05
-7.48797e-05
-6.72993e-05
-6.28958e-05
-6.07792e-05
-5.16356e-05
-5.39824e-05
-4.11718e-05
-4.70442e-05
-3.15537e-05
-4.00926e-05
-2.28089e-05
-3.3244e-05
-1.49475e-05
-2.66005e-05
-7.96546e-06
-2.02493e-05
-1.84902e-06
-1.42633e-05
3.42224e-06
-8.7019e-06
7.87328e-06
-3.61288e-06
1.15327e-05