/*--------------------------------*- C++ -*----------------------------------*\
| =========                 |                                                 |
| \\      /  F ield         | OpenFOAM: The Open Source CFD Toolbox           |
|  \\    /   O peration     | Version:  2406                                  |
|   \\  /    A nd           | Website:  www.openfoam.com                      |
|    \\/     M anipulation  |                                                 |
\*---------------------------------------------------------------------------*/
FoamFile
{
    version     2.0;
    format      ascii;
    arch        "LSB;label=32;scalar=64";
    class       volVectorField;
    location    "41.85";
    object      U;
}
// * * * * * * * * * * * * * * * * * * * * * * * * * * * * * * * * * * * * * //

dimensions      [0 1 -1 0 0 0 0];

internalField   nonuniform List<vector> 
3600
(
(-1.96638e-05 6.23511e-06 0)
(0.000415594 -0.000207421 0)
(0.00129778 -0.000326401 0)
(0.00230929 -0.000348739 0)
(0.00326926 -0.000283635 0)
(0.00395579 -0.000192692 0)
(0.00440305 -0.000109644 0)
(0.00459952 -6.1329e-05 0)
(0.00468205 -4.73861e-05 0)
(0.00467435 -5.57055e-05 0)
(0.00463828 -6.6351e-05 0)
(0.00451448 -6.21099e-05 0)
(0.00426139 -3.37414e-05 0)
(0.00377252 2.15016e-05 0)
(0.00297478 0.000102328 0)
(0.00176553 0.00020968 0)
(6.64961e-05 0.00034607 0)
(-0.00221792 0.000512906 0)
(-0.00516201 0.000701596 0)
(-0.00883944 0.000897935 0)
(-0.0132907 0.00109433 0)
(-0.0185202 0.00130003 0)
(-0.0244625 0.0015298 0)
(-0.0309769 0.00178332 0)
(-0.037833 0.00202948 0)
(-0.0447192 0.00221267 0)
(-0.0512562 0.00227053 0)
(-0.0570287 0.00215407 0)
(-0.0616202 0.00183703 0)
(-0.064646 0.00131893 0)
(-0.0657836 0.000621146 0)
(-0.0647934 -0.000216014 0)
(-0.0615424 -0.00113802 0)
(-0.0560149 -0.00207804 0)
(-0.048335 -0.00296119 0)
(-0.0387668 -0.00370765 0)
(-0.0277298 -0.00423997 0)
(-0.0157747 -0.00449073 0)
(-0.00357612 -0.00441404 0)
(0.00813562 -0.00399634 0)
(0.0186146 -0.00326601 0)
(0.0272125 -0.00229746 0)
(0.0334268 -0.00120534 0)
(0.037017 -0.000129811 0)
(0.0379965 0.000792103 0)
(0.0366824 0.00145495 0)
(0.0335771 0.00181483 0)
(0.029337 0.00189355 0)
(0.024575 0.00176715 0)
(0.0198479 0.00152628 0)
(0.0154936 0.00125015 0)
(0.0117437 0.000984939 0)
(0.00861809 0.000756621 0)
(0.0061298 0.000568975 0)
(0.00414736 0.000427765 0)
(0.00262782 0.000318478 0)
(0.00143105 0.000237943 0)
(0.000570783 0.000139057 0)
(3.81341e-05 2.58705e-05 0)
(-0.000101912 -0.000109924 0)
(0.000166905 -0.000394314 0)
(0.00131528 -0.00135416 0)
(0.00320667 -0.00184622 0)
(0.00522759 -0.00188636 0)
(0.00708144 -0.0015388 0)
(0.00837349 -0.00103149 0)
(0.00911562 -0.000527602 0)
(0.00926004 -0.000138728 0)
(0.00898027 0.000121468 0)
(0.0082848 0.000312252 0)
(0.00721414 0.000523033 0)
(0.0056176 0.000843926 0)
(0.00334447 0.00132511 0)
(0.000142632 0.00199074 0)
(-0.00419993 0.00283785 0)
(-0.0099234 0.00386203 0)
(-0.0172096 0.00504513 0)
(-0.0262171 0.0063643 0)
(-0.0369953 0.00778239 0)
(-0.0494606 0.00924965 0)
(-0.063326 0.010675 0)
(-0.0781217 0.011923 0)
(-0.0932236 0.0128276 0)
(-0.107937 0.0132356 0)
(-0.12157 0.0130311 0)
(-0.133499 0.0121527 0)
(-0.143208 0.0105902 0)
(-0.150299 0.00838221 0)
(-0.154482 0.00560262 0)
(-0.155569 0.002356 0)
(-0.153457 -0.00123261 0)
(-0.148123 -0.00501698 0)
(-0.139627 -0.00883443 0)
(-0.128109 -0.0125019 0)
(-0.113814 -0.0158217 0)
(-0.0970879 -0.0185825 0)
(-0.0784075 -0.0205761 0)
(-0.0583642 -0.0216107 0)
(-0.0376815 -0.0215431 0)
(-0.0171624 -0.0203027 0)
(0.00231883 -0.0179252 0)
(0.0199206 -0.0145656 0)
(0.0348565 -0.0105012 0)
(0.0465323 -0.00610585 0)
(0.054539 -0.00180027 0)
(0.0587825 0.00200803 0)
(0.0594107 0.00499955 0)
(0.0569114 0.00699049 0)
(0.051945 0.00796964 0)
(0.0453891 0.00807384 0)
(0.038054 0.00754576 0)
(0.0307313 0.00664526 0)
(0.0238979 0.00560626 0)
(0.0179267 0.00458048 0)
(0.012848 0.00367474 0)
(0.00872185 0.00289703 0)
(0.00536978 0.00224952 0)
(0.0028301 0.00158542 0)
(0.00101002 0.000890208 0)
(8.41249e-05 7.02651e-05 0)
(0.000291613 -0.00124538 0)
(0.00189469 -0.00328248 0)
(0.00438488 -0.00425187 0)
(0.00686427 -0.00419796 0)
(0.00898073 -0.00333892 0)
(0.0102469 -0.0021016 0)
(0.0106734 -0.000841009 0)
(0.0101771 0.000237 0)
(0.00890079 0.00110363 0)
(0.00677652 0.00190191 0)
(0.00374123 0.00282763 0)
(-0.000486025 0.00408211 0)
(-0.00618863 0.00577405 0)
(-0.0137362 0.00795243 0)
(-0.0234267 0.0105936 0)
(-0.0355252 0.0136502 0)
(-0.0501246 0.0170225 0)
(-0.0671047 0.0205573 0)
(-0.0860264 0.023995 0)
(-0.106187 0.0270009 0)
(-0.126706 0.0292235 0)
(-0.146684 0.0303931 0)
(-0.16532 0.0303522 0)
(-0.181981 0.0290648 0)
(-0.196214 0.026577 0)
(-0.207721 0.0229938 0)
(-0.216324 0.0184449 0)
(-0.221926 0.0130782 0)
(-0.224479 0.00704544 0)
(-0.223964 0.000509417 0)
(-0.22038 -0.00635999 0)
(-0.213736 -0.013372 0)
(-0.204068 -0.0203146 0)
(-0.191443 -0.0269397 0)
(-0.175987 -0.0329685 0)
(-0.157904 -0.0380868 0)
(-0.137507 -0.041968 0)
(-0.11523 -0.0442913 0)
(-0.0916553 -0.0447917 0)
(-0.0674857 -0.0432983 0)
(-0.0435469 -0.0397948 0)
(-0.0206961 -0.0344441 0)
(0.000199167 -0.0276076 0)
(0.0183975 -0.0198092 0)
(0.0332769 -0.0116799 0)
(0.0444629 -0.00387411 0)
(0.0517487 0.00301592 0)
(0.0552234 0.00852517 0)
(0.0551493 0.0123783 0)
(0.0521145 0.0145141 0)
(0.0468169 0.0150974 0)
(0.0401705 0.0144615 0)
(0.0329346 0.0130368 0)
(0.0258629 0.0112263 0)
(0.0193148 0.00936521 0)
(0.013637 0.00761525 0)
(0.00878265 0.00604311 0)
(0.00493131 0.00446395 0)
(0.00196632 0.00278062 0)
(0.000286574 0.000779291 0)
(0.000376149 -0.0023121 0)
(0.00225152 -0.00552773 0)
(0.00498654 -0.0068641 0)
(0.00743808 -0.00646891 0)
(0.00923383 -0.00483132 0)
(0.00985802 -0.00258927 0)
(0.00934387 -0.000292635 0)
(0.00756812 0.00180544 0)
(0.004588 0.00370125 0)
(0.000191192 0.00566362 0)
(-0.00585647 0.00800789 0)
(-0.0139903 0.0110348 0)
(-0.024598 0.014871 0)
(-0.0380595 0.0195309 0)
(-0.0545485 0.024883 0)
(-0.0739931 0.0306957 0)
(-0.0959182 0.0365607 0)
(-0.119501 0.0419491 0)
(-0.143685 0.0462969 0)
(-0.167426 0.049175 0)
(-0.189847 0.0503398 0)
(-0.210324 0.0497437 0)
(-0.228464 0.0474629 0)
(-0.244057 0.0436553 0)
(-0.257008 0.0385011 0)
(-0.267292 0.0321889 0)
(-0.274913 0.0248909 0)
(-0.27988 0.0167715 0)
(-0.282196 0.00797999 0)
(-0.281844 -0.00132992 0)
(-0.278793 -0.0109994 0)
(-0.272988 -0.0208402 0)
(-0.264377 -0.0306309 0)
(-0.252903 -0.0400931 0)
(-0.238549 -0.0488936 0)
(-0.22134 -0.0566331 0)
(-0.201403 -0.0628711 0)
(-0.178978 -0.0671451 0)
(-0.154477 -0.0690359 0)
(-0.12848 -0.0682225 0)
(-0.10176 -0.0645737 0)
(-0.0752064 -0.0581969 0)
(-0.0497954 -0.0494826 0)
(-0.0264275 -0.0390635 0)
(-0.00588802 -0.0277441 0)
(0.0113013 -0.0163746 0)
(0.0248004 -0.00574534 0)
(0.0345318 0.00348826 0)
(0.0405119 0.0108476 0)
(0.0430074 0.0160538 0)
(0.0423739 0.0190618 0)
(0.0392767 0.0200674 0)
(0.0343826 0.0194786 0)
(0.0285536 0.0178125 0)
(0.0223661 0.0155914 0)
(0.0164636 0.0131897 0)
(0.01102 0.0108073 0)
(0.00644771 0.00832167 0)
(0.00270482 0.00551696 0)
(0.000449677 0.00199535 0)
(0.000431202 -0.00359177 0)
(0.00241795 -0.00801847 0)
(0.00508835 -0.00951953 0)
(0.00709701 -0.00844331 0)
(0.0080655 -0.00567512 0)
(0.00749346 -0.0020818 0)
(0.00543628 0.00160192 0)
(0.00171819 0.00514678 0)
(-0.00373943 0.00863446 0)
(-0.0113308 0.0125046 0)
(-0.0214686 0.0171787 0)
(-0.0346688 0.0229939 0)
(-0.0512551 0.029981 0)
(-0.0713191 0.0379511 0)
(-0.0945019 0.0464205 0)
(-0.120008 0.0547133 0)
(-0.146687 0.0620272 0)
(-0.173331 0.0676862 0)
(-0.198909 0.0712438 0)
(-0.222698 0.0725419 0)
(-0.244264 0.0716161 0)
(-0.263398 0.0686429 0)
(-0.280028 0.0638468 0)
(-0.294167 0.0574771 0)
(-0.305868 0.0497595 0)
(-0.315194 0.0409033 0)
(-0.32221 0.03108 0)
(-0.326965 0.0204444 0)
(-0.32949 0.00912688 0)
(-0.329783 -0.0027393 0)
(-0.327816 -0.0150189 0)
(-0.323517 -0.027543 0)
(-0.316783 -0.0401043 0)
(-0.307472 -0.052424 0)
(-0.295431 -0.0641489 0)
(-0.2805 -0.0748271 0)
(-0.262569 -0.0839269 0)
(-0.241609 -0.0908467 0)
(-0.217753 -0.0949842 0)
(-0.191335 -0.0958034 0)
(-0.162967 -0.0929596 0)
(-0.133516 -0.0863923 0)
(-0.104093 -0.0764253 0)
(-0.0758851 -0.0637585 0)
(-0.0500311 -0.0493997 0)
(-0.0273785 -0.034477 0)
(-0.0084592 -0.0200571 0)
(0.00659015 -0.00700042 0)
(0.0177912 0.00406951 0)
(0.0253605 0.0127499 0)
(0.0294981 0.0188392 0)
(0.030636 0.0223689 0)
(0.0292129 0.0236072 0)
(0.0259661 0.0230398 0)
(0.0214713 0.0212452 0)
(0.0165092 0.0187595 0)
(0.0114276 0.0159062 0)
(0.0068654 0.0126794 0)
(0.00293003 0.00873805 0)
(0.000496497 0.00349823 0)
(0.000472241 -0.00490942 0)
(0.00240198 -0.0103568 0)
(0.00464747 -0.0116454 0)
(0.00575004 -0.00944198 0)
(0.00535883 -0.00514383 0)
(0.00303793 0.000161721 0)
(-0.00116387 0.00561285 0)
(-0.00750803 0.0111054 0)
(-0.016262 0.0168696 0)
(-0.0279884 0.0235111 0)
(-0.0431775 0.0314532 0)
(-0.0621871 0.0408846 0)
(-0.0849248 0.0514882 0)
(-0.110804 0.0626021 0)
(-0.138724 0.0732402 0)
(-0.167347 0.0824287 0)
(-0.195402 0.0893823 0)
(-0.22193 0.0936956 0)
(-0.246324 0.0952594 0)
(-0.268268 0.0942111 0)
(-0.287649 0.0907923 0)
(-0.304476 0.0853129 0)
(-0.318832 0.0780696 0)
(-0.330838 0.0693501 0)
(-0.34064 0.0593927 0)
(-0.348382 0.0484073 0)
(-0.354212 0.0365529 0)
(-0.35825 0.0239651 0)
(-0.360598 0.0107434 0)
(-0.361313 -0.00301673 0)
(-0.360411 -0.0172284 0)
(-0.357842 -0.0317752 0)
(-0.353497 -0.0465081 0)
(-0.347189 -0.0612013 0)
(-0.338664 -0.0755446 0)
(-0.327596 -0.0891017 0)
(-0.313633 -0.101315 0)
(-0.296419 -0.111492 0)
(-0.275695 -0.118863 0)
(-0.251371 -0.122638 0)
(-0.223663 -0.12215 0)
(-0.193158 -0.116992 0)
(-0.160897 -0.107198 0)
(-0.128276 -0.0933312 0)
(-0.0969117 -0.0764932 0)
(-0.0682925 -0.058136 0)
(-0.0435383 -0.0397807 0)
(-0.0231361 -0.0226936 0)
(-0.00710414 -0.00774601 0)
(0.0049025 0.00457203 0)
(0.0132061 0.0140124 0)
(0.0182297 0.0205335 0)
(0.020295 0.0242706 0)
(0.0199819 0.0256042 0)
(0.0177619 0.0250472 0)
(0.0144053 0.0231906 0)
(0.0103469 0.0204104 0)
(0.00636854 0.016801 0)
(0.00274353 0.0119058 0)
(0.000459927 0.00499429 0)
(0.000487916 -0.00626686 0)
(0.0021454 -0.0123924 0)
(0.0035684 -0.0129733 0)
(0.00330984 -0.00914099 0)
(0.00107303 -0.00288422 0)
(-0.00348586 0.00453863 0)
(-0.0103821 0.0122298 0)
(-0.0199894 0.0203052 0)
(-0.0327597 0.0291531 0)
(-0.0492841 0.0394357 0)
(-0.0698704 0.0513454 0)
(-0.0943603 0.0646271 0)
(-0.121957 0.0783709 0)
(-0.151366 0.091416 0)
(-0.18111 0.102559 0)
(-0.209883 0.110973 0)
(-0.23676 0.116217 0)
(-0.261184 0.118257 0)
(-0.282897 0.117268 0)
(-0.301824 0.11358 0)
(-0.318031 0.107551 0)
(-0.331654 0.0995632 0)
(-0.342896 0.0899569 0)
(-0.351984 0.079049 0)
(-0.359169 0.0670887 0)
(-0.364688 0.054287 0)
(-0.368771 0.0407876 0)
(-0.37161 0.0267024 0)
(-0.373371 0.0120934 0)
(-0.37416 -0.00298832 0)
(-0.374047 -0.0185128 0)
(-0.373025 -0.0344293 0)
(-0.371025 -0.0506672 0)
(-0.367877 -0.0670882 0)
(-0.363318 -0.0834758 0)
(-0.356957 -0.0994812 0)
(-0.348296 -0.114611 0)
(-0.336727 -0.128184 0)
(-0.321614 -0.139357 0)
(-0.302361 -0.147144 0)
(-0.278588 -0.150542 0)
(-0.250277 -0.148678 0)
(-0.217978 -0.141051 0)
(-0.182878 -0.127743 0)
(-0.146799 -0.109598 0)
(-0.111904 -0.0881814 0)
(-0.0802897 -0.0655259 0)
(-0.0534088 -0.0436272 0)
(-0.0318487 -0.0239992 0)
(-0.01533 -0.00745652 0)
(-0.0032612 0.00570188 0)
(0.00505837 0.0154964 0)
(0.0100994 0.0220634 0)
(0.0124292 0.025738 0)
(0.0124568 0.0269415 0)
(0.0108837 0.0262419 0)
(0.00816911 0.0239908 0)
(0.00514101 0.0203272 0)
(0.00220737 0.0147022 0)
(0.000349505 0.0063042 0)
(0.000455136 -0.00743911 0)
(0.00154854 -0.0136476 0)
(0.00168971 -0.0129045 0)
(-0.000392026 -0.00691822 0)
(-0.00493205 0.00172089 0)
(-0.0121725 0.0116823 0)
(-0.0222595 0.0221423 0)
(-0.0356591 0.0334775 0)
(-0.052901 0.0461275 0)
(-0.0743314 0.0605558 0)
(-0.0997541 0.0764102 0)
(-0.128269 0.092785 0)
(-0.158457 0.10824 0)
(-0.188718 0.121461 0)
(-0.217703 0.13145 0)
(-0.24445 0.137783 0)
(-0.268416 0.140402 0)
(-0.289335 0.139565 0)
(-0.307173 0.135641 0)
(-0.322025 0.1291 0)
(-0.334117 0.120394 0)
(-0.343731 0.109978 0)
(-0.351209 0.098231 0)
(-0.356885 0.0854873 0)
(-0.3611 0.0719876 0)
(-0.364145 0.0579215 0)
(-0.366289 0.0433972 0)
(-0.367743 0.0284875 0)
(-0.368691 0.0132085 0)
(-0.369257 -0.0024359 0)
(-0.369542 -0.0184711 0)
(-0.369582 -0.0349093 0)
(-0.369373 -0.0517597 0)
(-0.36882 -0.0689811 0)
(-0.367744 -0.0864789 0)
(-0.365821 -0.104045 0)
(-0.362583 -0.121338 0)
(-0.357361 -0.137811 0)
(-0.349325 -0.1527 0)
(-0.337502 -0.164989 0)
(-0.320926 -0.173469 0)
(-0.2988 -0.176845 0)
(-0.270795 -0.173968 0)
(-0.237295 -0.164126 0)
(-0.19964 -0.147395 0)
(-0.160089 -0.124867 0)
(-0.121547 -0.0986696 0)
(-0.0868397 -0.0715357 0)
(-0.0579704 -0.0460923 0)
(-0.0355379 -0.0241039 0)
(-0.0190328 -0.00630674 0)
(-0.00737814 0.0073384 0)
(0.000338257 0.0171156 0)
(0.00493233 0.0234658 0)
(0.00692366 0.0267979 0)
(0.00699951 0.0276475 0)
(0.0056438 0.0263041 0)
(0.00366714 0.0228955 0)
(0.0015673 0.0168166 0)
(0.000225821 0.00725518 0)
(0.000349415 -0.00830816 0)
(0.000538458 -0.0138315 0)
(-0.00105354 -0.0111119 0)
(-0.00534729 -0.00248895 0)
(-0.0125458 0.00893034 0)
(-0.0227942 0.0218707 0)
(-0.0364076 0.0356608 0)
(-0.0538331 0.0508584 0)
(-0.0754614 0.0677095 0)
(-0.101092 0.0861585 0)
(-0.129867 0.105121 0)
(-0.160256 0.123138 0)
(-0.190613 0.138596 0)
(-0.219455 0.150424 0)
(-0.245797 0.158044 0)
(-0.269017 0.16144 0)
(-0.288869 0.160858 0)
(-0.305308 0.156784 0)
(-0.318521 0.149752 0)
(-0.328791 0.14036 0)
(-0.336532 0.129139 0)
(-0.342158 0.116589 0)
(-0.346117 0.10309 0)
(-0.348787 0.0889565 0)
(-0.350526 0.0743863 0)
(-0.351603 0.0595236 0)
(-0.352259 0.0444268 0)
(-0.35266 0.0291266 0)
(-0.352959 0.0135999 0)
(-0.353255 -0.00218147 0)
(-0.353645 -0.0182758 0)
(-0.354186 -0.0347301 0)
(-0.354926 -0.0516011 0)
(-0.355858 -0.0689148 0)
(-0.356933 -0.0866755 0)
(-0.357986 -0.104813 0)
(-0.35873 -0.123167 0)
(-0.358659 -0.141412 0)
(-0.357037 -0.159008 0)
(-0.352838 -0.175124 0)
(-0.344807 -0.18861 0)
(-0.331552 -0.198007 0)
(-0.311823 -0.20169 0)
(-0.284834 -0.198121 0)
(-0.250723 -0.186276 0)
(-0.210872 -0.166108 0)
(-0.168043 -0.138967 0)
(-0.125954 -0.107624 0)
(-0.0883879 -0.0757379 0)
(-0.0579052 -0.0466911 0)
(-0.0351704 -0.0225629 0)
(-0.0191926 -0.00383123 0)
(-0.00851258 0.00989246 0)
(-0.00177139 0.0193354 0)
(0.00192635 0.0250776 0)
(0.00341305 0.0277159 0)
(0.00326317 0.027514 0)
(0.00226457 0.0245723 0)
(0.000966439 0.0182826 0)
(0.000115511 0.00788845 0)
(0.000139522 -0.00854449 0)
(-0.000955303 -0.0124138 0)
(-0.00469963 -0.00707085 0)
(-0.0115121 0.00460407 0)
(-0.0216214 0.019162 0)
(-0.0350678 0.0354932 0)
(-0.0523074 0.0530685 0)
(-0.0735702 0.0724098 0)
(-0.0988765 0.0932655 0)
(-0.127324 0.114859 0)
(-0.157514 0.135465 0)
(-0.187624 0.153412 0)
(-0.216158 0.167296 0)
(-0.24194 0.176489 0)
(-0.264355 0.180843 0)
(-0.283063 0.180694 0)
(-0.298101 0.176551 0)
(-0.309661 0.169114 0)
(-0.318178 0.15907 0)
(-0.32412 0.147117 0)
(-0.328044 0.13382 0)
(-0.330432 0.119669 0)
(-0.331751 0.104995 0)
(-0.332342 0.090047 0)
(-0.332507 0.0749516 0)
(-0.332435 0.0597886 0)
(-0.332294 0.0445606 0)
(-0.332175 0.0292583 0)
(-0.332173 0.0138287 0)
(-0.332339 -0.00177375 0)
(-0.332748 -0.0176205 0)
(-0.333446 -0.0337678 0)
(-0.334508 -0.0502884 0)
(-0.335979 -0.0672357 0)
(-0.33791 -0.0846667 0)
(-0.340286 -0.102602 0)
(-0.343035 -0.121027 0)
(-0.345917 -0.139828 0)
(-0.348498 -0.158746 0)
(-0.350022 -0.177276 0)
(-0.349377 -0.194579 0)
(-0.345058 -0.209389 0)
(-0.3353 -0.220005 0)
(-0.318326 -0.224403 0)
(-0.292833 -0.220558 0)
(-0.258558 -0.206976 0)
(-0.216878 -0.183395 0)
(-0.171022 -0.151396 0)
(-0.125689 -0.114579 0)
(-0.0856999 -0.0777521 0)
(-0.0542716 -0.0452702 0)
(-0.0318734 -0.0193763 0)
(-0.017004 -0.000225024 0)
(-0.00762581 0.0131806 0)
(-0.00217283 0.0218117 0)
(0.000582113 0.0265218 0)
(0.00144223 0.0276755 0)
(0.00123671 0.0253938 0)
(0.000559918 0.0191311 0)
(5.36641e-05 0.00823045 0)
(-0.000185326 -0.00793328 0)
(-0.00290438 -0.00911107 0)
(-0.00910172 -0.000592286 0)
(-0.0185908 0.0144378 0)
(-0.0316946 0.0324189 0)
(-0.0483072 0.0524467 0)
(-0.0689296 0.0740123 0)
(-0.0933569 0.0973105 0)
(-0.121118 0.121379 0)
(-0.150675 0.144751 0)
(-0.180391 0.165371 0)
(-0.208474 0.181718 0)
(-0.233777 0.192818 0)
(-0.255449 0.198518 0)
(-0.273228 0.19906 0)
(-0.287054 0.195104 0)
(-0.297276 0.187411 0)
(-0.304331 0.176873 0)
(-0.308868 0.164276 0)
(-0.311463 0.150346 0)
(-0.312725 0.13561 0)
(-0.313098 0.12048 0)
(-0.312983 0.105191 0)
(-0.312615 0.0899007 0)
(-0.312199 0.0746511 0)
(-0.311817 0.059461 0)
(-0.311556 0.0442877 0)
(-0.31143 0.0290967 0)
(-0.311484 0.0138217 0)
(-0.31172 -0.00158339 0)
(-0.312188 -0.0171844 0)
(-0.312913 -0.033027 0)
(-0.313969 -0.0491739 0)
(-0.315415 -0.0656728 0)
(-0.317347 -0.0825882 0)
(-0.319835 -0.0999719 0)
(-0.322951 -0.117881 0)
(-0.326679 -0.136335 0)
(-0.3309 -0.155299 0)
(-0.335256 -0.174591 0)
(-0.339073 -0.193791 0)
(-0.341209 -0.21209 0)
(-0.340025 -0.228154 0)
(-0.333409 -0.240042 0)
(-0.319092 -0.245298 0)
(-0.29517 -0.241298 0)
(-0.260921 -0.22595 0)
(-0.217615 -0.198662 0)
(-0.169014 -0.16132 0)
(-0.120888 -0.118576 0)
(-0.0792689 -0.0767743 0)
(-0.0478371 -0.0412613 0)
(-0.0266387 -0.0143296 0)
(-0.013377 0.00462729 0)
(-0.00563301 0.0170452 0)
(-0.00150004 0.024298 0)
(0.00026138 0.0270748 0)
(0.000662017 0.0256514 0)
(0.000379714 0.0196272 0)
(4.19129e-05 0.00845698 0)
(-0.000633217 -0.00612785 0)
(-0.00525814 -0.00353119 0)
(-0.0140822 0.0086017 0)
(-0.026266 0.0271838 0)
(-0.0422751 0.0487725 0)
(-0.0617761 0.0726066 0)
(-0.0851906 0.0979962 0)
(-0.111738 0.124555 0)
(-0.140501 0.15059 0)
(-0.169529 0.174176 0)
(-0.197251 0.193288 0)
(-0.222099 0.206801 0)
(-0.243329 0.214244 0)
(-0.260405 0.215914 0)
(-0.273431 0.212431 0)
(-0.282639 0.204761 0)
(-0.288681 0.193888 0)
(-0.29217 0.180816 0)
(-0.293872 0.166349 0)
(-0.294355 0.151152 0)
(-0.294178 0.135642 0)
(-0.293664 0.120113 0)
(-0.293102 0.104683 0)
(-0.292597 0.0894135 0)
(-0.292257 0.0742763 0)
(-0.292073 0.0592436 0)
(-0.292072 0.0442441 0)
(-0.292215 0.0292327 0)
(-0.292516 0.0141418 0)
(-0.292947 -0.00106672 0)
(-0.29354 -0.0164466 0)
(-0.2943 -0.0320273 0)
(-0.29529 -0.0478538 0)
(-0.296556 -0.0639562 0)
(-0.298201 -0.0803845 0)
(-0.300312 -0.0971853 0)
(-0.30302 -0.11443 0)
(-0.306422 -0.132189 0)
(-0.310597 -0.150541 0)
(-0.315501 -0.169515 0)
(-0.320902 -0.189032 0)
(-0.326207 -0.208764 0)
(-0.33033 -0.227961 0)
(-0.331534 -0.245237 0)
(-0.327457 -0.25841 0)
(-0.315349 -0.264537 0)
(-0.29272 -0.260296 0)
(-0.258332 -0.242864 0)
(-0.213371 -0.211282 0)
(-0.162209 -0.167871 0)
(-0.111908 -0.118801 0)
(-0.0697238 -0.0722802 0)
(-0.0395129 -0.0346847 0)
(-0.0203441 -0.00767604 0)
(-0.00915666 0.0101341 0)
(-0.00314365 0.0208392 0)
(-0.000387237 0.0257345 0)
(0.000515372 0.0254769 0)
(0.000423425 0.019923 0)
(8.08845e-05 0.00865926 0)
(-0.00117285 -0.00296507 0)
(-0.00784236 0.0043901 0)
(-0.0192828 0.0204039 0)
(-0.0340016 0.0425856 0)
(-0.0526235 0.0677918 0)
(-0.0744881 0.0952559 0)
(-0.0998396 0.12391 0)
(-0.1273 0.152665 0)
(-0.155679 0.179252 0)
(-0.182862 0.201602 0)
(-0.207561 0.218002 0)
(-0.228501 0.227834 0)
(-0.245358 0.231136 0)
(-0.257908 0.228638 0)
(-0.266632 0.221325 0)
(-0.272018 0.21042 0)
(-0.274939 0.197038 0)
(-0.276067 0.182193 0)
(-0.276168 0.166606 0)
(-0.275698 0.150806 0)
(-0.275099 0.135064 0)
(-0.274539 0.119538 0)
(-0.27419 0.104237 0)
(-0.274041 0.0891499 0)
(-0.274133 0.0741991 0)
(-0.274391 0.059333 0)
(-0.274816 0.0444717 0)
(-0.275336 0.0295724 0)
(-0.275959 0.0145761 0)
(-0.276637 -0.000542099 0)
(-0.277397 -0.0158207 0)
(-0.278226 -0.0312716 0)
(-0.279176 -0.0469204 0)
(-0.280271 -0.0627759 0)
(-0.281598 -0.0788647 0)
(-0.283228 -0.0952117 0)
(-0.285294 -0.111869 0)
(-0.287917 -0.128906 0)
(-0.291264 -0.14643 0)
(-0.295452 -0.164562 0)
(-0.300549 -0.183417 0)
(-0.306412 -0.203017 0)
(-0.312566 -0.223142 0)
(-0.317971 -0.243104 0)
(-0.320846 -0.261456 0)
(-0.318593 -0.275747 0)
(-0.308035 -0.282473 0)
(-0.28611 -0.2775 0)
(-0.251109 -0.25719 0)
(-0.204228 -0.220238 0)
(-0.150683 -0.169795 0)
(-0.0990727 -0.11412 0)
(-0.0578175 -0.0638037 0)
(-0.0302088 -0.0255401 0)
(-0.0138593 0.00010557 0)
(-0.00501489 0.015778 0)
(-0.000874563 0.0236459 0)
(0.000600494 0.0250416 0)
(0.000603575 0.0202372 0)
(0.000150864 0.00898608 0)
(-0.00177267 0.00174758 0)
(-0.0105006 0.0147463 0)
(-0.0243995 0.0347686 0)
(-0.0413536 0.0604795 0)
(-0.062124 0.0891408 0)
(-0.0856458 0.119788 0)
(-0.111955 0.150845 0)
(-0.139165 0.180542 0)
(-0.166029 0.206309 0)
(-0.190466 0.22621 0)
(-0.211587 0.239026 0)
(-0.228425 0.244674 0)
(-0.241076 0.2437 0)
(-0.24962 0.237243 0)
(-0.254872 0.226601 0)
(-0.257479 0.213154 0)
(-0.258417 0.198036 0)
(-0.258294 0.182161 0)
(-0.257783 0.166094 0)
(-0.257171 0.150192 0)
(-0.256766 0.134573 0)
(-0.256588 0.119278 0)
(-0.256725 0.104237 0)
(-0.257083 0.0893925 0)
(-0.257671 0.0746444 0)
(-0.258381 0.0599351 0)
(-0.259212 0.0451886 0)
(-0.260083 0.0303705 0)
(-0.261003 0.0154332 0)
(-0.261922 0.000363002 0)
(-0.262867 -0.0148663 0)
(-0.263813 -0.0302548 0)
(-0.264804 -0.0458141 0)
(-0.265842 -0.0615384 0)
(-0.266994 -0.0774343 0)
(-0.268297 -0.0935043 0)
(-0.269855 -0.109771 0)
(-0.271765 -0.126278 0)
(-0.27419 -0.143105 0)
(-0.277297 -0.160382 0)
(-0.281285 -0.178285 0)
(-0.286282 -0.197016 0)
(-0.292266 -0.2167 0)
(-0.298849 -0.23723 0)
(-0.305043 -0.257956 0)
(-0.308997 -0.277333 0)
(-0.307874 -0.292542 0)
(-0.298075 -0.299399 0)
(-0.276007 -0.292831 0)
(-0.23962 -0.268314 0)
(-0.190356 -0.224458 0)
(-0.13469 -0.165844 0)
(-0.083053 -0.103894 0)
(-0.0446215 -0.0514606 0)
(-0.0209521 -0.01468 0)
(-0.00792503 0.0082094 0)
(-0.00167986 0.0204074 0)
(0.0006596 0.0242354 0)
(0.000816072 0.0205796 0)
(0.000233475 0.00945856 0)
(-0.0023626 0.00796052 0)
(-0.0129838 0.0272841 0)
(-0.0290162 0.0512681 0)
(-0.0477675 0.0802671 0)
(-0.0700916 0.111998 0)
(-0.094482 0.145128 0)
(-0.120799 0.177549 0)
(-0.1468 0.206949 0)
(-0.171366 0.23074 0)
(-0.192583 0.247323 0)
(-0.209996 0.256059 0)
(-0.222942 0.257397 0)
(-0.231925 0.252372 0)
(-0.237274 0.242476 0)
(-0.240048 0.229225 0)
(-0.240932 0.214024 0)
(-0.240887 0.197914 0)
(-0.240369 0.18163 0)
(-0.239916 0.165546 0)
(-0.239636 0.149845 0)
(-0.239723 0.134521 0)
(-0.240086 0.119526 0)
(-0.240763 0.104747 0)
(-0.241616 0.0901041 0)
(-0.242648 0.0754967 0)
(-0.243741 0.0608729 0)
(-0.244906 0.0461687 0)
(-0.246059 0.0313609 0)
(-0.247224 0.0164142 0)
(-0.248347 0.00132439 0)
(-0.249461 -0.0139241 0)
(-0.250533 -0.0293235 0)
(-0.251604 -0.0448752 0)
(-0.252661 -0.0605644 0)
(-0.253753 -0.0763838 0)
(-0.25489 -0.0923207 0)
(-0.256144 -0.108373 0)
(-0.257567 -0.124552 0)
(-0.259284 -0.140898 0)
(-0.261428 -0.157502 0)
(-0.264214 -0.174514 0)
(-0.267865 -0.192176 0)
(-0.272608 -0.210765 0)
(-0.278507 -0.230543 0)
(-0.285268 -0.251494 0)
(-0.291922 -0.273001 0)
(-0.296495 -0.293318 0)
(-0.295861 -0.309119 0)
(-0.285942 -0.315335 0)
(-0.262707 -0.305776 0)
(-0.223938 -0.275108 0)
(-0.171821 -0.222299 0)
(-0.114631 -0.154667 0)
(-0.0649416 -0.0877241 0)
(-0.031492 -0.0361318 0)
(-0.0126764 -0.00297817 0)
(-0.00331606 0.0154522 0)
(0.000403599 0.022851 0)
(0.000936468 0.0209192 0)
(0.000304786 0.0101009 0)
(-0.00289502 0.0156015 0)
(-0.0151342 0.0417914 0)
(-0.0328787 0.069599 0)
(-0.0529146 0.101556 0)
(-0.0761386 0.135842 0)
(-0.100624 0.170637 0)
(-0.126133 0.203364 0)
(-0.150228 0.231372 0)
(-0.172054 0.252299 0)
(-0.189926 0.265008 0)
(-0.203826 0.269479 0)
(-0.213369 0.266667 0)
(-0.219418 0.258056 0)
(-0.222466 0.24539 0)
(-0.223699 0.230276 0)
(-0.223725 0.214025 0)
(-0.223413 0.197504 0)
(-0.223027 0.181228 0)
(-0.222968 0.165388 0)
(-0.223192 0.150021 0)
(-0.223816 0.135031 0)
(-0.22468 0.12032 0)
(-0.225807 0.105759 0)
(-0.227042 0.091266 0)
(-0.2284 0.0767524 0)
(-0.229766 0.0621763 0)
(-0.231167 0.0474876 0)
(-0.232525 0.0326719 0)
(-0.233873 0.0177041 0)
(-0.235159 0.00258534 0)
(-0.23642 -0.0126929 0)
(-0.237621 -0.0281196 0)
(-0.238801 -0.0436903 0)
(-0.239935 -0.0593877 0)
(-0.241065 -0.0751965 0)
(-0.24218 -0.0910974 0)
(-0.243328 -0.107071 0)
(-0.244524 -0.123111 0)
(-0.245845 -0.139218 0)
(-0.24737 -0.155438 0)
(-0.24926 -0.171859 0)
(-0.251718 -0.188673 0)
(-0.255028 -0.206157 0)
(-0.259475 -0.22471 0)
(-0.265221 -0.244688 0)
(-0.272044 -0.266203 0)
(-0.278938 -0.288584 0)
(-0.283753 -0.309775 0)
(-0.282931 -0.325694 0)
(-0.271921 -0.330098 0)
(-0.246265 -0.315529 0)
(-0.204034 -0.276004 0)
(-0.14876 -0.212024 0)
(-0.0914068 -0.135277 0)
(-0.0464246 -0.0666191 0)
(-0.0198162 -0.0192504 0)
(-0.00618114 0.00788828 0)
(-0.000376827 0.0204157 0)
(0.000880873 0.0210265 0)
(0.00035163 0.0108227 0)
(-0.00329974 0.0243704 0)
(-0.0167481 0.0577566 0)
(-0.0356923 0.0891192 0)
(-0.0564528 0.123567 0)
(-0.0799253 0.159753 0)
(-0.103827 0.19533 0)
(-0.127911 0.22739 0)
(-0.149685 0.253138 0)
(-0.168634 0.270623 0)
(-0.183322 0.27923 0)
(-0.194136 0.279555 0)
(-0.200929 0.273009 0)
(-0.204841 0.261447 0)
(-0.206424 0.246739 0)
(-0.206883 0.230461 0)
(-0.206677 0.213734 0)
(-0.206543 0.197212 0)
(-0.206556 0.181192 0)
(-0.207009 0.165711 0)
(-0.207745 0.150695 0)
(-0.208846 0.136002 0)
(-0.210113 0.121511 0)
(-0.211582 0.107097 0)
(-0.213092 0.0926875 0)
(-0.214681 0.0782099 0)
(-0.216238 0.0636327 0)
(-0.217809 0.0489196 0)
(-0.219314 0.0340623 0)
(-0.220801 0.0190447 0)
(-0.222213 0.00387093 0)
(-0.223594 -0.0114612 0)
(-0.224904 -0.0269397 0)
(-0.226183 -0.0425551 0)
(-0.227401 -0.05829 0)
(-0.228596 -0.074124 0)
(-0.229745 -0.0900375 0)
(-0.230883 -0.106002 0)
(-0.232002 -0.122001 0)
(-0.233147 -0.138011 0)
(-0.234346 -0.154047 0)
(-0.235699 -0.170134 0)
(-0.237339 -0.186396 0)
(-0.239502 -0.20303 0)
(-0.242502 -0.220411 0)
(-0.24669 -0.239011 0)
(-0.252316 -0.259354 0)
(-0.259172 -0.281596 0)
(-0.266186 -0.304968 0)
(-0.270847 -0.32686 0)
(-0.269128 -0.342102 0)
(-0.255831 -0.342925 0)
(-0.226404 -0.320414 0)
(-0.179637 -0.268729 0)
(-0.121604 -0.191528 0)
(-0.0666065 -0.107974 0)
(-0.0296756 -0.0424211 0)
(-0.0105419 -0.0031923 0)
(-0.00180163 0.016389 0)
(0.00060857 0.0206651 0)
(0.000366664 0.0115521 0)
(-0.00355095 0.0339724 0)
(-0.017759 0.0747906 0)
(-0.0373742 0.109434 0)
(-0.0583179 0.145899 0)
(-0.0814506 0.183337 0)
(-0.104228 0.218894 0)
(-0.126473 0.24949 0)
(-0.145751 0.272362 0)
(-0.161905 0.286098 0)
(-0.173743 0.290614 0)
(-0.182008 0.287102 0)
(-0.186727 0.277356 0)
(-0.189222 0.263499 0)
(-0.190007 0.247392 0)
(-0.190231 0.23049 0)
(-0.190164 0.213669 0)
(-0.190414 0.197369 0)
(-0.190896 0.181694 0)
(-0.19183 0.166571 0)
(-0.192989 0.151855 0)
(-0.19445 0.137389 0)
(-0.196 0.123047 0)
(-0.197697 0.108724 0)
(-0.199385 0.0943546 0)
(-0.201126 0.0798861 0)
(-0.20281 0.0652935 0)
(-0.204499 0.0505514 0)
(-0.206113 0.0356539 0)
(-0.207708 0.0205916 0)
(-0.209224 0.00536876 0)
(-0.210708 -0.0100121 0)
(-0.212116 -0.0255402 0)
(-0.21349 -0.0412017 0)
(-0.214795 -0.0569818 0)
(-0.216069 -0.0728563 0)
(-0.217285 -0.088809 0)
(-0.218472 -0.104806 0)
(-0.219609 -0.120833 0)
(-0.220724 -0.136851 0)
(-0.221811 -0.152859 0)
(-0.222919 -0.168835 0)
(-0.224112 -0.184847 0)
(-0.225543 -0.200987 0)
(-0.227457 -0.217541 0)
(-0.23021 -0.234917 0)
(-0.234239 -0.253769 0)
(-0.239818 -0.274707 0)
(-0.246767 -0.297962 0)
(-0.253735 -0.322437 0)
(-0.257822 -0.344664 0)
(-0.25421 -0.35791 0)
(-0.237279 -0.352401 0)
(-0.202508 -0.318046 0)
(-0.150676 -0.25033 0)
(-0.091376 -0.159826 0)
(-0.0430001 -0.0748018 0)
(-0.0164135 -0.0189181 0)
(-0.00398912 0.0100858 0)
(0.000137847 0.0194974 0)
(0.000346237 0.0121707 0)
(-0.00361083 0.0439552 0)
(-0.0180752 0.0922676 0)
(-0.0378238 0.129851 0)
(-0.0584433 0.167798 0)
(-0.0807354 0.205823 0)
(-0.101998 0.240642 0)
(-0.122182 0.269164 0)
(-0.138982 0.288795 0)
(-0.152582 0.298723 0)
(-0.162014 0.29938 0)
(-0.168302 0.292497 0)
(-0.17158 0.280158 0)
(-0.173251 0.264637 0)
(-0.173728 0.247681 0)
(-0.174052 0.230559 0)
(-0.174313 0.213887 0)
(-0.175004 0.197919 0)
(-0.175926 0.182599 0)
(-0.177259 0.167791 0)
(-0.178738 0.153309 0)
(-0.180456 0.139003 0)
(-0.182199 0.124752 0)
(-0.184049 0.110474 0)
(-0.185858 0.0961119 0)
(-0.187705 0.0816294 0)
(-0.189484 0.0670046 0)
(-0.191266 0.0522208 0)
(-0.192969 0.0372721 0)
(-0.194654 0.0221549 0)
(-0.196256 0.00687216 0)
(-0.197826 -0.00856811 0)
(-0.199314 -0.0241567 0)
(-0.200765 -0.0398744 0)
(-0.202139 -0.0557092 0)
(-0.203476 -0.0716317 0)
(-0.204746 -0.087631 0)
(-0.205981 -0.103669 0)
(-0.207155 -0.119738 0)
(-0.20829 -0.135791 0)
(-0.209365 -0.151828 0)
(-0.2104 -0.167801 0)
(-0.211409 -0.183743 0)
(-0.212465 -0.199661 0)
(-0.21372 -0.215741 0)
(-0.215436 -0.232247 0)
(-0.218048 -0.249777 0)
(-0.22202 -0.269069 0)
(-0.227724 -0.290946 0)
(-0.234776 -0.315514 0)
(-0.241565 -0.341124 0)
(-0.244352 -0.362905 0)
(-0.237681 -0.371872 0)
(-0.215339 -0.356045 0)
(-0.17397 -0.304679 0)
(-0.117376 -0.218006 0)
(-0.0606163 -0.117784 0)
(-0.0238069 -0.0410149 0)
(-0.0070723 0.000967061 0)
(-0.000530014 0.0171425 0)
(0.000299213 0.0126199 0)
(-0.00349101 0.0539447 0)
(-0.0177397 0.109787 0)
(-0.0371333 0.150048 0)
(-0.0570009 0.189029 0)
(-0.0780647 0.227098 0)
(-0.0975692 0.260648 0)
(-0.115616 0.28671 0)
(-0.130081 0.302957 0)
(-0.141444 0.309198 0)
(-0.148926 0.306342 0)
(-0.153755 0.296594 0)
(-0.156105 0.282222 0)
(-0.157379 0.265549 0)
(-0.15785 0.248129 0)
(-0.158438 0.231024 0)
(-0.159076 0.214601 0)
(-0.16017 0.198965 0)
(-0.161446 0.183946 0)
(-0.163072 0.169376 0)
(-0.16477 0.155051 0)
(-0.166653 0.140843 0)
(-0.168515 0.126638 0)
(-0.170462 0.112377 0)
(-0.172349 0.0980076 0)
(-0.174271 0.0835066 0)
(-0.176122 0.068851 0)
(-0.177978 0.0540311 0)
(-0.179758 0.0390379 0)
(-0.181521 0.0238728 0)
(-0.183202 0.0085357 0)
(-0.18485 -0.00696008 0)
(-0.186413 -0.0226082 0)
(-0.187935 -0.0383834 0)
(-0.189375 -0.0542775 0)
(-0.190773 -0.0702546 0)
(-0.192096 -0.0863102 0)
(-0.193381 -0.1024 0)
(-0.194599 -0.118527 0)
(-0.195774 -0.134636 0)
(-0.196881 -0.150741 0)
(-0.197928 -0.166774 0)
(-0.198903 -0.182764 0)
(-0.199826 -0.198656 0)
(-0.200766 -0.214563 0)
(-0.201872 -0.230598 0)
(-0.203479 -0.247214 0)
(-0.20603 -0.265052 0)