/*--------------------------------*- C++ -*----------------------------------*\
| =========                 |                                                 |
| \\      /  F ield         | OpenFOAM: The Open Source CFD Toolbox           |
|  \\    /   O peration     | Version:  2406                                  |
|   \\  /    A nd           | Website:  www.openfoam.com                      |
|    \\/     M anipulation  |                                                 |
\*---------------------------------------------------------------------------*/
FoamFile
{
    version     2.0;
    format      ascii;
    arch        "LSB;label=32;scalar=64";
    class       volVectorField;
    location    "39.45";
    object      U;
}
// * * * * * * * * * * * * * * * * * * * * * * * * * * * * * * * * * * * * * //

dimensions      [0 1 -1 0 0 0 0];

internalField   nonuniform List<vector> 
3600
(
(-2.66408e-05 1.13966e-05 0)
(0.00045817 -0.000230553 0)
(0.00144707 -0.000363258 0)
(0.00257528 -0.00038526 0)
(0.0036396 -0.000308888 0)
(0.00439127 -0.000203445 0)
(0.00486701 -0.000104933 0)
(0.0050473 -4.32927e-05 0)
(0.00508246 -1.94893e-05 0)
(0.00500163 -2.3593e-05 0)
(0.00488864 -3.63241e-05 0)
(0.00469702 -3.98324e-05 0)
(0.00440253 -2.21566e-05 0)
(0.00390127 2.24839e-05 0)
(0.00312175 9.48245e-05 0)
(0.00195502 0.000195784 0)
(0.000321206 0.000326574 0)
(-0.00187793 0.000487859 0)
(-0.00471463 0.000672156 0)
(-0.00826176 0.000866554 0)
(-0.0125582 0.00106214 0)
(-0.0176117 0.00126436 0)
(-0.0233646 0.00148528 0)
(-0.0296901 0.00172635 0)
(-0.0363762 0.00196264 0)
(-0.0431331 0.00214555 0)
(-0.0496035 0.00221701 0)
(-0.055391 0.00212827 0)
(-0.0600911 0.00185016 0)
(-0.0633242 0.00137756 0)
(-0.0647651 0.000726805 0)
(-0.0641646 -6.66296e-05 0)
(-0.0613734 -0.000952523 0)
(-0.056355 -0.00186776 0)
(-0.0492067 -0.00274042 0)
(-0.0401633 -0.00349276 0)
(-0.029612 -0.0040481 0)
(-0.0180724 -0.00433816 0)
(-0.00619032 -0.00431434 0)
(0.00532545 -0.00395839 0)
(0.0157414 -0.00329254 0)
(0.0244093 -0.00238421 0)
(0.0308154 -0.00134146 0)
(0.0346967 -0.000299101 0)
(0.0360371 0.000608924 0)
(0.0351203 0.00127761 0)
(0.0324148 0.00166021 0)
(0.0285462 0.00177262 0)
(0.0241036 0.00168304 0)
(0.0196296 0.00147522 0)
(0.0154586 0.00122454 0)
(0.0118285 0.000976951 0)
(0.00877018 0.000759971 0)
(0.00630954 0.000579379 0)
(0.00432624 0.000442171 0)
(0.00278784 0.000335005 0)
(0.00155995 0.000255302 0)
(0.000662787 0.000157298 0)
(8.65702e-05 4.335e-05 0)
(-9.0904e-05 -9.92324e-05 0)
(0.000182845 -0.000433137 0)
(0.00146931 -0.00151892 0)
(0.00359169 -0.00206822 0)
(0.00585621 -0.00210535 0)
(0.0079367 -0.00170973 0)
(0.009395 -0.00113545 0)
(0.0102428 -0.000556973 0)
(0.0104163 -9.86133e-05 0)
(0.0101059 0.000216274 0)
(0.00933038 0.000435743 0)
(0.0081673 0.000643266 0)
(0.0064936 0.000930978 0)
(0.00419191 0.00135963 0)
(0.00102247 0.00196661 0)
(-0.00321746 0.00275799 0)
(-0.00877098 0.00373209 0)
(-0.0158184 0.00486916 0)
(-0.0245211 0.00614391 0)
(-0.0349332 0.00751702 0)
(-0.0469914 0.0089398 0)
(-0.0604407 0.0103286 0)
(-0.0748543 0.0115606 0)
(-0.0896496 0.0124813 0)
(-0.104167 0.0129433 0)
(-0.117735 0.0128292 0)
(-0.129738 0.0120717 0)
(-0.139654 0.0106514 0)
(-0.147073 0.00859685 0)
(-0.15169 0.00597186 0)
(-0.153299 0.00287195 0)
(-0.151782 -0.00058589 0)
(-0.147098 -0.00426259 0)
(-0.13929 -0.00800195 0)
(-0.12848 -0.0116268 0)
(-0.114891 -0.0149446 0)
(-0.0988467 -0.0177478 0)
(-0.0807983 -0.0198291 0)
(-0.0613119 -0.0209951 0)
(-0.0410866 -0.0210957 0)
(-0.0209058 -0.0200492 0)
(-0.00163108 -0.0178762 0)
(0.0158995 -0.014715 0)
(0.030894 -0.0108271 0)
(0.0427445 -0.00657367 0)
(0.0510255 -0.00236825 0)
(0.0556251 0.00138511 0)
(0.0566743 0.0043669 0)
(0.054642 0.00639111 0)
(0.0501641 0.00744026 0)
(0.0440865 0.00764033 0)
(0.0371856 0.00721897 0)
(0.0302249 0.00642162 0)
(0.0236659 0.00547162 0)
(0.0178817 0.00451643 0)
(0.012913 0.00366201 0)
(0.00883762 0.00291955 0)
(0.00549297 0.0022943 0)
(0.00293307 0.00164624 0)
(0.00107144 0.000956765 0)
(0.0001004 0.000117931 0)
(0.000320623 -0.0013796 0)
(0.00211179 -0.00367905 0)
(0.00490146 -0.00476468 0)
(0.00768917 -0.00470342 0)
(0.0100962 -0.003752 0)
(0.0115874 -0.00238118 0)
(0.0121746 -0.000968866 0)
(0.0117558 0.000255709 0)
(0.0104932 0.00123975 0)
(0.00833432 0.00210037 0)
(0.00526345 0.00301729 0)
(0.00103638 0.00419515 0)
(-0.00459008 0.0057635 0)
(-0.0119694 0.00779825 0)
(-0.0213868 0.0102942 0)
(-0.0331097 0.0132116 0)
(-0.0472395 0.0164513 0)
(-0.0636892 0.0198665 0)
(-0.0820713 0.0232159 0)
(-0.101748 0.0261893 0)
(-0.121891 0.0284511 0)
(-0.141638 0.0297319 0)
(-0.160197 0.029862 0)
(-0.176927 0.0287876 0)
(-0.191354 0.0265374 0)
(-0.203157 0.0232021 0)
(-0.212137 0.0189006 0)
(-0.21818 0.0137724 0)
(-0.221226 0.00796278 0)
(-0.221246 0.0016283 0)
(-0.218234 -0.00506711 0)
(-0.212194 -0.0119392 0)
(-0.203155 -0.0187833 0)
(-0.191176 -0.0253594 0)
(-0.176372 -0.031397 0)
(-0.15893 -0.0365886 0)
(-0.139144 -0.0406118 0)
(-0.117423 -0.0431446 0)
(-0.0943256 -0.0439135 0)
(-0.0705316 -0.0427316 0)
(-0.0468517 -0.0395589 0)
(-0.0241389 -0.0345315 0)
(-0.00326832 -0.0279857 0)
(0.0149995 -0.0204276 0)
(0.03002 -0.0124805 0)
(0.0413991 -0.0047998 0)
(0.0489214 0.00201741 0)
(0.0526766 0.00750429 0)
(0.052931 0.011387 0)
(0.0502684 0.0136063 0)
(0.0453684 0.0143213 0)
(0.0391135 0.0138499 0)
(0.0322285 0.0125991 0)
(0.0254414 0.01095 0)
(0.0191012 0.00922197 0)
(0.0135593 0.0075721 0)
(0.00878141 0.00606876 0)
(0.00496241 0.00453869 0)
(0.00199689 0.00288151 0)
(0.000296828 0.000860941 0)
(0.000414131 -0.00256392 0)
(0.00251041 -0.00619158 0)
(0.00558132 -0.00770075 0)
(0.00836733 -0.00728847 0)
(0.0104769 -0.0055139 0)
(0.0113477 -0.00307463 0)
(0.0110202 -0.00055461 0)
(0.0093553 0.00175885 0)
(0.00643868 0.00382047 0)
(0.00208385 0.00585656 0)
(-0.00388622 0.00815754 0)
(-0.0118674 0.0110335 0)
(-0.0222115 0.0146464 0)
(-0.035292 0.0190522 0)
(-0.0512864 0.0241491 0)
(-0.0701575 0.0297286 0)
(-0.091487 0.0354108 0)
(-0.11453 0.0407015 0)
(-0.138296 0.0450592 0)
(-0.161779 0.0480543 0)
(-0.184103 0.0494224 0)
(-0.204623 0.0490887 0)
(-0.222917 0.047103 0)
(-0.238745 0.0436038 0)
(-0.251988 0.0387579 0)
(-0.262605 0.0327461 0)
(-0.27059 0.0257358 0)
(-0.275948 0.0178885 0)
(-0.27868 0.0093505 0)
(-0.27877 0.000272101 0)
(-0.276189 -0.00919313 0)
(-0.270886 -0.0188642 0)
(-0.262807 -0.0285294 0)
(-0.251897 -0.0379219 0)
(-0.238129 -0.0467216 0)
(-0.22152 -0.0545415 0)
(-0.202176 -0.0609504 0)
(-0.180315 -0.0654886 0)
(-0.156319 -0.0677295 0)
(-0.130737 -0.0673321 0)
(-0.104313 -0.0641328 0)
(-0.0779239 -0.0581982 0)
(-0.0525447 -0.0498778 0)
(-0.0290995 -0.039774 0)
(-0.00841226 -0.0286808 0)
(0.00895184 -0.0174574 0)
(0.022622 -0.00691475 0)
(0.0325111 0.00227428 0)
(0.0386491 0.00962614 0)
(0.0413241 0.0148706 0)
(0.0409084 0.0179728 0)
(0.0380655 0.01913 0)
(0.033444 0.0187346 0)
(0.0278775 0.0172769 0)
(0.0219179 0.0152501 0)
(0.016194 0.0130096 0)
(0.0108789 0.0107484 0)
(0.00638936 0.00835301 0)
(0.00269297 0.00560672 0)
(0.000450523 0.00208461 0)
(0.000478356 -0.00398855 0)
(0.00271553 -0.00898925 0)
(0.00574708 -0.0107135 0)
(0.00810041 -0.00960105 0)
(0.00938638 -0.00664647 0)
(0.00906212 -0.00279109 0)
(0.00719864 0.00118292 0)
(0.00361392 0.00499805 0)
(-0.00172622 0.00867218 0)
(-0.00917535 0.0125869 0)
(-0.0190834 0.0171375 0)
(-0.031937 0.0226875 0)
(-0.0480479 0.0293257 0)
(-0.0675371 0.0369297 0)
(-0.0900977 0.0450745 0)
(-0.115017 0.053139 0)
(-0.141221 0.0603599 0)
(-0.167556 0.0660722 0)
(-0.192995 0.0698094 0)
(-0.216793 0.0713788 0)
(-0.238479 0.0707797 0)
(-0.257808 0.0681597 0)
(-0.274681 0.0637223 0)
(-0.289089 0.0577045 0)
(-0.301073 0.0503255 0)
(-0.310688 0.0417925 0)
(-0.317999 0.0322765 0)
(-0.323055 0.0219327 0)
(-0.32589 0.0108909 0)
(-0.32651 -0.00071803 0)
(-0.32489 -0.0127637 0)
(-0.320968 -0.0250848 0)
(-0.314646 -0.0374855 0)
(-0.305788 -0.0497013 0)
(-0.294243 -0.0613964 0)
(-0.279849 -0.0721373 0)
(-0.262488 -0.0814093 0)
(-0.242111 -0.0886216 0)
(-0.218822 -0.0931713 0)
(-0.192916 -0.0945057 0)
(-0.164961 -0.0922435 0)
(-0.135782 -0.08627 0)
(-0.106463 -0.0768452 0)
(-0.0781921 -0.064612 0)
(-0.0521436 -0.0505465 0)
(-0.0292286 -0.035781 0)
(-0.0100499 -0.021419 0)
(0.00520473 -0.00836717 0)
(0.0165439 0.00271891 0)
(0.024205 0.0114328 0)
(0.0284248 0.0175884 0)
(0.0296654 0.0212357 0)
(0.0283787 0.0226456 0)
(0.0252941 0.0222876 0)
(0.0209698 0.0207103 0)
(0.0161656 0.0184223 0)
(0.0112182 0.015731 0)
(0.0067572 0.0126325 0)
(0.00289276 0.00878625 0)
(0.000491468 0.00357687 0)
(0.000532019 -0.00547298 0)
(0.00274264 -0.011655 0)
(0.00536472 -0.0132005 0)
(0.00680758 -0.0109282 0)
(0.00672106 -0.00639019 0)
(0.0046341 -0.000761931 0)
(0.000622683 0.00503049 0)
(-0.00556457 0.0108159 0)
(-0.0141306 0.0167371 0)
(-0.0255867 0.0233372 0)
(-0.0403719 0.0310305 0)
(-0.0588497 0.0400679 0)
(-0.080967 0.0502282 0)
(-0.106219 0.0609501 0)
(-0.133593 0.071326 0)
(-0.161826 0.0804264 0)
(-0.189674 0.0874645 0)
(-0.216166 0.0920023 0)
(-0.240653 0.0938841 0)
(-0.262779 0.0932051 0)
(-0.282392 0.090174 0)
(-0.299472 0.0850794 0)
(-0.314082 0.078206 0)
(-0.32633 0.0698372 0)
(-0.336357 0.0602107 0)
(-0.344306 0.0495392 0)
(-0.350325 0.0379845 0)
(-0.354539 0.0256852 0)
(-0.357059 0.0127422 0)
(-0.357949 -0.000749485 0)
(-0.357234 -0.0147065 0)
(-0.354877 -0.0290195 0)
(-0.350781 -0.0435506 0)
(-0.34477 -0.0580896 0)
(-0.336603 -0.0723466 0)
(-0.325962 -0.0859089 0)
(-0.3125 -0.0982439 0)
(-0.295854 -0.108682 0)
(-0.27575 -0.116466 0)
(-0.25206 -0.120802 0)
(-0.224948 -0.120995 0)
(-0.19494 -0.116583 0)
(-0.163007 -0.10752 0)
(-0.130498 -0.0942772 0)
(-0.0990214 -0.0778813 0)
(-0.0701109 -0.0597525 0)
(-0.0449785 -0.0414398 0)
(-0.0242179 -0.0242814 0)
(-0.00792273 -0.00922665 0)
(0.00423263 0.00319059 0)
(0.0126 0.0127201 0)
(0.0176504 0.0193449 0)
(0.0197476 0.0232219 0)
(0.0194925 0.0247353 0)
(0.0173589 0.0243812 0)
(0.0141039 0.0227248 0)
(0.0101492 0.0201233 0)
(0.00625988 0.0166665 0)
(0.00270364 0.0118986 0)
(0.00045399 0.00505204 0)
(0.000562245 -0.00703054 0)
(0.00252693 -0.0140448 0)
(0.00432867 -0.0148945 0)
(0.00439191 -0.0109456 0)
(0.00243405 -0.0043907 0)
(-0.00191337 0.00341043 0)
(-0.00862398 0.0114729 0)
(-0.0180407 0.0198223 0)
(-0.030536 0.028743 0)
(-0.0466569 0.0388523 0)
(-0.0666986 0.0503782 0)
(-0.0905647 0.0631824 0)
(-0.117548 0.0764874 0)
(-0.146459 0.0892414 0)
(-0.175881 0.100291 0)
(-0.204528 0.108806 0)
(-0.231443 0.114301 0)
(-0.256024 0.11669 0)
(-0.277963 0.116096 0)
(-0.297148 0.112817 0)
(-0.313609 0.107185 0)
(-0.327464 0.0995728 0)
(-0.338905 0.0903154 0)
(-0.34815 0.0797316 0)
(-0.355452 0.0680742 0)
(-0.36105 0.0555608 0)
(-0.365182 0.0423406 0)
(-0.368048 0.0285308 0)
(-0.369822 0.0141965 0)
(-0.370625 -0.000610433 0)
(-0.370536 -0.0158628 0)
(-0.36956 -0.0315155 0)
(-0.367641 -0.0475085 0)
(-0.364624 -0.063718 0)
(-0.360263 -0.0799481 0)
(-0.354181 -0.0958752 0)
(-0.345899 -0.111036 0)
(-0.33482 -0.124782 0)
(-0.32031 -0.136297 0)
(-0.301758 -0.144611 0)
(-0.278746 -0.148717 0)
(-0.251191 -0.147702 0)
(-0.219551 -0.140991 0)
(-0.184915 -0.128554 0)
(-0.149028 -0.111113 0)
(-0.114021 -0.0901361 0)
(-0.0820467 -0.0676251 0)
(-0.0546815 -0.0456306 0)
(-0.0326617 -0.0257831 0)
(-0.0158118 -0.00900702 0)
(-0.00356386 0.00434253 0)
(0.00482001 0.0142898 0)
(0.00986894 0.0210004 0)
(0.012198 0.0248337 0)
(0.012243 0.0262149 0)
(0.0107098 0.0256991 0)
(0.00805064 0.0236251 0)
(0.00507721 0.0201258 0)
(0.00218674 0.0146522 0)
(0.000347431 0.00634714 0)
(0.000543887 -0.00842758 0)
(0.00195821 -0.0156569 0)
(0.00245865 -0.0151678 0)
(0.000661968 -0.0090044 0)
(-0.00363914 -1.02456e-05 0)
(-0.0106967 0.0103696 0)
(-0.0205989 0.021196 0)
(-0.0337623 0.0327349 0)
(-0.0506395 0.0453274 0)
(-0.0715667 0.0594419 0)
(-0.0963928 0.0748275 0)
(-0.124327 0.0907418 0)
(-0.154054 0.105878 0)
(-0.184043 0.118994 0)
(-0.212953 0.129087 0)
(-0.239788 0.135685 0)
(-0.263952 0.138669 0)
(-0.285124 0.138243 0)
(-0.303225 0.134734 0)
(-0.318319 0.12859 0)
(-0.330609 0.120248 0)
(-0.340363 0.110161 0)
(-0.347919 0.0987093 0)
(-0.353614 0.0862366 0)
(-0.357794 0.0729918 0)
(-0.360761 0.0591744 0)
(-0.362798 0.0448999 0)
(-0.364126 0.0302476 0)
(-0.364941 0.0152367 0)
(-0.365379 -0.000128015 0)
(-0.36555 -0.0158748 0)
(-0.365501 -0.0320211 0)
(-0.365237 -0.0485853 0)
(-0.364674 -0.0655389 0)
(-0.363648 -0.0828053 0)
(-0.361854 -0.1002 0)
(-0.358842 -0.117409 0)
(-0.353969 -0.133923 0)
(-0.346427 -0.149016 0)
(-0.335256 -0.161705 0)
(-0.319482 -0.170805 0)
(-0.298274 -0.175015 0)
(-0.271223 -0.173143 0)
(-0.238599 -0.164379 0)
(-0.201604 -0.148658 0)
(-0.162377 -0.126914 0)
(-0.123771 -0.101148 0)
(-0.088665 -0.0740628 0)
(-0.059225 -0.0483736 0)
(-0.0362463 -0.0260106 0)
(-0.0193504 -0.00785689 0)
(-0.00748453 0.00606508 0)
(0.00031024 0.0160485 0)
(0.00491423 0.0225704 0)
(0.00689692 0.0260665 0)
(0.00697185 0.0270807 0)
(0.00562738 0.0259039 0)
(0.00366614 0.0226622 0)
(0.0015745 0.0167494 0)
(0.000229242 0.00729635 0)
(0.000448828 -0.00954284 0)
(0.000951525 -0.0161872 0)
(-0.000326188 -0.0136803 0)
(-0.00438917 -0.00481283 0)
(-0.0114001 0.0070111 0)
(-0.0214958 0.020387 0)
(-0.0349199 0.0344984 0)
(-0.052062 0.0497878 0)
(-0.0732633 0.0664396 0)
(-0.0983641 0.084478 0)
(-0.1266 0.102978 0)
(-0.156561 0.120651 0)
(-0.186671 0.135978 0)
(-0.215463 0.147898 0)
(-0.241912 0.155781 0)
(-0.26534 0.159547 0)
(-0.285443 0.159379 0)
(-0.302129 0.155719 0)
(-0.315544 0.149071 0)
(-0.325954 0.14002 0)
(-0.333755 0.129096 0)
(-0.339364 0.116804 0)
(-0.343232 0.103535 0)
(-0.345751 0.0896153 0)
(-0.34729 0.0752557 0)
(-0.348136 0.0606111 0)
(-0.348544 0.045747 0)
(-0.348693 0.0306996 0)
(-0.348746 0.0154472 0)
(-0.348813 -3.89625e-05 0)
(-0.348999 -0.0158213 0)
(-0.349365 -0.0319524 0)
(-0.349967 -0.0484984 0)
(-0.350805 -0.0654959 0)
(-0.351836 -0.0829641 0)
(-0.352907 -0.100851 0)
(-0.353749 -0.119021 0)
(-0.353879 -0.137178 0)
(-0.352593 -0.154821 0)
(-0.348896 -0.17116 0)
(-0.341561 -0.18509 0)
(-0.329204 -0.19518 0)
(-0.310544 -0.199806 0)
(-0.284714 -0.197383 0)
(-0.251711 -0.186774 0)
(-0.212741 -0.167758 0)
(-0.170398 -0.141487 0)
(-0.128313 -0.110569 0)
(-0.0903261 -0.0786312 0)
(-0.0592028 -0.0491833 0)
(-0.0358545 -0.0245319 0)
(-0.0194427 -0.00533363 0)
(-0.00852585 0.00873549 0)
(-0.00168922 0.0184239 0)
(0.00202748 0.0243541 0)
(0.00350562 0.0271565 0)
(0.00333982 0.0271166 0)
(0.00232402 0.0243444 0)
(0.00100061 0.0182286 0)
(0.000124093 0.00794381 0)
(0.000242427 -0.0100253 0)
(-0.000572762 -0.0150714 0)
(-0.00407391 -0.00987791 0)
(-0.0107253 0.00210702 0)
(-0.020707 0.0171023 0)
(-0.0340309 0.0338534 0)
(-0.0510764 0.0516647 0)
(-0.072025 0.0709654 0)
(-0.0968936 0.0915083 0)
(-0.124866 0.11267 0)
(-0.154655 0.132908 0)
(-0.184528 0.150686 0)
(-0.213009 0.164629 0)
(-0.238891 0.17407 0)
(-0.2615 0.178785 0)
(-0.280433 0.179044 0)
(-0.295675 0.175301 0)
(-0.307383 0.168228 0)
(-0.315965 0.158493 0)
(-0.321882 0.146796 0)
(-0.325691 0.13371 0)
(-0.327884 0.119739 0)
(-0.328944 0.105229 0)
(-0.329228 0.090447 0)
(-0.329057 0.0755298 0)
(-0.328635 0.0605679 0)
(-0.328144 0.0455694 0)
(-0.327686 0.0305283 0)
(-0.327365 0.0153907 0)
(-0.327239 0.000108703 0)
(-0.327388 -0.0153948 0)
(-0.327863 -0.0311829 0)
(-0.328743 -0.0473379 0)
(-0.330074 -0.0639236 0)
(-0.331913 -0.0810101 0)
(-0.334249 -0.0986327 0)
(-0.337018 -0.116795 0)
(-0.339997 -0.135404 0)
(-0.342774 -0.154231 0)
(-0.344626 -0.172809 0)
(-0.344486 -0.190346 0)
(-0.340889 -0.205623 0)
(-0.332095 -0.216981 0)
(-0.31631 -0.222406 0)
(-0.292152 -0.21983 0)
(-0.259201 -0.207632 0)
(-0.218617 -0.185346 0)
(-0.173409 -0.154302 0)
(-0.128149 -0.1179 0)
(-0.0877226 -0.0809085 0)
(-0.0555998 -0.0478716 0)
(-0.0325498 -0.021323 0)
(-0.01723 -0.00162522 0)
(-0.00760497 0.0121696 0)
(-0.0020494 0.0210665 0)
(0.000729469 0.0259745 0)
(0.00157288 0.027303 0)
(0.00133434 0.0251997 0)
(0.000610774 0.0191146 0)
(6.51822e-05 0.00831192 0)
(-8.94662e-05 -0.00964172 0)
(-0.00259092 -0.0120043 0)
(-0.00863731 -0.00355907 0)
(-0.0180447 0.0118358 0)
(-0.0310846 0.0302638 0)
(-0.0476038 0.050662 0)
(-0.0680346 0.0723528 0)
(-0.0921474 0.0954881 0)
(-0.119516 0.119186 0)
(-0.148709 0.14218 0)
(-0.178186 0.162576 0)
(-0.206198 0.178931 0)
(-0.231571 0.190239 0)
(-0.2534 0.196276 0)
(-0.271359 0.197207 0)
(-0.285334 0.193632 0)
(-0.295637 0.186276 0)
(-0.302682 0.176013 0)
(-0.307109 0.16363 0)
(-0.309502 0.149864 0)
(-0.310482 0.135258 0)
(-0.31051 0.120245 0)
(-0.310008 0.105076 0)
(-0.309228 0.0899247 0)
(-0.30839 0.0748426 0)
(-0.307589 0.0598563 0)
(-0.306922 0.0449256 0)
(-0.306409 0.0300174 0)
(-0.306102 0.0150624 0)
(-0.306009 1.10467e-05 0)
(-0.306183 -0.0152094 0)
(-0.306653 -0.0306523 0)
(-0.307497 -0.0463905 0)
(-0.308775 -0.0624826 0)
(-0.310588 -0.0790058 0)
(-0.313007 -0.0960251 0)
(-0.316108 -0.113612 0)
(-0.319881 -0.131804 0)
(-0.324219 -0.150584 0)
(-0.328783 -0.169796 0)
(-0.332934 -0.189055 0)
(-0.335575 -0.207598 0)
(-0.33512 -0.224147 0)
(-0.3295 -0.236812 0)
(-0.31645 -0.243162 0)
(-0.293994 -0.240535 0)
(-0.261245 -0.226711 0)
(-0.219216 -0.200855 0)
(-0.171397 -0.164547 0)
(-0.123391 -0.122187 0)
(-0.0813033 -0.080091 0)
(-0.0491378 -0.0438683 0)
(-0.0272843 -0.0161811 0)
(-0.0135862 0.00337111 0)
(-0.00560843 0.0161972 0)
(-0.0013789 0.0237306 0)
(0.000395072 0.0267245 0)
(0.00076825 0.0255016 0)
(0.000434423 0.01966 0)
(5.39701e-05 0.00857 0)
(-0.000556214 -0.00801682 0)
(-0.00504962 -0.00656579 0)
(-0.0138285 0.00557099 0)
(-0.026014 0.0245531 0)
(-0.0420231 0.0465701 0)
(-0.0614607 0.0706945 0)
(-0.0847008 0.0960895 0)
(-0.110967 0.122394 0)
(-0.139422 0.148059 0)
(-0.168214 0.171368 0)
(-0.195836 0.190407 0)
(-0.220711 0.204064 0)
(-0.242049 0.211798 0)
(-0.259251 0.213826 0)
(-0.272367 0.210697 0)
(-0.281592 0.203338 0)
(-0.287557 0.192707 0)
(-0.29087 0.179812 0)
(-0.292305 0.165465 0)
(-0.292447 0.150353 0)
(-0.291874 0.134914 0)
(-0.290927 0.119462 0)
(-0.289914 0.104129 0)
(-0.288952 0.0889905 0)
(-0.288159 0.0740234 0)
(-0.287531 0.0592054 0)
(-0.287103 0.0444661 0)
(-0.286838 0.0297603 0)
(-0.286755 0.0150169 0)
(-0.286829 0.000193976 0)
(-0.287098 -0.0147694 0)
(-0.287569 -0.0299101 0)
(-0.288312 -0.0452839 0)
(-0.289376 -0.0609317 0)
(-0.290869 -0.0769168 0)
(-0.29288 -0.0932994 0)
(-0.295544 -0.110165 0)
(-0.29896 -0.1276 0)
(-0.303213 -0.145696 0)
(-0.308264 -0.164502 0)
(-0.313899 -0.183957 0)
(-0.319553 -0.203767 0)
(-0.324185 -0.223225 0)
(-0.326117 -0.241001 0)
(-0.323045 -0.254979 0)
(-0.312241 -0.262254 0)
(-0.291163 -0.259481 0)
(-0.258401 -0.2437 0)
(-0.214852 -0.213678 0)
(-0.164558 -0.171357 0)
(-0.114379 -0.122604 0)
(-0.0716769 -0.0756255 0)
(-0.0407162 -0.0371787 0)
(-0.0209303 -0.00935023 0)
(-0.00935257 0.00906554 0)
(-0.00313671 0.0201869 0)
(-0.000307996 0.0253778 0)
(0.000596733 0.0253624 0)
(0.000467791 0.0200024 0)
(9.09607e-05 0.0088021 0)
(-0.00112588 -0.00496738 0)
(-0.00776621 0.0013194 0)
(-0.0192712 0.0174052 0)
(-0.0340729 0.0399983 0)
(-0.0527553 0.0655868 0)
(-0.0745882 0.0932409 0)
(-0.0997974 0.121789 0)
(-0.127033 0.150236 0)
(-0.155201 0.176496 0)
(-0.182257 0.198679 0)
(-0.206939 0.215126 0)
(-0.227934 0.225179 0)
(-0.244862 0.228788 0)
(-0.257447 0.226612 0)
(-0.266134 0.21958 0)
(-0.27139 0.208891 0)
(-0.274089 0.195654 0)
(-0.274911 0.180899 0)
(-0.274642 0.165362 0)
(-0.273756 0.149598 0)
(-0.272715 0.133896 0)
(-0.271699 0.118431 0)
(-0.270892 0.103223 0)
(-0.270289 0.088271 0)
(-0.269932 0.0734998 0)
(-0.269751 0.0588617 0)
(-0.269748 0.0442768 0)
(-0.269854 0.0297023 0)
(-0.270076 0.0150762 0)
(-0.270375 0.000370203 0)
(-0.270779 -0.0144607 0)
(-0.271283 -0.0294355 0)
(-0.271943 -0.04459 0)
(-0.272791 -0.0599445 0)
(-0.27392 -0.075539 0)
(-0.275407 -0.0914126 0)
(-0.277388 -0.107633 0)
(-0.27999 -0.124285 0)
(-0.28338 -0.141489 0)
(-0.28768 -0.159382 0)
(-0.292961 -0.178094 0)
(-0.299089 -0.197663 0)
(-0.305617 -0.217896 0)
(-0.31154 -0.238146 0)
(-0.315142 -0.257026 0)
(-0.313891 -0.272152 0)
(-0.304649 -0.280081 0)
(-0.284319 -0.276666 0)
(-0.251019 -0.258128 0)
(-0.205628 -0.22284 0)
(-0.152976 -0.173503 0)
(-0.101432 -0.118011 0)
(-0.0595903 -0.0670388 0)
(-0.0312528 -0.0278023 0)
(-0.0143647 -0.00132529 0)
(-0.00519552 0.0149452 0)
(-0.000899553 0.023227 0)
(0.000628165 0.0249311 0)
(0.000626038 0.0203448 0)
(0.000157083 0.00914996 0)
(-0.0017636 -0.000281741 0)
(-0.0105709 0.0117533 0)
(-0.0246398 0.0318979 0)
(-0.041751 0.0580046 0)
(-0.0626372 0.0869773 0)
(-0.0861609 0.117703 0)
(-0.11237 0.148557 0)
(-0.139421 0.177924 0)
(-0.166158 0.203422 0)
(-0.190538 0.223248 0)
(-0.211667 0.236178 0)
(-0.228525 0.242064 0)
(-0.241167 0.241362 0)
(-0.249632 0.235156 0)
(-0.254722 0.224707 0)
(-0.257082 0.211388 0)
(-0.257703 0.196337 0)
(-0.257207 0.180492 0)
(-0.256292 0.164435 0)
(-0.255257 0.148546 0)
(-0.254425 0.132958 0)
(-0.25382 0.117723 0)
(-0.253532 0.102779 0)
(-0.253469 0.088073 0)
(-0.253636 0.0735092 0)
(-0.253927 0.059033 0)
(-0.254339 0.044569 0)
(-0.254792 0.0300841 0)
(-0.255299 0.0155287 0)
(-0.255814 0.000887081 0)
(-0.256368 -0.0138721 0)
(-0.256945 -0.0287554 0)
(-0.257596 -0.0437839 0)
(-0.258331 -0.0589627 0)
(-0.259225 -0.0743127 0)
(-0.260325 -0.089851 0)
(-0.261741 -0.105617 0)
(-0.263575 -0.12167 0)
(-0.265997 -0.138108 0)
(-0.269173 -0.155074 0)
(-0.273305 -0.172759 0)
(-0.278521 -0.191376 0)
(-0.284806 -0.211066 0)
(-0.291788 -0.231744 0)
(-0.298517 -0.252798 0)
(-0.3032 -0.27274 0)
(-0.303072 -0.288832 0)
(-0.294588 -0.296955 0)
(-0.274132 -0.29204 0)
(-0.239482 -0.269406 0)
(-0.191727 -0.227291 0)
(-0.136905 -0.169724 0)
(-0.0852138 -0.107739 0)
(-0.0461266 -0.0544206 0)
(-0.0218024 -0.0166061 0)
(-0.00833786 0.0070899 0)
(-0.00184316 0.0198529 0)
(0.000613379 0.0240815 0)
(0.000808616 0.0206857 0)
(0.000234603 0.00962996 0)
(-0.00239478 0.00599594 0)
(-0.0131999 0.0244759 0)
(-0.0294965 0.0486095 0)
(-0.0484685 0.0779639 0)
(-0.0709558 0.109916 0)
(-0.0953809 0.143011 0)
(-0.121644 0.17515 0)
(-0.147543 0.204215 0)
(-0.172041 0.227787 0)
(-0.193225 0.244347 0)
(-0.210625 0.253213 0)
(-0.223525 0.254757 0)
(-0.232405 0.249941 0)
(-0.237573 0.240217 0)
(-0.240097 0.22708 0)
(-0.240669 0.21194 0)
(-0.240274 0.195851 0)
(-0.239383 0.17957 0)
(-0.238553 0.163485 0)
(-0.237895 0.147796 0)
(-0.237611 0.132505 0)
(-0.237605 0.117574 0)
(-0.237913 0.102892 0)
(-0.238391 0.0883865 0)
(-0.23904 0.0739594 0)
(-0.239739 0.0595635 0)
(-0.240498 0.045137 0)
(-0.241234 0.0306593 0)
(-0.241973 0.0160952 0)
(-0.242668 0.00143992 0)
(-0.243356 -0.0133259 0)
(-0.244014 -0.0281997 0)
(-0.244691 -0.0431916 0)
(-0.245384 -0.0582973 0)
(-0.246153 -0.0735234 0)
(-0.247016 -0.0888723 0)
(-0.248057 -0.104359 0)
(-0.249335 -0.120014 0)
(-0.250982 -0.135896 0)
(-0.253138 -0.152112 0)
(-0.256017 -0.16883 0)
(-0.259843 -0.186301 0)
(-0.264838 -0.204816 0)
(-0.27107 -0.224646 0)
(-0.278256 -0.245795 0)
(-0.285461 -0.267681 0)
(-0.290766 -0.288618 0)
(-0.291123 -0.305365 0)
(-0.282514 -0.312931 0)
(-0.260893 -0.305128 0)
(-0.223859 -0.276447 0)
(-0.173208 -0.225398 0)
(-0.116731 -0.158649 0)
(-0.0668051 -0.0913429 0)
(-0.0326701 -0.0386672 0)
(-0.0133238 -0.00448526 0)
(-0.00362594 0.0146803 0)
(0.00027845 0.0225965 0)
(0.000897708 0.0209871 0)
(0.000300956 0.0102636 0)
(-0.00296675 0.0137928 0)
(-0.0154823 0.039265 0)
(-0.033569 0.067225 0)
(-0.0538766 0.0994743 0)
(-0.0773021 0.133877 0)
(-0.101852 0.168522 0)
(-0.127348 0.200903 0)
(-0.151383 0.228569 0)
(-0.17317 0.249304 0)
(-0.190999 0.262001 0)
(-0.20484 0.266577 0)
(-0.214264 0.263915 0)
(-0.220136 0.255443 0)
(-0.22294 0.242882 0)
(-0.223886 0.227829 0)
(-0.223595 0.211606 0)
(-0.222961 0.195092 0)
(-0.222255 0.178818 0)
(-0.22189 0.162983 0)
(-0.221814 0.147635 0)
(-0.222146 0.132681 0)
(-0.222714 0.118032 0)
(-0.223537 0.10356 0)
(-0.22445 0.0891916 0)
(-0.225467 0.0748415 0)
(-0.226466 0.0604745 0)
(-0.227477 0.0460447 0)
(-0.228418 0.0315425 0)
(-0.22933 0.0169448 0)
(-0.230163 0.0022543 0)
(-0.230964 -0.0125397 0)
(-0.231705 -0.0274301 0)
(-0.232436 -0.0424202 0)
(-0.233144 -0.0575025 0)
(-0.233881 -0.0726753 0)
(-0.234647 -0.0879348 0)
(-0.235503 -0.10328 0)
(-0.236472 -0.118723 0)
(-0.237643 -0.134284 0)
(-0.239102 -0.150031 0)
(-0.241015 -0.16607 0)
(-0.243587 -0.182609 0)
(-0.247099 -0.199938 0)
(-0.25183 -0.218463 0)
(-0.257939 -0.23855 0)
(-0.265211 -0.260324 0)
(-0.272669 -0.283148 0)
(-0.278221 -0.30503 0)
(-0.278388 -0.321981 0)
(-0.268686 -0.327837 0)
(-0.244635 -0.315144 0)
(-0.204106 -0.277685 0)
(-0.150186 -0.215406 0)
(-0.0933217 -0.13922 0)
(-0.0478934 -0.0698071 0)
(-0.0206634 -0.0212369 0)
(-0.00662613 0.00682581 0)
(-0.000572047 0.0200042 0)
(0.000815472 0.0210206 0)
(0.000344011 0.0109622 0)
(-0.00340505 0.0227962 0)
(-0.0172042 0.0555899 0)
(-0.0365495 0.0870853 0)
(-0.0576188 0.121744 0)
(-0.0813211 0.157935 0)
(-0.10531 0.193251 0)
(-0.129412 0.224903 0)
(-0.151152 0.250294 0)
(-0.170066 0.267586 0)
(-0.184683 0.276157 0)
(-0.195389 0.276537 0)
(-0.202009 0.27008 0)
(-0.205703 0.258602 0)
(-0.207026 0.243958 0)
(-0.207217 0.227721 0)
(-0.206741 0.21102 0)
(-0.206358 0.194516 0)
(-0.206139 0.178512 0)
(-0.20638 0.163049 0)
(-0.206909 0.148059 0)
(-0.207806 0.133402 0)
(-0.208855 0.118961 0)
(-0.210087 0.104619 0)
(-0.211331 0.0903084 0)
(-0.212622 0.0759651 0)
(-0.213842 0.0615657 0)
(-0.215037 0.0470799 0)
(-0.21613 0.032507 0)
(-0.217171 0.0178351 0)
(-0.218108 0.0030718 0)
(-0.218996 -0.0117853 0)
(-0.219803 -0.0267267 0)
(-0.220581 -0.0417495 0)
(-0.221312 -0.0568457 0)
(-0.222045 -0.0720082 0)
(-0.222772 -0.087233 0)
(-0.22354 -0.10251 0)
(-0.22435 -0.117843 0)
(-0.225259 -0.133229 0)
(-0.226304 -0.148705 0)
(-0.227593 -0.164317 0)
(-0.229266 -0.18021 0)
(-0.23156 -0.196597 0)
(-0.234785 -0.213867 0)
(-0.239285 -0.232498 0)
(-0.245302 -0.253017 0)
(-0.252625 -0.275593 0)
(-0.260215 -0.299486 0)
(-0.265615 -0.322158 0)
(-0.264888 -0.338535 0)
(-0.252898 -0.340941 0)
(-0.225062 -0.320426 0)
(-0.179923 -0.270849 0)
(-0.123056 -0.195146 0)
(-0.0682255 -0.111656 0)
(-0.0306985 -0.0449799 0)
(-0.0110944 -0.00460439 0)
(-0.00205498 0.015768 0)
(0.000524883 0.0205556 0)
(0.00035677 0.0116575 0)
(-0.0036809 0.0326951 0)
(-0.0182931 0.0730425 0)
(-0.038349 0.10778 0)
(-0.0596251 0.144361 0)
(-0.0830055 0.181685 0)
(-0.105887 0.216873 0)
(-0.128171 0.246998 0)
(-0.147425 0.269484 0)
(-0.163535 0.282999 0)
(-0.175273 0.287435 0)
(-0.183395 0.283925 0)
(-0.187918 0.274219 0)
(-0.190196 0.260414 0)
(-0.190753 0.244362 0)
(-0.19077 0.227512 0)
(-0.190519 0.210738 0)
(-0.19062 0.194482 0)
(-0.190974 0.178843 0)
(-0.191801 0.163751 0)
(-0.192852 0.149061 0)
(-0.194198 0.13462 0)
(-0.195609 0.120307 0)
(-0.197138 0.106024 0)
(-0.198616 0.0917172 0)
(-0.200102 0.0773407 0)
(-0.20148 0.0628806 0)
(-0.202812 0.0483207 0)
(-0.204018 0.0336648 0)
(-0.205158 0.0189108 0)
(-0.206179 0.0040685 0)
(-0.207138 -0.0108574 0)
(-0.208002 -0.0258571 0)
(-0.208824 -0.0409222 0)
(-0.209584 -0.0560469 0)
(-0.210333 -0.0712199 0)
(-0.211056 -0.0864414 0)
(-0.211797 -0.101696 0)
(-0.212546 -0.116991 0)
(-0.21334 -0.132309 0)
(-0.214185 -0.147671 0)
(-0.215138 -0.163079 0)
(-0.216273 -0.178622 0)
(-0.217746 -0.194414 0)
(-0.219806 -0.210759 0)
(-0.222804 -0.228078 0)
(-0.227168 -0.247029 0)
(-0.233158 -0.268225 0)
(-0.240591 -0.2919 0)
(-0.24814 -0.316991 0)
(-0.252971 -0.340103 0)
(-0.250355 -0.354616 0)
(-0.234735 -0.350833 0)
(-0.201529 -0.318592 0)
(-0.151203 -0.252932 0)
(-0.0927805 -0.163522 0)
(-0.0441952 -0.0779272 0)
(-0.0170376 -0.020754 0)
(-0.00429808 0.00921895 0)
(4.24918e-05 0.019257 0)
(0.00033455 0.0122364 0)
(-0.003755 0.0430158 0)
(-0.0186548 0.0909752 0)
(-0.0388653 0.128599 0)
(-0.0598278 0.166559 0)
(-0.0823763 0.204351 0)
(-0.103754 0.238697 0)
(-0.123988 0.266681 0)
(-0.140765 0.285882 0)
(-0.154312 0.295545 0)
(-0.163625 0.29607 0)
(-0.169761 0.289145 0)
(-0.172853 0.27682 0)
(-0.174348 0.261351 0)
(-0.174665 0.244469 0)
(-0.174873 0.227432 0)
(-0.175056 0.210845 0)
(-0.175711 0.19495 0)
(-0.176615 0.179687 0)
(-0.177945 0.164916 0)
(-0.179413 0.150452 0)
(-0.181104 0.136151 0)
(-0.182786 0.121897 0)
(-0.184536 0.107618 0)
(-0.186192 0.0932698 0)
(-0.187829 0.0788247 0)
(-0.189333 0.0642744 0)
(-0.190777 0.0496149 0)
(-0.192077 0.0348526 0)
(-0.193301 0.0199942 0)
(-0.19439 0.00505104 0)
(-0.195406 -0.00996442 0)
(-0.196312 -0.0250424 0)
(-0.197165 -0.0401679 0)
(-0.19794 -0.0553377 0)
(-0.198694 -0.0705353 0)
(-0.199407 -0.0857668 0)
(-0.200127 -0.101013 0)
(-0.200839 -0.11629 0)
(-0.201575 -0.131572 0)
(-0.202326 -0.146884 0)
(-0.203118 -0.162199 0)
(-0.203976 -0.177575 0)
(-0.204979 -0.193043 0)
(-0.206286 -0.208807 0)
(-0.208161 -0.225155 0)
(-0.211037 -0.242694 0)
(-0.21536 -0.262169 0)
(-0.221491 -0.284396 0)
(-0.229035 -0.309487 0)
(-0.236409 -0.335818 0)
(-0.239942 -0.358609 0)
(-0.234278 -0.368988 0)
(-0.213253 -0.355048 0)
(-0.173401 -0.305865 0)
(-0.118122 -0.22105 0)
(-0.0618282 -0.121229 0)
(-0.0245176 -0.0433536 0)
(-0.00742339 -0.000170152 0)
(-0.000644383 0.0167425 0)
(0.000289508 0.0126417 0)
(-0.00363891 0.0533629 0)
(-0.0183335 0.108967 0)
(-0.0381937 0.149206 0)
(-0.0584047 0.188093 0)
(-0.0797261 0.225811 0)
(-0.099351 0.258785 0)
(-0.117456 0.28424 0)
(-0.131899 0.300002 0)
(-0.143204 0.305928 0)
(-0.150567 0.302895 0)
(-0.155261 0.29308 0)
(-0.157468 0.278724 0)
(-0.158635 0.26213 0)
(-0.159038 0.244827 0)
(-0.159618 0.227855 0)
(-0.16029 0.211559 0)
(-0.161461 0.196028 0)
(-0.162828 0.181079 0)
(-0.164553 0.166545 0)
(-0.166332 0.152222 0)
(-0.168274 0.137988 0)
(-0.170152 0.123739 0)
(-0.172065 0.109425 0)
(-0.173855 0.0950086 0)
(-0.175611 0.0804776 0)
(-0.177219 0.0658257 0)
(-0.178757 0.051059 0)
(-0.18014 0.0361841 0)
(-0.181438 0.0212164 0)
(-0.182589 0.00616693 0)
(-0.183659 -0.00894393 0)
(-0.184605 -0.0241077 0)
(-0.185488 -0.039302 0)
(-0.186281 -0.0545271 0)
(-0.187041 -0.0697605 0)
(-0.18775 -0.0850154 0)
(-0.188458 -0.100268 0)
(-0.189148 -0.115545 0)
(-0.189856 -0.130817 0)
(-0.190564 -0.14612 0)
(-0.19129 -0.161413 0)
(-0.192027 -0.176744 0)
(-0.192804 -0.192086 0)
(-0.193699 -0.207571 0)
(-0.194867 -0.223339 0)
(-0.196647 -0.239859 0)
(-0.199476 -0.25779 0)
(-0.203956 -0.278169 0)