/*--------------------------------*- C++ -*----------------------------------*\
| =========                 |                                                 |
| \\      /  F ield         | OpenFOAM: The Open Source CFD Toolbox           |
|  \\    /   O peration     | Version:  2406                                  |
|   \\  /    A nd           | Website:  www.openfoam.com                      |
|    \\/     M anipulation  |                                                 |
\*---------------------------------------------------------------------------*/
FoamFile
{
    version     2.0;
    format      ascii;
    arch        "LSB;label=32;scalar=64";
    class       volVectorField;
    location    "45.2";
    object      Uold;
}
// * * * * * * * * * * * * * * * * * * * * * * * * * * * * * * * * * * * * * //

dimensions      [0 1 -1 0 0 0 0];

internalField   nonuniform List<vector> 
900
(
(0.00030011 -0.000544228 0)
(0.00377402 -0.00130558 0)
(0.00769446 -0.00102198 0)
(0.00929899 -0.000561148 0)
(0.00980172 -0.000488738 0)
(0.00963603 -0.000804996 0)
(0.00960136 -0.00123927 0)
(0.00953791 -0.00173063 0)
(0.00857806 -0.00330307 0)
(0.00392309 -0.00517476 0)
(-0.00677659 -0.00304295 0)
(-0.0246801 0.00378506 0)
(-0.0484566 0.0101241 0)
(-0.0733595 0.0125257 0)
(-0.0953046 0.0118903 0)
(-0.112144 0.00970363 0)
(-0.122572 0.00659189 0)
(-0.125686 0.00292795 0)
(-0.121107 -0.00105893 0)
(-0.108337 -0.0051231 0)
(-0.0879855 -0.00890799 0)
(-0.0603999 -0.0118171 0)
(-0.028824 -0.0130194 0)
(0.00401565 -0.0114728 0)
(0.0300262 -0.00603952 0)
(0.0436467 0.00137252 0)
(0.0395703 0.00710404 0)
(0.0255044 0.00722411 0)
(0.0120515 0.0048146 0)
(0.00145913 0.00184406 0)
(0.00124342 -0.00350845 0)
(0.00722429 -0.00619439 0)
(0.0129928 -0.00445316 0)
(0.0148703 -0.00156945 0)
(0.0141989 0.000197907 0)
(0.0109099 0.00101747 0)
(0.00452943 0.00138876 0)
(-0.00879861 0.00275933 0)
(-0.0323886 0.00905351 0)
(-0.0658208 0.0209099 0)
(-0.103898 0.0321171 0)
(-0.139485 0.0382979 0)
(-0.168775 0.0388494 0)
(-0.191257 0.0345749 0)
(-0.207321 0.0271657 0)
(-0.216851 0.0178108 0)
(-0.219723 0.00720923 0)
(-0.215683 -0.00419718 0)
(-0.204563 -0.0160496 0)
(-0.186018 -0.0279091 0)
(-0.160196 -0.0388466 0)
(-0.127271 -0.0474982 0)
(-0.0889503 -0.0513801 0)
(-0.0477417 -0.0478242 0)
(-0.00905492 -0.0334824 0)
(0.0206654 -0.0111787 0)
(0.0327372 0.0113413 0)
(0.0272069 0.0199739 0)
(0.0158174 0.0195547 0)
(0.00228423 0.0116729 0)
(0.0021875 -0.00894879 0)
(0.00877296 -0.0131335 0)
(0.0132135 -0.00861151 0)
(0.0121754 -0.00182796 0)
(0.00666478 0.00345912 0)
(-0.00556009 0.00878804 0)
(-0.0281574 0.0184623 0)
(-0.0636929 0.0352907 0)
(-0.107768 0.0536411 0)
(-0.150628 0.0657824 0)
(-0.186761 0.0700373 0)
(-0.215145 0.0682438 0)
(-0.236276 0.0614314 0)
(-0.251202 0.0505734 0)
(-0.260887 0.0370347 0)
(-0.265761 0.0216874 0)
(-0.26614 0.00509869 0)
(-0.261908 -0.0125272 0)
(-0.252874 -0.0308692 0)
(-0.238455 -0.0496575 0)
(-0.218087 -0.0675929 0)
(-0.191103 -0.0831549 0)
(-0.157083 -0.0923066 0)
(-0.116952 -0.091451 0)
(-0.0721935 -0.0739151 0)
(-0.0292029 -0.0404149 0)
(0.00348207 0.000894324 0)
(0.0113129 0.0235412 0)
(0.00915831 0.0297282 0)
(0.000285759 0.0195693 0)
(0.00286702 -0.0144167 0)
(0.00766971 -0.017303 0)
(0.0073468 -0.00776594 0)
(-0.000503678 0.00500619 0)
(-0.0167701 0.0180268 0)
(-0.0451096 0.0359638 0)
(-0.0860102 0.0596466 0)
(-0.132172 0.0822427 0)
(-0.173865 0.0959673 0)
(-0.207253 0.100132 0)
(-0.232848 0.0968301 0)
(-0.251249 0.0879363 0)
(-0.263665 0.0749969 0)
(-0.27146 0.0592903 0)
(-0.275831 0.0418372 0)
(-0.277461 0.0231227 0)
(-0.27686 0.00338743 0)
(-0.274066 -0.0175507 0)
(-0.269016 -0.0395947 0)
(-0.261095 -0.0629626 0)
(-0.249509 -0.0863987 0)
(-0.232833 -0.10894 0)
(-0.209217 -0.125756 0)
(-0.177135 -0.133176 0)
(-0.134487 -0.120959 0)
(-0.0844465 -0.0868687 0)
(-0.0312448 -0.0283388 0)
(-0.00103847 0.0140661 0)
(0.00378966 0.0310432 0)
(-0.00137498 0.0212276 0)
(0.00265008 -0.0195129 0)
(0.00282378 -0.0177454 0)
(-0.00531593 -0.000443679 0)
(-0.0233378 0.0222219 0)
(-0.0527422 0.0480356 0)
(-0.0932428 0.0778883 0)
(-0.137943 0.105378 0)
(-0.177626 0.123065 0)
(-0.20815 0.128492 0)
(-0.230047 0.124415 0)
(-0.244569 0.113745 0)
(-0.253099 0.0988539 0)
(-0.257451 0.0814579 0)
(-0.258877 0.0625692 0)
(-0.258675 0.0429152 0)
(-0.257425 0.0226077 0)
(-0.255832 0.00167922 0)
(-0.253973 -0.0204196 0)
(-0.252162 -0.0437657 0)
(-0.249918 -0.0691945 0)
(-0.246901 -0.0957396 0)
(-0.241427 -0.123557 0)
(-0.231435 -0.147994 0)
(-0.213318 -0.16643 0)
(-0.18256 -0.166618 0)
(-0.13651 -0.143681 0)
(-0.0748455 -0.0823069 0)
(-0.0143253 -0.0118897 0)
(0.0035002 0.0302511 0)
(-0.00159264 0.0217555 0)
(0.00065922 -0.0198133 0)
(-0.00685018 -0.00926178 0)
(-0.0246163 0.0185668 0)
(-0.052387 0.0525745 0)
(-0.0897072 0.0880101 0)
(-0.131181 0.121237 0)
(-0.168848 0.144024 0)
(-0.196922 0.1524 0)
(-0.215404 0.148447 0)
(-0.226237 0.136722 0)
(-0.231123 0.120065 0)
(-0.232022 0.101016 0)
(-0.230535 0.0809741 0)
(-0.227775 0.060708 0)
(-0.224736 0.0405986 0)
(-0.22175 0.0204487 0)
(-0.219423 0.000155412 0)
(-0.217719 -0.0211011 0)
(-0.217228 -0.0434174 0)
(-0.21764 -0.0681763 0)
(-0.219453 -0.0946711 0)
(-0.221408 -0.124484 0)
(-0.222601 -0.153799 0)
(-0.219011 -0.182328 0)
(-0.205595 -0.197863 0)
(-0.175442 -0.194861 0)
(-0.122193 -0.150244 0)
(-0.0484468 -0.0645144 0)
(0.0066489 0.0186985 0)
(-0.00233511 0.0231278 0)
(-0.00237255 -0.0134228 0)
(-0.0180053 0.00752589 0)
(-0.0438863 0.0450469 0)
(-0.0769144 0.0872873 0)
(-0.11487 0.126718 0)
(-0.150516 0.156887 0)
(-0.177942 0.170985 0)
(-0.194821 0.169567 0)
(-0.203704 0.157753 0)
(-0.206585 0.140104 0)
(-0.205648 0.119522 0)
(-0.202739 0.0982768 0)
(-0.199065 0.0772386 0)
(-0.195308 0.0567886 0)
(-0.191981 0.0369593 0)
(-0.189046 0.0173242 0)
(-0.186905 -0.00221177 0)
(-0.185288 -0.0225742 0)
(-0.184893 -0.0436021 0)
(-0.185316 -0.0669249 0)
(-0.187694 -0.091617 0)
(-0.191125 -0.12037 0)
(-0.196445 -0.150028 0)
(-0.200565 -0.183437 0)
(-0.200567 -0.210034 0)
(-0.188649 -0.227478 0)
(-0.154011 -0.208805 0)
(-0.0945351 -0.142289 0)
(-0.00572304 -0.0147318 0)
(0.00356792 0.0256422 0)
(-0.00548512 0.000609807 0)
(-0.0277331 0.0325101 0)
(-0.0583404 0.0775507 0)
(-0.092012 0.123698 0)
(-0.126165 0.161565 0)
(-0.15361 0.184343 0)
(-0.171378 0.188364 0)
(-0.17978 0.178281 0)
(-0.182301 0.160333 0)
(-0.180783 0.138805 0)
(-0.177584 0.11633 0)
(-0.173905 0.0945161 0)
(-0.17045 0.0736111 0)
(-0.167375 0.0536336 0)
(-0.164836 0.0343726 0)
(-0.16257 0.0153047 0)
(-0.160944 -0.00357072 0)
(-0.159543 -0.0232638 0)
(-0.159212 -0.0433177 0)
(-0.159285 -0.0655982 0)
(-0.161248 -0.0886908 0)
(-0.163952 -0.115975 0)
(-0.169429 -0.144072 0)
(-0.175097 -0.178303 0)
(-0.181169 -0.209627 0)
(-0.18037 -0.241042 0)
(-0.164594 -0.245008 0)
(-0.125106 -0.212414 0)
(-0.0439111 -0.0793138 0)
(0.0186393 0.0211634 0)
(-0.00726589 0.0196071 0)
(-0.0329933 0.0604397 0)
(-0.0647281 0.109106 0)
(-0.095912 0.155042 0)
(-0.124537 0.18811 0)
(-0.144279 0.202038 0)
(-0.154935 0.197103 0)
(-0.158097 0.180491 0)
(-0.157532 0.158726 0)
(-0.15463 0.135362 0)
(-0.151638 0.112611 0)
(-0.148779 0.0910973 0)
(-0.146511 0.0706948 0)
(-0.144446 0.0511189 0)
(-0.142755 0.0321855 0)
(-0.140978 0.0133601 0)
(-0.13967 -0.00514161 0)
(-0.138222 -0.0244235 0)
(-0.137739 -0.0436843 0)
(-0.137183 -0.0650971 0)
(-0.138435 -0.0866862 0)
(-0.139792 -0.112504 0)
(-0.144242 -0.138526 0)
(-0.148973 -0.171979 0)
(-0.1569 -0.204443 0)
(-0.161226 -0.243804 0)
(-0.158296 -0.264913 0)
(-0.134027 -0.261625 0)
(-0.0791913 -0.161654 0)
(0.0113503 0.00157586 0)
(-0.00771181 0.0408601 0)
(-0.03407 0.0902138 0)
(-0.0644906 0.140347 0)
(-0.0917155 0.183582 0)
(-0.114627 0.209849 0)
(-0.128146 0.214861 0)
(-0.13408 0.202271 0)
(-0.134575 0.181016 0)
(-0.133062 0.156953 0)
(-0.130525 0.132994 0)
(-0.128686 0.110538 0)
(-0.12705 0.0894155 0)
(-0.125973 0.0693294 0)
(-0.124751 0.0498485 0)
(-0.123765 0.030969 0)
(-0.122395 0.0121268 0)
(-0.121476 -0.0062207 0)
(-0.120133 -0.0253704 0)
(-0.119794 -0.0441682 0)
(-0.118916 -0.0651821 0)
(-0.119794 -0.0857739 0)
(-0.119883 -0.11057 0)
(-0.122984 -0.134461 0)
(-0.125473 -0.166091 0)
(-0.132802 -0.196889 0)
(-0.138569 -0.239723 0)
(-0.143399 -0.271915 0)
(-0.132042 -0.291331 0)
(-0.0951717 -0.225519 0)
(-0.0204906 -0.045286 0)
(-0.00683887 0.0612498 0)
(-0.0313722 0.117267 0)
(-0.0584519 0.166473 0)
(-0.0810201 0.205114 0)
(-0.098848 0.224377 0)
(-0.107957 0.221507 0)
(-0.111474 0.203488 0)
(-0.111179 0.17944 0)
(-0.110139 0.154601 0)
(-0.108713 0.13091 0)
(-0.108189 0.109069 0)
(-0.107586 0.0882955 0)
(-0.107385 0.0683775 0)
(-0.106673 0.0488097 0)
(-0.106154 0.0298764 0)
(-0.104986 0.0109326 0)
(-0.104363 -0.00727618 0)
(-0.10305 -0.0263198 0)
(-0.102938 -0.0446698 0)
(-0.1019 -0.0654313 0)
(-0.102855 -0.0853563 0)
(-0.102237 -0.109801 0)
(-0.104672 -0.132426 0)
(-0.10498 -0.162748 0)
(-0.110538 -0.190767 0)
(-0.114391 -0.233521 0)
(-0.122328 -0.270933 0)
(-0.118687 -0.309723 0)
(-0.0942372 -0.273288 0)
(-0.0364161 -0.113893 0)
(-0.00512173 0.0791209 0)
(-0.0261593 0.141993 0)
(-0.0491 0.18984 0)
(-0.0671568 0.224046 0)
(-0.0807482 0.236769 0)
(-0.0869587 0.227676 0)
(-0.0892922 0.205601 0)
(-0.0891039 0.179814 0)
(-0.0888643 0.154573 0)
(-0.0885202 0.131123 0)
(-0.0889513 0.109496 0)
(-0.089044 0.0886452 0)
(-0.0894154 0.0685202 0)
(-0.0890539 0.0485887 0)
(-0.0889573 0.0294236 0)
(-0.0880144 0.0102252 0)
(-0.087787 -0.00794936 0)
(-0.0865816 -0.0270135 0)
(-0.0868284 -0.0450073 0)
(-0.0857022 -0.065625 0)
(-0.0869464 -0.0849829 0)
(-0.0858911 -0.109295 0)
(-0.0883056 -0.131115 0)
(-0.0871983 -0.160942 0)
(-0.0916114 -0.186813 0)
(-0.092757 -0.228548 0)
(-0.100834 -0.267141 0)
(-0.0996691 -0.319323 0)
(-0.0839644 -0.308916 0)
(-0.0344187 -0.176509 0)
(-0.0027833 0.0925073 0)
(-0.019253 0.161234 0)
(-0.0373363 0.207254 0)
(-0.0510772 0.236694 0)
(-0.0612393 0.24408 0)
(-0.0656288 0.230076 0)
(-0.0677554 0.205562 0)
(-0.0681325 0.17893 0)
(-0.0688483 0.15391 0)
(-0.0693522 0.130874 0)
(-0.0704514 0.109518 0)
(-0.0709544 0.0886261 0)
(-0.0717259 0.0683797 0)
(-0.0716053 0.0481905 0)
(-0.0719166 0.0289137 0)
(-0.0711897 0.00954349 0)
(-0.0714287 -0.00852401 0)
(-0.0703604 -0.0275907 0)
(-0.0710864 -0.0452274 0)
(-0.0699257 -0.0657646 0)
(-0.0716487 -0.0846697 0)
(-0.0702911 -0.109068 0)
(-0.0730599 -0.130426 0)
(-0.0709375 -0.160246 0)
(-0.0749008 -0.184417 0)
(-0.0736065 -0.225043 0)
(-0.0816337 -0.263309 0)
(-0.0814932 -0.326238 0)
(-0.0730409 -0.338787 0)
(-0.0308761 -0.232546 0)
(-0.000270635 0.101281 0)
(-0.0114868 0.176604 0)
(-0.0247125 0.221578 0)
(-0.0345721 0.248001 0)
(-0.0418745 0.251378 0)
(-0.0451574 0.234401 0)
(-0.0472416 0.208227 0)
(-0.0481513 0.181043 0)
(-0.0494497 0.155913 0)
(-0.0504212 0.132815 0)
(-0.0518394 0.111242 0)
(-0.0525453 0.0899562 0)
(-0.0536199 0.0693495 0)
(-0.0537162 0.0487343 0)
(-0.0544957 0.0292384 0)
(-0.0540372 0.00958128 0)
(-0.0548712 -0.00846875 0)
(-0.0540068 -0.0276499 0)
(-0.0553643 -0.0450089 0)
(-0.0542191 -0.0655334 0)
(-0.0566031 -0.0840187 0)
(-0.0550633 -0.108565 0)
(-0.0585916 -0.129676 0)
(-0.0559274 -0.159999 0)
(-0.0602449 -0.183248 0)
(-0.0569132 -0.222768 0)
(-0.0646387 -0.258511 0)
(-0.0640028 -0.327791 0)
(-0.0620606 -0.359586 0)
(-0.0267104 -0.28069 0)
(0.00237957 0.104324 0)
(-0.00337006 0.18555 0)
(-0.0115483 0.230221 0)
(-0.0178238 0.25374 0)
(-0.0227431 0.254614 0)
(-0.0252271 0.235428 0)
(-0.0275202 0.208467 0)
(-0.0288847 0.181005 0)
(-0.0306727 0.156063 0)
(-0.0318641 0.133086 0)
(-0.0334626 0.111573 0)
(-0.0342079 0.0902051 0)
(-0.0355229 0.0695649 0)
(-0.0357488 0.04882 0)
(-0.0369962 0.0293579 0)
(-0.0367666 0.00959981 0)
(-0.0382568 -0.00829987 0)
(-0.0375963 -0.0275316 0)
(-0.0397097 -0.0445933 0)
(-0.0386014 -0.0651143 0)
(-0.0418001 -0.0831951 0)
(-0.0400842 -0.107863 0)
(-0.0445987 -0.128695 0)
(-0.0415896 -0.159577 0)
(-0.0470426 -0.182404 0)
(-0.0425569 -0.2217 0)
(-0.0509755 -0.255271 0)
(-0.0495936 -0.328897 0)
(-0.0530927 -0.375804 0)
(-0.0229308 -0.321723 0)
(0.00473963 0.102455 0)
(0.00471947 0.190472 0)
(0.00137664 0.236051 0)
(-0.00153005 0.259213 0)
(-0.00414128 0.258896 0)
(-0.0059413 0.239373 0)
(-0.00814272 0.212037 0)
(-0.00974066 0.18433 0)
(-0.0116488 0.159065 0)
(-0.0128184 0.135692 0)
(-0.0144218 0.113806 0)
(-0.0150971 0.0920367 0)
(-0.0166328 0.0711627 0)
(-0.0169506 0.0501226 0)
(-0.0187228 0.0305945 0)
(-0.0187173 0.0106238 0)
(-0.0209781 -0.00720295 0)
(-0.0205431 -0.0265822 0)
(-0.0235838 -0.0434321 0)
(-0.0225633 -0.0640293 0)
(-0.0268076 -0.0817763 0)
(-0.024988 -0.106589 0)
(-0.0307769 -0.127189 0)
(-0.0275358 -0.158622 0)
(-0.0345938 -0.181146 0)
(-0.0292984 -0.220053 0)
(-0.0390795 -0.250453 0)
(-0.0368083 -0.326088 0)
(-0.0457053 -0.38573 0)
(-0.0196954 -0.357151 0)
(0.00688118 0.0949697 0)
(0.0123318 0.188648 0)
(0.0139361 0.236456 0)
(0.0142275 0.259066 0)
(0.0136911 0.259014 0)
(0.0126799 0.23935 0)
(0.0104813 0.212188 0)
(0.00879458 0.184321 0)
(0.00674588 0.159035 0)
(0.00573447 0.135609 0)
(0.00416866 0.113807 0)
(0.00372757 0.0921243 0)
(0.00205764 0.0714762 0)
(0.00182384 0.0505559 0)
(-0.000398806 0.0313087 0)
(-0.000461161 0.0114064 0)
(-0.00347918 -0.00613499 0)
(-0.00316775 -0.0254999 0)
(-0.00721656 -0.0420442 0)
(-0.00624259 -0.0626348 0)
(-0.0117037 -0.0800076 0)
(-0.00978077 -0.104851 0)
(-0.0171055 -0.125114 0)
(-0.0137255 -0.156939 0)
(-0.0229372 -0.179378 0)
(-0.0173318 -0.218539 0)
(-0.0293617 -0.246531 0)
(-0.0261669 -0.32297 0)
(-0.0400435 -0.392168 0)
(-0.0168177 -0.387655 0)
(0.0082035 0.08348 0)
(0.0192424 0.183262 0)
(0.025583 0.234285 0)
(0.0292288 0.259445 0)
(0.0311537 0.260608 0)
(0.0312169 0.242748 0)
(0.0295746 0.216126 0)
(0.028027 0.188184 0)
(0.0260919 0.162371 0)
(0.0253381 0.138328 0)
(0.0238602 0.116126 0)
(0.0237194 0.0941198 0)
(0.0218975 0.0734516 0)
(0.0218219 0.0524287 0)
(0.0190941 0.0333527 0)
(0.0190356 0.0134019 0)
(0.0151609 -0.00391388 0)
(0.0154036 -0.0233283 0)
(0.0101804 -0.0396228 0)
(0.0111194 -0.0602454 0)
(0.00420066 -0.0773018 0)
(0.00620129 -0.102155 0)
(-0.00294708 -0.122061 0)
(0.000561801 -0.15404 0)
(-0.0111681 -0.176139 0)
(-0.00540742 -0.215113 0)
(-0.0204829 -0.24024 0)
(-0.0165035 -0.316437 0)
(-0.0356965 -0.394085 0)
(-0.0142553 -0.414587 0)
(0.00870056 0.0676421 0)
(0.0246599 0.170861 0)
(0.0359562 0.226524 0)
(0.0429469 0.253208 0)
(0.0471894 0.257051 0)
(0.0486707 0.240762 0)
(0.047513 0.215336 0)
(0.04633 0.187537 0)
(0.0444198 0.161659 0)
(0.0440606 0.1375 0)
(0.0426871 0.115437 0)
(0.043075 0.0936826 0)
(0.0412301 0.073504 0)
(0.0416049 0.0528688 0)
(0.0385197 0.0343656 0)
(0.0387517 0.0147434 0)
(0.034103 -0.00206493 0)
(0.0345097 -0.0212543 0)
(0.0280933 -0.0371199 0)
(0.0291425 -0.0575744 0)
(0.0206269 -0.0741975 0)
(0.0227462 -0.0988562 0)
(0.0115058 -0.118273 0)
(0.0150831 -0.150131 0)
(0.000412927 -0.171893 0)
(0.00612538 -0.210884 0)
(-0.0126791 -0.233826 0)
(-0.00783162 -0.309125 0)
(-0.0324858 -0.393165 0)
(-0.0117159 -0.43827 0)
(0.00731837 0.0504178 0)
(0.0282714 0.155818 0)
(0.0443311 0.216208 0)
(0.05527 0.248197 0)
(0.0627174 0.255097 0)
(0.0662977 0.242552 0)
(0.0665812 0.218742 0)
(0.0661623 0.191352 0)
(0.0645752 0.164981 0)
(0.0646584 0.14005 0)
(0.0633328 0.117543 0)
(0.0642499 0.0954576 0)
(0.0622841 0.0754467 0)
(0.0631805 0.0548867 0)
(0.059642 0.0368331 0)
(0.0602951 0.0174093 0)
(0.0547538 0.00108077 0)
(0.0554629 -0.0179117 0)
(0.047689 -0.0333392 0)
(0.0489494 -0.0536005 0)
(0.0386084 -0.0697707 0)
(0.0408806 -0.0941403 0)
(0.0272453 -0.112979 0)
(0.0308695 -0.144393 0)
(0.0128513 -0.165448 0)
(0.0183868 -0.203843 0)
(-0.00496495 -0.224392 0)
(0.00061171 -0.298361 0)
(-0.0301861 -0.388612 0)
(-0.00909274 -0.459542 0)
(0.00431333 0.0321499 0)
(0.0287953 0.133311 0)
(0.0500058 0.199592 0)
(0.0648998 0.234405 0)
(0.075296 0.246084 0)
(0.0815093 0.236605 0)
(0.0832416 0.215503 0)
(0.0841997 0.189177 0)
(0.0830536 0.163186 0)
(0.0839956 0.138281 0)
(0.0828143 0.11596 0)
(0.0846267 0.0941856 0)
(0.082671 0.0748156 0)
(0.084498 0.0548668 0)
(0.0806426 0.0376381 0)
(0.0821305 0.0188696 0)
(0.0757973 0.00331795 0)
(0.0771746 -0.015103 0)
(0.0680816 -0.0298552 0)
(0.0698174 -0.0496055 0)
(0.0575782 -0.0651148 0)
(0.0601068 -0.0888646 0)
(0.0438416 -0.1069 0)
(0.0474393 -0.137444 0)
(0.0256752 -0.157616 0)
(0.0308939 -0.195202 0)
(0.00236337 -0.213904 0)
(0.00880972 -0.286137 0)
(-0.0287163 -0.38151 0)
(-0.00611295 -0.478473 0)
(7.50402e-05 0.0177418 0)
(0.0263636 0.110021 0)
(0.0522064 0.180421 0)
(0.0717832 0.222953 0)
(0.0865663 0.238762 0)
(0.0964496 0.234693 0)
(0.101181 0.216423 0)
(0.104322 0.191533 0)
(0.104275 0.165659 0)
(0.106294 0.140156 0)
(0.105255 0.117492 0)
(0.107933 0.0953379 0)
(0.10579 0.0762658 0)
(0.108582 0.0565174 0)
(0.104217 0.0400068 0)
(0.106692 0.0217105 0)
(0.0993994 0.00698013 0)
(0.101645 -0.0109128 0)
(0.0910483 -0.0248622 0)
(0.0934241 -0.0440332 0)
(0.0790376 -0.0586993 0)
(0.0818884 -0.0816343 0)
(0.0626445 -0.098612 0)
(0.0661404 -0.127869 0)
(0.0401289 -0.146726 0)
(0.0448077 -0.182773 0)
(0.0102332 -0.199627 0)
(0.017464 -0.269941 0)
(-0.0278409 -0.371139 0)
(-0.0025367 -0.495461 0)
(-0.00192222 0.00579616 0)
(0.020861 0.0804146 0)
(0.0506164 0.154282 0)
(0.0739322 0.199392 0)
(0.0919414 0.221533 0)
(0.106036 0.221489 0)
(0.113786 0.207775 0)
(0.120509 0.185576 0)
(0.122305 0.161397 0)
(0.126672 0.136695 0)
(0.126269 0.114601 0)
(0.130679 0.0929376 0)
(0.128495 0.0745676 0)
(0.132907 0.0556212 0)
(0.128031 0.040057 0)
(0.132045 0.0227445 0)
(0.123771 0.00903566 0)
(0.127352 -0.00785234 0)
(0.115232 -0.0207805 0)
(0.118594 -0.0389072 0)
(0.101996 -0.0524682 0)
(0.105315 -0.0740849 0)
(0.0828696 -0.0896584 0)
(0.0861335 -0.116999 0)
(0.0554404 -0.134197 0)
(0.059338 -0.168129 0)
(0.0180915 -0.183692 0)
(0.0262515 -0.251631 0)
(-0.0276728 -0.358444 0)
(0.00194548 -0.510346 0)
(-0.00221526 -0.000663091 0)
(0.0140457 0.0575224 0)
(0.044265 0.127868 0)
(0.0715456 0.181818 0)
(0.0946634 0.207011 0)
(0.113986 0.212896 0)
(0.126713 0.202444 0)
(0.138076 0.18287 0)
(0.142904 0.160154 0)
(0.150321 0.135872 0)
(0.15104 0.114267 0)
(0.157484 0.0926524 0)
(0.155275 0.0749357 0)
(0.161417 0.0564009 0)
(0.155897 0.0418878 0)
(0.161543 0.0252659 0)
(0.152128 0.0128383 0)
(0.157155 -0.00322654 0)
(0.143292 -0.0147481 0)
(0.147718 -0.0318487 0)
(0.12854 -0.04379 0)
(0.132296 -0.0638441 0)
(0.106095 -0.0773685 0)
(0.109009 -0.102247 0)
(0.0729883 -0.117137 0)
(0.0759598 -0.148136 0)
(0.0272714 -0.162642 0)
(0.0366277 -0.228104 0)
(-0.0272182 -0.342543 0)
(0.00800728 -0.522949 0)
(0.00144852 -0.00613708 0)
(0.009203 0.0329229 0)
(0.0338944 0.0968291 0)
(0.0620859 0.147957 0)
(0.0861999 0.179232 0)
(0.111294 0.188598 0)
(0.128609 0.183989 0)
(0.146989 0.168665 0)
(0.156209 0.149587 0)
(0.16929 0.127776 0)
(0.17225 0.107968 0)
(0.18282 0.0878045 0)
(0.180966 0.0712411 0)
(0.190274 0.0539888 0)
(0.183962 0.0406145 0)
(0.192222 0.0253838 0)
(0.181272 0.0142074 0)
(0.188453 -0.000300267 0)
(0.172393 -0.010414 0)
(0.178401 -0.0256595 0)
(0.156233 -0.0358843 0)
(0.160795 -0.0535011 0)
(0.130524 -0.0648131 0)
(0.133283 -0.0864091 0)
(0.0915942 -0.0988409 0)
(0.0935623 -0.126228 0)
(0.0371369 -0.140678 0)
(0.0476606 -0.202889 0)
(-0.0265625 -0.324996 0)
(0.0161922 -0.532323 0)
(0.000205173 -0.0111638 0)
(0.00327116 0.0260027 0)
(0.0186202 0.0754393 0)
(0.0464577 0.130369 0)
(0.0749641 0.158148 0)
(0.105637 0.170614 0)
(0.129215 0.167383 0)
(0.154782 0.15494 0)
(0.16937 0.138762 0)
(0.188885 0.119272 0)
(0.194974 0.101797 0)
(0.210347 0.0832594 0)
(0.209653 0.068653 0)
(0.222386 0.0526416 0)
(0.215905 0.0412323 0)
(0.226679 0.027091 0)
(0.21461 0.0180551 0)
(0.223659 0.00464641 0)
(0.205555 -0.00302901 0)
(0.212851 -0.0168945 0)
(0.187463 -0.0241755 0)
(0.192696 -0.0396324 0)
(0.157616 -0.0472618 0)
(0.16049 -0.0653239 0)
(0.112075 -0.0737255 0)
(0.11449 -0.0968262 0)
(0.0499698 -0.111072 0)
(0.0643187 -0.169828 0)
(-0.0205795 -0.303393 0)
(0.0288403 -0.536594 0)
(0.00513787 -0.00938806 0)
(0.00594067 0.0130902 0)
(-0.000889257 0.0536319 0)
(0.0209624 0.089939 0)
(0.0437431 0.12011 0)
(0.0817371 0.133 0)
(0.110077 0.135319 0)
(0.146192 0.127487 0)
(0.166636 0.116222 0)
(0.195935 0.101158 0)
(0.205864 0.0873138 0)
(0.229055 0.0720092 0)
(0.229693 0.0600092 0)
(0.248497 0.0465133 0)
(0.241201 0.0371366 0)
(0.256901 0.0253475 0)
(0.242275 0.0180862 0)
(0.255591 0.00728583 0)
(0.233446 0.00135736 0)
(0.24464 -0.00925184 0)
(0.213946 -0.0145826 0)
(0.222934 -0.0257579 0)
(0.181702 -0.0311209 0)
(0.18856 -0.0438849 0)
(0.133918 -0.0506133 0)
(0.140916 -0.0691701 0)
(0.0698992 -0.0865522 0)
(0.0875632 -0.141361 0)
(-0.007161 -0.282748 0)
(0.0471961 -0.530205 0)
(-0.0248597 -0.0242958 0)
(-0.0247373 0.0345778 0)
(-0.0213251 0.060581 0)
(-0.0104704 0.0881844 0)
(0.0196652 0.0978783 0)
(0.0607289 0.104827 0)
(0.0945598 0.103685 0)
(0.138236 0.0978821 0)
(0.163802 0.0901581 0)
(0.200939 0.07922 0)
(0.214606 0.0700161 0)
(0.244406 0.0585632 0)
(0.24686 0.050674 0)
(0.27092 0.0402374 0)
(0.263619 0.0344295 0)
(0.283661 0.0250186 0)
(0.267532 0.0211559 0)
(0.284904 0.0122721 0)
(0.260027 0.0100077 0)
(0.275752 0.00107617 0)
(0.241221 0.000102428 0)
(0.256253 -0.00939018 0)
(0.20997 -0.00943801 0)
(0.225758 -0.0201885 0)
(0.164209 -0.0209726 0)
(0.18404 -0.0364829 0)
(0.103339 -0.0496822 0)
(0.136185 -0.0993883 0)
(0.0385361 -0.246528 0)
(0.0826504 -0.501367 0)
(-0.0868504 0.0465243 0)
(-0.090084 0.00678937 0)
(-0.12214 0.039512 0)
(-0.0771778 0.044964 0)
(-0.0558061 0.0485464 0)
(0.00296967 0.0559421 0)
(0.0372466 0.0583897 0)
(0.0944213 0.0569026 0)
(0.121456 0.0544461 0)
(0.172118 0.0490784 0)
(0.186007 0.0447513 0)
(0.230265 0.0383514 0)
(0.230951 0.034313 0)
(0.270782 0.0282164 0)
(0.259453 0.0251831 0)
(0.297241 0.0197658 0)
(0.274652 0.0176739 0)
(0.312683 0.0129737 0)
(0.278757 0.0114432 0)
(0.319175 0.00751584 0)
(0.273013 0.00598902 0)
(0.317971 0.00303991 0)
(0.258017 0.000611589 0)
(0.309801 -0.00159226 0)
(0.234174 -0.00753639 0)
(0.294694 -0.0144778 0)
(0.20134 -0.0379987 0)
(0.267092 -0.0894262 0)
(0.143737 -0.224316 0)
(0.13839 -0.429749 0)
(0.0791465 0.138274 0)
(0.117496 0.0755999 0)
(0.153478 0.0486031 0)
(0.206523 0.0265536 0)
(0.222935 0.0187062 0)
(0.273166 0.0128756 0)
(0.290078 0.0128765 0)
(0.345228 0.0129301 0)
(0.358783 0.0134378 0)
(0.414266 0.0134828 0)
(0.420241 0.0131598 0)
(0.473347 0.0124934 0)
(0.469873 0.011668 0)
(0.520451 0.0106673 0)
(0.507398 0.00970463 0)
(0.556511 0.00865487 0)
(0.534278 0.0077475 0)
(0.583266 0.00672307 0)
(0.552201 0.00600284 0)
(0.602299 0.00487858 0)
(0.562518 0.00455221 0)
(0.614741 0.00290158 0)
(0.565954 0.0033703 0)
(0.620847 -2.02864e-05 0)
(0.561069 0.00164038 0)
(0.616464 -0.0075521 0)
(0.533433 -0.00715102 0)
(0.569067 -0.039577 0)
(0.392135 -0.0641943 0)
(0.289169 -0.196063 0)
)
;

boundaryField
{
    movingWall
    {
        type            fixedValue;
        value           uniform (1 0 0);
    }
    fixedWalls
    {
        type            noSlip;
    }
    frontAndBack
    {
        type            empty;
    }
}


// ************************************************************************* //
