/*--------------------------------*- C++ -*----------------------------------*\
| =========                 |                                                 |
| \\      /  F ield         | OpenFOAM: The Open Source CFD Toolbox           |
|  \\    /   O peration     | Version:  2406                                  |
|   \\  /    A nd           | Website:  www.openfoam.com                      |
|    \\/     M anipulation  |                                                 |
\*---------------------------------------------------------------------------*/
FoamFile
{
    version     2.0;
    format      ascii;
    arch        "LSB;label=32;scalar=64";
    class       volScalarField;
    location    "65";
    object      p;
}
// * * * * * * * * * * * * * * * * * * * * * * * * * * * * * * * * * * * * * //

dimensions      [0 2 -2 0 0 0 0];

internalField   nonuniform List<scalar> 
4096
(
1.39209e-07
2.48628e-05
2.85087e-05
3.77249e-06
-5.10623e-05
-0.000130661
-0.000226655
-0.000332103
-0.000443696
-0.00056216
-0.000691663
-0.000838305
-0.00100899
-0.00121016
-0.00144744
-0.00172556
-0.00204842
-0.00241883
-0.00283772
-0.00330338
-0.0038097
-0.00434535
-0.00489241
-0.00542611
-0.00591547
-0.00632489
-0.00661669
-0.00675411
-0.00670456
-0.0064427
-0.00595324
-0.00523323
-0.00429379
-0.00316019
-0.00186963
-0.000489615
0.000898984
0.00220307
0.00332221
0.00415732
0.00462217
0.00465721
0.00424188
0.00338691
0.00217169
0.000695722
-0.000914045
-0.00252506
-0.00402494
-0.00533333
-0.00640369
-0.0072273
-0.0078214
-0.00822119
-0.00846956
-0.00860855
-0.00867412
-0.00869394
-0.00868748
-0.00866703
-0.00863929
-0.00860744
-0.00857488
-0.00854595
-2.18182e-05
3.45128e-06
5.62942e-06
-2.01105e-05
-7.34685e-05
-0.000148883
-0.000238675
-0.00033672
-0.000440366
-0.000550592
-0.000671395
-0.000808579
-0.00096827
-0.00115616
-0.00137733
-0.00163618
-0.00193698
-0.00228313
-0.00267649
-0.00311635
-0.00359804
-0.00411229
-0.0046449
-0.00517613
-0.00567969
-0.00612234
-0.00646522
-0.0066673
-0.00668997
-0.00650181
-0.00608299
-0.00542764
-0.00454196
-0.00344241
-0.00218207
-0.000825669
0.000548454
0.00184645
0.00296608
0.00380594
0.00427742
0.00431858
0.00390639
0.00305805
0.00183264
0.000349173
-0.0012613
-0.00285644
-0.00432053
-0.00557131
-0.00657635
-0.00732694
-0.00784959
-0.00819078
-0.00839956
-0.00851797
-0.00857815
-0.00860285
-0.00860688
-0.00859928
-0.00858486
-0.00856532
-0.00854068
-0.00851206
-3.01987e-05
-1.63926e-06
-3.11528e-07
-2.93542e-05
-8.54588e-05
-0.000160968
-0.00024728
-0.000338315
-0.00043213
-0.000530633
-0.000638641
-0.000762239
-0.000907633
-0.00108009
-0.00128529
-0.0015283
-0.00181487
-0.00215089
-0.00254182
-0.00299182
-0.00350208
-0.00406773
-0.00467446
-0.00529713
-0.00590114
-0.00644546
-0.00688608
-0.00717947
-0.00728605
-0.00717355
-0.00682001
-0.0062161
-0.00536698
-0.00429814
-0.00306258
-0.00171943
-0.000345783
0.000965774
0.00211282
0.00299225
0.00351186
0.00360417
0.00323928
0.00243137
0.00124309
-0.000214502
-0.00181783
-0.00339913
-0.00484179
-0.00605461
-0.00699177
-0.00766995
-0.0081133
-0.00837412
-0.00851047
-0.00857069
-0.00858928
-0.00858783
-0.00857838
-0.00856659
-0.00855398
-0.00853887
-0.00851612
-0.00848322
-1.92122e-05
1.22307e-05
1.0901e-05
-2.50652e-05
-8.83974e-05
-0.000167861
-0.000252822
-0.000336979
-0.000419279
-0.000503205
-0.000595372
-0.000703021
-0.000833839
-0.000994468
-0.00119235
-0.00143648
-0.0017381
-0.00211024
-0.00256548
-0.00311183
-0.00374843
-0.00446305
-0.0052318
-0.0060202
-0.0067857
-0.00748132
-0.00805965
-0.00847639
-0.00869267
-0.00867636
-0.00840335
-0.00786173
-0.00706115
-0.00604048
-0.00483717
-0.00350647
-0.0021223
-0.000773668
0.000439473
0.00141421
0.00205501
0.00228681
0.0020685
0.001403
0.000343045
-0.00101122
-0.00252849
-0.00405519
-0.00546362
-0.00664426
-0.00754879
-0.00816237
-0.00853545
-0.00871764
-0.00877269
-0.00875681
-0.00871085
-0.00865991
-0.0086162
-0.00858326
-0.00855955
-0.0085399
-0.00851414
-0.00847604
1.66585e-05
4.75044e-05
3.92124e-05
-8.43367e-06
-8.31148e-05
-0.00016925
-0.000254007
-0.000331473
-0.000401544
-0.000470757
-0.000548358
-0.000644847
-0.000770642
-0.000937317
-0.00115908
-0.00145374
-0.00184153
-0.0023412
-0.00296475
-0.00371308
-0.00457399
-0.00552239
-0.00652248
-0.00753057
-0.00849839
-0.00937663
-0.0101181
-0.0106805
-0.0110272
-0.011127
-0.0109557
-0.0105033
-0.00978601
-0.0088352
-0.00768372
-0.0063798
-0.00498926
-0.00359322
-0.00228484
-0.00116321
-0.000324816
0.000147802
0.000199531
-0.000184761
-0.000973218
-0.00208568
-0.00340182
-0.00477791
-0.00607658
-0.00718441
-0.00803708
-0.00861882
-0.00894622
-0.00907957
-0.00908019
-0.00900609
-0.00890298
-0.00880107
-0.00871602
-0.00865269
-0.00860914
-0.00857841
-0.00854718
-0.00850632
8.37103e-05
0.000109264
8.89185e-05
2.48801e-05
-6.44215e-05
-0.000159048
-0.00024511
-0.000316762
-0.000376886
-0.000437086
-0.000510246
-0.000612301
-0.000761339
-0.000978869
-0.00129033
-0.00172287
-0.00230029
-0.00303701
-0.00393382
-0.0049766
-0.00613746
-0.00737777
-0.00865179
-0.00991004
-0.0111022
-0.0121797
-0.0130981
-0.0138186
-0.0143081
-0.0145387
-0.0144893
-0.0141534
-0.0135473
-0.0126935
-0.0116188
-0.0103637
-0.00898312
-0.00754677
-0.00613651
-0.00484281
-0.00375823
-0.0029679
-0.00253823
-0.0025056
-0.00286685
-0.00357277
-0.00453067
-0.00561695
-0.00669925
-0.00766026
-0.00842058
-0.00894771
-0.00924739
-0.00935855
-0.00933796
-0.00923847
-0.009105
-0.00897022
-0.00885343
-0.00876289
-0.0086988
-0.00865515
-0.00861834
-0.00857781
0.000190309
0.000205227
0.000167878
8.36378e-05
-2.23852e-05
-0.000126503
-0.000215831
-0.00028603
-0.000345896
-0.000411522
-0.000503999
-0.000649141
-0.000877399
-0.00122311
-0.00172096
-0.00239971
-0.00327556
-0.00434813
-0.0055998
-0.00699851
-0.00850187
-0.010061
-0.0116238
-0.0131382
-0.0145543
-0.0158268
-0.0169157
-0.0177875
-0.0184148
-0.0187764
-0.0188584
-0.0186571
-0.018181
-0.0174452
-0.0164722
-0.0152945
-0.0139554
-0.0125101
-0.0110246
-0.00957445
-0.00824133
-0.00710664
-0.00624323
-0.00570478
-0.00551489
-0.00566143
-0.0060935
-0.00672412
-0.00744432
-0.00814405
-0.00873477
-0.00916438
-0.00941979
-0.00951942
-0.00949774
-0.00940088
-0.00926641
-0.00912495
-0.00899625
-0.0088916
-0.00881448
-0.00876169
-0.00872193
-0.00868493
0.000346391
0.000345063
0.000286538
0.000179445
5.52497e-05
-6.21963e-05
-0.000157697
-0.000236675
-0.00031379
-0.000413873
-0.000569903
-0.0008217
-0.00121348
-0.00178855
-0.00258149
-0.00361064
-0.00487407
-0.0063502
-0.00800189
-0.00978102
-0.0116333
-0.0135027
-0.0153345
-0.0170773
-0.0186855
-0.0201193
-0.0213456
-0.0223376
-0.0230757
-0.0235473
-0.023747
-0.0236741
-0.0233297
-0.0227221
-0.02187
-0.0207994
-0.0195426
-0.0181399
-0.0166393
-0.0150969
-0.013576
-0.0121446
-0.0108704
-0.00981456
-0.00902298
-0.00851764
-0.0082907
-0.00830519
-0.00849705
-0.00878509
-0.00908769
-0.00933988
-0.00950427
-0.00957198
-0.00955544
-0.00947788
-0.00936236
-0.00923771
-0.00911854
-0.00901702
-0.00893921
-0.00888503
-0.00884681
-0.00881591
0.000561772
0.00053911
0.000456313
0.000324676
0.000181368
4.95183e-05
-6.46406e-05
-0.000171744
-0.000297366
-0.000479584
-0.000766462
-0.00121209
-0.0018693
-0.00277979
-0.00396519
-0.0054228
-0.00712713
-0.00903458
-0.0110898
-0.0132316
-0.0153983
-0.0175313
-0.0195775
-0.0214909
-0.023233
-0.0247724
-0.0260847
-0.0271513
-0.0279607
-0.0285085
-0.0287964
-0.0288267
-0.0285959
-0.0281084
-0.0273812
-0.026435
-0.025293
-0.0239825
-0.0225348
-0.0209865
-0.0193796
-0.017761
-0.016182
-0.0146957
-0.0133533
-0.012199
-0.0112633
-0.010558
-0.0100746
-0.00978516
-0.00964339
-0.00959346
-0.00958242
-0.00957077
-0.009537
-0.00947694
-0.00939411
-0.00930035
-0.00920756
-0.00912524
-0.00905988
-0.00901342
-0.0089817
-0.00895835
0.000843408
0.000795575
0.000685572
0.000531143
0.000366688
0.000210163
5.98795e-05
-0.000106296
-0.000328261
-0.00065994
-0.00116404
-0.00190302
-0.00292696
-0.00426247
-0.00590752
-0.007833
-0.00998849
-0.0123103
-0.0147292
-0.0171767
-0.0195891
-0.0219111
-0.0240963
-0.0261076
-0.0279165
-0.0295016
-0.0308476
-0.0319443
-0.0327872
-0.0333773
-0.0337204
-0.0338207
-0.0336757
-0.03329
-0.0326782
-0.0318562
-0.0308406
-0.0296491
-0.0283012
-0.0268177
-0.0252219
-0.0235393
-0.0217994
-0.0200359
-0.0182877
-0.0165984
-0.0150157
-0.0135878
-0.0123586
-0.0113602
-0.0106082
-0.0100916
-0.00977171
-0.00959182
-0.0094932
-0.00942965
-0.00937609
-0.00931975
-0.00926401
-0.00921261
-0.00917055
-0.00913994
-0.00911883
-0.00910323
0.00119214
0.00111572
0.000980392
0.00080292
0.000611056
0.000414497
0.000199739
-7.06831e-05
-0.000453173
-0.00101671
-0.00183256
-0.00295995
-0.00443229
-0.00625011
-0.00838182
-0.0107705
-0.0133437
-0.0160233
-0.0187328
-0.0214032
-0.023976
-0.0264044
-0.0286526
-0.030695
-0.0325138
-0.0340973
-0.0354387
-0.0365344
-0.0373848
-0.0379939
-0.0383685
-0.0385137
-0.0384314
-0.0381275
-0.0376129
-0.0368998
-0.0360006
-0.0349278
-0.0336931
-0.0323079
-0.0307822
-0.0291258
-0.0273488
-0.0254637
-0.0234878
-0.0214475
-0.0193817
-0.0173462
-0.0154132
-0.0136665
-0.0121872
-0.0110367
-0.0102339
-0.0097439
-0.00948931
-0.00937785
-0.00933288
-0.00931307
-0.00929803
-0.00928429
-0.00927245
-0.00926335
-0.00925543
-0.00924675
0.00159915
0.00149453
0.00133433
0.00113253
0.000901881
0.000641556
0.000322228
-0.000110771
-0.000729508
-0.00161226
-0.00282753
-0.00441727
-0.00638682
-0.00870408
-0.0113066
-0.0141135
-0.0170369
-0.0199919
-0.022903
-0.0257082
-0.0283596
-0.0308229
-0.0330749
-0.0351012
-0.0368939
-0.0384492
-0.0397663
-0.0408463
-0.0416925
-0.0423099
-0.0427047
-0.0428823
-0.042847
-0.0426057
-0.0421674
-0.0415419
-0.0407388
-0.0397674
-0.0386355
-0.0373491
-0.0359114
-0.034323
-0.032582
-0.0306849
-0.0286295
-0.0264198
-0.0240719
-0.0216237
-0.019142
-0.0167275
-0.0145083
-0.0126182
-0.0111624
-0.010179
-0.00962117
-0.00937388
-0.00930224
-0.00930389
-0.0093264
-0.00935124
-0.0093724
-0.00938738
-0.00939358
-0.00939047
0.00204314
0.0019132
0.0017314
0.00149617
0.00120906
0.000852264
0.000378311
-0.000283905
-0.00121702
-0.00249814
-0.00417922
-0.00627309
-0.00874991
-0.0115436
-0.0145651
-0.0177168
-0.0209042
-0.0240445
-0.027071
-0.0299344
-0.0326009
-0.0350497
-0.0372694
-0.0392554
-0.0410069
-0.0425254
-0.0438137
-0.0448754
-0.0457151
-0.0463375
-0.0467479
-0.0469513
-0.0469537
-0.0467617
-0.0463827
-0.0458247
-0.0450957
-0.0442031
-0.043153
-0.041949
-0.0405915
-0.0390774
-0.0373987
-0.0355439
-0.0334988
-0.0312499
-0.0287907
-0.0261311
-0.0233099
-0.0204088
-0.0175596
-0.0149376
-0.0127295
-0.0110781
-0.0100263
-0.009496
-0.00931915
-0.009315
-0.00936691
-0.00942732
-0.00948053
-0.00951952
-0.00953947
-0.00954074
0.00248729
0.00233731
0.00212937
0.00185161
0.00148448
0.000991349
0.000307311
-0.000651056
-0.00196782
-0.00370594
-0.00588864
-0.00849197
-0.0114489
-0.0146636
-0.0180284
-0.0214381
-0.0248011
-0.0280447
-0.0311165
-0.0339826
-0.0366239
-0.0390317
-0.0412042
-0.0431433
-0.0448529
-0.0463374
-0.0476011
-0.0486487
-0.0494845
-0.050113
-0.0505382
-0.0507648
-0.0507988
-0.0506463
-0.0503134
-0.0498069
-0.0491334
-0.0482991
-0.0473091
-0.0461662
-0.0448705
-0.043418
-0.0417997
-0.0400017
-0.0380049
-0.035787
-0.033326
-0.0306083
-0.02764
-0.0244646
-0.0211814
-0.0179571
-0.0150168
-0.0125981
-0.0108706
-0.00986192
-0.00944066
-0.00937147
-0.00943564
-0.00952593
-0.00960808
-0.00966949
-0.00970225
-0.00970749
0.00288328
0.00271594
0.00247735
0.00214194
0.00166583
0.000993401
4.51609e-05
-0.00126725
-0.00301778
-0.00524306
-0.00792952
-0.0110133
-0.014394
-0.0179539
-0.0215761
-0.0251581
-0.0286187
-0.0319009
-0.034969
-0.0378046
-0.0404011
-0.0427593
-0.0448836
-0.04678
-0.0484546
-0.0499128
-0.0511593
-0.0521986
-0.0530346
-0.0536709
-0.0541111
-0.0543593
-0.0544207
-0.0543007
-0.0540044
-0.0535374
-0.0529055
-0.0521138
-0.0511666
-0.0500665
-0.0488138
-0.0474052
-0.0458332
-0.044085
-0.042142
-0.0399798
-0.0375699
-0.0348845
-0.0319046
-0.0286355
-0.0251287
-0.0215054
-0.0179726
-0.0148089
-0.0122987
-0.0106198
-0.00975867
-0.00950494
-0.00954672
-0.009658
-0.00976515
-0.00984762
-0.00989263
-0.00990255
0.0031692
0.00298375
0.00270975
0.00229914
0.00168394
0.000791759
-0.000465974
-0.00217294
-0.00438153
-0.00709358
-0.0102544
-0.0137628
-0.0174924
-0.0213133
-0.0251095
-0.0287887
-0.0322861
-0.0355623
-0.0385979
-0.0413877
-0.0439344
-0.046245
-0.0483277
-0.05019
-0.0518385
-0.0532787
-0.0545149
-0.055551
-0.0563902
-0.0570358
-0.0574908
-0.0577589
-0.0578442
-0.0577514
-0.0574849
-0.0570493
-0.0564494
-0.0556895
-0.0547731
-0.0537027
-0.0524786
-0.0510988
-0.0495578
-0.0478454
-0.0459462
-0.0438383
-0.0414937
-0.0388793
-0.0359623
-0.0327203
-0.0291602
-0.0253453
-0.021426
-0.0176577
-0.014377
-0.0119055
-0.0104012
-0.00977578
-0.0097118
-0.00983103
-0.00995995
-0.0100625
-0.0101212
-0.0101379
0.00327665
0.00307577
0.00275844
0.00225419
0.0014726
0.000328303
-0.00126905
-0.00338845
-0.00605204
-0.00922189
-0.0128028
-0.0166628
-0.020659
-0.0246592
-0.0285562
-0.0322738
-0.0357654
-0.0390088
-0.0419986
-0.044739
-0.0472392
-0.0495094
-0.051559
-0.053396
-0.0550264
-0.0564551
-0.0576859
-0.058722
-0.0595663
-0.0602214
-0.0606903
-0.060976
-0.0610821
-0.0610125
-0.0607708
-0.0603611
-0.059787
-0.0590522
-0.0581593
-0.0571105
-0.0559062
-0.0545452
-0.0530236
-0.0513343
-0.0494654
-0.0474
-0.0451139
-0.0425762
-0.0397498
-0.0365977
-0.033095
-0.0292529
-0.0251529
-0.0209848
-0.0170644
-0.0137895
-0.011498
-0.0102882
-0.00995655
-0.0100508
-0.0101979
-0.0103217
-0.0103976
-0.0104245
0.00314796
0.00293012
0.00256086
0.0019467
0.000978061
-0.000438251
-0.00238639
-0.00491228
-0.00800275
-0.0115786
-0.0155092
-0.0196406
-0.0238229
-0.0279299
-0.0318691
-0.0355826
-0.0390419
-0.0422393
-0.0451797
-0.0478739
-0.0503342
-0.0525719
-0.0545964
-0.056415
-0.058033
-0.0594545
-0.0606827
-0.0617203
-0.0625699
-0.063234
-0.0637151
-0.064016
-0.06414
-0.06409
-0.0638695
-0.0634815
-0.0629293
-0.0622154
-0.0613421
-0.0603108
-0.0591219
-0.0577745
-0.056266
-0.0545914
-0.0527423
-0.0507064
-0.0484654
-0.0459936
-0.0432571
-0.0402149
-0.0368251
-0.0330618
-0.0289448
-0.0245835
-0.0202226
-0.0162531
-0.0131299
-0.0111663
-0.0103523
-0.0103204
-0.010486
-0.0106317
-0.0107305
-0.0107723
0.00273382
0.0024969
0.00206848
0.00133292
0.000166069
-0.00152722
-0.00381765
-0.00672283
-0.0101918
-0.0141068
-0.0183096
-0.0226332
-0.0269292
-0.0310834
-0.0350211
-0.0387027
-0.0421152
-0.0452621
-0.0481551
-0.0508085
-0.0532358
-0.0554478
-0.0574532
-0.0592581
-0.060867
-0.0622834
-0.0635101
-0.0645494
-0.0654038
-0.0660754
-0.0665669
-0.0668807
-0.0670196
-0.0669864
-0.0667839
-0.0664148
-0.0658814
-0.0651859
-0.0643299
-0.0633143
-0.0621393
-0.060804
-0.0593063
-0.0576428
-0.0558076
-0.0537922
-0.0515836
-0.0491628
-0.0465023
-0.0435645
-0.0403033
-0.036672
-0.0326453
-0.0282591
-0.0236664
-0.0191884
-0.0153047
-0.012505
-0.0110154
-0.0106614
-0.0108352
-0.0110016
-0.0111283
-0.0111913
0.0020032
0.00174517
0.00125311
0.000391061
-0.000974338
-0.00293457
-0.00554126
-0.00878159
-0.0125671
-0.0167477
-0.0211454
-0.0255889
-0.0299378
-0.0340935
-0.0379995
-0.0416325
-0.0449917
-0.0480884
-0.0509383
-0.0535566
-0.0559564
-0.0581477
-0.0601376
-0.0619314
-0.0635329
-0.064945
-0.0661701
-0.0672106
-0.0680686
-0.0687463
-0.0692462
-0.0695706
-0.069722
-0.069703
-0.0695159
-0.0691629
-0.0686462
-0.0679672
-0.0671272
-0.0661266
-0.0649653
-0.0636424
-0.062156
-0.0605033
-0.0586801
-0.0566807
-0.0544963
-0.0521137
-0.0495128
-0.0466633
-0.0435229
-0.0400383
-0.0361579
-0.0318618
-0.0272148
-0.0224372
-0.0179545
-0.0143381
-0.012053
-0.01116
-0.0112453
-0.0114458
-0.0116017
-0.0116939
0.000946925
0.000666598
0.000109925
-0.000876801
-0.00243053
-0.00463429
-0.00751807
-0.0110381
-0.015072
-0.0194443
-0.0239658
-0.0284675
-0.0328212
-0.0369454
-0.0408002
-0.0443758
-0.0476802
-0.0507293
-0.0535403
-0.0561281
-0.0585045
-0.0606779
-0.0626545
-0.0644384
-0.0660329
-0.0674405
-0.0686636
-0.0697042
-0.0705646
-0.071247
-0.0717535
-0.0720865
-0.0722482
-0.072241
-0.072067
-0.0717281
-0.071226
-0.070562
-0.0697369
-0.0687509
-0.0676037
-0.0662942
-0.0648205
-0.0631802
-0.0613701
-0.0593858
-0.0572217
-0.0548691
-0.0523144
-0.0495355
-0.0464981
-0.0431524
-0.0394365
-0.0352949
-0.0307222
-0.0258345
-0.0209547
-0.01664
-0.0135244
-0.0119401
-0.011719
-0.0119876
-0.0121656
-0.0122954
-0.000422113
-0.000723969
-0.00134259
-0.00244564
-0.00416856
-0.0065826
-0.00969587
-0.0134349
-0.0176488
-0.0221444
-0.0267281
-0.0312382
-0.0355608
-0.0396311
-0.0434233
-0.0469379
-0.0501885
-0.0531932
-0.055969
-0.0585295
-0.0608849
-0.0630421
-0.0650061
-0.0667804
-0.0683678
-0.0697705
-0.0709908
-0.0720307
-0.0728924
-0.073578
-0.0740896
-0.0744294
-0.0745996
-0.0746023
-0.0744393
-0.0741125
-0.0736233
-0.0729727
-0.0721615
-0.0711897
-0.0700568
-0.0687616
-0.0673023
-0.0656766
-0.0638816
-0.0619141
-0.0597699
-0.0574435
-0.0549264
-0.0522039
-0.0492507
-0.0460256
-0.0424687
-0.0385076
-0.0340885
-0.0292384
-0.0241612
-0.0193284
-0.0154369
-0.0130798
-0.0123304
-0.0126362
-0.0128393
-0.0130092
-0.00207005
-0.00239039
-0.00306515
-0.00427097
-0.00613772
-0.00872316
-0.0120147
-0.0159122
-0.0202428
-0.0248019
-0.0293974
-0.0338779
-0.0381445
-0.0421468
-0.0458707
-0.0493237
-0.0525227
-0.055486
-0.0582293
-0.0607646
-0.0631003
-0.065242
-0.0671936
-0.0689582
-0.070538
-0.0719353
-0.0731522
-0.0741906
-0.0750526
-0.0757403
-0.0762558
-0.076601
-0.0767781
-0.0767889
-0.0766352
-0.0763187
-0.0758407
-0.0752022
-0.0744037
-0.0734454
-0.0723266
-0.0710463
-0.0696026
-0.0679935
-0.0662161
-0.0642676
-0.0621449
-0.0598443
-0.0573607
-0.0546851
-0.0518007
-0.0486767
-0.0452618
-0.0414818
-0.0372552
-0.0325431
-0.0274379
-0.0222869
-0.0177528
-0.0146093
-0.0132215
-0.0133756
-0.0136471
-0.0138525
-0.00394571
-0.00428022
-0.00500266
-0.00629427
-0.00827614
-0.0109925
-0.0144118
-0.0184117
-0.0228033
-0.027377
-0.0319454
-0.0363692
-0.0405634
-0.0444902
-0.048144
-0.0515367
-0.0546865
-0.0576108
-0.0603237
-0.062835
-0.0651516
-0.0672779
-0.0692171
-0.0709716
-0.0725437
-0.0739351
-0.0751481
-0.0761844
-0.0770461
-0.0777351
-0.0782534
-0.0786029
-0.0787855
-0.078803
-0.078657
-0.0783493
-0.077881
-0.077253
-0.0764661
-0.0755203
-0.0744152
-0.0731498
-0.0717224
-0.0701311
-0.0683733
-0.0664463
-0.0643475
-0.062074
-0.059623
-0.0569894
-0.0541632
-0.0511237
-0.0478309
-0.0442185
-0.0401957
-0.0356794
-0.0306731
-0.0253913
-0.0203949
-0.0165336
-0.0144699
-0.0142072
-0.0146296
-0.0148463
-0.00598657
-0.0063299
-0.0070899
-0.00844881
-0.0105165
-0.0133247
-0.0168253
-0.0208787
-0.0252856
-0.0298356
-0.0343489
-0.0386981
-0.0428108
-0.0466591
-0.0502435
-0.0535782
-0.0566814
-0.0595689
-0.0622527
-0.0647409
-0.0670387
-0.0691497
-0.0710764
-0.0728207
-0.0743847
-0.0757702
-0.0769789
-0.0780128
-0.0788737
-0.0795634
-0.0800837
-0.0804365
-0.0806235
-0.0806464
-0.0805069
-0.0802065
-0.0797464
-0.0791277
-0.0783511
-0.0774168
-0.0763245
-0.0750735
-0.0736625
-0.0720897
-0.0703526
-0.068449
-0.0663762
-0.064132
-0.0617145
-0.0591214
-0.0563476
-0.0533805
-0.0501921
-0.0467285
-0.0429027
-0.038609
-0.0337853
-0.0285279
-0.0232607
-0.0188096
-0.0160562
-0.0152238
-0.0157853
-0.0160132
-0.00812441
-0.00847018
-0.00925707
-0.010665
-0.012791
-0.0156556
-0.0191973
-0.023264
-0.0276507
-0.0321494
-0.036589
-0.0408534
-0.0448809
-0.0486511
-0.0521684
-0.0554481
-0.0585073
-0.0613598
-0.0640157
-0.0664813
-0.0687607
-0.0708565
-0.0727707
-0.074505
-0.076061
-0.0774404
-0.078645
-0.0796763
-0.0805361
-0.081226
-0.0817477
-0.082103
-0.0822935
-0.0823208
-0.0821865
-0.0818922
-0.0814391
-0.0808283
-0.0800606
-0.0791366
-0.0780561
-0.0768188
-0.0754237
-0.0738692
-0.0721533
-0.070274
-0.0682288
-0.0660158
-0.0636337
-0.0610815
-0.0583574
-0.0554553
-0.0523577
-0.0490244
-0.0453803
-0.0413148
-0.0367219
-0.0316046
-0.0262406
-0.0213534
-0.0179404
-0.0165452
-0.0170831
-0.0173612
-0.0102905
-0.0106314
-0.0114348
-0.0128749
-0.0150347
-0.0179256
-0.0214757
-0.0255247
-0.0298653
-0.0342945
-0.0386498
-0.0428254
-0.0467681
-0.0504629
-0.0539167
-0.0571447
-0.0601624
-0.0629817
-0.0656109
-0.0680548
-0.0703163
-0.0723973
-0.0742993
-0.0760238
-0.0775721
-0.0789458
-0.0801462
-0.081175
-0.0820335
-0.0827234
-0.0832462
-0.0836033
-0.0837965
-0.0838273
-0.0836973
-0.0834079
-0.0829605
-0.0823564
-0.0815964
-0.0806813
-0.0796114
-0.0783866
-0.0770064
-0.0754695
-0.0737746
-0.0719197
-0.0699029
-0.0677224
-0.0653771
-0.062867
-0.0601923
-0.0573514
-0.0543353
-0.0511169
-0.0476366
-0.0437914
-0.0394524
-0.0345524
-0.0292359
-0.0240804
-0.0201123
-0.0182093
-0.0184819
-0.0188904
-0.0124192
-0.012748
-0.0135582
-0.0150158
-0.0171889
-0.0200817
-0.0236151
-0.0276239
-0.0319017
-0.0362511
-0.040518
-0.0446053
-0.0484664
-0.0520905
-0.0554852
-0.0586652
-0.0616442
-0.0644324
-0.0670362
-0.0694592
-0.0717036
-0.0737705
-0.075661
-0.0773763
-0.0789174
-0.0802857
-0.0814824
-0.0825088
-0.0833662
-0.0840559
-0.0845794
-0.0849381
-0.0851334
-0.085167
-0.0850402
-0.0847547
-0.0843119
-0.0837131
-0.0829595
-0.082052
-0.0809913
-0.0797776
-0.0784109
-0.0768905
-0.0752155
-0.0733844
-0.0713958
-0.0692482
-0.0669408
-0.0644738
-0.0618489
-0.0590676
-0.0561273
-0.0530122
-0.0496791
-0.0460396
-0.0419599
-0.0373225
-0.032166
-0.0269142
-0.0225504
-0.0201738
-0.0199847
-0.020595
-0.0144516
-0.0147626
-0.0155697
-0.0170324
-0.0192025
-0.0220785
-0.0255771
-0.0295312
-0.0337369
-0.0380026
-0.042182
-0.046185
-0.0499704
-0.0535294
-0.0568701
-0.0600061
-0.0629495
-0.0657087
-0.0682889
-0.0706924
-0.0729207
-0.0749745
-0.0768545
-0.0785614
-0.0800961
-0.0814597
-0.0826531
-0.0836775
-0.084534
-0.0852236
-0.0857477
-0.0861075
-0.0863045
-0.0863402
-0.0862159
-0.0859334
-0.085494
-0.0848994
-0.0841507
-0.0832494
-0.0821963
-0.0809921
-0.0796372
-0.0781316
-0.076475
-0.0746664
-0.0727049
-0.0705896
-0.0683199
-0.0658967
-0.0633221
-0.0605998
-0.0577319
-0.0547122
-0.0515121
-0.0480613
-0.0442339
-0.0398819
-0.0349674
-0.0297731
-0.0251764
-0.0223634
-0.0216587
-0.0224691
-0.0163325
-0.0166279
-0.0174208
-0.0188783
-0.0210327
-0.0238787
-0.0273305
-0.0312217
-0.0353521
-0.0395355
-0.043632
-0.0475574
-0.051274
-0.0547747
-0.0580671
-0.0611636
-0.0640747
-0.0668076
-0.069366
-0.0717518
-0.0739655
-0.0760075
-0.0778781
-0.0795778
-0.0811071
-0.0824668
-0.0836577
-0.0846807
-0.0855365
-0.0862263
-0.086751
-0.0871118
-0.0873101
-0.0873473
-0.0872248
-0.0869443
-0.0865074
-0.0859156
-0.0851706
-0.0842738
-0.0832266
-0.0820301
-0.0806851
-0.0791922
-0.0775518
-0.0757636
-0.0738274
-0.0717428
-0.0695099
-0.0671298
-0.0646054
-0.0619417
-0.0591442
-0.056214
-0.0531356
-0.0498569
-0.0462676
-0.0422095
-0.0375897
-0.032572
-0.027884
-0.0246987
-0.0235698
-0.0245063
-0.0180251
-0.0182948
-0.0190734
-0.0205165
-0.022646
-0.0254532
-0.028851
-0.0326756
-0.0367325
-0.0408384
-0.0448592
-0.0487155
-0.0523719
-0.0558216
-0.0590718
-0.0621335
-0.065016
-0.0677255
-0.0702647
-0.0726347
-0.0748357
-0.0768676
-0.0787303
-0.0804241
-0.0819492
-0.0833061
-0.0844954
-0.0855177
-0.0863735
-0.0870637
-0.0875892
-0.087951
-0.0881504
-0.0881887
-0.0880673
-0.087788
-0.0873524
-0.0867623
-0.0860194
-0.0851255
-0.0840823
-0.0828913
-0.0815539
-0.0800713
-0.0784445
-0.076674
-0.0747605
-0.0727041
-0.0705058
-0.0681671
-0.0656917
-0.0630855
-0.0603566
-0.0575115
-0.0545456
-0.051424
-0.0480559
-0.0442885
-0.0399914
-0.0352338
-0.0305791
-0.0271334
-0.0257046
-0.0266749
-0.0195011
-0.0197324
-0.0204953
-0.0219178
-0.0240174
-0.0267808
-0.0301206
-0.0338775
-0.037867
-0.0419016
-0.045856
-0.0496531
-0.0532585
-0.0566654
-0.0598798
-0.0629118
-0.0657698
-0.068459
-0.0709818
-0.0733384
-0.0755289
-0.0775525
-0.0794092
-0.0810987
-0.0826211
-0.0839766
-0.0851653
-0.0861877
-0.0870442
-0.0877354
-0.088262
-0.0886249
-0.0888253
-0.0888644
-0.0887436
-0.0884647
-0.0880294
-0.0874396
-0.0866973
-0.0858045
-0.0847632
-0.0835754
-0.082243
-0.0807679
-0.0791516
-0.0773956
-0.0755012
-0.0734697
-0.0713027
-0.0690026
-0.0665737
-0.0640229
-0.0613601
-0.0585961
-0.055735
-0.052757
-0.0495927
-0.0461039
-0.0421376
-0.0376935
-0.0331823
-0.029613
-0.0279859
-0.0289055
-0.0207404
-0.020926
-0.0216635
-0.0230626
-0.0251303
-0.0278476
-0.0311288
-0.0348185
-0.0387462
-0.0427165
-0.0466158
-0.050365
-0.0539294
-0.0573017
-0.060487
-0.0634947
-0.0663324
-0.069005
-0.0715143
-0.0738603
-0.0760425
-0.0780603
-0.0799129
-0.0816001
-0.0831214
-0.0844769
-0.0856665
-0.0866902
-0.0875483
-0.0882412
-0.0887694
-0.0891337
-0.089335
-0.0893746
-0.089254
-0.0889747
-0.0885386
-0.0879479
-0.0872045
-0.0863108
-0.0852692
-0.084082
-0.0827517
-0.0812807
-0.0796714
-0.077926
-0.0760468
-0.0740359
-0.0718959
-0.0696303
-0.0672439
-0.0647449
-0.0621447
-0.0594574
-0.0566938
-0.0538474
-0.0508691
-0.0476404
-0.0440003
-0.0398984
-0.0356176
-0.0320482
-0.0303052
-0.0311108
-0.0217319
-0.0218662
-0.0225689
-0.0239384
-0.0259744
-0.0286484
-0.031874
-0.0355017
-0.0393592
-0.0432773
-0.0471333
-0.0508465
-0.0543803
-0.0577266
-0.0608897
-0.0638785
-0.0667004
-0.0693602
-0.0718592
-0.0741975
-0.0763743
-0.0783886
-0.0802396
-0.0819264
-0.0834487
-0.084806
-0.0859979
-0.0870243
-0.0878852
-0.0885807
-0.0891112
-0.0894772
-0.0896797
-0.0897198
-0.0895988
-0.0893184
-0.0888806
-0.0882874
-0.0875412
-0.0866446
-0.0856001
-0.0844107
-0.0830793
-0.0816089
-0.0800025
-0.0782633
-0.0763944
-0.074399
-0.0722808
-0.0700442
-0.0676952
-0.065243
-0.0627004
-0.0600841
-0.0574106
-0.0546842
-0.051874
-0.0488835
-0.0455561
-0.0418058
-0.0378145
-0.0343421
-0.0325484
-0.0332069
-0.0224732
-0.0225509
-0.0232115
-0.0245444
-0.026544
-0.0291735
-0.0323458
-0.0359172
-0.039718
-0.0435912
-0.0474115
-0.0510971
-0.054609
-0.0579368
-0.0610843
-0.0640598
-0.0668708
-0.0695215
-0.0720137
-0.0743474
-0.0765217
-0.0785353
-0.0803871
-0.0820761
-0.0836015
-0.0849626
-0.0861587
-0.0871895
-0.0880545
-0.0887538
-0.0892874
-0.0896558
-0.0898597
-0.0899002
-0.0897785
-0.0894964
-0.0890557
-0.0884587
-0.087708
-0.0868061
-0.0857562
-0.0845615
-0.0832253
-0.0817514
-0.0801434
-0.0784054
-0.0765414
-0.0745556
-0.0724529
-0.0702388
-0.0679206
-0.0655086
-0.063017
-0.0604648
-0.0578731
-0.055255
-0.0525954
-0.0498199
-0.046785
-0.0433808
-0.0397123
-0.0364075
-0.0346173
-0.0351214
-0.02297
-0.0229873
-0.0235993
-0.0248882
-0.0268446
-0.0294259
-0.0325457
-0.0360662
-0.0398223
-0.0436591
-0.0474514
-0.0511167
-0.0546138
-0.0579301
-0.061068
-0.0640356
-0.06684
-0.0694858
-0.0719749
-0.0743074
-0.0764822
-0.0784981
-0.0803536
-0.0820474
-0.0835785
-0.0849456
-0.0861481
-0.087185
-0.0880558
-0.0887602
-0.0892981
-0.0896697
-0.0898756
-0.0899166
-0.0897941
-0.0895095
-0.0890651
-0.0884627
-0.0877054
-0.086796
-0.0857378
-0.0845344
-0.0831896
-0.0817077
-0.0800932
-0.0783507
-0.0764854
-0.0745025
-0.072408
-0.0702088
-0.0679134
-0.0655335
-0.0630848
-0.0605883
-0.0580688
-0.0555469
-0.0530206
-0.0504367
-0.0476694
-0.0445951
-0.0412616
-0.0381733
-0.0364347
-0.0367954
-0.0232357
-0.0231908
-0.0237481
-0.0249843
-0.0268898
-0.0294181
-0.0324841
-0.0359557
-0.0396726
-0.0434797
-0.0472514
-0.0509037
-0.0543929
-0.057704
-0.0608382
-0.0638028
-0.0666052
-0.0692502
-0.0717399
-0.0740746
-0.0762534
-0.0782747
-0.080137
-0.0818386
-0.0833781
-0.084754
-0.0859652
-0.0870105
-0.087889
-0.0886003
-0.0891438
-0.0895196
-0.089728
-0.0897699
-0.0896463
-0.0893589
-0.0889095
-0.0883005
-0.0875347
-0.0866153
-0.0855458
-0.0843301
-0.0829724
-0.0814777
-0.0798511
-0.0780982
-0.0762247
-0.0742372
-0.0721427
-0.0699496
-0.0676676
-0.0653102
-0.0628947
-0.0604438
-0.0579856
-0.0555469
-0.0531368
-0.0507211
-0.0481942
-0.0454262
-0.0424241
-0.0395844
-0.0379423
-0.0381806
-0.0232899
-0.0231846
-0.0236804
-0.0248538
-0.0266992
-0.0291678
-0.0321758
-0.0355965
-0.0392741
-0.0430545
-0.0468108
-0.0504562
-0.0539438
-0.0572558
-0.0603919
-0.0633586
-0.0661634
-0.0688116
-0.0713057
-0.0736464
-0.0758326
-0.0778629
-0.0797353
-0.0814479
-0.0829989
-0.0843866
-0.0856093
-0.0866655
-0.0875541
-0.0882741
-0.0888249
-0.0892062
-0.0894181
-0.0894613
-0.0893368
-0.089046
-0.0885908
-0.0879737
-0.0871974
-0.0862653
-0.0851812
-0.0839494
-0.0825745
-0.0810619
-0.0794174
-0.0776473
-0.0757582
-0.0737578
-0.0716544
-0.0694574
-0.0671783
-0.0648322
-0.0624383
-0.0600213
-0.0576121
-0.0552428
-0.0529316
-0.0506611
-0.0483459
-0.0458564
-0.0431714
-0.0405992
-0.039095
-0.0392358
-0.0231577
-0.0229974
-0.0234249
-0.0245233
-0.0262964
-0.028696
-0.0316385
-0.0350021
-0.0386365
-0.0423892
-0.0461319
-0.0497742
-0.053265
-0.0565832
-0.0597262
-0.0626998
-0.0655115
-0.068167
-0.0706694
-0.0730198
-0.0752172
-0.0772601
-0.0791463
-0.0808736
-0.0824397
-0.0838424
-0.0850798
-0.0861499
-0.0870511
-0.0877822
-0.0883422
-0.0887306
-0.0889472
-0.0889925
-0.0888672
-0.0885727
-0.0881109
-0.0874842
-0.0866954
-0.085748
-0.084646
-0.083394
-0.0819971
-0.0804611
-0.0787923
-0.0769979
-0.0750854
-0.0730634
-0.0709414
-0.0687299
-0.0664419
-0.0640948
-0.0617084
-0.0593116
-0.0569377
-0.0546229
-0.0523935
-0.0502455
-0.0481131
-0.0458726
-0.0434834
-0.0411878
-0.0398561
-0.039924
-0.0228683
-0.0226627
-0.0230146
-0.0240239
-0.0257098
-0.0280271
-0.0308926
-0.0341892
-0.0377723
-0.0414923
-0.0452194
-0.0488594
-0.0523561
-0.0556841
-0.0588383
-0.0618231
-0.0646459
-0.0673128
-0.0698277
-0.0721917
-0.0744044
-0.0764639
-0.0783679
-0.0801139
-0.081699
-0.0831206
-0.0843762
-0.0854635
-0.0863805
-0.0871254
-0.087697
-0.0880943
-0.0883171
-0.0883653
-0.0882397
-0.0879414
-0.0874722
-0.0868346
-0.0860313
-0.085066
-0.0839427
-0.0826664
-0.0812425
-0.0796772
-0.0779775
-0.0761511
-0.0742066
-0.0721533
-0.070002
-0.0677647
-0.0654563
-0.0630953
-0.0607002
-0.0583088
-0.0559535
-0.0536769
-0.0515117
-0.0494642
-0.0474866
-0.0454649
-0.0433477
-0.0413299
-0.0401931
-0.0402096
-0.0224538
-0.0222156
-0.0224854
-0.0233904
-0.0249715
-0.0271895
-0.0299624
-0.0331777
-0.0366971
-0.0403748
-0.0440801
-0.0477147
-0.051217
-0.0545567
-0.057725
-0.0607248
-0.0635627
-0.0662453
-0.0687767
-0.0711587
-0.0733909
-0.0754715
-0.0773979
-0.0791669
-0.0807754
-0.0822202
-0.0834982
-0.0846066
-0.0855428
-0.0863047
-0.0868906
-0.0872992
-0.0875298
-0.0875822
-0.087457
-0.087155
-0.086678
-0.0860281
-0.0852084
-0.0842225
-0.0830746
-0.0817697
-0.0803137