/*--------------------------------*- C++ -*----------------------------------*\
| =========                 |                                                 |
| \\      /  F ield         | OpenFOAM: The Open Source CFD Toolbox           |
|  \\    /   O peration     | Version:  2406                                  |
|   \\  /    A nd           | Website:  www.openfoam.com                      |
|    \\/     M anipulation  |                                                 |
\*---------------------------------------------------------------------------*/
FoamFile
{
    version     2.0;
    format      ascii;
    arch        "LSB;label=32;scalar=64";
    class       volVectorField;
    location    "33.3";
    object      U;
}
// * * * * * * * * * * * * * * * * * * * * * * * * * * * * * * * * * * * * * //

dimensions      [0 1 -1 0 0 0 0];

internalField   nonuniform List<vector> 
14400
(
(-1.72674e-05 1.72145e-05 0)
(1.37938e-07 -1.15168e-05 0)
(0.00010855 -4.23886e-05 0)
(0.000293046 -6.94772e-05 0)
(0.000542278 -8.53507e-05 0)
(0.000823493 -9.40442e-05 0)
(0.00112247 -9.47351e-05 0)
(0.00141422 -9.04308e-05 0)
(0.00168888 -8.16206e-05 0)
(0.00193212 -7.051e-05 0)
(0.00214042 -5.79907e-05 0)
(0.00230916 -4.5618e-05 0)
(0.00244071 -3.41161e-05 0)
(0.00253725 -2.43379e-05 0)
(0.00260468 -1.65583e-05 0)
(0.00264829 -1.09751e-05 0)
(0.0026745 -7.40159e-06 0)
(0.00268836 -5.552e-06 0)
(0.00269428 -4.92957e-06 0)
(0.00269478 -5.00418e-06 0)
(0.00269097 -5.19072e-06 0)
(0.00268204 -4.96237e-06 0)
(0.00266577 -3.85414e-06 0)
(0.00263854 -1.51867e-06 0)
(0.00259584 2.28685e-06 0)
(0.00253242 7.69885e-06 0)
(0.00244269 1.47842e-05 0)
(0.00232083 2.35664e-05 0)
(0.00216092 3.4061e-05 0)
(0.00195693 4.62937e-05 0)
(0.00170277 6.03115e-05 0)
(0.00139219 7.6177e-05 0)
(0.00101887 9.39582e-05 0)
(0.000576391 0.000113712 0)
(5.83647e-05 0.000135466 0)
(-0.000541432 0.000159211 0)
(-0.00122889 0.000184883 0)
(-0.00200936 0.00021236 0)
(-0.00288745 0.000241455 0)
(-0.00386676 0.000271912 0)
(-0.00494971 0.000303409 0)
(-0.00613724 0.00033555 0)
(-0.00742867 0.000367876 0)
(-0.00882146 0.000399865 0)
(-0.0103111 0.00043094 0)
(-0.0118909 0.000460481 0)
(-0.013552 0.000487829 0)
(-0.0152834 0.000512305 0)
(-0.0170719 0.000533215 0)
(-0.0189019 0.000549867 0)
(-0.0207561 0.000561578 0)
(-0.0226152 0.000567687 0)
(-0.0244581 0.000567562 0)
(-0.0262623 0.00056061 0)
(-0.0280041 0.000546289 0)
(-0.0296588 0.000524111 0)
(-0.0312011 0.000493664 0)
(-0.0326052 0.000454619 0)
(-0.0338454 0.000406751 0)
(-0.0348964 0.000349962 0)
(-0.0357338 0.000284302 0)
(-0.0363344 0.00021 0)
(-0.0366769 0.000127487 0)
(-0.036742 3.7428e-05 0)
(-0.0365138 -5.92521e-05 0)
(-0.0359796 -0.000161352 0)
(-0.035131 -0.000267378 0)
(-0.0339642 -0.000375545 0)
(-0.0324809 -0.000483789 0)
(-0.0306886 -0.000589798 0)
(-0.028601 -0.000691064 0)
(-0.0262384 -0.00078495 0)
(-0.0236278 -0.000868782 0)
(-0.0208025 -0.000939962 0)
(-0.0178021 -0.000996087 0)
(-0.0146715 -0.00103508 0)
(-0.0114602 -0.00105531 0)
(-0.0082208 -0.00105574 0)
(-0.00500797 -0.00103597 0)
(-0.00187642 -0.000996371 0)
(0.00112068 -0.000938037 0)
(0.00393355 -0.000862812 0)
(0.00651751 -0.000773199 0)
(0.00883457 -0.000672242 0)
(0.0108547 -0.000563373 0)
(0.0125567 -0.000450222 0)
(0.0139288 -0.000336424 0)
(0.0149689 -0.000225426 0)
(0.0156838 -0.000120315 0)
(0.0160887 -2.36842e-05 0)
(0.0162062 6.24635e-05 0)
(0.0160644 0.000136756 0)
(0.0156961 0.000198455 0)
(0.0151363 0.000247407 0)
(0.0144214 0.000283977 0)
(0.0135873 0.000308948 0)
(0.012668 0.000323425 0)
(0.0116952 0.000328718 0)
(0.010697 0.000326262 0)
(0.00969758 0.000317507 0)
(0.00871706 0.000303877 0)
(0.00777149 0.000286678 0)
(0.0068728 0.000267114 0)
(0.00602961 0.000246188 0)
(0.0052469 0.000224806 0)
(0.00452746 0.000203635 0)
(0.00387097 0.000183315 0)
(0.00327629 0.000164196 0)
(0.00273944 0.000146729 0)
(0.00225727 0.00013093 0)
(0.00182369 0.000117083 0)
(0.0014359 0.00010467 0)
(0.00108771 9.37391e-05 0)
(0.000780047 8.27874e-05 0)
(0.000509696 7.15986e-05 0)
(0.000285328 5.71091e-05 0)
(0.00010988 3.97222e-05 0)
(-6.63826e-07 1.55693e-05 0)
(-4.21212e-05 -7.34416e-06 0)
(-2.22666e-05 -2.18357e-05 0)
(1.03663e-05 5.01836e-07 0)
(0.000151644 -0.000154669 0)
(0.000480424 -0.000310837 0)
(0.000956261 -0.000447544 0)
(0.00156354 -0.000536492 0)
(0.00223998 -0.00058618 0)
(0.0029539 -0.000594298 0)
(0.00365416 -0.00057135 0)
(0.004315 -0.000522158 0)
(0.0049053 -0.00045659 0)
(0.00541301 -0.00038117 0)
(0.00582674 -0.00030372 0)
(0.00614802 -0.000229393 0)
(0.00638002 -0.000162797 0)
(0.00653292 -0.000106237 0)
(0.00661687 -6.08657e-05 0)
(0.006644 -2.60624e-05 0)
(0.00662409 -2.03697e-07 0)
(0.00656527 1.93902e-05 0)
(0.00647175 3.58579e-05 0)
(0.00634424 5.26144e-05 0)
(0.00617927 7.29024e-05 0)
(0.00596984 9.96109e-05 0)
(0.00570569 0.000135045 0)
(0.00537415 0.000180903 0)
(0.00496072 0.000238293 0)
(0.0044498 0.000307868 0)
(0.00382509 0.000389969 0)
(0.00307 0.000484782 0)
(0.0021678 0.000592431 0)
(0.00110183 0.000713021 0)
(-0.000144403 0.000846613 0)
(-0.00158697 0.000993163 0)
(-0.00324124 0.00115243 0)
(-0.00512147 0.00132388 0)
(-0.0072403 0.00150664 0)
(-0.00960822 0.0016994 0)
(-0.0122329 0.0019004 0)
(-0.0151188 0.00210743 0)
(-0.0182662 0.0023178 0)
(-0.021671 0.00252839 0)
(-0.0253243 0.00273568 0)
(-0.0292118 0.0029358 0)
(-0.0333137 0.00312464 0)
(-0.037605 0.00329789 0)
(-0.0420549 0.00345119 0)
(-0.0466278 0.00358019 0)
(-0.051283 0.00368068 0)
(-0.055976 0.00374867 0)
(-0.0606585 0.00378048 0)
(-0.0652794 0.00377283 0)
(-0.0697856 0.00372289 0)
(-0.0741228 0.0036283 0)
(-0.078236 0.0034873 0)
(-0.0820709 0.00329864 0)
(-0.085574 0.00306174 0)
(-0.0886939 0.0027766 0)
(-0.0913816 0.0024439 0)
(-0.0935911 0.002065 0)
(-0.0952805 0.00164199 0)
(-0.0964121 0.00117773 0)
(-0.0969532 0.000675874 0)
(-0.0968768 0.000140941 0)
(-0.0961619 -0.000421655 0)
(-0.0947944 -0.00100557 0)
(-0.0927674 -0.00160352 0)
(-0.0900819 -0.00220729 0)
(-0.0867476 -0.00280775 0)
(-0.0827826 -0.00339502 0)
(-0.0782147 -0.00395851 0)
(-0.073081 -0.00448719 0)
(-0.0674284 -0.00496983 0)
(-0.061313 -0.00539531 0)
(-0.0548006 -0.00575297 0)
(-0.0479652 -0.00603306 0)
(-0.0408888 -0.00622716 0)
(-0.0336598 -0.00632862 0)
(-0.0263715 -0.00633295 0)
(-0.0191204 -0.00623822 0)
(-0.0120043 -0.00604529 0)
(-0.00511953 -0.005758 0)
(0.00144117 -0.00538314 0)
(0.00759118 -0.00493035 0)
(0.0132524 -0.00441178 0)
(0.0183577 -0.00384169 0)
(0.0228524 -0.00323582 0)
(0.0266965 -0.00261076 0)
(0.0298653 -0.0019832 0)
(0.0323499 -0.00136924 0)
(0.0341576 -0.000783672 0)
(0.0353107 -0.000239401 0)
(0.0358458 0.000253006 0)
(0.0358114 0.000685646 0)
(0.0352663 0.00105342 0)
(0.0342763 0.00135403 0)
(0.0329121 0.00158777 0)
(0.0312462 0.00175729 0)
(0.0293503 0.00186712 0)
(0.0272927 0.0019233 0)
(0.0251367 0.00193281 0)
(0.0229386 0.0019032 0)
(0.0207472 0.0018421 0)
(0.0186026 0.00175693 0)
(0.0165372 0.00165453 0)
(0.0145743 0.00154119 0)
(0.012731 0.0014222 0)
(0.0110164 0.00130229 0)
(0.00943544 0.00118492 0)
(0.00798634 0.00107323 0)
(0.00666672 0.000968598 0)
(0.0054682 0.00087238 0)
(0.00438687 0.000783038 0)
(0.00341313 0.000699736 0)
(0.00254912 0.000616589 0)
(0.00179017 0.000530914 0)
(0.00115196 0.000431774 0)
(0.000637577 0.000319904 0)
(0.000274265 0.000184813 0)
(5.88714e-05 5.61372e-05 0)
(-7.43181e-06 -4.20298e-05 0)
(3.86147e-05 -0.00010312 0)
(0.000298987 -0.000480748 0)
(0.000827207 -0.000842862 0)
(0.00154159 -0.00115104 0)
(0.0024251 -0.00135845 0)
(0.00339261 -0.00147229 0)
(0.00440355 -0.00149089 0)
(0.0053899 -0.00143288 0)
(0.00631633 -0.00131163 0)
(0.00714065 -0.00114796 0)
(0.00784467 -0.000958488 0)
(0.00841172 -0.000760783 0)
(0.00884132 -0.000567887 0)
(0.00913577 -0.000390493 0)
(0.00930612 -0.000234675 0)
(0.00936383 -0.000103171 0)
(0.0093226 5.17833e-06 0)
(0.0091932 9.43058e-05 0)
(0.00898385 0.000170583 0)
(0.00869748 0.000241722 0)
(0.00833205 0.000316085 0)
(0.00787966 0.000401757 0)
(0.00732748 0.00050597 0)
(0.00665802 0.000634609 0)
(0.00585041 0.000792073 0)
(0.0048812 0.000981315 0)
(0.00372538 0.0012041 0)
(0.0023571 0.00146132 0)
(0.000750321 0.0017533 0)
(-0.00112071 0.00208002 0)
(-0.003281 0.00244112 0)
(-0.00575432 0.00283588 0)
(-0.0085626 0.00326304 0)
(-0.0117252 0.00372058 0)
(-0.0152581 0.00420551 0)
(-0.0191729 0.00471376 0)
(-0.0234759 0.00524004 0)
(-0.0281674 0.00577782 0)
(-0.0332403 0.00631936 0)
(-0.0386799 0.00685582 0)
(-0.0444635 0.00737743 0)
(-0.0505599 0.00787368 0)
(-0.0569293 0.00833358 0)
(-0.0635244 0.00874598 0)
(-0.0702904 0.00909985 0)
(-0.0771662 0.00938461 0)
(-0.0840855 0.00959043 0)
(-0.090978 0.00970849 0)
(-0.0977713 0.00973118 0)
(-0.104391 0.00965229 0)
(-0.110765 0.0094671 0)
(-0.11682 0.00917244 0)
(-0.122487 0.00876668 0)
(-0.127701 0.00824973 0)
(-0.1324 0.00762295 0)
(-0.136526 0.00688908 0)
(-0.14003 0.00605221 0)
(-0.142866 0.00511768 0)
(-0.144993 0.00409205 0)
(-0.146379 0.0029831 0)
(-0.146995 0.00179981 0)
(-0.146822 0.000552403 0)
(-0.145845 -0.000747633 0)
(-0.144056 -0.00208749 0)
(-0.141454 -0.00345302 0)
(-0.138046 -0.0048287 0)
(-0.133845 -0.00619766 0)
(-0.128872 -0.00754179 0)
(-0.123159 -0.00884181 0)
(-0.116741 -0.0100775 0)
(-0.109666 -0.0112282 0)
(-0.101989 -0.0122728 0)
(-0.0937735 -0.0131906 0)
(-0.0850921 -0.0139618 0)
(-0.0760254 -0.0145683 0)
(-0.066662 -0.014994 0)
(-0.0570971 -0.0152261 0)
(-0.0474315 -0.0152555 0)
(-0.0377704 -0.0150774 0)
(-0.0282214 -0.0146921 0)
(-0.0188925 -0.0141051 0)
(-0.0098902 -0.0133275 0)
(-0.00131678 -0.0123756 0)
(0.00673171 -0.0112708 0)
(0.014168 -0.0100391 0)
(0.0209158 -0.00871 0)
(0.0269118 -0.00731546 0)
(0.0321072 -0.00588901 0)
(0.0364695 -0.00446428 0)
(0.039983 -0.00307379 0)
(0.0426493 -0.00174773 0)
(0.0444873 -0.000512834 0)
(0.0455323 0.000608522 0)
(0.045835 0.00159904 0)
(0.0454591 0.00244694 0)
(0.0444794 0.00314611 0)
(0.0429785 0.00369595 0)
(0.0410439 0.00410094 0)
(0.0387649 0.00436999 0)
(0.036229 0.00451551 0)
(0.0335192 0.00455252 0)
(0.030712 0.00449755 0)
(0.0278745 0.0043678 0)
(0.0250648 0.0041801 0)
(0.0223293 0.00395057 0)
(0.019705 0.00369363 0)
(0.0172177 0.00342229 0)
(0.0148856 0.00314706 0)
(0.0127168 0.00287685 0)
(0.0107164 0.00261707 0)
(0.00888041 0.00237163 0)
(0.00720874 0.00213905 0)
(0.00569267 0.00191705 0)
(0.00433761 0.00169497 0)
(0.0031378 0.00146541 0)
(0.00211456 0.00120918 0)
(0.00126731 0.000925044 0)
(0.000635584 0.00059877 0)
(0.000207803 0.000278461 0)
(1.97914e-05 5.42111e-06 0)
(6.30613e-05 -0.000276602 0)
(0.000429 -0.000947469 0)
(0.00112733 -0.00155506 0)
(0.00203216 -0.00205336 0)
(0.00312427 -0.00238798 0)
(0.00429861 -0.00256513 0)
(0.00551089 -0.00258574 0)
(0.00668131 -0.00247662 0)
(0.00776997 -0.00226096 0)
(0.00872736 -0.00197142 0)
(0.00953182 -0.00163605 0)
(0.0101626 -0.00128322 0)
(0.0106174 -0.000934861 0)
(0.0108964 -0.00060847 0)
(0.0110096 -0.000314303 0)
(0.0109671 -5.67564e-05 0)
(0.0107811 0.00016615 0)
(0.0104602 0.000361256 0)
(0.0100095 0.000539485 0)
(0.00942796 0.000714146 0)
(0.00870825 0.000899639 0)
(0.00783619 0.00110994 0)
(0.00679171 0.00135756 0)
(0.00554936 0.00165269 0)
(0.00407982 0.00200295 0)
(0.00235099 0.0024134 0)
(0.000329309 0.00288694 0)
(-0.00201923 0.00342474 0)
(-0.00472806 0.00402672 0)
(-0.00782917 0.00469176 0)
(-0.0113522 0.00541776 0)
(-0.0153234 0.00620142 0)
(-0.0197645 0.00703803 0)
(-0.0246914 0.00792105 0)
(-0.0301131 0.0088419 0)
(-0.03603 0.00978977 0)
(-0.042433 0.0107516 0)
(-0.0493027 0.0117122 0)
(-0.0566084 0.0126545 0)
(-0.0643085 0.0135601 0)
(-0.0723501 0.0144093 0)
(-0.0806704 0.0151825 0)
(-0.0891975 0.01586 0)
(-0.0978525 0.0164232 0)
(-0.106551 0.016855 0)
(-0.115205 0.0171404 0)
(-0.123726 0.0172668 0)
(-0.132027 0.0172245 0)
(-0.140021 0.0170066 0)
(-0.14763 0.0166091 0)
(-0.154778 0.016031 0)
(-0.161396 0.0152738 0)
(-0.167424 0.0143413 0)
(-0.172805 0.0132394 0)
(-0.177494 0.0119759 0)
(-0.18145 0.0105599 0)
(-0.184639 0.00900199 0)
(-0.187033 0.00731389 0)
(-0.188611 0.00550834 0)
(-0.189356 0.00359913 0)
(-0.189257 0.00160108 0)
(-0.188308 -0.000469846 0)
(-0.186506 -0.00259649 0)
(-0.183855 -0.00476036 0)
(-0.180361 -0.00694152 0)
(-0.176038 -0.00911848 0)
(-0.170902 -0.0112682 0)
(-0.164978 -0.013366 0)
(-0.158294 -0.0153858 0)
(-0.150885 -0.0173003 0)
(-0.142795 -0.0190811 0)
(-0.134074 -0.0206996 0)
(-0.124779 -0.022127 0)
(-0.114977 -0.0233359 0)
(-0.104741 -0.0243003 0)
(-0.0941544 -0.0249971 0)
(-0.0833055 -0.025407 0)
(-0.0722907 -0.0255154 0)
(-0.0612117 -0.0253137 0)
(-0.0501741 -0.0247995 0)
(-0.0392861 -0.0239778 0)
(-0.0286565 -0.0228611 0)
(-0.018392 -0.0214693 0)
(-0.00859598 -0.0198298 0)
(0.00063471 -0.0179763 0)
(0.00921128 -0.0159485 0)
(0.0170552 -0.0137905 0)
(0.0241 -0.0115493 0)
(0.0302929 -0.00927357 0)
(0.0355957 -0.00701199 0)
(0.0399864 -0.00481137 0)
(0.0434593 -0.00271534 0)
(0.0460254 -0.000762825 0)
(0.0477124 0.00101321 0)
(0.0485641 0.00258678 0)
(0.0486388 0.00393961 0)
(0.0480081 0.00506155 0)
(0.0467541 0.00595053 0)
(0.0449665 0.00661221 0)
(0.0427397 0.0070591 0)
(0.040169 0.00730949 0)
(0.0373474 0.00738598 0)
(0.0343623 0.0073141 0)
(0.0312936 0.00712062 0)
(0.0282103 0.00683246 0)
(0.0251716 0.00647512 0)
(0.0222234 0.00607229 0)
(0.0194027 0.00564424 0)
(0.0167328 0.0052084 0)
(0.0142325 0.00477686 0)
(0.0119074 0.00435829 0)
(0.00976669 0.00395331 0)
(0.00780616 0.00355969 0)
(0.00603754 0.00316357 0)
(0.00445488 0.00275334 0)
(0.00308614 0.00230299 0)
(0.00192567 0.00180724 0)
(0.00102805 0.00124722 0)
(0.000375235 0.000675695 0)
(5.1146e-05 0.000137686 0)
(7.82531e-05 -0.000512395 0)
(0.000522603 -0.0015488 0)
(0.0013543 -0.0024447 0)
(0.0024069 -0.00315346 0)
(0.00365561 -0.00362166 0)
(0.00497532 -0.003856 0)
(0.00631826 -0.00386341 0)
(0.00759473 -0.0036798 0)
(0.00876251 -0.00334032 0)
(0.00976718 -0.00289059 0)
(0.0105857 -0.00237158 0)
(0.0111947 -0.00182333 0)
(0.0115906 -0.00127747 0)
(0.0117717 -0.000758555 0)
(0.011746 -0.000281073 0)
(0.0115207 0.000149322 0)
(0.0111046 0.000536089 0)
(0.0105017 0.000889924 0)
(0.00971163 0.0012274 0)
(0.00872664 0.0015686 0)
(0.00753203 0.00193506 0)
(0.00610541 0.00234762 0)
(0.00441813 0.00282474 0)
(0.00243605 0.00338134 0)
(0.000121426 0.00402832 0)
(-0.00256572 0.00477261 0)
(-0.00566583 0.00561762 0)
(-0.00921848 0.00656382 0)
(-0.0132609 0.00760928 0)
(-0.0178264 0.00874984 0)
(-0.0229432 0.00997911 0)
(-0.0286324 0.0112882 0)
(-0.0349065 0.0126651 0)
(-0.0417678 0.0140948 0)
(-0.0492065 0.0155585 0)
(-0.0571998 0.0170342 0)
(-0.0657112 0.0184967 0)
(-0.0746901 0.0199181 0)
(-0.0840723 0.0212688 0)
(-0.0937817 0.0225185 0)
(-0.103731 0.0236371 0)
(-0.113827 0.0245959 0)
(-0.123969 0.0253688 0)
(-0.134056 0.0259331 0)
(-0.143988 0.02627 0)
(-0.153666 0.0263656 0)
(-0.163001 0.0262104 0)
(-0.171908 0.0257999 0)
(-0.180312 0.0251337 0)
(-0.188148 0.0242154 0)
(-0.195359 0.0230519 0)
(-0.201898 0.0216529 0)
(-0.207725 0.0200303 0)
(-0.212808 0.0181975 0)
(-0.217121 0.0161693 0)
(-0.220647 0.0139613 0)
(-0.223368 0.0115895 0)
(-0.225276 0.00907076 0)
(-0.22636 0.00642221 0)
(-0.226618 0.00366162 0)
(-0.226044 0.000807464 0)
(-0.224641 -0.00212086 0)
(-0.222407 -0.00510279 0)
(-0.219348 -0.00811635 0)
(-0.215468 -0.0111379 0)
(-0.210777 -0.0141419 0)
(-0.205286 -0.0171007 0)
(-0.199011 -0.0199847 0)
(-0.191973 -0.0227619 0)
(-0.184199 -0.0253986 0)
(-0.175719 -0.0278595 0)
(-0.166573 -0.0301082 0)
(-0.156808 -0.0321079 0)
(-0.14648 -0.0338227 0)
(-0.135652 -0.035218 0)
(-0.124398 -0.0362625 0)
(-0.112799 -0.036929 0)
(-0.100945 -0.0371958 0)
(-0.0889332 -0.0370486 0)
(-0.076867 -0.0364809 0)
(-0.0648539 -0.0354952 0)
(-0.0530041 -0.0341037 0)
(-0.0414276 -0.0323285 0)
(-0.0302326 -0.030201 0)
(-0.0195227 -0.0277615 0)
(-0.00939508 -0.0250584 0)
(6.19706e-05 -0.0221459 0)
(0.00877031 -0.0190835 0)
(0.0166636 -0.015933 0)
(0.0236882 -0.0127577 0)
(0.0298045 -0.0096197 0)
(0.034987 -0.0065787 0)
(0.0392254 -0.00368985 0)
(0.0425245 -0.00100244 0)
(0.0449046 0.00144168 0)
(0.0464014 0.00360923 0)
(0.0470654 0.00547653 0)
(0.0469609 0.00703007 0)
(0.046164 0.00826672 0)
(0.0447609 0.00919337 0)
(0.0428442 0.00982614 0)
(0.0405104 0.010189 0)
(0.0378555 0.010312 0)
(0.0349724 0.0102296 0)
(0.031947 0.00997831 0)
(0.0288571 0.00959476 0)
(0.025768 0.00911443 0)
(0.0227364 0.00856923 0)
(0.0198034 0.00798734 0)
(0.0170046 0.00739011 0)
(0.0143593 0.00679338 0)
(0.0118894 0.00620248 0)
(0.00959862 0.00561696 0)
(0.00750816 0.00502201 0)
(0.00561414 0.00440227 0)
(0.00395365 0.00372631 0)
(0.00251849 0.00298183 0)
(0.00138178 0.0021437 0)
(0.000523263 0.00125592 0)
(7.72296e-05 0.000355191 0)
(8.95802e-05 -0.00078524 0)
(0.000594434 -0.00223819 0)
(0.00152773 -0.00344757 0)
(0.00268936 -0.00437099 0)
(0.00404655 -0.00496333 0)
(0.00545558 -0.00523588 0)
(0.00686482 -0.00520547 0)
(0.00817626 -0.00491895 0)
(0.00934668 -0.00442516 0)
(0.0103186 -0.00378336 0)
(0.0110691 -0.0030479 0)
(0.0115734 -0.00227033 0)
(0.0118276 -0.00149156 0)
(0.0118277 -0.000742471 0)
(0.0115793 -4.08502e-05 0)
(0.0110854 0.00060746 0)
(0.0103495 0.00120852 0)
(0.00936884 0.00177799 0)
(0.00813532 0.0023391 0)
(0.00663224 0.00291949 0)
(0.00483549 0.00354838 0)
(0.00271301 0.00425363 0)
(0.000226808 0.00505947 0)
(-0.00266586 0.00598497 0)
(-0.00601014 0.00704338 0)
(-0.00985172 0.00824214 0)
(-0.0142347 0.00958345 0)
(-0.0191996 0.0110649 0)
(-0.0247815 0.0126799 0)
(-0.0310077 0.014418 0)
(-0.0378959 0.0162643 0)
(-0.045452 0.0181999 0)
(-0.0536677 0.0202008 0)
(-0.0625194 0.022238 0)
(-0.071967 0.0242782 0)
(-0.0819535 0.0262838 0)
(-0.0924056 0.0282145 0)
(-0.103236 0.0300282 0)
(-0.114345 0.031683 0)
(-0.125625 0.0331389 0)
(-0.136962 0.0343592 0)
(-0.148244 0.0353121 0)
(-0.15936 0.0359718 0)
(-0.170205 0.0363193 0)
(-0.180684 0.0363421 0)
(-0.190714 0.0360346 0)
(-0.20022 0.0353975 0)
(-0.209142 0.0344366 0)
(-0.21743 0.0331622 0)
(-0.225044 0.031588 0)
(-0.231954 0.0297304 0)
(-0.238137 0.0276073 0)
(-0.243577 0.0252377 0)
(-0.248262 0.0226409 0)
(-0.252185 0.0198363 0)
(-0.255339 0.016843 0)
(-0.257721 0.0136801 0)
(-0.259329 0.0103661 0)
(-0.260159 0.00691985 0)
(-0.260211 0.00336003 0)
(-0.259481 -0.000293994 0)
(-0.257967 -0.00402202 0)
(-0.255668 -0.00780255 0)
(-0.252581 -0.0116124 0)
(-0.248706 -0.0154264 0)
(-0.244043 -0.0192167 0)
(-0.238595 -0.0229529 0)
(-0.232368 -0.0266017 0)
(-0.225371 -0.0301267 0)
(-0.217618 -0.0334889 0)
(-0.209128 -0.0366466 0)
(-0.199928 -0.0395561 0)
(-0.190053 -0.0421727 0)
(-0.179545 -0.0444515 0)
(-0.168458 -0.0463489 0)
(-0.156854 -0.0478238 0)
(-0.144806 -0.0488399 0)
(-0.132397 -0.0493669 0)
(-0.119722 -0.0493824 0)
(-0.106879 -0.0488736 0)
(-0.0939786 -0.0478385 0)
(-0.0811321 -0.0462869 0)
(-0.0684547 -0.0442408 0)
(-0.0560608 -0.0417339 0)
(-0.0440618 -0.0388116 0)
(-0.0325633 -0.0355288 0)
(-0.0216628 -0.0319491 0)
(-0.0114478 -0.028142 0)
(-0.00199466 -0.0241814 0)
(0.00663272 -0.0201427 0)
(0.0143832 -0.0161015 0)
(0.0212187 -0.0121307 0)
(0.0271142 -0.00829961 0)
(0.0320582 -0.00467176 0)
(0.0360524 -0.00130359 0)
(0.0391121 0.00175696 0)
(0.0412665 0.00447175 0)
(0.0425589 0.00681348 0)
(0.0430454 0.00876656 0)
(0.0427951 0.0103274 0)
(0.0418876 0.0115042 0)
(0.0404111 0.0123164 0)
(0.0384587 0.0127931 0)
(0.0361263 0.0129707 0)
(0.0335069 0.0128916 0)
(0.0306907 0.0126007 0)
(0.0277576 0.0121436 0)
(0.024781 0.0115635 0)
(0.0218193 0.0108998 0)
(0.0189257 0.0101847 0)
(0.0161347 0.00944303 0)
(0.0134834 0.00868722 0)
(0.0109862 0.00792083 0)
(0.00867625 0.00713071 0)
(0.00655467 0.00629892 0)
(0.00466977 0.00539004 0)
(0.00301397 0.00438195 0)
(0.00167978 0.00324024 0)
(0.000648363 0.00198765 0)
(9.90452e-05 0.00064185 0)
(9.70527e-05 -0.00109175 0)
(0.000645709 -0.00300518 0)
(0.00165253 -0.00454957 0)
(0.0028889 -0.00569006 0)
(0.0043125 -0.006394 0)
(0.00576215 -0.00668114 0)
(0.00718141 -0.00658207 0)
(0.00846498 -0.00615727 0)
(0.00956913 -0.00547156 0)
(0.0104347 -0.00459904 0)
(0.01104 -0.00360814 0)
(0.0113599 -0.00256176 0)
(0.0113905 -0.00150948 0)
(0.0111258 -0.000487402 0)
(0.0105684 0.000484757 0)
(0.00971593 0.00140253 0)
(0.00856519 0.0022761 0)
(0.00710479 0.00312755 0)
(0.00531683 0.00398788 0)
(0.00317402 0.00489306 0)
(0.000641485 0.00588018 0)
(-0.00232306 0.00698377 0)
(-0.00576662 0.00823291 0)
(-0.0097391 0.00964933 0)
(-0.0142903 0.0112466 0)
(-0.0194675 0.0130302 0)
(-0.0253129 0.014998 0)
(-0.031861 0.017141 0)
(-0.0391359 0.0194439 0)
(-0.0471489 0.0218848 0)
(-0.0558958 0.0244354 0)
(-0.0653551 0.0270609 0)
(-0.0754863 0.0297201 0)
(-0.0862292 0.0323661 0)
(-0.0975049 0.0349474 0)
(-0.109217 0.0374095 0)
(-0.121256 0.0396978 0)
(-0.133503 0.041759 0)
(-0.145832 0.0435443 0)
(-0.158119 0.0450109 0)
(-0.170244 0.0461239 0)
(-0.182096 0.0468576 0)
(-0.193577 0.0471951 0)
(-0.2046 0.0471288 0)
(-0.215094 0.0466592 0)
(-0.225002 0.0457937 0)
(-0.234281 0.0445458 0)
(-0.242897 0.0429328 0)
(-0.250829 0.0409754 0)
(-0.258062 0.0386959 0)
(-0.264587 0.0361175 0)
(-0.270399 0.0332633 0)
(-0.275497 0.0301562 0)
(-0.279881 0.0268178 0)
(-0.28355 0.0232691 0)
(-0.286506 0.0195299 0)
(-0.288748 0.015619 0)
(-0.290274 0.0115548 0)
(-0.291082 0.00735532 0)
(-0.291169 0.00303853 0)
(-0.290528 -0.0013769 0)
(-0.289154 -0.00587131 0)
(-0.28704 -0.0104235 0)
(-0.284178 -0.01501 0)
(-0.280559 -0.019605 0)
(-0.276177 -0.0241794 0)
(-0.271025 -0.0287008 0)
(-0.265098 -0.0331329 0)
(-0.258394 -0.0374354 0)
(-0.250914 -0.0415643 0)
(-0.242665 -0.0454718 0)
(-0.23366 -0.0491071 0)
(-0.22392 -0.0524168 0)
(-0.213472 -0.0553465 0)
(-0.202356 -0.0578424 0)
(-0.190623 -0.0598523 0)
(-0.178334 -0.0613286 0)
(-0.165564 -0.0622298 0)
(-0.152401 -0.0625233 0)
(-0.138942 -0.062187 0)
(-0.125295 -0.0612119 0)
(-0.111577 -0.0596028 0)
(-0.0979102 -0.0573796 0)
(-0.0844179 -0.0545771 0)
(-0.0712232 -0.0512445 0)
(-0.0584441 -0.0474437 0)
(-0.046191 -0.0432473 0)
(-0.0345639 -0.0387363 0)
(-0.0236502 -0.0339968 0)
(-0.0135241 -0.0291175 0)
(-0.00424547 -0.024187 0)
(0.00413939 -0.0192915 0)
(0.0115974 -0.014513 0)
(0.018108 -0.00992759 0)
(0.0236623 -0.00560419 0)
(0.0282632 -0.00160334 0)
(0.0319248 0.00202398 0)
(0.0346733 0.00523747 0)
(0.0365468 0.00800864 0)
(0.0375959 0.0103217 0)
(0.0378827 0.0121739 0)
(0.0374808 0.013576 0)
(0.0364722 0.0145508 0)
(0.0349463 0.0151324 0)
(0.0329947 0.0153638 0)
(0.0307107 0.0152939 0)
(0.0281821 0.0149753 0)
(0.0254936 0.0144605 0)
(0.0227169 0.013799 0)
(0.0199205 0.0130339 0)
(0.0171535 0.0121999 0)
(0.0144684 0.0113182 0)
(0.011892 0.010398 0)
(0.00947065 0.00942985 0)
(0.00721351 0.00839425 0)
(0.00518166 0.00725291 0)
(0.00337189 0.00597185 0)
(0.0018954 0.00450519 0)
(0.000737672 0.00284618 0)
(0.000113897 0.000985838 0)
(0.00010345 -0.00141819 0)
(0.000685471 -0.00381987 0)
(0.00174303 -0.00570779 0)
(0.00302301 -0.00705621 0)
(0.00447242 -0.00784851 0)
(0.00591458 -0.00811726 0)
(0.00728803 -0.00791089 0)
(0.00848162 -0.00730663 0)
(0.00945184 -0.00638759 0)
(0.0101393 -0.00524381 0)
(0.010524 -0.00395801 0)
(0.0105817 -0.0026037 0)
(0.0103081 -0.00123787 0)
(0.00969554 0.000100031 0)
(0.00874219 0.00139036 0)
(0.00743943 0.0026321 0)
(0.0057755 0.00384144 0)
(0.00372877 0.00504835 0)
(0.00127003 0.00629249 0)
(-0.00163969 0.00761834 0)
(-0.00504628 0.00907024 0)
(-0.00900148 0.0106879 0)
(-0.0135593 0.0125031 0)
(-0.0187732 0.0145372 0)
(-0.0246928 0.0168006 0)
(-0.0313606 0.0192926 0)
(-0.0388085 0.0220024 0)
(-0.0470554 0.024909 0)
(-0.0561038 0.0279826 0)
(-0.0659373 0.0311841 0)
(-0.0765184 0.0344662 0)
(-0.0877878 0.0377733 0)
(-0.0996642 0.0410436 0)
(-0.112047 0.0442104 0)
(-0.124817 0.0472053 0)
(-0.137847 0.0499608 0)
(-0.150999 0.0524141 0)
(-0.16414 0.0545092 0)
(-0.177138 0.0562002 0)
(-0.189875 0.057452 0)
(-0.202246 0.0582415 0)
(-0.214161 0.0585571 0)
(-0.225549 0.0583976 0)
(-0.236355 0.0577712 0)
(-0.246539 0.0566932 0)
(-0.256072 0.0551843 0)
(-0.264938 0.0532691 0)
(-0.273128 0.0509741 0)
(-0.280639 0.0483268 0)
(-0.287472 0.0453546 0)
(-0.293631 0.0420837 0)
(-0.29912 0.0385394 0)
(-0.303945 0.034745 0)
(-0.308109 0.0307223 0)
(-0.311616 0.0264914 0)
(-0.314469 0.022071 0)
(-0.316667 0.0174786 0)
(-0.31821 0.012731 0)
(-0.319094 0.00784446 0)
(-0.319314 0.00283551 0)
(-0.318865 -0.00227882 0)
(-0.317737 -0.00748027 0)
(-0.31592 -0.0127488 0)
(-0.313404 -0.018062 0)
(-0.310174 -0.0233944 0)
(-0.306217 -0.0287171 0)
(-0.30152 -0.0339969 0)
(-0.296068 -0.0391962 0)
(-0.289847 -0.0442723 0)
(-0.282849 -0.0491778 0)
(-0.275064 -0.0538599 0)
(-0.26649 -0.0582617 0)
(-0.25713 -0.0623222 0)
(-0.246996 -0.0659778 0)
(-0.23611 -0.0691637 0)
(-0.224504 -0.0718159 0)
(-0.212225 -0.0738735 0)
(-0.199332 -0.0752817 0)
(-0.185901 -0.0759941 0)
(-0.172024 -0.0759759 0)
(-0.157805 -0.0752066 0)
(-0.143362 -0.0736822 0)
(-0.128824 -0.0714164 0)
(-0.114325 -0.0684417 0)
(-0.100003 -0.0648086 0)
(-0.0859933 -0.0605845 0)
(-0.0724264 -0.0558508 0)
(-0.0594208 -0.0507002 0)
(-0.0470822 -0.0452329 0)
(-0.0355001 -0.0395524 0)
(-0.024747 -0.0337625 0)
(-0.0148788 -0.027964 0)
(-0.00593532 -0.0222523 0)
(0.00205764 -0.016716 0)
(0.00908683 -0.0114351 0)
(0.0151499 -0.0064808 0)
(0.0202543 -0.00191464 0)
(0.0244169 0.0022124 0)
(0.0276641 0.00586065 0)
(0.0300325 0.00900278 0)
(0.0315688 0.0116247 0)
(0.0323312 0.0137262 0)
(0.0323873 0.0153212 0)
(0.0318148 0.0164365 0)
(0.0306971 0.0171112 0)
(0.0291238 0.0173937 0)
(0.0271829 0.017339 0)
(0.0249642 0.0170051 0)
(0.0225473 0.0164494 0)
(0.0200119 0.0157242 0)
(0.0174193 0.0148733 0)
(0.0148358 0.0139272 0)
(0.0123006 0.0129016 0)
(0.00987379 0.0117924 0)
(0.00757435 0.0105792 0)
(0.00547657 0.00922182 0)
(0.00358461 0.00767323 0)
(0.0020258 0.00587459 0)
(0.000792068 0.00378486 0)
(0.000122854 0.00136485 0)
(0.000108552 -0.00176457 0)
(0.000714325 -0.00467441 0)
(0.00180202 -0.00690661 0)
(0.00309599 -0.00844684 0)
(0.00453197 -0.00929771 0)
(0.00591966 -0.00950866 0)
(0.00719278 -0.00915005 0)
(0.008236 -0.00831914 0)
(0.00900671 -0.00711977 0)
(0.00944649 -0.005659 0)
(0.00953785 -0.00403399 0)
(0.00925744 -0.00232792 0)
(0.00860093 -0.000603488 0)
(0.00755764 0.00109869 0)
(0.0061208 0.00276142 0)
(0.00427391 0.00438947 0)
(0.00199531 0.00600701 0)
(-0.000748151 0.0076532 0)
(-0.00399774 0.00937685 0)
(-0.00780396 0.0112303 0)
(-0.0122224 0.0132636 0)
(-0.0173116 0.0155189 0)
(-0.0231283 0.0180268 0)
(-0.0297238 0.0208042 0)
(-0.0371398 0.0238532 0)
(-0.045405 0.0271613 0)
(-0.0545311 0.0307027 0)
(-0.0645102 0.0344385 0)
(-0.0753116 0.038318 0)
(-0.0868808 0.0422798 0)
(-0.0991387 0.0462531 0)
(-0.111983 0.0501597 0)
(-0.125292 0.0539177 0)
(-0.138928 0.0574446 0)
(-0.152747 0.0606615 0)
(-0.166601 0.0634974 0)
(-0.180349 0.0658917 0)
(-0.193862 0.0677975 0)
(-0.207026 0.0691819 0)
(-0.219745 0.0700267 0)
(-0.231944 0.0703267 0)
(-0.243565 0.0700884 0)
(-0.254569 0.0693277 0)
(-0.264929 0.0680674 0)
(-0.274631 0.0663352 0)
(-0.28367 0.0641614 0)
(-0.292046 0.0615777 0)
(-0.299764 0.0586157 0)
(-0.306833 0.055306 0)
(-0.313261 0.0516775 0)
(-0.319057 0.0477573 0)
(-0.32423 0.0435703 0)
(-0.328789 0.0391391 0)
(-0.332739 0.0344843 0)
(-0.336088 0.0296247 0)
(-0.33884 0.0245774 0)
(-0.340996 0.0193581 0)
(-0.342559 0.0139819 0)
(-0.343526 0.00846313 0)
(-0.343896 0.00281626 0)
(-0.343661 -0.00294366 0)
(-0.342815 -0.00880045 0)
(-0.341346 -0.0147361 0)
(-0.339242 -0.0207301 0)
(-0.336486 -0.0267588 0)
(-0.333062 -0.0327945 0)
(-0.328949 -0.0388052 0)
(-0.324124 -0.0447535 0)
(-0.318566 -0.0505961 0)
(-0.31225 -0.056284 0)
(-0.305155 -0.0617614 0)
(-0.29726 -0.0669668 0)
(-0.288552 -0.0718329 0)
(-0.279019 -0.0762877 0)
(-0.268662 -0.080256 0)
(-0.257491 -0.0836613 0)
(-0.245529 -0.0864285 0)
(-0.232815 -0.0884867 0)
(-0.219407 -0.0897727 0)
(-0.20538 -0.0902348 0)
(-0.190828 -0.0898362 0)
(-0.175866 -0.0885581 0)
(-0.160622 -0.0864029 0)
(-0.145242 -0.0833952 0)
(-0.129878 -0.0795825 0)
(-0.114687 -0.0750343 0)
(-0.0998228 -0.0698394 0)
(-0.0854323 -0.0641024 0)
(-0.0716486 -0.057939 0)
(-0.0585869 -0.0514711 0)
(-0.0463418 -0.0448215 0)
(-0.0349862 -0.03811 0)
(-0.0245721 -0.0314492 0)
(-0.0151322 -0.0249427 0)
(-0.00668303 -0.0186834 0)
(0.000772365 -0.0127532 0)
(0.00724122 -0.00722249 0)
(0.0127394 -0.00215076 0)
(0.01729 0.00241399 0)
(0.0209235 0.00643556 0)
(0.0236779 0.00989037 0)
(0.0256 0.0127683 0)
(0.026745 0.0150732 0)
(0.0271783 0.0168236 0)
(0.0269724 0.0180511 0)
(0.0262083 0.0187999 0)
(0.0249694 0.0191235 0)
(0.0233443 0.0190813 0)
(0.0214152 0.0187351 0)
(0.019268 0.0181437 0)
(0.0169727 0.0173585 0)
(0.0146062 0.0164184 0)
(0.0122192 0.0153451 0)
(0.00988409 0.0141404 0)
(0.00763106 0.0127836 0)
(0.00554681 0.0112331 0)
(0.0036451 0.00942892 0)
(0.0020658 0.00729892 0)
(0.000808531 0.00476705 0)
(0.000125083 0.00176306 0)
(0.000113223 -0.00212337 0)
(0.000734764 -0.00554869 0)
(0.00183271 -0.00811389 0)
(0.00311062 -0.00981824 0)
(0.0044925 -0.0106875 0)
(0.00577678 -0.0107926 0)
(0.00689326 -0.0102299 0)
(0.00772455 -0.0091201 0)
(0.00822994 -0.00758993 0)
(0.00835327 -0.00576421 0)
(0.00807981 -0.00375407 0)
(0.00738726 -0.00165077 0)
(0.00627043 0.000479522 0)
(0.00471484 0.00259774 0)
(0.00270721 0.0046919 0)
(0.000221812 0.00677499 0)
(-0.00277411 0.00888086 0)
(-0.0063258 0.0110586 0)
(-0.0104862 0.0133658 0)
(-0.0153156 0.0158607 0)
(-0.020876 0.0185958 0)
(-0.0272279 0.0216114 0)
(-0.0344238 0.0249317 0)
(-0.0425048 0.0285628 0)
(-0.0514952 0.0324919 0)
(-0.0613991 0.0366882 0)
(-0.0721969 0.0411041 0)
(-0.0838434 0.0456765 0)
(-0.0962662 0.0503293 0)
(-0.109367 0.0549753 0)
(-0.123023 0.0595203 0)
(-0.137093 0.0638668 0)
(-0.151424 0.0679191 0)
(-0.165859 0.0715882 0)
(-0.180244 0.0747966 0)
(-0.194436 0.0774813 0)
(-0.208309 0.079596 0)
(-0.221757 0.0811121 0)
(-0.234696 0.0820171 0)
(-0.247061 0.0823131 0)
(-0.25881 0.0820141 0)
(-0.269914 0.0811433 0)
(-0.280358 0.0797304 0)
(-0.290138 0.077809 0)
(-0.299254 0.0754145 0)
(-0.307716 0.072583 0)
(-0.315532 0.0693496 0)
(-0.322714 0.065748 0)
(-0.329277 0.0618098 0)
(-0.335233 0.0575641 0)
(-0.340595 0.0530378 0)
(-0.345376 0.0482551 0)
(-0.349589 0.0432378 0)
(-0.353245 0.0380054 0)
(-0.356354 0.0325754 0)
(-0.358925 0.0269634 0)
(-0.360965 0.0211835 0)
(-0.36248 0.0152486 0)