/*--------------------------------*- C++ -*----------------------------------*\
| =========                 |                                                 |
| \\      /  F ield         | OpenFOAM: The Open Source CFD Toolbox           |
|  \\    /   O peration     | Version:  2406                                  |
|   \\  /    A nd           | Website:  www.openfoam.com                      |
|    \\/     M anipulation  |                                                 |
\*---------------------------------------------------------------------------*/
FoamFile
{
    version     2.0;
    format      ascii;
    arch        "LSB;label=32;scalar=64";
    class       surfaceScalarField;
    location    "0.3";
    object      phi;
}
// * * * * * * * * * * * * * * * * * * * * * * * * * * * * * * * * * * * * * //

dimensions      [0 3 -1 0 0 0 0];

oriented        oriented;

internalField   nonuniform List<scalar> 
32512
(
-6.63178011586e-05
6.6317780796e-05
-6.6078079759e-05
0.000198793680088
-6.56791731163e-05
0.000330790663683
-6.51220232093e-05
0.000461990698244
-6.44079908089e-05
0.000592077743295
-6.35387923694e-05
0.00072073836848
-6.25165298113e-05
0.000847662628858
-6.13436244823e-05
0.000972544715956
-6.00229577038e-05
0.00109508382338
-5.85576995694e-05
0.00121498470466
-5.69513474737e-05
0.00133195849388
-5.52077877506e-05
0.00144572341653
-5.33312454788e-05
0.00155600540523
-5.13262249795e-05
0.00166253876227
-4.9197539791e-05
0.00176506684295
-4.6950331924e-05
0.00186334266777
-4.459002799e-05
0.00195712948735
-4.21223073595e-05
0.00204620135849
-3.95531053374e-05
0.00213034370578
-3.68886129294e-05
0.00220935383752
-3.41352568485e-05
0.00228304142478
-3.12996727336e-05
0.00235122895614
-2.83886876579e-05
0.00241375216933
-2.54093110379e-05
0.00247046045075
-2.23687213194e-05
0.00252121719733
-1.92742455484e-05
0.00256590014252
-1.61333394486e-05
0.00260440165082
-1.29535695983e-05
0.00263662897498
-9.74259527204e-06
0.00266250448485
-6.50815069995e-06
0.00268196584935
-3.25802767526e-06
0.00269496618917
-5.63788152232e-11
0.00270147418881
3.25791471409e-06
0.00270147417181
6.50803736059e-06
0.00269496613849
9.74248158602e-06
0.00268196576586
1.29534551978e-05
0.00266250436967
1.61332234344e-05
0.00263662882922
1.92741268098e-05
0.00260440147575
2.23685984998e-05
0.00256589993973
2.54091831422e-05
0.0025212169686
2.83885558715e-05
0.00247046019784
3.12995397303e-05
0.00241375189518
3.41351220466e-05
0.00235122866604
3.68884712488e-05
0.00228304112413
3.95529539471e-05
0.00220935352852
4.21221512156e-05
0.00213034338863
4.45898738115e-05
0.00204620103701
4.69501767668e-05
0.00195712917121
4.91973736415e-05
0.00186334236358
5.13260503929e-05
0.00176506654868
5.333107863e-05
0.00166253847496
5.52076280231e-05
0.00155600513646
5.69511777853e-05
0.00144572317762
5.85575273685e-05
0.00133195827537
6.00228065792e-05
0.00121498449899
6.13434851086e-05
0.00109508364955
6.25163812059e-05
0.000972544580957
6.35386692713e-05
0.000847662504405
6.44078864737e-05
0.000720738277343
6.51219386542e-05
0.000592077677607
6.56791055158e-05
0.000461990667841
6.60780448378e-05
0.000330790647311
6.63177956108e-05
0.000198793697755
6.6397780273e-05
6.6317821435e-05
6.63178061749e-05
-6.63178254799e-05
6.60780661311e-05
-0.000198793701967
6.56791378919e-05
-0.000330790651847
6.51219826227e-05
-0.000461990672797
6.44079425852e-05
-0.000592077682972
6.3538738013e-05
-0.00072073828303
6.2516463014e-05
-0.000847662510353
6.13435804438e-05
-0.000972544587166
6.00229158923e-05
-0.00109508365596
5.85576508986e-05
-0.00121498450537
5.69513153658e-05
-0.00133195828131
5.5207779097e-05
-0.00144572318276
5.33312424458e-05
-0.00155600514059
5.13262261489e-05
-0.00166253847793
4.91975604237e-05
-0.00176506655023
4.69503733566e-05
-0.00186334236376
4.45900785668e-05
-0.00195712916853
4.21223621561e-05
-0.00204620103244
3.95531690254e-05
-0.00213034338166
3.68886885697e-05
-0.00220935351911
3.4135339764e-05
-0.00228304111228
3.12997557131e-05
-0.00235122865163
2.83887676679e-05
-0.00241375187802
2.54093884552e-05
-0.00247046017791
2.23687955486e-05
-0.00252121694606
1.92743140029e-05
-0.00256589991466
1.61333988964e-05
-0.0026044014481
1.29536170407e-05
-0.00263662879919
9.74262863807e-06
-0.00266250433796
6.50816926929e-06
-0.00268196573343
3.25803132942e-06
-0.00269496610608
4.46626059895e-11
-0.00270147413982
-3.25794234541e-06
-0.00270147415744
-6.50808085523e-06
-0.00269496615859
-9.74254025349e-06
-0.00268196581987
-1.29535277171e-05
-0.0026625044572
-1.61333073922e-05
-0.00263662895028
-1.92742190002e-05
-0.0026044016301
-2.23686964924e-05
-0.00256590012601
-2.5409285726e-05
-0.00252121718444
-2.83886610183e-05
-0.00247046044081
-3.12996434452e-05
-0.00241375216292
-3.41352205674e-05
-0.00235122895549
-3.68885629716e-05
-0.00228304143159
-3.95530378338e-05
-0.00220935385045
-4.2122224365e-05
-0.00213034372156
-4.45899324126e-05
-0.00204620137674
-4.69502201722e-05
-0.00195712951277
-4.91974044096e-05
-0.00186334270274
-5.13260668367e-05
-0.00176506688341
-5.33310743915e-05
-0.00166253880259
-5.52076057403e-05
-0.00155600544993
-5.69511465164e-05
-0.00144572347262
-5.85574834552e-05
-0.00133195855524
-6.0022742568e-05
-0.00121498476286
-6.13434101607e-05
-0.00109508388916
-6.25163094755e-05
-0.000972544795316
-6.35385847559e-05
-0.000847662704133
-6.44078019949e-05
-0.000720738454413
-6.51218638013e-05
-0.000592077826337
-6.56790336775e-05
-0.000461990806198
-6.60779900289e-05
-0.000330790756372
-6.63177574275e-05
-0.000198793788513
-6.63178942428e-05
-0.000198793711006
6.60780591774e-05
-0.00019807507536
0.000198075044442
-0.000196879246052
0.000329594834375
-0.00019520913392
0.000460320586112
-0.000193068725975
0.00058993733535
-0.000190463195733
0.000718132838238
-0.000187398811714
0.000844598244839
-0.000183882991291
0.000969028895533
-0.000179924154263
0.00109112498635
-0.000175531851844
0.00121059240224
-0.000170716697848
0.00132714333988
-0.000165490274589
0.00144049699327
-0.000159865152621
0.00155038028326
-0.000153854899787
0.00165652850944
-0.000147474010576
0.00175868595373
-0.00014073784667
0.00185660650387
-0.000133662625736
0.00195005426642
-0.000126265398187
0.00203880413094
-0.000118563993513
0.00212264230111
-0.000110576965167
0.00220136680917
-0.000102323548791
0.00227478800841
-9.38236253532e-05
0.0023427290327
-8.50976750881e-05
0.00240502621906
-7.61667223132e-05
0.00246152949797
-6.7052281835e-05
0.00251210275685
-5.77763093553e-05
0.00255662417004
-4.83611506653e-05
0.00259498649213
-3.88294878504e-05
0.00262709731216
-2.92042839741e-05
0.00265287928098
-1.95087269248e-05
0.0026722702923
-9.76617328505e-06
0.00268522363553
-9.28281484958e-11
0.00269170810836
9.76598748036e-06
0.0026917080915
1.95085407099e-05
0.00268522358526
2.92040969975e-05
0.00267227020957
3.88292993694e-05
0.0026528791673
4.83609596227e-05
0.00262709716897
5.77761150587e-05
0.00259498632031
6.70520844163e-05
0.00255662397037
7.61665217927e-05
0.00251210253122
8.50974697284e-05
0.0024615292499
9.382341257e-05
0.00240502595234
0.000102323328979
0.00234272874964
0.000110576742327
0.00227478771078
0.000118563769442
0.00220136650141
0.000126265168488
0.00212264198959
0.000133662385689
0.00203880381981
0.000140737600221
0.00195005395668
0.000147473767084
0.00185660619672
0.000153854658091
0.00175868565767
0.000159864900856
0.0016565282322
0.000165490015749
0.00155038002157
0.000170716450854
0.00144049674252
0.000175531614837
0.00132714311139
0.000179923907374
0.00121059220645
0.000183882746917
0.00109112481
0.000187398595947
0.000969028731928
0.00019046298401
0.000844598116342
0.00019306852841
0.000718132732943
0.000195208952089
0.000589937253928
0.000196879098567
0.000460320521363
0.000198074944216
0.000329594801662
0.000198793608047
0.000198075033925
0.000199033358767
6.60780707146e-05
0.000198793618876
-6.60780855885e-05
0.000198074965932
-0.000198075049024
0.000196879131244
-0.000329594817159
0.000195208995859
-0.000460320537412
0.000193068583604
-0.000589937270716
0.00019046305119
-0.000718132750616
0.000187398675706
-0.000844598134869
0.000183882839603
-0.000969028751063
0.000179924013036
-0.0010911248294
0.000175531733422
-0.00121059222575
0.000170716582371
-0.00132714313026
0.000165490160184
-0.00144049676057
0.000159865057952
-0.00155038003836
0.000153854827202
-0.00165652824718
0.000147473947215
-0.00175868567024
0.000140737790146
-0.00185660620669
0.000133662584048
-0.00195005396243
0.000126265373774
-0.00203880382217
0.000118563979869
-0.00212264198775
0.000110576955644
-0.00220136649489
0.000102323542519
-0.00227478769915
9.38236236733e-05
-0.00234272873279
8.50976761557e-05
-0.00240502593051
7.61667216246e-05
-0.00246152922338
6.70522756654e-05
-0.0025121025001
5.77762957878e-05
-0.00255662393478
4.83611285229e-05
-0.00259498628083
3.88294557941e-05
-0.00262709712646
2.92042402331e-05
-0.0026528791224
1.95086695929e-05
-0.00267227016279
9.76610091734e-06
-0.0026852235374
4.66199591913e-12
-0.00269170804356
-9.76609168221e-06
-0.0026917080611
-1.95086605388e-05
-0.00268522358973
-2.92042310964e-05
-0.00267227024932
-3.88294458613e-05
-0.00265287924243
-4.83611169288e-05
-0.00262709727922
-5.77762817823e-05
-0.00259498646525
-6.70522583816e-05
-0.00255662414941
-7.61667000168e-05
-0.0025121027428
-8.50976497392e-05
-0.00246152949109
-9.38235927584e-05
-0.0024050262199
-0.000102323506938
-0.00234272904131
-0.000110576914129
-0.0022747880244
-0.000118563931733
-0.00220136683285
-0.000126265320285
-0.002122642333
-0.000133662526758
-0.00203880417027
-0.000140737728066
-0.00195005431146
-0.000147473877989
-0.00185660655282
-0.000153854752681
-0.00175868600872
-0.000159864983656
-0.00165652857161
-0.000165490085387
-0.0015503803482
-0.000170716502043
-0.00144049705596
-0.000175531652489
-0.00132714340479
-0.000179923939546
-0.00121059247581
-0.000183882768874
-0.00109112505983
-0.000187398606321
-0.000969028957869
-0.00019046299458
-0.000844598315874
-0.000193068545917
-0.000718132903076
-0.000195208961928
-0.000589937410325
-0.000196879129348
-0.000460320638779
-0.000198074979924
-0.000329594905795
-0.000198793659313
-0.000198075109125
-6.60781209313e-05
-0.000330790683643
6.56791427251e-05
-0.000329594873217
0.000196879234016
-0.000327605026373
0.000327604987531
-0.000324825938273
0.000457541498012
-0.000321264315509
0.000586375712586
-0.000316928744073
0.000713797266802
-0.000311829650798
0.000839499151564
-0.000305979314751
0.000963178559487
-0.000299391864542
0.00108453753614
-0.000292083154422
0.00120328369212
-0.000284070771183
0.00131913095664
-0.000275374035031
0.00143180025711
-0.0002660139113
0.00154102015953
-0.000256012936586
0.00164652753472
-0.000245395196736
0.00174806821388
-0.00023418627992
0.00184539758705
-0.000222413196222
0.00193828118272
-0.000210104304514
0.00202649523923
-0.000197289253096
0.00210982724969
-0.000183998915765
0.00218807647184
-0.000170265314681
0.00226105440732
-0.000156121536612
0.00232858525463
-0.000141601652621
0.00239050633507
-0.000126740640646
0.002446668486
-0.000111574302886
0.00249693641909
-9.61391773972e-05
0.00254118904455
-8.04724486618e-05
0.0025793197634
-6.46118583984e-05
0.0026112367219
-4.85956152089e-05
0.00263686303779
-3.24623029902e-05
0.00265613698009
-1.62507881594e-05
0.0026690121207
-1.25441495867e-10
0.00267545744564
1.62505367187e-05
0.00267545742934
3.24620499835e-05
0.00266901207199
4.85953599025e-05
0.00265613689966
6.46116003917e-05
0.00263686292681
8.04721877493e-05
0.00261123658161
9.61389130842e-05
0.00257931959498
0.000111574033942
0.00254118884952
0.000126740365807
0.00249693619936
0.000141601372164
0.00244666824355
0.000156121252102
0.0023905060724
0.00017026502605
0.00232858497569
0.000183998620212
0.00226105411662
0.000197288949022
0.0021880761726
0.00021010399487
0.00210982694374
0.000222412885027
0.00202649492966
0.00023418596592
0.00193828087578
0.000245394874639
0.001845397288
0.000256012607384
0.00174806792493
0.000266013584596
0.00164652725498
0.000275373712607
0.00154101989356
0.000284070441649
0.00143180001348
0.000292082820075
0.00131913073296
0.00029939154476
0.00120328348177
0.000305979007711
0.00108453734705
0.000311829338702
0.000963178400938
0.000316928443551
0.000839499011492
0.000321264037891
0.000713797138603
0.00032482567657
0.000586375615249
0.000327604778893
0.000457541419041
0.000329594649488
0.000327604931067
0.000330790494517
0.000196879188896
0.000331189433127
6.56791321042e-05
0.000330790504306
-6.56791567678e-05
0.000329594669208
-0.000196879213926
0.000327604808863
-0.000327604956813
0.000324825717201
-0.00045754144575
0.00032126408947
-0.000586375642986
0.000316928506159
-0.000713797167305
0.000311829412409
-0.000839499041119
0.000305979092843
-0.000963178431498
0.000299391641854
-0.00108453737841
0.000292082929548
-0.00120328351345
0.000284070563551
-0.00131913076426
0.000275373846687
-0.00143180004371
0.0002660137305
-0.00154101992217
0.000256012764699
-0.00164652728138
0.000245395042769
-0.00174806794831
0.00023418614395
-0.00184539730787
0.000222413071666
-0.00193828089015
0.000210104188424
-0.00202649493892
0.000197289147474
-0.0021098269468
0.000183998821427
-0.00218807616884
0.00017026522792
-0.00226105410564
0.000156121452423
-0.00232858495729
0.000141601568475
-0.00239050604656
0.000126740555613
-0.00244666821052
0.000111574215171
-0.00249693615966
9.61390840877e-05
-0.0025411888037
8.04723468872e-05
-0.00257931954363
6.46117460271e-05
-0.0026112365256
4.85954909166e-05
-0.00263686286729
3.24621659894e-05
-0.00265613683787
1.62506377494e-05
-0.00266901200916
-3.90987036377e-11
-0.00267545736672
-1.62507157611e-05
-0.00267545738444
-3.24622432748e-05
-0.00266901206222
-4.85955666653e-05
-0.00265613692593
-6.46118193797e-05
-0.00263686298972
-8.04724171816e-05
-0.00261123668141
-9.61391509929e-05
-0.00257931973144
-0.00011157427881
-0.0025411890216
-0.000126740616374
-0.00249693640524
-0.000141601626268
-0.00244666848119
-0.000156121506443
-0.00239050633973
-0.000170265277693
-0.00232858527006
-0.000183998867447
-0.00226105443465
-0.000197289190151
-0.00218807651014
-0.000210104227209
-0.00210982729595
-0.000222413105822
-0.00202649529165
-0.000234186174377
-0.00193828124291
-0.000245395070183
-0.00184539765701
-0.000256012789335
-0.00174806828957
-0.000266013750698
-0.00164652761025
-0.0002753738641
-0.0015410202348
-0.000284070582898
-0.00143180033717
-0.00029208295064
-0.00131913103705
-0.000299391663231
-0.00120328376321
-0.000305979120465
-0.0010845376026
-0.00031182944904
-0.000963178629294
-0.000316928552765
-0.000839499212149
-0.00032126414275
-0.000713797313091
-0.000324825796545
-0.000586375756531
-0.000327604897369
-0.000457541537955
-0.000329594783804
-0.00032760501936
-0.000330790646382
-0.000196879246547
-6.56791672172e-05
-0.000461990747699
6.51220083635e-05
-0.00046032061344
0.000195209099757
-0.000457541538539
0.000324825912629
-0.000453660193948
0.000453660153421
-0.000448685942432
0.000581401461071
-0.000442630741675
0.000707742066044
-0.000435509219603
0.000832377629492
-0.00042733851575
0.000955007855635
-0.000418138299667
0.00107533732006
-0.000407930748871
0.00119307614133
-0.000396740465171
0.00130794067294
-0.000384594397878
0.00141965418982
-0.000371521801798
0.00152794756345
-0.000357554178406
0.00163255991133
-0.000342725182341
0.00173323921782
-0.000327070534485
0.0018297429392
-0.000310627945053
0.00192183859329
-0.000293437028073
0.00200930432225
-0.000275539202024
0.00209192942364
-0.000256977585042
0.00216951485486
-0.000237796891543
0.00224187371382
-0.000218043328265
0.00230883169136
-0.000197764484309
0.00237022749112
-0.000177009214719
0.00242591321641
-0.00015582752101
0.00247575472538
-0.000134270430789
0.00251963195433
-0.00011238987584
0.00255743920845
-9.02385676304e-05
0.00258908541369
-6.78698701472e-05
0.0026144943403
-4.53376711065e-05
0.00263360478104
-2.26962520574e-05
0.00264637070165
-1.57625861249e-10
0.00265276135121
2.26959360059e-05
0.00265276133571
4.53373529746e-05
0.00264637065502
6.78695492676e-05
0.00263360470336
9.02382436773e-05
0.0026144942324
0.000112389548501
0.00258908527679
0.000134270099782
0.0025574390437
0.000155827186028
0.00251963176327
0.00017700887489
0.0024757545105
0.000197764138047
0.00242591298039
0.000218042974408
0.00237022723604
0.000237796530739
0.00230883141936
0.000256977219116
0.00224187342824
0.000275538831402
0.00216951456031
0.000293436650733
0.00209192912441
0.000310627559416
0.00200930402097
0.000327070142709
0.00192183829249
0.000342724788442
0.00182974264227
0.000357553782557
0.00173323893081
0.000371521400099
0.00163255963744
0.00038459399127
0.00152794730238
0.000396740062381
0.00141965394236
0.000407930351731
0.00130794044361
0.000418137900243
0.00119307593326
0.000427338116452
0.00107533713084
0.000435508835637
0.000955007681752
0.000442630373191
0.000832377473938
0.000448685572161
0.000707741939633
0.000453659844674
0.000581401342736
0.000457541207014
0.000453660056701
0.00046032030838
0.000324825829701
0.000461990453459
0.000195209043816
0.000462547618656
6.51219669075e-05
0.000461990461778
-6.51219998899e-05
0.000460320325187
-0.000195209077335
0.000457541232547
-0.000324825864173
0.000453659879194
-0.000453660092397
0.000448685616022
-0.000581401379815
0.00044263042689
-0.000707741978172
0.000435508899697
-0.000832377513926
0.00042733819127
-0.000955007723071
0.000418137986085
-0.00107533717322
0.000407930448826
-0.00119307597619
0.000396740170919
-0.00130794048635
0.000384594111241
-0.00141965398403
0.000371521531187
-0.00152794734212
0.000357553924206
-0.0016325596744
0.000342724939936
-0.00173323896404
0.000327070302741
-0.00182974267067
0.000310627727518
-0.00192183831492
0.000293436824987
-0.00200930403639
0.000275539010127
-0.00209192913194
0.0002569774005
-0.00216951455922
0.000237796712772
-0.00224187341791
0.000218043154938
-0.00230883139945
0.000197764315001
-0.00237022720662
0.000177009046351
-0.00242591294187
0.000155827350083
-0.00247575446339
0.000134270254522
-0.00251963170814
0.000112389692294
-0.00255743898141
9.02383752824e-05
-0.00258908520859
6.78696676346e-05
-0.00261449415964
4.53374572085e-05
-0.00263360462744
2.2696025744e-05
-0.0026463705777
-8.18805583482e-11
-0.00265276125909
-2.26961890684e-05
-0.00265276127725
-4.5337619318e-05
-0.00264637063197
-6.78698280083e-05
-0.00263360471724
-9.02385337149e-05
-0.00261449428401
-0.000112389848789
-0.00258908536634
-0.000134270409045
-0.00255743917118
-0.000155827502369
-0.00251963192827
-0.000177009196013
-0.0024757547116
-0.000197764461792
-0.00242591321541
-0.000218043298756
-0.00237022750276
-0.000237796853462
-0.00230883171535
-0.000256977537899
-0.00224187375021
-0.000275539144287
-0.00216951490376
-0.000293436956193
-0.00209192948404
-0.000310627856024
-0.00200930439182
-0.000327070428815
-0.00192183867012
-0.00034272506266
-0.00182974302317
-0.000357554045028
-0.0017332393072
-0.000371521651571
-0.00163256000371
-0.00038459423116
-0.00152794765521
-0.000396740290194
-0.00141965427813
-0.000407930570174
-0.00130794075707
-0.000418138112428
-0.00119307622096
-0.000427338323763
-0.00107533739126
-0.000435509038525
-0.000955007914531
-0.000442630575749
-0.000832377674926
-0.00044868577937
-0.00070774210947
-0.000453660053683
-0.000581401482218
-0.000457541425418
-0.000453660166219
-0.000460320543783
-0.000324825900995
-0.000461990694214
-0.000195209096117
-6.51219793696e-05
-0.000592077780196
6.44079805493e-05
-0.000589937381931
0.000193068701492
-0.000586375763815
0.000321264294513
-0.000581401501285
0.000448685890892
-0.000575026591088
0.000575026550874
-0.000567266394809
0.000699981869765
-0.000558139584797
0.000823250819481
-0.000547668164449
0.000944536435286
-0.000535877367476
0.00106354652309
-0.000522795591689
0.00117999436554
-0.000508454349513
0.00129359943077
-0.000492888195881
0.00140408803619
-0.000476134634795
0.00151119400237
-0.000458234025498
0.00161465930203
-0.000439229490323
0.00171423468264
-0.000419166815412
0.00180968026429
-0.000398094336431
0.00190076611431
-0.000376062819086
0.00198727280491
-0.000353125338298
0.00206899194286
-0.000329337152773
0.00214572666934
-0.000304755571824
0.00221729213288
-0.000279439815551
0.00228351593508
-0.000253450871385
0.00234423854695
-0.000226851348131
0.00239931369315
-0.000199705326207
0.00244860870345
-0.000172078203086
0.00249200483121
-0.00014403653474
0.0025293975401
-0.000115647875113
0.00256069675406
-8.69806139229e-05
0.00258582707911
-5.81038123009e-05
0.00260472797942
-2.90870362447e-05
0.0026173539256
-1.88811157166e-10
0.00262367450377
2.90866582192e-05
0.00262367448868
5.81034329827e-05
0.00261735388026
8.69802323812e-05
0.00260472790396
0.000115647490644
0.00258582697413
0.000144036146821
0.00256069662061
0.000172077810883
0.00252939737964
0.000199704928481
0.00249200464567
0.000226850943977
0.002448608495
0.000253450460769
0.0023993134636
0.00027943939864
0.00234423829817
0.000304755148075
0.00228351566992
0.000329336721215
0.0022172918551
0.000353124898826
0.0021457263827
0.000376062372875
0.00206899165036
0.000398093884539
0.00198727250931
0.000419166357424
0.0019007658196
0.000439229025522
0.00180967997417
0.000458233555519
0.00171423440082
0.000476134163111
0.00161465902985
0.000492887723279
0.00151119374222
0.000508453874319
0.00140408779132
0.000522795115189
0.00129359920274
0.000535876895812
0.00117999415263
0.000547667700219
0.00106354632644
0.000558139122506
0.000944536259465
0.000567265935365
0.000823250661079
0.000575026150892
0.000699981724106
0.000581401073512
0.000575026420116
0.000586375345023
0.000448685785191
0.000589936981644
0.00032126419308
0.000592077402905
0.000193068622555
0.000592791452266
6.4407917547e-05
0.000592077409498
-6.44079571218e-05
0.00058993699487
-0.000193068662708
0.000586375365071
-0.000321264234373
0.000581401100771
-0.000448685828098
0.000575026185888
-0.000575026464931
0.000567265978648
-0.000699981770932
0.000558139174602
-0.00082325070988
0.000547667761615
-0.000944536310084
0.000535876966905
-0.00106354637851
0.000522795196243
-0.00117999420553
0.000508453965476
-0.00129359925558
0.000492887824585
-0.00140408784314
0.000476134274441
-0.00151119379197
0.000458233676459
-0.00161465907642
0.00043922915535
-0.00171423444294
0.000419166495582
-0.00180968001091
0.000398094029189
-0.00190076584853
0.00037606252312
-0.00198727253032
0.000353125053132
-0.00206899166195
0.000329336877857
-0.00214572638394
0.000304755305265
-0.00221729184532
0.000279439554573
-0.00228351564876
0.000253450613582
-0.00234423826563
0.000226851091793
-0.00239931342008
0.000199705069581
-0.00244860844118
0.000172077943808
-0.00249200458236
0.000144036270263
-0.00252939730786
0.00011564760338
-0.00256069654171
8.6980333468e-05
-0.00258582688973
5.81035219497e-05
-0.00260472781592
2.90867349562e-05
-0.00261735379071
-1.24196539437e-10
-0.00262367439994
-2.90869833362e-05
-0.00262367441811
-5.81037702376e-05
-0.00261735384507
-8.69805814322e-05
-0.00260472790604
-0.000115647850588
-0.00258582701486
-0.000144036516195
-0.00256069670073
-0.000172078188082
-0.0025293974993
-0.000199705312035
-0.00249200480432
-0.0002268513323
-0.00244860869133
-0.000253450851909
-0.00239931369581
-0.000279439790447
-0.00234423856422
-0.000304755538533
-0.00228351596727
-0.000329337108595
-0.00221729218015
-0.000353125281545
-0.00214572673081
-0.000376062749229
-0.00206899201635
-0.000398094253017
-0.00198727288804
-0.000419166716908
-0.00190076620623
-0.000439229376615
-0.00180968036346
-0.000458233897518
-0.0017142347863
-0.000476134495575
-0.00161465940565
-0.000492888046741
-0.00151119410404
-0.000508454189964
-0.00140408813491
-0.000522795423956
-0.00129359952308
-0.00053587719848
-0.00117999444644
-0.00054766799868
-0.00106354659106
-0.000558139420115
-0.000944536493096
-0.000567266233386
-0.000823250861655
-0.000575026451669
-0.000699981891187
-0.000581401381109
-0.000575026552778
-0.000586375665202
-0.000448685882126
-0.000589937302421
-0.000321264263777
-0.000592077753634
-0.000193068644903
-6.4407924994e-05
-0.000720738411915
6.35387834069e-05
-0.000718132889367
0.000190463178945
-0.00071379730349
0.000316928708635
-0.000707742133107
0.000442630720509
-0.000699981920104
0.000567266337871
-0.000690535391945
0.000690535341605
-0.000679425299791
0.000812140727327
-0.00066667840868
0.000931789544175
-0.000652325423325
0.00104919353773
-0.000636400927015
0.00116406986923
-0.000618943285543
0.0012761417893
-0.000599994554826
0.00138513930547
-0.000579600384798
0.00149079983234
-0.000557809908337
0.00159286882557
-0.000534675622144
0.00169110039645
-0.000510253259549
0.00178525790169
-0.000484601657039
0.0018751145118
-0.000457782612479
0.00196045376035
-0.000429860736084
0.00204107006646
-0.000400903294682
0.00211676922793
-0.000370980049618
0.00218736888781
-0.000340163088858
0.00225269897432
-0.000308526653398
0.00231260211149
-0.000276146958242
0.002366933998
-0.000243102008631
0.00241556375384
-0.000209471412266
0.00245837423484
-0.000175336187572
0.00249526231541
-0.00014077856852
0.00252613913501
-0.000105881806608
0.0025509303172
-7.0729970366e-05
0.00256957614318
-3.54077427076e-05
0.00258203169794
-2.16918441345e-10
0.00258826697798
3.54073082848e-05
0.00258826696348
7.07295342653e-05
0.00258203165428
0.000105881367898
0.00256957607033
0.000140778126404
0.00255093021563
0.000175335741314
0.0025261390057
0.000209470961099
0.00249526215985
0.000243101551767
0.002458374055
0.000276146494965
0.0024155635518
0.00030852618305
0.00236693377551
0.000340162610851
0.00231260187037
0.000370979563626
0.00225269871715
0.000400902800692
0.00218736861803
0.000429860234232
0.00211676894916
0.000457782102929
0.00204106978166
0.00048460114008
0.00196045347216
0.000510252735706
0.00187511422398
0.00053467509218
0.0017852576177
0.000557809373104
0.00169110011989
0.000579599845074
0.00159286855788
0.000599994011994
0.0014907995753
0.000618942741544
0.00138513906177
0.000636400383544
0.00127614156074
0.000652324879972
0.00116406965621
0.000666677866356
0.00104919334005
0.0006794247642
0.000931789361621
0.000690534864255
0.000812140561025
0.000699981400514
0.000690535187847
0.000707741614759
0.00056726620587
0.000713796811442
0.000442630588508
0.000718132402693
0.000316928601829
0.00072073794343
0.000190463081818
0.000721607156523
6.35387044549e-05
0.000720737947944
-6.35387485433e-05
0.000718132411838
-0.000190463126602
0.000713796825458
-0.000316928647992
0.000707741634019
-0.000442630636659
0.00069998142552
-0.000567266256433
0.000690534895588
-0.000690535240999
0.000679424802433
-0.000812140616725
0.000666677912002
-0.000931789419652
0.000652324933486
-0.0010491934
0.000636400445323
-0.00116406971736
0.000618942811877
-0.00127614162214
0.000599994090991
-0.00138513912225
0.000579599932646
-0.00149079963363
0.000557809468969
-0.00159286861274
0.00053467519585
-0.00169110016982
0.000510252846096
-0.00178525766115
0.00048460125701
-0.00187511425944
0.000457782224899
-0.00196045349821
0.000429860359957
-0.00204106979701
0.000400902928718
-0.0021167689527
0.000370979692369
-0.00218736860897
0.000340162738673
-0.00225269869507
0.000308526308301
-0.00231260183526
0.000276146616006
-0.00236693372778
0.000243101667023
-0.00241556349219
0.000209471069144
-0.00245837398448
0.000175335840934
-0.00249526207965
0.000140778216613
-0.00252613891739
0.000105881447933
-0.00255093012105
7.07296036267e-05
-0.00256957597161
3.54073668265e-05
-0.00258203155391
-1.68919447648e-10
-0.00258826686419
-3.54077045806e-05
-0.00258826688245
-7.07299411108e-05
-0.00258203160854
-0.000105881784933
-0.00256957606222
-0.000140778552882
-0.00255093024691
-0.000175336176209
-0.00252613907741
-0.00020947140322
-0.00249526227229
-0.000243101999815
-0.00245837420772
-0.000276146947478
-0.00241556374367
-0.000308526638355
-0.00236693400493
-0.000340163067187
-0.00231260213539
-0.000370980019316
-0.00225269901514
-0.000400903254217
-0.00218736894525
-0.000429860684202
-0.00211676930082
-0.000457782548001
-0.00204107015256
-0.000484601579028
-0.00196045385701
-0.000510253167786
-0.00187511461747
-0.000534675517354
-0.00178525801389
-0.000557809791299
-0.00169110051235
-0.000579600256317
-0.00159286894063
-0.00059999441671
-0.00149079994365
-0.000618943140602
-0.00138513941102
-0.000636400777873
-0.00127614188581
-0.000652325271065
-0.00116406995324
-0.00066667825594
-0.00104919360619
-0.000679425154236
-0.0009317895948
-0.000690535256443
-0.000812140759448
-0.000699981797091
-0.000690535350539
-0.000707742019062
-0.000567266330806
-0.00071379722204
-0.000442630679148
-0.000718132833107
-0.00031692865271
-0.000720738375601
-0.000190463102409
-6.35386915383e-05
-0.000847662663227
6.25165035245e-05
-0.000844598302176
0.000187398817893
-0.000839499212397
0.000311829618856
-0.000832377682184
0.000435509190296
-0.000823250885018
0.000558139540705
-0.000812140790842
0.00067942524743
-0.00079907417418
0.000799074110665
-0.000784082512287
0.000916797882282
-0.000767201923774
0.00103231294922
-0.00074847307703
0.00114534102249
-0.000727941091246
0.00125560980351
-0.000705655430482
0.00136285364471
-0.000681669785253
0.00146681418711
-0.000656041940656
0.00156724098098
-0.000628833637366
0.00166389209316
-0.000600110422881
0.00175653468721
-0.000569941495262
0.00184494558418
-0.000538399535649
0.00192891180074
-0.000505560532212
0.00200823106302
-0.000471503597261
0.00208271229298
-0.000436310777203
0.00215217606775
-0.000400066855078
0.0022164550522
-0.000362859146076
0.00227539440249
-0.000324777286841
0.00232885213876
-0.00028591301949
0.00237669948649
-0.0002463599708
0.00241882118615
-0.000206213426843
0.00245511577145
-0.000165570103362
0.00248549581153
-0.000124527912715
0.00250988812656
-8.31857281737e-05
0.00252823395864
-4.16431456788e-05
0.00254048911544
-2.43728745839e-10
0.00254662407603
4.16426576893e-05
0.00254662406206
8.318523854e-05
0.00254048907343
0.000124527420313
0.00252823388856
0.000165569607205
0.00250988802873
0.000206212926094
0.00248549568681
0.000246359464656
0.00245511562129
0.000285912507177
0.00241882101248
0.000324776767632
0.00237669929135
0.000362858619211
0.00232885192393
0.000400066319843
0.00227539416974