/*--------------------------------*- C++ -*----------------------------------*\
| =========                 |                                                 |
| \\      /  F ield         | OpenFOAM: The Open Source CFD Toolbox           |
|  \\    /   O peration     | Version:  2406                                  |
|   \\  /    A nd           | Website:  www.openfoam.com                      |
|    \\/     M anipulation  |                                                 |
\*---------------------------------------------------------------------------*/
FoamFile
{
    version     2.0;
    format      ascii;
    arch        "LSB;label=32;scalar=64";
    class       surfaceScalarField;
    location    "47.4";
    object      phi;
}
// * * * * * * * * * * * * * * * * * * * * * * * * * * * * * * * * * * * * * //

dimensions      [0 3 -1 0 0 0 0];

oriented        oriented;

internalField   nonuniform List<scalar> 
28560
(
-3.66297e-09
3.65811e-09
5.07343e-08
-5.43972e-08
1.80199e-07
-1.29465e-07
3.71935e-07
-1.91736e-07
6.07159e-07
-2.35224e-07
8.66025e-07
-2.58865e-07
1.13018e-06
-2.64155e-07
1.38409e-06
-2.53912e-07
1.61582e-06
-2.31724e-07
1.81731e-06
-2.01491e-07
1.98437e-06
-1.67065e-07
2.1163e-06
-1.31928e-07
2.21524e-06
-9.89424e-08
2.28543e-06
-7.01867e-08
2.33232e-06
-4.6895e-08
2.36181e-06
-2.94812e-08
2.37951e-06
-1.77094e-08
2.3899e-06
-1.03818e-08
2.39612e-06
-6.22101e-09
2.39974e-06
-3.62628e-09
2.40039e-06
-6.42039e-10
2.39672e-06
3.66607e-09
2.38563e-06
1.10884e-08
2.36302e-06
2.26148e-08
2.32415e-06
3.88682e-08
2.26394e-06
6.0213e-08
2.17712e-06
8.68129e-08
2.05839e-06
1.18728e-07
1.9024e-06
1.55998e-07
1.70371e-06
1.98689e-07
1.4568e-06
2.46908e-07
1.15602e-06
3.0078e-07
7.95614e-07
3.60406e-07
3.698e-07
4.25814e-07
-1.27112e-07
4.96912e-07
-7.00566e-07
5.73454e-07
-1.35558e-06
6.5501e-07
-2.09652e-06
7.40947e-07
-2.92695e-06
8.30423e-07
-3.84932e-06
9.22379e-07
-4.86487e-06
1.01554e-06
-5.97332e-06
1.10845e-06
-7.17277e-06
1.19945e-06
-8.45951e-06
1.28674e-06
-9.82792e-06
1.36841e-06
-1.12704e-05
1.44245e-06
-1.27772e-05
1.50685e-06
-1.43368e-05
1.55959e-06
-1.59355e-05
1.59871e-06
-1.75579e-05
1.62235e-06
-1.91866e-05
1.62877e-06
-2.08031e-05
1.61645e-06
-2.23871e-05
1.58402e-06
-2.39175e-05
1.53038e-06
-2.53722e-05
1.45466e-06
-2.67284e-05
1.35628e-06
-2.79634e-05
1.23496e-06
-2.90542e-05
1.09077e-06
-2.99783e-05
9.24171e-07
-3.07143e-05
7.3599e-07
-3.12426e-05
5.28306e-07
-3.15442e-05
3.0155e-07
-3.15976e-05
5.33839e-08
-3.13938e-05
-2.03772e-07
-3.09215e-05
-4.72317e-07
-3.01728e-05
-7.48676e-07
-2.91447e-05
-1.02807e-06
-2.7839e-05
-1.30571e-06
-2.62626e-05
-1.57642e-06
-2.44279e-05
-1.8347e-06
-2.23531e-05
-2.07483e-06
-2.0062e-05
-2.29103e-06
-1.75844e-05
-2.47765e-06
-1.4955e-05
-2.62938e-06
-1.22135e-05
-2.74153e-06
-9.40329e-06
-2.8102e-06
-6.57068e-06
-2.83261e-06
-3.76348e-06
-2.8072e-06
-1.0296e-06
-2.73388e-06
1.5845e-06
-2.6141e-06
4.03534e-06
-2.45084e-06
6.28396e-06
-2.24861e-06
8.29722e-06
-2.01326e-06
1.0049e-05
-1.75174e-06
1.15208e-05
-1.47182e-06
1.27025e-05
-1.18172e-06
1.35922e-05
-8.89733e-07
1.41961e-05
-6.03852e-07
1.45275e-05
-3.31449e-07
1.4608e-05
-8.0507e-08
1.4458e-05
1.50057e-07
1.41078e-05
3.50155e-07
1.35903e-05
5.17539e-07
1.29368e-05
6.53499e-07
1.21786e-05
7.58209e-07
1.13459e-05
8.32649e-07
1.04668e-05
8.79088e-07
9.56636e-06
9.0049e-07
8.66608e-06
9.0028e-07
7.78398e-06
8.82102e-07
6.93436e-06
8.49616e-07
6.12803e-06
8.06333e-07
5.37254e-06
7.55488e-07
4.67258e-06
6.99963e-07
4.03034e-06
6.42238e-07
3.44596e-06
5.84382e-07
2.91789e-06
5.28068e-07
2.44331e-06
4.74581e-07
2.01848e-06
4.2483e-07
1.63915e-06
3.79326e-07
1.30103e-06
3.38125e-07
1.00028e-06
3.00746e-07
7.34217e-07
2.66066e-07
5.01958e-07
2.32259e-07
3.05122e-07
1.96836e-07
1.48139e-07
1.56983e-07
3.77183e-08
1.10421e-07
-1.9592e-08
5.73103e-08
-2.40522e-08
4.4602e-09
-2.40522e-08
5.15973e-08
-4.79392e-08
2.51847e-07
-2.54647e-07
6.09828e-07
-4.87445e-07
1.09945e-06
-6.81359e-07
1.68214e-06
-8.17917e-07
2.31574e-06
-8.92461e-07
2.95985e-06
-9.08265e-07
3.57929e-06
-8.73348e-07
4.14612e-06
-7.98558e-07
4.64069e-06
-6.96059e-07
5.0517e-06
-5.78075e-07
5.37558e-06
-4.55809e-07
5.61523e-06
-3.38596e-07
5.77839e-06
-2.33343e-07
5.87574e-06
-1.44253e-07
5.9191e-06
-7.28358e-08
5.91957e-06
-1.81848e-08
5.88634e-06
2.28543e-08
5.82529e-06
5.48227e-08
5.73857e-06
8.30984e-08
5.62451e-06
1.13417e-07
5.47714e-06
1.51041e-07
5.28761e-06
2.00619e-07
5.04452e-06
2.65704e-07
4.73467e-06
3.48714e-07
4.34379e-06
4.5109e-07
3.85706e-06
5.7355e-07
3.25941e-06
7.16375e-07
2.53576e-06
8.79647e-07
1.67106e-06
1.06339e-06
6.50392e-07
1.26758e-06
-5.40913e-07
1.49208e-06
-1.91701e-06
1.73651e-06
-3.49122e-06
2.00002e-06
-5.27554e-06
2.28124e-06
-7.28019e-06
2.5781e-06
-9.51298e-06
2.8878e-06
-1.19788e-05
3.20674e-06
-1.46789e-05
3.53059e-06
-1.76108e-05
3.85426e-06
-2.07673e-05
4.17203e-06
-2.41365e-05
4.47766e-06
-2.77016e-05
4.76449e-06
-3.14405e-05
5.02568e-06
-3.53264e-05
5.25433e-06
-3.93276e-05
5.44368e-06
-4.34081e-05
5.58734e-06
-4.75279e-05
5.6794e-06
-5.16439e-05
5.71463e-06
-5.57101e-05
5.68857e-06
-5.96789e-05
5.59765e-06
-6.35017e-05
5.43918e-06
-6.71291e-05
5.21148e-06
-7.05126e-05
4.91381e-06
-7.36043e-05
4.54639e-06
-7.63584e-05
4.11039e-06
-7.87313e-05
3.60789e-06
-8.06825e-05
3.04189e-06
-8.21747e-05
2.41636e-06
-8.31749e-05
1.73621e-06
-8.36537e-05
1.00715e-06
-8.35897e-05
2.37512e-07
-8.29651e-05
-5.71159e-07
-8.17644e-05
-1.40449e-06
-7.99837e-05
-2.25304e-06
-7.76249e-05
-3.1075e-06
-7.46967e-05
-3.95623e-06
-7.12158e-05
-4.78662e-06
-6.72068e-05
-5.5854e-06
-6.27028e-05
-6.33876e-06
-5.7745e-05
-7.03259e-06
-5.23832e-05
-7.6528e-06
-4.66752e-05
-8.18572e-06
-4.0686e-05
-8.61858e-06
-3.44875e-05
-8.93996e-06
-2.81574e-05
-9.14034e-06
-2.17774e-05
-9.21256e-06
-1.54323e-05
-9.15237e-06
-9.20744e-06
-8.95871e-06
-3.18742e-06
-8.63411e-06
2.54648e-06
-8.18475e-06
7.91832e-06
-7.62045e-06
1.28596e-05
-6.95452e-06
1.73112e-05
-6.20333e-06
2.12251e-05
-5.38576e-06
2.45659e-05
-4.52256e-06
2.73117e-05
-3.63549e-06
2.94543e-05
-2.74651e-06
3.09999e-05
-1.877e-06
3.1966e-05
-1.04661e-06
3.2387e-05
-2.70979e-07
3.23059e-05
4.31332e-07
3.17727e-05
1.05074e-06
3.08456e-05
1.58054e-06
2.95877e-05
2.01614e-06
2.80633e-05
2.35704e-06
2.63363e-05
2.60604e-06
2.4468e-05
2.76883e-06
2.25149e-05
2.85338e-06
2.05277e-05
2.86929e-06
1.85502e-05
2.82715e-06
1.66186e-05
2.73791e-06
1.47618e-05
2.61233e-06
1.30012e-05
2.46056e-06
1.13516e-05
2.29184e-06
9.82171e-06
2.11424e-06
8.41518e-06
1.9346e-06
7.1313e-06
1.75846e-06
5.96616e-06
1.58997e-06
4.91366e-06
1.43183e-06
3.96671e-06
1.28507e-06
3.11861e-06
1.14885e-06
2.36447e-06
1.0202e-06
1.70275e-06
8.93978e-07
1.13644e-06
7.63143e-07
6.73481e-07
6.19946e-07
3.25433e-07
4.58469e-07
1.03062e-07
2.79681e-07
7.48863e-09
1.00034e-07
-1.65636e-08
1.21675e-07
-1.69614e-07
4.72571e-07
-6.05543e-07
1.02913e-06
-1.044e-06
1.7523e-06
-1.40453e-06
2.5915e-06
-1.65711e-06
3.49187e-06
-1.79284e-06
4.40038e-06
-1.81677e-06
5.27013e-06
-1.7431e-06
6.06325e-06
-1.59167e-06
6.75234e-06
-1.38515e-06
7.32076e-06
-1.1465e-06
7.76188e-06
-8.96925e-07
8.07749e-06
-6.54212e-07
8.27577e-06
-4.31615e-07
8.36879e-06
-2.37277e-07
8.3701e-06
-7.41416e-08
8.29233e-06
5.95809e-08
8.14536e-06
1.69824e-07
7.93467e-06
2.65518e-07
7.66044e-06
3.57323e-07
7.31738e-06
4.56481e-07
6.89478e-06
5.73637e-07
6.37746e-06
7.17943e-07
5.74663e-06
8.96528e-07
4.981e-06
1.11435e-06
4.0577e-06
1.37439e-06
2.95313e-06
1.67813e-06
1.64348e-06
2.02602e-06
1.05227e-07
2.4179e-06
-1.68457e-06
2.85319e-06
-3.74787e-06
3.33087e-06
-6.10513e-06
3.84935e-06
-8.77473e-06
4.40611e-06
-1.17722e-05
4.99746e-06
-1.51092e-05
5.61829e-06
-1.8793e-05
6.26189e-06
-2.28252e-05
6.91993e-06
-2.72009e-05
7.58248e-06
-3.19084e-05
8.23815e-06
-3.69285e-05
8.87436e-06
-4.22342e-05
9.47766e-06
-4.77906e-05
1.00341e-05
-5.35557e-05
1.05296e-05
-5.94805e-05
1.09505e-05
-6.55103e-05
1.12842e-05
-7.15855e-05
1.15189e-05
-7.76428e-05
1.16447e-05
-8.36168e-05
1.16534e-05
-8.94411e-05
1.15389e-05
-9.50496e-05
1.12971e-05
-0.000100378
1.09259e-05
-0.000105364
1.04252e-05
-0.000109949
9.79672e-06
-0.000114079
9.04384e-06
-0.000117704
8.17139e-06
-0.000120779
7.18555e-06
-0.000123265
6.09367e-06
-0.000125127
4.90416e-06
-0.000126337
3.62646e-06
-0.000126872
2.27107e-06
-0.000126714
8.49198e-07
-0.000125851
-6.26095e-07
-0.000124279
-2.14246e-06
-0.000121999
-3.68535e-06
-0.000119014
-5.23767e-06
-0.000115339
-6.78274e-06
-0.000110992
-8.3025e-06
-0.000106001
-9.7776e-06
-0.000100399
-1.11877e-05
-9.42264e-05
-1.25115e-05
-8.75313e-05
-1.37277e-05
-8.03696e-05
-1.48145e-05
-7.28043e-05
-1.5751e-05
-6.49055e-05
-1.65174e-05
-5.675e-05
-1.70955e-05
-4.84202e-05
-1.74701e-05
-4.00037e-05
-1.76291e-05
-3.15915e-05
-1.75646e-05
-2.32769e-05
-1.72734e-05
-1.51534e-05
-1.67576e-05
-7.3135e-06
-1.60247e-05
1.54004e-07
-1.5088e-05
7.1656e-06
-1.39661e-05
1.36452e-05
-1.26829e-05
1.95261e-05
-1.12666e-05
2.47524e-05
-9.74894e-06
2.92812e-05
-8.16421e-06
3.30827e-05
-6.54808e-06
3.61421e-05
-4.93632e-06
3.84589e-05
-3.36345e-06
4.00499e-05
-1.86198e-06
4.09439e-05
-4.62704e-07
4.11826e-05
8.12046e-07
4.08211e-05
1.94212e-06
3.99242e-05
2.91295e-06
3.85644e-05
3.7169e-06
3.68184e-05
4.35201e-06
3.47652e-05
4.82203e-06
3.24828e-05
5.13583e-06
3.00455e-05
5.30657e-06
2.7522e-05
5.35064e-06
2.49733e-05
5.28661e-06
2.24516e-05
5.13403e-06
1.99997e-05
4.91247e-06
1.76509e-05
4.64065e-06
1.54293e-05
4.33576e-06
1.3351e-05
4.01294e-06
1.14245e-05
3.68499e-06
9.65243e-06
3.36202e-06
8.03311e-06
3.05115e-06
6.56204e-06
2.75614e-06
5.23395e-06
2.47695e-06
4.04473e-06
2.20942e-06
2.99343e-06
1.94529e-06
2.08368e-06
1.67289e-06
1.32429e-06
1.37934e-06
7.28e-07
1.05476e-06
3.07678e-07
7.00002e-07
6.93127e-08
3.38399e-07
5.27491e-08
1.79642e-07
-3.49256e-07
6.58561e-07
-1.08446e-06
1.38107e-06
-1.76651e-06
2.29003e-06
-2.31349e-06
3.32247e-06
-2.68955e-06
4.41361e-06
-2.88398e-06
5.50186e-06
-2.90503e-06
6.53303e-06
-2.77426e-06
7.46322e-06
-2.52186e-06
8.26036e-06
-2.1823e-06
8.90442e-06
-1.79056e-06
9.38646e-06
-1.37896e-06
9.70682e-06
-9.74572e-07
9.87275e-06
-5.97543e-07
9.89561e-06
-2.60137e-07
9.78806e-06
3.34007e-08
9.56134e-06
2.86302e-07
9.22304e-06
5.08125e-07
8.7754e-06
7.13156e-07
8.21426e-06
9.18466e-07
7.52879e-06
1.14195e-06
6.7019e-06
1.40052e-06
5.71119e-06
1.70866e-06
4.53012e-06
2.0776e-06
3.12941e-06
2.51506e-06
1.47823e-06
3.02557e-06
-4.54717e-07
3.61107e-06
-2.7003e-06
4.27161e-06
-5.28822e-06
5.00582e-06
-8.24618e-06
5.81115e-06
-1.15991e-05
6.68379e-06
-1.5368e-05
7.61827e-06
-1.9569e-05
8.6071e-06
-2.42119e-05
9.64038e-06
-2.92992e-05
1.07055e-05
-3.48245e-05
1.17872e-05
-4.07722e-05
1.28676e-05
-4.71164e-05
1.39267e-05
-5.38208e-05
1.49425e-05
-6.08389e-05
1.58925e-05
-6.81148e-05
1.67535e-05
-7.55841e-05
1.75034e-05
-8.31757e-05
1.81212e-05
-9.08136e-05
1.85884e-05
-9.84186e-05
1.88891e-05
-0.000105911
1.90109e-05
-0.000113211
1.89448e-05
-0.000120243
1.86854e-05
-0.000126935
1.82307e-05
-0.000133219
1.75819e-05
-0.000139036
1.6743e-05
-0.000144332
1.57205e-05
-0.000149058
1.45226e-05
-0.000153173
1.31594e-05
-0.000156644
1.1642e-05
-0.000159441
9.98255e-06
-0.000161541
8.19389e-06
-0.000162927
6.2896e-06
-0.000163584
4.28383e-06
-0.000163504
2.19128e-06
-0.000162683
2.8187e-08
-0.000161118
-2.19075e-06
-0.000158814
-4.44646e-06
-0.000155779
-6.72106e-06
-0.000152022
-8.99442e-06
-0.00014756
-1.1245e-05
-0.000142412
-1.34498e-05
-0.000136606
-1.55845e-05
-0.00013017
-1.7623e-05
-0.000123143
-1.95384e-05
-0.000115568
-2.13025e-05
-0.000107496
-2.28873e-05
-9.89821e-05
-2.42646e-05
-9.00917e-05
-2.54078e-05
-8.08954e-05
-2.62918e-05
-7.14704e-05
-2.6895e-05
-6.18999e-05
-2.71996e-05
-5.22717e-05
-2.71928e-05
-4.26773e-05
-2.68678e-05
-3.32102e-05
-2.62247e-05
-2.39643e-05
-2.52705e-05
-1.50324e-05
-2.40199e-05
-6.50363e-06
-2.24949e-05
1.53777e-06
-2.07243e-05
9.01469e-06
-1.87435e-05
1.58586e-05
-1.65929e-05
2.20113e-05
-1.43169e-05
2.74258e-05
-1.19626e-05
3.2068e-05
-9.57851e-06
3.59172e-05
-7.21264e-06
3.89668e-05
-4.9116e-06
4.12232e-05
-2.71913e-06
4.27091e-05
-6.73759e-07
4.34603e-05
1.19087e-06
4.35258e-05
2.8475e-06
4.29662e-05
4.27647e-06
4.18522e-05
5.46597e-06
4.0262e-05
6.41228e-06
3.82782e-05
7.11958e-06
3.59854e-05
7.5994e-06
3.34665e-05
7.86958e-06
3.08001e-05
7.95297e-06
2.80582e-05
7.87588e-06
2.53042e-05
7.66653e-06
2.25913e-05
7.35349e-06
1.99628e-05
6.96432e-06
1.74513e-05
6.52447e-06
1.50799e-05
6.05633e-06
1.28635e-05
5.57847e-06
1.08097e-05
5.10489e-06
8.92155e-06
4.64432e-06
7.19898e-06
4.19951e-06
5.64164e-06
3.76677e-06
4.25093e-06
3.33599e-06
3.03202e-06
2.8918e-06
1.99493e-06
2.41643e-06
1.15451e-06
1.89518e-06
5.28985e-07
1.32552e-06
1.37642e-07
7.29742e-07
1.90391e-07
2.24133e-07
-5.73389e-07
8.04927e-07
-1.66526e-06
1.66024e-06
-2.62183e-06
2.71354e-06
-3.3668e-06
3.88826e-06
-3.86426e-06
5.10988e-06
-4.1056e-06
6.30972e-06
-4.10486e-06
7.42844e-06
-3.89298e-06
8.41854e-06
-3.51196e-06
9.24552e-06
-3.00928e-06
9.88768e-06
-2.43273e-06
1.03349e-05
-1.82614e-06
1.05862e-05
-1.22595e-06
1.06476e-05
-6.58916e-07
1.05284e-05
-1.40896e-07
1.02384e-05
3.2336e-07
9.78529e-06
7.3942e-07
9.17187e-06
1.12155e-06
8.39458e-06
1.49044e-06
7.44255e-06
1.8705e-06
6.2975e-06
2.28701e-06
4.93442e-06
2.7636e-06
3.32282e-06
3.32026e-06
1.42827e-06
3.97215e-06
-7.85963e-07
4.72929e-06
-3.35735e-06
5.59695e-06
-6.32273e-06
6.57645e-06
-9.71703e-06
7.6659e-06
-1.3572e-05
8.86076e-06
-1.79148e-05
1.01539e-05
-2.27666e-05
1.15356e-05
-2.81412e-05
1.29928e-05
-3.40428e-05
1.45087e-05
-4.04651e-05
1.60628e-05
-4.739e-05
1.76304e-05
-5.47863e-05
1.91835e-05
-6.261e-05
2.06913e-05
-7.08044e-05
2.2121e-05
-7.93012e-05
2.34394e-05
-8.80226e-05
2.46139e-05
-9.68832e-05
2.56141e-05
-0.000105793
2.6413e-05
-0.000114659
2.69878e-05
-0.000123392
2.7321e-05
-0.000131903
2.74001e-05
-0.00014011
2.72183e-05
-0.000147939
2.67738e-05
-0.000155323
2.60693e-05
-0.000162204
2.51116e-05
-0.000168533
2.39104e-05
-0.000174268
2.2478e-05
-0.000179376
2.08284e-05
-0.00018383
1.89767e-05
-0.000187609
1.69388e-05
-0.000190698
1.47307e-05
-0.000193084
1.23687e-05
-0.000194759
9.8691e-06
-0.000195717
7.24811e-06
-0.000195956
4.52212e-06
-0.000195472
1.70788e-06
-0.000194267
-1.17727e-06
-0.000192342
-4.11577e-06
-0.0001897
-7.08813e-06
-0.000186348
-1.00737e-05
-0.000182292
-1.30503e-05
-0.000177543
-1.59936e-05
-0.000172115
-1.88775e-05
-0.000166027
-2.16734e-05
-0.000159299
-2.43508e-05
-0.00015196
-2.68772e-05
-0.000144044
-2.92188e-05
-0.000135591
-3.13405e-05
-0.000126648
-3.32072e-05
-0.000117271
-3.47845e-05
-0.000107523
-3.60399e-05
-9.7474e-05
-3.69442e-05
-8.72013e-05
-3.74723e-05
-7.67888e-05
-3.76052e-05
-6.63256e-05
-3.73311e-05
-5.59043e-05
-3.6646e-05
-4.56197e-05
-3.55551e-05
-3.55667e-05
-3.40728e-05
-2.58386e-05
-3.2223e-05
-1.65245e-05
-3.00384e-05
-7.70817e-06
-2.75598e-05
5.34012e-07
-2.48351e-05
8.1344e-06
-2.19173e-05
1.50352e-05
-1.88634e-05
2.11892e-05
-1.57326e-05
2.65609e-05
-1.25843e-05
3.11264e-05
-9.47713e-06
3.48742e-05
-6.46692e-06
3.7806e-05
-3.6055e-06
3.99363e-05
-9.39516e-07
4.12931e-05
1.49078e-06
4.19169e-05
3.65263e-06
4.1861e-05
5.52188e-06
4.11896e-05
7.08366e-06
3.99763e-05
8.33286e-06
3.83017e-05
9.27408e-06
3.62501e-05
9.92114e-06
3.3907e-05
1.0296e-05
3.13555e-05
1.04274e-05
2.86734e-05
1.03486e-05
2.59311e-05
1.00959e-05
2.31892e-05
9.70614e-06
2.04986e-05
9.21516e-06
1.7899e-05
8.65588e-06
1.54205e-05
8.05692e-06
1.30842e-05
7.44118e-06
1.0904e-05
6.82454e-06
8.88873e-06
6.2148e-06
7.04467e-06
5.61083e-06
5.3781e-06
5.00256e-06
3.8977e-06
4.3722e-06
2.61662e-06
3.6975e-06
1.55416e-06
2.95764e-06
7.37102e-07
2.14258e-06
2.01666e-07
1.26518e-06
3.92057e-07
2.57739e-07
-8.31128e-07
9.17424e-07
-2.32494e-06
1.87539e-06
-3.57979e-06
3.03633e-06
-4.52774e-06
4.30943e-06
-5.13736e-06
5.61005e-06
-5.40622e-06
6.86275e-06
-5.35756e-06
8.00412e-06
-5.03436e-06
8.98461e-06
-4.49245e-06
9.7689e-06
-3.79357e-06
1.03351e-05
-2.99895e-06
1.06729e-05
-2.16391e-06
1.07807e-05
-1.33374e-06
1.06627e-05
-5.40888e-07
1.03253e-05
1.96443e-07
9.77431e-06
8.74363e-07
9.01155e-06
1.50218e-06
8.03292e-06
2.10018e-06
6.8268e-06
2.69656e-06
5.37351e-06
3.32378e-06
3.64567e-06
4.01485e-06
1.60933e-06
4.79994e-06
-7.74313e-07
5.7039e-06
-3.5469e-06
6.74474e-06
-6.75094e-06
7.93332e-06
-1.04278e-05
9.27383e-06
-1.4616e-05
1.07647e-05
-1.93493e-05
1.23992e-05
-2.46549e-05
1.41663e-05
-3.05514e-05
1.60505e-05
-3.7047e-05
1.80312e-05
-4.41372e-05
2.0083e-05
-5.18035e-05
2.2175e-05
-6.00119e-05
2.42712e-05
-6.87129e-05
2.63314e-05
-7.78419e-05
2.83125e-05
-8.73204e-05
3.01698e-05
-9.70587e-05
3.18594e-05
-0.000106959
3.33398e-05
-0.000116919
3.4574e-05
-0.000126836
3.55308e-05
-0.000136609
3.61862e-05
-0.000146145
3.65234e-05
-0.000155357
3.65333e-05
-0.000164171
3.62136e-05
-0.000172521
3.55685e-05
-0.000180354
3.46069e-05
-0.000187627
3.33423e-05
-0.000194306
3.17907e-05
-0.000200366
2.99701e-05
-0.000205787
2.78997e-05
-0.000210558
2.55991e-05
-0.000214669
2.30875e-05
-0.000218114
2.03838e-05
-0.000220889
1.75063e-05
-0.000222993
1.44724e-05
-0.000224423
1.12991e-05
-0.000225178
8.00298e-06
-0.000225256
4.60038e-06
-0.000224656
1.10795e-06
-0.000223376
-2.4573e-06
-0.000221415
-6.07722e-06
-0.000218771
-9.73238e-06
-0.000215443
-1.34015e-05
-0.000211432
-1.7061e-05
-0.000206741
-2.06851e-05
-0.000201373
-2.42449e-05
-0.000195338
-2.77089e-05
-0.000188646
-3.10425e-05
-0.000181315
-3.42082e-05
-0.000173367
-3.71662e-05
-0.000164833
-3.98748e-05
-0.000155749
-4.22914e-05
-0.00014616
-4.43732e-05
-0.000136121
-4.6079e-05
-0.000125695
-4.73706e-05
-0.000114953
-4.82142e-05
-0.000103976
-4.85827e-05
-9.28499e-05
-4.84567e-05
-8.16693e-05
-4.78266e-05
-7.05308e-05
-4.66936e-05
-5.95334e-05
-4.50702e-05
-4.87757e-05
-4.29807e-05
-3.83536e-05
-4.04605e-05
-2.83578e-05
-3.75556e-05
-1.88721e-05
-3.43208e-05
-9.97164e-06
-3.08177e-05
-1.72197e-06
-2.71131e-05
5.82176e-06
-2.32763e-05
1.26151e-05
-1.93776e-05
1.86242e-05
-1.54863e-05
2.38262e-05
-1.16689e-05
2.82089e-05
-7.98814e-06
3.17709e-05
-4.50159e-06
3.45225e-05
-1.26078e-06
3.64851e-05
1.68997e-06
3.76924e-05
4.3146e-06
3.81897e-05
6.58636e-06
3.80338e-05
8.48876e-06
3.72917e-05
1.00162e-05
3.60386e-05
1.11742e-05
3.43558e-05
1.19789e-05
3.23272e-05
1.2456e-05
3.00364e-05
1.26394e-05
2.75634e-05
1.25689e-05
2.4982e-05
1.22875e-05
2.23578e-05
1.18394e-05
1.97465e-05
1.12672e-05
1.71938e-05
1.06096e-05
1.47355e-05
9.89952e-06
1.23986e-05
9.16141e-06
1.02034e-05
8.41001e-06
8.16542e-06
7.6488e-06
6.29834e-06
6.86964e-06
4.61683e-06
6.05371e-06
3.13961e-06
5.17473e-06
1.89275e-06
4.2045e-06
9.1356e-07
3.12177e-06
2.55676e-07
1.92306e-06
6.47733e-07
2.83818e-07
-1.11495e-06
1.00419e-06
-3.04531e-06
2.03874e-06
-4.61434e-06
3.27433e-06
-5.76334e-06
4.6058e-06
-6.46883e-06
5.93821e-06
-6.73862e-06
7.18963e-06
-6.60898e-06
8.29339e-06
-6.13812e-06
9.199e-06
-5.39805e-06
9.87165e-06
-4.46622e-06
1.02905e-05
-3.41776e-06
1.04457e-05
-2.31915e-06
1.03354e-05
-1.22347e-06
9.96187e-06
-1.67321e-07
9.32775e-06
8.3056e-07
8.43305e-06
1.76906e-06
7.27219e-06
2.66304e-06
5.83208e-06
3.54029e-06
4.09114e-06
4.43751e-06
2.01934e-06
5.39559e-06
-4.20721e-07
6.45491e-06
-3.27194e-06
7.65116e-06
-6.58038e-06
9.01234e-06
-1.03927e-05
1.05571e-05
-1.47538e-05
1.22944e-05
-1.9704e-05
1.42241e-05
-2.52773e-05
1.6338e-05
-3.14986e-05
1.86204e-05
-3.83812e-05
2.1049e-05
-4.5925e-05
2.35943e-05
-5.41137e-05
2.62199e-05
-6.29136e-05
2.88829e-05
-7.22726e-05
3.1534e-05
-8.21212e-05
3.41197e-05
-9.23732e-05
3.65835e-05
-0.00010293
3.88688e-05
-0.000113682
4.09219e-05
-0.000124516
4.26938e-05
-0.00013532
4.41432e-05
-0.000145983
4.52376e-05
-0.000156406
4.5954e-05
-0.0001665
4.62797e-05
-0.000176187
4.62107e-05
-0.000185405
4.57513e-05
-0.000194104
4.49126e-05
-0.000202246
4.37105e-05
-0.000209804
4.21649e-05
-0.000216759
4.02976e-05
-0.0002231
3.81317e-05
-0.000228821
3.56906e-05
-0.000233918
3.29968e-05
-0.000238391
3.00723e-05
-0.000242241
2.69375e-05
-0.000245469
2.36117e-05
-0.000248076
2.01129e-05
-0.000250061
1.64579e-05
-0.000251425
1.26628e-05
-0.000252165
8.74294e-06
-0.000252278
4.71354e-06
-0.00025176
5.90172e-07
-0.000250606
-3.61119e-06
-0.00024881
-7.87316e-06
-0.000246366
-1.21768e-05
-0.000243267
-1.6501e-05
-0.000239505
-2.08221e-05
-0.000235077
-2.51132e-05
-0.000229978
-2.93442e-05
-0.000224206
-3.34812e-05
-0.000217762
-3.74864e-05
-0.000210652
-4.13182e-05
-0.000202887
-4.49316e-05
-0.000194483
-4.82785e-05
-0.000185466
-5.13085e-05
-0.000175868
-5.39705e-05
-0.000165734
-5.62134e-05
-0.000155116
-5.79888e-05
-0.000144078
-5.92523e-05
-0.000132694
-5.99659e-05
-0.00012105
-6.01006e-05
-0.000109239
-5.96378e-05
-9.73613e-05
-5.85716e-05
-8.55215e-05
-5.69101e-05
-7.38267e-05
-5.46755e-05
-6.23826e-05
-5.19045e-05
-5.12911e-05
-4.86472e-05
-4.06468e-05
-4.49651e-05
-3.05354e-05
-4.09291e-05
-2.10319e-05
-3.66166e-05
-1.21994e-05
-3.21088e-05
-4.08919e-06
-2.74878e-05
3.25899e-06
-2.28345e-05
9.81624e-06
-1.82262e-05
1.55638e-05
-1.37357e-05
2.04922e-05
-9.43005e-06
2.46014e-05
-5.36992e-06
2.79002e-05
-1.60881e-06
3.04072e-05
1.8076e-06
3.21511e-05
4.84239e-06
3.31715e-05
7.4684e-06
3.35184e-05
9.66926e-06
3.32524e-05
1.14402e-05
3.24429e-05
1.27884e-05
3.11661e-05
1.37328e-05
2.95027e-05
1.43029e-05
2.75343e-05
1.45373e-05
2.53406e-05
1.44811e-05
2.29965e-05
1.41835e-05
2.05697e-05
1.3694e-05
1.81191e-05
1.30602e-05
1.56944e-05
1.23242e-05
1.33362e-05
1.15196e-05
1.10771e-05
1.06691e-05
8.94361e-06
9.78231e-06
6.95883e-06
8.85442e-06
5.14565e-06
7.86689e-06
3.53056e-06
6.78982e-06
2.14817e-06
5.58689e-06
1.04696e-06
4.22299e-06
2.96343e-07
2.67368e-06
9.44076e-07
3.04966e-07
-1.41991e-06
1.07181e-06
-3.81215e-06
2.16019e-06
-5.70272e-06
3.43973e-06
-7.04288e-06
4.79118e-06
-7.82029e-06
6.1096e-06
-8.05704e-06
7.30718e-06
-7.80656e-06
8.31489e-06
-7.14583e-06
9.08245e-06
-6.16561e-06
9.57669e-06
-4.96047e-06
9.77863e-06
-3.6197e-06
9.67968e-06
-2.2202e-06
9.27749e-06
-8.21277e-07
8.57174e-06
5.38426e-07
7.56032e-06
1.84198e-06
6.23598e-06
3.0934e-06
4.58395e-06
4.31508e-06
2.58047e-06
5.54377e-06
1.92698e-07
6.82528e-06
-2.62036e-06
8.20864e-06
-5.90574e-06
9.74029e-06
-9.71377e-06
1.14592e-05
-1.40949e-05
1.33935e-05
-1.90966e-05
1.55587e-05
-2.47601e-05
1.79579e-05
-3.11178e-05
2.05818e-05
-3.81902e-05
2.34104e-05
-4.59834e-05
2.64136e-05
-5.44862e-05
2.95518e-05
-6.36683e-05
3.27764e-05
-7.34789e-05
3.60305e-05
-8.38467e-05
3.92507e-05
-9.46815e-05
4.23688e-05
-0.000105877
4.53153e-05
-0.000117316
4.80224e-05
-0.000128875
5.04276e-05
-0.00014043
5.24769e-05
-0.000151863
5.41268e-05
-0.000163065
5.53459e-05
-0.000173943
5.61151e-05
-0.000184416
5.64269e-05
-0.00019442
5.62844e-05
-0.000203909
5.56988e-05
-0.000212845
5.46883e-05
-0.000221208
5.32753e-05
-0.000228983
5.14854e-05
-0.000236164
4.93455e-05
-0.000242749
4.68827e-05
-0.00024874
4.41232e-05
-0.000254142
4.10925e-05
-0.000258959
3.78139e-05
-0.000263197
3.43094e-05
-0.000266858
3.0599e-05
-0.000269947
2.67009e-05
-0.000272466
2.26319e-05
-0.000274416
1.84076e-05
-0.000275795
1.40424e-05
-0.000276603
9.55018e-06
-0.000276834
4.94467e-06
-0.000276483
2.39788e-07
-0.000275545
-4.54986e-06
-0.000274009
-9.40848e-06
-0.000271868
-1.43184e-05
-0.000269109
-1.92597e-05
-0.000265722
-2.42094e-05
-0.000261694
-2.91412e-05
-0.000257013
-3.40249e-05
-0.000251669
-3.88256e-05
-0.000245651
-4.35039e-05
-0.000238954
-4.80157e-05
-0.000231574
-5.23118e-05
-0.000223513
-5.63388e-05
-0.000214782
-6.00397e-05
-0.000205398
-6.33548e-05
-0.000195388
-6.62231e-05
-0.000184792
-6.85849e-05
-0.000173661
-7.03833e-05
-0.00016206
-7.15672e-05
-0.000150066
-7.20943e-05
-0.00013777
-7.19334e-05
-0.000125274
-7.10675e-05
-0.000112689
-6.94956e-05
-0.00010013
-6.7234e-05
-8.77177e-05
-6.43171e-05
-7.55685e-05
-6.07964e-05
-6.37944e-05
-5.67391e-05
-5.24983e-05
-5.22253e-05
-4.17705e-05
-4.73443e-05
-3.16878e-05
-4.21915e-05
-2.2312e-05
-3.68636e-05
-1.36903e-05
-3.14562e-05
-5.85645e-06
-2.606e-05
1.16767e-06
-2.07598e-05
7.37025e-06
-1.56326e-05
1.27481e-05
-1.07477e-05
1.73054e-05
-6.16614e-06
2.10537e-05
-1.94071e-06
2.40119e-05
1.88418e-06
2.62071e-05
5.27322e-06
2.76753e-05
8.20106e-06
2.84621e-05
1.06534e-05
2.86228e-05
1.26277e-05
2.82215e-05
1.41341e-05
2.73297e-05
1.51947e-05
2.60237e-05
1.58433e-05
2.43822e-05
1.61227e-05
2.2483e-05
1.60827e-05
2.04002e-05
1.57768e-05
1.82021e-05
1.52583e-05
1.59494e-05
1.45769e-05
1.36944e-05
1.37746e-05
1.14818e-05
1.28817e-05
9.34965e-06
1.19145e-05
7.33151e-06
1.08726e-05
5.46e-06
9.73839e-06
3.77086e-06
8.47896e-06
2.30818e-06
7.04956e-06
1.13112e-06
5.40005e-06
3.21925e-07
3.48287e-06
1.266e-06
3.22701e-07
-1.74261e-06
1.12406e-06
-4.61351e-06
2.24512e-06
-6.82377e-06
3.53845e-06
-8.33622e-06
4.87127e-06
-9.1531e-06
6.12941e-06
-9.31519e-06
7.22028e-06
-8.89743e-06
8.07376e-06
-7.9993e-06
8.64102e-06
-6.73288e-06
8.89155e-06
-5.21099e-06
8.80886e-06
-3.53701e-06
8.38562e-06
-1.79697e-06
7.61861e-06
-5.42667e-08
6.50403e-06
1.65301e-06
5.03351e-06
3.31251e-06
3.19102e-06
4.93589e-06
9.5106e-07
6.55503e-06
-1.72182e-06
8.21665e-06
-4.87208e-06
9.97554e-06
-8.55087e-06
1.18874e-05
-1.28127e-05
1.40022e-05
-1.77118e-05
1.63583e-05
-2.32978e-05
1.89795e-05
-2.96121e-05
2.18731e-05
-3.66846e-05
2.50303e-05
-4.45299e-05
2.84271e-05
-5.31449e-05
3.20254e-05
-6.2506e-05
3.57747e-05
-7.25673e-05
3.96131e-05
-8.32599e-05
4.3469e-05
-9.4493e-05
4.72637e-05
-0.000106157
5.09146e-05
-0.000118128
5.43394e-05
-0.000130272
5.74601e-05
-0.000142457
6.02074e-05
-0.000154554
6.25239e-05
-0.000166443
6.43663e-05
-0.000178023
6.57062e-05
-0.000189206
6.65297e-05
-0.000199927
6.68357e-05
-0.000210134
6.66343e-05
-0.000219794
6.59437e-05
-0.000228884
6.47886e-05
-0.000237392
6.31971e-05
-0.000245317
6.11996e-05
-0.000252658
5.88271e-05
-0.000259423
5.61098e-05
-0.000265617
5.30771e-05
-0.00027125
4.97561e-05
-0.00027633
4.61724e-05
-0.000280865
4.23491e-05
-0.000284863
3.83074e-05
-0.00028833
3.40663e-05
-0.000291272
2.96431e-05
-0.000293694
2.50533e-05
-0.000295597
2.0311e-05
-0.000296984
1.54292e-05
-0.000297854
1.042e-05
-0.000298205
5.29537e-06
-0.000298032
6.70285e-08
-0.00029733
-5.25197e-06
-0.00029609
-1.06485e-05
-0.000294301
-1.61071e-05
-0.000291951
-2.16099e-05
-0.000289024
-2.71363e-05
-0.000285503
-3.26619e-05
-0.00028137
-3.81579e-05
-0.000276605
-4.35907e-05
-0.000271188
-4.89211e-05
-0.000265099
-5.41042e-05
-0.000258322
-5.90891e-05
-0.000250842
-6.3819e-05
-0.00024265
-6.82315e-05
-0.000233745
-7.22599e-05
-0.000224134
-7.5834e-05
-0.000213837
-7.88825e-05
-0.000202885
-8.13351e-05
-0.000191326
-8.31257e-05
-0.000179225
-8.41953e-05
-0.000166662
-8.44962e-05
-0.000153735
-8.39949e-05
-0.000140555
-8.26755e-05
-0.000127247
-8.05423e-05
-0.000113942
-7.76216e-05
-0.000100778
-7.39612e-05
-8.78866e-05
-6.96301e-05
-7.53966e-05
-6.47153e-05
-6.34228e-05
-5.93181e-05
-5.20648e-05
-5.35495e-05
-4.1404e-05
-4.75245e-05
-3.15026e-05
-4.13575e-05
-2.24046e-05
-3.5158e-05
-1.41372e-05
-2.90272e-05
-6.7139e-06
-2.3056e-05
-1.3715e-07
-1.73245e-05
5.59871e-06
-1.1902e-05
1.05057e-05
-6.84768e-06
1.46011e-05
-2.21123e-06
1.79075e-05
1.96678e-06
2.04535e-05
5.65507e-06
2.22746e-05
8.83232e-06
2.34141e-05
1.14881e-05
2.39241e-05
1.36241e-05
2.38647e-05
1.52542e-05
2.33032e-05
1.64048e-05
2.23121e-05
1.71137e-05
2.09667e-05
1.74281e-05
1.93423e-05
1.74012e-05
1.75114e-05
1.70892e-05
1.5542e-05
1.65464e-05
1.34954e-05
1.58211e-05
1.14266e-05
1.49505e-05
9.38418e-06
1.39569e-05
7.41252e-06
1.28442e-05
5.55444e-06
1.15965e-05
3.85549e-06
1.01779e-05
2.36928e-06
8.53577e-06
1.16432e-06
6.60502e-06
3.31996e-07
4.31519e-06
1.598e-06
3.37472e-07
-2.08008e-06
1.16176e-06
-5.4378e-06
2.29397e-06
-7.95598e-06
3.56974e-06
-9.61198e-06
4.84352e-06
-1.04269e-05
5.99335e-06
-1.0465e-05
6.92342e-06
-9.82751e-06
7.56411e-06
-8.63999e-06
7.86938e-06
-7.03814e-06
7.81221e-06
-5.15382e-06
7.37892e-06
-3.10372e-06
6.56306e-06
-9.81107e-07
5.35961e-06
1.14918e-06
3.75993e-06
3.25269e-06
1.74782e-06
5.32462e-06
-7.02961e-07
7.38666e-06
-3.62958e-06
9.48165e-06
-7.07932e-06
1.16664e-05
-1.11071e-05
1.40033e-05
-1.57714e-05
1.65518e-05
-2.11302e-05
1.93609e-05
-2.72353e-05
2.24634e-05
-3.41282e-05
2.58723e-05
-4.18355e-05
2.95804e-05
-5.03655e-05
3.35603e-05
-5.97049e-05
3.77665e-05
-6.98168e-05
4.21373e-05
-8.0639e-05
4.65969e-05
-9.20847e-05
5.10587e-05
-0.000104044
5.54286e-05
-0.00011639
5.96098e-05
-0.000128984
6.35077e-05
-0.00014168
6.70355e-05
-0.000154338
7.01186e-05
-0.000166829
7.26979e-05
-0.000179036
7.47316e-05
-0.000190866
7.61956e-05
-0.000202241
7.70815e-05
-0.000213106
7.73951e-05
-0.000223423
7.71528e-05
-0.000233168
7.63793e-05
-0.000242329
7.51049e-05
-0.000250903
7.33626e-05
-0.000258893
7.11869e-05
-0.000266306
6.86124e-05
-0.000273152
6.56725e-05
-0.000279441
6.23991e-05
-0.000285186
5.88219e-05
-0.000290398
5.49688e-05
-0.000295091
5.08649e-05
-0.000299275
4.65331e-05
-0.000302962
4.19941e-05
-0.000306162
3.72663e-05
-0.000308884
3.23658e-05
-0.000311138
2.73071e-05
-0.00031293
2.2103e-05
-0.000314266
1.67647e-05
-0.000315148
1.13025e-05
-0.000315579
5.72622e-06
-0.000315556
4.45908e-08
-0.000315078
-5.73084e-06
-0.000314135
-1.15911e-05
-0.000312719
-1.75234e-05
-0.000310815
-2.35134e-05
-0.000308408
-2.95437e-05
-0.000305476
-3.55936e-05
-0.000301997
-4.16375e-05
-0.000297942
-4.76448e-05
-0.000293284
-5.3579e-05
-0.000287992
-5.93968e-05
-0.000282033
-6.50481e-05
-0.000275377
-7.04752e-05
-0.000267995
-7.56132e-05
-0.000259864
-8.03906e-05
-0.000250968
-8.473e-05
-0.000241301
-8.855e-05
-0.000230869
-9.17673e-05
-0.000219694
-9.42998e-05
-0.00020782
-9.60702e-05
-0.000195305
-9.70104e-05
-0.000182235
-9.70652e-05
-0.000168713
-9.61978e-05
-0.000154862
-9.43927e-05
-0.000140824
-9.16597e-05
-0.00012675
-8.8035e-05
-0.000112798
-8.3582e-05
-9.91248e-05
-7.83889e-05
-8.58775e-05
-7.25654e-05
-7.31899e-05
-6.62371e-05
-6.11753e-05
-5.95391e-05
-4.99236e-05
-5.26093e-05
-3.95e-05
-4.55816e-05
-2.99462e-05
-3.85809e-05
-2.12833e-05
-3.1719e-05
-1.35151e-05
-2.50927e-05
-6.63311e-06
-1.87839e-05
-6.20413e-07
-1.28604e-05
4.54553e-06
-7.37718e-06
8.89084e-06
-2.37853e-06