/*--------------------------------*- C++ -*----------------------------------*\
| =========                 |                                                 |
| \\      /  F ield         | OpenFOAM: The Open Source CFD Toolbox           |
|  \\    /   O peration     | Version:  2406                                  |
|   \\  /    A nd           | Website:  www.openfoam.com                      |
|    \\/     M anipulation  |                                                 |
\*---------------------------------------------------------------------------*/
FoamFile
{
    version     2.0;
    format      ascii;
    arch        "LSB;label=32;scalar=64";
    class       volVectorField;
    location    "4.05";
    object      U;
}
// * * * * * * * * * * * * * * * * * * * * * * * * * * * * * * * * * * * * * //

dimensions      [0 1 -1 0 0 0 0];

internalField   nonuniform List<vector> 
14400
(
(1.14701e-06 -1.14229e-06 0)
(8.15037e-07 5.57021e-07 0)
(-8.27624e-06 2.99384e-06 0)
(-2.63873e-05 5.1736e-06 0)
(-5.2251e-05 6.92213e-06 0)
(-8.42849e-05 8.24103e-06 0)
(-0.000120981 9.19821e-06 0)
(-0.000161075 9.8688e-06 0)
(-0.000203562 1.03214e-05 0)
(-0.000247668 1.06122e-05 0)
(-0.000292813 1.07856e-05 0)
(-0.000338575 1.08763e-05 0)
(-0.000384653 1.09102e-05 0)
(-0.00043084 1.09066e-05 0)
(-0.000476996 1.08793e-05 0)
(-0.000523034 1.08378e-05 0)
(-0.0005689 1.07882e-05 0)
(-0.000614559 1.07344e-05 0)
(-0.000659994 1.06783e-05 0)
(-0.000705192 1.06211e-05 0)
(-0.000750145 1.05627e-05 0)
(-0.000794846 1.0503e-05 0)
(-0.000839285 1.04414e-05 0)
(-0.000883451 1.03774e-05 0)
(-0.000927332 1.03102e-05 0)
(-0.000970913 1.02394e-05 0)
(-0.00101418 1.01644e-05 0)
(-0.0010571 1.00846e-05 0)
(-0.00109967 9.99948e-06 0)
(-0.00114185 9.90869e-06 0)
(-0.00118362 9.81175e-06 0)
(-0.00122496 9.70825e-06 0)
(-0.00126584 9.5978e-06 0)
(-0.00130622 9.48e-06 0)
(-0.00134607 9.35446e-06 0)
(-0.00138537 9.22081e-06 0)
(-0.00142407 9.07868e-06 0)
(-0.00146214 8.92768e-06 0)
(-0.00149955 8.76746e-06 0)
(-0.00153624 8.59765e-06 0)
(-0.00157219 8.41791e-06 0)
(-0.00160734 8.22788e-06 0)
(-0.00164166 8.02723e-06 0)
(-0.0016751 7.81564e-06 0)
(-0.00170761 7.59281e-06 0)
(-0.00173915 7.35845e-06 0)
(-0.00176966 7.11229e-06 0)
(-0.00179911 6.85408e-06 0)
(-0.00182743 6.58361e-06 0)
(-0.00185458 6.30069e-06 0)
(-0.0018805 6.00516e-06 0)
(-0.00190515 5.69689e-06 0)
(-0.00192846 5.3758e-06 0)
(-0.00195039 5.04184e-06 0)
(-0.00197088 4.69503e-06 0)
(-0.00198989 4.3354e-06 0)
(-0.00200734 3.96305e-06 0)
(-0.00202321 3.57815e-06 0)
(-0.00203742 3.18089e-06 0)
(-0.00204994 2.77155e-06 0)
(-0.00206071 2.35045e-06 0)
(-0.00206969 1.91799e-06 0)
(-0.00207683 1.47463e-06 0)
(-0.00208208 1.02087e-06 0)
(-0.00208541 5.5731e-07 0)
(-0.00208678 8.45987e-08 0)
(-0.00208614 -3.96508e-07 0)
(-0.00208346 -8.85284e-07 0)
(-0.00207873 -1.38087e-06 0)
(-0.0020719 -1.88235e-06 0)
(-0.00206296 -2.38877e-06 0)
(-0.00205189 -2.89911e-06 0)
(-0.00203867 -3.41231e-06 0)
(-0.0020233 -3.92726e-06 0)
(-0.00200577 -4.44281e-06 0)
(-0.00198607 -4.95778e-06 0)
(-0.00196422 -5.47097e-06 0)
(-0.00194022 -5.98116e-06 0)
(-0.00191409 -6.48711e-06 0)
(-0.00188584 -6.98759e-06 0)
(-0.00185551 -7.48137e-06 0)
(-0.00182312 -7.96724e-06 0)
(-0.0017887 -8.444e-06 0)
(-0.00175229 -8.9105e-06 0)
(-0.00171394 -9.36563e-06 0)
(-0.0016737 -9.80832e-06 0)
(-0.00163161 -1.02376e-05 0)
(-0.00158774 -1.06524e-05 0)
(-0.00154215 -1.1052e-05 0)
(-0.0014949 -1.14356e-05 0)
(-0.00144605 -1.18024e-05 0)
(-0.00139567 -1.21519e-05 0)
(-0.00134385 -1.24835e-05 0)
(-0.00129064 -1.27968e-05 0)
(-0.00123614 -1.30913e-05 0)
(-0.00118041 -1.33668e-05 0)
(-0.00112353 -1.36227e-05 0)
(-0.0010656 -1.38588e-05 0)
(-0.00100668 -1.40744e-05 0)
(-0.000946878 -1.42683e-05 0)
(-0.000886278 -1.44393e-05 0)
(-0.000824983 -1.4585e-05 0)
(-0.00076311 -1.47019e-05 0)
(-0.00070079 -1.47852e-05 0)
(-0.000638181 -1.48279e-05 0)
(-0.000575477 -1.48207e-05 0)
(-0.000512917 -1.47509e-05 0)
(-0.000450802 -1.46022e-05 0)
(-0.00038951 -1.43538e-05 0)
(-0.000329515 -1.39797e-05 0)
(-0.000271409 -1.34481e-05 0)
(-0.000215926 -1.27213e-05 0)
(-0.000163961 -1.17551e-05 0)
(-0.000116586 -1.04998e-05 0)
(-7.50614e-05 -8.9033e-06 0)
(-4.08047e-05 -6.92352e-06 0)
(-1.52987e-05 -4.55998e-06 0)
(1.62104e-07 -1.89794e-06 0)
(5.42379e-06 6.49123e-07 0)
(2.02073e-06 2.02329e-06 0)
(-5.619e-07 -7.99209e-07 0)
(-1.27223e-05 1.26626e-05 0)
(-4.45213e-05 3.14229e-05 0)
(-9.67987e-05 4.87822e-05 0)
(-0.000166716 6.32332e-05 0)
(-0.000251332 7.45649e-05 0)
(-0.000347516 8.30952e-05 0)
(-0.000452478 8.92979e-05 0)
(-0.00056388 9.36525e-05 0)
(-0.000679838 9.65832e-05 0)
(-0.000798883 9.84456e-05 0)
(-0.000919897 9.95269e-05 0)
(-0.00104206 0.000100053 0)
(-0.00116476 0.000100195 0)
(-0.0012876 0.00010008 0)
(-0.00141029 9.97982e-05 0)
(-0.00153263 9.94119e-05 0)
(-0.00165451 9.89608e-05 0)
(-0.00177583 9.84687e-05 0)
(-0.00189654 9.79487e-05 0)
(-0.0020166 9.74058e-05 0)
(-0.00213597 9.68407e-05 0)
(-0.00225462 9.62512e-05 0)
(-0.00237249 9.56336e-05 0)
(-0.00248957 9.49835e-05 0)
(-0.00260579 9.42964e-05 0)
(-0.00272111 9.35679e-05 0)
(-0.00283547 9.27937e-05 0)
(-0.00294881 9.197e-05 0)
(-0.00306107 9.10927e-05 0)
(-0.00317218 9.01584e-05 0)
(-0.00328206 8.91635e-05 0)
(-0.00339064 8.81045e-05 0)
(-0.00349785 8.69781e-05 0)
(-0.00360358 8.5781e-05 0)
(-0.00370776 8.451e-05 0)
(-0.0038103 8.31619e-05 0)
(-0.00391109 8.17335e-05 0)
(-0.00401004 8.02216e-05 0)
(-0.00410705 7.86232e-05 0)
(-0.00420201 7.69354e-05 0)
(-0.0042948 7.51551e-05 0)
(-0.00438532 7.32797e-05 0)
(-0.00447345 7.13064e-05 0)
(-0.00455907 6.92326e-05 0)
(-0.00464206 6.7056e-05 0)
(-0.00472229 6.47744e-05 0)
(-0.00479964 6.23857e-05 0)
(-0.00487397 5.98881e-05 0)
(-0.00494516 5.72802e-05 0)
(-0.00501308 5.45607e-05 0)
(-0.00507758 5.17287e-05 0)
(-0.00513854 4.87835e-05 0)
(-0.00519582 4.57249e-05 0)
(-0.00524928 4.25531e-05 0)
(-0.0052988 3.92686e-05 0)
(-0.00534423 3.58724e-05 0)
(-0.00538545 3.2366e-05 0)
(-0.00542233 2.87513e-05 0)
(-0.00545474 2.50307e-05 0)
(-0.00548256 2.12072e-05 0)
(-0.00550566 1.72843e-05 0)
(-0.00552394 1.3266e-05 0)
(-0.00553728 9.15688e-06 0)
(-0.00554558 4.96212e-06 0)
(-0.00554874 6.87381e-07 0)
(-0.00554667 -3.66095e-06 0)
(-0.0055393 -8.07624e-06 0)
(-0.00552653 -1.25511e-05 0)
(-0.00550831 -1.70778e-05 0)
(-0.00548459 -2.1648e-05 0)
(-0.00545531 -2.62528e-05 0)
(-0.00542044 -3.08832e-05 0)
(-0.00537996 -3.55296e-05 0)
(-0.00533386 -4.01821e-05 0)
(-0.00528212 -4.48306e-05 0)
(-0.00522477 -4.94648e-05 0)
(-0.00516182 -5.40741e-05 0)
(-0.00509332 -5.8648e-05 0)
(-0.0050193 -6.31757e-05 0)
(-0.00493984 -6.76468e-05 0)
(-0.00485499 -7.20508e-05 0)
(-0.00476485 -7.63774e-05 0)
(-0.00466951 -8.06166e-05 0)
(-0.00456908 -8.47586e-05 0)
(-0.00446368 -8.87943e-05 0)
(-0.00435344 -9.27148e-05 0)
(-0.0042385 -9.65118e-05 0)
(-0.00411901 -0.000100178 0)
(-0.00399512 -0.000103705 0)
(-0.00386701 -0.000107088 0)
(-0.00373484 -0.000110321 0)
(-0.0035988 -0.000113399 0)
(-0.00345907 -0.000116316 0)
(-0.00331585 -0.00011907 0)
(-0.00316933 -0.000121655 0)
(-0.00301972 -0.000124068 0)
(-0.00286722 -0.000126303 0)
(-0.00271206 -0.000128353 0)
(-0.00255447 -0.000130206 0)
(-0.00239469 -0.000131848 0)
(-0.002233 -0.000133255 0)
(-0.00206971 -0.000134392 0)
(-0.00190518 -0.000135214 0)
(-0.00173985 -0.000135653 0)
(-0.00157424 -0.000135623 0)
(-0.001409 -0.000135009 0)
(-0.00124494 -0.000133661 0)
(-0.00108306 -0.000131396 0)
(-0.000924609 -0.000127987 0)
(-0.000771114 -0.000123167 0)
(-0.00062443 -0.000116624 0)
(-0.000486768 -0.000108014 0)
(-0.000360704 -9.69755e-05 0)
(-0.000249147 -8.31767e-05 0)
(-0.000155217 -6.64214e-05 0)
(-8.19763e-05 -4.68776e-05 0)
(-3.17479e-05 -2.55672e-05 0)
(-5.21128e-06 -5.31654e-06 0)
(6.59748e-07 5.44025e-06 0)
(-3.04865e-06 8.40228e-06 0)
(-3.18807e-05 4.46071e-05 0)
(-8.82555e-05 8.75128e-05 0)
(-0.000172948 0.000127212 0)
(-0.000281423 0.000160873 0)
(-0.000410244 0.000187895 0)
(-0.000555476 0.000208743 0)
(-0.000713486 0.000224286 0)
(-0.000881123 0.000235485 0)
(-0.00105577 0.000243246 0)
(-0.00123532 0.000248362 0)
(-0.00141814 0.000251496 0)
(-0.00160296 0.000253183 0)
(-0.00178887 0.000253843 0)
(-0.00197519 0.00025379 0)
(-0.00216144 0.000253255 0)
(-0.0023473 0.000252402 0)
(-0.00253252 0.000251338 0)
(-0.00271696 0.000250133 0)
(-0.00290049 0.000248825 0)
(-0.00308303 0.000247435 0)
(-0.0032645 0.00024597 0)
(-0.00344483 0.000244429 0)
(-0.00362396 0.000242805 0)
(-0.0038018 0.00024109 0)
(-0.00397828 0.000239275 0)
(-0.00415333 0.00023735 0)
(-0.00432685 0.000235305 0)
(-0.00449874 0.000233132 0)
(-0.00466892 0.000230821 0)
(-0.00483726 0.000228364 0)
(-0.00500367 0.000225752 0)
(-0.00516802 0.000222977 0)
(-0.00533018 0.000220032 0)
(-0.00549005 0.000216907 0)
(-0.00564746 0.000213596 0)
(-0.0058023 0.000210091 0)
(-0.00595441 0.000206384 0)
(-0.00610365 0.000202467 0)
(-0.00624986 0.000198334 0)
(-0.00639288 0.000193977 0)
(-0.00653254 0.00018939 0)
(-0.00666869 0.000184565 0)
(-0.00680114 0.000179497 0)
(-0.00692972 0.00017418 0)
(-0.00705425 0.000168607 0)
(-0.00717455 0.000162774 0)
(-0.00729042 0.000156676 0)
(-0.00740168 0.000150309 0)
(-0.00750813 0.000143669 0)
(-0.00760958 0.000136755 0)
(-0.00770584 0.000129563 0)
(-0.0077967 0.000122093 0)
(-0.00788197 0.000114344 0)
(-0.00796145 0.000106318 0)
(-0.00803495 9.80156e-05 0)
(-0.00810228 8.94396e-05 0)
(-0.00816323 8.0594e-05 0)
(-0.00821764 7.14838e-05 0)
(-0.00826531 6.21152e-05 0)
(-0.00830606 5.24956e-05 0)
(-0.00833972 4.26339e-05 0)
(-0.00836613 3.25401e-05 0)
(-0.00838513 2.22255e-05 0)
(-0.00839657 1.17029e-05 0)
(-0.0084003 9.8641e-07 0)
(-0.00839621 -9.90886e-06 0)
(-0.00838417 -2.09661e-05 0)
(-0.00836408 -3.21674e-05 0)
(-0.00833585 -4.34938e-05 0)
(-0.00829939 -5.4925e-05 0)
(-0.00825464 -6.64398e-05 0)
(-0.00820156 -7.80158e-05 0)
(-0.0081401 -8.96299e-05 0)
(-0.00807026 -0.000101258 0)
(-0.00799204 -0.000112876 0)
(-0.00790544 -0.000124459 0)
(-0.00781051 -0.000135981 0)
(-0.00770731 -0.000147417 0)
(-0.00759589 -0.00015874 0)
(-0.00747634 -0.000169926 0)
(-0.00734879 -0.000180949 0)
(-0.00721334 -0.000191784 0)
(-0.00707014 -0.000202407 0)
(-0.00691934 -0.000212794 0)
(-0.00676112 -0.000222923 0)
(-0.00659567 -0.000232773 0)
(-0.00642319 -0.000242322 0)
(-0.00624389 -0.000251553 0)
(-0.00605801 -0.000260448 0)
(-0.00586579 -0.000268991 0)
(-0.00566748 -0.000277168 0)
(-0.00546334 -0.000284965 0)
(-0.00525365 -0.00029237 0)
(-0.00503868 -0.000299373 0)
(-0.00481872 -0.000305961 0)
(-0.00459408 -0.000312122 0)
(-0.00436507 -0.000317841 0)
(-0.00413201 -0.000323094 0)
(-0.00389525 -0.000327853 0)
(-0.00365517 -0.000332074 0)
(-0.00341218 -0.000335693 0)
(-0.00316677 -0.000338621 0)
(-0.00291949 -0.000340735 0)
(-0.002671 -0.000341867 0)
(-0.00242211 -0.000341794 0)
(-0.00217381 -0.000340228 0)
(-0.00192732 -0.000336804 0)
(-0.00168413 -0.000331074 0)
(-0.00144609 -0.000322498 0)
(-0.00121543 -0.000310448 0)
(-0.0009948 -0.000294219 0)
(-0.00078732 -0.000273058 0)
(-0.000596532 -0.000246227 0)
(-0.00042633 -0.000213123 0)
(-0.000280765 -0.000173523 0)
(-0.000163661 -0.000128033 0)
(-7.76593e-05 -7.89322e-05 0)
(-2.47828e-05 -3.16014e-05 0)
(-1.80608e-06 3.67951e-07 0)
(-5.34152e-06 2.69401e-05 0)
(-5.01328e-05 9.77039e-05 0)
(-0.000129932 0.000172691 0)
(-0.000244626 0.000241163 0)
(-0.00038742 0.00029954 0)
(-0.000554391 0.000346988 0)
(-0.000741055 0.000384143 0)
(-0.000943275 0.000412291 0)
(-0.00115742 0.000432924 0)
(-0.00138043 0.000447499 0)
(-0.00160977 0.000457331 0)
(-0.00184343 0.000463547 0)
(-0.00207986 0.000467076 0)
(-0.00231788 0.000468656 0)
(-0.00255659 0.000468856 0)
(-0.00279537 0.000468098 0)
(-0.00303375 0.000466684 0)
(-0.0032714 0.000464823 0)
(-0.00350809 0.00046265 0)
(-0.00374363 0.000460246 0)
(-0.00397789 0.000457656 0)
(-0.00421076 0.0004549 0)
(-0.00444211 0.000451981 0)
(-0.00467186 0.000448893 0)
(-0.00489991 0.000445625 0)
(-0.00512613 0.000442162 0)
(-0.00535043 0.000438487 0)
(-0.00557269 0.000434586 0)
(-0.00579277 0.000430442 0)
(-0.00601055 0.000426041 0)
(-0.00622589 0.000421366 0)
(-0.00643864 0.000416404 0)
(-0.00664866 0.00041114 0)
(-0.00685578 0.00040556 0)
(-0.00705983 0.000399649 0)
(-0.00726066 0.000393395 0)
(-0.00745808 0.000386784 0)
(-0.0076519 0.000379802 0)
(-0.00784195 0.000372436 0)
(-0.00802801 0.000364674 0)
(-0.00820989 0.000356503 0)
(-0.00838739 0.00034791 0)
(-0.00856028 0.000338885 0)
(-0.00872836 0.000329417 0)
(-0.0088914 0.000319494 0)
(-0.00904917 0.000309108 0)
(-0.00920145 0.000298249 0)
(-0.00934799 0.00028691 0)
(-0.00948856 0.000275085 0)
(-0.00962293 0.000262766 0)
(-0.00975084 0.00024995 0)
(-0.00987205 0.000236634 0)
(-0.00998633 0.000222816 0)
(-0.0100934 0.000208497 0)
(-0.0101931 0.000193677 0)
(-0.0102851 0.000178361 0)
(-0.0103692 0.000162554 0)
(-0.0104452 0.000146263 0)
(-0.0105127 0.000129498 0)
(-0.0105717 0.000112271 0)
(-0.0106219 9.45948e-05 0)
(-0.0106631 7.64861e-05 0)
(-0.010695 5.79634e-05 0)
(-0.0107175 3.90473e-05 0)
(-0.0107304 1.97612e-05 0)
(-0.0107336 1.30391e-07 0)
(-0.0107268 -1.98173e-05 0)
(-0.01071 -4.00518e-05 0)
(-0.010683 -6.05409e-05 0)
(-0.0106457 -8.12502e-05 0)
(-0.010598 -0.000102143 0)
(-0.0105398 -0.000123182 0)
(-0.0104711 -0.000144327 0)
(-0.0103919 -0.000165536 0)
(-0.0103021 -0.000186767 0)
(-0.0102017 -0.000207976 0)
(-0.0100907 -0.000229118 0)
(-0.00996933 -0.000250148 0)
(-0.00983748 -0.00027102 0)
(-0.0096953 -0.000291689 0)
(-0.0095429 -0.000312108 0)
(-0.00938041 -0.000332233 0)
(-0.00920799 -0.00035202 0)
(-0.00902581 -0.000371425 0)
(-0.00883408 -0.000390407 0)
(-0.008633 -0.000408924 0)
(-0.00842281 -0.00042694 0)
(-0.00820376 -0.000444417 0)
(-0.00797613 -0.000461322 0)
(-0.0077402 -0.000477624 0)
(-0.00749626 -0.000493293 0)
(-0.00724463 -0.000508303 0)
(-0.00698565 -0.00052263 0)
(-0.00671963 -0.000536252 0)
(-0.00644694 -0.000549146 0)
(-0.00616793 -0.000561291 0)
(-0.00588299 -0.00057266 0)
(-0.0055925 -0.000583221 0)
(-0.00529687 -0.000592931 0)
(-0.00499656 -0.000601731 0)
(-0.00469203 -0.000609535 0)
(-0.00438382 -0.000616223 0)
(-0.00407256 -0.000621627 0)
(-0.00375894 -0.000625516 0)
(-0.00344383 -0.00062758 0)
(-0.00312824 -0.000627413 0)
(-0.00281343 -0.000624494 0)
(-0.00250094 -0.000618171 0)
(-0.00219263 -0.00060765 0)
(-0.00189076 -0.000591991 0)
(-0.00159806 -0.000570117 0)
(-0.00131772 -0.000540844 0)
(-0.00105342 -0.000502948 0)
(-0.000809312 -0.00045528 0)
(-0.000589865 -0.000396985 0)
(-0.000399694 -0.000327877 0)
(-0.000243174 -0.000249081 0)
(-0.000123379 -0.000164106 0)
(-4.45582e-05 -8.04248e-05 0)
(-4.2737e-06 -1.43624e-05 0)
(-7.26571e-06 5.37969e-05 0)
(-6.59688e-05 0.000169686 0)
(-0.000166703 0.000283242 0)
(-0.000308187 0.00038491 0)
(-0.000481206 0.000471377 0)
(-0.000681191 0.000542034 0)
(-0.000903128 0.000597866 0)
(-0.00114251 0.000640632 0)
(-0.00139539 0.000672371 0)
(-0.00165842 0.000695109 0)
(-0.00192882 0.000710709 0)
(-0.00220435 0.000720791 0)
(-0.00248323 0.000726715 0)
(-0.00276409 0.000729575 0)
(-0.00304591 0.000730228 0)
(-0.0033279 0.000729316 0)
(-0.00360952 0.00072731 0)
(-0.00389033 0.000724536 0)
(-0.00417004 0.000721213 0)
(-0.0044484 0.000717477 0)
(-0.00472524 0.000713407 0)
(-0.00500039 0.000709042 0)
(-0.00527372 0.000704394 0)
(-0.00554509 0.000699459 0)
(-0.00581436 0.000694225 0)
(-0.00608141 0.000688673 0)
(-0.00634609 0.00068278 0)
(-0.00660826 0.000676525 0)
(-0.00686776 0.000669886 0)
(-0.00712444 0.000662839 0)
(-0.00737813 0.000655363 0)
(-0.00762866 0.000647436 0)
(-0.00787584 0.000639037 0)
(-0.00811949 0.000630145 0)
(-0.00835941 0.000620738 0)
(-0.00859541 0.000610797 0)
(-0.00882727 0.000600302 0)
(-0.00905477 0.000589232 0)
(-0.0092777 0.000577568 0)
(-0.00949582 0.000565292 0)
(-0.0097089 0.000552384 0)
(-0.0099167 0.000538827 0)
(-0.010119 0.000524603 0)
(-0.0103155 0.000509698 0)
(-0.0105059 0.000494094 0)
(-0.01069 0.00047778 0)
(-0.0108676 0.000460741 0)
(-0.0110383 0.000442966 0)
(-0.011202 0.000424446 0)
(-0.0113582 0.000405173 0)
(-0.0115067 0.000385141 0)
(-0.0116473 0.000364346 0)
(-0.0117797 0.000342787 0)
(-0.0119036 0.000320463 0)
(-0.0120187 0.00029738 0)
(-0.0121247 0.000273542 0)
(-0.0122214 0.000248959 0)
(-0.0123085 0.000223643 0)
(-0.0123857 0.000197608 0)
(-0.0124528 0.000170875 0)
(-0.0125096 0.000143463 0)
(-0.0125558 0.000115399 0)
(-0.0125911 8.67114e-05 0)
(-0.0126154 5.74318e-05 0)
(-0.0126285 2.75962e-05 0)
(-0.0126301 -2.75624e-06 0)
(-0.0126202 -3.35826e-05 0)
(-0.0125984 -6.48372e-05 0)
(-0.0125648 -9.64706e-05 0)
(-0.0125192 -0.00012843 0)
(-0.0124615 -0.000160661 0)
(-0.0123916 -0.000193105 0)
(-0.0123094 -0.000225702 0)
(-0.0122149 -0.000258388 0)
(-0.0121082 -0.000291098 0)
(-0.0119891 -0.000323768 0)
(-0.0118578 -0.000356328 0)
(-0.0117144 -0.000388711 0)
(-0.0115588 -0.000420847 0)
(-0.0113912 -0.000452667 0)
(-0.0112118 -0.000484103 0)
(-0.0110207 -0.000515086 0)
(-0.010818 -0.000545551 0)
(-0.0106041 -0.00057543 0)
(-0.0103791 -0.000604663 0)
(-0.0101432 -0.000633187 0)
(-0.00989677 -0.000660946 0)
(-0.00964009 -0.000687884 0)
(-0.00937345 -0.000713949 0)
(-0.00909719 -0.000739096 0)
(-0.00881165 -0.000763278 0)
(-0.00851719 -0.000786457 0)
(-0.00821419 -0.000808594 0)
(-0.00790303 -0.000829653 0)
(-0.00758413 -0.000849601 0)
(-0.0072579 -0.000868399 0)
(-0.00692477 -0.000886007 0)
(-0.00658521 -0.00090237 0)
(-0.00623969 -0.000917419 0)
(-0.00588872 -0.000931057 0)
(-0.00553288 -0.000943145 0)
(-0.00517279 -0.000953494 0)
(-0.00480918 -0.000961839 0)
(-0.00444287 -0.000967821 0)
(-0.00407486 -0.000970962 0)
(-0.00370635 -0.000970642 0)
(-0.00333879 -0.000966071 0)
(-0.00297392 -0.000956271 0)
(-0.00261388 -0.000940064 0)
(-0.00226122 -0.000916067 0)
(-0.00191897 -0.000882719 0)
(-0.00159067 -0.000838334 0)
(-0.00128037 -0.000781202 0)
(-0.000992564 -0.000709772 0)
(-0.000732111 -0.000622938 0)
(-0.000504048 -0.000520526 0)
(-0.000313309 -0.000404024 0)
(-0.000163623 -0.000277714 0)
(-6.17365e-05 -0.000150142 0)
(-6.33419e-06 -3.81637e-05 0)
(-8.8105e-06 8.76121e-05 0)
(-7.90908e-05 0.000258114 0)
(-0.000197777 0.000416413 0)
(-0.000362467 0.000555358 0)
(-0.000561657 0.00067277 0)
(-0.00079002 0.000768785 0)
(-0.00104197 0.00084501 0)
(-0.00131266 0.000903809 0)
(-0.00159788 0.000947826 0)
(-0.00189412 0.000979683 0)
(-0.00219842 0.00100181 0)
(-0.00250838 0.00101634 0)
(-0.0028221 0.00102507 0)
(-0.0031381 0.00102949 0)
(-0.00345522 0.00103076 0)
(-0.00377262 0.00102975 0)
(-0.00408963 0.00102712 0)
(-0.00440578 0.00102333 0)
(-0.00472071 0.0010187 0)
(-0.00503412 0.00101343 0)
(-0.00534579 0.00100763 0)
(-0.00565553 0.00100137 0)
(-0.00596317 0.000994675 0)
(-0.00626853 0.000987547 0)
(-0.00657145 0.000979972 0)
(-0.00687179 0.000971929 0)
(-0.00716937 0.000963391 0)
(-0.00746403 0.000954329 0)
(-0.00775559 0.000944715 0)
(-0.00804386 0.000934519 0)
(-0.00832865 0.000923711 0)
(-0.00860978 0.000912262 0)
(-0.00888702 0.000900144 0)
(-0.00916018 0.000887329 0)
(-0.00942903 0.000873787 0)
(-0.00969334 0.000859493 0)
(-0.00995287 0.000844417 0)
(-0.0102074 0.000828534 0)
(-0.0104567 0.000811818 0)
(-0.0107004 0.000794242 0)
(-0.0109384 0.000775781 0)
(-0.0111703 0.000756413 0)
(-0.0113959 0.000736114 0)
(-0.0116148 0.000714862 0)
(-0.0118269 0.000692637 0)
(-0.0120318 0.000669421 0)
(-0.0122293 0.000645197 0)
(-0.0124189 0.00061995 0)
(-0.0126005 0.000593667 0)
(-0.0127737 0.00056634 0)
(-0.0129382 0.00053796 0)
(-0.0130937 0.000508524 0)
(-0.0132399 0.000478029 0)
(-0.0133765 0.000446479 0)
(-0.0135032 0.000413878 0)
(-0.0136197 0.000380237 0)
(-0.0137257 0.000345569 0)
(-0.0138209 0.000309892 0)
(-0.013905 0.000273226 0)
(-0.0139778 0.000235601 0)
(-0.014039 0.000197045 0)
(-0.0140883 0.000157595 0)
(-0.0141254 0.000117291 0)
(-0.0141502 7.61791e-05 0)
(-0.0141625 3.4309e-05 0)
(-0.014162 -8.26443e-06 0)
(-0.0141485 -5.14816e-05 0)
(-0.014122 -9.52785e-05 0)
(-0.0140822 -0.000139586 0)
(-0.014029 -0.000184332 0)
(-0.0139623 -0.00022944 0)
(-0.0138821 -0.000274829 0)
(-0.0137882 -0.000320415 0)
(-0.0136807 -0.000366112 0)
(-0.0135596 -0.00041183 0)
(-0.0134248 -0.000457477 0)
(-0.0132765 -0.000502962 0)
(-0.0131146 -0.000548188 0)
(-0.0129393 -0.000593062 0)
(-0.0127508 -0.000637489 0)
(-0.0125491 -0.000681373 0)
(-0.0123345 -0.000724623 0)
(-0.0121071 -0.000767146 0)
(-0.0118673 -0.000808852 0)
(-0.0116152 -0.000849657 0)
(-0.0113511 -0.000889475 0)
(-0.0110753 -0.000928228 0)
(-0.0107883 -0.000965841 0)
(-0.0104902 -0.00100224 0)
(-0.0101815 -0.00103737 0)
(-0.00986255 -0.00107116 0)
(-0.00953377 -0.00110355 0)
(-0.00919556 -0.0011345 0)
(-0.00884836 -0.00116395 0)
(-0.0084926 -0.00119186 0)
(-0.00812876 -0.00121817 0)
(-0.00775732 -0.00124281 0)
(-0.00737879 -0.00126572 0)
(-0.00699369 -0.00128678 0)
(-0.00660261 -0.00130586 0)
(-0.00620618 -0.00132276 0)
(-0.00580509 -0.00133721 0)
(-0.00540015 -0.00134884 0)
(-0.00499228 -0.00135714 0)
(-0.0045826 -0.00136145 0)
(-0.0041724 -0.00136091 0)
(-0.00376327 -0.00135445 0)
(-0.00335713 -0.00134074 0)
(-0.00295627 -0.00131819 0)
(-0.00256342 -0.00128495 0)
(-0.00218182 -0.00123897 0)
(-0.00181521 -0.00117803 0)
(-0.00146787 -0.00109994 0)
(-0.00114453 -0.00100272 0)
(-0.000850357 -0.000884958 0)
(-0.000590775 -0.00074638 0)
(-0.000371329 -0.000588571 0)
(-0.000196539 -0.000416067 0)
(-7.54808e-05 -0.000237628 0)
(-7.9265e-06 -6.93681e-05 0)
(-1.00265e-05 0.000127045 0)
(-8.96913e-05 0.000360252 0)
(-0.000223347 0.000568819 0)
(-0.000407644 0.000748693 0)
(-0.000629087 0.00089948 0)
(-0.000881562 0.00102254 0)
(-0.0011589 0.00112039 0)
(-0.00145588 0.00119617 0)
(-0.00176809 0.00125323 0)
(-0.00209184 0.00129482 0)
(-0.00242408 0.00132395 0)
(-0.00276232 0.00134331 0)
(-0.00310457 0.00135513 0)
(-0.00344926 0.00136129 0)
(-0.00379519 0.00136327 0)
(-0.00414143 0.00136219 0)
(-0.00448727 0.00135891 0)
(-0.00483219 0.00135402 0)
(-0.00517577 0.00134794 0)
(-0.00551768 0.00134095 0)
(-0.00585768 0.00133321 0)
(-0.00619552 0.00132481 0)
(-0.00653102 0.00131579 0)
(-0.00686397 0.00130616 0)
(-0.0071942 0.00129592 0)
(-0.00752151 0.00128503 0)
(-0.00784574 0.00127347 0)
(-0.00816668 0.0012612 0)
(-0.00848413 0.0012482 0)
(-0.00879791 0.00123441 0)
(-0.00910778 0.0012198 0)
(-0.00941355 0.00120435 0)
(-0.00971497 0.001188 0)
(-0.0100118 0.00117073 0)
(-0.0103039 0.0011525 0)
(-0.0105909 0.00113328 0)
(-0.0108725 0.00111302 0)
(-0.0111486 0.0010917 0)
(-0.0114189 0.00106928 0)
(-0.011683 0.00104574 0)
(-0.0119407 0.00102103 0)
(-0.0121917 0.000995128 0)
(-0.0124357 0.000968008 0)
(-0.0126724 0.00093964 0)
(-0.0129015 0.000909999 0)
(-0.0131227 0.000879063 0)
(-0.0133356 0.00084681 0)
(-0.01354 0.000813222 0)
(-0.0137355 0.000778285 0)
(-0.0139218 0.000741987 0)
(-0.0140986 0.00070432 0)
(-0.0142655 0.000665278 0)
(-0.0144223 0.000624862 0)
(-0.0145685 0.000583075 0)
(-0.0147039 0.000539927 0)
(-0.0148281 0.000495431 0)
(-0.0149409 0.000449606 0)
(-0.0150419 0.000402476 0)
(-0.0151309 0.000354071 0)
(-0.0152075 0.000304426 0)
(-0.0152714 0.000253583 0)
(-0.0153225 0.00020159 0)
(-0.0153604 0.0001485 0)
(-0.0153849 9.43732e-05 0)
(-0.0153957 3.92756e-05 0)
(-0.0153927 -1.67206e-05 0)
(-0.0153757 -7.35373e-05 0)
(-0.0153445 -0.00013109 0)
(-0.015299 -0.00018929 0)
(-0.015239 -0.000248042 0)
(-0.0151645 -0.000307245 0)
(-0.0150752 -0.000366796 0)
(-0.0149714 -0.000426584 0)
(-0.0148527 -0.000486498 0)
(-0.0147194 -0.00054642 0)
(-0.0145714 -0.000606234 0)
(-0.0144088 -0.000665817 0)
(-0.0142316 -0.000725048 0)
(-0.01404 -0.000783804 0)
(-0.0138341 -0.000841963 0)
(-0.0136141 -0.000899402 0)
(-0.0133802 -0.000956001 0)
(-0.0131326 -0.00101164 0)
(-0.0128716 -0.00106621 0)
(-0.0125975 -0.00111959 0)
(-0.0123105 -0.00117169 0)
(-0.0120111 -0.00122238 0)
(-0.0116995 -0.00127159 0)
(-0.0113761 -0.00131921 0)
(-0.0110413 -0.00136517 0)
(-0.0106956 -0.00140938 0)
(-0.0103393 -0.00145178 0)
(-0.00997298 -0.00149228 0)
(-0.00959703 -0.00153083 0)
(-0.00921195 -0.00156736 0)
(-0.00881823 -0.0016018 0)
(-0.0084164 -0.00163406 0)
(-0.00800701 -0.00166405 0)
(-0.00759064 -0.00169161 0)
(-0.0071679 -0.00171656 0)
(-0.00673948 -0.00173864 0)
(-0.00630613 -0.00175749 0)
(-0.00586872 -0.00177263 0)
(-0.00542823 -0.00178338 0)
(-0.00498586 -0.00178891 0)
(-0.00454298 -0.0017881 0)
(-0.00410127 -0.00177958 0)
(-0.00366275 -0.00176165 0)
(-0.0032298 -0.00173231 0)
(-0.0028053 -0.00168924 0)
(-0.00239257 -0.00162987 0)
(-0.00199552 -0.00155146 0)
(-0.00161855 -0.00145128 0)
(-0.00126661 -0.0013269 0)
(-0.000945108 -0.00117653 0)
(-0.000659887 -0.000999604 0)
(-0.000417111 -0.000797521 0)
(-0.000222104 -0.00057462 0)
(-8.58825e-05 -0.000339265 0)
(-9.08526e-06 -0.000106234 0)
(-1.09719e-05 0.000170931 0)
(-9.81141e-05 0.000473561 0)
(-0.000243995 0.000737198 0)
(-0.000444527 0.000961245 0)
(-0.000684565 0.00114754 0)
(-0.000957256 0.00129904 0)
(-0.00125586 0.00141946 0)
(-0.00157478 0.00151289 0)
(-0.0019094 0.00158347 0)
(-0.0022559 0.00163515 0)
(-0.00261111 0.00167159 0)
(-0.0029725 0.00169597 0)
(-0.00333801 0.00171104 0)
(-0.00370605 0.00171903 0)
(-0.00407537 0.00172176 0)
(-0.00444499 0.00172062 0)
(-0.00481418 0.00171663 0)
(-0.00518237 0.00171055 0)
(-0.00554913 0.00170291 0)
(-0.00591409 0.00169404 0)
(-0.00627697 0.00168417 0)
(-0.00663751 0.00167341 0)
(-0.0069955 0.00166183 0)
(-0.00735071 0.00164945 0)
(-0.00770295 0.00163625 0)
(-0.008052 0.00162222 0)
(-0.00839768 0.00160731 0)
(-0.00873977 0.0015915 0)
(-0.00907805 0.00157474 0)
(-0.0094123 0.00155698 0)
(-0.0097423 0.00153818 0)
(-0.0100678 0.0015183 0)
(-0.0103886 0.00149729 0)
(-0.0107044 0.00147511 0)
(-0.011015 0.00145172 0)
(-0.0113201 0.00142707 0)
(-0.0116194 0.00140113 0)
(-0.0119126 0.00137384 0)
(-0.0121995 0.00134518 0)
(-0.0124798 0.0013151 0)
(-0.0127531 0.00128355 0)
(-0.0130192 0.00125052 0)
(-0.0132778 0.00121595 0)
(-0.0135284 0.00117982 0)
(-0.0137709 0.00114211 0)
(-0.0140048 0.00110277 0)
(-0.0142299 0.00106178 0)
(-0.0144458 0.00101914 0)
(-0.0146521 0.000974808 0)
(-0.0148486 0.000928782 0)
(-0.0150348 0.000881051 0)
(-0.0152104 0.000831612 0)
(-0.0153752 0.000780465 0)
(-0.0155287 0.000727616 0)
(-0.0156706 0.000673077 0)
(-0.0158006 0.000616868 0)
(-0.0159184 0.000559013 0)
(-0.0160236 0.000499543 0)
(-0.0161159 0.000438497 0)
(-0.0161951 0.00037592 0)
(-0.0162608 0.000311866 0)
(-0.0163127 0.000246395 0)
(-0.0163506 0.000179576 0)
(-0.0163743 0.000111482 0)
(-0.0163835 4.21993e-05 0)
(-0.0163781 -2.81831e-05 0)
(-0.0163577 -9.95665e-05 0)
(-0.0163222 -0.000171846 0)
(-0.0162716 -0.000244908 0)
(-0.0162056 -0.000318635 0)
(-0.0161242 -0.000392902 0)
(-0.0160273 -0.000467577 0)
(-0.0159148 -0.000542526 0)
(-0.0157868 -0.000617607 0)
(-0.0156432 -0.000692677 0)
(-0.0154841 -0.000767588 0)
(-0.0153095 -0.000842189 0)
(-0.0151196 -0.000916331 0)
(-0.0149145 -0.00098986 0)
(-0.0146943 -0.00106262 0)
(-0.0144593 -0.00113447 0)
(-0.0142095 -0.00120526 0)
(-0.0139454 -0.00127483 0)
(-0.0136672 -0.00134305 0)
(-0.0133751 -0.00140978 0)
(-0.0130696 -0.00147489 0)
(-0.0127509 -0.00153825 0)
(-0.0124194 -0.00159974 0)
(-0.0120756 -0.00165925 0)
(-0.0117198 -0.00171667 0)
(-0.0113526 -0.00177191 0)
(-0.0109743 -0.00182488 0)
(-0.0105855 -0.00187549 0)
(-0.0101866 -0.00192365 0)
(-0.00977811 -0.00196928 0)
(-0.00936063 -0.0020123 0)
(-0.00893469 -0.00205258 0)
(-0.00850086 -0.00209001 0)
(-0.00805975 -0.0021244 0)
(-0.00761204 -0.00215552 0)
(-0.00715842 -0.00218302 0)
(-0.00669971 -0.00220647 0)
(-0.0062368 -0.00222525 0)
(-0.00577073 -0.00223855 0)
(-0.00530274 -0.00224531 0)
(-0.00483428 -0.00224418 0)
(-0.00436706 -0.00223347 0)
(-0.00390316 -0.00221112 0)
(-0.00344505 -0.0021747 0)
(-0.00299565 -0.00212142 0)
(-0.00255838 -0.00204817 0)
(-0.00213722 -0.00195167 0)
(-0.00173672 -0.00182866 0)
(-0.00136198 -0.00167614 0)
(-0.00101868 -0.00149186 0)
(-0.000713057 -0.00127479 0)
(-0.000451859 -0.0010259 0)
(-0.000241141 -0.000748985 0)
(-9.34036e-05 -0.000451667 0)
(-9.88662e-06 -0.000147219 0)
(-1.17005e-05 0.000218303 0)
(-0.000104724 0.000595824 0)
(-0.000260426 0.000918601 0)
(-0.000474176 0.00118965 0)
(-0.000729508 0.00141334 0)
(-0.00101892 0.0015945 0)
(-0.00133514 0.00173826 0)
(-0.00167224 0.00184981 0)
(-0.00202536 0.00193422 0)
(-0.00239055 0.00199621 0)
(-0.00276457 0.00204008 0)
(-0.00314484 0.00206959 0)
(-0.00352927 0.00208795 0)
(-0.00391622 0.00209781 0)
(-0.00430444 0.00210129 0)
(-0.00469294 0.00210003 0)
(-0.00508095 0.00209528 0)
(-0.00546788 0.00208793 0)
(-0.00585328 0.00207861 0)
(-0.00623677 0.00206773 0)
(-0.00661804 0.00205557 0)
(-0.00699682 0.00204228 0)
(-0.00737286 0.00202793 0)
(-0.00774595 0.00201257 0)
(-0.00811584 0.00199618 0)
(-0.00848234 0.00197875 0)
(-0.00884522 0.00196023 0)
(-0.00920425 0.00194058 0)
(-0.00955921 0.00191976 0)
(-0.00990986 0.00189771 0)
(-0.010256 0.00187438 0)
(-0.0105973 0.00184973 0)
(-0.0109335 0.0018237 0)
(-0.0112645 0.00179623 0)
(-0.0115898 0.00176729 0)
(-0.0119093 0.00173681 0)
(-0.0122227 0.00170475 0)
(-0.0125296 0.00167106 0)
(-0.0128297 0.0016357 0)
(-0.0131228 0.00159861 0)
(-0.0134086 0.00155975 0)
(-0.0136866 0.00151907 0)
(-0.0139567 0.00147655 0)
(-0.0142184 0.00143213 0)
(-0.0144714 0.00138579 0)
(-0.0147154 0.00133749 0)
(-0.01495 0.00128721 0)
(-0.0151749 0.00123491 0)
(-0.0153897 0.00118058 0)
(-0.0155941 0.00112421 0)
(-0.0157877 0.00106579 0)
(-0.0159701 0.0010053 0)
(-0.0161411 0.000942766 0)
(-0.0163002 0.000878182 0)
(-0.0164471 0.000811568 0)
(-0.0165815 0.000742949 0)
(-0.016703 0.000672355 0)
(-0.0168113 0.000599826 0)
(-0.0169061 0.00052541 0)
(-0.016987 0.000449163 0)
(-0.0170538 0.000371151 0)
(-0.0171062 0.000291447 0)
(-0.0171439 0.000210136 0)
(-0.0171667 0.000127309 0)
(-0.0171742 4.30685e-05 0)
(-0.0171664 -4.24754e-05 0)
(-0.017143 -0.000129203 0)
(-0.0171039 -0.000216987 0)
(-0.0170488 -0.000305691 0)
(-0.0169777 -0.000395171 0)
(-0.0168905 -0.000485275 0)
(-0.0167871 -0.000575846 0)
(-0.0166674 -0.00066672 0)
(-0.0165315 -0.000757727 0)
(-0.0163793 -0.000848692 0)
(-0.016211 -0.00093944 0)
(-0.0160265 -0.00102979 0)
(-0.0158261 -0.00111956 0)
(-0.0156097 -0.00120856 0)
(-0.0153778 -0.00129661 0)
(-0.0151303 -0.00138354 0)
(-0.0148676 -0.00146916 0)
(-0.0145899 -0.0015533 0)
(-0.0142976 -0.00163579 0)
(-0.0139908 -0.00171646 0)