/*--------------------------------*- C++ -*----------------------------------*\
| =========                 |                                                 |
| \\      /  F ield         | OpenFOAM: The Open Source CFD Toolbox           |
|  \\    /   O peration     | Version:  2406                                  |
|   \\  /    A nd           | Website:  www.openfoam.com                      |
|    \\/     M anipulation  |                                                 |
\*---------------------------------------------------------------------------*/
FoamFile
{
    version     2.0;
    format      ascii;
    arch        "LSB;label=32;scalar=64";
    class       surfaceScalarField;
    location    "49";
    object      phi;
}
// * * * * * * * * * * * * * * * * * * * * * * * * * * * * * * * * * * * * * //

dimensions      [0 3 -1 0 0 0 0];

oriented        oriented;

internalField   nonuniform List<scalar> 
1740
(
6.94514e-06
-6.94514e-06
1.75157e-05
-1.05706e-05
2.48158e-05
-7.30008e-06
2.71354e-05
-2.31961e-06
2.63866e-05
7.48775e-07
2.37081e-05
2.67849e-06
1.801e-05
5.69817e-06
6.34176e-06
1.16682e-05
-1.80247e-05
2.43664e-05
-6.09924e-05
4.29677e-05
-0.000122593
6.1601e-05
-0.00019651
7.3917e-05
-0.000269306
7.27953e-05
-0.000327537
5.82311e-05
-0.000361805
3.42682e-05
-0.000366225
4.42046e-06
-0.000338169
-2.8056e-05
-0.000277733
-6.0436e-05
-0.000189148
-8.85851e-05
-8.17616e-05
-0.000107387
2.83523e-05
-0.000110114
0.000121986
-9.3634e-05
0.000179419
-5.74331e-05
0.000190079
-1.06601e-05
0.000159124
3.09554e-05
0.000109303
4.98209e-05
6.23156e-05
4.69876e-05
2.87081e-05
3.36075e-05
8.63291e-06
2.00752e-05
8.63291e-06
1.26589e-05
-1.9604e-05
3.00668e-05
-2.79785e-05
3.83959e-05
-1.56292e-05
3.52715e-05
8.04841e-07
2.16655e-05
1.43548e-05
-4.99446e-06
2.93384e-05
-5.42247e-05
5.49284e-05
-0.000137155
9.45984e-05
-0.000251498
0.000138709
-0.000379744
0.000171214
-0.000500075
0.000181932
-0.000597521
0.000171363
-0.000667238
0.000142512
-0.000708532
9.95255e-05
-0.000721182
4.69176e-05
-0.00070517
-1.15913e-05
-0.000659262
-7.39638e-05
-0.000584449
-0.000135249
-0.000481903
-0.000191131
-0.000355425
-0.000233865
-0.0002136
-0.000251939
-7.22051e-05
-0.000235029
4.88125e-05
-0.000178451
0.000128418
-9.02658e-05
0.000157372
2.00113e-06
0.000143597
6.35963e-05
0.000104276
8.63087e-05
5.85723e-05
7.93112e-05
2.0123e-05
5.85244e-05
2.87559e-05
1.4898e-05
-3.4502e-05
2.83089e-05
-4.13894e-05
2.53224e-05
-1.26427e-05
3.39659e-06
2.27307e-05
-4.21298e-05
5.98812e-05
-0.000122927
0.000110136
-0.000245444
0.000177446
-0.000395263
0.000244417
-0.000544579
0.000288025
-0.000674815
0.00030145
-0.000779587
0.000286704
-0.000857428
0.000249204
-0.000910157
0.000195241
-0.000940511
0.00012988
-0.000949922
5.63289e-05
-0.000938265
-2.32486e-05
-0.000906277
-0.000105952
-0.000850646
-0.00019088
-0.000768728
-0.000273048
-0.000658541
-0.000344052
-0.000520981
-0.000389499
-0.000363411
-0.000392599
-0.000202637
-0.000339225
-6.40438e-05
-0.000228859
2.796e-05
-9.00027e-05
6.7204e-05
2.43524e-05
6.92336e-05
8.42791e-05
4.80279e-05
0.000100517
1.86321e-05
8.79202e-05
4.7388e-05
1.23884e-05
-4.68905e-05
1.20177e-05
-4.10186e-05
-1.40489e-05
1.34239e-05
-7.05894e-05
7.92712e-05
-0.00016779
0.000157081
-0.000308258
0.000250604
-0.000471477
0.000340665
-0.000627429
0.000400369
-0.000759094
0.00041969
-0.00086125
0.000403606
-0.000935319
0.000360773
-0.000985836
0.000299721
-0.00101765
0.000227052
-0.001035
0.000147233
-0.00104084
6.21685e-05
-0.00103659
-2.74991e-05
-0.00102238
-0.000120163
-0.000995644
-0.000217616
-0.000951369
-0.000317323
-0.000882524
-0.000412898
-0.000780158
-0.000491864
-0.000638233
-0.000534524
-0.000460556
-0.000516901
-0.000270228
-0.000419188
-0.000109375
-0.000250855
-1.62051e-05
-6.8818e-05
1.79306e-05
5.01434e-05
2.14931e-05
9.69543e-05
9.37929e-06
0.000100034
5.67673e-05
1.81178e-06
-4.87022e-05
-2.27643e-05
-1.64425e-05
-8.29217e-05
7.35813e-05
-0.000183481
0.00017983
-0.00032557
0.000299171
-0.000489637
0.000414671
-0.000644481
0.000495509
-0.000770018
0.000525906
-0.000862066
0.000511738
-0.00092321
0.00046475
-0.000959487
0.00039705
-0.000978156
0.00031839
-0.000985789
0.000234685
-0.000987507
0.000148951
-0.000987248
6.19094e-05
-0.000988014
-2.67328e-05
-0.000988458
-0.000119719
-0.000988753
-0.000217322
-0.000985382
-0.000320693
-0.000970367
-0.000427914
-0.000929651
-0.00053258
-0.00084539
-0.000618786
-0.000702364
-0.000659927
-0.000499523
-0.000622028
-0.000271869
-0.000478509
-9.32571e-05
-0.00024743
-1.55633e-05
-2.75504e-05
3.01809e-06
7.8373e-05
3.38432e-06
9.96678e-05
6.01516e-05
-1.75485e-05
-3.11537e-05
-7.3559e-05
3.95679e-05
-0.000169165
0.000169187
-0.000303005
0.00031367
-0.000460003
0.000456169
-0.000609885
0.000564553
-0.000728505
0.000614128
-0.000809524
0.000606925
-0.000856633
0.000558847
-0.000877597
0.000485714
-0.00088201
0.000401464
-0.000877721
0.000314101
-0.000870444
0.000227408
-0.000863628
0.000142135
-0.000859513
5.77948e-05
-0.000859251
-2.69956e-05
-0.000864212
-0.000114757
-0.000875359
-0.000206175
-0.000892796
-0.000303257
-0.000913201
-0.000407508
-0.000927369
-0.000518412
-0.000917022
-0.000629132
-0.000854284
-0.000722666
-0.000711251
-0.000765062
-0.000482604
-0.000707156
-0.000221065
-0.000508969
-4.63197e-05
-0.000202296
-5.04535e-07
3.25579e-05
2.85314e-06
9.63101e-05
6.30048e-05
-4.30481e-05
1.18944e-05
-0.000129448
0.000125968
-0.000250592
0.000290331
-0.000395226
0.000458305
-0.000538636
0.000599579
-0.000653791
0.000679707
-0.000729362
0.000689699
-0.000768909
0.000646473
-0.000781646
0.000571583
-0.00077894
0.000483008
-0.000770073
0.000392597
-0.000760514
0.000304543
-0.00075293
0.000219824
-0.000748045
0.00013725
-0.000745799
5.5549e-05
-0.000745922
-2.68722e-05
-0.000750068
-0.000110611
-0.000759053
-0.00019719
-0.000774514
-0.000287796
-0.00079815
-0.000383871
-0.000829284
-0.000487279
-0.000859438
-0.000598979
-0.000867599
-0.000714504
-0.000818202
-0.000814458
-0.000670681
-0.000854677
-0.000416369
-0.000763281
-0.000133012
-0.000485653
8.33762e-07
-0.000101288
4.61453e-06
9.25294e-05
6.76193e-05
-6.60384e-05
7.79328e-05
-0.000173048
0.000232977
-0.000303547
0.00042083
-0.000439472
0.000594229
-0.000555301
0.000715408
-0.000633335
0.000757741
-0.00067342
0.000729784
-0.000685404
0.000658457
-0.000681449
0.000567628
-0.000672401
0.00047396
-0.000663965
0.000384161
-0.000658152
0.00029873
-0.000654932
0.000216604
-0.000653653
0.000135971
-0.000653928
5.58233e-05
-0.000655908
-2.48917e-05
-0.000659995
-0.000106524
-0.000667097
-0.000190088
-0.000678489
-0.000276404
-0.000695815
-0.000366544
-0.000720961
-0.000462133
-0.000753986
-0.000565953
-0.000788368
-0.000680122
-0.000802112
-0.000800714
-0.00075229
-0.000904498
-0.00058531
-0.000930262
-0.000298917
-0.000772046
-3.96108e-05
-0.000360594
8.69304e-06
4.42255e-05
7.63124e-05
-8.10071e-05
0.00015894
-0.000196467
0.000348437
-0.000322636
0.000546999
-0.000439094
0.000710688
-0.00052517
0.000801484
-0.000572958
0.000805529
-0.000589912
0.000746739
-0.000588712
0.000657257
-0.000581203
0.000560119
-0.000574555
0.000467312
-0.000570589
0.000380195
-0.000569109
0.00029725
-0.000569131
0.000216625
-0.000570091
0.000136931
-0.000571795
5.7527e-05
-0.000574526
-2.21605e-05
-0.000578542
-0.000102508
-0.000584537
-0.000184093
-0.000593444
-0.000267497
-0.000606444
-0.000353544
-0.000625151
-0.000443427
-0.000651612
-0.000539492
-0.000685991
-0.000645743
-0.000720515
-0.000766191
-0.000729681
-0.000895332
-0.000663636
-0.000996307
-0.000465622
-0.000970059
-0.000141735
-0.000684481
1.36908e-05
-0.000111201
9.00032e-05
-8.46116e-05
0.000243551
-0.000196879
0.000460705
-0.000309303
0.000659423
-0.000403006
0.00080439
-0.000463738
0.000862216
-0.000491348
0.00083314
-0.000497029
0.000752419
-0.000493177
0.000653405
-0.00048876
0.000555702
-0.000486947
0.000465499
-0.00048745
0.000380698
-0.000489421
0.00029922
-0.000491977
0.000219182
-0.000494848
0.000139802
-0.000497983
6.06619e-05
-0.000501569
-1.85744e-05
-0.000506061
-9.80163e-05
-0.000511776
-0.000178377
-0.000519123
-0.00026015
-0.000528621
-0.000344046
-0.000541226
-0.000430822
-0.000559119
-0.000521599
-0.000585591
-0.000619271
-0.000621508
-0.000730274
-0.000656695
-0.000860144
-0.000652944
-0.00100006
-0.000541665
-0.00108134
-0.000285438
-0.000940708
-1.20463e-05
-0.000384592
7.79568e-05
-7.75049e-05
0.000321056
-0.000178412
0.000561612
-0.000273131
0.000754142
-0.000345885
0.000877145
-0.00038824
0.000904571
-0.000404653
0.000849553
-0.000406769
0.000754536
-0.000404901
0.000651536
-0.000404669
0.00055547
-0.000406714
0.000467544
-0.000410158
0.000384142
-0.000414161
0.000303223
-0.000418156
0.000223177
-0.000422037
0.000143683
-0.000425857
6.44818e-05
-0.000430047
-1.43836e-05
-0.000434844
-9.32192e-05
-0.00044088
-0.000172342
-0.000448489
-0.000252541
-0.000457783
-0.000334752
-0.000468635
-0.000419971
-0.000481337
-0.000508897
-0.000498574
-0.000602034
-0.000524568
-0.00070428
-0.000561084
-0.000823628
-0.00058851
-0.000972633
-0.000558251
-0.0011116
-0.000395444
-0.00110351
-7.42745e-05
-0.000705762
3.68234e-06
-6.21674e-05
0.000383224
-0.000146475
0.00064592
-0.00022196
0.000829626
-0.000276591
0.000931776
-0.000306239
0.000934219
-0.000317255
0.000860569
-0.000319879
0.00075716
-0.000321576
0.000653233
-0.000325141
0.000559035
-0.000330038
0.00047244
-0.000335463
0.000389567
-0.000340821
0.000308582
-0.000345872
0.000228227
-0.000350629
0.00014844
-0.000355241
6.90938e-05
-0.000359915
-9.71012e-06
-0.000365053
-8.80803e-05
-0.000371018
-0.000166377
-0.000378229
-0.000245331
-0.000386983
-0.000325997
-0.000397501
-0.000409453
-0.000409408
-0.00049699
-0.000423439
-0.000588003
-0.000441087
-0.000686632
-0.000468439
-0.000796276
-0.000504796
-0.000936277
-0.000519414
-0.00109698
-0.000421091
-0.00120184
-0.000157095
-0.000969758
-0.000153413
-4.16664e-05
0.00042489
-0.000106873
0.000711126
-0.000163679
0.000886433
-0.000203753
0.000971849
-0.000225607
0.000956073
-0.000235109
0.000870071
-0.00023977
0.00076182
-0.000244344
0.000657808
-0.000250007
0.000564697
-0.000256161
0.000478595
-0.000262383
0.000395789
-0.000268379
0.000314578
-0.000274111
0.00023396
-0.000279621
0.00015395
-0.000285025
7.44979e-05
-0.00029052
-4.2149e-06
-0.000296378
-8.22222e-05
-0.000302947
-0.000159808
-0.000310582
-0.000237695
-0.000319305
-0.000317274
-0.000329526
-0.000399232
-0.0003404
-0.000486115
-0.000352367
-0.000576036
-0.000365236
-0.000673763
-0.000385295
-0.000776217
-0.000418418
-0.000903154
-0.000452141
-0.00106325
-0.000415159
-0.00123882
-0.000233005
-0.00115191
-0.000386418
-1.87558e-05
0.000443646
-6.33275e-05
0.000755698
-0.000102167
0.000925272
-0.000129942
0.000999624
-0.000146186
0.000972318
-0.000155029
0.000878914
-0.000161369
0.000768161
-0.000167913
0.000664351
-0.000174943
0.000571728
-0.000182001
0.000485653
-0.000188859
0.000402646
-0.000195391
0.00032111
-0.000201673
0.000240241
-0.000207784
0.000160061
-0.000213859
8.05734e-05
-0.000220094
2.01943e-06
-0.000226705
-7.56114e-05
-0.000233898
-0.000152615
-0.000242164
-0.00022943
-0.000251424
-0.000308014
-0.000262416
-0.00038824
-0.000273968
-0.000474563
-0.00028632
-0.000563684
-0.000297549
-0.000662534
-0.000312456
-0.00076131
-0.000335215
-0.000880395
-0.000368713
-0.00102976
-0.000367482
-0.00124005
-0.000246266
-0.00127313
-0.000632683
4.70888e-06
0.000438937
-1.78326e-05
0.000778239
-4.08688e-05
0.000948308
-5.84267e-05
0.00101718
-7.08308e-05
0.000984722
-8.011e-05
0.000888193
-8.81826e-05
0.000776234
-9.58198e-05
0.000671988
-0.000103045
0.000578953
-0.000109809
0.000492417
-0.000116228
0.000409065
-0.000122445
0.000327327
-0.000128676
0.000246472
-0.000135068
0.000166453
-0.000141761
8.72666e-05
-0.000148894
9.15184e-06
-0.000156662
-6.78427e-05
-0.000165012
-0.000144266
-0.00017434
-0.000220101
-0.000184446
-0.000297908
-0.00019579
-0.000376896
-0.000207787
-0.000462567
-0.000220667
-0.000550804
-0.00023279
-0.000650411
-0.000246032
-0.000748067
-0.000262297
-0.000864131
-0.000291798
-0.00100026
-0.000307923
-0.00122393
-0.000223048
-0.001358
-0.000855731
2.82975e-05
0.000410639
2.6958e-05
0.000779579
1.92718e-05
0.000955994
1.14316e-05
0.00102502
3.62221e-06
0.000992531
-5.0328e-06
0.000896848
-1.3651e-05
0.000784852
-2.16519e-05
0.000679989
-2.87924e-05
0.000586094
-3.53273e-05
0.000498952
-4.15515e-05
0.000415289
-4.77141e-05
0.00033349
-5.40601e-05
0.000252818
-6.07742e-05
0.000173167
-6.80929e-05
9.45853e-05
-7.59844e-05
1.70433e-05
-8.49636e-05
-5.88635e-05
-9.44917e-05
-0.000134737
-0.000105311
-0.000209282
-0.000116954
-0.000286265
-0.000129786
-0.000364065
-0.000143461
-0.000448891
-0.000157458
-0.000536808
-0.000170936
-0.000636932
-0.000183191
-0.000735813
-0.00019581
-0.000851511
-0.000219362
-0.000976704
-0.000241797
-0.00120149
-0.000189746
-0.00141005
-0.00104548
4.91944e-05
0.000361445
6.96898e-05
0.000759084
7.74332e-05
0.000948251
7.90401e-05
0.00102342
7.42307e-05
0.000997341
6.55526e-05
0.000905526
5.62821e-05
0.000794122
4.82568e-05
0.000688014
4.17867e-05
0.000592564
3.6328e-05
0.000504411
3.12954e-05
0.000420322
2.62007e-05
0.000338584
2.0621e-05
0.000258398
1.42579e-05
0.00017953
6.79784e-06
0.000102045
-1.97136e-06
2.58125e-05
-1.1634e-05
-4.92009e-05
-2.30703e-05
-0.000123301
-3.49944e-05
-0.000197358
-4.87217e-05
-0.000272537
-6.3116e-05
-0.000349671
-7.82713e-05
-0.000433736
-9.44156e-05
-0.000520663
-0.000110409
-0.000620939
-0.000125275
-0.000720946
-0.000139263
-0.000837523
-0.00016032
-0.000955647
-0.000185348
-0.00117646
-0.00015646
-0.00143894
-0.00120194
6.59e-05
0.000295545
0.000108495
0.000716489
0.000131973
0.000924773
0.000144044
0.00101134
0.000145008
0.000996376
0.000138497
0.000912037
0.000129941
0.000802678
0.000122437
0.000695518
0.000116657
0.000598344
0.000111988
0.00050908
0.00010769
0.000424619
0.000103159
0.000343116
9.78566e-05
0.0002637
9.14755e-05
0.000185912
8.3623e-05
0.000109898
7.43481e-05
3.50875e-05
6.33584e-05
-3.82112e-05
5.07195e-05
-0.000110662
3.70173e-05
-0.000183656
2.05766e-05
-0.000256097
5.68452e-06
-0.000334778
-1.48403e-05
-0.000413211
-3.13655e-05
-0.000504138
-5.09251e-05
-0.000601379
-6.90542e-05
-0.000702817
-8.54451e-05
-0.000821132
-0.000106693
-0.000934399
-0.000135403
-0.00114775
-0.000127682
-0.00144666
-0.00132962
7.57696e-05
0.000219775
0.000140666
0.000651592
0.000181055
0.000884385
0.000204371
0.000988028
0.000211739
0.000989009
0.000207579
0.000916197
0.000199275
0.000810982
0.000191856
0.000702937
0.000186821
0.00060338
0.000183525
0.000512376
0.000180885
0.00042726
0.000178008
0.000345993
0.000174082
0.000267626
0.000168731
0.000191263
0.000161444
0.000117185
0.000152052
4.44801e-05
0.000140447
-2.66066e-05
0.000126763
-9.69782e-05
0.000110867
-0.00016776
9.35212e-05
-0.000238751
7.40595e-05
-0.000315317
5.28802e-05
-0.000392032
3.22646e-05
-0.000483523
5.4463e-06
-0.000574561
-1.34316e-05
-0.000683939
-3.81563e-05
-0.000796407
-6.39806e-05
-0.000908575
-9.66678e-05
-0.00111507
-0.00010389
-0.00143944
-0.00143351
7.57579e-05
0.000144018
0.000162858
0.000564492
0.000222824
0.000824418
0.000260219
0.000950633
0.00027753
0.000971697
0.000279628
0.000914099
0.000274434
0.000816176
0.000268332
0.00070904
0.000264104
0.000607608
0.000261731
0.000514748
0.000260099
0.000428892
0.000258224
0.000347868
0.000255062
0.000270788
0.000250131
0.000196193
0.000242908
0.000124407
0.000233152
5.42361e-05
0.000220838
-1.42929e-05
0.000205884
-8.20237e-05
0.000188352
-0.000150227
0.000168713
-0.000219113
0.000146105
-0.000292709
0.000122642
-0.000368569
9.61678e-05
-0.000457048
6.85547e-05
-0.000546948
4.02293e-05
-0.000655614
6.43512e-06
-0.000762613
-2.25692e-05
-0.00087957
-6.30102e-05
-0.00107463
-8.59527e-05
-0.0014165
-0.00151946
6.44662e-05
7.95513e-05
0.000172148
0.000456811
0.000253123
0.000743444
0.000306206
0.00089755
0.000335164
0.000942739
0.000344555
0.000904707
0.000343052
0.000817679
0.000338678
0.000713414
0.000335676
0.000610609
0.000334891
0.000515534
0.000335205
0.000428578
0.000335468
0.000347604
0.000334394
0.000271863
0.000331193
0.000199394
0.000325342
0.000130258
0.000316425
6.31534e-05
0.000304171
-2.03926e-06
0.000288696
-6.65487e-05
0.000269952
-0.000131483
0.00024813
-0.000197291
0.000223081
-0.00026766
0.000195784
-0.000341272
0.000164372
-0.000425636
0.000131521
-0.000514097
9.39358e-05
-0.000618029
5.43333e-05
-0.000723011
1.37654e-05
-0.000839002
-3.66556e-05
-0.0010242
-7.31804e-05
-0.00137998
-0.00159264
4.73483e-05
3.22031e-05
0.000166979
0.00033718
0.000269041
0.000641382
0.00034159
0.000825
0.000387274
0.000897055
0.000410303
0.000881678
0.000418039
0.000809944
0.000418833
0.00071262
0.000418501
0.000610942
0.000419384
0.00051465
0.00042106
0.000426903
0.000422609
0.000346055
0.000422786
0.000271686
0.000420572
0.000201607
0.000415351
0.000135479
0.000406505
7.19989e-05
0.000394185
1.02808e-05
0.000377777
-5.014e-05
0.000357623
-0.000111329
0.000333602
-0.000173271
0.000305729
-0.000239787
0.000274127
-0.000309669
0.000237869
-0.000389379
0.000197923
-0.00047415
0.000151972
-0.000572079
0.000102436
-0.000673474
4.82918e-05
-0.000784858
-1.2488e-05
-0.000963424
-6.13377e-05
-0.00133113
-0.00165398
2.94881e-05
2.71498e-06
0.000146007
0.000220661
0.000264805
0.000522584
0.000356669
0.000733136
0.000419772
0.000833953
0.000458181
0.000843269
0.000478143
0.000789981
0.000487701
0.000703062
0.000493085
0.000605557
0.000497865
0.00050987
0.000502728
0.000422039
0.00050714
0.000341644
0.000510062
0.000268764
0.00051028
0.000201389
0.000507186
0.000138573
0.000500061
7.91235e-05
0.000488678
2.16645e-05
0.00047265
-3.41121e-05
0.000452081
-9.07603e-05
0.00042655
-0.000147739
0.00039611
-0.000209347
0.000360128
-0.000273687
0.000318084
-0.000347334
0.000269387
-0.000425453
0.000213212
-0.000515904
0.0001503
-0.000610562
8.32763e-05
-0.000717834
1.23454e-05
-0.000892493
-4.63036e-05
-0.00127248
-0.00170028
1.61601e-05
-1.34451e-05
0.000111993
0.000124828
0.00023994
0.000394638
0.000350975
0.000622101
0.000436994
0.000747933
0.000498657
0.000781606
0.000538749
0.000749889
0.000564328
0.000677483
0.000580732
0.000589153
0.000592492
0.00049811
0.000601902
0.000412629
0.000609265
0.000334281
0.00061429
0.000263739
0.000616069
0.00019961
0.000614121
0.000140522
0.000607602
8.56418e-05
0.000596396
3.28712e-05
0.000579962
-1.76785e-05
0.00055814
-6.8938e-05
0.000530372
-0.000119972
0.000496553
-0.000175527
0.000455457
-0.000232592
0.00040668
-0.000298557
0.000348027
-0.0003668
0.000280027
-0.000447904
0.000201471
-0.000532007
0.000121099
-0.000637462
4.02675e-05
-0.000811662
-3.18893e-05
-0.00120032
-0.00173217
9.09367e-06
-2.25388e-05
7.45844e-05
5.93371e-05
0.000187889
0.000281334
0.000308054
0.000501936
0.000414324
0.000641663
0.000498487
0.000697444
0.000563777
0.000684598
0.000612027
0.000629234
0.000646537
0.000554643
0.000672142
0.000472505
0.000691685
0.000393086
0.000706344
0.000319622
0.000716736
0.000253347
0.000722683
0.000193663
0.000723888
0.000139316
0.000719865
8.96648e-05
0.000710216
4.25203e-05
0.000694692
-2.15448e-06
0.00067266
-4.69053e-05
0.000643594
-9.09059e-05
0.000606755
-0.000138688
0.000560685
-0.000186522
0.000504274
-0.000242146
0.000434986
-0.000297511
0.000353278
-0.000366196
0.000256702
-0.000435431
0.0001599
-0.00054066
5.89056e-05
-0.000710667
-2.77192e-05
-0.00111369
-0.00175989
1.33995e-06
-2.38787e-05
3.68981e-05
2.3779e-05
0.000118305
0.000199927
0.000242477
0.000377764
0.000365555
0.000518585
0.000479983
0.000583016
0.000577596
0.000586986
0.000654589
0.00055224
0.00071493
0.000494302
0.000761196
0.000426239
0.000795879
0.000358403
0.000821445
0.000294056
0.000839175
0.000235617
0.00085021
0.000182628
0.000854315
0.000135212
0.000852152
9.18281e-05
0.000842882
5.17896e-05
0.000826536
1.41924e-05
0.000802434
-2.28035e-05
0.000770333
-5.88055e-05
0.000728234
-9.65892e-05
0.000675692
-0.00013398
0.000610086
-0.000176539
0.00053064
-0.000218066
0.000436576
-0.000272133
0.000326545
-0.0003254
0.000212877
-0.000426992
8.86475e-05
-0.000586438
-1.14684e-05
-0.00101358
-0.00177136
-3.58808e-05
1.20021e-05
-3.2855e-05
2.07532e-05
1.09225e-05
0.000156149
0.000121773
0.000266913
0.000248688
0.00039167
0.000392615
0.000439089
0.000520865
0.000458735
0.00063183
0.000441275
0.000724535
0.000401597
0.000799008
0.000351767
0.000856169
0.000301242
0.000900489
0.000249736
0.000931826
0.000204281
0.000953862
0.000160592
0.000965167
0.000123907
0.000968839
8.81557e-05
0.000962353
5.82757e-05
0.000948696
2.78497e-05
0.000924239
1.6535e-06
0.000891649
-2.6216e-05
0.000846599
-5.15384e-05
0.000790966
-7.83474e-05
0.000720204
-0.000105777
0.00063609
-0.000133952
0.000535429
-0.000171472
0.000422577
-0.000212548
0.000297551
-0.000301966
0.000171892
-0.000460778
5.51359e-05
-0.000896823
-0.00171622
-0.000142898
0.0001549
-0.000143704
2.15596e-05
-0.000107831
0.000120276
-1.93305e-06
0.000161015
0.000138138
0.000251599
0.000306968
0.000270259
0.000460327
0.000305376
0.000607686
0.000293916
0.00072965
0.000279632
0.000832677
0.000248741
0.000913433
0.000220486
0.000978062
0.000185107
0.00102478
0.000157564
0.00105904
0.000126327
0.00107894
0.000104014
0.00108897
7.81174e-05
0.0010866
6.0646e-05
0.0010756
3.88487e-05
0.00105252
2.47354e-05
0.00102068
5.62533e-06
0.000976604
-7.46069e-06
0.000922507
-2.42505e-05
0.000854359
-3.76293e-05
0.000775554
-5.51469e-05
0.0006792
-7.51184e-05
0.000575606
-0.000108954
0.000452347
-0.000178707
0.000343648
-0.00035208
0.000200227
-0.000753403
-0.001516
-0.000131006
0.000285906
-0.000241261
0.000131814
-0.000236378
0.000115393
-0.000164801
8.94381e-05
-9.67615e-06
9.64743e-05
0.000155429
0.000105154
0.000341395
0.00011941
0.000508712
0.0001266
0.000659914
0.00012843
0.000788949
0.000119706
0.000896805
0.000112631
0.000983814
9.80975e-05
0.00105297
8.84106e-05
0.00110617
7.31275e-05
0.00114487
6.53155e-05
0.00117187
5.11092e-05
0.00118668
4.5836e-05
0.00119291
3.26181e-05
0.00118785
2.9801e-05
0.00117667
1.68085e-05
0.00115297
1.62333e-05
0.00112598
2.74105e-06
0.00108414
4.2139e-06
0.00104194
-1.29535e-05
0.000977487
-1.06624e-05
0.000908976
-4.04424e-05
0.000793472
-6.32023e-05
0.000655105
-0.000213712
0.000405372
-0.00050367
-0.00111062
0.000285906
0.00041772
0.000533113
0.000622551
0.000719026
0.00082418
0.00094359
0.00107019
0.00119862
0.00131832
0.00143096
0.00152905
0.00161746
0.00169059
0.00175591
0.00180702
0.00185285
0.00188547
0.00191527
0.00193208
0.00194831
0.00195105
0.00195527
0.00194231
0.00193165
0.00189121
0.00182801
0.00161429
0.00111062
)
;

boundaryField
{
    movingWall
    {
        type            calculated;
        value           uniform 0;
    }
    fixedWalls
    {
        type            calculated;
        value           uniform 0;
    }
    frontAndBack
    {
        type            empty;
    }
}


// ************************************************************************* //
