/*--------------------------------*- C++ -*----------------------------------*\
| =========                 |                                                 |
| \\      /  F ield         | OpenFOAM: The Open Source CFD Toolbox           |
|  \\    /   O peration     | Version:  2406                                  |
|   \\  /    A nd           | Website:  www.openfoam.com                      |
|    \\/     M anipulation  |                                                 |
\*---------------------------------------------------------------------------*/
FoamFile
{
    version     2.0;
    format      ascii;
    arch        "LSB;label=32;scalar=64";
    class       volScalarField;
    location    "9.35";
    object      p;
}
// * * * * * * * * * * * * * * * * * * * * * * * * * * * * * * * * * * * * * //

dimensions      [0 2 -2 0 0 0 0];

internalField   nonuniform List<scalar> 
3600
(
0.0135106
0.0135029
0.0134976
0.013487
0.0134829
0.0134752
0.0134735
0.0134685
0.0134683
0.0134653
0.013466
0.0134646
0.0134664
0.013467
0.0134703
0.0134732
0.0134788
0.0134847
0.0134933
0.0135026
0.0135146
0.0135279
0.0135436
0.0135606
0.0135798
0.0136002
0.0136222
0.0136448
0.0136683
0.0136916
0.0137147
0.0137367
0.0137573
0.0137759
0.0137919
0.013805
0.0138147
0.0138209
0.0138232
0.013822
0.0138168
0.0138084
0.0137964
0.0137821
0.013765
0.0137466
0.0137263
0.0137059
0.0136845
0.0136643
0.0136438
0.0136257
0.0136076
0.0135932
0.0135792
0.0135702
0.0135618
0.0135597
0.0135577
0.0135615
0.0135181
0.01351
0.0135074
0.0134987
0.0134967
0.0134898
0.0134889
0.013484
0.0134839
0.0134806
0.0134811
0.0134794
0.0134809
0.0134809
0.0134838
0.0134861
0.0134911
0.0134961
0.0135038
0.0135121
0.0135229
0.0135348
0.0135491
0.0135645
0.013582
0.0136006
0.0136206
0.0136413
0.0136628
0.0136841
0.0137053
0.0137255
0.0137445
0.0137616
0.0137764
0.0137885
0.0137974
0.0138032
0.0138053
0.0138042
0.0137993
0.0137915
0.0137804
0.0137671
0.0137511
0.013734
0.013715
0.0136961
0.0136762
0.0136576
0.0136387
0.0136222
0.0136059
0.0135932
0.0135807
0.0135731
0.0135655
0.0135638
0.0135613
0.0135652
0.0135241
0.0135126
0.0135104
0.0135007
0.0134993
0.0134923
0.0134918
0.0134868
0.0134869
0.0134834
0.0134839
0.0134819
0.0134832
0.0134829
0.0134855
0.0134874
0.013492
0.0134966
0.0135038
0.0135117
0.0135221
0.0135335
0.0135474
0.0135624
0.0135796
0.0135978
0.0136177
0.0136382
0.0136596
0.013681
0.0137022
0.0137225
0.0137416
0.0137589
0.0137739
0.0137861
0.0137953
0.0138012
0.0138034
0.0138023
0.0137974
0.0137895
0.0137783
0.0137648
0.0137486
0.0137313
0.0137121
0.0136931
0.013673
0.0136543
0.0136353
0.0136188
0.0136025
0.0135899
0.0135776
0.0135702
0.0135627
0.0135613
0.0135588
0.0135635
0.0135341
0.0135193
0.0135184
0.0135084
0.0135087
0.0135018
0.0135024
0.0134973
0.0134977
0.0134939
0.0134943
0.0134917
0.0134926
0.0134916
0.0134935
0.0134945
0.0134982
0.0135018
0.013508
0.0135146
0.0135238
0.013534
0.0135465
0.0135602
0.013576
0.0135929
0.0136115
0.0136308
0.013651
0.0136713
0.0136917
0.0137112
0.0137297
0.0137465
0.0137611
0.0137732
0.0137823
0.0137882
0.0137906
0.0137896
0.013785
0.0137774
0.0137665
0.0137534
0.0137376
0.0137207
0.0137021
0.0136836
0.0136641
0.0136462
0.0136279
0.0136123
0.0135968
0.0135852
0.0135736
0.013567
0.01356
0.0135591
0.0135566
0.0135615
0.0135369
0.0135185
0.0135177
0.0135063
0.0135073
0.0134999
0.013501
0.0134956
0.0134963
0.0134921
0.0134925
0.0134895
0.0134901
0.0134885
0.0134899
0.0134902
0.0134934
0.0134962
0.0135018
0.0135077
0.0135163
0.0135258
0.0135379
0.0135511
0.0135666
0.0135834
0.0136019
0.0136212
0.0136417
0.0136624
0.0136832
0.0137034
0.0137226
0.0137401
0.0137555
0.0137684
0.0137782
0.0137847
0.0137875
0.0137869
0.0137824
0.0137748
0.0137637
0.0137503
0.013734
0.0137167
0.0136974
0.0136784
0.0136584
0.01364
0.0136212
0.0136053
0.0135895
0.0135777
0.013566
0.0135594
0.0135523
0.0135515
0.0135491
0.0135541
0.0135395
0.0135182
0.0135182
0.0135059
0.0135081
0.0135005
0.0135025
0.0134969
0.0134979
0.0134933
0.0134936
0.0134899
0.01349
0.0134876
0.0134884
0.0134877
0.0134899
0.0134916
0.0134961
0.0135008
0.0135083
0.0135166
0.0135275
0.0135396
0.0135541
0.0135699
0.0135876
0.0136062
0.0136262
0.0136465
0.0136672
0.0136874
0.0137068
0.0137247
0.0137406
0.0137541
0.0137645
0.0137718
0.0137752
0.0137752
0.0137712
0.013764
0.0137531
0.0137398
0.0137235
0.0137062
0.0136869
0.0136679
0.0136478
0.0136295
0.0136109
0.0135953
0.0135797
0.0135683
0.0135568
0.0135506
0.0135437
0.0135432
0.0135407
0.0135457
0.0135318
0.0135078
0.0135081
0.0134946
0.0134974
0.0134892
0.0134917
0.0134857
0.0134869
0.0134819
0.0134821
0.013478
0.0134778
0.0134748
0.013475
0.0134737
0.0134753
0.0134762
0.01348
0.0134841
0.0134909
0.0134986
0.013509
0.0135207
0.013535
0.0135506
0.0135683
0.0135872
0.0136076
0.0136285
0.01365
0.0136712
0.0136917
0.0137109
0.0137282
0.013743
0.0137548
0.0137633
0.0137679
0.0137687
0.0137652
0.0137583
0.0137474
0.0137338
0.0137171
0.0136992
0.0136791
0.0136593
0.0136385
0.0136196
0.0136002
0.0135842
0.0135681
0.0135564
0.0135446
0.0135383
0.0135312
0.0135306
0.0135282
0.0135331
0.0135211
0.013495
0.0134959
0.0134817
0.0134853
0.0134769
0.01348
0.0134737
0.0134752
0.0134698
0.01347
0.0134653
0.0134647
0.013461
0.0134607
0.0134585
0.0134592
0.0134593
0.0134621
0.0134652
0.013471
0.0134777
0.0134872
0.013498
0.0135115
0.0135264
0.0135436
0.0135621
0.0135823
0.0136032
0.0136249
0.0136466
0.0136679
0.0136882
0.0137067
0.013723
0.0137362
0.0137462
0.0137521
0.0137541
0.0137516
0.0137453
0.0137347
0.0137214
0.0137045
0.0136863
0.0136659
0.0136458
0.0136246
0.0136054
0.0135858
0.0135697
0.0135535
0.013542
0.0135301
0.013524
0.0135169
0.0135166
0.0135141
0.0135193
0.013498
0.01347
0.0134713
0.0134562
0.0134604
0.0134515
0.013455
0.0134484
0.0134501
0.0134445
0.0134446
0.0134396
0.0134389
0.0134348
0.0134341
0.0134314
0.0134318
0.0134313
0.0134337
0.0134362
0.0134416
0.0134478
0.0134569
0.0134674
0.0134806
0.0134954
0.0135126
0.0135312
0.0135517
0.0135732
0.0135957
0.0136186
0.0136413
0.0136632
0.0136837
0.0137021
0.0137175
0.0137296
0.0137373
0.013741
0.0137397
0.0137343
0.013724
0.0137106
0.0136934
0.0136746
0.0136533
0.0136324
0.0136103
0.0135904
0.01357
0.0135534
0.0135367
0.0135249
0.0135126
0.0135064
0.0134991
0.0134989
0.0134964
0.0135021
0.0134698
0.0134405
0.0134423
0.0134267
0.0134316
0.0134225
0.0134265
0.0134197
0.0134217
0.0134159
0.0134161
0.0134107
0.0134099
0.0134053
0.0134044
0.0134011
0.013401
0.0133999
0.0134017
0.0134035
0.0134082
0.0134137
0.0134221
0.0134317
0.0134442
0.0134582
0.0134748
0.0134929
0.013513
0.0135344
0.0135573
0.0135807
0.0136046
0.0136281
0.0136505
0.0136713
0.0136892
0.0137038
0.0137141
0.0137199
0.0137204
0.0137163
0.0137068
0.0136938
0.0136764
0.0136573
0.0136354
0.013614
0.0135912
0.0135709
0.0135501
0.0135334
0.0135164
0.0135047
0.0134923
0.0134863
0.0134788
0.013479
0.0134765
0.0134829
0.0134277
0.013397
0.0133991
0.013383
0.0133883
0.013379
0.0133834
0.0133765
0.0133789
0.0133729
0.0133734
0.0133679
0.0133672
0.0133626
0.0133616
0.0133582
0.013358
0.0133567
0.0133583
0.0133598
0.0133643
0.0133694
0.0133774
0.0133866
0.0133986
0.0134121
0.0134281
0.0134458
0.0134657
0.0134871
0.0135104
0.0135348
0.0135601
0.0135857
0.0136109
0.0136348
0.0136562
0.0136744
0.013688
0.013697
0.0136999
0.0136977
0.0136892
0.0136766
0.013659
0.0136393
0.0136165
0.0135941
0.0135703
0.0135493
0.0135277
0.0135106
0.0134931
0.0134813
0.0134686
0.0134627
0.013455
0.0134556
0.0134529
0.0134602
0.0133791
0.0133474
0.01335
0.0133335
0.0133395
0.0133301
0.013335
0.0133282
0.0133308
0.0133249
0.0133256
0.0133201
0.0133195
0.0133148
0.0133138
0.0133103
0.0133099
0.0133083
0.0133096
0.0133107
0.0133146
0.013319
0.0133262
0.0133344
0.0133452
0.0133574
0.0133721
0.0133883
0.0134069
0.0134273
0.0134501
0.0134746
0.013501
0.0135286
0.0135567
0.0135844
0.0136101
0.0136331
0.0136514
0.0136648
0.0136714
0.0136721
0.0136655
0.0136539
0.0136363
0.0136163
0.0135925
0.0135694
0.0135446
0.0135229
0.0135008
0.0134836
0.0134659
0.0134543
0.0134415
0.0134359
0.013428
0.0134292
0.0134265
0.0134347
0.0133149
0.0132822
0.013285
0.0132682
0.0132747
0.0132652
0.0132705
0.0132637
0.0132668
0.0132609
0.0132621
0.0132568
0.0132566
0.013252
0.0132513
0.0132479
0.0132478
0.0132462
0.0132475
0.0132484
0.013252
0.0132559
0.0132623
0.0132695
0.013279
0.0132895
0.0133022
0.0133164
0.0133329
0.0133515
0.0133729
0.013397
0.0134241
0.0134537
0.0134851
0.0135175
0.013549
0.0135787
0.013604
0.0136242
0.0136369
0.0136426
0.0136395
0.01363
0.013613
0.0135925
0.0135675
0.0135429
0.0135166
0.0134939
0.0134708
0.0134532
0.0134351
0.0134236
0.0134106
0.0134054
0.0133973
0.0133989
0.0133961
0.0134055
0.0132435
0.0132101
0.0132133
0.0131963
0.0132033
0.0131938
0.0131996
0.0131929
0.0131964
0.0131906
0.0131921
0.0131869
0.0131869
0.0131824
0.0131819
0.0131785
0.0131784
0.0131766
0.0131776
0.013178
0.0131809
0.0131837
0.0131887
0.0131939
0.0132008
0.0132081
0.0132169
0.0132266
0.0132384
0.0132522
0.0132693
0.01329
0.0133148
0.0133439
0.0133768
0.0134131
0.013451
0.0134893
0.013525
0.0135566
0.0135808
0.013597
0.0136024
0.013599
0.0135853
0.013566
0.0135401
0.0135141
0.0134857
0.0134615
0.013437
0.013419
0.0134004
0.0133891
0.013376
0.0133711
0.0133629
0.013365
0.0133621
0.0133725
0.0131545
0.0131204
0.0131238
0.0131066
0.0131139
0.0131044
0.0131106
0.0131039
0.0131078
0.0131022
0.013104
0.0130991
0.0130995
0.0130953
0.0130951
0.0130918
0.0130917
0.0130898
0.0130906
0.0130905
0.0130925
0.013094
0.013097
0.0130993
0.0131024
0.0131045
0.0131067
0.0131084
0.0131109
0.0131143
0.0131203
0.0131297
0.0131438
0.0131637
0.0131906
0.013225
0.0132665
0.0133144
0.0133657
0.0134178
0.0134655
0.0135058
0.0135335
0.0135485
0.0135479
0.0135364
0.0135133
0.013487
0.0134562
0.0134294
0.0134023
0.0133827
0.013363
0.0133514
0.0133378
0.013333
0.0133244
0.0133268
0.0133236
0.013335
0.0130584
0.0130237
0.0130274
0.0130101
0.0130177
0.0130082
0.0130147
0.013008
0.013012
0.0130064
0.0130084
0.0130034
0.0130038
0.0129994
0.0129991
0.0129955
0.012995
0.0129925
0.0129924
0.0129909
0.0129912
0.0129901
0.0129894
0.0129866
0.0129823
0.0129745
0.0129637
0.0129486
0.0129301
0.0129081
0.0128842
0.0128601
0.0128388
0.0128245
0.0128215
0.0128346
0.0128669
0.0129203
0.0129927
0.0130807
0.0131757
0.0132704
0.0133537
0.01342
0.0134615
0.0134806
0.0134761
0.0134584
0.0134288
0.0133998
0.0133689
0.0133463
0.013324
0.0133111
0.0132964
0.0132913
0.0132818
0.0132841
0.0132804
0.0132926
0.0129425
0.0129073
0.0129111
0.0128935
0.0129013
0.0128916
0.0128981
0.0128913
0.0128954
0.0128897
0.0128916
0.0128865
0.0128868
0.0128822
0.0128815
0.0128774
0.0128762
0.0128726
0.0128712
0.0128678
0.0128653
0.0128601
0.0128535
0.0128419
0.0128247
0.0127985
0.012762
0.0127121
0.0126475
0.0125666
0.0124709
0.0123641
0.0122537
0.0121503
0.0120666
0.0120157
0.0120084
0.0120524
0.0121485
0.0122934
0.0124746
0.0126777
0.0128812
0.0130682
0.0132191
0.0133277
0.0133875
0.0134096
0.0133988
0.0133751
0.0133416
0.0133144
0.0132871
0.0132708
0.0132533
0.0132464
0.0132352
0.0132367
0.0132319
0.0132445
0.0128201
0.0127846
0.0127886
0.0127709
0.0127786
0.0127686
0.0127749
0.0127677
0.0127713
0.0127651
0.0127664
0.0127605
0.0127599
0.0127542
0.0127523
0.0127466
0.0127437
0.0127379
0.0127337
0.0127266
0.0127191
0.0127068
0.0126893
0.0126612
0.0126194
0.0125568
0.0124677
0.0123441
0.0121801
0.011972
0.0117225
0.0114414
0.0111461
0.0108604
0.010611
0.010425
0.0103246
0.0103273
0.0104394
0.0106598
0.0109728
0.0113568
0.0117767
0.0121981
0.0125804
0.0128973
0.0131254
0.013268
0.0133305
0.0133425
0.0133192
0.0132899
0.0132557
0.013233
0.0132099
0.0131991
0.0131845
0.0131838
0.0131773
0.0131898
0.0126756
0.0126397
0.0126436
0.0126254
0.0126328
0.0126223
0.0126281
0.0126201
0.0126231
0.0126159
0.0126163
0.0126092
0.0126073
0.0126
0.0125961
0.0125882
0.0125825
0.0125733
0.0125648
0.012552
0.0125363
0.0125117
0.0124752
0.0124175
0.0123297
0.0121972
0.0120052
0.0117368
0.0113804
0.0109324
0.010403
0.00981614
0.00920775
0.0086218
0.00810379
0.00769769
0.00743885
0.00735507
0.00745953
0.00775575
0.00822884
0.00885408
0.00958621
0.0103739
0.0111501
0.0118562
0.0124341
0.012859
0.0131208
0.0132522
0.0132845
0.0132712
0.0132335
0.0132016
0.0131691
0.0131505
0.01313
0.0131249
0.0131154
0.0131271
0.0125261
0.0124903
0.012494
0.0124756
0.0124825
0.0124712
0.0124759
0.0124667
0.0124681
0.0124592
0.0124575
0.0124481
0.0124435
0.0124331
0.0124257
0.0124137
0.0124032
0.0123882
0.0123724
0.01235
0.0123204
0.0122745
0.0122043
0.0120925
0.0119196
0.0116572
0.011276
0.0107491
0.0100636
0.00922581
0.00826562
0.00723301
0.00619076
0.00520695
0.004345
0.00366146
0.00319878
0.0029902
0.00305245
0.00339474
0.0040072
0.00487178
0.00594517
0.00717286
0.00847083
0.00974959
0.0109038
0.0118538
0.0125403
0.0129686
0.0131729
0.0132355
0.013216
0.0131778
0.0131324
0.0131014
0.0130711
0.0130585
0.0130443
0.0130541
0.0123518
0.0123158
0.0123191
0.0123
0.0123059
0.0122934
0.0122966
0.0122857
0.0122851
0.012274
0.0122696
0.0122572
0.012249
0.0122345
0.0122222
0.0122045
0.0121871
0.0121638
0.0121371
0.0120997
0.0120476
0.0119662
0.0118381
0.0116328
0.0113122
0.0108279
0.0101357
0.00920546
0.00803733
0.00666597
0.00515756
0.00359876
0.00208092
0.000690317
-0.000503363
-0.00144415
-0.00209573
-0.00242965
-0.0024333
-0.00209453
-0.00141697
-0.000403494
0.000919162
0.00251665
0.00431551
0.00622297
0.00810232
0.0098129
0.011212
0.0122215
0.0128268
0.0131112
0.0131803
0.0131572
0.0131005
0.013052
0.0130072
0.0129826
0.0129615
0.0129678
0.0121754
0.0121398
0.0121427
0.0121231
0.0121276
0.0121136
0.0121145
0.0121011
0.0120973
0.0120826
0.012074
0.0120568
0.012043
0.0120221
0.0120023
0.0119759
0.0119481
0.0119121
0.0118688
0.011808
0.0117199
0.0115804
0.0113569
0.0109973
0.0104383
0.00961099
0.00846531
0.00698835
0.00521827
0.00324003
0.00116764
-0.000877181
-0.00278734
-0.00447691
-0.00588927
-0.00698523
-0.0077473
-0.0081604
-0.00822307
-0.00792491
-0.00726764
-0.00623935
-0.00484647
-0.00308814
-0.00100043
0.00136374
0.00388611
0.00640857
0.0087172
0.0106127
0.0119512
0.0127293
0.0130548
0.0131174
0.0130671
0.0129995
0.0129353
0.0128934
0.0128624
0.0128632
0.011971
0.0119356
0.0119376
0.0119171
0.0119197
0.0119035
0.0119016
0.0118851
0.0118775
0.0118586
0.0118448
0.0118218
0.011801
0.0117722
0.0117428
0.0117051
0.0116635
0.01161
0.0115429
0.0114472
0.0113042
0.0110748
0.0107035
0.0101096
0.00920332
0.00790606
0.0061857
0.00407697
0.00168169
-0.000853853
-0.00337544
-0.00574719
-0.00787261
-0.00968866
-0.0111677
-0.0122949
-0.0130744
-0.0135039
-0.0135936
-0.0133366
-0.0127393
-0.0117834
-0.010467
-0.00876161
-0.00666601
-0.00417134
-0.00133039
0.00175739
0.0048878
0.00778817
0.0101576
0.0117924
0.0126777
0.0129984
0.013015
0.0129379
0.012852
0.0127861
0.0127418
0.0127339
0.0117692
0.0117347
0.0117359
0.0117145
0.0117148
0.0116961
0.0116904
0.0116698
0.0116568
0.0116319
0.0116109
0.0115797
0.0115492
0.0115092
0.0114666
0.0114132
0.0113523
0.0112743
0.0111734
0.0110273
0.0108036
0.0104419
0.00985669
0.00893629
0.00757395
0.00570614
0.00335204
0.000622127
-0.00230855
-0.00524586
-0.00802514
-0.0105292
-0.0126976
-0.0145028
-0.0159481
-0.017037
-0.0177865
-0.0181979
-0.018287
-0.0180478
-0.0174944
-0.0166108
-0.0154032
-0.0138363
-0.0118977
-0.00953494
-0.00673646
-0.00350139
6.45799e-05
0.00374185
0.00717077
0.00994025
0.0117678
0.0126613
0.0128997
0.0128518
0.0127495
0.0126529
0.0125915
0.0125702
0.0115358
0.0115018
0.0115018
0.011479
0.0114763
0.0114545
0.0114444
0.011419
0.0114
0.0113684
0.0113392
0.0112987
0.011257
0.0112038
0.0111452
0.0110727
0.0109875
0.0108778
0.0107316
0.0105165
0.0101813
0.00963844
0.00876861
0.00743614
0.00553893
0.00306129
0.000102583
-0.00314121
-0.00643922
-0.00958485
-0.0124414
-0.0149364
-0.0170557
-0.0188034
-0.0202024
-0.0212598
-0.0219924
-0.0223935
-0.0224771
-0.0222324
-0.0216818
-0.020814
-0.0196546
-0.0181781
-0.0163893
-0.0142264
-0.011654
-0.00859328
-0.00503432
-0.00104976
0.00310466
0.0069647
0.0100048
0.0118586
0.0126276
0.0127137
0.0126156
0.0124866
0.0124023
0.0123614
0.0113119
0.0112794
0.0112781
0.0112542
0.0112481
0.0112227
0.0112071
0.0111757
0.0111488
0.0111085
0.0110686
0.0110159
0.0109595
0.0108893
0.0108101
0.0107128
0.0105963
0.0104453
0.0102398
0.00993371
0.00945275
0.00867786
0.00745902
0.00565239
0.00318934
0.000131115
-0.00333099
-0.0069313
-0.0104206
-0.0136206
-0.0164501
-0.0188891
-0.0209628
-0.0226918
-0.0241023
-0.0251896
-0.0259592
-0.0263865
-0.026479
-0.0262164
-0.0256287
-0.024709
-0.0235066
-0.022012
-0.0202635
-0.0182147
-0.0158478
-0.0130564
-0.00976366
-0.00589689
-0.00152392
0.00303446
0.00721675
0.0103087
0.0119994
0.0124751
0.012426
0.0122749
0.0121625
0.0120923
0.011052
0.0110204
0.0110173
0.0109916
0.0109817
0.0109521
0.0109305
0.0108927
0.0108576
0.010808
0.0107567
0.010691
0.0106185
0.0105294
0.010427
0.0103012
0.0101478
0.00994705
0.00966888
0.00925091
0.00859212
0.00754276
0.0059313
0.00362811
0.000624121
-0.0029273
-0.00675391
-0.0105541
-0.0141022
-0.0172762
-0.0200589
-0.0224739
-0.0245704
-0.0263671
-0.0278801
-0.0290806
-0.0299552
-0.0304552
-0.0305788
-0.0302928
-0.0296354
-0.0286018
-0.0272673
-0.0256389
-0.0237956
-0.0217158
-0.0194234
-0.0168215
-0.0138271
-0.0102839
-0.00609792
-0.00135626
0.00355992
0.00785785
0.0107611
0.0120281
0.0121528
0.0119977
0.0118631
0.0117472
0.0108112
0.0107817
0.010777
0.01075
0.0107357
0.0107016
0.0106729
0.0106272
0.0105819
0.0105209
0.0104554
0.0103735
0.0102813
0.0101691
0.0100384
0.00987829
0.00968049
0.00942003
0.00905522
0.00850553
0.00764245
0.00629
0.00426913
0.00148572
-0.00199328
-0.00592535
-0.00998392
-0.0138697
-0.0174106
-0.0205513
-0.0233316
-0.0258023
-0.0280205
-0.0299889
-0.0317033
-0.033102
-0.0341497
-0.0347687
-0.0349489
-0.0346413
-0.0338938
-0.0327
-0.0311625
-0.0293011
-0.0272381
-0.024979
-0.0226003
-0.0200339
-0.0172294
-0.0140093
-0.010192
-0.00566832
-0.000527676
0.00459011
0.00877593
0.011125
0.0117913
0.0116044
0.0114965
0.0113035
0.0105289
0.0105006
0.0104938
0.0104648
0.0104457
0.0104067
0.0103707
0.0103173
0.0102619
0.0101897
0.0101101
0.0100119
0.00989955
0.00976355
0.00960299
0.00940601
0.00915979
0.00883373
0.00837322
0.00767965
0.00659861
0.00493622
0.0025201
-0.000692747
-0.00455692
-0.00875691
-0.0129446
-0.0168521
-0.020376
-0.023522
-0.0263738
-0.0289926
-0.0314317
-0.033666
-0.035666
-0.0373307
-0.0386032
-0.0393746
-0.0396303
-0.0393035
-0.0384555
-0.0370741
-0.03529
-0.0331292
-0.0307557
-0.0281972
-0.0255863
-0.0228912
-0.020116
-0.0171007
-0.0136475
-0.0095283
-0.00457718
0.000857278
0.00605926
0.00960141
0.0112324
0.0110914
0.0110242
0.0107503
0.0102784
0.0102528
0.0102443
0.010214
0.0101899
0.0101457
0.0101014
0.0100389
0.00997134
0.00988561
0.00978906
0.00967158
0.00953555
0.00937188
0.00917707
0.00893836
0.008638
0.00823986
0.00767645
0.00683258
0.0055321
0.00357221
0.000798376
-0.00277536
-0.0069337
-0.0113114
-0.0155663
-0.0194783
-0.0230129
-0.0262244
-0.0292267
-0.0320783
-0.0348205
-0.0373923
-0.0397367
-0.0417101
-0.043238
-0.0441793
-0.0445208
-0.0441765
-0.0432259
-0.0416471
-0.0396008
-0.0371109
-0.0343808
-0.0314504
-0.0285057
-0.0255495
-0.0226489
-0.0196827
-0.0164844
-0.0127797
-0.00824989
-0.00291505
0.00279744
0.00748796
0.0101892
0.0105243
0.0103501
0.0100883
0.00997872
0.00995472
0.00994381
0.00991153
0.00988223
0.00983288
0.00978075
0.00971003
0.00963147
0.00953358
0.00942149
0.00928622
0.00912776
0.00893767
0.00870939
0.00842964
0.00807531
0.00760565
0.00694087
0.00595272
0.0044481
0.0022241
-0.000851094
-0.00470828
-0.00907908
-0.0135696
-0.0178629
-0.021789
-0.0253751
-0.0287089
-0.0319249
-0.0350678
-0.0381638
-0.0411097
-0.0438239
-0.0461186
-0.0479086
-0.0490198
-0.0494475
-0.049083
-0.0480311
-0.0462551
-0.0439508
-0.0411316
-0.0380391
-0.0347124
-0.0313847
-0.0280849
-0.0249432
-0.0218866
-0.018801
-0.0154244
-0.0113692
-0.00641384
-0.00065854
0.00487131
0.00857526
0.00984448
0.00946994
0.00929472
0.0097276
0.00970709
0.0096944
0.00966123
0.00962663
0.00957206
0.00951096
0.00943073
0.00933908
0.00922685
0.00909648
0.00894071
0.00875677
0.00853733
0.00827256
0.00794917
0.0075388
0.00699748
0.00623495
0.00511424
0.00343086
0.000987522
-0.00232522
-0.00639258
-0.0109115
-0.0154766
-0.0198041
-0.0237678
-0.0274454
-0.0309443
-0.034413
-0.0378755
-0.0413429
-0.0446673
-0.0477486
-0.0503551
-0.052399
-0.053671
-0.0541816
-0.0537945
-0.0526462
-0.0506803
-0.0481346
-0.0450058
-0.0415753
-0.0378682
-0.0341586
-0.0304863
-0.0270394
-0.0237934
-0.0206939
-0.0175292
-0.0138904
-0.00945253
-0.00396755
0.00190992
0.00652966
0.00880135
0.00847736
0.00829522
0.0094163
0.00939744
0.00938248
0.00934758
0.00930806
0.00924885
0.0091803
0.0090925
0.00899029
0.00886672
0.00872133
0.00854873
0.00834298
0.00809838
0.00780122
0.00743926
0.00697863
0.00637455
0.00552788
0.00429872
0.00247505
-0.000130529
-0.00361185
-0.00782017
-0.0124371
-0.0170541
-0.0214222
-0.025445
-0.0292403
-0.0329221
-0.0366519
-0.0404266
-0.0442486
-0.0479237
-0.0513439
-0.0542326
-0.0565097
-0.0579253
-0.0585124
-0.0580993
-0.0568612
-0.0547154
-0.0519505
-0.0485402
-0.044812
-0.0407653
-0.0367116
-0.0326833
-0.0289191
-0.0254326
-0.022231
-0.0191703
-0.0158495
-0.0119499
-0.00691083
-0.0011532
0.00418801
0.00725317
0.00742659
0.00703939
0.00917502
0.00916028
0.00914383
0.00910875
0.00906429
0.00900052
0.00892329
0.0088266
0.0087116
0.00857447
0.00841129
0.00821939
0.00798923
0.00771752
0.00738644
0.00698581
0.00647663
0.00581568
0.00489752
0.0035847
0.00166155
-0.00104834
-0.00463198
-0.00892125
-0.0135984
-0.0182564
-0.0226754
-0.0267733
-0.0306973
-0.0345579
-0.0385296
-0.0425806
-0.046713
-0.0506881
-0.0544018
-0.0575316
-0.0600144
-0.0615541
-0.0622128
-0.0617745
-0.0604597
-0.0581514
-0.055197
-0.0515415
-0.0475659
-0.0432345
-0.0388973
-0.0345607
-0.0305096
-0.0267761
-0.0234306
-0.0203926
-0.0172968
-0.013881
-0.00937144
-0.00404891
0.00168316
0.00529763
0.0062572
0.00554393
0.00885725
0.0088441
0.0088257
0.00878956
0.00874113
0.00867418
0.00859103
0.00848894
0.00836548
0.00821991
0.00804449
0.00783966
0.00759156
0.00730028
0.00694294
0.00651321
0.00596632
0.0052642
0.00429619
0.00293394
0.000959306
-0.00179125
-0.00541041
-0.00972224
-0.0144263
-0.0191143
-0.0235907
-0.0277673
-0.031814
-0.035825
-0.0399944
-0.0442583
-0.0486334
-0.0528356
-0.0567804
-0.0600949
-0.0627458
-0.0643815
-0.0651033
-0.0646406
-0.0632669
-0.0608201
-0.0577143
-0.0538566
-0.0496908
-0.0451362
-0.0405874
-0.0360072
-0.0317278
-0.0277744
-0.0242858
-0.0212227
-0.018284
-0.0152671
-0.0113104
-0.00658591
-0.000862329
0.00306747
0.00477986
0.0037975
0.00863703
0.00862856
0.00860921
0.00857396
0.00852153
0.00845146
0.00836083
0.00825166
0.00811693
0.00796024
0.0077693
0.00754885
0.00728009
0.00696771
0.00658325
0.00612581
0.0055448
0.00481024
0.00380794
0.00242401
0.000439816
-0.00229466
-0.00588809
-0.0101691
-0.0148681
-0.0195745
-0.0241097
-0.0283616
-0.0325139
-0.0366343
-0.0409412
-0.0453392
-0.0498734
-0.0542164
-0.0583175
-0.0617505
-0.0645229
-0.0662212
-0.0669961
-0.0665127
-0.0651057
-0.0625559
-0.0593496
-0.0553448
-0.0510553
-0.0463448
-0.0416624
-0.0369104
-0.0324761
-0.0283514
-0.0247516
-0.0216467
-0.0188265
-0.0161246
-0.0127046
-0.00863417
-0.00327561
0.00072517
0.00294149
0.00185679
0.00831639
0.0083091
0.00828838
0.00825311
0.00819845
0.00812768
0.00803392
0.0079231
0.00778369
0.00762363
0.00742535
0.00719869
0.00691862
0.00659603
0.00619519
0.00572323
0.00512204
0.00437409
0.00336074
0.00198964
4.04184e-05
-0.00261869
-0.00612441
-0.010316
-0.0149722
-0.0196752
-0.0242623
-0.0285757
-0.032809
-0.0369871
-0.041363
-0.0458036
-0.0504031
-0.0547872
-0.058959
-0.0624308
-0.0652679
-0.0669848
-0.0677967
-0.0672928
-0.0658804
-0.063268
-0.0600215
-0.0559321
-0.0515927
-0.0467957
-0.0420585
-0.0372062
-0.0326952
-0.0284577
-0.0247984
-0.0216595
-0.0189451
-0.0164886
-0.0135641
-0.0101355
-0.00538128
-0.00154794
0.000890537
-0.000146829
0.00812876
0.0081266
0.00810565
0.00807265
0.00801543
0.00794371
0.00784439
0.00772934
0.00758113
0.00741381
0.00720351
0.00696682
0.00667153
0.00633645
0.00591754
0.00543207
0.00481338
0.00405947
0.00304694
0.00170998
-0.000173109
-0.00271126
-0.00607558
-0.0101218
-0.0146916
-0.0193616
-0.0239856
-0.0283443
-0.0326344
-0.0368228
-0.0412014
-0.045596
-0.050166
-0.0544898
-0.0586419
-0.0620686
-0.0649085
-0.0665971
-0.0674274
-0.0669043
-0.065517
-0.0628881
-0.0596684
-0.0555636
-0.051253
-0.0464397
-0.0417244
-0.0368384
-0.032326
-0.0280346
-0.0243753
-0.021225
-0.0186226
-0.0163606
-0.0138815
-0.0110448
-0.00701556
-0.00354977
-0.00111787
-0.00203395
0.0078059
0.00780413
0.0077826
0.00775092
0.00769398
0.00762512
0.00752668
0.00741541
0.00726776
0.00710416
0.00689302
0.00665914
0.0063608
0.00602734
0.00560339
0.00512019
0.00449883
0.00375826
0.0027661
0.00149089
-0.000294636
-0.00266586
-0.00583621
-0.00967327
-0.0141026
-0.0186925
-0.0233276
-0.0277069
-0.0320323
-0.0361881
-0.0405147
-0.0447817
-0.0492354
-0.0533988
-0.0574425
-0.0607371
-0.0635165
-0.0651249
-0.0659529
-0.0654063
-0.0640721
-0.0614675
-0.0583395
-0.0542834
-0.050077
-0.0453094
-0.0406864
-0.0358233
-0.0313791
-0.0270879
-0.0234909
-0.0203584
-0.0178876
-0.0157831
-0.0136984
-0.0113763
-0.00809581
-0.00512565
-0.00287717
-0.00366193
0.00766243
0.00766614
0.00764517
0.00761739
0.00755961
0.00749254
0.00739087
0.00727901
0.00712543
0.00695932
0.00674
0.00650267
0.00619473
0.00585834
0.00542505
0.00494271
0.00431788
0.00359371
0.00262589
0.00142185
-0.000253406
-0.00243286
-0.00537249
-0.00894562
-0.0131754
-0.0176278
-0.0222347
-0.0266064
-0.0309497
-0.035047
-0.0392864
-0.0433686
-0.0476382
-0.0515589
-0.0554159
-0.0585012
-0.0611612
-0.0626428
-0.0634486
-0.0628749
-0.0616187
-0.0590743
-0.0560959
-0.052143
-0.048106
-0.0434342
-0.038962
-0.0341658
-0.0298489
-0.0256021
-0.0221243
-0.0190374
-0.0167235
-0.0147499
-0.0130166
-0.0111244
-0.00856302
-0.00614649
-0.00422292
-0.00489567
0.0073338
0.00733658
0.00731596
0.00729121
0.00723693
0.00717751
0.00708188
0.00698094
0.00683436
0.00668091
0.00646815
0.00624427
0.00594185
0.00561996
0.00519211
0.00472833
0.00411444
0.00342475
0.00249506
0.00138048
-0.000170645
-0.00213371
-0.00481233
-0.0080652
-0.0120312
-0.0162695
-0.0207926
-0.0251112
-0.0294555
-0.0334749
-0.0376155
-0.0414785
-0.0455262
-0.0491428
-0.0527567
-0.0555666
-0.0580606
-0.0593709
-0.0601385
-0.0595273
-0.0583681
-0.0559037
-0.0531181
-0.0493011
-0.0454818
-0.0409355
-0.0366604
-0.0319612
-0.0278249
-0.0236585
-0.0203565
-0.0173395
-0.0152137
-0.0133471
-0.0119297
-0.0103708
-0.00845607
-0.00657159
-0.00506427
-0.00564768
0.00724625
0.00725482
0.0072355
0.00721647
0.0071631
0.00710865
0.00701205
0.00691461
0.00676463
0.00661375
0.00639586
0.00617514
0.00586731
0.00555147
0.00512036
0.00466967
0.00406071
0.00340276
0.00250633
0.00147834
4.4467e-05
-0.00170371
-0.00411597
-0.00701685
-0.0106649
-0.0146114
-0.018979
-0.023186
-0.0275041
-0.0314349
-0.0354825
-0.0391259
-0.0429469
-0.0462368
-0.0495798
-0.0520761
-0.0543734
-0.0554822
-0.0561984
-0.0555396
-0.0544871
-0.0521094
-0.0495399
-0.0458703
-0.0422944
-0.0378843
-0.0338361
-0.0292504
-0.0253371
-0.0212752
-0.0181963
-0.0152633
-0.0133546
-0.0115716
-0.0104459
-0.00913014
-0.00778111
-0.00635788
-0.00530229
-0.00580651
0.00690268
0.00690843
0.00689049
0.00687664
0.00683077
0.0067903
0.00670602
0.00662868
0.00649304
0.00636562
0.00616189
0.00596647
0.00567177
0.00538339
0.00496552
0.00454774
0.00395744
0.00334856
0.00249428
0.00156425
0.000246603
-0.00128374
-0.00343246
-0.00595731
-0.00924535
-0.0128172
-0.0169471
-0.0209562
-0.0252045
-0.0290196
-0.0329886
-0.0364241
-0.0400477
-0.0430166
-0.0461
-0.0482681
-0.0503652
-0.0512502
-0.0519122
-0.0511869
-0.0502443
-0.0479369
-0.0455896
-0.0420516
-0.03873
-0.0344477
-0.0306534
-0.0261899
-0.022548
-0.0186097
-0.0158093
-0.0129675
-0.0113137
-0.00958423
-0.00873718
-0.00756281
-0.0066819
-0.00558339
-0.00493223
-0.005341
0.00688358
0.0068955
0.00687945
0.00687351
0.00683
0.00679812
0.00671445
0.00664492
0.00650711
0.00638713
0.00617932
0.00599292
0.00569412
0.00541913
0.00499984
0.00460411
0.00402036
0.00345185
0.00262723
0.00178328
0.00056116
-0.000774103
-0.00268795
-0.00484957
-0.00776725
-0.0109102
-0.0147242
-0.018442
-0.0225508
-0.0262061
-0.0300953
-0.0333427
-0.0368111
-0.0394972
-0.0423602
-0.044222
-0.0461369
-0.046799
-0.0474086
-0.0466025
-0.045761
-0.0434991
-0.04136
-0.0379263
-0.0348535
-0.0306845
-0.0271623
-0.0228246
-0.0194933
-0.0156849
-0.0132046
-0.0104439
-0.00907464
-0.0073605
-0.00679182
-0.00566759
-0.00518313
-0.00426203
-0.00392086
-0.00419255
0.00650882
0.0065152
0.00650173
0.00650399
0.00647295
0.00646368
0.0063998
0.00636233
0.0062468
0.00616342
0.00597685
0.00582886
0.00554886
0.00531409
0.00491213
0.00456149
0.00399798
0.00348804
0.00269946
0.00195089
0.000816154
-0.000332299
-0.0020396
-0.00385432
-0.00641472
-0.00909334
-0.012534
-0.0158594
-0.0197461
-0.0231597
-0.026945
-0.0299933
-0.0333478
-0.0357836
-0.038488
-0.0400737
-0.0418532
-0.0422981
-0.0428763
-0.0419687
-0.0412279
-0.0389729
-0.0370348
-0.0336677
-0.0308535
-0.0267811
-0.023573
-0.0193647
-0.0164076
-0.0127302
-0.0106337
-0.00793291
-0.00690017
-0.00514755
-0.00487948
-0.00369161
-0.00354077
-0.00259603
-0.00241299
-0.00246648
0.00657235
0.0065856
0.0065744
0.00658767
0.00655983
0.00656358
0.00650036
0.00647515
0.00635612
0.00628449
0.00609145
0.00595712
0.00567008
0.00545406
0.00504725
0.00472448
0.00416244
0.00369668
0.00292577
0.00225554
0.00118166
0.000188713
-0.00135794
-0.00287393
-0.00512322
-0.0073544
-0.010404
-0.0132742
-0.0168574
-0.0199412
-0.0235623
-0.0263764
-0.0296228
-0.0318323
-0.0344246
-0.0357766
-0.0374657
-0.0377194
-0.0382871
-0.0372766
-0.0366338
-0.0343655
-0.03262
-0.0293017
-0.0267562
-0.0227785
-0.0199194
-0.0158418
-0.0132995
-0.00973283
-0.00805148
-0.00536257
-0.0046953
-0.0028346
-0.00289793
-0.00154325
-0.00172196
-0.000586746
-0.00045343
-0.000193583
0.00614091
0.00614478
0.00613772
0.00616404
0.00615495
0.00619397
0.00615912
0.00618234
0.00609359
0.00607517
0.00590902
0.00582823
0.00556274
0.0054001
0.00501035
0.00474365
0.00419773
0.00379752
0.00305029
0.00247027
0.00144898
0.000605283
-0.000814372
-0.00206404