/*--------------------------------*- C++ -*----------------------------------*\
| =========                 |                                                 |
| \\      /  F ield         | OpenFOAM: The Open Source CFD Toolbox           |
|  \\    /   O peration     | Version:  2406                                  |
|   \\  /    A nd           | Website:  www.openfoam.com                      |
|    \\/     M anipulation  |                                                 |
\*---------------------------------------------------------------------------*/
FoamFile
{
    version     2.0;
    format      ascii;
    arch        "LSB;label=32;scalar=64";
    class       surfaceScalarField;
    location    "9.35";
    object      phi;
}
// * * * * * * * * * * * * * * * * * * * * * * * * * * * * * * * * * * * * * //

dimensions      [0 3 -1 0 0 0 0];

oriented        oriented;

internalField   nonuniform List<scalar> 
7080
(
4.59931e-08
-4.60754e-08
-4.08393e-08
8.86619e-08
-2.52052e-07
2.10866e-07
-5.5795e-07
3.08262e-07
-9.10718e-07
3.52784e-07
-1.28533e-06
3.77154e-07
-1.66419e-06
3.79197e-07
-2.0402e-06
3.78439e-07
-2.41091e-06
3.71266e-07
-2.77531e-06
3.66607e-07
-3.13461e-06
3.60016e-07
-3.48831e-06
3.55694e-07
-3.83734e-06
3.49853e-07
-4.1803e-06
3.44754e-07
-4.51695e-06
3.37532e-07
-4.84486e-06
3.29513e-07
-5.16252e-06
3.18546e-07
-5.46653e-06
3.05404e-07
-5.75415e-06
2.88439e-07
-6.02107e-06
2.68095e-07
-6.26353e-06
2.4314e-07
-6.47653e-06
2.13905e-07
-6.65564e-06
1.7959e-07
-6.79568e-06
1.40618e-07
-6.89216e-06
9.6689e-08
-6.94045e-06
4.84896e-08
-6.93685e-06
-3.71977e-09
-6.87816e-06
-5.88948e-08
-6.76242e-06
-1.16227e-07
-6.58871e-06
-1.7433e-07
-6.35762e-06
-2.31962e-07
-6.0711e-06
-2.87536e-07
-5.73272e-06
-3.39596e-07
-5.34748e-06
-3.866e-07
-4.92179e-06
-4.27171e-07
-4.4633e-06
-4.6011e-07
-3.98056e-06
-4.84408e-07
-3.48284e-06
-4.99486e-07
-2.97963e-06
-5.04922e-07
-2.48052e-06
-5.00918e-07
-1.99446e-06
-4.87705e-07
-1.52994e-06
-4.66252e-07
-1.0941e-06
-4.37305e-07
-6.93265e-07
-4.02394e-07
-3.32003e-07
-3.62456e-07
-1.41093e-08
-3.19233e-07
2.58451e-07
-2.7342e-07
4.83958e-07
-2.26595e-07
6.6228e-07
-1.78805e-07
7.92657e-07
-1.31212e-07
8.75569e-07
-8.29844e-08
9.09944e-07
-3.49681e-08
8.95998e-07
1.43138e-08
8.32321e-07
6.32961e-08
7.20605e-07
1.12535e-07
5.64439e-07
1.55914e-07
3.77552e-07
1.88076e-07
1.87745e-07
1.89506e-07
4.21428e-08
1.46915e-07
4.21085e-08
-9.29327e-08
4.50997e-08
-4.826e-07
4.78588e-07
-1.12824e-06
8.53243e-07
-1.96584e-06
1.14521e-06
-2.91876e-06
1.30182e-06
-3.93338e-06
1.39039e-06
-4.97288e-06
1.41474e-06
-6.01567e-06
1.41947e-06
-7.05174e-06
1.40357e-06
-8.07444e-06
1.38735e-06
-9.08256e-06
1.36465e-06
-1.00728e-05
1.34383e-06
-1.10443e-05
1.31816e-06
-1.19928e-05
1.29117e-06
-1.29155e-05
1.25727e-06
-1.38059e-05
1.21792e-06
-1.46588e-05
1.16873e-06
-1.54654e-05
1.11016e-06
-1.62181e-05
1.0388e-06
-1.69063e-05
9.54704e-07
-1.75205e-05
8.55417e-07
-1.8049e-05
7.41157e-07
-1.84813e-05
6.10633e-07
-1.88062e-05
4.64754e-07
-1.90139e-05
3.03663e-07
-1.90949e-05
1.2937e-07
-1.90422e-05
-5.63927e-08
-1.88501e-05
-2.50355e-07
-1.85162e-05
-4.493e-07
-1.80403e-05
-6.48891e-07
-1.74258e-05
-8.44848e-07
-1.66789e-05
-1.03231e-06
-1.58096e-05
-1.20662e-06
-1.48303e-05
-1.36318e-06
-1.37567e-05
-1.49783e-06
-1.26066e-05
-1.60705e-06
-1.13997e-05
-1.68799e-06
-1.01569e-05
-1.73894e-06
-8.89944e-06
-1.75893e-06
-7.64853e-06
-1.74847e-06
-6.42423e-06
-1.7086e-06
-5.24539e-06
-1.64197e-06
-4.12836e-06
-1.55121e-06
-3.08757e-06
-1.44048e-06
-2.13422e-06
-1.31311e-06
-1.27761e-06
-1.17371e-06
-5.23782e-07
-1.02506e-06
1.22169e-07
-8.71063e-07
6.57819e-07
-7.12824e-07
1.08013e-06
-5.52748e-07
1.38797e-06
-3.89758e-07
1.5782e-06
-2.25166e-07
1.65002e-06
-5.69816e-08
1.60135e-06
1.1122e-07
1.43711e-06
2.76849e-07
1.16765e-06
4.23915e-07
8.23345e-07
5.32245e-07
4.54356e-07
5.56605e-07
1.45015e-07
4.56355e-07
1.85853e-07
-2.52817e-07
2.97849e-07
-9.62432e-07
1.19166e-06
-2.03267e-06
1.92304e-06
-3.35471e-06
2.47109e-06
-4.83605e-06
2.78374e-06
-6.40337e-06
2.96162e-06
-8.01087e-06
3.02346e-06
-9.62643e-06
3.03876e-06
-1.12351e-05
3.01382e-06
-1.28247e-05
2.98037e-06
-1.4391e-05
2.93277e-06
-1.59272e-05
2.88314e-06
-1.74298e-05
2.82267e-06
-1.88912e-05
2.7555e-06
-2.03056e-05
2.67348e-06
-2.16626e-05
2.57757e-06
-2.29531e-05
2.46109e-06
-2.41643e-05
2.32367e-06
-2.5284e-05
2.16008e-06
-2.6297e-05
1.96972e-06
-2.71893e-05
1.74908e-06
-2.7945e-05
1.49831e-06
-2.85495e-05
1.21608e-06
-2.8988e-05
9.04246e-07
-2.92481e-05
5.64163e-07
-2.93184e-05
1.9998e-07
-2.91909e-05
-1.84051e-07
-2.88602e-05
-5.81393e-07
-2.83251e-05
-9.85247e-07
-2.75879e-05
-1.38723e-06
-2.66553e-05
-1.77892e-06
-2.55382e-05
-2.15119e-06
-2.42517e-05
-2.49532e-06
-2.28143e-05
-2.80291e-06
-2.12484e-05
-3.06642e-06
-1.95786e-05
-3.27961e-06
-1.7832e-05
-3.43754e-06
-1.60367e-05
-3.53728e-06
-1.42213e-05
-3.57739e-06
-1.2414e-05
-3.55892e-06
-1.06414e-05
-3.48408e-06
-8.92867e-06
-3.35771e-06
-7.29757e-06
-3.18493e-06
-5.7675e-06
-2.97321e-06
-4.35381e-06
-2.72898e-06
-3.06937e-06
-2.46039e-06
-1.92309e-06
-2.17296e-06
-9.22532e-07
-1.87338e-06
-7.21578e-08
-1.5642e-06
6.23001e-07
-1.24917e-06
1.16005e-06
-9.27133e-07
1.53387e-06
-5.9977e-07
1.74229e-06
-2.65037e-07
1.78208e-06
7.10773e-08
1.65924e-06
4.00742e-07
1.38682e-06
6.96251e-07
1.00334e-06
9.17361e-07
5.69177e-07
9.90572e-07
1.90635e-07
8.36795e-07
3.76599e-07
-4.10486e-07
7.05796e-07
-1.42886e-06
2.21172e-06
-2.88972e-06
3.37973e-06
-4.63855e-06
4.22052e-06
-6.57179e-06
4.71307e-06
-8.60336e-06
4.99288e-06
-1.06847e-05
5.10118e-06
-1.27769e-05
5.13001e-06
-1.48621e-05
5.09568e-06
-1.6923e-05
5.04013e-06
-1.89529e-05
4.95963e-06
-2.09407e-05
4.86951e-06
-2.28803e-05
4.7595e-06
-2.47602e-05
4.63395e-06
-2.65716e-05
4.48241e-06
-2.83005e-05
4.30501e-06
-2.99344e-05
4.09283e-06
-3.14566e-05
3.8445e-06
-3.28515e-05
3.55312e-06
-3.41005e-05
3.21749e-06
-3.51863e-05
2.83334e-06
-3.609e-05
2.40114e-06
-3.67951e-05
1.92008e-06
-3.7285e-05
1.39358e-06
-3.75463e-05
8.24992e-07
-3.75679e-05
2.21407e-07
-3.73424e-05
-4.09533e-07
-3.68661e-05
-1.0572e-06
-3.61403e-05
-1.71043e-06
-3.51705e-05
-2.3561e-06
-3.39672e-05
-2.98104e-06
-3.25454e-05
-3.57144e-06
-3.09249e-05
-4.11416e-06
-2.9129e-05
-4.59679e-06
-2.7185e-05
-5.00834e-06
-2.51225e-05
-5.33983e-06
-2.29733e-05
-5.58428e-06
-2.07704e-05
-5.73774e-06
-1.85468e-05
-5.79844e-06
-1.6335e-05
-5.76829e-06
-1.41656e-05
-5.65095e-06
-1.20672e-05
-5.45383e-06
-1.00649e-05
-5.18495e-06
-8.1806e-06
-4.85553e-06
-6.432e-06
-4.47552e-06
-4.83379e-06
-4.05706e-06
-3.39632e-06
-3.60874e-06
-2.12831e-06
-3.14034e-06
-1.03519e-06
-2.656e-06
-1.22915e-07
-2.16095e-06
6.0481e-07
-1.65393e-06
1.14198e-06
-1.13703e-06
1.48581e-06
-6.08283e-07
1.63263e-06
-7.64208e-08
1.58886e-06
4.44843e-07
1.36851e-06
9.15353e-07
1.01254e-06
1.27365e-06
5.84736e-07
1.41666e-06
1.98624e-07
1.22347e-06
5.74059e-07
-5.36036e-07
1.24107e-06
-1.82012e-06
3.50067e-06
-3.62235e-06
5.18e-06
-5.74351e-06
6.346e-06
-8.06599e-06
7.03487e-06
-1.04916e-05
7.42233e-06
-1.29704e-05
7.58017e-06
-1.54585e-05
7.62151e-06
-1.79373e-05
7.57512e-06
-2.03855e-05
7.49141e-06
-2.27946e-05
7.36966e-06
-2.51498e-05
7.22738e-06
-2.74426e-05
7.05348e-06
-2.96581e-05
6.85192e-06
-3.17848e-05
6.6103e-06
-3.38052e-05
6.32756e-06
-3.57039e-05
5.99279e-06
-3.74611e-05
5.6035e-06
-3.90583e-05
5.15141e-06
-4.04741e-05
4.63486e-06
-4.16891e-05
4.04927e-06
-4.26826e-05
3.39579e-06
-4.34367e-05
2.67478e-06
-4.39342e-05
1.89182e-06
-4.41619e-05
1.05301e-06
-4.41093e-05
1.69082e-07
-4.37708e-05
-7.48202e-07
-4.31447e-05
-1.68348e-06
-4.22351e-05
-2.6206e-06
-4.10507e-05
-3.54124e-06
-3.96057e-05
-4.42709e-06
-3.7919e-05
-5.25938e-06
-3.60142e-05
-6.0204e-06
-3.3919e-05
-6.69364e-06
-3.16644e-05
-7.26468e-06
-2.92843e-05
-7.72184e-06
-2.68143e-05
-8.05623e-06
-2.42912e-05
-8.26299e-06
-2.17515e-05
-8.34024e-06
-1.92309e-05
-8.29098e-06
-1.67632e-05
-8.12067e-06
-1.43794e-05
-7.8397e-06
-1.21066e-05
-7.45945e-06
-9.96863e-06
-6.99542e-06
-7.98396e-06
-6.46163e-06
-6.16788e-06
-5.87476e-06
-4.53078e-06
-5.24689e-06
-3.08114e-06
-4.59131e-06
-1.82382e-06
-3.91393e-06
-7.64225e-07
-3.22157e-06
9.45183e-08
-2.51278e-06
7.46781e-07
-1.79003e-06
1.19003e-06
-1.05113e-06
1.42069e-06
-3.07588e-07
1.44526e-06
4.21184e-07
1.2781e-06
1.08208e-06
9.60733e-07
1.5924e-06
5.59188e-07
1.81758e-06
1.88901e-07
1.59546e-06
7.62833e-07
-6.4473e-07
1.88257e-06
-2.15826e-06
5.01738e-06
-4.25306e-06
7.26966e-06
-6.69127e-06
8.78605e-06
-9.34141e-06
9.68078e-06
-1.20953e-05
1.0177e-05
-1.49024e-05
1.03836e-05
-1.77154e-05
1.04344e-05
-2.05155e-05
1.03721e-05
-2.32786e-05
1.0254e-05
-2.59947e-05
1.0083e-05
-2.8646e-05
9.87787e-06
-3.12218e-05
9.62698e-06
-3.37043e-05
9.33344e-06
-3.60792e-05
8.98316e-06
-3.83263e-05
8.57368e-06
-4.04277e-05
8.09238e-06
-4.23608e-05
7.53562e-06
-4.41049e-05
6.89405e-06
-4.56367e-05
6.16573e-06
-4.69348e-05
5.34623e-06
-4.79775e-05
4.4378e-06
-4.87461e-05
3.44251e-06
-4.92233e-05
2.36863e-06
-4.93964e-05
1.22564e-06
-4.92558e-05
2.84497e-08
-4.87976e-05
-1.20645e-06
-4.80223e-05
-2.45847e-06
-4.69366e-05
-3.706e-06
-4.55519e-05
-4.9252e-06
-4.38859e-05
-6.09234e-06
-4.19607e-05
-7.18352e-06
-3.98036e-05
-8.17635e-06
-3.74456e-05
-9.05025e-06
-3.49215e-05
-9.78728e-06
-3.22687e-05
-1.03732e-05
-2.95262e-05
-1.0797e-05
-2.67343e-05
-1.10532e-05
-2.3933e-05
-1.11398e-05
-2.11614e-05
-1.10609e-05
-1.8456e-05
-1.08243e-05
-1.58507e-05
-1.04435e-05
-1.33744e-05
-9.93397e-06
-1.10524e-05
-9.31615e-06
-8.90371e-06
-8.60881e-06
-6.94344e-06
-7.83402e-06
-5.18104e-06
-7.008e-06
-3.62349e-06
-6.14821e-06
-2.27373e-06
-5.26264e-06
-1.13502e-06
-4.36004e-06
-2.08362e-07
-3.43861e-06
5.02544e-07
-2.50113e-06
9.96752e-07
-1.5447e-06
1.27188e-06
-5.83374e-07
1.33505e-06
3.58557e-07
1.20116e-06
1.21487e-06
9.11397e-07
1.88276e-06
5.32639e-07
2.19484e-06
1.78909e-07
1.94999e-06
9.40761e-07
-7.30999e-07
2.61214e-06
-2.43431e-06
6.72669e-06
-4.77429e-06
9.60643e-06
-7.48035e-06
1.1497e-05
-1.04072e-05
1.2606e-05
-1.34374e-05
1.32112e-05
-1.65189e-05
1.34645e-05
-1.96017e-05
1.35205e-05
-2.26672e-05
1.34376e-05
-2.56891e-05
1.32789e-05
-2.86568e-05
1.30511e-05
-3.15499e-05
1.27734e-05
-3.43563e-05
1.2434e-05
-3.70553e-05
1.20346e-05
-3.96309e-05
1.15596e-05
-4.20604e-05
1.1005e-05
-4.43238e-05
1.03566e-05
-4.63962e-05
9.60957e-06
-4.82552e-05
8.75381e-06
-4.98754e-05
7.78721e-06
-5.12343e-05
6.70585e-06
-5.23089e-05
5.51332e-06
-5.30798e-05
4.21388e-06
-5.35294e-05
2.81885e-06
-5.36451e-05
1.34161e-06
-5.34181e-05
-1.98293e-07
-5.28455e-05
-1.77912e-06
-5.19295e-05
-3.37457e-06
-5.06787e-05
-4.95715e-06
-4.91073e-05
-6.49707e-06
-4.72355e-05
-7.9649e-06
-4.50884e-05
-9.33142e-06
-4.26963e-05
-1.05694e-05
-4.00935e-05
-1.16542e-05
-3.73177e-05
-1.25642e-05
-3.44098e-05
-1.32824e-05
-3.14122e-05
-1.37959e-05
-2.8369e-05
-1.40979e-05
-2.5324e-05
-1.41862e-05
-2.23203e-05
-1.40661e-05
-1.93986e-05
-1.37473e-05
-1.65963e-05
-1.32473e-05
-1.39455e-05
-1.25859e-05
-1.14734e-05
-1.17896e-05
-9.20017e-06
-1.0883e-05
-7.14056e-06
-9.89485e-06
-5.30253e-06
-8.84667e-06
-3.69058e-06
-7.76119e-06
-2.30437e-06
-6.64915e-06
-1.14354e-06
-5.52173e-06
-2.05373e-07
-4.37672e-06
5.09822e-07
-3.21705e-06
1.00394e-06
-2.03836e-06
1.27678e-06
-8.5685e-07
1.33684e-06
2.99365e-07
1.20006e-06
1.35099e-06
9.0805e-07
2.17602e-06
5.28835e-07
2.5732e-06
1.76174e-07
2.30419e-06
1.11663e-06
-8.0584e-07
3.41426e-06
-2.66974e-06
8.59488e-06
-5.21579e-06
1.21465e-05
-8.14666e-06
1.44307e-05
-1.13051e-05
1.57598e-05
-1.45659e-05
1.64734e-05
-1.78757e-05
1.67706e-05
-2.11826e-05
1.6828e-05
-2.44684e-05
1.67203e-05
-2.77053e-05
1.65157e-05
-3.08821e-05
1.62253e-05
-3.39766e-05
1.58676e-05
-3.69757e-05
1.54308e-05
-3.98564e-05
1.49148e-05
-4.26014e-05
1.43028e-05
-4.51857e-05
1.35886e-05
-4.75877e-05
1.2757e-05
-4.97806e-05
1.18017e-05
-5.17401e-05
1.07121e-05
-5.34393e-05
9.48578e-06
-5.48542e-05
8.11968e-06
-5.59602e-05
6.61882e-06
-5.6737e-05
4.98991e-06
-5.71661e-05
3.24762e-06
-5.72345e-05
1.40962e-06
-5.69335e-05
-4.99421e-07
-5.62608e-05
-2.45196e-06
-5.52197e-05
-4.41545e-06
-5.38208e-05
-6.35588e-06
-5.20803e-05
-8.23712e-06
-5.0021e-05
-1.00238e-05
-4.76705e-05
-1.16812e-05
-4.50615e-05
-1.31776e-05
-4.22306e-05
-1.44842e-05
-3.92176e-05
-1.55761e-05
-3.60656e-05
-1.64334e-05
-3.28197e-05
-1.70406e-05
-2.95272e-05
-1.73892e-05
-2.62364e-05
-1.74758e-05
-2.29954e-05
-1.73059e-05
-1.98506e-05
-1.68908e-05
-1.68454e-05
-1.62515e-05
-1.40173e-05
-1.54128e-05
-1.13977e-05
-1.44084e-05
-9.00923e-06
-1.32703e-05
-6.86742e-06
-1.2036e-05
-4.97878e-06
-1.07343e-05
-3.34464e-06
-9.39498e-06
-1.96008e-06
-8.03282e-06
-8.19458e-07
-6.66233e-06
8.55219e-08
-5.28093e-06
7.59686e-07
-3.89154e-06
1.2094e-06
-2.48738e-06
1.43785e-06
-1.08599e-06
1.45597e-06
2.81959e-07
1.28136e-06
1.52453e-06
9.56889e-07
2.50133e-06
5.52114e-07
2.97653e-06
1.82468e-07
2.67487e-06
1.29822e-06
-8.66602e-07
4.27898e-06
-2.86387e-06
1.0599e-05
-5.58213e-06
1.48607e-05
-8.70206e-06
1.75561e-05
-1.20561e-05
1.91115e-05
-1.55124e-05
1.9934e-05
-1.90163e-05
2.02733e-05
-2.25141e-05
2.03293e-05
-2.5988e-05
2.01938e-05
-2.94094e-05
1.99399e-05
-3.27668e-05
1.95829e-05
-3.6037e-05
1.91402e-05
-3.9206e-05
1.86002e-05
-4.22495e-05
1.79603e-05
-4.51489e-05
1.72027e-05
-4.78775e-05
1.6319e-05
-5.04124e-05
1.52925e-05
-5.27248e-05
1.41155e-05
-5.4789e-05
1.27768e-05
-5.65758e-05
1.12737e-05
-5.80595e-05
9.60385e-06
-5.92134e-05
7.77364e-06
-6.00155e-05
5.79241e-06
-6.04457e-05
3.67841e-06
-6.049e-05
1.45412e-06
-6.01391e-05
-8.50029e-07
-5.93913e-05
-3.19974e-06
-5.82515e-05
-5.55525e-06
-5.67323e-05
-7.87525e-06
-5.48529e-05
-1.01168e-05
-5.26387e-05
-1.22385e-05
-5.01193e-05
-1.42011e-05
-4.73284e-05
-1.59692e-05
-4.43022e-05
-1.75111e-05
-4.10797e-05
-1.87995e-05
-3.77024e-05
-1.98116e-05
-3.42152e-05
-2.05288e-05
-3.06667e-05
-2.09388e-05
-2.71087e-05
-2.10346e-05
-2.35962e-05
-2.08195e-05
-2.01842e-05
-2.03036e-05
-1.69265e-05
-1.95103e-05
-1.3871e-05
-1.8469e-05
-1.10586e-05
-1.72218e-05
-8.51862e-06
-1.58108e-05
-6.27016e-06
-1.42854e-05
-4.31968e-06
-1.26851e-05
-2.6652e-06
-1.10503e-05
-1.29586e-06
-9.40223e-06
-1.98533e-07
-7.76045e-06
6.43206e-07
-6.12244e-06
1.24179e-06
-4.49088e-06
1.6103e-06
-2.85533e-06
1.75695e-06
-1.23341e-06
1.69662e-06
3.43192e-07
1.44949e-06
1.77078e-06
1.06115e-06
2.89094e-06
6.03865e-07
3.43268e-06
1.97653e-07
3.08265e-06
1.49538e-06
-9.20361e-07
5.19523e-06
-3.03149e-06
1.27152e-05
-5.89556e-06
1.77181e-05
-9.17547e-06
2.08395e-05
-1.26953e-05
2.26262e-05
-1.6318e-05
2.35588e-05
-1.99881e-05
2.39394e-05
-2.36508e-05
2.3993e-05
-2.72888e-05
2.38287e-05
-3.08729e-05
2.35244e-05
-3.43923e-05
2.30996e-05
-3.78227e-05
2.25704e-05
-4.11499e-05
2.19252e-05
-4.43486e-05
2.11587e-05
-4.73994e-05
2.02517e-05
-5.02742e-05
1.91933e-05
-5.29487e-05
1.79655e-05
-5.53923e-05
1.65587e-05
-5.75775e-05
1.49607e-05
-5.94725e-05
1.31683e-05
-6.10493e-05
1.11796e-05
-6.22785e-05
9.0024e-06
-6.31356e-05
6.64871e-06
-6.35983e-05
4.14083e-06
-6.36517e-05
1.50706e-06
-6.32869e-05
-1.21496e-06
-6.25045e-05
-3.98243e-06
-6.1313e-05
-6.74669e-06
-5.97302e-05
-9.458e-06
-5.77801e-05
-1.20667e-05
-5.54913e-05
-1.4527e-05
-5.2894e-05
-1.6798e-05
-5.00184e-05
-1.88443e-05
-4.68935e-05
-2.06354e-05
-4.35483e-05
-2.2144e-05
-4.00137e-05
-2.33454e-05
-3.63257e-05
-2.4216e-05
-3.25281e-05
-2.47357e-05
-2.86737e-05
-2.48881e-05
-2.48253e-05
-2.46672e-05
-2.10521e-05
-2.40759e-05
-1.74269e-05
-2.31349e-05
-1.40187e-05
-2.18762e-05
-1.08888e-05
-2.03513e-05
-8.08329e-06
-1.86154e-05
-5.63239e-06
-1.6736e-05
-3.54687e-06
-1.47698e-05
-1.8227e-06
-1.27744e-05
-4.41617e-07
-1.07825e-05
6.20301e-07
-8.82253e-06
1.39191e-06
-6.89327e-06
1.89762e-06
-4.99705e-06
2.16124e-06
-3.11814e-06
2.19911e-06
-1.27208e-06
2.03248e-06
5.10719e-07
1.68568e-06
2.11643e-06
1.20864e-06
3.3691e-06
6.77579e-07
3.96217e-06
2.19546e-07
3.54206e-06
1.71402e-06
-9.65e-07
6.15807e-06
-3.17265e-06
1.49304e-05
-6.16084e-06
2.07016e-05
-9.57768e-06
2.42623e-05
-1.32406e-05
2.62863e-05
-1.70085e-05
2.73313e-05
-2.08252e-05
2.77546e-05
-2.46353e-05
2.78067e-05
-2.84225e-05
2.76151e-05
-3.21572e-05
2.72622e-05
-3.58294e-05
2.67716e-05
-3.94145e-05
2.6158e-05
-4.28986e-05
2.54095e-05
-4.62557e-05
2.45178e-05
-4.94659e-05
2.34623e-05
-5.25e-05
2.2229e-05
-5.53324e-05
2.07984e-05
-5.79306e-05
1.91582e-05
-6.02646e-05
1.72952e-05
-6.23001e-05
1.52049e-05
-6.40057e-05
1.28857e-05
-6.53488e-05
1.03464e-05
-6.63022e-05
7.60252e-06
-6.68425e-05
4.68175e-06
-6.69558e-05
1.62059e-06
-6.66375e-05
-1.53285e-06
-6.58962e-05
-4.72364e-06
-6.47513e-05
-7.89147e-06
-6.32319e-05
-1.09774e-05
-6.13711e-05
-1.39275e-05
-5.92009e-05
-1.66975e-05
-5.6746e-05
-1.92532e-05
-5.40214e-05
-2.15693e-05
-5.10323e-05
-2.3625e-05
-4.7778e-05
-2.53989e-05
-4.42587e-05
-2.68655e-05
-4.04831e-05
-2.79921e-05
-3.64771e-05
-2.87424e-05
-3.22881e-05
-2.90778e-05
-2.7988e-05
-2.89682e-05
-2.36692e-05
-2.83952e-05
-1.94394e-05
-2.73656e-05
-1.54093e-05
-2.59068e-05
-1.16831e-05
-2.40783e-05
-8.34494e-06
-2.19538e-05
-5.4533e-06
-1.96285e-05
-3.03482e-06
-1.71883e-05
-1.08844e-06
-1.47216e-05
4.1229e-07
-1.22831e-05
1.50712e-06
-9.91815e-06
2.24484e-06
-7.63059e-06
2.67002e-06
-5.42307e-06
2.82484e-06
-3.27227e-06
2.73996e-06
-1.18814e-06
2.44783e-06
8.03892e-07
1.98006e-06
2.58306e-06
1.39357e-06
3.95703e-06
7.70411e-07
4.58384e-06
2.47174e-07
4.06711e-06
1.96046e-06
-1.00564e-06
7.15923e-06
-3.29743e-06
1.72277e-05
-6.39303e-06
2.379e-05
-9.92853e-06
2.78016e-05
-1.37163e-05
3.00686e-05
-1.76124e-05
3.12297e-05
-2.15606e-05
3.16985e-05
-2.55054e-05
3.17527e-05
-2.94315e-05
3.15378e-05
-3.331e-05
3.11412e-05
-3.71318e-05
3.05906e-05
-4.08725e-05
2.98988e-05
-4.45187e-05
2.90534e-05
-4.80442e-05
2.8043e-05
-5.1429e-05
2.68452e-05
-5.46428e-05
2.54424e-05
-5.76589e-05
2.38129e-05
-6.04425e-05
2.19413e-05
-6.29611e-05
1.98126e-05
-6.5177e-05
1.74203e-05
-6.70554e-05
1.4763e-05
-6.85608e-05
1.18513e-05
-6.96651e-05
8.70607e-06
-7.03478e-05
5.36405e-06
-7.06036e-05
1.87575e-06
-7.04433e-05
-1.69335e-06
-6.98975e-05
-5.26983e-06
-6.90106e-05
-8.77844e-06
-6.78347e-05
-1.21534e-05
-6.64163e-05
-1.53459e-05
-6.47851e-05
-1.83287e-05
-6.29437e-05
-2.10944e-05
-6.08655e-05
-2.36473e-05
-5.84978e-05
-2.59924e-05
-5.57734e-05
-2.81229e-05
-5.26257e-05
-3.00129e-05
-4.90059e-05
-3.16115e-05
-4.48993e-05
-3.28487e-05
-4.03361e-05
-3.36405e-05
-3.53978e-05
-3.39063e-05
-3.02129e-05
-3.35796e-05
-2.49488e-05
-3.26295e-05
-1.9792e-05
-3.10629e-05
-1.49293e-05
-2.89408e-05
-1.05231e-05
-2.63594e-05
-6.69565e-06
-2.34559e-05
-3.51549e-06
-2.03678e-05
-9.99038e-07
-1.72382e-05
8.85343e-07
-1.41667e-05
2.19967e-06
-1.12328e-05
3.02505e-06
-8.45513e-06
3.44106e-06
-5.8397e-06
3.52275e-06
-3.35301e-06
3.32739e-06
-9.93732e-07
2.90813e-06
1.22428e-06
2.31046e-06
3.17939e-06
1.60278e-06
4.66617e-06
8.75922e-07
5.30887e-06
2.78656e-07
4.6662e-06
2.23809e-06
-1.03989e-06
8.19686e-06
-3.40472e-06
1.96008e-05
-6.59413e-06
2.69744e-05
-1.02341e-05
3.14481e-05
-1.41333e-05
3.39647e-05
-1.81456e-05
3.52471e-05
-2.22155e-05
3.57666e-05
-2.62876e-05
3.58288e-05
-3.03483e-05
3.55977e-05
-3.43694e-05
3.51655e-05
-3.83432e-05
3.45641e-05
-4.2246e-05
3.38042e-05
-4.60655e-05
3.2873e-05
-4.97756e-05
3.17553e-05
-5.33565e-05
3.04264e-05
-5.6777e-05
2.88648e-05
-6.00093e-05
2.70457e-05
-6.30165e-05
2.49499e-05
-6.57632e-05
2.25598e-05
-6.82085e-05
1.98668e-05
-7.0315e-05
1.68701e-05
-7.20473e-05
1.35846e-05
-7.33826e-05
1.00419e-05
-7.43148e-05
6.29695e-06
-7.4865e-05
2.42634e-06
-7.50834e-05
-1.47449e-06
-7.50482e-05
-5.30475e-06
-7.4852e-05
-8.97441e-06
-7.45819e-05
-1.24234e-05
-7.42945e-05
-1.56332e-05
-7.39955e-05
-1.86279e-05
-7.36273e-05
-2.14629e-05
-7.3071e-05
-2.42039e-05
-7.21606e-05
-2.69032e-05
-7.07067e-05
-2.95773e-05
-6.85263e-05
-3.21939e-05
-6.54722e-05
-3.46661e-05
-6.14601e-05
-3.68616e-05
-5.64865e-05
-3.86146e-05
-5.06401e-05
-3.97535e-05
-4.40989e-05
-4.01214e-05
-3.71189e-05
-3.96104e-05
-3.00074e-05
-3.81748e-05
-2.30914e-05
-3.58577e-05
-1.6676e-05
-3.2775e-05
-1.10106e-05
-2.91222e-05
-6.25865e-06
-2.51197e-05
-2.48966e-06
-2.1008e-05
3.17997e-07
-1.6974e-05
2.25215e-06
-1.31679e-05
3.44325e-06
-9.64565e-06
4.03009e-06
-6.4275e-06
4.14615e-06
-3.4682e-06
3.89812e-06
-7.4684e-07
3.37807e-06
1.74558e-06
2.65829e-06
3.89775e-06
1.82754e-06
5.49862e-06
9.90928e-07
6.14357e-06
3.134e-07
5.34591e-06
2.55049e-06
-1.07189e-06
9.26389e-06
-3.50141e-06
2.20361e-05
-6.77354e-06
3.02387e-05
-1.05062e-05
3.51848e-05
-1.45055e-05
3.7958e-05
-1.86242e-05
3.93682e-05
-2.28078e-05
3.99456e-05
-2.7002e-05
4.00242e-05
-3.11948e-05
3.97868e-05
-3.53595e-05
3.93307e-05
-3.94902e-05
3.86918e-05
-4.35645e-05
3.78786e-05
-4.75714e-05
3.68774e-05
-5.14854e-05
3.5669e-05
-5.52873e-05
3.42262e-05
-5.89456e-05
3.25225e-05
-6.24312e-05
3.05296e-05
-6.57053e-05
2.82235e-05
-6.87303e-05
2.55834e-05
-7.14633e-05
2.25992e-05
-7.38683e-05
1.92739e-05
-7.59179e-05
1.56336e-05
-7.76107e-05
1.17337e-05
-7.89801e-05
7.66593e-06
-8.01094e-05
3.55482e-06
-8.11283e-05
-4.55914e-07
-8.22012e-05
-4.23248e-06
-8.34912e-05
-7.68466e-06
-8.51203e-05
-1.07947e-05
-8.71261e-05
-1.36275e-05
-8.94369e-05
-1.63173e-05
-9.18647e-05
-1.90351e-05
-9.41229e-05
-2.19457e-05
-9.58598e-05
-2.51663e-05
-9.67025e-05
-2.87345e-05
-9.63029e-05
-3.25933e-05
-9.43792e-05
-3.65895e-05
-9.07512e-05
-4.04894e-05
-8.53641e-05
-4.40014e-05
-7.83047e-05
-4.68129e-05
-6.98019e-05
-4.86238e-05
-6.02178e-05
-4.91945e-05
-5.00181e-05
-4.83742e-05
-3.97313e-05
-4.61448e-05
-2.98876e-05
-4.26182e-05
-2.09589e-05
-3.80513e-05
-1.32969e-05
-3.27811e-05
-7.09988e-06
-2.72055e-05
-2.40224e-06
-2.16709e-05
8.96924e-07
-1.64676e-05
2.99264e-06
-1.17404e-05
4.11621e-06
-7.5519e-06
4.4996e-06
-3.85046e-06
4.3375e-06
-5.8589e-07
3.79301e-06
2.29147e-06
2.98907e-06
4.70011e-06
2.05112e-06
6.43839e-06
1.10879e-06
7.08372e-06
3.49903e-07
6.10713e-06
2.89919e-06
-1.09839e-06
1.03601e-05
-3.5843e-06
2.45308e-05
-6.92955e-06
3.35788e-05
-1.07453e-05
3.90076e-05
-1.4836e-05
4.20457e-05
-1.90542e-05
4.35919e-05
-2.33466e-05
4.42363e-05
-2.76603e-05
4.43423e-05
-3.19855e-05
4.41113e-05
-3.62975e-05
4.36462e-05
-4.05924e-05
4.29866e-05
-4.48498e-05
4.21388e-05
-4.90605e-05
4.10883e-05
-5.32004e-05
3.98113e-05
-5.72511e-05
3.82774e-05
-6.11813e-05
3.64547e-05
-6.49615e-05
3.43104e-05
-6.85517e-05
3.18153e-05
-7.19139e-05
2.89462e-05
-7.50077e-05
2.56944e-05
-7.7808e-05
2.20749e-05
-8.03146e-05
1.81413e-05
-8.25791e-05
1.39988e-05
-8.47215e-05
9.80931e-06
-8.69434e-05
5.77721e-06
-8.9509e-05
2.1104e-06
-9.27029e-05
-1.03831e-06
-9.67589e-05
-3.62813e-06
-0.000101792
-5.7614e-06
-0.000107745
-7.67482e-06
-0.00011437
-9.69154e-06
-0.000121253
-1.21524e-05
-0.000127855
-1.53438e-05
-0.000133579
-1.9442e-05
-0.000137834
-2.44794e-05
-0.000140089
-3.03377e-05
-0.000139921
-3.6757e-05
-0.000137046
-4.33644e-05
-0.000131343
-4.9704e-05
-0.000122874
-5.52823e-05
-0.00011189
-5.9607e-05
-9.88382e-05
-6.22469e-05
-8.43373e-05
-6.28751e-05
-6.91455e-05
-6.13374e-05
-5.40886e-05
-5.76751e-05
-3.99726e-05
-5.21683e-05
-2.74759e-05
-4.52777e-05
-1.70636e-05
-3.76188e-05
-8.93419e-06
-2.97999e-05
-3.0319e-06
-2.2371e-05
8.9658e-07
-1.56681e-05
3.20859e-06
-9.86504e-06
4.28894e-06
-4.92973e-06
4.47888e-06
-7.77183e-07
4.06461e-06
2.70722e-06
3.26e-06
5.50299e-06
2.25567e-06
7.44474e-06
1.22403e-06
8.11301e-06
3.87493e-07
6.94627e-06
3.28542e-06
-1.12319e-06
1.14779e-05
-3.65829e-06
2.70717e-05
-7.06739e-06
3.69795e-05
-1.09568e-05
4.29009e-05
-1.51303e-05
4.62127e-05
-1.94406e-05
4.79044e-05
-2.38363e-05
4.8627e-05
-2.82665e-05
4.87735e-05
-3.27241e-05
4.85648e-05
-3.71864e-05
4.81088e-05
-4.16526e-05
4.74495e-05
-4.61046e-05
4.65906e-05
-5.05356e-05
4.55166e-05
-5.49236e-05
4.41988e-05
-5.9252e-05
4.26034e-05
-6.34902e-05
4.06923e-05
-6.76097e-05
3.8428e-05
-7.15713e-05
3.57761e-05
-7.5341e-05
3.27143e-05
-7.8891e-05
2.92436e-05
-8.22273e-05
2.54098e-05
-8.5413e-05
2.13262e-05
-8.86085e-05
1.71931e-05
-9.20913e-05
1.32914e-05
-9.62517e-05
9.93672e-06
-0.000101534
7.39172e-06
-0.000108338
5.76492e-06
-0.000116905
4.93893e-06
-0.000127232
4.56461e-06
-0.000139029
4.12229e-06
-0.00015175
3.03002e-06
-0.00016466
7.57661e-07
-0.000176925
-3.07798e-06
-0.000187706
-8.66085e-06
-0.000196225
-1.59591e-05
-0.000201818
-2.47434e-05
-0.00020396
-3.46137e-05
-0.000202282
-4.50403e-05
-0.00019659
-5.53949e-05
-0.000186875
-6.4995e-05
-0.000173344
-7.31364e-05
-0.000156436
-7.91543e-05
-0.000136836
-8.24728e-05
-0.000115475
-8.26985e-05
-9.34704e-05
-7.96784e-05
-7.20405e-05
-7.35986e-05
-5.23467e-05
-6.49708e-05
-3.5331e-05
-5.46354e-05
-2.15651e-05
-4.3565e-05
-1.11937e-05
-3.27433e-05
-3.97598e-06
-2.28848e-05
5.80569e-07
-1.44227e-05
3.07353e-06
-7.42135e-06
4.07071e-06
-1.77575e-06
4.05887e-06
2.72072e-06
3.40593e-06
6.15409e-06
2.41371e-06
8.43914e-06
1.32786e-06
9.19632e-06
4.24848e-07
7.85207e-06
3.70887e-06
-1.14179e-06
1.26178e-05
-3.71767e-06
2.9657e-05
-7.18151e-06
4.04384e-05
-1.11358e-05
4.68629e-05
-1.53844e-05
5.04584e-05
-1.97806e-05
5.23067e-05
-2.42755e-05
5.31205e-05
-2.88201e-05
5.33229e-05
-3.34102e-05
5.31544e-05
-3.80263e-05
5.27288e-05
-4.26705e-05
5.20939e-05
-4.73281e-05
5.12513e-05
-5.19954e-05
5.01844e-05
-5.66534e-05
4.88595e-05
-6.12881e-05
4.72389e-05
-6.58717e-05
4.5278e-05
-7.03781e-05
4.29352e-05
-7.47737e-05
4.01736e-05
-7.9038e-05
3.69795e-05
-8.31754e-05
3.33826e-05
-8.72599e-05
2.94951e-05
-9.14774e-05
2.55452e-05
-9.61781e-05
2.18946e-05
-0.00010188
1.89945e-05
-0.000109216
1.72731e-05
-0.000118795
1.69725e-05
-0.000131042
1.8012e-05
-0.000146042
1.99403e-05
-0.000163486
2.20094e-05
-0.000182693
2.33294e-05
-0.000202715
2.30532e-05
-0.00022248
2.05238e-05
-0.000240917
1.53604e-05
-0.000257047
7.47061e-06
-0.000270031
-2.97413e-06
-0.000279181
-1.55915e-05
-0.00028396
-2.98326e-05
-0.000283969
-4.50304e-05
-0.00027894
-6.04221e-05
-0.000268752
-7.51814e-05
-0.000253458
-8.84279e-05
-0.000233337
-9.92737e-05
-0.000208952
-0.000106856
-0.000181204
-0.000110445
-0.000151354
-0.000109527
-0.000120968
-0.000103984
-9.17783e-05
-9.41599e-05
-6.54354e-05
-8.09793e-05
-4.3217e-05
-6.57828e-05
-2.57951e-05
-5.01666e-05
-1.31609e-05
-3.55181e-05
-4.76217e-06
-2.28228e-05
2.51949e-07
-1.24342e-05
2.77404e-06
-4.29945e-06
3.60021e-06
1.89624e-06
3.34581e-06
6.40649e-06
2.49445e-06
9.29277e-06
1.41259e-06
1.02754e-05
4.61825e-07
8.8058e-06
4.16921e-06
-1.15826e-06
1.37702e-05
-3.76648e-06
3.22707e-05
-7.2745e-06
4.39374e-05
-1.12832e-05
5.08751e-05
-1.5597e-05
5.47652e-05
-2.00708e-05
5.67823e-05
-2.46578e-05
5.7702e-05
-2.93119e-05
5.79776e-05
-3.40322e-05
5.78702e-05
-3.88025e-05
5.74989e-05
-4.36289e-05
5.69165e-05
-4.85003e-05
5.61222e-05
-5.34175e-05
5.50985e-05
-5.83654e-05
5.38066e-05
-6.33342e-05
5.2205e-05
-6.83006e-05
5.02434e-05
-7.32453e-05
4.78778e-05
-7.81483e-05
4.50755e-05
-8.30193e-05
4.18486e-05
-8.79285e-05
3.82908e-05
-9.30758e-05
3.46407e-05
-9.88537e-05
3.13221e-05
-0.000105893
2.89321e-05
-0.000115011
2.81115e-05
-0.00012706
2.93213e-05
-0.000142689
3.26005e-05
-0.000162122
3.74445e-05
-0.000185044
4.28621e-05
-0.000210632
4.75968e-05
-0.000237705
5.04025e-05
-0.000264933
5.02823e-05
-0.000291022
4.6613e-05
-0.000314829
3.91674e-05
-0.000335418
2.80606e-05
-0.000352067
1.36751e-05
-0.00036423
-3.42839e-06
-0.000371493
-2.25695e-05
-0.000373522
-4.30011e-05
-0.000370031
-6.39131e-05
-0.000360768
-8.44443e-05
-0.000345546
-0.000103649
-0.000324306
-0.000120512
-0.000297226
-0.000133934
-0.000264845
-0.000142823
-0.000228197
-0.000146172
-0.000188884
-0.000143295
-0.000149036
-0.000134006
-0.000111095
-0.00011892
-7.7405e-05
-9.94712e-05
-4.97056e-05
-7.78672e-05
-2.87329e-05
-5.64896e-05
-1.41783e-05
-3.73789e-05
-4.99496e-06
-2.16161e-05
1.32233e-07
-9.42827e-06
2.45594e-06
-4.25615e-07
2.97495e-06
5.88544e-06
2.45995e-06
9.81019e-06
1.4699e-06
1.12627e-05
4.98939e-07
9.77989e-06
4.66662e-06
-1.16653e-06
1.49352e-05
-3.7964e-06
3.49107e-05
-7.33731e-06
4.74738e-05
-1.13895e-05
5.49356e-05
-1.5759e-05
5.91323e-05
-2.03019e-05
6.13319e-05
-2.49742e-05
6.23734e-05
-2.97324e-05
6.27412e-05
-3.45793e-05
6.27171e-05
-3.95024e-05
6.24265e-05
-4.45125e-05
6.19271e-05
-4.96031e-05
6.12166e-05
-5.47803e-05
6.02765e-05
-6.00343e-05
5.90637e-05
-6.53616e-05
5.75335e-05
-7.07467e-05
5.56312e-05
-7.61838e-05
5.3316e-05
-8.16794e-05
5.05735e-05
-8.73019e-05
4.74723e-05
-9.32379e-05
4.42287e-05
-9.98914e-05
4.12954e-05
-0.000107953
3.93857e-05
-0.000118397
3.93769e-05
-0.000132312
4.20286e-05
-0.000150612
4.76221e-05
-0.000173704
5.56944e-05
-0.000201302
6.50439e-05
-0.000232437
7.39979e-05
-0.000265663
8.08239e-05
-0.000299348
8.40891e-05
-0.000331935
8.28696e-05
-0.000362105
7.67837e-05
-0.000388866
6.59276e-05
-0.000411551
5.0744e-05
-0.00042977
3.18925e-05
-0.000443323
1.01207e-05
-0.000452091
-1.38041e-05
-0.000455952
-3.91444e-05
-0.0004547
-6.51688e-05
-0.000448012
-9.11378e-05
-0.000435446
-0.000116218
-0.000416507
-0.000139455
-0.000390759
-0.000159684
-0.000358011
-0.000175572
-0.000318559
-0.000185622
-0.000273429
-0.000188424
-0.000224566
-0.000182866
-0.000174827
-0.000168657
-0.000127664
-0.000146632
-8.64297e-05
-0.000119102
-5.34856e-05
-8.94322e-05
-2.95624e-05
-6.13038e-05
-1.38054e-05
-3.73718e-05
-4.47464e-06
-1.87608e-05
3.21802e-07
-5.22033e-06
2.16425e-06
4.04084e-06
2.26866e-06
9.70813e-06
1.49431e-06
1.20341e-05
5.39073e-07
1.07383e-05
5.20408e-06
-1.17169e-06
1.61004e-05
-3.81188e-06
3.75558e-05
-7.37162e-06
5.10237e-05
-1.14533e-05
5.90202e-05
-1.58647e-05
6.35359e-05
-2.04642e-05
6.59326e-05
-2.52102e-05
6.71131e-05
-3.00624e-05
6.75935e-05
-3.50274e-05
6.76769e-05
-4.00972e-05
6.74956e-05
-4.52875e-05
6.7113e-05
-5.05975e-05
6.65255e-05
-5.60396e-05
6.57149e-05
-6.16113e-05
6.4634e-05
-6.73178e-05
6.32369e-05
-7.31563e-05
6.14683e-05
-7.91438e-05
5.93008e-05
-8.53346e-05
5.67628e-05
-9.18946e-05
5.40299e-05
-9.91927e-05
5.15254e-05
-0.000107921
5.00217e-05
-0.000119132
5.05952e-05
-0.000134116
5.43594e-05
-0.000154061
6.19719e-05
-0.00017962
7.31793e-05
-0.000210593
8.66667e-05
-0.000245893
0.000100344
-0.000283785
0.000111889
-0.000322268