/*--------------------------------*- C++ -*----------------------------------*\
| =========                 |                                                 |
| \\      /  F ield         | OpenFOAM: The Open Source CFD Toolbox           |
|  \\    /   O peration     | Version:  2406                                  |
|   \\  /    A nd           | Website:  www.openfoam.com                      |
|    \\/     M anipulation  |                                                 |
\*---------------------------------------------------------------------------*/
FoamFile
{
    version     2.0;
    format      ascii;
    arch        "LSB;label=32;scalar=64";
    class       volVectorField;
    location    "9.35";
    object      U;
}
// * * * * * * * * * * * * * * * * * * * * * * * * * * * * * * * * * * * * * //

dimensions      [0 1 -1 0 0 0 0];

internalField   nonuniform List<vector> 
3600
(
(2.58258e-05 -2.4256e-05 0)
(1.16177e-05 2.87076e-06 0)
(-7.87161e-05 2.87424e-05 0)
(-0.000237654 4.90038e-05 0)
(-0.000439245 5.6299e-05 0)
(-0.000657055 5.98327e-05 0)
(-0.000886162 5.86249e-05 0)
(-0.00111053 5.77491e-05 0)
(-0.00133696 5.57082e-05 0)
(-0.00155523 5.48277e-05 0)
(-0.00177436 5.35928e-05 0)
(-0.00198635 5.32135e-05 0)
(-0.00219889 5.25073e-05 0)
(-0.00240502 5.22223e-05 0)
(-0.00261036 5.15009e-05 0)
(-0.00280868 5.08431e-05 0)
(-0.00300359 4.96198e-05 0)
(-0.00318939 4.81638e-05 0)
(-0.00336796 4.59988e-05 0)
(-0.00353392 4.33434e-05 0)
(-0.00368769 3.98366e-05 0)
(-0.00382413 3.56325e-05 0)
(-0.00394261 3.04767e-05 0)
(-0.0040383 2.45066e-05 0)
(-0.00410998 1.75804e-05 0)
(-0.0041534 9.86085e-06 0)
(-0.00416736 1.32705e-06 0)
(-0.00414861 -7.8059e-06 0)
(-0.00409664 -1.74385e-05 0)
(-0.0040096 -2.72979e-05 0)
(-0.00388827 -3.71837e-05 0)
(-0.00373259 -4.67858e-05 0)
(-0.00354498 -5.58435e-05 0)
(-0.00332728 -6.40546e-05 0)
(-0.00308365 -7.11547e-05 0)
(-0.0028176 -7.69096e-05 0)
(-0.00253474 -8.1112e-05 0)
(-0.00223969 -8.3654e-05 0)
(-0.0019389 -8.44333e-05 0)
(-0.00163726 -8.3506e-05 0)
(-0.00134131 -8.08896e-05 0)
(-0.00105525 -7.68057e-05 0)
(-0.000784958 -7.13634e-05 0)
(-0.000533179 -6.49109e-05 0)
(-0.000304657 -5.75803e-05 0)
(-0.000100221 -4.97783e-05 0)
(7.64992e-05 -4.15688e-05 0)
(0.000226608 -3.33444e-05 0)
(0.000347058 -2.50108e-05 0)
(0.000440502 -1.68974e-05 0)
(0.000503547 -8.68593e-06 0)
(0.000539871 -6.51345e-07 0)
(0.000544796 7.75001e-06 0)
(0.000522992 1.61109e-05 0)
(0.000468639 2.49335e-05 0)
(0.000389603 3.27761e-05 0)
(0.000283376 3.88298e-05 0)
(0.000169561 3.79268e-05 0)
(6.23322e-05 2.70347e-05 0)
(1.31425e-06 2.05701e-06 0)
(-1.14493e-06 -1.22083e-05 0)
(-0.000149733 0.000144418 0)
(-0.000466894 0.000282367 0)
(-0.000915543 0.000391563 0)
(-0.00146112 0.000446455 0)
(-0.00205096 0.000477318 0)
(-0.00267311 0.000483631 0)
(-0.00329505 0.00048442 0)
(-0.00392283 0.00047766 0)
(-0.00453734 0.000472037 0)
(-0.00514978 0.000464091 0)
(-0.00574664 0.000457639 0)
(-0.00633782 0.000449439 0)
(-0.00691188 0.000441319 0)
(-0.00747554 0.000430724 0)
(-0.0080182 0.00041859 0)
(-0.00854323 0.000402954 0)
(-0.00904036 0.000384273 0)
(-0.00951001 0.00036103 0)
(-0.00994202 0.000333437 0)
(-0.0103344 0.000300379 0)
(-0.0106773 0.000262047 0)
(-0.0109671 0.000217778 0)
(-0.0111944 0.000167957 0)
(-0.0113555 0.000112467 0)
(-0.0114422 5.20562e-05 0)
(-0.0114516 -1.27802e-05 0)
(-0.0113781 -8.08473e-05 0)
(-0.0112208 -0.000151065 0)
(-0.0109774 -0.000221839 0)
(-0.0106502 -0.000291647 0)
(-0.0102409 -0.000358676 0)
(-0.00975548 -0.000421221 0)
(-0.00919956 -0.000477538 0)
(-0.00858269 -0.00052606 0)
(-0.00791391 -0.000565444 0)
(-0.00720555 -0.000594581 0)
(-0.00646875 -0.000612817 0)
(-0.00571735 -0.000619735 0)
(-0.00496294 -0.000615536 0)
(-0.00421926 -0.000600554 0)
(-0.00349659 -0.000575824 0)
(-0.00280711 -0.000542278 0)
(-0.0021583 -0.000501549 0)
(-0.00155987 -0.000454809 0)
(-0.00101565 -0.000403891 0)
(-0.000532872 -0.000349742 0)
(-0.000111805 -0.00029396 0)
(0.00024186 -0.000236822 0)
(0.000530548 -0.000179403 0)
(0.000748412 -0.0001211 0)
(0.000899545 -6.26028e-05 0)
(0.000976526 -2.80648e-06 0)
(0.000985546 5.67586e-05 0)
(0.000918871 0.000115783 0)
(0.000790231 0.000167889 0)
(0.000600111 0.000206244 0)
(0.000384747 0.000211814 0)
(0.000169383 0.000169841 0)
(2.52445e-05 6.13766e-05 0)
(-3.45546e-05 8.98891e-05 0)
(-0.00032895 0.000477315 0)
(-0.00087905 0.000804408 0)
(-0.0015981 0.00105479 0)
(-0.0024518 0.00119436 0)
(-0.00336483 0.00127351 0)
(-0.00432551 0.00129863 0)
(-0.00528903 0.00130426 0)
(-0.00626174 0.00129187 0)
(-0.00721766 0.00127718 0)
(-0.00816844 0.00125659 0)
(-0.0090963 0.00123623 0)
(-0.0100112 0.00121143 0)
(-0.0108984 0.00118446 0)
(-0.011764 0.00115122 0)
(-0.0125941 0.00111242 0)
(-0.0133909 0.00106474 0)
(-0.0141409 0.00100822 0)
(-0.0148425 0.000940249 0)
(-0.0154823 0.000860657 0)
(-0.016056 0.000767634 0)
(-0.0165507 0.000661256 0)
(-0.0169606 0.000540703 0)
(-0.0172739 0.000406747 0)
(-0.017485 0.00025979 0)
(-0.0175843 0.000101614 0)
(-0.0175681 -6.60417e-05 0)
(-0.0174305 -0.000240295 0)
(-0.0171712 -0.000418191 0)
(-0.0167888 -0.00059596 0)
(-0.0162875 -0.00076982 0)
(-0.0156713 -0.000935601 0)
(-0.0149492 -0.0010893 0)
(-0.0141302 -0.00122702 0)
(-0.0132277 -0.00134525 0)
(-0.0122548 -0.00144103 0)
(-0.0112281 -0.00151203 0)
(-0.0101631 -0.00155683 0)
(-0.00907801 -0.00157469 0)
(-0.00798876 -0.00156607 0)
(-0.00691322 -0.00153191 0)
(-0.00586542 -0.00147446 0)
(-0.00486119 -0.00139602 0)
(-0.00391099 -0.00130006 0)
(-0.00302742 -0.00118951 0)
(-0.00221647 -0.00106817 0)
(-0.00148746 -0.000938539 0)
(-0.000842051 -0.000803774 0)
(-0.000287515 -0.000664975 0)
(0.000177672 -0.000523973 0)
(0.000546185 -0.000380107 0)
(0.000821428 -0.000234245 0)
(0.00099441 -8.5171e-05 0)
(0.0010712 6.42939e-05 0)
(0.00104307 0.000211044 0)
(0.000926031 0.000341984 0)
(0.000721943 0.000438969 0)
(0.000475198 0.000466343 0)
(0.000216141 0.000388527 0)
(3.6003e-05 0.000168718 0)
(-6.70593e-05 0.000290426 0)
(-0.000505014 0.000998283 0)
(-0.00127505 0.00156109 0)
(-0.00223652 0.00197418 0)
(-0.0033578 0.00221356 0)
(-0.00454373 0.00234984 0)
(-0.00578802 0.00240027 0)
(-0.00703564 0.00241343 0)
(-0.00829562 0.00239579 0)
(-0.00953539 0.00236958 0)
(-0.0107676 0.00233184 0)
(-0.0119697 0.00229089 0)
(-0.0131518 0.00224093 0)
(-0.0142956 0.00218457 0)
(-0.0154063 0.0021162 0)
(-0.0164672 0.00203619 0)
(-0.0174791 0.00193985 0)
(-0.0184255 0.00182668 0)
(-0.0193033 0.00169302 0)
(-0.0200966 0.00153835 0)
(-0.0207995 0.00136028 0)
(-0.0213967 0.00115899 0)
(-0.0218815 0.000933778 0)
(-0.0222404 0.000686186 0)
(-0.0224673 0.000417562 0)
(-0.0225524 0.000131217 0)
(-0.0224921 -0.000169354 0)
(-0.0222812 -0.000479065 0)
(-0.0219208 -0.000792591 0)
(-0.0214111 -0.00110354 0)
(-0.0207585 -0.00140548 0)
(-0.0199694 -0.00169157 0)
(-0.0190554 -0.00195529 0)
(-0.0180283 -0.00219041 0)
(-0.0169044 -0.0023914 0)
(-0.0156998 -0.00255369 0)
(-0.0144342 -0.0026737 0)
(-0.0131257 -0.00274937 0)
(-0.0117956 -0.00277972 0)
(-0.0104623 -0.0027656 0)
(-0.00914606 -0.00270876 0)
(-0.00786325 -0.00261283 0)
(-0.00663176 -0.0024817 0)
(-0.00546371 -0.00232095 0)
(-0.0043733 -0.00213543 0)
(-0.00336759 -0.0019312 0)
(-0.00245704 -0.00171243 0)
(-0.00164391 -0.00148405 0)
(-0.000936298 -0.00124805 0)
(-0.000333028 -0.00100711 0)
(0.000157821 -0.0007605 0)
(0.000539415 -0.000509379 0)
(0.000801971 -0.000252524 0)
(0.000951623 5.65203e-06 0)
(0.000979119 0.000258753 0)
(0.000901499 0.0004865 0)
(0.000720841 0.000658534 0)
(0.000484228 0.000722085 0)
(0.000223774 0.000617268 0)
(3.7705e-05 0.00028461 0)
(-9.09656e-05 0.000575697 0)
(-0.000649726 0.00169604 0)
(-0.00161124 0.00254596 0)
(-0.0027846 0.00314668 0)
(-0.0041383 0.00350086 0)
(-0.00555716 0.00370125 0)
(-0.00704097 0.00378129 0)
(-0.00852536 0.0038026 0)
(-0.0100235 0.00377866 0)
(-0.0114969 0.00373731 0)
(-0.0129599 0.00367721 0)
(-0.0143856 0.00360827 0)
(-0.0157846 0.00352409 0)
(-0.0171349 0.00342716 0)
(-0.0184414 0.00331062 0)
(-0.0196844 0.00317419 0)
(-0.0208635 0.00301191 0)
(-0.02196 0.0028226 0)
(-0.0229693 0.00260169 0)
(-0.0238734 0.00234828 0)
(-0.0246654 0.0020597 0)
(-0.0253284 0.00173639 0)
(-0.0258549 0.00137817 0)
(-0.0262307 0.000987681 0)
(-0.0264499 0.000567732 0)
(-0.0265024 0.000123612 0)
(-0.0263859 -0.000338894 0)
(-0.026096 -0.000812023 0)
(-0.0256352 -0.0012876 0)
(-0.0250058 -0.00175621 0)
(-0.0242161 -0.00220841 0)
(-0.0232746 -0.00263443 0)
(-0.0221955 -0.003025 0)
(-0.020993 -0.00337143 0)
(-0.0196859 -0.00366609 0)
(-0.0182926 -0.00390275 0)
(-0.0168351 -0.00407664 0)
(-0.0153341 -0.00418509 0)
(-0.0138128 -0.00422701 0)
(-0.0122917 -0.00420384 0)
(-0.0107932 -0.0041183 0)
(-0.00933509 -0.0039757 0)
(-0.00793675 -0.00378184 0)
(-0.00661134 -0.0035447 0)
(-0.00537395 -0.00327144 0)
(-0.00423201 -0.00297068 0)
(-0.00319626 -0.00264858 0)
(-0.00226874 -0.00231205 0)
(-0.00145747 -0.00196409 0)
(-0.000760742 -0.0016083 0)
(-0.000186486 -0.00124389 0)
(0.00026898 -0.000872214 0)
(0.000595811 -0.00049209 0)
(0.00080051 -0.000109587 0)
(0.000873583 0.000265258 0)
(0.000832445 0.000604459 0)
(0.000679237 0.000864619 0)
(0.000461817 0.000974541 0)
(0.000214001 0.000849074 0)
(3.49253e-05 0.000403216 0)
(-0.000111378 0.000929579 0)
(-0.00077519 0.00253902 0)
(-0.00190107 0.00371361 0)
(-0.00325568 0.00451595 0)
(-0.00480623 0.00498994 0)
(-0.00641997 0.00525472 0)
(-0.00810261 0.00536403 0)
(-0.00978163 0.00539189 0)
(-0.0114749 0.00535959 0)
(-0.0131383 0.00529956 0)
(-0.0147888 0.00521237 0)
(-0.0163952 0.00510896 0)
(-0.0179686 0.00498251 0)
(-0.0194837 0.00483518 0)
(-0.0209453 0.004659 0)
(-0.0223307 0.00445294 0)
(-0.023639 0.00420992 0)
(-0.024849 0.00392811 0)
(-0.0259556 0.00360221 0)
(-0.0269385 0.00323112 0)
(-0.0277904 0.0028121 0)
(-0.0284931 0.00234617 0)
(-0.0290388 0.001834 0)
(-0.0294129 0.00127971 0)
(-0.0296095 0.000687938 0)
(-0.0296192 6.63323e-05 0)
(-0.0294402 -0.000576677 0)
(-0.0290694 -0.00123035 0)
(-0.0285109 -0.00188339 0)
(-0.0277683 -0.00252318 0)
(-0.0268519 -0.00313716 0)
(-0.0257723 -0.00371254 0)
(-0.0245458 -0.00423732 0)
(-0.0231885 -0.00470038 0)
(-0.0217214 -0.00509204 0)
(-0.0201651 -0.00540451 0)
(-0.0185439 -0.0056319 0)
(-0.0168802 -0.00577104 0)
(-0.0151996 -0.00582079 0)
(-0.0135244 -0.00578332 0)
(-0.0118791 -0.0056625 0)
(-0.010283 -0.00546554 0)
(-0.00875706 -0.00520037 0)
(-0.00731529 -0.00487775 0)
(-0.00597351 -0.00450742 0)
(-0.0047391 -0.00410093 0)
(-0.00362265 -0.0036667 0)
(-0.00262526 -0.00321388 0)
(-0.0017541 -0.0027466 0)
(-0.001006 -0.00226952 0)
(-0.000387861 -0.00178166 0)
(0.000105502 -0.00128459 0)
(0.000465044 -0.000776836 0)
(0.000698356 -0.000266068 0)
(0.000796286 0.000234554 0)
(0.000776682 0.000689266 0)
(0.000641838 0.00104237 0)
(0.00043926 0.0012034 0)
(0.000203789 0.0010632 0)
(3.22691e-05 0.000510746 0)
(-0.00012678 0.00134277 0)
(-0.000876565 0.00351077 0)
(-0.0021393 0.00504706 0)
(-0.00364663 0.00606793 0)
(-0.00536362 0.00666887 0)
(-0.00714164 0.00699957 0)
(-0.00899115 0.00713794 0)
(-0.0108322 0.00717042 0)
(-0.0126871 0.00712726 0)
(-0.0145071 0.00704467 0)
(-0.0163116 0.00692559 0)
(-0.0180655 0.00678135 0)
(-0.0197812 0.00660502 0)
(-0.0214302 0.00639803 0)
(-0.0230175 0.0061515 0)
(-0.0245177 0.00586344 0)
(-0.0259298 0.00552583 0)
(-0.0272302 0.00513612 0)
(-0.0284132 0.00468845 0)
(-0.0294572 0.00418159 0)
(-0.0303541 0.00361302 0)
(-0.0310845 0.00298446 0)
(-0.0316406 0.0022978 0)
(-0.032007 0.00155888 0)
(-0.0321782 0.000774542 0)
(-0.0321446 -4.49132e-05 0)
(-0.0319054 -0.000888044 0)
(-0.0314578 -0.00174082 0)
(-0.0308074 -0.00258853 0)
(-0.0299591 -0.00341509 0)
(-0.0289248 -0.0042046 0)
(-0.0277166 -0.00494111 0)
(-0.0263528 -0.00560975 0)
(-0.0248512 -0.00619691 0)
(-0.023235 -0.00669078 0)
(-0.0215264 -0.00708195 0)
(-0.0197519 -0.0073633 0)
(-0.0179359 -0.00753111 0)
(-0.0161066 -0.00758419 0)
(-0.0142883 -0.00752542 0)
(-0.0125083 -0.00735994 0)
(-0.0107879 -0.00709715 0)
(-0.00915029 -0.0067475 0)
(-0.00761097 -0.00632503 0)
(-0.00618685 -0.00584268 0)
(-0.00488528 -0.00531557 0)
(-0.00371655 -0.00475493 0)
(-0.00268031 -0.00417271 0)
(-0.00178224 -0.0035745 0)
(-0.00101679 -0.00296623 0)
(-0.000388906 -0.00234669 0)
(0.00010904 -0.00171762 0)
(0.000469571 -0.00107692 0)
(0.000702116 -0.000433703 0)
(0.000798275 0.000196188 0)
(0.000776857 0.000769066 0)
(0.000640443 0.00121739 0)
(0.000436887 0.0014306 0)
(0.000201828 0.00127678 0)
(3.11708e-05 0.000617865 0)
(-0.00014039 0.00180278 0)
(-0.000963741 0.00458525 0)
(-0.0023415 0.00651138 0)
(-0.00397727 0.00776218 0)
(-0.00583367 0.00849292 0)
(-0.00774899 0.00888839 0)
(-0.00973761 0.00905355 0)
(-0.0117134 0.0090878 0)
(-0.0137026 0.00903084 0)
(-0.0156524 0.00892216 0)
(-0.0175848 0.00876711 0)
(-0.0194615 0.00857695 0)
(-0.021296 0.00834468 0)
(-0.0230571 0.00807076 0)
(-0.0247501 0.0077455 0)
(-0.0263475 0.00736584 0)
(-0.0278479 0.00692295 0)
(-0.029226 0.00641353 0)
(-0.0304756 0.00583133 0)
(-0.0315735 0.00517505 0)
(-0.032511 0.00444254 0)
(-0.0332677 0.0036364 0)
(-0.0338352 0.0027599 0)
(-0.0341972 0.00182083 0)
(-0.0343481 0.000828469 0)
(-0.034278 -0.000203956 0)
(-0.0339865 -0.00126171 0)
(-0.0334713 -0.00232718 0)
(-0.0327388 -0.00338199 0)
(-0.031795 -0.00440639 0)
(-0.0306536 -0.00538097 0)
(-0.029328 -0.0062866 0)
(-0.0278379 -0.00710555 0)
(-0.0262027 -0.00782176 0)
(-0.0244468 -0.00842132 0)
(-0.0225936 -0.00889314 0)
(-0.0206711 -0.00922876 0)
(-0.0187056 -0.00942362 0)
(-0.0167274 -0.00947617 0)
(-0.0147637 -0.00938978 0)
(-0.0128451 -0.00917073 0)
(-0.0109965 -0.00883066 0)
(-0.0092445 -0.00838287 0)
(-0.00760737 -0.00784532 0)
(-0.00610437 -0.00723488 0)
(-0.00474354 -0.00657122 0)
(-0.00353523 -0.00586922 0)
(-0.00247737 -0.00514451 0)
(-0.00157361 -0.00440459 0)
(-0.000815042 -0.00365711 0)
(-0.000203701 -0.00290061 0)
(0.00027172 -0.00213686 0)
(0.000606203 -0.00136258 0)
(0.00081202 -0.000587962 0)
(0.00088201 0.000169275 0)
(0.000836694 0.000857737 0)
(0.000678981 0.00139868 0)
(0.000457992 0.00166103 0)
(0.00020993 0.00149077 0)
(3.20313e-05 0.00072298 0)
(-0.000151099 0.00230372 0)
(-0.00103525 0.00574901 0)
(-0.00250882 0.00809057 0)
(-0.00425228 0.00958343 0)
(-0.00622619 0.0104485 0)
(-0.00825772 0.0109095 0)
(-0.0103644 0.0111006 0)
(-0.0124547 0.0111349 0)
(-0.0145585 0.0110622 0)
(-0.0166195 0.0109249 0)
(-0.018662 0.0107309 0)
(-0.0206452 0.010491 0)
(-0.0225839 0.0101983 0)
(-0.0244445 0.00985189 0)
(-0.0262331 0.00944146 0)
(-0.02792 0.00896263 0)
(-0.0295039 0.00840584 0)
(-0.0309577 0.00776691 0)
(-0.0322749 0.00703925 0)
(-0.0334304 0.00622144 0)
(-0.0344151 0.00531177 0)
(-0.0352069 0.00431373 0)
(-0.0357965 0.0032321 0)
(-0.0361665 0.00207677 0)
(-0.0363106 0.00085973 0)
(-0.0362183 -0.000402542 0)
(-0.0358892 -0.00169157 0)
(-0.0353217 -0.00298575 0)
(-0.0345233 -0.00426255 0)
(-0.0335016 -0.00549828 0)
(-0.0322718 -0.0066699 0)
(-0.0308489 -0.00775518 0)
(-0.0292536 -0.00873377 0)
(-0.0275053 -0.00958748 0)
(-0.025628 -0.0103005 0)
(-0.0236445 -0.01086 0)
(-0.021582 -0.0112558 0)
(-0.0194671 -0.0114818 0)
(-0.0173316 -0.0115352 0)
(-0.0152057 -0.0114189 0)
(-0.0131248 -0.0111395 0)
(-0.0111193 -0.0107105 0)
(-0.0092227 -0.0101483 0)
(-0.00745881 -0.0094754 0)
(-0.00585217 -0.00871391 0)
(-0.00441367 -0.0078896 0)
(-0.00315505 -0.00702259 0)
(-0.00207281 -0.00613368 0)
(-0.00116815 -0.00523342 0)
(-0.000427634 -0.00433189 0)
(0.000151001 -0.00342753 0)
(0.000584371 -0.00252204 0)
(0.000871202 -0.00161035 0)
(0.00102799 -0.000703158 0)
(0.00104945 0.000180711 0)
(0.000958929 0.000982469 0)
(0.000759799 0.00161244 0)
(0.000504016 0.00191861 0)
(0.000228374 0.00172454 0)
(3.46116e-05 0.000837166 0)
(-0.000160921 0.00283887 0)
(-0.00109763 0.00698678 0)
(-0.0026524 0.00976394 0)
(-0.00448709 0.0115078 0)
(-0.00656042 0.0125099 0)
(-0.0086907 0.0130362 0)
(-0.0108982 0.0132521 0)
(-0.013087 0.0132849 0)
(-0.0152901 0.0131949 0)
(-0.0174486 0.0130274 0)
(-0.0195891 0.0127928 0)
(-0.0216685 0.0125012 0)
(-0.0237031 0.0121456 0)
(-0.0256576 0.0117237 0)
(-0.0275384 0.0112245 0)
(-0.0293145 0.010642 0)
(-0.0309844 0.0099661 0)
(-0.0325194 0.00919144 0)
(-0.0339126 0.00831109 0)
(-0.0351369 0.00732333 0)
(-0.0361824 0.00622688 0)
(-0.0370248 0.00502601 0)
(-0.0376537 0.00372714 0)
(-0.03805 0.00234238 0)
(-0.0382067 0.000886857 0)
(-0.0381128 -0.000619126 0)
(-0.037769 -0.00215262 0)
(-0.0371752 -0.00368727 0)
(-0.0363418 -0.00519585 0)
(-0.0352794 -0.00665057 0)
(-0.0340059 -0.00802516 0)
(-0.0325373 -0.00929522 0)
(-0.0308937 -0.0104391 0)
(-0.029091 -0.0114378 0)
(-0.0271482 -0.0122747 0)
(-0.0250814 -0.0129354 0)
(-0.0229122 -0.0134073 0)
(-0.0206624 -0.0136812 0)
(-0.018363 -0.0137508 0)
(-0.0160465 -0.0136157 0)
(-0.0137552 -0.0132806 0)
(-0.0115294 -0.0127591 0)
(-0.0094152 -0.01207 0)
(-0.0074487 -0.0112412 0)
(-0.00566619 -0.0103017 0)
(-0.0040866 -0.00928594 0)
(-0.00272679 -0.00822212 0)
(-0.0015834 -0.0071391 0)
(-0.000655186 -0.00605253 0)
(7.74502e-05 -0.00497648 0)
(0.000623303 -0.00390968 0)
(0.00100708 -0.00285365 0)
(0.00123365 -0.00180068 0)
(0.00132605 -0.000760893 0)
(0.0012823 0.000246889 0)
(0.0011301 0.00115727 0)
(0.000873705 0.0018699 0)
(0.000569378 0.00221155 0)
(0.000254724 0.00198236 0)
(3.84499e-05 0.000960506 0)
(-0.000168852 0.00340236 0)
(-0.00114991 0.00828629 0)
(-0.0027737 0.0115167 0)
(-0.00468619 0.0135204 0)
(-0.00684496 0.0146633 0)
(-0.00906089 0.0152564 0)
(-0.0113568 0.0154975 0)
(-0.0136331 0.0155291 0)
(-0.0159258 0.0154222 0)
(-0.0181736 0.0152249 0)
(-0.0204055 0.01495 0)
(-0.0225768 0.0146069 0)
(-0.0247053 0.0141885 0)
(-0.0267541 0.0136908 0)
(-0.0287306 0.0131018 0)
(-0.0306021 0.0124142 0)
(-0.0323675 0.0116165 0)
(-0.0339962 0.0107025 0)
(-0.0354807 0.00966439 0)
(-0.0367921 0.00850001 0)
(-0.0379186 0.00720831 0)
(-0.038834 0.00579429 0)
(-0.0395262 0.00426615 0)
(-0.0399747 0.00263876 0)
(-0.0401725 0.000931312 0)
(-0.04011 -0.000830772 0)
(-0.0397918 -0.00261853 0)
(-0.0392233 -0.00439955 0)
(-0.0384221 -0.00614128 0)
(-0.0374049 -0.00781236 0)
(-0.0361939 -0.00938519 0)
(-0.0348043 -0.0108363 0)
(-0.0332502 -0.0121466 0)
(-0.0315357 -0.0132997 0)
(-0.0296633 -0.0142804 0)
(-0.0276307 -0.0150736 0)
(-0.0254416 -0.0156627 0)
(-0.023104 -0.0160317 0)
(-0.0206416 -0.0161653 0)
(-0.0180879 -0.0160542 0)
(-0.0154952 -0.015695 0)
(-0.0129213 -0.0150972 0)
(-0.0104358 -0.0142793 0)
(-0.00810058 -0.0132748 0)
(-0.00597689 -0.0121218 0)
(-0.00410344 -0.0108684 0)
(-0.00251097 -0.00955606 0)
(-0.00120117 -0.00822735 0)
(-0.00017155 -0.00690752 0)
(0.000605569 -0.00561787 0)
(0.00114935 -0.00435886 0)
(0.00149751 -0.00313192 0)
(0.00166578 -0.00192555 0)
(0.00168809 -0.000747715 0)
(0.00156881 0.000384482 0)
(0.00134267 0.00140036 0)
(0.0010161 0.00218932 0)
(0.000651548 0.00255675 0)
(0.000287936 0.00227787 0)
(4.32995e-05 0.00110044 0)
(-0.000176437 0.00399316 0)
(-0.00119667 0.00964267 0)
(-0.00288021 0.0133412 0)
(-0.0048601 0.015612 0)
(-0.00709305 0.0168988 0)
(-0.00938419 0.0175603 0)
(-0.0117587 0.0178275 0)
(-0.0141141 0.017859 0)
(-0.0164894 0.0177366 0)
(-0.0188215 0.0175111 0)
(-0.0211418 0.0171982 0)
(-0.0234043 0.0168059 0)
(-0.0256283 0.016327 0)
(-0.0277761 0.0157557 0)
(-0.0298557 0.015079 0)
(-0.0318334 0.0142876 0)
(-0.0337081 0.013369 0)
(-0.0354476 0.0123152 0)
(-0.0370435 0.0111175 0)
(-0.0384645 0.00977297 0)
(-0.0396973 0.00828049 0)
(-0.0407133 0.0066459 0)
(-0.0414996 0.0048799 0)
(-0.0420356 0.00300143 0)
(-0.042318 0.00103604 0)
(-0.0423442 -0.000982881 0)
(-0.0421302 -0.00301746 0)
(-0.0416957 -0.00502732 0)
(-0.0410735 -0.00697481 0)
(-0.0402915 -0.00882805 0)
(-0.0393757 -0.010564 0)
(-0.0383343 -0.0121683 0)
(-0.0371621 -0.0136326 0)
(-0.0358328 -0.0149506 0)
(-0.0343111 -0.0161132 0)
(-0.0325538 -0.0171048 0)
(-0.0305269 -0.0179013 0)
(-0.0282081 -0.0184726 0)
(-0.0256036 -0.0187839 0)
(-0.0227444 -0.0188047 0)
(-0.0196967 -0.0185121 0)
(-0.0165472 -0.017901 0)
(-0.0134074 -0.0169835 0)
(-0.0103867 -0.0157965 0)
(-0.00759623 -0.0143903 0)
(-0.00511735 -0.0128336 0)
(-0.00301356 -0.0111913 0)
(-0.00130371 -0.00953028 0)
(1.06298e-05 -0.00789493 0)
(0.000966618 -0.00632089 0)
(0.00159965 -0.00481396 0)
(0.00196891 -0.00337646 0)
(0.00210992 -0.00199157 0)
(0.00207571 -0.000662371 0)
(0.00188348 0.000598723 0)
(0.0015799 0.00171844 0)
(0.00117662 0.00257711 0)
(0.000744752 0.00295926 0)
(0.000325726 0.00261372 0)
(4.88309e-05 0.00125678 0)
(-0.000182613 0.00460333 0)
(-0.00123656 0.0110419 0)
(-0.00297222 0.0152211 0)
(-0.00501111 0.0177659 0)
(-0.00730981 0.0192005 0)
(-0.00966858 0.0199331 0)
(-0.012115 0.0202292 0)
(-0.0145445 0.0202637 0)
(-0.0169988 0.0201293 0)
(-0.0194135 0.01988 0)
(-0.0218225 0.0195337 0)
(-0.0241788 0.0190973 0)
(-0.0265037 0.0185634 0)
(-0.0287586 0.017924 0)
(-0.0309526 0.0171649 0)
(-0.0330511 0.0162747 0)
(-0.035053 0.0152392 0)
(-0.0369245 0.0140483 0)
(-0.0386561 0.0126921 0)
(-0.0402145 0.0111662 0)
(-0.0415849 0.00946981 0)
(-0.0427372 0.00761038 0)
(-0.0436603 0.00560308 0)
(-0.0443389 0.00347454 0)
(-0.0447821 0.00126168 0)
(-0.0450067 -0.000988437 0)
(-0.0450556 -0.00322437 0)
(-0.044978 -0.00539643 0)
(-0.0448327 -0.00746552 0)
(-0.0446621 -0.00940875 0)
(-0.0444885 -0.0112219 0)
(-0.0442946 -0.0129158 0)
(-0.044029 -0.0145086 0)
(-0.0436026 -0.0160155 0)
(-0.0429087 -0.0174389 0)
(-0.041831 -0.0187619 0)
(-0.0402706 -0.019945 0)
(-0.0381539 -0.0209301 0)
(-0.0354558 -0.0216457 0)
(-0.0321988 -0.0220196 0)
(-0.0284666 -0.0219888 0)
(-0.0243872 -0.0215153 0)
(-0.0201361 -0.0205905 0)
(-0.0159017 -0.0192477 0)
(-0.011882 -0.0175509 0)
(-0.00824013 -0.0155987 0)
(-0.00510788 -0.0134956 0)
(-0.00254828 -0.0113526 0)
(-0.00058227 -0.00925164 0)
(0.000833624 -0.00725806 0)
(0.00175769 -0.00539202 0)
(0.00228346 -0.00366038 0)
(0.00248158 -0.0020396 0)
(0.00243889 -0.000523773 0)
(0.00219776 0.000884599 0)
(0.00182622 0.00211456 0)
(0.00134744 0.00304045 0)
(0.000845648 0.00342764 0)
(0.000367166 0.00299772 0)
(5.4979e-05 0.00143411 0)
(-0.000188766 0.0052374 0)
(-0.001273 0.0124885 0)
(-0.00305455 0.0171603 0)
(-0.00514566 0.0199855 0)
(-0.00750294 0.0215719 0)
(-0.00992306 0.0223791 0)
(-0.012436 0.0227075 0)
(-0.0149357 0.022749 0)
(-0.0174664 0.0226075 0)
(-0.0199634 0.0223399 0)
(-0.0224627 0.0219666 0)
(-0.0249172 0.0214933 0)
(-0.0273499 0.0209121 0)
(-0.0297219 0.0202128 0)
(-0.0320436 0.0193797 0)
(-0.0342796 0.0183985 0)
(-0.036429 0.0172535 0)
(-0.0384567 0.0159316 0)
(-0.0403522 0.0144214 0)
(-0.0420804 0.0127172 0)
(-0.0436265 0.0108194 0)
(-0.0449626 0.00873949 0)
(-0.046086 0.00650234 0)
(-0.0469992 0.00415009 0)
(-0.0477418 0.00174097 0)
(-0.0483735 -0.000654934 0)
(-0.0489885 -0.0029676 0)
(-0.0496847 -0.00514123 0)
(-0.0505541 -0.00714868 0)
(-0.0516447 -0.00899851 0)
(-0.0529502 -0.0107327 0)
(-0.0543898 -0.0124145 0)
(-0.0558212 -0.01411 0)
(-0.0570477 -0.0158689 0)
(-0.0578504 -0.017708 0)
(-0.0580075 -0.0196027 0)
(-0.0573293 -0.0214837 0)
(-0.0556725 -0.0232446 0)
(-0.0529677 -0.0247518 0)
(-0.049221 -0.0258642 0)
(-0.0445305 -0.026449 0)
(-0.0390714 -0.0264068 0)
(-0.0330987 -0.0256833 0)
(-0.0269099 -0.0242905 0)
(-0.020833 -0.0222994 0)
(-0.0151672 -0.019846 0)
(-0.0101707 -0.017095 0)
(-0.00600239 -0.0142323 0)
(-0.00273987 -0.0114113 0)
(-0.000350854 -0.00875732 0)
(0.00124737 -0.00632573 0)
(0.002198 -0.00413852 0)
(0.0026298 -0.00216604 0)
(0.0026873 -0.000387755 0)
(0.00245968 0.00121229 0)
(0.002053 0.00257446 0)
(0.00151393 0.00357351 0)
(0.000947618 0.00396022 0)
(0.000410146 0.00342951 0)
(6.15381e-05 0.00163191 0)
(-0.000193602 0.00588355 0)
(-0.00130381 0.0139636 0)
(-0.00312576 0.0191374 0)
(-0.00526325 0.022249 0)
(-0.00767357 0.0239917 0)
(-0.0101504 0.024878 0)
(-0.0127261 0.0252438 0)
(-0.0152937 0.0252983 0)
(-0.0179002 0.0251568 0)
(-0.0204807 0.0248793 0)
(-0.0230735 0.0244885 0)
(-0.0256319 0.0239887 0)
(-0.0281807 0.0233716 0)
(-0.0306813 0.0226243 0)
(-0.0331456 0.0217294 0)
(-0.0355377 0.0206696 0)
(-0.0378572 0.0194266 0)
(-0.0400681 0.0179843 0)
(-0.0421597 0.0163296 0)
(-0.0440969 0.0144565 0)
(-0.0458687 0.0123696 0)
(-0.0474578 0.0100912 0)
(-0.0488847 0.00766678 0)
(-0.0501934 0.00516944 0)
(-0.0514855 0.00269495 0)
(-0.0528985 0.000347621 0)
(-0.0546056 -0.00178466 0)
(-0.0567649 -0.00365726 0)
(-0.0594892 -0.00528786 0)
(-0.0627957 -0.00675862 0)
(-0.0665956 -0.00819998 0)
(-0.070685 -0.0097615 0)
(-0.0747752 -0.0115775 0)
(-0.0785189 -0.0137378 0)
(-0.0815566 -0.0162665 0)
(-0.083546 -0.0191147 0)
(-0.0842001 -0.0221618 0)
(-0.0833024 -0.0252285 0)
(-0.0807322 -0.028093 0)
(-0.0764681 -0.030516 0)
(-0.0706068 -0.0322631 0)
(-0.0633545 -0.0331378 0)
(-0.0550366 -0.0330026 0)
(-0.0460657 -0.0318133 0)
(-0.0369286 -0.0296227 0)
(-0.0281164 -0.0265965 0)
(-0.0200897 -0.0229749 0)
(-0.0131892 -0.0190573 0)
(-0.00762489 -0.0151206 0)
(-0.00342659 -0.011406 0)
(-0.00050579 -0.0080476 0)
(0.00133975 -0.00510968 0)
(0.0023251 -0.00256447 0)
(0.00268705 -0.000371723 0)
(0.00259574 0.00151574 0)
(0.00222275 0.00306445 0)
(0.00165904 0.00416183 0)
(0.00104433 0.00455326 0)
(0.00045325 0.00391059 0)
(6.85016e-05 0.00185272 0)
(-0.000198543 0.00655189 0)
(-0.00133178 0.0154804 0)
(-0.00318881 0.0211665 0)
(-0.00536714 0.0245709 0)
(-0.00782484 0.0264752 0)
(-0.0103536 0.0274458 0)
(-0.0129881 0.027855 0)
(-0.0156213 0.0279295 0)
(-0.0183025 0.0277962 0)
(-0.0209674 0.0275183 0)
(-0.0236567 0.0271208 0)
(-0.0263244 0.0266067 0)
(-0.0289977 0.0259671 0)
(-0.0316386 0.0251862 0)
(-0.0342606 0.0242448 0)
(-0.0368283 0.023122 0)
(-0.0393421 0.0217967 0)
(-0.041766 0.0202497 0)
(-0.0440909 0.018467 0)
(-0.0462859 0.0164456 0)
(-0.0483523 0.0142018 0)
(-0.0502997 0.0117826 0)
(-0.0521995 0.00927525 0)
(-0.0541757 0.00680828 0)
(-0.0564363 0.00453534 0)
(-0.0592331 0.00259939 0)
(-0.0628327 0.00108588 0)
(-0.0674326 -1.72563e-05 0)
(-0.0731123 -0.000833709 0)
(-0.0797815 -0.00158113 0)
(-0.0871883 -0.00252643 0)
(-0.0949387 -0.00393119 0)
(-0.102557 -0.0060004 0)
(-0.109532 -0.00884836 0)
(-0.115378 -0.0124811 0)
(-0.119656 -0.0167985 0)
(-0.122011 -0.0216045 0)
(-0.122171 -0.0266286 0)
(-0.119969 -0.0315445 0)
(-0.115339 -0.0359985 0)
(-0.108343 -0.0396318 0)
(-0.099168 -0.0421179 0)
(-0.0881554 -0.0431913 0)
(-0.0757872 -0.0426969 0)
(-0.0626877 -0.0406132 0)
(-0.0495619 -0.0370922 0)
(-0.037143 -0.0324353 0)
(-0.026068 -0.0270809 0)
(-0.0168088 -0.0214952 0)
(-0.0095714 -0.0161225 0)
(-0.00432946 -0.01126 0)
(-0.000838894 -0.00707527 0)
(0.00122565 -0.00357052 0)
(0.00223676 -0.000686981 0)
(0.00249468 0.00166949 0)
(0.00227851 0.00351458 0)
(0.00175677 0.00476911 0)
(0.00112592 0.00519001 0)
(0.000494078 0.00443479 0)
(7.57756e-05 0.00209537 0)
(-0.000201914 0.00722482 0)
(-0.0013536 0.017012 0)
(-0.00324036 0.0232175 0)
(-0.00545411 0.0269203 0)
(-0.00795422 0.0289916 0)
(-0.0105308 0.0300527 0)
(-0.013221 0.0305127 0)
(-0.0159177 0.0306162 0)
(-0.0186731 0.0305017 0)
(-0.0214234 0.0302357 0)
(-0.0242121 0.0298456 0)
(-0.0269946 0.0293331 0)
(-0.0298003 0.0286885 0)
(-0.0325928 0.0278932 0)
(-0.0353876 0.0269255 0)
(-0.0381505 0.0257609 0)
(-0.0408838 0.0243753 0)
(-0.0435535 0.0227473 0)
(-0.0461558 0.020865 0)
(-0.0486721 0.0187361 0)
(-0.0511326 0.0164043 0)
(-0.0536022 0.0139671 0)
(-0.0562462 0.0115872 0)
(-0.0593197 0.00948007 0)
(-0.0631809 0.00787035 0)
(-0.068211 0.00691812 0)
(-0.0747374 0.00664636 0)
(-0.0829186 0.00690063 0)
(-0.092692 0.00736407 0)
(-0.103751 0.00761897 0)
(-0.1156 0.00723388 0)
(-0.127619 0.00584387 0)
(-0.139159 0.0032086 0)
(-0.149598 -0.000763976 0)
(-0.15839 -0.00601867 0)
(-0.165075 -0.0123742 0)
(-0.169289 -0.0195454 0)
(-0.17075 -0.0271701 0)
(-0.16926 -0.0348264 0)
(-0.164698 -0.0420557 0)
(-0.157043 -0.0483777 0)
(-0.146388 -0.0533232 0)
(-0.132983 -0.0564617 0)
(-0.117261 -0.057463 0)
(-0.0998741 -0.0561417 0)
(-0.0816729 -0.0525376 0)
(-0.0636669 -0.0469315 0)
(-0.0468873 -0.0398704 0)
(-0.0322429 -0.0320527 0)
(-0.0203247 -0.0242378 0)
(-0.0113376 -0.0170286 0)
(-0.00508517 -0.0108217 0)
(-0.00113611 -0.00572353 0)
(0.00106299 -0.00167961 0)
(0.00200835 0.00146541 0)
(0.00214733 0.00380809 0)
(0.00177605 0.00533547 0)
(0.0011823 0.00584438 0)
(0.000531095 0.00499472 0)
(8.35963e-05 0.00236083 0)
(-0.00020537 0.00791851 0)
(-0.00137199 0.0185808 0)
(-0.00328233 0.0253148 0)
(-0.0055253 0.0293229 0)
(-0.00806149 0.0315678 0)
(-0.0106805 0.0327265 0)
(-0.0134217 0.0332453 0)
(-0.0161785 0.0333873 0)
(-0.0190056 0.0333027 0)
(-0.0218409 0.0330616 0)
(-0.0247303 0.0326939 0)
(-0.0276312 0.0322001 0)
(-0.0305758 0.0315698 0)
(-0.0335298 0.0307813 0)
(-0.0365116 0.0298108 0)
(-0.0394892 0.0286299 0)
(-0.0424683 0.0272125 0)
(-0.0454204 0.0255371 0)
(-0.0483539 0.0236017 0)
(-0.0512774 0.0214399 0)
(-0.0542761 0.0191513 0)
(-0.0575137 0.0169244 0)
(-0.0613032 0.015041 0)
(-0.0660803 0.0138286 0)
(-0.0723683 0.0135637 0)
(-0.0806328 0.0143494 0)
(-0.0911546 0.0160316 0)
(-0.103906 0.0181939 0)
(-0.11854 0.0202408 0)
(-0.134438 0.0215251 0)
(-0.150832 0.0214789 0)
(-0.16692 0.0197021 0)
(-0.181968 0.0159999 0)
(-0.195348 0.0103709 0)
(-0.206566 0.00297615 0)
(-0.215244 -0.00590314 0)
(-0.221099 -0.0158962 0)
(-0.223908 -0.026573 0)
(-0.223491 -0.0374531 0)
(-0.219682 -0.0480196 0)
(-0.212348 -0.0577126 0)
(-0.201408 -0.0659503 0)
(-0.18689 -0.0721358 0)
(-0.168995 -0.075721 0)
(-0.148189 -0.0762578 0)
(-0.125257 -0.0735259 0)
(-0.101329 -0.0676071 0)
(-0.0777981 -0.0590047 0)
(-0.0561424 -0.0485861 0)
(-0.0376242 -0.0375017 0)
(-0.0230127 -0.0268553 0)
(-0.012416 -0.0175052 0)
(-0.00539841 -0.00983702 0)
(-0.00120481 -0.0038804 0)
(0.000938651 0.0005794 0)
(0.00173354 0.00376031 0)
(0.00167754 0.00576373 0)
(0.00120157 0.00647167 0)
(0.000562982 0.00557512 0)
(9.24551e-05 0.00264783 0)
(-0.000206709 0.00860743 0)
(-0.00138235 0.0201478 0)
(-0.00330956 0.0274154 0)
(-0.00557507 0.0317342 0)
(-0.00814119 0.0341591 0)
(-0.0107972 0.0354231 0)
(-0.0135847 0.0360102 0)
(-0.0163979 0.0362019 0)
(-0.0192941 0.0361608 0)
(-0.0222128 0.0359605 0)
(-0.025203 0.0356337 0)
(-0.0282243 0.0351797 0)
(-0.0313123 0.0345877 0)
(-0.0344356 0.0338328 0)
(-0.0376163 0.0328893 0)
(-0.0408264 0.0317254 0)
(-0.0440778 0.0303151 0)
(-0.0473527 0.028643 0)
(-0.0506839 0.0267304 0)