/*--------------------------------*- C++ -*----------------------------------*\
| =========                 |                                                 |
| \\      /  F ield         | OpenFOAM: The Open Source CFD Toolbox           |
|  \\    /   O peration     | Version:  2406                                  |
|   \\  /    A nd           | Website:  www.openfoam.com                      |
|    \\/     M anipulation  |                                                 |
\*---------------------------------------------------------------------------*/
FoamFile
{
    version     2.0;
    format      ascii;
    arch        "LSB;label=32;scalar=64";
    class       volVectorField;
    location    "49.4";
    object      U;
}
// * * * * * * * * * * * * * * * * * * * * * * * * * * * * * * * * * * * * * //

dimensions      [0 1 -1 0 0 0 0];

internalField   nonuniform List<vector> 
3600
(
(-5.25913e-06 -3.87278e-06 0)
(0.000419366 -0.000227506 0)
(0.00133826 -0.000349386 0)
(0.00237028 -0.000369584 0)
(0.00334808 -0.00029761 0)
(0.00404691 -0.000198749 0)
(0.00448806 -0.000107561 0)
(0.00468367 -5.27461e-05 0)
(0.00474889 -3.29759e-05 0)
(0.00473383 -3.64698e-05 0)
(0.00467745 -4.17373e-05 0)
(0.00454136 -3.18665e-05 0)
(0.00426443 3.5659e-06 0)
(0.00375464 6.67495e-05 0)
(0.0029239 0.000157032 0)
(0.0016801 0.000274318 0)
(-6.25947e-05 0.00042079 0)
(-0.00238831 0.000596186 0)
(-0.00537143 0.00079261 0)
(-0.00907369 0.000998046 0)
(-0.0135301 0.00120836 0)
(-0.0187315 0.00143179 0)
(-0.0246043 0.00167665 0)
(-0.0309962 0.00193166 0)
(-0.0376675 0.00215717 0)
(-0.0442969 0.00229458 0)
(-0.0505006 0.00228563 0)
(-0.0558646 0.00208878 0)
(-0.0599811 0.00168701 0)
(-0.0624821 0.001088 0)
(-0.0630669 0.00032073 0)
(-0.0615251 -0.00056869 0)
(-0.0577546 -0.00152069 0)
(-0.0517776 -0.00246545 0)
(-0.0437526 -0.00332636 0)
(-0.0339821 -0.00402473 0)
(-0.0229123 -0.00448636 0)
(-0.0111183 -0.0046504 0)
(0.000724884 -0.00447974 0)
(0.0118942 -0.00397154 0)
(0.0216852 -0.00316505 0)
(0.029495 -0.00214378 0)
(0.0348986 -0.00102797 0)
(0.0377175 4.25081e-05 0)
(0.0380426 0.000936143 0)
(0.0362261 0.0015587 0)
(0.0328051 0.00187818 0)
(0.0284123 0.00192688 0)
(0.0236455 0.00178425 0)
(0.0189969 0.0015394 0)
(0.0147799 0.00126581 0)
(0.0111679 0.00100561 0)
(0.00818317 0.000781134 0)
(0.0058039 0.000596192 0)
(0.00391985 0.000454792 0)
(0.00247135 0.000344636 0)
(0.0013332 0.000260201 0)
(0.000526075 0.000159972 0)
(1.50274e-05 4.50372e-05 0)
(-8.47931e-05 -8.94542e-05 0)
(0.000192067 -0.000401562 0)
(0.00134144 -0.00138768 0)
(0.00330005 -0.00189018 0)
(0.00536641 -0.00192553 0)
(0.00725694 -0.00156289 0)
(0.00857337 -0.00104043 0)
(0.00930747 -0.000522867 0)
(0.00944433 -0.000127305 0)
(0.00912801 0.000138119 0)
(0.00840277 0.000329668 0)
(0.00727896 0.000543444 0)
(0.00563376 0.000866097 0)
(0.00329159 0.0013533 0)
(2.03816e-05 0.00202557 0)
(-0.00440873 0.00288261 0)
(-0.0102188 0.00391325 0)
(-0.0175958 0.0050972 0)
(-0.0266741 0.00640457 0)
(-0.0374879 0.00779713 0)
(-0.0499209 0.00921835 0)
(-0.063666 0.0105734 0)
(-0.0782317 0.0117243 0)
(-0.0929874 0.0125126 0)
(-0.107239 0.0127947 0)
(-0.120308 0.0124663 0)
(-0.131592 0.0114741 0)
(-0.140599 0.00981648 0)
(-0.146954 0.00753714 0)
(-0.15039 0.00471651 0)
(-0.150738 0.00146298 0)
(-0.147913 -0.00209306 0)
(-0.141915 -0.00580249 0)
(-0.132822 -0.00949845 0)
(-0.120805 -0.0129972 0)
(-0.106131 -0.0161007 0)
(-0.0891791 -0.0186039 0)
(-0.0704479 -0.0203073 0)
(-0.050557 -0.0210379 0)
(-0.0302359 -0.0206743 0)
(-0.0102947 -0.0191757 0)
(0.00841992 -0.016606 0)
(0.0250911 -0.0131463 0)
(0.038998 -0.00908879 0)
(0.0495937 -0.00480786 0)
(0.0565534 -0.000709261 0)
(0.0598282 0.00282997 0)
(0.0596419 0.00552845 0)
(0.0565007 0.00724364 0)
(0.0511099 0.00799691 0)
(0.0443154 0.0079442 0)
(0.0369275 0.00732823 0)
(0.0296606 0.00639659 0)
(0.0229741 0.00536256 0)
(0.0171648 0.00436289 0)
(0.0122648 0.00348719 0)
(0.00829273 0.00274213 0)
(0.00507973 0.00211658 0)
(0.00266644 0.00148075 0)
(0.00092554 0.000809863 0)
(9.49783e-05 4.19336e-05 0)
(0.000321719 -0.00127975 0)
(0.0019354 -0.00337337 0)
(0.00450546 -0.00435971 0)
(0.00703729 -0.00428936 0)
(0.00918818 -0.00339056 0)
(0.010474 -0.00211254 0)
(0.0108806 -0.000811579 0)
(0.0103616 0.000293474 0)
(0.00902624 0.00118617 0)
(0.0068428 0.00200147 0)
(0.00371745 0.00294831 0)
(-0.000601251 0.00421868 0)
(-0.00641686 0.00593063 0)
(-0.0140729 0.00812321 0)
(-0.0238723 0.0107762 0)
(-0.0360489 0.0138285 0)
(-0.0506799 0.0171759 0)
(-0.067608 0.020647 0)
(-0.0863784 0.0239766 0)
(-0.106274 0.0268272 0)
(-0.126422 0.028863 0)
(-0.145945 0.0298285 0)
(-0.164067 0.029585 0)
(-0.180182 0.0281051 0)
(-0.193854 0.0254439 0)
(-0.204797 0.0217079 0)
(-0.212837 0.0170321 0)
(-0.217877 0.0115659 0)
(-0.219867 0.00546785 0)
(-0.218788 -0.00109479 0)
(-0.214639 -0.00794238 0)
(-0.207438 -0.0148767 0)
(-0.19723 -0.0216743 0)
(-0.184103 -0.0280806 0)
(-0.168206 -0.0338096 0)
(-0.149776 -0.0385499 0)
(-0.129157 -0.0419824 0)
(-0.106822 -0.0438096 0)
(-0.0833771 -0.0437965 0)
(-0.0595494 -0.0418179 0)
(-0.0361565 -0.0379028 0)
(-0.0140483 -0.0322612 0)
(0.00595899 -0.0252851 0)
(0.0231598 -0.0175124 0)
(0.0370068 -0.0095639 0)
(0.0471608 -0.00206483 0)
(0.0534872 0.00443429 0)
(0.056096 0.00951705 0)
(0.0553165 0.0129563 0)
(0.0517385 0.0147332 0)
(0.0461044 0.0150426 0)
(0.0392836 0.0142294 0)
(0.0320376 0.0127151 0)
(0.0250383 0.0108833 0)
(0.0186353 0.00903847 0)
(0.0131106 0.00732768 0)
(0.00841559 0.00579078 0)
(0.00471567 0.00426101 0)
(0.00185442 0.00262895 0)
(0.000294939 0.00072516 0)
(0.000409792 -0.0023793 0)
(0.00230375 -0.00568623 0)
(0.00512326 -0.00704081 0)
(0.00762835 -0.00661737 0)
(0.00944907 -0.00491255 0)
(0.0100801 -0.00260774 0)
(0.00952689 -0.000245363 0)
(0.00770474 0.00189689 0)
(0.00463609 0.0038391 0)
(0.000142889 0.00583378 0)
(-0.00603719 0.00821685 0)
(-0.0143094 0.011271 0)
(-0.0250724 0.0151348 0)
(-0.0386723 0.0198023 0)
(-0.05527 0.0251417 0)
(-0.0747496 0.0308937 0)
(-0.0966151 0.0366433 0)
(-0.120024 0.0418529 0)
(-0.143937 0.0459804 0)
(-0.167336 0.0486152 0)
(-0.18938 0.0495404 0)
(-0.20947 0.0487179 0)
(-0.227229 0.0462337 0)
(-0.242448 0.0422429 0)
(-0.255029 0.0369272 0)
(-0.264937 0.0304711 0)
(-0.272167 0.0230499 0)
(-0.276721 0.014828 0)
(-0.278592 0.00596372 0)
(-0.277761 -0.00338295 0)
(-0.274192 -0.0130385 0)
(-0.267836 -0.0228031 0)
(-0.258644 -0.0324371 0)
(-0.246579 -0.0416496 0)
(-0.231641 -0.050093 0)
(-0.213892 -0.0573656 0)
(-0.19349 -0.0630304 0)
(-0.170728 -0.0666493 0)
(-0.146056 -0.0678388 0)
(-0.120099 -0.0663371 0)
(-0.0936475 -0.0620759 0)
(-0.0676016 -0.0552325 0)
(-0.0428969 -0.0462453 0)
(-0.0203959 -0.0357737 0)
(-0.0008005 -0.0246104 0)
(0.0154118 -0.0135702 0)
(0.0279717 -0.00339131 0)
(0.0368088 0.00532296 0)
(0.0419913 0.0121435 0)
(0.0437816 0.0168352 0)
(0.0425949 0.0193955 0)
(0.0390817 0.02005 0)
(0.0339491 0.0192224 0)
(0.0280036 0.0174232 0)
(0.0218268 0.0151503 0)
(0.0159916 0.0127529 0)
(0.0106632 0.0103976 0)
(0.0062232 0.00796688 0)
(0.00258176 0.00524039 0)
(0.00045763 0.0018715 0)
(0.000465496 -0.0036856 0)
(0.00247646 -0.00823485 0)
(0.00522438 -0.00974238 0)
(0.00727222 -0.00861531 0)
(0.00823905 -0.00574017 0)
(0.00764449 -0.00205572 0)
(0.00551559 0.00172754 0)
(0.00171444 0.00534105 0)
(-0.00387104 0.00890587 0)
(-0.011604 0.0128321 0)
(-0.0219167 0.0175674 0)
(-0.035291 0.0234158 0)
(-0.0520434 0.0304177 0)
(-0.0722201 0.0383483 0)
(-0.0954371 0.0467215 0)
(-0.120871 0.0548388 0)
(-0.147384 0.0619214 0)
(-0.173798 0.0673106 0)
(-0.199124 0.0705971 0)
(-0.222672 0.0716342 0)
(-0.244024 0.0704723 0)
(-0.262973 0.0672826 0)
(-0.279441 0.0622916 0)
(-0.29343 0.0557389 0)
(-0.304976 0.0478511 0)
(-0.314133 0.0388308 0)
(-0.32095 0.0288548 0)
(-0.325465 0.018078 0)
(-0.327699 0.00664229 0)
(-0.327643 -0.00531161 0)
(-0.325257 -0.01763 0)
(-0.320468 -0.0301292 0)
(-0.313168 -0.0425776 0)
(-0.303222 -0.0546775 0)
(-0.290484 -0.066051 0)
(-0.274822 -0.0762345 0)
(-0.256157 -0.0846879 0)
(-0.234514 -0.0908265 0)
(-0.210084 -0.0940799 0)
(-0.183277 -0.0939785 0)
(-0.154764 -0.0902582 0)
(-0.125466 -0.0829594 0)
(-0.0964905 -0.0724896 0)
(-0.0689995 -0.0596085 0)
(-0.0440358 -0.0453267 0)
(-0.022361 -0.0307301 0)
(-0.00439474 -0.0168076 0)
(0.00975953 -0.00434354 0)
(0.0201684 0.0061023 0)
(0.0270215 0.0141673 0)
(0.0305553 0.019691 0)
(0.0311799 0.022733 0)
(0.0293869 0.0235944 0)
(0.0258793 0.0227654 0)
(0.0212623 0.0208208 0)
(0.0162574 0.0182691 0)
(0.0112097 0.0154089 0)
(0.0067204 0.0122219 0)
(0.00284253 0.00837589 0)
(0.000513246 0.00332782 0)
(0.000506641 -0.00505308 0)
(0.00246943 -0.0106556 0)
(0.0047787 -0.0119287 0)
(0.00590145 -0.00964561 0)
(0.00547795 -0.00519543 0)
(0.00310043 0.000230084 0)
(-0.00120939 0.00581731 0)
(-0.00767936 0.0114049 0)
(-0.0166031 0.0172789 0)
(-0.0285145 0.0239977 0)
(-0.0439056 0.0320138 0)
(-0.063095 0.0414639 0)
(-0.0859661 0.0520385 0)
(-0.111896 0.063034 0)
(-0.13978 0.0734854 0)
(-0.168299 0.0824245 0)
(-0.196227 0.0891155 0)
(-0.222641 0.0931686 0)
(-0.246956 0.0945004 0)
(-0.268865 0.0932398 0)
(-0.288246 0.0896318 0)
(-0.305095 0.083969 0)
(-0.319479 0.0765473 0)
(-0.331508 0.0676421 0)
(-0.341312 0.0574952 0)
(-0.34903 0.0463112 0)
(-0.354797 0.0342576 0)
(-0.358729 0.0214705 0)
(-0.360916 0.00806254 0)
(-0.361408 -0.00586401 0)
(-0.360206 -0.0202023 0)
(-0.35725 -0.0348211 0)
(-0.352417 -0.0495428 0)
(-0.345511 -0.0641184 0)
(-0.336267 -0.0782034 0)
(-0.324368 -0.0913376 0)
(-0.309473 -0.102937 0)
(-0.291268 -0.112309 0)
(-0.269551 -0.118696 0)
(-0.244323 -0.121363 0)
(-0.215898 -0.119726 0)
(-0.184978 -0.113502 0)
(-0.152675 -0.102854 0)
(-0.120428 -0.0884636 0)
(-0.089797 -0.0714903 0)
(-0.0621675 -0.0533728 0)
(-0.0384843 -0.0355369 0)
(-0.0191157 -0.0191283 0)
(-0.00398108 -0.00490559 0)
(0.00724889 0.00669907 0)
(0.0149073 0.0154796 0)
(0.0193696 0.021406 0)
(0.0209938 0.0246494 0)
(0.0203277 0.0255954 0)
(0.017884 0.0247758 0)
(0.0143882 0.0227562 0)
(0.0102812 0.0199068 0)
(0.00631103 0.0162969 0)
(0.00269468 0.011494 0)
(0.000483038 0.00479372 0)
(0.000516693 -0.00644004 0)
(0.00221063 -0.0127347 0)
(0.00366635 -0.013259 0)
(0.00339396 -0.00930625 0)
(0.00108053 -0.00284423 0)
(-0.00358233 0.00473051 0)
(-0.0106335 0.0125984 0)
(-0.0204208 0.0207969 0)
(-0.0334083 0.0297851 0)
(-0.0501598 0.0401522 0)
(-0.0709611 0.0521197 0)
(-0.0956175 0.0653638 0)
(-0.123305 0.0789955 0)
(-0.152734 0.0918317 0)
(-0.18245 0.102726 0)
(-0.211197 0.110869 0)
(-0.238078 0.115867 0)
(-0.262555 0.117679 0)
(-0.28436 0.116492 0)
(-0.303416 0.112613 0)
(-0.319764 0.106402 0)
(-0.333537 0.0982258 0)
(-0.344922 0.0884294 0)
(-0.354145 0.0773189 0)
(-0.361446 0.0651505 0)
(-0.367063 0.0521276 0)
(-0.371213 0.0384027 0)
(-0.374088 0.0240844 0)
(-0.375838 0.00924706 0)
(-0.376568 -0.00605552 0)
(-0.376325 -0.0217751 0)
(-0.375093 -0.0378494 0)
(-0.372778 -0.0541804 0)
(-0.369192 -0.0706067 0)
(-0.364043 -0.086873 0)
(-0.356923 -0.102598 0)
(-0.347318 -0.117245 0)
(-0.33463 -0.130109 0)
(-0.318248 -0.140327 0)
(-0.297655 -0.146938 0)
(-0.272573 -0.148996 0)
(-0.243137 -0.145744 0)
(-0.21005 -0.136836 0)
(-0.174646 -0.122535 0)
(-0.138807 -0.103835 0)
(-0.104666 -0.082381 0)
(-0.0741434 -0.0601585 0)
(-0.0484793 -0.0390179 0)
(-0.0280355 -0.0202762 0)
(-0.0124532 -0.00461344 0)
(-0.00111514 0.00775425 0)
(0.00660787 0.0168465 0)
(0.0111833 0.0228272 0)
(0.0131266 0.026016 0)
(0.0128795 0.0268652 0)
(0.0111056 0.0259152 0)
(0.00827587 0.0235329 0)
(0.00519288 0.0198253 0)
(0.00221214 0.0142808 0)
(0.000380546 0.00609615 0)
(0.000474916 -0.00766604 0)
(0.0016101 -0.0140487 0)
(0.00174246 -0.013195 0)
(-0.00038996 -0.0070429 0)
(-0.00505141 0.00185651 0)
(-0.0124429 0.0120027 0)
(-0.0227276 0.0226833 0)
(-0.0363551 0.0341698 0)
(-0.0538433 0.0469824 0)
(-0.0755151 0.0614834 0)
(-0.101132 0.0773556 0)
(-0.129783 0.0936255 0)
(-0.16004 0.108908 0)
(-0.190348 0.121891 0)
(-0.219386 0.131649 0)
(-0.246232 0.137759 0)
(-0.270339 0.14019 0)
(-0.291442 0.139176 0)
(-0.309484 0.135092 0)
(-0.324558 0.128384 0)
(-0.336872 0.119511 0)
(-0.346711 0.10891 0)
(-0.354402 0.0969693 0)
(-0.360285 0.0840096 0)
(-0.364686 0.0702809 0)
(-0.367903 0.0559642 0)
(-0.370193 0.0411783 0)
(-0.37177 0.0259911 0)
(-0.372807 0.0104316 0)
(-0.373431 -0.00549664 0)
(-0.373724 -0.0218028 0)
(-0.373718 -0.0384927 0)
(-0.373382 -0.0555519 0)
(-0.372605 -0.0729217 0)
(-0.371168 -0.0904712 0)
(-0.368719 -0.107959 0)
(-0.36474 -0.124992 0)
(-0.358537 -0.140982 0)
(-0.349257 -0.155113 0)
(-0.335951 -0.166349 0)
(-0.317712 -0.173487 0)
(-0.293879 -0.175301 0)
(-0.264304 -0.170774 0)
(-0.229604 -0.159394 0)
(-0.19132 -0.141467 0)
(-0.151853 -0.118303 0)
(-0.11407 -0.0921261 0)
(-0.0806028 -0.0656134 0)
(-0.0531181 -0.0411596 0)
(-0.0319453 -0.020273 0)
(-0.0164225 -0.00348361 0)
(-0.00550806 0.00928763 0)
(0.00166943 0.0183566 0)
(0.00583999 0.0241152 0)
(0.00752477 0.0270022 0)
(0.00736562 0.0275142 0)
(0.00585429 0.0259719 0)
(0.00378235 0.0224675 0)
(0.00160146 0.0164417 0)
(0.000256875 0.00707209 0)
(0.000349979 -0.00855431 0)
(0.000576911 -0.0142243 0)
(-0.00108514 -0.011323 0)
(-0.00547682 -0.00248235 0)
(-0.0128501 0.00925408 0)
(-0.0233043 0.0224119 0)
(-0.0371617 0.0364625 0)
(-0.0548616 0.0518271 0)
(-0.0767547 0.0688378 0)
(-0.102631 0.0873163 0)
(-0.131582 0.106235 0)
(-0.162109 0.124084 0)
(-0.192566 0.139342 0)
(-0.221537 0.150939 0)
(-0.248032 0.15836 0)
(-0.271456 0.161567 0)
(-0.291532 0.160823 0)
(-0.308222 0.156583 0)
(-0.321683 0.149394 0)
(-0.332213 0.139829 0)
(-0.340202 0.128434 0)
(-0.346079 0.115689 0)
(-0.350269 0.101986 0)
(-0.353165 0.0876249 0)
(-0.355108 0.0728156 0)
(-0.356378 0.0576914 0)
(-0.357203 0.0423227 0)
(-0.357762 0.0267334 0)
(-0.358195 0.0109131 0)
(-0.358611 -0.00517011 0)
(-0.359094 -0.0215606 0)
(-0.359704 -0.0383046 0)
(-0.36047 -0.0554416 0)
(-0.361375 -0.0729888 0)
(-0.362333 -0.0909233 0)
(-0.363151 -0.109151 0)
(-0.363483 -0.127466 0)
(-0.362773 -0.145495 0)
(-0.360221 -0.162635 0)
(-0.354763 -0.177997 0)
(-0.345126 -0.190381 0)
(-0.329978 -0.198324 0)
(-0.308194 -0.200255 0)
(-0.27922 -0.194786 0)
(-0.243476 -0.181129 0)
(-0.202653 -0.159543 0)
(-0.159712 -0.131661 0)
(-0.118385 -0.100412 0)
(-0.082189 -0.0693589 0)
(-0.0532688 -0.041582 0)
(-0.0318938 -0.0187657 0)
(-0.0169361 -0.00119296 0)
(-0.00695802 0.0116256 0)
(-0.000715869 0.0203383 0)
(0.00263879 0.0255423 0)
(0.00386782 0.0277659 0)
(0.00353919 0.0273074 0)
(0.00241987 0.0242259 0)
(0.00102081 0.017959 0)
(0.000144763 0.00772907 0)
(0.000114539 -0.00881991 0)
(-0.000943817 -0.0127927 0)
(-0.0048268 -0.00719116 0)
(-0.011781 0.00475081 0)
(-0.0221146 0.0196798 0)
(-0.0358155 0.0362598 0)
(-0.0533339 0.0541298 0)
(-0.0749001 0.0736403 0)
(-0.100468 0.0946344 0)
(-0.129153 0.116207 0)
(-0.159508 0.136724 0)
(-0.189782 0.154483 0)
(-0.218467 0.168186 0)
(-0.244451 0.177187 0)
(-0.267081 0.181387 0)
(-0.286043 0.18108 0)
(-0.30133 0.176797 0)
(-0.31316 0.169208 0)
(-0.321934 0.159016 0)
(-0.328143 0.146893 0)
(-0.332316 0.13342 0)
(-0.334954 0.119066 0)
(-0.336495 0.104174 0)
(-0.3373 0.0889785 0)
(-0.33765 0.0736206 0)
(-0.337751 0.0581701 0)
(-0.337758 0.0426444 0)
(-0.337779 0.0270277 0)
(-0.3379 0.0112811 0)
(-0.338188 -0.0046462 0)
(-0.338707 -0.0208124 0)
(-0.339517 -0.0372773 0)
(-0.340676 -0.0541002 0)
(-0.342233 -0.0713336 0)
(-0.344211 -0.0890169 0)
(-0.34658 -0.107159 0)
(-0.349217 -0.125714 0)
(-0.351838 -0.144531 0)
(-0.353927 -0.163295 0)
(-0.354656 -0.181432 0)
(-0.352831 -0.19802 0)
(-0.346908 -0.211722 0)
(-0.335137 -0.220801 0)
(-0.315868 -0.223272 0)
(-0.288039 -0.21726 0)
(-0.25175 -0.201554 0)
(-0.208765 -0.176273 0)
(-0.162627 -0.143391 0)
(-0.118073 -0.106723 0)
(-0.0796243 -0.0709765 0)
(-0.0499252 -0.0400348 0)
(-0.0289794 -0.015687 0)
(-0.0151295 0.00223086 0)
(-0.00642813 0.0146712 0)
(-0.00140544 0.0226202 0)
(0.00105289 0.0268142 0)
(0.00171825 0.0276423 0)
(0.00138255 0.0251694 0)
(0.000607794 0.0188885 0)
(7.47274e-05 0.00811126 0)
(-0.000248509 -0.00818421 0)
(-0.00294093 -0.00938652 0)
(-0.00935889 -0.000524605 0)
(-0.0190355 0.0148214 0)
(-0.032414 0.033224 0)
(-0.0493257 0.0535251 0)
(-0.0702514 0.0754028 0)
(-0.0949988 0.0988488 0)
(-0.123011 0.123014 0)
(-0.152808 0.146313 0)
(-0.182699 0.166815 0)
(-0.21099 0.182974 0)
(-0.236489 0.193915 0)
(-0.258408 0.199444 0)
(-0.276422 0.199845 0)
(-0.290513 0.195733 0)
(-0.300981 0.1879 0)
(-0.308304 0.177204 0)
(-0.313087 0.164451 0)
(-0.315937 0.15034 0)
(-0.317426 0.135413 0)
(-0.31802 0.120061 0)
(-0.31809 0.104534 0)
(-0.317895 0.0889766 0)
(-0.317616 0.073448 0)
(-0.317362 0.0579576 0)
(-0.317203 0.0424799 0)
(-0.317179 0.026973 0)
(-0.317321 0.0113852 0)
(-0.317656 -0.0043362 0)
(-0.318222 -0.0202452 0)
(-0.319061 -0.0363937 0)
(-0.320235 -0.0528345 0)
(-0.321813 -0.0696196 0)
(-0.323872 -0.086803 0)
(-0.326481 -0.104435 0)
(-0.329675 -0.122555 0)
(-0.333413 -0.141167 0)
(-0.33751 -0.160194 0)
(-0.341539 -0.179402 0)
(-0.344724 -0.198292 0)
(-0.345827 -0.215954 0)
(-0.343117 -0.230954 0)
(-0.334474 -0.241278 0)
(-0.317716 -0.244476 0)
(-0.2912 -0.238071 0)
(-0.254607 -0.220289 0)
(-0.209711 -0.191023 0)
(-0.160685 -0.152667 0)
(-0.113402 -0.110199 0)
(-0.0734956 -0.0697651 0)
(-0.0439296 -0.0361298 0)
(-0.0242002 -0.0108855 0)
(-0.0119171 0.0067333 0)
(-0.00477191 0.0182409 0)
(-0.00101692 0.0248312 0)
(0.000522549 0.0271956 0)
(0.000783552 0.0255223 0)
(0.000415007 0.0194354 0)
(5.49209e-05 0.00835299 0)
(-0.000739348 -0.00634463 0)
(-0.00534056 -0.00368411 0)
(-0.0144654 0.00886943 0)
(-0.0268733 0.0278061 0)
(-0.0432006 0.0498576 0)
(-0.063035 0.0739792 0)
(-0.086765 0.0996831 0)
(-0.113638 0.126357 0)
(-0.142639 0.152449 0)
(-0.171913 0.175928 0)
(-0.199823 0.19492 0)
(-0.224909 0.208261 0)
(-0.24635 0.215567 0)
(-0.263682 0.217081 0)
(-0.276932 0.213467 0)
(-0.2864 0.205649 0)
(-0.292674 0.194642 0)
(-0.296421 0.181414 0)
(-0.298351 0.166789 0)
(-0.299069 0.151398 0)
(-0.299084 0.135679 0)
(-0.298753 0.119902 0)
(-0.298327 0.104205 0)
(-0.297944 0.0886387 0)
(-0.297685 0.073195 0)
(-0.297575 0.057838 0)
(-0.297623 0.0425161 0)
(-0.297821 0.0271766 0)
(-0.298166 0.0117673 0)
(-0.29866 -0.00375777 0)
(-0.299321 -0.019441 0)
(-0.300174 -0.0353197 0)
(-0.30127 -0.0514308 0)
(-0.302672 -0.0678113 0)
(-0.304463 -0.0845046 0)
(-0.306741 -0.101562 0)
(-0.309612 -0.119045 0)
(-0.313164 -0.137022 0)
(-0.317434 -0.155549 0)
(-0.322334 -0.174627 0)
(-0.327549 -0.194118 0)
(-0.332386 -0.213614 0)
(-0.335633 -0.232247 0)
(-0.335442 -0.2485 0)
(-0.329386 -0.26008 0)
(-0.314781 -0.264014 0)
(-0.289382 -0.257112 0)
(-0.252411 -0.236921 0)
(-0.205652 -0.203067 0)
(-0.154013 -0.158566 0)
(-0.104691 -0.10996 0)
(-0.0644269 -0.0652214 0)
(-0.0361629 -0.0297581 0)
(-0.0184069 -0.00461837 0)
(-0.00809809 0.0119188 0)
(-0.00261674 0.0217179 0)
(-0.000140669 0.0260618 0)
(0.000601249 0.0254657 0)
(0.000437877 0.0197904 0)
(8.37662e-05 0.00857289 0)
(-0.00133108 -0.00307854 0)
(-0.00798532 0.00445558 0)
(-0.0198097 0.0209672 0)
(-0.034784 0.0435384 0)
(-0.0537599 0.0692414 0)
(-0.0759788 0.096994 0)
(-0.101645 0.125945 0)
(-0.129429 0.154769 0)
(-0.158034 0.181373 0)
(-0.185473 0.203591 0)
(-0.210366 0.21987 0)
(-0.231558 0.229534 0)
(-0.248617 0.232703 0)
(-0.261417 0.230046 0)
(-0.270349 0.222602 0)
(-0.275987 0.211547 0)
(-0.279124 0.198027 0)
(-0.280496 0.183017 0)
(-0.280796 0.167253 0)
(-0.280527 0.151234 0)
(-0.280071 0.135251 0)
(-0.27964 0.119443 0)
(-0.279364 0.103845 0)
(-0.279277 0.0884337 0)
(-0.279385 0.0731579 0)
(-0.279661 0.0579574 0)
(-0.28008 0.0427728 0)
(-0.28061 0.0275529 0)
(-0.281237 0.0122535 0)
(-0.281948 -0.00315988 0)
(-0.282749 -0.0187158 0)
(-0.283655 -0.0344356 0)
(-0.284699 -0.0503388 0)
(-0.285925 -0.0664429 0)
(-0.287402 -0.0827709 0)
(-0.289214 -0.0993542 0)
(-0.291474 -0.116243 0)
(-0.294309 -0.133509 0)
(-0.297855 -0.151252 0)
(-0.302215 -0.169583 0)
(-0.307397 -0.188586 0)
(-0.313193 -0.208227 0)
(-0.319014 -0.228198 0)
(-0.323687 -0.247677 0)
(-0.325289 -0.265057 0)
(-0.321127 -0.277734 0)
(-0.308052 -0.282135 0)
(-0.283242 -0.274256 0)
(-0.245491 -0.250862 0)
(-0.196698 -0.211409 0)
(-0.142731 -0.15988 0)
(-0.0923323 -0.105071 0)
(-0.0532007 -0.0569482 0)
(-0.027504 -0.0211482 0)
(-0.012416 0.00270967 0)
(-0.00434 0.0171038 0)
(-0.000587665 0.0242073 0)
(0.000675121 0.0251337 0)
(0.000608495 0.0201326 0)
(0.00014628 0.00888883 0)
(-0.00197983 0.00175775 0)
(-0.0106895 0.0150444 0)
(-0.0250435 0.0356247 0)
(-0.0422725 0.0617424 0)
(-0.063425 0.0909188 0)
(-0.0873123 0.12184 0)
(-0.11393 0.153166 0)
(-0.14146 0.182889 0)
(-0.168539 0.208644 0)
(-0.193238 0.2284 0)
(-0.214545 0.241097 0)
(-0.23163 0.246579 0)
(-0.244464 0.245473 0)
(-0.253248 0.238861 0)
(-0.258692 0.228095 0)
(-0.261546 0.214505 0)
(-0.262683 0.199248 0)
(-0.262785 0.183195 0)
(-0.262437 0.166927 0)
(-0.261984 0.150772 0)
(-0.261664 0.134875 0)
(-0.261558 0.119258 0)
(-0.261702 0.103884 0)
(-0.262061 0.0886849 0)
(-0.262604 0.0735892 0)
(-0.263278 0.0585315 0)
(-0.264052 0.0434563 0)
(-0.26489 0.0283204 0)
(-0.265778 0.0130896 0)
(-0.2667 -0.00226011 0)
(-0.267661 -0.0177468 0)
(-0.268666 -0.0333808 0)
(-0.269736 -0.0491696 0)
(-0.270897 -0.0651163 0)
(-0.272191 -0.0812262 0)
(-0.273676 -0.0975083 0)
(-0.275434 -0.113986 0)
(-0.277572 -0.130706 0)
(-0.280235 -0.147752 0)
(-0.283587 -0.165248 0)
(-0.287796 -0.183366 0)
(-0.292954 -0.202275 0)
(-0.298963 -0.222052 0)
(-0.305324 -0.242485 0)
(-0.310902 -0.262779 0)
(-0.313683 -0.281192 0)
(-0.310711 -0.294716 0)
(-0.298385 -0.299072 0)
(-0.273364 -0.289299 0)
(-0.23414 -0.261398 0)
(-0.182975 -0.214853 0)
(-0.127094 -0.155411 0)
(-0.0770159 -0.0948373 0)
(-0.0408457 -0.0452088 0)
(-0.0189152 -0.0108671 0)
(-0.00696453 0.0102083 0)
(-0.00127611 0.0213271 0)
(0.000757668 0.0244861 0)
(0.000824448 0.0205256 0)
(0.000222353 0.00935694 0)
(-0.00262038 0.00816335 0)
(-0.0132253 0.0279003 0)
(-0.0297788 0.0525014 0)
(-0.0488163 0.0819218 0)
(-0.071539 0.114179 0)
(-0.0962925 0.147558 0)
(-0.122905 0.180209 0)
(-0.149213 0.209587 0)
(-0.173981 0.233335 0)
(-0.195455 0.249755 0)
(-0.213037 0.258363 0)
(-0.226219 0.259526 0)
(-0.235365 0.254368 0)
(-0.240949 0.244321 0)
(-0.243905 0.230949 0)
(-0.245027 0.2156 0)
(-0.245157 0.199336 0)
(-0.244834 0.182844 0)
(-0.244494 0.166519 0)
(-0.244318 0.15052 0)
(-0.244423 0.13487 0)
(-0.244792 0.119512 0)
(-0.245407 0.104366 0)
(-0.246197 0.0893456 0)
(-0.247125 0.0743792 0)
(-0.248133 0.0594074 0)
(-0.249196 0.044385 0)
(-0.250283 0.0292793 0)
(-0.251385 0.0140658 0)
(-0.252491 -0.00127059 0)
(-0.253605 -0.0167403 0)
(-0.254728 -0.0323467 0)
(-0.255873 -0.0480898 0)
(-0.257053 -0.0639642 0)
(-0.258292 -0.079964 0)
(-0.259619 -0.0960824 0)
(-0.261081 -0.112321 0)
(-0.262744 -0.128693 0)
(-0.264714 -0.145246 0)
(-0.267132 -0.162068 0)
(-0.270191 -0.179317 0)
(-0.274109 -0.197217 0)
(-0.279066 -0.216035 0)
(-0.28506 -0.235961 0)
(-0.291683 -0.256881 0)
(-0.297801 -0.277996 0)
(-0.301263 -0.297329 0)
(-0.298793 -0.311333 0)
(-0.286325 -0.3148 0)
(-0.260075 -0.301732 0)
(-0.218466 -0.267362 0)
(-0.164597 -0.211908 0)
(-0.107585 -0.143877 0)
(-0.0598663 -0.0792423 0)
(-0.0286494 -0.0306838 0)
(-0.0112766 -6.81554e-05 0)
(-0.00269852 0.0168658 0)
(0.000572834 0.0233115 0)
(0.000969841 0.020923 0)
(0.000289675 0.00998372 0)
(-0.00319095 0.0160115 0)
(-0.0154029 0.0427209 0)
(-0.0337156 0.0711814 0)
(-0.0540379 0.103551 0)
(-0.0776698 0.138357 0)
(-0.102511 0.173361 0)
(-0.128301 0.206279 0)
(-0.152693 0.234223 0)
(-0.174706 0.255085 0)
(-0.192826 0.267617 0)
(-0.206876 0.271953 0)
(-0.216645 0.268965 0)
(-0.222846 0.260228 0)
(-0.226128 0.247421 0)
(-0.227532 0.232192 0)
(-0.227785 0.215784 0)
(-0.227616 0.199085 0)
(-0.227386 0.182563 0)
(-0.227383 0.166434 0)
(-0.227652 0.150717 0)
(-0.228228 0.135352 0)
(-0.229034 0.120237 0)
(-0.230037 0.105276 0)
(-0.231154 0.0903861 0)
(-0.232358 0.0755037 0)
(-0.233597 0.0605808 0)
(-0.234859 0.0455837 0)
(-0.236119 0.0304884 0)
(-0.237379 0.0152782 0)
(-0.238627 -5.70609e-05 0)
(-0.239873 -0.0155235 0)
(-0.241114 -0.0311213 0)
(-0.242362 -0.0468478 0)
(-0.243618 -0.0626943 0)
(-0.244897 -0.0786504 0)
(-0.246207 -0.0947014 0)
(-0.247571 -0.110835 0)
(-0.249017 -0.127044 0)
(-0.250602 -0.143337 0)
(-0.252413 -0.159757 0)
(-0.254596 -0.176404 0)
(-0.257357 -0.193459 0)
(-0.260961 -0.211209 0)
(-0.265663 -0.230015 0)
(-0.271558 -0.250187 0)
(-0.278297 -0.271704 0)
(-0.284708 -0.293687 0)
(-0.288422 -0.313817 0)
(-0.285748 -0.32772 0)
(-0.272121 -0.329072 0)
(-0.243427 -0.310583 0)
(-0.198441 -0.267208 0)
(-0.141758 -0.200749 0)
(-0.0851743 -0.124668 0)
(-0.0425419 -0.0590245 0)
(-0.0178603 -0.0150805 0)
(-0.00526889 0.0100204 0)
(-0.000103393 0.0212093 0)
(0.000952158 0.0211466 0)
(0.000331989 0.0107112 0)
(-0.00362949 0.0250398 0)
(-0.0170466 0.0590663 0)
(-0.0365958 0.0911223 0)
(-0.0576366 0.125977 0)
(-0.0815167 0.162674 0)
(-0.105756 0.198416 0)
(-0.130102 0.230621 0)
(-0.152157 0.25626 0)
(-0.171272 0.273651 0)
(-0.186193 0.282059 0)
(-0.197138 0.282238 0)
(-0.20415 0.275516 0)
(-0.208206 0.263835 0)
(-0.210022 0.248991 0)
(-0.210637 0.23259 0)
(-0.210635 0.215683 0)
(-0.210603 0.19894 0)
(-0.210722 0.182619 0)
(-0.211168 0.166789 0)
(-0.211886 0.151366 0)
(-0.212872 0.136249 0)
(-0.214023 0.121315 0)
(-0.21531 0.106477 0)
(-0.216655 0.0916589 0)
(-0.218047 0.0768131 0)
(-0.219442 0.0619019 0)
(-0.220843 0.0469021 0)
(-0.222228 0.031796 0)
(-0.223606 0.0165724 0)
(-0.224967 0.00122432 0)
(-0.226323 -0.0142516 0)
(-0.227668 -0.0298541 0)
(-0.229013 -0.0455794 0)
(-0.230357 -0.0614185 0)
(-0.231708 -0.07736 0)
(-0.233064 -0.0933874 0)
(-0.234434 -0.109483 0)
(-0.235821 -0.125628 0)
(-0.237248 -0.141811 0)
(-0.238751 -0.158036 0)
(-0.240413 -0.174344 0)
(-0.242373 -0.190848 0)
(-0.244858 -0.20776 0)
(-0.248174 -0.225437 0)
(-0.252647 -0.244341 0)
(-0.258447 -0.264919 0)
(-0.265255 -0.287184 0)
(-0.271779 -0.310128 0)
(-0.275317 -0.330785 0)
(-0.271644 -0.343737 0)
(-0.25566 -0.341033 0)
(-0.223177 -0.314296 0)
(-0.173893 -0.258596 0)
(-0.115013 -0.1798 0)
(-0.0615586 -0.0980148 0)
(-0.0270426 -0.0365502 0)
(-0.00928662 -0.000118129 0)
(-0.00140011 0.0176401 0)
(0.000724235 0.0209434 0)
(0.000342657 0.0114509 0)
(-0.00389663 0.0348968 0)
(-0.0180579 0.07645 0)
(-0.0382943 0.1118 0)
(-0.0595037 0.148641 0)
(-0.0830374 0.186564 0)
(-0.106133 0.222233 0)
(-0.128625 0.25293 0)
(-0.148167 0.275656 0)
(-0.164471 0.289277 0)
(-0.176532 0.293583 0)
(-0.184917 0.289926 0)
(-0.189856 0.280013 0)
(-0.192491 0.266049 0)
(-0.193506 0.24981 0)
(-0.193865 0.232769 0)
(-0.193974 0.215732 0)
(-0.194278 0.199159 0)
(-0.194814 0.183123 0)
(-0.195681 0.167589 0)
(-0.196765 0.152413 0)
(-0.198055 0.137477 0)
(-0.199441 0.122662 0)
(-0.200912 0.107893 0)
(-0.2024 0.0931096 0)
(-0.20391 0.0782761 0)
(-0.205405 0.0633635 0)
(-0.2069 0.0483559 0)
(-0.208373 0.033239 0)
(-0.20984 0.0180049 0)
(-0.211289 0.00264788 0)
(-0.212734 -0.0128343 0)
(-0.214168 -0.0284403 0)
(-0.215602 -0.0441665 0)
(-0.217031 -0.0600047 0)
(-0.218464 -0.0759447 0)
(-0.219893 -0.0919712 0)
(-0.221322 -0.108067 0)
(-0.222742 -0.124211 0)
(-0.224156 -0.140381 0)
(-0.225565 -0.15656 0)
(-0.226999 -0.172748 0)
(-0.228528 -0.188988 0)
(-0.230295 -0.2054 0)
(-0.232546 -0.222249 0)
(-0.235637 -0.23996 0)
(-0.239959 -0.259145 0)
(-0.245742 -0.28034 0)
(-0.252624 -0.303611 0)
(-0.259086 -0.327523 0)
(-0.261928 -0.348294 0)
(-0.256259 -0.35875 0)
(-0.236507 -0.349293 0)
(-0.198788 -0.310244 0)
(-0.144841 -0.239005 0)
(-0.0855582 -0.147993 0)
(-0.039469 -0.0667129 0)
(-0.014815 -0.0145784 0)
(-0.00342128 0.0119553 0)
(0.000298353 0.0200107 0)
(0.000319321 0.0121033 0)
(-0.00396594 0.0451632 0)
(-0.0183769 0.094327 0)
(-0.0387523 0.132643 0)
(-0.0596203 0.170946 0)
(-0.0823009 0.209433 0)
(-0.103858 0.244315 0)
(-0.124268 0.272893 0)
(-0.141311 0.292336 0)
(-0.155045 0.302122 0)
(-0.164686 0.302553 0)
(-0.171086 0.295523 0)
(-0.174582 0.283026 0)
(-0.176387 0.267401 0)
(-0.177081 0.250301 0)
(-0.177512 0.233007 0)
(-0.177911 0.216068 0)
(-0.178607 0.199761 0)
(-0.17953 0.184013 0)
(-0.18074 0.16873 0)
(-0.182095 0.153734 0)
(-0.183594 0.138917 0)
(-0.185135 0.124167 0)
(-0.186724 0.109429 0)
(-0.188305 0.0946529 0)
(-0.189896 0.0798149 0)
(-0.191466 0.0648904 0)
(-0.193033 0.0498687 0)
(-0.19458 0.0347367 0)
(-0.196121 0.0194887 0)
(-0.197645 0.00411925 0)
(-0.199165 -0.0113727 0)
(-0.200673 -0.0269857 0)
(-0.202179 -0.0427159 0)
(-0.203677 -0.0585558 0)
(-0.205176 -0.0744964 0)
(-0.206669 -0.0905247 0)
(-0.208158 -0.106626 0)
(-0.209633 -0.122782 0)
(-0.211087 -0.13897 0)
(-0.212506 -0.155167 0)
(-0.213891 -0.171351 0)
(-0.215255 -0.187523 0)
(-0.216663 -0.20372 0)
(-0.218264 -0.220096 0)
(-0.220333 -0.236948 0)
(-0.223279 -0.254849 0)
(-0.227569 -0.274513 0)
(-0.233447 -0.296675 0)
(-0.240426 -0.321169 0)
(-0.246576 -0.346068 0)
(-0.247999 -0.365906 0)
(-0.239046 -0.37162 0)
(-0.213844 -0.351119 0)
(-0.169723 -0.295151 0)
(-0.111718 -0.205577 0)
(-0.0561172 -0.107388 0)
(-0.0217884 -0.034933 0)
(-0.00628755 0.00356679 0)
(-0.000300618 0.0179821 0)
(0.000268297 0.012595 0)
(-0.00383681 0.0554074 0)
(-0.0180165 0.112189 0)
(-0.0380236 0.153179 0)
(-0.0581166 0.192473 0)
(-0.0795518 0.230967 0)
(-0.0993254 0.264524 0)
(-0.117584 0.290601 0)
(-0.132275 0.306629 0)
(-0.143764 0.312713 0)
(-0.15145 0.30963 0)
(-0.156391 0.299746 0)
(-0.158959 0.285229 0)
(-0.160361 0.268454 0)
(-0.161032 0.250872 0)
(-0.161697 0.233551 0)
(-0.162433 0.216804 0)
(-0.163486 0.200762 0)
(-0.164718 0.18525 0)
(-0.166177 0.170147 0)
(-0.167713 0.155263 0)
(-0.169344 0.140509 0)
(-0.170978 0.125786 0)
(-0.172641 0.111057 0)
(-0.174281 0.096276 0)
(-0.17593 0.0814298 0)
(-0.177555 0.0664951 0)
(-0.179182 0.0514633 0)
(-0.180789 0.0363212 0)
(-0.182394 0.021064 0)
(-0.183983 0.00568584 0)
(-0.185568 -0.00981365 0)
(-0.187139 -0.0254332 0)
(-0.188707 -0.0411685 0)
(-0.190265 -0.0570128 0)
(-0.191821 -0.0729576 0)
(-0.193369 -0.0889923 0)
(-0.194912 -0.105105 0)
(-0.196441 -0.12128 0)
(-0.19795 -0.137499 0)
(-0.19942 -0.153742 0)
(-0.200839 -0.16998 0)
(-0.202189 -0.186194 0)
(-0.203484 -0.202369 0)
(-0.204783 -0.218572 0)
(-0.206251 -0.234952 0)
(-0.208198 -0.251941 0)
(-0.21111 -0.270183 0)