/*--------------------------------*- C++ -*----------------------------------*\
| =========                 |                                                 |
| \\      /  F ield         | OpenFOAM: The Open Source CFD Toolbox           |
|  \\    /   O peration     | Version:  2406                                  |
|   \\  /    A nd           | Website:  www.openfoam.com                      |
|    \\/     M anipulation  |                                                 |
\*---------------------------------------------------------------------------*/
FoamFile
{
    version     2.0;
    format      ascii;
    arch        "LSB;label=32;scalar=64";
    class       surfaceScalarField;
    location    "31.45";
    object      phi;
}
// * * * * * * * * * * * * * * * * * * * * * * * * * * * * * * * * * * * * * //

dimensions      [0 3 -1 0 0 0 0];

oriented        oriented;

internalField   nonuniform List<scalar> 
28560
(
7.14796e-10
-7.12822e-10
5.42186e-08
-5.35038e-08
1.72943e-07
-1.18725e-07
3.43678e-07
-1.70735e-07
5.49518e-07
-2.05839e-07
7.73675e-07
-2.24157e-07
1.00128e-06
-2.27605e-07
1.22013e-06
-2.18851e-07
1.42104e-06
-2.00904e-07
1.59785e-06
-1.76814e-07
1.74732e-06
-1.4947e-07
1.86874e-06
-1.21415e-07
1.96345e-06
-9.47101e-08
2.0343e-06
-7.08514e-08
2.08504e-06
-5.07392e-08
2.11974e-06
-3.47e-08
2.14237e-06
-2.26369e-08
2.15612e-06
-1.37454e-08
2.16321e-06
-7.08737e-09
2.1646e-06
-1.38937e-09
2.16056e-06
4.03676e-09
2.14988e-06
1.06763e-08
2.13027e-06
1.9613e-08
2.09863e-06
3.16364e-08
2.05126e-06
4.73683e-08
1.98402e-06
6.72396e-08
1.89249e-06
9.15313e-08
1.77207e-06
1.20427e-07
1.618e-06
1.54062e-07
1.42544e-06
1.9256e-07
1.1894e-06
2.3604e-07
9.04787e-07
2.84618e-07
5.66415e-07
3.38372e-07
1.69097e-07
3.97318e-07
-2.9228e-07
4.61376e-07
-8.22616e-07
5.30336e-07
-1.42645e-06
6.03838e-07
-2.1078e-06
6.81351e-07
-2.86997e-06
7.62164e-07
-3.71535e-06
8.4538e-07
-4.64526e-06
9.29914e-07
-5.65977e-06
1.01451e-06
-6.7575e-06
1.09773e-06
-7.93553e-06
1.17803e-06
-9.18924e-06
1.25371e-06
-1.05123e-05
1.32302e-06
-1.18964e-05
1.38416e-06
-1.33317e-05
1.43531e-06
-1.48064e-05
1.4747e-06
-1.6307e-05
1.50061e-06
-1.78185e-05
1.51144e-06
-1.93242e-05
1.50574e-06
-2.08064e-05
1.48219e-06
-2.22461e-05
1.43969e-06
-2.36234e-05
1.37735e-06
-2.4918e-05
1.29452e-06
-2.61088e-05
1.19082e-06
-2.71749e-05
1.06613e-06
-2.80956e-05
9.20708e-07
-2.88508e-05
7.55126e-07
-2.94214e-05
5.70596e-07
-2.979e-05
3.68675e-07
-2.99388e-05
1.48754e-07
-2.98519e-05
-8.68795e-08
-2.95222e-05
-3.29674e-07
-2.894e-05
-5.82266e-07
-2.81005e-05
-8.39495e-07
-2.70033e-05
-1.09713e-06
-2.56528e-05
-1.35056e-06
-2.40579e-05
-1.59487e-06
-2.2233e-05
-1.82488e-06
-2.01978e-05
-2.03527e-06
-1.7977e-05
-2.2208e-06
-1.56005e-05
-2.37643e-06
-1.31029e-05
-2.49758e-06
-1.05226e-05
-2.58033e-06
-7.90097e-06
-2.62164e-06
-5.2814e-06
-2.61956e-06
-2.708e-06
-2.5734e-06
-2.24167e-07
-2.48383e-06
2.12877e-06
-2.35294e-06
4.313e-06
-2.18423e-06
6.2955e-06
-1.98249e-06
8.04914e-06
-1.75364e-06
9.55359e-06
-1.50445e-06
1.07959e-05
-1.24227e-06
1.17705e-05
-9.74648e-07
1.24795e-05
-7.09036e-07
1.2932e-05
-4.52422e-07
1.3143e-05
-2.10993e-07
1.31365e-05
6.42408e-09
1.29281e-05
2.08424e-07
1.25515e-05
3.76644e-07
1.20352e-05
5.16255e-07
1.14075e-05
6.27755e-07
1.06964e-05
7.11093e-07
9.92843e-06
7.67928e-07
9.12779e-06
8.00638e-07
8.31567e-06
8.12121e-07
7.51009e-06
8.05582e-07
6.72577e-06
7.84322e-07
5.97419e-06
7.51578e-07
5.26379e-06
7.10395e-07
4.60025e-06
6.63539e-07
3.98682e-06
6.13439e-07
3.42465e-06
5.62169e-07
2.9132e-06
5.11444e-07
2.45058e-06
4.62626e-07
2.03386e-06
4.16718e-07
1.65952e-06
3.74335e-07
1.32388e-06
3.35644e-07
1.02361e-06
3.00267e-07
7.56433e-07
2.67179e-07
5.21802e-07
2.34631e-07
3.21627e-07
2.00176e-07
1.60634e-07
1.60992e-07
4.59128e-08
1.14722e-07
-1.54514e-08
6.13642e-08
-2.28247e-08
7.37332e-09
-2.28247e-08
5.15287e-08
-5.22415e-08
2.37546e-07
-2.39521e-07
5.5888e-07
-4.40058e-07
9.89562e-07
-6.01417e-07
1.49525e-06
-7.1153e-07
2.04045e-06
-7.69351e-07
2.59238e-06
-7.79543e-07
3.12326e-06
-7.49725e-07
3.61135e-06
-6.88995e-07
4.04142e-06
-6.06887e-07
4.40454e-06
-5.12592e-07
4.69745e-06
-4.14321e-07
4.92155e-06
-3.18816e-07
5.08175e-06
-2.31045e-07
5.18507e-06
-1.54062e-07
5.2394e-06
-8.90306e-08
5.25217e-06
-3.541e-08
5.22968e-06
8.74732e-09
5.17573e-06
4.68602e-08
5.09188e-06
8.24609e-08
4.9763e-06
1.19625e-07
4.8246e-06
1.62369e-07
4.62993e-06
2.14284e-07
4.38326e-06
2.78307e-07
4.07394e-06
3.56685e-07
3.69018e-06
4.51008e-07
3.21938e-06
5.62323e-07
2.64853e-06
6.91285e-07
1.96429e-06
8.38297e-07
1.15325e-06
1.0036e-06
2.01992e-07
1.1873e-06
-9.02714e-07
1.38932e-06
-2.17368e-06
1.60934e-06
-3.62301e-06
1.84665e-06
-5.26171e-06
2.10008e-06
-7.09926e-06
2.36789e-06
-9.14314e-06
2.64771e-06
-1.13983e-05
2.93652e-06
-1.38668e-05
3.23062e-06
-1.65471e-05
3.52568e-06
-1.94339e-05
3.81676e-06
-2.25178e-05
4.09845e-06
-2.5785e-05
4.36493e-06
-2.92172e-05
4.61016e-06
-3.27915e-05
4.82798e-06
-3.64807e-05
5.01228e-06
-4.02538e-05
5.1572e-06
-4.40757e-05
5.25725e-06
-4.79084e-05
5.30744e-06
-5.17113e-05
5.30343e-06
-5.54414e-05
5.24158e-06
-5.90547e-05
5.11905e-06
-6.25063e-05
4.93382e-06
-6.57514e-05
4.68474e-06
-6.87456e-05
4.37151e-06
-7.14457e-05
3.99467e-06
-7.38105e-05
3.55563e-06
-7.5801e-05
3.05664e-06
-7.73811e-05
2.50081e-06
-7.85182e-05
1.89219e-06
-7.91831e-05
1.23553e-06
-7.9351e-05
5.36553e-07
-7.90054e-05
-1.96822e-07
-7.81297e-05
-9.62649e-07
-7.6714e-05
-1.74534e-06
-7.47581e-05
-2.53813e-06
-7.22667e-05
-3.33094e-06
-6.92515e-05
-4.11233e-06
-6.57318e-05
-4.87022e-06
-6.17348e-05
-5.59193e-06
-5.72952e-05
-6.26444e-06
-5.24559e-05
-6.87459e-06
-4.72672e-05
-7.40944e-06
-4.1787e-05
-7.85671e-06
-3.60794e-05
-8.20519e-06
-3.02145e-05
-8.44522e-06
-2.4267e-05
-8.56915e-06
-1.83147e-05
-8.57182e-06
-1.24372e-05
-8.45092e-06
-6.71371e-06
-8.2073e-06
-1.22146e-06
-7.8452e-06
3.96654e-06
-7.37222e-06
8.78334e-06
-6.7993e-06
1.317e-05
-6.14034e-06
1.70774e-05
-5.41183e-06
2.04674e-05
-4.63224e-06
2.33141e-05
-3.82134e-06
2.56044e-05
-2.99937e-06
2.73383e-05
-2.18633e-06
2.85287e-05
-1.40138e-06
2.91966e-05
-6.61517e-07
2.93816e-05
2.34836e-08
2.91288e-05
6.29474e-07
2.84854e-05
1.15965e-06
2.75085e-05
1.60458e-06
2.62569e-05
1.96273e-06
2.47893e-05
2.2355e-06
2.3163e-05
2.42694e-06
2.14317e-05
2.54344e-06
1.96442e-05
2.59313e-06
1.78432e-05
2.58525e-06
1.60652e-05
2.52961e-06
1.43395e-05
2.43604e-06
1.2689e-05
2.31404e-06
1.11301e-05
2.17235e-06
9.67347e-06
2.01883e-06
8.32468e-06
1.86023e-06
7.08514e-06
1.70216e-06
5.95289e-06
1.54897e-06
4.92364e-06
1.40359e-06
3.99193e-06
1.26735e-06
3.15249e-06
1.13971e-06
2.40167e-06
1.018e-06
1.739e-06
8.973e-07
1.16845e-06
7.70733e-07
6.98872e-07
6.30565e-07
3.4289e-07
4.70704e-07
1.12518e-07
2.91736e-07
1.03783e-08
1.09513e-07
-1.24463e-08
1.13453e-07
-1.65694e-07
4.30278e-07
-5.56347e-07
9.22269e-07
-9.32049e-07
1.55188e-06
-1.23103e-06
2.27462e-06
-1.43426e-06
3.04457e-06
-1.5393e-06
3.81875e-06
-1.55372e-06
4.55999e-06
-1.49096e-06
5.23861e-06
-1.36761e-06
5.83312e-06
-1.2014e-06
6.33013e-06
-1.00961e-06
6.7236e-06
-8.07793e-07
7.01361e-06
-6.08825e-07
7.2048e-06
-4.22233e-07
7.30465e-06
-2.53914e-07
7.32174e-06
-1.06122e-07
7.26405e-06
2.22864e-08
7.13769e-06
1.35103e-07
6.94584e-06
2.38712e-07
6.6878e-06
3.40497e-07
6.35886e-06
4.4857e-07
5.95036e-06
5.70867e-07
5.45011e-06
7.14535e-07
4.8429e-06
8.85516e-07
4.11121e-06
1.08837e-06
3.23589e-06
1.32633e-06
2.19676e-06
1.60145e-06
9.73123e-07
1.91492e-06
-4.55808e-07
2.26723e-06
-2.11052e-06
2.65831e-06
-4.0108e-06
3.08758e-06
-6.17525e-06
3.55378e-06
-8.62078e-06
4.05486e-06
-1.13619e-05
4.58773e-06
-1.44099e-05
5.14809e-06
-1.77723e-05
5.7303e-06
-2.14519e-05
6.3273e-06
-2.5446e-05
6.93066e-06
-2.97461e-05
7.53066e-06
-3.43368e-05
8.11644e-06
-3.91964e-05
8.67629e-06
-4.42958e-05
9.1979e-06
-4.95996e-05
9.66877e-06
-5.50661e-05
1.00766e-05
-6.06476e-05
1.04096e-05
-6.62922e-05
1.06568e-05
-7.19437e-05
1.08087e-05
-7.75435e-05
1.0857e-05
-8.30314e-05
1.07954e-05
-8.83469e-05
1.0619e-05
-9.34302e-05
1.03248e-05
-9.8223e-05
9.91186e-06
-0.00010267
9.38053e-06
-0.000106718
8.73291e-06
-0.000110319
7.97252e-06
-0.000113428
7.10415e-06
-0.000116007
6.1338e-06
-0.000118018
5.06855e-06
-0.000119434
3.91646e-06
-0.000120229
2.68663e-06
-0.000120383
1.38957e-06
-0.000119879
3.28227e-08
-0.000118713
-1.36259e-06
-0.000116882
-2.79389e-06
-0.000114386
-4.24157e-06
-0.000111234
-5.6902e-06
-0.000107441
-7.12362e-06
-0.000103029
-8.52409e-06
-9.80265e-05
-9.87284e-06
-9.24682e-05
-1.11503e-05
-8.63963e-05
-1.23363e-05
-7.98603e-05
-1.34106e-05
-7.29166e-05
-1.43532e-05
-6.56283e-05
-1.5145e-05
-5.80652e-05
-1.57683e-05
-5.03029e-05
-1.62076e-05
-4.24217e-05
-1.64503e-05
-3.45061e-05
-1.64874e-05
-2.66432e-05
-1.63138e-05
-1.8921e-05
-1.59295e-05
-1.1427e-05
-1.53392e-05
-4.24621e-06
-1.4553e-05
2.5407e-06
-1.35862e-05
8.85935e-06
-1.2459e-05
1.46435e-05
-1.11959e-05
1.98365e-05
-9.82533e-06
2.43934e-05
-8.37821e-06
2.82814e-05
-6.88738e-06
3.14813e-05
-5.38622e-06
3.39875e-05
-3.90751e-06
3.58079e-05
-2.48199e-06
3.69694e-05
-1.138e-06
3.75035e-05
9.5338e-08
3.74561e-05
1.20714e-06
3.68855e-05
2.17513e-06
3.5856e-05
2.99224e-06
3.44371e-05
3.6544e-06
3.2701e-05
4.16307e-06
3.07198e-05
4.52461e-06
2.85634e-05
4.74958e-06
2.62968e-05
4.85184e-06
2.39788e-05
4.84756e-06
2.16606e-05
4.75424e-06
1.93849e-05
4.58971e-06
1.71859e-05
4.37136e-06
1.50893e-05
4.11543e-06
1.3113e-05
3.83654e-06
1.12679e-05
3.54727e-06
9.55914e-06
3.25776e-06
7.98733e-06
2.97539e-06
6.55036e-06
2.70433e-06
5.24508e-06
2.44499e-06
4.06937e-06
2.19371e-06
3.02403e-06
1.94264e-06
2.11435e-06
1.68041e-06
1.35067e-06
1.39425e-06
7.4729e-07
1.07408e-06
3.18768e-07
7.20258e-07
7.30348e-08
3.55247e-07
6.05885e-08
1.63061e-07
-3.28756e-07
5.87917e-07
-9.81202e-07
1.21843e-06
-1.56256e-06
2.00175e-06
-2.01435e-06
2.8833e-06
-2.31582e-06
3.80935e-06
-2.46535e-06
4.73022e-06
-2.47459e-06
5.60292e-06
-2.36367e-06
6.39288e-06
-2.15758e-06
7.07467e-06
-1.88319e-06
7.63183e-06
-1.56676e-06
8.05602e-06
-1.23199e-06
8.34564e-06
-8.9845e-07
8.50404e-06
-5.8063e-07
8.53751e-06
-2.87386e-07
8.45333e-06
-2.19435e-08
8.25787e-06
2.17752e-07
7.95483e-06
4.38145e-07
7.54433e-06
6.49209e-07
7.0218e-06
8.63027e-07
6.3778e-06
1.09257e-06
5.59815e-06
1.35052e-06
4.66443e-06
1.64825e-06
3.55477e-06
1.99518e-06
2.24468e-06
2.39846e-06
7.08004e-07
2.863e-06
-1.08226e-06
3.39172e-06
-3.15317e-06
3.98584e-06
-5.53112e-06
4.64518e-06
-8.2411e-06
5.36829e-06
-1.13059e-05
6.15234e-06
-1.47451e-05
6.99298e-06
-1.85742e-05
7.88403e-06
-2.28037e-05
8.81722e-06
-2.74376e-05
9.78197e-06
-3.24727e-05
1.07654e-05
-3.78977e-05
1.17523e-05
-4.36924e-05
1.27254e-05
-4.98277e-05
1.3666e-05
-5.62653e-05
1.4554e-05
-6.29581e-05
1.53691e-05
-6.98514e-05
1.60911e-05
-7.68834e-05
1.67008e-05
-8.39875e-05
1.71806e-05
-9.10931e-05
1.75151e-05
-9.81278e-05
1.76916e-05
-0.000105019
1.77002e-05
-0.000111697
1.75342e-05
-0.000118091
1.71901e-05
-0.000124139
1.66671e-05
-0.000129782
1.59672e-05
-0.000134964
1.50945e-05
-0.000139639
1.40555e-05
-0.000143765
1.28581e-05
-0.000147304
1.15115e-05
-0.000150225
1.00261e-05
-0.000152505
8.41332e-06
-0.000154122
6.68508e-06
-0.000155059
4.85416e-06
-0.000155307
2.93405e-06
-0.000154856
9.38808e-07
-0.000153706
-1.11717e-06
-0.000151853
-3.21596e-06
-0.000149304
-5.34228e-06
-0.000146068
-7.47736e-06
-0.000142157
-9.6012e-06
-0.000137588
-1.16926e-05
-0.000132383
-1.37291e-05
-0.000126569
-1.56867e-05
-0.000120179
-1.75402e-05
-0.000113252
-1.92636e-05
-0.000105832
-2.08302e-05
-9.7972e-05
-2.22137e-05
-8.97287e-05
-2.33882e-05
-8.11673e-05
-2.43297e-05
-7.23585e-05
-2.50163e-05
-6.3379e-05
-2.54299e-05
-5.431e-05
-2.55564e-05
-4.52368e-05
-2.5387e-05
-3.62472e-05
-2.49191e-05
-2.74299e-05
-2.41564e-05
-1.88732e-05
-2.31097e-05
-1.06627e-05
-2.17967e-05
-2.8801e-06
-2.02416e-05
4.39913e-06
-1.84752e-05
1.11071e-05
-1.65332e-05
1.71849e-05
-1.44561e-05
2.25844e-05
-1.22869e-05
2.7269e-05
-1.00708e-05
3.12146e-05
-7.85308e-06
3.44106e-05
-5.67805e-06
3.68605e-05
-3.58784e-06
3.8577e-05
-1.62115e-06
3.95937e-05
1.90379e-07
3.9951e-05
1.81791e-06
3.97023e-05
3.24093e-06
3.89107e-05
4.44601e-06
3.76466e-05
5.42711e-06
3.59856e-05
6.18563e-06
3.40053e-05
6.72989e-06
3.17828e-05
7.07431e-06
2.93921e-05
7.23828e-06
2.69015e-05
7.24481e-06
2.43721e-05
7.1191e-06
2.18563e-05
6.88718e-06
1.93971e-05
6.5746e-06
1.70283e-05
6.20536e-06
1.47747e-05
5.80092e-06
1.2653e-05
5.37944e-06
1.06735e-05
4.95488e-06
8.84159e-06
4.53624e-06
7.15984e-06
4.12674e-06
5.6303e-06
3.72325e-06
4.25671e-06
3.31623e-06
3.04639e-06
2.89074e-06
2.01137e-06
2.42926e-06
1.16846e-06
1.91699e-06
5.37822e-07
1.3509e-06
1.40838e-07
7.5223e-07
2.01427e-07
1.99876e-07
-5.28631e-07
7.07702e-07
-1.48903e-06
1.44493e-06
-2.29979e-06
2.34278e-06
-2.9122e-06
3.33599e-06
-3.30902e-06
4.36338e-06
-3.49274e-06
5.3699e-06
-3.48111e-06
6.30858e-06
-3.30234e-06
7.14182e-06
-2.99082e-06
7.84187e-06
-2.58324e-06
8.39044e-06
-2.11533e-06
8.7776e-06
-1.61915e-06
9.00017e-06
-1.12101e-06
9.05968e-06
-6.40146e-07
8.96028e-06
-1.87987e-07
8.7065e-06
2.31843e-07
8.30127e-06
6.22982e-07
7.74418e-06
9.95231e-07
7.03031e-06
1.36308e-06
6.14939e-06
1.74395e-06
5.08565e-06
2.15631e-06
3.81815e-06
2.61802e-06
2.3215e-06
3.14491e-06
5.66833e-07
3.74984e-06
-1.47697e-06
4.44226e-06
-3.84216e-06
5.22819e-06
-6.56093e-06
6.11049e-06
-9.66431e-06
7.08921e-06
-1.3181e-05
8.16185e-06
-1.71361e-05
9.32339e-06
-2.15499e-05
1.05662e-05
-2.64365e-05
1.18796e-05
-3.18023e-05
1.32498e-05
-3.76447e-05
1.46596e-05
-4.39509e-05
1.60882e-05
-5.06974e-05
1.75118e-05
-5.78489e-05
1.89038e-05
-6.53592e-05
2.02357e-05
-7.31713e-05
2.1478e-05
-8.12188e-05
2.26015e-05
-8.94278e-05
2.35782e-05
-9.77191e-05
2.43824e-05
-0.00010601
2.49919e-05
-0.000114218
2.53884e-05
-0.000122261
2.55583e-05
-0.000130062
2.54925e-05
-0.000137548
2.51866e-05
-0.000144655
2.46405e-05
-0.000151322
2.38577e-05
-0.0001575
2.28452e-05
-0.000163146
2.16124e-05
-0.000168222
2.01706e-05
-0.000172699
1.85327e-05
-0.000176553
1.67124e-05
-0.000179766
1.47241e-05
-0.000182322
1.25826e-05
-0.000184212
1.03026e-05
-0.000185426
7.89937e-06
-0.00018596
5.38806e-06
-0.00018581
2.78422e-06
-0.000184975
1.04027e-07
-0.000183456
-2.63596e-06
-0.000181255
-5.41759e-06
-0.000178375
-8.2221e-06
-0.000174824
-1.10288e-05
-0.000170609
-1.38154e-05
-0.000165744
-1.65578e-05
-0.000160244
-1.92296e-05
-0.000154128
-2.18028e-05
-0.00014742
-2.42475e-05
-0.000140152
-2.65319e-05
-0.000132359
-2.86235e-05
-0.000124083
-3.04893e-05
-0.000115375
-3.20965e-05
-0.000106291
-3.34138e-05
-9.68948e-05
-3.44123e-05
-8.72578e-05
-3.50669e-05
-7.74568e-05
-3.53574e-05
-6.75742e-05
-3.52696e-05
-5.76965e-05
-3.47969e-05
-4.79127e-05
-3.39403e-05
-3.83128e-05
-3.27096e-05
-2.89858e-05
-3.11236e-05
-2.00181e-05
-2.92094e-05
-1.14912e-05
-2.70021e-05
-3.48046e-06
-2.4544e-05
3.94646e-06
-2.1883e-05
1.0731e-05
-1.90715e-05
1.68246e-05
-1.61644e-05
2.21896e-05
-1.3218e-05
2.67997e-05
-1.02881e-05
3.06403e-05
-7.42851e-06
3.3709e-05
-4.68981e-06
3.6017e-05
-2.11763e-06
3.75871e-05
2.47857e-07
3.84544e-05
2.37362e-06
3.8666e-05
4.23434e-06
3.82797e-05
5.81348e-06
3.73618e-05
7.10349e-06
3.59858e-05
8.10591e-06
3.42291e-05
8.83094e-06
3.21709e-05
9.29656e-06
2.98885e-05
9.52722e-06
2.74553e-05
9.55227e-06
2.49384e-05
9.4041e-06
2.23966e-05
9.11639e-06
1.98797e-05
8.72225e-06
1.74279e-05
8.25269e-06
1.50723e-05
7.73502e-06
1.28358e-05
7.19145e-06
1.07343e-05
6.63771e-06
8.77925e-06
6.08179e-06
6.97949e-06
5.523e-06
5.34387e-06
4.95185e-06
3.88354e-06
4.35107e-06
2.614e-06
3.6988e-06
1.55668e-06
2.97431e-06
7.4037e-07
2.16721e-06
2.0326e-07
1.28934e-06
4.04687e-07
2.26382e-07
-7.55013e-07
7.95195e-07
-2.05784e-06
1.61026e-06
-3.11486e-06
2.58793e-06
-3.88987e-06
3.65205e-06
-4.37314e-06
4.73398e-06
-4.57467e-06
5.7737e-06
-4.52084e-06
6.72114e-06
-4.24978e-06
7.53681e-06
-3.80649e-06
8.19181e-06
-3.23824e-06
8.66699e-06
-2.59051e-06
8.95144e-06
-1.9036e-06
9.0406e-06
-1.21018e-06
8.93398e-06
-5.33519e-07
8.63278e-06
1.13211e-07
8.13767e-06
7.26956e-07
7.44668e-06
1.31397e-06
6.5536e-06
1.88832e-06
5.44679e-06
2.46989e-06
4.10872e-06
3.08202e-06
2.51599e-06
3.74903e-06
6.40047e-07
4.49396e-06
-1.55177e-06
5.33673e-06
-4.09484e-06
6.29292e-06
-7.02576e-06
7.37318e-06
-1.03808e-05
8.5832e-06
-1.41942e-05
9.92391e-06
-1.84968e-05
1.13919e-05
-2.33144e-05
1.29794e-05
-2.86655e-05
1.46745e-05
-3.45604e-05
1.6461e-05
-4.09986e-05
1.83178e-05
-4.79679e-05
2.02192e-05
-5.54432e-05
2.21348e-05
-6.33853e-05
2.40304e-05
-7.17421e-05
2.58686e-05
-8.04483e-05
2.76101e-05
-8.94282e-05
2.92156e-05
-9.85971e-05
3.0647e-05
-0.000107865
3.18693e-05
-0.000117139
3.28522e-05
-0.000126327
3.35705e-05
-0.000135341
3.40058e-05
-0.000144098
3.41457e-05
-0.000152525
3.39846e-05
-0.000160554
3.35223e-05
-0.000168132
3.27641e-05
-0.000175211
3.17193e-05
-0.000181753
3.04004e-05
-0.000187731
2.88223e-05
-0.00019312
2.70014e-05
-0.000197904
2.49548e-05
-0.000202071
2.27e-05
-0.000205613
2.02544e-05
-0.000208524
1.76349e-05
-0.000210799
1.4858e-05
-0.000212436
1.19397e-05
-0.000213433
8.89573e-06
-0.000213786
5.74171e-06
-0.000213495
2.49327e-06
-0.000212558
-8.33423e-07
-0.000210972
-4.22153e-06
-0.000208737
-7.65278e-06
-0.000205851
-1.11077e-05
-0.000202316
-1.45647e-05
-0.000198131
-1.79998e-05
-0.000193302
-2.13869e-05
-0.000187835
-2.46969e-05
-0.000181739
-2.78982e-05
-0.000175031
-3.09562e-05
-0.000167728
-3.38344e-05
-0.000159858
-3.64939e-05
-0.000151452
-3.88949e-05
-0.000142552
-4.0997e-05
-0.000133205
-4.27611e-05
-0.000123467
-4.41497e-05
-0.000113404
-4.51296e-05
-0.000103089
-4.56725e-05
-9.26016e-05
-4.57572e-05
-8.20276e-05
-4.53709e-05
-7.14578e-05
-4.45101e-05
-6.09852e-05
-4.31822e-05
-5.07035e-05
-4.14052e-05
-4.0705e-05
-3.92079e-05
-3.10778e-05
-3.66293e-05
-2.19044e-05
-3.37173e-05
-1.32601e-05
-3.05273e-05
-5.2113e-06
-2.71203e-05
2.18531e-06
-2.3561e-05
8.8831e-06
-1.99158e-05
1.48459e-05
-1.6251e-05
2.00483e-05
-1.26309e-05
2.44753e-05
-9.11683e-06
2.81231e-05
-5.76541e-06
3.09987e-05
-2.62774e-06
3.31204e-05
2.51867e-07
3.45178e-05
2.83694e-06
3.52317e-05
5.09964e-06
3.53133e-05
7.02184e-06
3.48237e-05
8.59549e-06
3.38318e-05
9.82292e-06
3.24119e-05
1.07164e-05
3.06417e-05
1.12974e-05
2.85988e-05
1.15951e-05
2.63584e-05
1.16445e-05
2.39903e-05
1.14845e-05
2.15574e-05
1.11552e-05
1.91138e-05
1.06962e-05
1.67049e-05
1.01439e-05
1.43671e-05
9.52925e-06
1.21289e-05
8.87596e-06
1.00123e-05
8.19837e-06
8.03528e-06
7.50003e-06
6.21399e-06
6.77314e-06
4.56562e-06
5.99944e-06
3.11132e-06
5.1531e-06
1.87932e-06
4.20631e-06
9.08784e-07
3.13775e-06
2.54867e-07
1.94326e-06
6.59555e-07
2.4551e-07
-1.00052e-06
8.57528e-07
-2.66986e-06
1.72525e-06
-3.98258e-06
2.75146e-06
-4.91608e-06
3.84951e-06
-5.47118e-06
4.94336e-06
-5.66852e-06
5.96837e-06
-5.54585e-06
6.87192e-06
-5.15333e-06
7.61345e-06
-4.54802e-06
8.16374e-06
-3.78853e-06
8.50348e-06
-2.93025e-06
8.62129e-06
-2.02141e-06
8.51131e-06
-1.10021e-06
8.17071e-06
-1.92916e-07
7.59708e-06
6.86845e-07
6.78611e-06
1.53792e-06
5.72964e-06
2.37044e-06
4.41412e-06
3.20383e-06
2.81986e-06
4.06415e-06
9.20869e-07
4.98102e-06
-1.31457e-06
5.98447e-06
-3.92273e-06
7.10211e-06
-6.9428e-06
8.3568e-06
-1.04151e-05
9.7652e-06
-1.43789e-05
1.13371e-05
-1.88709e-05
1.30751e-05
-2.39222e-05
1.49753e-05
-2.95575e-05
1.70271e-05
-3.57916e-05
1.92135e-05
-4.26285e-05
2.15114e-05
-5.00586e-05
2.38911e-05
-5.80575e-05
2.63167e-05
-6.65852e-05
2.87469e-05
-7.55859e-05
3.11355e-05
-8.4989e-05
3.34335e-05
-9.47111e-05
3.55906e-05
-0.000104659
3.75577e-05
-0.000114732
3.92889e-05
-0.000124829
4.07441e-05
-0.00013485
4.18898e-05
-0.000144698
4.27008e-05
-0.000154288
4.31604e-05
-0.000163543
4.32602e-05
-0.000172396
4.29994e-05
-0.000180795
4.23838e-05
-0.000188698
4.14247e-05
-0.000196071
4.01375e-05
-0.000202892
3.85403e-05
-0.000209145
3.66528e-05
-0.000214818
3.44958e-05
-0.000219906
3.20899e-05
-0.000224407
2.94552e-05
-0.000228318
2.6611e-05
-0.000231639
2.35757e-05
-0.000234371
2.03664e-05
-0.000236512
1.69994e-05
-0.000238063
1.34901e-05
-0.00023902
9.85335e-06
-0.000239382
6.10368e-06
-0.000239145
2.25583e-06
-0.000238303
-1.67502e-06
-0.000236852
-5.67273e-06
-0.000234785
-9.71968e-06
-0.000232096
-1.37965e-05
-0.000228779
-1.78815e-05
-0.000224829
-2.19502e-05
-0.000220241
-2.5975e-05
-0.000215013
-2.99251e-05
-0.000209145
-3.3766e-05
-0.000202641
-3.74597e-05
-0.000195511
-4.09647e-05
-0.000187768
-4.42368e-05
-0.000179434
-4.72291e-05
-0.000170537
-4.98937e-05
-0.000161116
-5.21824e-05
-0.000151217
-5.40487e-05
-0.000140897
-5.54492e-05
-0.000130224
-5.63457e-05
-0.000119274
-5.67075e-05
-0.000108132
-5.6513e-05
-9.689e-05
-5.57518e-05
-8.56464e-05
-5.44258e-05
-7.45013e-05
-5.25503e-05
-6.35554e-05
-5.01538e-05
-5.29067e-05
-4.7278e-05
-4.2648e-05
-4.3976e-05
-3.28646e-05
-4.03106e-05
-2.36325e-05
-3.63524e-05
-1.50169e-05
-3.21766e-05
-7.07216e-06
-2.78606e-05
1.58859e-07
-2.3482e-05
6.64394e-06
-1.91159e-05
1.23612e-05
-1.48341e-05
1.72986e-05
-1.07028e-05
2.14535e-05
-6.78266e-06
2.48327e-05
-3.12732e-06
2.74524e-05
2.17182e-07
2.93388e-05
3.21326e-06
3.0528e-05
5.83268e-06
3.1066e-05
8.05744e-06
3.10086e-05
9.88039e-06
3.04194e-05
1.13056e-05
2.9369e-05
1.23479e-05
2.79317e-05
1.30324e-05
2.61835e-05
1.33927e-05
2.41991e-05
1.3469e-05
2.20489e-05
1.33054e-05
1.97977e-05
1.29475e-05
1.75025e-05
1.24391e-05
1.52122e-05
1.18195e-05
1.29676e-05
1.11206e-05
1.08023e-05
1.03636e-05
8.74465e-06
9.55768e-06
6.81983e-06
8.69796e-06
5.05303e-06
7.76624e-06
3.47296e-06
6.73317e-06
2.1162e-06
5.56306e-06
1.03268e-06
4.22127e-06
2.9266e-07
2.68328e-06
9.52215e-07
2.59461e-07
-1.25998e-06
9.00349e-07
-3.31075e-06
1.79854e-06
-4.88077e-06
2.84436e-06
-5.9619e-06
3.94124e-06
-6.56807e-06
5.00626e-06
-6.73353e-06
5.97064e-06
-6.51023e-06
6.77986e-06
-5.96255e-06
7.39296e-06
-5.16112e-06
7.78108e-06
-4.17664e-06
7.92527e-06
-3.07443e-06
7.81388e-06
-1.91002e-06
7.43968e-06
-7.26009e-07
6.797e-06
4.49766e-07
5.87899e-06
1.60486e-06
4.6753e-06
2.74161e-06
3.1703e-06
3.87544e-06
1.34197e-06
5.03217e-06
-8.38435e-07
6.24455e-06
-3.4058e-06
7.54839e-06
-6.39995e-06
8.97862e-06
-9.86373e-06
1.05659e-05
-1.38407e-05
1.23338e-05
-1.83729e-05
1.42973e-05
-2.34978e-05
1.6462e-05
-2.92464e-05
1.88237e-05
-3.564e-05
2.1369e-05
-4.26885e-05
2.40756e-05
-5.03874e-05
2.69124e-05
-5.87159e-05
2.984e-05
-6.76361e-05
3.28112e-05
-7.70918e-05
3.57724e-05
-8.70097e-05
3.86648e-05
-9.73014e-05
4.14273e-05
-0.000107867
4.39988e-05
-0.000118597
4.63214e-05
-0.000129383
4.8343e-05
-0.000140114
5.00198e-05
-0.000150687
5.13178e-05
-0.000161011
5.22135e-05
-0.000171004
5.2694e-05
-0.0001806
5.27561e-05
-0.000189745
5.24051e-05
-0.000198399
5.16531e-05
-0.000206532
5.05175e-05
-0.000214127
4.90192e-05
-0.00022117
4.71812e-05
-0.000227658
4.50275e-05
-0.000233587
4.25823e-05
-0.00023896
3.98688e-05
-0.00024378
3.69092e-05
-0.000248049
3.37243e-05
-0.000251771
3.03332e-05
-0.000254949
2.67538e-05
-0.000257585
2.30021e-05
-0.000259679
1.90935e-05
-0.00026123
1.50418e-05
-0.000262238
1.08606e-05
-0.000262697
6.56302e-06
-0.000262604
2.16229e-06
-0.000261951
-2.32781e-06
-0.000260731
-6.89248e-06
-0.000258935
-1.15154e-05
-0.000256553
-1.61783e-05
-0.000253575
-2.08601e-05
-0.000249988
-2.5537e-05
-0.000245782
-3.01813e-05
-0.000240946
-3.47614e-05
-0.00023547
-3.92416e-05
-0.000229348
-4.35815e-05
-0.000222577
-4.77362e-05
-0.000215157
-5.16567e-05
-0.000207095
-5.52903e-05
-0.000198408
-5.85816e-05
-0.000189117
-6.14734e-05
-0.000179256
-6.39092e-05
-0.000168871
-6.58341e-05
-0.000158019
-6.7198e-05
-0.000146768
-6.79579e-05
-0.000135201
-6.80803e-05
-0.000123409
-6.75437e-05
-0.000111494
-6.6341e-05
-9.95637e-05
-6.44808e-05
-8.77293e-05
-6.19883e-05
-7.61024e-05
-5.89049e-05
-6.4791e-05
-5.52874e-05
-5.38958e-05
-5.12058e-05
-4.35077e-05
-4.67405e-05
-3.37055e-05
-4.19788e-05
-2.45545e-05
-3.70116e-05
-1.61064e-05
-3.193e-05
-8.39979e-06
-2.68226e-05
-1.46111e-06
-2.17728e-05
4.69383e-06
-1.68577e-05
1.00585e-05
-1.21474e-05
1.46348e-05
-7.70359e-06
1.84322e-05
-3.58025e-06
2.14681e-05
1.77342e-07
2.37679e-05
3.53293e-06
2.53654e-05
6.45998e-06
2.63032e-05
8.94251e-06
2.6633e-05
1.09758e-05
2.64142e-05
1.25667e-05
2.57132e-05
1.37335e-05
2.46008e-05
1.45051e-05
2.31503e-05
1.49194e-05
2.14346e-05
1.50211e-05
1.95237e-05
1.48583e-05
1.74827e-05
1.44801e-05
1.53701e-05
1.39321e-05
1.32375e-05
1.32532e-05
1.11295e-05
1.24717e-05
9.08489e-06
1.16023e-05
7.13888e-06
1.0644e-05
5.32587e-06
9.57925e-06
3.68339e-06
8.37565e-06
2.25708e-06
6.98938e-06
1.10696e-06
5.37138e-06
3.1524e-07
3.475e-06
1.26745e-06
2.69512e-07
-1.5295e-06
9.2695e-07
-3.96818e-06
1.83506e-06
-5.78887e-06
2.87248e-06
-6.99933e-06
3.93358e-06
-7.62917e-06
4.92931e-06
-7.72926e-06
5.78759e-06
-7.36851e-06
6.4528e-06
-6.62777e-06
6.88433e-06
-5.59265e-06
7.0542e-06
-4.34652e-06
6.94413e-06
-2.96436e-06
6.54216e-06
-1.50805e-06
5.83933e-06
-2.31734e-08
4.8264e-06
1.46269e-06
3.49114e-06
2.94012e-06
1.81607e-06
4.41668e-06
-2.22932e-07
5.91444e-06
-2.65714e-06
7.46637e-06
-5.5245e-06
9.11191e-06
-8.86827e-06
1.08922e-05
-1.27348e-05
1.28452e-05
-1.71708e-05
1.50019e-05
-2.22204e-05
1.73834e-05
-2.79219e-05
1.99988e-05
-3.43045e-05
2.28446e-05
-4.13859e-05
2.59051e-05
-4.91691e-05
2.91522e-05
-5.764e-05
3.25465e-05
-6.67656e-05
3.6038e-05
-7.64932e-05
3.95675e-05
-8.67502e-05
4.30682e-05
-9.74464e-05
4.64686e-05
-0.000108477
4.96954e-05
-0.000119727
5.26775e-05
-0.000131078
5.53493e-05
-0.00014241
5.7654e-05
-0.000153613
5.95461e-05
-0.000164586
6.09926e-05
-0.000175242
6.19733e-05
-0.000185508
6.24803e-05
-0.000195331
6.25162e-05
-0.000204667
6.20925e-05
-0.000213489
6.12274e-05
-0.00022178
5.99437e-05
-0.00022953
5.82673e-05
-0.000236736
5.62254e-05
-0.0002434
5.38456e-05
-0.000249527
5.11547e-05
-0.000255123
4.81782e-05
-0.000260195
4.49404e-05
-0.000264749
4.14633e-05
-0.000268792
3.77673e-05
-0.00027233
3.38709e-05
-0.000275367
2.9791e-05
-0.000277907
2.55425e-05
-0.000279953
2.11395e-05
-0.000281506
1.65945e-05
-0.000282565
1.19195e-05
-0.000283128
7.12599e-06
-0.000283191
2.22543e-06
-0.000282748
-2.77028e-06
-0.000281793
-7.84834e-06
-0.000280314
-1.29945e-05
-0.000278299
-1.81924e-05
-0.000275736
-2.34232e-05
-0.000272609
-2.86646e-05
-0.000268899
-3.38906e-05
-0.00026459
-3.90706e-05
-0.000259663
-4.41692e-05
-0.000254099
-4.91454e-05
-0.000247882
-5.3953e-05
-0.000240999
-5.854e-05
-0.00023344
-6.28491e-05
-0.000225203
-6.68188e-05
-0.000216292
-7.0384e-05
-0.000206724
-7.34776e-05
-0.000196525
-7.60331e-05
-0.000185736
-7.79867e-05
-0.000174413
-7.92804e-05
-0.000162628
-7.98653e-05
-0.000150467
-7.97047e-05
-0.000138031
-7.87771e-05
-0.000125433
-7.70792e-05
-0.000112794
-7.46271e-05
-0.000100241
-7.14576e-05
-8.79016e-05
-6.76272e-05
-7.58972e-05
-6.32103e-05
-6.43412e-05
-5.82964e-05
-5.33341e-05
-5.29859e-05
-4.29602e-05
-4.73855e-05
-3.32869e-05
-4.16034e-05
-2.43641e-05
-3.57454e-05
-1.62256e-05
-2.99112e-05
-8.89118e-06
-2.41922e-05
-2.36863e-06
-1.86699e-05
3.34353e-06
-1.34158e-05
8.25437e-06
-8.49109e-06
1.23793e-05
-3.94757e-06
1.57396e-05
1.72611e-07
1.83628e-05
3.8368e-06
2.0283e-05
7.02229e-06
2.15418e-05
9.71701e-06
2.21882e-05
1.19202e-05
2.22789e-05
1.36428e-05
2.18768e-05
1.49072e-05
2.10496e-05
1.57466e-05
1.98678e-05
1.62029e-05
1.84021e-05
1.6324e-05
1.67213e-05
1.61609e-05
1.48901e-05
1.57632e-05
1.29682e-05
1.51751e-05
1.10095e-05
1.44305e-05
9.06242e-06
1.35493e-05
7.17212e-06
1.25343e-05
5.38255e-06
1.13688e-05
3.74045e-06
1.00177e-05
2.30036e-06
8.42947e-06
1.13092e-06
6.54082e-06
3.22507e-07
4.28342e-06
1.58996e-06
2.76068e-07
-1.80557e-06
9.38229e-07
-4.63035e-06
1.83581e-06
-6.68645e-06
2.83643e-06
-7.99995e-06
3.82639e-06
-8.61912e-06
4.71166e-06
-8.61453e-06
5.41797e-06
-8.07482e-06
5.88961e-06
-7.09941e-06
6.08705e-06
-5.79009e-06
5.98365e-06
-4.24313e-06
5.56186e-06
-2.54256e-06
4.80911e-06
-7.55308e-07
3.71403e-06
1.07191e-06
2.26294e-06
2.91377e-06
4.37176e-07
4.76588e-06
-1.78883e-06
6.64268e-06
-4.44828e-06
8.5739e-06
-7.58171e-06
1.05998e-05
-1.12355e-05
1.27657e-05
-1.54592e-05
1.51159e-05
-2.03025e-05
1.76885e-05
-2.58116e-05
2.0511e-05
-3.2025e-05
2.35968e-05
-3.89703e-05
2.69441e-05
-4.66607e-05
3.05349e-05
-5.50915e-05
3.4336e-05
-6.42387e-05
3.82993e-05
-7.40562e-05
4.2364e-05
-8.44765e-05
4.64583e-05
-9.54112e-05
5.05022e-05
-0.000106754
5.44112e-05
-0.000118386
5.81006e-05
-0.000130181
6.14898e-05
-0.00014201
6.45068e-05
-0.000153752
6.70915e-05
-0.000165296
6.91979e-05
-0.000176545
7.07953e-05
-0.00018742
7.18676e-05
-0.000197859
7.24122e-05
-0.000207816
7.24374e-05
-0.000217261
7.19607e-05
-0.000226174
7.10055e-05
-0.000234546
6.95998e-05
-0.000242376
6.77734e-05
-0.000249666
6.55573e-05
-0.000256423
6.29822e-05
-0.000262654
6.00774e-05
-0.000268371
5.68712e-05
-0.000273582
5.33896e-05
-0.000278299
4.96568e-05
-0.00028253
4.56949e-05
-0.000286287
4.15238e-05
-0.000289577
3.71614e-05
-0.00029241
3.26237e-05
-0.000294792
2.79249e-05
-0.00029673
2.30777e-05
-0.000298229
1.80933e-05
-0.000299292
1.29819e-05
-0.000299919
7.75323e-06
-0.00030011
2.41647e-06
-0.000299861
-3.01886e-06
-0.000299167
-8.54264e-06
-0.000298018
-1.41435e-05
-0.000296402
-1.98081e-05
-0.000294305
-2.55207e-05
-0.000291707
-3.12623e-05
-0.000288588
-3.70098e-05
-0.000284923
-4.27356e-05
-0.000280686
-4.84065e-05
-0.000275848
-5.39835e-05
-0.00027038
-5.94209e-05
-0.000264253
-6.46663e-05
-0.000257442
-6.96604e-05
-0.000249923
-7.43376e-05
-0.000241681
-7.86265e-05
-0.000232707
-8.24514e-05
-0.000223006
-8.57343e-05
-0.000212595
-8.83973e-05
-0.00020151
-9.03661e-05
-0.000189802
-9.15733e-05
-0.000177544
-9.19626e-05
-0.000164828
-9.14929e-05
-0.000151765
-9.01422e-05
-0.000138481
-8.79105e-05
-0.000125117
-8.48224e-05
-0.000111817
-8.09272e-05
-9.87284e-05
-7.62984e-05
-8.59943e-05
-7.10306e-05
-7.37446e-05
-6.52356e-05
-6.20935e-05
-5.90366e-05
-5.11347e-05
-5.25622e-05
-4.09399e-05
-4.59401e-05
-3.15589e-05
-3.92923e-05
-2.30208e-05
-3.27302e-05
-1.53379e-05
-2.63528e-05
-8.5086e-06
-2.02451e-05
-2.5212e-06
-1.44785e-05
2.64302e-06
-9.1118e-06
7.00798e-06
-4.19234e-06
1.06017e-05