/*--------------------------------*- C++ -*----------------------------------*\
| =========                 |                                                 |
| \\      /  F ield         | OpenFOAM: The Open Source CFD Toolbox           |
|  \\    /   O peration     | Version:  2406                                  |
|   \\  /    A nd           | Website:  www.openfoam.com                      |
|    \\/     M anipulation  |                                                 |
\*---------------------------------------------------------------------------*/
FoamFile
{
    version     2.0;
    format      ascii;
    arch        "LSB;label=32;scalar=64";
    class       surfaceScalarField;
    location    "38.75";
    object      phi;
}
// * * * * * * * * * * * * * * * * * * * * * * * * * * * * * * * * * * * * * //

dimensions      [0 3 -1 0 0 0 0];

oriented        oriented;

internalField   nonuniform List<scalar> 
7080
(
2.93972e-07
-2.93424e-07
1.61987e-06
-1.33743e-06
3.48994e-06
-1.86763e-06
5.40214e-06
-1.92329e-06
6.98036e-06
-1.57667e-06
8.0547e-06
-1.08178e-06
8.6508e-06
-5.93755e-07
8.87561e-06
-2.28277e-07
8.8807e-06
-1.78536e-09
8.75252e-06
1.2783e-07
8.52213e-06
2.34725e-07
8.12679e-06
3.97913e-07
7.46388e-06
6.69222e-07
6.38924e-06
1.08098e-06
4.75844e-06
1.64071e-06
2.4163e-06
2.35355e-06
-7.82265e-07
3.21355e-06
-4.97854e-06
4.21358e-06
-1.02916e-05
5.33385e-06
-1.68141e-05
6.54677e-06
-2.45836e-05
7.79833e-06
-3.35573e-05
9.00686e-06
-4.35795e-05
1.0059e-05
-5.43679e-05
1.08266e-05
-6.55054e-05
1.11746e-05
-7.64569e-05
1.09849e-05
-8.66005e-05
1.01711e-05
-9.52779e-05
8.69755e-06
-0.000101846
6.57983e-06
-0.000105728
3.88501e-06
-0.000106455
7.20359e-07
-0.0001037
-2.76929e-06
-9.73123e-05
-6.41067e-06
-8.73408e-05
-1.00016e-05
-7.40568e-05
-1.33204e-05
-5.79692e-05
-1.61292e-05
-3.98204e-05
-1.81939e-05
-2.05666e-05
-1.93014e-05
-1.32018e-06
-1.92941e-05
1.67318e-05
-1.8099e-05
3.24515e-05
-1.57626e-05
4.48795e-05
-1.24666e-05
5.33747e-05
-8.52524e-06
5.77049e-05
-4.35275e-06
5.80908e-05
-3.96943e-07
5.51512e-05
2.93627e-06
4.97885e-05
5.37059e-06
4.30007e-05
6.79983e-06
3.57183e-05
7.30215e-06
2.86576e-05
7.07851e-06
2.22874e-05
6.39224e-06
1.68239e-05
5.47866e-06
1.23151e-05
4.52797e-06
8.68151e-06
3.64304e-06
5.79955e-06
2.89741e-06
3.53053e-06
2.27288e-06
1.7767e-06
1.76633e-06
5.54388e-07
1.22184e-06
-7.39851e-08
6.38095e-07
-7.3901e-08
1.2536e-06
-1.536e-06
4.24122e-06
-4.32639e-06
8.05026e-06
-5.65922e-06
1.17879e-05
-5.6591e-06
1.48323e-05
-4.60748e-06
1.68353e-05
-3.08432e-06
1.77729e-05
-1.52431e-06
1.77456e-05
-2.03765e-07
1.69296e-05
8.15252e-07
1.53913e-05
1.66048e-06
1.30898e-05
2.53227e-06
9.81708e-06
3.66136e-06
5.27996e-06
5.19648e-06
-8.87848e-07
7.23354e-06
-9.04893e-06
9.78355e-06
-1.9551e-05
1.28313e-05
-3.26721e-05
1.63058e-05
-4.85894e-05
2.00965e-05
-6.72905e-05
2.39959e-05
-8.85042e-05
2.77152e-05
-0.000111654
3.08958e-05
-0.000135896
3.31871e-05
-0.000160195
3.42899e-05
-0.000183449
3.40103e-05
-0.000204601
3.22567e-05
-0.000222719
2.90401e-05
-0.000237042
2.44423e-05
-0.00024699
1.86071e-05
-0.000252146
1.17149e-05
-0.000252248
3.98265e-06
-0.000247165
-4.34867e-06
-0.000236899
-1.30036e-05
-0.000221585
-2.16768e-05
-0.000201505
-3.00184e-05
-0.000177107
-3.76425e-05
-0.000149026
-4.41241e-05
-0.000118098
-4.90295e-05
-8.53622e-05
-5.19409e-05
-5.20393e-05
-5.25201e-05
-1.94867e-05
-5.05592e-05
1.08927e-05
-4.60566e-05
3.77497e-05
-3.9251e-05
5.99268e-05
-3.06439e-05
7.65667e-05
-2.0954e-05
8.72256e-05
-1.10348e-05
9.19177e-05
-1.75574e-06
9.11401e-05
6.1342e-06
8.5804e-05
1.21065e-05
7.71362e-05
1.59362e-05
6.64749e-05
1.76991e-05
5.50943e-05
1.77377e-05
4.40008e-05
1.65346e-05
3.38832e-05
1.46189e-05
2.50747e-05
1.24217e-05
1.76723e-05
1.02832e-05
1.15974e-05
8.32479e-06
6.75725e-06
6.59898e-06
3.12206e-06
4.83917e-06
7.93199e-07
2.96676e-06
7.09321e-07
1.85419e-06
-3.39003e-06
5.83129e-06
-8.32141e-06
1.0636e-05
-1.04617e-05
1.50673e-05
-1.01055e-05
1.84007e-05
-7.94058e-06
2.02078e-05
-4.90065e-06
2.04388e-05
-1.75327e-06
1.91353e-05
1.09653e-06
1.63894e-05
3.5658e-06
1.21256e-05
5.92616e-06
6.12189e-06
8.54338e-06
-2.03785e-06
1.1828e-05
-1.28468e-05
1.60171e-05
-2.68346e-05
2.12347e-05
-4.44535e-05
2.7421e-05
-6.60072e-05
3.44075e-05
-9.14987e-05
4.18256e-05
-0.000120519
4.91492e-05
-0.000152194
5.57073e-05
-0.000185288
6.08503e-05
-0.000218392
6.4045e-05
-0.000250136
6.49831e-05
-0.000279346
6.35569e-05
-0.000305115
5.98391e-05
-0.0003268
5.39999e-05
-0.000343981
4.62749e-05
-0.000356406
3.69111e-05
-0.000363934
2.61666e-05
-0.000366491
1.42901e-05
-0.000364047
1.54186e-06
-0.000356598
-1.181e-05
-0.000344172
-2.54584e-05
-0.000326838
-3.90544e-05
-0.000304737
-5.21758e-05
-0.000278117
-6.43321e-05
-0.000247369
-7.49504e-05
-0.000213071
-8.34123e-05
-0.000176019
-8.90812e-05
-0.000137234
-9.13927e-05
-9.79499e-05
-8.99283e-05
-5.9544e-05
-8.45389e-05
-2.34532e-05
-7.54077e-05
8.96272e-06
-6.31102e-05
3.65334e-05
-4.85602e-05
5.83978e-05
-3.29163e-05
7.40505e-05
-1.74119e-05
8.33919e-05
-3.19464e-06
8.67167e-05
8.80144e-06
8.47324e-05
1.79501e-05
7.84841e-05
2.39759e-05
6.9272e-05
2.6983e-05
5.84274e-05
2.74049e-05
4.71605e-05
2.59153e-05
3.63562e-05
2.32442e-05
2.65953e-05
2.00686e-05
1.81226e-05
1.68071e-05
1.10682e-05
1.36738e-05
5.48032e-06
1.04281e-05
1.63543e-06
6.82998e-06
2.34606e-06
2.23771e-06
-5.61678e-06
6.70686e-06
-1.27982e-05
1.17303e-05
-1.54694e-05
1.58833e-05
-1.42619e-05
1.84287e-05
-1.04754e-05
1.89397e-05
-5.41431e-06
1.73618e-05
-1.70597e-07
1.36362e-05
4.81804e-06
7.67625e-06
9.52543e-06
-8.43475e-07
1.44396e-05
-1.24074e-05
2.01024e-05
-2.76493e-05
2.70606e-05
-4.71702e-05
3.55284e-05
-7.14282e-05
4.54794e-05
-0.000100529
5.65069e-05
-0.000134076
6.7935e-05
-0.000171069
7.87951e-05
-0.000210035
8.80868e-05
-0.000249298
9.49384e-05
-0.000287301
9.88181e-05
-0.000322804
9.9508e-05
-0.000354944
9.70804e-05
-0.000383192
9.17585e-05
-0.000407263
8.38635e-05
-0.00042703
7.37215e-05
-0.000442452
6.16577e-05
-0.000453527
4.7954e-05
-0.000460256
3.28744e-05
-0.000462627
1.66492e-05
-0.000460598
-4.86266e-07
-0.000454102
-1.82934e-05
-0.000443051
-3.64843e-05
-0.000427353
-5.4716e-05
-0.000406939
-7.25432e-05
-0.000381796
-8.94178e-05
-0.000352025
-0.000104658
-0.000317888
-0.00011748
-0.000279876
-0.000127021
-0.000238754
-0.000132442
-0.000195593
-0.00013302
-0.000151737
-0.000128331
-0.000108731
-0.000118359
-6.8164e-05
-0.000103632
-3.15035e-05
-8.5189e-05
8.90804e-08
-6.44883e-05
2.58341e-05
-4.31508e-05
4.5361e-05
-2.2724e-05
5.86299e-05
-4.48182e-06
6.5914e-05
1.06488e-05
6.77606e-05
2.21043e-05
6.50346e-05
2.96877e-05
5.88243e-05
3.35885e-05
5.0372e-05
3.43498e-05
4.08258e-05
3.27665e-05
3.11751e-05
2.97085e-05
2.20661e-05
2.58953e-05
1.39874e-05
2.17497e-05
7.21266e-06
1.71825e-05
2.28974e-06
1.17577e-05
4.62276e-06
2.45852e-06
-8.07171e-06
7.00979e-06
-1.73661e-05
1.16171e-05
-2.00693e-05
1.46902e-05
-1.73463e-05
1.55279e-05
-1.13091e-05
1.37445e-05
-3.63668e-06
9.2726e-06
4.30512e-06
1.9098e-06
1.218e-05
-8.67566e-06
2.01161e-05
-2.30967e-05
2.8864e-05
-4.20585e-05
3.90718e-05
-6.62358e-05
5.12456e-05
-9.59816e-05
6.52851e-05
-0.000131125
8.06354e-05
-0.000170781
9.61775e-05
-0.000213419
0.00011059
-0.000257153
0.00012255
-0.000300172
0.000131129
-0.000341026
0.00013582
-0.00037874
0.000136562
-0.000412743
0.000133544
-0.000442764
0.000127138
-0.000468721
0.000117752
-0.000490636
0.000105815
-0.000508587
9.17052e-05
-0.000522667
7.57663e-05
-0.000532966
5.82734e-05
-0.000539551
3.94709e-05
-0.00054245
1.95511e-05
-0.000541648
-1.2951e-06
-0.000537071
-2.28866e-05
-0.000528587
-4.49938e-05
-0.000516004
-6.73339e-05
-0.000499082
-8.95068e-05
-0.000477561
-0.000110987
-0.000451207
-0.000131066
-0.000419873
-0.00014887
-0.000383598
-0.000163354
-0.000342703
-0.000173393
-0.000297897
-0.000177881
-0.00025033
-0.000175947
-0.000201595
-0.000167138
-0.000153594
-0.000151667
-0.000108321
-0.000130489
-6.75374e-05
-0.000105287
-3.25227e-05
-7.81734e-05
-3.92871e-06
-5.13143e-05
1.81132e-05
-2.65155e-05
3.38336e-05
-5.05439e-06
4.36371e-05
1.23171e-05
4.8113e-05
2.52342e-05
4.80162e-05
3.37013e-05
4.43384e-05
3.80494e-05
3.81473e-05
3.89688e-05
3.05537e-05
3.73218e-05
2.24527e-05
3.40009e-05
1.46518e-05
2.95696e-05
7.71486e-06
2.41161e-05
2.48468e-06
1.70084e-05
7.10698e-06
2.55268e-06
-1.06158e-05
6.72937e-06
-2.1553e-05
1.02021e-05
-2.35301e-05
1.13357e-05
-1.84855e-05
9.53407e-06
-9.50123e-06
4.47168e-06
1.42183e-06
-3.98163e-06
1.27598e-05
-1.62372e-05
2.44311e-05
-3.29076e-05
3.67839e-05
-5.48136e-05
5.0764e-05
-8.26282e-05
6.68805e-05
-0.000116604
8.52134e-05
-0.000156242
0.000104914
-0.000200229
0.000124611
-0.00024662
0.000142554
-0.000293308
0.000157263
-0.000338468
0.000167691
-0.000380792
0.000173432
-0.00041948
0.000174485
-0.000454132
0.000171189
-0.000484613
0.000163997
-0.000510959
0.000153454
-0.000533307
0.000140069
-0.000551856
0.000124335
-0.000566835
0.000106658
-0.000578482
8.73914e-05
-0.000587021
6.67959e-05
-0.000592644
4.50856e-05
-0.000595495
2.24005e-05
-0.000595649
-1.13459e-06
-0.000593097
-2.54256e-05
-0.000587728
-5.03419e-05
-0.000579318
-7.57166e-05
-0.000567523
-0.000101269
-0.000551881
-0.000126592
-0.000531837
-0.000151069
-0.000506798
-0.000173866
-0.000476229
-0.00019388
-0.00043978
-0.000209798
-0.000397466
-0.000220152
-0.000349843
-0.00022353
-0.000298143
-0.000218802
-0.000244304
-0.000205476
-0.000190813
-0.000183958
-0.000140335
-0.00015575
-9.52109e-05
-0.000123292
-5.69748e-05
-8.95498e-05
-2.61919e-05
-5.73067e-05
-2.62526e-06
-2.86303e-05
1.43278e-05
-4.65199e-06
2.53804e-05
1.41693e-05
3.12268e-05
2.78368e-05
3.26754e-05
3.65904e-05
3.0612e-05
4.10147e-05
2.60741e-05
4.18539e-05
2.00285e-05
4.00295e-05
1.34707e-05
3.61275e-05
7.21548e-06
3.03526e-05
2.33057e-06
2.18997e-05
9.42506e-06
2.45632e-06
-1.30679e-05
5.71932e-06
-2.48271e-05
7.31155e-06
-2.51153e-05
5.69632e-06
-1.68758e-05
4.22872e-07
-4.22389e-06
-8.79837e-06
1.06422e-05
-2.22312e-05
2.61962e-05
-4.05157e-05
4.27183e-05
-6.44423e-05
6.07151e-05
-9.4733e-05
8.10604e-05
-0.000131536
0.00010369
-0.000174139
0.000127824
-0.000220895
0.000151679
-0.000269585
0.000173311
-0.000317946
0.000190927
-0.000364145
0.000203476
-0.000406931
0.000210491
-0.00044558
0.000212099
-0.000479759
0.000208682
-0.000509406
0.000200855
-0.000534639
0.00018925
-0.000555708
0.000174545
-0.000572948
0.00015733
-0.000586745
0.000138153
-0.000597503
0.000117433
-0.000605617
9.5519e-05
-0.000611449
7.26354e-05
-0.000615309
4.89484e-05
-0.000617442
2.453e-05
-0.000618014
-5.71496e-07
-0.000617098
-2.63574e-05
-0.000614654
-5.2806e-05
-0.000610511
-7.98855e-05
-0.000604338
-0.000107472
-0.000595623
-0.000135342
-0.000583657
-0.000163072
-0.000567546
-0.000190016
-0.000546261
-0.000215205
-0.000518757
-0.000237342
-0.000484156
-0.000254791
-0.000442012
-0.000265709
-0.000392605
-0.00026824
-0.000337198
-0.000260906
-0.000278151
-0.000243023
-0.000218733
-0.000215178
-0.000162595
-0.000179437
-0.000112933
-0.00013921
-7.17326e-05
-9.85041e-05
-3.94403e-05
-6.09132e-05
-1.53694e-05
-2.87148e-05
1.64009e-06
-2.82619e-06
1.26709e-05
1.6815e-05
1.86875e-05
3.0589e-05
2.05515e-05
3.91573e-05
1.9219e-05
4.32013e-05
1.56386e-05
4.36121e-05
1.08707e-05
4.09108e-05
5.89066e-06
3.53293e-05
1.87238e-06
2.59351e-05
1.12972e-05
2.05996e-06
-1.51247e-05
3.73553e-06
-2.65088e-05
2.6338e-06
-2.401e-05
-2.52494e-06
-1.17197e-05
-1.20422e-05
5.2926e-06
-2.62187e-05
2.48167e-05
-4.54967e-05
4.54703e-05
-7.06499e-05
6.78686e-05
-0.000102355
9.24145e-05
-0.000140756
0.000119457
-0.000185012
0.000147938
-0.000233293
0.000176099
-0.000283174
0.00020155
-0.000332259
0.000222388
-0.000378641
0.000237297
-0.000421042
0.000245865
-0.000458731
0.000248166
-0.000491391
0.000244744
-0.000519009
0.000236284
-0.000541802
0.000223632
-0.000560158
0.000207588
-0.000574576
0.000188947
-0.000585613
0.000168351
-0.000593835
0.000146362
-0.00059978
0.000123366
-0.00060393
9.96634e-05
-0.000606704
7.54074e-05
-0.000608448
5.06971e-05
-0.000609442
2.55315e-05
-0.000609889
-1.0967e-07
-0.000609924
-2.63041e-05
-0.000609593
-5.31143e-05
-0.000608836
-8.06167e-05
-0.000607451
-0.000108826
-0.000605056
-0.000137705
-0.000601029
-0.000167066
-0.000594469
-0.000196544
-0.00058417
-0.000225472
-0.000568656
-0.000252825
-0.000546304
-0.000277116
-0.000515579
-0.000296409
-0.000475404
-0.000308396
-0.000425605
-0.000310687
-0.000367362
-0.000301253
-0.000303447
-0.000279082
-0.000238074
-0.000244805
-0.000176141
-0.00020114
-0.000122009
-0.000152641
-7.8229e-05
-0.000104697
-4.51187e-05
-6.1835e-05
-2.13687e-05
-2.65833e-05
-5.21132e-06
6.45414e-07
4.93144e-06
2.044e-05
1.02613e-05
3.38149e-05
1.18447e-05
4.16145e-05
1.06631e-05
4.4781e-05
7.7946e-06
4.37796e-05
4.29519e-06
3.8815e-05
1.33513e-06
2.88989e-05
1.26231e-05
1.26585e-06
-1.63899e-05
6.33613e-07
-2.58751e-05
-3.90672e-06
-1.947e-05
-1.32515e-05
-2.37001e-06
-2.75974e-05
1.96377e-05
-4.72936e-05
4.45196e-05
-7.29103e-05
7.10874e-05
-0.000105096
0.000100062
-0.000143996
0.000131317
-0.000188785
0.000164255
-0.00023757
0.000196726
-0.000287797
0.000226335
-0.000336927
0.000250686
-0.000382922
0.000268393
-0.000424413
0.000278796
-0.000460612
0.000282076
-0.000491203
0.000278767
-0.000516233
0.000269787
-0.000536043
0.000256105
-0.000551181
0.000238785
-0.000562325
0.000218745
-0.000570193
0.000196829
-0.000575485
0.000173654
-0.000578832
0.00014972
-0.000580777
0.000125319
-0.000581768
0.00010066
-0.000582166
7.58056e-05
-0.000582256
5.07842e-05
-0.000582266
2.5533e-05
-0.000582374
-1.18603e-08
-0.000582725
-2.59686e-05
-0.00058342
-5.24373e-05
-0.00058451
-7.95479e-05
-0.000585965
-0.000107393
-0.000587634
-0.00013606
-0.000589173
-0.000165551
-0.00058997
-0.000195772
-0.000589047
-0.000226419
-0.000584997
-0.000256898
-0.00057597
-0.000286165
-0.000559774
-0.000312627
-0.000534145
-0.000334044
-0.000497225
-0.000347624
-0.000448202
-0.000350291
-0.000387996
-0.000339298
-0.00031974
-0.000313066
-0.000248692
-0.000272188
-0.000181264
-0.000220067
-0.000123194
-0.000162761
-7.76744e-05
-0.00010735
-4.46972e-05
-5.95516e-05
-2.21969e-05
-2.18499e-05
-7.66531e-06
5.91845e-06
9.08542e-07
2.5245e-05
5.06015e-06
3.74732e-05
5.99637e-06
4.38464e-05
4.86786e-06
4.49187e-05
2.77882e-06
4.09027e-05
8.37659e-07
3.08513e-05
1.34617e-05
-2.74214e-08
-1.63688e-05
-3.6981e-06
-2.21973e-05
-1.23195e-05
-1.08601e-05
-2.63331e-05
1.165e-05
-4.58913e-05
3.91843e-05
-7.13637e-05
6.99959e-05
-0.000103272
0.000102984
-0.000141788
0.000138579
-0.000186205
0.000175724
-0.00023468
0.000212728
-0.000284627
0.000246663
-0.00033335
0.000275054
-0.00037865
0.000295976
-0.000419005
0.000308742
-0.000453552
0.000313332
-0.000481955
0.000310472
-0.000504339
0.00030114
-0.000521176
0.000286617
-0.000533195
0.000268113
-0.000541245
0.000246827
-0.000546201
0.000223691
-0.000548869
0.00019949
-0.000549947
0.000174725
-0.000549994
0.000149762
-0.000549441
0.000124762
-0.000548605
9.9825e-05
-0.000547722
7.49246e-05
-0.000546962
5.00306e-05
-0.000546462
2.50417e-05
-0.000546339
-1.22156e-07
-0.000546707
-2.55863e-05
-0.000547676
-5.14495e-05
-0.000549359
-7.78453e-05
-0.000551848
-0.000104883
-0.00055519
-0.000132696
-0.000559334
-0.000161383
-0.000564054
-0.000191028
-0.000568841
-0.000221608
-0.000572769
-0.000252947
-0.000574362
-0.00028455
-0.000571516
-0.000315453
-0.000561543
-0.000344
-0.000541447
-0.000367707
-0.000508484
-0.000383245
-0.000461024
-0.000386753
-0.000399551
-0.000374538
-0.000327475
-0.000344262
-0.000251204
-0.00029634
-0.000178891
-0.000235076
-0.000117841
-0.000168404
-7.17484e-05
-0.000105648
-4.00034e-05
-5.36026e-05
-1.95476e-05
-1.45414e-05
-7.20068e-06
1.28899e-05
-4.97561e-07
3.07675e-05
2.32119e-06
4.10192e-05
2.65277e-06
4.45865e-05
1.69689e-06
4.18498e-05
5.20269e-07
3.20288e-05
1.3976e-05
-1.82271e-06
-1.45536e-05
-9.12159e-06
-1.4876e-05
-2.22276e-05
2.23046e-06
-4.11176e-05
3.05604e-05
-6.59403e-05
6.39969e-05
-9.69715e-05
0.000101044
-0.00013443
0.000140437
-0.000177729
0.000181893
-0.000225254
0.000223247
-0.000274433
0.00026192
-0.000322497
0.000294727
-0.000367022
0.00031959
-0.000406327
0.000335284
-0.000439415
0.00034184
-0.00046594
0.000339862
-0.000486076
0.000330618
-0.00050044
0.00031551
-0.000509918
0.000296106
-0.000515538
0.00027374
-0.000518302
0.0002496
-0.000519111
0.000224506
-0.000518691
0.000199077
-0.000517595
0.000173632
-0.000516206
0.000148377
-0.000514781
0.000123337
-0.000513474
9.85172e-05
-0.000512382
7.38271e-05
-0.000511563
4.92051e-05
-0.00051107
2.45378e-05
-0.000510956
-2.48017e-07
-0.000511296
-2.52619e-05
-0.000512183
-5.05786e-05
-0.000513741
-7.63071e-05
-0.000516108
-0.000102535
-0.000519438
-0.000129387
-0.000523861
-0.00015698
-0.000529447
-0.000185462
-0.000536116
-0.000214958
-0.000543519
-0.000245561
-0.000550869
-0.000277215
-0.000556748
-0.000309588
-0.000558934
-0.000341824
-0.00055437
-0.00037228
-0.000539382
-0.00039824
-0.000510312
-0.000415829
-0.000464591
-0.000420264
-0.000402131
-0.000406725
-0.00032658
-0.000371892
-0.000245631
-0.000316023
-0.000169437
-0.000244595
-0.000106902
-0.000168177
-6.18509e-05
-9.86497e-05
-3.25546e-05
-4.38316e-05
-1.48858e-05
-4.77608e-06
-5.04295e-06
2.09311e-05
-3.01414e-07
3.62793e-05
1.27823e-06
4.30137e-05
1.1364e-06
4.19916e-05
4.05143e-07
3.27672e-05
1.43825e-05
-4.09457e-06
-1.04783e-05
-1.54383e-05
-3.50404e-06
-3.31943e-05
1.99532e-05
-5.69002e-05
5.42872e-05
-8.6684e-05
9.37551e-05
-0.000122555
0.000136928
-0.000164211
0.000182073
-0.000210223
0.000227911
-0.00025828
0.000271288
-0.000305507
0.000309149
-0.000349348
0.000338555
-0.000387856
0.000358098
-0.000419918
0.000367334
-0.000445091
0.000367011
-0.000463604
0.000358365
-0.000476156
0.000343168
-0.000483803
0.000323148
-0.000487703
0.000300002
-0.000488993
0.000275022
-0.000488634
0.000249237
-0.000487383
0.000223249
-0.000485766
0.000197457
-0.000484124
0.000171986
-0.000482641
0.000146894
-0.000481406
0.000122102
-0.000480439
9.75537e-05
-0.000479738
7.313e-05
-0.000479288
4.8763e-05
-0.00047909
2.43477e-05
-0.000479157
-1.69308e-07
-0.000479534
-2.48724e-05
-0.000480291
-4.98064e-05
-0.000481535
-7.50478e-05
-0.000483403
-0.00010065
-0.000486068
-0.000126706
-0.000489725
-0.000153306
-0.000494578
-0.000180592
-0.000500796
-0.000208726
-0.000508435
-0.000237907
-0.000517313
-0.000268324
-0.000526816
-0.000300073
-0.000535643
-0.000332986
-0.000541558
-0.000366355
-0.000541238
-0.000398552
-0.000530424
-0.000426637
-0.000504571
-0.000446113
-0.000460142
-0.000451152
-0.000396442
-0.000435594
-0.000317432
-0.000395036
-0.000232361
-0.00032967
-0.000153655
-0.000246886
-9.16391e-05
-0.000160668
-4.94741e-05
-8.5999e-05
-2.37891e-05
-3.0466e-05
-9.39622e-06
6.53571e-06
-2.20696e-06
2.90847e-05
6.39426e-07
4.01663e-05
1.07697e-06
4.15481e-05
4.91959e-07
3.33526e-05
1.48701e-05
-6.67388e-06
-3.82269e-06
-2.21816e-05
1.20522e-05
-4.44336e-05
4.21692e-05
-7.25676e-05
8.24602e-05
-0.000106624
0.000127789
-0.000146178
0.000176511
-0.000190307
0.000226189
-0.00023686
0.000274485
-0.000283169
0.00031759
-0.000326431
0.000352428
-0.00036454
0.00037666
-0.000396105
0.000389677
-0.000420621
0.00039185
-0.00043824
0.000384641
-0.000449758
0.000369885
-0.000456309
0.000349729
-0.000459209
0.00032605
-0.000459679
0.000300481
-0.000458766
0.000274112
-0.000457232
0.000247709
-0.000455595
0.000221614
-0.000454139
0.000196006
-0.000453001
0.000170847
-0.000452198
0.000146092
-0.000451703
0.000121603
-0.000451453
9.73018e-05
-0.000451397
7.30669e-05
-0.000451484
4.8844e-05
-0.000451694
2.45483e-05
-0.000452023
1.49863e-07
-0.000452499
-2.44097e-05
-0.000453169
-4.91486e-05
-0.000454118
-7.41138e-05
-0.000455455
-9.93281e-05
-0.00045733
-0.000124847
-0.000459927
-0.000150724
-0.000463476
-0.000177059
-0.000468229
-0.000203987
-0.000474442
-0.000231708
-0.000482295
-0.000260483
-0.000491768
-0.000290611
-0.000502416
-0.000322347
-0.00051308
-0.000355698
-0.000521533
-0.000390103
-0.000524241
-0.000423931
-0.000516411
-0.000453945
-0.000492663
-0.0004749
-0.000448541
-0.000479716
-0.00038285
-0.000460728
-0.000300142
-0.00041238
-0.000211676
-0.00033535
-0.000132425
-0.000239916
-7.3481e-05
-0.000144938
-3.61518e-05
-6.77921e-05
-1.49809e-05
-1.4632e-05
-4.21879e-06
1.83242e-05
2.90285e-07
3.56615e-05
1.2985e-06
4.05398e-05
7.01399e-07
3.39552e-05
1.55723e-05
-9.39727e-06
5.54191e-06
-2.89383e-05
3.16447e-05
-5.52818e-05
6.84558e-05
-8.71893e-05
0.000114405
-0.000124525
0.000165085
-0.000166341
0.000218349
-0.000211139
0.000270957
-0.000256292
0.00031965
-0.000299114
0.000360391
-0.000337129
0.000390449
-0.000368793
0.000408308
-0.000393316
0.000414202
-0.000410817
0.000409338
-0.000422018
0.000395843
-0.000428167
0.000376023
-0.000430641
0.000352202
-0.000430798
0.000326198
-0.000429724
0.000299406
-0.000428238
0.000272618
-0.000426828
0.000246298
-0.000425764
0.000220545
-0.000425122
0.000195364
-0.000424888
0.00017061
-0.000424977
0.000146184
-0.000425306
0.000121932
-0.000425781
9.77812e-05
-0.000426338
7.36277e-05
-0.000426924
4.94379e-05
-0.00042752
2.51512e-05
-0.000428118
7.585e-07
-0.000428742
-2.37765e-05
-0.000429425
-4.84535e-05
-0.000430229
-7.32975e-05
-0.000431233
-9.83112e-05
-0.000432546
-0.000123521
-0.000434306
-0.000148951
-0.000436699
-0.000174654
-0.000439956
-0.000200718
-0.000444367
-0.000227286
-0.00045025
-0.00025459
-0.000457902
-0.000282951
-0.00046745
-0.000312792
-0.00047862
-0.000344522
-0.000490369
-0.00037835
-0.000500465
-0.000413832
-0.000505124
-0.000449282
-0.000499014
-0.000481008
-0.000475947
-0.000502781
-0.000430675
-0.000506
-0.000361795
-0.000481263
-0.000275009
-0.000422141
-0.000184296
-0.000330632
-0.000107243
-0.000221992
-5.42893e-05
-0.000120745
-2.33929e-05
-4.55314e-05
-7.35675e-06
2.28514e-06
-3.45699e-07
2.8649e-05
1.52305e-06
3.86667e-05
9.46603e-07
3.45326e-05
1.65154e-05
-1.19858e-05
1.74993e-05
-3.51208e-05
5.48525e-05
-6.48879e-05
9.81666e-05
-9.96837e-05
0.000149257
-0.000139122
0.000204489
-0.000181726
0.000260992
-0.000225574
0.000314785
-0.00026784
0.000361944
-0.000306077
0.000398616
-0.000338279
0.000422671
-0.000363514
0.000433538
-0.000381596
0.0004323
-0.000393235
0.000420975
-0.0003996
0.000402221
-0.0004022
0.000378623
-0.000402435
0.000352447
-0.000401521
0.000325284
-0.000400285
0.000298178
-0.000399264
0.000271597
-0.000398684
0.000245725
-0.000398616
0.000220476
-0.000398989
0.00019574
-0.000399708
0.000171328
-0.000400645
0.000147122
-0.000401703
0.000122986
-0.000402788
9.88646e-05
-0.000403848
7.46809e-05
-0.000404837
5.04229e-05
-0.000405748
2.60531e-05
-0.000406575
1.57883e-06
-0.000407344
-2.30183e-05
-0.00040808
-4.77263e-05
-0.000408834
-7.25549e-05
-0.00040966
-9.74962e-05
-0.000410634
-0.000122558
-0.000411848
-0.000147747
-0.000413429
-0.000173084
-0.000415543
-0.000198615
-0.00041842
-0.000224418
-0.000422362
-0.000250656
-0.000427745
-0.000277574
-0.000434962
-0.000305582
-0.000444291
-0.000335199
-0.000455607
-0.000367037
-0.000467969
-0.000401473
-0.000479061
-0.000438191
-0.000484764
-0.000475305
-0.000479097
-0.000508445
-0.000455073
-0.000530023
-0.00040684
-0.000529492
-0.000333336
-0.000495649
-0.000242331
-0.000421636
-0.00015144
-0.000312885
-8.02846e-05
-0.000191894
-3.60797e-05
-8.97333e-05
-1.26419e-05
-2.1151e-05
-1.88349e-06
1.78922e-05
1.43992e-06
3.53435e-05
1.12341e-06
3.4853e-05
1.76392e-05
-1.42549e-05
3.17111e-05
-4.03605e-05
8.10285e-05
-7.27373e-05
0.000130467
-0.000109422
0.000185992
-0.000149743
0.000244759
-0.000191785
0.000303064
-0.000233394
0.000356357
-0.00027179
0.000400358
-0.00030493
0.000431729
-0.000331342
0.000449094
-0.00035071
0.000452886
-0.000363405
0.000445001
-0.000370617
0.000428171
-0.000373778
0.000405384
-0.000374447
0.00037928
-0.000373872
0.000351873
-0.000373012
0.000324414
-0.000372398
0.000297564
-0.000372307
0.000271498
-0.000372762
0.00024618
-0.000373705
0.000221413
-0.00037499
0.000197027
-0.000376496
0.000172831
-0.000378092
0.000148721
-0.000379693
0.000124588
-0.000381222
0.000100398
-0.000382643
7.61049e-05
-0.000383926
5.17126e-05
-0.000385072
2.72046e-05
-0.000386084
2.59901e-06
-0.000386988
-2.21076e-05
-0.000387808
-4.6897e-05
-0.000388586
-7.17676e-05
-0.000389364
-9.67083e-05
-0.000390197
-0.000121716
-0.000391142
-0.000146792
-0.00039228
-0.000171937
-0.000393711
-0.000197176
-0.000395585
-0.000222537
-0.000398114
-0.00024812
-0.000401613
-0.00027407
-0.000406493
-0.000300697
-0.000413243
-0.000328445
-0.000422266
-0.000358012
-0.000433584
-0.000390155
-0.000446286
-0.000425488
-0.000457894
-0.000463697
-0.000463779
-0.000502558
-0.000457181
-0.000536621
-0.000430285
-0.000556385
-0.00037699
-0.000548946
-0.00029744
-0.000501191
-0.000202848
-0.000407483
-0.000115335
-0.000279411
-5.43213e-05
-0.000150741
-2.07673e-05
-5.47053e-05
-4.7872e-06
1.9082e-06
8.40325e-07
2.97147e-05
1.16881e-06
3.45237e-05
1.88061e-05
-1.59628e-05
4.76389e-05
-4.42209e-05
0.000109376
-7.82777e-05
0.000164453
-0.000115813
0.000223596
-0.00015588
0.000284784
-0.000196254
0.000343484
-0.000234739
0.000394816
-0.000268781
0.000434433
-0.00029682
0.000459753
-0.000317934
0.000470232
-0.000332366
0.000467311
-0.000340953
0.000453607
-0.000345193
0.000432407
-0.000346588
0.000406794
-0.000346579
0.000379269
-0.000346156
0.000351461
-0.00034599
0.000324247
-0.000346341
0.000297925
-0.000347293
0.000272449
-0.000348736
0.00024763
-0.000350552
0.000223228
-0.000352574
0.000199053
-0.000354687
0.000174942
-0.000356775
0.000150811
-0.000358777
0.000126586
-0.000360632
0.000102252
-0.000362321
7.77884e-05
-0.000363823
5.32112e-05
-0.000365147
2.8522e-05
-0.000366299
3.74606e-06
-0.000367308
-2.11064e-05
-0.000368198
-4.60142e-05
-0.000369008
-7.09654e-05
-0.000369774
-9.59499e-05
-0.000370542
-0.000120957
-0.000371352
-0.000145991
-0.000372255
-0.000171041
-0.000373308
-0.00019613
-0.000374595
-0.000221255
-0.000376241
-0.000246481
-0.000378453
-0.000271862
-0.000381545
-0.000297609
-0.000385981
-0.000324013
-0.000392323
-0.000351672
-0.000401106
-0.000381374
-0.000412433
-0.000414161
-0.000425368
-0.000450764
-0.000437082
-0.000490843
-0.000442248
-0.000531455
-0.000433118
-0.000565509
-0.000401141
-0.000580922
-0.000340541
-0.000561787
-0.00025406
-0.000493973
-0.000158163
-0.000375307
-7.93673e-05
-0.000229539
-3.21878e-05
-0.000101869
-9.34787e-06
-2.09403e-05
-3.86737e-07
2.07591e-05
1.05591e-06
3.30797e-05
1.98638e-05
-1.70252e-05
6.4615e-05
-4.65692e-05
0.000139001
-8.13807e-05
0.000199177
-0.000118798
0.000261072
-0.000157645
0.000323572
-0.000195537
0.00038141
-0.000230391
0.000429628
-0.000259988
0.000464051
-0.000283276
0.000483012
-0.000299844
0.000486812
-0.000310412
0.000477855
-0.000316134
0.000459337
-0.000318645
0.000434898
-0.000319353
0.000407506
-0.000319479
0.00037938
-0.000319719
0.000351703
-0.000320485
0.000325001
-0.00032183
0.000299271
-0.000323714
0.000274324
-0.000325965
0.000249882
-0.00032845
0.000225707
-0.000331011
0.000201616
-0.000333558
0.000177486
-0.000335996
0.000153252
-0.000338284
0.000128873
-0.000340377
0.000104349
-0.000342266
7.96791e-05
-0.000343937
5.48874e-05
-0.000345404
2.99919e-05
-0.000346673
5.02163e-06
-0.000347774
-1.99995e-05
-0.000348732
-4.50494e-05
-0.000349586
-7.01053e-05
-0.000350368
-9.51604e-05
-0.000351122
-0.000120196
-0.000351882
-0.000145225
-0.000352686
-0.00017023
-0.000353567
-0.000195244
-0.000354569
-0.000220247
-0.00035575
-0.000245295
-0.000357221
-0.000270386
-0.00035917
-0.000295657
-0.000361936
-0.000321244
-0.000366018
-0.000347588
-0.00037209
-0.000375302
-0.000380775
-0.000405475
-0.000392237
-0.000439304
-0.000405334
-0.000477745
-0.000416694
-0.000520098
-0.000419974
-0.000562225
-0.000406327
-0.000594571
-0.000366681
-0.000601424
-0.000296722
-0.000563945
-0.000203753
-0.000468271
-0.000111559
-0.000321756
-4.7712e-05
-0.000165691
-1.56067e-05
-5.30563e-05
-2.34243e-06
7.49801e-06
8.1005e-07
2.99223e-05
2.06745e-05
-1.73288e-05
8.19067e-05
-4.72415e-05
0.000169009
-8.19077e-05
0.000233768
-0.000118344
0.000297582
-0.000155209
0.000360391
-0.000190096
0.000416347
-0.00022114
0.000460644
-0.000246514
0.000489461
-0.000265644
0.000502125
-0.000278556
0.000499753
-0.000286326
0.000485615
-0.000290276
0.00046331
-0.000292019
0.000436636
-0.00029277
0.000408275
-0.000293485
0.000380093
-0.000294593
0.000352825
-0.000296302
0.000326708
-0.00029853
0.00030151
-0.000301176
0.000276969
-0.00030405
0.000252765
-0.000307036
0.000228691
-0.000309996
0.000204582
-0.000312867
0.000180355
-0.000315573
0.00015596
-0.000318088
0.000131386
-0.000320376
0.000106636
-0.000322433
8.17326e-05
-0.000324248
5.67008e-05
-0.000325836
3.1575e-05
-0.000327205
6.38627e-06
-0.000328382
-1.88274e-05
-0.000329393
-4.4044e-05
-0.000330275
-6.92285e-05
-0.000331063
-9.43785e-05
-0.000331799
-0.000119465
-0.000332517
-0.000144513
-0.000333255
-0.000169497
-0.000334037
-0.000194467
-0.000334894
-0.000219394
-0.000335844
-0.00024435
-0.000336938
-0.000269296
-0.000338257
-0.000294341
-0.00034
-0.000319503
-0.00034251
-0.000345079
-0.000346373
-0.000371441
-0.000352343
-0.000399505
-0.000361165
-0.000430484
-0.000372922
-0.000465986
-0.000386112
-0.000506912
-0.00039643
-0.000551903
-0.000396252
-0.000594751
-0.000375543
-0.000622123
-0.000325451
-0.000614039
-0.000244925
-0.000548799
-0.000148691
-0.000417999
-6.83632e-05
-0.000246019
-2.36793e-05
-9.77228e-05
-5.14681e-06
-1.10424e-05
4.42392e-07
2.43328e-05
2.11191e-05
-1.69209e-05
9.87777e-05
-4.63557e-05
0.000198525
-8.00892e-05
0.000267413
-0.000114849
0.000332401
-0.000149192
0.000394674
-0.000180804
0.000447994
-0.000208098
0.000487894
-0.000229647
0.000511031
-0.000245294
0.000517739
-0.000255412
0.000509885
-0.000261298
0.000491475
-0.000264307
0.000466327
-0.000265921
0.000438229
-0.000267113
0.00040947
-0.000268586
0.000381548
-0.000270551
0.000354791
-0.000273076
0.000329219
-0.000276006
0.000304441
-0.000279224
0.000280177
-0.00028255
0.000256092
-0.000285894
0.000232028
-0.000289143
0.000207832
-0.000292255
0.000183462
-0.000295167
0.000158874
-0.000297864
0.000134081
-0.000300314
0.000109089
-0.000302518
8.39363e-05
-0.000304463
5.86496e-05
-0.000306165
3.32789e-05
-0.000307629
7.85556e-06
-0.000308886
-1.75674e-05