/*--------------------------------*- C++ -*----------------------------------*\
| =========                 |                                                 |
| \\      /  F ield         | OpenFOAM: The Open Source CFD Toolbox           |
|  \\    /   O peration     | Version:  2406                                  |
|   \\  /    A nd           | Website:  www.openfoam.com                      |
|    \\/     M anipulation  |                                                 |
\*---------------------------------------------------------------------------*/
FoamFile
{
    version     2.0;
    format      ascii;
    arch        "LSB;label=32;scalar=64";
    class       volVectorField;
    location    "48";
    object      Uold;
}
// * * * * * * * * * * * * * * * * * * * * * * * * * * * * * * * * * * * * * //

dimensions      [0 1 -1 0 0 0 0];

internalField   nonuniform List<vector> 
900
(
(0.000265517 -0.0005138 0)
(0.00365094 -0.00126548 0)
(0.0074647 -0.000985687 0)
(0.0089821 -0.000539794 0)
(0.00943299 -0.000488555 0)
(0.00926581 -0.000824254 0)
(0.00926147 -0.00127677 0)
(0.00923369 -0.00178256 0)
(0.00832516 -0.00335881 0)
(0.0036912 -0.00528759 0)
(-0.00714711 -0.00317221 0)
(-0.0254602 0.00389988 0)
(-0.0499206 0.0105535 0)
(-0.0755362 0.0130074 0)
(-0.0979235 0.012209 0)
(-0.114869 0.00981335 0)
(-0.125055 0.00649694 0)
(-0.127608 0.00265386 0)
(-0.122208 -0.00147331 0)
(-0.108422 -0.00562206 0)
(-0.0869889 -0.0094264 0)
(-0.0583508 -0.012264 0)
(-0.0259913 -0.0133079 0)
(0.0072896 -0.0115106 0)
(0.0330939 -0.00576214 0)
(0.0459645 0.00185838 0)
(0.0408861 0.00756634 0)
(0.0260875 0.00748188 0)
(0.0122385 0.00488432 0)
(0.00143467 0.0017955 0)
(0.00119637 -0.00338327 0)
(0.00707366 -0.00603675 0)
(0.0127122 -0.00429488 0)
(0.0144697 -0.00144984 0)
(0.0137162 0.000251735 0)
(0.0103939 0.00100768 0)
(0.00400935 0.00136161 0)
(-0.00932754 0.00272659 0)
(-0.0330711 0.00903816 0)
(-0.0669817 0.0211492 0)
(-0.105872 0.0328094 0)
(-0.142299 0.0392856 0)
(-0.172167 0.0398188 0)
(-0.194941 0.0352511 0)
(-0.211061 0.027403 0)
(-0.220428 0.0175746 0)
(-0.222896 0.00651098 0)
(-0.218233 -0.00529754 0)
(-0.206291 -0.0174669 0)
(-0.186772 -0.0295085 0)
(-0.159907 -0.0404663 0)
(-0.125954 -0.0489042 0)
(-0.0868006 -0.0523272 0)
(-0.0450623 -0.0480398 0)
(-0.00640043 -0.0327941 0)
(0.0227656 -0.00992065 0)
(0.0338609 0.0126107 0)
(0.0277745 0.0208365 0)
(0.0161202 0.0201047 0)
(0.00227115 0.0118881 0)
(0.00214441 -0.00872281 0)
(0.00865222 -0.0128597 0)
(0.0129917 -0.00832823 0)
(0.0118612 -0.00160515 0)
(0.00630711 0.00357462 0)
(-0.00589373 0.00880709 0)
(-0.0284663 0.0184364 0)
(-0.0641679 0.0354001 0)
(-0.10885 0.0542206 0)
(-0.152658 0.066949 0)
(-0.189683 0.0715448 0)
(-0.218743 0.0697776 0)
(-0.240329 0.0627279 0)
(-0.255528 0.051391 0)
(-0.265327 0.0372362 0)
(-0.270153 0.0212231 0)
(-0.270301 0.0039714 0)
(-0.265655 -0.0142502 0)
(-0.256022 -0.0330821 0)
(-0.240844 -0.0521736 0)
(-0.219604 -0.0701786 0)
(-0.19169 -0.0854661 0)
(-0.156793 -0.09395 0)
(-0.115949 -0.0919894 0)
(-0.0708208 -0.073032 0)
(-0.0279408 -0.0383965 0)
(0.00387235 0.00287446 0)
(0.0110024 0.0245899 0)
(0.00904609 0.030378 0)
(0.000135595 0.0197933 0)
(0.00284012 -0.0141269 0)
(0.00761377 -0.0169626 0)
(0.00725847 -0.00741338 0)
(-0.000589396 0.00526343 0)
(-0.0167673 0.0181024 0)
(-0.0450101 0.0359058 0)
(-0.0860469 0.0597657 0)
(-0.132844 0.0829858 0)
(-0.175552 0.0975038 0)
(-0.209964 0.102218 0)
(-0.236412 0.0990944 0)
(-0.25551 0.0900516 0)
(-0.268442 0.0766889 0)
(-0.276613 0.0603519 0)
(-0.281229 0.042142 0)
(-0.282966 0.0226094 0)
(-0.282305 0.00204364 0)
(-0.279275 -0.0196663 0)
(-0.273797 -0.0423763 0)
(-0.265273 -0.0662017 0)
(-0.252932 -0.0898272 0)
(-0.235381 -0.11216 0)
(-0.210813 -0.128285 0)
(-0.177765 -0.134465 0)
(-0.134204 -0.120473 0)
(-0.0835684 -0.0846064 0)
(-0.0304329 -0.0254623 0)
(-0.00151302 0.0154289 0)
(0.00353917 0.0314632 0)
(-0.00159671 0.0211962 0)
(0.00265937 -0.019205 0)
(0.00289691 -0.0174072 0)
(-0.00513816 -0.000130554 0)
(-0.022997 0.0223507 0)
(-0.052227 0.0479625 0)
(-0.0928086 0.077947 0)
(-0.138095 0.106121 0)
(-0.178836 0.124821 0)
(-0.210533 0.131106 0)
(-0.233472 0.127448 0)
(-0.248883 0.116797 0)
(-0.258153 0.101601 0)
(-0.263104 0.0836438 0)
(-0.265031 0.0640037 0)
(-0.265223 0.0434618 0)
(-0.264251 0.0221869 0)
(-0.262769 0.000252583 0)
(-0.260833 -0.0228055 0)
(-0.25872 -0.0470087 0)
(-0.255971 -0.0730682 0)
(-0.252256 -0.0999557 0)
(-0.245939 -0.127701 0)
(-0.234961 -0.151559 0)
(-0.215725 -0.168857 0)
(-0.183654 -0.16722 0)
(-0.136307 -0.142207 0)
(-0.0734448 -0.0789616 0)
(-0.0135402 -0.00984328 0)
(0.00331095 0.0306622 0)
(-0.0017316 0.0214904 0)
(0.000718552 -0.0196082 0)
(-0.00661414 -0.00909043 0)
(-0.0241516 0.018651 0)
(-0.0517078 0.0524931 0)
(-0.0890045 0.087992 0)
(-0.130927 0.121845 0)
(-0.169562 0.145786 0)
(-0.198886 0.155371 0)
(-0.218544 0.152194 0)
(-0.230378 0.140737 0)
(-0.236112 0.123956 0)
(-0.237713 0.104469 0)
(-0.236844 0.0837647 0)
(-0.234661 0.0626651 0)
(-0.232155 0.0415735 0)
(-0.22964 0.0203261 0)
(-0.227634 -0.00115589 0)
(-0.226057 -0.0235941 0)
(-0.225414 -0.0470099 0)
(-0.225411 -0.0726226 0)
(-0.226547 -0.0996469 0)
(-0.22765 -0.129546 0)
(-0.227856 -0.158443 0)
(-0.223159 -0.186057 0)
(-0.208429 -0.199994 0)
(-0.176714 -0.195058 0)
(-0.121691 -0.147985 0)
(-0.0467182 -0.061532 0)
(0.00690655 0.0200468 0)
(-0.00250763 0.0227804 0)
(-0.00228258 -0.0134092 0)
(-0.0176832 0.00745893 0)
(-0.0433153 0.0449193 0)
(-0.0762299 0.0871782 0)
(-0.1144 0.127071 0)
(-0.150773 0.158361 0)
(-0.17933 0.173941 0)
(-0.197419 0.173744 0)
(-0.207301 0.16254 0)
(-0.210973 0.144983 0)
(-0.210637 0.124123 0)
(-0.208213 0.102343 0)
(-0.205026 0.0806162 0)
(-0.201824 0.059333 0)
(-0.199128 0.0385058 0)
(-0.196862 0.0176958 0)
(-0.195312 -0.00319313 0)
(-0.194124 -0.0249824 0)
(-0.193859 -0.0474112 0)
(-0.194088 -0.0718883 0)
(-0.195906 -0.0973604 0)
(-0.198492 -0.126361 0)
(-0.202785 -0.15569 0)
(-0.20578 -0.188301 0)
(-0.204607 -0.213517 0)
(-0.191361 -0.22936 0)
(-0.15506 -0.20845 0)
(-0.0937715 -0.140038 0)
(-0.00440064 -0.0124303 0)
(0.00292692 0.0254475 0)
(-0.00539631 0.000403062 0)
(-0.0274299 0.0321991 0)
(-0.0578519 0.0772749 0)
(-0.0915439 0.12372 0)
(-0.126084 0.162492 0)
(-0.15437 0.186805 0)
(-0.1732 0.19246 0)
(-0.18254 0.183456 0)
(-0.18567 0.16587 0)
(-0.184489 0.144212 0)
(-0.181409 0.121309 0)
(-0.177818 0.0989427 0)
(-0.174581 0.0774428 0)
(-0.171956 0.056778 0)
(-0.170105 0.0366461 0)
(-0.16871 0.0164453 0)
(-0.167994 -0.00386394 0)
(-0.167428 -0.0251942 0)
(-0.167678 -0.0469757 0)
(-0.167995 -0.0707995 0)
(-0.169777 -0.0950696 0)
(-0.171873 -0.122916 0)
(-0.176415 -0.150861 0)
(-0.180904 -0.184337 0)
(-0.18579 -0.21426 0)
(-0.183815 -0.244223 0)
(-0.166774 -0.246207 0)
(-0.125946 -0.211883 0)
(-0.0428023 -0.0763852 0)
(0.0186538 0.0214611 0)
(-0.00720719 0.0192324 0)
(-0.0327913 0.0599767 0)
(-0.0644346 0.108819 0)
(-0.0957365 0.155345 0)
(-0.124798 0.189691 0)
(-0.145292 0.205408 0)
(-0.156715 0.202056 0)
(-0.160328 0.186215 0)
(-0.159782 0.164464 0)
(-0.156577 0.140703 0)
(-0.153108 0.117424 0)
(-0.149892 0.0954745 0)
(-0.147566 0.0747426 0)
(-0.145858 0.0548057 0)
(-0.144911 0.0352927 0)
(-0.144195 0.0155211 0)
(-0.144093 -0.00437532 0)
(-0.143862 -0.0254092 0)
(-0.144419 -0.0466653 0)
(-0.1446 -0.0699957 0)
(-0.146188 -0.0932145 0)
(-0.147398 -0.120048 0)
(-0.151283 -0.146294 0)
(-0.15502 -0.17922 0)
(-0.1618 -0.210286 0)
(-0.164903 -0.248107 0)
(-0.160946 -0.267237 0)
(-0.135559 -0.262569 0)
(-0.0794753 -0.160285 0)
(0.0127634 0.00249542 0)
(-0.00768687 0.040391 0)
(-0.0339706 0.089669 0)
(-0.0643585 0.140101 0)
(-0.0917139 0.18416 0)
(-0.114979 0.211959 0)
(-0.129003 0.218831 0)
(-0.135256 0.20758 0)
(-0.135604 0.186663 0)
(-0.133453 0.162211 0)
(-0.12997 0.137625 0)
(-0.127144 0.114686 0)
(-0.124821 0.0934307 0)
(-0.12352 0.0734631 0)
(-0.122626 0.0541004 0)
(-0.122451 0.0350503 0)
(-0.122285 0.0155431 0)
(-0.122791 -0.00408477 0)
(-0.122941 -0.0250354 0)
(-0.123994 -0.0460445 0)
(-0.124245 -0.0693074 0)
(-0.125918 -0.0919549 0)
(-0.126328 -0.118231 0)
(-0.129336 -0.142796 0)
(-0.131218 -0.174281 0)
(-0.137659 -0.20388 0)
(-0.142277 -0.245155 0)
(-0.146186 -0.27528 0)
(-0.133805 -0.293144 0)
(-0.0962708 -0.225666 0)
(-0.0196792 -0.0437941 0)
(-0.00683925 0.0607505 0)
(-0.0313474 0.1167 0)
(-0.0584157 0.166288 0)
(-0.0810592 0.205904 0)
(-0.0990662 0.226811 0)
(-0.108333 0.225695 0)
(-0.111658 0.208618 0)
(-0.110621 0.18439 0)
(-0.108362 0.158764 0)
(-0.105514 0.134324 0)
(-0.103708 0.112212 0)
(-0.102276 0.0917636 0)
(-0.101813 0.0725297 0)
(-0.10144 0.0536381 0)
(-0.101768 0.0349985 0)
(-0.101857 0.0157252 0)
(-0.102745 -0.0035922 0)
(-0.103046 -0.0244176 0)
(-0.104515 -0.0451273 0)
(-0.104844 -0.0684074 0)
(-0.106918 -0.0907596 0)
(-0.106998 -0.117124 0)
(-0.109778 -0.140878 0)
(-0.109911 -0.171494 0)
(-0.11496 -0.198632 0)
(-0.117858 -0.239896 0)
(-0.125063 -0.27519 0)
(-0.120596 -0.312347 0)
(-0.0957065 -0.274428 0)
(-0.0367557 -0.113222 0)
(-0.00513264 0.078624 0)
(-0.0261614 0.141412 0)
(-0.049069 0.189659 0)
(-0.0670922 0.224876 0)
(-0.0806323 0.239207 0)
(-0.086627 0.231605 0)
(-0.088302 0.209978 0)
(-0.0869125 0.183506 0)
(-0.0850992 0.157195 0)
(-0.0831277 0.133051 0)
(-0.08223 0.111533 0)
(-0.0815187 0.0915676 0)
(-0.081672 0.0727305 0)
(-0.0816587 0.0540304 0)
(-0.0823865 0.0356102 0)
(-0.0826434 0.0164147 0)
(-0.0838789 -0.00268491 0)
(-0.084245 -0.0234785 0)
(-0.0860868 -0.0439258 0)
(-0.0863852 -0.0672655 0)
(-0.0888898 -0.089335 0)
(-0.0887515 -0.11592 0)
(-0.091836 -0.139264 0)
(-0.0909383 -0.169829 0)
(-0.0952592 -0.195261 0)
(-0.095695 -0.235681 0)
(-0.103149 -0.272075 0)
(-0.101195 -0.322405 0)
(-0.0852309 -0.310666 0)
(-0.0348023 -0.176846 0)
(-0.00279762 0.0920207 0)
(-0.0192581 0.160628 0)
(-0.0372715 0.207007 0)
(-0.0508594 0.2374 0)
(-0.0607481 0.246242 0)
(-0.064601 0.23339 0)
(-0.0657345 0.208842 0)
(-0.0646631 0.181116 0)
(-0.0637052 0.154881 0)
(-0.0626279 0.131335 0)
(-0.0625337 0.110529 0)
(-0.0623613 0.0910708 0)
(-0.0629885 0.0726589 0)
(-0.0632012 0.0541903 0)
(-0.0642484 0.0360575 0)
(-0.0645666 0.0169983 0)
(-0.0660879 -0.00180871 0)
(-0.0664027 -0.022527 0)
(-0.068576 -0.0426595 0)
(-0.0687412 -0.0660608 0)
(-0.071706 -0.0878825 0)
(-0.0713266 -0.114813 0)
(-0.0749484 -0.137984 0)
(-0.0733034 -0.168883 0)
(-0.0775782 -0.193076 0)
(-0.0759306 -0.232753 0)
(-0.0835736 -0.268981 0)
(-0.0827202 -0.329896 0)
(-0.0740641 -0.341087 0)
(-0.0311555 -0.233545 0)
(-0.000288465 0.100802 0)
(-0.0114917 0.175944 0)
(-0.0246149 0.221175 0)
(-0.0342201 0.248402 0)
(-0.0410676 0.252996 0)
(-0.043583 0.236794 0)
(-0.0444984 0.210167 0)
(-0.0439249 0.181616 0)
(-0.0436763 0.15528 0)
(-0.0433007 0.131964 0)
(-0.0437783 0.111405 0)
(-0.0439898 0.0920542 0)
(-0.0449937 0.0737428 0)
(-0.0453722 0.0552417 0)
(-0.0467324 0.0372016 0)
(-0.0470765 0.0180992 0)
(-0.0489039 -0.000533601 0)
(-0.0491154 -0.0212872 0)
(-0.0516451 -0.0411439 0)
(-0.0516064 -0.0646116 0)
(-0.055102 -0.086135 0)
(-0.0544824 -0.113371 0)
(-0.0589341 -0.136483 0)
(-0.0568827 -0.168107 0)
(-0.0617954 -0.191737 0)
(-0.0584131 -0.230642 0)
(-0.0660022 -0.264558 0)
(-0.0647854 -0.331764 0)
(-0.0627795 -0.362286 0)
(-0.0268991 -0.28232 0)
(0.00235058 0.103859 0)
(-0.00339688 0.184831 0)
(-0.011465 0.229621 0)
(-0.0174284 0.253737 0)
(-0.0217848 0.25555 0)
(-0.0233868 0.236806 0)
(-0.0244986 0.209107 0)
(-0.024529 0.180171 0)
(-0.0250538 0.154146 0)
(-0.0252307 0.131261 0)
(-0.0261732 0.111149 0)
(-0.0265986 0.0920849 0)
(-0.0278836 0.0740531 0)
(-0.0282997 0.055682 0)
(-0.0299171 0.0378791 0)
(-0.0301879 0.0188438 0)
(-0.0323147 0.000488413 0)
(-0.032353 -0.020226 0)
(-0.0352866 -0.0397369 0)
(-0.0349834 -0.0632048 0)
(-0.0390967 -0.0843615 0)
(-0.0381679 -0.111778 0)
(-0.0436111 -0.134705 0)
(-0.0412792 -0.167009 0)
(-0.0475416 -0.190514 0)
(-0.0432921 -0.229586 0)
(-0.0518357 -0.261677 0)
(-0.0500143 -0.333175 0)
(-0.0535183 -0.378718 0)
(-0.0230093 -0.323634 0)
(0.00468758 0.10203 0)
(0.00463568 0.189701 0)
(0.00137276 0.235228 0)
(-0.00122349 0.258738 0)
(-0.00324275 0.259061 0)
(-0.00414824 0.239698 0)
(-0.00526591 0.211466 0)
(-0.00577231 0.182309 0)
(-0.00675755 0.156153 0)
(-0.00725882 0.133163 0)
(-0.00847193 0.112982 0)
(-0.00897183 0.0937747 0)
(-0.0104818 0.0757052 0)
(-0.0108658 0.0571848 0)
(-0.0127657 0.0394253 0)
(-0.0129249 0.02027 0)
(-0.0154329 0.00207187 0)
(-0.0152866 -0.0187081 0)
(-0.0187735 -0.0379264 0)
(-0.0182206 -0.0614015 0)
(-0.0231616 -0.0821757 0)
(-0.0219635 -0.109694 0)
(-0.0286485 -0.132382 0)
(-0.0260927 -0.165246 0)
(-0.034083 -0.188593 0)
(-0.0292367 -0.227555 0)
(-0.0393902 -0.25684 0)
(-0.0368751 -0.330465 0)
(-0.0458804 -0.388782 0)
(-0.0197002 -0.359278 0)
(0.00680321 0.0946398 0)
(0.0121608 0.187884 0)
(0.0137793 0.235467 0)
(0.0143237 0.25816 0)
(0.0143298 0.258458 0)
(0.0141406 0.238749 0)
(0.0128571 0.210659 0)
(0.0119793 0.181478 0)
(0.0105132 0.155532 0)
(0.00985905 0.13273 0)
(0.00847513 0.112819 0)
(0.00812424 0.0938041 0)
(0.00652913 0.076003 0)
(0.00639384 0.0576086 0)
(0.0043054 0.0401268 0)
(0.00441388 0.0210588 0)
(0.00152117 0.00319759 0)
(0.00193928 -0.017473 0)
(-0.00221353 -0.0362593 0)
(-0.00138694 -0.0595771 0)
(-0.00734701 -0.0798394 0)
(-0.00589373 -0.107259 0)
(-0.0140808 -0.129533 0)
(-0.0113934 -0.16275 0)
(-0.0216154 -0.18611 0)
(-0.0166222 -0.225586 0)
(-0.0292142 -0.252835 0)
(-0.0259488 -0.327358 0)
(-0.0399969 -0.39516 0)
(-0.0167554 -0.389743 0)
(0.00811011 0.0832999 0)
(0.018974 0.182574 0)
(0.0252245 0.233194 0)
(0.0290066 0.258172 0)
(0.0313568 0.259402 0)
(0.0321045 0.241334 0)
(0.0311859 0.213835 0)
(0.0301939 0.184771 0)
(0.0285728 0.158516 0)
(0.0279514 0.135252 0)
(0.0265296 0.115022 0)
(0.0264574 0.0956825 0)
(0.0247968 0.0778141 0)
(0.0249982 0.0592457 0)
(0.0226568 0.0418743 0)
(0.0230833 0.02274 0)
(0.0196553 0.00513937 0)
(0.0203592 -0.0154727 0)
(0.0153183 -0.0338493 0)
(0.0163872 -0.0569873 0)
(0.0091308 -0.0767168 0)
(0.0107801 -0.103936 0)
(0.000797639 -0.125697 0)
(0.00360498 -0.15896 0)
(-0.00917235 -0.181976 0)
(-0.00413865 -0.221427 0)
(-0.0199296 -0.246164 0)
(-0.0160642 -0.320685 0)
(-0.0354909 -0.396992 0)
(-0.0141556 -0.416599 0)
(0.00864141 0.0676716 0)
(0.0243242 0.170368 0)
(0.0354033 0.225492 0)
(0.042372 0.251739 0)
(0.0468658 0.255379 0)
(0.0488528 0.23875 0)
(0.0482214 0.212534 0)
(0.0473852 0.18383 0)
(0.0455958 0.157715 0)
(0.0452339 0.134432 0)
(0.0438699 0.114327 0)
(0.044372 0.0951312 0)
(0.0428166 0.0775987 0)
(0.0436629 0.0592606 0)
(0.0411902 0.0423234 0)
(0.0421843 0.0234558 0)
(0.0382311 0.00637506 0)
(0.0393756 -0.0138855 0)
(0.0333408 -0.0316275 0)
(0.0347069 -0.0543201 0)
(0.0259542 -0.073324 0)
(0.0277801 -0.100081 0)
(0.0157207 -0.121155 0)
(0.0185739 -0.154187 0)
(0.00285354 -0.176859 0)
(0.00777463 -0.216468 0)
(-0.0118258 -0.239323 0)
(-0.00723352 -0.313141 0)
(-0.0321572 -0.395834 0)
(-0.0115916 -0.440048 0)
(0.00737359 0.0506278 0)
(0.0279556 0.155625 0)
(0.0436459 0.21536 0)
(0.0543622 0.246696 0)
(0.0618438 0.253129 0)
(0.0657061 0.240104 0)
(0.0663184 0.215581 0)
(0.0660811 0.187474 0)
(0.064498 0.16101 0)
(0.064524 0.136962 0)
(0.0632346 0.11631 0)
(0.0643596 0.0966066 0)
(0.0628291 0.0790425 0)
(0.0643948 0.0606044 0)
(0.0616549 0.0439832 0)
(0.0632937 0.0252722 0)
(0.058616 0.00871293 0)
(0.0602503 -0.0111934 0)
(0.0529805 -0.0282483 0)
(0.0546642 -0.0504327 0)
(0.0441471 -0.0686465 0)
(0.046145 -0.0948118 0)
(0.0317101 -0.11508 0)
(0.0345947 -0.147535 0)
(0.0155554 -0.169458 0)
(0.0202745 -0.208552 0)
(-0.00391214 -0.229288 0)
(0.00129049 -0.302067 0)
(-0.0297933 -0.391062 0)
(-0.00896456 -0.461092 0)
(0.00450061 0.0324396 0)
(0.0286157 0.133558 0)
(0.0493131 0.199157 0)
(0.0637781 0.233129 0)
(0.0739551 0.244096 0)
(0.0802038 0.233978 0)
(0.0820557 0.212192 0)
(0.0830576 0.185284 0)
(0.081845 0.159298 0)
(0.0827192 0.135234 0)
(0.0816262 0.114607 0)
(0.0837664 0.0949904 0)
(0.0823798 0.0778168 0)
(0.085059 0.0597879 0)
(0.0821405 0.0438276 0)
(0.0847763 0.0257234 0)
(0.0794039 0.00999006 0)
(0.0817943 -0.00917164 0)
(0.0732536 -0.0252703 0)
(0.0754286 -0.0466004 0)
(0.0630334 -0.0637832 0)
(0.0652713 -0.0890105 0)
(0.0482415 -0.108248 0)
(0.0511121 -0.139727 0)
(0.0284047 -0.160752 0)
(0.032847 -0.199116 0)
(0.00351205 -0.218212 0)
(0.00952392 -0.289479 0)
(-0.0282852 -0.383643 0)
(-0.00598972 -0.47972 0)
(0.000240481 0.0179373 0)
(0.026412 0.110705 0)
(0.05165 0.180508 0)
(0.0706279 0.222099 0)
(0.0849443 0.236976 0)
(0.0945801 0.232087 0)
(0.0991968 0.213102 0)
(0.102214 0.187679 0)
(0.102019 0.161823 0)
(0.103953 0.137045 0)
(0.103027 0.115845 0)
(0.106121 0.0955801 0)
(0.104639 0.0784419 0)
(0.108418 0.0604301 0)
(0.10508 0.0450805 0)
(0.108788 0.0274462 0)
(0.102503 0.0126502 0)
(0.105774 -0.00577413 0)
(0.0957448 -0.0207543 0)
(0.0985403 -0.0411541 0)
(0.0840302 -0.0571308 0)
(0.0866049 -0.0812471 0)
(0.0666875 -0.0992307 0)
(0.0695329 -0.129333 0)
(0.0427042 -0.149029 0)
(0.0466966 -0.185891 0)
(0.0113852 -0.203305 0)
(0.0181546 -0.272917 0)
(-0.0274138 -0.373013 0)
(-0.00243233 -0.49645 0)
(-0.00192828 0.00587576 0)
(0.0211137 0.0813962 0)
(0.0503468 0.155055 0)
(0.0729656 0.199188 0)
(0.0903013 0.220263 0)
(0.10389 0.219223 0)
(0.111275 0.204705 0)
(0.117686 0.181952 0)
(0.119216 0.157742 0)
(0.123432 0.133613 0)
(0.123094 0.112718 0)
(0.127922 0.0926585 0)
(0.126386 0.0759294 0)
(0.131814 0.0585192 0)
(0.127977 0.0440025 0)
(0.133226 0.0273489 0)
(0.12596 0.0136949 0)
(0.13053 -0.00351645 0)
(0.118981 -0.0171699 0)
(0.122748 -0.0361943 0)
(0.10609 -0.0507347 0)
(0.109207 -0.0732726 0)
(0.0862389 -0.0896881 0)
(0.0890093 -0.117807 0)
(0.0576821 -0.135838 0)
(0.0610562 -0.170607 0)
(0.0191886 -0.186814 0)
(0.026908 -0.254234 0)
(-0.0272557 -0.360008 0)
(0.00202799 -0.511052 0)
(-0.00231397 -0.000720593 0)
(0.0143604 0.0584611 0)
(0.0444249 0.129166 0)
(0.0710213 0.18233 0)
(0.0933704 0.206402 0)
(0.111959 0.211158 0)
(0.124079 0.199802 0)
(0.134896 0.179592 0)
(0.139273 0.156742 0)
(0.146392 0.132846 0)
(0.147022 0.112142 0)
(0.153762 0.09182 0)
(0.152079 0.0754547 0)
(0.159123 0.0582438 0)
(0.154564 0.0446975 0)
(0.161351 0.028742 0)
(0.152907 0.0165186 0)
(0.158873 0.000339036 0)
(0.145609 -0.0116171 0)
(0.15049 -0.0293194 0)
(0.131387 -0.0419673 0)
(0.135124 -0.0627337 0)
(0.10863 -0.0769844 0)
(0.111296 -0.102584 0)
(0.0748625 -0.118294 0)
(0.077493 -0.150101 0)
(0.0282961 -0.165276 0)
(0.0372287 -0.230394 0)
(-0.0268255 -0.343866 0)
(0.00806466 -0.523425 0)
(0.00140619 -0.00625999 0)
(0.00935435 0.0336418 0)
(0.0343615 0.0984649 0)
(0.0621189 0.149212 0)
(0.0855453 0.179481 0)
(0.109825 0.187675 0)
(0.126381 0.182077 0)
(0.14402 0.166035 0)
(0.152596 0.146679 0)
(0.165188 0.125069 0)
(0.167845 0.105871 0)
(0.178474 0.0866872 0)
(0.176914 0.0711749 0)
(0.186883 0.0550062 0)
(0.181337 0.0424665 0)
(0.190572 0.0278643 0)
(0.180488 0.0169675 0)
(0.18857 0.00249435 0)
(0.173132 -0.00784874 0)
(0.179713 -0.0234748 0)
(0.157784 -0.0342053 0)
(0.162577 -0.0523732 0)
(0.132254 -0.0643013 0)
(0.135038 -0.0865473 0)
(0.0931414 -0.0997295 0)
(0.0949512 -0.127842 0)
(0.0381177 -0.142883 0)
(0.0482518 -0.204846 0)
(-0.0261723 -0.32603 0)
(0.0162277 -0.532563 0)
(0.000290412 -0.0113378 0)
(0.00341448 0.0264154 0)
(0.0192737 0.076844 0)
(0.0470874 0.131979 0)
(0.0751814 0.159028 0)
(0.105152 0.170442 0)
(0.127959 0.166241 0)
(0.152683 0.153048 0)
(0.166473 0.136491 0)
(0.185325 0.11704 0)
(0.190899 0.0999246 0)
(0.206085 0.0820698 0)
(0.20541 0.0682277 0)
(0.218537 0.0530455 0)
(0.212558 0.0423107 0)
(0.224112 0.0287124 0)
(0.212745 0.0199725 0)
(0.222651 0.00667752 0)
(0.205156 -0.00109593 0)
(0.213151 -0.0151861 0)
(0.188136 -0.0228327 0)
(0.193841 -0.0387064 0)
(0.158906 -0.0468617 0)
(0.162031 -0.0654745 0)
(0.113553 -0.074532 0)
(0.115899 -0.0982143 0)
(0.0510144 -0.112929 0)
(0.0649196 -0.171505 0)
(-0.02021 -0.304187 0)
(0.0288456 -0.536632 0)
(0.00512715 -0.00973516 0)
(0.00604212 0.0132606 0)
(-0.000428219 0.0547987 0)
(0.0218648 0.091652 0)
(0.0446905 0.121491 0)
(0.0823384 0.133567 0)
(0.110145 0.135038 0)
(0.145516 0.126503 0)
(0.165152 0.114775 0)
(0.193736 0.0996234 0)
(0.203003 0.0859159 0)
(0.225854 0.071043 0)
(0.226267 0.059529 0)
(0.245263 0.0466166 0)
(0.238203 0.0377102 0)
(0.25452 0.0263334 0)
(0.240402 0.0192983 0)
(0.25452 0.00861078 0)
(0.232916 0.00262208 0)
(0.24487 -0.00813743 0)
(0.214589 -0.0137382 0)
(0.224157 -0.0252339 0)
(0.183132 -0.0309975 0)
(0.190293 -0.0441948 0)
(0.135581 -0.0513749 0)
(0.14246 -0.0703281 0)
(0.0710513 -0.0879622 0)
(0.0881844 -0.142628 0)
(-0.00682318 -0.283221 0)
(0.047183 -0.530047 0)
(-0.0249644 -0.0245753 0)
(-0.024682 0.0345159 0)
(-0.0209294 0.0611576 0)
(-0.00939383 0.0892718 0)
(0.0211969 0.0990152 0)
(0.062408 0.10551 0)
(0.095984 0.103816 0)
(0.139258 0.0975418 0)
(0.164091 0.0894237 0)
(0.200656 0.078372 0)
(0.2136 0.0691676 0)
(0.243061 0.0579413 0)
(0.245136 0.050305 0)
(0.269296 0.0402119 0)
(0.262038 0.0346713 0)
(0.282575 0.0255109 0)
(0.266778 0.0217728 0)
(0.284845 0.0129585 0)
(0.26038 0.0106379 0)
(0.27678 0.00161306 0)
(0.242572 0.000444562 0)
(0.258082 -0.00924162 0)
(0.211923 -0.00956374 0)
(0.227856 -0.020558 0)
(0.166165 -0.0216116 0)
(0.185697 -0.0373317 0)
(0.104596 -0.0506296 0)
(0.136774 -0.100229 0)
(0.0387711 -0.246706 0)
(0.0825938 -0.501049 0)
(-0.0869609 0.0462302 0)
(-0.0902862 0.00648467 0)
(-0.122129 0.0396992 0)
(-0.076433 0.0455771 0)
(-0.054379 0.049372 0)
(0.00499251 0.056653 0)
(0.0392842 0.0587973 0)
(0.0964339 0.0570642 0)
(0.122966 0.0543138 0)
(0.173277 0.0488324 0)
(0.186573 0.0444178 0)
(0.230559 0.038089 0)
(0.230882 0.0341141 0)
(0.270742 0.0281663 0)
(0.259371 0.0252249 0)
(0.297474 0.0199219 0)
(0.275074 0.0178661 0)
(0.313537 0.0131933 0)
(0.279877 0.0116256 0)
(0.320648 0.00764653 0)
(0.274698 0.00603673 0)
(0.319774 0.00297436 0)
(0.259896 0.00046169 0)
(0.31148 -0.00188403 0)
(0.235752 -0.00787024 0)
(0.29576 -0.0149181 0)
(0.202145 -0.03836 0)
(0.267268 -0.0896653 0)
(0.143705 -0.224189 0)
(0.13827 -0.429383 0)
(0.0790937 0.138277 0)
(0.117263 0.0754422 0)
(0.152969 0.0482402 0)
(0.206099 0.0261842 0)
(0.222666 0.0184914 0)
(0.27337 0.0128915 0)
(0.290563 0.0129897 0)
(0.345975 0.0130932 0)
(0.359594 0.0135633 0)
(0.415019 0.0135755 0)
(0.420883 0.0131968 0)
(0.473805 0.0125077 0)
(0.470246 0.0116554 0)
(0.520696 0.0106527 0)
(0.507691 0.00968793 0)
(0.556777 0.00864092 0)
(0.534707 0.00774174 0)
(0.58371 0.00671173 0)
(0.552845 0.00600032 0)
(0.602916 0.00486095 0)
(0.563288 0.00454 0)
(0.615382 0.00286825 0)
(0.566646 0.00333587 0)
(0.621292 -6.73425e-05 0)
(0.561439 0.00157483 0)
(0.61651 -0.00760677 0)
(0.533324 -0.00723143 0)
(0.568684 -0.0396016 0)
(0.39177 -0.0641853 0)
(0.288924 -0.195922 0)
)
;

boundaryField
{
    movingWall
    {
        type            fixedValue;
        value           uniform (1 0 0);
    }
    fixedWalls
    {
        type            noSlip;
    }
    frontAndBack
    {
        type            empty;
    }
}


// ************************************************************************* //
