/*--------------------------------*- C++ -*----------------------------------*\
| =========                 |                                                 |
| \\      /  F ield         | OpenFOAM: The Open Source CFD Toolbox           |
|  \\    /   O peration     | Version:  2406                                  |
|   \\  /    A nd           | Website:  www.openfoam.com                      |
|    \\/     M anipulation  |                                                 |
\*---------------------------------------------------------------------------*/
FoamFile
{
    version     2.0;
    format      ascii;
    arch        "LSB;label=32;scalar=64";
    class       volVectorField;
    location    "30.8";
    object      dU;
}
// * * * * * * * * * * * * * * * * * * * * * * * * * * * * * * * * * * * * * //

dimensions      [0 1 -1 0 0 0 0];

internalField   nonuniform List<vector> 
900
(
(1.14935e-05 -1.72971e-06 0)
(-9.548e-06 -6.08806e-06 0)
(-4.1439e-05 -5.20903e-06 0)
(-4.90889e-05 -1.09982e-06 0)
(-5.59974e-05 4.92507e-06 0)
(-6.35347e-05 1.19448e-05 0)
(-8.43732e-05 1.84887e-05 0)
(-0.000125069 2.65765e-05 0)
(-0.000181709 5.79144e-05 0)
(-0.000203438 0.000104093 0)
(-0.00015934 0.000103089 0)
(-7.73013e-05 4.7204e-05 0)
(-1.12605e-05 -1.79643e-05 0)
(2.83627e-05 -7.00093e-05 0)
(9.28175e-05 -0.000106525 0)
(0.00021489 -0.000131761 0)
(0.000389358 -0.000151438 0)
(0.000575643 -0.000168966 0)
(0.000733909 -0.000185944 0)
(0.000791931 -0.000201017 0)
(0.000714534 -0.000210147 0)
(0.000447409 -0.000211649 0)
(5.67618e-05 -0.00020121 0)
(-0.000358405 -0.000184983 0)
(-0.000562502 -0.000163091 0)
(-0.000485629 -0.000130332 0)
(-0.000247654 -8.86302e-05 0)
(-8.14439e-05 -3.35277e-05 0)
(-2.36771e-05 -1.46986e-06 0)
(2.62015e-05 1.07607e-05 0)
(7.73673e-06 8.234e-06 0)
(-1.29737e-05 -3.6713e-06 0)
(-3.69251e-05 -8.5814e-06 0)
(-3.84037e-05 -7.56372e-06 0)
(-4.16623e-05 1.40122e-06 0)
(-4.83816e-05 1.21827e-05 0)
(-6.84837e-05 2.76048e-05 0)
(-8.56648e-05 4.15502e-05 0)
(-0.000106815 3.12325e-05 0)
(-0.000164805 -1.25773e-05 0)
(-0.000223574 -9.27859e-05 0)
(-0.000201129 -0.000216906 0)
(-0.000128171 -0.000359786 0)
(-6.12842e-05 -0.000482574 0)
(2.80238e-05 -0.000565126 0)
(0.000166108 -0.000615277 0)
(0.000347968 -0.000648737 0)
(0.000537228 -0.000675202 0)
(0.000698638 -0.000699417 0)
(0.000765597 -0.000713576 0)
(0.000703056 -0.000704409 0)
(0.000456739 -0.000660524 0)
(8.47303e-05 -0.000567972 0)
(-0.000318771 -0.000455848 0)
(-0.000506589 -0.000338662 0)
(-0.000410816 -0.000256969 0)
(-0.000150588 -0.000199066 0)
(5.24182e-06 -0.000127104 0)
(1.95805e-05 -8.7129e-05 0)
(3.81408e-05 -7.30139e-05 0)
(2.49545e-06 3.90219e-05 0)
(-2.44458e-05 1.90031e-05 0)
(-4.68405e-05 9.61004e-06 0)
(-3.97079e-05 6.01018e-06 0)
(-3.59977e-05 1.42924e-05 0)
(-3.75276e-05 1.68232e-05 0)
(-5.83505e-05 -3.37131e-06 0)
(-0.000131776 -7.15519e-05 0)
(-0.000251397 -0.000198808 0)
(-0.000339821 -0.000380678 0)
(-0.00036988 -0.000561277 0)
(-0.000347102 -0.000722843 0)
(-0.000279155 -0.000878725 0)
(-0.000180093 -0.00100837 0)
(-4.36393e-05 -0.00109672 0)
(0.00012749 -0.00115464 0)
(0.00032602 -0.00120225 0)
(0.000522698 -0.00124746 0)
(0.000694928 -0.00129625 0)
(0.000788595 -0.00132731 0)
(0.000771636 -0.00131948 0)
(0.000590077 -0.00123297 0)
(0.00026887 -0.0010403 0)
(-0.000121291 -0.000767915 0)
(-0.000356982 -0.000449499 0)
(-0.000342882 -0.000246806 0)
(-0.000116176 -0.000122956 0)
(3.2561e-05 -0.000116468 0)
(3.04429e-05 -0.000127134 0)
(3.99349e-05 -0.000132885 0)
(-7.93613e-06 6.96118e-05 0)
(-3.9911e-05 3.92455e-05 0)
(-5.4205e-05 3.16349e-05 0)
(-3.90653e-05 2.34241e-05 0)
(-3.76693e-05 1.60073e-05 0)
(-7.82564e-05 -3.19316e-05 0)
(-0.000176843 -0.000142321 0)
(-0.000301976 -0.000335351 0)
(-0.000428562 -0.000561842 0)
(-0.000531075 -0.00077855 0)
(-0.000565308 -0.000968819 0)
(-0.000516704 -0.00112204 0)
(-0.000411215 -0.00123892 0)
(-0.000276286 -0.00132157 0)
(-0.000114549 -0.00137975 0)
(6.5277e-05 -0.00142643 0)
(0.000261276 -0.00148174 0)
(0.000451217 -0.00154751 0)
(0.000628906 -0.00163355 0)
(0.000754868 -0.00170945 0)
(0.00081216 -0.00175856 0)
(0.000752503 -0.00171117 0)
(0.000566213 -0.00153159 0)
(0.000286349 -0.0011902 0)
(2.40641e-05 -0.000728228 0)
(-8.31834e-05 -0.000329973 0)
(-2.7703e-05 -8.0133e-05 0)
(-1.15628e-06 -2.3812e-05 0)
(2.75375e-06 -0.000101646 0)
(3.1783e-05 -0.000116958 0)
(-2.48047e-05 0.000128144 0)
(-6.41484e-05 9.42011e-05 0)
(-7.33884e-05 8.96912e-05 0)
(-6.96102e-05 5.89905e-05 0)
(-0.000111249 -2.95476e-06 0)
(-0.000221363 -0.000145902 0)
(-0.000384293 -0.000363705 0)
(-0.000560982 -0.000630132 0)
(-0.000691818 -0.000891948 0)
(-0.000738696 -0.0011009 0)
(-0.000703458 -0.00123613 0)
(-0.00060678 -0.0013145 0)
(-0.000468516 -0.00135891 0)
(-0.000310982 -0.0013809 0)
(-0.000138531 -0.00139504 0)
(3.61383e-05 -0.00140984 0)
(0.000216955 -0.00144455 0)
(0.000384877 -0.00149644 0)
(0.000549378 -0.00158293 0)
(0.000682539 -0.00167498 0)
(0.000791408 -0.00177528 0)
(0.000840685 -0.00180834 0)
(0.000813644 -0.0017508 0)
(0.000702953 -0.0015118 0)
(0.000515788 -0.00110833 0)
(0.000304738 -0.000628898 0)
(0.000171169 -0.000249552 0)
(-8.51726e-06 -2.92473e-05 0)
(-6.91056e-05 -0.000129467 0)
(2.27022e-05 -0.000128076 0)
(-4.1615e-05 0.000175622 0)
(-8.69431e-05 0.000144467 0)
(-0.000109299 0.000136466 0)
(-0.000156912 6.5926e-05 0)
(-0.000270461 -7.08671e-05 0)
(-0.000460962 -0.000304654 0)
(-0.000667207 -0.000591416 0)
(-0.000820853 -0.000869583 0)
(-0.000883173 -0.00107399 0)
(-0.000858466 -0.00119566 0)
(-0.00076351 -0.00124982 0)
(-0.000626926 -0.00125867 0)
(-0.000467669 -0.0012468 0)
(-0.000304397 -0.00122613 0)
(-0.000136411 -0.00121095 0)
(2.30833e-05 -0.00120175 0)
(0.000183404 -0.00121447 0)
(0.000323955 -0.00124058 0)
(0.000464648 -0.00130291 0)
(0.000580296 -0.00137691 0)
(0.000700152 -0.00148704 0)
(0.000801736 -0.00157117 0)
(0.000890103 -0.0016376 0)
(0.000956878 -0.00157197 0)
(0.000929545 -0.0013717 0)
(0.000786258 -0.00101597 0)
(0.000558554 -0.000511372 0)
(8.83208e-05 -0.000312626 0)
(-0.000109845 -4.97706e-05 0)
(2.99983e-05 -0.000211748 0)
(-5.95312e-05 0.000186937 0)
(-0.000119576 0.000160494 0)
(-0.000179037 0.000131549 0)
(-0.000304916 9.75541e-06 0)
(-0.000502964 -0.000197513 0)
(-0.000746907 -0.000483841 0)
(-0.00093614 -0.000766814 0)
(-0.00102147 -0.000983931 0)
(-0.000996952 -0.00110818 0)
(-0.000898431 -0.00115456 0)
(-0.000756445 -0.00115055 0)
(-0.000599941 -0.0011228 0)
(-0.000436706 -0.00109324 0)
(-0.000278906 -0.0010657 0)
(-0.000119095 -0.00104938 0)
(2.80029e-05 -0.00103518 0)
(0.000175384 -0.00103606 0)
(0.000296925 -0.00103704 0)
(0.000418135 -0.001064 0)
(0.000508846 -0.00109371 0)
(0.000612957 -0.00116556 0)
(0.000710345 -0.00123379 0)
(0.000836258 -0.00134078 0)
(0.000994883 -0.00138525 0)
(0.00109818 -0.00139496 0)
(0.00118615 -0.00122612 0)
(0.00087928 -0.000856614 0)
(0.000434496 -0.00061437 0)
(9.26721e-06 4.60239e-06 0)
(-0.000141896 -0.000359188 0)
(-7.46597e-05 0.000115608 0)
(-0.00016306 9.4535e-05 0)
(-0.000287909 4.13256e-05 0)
(-0.00050802 -0.000116619 0)
(-0.000771336 -0.00035584 0)
(-0.00101812 -0.000631643 0)
(-0.00114239 -0.000856648 0)
(-0.00113798 -0.000990989 0)
(-0.00103791 -0.00103944 0)
(-0.000894372 -0.001035 0)
(-0.000734587 -0.0010078 0)
(-0.000579577 -0.000978059 0)
(-0.000424886 -0.000959878 0)
(-0.000277197 -0.000947882 0)
(-0.000123228 -0.000947154 0)
(1.92534e-05 -0.000940651 0)
(0.000165866 -0.00094136 0)
(0.000283349 -0.000928395 0)
(0.000400722 -0.000930923 0)
(0.000479033 -0.000923072 0)
(0.000569129 -0.000951522 0)
(0.000643296 -0.000978491 0)
(0.000759739 -0.00106553 0)
(0.000924637 -0.00113599 0)
(0.00110996 -0.00125346 0)
(0.00134594 -0.0012295 0)
(0.00118472 -0.00114997 0)
(0.00094322 -0.000725113 0)
(0.000125075 -0.000388274 0)
(-0.000338595 -0.000310493 0)
(-8.8877e-05 -3.49546e-05 0)
(-0.000215718 -5.16145e-05 0)
(-0.000413834 -0.000123672 0)
(-0.000713606 -0.000286077 0)
(-0.0010107 -0.000507979 0)
(-0.00122354 -0.000724936 0)
(-0.00126756 -0.000868828 0)
(-0.00118592 -0.000927688 0)
(-0.0010358 -0.000927149 0)
(-0.000873325 -0.000900511 0)
(-0.000715086 -0.000873779 0)
(-0.00057223 -0.000857826 0)
(-0.000428437 -0.000859628 0)
(-0.000288624 -0.000865897 0)
(-0.000135101 -0.000880267 0)
(8.90519e-06 -0.000879879 0)
(0.000161424 -0.00088063 0)
(0.00028142 -0.000856955 0)
(0.00040136 -0.000842384 0)
(0.000474129 -0.000807845 0)
(0.000555326 -0.000803512 0)
(0.000607656 -0.000793841 0)
(0.000700106 -0.000845913 0)
(0.000832019 -0.000901372 0)
(0.00102623 -0.00103946 0)
(0.00130735 -0.00111134 0)
(0.001397 -0.00118045 0)
(0.00119668 -0.000840692 0)
(0.000416206 -0.000598439 0)
(-7.87944e-05 3.06648e-05 0)
(-9.97355e-05 -0.000216826 0)
(-0.000271777 -0.000226307 0)
(-0.000539437 -0.000300473 0)
(-0.00089331 -0.000439264 0)
(-0.00119194 -0.000613261 0)
(-0.00134966 -0.000756083 0)
(-0.00132124 -0.000826396 0)
(-0.00118813 -0.000831719 0)
(-0.00101752 -0.000805392 0)
(-0.000858241 -0.000774197 0)
(-0.000713929 -0.000758258 0)
(-0.000586943 -0.000758575 0)
(-0.000452529 -0.000778558 0)
(-0.000316902 -0.000798658 0)
(-0.000159065 -0.000824212 0)
(-8.72368e-06 -0.000827565 0)
(0.000154847 -0.000829208 0)
(0.000283086 -0.000798973 0)
(0.000411397 -0.000774816 0)
(0.000485423 -0.000723914 0)
(0.000563092 -0.000698443 0)
(0.00059868 -0.000662498 0)
(0.000667311 -0.000683073 0)
(0.000758146 -0.000710971 0)
(0.000927252 -0.000830859 0)
(0.00122421 -0.00092846 0)
(0.00146901 -0.00105069 0)
(0.00152568 -0.000896843 0)
(0.000991961 -0.000433042 0)
(0.000284096 0.00013953 0)
(-0.000106837 -0.000383721 0)
(-0.000317362 -0.000384209 0)
(-0.000637708 -0.000447356 0)
(-0.00101884 -0.00054358 0)
(-0.00130249 -0.000656588 0)
(-0.00140735 -0.000728012 0)
(-0.00132654 -0.0007424 0)
(-0.00116684 -0.000714634 0)
(-0.000993549 -0.000677722 0)
(-0.000847144 -0.000648402 0)
(-0.000718487 -0.000642922 0)
(-0.000605522 -0.000653606 0)
(-0.000477034 -0.000684242 0)
(-0.000343362 -0.000710069 0)
(-0.000179954 -0.000740574 0)
(-2.3566e-05 -0.000743966 0)
(0.000150139 -0.000746081 0)
(0.000285871 -0.000712853 0)
(0.000422266 -0.000686159 0)
(0.000499532 -0.000630037 0)
(0.000577212 -0.000597593 0)
(0.000603156 -0.0005508 0)
(0.000654415 -0.000554313 0)
(0.000707053 -0.000562322 0)
(0.00084008 -0.000660432 0)
(0.00111189 -0.000762852 0)
(0.00144496 -0.000947852 0)
(0.00181706 -0.000961213 0)
(0.0014433 -0.000701792 0)
(0.000495002 -0.000383231 0)
(-0.00010864 -0.000488726 0)
(-0.000351333 -0.000479588 0)
(-0.000704385 -0.000525478 0)
(-0.00108876 -0.000579276 0)
(-0.00134789 -0.000638687 0)
(-0.00140882 -0.000657658 0)
(-0.00129878 -0.000637736 0)
(-0.00113302 -0.000593625 0)
(-0.000970097 -0.000554386 0)
(-0.000841142 -0.000527931 0)
(-0.000727836 -0.000528903 0)
(-0.000626616 -0.000542762 0)
(-0.000502235 -0.000576607 0)
(-0.000370007 -0.000601087 0)
(-0.000201878 -0.000631523 0)
(-4.10455e-05 -0.000632147 0)
(0.000140547 -0.000634015 0)
(0.000282093 -0.000599624 0)
(0.000424907 -0.000573697 0)
(0.000505172 -0.000518051 0)
(0.000583793 -0.000486371 0)
(0.000603711 -0.00043876 0)
(0.000643857 -0.000438356 0)
(0.0006665 -0.000437177 0)
(0.0007589 -0.000519893 0)
(0.000966687 -0.000616405 0)
(0.00128967 -0.00083701 0)
(0.00178083 -0.000989749 0)
(0.0015603 -0.00108755 0)
(0.000595419 -0.000984594 0)
(-0.000106368 -0.000523566 0)
(-0.000368723 -0.000504704 0)
(-0.00073928 -0.000532223 0)
(-0.00111453 -0.000547998 0)
(-0.00135145 -0.000566136 0)
(-0.00138351 -0.000549584 0)
(-0.00125953 -0.000511843 0)
(-0.0010969 -0.000460495 0)
(-0.000944791 -0.000421981 0)
(-0.000830334 -0.000395796 0)
(-0.000727238 -0.000397936 0)
(-0.000634552 -0.000408226 0)
(-0.000512769 -0.000439191 0)
(-0.000383106 -0.000457545 0)
(-0.000213178 -0.000485013 0)
(-5.18578e-05 -0.000482366 0)
(0.000132877 -0.000484957 0)
(0.000276105 -0.000452629 0)
(0.00042154 -0.000431504 0)
(0.000502395 -0.000381756 0)
(0.000581213 -0.000356859 0)
(0.000596027 -0.000315122 0)
(0.000629284 -0.000319344 0)
(0.000629243 -0.000317074 0)
(0.000690171 -0.000392655 0)
(0.000829102 -0.000475699 0)
(0.00109436 -0.00069685 0)
(0.00157796 -0.000898935 0)
(0.00144328 -0.00118401 0)
(0.000590044 -0.00122443 0)
(-9.90055e-05 -0.000491209 0)
(-0.000374043 -0.000465006 0)
(-0.000746937 -0.000476706 0)
(-0.00110276 -0.000466291 0)
(-0.00131982 -0.000457396 0)
(-0.0013344 -0.000422487 0)
(-0.00121008 -0.000378982 0)
(-0.00105686 -0.000327472 0)
(-0.000917226 -0.000291345 0)
(-0.000814931 -0.000263957 0)
(-0.000719626 -0.000264109 0)
(-0.000633864 -0.000267205 0)
(-0.000515181 -0.000292246 0)
(-0.000389988 -0.000302176 0)
(-0.000221962 -0.000325119 0)
(-6.41311e-05 -0.000318729 0)
(0.000119058 -0.000321963 0)
(0.000260128 -0.000292559 0)
(0.000404875 -0.000277309 0)
(0.000484082 -0.000234998 0)
(0.000562785 -0.000218946 0)
(0.000573393 -0.000184958 0)
(0.000603532 -0.000197341 0)
(0.00058699 -0.000196613 0)
(0.000624115 -0.000269534 0)
(0.000697628 -0.000336702 0)
(0.000892214 -0.000541063 0)
(0.00130663 -0.000739304 0)
(0.00123165 -0.00109294 0)
(0.000549544 -0.00119086 0)
(-9.02743e-05 -0.00041167 0)
(-0.000368427 -0.000377598 0)
(-0.000738584 -0.000375608 0)
(-0.00107456 -0.00034532 0)
(-0.00127852 -0.000320422 0)
(-0.00128694 -0.000275756 0)
(-0.00116608 -0.000233782 0)
(-0.00102096 -0.000184233 0)
(-0.000886644 -0.000151401 0)
(-0.000790307 -0.000121671 0)
(-0.000696906 -0.000118643 0)
(-0.000615564 -0.00011342 0)
(-0.000499521 -0.000131673 0)
(-0.000380458 -0.000133149 0)
(-0.000217692 -0.000151543 0)
(-6.72361e-05 -0.000142383 0)
(0.000109798 -0.000147074 0)
(0.000244516 -0.000121971 0)
(0.00038499 -0.000113772 0)
(0.000459455 -7.99447e-05 0)
(0.000536845 -7.3942e-05 0)
(0.000542621 -4.80698e-05 0)
(0.00057252 -6.99738e-05 0)
(0.000544585 -7.14541e-05 0)
(0.000569238 -0.000145203 0)
(0.000592324 -0.000194352 0)
(0.00072003 -0.000373395 0)
(0.00104048 -0.000532599 0)
(0.000988849 -0.000878657 0)
(0.000487719 -0.000990965 0)
(-7.6335e-05 -0.000311372 0)
(-0.000353322 -0.000270768 0)
(-0.000712327 -0.000254332 0)
(-0.00102669 -0.000210803 0)
(-0.00122119 -0.000174045 0)
(-0.00122953 -0.000126681 0)
(-0.00111881 -8.93574e-05 0)
(-0.00098255 -4.55129e-05 0)
(-0.000853732 -1.78704e-05 0)
(-0.00076085 1.25628e-05 0)
(-0.00066824 1.74101e-05 0)
(-0.000590319 2.95715e-05 0)
(-0.000477897 1.64765e-05 0)
(-0.000366404 2.17998e-05 0)
(-0.000211776 6.45732e-06 0)
(-7.15476e-05 1.73301e-05 0)
(9.60219e-05 1.0632e-05 0)
(0.0002214 3.176e-05 0)
(0.000355573 3.33925e-05 0)
(0.000423784 6.05145e-05 0)
(0.000500178 5.78324e-05 0)
(0.000501603 7.85705e-05 0)
(0.000533928 4.96161e-05 0)
(0.00049746 4.95131e-05 0)
(0.000517437 -2.3958e-05 0)
(0.000502693 -5.40999e-05 0)
(0.000583296 -0.00020899 0)
(0.000816918 -0.000316236 0)
(0.00077114 -0.00062433 0)
(0.000434259 -0.000715572 0)
(-6.27921e-05 -0.000206336 0)
(-0.000328608 -0.000156034 0)
(-0.000677234 -0.000124064 0)
(-0.000974579 -6.56736e-05 0)
(-0.0011658 -2.06522e-05 0)
(-0.00118322 3.08167e-05 0)
(-0.00108258 6.16766e-05 0)
(-0.000953544 0.000100358 0)
(-0.000822616 0.0001206 0)
(-0.000727907 0.000149479 0)
(-0.000630496 0.000152816 0)
(-0.000553358 0.000168194 0)
(-0.000443381 0.000157033 0)
(-0.000339783 0.000165935 0)
(-0.000194747 0.000151753 0)
(-6.6467e-05 0.000162858 0)
(8.97307e-05 0.000153805 0)
(0.000203919 0.000171315 0)
(0.000330651 0.000167001 0)
(0.000391572 0.000189186 0)
(0.000467434 0.000179318 0)
(0.00046494 0.000197555 0)
(0.000502293 0.000163881 0)
(0.000460018 0.000168433 0)
(0.000482068 9.69126e-05 0)
(0.000439328 8.74029e-05 0)
(0.000486324 -4.63484e-05 0)
(0.000639702 -0.000100285 0)
(0.000586874 -0.000366951 0)
(0.000394195 -0.000423474 0)
(-4.14561e-05 -0.000122275 0)
(-0.000291436 -6.27323e-05 0)
(-0.000622574 -9.82674e-06 0)
(-0.000905329 6.30616e-05 0)
(-0.00109642 0.000123096 0)
(-0.00112598 0.000178956 0)
(-0.00104285 0.00020687 0)
(-0.000923181 0.000238112 0)
(-0.000794733 0.000248334 0)
(-0.000698261 0.000271612 0)
(-0.000597109 0.000268989 0)
(-0.000519506 0.000283601 0)
(-0.000411662 0.000270039 0)
(-0.000315007 0.000279286 0)
(-0.000179427 0.000262935 0)
(-6.30369e-05 0.000272742 0)
(8.17989e-05 0.000259662 0)
(0.000184646 0.000274328 0)
(0.000304419 0.000264363 0)
(0.000358402 0.00028435 0)
(0.0004352 0.000269588 0)
(0.00042982 0.000289443 0)
(0.000474263 0.000255173 0)
(0.000426964 0.000269285 0)
(0.000455511 0.000203621 0)
(0.000390538 0.000217037 0)
(0.000421785 0.000100801 0)
(0.000508575 0.000100153 0)
(0.000444546 -0.000130224 0)
(0.000375975 -0.000140751 0)
(-2.1638e-05 -4.88803e-05 0)
(-0.000240619 2.28164e-05 0)
(-0.000555578 9.38568e-05 0)
(-0.000827212 0.000188648 0)
(-0.00102308 0.000261824 0)
(-0.00107639 0.000330794 0)
(-0.00101259 0.000356414 0)
(-0.000907133 0.00038367 0)
(-0.000776563 0.000381432 0)
(-0.000676195 0.000395736 0)
(-0.000566336 0.000381959 0)
(-0.000485204 0.000390121 0)
(-0.000376504 0.000369363 0)
(-0.000284779 0.000374444 0)
(-0.000157055 0.000353236 0)
(-5.12248e-05 0.00035995 0)
(8.35176e-05 0.000342534 0)
(0.000176461 0.000355177 0)
(0.00029102 0.000341214 0)
(0.000339926 0.000361349 0)
(0.00041976 0.000344841 0)
(0.000413445 0.000369639 0)
(0.000467115 0.000339171 0)
(0.000415888 0.000366566 0)
(0.000453784 0.000310935 0)
(0.000367309 0.000348805 0)
(0.00039206 0.000247182 0)
(0.000416183 0.000294543 0)
(0.000340531 8.53988e-05 0)
(0.000382068 0.000124899 0)
(8.23296e-06 -2.92144e-06 0)
(-0.000178551 7.31584e-05 0)
(-0.00046579 0.000162585 0)
(-0.000727455 0.000276763 0)
(-0.000929927 0.000377738 0)
(-0.00100665 0.000463547 0)
(-0.000974461 0.000498555 0)
(-0.000888463 0.000523627 0)
(-0.000767739 0.000509051 0)
(-0.000667266 0.000511178 0)
(-0.000552952 0.000480948 0)
(-0.000467119 0.00047852 0)
(-0.00035577 0.000444961 0)
(-0.000264967 0.000442965 0)
(-0.000141191 0.000412298 0)
(-4.16681e-05 0.000414823 0)
(8.67836e-05 0.000389844 0)
(0.000173135 0.000400962 0)
(0.00028554 0.000381624 0)
(0.000331799 0.000403724 0)
(0.000416706 0.00038628 0)
(0.000410732 0.000418856 0)
(0.000474644 0.00039489 0)
(0.000418687 0.000438649 0)
(0.00046744 0.000395998 0)
(0.000357511 0.000460273 0)
(0.000386312 0.000371158 0)
(0.000348668 0.000467221 0)
(0.000267246 0.000270766 0)
(0.000414133 0.000371804 0)
(2.91761e-05 5.56266e-05 0)
(-0.00011039 0.000129896 0)
(-0.000367661 0.000221524 0)
(-0.000608974 0.000363141 0)
(-0.000816551 0.00048347 0)
(-0.000931087 0.000599899 0)
(-0.000933314 0.000644064 0)
(-0.000882367 0.000674867 0)
(-0.000771834 0.000647594 0)
(-0.000675136 0.00063682 0)
(-0.000553353 0.000586475 0)
(-0.00046071 0.00056897 0)
(-0.00034257 0.000518896 0)
(-0.000248711 0.000505836 0)
(-0.000124678 0.000463964 0)
(-2.71505e-05 0.000460172 0)
(9.90771e-05 0.000428402 0)
(0.000183028 0.000437419 0)
(0.000296701 0.000415676 0)
(0.000344074 0.000440404 0)
(0.000436486 0.000426643 0)
(0.000433729 0.000468746 0)
(0.000509456 0.000457039 0)
(0.000449457 0.000519529 0)
(0.000511031 0.000495176 0)
(0.000373506 0.000586575 0)
(0.000413978 0.000509693 0)
(0.000310637 0.000649846 0)
(0.000234421 0.000450103 0)
(0.000482125 0.000622162 0)
(5.70728e-05 8.83932e-05 0)
(-5.21174e-05 0.000130007 0)
(-0.000255866 0.000233091 0)
(-0.000470643 0.000386 0)
(-0.000680317 0.000553348 0)
(-0.000823771 0.000701694 0)
(-0.00087823 0.000777338 0)
(-0.000867005 0.000821379 0)
(-0.000786407 0.000788844 0)
(-0.000700286 0.000767287 0)
(-0.000579335 0.000693806 0)
(-0.000479718 0.000659162 0)
(-0.000353611 0.000586545 0)
(-0.00025078 0.000560657 0)
(-0.000120907 0.000501538 0)
(-1.80184e-05 0.000491153 0)
(0.000112022 0.000447154 0)
(0.000199687 0.000454998 0)
(0.000319196 0.000425816 0)
(0.000371591 0.000454651 0)
(0.000474194 0.000439939 0)
(0.000476212 0.000492756 0)
(0.000565013 0.000488941 0)
(0.000499679 0.000569772 0)
(0.000574973 0.000559784 0)
(0.000403348 0.000676983 0)
(0.000461911 0.000610404 0)
(0.000277706 0.000797352 0)
(0.000226833 0.000598844 0)
(0.000586636 0.000878773 0)
(5.10552e-05 0.000131257 0)
(-5.07419e-06 0.000145373 0)
(-0.000143062 0.000243689 0)
(-0.000303951 0.000423139 0)
(-0.000497455 0.000614181 0)
(-0.000690287 0.000810979 0)
(-0.000792795 0.000908327 0)
(-0.000850569 0.000974761 0)
(-0.00080477 0.000937233 0)
(-0.000742807 0.000908395 0)
(-0.000624061 0.000813113 0)
(-0.000518887 0.000760585 0)
(-0.000381983 0.000666022 0)
(-0.000266997 0.000624781 0)
(-0.000126247 0.000550333 0)
(-1.36906e-05 0.000529968 0)
(0.000125315 0.000477907 0)
(0.000220729 0.00048065 0)
(0.000349872 0.00045048 0)
(0.000410653 0.000479284 0)
(0.000525461 0.000471775 0)
(0.000535142 0.00053181 0)
(0.000638133 0.000544745 0)
(0.000569824 0.00064273 0)
(0.00066176 0.000656721 0)
(0.000455656 0.000801755 0)
(0.00054501 0.00075553 0)
(0.000281108 0.000989981 0)
(0.000299871 0.000792727 0)
(0.000764036 0.00122081 0)
(6.15286e-05 0.000139269 0)
(2.66959e-05 8.25245e-05 0)
(-1.59668e-05 0.000204042 0)
(-0.000125838 0.000368933 0)
(-0.000301279 0.000629994 0)
(-0.000522054 0.000858565 0)
(-0.000697972 0.00100798 0)
(-0.000818542 0.00110125 0)
(-0.000831581 0.00107366 0)
(-0.000798479 0.00104499 0)
(-0.000693663 0.000931576 0)
(-0.000583428 0.000863773 0)
(-0.000437629 0.000743861 0)
(-0.000305392 0.000687618 0)
(-0.000150812 0.000591128 0)
(-2.10838e-05 0.000562534 0)
(0.000131089 0.000493073 0)
(0.000241418 0.000495057 0)
(0.000384137 0.000450696 0)
(0.000458748 0.000485583 0)
(0.000589832 0.000466408 0)
(0.000610672 0.000539032 0)
(0.000733351 0.000543956 0)
(0.000663472 0.000660232 0)
(0.000778045 0.000673839 0)
(0.000533108 0.000842983 0)
(0.000660678 0.000814523 0)
(0.00029209 0.00109633 0)
(0.000440342 0.00096651 0)
(0.00102057 0.00167826 0)
(-5.44614e-06 0.000120572 0)
(3.68518e-05 0.000105969 0)
(0.000102326 0.000188627 0)
(8.72774e-05 0.000409454 0)
(-2.87751e-05 0.000663493 0)
(-0.00031726 0.000934836 0)
(-0.000542411 0.00109181 0)
(-0.000769444 0.00120817 0)
(-0.000842225 0.00118241 0)
(-0.000861393 0.00115632 0)
(-0.000776683 0.00103271 0)
(-0.000669399 0.000954088 0)
(-0.000514812 0.000818785 0)
(-0.000367241 0.000748031 0)
(-0.000194338 0.000638606 0)
(-4.83482e-05 0.000597004 0)
(0.000122836 0.000520219 0)
(0.000246133 0.000511162 0)
(0.000407236 0.000466087 0)
(0.000492706 0.00049116 0)
(0.000642388 0.000479059 0)
(0.000672652 0.000544383 0)
(0.000814433 0.000566895 0)
(0.000747876 0.000684846 0)
(0.000885205 0.000732614 0)
(0.000624647 0.000928327 0)
(0.000808038 0.00097401 0)
(0.000402503 0.00133418 0)
(0.00086003 0.00138003 0)
(0.00148593 0.00249434 0)
(5.26745e-05 0.000213681 0)
(8.58186e-05 2.751e-05 0)
(0.000248255 0.000169377 0)
(0.000306332 0.000322161 0)
(0.000191502 0.000647774 0)
(-0.000112714 0.000905796 0)
(-0.00043106 0.00110167 0)
(-0.00072325 0.00122326 0)
(-0.000872328 0.00121379 0)
(-0.000930865 0.00119299 0)
(-0.000874445 0.00106984 0)
(-0.000768332 0.000987388 0)
(-0.000610136 0.000842589 0)
(-0.000444515 0.000763756 0)
(-0.000256825 0.000639925 0)
(-8.88187e-05 0.000593302 0)
(9.81677e-05 0.000498272 0)
(0.000242938 0.00049127 0)
(0.000419808 0.000420837 0)
(0.000526944 0.000456699 0)
(0.000696198 0.000406317 0)
(0.000748542 0.000491811 0)
(0.000920002 0.000459779 0)
(0.000869525 0.000608752 0)
(0.00105541 0.000604954 0)
(0.000798019 0.000852803 0)
(0.00107531 0.000941086 0)
(0.000665489 0.00140693 0)
(0.00159323 0.00185737 0)
(0.0021649 0.00401288 0)
(-0.000187749 -2.71605e-05 0)
(-9.47924e-06 9.9496e-05 0)
(0.000366017 0.000158358 0)
(0.000521891 0.00049862 0)
(0.000515055 0.000725936 0)
(0.000107905 0.000956949 0)
(-0.000244234 0.00107927 0)
(-0.000665838 0.00117216 0)
(-0.000874182 0.00115174 0)
(-0.000998927 0.00112908 0)
(-0.000972262 0.00101888 0)
(-0.000879739 0.000940933 0)
(-0.000718283 0.000806643 0)
(-0.000543783 0.000727845 0)
(-0.000335931 0.000606821 0)
(-0.00015672 0.00055441 0)
(5.56562e-05 0.000457337 0)
(0.00020572 0.000437931 0)
(0.000409658 0.000364919 0)
(0.000514911 0.000378136 0)
(0.00071296 0.000331231 0)
(0.000759406 0.000380528 0)
(0.000962482 0.000374355 0)
(0.000919383 0.00048329 0)
(0.00115143 0.000571733 0)
(0.000975063 0.000834875 0)
(0.00136888 0.00121654 0)
(0.00127025 0.00198558 0)
(0.00344462 0.00379429 0)
(0.00368305 0.00742862 0)
(0.000174616 0.000638561 0)
(0.000261474 -2.17664e-05 0)
(0.000617111 0.000113338 0)
(0.000826344 0.000250521 0)
(0.00060168 0.00058107 0)
(0.000201715 0.00076482 0)
(-0.000246754 0.000895387 0)
(-0.000672174 0.000945502 0)
(-0.000931037 0.000931008 0)
(-0.00107113 0.000902041 0)
(-0.00106587 0.000811324 0)
(-0.000977744 0.000743989 0)
(-0.000817397 0.000630823 0)
(-0.000634193 0.000563003 0)
(-0.000418126 0.000455822 0)
(-0.000223726 0.00041117 0)
(-2.86893e-06 0.000316553 0)
(0.000166393 0.000304746 0)
(0.00037577 0.000217901 0)
(0.00050793 0.000245002 0)
(0.000713095 0.000158232 0)
(0.000804349 0.000237912 0)
(0.00103535 0.000151104 0)
(0.00107597 0.000323734 0)
(0.00141507 0.000292123 0)
(0.00144764 0.000715027 0)
(0.00222864 0.00113079 0)
(0.00319162 0.00271969 0)
(0.00711932 0.00592135 0)
(0.00592881 0.0124944 0)
(-0.000870431 -0.00218224 0)
(-0.000556008 0.000244272 0)
(0.000613555 0.00061575 0)
(0.000959043 0.000590509 0)
(0.000988737 0.000685083 0)
(0.000381686 0.000683565 0)
(-0.000100833 0.000641838 0)
(-0.000662049 0.000610863 0)
(-0.000946683 0.000575132 0)
(-0.00114328 0.000543176 0)
(-0.00115304 0.000494099 0)
(-0.00108044 0.000453063 0)
(-0.000918338 0.00039178 0)
(-0.000737102 0.000351601 0)
(-0.000505469 0.000286214 0)
(-0.000314444 0.000260033 0)
(-6.891e-05 0.000194716 0)
(8.70643e-05 0.000188749 0)
(0.00033036 0.000123981 0)
(0.000433786 0.000139857 0)
(0.000686055 8.02804e-05 0)
(0.000731935 0.000121561 0)
(0.00103057 0.000104798 0)
(0.00104283 0.000215874 0)
(0.0015266 0.000475681 0)
(0.00179638 0.00104416 0)
(0.00333019 0.00287742 0)
(0.00579918 0.00647098 0)
(0.0129074 0.0150018 0)
(0.0101431 0.0266061 0)
(0.00260687 -0.00301979 0)
(0.00310055 0.000486625 0)
(0.000983379 0.00063656 0)
(0.000892542 0.000826909 0)
(0.00068514 0.000561538 0)
(0.000137774 0.000511666 0)
(-0.000350998 0.000315159 0)
(-0.000777487 0.000271639 0)
(-0.0010416 0.000220191 0)
(-0.00120103 0.000202675 0)
(-0.00120581 0.000195407 0)
(-0.00113534 0.000183563 0)
(-0.000972988 0.000179435 0)
(-0.000799144 0.000165903 0)
(-0.000566635 0.000158752 0)
(-0.000377252 0.000142845 0)
(-0.000133021 0.000137771 0)
(3.20327e-05 0.000116885 0)
(0.00026794 0.000124091 0)
(0.000402653 9.13281e-05 0)
(0.000640951 0.000131296 0)
(0.000774498 7.77647e-05 0)
(0.00108302 0.000205058 0)
(0.0013989 0.000152836 0)
(0.00221021 0.000582535 0)
(0.00384319 0.000836851 0)
(0.00763787 0.0026001 0)
(0.0149005 0.00509349 0)
(0.0269945 0.0117845 0)
(0.0179023 0.0188437 0)
)
;

boundaryField
{
    movingWall
    {
        type            fixedValue;
        value           uniform (1 0 0);
    }
    fixedWalls
    {
        type            noSlip;
    }
    frontAndBack
    {
        type            empty;
    }
}


// ************************************************************************* //
