/*--------------------------------*- C++ -*----------------------------------*\
| =========                 |                                                 |
| \\      /  F ield         | OpenFOAM: The Open Source CFD Toolbox           |
|  \\    /   O peration     | Version:  2406                                  |
|   \\  /    A nd           | Website:  www.openfoam.com                      |
|    \\/     M anipulation  |                                                 |
\*---------------------------------------------------------------------------*/
FoamFile
{
    version     2.0;
    format      ascii;
    arch        "LSB;label=32;scalar=64";
    class       volVectorField;
    location    "17.75";
    object      U;
}
// * * * * * * * * * * * * * * * * * * * * * * * * * * * * * * * * * * * * * //

dimensions      [0 1 -1 0 0 0 0];

internalField   nonuniform List<vector> 
16384
(
(1.19557e-06 -1.25513e-06 0)
(1.59017e-05 -4.21692e-06 0)
(4.04695e-05 -5.82847e-06 0)
(6.76304e-05 -6.08194e-06 0)
(9.28593e-05 -5.55909e-06 0)
(0.000113578 -4.71056e-06 0)
(0.000128646 -3.79048e-06 0)
(0.000137839 -2.92978e-06 0)
(0.000141454 -2.18413e-06 0)
(0.000140024 -1.58081e-06 0)
(0.000134152 -1.09658e-06 0)
(0.000124403 -7.08592e-07 0)
(0.000111226 -3.90863e-07 0)
(9.49305e-05 -1.15414e-07 0)
(7.56846e-05 1.42472e-07 0)
(5.35217e-05 4.03183e-07 0)
(2.83607e-05 6.82416e-07 0)
(2.69477e-08 9.91344e-07 0)
(-3.1726e-05 1.33732e-06 0)
(-6.71981e-05 1.7246e-06 0)
(-0.000106727 2.1552e-06 0)
(-0.000150675 2.62983e-06 0)
(-0.000199426 3.14856e-06 0)
(-0.000253376 3.71136e-06 0)
(-0.000312935 4.3186e-06 0)
(-0.000378528 4.97139e-06 0)
(-0.000450596 5.67176e-06 0)
(-0.000529601 6.42288e-06 0)
(-0.000616027 7.229e-06 0)
(-0.000710388 8.09543e-06 0)
(-0.000813225 9.02849e-06 0)
(-0.00092511 1.00353e-05 0)
(-0.00104665 1.11236e-05 0)
(-0.00117848 1.23016e-05 0)
(-0.00132125 1.35774e-05 0)
(-0.00147565 1.49592e-05 0)
(-0.00164235 1.64541e-05 0)
(-0.00182206 1.80684e-05 0)
(-0.00201542 1.98069e-05 0)
(-0.00222308 2.16722e-05 0)
(-0.00244562 2.36649e-05 0)
(-0.00268351 2.57823e-05 0)
(-0.00293716 2.80184e-05 0)
(-0.00320682 3.03634e-05 0)
(-0.00349256 3.28029e-05 0)
(-0.00379429 3.53177e-05 0)
(-0.00411166 3.78833e-05 0)
(-0.00444406 4.04692e-05 0)
(-0.00479061 4.30386e-05 0)
(-0.00515007 4.55483e-05 0)
(-0.00552087 4.79483e-05 0)
(-0.00590106 5.01817e-05 0)
(-0.00628829 5.21852e-05 0)
(-0.00667981 5.38893e-05 0)
(-0.00707244 5.52191e-05 0)
(-0.0074626 5.60955e-05 0)
(-0.00784632 5.64363e-05 0)
(-0.00821923 5.61582e-05 0)
(-0.00857664 5.51793e-05 0)
(-0.00891357 5.34211e-05 0)
(-0.0092248 5.0812e-05 0)
(-0.00950496 4.72905e-05 0)
(-0.0097486 4.28096e-05 0)
(-0.00995032 3.73449e-05 0)
(-0.0101049 3.09052e-05 0)
(-0.0102073 2.35162e-05 0)
(-0.010253 1.51357e-05 0)
(-0.0102373 5.677e-06 0)
(-0.0101568 -4.66093e-06 0)
(-0.0100087 -1.56659e-05 0)
(-0.00979104 -2.717e-05 0)
(-0.00950291 -3.90063e-05 0)
(-0.00914434 -5.09739e-05 0)
(-0.00871656 -6.28435e-05 0)
(-0.00822198 -7.4366e-05 0)
(-0.00766424 -8.52808e-05 0)
(-0.00704819 -9.53243e-05 0)
(-0.00637986 -0.00010424 0)
(-0.00566639 -0.000111786 0)
(-0.00491593 -0.000117749 0)
(-0.00413748 -0.00012195 0)
(-0.00334069 -0.000124257 0)
(-0.00253573 -0.000124585 0)
(-0.00173295 -0.000122909 0)
(-0.000942721 -0.000119262 0)
(-0.000175088 -0.000113766 0)
(0.000560246 -0.000106619 0)
(0.00125443 -9.78873e-05 0)
(0.00189972 -8.79118e-05 0)
(0.00248936 -7.69724e-05 0)
(0.00301797 -6.53697e-05 0)
(0.00348156 -5.3404e-05 0)
(0.00387761 -4.13815e-05 0)
(0.00420505 -2.95888e-05 0)
(0.0044642 -1.82822e-05 0)
(0.00465672 -7.68097e-06 0)
(0.0047854 2.03935e-06 0)
(0.00485406 1.07499e-05 0)
(0.00486731 1.83684e-05 0)
(0.00483038 2.48401e-05 0)
(0.00474892 3.01495e-05 0)
(0.00462878 3.43562e-05 0)
(0.00447584 3.75216e-05 0)
(0.00429586 3.97288e-05 0)
(0.00409433 4.10764e-05 0)
(0.0038764 4.16727e-05 0)
(0.00364672 4.16298e-05 0)
(0.00340949 4.10597e-05 0)
(0.00316834 4.00703e-05 0)
(0.00292635 3.87637e-05 0)
(0.00268607 3.72339e-05 0)
(0.00244953 3.5566e-05 0)
(0.00221827 3.38356e-05 0)
(0.00199338 3.21079e-05 0)
(0.0017756 3.04365e-05 0)
(0.00156536 2.88615e-05 0)
(0.00136287 2.74067e-05 0)
(0.00116828 2.60741e-05 0)
(0.00098177 2.48368e-05 0)
(0.000803784 2.36288e-05 0)
(0.000635222 2.23306e-05 0)
(0.000477713 2.07503e-05 0)
(0.000333918 1.86027e-05 0)
(0.000207808 1.54879e-05 0)
(0.000104759 1.09075e-05 0)
(3.10018e-05 4.51673e-06 0)
(-7.27434e-06 -3.04459e-06 0)
(-8.57178e-06 -8.59077e-06 0)
(4.32229e-06 -1.61027e-05 0)
(3.89086e-05 -3.86153e-05 0)
(8.91284e-05 -4.89874e-05 0)
(0.000142196 -4.90874e-05 0)
(0.000189005 -4.26363e-05 0)
(0.000224292 -3.27392e-05 0)
(0.000245498 -2.15346e-05 0)
(0.000251909 -1.03566e-05 0)
(0.000243942 5.93416e-08 0)
(0.000222635 9.40076e-06 0)
(0.000189254 1.76483e-05 0)
(0.000145 2.49429e-05 0)
(9.08677e-05 3.15136e-05 0)
(2.75545e-05 3.76285e-05 0)
(-4.45699e-05 4.35528e-05 0)
(-0.000125451 4.9526e-05 0)
(-0.000215319 5.5751e-05 0)
(-0.00031464 6.23905e-05 0)
(-0.000424077 6.95684e-05 0)
(-0.000544441 7.73758e-05 0)
(-0.000676658 8.58776e-05 0)
(-0.000821741 9.51203e-05 0)
(-0.000980769 0.000105139 0)
(-0.00115488 0.000115963 0)
(-0.00134524 0.000127621 0)
(-0.00155311 0.000140146 0)
(-0.00177975 0.000153574 0)
(-0.0020265 0.000167948 0)
(-0.00229477 0.000183318 0)
(-0.00258602 0.000199738 0)
(-0.00290176 0.000217266 0)
(-0.00324361 0.00023596 0)
(-0.00361319 0.000255875 0)
(-0.0040122 0.000277063 0)
(-0.00444235 0.00029956 0)
(-0.00490538 0.000323388 0)
(-0.00540296 0.000348549 0)
(-0.00593674 0.000375015 0)
(-0.00650821 0.000402725 0)
(-0.00711872 0.00043158 0)
(-0.00776939 0.000461435 0)
(-0.00846102 0.000492097 0)
(-0.00919407 0.000523315 0)
(-0.00996854 0.000554785 0)
(-0.0107839 0.000586138 0)
(-0.011639 0.000616943 0)
(-0.012532 0.000646707 0)
(-0.0134604 0.000674875 0)
(-0.0144207 0.00070083 0)
(-0.0154086 0.000723903 0)
(-0.016419 0.000743377 0)
(-0.0174456 0.000758495 0)
(-0.0184813 0.000768473 0)
(-0.0195179 0.000772515 0)
(-0.0205463 0.000769828 0)
(-0.0215566 0.000759637 0)
(-0.0225379 0.000741213 0)
(-0.0234787 0.000713888 0)
(-0.0243671 0.000677082 0)
(-0.0251903 0.000630326 0)
(-0.0259358 0.000573285 0)
(-0.0265906 0.00050578 0)
(-0.0271421 0.000427819 0)
(-0.0275783 0.000339621 0)
(-0.0278874 0.000241629 0)
(-0.0280594 0.000134414 0)
(-0.0280848 1.86602e-05 0)
(-0.0279546 -0.000103825 0)
(-0.0276618 -0.000232294 0)
(-0.0272025 -0.000365163 0)
(-0.0265743 -0.000500615 0)
(-0.0257767 -0.000636679 0)
(-0.0248118 -0.000771242 0)
(-0.0236842 -0.000902086 0)
(-0.0224007 -0.00102693 0)
(-0.0209709 -0.00114347 0)
(-0.0194068 -0.00124947 0)
(-0.0177226 -0.0013428 0)
(-0.0159349 -0.00142148 0)
(-0.0140621 -0.00148379 0)
(-0.0121244 -0.00152832 0)
(-0.0101432 -0.00155398 0)
(-0.0081409 -0.00156013 0)
(-0.00614043 -0.00154653 0)
(-0.00416473 -0.00151342 0)
(-0.00223628 -0.00146154 0)
(-0.000376662 -0.00139213 0)
(0.00139382 -0.00130664 0)
(0.00305684 -0.00120707 0)
(0.0045963 -0.00109575 0)
(0.00599865 -0.000975271 0)
(0.00725317 -0.000848281 0)
(0.00835212 -0.000717526 0)
(0.00929087 -0.000585723 0)
(0.0100679 -0.000455463 0)
(0.0106845 -0.000329128 0)
(0.0111448 -0.000208827 0)
(0.0114556 -9.6344e-05 0)
(0.0116255 6.90015e-06 0)
(0.011665 9.99109e-05 0)
(0.011586 0.000182055 0)
(0.0114013 0.000252999 0)
(0.011124 0.000312754 0)
(0.0107677 0.000361639 0)
(0.0103453 0.000400217 0)
(0.00986947 0.000429239 0)
(0.00935206 0.000449594 0)
(0.00880387 0.000462265 0)
(0.00823464 0.000468285 0)
(0.00765289 0.000468697 0)
(0.00706594 0.000464524 0)
(0.00647987 0.000456735 0)
(0.00589963 0.000446224 0)
(0.00532909 0.000433778 0)
(0.00477121 0.000420052 0)
(0.00422817 0.000405537 0)
(0.00370168 0.000390517 0)
(0.00319318 0.00037502 0)
(0.00270421 0.000358763 0)
(0.00223685 0.000341077 0)
(0.00179413 0.000320845 0)
(0.00138055 0.000296441 0)
(0.00100257 0.000265738 0)
(0.000668958 0.000226276 0)
(0.000390623 0.000175816 0)
(0.000179664 0.000113876 0)
(4.70323e-05 4.58734e-05 0)
(-2.86928e-06 -7.26957e-06 0)
(6.12064e-06 -4.11228e-05 0)
(4.97213e-05 -8.9118e-05 0)
(0.000107971 -0.000107661 0)
(0.00016566 -0.00010396 0)
(0.000211717 -8.58554e-05 0)
(0.000239814 -5.98031e-05 0)
(0.000246813 -3.04744e-05 0)
(0.000231781 -9.37993e-07 0)
(0.000195234 2.70215e-05 0)
(0.000138482 5.25943e-05 0)
(6.31377e-05 7.56289e-05 0)
(-2.92412e-05 9.64093e-05 0)
(-0.000137364 0.000115466 0)
(-0.000260336 0.000133438 0)
(-0.000397715 0.00015098 0)
(-0.000549499 0.000168701 0)
(-0.000716095 0.000187129 0)
(-0.00089826 0.000206699 0)
(-0.00109705 0.000227758 0)
(-0.00131374 0.000250568 0)
(-0.00154982 0.00027533 0)
(-0.00180691 0.000302194 0)
(-0.00208676 0.00033128 0)
(-0.00239121 0.000362691 0)
(-0.00272221 0.000396525 0)
(-0.00308178 0.00043288 0)
(-0.00347205 0.000471865 0)
(-0.00389521 0.000513597 0)
(-0.00435356 0.000558201 0)
(-0.00484948 0.000605809 0)
(-0.00538543 0.000656554 0)
(-0.00596396 0.000710559 0)
(-0.00658763 0.000767933 0)
(-0.00725907 0.000828754 0)
(-0.00798087 0.000893061 0)
(-0.00875558 0.000960837 0)
(-0.0095856 0.001032 0)
(-0.0104732 0.00110636 0)
(-0.0114203 0.00118367 0)
(-0.0124285 0.00126352 0)
(-0.013499 0.00134541 0)
(-0.0146324 0.00142866 0)
(-0.0158285 0.00151247 0)
(-0.0170864 0.00159587 0)
(-0.0184043 0.00167773 0)
(-0.0197793 0.00175676 0)
(-0.0212075 0.0018315 0)
(-0.0226836 0.00190038 0)
(-0.024201 0.00196166 0)
(-0.025752 0.00201352 0)
(-0.0273272 0.00205403 0)
(-0.028916 0.00208123 0)
(-0.0305064 0.00209314 0)
(-0.0320851 0.00208779 0)
(-0.0336376 0.00206331 0)
(-0.0351483 0.00201794 0)
(-0.0366008 0.00195011 0)
(-0.037978 0.00185846 0)
(-0.0392622 0.00174193 0)
(-0.0404357 0.00159979 0)
(-0.0414806 0.00143168 0)
(-0.0423797 0.00123768 0)
(-0.0431161 0.0010183 0)
(-0.0436741 0.000774609 0)
(-0.0440395 0.000508133 0)
(-0.0441996 0.00022079 0)
(-0.0441427 -8.5093e-05 0)
(-0.0438594 -0.00040533 0)
(-0.0433435 -0.00073722 0)
(-0.0425907 -0.00107694 0)
(-0.0415997 -0.00142012 0)
(-0.0403722 -0.00176204 0)
(-0.0389125 -0.00209777 0)
(-0.0372284 -0.0024222 0)
(-0.0353303 -0.00273015 0)
(-0.033232 -0.00301648 0)
(-0.0309501 -0.00327622 0)
(-0.0285039 -0.00350466 0)
(-0.0259154 -0.00369751 0)
(-0.0232089 -0.00385099 0)
(-0.0204108 -0.00396199 0)
(-0.0175489 -0.00402812 0)
(-0.0146525 -0.0040479 0)
(-0.0117514 -0.00402073 0)
(-0.00887565 -0.00394703 0)
(-0.00605502 -0.00382822 0)
(-0.00331833 -0.00366674 0)
(-0.000692932 -0.00346596 0)
(0.00179576 -0.00323 0)
(0.0041248 -0.00296375 0)
(0.00627439 -0.00267307 0)
(0.00822805 -0.00236385 0)
(0.00997283 -0.00204235 0)
(0.0114997 -0.0017149 0)
(0.0128035 -0.00138767 0)
(0.013883 -0.00106647 0)
(0.0147408 -0.00075664 0)
(0.0153828 -0.000462846 0)
(0.0158185 -0.000189004 0)
(0.0160598 6.18517e-05 0)
(0.0161208 0.000287531 0)
(0.0160176 0.00048665 0)
(0.0157674 0.000658615 0)
(0.015388 0.000803617 0)
(0.0148976 0.000922506 0)
(0.0143138 0.00101668 0)
(0.0136537 0.00108797 0)
(0.0129335 0.00113852 0)
(0.0121678 0.0011707 0)
(0.01137 0.00118699 0)
(0.0105518 0.00118986 0)
(0.00972329 0.00118174 0)
(0.00889301 0.00116487 0)
(0.00806799 0.00114128 0)
(0.00725392 0.00111266 0)
(0.00645541 0.00108029 0)
(0.00567627 0.00104494 0)
(0.00491992 0.00100675 0)
(0.0041898 0.000965099 0)
(0.00348992 0.000918481 0)
(0.00282542 0.000864395 0)
(0.00220314 0.000799316 0)
(0.00163215 0.00071883 0)
(0.00112395 0.000618152 0)
(0.000692259 0.000493364 0)
(0.000352129 0.000344138 0)
(0.000119027 0.000179789 0)
(5.21024e-06 3.23928e-05 0)
(6.52706e-06 -6.89051e-05 0)
(4.92909e-05 -0.000142036 0)
(0.000101647 -0.00016498 0)
(0.000147428 -0.000152079 0)
(0.000175059 -0.000116102 0)
(0.000178161 -6.7262e-05 0)
(0.000153707 -1.30374e-05 0)
(0.000100955 4.1572e-05 0)
(2.06521e-05 9.36037e-05 0)
(-8.56351e-05 0.000141655 0)
(-0.000216051 0.000185444 0)
(-0.000368833 0.000225435 0)
(-0.000542557 0.000262534 0)
(-0.000736281 0.000297851 0)
(-0.000949606 0.000332537 0)
(-0.00118267 0.000367679 0)
(-0.00143611 0.000404237 0)
(-0.00171102 0.000443018 0)
(-0.00200885 0.000484673 0)
(-0.00233137 0.000529718 0)
(-0.00268062 0.000578552 0)
(-0.00305882 0.000631493 0)
(-0.00346841 0.000688798 0)
(-0.00391195 0.000750693 0)
(-0.00439217 0.000817385 0)
(-0.00491189 0.000889083 0)
(-0.00547411 0.000965999 0)
(-0.0060819 0.00104835 0)
(-0.00673847 0.00113638 0)
(-0.00744713 0.00123028 0)
(-0.00821125 0.00133029 0)
(-0.00903429 0.00143658 0)
(-0.0099197 0.00154928 0)
(-0.0108709 0.00166845 0)
(-0.0118913 0.00179406 0)
(-0.012984 0.00192596 0)
(-0.0141519 0.00206385 0)
(-0.0153977 0.00220723 0)
(-0.0167234 0.00235543 0)
(-0.0181304 0.00250752 0)
(-0.0196195 0.00266233 0)
(-0.0211905 0.0028184 0)
(-0.0228422 0.00297401 0)
(-0.0245723 0.00312713 0)
(-0.0263768 0.00327544 0)
(-0.0282508 0.00341636 0)
(-0.0301873 0.00354703 0)
(-0.0321782 0.00366438 0)
(-0.0342132 0.00376514 0)
(-0.0362807 0.0038459 0)
(-0.0383671 0.00390318 0)
(-0.0404574 0.00393349 0)
(-0.0425351 0.00393341 0)
(-0.0445821 0.00389965 0)
(-0.0465793 0.00382918 0)
(-0.0485067 0.00371928 0)
(-0.0503434 0.00356763 0)
(-0.0520683 0.00337243 0)
(-0.0536601 0.00313242 0)
(-0.0550977 0.00284701 0)
(-0.0563606 0.00251629 0)
(-0.0574291 0.0021411 0)
(-0.0582848 0.00172308 0)
(-0.0589105 0.00126468 0)
(-0.0592915 0.00076922 0)
(-0.059415 0.000240641 0)
(-0.0592693 -0.000316607 0)
(-0.0588452 -0.000896534 0)
(-0.0581379 -0.00149292 0)
(-0.0571445 -0.00209902 0)
(-0.0558652 -0.00270751 0)
(-0.0543032 -0.00331061 0)
(-0.052465 -0.00390022 0)
(-0.05036 -0.00446803 0)
(-0.0480012 -0.00500571 0)
(-0.0454043 -0.00550501 0)
(-0.0425883 -0.00595797 0)
(-0.0395751 -0.00635709 0)
(-0.0363893 -0.0066955 0)
(-0.033058 -0.00696715 0)
(-0.0296105 -0.00716697 0)
(-0.0260779 -0.00729108 0)
(-0.0224928 -0.00733688 0)
(-0.0188889 -0.00730322 0)
(-0.0153002 -0.00719047 0)
(-0.0117607 -0.00700057 0)
(-0.00830392 -0.00673704 0)
(-0.00496204 -0.00640492 0)
(-0.00176535 -0.00601071 0)
(0.00125775 -0.00556206 0)
(0.00408214 -0.00506783 0)
(0.00668634 -0.00453768 0)
(0.00905218 -0.00398184 0)
(0.0111657 -0.00341076 0)
(0.0130174 -0.00283482 0)
(0.014602 -0.00226404 0)
(0.0159187 -0.00170777 0)
(0.0169708 -0.00117446 0)
(0.0177658 -0.00067143 0)
(0.0183145 -0.000204726 0)
(0.0186311 0.000220966 0)
(0.018732 0.00060237 0)
(0.018636 0.000937705 0)
(0.018363 0.00122641 0)
(0.017934 0.00146914 0)
(0.0173699 0.00166759 0)
(0.0166916 0.00182434 0)
(0.0159191 0.00194267 0)
(0.0150712 0.00202633 0)
(0.0141653 0.00207941 0)
(0.0132172 0.0021061 0)
(0.0122409 0.00211058 0)
(0.0112484 0.0020968 0)
(0.0102503 0.00206836 0)
(0.00925514 0.00202833 0)
(0.00827046 0.00197909 0)
(0.00730259 0.0019221 0)
(0.00635729 0.00185779 0)
(0.00544018 0.00178526 0)
(0.00455733 0.00170218 0)
(0.00371586 0.00160462 0)
(0.00292454 0.00148709 0)
(0.00219429 0.0013428 0)
(0.0015385 0.00116458 0)
(0.000972874 0.000946527 0)
(0.000515351 0.000687508 0)
(0.000187672 0.000397637 0)
(1.25271e-05 0.000110641 0)
(6.01605e-06 -9.41862e-05 0)
(4.03397e-05 -0.000186196 0)
(7.55428e-05 -0.000206551 0)
(9.59241e-05 -0.000177319 0)
(9.05601e-05 -0.000116592 0)
(5.37617e-05 -3.84832e-05 0)
(-1.68425e-05 4.67404e-05 0)
(-0.000121439 0.000132167 0)
(-0.000258838 0.000213698 0)
(-0.000427147 0.000289407 0)
(-0.000624283 0.000358951 0)
(-0.000848357 0.000423047 0)
(-0.00109791 0.000483053 0)
(-0.00137207 0.000540633 0)
(-0.00167058 0.000597524 0)
(-0.00199381 0.000655375 0)
(-0.0023427 0.00071566 0)
(-0.00271872 0.000779633 0)
(-0.00312378 0.000848326 0)
(-0.00356018 0.000922574 0)
(-0.00403053 0.00100305 0)
(-0.00453774 0.00109028 0)
(-0.00508492 0.00118474 0)
(-0.00567542 0.00128681 0)
(-0.00631278 0.00139687 0)
(-0.00700072 0.00151526 0)
(-0.0077431 0.00164236 0)
(-0.00854395 0.00177849 0)
(-0.00940742 0.00192401 0)
(-0.0103378 0.00207923 0)
(-0.0113393 0.00224442 0)
(-0.0124164 0.00241979 0)
(-0.0135733 0.00260542 0)
(-0.0148142 0.00280129 0)
(-0.0161431 0.00300718 0)
(-0.0175637 0.00322264 0)
(-0.0190791 0.00344698 0)
(-0.020692 0.00367919 0)
(-0.0224042 0.00391789 0)
(-0.0242167 0.00416135 0)
(-0.0261295 0.00440739 0)
(-0.028141 0.00465342 0)
(-0.0302486 0.0048964 0)
(-0.0324477 0.00513284 0)
(-0.0347323 0.00535883 0)
(-0.0370944 0.00557007 0)
(-0.0395242 0.00576192 0)
(-0.0420098 0.00592947 0)
(-0.0445373 0.00606758 0)
(-0.0470911 0.00617105 0)
(-0.0496538 0.00623465 0)
(-0.0522061 0.00625327 0)
(-0.0547275 0.00622205 0)
(-0.0571961 0.0061365 0)
(-0.0595892 0.00599259 0)
(-0.0618833 0.00578693 0)
(-0.0640549 0.00551683 0)
(-0.0660802 0.00518042 0)
(-0.0679358 0.00477675 0)
(-0.0695992 0.00430585 0)
(-0.0710487 0.00376877 0)
(-0.072264 0.00316762 0)
(-0.0732263 0.00250561 0)
(-0.0739187 0.00178704 0)
(-0.0743267 0.0010173 0)
(-0.0744384 0.00020276 0)
(-0.0742427 -0.000649422 0)
(-0.0737309 -0.00153101 0)
(-0.0728994 -0.00243284 0)
(-0.0717462 -0.00334513 0)
(-0.0702721 -0.00425747 0)
(-0.0684812 -0.00515897 0)
(-0.0663805 -0.00603835 0)
(-0.0639802 -0.00688413 0)
(-0.0612936 -0.00768482 0)
(-0.058337 -0.00842907 0)
(-0.0551298 -0.00910593 0)
(-0.0516945 -0.00970502 0)
(-0.0480564 -0.0102168 0)
(-0.0442434 -0.0106327 0)
(-0.0402859 -0.0109457 0)
(-0.0362165 -0.0111499 0)
(-0.0320694 -0.0112415 0)
(-0.0278804 -0.0112183 0)
(-0.0236862 -0.0110803 0)
(-0.0195238 -0.0108296 0)
(-0.0154301 -0.0104704 0)
(-0.0114412 -0.0100092 0)
(-0.00759179 -0.00945419 0)
(-0.00391458 -0.0088159 0)
(-0.000439676 -0.00810589 0)
(0.00280612 -0.00733752 0)
(0.00579957 -0.00652494 0)
(0.00852162 -0.00568292 0)
(0.0109576 -0.00482632 0)
(0.0130976 -0.00396976 0)
(0.0149364 -0.00312713 0)
(0.0164733 -0.00231129 0)
(0.0177126 -0.00153367 0)
(0.0186625 -0.000804045 0)
(0.0193351 -0.000130349 0)
(0.0197461 0.000481409 0)
(0.0199137 0.00102733 0)
(0.0198585 0.00150544 0)
(0.0196026 0.00191555 0)
(0.0191687 0.00225909 0)
(0.0185803 0.00253894 0)
(0.0178601 0.00275918 0)
(0.0170304 0.00292477 0)
(0.0161119 0.00304129 0)
(0.015124 0.00311468 0)
(0.0140844 0.00315097 0)
(0.0130086 0.00315598 0)
(0.0119106 0.0031351 0)
(0.0108022 0.003093 0)
(0.00969405 0.00303339 0)
(0.00859521 0.00295868 0)
(0.00751404 0.00286976 0)
(0.00645851 0.00276569 0)
(0.00543683 0.00264348 0)
(0.00445805 0.00249791 0)
(0.00353269 0.00232166 0)
(0.00267332 0.00210565 0)
(0.001895 0.00184011 0)
(0.00121552 0.00151652 0)
(0.000656224 0.00113105 0)
(0.000245958 0.000690523 0)
(1.82374e-05 0.000222388 0)
(4.95367e-06 -0.000113158 0)
(2.51628e-05 -0.000213139 0)
(3.41772e-05 -0.000221187 0)
(1.80509e-05 -0.000166957 0)
(-3.24819e-05 -7.38693e-05 0)
(-0.00012176 4.01666e-05 0)
(-0.000251045 0.000162209 0)
(-0.000419661 0.000283636 0)
(-0.000625755 0.00039939 0)
(-0.000866996 0.000507179 0)
(-0.00114106 0.000606734 0)
(-0.00144595 0.000699146 0)
(-0.00178027 0.000786328 0)
(-0.00214326 0.000870594 0)
(-0.00253492 0.000954345 0)
(-0.00295593 0.00103987 0)
(-0.00340762 0.00112923 0)
(-0.00389193 0.00122419 0)
(-0.00441127 0.00132623 0)
(-0.00496855 0.00143658 0)
(-0.00556703 0.00155623 0)
(-0.00621033 0.00168601 0)
(-0.00690236 0.00182663 0)
(-0.0076473 0.00197872 0)
(-0.0084496 0.00214286 0)
(-0.00931391 0.0023196 0)
(-0.0102451 0.00250945 0)
(-0.0112482 0.00271292 0)
(-0.0123283 0.00293047 0)
(-0.0134907 0.00316248 0)
(-0.0147407 0.00340926 0)
(-0.0160835 0.00367095 0)
(-0.0175243 0.00394755 0)
(-0.0190678 0.00423879 0)
(-0.0207186 0.0045441 0)
(-0.0224807 0.00486257 0)
(-0.0243572 0.00519286 0)
(-0.0263507 0.00553316 0)
(-0.0284625 0.00588112 0)
(-0.0306927 0.00623382 0)
(-0.03304 0.00658775 0)
(-0.0355013 0.00693876 0)
(-0.0380718 0.00728211 0)
(-0.0407447 0.00761245 0)
(-0.0435112 0.00792391 0)
(-0.0463602 0.00821013 0)
(-0.0492785 0.0084644 0)
(-0.0522506 0.00867972 0)
(-0.0552593 0.00884897 0)
(-0.0582851 0.00896504 0)
(-0.0613069 0.00902101 0)
(-0.0643021 0.00901027 0)
(-0.067247 0.00892674 0)
(-0.0701168 0.00876497 0)
(-0.0728862 0.00852036 0)
(-0.0755298 0.00818924 0)
(-0.0780223 0.00776899 0)
(-0.0803388 0.00725819 0)
(-0.0824551 0.00665663 0)
(-0.0843483 0.00596539 0)
(-0.0859966 0.00518687 0)
(-0.0873799 0.0043248 0)
(-0.0884798 0.00338421 0)
(-0.0892799 0.00237138 0)
(-0.0897659 0.00129386 0)
(-0.0899265 0.000160539 0)
(-0.0897514 -0.00101826 0)
(-0.0892315 -0.00223266 0)
(-0.0883635 -0.00347058 0)
(-0.087145 -0.00471939 0)
(-0.0855766 -0.00596575 0)
(-0.0836619 -0.0071958 0)
(-0.081407 -0.00839525 0)
(-0.0788214 -0.00954956 0)
(-0.0759172 -0.0106441 0)
(-0.0727101 -0.0116646 0)
(-0.0692184 -0.0125969 0)
(-0.0654639 -0.0134276 0)
(-0.0614714 -0.0141444 0)
(-0.0572684 -0.0147361 0)
(-0.0528855 -0.0151931 0)
(-0.0483558 -0.0155073 0)
(-0.0437145 -0.0156731 0)
(-0.0389989 -0.015687 0)
(-0.0342478 -0.015548 0)
(-0.0295009 -0.0152579 0)
(-0.0247982 -0.014821 0)
(-0.0201796 -0.0142447 0)
(-0.0156841 -0.0135388 0)
(-0.0113491 -0.0127157 0)
(-0.00720969 -0.01179 0)
(-0.00329805 -0.0107783 0)
(0.000357078 -0.00969861 0)
(0.00373105 -0.00856994 0)
(0.00680377 -0.00741179 0)
(0.00955992 -0.00624363 0)
(0.0119893 -0.00508428 0)
(0.0140867 -0.00395145 0)
(0.015852 -0.00286127 0)
(0.0172901 -0.00182793 0)
(0.0184103 -0.000863306 0)
(0.019226 2.32023e-05 0)
(0.0197541 0.00082467 0)
(0.0200147 0.00153693 0)
(0.0200298 0.00215827 0)
(0.0198232 0.00268919 0)
(0.0194197 0.00313231 0)
(0.0188442 0.00349198 0)
(0.0181215 0.003774 0)
(0.0172753 0.00398521 0)
(0.0163282 0.00413313 0)
(0.0153011 0.00422556 0)
(0.014213 0.00427023 0)
(0.0130814 0.00427442 0)
(0.0119213 0.00424457 0)
(0.0107465 0.00418587 0)
(0.00956917 0.00410194 0)
(0.00840028 0.00399437 0)
(0.00725034 0.0038624 0)
(0.00612981 0.00370263 0)
(0.00504973 0.0035088 0)
(0.0040224 0.0032719 0)
(0.0030621 0.00298058 0)
(0.00218572 0.00262216 0)
(0.00141343 0.00218454 0)
(0.000770354 0.00165922 0)
(0.00029227 0.00104622 0)
(2.24121e-05 0.000361479 0)
(3.54573e-06 -0.000123102 0)
(5.35824e-06 -0.000216293 0)
(-1.90659e-05 -0.000199861 0)
(-8.0857e-05 -0.000110496 0)
(-0.000186716 2.33376e-05 0)
(-0.0003391 0.000180195 0)
(-0.000537754 0.000344747 0)
(-0.000780803 0.000506969 0)
(-0.00106556 0.000661123 0)
(-0.00138915 0.000804793 0)
(-0.00174895 0.000937983 0)
(-0.0021429 0.00106233 0)
(-0.00256968 0.00118042 0)
(-0.00302875 0.00129534 0)
(-0.00352041 0.00141024 0)
(-0.00404577 0.00152813 0)
(-0.00460663 0.00165171 0)
(-0.00520546 0.00178333 0)
(-0.00584531 0.00192501 0)
(-0.00652976 0.00207839 0)
(-0.00726281 0.00224488 0)
(-0.0080489 0.00242567 0)
(-0.00889284 0.00262179 0)
(-0.00979975 0.00283414 0)
(-0.0107751 0.00306357 0)
(-0.0118245 0.00331085 0)
(-0.012954 0.00357672 0)
(-0.0141697 0.00386182 0)
(-0.0154778 0.00416672 0)
(-0.0168846 0.00449185 0)
(-0.0183964 0.00483747 0)
(-0.0200193 0.00520361 0)
(-0.0217592 0.00558999 0)
(-0.0236216 0.00599596 0)
(-0.0256113 0.00642041 0)
(-0.0277324 0.0068617 0)
(-0.0299881 0.00731757 0)
(-0.0323803 0.0077851 0)
(-0.0349096 0.00826059 0)
(-0.0375749 0.0087396 0)
(-0.0403732 0.00921684 0)
(-0.0432995 0.00968625 0)
(-0.0463467 0.010141 0)
(-0.0495053 0.0105736 0)
(-0.0527635 0.0109758 0)
(-0.056107 0.011339 0)
(-0.0595194 0.0116542 0)
(-0.0629818 0.0119124 0)
(-0.0664736 0.0121043 0)
(-0.0699722 0.0122211 0)
(-0.0734534 0.0122544 0)
(-0.0768922 0.0121964 0)
(-0.0802623 0.0120401 0)
(-0.0835372 0.0117795 0)
(-0.0866901 0.0114098 0)
(-0.0896946 0.0109276 0)
(-0.0925246 0.0103308 0)
(-0.0951548 0.00961868 0)
(-0.0975612 0.00879219 0)
(-0.0997208 0.00785371 0)
(-0.101612 0.00680717 0)
(-0.103215 0.005658 0)
(-0.104512 0.00441306 0)
(-0.105487 0.00308059 0)
(-0.106124 0.00167018 0)
(-0.106413 0.000193121 0)
(-0.106342 -0.00133755 0)
(-0.105903 -0.00291042 0)
(-0.10509 -0.00451065 0)
(-0.103901 -0.00612307 0)
(-0.102333 -0.00773166 0)
(-0.100389 -0.00931979 0)
(-0.0980725 -0.0108703 0)
(-0.095392 -0.0123656 0)
(-0.0923573 -0.0137882 0)
(-0.0889819 -0.0151203 0)
(-0.0852827 -0.0163449 0)
(-0.0812795 -0.0174454 0)
(-0.076996 -0.0184062 0)
(-0.0724588 -0.019213 0)
(-0.067698 -0.0198533 0)
(-0.0627466 -0.0203164 0)
(-0.0576407 -0.0205943 0)
(-0.0524189 -0.0206814 0)
(-0.0471218 -0.0205752 0)
(-0.0417919 -0.0202765 0)
(-0.0364726 -0.0197894 0)
(-0.0312077 -0.0191212 0)
(-0.0260409 -0.018283 0)
(-0.0210147 -0.0172888 0)
(-0.0161697 -0.0161556 0)
(-0.0115441 -0.0149031 0)
(-0.00717258 -0.0135531 0)
(-0.00308591 -0.0121289 0)
(0.000689633 -0.0106546 0)
(0.00413286 -0.00915481 0)
(0.00722795 -0.00765356 0)
(0.00996457 -0.00617392 0)
(0.012338 -0.00473721 0)
(0.0143488 -0.00336261 0)
(0.016003 -0.00206665 0)
(0.0173111 -0.000862917 0)
(0.0182881 0.000238108 0)
(0.0189529 0.00122909 0)
(0.0193269 0.00210616 0)
(0.0194342 0.0028682 0)
(0.0193003 0.00351689 0)
(0.0189518 0.00405633 0)
(0.0184154 0.00449266 0)
(0.0177174 0.0048336 0)
(0.0168831 0.00508797 0)
(0.0159367 0.00526519 0)
(0.0149005 0.00537482 0)
(0.0137951 0.00542602 0)
(0.0126391 0.00542708 0)
(0.0114493 0.00538486 0)
(0.0102411 0.00530432 0)
(0.00902835 0.00518803 0)
(0.00782414 0.00503566 0)
(0.00664132 0.00484364 0)
(0.00549307 0.00460492 0)
(0.00439365 0.00430894 0)
(0.00335923 0.00394199 0)
(0.0024088 0.00348811 0)
(0.00156514 0.00293069 0)
(0.000857175 0.0022549 0)
(0.000326851 0.00145137 0)
(2.5304e-05 0.000521487 0)
(1.93353e-06 -0.000121949 0)
(-1.79978e-05 -0.000190483 0)
(-8.17718e-05 -0.000135202 0)
(-0.000196773 8.14913e-07 0)
(-0.000366473 0.00018452 0)
(-0.000590926 0.00039134 0)
(-0.000867977 0.000604031 0)
(-0.0011943 0.000811547 0)
(-0.00156619 0.00100783 0)
(-0.00198014 0.00119066 0)
(-0.00243321 0.00136057 0)
(-0.00292325 0.00151995 0)
(-0.00344906 0.00167224 0)
(-0.00401041 0.0018214 0)
(-0.00460798 0.00197143 0)
(-0.00524337 0.00212615 0)
(-0.00591897 0.00228898 0)
(-0.0066379 0.00246294 0)
(-0.00740392 0.0026506 0)
(-0.0082214 0.00285415 0)
(-0.00909523 0.00307545 0)
(-0.0100308 0.00331612 0)
(-0.0110339 0.00357757 0)
(-0.0121107 0.00386106 0)
(-0.0132679 0.00416775 0)
(-0.0145122 0.00449867 0)
(-0.0158509 0.00485477 0)
(-0.0172912 0.00523686 0)
(-0.0188406 0.00564557 0)
(-0.0205064 0.00608132 0)
(-0.0222959 0.00654424 0)
(-0.0242162 0.00703409 0)
(-0.0262739 0.00755018 0)
(-0.0284749 0.00809125 0)
(-0.0308243 0.0086554 0)
(-0.0333262 0.00923997 0)
(-0.0359833 0.00984146 0)
(-0.038797 0.0104554 0)
(-0.0417665 0.0110765 0)
(-0.0448893 0.0116984 0)
(-0.0481605 0.0123135 0)
(-0.0515729 0.0129136 0)
(-0.0551167 0.0134894 0)
(-0.0587798 0.0140309 0)
(-0.0625471 0.0145274 0)
(-0.0664014 0.014968 0)
(-0.0703231 0.0153415 0)
(-0.0742903 0.0156365 0)
(-0.0782795 0.0158421 0)
(-0.0822656 0.015948 0)
(-0.0862222 0.0159445 0)
(-0.0901221 0.015823 0)
(-0.0939378 0.015576 0)
(-0.0976417 0.0151975 0)
(-0.101206 0.014683 0)
(-0.104604 0.0140293 0)
(-0.107809 0.0132354 0)
(-0.110797 0.0123015 0)
(-0.113543 0.0112297 0)
(-0.116023 0.0100239 0)
(-0.118218 0.00868938 0)
(-0.120106 0.00723329 0)
(-0.12167 0.00566413 0)
(-0.122892 0.00399188 0)
(-0.123758 0.00222804 0)
(-0.124253 0.000385934 0)
(-0.124368 -0.00151972 0)
(-0.124092 -0.00347532 0)
(-0.123416 -0.00546365 0)
(-0.122335 -0.00746735 0)
(-0.120847 -0.00946791 0)
(-0.11895 -0.0114461 0)
(-0.116647 -0.013382 0)
(-0.113942 -0.0152551 0)
(-0.110843 -0.0170447 0)
(-0.107361 -0.01873 0)
(-0.10351 -0.0202903 0)
(-0.0993078 -0.0217056 0)
(-0.0947766 -0.0229569 0)
(-0.0899412 -0.0240263 0)
(-0.0848308 -0.0248978 0)
(-0.0794781 -0.0255575 0)
(-0.0739193 -0.0259942 0)
(-0.0681942 -0.0261997 0)
(-0.0623452 -0.0261692 0)
(-0.0564173 -0.0259017 0)
(-0.0504575 -0.0254002 0)
(-0.0445139 -0.0246718 0)
(-0.0386351 -0.0237276 0)
(-0.0328693 -0.0225831 0)
(-0.0272634 -0.0212571 0)
(-0.0218621 -0.0197723 0)
(-0.0167069 -0.018154 0)
(-0.0118358 -0.0164297 0)
(-0.00728165 -0.0146285 0)
(-0.00307251 -0.0127802 0)
(0.000769469 -0.0109145 0)
(0.0042281 -0.00906031 0)
(0.00729338 -0.00724465 0)
(0.00996133 -0.00549237 0)
(0.0122339 -0.00382533 0)
(0.0141186 -0.00226201 0)
(0.015628 -0.000817187 0)
(0.0167791 0.000498076 0)
(0.0175928 0.00167654 0)
(0.0180929 0.00271514 0)
(0.0183053 0.00361389 0)
(0.0182579 0.00437603 0)
(0.0179792 0.00500755 0)
(0.0174975 0.00551657 0)
(0.0168411 0.00591289 0)
(0.0160367 0.00620729 0)
(0.0151101 0.00641101 0)
(0.014085 0.00653505 0)
(0.0129835 0.00658954 0)
(0.0118257 0.00658312 0)
(0.0106299 0.00652228 0)
(0.00941313 0.00641075 0)
(0.00819126 0.00624888 0)
(0.00697967 0.00603318 0)
(0.00579387 0.00575598 0)
(0.00465028 0.00540528 0)
(0.00356722 0.00496497 0)
(0.00256596 0.00441544 0)
(0.00167202 0.00373481 0)
(0.000917891 0.00290069 0)
(0.000350574 0.00189278 0)
(2.71298e-05 0.000696406 0)
(1.14709e-07 -0.000108074 0)
(-4.42707e-05 -0.000131514 0)
(-0.000152217 -2.11149e-05 0)
(-0.000326721 0.000174282 0)
(-0.000567401 0.000417634 0)
(-0.000871451 0.000681832 0)
(-0.00123449 0.000948242 0)
(-0.00165152 0.0012053 0)
(-0.00211767 0.00144707 0)
(-0.00262873 0.0016719 0)
(-0.00318138 0.00188118 0)
(-0.00377343 0.00207826 0)
(-0.00440386 0.00226766 0)
(-0.00507277 0.00245434 0)
(-0.00578134 0.00264328 0)
(-0.00653174 0.00283919 0)
(-0.00732707 0.00304631 0)
(-0.00817119 0.00326836 0)
(-0.00906874 0.0035086 0)
(-0.010025 0.0037698 0)
(-0.0110459 0.00405437 0)
(-0.0121379 0.00436443 0)
(-0.0133079 0.00470183 0)
(-0.0145634 0.00506826 0)
(-0.0159123 0.00546522 0)
(-0.0173628 0.00589405 0)
(-0.0189232 0.0063559 0)
(-0.0206022 0.00685171 0)
(-0.0224085 0.00738214 0)
(-0.0243505 0.00794751 0)
(-0.0264368 0.00854768 0)
(-0.028675 0.00918198 0)
(-0.0310724 0.00984908 0)
(-0.0336355 0.0105469 0)
(-0.0363693 0.0112723 0)
(-0.0392777 0.0120215 0)
(-0.0423628 0.0127892 0)
(-0.0456248 0.0135692 0)
(-0.0490617 0.014354 0)
(-0.0526691 0.0151348 0)
(-0.05644 0.0159019 0)
(-0.0603647 0.0166441 0)
(-0.0644307 0.0173497 0)
(-0.0686229 0.0180059 0)
(-0.0729235 0.0185997 0)
(-0.0773123 0.0191175 0)
(-0.0817666 0.0195459 0)
(-0.0862622 0.0198719 0)
(-0.0907731 0.020083 0)
(-0.0952721 0.0201676 0)
(-0.0997311 0.0201152 0)
(-0.104122 0.0199168 0)
(-0.108415 0.0195647 0)
(-0.112584 0.0190533 0)
(-0.116599 0.0183783 0)
(-0.120433 0.0175375 0)
(-0.12406 0.0165307 0)
(-0.127454 0.0153592 0)
(-0.130592 0.0140263 0)
(-0.13345 0.0125372 0)
(-0.136006 0.0108985 0)
(-0.138239 0.00911877 0)
(-0.140131 0.00720794 0)
(-0.141664 0.00517756 0)
(-0.14282 0.00304078 0)
(-0.143585 0.000812513 0)
(-0.143948 -0.00149123 0)
(-0.143896 -0.00385454 0)
(-0.143417 -0.00625808 0)
(-0.142506 -0.00868248 0)