/*--------------------------------*- C++ -*----------------------------------*\
| =========                 |                                                 |
| \\      /  F ield         | OpenFOAM: The Open Source CFD Toolbox           |
|  \\    /   O peration     | Version:  2406                                  |
|   \\  /    A nd           | Website:  www.openfoam.com                      |
|    \\/     M anipulation  |                                                 |
\*---------------------------------------------------------------------------*/
FoamFile
{
    version     2.0;
    format      ascii;
    arch        "LSB;label=32;scalar=64";
    class       volVectorField;
    location    "20.55";
    object      U;
}
// * * * * * * * * * * * * * * * * * * * * * * * * * * * * * * * * * * * * * //

dimensions      [0 1 -1 0 0 0 0];

internalField   nonuniform List<vector> 
3600
(
(3.83132e-05 -3.64878e-05 0)
(0.000225717 -8.54696e-05 0)
(0.000485871 -9.3218e-05 0)
(0.000707537 -8.07098e-05 0)
(0.000900201 -6.62829e-05 0)
(0.0010365 -5.20908e-05 0)
(0.00113911 -4.14829e-05 0)
(0.00119618 -2.97036e-05 0)
(0.00121337 -1.78717e-05 0)
(0.00117854 -2.63854e-06 0)
(0.00108603 1.4126e-05 0)
(0.000926042 3.4084e-05 0)
(0.000689773 5.54433e-05 0)
(0.000370596 7.94867e-05 0)
(-4.13484e-05 0.000105311 0)
(-0.000552077 0.000134318 0)
(-0.00117283 0.000166124 0)
(-0.00190949 0.000201552 0)
(-0.00277111 0.000239572 0)
(-0.00375774 0.000279473 0)
(-0.00486745 0.000318762 0)
(-0.0060846 0.000354862 0)
(-0.00738602 0.000383687 0)
(-0.00873123 0.000401025 0)
(-0.0100689 0.000401642 0)
(-0.0113306 0.000380643 0)
(-0.012439 0.000333176 0)
(-0.0133061 0.000255958 0)
(-0.013845 0.000147438 0)
(-0.0139719 9.2887e-06 0)
(-0.0136205 -0.000153535 0)
(-0.0127446 -0.000331991 0)
(-0.0113322 -0.000513747 0)
(-0.00940528 -0.000683625 0)
(-0.00702864 -0.000825531 0)
(-0.00430278 -0.000924059 0)
(-0.00136597 -0.000967021 0)
(0.00162377 -0.000947331 0)
(0.00449261 -0.000864771 0)
(0.00707854 -0.000726658 0)
(0.00923576 -0.000547116 0)
(0.010865 -0.000345413 0)
(0.0119072 -0.00014232 0)
(0.012367 4.26448e-05 0)
(0.0122864 0.00019534 0)
(0.0117593 0.0003074 0)
(0.0108862 0.000378027 0)
(0.00979216 0.000410617 0)
(0.00857243 0.00041322 0)
(0.00732949 0.000393487 0)
(0.00611442 0.000360874 0)
(0.0049886 0.000321127 0)
(0.00395502 0.000281813 0)
(0.00304338 0.000244357 0)
(0.00222521 0.000213762 0)
(0.00152118 0.000183659 0)
(0.000905134 0.000154599 0)
(0.000421297 0.000106324 0)
(9.23987e-05 4.49942e-05 0)
(-3.3113e-05 -3.38815e-05 0)
(9.19859e-05 -0.000228697 0)
(0.000417221 -0.000411267 0)
(0.000819378 -0.00042281 0)
(0.00113495 -0.000347937 0)
(0.00137503 -0.000262557 0)
(0.00150018 -0.000172504 0)
(0.00153659 -9.30736e-05 0)
(0.00146505 -4.21973e-06 0)
(0.00128389 9.10071e-05 0)
(0.000967866 0.000207286 0)
(0.000495056 0.000338946 0)
(-0.000160646 0.000492698 0)
(-0.00102696 0.000662138 0)
(-0.00212613 0.000851185 0)
(-0.00348545 0.00105577 0)
(-0.00512304 0.00127889 0)
(-0.00706177 0.00151662 0)
(-0.00931011 0.00176723 0)
(-0.0118738 0.00202102 0)
(-0.0147343 0.00226684 0)
(-0.0178591 0.00248586 0)
(-0.0211819 0.00265728 0)
(-0.0246147 0.00275518 0)
(-0.0280346 0.0027541 0)
(-0.0312997 0.00262828 0)
(-0.0342449 0.00235735 0)
(-0.0367012 0.00192711 0)
(-0.0384988 0.00133475 0)
(-0.0394868 0.000589225 0)
(-0.0395378 -0.000285553 0)
(-0.0385655 -0.00125248 0)
(-0.0365251 -0.00226092 0)
(-0.0334276 -0.00325117 0)
(-0.0293345 -0.00415675 0)
(-0.0243678 -0.00491119 0)
(-0.0186976 -0.00545242 0)
(-0.0125472 -0.00573088 0)
(-0.00617081 -0.00571454 0)
(0.00014665 -0.0053958 0)
(0.00612378 -0.00479393 0)
(0.0114859 -0.00395618 0)
(0.0160084 -0.00295351 0)
(0.0195136 -0.00187252 0)
(0.021915 -0.000804615 0)
(0.023192 0.000167983 0)
(0.0234258 0.000981345 0)
(0.022742 0.00159957 0)
(0.0213399 0.00201252 0)
(0.0194079 0.00223638 0)
(0.0171662 0.00230047 0)
(0.0147689 0.00224646 0)
(0.0123815 0.00211133 0)
(0.0100737 0.00193538 0)
(0.00794061 0.00173985 0)
(0.00597733 0.00154916 0)
(0.00424427 0.00134979 0)
(0.00271633 0.00114195 0)
(0.00148099 0.000862847 0)
(0.00055472 0.000527366 0)
(5.59056e-05 9.86117e-05 0)
(0.00010084 -0.000493971 0)
(0.000409581 -0.000804261 0)
(0.000744964 -0.00078329 0)
(0.000942797 -0.000594251 0)
(0.00101865 -0.000387965 0)
(0.000939749 -0.000170082 0)
(0.000726248 3.21556e-05 0)
(0.000354902 0.000260859 0)
(-0.000192521 0.000514705 0)
(-0.000954339 0.000824237 0)
(-0.00197454 0.00118192 0)
(-0.00329658 0.00160073 0)
(-0.00497089 0.00206941 0)
(-0.00703678 0.00259334 0)
(-0.00954031 0.00316296 0)
(-0.0125105 0.00377867 0)
(-0.0159773 0.00442648 0)
(-0.0199435 0.00509224 0)
(-0.0243986 0.00574462 0)
(-0.0292907 0.00634602 0)
(-0.0345404 0.00684407 0)
(-0.0400197 0.00718308 0)
(-0.0455713 0.00730207 0)
(-0.0509998 0.00714655 0)
(-0.0560959 0.00666993 0)
(-0.0606366 0.00584373 0)
(-0.0644107 0.00465849 0)
(-0.0672193 0.00313008 0)
(-0.068897 0.00129742 0)
(-0.0693097 -0.000775453 0)
(-0.0683699 -0.00300467 0)
(-0.066032 -0.00528727 0)
(-0.0623051 -0.00750852 0)
(-0.0572467 -0.0095449 0)
(-0.0509743 -0.0112739 0)
(-0.0436562 -0.0125794 0)
(-0.0355207 -0.0133647 0)
(-0.0268393 -0.0135597 0)
(-0.0179309 -0.013134 0)
(-0.00913142 -0.0121021 0)
(-0.000792483 -0.0105302 0)
(0.0067646 -0.00853142 0)
(0.0132491 -0.00625878 0)
(0.0184556 -0.00388741 0)
(0.0222482 -0.00159379 0)
(0.0246118 0.000465874 0)
(0.0256032 0.00217624 0)
(0.0253931 0.00347148 0)
(0.0241787 0.00434082 0)
(0.0222285 0.00481601 0)
(0.0197655 0.00496484 0)
(0.0170434 0.00486524 0)
(0.0142119 0.00460438 0)
(0.0114482 0.00424481 0)
(0.00880105 0.00384311 0)
(0.00639005 0.00339538 0)
(0.00420884 0.00289898 0)
(0.00239707 0.00226085 0)
(0.000965299 0.0014767 0)
(0.000139274 0.000469813 0)
(8.40774e-05 -0.000705297 0)
(0.000275597 -0.00105707 0)
(0.000397933 -0.000937687 0)
(0.000329411 -0.000587819 0)
(9.25446e-05 -0.00022605 0)
(-0.000327587 0.000153535 0)
(-0.00092555 0.000519877 0)
(-0.00173015 0.000943312 0)
(-0.00278609 0.00142787 0)
(-0.00414822 0.00202222 0)
(-0.00588999 0.00271805 0)
(-0.00807497 0.00353473 0)
(-0.0107812 0.00445531 0)
(-0.0140663 0.00548424 0)
(-0.0179964 0.00660218 0)
(-0.022608 0.00779971 0)
(-0.0279321 0.00904243 0)
(-0.0339544 0.0102904 0)
(-0.0406342 0.0114759 0)
(-0.0478712 0.0125207 0)
(-0.0555279 0.0133281 0)
(-0.0634113 0.0138026 0)
(-0.0713029 0.0138502 0)
(-0.0789525 0.0133966 0)
(-0.0861106 0.0123882 0)
(-0.0925248 0.0108034 0)
(-0.0979659 0.00865057 0)
(-0.102222 0.00597208 0)
(-0.105118 0.00283877 0)
(-0.106505 -0.000648746 0)
(-0.106277 -0.00436701 0)
(-0.104365 -0.0081695 0)
(-0.100747 -0.0118946 0)
(-0.0954459 -0.0153673 0)
(-0.0885457 -0.0184102 0)
(-0.0801822 -0.0208496 0)
(-0.0705614 -0.0225311 0)
(-0.0599463 -0.0233305 0)
(-0.0486685 -0.0231729 0)
(-0.0371013 -0.022043 0)
(-0.0256607 -0.0199993 0)
(-0.0147589 -0.0171731 0)
(-0.00479852 -0.0137644 0)
(0.00389026 -0.0100213 0)
(0.0110433 -0.00621442 0)
(0.016525 -0.00260402 0)
(0.0202883 0.000591298 0)
(0.0224267 0.00321666 0)
(0.023091 0.00519527 0)
(0.0225413 0.00652362 0)
(0.0210239 0.00726423 0)
(0.0188485 0.00751734 0)
(0.0162331 0.00740867 0)
(0.0134387 0.00704764 0)
(0.0105824 0.00653101 0)
(0.00785948 0.00588382 0)
(0.00529977 0.00510736 0)
(0.0031056 0.00409565 0)
(0.00129606 0.00279243 0)
(0.00020713 0.00104785 0)
(5.36802e-05 -0.000847808 0)
(6.4119e-05 -0.00112371 0)
(-0.000121008 -0.000823798 0)
(-0.000553042 -0.000261617 0)
(-0.0012035 0.000292742 0)
(-0.00206237 0.000871281 0)
(-0.00314822 0.00145155 0)
(-0.0044981 0.00213998 0)
(-0.00619444 0.00295123 0)
(-0.00831376 0.00395426 0)
(-0.010968 0.00514098 0)
(-0.0142445 0.00653608 0)
(-0.0182541 0.00811497 0)
(-0.0230729 0.00987662 0)
(-0.0287865 0.0117847 0)
(-0.035432 0.0138086 0)
(-0.0430318 0.0158784 0)
(-0.0515396 0.0179109 0)
(-0.06087 0.0197849 0)
(-0.0708613 0.0213687 0)
(-0.0813124 0.0225149 0)
(-0.0919651 0.0230894 0)
(-0.102546 0.022973 0)
(-0.112758 0.0220821 0)
(-0.122318 0.0203666 0)
(-0.130945 0.01782 0)
(-0.138393 0.0144723 0)
(-0.144433 0.0103938 0)
(-0.148877 0.0056866 0)
(-0.151562 0.000485894 0)
(-0.152364 -0.00504763 0)
(-0.151191 -0.0107264 0)
(-0.147993 -0.0163437 0)
(-0.142754 -0.0216738 0)
(-0.135514 -0.0264826 0)
(-0.126361 -0.0305323 0)
(-0.115458 -0.0335995 0)
(-0.103035 -0.035488 0)
(-0.0894124 -0.0360547 0)
(-0.0749821 -0.0352261 0)
(-0.0602157 -0.0330242 0)
(-0.0456193 -0.0295726 0)
(-0.0317222 -0.0251015 0)
(-0.0190026 -0.0199257 0)
(-0.00787592 -0.0144166 0)
(0.00138329 -0.00895399 0)
(0.00861333 -0.00388359 0)
(0.013823 0.000523664 0)
(0.0171075 0.00409411 0)
(0.0187013 0.00675852 0)
(0.018851 0.0085433 0)
(0.0178958 0.00954784 0)
(0.0161006 0.00991849 0)
(0.0137961 0.00980787 0)
(0.0111649 0.00935262 0)
(0.00848061 0.00862044 0)
(0.00582397 0.00762101 0)
(0.00346814 0.00625001 0)
(0.00146342 0.00437948 0)
(0.000237629 0.00177074 0)
(1.35882e-05 -0.000852178 0)
(-0.00020886 -0.00088371 0)
(-0.000778112 -0.000304876 0)
(-0.00165185 0.000521073 0)
(-0.00279804 0.0013017 0)
(-0.00417907 0.00211576 0)
(-0.00584977 0.00296658 0)
(-0.00786117 0.00400511 0)
(-0.0103461 0.00526178 0)
(-0.0134086 0.00682598 0)
(-0.0172076 0.00868903 0)
(-0.0218569 0.0108774 0)
(-0.0275028 0.0133543 0)
(-0.0342362 0.0161049 0)
(-0.0421553 0.0190644 0)
(-0.0512834 0.0221641 0)
(-0.0616149 0.0252799 0)
(-0.0730483 0.0282668 0)
(-0.0854315 0.0309367 0)
(-0.098522 0.0330981 0)
(-0.112041 0.0345555 0)
(-0.125656 0.035144 0)
(-0.139033 0.0347302 0)
(-0.151827 0.033233 0)
(-0.163725 0.0306172 0)
(-0.174434 0.0269015 0)
(-0.18371 0.0221465 0)
(-0.191339 0.0164567 0)
(-0.197154 0.00996772 0)
(-0.201013 0.00284715 0)
(-0.202809 -0.00471451 0)
(-0.202449 -0.0125004 0)
(-0.199868 -0.0202738 0)
(-0.195012 -0.0277738 0)
(-0.187863 -0.034723 0)
(-0.178434 -0.0408281 0)
(-0.166798 -0.0457961 0)
(-0.153097 -0.0493463 0)
(-0.137577 -0.0512411 0)
(-0.120587 -0.0513099 0)
(-0.102604 -0.0494894 0)
(-0.0842037 -0.0458448 0)
(-0.0660473 -0.040594 0)
(-0.0487996 -0.034094 0)
(-0.0330894 -0.0268158 0)
(-0.0193989 -0.0192804 0)
(-0.00805759 -0.0119959 0)
(0.00083027 -0.00538772 0)
(0.00730182 0.000239226 0)
(0.0115739 0.0047219 0)
(0.0139017 0.0080254 0)
(0.0146523 0.0102266 0)
(0.0141313 0.0114724 0)
(0.012726 0.0119462 0)
(0.01068 0.011817 0)
(0.00833833 0.0111987 0)
(0.00584163 0.0101127 0)
(0.00353021 0.0084644 0)
(0.0015017 0.00604924 0)
(0.000244016 0.00253804 0)
(-3.43086e-05 -0.00072185 0)
(-0.000530758 -0.000323048 0)
(-0.00154216 0.00064076 0)
(-0.0029164 0.00178519 0)
(-0.00462357 0.00283232 0)
(-0.00660053 0.00393278 0)
(-0.00895257 0.00513542 0)
(-0.011752 0.00664437 0)
(-0.0151947 0.00851055 0)
(-0.0194168 0.0108421 0)
(-0.0246308 0.0136269 0)
(-0.0309754 0.0168865 0)
(-0.0386298 0.0205636 0)
(-0.0476887 0.0246156 0)
(-0.0582456 0.0289304 0)
(-0.0702833 0.0333774 0)
(-0.0837374 0.0377545 0)
(-0.0984157 0.041834 0)
(-0.114067 0.045349 0)
(-0.130338 0.0480443 0)
(-0.146852 0.0496809 0)
(-0.16319 0.0500753 0)
(-0.178962 0.0490983 0)
(-0.193794 0.0466939 0)
(-0.207382 0.0428666 0)
(-0.219467 0.037683 0)
(-0.229861 0.031253 0)
(-0.23842 0.0237258 0)
(-0.245051 0.0152731 0)
(-0.249675 0.00608932 0)
(-0.252238 -0.00361864 0)
(-0.252676 -0.0136243 0)
(-0.250923 -0.0236852 0)
(-0.246894 -0.0335323 0)
(-0.240506 -0.0428721 0)
(-0.231667 -0.0513792 0)
(-0.220319 -0.0587068 0)
(-0.206445 -0.0644923 0)
(-0.190129 -0.0683877 0)
(-0.171573 -0.0700874 0)
(-0.151151 -0.069382 0)
(-0.129412 -0.0662011 0)
(-0.107092 -0.0606674 0)
(-0.0850423 -0.0531132 0)
(-0.0641705 -0.0440769 0)
(-0.0452868 -0.0342366 0)
(-0.0290264 -0.0243204 0)
(-0.0157201 -0.0149855 0)
(-0.00544481 -0.00673988 0)
(0.00199618 0.000112392 0)
(0.00689827 0.00544937 0)
(0.00969007 0.00931481 0)
(0.0107439 0.0118478 0)
(0.0105127 0.013258 0)
(0.00930523 0.0137411 0)
(0.00753273 0.0134568 0)
(0.00540084 0.0124402 0)
(0.00330935 0.010612 0)
(0.00141162 0.00770155 0)
(0.000224738 0.00330054 0)
(-9.25183e-05 -0.000399668 0)
(-0.000906958 0.000650495 0)
(-0.00241755 0.00211355 0)
(-0.00434913 0.00363401 0)
(-0.00668273 0.00499534 0)
(-0.00933553 0.00645043 0)
(-0.0124794 0.00811488 0)
(-0.0162163 0.0102531 0)
(-0.0208157 0.0129381 0)
(-0.026448 0.0162909 0)
(-0.0333797 0.0202888 0)
(-0.0417669 0.0249361 0)
(-0.0518093 0.0301399 0)
(-0.0635806 0.035807 0)
(-0.0771363 0.0417503 0)
(-0.0923734 0.0477466 0)
(-0.109119 0.0534882 0)
(-0.127041 0.058646 0)
(-0.145747 0.062868 0)
(-0.164749 0.0658433 0)
(-0.183566 0.0673121 0)
(-0.201714 0.0671058 0)
(-0.218792 0.0651406 0)
(-0.234456 0.0614265 0)
(-0.248479 0.0560432 0)
(-0.260699 0.0491313 0)
(-0.271053 0.0408639 0)
(-0.279515 0.0314382 0)
(-0.286109 0.0210546 0)
(-0.290858 0.00991837 0)
(-0.293789 -0.00177008 0)
(-0.294892 -0.0138037 0)
(-0.294129 -0.0259689 0)
(-0.291401 -0.0380273 0)
(-0.286572 -0.0497119 0)
(-0.279451 -0.0607085 0)
(-0.269829 -0.0706565 0)
(-0.257488 -0.0791426 0)
(-0.242269 -0.0857209 0)
(-0.224103 -0.0899361 0)
(-0.203106 -0.0913802 0)
(-0.179617 -0.0897545 0)
(-0.154269 -0.0849573 0)
(-0.127968 -0.0771516 0)
(-0.10186 -0.0668184 0)
(-0.0771637 -0.0547297 0)
(-0.0550105 -0.041861 0)
(-0.0362035 -0.0292111 0)
(-0.0211417 -0.0176349 0)
(-0.00976002 -0.00769994 0)
(-0.00173006 0.000315234 0)
(0.00348552 0.00639997 0)
(0.00638847 0.0106882 0)
(0.00754215 0.0134248 0)
(0.00735128 0.0148387 0)
(0.00630253 0.0151394 0)
(0.00467535 0.0143814 0)
(0.00292175 0.0125045 0)
(0.0012541 0.00919246 0)
(0.000195352 0.00398206 0)
(-0.000160314 0.000114618 0)
(-0.00133226 0.00204648 0)
(-0.00339174 0.00412463 0)
(-0.0059303 0.00608214 0)
(-0.00895246 0.00781917 0)
(-0.0123647 0.00972409 0)
(-0.0164222 0.012 0)
(-0.0212632 0.0149752 0)
(-0.0272374 0.0187424 0)
(-0.0345449 0.0234243 0)
(-0.0434991 0.0289744 0)
(-0.0542542 0.0353606 0)
(-0.0670032 0.0424285 0)
(-0.0817556 0.0499993 0)
(-0.0984757 0.0577716 0)
(-0.116912 0.0653906 0)
(-0.136724 0.072416 0)
(-0.157392 0.0784073 0)
(-0.178363 0.0829406 0)
(-0.19902 0.0856835 0)
(-0.218821 0.0864054 0)
(-0.237281 0.08501 0)
(-0.254062 0.081513 0)
(-0.268932 0.0760356 0)
(-0.28181 0.0687633 0)
(-0.292692 0.059927 0)
(-0.301676 0.0497659 0)
(-0.308882 0.0385183 0)
(-0.31447 0.0263997 0)
(-0.318571 0.0136073 0)
(-0.321307 0.000313322 0)
(-0.322735 -0.0133198 0)
(-0.322868 -0.0271362 0)
(-0.321631 -0.0409638 0)
(-0.318877 -0.0546043 0)
(-0.314363 -0.0678068 0)
(-0.307772 -0.080256 0)
(-0.298712 -0.0915508 0)
(-0.286769 -0.101206 0)
(-0.271545 -0.108656 0)
(-0.252762 -0.113299 0)
(-0.230349 -0.114556 0)
(-0.204565 -0.111983 0)
(-0.176075 -0.105384 0)
(-0.146006 -0.0949487 0)
(-0.115847 -0.0813257 0)
(-0.0872884 -0.0656153 0)
(-0.0618679 -0.0491946 0)
(-0.0406865 -0.0334524 0)
(-0.024149 -0.0194658 0)
(-0.0120687 -0.00786404 0)
(-0.00381479 0.00119639 0)
(0.00131751 0.00783297 0)
(0.00408625 0.0123518 0)
(0.00506006 0.0150449 0)
(0.00483988 0.0161929 0)
(0.00380081 0.0158885 0)
(0.00245132 0.0141014 0)
(0.00106454 0.0104972 0)
(0.000161536 0.00458105 0)
(-0.000241185 0.000879495 0)
(-0.00181534 0.00395186 0)
(-0.00447619 0.00676653 0)
(-0.00767483 0.00922981 0)
(-0.0114542 0.0114236 0)
(-0.0157208 0.0139069 0)
(-0.0208279 0.0169879 0)
(-0.026953 0.0210559 0)
(-0.0345252 0.0262131 0)
(-0.0437612 0.032564 0)
(-0.0550019 0.0400169 0)
(-0.0683658 0.0484708 0)
(-0.0839927 0.057671 0)
(-0.101765 0.0673039 0)
(-0.121485 0.0769072 0)
(-0.142686 0.0859593 0)
(-0.164814 0.0938778 0)
(-0.187147 0.100131 0)
(-0.208997 0.104273 0)
(-0.22968 0.106016 0)
(-0.248684 0.105237 0)
(-0.265619 0.10198 0)
(-0.280309 0.0964142 0)
(-0.292709 0.0888047 0)
(-0.302936 0.0794556 0)
(-0.311171 0.068683 0)
(-0.317674 0.0567768 0)
(-0.322698 0.0439941 0)
(-0.326507 0.0305424 0)
(-0.329316 0.0165902 0)
(-0.331314 0.00226338 0)
(-0.332616 -0.0123356 0)
(-0.333289 -0.0271239 0)
(-0.333309 -0.0420144 0)
(-0.332577 -0.0569049 0)
(-0.330873 -0.0716483 0)
(-0.327878 -0.0860332 0)
(-0.32313 -0.0997484 0)
(-0.316065 -0.112363 0)
(-0.306021 -0.123302 0)
(-0.292326 -0.131857 0)
(-0.274391 -0.137216 0)
(-0.251876 -0.138561 0)
(-0.224851 -0.135198 0)
(-0.193976 -0.126767 0)
(-0.160569 -0.113435 0)
(-0.126575 -0.0960588 0)
(-0.0942582 -0.0761655 0)
(-0.0657531 -0.0557138 0)
(-0.0424869 -0.0365893 0)
(-0.0249127 -0.0201638 0)
(-0.0125539 -0.00702372 0)
(-0.00451075 0.00282198 0)
(0.000264737 0.00975181 0)
(0.00261334 0.0141723 0)
(0.00332934 0.0164863 0)
(0.00293062 0.0168649 0)
(0.00200602 0.0153325 0)
(0.000898094 0.0115699 0)
(0.000136216 0.00507679 0)
(-0.000332956 0.00189826 0)
(-0.00234714 0.00637357 0)
(-0.00565404 0.0100451 0)
(-0.00955936 0.0130892 0)
(-0.0141618 0.0158419 0)
(-0.0193779 0.0190658 0)
(-0.0256707 0.0231862 0)
(-0.0332524 0.0286411 0)
(-0.0426215 0.0355233 0)
(-0.0539861 0.0438903 0)
(-0.06768 0.0535713 0)
(-0.0837346 0.0643502 0)
(-0.102171 0.0758169 0)
(-0.122671 0.0874654 0)
(-0.144807 0.0986296 0)
(-0.167852 0.108608 0)
(-0.191038 0.116703 0)
(-0.213488 0.122354 0)
(-0.234467 0.125181 0)
(-0.253343 0.125039 0)
(-0.269756 0.121994 0)
(-0.283525 0.116292 0)
(-0.294718 0.108286 0)
(-0.303519 0.0983876 0)
(-0.31025 0.086998 0)
(-0.315246 0.0744854 0)
(-0.318879 0.0611527 0)
(-0.321465 0.0472417 0)
(-0.323306 0.0329256 0)
(-0.324629 0.0183278 0)
(-0.325634 0.00352276 0)
(-0.326451 -0.0114433 0)
(-0.327181 -0.0265506 0)
(-0.327851 -0.0417854 0)
(-0.328444 -0.0571351 0)
(-0.328841 -0.072562 0)
(-0.328828 -0.0879858 0)
(-0.328038 -0.103244 0)
(-0.325946 -0.118055 0)
(-0.32183 -0.131968 0)
(-0.31481 -0.144329 0)
(-0.303894 -0.154261 0)
(-0.288124 -0.160695 0)
(-0.266771 -0.162478 0)
(-0.239611 -0.158568 0)
(-0.207185 -0.148324 0)
(-0.171007 -0.131842 0)
(-0.133516 -0.110221 0)
(-0.0977344 -0.0855883 0)
(-0.0665076 -0.0606694 0)
(-0.0416909 -0.0380418 0)
(-0.0236413 -0.0193072 0)
(-0.0115568 -0.00497792 0)
(-0.00408632 0.0052955 0)
(6.91778e-06 0.0120777 0)
(0.00183331 0.0159792 0)
(0.0021367 0.017323 0)
(0.00164086 0.0162394 0)
(0.000779955 0.0124647 0)
(0.000123423 0.00551394 0)
(-0.000438729 0.0032304 0)
(-0.00293314 0.00939528 0)
(-0.00693012 0.0140503 0)
(-0.0115894 0.0177639 0)
(-0.017082 0.0212054 0)
(-0.0233427 0.0253699 0)
(-0.0309473 0.0308017 0)
(-0.0401298 0.037963 0)
(-0.0514348 0.0469059 0)
(-0.0650247 0.0575978 0)
(-0.0811771 0.0697407 0)
(-0.0997706 0.082941 0)
(-0.120636 0.096571 0)
(-0.143186 0.109881 0)
(-0.166728 0.121988 0)
(-0.190287 0.132042 0)
(-0.212945 0.13931 0)
(-0.233785 0.143312 0)
(-0.252175 0.143852 0)
(-0.267681 0.14103 0)
(-0.280221 0.135167 0)
(-0.289902 0.126737 0)
(-0.297061 0.116261 0)
(-0.302091 0.104252 0)
(-0.305459 0.091154 0)
(-0.307572 0.0773279 0)
(-0.308818 0.0630384 0)
(-0.309489 0.0484739 0)
(-0.309836 0.0337506 0)
(-0.310027 0.0189393 0)
(-0.310213 0.00406923 0)
(-0.310486 -0.0108518 0)
(-0.310942 -0.0258394 0)
(-0.311636 -0.0409193 0)
(-0.312621 -0.0561301 0)
(-0.313894 -0.0715094 0)
(-0.315407 -0.0870849 0)
(-0.316996 -0.102845 0)
(-0.318353 -0.118701 0)
(-0.318949 -0.134427 0)
(-0.318003 -0.149591 0)
(-0.314446 -0.163478 0)
(-0.306986 -0.17504 0)
(-0.294234 -0.182907 0)
(-0.274984 -0.185502 0)
(-0.248575 -0.181299 0)
(-0.215331 -0.169256 0)
(-0.176899 -0.149327 0)
(-0.136309 -0.122937 0)
(-0.0974769 -0.0930089 0)
(-0.064135 -0.0633637 0)
(-0.0385046 -0.0373328 0)
(-0.0207305 -0.0167538 0)
(-0.00944701 -0.00173898 0)
(-0.00296002 0.00836808 0)
(0.00030195 0.0144829 0)
(0.0014333 0.0171898 0)
(0.00138535 0.0168141 0)
(0.000729919 0.0132026 0)
(0.000128656 0.00591195 0)
(-0.000553363 0.00487383 0)
(-0.00355372 0.0130099 0)
(-0.00826936 0.018772 0)
(-0.0137151 0.0232516 0)
(-0.0201499 0.0275318 0)
(-0.0275297 0.032859 0)
(-0.0365376 0.0398863 0)
(-0.0474059 0.0490616 0)
(-0.0606907 0.0603539 0)
(-0.0764587 0.0735856 0)
(-0.0948708 0.0882703 0)
(-0.115584 0.103767 0)
(-0.138178 0.119175 0)
(-0.161765 0.13348 0)
(-0.185413 0.145615 0)
(-0.207979 0.154674 0)
(-0.228538 0.160016 0)
(-0.246297 0.161386 0)
(-0.26089 0.158887 0)
(-0.272207 0.152935 0)
(-0.280509 0.144121 0)
(-0.286189 0.133107 0)
(-0.289802 0.120518 0)
(-0.291854 0.106889 0)
(-0.29285 0.0926252 0)
(-0.293159 0.0780172 0)
(-0.293092 0.0632472 0)
(-0.292834 0.0484253 0)
(-0.292531 0.0336036 0)
(-0.292251 0.018807 0)
(-0.292062 0.00403656 0)
(-0.291997 -0.0107135 0)
(-0.292117 -0.0254621 0)
(-0.292474 -0.0402359 0)
(-0.293152 -0.0550782 0)
(-0.294226 -0.0700475 0)
(-0.295781 -0.0852201 0)
(-0.29785 -0.100679 0)
(-0.300398 -0.116493 0)
(-0.303223 -0.132667 0)
(-0.305895 -0.149069 0)
(-0.30764 -0.16533 0)
(-0.307294 -0.180711 0)
(-0.303292 -0.194013 0)
(-0.293814 -0.203529 0)
(-0.277094 -0.207165 0)
(-0.251926 -0.20278 0)
(-0.218302 -0.188781 0)
(-0.177976 -0.164942 0)
(-0.134653 -0.133115 0)
(-0.093344 -0.0974043 0)
(-0.0587469 -0.0629823 0)
(-0.0333206 -0.0341023 0)
(-0.0166382 -0.0123953 0)
(-0.00674107 0.00246825 0)
(-0.00148595 0.0117393 0)
(0.000725006 0.0163926 0)
(0.00120365 0.0170852 0)
(0.000736211 0.0138525 0)
(0.000149586 0.00632835 0)
(-0.000678584 0.00688124 0)
(-0.00420719 0.0172878 0)
(-0.00966187 0.0242875 0)
(-0.0159187 0.0296454 0)
(-0.0233336 0.034938 0)
(-0.0318807 0.04167 0)
(-0.0423326 0.0505774 0)
(-0.0548857 0.0620405 0)
(-0.0700631 0.0758886 0)
(-0.0877813 0.0917308 0)
(-0.108025 0.108824 0)
(-0.130176 0.126217 0)
(-0.15354 0.142713 0)
(-0.17696 0.157065 0)
(-0.199351 0.168123 0)
(-0.219556 0.175068 0)
(-0.236817 0.177518 0)
(-0.250633 0.175568 0)
(-0.261018 0.169701 0)
(-0.26823 0.160645 0)
(-0.272842 0.149209 0)
(-0.275446 0.136153 0)
(-0.276691 0.122099 0)
(-0.277071 0.107509 0)
(-0.277012 0.0926814 0)
(-0.276755 0.0777901 0)
(-0.276475 0.0629153 0)
(-0.27622 0.0480881 0)
(-0.276023 0.0333091 0)
(-0.275855 0.0185757 0)
(-0.275714 0.00388245 0)
(-0.27558 -0.0107686 0)
(-0.275482 -0.0253779 0)
(-0.275449 -0.0399483 0)
(-0.275568 -0.0544975 0)
(-0.275935 -0.0690644 0)
(-0.276695 -0.0837176 0)
(-0.277992 -0.0985629 0)
(-0.279978 -0.113736 0)
(-0.282733 -0.129391 0)
(-0.286214 -0.145641 0)
(-0.290119 -0.162483 0)
(-0.29377 -0.179641 0)
(-0.295967 -0.196402 0)
(-0.294942 -0.211423 0)
(-0.288462 -0.222636 0)
(-0.27417 -0.227339 0)
(-0.25025 -0.222621 0)
(-0.216286 -0.20622 0)
(-0.174174 -0.177697 0)
(-0.12844 -0.139642 0)
(-0.0854093 -0.0977397 0)
(-0.0507475 -0.0590139 0)
(-0.0267264 -0.0282319 0)
(-0.0120012 -0.00659683 0)
(-0.00389908 0.00722212 0)
(-0.000170993 0.0146917 0)
(0.00101538 0.0169767 0)
(0.000772255 0.0144152 0)
(0.000183039 0.00678116 0)
(-0.000804906 0.00923167 0)
(-0.00485879 0.0221889 0)
(-0.0110459 0.0305502 0)
(-0.0181098 0.0369004 0)
(-0.0265076 0.0433808 0)
(-0.03622 0.0517445 0)
(-0.048082 0.0627695 0)
(-0.062214 0.0767035 0)
(-0.0790573 0.0931733 0)
(-0.0983253 0.111505 0)
(-0.119781 0.130637 0)
(-0.142512 0.149276 0)
(-0.165581 0.165952 0)
(-0.187651 0.179281 0)
(-0.207638 0.188184 0)
(-0.224542 0.192105 0)
(-0.237933 0.191062 0)
(-0.247705 0.185583 0)
(-0.254272 0.176522 0)
(-0.258205 0.164851 0)
(-0.260271 0.151478 0)
(-0.261121 0.137139 0)
(-0.261358 0.122348 0)
(-0.26135 0.107421 0)
(-0.261365 0.0925083 0)
(-0.261481 0.0776586 0)
(-0.26173 0.0628623 0)
(-0.262043 0.0480947 0)
(-0.262369 0.0333318 0)
(-0.262618 0.0185678 0)
(-0.262751 0.00381075 0)
(-0.262718 -0.0109154 0)
(-0.26253 -0.0255814 0)
(-0.262198 -0.0401582 0)
(-0.261795 -0.0546269 0)
(-0.261407 -0.06899 0)
(-0.26118 -0.0832795 0)
(-0.261284 -0.0975754 0)
(-0.261939 -0.112007 0)
(-0.263371 -0.126769 0)
(-0.265792 -0.142097 0)
(-0.269294 -0.158233 0)
(-0.273737 -0.175308 0)
(-0.278553 -0.19318 0)
(-0.282557 -0.211169 0)
(-0.283826 -0.227795 0)
(-0.279731 -0.240574 0)
(-0.267348 -0.246085 0)
(-0.244213 -0.240511 0)
(-0.209555 -0.22079 0)
(-0.165504 -0.18644 0)
(-0.117716 -0.141174 0)
(-0.0740285 -0.0931132 0)
(-0.0408562 -0.0511053 0)
(-0.0195377 -0.0201148 0)
(-0.00743042 0.00019392 0)
(-0.00152274 0.0117288 0)
(0.000689764 0.0163614 0)
(0.000788659 0.0148794 0)
(0.000220415 0.00729626 0)
(-0.000932221 0.011958 0)
(-0.00549874 0.0277539 0)
(-0.0123955 0.0376062 0)
(-0.0202437 0.0450723 0)
(-0.0295949 0.0529198 0)
(-0.040418 0.0631243 0)
(-0.0535733 0.0764509 0)
(-0.069064 0.0929401 0)
(-0.0872049 0.111948 0)
(-0.107471 0.13245 0)
(-0.12939 0.153033 0)
(-0.151781 0.17207 0)
(-0.173548 0.187909 0)
(-0.193314 0.199177 0)
(-0.210158 0.205052 0)
(-0.223386 0.205395 0)
(-0.232986 0.200715 0)
(-0.239254 0.191967 0)
(-0.242932 0.180292 0)
(-0.244767 0.166772 0)
(-0.245571 0.152279 0)
(-0.24591 0.137408 0)
(-0.246235 0.122493 0)
(-0.246728 0.107668 0)
(-0.247484 0.0929388 0)
(-0.248432 0.0782551 0)
(-0.249502 0.0635507 0)
(-0.250551 0.048779 0)
(-0.251492 0.0339193 0)
(-0.252211 0.0189818 0)
(-0.252663 0.00400011 0)
(-0.252793 -0.0109753 0)
(-0.252606 -0.025885 0)
(-0.252104 -0.0406708 0)
(-0.251345 -0.0552798 0)
(-0.250391 -0.0696798 0)
(-0.249363 -0.0838595 0)
(-0.248402 -0.0978549 0)
(-0.247717 -0.111747 0)
(-0.247557 -0.125704 0)
(-0.248228 -0.139963 0)
(-0.250037 -0.154864 0)
(-0.253217 -0.170769 0)
(-0.257773 -0.187978 0)
(-0.263248 -0.206473 0)
(-0.268481 -0.225615 0)
(-0.271366 -0.243725 0)
(-0.268917 -0.257804 0)
(-0.257607 -0.263566 0)
(-0.234431 -0.256106 0)
(-0.198342 -0.231603 0)
(-0.152074 -0.189773 0)
(-0.102762 -0.136473 0)
(-0.0599969 -0.0828795 0)
(-0.0301523 -0.039756 0)
(-0.0126088 -0.0103926 0)
(-0.00362993 0.0069179 0)
(8.16535e-05 0.0149611 0)
(0.000732615 0.0151369 0)
(0.000254048 0.00785028 0)
(-0.00104649 0.0150051 0)
(-0.00607765 0.0338898 0)
(-0.013624 0.0453483 0)
(-0.0221935 0.0540404 0)
(-0.0324171 0.0634021 0)
(-0.0442286 0.0755898 0)
(-0.0584744 0.0912934 0)
(-0.0750047 0.110273 0)
(-0.0939756 0.131556 0)
(-0.114613 0.153727 0)
(-0.136227 0.175019 0)
(-0.157442 0.193541 0)
(-0.177123 0.207589 0)
(-0.193998 0.215985 0)
(-0.207449 0.218323 0)
(-0.21717 0.214987 0)
(-0.223567 0.20698 0)
(-0.227256 0.195595 0)
(-0.229169 0.182118 0)
(-0.230073 0.167594 0)
(-0.230689 0.152733 0)
(-0.231401 0.137914 0)
(-0.232465 0.123263 0)
(-0.233876 0.108748 0)
(-0.235589 0.0942672 0)
(-0.237435 0.0797107 0)
(-0.239291 0.0649979 0)
(-0.24099 0.0500902 0)
(-0.242443 0.0349908 0)
(-0.243543 0.019737 0)
(-0.244255 0.00439156 0)
(-0.24453 -0.0109693 0)
(-0.244381 -0.0262602 0)
(-0.243807 -0.041401 0)
(-0.242856 -0.0563133 0)
(-0.241572 -0.0709401 0)
(-0.240044 -0.0852353 0)
(-0.238369 -0.0991952 0)
(-0.236706 -0.112844 0)
(-0.235254 -0.126289 0)
(-0.234296 -0.139705 0)
(-0.234183 -0.153406 0)
(-0.235315 -0.167808 0)
(-0.238058 -0.183444 0)
(-0.242543 -0.200766 0)
(-0.248426 -0.219914 0)
(-0.25449 -0.240221 0)
(-0.258447 -0.259717 0)
(-0.256826 -0.274692 0)
(-0.245589 -0.279743 0)
(-0.221202 -0.268781 0)
(-0.182759 -0.23727 0)
(-0.134011 -0.186071 0)
(-0.084266 -0.12428 0)
(-0.0446142 -0.067373 0)
(-0.0199093 -0.0258109 0)
(-0.00678626 -0.000482738 0)
(-0.00094873 0.0124034 0)
(0.000553733 0.0150397 0)
(0.000275982 0.00841403 0)
(-0.00114676 0.0183737 0)
(-0.00658197 0.0405941 0)
(-0.0146973 0.0537767 0)
(-0.0238997 0.0638013 0)
(-0.0348742 0.0748012 0)
(-0.0474936 0.0890621 0)
(-0.0625525 0.107132 0)
(-0.0797253 0.128422 0)
(-0.0989974 0.151588 0)
(-0.119364 0.174806 0)
(-0.139975 0.196003 0)
(-0.15936 0.213133 0)
(-0.176471 0.224613 0)
(-0.190267 0.229622 0)
(-0.200505 0.228298 0)
(-0.20727 0.221563 0)
(-0.211312 0.210838 0)
(-0.21343 0.197613 0)
(-0.214594 0.183162 0)
(-0.215465 0.168357 0)
(-0.216581 0.153671 0)
(-0.218114 0.139241 0)
(-0.220137 0.125008 0)
(-0.222503 0.110817 0)
(-0.225083 0.0965061 0)
(-0.227664 0.0819532 0)
(-0.230116 0.0670935 0)
(-0.23228 0.0519155 0)
(-0.234084 0.036455 0)
(-0.235438 0.0207781 0)
(-0.236323 0.00497544 0)
(-0.236702 -0.0108555 0)
(-0.236594 -0.0266082 0)
(-0.236003 -0.0421872 0)
(-0.234974 -0.0574961 0)
(-0.23354 -0.0724643 0)
(-0.231771 -0.0870233 0)
(-0.22973 -0.101146 0)
(-0.227524 -0.114812 0)
(-0.225284 -0.128074 0)
(-0.22321 -0.14102 0)
(-0.221589 -0.153881 0)
(-0.220808 -0.166994 0)
(-0.221356 -0.180918 0)
(-0.223702 -0.196317 0)
(-0.228132 -0.213869 0)
(-0.234323 -0.233819 0)
(-0.24101 -0.255423 0)
(-0.245512 -0.276202 0)
(-0.243902 -0.291421 0)
(-0.23148 -0.294292 0)
(-0.204561 -0.277331 0)
(-0.162717 -0.23598 0)
(-0.111731 -0.173383 0)
(-0.063482 -0.104419 0)
(-0.0297391 -0.0476836 0)
(-0.011242 -0.0113886 0)
(-0.00252107 0.00817355 0)
(0.000218136 0.0143578 0)
(0.000280904 0.00892118 0)
(-0.0012163 0.0219638 0)
(-0.00695532 0.0477073 0)
(-0.0155194 0.0627077 0)
(-0.0252242 0.0741374 0)
(-0.0367783 0.086834 0)
(-0.0499701 0.103156 0)
(-0.0655122 0.123452 0)
(-0.0828971 0.146735 0)
(-0.101948 0.171273 0)
(-0.121474 0.194859 0)
(-0.140542 0.215197 0)
(-0.157693 0.230225 0)
(-0.172073 0.238642 0)
(-0.182945 0.240115 0)
(-0.190451 0.235366 0)
(-0.195005 0.225802 0)
(-0.197573 0.213132 0)
(-0.198998 0.198877 0)
(-0.200164 0.184162 0)
(-0.201543 0.1696 0)
(-0.203467 0.1554 0)
(-0.205918 0.141485 0)
(-0.208833 0.127657 0)
(-0.211983 0.11369 0)
(-0.21521 0.0994159 0)
(-0.218299 0.0847278 0)
(-0.221139 0.0695956 0)
(-0.223593 0.0540411 0)
(-0.225611 0.0381333 0)
(-0.227119 0.0219633 0)
(-0.228111 0.0056459 0)
(-0.228557 -0.0107042 0)
(-0.228483 -0.026962 0)
(-0.227894 -0.0430205 0)
(-0.22684 -0.0587686 0)
(-0.225349 -0.074129 0)
(-0.223488 -0.0890194 0)
(-0.221302 -0.103405 0)
(-0.218869 -0.117241 0)
(-0.216265 -0.130547 0)
(-0.213612 -0.143345 0)
(-0.211093 -0.155774 0)
(-0.208989 -0.168045 0)
(-0.207733 -0.180611 0)
(-0.207866 -0.194104 0)
(-0.210005 -0.209429 0)
(-0.214488 -0.227436 0)
(-0.221063 -0.248493 0)
(-0.228168 -0.271592 0)
(-0.232744 -0.293425 0)
(-0.230086 -0.30783 0)
(-0.215111 -0.306149 0)
(-0.184092 -0.279806 0)
(-0.138224 -0.225044 0)
(-0.0860607 -0.15043 0)
(-0.0426707 -0.0777889 0)
(-0.0171402 -0.0268733 0)
(-0.00477524 0.00168495 0)
(-0.00029623 0.0128234 0)
(0.00026355 0.00930867 0)
(-0.00125601 0.0257408 0)
(-0.00718965 0.0551831 0)
(-0.0160644 0.0720961 0)
(-0.0261198 0.0849908 0)
(-0.0380509 0.0994051 0)
(-0.0515457 0.117719 0)
(-0.0672139 0.140034 0)
(-0.0843801 0.164934 0)
(-0.102732 0.190305 0)
(-0.12096 0.213609 0)
(-0.138126 0.23244 0)
(-0.152882 0.244863 0)
(-0.164631 0.249996 0)
(-0.172964 0.248065 0)
(-0.178359 0.240358 0)
(-0.18145 0.228653 0)
(-0.18329 0.214789 0)
(-0.184651 0.200175 0)
(-0.186251 0.18569 0)
(-0.188354 0.171658 0)
(-0.191107 0.158045 0)
(-0.19435 0.144607 0)
(-0.197949 0.131068 0)
(-0.201643 0.117185 0)