/*--------------------------------*- C++ -*----------------------------------*\
| =========                 |                                                 |
| \\      /  F ield         | OpenFOAM: The Open Source CFD Toolbox           |
|  \\    /   O peration     | Version:  2406                                  |
|   \\  /    A nd           | Website:  www.openfoam.com                      |
|    \\/     M anipulation  |                                                 |
\*---------------------------------------------------------------------------*/
FoamFile
{
    version     2.0;
    format      ascii;
    arch        "LSB;label=32;scalar=64";
    class       surfaceScalarField;
    location    "16.8";
    object      phi_0;
}
// * * * * * * * * * * * * * * * * * * * * * * * * * * * * * * * * * * * * * //

dimensions      [0 3 -1 0 0 0 0];

oriented        oriented;

internalField   nonuniform List<scalar> 
1740
(
9.3677e-07
-9.36764e-07
1.2842e-06
-3.4743e-07
7.04706e-07
5.79496e-07
-6.55371e-07
1.36008e-06
-2.95578e-06
2.30041e-06
-6.54746e-06
3.59168e-06
-1.19338e-05
5.38632e-06
-1.98165e-05
7.88276e-06
-3.11372e-05
1.13207e-05
-4.69415e-05
1.58043e-05
-6.79687e-05
2.10272e-05
-9.40628e-05
2.60942e-05
-0.000123577
2.95145e-05
-0.000152624
2.90463e-05
-0.000175924
2.33003e-05
-0.000188004
1.20803e-05
-0.000184422
-3.58239e-06
-0.000163083
-2.13391e-05
-0.00012418
-3.89026e-05
-7.19328e-05
-5.22472e-05
-1.43847e-05
-5.75481e-05
3.75817e-05
-5.19664e-05
7.31927e-05
-3.56109e-05
8.59912e-05
-1.27985e-05
7.80806e-05
7.91056e-06
5.87364e-05
1.93442e-05
3.76328e-05
2.11036e-05
1.98208e-05
1.78121e-05
6.7952e-06
1.30256e-05
6.7952e-06
-7.04491e-07
-2.32273e-07
-3.73363e-06
2.68171e-06
-9.01143e-06
5.8573e-06
-1.64069e-05
8.75551e-06
-2.65662e-05
1.24597e-05
-4.06231e-05
1.76486e-05
-6.01208e-05
2.4884e-05
-8.69586e-05
3.47206e-05
-0.000122955
4.73172e-05
-0.000168817
6.16663e-05
-0.000222857
7.50666e-05
-0.00028032
8.35579e-05
-0.000334154
8.33481e-05
-0.000377466
7.23581e-05
-0.000404924
5.07582e-05
-0.000413339
2.04959e-05
-0.000400824
-1.60972e-05
-0.000366155
-5.6009e-05
-0.000310639
-9.44181e-05
-0.000236915
-0.000125971
-0.000150646
-0.000143817
-6.16586e-05
-0.000140954
1.68483e-05
-0.000114118
7.1045e-05
-6.69952e-05
9.30189e-05
-1.40633e-05
8.69062e-05
2.54569e-05
6.46827e-05
4.33271e-05
3.77075e-05
4.47872e-05
1.34783e-05
3.72548e-05
2.02735e-05
-3.91598e-06
3.6837e-06
-1.26049e-05
1.13707e-05
-2.44581e-05
1.77104e-05
-3.95812e-05
2.38786e-05
-5.93653e-05
3.22438e-05
-8.59214e-05
4.42047e-05
-0.000121834
6.07967e-05
-0.000169557
8.24435e-05
-0.000230143
0.000107904
-0.000301686
0.000133209
-0.000378464
0.000151845
-0.000452302
0.000157396
-0.000515856
0.000146902
-0.000564476
0.000120978
-0.00059572
8.20025e-05
-0.00060821
3.29861e-05
-0.000601286
-2.30217e-05
-0.000574174
-8.31203e-05
-0.000525587
-0.000143006
-0.000454738
-0.00019682
-0.000362606
-0.000235949
-0.000254081
-0.000249479
-0.000140937
-0.000227262
-4.11951e-05
-0.000166737
2.60377e-05
-8.12962e-05
5.41759e-05
-2.68129e-06
5.2536e-05
4.49671e-05
3.51962e-05
6.2127e-05
1.35822e-05
5.88689e-05
3.38556e-05
-7.95465e-06
1.16384e-05
-2.3151e-05
2.6567e-05
-4.22861e-05
3.68456e-05
-6.57989e-05
4.73914e-05
-9.60183e-05
6.24632e-05
-0.000136193
8.43798e-05
-0.000189825
0.000114429
-0.000259271
0.000151889
-0.000343382
0.000192015
-0.000435547
0.000225374
-0.000525336
0.000241634
-0.000603557
0.000235617
-0.00066549
0.000208835
-0.000709922
0.00016541
-0.000737783
0.000109864
-0.00075052
4.57228e-05
-0.000748953
-2.45888e-05
-0.000733917
-9.81567e-05
-0.000702703
-0.000174219
-0.000651066
-0.000248456
-0.000574027
-0.000312988
-0.000468178
-0.000355328
-0.000337289
-0.000358151
-0.000196927
-0.000307099
-7.5515e-05
-0.000202708
-1.96858e-06
-7.62277e-05
2.32775e-05
1.9721e-05
2.17176e-05
6.36869e-05
9.25755e-06
7.13289e-05
4.31132e-05
-1.22906e-05
2.3929e-05
-3.40141e-05
4.82904e-05
-6.03429e-05
6.31744e-05
-9.22865e-05
7.93351e-05
-0.000133384
0.00010356
-0.000188227
0.000139223
-0.000260777
0.000186979
-0.000351059
0.00024217
-0.000451776
0.000292732
-0.000549527
0.000323125
-0.000632155
0.000324262
-0.000694181
0.000297643
-0.000735749
0.000250402
-0.000760422
0.000190083
-0.000773188
0.00012263
-0.000778535
5.107e-05
-0.000779688
-2.34358e-05
-0.000777555
-0.000100289
-0.000770347
-0.000181428
-0.000752581
-0.000266222
-0.000714812
-0.000350758
-0.000645302
-0.000424838
-0.000533792
-0.000469661
-0.000381012
-0.000459879
-0.000211297
-0.000372423
-7.34303e-05
-0.000214095
-6.80811e-06
-4.69012e-05
8.1829e-06
4.86959e-05
5.23792e-06
7.42739e-05
4.83511e-05
-1.64361e-05
4.0365e-05
-4.41104e-05
7.59647e-05
-7.70843e-05
9.61483e-05
-0.000117247
0.000119498
-0.000169562
0.000155875
-0.000239363
0.000209024
-0.000328384
0.000276
-0.000429971
0.000343758
-0.000528974
0.000391735
-0.000609671
0.000403823
-0.000664503
0.000379093
-0.000694757
0.000327897
-0.000706246
0.000261891
-0.000706261
0.000190098
-0.000701128
0.000117497
-0.000695974
4.59162e-05
-0.000694745
-2.46649e-05
-0.000698405
-9.66294e-05
-0.000708246
-0.000171587
-0.000721638
-0.00025283
-0.000730353
-0.000342042
-0.00071885
-0.000436341
-0.000666234
-0.000522277
-0.000553944
-0.00057217
-0.000379798
-0.000546568
-0.000182551
-0.000411343
-4.35926e-05
-0.000185859
3.03611e-07
4.79968e-06
3.47437e-06
7.11031e-05
5.18255e-05
-1.99091e-05
6.02741e-05
-5.25585e-05
0.000108614
-9.1325e-05
0.000134915
-0.00013911
0.000167283
-0.000201729
0.000218495
-0.000282993
0.000290287
-0.000378936
0.000371943
-0.000475366
0.000440188
-0.000553967
0.000470336
-0.000603726
0.000453581
-0.000625591
0.000400958
-0.000627573
0.00032988
-0.000619067
0.000253385
-0.000607286
0.000178317
-0.000595782
0.000105993
-0.000586301
3.64348e-05
-0.000579769
-3.11966e-05
-0.000578589
-9.78101e-05
-0.000586221
-0.000163954
-0.000605763
-0.000233289
-0.000636435
-0.000311371
-0.000669038
-0.000403737
-0.000682892
-0.000508423
-0.000646845
-0.000608217
-0.000531316
-0.000662097
-0.000333905
-0.000608754
-0.000117205
-0.000402559
-7.17621e-06
-0.000105229
3.21779e-06
6.07091e-05
5.50433e-05
-2.23225e-05
8.25966e-05
-5.86241e-05
0.000144916
-0.000101898
0.000178189
-0.000155635
0.000221019
-0.000225042
0.000287902
-0.000310145
0.00037539
-0.000400817
0.000462615
-0.000479126
0.000518497
-0.000530111
0.000521321
-0.000551576
0.000475047
-0.000552846
0.000402228
-0.000546007
0.00032304
-0.000539433
0.000246812
-0.000535478
0.000174362
-0.00053237
0.000102886
-0.000527374
3.14386e-05
-0.000519095
-3.94758e-05
-0.000509258
-0.000107647
-0.000501714
-0.000171498
-0.000503093
-0.00023191
-0.000520541
-0.000293922
-0.000556833
-0.000367446
-0.000602432
-0.000462824
-0.000630743
-0.000579906
-0.000600012
-0.000692828
-0.000468772
-0.000739995
-0.000242424
-0.000628906
-3.99991e-05
-0.000307654
5.47698e-06
1.5233e-05
6.05203e-05
-2.33229e-05
0.00010592
-6.15931e-05
0.000183186
-0.000107468
0.000224063
-0.000164155
0.000277706
-0.00023491
0.000358657
-0.000315569
0.000456049
-0.000392417
0.000539462
-0.000448776
0.000574857
-0.000476857
0.000549402
-0.000483341
0.00048153
-0.000482713
0.0004016
-0.000485915
0.000326242
-0.000495491
0.000256388
-0.000507307
0.000186178
-0.000515736
0.000111314
-0.000516663
3.23662e-05
-0.000508576
-4.75635e-05
-0.000492499
-0.000123724
-0.000471745
-0.000192252
-0.000452585
-0.00025107
-0.000444199
-0.000302308
-0.000456753
-0.000354892
-0.000494556
-0.00042502
-0.000545669
-0.000528793
-0.000575601
-0.000662896
-0.000531701
-0.000783895
-0.000370527
-0.00079008
-0.000116613
-0.000561568
6.84844e-06
-0.000108229
6.73687e-05
-2.2676e-05
0.000128596
-6.097e-05
0.00022148
-0.00010704
0.000270133
-0.000162919
0.000333585
-0.000229458
0.000425196
-0.000299768
0.000526359
-0.000359994
0.000599689
-0.000397989
0.000612852
-0.000413434
0.000564847
-0.000419099
0.000487195
-0.000429437
0.000411938
-0.000449575
0.00034638
-0.000475123
0.000281936
-0.000498536
0.000209591
-0.000514149
0.000126927
-0.000518848
3.70653e-05
-0.000511779
-5.46333e-05
-0.00049356
-0.000141942
-0.000466279
-0.000219534
-0.00043421
-0.000283138
-0.000404893
-0.000331625
-0.000389951
-0.000369834
-0.000402289
-0.000412682
-0.000445426
-0.000485656
-0.00050059
-0.000607732
-0.000519327
-0.000765158
-0.000435184
-0.000874223
-0.000221277
-0.000775475
-9.90174e-06
-0.000319604
5.7467e-05
-2.02592e-05
0.000148855
-5.64491e-05
0.00025767
-0.000100091
0.000313775
-0.000151501
0.000384995
-0.000209666
0.000483361
-0.000267092
0.000583785
-0.000312259
0.000644856
-0.000338375
0.000638968
-0.000350728
0.0005772
-0.000363789
0.000500256
-0.000387741
0.000435889
-0.000420924
0.000379563
-0.000455266
0.000316278
-0.000483686
0.000238011
-0.000502231
0.000145472
-0.000509069
4.39034e-05
-0.000503916
-5.97857e-05
-0.000487313
-0.000158546
-0.0004604
-0.000246447
-0.000425291
-0.000318247
-0.000386308
-0.000370609
-0.000351932
-0.00040421
-0.000336807
-0.000427807
-0.000355408
-0.000467056
-0.000407684
-0.000555456
-0.00045853
-0.000714312
-0.000446128
-0.000886624
-0.000308158
-0.000913445
-5.53372e-05
-0.000572426
2.12973e-06
-1.62606e-05
0.000165115
-4.82955e-05
0.000289705
-8.71427e-05
0.000352622
-0.000131239
0.000429092
-0.000178581
0.000530703
-0.000222829
0.000628033
-0.000256093
0.000678121
-0.000276115
0.00065899
-0.000290667
0.000591751
-0.000312045
0.000521635
-0.000344793
0.000468637
-0.000383108
0.000417878
-0.000419005
0.000352175
-0.000447438
0.000266444
-0.000465931
0.000163965
-0.000473547
5.15192e-05
-0.000470291
-6.3042e-05
-0.000456789
-0.000172048
-0.000434019
-0.000269217
-0.000402844
-0.000349421
-0.000365211
-0.000408242
-0.000325496
-0.000443925
-0.000294495
-0.000458807
-0.000288156
-0.000473395
-0.000320899
-0.000522713
-0.000380424
-0.000654787
-0.000414464
-0.000852584
-0.000336039
-0.00099187
-0.000113985
-0.00079448
-0.000111855
-1.09364e-05
0.000176052
-3.69887e-05
0.000315757
-6.91412e-05
0.000384775
-0.000104013
0.000463964
-0.000139465
0.000566154
-0.000171416
0.000659984
-0.000195706
0.000702411
-0.000212958
0.000676242
-0.000230521
0.000609315
-0.000256421
0.000547534
-0.000290905
0.000503122
-0.000327602
0.000454576
-0.000360525
0.000385098
-0.00038649
0.000292408
-0.0004039
0.000181376
-0.000412032
5.96508e-05
-0.000410837
-6.42369e-05
-0.000401004
-0.000181881
-0.000383683
-0.000286538
-0.000359208
-0.000373895
-0.000328254
-0.000439197
-0.000292219
-0.00047996
-0.000257712
-0.000493315
-0.000236793
-0.000494314
-0.000249332
-0.000510174
-0.000301007
-0.000603112
-0.00035839
-0.000795201
-0.000335177
-0.00101508
-0.000175324
-0.000954334
-0.000287179
-4.85366e-06
0.000180906
-2.35333e-05
0.000334437
-4.77351e-05
0.000408977
-7.24671e-05
0.000488696
-9.57553e-05
0.000589443
-0.000116161
0.00068039
-0.000132967
0.000719217
-0.00014824
0.000691514
-0.000166778
0.000627852
-0.000192001
0.000572757
-0.00022233
0.000533451
-0.000253125
0.000485371
-0.000280642
0.000412615
-0.000302919
0.000314686
-0.000318757
0.000197213
-0.000327362
6.82558e-05
-0.000328445
-6.31533e-05
-0.000322568
-0.000187758
-0.000311284
-0.000297822
-0.000295056
-0.000390123
-0.000273721
-0.000460532
-0.000246775
-0.000506905
-0.000217343
-0.000522747
-0.000192881
-0.000518775
-0.000191576
-0.000511479
-0.000227841
-0.000566847
-0.000289764
-0.000733277
-0.000304724
-0.00100012
-0.000197752
-0.00106131
-0.000484931
1.49113e-06
0.000179414
-8.86113e-06
0.000344789
-2.4376e-05
0.000424492
-3.8686e-05
0.000503006
-4.98945e-05
0.000600651
-5.92957e-05
0.000689791
-6.89707e-05
0.000728892
-8.13572e-05
0.000703901
-9.79696e-05
0.000644465
-0.000118323
0.00059311
-0.00014058
0.000555707
-0.000162731
0.000507522
-0.000183098
0.000432983
-0.000200546
0.000332134
-0.000214128
0.000210795
-0.000223009
7.71371e-05
-0.000226832
-5.93299e-05
-0.000225637
-0.000188953
-0.00022081
-0.00030265
-0.000213285
-0.000397648
-0.000202413
-0.000471404
-0.000186896
-0.000522422
-0.000167596
-0.000542047
-0.000148641
-0.00053773
-0.000143023
-0.000517098
-0.000165988
-0.000543882
-0.000223646
-0.000675619
-0.000258521
-0.000965248
-0.000186739
-0.00113309
-0.000671669
7.58947e-06
0.000171825
5.8108e-06
0.000346567
-1.05377e-06
0.000431356
-5.08551e-06
0.000507037
-4.56718e-06
0.000600133
-3.00265e-06
0.000688226
-4.95973e-06
0.000730849
-1.23899e-05
0.000711331
-2.4261e-05
0.000656336
-3.72703e-05
0.00060612
-4.94576e-05
0.000567895
-6.13294e-05
0.000519394
-7.31147e-05
0.000444768
-8.44909e-05
0.00034351
-9.4942e-05
0.000221246
-0.000103662
8.58568e-05
-0.000110497
-5.2495e-05
-0.00011495
-0.000184499
-0.000118063
-0.000299537
-0.000119606
-0.000396106
-0.000120041
-0.000470968
-0.000116326
-0.000526137
-0.000109392
-0.000548981
-0.000100186
-0.000546935
-9.74771e-05
-0.000519807
-0.000113378
-0.000527981
-0.000164361
-0.000624637
-0.000208435
-0.000921173
-0.000164925
-0.0011766
-0.000836595
1.26901e-05
0.000159135
1.94595e-05
0.000339798
2.11565e-05
0.000429659
2.62601e-05
0.000501934
3.77578e-05
0.000588635
5.10984e-05
0.000674886
5.89446e-05
0.000723003
5.77856e-05
0.00071249
5.13465e-05
0.000662775
4.64426e-05
0.000611024
4.50623e-05
0.000569275
4.44273e-05
0.000520029
4.232e-05
0.000446875
3.81224e-05
0.000347707
3.17772e-05
0.000227591
2.37043e-05
9.39296e-05
1.43796e-05
-4.31703e-05
3.49601e-06
-0.000173616
-7.36196e-06
-0.000288679
-1.98031e-05
-0.000383665
-3.01375e-05
-0.000460634
-3.94104e-05
-0.000516864
-4.49348e-05
-0.000543457
-4.81628e-05
-0.000543707
-5.41212e-05
-0.000513848
-6.9487e-05
-0.000512615
-0.000115421
-0.000578702
-0.00016277
-0.000873825
-0.000140972
-0.0011984
-0.000977567
1.62882e-05
0.000142847
3.08113e-05
0.000325275
4.03762e-05
0.000420094
5.35702e-05
0.00048874
7.49306e-05
0.000567275
9.98588e-05
0.000649958
0.000118919
0.000703943
0.00012679
0.000704619
0.00012729
0.000662275
0.000129551
0.000608763
0.000137553
0.000561272
0.000147719
0.000509863
0.000155528
0.000439066
0.000159057
0.000344178
0.000157402
0.000229246
0.000150499
0.000100832
0.000138352
-3.10226e-05
0.00012222
-0.000157484
0.000102175
-0.000268634
8.13825e-05
-0.000362872
5.9878e-05
-0.000439129
3.96846e-05
-0.000496671
2.20049e-05
-0.000525777
3.78722e-06
-0.00052549
-1.03935e-05
-0.000499668
-3.13617e-05
-0.000491647
-7.53384e-05
-0.000534726
-0.000125135
-0.000824028
-0.000120416
-0.00120311
-0.00109798
1.82545e-05
0.000124592
3.93999e-05
0.00030413
5.60508e-05
0.000403443
7.59613e-05
0.000468829
0.000105342
0.000537894
0.000140957
0.000614342
0.000172381
0.000672519
0.000191502
0.000685498
0.000200333
0.000653445
0.000208634
0.000600461
0.000223049
0.000546858
0.000241531
0.000491381
0.00025813
0.000422467
0.000269048
0.00033326
0.000272283
0.000226012
0.000267164
0.00010595
0.000253404
-1.72617e-05
0.000232489
-0.000136569
0.00020601
-0.000242155
0.00017733
-0.000334192
0.000146929
-0.000408729
0.000117303
-0.000467045
8.62443e-05
-0.000494718
5.73574e-05
-0.000496603
2.89609e-05
-0.000471271
-1.23141e-06
-0.000461455
-4.40436e-05
-0.000491913
-9.53224e-05
-0.000772749
-0.000103672
-0.00119476
-0.00120166
1.83008e-05
0.000106291
4.40773e-05
0.000278353
6.65243e-05
0.000380996
9.15436e-05
0.00044381
0.000126737
0.000502701
0.000171475
0.000569604
0.000215713
0.000628281
0.000248559
0.000652651
0.000268196
0.000633808
0.000282605
0.000586053
0.000300471
0.000528992
0.00032314
0.000468711
0.000345386
0.000400222
0.000361968
0.000316678
0.000369344
0.000218635
0.000366155
0.00010914
0.000352089
-3.19665e-06
0.000328522
-0.000113002
0.0002981
-0.000211733
0.000264046
-0.000300137
0.000227243
-0.000371926
0.000188444
-0.000428246
0.000146401
-0.000452675
0.000105746
-0.000455947
6.51064e-05
-0.000430632
2.87666e-05
-0.000425115
-1.91225e-05
-0.000444024
-7.33252e-05
-0.000718546
-9.25537e-05
-0.00117554
-0.00129421
1.6917e-05
8.93744e-05
4.5272e-05
0.000249998
7.21351e-05
0.000354133
0.000100833
0.000415112
0.000139187
0.000464347
0.000189692
0.000519099
0.000244873
0.0005731
0.000292441
0.000605083
0.000325894
0.000600355
0.000348954
0.000562994
0.000369783
0.000508163
0.00039309
0.000445403
0.000416693
0.000376619
0.000435791
0.00029758
0.000445838
0.000208588
0.000444699
0.000110279
0.000431736
9.76574e-06
0.000408396
-8.96616e-05
0.0003771
-0.000180438
0.000340431
-0.000263468
0.000298404
-0.000329899
0.000251196
-0.000381038
0.000199008
-0.000400488
0.000147059
-0.000403998
9.6172e-05
-0.000379745
5.18659e-05
-0.000380809
2.18691e-06
-0.000394345
-5.78461e-05
-0.000658513
-8.68405e-05
-0.00114654
-0.00138105
1.39257e-05
7.54487e-05
4.16731e-05
0.000222251
7.0866e-05
0.00032494
0.000101961
0.000384017
0.000141737
0.000424571
0.000194904
0.000465932
0.000257645
0.00051036
0.000318864
0.000543864
0.0003684
0.000550818
0.000404502
0.000526892
0.000431955
0.00048071
0.00045637
0.000420988
0.000478972
0.000354017
0.000497457
0.000279096
0.000508064
0.00019798
0.000508334
0.00011001
0.000497114
2.09853e-05
0.000475465
-6.80124e-05
0.000444625
-0.000149598
0.000405674
-0.000224517
0.000358178
-0.000282403
0.000302689
-0.00032555
0.000241274
-0.000339073
0.000180034
-0.000342757
0.000121042
-0.000320753
7.02099e-05
-0.000329977
1.59993e-05
-0.000340135
-4.59124e-05
-0.000596602
-8.30623e-05
-0.00110939
-0.00146411
1.01088e-05
6.53399e-05
3.52377e-05
0.000197122
6.47398e-05
0.000295438
9.68986e-05
0.000351858
0.000136328
0.000385141
0.000188312
0.000413948
0.000253086
0.000445586
0.000323113
0.000473837
0.00038729
0.000486641
0.000439235
0.000474947
0.000478784
0.000441161
0.000509481
0.000390292
0.000533854
0.000329643
0.000552177
0.000260774
0.000562692
0.000187465
0.00056356
0.000109141
0.000553489
3.10568e-05
0.000532467
-4.69905e-05
0.000500544
-0.000117674
0.000457569
-0.000181542
0.000403629
-0.000228463
0.000340208
-0.000262128
0.00027155
-0.000270415
0.000203296
-0.000274502
0.000139453
-0.00025691
8.3588e-05
-0.000274112
2.92078e-05
-0.000285755
-3.28677e-05
-0.000534526
-7.44943e-05
-0.00106777
-0.00153861
3.80863e-06
6.15313e-05
2.24475e-05
0.000178483
4.96102e-05
0.000268275
8.27217e-05
0.000318747
0.000122599
0.000345263
0.000172959
0.000363588
0.000235912
0.000382633
0.000308395
0.000401354
0.000381569
0.000413468
0.000447284
0.000409232
0.000501166
0.000387278
0.00054309
0.000348368
0.000574376
0.000298357
0.000595995
0.000239155
0.000607724
0.000175735
0.000608669
0.000108196
0.000598078
4.16483e-05
0.000575085
-2.39979e-05
0.000539488
-8.20774e-05
0.000491
-0.000133054
0.000431081
-0.000168544
0.000362015
-0.000193062
0.000289889
-0.000198289
0.000217861
-0.000202475
0.000152957
-0.000192007
9.24065e-05
-0.000213561
4.25237e-05
-0.000235872
-1.94072e-05
-0.000472595
-6.45778e-05
-0.00102259
-0.00160318
-3.74503e-06
6.52763e-05
8.67138e-06
0.000166067
3.12866e-05
0.00024566
6.36867e-05
0.000286347
0.000102395
0.000306555
0.000150058
0.000315925
0.000208869
0.000323822
0.000277735
0.000332488
0.000351897
0.000339306
0.000424166
0.000336962
0.000488301
0.000323143
0.000541199
0.000295471
0.000581623
0.000257933
0.000609642
0.000211136
0.000625007
0.000160371
0.000627439
0.000105764
0.000616449
5.26384e-05
0.000591573
8.78394e-07
0.000553172
-4.36769e-05
0.00050144
-8.13212e-05
0.000439767
-0.000106872
0.000370015
-0.00012331
0.000299646
-0.00012792
0.000227639
-0.000130467
0.000165698
-0.000130067
0.000100056
-0.000147919
5.84255e-05
-0.000194241
-1.10054e-05
-0.000403164
-6.66517e-05
-0.000966948
-0.00166984
-2.20918e-05
8.73681e-05
-2.05743e-05
0.000164549
-1.1106e-06
0.000226196
3.49261e-05
0.00025031
7.61358e-05
0.000265345
0.000125883
0.000266178
0.00018201
0.000267695
0.000245961
0.000268537
0.000315556
0.000269711
0.000386657
0.000265861
0.000453247
0.000256554
0.000511417
0.000237301
0.000557856
0.000211494
0.000591296
0.000177696
0.00061065
0.000141017
0.000615569
0.000100845
0.000605895
6.23126e-05
0.000581603
2.517e-05
0.000544277
-6.35044e-06
0.00049455
-3.15944e-05
0.000436831
-4.91524e-05
0.000372527
-5.90055e-05
0.00030919
-6.45838e-05
0.000242282
-6.35591e-05
0.000187055
-7.48399e-05
0.000119919
-8.07821e-05
8.55276e-05
-0.00015985
3.15181e-07
-0.000317952
-6.38593e-05
-0.000902774
-0.0017337
-3.63741e-05
0.000123742
-4.3062e-05
0.000171237
-3.14916e-05
0.000214626
2.11944e-06
0.000216699
4.53006e-05
0.000222164
9.54814e-05
0.000215997
0.000150408
0.000212768
0.000210563
0.000208382
0.000274533
0.000205741
0.000340671
0.000199723
0.000404002
0.000193223
0.000462095
0.000179208
0.000509932
0.000163657
0.000546912
0.000140715
0.000569697
0.000118233
0.000579322
9.12191e-05
0.000574012
6.76228e-05
0.00055603
4.31521e-05
0.000525102
2.4577e-05
0.000484978
8.52999e-06
0.000437608
-1.78216e-06
0.00038554
-6.93763e-06
0.000335106
-1.41499e-05
0.000280031
-8.4844e-06
0.000235914
-3.07227e-05
0.000178934
-2.38022e-05
0.000146664
-0.00012758
8.63212e-05
-0.000257609
2.00011e-05
-0.000836454
-0.00171369
-0.000129666
0.000253408
-0.00010563
0.000147201
-8.37707e-05
0.000192767
-2.66429e-05
0.000159571
2.72418e-05
0.000168279
8.63572e-05
0.000156882
0.000144561
0.000154564
0.000206405
0.000146538
0.00026694
0.000145206
0.000330037
0.000136625
0.000388688
0.000134572
0.000444652
0.000123243
0.000491074
0.000117236
0.000529326
0.000102463
0.000554878
9.26812e-05
0.000569317
7.67801e-05
0.000571264
6.56754e-05
0.000561959
5.24577e-05
0.000544188
4.23482e-05
0.000517196
3.55221e-05
0.00048905
2.63638e-05
0.000453715
2.83966e-05
0.000423867
1.56987e-05
0.000387564
2.78181e-05
0.000358739
-1.89705e-06
0.000327192
7.74454e-06
0.000286444
-8.68324e-05
0.000267731
-0.000238895
0.000175076
-0.000743799
-0.00153862
-3.05783e-05
0.000283986
-5.11387e-05
0.000167761
-9.0851e-06
0.000150713
1.88806e-05
0.000131606
7.60482e-05
0.000111112
0.000133555
9.93752e-05
0.00019501
9.31097e-05
0.000256924
8.4624e-05
0.000320564
8.15657e-05
0.000382351
7.4839e-05
0.000444328
7.25954e-05
0.000500937
6.66336e-05
0.000554681
6.34919e-05
0.000599693
5.74497e-05
0.000639412
5.29625e-05
0.000668918
4.72743e-05
0.000692736
4.18572e-05
0.00070745
3.77438e-05
0.000717894
3.19041e-05
0.000722665
3.0751e-05
0.000724797
2.42319e-05
0.000726442
2.67513e-05
0.000724115
1.80261e-05
0.000729589
2.2344e-05
0.000717424
1.02685e-05
0.000720942
4.22634e-06
0.000668835
-3.47252e-05
0.000619467
-0.000189527
0.000397676
-0.000522009
-0.00114094
0.000283986
0.000451748
0.000602461
0.000734067
0.000845178
0.000944554
0.00103766
0.00112229
0.00120385
0.00127869
0.00135129
0.00141792
0.00148141
0.00153886
0.00159183
0.0016391
0.00168096
0.0017187
0.0017506
0.00178136
0.00180559
0.00183234
0.00185036
0.00187271
0.00188298
0.0018872
0.00185248
0.00166295
0.00114094
)
;

boundaryField
{
    movingWall
    {
        type            calculated;
        value           uniform 0;
    }
    fixedWalls
    {
        type            calculated;
        value           uniform 0;
    }
    frontAndBack
    {
        type            empty;
    }
}


// ************************************************************************* //
