/*--------------------------------*- C++ -*----------------------------------*\
| =========                 |                                                 |
| \\      /  F ield         | OpenFOAM: The Open Source CFD Toolbox           |
|  \\    /   O peration     | Version:  2406                                  |
|   \\  /    A nd           | Website:  www.openfoam.com                      |
|    \\/     M anipulation  |                                                 |
\*---------------------------------------------------------------------------*/
FoamFile
{
    version     2.0;
    format      ascii;
    arch        "LSB;label=32;scalar=64";
    class       volScalarField;
    location    "11.25";
    object      p;
}
// * * * * * * * * * * * * * * * * * * * * * * * * * * * * * * * * * * * * * //

dimensions      [0 2 -2 0 0 0 0];

internalField   nonuniform List<scalar> 
14400
(
-9.63309e-09
-1.47725e-06
-4.51156e-06
-8.62592e-06
-1.31741e-05
-1.77114e-05
-2.19505e-05
-2.57259e-05
-2.89615e-05
-3.16408e-05
-3.37839e-05
-3.54295e-05
-3.66236e-05
-3.74111e-05
-3.78312e-05
-3.79142e-05
-3.76805e-05
-3.71404e-05
-3.62942e-05
-3.51335e-05
-3.36417e-05
-3.17953e-05
-2.95647e-05
-2.69151e-05
-2.38074e-05
-2.01988e-05
-1.60435e-05
-1.12932e-05
-5.89743e-06
1.95604e-07
7.03892e-06
1.46862e-05
2.31913e-05
3.26081e-05
4.29895e-05
5.43874e-05
6.68521e-05
8.04316e-05
9.5171e-05
0.000111112
0.000128292
0.000146745
0.000166497
0.00018757
0.000209978
0.000233727
0.000258815
0.000285232
0.000312955
0.000341952
0.00037218
0.000403583
0.000436094
0.00046963
0.000504097
0.000539387
0.000575379
0.000611944
0.000648924
0.000686164
0.000723494
0.000760732
0.000797688
0.000834165
0.00086996
0.000904868
0.000938682
0.000971196
0.00100221
0.00103153
0.00105897
0.00108437
0.00110755
0.00112839
0.00114677
0.00116258
0.00117575
0.00118622
0.00119399
0.00119904
0.0012014
0.00120112
0.00119828
0.00119297
0.00118531
0.00117545
0.00116353
0.00114972
0.0011342
0.00111717
0.00109881
0.00107932
0.0010589
0.00103775
0.00101607
0.000994033
0.000971833
0.00094964
0.000927621
0.000905929
0.000884709
0.000864097
0.000844216
0.000825177
0.000807085
0.000790049
0.000774152
0.00075947
0.000746081
0.000734059
0.000723471
0.000714383
0.000706853
0.000700934
0.000696655
0.000694012
0.000692926
0.000693188
0.000694425
0.000695689
1.45175e-06
-3.39957e-08
-2.78313e-06
-6.41983e-06
-1.04318e-05
-1.4446e-05
-1.82196e-05
-2.16062e-05
-2.45318e-05
-2.69733e-05
-2.89398e-05
-3.0458e-05
-3.15622e-05
-3.22873e-05
-3.26638e-05
-3.27152e-05
-3.24569e-05
-3.18954e-05
-3.10287e-05
-2.98468e-05
-2.83324e-05
-2.64619e-05
-2.4206e-05
-2.15304e-05
-1.8397e-05
-1.47638e-05
-1.05863e-05
-5.81717e-06
-4.07366e-07
5.69373e-06
1.25378e-05
2.01772e-05
2.86646e-05
3.80523e-05
4.83921e-05
5.97345e-05
7.21285e-05
8.56209e-05
0.000100256
0.000116073
0.000133111
0.0001514
0.000170967
0.000191832
0.00021401
0.000237507
0.00026232
0.000288438
0.000315839
0.000344493
0.000374355
0.000405372
0.000437477
0.000470589
0.000504616
0.000539451
0.000574974
0.000611055
0.000647549
0.000684298
0.000721133
0.000757876
0.000794341
0.000830333
0.000865654
0.0009001
0.000933468
0.000965556
0.000996168
0.00102511
0.0010522
0.00107728
0.00110018
0.00112077
0.00113893
0.00115456
0.0011676
0.00117798
0.00118569
0.00119073
0.00119312
0.0011929
0.00119017
0.001185
0.00117752
0.00116787
0.00115619
0.00114265
0.00112743
0.00111071
0.00109269
0.00107355
0.0010535
0.00103274
0.00101144
0.000989803
0.000968005
0.000946218
0.000924603
0.000903316
0.000882499
0.000862286
0.000842798
0.000824154
0.000806456
0.000789793
0.000774249
0.00075991
0.000746846
0.000735124
0.000724805
0.000715943
0.000708585
0.000702768
0.000698508
0.000695787
0.000694522
0.000694546
0.000695685
0.000696951
4.52705e-06
2.68019e-06
-1.28461e-07
-3.39466e-06
-6.88768e-06
-1.0351e-05
-1.36033e-05
-1.65325e-05
-1.90776e-05
-2.12151e-05
-2.29465e-05
-2.42881e-05
-2.52629e-05
-2.58949e-05
-2.62052e-05
-2.62097e-05
-2.59174e-05
-2.53304e-05
-2.44433e-05
-2.32439e-05
-2.17138e-05
-1.98287e-05
-1.75593e-05
-1.4872e-05
-1.17292e-05
-8.09018e-06
-3.91125e-06
8.53418e-07
6.25158e-06
1.23324e-05
1.91462e-05
2.67438e-05
3.51764e-05
4.44949e-05
5.47495e-05
6.59895e-05
7.82625e-05
9.16139e-05
0.000106087
0.00012172
0.00013855
0.000156608
0.00017592
0.000196505
0.000218377
0.000241543
0.000266
0.000291737
0.000318734
0.00034696
0.000376374
0.000406921
0.000438537
0.000471145
0.000504652
0.000538956
0.000573941
0.000609471
0.000645411
0.000681606
0.000717889
0.000754086
0.000790013
0.000825479
0.000860287
0.000894239
0.000927134
0.000958773
0.00098896
0.00101751
0.00104424
0.00106898
0.00109159
0.00111192
0.00112986
0.00114531
0.00115821
0.00116849
0.00117614
0.00118115
0.00118356
0.0011834
0.00118076
0.00117573
0.00116842
0.00115897
0.00114753
0.00113425
0.00111933
0.00110293
0.00108525
0.00106648
0.00104681
0.00102644
0.00100556
0.000984349
0.000962985
0.000941639
0.000920473
0.000899638
0.000879276
0.000859518
0.000840485
0.000822291
0.000805033
0.0007888
0.000773681
0.00075975
0.000747072
0.000735708
0.000725708
0.000717116
0.000709966
0.000704276
0.000700051
0.000697264
0.00069584
0.000695666
0.000696819
0.000698193
8.75817e-06
6.31028e-06
2.98513e-06
-3.33118e-07
-3.66877e-06
-6.86445e-06
-9.79918e-06
-1.24057e-05
-1.4651e-05
-1.65253e-05
-1.80356e-05
-1.91981e-05
-2.00329e-05
-2.05592e-05
-2.07929e-05
-2.07447e-05
-2.04192e-05
-1.98145e-05
-1.89221e-05
-1.77276e-05
-1.62108e-05
-1.43463e-05
-1.21042e-05
-9.45067e-06
-6.34823e-06
-2.75641e-06
1.36785e-06
6.06976e-06
1.13963e-05
1.73959e-05
2.4118e-05
3.16125e-05
3.99298e-05
4.912e-05
5.92326e-05
7.03162e-05
8.24177e-05
9.55821e-05
0.000109852
0.000125266
0.000141861
0.000159667
0.000178711
0.000199012
0.000220586
0.000243439
0.00026757
0.00029297
0.000319618
0.000347486
0.000376534
0.000406711
0.000437952
0.000470183
0.000503314
0.000537245
0.00057186
0.000607031
0.000642619
0.000678471
0.000714425
0.000750307
0.000785933
0.000821116
0.000855659
0.000889363
0.000922029
0.000953457
0.000983454
0.00101183
0.0010384
0.00106301
0.00108549
0.00110572
0.00112357
0.00113895
0.00115178
0.00116201
0.00116962
0.00117461
0.00117701
0.00117686
0.00117423
0.00116922
0.00116196
0.00115256
0.00114118
0.00112799
0.00111317
0.00109688
0.00107934
0.00106071
0.00104121
0.00102103
0.00100034
0.000979347
0.000958213
0.000937111
0.000916202
0.000895636
0.000875554
0.000856086
0.000837351
0.000819459
0.000802504
0.000786581
0.000771768
0.000758135
0.000745742
0.000734644
0.000724884
0.000716497
0.000709509
0.000703934
0.000699772
0.000697006
0.00069558
0.00069544
0.000696838
0.000698478
1.34682e-05
1.03007e-05
6.26354e-06
2.6955e-06
-6.61763e-07
-3.73548e-06
-6.46205e-06
-8.82176e-06
-1.0815e-05
-1.24526e-05
-1.37532e-05
-1.47389e-05
-1.5431e-05
-1.58477e-05
-1.60022e-05
-1.5902e-05
-1.55483e-05
-1.49359e-05
-1.40535e-05
-1.28844e-05
-1.14065e-05
-9.5931e-06
-7.4133e-06
-4.8326e-06
-1.81325e-06
1.68526e-06
5.70587e-06
1.02936e-05
1.54949e-05
2.1358e-05
2.79318e-05
3.52659e-05
4.34101e-05
5.24144e-05
6.23279e-05
7.31989e-05
8.50745e-05
9.79997e-05
0.000112017
0.000127166
0.000143484
0.000161001
0.000179745
0.000199738
0.000220994
0.000243523
0.000267325
0.000292391
0.000318705
0.000346239
0.000374956
0.000404806
0.000435728
0.000467649
0.000500481
0.000534127
0.000568472
0.000603392
0.000638747
0.000674388
0.00071015
0.000745863
0.000781343
0.0008164
0.000850839
0.00088446
0.000917061
0.000948443
0.000978407
0.00100676
0.00103333
0.00105794
0.00108043
0.00110066
0.00111852
0.0011339
0.00114674
0.00115697
0.00116458
0.00116956
0.00117193
0.00117176
0.0011691
0.00116406
0.00115676
0.00114733
0.00113592
0.00112271
0.00110786
0.00109156
0.00107402
0.00105541
0.00103594
0.0010158
0.000995174
0.000974257
0.000953222
0.000932239
0.000911468
0.000891058
0.00087115
0.000851871
0.00083334
0.000815663
0.000798937
0.000783247
0.00076867
0.000755272
0.000743108
0.000732226
0.000722665
0.000714453
0.000707611
0.000702147
0.000698066
0.000695359
0.000693991
0.000693945
0.000695578
0.000697444
1.8107e-05
1.41681e-05
9.3311e-06
5.40234e-06
1.91008e-06
-1.14355e-06
-3.74628e-06
-5.92434e-06
-7.7129e-06
-9.14609e-06
-1.0258e-05
-1.10799e-05
-1.16376e-05
-1.19509e-05
-1.20327e-05
-1.18887e-05
-1.15179e-05
-1.09126e-05
-1.00592e-05
-8.93883e-06
-7.52754e-06
-5.79715e-06
-3.71567e-06
-1.24771e-06
1.64506e-06
5.00357e-06
8.87096e-06
1.32923e-05
1.83143e-05
2.3985e-05
3.03532e-05
3.74687e-05
4.53814e-05
5.41412e-05
6.37977e-05
7.43996e-05
8.59942e-05
9.86274e-05
0.000112342
0.00012718
0.000143178
0.000160368
0.00017878
0.000198437
0.000219357
0.000241548
0.000265015
0.000289752
0.000315743
0.000342964
0.00037138
0.000400944
0.000431597
0.000463269
0.000495875
0.000529317
0.000563486
0.000598256
0.00063349
0.000669039
0.00070474
0.000740419
0.000775895
0.000810976
0.000845463
0.000879156
0.00091185
0.00094334
0.000973426
0.00100191
0.00102862
0.00105336
0.00107598
0.00109634
0.00111431
0.00112979
0.0011427
0.00115299
0.00116064
0.00116563
0.00116799
0.00116778
0.00116507
0.00115996
0.00115257
0.00114303
0.00113151
0.00111818
0.00110321
0.00108679
0.00106913
0.00105042
0.00103085
0.00101063
0.000989954
0.000968999
0.000947948
0.000926972
0.00090623
0.000885873
0.00086604
0.000846858
0.000828444
0.000810902
0.000794327
0.0007788
0.000764394
0.000751172
0.000739184
0.000728473
0.000719073
0.000711006
0.00070429
0.000698932
0.000694938
0.000692307
0.000691017
0.000691071
0.00069288
0.000694902
2.22087e-05
1.74929e-05
1.18274e-05
7.47751e-06
3.77885e-06
6.74086e-07
-1.86974e-06
-3.9216e-06
-5.55046e-06
-6.81455e-06
-7.76491e-06
-8.44382e-06
-8.88403e-06
-9.10869e-06
-9.13185e-06
-8.959e-06
-8.58785e-06
-8.00916e-06
-7.20753e-06
-6.16216e-06
-4.84752e-06
-3.23398e-06
-1.2883e-06
1.02589e-06
3.74776e-06
6.91887e-06
1.05829e-05
1.47854e-05
1.95735e-05
2.49955e-05
3.11008e-05
3.79396e-05
4.55622e-05
5.40195e-05
6.33615e-05
7.3638e-05
8.48974e-05
9.71866e-05
0.00011055
0.000125031
0.000140668
0.000157495
0.000175545
0.000194841
0.000215405
0.000237248
0.000260376
0.000284787
0.000310468
0.000337397
0.000365543
0.000394861
0.000425295
0.000456776
0.000489224
0.000522542
0.000556622
0.00059134
0.00062656
0.000662133
0.000697895
0.000733674
0.000769283
0.00080453
0.000839215
0.00087313
0.000906068
0.00093782
0.00096818
0.000996946
0.00102393
0.00104894
0.00107182
0.00109243
0.00111062
0.00112629
0.00113936
0.00114978
0.00115751
0.00116255
0.00116492
0.00116468
0.0011619
0.00115669
0.00114916
0.00113947
0.00112776
0.00111423
0.00109905
0.00108242
0.00106454
0.00104562
0.00102586
0.00100545
0.000984607
0.000963505
0.000942332
0.000921259
0.000900447
0.000880048
0.000860199
0.000841027
0.000822648
0.000805164
0.000788666
0.000773235
0.000758938
0.000745834
0.000733971
0.000723386
0.000714108
0.000706157
0.000699546
0.000694281
0.000690371
0.000687817
0.000686604
0.000686746
0.000688671
0.000690786
2.53695e-05
1.98978e-05
1.34131e-05
8.61941e-06
4.67715e-06
1.47749e-06
-1.05273e-06
-3.02157e-06
-4.52979e-06
-5.65899e-06
-6.47731e-06
-7.03891e-06
-7.38424e-06
-7.5411e-06
-7.52581e-06
-7.3446e-06
-6.99486e-06
-6.4664e-06
-5.74252e-06
-4.80101e-06
-3.61492e-06
-2.15328e-06
-3.81655e-07
1.73743e-06
4.24408e-06
7.18075e-06
1.05919e-05
1.45239e-05
1.90244e-05
2.41428e-05
2.99292e-05
3.64346e-05
4.37105e-05
5.18088e-05
6.0781e-05
7.0678e-05
8.15501e-05
9.34458e-05
0.000106412
0.000120493
0.00013573
0.000152161
0.000169818
0.000188731
0.000208922
0.000230407
0.000253193
0.000277282
0.000302665
0.000329322
0.000357226
0.000386334
0.000416594
0.000447941
0.000480293
0.00051356
0.000547632
0.000582388
0.000617693
0.000653397
0.000689336
0.000725335
0.000761207
0.000796756
0.000831776
0.000866058
0.000899387
0.000931548
0.000962328
0.000991518
0.00101892
0.00104434
0.00106762
0.00108858
0.0011071
0.00112307
0.00113639
0.001147
0.00115487
0.00116
0.00116241
0.00116215
0.00115931
0.00115397
0.00114629
0.00113639
0.00112445
0.00111065
0.00109519
0.00107827
0.00106009
0.00104087
0.00102081
0.00100012
0.000979013
0.000957671
0.000936281
0.00091502
0.00089405
0.000873523
0.000853577
0.000834339
0.000815922
0.000798427
0.000781942
0.000766545
0.000752301
0.000739264
0.000727478
0.000716977
0.000707785
0.00069992
0.000693391
0.000688205
0.000684367
0.000681882
0.000680737
0.000680946
0.00068294
0.000685104
2.72318e-05
2.10383e-05
1.37647e-05
8.52912e-06
4.32969e-06
1.01153e-06
-1.53476e-06
-3.45303e-06
-4.87346e-06
-5.89957e-06
-6.61589e-06
-7.08829e-06
-7.36521e-06
-7.47951e-06
-7.45049e-06
-7.28576e-06
-6.98301e-06
-6.53168e-06
-5.91424e-06
-5.10742e-06
-4.08314e-06
-2.80925e-06
-1.25016e-06
6.32719e-07
2.88055e-06
5.53679e-06
8.64698e-06
1.22584e-05
1.642e-05
2.11821e-05
2.65962e-05
3.27145e-05
3.95902e-05
4.72766e-05
5.5827e-05
6.52944e-05
7.57309e-05
8.71877e-05
9.97138e-05
0.000113356
0.000128159
0.000144163
0.000161404
0.000179913
0.000199718
0.000220835
0.000243278
0.000267051
0.000292147
0.000318552
0.00034624
0.000375173
0.000405301
0.000436562
0.000468877
0.000502158
0.000536296
0.000571173
0.000606653
0.000642586
0.000678808
0.000715142
0.000751397
0.000787374
0.000822863
0.000857647
0.000891506
0.000924218
0.00095556
0.000985316
0.00101328
0.00103925
0.00106304
0.00108449
0.00110345
0.00111981
0.00113347
0.00114436
0.00115244
0.00115772
0.0011602
0.00115994
0.00115703
0.00115158
0.00114371
0.00113357
0.00112136
0.00110724
0.00109144
0.00107415
0.00105559
0.00103599
0.00101556
0.000994507
0.000973048
0.000951381
0.000929694
0.000908165
0.00088696
0.000866231
0.000846117
0.000826745
0.000808226
0.000790659
0.000774131
0.000758716
0.000744475
0.000731459
0.000719708
0.000709253
0.000700115
0.000692307
0.000685839
0.000680712
0.000676932
0.000674505
0.000673415
0.000673674
0.000675706
0.000677889
2.74709e-05
2.05954e-05
1.25737e-05
6.91173e-06
2.45597e-06
-9.91068e-07
-3.57223e-06
-5.46428e-06
-6.82445e-06
-7.77655e-06
-8.4203e-06
-8.83263e-06
-9.0697e-06
-9.16951e-06
-9.15453e-06
-9.03412e-06
-8.80672e-06
-8.46177e-06
-7.98132e-06
-7.34138e-06
-6.51294e-06
-5.46284e-06
-4.15443e-06
-2.54802e-06
-6.01318e-07
1.73033e-06
4.49366e-06
7.73729e-06
1.15115e-05
1.58682e-05
2.08603e-05
2.6542e-05
3.29683e-05
4.01945e-05
4.82763e-05
5.7269e-05
6.72274e-05
7.82052e-05
9.02544e-05
0.000103425
0.000117765
0.000133316
0.00015012
0.000168211
0.000187618
0.000208365
0.000230465
0.000253928
0.00027875
0.000304922
0.000332419
0.000361208
0.000391242
0.000422462
0.000454793
0.000488146
0.000522418
0.000557491
0.000593228
0.00062948
0.000666083
0.000702855
0.000739606
0.00077613
0.000812212
0.000847629
0.000882153
0.000915553
0.000947597
0.000978059
0.00100672
0.00103337
0.00105781
0.00107987
0.0010994
0.00111626
0.00113035
0.0011416
0.00114997
0.00115544
0.00115804
0.00115782
0.00115486
0.00114928
0.00114121
0.00113082
0.00111829
0.00110381
0.00108761
0.00106989
0.00105089
0.00103084
0.00100996
0.000988467
0.000966587
0.00094452
0.000922462
0.000900595
0.000879087
0.000858092
0.000837749
0.000818185
0.000799509
0.000781819
0.000765198
0.000749718
0.000735438
0.000722403
0.000710651
0.000700209
0.000691095
0.00068332
0.00067689
0.000671805
0.00066807
0.000665688
0.000664642
0.000664938
0.000666993
0.000669186
2.57853e-05
1.82698e-05
9.54515e-06
3.47983e-06
-1.22279e-06
-4.80061e-06
-7.42787e-06
-9.31192e-06
-1.0635e-05
-1.15393e-05
-1.21386e-05
-1.25199e-05
-1.27465e-05
-1.28612e-05
-1.28897e-05
-1.28433e-05
-1.27212e-05
-1.25132e-05
-1.22013e-05
-1.17609e-05
-1.11624e-05
-1.03716e-05
-9.35102e-06
-8.05979e-06
-6.45443e-06
-4.48899e-06
-2.11533e-06
7.16722e-07
4.05912e-06
7.9655e-06
1.24909e-05
1.76916e-05
2.36249e-05
3.03486e-05
3.7921e-05
4.64004e-05
5.58443e-05
6.63097e-05
7.78519e-05
9.05241e-05
0.000104377
0.000119458
0.00013581
0.000153471
0.000172475
0.000192848
0.000214609
0.00023777
0.000262331
0.000288286
0.000315615
0.000344288
0.000374261
0.000405479
0.00043787
0.000471349
0.000505813
0.000541145
0.000577213
0.000613864
0.000650935
0.000688243
0.000725592
0.000762774
0.000799567
0.000835741
0.000871059
0.00090528
0.000938163
0.000969469
0.000998965
0.00102643
0.00105166
0.00107446
0.00109467
0.00111214
0.00112677
0.00113847
0.0011472
0.00115293
0.0011557
0.00115555
0.00115256
0.00114686
0.0011386
0.00112793
0.00111505
0.00110018
0.00108353
0.00106533
0.00104583
0.00102526
0.00100386
0.000981867
0.000959497
0.000936965
0.000914472
0.000892205
0.000870334
0.000849017
0.000828392
0.000808586
0.000789707
0.000771851
0.000755097
0.000739515
0.000725159
0.000712072
0.000700289
0.000689832
0.000680717
0.000672953
0.000666541
0.000661483
0.00065778
0.000655433
0.000654423
0.000654753
0.00065683
0.000659035
2.18913e-05
1.37777e-05
4.39649e-06
-2.04555e-06
-6.98088e-06
-1.06863e-05
-1.3366e-05
-1.52559e-05
-1.65614e-05
-1.74417e-05
-1.80229e-05
-1.84013e-05
-1.86466e-05
-1.8806e-05
-1.8908e-05
-1.89656e-05
-1.89794e-05
-1.89395e-05
-1.88277e-05
-1.86192e-05
-1.82839e-05
-1.77868e-05
-1.70894e-05
-1.61498e-05
-1.49232e-05
-1.33623e-05
-1.14174e-05
-9.03638e-06
-6.1655e-06
-2.74897e-06
1.27059e-06
5.95195e-06
1.1355e-05
1.75405e-05
2.45698e-05
3.25041e-05
4.14045e-05
5.13312e-05
6.23429e-05
7.44964e-05
8.7846e-05
0.000102442
0.000118333
0.000135558
0.000154157
0.000174157
0.000195583
0.000218448
0.00024276
0.000268512
0.000295692
0.000324271
0.00035421
0.000385457
0.000417944
0.000451589
0.000486292
0.000521938
0.000558396
0.000595515
0.00063313
0.000671058
0.000709098
0.000747038
0.000784651
0.000821698
0.000857933
0.000893106
0.000926962
0.000959248
0.00098972
0.00101814
0.00104429
0.00106796
0.00108898
0.00110719
0.00112246
0.00113472
0.00114389
0.00114996
0.00115295
0.00115292
0.00114994
0.00114414
0.00113567
0.00112471
0.00111147
0.00109616
0.00107902
0.0010603
0.00104024
0.0010191
0.000997127
0.000974564
0.000951643
0.000928587
0.000905602
0.00088288
0.000860596
0.000838908
0.000817957
0.000797868
0.000778748
0.00076069
0.000743771
0.000728057
0.000713597
0.000700433
0.000688594
0.0006781
0.000668964
0.000661191
0.000654784
0.000649739
0.000646057
0.000643739
0.000642762
0.000643126
0.000645236
0.000647463
1.55196e-05
6.84877e-06
-3.14318e-06
-9.93424e-06
-1.50861e-05
-1.89132e-05
-2.16487e-05
-2.35555e-05
-2.48603e-05
-2.57379e-05
-2.63257e-05
-2.67281e-05
-2.70202e-05
-2.72533e-05
-2.74584e-05
-2.76502e-05
-2.783e-05
-2.79885e-05
-2.81077e-05
-2.81625e-05
-2.81222e-05
-2.79512e-05
-2.761e-05
-2.70556e-05
-2.62419e-05
-2.512e-05
-2.36384e-05
-2.17431e-05
-1.93781e-05
-1.64852e-05
-1.30045e-05
-8.87429e-06
-4.03179e-06
1.58695e-06
8.04647e-06
1.54115e-05
2.37466e-05
3.31154e-05
4.35802e-05
5.52016e-05
6.80371e-05
8.21412e-05
9.75642e-05
0.000114352
0.000132543
0.000152173
0.000173267
0.000195844
0.000219912
0.000245472
0.000272513
0.000301012
0.000330933
0.000362229
0.000394834
0.000428672
0.000463646
0.000499645
0.000536538
0.000574177
0.000612397
0.000651012
0.000689822
0.000728608
0.000767137
0.000805164
0.000842433
0.00087868
0.000913639
0.000947043
0.000978631
0.00100815
0.00103536
0.00106005
0.00108201
0.00110109
0.00111713
0.00113005
0.00113977
0.00114627
0.00114956
0.00114969
0.00114676
0.00114089
0.00113223
0.00112099
0.00110736
0.00109159
0.00107393
0.00105463
0.00103397
0.00101221
0.000989602
0.000966414
0.000942888
0.000919253
0.000895725
0.0008725
0.000849758
0.00082766
0.000806346
0.000785941
0.00076655
0.000748264
0.000731155
0.000715286
0.000700703
0.000687442
0.00067553
0.000664983
0.00065581
0.000648017
0.000641601
0.00063656
0.000632894
0.000630601
0.000629658
0.000630063
0.000632222
0.000634487
6.41366e-06
-2.77508e-06
-1.33335e-05
-2.04463e-05
-2.5798e-05
-2.974e-05
-3.2533e-05
-3.44657e-05
-3.57848e-05
-3.66791e-05
-3.72964e-05
-3.77479e-05
-3.81137e-05
-3.84484e-05
-3.8785e-05
-3.91397e-05
-3.95147e-05
-3.99009e-05
-4.02805e-05
-4.06281e-05
-4.09126e-05
-4.10976e-05
-4.11428e-05
-4.10039e-05
-4.06333e-05
-3.99806e-05
-3.89921e-05
-3.7612e-05
-3.57815e-05
-3.34401e-05
-3.05247e-05
-2.69708e-05
-2.27123e-05
-1.76819e-05
-1.18115e-05
-5.03282e-06
2.72212e-06
1.15207e-05
2.14287e-05
3.251e-05
4.48258e-05
5.84337e-05
7.33872e-05
8.97351e-05
0.00010752
0.00012678
0.000147543
0.000169831
0.000193658
0.000219026
0.000245929
0.000274348
0.000304253
0.000335599
0.000368328
0.000402366
0.000437623
0.00047399
0.00051134
0.000549529
0.000588392
0.000627743
0.000667381
0.000707082
0.000746609
0.000785707
0.000824113
0.000861549
0.000897737
0.000932393
0.00096524
0.000996007
0.00102444
0.00105029
0.00107335
0.00109344
0.0011104
0.00112411
0.00113451
0.00114154
0.00114522
0.00114561
0.00114278
0.00113688
0.00112806
0.00111654
0.00110253
0.00108629
0.00106808
0.00104817
0.00102686
0.00100442
0.000981139
0.000957277
0.000933094
0.000908833
0.000884715
0.000860945
0.000837708
0.000815164
0.000793458
0.000772711
0.000753027
0.000734492
0.000717178
0.000701139
0.00068642
0.000673051
0.000661054
0.000650443
0.000641226
0.000633402
0.000626972
0.000621929
0.000618275
0.000616007
0.000615103
0.000615559
0.000617787
0.000620111
-5.67121e-06
-1.53404e-05
-2.64231e-05
-3.38314e-05
-3.93669e-05
-4.34167e-05
-4.62684e-05
-4.82349e-05
-4.95818e-05
-5.05107e-05
-5.11785e-05
-5.17026e-05
-5.21673e-05
-5.26297e-05
-5.31248e-05
-5.36697e-05
-5.42672e-05
-5.49086e-05
-5.55759e-05
-5.62437e-05
-5.68802e-05
-5.74483e-05
-5.79067e-05
-5.82099e-05
-5.83087e-05
-5.81507e-05
-5.76805e-05
-5.68396e-05
-5.55668e-05
-5.37985e-05
-5.14688e-05
-4.85098e-05
-4.4852e-05
-4.04246e-05
-3.5156e-05
-2.89744e-05
-2.1808e-05
-1.35863e-05
-4.23989e-06
6.29819e-06
1.80921e-05
3.12023e-05
4.56852e-05
6.1592e-05
7.89684e-05
9.78536e-05
0.00011828
0.000140272
0.000163846
0.000189009
0.000215758
0.000244079
0.000273947
0.000305323
0.000338154
0.000372373
0.000407893
0.000444614
0.000482413
0.000521149
0.00056066
0.000600763
0.000641255
0.000681912
0.00072249
0.000762731
0.000802358
0.000841085
0.000878617
0.000914656
0.000948906
0.000981076
0.00101089
0.00103808
0.00106242
0.0010837
0.00110175
0.00111643
0.00112765
0.00113536
0.00113957
0.00114032
0.0011377
0.00113184
0.00112292
0.00111116
0.00109678
0.00108007
0.00106129
0.00104076
0.00101876
0.000995612
0.000971602
0.000947018
0.000922132
0.000897198
0.00087245
0.000848097
0.00082433
0.000801313
0.00077919
0.000758081
0.000738088
0.000719294
0.000701764
0.000685549
0.000670687
0.000657205
0.00064512
0.000634442
0.000625175
0.000617318
0.000610869
0.000605823
0.000602181
0.000599941
0.000599082
0.0005996
0.000601921
0.000604325
-2.09682e-05
-3.10821e-05
-4.26492e-05
-5.03286e-05
-5.60328e-05
-6.01839e-05
-6.30953e-05
-6.5103e-05
-6.649e-05
-6.747e-05
-6.82077e-05
-6.88262e-05
-6.9413e-05
-7.00276e-05
-7.07061e-05
-7.14664e-05
-7.23119e-05
-7.32337e-05
-7.4214e-05
-7.52267e-05
-7.62397e-05
-7.7215e-05
-7.81101e-05
-7.88782e-05
-7.94685e-05
-7.98266e-05
-7.98947e-05
-7.9612e-05
-7.89145e-05
-7.77356e-05
-7.6006e-05
-7.36546e-05
-7.06082e-05
-6.67927e-05
-6.21328e-05
-5.65532e-05
-4.99788e-05
-4.23359e-05
-3.35522e-05
-2.35579e-05
-1.22865e-05
3.24709e-07
1.43341e-05
2.97946e-05
4.67537e-05
6.52524e-05
8.53252e-05
0.000106999
0.000130292
0.000155216
0.000181771
0.000209949
0.000239729
0.000271078
0.000303952
0.000338289
0.000374012
0.000411025
0.000449214
0.000488445
0.000528561
0.000569382
0.000610708
0.000652315
0.000693957
0.00073537
0.00077627
0.000816362
0.000855336
0.000892879
0.000928675
0.000962412
0.000993791
0.00102253
0.00104836
0.00107105
0.00109041
0.00110628
0.00111855
0.00112715
0.00113208
0.00113336
0.0011311
0.00112541
0.0011165
0.00110457
0.00108988
0.00107273
0.0010534
0.00103223
0.00100953
0.00098564
0.000960867
0.00093552
0.000909888
0.00088424
0.00085882
0.00083385
0.000809522
0.000786006
0.000763446
0.000741961
0.000721649
0.000702589
0.00068484
0.000668447
0.000653444
0.000639849
0.000627677
0.000616933
0.000607618
0.000599729
0.000593262
0.000588214
0.000584586
0.000582379
0.000581573
0.000582167
0.000584602
0.000587107
-3.9699e-05
-5.02238e-05
-6.22375e-05
-7.01652e-05
-7.60246e-05
-8.02713e-05
-8.32438e-05
-8.52998e-05
-8.67386e-05
-8.77849e-05
-8.86107e-05
-8.93435e-05
-9.0074e-05
-9.08631e-05
-9.1748e-05
-9.2747e-05
-9.38636e-05
-9.50889e-05
-9.64047e-05
-9.77846e-05
-9.91956e-05
-0.000100599
-0.000101951
-0.000103203
-0.000104303
-0.000105195
-0.000105817
-0.000106107
-0.000105998
-0.000105419
-0.000104299
-0.000102563
-0.000100134
-9.69341e-05
-9.28853e-05
-8.79087e-05
-8.19263e-05
-7.48616e-05
-6.664e-05
-5.71897e-05
-4.64427e-05
-3.43349e-05
-2.08073e-05
-5.80607e-06
1.07166e-05
2.88026e-05
4.84871e-05
6.97982e-05
9.27571e-05
0.000117377
0.000143662
0.00017161
0.000201205
0.000232422
0.000265223
0.000299556
0.000335353
0.000372529
0.000410979
0.000450576
0.000491174
0.000532602
0.000574662
0.000617136
0.000659781
0.00070233
0.000744496
0.000785977
0.000826452
0.000865594
0.000903068
0.000938543
0.000971692
0.0010022
0.00102979
0.00105419
0.00107517
0.00109254
0.00110618
0.00111598
0.00112192
0.00112403
0.00112237
0.00111709
0.00110836
0.00109642
0.00108155
0.00106403
0.00104422
0.00102244
0.000999047
0.0009744
0.000948839
0.000922695
0.000896278
0.000869875
0.000843746
0.000818121
0.000793202
0.000769163
0.000746147
0.000724272
0.000703634
0.000684304
0.000666337
0.000649771
0.000634631
0.000620931
0.000608678
0.000597874
0.000588516
0.000580599
0.000574118
0.000569072
0.000565462
0.000563293
0.000562548
0.00056323
0.000565801
0.000568426
-6.20735e-05
-7.29773e-05
-8.54022e-05
-9.35573e-05
-9.95598e-05
-0.000103897
-0.000106933
-0.000109044
-0.000110546
-0.000111673
-0.000112603
-0.000113469
-0.000114363
-0.000115347
-0.00011646
-0.000117719
-0.000119127
-0.000120677
-0.000122348
-0.000124115
-0.000125943
-0.000127793
-0.000129619
-0.000131372
-0.000132996
-0.000134434
-0.000135623
-0.000136496
-0.000136984
-0.000137013
-0.000136508
-0.000135391
-0.000133581
-0.000130998
-0.00012756
-0.000123185
-0.000117793
-0.000111306
-0.000103647
-9.47432e-05
-8.45271e-05
-7.29344e-05
-5.99067e-05
-4.53914e-05
-2.93415e-05
-1.17165e-05
7.51816e-06
2.83905e-05
5.09223e-05
7.51285e-05
0.000101017
0.000128588
0.000157834
0.000188737
0.000221267
0.000255383
0.000291028
0.000328129
0.000366594
0.00040631
0.000447143
0.000488935
0.000531501
0.000574631
0.000618092
0.000661624
0.000704942
0.000747742
0.000789702
0.000830482
0.000869735
0.000907109
0.000942254
0.000974828
0.00100451
0.00103099
0.00105402
0.00107336
0.00108884
0.00110032
0.00110776
0.00111113
0.00111051
0.00110601
0.00109782
0.00108616
0.00107134
0.00105367
0.0010335
0.00101121
0.00098718
0.000961804
0.000935456
0.000908497
0.000881264
0.000854068
0.000827188
0.000800869
0.000775325
0.000750733
0.000727238
0.000704959
0.000683986
0.000664384
0.0006462
0.000629466
0.000614197
0.000600401
0.000588077
0.000577222
0.000567829
0.00055989
0.000553402
0.000548361
0.000544774
0.000542649
0.000541973
0.000542754
0.000545479
0.00054824
-8.829e-05
-9.95426e-05
-0.000112345
-0.000120709
-0.000126844
-0.000131269
-0.000134369
-0.000136543
-0.000138119
-0.00013934
-0.000140391
-0.000141407
-0.000142483
-0.000143681
-0.00014504
-0.000146578
-0.000148298
-0.000150191
-0.000152236
-0.000154408
-0.00015667
-0.000158981
-0.000161296
-0.000163563
-0.000165724
-0.00016772
-0.000169485
-0.000170949
-0.00017204
-0.000172681
-0.000172794
-0.000172297
-0.000171107
-0.00016914
-0.000166311
-0.000162537
-0.000157735
-0.000151827
-0.000144735
-0.000136387
-0.000126718
-0.000115664
-0.000103171
-8.91893e-05
-7.36752e-05
-5.65918e-05
-3.79079e-05
-1.7598e-05
4.35828e-06
2.79758e-05
5.3264e-05
8.02265e-05
0.000108861
0.000139156
0.000171092
0.000204639
0.000239753
0.000276374
0.000314429
0.000353824
0.000394443
0.000436147
0.000478774
0.000522134
0.000566013
0.000610168
0.000654333
0.000698215
0.000741496
0.000783841
0.000824895
0.000864293
0.000901663
0.000936634
0.000968844
0.000997948
0.00102363
0.0010456
0.00106364
0.00107756
0.00108724
0.00109263
0.00109376
0.00109072
0.00108366
0.00107283
0.00105852
0.00104106
0.00102084
0.000998267
0.000973765
0.000947762
0.000920681
0.000892921
0.00086486
0.000836841
0.00080917
0.000782115
0.000755901
0.000730717
0.000706713
0.000684005
0.00066268
0.000642798
0.000624396
0.000607496
0.000592106
0.000578222
0.000565838
0.000554941
0.000545522
0.000537569
0.000531078
0.000526048
0.000522488
0.000520411
0.000519809
0.000520697
0.000523591
0.000526501
-0.000118535
-0.000130108
-0.000143257
-0.000151812
-0.00015807
-0.00016258
-0.000165749
-0.000167992
-0.000169653
-0.000170981
-0.000172168
-0.000173351
-0.000174625
-0.000176055
-0.000177679
-0.000179514
-0.000181562
-0.000183815
-0.000186252
-0.000188844
-0.000191555
-0.000194343
-0.000197159
-0.000199952
-0.000202661
-0.000205223
-0.000207571
-0.000209633
-0.000211332
-0.000212589
-0.000213323
-0.000213447
-0.000212877
-0.000211525
-0.000209306
-0.000206134
-0.000201927
-0.000196605
-0.000190093
-0.000182323
-0.000173231
-0.00016276
-0.000150861
-0.000137491
-0.000122615
-0.000106201
-8.82263e-05
-6.86709e-05
-4.75196e-05
-2.47611e-05
-3.87426e-07
2.56056e-05
5.32181e-05
8.2445e-05
0.000113275
0.00014569
0.00017966
0.000215137
0.000252074
0.000290402
0.000330033
0.000370857
0.000412748
0.000455553
0.000499096
0.000543172
0.000587552
0.000631977
0.000676157
0.000719778
0.000762496
0.000803945
0.00084374
0.000881484
0.000916771
0.000949205
0.000978401
0.001004
0.00102569
0.0010432
0.00105633
0.00106496
0.00106902
0.00106856
0.00106371
0.00105465
0.00104169
0.00102517
0.00100549
0.000983098
0.000958475
0.000932099
0.000904448
0.000875983
0.000847131
0.000818285
0.000789793
0.000761952
0.000735016
0.000709187
0.000684625
0.000661448
0.000639741
0.000619557
0.000600925
0.000583854
0.000568342
0.000554375
0.000541936
0.000531005
0.000521566
0.000513604
0.000507114
0.000502097
0.000498565
0.000496537
0.000496012
0.000497012
0.000500085
0.000503155
-0.000152983
-0.000164849
-0.000178315
-0.000187046
-0.000193419
-0.000198012
-0.000201253
-0.000203575
-0.000205331
-0.00020678
-0.000208117
-0.000209481
-0.000210971
-0.000212649
-0.000214554
-0.000216703
-0.000219098
-0.000221727
-0.00022457
-0.000227598
-0.000230772
-0.000234049
-0.000237381
-0.00024071
-0.000243977
-0.000247115
-0.000250054
-0.00025272
-0.000255033
-0.00025691
-0.000258267