/*--------------------------------*- C++ -*----------------------------------*\
| =========                 |                                                 |
| \\      /  F ield         | OpenFOAM: The Open Source CFD Toolbox           |
|  \\    /   O peration     | Version:  2406                                  |
|   \\  /    A nd           | Website:  www.openfoam.com                      |
|    \\/     M anipulation  |                                                 |
\*---------------------------------------------------------------------------*/
FoamFile
{
    version     2.0;
    format      ascii;
    arch        "LSB;label=32;scalar=64";
    class       volVectorField;
    location    "14.2";
    object      Uold;
}
// * * * * * * * * * * * * * * * * * * * * * * * * * * * * * * * * * * * * * //

dimensions      [0 1 -1 0 0 0 0];

internalField   nonuniform List<vector> 
900
(
(0.000383243 -0.000370323 0)
(0.00089369 -0.000377412 0)
(0.00132767 -0.000387688 0)
(0.00161524 -0.000381407 0)
(0.00179985 -0.000400462 0)
(0.00181778 -0.000380898 0)
(0.00142414 -0.000357173 0)
(0.000532089 -0.000341875 0)
(-0.00108334 -0.000376846 0)
(-0.00353722 -0.000450894 0)
(-0.00727837 -0.00048478 0)
(-0.012978 -0.000241231 0)
(-0.0215959 0.000713939 0)
(-0.0335234 0.00272928 0)
(-0.0480404 0.00523656 0)
(-0.0629881 0.00679891 0)
(-0.075892 0.0066076 0)
(-0.0846334 0.00499058 0)
(-0.0880841 0.0025296 0)
(-0.0853734 -0.000390819 0)
(-0.0764617 -0.00341681 0)
(-0.0612909 -0.0061851 0)
(-0.0412745 -0.00807002 0)
(-0.0182148 -0.00837228 0)
(0.00339929 -0.0061808 0)
(0.0187502 -0.00192188 0)
(0.0226561 0.00241835 0)
(0.0169293 0.00393562 0)
(0.00838003 0.00324424 0)
(0.00136371 0.00158021 0)
(0.000345343 -0.000910373 0)
(0.000278397 -0.000562871 0)
(-0.000238869 -0.000340195 0)
(-0.00104989 -7.70937e-05 0)
(-0.00224486 0.00019464 0)
(-0.003996 0.00077717 0)
(-0.00691064 0.00165501 0)
(-0.0114628 0.00288585 0)
(-0.01852 0.00448674 0)
(-0.0288947 0.00671652 0)
(-0.0436523 0.0100267 0)
(-0.0631563 0.0147212 0)
(-0.0863402 0.0200552 0)
(-0.110049 0.0239569 0)
(-0.130833 0.024448 0)
(-0.146559 0.0212348 0)
(-0.156571 0.015224 0)
(-0.160565 0.00734779 0)
(-0.158531 -0.00161979 0)
(-0.150215 -0.0111457 0)
(-0.135722 -0.0205339 0)
(-0.114994 -0.0290332 0)
(-0.0887657 -0.0349733 0)
(-0.0583898 -0.0365104 0)
(-0.0269558 -0.0307961 0)
(0.000563437 -0.0174874 0)
(0.0174257 -0.000426235 0)
(0.018725 0.0102296 0)
(0.0111538 0.0124867 0)
(0.0021548 0.00816162 0)
(7.60087e-05 -0.00099588 0)
(-0.00122956 0.000211041 0)
(-0.00347218 0.000922606 0)
(-0.00606395 0.00162314 0)
(-0.00937311 0.00251504 0)
(-0.0136946 0.0042652 0)
(-0.0200504 0.00706118 0)
(-0.0293176 0.0112198 0)
(-0.0428804 0.0169802 0)
(-0.0617399 0.0245923 0)
(-0.0862077 0.0336414 0)
(-0.114228 0.0422422 0)
(-0.141733 0.0473222 0)
(-0.164798 0.0469166 0)
(-0.182082 0.0414699 0)
(-0.193668 0.0322678 0)
(-0.199996 0.02039 0)
(-0.201444 0.00674595 0)
(-0.198363 -0.00792408 0)
(-0.190689 -0.0233 0)
(-0.178307 -0.0385905 0)
(-0.160685 -0.0531456 0)
(-0.137268 -0.0645021 0)
(-0.108091 -0.0701663 0)
(-0.0735322 -0.0648741 0)
(-0.0375705 -0.0462707 0)
(-0.00555414 -0.0155116 0)
(0.00902507 0.00998091 0)
(0.00763785 0.0197807 0)
(0.00131576 0.0146883 0)
(-0.000328804 0.000249388 0)
(-0.00320417 0.00302335 0)
(-0.00750424 0.00449757 0)
(-0.0122077 0.00586686 0)
(-0.0180634 0.00784622 0)
(-0.0255077 0.0115114 0)
(-0.0359731 0.0173282 0)
(-0.0505933 0.0257976 0)
(-0.0707859 0.0369922 0)
(-0.0966025 0.0501442 0)
(-0.126111 0.0626111 0)
(-0.154826 0.0703603 0)
(-0.178602 0.0707556 0)
(-0.195982 0.0644204 0)
(-0.207705 0.0534023 0)
(-0.214429 0.039188 0)
(-0.217167 0.0230314 0)
(-0.216713 0.00566935 0)
(-0.213699 -0.0124237 0)
(-0.20835 -0.0313732 0)
(-0.200575 -0.0506785 0)
(-0.189551 -0.0703614 0)
(-0.173801 -0.0877726 0)
(-0.151713 -0.100585 0)
(-0.121007 -0.101397 0)
(-0.0826233 -0.0855504 0)
(-0.0387913 -0.0467123 0)
(-0.0044158 -0.00298905 0)
(0.00348662 0.0203591 0)
(0.000471353 0.0171378 0)
(-0.000718248 0.00249873 0)
(-0.00509421 0.00739671 0)
(-0.0113254 0.00987046 0)
(-0.0180129 0.0121705 0)
(-0.0262939 0.0157591 0)
(-0.0367341 0.0221432 0)
(-0.0511093 0.0320858 0)
(-0.0704895 0.0459819 0)
(-0.0955334 0.0629078 0)
(-0.124378 0.0798087 0)
(-0.152994 0.0917034 0)
(-0.176511 0.0945344 0)
(-0.192857 0.088262 0)
(-0.202826 0.0758205 0)
(-0.207921 0.0597623 0)
(-0.209123 0.041585 0)
(-0.207832 0.022591 0)
(-0.204786 0.00317701 0)
(-0.20103 -0.0162926 0)
(-0.19711 -0.0364955 0)
(-0.193536 -0.0573459 0)
(-0.189666 -0.0799962 0)
(-0.183957 -0.102322 0)
(-0.173518 -0.123087 0)
(-0.154049 -0.134002 0)
(-0.122442 -0.128505 0)
(-0.0770801 -0.0935916 0)
(-0.0246816 -0.0322524 0)
(0.00282341 0.0149551 0)
(0.000666542 0.0185986 0)
(-0.00111476 0.00606968 0)
(-0.00688924 0.0137136 0)
(-0.0148744 0.0174145 0)
(-0.0233848 0.0209053 0)
(-0.0338786 0.0265963 0)
(-0.0469475 0.0364028 0)
(-0.0644108 0.0511402 0)
(-0.0867114 0.0702967 0)
(-0.113143 0.0909204 0)
(-0.140112 0.107631 0)
(-0.163028 0.114765 0)
(-0.178461 0.110284 0)
(-0.186776 0.0971736 0)
(-0.19011 0.0796064 0)
(-0.190093 0.0598504 0)
(-0.187593 0.0392284 0)
(-0.183566 0.0188715 0)
(-0.178197 -0.00103143 0)
(-0.172686 -0.0199156 0)
(-0.167776 -0.0388216 0)
(-0.165108 -0.057952 0)
(-0.164893 -0.0799592 0)
(-0.166794 -0.103851 0)
(-0.167882 -0.13065 0)
(-0.162952 -0.152558 0)
(-0.146285 -0.162871 0)
(-0.110641 -0.144256 0)
(-0.0566622 -0.083226 0)
(0.000110268 -0.00472819 0)
(0.00245491 0.020592 0)
(-0.00137525 0.0104347 0)
(-0.00814869 0.0211765 0)
(-0.0174187 0.0262743 0)
(-0.0272726 0.0311605 0)
(-0.0393476 0.0392488 0)
(-0.0541021 0.0526421 0)
(-0.0730563 0.07178 0)
(-0.0957167 0.0946476 0)
(-0.120239 0.116197 0)
(-0.142404 0.129578 0)
(-0.158452 0.129967 0)
(-0.167016 0.118249 0)
(-0.170458 0.0999187 0)
(-0.171356 0.0791617 0)
(-0.170828 0.0573237 0)
(-0.168786 0.0351154 0)
(-0.165033 0.0133371 0)
(-0.158965 -0.00764126 0)
(-0.151609 -0.0265034 0)
(-0.143672 -0.0440209 0)
(-0.137744 -0.059957 0)
(-0.135162 -0.0782307 0)
(-0.137617 -0.0990485 0)
(-0.143695 -0.126808 0)
(-0.149173 -0.155477 0)
(-0.147503 -0.180878 0)
(-0.128096 -0.183189 0)
(-0.087701 -0.143529 0)
(-0.0183081 -0.0437553 0)
(0.00952474 0.0210802 0)
(-0.00154053 0.015601 0)
(-0.00893932 0.0298703 0)
(-0.0190129 0.0365286 0)
(-0.0296691 0.0429224 0)
(-0.042522 0.0534562 0)
(-0.0577344 0.0701943 0)
(-0.0763676 0.0927983 0)
(-0.0971908 0.117521 0)
(-0.117903 0.137606 0)
(-0.134648 0.145873 0)
(-0.145175 0.139462 0)
(-0.150117 0.122402 0)
(-0.152979 0.101617 0)
(-0.155788 0.0800374 0)
(-0.158377 0.0573551 0)
(-0.159222 0.03342 0)
(-0.15724 0.00909823 0)
(-0.151533 -0.0145609 0)
(-0.143012 -0.0351573 0)
(-0.132238 -0.052865 0)
(-0.122088 -0.0663676 0)
(-0.114417 -0.080252 0)
(-0.112525 -0.0951737 0)
(-0.116918 -0.119101 0)
(-0.125885 -0.148664 0)
(-0.13305 -0.183652 0)
(-0.128625 -0.204614 0)
(-0.103591 -0.192397 0)
(-0.0476152 -0.103055 0)
(0.0134403 0.0123046 0)
(-0.0014917 0.0208299 0)
(-0.0089617 0.0386687 0)
(-0.0192335 0.0468927 0)
(-0.0300429 0.0546553 0)
(-0.0427756 0.0672375 0)
(-0.0572191 0.0864559 0)
(-0.074026 0.111156 0)
(-0.0916632 0.136092 0)
(-0.108079 0.153537 0)
(-0.120363 0.156786 0)
(-0.127852 0.145432 0)
(-0.13246 0.126039 0)
(-0.137654 0.105556 0)
(-0.143988 0.0844843 0)
(-0.149884 0.0607334 0)
(-0.152941 0.0338754 0)
(-0.152188 0.00566619 0)
(-0.146891 -0.0220149 0)
(-0.138024 -0.045722 0)
(-0.125812 -0.0651484 0)
(-0.112975 -0.0776511 0)
(-0.10102 -0.0880183 0)
(-0.0940793 -0.0963923 0)
(-0.0937008 -0.113562 0)
(-0.101608 -0.139189 0)
(-0.11246 -0.177932 0)
(-0.118087 -0.212863 0)
(-0.106264 -0.224056 0)
(-0.0684775 -0.162426 0)
(-0.00228698 -0.012122 0)
(-0.00131703 0.0260708 0)
(-0.00838361 0.047736 0)
(-0.0182662 0.0576068 0)
(-0.0285789 0.0665645 0)
(-0.040341 0.0806716 0)
(-0.053008 0.101529 0)
(-0.0670008 0.127269 0)
(-0.0809194 0.151588 0)
(-0.0933506 0.166307 0)
(-0.102484 0.165714 0)
(-0.108784 0.151671 0)
(-0.11448 0.132261 0)
(-0.122005 0.113166 0)
(-0.130432 0.0922274 0)
(-0.137614 0.0663377 0)
(-0.141233 0.0356394 0)
(-0.140999 0.00311213 0)
(-0.136327 -0.0288847 0)
(-0.128359 -0.0561323 0)
(-0.116679 -0.0781577 0)
(-0.103854 -0.091017 0)
(-0.090262 -0.0994247 0)
(-0.080411 -0.10233 0)
(-0.075142 -0.111781 0)
(-0.0796155 -0.129739 0)
(-0.0903441 -0.167093 0)
(-0.101861 -0.210556 0)
(-0.100972 -0.241942 0)
(-0.0757075 -0.207145 0)
(-0.0238091 -0.0578052 0)
(-0.00094964 0.0304436 0)
(-0.00710595 0.0556191 0)
(-0.0160654 0.066978 0)
(-0.0253715 0.0767094 0)
(-0.0355632 0.0915952 0)
(-0.0458116 0.113076 0)
(-0.0564425 0.138975 0)
(-0.0664519 0.162329 0)
(-0.075286 0.174997 0)
(-0.0820773 0.172179 0)
(-0.0878597 0.157428 0)
(-0.094232 0.139179 0)
(-0.102345 0.121419 0)
(-0.110518 0.0999598 0)
(-0.117049 0.0715365 0)
(-0.120063 0.0371357 0)
(-0.119981 0.000851775 0)
(-0.116131 -0.034836 0)
(-0.110006 -0.0652184 0)
(-0.100279 -0.0899156 0)
(-0.0897605 -0.103892 0)
(-0.0772485 -0.111761 0)
(-0.0677232 -0.11132 0)
(-0.0599158 -0.114619 0)
(-0.0610416 -0.123826 0)
(-0.068893 -0.155732 0)
(-0.0822337 -0.202045 0)
(-0.087387 -0.250039 0)
(-0.0713543 -0.240081 0)
(-0.0302877 -0.111696 0)
(-0.000534715 0.0341664 0)
(-0.00541886 0.0629695 0)
(-0.0130029 0.0758979 0)
(-0.0208593 0.0861698 0)
(-0.0290313 0.101171 0)
(-0.036469 0.122493 0)
(-0.0434506 0.147935 0)
(-0.0495077 0.170438 0)
(-0.0549222 0.181961 0)
(-0.0595685 0.178383 0)
(-0.064479 0.163962 0)
(-0.0702131 0.146775 0)
(-0.07692 0.129494 0)
(-0.08296 0.10691 0)
(-0.0876625 0.0760418 0)
(-0.0895305 0.0385368 0)
(-0.0896038 -0.000593609 0)
(-0.0867967 -0.0389917 0)
(-0.0831444 -0.0717273 0)
(-0.0761535 -0.0986434 0)
(-0.0693107 -0.113814 0)
(-0.0596655 -0.121764 0)
(-0.0529592 -0.119432 0)
(-0.045565 -0.118754 0)
(-0.0455945 -0.120563 0)
(-0.0506973 -0.146046 0)
(-0.0641829 -0.191865 0)
(-0.0721539 -0.252479 0)
(-0.0627477 -0.264945 0)
(-0.0284832 -0.159722 0)
(-3.23731e-05 0.0363155 0)
(-0.00335729 0.0680488 0)
(-0.00925128 0.0823216 0)
(-0.0154542 0.0926944 0)
(-0.0214875 0.107138 0)
(-0.0260858 0.127436 0)
(-0.0294375 0.151916 0)
(-0.0315147 0.17367 0)
(-0.0334401 0.18497 0)
(-0.0356154 0.181694 0)
(-0.0389245 0.168088 0)
(-0.0427572 0.151498 0)
(-0.0467109 0.134104 0)
(-0.0495101 0.110559 0)
(-0.0518617 0.0782226 0)
(-0.0524508 0.0389455 0)
(-0.052922 -0.00167115 0)
(-0.0513292 -0.0415035 0)
(-0.0504621 -0.0755933 0)
(-0.0465158 -0.104032 0)
(-0.0439809 -0.120133 0)
(-0.0381589 -0.128448 0)
(-0.0356293 -0.12517 0)
(-0.0305391 -0.122319 0)
(-0.031559 -0.118471 0)
(-0.0347918 -0.1374 0)
(-0.048062 -0.180341 0)
(-0.0575649 -0.251031 0)
(-0.0538937 -0.283991 0)
(-0.0261433 -0.203021 0)
(0.000374644 0.0376329 0)
(-0.00127753 0.0722926 0)
(-0.00528474 0.0880649 0)
(-0.00966125 0.0985179 0)
(-0.0135175 0.111893 0)
(-0.015395 0.130535 0)
(-0.0152525 0.153417 0)
(-0.0133574 0.174454 0)
(-0.0115151 0.186125 0)
(-0.0106642 0.183964 0)
(-0.0116355 0.171284 0)
(-0.0129223 0.154578 0)
(-0.0137682 0.136367 0)
(-0.0130588 0.112046 0)
(-0.0129813 0.0792912 0)
(-0.0122631 0.0395708 0)
(-0.0133416 -0.00134702 0)
(-0.0129796 -0.0415954 0)
(-0.0148851 -0.0761546 0)
(-0.0139581 -0.105368 0)
(-0.0158986 -0.121845 0)
(-0.0143301 -0.130439 0)
(-0.0167048 -0.126723 0)
(-0.0150758 -0.123164 0)
(-0.0188427 -0.115983 0)
(-0.0216054 -0.129876 0)
(-0.0348507 -0.16875 0)
(-0.0447573 -0.246362 0)
(-0.0457644 -0.296481 0)
(-0.023475 -0.239948 0)
(0.000761899 0.0371378 0)
(0.00076842 0.0736104 0)
(-0.00128535 0.0906177 0)
(-0.00389899 0.100838 0)
(-0.00583071 0.112802 0)
(-0.00544181 0.129076 0)
(-0.00239242 0.149787 0)
(0.00321024 0.169773 0)
(0.00893449 0.1822 0)
(0.0133511 0.18173 0)
(0.0152233 0.170387 0)
(0.0166013 0.153471 0)
(0.0182875 0.13424 0)
(0.0219187 0.109572 0)
(0.0240496 0.0776284 0)
(0.0261459 0.0391088 0)
(0.0246147 -0.000676014 0)
(0.0241298 -0.040244 0)
(0.0199258 -0.0742874 0)
(0.0182357 -0.10336 0)
(0.0120867 -0.119464 0)
(0.00954485 -0.128053 0)
(0.00228059 -0.124091 0)
(0.000299165 -0.120621 0)
(-0.00697331 -0.111566 0)
(-0.0103231 -0.121888 0)
(-0.0243325 -0.156743 0)
(-0.0344355 -0.24006 0)
(-0.0395078 -0.305119 0)
(-0.0213444 -0.272514 0)
(0.000932576 0.0362262 0)
(0.00244625 0.0744373 0)
(0.00227111 0.0928571 0)
(0.00142268 0.103184 0)
(0.00124488 0.113572 0)
(0.00346954 0.127207 0)
(0.0087716 0.144878 0)
(0.0174934 0.163152 0)
(0.0271204 0.17609 0)
(0.0356042 0.177734 0)
(0.0408292 0.168262 0)
(0.0448626 0.151501 0)
(0.0481806 0.131248 0)
(0.0535268 0.106186 0)
(0.0567733 0.0754213 0)
(0.0601392 0.0388878 0)
(0.0585566 0.00109205 0)
(0.0578377 -0.0371124 0)
(0.051875 -0.0698045 0)
(0.047911 -0.0978101 0)
(0.0378145 -0.112739 0)
(0.0314673 -0.121021 0)
(0.0196162 -0.117007 0)
(0.0143352 -0.114368 0)
(0.00344596 -0.104801 0)
(-0.000847185 -0.113113 0)
(-0.0160457 -0.143982 0)
(-0.0259254 -0.231402 0)
(-0.0347701 -0.309195 0)
(-0.0195663 -0.301109 0)
(0.00107444 0.0336626 0)
(0.00379683 0.0720985 0)
(0.00535766 0.0915465 0)
(0.00604661 0.101704 0)
(0.00723375 0.110669 0)
(0.0106884 0.121388 0)
(0.017175 0.13568 0)
(0.0278285 0.151211 0)
(0.0404828 0.164011 0)
(0.0532167 0.167835 0)
(0.0624452 0.161182 0)
(0.0698384 0.14589 0)
(0.0747353 0.125628 0)
(0.0811837 0.100644 0)
(0.0846595 0.0711852 0)
(0.0888375 0.0369626 0)
(0.0872167 0.00188069 0)
(0.0863683 -0.033966 0)
(0.078724 -0.064036 0)
(0.0725865 -0.0897546 0)
(0.0589108 -0.102683 0)
(0.0494731 -0.110415 0)
(0.0338485 -0.106501 0)
(0.0261621 -0.10511 0)
(0.0120648 -0.0957545 0)
(0.00691164 -0.103254 0)
(-0.00997257 -0.130851 0)
(-0.0193911 -0.221928 0)
(-0.0317782 -0.310872 0)
(-0.0181236 -0.327257 0)
(0.000953229 0.0315358 0)
(0.00457667 0.0702712 0)
(0.00753316 0.0907966 0)
(0.00969252 0.101458 0)
(0.0121236 0.109129 0)
(0.0165054 0.117403 0)
(0.0235735 0.12794 0)
(0.0349232 0.1399 0)
(0.0490899 0.150884 0)
(0.065109 0.155775 0)
(0.0783616 0.151928 0)
(0.0899052 0.139178 0)
(0.0971968 0.120239 0)
(0.105187 0.0961325 0)
(0.108737 0.068193 0)
(0.11314 0.0361501 0)
(0.110905 0.0040497 0)
(0.109284 -0.0288578 0)
(0.099521 -0.0554951 0)
(0.0911605 -0.0783447 0)
(0.0743794 -0.0890809 0)
(0.0627903 -0.096466 0)
(0.0443842 -0.0929943 0)
(0.0353885 -0.0932697 0)
(0.0187382 -0.0846178 0)
(0.0133418 -0.0920638 0)
(-0.00532665 -0.116496 0)
(-0.0138242 -0.210501 0)
(-0.0299983 -0.309522 0)
(-0.016745 -0.351464 0)
(0.000936141 0.0279931 0)
(0.00498968 0.0652537 0)
(0.0090788 0.0863039 0)
(0.0123511 0.0968507 0)
(0.0156113 0.103737 0)
(0.0205321 0.109667 0)
(0.0274027 0.117166 0)
(0.0383844 0.125392 0)
(0.0520829 0.133752 0)
(0.0692728 0.138236 0)
(0.0848436 0.136427 0)
(0.100051 0.126732 0)
(0.109973 0.110488 0)
(0.120093 0.0887367 0)
(0.12417 0.0634792 0)
(0.128724 0.0343948 0)
(0.125608 0.00604498 0)
(0.122939 -0.0230516 0)
(0.111156 -0.0455609 0)
(0.101288 -0.0652193 0)
(0.0826014 -0.073885 0)
(0.0704366 -0.081209 0)
(0.0506109 -0.0784383 0)
(0.041652 -0.0804891 0)
(0.0231806 -0.0727097 0)
(0.0182656 -0.0806006 0)
(-0.00234795 -0.102296 0)
(-0.00942598 -0.198723 0)
(-0.0295856 -0.306738 0)
(-0.0152769 -0.374634 0)
(0.000604614 0.0258619 0)
(0.00483487 0.0623149 0)
(0.00945317 0.0837003 0)
(0.0137357 0.0951433 0)
(0.0178824 0.101232 0)
(0.0233569 0.105805 0)
(0.0301744 0.110398 0)
(0.0404596 0.115325 0)
(0.0527913 0.120306 0)
(0.0692124 0.122987 0)
(0.0847792 0.121488 0)
(0.101643 0.113929 0)
(0.113157 0.100592 0)
(0.124873 0.0817354 0)
(0.129585 0.0600274 0)
(0.13435 0.0344576 0)
(0.1306 0.0103577 0)
(0.127346 -0.0147447 0)
(0.114458 -0.0332449 0)
(0.104474 -0.0502815 0)
(0.0853622 -0.0574768 0)
(0.0740941 -0.0651806 0)
(0.0538488 -0.0631534 0)
(0.0459321 -0.0668653 0)
(0.0261303 -0.0597451 0)
(0.022525 -0.0680889 0)
(-2.65749e-05 -0.0867903 0)
(-0.00502576 -0.185104 0)
(-0.0299638 -0.301886 0)
(-0.0133827 -0.397036 0)
(0.000646567 0.0223348 0)
(0.00453645 0.0560262 0)
(0.00952037 0.0772163 0)
(0.0143131 0.0880095 0)
(0.0187168 0.0939416 0)
(0.0244756 0.0969489 0)
(0.0307237 0.099926 0)
(0.040199 0.102334 0)
(0.0506194 0.104926 0)
(0.0652648 0.105779 0)
(0.0790008 0.104012 0)
(0.0954154 0.0978659 0)
(0.106873 0.0873693 0)
(0.119108 0.071788 0)
(0.124022 0.0542024 0)
(0.129177 0.0328234 0)
(0.125308 0.0133371 0)
(0.122549 -0.00755559 0)
(0.109853 -0.022285 0)
(0.101339 -0.0369483 0)
(0.0830719 -0.0428986 0)
(0.0738988 -0.0508008 0)
(0.0539785 -0.0493173 0)
(0.0479691 -0.0543046 0)
(0.0272427 -0.0478007 0)
(0.0257007 -0.056657 0)
(0.00109589 -0.0724965 0)
(-0.00118182 -0.171502 0)
(-0.0315407 -0.296211 0)
(-0.0109392 -0.419049 0)
(7.51432e-05 0.0210131 0)
(0.00357385 0.0537712 0)
(0.00801677 0.0742766 0)
(0.0132416 0.0863095 0)
(0.0183801 0.0914621 0)
(0.0246294 0.0941065 0)
(0.0310841 0.0951238 0)
(0.0400739 0.095618 0)
(0.049181 0.0957245 0)
(0.0619715 0.094635 0)
(0.0734401 0.0918335 0)
(0.0880334 0.0859339 0)
(0.0982158 0.0774061 0)
(0.109747 0.0643414 0)
(0.114262 0.0505034 0)
(0.119568 0.0328259 0)
(0.1159 0.0176218 0)
(0.114222 0.000240623 0)
(0.102505 -0.0112303 0)
(0.0961559 -0.024165 0)
(0.0791837 -0.0289423 0)
(0.0724823 -0.0370584 0)
(0.0530145 -0.0356709 0)
(0.0493273 -0.041605 0)
(0.0277395 -0.0352258 0)
(0.0289876 -0.0442711 0)
(0.00228222 -0.0566637 0)
(0.00366736 -0.15563 0)
(-0.0334939 -0.288965 0)
(-0.00745483 -0.440713 0)
(0.000506656 0.018366 0)
(0.003099 0.0475407 0)
(0.00728108 0.0672874 0)
(0.0122858 0.0770043 0)
(0.0167382 0.0822917 0)
(0.0231009 0.0835864 0)
(0.0288351 0.0842643 0)
(0.0374863 0.0835922 0)
(0.0452894 0.0829164 0)
(0.056681 0.0808925 0)
(0.0660892 0.0779743 0)
(0.0788053 0.0724788 0)
(0.087261 0.0658109 0)
(0.0978328 0.0551216 0)
(0.101534 0.044657 0)
(0.107156 0.0305128 0)
(0.103715 0.0190903 0)
(0.10368 0.00503261 0)
(0.093142 -0.0036397 0)
(0.0894274 -0.0146931 0)
(0.0737977 -0.0183719 0)
(0.0698592 -0.0261252 0)
(0.0508961 -0.0248421 0)
(0.0497702 -0.0312088 0)
(0.0273635 -0.0253353 0)
(0.0316455 -0.0344945 0)
(0.00272095 -0.0437483 0)
(0.00830536 -0.140249 0)
(-0.0365863 -0.281399 0)
(-0.00286278 -0.461875 0)
(-0.000929699 0.0177903 0)
(0.000672028 0.0475708 0)
(0.00338677 0.0655023 0)
(0.00844144 0.0775009 0)
(0.0141727 0.0811803 0)
(0.0210529 0.0825467 0)
(0.0275703 0.0813762 0)
(0.0361808 0.0794934 0)
(0.0435644 0.0772145 0)
(0.0539364 0.0739417 0)
(0.0618851 0.0704057 0)
(0.0729101 0.0646734 0)
(0.0797178 0.0590892 0)
(0.0890738 0.0498147 0)
(0.0918503 0.0419461 0)
(0.0973524 0.0302276 0)
(0.0940691 0.0219931 0)
(0.0951415 0.0101977 0)
(0.0855877 0.00415912 0)
(0.0837943 -0.00571908 0)
(0.069123 -0.00783104 0)
(0.0673309 -0.0154846 0)
(0.048475 -0.0133841 0)
(0.0497973 -0.0201077 0)
(0.0263224 -0.0138492 0)
(0.0344523 -0.022919 0)
(0.00352766 -0.0284159 0)
(0.0151772 -0.121284 0)
(-0.0390841 -0.272422 0)
(0.00374664 -0.482258 0)
(0.00102449 0.018318 0)
(0.00153331 0.0424302 0)
(0.00283483 0.0592375 0)
(0.00679455 0.0651674 0)
(0.00993608 0.0692811 0)
(0.0169675 0.0691507 0)
(0.0224208 0.0687763 0)
(0.0313633 0.066651 0)
(0.0381265 0.0649612 0)
(0.0482472 0.061703 0)
(0.0552672 0.0589995 0)
(0.0655271 0.0538253 0)
(0.0711439 0.0498361 0)
(0.0800248 0.0421716 0)
(0.0819434 0.0367433 0)
(0.0879172 0.0274102 0)
(0.0844831 0.0218436 0)
(0.0871848 0.0124591 0)
(0.078056 0.0084673 0)
(0.0786957 0.00039107 0)
(0.0644863 -0.000818266 0)
(0.0653855 -0.00742292 0)
(0.0465297 -0.00563413 0)
(0.0505536 -0.0119799 0)
(0.0262485 -0.00722024 0)
(0.0375353 -0.0163239 0)
(0.00489631 -0.0197199 0)
(0.0223578 -0.104651 0)
(-0.0414973 -0.264006 0)
(0.0125741 -0.500563 0)
(-0.00492393 0.0153081 0)
(-0.00635926 0.0467387 0)
(-0.00444608 0.0605434 0)
(-0.000170498 0.0716303 0)
(0.00664326 0.0717424 0)
(0.01402 0.0710375 0)
(0.0209508 0.0679108 0)
(0.0299462 0.0643609 0)
(0.0367941 0.0612966 0)
(0.0465398 0.0570097 0)
(0.0528532 0.0540808 0)
(0.0624241 0.0487167 0)
(0.0670316 0.0455572 0)
(0.0753265 0.0386929 0)
(0.0765549 0.0350977 0)
(0.0824393 0.0271245 0)
(0.0789842 0.0239531 0)
(0.0822122 0.0157702 0)
(0.0735697 0.0142142 0)
(0.0751653 0.0066001 0)
(0.0613686 0.0076155 0)
(0.0635607 0.000643708 0)
(0.0443196 0.00450506 0)
(0.0505055 -0.00256107 0)
(0.0244026 0.00369437 0)
(0.040347 -0.00586375 0)
(0.00532414 -0.00638776 0)
(0.0348244 -0.081883 0)
(-0.0381692 -0.25362 0)
(0.0260653 -0.515178 0)
(0.00443132 0.0301626 0)
(-0.000245289 0.0407299 0)
(-0.00878567 0.0530236 0)
(-0.00514236 0.0521742 0)
(-0.00376196 0.0544132 0)
(0.00582033 0.0531334 0)
(0.0118749 0.0522147 0)
(0.0227912 0.0493896 0)
(0.0297895 0.0480207 0)
(0.0405086 0.0444147 0)
(0.0468176 0.0430775 0)
(0.0567331 0.0385072 0)
(0.0609492 0.0371675 0)
(0.0695587 0.0315145 0)
(0.0701587 0.0301041 0)
(0.0770032 0.023769 0)
(0.0727886 0.0227753 0)
(0.0781498 0.0164742 0)
(0.0685415 0.0164745 0)
(0.0737443 0.0108415 0)
(0.0586565 0.0120994 0)
(0.066033 0.00723053 0)
(0.0452351 0.00934495 0)
(0.0578584 0.00431032 0)
(0.0300177 0.00609463 0)
(0.0521988 -0.00318878 0)
(0.0142278 -0.0088155 0)
(0.054489 -0.0712443 0)
(-0.0255387 -0.246866 0)
(0.0453348 -0.519417 0)
(-0.0129464 0.00900695 0)
(-0.0126217 0.0617927 0)
(-0.00288187 0.0652258 0)
(-0.00605953 0.0691826 0)
(0.00118731 0.0619723 0)
(0.00770068 0.0572001 0)
(0.0143916 0.0523893 0)
(0.0232984 0.0474156 0)
(0.0297837 0.0449815 0)
(0.0393478 0.0403419 0)
(0.0447774 0.0391867 0)
(0.0544753 0.034518 0)
(0.0576122 0.0340542 0)
(0.0672052 0.0290739 0)
(0.0667043 0.029075 0)
(0.076075 0.0237366 0)
(0.0709309 0.0244765 0)
(0.0805855 0.0188234 0)
(0.0702288 0.02076 0)
(0.0815366 0.0146937 0)
(0.0654336 0.0182756 0)
(0.0807665 0.0114357 0)
(0.0573214 0.0169348 0)
(0.0804076 0.00890018 0)
(0.0454919 0.015582 0)
(0.0830961 0.00473939 0)
(0.0316703 5.41168e-05 0)
(0.0985258 -0.0504553 0)
(0.0214034 -0.226772 0)
(0.0820029 -0.501613 0)
(-0.0735964 0.0619669 0)
(-0.0609753 0.0275721 0)
(-0.0799475 0.0467665 0)
(-0.0522445 0.0441865 0)
(-0.0446705 0.0392158 0)
(-0.0195196 0.0371141 0)
(-0.00775086 0.03546 0)
(0.0152388 0.0318959 0)
(0.0253581 0.0313786 0)
(0.048062 0.0276836 0)
(0.054515 0.0278428 0)
(0.0781695 0.0240727 0)
(0.0796882 0.0247161 0)
(0.105239 0.0208176 0)
(0.100574 0.0218426 0)
(0.129054 0.0178331 0)
(0.11682 0.0191821 0)
(0.149901 0.0152759 0)
(0.128476 0.0167492 0)
(0.16869 0.0134354 0)
(0.136018 0.0144178 0)
(0.186747 0.012591 0)
(0.140229 0.0116557 0)
(0.20549 0.0121491 0)
(0.14268 0.00594128 0)
(0.226326 0.00356088 0)
(0.147474 -0.022483 0)
(0.245507 -0.074954 0)
(0.136922 -0.223875 0)
(0.140296 -0.438123 0)
(0.081357 0.132017 0)
(0.123747 0.0730154 0)
(0.172873 0.0563133 0)
(0.228923 0.0384126 0)
(0.253227 0.0310587 0)
(0.298512 0.022845 0)
(0.311459 0.0196125 0)
(0.353348 0.0154916 0)
(0.357424 0.0139955 0)
(0.398875 0.0115456 0)
(0.395309 0.0108135 0)
(0.438032 0.0091897 0)
(0.427171 0.0087227 0)
(0.472277 0.00763722 0)
(0.454082 0.00714329 0)
(0.502376 0.00651814 0)
(0.476661 0.00584299 0)
(0.528852 0.00562581 0)
(0.495485 0.00478881 0)
(0.55223 0.00477418 0)
(0.511213 0.00407413 0)
(0.573004 0.00364575 0)
(0.524419 0.00381662 0)
(0.591152 0.0014222 0)
(0.534021 0.00348084 0)
(0.602772 -0.005321 0)
(0.525748 -0.00344389 0)
(0.574535 -0.0370367 0)
(0.400563 -0.0628696 0)
(0.296681 -0.19984 0)
)
;

boundaryField
{
    movingWall
    {
        type            fixedValue;
        value           uniform (1 0 0);
    }
    fixedWalls
    {
        type            noSlip;
    }
    frontAndBack
    {
        type            empty;
    }
}


// ************************************************************************* //
