/*--------------------------------*- C++ -*----------------------------------*\
| =========                 |                                                 |
| \\      /  F ield         | OpenFOAM: The Open Source CFD Toolbox           |
|  \\    /   O peration     | Version:  2406                                  |
|   \\  /    A nd           | Website:  www.openfoam.com                      |
|    \\/     M anipulation  |                                                 |
\*---------------------------------------------------------------------------*/
FoamFile
{
    version     2.0;
    format      ascii;
    arch        "LSB;label=32;scalar=64";
    class       volVectorField;
    location    "37.8";
    object      Uold;
}
// * * * * * * * * * * * * * * * * * * * * * * * * * * * * * * * * * * * * * //

dimensions      [0 1 -1 0 0 0 0];

internalField   nonuniform List<vector> 
3600
(
(-5.36893e-06 -8.05353e-06 0)
(0.000516352 -0.000245451 0)
(0.0015187 -0.00036769 0)
(0.00263694 -0.00038498 0)
(0.00369658 -0.000314611 0)
(0.00446764 -0.000219129 0)
(0.00499156 -0.000130351 0)
(0.00524324 -7.3119e-05 0)
(0.00535574 -4.80766e-05 0)
(0.00534536 -4.56931e-05 0)
(0.00528206 -4.96151e-05 0)
(0.00511761 -4.42005e-05 0)
(0.00482711 -1.95694e-05 0)
(0.00431397 2.97474e-05 0)
(0.00351036 0.000104702 0)
(0.00231365 0.00020712 0)
(0.000646065 0.000338642 0)
(-0.00158599 0.000499722 0)
(-0.0044524 0.000682029 0)
(-0.00802077 0.000872829 0)
(-0.0123247 0.00106457 0)
(-0.0173631 0.00126372 0)
(-0.023069 0.00148098 0)
(-0.0293065 0.00171466 0)
(-0.0358578 0.00193716 0)
(-0.0424321 0.00210022 0)
(-0.048678 0.00214924 0)
(-0.054212 0.00204062 0)
(-0.0586489 0.00175015 0)
(-0.0616318 0.00127634 0)
(-0.0628601 0.000637434 0)
(-0.0621086 -0.000130813 0)
(-0.0592497 -0.000979358 0)
(-0.0542643 -0.00184753 0)
(-0.0472618 -0.00266712 0)
(-0.038481 -0.00336518 0)
(-0.028304 -0.00387088 0)
(-0.0172341 -0.00412228 0)
(-0.00588921 -0.00407699 0)
(0.00505989 -0.00372165 0)
(0.0149264 -0.00308085 0)
(0.02311 -0.00222051 0)
(0.0291418 -0.00124286 0)
(0.0327892 -0.000272664 0)
(0.034049 0.000568225 0)
(0.0331941 0.00118612 0)
(0.0306635 0.00154087 0)
(0.027039 0.00164849 0)
(0.0228664 0.00157114 0)
(0.0186507 0.00138412 0)
(0.0147058 0.00115549 0)
(0.0112589 0.000927038 0)
(0.00834472 0.000724806 0)
(0.00599299 0.00055476 0)
(0.00409498 0.000424351 0)
(0.00262266 0.00032106 0)
(0.00145298 0.000242832 0)
(0.000605147 0.000146627 0)
(7.14109e-05 3.74944e-05 0)
(-8.71386e-05 -9.44565e-05 0)
(0.000204641 -0.000494828 0)
(0.00150677 -0.00154795 0)
(0.0035947 -0.00205119 0)
(0.00579221 -0.00207205 0)
(0.00781798 -0.00170701 0)
(0.00926864 -0.0011836 0)
(0.0101637 -0.000656415 0)
(0.0104321 -0.000227042 0)
(0.0102351 8.59674e-05 0)
(0.00956779 0.000329669 0)
(0.00848162 0.00057581 0)
(0.00684675 0.000905638 0)
(0.0045423 0.0013702 0)
(0.00133853 0.00200375 0)
(-0.00296072 0.00281196 0)
(-0.00858568 0.00379438 0)
(-0.0157075 0.00493131 0)
(-0.0244718 0.00619733 0)
(-0.0349155 0.00755227 0)
(-0.0469511 0.00894507 0)
(-0.0603024 0.0102879 0)
(-0.0745274 0.0114557 0)
(-0.0890429 0.0122974 0)
(-0.103201 0.0126742 0)
(-0.116354 0.01248 0)
(-0.127913 0.0116586 0)
(-0.137389 0.0101996 0)
(-0.144396 0.00813758 0)
(-0.148653 0.00553972 0)
(-0.149973 0.00250205 0)
(-0.148251 -0.000860041 0)
(-0.14346 -0.00441073 0)
(-0.135652 -0.00799881 0)
(-0.124957 -0.0114539 0)
(-0.111605 -0.0145923 0)
(-0.0959184 -0.0172181 0)
(-0.0783448 -0.0191378 0)
(-0.0594384 -0.0201738 0)
(-0.0398771 -0.0201919 0)
(-0.0204145 -0.0191248 0)
(-0.00187272 -0.0170016 0)
(0.0149539 -0.0139614 0)
(0.0293204 -0.0102557 0)
(0.0406595 -0.00622522 0)
(0.0485787 -0.00225511 0)
(0.0529823 0.00128215 0)
(0.0540024 0.00409412 0)
(0.0520876 0.0060115 0)
(0.047841 0.0070187 0)
(0.0420626 0.00723033 0)
(0.0354873 0.00685467 0)
(0.0288404 0.00611739 0)
(0.0225655 0.00522691 0)
(0.017023 0.00432226 0)
(0.0122605 0.00350599 0)
(0.008357 0.00278938 0)
(0.00516516 0.00217995 0)
(0.00273634 0.00154696 0)
(0.000989739 0.000884584 0)
(8.92682e-05 9.9923e-05 0)
(0.000334847 -0.0014641 0)
(0.00209903 -0.0036701 0)
(0.00478598 -0.00465618 0)
(0.00744105 -0.00456897 0)
(0.00973717 -0.00368832 0)
(0.011182 -0.00243199 0)
(0.0117896 -0.00113426 0)
(0.0114478 2.1324e-05 0)
(0.0102816 0.000994959 0)
(0.00821067 0.00190173 0)
(0.00518844 0.00289818 0)
(0.000964093 0.00416526 0)
(-0.00470845 0.00581208 0)
(-0.0121692 0.00790583 0)
(-0.0216921 0.0104378 0)
(-0.0335212 0.0133668 0)
(-0.047732 0.0165907 0)
(-0.0641993 0.0199559 0)
(-0.0825031 0.0232137 0)
(-0.101984 0.0260538 0)
(-0.121817 0.0281529 0)
(-0.141163 0.0292625 0)
(-0.159263 0.0292346 0)
(-0.175513 0.0280326 0)
(-0.189469 0.0256959 0)
(-0.200834 0.02232 0)
(-0.209424 0.0180252 0)
(-0.215131 0.0129506 0)
(-0.217901 0.00723952 0)
(-0.217707 0.00104645 0)
(-0.214545 -0.00546752 0)
(-0.208423 -0.0121216 0)
(-0.199377 -0.0187159 0)
(-0.187471 -0.0250176 0)
(-0.172829 -0.0307664 0)
(-0.155644 -0.0356696 0)
(-0.136214 -0.0394235 0)
(-0.114946 -0.0417292 0)
(-0.0923923 -0.0423381 0)
(-0.0692139 -0.0410865 0)
(-0.0461947 -0.0379516 0)
(-0.0241531 -0.033075 0)
(-0.00392466 -0.0267838 0)
(0.0137681 -0.0195592 0)
(0.0283146 -0.011987 0)
(0.0393436 -0.00467879 0)
(0.0466537 0.00181 0)
(0.0503341 0.00704475 0)
(0.0506418 0.0107682 0)
(0.0481356 0.0129204 0)
(0.0434662 0.0136441 0)
(0.0374785 0.0132316 0)
(0.0308709 0.0120633 0)
(0.0243461 0.0104983 0)
(0.0182481 0.00884248 0)
(0.0129199 0.00724663 0)
(0.00833788 0.00578136 0)
(0.00468987 0.00428706 0)
(0.00187737 0.00269102 0)
(0.000276439 0.000787931 0)
(0.00041873 -0.00264206 0)
(0.00243786 -0.00608535 0)
(0.00533555 -0.00743714 0)
(0.00793327 -0.00700202 0)
(0.0098913 -0.00535201 0)
(0.0106899 -0.00309869 0)
(0.0103562 -0.000755724 0)
(0.00873406 0.00145525 0)
(0.00586398 0.00350747 0)
(0.0015331 0.00562039 0)
(-0.0044631 0.00804759 0)
(-0.0125192 0.0110612 0)
(-0.0229827 0.0147917 0)
(-0.0362025 0.0192789 0)
(-0.0523284 0.0244104 0)
(-0.0712766 0.0299663 0)
(-0.0925861 0.035554 0)
(-0.115479 0.0406774 0)
(-0.138968 0.044812 0)
(-0.162071 0.0475602 0)
(-0.18396 0.0486913 0)
(-0.20403 0.0481557 0)
(-0.221892 0.0460175 0)
(-0.237323 0.0424202 0)
(-0.250216 0.0375303 0)
(-0.260528 0.0315256 0)
(-0.26825 0.02457 0)
(-0.273382 0.0168219 0)
(-0.275921 0.00842598 0)
(-0.275848 -0.0004685 0)
(-0.273134 -0.00970846 0)
(-0.267728 -0.0191136 0)
(-0.259582 -0.0284745 0)
(-0.248648 -0.0375292 0)
(-0.234911 -0.0459668 0)
(-0.218397 -0.0534152 0)
(-0.199226 -0.059465 0)
(-0.177623 -0.0636846 0)
(-0.153978 -0.0656798 0)
(-0.128834 -0.0651428 0)
(-0.102923 -0.0619364 0)
(-0.0770938 -0.0561411 0)
(-0.0522887 -0.0481007 0)
(-0.0293934 -0.0383911 0)
(-0.00919504 -0.0277618 0)
(0.00776766 -0.0170185 0)
(0.0211411 -0.00692088 0)
(0.0308423 0.00189949 0)
(0.0369003 0.00898425 0)
(0.0395918 0.0140707 0)
(0.0392758 0.0171148 0)
(0.0365916 0.0182908 0)
(0.0321678 0.0179627 0)
(0.0268125 0.0165921 0)
(0.0210671 0.0146513 0)
(0.0155448 0.0124818 0)
(0.0104227 0.010276 0)
(0.00610535 0.00793484 0)
(0.00256595 0.00528307 0)
(0.000427811 0.00194484 0)
(0.000471569 -0.00402702 0)
(0.00257537 -0.00871913 0)
(0.00536282 -0.010229 0)
(0.00748216 -0.00911755 0)
(0.0085906 -0.00635961 0)
(0.00818054 -0.00276828 0)
(0.0062866 0.000974179 0)
(0.00270004 0.00467061 0)
(-0.00266575 0.00835664 0)
(-0.0101831 0.0123946 0)
(-0.0202181 0.0171248 0)
(-0.0332381 0.0228562 0)
(-0.0495322 0.0296325 0)
(-0.0691726 0.0373016 0)
(-0.0918033 0.0454147 0)
(-0.116663 0.0533392 0)
(-0.142666 0.0603235 0)
(-0.16868 0.0657401 0)
(-0.193731 0.0691689 0)
(-0.217124 0.0704564 0)
(-0.238426 0.0696256 0)
(-0.257414 0.0668346 0)
(-0.273997 0.0622875 0)
(-0.288163 0.0562169 0)
(-0.299947 0.0488361 0)
(-0.309397 0.0403463 0)
(-0.316566 0.0309144 0)
(-0.321495 0.0206935 0)
(-0.324214 0.00981276 0)
(-0.324719 -0.0015958 0)
(-0.322985 -0.0134 0)
(-0.318946 -0.0254367 0)
(-0.312507 -0.0375093 0)
(-0.303537 -0.0493553 0)
(-0.291892 -0.0606451 0)
(-0.277424 -0.0709579 0)
(-0.26003 -0.0797997 0)
(-0.239679 -0.0866092 0)
(-0.216496 -0.0908211 0)
(-0.190787 -0.0919242 0)
(-0.163128 -0.0895758 0)
(-0.134334 -0.0836879 0)
(-0.105468 -0.0745257 0)
(-0.077679 -0.06271 0)
(-0.0521005 -0.0491687 0)
(-0.0296049 -0.0349702 0)
(-0.0107671 -0.0211532 0)
(0.00423583 -0.00857219 0)
(0.0154154 0.00214961 0)
(0.0230017 0.0106184 0)
(0.0272247 0.016644 0)
(0.0285306 0.0202567 0)
(0.0273585 0.0217007 0)
(0.0244166 0.0214142 0)
(0.020253 0.0199209 0)
(0.0156102 0.0177094 0)
(0.0108251 0.0150841 0)
(0.00651246 0.0120548 0)
(0.00278463 0.00833411 0)
(0.000472979 0.00337251 0)
(0.000509828 -0.00543176 0)
(0.00252405 -0.0111534 0)
(0.00483639 -0.0124419 0)
(0.00601527 -0.010223 0)
(0.00574061 -0.00596881 0)
(0.0035607 -0.000676884 0)
(-0.000511972 0.00485403 0)
(-0.00676324 0.0105361 0)
(-0.0154487 0.0165174 0)
(-0.0270799 0.0232979 0)
(-0.0420886 0.0312138 0)
(-0.0607894 0.0404414 0)
(-0.0830802 0.0506988 0)
(-0.108392 0.0613874 0)
(-0.135681 0.0715898 0)
(-0.163684 0.0804044 0)
(-0.191207 0.0870981 0)
(-0.217334 0.0912897 0)
(-0.241473 0.0928649 0)
(-0.263296 0.0919407 0)
(-0.282666 0.0887317 0)
(-0.299562 0.0835233 0)
(-0.314043 0.0765922 0)
(-0.326204 0.0682135 0)
(-0.336175 0.058617 0)
(-0.344087 0.0480098 0)
(-0.350079 0.0365503 0)
(-0.354267 0.0243761 0)
(-0.356753 0.0115886 0)
(-0.357592 -0.00171482 0)
(-0.356805 -0.0154472 0)
(-0.354348 -0.0294951 0)
(-0.350124 -0.0437171 0)
(-0.343953 -0.0579011 0)
(-0.3356 -0.0717588 0)
(-0.324754 -0.0848849 0)
(-0.311082 -0.0967623 0)
(-0.294243 -0.106747 0)
(-0.273988 -0.114118 0)
(-0.250218 -0.118127 0)
(-0.223125 -0.118128 0)
(-0.193248 -0.113699 0)
(-0.16156 -0.104817 0)
(-0.129387 -0.0919476 0)
(-0.0982996 -0.0760771 0)
(-0.0697836 -0.0585574 0)
(-0.0450078 -0.0408589 0)
(-0.0245396 -0.0242522 0)
(-0.00846112 -0.00964308 0)
(0.00355147 0.00245275 0)
(0.0118472 0.0117841 0)
(0.016887 0.0183178 0)
(0.0190263 0.0221865 0)
(0.0188493 0.0237436 0)
(0.0168203 0.0234588 0)
(0.0136803 0.0218735 0)
(0.00984838 0.0193403 0)
(0.00607434 0.015962 0)
(0.00262438 0.011345 0)
(0.000441811 0.00479966 0)
(0.000520452 -0.00686083 0)
(0.0022235 -0.0132433 0)
(0.00366204 -0.0138183 0)
(0.00344799 -0.010006 0)
(0.0013006 -0.00383015 0)
(-0.00315092 0.00357846 0)
(-0.00996783 0.0113816 0)
(-0.0195264 0.0196749 0)
(-0.0322389 0.0287205 0)
(-0.048621 0.0390571 0)
(-0.0689284 0.0508071 0)
(-0.0929876 0.0637401 0)
(-0.120038 0.0770201 0)
(-0.148855 0.0895854 0)
(-0.178047 0.100321 0)
(-0.206382 0.108463 0)
(-0.232973 0.11359 0)
(-0.257265 0.115659 0)
(-0.278976 0.114814 0)
(-0.298 0.111354 0)
(-0.314366 0.105606 0)
(-0.32818 0.0979326 0)
(-0.339623 0.0886593 0)
(-0.348901 0.0780954 0)
(-0.356254 0.066487 0)
(-0.361909 0.0540465 0)
(-0.366097 0.0409207 0)
(-0.369006 0.0272267 0)
(-0.370807 0.013031 0)
(-0.371609 -0.00161122 0)
(-0.371489 -0.0166683 0)
(-0.370444 -0.0320904 0)
(-0.368417 -0.0478123 0)
(-0.365244 -0.0637062 0)
(-0.360679 -0.0795743 0)
(-0.354346 -0.0950953 0)
(-0.345771 -0.109815 0)
(-0.33437 -0.123101 0)
(-0.319534 -0.134168 0)
(-0.300682 -0.142087 0)
(-0.277434 -0.145901 0)
(-0.249743 -0.14475 0)
(-0.218093 -0.138098 0)
(-0.18358 -0.125933 0)
(-0.147925 -0.108958 0)
(-0.113221 -0.0885804 0)
(-0.0815635 -0.0667174 0)
(-0.0544884 -0.0453348 0)
(-0.0327068 -0.0260015 0)
(-0.0160382 -0.00961485 0)
(-0.00391354 0.00347312 0)
(0.00440143 0.0132731 0)
(0.00943308 0.0199299 0)
(0.0117847 0.0237735 0)
(0.0118842 0.0252029 0)
(0.0104226 0.0247467 0)
(0.00784747 0.0227382 0)
(0.00495577 0.0193238 0)
(0.00213935 0.0140229 0)
(0.000342188 0.00606258 0)
(0.000479206 -0.00807686 0)
(0.0015725 -0.0144988 0)
(0.00167728 -0.013752 0)
(-0.000392506 -0.00783366 0)
(-0.00488025 0.000692891 0)
(-0.012063 0.0106539 0)
(-0.0221298 0.0212596 0)
(-0.0355146 0.0328109 0)
(-0.0526811 0.0455838 0)
(-0.0738957 0.0599267 0)
(-0.0989434 0.0754647 0)
(-0.126957 0.0913712 0)
(-0.156604 0.10632 0)
(-0.186377 0.119111 0)
(-0.215003 0.128817 0)
(-0.241552 0.135037 0)
(-0.265476 0.137695 0)
(-0.286474 0.137015 0)
(-0.304475 0.133326 0)
(-0.319534 0.127067 0)
(-0.331844 0.118664 0)
(-0.341661 0.108559 0)
(-0.349309 0.0971225 0)
(-0.35511 0.0846875 0)
(-0.359402 0.0714976 0)
(-0.362474 0.0577487 0)
(-0.364601 0.0435556 0)
(-0.365997 0.0289987 0)
(-0.366856 0.0141002 0)
(-0.367308 -0.00113089 0)
(-0.367464 -0.0167182 0)
(-0.367365 -0.0326742 0)
(-0.367015 -0.0490124 0)
(-0.366324 -0.0657007 0)
(-0.365126 -0.0826591 0)
(-0.363106 -0.0997024 0)
(-0.359816 -0.116521 0)
(-0.354611 -0.132614 0)
(-0.346695 -0.147273 0)
(-0.335128 -0.159547 0)
(-0.318971 -0.168294 0)
(-0.297435 -0.172265 0)
(-0.270155 -0.170321 0)
(-0.237432 -0.16169 0)
(-0.200476 -0.146317 0)
(-0.161406 -0.1251 0)
(-0.123023 -0.0999636 0)
(-0.0881544 -0.073513 0)
(-0.0589259 -0.0483812 0)
(-0.0361217 -0.0264545 0)
(-0.0193644 -0.00860982 0)
(-0.00760181 0.00511703 0)
(0.000129889 0.0150018 0)
(0.00470907 0.0214967 0)
(0.00670138 0.0250138 0)
(0.00680884 0.0260704 0)
(0.0055131 0.0249514 0)
(0.00360281 0.0217977 0)
(0.00155534 0.0160756 0)
(0.000229675 0.00699871 0)
(0.000360399 -0.00895873 0)
(0.000497818 -0.0146325 0)
(-0.001182 -0.0119227 0)
(-0.00550001 -0.00342095 0)
(-0.0126953 0.00786761 0)
(-0.0229461 0.0208325 0)
(-0.0365922 0.0347857 0)
(-0.0540099 0.0501493 0)
(-0.0755148 0.0669933 0)
(-0.100852 0.085192 0)
(-0.129197 0.103707 0)
(-0.159101 0.12121 0)
(-0.189025 0.136217 0)
(-0.217562 0.147746 0)
(-0.243762 0.155245 0)
(-0.266987 0.15868 0)
(-0.286958 0.158254 0)
(-0.303582 0.154412 0)
(-0.317005 0.147649 0)
(-0.327475 0.138538 0)
(-0.335381 0.127595 0)
(-0.34112 0.115313 0)
(-0.345133 0.102072 0)
(-0.347793 0.0881911 0)
(-0.349465 0.0738772 0)
(-0.35042 0.0592836 0)
(-0.350911 0.0444778 0)
(-0.351112 0.0294993 0)
(-0.351186 0.0143314 0)
(-0.351241 -0.00104966 0)
(-0.351386 -0.0167009 0)
(-0.351682 -0.0326707 0)
(-0.352189 -0.0490213 0)
(-0.352904 -0.0657875 0)
(-0.353784 -0.0829872 0)
(-0.354672 -0.100569 0)
(-0.35529 -0.118399 0)
(-0.355152 -0.136187 0)
(-0.35355 -0.153442 0)
(-0.349493 -0.169394 0)
(-0.341771 -0.182964 0)
(-0.329032 -0.192765 0)
(-0.310036 -0.197225 0)
(-0.283962 -0.194808 0)
(-0.25084 -0.184411 0)
(-0.211883 -0.165812 0)
(-0.169657 -0.140111 0)
(-0.127735 -0.109824 0)
(-0.089904 -0.0784705 0)
(-0.0589039 -0.0494895 0)
(-0.0356547 -0.0251711 0)
(-0.0193329 -0.00619282 0)
(-0.00849358 0.00774626 0)
(-0.00171199 0.0173742 0)
(0.00197834 0.023296 0)
(0.00345502 0.0261197 0)
(0.00330594 0.0261266 0)
(0.00231276 0.0234438 0)
(0.00100602 0.0175333 0)
(0.000129136 0.00764588 0)
(0.000132925 -0.0091654 0)
(-0.00106839 -0.0131076 0)
(-0.00495093 -0.00779896 0)
(-0.0118292 0.00370327 0)
(-0.0219931 0.0181262 0)
(-0.0355003 0.0345031 0)
(-0.0528032 0.0522212 0)
(-0.074033 0.0716225 0)
(-0.0991543 0.0923078 0)
(-0.127257 0.113504 0)
(-0.15703 0.1336 0)
(-0.18675 0.151075 0)
(-0.215014 0.164633 0)
(-0.240676 0.173685 0)
(-0.263115 0.178064 0)
(-0.281945 0.178059 0)
(-0.29716 0.174133 0)
(-0.308906 0.166944 0)
(-0.317587 0.157152 0)
(-0.323645 0.145437 0)
(-0.327627 0.13236 0)
(-0.330004 0.118412 0)
(-0.331246 0.103929 0)
(-0.331696 0.0891709 0)
(-0.331664 0.074275 0)
(-0.331345 0.0593328 0)
(-0.330918 0.0443569 0)
(-0.33048 0.0293475 0)
(-0.330139 0.014258 0)
(-0.329953 -0.000952907 0)
(-0.330009 -0.0163558 0)
(-0.330362 -0.0320092 0)
(-0.331097 -0.0479923 0)
(-0.332265 -0.0643681 0)
(-0.333926 -0.0812076 0)
(-0.336071 -0.0985495 0)
(-0.338635 -0.116402 0)
(-0.341391 -0.134678 0)
(-0.343921 -0.153159 0)
(-0.345497 -0.171387 0)
(-0.345051 -0.188589 0)
(-0.341128 -0.203573 0)
(-0.332016 -0.21472 0)
(-0.315956 -0.220061 0)
(-0.291608 -0.217575 0)
(-0.258582 -0.205669 0)
(-0.218036 -0.183862 0)
(-0.17294 -0.153418 0)
(-0.127801 -0.117623 0)
(-0.0874517 -0.0811353 0)
(-0.0553601 -0.0484467 0)
(-0.0323335 -0.0221145 0)
(-0.0170559 -0.00254781 0)
(-0.00748344 0.0111713 0)
(-0.00197269 0.0200368 0)
(0.000778971 0.0249449 0)
(0.00161081 0.0263071 0)
(0.00136857 0.0242924 0)
(0.0006363 0.018423 0)
(7.35159e-05 0.00802721 0)
(-0.00021318 -0.00847932 0)
(-0.00309319 -0.00964582 0)
(-0.00947574 -0.00119483 0)
(-0.0190744 0.0136179 0)
(-0.0322892 0.0314673 0)
(-0.049004 0.0515402 0)
(-0.0696892 0.0731795 0)
(-0.0940367 0.0963905 0)
(-0.121563 0.12013 0)
(-0.150773 0.143013 0)
(-0.180145 0.163139 0)
(-0.207974 0.179121 0)
(-0.233164 0.190041 0)
(-0.25485 0.195735 0)
(-0.272738 0.196397 0)
(-0.286714 0.192634 0)
(-0.297093 0.185164 0)
(-0.304276 0.174847 0)
(-0.308894 0.162453 0)
(-0.31151 0.1487 0)
(-0.312731 0.134117 0)
(-0.312997 0.119124 0)
(-0.312716 0.103964 0)
(-0.312124 0.088807 0)
(-0.311432 0.0737071 0)
(-0.310726 0.0586954 0)
(-0.310101 0.0437399 0)
(-0.309576 0.0288161 0)
(-0.309204 0.0138646 0)
(-0.308998 -0.00115545 0)
(-0.309017 -0.0163091 0)
(-0.309297 -0.031644 0)
(-0.309925 -0.0472298 0)
(-0.310969 -0.0631247 0)
(-0.312538 -0.0794082 0)
(-0.314711 -0.0961505 0)
(-0.317567 -0.113431 0)
(-0.321101 -0.131296 0)
(-0.325204 -0.14974 0)
(-0.329535 -0.168619 0)
(-0.33345 -0.187563 0)
(-0.335852 -0.205825 0)
(-0.335158 -0.222152 0)
(-0.32932 -0.234689 0)
(-0.316099 -0.241048 0)
(-0.293556 -0.238606 0)
(-0.260819 -0.225162 0)
(-0.218892 -0.199852 0)
(-0.171206 -0.164169 0)
(-0.12329 -0.122376 0)
(-0.0812045 -0.08068 0)
(-0.0489816 -0.0446714 0)
(-0.0270846 -0.0170842 0)
(-0.0133884 0.00241273 0)
(-0.00544193 0.0152063 0)
(-0.00124819 0.0227286 0)
(0.00049398 0.0257459 0)
(0.000840914 0.0246107 0)
(0.000475958 0.0189907 0)
(6.46334e-05 0.0083064 0)
(-0.000683598 -0.00654963 0)
(-0.00551864 -0.00385634 0)
(-0.0145686 0.00816845 0)
(-0.0269027 0.0264946 0)
(-0.0430671 0.0479492 0)
(-0.062686 0.071792 0)
(-0.0861371 0.0971416 0)
(-0.112557 0.123454 0)
(-0.141068 0.14904 0)
(-0.169794 0.172116 0)
(-0.19728 0.19081 0)
(-0.222003 0.204086 0)
(-0.243232 0.211474 0)
(-0.260389 0.213226 0)
(-0.273543 0.209907 0)
(-0.282881 0.202434 0)
(-0.289033 0.191757 0)
(-0.292589 0.178862 0)
(-0.294313 0.164542 0)
(-0.294763 0.149463 0)
(-0.294503 0.134048 0)
(-0.293849 0.118598 0)
(-0.293095 0.10324 0)
(-0.292342 0.0880499 0)
(-0.291701 0.0730108 0)
(-0.291161 0.058108 0)
(-0.290755 0.043283 0)
(-0.290445 0.0285017 0)
(-0.290256 0.0137058 0)
(-0.290166 -0.00113645 0)
(-0.290221 -0.0160762 0)
(-0.290437 -0.0311439 0)
(-0.290892 -0.046391 0)
(-0.291646 -0.061858 0)
(-0.292817 -0.0776103 0)
(-0.294505 -0.0937144 0)
(-0.296853 -0.110265 0)
(-0.299968 -0.127359 0)
(-0.303942 -0.145104 0)
(-0.308739 -0.163561 0)
(-0.314145 -0.182688 0)
(-0.319594 -0.202206 0)
(-0.324046 -0.221427 0)
(-0.325826 -0.239045 0)
(-0.322643 -0.252977 0)
(-0.311791 -0.260353 0)
(-0.290749 -0.257865 0)
(-0.258112 -0.242557 0)
(-0.214748 -0.213151 0)
(-0.164622 -0.171472 0)
(-0.114505 -0.123229 0)
(-0.0717296 -0.076523 0)
(-0.0406357 -0.0381508 0)
(-0.0207594 -0.0103206 0)
(-0.00915908 0.0080985 0)
(-0.00296032 0.0192208 0)
(-0.000168185 0.0244359 0)
(0.000696122 0.0245098 0)
(0.00051946 0.0193733 0)
(0.000102695 0.0085673 0)
(-0.00124421 -0.00321829 0)
(-0.0081627 0.00431398 0)
(-0.0198588 0.0201748 0)
(-0.0347584 0.0420645 0)
(-0.0535589 0.0671173 0)
(-0.0755314 0.0945157 0)
(-0.100881 0.122991 0)
(-0.128183 0.151359 0)
(-0.156329 0.177434 0)
(-0.183285 0.19931 0)
(-0.207854 0.215396 0)
(-0.228766 0.225104 0)
(-0.245684 0.228437 0)
(-0.258338 0.226066 0)
(-0.267181 0.218924 0)
(-0.272671 0.208197 0)
(-0.275674 0.194978 0)
(-0.276849 0.180269 0)
(-0.276965 0.164785 0)
(-0.276469 0.149058 0)
(-0.275802 0.133362 0)
(-0.275123 0.117863 0)
(-0.274603 0.10258 0)
(-0.27422 0.0875149 0)
(-0.274013 0.0726033 0)
(-0.273905 0.0578091 0)
(-0.273899 0.0430672 0)
(-0.273926 0.0283489 0)
(-0.274002 0.013607 0)
(-0.274089 -0.00117489 0)
(-0.274227 -0.0160304 0)
(-0.274416 -0.0309712 0)
(-0.274726 -0.0460279 0)
(-0.275197 -0.0612196 0)
(-0.275934 -0.0765887 0)
(-0.277024 -0.0921805 0)
(-0.278617 -0.108072 0)
(-0.280848 -0.124362 0)
(-0.283895 -0.141186 0)
(-0.287888 -0.158698 0)
(-0.292903 -0.177046 0)
(-0.29881 -0.196287 0)
(-0.305162 -0.216247 0)
(-0.310959 -0.236298 0)
(-0.314488 -0.255079 0)
(-0.313228 -0.270237 0)
(-0.304057 -0.278363 0)
(-0.28389 -0.275337 0)
(-0.250835 -0.257374 0)
(-0.205714 -0.222774 0)
(-0.153259 -0.174086 0)
(-0.101741 -0.119019 0)
(-0.0597514 -0.0681724 0)
(-0.0312279 -0.028878 0)
(-0.0142312 -0.00232351 0)
(-0.00502941 0.0139948 0)
(-0.000751786 0.0223227 0)
(0.00073592 0.0241267 0)
(0.000679771 0.0197644 0)
(0.000168408 0.00894565 0)
(-0.00186013 0.00169916 0)
(-0.0108611 0.0149469 0)
(-0.0250314 0.0347673 0)
(-0.0421816 0.0601458 0)
(-0.0631319 0.088611 0)
(-0.0867347 0.119089 0)
(-0.113006 0.149828 0)
(-0.140052 0.179036 0)
(-0.166728 0.204283 0)
(-0.191022 0.22378 0)
(-0.212099 0.236383 0)
(-0.228971 0.241992 0)
(-0.241716 0.241098 0)
(-0.250371 0.234784 0)
(-0.255741 0.22431 0)
(-0.258457 0.211025 0)
(-0.259494 0.196048 0)
(-0.259451 0.180283 0)
(-0.259003 0.164289 0)
(-0.25842 0.148422 0)
(-0.258005 0.132804 0)
(-0.257762 0.117481 0)
(-0.25777 0.102395 0)
(-0.257925 0.0875009 0)
(-0.258229 0.0727174 0)
(-0.258571 0.0580044 0)
(-0.258954 0.0433044 0)
(-0.259298 0.0286004 0)
(-0.259623 0.0138593 0)
(-0.259886 -0.000920877 0)
(-0.260131 -0.0157592 0)
(-0.260347 -0.0306533 0)
(-0.260596 -0.0456185 0)
(-0.2609 -0.060658 0)
(-0.261344 -0.0757941 0)
(-0.261987 -0.0910504 0)
(-0.262952 -0.106476 0)
(-0.264353 -0.122144 0)
(-0.26637 -0.138167 0)
(-0.26918 -0.15471 0)
(-0.272994 -0.171983 0)
(-0.277947 -0.190218 0)
(-0.284028 -0.209579 0)
(-0.290868 -0.229999 0)
(-0.297522 -0.250888 0)
(-0.302204 -0.270786 0)
(-0.30216 -0.286985 0)
(-0.293858 -0.295401 0)
(-0.273684 -0.290984 0)
(-0.239388 -0.26903 0)
(-0.191978 -0.22767 0)
(-0.137364 -0.170733 0)
(-0.0856419 -0.10905 0)
(-0.0463406 -0.0556928 0)
(-0.0218155 -0.0177152 0)
(-0.00824813 0.00611062 0)
(-0.00173014 0.0189688 0)
(0.000705205 0.023323 0)
(0.000853966 0.0201547 0)
(0.000243562 0.00945473 0)
(-0.00245902 0.0081384 0)
(-0.0133599 0.0277723 0)
(-0.0296631 0.0515026 0)
(-0.0486089 0.080122 0)
(-0.071095 0.111592 0)
(-0.0955323 0.144437 0)
(-0.121788 0.176419 0)
(-0.147641 0.205276 0)
(-0.172078 0.228577 0)
(-0.193227 0.244837 0)
(-0.210662 0.253444 0)
(-0.223685 0.254799 0)
(-0.232786 0.249884 0)
(-0.238267 0.240143 0)
(-0.24119 0.227061 0)
(-0.242227 0.21202 0)
(-0.242344 0.196046 0)
(-0.241982 0.17986 0)
(-0.241674 0.163826 0)
(-0.241503 0.148125 0)
(-0.241654 0.13275 0)
(-0.242012 0.117662 0)
(-0.242607 0.10276 0)
(-0.243287 0.0879827 0)
(-0.244051 0.0732504 0)
(-0.244778 0.0585329 0)
(-0.245481 0.0437884 0)
(-0.246081 0.0290141 0)
(-0.246608 0.0141926 0)
(-0.247021 -0.000665723 0)
(-0.247366 -0.0155668 0)
(-0.247627 -0.0304981 0)
(-0.247864 -0.0454628 0)
(-0.248084 -0.0604541 0)
(-0.24836 -0.0754796 0)
(-0.248722 -0.0905475 0)
(-0.249264 -0.105683 0)
(-0.250062 -0.12093 0)
(-0.251256 -0.136363 0)
(-0.252997 -0.152113 0)
(-0.255511 -0.168365 0)
(-0.25903 -0.185396 0)
(-0.263783 -0.203517 0)
(-0.269842 -0.22302 0)
(-0.276929 -0.243932 0)
(-0.284113 -0.265693 0)
(-0.289486 -0.286644 0)
(-0.290011 -0.303577 0)
(-0.281683 -0.311537 0)
(-0.26045 -0.304348 0)
(-0.223863 -0.276455 0)
(-0.173606 -0.22621 0)
(-0.117314 -0.160029 0)
(-0.0672791 -0.0928469 0)
(-0.0328886 -0.0399741 0)
(-0.0133645 -0.00555783 0)
(-0.00358845 0.0137771 0)
(0.000330014 0.0218628 0)
(0.000924286 0.0204925 0)
(0.000305688 0.0101087 0)
(-0.00299166 0.0160104 0)
(-0.015499 0.0425605 0)
(-0.0334976 0.0700599 0)
(-0.0537115 0.101582 0)
(-0.0770677 0.135528 0)
(-0.101569 0.169923 0)
(-0.127009 0.202125 0)
(-0.150988 0.229574 0)
(-0.172747 0.250066 0)
(-0.190616 0.26253 0)
(-0.204589 0.266938 0)
(-0.214248 0.264186 0)
(-0.220453 0.255712 0)
(-0.223681 0.243221 0)
(-0.225127 0.228296 0)
(-0.225386 0.21222 0)
(-0.22533 0.195842 0)
(-0.225197 0.179657 0)
(-0.225377 0.163844 0)
(-0.225795 0.14843 0)
(-0.226555 0.133324 0)
(-0.227472 0.118439 0)
(-0.228562 0.103663 0)
(-0.229654 0.0889357 0)
(-0.230764 0.0741932 0)
(-0.23177 0.0594189 0)
(-0.232704 0.0445885 0)
(-0.233489 0.0297109 0)
(-0.234169 0.0147825 0)
(-0.234699 -0.000178012 0)
(-0.235135 -0.0151663 0)
(-0.235455 -0.0301645 0)
(-0.235719 -0.0451671 0)
(-0.235925 -0.0601632 0)
(-0.236137 -0.0751513 0)
(-0.236368 -0.0901331 0)
(-0.236691 -0.105117 0)
(-0.237144 -0.120129 0)
(-0.237827 -0.135209 0)
(-0.238837 -0.150445 0)
(-0.24035 -0.165964 0)
(-0.242581 -0.182001 0)
(-0.245816 -0.198867 0)
(-0.250342 -0.216992 0)
(-0.256321 -0.236764 0)
(-0.263544 -0.258328 0)
(-0.271039 -0.281072 0)
(-0.276726 -0.303033 0)
(-0.277139 -0.320259 0)
(-0.267807 -0.32662 0)
(-0.244236 -0.314665 0)
(-0.204223 -0.278093 0)
(-0.150711 -0.216633 0)
(-0.0939648 -0.140874 0)
(-0.0483352 -0.0713662 0)
(-0.0208566 -0.0224707 0)
(-0.00668843 0.00585584 0)
(-0.000576546 0.0192626 0)
(0.000816684 0.020541 0)
(0.000343365 0.0108154 0)
(-0.00338822 0.0249973 0)
(-0.0170768 0.058784 0)
(-0.0362444 0.089785 0)
(-0.0571551 0.123736 0)
(-0.0807248 0.159499 0)
(-0.104618 0.19458 0)
(-0.128639 0.226063 0)
(-0.150339 0.251268 0)
(-0.169278 0.268384 0)
(-0.184019 0.276816 0)
(-0.194955 0.277133 0)
(-0.201911 0.270688 0)
(-0.206037 0.259301 0)
(-0.207873 0.244805 0)
(-0.208635 0.228751 0)
(-0.208764 0.212226 0)
(-0.208988 0.195859 0)
(-0.209354 0.179918 0)
(-0.210135 0.164428 0)
(-0.211141 0.149308 0)
(-0.212441 0.134422 0)
(-0.213813 0.119664 0)
(-0.215285 0.104932 0)
(-0.216684 0.090177 0)
(-0.218048 0.0753564 0)
(-0.219258 0.0604664 0)
(-0.220364 0.0454996 0)
(-0.221288 0.0304741 0)
(-0.222086 0.0153988 0)
(-0.22271 0.00029855 0)
(-0.223222 -0.0148127 0)
(-0.223594 -0.0299131 0)
(-0.223891 -0.0449896 0)
(-0.224102 -0.0600297 0)
(-0.224291 -0.0750251 0)
(-0.22446 -0.0899767 0)
(-0.224671 -0.104883 0)
(-0.224939 -0.119764 0)
(-0.225334 -0.134635 0)
(-0.225906 -0.149554 0)
(-0.226772 -0.164593 0)
(-0.228082 -0.179921 0)
(-0.230078 -0.195778 0)
(-0.233077 -0.212576 0)
(-0.237425 -0.230815 0)
(-0.243366 -0.251043 0)
(-0.250697 -0.273451 0)
(-0.258383 -0.297322 0)
(-0.263982 -0.320152 0)
(-0.263575 -0.336907 0)
(-0.252034 -0.339944 0)
(-0.224752 -0.320294 0)
(-0.180169 -0.271684 0)
(-0.123674 -0.19674 0)
(-0.068844 -0.113441 0)
(-0.0310458 -0.0464419 0)
(-0.011255 -0.00568897 0)
(-0.0021189 0.0149793 0)
(0.00050096 0.0200635 0)
(0.000350957 0.0115038 0)
(-0.00362375 0.0347882 0)
(-0.0180302 0.0760387 0)
(-0.0378277 0.110269 0)
(-0.0588872 0.146176 0)
(-0.0820822 0.183112 0)
(-0.104837 0.2181 0)
(-0.127035 0.248099 0)
(-0.146284 0.270471 0)
(-0.162481 0.283906 0)
(-0.174427 0.288315 0)
(-0.182866 0.28485 0)
(-0.18781 0.275256 0)
(-0.190593 0.261626 0)
(-0.191723 0.245784 0)
(-0.192349 0.229152 0)
(-0.19272 0.212562 0)
(-0.193427 0.196424 0)
(-0.194349 0.180806 0)
(-0.195687 0.165626 0)
(-0.19718 0.150735 0)
(-0.198895 0.135988 0)
(-0.200597 0.121277 0)
(-0.202338 0.106523 0)
(-0.20395 0.0916902 0)
(-0.205492 0.0767559 0)
(-0.20685 0.061726 0)
(-0.208084 0.0466071 0)
(-0.209117 0.0314233 0)
(-0.210013 0.0161939 0)
(-0.21072 0.000947253 0)
(-0.211302 -0.014294 0)
(-0.21173 -0.0295061 0)
(-0.212069 -0.0446692 0)
(-0.212306 -0.0597711 0)
(-0.212503 -0.0747982 0)
(-0.212658 -0.0897543 0)
(-0.212829 -0.104633 0)
(-0.213019 -0.119455 0)
(-0.213281 -0.134222 0)
(-0.213635 -0.148981 0)
(-0.214148 -0.163759 0)
(-0.214905 -0.178673 0)
(-0.216068 -0.193866 0)
(-0.217891 -0.209665 0)
(-0.220726 -0.226518 0)
(-0.225001 -0.2451 0)
(-0.230978 -0.266047 0)
(-0.238478 -0.28961 0)
(-0.246183 -0.314755 0)
(-0.251276 -0.338119 0)
(-0.249048 -0.353131 0)
(-0.233948 -0.350116 0)
(-0.201349 -0.318867 0)
(-0.151578 -0.254202 0)
(-0.0934314 -0.165381 0)
(-0.0446916 -0.0796478 0)
(-0.0172757 -0.0220057 0)
(-0.00441484 0.008351 0)
(-6.59886e-07 0.0187259 0)
(0.000325207 0.0120642 0)
(-0.00366277 0.0449186 0)
(-0.0182742 0.0936898 0)
(-0.0381574 0.130818 0)
(-0.0588557 0.168149 0)
(-0.0811786 0.205607 0)
(-0.102414 0.239813 0)
(-0.122572 0.267747 0)
(-0.139388 0.286935 0)
(-0.153083 0.296634 0)
(-0.162676 0.29725 0)
(-0.169196 0.290477 0)
(-0.172771 0.278353 0)
(-0.174815 0.263126 0)
(-0.17573 0.246496 0)
(-0.176553 0.229693 0)
(-0.177345 0.213278 0)
(-0.178576 0.197466 0)
(-0.180009 0.182171 0)
(-0.181805 0.167248 0)
(-0.183672 0.152511 0)
(-0.18569 0.13783 0)
(-0.187628 0.123103 0)
(-0.189562 0.108278 0)
(-0.191331 0.0933286 0)
(-0.193009 0.0782512 0)
(-0.194484 0.0630569 0)
(-0.195826 0.047765 0)
(-0.196954 0.0324029 0)
(-0.197937 0.0169999 0)
(-0.198719 0.00158718 0)
(-0.199367 -0.0138035 0)
(-0.199848 -0.0291469 0)
(-0.200227 -0.044415 0)
(-0.20049 -0.0595967 0)
(-0.200699 -0.0746716 0)
(-0.20085 -0.0896485 0)
(-0.201002 -0.104515 0)
(-0.201153 -0.119302 0)
(-0.201351 -0.134002 0)
(-0.201601 -0.148665 0)
(-0.201944 -0.163293 0)
(-0.202414 -0.177974 0)
(-0.203099 -0.19277 0)
(-0.204165 -0.207915 0)
(-0.205874 -0.223722 0)
(-0.208659 -0.240819 0)
(-0.212963 -0.259972 0)
(-0.219146 -0.282009 0)
(-0.226817 -0.307066 0)
(-0.234404 -0.333543 0)
(-0.238258 -0.356704 0)
(-0.233046 -0.367719 0)
(-0.2126 -0.354699 0)
(-0.173381 -0.306603 0)
(-0.118604 -0.222723 0)
(-0.062414 -0.123148 0)
(-0.0248305 -0.0448318 0)
(-0.00757646 -0.00114296 0)
(-0.000702772 0.0161488 0)
(0.000280386 0.0124434 0)
(-0.00351883 0.0550055 0)
(-0.0178569 0.111328 0)
(-0.037334 0.1511 0)
(-0.057244 0.189416 0)
(-0.0783122 0.226871 0)
(-0.0977911 0.259791 0)
(-0.115839 0.2853 0)
(-0.130363 0.301173 0)
(-0.141869 0.307262 0)
(-0.149568 0.304438 0)
(-0.154692 0.294871 0)
(-0.157414 0.280791 0)
(-0.159143 0.264488 0)
(-0.160139 0.247461 0)
(-0.161309 0.230718 0)
(-0.162551 0.214568 0)
(-0.164248 0.199073 0)
(-0.166089 0.184036 0)
(-0.168224 0.169285 0)
(-0.170352 0.154621 0)
(-0.172576 0.139939 0)
(-0.174673 0.125149 0)
(-0.176741 0.110221 0)
(-0.178621 0.0951356 0)
(-0.180404 0.079904 0)
(-0.181973 0.0645395 0)
(-0.183406 0.0490719 0)
(-0.184619 0.0335298 0)
(-0.185684 0.0179521 0)
(-0.186541 0.00237088 0)
(-0.187259 -0.0131727 0)
(-0.187801 -0.0286535 0)
(-0.188234 -0.0440347 0)
(-0.188538 -0.0593075 0)
(-0.188778 -0.0744438 0)
(-0.188947 -0.0894583 0)
(-0.189104 -0.104332 0)
(-0.189248 -0.119107 0)
(-0.189426 -0.133769 0)
(-0.189638 -0.148381 0)
(-0.189912 -0.16293 0)
(-0.190258 -0.1775 0)
(-0.190714 -0.192096 0)
(-0.191367 -0.206884 0)
(-0.192369 -0.222033 0)
(-0.194063 -0.238038 0)
(-0.196876 -0.255577 0)