/*--------------------------------*- C++ -*----------------------------------*\
| =========                 |                                                 |
| \\      /  F ield         | OpenFOAM: The Open Source CFD Toolbox           |
|  \\    /   O peration     | Version:  2406                                  |
|   \\  /    A nd           | Website:  www.openfoam.com                      |
|    \\/     M anipulation  |                                                 |
\*---------------------------------------------------------------------------*/
FoamFile
{
    version     2.0;
    format      ascii;
    arch        "LSB;label=32;scalar=64";
    class       volVectorField;
    location    "22";
    object      U_0;
}
// * * * * * * * * * * * * * * * * * * * * * * * * * * * * * * * * * * * * * //

dimensions      [0 1 -1 0 0 0 0];

internalField   nonuniform List<vector> 
900
(
(0.000406361 -0.000405356 0)
(0.00195623 -0.000470642 0)
(0.00332785 -0.000373273 0)
(0.00419319 -0.000205529 0)
(0.00435074 -4.90211e-05 0)
(0.00381227 9.81083e-05 0)
(0.00248769 0.000255146 0)
(9.31774e-05 0.000384507 0)
(-0.00398385 0.00036155 0)
(-0.0107903 0.000458162 0)
(-0.0212207 0.00146723 0)
(-0.0352606 0.003513 0)
(-0.0516774 0.00548917 0)
(-0.0680307 0.0063275 0)
(-0.0812112 0.00558336 0)
(-0.088893 0.00345731 0)
(-0.0894625 0.000372321 0)
(-0.0820611 -0.00312912 0)
(-0.0666388 -0.00655105 0)
(-0.0444299 -0.00922383 0)
(-0.0180438 -0.0103549 0)
(0.00837795 -0.00922608 0)
(0.029787 -0.00562582 0)
(0.0417953 -0.000464805 0)
(0.0423225 0.00361953 0)
(0.0337404 0.00472469 0)
(0.0221344 0.00369063 0)
(0.0121042 0.00233639 0)
(0.00518533 0.00131752 0)
(0.000845318 0.000704145 0)
(0.000479856 -0.00195115 0)
(0.00259621 -0.00262594 0)
(0.00389162 -0.00177771 0)
(0.00384382 -0.000392876 0)
(0.00182679 0.00118536 0)
(-0.00267605 0.00300646 0)
(-0.0106173 0.00539148 0)
(-0.0235335 0.00892125 0)
(-0.0428966 0.0142686 0)
(-0.0686522 0.0211217 0)
(-0.0976978 0.0271453 0)
(-0.125337 0.0298303 0)
(-0.148301 0.0283613 0)
(-0.165079 0.0229833 0)
(-0.174897 0.0144686 0)
(-0.177513 0.00385206 0)
(-0.172657 -0.0079829 0)
(-0.160198 -0.0202433 0)
(-0.140198 -0.0317633 0)
(-0.11316 -0.0408645 0)
(-0.0803835 -0.0453378 0)
(-0.0444021 -0.0429589 0)
(-0.00934679 -0.032633 0)
(0.0192981 -0.015846 0)
(0.036294 0.00192775 0)
(0.0396244 0.0138943 0)
(0.0329408 0.0175656 0)
(0.0215963 0.0153921 0)
(0.010544 0.0109913 0)
(0.00164572 0.00534083 0)
(0.00037792 -0.0032812 0)
(0.00137712 -0.00380337 0)
(0.000691533 -0.00139352 0)
(-0.00250082 0.00228556 0)
(-0.00940968 0.0069812 0)
(-0.021531 0.0131692 0)
(-0.0407685 0.0218366 0)
(-0.0681743 0.0332407 0)
(-0.101474 0.0449667 0)
(-0.135547 0.0530856 0)
(-0.166212 0.0556214 0)
(-0.191312 0.0526759 0)
(-0.210219 0.0450373 0)
(-0.22317 0.0336176 0)
(-0.230502 0.0193296 0)
(-0.232523 0.00294195 0)
(-0.229353 -0.0149334 0)
(-0.220635 -0.0336182 0)
(-0.205626 -0.0519032 0)
(-0.18366 -0.0677916 0)
(-0.15436 -0.0782291 0)
(-0.11831 -0.079483 0)
(-0.0777331 -0.0685595 0)
(-0.0373987 -0.0454985 0)
(-0.00451659 -0.0162403 0)
(0.014134 0.00809976 0)
(0.0195036 0.0210011 0)
(0.0162797 0.0237923 0)
(0.00920208 0.0203586 0)
(0.00144762 0.0110369 0)
(1.40278e-05 -0.00370663 0)
(-0.00134491 -0.00286074 0)
(-0.00547057 0.00225421 0)
(-0.0137939 0.00993912 0)
(-0.0281315 0.0204706 0)
(-0.0505031 0.0345728 0)
(-0.0813608 0.0517665 0)
(-0.117566 0.0685295 0)
(-0.15349 0.0800913 0)
(-0.184721 0.0840364 0)
(-0.209553 0.0807147 0)
(-0.227934 0.0715341 0)
(-0.240683 0.0580412 0)
(-0.248858 0.0415254 0)
(-0.253415 0.0227981 0)
(-0.255085 0.00218661 0)
(-0.254212 -0.0201621 0)
(-0.250628 -0.0437709 0)
(-0.243539 -0.0679285 0)
(-0.231489 -0.0908345 0)
(-0.212438 -0.109247 0)
(-0.18424 -0.118251 0)
(-0.145815 -0.112412 0)
(-0.0990845 -0.0884052 0)
(-0.0513748 -0.0496361 0)
(-0.0152123 -0.00983737 0)
(0.00163239 0.015736 0)
(0.00620055 0.0262594 0)
(0.00461485 0.0261869 0)
(0.000630827 0.0149972 0)
(-0.000658744 -0.00232552 0)
(-0.00552806 0.0016253 0)
(-0.0142874 0.0109472 0)
(-0.0292167 0.0247997 0)
(-0.051986 0.043547 0)
(-0.083139 0.0660864 0)
(-0.119551 0.088258 0)
(-0.155323 0.104211 0)
(-0.185456 0.110561 0)
(-0.208113 0.107722 0)
(-0.22349 0.097765 0)
(-0.232785 0.0829582 0)
(-0.237681 0.0652208 0)
(-0.239774 0.0457658 0)
(-0.240531 0.0251565 0)
(-0.240999 0.00339566 0)
(-0.241631 -0.0197694 0)
(-0.242545 -0.0446829 0)
(-0.243423 -0.0714399 0)
(-0.242936 -0.0992805 0)
(-0.238504 -0.125804 0)
(-0.226104 -0.14627 0)
(-0.200973 -0.153451 0)
(-0.159854 -0.139466 0)
(-0.105093 -0.100679 0)
(-0.0490375 -0.0458366 0)
(-0.0129111 0.000289086 0)
(-0.00130321 0.0227691 0)
(0.00126355 0.0275616 0)
(0.000207784 0.0166079 0)
(-0.00164685 0.00167536 0)
(-0.0108621 0.0106304 0)
(-0.0248093 0.0256972 0)
(-0.046318 0.0472631 0)
(-0.0755038 0.0741328 0)
(-0.11026 0.10172 0)
(-0.144869 0.123158 0)
(-0.173586 0.133322 0)
(-0.193773 0.131835 0)
(-0.205732 0.121397 0)
(-0.21103 0.105225 0)
(-0.211948 0.0861277 0)
(-0.210587 0.0659194 0)
(-0.208551 0.0454198 0)
(-0.206933 0.0247781 0)
(-0.206316 0.00380396 0)
(-0.207023 -0.0179006 0)
(-0.209449 -0.0411308 0)
(-0.213837 -0.0665634 0)
(-0.220097 -0.094698 0)
(-0.226964 -0.125016 0)
(-0.231022 -0.154823 0)
(-0.225986 -0.177775 0)
(-0.204044 -0.183581 0)
(-0.159727 -0.160627 0)
(-0.0963953 -0.104408 0)
(-0.0335409 -0.0322738 0)
(-0.0051556 0.0132639 0)
(0.000133273 0.0263406 0)
(0.000321014 0.0171997 0)
(-0.00280279 0.0088835 0)
(-0.0164964 0.0244669 0)
(-0.035081 0.0461158 0)
(-0.0612747 0.0751393 0)
(-0.0929072 0.107388 0)
(-0.125824 0.135142 0)
(-0.153728 0.151121 0)
(-0.172799 0.152822 0)
(-0.182853 0.142889 0)
(-0.185849 0.12567 0)
(-0.184529 0.105107 0)
(-0.18163 0.0839425 0)
(-0.178884 0.0633282 0)
(-0.177157 0.0433757 0)
(-0.176489 0.0236694 0)
(-0.17661 0.0037644 0)
(-0.17739 -0.0167217 0)
(-0.179058 -0.0381464 0)
(-0.182147 -0.0609995 0)
(-0.187595 -0.0861002 0)
(-0.19613 -0.114416 0)
(-0.207103 -0.146152 0)
(-0.216594 -0.1788 0)
(-0.21632 -0.204494 0)
(-0.195487 -0.20858 0)
(-0.146581 -0.173653 0)
(-0.0746698 -0.0951086 0)
(-0.011704 -0.00955203 0)
(0.00042576 0.024827 0)
(0.000277802 0.0179947 0)
(-0.00386073 0.0192678 0)
(-0.0212347 0.0424687 0)
(-0.0428357 0.0704267 0)
(-0.0708275 0.104999 0)
(-0.101071 0.13885 0)
(-0.128684 0.162572 0)
(-0.148301 0.170364 0)
(-0.158558 0.163034 0)
(-0.161243 0.145799 0)
(-0.159508 0.124107 0)
(-0.156591 0.102003 0)
(-0.154706 0.0813174 0)
(-0.154582 0.062022 0)
(-0.155988 0.0433245 0)
(-0.158061 0.0243497 0)
(-0.160027 0.00460807 0)
(-0.161421 -0.0160229 0)
(-0.162262 -0.0373476 0)
(-0.163023 -0.0592696 0)
(-0.164735 -0.0820414 0)
(-0.16891 -0.106612 0)
(-0.177062 -0.134596 0)
(-0.189043 -0.167203 0)
(-0.200429 -0.202185 0)
(-0.201054 -0.229341 0)
(-0.177746 -0.227523 0)
(-0.12135 -0.171326 0)
(-0.0390667 -0.061293 0)
(0.00123811 0.0174373 0)
(-0.00125464 0.0193829 0)
(-0.0045108 0.0320076 0)
(-0.024002 0.0630356 0)
(-0.0465467 0.0960588 0)
(-0.073678 0.13357 0)
(-0.100088 0.165633 0)
(-0.121271 0.182714 0)
(-0.133492 0.181623 0)
(-0.1376 0.166472 0)
(-0.136662 0.144425 0)
(-0.134353 0.121364 0)
(-0.133479 0.100487 0)
(-0.135095 0.0819895 0)
(-0.138811 0.0645617 0)
(-0.143555 0.0467542 0)
(-0.148108 0.0276568 0)
(-0.151622 0.00708949 0)
(-0.153599 -0.0146363 0)
(-0.153992 -0.0369281 0)
(-0.153107 -0.0592276 0)
(-0.151736 -0.0812649 0)
(-0.151269 -0.103487 0)
(-0.153759 -0.127458 0)
(-0.161169 -0.1558 0)
(-0.173325 -0.190449 0)
(-0.18457 -0.2282 0)
(-0.182265 -0.253882 0)
(-0.151613 -0.236051 0)
(-0.0832112 -0.144252 0)
(-0.00391938 -0.0079907 0)
(-0.000155127 0.0224729 0)
(-0.00456908 0.0457705 0)
(-0.0243204 0.0843901 0)
(-0.0459096 0.120865 0)
(-0.0703164 0.158867 0)
(-0.0918811 0.186891 0)
(-0.107116 0.196452 0)
(-0.113987 0.187341 0)
(-0.114924 0.166579 0)
(-0.113527 0.142567 0)
(-0.113239 0.120741 0)
(-0.115819 0.102602 0)
(-0.12115 0.0865831 0)
(-0.128079 0.070462 0)
(-0.135213 0.0526131 0)
(-0.141401 0.032432 0)
(-0.145931 0.010147 0)
(-0.148429 -0.0135433 0)
(-0.148841 -0.0377032 0)
(-0.147299 -0.0613991 0)
(-0.144249 -0.0838995 0)
(-0.140611 -0.105027 0)
(-0.138084 -0.125708 0)
(-0.139125 -0.148692 0)
(-0.146251 -0.178253 0)
(-0.159203 -0.216845 0)
(-0.169011 -0.257854 0)
(-0.160422 -0.273894 0)
(-0.113019 -0.218474 0)
(-0.0304421 -0.0626285 0)
(0.0095389 0.023031 0)
(-0.00399295 0.0589702 0)
(-0.0222263 0.104692 0)
(-0.0414546 0.143059 0)
(-0.062158 0.179824 0)
(-0.0789353 0.202844 0)
(-0.0895176 0.205278 0)
(-0.0932287 0.189852 0)
(-0.0933369 0.165921 0)
(-0.0932991 0.142314 0)
(-0.0957988 0.123224 0)
(-0.10146 0.108137 0)
(-0.109374 0.0940993 0)
(-0.118092 0.0784949 0)
(-0.126302 0.0599186 0)
(-0.133118 0.0382059 0)
(-0.138056 0.0139418 0)
(-0.140882 -0.0119113 0)
(-0.141557 -0.0382241 0)
(-0.140174 -0.0638867 0)
(-0.136993 -0.0879472 0)
(-0.132488 -0.109785 0)
(-0.12757 -0.129394 0)
(-0.123841 -0.148279 0)
(-0.124136 -0.170925 0)
(-0.132927 -0.203681 0)
(-0.146462 -0.249435 0)
(-0.153116 -0.289538 0)
(-0.12482 -0.27611 0)
(-0.0678853 -0.148198 0)
(0.0161272 0.0125044 0)
(-0.00288941 0.0702149 0)
(-0.0182085 0.122693 0)
(-0.0342351 0.161854 0)
(-0.0508697 0.196438 0)
(-0.0634059 0.214527 0)
(-0.0706867 0.211076 0)
(-0.0729248 0.191336 0)
(-0.0735263 0.166255 0)
(-0.0753463 0.144457 0)
(-0.0801272 0.128488 0)
(-0.0876426 0.115984 0)
(-0.0966559 0.103136 0)
(-0.105798 0.0873516 0)
(-0.114055 0.0676373 0)
(-0.120844 0.0442349 0)
(-0.125842 0.01799 0)
(-0.12886 -0.00994754 0)
(-0.129828 -0.038302 0)
(-0.128815 -0.0658233 0)
(-0.12607 -0.0914539 0)
(-0.121946 -0.114492 0)
(-0.116879 -0.134599 0)
(-0.111712 -0.152033 0)
(-0.107562 -0.169956 0)
(-0.111144 -0.194552 0)
(-0.1213 -0.235595 0)
(-0.135661 -0.286693 0)
(-0.123012 -0.310148 0)
(-0.0911264 -0.224633 0)
(0.00777434 -0.0148137 0)
(-0.00141173 0.0784037 0)
(-0.01284 0.137323 0)
(-0.0252506 0.17663 0)
(-0.037814 0.208855 0)
(-0.046806 0.222822 0)
(-0.0519338 0.215037 0)
(-0.0537768 0.192705 0)
(-0.055342 0.167793 0)
(-0.0586383 0.148317 0)
(-0.0645922 0.135148 0)
(-0.0725657 0.124517 0)
(-0.0813843 0.112225 0)
(-0.0899873 0.0959251 0)
(-0.0977139 0.075039 0)
(-0.104204 0.0500891 0)
(-0.109189 0.022049 0)
(-0.112439 -0.00784246 0)
(-0.113817 -0.0381761 0)
(-0.113339 -0.0675338 0)
(-0.111254 -0.0946968 0)
(-0.107943 -0.118853 0)
(-0.103485 -0.139792 0)
(-0.0989913 -0.157058 0)
(-0.0929521 -0.172751 0)
(-0.0934668 -0.190867 0)
(-0.0976157 -0.223948 0)
(-0.114363 -0.276127 0)
(-0.112716 -0.326096 0)
(-0.101669 -0.282671 0)
(-0.00955158 -0.0634444 0)
(0.000231618 0.0829198 0)
(-0.00674777 0.148095 0)
(-0.0154305 0.187522 0)
(-0.0240552 0.217694 0)
(-0.0300813 0.228685 0)
(-0.0337404 0.218186 0)
(-0.0356198 0.194687 0)
(-0.0379689 0.170588 0)
(-0.041936 0.153229 0)
(-0.0479085 0.14217 0)
(-0.0552103 0.132735 0)
(-0.0629488 0.120615 0)
(-0.0704287 0.103758 0)
(-0.0772727 0.0819132 0)
(-0.0832476 0.0557505 0)
(-0.0880885 0.0262561 0)
(-0.0915183 -0.00530309 0)
(-0.093364 -0.0373855 0)
(-0.0935944 -0.0683926 0)
(-0.0923604 -0.0969656 0)
(-0.0903104 -0.122038 0)
(-0.0867387 -0.143833 0)
(-0.0843717 -0.161624 0)
(-0.0782382 -0.176917 0)
(-0.0783315 -0.190597 0)
(-0.0764316 -0.21518 0)
(-0.0925115 -0.261558 0)
(-0.0951312 -0.328463 0)
(-0.0985582 -0.327156 0)
(-0.018873 -0.129977 0)
(0.00182252 0.0835248 0)
(-0.000422835 0.154527 0)
(-0.00536172 0.194392 0)
(-0.010239 0.223149 0)
(-0.0136896 0.232472 0)
(-0.0162567 0.220708 0)
(-0.0182673 0.196927 0)
(-0.0210331 0.173697 0)
(-0.0248987 0.157876 0)
(-0.0299532 0.148191 0)
(-0.0357331 0.139473 0)
(-0.041732 0.127429 0)
(-0.0476084 0.110237 0)
(-0.0531955 0.0878282 0)
(-0.0583438 0.0608845 0)
(-0.0628068 0.0303434 0)
(-0.0663029 -0.00252348 0)
(-0.0686598 -0.0360802 0)
(-0.06986 -0.0684548 0)
(-0.0696224 -0.098284 0)
(-0.0694235 -0.124029 0)
(-0.0666908 -0.146323 0)
(-0.0671323 -0.164411 0)
(-0.0616781 -0.180334 0)
(-0.0639105 -0.192292 0)
(-0.0581364 -0.211353 0)
(-0.0733342 -0.249161 0)
(-0.0754542 -0.322671 0)
(-0.0884797 -0.354733 0)
(-0.0185489 -0.193388 0)
(0.00308311 0.0802879 0)
(0.00567554 0.156617 0)
(0.00443223 0.197676 0)
(0.00310543 0.225731 0)
(0.00206083 0.234589 0)
(0.000618903 0.222846 0)
(-0.00127905 0.199519 0)
(-0.0039729 0.176986 0)
(-0.007107 0.161914 0)
(-0.0106108 0.152838 0)
(-0.0143266 0.144465 0)
(-0.0181596 0.132518 0)
(-0.022081 0.115253 0)
(-0.0260722 0.0926423 0)
(-0.0300427 0.0653347 0)
(-0.0338135 0.0342282 0)
(-0.037208 0.000618458 0)
(-0.0399811 -0.0339314 0)
(-0.0424865 -0.067183 0)
(-0.0432819 -0.0979339 0)
(-0.0457532 -0.124281 0)
(-0.0440329 -0.147011 0)
(-0.0479706 -0.165129 0)
(-0.0433714 -0.181792 0)
(-0.0490902 -0.192991 0)
(-0.041185 -0.208816 0)
(-0.0564176 -0.23809 0)
(-0.0554581 -0.313847 0)
(-0.0761803 -0.373907 0)
(-0.0154882 -0.249935 0)
(0.00388831 0.0736228 0)
(0.0111698 0.154301 0)
(0.013637 0.197145 0)
(0.0156723 0.225269 0)
(0.0170394 0.234813 0)
(0.0168762 0.224171 0)
(0.0153757 0.20171 0)
(0.0130288 0.179506 0)
(0.0108744 0.164365 0)
(0.00921156 0.155198 0)
(0.00787659 0.146885 0)
(0.00653841 0.135121 0)
(0.00492249 0.118094 0)
(0.00291037 0.0957123 0)
(0.000483974 0.0685646 0)
(-0.00223883 0.0374952 0)
(-0.00540194 0.0038334 0)
(-0.00830381 -0.0309794 0)
(-0.0124397 -0.0646257 0)
(-0.0141887 -0.095635 0)
(-0.0199062 -0.122426 0)
(-0.0192041 -0.145173 0)
(-0.0272916 -0.163475 0)
(-0.0236109 -0.180784 0)
(-0.0340221 -0.192467 0)
(-0.0254543 -0.207572 0)
(-0.0425827 -0.22947 0)
(-0.0378683 -0.302886 0)
(-0.0647773 -0.383281 0)
(-0.0111675 -0.297819 0)
(0.0041505 0.0643254 0)
(0.015629 0.147849 0)
(0.0217235 0.193209 0)
(0.0271056 0.222041 0)
(0.0309919 0.233181 0)
(0.0325207 0.224691 0)
(0.0319356 0.203716 0)
(0.0302726 0.181636 0)
(0.029172 0.16568 0)
(0.0293227 0.155677 0)
(0.030381 0.14705 0)
(0.0316366 0.135476 0)
(0.0324897 0.118925 0)
(0.0326381 0.0971251 0)
(0.0318856 0.0705906 0)
(0.0304091 0.0400807 0)
(0.0274822 0.00699959 0)
(0.0247712 -0.0272188 0)
(0.0189453 -0.0605936 0)
(0.0162412 -0.0912168 0)
(0.00711164 -0.11819 0)
(0.00656487 -0.140431 0)
(-0.00604585 -0.159588 0)
(-0.0029588 -0.176541 0)
(-0.0188872 -0.189248 0)
(-0.00978038 -0.204089 0)
(-0.0306065 -0.221034 0)
(-0.0223989 -0.292077 0)
(-0.0554026 -0.388373 0)
(-0.00694363 -0.338054 0)
(0.00384555 0.0533714 0)
(0.018675 0.137284 0)
(0.0283917 0.185463 0)
(0.0370847 0.215663 0)
(0.0437479 0.229082 0)
(0.0472997 0.223563 0)
(0.0479814 0.2046 0)
(0.0471372 0.182601 0)
(0.0469168 0.165269 0)
(0.0485393 0.15374 0)
(0.0517285 0.144362 0)
(0.0554891 0.132917 0)
(0.0588541 0.11707 0)
(0.061321 0.0962308 0)
(0.0622966 0.0708869 0)
(0.0623749 0.0416278 0)
(0.059621 0.00987698 0)
(0.0573744 -0.0229922 0)
(0.0500306 -0.055186 0)
(0.046441 -0.0849034 0)
(0.034355 -0.11128 0)
(0.0321632 -0.133049 0)
(0.0151501 -0.152629 0)
(0.0178723 -0.169505 0)
(-0.00434154 -0.183949 0)
(0.00555724 -0.198522 0)
(-0.0212536 -0.212714 0)
(-0.00951796 -0.27978 0)
(-0.0484655 -0.387495 0)
(-0.00268978 -0.372405 0)
(0.00307207 0.0420353 0)
(0.0199834 0.123325 0)
(0.0330621 0.174518 0)
(0.0451017 0.206466 0)
(0.0547336 0.222493 0)
(0.0609487 0.220639 0)
(0.0636346 0.204594 0)
(0.0640809 0.183208 0)
(0.0646894 0.164381 0)
(0.0672787 0.150708 0)
(0.0719727 0.13995 0)
(0.0777803 0.128307 0)
(0.0833217 0.113225 0)
(0.0880585 0.0936068 0)
(0.0904771 0.0698735 0)
(0.0922911 0.0424399 0)
(0.0895419 0.0126593 0)
(0.0880079 -0.0182734 0)
(0.0791498 -0.0485415 0)
(0.0750964 -0.0768662 0)
(0.060087 -0.101915 0)
(0.0566478 -0.123464 0)
(0.0356743 -0.142617 0)
(0.0377649 -0.159773 0)
(0.00996457 -0.175054 0)
(0.0210383 -0.189541 0)
(-0.0137996 -0.202738 0)
(0.00193001 -0.266635 0)
(-0.0441889 -0.383837 0)
(0.00125871 -0.402162 0)
(0.00210639 0.0314257 0)
(0.0194626 0.106495 0)
(0.0355944 0.159889 0)
(0.0506696 0.193996 0)
(0.063446 0.212679 0)
(0.0726304 0.214719 0)
(0.0778641 0.202186 0)
(0.0800579 0.182181 0)
(0.081546 0.16225 0)
(0.0846197 0.14624 0)
(0.0900094 0.133577 0)
(0.0971793 0.121271 0)
(0.104261 0.10687 0)
(0.111196 0.0887286 0)
(0.114731 0.067006 0)
(0.118447 0.0419537 0)
(0.115706 0.014801 0)
(0.11519 -0.0134788 0)
(0.105007 -0.0411652 0)
(0.101025 -0.067349 0)
(0.0834362 -0.0906971 0)
(0.0794803 -0.11154 0)
(0.0548747 -0.130132 0)
(0.0567322 -0.147789 0)
(0.0234009 -0.163212 0)
(0.0355519 -0.178317 0)
(-0.00801969 -0.190843 0)
(0.0123992 -0.250849 0)
(-0.0425566 -0.375083 0)
(0.00528645 -0.427369 0)
(0.00120932 0.0224482 0)
(0.0171919 0.088491 0)
(0.0353508 0.142901 0)
(0.0531581 0.178802 0)
(0.0689533 0.199911 0)
(0.0817994 0.205887 0)
(0.0905972 0.197615 0)
(0.0956354 0.180137 0)
(0.0987224 0.160158 0)
(0.102319 0.142179 0)
(0.107608 0.127326 0)
(0.115212 0.113739 0)
(0.122584 0.0995262 0)
(0.131137 0.082773 0)
(0.135136 0.0632462 0)
(0.140577 0.0408966 0)
(0.137644 0.0167768 0)
(0.138343 -0.0084183 0)
(0.126972 -0.0331378 0)
(0.12369 -0.0567972 0)
(0.103884 -0.0782175 0)
(0.100385 -0.0979961 0)
(0.0725218 -0.115893 0)
(0.0748038 -0.133438 0)
(0.036095 -0.148381 0)
(0.0496621 -0.163848 0)
(-0.00303531 -0.176024 0)
(0.0231976 -0.233785 0)
(-0.0424211 -0.363461 0)
(0.0100979 -0.448028 0)
(0.000645342 0.0154158 0)
(0.0136501 0.0705051 0)
(0.0325718 0.123403 0)
(0.0520069 0.160699 0)
(0.0705639 0.183503 0)
(0.0867947 0.192681 0)
(0.0995851 0.188594 0)
(0.108361 0.174565 0)
(0.114045 0.155921 0)
(0.118954 0.137122 0)
(0.124023 0.120533 0)
(0.131629 0.105541 0)
(0.13817 0.0910716 0)
(0.147551 0.0753934 0)
(0.151276 0.058019 0)
(0.158203 0.0385517 0)
(0.154948 0.0177468 0)
(0.157216 -0.00397396 0)
(0.145005 -0.0253998 0)
(0.143274 -0.0461177 0)
(0.121847 -0.0653234 0)
(0.119847 -0.0834717 0)
(0.0889295 -0.100328 0)
(0.0923488 -0.116987 0)
(0.0477564 -0.1312 0)
(0.0633116 -0.146534 0)
(0.000688733 -0.158847 0)
(0.0345267 -0.214792 0)
(-0.0425027 -0.348782 0)
(0.0166877 -0.467324 0)
(0.000130632 0.0108093 0)
(0.00918906 0.0553031 0)
(0.0264293 0.104318 0)
(0.0467276 0.140888 0)
(0.0673631 0.164589 0)
(0.0875082 0.176163 0)
(0.104925 0.175987 0)
(0.118722 0.1659 0)
(0.128518 0.150041 0)
(0.136473 0.132024 0)
(0.142165 0.114837 0)
(0.150158 0.0988619 0)
(0.155218 0.0839622 0)
(0.164581 0.0689068 0)
(0.166946 0.0532417 0)
(0.174696 0.0363927 0)
(0.170519 0.0187198 0)
(0.174356 0.000452535 0)
(0.161285 -0.0177365 0)
(0.16162 -0.0354485 0)
(0.13881 -0.0523459 0)
(0.138843 -0.0683927 0)
(0.104852 -0.0837304 0)
(0.109723 -0.0983627 0)
(0.0588429 -0.111394 0)
(0.0770996 -0.12534 0)
(0.00346712 -0.139456 0)
(0.0467944 -0.194702 0)
(-0.0441871 -0.334718 0)
(0.0245917 -0.489703 0)
(-0.00061248 0.00831302 0)
(0.00389887 0.0429915 0)
(0.0181301 0.0856514 0)
(0.0367517 0.119776 0)
(0.0587244 0.142302 0)
(0.0812735 0.154656 0)
(0.102921 0.15719 0)
(0.121996 0.150941 0)
(0.136732 0.138695 0)
(0.149548 0.123145 0)
(0.157561 0.107049 0)
(0.167683 0.0914397 0)
(0.17218 0.0767768 0)
(0.182081 0.0625018 0)
(0.182941 0.0483233 0)
(0.191525 0.0337918 0)
(0.1861 0.0189209 0)
(0.191696 0.00388916 0)
(0.177556 -0.0111601 0)
(0.180316 -0.0256848 0)
(0.155924 -0.0399037 0)
(0.158216 -0.0530859 0)
(0.12081 -0.0661138 0)
(0.12728 -0.0775977 0)
(0.0699667 -0.0892191 0)
(0.0912502 -0.100547 0)
(0.00595242 -0.118204 0)
(0.0600375 -0.170639 0)
(-0.0511122 -0.318398 0)
(0.0330122 -0.510473 0)
(-0.00297063 0.0105212 0)
(-0.00411038 0.0366378 0)
(0.00493429 0.0719406 0)
(0.0222806 0.0990685 0)
(0.044943 0.119773 0)
(0.0708068 0.131261 0)
(0.0961077 0.135123 0)
(0.120924 0.131721 0)
(0.140939 0.123185 0)
(0.159999 0.110928 0)
(0.171785 0.0974344 0)
(0.186071 0.0835425 0)
(0.191326 0.0702692 0)
(0.20316 0.0573064 0)
(0.202731 0.0448153 0)
(0.21257 0.0323805 0)
(0.205197 0.0200321 0)
(0.212479 0.00784563 0)
(0.196193 -0.00426157 0)
(0.201149 -0.0156152 0)
(0.173903 -0.0269725 0)
(0.178404 -0.0368341 0)
(0.136777 -0.0472037 0)
(0.145555 -0.0549691 0)
(0.0823596 -0.0652547 0)
(0.107799 -0.0729614 0)
(0.0123561 -0.095109 0)
(0.0764441 -0.141752 0)
(-0.058321 -0.294628 0)
(0.0459433 -0.513749 0)
(-0.00546883 0.0173474 0)
(-0.0161872 0.0346003 0)
(-0.00968331 0.0601228 0)
(0.00152655 0.0784707 0)
(0.0253429 0.0941749 0)
(0.0507516 0.102711 0)
(0.0791863 0.106922 0)
(0.108218 0.105586 0)
(0.132345 0.100303 0)
(0.157753 0.0917395 0)
(0.173405 0.081803 0)
(0.193614 0.0709699 0)
(0.200675 0.0603855 0)
(0.216934 0.049851 0)
(0.216036 0.0398151 0)
(0.229381 0.0299438 0)
(0.219977 0.0203684 0)
(0.230796 0.011162 0)
(0.211485 0.00208673 0)
(0.220489 -0.00604551 0)
(0.189202 -0.0143179 0)
(0.19851 -0.0206555 0)
(0.151931 -0.0280962 0)
(0.166817 -0.0321624 0)
(0.0982773 -0.0410696 0)
(0.131665 -0.0456466 0)
(0.0298818 -0.0721193 0)
(0.103183 -0.111701 0)
(-0.0439783 -0.26157 0)
(0.0729535 -0.501771 0)
(-0.0309612 0.0423228 0)
(-0.0407586 0.0362168 0)
(-0.034127 0.055443 0)
(-0.0186259 0.0597958 0)
(0.00681275 0.0725778 0)
(0.0354092 0.0753924 0)
(0.06522 0.0788978 0)
(0.0992913 0.0774796 0)
(0.125385 0.0747889 0)
(0.157068 0.0687363 0)
(0.174735 0.0627921 0)
(0.201709 0.0548143 0)
(0.208954 0.0480754 0)
(0.231871 0.0400354 0)
(0.228559 0.0336568 0)
(0.248712 0.0261582 0)
(0.234479 0.0203988 0)
(0.253091 0.0136733 0)
(0.226952 0.00866175 0)
(0.245774 0.00307543 0)
(0.206189 -0.00105591 0)
(0.228439 -0.00494803 0)
(0.17261 -0.00874538 0)
(0.204317 -0.0107088 0)
(0.126541 -0.0175298 0)
(0.178524 -0.0212623 0)
(0.068542 -0.0494529 0)
(0.154474 -0.0961413 0)
(0.00380286 -0.244687 0)
(0.116603 -0.504359 0)
(0.0169632 0.0827671 0)
(-0.0476381 0.0300799 0)
(-0.0187354 0.0421077 0)
(-0.0283538 0.0363905 0)
(0.00102287 0.0403554 0)
(0.0225102 0.0406676 0)
(0.054655 0.0444536 0)
(0.0888033 0.043383 0)
(0.114369 0.0442333 0)
(0.153011 0.0409971 0)
(0.167364 0.0394168 0)
(0.206683 0.0350201 0)
(0.207555 0.0322758 0)
(0.247296 0.0277337 0)
(0.234222 0.0246343 0)
(0.275649 0.0205475 0)
(0.248216 0.0173935 0)
(0.293323 0.0141327 0)
(0.250578 0.0109937 0)
(0.302246 0.00895162 0)
(0.242522 0.00568871 0)
(0.304906 0.00515345 0)
(0.225474 0.00117283 0)
(0.304463 0.00188231 0)
(0.20056 -0.00441441 0)
(0.301485 -0.00646709 0)
(0.160172 -0.0271907 0)
(0.278877 -0.080784 0)
(0.0722328 -0.221235 0)
(0.178421 -0.456382 0)
(0.0745696 0.0629189 0)
(0.100163 0.0498282 0)
(0.15171 0.0357324 0)
(0.201462 0.0298299 0)
(0.215515 0.0235735 0)
(0.268542 0.0201807 0)
(0.272708 0.0174786 0)
(0.332494 0.0161008 0)
(0.327443 0.0148149 0)
(0.393665 0.0140051 0)
(0.378174 0.0130441 0)
(0.449503 0.0122053 0)
(0.421388 0.0113719 0)
(0.497614 0.010342 0)
(0.455355 0.00971275 0)
(0.537562 0.00844715 0)
(0.47982 0.00817277 0)
(0.569975 0.00658189 0)
(0.495295 0.00684547 0)
(0.596079 0.00475867 0)
(0.502733 0.00580069 0)
(0.617451 0.00291154 0)
(0.503293 0.00507976 0)
(0.635767 0.000783797 0)
(0.497599 0.00452903 0)
(0.649346 -0.00254498 0)
(0.471122 0.00173044 0)
(0.614784 -0.0188444 0)
(0.305464 -0.0337042 0)
(0.393085 -0.0965602 0)
)
;

boundaryField
{
    movingWall
    {
        type            fixedValue;
        value           uniform (1 0 0);
    }
    fixedWalls
    {
        type            noSlip;
    }
    frontAndBack
    {
        type            empty;
    }
}


// ************************************************************************* //
