/*--------------------------------*- C++ -*----------------------------------*\
| =========                 |                                                 |
| \\      /  F ield         | OpenFOAM: The Open Source CFD Toolbox           |
|  \\    /   O peration     | Version:  2406                                  |
|   \\  /    A nd           | Website:  www.openfoam.com                      |
|    \\/     M anipulation  |                                                 |
\*---------------------------------------------------------------------------*/
FoamFile
{
    version     2.0;
    format      ascii;
    arch        "LSB;label=32;scalar=64";
    class       volVectorField;
    location    "27";
    object      U;
}
// * * * * * * * * * * * * * * * * * * * * * * * * * * * * * * * * * * * * * //

dimensions      [0 1 -1 0 0 0 0];

internalField   nonuniform List<vector> 
3600
(
(6.69273e-05 -6.70965e-05 0)
(0.000427459 -0.000121995 0)
(0.000931042 -0.000150009 0)
(0.00148255 -0.000146181 0)
(0.00198556 -0.000129782 0)
(0.00241062 -0.000107215 0)
(0.00274435 -8.34435e-05 0)
(0.00298206 -6.04877e-05 0)
(0.00312051 -3.87935e-05 0)
(0.00315295 -1.69236e-05 0)
(0.00307086 8.50004e-06 0)
(0.00285975 3.74898e-05 0)
(0.00249509 7.16206e-05 0)
(0.00194428 0.000113447 0)
(0.00116502 0.000165465 0)
(0.000105765 0.000229714 0)
(-0.00129147 0.000307302 0)
(-0.00308607 0.000398028 0)
(-0.00533225 0.000500195 0)
(-0.00807124 0.000610663 0)
(-0.0113224 0.000725514 0)
(-0.015073 0.000841066 0)
(-0.0192689 0.000953716 0)
(-0.023806 0.00105756 0)
(-0.0285265 0.00114119 0)
(-0.0332206 0.0011864 0)
(-0.0376346 0.00116988 0)
(-0.0414872 0.00107009 0)
(-0.0444904 0.000879411 0)
(-0.0463628 0.000599175 0)
(-0.0468545 0.00022061 0)
(-0.0457926 -0.000251603 0)
(-0.0431083 -0.000765907 0)
(-0.0387847 -0.00128141 0)
(-0.032937 -0.00175658 0)
(-0.0257883 -0.00214576 0)
(-0.0176736 -0.00240628 0)
(-0.00902328 -0.00250363 0)
(-0.000336938 -0.00241807 0)
(0.00785806 -0.00215016 0)
(0.0150579 -0.00172413 0)
(0.0208404 -0.00118826 0)
(0.0249185 -0.000607877 0)
(0.0271799 -5.42921e-05 0)
(0.0277062 0.000402502 0)
(0.0267123 0.000708222 0)
(0.024552 0.000880895 0)
(0.0216551 0.000944753 0)
(0.0184142 0.000919081 0)
(0.0151501 0.000835876 0)
(0.0120932 0.000725776 0)
(0.00937934 0.000609374 0)
(0.00706373 0.000499037 0)
(0.00514387 0.000401682 0)
(0.00358191 0.000320183 0)
(0.00232554 0.000253473 0)
(0.00133048 0.000194653 0)
(0.000580541 0.000132347 0)
(0.000118472 5.0081e-05 0)
(-1.83954e-05 -2.16642e-05 0)
(0.000121635 -0.000426885 0)
(0.000877105 -0.000875774 0)
(0.00182561 -0.00103844 0)
(0.00282434 -0.00100376 0)
(0.00369115 -0.000867585 0)
(0.00436338 -0.000684207 0)
(0.00479943 -0.000479552 0)
(0.00496855 -0.000261785 0)
(0.00483857 -2.86962e-05 0)
(0.00436828 0.000228617 0)
(0.00350089 0.000523985 0)
(0.00216335 0.000870733 0)
(0.000266115 0.00128525 0)
(-0.00229934 0.00178569 0)
(-0.00565722 0.00238912 0)
(-0.00993924 0.00310716 0)
(-0.0152701 0.00394115 0)
(-0.0217467 0.00487819 0)
(-0.0294127 0.00588858 0)
(-0.0382321 0.00692428 0)
(-0.0480643 0.00791731 0)
(-0.0586503 0.00877949 0)
(-0.0696166 0.00940791 0)
(-0.0805019 0.00969763 0)
(-0.0907993 0.00955749 0)
(-0.100006 0.00892343 0)
(-0.107663 0.00776614 0)
(-0.113377 0.00609504 0)
(-0.116848 0.00395967 0)
(-0.117875 0.00144193 0)
(-0.116334 -0.0013568 0)
(-0.112144 -0.00432191 0)
(-0.105379 -0.00729818 0)
(-0.0961673 -0.0101269 0)
(-0.0847418 -0.0126348 0)
(-0.0714216 -0.0146517 0)
(-0.0566318 -0.0160177 0)
(-0.0408904 -0.0166008 0)
(-0.0248001 -0.0163152 0)
(-0.00902006 -0.0151411 0)
(0.00576897 -0.0131402 0)
(0.0189167 -0.0104625 0)
(0.0298588 -0.00733846 0)
(0.0381701 -0.00405607 0)
(0.0436139 -0.000922469 0)
(0.0461895 0.00177407 0)
(0.0461286 0.00384984 0)
(0.0438337 0.00523115 0)
(0.0398585 0.00591668 0)
(0.0348357 0.00601092 0)
(0.0293587 0.00567578 0)
(0.0239109 0.00508123 0)
(0.0188312 0.00437403 0)
(0.0143103 0.00366223 0)
(0.0104177 0.00301088 0)
(0.0071437 0.00244069 0)
(0.00445238 0.00192356 0)
(0.00232134 0.00138746 0)
(0.000851591 0.000749664 0)
(7.91407e-05 0.000139444 0)
(0.000152218 -0.000932742 0)
(0.00104537 -0.00182492 0)
(0.00207737 -0.00207815 0)
(0.00309635 -0.00194283 0)
(0.00388668 -0.00159614 0)
(0.00436461 -0.00113553 0)
(0.00445764 -0.000603522 0)
(0.00409574 -7.52181e-06 0)
(0.00319827 0.00066547 0)
(0.001666 0.00144019 0)
(-0.000624798 0.00234775 0)
(-0.0038226 0.00342427 0)
(-0.00809774 0.00470655 0)
(-0.0136362 0.00622797 0)
(-0.0206234 0.00800962 0)
(-0.0292172 0.0100477 0)
(-0.039509 0.0123006 0)
(-0.0514794 0.0146793 0)
(-0.0649565 0.0170408 0)
(-0.0795952 0.0191928 0)
(-0.0948949 0.0209137 0)
(-0.110256 0.0219898 0)
(-0.125059 0.0222531 0)
(-0.138734 0.0216045 0)
(-0.150803 0.0200159 0)
(-0.160891 0.0175197 0)
(-0.168724 0.0141918 0)
(-0.174109 0.0101368 0)
(-0.176914 0.00547845 0)
(-0.177065 0.000363097 0)
(-0.174544 -0.00503994 0)
(-0.169334 -0.010554 0)
(-0.161484 -0.0159894 0)
(-0.151074 -0.0211254 0)
(-0.138263 -0.0257191 0)
(-0.123273 -0.0295169 0)
(-0.106425 -0.0322676 0)
(-0.0881343 -0.0337475 0)
(-0.068924 -0.0337876 0)
(-0.0494063 -0.0323082 0)
(-0.0302607 -0.0293467 0)
(-0.0121891 -0.0250744 0)
(0.00413471 -0.0197956 0)
(0.0181228 -0.0139194 0)
(0.029326 -0.00791166 0)
(0.0374792 -0.00223709 0)
(0.0425223 0.00268389 0)
(0.0445828 0.00653813 0)
(0.0439736 0.009184 0)
(0.0412146 0.0106334 0)
(0.036914 0.0110332 0)
(0.0317015 0.0106284 0)
(0.0261462 0.00970205 0)
(0.0206916 0.00851618 0)
(0.0156316 0.0072701 0)
(0.0111258 0.00607272 0)
(0.00725036 0.00492363 0)
(0.00403556 0.00371825 0)
(0.00166832 0.00230166 0)
(0.000196378 0.000733014 0)
(0.000151736 -0.00149197 0)
(0.00100057 -0.00280926 0)
(0.00187981 -0.00307643 0)
(0.00262986 -0.0027389 0)
(0.00302536 -0.00205867 0)
(0.00296224 -0.00116896 0)
(0.00233156 -0.000118354 0)
(0.00101172 0.00109706 0)
(-0.00114282 0.00251209 0)
(-0.00430668 0.0041783 0)
(-0.00868489 0.00615457 0)
(-0.0145074 0.00850061 0)
(-0.0220148 0.0112673 0)
(-0.0314324 0.0144819 0)
(-0.0429256 0.0181247 0)
(-0.0565418 0.0221035 0)
(-0.0721484 0.0262322 0)
(-0.0893961 0.0302299 0)
(-0.107733 0.0337515 0)
(-0.126481 0.03645 0)
(-0.144946 0.0380432 0)
(-0.162507 0.0383541 0)
(-0.17867 0.0373146 0)
(-0.19307 0.0349459 0)
(-0.205454 0.0313313 0)
(-0.215655 0.0265922 0)
(-0.223558 0.0208696 0)
(-0.229082 0.0143125 0)
(-0.232162 0.00707595 0)
(-0.232738 -0.000671839 0)
(-0.23077 -0.00874749 0)
(-0.226204 -0.0169488 0)
(-0.219019 -0.0250442 0)
(-0.209196 -0.0327702 0)
(-0.196773 -0.0398225 0)
(-0.181839 -0.0458676 0)
(-0.164577 -0.0505539 0)
(-0.145274 -0.0535444 0)
(-0.124346 -0.0545535 0)
(-0.102344 -0.0533978 0)
(-0.0799396 -0.0500425 0)
(-0.0578895 -0.0446382 0)
(-0.0369753 -0.0375296 0)
(-0.0179277 -0.02923 0)
(-0.00135471 -0.0203609 0)
(0.0123103 -0.0115733 0)
(0.0228047 -0.00347383 0)
(0.030088 0.00343461 0)
(0.0342845 0.00883273 0)
(0.0356722 0.0125687 0)
(0.0346796 0.0146775 0)
(0.0318532 0.0153644 0)
(0.0277894 0.0149534 0)
(0.0230569 0.0138151 0)
(0.0181319 0.012288 0)
(0.0133656 0.0106079 0)
(0.00900053 0.00885146 0)
(0.0051836 0.00691815 0)
(0.00223639 0.00457834 0)
(0.000278119 0.00169673 0)
(0.000133645 -0.00199561 0)
(0.000800401 -0.00359749 0)
(0.00133482 -0.00373811 0)
(0.00157547 -0.00305955 0)
(0.00130449 -0.00189607 0)
(0.00039081 -0.000396482 0)
(-0.00132289 0.0014039 0)
(-0.00402442 0.00353595 0)
(-0.0079382 0.00606741 0)
(-0.0133233 0.00908246 0)
(-0.0204639 0.0126654 0)
(-0.0296475 0.0168835 0)
(-0.0411257 0.0217634 0)
(-0.0550533 0.0272559 0)
(-0.0714116 0.0331962 0)
(-0.0899412 0.0392778 0)
(-0.110126 0.0450691 0)
(-0.131261 0.0500841 0)
(-0.152573 0.0538836 0)
(-0.173358 0.0561531 0)
(-0.193049 0.056729 0)
(-0.211235 0.0555806 0)
(-0.227641 0.0527728 0)
(-0.242093 0.0484296 0)
(-0.254481 0.0427049 0)
(-0.264738 0.0357641 0)
(-0.272824 0.0277726 0)
(-0.278708 0.0188918 0)
(-0.282352 0.00928205 0)
(-0.283716 -0.000887074 0)
(-0.282762 -0.0114356 0)
(-0.279424 -0.0221767 0)
(-0.27362 -0.0328677 0)
(-0.265258 -0.0432291 0)
(-0.254251 -0.0529214 0)
(-0.240538 -0.0615535 0)
(-0.224114 -0.0686861 0)
(-0.205068 -0.0738623 0)
(-0.183625 -0.0766506 0)
(-0.160187 -0.0767073 0)
(-0.135352 -0.0738495 0)
(-0.109903 -0.0681216 0)
(-0.0847601 -0.0598378 0)
(-0.0608796 -0.049575 0)
(-0.0391358 -0.0381095 0)
(-0.0202067 -0.0263025 0)
(-0.00451386 -0.0149742 0)
(0.00779146 -0.00479165 0)
(0.01675 0.00373942 0)
(0.0225405 0.0103226 0)
(0.0254635 0.0148647 0)
(0.0259268 0.0174666 0)
(0.024431 0.0183997 0)
(0.021527 0.0180504 0)
(0.0177564 0.0168344 0)
(0.0135947 0.0150939 0)
(0.00943455 0.0129965 0)
(0.00556339 0.0104714 0)
(0.00244813 0.00722146 0)
(0.000309039 0.00286591 0)
(9.82748e-05 -0.00237846 0)
(0.000457371 -0.00404292 0)
(0.000466994 -0.00386874 0)
(-2.4875e-05 -0.0026766 0)
(-0.00121769 -0.000842326 0)
(-0.00328114 0.00149759 0)
(-0.00643517 0.00434351 0)
(-0.0109467 0.00776775 0)
(-0.0171241 0.0118759 0)
(-0.0253006 0.0167771 0)
(-0.0358036 0.0225549 0)
(-0.0489033 0.0292308 0)
(-0.0647368 0.0367165 0)
(-0.0832196 0.0447632 0)
(-0.103981 0.0529376 0)
(-0.126375 0.0606623 0)
(-0.149589 0.0673262 0)
(-0.172802 0.0724139 0)
(-0.195308 0.0755854 0)
(-0.216575 0.0766866 0)
(-0.236232 0.0757133 0)
(-0.254042 0.0727644 0)
(-0.269866 0.0679996 0)
(-0.283635 0.0616095 0)
(-0.295336 0.0537935 0)
(-0.304988 0.0447462 0)
(-0.312637 0.0346494 0)
(-0.318336 0.0236709 0)
(-0.322123 0.0119653 0)
(-0.324015 -0.000323983 0)
(-0.324026 -0.0130508 0)
(-0.322111 -0.0260371 0)
(-0.318158 -0.0390824 0)
(-0.312026 -0.0519273 0)
(-0.303516 -0.0642481 0)
(-0.292405 -0.0756358 0)
(-0.278466 -0.0856023 0)
(-0.261515 -0.0935893 0)
(-0.241474 -0.0990116 0)
(-0.218442 -0.101319 0)
(-0.192767 -0.10009 0)
(-0.165101 -0.0951351 0)
(-0.136395 -0.0865962 0)
(-0.107838 -0.0749954 0)
(-0.0806985 -0.0612102 0)
(-0.0561232 -0.0463482 0)
(-0.0349383 -0.0315516 0)
(-0.0175475 -0.0178016 0)
(-0.00397723 -0.00581445 0)
(0.00598571 0.00398497 0)
(0.0126701 0.0114114 0)
(0.0164605 0.0164813 0)
(0.0177936 0.0193914 0)
(0.0171603 0.0204849 0)
(0.0150865 0.0201842 0)
(0.0120921 0.0188821 0)
(0.0086641 0.0168095 0)
(0.00521064 0.0139229 0)
(0.00231347 0.00987106 0)
(0.000290303 0.00405584 0)
(4.34622e-05 -0.00256472 0)
(-3.95955e-05 -0.00398976 0)
(-0.000736748 -0.00326584 0)
(-0.00218025 -0.0013539 0)
(-0.00454378 0.00137704 0)
(-0.00805219 0.00484003 0)
(-0.0129994 0.00909218 0)
(-0.0197345 0.0142527 0)
(-0.0286347 0.0204534 0)
(-0.0400641 0.0277941 0)
(-0.0543108 0.0362914 0)
(-0.0715 0.0458175 0)
(-0.0914977 0.056041 0)
(-0.113851 0.0664067 0)
(-0.13782 0.0761991 0)
(-0.162512 0.0846848 0)
(-0.187052 0.0912653 0)
(-0.210714 0.0955601 0)
(-0.23295 0.0974064 0)
(-0.253385 0.0968135 0)
(-0.271783 0.0939101 0)
(-0.288021 0.0888991 0)
(-0.302076 0.0820236 0)
(-0.313997 0.0735393 0)
(-0.323894 0.0636938 0)
(-0.331911 0.0527112 0)
(-0.338208 0.0407859 0)
(-0.342942 0.0280821 0)
(-0.346249 0.014733 0)
(-0.34823 0.000840935 0)
(-0.348936 -0.0134983 0)
(-0.348367 -0.0281548 0)
(-0.346441 -0.0429986 0)
(-0.343002 -0.0578374 0)
(-0.3378 -0.0724161 0)
(-0.330502 -0.0863742 0)
(-0.320696 -0.0992417 0)
(-0.307928 -0.110424 0)
(-0.291763 -0.119225 0)
(-0.27187 -0.124895 0)
(-0.24814 -0.126717 0)
(-0.220807 -0.124139 0)
(-0.190554 -0.116926 0)
(-0.158541 -0.105302 0)
(-0.126329 -0.090027 0)
(-0.0956539 -0.0723534 0)
(-0.0680906 -0.0538179 0)
(-0.0447163 -0.0359226 0)
(-0.0259441 -0.0198362 0)
(-0.0116152 -0.006259 0)
(-0.00126155 0.00452118 0)
(0.00566226 0.0124962 0)
(0.00968285 0.0178414 0)
(0.0113098 0.020869 0)
(0.0110616 0.0219795 0)
(0.00946791 0.0215679 0)
(0.00706195 0.0198862 0)
(0.00433452 0.0168998 0)
(0.00193031 0.0122189 0)
(0.000237344 0.00510949 0)
(-3.89914e-05 -0.00247048 0)
(-0.000712512 -0.00327124 0)
(-0.00229656 -0.00172718 0)
(-0.00490656 0.0011381 0)
(-0.00868074 0.00502879 0)
(-0.0139145 0.00994727 0)
(-0.0209794 0.016019 0)
(-0.0302905 0.0233967 0)
(-0.0422482 0.0321977 0)
(-0.0571653 0.0424388 0)
(-0.0751698 0.053961 0)
(-0.0961046 0.0663614 0)
(-0.119468 0.0789746 0)
(-0.144454 0.0909506 0)
(-0.170096 0.101424 0)
(-0.195455 0.109688 0)
(-0.219741 0.115294 0)
(-0.242358 0.118047 0)
(-0.26289 0.117957 0)
(-0.281086 0.115184 0)
(-0.296843 0.109987 0)
(-0.310188 0.102684 0)
(-0.321251 0.0936072 0)
(-0.330239 0.083081 0)
(-0.3374 0.0713927 0)
(-0.343 0.0587826 0)
(-0.347292 0.0454396 0)
(-0.350508 0.0315043 0)
(-0.352849 0.0170729 0)
(-0.354471 0.0022075 0)
(-0.355463 -0.0130458 0)
(-0.355867 -0.0286441 0)
(-0.355664 -0.0445289 0)
(-0.354741 -0.0606071 0)
(-0.352886 -0.0767248 0)
(-0.349762 -0.0926351 0)
(-0.344902 -0.107966 0)
(-0.337703 -0.12219 0)
(-0.327462 -0.13461 0)
(-0.313437 -0.144371 0)
(-0.294969 -0.150515 0)
(-0.271644 -0.152092 0)
(-0.243492 -0.148341 0)
(-0.211167 -0.138903 0)
(-0.176043 -0.124044 0)
(-0.140139 -0.104781 0)
(-0.10581 -0.0828337 0)
(-0.0752269 -0.0603026 0)
(-0.0498289 -0.0391618 0)
(-0.0300415 -0.0207922 0)
(-0.0154495 -0.00583019 0)
(-0.00525276 0.00565634 0)
(0.00136557 0.0139 0)
(0.00511113 0.0192655 0)
(0.00659914 0.0221698 0)
(0.00640472 0.0230068 0)
(0.00509788 0.0220254 0)
(0.00322265 0.0191848 0)
(0.00143933 0.0140778 0)
(0.000171767 0.00593568 0)
(-0.000152061 -0.00200147 0)
(-0.00157535 -0.00171274 0)
(-0.00422301 0.000945719 0)
(-0.00819806 0.00501614 0)
(-0.0135985 0.0103605 0)
(-0.0208004 0.0171024 0)
(-0.0302387 0.0254276 0)
(-0.0423524 0.035479 0)
(-0.0574885 0.0472832 0)
(-0.0757996 0.0606644 0)
(-0.097136 0.0751672 0)
(-0.120982 0.0900321 0)
(-0.146492 0.104278 0)
(-0.172633 0.116888 0)
(-0.198381 0.127017 0)
(-0.222861 0.134109 0)
(-0.245395 0.137907 0)
(-0.265514 0.138411 0)
(-0.282949 0.135812 0)
(-0.297625 0.130441 0)
(-0.309631 0.122707 0)
(-0.319189 0.113043 0)
(-0.326608 0.101864 0)
(-0.332234 0.089537 0)
(-0.336419 0.0763577 0)
(-0.33949 0.062552 0)
(-0.341732 0.0482778 0)
(-0.343387 0.0336339 0)
(-0.344657 0.0186731 0)
(-0.345696 0.00341774 0)
(-0.346613 -0.0121316 0)
(-0.347477 -0.027994 0)
(-0.34832 -0.044178 0)
(-0.349112 -0.0606783 0)
(-0.349745 -0.077449 0)
(-0.349997 -0.0943812 0)
(-0.349502 -0.111262 0)
(-0.347713 -0.127732 0)
(-0.343882 -0.143235 0)
(-0.337069 -0.156985 0)
(-0.32621 -0.167959 0)
(-0.310255 -0.174948 0)
(-0.288391 -0.176693 0)
(-0.260329 -0.172113 0)
(-0.2266 -0.16062 0)
(-0.188752 -0.142451 0)
(-0.149319 -0.118901 0)
(-0.111419 -0.0922717 0)
(-0.077987 -0.0654128 0)
(-0.0509091 -0.04091 0)
(-0.030585 -0.0203726 0)
(-0.0162446 -0.00428759 0)
(-0.00668407 0.00759222 0)
(-0.00078463 0.0157899 0)
(0.00235322 0.0208513 0)
(0.00346321 0.0232327 0)
(0.0031968 0.023202 0)
(0.0021502 0.0207229 0)
(0.000977486 0.0153994 0)
(0.000113845 0.00651907 0)
(-0.000297634 -0.00105166 0)
(-0.00262945 0.000854568 0)
(-0.00649949 0.00493257 0)
(-0.0120068 0.0104695 0)
(-0.0192043 0.0175779 0)
(-0.0285467 0.0265184 0)
(-0.0404969 0.0374986 0)
(-0.0554508 0.0505756 0)
(-0.0736073 0.0655779 0)
(-0.0948582 0.0820216 0)
(-0.118711 0.0990754 0)
(-0.144312 0.115635 0)
(-0.170575 0.130516 0)
(-0.196388 0.142696 0)
(-0.220769 0.151467 0)
(-0.242949 0.156479 0)
(-0.262394 0.157699 0)
(-0.27882 0.155348 0)
(-0.292183 0.149837 0)
(-0.302649 0.141683 0)
(-0.310538 0.131437 0)
(-0.316261 0.11962 0)
(-0.320257 0.106684 0)
(-0.322949 0.0929841 0)
(-0.324708 0.0787834 0)
(-0.325844 0.064257 0)
(-0.326598 0.0495084 0)
(-0.327158 0.0345861 0)
(-0.327668 0.0195008 0)
(-0.328236 0.00424137 0)
(-0.328946 -0.0112203 0)
(-0.32987 -0.0269278 0)
(-0.331065 -0.0429249 0)
(-0.33257 -0.0592538 0)
(-0.33439 -0.0759432 0)
(-0.336463 -0.092995 0)
(-0.338625 -0.110355 0)
(-0.340552 -0.12787 0)
(-0.3417 -0.14523 0)
(-0.341249 -0.161894 0)
(-0.338084 -0.17702 0)
(-0.330839 -0.189429 0)
(-0.318045 -0.197631 0)
(-0.298406 -0.199974 0)
(-0.271192 -0.194938 0)
(-0.23669 -0.18157 0)
(-0.196562 -0.159991 0)
(-0.153891 -0.131799 0)
(-0.112694 -0.100051 0)
(-0.0768192 -0.0685822 0)
(-0.048634 -0.0407393 0)
(-0.0283928 -0.0183153 0)
(-0.0148357 -0.0015029 0)
(-0.00630888 0.0103572 0)
(-0.00139897 0.0180852 0)
(0.000972505 0.0223408 0)
(0.0016475 0.0235006 0)
(0.00131672 0.0215857 0)
(0.000644978 0.0162527 0)
(7.74705e-05 0.00690778 0)
(-0.000475912 0.000484429 0)
(-0.00385787 0.00458178 0)
(-0.00907392 0.0103791 0)
(-0.0162313 0.0176398 0)
(-0.0253278 0.0268174 0)
(-0.0368795 0.0382971 0)
(-0.0513208 0.0522379 0)
(-0.068925 0.0685078 0)
(-0.0896564 0.0866255 0)
(-0.113088 0.105717 0)
(-0.138396 0.124571 0)
(-0.164472 0.141832 0)
(-0.190121 0.156263 0)
(-0.214253 0.166956 0)
(-0.235993 0.173421 0)
(-0.254739 0.175561 0)
(-0.270184 0.173616 0)
(-0.282316 0.168076 0)
(-0.291375 0.159578 0)
(-0.297779 0.148807 0)
(-0.302043 0.136404 0)
(-0.304691 0.122913 0)
(-0.306204 0.108752 0)
(-0.306985 0.0942156 0)
(-0.307344 0.0794877 0)
(-0.307502 0.0646683 0)
(-0.307609 0.0497967 0)
(-0.30776 0.0348726 0)
(-0.308019 0.0198745 0)
(-0.308428 0.00477156 0)
(-0.309026 -0.0104727 0)
(-0.309863 -0.0258999 0)
(-0.310993 -0.0415529 0)
(-0.312488 -0.0574794 0)
(-0.314419 -0.0737308 0)
(-0.316849 -0.0903603 0)
(-0.319797 -0.107412 0)
(-0.323198 -0.124896 0)
(-0.326825 -0.14274 0)
(-0.330211 -0.160722 0)
(-0.332553 -0.178361 0)
(-0.332642 -0.194807 0)
(-0.328868 -0.208752 0)
(-0.319351 -0.218411 0)
(-0.302262 -0.221667 0)
(-0.276328 -0.216428 0)
(-0.24148 -0.20123 0)
(-0.199424 -0.175994 0)
(-0.153837 -0.142681 0)
(-0.109779 -0.105356 0)
(-0.0721317 -0.0691409 0)
(-0.0436659 -0.0382499 0)
(-0.0242523 -0.0144864 0)
(-0.0119947 0.00246151 0)
(-0.00480142 0.013728 0)
(-0.00102035 0.0203673 0)
(0.000556761 0.0230335 0)
(0.000813842 0.0219137 0)
(0.000489555 0.0167803 0)
(6.84381e-05 0.00718856 0)
(-0.000682782 0.00270011 0)
(-0.00522168 0.00958472 0)
(-0.0118565 0.0173801 0)
(-0.0207148 0.0266014 0)
(-0.0317223 0.0381183 0)
(-0.0454225 0.0523957 0)
(-0.062154 0.0694473 0)
(-0.081995 0.0888421 0)
(-0.104622 0.109702 0)
(-0.12929 0.130743 0)
(-0.154909 0.150442 0)
(-0.180232 0.167327 0)
(-0.204063 0.180238 0)
(-0.225419 0.188485 0)
(-0.243612 0.191862 0)
(-0.258297 0.190592 0)
(-0.269475 0.185236 0)
(-0.277449 0.176556 0)
(-0.282729 0.165383 0)
(-0.285921 0.152495 0)
(-0.287632 0.138541 0)
(-0.288395 0.124005 0)
(-0.288634 0.109212 0)
(-0.288652 0.09435 0)
(-0.288643 0.0795056 0)
(-0.288712 0.0646978 0)
(-0.288903 0.0499074 0)
(-0.289223 0.0350989 0)
(-0.289662 0.0202339 0)
(-0.290207 0.00527833 0)
(-0.290859 -0.00979646 0)
(-0.291636 -0.0250135 0)
(-0.29258 -0.0403953 0)
(-0.293759 -0.0559685 0)
(-0.295266 -0.0717704 0)
(-0.297217 -0.087854 0)
(-0.299733 -0.104291 0)
(-0.302918 -0.121165 0)
(-0.306812 -0.138555 0)
(-0.311312 -0.156484 0)
(-0.316073 -0.174839 0)
(-0.320372 -0.193238 0)
(-0.322984 -0.210867 0)
(-0.322128 -0.226316 0)
(-0.315557 -0.2375 0)
(-0.300897 -0.241768 0)
(-0.276276 -0.236334 0)
(-0.241187 -0.219077 0)
(-0.197357 -0.189663 0)
(-0.149147 -0.150568 0)
(-0.102828 -0.107235 0)
(-0.064378 -0.0664371 0)
(-0.0367065 -0.0332078 0)
(-0.0189268 -0.00898513 0)
(-0.00842214 0.00728058 0)
(-0.0027652 0.0171729 0)
(-0.00016429 0.0218513 0)
(0.000616144 0.0218465 0)
(0.000504266 0.0171437 0)
(8.4941e-05 0.00745883 0)
(-0.000909308 0.00566376 0)
(-0.00666021 0.0159272 0)
(-0.0147233 0.0259645 0)
(-0.0252534 0.0373445 0)
(-0.0380801 0.0514033 0)
(-0.0537291 0.0686124 0)
(-0.0723797 0.0887322 0)
(-0.0938669 0.110941 0)
(-0.117571 0.133925 0)
(-0.142479 0.15603 0)
(-0.167333 0.175539 0)
(-0.190858 0.190996 0)
(-0.211954 0.20144 0)
(-0.22983 0.206485 0)
(-0.244074 0.206286 0)
(-0.254672 0.201439 0)
(-0.261961 0.192827 0)
(-0.266521 0.181436 0)
(-0.269041 0.1682 0)
(-0.270202 0.153891 0)
(-0.270587 0.139074 0)
(-0.270642 0.124111 0)
(-0.270662 0.109191 0)
(-0.270816 0.0943821 0)
(-0.271169 0.0796767 0)
(-0.271719 0.0650281 0)
(-0.272426 0.0503787 0)
(-0.273233 0.0356764 0)
(-0.274084 0.0208827 0)
(-0.274934 0.00597402 0)
(-0.275759 -0.00905933 0)
(-0.276555 -0.0242163 0)
(-0.277348 -0.0394916 0)
(-0.27819 -0.0548823 0)
(-0.279165 -0.0703959 0)
(-0.28039 -0.0860589 0)
(-0.282013 -0.101926 0)
(-0.284206 -0.118087 0)
(-0.287144 -0.13467 0)
(-0.290963 -0.151822 0)
(-0.295684 -0.169668 0)
(-0.301095 -0.188216 0)
(-0.306581 -0.207203 0)
(-0.310951 -0.225867 0)
(-0.312307 -0.24271 0)
(-0.308081 -0.255323 0)
(-0.295373 -0.260452 0)
(-0.271701 -0.254489 0)
(-0.236116 -0.234547 0)
(-0.190428 -0.200051 0)
(-0.139859 -0.154311 0)
(-0.0921143 -0.104713 0)
(-0.0541867 -0.0600158 0)
(-0.0285677 -0.0256935 0)
(-0.0131824 -0.00221909 0)
(-0.00478495 0.0123351 0)
(-0.000789578 0.0198553 0)
(0.000591618 0.0214516 0)
(0.000634589 0.0174681 0)
(0.000119381 0.00780044 0)
(-0.00114197 0.00940598 0)
(-0.00809508 0.0236084 0)
(-0.0175254 0.0360857 0)
(-0.0296125 0.0497658 0)
(-0.0440611 0.066474 0)
(-0.0613322 0.0865975 0)
(-0.0813989 0.109545 0)
(-0.10384 0.134048 0)
(-0.127771 0.158372 0)
(-0.151994 0.18058 0)
(-0.175188 0.198892 0)
(-0.196149 0.212002 0)
(-0.213963 0.219251 0)
(-0.228116 0.220643 0)
(-0.238533 0.216751 0)
(-0.245544 0.208549 0)
(-0.249769 0.197182 0)
(-0.251965 0.183759 0)
(-0.252881 0.169206 0)
(-0.253152 0.15419 0)
(-0.253248 0.139124 0)
(-0.253469 0.124209 0)
(-0.253963 0.109494 0)
(-0.254764 0.0949412 0)
(-0.255836 0.0804703 0)
(-0.2571 0.0659958 0)
(-0.258465 0.051445 0)
(-0.259845 0.0367676 0)
(-0.261163 0.0219373 0)
(-0.262363 0.00694909 0)
(-0.263412 -0.00818434 0)
(-0.264295 -0.0234379 0)
(-0.265024 -0.03878 0)
(-0.265634 -0.0541793 0)
(-0.266187 -0.0696116 0)
(-0.266778 -0.0850691 0)
(-0.267534 -0.100571 0)
(-0.268624 -0.116177 0)
(-0.270256 -0.131999 0)
(-0.272661 -0.148207 0)
(-0.276063 -0.165027 0)
(-0.280595 -0.182689 0)
(-0.286174 -0.201334 0)
(-0.292297 -0.220816 0)
(-0.29781 -0.240423 0)
(-0.30071 -0.258536 0)
(-0.298124 -0.272362 0)
(-0.286649 -0.277934 0)
(-0.263227 -0.270696 0)
(-0.226555 -0.246926 0)
(-0.178722 -0.205995 0)
(-0.126135 -0.152633 0)
(-0.0781736 -0.0969677 0)
(-0.0424755 -0.0498454 0)
(-0.020178 -0.0162107 0)
(-0.00778186 0.00508112 0)
(-0.00172574 0.0167245 0)
(0.000528797 0.0206624 0)
(0.000792355 0.0177969 0)
(0.000160391 0.00825879 0)
(-0.00136377 0.0139096 0)
(-0.00943745 0.0325564 0)
(-0.0201031 0.0476183 0)
(-0.0335499 0.0636694 0)
(-0.04933 0.0830222 0)
(-0.0677994 0.105888 0)
(-0.0887042 0.131251 0)
(-0.111387 0.157385 0)
(-0.134762 0.18219 0)
(-0.157537 0.203567 0)
(-0.178427 0.219804 0)
(-0.19639 0.229863 0)
(-0.210773 0.233483 0)
(-0.22139 0.231122 0)
(-0.22851 0.223781 0)
(-0.232751 0.21275 0)
(-0.234915 0.199333 0)
(-0.235809 0.184641 0)
(-0.236127 0.169482 0)
(-0.236377 0.154351 0)
(-0.236871 0.139473 0)
(-0.23775 0.124891 0)
(-0.23903 0.110533 0)
(-0.240647 0.0962854 0)
(-0.242498 0.0820277 0)
(-0.244467 0.0676618 0)
(-0.246444 0.0531196 0)
(-0.248335 0.0383651 0)
(-0.250066 0.023391 0)
(-0.251582 0.00821292 0)
(-0.252851 -0.00713553 0)
(-0.253856 -0.0226087 0)
(-0.2546 -0.038154 0)
(-0.255105 -0.0537177 0)
(-0.255413 -0.0692502 0)
(-0.255589 -0.0847139 0)
(-0.255726 -0.100092 0)
(-0.255953 -0.1154 0)
(-0.256448 -0.130705 0)
(-0.257437 -0.146139 0)
(-0.259197 -0.161923 0)
(-0.262027 -0.178358 0)
(-0.266168 -0.195796 0)
(-0.271656 -0.214514 0)
(-0.278087 -0.234488 0)
(-0.284321 -0.255024 0)
(-0.288213 -0.274308 0)
(-0.286553 -0.289023 0)
(-0.275432 -0.294323 0)
(-0.25129 -0.284559 0)
(-0.212674 -0.255206 0)
(-0.162333 -0.20604 0)
(-0.108359 -0.144244 0)
(-0.0619662 -0.0836436 0)
(-0.0304608 -0.0365345 0)
(-0.012479 -0.00569791 0)
(-0.00341979 0.0118843 0)
(0.000189298 0.0192422 0)
(0.000877756 0.0180634 0)
(0.000195515 0.00883157 0)
(-0.00155612 0.0191044 0)
(-0.0105973 0.0426284 0)
(-0.0223019 0.0603641 0)
(-0.0368408 0.0787793 0)
(-0.0535922 0.100657 0)
(-0.0727812 0.125957 0)
(-0.0939327 0.153201 0)
(-0.116198 0.180231 0)
(-0.138369 0.204678 0)
(-0.159149 0.2244 0)
(-0.177376 0.237883 0)
(-0.192236 0.244458 0)
(-0.203384 0.244334 0)
(-0.210966 0.238442 0)
(-0.215544 0.228163 0)
(-0.217927 0.214999 0)
(-0.218971 0.200285 0)
(-0.219431 0.185019 0)
(-0.219867 0.16982 0)
(-0.22062 0.154975 0)
(-0.221843 0.140529 0)
(-0.223544 0.126389 0)
(-0.225644 0.112402 0)
(-0.228021 0.0984092 0)
(-0.230541 0.0842817 0)
(-0.233082 0.0699283 0)
(-0.235536 0.0552977 0)
(-0.237818 0.0403746 0)
(-0.239865 0.0251717 0)
(-0.241631 0.00972422 0)
(-0.243085 -0.00591687 0)
(-0.244216 -0.0216896 0)
(-0.245022 -0.0375258 0)
(-0.245516 -0.0533556 0)
(-0.245726 -0.0691119 0)
(-0.245694 -0.0847361 0)
(-0.245484 -0.100184 0)
(-0.245182 -0.115436 0)
(-0.244912 -0.130509 0)
(-0.244849 -0.145479 0)
(-0.24523 -0.160502 0)
(-0.246365 -0.175844 0)
(-0.248615 -0.191894 0)
(-0.252322 -0.209128 0)
(-0.257632 -0.227976 0)
(-0.26422 -0.248528 0)
(-0.270911 -0.270056 0)
(-0.275343 -0.290416 0)
(-0.273884 -0.30555 0)
(-0.262096 -0.309473 0)
(-0.236042 -0.295291 0)
(-0.194479 -0.257902 0)
(-0.141429 -0.198433 0)
(-0.0873284 -0.128148 0)
(-0.0449951 -0.0652866 0)
(-0.0194591 -0.0213976 0)
(-0.00626171 0.0045326 0)
(-0.000631488 0.0167857 0)
(0.000807698 0.0180925 0)
(0.000215522 0.00947106 0)
(-0.00170114 0.0248677 0)
(-0.0114927 0.0536176 0)
(-0.0239876 0.0740638 0)
(-0.0392997 0.0947602 0)
(-0.0566232 0.118942 0)
(-0.076042 0.146265 0)
(-0.0968893 0.17479 0)
(-0.118186 0.20199 0)
(-0.138679 0.225328 0)
(-0.157148 0.242747 0)
(-0.172617 0.253034 0)
(-0.184545 0.255975 0)
(-0.192896 0.252277 0)
(-0.198109 0.243314 0)
(-0.200947 0.230752 0)
(-0.202293 0.216179 0)
(-0.202962 0.20084 0)
(-0.203577 0.185542 0)
(-0.204533 0.170679 0)
(-0.20601 0.156334 0)
(-0.208026 0.1424 0)
(-0.210498 0.128689 0)
(-0.213293 0.115002 0)
(-0.216266 0.10117 0)
(-0.219284 0.0870735 0)
(-0.222231 0.0726403 0)
(-0.225018 0.0578414 0)
(-0.227573 0.0426821 0)
(-0.229844 0.0271937 0)
(-0.231794 0.011427 0)
(-0.233398 -0.00455292 0)
(-0.234644 -0.0206716 0)
(-0.235531 -0.0368489 0)
(-0.236065 -0.0530032 0)
(-0.236268 -0.0690556 0)
(-0.236169 -0.0849333 0)
(-0.235809 -0.100575 0)
(-0.235247 -0.115937 0)
(-0.234563 -0.131003 0)
(-0.23387 -0.145795 0)
(-0.233338 -0.1604 0)
(-0.233208 -0.175003 0)
(-0.233816 -0.189921 0)
(-0.235581 -0.205635 0)
(-0.23893 -0.222761 0)
(-0.244108 -0.241888 0)
(-0.250829 -0.263201 0)
(-0.25781 -0.285843 0)
(-0.262358 -0.307131 0)
(-0.260299 -0.321939 0)
(-0.24665 -0.322796 0)
(-0.217321 -0.301475 0)
(-0.171852 -0.252906 0)
(-0.116437 -0.181326 0)
(-0.0645267 -0.104307 0)
(-0.0291975 -0.0437108 0)
(-0.0105159 -0.00630018 0)
(-0.00207041 0.0127489 0)
(0.000537116 0.0176289 0)
(0.000216539 0.0100989 0)
(-0.00178397 0.0310311 0)
(-0.0120583 0.0652661 0)
(-0.0250586 0.0884147 0)
(-0.0407964 0.111243 0)
(-0.0582849 0.137429 0)
(-0.077472 0.166308 0)
(-0.0975437 0.19551 0)
(-0.117455 0.222218 0)
(-0.13598 0.243841 0)
(-0.152035 0.258511 0)
(-0.16487 0.265408 0)
(-0.174224 0.264813 0)
(-0.18034 0.257925 0)
(-0.183872 0.246481 0)
(-0.185682 0.232315 0)
(-0.186631 0.216977 0)
(-0.187418 0.201538 0)
(-0.188509 0.18657 0)
(-0.190134 0.17224 0)
(-0.19234 0.158458 0)
(-0.195053 0.145008 0)
(-0.198138 0.131645 0)
(-0.201444 0.118157 0)
(-0.204829 0.104386 0)
(-0.208175 0.0902337 0)
(-0.211385 0.0756509 0)
(-0.214388 0.0606301 0)
(-0.217124 0.045194 0)
(-0.219553 0.0293883 0)
(-0.221641 0.0132761 0)
(-0.223367 -0.00306685 0)
(-0.224718 -0.0195559 0)
(-0.22569 -0.0361012 0)
(-0.226291 -0.0526116 0)
(-0.226534 -0.0689986 0)
(-0.226444 -0.0851802 0)
(-0.226051 -0.101085 0)
(-0.225399 -0.116654 0)
(-0.224539 -0.131851 0)
(-0.223544 -0.146665 0)
(-0.222518 -0.16113 0)
(-0.221622 -0.175348 0)
(-0.221101 -0.189535 0)
(-0.221318 -0.204073 0)
(-0.222747 -0.219552 0)
(-0.225896 -0.236747 0)
(-0.23108 -0.256411 0)
(-0.237992 -0.278772 0)
(-0.245125 -0.302677 0)
(-0.249294 -0.324573 0)
(-0.245655 -0.337802 0)
(-0.228725 -0.333023 0)
(-0.194678 -0.300811 0)
(-0.144724 -0.237517 0)
(-0.0884019 -0.153463 0)
(-0.0423678 -0.0746005 0)
(-0.0163072 -0.0217602 0)
(-0.00422147 0.00649673 0)
(5.79435e-05 0.0163597 0)
(0.000198789 0.010626 0)
(-0.00179447 0.0373914 0)
(-0.0122506 0.0772809 0)
(-0.0254524 0.103091 0)
(-0.0412626 0.127853 0)
(-0.0585289 0.155696 0)
(-0.0770794 0.185649 0)
(-0.0960051 0.214968 0)
(-0.114256 0.240636 0)
(-0.130689 0.260105 0)
(-0.144399 0.271791 0)
(-0.154874 0.275321 0)
(-0.16211 0.271481 0)
(-0.166569 0.261907 0)
(-0.16903 0.248602 0)
(-0.170366 0.233445 0)
(-0.171344 0.217854 0)
(-0.172517 0.202671 0)
(-0.17419 0.188226 0)
(-0.176461 0.17449 0)
(-0.17928 0.161239 0)
(-0.182521 0.148187 0)
(-0.186032 0.135069 0)
(-0.189668 0.121683 0)
(-0.193304 0.107892 0)
(-0.196843 0.0936221 0)
(-0.20021 0.0788474 0)
(-0.203346 0.0635768 0)
(-0.206204 0.0478458 0)
(-0.208748 0.0317103 0)
(-0.210946 0.015242 0)
(-0.212776 -0.00147462 0)
(-0.214225 -0.0183462 0)
(-0.215286 -0.0352737 0)
(-0.215964 -0.052157 0)
(-0.21627 -0.0688988 0)
(-0.216226 -0.0854092 0)
(-0.215861 -0.101609 0)
(-0.215208 -0.117434 0)
(-0.21431 -0.132835 0)
(-0.213215 -0.147785 0)
(-0.211988 -0.162287 0)
(-0.210722 -0.176386 0)
(-0.209571 -0.190206 0)
(-0.208788 -0.204001 0)
(-0.208763 -0.218234 0)
(-0.210035 -0.233635 0)
(-0.213189 -0.25117 0)
(-0.218574 -0.271752 0)
(-0.225762 -0.295544 0)
(-0.232851 -0.320803 0)
(-0.235954 -0.342594 0)
(-0.229455 -0.352121 0)
(-0.207591 -0.337854 0)
(-0.167537 -0.289927 0)
(-0.113467 -0.208939 0)
(-0.0595433 -0.115632 0)
(-0.0238459 -0.0433122 0)
(-0.00714866 -0.00267164 0)
(-0.000644298 0.0139327 0)
(0.000170387 0.0109655 0)
(-0.00172829 0.0437256 0)
(-0.0120501 0.0893513 0)
(-0.025148 0.117761 0)
(-0.0406914 0.144231 0)
(-0.0573886 0.173366 0)
(-0.0749704 0.203938 0)
(-0.0924856 0.232895 0)
(-0.10893 0.257109 0)
(-0.123284 0.274164 0)
(-0.134837 0.28282 0)
(-0.143304 0.283177 0)
(-0.148894 0.2765 0)
(-0.152215 0.264786 0)
(-0.154089 0.250192 0)
(-0.155327 0.234541 0)
(-0.156569 0.219056 0)
(-0.158217 0.204334 0)
(-0.160442 0.190482 0)
(-0.163239 0.177312 0)
(-0.166506 0.164508 0)
(-0.170095 0.151752 0)
(-0.173859 0.138784 0)
(-0.177672 0.125422 0)
(-0.181434 0.111557 0)
(-0.185069 0.0971366 0)
(-0.188518 0.0821523 0)
(-0.191734 0.0666246 0)
(-0.194675 0.050597 0)
(-0.197305 0.0341318 0)
(-0.199595 0.0173072 0)
(-0.20152 0.000214657 0)
(-0.203063 -0.0170441 0)
(-0.204215 -0.0343612 0)
(-0.204979 -0.051627 0)
(-0.205363 -0.0687352 0)
(-0.205389 -0.0855877 0)
(-0.205082 -0.102099 0)
(-0.204477 -0.118197 0)
(-0.203611 -0.133832 0)
(-0.202524 -0.14897 0)
(-0.201263 -0.163598 0)