/*--------------------------------*- C++ -*----------------------------------*\
| =========                 |                                                 |
| \\      /  F ield         | OpenFOAM: The Open Source CFD Toolbox           |
|  \\    /   O peration     | Version:  2406                                  |
|   \\  /    A nd           | Website:  www.openfoam.com                      |
|    \\/     M anipulation  |                                                 |
\*---------------------------------------------------------------------------*/
FoamFile
{
    version     2.0;
    format      ascii;
    arch        "LSB;label=32;scalar=64";
    class       volVectorField;
    location    "25.75";
    object      U;
}
// * * * * * * * * * * * * * * * * * * * * * * * * * * * * * * * * * * * * * //

dimensions      [0 1 -1 0 0 0 0];

internalField   nonuniform List<vector> 
14400
(
(-1.0106e-05 1.00522e-05 0)
(1.11369e-05 -1.2344e-05 0)
(9.82698e-05 -3.34367e-05 0)
(0.000233726 -5.03879e-05 0)
(0.000408801 -5.92141e-05 0)
(0.000600118 -6.34951e-05 0)
(0.00080028 -6.31112e-05 0)
(0.000994204 -6.02263e-05 0)
(0.00117788 -5.50884e-05 0)
(0.00134334 -4.89323e-05 0)
(0.00148943 -4.20521e-05 0)
(0.00161315 -3.51666e-05 0)
(0.00171548 -2.84936e-05 0)
(0.00179647 -2.24084e-05 0)
(0.00185828 -1.69996e-05 0)
(0.00190245 -1.23953e-05 0)
(0.00193139 -8.55303e-06 0)
(0.00194687 -5.42498e-06 0)
(0.00195077 -2.86199e-06 0)
(0.00194419 -7.01035e-07 0)
(0.00192787 1.27477e-06 0)
(0.00190172 3.28587e-06 0)
(0.00186502 5.56874e-06 0)
(0.00181628 8.34504e-06 0)
(0.00175336 1.18235e-05 0)
(0.00167344 1.61833e-05 0)
(0.00157323 2.15759e-05 0)
(0.00144894 2.81209e-05 0)
(0.00129645 3.59122e-05 0)
(0.00111139 4.50211e-05 0)
(0.000889162 5.55039e-05 0)
(0.000625054 6.74048e-05 0)
(0.000314264 8.07588e-05 0)
(-4.80361e-05 9.55896e-05 0)
(-0.000466635 0.000111906 0)
(-0.000946203 0.000129696 0)
(-0.00149119 0.000148919 0)
(-0.0021057 0.000169498 0)
(-0.00279335 0.000191315 0)
(-0.00355712 0.000214205 0)
(-0.00439918 0.000237952 0)
(-0.00532071 0.000262288 0)
(-0.00632174 0.00028689 0)
(-0.00740101 0.000311386 0)
(-0.00855578 0.000335356 0)
(-0.00978175 0.000358334 0)
(-0.0110729 0.000379818 0)
(-0.0124216 0.000399277 0)
(-0.0138182 0.000416159 0)
(-0.0152516 0.000429899 0)
(-0.0167087 0.000439931 0)
(-0.0181749 0.000445697 0)
(-0.0196341 0.000446656 0)
(-0.0210686 0.000442298 0)
(-0.0224599 0.000432149 0)
(-0.0237883 0.00041579 0)
(-0.0250333 0.00039286 0)
(-0.0261741 0.000363079 0)
(-0.0271897 0.000326255 0)
(-0.0280595 0.000282307 0)
(-0.0287633 0.000231279 0)
(-0.0292819 0.000173363 0)
(-0.0295976 0.000108914 0)
(-0.0296945 3.84748e-05 0)
(-0.0295591 -3.72117e-05 0)
(-0.0291808 -0.000117189 0)
(-0.0285522 -0.000200279 0)
(-0.02767 -0.000285089 0)
(-0.0265348 -0.000370017 0)
(-0.0251522 -0.000453286 0)
(-0.0235327 -0.000532974 0)
(-0.0216917 -0.000607074 0)
(-0.01965 -0.000673561 0)
(-0.0174335 -0.000730466 0)
(-0.0150728 -0.000775972 0)
(-0.0126027 -0.000808506 0)
(-0.0100615 -0.000826828 0)
(-0.00749026 -0.000830119 0)
(-0.00493129 -0.000818047 0)
(-0.00242726 -0.000790818 0)
(-1.97047e-05 -0.000749191 0)
(0.00225229 -0.000694462 0)
(0.00435341 -0.000628422 0)
(0.0062533 -0.000553268 0)
(0.00792755 -0.000471499 0)
(0.00935843 -0.000385783 0)
(0.0105354 -0.00029882 0)
(0.011455 -0.000213202 0)
(0.0121208 -0.000131289 0)
(0.0125431 -5.51011e-05 0)
(0.0127374 1.37508e-05 0)
(0.0127242 7.41089e-05 0)
(0.0125272 0.000125278 0)
(0.0121725 0.000166999 0)
(0.0116873 0.000199409 0)
(0.0110986 0.000222972 0)
(0.0104326 0.000238411 0)
(0.00971364 0.000246626 0)
(0.00896353 0.000248629 0)
(0.00820152 0.000245464 0)
(0.00744374 0.000238181 0)
(0.00670346 0.000227751 0)
(0.00599084 0.00021509 0)
(0.0053136 0.000200973 0)
(0.00467661 0.000186125 0)
(0.00408312 0.000171086 0)
(0.0035338 0.000156399 0)
(0.00302876 0.000142368 0)
(0.00256561 0.000129402 0)
(0.00214282 0.000117519 0)
(0.00175611 0.000107 0)
(0.00140431 9.73916e-05 0)
(0.00108288 8.87864e-05 0)
(0.000793994 7.98544e-05 0)
(0.000535406 7.04674e-05 0)
(0.000316419 5.78152e-05 0)
(0.000139986 4.22148e-05 0)
(2.31161e-05 1.97381e-05 0)
(-2.94891e-05 -2.71867e-06 0)
(-1.94705e-05 -1.9156e-05 0)
(1.18147e-05 -1.08512e-05 0)
(0.000125949 -0.000127149 0)
(0.000371694 -0.000232388 0)
(0.000709689 -0.000317493 0)
(0.00112776 -0.000368165 0)
(0.0015822 -0.000393674 0)
(0.00205554 -0.000394798 0)
(0.00251702 -0.000379306 0)
(0.00295437 -0.000350204 0)
(0.00335015 -0.000312902 0)
(0.00369872 -0.00027024 0)
(0.00399278 -0.000225727 0)
(0.00423203 -0.000181335 0)
(0.00441566 -0.000139004 0)
(0.00454659 -9.96619e-05 0)
(0.00462721 -6.3966e-05 0)
(0.00466134 -3.18826e-05 0)
(0.00465186 -3.0734e-06 0)
(0.00460152 2.3258e-05 0)
(0.00451158 4.81406e-05 0)
(0.00438221 7.28624e-05 0)
(0.00421177 9.88155e-05 0)
(0.00399704 0.000127463 0)
(0.00373296 0.000160226 0)
(0.00341284 0.000198436 0)
(0.00302846 0.000243269 0)
(0.00257029 0.00029572 0)
(0.00202769 0.000356584 0)
(0.00138925 0.000426466 0)
(0.000642961 0.000505794 0)
(-0.00022348 0.000594841 0)
(-0.00122247 0.000693733 0)
(-0.00236623 0.000802451 0)
(-0.00366658 0.000920821 0)
(-0.00513461 0.00104848 0)
(-0.0067804 0.00118485 0)
(-0.00861264 0.00132909 0)
(-0.0106382 0.00148006 0)
(-0.0128619 0.00163631 0)
(-0.0152857 0.00179605 0)
(-0.0179086 0.00195715 0)
(-0.0207263 0.00211715 0)
(-0.0237304 0.0022733 0)
(-0.026909 0.00242257 0)
(-0.0302454 0.00256173 0)
(-0.0337191 0.0026874 0)
(-0.0373051 0.00279614 0)
(-0.0409746 0.00288447 0)
(-0.0446946 0.00294903 0)
(-0.0484291 0.00298658 0)
(-0.0521389 0.00299414 0)
(-0.0557823 0.002969 0)
(-0.059316 0.00290883 0)
(-0.0626954 0.00281171 0)
(-0.0658754 0.0026762 0)
(-0.068811 0.00250136 0)
(-0.0714582 0.0022868 0)
(-0.0737743 0.00203274 0)
(-0.0757189 0.00174001 0)
(-0.0772546 0.0014101 0)
(-0.078347 0.00104519 0)
(-0.0789662 0.000648194 0)
(-0.0790867 0.000222774 0)
(-0.0786882 -0.000226637 0)
(-0.0777561 -0.000694822 0)
(-0.0762824 -0.00117578 0)
(-0.0742655 -0.00166277 0)
(-0.0717112 -0.00214834 0)
(-0.0686328 -0.00262441 0)
(-0.0650517 -0.00308243 0)
(-0.0609971 -0.0035135 0)
(-0.0565065 -0.00390863 0)
(-0.0516252 -0.00425892 0)
(-0.0464062 -0.00455591 0)
(-0.0409097 -0.00479188 0)
(-0.0352023 -0.00496015 0)
(-0.0293556 -0.00505543 0)
(-0.0234457 -0.00507414 0)
(-0.0175508 -0.00501467 0)
(-0.0117505 -0.00487757 0)
(-0.00612284 -0.00466565 0)
(-0.000743349 -0.00438404 0)
(0.00431757 -0.00404004 0)
(0.00899637 -0.0036429 0)
(0.0132381 -0.00320353 0)
(0.0169982 -0.002734 0)
(0.0202432 -0.00224708 0)
(0.0229525 -0.00175567 0)
(0.0251176 -0.00127228 0)
(0.0267431 -0.000808444 0)
(0.0278454 -0.000374303 0)
(0.028452 2.17641e-05 0)
(0.0286 0.000373397 0)
(0.0283343 0.000676365 0)
(0.0277053 0.000928564 0)
(0.0267673 0.00112988 0)
(0.0255757 0.00128198 0)
(0.0241858 0.00138797 0)
(0.0226501 0.00145215 0)
(0.0210175 0.00147952 0)
(0.0193319 0.00147558 0)
(0.0176317 0.00144591 0)
(0.0159486 0.00139604 0)
(0.0143089 0.00133109 0)
(0.0127323 0.00125584 0)
(0.0112336 0.00117439 0)
(0.00982148 0.00109047 0)
(0.00850178 0.00100684 0)
(0.00727475 0.000926079 0)
(0.00614068 0.000849273 0)
(0.00509455 0.000777589 0)
(0.00413586 0.000709649 0)
(0.0032586 0.000644801 0)
(0.00246794 0.000577874 0)
(0.0017619 0.0005066 0)
(0.00115816 0.000421043 0)
(0.000661247 0.000321519 0)
(0.000300845 0.000197335 0)
(7.6143e-05 7.37889e-05 0)
(-2.6634e-06 -2.93543e-05 0)
(3.20327e-05 -9.62081e-05 0)
(0.000228563 -0.000372108 0)
(0.000608753 -0.000613423 0)
(0.00110354 -0.000803723 0)
(0.00169996 -0.000922092 0)
(0.00233961 -0.000980547 0)
(0.00300035 -0.00098322 0)
(0.00364151 -0.000944119 0)
(0.00424574 -0.000871778 0)
(0.00478922 -0.000777384 0)
(0.00526272 -0.000668591 0)
(0.00565536 -0.00055313 0)
(0.00596495 -0.000436239 0)
(0.00618899 -0.000322317 0)
(0.00632956 -0.000213888 0)
(0.00638831 -0.000112417 0)
(0.00636854 -1.79534e-05 0)
(0.00627235 7.04124e-05 0)
(0.00610146 0.0001546 0)
(0.0058556 0.000237218 0)
(0.0055328 0.000321468 0)
(0.00512855 0.00041087 0)
(0.00463602 0.000509101 0)
(0.00404576 0.000619757 0)
(0.00334606 0.0007462 0)
(0.00252297 0.000891393 0)
(0.00156082 0.00105782 0)
(0.000442485 0.00124741 0)
(-0.000850091 0.00146156 0)
(-0.00233547 0.00170113 0)
(-0.00403225 0.00196646 0)
(-0.00595857 0.00225737 0)
(-0.00813159 0.00257319 0)
(-0.010567 0.00291266 0)
(-0.0132784 0.00327388 0)
(-0.0162767 0.00365425 0)
(-0.0195695 0.00405036 0)
(-0.0231602 0.00445797 0)
(-0.0270477 0.00487195 0)
(-0.0312257 0.00528634 0)
(-0.0356819 0.00569432 0)
(-0.0403981 0.00608842 0)
(-0.0453497 0.00646057 0)
(-0.0505059 0.00680229 0)
(-0.0558296 0.00710492 0)
(-0.0612781 0.00735984 0)
(-0.0668035 0.00755866 0)
(-0.0723535 0.00769344 0)
(-0.0778725 0.00775697 0)
(-0.0833021 0.00774287 0)
(-0.0885826 0.00764579 0)
(-0.0936538 0.00746152 0)
(-0.0984561 0.0071871 0)
(-0.102931 0.00682084 0)
(-0.107024 0.00636235 0)
(-0.110682 0.00581259 0)
(-0.113855 0.00517379 0)
(-0.116499 0.00444948 0)
(-0.118576 0.00364448 0)
(-0.120049 0.00276481 0)
(-0.12089 0.00181778 0)
(-0.121075 0.000811896 0)
(-0.120588 -0.000243113 0)
(-0.119417 -0.00133629 0)
(-0.117556 -0.00245549 0)
(-0.11501 -0.00358737 0)
(-0.111785 -0.00471753 0)
(-0.107899 -0.00583051 0)
(-0.103374 -0.00691003 0)
(-0.0982425 -0.00793911 0)
(-0.092542 -0.00890043 0)
(-0.0863191 -0.00977658 0)
(-0.0796276 -0.0105505 0)
(-0.0725288 -0.0112061 0)
(-0.0650909 -0.0117285 0)
(-0.0573887 -0.0121047 0)
(-0.0495024 -0.0123244 0)
(-0.0415171 -0.0123801 0)
(-0.0335211 -0.0122682 0)
(-0.0256047 -0.0119886 0)
(-0.0178584 -0.0115457 0)
(-0.0103711 -0.0109482 0)
(-0.00322829 -0.0102091 0)
(0.00349018 -0.00934519 0)
(0.00971179 -0.0083771 0)
(0.0153734 -0.00732817 0)
(0.0204227 -0.00622386 0)
(0.0248198 -0.00509077 0)
(0.0285382 -0.00395561 0)
(0.0315657 -0.00284422 0)
(0.0339039 -0.00178054 0)
(0.0355688 -0.000785774 0)
(0.0365896 0.000122412 0)
(0.0370074 0.000930364 0)
(0.0368734 0.00162878 0)
(0.0362473 0.00221278 0)
(0.0351943 0.00268172 0)
(0.033783 0.00303882 0)
(0.0320829 0.00329061 0)
(0.0301619 0.00344625 0)
(0.0280842 0.0035168 0)
(0.0259088 0.00351443 0)
(0.0236878 0.00345188 0)
(0.0214665 0.00334164 0)
(0.0192814 0.00319577 0)
(0.0171626 0.00302514 0)
(0.015131 0.00283971 0)
(0.013203 0.00264751 0)
(0.0113864 0.00245549 0)
(0.009688 0.00226775 0)
(0.00810664 0.00208726 0)
(0.00664589 0.00191243 0)
(0.00530134 0.00174119 0)
(0.0040822 0.00156409 0)
(0.00298672 0.00137458 0)
(0.00203901 0.00115535 0)
(0.00124148 0.000904422 0)
(0.000636244 0.000607233 0)
(0.000215659 0.00030394 0)
(2.32569e-05 2.82103e-05 0)
(4.83326e-05 -0.000228182 0)
(0.000312776 -0.000708101 0)
(0.00079934 -0.00110815 0)
(0.00140992 -0.00141259 0)
(0.0021308 -0.00160209 0)
(0.00289192 -0.0016916 0)
(0.00366978 -0.00168994 0)
(0.00441715 -0.00161712 0)
(0.00511422 -0.00148779 0)
(0.00573275 -0.00131918 0)
(0.00626108 -0.00112432 0)
(0.00668528 -0.000915534 0)
(0.00700107 -0.000701735 0)
(0.00720372 -0.000490045 0)
(0.00729351 -0.000284739 0)
(0.00727008 -8.81257e-05 0)
(0.00713476 9.97699e-05 0)
(0.00688737 0.000280654 0)
(0.00652704 0.000457918 0)
(0.00605044 0.000636189 0)
(0.00545201 0.000821096 0)
(0.00472311 0.00101884 0)
(0.00385219 0.00123584 0)
(0.00282461 0.0014784 0)
(0.001623 0.00175231 0)
(0.000227487 0.00206264 0)
(-0.00138366 0.00241352 0)
(-0.00323352 0.002808 0)
(-0.00534578 0.00324804 0)
(-0.00774407 0.00373447 0)
(-0.0104511 0.00426697 0)
(-0.013488 0.0048441 0)
(-0.0168734 0.00546319 0)
(-0.0206225 0.00612031 0)
(-0.0247461 0.0068101 0)
(-0.02925 0.00752574 0)
(-0.0341337 0.00825881 0)
(-0.0393899 0.00899934 0)
(-0.0450036 0.00973586 0)
(-0.050952 0.0104555 0)
(-0.0572036 0.0111444 0)
(-0.0637193 0.0117877 0)
(-0.0704519 0.0123704 0)
(-0.0773471 0.0128773 0)
(-0.0843448 0.0132938 0)
(-0.0913799 0.0136061 0)
(-0.0983839 0.0138019 0)
(-0.105286 0.0138703 0)
(-0.112017 0.0138025 0)
(-0.118504 0.0135919 0)
(-0.124682 0.0132339 0)
(-0.130486 0.0127263 0)
(-0.135855 0.0120691 0)
(-0.140734 0.0112643 0)
(-0.145073 0.0103159 0)
(-0.148828 0.00922966 0)
(-0.15196 0.00801313 0)
(-0.154436 0.0066752 0)
(-0.156228 0.00522625 0)
(-0.157315 0.00367794 0)
(-0.157678 0.00204319 0)
(-0.157308 0.000336198 0)
(-0.156196 -0.00142762 0)
(-0.154342 -0.00323158 0)
(-0.151749 -0.00505771 0)
(-0.148426 -0.00688678 0)
(-0.144386 -0.00869826 0)
(-0.13965 -0.0104705 0)
(-0.134241 -0.0121807 0)
(-0.128192 -0.0138054 0)
(-0.121541 -0.0153204 0)
(-0.114331 -0.0167015 0)
(-0.106613 -0.0179247 0)
(-0.0984468 -0.0189673 0)
(-0.089896 -0.0198078 0)
(-0.0810321 -0.0204274 0)
(-0.0719329 -0.0208105 0)
(-0.0626812 -0.0209453 0)
(-0.0533645 -0.0208247 0)
(-0.0440735 -0.0204471 0)
(-0.0349006 -0.0198164 0)
(-0.0259387 -0.0189428 0)
(-0.0172789 -0.0178425 0)
(-0.00900893 -0.0165375 0)
(-0.00121113 -0.0150554 0)
(0.00603933 -0.0134283 0)
(0.0126763 -0.011692 0)
(0.0186442 -0.00988509 0)
(0.0238994 -0.00804706 0)
(0.0284112 -0.00621749 0)
(0.0321631 -0.0044344 0)
(0.0351523 -0.002733 0)
(0.0373907 -0.00114448 0)
(0.0389037 0.000305041 0)
(0.0397299 0.00159526 0)
(0.0399193 0.00271221 0)
(0.0395316 0.00364841 0)
(0.0386344 0.00440271 0)
(0.0373001 0.00497988 0)
(0.0356038 0.00538975 0)
(0.0336202 0.00564638 0)
(0.0314221 0.00576689 0)
(0.0290767 0.00577045 0)
(0.0266458 0.00567703 0)
(0.0241826 0.00550676 0)
(0.0217331 0.00527865 0)
(0.0193331 0.00501048 0)
(0.0170126 0.00471744 0)
(0.0147908 0.00441264 0)
(0.0126846 0.00410492 0)
(0.0107006 0.00380054 0)
(0.00884986 0.00349907 0)
(0.00713192 0.00319789 0)
(0.00556189 0.00288448 0)
(0.00413845 0.00254827 0)
(0.00289227 0.00216583 0)
(0.00182205 0.00173116 0)
(0.000983806 0.00122523 0)
(0.000364626 0.000690586 0)
(5.13306e-05 0.00016235 0)
(5.74909e-05 -0.000400056 0)
(0.000367601 -0.0011272 0)
(0.000929416 -0.00170932 0)
(0.00162005 -0.00213711 0)
(0.00242306 -0.00239915 0)
(0.0032576 -0.00251443 0)
(0.00409914 -0.00249858 0)
(0.00489536 -0.00237779 0)
(0.00562531 -0.00217376 0)
(0.00625762 -0.00191003 0)
(0.00677907 -0.00160548 0)
(0.00717325 -0.0012773 0)
(0.007434 -0.000938324 0)
(0.00755417 -0.00059845 0)
(0.00753169 -0.000263732 0)
(0.00736348 6.28374e-05 0)
(0.00704792 0.000381495 0)
(0.00658141 0.00069512 0)
(0.00595929 0.00100903 0)
(0.00517391 0.00133042 0)
(0.00421492 0.0016679 0)
(0.00306841 0.00203092 0)
(0.00171721 0.00242919 0)
(0.000140724 0.00287207 0)
(-0.00168443 0.00336808 0)
(-0.00378402 0.00392444 0)
(-0.00618531 0.00454674 0)
(-0.00891624 0.00523872 0)
(-0.0120044 0.00600214 0)
(-0.015476 0.00683673 0)
(-0.0193545 0.00774011 0)
(-0.02366 0.00870776 0)
(-0.0284073 0.00973288 0)
(-0.0336053 0.0108063 0)
(-0.0392553 0.0119165 0)
(-0.0453505 0.0130494 0)
(-0.0518748 0.0141885 0)
(-0.0588021 0.0153151 0)
(-0.0660964 0.0164085 0)
(-0.0737116 0.0174468 0)
(-0.0815926 0.0184071 0)
(-0.0896758 0.0192665 0)
(-0.0978911 0.0200027 0)
(-0.106163 0.0205948 0)
(-0.114413 0.0210239 0)
(-0.122563 0.0212737 0)
(-0.130532 0.021331 0)
(-0.138247 0.0211861 0)
(-0.145633 0.0208324 0)
(-0.152626 0.0202669 0)
(-0.159163 0.01949 0)
(-0.165192 0.0185047 0)
(-0.170665 0.0173168 0)
(-0.17554 0.0159346 0)
(-0.179783 0.014368 0)
(-0.183364 0.0126287 0)
(-0.186261 0.0107299 0)
(-0.188453 0.00868568 0)
(-0.189927 0.00651146 0)
(-0.190669 0.00422354 0)
(-0.190674 0.00183923 0)
(-0.189936 -0.00062309 0)
(-0.188453 -0.0031439 0)
(-0.186228 -0.00570243 0)
(-0.183263 -0.00827649 0)
(-0.179567 -0.0108425 0)
(-0.17515 -0.0133752 0)
(-0.170029 -0.0158479 0)
(-0.164223 -0.0182325 0)
(-0.157757 -0.0204995 0)
(-0.15066 -0.0226186 0)
(-0.14297 -0.0245588 0)
(-0.13473 -0.0262893 0)
(-0.12599 -0.02778 0)
(-0.116807 -0.0290027 0)
(-0.107247 -0.0299316 0)
(-0.0973808 -0.0305445 0)
(-0.0872874 -0.0308241 0)
(-0.0770515 -0.0307587 0)
(-0.0667625 -0.0303432 0)
(-0.0565134 -0.0295798 0)
(-0.0463992 -0.0284784 0)
(-0.036515 -0.0270571 0)
(-0.0269541 -0.0253415 0)
(-0.0178063 -0.0233647 0)
(-0.00915551 -0.0211665 0)
(-0.00107847 -0.0187918 0)
(0.0063573 -0.0162896 0)
(0.0130947 -0.0137117 0)
(0.0190885 -0.0111106 0)
(0.0243057 -0.00853803 0)
(0.028727 -0.0060434 0)
(0.0323463 -0.00367207 0)
(0.0351718 -0.00146406 0)
(0.0372248 0.00054723 0)
(0.0385399 0.00233592 0)
(0.0391634 0.00388429 0)
(0.0391524 0.00518302 0)
(0.0385723 0.00623105 0)
(0.0374954 0.00703505 0)
(0.0359975 0.00760856 0)
(0.034156 0.0079707 0)
(0.0320468 0.00814497 0)
(0.0297424 0.00815753 0)
(0.0273091 0.00803608 0)
(0.0248071 0.00780806 0)
(0.0222865 0.00749996 0)
(0.0197915 0.00713544 0)
(0.0173543 0.00673532 0)
(0.0150045 0.00631493 0)
(0.0127584 0.00588537 0)
(0.0106369 0.00544911 0)
(0.00864576 0.00500412 0)
(0.00680766 0.00453633 0)
(0.0051231 0.00403133 0)
(0.00363084 0.00346067 0)
(0.0023276 0.00281169 0)
(0.00128581 0.00205958 0)
(0.000490901 0.00123753 0)
(7.34543e-05 0.00037145 0)
(6.34531e-05 -0.000591652 0)
(0.00040382 -0.00159165 0)
(0.00101369 -0.00236586 0)
(0.00175197 -0.00291527 0)
(0.00259825 -0.00324145 0)
(0.00346291 -0.00336991 0)
(0.00432023 -0.00332502 0)
(0.00511413 -0.00313968 0)
(0.00582301 -0.00284304 0)
(0.00641337 -0.00246477 0)
(0.0068709 -0.00202956 0)
(0.00717713 -0.00155911 0)
(0.00732404 -0.0010699 0)
(0.00730191 -0.000574256 0)
(0.00710589 -7.96397e-05 0)
(0.0067295 0.000410692 0)
(0.00616731 0.000897675 0)
(0.00541135 0.00138583 0)
(0.00445206 0.00188289 0)
(0.00327637 0.00239905 0)
(0.00186811 0.00294633 0)
(0.000207175 0.00353772 0)
(-0.00172993 0.00418637 0)
(-0.00397003 0.00490468 0)
(-0.00654242 0.00570361 0)
(-0.00947808 0.00659197 0)
(-0.0128085 0.00757593 0)
(-0.0165642 0.00865868 0)
(-0.020774 0.00984022 0)
(-0.0254624 0.0111172 0)
(-0.0306494 0.0124828 0)
(-0.0363477 0.0139267 0)
(-0.0425622 0.0154349 0)
(-0.0492879 0.01699 0)
(-0.0565095 0.0185707 0)
(-0.0641998 0.0201527 0)
(-0.0723199 0.0217086 0)
(-0.0808193 0.0232086 0)
(-0.0896365 0.0246219 0)
(-0.0987007 0.0259167 0)
(-0.107933 0.0270623 0)
(-0.117251 0.0280296 0)
(-0.126566 0.0287921 0)
(-0.135792 0.0293272 0)
(-0.144845 0.0296165 0)
(-0.153644 0.0296464 0)
(-0.162115 0.0294081 0)
(-0.170191 0.0288974 0)
(-0.177811 0.0281147 0)
(-0.184925 0.0270641 0)
(-0.191489 0.0257532 0)
(-0.197466 0.0241924 0)
(-0.202827 0.0223943 0)
(-0.207547 0.0203731 0)
(-0.211608 0.0181443 0)
(-0.214993 0.0157242 0)
(-0.217691 0.0131299 0)
(-0.219692 0.010379 0)
(-0.220989 0.0074896 0)
(-0.221575 0.00448038 0)
(-0.221445 0.00137074 0)
(-0.220595 -0.00181902 0)
(-0.219024 -0.00506748 0)
(-0.216729 -0.00835186 0)
(-0.21371 -0.0116477 0)
(-0.20997 -0.0149289 0)
(-0.205512 -0.0181671 0)
(-0.200345 -0.0213321 0)
(-0.194479 -0.0243913 0)
(-0.18793 -0.0273106 0)
(-0.180718 -0.0300538 0)
(-0.17287 -0.0325839 0)
(-0.164419 -0.0348632 0)
(-0.155405 -0.0368543 0)
(-0.145878 -0.0385212 0)
(-0.135894 -0.0398304 0)
(-0.125519 -0.0407522 0)
(-0.114826 -0.0412621 0)
(-0.103896 -0.0413422 0)
(-0.0928182 -0.040982 0)
(-0.0816856 -0.0401801 0)
(-0.0705958 -0.0389443 0)
(-0.0596483 -0.0372925 0)
(-0.0489426 -0.0352521 0)
(-0.0385757 -0.0328603 0)
(-0.0286404 -0.0301624 0)
(-0.0192229 -0.027211 0)
(-0.0104009 -0.0240643 0)
(-0.00224267 -0.0207844 0)
(0.00519468 -0.0174355 0)
(0.0118658 -0.0140815 0)
(0.0177378 -0.0107847 0)
(0.0227906 -0.00760371 0)
(0.027017 -0.0045919 0)
(0.0304228 -0.00179585 0)
(0.0330268 0.000745804 0)
(0.0348599 0.00300342 0)
(0.035965 0.00495696 0)
(0.0363954 0.00659634 0)
(0.0362137 0.00792125 0)
(0.0354895 0.00894064 0)
(0.0342975 0.00967164 0)
(0.0327145 0.0101383 0)
(0.030818 0.01037 0)
(0.0286815 0.0103994 0)
(0.0263756 0.0102608 0)
(0.023962 0.00998866 0)
(0.0214979 0.00961497 0)
(0.0190282 0.00916872 0)
(0.0165955 0.00867283 0)
(0.0142273 0.0081445 0)
(0.0119559 0.00759078 0)
(0.00979468 0.0070117 0)
(0.00777578 0.00639352 0)
(0.00590335 0.00571871 0)
(0.00422535 0.00495478 0)
(0.002739 0.00407994 0)
(0.00153307 0.0030609 0)
(0.000594428 0.00191099 0)
(9.13394e-05 0.000637833 0)
(6.62528e-05 -0.000799502 0)
(0.000422642 -0.00209096 0)
(0.00105664 -0.00306345 0)
(0.00181404 -0.00373101 0)
(0.00266987 -0.00411101 0)
(0.00352741 -0.00423759 0)
(0.00435922 -0.00414564 0)
(0.00510631 -0.00387555 0)
(0.00574651 -0.00346454 0)
(0.00624474 -0.00294842 0)
(0.00658581 -0.00235763 0)
(0.00674949 -0.00171805 0)
(0.00672586 -0.00104949 0)
(0.0065025 -0.000366184 0)
(0.00607141 0.000323497 0)
(0.00542218 0.0010166 0)
(0.00454487 0.00171535 0)
(0.0034263 0.00242649 0)
(0.00205117 0.00316071 0)
(0.000400127 0.00393172 0)
(-0.00154957 0.00475527 0)
(-0.00382472 0.00564805 0)
(-0.00645528 0.00662653 0)
(-0.009474 0.00770573 0)
(-0.0129151 0.00889823 0)
(-0.0168131 0.0102132 0)
(-0.021201 0.0116559 0)
(-0.0261087 0.0132267 0)
(-0.0315613 0.0149215 0)
(-0.0375769 0.0167308 0)
(-0.0441648 0.0186402 0)
(-0.0513242 0.0206302 0)
(-0.0590421 0.022676 0)
(-0.0672928 0.0247483 0)
(-0.0760369 0.0268133 0)
(-0.0852218 0.0288339 0)
(-0.0947822 0.0307706 0)
(-0.104642 0.0325826 0)
(-0.114715 0.0342295 0)
(-0.124912 0.0356729 0)
(-0.135138 0.0368777 0)
(-0.1453 0.0378133 0)
(-0.155308 0.0384549 0)
(-0.165077 0.0387837 0)
(-0.17453 0.0387874 0)
(-0.1836 0.0384597 0)
(-0.192228 0.0378004 0)
(-0.200365 0.036814 0)
(-0.20797 0.0355094 0)
(-0.215012 0.0338988 0)
(-0.221465 0.0319971 0)
(-0.227309 0.0298207 0)
(-0.23253 0.0273875 0)
(-0.237116 0.0247157 0)
(-0.241057 0.0218241 0)
(-0.244347 0.0187313 0)
(-0.246979 0.0154562 0)
(-0.248947 0.0120173 0)
(-0.250245 0.00843358 0)
(-0.250868 0.0047242 0)
(-0.250808 0.000908969 0)
(-0.250061 -0.00299141 0)
(-0.248619 -0.00695494 0)
(-0.246477 -0.010958 0)
(-0.243629 -0.0149749 0)
(-0.24007 -0.0189778 0)
(-0.235797 -0.022936 0)
(-0.230809 -0.0268163 0)
(-0.225107 -0.0305826 0)
(-0.218696 -0.0341959 0)
(-0.211587 -0.0376147 0)
(-0.203795 -0.0407955 0)
(-0.195341 -0.0436935 0)
(-0.186257 -0.0462632 0)
(-0.176579 -0.0484599 0)
(-0.166355 -0.0502413 0)
(-0.155642 -0.0515683 0)
(-0.144507 -0.0524075 0)
(-0.133028 -0.0527325 0)
(-0.12129 -0.0525257 0)
(-0.109387 -0.0517796 0)
(-0.0974213 -0.0504981 0)
(-0.0854965 -0.048697 0)
(-0.0737204 -0.0464043 0)
(-0.0621996 -0.0436599 0)
(-0.0510375 -0.0405142 0)
(-0.0403318 -0.0370272 0)
(-0.030172 -0.0332663 0)
(-0.0206379 -0.0293041 0)
(-0.0117977 -0.0252162 0)
(-0.00370756 -0.0210789 0)
(0.00358895 -0.0169671 0)
(0.0100611 -0.0129521 0)
(0.0156908 -0.00909989 0)
(0.0204725 -0.00546969 0)
(0.0244124 -0.00211248 0)
(0.027529 0.000930128 0)
(0.0298519 0.00362675 0)
(0.0314218 0.0059569 0)
(0.0322896 0.0079112 0)
(0.0325148 0.00949129 0)
(0.0321648 0.0107091 0)
(0.0313117 0.0115859 0)
(0.0300316 0.0121508 0)
(0.0284002 0.0124386 0)
(0.0264931 0.012488 0)
(0.0243797 0.0123395 0)
(0.0221267 0.0120325 0)
(0.0197901 0.0116037 0)
(0.0174239 0.0110839 0)
(0.0150669 0.0104971 0)
(0.0127627 0.00985601 0)
(0.0105339 0.00916396 0)
(0.00842261 0.00840899 0)
(0.00643885 0.007571 0)
(0.00464068 0.00661414 0)
(0.00302865 0.00550563 0)
(0.00170688 0.00420171 0)
(0.000665852 0.00268921 0)
(0.00010295 0.000951192 0)
(6.77852e-05 -0.00101217 0)
(0.000430332 -0.00260037 0)
(0.00106853 -0.00376756 0)
(0.00181948 -0.0045422 0)
(0.00265333 -0.00495942 0)
(0.00346842 -0.00506409 0)
(0.00423542 -0.00490316 0)
(0.00489339 -0.00452531 0)
(0.00541958 -0.0039762 0)
(0.00577785 -0.00329765 0)
(0.00595209 -0.00252555 0)
(0.00592043 -0.00168937 0)
(0.00567085 -0.000811616 0)
(0.00518799 9.2274e-05 0)
(0.00446022 0.00101376 0)
(0.00347266 0.00195095 0)
(0.00221018 0.00290804 0)
(0.00065367 0.00389467 0)
(-0.00121864 0.00492498 0)
(-0.00343293 0.0060165 0)
(-0.00601886 0.00718881 0)
(-0.00900985 0.00846202 0)
(-0.0124417 0.00985522 0)
(-0.0163519 0.0113849 0)
(-0.0207775 0.0130637 0)
(-0.0257533 0.014899 0)
(-0.0313102 0.0168923 0)
(-0.0374722 0.0190384 0)
(-0.0442551 0.0213254 0)
(-0.0516634 0.023734 0)
(-0.0596893 0.0262385 0)
(-0.0683107 0.0288061 0)
(-0.0774905 0.0313981 0)
(-0.0871766 0.0339709 0)
(-0.0973023 0.0364767 0)
(-0.107788 0.0388655 0)
(-0.118544 0.041087 0)
(-0.129473 0.0430924 0)
(-0.140475 0.0448365 0)
(-0.151449 0.0462796 0)
(-0.1623 0.0473886 0)
(-0.172938 0.0481381 0)
(-0.183282 0.0485106 0)
(-0.193262 0.0484968 0)
(-0.202819 0.0480942 0)
(-0.211905 0.0473069 0)
(-0.220481 0.0461446 0)
(-0.228517 0.0446207 0)
(-0.235992 0.042752 0)
(-0.242889 0.0405571 0)
(-0.249197 0.0380562 0)
(-0.254907 0.0352696 0)
(-0.260013 0.0322179 0)
(-0.26451 0.0289213 0)
(-0.268395 0.0253995 0)
(-0.271663 0.0216717 0)
(-0.274311 0.0177567 0)
(-0.276333 0.0136728 0)
(-0.277725 0.00943831 0)
(-0.278479 0.00507187 0)
(-0.27859 0.000592624 0)
(-0.278048 -0.00397927 0)
(-0.276844 -0.00862222 0)
(-0.27497 -0.0133127 0)
(-0.272414 -0.018025 0)
(-0.269167 -0.0227305 0)
(-0.265219 -0.0273974 0)
(-0.26056 -0.0319908 0)
(-0.255184 -0.0364716 0)
(-0.249085 -0.0407976 0)
(-0.242262 -0.0449227 0)
(-0.234718 -0.0487976 0)
(-0.226461 -0.0523708 0)
(-0.217508 -0.0555888 0)
(-0.207883 -0.0583979 0)
(-0.197621 -0.0607457 0)
(-0.186766 -0.0625827 0)
(-0.175375 -0.0638644 0)
(-0.163517 -0.0645536 0)
(-0.151274 -0.0646225 0)
(-0.138737 -0.0640546 0)
(-0.126008 -0.0628466 0)
(-0.113199 -0.0610093 0)
(-0.100424 -0.0585686 0)
(-0.0878029 -0.055565 0)
(-0.0754522 -0.0520527 0)
(-0.0634849 -0.0480982 0)
(-0.0520064 -0.0437777 0)
(-0.0411116 -0.0391749 0)
(-0.0308833 -0.0343777 0)
(-0.0213905 -0.0294755 0)
(-0.0126877 -0.0245564 0)
(-0.00481554 -0.0197047 0)
(0.0021994 -0.0149992 0)
(0.0083433 -0.0105114 0)
(0.0136146 -0.00630385 0)
(0.0180229 -0.00242958 0)
(0.0215888 0.00106914 0)
(0.0243429 0.00416139 0)
(0.0263261 0.00682806 0)
(0.0275878 0.00906204 0)
(0.0281864 0.010868 0)
(0.0281866 0.0122616 0)
(0.0276596 0.0132686 0)
(0.0266785 0.0139229 0)
(0.0253195 0.0142644 0)
(0.0236552 0.0143372 0)
(0.0217586 0.0141857 0)
(0.0196929 0.0138532 0)
(0.0175221 0.0133776 0)
(0.0152944 0.0127893 0)
(0.0130643 0.0121076 0)
(0.0108637 0.0113396 0)
(0.00874507 0.0104763 0)
(0.00672581 0.00949546 0)
(0.00487411 0.00835842 0)
(0.00319617 0.00702036 0)
(0.00180887 0.00542551 0)
(0.00070793 0.00353058 0)
(0.000109676 0.00129144 0)
(6.78851e-05 -0.00122824 0)
(0.000427527 -0.00311137 0)
(0.00105218 -0.00446378 0)
(0.0017732 -0.00533001 0)
(0.00255589 -0.00576433 0)
(0.00329554 -0.00582394 0)
(0.00396085 -0.00556901 0)
(0.00448992 -0.00505721 0)
(0.00485926 -0.00434293 0)
(0.00503206 -0.00347389 0)
(0.0049911 -0.00249102 0)
(0.00471287 -0.00142683 0)
(0.00418291 -0.000305783 0)
(0.00338265 0.000856265 0)
(0.00229632 0.00205142 0)
(0.000904063 0.00327966 0)
(-0.000815048 0.00454789 0)
(-0.00288654 0.00586926 0)
(-0.00533904 0.00726176 0)
(-0.0082057 0.00874686 0)
(-0.0115228 0.0103476 0)
(-0.0153294 0.0120868 0)
(-0.0196658 0.0139847 0)
(-0.0245713 0.0160575 0)
(-0.0300825 0.0183152 0)
(-0.0362304 0.0207603 0)
(-0.0430378 0.023387 0)
(-0.050517 0.0261805 0)
(-0.0586672 0.029117 0)
(-0.0674728 0.0321637 0)
(-0.076902 0.0352792 0)
(-0.0869059 0.0384152 0)
(-0.0974195 0.0415169 0)
(-0.108363 0.0445259 0)
(-0.119642 0.0473817 0)
(-0.131158 0.0500245 0)
(-0.142802 0.0523979 0)
(-0.154468 0.0544511 0)
(-0.166053 0.0561409 0)
(-0.17746 0.0574331 0)
(-0.188603 0.058303 0)
(-0.199408 0.0587356 0)
(-0.209812 0.0587251 0)
(-0.219766 0.0582736 0)
(-0.229229 0.0573899 0)
(-0.238174 0.056088 0)
(-0.246578 0.0543858 0)
(-0.254428 0.0523041 0)
(-0.261713 0.0498648 0)
(-0.268427 0.0470907 0)
(-0.274567 0.0440047 0)
(-0.280131 0.0406289 0)
(-0.285118 0.036985 0)
(-0.289527 0.0330935 0)
(-0.293358 0.0289741 0)
(-0.296608 0.0246456 0)
(-0.299277 0.0201261 0)
(-0.301362 0.0154329 0)
(-0.302858 0.0105836 0)
(-0.303761 0.00559556 0)
(-0.304065 0.000486758 0)
(-0.303761 -0.0047238 0)
(-0.30284 -0.0100156 0)
(-0.301292 -0.0153663 0)
(-0.299102 -0.0207509 0)
(-0.296258 -0.0261412 0)
(-0.292744 -0.0315058 0)
(-0.288544 -0.0368089 0)
(-0.283642 -0.0420106 0)
(-0.278023 -0.0470662 0)
(-0.271672 -0.0519265 0)
(-0.26458 -0.0565377 0)
(-0.25674 -0.0608423 0)
(-0.24815 -0.0647793 0)
(-0.238819 -0.0682862 0)
(-0.228763 -0.0712997 0)
(-0.21801 -0.0737587 0)
(-0.206601 -0.0756058 0)
(-0.194591 -0.0767903 0)
(-0.18205 -0.0772709 0)
(-0.169064 -0.0770185 0)
(-0.155733 -0.0760182 0)
(-0.142168 -0.0742721 0)
(-0.128494 -0.0717998 0)
(-0.114841 -0.0686391 0)
(-0.101343 -0.0648455 0)
(-0.0881303 -0.0604905 0)
(-0.075331 -0.0556592 0)
(-0.0630613 -0.050447 0)
(-0.0514246 -0.0449556 0)
(-0.0405087 -0.0392897 0)
(-0.0303839 -0.0335533 0)
(-0.0211036 -0.027846 0)
(-0.012704 -0.0222611 0)
(-0.00520628 -0.0168834 0)
(0.00138258 -0.0117875 0)
(0.00706754 -0.00703754 0)
(0.0118645 -0.00268596 0)
(0.0157987 0.00122672 0)
(0.0189049 0.00467225 0)
(0.0212257 0.00763495 0)
(0.022812 0.0101116 0)
(0.0237216 0.0121114 0)
(0.0240192 0.0136546 0)
(0.0237735 0.0147718 0)
(0.023058 0.0155018 0)
(0.0219454 0.0158892 0)
(0.0205106 0.0159816 0)
(0.0188218 0.0158265 0)
(0.0169492 0.0154676 0)
(0.0149491 0.0149411 0)
(0.012885 0.0142723 0)
(0.0107976 0.0134722 0)
(0.00874922 0.0125351 0)
(0.00676561 0.0114373 0)
(0.00492452 0.0101374 0)
(0.00323947 0.00857858 0)
(0.00183708 0.00669264 0)
(0.000719077 0.0044058 0)
(0.000110942 0.00164623 0)
(6.71717e-05 -0.00144086 0)
(0.000416263 -0.00360702 0)
(0.00101089 -0.0051269 0)
(0.00167946 -0.00606229 0)
(0.00238241 -0.00648801 0)
(0.00301401 -0.00647498 0)
(0.00354121 -0.00609751 0)
(0.00390211 -0.00542276 0)
(0.00407246 -0.00451386 0)
(0.0040151 -0.00342408 0)
(0.00371143 -0.00219885 0)
(0.00313618 -0.000872917 0)
(0.00227201 0.000528124 0)
(0.00109674 0.00198896 0)
(-0.000410088 0.00350322 0)
(-0.00227377 0.00507362 0)
(-0.00452148 0.00671048 0)
(-0.00718541 0.00843088 0)
(-0.010301 0.0102568 0)
(-0.013908 0.0122132 0)
(-0.0180479 0.0143259 0)
(-0.022764 0.0166185 0)
(-0.0280976 0.0191104 0)
(-0.0340868 0.0218143 0)
(-0.0407624 0.0247341 0)
(-0.0481458 0.0278634 0)
(-0.0562456 0.0311849 0)
(-0.0650553 0.0346695 0)
(-0.0745513 0.0382775 0)
(-0.0846917 0.0419587 0)
(-0.0954163 0.0456543 0)
(-0.106647 0.0492988 0)
(-0.118293 0.0528225 0)
(-0.130247 0.0561547 0)
(-0.1424 0.059227 0)
(-0.154638 0.0619758 0)
(-0.166848 0.0643457 0)
(-0.178927 0.0662913 0)
(-0.190781 0.067778 0)
(-0.202326 0.068783 0)
(-0.213496 0.0692943 0)
(-0.224235 0.06931 0)
(-0.234501 0.0688365 0)
(-0.24426 0.067887 0)
(-0.253492 0.0664798 0)
(-0.262181 0.0646367 0)
(-0.270317 0.0623817 0)
(-0.277895 0.0597401 0)
(-0.284913 0.0567371 0)
(-0.291371 0.0533978 0)