/*--------------------------------*- C++ -*----------------------------------*\
| =========                 |                                                 |
| \\      /  F ield         | OpenFOAM: The Open Source CFD Toolbox           |
|  \\    /   O peration     | Version:  2406                                  |
|   \\  /    A nd           | Website:  www.openfoam.com                      |
|    \\/     M anipulation  |                                                 |
\*---------------------------------------------------------------------------*/
FoamFile
{
    version     2.0;
    format      ascii;
    arch        "LSB;label=32;scalar=64";
    class       volScalarField;
    location    "10.9";
    object      p;
}
// * * * * * * * * * * * * * * * * * * * * * * * * * * * * * * * * * * * * * //

dimensions      [0 2 -2 0 0 0 0];

internalField   nonuniform List<scalar> 
3600
(
0.0150482
0.0150422
0.0150368
0.0150265
0.015021
0.0150122
0.0150085
0.0150017
0.0149992
0.0149943
0.0149931
0.0149904
0.0149915
0.0149923
0.014997
0.0150027
0.0150128
0.0150251
0.0150423
0.0150627
0.0150882
0.0151177
0.0151526
0.0151916
0.0152358
0.015284
0.0153366
0.0153925
0.0154515
0.0155123
0.0155744
0.0156365
0.0156978
0.0157568
0.0158127
0.0158644
0.0159108
0.0159513
0.0159852
0.0160124
0.0160324
0.0160458
0.0160523
0.0160533
0.0160486
0.0160399
0.016027
0.0160121
0.0159946
0.015977
0.0159581
0.0159411
0.0159237
0.0159098
0.0158963
0.0158877
0.0158798
0.015878
0.0158763
0.0158794
0.0150539
0.0150476
0.0150446
0.0150361
0.0150327
0.0150249
0.015022
0.0150155
0.0150133
0.0150082
0.0150071
0.0150042
0.0150052
0.0150058
0.0150103
0.0150157
0.0150254
0.0150371
0.0150536
0.015073
0.0150976
0.0151258
0.0151592
0.0151967
0.0152392
0.0152855
0.0153361
0.0153898
0.0154467
0.0155054
0.0155655
0.0156256
0.0156851
0.0157425
0.015797
0.0158475
0.0158931
0.0159331
0.0159668
0.0159941
0.0160145
0.0160286
0.0160362
0.0160383
0.0160349
0.0160278
0.0160164
0.0160032
0.0159874
0.0159716
0.0159545
0.0159391
0.0159234
0.015911
0.0158987
0.0158912
0.0158836
0.0158818
0.0158792
0.0158824
0.0150602
0.0150505
0.0150478
0.0150382
0.0150355
0.0150273
0.0150249
0.015018
0.0150158
0.0150103
0.0150089
0.0150055
0.0150061
0.0150059
0.0150099
0.0150145
0.0150236
0.0150345
0.0150503
0.0150691
0.015093
0.0151206
0.0151536
0.0151906
0.0152328
0.015279
0.0153296
0.0153835
0.0154407
0.0155
0.0155607
0.0156217
0.015682
0.0157404
0.0157959
0.0158474
0.0158938
0.0159345
0.0159687
0.0159964
0.0160169
0.016031
0.0160383
0.0160401
0.0160362
0.0160284
0.0160165
0.0160028
0.0159864
0.0159702
0.0159526
0.015937
0.015921
0.0159085
0.0158961
0.0158886
0.0158809
0.0158793
0.0158767
0.015881
0.0150705
0.0150573
0.0150557
0.0150455
0.0150444
0.0150362
0.0150347
0.0150276
0.0150256
0.0150195
0.0150177
0.0150135
0.0150133
0.0150121
0.0150151
0.0150185
0.0150263
0.0150359
0.0150504
0.0150676
0.0150901
0.0151162
0.0151477
0.0151833
0.0152241
0.0152691
0.0153187
0.0153718
0.0154284
0.0154873
0.0155479
0.015609
0.0156697
0.0157286
0.0157848
0.015837
0.0158843
0.0159258
0.0159608
0.0159891
0.0160102
0.0160247
0.0160322
0.0160343
0.0160305
0.0160228
0.016011
0.0159974
0.0159811
0.0159651
0.0159478
0.0159327
0.015917
0.0159051
0.015893
0.0158859
0.0158783
0.015877
0.0158742
0.0158791
0.0150758
0.0150584
0.015057
0.0150451
0.0150445
0.0150354
0.0150341
0.0150262
0.015024
0.0150169
0.0150145
0.015009
0.0150077
0.0150051
0.0150068
0.0150087
0.0150151
0.0150231
0.0150361
0.015052
0.0150733
0.0150984
0.0151291
0.0151641
0.0152048
0.0152498
0.0152999
0.0153538
0.0154117
0.0154722
0.0155348
0.0155982
0.0156614
0.015723
0.0157818
0.0158366
0.0158861
0.0159297
0.0159663
0.0159957
0.0160174
0.016032
0.0160392
0.0160404
0.0160354
0.0160265
0.0160131
0.015998
0.0159802
0.0159628
0.0159442
0.015928
0.0159113
0.0158987
0.0158858
0.0158785
0.0158705
0.0158693
0.0158664
0.0158718
0.0150811
0.0150602
0.0150595
0.0150463
0.0150467
0.015037
0.0150362
0.0150275
0.0150251
0.0150169
0.0150136
0.0150066
0.015004
0.0149996
0.0149995
0.0149994
0.0150039
0.0150099
0.0150209
0.0150348
0.0150542
0.0150774
0.0151066
0.0151403
0.0151799
0.0152242
0.0152741
0.0153282
0.0153867
0.0154483
0.0155125
0.0155779
0.0156435
0.0157078
0.0157694
0.0158271
0.0158794
0.0159254
0.0159641
0.0159952
0.016018
0.0160332
0.0160404
0.0160412
0.0160356
0.0160256
0.0160111
0.0159948
0.0159758
0.0159575
0.0159378
0.0159209
0.0159036
0.0158906
0.0158773
0.0158698
0.0158614
0.0158603
0.0158571
0.0158628
0.0150777
0.0150534
0.0150529
0.0150379
0.0150387
0.0150278
0.015027
0.0150171
0.015014
0.0150043
0.0149998
0.0149911
0.0149868
0.0149804
0.0149784
0.0149761
0.0149785
0.0149823
0.0149914
0.0150033
0.0150211
0.0150429
0.0150709
0.0151039
0.0151432
0.0151878
0.0152384
0.0152939
0.0153544
0.0154186
0.015486
0.0155551
0.0156248
0.0156936
0.0157597
0.0158219
0.0158784
0.0159282
0.0159699
0.0160033
0.0160275
0.0160433
0.0160503
0.0160502
0.0160429
0.016031
0.0160141
0.0159955
0.015974
0.0159534
0.0159316
0.0159129
0.0158938
0.0158796
0.0158651
0.0158569
0.0158477
0.0158465
0.0158431
0.015849
0.0150714
0.0150442
0.0150443
0.015028
0.0150294
0.0150175
0.0150168
0.0150056
0.0150018
0.0149905
0.0149848
0.014974
0.0149679
0.0149592
0.014955
0.0149501
0.0149501
0.0149513
0.0149579
0.0149674
0.0149829
0.0150026
0.0150289
0.0150605
0.0150988
0.0151429
0.0151936
0.0152498
0.0153118
0.0153782
0.0154486
0.0155214
0.0155955
0.015669
0.0157403
0.0158076
0.015869
0.0159234
0.015969
0.0160055
0.0160319
0.0160488
0.016056
0.0160552
0.0160465
0.0160328
0.0160136
0.0159927
0.0159689
0.0159462
0.0159224
0.0159021
0.0158814
0.0158661
0.0158504
0.0158416
0.0158317
0.0158303
0.0158266
0.0158329
0.0150535
0.0150236
0.0150239
0.0150061
0.0150078
0.0149946
0.0149935
0.0149808
0.0149761
0.0149629
0.0149556
0.0149427
0.0149347
0.0149234
0.0149169
0.0149094
0.0149069
0.0149055
0.0149097
0.0149169
0.0149303
0.0149481
0.0149729
0.0150033
0.015041
0.015085
0.0151363
0.0151939
0.0152581
0.0153276
0.015402
0.0154797
0.0155594
0.0156392
0.0157172
0.0157913
0.0158595
0.01592
0.015971
0.0160118
0.0160411
0.0160597
0.0160671
0.0160655
0.0160548
0.0160384
0.016016
0.0159918
0.0159646
0.0159388
0.015912
0.0158892
0.0158663
0.0158492
0.0158319
0.015822
0.0158111
0.0158094
0.0158053
0.0158122
0.0150304
0.0149983
0.014999
0.0149801
0.014982
0.0149677
0.0149663
0.0149521
0.0149464
0.0149314
0.0149225
0.0149073
0.0148971
0.0148833
0.0148742
0.0148638
0.0148585
0.0148542
0.0148556
0.0148598
0.0148705
0.0148858
0.0149083
0.0149365
0.0149726
0.0150154
0.0150662
0.015124
0.0151893
0.0152609
0.0153386
0.0154206
0.0155058
0.015592
0.0156772
0.0157592
0.0158354
0.0159039
0.0159622
0.0160092
0.0160434
0.0160653
0.0160742
0.0160724
0.0160601
0.0160411
0.0160154
0.0159877
0.0159568
0.0159278
0.0158979
0.0158727
0.0158475
0.0158287
0.0158097
0.0157989
0.0157869
0.015785
0.0157804
0.015788
0.0149932
0.0149591
0.01496
0.0149397
0.0149417
0.0149261
0.0149241
0.0149084
0.0149015
0.0148846
0.0148739
0.0148564
0.0148439
0.0148274
0.0148157
0.0148025
0.0147944
0.0147871
0.0147856
0.0147869
0.0147948
0.0148073
0.0148271
0.0148529
0.0148867
0.0149275
0.0149768
0.0150338
0.015099
0.0151715
0.0152512
0.0153364
0.0154263
0.0155187
0.0156117
0.0157029
0.0157895
0.015869
0.0159384
0.0159959
0.016039
0.0160677
0.0160808
0.0160808
0.0160678
0.0160464
0.0160167
0.0159845
0.0159489
0.0159155
0.0158816
0.0158531
0.0158249
0.0158041
0.015783
0.0157709
0.0157575
0.0157553
0.0157501
0.0157587
0.0149493
0.0149134
0.0149146
0.0148933
0.0148954
0.0148787
0.0148762
0.0148589
0.0148509
0.0148319
0.0148195
0.0147995
0.0147847
0.0147654
0.0147509
0.0147345
0.0147233
0.0147125
0.0147076
0.0147052
0.0147093
0.0147176
0.0147331
0.0147542
0.0147831
0.0148188
0.0148629
0.0149144
0.0149744
0.015042
0.0151174
0.0151997
0.0152885
0.0153825
0.0154803
0.01558
0.0156787
0.0157737
0.0158608
0.0159372
0.0159986
0.0160435
0.0160695
0.0160781
0.0160694
0.0160484
0.0160161
0.0159796
0.0159387
0.0159003
0.0158617
0.0158295
0.015798
0.0157748
0.0157515
0.0157381
0.0157232
0.0157207
0.0157149
0.0157244
0.0148889
0.0148513
0.0148527
0.0148303
0.0148323
0.0148143
0.0148111
0.0147922
0.0147829
0.0147619
0.0147476
0.0147252
0.014708
0.0146858
0.0146684
0.0146488
0.0146343
0.0146198
0.014611
0.0146043
0.0146036
0.0146064
0.0146155
0.014629
0.014649
0.0146742
0.0147059
0.0147431
0.0147868
0.0148366
0.0148934
0.0149577
0.0150308
0.0151135
0.0152064
0.0153092
0.0154203
0.0155367
0.0156535
0.0157655
0.0158654
0.0159482
0.016008
0.0160438
0.0160539
0.0160434
0.0160144
0.015976
0.01593
0.0158855
0.0158407
0.0158032
0.0157673
0.0157408
0.0157148
0.0156996
0.0156829
0.0156798
0.0156731
0.0156836
0.0148208
0.0147819
0.0147835
0.0147602
0.0147621
0.014743
0.0147391
0.0147187
0.0147079
0.0146849
0.0146685
0.0146436
0.0146237
0.0145984
0.0145778
0.0145545
0.014536
0.0145171
0.0145032
0.0144904
0.0144825
0.0144762
0.0144738
0.0144729
0.0144746
0.0144766
0.0144793
0.014481
0.0144825
0.0144842
0.014489
0.0145004
0.0145236
0.0145641
0.0146272
0.0147168
0.014834
0.0149773
0.015141
0.0153168
0.0154926
0.0156567
0.015796
0.0159026
0.0159695
0.0159994
0.0159942
0.015966
0.0159204
0.0158711
0.0158192
0.0157751
0.0157333
0.0157025
0.0156728
0.0156552
0.0156363
0.0156323
0.0156245
0.015636
0.0147339
0.0146937
0.0146953
0.014671
0.0146726
0.0146523
0.0146475
0.0146254
0.0146131
0.014588
0.0145695
0.0145418
0.0145191
0.0144905
0.0144663
0.0144389
0.0144158
0.0143915
0.014371
0.0143498
0.0143309
0.01431
0.0142881
0.0142607
0.0142267
0.0141815
0.0141231
0.0140484
0.0139584
0.0138554
0.0137464
0.0136413
0.0135531
0.0134959
0.0134832
0.0135265
0.0136326
0.0138032
0.0140329
0.0143109
0.0146183
0.0149343
0.0152333
0.0154944
0.0156976
0.0158365
0.0159084
0.0159265
0.015902
0.015857
0.0158002
0.0157481
0.0156982
0.0156608
0.0156259
0.0156045
0.0155826
0.0155769
0.0155677
0.0155799
0.0146392
0.0145979
0.0145996
0.0145745
0.0145758
0.0145543
0.0145484
0.0145246
0.0145106
0.0144831
0.0144621
0.0144313
0.0144054
0.0143728
0.0143444
0.0143119
0.0142829
0.0142511
0.014221
0.0141868
0.0141498
0.0141034
0.0140456
0.0139678
0.0138644
0.013726
0.0135471
0.0133232
0.0130569
0.0127558
0.012436
0.0121187
0.0118296
0.0115957
0.0114421
0.0113901
0.011454
0.0116409
0.0119474
0.012362
0.0128609
0.013414
0.0139808
0.0145213
0.0149936
0.0153696
0.0156302
0.015781
0.0158358
0.0158276
0.01578
0.0157232
0.0156639
0.0156172
0.0155747
0.0155477
0.0155213
0.0155129
0.0155017
0.0155142
0.0145231
0.0144807
0.0144823
0.0144562
0.0144569
0.014434
0.0144269
0.0144011
0.0143851
0.0143549
0.0143311
0.0142969
0.0142672
0.0142302
0.0141966
0.0141578
0.014121
0.014079
0.0140347
0.0139801
0.0139134
0.0138235
0.0137022
0.0135336
0.0133041
0.0129979
0.012606
0.0121252
0.0115652
0.010946
0.0102996
0.00966464
0.00908342
0.00859708
0.00824183
0.0080475
0.00803425
0.00821429
0.00858768
0.00914593
0.00986559
0.0107137
0.0116405
0.0125889
0.0134906
0.0142842
0.0149153
0.0153612
0.0156214
0.0157337
0.0157404
0.0156968
0.015632
0.0155738
0.0155205
0.0154845
0.0154518
0.0154389
0.0154248
0.015437
0.0143998
0.0143567
0.0143582
0.0143313
0.0143312
0.0143068
0.0142981
0.0142701
0.0142516
0.0142183
0.014191
0.0141526
0.0141181
0.0140754
0.0140351
0.013988
0.0139404
0.0138831
0.0138168
0.0137293
0.0136129
0.0134482
0.0132167
0.012891
0.0124478
0.0118654
0.0111365
0.010268
0.00928723
0.00823701
0.00717244
0.00615253
0.00523422
0.00446776
0.00389325
0.00354188
0.00343357
0.00358179
0.00398903
0.00465286
0.005557
0.00667745
0.00796943
0.00937499
0.010811
0.0121856
0.0133974
0.014368
0.0150485
0.0154501
0.0156212
0.0156472
0.0155972
0.0155305
0.015464
0.0154151
0.0153731
0.0153531
0.015335
0.015346
0.0142524
0.0142084
0.0142096
0.0141815
0.0141803
0.0141541
0.0141434
0.0141127
0.0140913
0.0140544
0.0140229
0.0139795
0.0139391
0.0138895
0.0138406
0.0137823
0.0137193
0.0136397
0.0135394
0.0133996
0.0132024
0.0129154
0.012505
0.0119304
0.0111603
0.0101753
0.00898271
0.00761507
0.00613123
0.00460484
0.00311469
0.00173398
0.000523666
-0.000468802
-0.0012112
-0.00168063
-0.00186549
-0.00175651
-0.00135269
-0.000651013
0.00034183
0.00161943
0.00315707
0.00491928
0.00683692
0.00881626
0.0107263
0.0124275
0.0137888
0.0147398
0.0152844
0.0155115
0.015539
0.0154827
0.0154047
0.0153387
0.0152839
0.0152534
0.0152296
0.0152379
0.0140995
0.0140552
0.0140559
0.0140269
0.0140243
0.013996
0.0139828
0.0139489
0.0139236
0.0138821
0.0138452
0.0137954
0.0137475
0.0136886
0.0136282
0.0135545
0.0134693
0.0133562
0.0132038
0.012982
0.0126576
0.0121802
0.0114988
0.0105627
0.00934363
0.00784244
0.00610103
0.00419424
0.00221946
0.000277378
-0.00154184
-0.00316679
-0.00454819
-0.00565383
-0.00646819
-0.00698204
-0.00719599
-0.00710796
-0.00672243
-0.00603521
-0.00504859
-0.00375407
-0.00215476
-0.000251425
0.00192607
0.0043236
0.00683035
0.00928845
0.0114969
0.0132668
0.0144799
0.0151482
0.0153983
0.0154122
0.0153378
0.0152535
0.0151822
0.0151366
0.0151049
0.0151084
0.0139194
0.0138746
0.0138745
0.0138441
0.0138396
0.0138087
0.0137923
0.0137546
0.0137247
0.0136777
0.0136343
0.0135768
0.0135196
0.0134491
0.0133735
0.0132786
0.0131619
0.0129998
0.0127697
0.012425
0.0119124
0.0111607
0.010106
0.00870069
0.00694047
0.00486988
0.00258292
0.00020093
-0.00215031
-0.00436238
-0.00635537
-0.00807718
-0.00950135
-0.0106151
-0.0114193
-0.0119154
-0.012113
-0.012015
-0.0116328
-0.0109648
-0.0100175
-0.00877886
-0.00724431
-0.00539015
-0.00320897
-0.000696308
0.00210221
0.00508252
0.0080508
0.0107419
0.0128868
0.014313
0.0150451
0.0152718
0.0152499
0.015155
0.015065
0.0149985
0.0149563
0.0149518
0.0137368
0.0136922
0.0136915
0.0136598
0.0136529
0.0136191
0.0135987
0.0135562
0.0135203
0.0134664
0.0134146
0.0133472
0.0132778
0.0131921
0.013096
0.012972
0.012811
0.0125789
0.0122368
0.0117168
0.0109421
0.00982526
0.00830282
0.00635261
0.00401989
0.00141034
-0.00132891
-0.00404635
-0.00661388
-0.0089412
-0.010977
-0.0126966
-0.0140959
-0.0151755
-0.015944
-0.0164044
-0.0165687
-0.0164394
-0.0160329
-0.0153515
-0.0144124
-0.0132099
-0.0117491
-0.010003
-0.00795187
-0.00555048
-0.0027791
0.000351719
0.00374026
0.00716001
0.0102747
0.0127107
0.0142548
0.0149557
0.0151078
0.0150323
0.0149278
0.0148339
0.0147777
0.0147605
0.0135239
0.0134793
0.0134772
0.0134437
0.0134338
0.0133963
0.0133711
0.0133229
0.0132802
0.0132181
0.0131565
0.0130772
0.012993
0.0128883
0.0127658
0.0126031
0.0123818
0.0120535
0.0115582
0.0108039
0.00969288
0.00813351
0.00608436
0.00357439
0.000715544
-0.00232602
-0.00537067
-0.00826721
-0.010914
-0.0132564
-0.015277
-0.0169735
-0.0183544
-0.0194211
-0.0201798
-0.0206255
-0.0207661
-0.0205993
-0.0201445
-0.0194068
-0.0184164
-0.0171786
-0.0157184
-0.0140214
-0.0120816
-0.00984503
-0.00726195
-0.00426746
-0.000848363
0.00289818
0.00671636
0.0101564
0.0127648
0.0142719
0.0148423
0.0148644
0.0147618
0.0146367
0.0145613
0.0145256
0.0133136
0.0132698
0.0132664
0.0132314
0.0132179
0.0131763
0.0131451
0.0130902
0.0130387
0.0129666
0.0128924
0.0127983
0.0126952
0.0125661
0.0124095
0.012196
0.011895
0.0114399
0.0107461
0.00969791
0.0081864
0.00613478
0.00354788
0.000523801
-0.00275878
-0.00609431
-0.00930353
-0.0122656
-0.0149227
-0.0172583
-0.0192813
-0.020999
-0.0224193
-0.0235325
-0.0243338
-0.0248038
-0.0249434
-0.0247422
-0.0242223
-0.0233905
-0.0222906
-0.0209386
-0.0193834
-0.0176291
-0.0156975
-0.0135492
-0.0111421
-0.0083806
-0.00517465
-0.00148379
0.00260786
0.00674936
0.0104137
0.0129883
0.0143092
0.014614
0.0145482
0.0143985
0.0142978
0.0142355
0.0130693
0.013026
0.0130208
0.0129835
0.0129657
0.0129191
0.0128811
0.0128184
0.0127572
0.0126737
0.0125854
0.0124742
0.0123491
0.0121907
0.0119921
0.0117152
0.011314
0.0107007
0.00976558
0.00837552
0.00642496
0.00387355
0.000790354
-0.00265435
-0.00623384
-0.0097352
-0.0130107
-0.0159869
-0.0186518
-0.0210176
-0.023106
-0.0249194
-0.026454
-0.0276805
-0.0285785
-0.029111
-0.0292717
-0.0290411
-0.0284453
-0.0274908
-0.0262352
-0.0247031
-0.0229673
-0.0210501
-0.0190062
-0.016821
-0.0144818
-0.0118994
-0.00896058
-0.00553682
-0.00154676
0.00285968
0.00727838
0.0109564
0.0132996
0.0142103
0.0142589
0.0141046
0.0139776
0.0138765
0.0128351
0.0127935
0.0127865
0.0127473
0.0127246
0.0126726
0.0126265
0.0125547
0.0124816
0.0123844
0.0122788
0.0121468
0.0119947
0.0118007
0.0115507
0.0111965
0.0106741
0.00987297
0.00866102
0.00689797
0.00449887
0.00147722
-0.00202701
-0.00578404
-0.00954776
-0.0131285
-0.0164289
-0.0194254
-0.022143
-0.024608
-0.0268416
-0.0288295
-0.0305489
-0.0319456
-0.0329833
-0.0336067
-0.0338046
-0.0335488
-0.0328717
-0.0317778
-0.0303395
-0.0285854
-0.0266104
-0.0244499
-0.0221915
-0.0198466
-0.0174426
-0.0149169
-0.0121723
-0.00905067
-0.00536345
-0.00106975
0.00367509
0.00819737
0.0116736
0.0134784
0.0138831
0.013716
0.0135944
0.0134303
0.0125631
0.0125226
0.0125131
0.0124713
0.0124428
0.0123847
0.0123298
0.0122481
0.0121624
0.0120505
0.0119264
0.0117717
0.0115899
0.0113556
0.0110471
0.0106041
0.00994347
0.0089331
0.00742418
0.00528195
0.00245691
-0.000974067
-0.00480657
-0.00877345
-0.0126385
-0.0162552
-0.0195819
-0.0226366
-0.0254685
-0.0281041
-0.0305534
-0.032777
-0.0347302
-0.036332
-0.0375326
-0.0382591
-0.0384997
-0.0382176
-0.0374547
-0.0362128
-0.0345802
-0.0325855
-0.030344
-0.0278966
-0.0253594
-0.0227643
-0.0201806
-0.0175804
-0.0149053
-0.0120095
-0.00866303
-0.00469743
-1.10151e-05
0.00493915
0.00941601
0.0122422
0.0133733
0.0132054
0.0131276
0.0128805
0.0123115
0.0122737
0.012262
0.0122181
0.0121836
0.0121188
0.0120539
0.011961
0.0118604
0.0117314
0.0115856
0.0114045
0.011188
0.0109077
0.0105326
0.00999027
0.00917817
0.00794572
0.00613511
0.00362853
0.000421636
-0.0033456
-0.00741917
-0.0115189
-0.0154397
-0.0190863
-0.0224676
-0.0256312
-0.0286378
-0.0315031
-0.0342193
-0.0367171
-0.0389308
-0.0407532
-0.0421249
-0.0429565
-0.0432394
-0.0429274
-0.0420758
-0.040682
-0.0388539
-0.0366167
-0.034106
-0.0313608
-0.0285207
-0.0256283
-0.02279
-0.0200119
-0.0172835
-0.0144943
-0.0114244
-0.00784465
-0.00347177
0.00152057
0.00662995
0.0104845
0.0125369
0.0126084
0.0125098
0.0122244
0.0120173
0.0119812
0.0119666
0.0119199
0.0118787
0.0118069
0.0117316
0.0116274
0.011512
0.0113658
0.011198
0.0109902
0.0107381
0.0104099
0.00996531
0.0093199
0.00835293
0.0069002
0.00480228
0.00196731
-0.00156142
-0.00558813
-0.00982825
-0.0140079
-0.0179652
-0.0216531
-0.0251225
-0.0284372
-0.0316611
-0.0347901
-0.0377972
-0.0405814
-0.0430602
-0.0451013
-0.0466411
-0.0475723
-0.0478932
-0.0475454
-0.0466017
-0.045053
-0.0430313
-0.0405568
-0.0377878
-0.0347555
-0.031619
-0.0284205
-0.0252962
-0.022278
-0.0194037
-0.0166083
-0.0137093
-0.0104732
-0.00652015
-0.00177028
0.00355181
0.00826792
0.0112249
0.0119254
0.0116976
0.0114515
0.0117575
0.0117251
0.0117081
0.0116596
0.0116115
0.0115326
0.0114459
0.0113292
0.0111968
0.0110314
0.0108388
0.0106012
0.0103101
0.00993052
0.00941311
0.00866288
0.0075435
0.00588218
0.0035241
0.000407297
-0.00338054
-0.00759997
-0.011953
-0.0161845
-0.0201779
-0.0239267
-0.0275134
-0.0310075
-0.0344704
-0.0378744
-0.0411745
-0.0442391
-0.046975
-0.0492254
-0.0509271
-0.0519524
-0.0523086
-0.051922
-0.0508857
-0.0491817
-0.0469716
-0.0442687
-0.0412588
-0.0379613
-0.0345542
-0.031069
-0.0276641
-0.024385
-0.021312
-0.0184268
-0.0155949
-0.0126185
-0.00907879
-0.00474207
0.000465697
0.00569901
0.00948783
0.0110234
0.0107348
0.010523
0.0114485
0.0114185
0.0113983
0.0113472
0.0112921
0.011206
0.0111085
0.0109801
0.0108322
0.0106491
0.0104337
0.0101684
0.0098406
0.00941293
0.00882724
0.00798037
0.00672317
0.00487959
0.00230245
-0.00103986
-0.00502367
-0.00937792
-0.0138051
-0.0180727
-0.0221065
-0.0259292
-0.0296468
-0.033326
-0.0370248
-0.0406897
-0.044263
-0.0475845
-0.0505569
-0.0529986
-0.054851
-0.0559618
-0.0563509
-0.0559231
-0.0547965
-0.0529396
-0.0505491
-0.0476288
-0.0443986
-0.0408623
-0.0372195
-0.0334824
-0.0298269
-0.0262987
-0.0230128
-0.0199905
-0.017146
-0.0143411
-0.0111507
-0.00729492
-0.00240834
0.00294202
0.0074376
0.00975107
0.00967539
0.0093921
0.0111919
0.0111666
0.0111441
0.0110919
0.0110299
0.010937
0.0108278
0.010687
0.0105219
0.0103195
0.010079
0.00978436
0.00941846
0.00894283
0.00829184
0.00735712
0.00598023
0.00398579
0.00123517
-0.00227693
-0.00640109
-0.0108464
-0.0153241
-0.0196227
-0.0237028
-0.0276054
-0.0314534
-0.0353057
-0.0392183
-0.0431126
-0.0469256
-0.0504698
-0.0536509
-0.056261
-0.0582503
-0.0594377
-0.0598591
-0.0593928
-0.0581852
-0.0561861
-0.053632
-0.0505131
-0.0470891
-0.0433452
-0.0395071
-0.0355607
-0.0316991
-0.0279549
-0.0244722
-0.0212986
-0.0183952
-0.0156882
-0.0127693
-0.00938571
-0.00493318
0.00020491
0.00519236
0.0081125
0.00853472
0.00806588
0.0108762
0.0108538
0.0108285
0.0107744
0.0107058
0.0106069
0.0104877
0.0103367
0.0101575
0.00993964
0.0096786
0.00936015
0.00896265
0.00844808
0.00774427
0.00674133
0.00527404
0.00317132
0.000300449
-0.00332267
-0.00753518
-0.0120341
-0.0165444
-0.0208682
-0.024994
-0.0289686
-0.0329295
-0.0369227
-0.0410079
-0.0450819
-0.0490858
-0.0528049
-0.0561556
-0.0588999
-0.0610039
-0.0622519
-0.0627022
-0.0622001
-0.0609256
-0.0588021
-0.0561104
-0.0528202
-0.0492366
-0.0453212
-0.0413322
-0.0372222
-0.0332054
-0.029289
-0.0256454
-0.0223316
-0.0193544
-0.0166942
-0.0139798
-0.0110157
-0.00704604
-0.00233258
0.00285758
0.0061959
0.0072318
0.00655165
0.0106357
0.0106189
0.0105919
0.0105379
0.0104633
0.010359
0.0102293
0.0100676
0.00987281
0.00963831
0.00935526
0.00901235
0.00858361
0.00803327
0.00728432
0.00622913
0.00469867
0.0025283
-0.000412227
-0.00409336
-0.00835008
-0.0128741
-0.0174055
-0.0217514
-0.0259191
-0.0299514
-0.033998
-0.0380894
-0.0422955
-0.0464899
-0.0506271
-0.054465
-0.0579383
-0.0607759
-0.0629664
-0.0642556
-0.0647313
-0.0641998
-0.0628797
-0.0606604
-0.0578695
-0.0544482
-0.0507508
-0.046708
-0.0426175
-0.0383919
-0.0342734
-0.0302326
-0.0264749
-0.0230477
-0.0200066
-0.0173651
-0.0148076
-0.0121962
-0.00871619
-0.00453862
0.000552397
0.00411118
0.0056878
0.00486704
0.0103211
0.0103074
0.0102782
0.0102235
0.0101439
0.0100359
0.00989881
0.00973058
0.00952545
0.00928075
0.00898303
0.00862474
0.00817516
0.00760298
0.00682694
0.00574612
0.00418877
0.00199956
-0.00095536
-0.00463858
-0.00889559
-0.0134155
-0.0179549
-0.0223142
-0.0265136
-0.0305795
-0.0346751
-0.038811
-0.0430762
-0.0473208
-0.0515243
-0.0554138
-0.0589531
-0.0618321
-0.0640724
-0.0653758
-0.0658688
-0.0653122
-0.0639698
-0.0616872
-0.0588433
-0.055339
-0.0515819
-0.0474616
-0.0433228
-0.0390292
-0.034862
-0.0307434
-0.0269219
-0.0234158
-0.0203372
-0.0177054
-0.0152773
-0.0129539
-0.00994184
-0.00633765
-0.00159453
0.00198016
0.00392546
0.00306623
0.0101099
0.0101025
0.0100726
0.0100198
0.00993607
0.00982525
0.00968014
0.00950469
0.00928759
0.00903138
0.0087174
0.00834333
0.00787361
0.00728359
0.00648898
0.00539948
0.00384263
0.00167444
-0.00124717
-0.00488369
-0.00910177
-0.0135919
-0.0181276
-0.022493
-0.026714
-0.0307907
-0.0348995
-0.0390271
-0.0432896
-0.0475136
-0.0517138
-0.0555857
-0.0591308
-0.0619968
-0.0642479
-0.0655375
-0.0660403
-0.0654648
-0.0641273
-0.0618195
-0.0589757
-0.0554436
-0.0516884
-0.0475451
-0.0434141
-0.0390992
-0.0349339
-0.0307804
-0.0269439
-0.0233951
-0.0203138
-0.0176957
-0.0153862
-0.0132971
-0.0107174
-0.00767878
-0.0034534
-5.97341e-05
0.00206703
0.00124345
0.00980208
0.00979747
0.0097663
0.00971451
0.00962855
0.00951766
0.00936938
0.00919293
0.00897148
0.00871305
0.00839301
0.00801547
0.00753893
0.00694808
0.00615488
0.00508453
0.00356329
0.00146292
-0.00137352
-0.00490887
-0.00904411
-0.0134713
-0.0179858
-0.0223433
-0.0265737
-0.0306362
-0.0347236
-0.0387902
-0.04299
-0.0471211
-0.0512484
-0.0550296
-0.0585184
-0.0613131
-0.0635339
-0.0647779
-0.0652804
-0.0646888
-0.0633809
-0.0610829
-0.0582911
-0.0547845
-0.0510921
-0.0469776
-0.0429081
-0.038613
-0.0344953
-0.0303433
-0.0265371
-0.0229794
-0.0199334
-0.0173405
-0.015151
-0.0132529
-0.0110632
-0.00854947
-0.00493223
-0.00188276
0.000252041
-0.000508792
0.00963309
0.00963532
0.0096046
0.00955685
0.00946927
0.00935915
0.00920646
0.00902769
0.00879914
0.00853612
0.0082071
0.00782448
0.00734013
0.00675048
0.00596367
0.00492419
0.00345779
0.00145593
-0.00125618
-0.00464529
-0.0086568
-0.0129881
-0.0174619
-0.0217988
-0.0260298
-0.0300621
-0.0341044
-0.0380711
-0.0421601
-0.0461382
-0.0501308
-0.0537561
-0.0571317
-0.0598026
-0.0619557
-0.0631268
-0.0636215
-0.0630181
-0.0617648
-0.0595103
-0.0568203
-0.0533888
-0.0498164
-0.0457772
-0.0418171
-0.0375757
-0.0335446
-0.0294226
-0.025686
-0.0221478
-0.0191738
-0.0166195
-0.014559
-0.0128183
-0.010979
-0.00893321
-0.00595821
-0.00337036
-0.00138881
-0.0020946
0.00933371
0.00933783
0.00930716
0.00926246
0.00917623
0.00907097
0.00892079
0.00874845
0.00852315
0.00826798
0.00794291
0.00757053
0.00709358
0.00652364
0.00576205
0.00477805
0.00339388
0.00152839
-0.00101652
-0.00420697
-0.00804636
-0.0122361
-0.0166397
-0.0209335
-0.025155
-0.0291425
-0.0331255
-0.0369628
-0.0409071
-0.0446821
-0.0484902
-0.0519012
-0.0551144
-0.0576123
-0.0596652
-0.060736
-0.0612157
-0.0606001
-0.0594216
-0.0572344
-0.0546868
-0.0513664
-0.0479595
-0.0440273
-0.040214
-0.036048
-0.0321348
-0.0280631
-0.0244314
-0.020936
-0.01807
-0.0155671
-0.0136496
-0.0120374
-0.010511
-0.00886062
-0.00651479
-0.004446
-0.00276099
-0.00343644
0.0092188
0.00922995
0.00920098
0.00916264
0.00907774
0.00897749
0.00882703
0.00865816
0.00843102
0.00817895
0.00785201
0.00748533
0.00701106
0.00645847
0.00572036
0.00479418
0.00349749
0.0017826
-0.000572265
-0.00352777
-0.00715314
-0.0111564
-0.0154551
-0.0196807
-0.0238829
-0.0278206
-0.0317439
-0.035444
-0.0392312
-0.0427778
-0.0463716
-0.0495298
-0.0525458
-0.0548351
-0.056764
-0.0577149
-0.0581758
-0.0575487
-0.056462
-0.0543598
-0.0519851
-0.0487992
-0.0455889
-0.0417812
-0.0381388
-0.0340586
-0.0302857
-0.0262765
-0.022779
-0.019343
-0.0166167
-0.0141737
-0.0124142
-0.0109053
-0.00966176
-0.00833212
-0.00657715
-0.00503223
-0.00375886
-0.00442894
0.00892429
0.00893582
0.0089082
0.00887521
0.00879601
0.00870682
0.0085657
0.00841241
0.00819706
0.00796437
0.00765147
0.00730907
0.00685418
0.00633847
0.00564023
0.00479166
0.0035989
0.0020584
-8.05251e-05
-0.00275875
-0.00612301
-0.00988087
-0.014027
-0.0181419
-0.022307
-0.0261842
-0.0300549
-0.0336194
-0.0372567
-0.0405668
-0.0439395
-0.0468223
-0.0496242
-0.0516789
-0.0534705
-0.0542835
-0.0547243
-0.0540795
-0.0530951
-0.0510795
-0.0488937
-0.0458439
-0.0428443
-0.0391583
-0.0356985
-0.0317018
-0.0280881
-0.0241483
-0.0208164
-0.0174534
-0.0149018
-0.0125237
-0.0109418
-0.00950916
-0.00852231
-0.00742799
-0.00619496
-0.00511387
-0.00431052
-0.00498667
0.00887443
0.00889297
0.0088681
0.00884385
0.00876886
0.00868934
0.00855197
0.00840828
0.00819569
0.00797361
0.00766419
0.00733682
0.006891
0.00640384
0.00573563
0.00495654
0.00385726
0.00248496
0.000559943
-0.00182617
-0.00489986
-0.00836349
-0.0123061
-0.0162621
-0.0203627
-0.0241673
-0.0279956
-0.0314412
-0.0349545
-0.0380473
-0.0412169
-0.0438304
-0.046423
-0.0482384
-0.049892
-0.0505601
-0.0509817
-0.0503135
-0.0494344
-0.0474978
-0.0455017
-0.0425751
-0.0397832
-0.0362031
-0.0329265
-0.0290041
-0.0255633
-0.021696
-0.0185569
-0.0152739
-0.0129264
-0.0106105
-0.00922395
-0.00783945
-0.0070923
-0.00615344
-0.00536884
-0.00465249
-0.0043137
-0.00498467
0.00857458
0.00859128
0.00856904
0.00855275
0.00848845
0.00842763
0.00830742
0.0081903
0.00799855
0.00780861
0.00752239
0.00723293
0.00681484
0.00637766
0.00575421
0.00506121
0.00406234
0.00286791
0.0011601
-0.000914462
-0.00367015
-0.00678374
-0.0104645
-0.0141923
-0.0181843
-0.0218826
-0.0256707
-0.0290065
-0.0324303
-0.0353325
-0.0383382
-0.0407027
-0.0431135
-0.0446958
-0.0462263
-0.0467442
-0.0471526
-0.0464457
-0.0456696
-0.0437868
-0.0419699
-0.0391339
-0.0365377
-0.0330344
-0.0299418
-0.0260811
-0.0228368
-0.0190457
-0.01614
-0.0129431
-0.010841
-0.00857976
-0.00741703
-0.00604536
-0.00553002
-0.00465386
-0.00422855
-0.00372036
-0.00375268
-0.00437369
0.00860066
0.00862431
0.00860553
0.00860046
0.00854276
0.00849655
0.00838325
0.00828185
0.00809574
0.00792303
0.00764254
0.00737515
0.00696727
0.00656474
0.00596801
0.00534382
0.00442214
0.00338166
0.00186271
8.18698e-05
-0.00236028
-0.00509806
-0.00847182
-0.0119068
-0.015734
-0.0192801
-0.0230129
-0.0262423
-0.0296071
-0.0323554
-0.035246
-0.0374029
-0.0396745
-0.041051
-0.0424841
-0.0428601
-0.0432629
-0.0425068
-0.0418242
-0.0399685
-0.0383101
-0.035531
-0.0331121
-0.0296602
-0.0267516
-0.0229452
-0.0199208
-0.0162089
-0.0135699
-0.0104544
-0.00862753
-0.00639965
-0.00548339
-0.00408343
-0.0038045
-0.00290877
-0.00278055
-0.00232086
-0.00258436
-0.00308176
0.00827739
0.00829614
0.00828127
0.00828743
0.00824621
0.00822852
0.00814122
0.00807991
0.00792381
0.00779767
0.00754795
0.00733193
0.00695612
0.00661372
0.00605883
0.00552069
0.00467873
0.00379458
0.00245005
0.000955978
-0.00118203
-0.00352145
-0.00655279
-0.00962355
-0.0132213
-0.0165413
-0.0201827
-0.0232771
-0.0265985
-0.0292087
-0.032033
-0.0340151
-0.0362008
-0.0373967
-0.0387714
-0.0390099
-0.0394244
-0.0386004
-0.038009
-0.0361441
-0.0346324
-0.0318708
-0.029627
-0.0262016
-0.0235016
-0.0197454
-0.0169905
-0.0133603
-0.0110461
-0.0080022
-0.00650502
-0.00428036
-0.00365832
-0.00217425
-0.00215915
-0.00113857
-0.00125696
-0.000642216
-0.000949303
-0.00121059
0.00839154
0.00841747
0.00840633
0.00842692
0.00839379
0.00839624
0.00831722
0.00827764
0.00812698
0.00802355
0.0077774
0.00758804
0.00721772
0.00691212
0.00637304
0.00589654
0.00510322
0.00434177
0.0031273
0.00187499
-3.87712e-06
-0.00196876
-0.00465841
-0.00732918
-0.010644
-0.0136686
-0.0171629
-0.0200775
-0.0233422
-0.0258161
-0.028602
-0.0304404
-0.0325835
-0.0336324
-0.0349839
-0.035103
-0.0355447
-0.0346501
-0.0341467
-0.0322558
-0.030882
-0.0281216
-0.0260571
-0.0226558
-0.0201909
-0.0164921
-0.0140453
-0.0104933
-0.00853608
-0.00553469
-0.00439137
-0.00211798
-0.00181831
-0.000182522
-0.000468064
0.000771248
0.000395492
0.00132545
0.00110259
0.0011988
0.00801729
0.00803409
0.00802836
0.00806513
0.00805546
0.00810018
0.00805697
0.00807518
0.00796336
0.0079238
0.00771374
0.00759015
0.00725216
0.00701595
0.00651048
0.00611786
0.00537692
0.00474315