/*--------------------------------*- C++ -*----------------------------------*\
| =========                 |                                                 |
| \\      /  F ield         | OpenFOAM: The Open Source CFD Toolbox           |
|  \\    /   O peration     | Version:  2406                                  |
|   \\  /    A nd           | Website:  www.openfoam.com                      |
|    \\/     M anipulation  |                                                 |
\*---------------------------------------------------------------------------*/
FoamFile
{
    version     2.0;
    format      ascii;
    arch        "LSB;label=32;scalar=64";
    class       volVectorField;
    location    "10.2";
    object      U_0;
}
// * * * * * * * * * * * * * * * * * * * * * * * * * * * * * * * * * * * * * //

dimensions      [0 1 -1 0 0 0 0];

internalField   nonuniform List<vector> 
14400
(
(3.14197e-06 -3.12837e-06 0)
(9.60496e-06 -1.40169e-06 0)
(4.45297e-06 2.04994e-06 0)
(-1.47391e-05 5.70671e-06 0)
(-4.76753e-05 8.87421e-06 0)
(-9.21588e-05 1.13959e-05 0)
(-0.000145719 1.32797e-05 0)
(-0.00020605 1.46172e-05 0)
(-0.0002712 1.55201e-05 0)
(-0.000339621 1.6094e-05 0)
(-0.000410137 1.64303e-05 0)
(-0.000481902 1.66036e-05 0)
(-0.000554335 1.66723e-05 0)
(-0.000627062 1.66805e-05 0)
(-0.00069987 1.66599e-05 0)
(-0.000772656 1.66329e-05 0)
(-0.000845399 1.66137e-05 0)
(-0.000918129 1.66112e-05 0)
(-0.000990905 1.66296e-05 0)
(-0.0010638 1.66703e-05 0)
(-0.0011369 1.67326e-05 0)
(-0.00121027 1.68144e-05 0)
(-0.00128397 1.69125e-05 0)
(-0.00135807 1.70236e-05 0)
(-0.00143261 1.71437e-05 0)
(-0.00150759 1.72691e-05 0)
(-0.00158304 1.73958e-05 0)
(-0.00165895 1.75196e-05 0)
(-0.00173528 1.76367e-05 0)
(-0.001812 1.7743e-05 0)
(-0.00188904 1.78344e-05 0)
(-0.00196634 1.79067e-05 0)
(-0.0020438 1.79558e-05 0)
(-0.0021213 1.79774e-05 0)
(-0.00219872 1.79671e-05 0)
(-0.00227591 1.79205e-05 0)
(-0.0023527 1.78331e-05 0)
(-0.00242891 1.77004e-05 0)
(-0.00250433 1.7518e-05 0)
(-0.00257875 1.72813e-05 0)
(-0.00265192 1.6986e-05 0)
(-0.00272359 1.66279e-05 0)
(-0.00279348 1.62029e-05 0)
(-0.00286129 1.57072e-05 0)
(-0.00292674 1.51372e-05 0)
(-0.00298949 1.44898e-05 0)
(-0.00304922 1.37624e-05 0)
(-0.00310559 1.29527e-05 0)
(-0.00315825 1.2059e-05 0)
(-0.00320686 1.10803e-05 0)
(-0.00325106 1.00164e-05 0)
(-0.0032905 8.86765e-06 0)
(-0.00332483 7.63539e-06 0)
(-0.00335372 6.32175e-06 0)
(-0.00337684 4.92984e-06 0)
(-0.00339389 3.46351e-06 0)
(-0.00340457 1.92822e-06 0)
(-0.00340862 3.33365e-07 0)
(-0.00340579 -1.31892e-06 0)
(-0.0033959 -3.02057e-06 0)
(-0.00337876 -4.76123e-06 0)
(-0.00335424 -6.53014e-06 0)
(-0.00332227 -8.31662e-06 0)
(-0.00328281 -1.0109e-05 0)
(-0.00323585 -1.1895e-05 0)
(-0.00318147 -1.36617e-05 0)
(-0.00311979 -1.53957e-05 0)
(-0.00305097 -1.70834e-05 0)
(-0.00297524 -1.87112e-05 0)
(-0.00289287 -2.02656e-05 0)
(-0.00280421 -2.17333e-05 0)
(-0.00270965 -2.31017e-05 0)
(-0.00260961 -2.43587e-05 0)
(-0.00250458 -2.54934e-05 0)
(-0.00239508 -2.64959e-05 0)
(-0.00228167 -2.73577e-05 0)
(-0.00216496 -2.80716e-05 0)
(-0.00204554 -2.86322e-05 0)
(-0.00192407 -2.90357e-05 0)
(-0.00180118 -2.928e-05 0)
(-0.00167752 -2.93651e-05 0)
(-0.00155375 -2.92923e-05 0)
(-0.00143051 -2.90652e-05 0)
(-0.00130842 -2.86885e-05 0)
(-0.00118808 -2.81688e-05 0)
(-0.00107005 -2.75139e-05 0)
(-0.000954895 -2.67329e-05 0)
(-0.0008431 -2.58356e-05 0)
(-0.000735129 -2.48328e-05 0)
(-0.0006314 -2.37357e-05 0)
(-0.000532287 -2.25556e-05 0)
(-0.000438117 -2.1304e-05 0)
(-0.000349172 -1.99923e-05 0)
(-0.00026569 -1.86311e-05 0)
(-0.000187867 -1.72307e-05 0)
(-0.000115862 -1.58006e-05 0)
(-4.97927e-05 -1.43494e-05 0)
(1.02512e-05 -1.28848e-05 0)
(6.42115e-05 -1.14133e-05 0)
(0.000112054 -9.94071e-06 0)
(0.000153767 -8.4716e-06 0)
(0.000189356 -7.00971e-06 0)
(0.000218842 -5.55792e-06 0)
(0.000242257 -4.11857e-06 0)
(0.000259646 -2.69344e-06 0)
(0.000271069 -1.28194e-06 0)
(0.00027662 1.05599e-07 0)
(0.000276362 1.42508e-06 0)
(0.000270369 2.70331e-06 0)
(0.000258844 3.97947e-06 0)
(0.000242031 5.20857e-06 0)
(0.000220227 6.34639e-06 0)
(0.000193882 7.35216e-06 0)
(0.000163673 8.16263e-06 0)
(0.000130606 8.67692e-06 0)
(9.61746e-05 8.74306e-06 0)
(6.25476e-05 8.12376e-06 0)
(3.2607e-05 6.60644e-06 0)
(1.09376e-05 3.80423e-06 0)
(7.60776e-07 7.64267e-07 0)
(1.44121e-06 -9.60007e-06 0)
(-3.79261e-06 3.7382e-06 0)
(-3.77921e-05 3.1612e-05 0)
(-0.000105002 6.11143e-05 0)
(-0.000204231 8.76009e-05 0)
(-0.000331378 0.000109383 0)
(-0.000481298 0.000126281 0)
(-0.000648927 0.000138793 0)
(-0.000829767 0.000147662 0)
(-0.00102008 0.000153665 0)
(-0.00121691 0.000157513 0)
(-0.00141802 0.000159814 0)
(-0.00162179 0.000161063 0)
(-0.00182711 0.000161644 0)
(-0.00203327 0.000161848 0)
(-0.00223983 0.000161882 0)
(-0.00244662 0.000161889 0)
(-0.00265356 0.00016196 0)
(-0.00286072 0.000162148 0)
(-0.00306818 0.000162477 0)
(-0.00327608 0.000162949 0)
(-0.00348453 0.000163553 0)
(-0.00369364 0.000164269 0)
(-0.00390351 0.00016507 0)
(-0.00411418 0.000165926 0)
(-0.00432569 0.000166804 0)
(-0.00453801 0.000167669 0)
(-0.00475107 0.000168487 0)
(-0.00496479 0.000169222 0)
(-0.00517902 0.000169839 0)
(-0.00539356 0.0001703 0)
(-0.0056082 0.000170568 0)
(-0.00582264 0.000170605 0)
(-0.00603656 0.000170373 0)
(-0.00624961 0.000169833 0)
(-0.00646135 0.000168946 0)
(-0.00667133 0.000167671 0)
(-0.00687903 0.00016597 0)
(-0.0070839 0.000163803 0)
(-0.00728533 0.000161132 0)
(-0.00748267 0.000157919 0)
(-0.00767524 0.000154127 0)
(-0.00786231 0.000149724 0)
(-0.0080431 0.000144677 0)
(-0.00821682 0.000138959 0)
(-0.00838263 0.000132543 0)
(-0.00853969 0.000125411 0)
(-0.00868713 0.000117545 0)
(-0.00882406 0.000108936 0)
(-0.00894959 9.9579e-05 0)
(-0.00906284 8.94755e-05 0)
(-0.00916294 7.86345e-05 0)
(-0.00924903 6.7072e-05 0)
(-0.00932029 5.4812e-05 0)
(-0.00937593 4.18864e-05 0)
(-0.0094152 2.83352e-05 0)
(-0.00943743 1.42073e-05 0)
(-0.009442 -4.36918e-07 0)
(-0.00942836 -1.55322e-05 0)
(-0.00939607 -3.10099e-05 0)
(-0.00934475 -4.67864e-05 0)
(-0.00927416 -6.27716e-05 0)
(-0.00918415 -7.88692e-05 0)
(-0.00907469 -9.49771e-05 0)
(-0.00894586 -0.000110988 0)
(-0.0087979 -0.000126792 0)
(-0.00863114 -0.000142274 0)
(-0.00844609 -0.000157319 0)
(-0.00824334 -0.000171813 0)
(-0.00802366 -0.000185641 0)
(-0.0077879 -0.000198694 0)
(-0.00753708 -0.000210865 0)
(-0.00727231 -0.000222056 0)
(-0.00699479 -0.000232177 0)
(-0.00670586 -0.000241145 0)
(-0.00640691 -0.000248892 0)
(-0.00609941 -0.000255357 0)
(-0.0057849 -0.000260498 0)
(-0.00546495 -0.000264282 0)
(-0.00514116 -0.000266694 0)
(-0.00481514 -0.000267731 0)
(-0.00448848 -0.000267405 0)
(-0.00416278 -0.000265744 0)
(-0.00383956 -0.000262787 0)
(-0.00352034 -0.000258587 0)
(-0.00320652 -0.000253207 0)
(-0.00289947 -0.000246719 0)
(-0.00260044 -0.000239206 0)
(-0.00231061 -0.000230753 0)
(-0.00203105 -0.000221451 0)
(-0.00176272 -0.000211395 0)
(-0.00150648 -0.000200677 0)
(-0.0012631 -0.00018939 0)
(-0.00103322 -0.000177623 0)
(-0.000817401 -0.00016546 0)
(-0.000616113 -0.000152981 0)
(-0.000429732 -0.000140256 0)
(-0.00025856 -0.00012735 0)
(-0.000102829 -0.00011432 0)
(3.72883e-05 -0.000101214 0)
(0.000161672 -8.80742e-05 0)
(0.000270249 -7.49352e-05 0)
(0.000362984 -6.18274e-05 0)
(0.000439881 -4.87781e-05 0)
(0.000500979 -3.58149e-05 0)
(0.000546357 -2.29692e-05 0)
(0.000576125 -1.02871e-05 0)
(0.000590479 2.14935e-06 0)
(0.000589746 1.43045e-05 0)
(0.000574324 2.60908e-05 0)
(0.000544781 3.73097e-05 0)
(0.000502 4.76921e-05 0)
(0.000447237 5.68572e-05 0)
(0.000382281 6.42455e-05 0)
(0.000309681 6.90437e-05 0)
(0.000233004 7.01141e-05 0)
(0.000157118 6.59461e-05 0)
(8.79504e-05 5.47921e-05 0)
(3.50766e-05 3.51799e-05 0)
(3.77379e-06 1.09169e-05 0)
(-2.15348e-06 -4.21959e-06 0)
(-3.30682e-05 3.82257e-05 0)
(-0.000107503 0.000104808 0)
(-0.00022985 0.000173758 0)
(-0.000396497 0.00023626 0)
(-0.000602505 0.000288681 0)
(-0.000841301 0.00033033 0)
(-0.00110625 0.000362003 0)
(-0.00139128 0.000385155 0)
(-0.00169122 0.000401415 0)
(-0.00200182 0.000412352 0)
(-0.0023198 0.00041935 0)
(-0.00264266 0.000423568 0)
(-0.00296865 0.000425933 0)
(-0.00329655 0.000427157 0)
(-0.00362559 0.000427766 0)
(-0.00395532 0.000428133 0)
(-0.00428553 0.000428503 0)
(-0.00461616 0.00042903 0)
(-0.00494724 0.000429789 0)
(-0.00527886 0.000430806 0)
(-0.00561113 0.000432066 0)
(-0.00594413 0.000433531 0)
(-0.00627792 0.000435141 0)
(-0.00661253 0.000436828 0)
(-0.00694793 0.000438514 0)
(-0.00728404 0.000440118 0)
(-0.00762073 0.000441553 0)
(-0.00795778 0.000442733 0)
(-0.00829495 0.000443568 0)
(-0.0086319 0.000443966 0)
(-0.00896824 0.000443835 0)
(-0.00930351 0.000443079 0)
(-0.00963718 0.000441605 0)
(-0.00996865 0.000439315 0)
(-0.0102973 0.000436111 0)
(-0.0106223 0.000431897 0)
(-0.0109429 0.000426575 0)
(-0.0112582 0.000420052 0)
(-0.0115673 0.000412233 0)
(-0.0118692 0.000403029 0)
(-0.0121628 0.000392356 0)
(-0.0124471 0.000380133 0)
(-0.0127208 0.00036629 0)
(-0.0129828 0.000350762 0)
(-0.0132318 0.000333496 0)
(-0.0134665 0.000314448 0)
(-0.0136858 0.000293588 0)
(-0.0138882 0.000270899 0)
(-0.0140725 0.000246381 0)
(-0.0142374 0.000220046 0)
(-0.0143817 0.000191928 0)
(-0.0145042 0.000162076 0)
(-0.0146037 0.000130558 0)
(-0.0146791 9.7464e-05 0)
(-0.0147293 6.29008e-05 0)
(-0.0147536 2.69965e-05 0)
(-0.014751 -1.01019e-05 0)
(-0.0147208 -4.82201e-05 0)
(-0.0146625 -8.71778e-05 0)
(-0.0145757 -0.000126771 0)
(-0.01446 -0.000166779 0)
(-0.0143154 -0.000206965 0)
(-0.0141418 -0.000247082 0)
(-0.0139396 -0.00028687 0)
(-0.0137092 -0.000326063 0)
(-0.013451 -0.000364389 0)
(-0.013166 -0.000401574 0)
(-0.0128551 -0.000437346 0)
(-0.0125194 -0.000471438 0)
(-0.0121602 -0.000503591 0)
(-0.011779 -0.000533559 0)
(-0.0113776 -0.000561113 0)
(-0.0109575 -0.000586041 0)
(-0.0105209 -0.000608156 0)
(-0.0100697 -0.000627297 0)
(-0.00960596 -0.000643329 0)
(-0.00913199 -0.000656152 0)
(-0.00865 -0.000665693 0)
(-0.00816229 -0.000671917 0)
(-0.00767116 -0.000674819 0)
(-0.00717889 -0.00067443 0)
(-0.00668775 -0.000670813 0)
(-0.00619994 -0.000664059 0)
(-0.0057176 -0.000654291 0)
(-0.00524277 -0.000641654 0)
(-0.00477739 -0.000626318 0)
(-0.00432329 -0.00060847 0)
(-0.00388217 -0.00058831 0)
(-0.00345558 -0.000566051 0)
(-0.00304495 -0.000541907 0)
(-0.00265156 -0.000516096 0)
(-0.00227654 -0.000488833 0)
(-0.00192089 -0.000460324 0)
(-0.00158547 -0.000430766 0)
(-0.00127103 -0.000400343 0)
(-0.000978173 -0.000369223 0)
(-0.00070743 -0.000337556 0)
(-0.000459215 -0.000305478 0)
(-0.000233867 -0.000273103 0)
(-3.16463e-05 -0.000240534 0)
(0.000147249 -0.000207857 0)
(0.000302683 -0.000175151 0)
(0.000434574 -0.000142491 0)
(0.000542902 -0.000109954 0)
(0.000627713 -7.76325e-05 0)
(0.000689129 -4.5641e-05 0)
(0.000727414 -1.41195e-05 0)
(0.000742979 1.67073e-05 0)
(0.000736412 4.64882e-05 0)
(0.000708617 7.4779e-05 0)
(0.000660927 0.000100926 0)
(0.000595227 0.000123993 0)
(0.000514148 0.000142662 0)
(0.000421324 0.000155123 0)
(0.000321651 0.000158968 0)
(0.00022154 0.000151187 0)
(0.000128347 0.000128458 0)
(5.45965e-05 8.80134e-05 0)
(6.54698e-06 3.24668e-05 0)
(-6.26522e-06 1.64203e-05 0)
(-6.65194e-05 0.000108881 0)
(-0.000185676 0.000229467 0)
(-0.000366582 0.000350871 0)
(-0.00060145 0.00046082 0)
(-0.000884244 0.000553878 0)
(-0.0012072 0.000628835 0)
(-0.0015626 0.000686801 0)
(-0.00194339 0.00073001 0)
(-0.00234341 0.000761078 0)
(-0.00275759 0.000782594 0)
(-0.00318186 0.000796899 0)
(-0.00361312 0.000805989 0)
(-0.00404906 0.000811491 0)
(-0.00448805 0.000814675 0)
(-0.00492898 0.000816497 0)
(-0.00537115 0.000817646 0)
(-0.00581415 0.000818591 0)
(-0.00625778 0.000819628 0)
(-0.00670197 0.000820921 0)
(-0.00714671 0.000822535 0)
(-0.00759203 0.000824463 0)
(-0.00803795 0.000826646 0)
(-0.00848446 0.00082899 0)
(-0.00893152 0.000831376 0)
(-0.00937902 0.000833671 0)
(-0.00982678 0.000835728 0)
(-0.0102746 0.000837396 0)
(-0.0107221 0.000838516 0)
(-0.0111689 0.000838925 0)
(-0.0116146 0.000838457 0)
(-0.0120585 0.000836943 0)
(-0.0125 0.000834212 0)
(-0.0129385 0.000830088 0)
(-0.0133731 0.000824398 0)
(-0.0138028 0.000816966 0)
(-0.0142267 0.000807617 0)
(-0.0146438 0.000796177 0)
(-0.0150529 0.00078248 0)
(-0.0154527 0.00076636 0)
(-0.0158419 0.000747661 0)
(-0.0162193 0.000726238 0)
(-0.0165833 0.000701954 0)
(-0.0169324 0.00067469 0)
(-0.0172653 0.000644342 0)
(-0.0175802 0.000610823 0)
(-0.0178756 0.000574069 0)
(-0.0181499 0.000534041 0)
(-0.0184016 0.000490723 0)
(-0.018629 0.000444128 0)
(-0.0188306 0.000394299 0)
(-0.0190048 0.000341309 0)
(-0.0191503 0.000285265 0)
(-0.0192657 0.000226307 0)
(-0.0193497 0.00016461 0)
(-0.0194011 0.000100383 0)
(-0.0194189 3.38698e-05 0)
(-0.0194022 -3.46526e-05 0)
(-0.0193502 -0.000104874 0)
(-0.0192624 -0.000176449 0)
(-0.0191382 -0.000249007 0)
(-0.0189776 -0.000322149 0)
(-0.0187805 -0.000395452 0)
(-0.018547 -0.000468473 0)
(-0.0182777 -0.000540752 0)
(-0.017973 -0.000611819 0)
(-0.0176339 -0.000681195 0)
(-0.0172614 -0.000748403 0)
(-0.0168567 -0.000812966 0)
(-0.0164214 -0.000874423 0)
(-0.0159572 -0.000932326 0)
(-0.015466 -0.000986251 0)
(-0.0149497 -0.0010358 0)
(-0.0144106 -0.00108062 0)
(-0.0138512 -0.00112039 0)
(-0.0132739 -0.00115483 0)
(-0.0126814 -0.00118371 0)
(-0.0120762 -0.00120688 0)
(-0.0114612 -0.00122419 0)
(-0.0108393 -0.00123561 0)
(-0.010213 -0.00124112 0)
(-0.00958534 -0.00124079 0)
(-0.00895895 -0.00123471 0)
(-0.00833652 -0.00122306 0)
(-0.00772066 -0.00120604 0)
(-0.00711385 -0.0011839 0)
(-0.00651846 -0.00115694 0)
(-0.00593671 -0.00112549 0)
(-0.00537068 -0.00108988 0)
(-0.00482229 -0.00105048 0)
(-0.0042933 -0.00100766 0)
(-0.00378529 -0.000961797 0)
(-0.00329969 -0.000913262 0)
(-0.00283776 -0.000862409 0)
(-0.00240061 -0.00080958 0)
(-0.0019892 -0.000755089 0)
(-0.00160435 -0.000699229 0)
(-0.00124677 -0.00064226 0)
(-0.000917044 -0.000584416 0)
(-0.000615666 -0.000525901 0)
(-0.000343041 -0.000466892 0)
(-9.94939e-05 -0.000407548 0)
(0.000114723 -0.000348013 0)
(0.00029943 -0.000288427 0)
(0.000454526 -0.000228943 0)
(0.000580004 -0.000169741 0)
(0.000675971 -0.00011105 0)
(0.000742697 -5.31803e-05 0)
(0.000780644 3.41765e-06 0)
(0.000790561 5.81245e-05 0)
(0.000773594 0.000110089 0)
(0.000731384 0.000158111 0)
(0.000666255 0.000200525 0)
(0.000581401 0.000235072 0)
(0.000481136 0.00025874 0)
(0.000371143 0.000267662 0)
(0.000258722 0.00025713 0)
(0.000152096 0.000221952 0)
(6.60182e-05 0.000157356 0)
(8.0624e-06 6.22712e-05 0)
(-1.0261e-05 5.34097e-05 0)
(-9.99889e-05 0.000217781 0)
(-0.000264525 0.00040674 0)
(-0.000504476 0.000590955 0)
(-0.000806945 0.000756429 0)
(-0.00116432 0.000896797 0)
(-0.00156753 0.00101073 0)
(-0.00200791 0.00109982 0)
(-0.00247762 0.00116715 0)
(-0.0029699 0.0012164 0)
(-0.00347906 0.00125123 0)
(-0.00400054 0.00127502 0)
(-0.00453077 0.00129066 0)
(-0.00506705 0.00130058 0)
(-0.00560741 0.00130666 0)
(-0.00615047 0.00131036 0)
(-0.00669529 0.00131273 0)
(-0.00724127 0.00131451 0)
(-0.00778805 0.00131619 0)
(-0.00833541 0.00131803 0)
(-0.00888324 0.00132015 0)
(-0.00943146 0.00132256 0)
(-0.00997998 0.00132519 0)
(-0.0105287 0.00132791 0)
(-0.0110775 0.00133055 0)
(-0.0116261 0.00133291 0)
(-0.0121743 0.00133477 0)
(-0.0127217 0.0013359 0)
(-0.0132678 0.00133606 0)
(-0.0138122 0.00133499 0)
(-0.0143541 0.00133245 0)
(-0.0148928 0.00132818 0)
(-0.0154276 0.0013219 0)
(-0.0159575 0.00131336 0)
(-0.0164814 0.00130228 0)
(-0.0169982 0.00128841 0)
(-0.0175068 0.00127147 0)
(-0.0180059 0.0012512 0)
(-0.0184939 0.00122736 0)
(-0.0189695 0.0011997 0)
(-0.0194311 0.00116799 0)
(-0.019877 0.00113202 0)
(-0.0203056 0.00109159 0)
(-0.0207151 0.00104655 0)
(-0.0211037 0.00099674 0)
(-0.0214696 0.000942057 0)
(-0.0218111 0.000882422 0)
(-0.0221262 0.000817795 0)
(-0.0224132 0.000748178 0)
(-0.0226703 0.000673615 0)
(-0.0228958 0.000594194 0)
(-0.023088 0.000510053 0)
(-0.0232452 0.000421378 0)
(-0.0233662 0.000328407 0)
(-0.0234494 0.000231428 0)
(-0.0234936 0.00013078 0)
(-0.0234979 2.68511e-05 0)
(-0.0234612 -7.99181e-05 0)
(-0.0233829 -0.000189044 0)
(-0.0232624 -0.000299994 0)
(-0.0230994 -0.000412198 0)
(-0.0228938 -0.000525046 0)
(-0.0226457 -0.000637897 0)
(-0.0223555 -0.000750082 0)
(-0.0220238 -0.000860912 0)
(-0.0216514 -0.000969685 0)
(-0.0212394 -0.00107569 0)
(-0.0207891 -0.00117822 0)
(-0.0203021 -0.00127657 0)
(-0.0197801 -0.00137007 0)
(-0.0192252 -0.00145805 0)
(-0.0186396 -0.00153991 0)
(-0.0180257 -0.00161506 0)
(-0.0173861 -0.00168299 0)
(-0.0167234 -0.00174323 0)
(-0.0160406 -0.00179539 0)
(-0.0153407 -0.00183915 0)
(-0.0146267 -0.00187425 0)
(-0.0139017 -0.00190055 0)
(-0.0131689 -0.00191795 0)
(-0.0124315 -0.00192646 0)
(-0.0116925 -0.00192617 0)
(-0.0109552 -0.00191724 0)
(-0.0102224 -0.00189991 0)
(-0.00949713 -0.00187451 0)
(-0.0087822 -0.0018414 0)
(-0.00808025 -0.001801 0)
(-0.0073938 -0.00175381 0)
(-0.00672519 -0.00170032 0)
(-0.00607659 -0.00164107 0)
(-0.00545 -0.00157661 0)
(-0.00484722 -0.00150748 0)
(-0.0042699 -0.00143423 0)
(-0.00371947 -0.00135737 0)
(-0.00319723 -0.00127742 0)
(-0.0027043 -0.00119482 0)
(-0.00224165 -0.00111001 0)
(-0.00181014 -0.00102338 0)
(-0.00141049 -0.000935255 0)
(-0.00104332 -0.00084595 0)
(-0.000709153 -0.000755726 0)
(-0.00040842 -0.000664822 0)
(-0.000141476 -0.00057346 0)
(9.14086e-05 -0.000481862 0)
(0.000290057 -0.000390274 0)
(0.000454403 -0.00029899 0)
(0.000584522 -0.00020839 0)
(0.00068068 -0.000118989 0)
(0.000743381 -3.14962e-05 0)
(0.00077347 5.3125e-05 0)
(0.000772233 0.00013353 0)
(0.00074153 0.000207889 0)
(0.000683966 0.00027373 0)
(0.000603083 0.00032777 0)
(0.000503603 0.000365735 0)
(0.000391675 0.000382237 0)
(0.000275155 0.00037077 0)
(0.000162909 0.000323987 0)
(7.12011e-05 0.000234371 0)
(8.75441e-06 9.5981e-05 0)
(-1.39811e-05 0.000106045 0)
(-0.000131768 0.000364283 0)
(-0.000340348 0.000636506 0)
(-0.000637864 0.000893878 0)
(-0.00100601 0.00112236 0)
(-0.00143522 0.00131576 0)
(-0.0019149 0.00147323 0)
(-0.00243539 0.0015972 0)
(-0.00298818 0.00169179 0)
(-0.00356599 0.00176183 0)
(-0.00416272 0.00181214 0)
(-0.00477346 0.00184716 0)
(-0.00539432 0.00187076 0)
(-0.00602232 0.00188617 0)
(-0.00665525 0.00189597 0)
(-0.00729149 0.00190212 0)
(-0.00792992 0.0019061 0)
(-0.00856976 0.00190894 0)
(-0.00921049 0.00191131 0)
(-0.00985175 0.00191362 0)
(-0.0104933 0.00191605 0)
(-0.0111349 0.00191865 0)
(-0.0117764 0.00192131 0)
(-0.0124176 0.00192389 0)
(-0.0130582 0.00192614 0)
(-0.0136978 0.00192781 0)
(-0.014336 0.00192859 0)
(-0.0149725 0.00192817 0)
(-0.0156064 0.0019262 0)
(-0.0162373 0.00192235 0)
(-0.0168641 0.00191626 0)
(-0.0174862 0.00190757 0)
(-0.0181024 0.00189591 0)
(-0.0187117 0.00188091 0)
(-0.0193128 0.0018622 0)
(-0.0199044 0.00183942 0)
(-0.020485 0.0018122 0)
(-0.0210533 0.00178019 0)
(-0.0216074 0.00174305 0)
(-0.0221458 0.00170045 0)
(-0.0226666 0.0016521 0)
(-0.023168 0.00159771 0)
(-0.0236482 0.00153704 0)
(-0.024105 0.00146987 0)
(-0.0245367 0.00139604 0)
(-0.024941 0.00131542 0)
(-0.0253162 0.00122792 0)
(-0.0256601 0.00113353 0)
(-0.0259709 0.00103229 0)
(-0.0262466 0.000924274 0)
(-0.0264854 0.000809651 0)
(-0.0266855 0.000688643 0)
(-0.0268454 0.000561539 0)
(-0.0269635 0.000428697 0)
(-0.0270383 0.000290546 0)
(-0.0270689 0.00014758 0)
(-0.0270539 3.5991e-07 0)
(-0.0269928 -0.000150488 0)
(-0.0268847 -0.000304278 0)
(-0.0267293 -0.000460265 0)
(-0.0265263 -0.000617654 0)
(-0.0262759 -0.000775602 0)
(-0.0259783 -0.000933227 0)
(-0.0256341 -0.00108961 0)
(-0.025244 -0.00124382 0)
(-0.024809 -0.0013949 0)
(-0.0243307 -0.00154189 0)
(-0.0238103 -0.00168384 0)
(-0.0232499 -0.00181981 0)
(-0.0226514 -0.00194888 0)
(-0.0220171 -0.00207019 0)
(-0.0213495 -0.00218292 0)
(-0.0206513 -0.0022863 0)
(-0.0199253 -0.00237964 0)
(-0.0191746 -0.00246235 0)
(-0.0184023 -0.00253389 0)
(-0.0176117 -0.00259385 0)
(-0.0168061 -0.00264192 0)
(-0.015989 -0.00267788 0)
(-0.0151638 -0.00270164 0)
(-0.0143339 -0.00271322 0)
(-0.0135027 -0.00271274 0)
(-0.0126735 -0.00270043 0)
(-0.0118497 -0.00267663 0)
(-0.0110343 -0.00264175 0)
(-0.0102305 -0.00259632 0)
(-0.00944107 -0.00254091 0)
(-0.00866873 -0.00247615 0)
(-0.00791602 -0.00240275 0)
(-0.00718529 -0.00232141 0)
(-0.0064787 -0.00223286 0)
(-0.0057982 -0.00213786 0)
(-0.00514556 -0.00203711 0)
(-0.00452237 -0.00193133 0)
(-0.00393001 -0.00182118 0)
(-0.00336973 -0.00170728 0)
(-0.00284261 -0.00159021 0)
(-0.00234957 -0.00147047 0)
(-0.00189145 -0.00134852 0)
(-0.00146894 -0.00122477 0)
(-0.00108264 -0.00109959 0)
(-0.000733064 -0.000973284 0)
(-0.000420642 -0.000846172 0)
(-0.000145706 -0.000718565 0)
(9.15103e-05 -0.000590815 0)
(0.000290896 -0.000463349 0)
(0.0004525 -0.000336721 0)
(0.000576579 -0.000211672 0)
(0.000663663 -8.92129e-05 0)
(0.00071465 2.9282e-05 0)
(0.000730916 0.000141945 0)
(0.00071445 0.000246266 0)
(0.000668029 0.000338915 0)
(0.000595395 0.000415538 0)
(0.000501511 0.000470553 0)
(0.000392806 0.00049699 0)
(0.000277501 0.000486419 0)
(0.000164939 0.000429092 0)
(7.2245e-05 0.000314313 0)
(8.87757e-06 0.000131134 0)
(-1.73824e-05 0.000173236 0)
(-0.000161306 0.000546481 0)
(-0.000411615 0.000916707 0)
(-0.000764063 0.00125737 0)
(-0.00119501 0.00155589 0)
(-0.00169274 0.00180732 0)
(-0.00224496 0.00201204 0)
(-0.00284093 0.00217377 0)
(-0.00347145 0.00229795 0)
(-0.00412876 0.00239068 0)
(-0.00480647 0.00245804 0)
(-0.00549939 0.0025056 0)
(-0.00620341 0.00253821 0)
(-0.00691537 0.00255996 0)
(-0.00763287 0.0025741 0)
(-0.00835414 0.00258316 0)
(-0.00907788 0.00258902 0)
(-0.00980317 0.00259303 0)
(-0.0105293 0.00259607 0)
(-0.0112559 0.00259868 0)
(-0.0119825 0.00260113 0)
(-0.0127087 0.00260348 0)
(-0.0134343 0.00260564 0)
(-0.0141589 0.00260739 0)
(-0.014882 0.00260846 0)
(-0.0156033 0.00260851 0)
(-0.0163222 0.00260714 0)
(-0.017038 0.00260396 0)
(-0.01775 0.00259851 0)
(-0.0184573 0.00259036 0)
(-0.019159 0.00257904 0)
(-0.0198541 0.00256407 0)
(-0.0205413 0.00254499 0)
(-0.0212193 0.0025213 0)
(-0.0218868 0.00249255 0)
(-0.0225422 0.00245824 0)
(-0.0231839 0.00241792 0)
(-0.0238102 0.00237114 0)
(-0.0244193 0.00231747 0)
(-0.0250093 0.0022565 0)
(-0.0255782 0.00218786 0)
(-0.026124 0.00211122 0)
(-0.0266446 0.00202628 0)
(-0.0271379 0.00193279 0)
(-0.0276018 0.00183056 0)
(-0.0280342 0.00171947 0)
(-0.0284329 0.00159946 0)
(-0.0287958 0.00147053 0)
(-0.0291209 0.00133277 0)
(-0.0294062 0.00118634 0)
(-0.02965 0.00103149 0)
(-0.0298503 0.000868541 0)
(-0.0300055 0.000697921 0)
(-0.0301142 0.000520129 0)
(-0.0301751 0.000335753 0)
(-0.0301869 0.000145467 0)
(-0.0301487 -4.99758e-05 0)
(-0.0300598 -0.000249741 0)
(-0.0299197 -0.000452922 0)
(-0.029728 -0.000658542 0)
(-0.0294847 -0.000865563 0)
(-0.02919 -0.00107289 0)
(-0.0288444 -0.0012794 0)
(-0.0284486 -0.0014839 0)
(-0.0280036 -0.00168519 0)
(-0.0275106 -0.00188207 0)
(-0.0269712 -0.00207331 0)
(-0.0263872 -0.00225771 0)
(-0.0257605 -0.00243408 0)
(-0.0250935 -0.00260128 0)
(-0.0243887 -0.00275822 0)
(-0.0236487 -0.00290385 0)
(-0.0228765 -0.00303724 0)
(-0.0220753 -0.00315753 0)
(-0.0212482 -0.00326396 0)
(-0.0203987 -0.00335589 0)
(-0.0195302 -0.0034328 0)
(-0.0186463 -0.00349432 0)
(-0.0177508 -0.00354019 0)
(-0.0168472 -0.00357031 0)
(-0.0159391 -0.00358471 0)
(-0.0150303 -0.00358357 0)
(-0.0141242 -0.00356718 0)
(-0.0132244 -0.00353599 0)
(-0.0123341 -0.00349054 0)
(-0.0114565 -0.00343149 0)
(-0.0105947 -0.00335958 0)
(-0.00975158 -0.00327563 0)
(-0.00892976 -0.00318052 0)
(-0.00813172 -0.00307516 0)
(-0.00735971 -0.00296049 0)
(-0.00661579 -0.00283744 0)
(-0.0059018 -0.00270693 0)
(-0.0052194 -0.00256987 0)
(-0.00457006 -0.00242708 0)
(-0.00395504 -0.00227935 0)
(-0.0033755 -0.00212741 0)
(-0.0028324 -0.00197191 0)
(-0.0023266 -0.00181342 0)
(-0.00185885 -0.00165245 0)
(-0.00142977 -0.00148946 0)
(-0.00103992 -0.00132487 0)
(-0.000689751 -0.00115906 0)
(-0.000379637 -0.000992453 0)
(-0.000109834 -0.00082551 0)
(0.000119526 -0.000658804 0)
(0.000308478 -0.000493074 0)
(0.000457279 -0.000329311 0)
(0.000566476 -0.000168852 0)
(0.000636999 -1.35035e-05 0)
(0.000670276 0.000134313 0)
(0.000668373 0.000271381 0)
(0.000634158 0.000393481 0)
(0.000571488 0.000495164 0)
(0.000485461 0.000569507 0)
(0.000382676 0.000607904 0)
(0.000271584 0.000599912 0)
(0.000161847 0.000533236 0)
(7.09394e-05 0.00039386 0)
(8.70335e-06 0.000166133 0)
(-2.04836e-05 0.000253818 0)
(-0.000188537 0.000762028 0)
(-0.000477859 0.00124451 0)
(-0.000882012 0.00167834 0)
(-0.00137229 0.00205362 0)
(-0.00193478 0.00236765 0)
(-0.0025554 0.00262282 0)
(-0.00322227 0.0028246 0)
(-0.00392544 0.00298008 0)
(-0.00465671 0.00309687 0)
(-0.00540937 0.00318237 0)
(-0.00617805 0.00324336 0)
(-0.00695847 0.00328572 0)
(-0.00774735 0.00331438 0)
(-0.00854216 0.00333329 0)
(-0.009341 0.00334554 0)
(-0.0101425 0.00335343 0)
(-0.0109455 0.00335862 0)
(-0.0117493 0.0033622 0)
(-0.0125532 0.00336486 0)
(-0.0133568 0.00336693 0)
(-0.0141595 0.00336852 0)
(-0.014961 0.00336951 0)
(-0.0157606 0.00336966 0)
(-0.016558 0.00336862 0)
(-0.0173525 0.00336598 0)
(-0.0181433 0.00336127 0)
(-0.0189298 0.00335397 0)
(-0.0197109 0.00334354 0)
(-0.0204858 0.00332942 0)
(-0.0212533 0.00331104 0)
(-0.0220122 0.00328782 0)
(-0.022761 0.00325914 0)
(-0.0234985 0.00322444 0)
(-0.0242229 0.00318311 0)
(-0.0249326 0.00313458 0)
(-0.0256258 0.00307828 0)
(-0.0263006 0.00301366 0)
(-0.0269551 0.00294022 0)
(-0.0275872 0.00285748 0)
(-0.0281948 0.00276498 0)
(-0.0287756 0.00266235 0)
(-0.0293276 0.00254926 0)
(-0.0298484 0.00242543 0)
(-0.0303359 0.00229068 0)
(-0.0307877 0.0021449 0)
(-0.0312018 0.00198804 0)
(-0.0315759 0.00182017 0)
(-0.031908 0.00164145 0)
(-0.0321961 0.00145212 0)
(-0.0324383 0.00125255 0)
(-0.0326329 0.0010432 0)
(-0.0327782 0.000824612 0)
(-0.0328729 0.00059747 0)
(-0.0329157 0.000362538 0)
(-0.0329055 0.000120684 0)
(-0.0328414 -0.000127125 0)
(-0.0327228 -0.000379833 0)
(-0.0325494 -0.000636299 0)
(-0.032321 -0.0008953 0)
(-0.0320376 -0.00115555 0)
(-0.0316997 -0.00141569 0)
(-0.0313079 -0.00167432 0)
(-0.0308631 -0.00192999 0)
(-0.0303664 -0.00218125 0)
(-0.0298193 -0.0024266 0)
(-0.0292235 -0.00266457 0)
(-0.028581 -0.0028937 0)
(-0.0278939 -0.00311254 0)
(-0.0271648 -0.00331971 0)
(-0.0263964 -0.0035139 0)
(-0.0255915 -0.00369386 0)
(-0.0247534 -0.00385846 0)
(-0.0238853 -0.00400667 0)
(-0.0229907 -0.00413758 0)
(-0.0220731 -0.00425044 0)
(-0.0211364 -0.00434463 0)
(-0.0201842 -0.0044197 0)
(-0.0192204 -0.00447537 0)
(-0.0182489 -0.00451154 0)
(-0.0172736 -0.00452825 0)
(-0.0162981 -0.00452574 0)
(-0.0153264 -0.00450439 0)
(-0.0143619 -0.00446475 0)
(-0.0134081 -0.0044075 0)
(-0.0124685 -0.00433347 0)
(-0.0115462 -0.00424356 0)
(-0.0106441 -0.00413879 0)
(-0.00976498 -0.00402025 0)
(-0.00891147 -0.00388905 0)
(-0.00808585 -0.00374635 0)
(-0.00729023 -0.00359329 0)
(-0.00652649 -0.00343102 0)
(-0.00579631 -0.0032606 0)
(-0.00510118 -0.00308308 0)
(-0.00444237 -0.00289942 0)
(-0.00382103 -0.00271048 0)
(-0.00323813 -0.00251706 0)
(-0.0026945 -0.00231986 0)
(-0.00219089 -0.00211949 0)
(-0.0017279 -0.00191651 0)
(-0.0013061 -0.00171141 0)
(-0.000925906 -0.0015047 0)
(-0.000587694 -0.00129686 0)
(-0.000291712 -0.00108849 0)
(-3.80834e-05 -0.000880305 0)
(0.000173237 -0.000673237 0)
(0.000342519 -0.000468533 0)
(0.000470329 -0.00026787 0)
(0.000557622 -7.34954e-05 0)
(0.00060586 0.000111598 0)
(0.00061715 0.000283473 0)
(0.00059441 0.00043701 0)
(0.000541556 0.000565647 0)
(0.00046376 0.000661097 0)
(0.000367718 0.000713083 0)
(0.000262008 0.000709097 0)
(0.000156476 0.000634252 0)
(6.86151e-05 0.000471249 0)
(8.4079e-06 0.000200174 0)
(-2.33165e-05 0.000346678 0)
(-0.000213573 0.00100848 0)
(-0.000539101 0.00161678 0)
(-0.000991492 0.00215326 0)
(-0.00153734 0.00261174 0)
(-0.00216056 0.00299268 0)
(-0.0028453 0.00330114 0)
(-0.00357848 0.00354488 0)
(-0.00434939 0.00373299 0)
(-0.00514937 0.00387478 0)
(-0.0059714 0.00397915 0)
(-0.00680993 0.00405413 0)
(-0.00766057 0.00410667 0)
(-0.00851994 0.00414257 0)
(-0.00938542 0.00416648 0)
(-0.010255 0.00418205 0)
(-0.0111273 0.00419198 0)
(-0.0120009 0.00419824 0)
(-0.0128752 0.00420214 0)
(-0.0137492 0.0042045 0)
(-0.0146225 0.00420572 0)
(-0.0154943 0.00420593 0)
(-0.0163641 0.00420502 0)
(-0.0172313 0.00420269 0)
(-0.0180953 0.00419853 0)
(-0.0189552 0.00419206 0)
(-0.0198102 0.0041827 0)
(-0.0206595 0.00416985 0)
(-0.0215019 0.00415284 0)
(-0.0223363 0.00413102 0)
(-0.0231615 0.00410368 0)
(-0.0239761 0.00407012 0)
(-0.0247785 0.00402964 0)
(-0.0255672 0.00398152 0)
(-0.0263404 0.00392507 0)
(-0.0270963 0.0038596 0)
(-0.0278329 0.00378444 0)
(-0.0285482 0.00369897 0)
(-0.0292401 0.00360258 0)
(-0.0299063 0.00349473 0)
(-0.0305448 0.00337492 0)
(-0.0311531 0.00324273 0)
(-0.031729 0.0030978 0)
(-0.0322702 0.00293986 0)
(-0.0327743 0.00276872 0)
(-0.033239 0.00258431 0)
(-0.0336622 0.00238663 0)
(-0.0340416 0.00217582 0)
(-0.0343752 0.00195212 0)
(-0.034661 0.0017159 0)
(-0.0348972 0.00146763 0)
(-0.035082 0.00120791 0)
(-0.0352139 0.000937484 0)
(-0.0352915 0.000657183 0)
(-0.0353137 0.000367976 0)
(-0.0352796 7.09424e-05 0)
(-0.0351883 -0.000232731 0)
(-0.0350393 -0.000541754 0)
(-0.0348325 -0.000854739 0)
(-0.0345678 -0.00117021 0)
(-0.0342454 -0.00148662 0)
(-0.0338658 -0.00180235 0)
(-0.0334298 -0.00211573 0)
(-0.0329386 -0.00242504 0)
(-0.0323933 -0.00272854 0)
(-0.0317956 -0.00302449 0)
(-0.0311474 -0.00331112 0)
(-0.0304508 -0.00358673 0)
(-0.0297082 -0.00384962 0)
(-0.0289222 -0.00409817 0)
(-0.0280957 -0.00433082 0)
(-0.0272318 -0.00454614 0)
(-0.0263338 -0.00474278 0)
(-0.0254052 -0.00491954 0)
(-0.0244496 -0.00507538 0)
(-0.0234708 -0.0052094 0)
(-0.0224728 -0.00532091 0)
(-0.0214595 -0.00540939 0)
(-0.0204349 -0.00547452 0)
(-0.0194032 -0.00551619 0)
(-0.0183683 -0.00553448 0)
(-0.0173342 -0.0055297 0)
(-0.0163048 -0.00550231 0)
(-0.0152839 -0.00545299 0)
(-0.0142753 -0.00538257 0)
(-0.0132822 -0.00529205 0)
(-0.0123081 -0.00518252 0)
(-0.011356 -0.00505522 0)
(-0.0104287 -0.00491144 0)
(-0.00952896 -0.00475254 0)
(-0.00865901 -0.0045799 0)
(-0.00782103 -0.00439491 0)
(-0.00701692 -0.0041989 0)
(-0.00624834 -0.00399319 0)
(-0.00551675 -0.003779 0)
(-0.0048234 -0.00355747 0)
(-0.00416939 -0.00332964 0)
(-0.00355562 -0.00309643 0)
(-0.0029829 -0.00285869 0)
(-0.00245188 -0.00261713 0)