/*--------------------------------*- C++ -*----------------------------------*\
| =========                 |                                                 |
| \\      /  F ield         | OpenFOAM: The Open Source CFD Toolbox           |
|  \\    /   O peration     | Version:  2406                                  |
|   \\  /    A nd           | Website:  www.openfoam.com                      |
|    \\/     M anipulation  |                                                 |
\*---------------------------------------------------------------------------*/
FoamFile
{
    version     2.0;
    format      ascii;
    arch        "LSB;label=32;scalar=64";
    class       volScalarField;
    location    "25.7";
    object      p;
}
// * * * * * * * * * * * * * * * * * * * * * * * * * * * * * * * * * * * * * //

dimensions      [0 2 -2 0 0 0 0];

internalField   nonuniform List<scalar> 
3600
(
0.0336807
0.0336842
0.0336726
0.0336537
0.033621
0.0335796
0.0335272
0.0334655
0.0333933
0.0333097
0.0332134
0.0331028
0.032977
0.0328346
0.0326754
0.0324987
0.0323054
0.0320968
0.0318766
0.0316505
0.031428
0.0312215
0.0310474
0.0309251
0.0308756
0.0309189
0.0310717
0.0313439
0.0317366
0.032239
0.0328274
0.0334642
0.0340991
0.0346714
0.0351154
0.0353678
0.0353757
0.0351068
0.0345553
0.033747
0.0327347
0.0315941
0.0304074
0.0292558
0.0282021
0.0272921
0.0265435
0.0259608
0.0255255
0.0252201
0.0250119
0.0248837
0.0248037
0.0247673
0.0247464
0.0247517
0.0247553
0.0247823
0.0247971
0.0248289
0.0336771
0.0336804
0.033668
0.0336498
0.0336191
0.0335806
0.0335321
0.0334749
0.0334078
0.0333301
0.0332412
0.0331395
0.0330248
0.0328958
0.0327522
0.032593
0.0324184
0.0322286
0.0320262
0.0318154
0.0316037
0.0314018
0.0312242
0.0310879
0.0310128
0.0310185
0.0311233
0.03134
0.0316729
0.0321149
0.0326455
0.0332299
0.0338194
0.0343545
0.0347701
0.0350023
0.0349979
0.0347239
0.034174
0.0333745
0.0323795
0.0312663
0.0301187
0.029018
0.0280246
0.0271801
0.0264955
0.025969
0.0255773
0.0253012
0.0251084
0.0249848
0.0249014
0.0248575
0.024826
0.0248206
0.0248111
0.0248273
0.0248288
0.0248607
0.033689
0.0336924
0.0336799
0.0336613
0.0336311
0.0335933
0.0335465
0.0334913
0.033427
0.0333523
0.0332669
0.0331687
0.0330576
0.0329318
0.0327906
0.0326316
0.0324538
0.0322555
0.0320374
0.0318017
0.0315549
0.0313072
0.0310745
0.030877
0.0307391
0.0306852
0.0307375
0.0309113
0.0312131
0.0316365
0.0321613
0.0327522
0.0333597
0.0339227
0.0343735
0.0346449
0.0346793
0.0344388
0.0339125
0.0331236
0.0321256
0.0309986
0.0298321
0.0287149
0.0277148
0.0268778
0.0262166
0.0257268
0.0253796
0.0251499
0.0249998
0.0249121
0.0248558
0.0248315
0.0248121
0.0248148
0.0248078
0.0248278
0.0248281
0.0248717
0.0337083
0.0337094
0.0336968
0.0336773
0.033649
0.0336131
0.0335706
0.0335198
0.0334617
0.0333932
0.0333148
0.0332233
0.0331185
0.0329968
0.0328561
0.0326907
0.0324964
0.0322679
0.0320029
0.0317021
0.0313725
0.0310273
0.0306869
0.0303762
0.030124
0.0299584
0.0299046
0.0299811
0.0301968
0.0305483
0.0310184
0.0315747
0.0321706
0.0327473
0.0332375
0.0335725
0.0336904
0.0335461
0.0331203
0.0324268
0.0315121
0.0304522
0.0293375
0.028261
0.0272968
0.0264973
0.0258788
0.0254384
0.0251449
0.0249702
0.0248713
0.0248283
0.0248071
0.0248088
0.0248056
0.0248185
0.024814
0.0248359
0.0248327
0.0248831
0.0337426
0.0337391
0.0337262
0.0337045
0.0336772
0.0336415
0.0336016
0.0335529
0.0334978
0.0334309
0.0333529
0.033258
0.0331446
0.0330054
0.0328343
0.0326209
0.0323565
0.0320325
0.0316463
0.0312009
0.0307088
0.0301899
0.0296717
0.0291861
0.0287671
0.0284469
0.0282539
0.0282086
0.0283222
0.0285941
0.0290104
0.0295432
0.0301504
0.0307773
0.0313594
0.0318272
0.0321143
0.0321658
0.0319483
0.0314591
0.0307283
0.0298198
0.0288179
0.027817
0.0268987
0.0261261
0.0255265
0.0251055
0.0248372
0.0246952
0.0246347
0.0246328
0.0246512
0.0246883
0.0247136
0.0247487
0.0247591
0.0247917
0.0247929
0.024849
0.0337862
0.0337756
0.0337628
0.0337383
0.0337133
0.0336783
0.0336422
0.0335957
0.0335434
0.0334759
0.0333934
0.0332857
0.0331477
0.0329652
0.0327265
0.0324146
0.0320176
0.0315262
0.0309415
0.0302727
0.0295408
0.028774
0.0280079
0.0272804
0.0266304
0.0260935
0.0257008
0.0254751
0.0254305
0.02557
0.0258848
0.0263536
0.0269424
0.0276047
0.0282834
0.0289138
0.0294288
0.0297661
0.0298773
0.0297372
0.0293505
0.0287557
0.0280182
0.0272227
0.0264516
0.0257767
0.0252379
0.0248544
0.0246112
0.02449
0.0244505
0.0244718
0.0245146
0.0245756
0.0246225
0.0246751
0.0246981
0.024738
0.0247428
0.0247978
0.0338402
0.03382
0.0338075
0.0337787
0.0337553
0.0337189
0.0336838
0.0336345
0.0335775
0.0334975
0.0333928
0.0332454
0.033044
0.0327653
0.0323912
0.0318997
0.0312797
0.030526
0.0296491
0.028669
0.0276185
0.0265364
0.0254674
0.0244559
0.0235449
0.0227716
0.0221671
0.0217537
0.0215454
0.0215461
0.0217506
0.0221434
0.0226993
0.0233826
0.0241483
0.0249423
0.0257045
0.0263728
0.0268888
0.0272066
0.0273005
0.0271729
0.0268551
0.0264058
0.0258958
0.025399
0.0249694
0.0246445
0.0244281
0.0243171
0.024282
0.0243081
0.0243595
0.0244325
0.024494
0.0245603
0.0245964
0.0246438
0.0246545
0.0247057
0.0339005
0.0338685
0.033857
0.0338236
0.0338026
0.0337635
0.0337275
0.0336704
0.0336
0.0334923
0.0333412
0.0331177
0.0328024
0.0323619
0.0317739
0.0310158
0.0300832
0.0289815
0.0277359
0.0263809
0.0249639
0.0235348
0.0221464
0.0208465
0.0196786
0.0186774
0.0178703
0.0172753
0.0169035
0.0167576
0.016834
0.0171217
0.017604
0.0182568
0.01905
0.0199455
0.0208991
0.0218599
0.0227729
0.0235836
0.0242432
0.0247171
0.024991
0.0250775
0.0250118
0.0248497
0.0246472
0.0244586
0.0243122
0.0242286
0.0241977
0.0242182
0.0242626
0.0243307
0.0243916
0.0244589
0.024499
0.0245466
0.0245597
0.0246029
0.0339618
0.0339156
0.0339057
0.0338659
0.0338455
0.0337992
0.0337553
0.0336784
0.0335762
0.0334124
0.0331743
0.0328189
0.0323185
0.031632
0.0307386
0.0296224
0.028294
0.0267768
0.0251162
0.0233648
0.0215847
0.0198347
0.0181708
0.0166392
0.0152777
0.0141134
0.0131654
0.0124441
0.0119546
0.0116957
0.0116629
0.0118473
0.0122377
0.0128195
0.0135756
0.0144851
0.0155231
0.0166589
0.0178552
0.0190672
0.0202432
0.0213285
0.0222702
0.0230277
0.0235788
0.0239304
0.0241119
0.0241768
0.0241747
0.0241572
0.0241456
0.0241607
0.0241909
0.0242433
0.0242928
0.0243512
0.0243881
0.024431
0.0244441
0.0244786
0.0340188
0.0339566
0.0339492
0.0339021
0.0338809
0.0338225
0.0337621
0.0336499
0.0334915
0.0332347
0.032858
0.0323039
0.0315395
0.0305223
0.0292415
0.0276979
0.0259255
0.0239718
0.021905
0.0197941
0.0177108
0.0157152
0.0138591
0.0121794
0.0107034
0.00944679
0.00841892
0.00762189
0.00705489
0.0067129
0.00658997
0.00667791
0.00696877
0.0074536
0.00812438
0.00897261
0.00998998
0.011166
0.0124865
0.0139298
0.0154631
0.0170389
0.0185937
0.0200524
0.0213359
0.0223801
0.0231488
0.0236527
0.0239354
0.024072
0.0241246
0.0241516
0.0241697
0.0242
0.0242281
0.0242668
0.0242907
0.0243215
0.0243299
0.0243551
0.0340584
0.0339782
0.0339733
0.0339157
0.0338888
0.0338085
0.0337164
0.0335447
0.0332945
0.0328952
0.032316
0.0314879
0.0303796
0.0289565
0.0272297
0.0252259
0.0230093
0.0206533
0.0182451
0.0158626
0.0135772
0.0114408
0.00949334
0.0077573
0.00624711
0.00496664
0.00391655
0.00309216
0.0024885
0.00209793
0.00191367
0.00192772
0.00213367
0.00252523
0.00309871
0.00385195
0.00478608
0.00590399
0.00720989
0.00870559
0.0103858
0.0122312
0.0141995
0.01622
0.0181911
0.0199924
0.0215053
0.0226521
0.0234149
0.023853
0.0240581
0.0241391
0.0241602
0.0241707
0.0241735
0.0241864
0.0241909
0.0242053
0.0242058
0.024223
0.0340715
0.0339723
0.03397
0.033899
0.0338606
0.0337471
0.0336045
0.0333437
0.0329593
0.0323612
0.0315123
0.0303384
0.0288206
0.0269444
0.0247528
0.0223051
0.0196964
0.0170195
0.0143709
0.0118246
0.00944133
0.00725671
0.0052945
0.00356214
0.00206242
0.000790305
-0.000258963
-0.00109353
-0.00171968
-0.00214547
-0.00237703
-0.00242154
-0.00228415
-0.00196994
-0.00148109
-0.000817877
2.37929e-05
0.00105176
0.00227869
0.00372029
0.00539235
0.00730472
0.00945086
0.0117958
0.0142614
0.0167211
0.0190064
0.020944
0.0224035
0.0233558
0.0238708
0.0240929
0.0241544
0.0241568
0.024135
0.0241183
0.024098
0.0240921
0.0240814
0.0240919
0.0340365
0.0339169
0.0339153
0.033825
0.033765
0.0336013
0.0333825
0.0329957
0.0324282
0.0315722
0.0303906
0.0288144
0.026849
0.0245109
0.0218819
0.0190533
0.0161439
0.0132536
0.0104747
0.00786595
0.00546991
0.00330297
0.00137332
-0.000324053
-0.00179406
-0.00304671
-0.00408863
-0.00492855
-0.00557185
-0.00602547
-0.00629393
-0.00638312
-0.00629697
-0.00603991
-0.00561383
-0.00501931
-0.00425282
-0.00330691
-0.00216821
-0.000817429
0.000770018
0.00262157
0.00475954
0.0071908
0.00988632
0.0127633
0.015667
0.0183814
0.0206691
0.0223568
0.0234027
0.023922
0.0241013
0.024125
0.0240873
0.0240417
0.0239952
0.0239673
0.0239439
0.023949
0.0339404
0.0338003
0.0337972
0.0336818
0.033589
0.0333565
0.0330331
0.032481
0.0316813
0.0305135
0.0289503
0.0269395
0.0245226
0.0217537
0.0187531
0.0156358
0.0125309
0.00953103
0.00671238
0.00411157
0.00175098
-0.0003706
-0.00225657
-0.00391977
-0.00536836
-0.00661356
-0.00766088
-0.00851747
-0.00918627
-0.00967207
-0.00997708
-0.0101055
-0.0100597
-0.00984343
-0.00945863
-0.00890676
-0.00818621
-0.00729231
-0.00621518
-0.0049385
-0.0034389
-0.00168486
0.000358846
0.00272701
0.00543602
0.00846528
0.0117228
0.0150264
0.0181035
0.020655
0.0224634
0.0235066
0.0239501
0.0240562
0.0240231
0.0239536
0.0238809
0.0238302
0.0237931
0.0237928
0.0337548
0.0335938
0.0335845
0.033435
0.0332941
0.0329701
0.0325105
0.0317534
0.0306773
0.0291571
0.0271862
0.0247404
0.0219046
0.0187705
0.0154892
0.0121858
0.00898472
0.00595926
0.00316305
0.000609263
-0.00169711
-0.00377027
-0.00562006
-0.00726262
-0.00870573
-0.00995923
-0.0110258
-0.0119101
-0.012612
-0.0131339
-0.0134755
-0.0136394
-0.0136263
-0.0134393
-0.0130801
-0.0125508
-0.0118518
-0.0109816
-0.00993495
-0.00870104
-0.00726285
-0.00559319
-0.00365736
-0.00141046
0.00118968
0.00417282
0.0075199
0.011131
0.0147846
0.0181469
0.0208522
0.0226595
0.0235919
0.0239018
0.0239163
0.0238358
0.0237398
0.0236659
0.0236148
0.023608
0.0334668
0.0332855
0.0332653
0.0330734
0.0328692
0.0324322
0.0318069
0.0308105
0.0294244
0.0275295
0.0251499
0.0222978
0.0191027
0.0156875
0.0122208
0.00882277
0.00560097
0.00260273
-0.000141695
-0.00263954
-0.00489801
-0.0069389
-0.00877386
-0.0104188
-0.0118787
-0.0131606
-0.0142636
-0.0151892
-0.0159345
-0.0164992
-0.016881
-0.0170804
-0.017097
-0.0169325
-0.0165884
-0.0160671
-0.0153704
-0.0144992
-0.0134526
-0.0122257
-0.0108093
-0.00918444
-0.00732504
-0.00518918
-0.00272871
0.000112938
0.00337045
0.00703066
0.0109716
0.0149237
0.0184787
0.0212058
0.0228762
0.0236002
0.0237456
0.0236808
0.023568
0.023469
0.0234036
0.023387
0.0330473
0.0328459
0.0328077
0.0325633
0.0322789
0.0317074
0.0308901
0.0296288
0.027915
0.0256452
0.0228823
0.019678
0.0162012
0.0125946
0.00902973
0.00560918
0.00241687
-0.000527129
-0.00321261
-0.00566184
-0.00788863
-0.0099177
-0.0117591
-0.0134263
-0.0149203
-0.0162447
-0.0173952
-0.0183704
-0.0191646
-0.0197756
-0.0201991
-0.020434
-0.0204785
-0.0203335
-0.0199996
-0.0194794
-0.0187752
-0.0178896
-0.016825
-0.0155806
-0.0141547
-0.0125368
-0.0107121
-0.00864837
-0.00630517
-0.00362005
-0.000532375
0.00300753
0.00697739
0.0112254
0.0154136
0.0190392
0.0216332
0.0230254
0.0234728
0.0234665
0.0233552
0.0232272
0.0231463
0.0231154
0.0324901
0.0322703
0.0322078
0.031903
0.0315246
0.0308023
0.0297748
0.0282357
0.0261933
0.0235687
0.0204675
0.0169784
0.0133008
0.00958313
0.00598761
0.00259125
-0.000547518
-0.00343289
-0.00606936
-0.00848852
-0.0107061
-0.0127462
-0.0146152
-0.0163231
-0.0178665
-0.0192458
-0.0204533
-0.0214853
-0.0223336
-0.0229946
-0.0234619
-0.0237333
-0.0238056
-0.0236788
-0.0233529
-0.0228299
-0.0221128
-0.0212047
-0.0201103
-0.0188318
-0.0173732
-0.0157308
-0.0139009
-0.0118627
-0.00958984
-0.00702765
-0.00411316
-0.000764689
0.00306658
0.00734839
0.0118763
0.0162058
0.0197552
0.022024
0.0230311
0.0231734
0.023091
0.0229361
0.0228353
0.0227844
0.0317743
0.0315372
0.0314431
0.0310701
0.0305852
0.0297003
0.0284528
0.0266362
0.0242813
0.0213396
0.0179586
0.014258
0.0104554
0.00669308
0.00311479
-0.000230808
-0.00330867
-0.00614217
-0.00874493
-0.011153
-0.0133804
-0.0154488
-0.0173599
-0.0191196
-0.0207208
-0.0221609
-0.0234293
-0.0245206
-0.0254248
-0.0261365
-0.0266481
-0.0269561
-0.0270564
-0.0269477
-0.0266298
-0.0261039
-0.0253734
-0.0244412
-0.023314
-0.0219952
-0.0204932
-0.0188085
-0.0169467
-0.0148968
-0.0126482
-0.0101593
-0.00738009
-0.00422237
-0.000602004
0.00353846
0.00813381
0.0128838
0.0172353
0.0204818
0.0222756
0.0227831
0.0227441
0.0225885
0.0224563
0.0223811
0.030908
0.0306565
0.0305257
0.0300806
0.0294823
0.0284313
0.026965
0.0248844
0.022247
0.019037
0.0154396
0.0115964
0.00773162
0.00397204
0.000438435
-0.00284784
-0.00587077
-0.0086673
-0.0112553
-0.0136714
-0.0159263
-0.0180376
-0.0200021
-0.0218224
-0.0234878
-0.0249932
-0.0263261
-0.0274792
-0.028441
-0.0292048
-0.0297617
-0.030107
-0.0302355
-0.0301452
-0.0298353
-0.0293063
-0.0285622
-0.0276056
-0.0264447
-0.0250832
-0.0235328
-0.0217962
-0.0198862
-0.0177986
-0.0155369
-0.0130736
-0.0103777
-0.00737059
-0.00396256
-4.58313e-05
0.00442472
0.00931202
0.0142037
0.0183561
0.0210789
0.0222227
0.0223015
0.0221625
0.0220044
0.0218927
0.029885
0.0296217
0.029449
0.0289294
0.0282144
0.0269998
0.0253247
0.0230041
0.0201234
0.0166992
0.0129472
0.00902156
0.00514326
0.00141803
-0.00205721
-0.00528483
-0.00826299
-0.0110371
-0.0136255
-0.0160633
-0.0183563
-0.0205182
-0.0225414
-0.0244253
-0.0261564
-0.0277279
-0.0291254
-0.0303403
-0.0313598
-0.0321758
-0.0327782
-0.033161
-0.0333181
-0.0332464
-0.0329449
-0.0324136
-0.0316569
-0.0306773
-0.0294843
-0.0280816
-0.0264837
-0.0246937
-0.0227298
-0.0205913
-0.0182935
-0.0158196
-0.0131595
-0.0102509
-0.00701783
-0.00333562
0.000907587
0.00571327
0.0108622
0.0156947
0.0193911
0.0213327
0.0217746
0.0216115
0.0214767
0.0212987
0.0287318
0.0284611
0.0282444
0.0276528
0.0268237
0.0254561
0.0235912
0.0210631
0.0179838
0.0143998
0.0105487
0.00658885
0.00273065
-0.000943349
-0.0043583
-0.0075356
-0.0104828
-0.0132496
-0.0158525
-0.0183234
-0.0206632
-0.0228816
-0.0249673
-0.0269173
-0.0287158
-0.0303548
-0.0318182
-0.0330963
-0.0341747
-0.0350442
-0.0356931
-0.0361142
-0.0363004
-0.0362475
-0.0359545
-0.0354205
-0.0346511
-0.0336483
-0.0324238
-0.0309806
-0.0293365
-0.0274936
-0.0254751
-0.0232805
-0.0209345
-0.0184269
-0.0157667
-0.0129081
-0.0097993
-0.00632065
-0.00233509
0.00225718
0.0074152
0.012652
0.0172076
0.0200167
0.02111
0.0209256
0.0208489
0.0205874
0.0274579
0.0271837
0.0269217
0.0262619
0.0253248
0.023819
0.0217878
0.0190879
0.0158547
0.0121602
0.00825576
0.00429745
0.000480665
-0.00313449
-0.00649232
-0.00962839
-0.0125559
-0.0153258
-0.0179514
-0.0204607
-0.0228501
-0.0251258
-0.0272736
-0.0292887
-0.0311536
-0.032859
-0.0343878
-0.0357289
-0.0368666
-0.0377898
-0.0384859
-0.0389457
-0.0391614
-0.0391273
-0.0388428
-0.0383059
-0.0375239
-0.0364978
-0.0352426
-0.03376
-0.0320719
-0.0301785
-0.0281079
-0.0258579
-0.0234607
-0.0209085
-0.0182259
-0.0153807
-0.0123481
-0.00902557
-0.00528077
-0.000958407
0.00403062
0.00941707
0.0145799
0.0182794
0.020151
0.0201375
0.0200615
0.0197542
0.0261057
0.0258339
0.0255282
0.0248083
0.0237737
0.0221499
0.0199807
0.0171471
0.0138033
0.0100422
0.0061209
0.00218901
-0.00157514
-0.00513152
-0.00843997
-0.0115458
-0.0144649
-0.0172473
-0.0199025
-0.0224546
-0.0248959
-0.02723
-0.0294402
-0.0315204
-0.0334519
-0.0352245
-0.0368197
-0.0382251
-0.0394235
-0.0404021
-0.0411467
-0.0416461
-0.041892
-0.0418768
-0.0416005
-0.0410599
-0.0402644
-0.039214
-0.0379274
-0.0364049
-0.0346734
-0.0327309
-0.0306109
-0.0283079
-0.025861
-0.023261
-0.0205452
-0.0176901
-0.0146961
-0.0114824
-0.00793825
-0.00389131
0.000830103
0.00615567
0.0116428
0.0161511
0.0187906
0.0192536
0.0190786
0.0187919
0.024695
0.0244306
0.0240835
0.0233117
0.0221916
0.0204705
0.0181908
0.0152584
0.0118409
0.00804735
0.00413495
0.000244501
-0.00346292
-0.00696387
-0.0102305
-0.013314
-0.0162316
-0.0190306
-0.0217171
-0.0243115
-0.0268028
-0.0291924
-0.0314623
-0.033605
-0.0356011
-0.0374393
-0.0391001
-0.0405693
-0.0418285
-0.0428625
-0.0436559
-0.0441951
-0.0444714
-0.0444749
-0.0442067
-0.0436617
-0.0428521
-0.0417763
-0.0404578
-0.038895
-0.0371208
-0.0351302
-0.0329637
-0.0306109
-0.0281186
-0.0254727
-0.0227217
-0.0198447
-0.0168648
-0.013721
-0.0103321
-0.0065365
-0.00211702
0.00299259
0.008567
0.0136719
0.0170456
0.0181858
0.0179144
0.0176709
0.0232769
0.0230265
0.0226427
0.0218303
0.0206393
0.018844
0.0164823
0.0134848
0.0100264
0.00622869
0.00234383
-0.00149666
-0.00514805
-0.00859976
-0.0118332
-0.0149027
-0.017825
-0.0206447
-0.0233644
-0.0260012
-0.0285417
-0.0309856
-0.0333137
-0.0355179
-0.0375782
-0.0394819
-0.0412087
-0.0427424
-0.0440631
-0.0451533
-0.0459963
-0.0465758
-0.0468828
-0.046905
-0.0466446
-0.0460945
-0.0452702
-0.0441679
-0.0428166
-0.0412123
-0.0393953
-0.0373567
-0.0351455
-0.0327456
-0.0302123
-0.0275246
-0.0247412
-0.0218389
-0.0188602
-0.0157587
-0.0124854
-0.00890393
-0.00478154
1.85428e-05
0.00550218
0.0109249
0.0149875
0.0168173
0.0166165
0.0163606
0.0218731
0.0216418
0.0212257
0.0203827
0.0191341
0.017285
0.0148654
0.0118298
0.00835478
0.00457162
0.000724241
-0.00306403
-0.00666323
-0.0100719
-0.0132785
-0.0163384
-0.0192675
-0.0221073
-0.0248577
-0.027533
-0.0301183
-0.0326118
-0.034994
-0.0372558
-0.0393769
-0.0413433
-0.0431337
-0.0447298
-0.0461106
-0.0472554
-0.048147
-0.0487658
-0.0491029
-0.049143
-0.0488902
-0.0483342
-0.0474948
-0.0463654
-0.0449812
-0.0433349
-0.0414754
-0.0393892
-0.0371351
-0.0346904
-0.0321207
-0.0293958
-0.0265859
-0.02366
-0.0206789
-0.0176027
-0.0144156
-0.0110088
-0.00715965
-0.00270683
0.00255672
0.00803917
0.0126877
0.0151133
0.0152219
0.0148574
0.0205348
0.0203291
0.0198876
0.0190258
0.0177344
0.0158525
0.0133985
0.0103498
0.00687925
0.00312575
-0.000677409
-0.00441365
-0.00796582
-0.0113383
-0.0145247
-0.0175795
-0.020518
-0.0233783
-0.0261585
-0.0288701
-0.0314977
-0.0340381
-0.0364719
-0.038789
-0.040969
-0.0429961
-0.0448487
-0.0465057
-0.0479454
-0.0491438
-0.0500832
-0.0507403
-0.0511072
-0.0511645
-0.0509192
-0.050357
-0.0495029
-0.048346
-0.0469294
-0.0452409
-0.0433396
-0.041206
-0.0389108
-0.036423
-0.0338209
-0.0310634
-0.0282334
-0.0252886
-0.0223074
-0.0192483
-0.0161289
-0.0128619
-0.00925635
-0.00514928
-0.000195595
0.00515108
0.0102071
0.013114
0.0137043
0.0131666
0.0192766
0.0191009
0.0186396
0.0177686
0.0164462
0.0145477
0.0120772
0.00903283
0.00557988
0.00186345
-0.00189493
-0.00558294
-0.00909436
-0.0124364
-0.0156064
-0.0186573
-0.0216038
-0.024481
-0.0272859
-0.0300281
-0.0326918
-0.035273
-0.0377524
-0.0401191
-0.0423524
-0.044435
-0.0463448
-0.048058
-0.0495524
-0.0508003
-0.0517843
-0.0524768
-0.0528714
-0.0529441
-0.0527056
-0.0521365
-0.0512682
-0.050084
-0.0486362
-0.0469062
-0.0449648
-0.0427848
-0.0404508
-0.0379219
-0.0352915
-0.0325052
-0.0296618
-0.0267036
-0.0237279
-0.0206838
-0.0176225
-0.0144683
-0.0110773
-0.00729257
-0.002703
0.00237595
0.00761455
0.0108884
0.0119974
0.0112952
0.0181442
0.018004
0.0175309
0.0166617
0.0153214
0.0134233
0.0109537
0.00793076
0.00450792
0.00083553
-0.00287732
-0.00652061
-0.00999702
-0.0133141
-0.016472
-0.0195211
-0.0224758
-0.0253683
-0.0281954
-0.0309648
-0.0336611
-0.0362791
-0.0388001
-0.0412119
-0.0434944
-0.0456282
-0.0475911
-0.0493562
-0.0509015
-0.0521953
-0.0532209
-0.053946
-0.0543667
-0.0544534
-0.0542216
-0.0536455
-0.0527641
-0.0515535
-0.0500767
-0.0483067
-0.0463278
-0.0441032
-0.0417332
-0.0391654
-0.0365103
-0.0336988
-0.0308481
-0.0278818
-0.0249186
-0.0218911
-0.0188848
-0.0158243
-0.0126227
-0.00912848
-0.00492635
-0.000197807
0.00500192
0.00851968
0.010074
0.00927559
0.0171388
0.0170369
0.0165581
0.0156987
0.0143501
0.0124641
0.0100074
0.0070163
0.0036295
2.4358e-06
-0.00366845
-0.00727269
-0.0107202
-0.0140166
-0.0171641
-0.0202102
-0.0231695
-0.0260721
-0.0289149
-0.0317042
-0.0344254
-0.0370724
-0.0396272
-0.0420762
-0.0444
-0.0465768
-0.0485849
-0.0503941
-0.0519832
-0.0533159
-0.0543776
-0.05513
-0.0555733
-0.0556708
-0.0554443
-0.0548603
-0.0539667
-0.0527307
-0.0512274
-0.0494196
-0.0474066
-0.0451398
-0.0427376
-0.0401332
-0.0374575
-0.0346238
-0.0317711
-0.0288012
-0.0258576
-0.0228497
-0.0198992
-0.0169198
-0.0138872
-0.0106501
-0.00683443
-0.00250176
0.0024791
0.00610777
0.00798872
0.00717842
0.0162976
0.0162379
0.0157622
0.014923
0.0135776
0.011717
0.00928659
0.00633945
0.00299699
-0.000581031
-0.00421069
-0.00777947
-0.0112028
-0.0144825
-0.0176223
-0.020666
-0.0236291
-0.0265392
-0.0293944
-0.0321996
-0.0349412
-0.0376119
-0.040195
-0.0426752
-0.045034
-0.0472469
-0.0492937
-0.0511401
-0.0527668
-0.0541322
-0.0552251
-0.0560003
-0.0564633
-0.0565692
-0.0563477
-0.0557556
-0.0548517
-0.0535919
-0.0520657
-0.0502228
-0.0481802
-0.0458744
-0.0434443
-0.0408061
-0.038114
-0.0352607
-0.0324107
-0.0294407
-0.0265226
-0.0235374
-0.0206453
-0.0177388
-0.0148591
-0.0118477
-0.00840115
-0.00448048
0.000156932
0.00376569
0.00585534
0.00509906
0.0156052
0.015588
0.0151219
0.0143094
0.0129752
0.0111486
0.00875302
0.00585682
0.00256204
-0.000967231
-0.00455949
-0.00809783
-0.0115018
-0.0147675
-0.0178998
-0.0209387
-0.0239009
-0.0268123
-0.0296725
-0.0324852
-0.0352387
-0.037924
-0.0405262
-0.0430275
-0.0454114
-0.0476501
-0.0497255
-0.0515987
-0.0532538
-0.0546428
-0.0557593
-0.0565501
-0.0570278
-0.0571376
-0.0569192
-0.0563173
-0.055404
-0.0541216
-0.0525756
-0.0507005
-0.0486327
-0.0462912
-0.0438379
-0.0411688
-0.0384644
-0.0355935
-0.0327502
-0.0297818
-0.026894
-0.0239331
-0.0211023
-0.0182625
-0.0155233
-0.0127083
-0.00960444
-0.00608885
-0.0018686
0.00160607
0.0038012
0.00313472
0.0150914
0.0151181
0.014671
0.0138952
0.0125839
0.0108028
0.0084542
0.00561964
0.00238075
-0.00109533
-0.00464916
-0.00815876
-0.0115461
-0.0148006
-0.0179271
-0.0209615
-0.0239217
-0.026832
-0.0296939
-0.03251
-0.0352705
-0.0379648
-0.0405798
-0.0430952
-0.0454968
-0.0477531
-0.0498492
-0.0517408
-0.0534167
-0.0548214
-0.0559555
-0.0567561
-0.057245
-0.0573555
-0.0571394
-0.0565273
-0.0556067
-0.0543035
-0.0527419
-0.0508379
-0.0487502
-0.0463767
-0.0439054
-0.0412081
-0.0384956
-0.0356084
-0.0327749
-0.0298086
-0.026954
-0.0240173
-0.0212497
-0.0184706
-0.0158619
-0.0132166
-0.0104251
-0.00729095
-0.00352263
-0.000271034
0.00193803
0.00137083
0.0147222
0.0147899
0.0143681
0.0136348
0.0123544
0.0106262
0.00833248
0.00556651
0.00238819
-0.00103282
-0.00454936
-0.00803265
-0.0114061
-0.0146507
-0.0177709
-0.0207977
-0.0237512
-0.0266536
-0.0295097
-0.0323206
-0.0350793
-0.0377728
-0.0403909
-0.0429097
-0.0453187
-0.0475811
-0.0496872
-0.0515858
-0.0532724
-0.0546826
-0.055826
-0.0566281
-0.0571224
-0.0572281
-0.0570118
-0.0563872
-0.0554598
-0.0541362
-0.0525622
-0.0506315
-0.0485283
-0.0461256
-0.0436409
-0.0409175
-0.0382005
-0.0352971
-0.0324756
-0.0295095
-0.0266895
-0.0237741
-0.02107
-0.0183445
-0.0158574
-0.0133565
-0.0108467
-0.00805931
-0.00475065
-0.00178371
0.000355281
-0.000120839
0.0145243
0.0146315
0.0142445
0.0135639
0.0123276
0.0106642
0.00843862
0.00575345
0.00264708
-0.000710686
-0.0041846
-0.00763971
-0.0109994
-0.0142355
-0.0173506
-0.0203706
-0.0233171
-0.0262104
-0.0290584
-0.0318607
-0.0346137
-0.0373013
-0.0399172
-0.0424327
-0.0448423
-0.0471029
-0.0492115
-0.0511085
-0.0527986
-0.0542064
-0.0553531
-0.0561505
-0.0566468
-0.056744
-0.0565268
-0.0558888
-0.0549567
-0.0536141
-0.0520317
-0.0500771
-0.0479636
-0.0455346
-0.0430412
-0.0402932
-0.0375748
-0.0346545
-0.0318459
-0.0288767
-0.0260907
-0.0231911
-0.0205489
-0.0178678
-0.0154938
-0.0131129
-0.0108551
-0.00837344
-0.005514
-0.00286723
-0.00087498
-0.00127796
0.0144438
0.0145837
0.0142369
0.0136138
0.0124311
0.0108403
0.00869265
0.0060978
0.00307237
-0.00021503
-0.00364206
-0.00706679
-0.0104123
-0.0136392
-0.0167482
-0.0197585
-0.0226939
-0.0255719
-0.0284053
-0.0311909
-0.0339303
-0.036603
-0.0392079
-0.0417103
-0.0441113
-0.0463596
-0.0484613
-0.050346
-0.0520306
-0.053426
-0.0545685
-0.0553528
-0.0558457
-0.0559286
-0.0557078
-0.0550532
-0.0541166
-0.0527541
-0.0511656
-0.0491879
-0.0470674
-0.0446129
-0.0421141
-0.039341
-0.0366232
-0.0336828
-0.0308869
-0.0279085
-0.025154
-0.0222616
-0.0196773
-0.0170289
-0.0147587
-0.0124735
-0.0104396
-0.00821887
-0.00578585
-0.00347097
-0.0016916
-0.00204287
0.0145117
0.0146802
0.0143819
0.0138264
0.0127129
0.0112083
0.00915454
0.00666539
0.00373739
0.000534413
-0.00283394
-0.00622105
-0.00954849
-0.0127657
-0.0158697
-0.0188722
-0.021798
-0.0246617
-0.0274803
-0.0302482
-0.0329722
-0.035627
-0.038218
-0.0407027
-0.0430908
-0.0453208
-0.0474105
-0.0492764
-0.0509503
-0.0523268
-0.0534607
-0.0542268
-0.0547137
-0.054779
-0.0545545
-0.053882
-0.0529428
-0.0515611
-0.0499701
-0.0479705
-0.0458473
-0.043368
-0.0408672
-0.0380679
-0.035352
-0.0323873
-0.0296026
-0.0266068
-0.0238797
-0.020983
-0.0184508
-0.0158202
-0.0136443
-0.0114293
-0.00959337
-0.00758641
-0.00554828
-0.00355537
-0.00203975
-0.00235938
0.0146522
0.0148395
0.014592
0.0141072
0.0130736
0.0116647
0.00971739
0.00734748
0.00453195
0.00142813
-0.00186931
-0.0052093
-0.00851301
-0.0117167
-0.0148136
-0.0178056
-0.0207193
-0.0235642
-0.0263639
-0.0291079
-0.031811
-0.0344409
-0.037012
-0.0394715
-0.0418406
-0.0440443
-0.0461156
-0.0479544
-0.0496115
-0.0509612
-0.0520813
-0.0528222
-0.0532992
-0.0533414
-0.053111
-0.052417
-0.051475
-0.0500716
-0.0484793
-0.0464561
-0.0443318
-0.0418256
-0.0393238
-0.0364942
-0.0337795
-0.0307831
-0.0280061
-0.0249815
-0.0222757
-0.0193598
-0.0168718
-0.0142409
-0.0121485
-0.00997687
-0.00831454
-0.00647252
-0.00479152
-0.00309075
-0.00186971
-0.00217234
0.0149127
0.0151139
0.0149215
0.0145161
0.0135789
0.0122814
0.0104594
0.00822743
0.00554627
0.00256243
-0.000644316
-0.0039226
-0.00719277
-0.0103791
-0.0134691
-0.0164535
-0.0193594
-0.0221898
-0.0249743
-0.0276969
-0.0303815
-0.032987
-0.0355391
-0.0379723
-0.0403223
-0.0424975
-0.0445495
-0.046358
-0.0479969
-0.0493161
-0.0504212
-0.0511335
-0.0516003
-0.051617
-0.0513819
-0.050665
-0.0497225
-0.048297
-0.0467066
-0.0446592
-0.0425368
-0.0400016
-0.0375007
-0.034636
-0.0319216
-0.0288848
-0.0261113
-0.0230447
-0.0203529
-0.0174001
-0.0149475
-0.0122951
-0.0102754
-0.0081183
-0.0066074
-0.00487979
-0.00351435
-0.00205764
-0.00113843
-0.0014298
0.0151898
0.0153945
0.015254
0.0149277
0.0140962
0.0129211
0.0112395
0.00916348
0.00663804
0.00379791
0.000704188
-0.00249247
-0.00571518
-0.0088742
-0.0119526
-0.0149264
-0.0178239
-0.020638
-0.0234071
-0.0261056
-0.0287705
-0.031348
-0.0338796
-0.0362826
-0.0386118
-0.0407543
-0.0427854
-0.0445589
-0.0461779
-0.0474618
-0.0485502
-0.0492291
-0.0496845
-0.0496712
-0.0494306
-0.0486868
-0.047744
-0.0462924
-0.0447044
-0.0426283
-0.040508
-0.0379379
-0.0354365
-0.0325282
-0.0298106
-0.0267208
-0.0239444
-0.0208185
-0.0181317
-0.0151207
-0.0126932
-0.00999452
-0.00803698
-0.00586283
-0.00448395
-0.00281824
-0.00172568
-0.000448602
0.000186254
-8.774e-05
0.0155654
0.0157707
0.0156805
0.0154379
0.0147253
0.0136889
0.0121677
0.0102686
0.00792456
0.00525475
0.00230188
-0.000789852
-0.00394717
-0.00706915
-0.0101332
-0.0130994
-0.0159955
-0.0188015
-0.0215644
-0.0242466
-0.0268999
-0.029455
-0.0319725
-0.0343489
-0.0366627
-0.0387746
-0.0407891
-0.0425287
-0.0441314
-0.0453799
-0.0464547
-0.0470996
-0.0475465
-0.0475022
-0.0472595
-0.0464876
-0.0455479
-0.0440687
-0.0424862
-0.0403789
-0.0382629
-0.0356532
-0.0331517
-0.0301912
-0.0274679
-0.0243117
-0.0215265
-0.0183226
-0.0156319
-0.0125393
-0.0101273
-0.00735517
-0.00545069
-0.00322575
-0.00196382
-0.000305511
0.000554105
0.00172997
0.00212009
0.00188371
0.0158963
0.0160925
0.0160437
0.0158787
0.015289
0.014402
0.0130578
0.0113576
0.00922163
0.00675495
0.00397603
0.00102228
-0.00204409
-0.00510881
-0.00814828
-0.0111006
-0.0139962
-0.0167951
-0.0195568
-0.022225
-0.0248719
-0.027406
-0.029914
-0.0322643
-0.0345671
-0.0366483
-0.0386504
-0.0403552
-0.0419452
-0.0431568
-0.0442209
-0.0448293
-0.0452702
-0.0451917
-0.0449485
-0.0441444
-0.0432092
-0.0416972
-0.0401208
-0.0379753
-0.0358631
-0.033204
-0.0306999
-0.0276739
-0.0249394
-0.021699
-0.0188964
-0.0155916
-0.0128867
-0.00968518
-0.00727905
-0.00440264
-0.00254404
-0.000231263
0.000923579
0.00263185
0.00329179
0.0044564
0.00465697
0.00449405
0.0163244
0.0165123
0.0164991
0.0164094
0.0159474
0.0152218
0.0140724
0.0125916
0.0106899
0.00845544
0.00588372
0.00309914
0.000150788
-0.00283841
-0.00584447
-0.00878299
-0.0116858
-0.0144891
-0.0172649
-0.0199331
-0.0225892
-0.0251145
-0.0276268
-0.0299604
-0.0322637
-0.0343215
-0.0363212
-0.0379968
-0.0395829
-0.0407613
-0.0418225
-0.0423966
-0.0428381
-0.0427261
-0.0424885
-0.0416516
-0.040726
-0.0391789
-0.0376132
-0.035425
-0.0333194
-0.0306036
-0.0280972
-0.0249939
-0.0222454
-0.0189034
-0.0160773
-0.0126486
-0.00992146
-0.00658297
-0.0041758
-0.00116281
0.000652653
0.00309274
0.00414253
0.00596083
0.00644255
0.00769463
0.0077656
0.00772824
0.0166402
0.0168108
0.0168222
0.0167951
0.0164567
0.0158997
0.0149613
0.0137259
0.0120893
0.0101279
0.00780553
0.00523689
0.00244542
-0.000433529
-0.00338601
-0.00629669
-0.00920625
-0.0120152
-0.0148156
-0.0174911
-0.0201702
-0.0226941
-0.0252238
-0.0275466
-0.0298623
-0.0319007
-0.0339088
-0.0355575
-0.0371493
-0.0382956
-0.0393621
-0.039901
-0.04035
-0.0402018
-0.0399753
-0.0391009
-0.038189
-0.0366
-0.0350471
-0.0328068
-0.0307081
-0.0279225
-0.0254115
-0.0222134
-0.0194456
-0.0159794
-0.0131219
-0.00954155
-0.00678373
-0.00327622
-0.000862485
0.00232342
0.00409487
0.0067066
0.00764578
0.00963984
0.00995036
0.0113971
0.0113909
0.0115477
0.0170853
0.0172437
0.0172732
0.0173
0.0170777
0.0166905
0.015973
0.0149985
0.0136491
0.0119866
0.00994592
0.00762729
0.00502585
0.00228431
-0.000597498
-0.00347314
-0.0063942
-0.00921978
-0.0120639
-0.014766
-0.0174917
-0.0200335
-0.0226029
-0.0249309
-0.0272783
-0.0293098
-0.0313427
-0.0329742
-0.0345859
-0.0357069
-0.036791
-0.0372994
-0.0377665
-0.0375843
-0.037378
-0.0364659
-0.0355756
-0.0339421
-0.0324087
-0.0301106
-0.0280237
-0.0251589
-0.0226458
-0.0193387