/*--------------------------------*- C++ -*----------------------------------*\
| =========                 |                                                 |
| \\      /  F ield         | OpenFOAM: The Open Source CFD Toolbox           |
|  \\    /   O peration     | Version:  2406                                  |
|   \\  /    A nd           | Website:  www.openfoam.com                      |
|    \\/     M anipulation  |                                                 |
\*---------------------------------------------------------------------------*/
FoamFile
{
    version     2.0;
    format      ascii;
    arch        "LSB;label=32;scalar=64";
    class       volVectorField;
    location    "5.3";
    object      U_0;
}
// * * * * * * * * * * * * * * * * * * * * * * * * * * * * * * * * * * * * * //

dimensions      [0 1 -1 0 0 0 0];

internalField   nonuniform List<vector> 
14400
(
(1.50341e-06 -1.49623e-06 0)
(1.77475e-06 4.47156e-07 0)
(-8.21038e-06 3.31369e-06 0)
(-2.89043e-05 5.91963e-06 0)
(-5.89157e-05 8.02239e-06 0)
(-9.63738e-05 9.61552e-06 0)
(-0.000139481 1.07757e-05 0)
(-0.000186726 1.15924e-05 0)
(-0.000236905 1.2148e-05 0)
(-0.000289092 1.25096e-05 0)
(-0.000342592 1.273e-05 0)
(-0.000396893 1.28498e-05 0)
(-0.000451627 1.28996e-05 0)
(-0.000506536 1.29019e-05 0)
(-0.000561441 1.28732e-05 0)
(-0.000616225 1.28249e-05 0)
(-0.000670812 1.27649e-05 0)
(-0.000725155 1.26985e-05 0)
(-0.000779224 1.26285e-05 0)
(-0.000833003 1.25568e-05 0)
(-0.00088648 1.24839e-05 0)
(-0.000939646 1.24097e-05 0)
(-0.000992491 1.23339e-05 0)
(-0.001045 1.22557e-05 0)
(-0.00109717 1.21743e-05 0)
(-0.00114898 1.20889e-05 0)
(-0.0012004 1.19986e-05 0)
(-0.00125142 1.19027e-05 0)
(-0.001302 1.18003e-05 0)
(-0.00135212 1.16906e-05 0)
(-0.00140175 1.1573e-05 0)
(-0.00145085 1.14468e-05 0)
(-0.00149938 1.13112e-05 0)
(-0.0015473 1.11657e-05 0)
(-0.00159457 1.10095e-05 0)
(-0.00164113 1.08421e-05 0)
(-0.00168695 1.06628e-05 0)
(-0.00173197 1.04711e-05 0)
(-0.00177613 1.02662e-05 0)
(-0.00181938 1.00476e-05 0)
(-0.00186166 9.8147e-06 0)
(-0.00190292 9.56697e-06 0)
(-0.00194307 9.30383e-06 0)
(-0.00198207 9.02476e-06 0)
(-0.00201984 8.72928e-06 0)
(-0.00205631 8.41694e-06 0)
(-0.00209141 8.08731e-06 0)
(-0.00212507 7.74003e-06 0)
(-0.00215721 7.3748e-06 0)
(-0.00218776 6.99135e-06 0)
(-0.00221664 6.58952e-06 0)
(-0.00224378 6.16919e-06 0)
(-0.0022691 5.73033e-06 0)
(-0.00229252 5.27302e-06 0)
(-0.00231396 4.79741e-06 0)
(-0.00233335 4.30375e-06 0)
(-0.00235062 3.79241e-06 0)
(-0.00236569 3.26388e-06 0)
(-0.0023785 2.71874e-06 0)
(-0.00238897 2.15773e-06 0)
(-0.00239705 1.58168e-06 0)
(-0.00240266 9.9152e-07 0)
(-0.00240577 3.89035e-07 0)
(-0.0024063 -2.23741e-07 0)
(-0.00240423 -8.49917e-07 0)
(-0.0023995 -1.48467e-06 0)
(-0.0023921 -2.12623e-06 0)
(-0.00238198 -2.77335e-06 0)
(-0.00236913 -3.42426e-06 0)
(-0.00235353 -4.0771e-06 0)
(-0.00233519 -4.7299e-06 0)
(-0.0023141 -5.38065e-06 0)
(-0.00229028 -6.02727e-06 0)
(-0.00226375 -6.66764e-06 0)
(-0.00223454 -7.29964e-06 0)
(-0.00220268 -7.92114e-06 0)
(-0.00216823 -8.53003e-06 0)
(-0.00213123 -9.12425e-06 0)
(-0.00209176 -9.70179e-06 0)
(-0.00204988 -1.02607e-05 0)
(-0.00200567 -1.07992e-05 0)
(-0.00195922 -1.13156e-05 0)
(-0.00191062 -1.18083e-05 0)
(-0.00185997 -1.22758e-05 0)
(-0.00180738 -1.27169e-05 0)
(-0.00175295 -1.31306e-05 0)
(-0.0016968 -1.35159e-05 0)
(-0.00163905 -1.38721e-05 0)
(-0.00157982 -1.41986e-05 0)
(-0.00151923 -1.44951e-05 0)
(-0.0014574 -1.47614e-05 0)
(-0.00139446 -1.49973e-05 0)
(-0.00133053 -1.5203e-05 0)
(-0.00126575 -1.53784e-05 0)
(-0.00120022 -1.55237e-05 0)
(-0.00113408 -1.56386e-05 0)
(-0.00106746 -1.5723e-05 0)
(-0.00100049 -1.57762e-05 0)
(-0.00093329 -1.57971e-05 0)
(-0.000866012 -1.57839e-05 0)
(-0.000798804 -1.57339e-05 0)
(-0.000731829 -1.56435e-05 0)
(-0.00066527 -1.55075e-05 0)
(-0.000599338 -1.53191e-05 0)
(-0.000534273 -1.507e-05 0)
(-0.000470358 -1.47493e-05 0)
(-0.000407926 -1.43441e-05 0)
(-0.00034737 -1.38388e-05 0)
(-0.000289151 -1.32151e-05 0)
(-0.000233815 -1.24522e-05 0)
(-0.000181994 -1.15266e-05 0)
(-0.000134419 -1.0413e-05 0)
(-9.19167e-05 -9.08554e-06 0)
(-5.54032e-05 -7.52176e-06 0)
(-2.58452e-05 -5.70986e-06 0)
(-4.17847e-06 -3.66536e-06 0)
(8.86873e-06 -1.47111e-06 0)
(1.31022e-05 6.79877e-07 0)
(9.96103e-06 2.12567e-06 0)
(2.35986e-06 2.36329e-06 0)
(-4.51608e-07 -1.75333e-06 0)
(-1.36873e-05 1.36055e-05 0)
(-5.01532e-05 3.57984e-05 0)
(-0.000111051 5.65919e-05 0)
(-0.000193228 7.40139e-05 0)
(-0.000293206 8.77365e-05 0)
(-0.000407262 9.81142e-05 0)
(-0.000532066 0.000105709 0)
(-0.000664824 0.000111092 0)
(-0.000803283 0.00011477 0)
(-0.00094568 0.000117162 0)
(-0.00109066 0.000118603 0)
(-0.00123722 0.000119359 0)
(-0.00138461 0.000119629 0)
(-0.00153229 0.000119564 0)
(-0.00167989 0.000119274 0)
(-0.00182716 0.000118837 0)
(-0.00197391 0.000118306 0)
(-0.00212002 0.000117714 0)
(-0.00226542 0.000117081 0)
(-0.00241004 0.000116419 0)
(-0.00255382 0.00011573 0)
(-0.00269674 0.000115015 0)
(-0.00283873 0.000114268 0)
(-0.00297976 0.000113485 0)
(-0.00311977 0.000112659 0)
(-0.0032587 0.000111784 0)
(-0.00339647 0.000110853 0)
(-0.00353302 0.00010986 0)
(-0.00366826 0.000108798 0)
(-0.0038021 0.000107661 0)
(-0.00393444 0.000106443 0)
(-0.00406518 0.000105139 0)
(-0.0041942 0.000103741 0)
(-0.0043214 0.000102246 0)
(-0.00444664 0.000100647 0)
(-0.0045698 9.89392e-05 0)
(-0.00469073 9.71168e-05 0)
(-0.0048093 9.51746e-05 0)
(-0.00492535 9.31076e-05 0)
(-0.00503874 9.09106e-05 0)
(-0.00514929 8.85789e-05 0)
(-0.00525684 8.61078e-05 0)
(-0.00536123 8.34929e-05 0)
(-0.00546226 8.073e-05 0)
(-0.00555977 7.78154e-05 0)
(-0.00565356 7.47457e-05 0)
(-0.00574346 7.15179e-05 0)
(-0.00582926 6.81295e-05 0)
(-0.00591077 6.45786e-05 0)
(-0.00598779 6.08639e-05 0)
(-0.00606014 5.69846e-05 0)
(-0.00612761 5.29408e-05 0)
(-0.00619 4.87334e-05 0)
(-0.00624712 4.43639e-05 0)
(-0.00629879 3.9835e-05 0)
(-0.0063448 3.51501e-05 0)
(-0.00638498 3.03135e-05 0)
(-0.00641916 2.53308e-05 0)
(-0.00644716 2.02085e-05 0)
(-0.00646882 1.49541e-05 0)
(-0.00648399 9.57637e-06 0)
(-0.00649252 4.08528e-06 0)
(-0.00649431 -1.50768e-06 0)
(-0.00648921 -7.19417e-06 0)
(-0.00647715 -1.29587e-05 0)
(-0.00645803 -1.87874e-05 0)
(-0.00643178 -2.46658e-05 0)
(-0.00639836 -3.05783e-05 0)
(-0.00635774 -3.65086e-05 0)
(-0.0063099 -4.24398e-05 0)
(-0.00625486 -4.83544e-05 0)
(-0.00619265 -5.42344e-05 0)
(-0.00612331 -6.00618e-05 0)
(-0.00604692 -6.5818e-05 0)
(-0.00596357 -7.14849e-05 0)
(-0.00587338 -7.70444e-05 0)
(-0.00577648 -8.24786e-05 0)
(-0.00567304 -8.77703e-05 0)
(-0.00556322 -9.2903e-05 0)
(-0.00544723 -9.78607e-05 0)
(-0.00532528 -0.000102629 0)
(-0.00519759 -0.000107193 0)
(-0.00506442 -0.000111542 0)
(-0.00492602 -0.000115664 0)
(-0.00478267 -0.000119549 0)
(-0.00463464 -0.000123189 0)
(-0.00448224 -0.000126578 0)
(-0.00432575 -0.00012971 0)
(-0.00416548 -0.000132581 0)
(-0.00400175 -0.000135188 0)
(-0.00383487 -0.00013753 0)
(-0.00366515 -0.000139607 0)
(-0.0034929 -0.000141416 0)
(-0.00331845 -0.000142957 0)
(-0.00314212 -0.000144227 0)
(-0.00296424 -0.000145222 0)
(-0.00278515 -0.000145934 0)
(-0.0026052 -0.00014635 0)
(-0.00242476 -0.000146452 0)
(-0.00224424 -0.000146213 0)
(-0.00206407 -0.000145595 0)
(-0.00188476 -0.000144551 0)
(-0.00170687 -0.000143016 0)
(-0.00153106 -0.000140911 0)
(-0.00135808 -0.000138137 0)
(-0.00118885 -0.000134578 0)
(-0.00102439 -0.000130092 0)
(-0.000865942 -0.000124522 0)
(-0.000714918 -0.000117688 0)
(-0.000572949 -0.000109398 0)
(-0.000441876 -9.94537e-05 0)
(-0.000323736 -8.76744e-05 0)
(-0.000220707 -7.39301e-05 0)
(-0.000134992 -5.82143e-05 0)
(-6.85937e-05 -4.07795e-05 0)
(-2.29219e-05 -2.2398e-05 0)
(1.73073e-06 -4.84271e-06 0)
(8.32458e-06 8.28908e-06 0)
(2.11654e-06 9.96516e-06 0)
(-3.39172e-06 8.38948e-06 0)
(-3.64812e-05 5.02898e-05 0)
(-0.000102416 0.000101291 0)
(-0.000202311 0.000148981 0)
(-0.000331008 0.000189661 0)
(-0.000484445 0.000222472 0)
(-0.000657939 0.000247919 0)
(-0.000847159 0.000267028 0)
(-0.00104834 0.000280946 0)
(-0.00125836 0.000290745 0)
(-0.00147469 0.000297357 0)
(-0.00169533 0.000301558 0)
(-0.00191875 0.00030397 0)
(-0.00214379 0.000305083 0)
(-0.00236958 0.00030527 0)
(-0.00259551 0.000304812 0)
(-0.00282113 0.000303911 0)
(-0.00304611 0.00030271 0)
(-0.00327022 0.000301302 0)
(-0.0034933 0.000299749 0)
(-0.00371522 0.000298085 0)
(-0.00393588 0.000296325 0)
(-0.00415519 0.000294473 0)
(-0.00437307 0.000292524 0)
(-0.00458941 0.000290468 0)
(-0.00480414 0.000288292 0)
(-0.00501714 0.000285981 0)
(-0.00522831 0.000283522 0)
(-0.00543751 0.000280898 0)
(-0.00564463 0.000278094 0)
(-0.00584952 0.000275096 0)
(-0.00605202 0.00027189 0)
(-0.00625198 0.00026846 0)
(-0.00644923 0.000264794 0)
(-0.00664358 0.000260878 0)
(-0.00683484 0.000256698 0)
(-0.00702282 0.000252241 0)
(-0.0072073 0.000247494 0)
(-0.00738807 0.000242445 0)
(-0.00756491 0.00023708 0)
(-0.00773757 0.000231387 0)
(-0.00790582 0.000225356 0)
(-0.0080694 0.000218975 0)
(-0.00822806 0.000212234 0)
(-0.00838153 0.000205122 0)
(-0.00852954 0.000197632 0)
(-0.00867182 0.000189754 0)
(-0.00880809 0.000181483 0)
(-0.00893805 0.000172813 0)
(-0.00906142 0.000163739 0)
(-0.00917792 0.00015426 0)
(-0.00928725 0.000144373 0)
(-0.00938912 0.00013408 0)
(-0.00948324 0.000123383 0)
(-0.00956934 0.000112287 0)
(-0.00964712 0.000100798 0)
(-0.00971631 8.89268e-05 0)
(-0.00977666 7.66836e-05 0)
(-0.0098279 6.40824e-05 0)
(-0.00986978 5.11398e-05 0)
(-0.00990207 3.78748e-05 0)
(-0.00992456 2.43088e-05 0)
(-0.00993705 1.04658e-05 0)
(-0.00993934 -3.628e-06 0)
(-0.00993128 -1.79416e-05 0)
(-0.00991273 -3.2445e-05 0)
(-0.00988356 -4.71041e-05 0)
(-0.00984369 -6.18828e-05 0)
(-0.00979304 -7.67431e-05 0)
(-0.00973158 -9.16453e-05 0)
(-0.0096593 -0.000106548 0)
(-0.0095762 -0.000121409 0)
(-0.00948234 -0.000136185 0)
(-0.0093778 -0.000150832 0)
(-0.00926269 -0.000165305 0)
(-0.00913713 -0.00017956 0)
(-0.00900131 -0.000193554 0)
(-0.00885542 -0.000207243 0)
(-0.00869969 -0.000220587 0)
(-0.00853439 -0.000233544 0)
(-0.00835978 -0.000246077 0)
(-0.00817618 -0.00025815 0)
(-0.00798393 -0.00026973 0)
(-0.00778339 -0.000280787 0)
(-0.00757492 -0.000291292 0)
(-0.00735891 -0.000301224 0)
(-0.00713579 -0.00031056 0)
(-0.00690597 -0.000319285 0)
(-0.00666989 -0.000327385 0)
(-0.00642798 -0.000334849 0)
(-0.00618069 -0.00034167 0)
(-0.00592849 -0.000347842 0)
(-0.00567183 -0.00035336 0)
(-0.00541117 -0.000358221 0)
(-0.00514699 -0.000362418 0)
(-0.00487976 -0.000365942 0)
(-0.00460996 -0.000368779 0)
(-0.00433812 -0.000370904 0)
(-0.00406474 -0.000372283 0)
(-0.00379041 -0.000372863 0)
(-0.00351572 -0.000372574 0)
(-0.00324135 -0.000371317 0)
(-0.00296808 -0.000368967 0)
(-0.00269674 -0.000365361 0)
(-0.00242836 -0.000360297 0)
(-0.00216408 -0.000353529 0)
(-0.00190526 -0.000344766 0)
(-0.00165347 -0.000333668 0)
(-0.00141053 -0.000319852 0)
(-0.00117852 -0.000302899 0)
(-0.000959816 -0.00028237 0)
(-0.000757056 -0.000257839 0)
(-0.000573098 -0.000228948 0)
(-0.000410924 -0.000195499 0)
(-0.000273461 -0.000157619 0)
(-0.000163273 -0.000116052 0)
(-8.2074e-05 -7.26367e-05 0)
(-2.99812e-05 -3.10894e-05 0)
(-4.22578e-06 1.91208e-06 0)
(7.37575e-07 1.31943e-05 0)
(-6.17147e-06 2.97247e-05 0)
(-5.86651e-05 0.000112454 0)
(-0.000153209 0.000201951 0)
(-0.000289845 0.000284435 0)
(-0.000460677 0.000355163 0)
(-0.000661047 0.00041293 0)
(-0.00088561 0.000458423 0)
(-0.00112943 0.000493163 0)
(-0.00138817 0.00051892 0)
(-0.00165816 0.000537417 0)
(-0.00193637 0.000550196 0)
(-0.00222034 0.00055857 0)
(-0.00250818 0.000563618 0)
(-0.00279838 0.000566203 0)
(-0.00308983 0.000566997 0)
(-0.00338169 0.00056651 0)
(-0.00367332 0.00056512 0)
(-0.00396428 0.000563095 0)
(-0.00425423 0.00056062 0)
(-0.00454291 0.000557818 0)
(-0.00483013 0.000554759 0)
(-0.00511573 0.000551482 0)
(-0.00539956 0.000548001 0)
(-0.00568149 0.000544314 0)
(-0.00596139 0.000540406 0)
(-0.00623913 0.000536259 0)
(-0.00651455 0.000531848 0)
(-0.00678751 0.00052715 0)
(-0.00705784 0.000522137 0)
(-0.00732537 0.000516785 0)
(-0.00758991 0.000511067 0)
(-0.00785125 0.000504957 0)
(-0.00810919 0.000498431 0)
(-0.0083635 0.000491464 0)
(-0.00861396 0.000484031 0)
(-0.0088603 0.000476109 0)
(-0.00910229 0.000467673 0)
(-0.00933964 0.000458701 0)
(-0.00957207 0.000449171 0)
(-0.00979931 0.000439059 0)
(-0.010021 0.000428345 0)
(-0.010237 0.000417009 0)
(-0.0104468 0.00040503 0)
(-0.0106501 0.000392391 0)
(-0.0108466 0.000379075 0)
(-0.011036 0.000365066 0)
(-0.0112179 0.000350351 0)
(-0.011392 0.000334919 0)
(-0.0115579 0.00031876 0)
(-0.0117152 0.000301868 0)
(-0.0118636 0.00028424 0)
(-0.0120027 0.000265873 0)
(-0.0121322 0.000246771 0)
(-0.0122517 0.00022694 0)
(-0.0123608 0.000206387 0)
(-0.0124592 0.000185128 0)
(-0.0125466 0.00016318 0)
(-0.0126226 0.000140563 0)
(-0.0126869 0.000117305 0)
(-0.0127392 9.34346e-05 0)
(-0.0127792 6.8988e-05 0)
(-0.0128067 4.40044e-05 0)
(-0.0128214 1.85277e-05 0)
(-0.0128232 -7.39335e-06 0)
(-0.0128117 -3.37054e-05 0)
(-0.0127868 -6.03517e-05 0)
(-0.0127485 -8.72711e-05 0)
(-0.0126965 -0.000114399 0)
(-0.0126308 -0.000141666 0)
(-0.0125515 -0.000169002 0)
(-0.0124583 -0.000196333 0)
(-0.0123515 -0.000223582 0)
(-0.012231 -0.000250672 0)
(-0.0120969 -0.000277525 0)
(-0.0119495 -0.000304062 0)
(-0.0117889 -0.000330203 0)
(-0.0116152 -0.000355872 0)
(-0.0114288 -0.000380991 0)
(-0.0112299 -0.000405488 0)
(-0.0110188 -0.00042929 0)
(-0.010796 -0.000452331 0)
(-0.0105617 -0.000474545 0)
(-0.0103165 -0.000495876 0)
(-0.0100607 -0.000516268 0)
(-0.00979485 -0.000535673 0)
(-0.00951937 -0.000554049 0)
(-0.0092348 -0.000571359 0)
(-0.00894166 -0.000587573 0)
(-0.00864047 -0.000602666 0)
(-0.0083318 -0.000616617 0)
(-0.00801619 -0.000629413 0)
(-0.00769421 -0.00064104 0)
(-0.00736643 -0.000651489 0)
(-0.00703343 -0.00066075 0)
(-0.00669579 -0.000668807 0)
(-0.0063541 -0.000675642 0)
(-0.00600899 -0.000681221 0)
(-0.00566109 -0.000685498 0)
(-0.00531107 -0.000688402 0)
(-0.00495965 -0.000689833 0)
(-0.0046076 -0.000689655 0)
(-0.00425579 -0.000687686 0)
(-0.0039052 -0.00068369 0)
(-0.00355691 -0.000677368 0)
(-0.00321221 -0.000668351 0)
(-0.00287256 -0.000656195 0)
(-0.00253967 -0.000640375 0)
(-0.0022155 -0.00062029 0)
(-0.00190232 -0.00059527 0)
(-0.00160269 -0.000564592 0)
(-0.00131951 -0.000527524 0)
(-0.00105594 -0.000483377 0)
(-0.000815386 -0.000431616 0)
(-0.000601329 -0.000372021 0)
(-0.00041714 -0.000304956 0)
(-0.000265757 -0.000231807 0)
(-0.000149201 -0.00015565 0)
(-6.77347e-05 -8.22378e-05 0)
(-2.0164e-05 -2.13121e-05 0)
(-1.23805e-06 9.54853e-06 0)
(-8.55077e-06 6.1265e-05 0)
(-7.829e-05 0.000197873 0)
(-0.000198867 0.000333953 0)
(-0.000368906 0.000456801 0)
(-0.000577521 0.000561857 0)
(-0.000819258 0.000648131 0)
(-0.00108812 0.000716718 0)
(-0.0013787 0.0007697 0)
(-0.0016863 0.0008095 0)
(-0.00200689 0.000838507 0)
(-0.00233713 0.000858899 0)
(-0.00267428 0.000872562 0)
(-0.00301615 0.00088107 0)
(-0.00336103 0.000885702 0)
(-0.00370758 0.000887467 0)
(-0.00405479 0.000887145 0)
(-0.00440191 0.000885316 0)
(-0.00474834 0.000882404 0)
(-0.00509366 0.000878706 0)
(-0.00543753 0.000874419 0)
(-0.00577969 0.000869668 0)
(-0.00611991 0.000864521 0)
(-0.006458 0.00085901 0)
(-0.00679379 0.000853137 0)
(-0.00712709 0.000846889 0)
(-0.00745774 0.000840242 0)
(-0.00778554 0.000833163 0)
(-0.0081103 0.000825617 0)
(-0.00843182 0.000817567 0)
(-0.00874989 0.000808974 0)
(-0.00906426 0.0007998 0)
(-0.00937472 0.000790007 0)
(-0.00968098 0.000779558 0)
(-0.0099828 0.000768415 0)
(-0.0102799 0.000756542 0)
(-0.0105719 0.000743903 0)
(-0.0108587 0.000730461 0)
(-0.0111397 0.000716183 0)
(-0.0114148 0.000701034 0)
(-0.0116836 0.000684981 0)
(-0.0119457 0.000667992 0)
(-0.0122007 0.000650037 0)
(-0.0124484 0.000631087 0)
(-0.0126882 0.000611116 0)
(-0.0129198 0.000590097 0)
(-0.0131428 0.000568011 0)
(-0.0133569 0.000544836 0)
(-0.0135615 0.000520557 0)
(-0.0137563 0.000495161 0)
(-0.0139408 0.00046864 0)
(-0.0141146 0.000440989 0)
(-0.0142774 0.000412208 0)
(-0.0144287 0.000382303 0)
(-0.014568 0.000351283 0)
(-0.014695 0.000319165 0)
(-0.0148093 0.000285971 0)
(-0.0149105 0.000251729 0)
(-0.0149982 0.000216473 0)
(-0.0150721 0.000180244 0)
(-0.0151318 0.000143091 0)
(-0.015177 0.000105067 0)
(-0.0152074 6.6235e-05 0)
(-0.0152227 2.66627e-05 0)
(-0.0152227 -1.35749e-05 0)
(-0.0152072 -5.43961e-05 0)
(-0.015176 -9.57132e-05 0)
(-0.0151289 -0.000137432 0)
(-0.0150658 -0.000179455 0)
(-0.0149867 -0.000221676 0)
(-0.0148915 -0.000263988 0)
(-0.0147802 -0.000306277 0)
(-0.0146528 -0.00034843 0)
(-0.0145095 -0.000390327 0)
(-0.0143504 -0.000431852 0)
(-0.0141756 -0.000472884 0)
(-0.0139853 -0.000513304 0)
(-0.0137799 -0.000552996 0)
(-0.0135596 -0.000591844 0)
(-0.0133247 -0.000629738 0)
(-0.0130756 -0.000666569 0)
(-0.0128128 -0.000702238 0)
(-0.0125367 -0.000736647 0)
(-0.0122477 -0.000769709 0)
(-0.0119464 -0.000801342 0)
(-0.0116333 -0.000831475 0)
(-0.011309 -0.000860042 0)
(-0.0109741 -0.00088699 0)
(-0.0106291 -0.00091227 0)
(-0.0102746 -0.000935845 0)
(-0.00991139 -0.000957684 0)
(-0.00953999 -0.000977764 0)
(-0.00916108 -0.000996063 0)
(-0.00877531 -0.00101256 0)
(-0.00838334 -0.00102725 0)
(-0.00798586 -0.00104009 0)
(-0.00758356 -0.00105105 0)
(-0.00717714 -0.00106008 0)
(-0.00676734 -0.0010671 0)
(-0.00635496 -0.001072 0)
(-0.00594082 -0.00107461 0)
(-0.00552585 -0.00107471 0)
(-0.00511104 -0.00107203 0)
(-0.00469753 -0.0010662 0)
(-0.00428661 -0.00105675 0)
(-0.00387976 -0.00104313 0)
(-0.00347868 -0.00102465 0)
(-0.00308533 -0.00100054 0)
(-0.00270197 -0.000969879 0)
(-0.00233115 -0.000931694 0)
(-0.0019758 -0.000884936 0)
(-0.00163914 -0.000828561 0)
(-0.00132468 -0.000761621 0)
(-0.00103618 -0.000683421 0)
(-0.000777427 -0.000593756 0)
(-0.00055212 -0.000493264 0)
(-0.000363523 -0.000383979 0)
(-0.000214078 -0.000270106 0)
(-0.00010452 -0.000159114 0)
(-3.57017e-05 -6.30223e-05 0)
(-3.09783e-06 -1.82706e-06 0)
(-1.05071e-05 0.000101513 0)
(-9.49148e-05 0.000303919 0)
(-0.000238281 0.000494395 0)
(-0.000437842 0.000662826 0)
(-0.000679843 0.000805902 0)
(-0.000957877 0.000923499 0)
(-0.00126523 0.00101746 0)
(-0.00159607 0.00109059 0)
(-0.00194537 0.00114603 0)
(-0.00230888 0.00118688 0)
(-0.00268304 0.00121597 0)
(-0.00306492 0.00123578 0)
(-0.00345217 0.00124841 0)
(-0.00384291 0.00125556 0)
(-0.00423566 0.0012586 0)
(-0.00462928 0.00125862 0)
(-0.00502289 0.0012564 0)
(-0.00541583 0.00125256 0)
(-0.00580757 0.00124751 0)
(-0.00619771 0.00124153 0)
(-0.00658592 0.00123483 0)
(-0.00697192 0.00122749 0)
(-0.00735548 0.00121959 0)
(-0.00773636 0.00121112 0)
(-0.00811436 0.00120209 0)
(-0.00848925 0.00119245 0)
(-0.00886082 0.00118218 0)
(-0.00922883 0.00117122 0)
(-0.00959305 0.00115953 0)
(-0.00995322 0.00114705 0)
(-0.0103091 0.00113374 0)
(-0.0106603 0.00111955 0)
(-0.0110067 0.00110441 0)
(-0.0113479 0.00108829 0)
(-0.0116836 0.00107112 0)
(-0.0120134 0.00105287 0)
(-0.012337 0.00103349 0)
(-0.0126541 0.00101292 0)
(-0.0129643 0.000991114 0)
(-0.0132671 0.000968036 0)
(-0.0135622 0.00094364 0)
(-0.0138491 0.000917883 0)
(-0.0141276 0.000890728 0)
(-0.014397 0.000862139 0)
(-0.014657 0.000832081 0)
(-0.0149072 0.000800527 0)
(-0.015147 0.00076745 0)
(-0.0153761 0.000732831 0)
(-0.0155939 0.000696654 0)
(-0.0158001 0.000658907 0)
(-0.015994 0.000619588 0)
(-0.0161753 0.000578699 0)
(-0.0163436 0.000536247 0)
(-0.0164983 0.000492251 0)
(-0.016639 0.000446735 0)
(-0.0167652 0.000399731 0)
(-0.0168767 0.000351279 0)
(-0.0169729 0.000301431 0)
(-0.0170534 0.000250245 0)
(-0.017118 0.00019779 0)
(-0.0171662 0.000144143 0)
(-0.0171977 8.93908e-05 0)
(-0.0172122 3.36303e-05 0)
(-0.0172096 -2.30333e-05 0)
(-0.0171895 -8.04857e-05 0)
(-0.0171517 -0.000138604 0)
(-0.0170962 -0.000197258 0)
(-0.0170228 -0.00025631 0)
(-0.0169313 -0.000315615 0)
(-0.0168219 -0.000375022 0)
(-0.0166945 -0.000434376 0)
(-0.0165492 -0.000493518 0)
(-0.0163861 -0.000552286 0)
(-0.0162053 -0.000610516 0)
(-0.016007 -0.000668044 0)
(-0.0157916 -0.000724708 0)
(-0.0155592 -0.000780345 0)
(-0.0153103 -0.0008348 0)
(-0.0150451 -0.000887918 0)
(-0.0147642 -0.000939555 0)
(-0.014468 -0.00098957 0)
(-0.0141569 -0.00103783 0)
(-0.0138317 -0.00108423 0)
(-0.0134927 -0.00112864 0)
(-0.0131406 -0.00117096 0)
(-0.012776 -0.00121112 0)
(-0.0123996 -0.00124904 0)
(-0.012012 -0.00128464 0)
(-0.0116139 -0.00131788 0)
(-0.011206 -0.00134872 0)
(-0.0107891 -0.00137712 0)
(-0.0103637 -0.00140306 0)
(-0.00993072 -0.00142649 0)
(-0.00949081 -0.0014474 0)
(-0.00904472 -0.00146575 0)
(-0.00859324 -0.00148148 0)
(-0.00813714 -0.00149451 0)
(-0.00767726 -0.00150473 0)
(-0.00721445 -0.00151196 0)
(-0.00674965 -0.00151598 0)
(-0.00628387 -0.00151649 0)
(-0.00581823 -0.00151308 0)
(-0.005354 -0.00150524 0)
(-0.00489259 -0.00149233 0)
(-0.00443564 -0.00147357 0)
(-0.00398501 -0.00144804 0)
(-0.00354284 -0.00141466 0)
(-0.00311158 -0.00137222 0)
(-0.00269401 -0.0013194 0)
(-0.00229325 -0.00125481 0)
(-0.00191276 -0.0011771 0)
(-0.00155626 -0.00108506 0)
(-0.00122774 -0.000977848 0)
(-0.000931223 -0.000855261 0)
(-0.000670667 -0.00071819 0)
(-0.000449688 -0.000569225 0)
(-0.000271253 -0.000413492 0)
(-0.000136757 -0.000259744 0)
(-4.91186e-05 -0.000121557 0)
(-4.65792e-06 -2.01629e-05 0)
(-1.2092e-05 0.000148969 0)
(-0.000108711 0.000427563 0)
(-0.000271557 0.000679561 0)
(-0.000496668 0.000898339 0)
(-0.000767736 0.00108265 0)
(-0.00107736 0.00123385 0)
(-0.00141806 0.00135488 0)
(-0.00178355 0.0014495 0)
(-0.00216852 0.00152169 0)
(-0.00256851 0.00157529 0)
(-0.00297983 0.00161383 0)
(-0.00339941 0.00164039 0)
(-0.0038248 0.0016576 0)
(-0.00425399 0.00166761 0)
(-0.00468543 0.00167216 0)
(-0.00511789 0.00167264 0)
(-0.0055504 0.00167007 0)
(-0.00598222 0.00166526 0)
(-0.00641277 0.00165874 0)
(-0.00684157 0.0016509 0)
(-0.00726826 0.00164201 0)
(-0.0076925 0.00163222 0)
(-0.00811401 0.00162159 0)
(-0.00853252 0.00161017 0)
(-0.00894779 0.00159794 0)
(-0.00935956 0.00158488 0)
(-0.00976757 0.00157094 0)
(-0.0101716 0.00155606 0)
(-0.0105713 0.00154019 0)
(-0.0109664 0.00152326 0)
(-0.0113567 0.0015052 0)
(-0.0117417 0.00148595 0)
(-0.0121213 0.00146545 0)
(-0.012495 0.00144362 0)
(-0.0128625 0.00142041 0)
(-0.0132234 0.00139576 0)
(-0.0135774 0.00136959 0)
(-0.013924 0.00134185 0)
(-0.0142629 0.00131249 0)
(-0.0145935 0.00128143 0)
(-0.0149155 0.00124863 0)
(-0.0152285 0.00121404 0)
(-0.0155319 0.0011776 0)
(-0.0158253 0.00113927 0)
(-0.0161082 0.00109901 0)
(-0.0163802 0.00105679 0)
(-0.0166407 0.00101257 0)
(-0.0168892 0.00096632 0)
(-0.0171253 0.000918034 0)
(-0.0173485 0.000867695 0)
(-0.0175582 0.000815302 0)
(-0.017754 0.00076086 0)
(-0.0179353 0.000704383 0)
(-0.0181017 0.000645895 0)
(-0.0182527 0.000585431 0)
(-0.0183879 0.000523036 0)
(-0.0185067 0.000458767 0)
(-0.0186088 0.00039269 0)
(-0.0186938 0.000324887 0)
(-0.0187612 0.000255447 0)
(-0.0188107 0.000184475 0)
(-0.018842 0.000112086 0)
(-0.0188548 3.84081e-05 0)
(-0.0188488 -3.64199e-05 0)
(-0.0188237 -0.000112248 0)
(-0.0187794 -0.000188914 0)
(-0.0187158 -0.000266247 0)
(-0.0186326 -0.000344066 0)
(-0.01853 -0.000422184 0)
(-0.0184078 -0.000500402 0)
(-0.018266 -0.00057852 0)
(-0.0181048 -0.00065633 0)
(-0.0179243 -0.000733622 0)
(-0.0177247 -0.000810183 0)
(-0.0175062 -0.000885802 0)
(-0.017269 -0.000960267 0)
(-0.0170136 -0.00103337 0)
(-0.0167402 -0.00110491 0)
(-0.0164494 -0.00117469 0)
(-0.0161416 -0.00124252 0)
(-0.0158172 -0.00130822 0)
(-0.0154769 -0.00137162 0)
(-0.0151212 -0.00143258 0)
(-0.0147508 -0.00149094 0)
(-0.0143662 -0.00154659 0)
(-0.0139683 -0.0015994 0)
(-0.0135576 -0.00164929 0)
(-0.0131348 -0.00169617 0)
(-0.0127008 -0.00173996 0)
(-0.0122563 -0.00178063 0)
(-0.011802 -0.00181812 0)
(-0.0113387 -0.00185239 0)
(-0.0108672 -0.0018834 0)
(-0.0103883 -0.00191112 0)
(-0.00990278 -0.00193549 0)
(-0.00941145 -0.00195643 0)
(-0.00891518 -0.00197384 0)
(-0.00841486 -0.00198755 0)
(-0.00791142 -0.00199734 0)
(-0.00740587 -0.00200292 0)
(-0.00689929 -0.00200387 0)
(-0.00639289 -0.00199967 0)
(-0.00588803 -0.00198965 0)
(-0.00538621 -0.00197299 0)
(-0.00488917 -0.00194868 0)
(-0.0043989 -0.00191553 0)
(-0.00391765 -0.00187217 0)
(-0.003448 -0.00181706 0)
(-0.00299286 -0.00174856 0)
(-0.00255549 -0.00166492 0)
(-0.00213947 -0.00156447 0)
(-0.0017487 -0.00144575 0)
(-0.0013873 -0.00130773 0)
(-0.0010595 -0.00115022 0)
(-0.000769508 -0.000974256 0)
(-0.000521319 -0.000782856 0)
(-0.000318469 -0.000581813 0)
(-0.000163063 -0.000380768 0)
(-5.98431e-05 -0.000194304 0)
(-5.86412e-06 -4.4197e-05 0)
(-1.33691e-05 0.000202318 0)
(-0.000120042 0.000565959 0)
(-0.00029928 0.000885819 0)
(-0.000546164 0.00115926 0)
(-0.000842209 0.00138771 0)
(-0.00117905 0.00157445 0)
(-0.00154848 0.00172391 0)
(-0.00194372 0.001841 0)
(-0.00235917 0.00193068 0)
(-0.0027902 0.00199764 0)
(-0.00323296 0.00204611 0)
(-0.00368434 0.00207981 0)
(-0.00414177 0.00210189 0)
(-0.00460321 0.00211498 0)
(-0.00506703 0.00212119 0)
(-0.00553194 0.0021222 0)
(-0.00599692 0.0021193 0)
(-0.00646118 0.00211345 0)
(-0.00692408 0.00210535 0)
(-0.00738511 0.00209551 0)
(-0.00784385 0.00208423 0)
(-0.00829993 0.00207172 0)
(-0.00875303 0.00205809 0)
(-0.00920286 0.0020434 0)
(-0.00964912 0.00202763 0)
(-0.0100915 0.00201075 0)
(-0.0105298 0.00199272 0)
(-0.0109637 0.00197347 0)
(-0.0113928 0.00195294 0)
(-0.0118169 0.00193103 0)
(-0.0122356 0.00190768 0)
(-0.0126487 0.00188281 0)
(-0.0130556 0.00185634 0)
(-0.0134562 0.00182818 0)
(-0.0138499 0.00179826 0)
(-0.0142364 0.00176649 0)
(-0.0146152 0.00173282 0)
(-0.014986 0.00169715 0)
(-0.0153484 0.00165942 0)
(-0.0157017 0.00161955 0)
(-0.0160457 0.00157749 0)
(-0.0163797 0.00153315 0)
(-0.0167034 0.0014865 0)
(-0.0170162 0.00143746 0)
(-0.0173176 0.001386 0)
(-0.0176071 0.00133207 0)
(-0.0178841 0.00127563 0)
(-0.0181482 0.00121665 0)
(-0.0183988 0.00115512 0)
(-0.0186354 0.00109102 0)
(-0.0188575 0.00102436 0)
(-0.0190645 0.000955134 0)
(-0.0192559 0.000883374 0)
(-0.0194312 0.00080911 0)
(-0.0195899 0.00073239 0)
(-0.0197316 0.000653272 0)
(-0.0198557 0.000571829 0)
(-0.0199618 0.00048815 0)
(-0.0200495 0.000402336 0)
(-0.0201184 0.000314505 0)
(-0.0201681 0.000224788 0)
(-0.0201983 0.000133333 0)
(-0.0202086 4.03011e-05 0)
(-0.0201988 -5.41321e-05 0)
(-0.0201687 -0.000149777 0)
(-0.020118 -0.00024643 0)
(-0.0200466 -0.000343877 0)
(-0.0199545 -0.000441891 0)
(-0.0198415 -0.000540235 0)
(-0.0197077 -0.000638665 0)
(-0.0195532 -0.000736928 0)
(-0.0193779 -0.000834766 0)
(-0.0191821 -0.000931917 0)
(-0.018966 -0.00102812 0)
(-0.0187298 -0.0011231 0)
(-0.0184739 -0.00121661 0)
(-0.0181986 -0.00130839 0)
(-0.0179043 -0.00139818 0)
(-0.0175915 -0.00148575 0)
(-0.0172607 -0.00157086 0)
(-0.0169124 -0.00165328 0)
(-0.0165473 -0.00173283 0)
(-0.016166 -0.00180929 0)
(-0.0157691 -0.00188251 0)
(-0.0153574 -0.00195232 0)
(-0.0149315 -0.00201858 0)
(-0.0144922 -0.00208119 0)
(-0.0140403 -0.00214003 0)
(-0.0135765 -0.00219503 0)
(-0.0131017 -0.00224611 0)
(-0.0126167 -0.00229323 0)
(-0.0121222 -0.00233632 0)
(-0.0116192 -0.00237535 0)
(-0.0111084 -0.00241026 0)
(-0.0105907 -0.00244098 0)
(-0.010067 -0.00246741 0)
(-0.00953825 -0.0024894 0)
(-0.00900527 -0.00250677 0)
(-0.00846911 -0.00251923 0)
(-0.00793081 -0.00252639 0)
(-0.00739153 -0.00252775 0)
(-0.00685253 -0.00252266 0)
(-0.00631522 -0.00251029 0)
(-0.0057812 -0.0024896 0)
(-0.00525225 -0.00245938 0)
(-0.00473045 -0.00241816 0)
(-0.00421811 -0.00236427 0)
(-0.00371791 -0.00229585 0)
(-0.00323282 -0.0022109 0)
(-0.00276619 -0.00210734 0)
(-0.0023217 -0.00198318 0)
(-0.00190334 -0.00183666 0)
(-0.00151537 -0.00166658 0)
(-0.0011622 -0.00147265 0)
(-0.000848283 -0.00125601 0)
(-0.00057799 -0.00101992 0)
(-0.00035541 -0.000770624 0)
(-0.000183315 -0.000518345 0)
(-6.7894e-05 -0.000278321 0)
(-6.7355e-06 -7.25832e-05 0)
(-1.43973e-05 0.000260457 0)
(-0.000129297 0.000716591 0)
(-0.000322187 0.00110983 0)
(-0.000587408 0.00144181 0)
(-0.000904677 0.001717 0)
(-0.00126477 0.00194101 0)
(-0.00165877 0.00212003 0)
(-0.00207943 0.00226036 0)
(-0.00252086 0.00236807 0)
(-0.00297824 0.00244877 0)
(-0.00344762 0.00250746 0)
(-0.00392579 0.00254851 0)
(-0.00441015 0.00257563 0)
(-0.00489861 0.00259191 0)
(-0.00538949 0.00259984 0)
(-0.00588149 0.00260141 0)
(-0.00637354 0.00259814 0)
(-0.00686481 0.0025912 0)
(-0.00735464 0.00258143 0)
(-0.00784247 0.00256942 0)
(-0.00832785 0.00255557 0)
(-0.0088104 0.00254014 0)
(-0.00928974 0.00252326 0)
(-0.00976557 0.00250501 0)
(-0.0102376 0.00248538 0)
(-0.0107054 0.00246436 0)
(-0.0111688 0.00244188 0)
(-0.0116274 0.00241787 0)
(-0.0120809 0.00239224 0)
(-0.012529 0.00236492 0)
(-0.0129712 0.00233581 0)
(-0.0134074 0.00230482 0)
(-0.0138369 0.00227184 0)
(-0.0142596 0.0022368 0)
(-0.0146749 0.00219958 0)
(-0.0150825 0.00216011 0)
(-0.0154818 0.00211829 0)
(-0.0158725 0.00207403 0)
(-0.0162541 0.00202724 0)
(-0.016626 0.00197785 0)
(-0.0169879 0.00192577 0)
(-0.0173392 0.00187093 0)
(-0.0176794 0.00181325 0)
(-0.0180079 0.00175268 0)
(-0.0183242 0.00168916 0)
(-0.0186279 0.00162263 0)
(-0.0189183 0.00155306 0)
(-0.0191948 0.00148041 0)
(-0.019457 0.00140466 0)
(-0.0197043 0.00132581 0)
(-0.0199361 0.00124385 0)
(-0.0201519 0.00115881 0)
(-0.0203512 0.0010707 0)
(-0.0205334 0.000979573 0)
(-0.020698 0.000885488 0)
(-0.0208444 0.00078852 0)
(-0.0209723 0.000688761 0)
(-0.0210811 0.00058632 0)
(-0.0211705 0.000481324 0)
(-0.0212399 0.000373918 0)
(-0.0212891 0.000264265 0)
(-0.0213176 0.000152544 0)
(-0.0213252 3.89544e-05 0)
(-0.0213116 -7.62892e-05 0)
(-0.0212765 -0.000192955 0)
(-0.0212197 -0.000310796 0)
(-0.0211412 -0.00042955 0)
(-0.0210408 -0.000548943 0)
(-0.0209185 -0.000668686 0)
(-0.0207743 -0.000788484 0)
(-0.0206083 -0.000908031 0)
(-0.0204205 -0.00102701 0)
(-0.0202112 -0.00114512 0)
(-0.0199806 -0.00126203 0)
(-0.019729 -0.00137742 0)
(-0.0194567 -0.00149098 0)
(-0.0191641 -0.0016024 0)
(-0.0188517 -0.00171139 0)
(-0.0185199 -0.00181764 0)
(-0.0181694 -0.00192088 0)
(-0.0178006 -0.00202085 0)
(-0.0174143 -0.0021173 0)
(-0.0170111 -0.00221 0)
(-0.0165918 -0.00229875 0)
(-0.0161569 -0.00238336 0)
(-0.0157074 -0.00246367 0)
(-0.0152441 -0.00253954 0)
(-0.0147676 -0.00261084 0)
(-0.014279 -0.00267749 0)
(-0.0137789 -0.0027394 0)
(-0.0132683 -0.0027965 0)