/*--------------------------------*- C++ -*----------------------------------*\
| =========                 |                                                 |
| \\      /  F ield         | OpenFOAM: The Open Source CFD Toolbox           |
|  \\    /   O peration     | Version:  2406                                  |
|   \\  /    A nd           | Website:  www.openfoam.com                      |
|    \\/     M anipulation  |                                                 |
\*---------------------------------------------------------------------------*/
FoamFile
{
    version     2.0;
    format      ascii;
    arch        "LSB;label=32;scalar=64";
    class       volScalarField;
    location    "3.65";
    object      p;
}
// * * * * * * * * * * * * * * * * * * * * * * * * * * * * * * * * * * * * * //

dimensions      [0 2 -2 0 0 0 0];

internalField   nonuniform List<scalar> 
14400
(
-1.39085e-08
-9.14867e-07
-2.27924e-06
-3.63304e-06
-4.63779e-06
-5.06845e-06
-4.79264e-06
-3.73645e-06
-1.86272e-06
8.41637e-07
4.37513e-06
8.72869e-06
1.38902e-05
1.98467e-05
2.65855e-05
3.40953e-05
4.23669e-05
5.13925e-05
6.11663e-05
7.16832e-05
8.29395e-05
9.49318e-05
0.000107658
0.000121114
0.0001353
0.000150213
0.00016585
0.000182209
0.000199288
0.000217082
0.00023559
0.000254807
0.000274729
0.000295352
0.000316669
0.000338676
0.000361366
0.000384732
0.000408767
0.000433462
0.000458807
0.000484793
0.000511409
0.000538643
0.000566483
0.000594914
0.000623922
0.000653492
0.000683606
0.000714247
0.000745397
0.000777034
0.000809137
0.000841685
0.000874653
0.000908017
0.000941751
0.000975826
0.00101021
0.00104489
0.00107981
0.00111496
0.00115029
0.00118578
0.00122139
0.00125708
0.00129281
0.00132855
0.00136425
0.00139988
0.0014354
0.00147077
0.00150594
0.00154087
0.00157553
0.00160986
0.00164383
0.00167739
0.00171051
0.00174313
0.00177523
0.00180675
0.00183766
0.00186792
0.0018975
0.00192635
0.00195443
0.00198173
0.00200819
0.00203379
0.0020585
0.00208229
0.00210513
0.00212701
0.00214788
0.00216774
0.00218656
0.00220432
0.002221
0.0022366
0.0022511
0.00226448
0.00227673
0.00228785
0.00229783
0.00230665
0.00231432
0.00232084
0.0023262
0.00233042
0.00233352
0.00233552
0.00233647
0.00233644
0.00233554
0.00233394
0.00233185
0.00232961
0.00232769
0.00232656
8.84768e-07
-1.85879e-08
-1.25214e-06
-2.34632e-06
-3.07836e-06
-3.26273e-06
-2.77974e-06
-1.55789e-06
4.42194e-07
3.23848e-06
6.83578e-06
1.12314e-05
1.64186e-05
2.23883e-05
2.91313e-05
3.66389e-05
4.49037e-05
5.39197e-05
6.36815e-05
7.41848e-05
8.54259e-05
9.74019e-05
0.00011011
0.000123549
0.000137715
0.000152607
0.000168223
0.000184558
0.000201612
0.000219381
0.000237861
0.000257049
0.000276941
0.000297531
0.000318815
0.000340786
0.000363439
0.000386766
0.000410759
0.000435411
0.000460711
0.00048665
0.000513217
0.0005404
0.000568186
0.000596561
0.000625511
0.000655021
0.000685072
0.000715649
0.00074673
0.000778298
0.00081033
0.000842803
0.000875695
0.000908979
0.000942631
0.000976623
0.00101093
0.00104551
0.00108035
0.0011154
0.00115064
0.00118603
0.00122154
0.00125713
0.00129276
0.00132839
0.00136399
0.00139952
0.00143493
0.00147019
0.00150525
0.00154008
0.00157462
0.00160884
0.0016427
0.00167615
0.00170916
0.00174167
0.00177366
0.00180508
0.00183588
0.00186604
0.00189551
0.00192425
0.00195224
0.00197943
0.0020058
0.00203131
0.00205593
0.00207963
0.00210239
0.00212417
0.00214497
0.00216475
0.0021835
0.00220119
0.00221781
0.00223335
0.00224779
0.00226112
0.00227333
0.00228441
0.00229435
0.00230316
0.00231083
0.00231736
0.00232277
0.00232705
0.00233025
0.00233239
0.00233354
0.00233375
0.00233316
0.0023319
0.00233018
0.00232829
0.00232655
0.00232543
2.25012e-06
1.20953e-06
-3.11072e-08
-9.06716e-07
-1.37088e-06
-1.29575e-06
-5.82836e-07
8.29858e-07
2.98004e-06
5.88931e-06
9.56821e-06
1.402e-05
1.92432e-05
2.52335e-05
3.19854e-05
3.94935e-05
4.77528e-05
5.67588e-05
6.65073e-05
7.69947e-05
8.8218e-05
0.000100174
0.000112862
0.000126278
0.00014042
0.000155287
0.000170875
0.000187182
0.000204206
0.000221943
0.00024039
0.000259543
0.000279398
0.00029995
0.000321193
0.000343122
0.000365731
0.000389011
0.000412956
0.000437557
0.000462805
0.000488689
0.000515199
0.000542322
0.000570046
0.000598357
0.000627241
0.000656682
0.000686662
0.000717165
0.000748171
0.00077966
0.00081161
0.000844001
0.000876806
0.000910003
0.000943565
0.000977463
0.00101167
0.00104616
0.00108089
0.00111585
0.00115098
0.00118627
0.00122167
0.00125715
0.00129267
0.00132819
0.00136368
0.00139909
0.00143439
0.00146953
0.00150447
0.00153917
0.0015736
0.0016077
0.00164144
0.00167477
0.00170765
0.00174005
0.00177192
0.00180321
0.0018339
0.00186394
0.0018933
0.00192193
0.0019498
0.00197689
0.00200314
0.00202855
0.00205306
0.00207666
0.00209932
0.00212101
0.00214172
0.00216141
0.00218007
0.00219768
0.00221422
0.00222969
0.00224406
0.00225733
0.00226948
0.00228052
0.00229043
0.00229922
0.00230688
0.00231343
0.00231888
0.00232324
0.00232655
0.00232885
0.0023302
0.00233069
0.00233041
0.0023295
0.00232814
0.00232653
0.00232481
0.00232351
3.60643e-06
2.29186e-06
8.22255e-07
-5.37399e-08
-4.31761e-07
-2.33966e-07
6.11497e-07
2.14897e-06
4.4072e-06
7.40527e-06
1.11539e-05
1.56581e-05
2.09184e-05
2.69331e-05
3.36995e-05
4.12142e-05
4.94742e-05
5.8476e-05
6.82166e-05
7.86932e-05
8.99034e-05
0.000101845
0.000114516
0.000127914
0.000142037
0.000156883
0.00017245
0.000188735
0.000205735
0.000223447
0.000241868
0.000260994
0.000280821
0.000301344
0.000322557
0.000344454
0.00036703
0.000390277
0.000414188
0.000438753
0.000463964
0.00048981
0.000516281
0.000543364
0.000571047
0.000599317
0.000628157
0.000657554
0.000687489
0.000717946
0.000748905
0.000780346
0.000812247
0.000844588
0.000877343
0.000910488
0.000943996
0.000977842
0.001012
0.00104643
0.00108111
0.001116
0.00115108
0.00118631
0.00122165
0.00125707
0.00129253
0.00132799
0.00136342
0.00139877
0.001434
0.00146908
0.00150396
0.0015386
0.00157296
0.001607
0.00164067
0.00167393
0.00170675
0.00173908
0.00177088
0.00180211
0.00183273
0.0018627
0.00189199
0.00192056
0.00194836
0.00197538
0.00200157
0.00202691
0.00205135
0.00207489
0.00209748
0.00211911
0.00213975
0.00215938
0.00217798
0.00219553
0.00221202
0.00222743
0.00224175
0.00225497
0.00226709
0.00227808
0.00228797
0.00229673
0.00230439
0.00231094
0.00231641
0.00232081
0.00232419
0.00232658
0.00232805
0.00232867
0.00232854
0.00232777
0.00232651
0.0023249
0.0023229
0.00232128
4.59503e-06
2.99072e-06
1.2388e-06
2.77962e-07
-9.5549e-08
1.56722e-07
1.08153e-06
2.70492e-06
5.04486e-06
8.1151e-06
1.1924e-05
1.64758e-05
2.17719e-05
2.78121e-05
3.45951e-05
4.21194e-05
5.0383e-05
5.93838e-05
6.91195e-05
7.95883e-05
9.07881e-05
0.000102717
0.000115375
0.000128758
0.000142864
0.000157693
0.000173241
0.000189507
0.000206487
0.000224179
0.000242578
0.000261682
0.000281486
0.000301986
0.000323175
0.000345049
0.0003676
0.000390822
0.000414707
0.000439246
0.000464431
0.000490251
0.000516696
0.000543752
0.000571408
0.000599651
0.000628464
0.000657834
0.000687742
0.000718172
0.000749104
0.000780518
0.000812393
0.000844706
0.000877435
0.000910554
0.000944037
0.000977856
0.00101198
0.00104639
0.00108105
0.00111592
0.00115097
0.00118617
0.00122149
0.00125689
0.00129232
0.00132776
0.00136316
0.00139848
0.00143369
0.00146874
0.0015036
0.00153821
0.00157254
0.00160655
0.0016402
0.00167344
0.00170623
0.00173852
0.00177029
0.00180149
0.00183208
0.00186202
0.00189127
0.00191979
0.00194756
0.00197454
0.00200069
0.00202598
0.00205039
0.00207388
0.00209643
0.00211801
0.00213861
0.00215819
0.00217674
0.00219425
0.00221069
0.00222605
0.00224033
0.00225351
0.00226558
0.00227654
0.00228639
0.00229514
0.00230278
0.00230932
0.0023148
0.00231922
0.00232263
0.00232507
0.0023266
0.00232729
0.00232721
0.00232648
0.00232519
0.00232346
0.00232112
0.00231915
4.96682e-06
3.09248e-06
1.06081e-06
-2.00466e-08
-4.34873e-07
-1.73714e-07
7.90421e-07
2.46775e-06
4.86546e-06
7.99083e-06
1.18484e-05
1.64407e-05
2.17688e-05
2.7833e-05
3.4633e-05
4.21681e-05
5.04372e-05
5.94391e-05
6.91724e-05
7.96358e-05
9.08281e-05
0.000102748
0.000115394
0.000128765
0.000142859
0.000157673
0.000173207
0.000189457
0.000206422
0.000224097
0.000242481
0.000261568
0.000281356
0.000301839
0.000323012
0.000344869
0.000367404
0.00039061
0.00041448
0.000439004
0.000464174
0.00048998
0.000516411
0.000543455
0.000571099
0.000599331
0.000628134
0.000657494
0.000687394
0.000717817
0.000748743
0.000780152
0.000812023
0.000844334
0.000877062
0.000910181
0.000943665
0.000977487
0.00101162
0.00104603
0.00108069
0.00111557
0.00115063
0.00118584
0.00122117
0.00125657
0.00129202
0.00132747
0.00136288
0.00139822
0.00143344
0.0014685
0.00150337
0.001538
0.00157234
0.00160636
0.00164001
0.00167326
0.00170605
0.00173836
0.00177013
0.00180133
0.00183191
0.00186185
0.00189109
0.00191961
0.00194737
0.00197433
0.00200047
0.00202574
0.00205013
0.00207359
0.00209612
0.00211767
0.00213823
0.00215778
0.0021763
0.00219377
0.00221017
0.0022255
0.00223973
0.00225287
0.00226491
0.00227584
0.00228566
0.00229437
0.00230199
0.00230852
0.00231398
0.0023184
0.00232182
0.00232427
0.00232581
0.00232651
0.00232643
0.00232566
0.00232428
0.00232238
0.00231971
0.00231742
4.5539e-06
2.44283e-06
1.57127e-07
-1.05407e-06
-1.53486e-06
-1.29436e-06
-3.19834e-07
1.38612e-06
3.82095e-06
6.98536e-06
1.08798e-05
1.55044e-05
2.08593e-05
2.69448e-05
3.37607e-05
4.13067e-05
4.95823e-05
5.85869e-05
6.83198e-05
7.87803e-05
8.99678e-05
0.000101881
0.00011452
0.000127882
0.000141966
0.00015677
0.000172294
0.000188533
0.000205487
0.000223152
0.000241525
0.000260603
0.000280381
0.000300855
0.000322019
0.000343869
0.000366397
0.000389598
0.000413463
0.000437984
0.000463152
0.000488957
0.000515389
0.000542436
0.000570084
0.000598321
0.000627133
0.000656503
0.000686415
0.000716851
0.000747793
0.000779221
0.000811113
0.000843447
0.000876199
0.000909345
0.000942859
0.000976713
0.00101088
0.00104533
0.00108003
0.00111494
0.00115005
0.0011853
0.00122068
0.00125613
0.00129162
0.00132712
0.00136258
0.00139797
0.00143324
0.00146835
0.00150327
0.00153794
0.00157234
0.0016064
0.0016401
0.00167339
0.00170623
0.00173857
0.00177038
0.00180161
0.00183223
0.00186219
0.00189146
0.00192
0.00194778
0.00197475
0.00200089
0.00202617
0.00205055
0.00207402
0.00209653
0.00211807
0.00213861
0.00215814
0.00217664
0.00219408
0.00221045
0.00222574
0.00223995
0.00225305
0.00226505
0.00227594
0.00228572
0.0022944
0.00230199
0.00230849
0.00231393
0.00231833
0.00232173
0.00232416
0.00232568
0.00232635
0.00232622
0.00232536
0.00232386
0.00232177
0.00231879
0.00231624
3.24384e-06
9.35083e-07
-1.56888e-06
-2.90549e-06
-3.46111e-06
-3.25695e-06
-2.29028e-06
-5.73704e-07
1.88206e-06
5.07193e-06
8.99247e-06
1.36415e-05
1.9018e-05
2.51213e-05
3.19513e-05
3.95076e-05
4.779e-05
5.67985e-05
6.65328e-05
7.69928e-05
8.81781e-05
0.000100088
0.000112722
0.000126079
0.000140157
0.000154956
0.000170474
0.000186708
0.000203656
0.000221317
0.000239686
0.000258761
0.000278537
0.00029901
0.000320175
0.000342026
0.000364558
0.000387763
0.000411636
0.000436166
0.000461345
0.000487164
0.000513612
0.000540677
0.000568346
0.000596607
0.000625445
0.000654845
0.00068479
0.000715262
0.000746243
0.000777713
0.000809651
0.000842033
0.000874838
0.000908039
0.000941612
0.000975528
0.00100976
0.00104427
0.00107904
0.00111404
0.00114922
0.00118455
0.00122
0.00125554
0.00129112
0.0013267
0.00136225
0.00139772
0.00143308
0.00146829
0.00150329
0.00153805
0.00157253
0.00160668
0.00164046
0.00167383
0.00170675
0.00173916
0.00177104
0.00180234
0.00183302
0.00186304
0.00189236
0.00192095
0.00194876
0.00197577
0.00200194
0.00202725
0.00205165
0.00207512
0.00209764
0.00211918
0.00213972
0.00215924
0.00217772
0.00219514
0.00221148
0.00222675
0.00224092
0.00225399
0.00226595
0.0022768
0.00228655
0.00229519
0.00230273
0.00230919
0.0023146
0.00231896
0.00232232
0.00232471
0.00232618
0.00232679
0.00232658
0.00232561
0.00232397
0.0023217
0.00231847
0.0023157
9.62782e-07
-1.50583e-06
-4.19071e-06
-5.63979e-06
-6.26901e-06
-6.10719e-06
-5.15859e-06
-3.44335e-06
-9.78512e-07
2.2262e-06
6.16407e-06
1.08308e-05
1.62237e-05
2.23415e-05
2.91834e-05
3.6749e-05
4.50384e-05
5.40517e-05
6.37891e-05
7.42506e-05
8.54363e-05
9.73458e-05
0.000109979
0.000123334
0.000137411
0.000152209
0.000167725
0.00018396
0.000200909
0.000218571
0.000236944
0.000256023
0.000275805
0.000296285
0.00031746
0.000339323
0.000361869
0.000385091
0.000408983
0.000433535
0.00045874
0.000484587
0.000511066
0.000538166
0.000565874
0.000594177
0.000623062
0.000652512
0.000682511
0.000713041
0.000744085
0.000775621
0.00080763
0.000840088
0.000872973
0.000906258
0.000939919
0.000973927
0.00100825
0.00104287
0.00107774
0.00111284
0.00114814
0.00118358
0.00121915
0.00125481
0.00129051
0.00132621
0.00136189
0.00139749
0.00143297
0.0014683
0.00150343
0.00153831
0.00157292
0.00160719
0.00164109
0.00167457
0.0017076
0.00174012
0.0017721
0.0018035
0.00183427
0.00186437
0.00189377
0.00192243
0.00195031
0.00197738
0.0020036
0.00202895
0.00205339
0.00207689
0.00209943
0.00212098
0.00214153
0.00216104
0.00217951
0.00219691
0.00221324
0.00222848
0.00224262
0.00225565
0.00226757
0.00227838
0.00228808
0.00229667
0.00230417
0.00231059
0.00231594
0.00232025
0.00232355
0.00232588
0.00232728
0.00232781
0.0023275
0.00232642
0.00232464
0.00232221
0.00231877
0.00231584
-2.33767e-06
-4.93304e-06
-7.76411e-06
-9.30954e-06
-1.00059e-05
-9.88685e-06
-8.96132e-06
-7.25485e-06
-4.78911e-06
-1.57735e-06
2.37106e-06
7.04979e-06
1.24549e-05
1.8584e-05
2.54358e-05
3.301e-05
4.13064e-05
5.03253e-05
6.00672e-05
7.05325e-05
8.17211e-05
9.36332e-05
0.000106269
0.000119627
0.000133707
0.000148508
0.000164029
0.000180269
0.000197225
0.000214896
0.000233279
0.00025237
0.000272167
0.000292664
0.000313858
0.000335744
0.000358315
0.000381566
0.00040549
0.000430078
0.000455322
0.000481213
0.00050774
0.000534892
0.000562657
0.000591022
0.000619972
0.000649494
0.000679569
0.000710181
0.000741311
0.00077294
0.000805046
0.000837607
0.000870599
0.000903998
0.000937777
0.000971909
0.00100636
0.00104111
0.00107613
0.00111137
0.0011468
0.0011824
0.00121813
0.00125393
0.00128979
0.00132566
0.0013615
0.00139726
0.00143291
0.0014684
0.00150369
0.00153874
0.0015735
0.00160793
0.00164198
0.00167561
0.00170878
0.00174145
0.00177356
0.00180509
0.00183598
0.00186619
0.0018957
0.00192446
0.00195243
0.00197957
0.00200587
0.00203127
0.00205576
0.0020793
0.00210188
0.00212345
0.00214401
0.00216353
0.002182
0.00219939
0.0022157
0.00223091
0.00224502
0.00225801
0.00226989
0.00228065
0.0022903
0.00229884
0.00230628
0.00231263
0.00231792
0.00232216
0.0023254
0.00232765
0.00232897
0.0023294
0.00232899
0.00232779
0.00232588
0.0023233
0.0023197
0.00231664
-6.6888e-06
-9.38308e-06
-1.23297e-05
-1.3955e-05
-1.471e-05
-1.46311e-05
-1.37302e-05
-1.20365e-05
-9.57499e-06
-6.36145e-06
-2.40744e-06
2.27905e-06
7.69282e-06
1.38307e-05
2.06909e-05
2.82728e-05
3.65764e-05
4.56019e-05
5.535e-05
6.5821e-05
7.70153e-05
8.89332e-05
0.000101575
0.000114939
0.000129027
0.000143837
0.000159368
0.00017562
0.00019259
0.000210276
0.000228677
0.000247789
0.000267609
0.000288133
0.000309357
0.000331276
0.000353884
0.000377176
0.000401145
0.000425783
0.000451082
0.000477032
0.000503624
0.000530846
0.000558686
0.000587132
0.00061617
0.000645784
0.000675958
0.000706676
0.000737917
0.000769664
0.000801894
0.000834586
0.000867715
0.000901257
0.000935185
0.000969472
0.00100409
0.001039
0.00107419
0.00110961
0.00114523
0.00118101
0.00121692
0.00125293
0.00128898
0.00132504
0.00136108
0.00139704
0.00143289
0.00146859
0.00150408
0.00153933
0.00157428
0.0016089
0.00164314
0.00167696
0.00171031
0.00174315
0.00177543
0.00180711
0.00183815
0.00186851
0.00189814
0.00192702
0.0019551
0.00198235
0.00200873
0.00203421
0.00205877
0.00208236
0.00210498
0.00212659
0.00214717
0.0021667
0.00218517
0.00220255
0.00221884
0.00223403
0.0022481
0.00226105
0.00227288
0.00228359
0.00229318
0.00230166
0.00230903
0.00231531
0.00232052
0.00232469
0.00232784
0.00233001
0.00233123
0.00233156
0.00233104
0.00232973
0.00232769
0.00232499
0.00232126
0.00231811
-1.21096e-05
-1.488e-05
-1.79167e-05
-1.96069e-05
-2.04117e-05
-2.03688e-05
-1.94919e-05
-1.78126e-05
-1.5358e-05
-1.2146e-05
-8.18975e-06
-3.49858e-06
1.9213e-06
8.06607e-06
1.49336e-05
2.2523e-05
3.08341e-05
3.98673e-05
4.96231e-05
6.0102e-05
7.13047e-05
8.32315e-05
9.58827e-05
0.000109258
0.000123358
0.000138182
0.000153729
0.000169999
0.000186989
0.000204699
0.000223125
0.000242266
0.000262118
0.000282679
0.000303943
0.000325907
0.000348564
0.000371911
0.000395939
0.000420641
0.00044601
0.000472036
0.000498709
0.000526019
0.000553954
0.000582501
0.000611647
0.000641376
0.000671673
0.00070252
0.000733898
0.000765789
0.000798171
0.000831021
0.000864316
0.000898032
0.000932141
0.000966615
0.00100143
0.00103654
0.00107193
0.00110756
0.0011434
0.00117941
0.00121555
0.00125178
0.00128807
0.00132437
0.00136064
0.00139685
0.00143294
0.00146887
0.0015046
0.00154008
0.00157527
0.00161012
0.00164459
0.00167862
0.00171218
0.00174522
0.0017777
0.00180957
0.00184079
0.00187131
0.0019011
0.00193012
0.00195834
0.0019857
0.00201219
0.00203777
0.0020624
0.00208607
0.00210874
0.00213039
0.002151
0.00217054
0.00218901
0.00220639
0.00222266
0.00223782
0.00225185
0.00226476
0.00227654
0.00228718
0.0022967
0.00230511
0.0023124
0.0023186
0.00232373
0.0023278
0.00233086
0.00233293
0.00233405
0.00233427
0.00233365
0.00233222
0.00233007
0.00232726
0.00232343
0.00232021
-1.86109e-05
-2.14395e-05
-2.4546e-05
-2.62885e-05
-2.71348e-05
-2.71233e-05
-2.62685e-05
-2.46034e-05
-2.2157e-05
-1.89483e-05
-1.49919e-05
-1.0298e-05
-4.87369e-06
1.27682e-06
8.15107e-06
1.5748e-05
2.40672e-05
3.31092e-05
4.28745e-05
5.33636e-05
6.45774e-05
7.65164e-05
8.91812e-05
0.000102572
0.000116689
0.000131532
0.000147101
0.000163394
0.000180412
0.000198152
0.000216612
0.000235791
0.000255685
0.000276291
0.000297607
0.000319626
0.000342346
0.000365759
0.00038986
0.000414641
0.000440096
0.000466214
0.000492987
0.000520403
0.000548452
0.000577121
0.000606396
0.000636263
0.000666705
0.000697706
0.000729247
0.000761309
0.00079387
0.000826908
0.000860399
0.000894319
0.00092864
0.000963335
0.000998373
0.00103373
0.00106936
0.00110524
0.00114133
0.0011776
0.001214
0.0012505
0.00128706
0.00132364
0.00136019
0.00139667
0.00143304
0.00146925
0.00150526
0.00154101
0.00157647
0.00161159
0.00164632
0.0016806
0.00171441
0.00174769
0.00178039
0.00181248
0.0018439
0.00187462
0.00190459
0.00193378
0.00196214
0.00198965
0.00201626
0.00204195
0.00206667
0.00209042
0.00211315
0.00213485
0.00215549
0.00217506
0.00219353
0.0022109
0.00222715
0.00224228
0.00225627
0.00226912
0.00228084
0.00229141
0.00230086
0.00230918
0.00231638
0.00232249
0.00232752
0.00233149
0.00233444
0.00233641
0.00233742
0.00233753
0.00233679
0.00233525
0.002333
0.00233009
0.00232619
0.00232291
-2.61986e-05
-2.90719e-05
-3.22328e-05
-3.40172e-05
-3.48978e-05
-3.4913e-05
-3.40776e-05
-3.24259e-05
-2.99876e-05
-2.67831e-05
-2.28276e-05
-1.81322e-05
-1.27043e-05
-6.54854e-06
3.32365e-07
7.93713e-06
1.62654e-05
2.53175e-05
3.50939e-05
4.55955e-05
5.68231e-05
6.87776e-05
8.14596e-05
9.48698e-05
0.000109009
0.000123876
0.000139472
0.000155796
0.000172847
0.000190625
0.000209127
0.000228352
0.000248297
0.00026896
0.000290337
0.000312425
0.000335218
0.000358711
0.000382899
0.000407774
0.00043333
0.000459557
0.000486447
0.000513988
0.000542171
0.000570982
0.000600408
0.000630435
0.000661047
0.000692227
0.000723957
0.000756216
0.000788985
0.00082224
0.000855957
0.000890112
0.000924678
0.000959626
0.000994927
0.00103055
0.00106646
0.00110262
0.00113901
0.00117557
0.00121228
0.00124909
0.00128596
0.00132285
0.00135972
0.00139652
0.00143321
0.00146974
0.00150606
0.00154213
0.00157789
0.00161331
0.00164833
0.00168291
0.001717
0.00175054
0.0017835
0.00181584
0.00184749
0.00187843
0.00190861
0.00193799
0.00196652
0.00199419
0.00202094
0.00204675
0.00207158
0.00209541
0.00211822
0.00213997
0.00216065
0.00218024
0.00219872
0.00221608
0.00223231
0.0022474
0.00226134
0.00227413
0.00228578
0.00229628
0.00230563
0.00231386
0.00232097
0.00232697
0.00233189
0.00233575
0.00233858
0.00234042
0.00234132
0.00234131
0.00234046
0.00233881
0.00233646
0.00233348
0.0023295
0.00232619
-3.48759e-05
-3.77841e-05
-4.09878e-05
-4.2806e-05
-4.37148e-05
-4.37522e-05
-4.29337e-05
-4.12938e-05
-3.88633e-05
-3.5663e-05
-3.17089e-05
-2.70123e-05
-2.1581e-05
-1.542e-05
-8.53216e-06
-9.18902e-07
7.41936e-06
1.64829e-05
2.62723e-05
3.67886e-05
4.80327e-05
6.00058e-05
7.27088e-05
8.61425e-05
0.000100308
0.000115205
0.000130833
0.000147194
0.000164286
0.000182109
0.00020066
0.00021994
0.000239946
0.000260675
0.000282125
0.000304291
0.00032717
0.000350756
0.000375045
0.000400029
0.000425701
0.000452054
0.000479078
0.000506763
0.000535099
0.000564073
0.000593673
0.000623883
0.000654688
0.000686072
0.000718016
0.000750501
0.000783505
0.000817006
0.000850981
0.000885403
0.000920246
0.00095548
0.000991077
0.001027
0.00106323
0.00109972
0.00113643
0.00117333
0.00121038
0.00124754
0.00128476
0.00132201
0.00135923
0.00139639
0.00143344
0.00147032
0.001507
0.00154342
0.00157953
0.00161529
0.00165065
0.00168555
0.00171995
0.0017538
0.00178705
0.00181966
0.00185157
0.00188276
0.00191317
0.00194276
0.00197149
0.00199933
0.00202624
0.00205218
0.00207714
0.00210107
0.00212395
0.00214576
0.00216648
0.00218609
0.00220458
0.00222193
0.00223813
0.00225318
0.00226707
0.00227979
0.00229136
0.00230176
0.00231102
0.00231914
0.00232613
0.00233202
0.00233681
0.00234055
0.00234326
0.00234497
0.00234574
0.00234562
0.00234465
0.00234289
0.00234045
0.00233739
0.00233336
0.00233001
-4.46445e-05
-4.75807e-05
-5.08186e-05
-5.26644e-05
-5.35963e-05
-5.36525e-05
-5.28483e-05
-5.12189e-05
-4.87953e-05
-4.55988e-05
-4.16458e-05
-3.69479e-05
-3.1513e-05
-2.53465e-05
-1.84511e-05
-1.08286e-05
-2.47934e-06
6.59702e-06
1.64012e-05
2.69344e-05
3.81977e-05
5.01925e-05
6.29199e-05
7.6381e-05
9.05769e-05
0.000105508
0.000121175
0.000137578
0.000154717
0.000172592
0.000191201
0.000210544
0.00023062
0.000251425
0.000272957
0.000295213
0.00031819
0.000341883
0.000366286
0.000391393
0.000417198
0.000443693
0.000470869
0.000498716
0.000527225
0.000556382
0.000586176
0.000616592
0.000647615
0.000679228
0.000711413
0.00074415
0.000777418
0.000811195
0.000845457
0.000880178
0.000915331
0.000950887
0.000986815
0.00102308
0.00105966
0.00109651
0.00113359
0.00117086
0.0012083
0.00124584
0.00128346
0.0013211
0.00135872
0.00139628
0.00143373
0.00147101
0.00150808
0.00154489
0.00158139
0.00161753
0.00165326
0.00168852
0.00172327
0.00175745
0.00179103
0.00182394
0.00185615
0.00188761
0.00191827
0.0019481
0.00197705
0.00200508
0.00203216
0.00205826
0.00208334
0.00210738
0.00213035
0.00215223
0.00217299
0.00219262
0.00221112
0.00222845
0.00224462
0.00225962
0.00227344
0.00228609
0.00229756
0.00230787
0.00231702
0.00232501
0.00233188
0.00233763
0.00234229
0.00234589
0.00234846
0.00235004
0.00235067
0.00235042
0.00234933
0.00234747
0.00234493
0.0023418
0.00233772
0.00233434
-5.55052e-05
-5.84645e-05
-6.17309e-05
-6.35996e-05
-6.4551e-05
-6.46231e-05
-6.38312e-05
-6.22107e-05
-5.9793e-05
-5.65998e-05
-5.26473e-05
-4.79476e-05
-4.25087e-05
-3.6336e-05
-2.94326e-05
-2.18e-05
-1.34386e-05
-4.348e-06
5.47272e-06
1.60248e-05
2.73098e-05
3.93291e-05
5.20842e-05
6.55765e-05
7.98072e-05
9.47774e-05
0.000110488
0.000126939
0.000144131
0.000162065
0.000180739
0.000200153
0.000220306
0.000241197
0.000262822
0.00028518
0.000308266
0.000332077
0.000356607
0.000381852
0.000407805
0.000434458
0.000461803
0.000489831
0.000518532
0.000547893
0.000577903
0.000608548
0.000639812
0.000671679
0.000704131
0.000737148
0.000770709
0.000804792
0.000839372
0.000874424
0.00090992
0.000945831
0.000982126
0.00101877
0.00105574
0.00109298
0.00113047
0.00116816
0.00120602
0.00124399
0.00128204
0.00132012
0.00135819
0.00139619
0.00143407
0.0014718
0.00150931
0.00154655
0.00158348
0.00162003
0.00165617
0.00169183
0.00172696
0.00176152
0.00179545
0.0018287
0.00186123
0.00189299
0.00192393
0.00195402
0.0019832
0.00201145
0.00203872
0.00206498
0.0020902
0.00211436
0.00213742
0.00215937
0.00218018
0.00219983
0.00221833
0.00223564
0.00225177
0.00226671
0.00228046
0.00229302
0.00230439
0.00231459
0.00232361
0.00233147
0.00233819
0.0023438
0.00234831
0.00235175
0.00235417
0.0023556
0.0023561
0.00235571
0.0023545
0.00235253
0.0023499
0.00234669
0.00234256
0.00233915
-6.74587e-05
-7.04381e-05
-7.37292e-05
-7.56176e-05
-7.65859e-05
-7.66717e-05
-7.58904e-05
-7.42776e-05
-7.18648e-05
-6.86739e-05
-6.47213e-05
-6.00191e-05
-5.45757e-05
-4.83963e-05
-4.14842e-05
-3.38406e-05
-2.54661e-05
-1.63599e-05
-6.5211e-06
4.0519e-06
1.53607e-05
2.74072e-05
4.01929e-05
5.37197e-05
6.79891e-05
8.30024e-05
9.87608e-05
0.000115265
0.000132517
0.000150515
0.000169261
0.000188754
0.000208994
0.000229978
0.000251706
0.000274175
0.000297382
0.000321323
0.000345995
0.000371391
0.000397506
0.000424333
0.000451865
0.000480091
0.000509003
0.000538588
0.000568836
0.000599732
0.000631261
0.000663407
0.000696151
0.000729475
0.000763358
0.000797776
0.000832706
0.000868121
0.000903994
0.000940295
0.000976992
0.00101405
0.00105144
0.00108913
0.00112706
0.00116521
0.00120353
0.00124197
0.0012805
0.00131906
0.00135761
0.00139609
0.00143447
0.00147267
0.00151066
0.00154838
0.00158578
0.00162279
0.00165937
0.00169547
0.00173103
0.00176599
0.00180031
0.00183394
0.00186682
0.00189891
0.00193015
0.00196052
0.00198996
0.00201844
0.00204592
0.00207236
0.00209773
0.00212201
0.00214517
0.00216719
0.00218805
0.00220773
0.00222622
0.00224351
0.00225959
0.00227447
0.00228813
0.00230059
0.00231185
0.00232191
0.00233079
0.0023385
0.00234507
0.00235051
0.00235485
0.00235813
0.00236039
0.00236166
0.002362
0.00236147
0.00236013
0.00235804
0.00235531
0.00235203
0.00234786
0.00234443
-8.0506e-05
-8.35038e-05
-8.68175e-05
-8.87237e-05
-8.97069e-05
-8.98049e-05
-8.90329e-05
-8.74266e-05
-8.50178e-05
-8.18283e-05
-7.7875e-05
-7.31699e-05
-6.77214e-05
-6.15348e-05
-5.46132e-05
-4.6958e-05
-3.85694e-05
-2.94465e-05
-1.95882e-05
-8.99265e-06
2.34202e-06
1.44178e-05
2.72369e-05
4.08011e-05
5.51124e-05
7.01727e-05
8.59834e-05
0.000102546
0.000119862
0.000137931
0.000156755
0.000176334
0.000196668
0.000217755
0.000239594
0.000262185
0.000285523
0.000309606
0.000334431
0.000359992
0.000386284
0.0004133
0.000441034
0.000469476
0.000498618
0.000528447
0.000558954
0.000590123
0.00062194
0.000654389
0.000687452
0.000721111
0.000755343
0.000790126
0.000825437
0.000861247
0.000897531
0.000934256
0.000971393
0.00100891
0.00104676
0.00108492
0.00112334
0.00116199
0.00120081
0.00123977
0.00127882
0.0013179
0.00135698
0.001396
0.0014349
0.00147363
0.00151215
0.00155038
0.00158829
0.00162581
0.00166288
0.00169945
0.00173547
0.00177088
0.00180563
0.00183966
0.00187292
0.00190536
0.00193695
0.00196762
0.00199734
0.00202607
0.00205377
0.0020804
0.00210594
0.00213035
0.00215361
0.00217571
0.00219661
0.00221631
0.00223479
0.00225205
0.00226808
0.00228288
0.00229645
0.00230879
0.00231991
0.00232983
0.00233855
0.00234609
0.00235249
0.00235775
0.00236191
0.00236501
0.00236708
0.00236818
0.00236836
0.00236768
0.00236619
0.00236399
0.00236117
0.00235781
0.00235358
0.00235013
-9.46488e-05
-9.76644e-05
-0.000101
-0.000102922
-0.00010392
-0.000104029
-0.000103265
-0.000101664
-9.92585e-05
-9.60699e-05
-9.21153e-05
-8.74068e-05
-8.19528e-05
-7.57585e-05
-6.88271e-05
-6.11596e-05
-5.27561e-05
-4.36157e-05
-3.37367e-05
-2.31173e-05
-1.17552e-05
3.51844e-07
1.32063e-05
2.68104e-05
4.11667e-05
5.62771e-05
7.21438e-05
8.87687e-05
0.000106153
0.000124299
0.000143207
0.000162879
0.000183313
0.00020451
0.00022647
0.000249191
0.000272671
0.000296907
0.000321897
0.000347635
0.000374118
0.000401338
0.00042929
0.000457965
0.000487354
0.000517447
0.000548232
0.000579696
0.000611825
0.000644602
0.000678009
0.000712029
0.000746639
0.000781818
0.00081754
0.000853779
0.000890506
0.000927692
0.000965304
0.00100331
0.00104167
0.00108034
0.00111929
0.00115848
0.00119785
0.00123737
0.00127698
0.00131664
0.00135629
0.00139588
0.00143536
0.00147467
0.00151375
0.00155255
0.00159101
0.00162907
0.00166668
0.00170377
0.00174029
0.00177619
0.00181139
0.00184586
0.00187954
0.00191237
0.00194431
0.00197532
0.00200534
0.00203434
0.00206228
0.00208911
0.00211483
0.00213938
0.00216275
0.00218492
0.00220587
0.00222559
0.00224406
0.00226128
0.00227724
0.00229195
0.0023054
0.00231761
0.00232859
0.00233834
0.00234689
0.00235424
0.00236044
0.0023655
0.00236947
0.00237237
0.00237425
0.00237516
0.00237516
0.00237431
0.00237268
0.00237035
0.00236742
0.00236399
0.00235971
0.00235623
-0.00010989
-0.000112923
-0.000116279
-0.000118218
-0.000119228
-0.000119348
-0.000118592
-0.000116996
-0.000114593
-0.000111405
-0.000107449
-0.000102737
-9.72769e-05
-9.10748e-05
-8.41331e-05
-7.6453e-05
-6.80342e-05
-5.88755e-05
-4.89752e-05
-3.83309e-05
-2.69403e-05
-1.48006e-05
-1.90909e-06
1.1737e-05
2.61404e-05
4.13038e-05
5.72296e-05
7.39204e-05
9.13782e-05
0.000109605
0.000128602
0.000148371
0.000168913
0.000190228
0.000212316
0.000235176
0.000258806
0.000283206
0.000308371
0.000334299
0.000360985
0.000388424
0.000416609
0.000445534
0.000475188
0.000505563
0.000536646
0.000568426
0.000600888
0.000634017
0.000667795
0.000702203
0.000737219
0.000772822
0.000808987
0.000845687
0.000882892
0.000920574
0.000958697
0.000997229
0.00103613
0.00107536
0.00111488
0.00115465
0.00119462
0.00123474
0.00127496
0.00131524
0.00135551
0.00139572
0.00143583
0.00147576
0.00151546
0.00155487
0.00159393
0.00163259
0.00167077
0.00170843
0.00174549
0.00178191
0.00181761
0.00185256
0.00188668
0.00191994
0.00195227
0.00198363
0.00201398
0.00204326
0.00207145
0.00209851
0.00212441
0.00214911
0.0021726
0.00219484
0.00221584
0.00223557
0.00225402
0.00227118
0.00228707
0.00230167
0.002315
0.00232706
0.00233787
0.00234744
0.00235579
0.00236294
0.00236892
0.00237376
0.00237751
0.00238019
0.00238185
0.00238256
0.00238237
0.00238135
0.00237956
0.0023771
0.00237406
0.00237054
0.00236621
0.0023627
-0.000126232
-0.000129283
-0.000132661
-0.000134615
-0.000135639
-0.000135768
-0.000135019
-0.000133428
-0.000131028
-0.00012784
-0.000123882
-0.000119166
-0.000113701
-0.000107491