/*--------------------------------*- C++ -*----------------------------------*\
| =========                 |                                                 |
| \\      /  F ield         | OpenFOAM: The Open Source CFD Toolbox           |
|  \\    /   O peration     | Version:  2406                                  |
|   \\  /    A nd           | Website:  www.openfoam.com                      |
|    \\/     M anipulation  |                                                 |
\*---------------------------------------------------------------------------*/
FoamFile
{
    version     2.0;
    format      ascii;
    arch        "LSB;label=32;scalar=64";
    class       volScalarField;
    location    "7.8";
    object      p;
}
// * * * * * * * * * * * * * * * * * * * * * * * * * * * * * * * * * * * * * //

dimensions      [0 2 -2 0 0 0 0];

internalField   nonuniform List<scalar> 
900
(
-1.90227e-06
-3.07634e-05
-9.08163e-06
-9.771e-07
4.40648e-05
8.41332e-05
0.0001509
0.000221099
0.000313746
0.000418102
0.000546097
0.000696573
0.000878753
0.00110031
0.00136986
0.00170255
0.00210221
0.00258436
0.00313129
0.00374364
0.00435343
0.00493681
0.00536603
0.00564436
0.00566442
0.00555682
0.00529852
0.00510886
0.00491238
0.00488848
2.94756e-05
4.5342e-07
2.9755e-05
4.09111e-05
8.9584e-05
0.00013189
0.000201421
0.000274077
0.00036941
0.000476024
0.000605648
0.000756309
0.000936324
0.00115218
0.00141113
0.00172742
0.0021046
0.00255975
0.00307764
0.00366328
0.00425084
0.00481964
0.00523709
0.0055112
0.0055272
0.00542266
0.00517634
0.00500979
0.00483892
0.00482909
-2.45561e-06
-3.8588e-05
-7.21508e-06
2.36734e-06
5.08218e-05
9.13404e-05
0.000158679
0.000227945
0.00031845
0.000418398
0.000538596
0.000676683
0.000839837
0.00103469
0.00126845
0.00155785
0.00190969
0.00234733
0.00286129
0.00346262
0.00408507
0.00470474
0.00517022
0.00548241
0.00549931
0.00537057
0.00508412
0.00489104
0.00469817
0.00469134
-3.28779e-05
-7.14689e-05
-3.74176e-05
-2.83292e-05
1.9913e-05
5.84222e-05
0.000122628
0.000187009
0.000270136
0.000359797
0.000465119
0.000583237
0.000719211
0.000879743
0.00107112
0.00131285
0.00161465
0.00200707
0.0024869
0.00307414
0.00370734
0.00436384
0.00486829
0.00522278
0.0052481
0.00511035
0.00481034
0.0046133
0.00441596
0.00442558
-0.00014536
-0.000186929
-0.00015435
-0.000149409
-0.000105915
-7.40212e-05
-1.83766e-05
3.51909e-05
0.000103982
0.000175741
0.000257435
0.000346254
0.000444645
0.000560128
0.000697394
0.000879331
0.00111716
0.00144803
0.00187282
0.00242245
0.00304765
0.00374299
0.00432205
0.00478061
0.00486121
0.00475142
0.00447014
0.00428259
0.00406096
0.00408992
-0.000262582
-0.000303841
-0.000273727
-0.000272645
-0.000235627
-0.00021195
-0.000167979
-0.000128761
-7.94933e-05
-3.17726e-05
1.78412e-05
6.69465e-05
0.000113356
0.000164885
0.000221053
0.000305459
0.00042393
0.000612852
0.000866962
0.00123279
0.00171375
0.00237055
0.00299368
0.00364221
0.00397089
0.00410084
0.00399211
0.00385766
0.00357402
0.00358054
-0.000464954
-0.000506957
-0.000482243
-0.000487951
-0.000461142
-0.000449642
-0.000421987
-0.000402227
-0.000378537
-0.000361654
-0.000352649
-0.000353512
-0.000373489
-0.00040585
-0.000462402
-0.000525212
-0.000611028
-0.00070836
-0.000867561
-0.00103401
-0.00109795
-0.000788833
-0.000197907
0.000884859
0.00188976
0.00284185
0.00337761
0.00360308
0.00320643
0.00304823
-0.000660412
-0.000700495
-0.00068213
-0.000694389
-0.000679992
-0.000682567
-0.000675311
-0.000679352
-0.000688126
-0.000710053
-0.000753575
-0.000819667
-0.000929551
-0.00107993
-0.00130571
-0.00160988
-0.00207315
-0.00277357
-0.00389075
-0.00530933
-0.00652033
-0.00681151
-0.00627373
-0.00459088
-0.00252359
-0.000220786
0.00185916
0.00268325
0.0029366
0.00222714
-0.000941472
-0.000981466
-0.0009713
-0.000992509
-0.000992814
-0.00101223
-0.00102828
-0.00105965
-0.00110537
-0.00117176
-0.00127644
-0.00141983
-0.00164067
-0.00194324
-0.00240385
-0.00307118
-0.00415171
-0.00587074
-0.00852778
-0.011672
-0.0141967
-0.0150273
-0.0144766
-0.0121531
-0.0090927
-0.00538786
-0.00154971
0.000682069
0.00271764
0.00114108
-0.0011904
-0.0012272
-0.00122569
-0.0012548
-0.00127178
-0.00130907
-0.00135241
-0.00141453
-0.00150397
-0.00162175
-0.00179951
-0.00203462
-0.00239145
-0.00288281
-0.00364501
-0.00478488
-0.00666516
-0.00962773
-0.01399
-0.0187453
-0.022253
-0.0232695
-0.0225617
-0.0196381
-0.0158928
-0.0113011
-0.00659269
-0.00221179
0.000935128
0.000751986
-0.00152971
-0.00156608
-0.00157382
-0.00161264
-0.00164618
-0.00170201
-0.00177186
-0.00186438
-0.00199676
-0.0021651
-0.00241644
-0.00274329
-0.00324056
-0.00392439
-0.00500044
-0.00661653
-0.00928739
-0.0133976
-0.0192127
-0.025134
-0.0292865
-0.0303246
-0.0293608
-0.0257573
-0.0214078
-0.0163213
-0.0112617
-0.00573365
-0.000638398
0.00174006
-0.00179916
-0.00183077
-0.0018476
-0.00189323
-0.00194472
-0.00201783
-0.00211706
-0.00223989
-0.00241881
-0.00263751
-0.00296503
-0.00337984
-0.0040139
-0.00487115
-0.00622885
-0.00823706
-0.0115435
-0.0164978
-0.0233768
-0.0301915
-0.0350385
-0.0362637
-0.0351242
-0.0307672
-0.0256933
-0.0200997
-0.0150275
-0.00926479
-0.0023631
0.00130485
-0.00217456
-0.00220577
-0.00223064
-0.00228465
-0.0023503
-0.00243878
-0.00256065
-0.00270748
-0.00292272
-0.00317907
-0.0035664
-0.00404359
-0.00478094
-0.00574991
-0.00729619
-0.00951349
-0.0131554
-0.0184529
-0.0258406
-0.033149
-0.0386261
-0.0401134
-0.0389006
-0.0339574
-0.0283661
-0.0224737
-0.0177694
-0.0124493
-0.00586999
-0.00172205
-0.00242873
-0.0024531
-0.00248572
-0.00254215
-0.00262365
-0.00272292
-0.00287015
-0.0030366
-0.00328907
-0.00357475
-0.00401466
-0.00453105
-0.00533923
-0.00634996
-0.00797201
-0.010178
-0.0137881
-0.018813
-0.0259333
-0.0329982
-0.0386541
-0.0402525
-0.0390948
-0.0340564
-0.0285543
-0.0228458
-0.0188311
-0.0144085
-0.00896511
-0.00524209
-0.00282339
-0.00284833
-0.00288526
-0.00294722
-0.00303567
-0.00314271
-0.00330117
-0.00347624
-0.00374603
-0.00403914
-0.00450205
-0.00501643
-0.0058422
-0.00680787
-0.00838366
-0.0103657
-0.0136208
-0.0178446
-0.0239692
-0.0299699
-0.0351585
-0.0366165
-0.0357043
-0.0311478
-0.0264361
-0.0213949
-0.0183832
-0.0148938
-0.0110567
-0.00788797
-0.00302769
-0.00304299
-0.00308559
-0.00314203
-0.00324262
-0.00334877
-0.00352552
-0.00370267
-0.00399474
-0.00428647
-0.00476879
-0.00526086
-0.00607984
-0.00695061
-0.00840916
-0.0100533
-0.0127864
-0.0159651
-0.0207002
-0.0251002
-0.0292622
-0.0303081
-0.0297465
-0.0260502
-0.0225963
-0.0185129
-0.0166331
-0.0140039
-0.0118016
-0.00934246
-0.00343648
-0.00345553
-0.00349593
-0.00355609
-0.00365176
-0.00375724
-0.00392875
-0.00409665
-0.00438279
-0.00464993
-0.00511864
-0.0055528
-0.00632481
-0.00705212
-0.00834664
-0.00960741
-0.0118033
-0.0139754
-0.0173816
-0.0201634
-0.0231481
-0.0236326
-0.0233963
-0.020547
-0.0184131
-0.0152163
-0.0144066
-0.0122882
-0.0115379
-0.00957878
-0.00355947
-0.00356443
-0.00360998
-0.00365195
-0.00375834
-0.0038473
-0.00403319
-0.004185
-0.00448421
-0.00472561
-0.00519489
-0.00557113
-0.00630371
-0.00689135
-0.00803463
-0.00895587
-0.0107066
-0.0120907
-0.0144915
-0.0160186
-0.0180385
-0.0179981
-0.0180078
-0.0157529
-0.0146901
-0.012094
-0.0121597
-0.0102529
-0.010694
-0.00902547
-0.00399333
-0.00401
-0.00404214
-0.00409216
-0.0041757
-0.00426027
-0.0044208
-0.00454971
-0.00482163
-0.00501601
-0.00544932
-0.00574068
-0.00640747
-0.00683744
-0.00783267
-0.0084466
-0.00985551
-0.0106496
-0.0123907
-0.0130629
-0.0144784
-0.0140411
-0.0142865
-0.0123581
-0.0121105
-0.00977429
-0.0105411
-0.00847474
-0.00984581
-0.00810769
-0.00400693
-0.00399975
-0.00404246
-0.00405076
-0.00415193
-0.0041981
-0.00437946
-0.00447625
-0.00476613
-0.00492271
-0.00536074
-0.00558792
-0.00622664
-0.00653497
-0.00743161
-0.00781725
-0.00899558
-0.00939242
-0.0107345
-0.0108783
-0.0119641
-0.0112528
-0.011692
-0.00987851
-0.0101989
-0.00786788
-0.00919335
-0.00674223
-0.00897688
-0.00692583
-0.00449287
-0.00451733
-0.0045233
-0.00456197
-0.00460936
-0.00466012
-0.00478866
-0.00485652
-0.00509859
-0.00519475
-0.00558628
-0.00571971
-0.00630118
-0.00646919
-0.00727579
-0.0074492
-0.00847717
-0.00856655
-0.00970629
-0.0094916
-0.0104856
-0.0095713
-0.0102783
-0.00846728
-0.00932363
-0.00686041
-0.0087878
-0.00577598
-0.0087671
-0.0060084
-0.00437768
-0.00435006
-0.00438793
-0.0043295
-0.00442051
-0.00439455
-0.00456968
-0.00458927
-0.00487454
-0.00493072
-0.00535382
-0.00543266
-0.0060229
-0.00610187
-0.00687974
-0.0069131
-0.00786384
-0.00775524
-0.00879198
-0.00835314
-0.00933013
-0.00826549
-0.0091847
-0.00729714
-0.00857201
-0.00586793
-0.00833767
-0.00465017
-0.00852195
-0.00483391
-0.00494316
-0.0050057
-0.00494965
-0.00499567
-0.00497128
-0.00498667
-0.00506305
-0.0050552
-0.00526526
-0.00524904
-0.00561775
-0.00559522
-0.00614477
-0.00609512
-0.00683907
-0.00670979
-0.00763588
-0.00732783
-0.00838102
-0.00772685
-0.00884314
-0.00760092
-0.0088601
-0.00681751
-0.00860846
-0.00559465
-0.00871145
-0.00425965
-0.00906695
-0.0039506
-0.00473399
-0.00464206
-0.0046806
-0.00447651
-0.00456185
-0.00442359
-0.00460757
-0.00453245
-0.00484033
-0.00478909
-0.00523984
-0.00517684
-0.00578835
-0.00567482
-0.00645739
-0.00623562
-0.00717892
-0.00675377
-0.007823
-0.0070414
-0.0082236
-0.00686388
-0.00830099
-0.00611538
-0.00825039
-0.00492477
-0.00862081
-0.00342546
-0.00929454
-0.00230314
-0.00530564
-0.00552233
-0.00532219
-0.00545513
-0.00529693
-0.00528953
-0.00528751
-0.00518662
-0.00537235
-0.0052256
-0.00560782
-0.00542376
-0.00600839
-0.00575924
-0.00655297
-0.00617528
-0.00717982
-0.00656801
-0.00778338
-0.00677896
-0.00824616
-0.00663097
-0.00852878
-0.00603755
-0.0087859
-0.0050355
-0.00942879
-0.00351953
-0.0102378
-0.000123379
-0.00536928
-0.00495722
-0.00501071
-0.00444548
-0.0045429
-0.00424073
-0.00447396
-0.00429356
-0.00467911
-0.00451283
-0.00505806
-0.00484731
-0.00556491
-0.00526276
-0.00616461
-0.00571058
-0.00679908
-0.00610131
-0.00737515
-0.00629283
-0.00779368
-0.00611611
-0.00803701
-0.00545109
-0.00829202
-0.00427163
-0.0089943
-0.00253121
-0.00948247
0.00499786
-0.005248
-0.00609886
-0.00563002
-0.00610073
-0.00568767
-0.00564832
-0.00552627
-0.00528636
-0.00546837
-0.00515156
-0.00560073
-0.00522743
-0.00592349
-0.0054597
-0.00640577
-0.00577399
-0.00699162
-0.00606687
-0.00760409
-0.0062039
-0.00817467
-0.00605042
-0.00870503
-0.00553775
-0.009316
-0.00467908
-0.0101686
-0.00328786
-0.009056
0.015302
-0.00762129
-0.00536672
-0.00551418
-0.00405813
-0.0041846
-0.0037316
-0.00410021
-0.00383284
-0.00439252
-0.00409771
-0.00483257
-0.00444344
-0.00537043
-0.00484335
-0.0059859
-0.00526329
-0.0066365
-0.00563293
-0.00724403
-0.00583531
-0.0077148
-0.00571401
-0.00800476
-0.00507455
-0.00819931
-0.00357946
-0.00800107
0.000359086
0.00291731
0.0423885
-0.00367909
-0.00741669
-0.00634606
-0.0072722
-0.00629486
-0.0060778
-0.00584487
-0.00536274
-0.00561528
-0.00504724
-0.00564642
-0.00502625
-0.0059161
-0.0052002
-0.0063827
-0.00547141
-0.00698812
-0.00572321
-0.0076616
-0.00581225
-0.00835065
-0.00559639
-0.00909499
-0.00502491
-0.0100096
-0.0039812
-0.0094556
0.00377784
0.0163552
0.0852316
-0.0214268
-0.00417116
-0.00410074
-0.00316264
-0.00328286
-0.00294989
-0.00355821
-0.00326659
-0.00400372
-0.00360155
-0.00450978
-0.00396526
-0.00508535
-0.00436887
-0.00573458
-0.00479194
-0.00642404
-0.00517155
-0.00708053
-0.00540022
-0.0076075
-0.00532348
-0.00782915
-0.00449126
-0.0065098
0.00057349
0.00700987
0.0375434
0.0970775
0.215964
)
;

boundaryField
{
    movingWall
    {
        type            zeroGradient;
    }
    fixedWalls
    {
        type            zeroGradient;
    }
    frontAndBack
    {
        type            empty;
    }
}


// ************************************************************************* //
