/*--------------------------------*- C++ -*----------------------------------*\
| =========                 |                                                 |
| \\      /  F ield         | OpenFOAM: The Open Source CFD Toolbox           |
|  \\    /   O peration     | Version:  2406                                  |
|   \\  /    A nd           | Website:  www.openfoam.com                      |
|    \\/     M anipulation  |                                                 |
\*---------------------------------------------------------------------------*/
FoamFile
{
    version     2.0;
    format      ascii;
    arch        "LSB;label=32;scalar=64";
    class       volScalarField;
    location    "33.75";
    object      p;
}
// * * * * * * * * * * * * * * * * * * * * * * * * * * * * * * * * * * * * * //

dimensions      [0 2 -2 0 0 0 0];

internalField   nonuniform List<scalar> 
14400
(
-8.17572e-10
8.24412e-06
1.8803e-05
2.65751e-05
2.82926e-05
2.19211e-05
6.54815e-06
-1.78769e-05
-5.07717e-05
-9.11333e-05
-0.000137739
-0.000189329
-0.000244757
-0.000303109
-0.000363772
-0.000426474
-0.000491284
-0.000558626
-0.000629159
-0.000703718
-0.000783303
-0.000869045
-0.000962069
-0.00106348
-0.00117433
-0.00129562
-0.00142826
-0.00157312
-0.00173098
-0.00190258
-0.00208859
-0.00228957
-0.00250597
-0.00273805
-0.00298589
-0.00324928
-0.00352767
-0.00382015
-0.0041254
-0.00444157
-0.00476631
-0.00509674
-0.00542937
-0.00576016
-0.00608448
-0.00639721
-0.00669276
-0.00696513
-0.00720806
-0.00741513
-0.0075799
-0.00769606
-0.00775762
-0.00775909
-0.00769564
-0.0075633
-0.00735916
-0.0070815
-0.00673002
-0.00630592
-0.00581208
-0.00525302
-0.00463478
-0.0039657
-0.0032566
-0.00251841
-0.00176432
-0.00100885
-0.000267445
0.00044378
0.00110854
0.00171084
0.00223553
0.00266887
0.00299906
0.00321678
0.00331563
0.00329251
0.00314778
0.00288535
0.00251255
0.00203986
0.00148045
0.00084959
0.000163962
-0.000559056
-0.00130214
-0.00204872
-0.00278359
-0.00349331
-0.00416664
-0.00479615
-0.00537379
-0.005896
-0.00636141
-0.00677017
-0.00712406
-0.00742612
-0.00768029
-0.00789108
-0.00806331
-0.00820183
-0.00831136
-0.00839632
-0.00846078
-0.00850838
-0.00854229
-0.00856522
-0.00857947
-0.00858687
-0.00858886
-0.00858652
-0.00858058
-0.00857155
-0.00855978
-0.00854571
-0.00853009
-0.00851437
-0.0085011
-0.0084934
-8.18402e-06
8.76976e-08
9.80411e-06
1.57444e-05
1.58705e-05
8.49349e-06
-7.22348e-06
-3.13489e-05
-6.338e-05
-0.000102429
-0.000147399
-0.000197154
-0.000250663
-0.0003071
-0.000365921
-0.000426893
-0.000490092
-0.000555874
-0.000624857
-0.000697882
-0.000775918
-0.000859973
-0.000951105
-0.00105036
-0.00115875
-0.00127721
-0.00140665
-0.0015479
-0.00170176
-0.00186898
-0.00205023
-0.0022461
-0.00245709
-0.00268352
-0.00292553
-0.00318297
-0.00345542
-0.00374209
-0.00404174
-0.0043527
-0.00467274
-0.00499913
-0.00532852
-0.00565701
-0.00598009
-0.00629275
-0.00658947
-0.00686433
-0.0071111
-0.00732337
-0.00749466
-0.00761864
-0.00768923
-0.00770084
-0.00764852
-0.00752817
-0.00733671
-0.00707226
-0.00673435
-0.00632398
-0.00584375
-0.00529814
-0.00469372
-0.00403799
-0.00334056
-0.0026133
-0.00186934
-0.00112301
-0.000389688
0.000314566
0.000973477
0.00157104
0.00209206
0.00252272
0.00285116
0.003068
0.00316677
0.00314433
0.00300102
0.00274077
0.00237097
0.00190218
0.00134764
0.000722726
4.4191e-05
-0.000670545
-0.00140418
-0.00214021
-0.00286361
-0.00356131
-0.0042225
-0.00483791
-0.00540205
-0.00591203
-0.00636594
-0.00676421
-0.00710887
-0.00740312
-0.00765094
-0.00785686
-0.00802563
-0.00816198
-0.00827049
-0.00835541
-0.00842064
-0.00846963
-0.00850539
-0.00853049
-0.0085471
-0.00855696
-0.00856147
-0.00856166
-0.00855829
-0.00855189
-0.00854284
-0.00853156
-0.00851872
-0.00850546
-0.00849342
-0.00848567
-1.89614e-05
-9.6971e-06
1.65535e-07
4.63788e-06
3.23205e-06
-5.26404e-06
-2.15294e-05
-4.55828e-05
-7.6946e-05
-0.000114802
-0.000158149
-0.000205952
-0.000257279
-0.000311399
-0.000367839
-0.000426419
-0.000487243
-0.00055067
-0.000617302
-0.000687915
-0.000763403
-0.000844728
-0.000932883
-0.00102885
-0.00113358
-0.00124798
-0.00137292
-0.00150923
-0.00165772
-0.00181916
-0.00199429
-0.00218377
-0.0023882
-0.00260801
-0.00284348
-0.00309464
-0.00336125
-0.00364269
-0.00393796
-0.00424556
-0.00456349
-0.00488917
-0.00521943
-0.00555047
-0.0058779
-0.00619671
-0.00650139
-0.00678596
-0.00704409
-0.00726924
-0.00745477
-0.00759413
-0.00768106
-0.00770975
-0.00767503
-0.00757258
-0.00739913
-0.00715261
-0.00683233
-0.00643915
-0.00597546
-0.00544529
-0.00485519
-0.00421333
-0.00352878
-0.00281286
-0.00207864
-0.00134044
-0.000613627
8.57526e-05
0.000741383
0.00133718
0.00185785
0.00228942
0.00261987
0.00283962
0.00294204
0.0029238
0.00278514
0.0025299
0.00216547
0.00170243
0.00115414
0.00053611
-0.000134742
-0.000840829
-0.0015647
-0.00228977
-0.00300094
-0.00368512
-0.00433146
-0.00493155
-0.00548062
-0.0059751
-0.00641347
-0.00679678
-0.00712746
-0.00740897
-0.00764556
-0.0078419
-0.00800282
-0.00813304
-0.00823704
-0.00831896
-0.00838251
-0.00843093
-0.00846703
-0.0084932
-0.00851143
-0.00852331
-0.00853014
-0.00853289
-0.00853227
-0.00852879
-0.0085228
-0.00851462
-0.0085047
-0.00849365
-0.0084816
-0.00847245
-2.77985e-05
-1.63769e-05
-4.6081e-06
3.20505e-08
-1.83526e-06
-1.10235e-05
-2.7986e-05
-5.2566e-05
-8.41607e-05
-0.000121872
-0.00016465
-0.000211442
-0.000261327
-0.000313605
-0.000367851
-0.000423937
-0.000482025
-0.000542528
-0.000606073
-0.00067345
-0.000745558
-0.000823351
-0.000907801
-0.00099986
-0.00110045
-0.00121047
-0.00133079
-0.00146226
-0.00160574
-0.00176211
-0.00193222
-0.00211691
-0.00231695
-0.00253301
-0.00276561
-0.00301504
-0.00328132
-0.0035641
-0.0038626
-0.00417555
-0.00450109
-0.00483673
-0.00517932
-0.005525
-0.00586924
-0.00620683
-0.00653196
-0.00683835
-0.00711931
-0.0073679
-0.00757714
-0.00774013
-0.0078503
-0.00790154
-0.00788846
-0.00780656
-0.0076524
-0.00742378
-0.00711991
-0.00674153
-0.00629114
-0.0057729
-0.00519225
-0.00455763
-0.00387863
-0.00316637
-0.00243372
-0.00169495
-0.000965427
-0.000261273
0.000401078
0.00100536
0.001536
0.00197872
0.00232112
0.00255322
0.00266795
0.00266162
0.0025341
0.00228898
0.00193347
0.00147812
0.000936363
0.000323902
-0.000342032
-0.00104349
-0.00176259
-0.00248235
-0.00318729
-0.00386399
-0.00450151
-0.00509165
-0.0056289
-0.00610946
-0.00653314
-0.00690111
-0.00721605
-0.00748189
-0.00770333
-0.00788541
-0.00803329
-0.00815192
-0.00824596
-0.00831956
-0.00837642
-0.00841969
-0.00845203
-0.00847568
-0.00849242
-0.00850371
-0.00851068
-0.00851417
-0.00851477
-0.00851287
-0.00850866
-0.00850221
-0.00849366
-0.00848307
-0.00846913
-0.00845749
-3.21885e-05
-1.86724e-05
-4.88806e-06
2.28007e-07
-1.96716e-06
-1.19843e-05
-3.00309e-05
-5.57098e-05
-8.82078e-05
-0.000126457
-0.000169277
-0.000215535
-0.000264276
-0.000314807
-0.000366749
-0.000420043
-0.000474927
-0.000531903
-0.000591677
-0.000655104
-0.000723129
-0.000796736
-0.000876912
-0.000964617
-0.00106079
-0.00116634
-0.00128221
-0.00140935
-0.00154876
-0.00170149
-0.00186866
-0.00205137
-0.00225073
-0.00246775
-0.00270329
-0.00295801
-0.00323224
-0.0035259
-0.00383841
-0.00416859
-0.00451458
-0.00487375
-0.00524271
-0.00561724
-0.00599235
-0.00636233
-0.00672082
-0.00706098
-0.00737558
-0.00765724
-0.00789853
-0.00809224
-0.00823152
-0.0083101
-0.00832247
-0.00826404
-0.00813137
-0.00792223
-0.00763582
-0.00727286
-0.00683579
-0.0063287
-0.00575733
-0.00512937
-0.00445436
-0.00374344
-0.00300932
-0.00226612
-0.0015291
-0.000814374
-0.000138436
0.00048227
0.0010319
0.00149577
0.00186097
0.00211694
0.00225599
0.00227373
0.00216943
0.0019461
0.0016105
0.00117289
0.000646546
4.72182e-05
-0.000607668
-0.00129982
-0.00201092
-0.00272344
-0.00342139
-0.00409082
-0.00472034
-0.00530126
-0.00582766
-0.00629624
-0.00670637
-0.00705938
-0.00735825
-0.00760729
-0.00781163
-0.00797678
-0.00810834
-0.00821168
-0.00829175
-0.00835295
-0.0083991
-0.00843339
-0.00845845
-0.00847637
-0.00848883
-0.00849711
-0.00850216
-0.00850465
-0.00850501
-0.00850344
-0.00849991
-0.00849422
-0.00848616
-0.00847528
-0.00845898
-0.00844471
-3.05986e-05
-1.53754e-05
3.35553e-08
5.43356e-06
2.65277e-06
-8.5899e-06
-2.82482e-05
-5.56397e-05
-8.96778e-05
-0.000129059
-0.00017242
-0.000218504
-0.000266295
-0.000315105
-0.000364605
-0.000414823
-0.000466114
-0.000519098
-0.000574602
-0.000633587
-0.000697091
-0.000766172
-0.000841878
-0.000925237
-0.00101726
-0.00111899
-0.00123149
-0.00135595
-0.00149364
-0.00164595
-0.00181438
-0.00200048
-0.00220579
-0.00243179
-0.00267977
-0.00295074
-0.00324528
-0.00356347
-0.00390471
-0.00426763
-0.00465004
-0.00504881
-0.00545992
-0.00587846
-0.00629868
-0.00671413
-0.00711774
-0.00750205
-0.00785931
-0.00818171
-0.00846155
-0.00869142
-0.0088644
-0.00897421
-0.00901538
-0.00898341
-0.00887492
-0.00868777
-0.00842121
-0.00807594
-0.00765427
-0.00716017
-0.00659931
-0.00597911
-0.00530868
-0.00459887
-0.00386207
-0.00311211
-0.002364
-0.00163367
-0.000937575
-0.000292241
0.000286224
0.000782711
0.0011837
0.00147787
0.00165664
0.00171468
0.00165026
0.00146546
0.0011662
0.000762059
0.000265847
-0.000306954
-0.000938945
-0.00161164
-0.00230637
-0.0030051
-0.00369122
-0.00435016
-0.00496988
-0.00554106
-0.00605731
-0.00651501
-0.0069131
-0.00725276
-0.00753705
-0.00777039
-0.00795816
-0.00810625
-0.00822067
-0.00830723
-0.00837129
-0.00841763
-0.00845033
-0.00847277
-0.00848765
-0.00849709
-0.00850268
-0.00850559
-0.00850662
-0.00850629
-0.00850481
-0.00850221
-0.00849821
-0.00849235
-0.00848407
-0.00847249
-0.00845393
-0.0084373
-2.20933e-05
-5.62427e-06
1.08461e-05
1.60809e-05
1.22244e-05
-8.06944e-07
-2.26969e-05
-5.24383e-05
-8.86229e-05
-0.000129666
-0.000173982
-0.000220174
-0.000267159
-0.000314258
-0.000361211
-0.000408163
-0.000455612
-0.000504341
-0.000555334
-0.000609706
-0.000668634
-0.000733311
-0.000804921
-0.000884642
-0.000973679
-0.0010733
-0.00118491
-0.00131005
-0.00145045
-0.00160802
-0.00178481
-0.00198293
-0.00220448
-0.00245139
-0.00272532
-0.00302749
-0.00335851
-0.00371826
-0.00410574
-0.00451898
-0.00495501
-0.00540984
-0.00587847
-0.00635506
-0.00683297
-0.00730493
-0.00776323
-0.00819989
-0.00860679
-0.00897592
-0.00929948
-0.00957009
-0.00978092
-0.00992585
-0.00999957
-0.00999777
-0.00991721
-0.00975583
-0.00951292
-0.00918913
-0.00878662
-0.00830912
-0.00776198
-0.0071522
-0.00648846
-0.00578105
-0.00504183
-0.00428409
-0.0035224
-0.00277228
-0.00204997
-0.00137195
-0.000754483
-0.000213091
0.000238055
0.00058673
0.000823252
0.000941014
0.000936921
0.000811678
0.000569895
0.000219979
-0.000226192
-0.000753808
-0.00134584
-0.0019839
-0.0026491
-0.00332301
-0.00398844
-0.00463013
-0.00523525
-0.00579378
-0.00629857
-0.00674533
-0.00713245
-0.00746067
-0.00773271
-0.00795285
-0.00812645
-0.00825951
-0.00835829
-0.00842893
-0.00847719
-0.00850823
-0.00852649
-0.00853565
-0.00853865
-0.00853771
-0.00853449
-0.00853012
-0.00852531
-0.00852046
-0.00851564
-0.00851068
-0.00850511
-0.00849821
-0.00848914
-0.00847663
-0.00845616
-0.00843769
-5.9368e-06
1.13003e-05
2.81932e-05
3.26589e-05
2.70891e-05
1.16041e-05
-1.31808e-05
-4.58971e-05
-8.47776e-05
-0.000127927
-0.000173529
-0.000220038
-0.000266324
-0.000311737
-0.000356114
-0.000399752
-0.000443329
-0.000487826
-0.000534432
-0.000584468
-0.000639317
-0.000700385
-0.000769098
-0.000846918
-0.000935394
-0.00103623
-0.00115131
-0.00128278
-0.00143303
-0.00160463
-0.0018003
-0.00202276
-0.00227459
-0.00255806
-0.00287494
-0.0032263
-0.00361233
-0.00403226
-0.0044842
-0.00496515
-0.005471
-0.00599662
-0.00653593
-0.0070821
-0.00762765
-0.00816467
-0.00868498
-0.00918028
-0.00964235
-0.0100631
-0.010435
-0.0107507
-0.0110036
-0.0111879
-0.0112985
-0.0113313
-0.0112833
-0.0111524
-0.010938
-0.0106405
-0.0102621
-0.0098059
-0.00927699
-0.00868177
-0.00802827
-0.00732606
-0.00658625
-0.00582136
-0.00504523
-0.00427277
-0.00351972
-0.00280229
-0.00213674
-0.00153885
-0.00102342
-0.000603606
-0.000290363
-9.18322e-05
-1.28467e-05
-5.45499e-05
-0.000214182
-0.000485072
-0.000856864
-0.00131596
-0.0018462
-0.00242966
-0.00304756
-0.00368122
-0.00431297
-0.00492683
-0.00550916
-0.00604902
-0.00653839
-0.00697211
-0.00734776
-0.00766537
-0.00792707
-0.00813665
-0.00829913
-0.00842034
-0.00850651
-0.0085639
-0.0085985
-0.00861577
-0.00862048
-0.00861667
-0.00860755
-0.0085956
-0.00858262
-0.00856983
-0.00855796
-0.00854735
-0.008538
-0.0085296
-0.00852154
-0.00851289
-0.0085026
-0.00848909
-0.00846724
-0.00844759
1.8636e-05
3.61646e-05
5.28115e-05
5.5822e-05
4.78246e-05
2.91774e-05
8.35194e-07
-3.54373e-05
-7.74891e-05
-0.000123105
-0.000170242
-0.000217233
-0.000262927
-0.000306741
-0.000348653
-0.000389146
-0.000429123
-0.00046981
-0.000512657
-0.000559256
-0.000611285
-0.000670484
-0.000738665
-0.000817754
-0.000909853
-0.00101731
-0.00114274
-0.00128908
-0.00145951
-0.00165736
-0.00188601
-0.00214866
-0.00244813
-0.00278666
-0.00316566
-0.00358553
-0.00404554
-0.00454376
-0.00507703
-0.00564102
-0.00623033
-0.00683864
-0.00745886
-0.00808332
-0.00870391
-0.0093123
-0.00990006
-0.0104588
-0.0109804
-0.0114569
-0.0118809
-0.0122455
-0.0125444
-0.012772
-0.0129237
-0.0129954
-0.0129844
-0.0128887
-0.0127076
-0.0124415
-0.0120922
-0.0116627
-0.0111572
-0.0105816
-0.00994316
-0.00925052
-0.00851382
-0.0077446
-0.00695567
-0.00616103
-0.00537561
-0.00461505
-0.00389526
-0.00323208
-0.0026407
-0.00213513
-0.0017276
-0.00142792
-0.00124295
-0.0011761
-0.00122701
-0.00139139
-0.00166109
-0.00202442
-0.00246674
-0.00297116
-0.00351945
-0.00409304
-0.00467389
-0.00524542
-0.00579311
-0.00630503
-0.00677207
-0.00718803
-0.00754948
-0.00785548
-0.00810731
-0.008308
-0.00846196
-0.00857454
-0.00865163
-0.00869933
-0.0087236
-0.00873002
-0.0087236
-0.00870862
-0.00868861
-0.00866632
-0.00864378
-0.00862241
-0.00860304
-0.00858607
-0.00857149
-0.00855897
-0.00854779
-0.00853693
-0.00852515
-0.00851068
-0.00848807
-0.00846791
5.25314e-05
6.98722e-05
8.55889e-05
8.64251e-05
7.52627e-05
5.27503e-05
2.02277e-05
-2.01138e-05
-6.57284e-05
-0.000114091
-0.000162959
-0.000210585
-0.000255845
-0.000298276
-0.000338043
-0.00037587
-0.000412934
-0.000450765
-0.000491146
-0.000536038
-0.000587541
-0.000647883
-0.000719459
-0.000804878
-0.000907034
-0.00102914
-0.00117476
-0.00134772
-0.00155205
-0.00179176
-0.00207066
-0.00239208
-0.00275865
-0.00317199
-0.0036326
-0.0041397
-0.00469115
-0.00528355
-0.00591224
-0.0065715
-0.00725469
-0.00795445
-0.00866286
-0.00937163
-0.0100723
-0.0107562
-0.0114149
-0.0120402
-0.012624
-0.0131588
-0.0136374
-0.0140533
-0.0144006
-0.0146742
-0.0148696
-0.0149832
-0.0150124
-0.0149554
-0.0148116
-0.0145812
-0.0142657
-0.0138677
-0.013391
-0.0128407
-0.012223
-0.0115457
-0.0108178
-0.0100495
-0.00925241
-0.00843927
-0.00762388
-0.00682087
-0.00604544
-0.00531305
-0.00463892
-0.00403762
-0.00352243
-0.00310477
-0.00279362
-0.00259492
-0.00251115
-0.00254101
-0.0026793
-0.00291707
-0.003242
-0.00363904
-0.00409121
-0.00458052
-0.00508901
-0.00559962
-0.00609703
-0.00656822
-0.00700287
-0.00739351
-0.00773545
-0.00802659
-0.00826708
-0.00845896
-0.00860575
-0.00871204
-0.00878312
-0.00882463
-0.00884224
-0.00884141
-0.00882714
-0.00880385
-0.00877529
-0.00874446
-0.00871364
-0.00868449
-0.00865803
-0.00863481
-0.00861492
-0.00859805
-0.00858351
-0.00857022
-0.00855688
-0.0085416
-0.00851887
-0.00849887
9.68324e-05
0.000113484
0.000127565
0.0001255
0.00011045
8.34115e-05
4.61557e-05
1.31977e-06
-4.81622e-05
-9.94849e-05
-0.000150255
-0.000198706
-0.000243804
-0.000285269
-0.000323516
-0.000359569
-0.000394949
-0.00043157
-0.00047165
-0.00051765
-0.000572256
-0.000638393
-0.000719264
-0.000818405
-0.000939724
-0.00108749
-0.00126628
-0.00148083
-0.00173584
-0.00203571
-0.00238423
-0.00278434
-0.00323782
-0.00374516
-0.00430539
-0.00491612
-0.00557357
-0.00627271
-0.00700741
-0.00777066
-0.00855475
-0.00935149
-0.0101523
-0.0109486
-0.0117316
-0.0124927
-0.0132235
-0.0139158
-0.0145622
-0.0151552
-0.0156884
-0.0161555
-0.0165512
-0.0168708
-0.0171103
-0.0172666
-0.0173372
-0.0173206
-0.0172163
-0.0170244
-0.0167461
-0.0163839
-0.0159408
-0.0154212
-0.0148305
-0.0141753
-0.0134633
-0.0127035
-0.0119059
-0.0110817
-0.0102432
-0.00940364
-0.00857707
-0.00777801
-0.00702123
-0.00632128
-0.00569206
-0.00514625
-0.00469471
-0.00434593
-0.00410542
-0.00397529
-0.00395396
-0.00403604
-0.00421252
-0.00447114
-0.00479711
-0.0051739
-0.00558422
-0.00601102
-0.00643837
-0.00685224
-0.00724097
-0.00759561
-0.00790999
-0.00818052
-0.00840598
-0.00858717
-0.00872644
-0.0088274
-0.00889446
-0.00893253
-0.00894674
-0.00894216
-0.00892357
-0.00889532
-0.00886122
-0.00882442
-0.00878742
-0.00875211
-0.00871975
-0.00869109
-0.00866638
-0.00864546
-0.0086277
-0.00861209
-0.00859731
-0.00858148
-0.00855923
-0.00854001
0.000152785
0.000168207
0.000179914
0.000174233
0.000154617
0.000122466
8.00178e-05
3.03588e-05
-2.32157e-05
-7.76724e-05
-0.000130537
-0.000180099
-0.000225497
-0.000266706
-0.000304466
-0.000340182
-0.000375806
-0.000413747
-0.000456793
-0.000508083
-0.000571095
-0.000649679
-0.000748088
-0.000870998
-0.00102348
-0.00121093
-0.00143884
-0.00171264
-0.0020373
-0.00241709
-0.00285521
-0.00335352
-0.00391242
-0.00453071
-0.00520563
-0.00593298
-0.00670725
-0.00752186
-0.00836934
-0.00924158
-0.01013
-0.0110258
-0.0119199
-0.0128036
-0.0136679
-0.0145044
-0.0153048
-0.0160616
-0.0167674
-0.0174155
-0.0179998
-0.018515
-0.018956
-0.019319
-0.0196003
-0.0197974
-0.0199081
-0.0199314
-0.0198666
-0.0197141
-0.019475
-0.0191512
-0.0187455
-0.0182614
-0.0177036
-0.0170774
-0.0163894
-0.015647
-0.0148587
-0.0140339
-0.0131833
-0.0123181
-0.0114509
-0.0105947
-0.00976321
-0.00897026
-0.0082297
-0.00755479
-0.00695775
-0.00644917
-0.00603743
-0.00572815
-0.00552372
-0.00542298
-0.00542112
-0.0055098
-0.00567754
-0.00591042
-0.00619286
-0.00650862
-0.00684172
-0.00717738
-0.00750271
-0.00780715
-0.00808276
-0.00832421
-0.00852857
-0.00869504
-0.00882458
-0.00891949
-0.00898307
-0.00901929
-0.00903246
-0.00902702
-0.00900731
-0.00897739
-0.00894093
-0.00890111
-0.00886054
-0.00882126
-0.00878479
-0.00875207
-0.0087236
-0.00869937
-0.00867894
-0.00866139
-0.0086455
-0.00862946
-0.00860827
-0.00859032
0.000221749
0.000235351
0.000243915
0.000233931
0.00020914
0.000171388
0.000123396
6.86804e-05
1.08467e-05
-4.69193e-05
-0.000102151
-0.000153286
-0.000199723
-0.000241786
-0.000280631
-0.000318139
-0.000356815
-0.000399705
-0.000450351
-0.000512772
-0.000591472
-0.000691456
-0.000818225
-0.000977718
-0.00117619
-0.00141998
-0.00171527
-0.00206765
-0.00248183
-0.00296127
-0.0035079
-0.00412196
-0.00480197
-0.00554476
-0.00634562
-0.00719851
-0.00809629
-0.00903097
-0.00999393
-0.0109761
-0.0119684
-0.0129613
-0.0139457
-0.0149125
-0.0158532
-0.0167595
-0.0176236
-0.0184382
-0.0191968
-0.0198934
-0.0205224
-0.0210793
-0.0215599
-0.0219607
-0.022279
-0.0225126
-0.02266
-0.0227202
-0.0226931
-0.0225791
-0.022379
-0.0220948
-0.0217286
-0.0212835
-0.0207632
-0.0201723
-0.019516
-0.0188003
-0.018032
-0.0172188
-0.0163694
-0.0154933
-0.0146007
-0.0137029
-0.0128119
-0.0119401
-0.0111004
-0.010306
-0.00956931
-0.00890239
-0.00831581
-0.00781826
-0.007416
-0.00711236
-0.00690733
-0.00679742
-0.00677573
-0.00683225
-0.00695449
-0.00712824
-0.00733852
-0.00757051
-0.00781047
-0.00804635
-0.00826833
-0.00846902
-0.00864345
-0.00878883
-0.00890435
-0.0089907
-0.00904979
-0.00908436
-0.00909769
-0.00909335
-0.00907502
-0.00904626
-0.00901041
-0.00897049
-0.00892908
-0.00888834
-0.0088499
-0.00881494
-0.00878415
-0.00875777
-0.00873553
-0.0087167
-0.0087002
-0.00868437
-0.00866471
-0.00864845
0.00030513
0.000316266
0.000320886
0.000305963
0.000275483
0.000231755
0.00017798
0.000118055
5.58171e-05
-5.49048e-06
-6.35142e-05
-0.000116946
-0.000165551
-0.000210101
-0.000252279
-0.000294573
-0.000340189
-0.000392994
-0.00045749
-0.000538805
-0.000642691
-0.000775487
-0.00094403
-0.00115549
-0.00141711
-0.00173583
-0.00211793
-0.00256859
-0.00309154
-0.00368874
-0.00436032
-0.00510444
-0.00591748
-0.00679418
-0.00772788
-0.00871082
-0.00973438
-0.0107893
-0.0118661
-0.0129549
-0.0140459
-0.0151297
-0.016197
-0.0172389
-0.0182471
-0.0192137
-0.0201317
-0.0209945
-0.0217962
-0.0225317
-0.0231965
-0.0237865
-0.0242985
-0.0247298
-0.0250784
-0.0253425
-0.0255212
-0.0256141
-0.025621
-0.0255427
-0.02538
-0.0251345
-0.0248082
-0.0244038
-0.0239243
-0.0233732
-0.0227548
-0.0220737
-0.0213354
-0.0205459
-0.0197119
-0.0188407
-0.0179406
-0.0170205
-0.0160904
-0.0151605
-0.0142423
-0.0133475
-0.0124882
-0.0116765
-0.0109241
-0.0102419
-0.00963934
-0.00912377
-0.00870008
-0.00837016
-0.00813256
-0.00798255
-0.00791222
-0.00791102
-0.00796645
-0.00806495
-0.00819281
-0.00833704
-0.00848613
-0.00863053
-0.00876287
-0.00887803
-0.00897293
-0.00904626
-0.00909814
-0.00912979
-0.00914319
-0.00914083
-0.00912546
-0.00909997
-0.00906719
-0.00902979
-0.00899018
-0.00895046
-0.00891236
-0.00887717
-0.0088458
-0.00881867
-0.00879575
-0.0087765
-0.00876002
-0.00874486
-0.00872714
-0.00871283
0.000404283
0.00041226
0.000412119
0.000391689
0.000355118
0.000305165
0.000245469
0.000180231
0.000113416
4.82068e-05
-1.32747e-05
-7.0094e-05
-0.000122496
-0.000171825
-0.000220424
-0.000271544
-0.000329274
-0.000398514
-0.000484947
-0.000595022
-0.000735895
-0.000915302
-0.00114135
-0.00142219
-0.00176562
-0.00217862
-0.00266688
-0.00323444
-0.00388334
-0.00461356
-0.00542293
-0.00630735
-0.00726095
-0.0082764
-0.00934521
-0.010458
-0.011605
-0.0127757
-0.0139599
-0.0151473
-0.016328
-0.0174922
-0.018631
-0.019736
-0.0207993
-0.0218139
-0.0227734
-0.0236723
-0.0245056
-0.025269
-0.0259589
-0.0265724
-0.0271068
-0.0275603
-0.0279315
-0.0282193
-0.0284233
-0.0285433
-0.0285797
-0.028533
-0.0284046
-0.0281956
-0.0279081
-0.0275441
-0.0271063
-0.0265975
-0.0260211
-0.0253806
-0.0246802
-0.0239244
-0.0231181
-0.0222669
-0.0213769
-0.0204547
-0.0195077
-0.0185443
-0.0175732
-0.0166044
-0.0156482
-0.0147159
-0.013819
-0.0129692
-0.0121777
-0.0114551
-0.0108103
-0.0102504
-0.00977973
-0.00939967
-0.00910825
-0.00890029
-0.0087676
-0.00869966
-0.00868438
-0.00870898
-0.00876096
-0.00882889
-0.00890295
-0.0089753
-0.00904016
-0.00909369
-0.00913378
-0.00915968
-0.00917173
-0.00917103
-0.00915924
-0.00913831
-0.00911038
-0.0090776
-0.00904207
-0.0090057
-0.00897016
-0.00893682
-0.00890669
-0.00888038
-0.00885804
-0.00883936
-0.00882362
-0.00880961
-0.00879409
-0.00878185
0.000520407
0.000524495
0.000518781
0.000492369
0.000449432
0.000393123
0.000327446
0.000256794
0.000185135
0.000115455
4.95133e-05
-1.22587e-05
-7.07173e-05
-0.00012792
-0.000187029
-0.00025224
-0.000328737
-0.000422664
-0.000541087
-0.000691919
-0.000883759
-0.00112564
-0.00142664
-0.00179543
-0.00223975
-0.00276587
-0.00337817
-0.00407883
-0.00486771
-0.00574234
-0.00669809
-0.00772847
-0.00882543
-0.00997967
-0.0111811
-0.0124188
-0.013682
-0.0149594
-0.0162403
-0.0175142
-0.0187712
-0.0200019
-0.0211978
-0.0223513
-0.0234553
-0.0245038
-0.0254913
-0.0264134
-0.0272661
-0.0280461
-0.0287507
-0.0293778
-0.0299258
-0.0303934
-0.0307797
-0.0310845
-0.0313076
-0.0314492
-0.0315099
-0.0314905
-0.0313924
-0.0312167
-0.0309652
-0.0306399
-0.0302429
-0.0297766
-0.0292436
-0.0286468
-0.0279891
-0.027274
-0.0265049
-0.0256857
-0.0248206
-0.0239142
-0.0229716
-0.0219987
-0.0210017
-0.0199881
-0.018966
-0.0179445
-0.0169337
-0.0159447
-0.014989
-0.0140786
-0.0132253
-0.01244
-0.0117324
-0.0111101
-0.0105776
-0.0101365
-0.00978478
-0.00951706
-0.00932491
-0.00919769
-0.00912334
-0.00908945
-0.00908415
-0.00909685
-0.0091187
-0.00914283
-0.00916426
-0.00917978
-0.00918759
-0.00918707
-0.00917842
-0.00916246
-0.00914042
-0.00911378
-0.00908414
-0.00905308
-0.00902213
-0.00899257
-0.00896549
-0.00894158
-0.00892115
-0.00890407
-0.00888982
-0.00887741
-0.00886424
-0.00885407
0.000654414
0.000653881
0.000641808
0.000609041
0.000559595
0.000496904
0.000425223
0.000349002
0.000272058
0.000197039
0.000125193
5.63112e-05
-1.12228e-05
-8.03394e-05
-0.000155203
-0.000241159
-0.000344691
-0.000473379
-0.000635801
-0.000841355
-0.00109995
-0.00142161
-0.00181587
-0.00229127
-0.00285473
-0.00351105
-0.0042626
-0.00510918
-0.00604802
-0.00707403
-0.00818005
-0.00935725
-0.0105955
-0.0118837
-0.0132103
-0.0145634
-0.0159312
-0.0173021
-0.0186652
-0.0200102
-0.0213274
-0.0226085
-0.0238455
-0.0250318
-0.0261616
-0.0272297
-0.028232
-0.0291649
-0.0300256
-0.0308118
-0.0315218
-0.0321541
-0.0327078
-0.0331824
-0.0335776
-0.0338933
-0.03413
-0.0342881
-0.0343683
-0.0343719
-0.0342998
-0.0341535
-0.0339347
-0.033645
-0.0332864
-0.0328608
-0.0323704
-0.0318175
-0.0312043
-0.0305332
-0.0298067
-0.0290274
-0.0281978
-0.027321
-0.0264
-0.0254383
-0.0244399
-0.0234095
-0.0223526
-0.0212758
-0.0201866
-0.0190943
-0.018009
-0.0169424
-0.0159071
-0.0149164
-0.0139836
-0.0131215
-0.0123409
-0.0116507
-0.0110561
-0.0105589
-0.0101566
-0.00984321
-0.00960925
-0.00944311
-0.00933202
-0.00926316
-0.00922462
-0.00920606
-0.00919911
-0.0091974
-0.00919641
-0.00919322
-0.0091862
-0.00917473
-0.00915887
-0.00913923
-0.00911676
-0.00909258
-0.0090679
-0.00904387
-0.00902147
-0.00900146
-0.00898422
-0.00896976
-0.0089577
-0.0089473
-0.00893652
-0.00892829
0.000806783
0.000800929
0.000781783
0.000742396
0.000686414
0.000617388
0.000539666
0.000457592
0.000374667
0.000293042
0.000213303
0.000134447
5.39354e-05
-3.22143e-05
-0.000129365
-0.000244211
-0.000384718
-0.00056002
-0.000780215
-0.00105604
-0.00139838
-0.00181771
-0.00232336
-0.00292296
-0.00362182
-0.00442257
-0.00532502
-0.00632618
-0.00742049
-0.00860013
-0.00985548
-0.0111755
-0.0125482
-0.0139609
-0.015401
-0.0168557
-0.0183128
-0.0197609
-0.0211891
-0.0225877
-0.0239481
-0.0252627
-0.0265247
-0.0277288
-0.0288701
-0.029945
-0.0309502
-0.0318835
-0.0327428
-0.0335269
-0.0342346
-0.0348654
-0.0354189
-0.0358951
-0.0362941
-0.0366162
-0.0368621
-0.0370325
-0.0371283
-0.0371506
-0.0371006
-0.0369799
-0.0367898
-0.036532
-0.0362082
-0.0358201
-0.0353697
-0.0348586
-0.0342888
-0.0336619
-0.0329796
-0.0322436
-0.0314555
-0.0306168
-0.029729
-0.0287939
-0.0278133
-0.0267896
-0.0257255
-0.0246249
-0.0234926
-0.0223348
-0.0211593
-0.0199759
-0.018796
-0.017633
-0.0165019
-0.0154184
-0.0143986
-0.0134576
-0.0126082
-0.0118604
-0.0112198
-0.0106871
-0.0102586
-0.00992594
-0.00967751
-0.00949966
-0.00937808
-0.00929903
-0.00925028
-0.00922163
-0.0092051
-0.00919482
-0.00918674
-0.00917832
-0.00916817
-0.00915576
-0.00914119
-0.00912497
-0.00910789
-0.00909079
-0.00907452
-0.00905973
-0.00904685
-0.00903592
-0.00902671
-0.00901864
-0.00901017
-0.00900368
0.000977555
0.000965506
0.000938735
0.00089265
0.000830175
0.000754879
0.000670999
0.000582578
0.00049263
0.00040264
0.000312375
0.000219867
0.000121484
1.20018e-05
-0.000115334
-0.000268735
-0.000457761
-0.000693101
-0.000986219
-0.00134884
-0.00179231
-0.00232682
-0.00296075
-0.00369999
-0.00454754
-0.0055033
-0.00656411
-0.00772401
-0.00897455
-0.0103053
-0.0117043
-0.0131585
-0.0146543
-0.0161781
-0.0177162
-0.0192558
-0.0207846
-0.0222917
-0.0237669
-0.0252016
-0.0265882
-0.0279203
-0.0291927
-0.0304011
-0.0315421
-0.0326131
-0.033612
-0.0345375
-0.0353885
-0.0361643
-0.0368647
-0.0374895
-0.0380388
-0.0385129
-0.0389124
-0.0392377
-0.0394897
-0.0396692
-0.0397773
-0.0398151
-0.0397838
-0.0396849
-0.0395197
-0.0392898
-0.0389967
-0.0386422
-0.0382277
-0.0377549
-0.0372252
-0.03664
-0.0360004
-0.0353076
-0.0345624
-0.0337654
-0.032917
-0.0320177
-0.0310677
-0.0300674
-0.0290175
-0.0279191
-0.0267742
-0.025586
-0.0243591
-0.0231002
-0.0218183
-0.0205248
-0.0192338
-0.0179619
-0.0167277
-0.0155506
-0.0144501
-0.0134439
-0.0125465
-0.0117678
-0.0111121
-0.0105774
-0.0101564
-0.00983702
-0.00960413
-0.00944139
-0.00933277
-0.00926376
-0.00922217
-0.00919833
-0.00918502
-0.00917716
-0.00917143
-0.00916581
-0.00915933
-0.00915171
-0.00914313
-0.00913405
-0.00912504
-0.0091166
-0.00910904
-0.00910244
-0.00909662
-0.00909114
-0.00908483
-0.00907979
0.00116607
0.00114692
0.00111195
0.00105926
0.000990445
0.000908913
0.000818601
0.000723053
0.000624609
0.000523916
0.000419751
0.000309016
0.000186799
4.64505e-05
-0.000120333
-0.00032339
-0.000573869
-0.000883859
-0.00126585
-0.00173202
-0.00229345
-0.0029593
-0.00373615
-0.00462743
-0.00563327
-0.00675043
-0.00797259
-0.00929071
-0.0106936
-0.0121683
-0.0137008
-0.0152765
-0.0168806
-0.0184987
-0.0201171
-0.0217231
-0.023305
-0.0248527
-0.0263574
-0.0278115
-0.0292091
-0.030545
-0.0318156
-0.0330177
-0.0341492
-0.0352085
-0.0361946
-0.037107
-0.0379452
-0.0387093
-0.0393993
-0.0400156
-0.0405586
-0.0410288
-0.0414269
-0.0417536
-0.0420098
-0.0421965
-0.0423145
-0.0423652
-0.0423497
-0.0422693
-0.0421255
-0.0419196
-0.0416533
-0.0413279
-0.0409449
-0.0405057
-0.0400117
-0.0394639
-0.0388634
-0.0382107
-0.0375064
-0.0367505
-0.0359429
-0.0350831
-0.0341702
-0.0332033
-0.0321814
-0.0311036
-0.0299695
-0.0287793
-0.0275346
-0.0262386
-0.0248967
-0.0235171
-0.0221111
-0.0206937
-0.0192829
-0.0179002
-0.0165688
-0.0153127
-0.0141548
-0.0131144
-0.0122059
-0.0114369
-0.0108075
-0.0103105
-0.00993282
-0.00965748
-0.00946546
-0.00933803
-0.00925818
-0.0092116
-0.00918697
-0.00917585
-0.0091723
-0.00917237
-0.00917363
-0.00917476
-0.0091752
-0.00917487
-0.00917395
-0.00917268
-0.00917123
-0.00916959
-0.00916758
-0.00916487
-0.00916051
-0.00915662
0.00137016
0.0013439
0.00130015
0.00124087
0.0011659
0.00107807
0.000980826
0.000877001
0.000768075
0.000653686
0.000531447
0.000396952
0.000243837
6.38761e-05
-0.000152888
-0.000417917
-0.000743802
-0.0011437
-0.0016306
-0.00221643
-0.00291122
-0.00372228
-0.00465363
-0.0057057
-0.0068753
-0.00815583
-0.00953776
-0.0110091
-0.012556
-0.0141634
-0.0158156
-0.0174969
-0.0191918
-0.0208859
-0.0225657
-0.0242192
-0.025836
-0.0274072
-0.0289255
-0.0303849
-0.0317808
-0.0331098
-0.0343692
-0.0355574
-0.0366732
-0.0377161
-0.0386857
-0.0395822
-0.0404056
-0.0411564
-0.0418351
-0.0424422
-0.0429784
-0.0434442
-0.0438404
-0.0441678
-0.0444273
-0.0446198
-0.0447464
-0.044808
-0.044806
-0.0447416
-0.044616
-0.0444307
-0.0441871
-0.0438866
-0.0435305
-0.0431201
-0.0426568
-0.0421414
-0.0415748
-0.0409576
-0.0402899
-0.0395718
-0.0388026