/*--------------------------------*- C++ -*----------------------------------*\
| =========                 |                                                 |
| \\      /  F ield         | OpenFOAM: The Open Source CFD Toolbox           |
|  \\    /   O peration     | Version:  2406                                  |
|   \\  /    A nd           | Website:  www.openfoam.com                      |
|    \\/     M anipulation  |                                                 |
\*---------------------------------------------------------------------------*/
FoamFile
{
    version     2.0;
    format      ascii;
    arch        "LSB;label=32;scalar=64";
    class       surfaceScalarField;
    location    "43.05";
    object      phi;
}
// * * * * * * * * * * * * * * * * * * * * * * * * * * * * * * * * * * * * * //

dimensions      [0 3 -1 0 0 0 0];

oriented        oriented;

internalField   nonuniform List<scalar> 
7080
(
2.76484e-07
-2.75976e-07
1.4858e-06
-1.21965e-06
3.18926e-06
-1.70127e-06
4.93528e-06
-1.75596e-06
6.38315e-06
-1.44652e-06
7.3807e-06
-1.00416e-06
7.95752e-06
-5.74741e-07
8.21651e-06
-2.62007e-07
8.29415e-06
-7.46909e-08
8.2559e-06
3.80946e-08
8.10699e-06
1.52941e-07
7.76487e-06
3.44872e-07
7.11533e-06
6.55793e-07
6.0127e-06
1.10929e-06
4.31326e-06
1.70957e-06
1.86153e-06
2.46367e-06
-1.49165e-06
3.36864e-06
-5.89276e-06
4.41908e-06
-1.1467e-05
5.59573e-06
-1.83112e-05
6.86954e-06
-2.64614e-05
8.18054e-06
-3.58624e-05
9.43609e-06
-4.63334e-05
1.05097e-05
-5.75533e-05
1.12597e-05
-6.90554e-05
1.15401e-05
-8.0249e-05
1.12273e-05
-9.046e-05
1.02379e-05
-9.89887e-05
8.54772e-06
-0.000105168
6.1892e-06
-0.000108416
3.24859e-06
-0.000108277
-1.47617e-07
-0.000104457
-3.83655e-06
-9.68542e-05
-7.62856e-06
-8.558e-05
-1.13071e-05
-7.09803e-05
-1.46386e-05
-5.36466e-05
-1.73777e-05
-3.44057e-05
-1.92882e-05
-1.4293e-05
-2.01625e-05
5.51503e-06
-1.98574e-05
2.37904e-05
-1.83237e-05
3.93849e-05
-1.56383e-05
5.13626e-05
-1.20165e-05
5.91367e-05
-7.80368e-06
6.2553e-05
-3.43777e-06
6.19229e-05
6.20773e-07
5.79572e-05
3.96471e-06
5.164e-05
6.32759e-06
4.40327e-05
7.62219e-06
3.61022e-05
7.9527e-06
2.85744e-05
7.54788e-06
2.19032e-05
6.6949e-06
1.62762e-05
5.6434e-06
1.17077e-05
4.58831e-06
8.08823e-06
3.62936e-06
5.26869e-06
2.835e-06
3.09309e-06
2.1796e-06
1.45044e-06
1.65477e-06
3.53158e-07
1.09695e-06
-1.52196e-07
5.14446e-07
-1.52148e-07
1.15046e-06
-1.41659e-06
3.87106e-06
-3.94152e-06
7.33446e-06
-5.14902e-06
1.07271e-05
-5.14689e-06
1.34784e-05
-4.18576e-06
1.52723e-05
-2.79765e-06
1.60955e-05
-1.39178e-06
1.60461e-05
-2.15127e-07
1.52756e-05
6.9656e-07
1.38109e-05
1.49755e-06
1.15602e-05
2.39953e-06
8.27179e-06
3.62419e-06
3.62103e-06
5.29631e-06
-2.77465e-06
7.48941e-06
-1.12894e-05
1.02052e-05
-2.22811e-05
1.34302e-05
-3.6039e-05
1.70966e-05
-5.27419e-05
2.10866e-05
-7.23557e-05
2.51693e-05
-9.45529e-05
2.90198e-05
-0.000118672
3.22442e-05
-0.000143767
3.44673e-05
-0.000168712
3.53826e-05
-0.000192331
3.48054e-05
-0.000213527
3.26642e-05
-0.000231357
2.89947e-05
-0.000245075
2.39053e-05
-0.000254128
1.75655e-05
-0.000258137
1.01801e-05
-0.000256877
1.98887e-06
-0.00025026
-6.74574e-06
-0.000238332
-1.57274e-05
-0.000221277
-2.46302e-05
-0.000199432
-3.30841e-05
-0.000173304
-4.06853e-05
-0.000143596
-4.69953e-05
-0.000111211
-5.15753e-05
-7.72584e-05
-5.40149e-05
-4.30166e-05
-5.39994e-05
-9.88455e-06
-5.13612e-05
2.07163e-05
-4.61527e-05
4.74452e-05
-3.86731e-05
6.91772e-05
-2.94789e-05
8.51046e-05
-1.93294e-05
9.48399e-05
-9.09755e-06
9.84544e-05
3.45391e-07
9.65021e-05
8.26047e-06
8.99569e-05
1.41326e-05
8.01164e-05
1.77544e-05
6.83937e-05
1.92258e-05
5.6126e-05
1.89243e-05
4.4357e-05
1.73728e-05
3.37795e-05
1.51378e-05
2.47042e-05
1.26742e-05
1.71892e-05
1.03331e-05
1.11154e-05
8.23054e-06
6.35327e-06
6.40947e-06
2.84995e-06
4.58312e-06
6.76039e-07
2.68824e-06
5.1454e-07
1.70332e-06
-3.11968e-06
5.32983e-06
-7.58407e-06
9.69382e-06
-9.51088e-06
1.3687e-05
-9.15348e-06
1.66359e-05
-7.13442e-06
1.81463e-05
-4.31613e-06
1.81787e-05
-1.42229e-06
1.67698e-05
1.19127e-06
1.39764e-05
3.49417e-06
9.66809e-06
5.80808e-06
3.55381e-06
8.52095e-06
-4.84081e-06
1.2026e-05
-1.60522e-05
1.65194e-05
-3.06373e-05
2.20884e-05
-4.90681e-05
2.86552e-05
-7.165e-05
3.60357e-05
-9.83504e-05
4.38264e-05
-0.000128672
5.14418e-05
-0.000161612
5.8147e-05
-0.0001958
6.32492e-05
-0.000229717
6.62085e-05
-0.000261935
6.67403e-05
-0.000291271
6.47778e-05
-0.00031684
6.0437e-05
-0.000338043
5.3926e-05
-0.000354504
4.55095e-05
-0.000366013
3.54568e-05
-0.000372462
2.40439e-05
-0.000373802
1.15356e-05
-0.000370023
-1.79137e-06
-0.000361136
-1.56505e-05
-0.000347184
-2.97129e-05
-0.000328258
-4.36046e-05
-0.00030453
-5.6875e-05
-0.000276284
-6.90051e-05
-0.000243965
-7.93971e-05
-0.000208212
-8.74179e-05
-0.000169886
-9.24329e-05
-0.000130072
-9.39042e-05
-9.00524e-05
-9.14672e-05
-5.12306e-05
-8.50514e-05
-1.50364e-05
-7.49324e-05
1.72086e-05
-6.17725e-05
4.43932e-05
-4.65466e-05
6.57167e-05
-3.04345e-05
8.07182e-05
-1.46552e-05
8.93178e-05
-3.22183e-07
9.18159e-05
1.16586e-05
8.89301e-05
2.06738e-05
8.17392e-05
2.64484e-05
7.16038e-05
2.90954e-05
5.99277e-05
2.90765e-05
4.79807e-05
2.71155e-05
3.66783e-05
2.39954e-05
2.65981e-05
2.0438e-05
1.7959e-05
1.68794e-05
1.08552e-05
1.35335e-05
5.30375e-06
1.01355e-05
1.54897e-06
6.46075e-06
2.06458e-06
2.05469e-06
-5.16464e-06
6.12353e-06
-1.166e-05
1.066e-05
-1.40333e-05
1.43354e-05
-1.2832e-05
1.64561e-05
-9.24605e-06
1.66235e-05
-4.48597e-06
1.4784e-05
4.2116e-07
1.08606e-05
5.11079e-06
4.71237e-06
9.64157e-06
-4.06001e-06
1.45744e-05
-1.60209e-05
2.04767e-05
-3.18638e-05
2.78597e-05
-5.22278e-05
3.68734e-05
-7.75808e-05
4.7428e-05
-0.000107999
5.90579e-05
-0.000142993
7.10091e-05
-0.000181412
8.22215e-05
-0.000221622
9.16216e-05
-0.000261823
9.83152e-05
-0.000300407
0.000101797
-0.000336147
0.000101907
-0.000368229
9.87776e-05
-0.000396184
9.2684e-05
-0.000419781
8.39854e-05
-0.000438933
7.3033e-05
-0.00045363
6.01673e-05
-0.000463884
4.56806e-05
-0.000469706
2.98452e-05
-0.00047108
1.29009e-05
-0.000467963
-4.90399e-06
-0.000460284
-2.33131e-05
-0.000447954
-4.20143e-05
-0.000430884
-6.06337e-05
-0.000409019
-7.86888e-05
-0.000382373
-9.55904e-05
-0.000351086
-0.000110616
-0.000315478
-0.000122952
-0.000276113
-0.000131723
-0.000233837
-0.000136105
-0.000189797
-0.000135436
-0.000145394
-0.00012939
-0.000102189
-0.000118082
-6.17386e-05
-0.000102179
-2.54268e-05
-8.28286e-05
5.69285e-06
-6.15359e-05
3.09375e-05
-3.98965e-05
4.99895e-05
-1.93796e-05
6.28076e-05
-1.17688e-06
6.96277e-05
1.38336e-05
7.09585e-05
2.50899e-05
6.7654e-05
3.23763e-05
6.08304e-05
3.58719e-05
5.17837e-05
3.61432e-05
4.17187e-05
3.40359e-05
3.16626e-05
3.04829e-05
2.22722e-05
2.62488e-05
1.40261e-05
2.17767e-05
7.17793e-06
1.69637e-05
2.25577e-06
1.13878e-05
4.30756e-06
2.24488e-06
-7.40616e-06
6.35543e-06
-1.57851e-05
1.04466e-05
-1.81178e-05
1.30244e-05
-1.54197e-05
1.34209e-05
-9.63884e-06
1.12671e-05
-2.33685e-06
6.47892e-06
5.21295e-06
-1.18893e-06
1.27785e-05
-1.21498e-05
2.06074e-05
-2.7106e-05
2.95345e-05
-4.68378e-05
4.0216e-05
-7.20534e-05
5.30833e-05
-0.000103094
6.79252e-05
-0.000139715
8.40616e-05
-0.000180889
0.000100247
-0.000224907
0.000115044
-0.000269731
0.000127067
-0.000313476
0.000135391
-0.000354704
0.00013957
-0.000392495
0.000139619
-0.000426351
0.000135797
-0.000456067
0.000128531
-0.00048161
0.000118265
-0.000503037
0.00010545
-0.000520447
9.04755e-05
-0.000533942
7.369e-05
-0.000543614
5.53713e-05
-0.000549524
3.57655e-05
-0.000551693
1.50705e-05
-0.000550093
-6.51382e-06
-0.000544635
-2.87903e-05
-0.000535173
-5.15055e-05
-0.0005215
-7.43439e-05
-0.000503371
-9.6863e-05
-0.000480527
-0.000118486
-0.000452748
-0.000138451
-0.00041993
-0.00015583
-0.000382173
-0.00016954
-0.000339889
-0.000178447
-0.000293896
-0.000181486
-0.000245457
-0.000177879
-0.000196251
-0.000167332
-0.000148214
-0.00015025
-0.000103286
-0.000127782
-6.30996e-05
-0.000101737
-2.87572e-05
-7.42446e-05
-7.57635e-07
-4.73731e-05
2.08446e-05
-2.27683e-05
3.62664e-05
-1.56858e-06
4.58421e-05
1.55328e-05
5.00843e-05
2.81585e-05
4.97031e-05
3.62705e-05
4.56896e-05
4.01796e-05
3.9143e-05
4.05943e-05
3.12171e-05
3.84289e-05
2.28394e-05
3.46313e-05
1.48354e-05
2.97997e-05
7.77024e-06
2.40255e-05
2.4864e-06
1.66921e-05
6.79334e-06
2.30093e-06
-9.6998e-06
5.99987e-06
-1.94932e-05
8.94063e-06
-2.10484e-05
9.5783e-06
-1.60623e-05
7.33412e-06
-7.38973e-06
1.88177e-06
3.11194e-06
-6.953e-06
1.40482e-05
-1.96572e-05
2.54784e-05
-3.69482e-05
3.78953e-05
-5.97299e-05
5.23102e-05
-8.87063e-05
6.91862e-05
-0.000124086
8.84549e-05
-0.000165255
0.000109084
-0.000210725
0.00012952
-0.000258371
0.000147879
-0.000305964
0.000162622
-0.000351651
0.000172735
-0.00039417
0.000177889
-0.000432802
0.000178178
-0.000467226
0.000174017
-0.000497376
0.000165918
-0.000523337
0.000154462
-0.000545281
0.000140177
-0.000563427
0.000123567
-0.000578014
0.000105036
-0.000589282
8.49365e-05
-0.000597448
6.35234e-05
-0.000602697
4.10076e-05
-0.000605156
1.75297e-05
-0.00060488
-6.78085e-06
-0.000601837
-3.18176e-05
-0.00059589
-5.74295e-05
-0.000586785
-8.3419e-05
-0.000574149
-0.000109464
-0.000557494
-0.000135102
-0.00053625
-0.000159652
-0.000509826
-0.00018221
-0.000477714
-0.000201606
-0.000439637
-0.000216479
-0.000395722
-0.000225357
-0.000346676
-0.000226884
-0.000293904
-0.000220068
-0.000239488
-0.000204636
-0.000185987
-0.000181262
-0.000136012
-0.000151697
-9.17208e-05
-0.000118532
-5.43892e-05
-8.47061e-05
-2.43539e-05
-5.28141e-05
-1.26834e-06
-2.46654e-05
1.5447e-05
-1.2003e-06
2.64049e-05
1.71867e-05
3.21932e-05
3.0463e-05
3.35512e-05
3.88103e-05
3.13439e-05
4.27835e-05
2.66244e-05
4.31421e-05
2.03893e-05
4.0849e-05
1.36658e-05
3.65233e-05
7.28879e-06
3.03837e-05
2.34215e-06
2.16452e-05
9.12302e-06
2.16359e-06
-1.18596e-05
4.91982e-06
-2.22585e-05
5.97813e-06
-2.21007e-05
3.87859e-06
-1.39668e-05
-1.83241e-06
-1.67535e-06
-1.14695e-05
1.27492e-05
-2.53737e-05
2.79556e-05
-4.42887e-05
4.43968e-05
-6.91082e-05
6.27193e-05
-0.000100587
8.37955e-05
-0.000138815
0.00010742
-0.00018293
0.000132578
-0.000231092
0.000157255
-0.000280903
0.000179343
-0.000330007
0.000196994
-0.000376569
0.000209198
-0.000419407
0.000215588
-0.000457892
0.000216392
-0.000491777
0.000212082
-0.00052107
0.000203331
-0.000545945
0.000190814
-0.000566687
0.000175226
-0.000583651
0.000157163
-0.000597235
0.000137171
-0.000607842
0.000115659
-0.000615859
9.29662e-05
-0.000621634
6.93055e-05
-0.000625461
4.48357e-05
-0.000627563
1.96263e-05
-0.000628083
-6.27181e-06
-0.000627068
-3.28501e-05
-0.00062445
-6.007e-05
-0.000620024
-8.78727e-05
-0.000613423
-0.000116097
-0.000604091
-0.00014447
-0.000591275
-0.000172506
-0.000574044
-0.000199481
-0.00055135
-0.000224342
-0.000522159
-0.000245711
-0.000485663
-0.000261892
-0.000441549
-0.000271033
-0.000390299
-0.000271349
-0.000333421
-0.000261536
-0.000273507
-0.000241194
-0.000213959
-0.000211254
-0.00015839
-0.000174105
-0.000109762
-0.000133332
-6.97017e-05
-9.28699e-05
-3.83383e-05
-5.60178e-05
-1.48385e-05
-2.46906e-05
1.92442e-06
4.39114e-07
1.29074e-05
1.94901e-05
1.89468e-05
3.27868e-05
2.08213e-05
4.09161e-05
1.94557e-05
4.45231e-05
1.58048e-05
4.45025e-05
1.09553e-05
4.13882e-05
5.91114e-06
3.54246e-05
1.86763e-06
2.57058e-05
1.09904e-05
1.72982e-06
-1.35875e-05
2.8878e-06
-2.34212e-05
1.27117e-06
-2.04823e-05
-4.34585e-06
-8.35159e-06
-1.42928e-05
8.2696e-06
-2.89248e-05
2.73797e-05
-4.8791e-05
4.78172e-05
-7.47735e-05
7.03766e-05
-0.000107606
9.55452e-05
-0.000147372
0.000123558
-0.000193072
0.000153112
-0.000242666
0.000182166
-0.000293553
0.000208132
-0.000343252
0.000229033
-0.000389872
0.000243602
-0.000432216
0.000251531
-0.00046966
0.000253017
-0.000501981
0.000248697
-0.000529243
0.000239327
-0.000551722
0.000225794
-0.000569844
0.000208918
-0.00058413
0.000189495
-0.000595144
0.000168161
-0.000603444
0.000145459
-0.000609555
0.00012176
-0.000613937
9.7344e-05
-0.000616986
7.2354e-05
-0.000619025
4.688e-05
-0.000620308
2.09192e-05
-0.000621019
-5.54473e-06
-0.00062127
-3.25789e-05
-0.000621086
-6.02294e-05
-0.000620381
-8.85488e-05
-0.000618926
-0.000117521
-0.000616294
-0.000147068
-0.000611816
-0.00017695
-0.00060453
-0.000206734
-0.000593166
-0.000235672
-0.000576201
-0.000262645
-0.000551996
-0.00028607
-0.000519068
-0.000303935
-0.000476486
-0.000313911
-0.000424323
-0.000313682
-0.000364083
-0.000301421
-0.000298871
-0.000276456
-0.000233124
-0.000239848
-0.000171736
-0.000194718
-0.000118777
-0.000145834
-7.63355e-05
-9.84653e-05
-4.43139e-05
-5.67234e-05
-2.12263e-05
-2.26566e-05
-5.3526e-06
3.60342e-06
4.73805e-06
2.26892e-05
1.01095e-05
3.55317e-05
1.17414e-05
4.28873e-05
1.05842e-05
4.5647e-05
7.7219e-06
4.42505e-05
4.23353e-06
3.88994e-05
1.30369e-06
2.86393e-05
1.22849e-05
9.11747e-07
-1.4499e-05
-2.22502e-07
-2.22836e-05
-5.23576e-06
-1.54704e-05
-1.50014e-05
1.42023e-06
-2.97711e-05
2.3038e-05
-4.99765e-05
4.75927e-05
-7.63058e-05
7.41467e-05
-0.000109482
0.000103561
-0.000149623
0.000135688
-0.000195748
0.000169692
-0.000245751
0.000203119
-0.000296895
0.000233319
-0.000346555
0.000257797
-0.000392711
0.000275199
-0.000434086
0.000284985
-0.000470005
0.000287463
-0.000500257
0.000283279
-0.000524973
0.000273427
-0.000544558
0.000258924
-0.000559599
0.000240849
-0.000570791
0.000220123
-0.000578851
0.00019757
-0.000584464
0.000173786
-0.000588237
0.000149243
-0.000590684
0.000124213
-0.000592221
9.88853e-05
-0.000593181
7.33128e-05
-0.000593823
4.75173e-05
-0.000594352
2.14391e-05
-0.000594931
-4.97831e-06
-0.000595688
-3.18388e-05
-0.000596713
-5.92244e-05
-0.000598043
-8.72409e-05
-0.000599635
-0.000115954
-0.000601312
-0.000145416
-0.000602697
-0.00017559
-0.000603124
-0.000206333
-0.000601546
-0.000237275
-0.000596471
-0.000267745
-0.000585964
-0.000296599
-0.000567781
-0.000322139
-0.000539683
-0.00034203
-0.000499945
-0.000353437
-0.000448034
-0.000353346
-0.000385273
-0.000339226
-0.000315239
-0.000309887
-0.000243515
-0.00026644
-0.000176555
-0.000212791
-0.000119755
-0.000155258
-7.57248e-05
-0.000100748
-4.39543e-05
-5.44176e-05
-2.21852e-05
-1.81599e-05
-7.97919e-06
8.49376e-06
5.17421e-07
2.70395e-05
4.70199e-06
3.87133e-05
5.70352e-06
4.46473e-05
4.64534e-06
4.53193e-05
2.63589e-06
4.09078e-05
7.79905e-07
3.05063e-05
1.30659e-05
-3.84655e-07
-1.41217e-05
-4.5113e-06
-1.81487e-05
-1.35418e-05
-6.45295e-06
-2.793e-05
1.58156e-05
-4.7908e-05
4.30035e-05
-7.39446e-05
7.36333e-05
-0.000106661
0.000106851
-0.000146236
0.000143137
-0.000191845
0.000181287
-0.000241439
0.000219284
-0.000292239
0.000253908
-0.000341447
0.000282524
-0.000386879
0.000303219
-0.000427105
0.000315419
-0.00046138
0.00031925
-0.000489484
0.000315559
-0.000511632
0.000305416
-0.000528362
0.000290149
-0.000540438
0.000270989
-0.000548723
0.000249126
-0.000554082
0.000225472
-0.000557298
0.000200779
-0.000559035
0.000175515
-0.000559815
0.00015002
-0.000560036
0.000124431
-0.000559984
9.88342e-05
-0.000559864
7.31967e-05
-0.000559827
4.74877e-05
-0.000559991
2.16135e-05
-0.000560461
-4.49487e-06
-0.000561338
-3.09448e-05
-0.000562729
-5.78143e-05
-0.000564738
-8.52114e-05
-0.000567451
-0.000113218
-0.000570908
-0.000141935
-0.000575043
-0.00017143
-0.000579604
-0.000201747
-0.000584034
-0.00023282
-0.000587335
-0.00026442
-0.000587933
-0.000295979
-0.000583613
-0.00032644
-0.000571593
-0.000354033
-0.000548854
-0.000376163
-0.000512762
-0.00038943
-0.000461973
-0.000390009
-0.00039744
-0.000374419
-0.000323125
-0.000340754
-0.000245881
-0.000290038
-0.000173949
-0.000227192
-0.000114235
-0.000160468
-6.97232e-05
-9.89337e-05
-3.92344e-05
-4.86569e-05
-1.95338e-05
-1.12114e-05
-7.5322e-06
1.50294e-05
-9.24761e-07
3.2103e-05
1.92508e-06
4.1789e-05
2.34403e-06
4.48995e-05
1.50571e-06
4.17374e-05
4.48074e-07
3.15645e-05
1.35081e-05
-2.15582e-06
-1.19736e-05
-9.83544e-06
-1.04452e-05
-2.32703e-05
6.96565e-06
-4.24838e-05
3.50504e-05
-6.77201e-05
6.82294e-05
-9.93521e-05
0.000105283
-0.000137651
0.000145144
-0.000181961
0.000187462
-0.000230491
0.000229816
-0.000280472
0.000269276
-0.00032901
0.000302447
-0.000373678
0.000327203
-0.000412881
0.000342425
-0.000445743
0.000348291
-0.000472039
0.000345551
-0.000492037
0.000335568
-0.00050642
0.000319805
-0.000516107
0.000299847
-0.000522132
0.00027702
-0.000525478
0.000252482
-0.000527016
0.000227015
-0.000527431
0.000201201
-0.000527239
0.000175326
-0.000526786
0.00014957
-0.000526299
0.000123943
-0.000525906
9.84391e-05
-0.000525684
7.29689e-05
-0.000525678
4.74736e-05
-0.000525927
2.18503e-05
-0.000526474
-3.96061e-06
-0.000527387
-3.00492e-05
-0.000528751
-5.64681e-05
-0.000530683
-8.32997e-05
-0.000533318
-0.000110603
-0.000536805
-0.00013847
-0.00054127
-0.000166986
-0.000546773
-0.000196265
-0.000553216
-0.000226397
-0.000560215
-0.000257439
-0.00056692
-0.000289291
-0.000571813
-0.000321559
-0.000572549
-0.000353308
-0.000565941
-0.00038278
-0.000548242
-0.000407135
-0.00051586
-0.000422397
-0.000466502
-0.000423783
-0.00040059
-0.000406669
-0.00032243
-0.000368199
-0.000240279
-0.00030934
-0.000164425
-0.000236318
-0.000103284
-0.000160069
-5.98406e-05
-9.20957e-05
-3.17729e-05
-3.92724e-05
-1.48254e-05
-1.91508e-06
-5.313e-06
2.25973e-05
-6.56401e-07
3.71342e-05
9.69815e-07
4.32801e-05
9.41372e-07
4.17661e-05
3.33091e-07
3.21796e-05
1.38428e-05
-4.37614e-06
-7.61725e-06
-1.60028e-05
1.21014e-06
-3.39972e-05
2.4926e-05
-5.79712e-05
5.90455e-05
-8.8151e-05
9.83831e-05
-0.000124621
0.000141766
-0.000167073
0.000187575
-0.000213948
0.000234344
-0.000262749
0.0002786
-0.000310456
0.000316985
-0.000354478
0.000346456
-0.000392937
0.000365661
-0.000424838
0.000374315
-0.000449861
0.000373312
-0.00046833
0.00036401
-0.000481011
0.000348245
-0.000488985
0.00032777
-0.000493411
0.000304269
-0.000495401
0.000279002
-0.000495878
0.000252956
-0.00049556
0.00022669
-0.00049493
0.000200569
-0.000494299
0.000174691
-0.000493824
0.000149095
-0.000493575
0.000123694
-0.000493558
9.84269e-05
-0.000493761
7.31768e-05
-0.00049416
4.78812e-05
-0.000494747
2.24463e-05
-0.000495527
-3.16791e-06
-0.000496536
-2.90267e-05
-0.000497835
-5.51529e-05
-0.000499521
-8.15965e-05
-0.000501724
-0.000108382
-0.000504608
-0.000135569
-0.000508362
-0.000163214
-0.000513184
-0.000191425
-0.000519236
-0.00022033
-0.000526564
-0.000250096
-0.000534961
-0.00028088
-0.000543765
-0.000312743
-0.000551591
-0.000345472
-0.000556076
-0.000378285
-0.000553748
-0.000409455
-0.000540234
-0.000435905
-0.000511001
-0.000453013
-0.00046276
-0.00045491
-0.00039535
-0.000435611
-0.000313488
-0.000391206
-0.0002271
-0.00032271
-0.000148769
-0.000238402
-8.81997e-05
-0.000152668
-4.75923e-05
-7.98826e-05
-2.3025e-05
-2.64876e-05
-9.2684e-06
8.838e-06
-2.35635e-06
3.02167e-05
4.32727e-07
4.04899e-05
9.2989e-07
4.12631e-05
4.36646e-07
3.2673e-05
1.42752e-05
-6.87913e-06
-7.56288e-07
-2.25575e-05
1.69376e-05
-4.49538e-05
4.7286e-05
-7.32961e-05
8.74271e-05
-0.000107712
0.000132777
-0.00014782
0.000181902
-0.000192633
0.000232375
-0.000239846
0.000281579
-0.000286636
0.000325383
-0.000330129
0.000360494
-0.000368255
0.000384579
-0.000399732
0.000397152
-0.000424173
0.000398756
-0.000441827
0.000390978
-0.000453553
0.000375738
-0.000460508
0.00035521
-0.000464001
0.000331266
-0.000465224
0.0003055
-0.000465184
0.000278964
-0.000464598
0.000252376
-0.000463951
0.000226044
-0.000463498
0.00020012
-0.000463356
0.000174548
-0.000463532
0.000149272
-0.000463992
0.00012415
-0.000464668
9.91002e-05
-0.000465504
7.40057e-05
-0.000466447
4.88161e-05
-0.000467467
2.34561e-05
-0.000468554
-2.09242e-06
-0.000469723
-2.78707e-05
-0.000471013
-5.38769e-05
-0.000472493
-8.01321e-05
-0.00047426
-0.000106631
-0.000476451
-0.000133394
-0.000479238
-0.000160443
-0.000482841
-0.000187839
-0.000487504
-0.000215681
-0.000493479
-0.000244135
-0.000500938
-0.000273432
-0.000509848
-0.000303844
-0.00051973
-0.000335598
-0.000529356
-0.000368666
-0.000536386
-0.00040243
-0.000537131
-0.000435162
-0.000526654
-0.00046349
-0.000499541
-0.000482022
-0.000451545
-0.000483607
-0.000382023
-0.000460728
-0.000296366
-0.000408368
-0.000206616
-0.00032815
-0.000127871
-0.000231409
-7.04068e-05
-0.000137341
-3.44953e-05
-6.23959e-05
-1.42694e-05
-1.13846e-05
-4.02139e-06
1.99704e-05
2.7454e-07
3.61983e-05
1.24408e-06
4.02936e-05
6.7626e-07
3.32463e-05
1.49523e-05
-9.50979e-06
8.72078e-06
-2.91046e-05
3.65837e-05
-5.54988e-05
7.36231e-05
-8.75492e-05
0.000119514
-0.000125188
0.000170376
-0.000167471
0.000224207
-0.000212803
0.000277678
-0.00025841
0.000327198
-0.000301502
0.000368454
-0.0003396
0.000398598
-0.000371243
0.000416206
-0.000395751
0.000421663
-0.000413342
0.000416333
-0.000424794
0.00040243
-0.000431378
0.000382311
-0.000434458
0.000358289
-0.000435359
0.000332158
-0.000435126
0.000305266
-0.000434535
0.000278366
-0.000434043
0.000251884
-0.000433901
0.000225896
-0.00043417
0.00020039
-0.000434835
0.000175211
-0.000435812
0.000150252
-0.000437019
0.000125358
-0.000438364
0.00010045
-0.000439782
7.54287e-05
-0.000441218
5.02605e-05
-0.000442645
2.48914e-05
-0.000444048
-6.78859e-07
-0.000445435
-2.64723e-05
-0.000446829
-5.24705e-05
-0.000448273
-7.8675e-05
-0.000449829
-0.00010506
-0.000451589
-0.000131621
-0.000453674
-0.000158345
-0.000456252
-0.000185248
-0.000459544
-0.000212377
-0.000463828
-0.00023984
-0.000469419
-0.000267832
-0.000476609
-0.000296645
-0.000485522
-0.000326679
-0.000495861
-0.000358321
-0.000506532
-0.000391755
-0.000515202
-0.000426488
-0.000517938
-0.000460751
-0.000509247
-0.000490711
-0.000482872
-0.00050998
-0.000433744
-0.000509857
-0.000361028
-0.000481088
-0.000271351
-0.000417833
-0.000179549
-0.000323214
-0.000103216
-0.000213676
-5.17156e-05
-0.000113896
-2.20165e-05
-4.10868e-05
-6.72417e-06
4.67487e-06
-1.08849e-07
2.95817e-05
1.59273e-06
3.85874e-05
9.60932e-07
3.38791e-05
1.59096e-05
-1.19976e-05
2.06905e-05
-3.50727e-05
5.97312e-05
-6.48011e-05
0.000103296
-9.96702e-05
0.00015444
-0.000139337
0.000210009
-0.0001823
0.000267209
-0.000226526
0.000321884
-0.000269074
0.000369773
-0.000307445
0.000406814
-0.000339681
0.000430854
-0.000364946
0.000441465
-0.000383145
0.000439878
-0.000395046
0.000428232
-0.000401838
0.000409236
-0.000405015
0.000385487
-0.000405941
0.000359225
-0.000405787
0.000332005
-0.000405344
0.000304831
-0.000405119
0.000278141
-0.000405325
0.000252096
-0.000406028
0.000226599
-0.000407163
0.000201528
-0.000408643
0.000176689
-0.000410349
0.000151958
-0.000412189
0.000127194
-0.000414076
0.000102335
-0.000415957
7.7303e-05
-0.000417786
5.20835e-05
-0.000419545
2.66415e-05
-0.000421221
9.89046e-07
-0.000422823
-2.48811e-05
-0.000424363
-5.09416e-05
-0.000425869
-7.71804e-05
-0.000427378
-0.000103563
-0.000428944
-0.000130067
-0.000430639
-0.000156661
-0.000432569
-0.000183329
-0.000434881
-0.000210076
-0.000437789
-0.000236941
-0.000441583
-0.000264046
-0.000446636
-0.0002916
-0.000453339
-0.000319982
-0.000461974
-0.000349691
-0.000472408
-0.000381324
-0.00048366
-0.000415239
-0.000493326
-0.000451087
-0.000497141
-0.000486896
-0.000488958
-0.00051816
-0.000461701
-0.000537113
-0.000409683
-0.000533102
-0.000332442
-0.000495078
-0.000238762
-0.000416893
-0.000147149
-0.000305291
-7.69563e-05
-0.00018408
-3.40788e-05
-8.39616e-05
-1.15732e-05
-1.78292e-05
-1.38259e-06
1.9393e-05
1.63929e-06
3.55654e-05
1.17763e-06
3.43452e-05
1.70875e-05
-1.41682e-05
3.48158e-05
-4.01097e-05
8.57423e-05
-7.23655e-05
0.000135476
-0.000109052
0.000191177
-0.00014952
0.000250425
-0.000191807
0.000309526
-0.000233657
0.000363697
-0.00027221
0.000408344
-0.000305421
0.000439998
-0.000331888
0.000457332
-0.000351378
0.000460935
-0.00036432
0.000452826
-0.000371921
0.000435817
-0.000375597
0.000412915
-0.000376872
0.000386749
-0.000376946
0.0003593
-0.000376743
0.000331792
-0.000376769
0.000304856
-0.000377292
0.000278656
-0.000378339
0.000253143
-0.000379862
0.000228117
-0.000381733
0.000203401
-0.000383845
0.000178798
-0.000386079
0.000154195
-0.00038836
0.000129476
-0.000390619
0.000104599
-0.00039282
7.95079e-05
-0.000394931
5.42013e-05
-0.000396943
2.866e-05
-0.000398848
2.90276e-06
-0.000400654
-2.30665e-05
-0.000402369
-4.9217e-05
-0.000404012
-7.55275e-05
-0.000405604
-0.000101962
-0.000407176
-0.000128485
-0.000408764
-0.000155063
-0.000410426
-0.000181657
-0.000412241
-0.000208253
-0.000414337
-0.000234837
-0.000416908
-0.000261468
-0.000420255
-0.000288247
-0.000424783
-0.00031545
-0.000430983
-0.000343488
-0.000439267
-0.000373037
-0.000449663
-0.000404843
-0.000461235
-0.000439514
-0.000471424
-0.000476707
-0.000475456
-0.000514126
-0.000466399
-0.000546169
-0.000436345
-0.000563153
-0.000379369
-0.000552056
-0.000296277
-0.000499991
-0.000199397
-0.000402176
-0.000111674
-0.000271807
-5.17976e-05
-0.000143832
-1.93399e-05
-5.02883e-05
-4.05429e-06
4.10414e-06
1.14948e-06
3.03597e-05
1.25513e-06
3.42392e-05
1.83404e-05
-1.5787e-05
5.05683e-05
-4.37909e-05
0.000113835
-7.7654e-05
0.000169269
-0.000115122
0.000228713
-0.000155253
0.000290514
-0.000195769
0.000350088
-0.000234388
0.00040229
-0.000268515
0.000442503
-0.000296615
0.000468083
-0.000317836
0.000478578
-0.000332478
0.000475569
-0.000341397
0.000461764
-0.000346074
0.00044049
-0.000347973
0.000414829
-0.000348489
0.000387263
-0.000348574
0.000359397
-0.000348877
0.000332094
-0.000349654
0.000305643
-0.000350997
0.000279998
-0.000352815
0.000254968
-0.00035501
0.00023031
-0.000357435
0.00020583
-0.000359995
0.000181356
-0.000362591
0.000156792
-0.000365172
0.000132053
-0.000367684
0.00010711
-0.000370111
8.19291e-05
-0.000372428
5.65142e-05
-0.000374634
3.08587e-05
-0.000376721
4.98377e-06
-0.000378699
-2.10973e-05
-0.00038057
-4.73537e-05
-0.00038235
-7.37556e-05
-0.000384052
-0.000100268
-0.000385696
-0.000126849
-0.000387299
-0.000153467
-0.000388893
-0.000180071
-0.00039051
-0.000206643
-0.000392216
-0.000233138
-0.000394111
-0.000259578
-0.000396385
-0.000285978
-0.000399333
-0.000312507
-0.00040341
-0.000339414
-0.000409181
-0.000367268
-0.000417197
-0.000396829
-0.000427577
-0.000429134
-0.000439373
-0.000464913
-0.000449682
-0.000503816
-0.000453032
-0.00054282
-0.000441494
-0.000574686
-0.000406428
-0.00058712
-0.000342283
-0.000564133
-0.000252559
-0.000491908
-0.000154955
-0.000369412
-7.65166e-05
-0.00022227
-3.04793e-05
-9.63115e-05
-8.44603e-06
-1.79368e-05
2.64697e-09
2.19159e-05
1.16071e-06
3.30806e-05
1.95026e-05
-1.67755e-05
6.72953e-05
-4.59916e-05
0.00014313
-8.05481e-05
0.000203739
-0.000117837
0.00026606
-0.000156673
0.000329292
-0.000194621
0.000388071
-0.000229533
0.000437161
-0.000259179
0.000472169
-0.000282544
0.000491418
-0.000299269
0.000495315
-0.000310096
0.000486374
-0.000316168
0.000467843
-0.000319077
0.00044338
-0.000320186
0.000415941
-0.000320674
0.000387736
-0.000321215
0.000359939
-0.000322217
0.000333084
-0.000323747
0.000307174
-0.000325787
0.000282029
-0.00032819
0.000257373
-0.000330851
0.000232965
-0.000333634
0.000208615
-0.000336472
0.000184191
-0.000339288
0.000159611
-0.000342055
0.000134819
-0.000344735
0.000109794
-0.000347321
8.45174e-05
-0.000349795
5.89936e-05
-0.000352158
3.32263e-05
-0.000354402
7.23504e-06
-0.000356536
-1.8958e-05
-0.000358558
-4.53241e-05
-0.000360482
-7.18245e-05
-0.000362315
-9.84282e-05
-0.000364073
-0.000125084
-0.000365767
-0.000151767
-0.000367413
-0.000178418
-0.000369024
-0.000205027
-0.000370625
-0.000231531
-0.000372254
-0.000257945
-0.000374001
-0.000284226
-0.000376034
-0.000310471
-0.00037867
-0.000336776
-0.000382397
-0.00036354
-0.000387889
-0.000391336
-0.000395791
-0.000421231
-0.000406294
-0.000454411
-0.000418256
-0.000491852
-0.000428237
-0.000532843
-0.000429734
-0.000573184
-0.000413719
-0.000603138
-0.000371048
-0.000606794
-0.000297719
-0.000565251
-0.000201946
-0.00046518
-0.000108814
-0.000315425
-4.57634e-05
-0.000159335
-1.45998e-05
-4.91128e-05
-1.89002e-06
9.20968e-06
9.21873e-07
3.0264e-05
2.04248e-05
-1.70236e-05
8.42823e-05
-4.65523e-05
0.000172753
-8.09145e-05
0.000238027
-0.00011717
0.000302389
-0.00015396
0.000366036
-0.000188836
0.000422996
-0.000219888
0.000468185
-0.000245296
0.000497613
-0.000264518
0.000510624
-0.000277611
0.000508436
-0.000285638
0.000494392
-0.000289887
0.000472114
-0.000291916
0.000445405
-0.000292898
0.000416941
-0.000293762
0.000388597
-0.000294931
0.000361123
-0.000296628
0.00033478
-0.000298798
0.000309355
-0.000301368
0.000284598
-0.000304179
0.000260192
-0.000307144
0.000235928
-0.000310152
0.000211628
-0.000313163
0.000187199
-0.000316121
0.000162571
-0.000319016
0.000137711
-0.000321821
0.000112598
-0.000324534
8.72262e-05
-0.000327138
6.15953e-05
-0.000329635
3.57182e-05
-0.000332014
9.61009e-06
-0.000334281
-1.66975e-05
-0.000336431
-4.31793e-05
-0.000338475
-6.97862e-05
-0.000340418
-9.64915e-05
-0.000342275
-0.000123233
-0.000344053
-0.000149995
-0.000345769
-0.000176707
-0.000347428
-0.000203374
-0.000349042
-0.000229921
-0.000350616
-0.000256376
-0.000352182
-0.000282662
-0.000353803
-0.000308853
-0.000355653
-0.000334928
-0.000358051
-0.000361143
-0.000361568
-0.000387821
-0.000366958
-0.000415841
-0.000374993
-0.000446378
-0.000385793
-0.00048105
-0.000397866
-0.000520773
-0.000406834
-0.000564211
-0.000404904
-0.000605069
-0.000381851
-0.000629837
-0.000328802
-0.000618303
-0.000245146
-0.000548838
-0.000146748
-0.000413834
-6.63245e-05
-0.000239755
-2.25609e-05
-9.28603e-05
-4.64999e-06
-8.70942e-06
5.64403e-07
2.50503e-05
2.0991e-05
-1.65793e-05
0.000100812
-4.55912e-05
0.000201845
-7.89839e-05
0.000271333
-0.00011352
0.000336983
-0.000147737
0.000400193
-0.000179287
0.000454581
-0.000206555
0.00049541
-0.000228126
0.000519205
-0.000243864
0.00052633
-0.000254147
0.000518732
-0.000260233
0.000500453
-0.000263431
0.000475318
-0.000265166
0.000447119
-0.000266381
0.000418159
-0.000267767
0.000389965
-0.000269547
0.000362906
-0.000271818
0.000337037
-0.000274457
0.000311995
-0.00027738
0.000287511
-0.000280439
0.000263253
-0.000283575
0.000239056
-0.000286703
0.000214758
-0.000289808
0.0001903
-0.000292851
0.000165616
-0.000295833
0.000140692
-0.000298731
0.0001155
-0.000301548
9.00437e-05
-0.000304265
6.43165e-05
-0.000306883
3.83389e-05
-0.000309389
1.21198e-05
-0.000311783
-1.42992e-05