/*--------------------------------*- C++ -*----------------------------------*\
| =========                 |                                                 |
| \\      /  F ield         | OpenFOAM: The Open Source CFD Toolbox           |
|  \\    /   O peration     | Version:  2406                                  |
|   \\  /    A nd           | Website:  www.openfoam.com                      |
|    \\/     M anipulation  |                                                 |
\*---------------------------------------------------------------------------*/
FoamFile
{
    version     2.0;
    format      ascii;
    arch        "LSB;label=32;scalar=64";
    class       surfaceScalarField;
    location    "40.7";
    object      phi;
}
// * * * * * * * * * * * * * * * * * * * * * * * * * * * * * * * * * * * * * //

dimensions      [0 3 -1 0 0 0 0];

oriented        oriented;

internalField   nonuniform List<scalar> 
7080
(
2.05661e-07
-2.04936e-07
1.34024e-06
-1.15411e-06
3.01162e-06
-1.66897e-06
4.73507e-06
-1.74076e-06
6.14599e-06
-1.41027e-06
7.0676e-06
-9.32481e-07
7.53455e-06
-4.64623e-07
7.66439e-06
-1.33924e-07
7.61973e-06
4.90213e-08
7.49153e-06
1.29015e-07
7.30177e-06
1.96134e-07
6.97281e-06
3.34418e-07
6.38014e-06
6.03092e-07
5.36475e-06
1.02762e-06
3.77073e-06
1.61185e-06
1.44126e-06
2.35142e-06
-1.76932e-06
3.2388e-06
-5.99929e-06
4.26336e-06
-1.13679e-05
5.40852e-06
-1.7968e-05
6.64707e-06
-2.58396e-05
7.92751e-06
-3.49394e-05
9.16452e-06
-4.51088e-05
1.0241e-05
-5.60547e-05
1.10197e-05
-6.73421e-05
1.13585e-05
-7.84096e-05
1.11305e-05
-8.86057e-05
1.02471e-05
-9.7243e-05
8.67353e-06
-0.000103655
6.43234e-06
-0.000107251
3.59874e-06
-0.000107557
2.91365e-07
-0.000104252
-3.33502e-06
-9.7202e-05
-7.09547e-06
-8.64823e-05
-1.07784e-05
-7.24009e-05
-1.41513e-05
-5.55108e-05
-1.69692e-05
-3.66051e-05
-1.89911e-05
-1.66922e-05
-2.00027e-05
3.06558e-06
-1.9848e-05
2.14408e-05
-1.84634e-05
3.72683e-05
-1.59089e-05
4.9582e-05
-1.23856e-05
5.77541e-05
-8.22891e-06
6.1588e-05
-3.87467e-06
6.13563e-05
2.11435e-07
5.77429e-05
3.61078e-06
5.17152e-05
6.0444e-06
4.43298e-05
7.41318e-06
3.65549e-05
7.81427e-06
2.91225e-05
7.47114e-06
2.24952e-05
6.66975e-06
1.68696e-05
5.65852e-06
1.22709e-05
4.63372e-06
8.59512e-06
3.69691e-06
5.70413e-06
2.91805e-06
3.43865e-06
2.27526e-06
1.70138e-06
1.75861e-06
4.94691e-07
1.20725e-06
-1.01249e-07
6.12879e-07
-1.013e-07
1.0745e-06
-1.26035e-06
3.74445e-06
-3.82581e-06
7.2297e-06
-5.12551e-06
1.06546e-05
-5.16063e-06
1.34038e-05
-4.13764e-06
1.5119e-05
-2.64487e-06
1.57913e-05
-1.12679e-06
1.55457e-05
1.08434e-07
1.45832e-05
1.01189e-06
1.29841e-05
1.7198e-06
1.06972e-05
2.47557e-06
7.49065e-06
3.52615e-06
3.03478e-06
5.04111e-06
-3.06552e-06
7.10135e-06
-1.11983e-05
9.71076e-06
-2.17246e-05
1.2833e-05
-3.4935e-05
1.63948e-05
-5.10126e-05
2.02762e-05
-6.99483e-05
2.42704e-05
-9.14612e-05
2.80743e-05
-0.000114952
3.13178e-05
-0.000139535
3.36312e-05
-0.00016413
3.47068e-05
-0.000187589
3.43439e-05
-0.000208815
3.24558e-05
-0.000226858
2.90577e-05
-0.000240947
2.42432e-05
-0.000250504
1.81649e-05
-0.000255123
1.10173e-05
-0.000254553
3.02766e-06
-0.000248681
-5.54854e-06
-0.000237527
-1.4425e-05
-0.000221247
-2.32809e-05
-0.000200151
-3.17542e-05
-0.000174717
-3.94429e-05
-0.000145615
-4.5911e-05
-0.000113722
-5.07123e-05
-8.01206e-05
-5.34266e-05
-4.60739e-05
-5.37173e-05
-1.29753e-05
-5.13924e-05
1.77438e-05
-4.64725e-05
4.47205e-05
-3.92299e-05
6.67956e-05
-3.01995e-05
8.31241e-05
-2.01344e-05
9.32827e-05
-9.91381e-06
9.73163e-05
-4.27676e-07
9.57617e-05
7.56492e-06
8.9584e-05
1.35302e-05
8.00729e-05
1.7254e-05
6.86325e-05
1.88315e-05
5.65884e-05
1.86416e-05
4.49736e-05
1.72021e-05
3.44786e-05
1.50747e-05
2.54132e-05
1.2708e-05
1.78501e-05
1.04477e-05
1.16718e-05
8.41297e-06
6.77528e-06
6.63989e-06
3.10276e-06
4.8487e-06
7.7766e-07
2.93823e-06
6.5923e-07
1.65615e-06
-2.91556e-06
5.30106e-06
-7.50077e-06
9.77522e-06
-9.5966e-06
1.38825e-05
-9.29278e-06
1.68963e-05
-7.15276e-06
1.83773e-05
-4.1405e-06
1.82961e-05
-1.04405e-06
1.67278e-05
1.67218e-06
1.37958e-05
3.94979e-06
9.44111e-06
6.07782e-06
3.4271e-06
8.50013e-06
-4.69256e-06
1.16572e-05
-1.54544e-05
1.58214e-05
-2.94223e-05
2.10923e-05
-4.70797e-05
2.74003e-05
-6.87506e-05
3.45446e-05
-9.44536e-05
4.21491e-05
-0.000123776
4.96583e-05
-0.000155819
5.638e-05
-0.000189299
6.16268e-05
-0.000222747
6.4849e-05
-0.000254745
6.57236e-05
-0.000284088
6.41524e-05
-0.000309854
6.02163e-05
-0.000331401
5.41055e-05
-0.00034832
4.60671e-05
-0.000360369
3.63652e-05
-0.00036742
2.52664e-05
-0.000369411
1.30335e-05
-0.000366319
-6.57899e-08
-0.000358148
-1.37484e-05
-0.000344932
-2.76971e-05
-0.000326751
-4.1544e-05
-0.000303758
-5.48514e-05
-0.00027622
-6.71053e-05
-0.000244554
-7.77158e-05
-0.000209372
-8.60435e-05
-0.000171508
-9.14454e-05
-0.000132023
-9.33552e-05
-9.21852e-05
-9.13758e-05
-5.34002e-05
-8.53888e-05
-1.71136e-05
-7.56281e-05
1.53203e-05
-6.27184e-05
4.27508e-05
-4.76222e-05
6.43387e-05
-3.15274e-05
7.95972e-05
-1.56857e-05
8.84368e-05
-1.24773e-06
9.11638e-05
1.08453e-05
8.85064e-05
1.99681e-05
8.15497e-05
2.58449e-05
7.16468e-05
2.86055e-05
6.0181e-05
2.87179e-05
4.83996e-05
2.69084e-05
3.71951e-05
2.39475e-05
2.71431e-05
2.05416e-05
1.84564e-05
1.71181e-05
1.12554e-05
1.38756e-05
5.55335e-06
1.05517e-05
1.65474e-06
6.86874e-06
2.31396e-06
2.04636e-06
-4.9433e-06
6.21459e-06
-1.16827e-05
1.09526e-05
-1.43078e-05
1.48199e-05
-1.31648e-05
1.70696e-05
-9.38515e-06
1.727e-05
-4.3434e-06
1.53952e-05
8.38692e-07
1.14267e-05
5.63602e-06
5.30666e-06
1.00696e-05
-3.28314e-06
1.46595e-05
-1.48557e-05
2.00655e-05
-3.00857e-05
2.68739e-05
-4.96233e-05
3.53441e-05
-7.39633e-05
4.54114e-05
-0.000103242
5.6654e-05
-0.000137071
6.83409e-05
-0.000174434
7.94714e-05
-0.000213807
8.89819e-05
-0.00025345
9.59679e-05
-0.000291749
9.98648e-05
-0.00032743
0.000100463
-0.000359623
9.78421e-05
-0.000387802
9.22541e-05
-0.000411699
8.40358e-05
-0.000431201
7.35369e-05
-0.000446285
6.10905e-05
-0.00045696
4.69935e-05
-0.000463235
3.15122e-05
-0.000465101
1.48884e-05
-0.000462519
-2.63978e-06
-0.00045542
-2.08196e-05
-0.000443716
-3.93545e-05
-0.000427315
-5.788e-05
-0.000406152
-7.59332e-05
-0.000380226
-9.29354e-05
-0.000349654
-0.000108181
-0.000314728
-0.000120855
-0.000275974
-0.000130081
-0.000234203
-0.000135008
-0.00019053
-0.000134937
-0.000146335
-0.00012948
-0.000103181
-0.000118694
-6.26494e-05
-0.000103179
-2.617e-05
-8.40516e-05
5.14514e-06
-6.2812e-05
3.05633e-05
-4.10958e-05
4.97373e-05
-2.04297e-05
6.26261e-05
-2.06977e-06
6.94872e-05
1.30738e-05
7.086e-05
2.44281e-05
6.76209e-05
3.18047e-05
6.08893e-05
3.54041e-05
5.19478e-05
3.58171e-05
4.19728e-05
3.38831e-05
3.19733e-05
3.05215e-05
2.25841e-05
2.64732e-05
1.42969e-05
2.21587e-05
7.35351e-06
1.74609e-05
2.33568e-06
1.18985e-05
4.62789e-06
2.27838e-06
-7.21484e-06
6.57572e-06
-1.60096e-05
1.09564e-05
-1.86761e-05
1.37926e-05
-1.60206e-05
1.43719e-05
-9.95919e-06
1.23182e-05
-2.29991e-06
7.60526e-06
5.55588e-06
7.5186e-08
1.31635e-05
-1.05875e-05
2.07385e-05
-2.50102e-05
2.9086e-05
-4.39483e-05
3.90135e-05
-6.81299e-05
5.10662e-05
-9.79581e-05
6.51885e-05
-0.00013329
8.07625e-05
-0.000173245
9.66317e-05
-0.000216255
0.000111378
-0.000260371
0.000123621
-0.000303713
0.000132361
-0.000344787
0.000137085
-0.000382599
0.000137724
-0.000416586
0.000134502
-0.000446497
0.000127808
-0.000472269
0.000118083
-0.000493946
0.000105768
-0.000511623
9.12596e-05
-0.000525402
7.49061e-05
-0.000535379
5.69942e-05
-0.000541622
3.7765e-05
-0.00054416
1.74208e-05
-0.00054297
-3.84917e-06
-0.000537973
-2.58501e-05
-0.000529028
-4.83464e-05
-0.000515934
-7.10322e-05
-0.000498447
-9.34893e-05
-0.000476305
-0.000115156
-0.000449277
-0.000135293
-0.000417235
-0.000152984
-0.000380251
-0.000167154
-0.000338691
-0.000176653
-0.000293323
-0.000180387
-0.000245362
-0.000177515
-0.00019645
-0.000167671
-0.000148512
-0.000151168
-0.000103516
-0.000129086
-6.31544e-05
-0.000103195
-2.861e-05
-7.5649e-05
-4.5355e-07
-4.85782e-05
2.12215e-05
-2.37282e-05
3.66322e-05
-2.30751e-06
4.61448e-05
1.49449e-05
5.03129e-05
2.76735e-05
4.98797e-05
3.58654e-05
4.58498e-05
3.98818e-05
3.93123e-05
4.04397e-05
3.14059e-05
3.84587e-05
2.30294e-05
3.48565e-05
1.50085e-05
3.021e-05
7.88457e-06
2.45758e-05
2.54228e-06
1.72761e-05
7.16552e-06
2.39278e-06
-9.59165e-06
6.38086e-06
-2.00161e-05
9.70099e-06
-2.19743e-05
1.06613e-05
-1.69895e-05
8.65936e-06
-7.94539e-06
3.40158e-06
2.95319e-06
-5.18944e-06
1.41511e-05
-1.74856e-05
2.54547e-05
-3.41095e-05
3.73606e-05
-5.59299e-05
5.08992e-05
-8.36947e-05
6.67717e-05
-0.000117717
8.50782e-05
-0.000157534
0.000104993
-0.000201822
0.000125034
-0.000248584
0.000143375
-0.000295636
0.000158406
-0.00034108
0.000169038
-0.000383571
0.000174821
-0.000422304
0.000175784
-0.000456895
0.000172278
-0.000487234
0.000164802
-0.000513384
0.000153916
-0.000535506
0.000140163
-0.000553816
0.000124038
-0.000568555
0.000105965
-0.000579968
8.62942e-05
-0.000588283
6.52936e-05
-0.000593691
4.31688e-05
-0.000596332
2.00677e-05
-0.000596272
-3.89173e-06
-0.000593493
-2.86033e-05
-0.000587869
-5.39347e-05
-0.000579161
-7.96967e-05
-0.000567008
-0.000105593
-0.000550932
-0.000131177
-0.000530368
-0.000155799
-0.000504721
-0.00017857
-0.000473467
-0.000198346
-0.000436294
-0.000213765
-0.000393277
-0.000223345
-0.000345054
-0.000225682
-0.000292957
-0.000219719
-0.000239004
-0.000205079
-0.000185723
-0.000182337
-0.000135745
-0.000153153
-9.13001e-05
-0.000120088
-5.37685e-05
-8.61121e-05
-2.35843e-05
-5.39267e-05
-4.56772e-07
-2.54516e-05
1.61938e-05
-1.73076e-06
2.70166e-05
1.68306e-05
3.26502e-05
3.02042e-05
3.3875e-05
3.86406e-05
3.15724e-05
4.2716e-05
2.67983e-05
4.32245e-05
2.05266e-05
4.11023e-05
1.37793e-05
3.696e-05
7.35922e-06
3.09655e-05
2.37856e-06
2.22726e-05
9.52403e-06
2.32345e-06
-1.19076e-05
5.47632e-06
-2.31912e-05
6.99652e-06
-2.34827e-05
5.28043e-06
-1.52852e-05
-1.14452e-07
-2.54513e-06
-9.42024e-06
1.22546e-05
-2.28453e-05
2.75801e-05
-4.10116e-05
4.36219e-05
-6.47615e-05
6.11158e-05
-9.4903e-05
8.1046e-05
-0.000131674
0.00010355
-0.000174404
0.000127818
-0.000221436
0.000152036
-0.000270479
0.000174089
-0.00031918
0.00019209
-0.000365628
0.000204872
-0.00040854
0.00021197
-0.000447195
0.000213499
-0.000481285
0.000209897
-0.000510777
0.000201795
-0.000535823
0.000189873
-0.000556697
0.000174817
-0.000573756
0.000157245
-0.000587398
0.000137701
-0.000598036
0.000116619
-0.000606067
9.43344e-05
-0.000611849
7.10784e-05
-0.000615688
4.7003e-05
-0.00061782
2.21865e-05
-0.000618399
-3.33341e-06
-0.000617483
-2.9547e-05
-0.000615017
-5.64347e-05
-0.00061081
-8.39439e-05
-0.000604509
-0.000111939
-0.000595576
-0.000140159
-0.000583278
-0.000168149
-0.000566697
-0.000195205
-0.000544794
-0.000220305
-0.000516529
-0.000242085
-0.000481063
-0.000258862
-0.000438027
-0.000268763
-0.000387821
-0.000269965
-0.000331852
-0.000261077
-0.000272615
-0.000241596
-0.000213453
-0.000212326
-0.000157981
-0.000175565
-0.000109237
-0.000134853
-6.8975e-05
-9.4183e-05
-3.74482e-05
-5.6964e-05
-1.38959e-05
-2.52705e-05
2.80024e-06
1.54985e-07
1.36374e-05
1.93803e-05
1.95042e-05
3.27957e-05
2.12201e-05
4.1009e-05
1.97349e-05
4.47314e-05
1.59959e-05
4.48426e-05
1.10896e-05
4.18897e-05
5.98628e-06
3.60592e-05
1.90249e-06
2.63847e-05
1.14221e-05
1.97498e-06
-1.38745e-05
3.64297e-06
-2.48701e-05
2.56711e-06
-2.23969e-05
-2.59454e-06
-1.01274e-05
-1.21158e-05
6.97904e-06
-2.62194e-05
2.63561e-05
-4.53084e-05
4.66675e-05
-7.01805e-05
6.84909e-05
-0.000101614
9.25446e-05
-0.000139863
0.00011929
-0.000184159
0.000147839
-0.000232662
0.000176314
-0.000282869
0.000202233
-0.000332277
0.000223487
-0.000378897
0.000238697
-0.000421417
0.000247378
-0.000459113
0.000249649
-0.000491697
0.000246065
-0.000519191
0.000237372
-0.000541846
0.000224431
-0.000560075
0.000208085
-0.000574399
0.000189125
-0.000585388
0.00016822
-0.000593611
0.000145916
-0.000599607
0.000122611
-0.000603856
9.8585e-05
-0.000606767
7.3998e-05
-0.000608679
4.89302e-05
-0.000609858
2.33872e-05
-0.0006105
-2.66436e-06
-0.000610723
-2.92912e-05
-0.00061056
-5.65602e-05
-0.000609934
-8.45292e-05
-0.000608623
-0.000113205
-0.000606217
-0.000142519
-0.000602064
-0.000172256
-0.000595226
-0.000202
-0.000584459
-0.00023103
-0.000568261
-0.000258245
-0.000545002
-0.000282089
-0.000513183
-0.000300554
-0.00047182
-0.000311306
-0.000420896
-0.000311982
-0.000361796
-0.000300682
-0.000297498
-0.000276612
-0.000232345
-0.000240713
-0.000171207
-0.000195988
-0.000118225
-0.000147171
-7.56271e-05
-9.95689e-05
-4.34608e-05
-5.74513e-05
-2.03276e-05
-2.2988e-05
-4.5182e-06
3.55386e-06
5.43293e-06
2.28369e-05
1.06391e-05
3.57856e-05
1.21217e-05
4.32458e-05
1.0841e-05
4.61054e-05
7.89033e-06
4.4844e-05
4.32197e-06
3.96065e-05
1.33942e-06
2.93781e-05
1.27478e-05
1.24265e-06
-1.5117e-05
7.19071e-07
-2.43488e-05
-3.68898e-06
-1.79895e-05
-1.29186e-05
-8.94727e-07
-2.71216e-05
2.11803e-05
-4.65637e-05
4.58032e-05
-7.18173e-05
7.19211e-05
-0.00010361
0.00010029
-0.000142225
0.000131163
-0.000186938
0.00016401
-0.000235866
0.000196772
-0.000286379
0.000226835
-0.000335821
0.00025168
-0.00038206
0.000269735
-0.000423689
0.000280334
-0.000459929
0.000283628
-0.00049049
0.000280222
-0.000515458
0.000271045
-0.000535206
0.000257132
-0.000550308
0.000239546
-0.000561458
0.000219247
-0.000569387
0.000197065
-0.000574798
0.000173639
-0.000578322
0.000149445
-0.000580496
0.000124787
-0.00058176
9.98469e-05
-0.000582466
7.46963e-05
-0.000582889
4.93411e-05
-0.000583245
2.37265e-05
-0.000583705
-2.22579e-06
-0.000584398
-2.86222e-05
-0.000585417
-5.55691e-05
-0.000586798
-8.31782e-05
-0.000588495
-0.000111539
-0.000590335
-0.00014071
-0.000591948
-0.000170675
-0.000592679
-0.000201298
-0.000591507
-0.00023223
-0.00058697
-0.000262808
-0.00057717
-0.000291914
-0.00055989
-0.000317859
-0.000532893
-0.000338326
-0.000494423
-0.000350473
-0.000443863
-0.000351259
-0.000382408
-0.000338078
-0.000313485
-0.000309642
-0.00024255
-0.00026692
-0.000176001
-0.000213716
-0.000119287
-0.000156273
-7.51612e-05
-0.000101571
-4.32693e-05
-5.4868e-05
-2.14502e-05
-1.82597e-05
-7.28876e-06
8.68882e-06
1.09872e-06
2.74016e-05
5.15204e-06
3.92065e-05
6.02337e-06
4.52337e-05
4.8572e-06
4.60252e-05
2.7473e-06
4.17106e-05
8.21258e-07
3.13212e-05
1.35673e-05
3.66219e-08
-1.51609e-05
-3.38881e-06
-2.09105e-05
-1.17557e-05
-9.63632e-06
-2.55098e-05
1.28703e-05
-4.47542e-05
4.04129e-05
-6.97919e-05
7.08469e-05
-0.000101207
0.000103326
-0.000139298
0.000138383
-0.000183497
0.000175353
-0.000232005
0.000212517
-0.000282177
0.000246935
-0.000331196
0.000275849
-0.000376758
0.000297233
-0.000417291
0.000310263
-0.000451935
0.000314969
-0.000480381
0.000312067
-0.000502784
0.000302617
-0.000519648
0.000287903
-0.00053172
0.000269197
-0.000539868
0.000247688
-0.000544972
0.000224347
-0.000547845
0.000199936
-0.00054918
0.000174974
-0.000549533
0.000149801
-0.00054933
0.000124588
-0.000548882
9.94072e-05
-0.000548413
7.42397e-05
-0.000548089
4.90323e-05
-0.000548037
2.36925e-05
-0.000548365
-1.87567e-06
-0.000549178
-2.77852e-05
-0.000550579
-5.41421e-05
-0.000552667
-8.10625e-05
-0.000555523
-0.000108653
-0.000559178
-0.000137024
-0.000563562
-0.00016626
-0.000568419
-0.000196412
-0.000573195
-0.000227424
-0.000576907
-0.000259068
-0.000578012
-0.000290783
-0.000574332
-0.000321516
-0.000563132
-0.000349508
-0.00054142
-0.000372171
-0.000506557
-0.000386115
-0.00045714
-0.000387492
-0.000394004
-0.00037278
-0.00032095
-0.000339975
-0.000244674
-0.000289996
-0.000173325
-0.000227623
-0.000113834
-0.00016107
-6.93154e-05
-9.93894e-05
-3.87509e-05
-4.88346e-05
-1.90134e-05
-1.1052e-05
-7.04e-06
1.54172e-05
-5.1049e-07
3.26761e-05
2.23509e-06
4.24768e-05
2.55258e-06
4.571e-05
1.61392e-06
4.26369e-05
4.85344e-07
3.24549e-05
1.40448e-05
-1.66276e-06
-1.35139e-05
-8.57872e-06
-1.39615e-05
-2.13088e-05
3.06689e-06
-3.97897e-05
3.13773e-05
-6.41373e-05
6.47448e-05
-9.4598e-05
0.000101326
-0.000131516
0.000140236
-0.000174446
0.000181326
-0.000221871
0.000222775
-0.000271191
0.000261846
-0.000319522
0.000295266
-0.000364327
0.000320662
-0.000403858
0.000336766
-0.000437108
0.000343522
-0.000463751
0.000341616
-0.000483986
0.000332309
-0.00049845
0.000317085
-0.000508048
0.000297508
-0.000513818
0.000274971
-0.000516772
0.000250647
-0.000517812
0.000225389
-0.000517668
0.000199793
-0.000516892
0.000174196
-0.000515868
0.000148773
-0.000514848
0.000123561
-0.000513985
9.85342e-05
-0.000513368
7.36099e-05
-0.000513053
4.8701e-05
-0.000513081
2.37022e-05
-0.0005135
-1.47738e-06
-0.000514373
-2.69354e-05
-0.000515785
-5.27546e-05
-0.000517847
-7.9027e-05
-0.000520688
-0.000105838
-0.000524448
-0.000133291
-0.000529244
-0.000161491
-0.000535123
-0.000190557
-0.000541978
-0.000220592
-0.000549416
-0.00025165
-0.000556587
-0.000283628
-0.00056199
-0.000316125
-0.000563313
-0.000348194
-0.000557419
-0.000378071
-0.000540616
-0.000402923
-0.000509339
-0.000418773
-0.000461275
-0.000420849
-0.000396756
-0.000404497
-0.000319932
-0.000366822
-0.000238879
-0.000308671
-0.000163756
-0.000236189
-0.00010296
-0.000160176
-5.95938e-05
-9.21976e-05
-3.14959e-05
-3.91416e-05
-1.4517e-05
-1.561e-06
-5.01813e-06
2.31859e-05
-4.16838e-07
3.78746e-05
1.13758e-06
4.41648e-05
1.02804e-06
4.27431e-05
3.61726e-07
3.31311e-05
1.44061e-05
-3.82493e-06
-9.71813e-06
-1.46463e-05
-3.08885e-06
-3.19072e-05
2.02794e-05
-5.50624e-05
5.45667e-05
-8.42455e-05
9.38965e-05
-0.00011948
0.000136579
-0.000160631
0.000181366
-0.000206386
0.00022709
-0.000254465
0.00027084
-0.000301905
0.000309289
-0.000346026
0.000339376
-0.000384798
0.000359435
-0.000417079
0.000369039
-0.000442436
0.000368878
-0.000461109
0.000360283
-0.000473815
0.000345014
-0.000481615
0.000324881
-0.00048568
0.000301573
-0.000487152
0.000276441
-0.000487001
0.000250496
-0.000485989
0.000224376
-0.000484649
0.000198455
-0.000483326
0.000172875
-0.00048221
0.000147663
-0.00048139
0.000122747
-0.000480887
9.80406e-05
-0.000480694
7.34275e-05
-0.000480791
4.88124e-05
-0.00048117
2.40963e-05
-0.000481837
-7.93576e-07
-0.000482822
-2.59314e-05
-0.000484186
-5.13705e-05
-0.000486021
-7.71711e-05
-0.000488454
-0.000103384
-0.000491644
-0.000130081
-0.000495775
-0.00015734
-0.000501037
-0.000185276
-0.00050758
-0.000214032
-0.000515435
-0.000243779
-0.00052438
-0.000274671
-0.000533733
-0.000306759
-0.000542109
-0.000339808
-0.000547158
-0.000373012
-0.000545455
-0.000404617
-0.000532691
-0.000431531
-0.000504396
-0.000449141
-0.000457309
-0.000451585
-0.000391224
-0.000432914
-0.00031072
-0.000389181
-0.00022553
-0.000321385
-0.000148058
-0.000237648
-8.79474e-05
-0.000152312
-4.74933e-05
-7.95957e-05
-2.29311e-05
-2.61303e-05
-9.15891e-06
9.41361e-06
-2.2527e-06
3.0961e-05
5.10481e-07
4.14036e-05
9.663e-07
4.22789e-05
4.46566e-07
3.36546e-05
1.48475e-05
-6.30792e-06
-3.44695e-06
-2.11775e-05
1.18585e-05
-4.28406e-05
4.18803e-05
-7.03157e-05
8.2096e-05
-0.000103704
0.000127251
-0.000142631
0.00017554
-0.000186352
0.000225069
-0.000232776
0.000273536
-0.000279208
0.000317262
-0.000322724
0.000352819
-0.000361115
0.000377763
-0.000392944
0.000391273
-0.00041769
0.000393784
-0.000435512
0.000386708
-0.000447207
0.000371978
-0.000453915
0.000351727
-0.000456953
0.00032792
-0.000457556
0.000302179
-0.000456777
0.000275661
-0.000455395
0.000249114
-0.000453939
0.000222918
-0.00045271
0.000197224
-0.000451851
0.000172011
-0.000451391
0.000147198
-0.000451305
0.000122652
-0.000451531
9.82583e-05
-0.000452012
7.38967e-05
-0.000452694
4.94816e-05
-0.000453544
2.49311e-05
-0.000454547
1.93932e-07
-0.000455716
-2.47803e-05
-0.000457086
-5.00188e-05
-0.000458722
-7.55538e-05
-0.000460721
-0.000101404
-0.000463217
-0.000127604
-0.000466383
-0.000154192
-0.000470433
-0.000181243
-0.000475611
-0.00020887
-0.000482156
-0.000237247
-0.000490229
-0.00026661
-0.000499772
-0.000297227
-0.000510279
-0.000329309
-0.000520498
-0.000362798
-0.000528082
-0.000397036
-0.000529369
-0.000430244
-0.000519488
-0.00045902
-0.000493118
-0.000477952
-0.00044609
-0.000479941
-0.000377772
-0.0004575
-0.000293453
-0.000405708
-0.000204967
-0.000326132
-0.000127177
-0.0002301
-7.02417e-05
-0.000136521
-3.45169e-05
-6.18546e-05
-1.43249e-05
-1.07735e-05
-4.06269e-06
2.06971e-05
2.49087e-07
3.70981e-05
1.22262e-06
4.13017e-05
6.6626e-07
3.42192e-05
1.55123e-05
-8.94518e-06
5.44597e-06
-2.77557e-05
3.07631e-05
-5.3446e-05
6.74833e-05
-8.46328e-05
0.000113343
-0.0001213
0.000163866
-0.000162559
0.000216832
-0.000207074
0.000269552
-0.000252216
0.000318694
-0.000295228
0.000360253
-0.000333514
0.000391112
-0.000365456
0.000409692
-0.000390235
0.000416056
-0.000407958
0.000411498
-0.000419342
0.000398095
-0.000425626
0.000378256
-0.000428191
0.000354294
-0.000428401
0.000328126
-0.000427363
0.000301142
-0.000425909
0.000274205
-0.000424555
0.000247763
-0.00042359
0.000221953
-0.000423109
0.000196746
-0.000423109
0.000172014
-0.000423518
0.000147613
-0.000424251
0.000123391
-0.000425216
9.92322e-05
-0.000426341
7.50314e-05
-0.000427568
5.07206e-05
-0.000428864
2.62381e-05
-0.000430208
1.55234e-06
-0.000431606
-2.33683e-05
-0.000433077
-4.85325e-05
-0.000434663
-7.3953e-05
-0.000436425
-9.96266e-05
-0.000438454
-0.00012556
-0.000440873
-0.000151758
-0.000443853
-0.00017825
-0.000447616
-0.000205095
-0.000452441
-0.000232412
-0.000458638
-0.000260404
-0.000466488
-0.000289371
-0.000476087
-0.000319704
-0.000487104
-0.000351777
-0.000498402
-0.000385736
-0.000507617
-0.000421026
-0.000510822
-0.000455813
-0.000502581
-0.000486189
-0.000476754
-0.000505766
-0.000428401
-0.000505853
-0.00035676
-0.000477355
-0.000268397
-0.000414503
-0.000177918
-0.000320585
-0.000102601
-0.000211836
-5.16423e-05
-0.000112811
-2.21404e-05
-4.02761e-05
-6.87285e-06
5.42425e-06
-2.27337e-07
3.04544e-05
1.51469e-06
3.95523e-05
9.30567e-07
3.48085e-05
1.64382e-05
-1.14867e-05
1.68762e-05
-3.38445e-05
5.32408e-05
-6.2938e-05
9.64792e-05
-9.70033e-05
0.00014749
-0.000135825
0.000202635
-0.000177978
0.000259032
-0.000221666
0.000313212
-0.000264008
0.000361064
-0.000302469
0.000398699
-0.000334938
0.000423599
-0.000360432
0.000435179
-0.000378738
0.000434376
-0.000390546
0.000423303
-0.000397015
0.000404572
-0.000399642
0.000380881
-0.000399841
0.000354499
-0.000398842
0.000327124
-0.000397503
0.000299807
-0.000396388
0.000273087
-0.000395757
0.000247133
-0.000395701
0.000221892
-0.000396172
0.000197217
-0.000397086
0.000172922
-0.000398323
0.000148846
-0.000399784
0.000124845
-0.000401377
0.000100818
-0.000403038
7.6683e-05
-0.000404717
5.23906e-05
-0.000406389
2.78983e-05
-0.000408037
3.18978e-06
-0.000409666
-2.17525e-05
-0.000411285
-4.69256e-05
-0.000412921
-7.23301e-05
-0.000414609
-9.79508e-05
-0.000416404
-0.000123778
-0.000418378
-0.000149795
-0.00042064
-0.000175999
-0.000423344
-0.000202402
-0.000426708
-0.000229057
-0.000431031
-0.000256089
-0.000436683
-0.000283725
-0.000444051
-0.000312342
-0.000453386
-0.000342445
-0.000464517
-0.000374608
-0.000476399
-0.000409145
-0.000486579
-0.000445634
-0.000490774
-0.000481991
-0.00048289
-0.000513647
-0.000455984
-0.000532754
-0.000404553
-0.000528784
-0.000328273
-0.000490787
-0.0002359
-0.000412963
-0.000145662
-0.000302077
-7.64834e-05
-0.000181981
-3.41008e-05
-8.26528e-05
-1.17336e-05
-1.69453e-05
-1.54499e-06
2.02693e-05
1.52761e-06
3.64757e-05
1.13497e-06
3.52081e-05
1.75712e-05
-1.37362e-05
3.05418e-05
-3.90547e-05
7.86886e-05
-7.07765e-05
0.000128081
-0.000106768
0.000183565
-0.000146566
0.000242364
-0.000188274
0.000300785
-0.000229829
0.000354725
-0.000268356
0.000399613
-0.000301723
0.00043204
-0.000328376
0.000450265
-0.000347955
0.00045474
-0.000360802
0.000447231
-0.000368079
0.000430568
-0.000371209
0.000407706
-0.00037175
0.000381414
-0.000370976
0.000353727
-0.000369873
0.000326015
-0.000369014
0.00029895
-0.000368709
0.000272779
-0.000369018
0.000247445
-0.000369901
0.000222775
-0.000371237
0.000198556
-0.000372907
0.000174594
-0.000374788
0.000150733
-0.000376793
0.000126853
-0.000378843
0.000102876
-0.000380892
7.8739e-05
-0.000382904
5.44115e-05
-0.000384863
2.98659e-05
-0.00038676
5.09647e-06
-0.000388598
-1.99045e-05
-0.000390385
-4.51274e-05
-0.000392138
-7.0566e-05
-0.000393878
-9.62e-05
-0.000395634
-0.000122012
-0.000397443
-0.000147977
-0.000399361
-0.000174072
-0.000401474
-0.000200281
-0.000403915
-0.000226608
-0.000406893
-0.000253106
-0.000410716
-0.000279897
-0.000415802
-0.000307254
-0.000422635
-0.000335609
-0.000431608
-0.000365635
-0.00044269
-0.000398062
-0.000454874
-0.000433451
-0.000465523
-0.000471342
-0.000469831
-0.000509338
-0.000460916
-0.000541666
-0.000431027
-0.000558669
-0.000374486
-0.000547328
-0.000292294
-0.000495167
-0.000196767
-0.000397609
-0.000110455
-0.000268301
-5.15079e-05
-0.000141583
-1.94003e-05
-4.90571e-05
-4.20248e-06
5.0703e-06
1.03012e-06
3.12394e-05
1.20746e-06
3.50333e-05
1.87759e-05
-1.54734e-05
4.59451e-05
-4.29831e-05
0.000106347
-7.64432e-05
0.000161418
-0.000113359
0.000220581
-0.000153011
0.00028195
-0.000193159
0.00034099
-0.000231664
0.000393193
-0.000265853
0.000433837
-0.000294095
0.000460263
-0.000315392
0.000471585
-0.00032995
0.000469289
-0.000338571
0.000455868
-0.000342726
0.000434718
-0.000343919
0.000408911
-0.000343604
0.000381096
-0.00034281
0.000352941
-0.000342247
0.000325449
-0.000342225
0.000298933
-0.000342859
0.000273411
-0.000344078
0.000248666
-0.000345777
0.00022447
-0.000347806
0.000200586
-0.000350054
0.000176838
-0.000352412
0.000153089
-0.000354813
0.000129248
-0.000357196
0.000105255
-0.000359533
8.10683e-05
-0.000361796
5.66681e-05
-0.000363977
3.20394e-05
-0.000366072
7.18305e-06
-0.000368084
-1.79009e-05
-0.000370021
-4.31988e-05
-0.000371896
-6.87001e-05
-0.000373722
-9.43828e-05
-0.000375516
-0.000120227
-0.000377296
-0.000146205
-0.000379087
-0.000172288
-0.000380926
-0.000198449
-0.000382876
-0.000224663
-0.000385053
-0.000250934
-0.000387654
-0.000277298
-0.000391001
-0.00030391
-0.00039556
-0.000331051
-0.000401908
-0.00035929
-0.000410566
-0.000389404
-0.000421598
-0.000422421
-0.000433954
-0.000458985
-0.000444639
-0.000498654
-0.000448128
-0.000538173
-0.000436556
-0.000570234
-0.000401489
-0.000582391
-0.000337675
-0.00055898
-0.000248874
-0.000486424
-0.000152721
-0.000364458
-7.56639e-05
-0.000218639
-3.03336e-05
-9.43658e-05
-8.5246e-06
-1.6752e-05
-1.00311e-07
2.28204e-05
1.11542e-06
3.3816e-05
1.98921e-05
-1.65903e-05
6.24545e-05
-4.54552e-05
0.000135362
-7.97539e-05
0.000195579
-0.000116649
0.000257573
-0.000155194
0.000320415
-0.00019295
0.000378797
-0.000227867
0.000428061
-0.000257601
0.000463599
-0.000281041
0.000483672
-0.000297707
0.000488267
-0.000308283
0.000479844
-0.000313889
0.000461483
-0.000316142
0.000436955
-0.000316467
0.000409241
-0.000316113
0.00038073
-0.000315828
0.000352659
-0.000316067
0.00032568
-0.000316936
0.000299805
-0.000318424
0.000274893
-0.00032039
0.000250634
-0.00032271
0.000226788
-0.000325243
0.000203122
-0.000327896
0.000179491
-0.000330584
0.000155781
-0.00033326
0.000131926
-0.00033588
0.000107881
-0.000338426
8.36185e-05
-0.000340879
5.9127e-05
-0.000343234
3.44006e-05
-0.000345488
9.44436e-06
-0.000347647
-1.57353e-05
-0.000349716
-4.11224e-05
-0.000351707
-6.67019e-05
-0.00035363
-9.24518e-05
-0.0003555
-0.00011835
-0.000357325
-0.000144373
-0.000359116
-0.00017049
-0.000360885
-0.000196676
-0.000362649
-0.000222893
-0.000364454
-0.000249127
-0.000366395
-0.000275353
-0.000368663
-0.000301642
-0.000371596
-0.000328115
-0.000375718
-0.000355169
-0.000381708
-0.000383413
-0.000390197
-0.000413935
-0.000401293
-0.000447888
-0.000413745
-0.000486204
-0.000423984
-0.000527935
-0.00042546
-0.000568755
-0.000409232
-0.000598615
-0.000366426
-0.000601775
-0.000293421
-0.000559448
-0.0001987
-0.000459174
-0.000107149
-0.000310226
-4.52794e-05
-0.000156188
-1.45703e-05
-4.74797e-05
-1.95882e-06
1.02146e-05
8.80422e-07
3.09708e-05
2.07742e-05
-1.69871e-05
7.9366e-05
-4.63247e-05
0.000164861
-8.05824e-05
0.000229703
-0.000116603
0.000293703
-0.000153267
0.000357005
-0.000188081
0.000413674
-0.000219199
0.000459138
-0.000244669
0.000489109
-0.000263871
0.000502853
-0.000276769
0.000501193
-0.000284403
0.000487466
-0.000288069
0.00046517
-0.000289377
0.000438256
-0.000289573
0.000409452
-0.000289655
0.000380807
-0.000290109
0.000353124
-0.000291189
0.000326758
-0.000292863
0.000301486
-0.000295051
0.000277079
-0.000297589
0.000253178
-0.000300368
0.000229564
-0.000303263
0.000206019
-0.00030621
0.000182435
-0.000309141
0.000158712
-0.000312029
0.000134809
-0.000314837
0.000110687
-0.000317556
8.63319e-05
-0.000320167
6.17346e-05
-0.000322669
3.68971e-05
-0.000325057
1.18271e-05
-0.000327336
-1.34627e-05
-0.00032951
-3.89542e-05
-0.000331591
-6.46275e-05
-0.000333588
-9.04605e-05
-0.000335515
-0.000116429
-0.000337382
-0.000142512
-0.000339196
-0.00016868
-0.000340961
-0.000194916
-0.000342677
-0.00022118
-0.000344349
-0.000247459
-0.000346003
-0.0002737
-0.000347721
-0.000299927
-0.000349693
-0.000326142
-0.000352282
-0.000352582
-0.000356087
-0.000379606
-0.000361894
-0.000408131
-0.000370439
-0.000439342
-0.000381762
-0.000474884
-0.000394218
-0.000515479
-0.000403292
-0.000559679
-0.00040115
-0.000600752
-0.000377707
-0.000625206
-0.000324465
-0.000612689
-0.000241238
-0.000542413
-0.000144162
-0.000407319
-6.53099e-05
-0.000235037
-2.23839e-05
-9.03741e-05
-4.66086e-06
-7.52713e-06
5.25763e-07
2.57851e-05
2.13019e-05
-1.66809e-05
9.59646e-05
-4.56585e-05
0.000193991
-7.90934e-05
0.000262997
-0.000113543
0.000328253
-0.000147771
0.00039115
-0.000179352
0.000445308
-0.000206709
0.000486443
-0.000228295
0.000510726
-0.000243921
0.000518445
-0.000253899
0.00051119
-0.000259499
0.000493041
-0.000262062
0.000467742
-0.000263081
0.000439257
-0.000263574
0.00040995
-0.000264293
0.000381511
-0.000265509
0.000354344
-0.000267335
0.000328572
-0.000269654
0.000303808
-0.000272369
0.000279786
-0.000275319
0.000256131
-0.000278419
0.000232659
-0.000281568
0.000209171
-0.000284725
0.00018559
-0.000287838
0.000161829
-0.000290891
0.000137862
-0.000293853
0.000113653
-0.000296718
8.91981e-05
-0.000299466
6.44878e-05
-0.000302097
3.95313e-05
-0.000304603
1.43379e-05
-0.000306988
-1.10735e-05