/*--------------------------------*- C++ -*----------------------------------*\
| =========                 |                                                 |
| \\      /  F ield         | OpenFOAM: The Open Source CFD Toolbox           |
|  \\    /   O peration     | Version:  2406                                  |
|   \\  /    A nd           | Website:  www.openfoam.com                      |
|    \\/     M anipulation  |                                                 |
\*---------------------------------------------------------------------------*/
FoamFile
{
    version     2.0;
    format      ascii;
    arch        "LSB;label=32;scalar=64";
    class       surfaceScalarField;
    location    "30.5";
    object      phi_0;
}
// * * * * * * * * * * * * * * * * * * * * * * * * * * * * * * * * * * * * * //

dimensions      [0 3 -1 0 0 0 0];

oriented        oriented;

internalField   nonuniform List<scalar> 
32512
(
-6.0717e-09
6.08594e-09
2.85713e-08
-3.46425e-08
1.1182e-07
-8.32479e-08
2.36472e-07
-1.24652e-07
3.90979e-07
-1.54507e-07
5.63347e-07
-1.72369e-07
7.42541e-07
-1.79194e-07
9.19099e-07
-1.76559e-07
1.08545e-06
-1.66354e-07
1.23606e-06
-1.50603e-07
1.36738e-06
-1.31322e-07
1.47777e-06
-1.10391e-07
1.56722e-06
-8.94489e-08
1.63703e-06
-6.98135e-08
1.68947e-06
-5.24336e-08
1.72734e-06
-3.78723e-08
1.75366e-06
-2.632e-08
1.77129e-06
-1.76309e-08
1.78268e-06
-1.13888e-08
1.78961e-06
-6.93084e-09
1.79319e-06
-3.58242e-09
1.7933e-06
-1.04657e-10
1.78957e-06
3.72629e-09
1.78051e-06
9.06422e-09
1.76406e-06
1.6445e-08
1.73771e-06
2.63506e-08
1.69859e-06
3.91251e-08
1.64359e-06
5.49911e-08
1.56951e-06
7.4084e-08
1.47302e-06
9.64903e-08
1.35074e-06
1.2228e-07
1.19922e-06
1.5152e-07
1.01491e-06
1.84309e-07
7.94179e-07
2.20732e-07
5.33306e-07
2.60874e-07
2.28522e-07
3.04783e-07
-1.23936e-07
3.52458e-07
-5.27752e-07
4.03816e-07
-9.86445e-07
4.58693e-07
-1.50326e-06
5.16813e-07
-2.08105e-06
5.77792e-07
-2.72218e-06
6.41126e-07
-3.42837e-06
7.06193e-07
-4.20062e-06
7.72255e-07
-5.03909e-06
8.38462e-07
-5.94295e-06
9.03862e-07
-6.91036e-06
9.67417e-07
-7.93838e-06
1.02801e-06
-9.02287e-06
1.08449e-06
-1.01585e-05
1.13565e-06
-1.13388e-05
1.18028e-06
-1.2556e-05
1.21721e-06
-1.38013e-05
1.24526e-06
-1.50646e-05
1.26334e-06
-1.6335e-05
1.27042e-06
-1.76006e-05
1.26555e-06
-1.88485e-05
1.24789e-06
-2.00652e-05
1.21671e-06
-2.12366e-05
1.17142e-06
-2.23481e-05
1.11156e-06
-2.33849e-05
1.03679e-06
-2.43319e-05
9.46982e-07
-2.51741e-05
8.42158e-07
-2.58967e-05
7.22595e-07
-2.64855e-05
5.88854e-07
-2.69273e-05
4.4176e-07
-2.72094e-05
2.82131e-07
-2.73205e-05
1.11104e-07
-2.7247e-05
-7.34965e-08
-2.6979e-05
-2.68061e-07
-2.65154e-05
-4.63548e-07
-2.58498e-05
-6.65577e-07
-2.49806e-05
-8.69278e-07
-2.3909e-05
-1.07154e-06
-2.26399e-05
-1.26908e-06
-2.11815e-05
-1.45842e-06
-1.95456e-05
-1.6359e-06
-1.77479e-05
-1.79777e-06
-1.58075e-05
-1.94033e-06
-1.37475e-05
-2.06e-06
-1.1594e-05
-2.15349e-06
-9.3761e-06
-2.21795e-06
-7.12503e-06
-2.25106e-06
-4.87379e-06
-2.25124e-06
-2.65611e-06
-2.21768e-06
-5.05463e-07
-2.15064e-06
1.54634e-06
-2.0518e-06
3.46862e-06
-1.92228e-06
5.23422e-06
-1.7656e-06
6.82002e-06
-1.5858e-06
8.2076e-06
-1.38758e-06
9.38384e-06
-1.17624e-06
1.03411e-05
-9.57269e-07
1.10775e-05
-7.36405e-07
1.15967e-05
-5.19147e-07
1.19073e-05
-3.10642e-07
1.20228e-05
-1.15498e-07
1.196e-05
6.27603e-08
1.17393e-05
2.20771e-07
1.13824e-05
3.56862e-07
1.09123e-05
4.70075e-07
1.03522e-05
5.60149e-07
9.72451e-06
6.27671e-07
9.05055e-06
6.73966e-07
8.34964e-06
7.00904e-07
7.63891e-06
7.10735e-07
6.93298e-06
7.05933e-07
6.24392e-06
6.89056e-07
5.58129e-06
6.62629e-07
4.95225e-06
6.29043e-07
4.36176e-06
5.90491e-07
3.81284e-06
5.48919e-07
3.30683e-06
5.06008e-07
2.84366e-06
4.6317e-07
2.42211e-06
4.21551e-07
2.04008e-06
3.82034e-07
1.69485e-06
3.45226e-07
1.38342e-06
3.1143e-07
1.10283e-06
2.80586e-07
8.50636e-07
2.52198e-07
6.25381e-07
2.25255e-07
4.27185e-07
1.98195e-07
2.5824e-07
1.68945e-07
1.23065e-07
1.35175e-07
2.80015e-08
9.50638e-08
-2.11052e-08
4.91068e-08
-2.43926e-08
3.28731e-09
-2.43926e-08
3.33061e-08
-2.72197e-08
1.64141e-07
-1.65476e-07
3.97348e-07
-3.16457e-07
7.1765e-07
-4.44954e-07
1.10219e-06
-5.3905e-07
1.526e-06
-5.96172e-07
1.96494e-06
-6.18134e-07
2.39754e-06
-6.09161e-07
2.80603e-06
-5.74844e-07
3.17688e-06
-5.21453e-07
3.50094e-06
-4.55385e-07
3.77326e-06
-3.82707e-07
3.99259e-06
-3.08779e-07
4.16074e-06
-2.37968e-07
4.28178e-06
-1.73468e-07
4.36114e-06
-1.1723e-07
4.40479e-06
-6.99699e-08
4.41842e-06
-3.12677e-08
4.40693e-06
1.0558e-10
4.37346e-06
2.6541e-08
4.31949e-06
5.03877e-08
4.24474e-06
7.4646e-08
4.14644e-06
1.0202e-07
4.02033e-06
1.35173e-07
3.86046e-06
1.76318e-07
3.6596e-06
2.27207e-07
3.40961e-06
2.89122e-07
3.10167e-06
3.6293e-07
2.72657e-06
4.4918e-07
2.27485e-06
5.48209e-07
1.73689e-06
6.60239e-07
1.10301e-06
7.854e-07
3.63464e-07
9.23858e-07
-4.91433e-07
1.07563e-06
-1.47119e-06
1.24063e-06
-2.58499e-06
1.41858e-06
-3.84147e-06
1.60894e-06
-5.24846e-06
1.81081e-06
-6.8127e-06
2.02292e-06
-8.53948e-06
2.2436e-06
-1.04324e-05
2.47071e-06
-1.2493e-05
2.70172e-06
-1.47205e-05
2.93367e-06
-1.71115e-05
3.16325e-06
-1.96598e-05
3.38681e-06
-2.23564e-05
3.60047e-06
-2.51892e-05
3.80018e-06
-2.8143e-05
3.98179e-06
-3.11996e-05
4.14119e-06
-3.43383e-05
4.27434e-06
-3.75355e-05
4.37744e-06
-4.07652e-05
4.44693e-06
-4.39996e-05
4.47962e-06
-4.7209e-05
4.47271e-06
-5.03624e-05
4.42385e-06
-5.3428e-05
4.33117e-06
-5.63734e-05
4.19329e-06
-5.91661e-05
4.00934e-06
-6.17736e-05
3.77893e-06
-6.41642e-05
3.5022e-06
-6.63072e-05
3.17975e-06
-6.81729e-05
2.81273e-06
-6.97336e-05
2.4028e-06
-7.09632e-05
1.95227e-06
-7.18384e-05
1.46405e-06
-7.23385e-05
9.41839e-07
-7.24477e-05
3.91307e-07
-7.21496e-05
-1.86989e-07
-7.14243e-05
-7.98767e-07
-7.02718e-05
-1.4206e-06
-6.86846e-05
-2.05071e-06
-6.66664e-05
-2.68382e-06
-6.4223e-05
-3.31269e-06
-6.13654e-05
-3.92911e-06
-5.81102e-05
-4.5243e-06
-5.44795e-05
-5.08909e-06
-5.05014e-05
-5.61402e-06
-4.62096e-05
-6.08954e-06
-4.16437e-05
-6.50626e-06
-3.68485e-05
-6.85515e-06
-3.18741e-05
-7.12791e-06
-2.67748e-05
-7.31724e-06
-2.16087e-05
-7.41719e-06
-1.64365e-05
-7.42345e-06
-1.13205e-05
-7.33369e-06
-6.3233e-06
-7.14782e-06
-1.50689e-06
-6.86821e-06
3.07073e-06
-6.4999e-06
7.3543e-06
-6.04918e-06
1.12939e-05
-5.52545e-06
1.48474e-05
-4.94098e-06
1.798e-05
-4.30893e-06
2.06665e-05
-3.64372e-06
2.28909e-05
-2.96084e-06
2.46476e-05
-2.27578e-06
2.59407e-05
-1.60376e-06
2.67842e-05
-9.59017e-07
2.72011e-05
-3.54113e-07
2.72218e-05
2.00046e-07
2.68845e-05
6.94148e-07
2.62309e-05
1.12372e-06
2.53067e-05
1.48431e-06
2.41596e-05
1.77481e-06
2.28371e-05
1.99647e-06
2.13853e-05
2.15267e-06
1.98476e-05
2.24845e-06
1.82633e-05
2.29017e-06
1.66674e-05
2.28503e-06
1.50893e-05
2.24066e-06
1.35536e-05
2.16476e-06
1.20793e-05
2.06478e-06
1.06806e-05
1.94766e-06
9.36693e-06
1.81967e-06
8.1438e-06
1.6863e-06
7.01317e-06
1.55218e-06
5.97418e-06
1.42103e-06
5.02385e-06
1.29555e-06
4.15792e-06
1.17737e-06
3.37172e-06
1.06679e-06
2.66126e-06
9.62655e-07
2.02434e-06
8.62173e-07
1.46165e-06
7.60889e-07
9.77577e-07
6.53015e-07
5.80373e-07
5.3238e-07
2.80896e-07
3.9454e-07
8.90875e-08
2.40915e-07
5.28517e-09
8.70897e-08
-1.91074e-08
7.93397e-08
-1.06559e-07
3.09023e-07
-3.95159e-07
6.74632e-07
-6.82067e-07
1.15235e-06
-9.2267e-07
1.71186e-06
-1.09856e-06
2.32042e-06
-1.20474e-06
2.94608e-06
-1.24379e-06
3.55993e-06
-1.22301e-06
4.13761e-06
-1.15252e-06
4.66016e-06
-1.044e-06
5.11431e-06
-9.09533e-07
5.49227e-06
-7.60667e-07
5.79118e-06
-6.0769e-07
6.01225e-06
-4.59037e-07
6.15971e-06
-3.20928e-07
6.23966e-06
-1.97186e-07
6.25895e-06
-8.92551e-08
6.22395e-06
3.7248e-09
6.13988e-06
8.41832e-08
6.00984e-06
1.56574e-07
5.8343e-06
2.25933e-07
5.611e-06
2.97947e-07
5.33474e-06
3.78274e-07
4.99776e-06
4.72161e-07
4.58996e-06
5.84118e-07
4.09942e-06
7.17747e-07
3.51283e-06
8.75712e-07
2.81593e-06
1.05983e-06
1.99388e-06
1.27122e-06
1.03157e-06
1.51053e-06
-8.62147e-08
1.77802e-06
-1.37457e-06
2.07376e-06
-2.84817e-06
2.39745e-06
-4.52113e-06
2.74859e-06
-6.40669e-06
3.12619e-06
-8.51679e-06
3.52869e-06
-1.08617e-05
3.9538e-06
-1.34493e-05
4.39845e-06
-1.6285e-05
4.85864e-06
-1.93709e-05
5.32948e-06
-2.27054e-05
5.80518e-06
-2.62828e-05
6.27911e-06
-3.0093e-05
6.74393e-06
-3.41215e-05
7.19174e-06
-3.83489e-05
7.61424e-06
-4.27514e-05
8.00294e-06
-4.73007e-05
8.34942e-06
-5.19644e-05
8.6455e-06
-5.67067e-05
8.88348e-06
-6.14887e-05
9.05637e-06
-6.62692e-05
9.15798e-06
-7.10054e-05
9.18311e-06
-7.56534e-05
9.12759e-06
-8.0169e-05
8.98834e-06
-8.45085e-05
8.76337e-06
-8.86291e-05
8.45176e-06
-9.24894e-05
8.05357e-06
-9.60499e-05
7.56983e-06
-9.92734e-05
7.00243e-06
-0.000102125
6.35404e-06
-0.000104574
5.62807e-06
-0.000106589
4.82866e-06
-0.000108147
3.96066e-06
-0.000109225
3.02975e-06
-0.000109803
2.04219e-06
-0.000109866
1.00489e-06
-0.000109411
-6.35574e-08
-0.000108405
-1.19301e-06
-0.000106866
-2.338e-06
-0.000104788
-3.49876e-06
-0.000102173
-4.66496e-06
-9.90318e-05
-5.82547e-06
-9.53763e-05
-6.96817e-06
-9.12254e-05
-8.08003e-06
-8.66025e-05
-9.14717e-06
-8.15365e-05
-1.01551e-05
-7.60616e-05
-1.1089e-05
-7.02174e-05
-1.19337e-05
-6.40493e-05
-1.26744e-05
-5.76077e-05
-1.32968e-05
-5.09481e-05
-1.37875e-05
-4.41306e-05
-1.41348e-05
-3.72192e-05
-1.43286e-05
-3.02812e-05
-1.43614e-05
-2.33862e-05
-1.42287e-05
-1.66048e-05
-1.39292e-05
-1.00078e-05
-1.34653e-05
-3.6645e-06
-1.28432e-05
2.3592e-06
-1.20729e-05
8.00226e-06
-1.11685e-05
1.32072e-05
-1.01459e-05
1.79256e-05
-9.02738e-06
2.21171e-05
-7.8352e-06
2.57508e-05
-6.59451e-06
2.88061e-05
-5.33109e-06
3.12733e-05
-4.07099e-06
3.31539e-05
-2.83962e-06
3.44605e-05
-1.66075e-06
3.52172e-05
-5.56596e-07
3.54559e-05
4.55402e-07
3.52176e-05
1.36205e-06
3.45511e-05
2.15076e-06
3.35107e-05
2.8152e-06
3.21541e-05
3.35314e-06
3.05404e-05
3.76638e-06
2.87284e-05
4.06039e-06
2.67749e-05
4.24375e-06
2.47324e-05
4.32746e-06
2.26488e-05
4.32426e-06
2.05657e-05
4.24785e-06
1.85183e-05
4.11225e-06
1.65348e-05
3.93116e-06
1.4637e-05
3.71748e-06
1.28403e-05
3.48292e-06
1.11548e-05
3.23773e-06
9.58537e-06
2.99044e-06
8.13334e-06
2.74758e-06
6.79725e-06
2.51346e-06
5.57424e-06
2.2898e-06
4.4615e-06
2.07539e-06
3.45776e-06
1.86591e-06
2.56467e-06
1.65398e-06
1.78781e-06
1.42988e-06
1.13688e-06
1.18332e-06
6.24502e-07
9.06917e-07
2.63014e-07
6.02403e-07
5.82993e-08
2.91805e-07
3.91919e-08
1.18419e-07
-2.24979e-07
4.33243e-07
-7.09982e-07
9.10306e-07
-1.15913e-06
1.51457e-06
-1.52693e-06
2.20817e-06
-1.79217e-06
2.95228e-06
-1.94884e-06
3.70949e-06
-2.00101e-06
4.44606e-06
-1.95957e-06
5.1334e-06
-1.83986e-06
5.74902e-06
-1.65963e-06
6.27683e-06
-1.43734e-06
6.70692e-06
-1.19076e-06
7.03492e-06
-9.35691e-07
7.26102e-06
-6.85138e-07
7.38876e-06
-4.48664e-07
7.42369e-06
-2.32119e-07
7.37205e-06
-3.76081e-08
7.23955e-06
1.36226e-07
7.03e-06
2.93726e-07
6.7449e-06
4.41682e-07
6.3824e-06
5.88424e-07
5.93728e-06
7.43072e-07
5.40081e-06
9.14745e-07
4.76109e-06
1.11188e-06
4.00346e-06
1.34174e-06
3.11109e-06
1.61012e-06
2.06555e-06
1.92125e-06
8.47385e-07
2.27799e-06
-5.63363e-07
2.68197e-06
-2.18673e-06
3.13389e-06
-4.04238e-06
3.63367e-06
-6.14922e-06
4.1806e-06
-8.52501e-06
4.77324e-06
-1.11858e-05
5.40934e-06
-1.41452e-05
6.08564e-06
-1.74141e-05
6.79763e-06
-2.09997e-05
7.53941e-06
-2.49049e-05
8.30357e-06
-2.91274e-05
9.08115e-06
-3.36596e-05
9.86174e-06
-3.8488e-05
1.06336e-05
-4.35929e-05
1.13839e-05
-4.89481e-05
1.20991e-05
-5.45217e-05
1.27653e-05
-6.0276e-05
1.33686e-05
-6.61686e-05
1.38955e-05
-7.21527e-05
1.43335e-05
-7.81785e-05
1.46712e-05
-8.41939e-05
1.48989e-05
-9.01459e-05
1.50084e-05
-9.59816e-05
1.49936e-05
-0.000101649
1.48503e-05
-0.000107097
1.4576e-05
-0.000112279
1.41701e-05
-0.000117149
1.36337e-05
-0.000121667
1.29693e-05
-0.000125794
1.21805e-05
-0.000129496
1.12722e-05
-0.000132744
1.02501e-05
-0.00013551
9.12044e-06
-0.000137772
7.8904e-06
-0.000139511
6.56755e-06
-0.000140711
5.16007e-06
-0.000141358
3.67672e-06
-0.000141443
2.12722e-06
-0.000140964
5.26361e-07
-0.000139899
-1.12919e-06
-0.000138267
-2.82436e-06
-0.000136063
-4.5417e-06
-0.000133293
-6.26936e-06
-0.000129963
-7.99434e-06
-0.000126087
-9.70201e-06
-0.000121679
-1.13765e-05
-0.000116758
-1.30009e-05
-0.000111348
-1.4557e-05
-0.000105477
-1.60261e-05
-9.91773e-05
-1.73886e-05
-9.24865e-05
-1.86245e-05
-8.54469e-05
-1.9714e-05
-7.81059e-05
-2.06377e-05
-7.0516e-05
-2.13775e-05
-6.27342e-05
-2.19166e-05
-5.48219e-05
-2.22408e-05
-4.68444e-05
-2.23389e-05
-3.88699e-05
-2.22031e-05
-3.0969e-05
-2.18301e-05
-2.32132e-05
-2.12211e-05
-1.56739e-05
-2.03824e-05
-8.42138e-06
-1.93254e-05
-1.52316e-06
-1.80667e-05
4.95976e-06
-1.66288e-05
1.09686e-05
-1.50362e-05
1.64518e-05
-1.33183e-05
2.13674e-05
-1.15102e-05
2.56819e-05
-9.64555e-06
2.93713e-05
-7.76037e-06
3.24222e-05
-5.89051e-06
3.4832e-05
-4.07061e-06
3.66086e-05
-2.33319e-06
3.77726e-05
-7.08555e-07
3.83532e-05
7.81421e-07
3.83879e-05
2.11606e-06
3.79249e-05
3.27826e-06
3.70185e-05
4.25951e-06
3.57284e-05
5.05648e-06
3.41173e-05
5.67147e-06
3.22491e-05
6.11192e-06
3.01868e-05
6.3898e-06
2.79903e-05
6.52072e-06
2.57152e-05
6.52296e-06
2.3411e-05
6.41644e-06
2.11206e-05
6.22165e-06
1.88792e-05
5.95882e-06
1.67151e-05
5.64706e-06
1.46491e-05
5.30369e-06
1.26959e-05
4.94368e-06
1.08644e-05
4.57907e-06
9.1594e-06
4.21842e-06
7.58296e-06
3.86624e-06
6.13585e-06
3.5225e-06
4.81945e-06
3.18231e-06
3.63732e-06
2.8361e-06
2.59651e-06
2.47069e-06
1.70817e-06
2.07166e-06
9.87233e-07
1.62786e-06
4.50951e-07
1.13868e-06
1.16585e-07
6.26171e-07
1.55776e-07
1.48376e-07
-3.73356e-07
5.31282e-07
-1.09289e-06
1.09772e-06
-1.72556e-06
1.80089e-06
-2.2301e-06
2.59484e-06
-2.58612e-06
3.43483e-06
-2.78883e-06
4.27896e-06
-2.84514e-06
5.08991e-06
-2.77052e-06
5.83626e-06
-2.58621e-06
6.49327e-06
-2.31664e-06
7.04309e-06
-1.98716e-06
7.4744e-06
-1.62207e-06
7.78164e-06
-1.24294e-06
7.96392e-06
-8.67411e-07
8.02362e-06
-5.08368e-07
7.96501e-06
-1.73503e-07
7.7927e-06
1.347e-07
7.51034e-06
4.18587e-07
7.11934e-06
6.8472e-07
6.61807e-06
9.42952e-07
6.00115e-06
1.20535e-06
5.25924e-06
1.48498e-06
4.37913e-06
1.79486e-06
3.3441e-06
2.14691e-06
2.13452e-06
2.55133e-06
7.28517e-07
3.01612e-06
-8.97232e-07
3.547e-06
-2.76679e-06
4.14755e-06
-4.90424e-06
4.81943e-06
-7.33309e-06
5.56273e-06
-1.00755e-05
6.37611e-06
-1.31518e-05
7.25688e-06
-1.65794e-05
8.20087e-06
-2.03724e-05
9.2023e-06
-2.45402e-05
1.02534e-05
-2.9087e-05
1.13445e-05
-3.40109e-05
1.24632e-05
-3.93028e-05
1.35955e-05
-4.49463e-05
1.47247e-05
-5.09174e-05
1.58328e-05
-5.7184e-05
1.69002e-05
-6.37068e-05
1.79068e-05
-7.04399e-05
1.88322e-05
-7.73313e-05
1.96568e-05
-8.43249e-05
2.03622e-05
-9.13614e-05
2.0932e-05
-9.838e-05
2.13521e-05
-0.00010532
2.16109e-05
-0.000112121
2.17001e-05
-0.000118726
2.1614e-05
-0.000125083
2.135e-05
-0.000131141
2.0908e-05
-0.000136855
2.02903e-05
-0.000142186
1.95011e-05
-0.000147099
1.85464e-05
-0.000151563
1.74334e-05
-0.000155552
1.61703e-05
-0.000159046
1.47659e-05
-0.000162026
1.32299e-05
-0.000164477
1.15718e-05
-0.000166388
9.80157e-06
-0.00016775
7.92945e-06
-0.000168556
5.96577e-06
-0.000168801
3.9213e-06
-0.000168482
1.80813e-06
-0.000167598
-3.57199e-07
-0.000166143
-2.58422e-06
-0.000164127
-4.84053e-06
-0.000161551
-7.11727e-06
-0.00015842
-9.40018e-06
-0.000154741
-1.16734e-05
-0.000150524
-1.39198e-05
-0.000145779
-1.61209e-05
-0.000140524
-1.82566e-05
-0.000134775
-2.03055e-05
-0.000128556
-2.2245e-05
-0.000121894
-2.40511e-05
-0.000114818
-2.56996e-05
-0.000107367
-2.71655e-05
-9.95802e-05
-2.84244e-05
-9.15048e-05
-2.94529e-05
-8.31922e-05
-3.02292e-05
-7.46992e-05
-3.07339e-05
-6.6087e-05
-3.09511e-05
-5.74208e-05
-3.08694e-05
-4.8769e-05
-3.04818e-05
-4.02025e-05
-2.97876e-05
-3.1793e-05
-2.87919e-05
-2.36121e-05
-2.75063e-05
-1.57297e-05
-2.59491e-05
-8.21372e-06
-2.41448e-05
-1.1268e-06
-2.21232e-05
5.47603e-06
-1.99212e-05
1.15418e-05
-1.7576e-05
1.70273e-05
-1.5131e-05
2.18983e-05
-1.26314e-05
2.61293e-05
-1.01216e-05
2.97047e-05
-7.64592e-06
3.26183e-05
-5.2468e-06
3.48734e-05
-2.9637e-06
3.64877e-05
-8.32816e-07
3.74847e-05
1.11897e-06
3.78975e-05
2.86548e-06
3.77699e-05
4.38715e-06
3.71528e-05
5.67353e-06
3.61037e-05
6.72063e-06
3.46842e-05
7.53136e-06
3.29589e-05
8.11515e-06
3.09924e-05
8.48718e-06
2.8848e-05
8.66739e-06
2.65851e-05
8.67928e-06
2.42582e-05
8.5486e-06
2.1915e-05
8.30201e-06
1.95962e-05
7.96585e-06
1.7335e-05
7.56495e-06
1.5157e-05
7.12161e-06
1.30816e-05
6.65453e-06
1.11221e-05
6.17792e-06
9.28775e-06
5.70057e-06
7.58524e-06
5.22502e-06
6.02041e-06
4.74713e-06
4.60024e-06
4.25628e-06
3.33443e-06
3.7365e-06
2.2368e-06
3.16929e-06
1.3262e-06
2.53846e-06
6.27169e-07
1.83771e-06
1.71128e-07
1.08221e-06
3.26904e-07
1.70591e-07
-5.43947e-07
6.05681e-07
-1.52798e-06
1.24064e-06
-2.36053e-06
2.01757e-06
-3.00703e-06
2.88223e-06
-3.45078e-06
3.78392e-06
-3.69051e-06
4.6765e-06
-3.73771e-06
5.51968e-06
-3.61371e-06
6.28003e-06
-3.34656e-06
6.93145e-06
-2.96805e-06
7.45509e-06
-2.51081e-06
7.83886e-06
-2.00583e-06
8.07637e-06
-1.48044e-06
8.16568e-06
-9.56721e-07
8.1078e-06
-4.50489e-07
7.90512e-06
2.91719e-08
7.55983e-06
4.79994e-07
7.07252e-06
9.05898e-07
6.44097e-06
1.31627e-06
5.65929e-06
1.72464e-06
4.71735e-06
2.14728e-06
3.60072e-06
2.60161e-06
2.2909e-06
3.10468e-06
7.65839e-07
3.67197e-06
-9.99232e-07
4.3164e-06
-3.03091e-06
5.0478e-06
-5.35668e-06
5.87277e-06
-8.00394e-06
6.79481e-06
-1.09991e-05
7.81461e-06
-1.43667e-05
8.93029e-06
-1.81282e-05
1.01376e-05
-2.23012e-05
1.14299e-05
-2.68984e-05
1.2798e-05
-3.1926e-05
1.42299e-05
-3.73832e-05
1.57107e-05
-4.32609e-05
1.72222e-05
-4.95411e-05
1.87434e-05
-5.61963e-05
2.02507e-05
-6.319e-05
2.17184e-05
-7.04766e-05
2.31194e-05
-7.80028e-05
2.44264e-05
-8.57088e-05
2.56127e-05
-9.35299e-05
2.66533e-05
-0.000101399
2.75255e-05
-0.000109247
2.82102e-05
-0.000117006
2.86918e-05
-0.000124613
2.89591e-05
-0.000132007
2.90048e-05
-0.000139133
2.88256e-05
-0.000145941
2.84219e-05
-0.000152388
2.77972e-05
-0.000158437
2.69576e-05
-0.000164058
2.59113e-05
-0.000169226
2.46682e-05
-0.000173918
2.32391e-05
-0.000178121
2.16356e-05
-0.00018182
1.98695e-05
-0.000185007
1.79528e-05
-0.000187674
1.58973e-05
-0.000189817
1.37145e-05
-0.000191431
1.14159e-05
-0.000192514
9.01259e-06
-0.000193064
6.51553e-06
-0.000193079
3.93621e-06
-0.00019256
1.28881e-06
-0.000191498
-1.41893e-06
-0.000189903
-4.17881e-06
-0.000187772
-6.97151e-06
-0.000185106
-9.78386e-06
-0.000181905
-1.26008e-05
-0.000178173
-1.54053e-05
-0.000173914
-1.81787e-05
-0.000169135
-2.09004e-05
-0.000163843
-2.3548e-05
-0.000158052
-2.6097e-05
-0.000151775
-2.85214e-05
-0.000145033
-3.07931e-05
-0.00013785
-3.28834e-05
-0.000130253
-3.47623e-05
-0.000122277
-3.64e-05
-0.000113963
-3.77673e-05
-0.000105356
-3.88365e-05
-9.6507e-05
-3.95824e-05
-8.74745e-05
-3.99837e-05
-7.83204e-05
-4.00234e-05
-6.91117e-05
-3.96906e-05
-5.99185e-05
-3.89808e-05
-5.08136e-05
-3.78968e-05
-4.18705e-05
-3.64495e-05
-3.31621e-05
-3.46575e-05
-2.47596e-05
-3.25473e-05
-1.67302e-05
-3.01525e-05
-9.13772e-06
-2.75137e-05
-2.038e-06
-2.46757e-05
4.51992e-06
-2.16889e-05
1.04931e-05
-1.86045e-05
1.58475e-05
-1.5476e-05
2.05581e-05
-1.23565e-05
2.46087e-05
-9.29739e-06
2.79919e-05
-6.34695e-06
3.07088e-05
-3.54974e-06
3.27738e-05
-9.45976e-07
3.42061e-05
1.4332e-06
3.50344e-05
3.55886e-06
3.52976e-05
5.41031e-06
3.50422e-05
6.97602e-06
3.43215e-05
8.25205e-06
3.31943e-05
9.2424e-06
3.17228e-05
9.9586e-06
2.99712e-05
1.0419e-05
2.8003e-05
1.06476e-05
2.5879e-05
1.06726e-05
2.36559e-05
1.05251e-05
2.13846e-05
1.02371e-05
1.91092e-05
9.84034e-06
1.68667e-05
9.36413e-06
1.46869e-05
8.83433e-06
1.25932e-05
8.27159e-06
1.06037e-05
7.69008e-06
8.73246e-06
7.09624e-06
6.9916e-06
6.488e-06
5.39308e-06
5.8548e-06
3.95088e-06
5.1787e-06
2.68306e-06
4.4371e-06
1.61396e-06
3.60756e-06
7.76705e-07
2.67496e-06
2.17038e-07
1.64188e-06
5.43942e-07
1.87015e-07
-7.30961e-07
6.60897e-07
-2.00186e-06
1.34577e-06
-3.0454e-06
2.17356e-06
-3.83482e-06
3.08194e-06
-4.35917e-06
4.01426e-06
-4.62283e-06
4.92028e-06
-4.64373e-06
5.75712e-06
-4.45055e-06
6.48987e-06
-4.07931e-06
7.09168e-06
-3.56985e-06
7.54334e-06
-2.96247e-06
7.83244e-06
-2.29494e-06
7.95208e-06
-1.60008e-06
7.89933e-06
-9.03969e-07
7.67359e-06
-2.24749e-07
7.27485e-06
4.27912e-07
6.70216e-06
1.05268e-06
5.95212e-06
1.65594e-06
5.01781e-06
2.25058e-06
3.88805e-06
2.8544e-06
2.54698e-06
3.48835e-06
9.74306e-07
4.17428e-06
-8.54253e-07
4.93324e-06
-2.9661e-06
5.78382e-06
-5.39071e-06
6.741e-06
-8.15843e-06
7.81552e-06
-1.12993e-05
9.01365e-06
-1.48419e-05
1.03373e-05
-1.88117e-05
1.17845e-05
-2.32306e-05
1.33492e-05
-2.81148e-05
1.50218e-05
-3.34737e-05
1.67889e-05
-3.93089e-05
1.86332e-05
-4.56126e-05
2.05336e-05
-5.23666e-05
2.24647e-05
-5.95422e-05
2.43977e-05
-6.70995e-05
2.63007e-05
-7.49885e-05
2.81398e-05
-8.31501e-05
2.98799e-05
-9.15174e-05
3.14867e-05
-0.000100019
3.29276e-05
-0.000108579
3.41728e-05
-0.000117122
3.51971e-05
-0.000125577
3.59799e-05
-0.000133873
3.65061e-05
-0.000141947
3.6766e-05
-0.000149743
3.67552e-05
-0.000157212
3.6474e-05
-0.000164313
3.59267e-05
-0.000171013
3.51211e-05
-0.000177283
3.40677e-05
-0.000183104
3.27788e-05
-0.000188461
3.12678e-05
-0.000193342
2.95491e-05
-0.00019774
2.76369e-05
-0.000201649
2.55456e-05
-0.000205069
2.32888e-05
-0.000207996
2.088e-05
-0.00021043
1.83316e-05
-0.000212371
1.56556e-05
-0.000213819
1.28635e-05
-0.000214772
9.96591e-06
-0.00021523
6.97347e-06
-0.000215191
3.89697e-06
-0.000214652
7.50115e-07
-0.00021361
-2.46095e-06
-0.000212066
-5.7231e-06
-0.000210015
-9.02228e-06
-0.000207454
-1.2345e-05
-0.00020438
-1.56751e-05
-0.00020079
-1.89953e-05
-0.000196683
-2.22857e-05
-0.000192059
-2.55243e-05
-0.00018692
-2.86868e-05
-0.000181271
-3.17462e-05
-0.000175119
-3.46732e-05
-0.000168476
-3.74363e-05
-0.000161357
-4.00019e-05
-0.000153784
-4.23354e-05
-0.000145783
-4.44011e-05
-0.000137387
-4.61636e-05
-0.000128635
-4.75887e-05
-0.000119573
-4.86444e-05
-0.000110254
-4.93025e-05
-0.000100738
-4.95398e-05
-9.10889e-05
-4.93392e-05
-8.13785e-05
-4.86913e-05
-7.16802e-05
-4.75951e-05
-6.20708e-05
-4.60589e-05
-5.26275e-05
-4.41008e-05
-4.34265e-05
-4.17482e-05
-3.45414e-05
-3.90376e-05
-2.60413e-05
-3.60138e-05
-1.79892e-05
-3.27278e-05
-1.04416e-05
-2.92365e-05
-3.44656e-06
-2.55996e-05
2.95619e-06
-2.18787e-05
8.73499e-06
-1.81353e-05
1.38666e-05
-1.4429e-05
1.83365e-05
-1.08168e-05
2.21382e-05
-7.35143e-06
2.52728e-05
-4.08055e-06
2.77524e-05
-1.04642e-06
2.95941e-05
1.71714e-06
3.08236e-05
4.18082e-06
3.14756e-05
6.32405e-06
3.15921e-05
8.13548e-06
3.12224e-05
9.6121e-06
3.04214e-05
1.07596e-05
2.92483e-05
1.15921e-05
2.7765e-05
1.21309e-05
2.60335e-05
1.2404e-05
2.41147e-05
1.2444e-05
2.20656e-05
1.22862e-05
1.99385e-05
1.19674e-05
1.77796e-05
1.1523e-05
1.56287e-05
1.09853e-05
1.35188e-05
1.03815e-05
1.14772e-05
9.73164e-06
9.52654e-06
9.0469e-06
7.68625e-06
8.32829e-06
5.97474e-06
7.56631e-06
4.41172e-06
6.74172e-06
3.02092e-06
5.82791e-06
1.83323e-06
4.79525e-06
8.90665e-07
3.61753e-06
2.51762e-07
2.28078e-06
7.95704e-07
1.99279e-07
-9.3024e-07
7.00988e-07
-2.50357e-06
1.41933e-06
-3.76374e-06
2.27689e-06
-4.69237e-06
3.20361e-06
-5.28589e-06
4.1371e-06
-5.55632e-06
5.02329e-06
-5.52992e-06
5.81706e-06
-5.24432e-06
6.48247e-06
-4.74472e-06
6.99243e-06
-4.07981e-06
7.32785e-06
-3.2979e-06
7.47639e-06
-2.44347e-06
7.43077e-06
-1.55446e-06
7.18705e-06
-6.60245e-07
6.74268e-06
2.19613e-07
6.09479e-06
1.07581e-06
5.23847e-06
1.90899e-06
4.16549e-06
2.72892e-06
2.86322e-06
3.55284e-06
1.31451e-06
4.40312e-06
-5.03035e-07
5.30589e-06
-2.61588e-06
6.28712e-06
-5.05392e-06
7.37128e-06
-7.84927e-06
8.57917e-06
-1.10348e-05
9.92656e-06
-1.46427e-05
1.14234e-05
-1.87028e-05
1.30738e-05
-2.32412e-05
1.48757e-05
-2.82783e-05
1.68216e-05
-3.38279e-05
1.88987e-05
-3.98949e-05
2.10888e-05
-4.64745e-05
2.33684e-05
-5.35503e-05
2.57091e-05
-6.1094e-05
2.80773e-05
-6.90649e-05
3.04355e-05
-7.74101e-05
3.2743e-05
-8.60664e-05
3.4957e-05
-9.49617e-05
3.7035e-05
-0.000104018
3.89358e-05
-0.000113152
4.06216e-05
-0.000122285
4.20598e-05
-0.000131335
4.32233e-05
-0.00014023
4.40921e-05
-0.000148903
4.46527e-05
-0.000157295
4.48985e-05
-0.000165358
4.48289e-05
-0.000173051
4.44485e-05
-0.000180343
4.3766e-05
-0.000187211
4.27938e-05
-0.000193636
4.15465e-05
-0.000199608
4.004e-05
-0.000205121
3.82913e-05
-0.00021017
3.63173e-05
-0.000214756
3.41348e-05
-0.000218879
3.17597e-05
-0.000222541
2.92073e-05
-0.000225744
2.64918e-05
-0.00022849
2.36264e-05
-0.000230782
2.06232e-05
-0.00023262
1.74937e-05
-0.000234005
1.42483e-05
-0.000234936
1.08969e-05
-0.000235411
7.44915e-06
-0.000235429
3.91433e-06
-0.000234981
3.02203e-07
-0.000234069
-3.37247e-06
-0.000232688
-7.10465e-06
-0.000230829
-1.08806e-05
-0.000228488
-1.46867e-05
-0.000225655
-1.85072e-05
-0.000222326
-2.23245e-05
-0.000218493
-2.61186e-05
-0.000214151
-2.98666e-05
-0.000209295
-3.3543e-05
-0.000203922
-3.71189e-05
-0.000198033
-4.05626e-05
-0.000191629
-4.38394e-05
-0.000184719
-4.69118e-05
-0.000177315
-4.97402e-05
-0.000169432
-5.22834e-05
-0.000161096
-5.44995e-05
-0.000152338
-5.63473e-05
-0.000143195
-5.7787e-05
-0.000133715
-5.87825e-05
-0.000123952
-5.93025e-05
-0.00011397
-5.93221e-05
-0.000103836
-5.88248e-05
-9.36272e-05
-5.78038e-05
-8.34235e-05
-5.62627e-05
-7.33075e-05
-5.42168e-05
-6.33626e-05
-5.16931e-05
-5.36706e-05
-4.87296e-05
-4.43096e-05
-4.53748e-05
-3.53518e-05
-4.16857e-05
-2.68619e-05
-3.77264e-05
-1.88961e-05
-3.35654e-05
-1.15012e-05
-2.92736e-05
-4.71467e-06
-2.49219e-05
1.43568e-06
-2.05794e-05
6.93055e-06
-1.63117e-05
1.17587e-05
-1.21796e-05
1.59166e-05
-8.23847e-06
1.94076e-05
-4.53735e-06
2.22434e-05
-1.11871e-06
2.4441e-05
1.98321e-06
2.60247e-05
4.74043e-06
2.70262e-05
7.13395e-06
2.74845e-05
9.1538e-06
2.7445e-05
1.07991e-05
2.69592e-05
1.20779e-05
2.6083e-05
1.30071e-05
2.48753e-05
1.36117e-05
2.33963e-05
1.3923e-05
2.17053e-05
1.39773e-05
1.98588e-05
1.38139e-05
1.79095e-05
1.34723e-05
1.59045e-05
1.29902e-05
1.38856e-05
1.24004e-05
1.18886e-05
1.17286e-05
9.94459e-06
1.09909e-05
8.08089e-06
1.0192e-05
6.32326e-06
9.32395e-06
4.69818e-06
8.3668e-06
3.23599e-06
7.29009e-06
1.97464e-06
6.0566e-06
9.64393e-07
4.62778e-06
2.74068e-07
2.97111e-06
1.06977e-06
2.08466e-07
-1.13871e-06
7.28756e-07
-3.02386e-06
1.46565e-06
-4.50064e-06
2.33295e-06
-5.55967e-06
3.25335e-06
-6.2063e-06
4.15914e-06
-6.4621e-06
4.99281e-06
-6.36359e-06
5.70749e-06
-5.959e-06
6.2667e-06
-5.30394e-06
6.6436e-06
-4.45671e-06
6.8196e-06
-3.47389e-06
6.7826e-06
-2.40648e-06
6.52502e-06
-1.29689e-06
6.0417e-06
-1.76917e-07
5.32769e-06
9.33615e-07
4.37665e-06
2.02686e-06
3.17898e-06
3.10666e-06
1.72083e-06
4.18708e-06
-1.66525e-08
5.29032e-06
-2.05796e-06
6.44443e-06
-4.43134e-06
7.67928e-06
-7.16925e-06
9.02503e-06
-1.03064e-05
1.05084e-05
-1.38779e-05
1.21507e-05
-1.79177e-05
1.39664e-05
-2.24566e-05
1.59623e-05
-2.752e-05
1.81372e-05
-3.31268e-05
2.04824e-05
-3.92868e-05
2.29816e-05
-4.59994e-05
2.56114e-05
-5.3252e-05
2.83415e-05
-6.1019e-05
3.11354e-05
-6.92608e-05
3.39508e-05
-7.79243e-05
3.67409e-05
-8.69443e-05
3.94554e-05
-9.62447e-05
4.20434e-05
-0.000105742
4.44545e-05
-0.000115349
4.6642e-05
-0.000124977
4.85639e-05
-0.000134541
5.01856e-05
-0.000143962
5.14801e-05
-0.000153167
5.24287e-05
-0.000162096
5.3021e-05
-0.000170697
5.32541e-05
-0.000178931
5.31317e-05
-0.000186765
5.2663e-05
-0.000194177
5.18612e-05
-0.000201154
5.07428e-05
-0.000207687
4.93262e-05
-0.000213771
4.76306e-05
-0.000219406
4.56757e-05
-0.000224596
4.34809e-05
-0.000229343
4.10647e-05
-0.000233653
3.84448e-05
-0.000237531
3.56374e-05
-0.000240981
3.26576e-05
-0.000244009
2.95191e-05
-0.000246617
2.62344e-05
-0.000248808
2.28149e-05
-0.000250585
1.92709e-05
-0.000251949
1.56118e-05
-0.000252898
1.18463e-05
-0.000253432
7.98289e-06
-0.000253548
4.03049e-06
-0.000253232
-1.40092e-08
-0.000252498
-4.10659e-06
-0.000251329
-8.27319e-06
-0.000249719
-1.24907e-05
-0.000247659
-1.67467e-05
-0.00024514
-2.10267e-05
-0.000242151
-2.53138e-05
-0.000238681
-2.95884e-05
-0.000234719
-3.3828e-05
-0.000230256
-3.80065e-05
-0.00022528
-4.20944e-05
-0.000219785
-4.60585e-05
-0.000213762
-4.98618e-05
-0.00020721
-5.34636e-05
-0.00020013
-5.68203e-05
-0.000192528
-5.98855e-05
-0.000184417
-6.26111e-05
-0.000175816
-6.49484e-05
-0.000166753
-6.68496e-05
-0.000157266
-6.82693e-05
-0.000147402
-6.91665e-05
-0.000137218
-6.95067e-05
-0.000126779
-6.92637e-05
-0.000116161
-6.84219e-05
-0.000105446
-6.69774e-05
-9.47231e-05
-6.49399e-05
-8.40834e-05
-6.23329e-05
-7.36191e-05
-5.91938e-05
-6.34206e-05
-5.55733e-05
-5.35728e-05
-5.15335e-05
-4.41535e-05
-4.71457e-05
-3.52308e-05
-4.24881e-05
-2.6862e-05
-3.76424e-05
-1.90929e-05
-3.2691e-05
-1.1958e-05
-2.77143e-05
-5.48115e-06
-2.27885e-05
3.23464e-07
-1.79842e-05
5.44985e-06
-1.33649e-05
9.89914e-06
-8.98664e-06
1.36788e-05
-4.89839e-06
1.68026e-05
-1.14056e-06
1.92891e-05
2.2539e-06
2.11629e-05
5.26015e-06
2.24548e-05
7.86191e-06
2.32016e-05
1.00522e-05
2.34464e-05
1.18331e-05
2.32375e-05
1.3216e-05
2.26281e-05
1.42211e-05
2.16743e-05
1.48767e-05
2.0434e-05
1.52177e-05
1.89644e-05
1.52834e-05
1.73214e-05
1.51154e-05
1.55569e-05
1.47546e-05
1.3719e-05
1.42383e-05
1.18508e-05
1.35969e-05
9.99092e-06
1.28508e-05
8.17455e-06
1.20084e-05
6.43492e-06
1.10636e-05
4.80575e-06
9.99597e-06
3.32434e-06
8.77149e-06
2.03556e-06
7.34538e-06
9.96683e-07
5.66665e-06
2.8371e-07
3.68408e-06
1.35348e-06
2.15112e-07
-1.35382e-06
7.45558e-07
-3.5543e-06
1.48669e-06
-5.24178e-06
2.34392e-06
-6.41689e-06
3.23325e-06
-7.09563e-06
4.08223e-06
-7.31108e-06
4.83056e-06
-7.11192e-06
5.43021e-06
-6.55865e-06
5.84476e-06
-5.71848e-06
6.04803e-06
-4.65998e-06
6.02219e-06
-3.44806e-06
5.75554e-06
-2.13982e-06
5.24004e-06
-7.8139e-07
4.46881e-06
5.94318e-07
3.43414e-06
1.96828e-06
2.1254e-06
3.3356e-06
5.27604e-07
4.70445e-06
-1.37947e-06
6.09415e-06
-3.62152e-06
7.53238e-06
-6.22909e-06
9.05199e-06
-9.23704e-06
1.06872e-05
-1.26824e-05
1.24704e-05
-1.66025e-05
1.44285e-05
-2.10328e-05
1.6581e-05
-2.60046e-05
1.89382e-05
-3.15427e-05
2.15003e-05
-3.76632e-05
2.42577e-05
-4.43716e-05
2.71908e-05
-5.16609e-05
3.0271e-05