/*--------------------------------*- C++ -*----------------------------------*\
| =========                 |                                                 |
| \\      /  F ield         | OpenFOAM: The Open Source CFD Toolbox           |
|  \\    /   O peration     | Version:  2406                                  |
|   \\  /    A nd           | Website:  www.openfoam.com                      |
|    \\/     M anipulation  |                                                 |
\*---------------------------------------------------------------------------*/
FoamFile
{
    version     2.0;
    format      ascii;
    arch        "LSB;label=32;scalar=64";
    class       volScalarField;
    location    "15.2";
    object      p;
}
// * * * * * * * * * * * * * * * * * * * * * * * * * * * * * * * * * * * * * //

dimensions      [0 2 -2 0 0 0 0];

internalField   nonuniform List<scalar> 
14400
(
0.0235906
0.0235905
0.0235881
0.0235843
0.0235791
0.0235731
0.0235665
0.0235596
0.0235525
0.0235453
0.023538
0.0235305
0.0235229
0.0235151
0.0235072
0.023499
0.0234907
0.0234821
0.0234735
0.0234647
0.0234559
0.023447
0.0234383
0.0234298
0.0234214
0.0234135
0.0234059
0.023399
0.0233926
0.0233871
0.0233824
0.0233787
0.0233762
0.0233749
0.0233751
0.0233768
0.0233803
0.0233856
0.023393
0.0234025
0.0234144
0.0234288
0.0234459
0.0234658
0.0234887
0.0235147
0.023544
0.0235766
0.0236126
0.0236522
0.0236952
0.0237418
0.0237919
0.0238453
0.023902
0.0239616
0.0240241
0.0240889
0.0241557
0.0242241
0.0242935
0.0243633
0.0244328
0.0245013
0.0245681
0.0246324
0.0246934
0.0247502
0.0248022
0.0248484
0.0248882
0.0249211
0.0249464
0.0249636
0.0249726
0.024973
0.0249648
0.0249481
0.0249231
0.0248902
0.0248498
0.0248025
0.024749
0.02469
0.0246263
0.0245588
0.0244883
0.0244157
0.0243418
0.0242674
0.0241932
0.0241199
0.0240481
0.0239782
0.0239109
0.0238463
0.0237849
0.0237268
0.0236722
0.0236212
0.0235738
0.02353
0.0234898
0.0234532
0.0234199
0.0233901
0.0233635
0.0233401
0.0233196
0.0233023
0.0232878
0.0232763
0.0232674
0.0232618
0.0232582
0.0232581
0.0232593
0.0232634
0.0232667
0.0232707
0.0235906
0.0235905
0.0235885
0.0235853
0.023581
0.0235759
0.0235703
0.0235641
0.0235578
0.0235511
0.0235442
0.0235371
0.0235298
0.0235223
0.0235146
0.0235068
0.0234987
0.0234905
0.0234821
0.0234737
0.0234652
0.0234568
0.0234484
0.0234403
0.0234324
0.0234248
0.0234178
0.0234112
0.0234053
0.0234002
0.0233959
0.0233927
0.0233906
0.0233897
0.0233903
0.0233923
0.0233961
0.0234017
0.0234093
0.023419
0.0234311
0.0234455
0.0234626
0.0234824
0.0235051
0.0235309
0.0235597
0.0235918
0.0236271
0.0236658
0.0237079
0.0237533
0.023802
0.023854
0.0239089
0.0239667
0.0240271
0.0240897
0.0241542
0.0242201
0.0242869
0.024354
0.0244207
0.0244865
0.0245506
0.0246122
0.0246705
0.0247249
0.0247744
0.0248185
0.0248564
0.0248876
0.0249115
0.0249277
0.024936
0.024936
0.0249278
0.0249115
0.0248872
0.0248553
0.0248162
0.0247705
0.0247189
0.024662
0.0246006
0.0245355
0.0244676
0.0243976
0.0243263
0.0242545
0.0241829
0.0241121
0.0240426
0.0239751
0.0239098
0.0238473
0.0237876
0.0237311
0.023678
0.0236282
0.023582
0.0235392
0.0234998
0.0234639
0.0234312
0.0234019
0.0233756
0.0233525
0.0233323
0.023315
0.0233004
0.0232888
0.0232794
0.0232731
0.0232686
0.0232673
0.0232667
0.0232692
0.0232707
0.0232747
0.0235931
0.0235926
0.0235905
0.0235872
0.023583
0.023578
0.0235725
0.0235665
0.0235604
0.0235538
0.0235471
0.0235402
0.0235331
0.0235257
0.0235181
0.0235103
0.0235023
0.0234942
0.0234859
0.0234775
0.0234691
0.0234607
0.0234525
0.0234444
0.0234365
0.023429
0.023422
0.0234155
0.0234096
0.0234045
0.0234002
0.023397
0.0233949
0.023394
0.0233945
0.0233965
0.0234002
0.0234057
0.0234131
0.0234227
0.0234346
0.0234489
0.0234657
0.0234853
0.0235077
0.0235331
0.0235616
0.0235933
0.0236283
0.0236666
0.0237082
0.0237532
0.0238015
0.0238529
0.0239074
0.0239647
0.0240246
0.0240867
0.0241508
0.0242163
0.0242827
0.0243494
0.0244159
0.0244814
0.0245452
0.0246066
0.0246648
0.024719
0.0247685
0.0248125
0.0248504
0.0248815
0.0249054
0.0249215
0.0249297
0.0249297
0.0249214
0.024905
0.0248806
0.0248486
0.0248095
0.0247637
0.024712
0.0246551
0.0245937
0.0245287
0.0244609
0.024391
0.0243199
0.0242484
0.024177
0.0241065
0.0240375
0.0239703
0.0239055
0.0238434
0.0237842
0.0237283
0.0236756
0.0236263
0.0235805
0.0235382
0.0234992
0.0234637
0.0234314
0.0234024
0.0233765
0.0233536
0.0233335
0.0233165
0.0233019
0.0232903
0.0232809
0.0232746
0.0232698
0.0232685
0.0232677
0.0232707
0.0232721
0.023278
0.0235971
0.0235957
0.0235936
0.0235901
0.0235863
0.0235816
0.0235766
0.0235711
0.0235653
0.0235592
0.0235529
0.0235462
0.0235394
0.0235322
0.0235249
0.0235173
0.0235095
0.0235015
0.0234934
0.0234852
0.023477
0.0234687
0.0234606
0.0234527
0.023445
0.0234377
0.0234308
0.0234244
0.0234187
0.0234137
0.0234095
0.0234064
0.0234043
0.0234034
0.0234039
0.0234059
0.0234095
0.0234149
0.0234222
0.0234316
0.0234432
0.0234572
0.0234737
0.0234928
0.0235148
0.0235396
0.0235675
0.0235985
0.0236327
0.0236701
0.0237108
0.0237548
0.023802
0.0238523
0.0239056
0.0239617
0.0240204
0.0240813
0.024144
0.0242083
0.0242734
0.024339
0.0244043
0.0244687
0.0245314
0.0245919
0.0246491
0.0247025
0.0247513
0.0247947
0.024832
0.0248626
0.0248861
0.024902
0.02491
0.0249098
0.0249016
0.0248852
0.0248609
0.0248292
0.0247903
0.0247449
0.0246937
0.0246374
0.0245766
0.0245123
0.0244453
0.0243764
0.0243062
0.0242357
0.0241654
0.0240961
0.0240281
0.0239622
0.0238985
0.0238376
0.0237796
0.0237247
0.0236731
0.0236248
0.02358
0.0235385
0.0235004
0.0234656
0.0234341
0.0234057
0.0233802
0.0233578
0.023338
0.0233212
0.0233067
0.0232952
0.0232856
0.023279
0.0232738
0.0232721
0.0232705
0.0232735
0.0232745
0.0232821
0.0236028
0.0236
0.0235977
0.0235937
0.0235898
0.0235849
0.0235801
0.0235745
0.023569
0.023563
0.0235568
0.0235503
0.0235436
0.0235366
0.0235293
0.0235218
0.023514
0.0235061
0.023498
0.0234898
0.0234815
0.0234733
0.0234651
0.0234571
0.0234493
0.0234419
0.0234349
0.0234283
0.0234224
0.0234172
0.0234129
0.0234094
0.0234071
0.0234059
0.0234061
0.0234077
0.0234109
0.0234159
0.0234228
0.0234317
0.0234427
0.0234562
0.0234721
0.0234906
0.0235119
0.0235361
0.0235633
0.0235936
0.0236271
0.0236638
0.0237038
0.0237471
0.0237937
0.0238434
0.0238962
0.0239519
0.0240102
0.0240708
0.0241334
0.0241975
0.0242627
0.0243284
0.024394
0.0244587
0.0245219
0.0245829
0.0246408
0.0246948
0.0247442
0.0247882
0.0248261
0.0248573
0.0248813
0.0248976
0.0249059
0.0249059
0.0248977
0.0248812
0.0248568
0.0248247
0.0247854
0.0247395
0.0246877
0.0246307
0.0245694
0.0245044
0.0244368
0.0243673
0.0242967
0.0242258
0.0241552
0.0240857
0.0240177
0.0239518
0.0238883
0.0238276
0.0237699
0.0237155
0.0236644
0.0236167
0.0235724
0.0235316
0.0234941
0.0234599
0.0234289
0.023401
0.0233761
0.0233541
0.0233347
0.0233183
0.0233041
0.0232927
0.0232832
0.0232769
0.0232716
0.0232702
0.0232686
0.0232724
0.0232736
0.0232832
0.0236094
0.0236051
0.0236026
0.0235979
0.0235941
0.023589
0.0235844
0.023579
0.0235738
0.023568
0.0235621
0.0235558
0.0235493
0.0235424
0.0235353
0.0235278
0.0235202
0.0235122
0.0235042
0.0234959
0.0234877
0.0234794
0.0234712
0.0234631
0.0234552
0.0234476
0.0234404
0.0234337
0.0234276
0.0234222
0.0234175
0.0234138
0.0234111
0.0234096
0.0234093
0.0234105
0.0234132
0.0234176
0.0234239
0.0234322
0.0234426
0.0234552
0.0234703
0.023488
0.0235084
0.0235317
0.0235579
0.0235872
0.0236196
0.0236553
0.0236943
0.0237365
0.023782
0.0238308
0.0238826
0.0239374
0.0239949
0.0240549
0.0241169
0.0241806
0.0242454
0.0243109
0.0243764
0.0244412
0.0245046
0.0245658
0.024624
0.0246785
0.0247285
0.0247731
0.0248116
0.0248434
0.024868
0.0248848
0.0248935
0.0248939
0.0248859
0.0248696
0.0248452
0.024813
0.0247736
0.0247275
0.0246754
0.024618
0.0245563
0.024491
0.0244231
0.0243533
0.0242825
0.0242114
0.0241409
0.0240714
0.0240037
0.0239381
0.023875
0.0238149
0.0237578
0.0237041
0.0236537
0.0236068
0.0235633
0.0235233
0.0234866
0.0234532
0.023423
0.0233958
0.0233715
0.0233502
0.0233313
0.0233153
0.0233014
0.0232903
0.0232809
0.0232746
0.0232693
0.023268
0.0232662
0.0232705
0.0232717
0.0232826
0.0236168
0.0236108
0.0236079
0.0236022
0.0235983
0.0235929
0.0235884
0.0235829
0.0235778
0.0235721
0.0235663
0.0235601
0.0235537
0.0235468
0.0235397
0.0235323
0.0235245
0.0235165
0.0235084
0.0235
0.0234915
0.023483
0.0234746
0.0234662
0.0234581
0.0234501
0.0234426
0.0234355
0.0234289
0.023423
0.0234178
0.0234136
0.0234103
0.0234081
0.0234071
0.0234075
0.0234095
0.0234131
0.0234184
0.0234258
0.0234352
0.0234468
0.0234609
0.0234774
0.0234967
0.0235188
0.0235438
0.0235719
0.0236032
0.0236377
0.0236756
0.0237168
0.0237614
0.0238093
0.0238604
0.0239146
0.0239716
0.0240313
0.0240932
0.0241569
0.0242221
0.024288
0.0243541
0.0244198
0.0244842
0.0245465
0.0246061
0.0246619
0.0247133
0.0247593
0.0247993
0.0248325
0.0248583
0.0248763
0.024886
0.0248872
0.0248798
0.0248638
0.0248396
0.0248073
0.0247675
0.0247209
0.0246681
0.0246099
0.0245472
0.0244809
0.0244119
0.0243411
0.0242693
0.0241974
0.0241261
0.024056
0.0239878
0.0239218
0.0238586
0.0237985
0.0237416
0.0236881
0.0236381
0.0235917
0.0235488
0.0235095
0.0234735
0.0234408
0.0234112
0.0233848
0.0233612
0.0233405
0.0233222
0.0233067
0.0232932
0.0232826
0.0232734
0.0232675
0.0232623
0.0232615
0.0232599
0.0232648
0.0232663
0.0232784
0.0236244
0.0236165
0.0236134
0.0236067
0.0236028
0.023597
0.0235926
0.0235871
0.0235821
0.0235764
0.0235709
0.0235647
0.0235584
0.0235516
0.0235445
0.023537
0.0235292
0.0235211
0.0235127
0.0235042
0.0234955
0.0234867
0.023478
0.0234693
0.0234607
0.0234524
0.0234444
0.0234368
0.0234297
0.0234231
0.0234173
0.0234124
0.0234083
0.0234053
0.0234035
0.023403
0.023404
0.0234065
0.0234107
0.0234169
0.023425
0.0234354
0.023448
0.0234632
0.023481
0.0235015
0.023525
0.0235515
0.0235812
0.0236142
0.0236505
0.0236902
0.0237334
0.0237799
0.0238298
0.0238829
0.023939
0.023998
0.0240593
0.0241228
0.0241878
0.0242539
0.0243205
0.0243868
0.024452
0.0245155
0.0245763
0.0246336
0.0246866
0.0247343
0.024776
0.024811
0.0248386
0.0248582
0.0248694
0.024872
0.0248657
0.0248507
0.0248271
0.0247952
0.0247557
0.0247089
0.0246558
0.0245972
0.0245339
0.0244668
0.024397
0.0243253
0.0242527
0.02418
0.024108
0.0240374
0.0239687
0.0239025
0.0238392
0.0237791
0.0237224
0.0236693
0.0236198
0.023574
0.0235318
0.0234932
0.023458
0.0234261
0.0233974
0.0233718
0.0233489
0.0233289
0.0233112
0.0232963
0.0232834
0.0232732
0.0232644
0.0232588
0.0232538
0.0232532
0.0232517
0.0232571
0.0232587
0.0232715
0.0236319
0.0236221
0.0236186
0.0236109
0.0236068
0.0236006
0.0235961
0.0235905
0.0235856
0.0235799
0.0235744
0.0235682
0.0235619
0.023555
0.0235478
0.0235402
0.0235322
0.0235239
0.0235153
0.0235064
0.0234974
0.0234882
0.023479
0.0234698
0.0234607
0.0234518
0.0234431
0.0234348
0.0234269
0.0234196
0.0234129
0.023407
0.0234019
0.0233979
0.0233949
0.0233932
0.0233929
0.0233941
0.0233969
0.0234015
0.0234081
0.0234167
0.0234276
0.0234409
0.0234568
0.0234754
0.0234969
0.0235215
0.0235491
0.0235801
0.0236145
0.0236523
0.0236936
0.0237385
0.0237868
0.0238385
0.0238935
0.0239515
0.0240122
0.0240752
0.0241402
0.0242065
0.0242736
0.0243407
0.0244072
0.0244722
0.0245348
0.0245942
0.0246494
0.0246996
0.0247439
0.0247815
0.0248117
0.0248338
0.0248475
0.0248523
0.0248481
0.0248348
0.0248126
0.0247818
0.0247429
0.0246965
0.0246434
0.0245845
0.0245206
0.0244527
0.024382
0.0243092
0.0242355
0.0241617
0.0240887
0.0240171
0.0239476
0.0238808
0.023817
0.0237566
0.0236998
0.0236468
0.0235975
0.0235521
0.0235104
0.0234724
0.0234379
0.0234068
0.0233789
0.0233541
0.023332
0.0233127
0.0232958
0.0232816
0.0232692
0.0232595
0.0232512
0.023246
0.0232413
0.0232411
0.0232399
0.0232457
0.0232475
0.023261
0.023639
0.0236272
0.0236233
0.0236146
0.0236103
0.0236036
0.0235992
0.0235934
0.0235886
0.0235829
0.0235774
0.0235712
0.0235649
0.0235579
0.0235506
0.0235427
0.0235345
0.0235259
0.023517
0.0235077
0.0234982
0.0234886
0.0234788
0.023469
0.0234592
0.0234496
0.0234401
0.023431
0.0234222
0.0234139
0.0234062
0.0233992
0.0233929
0.0233876
0.0233833
0.0233801
0.0233782
0.0233777
0.0233788
0.0233815
0.023386
0.0233926
0.0234012
0.0234122
0.0234256
0.0234417
0.0234605
0.0234824
0.0235073
0.0235354
0.023567
0.023602
0.0236407
0.0236829
0.0237287
0.0237781
0.0238309
0.023887
0.0239461
0.0240079
0.024072
0.0241378
0.0242048
0.0242724
0.0243398
0.0244061
0.0244705
0.0245321
0.0245899
0.0246431
0.0246907
0.0247318
0.0247656
0.0247915
0.0248088
0.0248172
0.0248163
0.0248061
0.0247866
0.0247582
0.0247212
0.0246763
0.0246243
0.0245659
0.0245023
0.0244343
0.0243631
0.0242897
0.0242152
0.0241406
0.0240666
0.0239942
0.0239239
0.0238564
0.0237922
0.0237315
0.0236745
0.0236216
0.0235725
0.0235275
0.0234864
0.023449
0.0234152
0.0233849
0.0233578
0.0233338
0.0233125
0.0232941
0.0232779
0.0232644
0.0232526
0.0232435
0.0232356
0.0232309
0.0232265
0.0232266
0.0232256
0.0232317
0.0232336
0.0232474
0.0236451
0.0236313
0.023627
0.0236173
0.0236128
0.0236057
0.0236012
0.0235952
0.0235904
0.0235846
0.0235791
0.0235728
0.0235663
0.0235591
0.0235516
0.0235435
0.023535
0.0235259
0.0235166
0.0235068
0.0234967
0.0234864
0.023476
0.0234654
0.0234548
0.0234443
0.0234339
0.0234237
0.0234139
0.0234044
0.0233954
0.023387
0.0233794
0.0233725
0.0233665
0.0233615
0.0233577
0.0233551
0.0233539
0.0233543
0.0233563
0.0233601
0.0233659
0.0233738
0.0233841
0.0233968
0.0234121
0.0234303
0.0234514
0.0234757
0.0235034
0.0235344
0.0235691
0.0236074
0.0236495
0.0236952
0.0237446
0.0237976
0.0238539
0.0239133
0.0239755
0.02404
0.0241062
0.0241736
0.0242415
0.024309
0.0243753
0.0244394
0.0245005
0.0245575
0.0246094
0.0246553
0.0246943
0.0247256
0.0247484
0.0247623
0.0247668
0.0247617
0.0247469
0.0247228
0.0246895
0.0246478
0.0245983
0.0245418
0.0244795
0.0244123
0.0243414
0.0242679
0.024193
0.0241176
0.0240428
0.0239695
0.0238984
0.0238301
0.0237651
0.0237039
0.0236466
0.0235935
0.0235445
0.0234997
0.0234589
0.023422
0.0233889
0.0233593
0.0233329
0.0233097
0.0232893
0.0232717
0.0232562
0.0232434
0.0232323
0.0232238
0.0232164
0.0232122
0.0232082
0.0232087
0.0232079
0.0232143
0.0232163
0.0232304
0.0236499
0.0236342
0.0236295
0.0236187
0.0236141
0.0236065
0.023602
0.0235958
0.023591
0.0235851
0.0235795
0.023573
0.0235664
0.023559
0.0235512
0.0235427
0.0235338
0.0235242
0.0235143
0.0235039
0.0234932
0.0234822
0.023471
0.0234595
0.023448
0.0234365
0.023425
0.0234137
0.0234025
0.0233917
0.0233813
0.0233713
0.0233619
0.0233531
0.0233451
0.023338
0.0233318
0.0233267
0.0233228
0.0233201
0.0233189
0.0233193
0.0233214
0.0233253
0.0233313
0.0233394
0.02335
0.0233631
0.0233789
0.0233977
0.0234196
0.0234449
0.0234736
0.0235059
0.023542
0.0235819
0.0236257
0.0236733
0.0237246
0.0237796
0.0238379
0.0238992
0.0239631
0.024029
0.0240963
0.0241642
0.0242321
0.0242988
0.0243634
0.024425
0.0244825
0.0245347
0.0245808
0.0246196
0.0246505
0.0246726
0.0246853
0.0246883
0.0246814
0.0246645
0.024638
0.0246022
0.0245578
0.0245057
0.0244468
0.0243822
0.0243132
0.0242409
0.0241666
0.0240914
0.0240164
0.0239425
0.0238708
0.0238018
0.0237362
0.0236745
0.0236168
0.0235634
0.0235143
0.0234696
0.0234291
0.0233927
0.0233601
0.0233311
0.0233055
0.0232831
0.0232635
0.0232466
0.023232
0.0232199
0.0232094
0.0232016
0.0231947
0.0231909
0.0231873
0.0231881
0.0231874
0.0231941
0.0231962
0.0232103
0.0236531
0.0236353
0.0236303
0.0236185
0.0236137
0.0236056
0.0236011
0.0235947
0.0235898
0.0235837
0.023578
0.0235713
0.0235644
0.0235566
0.0235485
0.0235395
0.0235301
0.02352
0.0235095
0.0234984
0.0234869
0.023475
0.0234628
0.0234504
0.0234378
0.0234251
0.0234124
0.0233997
0.0233871
0.0233747
0.0233625
0.0233507
0.0233392
0.0233283
0.0233179
0.0233081
0.023299
0.0232907
0.0232833
0.0232769
0.0232716
0.0232674
0.0232646
0.0232632
0.0232634
0.0232654
0.0232694
0.0232754
0.0232838
0.0232947
0.0233084
0.0233251
0.023345
0.0233684
0.0233954
0.0234264
0.0234613
0.0235004
0.0235437
0.0235912
0.0236428
0.0236984
0.0237576
0.0238201
0.0238853
0.0239526
0.0240213
0.0240904
0.024159
0.0242261
0.0242906
0.0243511
0.0244067
0.0244562
0.0244984
0.0245325
0.0245575
0.0245728
0.0245779
0.0245727
0.0245571
0.0245314
0.0244961
0.0244519
0.0243998
0.0243407
0.0242761
0.024207
0.024135
0.0240612
0.023987
0.0239134
0.0238414
0.0237721
0.0237059
0.0236436
0.0235853
0.0235315
0.0234822
0.0234374
0.023397
0.0233608
0.0233287
0.0233002
0.0232753
0.0232535
0.0232346
0.0232185
0.0232046
0.0231932
0.0231834
0.0231761
0.0231698
0.0231665
0.0231632
0.0231643
0.0231638
0.0231706
0.0231728
0.0231869
0.0236542
0.0236344
0.0236291
0.0236162
0.0236114
0.0236028
0.0235982
0.0235915
0.0235866
0.0235802
0.0235744
0.0235673
0.0235602
0.023552
0.0235434
0.023534
0.023524
0.0235132
0.0235019
0.02349
0.0234777
0.0234649
0.0234517
0.0234381
0.0234243
0.0234103
0.0233962
0.0233819
0.0233677
0.0233534
0.0233393
0.0233253
0.0233114
0.0232978
0.0232845
0.0232715
0.0232588
0.0232465
0.0232347
0.0232234
0.0232127
0.0232027
0.0231933
0.0231848
0.0231772
0.0231707
0.0231655
0.0231616
0.0231594
0.0231591
0.0231609
0.0231651
0.0231721
0.0231822
0.0231958
0.0232132
0.0232347
0.0232607
0.0232914
0.0233271
0.023368
0.023414
0.023465
0.0235211
0.0235817
0.0236464
0.0237146
0.0237855
0.0238582
0.0239316
0.0240045
0.0240757
0.0241438
0.0242075
0.0242654
0.0243162
0.0243588
0.0243921
0.0244154
0.0244279
0.0244294
0.0244198
0.0243993
0.0243685
0.0243282
0.0242792
0.024223
0.0241608
0.024094
0.0240241
0.0239525
0.0238806
0.0238096
0.0237406
0.0236743
0.0236116
0.023553
0.0234988
0.0234491
0.0234041
0.0233636
0.0233275
0.0232955
0.0232675
0.023243
0.0232218
0.0232035
0.0231881
0.0231748
0.0231641
0.0231549
0.0231482
0.0231423
0.0231394
0.0231364
0.0231377
0.0231375
0.0231443
0.0231466
0.0231606
0.0236527
0.023631
0.0236254
0.0236114
0.0236065
0.0235974
0.0235928
0.0235858
0.0235808
0.0235742
0.0235681
0.0235607
0.0235532
0.0235446
0.0235354
0.0235254
0.0235147
0.0235032
0.0234911
0.0234783
0.023465
0.0234511
0.0234367
0.023422
0.0234068
0.0233913
0.0233756
0.0233596
0.0233435
0.0233271
0.0233107
0.0232941
0.0232774
0.0232605
0.0232436
0.0232266
0.0232094
0.0231921
0.0231746
0.023157
0.0231392
0.0231213
0.0231032
0.0230851
0.0230668
0.0230487
0.0230307
0.023013
0.0229959
0.0229796
0.0229645
0.022951
0.0229395
0.0229305
0.0229246
0.0229223
0.0229242
0.022931
0.0229432
0.0229614
0.0229859
0.0230173
0.0230557
0.0231012
0.0231538
0.0232132
0.023279
0.0233506
0.023427
0.0235074
0.0235904
0.0236747
0.0237587
0.023841
0.0239197
0.0239932
0.0240601
0.0241186
0.0241676
0.0242058
0.0242326
0.0242472
0.0242497
0.02424
0.0242187
0.0241866
0.0241449
0.0240948
0.0240379
0.0239757
0.02391
0.0238423
0.0237741
0.0237067
0.0236413
0.0235788
0.02352
0.0234654
0.0234154
0.0233699
0.0233291
0.0232929
0.0232609
0.023233
0.0232088
0.0231881
0.0231702
0.0231553
0.0231426
0.0231324
0.0231237
0.0231175
0.023112
0.0231095
0.0231068
0.0231083
0.0231082
0.0231151
0.0231174
0.0231312
0.0236483
0.0236247
0.0236187
0.0236038
0.0235987
0.0235892
0.0235845
0.0235773
0.0235721
0.0235652
0.0235588
0.023551
0.0235431
0.0235339
0.0235242
0.0235135
0.0235021
0.0234897
0.0234767
0.023463
0.0234486
0.0234335
0.0234179
0.0234018
0.0233851
0.023368
0.0233505
0.0233326
0.0233142
0.0232955
0.0232763
0.0232566
0.0232364
0.0232157
0.0231943
0.0231722
0.0231493
0.0231255
0.0231008
0.0230749
0.0230478
0.0230193
0.0229895
0.0229582
0.0229254
0.0228912
0.0228556
0.0228188
0.022781
0.0227426
0.0227039
0.0226655
0.0226281
0.0225923
0.022559
0.0225291
0.0225036
0.0224833
0.0224694
0.0224627
0.0224641
0.0224744
0.0224942
0.0225241
0.0225642
0.0226147
0.0226753
0.0227457
0.0228251
0.0229126
0.023007
0.0231068
0.0232102
0.0233156
0.0234209
0.0235239
0.0236227
0.0237151
0.0237992
0.0238731
0.0239355
0.0239851
0.024021
0.0240429
0.0240507
0.024045
0.0240265
0.0239965
0.0239565
0.0239081
0.0238533
0.0237938
0.0237317
0.0236684
0.0236057
0.0235447
0.0234865
0.023432
0.0233817
0.0233358
0.0232946
0.023258
0.0232258
0.0231978
0.0231736
0.023153
0.0231354
0.0231208
0.0231085
0.0230987
0.0230904
0.0230845
0.0230794
0.0230771
0.0230746
0.0230763
0.0230763
0.0230831
0.0230854
0.023099
0.0236404
0.0236149
0.0236087
0.0235928
0.0235877
0.0235777
0.0235729
0.0235654
0.02356
0.0235527
0.0235461
0.0235378
0.0235294
0.0235196
0.0235093
0.0234978
0.0234855
0.0234723
0.0234583
0.0234435
0.0234279
0.0234116
0.0233946
0.023377
0.0233587
0.0233398
0.0233203
0.0233001
0.0232792
0.0232576
0.0232351
0.0232117
0.0231873
0.0231617
0.0231348
0.0231063
0.0230761
0.0230439
0.0230096
0.0229727
0.0229332
0.0228908
0.0228451
0.0227961
0.0227437
0.0226876
0.0226281
0.0225651
0.0224991
0.0224304
0.0223596
0.0222874
0.0222148
0.0221428
0.0220725
0.0220055
0.0219429
0.0218864
0.0218373
0.0217972
0.0217674
0.0217492
0.0217436
0.0217517
0.0217741
0.0218113
0.0218632
0.0219299
0.0220108
0.022105
0.0222115
0.0223286
0.0224547
0.0225877
0.0227252
0.0228648
0.0230037
0.0231394
0.0232691
0.0233903
0.0235006
0.0235979
0.0236805
0.0237472
0.0237973
0.0238305
0.0238472
0.0238483
0.0238352
0.0238094
0.023773
0.0237282
0.0236772
0.0236222
0.0235651
0.0235078
0.0234518
0.0233983
0.0233482
0.0233021
0.0232604
0.0232233
0.0231905
0.0231621
0.0231376
0.0231169
0.0230993
0.0230848
0.0230726
0.023063
0.0230549
0.0230493
0.0230443
0.0230422
0.0230399
0.0230416
0.0230416
0.0230484
0.0230507
0.0230641
0.0236287
0.0236014
0.0235949
0.0235781
0.0235728
0.0235624
0.0235576
0.0235497
0.0235441
0.0235365
0.0235294
0.0235207
0.0235117
0.0235013
0.0234902
0.0234779
0.0234648
0.0234505
0.0234355
0.0234195
0.0234027
0.023385
0.0233665
0.0233472
0.0233271
0.0233062
0.0232844
0.0232616
0.0232377
0.0232127
0.0231863
0.0231584
0.0231288
0.0230971
0.0230631
0.0230265
0.0229868
0.0229438
0.0228968
0.0228456
0.0227896
0.0227285
0.0226617
0.022589
0.0225101
0.0224248
0.0223331
0.0222353
0.0221316
0.0220226
0.0219093
0.0217925
0.0216737
0.0215543
0.0214361
0.0213209
0.0212107
0.0211075
0.0210135
0.0209307
0.020861
0.0208062
0.020768
0.0207478
0.0207467
0.0207655
0.0208047
0.0208645
0.0209445
0.0210443
0.0211626
0.0212981
0.021449
0.0216131
0.0217877
0.0219701
0.0221571
0.0223453
0.0225314
0.0227119
0.0228835
0.0230429
0.0231875
0.0233149
0.0234231
0.0235112
0.0235786
0.0236255
0.0236527
0.0236618
0.0236548
0.023634
0.023602
0.0235615
0.0235151
0.0234652
0.0234141
0.0233634
0.0233147
0.0232691
0.0232272
0.0231894
0.023156
0.0231269
0.0231018
0.0230805
0.0230626
0.0230478
0.0230355
0.0230259
0.0230178
0.0230121
0.0230072
0.0230051
0.0230028
0.0230044
0.0230044
0.0230111
0.0230133
0.0230264
0.0236127
0.0235835
0.0235768
0.0235591
0.0235537
0.0235428
0.0235379
0.0235297
0.0235239
0.0235159
0.0235084
0.0234991
0.0234895
0.0234784
0.0234665
0.0234533
0.0234392
0.023424
0.0234078
0.0233905
0.0233724
0.0233532
0.0233331
0.023312
0.0232899
0.0232666
0.0232421
0.0232163
0.023189
0.0231598
0.0231287
0.0230952
0.023059
0.0230196
0.0229767
0.0229296
0.0228777
0.0228204
0.022757
0.0226868
0.0226092
0.0225233
0.0224286
0.0223245
0.0222107
0.0220869
0.0219532
0.0218097
0.0216571
0.0214962
0.0213283
0.0211548
0.0209775
0.0207987
0.0206206
0.0204459
0.0202771
0.0201169
0.0199682
0.0198336
0.0197156
0.0196167
0.0195388
0.019484
0.0194538
0.0194493
0.0194714
0.0195206
0.019597
0.0197
0.0198289
0.0199824
0.0201587
0.0203556
0.0205704
0.0208
0.021041
0.0212895
0.0215415
0.0217925
0.0220382
0.0222744
0.022497
0.0227021
0.0228867
0.0230483
0.0231849
0.0232958
0.0233809
0.0234412
0.0234783
0.0234946
0.0234928
0.0234762
0.0234481
0.0234116
0.0233698
0.0233252
0.0232801
0.0232362
0.0231948
0.0231568
0.0231226
0.0230925
0.0230665
0.0230443
0.0230256
0.0230103
0.0229975
0.0229874
0.0229791
0.0229732
0.0229681
0.0229658
0.0229633
0.0229648
0.0229647
0.0229711
0.0229732
0.0229861
0.0235919
0.023561
0.023554
0.0235354
0.02353
0.0235187
0.0235136
0.023505
0.023499
0.0234905
0.0234826
0.0234727
0.0234624
0.0234505
0.0234378
0.0234237
0.0234086
0.0233922
0.0233748
0.0233562
0.0233366
0.0233158
0.0232939
0.0232707
0.0232463
0.0232204
0.0231929
0.0231634
0.0231318
0.0230977
0.0230607
0.0230203
0.0229758
0.0229267
0.0228723
0.0228117
0.0227439
0.0226682
0.0225833
0.0224884
0.0223824
0.0222642
0.0221332
0.0219884
0.0218295
0.0216562
0.0214686
0.0212672
0.021053
0.0208273
0.0205918
0.0203486
0.0201005
0.0198501
0.0196007
0.0193556
0.0191181
0.0188917
0.0186799
0.0184858
0.0183126
0.0181632
0.01804
0.0179455
0.0178814
0.0178494
0.0178505
0.0178855
0.0179548
0.0180582
0.018195
0.0183644
0.0185645
0.0187935
0.0190488
0.0193271
0.0196249
0.0199382
0.0202621
0.020592
0.0209224
0.0212479
0.0215632
0.021863
0.0221424
0.0223973
0.022624
0.0228201
0.0229842
0.0231159
0.0232162
0.0232869
0.0233309
0.0233515
0.0233527
0.0233385
0.0233129
0.0232796
0.0232417
0.0232021
0.0231627
0.0231252
0.0230906
0.0230596
0.0230323
0.0230089
0.022989
0.0229726
0.0229589
0.0229481
0.0229391
0.0229327
0.0229272
0.0229245
0.0229217
0.0229228
0.0229225
0.0229286
0.0229305
0.0229432
0.0235659
0.0235332
0.023526
0.0235066
0.0235011
0.0234893
0.0234842
0.0234752
0.0234689
0.0234599
0.0234515
0.0234409
0.02343
0.0234172
0.0234036
0.0233885
0.0233723
0.0233547
0.023336
0.023316
0.0232948
0.0232722
0.0232483
0.0232229
0.0231958
0.0231668
0.0231356
0.0231018
0.0230651
0.0230249
0.0229805
0.0229314
0.0228765
0.022815
0.0227459
0.0226679
0.0225797
0.0224801
0.0223675
0.0222407
0.0220981
0.0219385
0.0217609
0.0215644
0.0213485
0.0211131
0.0208587
0.0205862
0.0202969
0.0199931
0.0196771
0.019352
0.0190213
0.0186887
0.0183582
0.018034
0.0177201
0.0174208
0.0171401
0.0168816
0.0166489
0.0164453
0.0162737
0.0161364
0.0160357
0.0159733
0.0159506
0.0159684
0.0160274
0.0161277
0.0162689
0.0164503
0.0166706
0.0169281
0.0172206
0.017545
0.0178981
0.0182757
0.0186731
0.019085
0.0195056
0.0199287
0.0203475
0.0207556
0.0211462
0.0215131
0.0218508
0.0221545
0.0224208
0.0226476
0.022834
0.022981
0.0230906
0.0231663
0.0232122
0.0232331
0.023234
0.0232198
0.0231951
0.0231638
0.0231292
0.023094
0.0230598
0.0230282
0.0229996
0.0229747
0.0229532
0.0229353
0.0229202
0.0229082
0.0228982
0.0228909
0.0228846
0.0228812
0.0228778
0.0228785
0.0228777
0.0228835
0.0228852
0.0228975
0.0235342
0.0234999
0.0234925
0.0234722
0.0234667
0.0234544
0.0234492
0.0234398
0.0234331
0.0234236
0.0234146
0.0234034
0.0233917
0.0233781
0.0233635
0.0233473
0.0233299
0.0233111
0.023291
0.0232694
0.0232464
0.0232219
0.0231957
0.0231677
0.0231375
0.0231048
0.0230693
0.0230303
0.0229873
0.0229395
0.022886
0.0228258
0.0227578
0.0226805
0.0225926
0.0224924
0.0223782
0.022248
0.0221001
0.0219325
0.0217436
0.0215319
0.021296
0.0210353
0.0207494
0.0204385
0.0201037
0.0197465
0.0193692
0.0189749
0.018567
0.0181496
0.0177272
0.0173046
0.0168865
0.0164779
0.0160838
0.0157087
0.0153571
0.0150331
0.0147405
0.0144825
0.0142623
0.0140823
0.0139447
0.0138513
0.0138035
0.0138023
0.0138484
0.0139421
0.0140835
0.014272
0.0145068
0.0147866
0.0151097
0.0154736
0.0158754
0.0163115
0.0167775
0.0172682
0.0177778
0.0182996
0.0188262
0.0193499
0.0198626
0.0203561
0.0208225
0.0212546
0.0216464
0.0219929
0.0222912
0.0225398
0.0227396
0.0228929
0.0230037
0.0230771
0.023119
0.0231357
0.023133
0.0231166
0.0230914
0.0230613
0.0230294
0.022998
0.0229685
0.022942
0.0229186
0.0228987
0.0228817
0.022868
0.0228565
0.0228479
0.0228404
0.0228361
0.0228318
0.0228317
0.0228304
0.0228357
0.0228371
0.0228492
0.0234963
0.0234604
0.0234528
0.0234318
0.0234262
0.0234135
0.023408
0.0233982
0.0233912
0.0233811
0.0233716
0.0233596
0.0233471
0.0233325
0.023317
0.0232996
0.023281
0.0232608
0.0232392
0.0232159
0.023191
0.0231642
0.0231355
0.0231044
0.0230705
0.0230335
0.0229927
0.0229473
0.0228965
0.0228392
0.0227743
0.0227003
0.0226157
0.0225185
0.0224068
0.0222784
0.0221311
0.0219624
0.0217699
0.0215515
0.0213052
0.0210291
0.0207222
0.020384
0.0200145
0.0196147
0.0191864
0.0187322
0.0182557
0.0177608
0.0172525
0.016736
0.0162167
0.0157003
0.0151928
0.0146995
0.0142258
0.0137768
0.0133572
0.012971
0.012622
0.0123135
0.0120482
0.0118287
0.0116568
0.0115342
0.0114622
0.0114417
0.0114735
0.0115581
0.0116955
0.0118856
0.0121281
0.0124222
0.0127666
0.0131599
0.0135996
0.0140831
0.0146067
0.0151659
0.0157553
0.0163687
0.0169985
0.0176365
0.0182737
0.0189004
0.0195066
0.0200826
0.0206193
0.0211087
0.0215443
0.0219218
0.0222393
0.022497
0.0226978
0.0228462
0.0229486
0.0230121
0.0230444
0.0230527
0.023044
0.023024
0.0229975
0.0229682
0.0229386
0.0229107
0.0228852
0.022863
0.0228437
0.0228278
0.0228142
0.0228038
0.0227948
0.022789
0.0227837
0.0227826
0.0227805
0.0227852
0.0227862
0.0227981
0.0234519
0.0234144
0.0234067
0.0233849
0.0233792
0.0233661
0.0233604
0.0233502
0.0233428
0.023332
0.0233219
0.0233091
0.0232957
0.0232802
0.0232635
0.0232449
0.023225
0.0232033
0.02318
0.0231548
0.0231278
0.0230985
0.0230668
0.023032
0.0229939
0.0229516
0.0229043
0.022851
0.0227906
0.0227217
0.0226424
0.0225511
0.0224455
0.0223233
0.0221817
0.022018
0.0218294
0.0216128
0.0213654
0.0210847
0.0207685
0.0204152
0.020024
0.0195949
0.0191288
0.0186278
0.0180948
0.017534
0.01695
0.0163485
0.0157356
0.0151176
0.0145012
0.013893
0.0132992
0.0127259
0.0121787
0.0116627
0.0111823
0.0107415
0.0103438
0.00999203
0.00968865
0.00943566
0.00923468
0.009087
0.00899367
0.00895548
0.00897305
0.00904681
0.00917704
0.00936388
0.00960727
0.00990697
0.0102625
0.0106729
0.011137
0.011653
0.0122183
0.0128296
0.0134827
0.0141722
0.0148914
0.0156324
0.0163861
0.0171421
0.0178891
0.0186152
0.0193086
0.0199577
0.0205525
0.0210844
0.0215476
0.021939
0.0222586
0.0225094
0.0226969
0.0228288
0.0229136
0.0229607
0.022979
0.0229767
0.0229607
0.0229367
0.022909
0.0228805
0.0228532
0.0228284
0.0228063
0.0227876
0.0227715
0.0227587
0.0227477
0.0227401
0.0227333
0.0227309
0.0227278
0.0227317
0.0227323
0.0227439
0.0234004
0.0233615
0.0233536
0.0233311
0.0233253
0.0233117
0.0233058
0.0232951
0.0232873
0.0232759
0.023265
0.0232514
0.0232371
0.0232205
0.0232027
0.0231828
0.0231614
0.0231381
0.0231129
0.0230857
0.0230561
0.0230239
0.0229886
0.0229497
0.0229063
0.0228576
0.0228024
0.0227395
0.0226672
0.0225836
0.0224866
0.0223737
0.022242
0.0220885
0.0219099
0.0217026
0.0214632
0.0211881
0.0208742
0.0205189
0.02012
0.0196764
0.019188
0.0186557
0.0180819
0.0174699
0.0168243
0.0161508
0.0154558
0.0147464
0.0140299
0.0133139
0.0126058
0.0119127
0.0112414
0.0105978
0.00998759
0.00941541