/*--------------------------------*- C++ -*----------------------------------*\
| =========                 |                                                 |
| \\      /  F ield         | OpenFOAM: The Open Source CFD Toolbox           |
|  \\    /   O peration     | Version:  2406                                  |
|   \\  /    A nd           | Website:  www.openfoam.com                      |
|    \\/     M anipulation  |                                                 |
\*---------------------------------------------------------------------------*/
FoamFile
{
    version     2.0;
    format      ascii;
    arch        "LSB;label=32;scalar=64";
    class       surfaceScalarField;
    location    "21.2";
    object      phi;
}
// * * * * * * * * * * * * * * * * * * * * * * * * * * * * * * * * * * * * * //

dimensions      [0 3 -1 0 0 0 0];

oriented        oriented;

internalField   nonuniform List<scalar> 
28560
(
6.53002e-09
-6.53075e-09
3.71598e-08
-3.15895e-08
8.41278e-08
-4.70134e-08
1.38129e-07
-5.48676e-08
1.93705e-07
-5.58964e-08
2.46623e-07
-5.36485e-08
2.95502e-07
-4.92695e-08
3.39215e-07
-4.42695e-08
3.77911e-07
-3.9041e-08
4.11562e-07
-3.40461e-08
4.40587e-07
-2.92846e-08
4.65117e-07
-2.47854e-08
4.85361e-07
-2.04036e-08
5.01261e-07
-1.60263e-08
5.12706e-07
-1.14924e-08
5.19389e-07
-6.67599e-09
5.20926e-07
-1.45152e-09
5.16808e-07
4.27707e-09
5.06462e-07
1.05948e-08
4.89233e-07
1.757e-08
4.64415e-07
2.52659e-08
4.31234e-07
3.37432e-08
3.88857e-07
4.3068e-08
3.36373e-07
5.33147e-08
2.72788e-07
6.45702e-08
1.97007e-07
7.69343e-08
1.07828e-07
9.0519e-08
3.92434e-09
1.05446e-07
-1.16154e-07
1.21843e-07
-2.53983e-07
1.39835e-07
-4.11253e-07
1.5954e-07
-5.8976e-07
1.81062e-07
-7.91374e-07
2.04476e-07
-1.01801e-06
2.29829e-07
-1.27159e-06
2.57125e-07
-1.554e-06
2.86317e-07
-1.86699e-06
3.17303e-07
-2.2122e-06
3.49916e-07
-2.59099e-06
3.83916e-07
-3.00442e-06
4.18986e-07
-3.45318e-06
4.54729e-07
-3.93744e-06
4.90661e-07
-4.45685e-06
5.26211e-07
-5.01039e-06
5.60724e-07
-5.59632e-06
5.93465e-07
-6.21209e-06
6.23623e-07
-6.85431e-06
6.50329e-07
-7.51867e-06
6.7266e-07
-8.1999e-06
6.89667e-07
-8.89182e-06
7.00386e-07
-9.58727e-06
7.03869e-07
-1.02782e-05
6.99205e-07
-1.09558e-05
6.85548e-07
-1.16103e-05
6.62142e-07
-1.22316e-05
6.28357e-07
-1.28088e-05
5.83708e-07
-1.3331e-05
5.27889e-07
-1.37869e-05
4.60795e-07
-1.41656e-05
3.82549e-07
-1.44564e-05
2.93519e-07
-1.46492e-05
1.94341e-07
-1.47349e-05
8.59227e-08
-1.47055e-05
-3.05397e-08
-1.45545e-05
-1.53568e-07
-1.4277e-05
-2.81407e-07
-1.38704e-05
-4.12043e-07
-1.33341e-05
-5.43229e-07
-1.26698e-05
-6.72528e-07
-1.18821e-05
-7.97356e-07
-1.09779e-05
-9.15054e-07
-9.96688e-06
-1.02295e-06
-8.86139e-06
-1.11846e-06
-7.67605e-06
-1.19914e-06
-6.42765e-06
-1.26285e-06
-5.13481e-06
-1.30776e-06
-3.81748e-06
-1.3325e-06
-2.49647e-06
-1.33623e-06
-1.19284e-06
-1.31867e-06
7.26591e-08
-1.28016e-06
1.28026e-06
-1.22167e-06
2.41177e-06
-1.14479e-06
3.45109e-06
-1.05166e-06
4.38474e-06
-9.44892e-07
5.20222e-06
-8.27495e-07
5.89625e-06
-7.02721e-07
6.46287e-06
-5.73939e-07
6.90145e-06
-4.44488e-07
7.21448e-06
-3.17542e-07
7.40732e-06
-1.95982e-07
7.48777e-06
-8.22963e-08
7.46565e-06
2.14952e-08
7.35225e-06
1.13888e-07
7.15981e-06
1.93906e-07
6.90105e-06
2.61086e-07
6.58865e-06
3.15439e-07
6.23488e-06
3.57382e-07
5.85128e-06
3.87677e-07
5.44833e-06
4.07338e-07
5.03538e-06
4.17563e-07
4.62045e-06
4.19642e-07
4.21028e-06
4.14916e-07
3.81028e-06
4.04685e-07
3.42466e-06
3.90221e-07
3.05642e-06
3.7266e-07
2.7076e-06
3.53093e-07
2.37922e-06
3.32397e-07
2.07164e-06
3.11437e-07
1.78442e-06
2.90757e-07
1.5169e-06
2.70966e-07
1.26783e-06
2.52124e-07
1.03638e-06
2.34503e-07
8.21564e-07
2.17365e-07
6.23734e-07
2.00531e-07
4.43743e-07
1.81948e-07
2.84984e-07
1.61074e-07
1.52181e-07
1.33991e-07
5.27415e-08
1.01231e-07
-5.06359e-09
5.81125e-08
-1.91011e-08
1.5196e-08
-1.91255e-08
3.17969e-08
-3.73667e-08
1.06622e-07
-1.06412e-07
2.09602e-07
-1.48536e-07
3.2443e-07
-1.69084e-07
4.4172e-07
-1.71831e-07
5.53023e-07
-1.64117e-07
6.54807e-07
-1.49933e-07
7.44248e-07
-1.32933e-07
8.20923e-07
-1.14869e-07
8.84417e-07
-9.69248e-08
9.35139e-07
-7.94138e-08
9.73108e-07
-6.23292e-08
9.98406e-07
-4.53432e-08
1.01063e-06
-2.80248e-08
1.00914e-06
-9.88446e-09
9.92905e-07
9.55254e-09
9.60602e-07
3.07191e-08
9.10599e-07
5.39974e-08
8.4104e-07
7.97151e-08
7.4983e-07
1.08163e-07
6.34683e-07
1.39605e-07
4.93102e-07
1.743e-07
3.22398e-07
2.12514e-07
1.19657e-07
2.54537e-07
-1.18262e-07
3.00687e-07
-3.94755e-07
3.51313e-07
-7.13483e-07
4.06789e-07
-1.07838e-06
4.67505e-07
-1.49362e-06
5.33845e-07
-1.96364e-06
6.06166e-07
-2.49305e-06
6.84771e-07
-3.08658e-06
7.69881e-07
-3.74898e-06
8.61599e-07
-4.48493e-06
9.59883e-07
-5.29886e-06
1.06451e-06
-6.19484e-06
1.17506e-06
-7.17637e-06
1.29087e-06
-8.24619e-06
1.41103e-06
-9.40612e-06
1.53435e-06
-1.06568e-05
1.65936e-06
-1.19974e-05
1.7843e-06
-1.34257e-05
1.90712e-06
-1.49376e-05
2.0255e-06
-1.65271e-05
2.13687e-06
-1.81861e-05
2.23845e-06
-1.99043e-05
2.32728e-06
-2.16694e-05
2.40031e-06
-2.34666e-05
2.45444e-06
-2.52792e-05
2.48659e-06
-2.70883e-05
2.49382e-06
-2.88735e-05
2.47338e-06
-3.06125e-05
2.42281e-06
-3.22818e-05
2.34e-06
-3.38571e-05
2.22332e-06
-3.53136e-05
2.07163e-06
-3.66264e-05
1.88439e-06
-3.77708e-05
1.66167e-06
-3.87233e-05
1.40425e-06
-3.94615e-05
1.11359e-06
-3.9965e-05
7.91877e-07
-4.02155e-05
4.4205e-07
-4.01978e-05
6.77616e-08
-3.98996e-05
-3.26624e-07
-3.93124e-05
-7.36068e-07
-3.84314e-05
-1.15491e-06
-3.72563e-05
-1.57694e-06
-3.57912e-05
-1.99546e-06
-3.40448e-05
-2.40345e-06
-3.20305e-05
-2.79363e-06
-2.97665e-05
-3.15868e-06
-2.72756e-05
-3.49135e-06
-2.4585e-05
-3.7847e-06
-2.1726e-05
-4.03229e-06
-1.87333e-05
-4.2284e-06
-1.56448e-05
-4.36822e-06
-1.25007e-05
-4.44808e-06
-9.34277e-06
-4.46564e-06
-6.21321e-06
-4.42e-06
-3.15405e-06
-4.31183e-06
-2.05919e-07
-4.14343e-06
2.59288e-06
-3.9187e-06
5.20738e-06
-3.64306e-06
7.60681e-06
-3.32331e-06
9.76543e-06
-2.9674e-06
1.16631e-05
-2.58417e-06
1.32858e-05
-2.18299e-06
1.46258e-05
-1.77348e-06
1.56817e-05
-1.36506e-06
1.64582e-05
-9.66682e-07
1.69657e-05
-5.86449e-07
1.72197e-05
-2.31382e-07
1.72398e-05
9.27949e-08
1.70492e-05
3.81788e-07
1.66731e-05
6.32777e-07
1.61384e-05
8.44398e-07
1.54724e-05
1.01664e-06
1.47017e-05
1.15068e-06
1.38521e-05
1.24874e-06
1.29473e-05
1.31379e-06
1.20087e-05
1.34939e-06
1.10553e-05
1.35945e-06
1.01032e-05
1.348e-06
9.1658e-06
1.31913e-06
8.2535e-06
1.27667e-06
7.37439e-06
1.22431e-06
6.53394e-06
1.16528e-06
5.73574e-06
1.10256e-06
4.9814e-06
1.03834e-06
4.27155e-06
9.74625e-07
3.60558e-06
9.12129e-07
2.98334e-06
8.51439e-07
2.40448e-06
7.90984e-07
1.87111e-06
7.2954e-07
1.38633e-06
6.62225e-07
9.57817e-07
5.86406e-07
5.94584e-07
4.93614e-07
3.1011e-07
3.84094e-07
1.15399e-07
2.5032e-07
1.59247e-08
1.14743e-07
-4.35001e-09
4.75194e-08
-8.48491e-08
1.49066e-07
-2.09413e-07
2.83471e-07
-2.82953e-07
4.29061e-07
-3.1594e-07
5.74821e-07
-3.18096e-07
7.10178e-07
-3.00515e-07
8.30661e-07
-2.71027e-07
9.325e-07
-2.35576e-07
1.01484e-06
-1.97751e-07
1.07685e-06
-1.59527e-07
1.11868e-06
-1.21657e-07
1.13998e-06
-8.40196e-08
1.1404e-06
-4.60243e-08
1.11892e-06
-6.75087e-09
1.07416e-06
3.47828e-08
1.0041e-06
7.9594e-08
9.06322e-07
1.28601e-07
7.77875e-07
1.82652e-07
6.15443e-07
2.42483e-07
4.15311e-07
3.08766e-07
1.73426e-07
3.82116e-07
-1.14618e-07
4.63135e-07
-4.53556e-07
5.52429e-07
-8.4848e-07
6.5064e-07
-1.30484e-06
7.58446e-07
-1.82844e-06
8.76563e-07
-2.42546e-06
1.00573e-06
-3.10242e-06
1.14668e-06
-3.86612e-06
1.30008e-06
-4.72358e-06
1.46651e-06
-5.68192e-06
1.64638e-06
-6.74822e-06
1.83987e-06
-7.92934e-06
2.04685e-06
-9.23167e-06
2.26683e-06
-1.06609e-05
2.49889e-06
-1.22218e-05
2.74161e-06
-1.39177e-05
2.99306e-06
-1.57506e-05
3.2507e-06
-1.77202e-05
3.51143e-06
-1.98243e-05
3.77154e-06
-2.2058e-05
4.02676e-06
-2.44138e-05
4.27225e-06
-2.68812e-05
4.50273e-06
-2.94463e-05
4.71252e-06
-3.20925e-05
4.89567e-06
-3.47999e-05
5.04609e-06
-3.75454e-05
5.15769e-06
-4.03034e-05
5.22459e-06
-4.30457e-05
5.24122e-06
-4.5742e-05
5.20251e-06
-4.83604e-05
5.10408e-06
-5.08679e-05
4.94234e-06
-5.32309e-05
4.71463e-06
-5.54158e-05
4.41935e-06
-5.73898e-05
4.05598e-06
-5.91212e-05
3.62518e-06
-6.05801e-05
3.12881e-06
-6.17388e-05
2.56994e-06
-6.25725e-05
1.95283e-06
-6.30596e-05
1.28294e-06
-6.31823e-05
5.6682e-07
-6.29264e-05
-1.8786e-07
-6.22824e-05
-9.72437e-07
-6.1245e-05
-1.77731e-06
-5.98138e-05
-2.59205e-06
-5.79934e-05
-3.4055e-06
-5.57931e-05
-4.20594e-06
-5.32276e-05
-4.98123e-06
-5.03165e-05
-5.71901e-06
-4.70843e-05
-6.4069e-06
-4.35606e-05
-7.0328e-06
-3.97794e-05
-7.58511e-06
-3.5779e-05
-8.05309e-06
-3.16017e-05
-8.42712e-06
-2.72929e-05
-8.69906e-06
-2.29009e-05
-8.86254e-06
-1.84757e-05
-8.91327e-06
-1.40686e-05
-8.8493e-06
-9.73087e-06
-8.67115e-06
-5.513e-06
-8.38202e-06
-1.46352e-06
-7.98773e-06
2.37199e-06
-7.49671e-06
5.95197e-06
-6.91979e-06
9.23983e-06
-6.26995e-06
1.22048e-05
-5.56187e-06
1.48226e-05
-4.81157e-06
1.70763e-05
-4.03576e-06
1.8956e-05
-3.25137e-06
2.04596e-05
-2.4749e-06
2.15924e-05
-1.72185e-06
2.23664e-05
-1.00628e-06
2.28001e-05
-3.40262e-07
2.29177e-05
2.66373e-07
2.27476e-05
8.06291e-07
2.23217e-05
1.27474e-06
2.16742e-05
1.66952e-06
2.084e-05
1.99082e-06
1.98542e-05
2.24096e-06
1.87507e-05
2.42409e-06
1.75613e-05
2.54576e-06
1.63151e-05
2.61261e-06
1.50381e-05
2.6319e-06
1.37527e-05
2.61122e-06
1.24778e-05
2.55811e-06
1.12285e-05
2.47989e-06
1.00164e-05
2.38324e-06
8.85033e-06
2.27432e-06
7.73585e-06
2.15803e-06
6.67698e-06
2.03854e-06
5.67565e-06
1.91795e-06
4.73406e-06
1.79749e-06
3.85371e-06
1.67507e-06
3.039e-06
1.54819e-06
2.29489e-06
1.40916e-06
1.63216e-06
1.25256e-06
1.06164e-06
1.06572e-06
6.01263e-07
8.47365e-07
2.63316e-07
5.88152e-07
6.34858e-08
3.17153e-07
5.87111e-08
5.54475e-08
-1.39436e-07
1.68652e-07
-3.23196e-07
3.13578e-07
-4.26628e-07
4.65478e-07
-4.67811e-07
6.12834e-07
-4.64535e-07
7.44422e-07
-4.31785e-07
8.55639e-07
-3.81551e-07
9.42343e-07
-3.21908e-07
1.00341e-06
-2.58312e-07
1.03762e-06
-1.9341e-07
1.04464e-06
-1.28336e-07
1.02357e-06
-6.27182e-08
9.7334e-07
4.41926e-09
8.92067e-07
7.46431e-08
7.77341e-07
1.49583e-07
6.25963e-07
2.30965e-07
4.34139e-07
3.20352e-07
1.97409e-07
4.19222e-07
-8.92254e-08
5.28871e-07
-4.31312e-07
6.50506e-07
-8.34885e-07
7.85234e-07
-1.30647e-06
9.3414e-07
-1.85304e-06
1.0983e-06
-2.48206e-06
1.27881e-06
-3.20143e-06
1.47681e-06
-4.0195e-06
1.69344e-06
-4.94497e-06
1.92982e-06
-5.9869e-06
2.18701e-06
-7.15453e-06
2.46588e-06
-8.45713e-06
2.76703e-06
-9.90383e-06
3.09073e-06
-1.15033e-05
3.43672e-06
-1.32636e-05
3.80415e-06
-1.51916e-05
4.19147e-06
-1.72927e-05
4.5963e-06
-1.95705e-05
5.01535e-06
-2.20263e-05
5.44441e-06
-2.46588e-05
5.87827e-06
-2.74635e-05
6.31075e-06
-3.04325e-05
6.73475e-06
-3.35543e-05
7.1423e-06
-3.68134e-05
7.52475e-06
-4.01907e-05
7.87288e-06
-4.36628e-05
8.17716e-06
-4.72029e-05
8.42794e-06
-5.07807e-05
8.61575e-06
-5.4363e-05
8.73155e-06
-5.7914e-05
8.767e-06
-6.13963e-05
8.71472e-06
-6.4771e-05
8.56851e-06
-6.79991e-05
8.3235e-06
-7.10416e-05
7.97636e-06
-7.38604e-05
7.52537e-06
-7.64193e-05
6.97044e-06
-7.86836e-05
6.31319e-06
-8.06218e-05
5.55688e-06
-8.22051e-05
4.70641e-06
-8.34081e-05
3.76819e-06
-8.42091e-05
2.75013e-06
-8.45902e-05
1.66153e-06
-8.45376e-05
5.1298e-07
-8.40417e-05
-6.83727e-07
-8.3097e-05
-1.91568e-06
-8.17025e-05
-3.16894e-06
-7.98615e-05
-4.42868e-06
-7.75818e-05
-5.6793e-06
-7.48759e-05
-6.90454e-06
-7.17607e-05
-8.08774e-06
-6.82577e-05
-9.21195e-06
-6.43931e-05
-1.02603e-05
-6.01974e-05
-1.12161e-05
-5.57057e-05
-1.20634e-05
-5.09572e-05
-1.27874e-05
-4.59951e-05
-1.33745e-05
-4.08658e-05
-1.3813e-05
-3.56193e-05
-1.40936e-05
-3.03076e-05
-1.42095e-05
-2.49846e-05
-1.4157e-05
-1.9705e-05
-1.39359e-05
-1.45235e-05
-1.35492e-05
-9.49386e-06
-1.30038e-05
-4.66776e-06
-1.23103e-05
-9.37482e-08
-1.14824e-05
4.18375e-06
-1.05372e-05
8.1254e-06
-9.49463e-06
1.16978e-05
-8.37651e-06
1.48745e-05
-7.20631e-06
1.7636e-05
-6.00823e-06
1.99709e-05
-4.80646e-06
2.18754e-05
-3.62439e-06
2.33537e-05
-2.48387e-06
2.44176e-05
-1.40451e-06
2.50857e-05
-4.03128e-07
2.53829e-05
5.06722e-07
2.53396e-05
1.31502e-06
2.49901e-05
2.01542e-06
2.43716e-05
2.60517e-06
2.35231e-05
3.08495e-06
2.2484e-05
3.4585e-06
2.12927e-05
3.73214e-06
1.99861e-05
3.91432e-06
1.85982e-05
4.01496e-06
1.71597e-05
4.04499e-06
1.56974e-05
4.01573e-06
1.42344e-05
3.93852e-06
1.27893e-05
3.82406e-06
1.13774e-05
3.68236e-06
1.00098e-05
3.52176e-06
8.69558e-06
3.34933e-06
7.44082e-06
3.16927e-06
6.25142e-06
2.98405e-06
5.13175e-06
2.79165e-06
4.08913e-06
2.58862e-06
3.13033e-06
2.36513e-06
2.26873e-06
2.11291e-06
1.51596e-06
1.81578e-06
8.93935e-07
1.46951e-06
4.1681e-07
1.06228e-06
1.14023e-07
6.21843e-07
1.70854e-07
5.57269e-08
-1.9488e-07
1.6723e-07
-4.36003e-07
3.05702e-07
-5.64669e-07
4.44888e-07
-6.07888e-07
5.73065e-07
-5.92757e-07
6.79104e-07
-5.38449e-07
7.58668e-07
-4.61329e-07
8.07713e-07
-3.71402e-07
8.25037e-07
-2.7587e-07
8.09115e-07
-1.77802e-07
7.59118e-07
-7.85305e-08
6.73405e-07
2.27918e-08
5.49991e-07
1.2771e-07
3.85895e-07
2.38637e-07
1.77416e-07
3.58023e-07
-8.01007e-08
4.88482e-07
-3.92072e-07
6.32385e-07
-7.64734e-07
7.92e-07
-1.20502e-06
9.69337e-07
-1.72054e-06
1.16628e-06
-2.31955e-06
1.38458e-06
-3.0109e-06
1.62591e-06
-3.80401e-06
1.89193e-06
-4.70887e-06
2.18429e-06
-5.73594e-06
2.50461e-06
-6.89611e-06
2.85448e-06
-8.2006e-06
3.23533e-06
-9.6608e-06
3.64837e-06
-1.1288e-05
4.09444e-06
-1.30933e-05
4.57384e-06
-1.50871e-05
5.08617e-06
-1.72786e-05
5.63014e-06
-1.96756e-05
6.20342e-06
-2.22842e-05
6.80248e-06
-2.51077e-05
7.42245e-06
-2.81465e-05
8.05709e-06
-3.13975e-05
8.6987e-06
-3.48538e-05
9.33816e-06
-3.85042e-05
9.96504e-06
-4.2333e-05
1.05678e-05
-4.63199e-05
1.11337e-05
-5.04401e-05
1.16498e-05
-5.46645e-05
1.21024e-05
-5.896e-05
1.2478e-05
-6.329e-05
1.27636e-05
-6.76153e-05
1.29469e-05
-7.18946e-05
1.30169e-05
-7.60855e-05
1.2964e-05
-8.0145e-05
1.27805e-05
-8.40309e-05
1.24606e-05
-8.77019e-05
1.20006e-05
-9.11185e-05
1.1399e-05
-9.42439e-05
1.06565e-05
-9.70439e-05
9.7758e-06
-9.94873e-05
8.76163e-06
-0.000101547
7.62062e-06
-0.000103197
6.36114e-06
-0.000104419
4.99316e-06
-0.000105195
3.52814e-06
-0.00010551
1.97893e-06
-0.000105356
3.59623e-07
-0.000104726
-1.31445e-06
-0.000103616
-3.02687e-06
-0.000102027
-4.76015e-06
-9.99631e-05
-6.49583e-06
-9.74321e-05
-8.21459e-06
-9.44456e-05
-9.89634e-06
-9.10192e-05
-1.15204e-05
-8.71726e-05
-1.30658e-05
-8.29297e-05
-1.45113e-05
-7.83186e-05
-1.5836e-05
-7.33721e-05
-1.70195e-05
-6.81271e-05
-1.80425e-05
-6.26248e-05
-1.88873e-05
-5.69104e-05
-1.95382e-05
-5.10328e-05
-1.99821e-05
-4.50441e-05
-2.02091e-05
-3.8999e-05
-2.0213e-05
-3.29538e-05
-1.99915e-05
-2.69661e-05
-1.9547e-05
-2.10932e-05
-1.88863e-05
-1.53914e-05
-1.80209e-05
-9.91507e-06
-1.69668e-05
-4.71504e-06
-1.57445e-05
1.61959e-07
-1.4378e-05
4.67449e-06
-1.28944e-05
8.78725e-06
-1.13234e-05
1.24718e-05
-9.69618e-06
1.57072e-05
-8.04426e-06
1.84803e-05
-6.39896e-06
2.0786e-05
-4.79019e-06
2.26273e-05
-3.24561e-06
2.40149e-05
-1.78983e-06
2.49669e-05
-4.43752e-07
2.5508e-05
7.75982e-07
2.56687e-05
1.85727e-06
2.5484e-05
2.79272e-06
2.49926e-05
3.57952e-06
2.42352e-05
4.21925e-06
2.32533e-05
4.71738e-06
2.20884e-05
5.08271e-06
2.07801e-05
5.32671e-06
1.93657e-05
5.46281e-06
1.78791e-05
5.50561e-06
1.63505e-05
5.47028e-06
1.48059e-05
5.37162e-06
1.32675e-05
5.22378e-06
1.17528e-05
5.03906e-06
1.02768e-05
4.82798e-06
8.8507e-06
4.59754e-06
7.48512e-06
4.35205e-06
6.18811e-06
4.09035e-06
4.97047e-06
3.80856e-06
3.84118e-06
3.49541e-06
2.81661e-06
3.13982e-06
1.9098e-06
2.7225e-06
1.14764e-06
2.23445e-06
5.48066e-07
1.65995e-06
1.55371e-07
1.01844e-06
3.24825e-07
5.15005e-08
-2.45709e-07
1.50805e-07
-5.36008e-07
2.68331e-07
-6.81252e-07
3.78267e-07
-7.18025e-07
4.69222e-07
-6.83126e-07
5.30945e-07
-6.00109e-07
5.59637e-07
-4.89622e-07
5.51694e-07
-3.63312e-07
5.05909e-07
-2.29808e-07
4.20495e-07
-9.22414e-08
2.93986e-07
4.81644e-08
1.23863e-07
1.93025e-07
-9.30206e-08
3.44702e-07
-3.61003e-07
5.06676e-07
-6.8536e-07
6.82415e-07
-1.07248e-06
8.75594e-07
-1.5297e-06
1.08956e-06
-2.0653e-06
1.32751e-06
-2.68841e-06
1.59231e-06
-3.40898e-06
1.88667e-06
-4.2377e-06
2.21305e-06
-5.18597e-06
2.57387e-06
-6.26581e-06
2.97139e-06
-7.48982e-06
3.40785e-06
-8.87107e-06
3.88532e-06
-1.04229e-05
4.40571e-06
-1.21589e-05
4.97058e-06
-1.40924e-05
5.58097e-06
-1.62361e-05
6.23724e-06
-1.86022e-05
6.93878e-06
-2.12011e-05
7.6838e-06
-2.40414e-05
8.46908e-06
-2.71293e-05
9.28977e-06
-3.04678e-05
1.01392e-05
-3.40562e-05
1.10089e-05
-3.78895e-05
1.18882e-05
-4.1958e-05
1.27648e-05
-4.6247e-05
1.36246e-05
-5.07368e-05
1.4452e-05
-5.54022e-05
1.52301e-05
-6.02133e-05
1.59415e-05
-6.51354e-05
1.65685e-05
-7.01303e-05
1.70936e-05
-7.51563e-05
1.75001e-05
-8.01697e-05
1.77729e-05
-8.51252e-05
1.78983e-05
-8.99776e-05
1.7865e-05
-9.46821e-05
1.76641e-05
-9.91951e-05
1.72891e-05
-0.000103475
1.67365e-05
-0.000107484
1.60053e-05
-0.000111186
1.50968e-05
-0.000114549
1.4015e-05
-0.000117543
1.27661e-05
-0.000120143
1.13579e-05
-0.000122325
9.80042e-06
-0.000124072
8.10507e-06
-0.000125366
6.28474e-06
-0.000126193
4.35367e-06
-0.000126542
2.32735e-06
-0.000126405
2.22446e-07
-0.000125776
-1.94319e-06
-0.000124651
-4.15056e-06
-0.00012303
-6.37954e-06
-0.000120915
-8.60888e-06
-0.00011831
-1.08163e-05
-0.000115224
-1.29784e-05
-0.000111668
-1.50711e-05
-0.000107659
-1.70696e-05
-0.000103216
-1.89486e-05
-9.83629e-05
-2.06828e-05
-9.31283e-05
-2.22473e-05
-8.75453e-05
-2.36182e-05
-8.16523e-05
-2.47729e-05
-7.54918e-05
-2.5691e-05
-6.91111e-05
-2.63551e-05
-6.25615e-05
-2.67509e-05
-5.58981e-05
-2.68688e-05
-4.91786e-05
-2.67036e-05
-4.24629e-05
-2.62556e-05
-3.58119e-05
-2.55305e-05
-2.92866e-05
-2.45399e-05
-2.29465e-05
-2.33012e-05
-1.6849e-05
-2.18369e-05
-1.10477e-05
-2.01747e-05
-5.59176e-06
-1.83465e-05
-5.24554e-07
-1.63875e-05
4.11696e-06
-1.43353e-05
8.30301e-06
-1.22285e-05
1.20115e-05
-1.01063e-05
1.52284e-05
-8.00657e-06
1.79477e-05
-5.96503e-06
2.01718e-05
-4.01445e-06
2.19106e-05
-2.1836e-06
2.31817e-05
-4.96567e-07
2.40095e-05
1.02776e-06
2.44242e-05
2.37601e-06
2.44611e-05
3.54042e-06
2.41593e-05
4.51875e-06
2.35603e-05
5.31391e-06
2.27071e-05
5.93344e-06
2.16426e-05
6.38882e-06
2.04083e-05
6.69469e-06
1.90437e-05
6.86787e-06
1.75851e-05
6.9266e-06
1.60652e-05
6.88936e-06
1.45127e-05
6.77427e-06
1.2952e-05
6.59769e-06
1.14045e-05
6.37385e-06
9.88703e-06
6.11309e-06
8.41566e-06
5.82212e-06
7.00279e-06
5.50139e-06
5.66341e-06
5.14716e-06
4.40937e-06
4.74753e-06
3.26052e-06
4.28872e-06
2.23213e-06
3.7485e-06
1.35647e-06
3.11158e-06
6.56248e-07
2.3565e-06
1.89256e-07
1.48905e-06
5.11577e-07
4.34139e-08
-2.88858e-07
1.21875e-07
-6.15371e-07
2.06505e-07
-7.65477e-07
2.73391e-07
-7.8547e-07
3.12016e-07
-7.21692e-07
3.13606e-07
-6.02053e-07
2.751e-07
-4.5119e-07
1.93579e-07
-2.82029e-07
6.78585e-08
-1.04195e-07
-1.04099e-07
7.95541e-08
-3.24528e-07
2.685e-07
-5.96988e-07
4.65383e-07
-9.26031e-07
6.73684e-07
-1.31762e-06
8.98213e-07
-1.77889e-06
1.14367e-06
-2.31827e-06
1.41498e-06
-2.94531e-06
1.71663e-06
-3.67062e-06
2.05289e-06
-4.50581e-06
2.42761e-06
-5.4634e-06
2.84439e-06
-6.55673e-06
3.30656e-06
-7.79988e-06
3.81724e-06
-9.20758e-06
4.37937e-06
-1.07951e-05
4.99566e-06
-1.25779e-05
5.66852e-06
-1.45716e-05
6.39991e-06
-1.67916e-05
7.19112e-06
-1.92526e-05
8.04254e-06
-2.19679e-05
8.95333e-06
-2.49495e-05
9.92114e-06
-2.82065e-05
1.09418e-05
-3.17454e-05
1.20089e-05
-3.55684e-05
1.3114e-05
-3.96738e-05
1.42459e-05
-4.40546e-05
1.5391e-05
-4.86983e-05
1.65335e-05
-5.35868e-05
1.76551e-05
-5.86963e-05
1.8736e-05
-6.39973e-05
1.9755e-05
-6.9455e-05
2.06901e-05
-7.50304e-05
2.15193e-05
-8.06807e-05
2.22213e-05
-8.63604e-05
2.27759e-05
-9.20226e-05
2.31651e-05
-9.76199e-05
2.33731e-05
-0.000103106
2.3387e-05
-0.000108435
2.3197e-05
-0.000113564
2.27964e-05
-0.000118453
2.21817e-05
-0.000123066
2.13525e-05
-0.000127369
2.03111e-05
-0.000131331
1.90622e-05
-0.000134927
1.76131e-05
-0.000138131
1.59728e-05
-0.000140923
1.41522e-05
-0.000143284
1.21635e-05
-0.000145197
1.00205e-05
-0.000146649
7.73805e-06
-0.000147627
5.33223e-06
-0.000148119
2.82026e-06
-0.000148117
2.20506e-07
-0.000147613
-2.44749e-06
-0.000146602
-5.16291e-06
-0.000145079
-7.90368e-06
-0.000143043
-1.06464e-05
-0.000140496
-1.33662e-05
-0.00013744
-1.6037e-05
-0.000133883
-1.86315e-05
-0.000129835
-2.11212e-05
-0.000125311
-2.3477e-05
-0.000120329
-2.56691e-05
-0.000114914
-2.76679e-05
-0.000109093
-2.94443e-05
-0.000102901
-3.09703e-05
-9.63768e-05
-3.22202e-05
-8.95664e-05
-3.3171e-05
-8.25194e-05
-3.38034e-05
-7.52909e-05
-3.41027e-05
-6.79399e-05
-3.40598e-05
-6.0529e-05
-3.36715e-05
-5.3123e-05
-3.29412e-05
-4.57878e-05
-3.18796e-05
-3.85891e-05
-3.05039e-05
-3.15912e-05
-2.88384e-05
-2.48553e-05
-2.69138e-05
-1.84387e-05
-2.47659e-05
-1.2393e-05
-2.24354e-05
-6.76376e-06
-1.99663e-05
-1.58913e-06
-1.74044e-05
3.10034e-06
-1.47966e-05
7.28233e-06
-1.21889e-05
1.09428e-05
-9.6255e-06
1.40762e-05
-7.14741e-06
1.66849e-05
-4.79165e-06
1.87795e-05
-2.59017e-06
2.03777e-05
-5.69291e-07
2.15043e-05
1.25086e-06
2.21897e-05
2.85654e-06
2.24696e-05
4.2405e-06
2.23834e-05
5.40172e-06
2.19736e-05
6.34503e-06
2.12837e-05
7.08045e-06
2.03577e-05
7.62239e-06
1.92385e-05
7.98867e-06
1.79673e-05
8.19953e-06
1.65818e-05
8.27633e-06
1.5117e-05
8.24061e-06
1.36034e-05
8.11255e-06
1.20686e-05
7.91012e-06
1.05354e-05
7.64723e-06
9.02562e-06
7.33334e-06
7.5565e-06
6.97113e-06
6.1477e-06
6.55748e-06
4.81474e-06
6.08049e-06
3.58161e-06
5.52377e-06
2.46679e-06
4.86224e-06
1.50825e-06
4.07306e-06
7.33911e-07
3.12772e-06
2.12749e-07
2.01506e-06
7.22148e-07
3.27343e-08
-3.21227e-07
8.33158e-08
-6.66351e-07
1.24759e-07
-8.06412e-07
1.36404e-07
-7.97233e-07
1.09221e-07
-6.94217e-07
3.65484e-08
-5.29348e-07
-8.37352e-08
-3.30718e-07
-2.53663e-07
-1.1202e-07
-4.74434e-07
1.16705e-07
-7.48393e-07
3.53594e-07
-1.07873e-06
5.98926e-07
-1.47027e-06
8.5698e-07
-1.92924e-06
1.1327e-06
-2.46351e-06
1.43251e-06
-3.08241e-06
1.76258e-06
-3.7967e-06
2.12927e-06
-4.61843e-06
2.53833e-06
-5.56085e-06
2.99526e-06
-6.63827e-06
3.50495e-06
-7.86599e-06
4.07201e-06
-9.26015e-06
4.70059e-06
-1.08376e-05
5.39454e-06
-1.26158e-05
6.15733e-06
-1.46124e-05
6.992e-06
-1.68451e-05
7.90096e-06
-1.93313e-05
8.88579e-06
-2.20875e-05
9.94691e-06
-2.51287e-05
1.10833e-05
-2.84678e-05
1.22919e-05
-3.21148e-05
1.35676e-05
-3.60761e-05
1.49024e-05
-4.03538e-05
1.62858e-05
-4.49445e-05
1.77039e-05
-4.98395e-05
1.91399e-05
-5.50237e-05
2.05742e-05
-6.04756e-05
2.19843e-05
-6.61677e-05
2.33459e-05
-7.20663e-05
2.46333e-05
-7.81327e-05
2.58199e-05
-8.43238e-05
2.68796e-05
-9.05933e-05
2.7787e-05
-9.68927e-05
2.85189e-05
-0.000103173
2.90545e-05
-0.000109386
2.9376e-05
-0.000115484
2.94692e-05
-0.000121423
2.93236e-05
-0.00012716
2.89324e-05
-0.000132658
2.82923e-05
-0.000137882
2.74032e-05
-0.0001428
2.62682e-05
-0.000147384
2.48929e-05
-0.000151609
2.32851e-05
-0.000155452
2.14547e-05
-0.000158894
1.9413e-05
-0.000161916
1.71728e-05
-0.000164503
1.47483e-05
-0.000166638
1.21544e-05
-0.000168308
9.40741e-06
-0.000169501
6.52452e-06
-0.000170205
3.52401e-06
-0.000170409
4.25311e-07
-0.000170106
-2.75093e-06
-0.000169285
-5.98269e-06
-0.000167941
-9.2465e-06
-0.000166069
-1.25173e-05
-0.000163664
-1.57685e-05
-0.000160728
-1.89716e-05
-0.00015726
-2.20967e-05
-0.000153266
-2.51122e-05
-0.000148755
-2.79853e-05
-0.000143738
-3.0682e-05
-0.000138235
-3.31678e-05
-0.000132267
-3.54085e-05
-0.000125863
-3.73702e-05
-0.000119059
-3.90212e-05
-0.000111894
-4.03319e-05
-0.000104416
-4.12768e-05
-9.668e-05
-4.18351e-05
-8.87444e-05
-4.19917e-05
-8.06739e-05
-4.17384e-05
-7.25369e-05
-4.10748e-05
-6.44047e-05
-4.00086e-05
-5.63498e-05
-3.85559e-05
-4.84443e-05
-3.67413e-05
-4.07584e-05
-3.45974e-05
-3.33586e-05
-3.21638e-05
-2.63064e-05
-2.94861e-05
-1.96567e-05
-2.66147e-05
-1.3457e-05
-2.36031e-05
-7.74683e-06
-2.05062e-05
-2.5567e-06
-1.73788e-05
2.0916e-06
-1.42738e-05
6.18519e-06
-1.12412e-05
9.71984e-06
-8.32676e-06
1.26997e-05
-5.57065e-06
1.51366e-05
-3.00706e-06
1.70499e-05
-6.63408e-07
1.84654e-05
1.43998e-06
1.94147e-05
3.29004e-06
1.99344e-05
4.88089e-06
2.00647e-05
6.21352e-06
1.98487e-05
7.29525e-06
1.93309e-05
8.139e-06
1.8556e-05
8.76227e-06
1.75683e-05
9.18613e-06
1.64097e-05
9.43379e-06
1.512e-05
9.52941e-06
1.3735e-05
9.49642e-06
1.22881e-05
9.35622e-06
1.0808e-05
9.12623e-06
9.32205e-06
8.81886e-06
7.85267e-06
8.43931e-06
6.42461e-06
7.98551e-06
5.05764e-06
7.44596e-06
3.78031e-06
6.80186e-06
2.615e-06
6.02526e-06
1.60511e-06
5.0852e-06
7.83613e-07
3.94514e-06
2.27716e-07
2.57558e-06
9.47046e-07
1.95888e-08
-3.40775e-07
3.61516e-08
-6.83206e-07
2.54674e-08
-7.95653e-07
-2.88101e-08
-7.43131e-07
-1.33658e-07
-5.89419e-07
-2.93091e-07
-3.70026e-07
-5.0812e-07
-1.15774e-07
-7.7976e-07
1.5954e-07
-1.1093e-06
4.46158e-07
-1.49949e-06
7.43731e-07
-1.95472e-06
1.05409e-06
-2.48129e-06
1.38351e-06
-3.08742e-06
1.7388e-06
-3.7832e-06
2.12828e-06
-4.58045e-06
2.55982e-06
-5.49256e-06
3.04139e-06
-6.53438e-06
3.58017e-06
-7.72201e-06
4.18293e-06
-9.0727e-06
4.8557e-06
-1.06046e-05
5.60404e-06
-1.23369e-05
6.4329e-06
-1.42889e-05
7.34672e-06
-1.64807e-05
8.34928e-06
-1.89321e-05
9.44356e-06
-2.16624e-05
1.06315e-05
-2.469e-05
1.19136e-05
-2.80314e-05
1.32886e-05
-3.17008e-05
1.4753e-05
-3.57089e-05
1.63003e-05
-4.00622e-05
1.79213e-05
-4.47623e-05
1.96031e-05
-4.9805e-05
2.1329e-05
-5.51793e-05
2.30789e-05
-6.08679e-05
2.48292e-05
-6.68463e-05
2.65533e-05
-7.30834e-05
2.82222e-05
-7.95419e-05
2.98054e-05
-8.61795e-05
3.12719e-05
-9.29497e-05
3.25912e-05
-9.98034e-05
3.37344e-05
-0.00010669
3.46747e-05
-0.000113559
3.5389e-05
-0.00012036
3.58576e-05
-0.000127048
3.60651e-05
-0.000133578
3.60003e-05
-0.000139908
3.5656e-05
-0.000146004
3.50292e-05
-0.00015183
3.41202e-05
-0.000157358
3.29324e-05
-0.00016256
3.14719e-05
-0.000167413
2.97473e-05
-0.000171895
2.77688e-05
-0.000175987
2.55482e-05
-0.000179672
2.30987e-05
-0.000182933
2.04347e-05
-0.000185755
1.75714e-05
-0.000188125
1.45251e-05
-0.00019003
1.13127e-05
-0.000191457
7.95222e-06
-0.000192396
4.46271e-06
-0.000192835
8.64172e-07
-0.000192764
-2.82213e-06
-0.000192174
-6.57354e-06
-0.000191055
-1.03659e-05
-0.0001894
-1.41732e-05
-0.000187203
-1.79677e-05
-0.000184456
-2.17195e-05
-0.000181158
-2.53969e-05
-0.000177306
-2.89659e-05
-0.000172903
-3.23906e-05
-0.000167954
-3.56335e-05
-0.000162469
-3.86557e-05
-0.000156462
-4.14177e-05
-0.000149955
-4.388e-05
-0.000142976
-4.60039e-05
-0.000135557
-4.77529e-05
-0.000127743
-4.90938e-05
-0.000119583
-4.99979e-05
-0.000111135
-5.04427e-05
-0.000102463
-5.04129e-05
-9.36381e-05
-4.99017e-05
-8.47371e-05
-4.89118e-05
-7.58391e-05
-4.7456e-05
-6.7025e-05
-4.55572e-05
-5.83755e-05
-4.32485e-05
-4.99684e-05
-4.05722e-05
-4.18772e-05
-3.75784e-05
-3.41688e-05
-3.4324e-05
-2.69023e-05
-3.08703e-05
-2.01276e-05
-2.72813e-05
-1.38852e-05
-2.36215e-05
-8.20511e-06
-1.99539e-05
-3.10772e-06
-1.63385e-05
1.39641e-06
-1.28306e-05
5.30585e-06
-9.47963e-06
8.62767e-06
-6.32831e-06
1.13768e-05
-3.41185e-06
1.35751e-05
-7.57636e-07
1.5251e-05
1.615e-06
1.64379e-05
3.69473e-06
1.71743e-05
5.47804e-06
1.75017e-05
6.96871e-06
1.74643e-05
8.17719e-06
1.71078e-05
9.11965e-06
1.64779e-05
9.81688e-06
1.56194e-05
1.0293e-05
1.45758e-05
1.05738e-05
1.33876e-05
1.06853e-05
1.20929e-05
1.06517e-05
1.07258e-05
1.04938e-05
9.31892e-06
1.02267e-05
7.90001e-06
9.85828e-06
6.49893e-06
9.38773e-06
5.14015e-06
8.80422e-06
3.85703e-06
8.08669e-06
2.6763e-06
7.2044e-06
1.6463e-06
6.11817e-06
8.04543e-07
4.78321e-06
2.33559e-07
3.15176e-06
1.17806e-06
4.37681e-09
-3.45181e-07
-1.86082e-08
-6.60029e-07
-8.9579e-08
-7.24737e-07
-2.19564e-07
-6.12975e-07
-4.12961e-07
-3.96051e-07
-6.70638e-07
-1.12205e-07
-9.92346e-07
2.05932e-07
-1.378e-06
5.45301e-07
-1.82909e-06
8.9726e-07
-2.34896e-06
1.26369e-06
-2.94345e-06
1.64859e-06
-3.62063e-06
2.06075e-06
-4.39104e-06
2.50922e-06
-5.26728e-06
3.00455e-06
-6.26399e-06
3.55652e-06
-7.39747e-06
4.17487e-06
-8.6856e-06
4.86828e-06
-1.01475e-05
5.64485e-06
-1.18036e-05
6.51169e-06
-1.36749e-05
7.47527e-06
-1.57832e-05
8.54115e-06
-1.81506e-05
9.71408e-06
-2.07992e-05
1.09977e-05
-2.37503e-05
1.23945e-05
-2.70241e-05
1.39051e-05
-3.06387e-05
1.55281e-05
-3.46096e-05
1.72593e-05
-3.89482e-05
1.90914e-05
-4.36616e-05
2.10134e-05
-4.87508e-05
2.30102e-05
-5.42105e-05
2.50624e-05
-6.00284e-05
2.71465e-05
-6.61846e-05
2.92347e-05
-7.2652e-05
3.12961e-05
-7.93963e-05
3.3297e-05
-8.6377e-05
3.52023e-05
-9.35484e-05
3.69761e-05
-0.000100861
3.85839e-05
-0.000108263
3.99927e-05
-0.000115702
4.11727e-05
-0.000123127
4.20981e-05
-0.000130486
4.27474e-05
-0.000137733
4.31037e-05
-0.000144824
4.31552e-05
-0.000151719
4.28943e-05
-0.000158382
4.23177e-05
-0.00016478
4.14261e-05
-0.000170884
4.02231e-05
-0.000176668
3.87154e-05
-0.000182109
3.69119e-05
-0.000187186
3.48236e-05
-0.000191881
3.24629e-05
-0.000196178
2.98436e-05
-0.00020006
2.69804e-05
-0.000203515
2.38893e-05
-0.000206531
2.05865e-05
-0.000209096
1.70893e-05
-0.000211199
1.34156e-05
-0.000212831
9.58377e-06
-0.000213981
5.6132e-06
-0.000214641
1.52406e-06
-0.0002148
-2.66238e-06
-0.00021445
-6.92357e-06
-0.000213579
-1.12354e-05
-0.000212179
-1.55722e-05
-0.00021024
-1.99059e-05
-0.000207752
-2.42066e-05
-0.000204706
-2.84416e-05
-0.000201094
-3.2576e-05
-0.000196911
-3.65719e-05
-0.000192154
-4.03892e-05
-0.000186822
-4.39857e-05
-0.00018092
-4.73172e-05
-0.00017446
-5.03386e-05
-0.000167457
-5.30047e-05
-0.000159936
-5.52712e-05
-0.000151932
-5.70963e-05
-0.000143486
-5.84422e-05
-0.00013465
-5.92766e-05
-0.000125486
-5.95747e-05
-0.000116066
-5.93206e-05
-0.000106467
-5.85091e-05
-9.67752e-05
-5.71463e-05
-8.70803e-05
-5.52508e-05
-7.74743e-05
-5.28534e-05
-6.80485e-05
-4.9997e-05
-5.88911e-05
-4.67351e-05
-5.00842e-05
-4.31302e-05
-4.17022e-05
-3.92519e-05
-3.38093e-05
-3.51739e-05
-2.64586e-05
-3.0972e-05
-1.96915e-05
-2.6721e-05
-1.35374e-05
-2.24927e-05
-8.01413e-06
-1.8354e-05
-3.12889e-06
-1.43652e-05
1.12108e-06
-1.05787e-05
4.74729e-06
-7.03852e-06
7.76906e-06
-3.77992e-06