/*--------------------------------*- C++ -*----------------------------------*\
| =========                 |                                                 |
| \\      /  F ield         | OpenFOAM: The Open Source CFD Toolbox           |
|  \\    /   O peration     | Version:  2406                                  |
|   \\  /    A nd           | Website:  www.openfoam.com                      |
|    \\/     M anipulation  |                                                 |
\*---------------------------------------------------------------------------*/
FoamFile
{
    version     2.0;
    format      ascii;
    arch        "LSB;label=32;scalar=64";
    class       volVectorField;
    location    "21.2";
    object      U;
}
// * * * * * * * * * * * * * * * * * * * * * * * * * * * * * * * * * * * * * //

dimensions      [0 1 -1 0 0 0 0];

internalField   nonuniform List<vector> 
14400
(
(-2.07809e-07 2.33444e-07 0)
(2.21407e-05 -1.13539e-05 0)
(7.18119e-05 -1.84844e-05 0)
(0.000132313 -2.20692e-05 0)
(0.000199726 -2.23557e-05 0)
(0.000264461 -2.1368e-05 0)
(0.000326244 -1.95174e-05 0)
(0.000381452 -1.75679e-05 0)
(0.00043116 -1.5584e-05 0)
(0.000474325 -1.37871e-05 0)
(0.000512029 -1.21189e-05 0)
(0.000544032 -1.06033e-05 0)
(0.000570955 -9.15617e-06 0)
(0.000592605 -7.74134e-06 0)
(0.000609078 -6.28665e-06 0)
(0.000619984 -4.75079e-06 0)
(0.000625001 -3.08485e-06 0)
(0.000623523 -1.2593e-06 0)
(0.000614945 7.5481e-07 0)
(0.000598497 2.97662e-06 0)
(0.000573383 5.42534e-06 0)
(0.000538701 8.11819e-06 0)
(0.000493498 1.10758e-05 0)
(0.000436723 1.43222e-05 0)
(0.000367238 1.78873e-05 0)
(0.00028379 2.18069e-05 0)
(0.000185004 2.61229e-05 0)
(6.93617e-05 3.08818e-05 0)
(-6.48003e-05 3.61338e-05 0)
(-0.000219299 4.19303e-05 0)
(-0.000396096 4.83217e-05 0)
(-0.000597286 5.5354e-05 0)
(-0.000825072 6.30668e-05 0)
(-0.00108173 7.14895e-05 0)
(-0.00136958 8.06388e-05 0)
(-0.00169089 9.05157e-05 0)
(-0.00204787 0.000101103 0)
(-0.00244257 0.000112361 0)
(-0.00287678 0.000124229 0)
(-0.00335197 0.000136616 0)
(-0.00386922 0.000149405 0)
(-0.00442904 0.000162449 0)
(-0.00503134 0.000175566 0)
(-0.00567531 0.000188544 0)
(-0.00635931 0.000201138 0)
(-0.00708077 0.000213072 0)
(-0.00783615 0.000224041 0)
(-0.00862081 0.000233715 0)
(-0.00942902 0.000241745 0)
(-0.0102539 0.000247765 0)
(-0.0110875 0.000251405 0)
(-0.0119206 0.000252294 0)
(-0.0127431 0.000250074 0)
(-0.0135438 0.000244408 0)
(-0.0143109 0.000234988 0)
(-0.0150316 0.000221553 0)
(-0.015693 0.000203897 0)
(-0.0162815 0.000181882 0)
(-0.016784 0.000155451 0)
(-0.0171872 0.000124643 0)
(-0.0174788 8.95981e-05 0)
(-0.0176472 5.05739e-05 0)
(-0.0176821 7.951e-06 0)
(-0.0175747 -3.77607e-05 0)
(-0.0173182 -8.59205e-05 0)
(-0.016908 -0.000135759 0)
(-0.0163422 -0.000186387 0)
(-0.0156213 -0.000236807 0)
(-0.0147493 -0.00028594 0)
(-0.0137328 -0.000332645 0)
(-0.0125821 -0.000375759 0)
(-0.0113102 -0.000414138 0)
(-0.00993329 -0.000446695 0)
(-0.00847037 -0.000472456 0)
(-0.00694271 -0.000490597 0)
(-0.00537352 -0.000500498 0)
(-0.00378734 -0.000501775 0)
(-0.00220938 -0.000494312 0)
(-0.000664836 -0.000478276 0)
(0.000821908 -0.000454121 0)
(0.00222797 -0.000422578 0)
(0.00353271 -0.000384621 0)
(0.00471831 -0.000341431 0)
(0.00577034 -0.000294337 0)
(0.00667809 -0.000244753 0)
(0.00743481 -0.000194117 0)
(0.00803778 -0.000143815 0)
(0.00848814 -9.51322e-05 0)
(0.00879065 -4.91913e-05 0)
(0.00895328 -6.92163e-06 0)
(0.00898666 3.0968e-05 0)
(0.00890356 6.39969e-05 0)
(0.00871815 9.19093e-05 0)
(0.0084455 0.000114655 0)
(0.0081009 0.000132368 0)
(0.00769941 0.000145327 0)
(0.00725532 0.00015393 0)
(0.0067819 0.00015865 0)
(0.00629104 0.000160013 0)
(0.00579322 0.000158552 0)
(0.00529724 0.000154807 0)
(0.00481045 0.000149277 0)
(0.00433851 0.000142447 0)
(0.00388586 0.000134724 0)
(0.00345534 0.000126514 0)
(0.003049 0.00011811 0)
(0.00266733 0.000109842 0)
(0.0023107 0.000101868 0)
(0.00197781 9.44471e-05 0)
(0.00166829 8.7543e-05 0)
(0.00137979 8.13312e-05 0)
(0.00111256 7.54238e-05 0)
(0.000864317 6.98745e-05 0)
(0.00063808 6.36469e-05 0)
(0.000433331 5.66752e-05 0)
(0.000258505 4.68287e-05 0)
(0.000116751 3.44423e-05 0)
(2.2088e-05 1.65373e-05 0)
(-2.15886e-05 -1.4588e-06 0)
(-1.50355e-05 -1.483e-05 0)
(1.15173e-05 -2.22254e-05 0)
(7.59469e-05 -7.56588e-05 0)
(0.000188194 -0.00010839 0)
(0.000318599 -0.00012481 0)
(0.000460835 -0.00012709 0)
(0.000597655 -0.000121779 0)
(0.00072679 -0.000111655 0)
(0.000841122 -9.97333e-05 0)
(0.000941253 -8.71384e-05 0)
(0.00102503 -7.48218e-05 0)
(0.00109373 -6.29205e-05 0)
(0.00114678 -5.14617e-05 0)
(0.00118486 -4.01707e-05 0)
(0.00120738 -2.8758e-05 0)
(0.001214 -1.68641e-05 0)
(0.00120351 -4.16893e-06 0)
(0.00117463 9.62876e-06 0)
(0.00112549 2.47809e-05 0)
(0.00105407 4.15055e-05 0)
(0.000957927 5.99888e-05 0)
(0.000834477 8.04008e-05 0)
(0.000680825 0.000102907 0)
(0.000493875 0.000127682 0)
(0.00027026 0.000154919 0)
(6.35474e-06 0.000184833 0)
(-0.000301765 0.000217669 0)
(-0.000658328 0.000253691 0)
(-0.00106789 0.000293184 0)
(-0.00153533 0.000336433 0)
(-0.00206581 0.000383714 0)
(-0.00266476 0.000435274 0)
(-0.00333781 0.00049131 0)
(-0.00409065 0.00055195 0)
(-0.00492897 0.000617229 0)
(-0.00585824 0.000687072 0)
(-0.00688361 0.000761268 0)
(-0.00800964 0.000839459 0)
(-0.0092401 0.000921115 0)
(-0.0105778 0.00100553 0)
(-0.0120241 0.00109179 0)
(-0.0135791 0.00117881 0)
(-0.0152409 0.00126527 0)
(-0.0170058 0.00134966 0)
(-0.0188677 0.00143029 0)
(-0.0208181 0.00150529 0)
(-0.0228461 0.00157265 0)
(-0.0249381 0.00163025 0)
(-0.0270779 0.00167587 0)
(-0.0292464 0.0017073 0)
(-0.0314225 0.00172236 0)
(-0.0335823 0.00171892 0)
(-0.0357002 0.00169503 0)
(-0.0377488 0.00164895 0)
(-0.0396993 0.0015792 0)
(-0.0415222 0.00148462 0)
(-0.0431874 0.00136446 0)
(-0.0446654 0.0012184 0)
(-0.045927 0.00104658 0)
(-0.0469447 0.0008497 0)
(-0.0476926 0.000628995 0)
(-0.0481475 0.000386281 0)
(-0.0482893 0.000123962 0)
(-0.0481014 -0.000154971 0)
(-0.0475711 -0.000446949 0)
(-0.0466906 -0.000747861 0)
(-0.0454567 -0.00105309 0)
(-0.0438717 -0.0013576 0)
(-0.0419431 -0.001656 0)
(-0.0396843 -0.00194265 0)
(-0.0371142 -0.0022118 0)
(-0.0342575 -0.00245776 0)
(-0.0311442 -0.002675 0)
(-0.0278095 -0.00285841 0)
(-0.0242929 -0.00300341 0)
(-0.0206383 -0.00310618 0)
(-0.0168926 -0.00316382 0)
(-0.013105 -0.00317451 0)
(-0.00932613 -0.0031376 0)
(-0.00560665 -0.00305373 0)
(-0.00199629 -0.00292486 0)
(0.00145741 -0.0027542 0)
(0.00471037 -0.00254621 0)
(0.00772301 -0.00230634 0)
(0.0104613 -0.00204097 0)
(0.0128977 -0.00175703 0)
(0.0150115 -0.00146185 0)
(0.0167898 -0.00116277 0)
(0.0182271 -0.000866909 0)
(0.0193253 -0.000580859 0)
(0.0200938 -0.000310472 0)
(0.020548 -6.06579e-05 0)
(0.0207092 0.000164737 0)
(0.0206032 0.000363003 0)
(0.0202592 0.000532558 0)
(0.0197086 0.000672907 0)
(0.0189841 0.000784517 0)
(0.0181181 0.0008687 0)
(0.0171423 0.000927423 0)
(0.0160862 0.000963165 0)
(0.0149771 0.000978707 0)
(0.0138393 0.000977033 0)
(0.0126938 0.000961119 0)
(0.0115583 0.000933923 0)
(0.0104471 0.000898169 0)
(0.00937117 0.000856461 0)
(0.00833889 0.000810994 0)
(0.00735516 0.000763846 0)
(0.00642374 0.000716464 0)
(0.00554494 0.000670256 0)
(0.00471996 0.000625569 0)
(0.00394655 0.0005829 0)
(0.00322655 0.000540853 0)
(0.0025579 0.00049873 0)
(0.0019475 0.000452452 0)
(0.00139665 0.000400396 0)
(0.000921829 0.000335141 0)
(0.000528714 0.000257398 0)
(0.000242228 0.000159381 0)
(6.25368e-05 6.11775e-05 0)
(-1.48486e-06 -2.15364e-05 0)
(1.88768e-05 -7.23036e-05 0)
(0.000109101 -0.00018795 0)
(0.000258303 -0.000257697 0)
(0.000425687 -0.000290525 0)
(0.000604174 -0.000294152 0)
(0.00077247 -0.000279642 0)
(0.000927545 -0.000254093 0)
(0.00106054 -0.000223304 0)
(0.00117162 -0.000190498 0)
(0.00125792 -0.000157582 0)
(0.00132046 -0.000125208 0)
(0.00135822 -9.33094e-05 0)
(0.00137146 -6.13486e-05 0)
(0.00135892 -2.85299e-05 0)
(0.00131948 6.01102e-06 0)
(0.00125089 4.31508e-05 0)
(0.00115062 8.36795e-05 0)
(0.00101534 0.000128316 0)
(0.000841352 0.000177677 0)
(0.00062439 0.000232321 0)
(0.000359819 0.000292755 0)
(4.2543e-05 0.000359478 0)
(-0.000332907 0.000432995 0)
(-0.000772437 0.000513849 0)
(-0.00128236 0.000602624 0)
(-0.00186944 0.000699949 0)
(-0.00254086 0.000806485 0)
(-0.00330425 0.000922904 0)
(-0.0041676 0.00104985 0)
(-0.00513922 0.0011879 0)
(-0.00622763 0.00133751 0)
(-0.00744136 0.00149895 0)
(-0.0087888 0.00167228 0)
(-0.0102779 0.00185724 0)
(-0.0119161 0.00205324 0)
(-0.0137095 0.00225929 0)
(-0.0156632 0.00247393 0)
(-0.0177803 0.00269527 0)
(-0.020062 0.00292086 0)
(-0.0225067 0.00314777 0)
(-0.0251104 0.00337254 0)
(-0.0278654 0.0035912 0)
(-0.0307611 0.00379934 0)
(-0.0337829 0.00399215 0)
(-0.0369125 0.0041645 0)
(-0.0401278 0.00431104 0)
(-0.0434032 0.00442631 0)
(-0.0467094 0.0045049 0)
(-0.050014 0.00454159 0)
(-0.0532819 0.00453144 0)
(-0.0564756 0.00447002 0)
(-0.0595562 0.00435351 0)
(-0.0624835 0.00417883 0)
(-0.0652173 0.00394375 0)
(-0.0677175 0.00364705 0)
(-0.0699454 0.00328851 0)
(-0.0718639 0.00286906 0)
(-0.0734384 0.00239077 0)
(-0.0746373 0.00185688 0)
(-0.0754328 0.00127182 0)
(-0.0758011 0.000641175 0)
(-0.075723 -2.83201e-05 0)
(-0.0751842 -0.000728866 0)
(-0.0741757 -0.00145165 0)
(-0.0726943 -0.00218694 0)
(-0.0707423 -0.00292422 0)
(-0.068328 -0.00365231 0)
(-0.065466 -0.00435954 0)
(-0.0621767 -0.00503398 0)
(-0.0584867 -0.00566363 0)
(-0.0544284 -0.00623672 0)
(-0.05004 -0.00674201 0)
(-0.045365 -0.00716904 0)
(-0.0404517 -0.00750852 0)
(-0.035353 -0.00775264 0)
(-0.0301251 -0.00789536 0)
(-0.0248271 -0.00793272 0)
(-0.01952 -0.00786308 0)
(-0.0142654 -0.00768729 0)
(-0.00912456 -0.00740878 0)
(-0.00415704 -0.00703358 0)
(0.000580548 -0.00657022 0)
(0.00503576 -0.00602949 0)
(0.00916156 -0.00542417 0)
(0.0129174 -0.0047686 0)
(0.0162702 -0.0040782 0)
(0.0191951 -0.00336893 0)
(0.021676 -0.0026567 0)
(0.0237058 -0.00195679 0)
(0.0252863 -0.00128337 0)
(0.026428 -0.000648949 0)
(0.0271494 -6.40426e-05 0)
(0.0274762 0.000463117 0)
(0.0274401 0.000926721 0)
(0.0270775 0.00132342 0)
(0.0264282 0.00165219 0)
(0.0255338 0.0019142 0)
(0.0244366 0.00211242 0)
(0.0231781 0.0022514 0)
(0.0217977 0.00233676 0)
(0.0203321 0.00237498 0)
(0.0188146 0.0023729 0)
(0.0172741 0.00233754 0)
(0.0157354 0.00227569 0)
(0.0142188 0.0021939 0)
(0.0127406 0.00209803 0)
(0.0113125 0.00199344 0)
(0.00994373 0.00188432 0)
(0.00863893 0.00177422 0)
(0.00740308 0.00166477 0)
(0.0062364 0.00155696 0)
(0.00514381 0.00144851 0)
(0.00412483 0.00133712 0)
(0.00319014 0.00121515 0)
(0.00234206 0.00107769 0)
(0.00160298 0.000911929 0)
(0.000977844 0.00071738 0)
(0.000501908 0.000484045 0)
(0.000170547 0.000244246 0)
(1.85911e-05 2.50809e-05 0)
(2.26717e-05 -0.000133554 0)
(0.000125198 -0.000318024 0)
(0.000288907 -0.000424405 0)
(0.000466159 -0.000469535 0)
(0.000649693 -0.000469659 0)
(0.000816587 -0.00044038 0)
(0.000963959 -0.000393507 0)
(0.00108232 -0.000337463 0)
(0.00117163 -0.000277657 0)
(0.00122853 -0.000216888 0)
(0.00125358 -0.000156297 0)
(0.00124513 -9.56163e-05 0)
(0.00120267 -3.3929e-05 0)
(0.00112401 3.02266e-05 0)
(0.00100688 9.83906e-05 0)
(0.000847715 0.000172178 0)
(0.000642439 0.000253053 0)
(0.000386002 0.00034238 0)
(7.27873e-05 0.000441354 0)
(-0.000303582 0.000551078 0)
(-0.000750031 0.000672559 0)
(-0.00127411 0.000806788 0)
(-0.00188392 0.000954752 0)
(-0.00258813 0.00111748 0)
(-0.00339594 0.00129604 0)
(-0.00431712 0.00149155 0)
(-0.00536191 0.00170511 0)
(-0.00654097 0.00193781 0)
(-0.0078653 0.00219059 0)
(-0.00934605 0.0024642 0)
(-0.0109943 0.00275909 0)
(-0.0128207 0.00307528 0)
(-0.0148355 0.00341228 0)
(-0.0170475 0.00376898 0)
(-0.0194642 0.00414353 0)
(-0.0220911 0.00453328 0)
(-0.0249313 0.00493469 0)
(-0.0279847 0.00534332 0)
(-0.0312479 0.00575379 0)
(-0.0347136 0.00615981 0)
(-0.0383701 0.00655422 0)
(-0.0422012 0.0069291 0)
(-0.0461863 0.0072759 0)
(-0.0502997 0.00758557 0)
(-0.0545113 0.00784882 0)
(-0.0587869 0.00805632 0)
(-0.0630881 0.00819895 0)
(-0.0673736 0.00826805 0)
(-0.0715993 0.00825573 0)
(-0.0757194 0.00815501 0)
(-0.079687 0.00796014 0)
(-0.0834551 0.00766673 0)
(-0.0869776 0.0072719 0)
(-0.0902095 0.0067744 0)
(-0.0931084 0.0061747 0)
(-0.0956345 0.00547495 0)
(-0.0977515 0.00467906 0)
(-0.0994268 0.00379263 0)
(-0.100632 0.00282287 0)
(-0.101344 0.00177862 0)
(-0.101543 0.00067015 0)
(-0.101215 -0.00049082 0)
(-0.100351 -0.0016913 0)
(-0.0989472 -0.00291711 0)
(-0.097005 -0.00415303 0)
(-0.0945311 -0.00538294 0)
(-0.0915376 -0.00659 0)
(-0.088042 -0.00775687 0)
(-0.0840675 -0.00886593 0)
(-0.0796427 -0.00989963 0)
(-0.0748016 -0.0108407 0)
(-0.0695836 -0.0116728 0)
(-0.0640333 -0.0123803 0)
(-0.0582001 -0.0129497 0)
(-0.052138 -0.013369 0)
(-0.0459049 -0.0136289 0)
(-0.039562 -0.0137229 0)
(-0.0331729 -0.0136478 0)
(-0.0268031 -0.0134038 0)
(-0.0205182 -0.0129948 0)
(-0.0143836 -0.0124286 0)
(-0.0084626 -0.0117165 0)
(-0.0028155 -0.0108735 0)
(0.00250174 -0.00991776 0)
(0.00743873 -0.00886995 0)
(0.0119517 -0.0077529 0)
(0.0160046 -0.00659073 0)
(0.0195699 -0.00540809 0)
(0.0226289 -0.00422937 0)
(0.0251724 -0.00307784 0)
(0.0272009 -0.00197489 0)
(0.0287239 -0.000939408 0)
(0.0297597 1.28378e-05 0)
(0.0303348 0.000869542 0)
(0.0304822 0.00162211 0)
(0.0302411 0.00226569 0)
(0.0296544 0.00279903 0)
(0.0287683 0.00322422 0)
(0.0276299 0.00354622 0)
(0.026286 0.00377238 0)
(0.0247819 0.0039119 0)
(0.0231603 0.00397521 0)
(0.02146 0.00397347 0)
(0.0197159 0.00391799 0)
(0.0179575 0.00381993 0)
(0.0162103 0.00368964 0)
(0.0144939 0.0035367 0)
(0.012825 0.00336897 0)
(0.0112144 0.00319305 0)
(0.00967281 0.00301261 0)
(0.00820473 0.00282978 0)
(0.00681967 0.00264197 0)
(0.00551965 0.00244559 0)
(0.00431962 0.00223002 0)
(0.00322233 0.00198709 0)
(0.00225555 0.00169941 0)
(0.0014218 0.00136396 0)
(0.000767449 0.000968165 0)
(0.000284159 0.000547203 0)
(3.99254e-05 0.00013025 0)
(2.29001e-05 -0.000201389 0)
(0.000125026 -0.000457379 0)
(0.000284281 -0.000597823 0)
(0.000450048 -0.000649681 0)
(0.000614463 -0.000639772 0)
(0.000754466 -0.000588544 0)
(0.00086748 -0.000513022 0)
(0.000944257 -0.000424103 0)
(0.000984738 -0.000329432 0)
(0.000985395 -0.000232493 0)
(0.000946235 -0.000134811 0)
(0.000864918 -3.56935e-05 0)
(0.00073991 6.63393e-05 0)
(0.000567835 0.000173645 0)
(0.000344964 0.000288649 0)
(6.60934e-05 0.000413927 0)
(-0.000274702 0.000551823 0)
(-0.000684505 0.000704559 0)
(-0.00117117 0.000874101 0)
(-0.00174346 0.00106229 0)
(-0.0024109 0.0012708 0)
(-0.00318374 0.0015013 0)
(-0.00407296 0.0017554 0)
(-0.00509021 0.00203475 0)
(-0.00624775 0.002341 0)
(-0.00755843 0.0026758 0)
(-0.00903553 0.0030407 0)
(-0.0106926 0.00343709 0)
(-0.0125434 0.00386604 0)
(-0.0146013 0.00432819 0)
(-0.0168792 0.00482353 0)
(-0.019389 0.00535125 0)
(-0.0221411 0.00590958 0)
(-0.0251438 0.00649563 0)
(-0.0284027 0.00710522 0)
(-0.0319202 0.00773283 0)
(-0.0356948 0.00837147 0)
(-0.0397206 0.00901277 0)
(-0.0439866 0.0096469 0)
(-0.0484768 0.0102628 0)
(-0.0531696 0.0108483 0)
(-0.058038 0.0113902 0)
(-0.0630494 0.011875 0)
(-0.0681666 0.0122888 0)
(-0.0733476 0.0126178 0)
(-0.0785469 0.0128487 0)
(-0.083716 0.0129693 0)
(-0.0888045 0.0129686 0)
(-0.0937612 0.0128372 0)
(-0.0985348 0.0125675 0)
(-0.103075 0.0121543 0)
(-0.107333 0.0115943 0)
(-0.111264 0.0108866 0)
(-0.114824 0.0100327 0)
(-0.117974 0.00903632 0)
(-0.12068 0.00790331 0)
(-0.122909 0.00664162 0)
(-0.124636 0.00526116 0)
(-0.125836 0.00377366 0)
(-0.126493 0.00219251 0)
(-0.126591 0.000532708 0)
(-0.126121 -0.00118931 0)
(-0.125077 -0.00295574 0)
(-0.123457 -0.00474755 0)
(-0.121265 -0.0065446 0)
(-0.118507 -0.00832575 0)
(-0.115194 -0.0100691 0)
(-0.111344 -0.011752 0)
(-0.106977 -0.0133516 0)
(-0.102119 -0.014845 0)
(-0.096802 -0.0162097 0)
(-0.0910623 -0.0174237 0)
(-0.0849415 -0.0184666 0)
(-0.0784866 -0.0193197 0)
(-0.0717495 -0.0199665 0)
(-0.0647867 -0.0203938 0)
(-0.0576589 -0.0205916 0)
(-0.0504302 -0.0205542 0)
(-0.0431674 -0.0202801 0)
(-0.035939 -0.0197729 0)
(-0.028814 -0.0190409 0)
(-0.0218609 -0.0180974 0)
(-0.0151461 -0.0169607 0)
(-0.00873284 -0.0156534 0)
(-0.00267996 -0.0142019 0)
(0.00295955 -0.0126359 0)
(0.00813954 -0.0109875 0)
(0.0128217 -0.00928985 0)
(0.0169762 -0.00757666 0)
(0.0205827 -0.0058808 0)
(0.0236301 -0.00423337 0)
(0.0261172 -0.00266276 0)
(0.0280524 -0.00119377 0)
(0.0294529 0.000153014 0)
(0.0303446 0.00136174 0)
(0.0307607 0.00242154 0)
(0.0307407 0.00332659 0)
(0.030329 0.00407587 0)
(0.0295734 0.00467288 0)
(0.0285236 0.00512497 0)
(0.0272294 0.0054428 0)
(0.0257397 0.00563942 0)
(0.0241006 0.00572967 0)
(0.0223553 0.00572924 0)
(0.0205418 0.00565414 0)
(0.0186945 0.00551973 0)
(0.0168414 0.00534051 0)
(0.0150075 0.00512884 0)
(0.0132106 0.0048952 0)
(0.0114686 0.00464622 0)
(0.00979119 0.00438588 0)
(0.00819375 0.00411213 0)
(0.0066815 0.00382049 0)
(0.00527435 0.00349812 0)
(0.00397586 0.00313341 0)
(0.00281973 0.00270501 0)
(0.00180702 0.00220527 0)
(0.000996751 0.00161798 0)
(0.000379506 0.00097252 0)
(5.64322e-05 0.000292264 0)
(2.14307e-05 -0.000265015 0)
(0.000114182 -0.000585312 0)
(0.00025314 -0.000751095 0)
(0.000389012 -0.000800432 0)
(0.000513233 -0.000771663 0)
(0.000604336 -0.000690407 0)
(0.000660056 -0.000578892 0)
(0.000672157 -0.000450147 0)
(0.000640547 -0.000313718 0)
(0.000561752 -0.000173379 0)
(0.000435075 -3.07123e-05 0)
(0.000257381 0.00011571 0)
(2.58197e-05 0.000268192 0)
(-0.000264435 0.00043023 0)
(-0.000618925 0.000605345 0)
(-0.0010448 0.000797279 0)
(-0.00155022 0.00100944 0)
(-0.00214461 0.00124507 0)
(-0.00283839 0.0015071 0)
(-0.00364306 0.00179823 0)
(-0.00457097 0.002121 0)
(-0.0056354 0.00247784 0)
(-0.00685041 0.00287111 0)
(-0.00823079 0.00330311 0)
(-0.00979196 0.0037761 0)
(-0.0115498 0.00429218 0)
(-0.0135205 0.0048532 0)
(-0.0157201 0.00546056 0)
(-0.0181646 0.00611506 0)
(-0.0208688 0.00681662 0)
(-0.0238462 0.00756405 0)
(-0.0271086 0.00835482 0)
(-0.0306649 0.00918478 0)
(-0.0345205 0.010048 0)
(-0.0386771 0.0109367 0)
(-0.0431311 0.0118409 0)
(-0.047874 0.0127488 0)
(-0.0528911 0.0136466 0)
(-0.0581618 0.0145189 0)
(-0.063659 0.0153486 0)
(-0.0693498 0.0161177 0)
(-0.0751952 0.0168077 0)
(-0.0811515 0.0173998 0)
(-0.0871705 0.0178757 0)
(-0.0932008 0.0182183 0)
(-0.099189 0.0184116 0)
(-0.105081 0.0184422 0)
(-0.110821 0.0182984 0)
(-0.116358 0.0179717 0)
(-0.12164 0.0174561 0)
(-0.126619 0.0167487 0)
(-0.131251 0.0158493 0)
(-0.135494 0.0147606 0)
(-0.139312 0.0134879 0)
(-0.142672 0.0120389 0)
(-0.145545 0.0104236 0)
(-0.147905 0.0086541 0)
(-0.149732 0.00674415 0)
(-0.151006 0.00470937 0)
(-0.151713 0.00256689 0)
(-0.151842 0.00033534 0)
(-0.151383 -0.00196525 0)
(-0.150331 -0.00431351 0)
(-0.148683 -0.00668678 0)
(-0.146441 -0.00906115 0)
(-0.143608 -0.0114116 0)
(-0.140192 -0.013712 0)
(-0.136205 -0.0159355 0)
(-0.131663 -0.0180546 0)
(-0.126589 -0.0200415 0)
(-0.121007 -0.0218684 0)
(-0.11495 -0.0235084 0)
(-0.108454 -0.0249355 0)
(-0.101562 -0.0261256 0)
(-0.0943232 -0.0270574 0)
(-0.0867911 -0.0277125 0)
(-0.0790249 -0.0280768 0)
(-0.0710886 -0.0281407 0)
(-0.06305 -0.0279001 0)
(-0.0549797 -0.0273566 0)
(-0.0469506 -0.0265179 0)
(-0.0390357 -0.0253982 0)
(-0.0313076 -0.0240173 0)
(-0.0238366 -0.0224013 0)
(-0.0166896 -0.0205811 0)
(-0.00992828 -0.0185923 0)
(-0.00360832 -0.0164738 0)
(0.00222195 -0.0142668 0)
(0.0075224 -0.0120135 0)
(0.0122619 -0.00975604 0)
(0.0164186 -0.00753513 0)
(0.0199806 -0.00538881 0)
(0.0229457 -0.00335145 0)
(0.0253213 -0.00145279 0)
(0.0271241 0.000282818 0)
(0.0283793 0.00183688 0)
(0.0291198 0.00319708 0)
(0.0293851 0.00435728 0)
(0.02922 0.00531727 0)
(0.0286732 0.0060823 0)
(0.0277953 0.00666241 0)
(0.0266383 0.0070716 0)
(0.0252528 0.00732691 0)
(0.0236879 0.00744736 0)
(0.0219886 0.00745312 0)
(0.0201971 0.00736426 0)
(0.0183493 0.00720019 0)
(0.0164785 0.00697809 0)
(0.0146101 0.00671279 0)
(0.0127696 0.00641464 0)
(0.010973 0.00609016 0)
(0.00924217 0.00573884 0)
(0.00758651 0.00535601 0)
(0.00603151 0.00492769 0)
(0.00458246 0.00443896 0)
(0.00327942 0.00386488 0)
(0.00212336 0.0031911 0)
(0.0011857 0.00239553 0)
(0.000457975 0.00149389 0)
(6.97645e-05 0.000497143 0)
(1.84632e-05 -0.000322392 0)
(9.43265e-05 -0.000694936 0)
(0.000200023 -0.000874224 0)
(0.000290678 -0.000910039 0)
(0.000357094 -0.000852316 0)
(0.000380819 -0.00073196 0)
(0.000359835 -0.000576207 0)
(0.000287553 -0.00039987 0)
(0.000163755 -0.000213985 0)
(-1.47782e-05 -2.21587e-05 0)
(-0.000249645 0.000174373 0)
(-0.00054487 0.000378164 0)
(-0.000904926 0.000592671 0)
(-0.00133636 0.000822827 0)
(-0.00184688 0.0010735 0)
(-0.00244593 0.00134983 0)
(-0.00314426 0.00165647 0)
(-0.003954 0.00199791 0)
(-0.00488849 0.00237816 0)
(-0.00596221 0.00280098 0)
(-0.0071907 0.00326984 0)
(-0.00859042 0.00378806 0)
(-0.0101787 0.00435877 0)
(-0.0119735 0.00498496 0)
(-0.0139933 0.00566935 0)
(-0.0162569 0.00641431 0)
(-0.0187828 0.00722163 0)
(-0.0215893 0.00809225 0)
(-0.0246931 0.00902602 0)
(-0.0281097 0.0100213 0)
(-0.0318516 0.0110747 0)
(-0.0359285 0.0121806 0)
(-0.0403455 0.0133313 0)
(-0.0451032 0.0145162 0)
(-0.0501963 0.0157224 0)
(-0.0556133 0.016934 0)
(-0.0613358 0.0181329 0)
(-0.0673386 0.0192988 0)
(-0.0735897 0.0204095 0)
(-0.0800506 0.0214419 0)
(-0.0866767 0.0223719 0)
(-0.0934188 0.0231761 0)
(-0.100224 0.0238315 0)
(-0.107036 0.0243171 0)
(-0.113799 0.0246138 0)
(-0.120456 0.0247055 0)
(-0.126951 0.0245793 0)
(-0.133232 0.0242254 0)
(-0.139249 0.0236379 0)
(-0.144956 0.0228141 0)
(-0.15031 0.0217547 0)
(-0.155273 0.0204636 0)
(-0.159812 0.0189475 0)
(-0.163895 0.0172155 0)
(-0.167495 0.015279 0)
(-0.17059 0.0131517 0)
(-0.173157 0.0108486 0)
(-0.175178 0.00838656 0)
(-0.176638 0.00578399 0)
(-0.177521 0.00306059 0)
(-0.177817 0.000237523 0)
(-0.177514 -0.00266266 0)
(-0.176605 -0.00561597 0)
(-0.175085 -0.00859697 0)
(-0.17295 -0.0115788 0)
(-0.1702 -0.014533 0)
(-0.166838 -0.0174299 0)
(-0.162869 -0.0202386 0)
(-0.158304 -0.022927 0)
(-0.153158 -0.0254624 0)
(-0.147452 -0.0278118 0)
(-0.141209 -0.0299424 0)
(-0.134462 -0.0318225 0)
(-0.127249 -0.0334219 0)
(-0.119613 -0.0347128 0)
(-0.111605 -0.0356712 0)
(-0.103283 -0.0362773 0)
(-0.0947092 -0.0365165 0)
(-0.0859523 -0.0363805 0)
(-0.0770856 -0.0358678 0)
(-0.0681856 -0.0349841 0)
(-0.0593309 -0.0337429 0)
(-0.0506007 -0.0321652 0)
(-0.0420733 -0.0302794 0)
(-0.0338241 -0.0281204 0)
(-0.0259243 -0.0257291 0)
(-0.0184396 -0.023151 0)
(-0.0114283 -0.020435 0)
(-0.0049408 -0.0176321 0)
(0.000981641 -0.0147936 0)
(0.00630725 -0.0119699 0)
(0.0110142 -0.00920895 0)
(0.0150907 -0.00655499 0)
(0.018535 -0.00404746 0)
(0.0213548 -0.00171994 0)
(0.0235673 0.00040051 0)
(0.025198 0.00229386 0)
(0.0262801 0.00394736 0)
(0.0268536 0.00535544 0)
(0.0269637 0.00651943 0)
(0.0266595 0.00744697 0)
(0.0259931 0.00815118 0)
(0.0250169 0.00864973 0)
(0.0237836 0.0089636 0)
(0.0223432 0.00911608 0)
(0.0207439 0.00913125 0)
(0.0190284 0.009033 0)
(0.0172375 0.00884332 0)
(0.015404 0.00858159 0)
(0.0135609 0.00826232 0)
(0.011731 0.00789519 0)
(0.00994278 0.00748199 0)
(0.00821081 0.00701854 0)
(0.00656666 0.00649046 0)
(0.00501857 0.00587963 0)
(0.00361335 0.00515767 0)
(0.00235369 0.00430183 0)
(0.00132244 0.00328235 0)
(0.000513493 0.00209637 0)
(7.8578e-05 0.000737775 0)
(1.46731e-05 -0.000367666 0)
(6.79078e-05 -0.000773502 0)
(0.000129402 -0.000950012 0)
(0.00016145 -0.000958473 0)
(0.000154394 -0.000860024 0)
(9.42395e-05 -0.000690666 0)
(-2.07867e-05 -0.000482128 0)
(-0.000195048 -0.000250468 0)
(-0.000429033 -7.57532e-06 0)
(-0.000725599 0.000243693 0)
(-0.00108752 0.000502996 0)
(-0.00151986 0.000774482 0)
(-0.00202908 0.00106315 0)
(-0.00262374 0.0013757 0)
(-0.00331413 0.0017186 0)
(-0.00411232 0.00209861 0)
(-0.00503204 0.00252185 0)
(-0.00608845 0.00299415 0)
(-0.00729813 0.00352076 0)
(-0.00867884 0.0041066 0)
(-0.0102495 0.00475613 0)
(-0.0120299 0.00547357 0)
(-0.0140406 0.00626278 0)
(-0.0163028 0.00712724 0)
(-0.0188377 0.00806991 0)
(-0.0216665 0.00909299 0)
(-0.0248096 0.0101976 0)
(-0.0282858 0.0113835 0)
(-0.0321122 0.0126486 0)
(-0.0363026 0.0139885 0)
(-0.040867 0.0153961 0)
(-0.0458104 0.0168616 0)
(-0.0511323 0.0183716 0)
(-0.0568256 0.0199096 0)
(-0.0628758 0.0214559 0)
(-0.0692611 0.0229875 0)
(-0.0759521 0.0244791 0)
(-0.082912 0.0259031 0)
(-0.0900973 0.0272308 0)
(-0.0974585 0.0284332 0)
(-0.104942 0.0294816 0)
(-0.112491 0.0303489 0)
(-0.120046 0.0310102 0)
(-0.127549 0.0314438 0)
(-0.134943 0.0316314 0)
(-0.142171 0.0315588 0)
(-0.149183 0.0312157 0)
(-0.15593 0.0305961 0)
(-0.162368 0.0296979 0)
(-0.168457 0.0285227 0)
(-0.174162 0.0270752 0)
(-0.179451 0.0253632 0)
(-0.184296 0.023397 0)
(-0.18867 0.021189 0)
(-0.192551 0.0187534 0)
(-0.195918 0.0161063 0)
(-0.198753 0.013265 0)
(-0.201038 0.0102482 0)
(-0.202758 0.007076 0)
(-0.203897 0.00376971 0)
(-0.204444 0.000352084 0)
(-0.204386 -0.00315268 0)
(-0.203712 -0.00671885 0)
(-0.202415 -0.010319 0)
(-0.200485 -0.013924 0)
(-0.19792 -0.0175028 0)
(-0.194715 -0.0210228 0)
(-0.190872 -0.0244494 0)
(-0.186394 -0.0277466 0)
(-0.181289 -0.0308771 0)
(-0.175571 -0.0338027 0)
(-0.169256 -0.0364849 0)
(-0.162369 -0.0388855 0)
(-0.154941 -0.0409679 0)
(-0.147011 -0.0426974 0)
(-0.138622 -0.0440426 0)
(-0.129829 -0.044977 0)
(-0.120692 -0.0454795 0)
(-0.11128 -0.0455357 0)
(-0.101666 -0.0451391 0)
(-0.0919312 -0.0442918 0)
(-0.0821589 -0.0430051 0)
(-0.0724357 -0.0412992 0)
(-0.0628487 -0.0392037 0)
(-0.0534835 -0.0367565 0)
(-0.0444224 -0.0340031 0)
(-0.0357424 -0.0309953 0)
(-0.0275134 -0.0277897 0)
(-0.0197973 -0.0244458 0)
(-0.0126461 -0.0210244 0)
(-0.00610197 -0.0175859 0)
(-0.000196318 -0.0141885 0)
(0.00505008 -0.0108867 0)
(0.00962701 -0.00773004 0)
(0.0135344 -0.00476173 0)
(0.0167821 -0.00201801 0)
(0.0193889 0.000472642 0)
(0.0213818 0.00268985 0)
(0.0227955 0.0046215 0)
(0.0236711 0.00626354 0)
(0.0240547 0.00761961 0)
(0.0239967 0.00870023 0)
(0.0235495 0.00952199 0)
(0.0227674 0.0101063 0)
(0.0217032 0.010478 0)
(0.0204095 0.0106641 0)
(0.0189344 0.0106921 0)
(0.0173249 0.0105882 0)
(0.0156204 0.0103763 0)
(0.0138611 0.010075 0)
(0.0120763 0.00969757 0)
(0.0103016 0.00924863 0)
(0.00855705 0.00872504 0)
(0.00688058 0.00811271 0)
(0.00528454 0.00739052 0)
(0.00382242 0.00652663 0)
(0.00250008 0.00548881 0)
(0.00140986 0.00423811 0)
(0.00054898 0.00275019 0)
(8.41175e-05 0.000999718 0)
(1.001e-05 -0.000399429 0)
(3.54801e-05 -0.000815506 0)
(4.33158e-05 -0.000969877 0)
(5.04271e-06 -0.00093514 0)
(-8.92273e-05 -0.000782916 0)
(-0.000247822 -0.000553802 0)
(-0.000472266 -0.000283271 0)
(-0.000764218 1.20664e-05 0)
(-0.00112463 0.000320216 0)
(-0.00155594 0.000639748 0)
(-0.00206241 0.000971837 0)
(-0.00265038 0.00132275 0)
(-0.00332865 0.00169946 0)
(-0.00410812 0.00211079 0)
(-0.00500206 0.00256511 0)
(-0.00602553 0.003071 0)
(-0.00719557 0.00363621 0)
(-0.00853072 0.00426808 0)
(-0.0100511 0.00497317 0)
(-0.0117778 0.00575757 0)
(-0.0137334 0.00662677 0)
(-0.015941 0.00758578 0)
(-0.0184243 0.00863898 0)
(-0.0212072 0.00979005 0)
(-0.0243134 0.0110417 0)
(-0.0277655 0.0123953 0)
(-0.0315846 0.0138505 0)
(-0.0357891 0.0154047 0)
(-0.0403942 0.0170525 0)
(-0.0454104 0.0187854 0)
(-0.0508427 0.0205911 0)
(-0.0566894 0.0224536 0)
(-0.0629418 0.0243525 0)
(-0.0695827 0.0262639 0)
(-0.0765871 0.02816 0)
(-0.0839215 0.03001 0)
(-0.0915449 0.0317809 0)
(-0.0994093 0.0334384 0)
(-0.107461 0.0349483 0)
(-0.115643 0.0362769 0)
(-0.123895 0.0373929 0)
(-0.132155 0.038268 0)
(-0.140365 0.0388777 0)
(-0.148466 0.0392018 0)
(-0.156402 0.0392248 0)
(-0.164124 0.0389363 0)
(-0.171585 0.0383299 0)
(-0.178743 0.0374042 0)
(-0.18556 0.0361611 0)
(-0.192001 0.0346062 0)
(-0.198038 0.0327481 0)
(-0.203642 0.0305976 0)
(-0.208789 0.028168 0)
(-0.213458 0.0254739 0)
(-0.217627 0.0225316 0)
(-0.221279 0.0193589 0)
(-0.224397 0.0159745 0)
(-0.226963 0.0123983 0)
(-0.228964 0.00865161 0)
(-0.230386 0.00475673 0)
(-0.231214 0.000737411 0)
(-0.231436 -0.00338109 0)
(-0.231041 -0.00757189 0)
(-0.230017 -0.0118063 0)
(-0.228354 -0.0160535 0)
(-0.226044 -0.0202807 0)
(-0.223078 -0.0244529 0)
(-0.219452 -0.0285327 0)
(-0.215162 -0.0324807 0)
(-0.210208 -0.0362556 0)
(-0.204596 -0.0398143 0)
(-0.198334 -0.0431127 0)
(-0.191436 -0.0461064 0)
(-0.183924 -0.0487515 0)
(-0.175827 -0.0510057 0)
(-0.167183 -0.0528295 0)
(-0.158036 -0.0541879 0)
(-0.148444 -0.0550513 0)
(-0.138469 -0.0553975 0)
(-0.128187 -0.0552129 0)
(-0.117678 -0.0544934 0)
(-0.107031 -0.0532457 0)
(-0.0963392 -0.0514876 0)
(-0.0856997 -0.0492479 0)
(-0.0752096 -0.0465664 0)
(-0.0649641 -0.0434922 0)
(-0.0550546 -0.0400832 0)
(-0.0455653 -0.0364037 0)
(-0.0365721 -0.0325224 0)
(-0.0281406 -0.0285105 0)
(-0.020325 -0.0244394 0)
(-0.0131677 -0.0203785 0)
(-0.00669897 -0.0163936 0)
(-0.000937184 -0.0125451 0)
(0.00411049 -0.00888653 0)
(0.00844756 -0.00546398 0)
(0.0120873 -0.00231494 0)
(0.015052 0.00053206 0)
(0.0173718 0.00305762 0)
(0.0190841 0.00525149 0)
(0.0202319 0.00711222 0)
(0.0208637 0.00864658 0)
(0.0210309 0.00986869 0)
(0.0207878 0.0107989 0)
(0.0201888 0.0114625 0)
(0.0192894 0.011888 0)
(0.0181415 0.0121056 0)
(0.016797 0.012145 0)
(0.0153011 0.0120337 0)
(0.0137001 0.0117947 0)
(0.0120297 0.0114445 0)
(0.0103321 0.0109911 0)
(0.00863313 0.0104325 0)
(0.00697723 0.00975547 0)
(0.00538172 0.00893599 0)
(0.00390648 0.00793885 0)
(0.00256171 0.00672193 0)
(0.00144705 0.00523645 0)
(0.000563497 0.00343593 0)
(8.59922e-05 0.00127504 0)
(4.6764e-06 -0.0004139 0)
(-2.14485e-06 -0.000812204 0)
(-5.65744e-05 -0.000921678 0)
(-0.000175873 -0.000825602 0)
(-0.000369969 -0.000605167 0)
(-0.000640376 -0.000304761 0)
(-0.00098837 3.73929e-05 0)
(-0.0014125 0.000405043 0)
(-0.00191439 0.000787017 0)
(-0.00249614 0.00118412 0)
(-0.00316384 0.00159975 0)
(-0.00392533 0.00204288 0)
(-0.00479222 0.00252295 0)
(-0.0057781 0.00305124 0)
(-0.00689958 0.00363831 0)
(-0.00817508 0.00429477 0)
(-0.00962529 0.00503011 0)
(-0.0112723 0.00585326 0)
(-0.01314 0.00677211 0)
(-0.0152532 0.00779391 0)
(-0.0176376 0.00892498 0)
(-0.0203198 0.0101709 0)
(-0.0233261 0.0115362 0)
(-0.0266827 0.0130242 0)
(-0.0304147 0.0146367 0)
(-0.0345452 0.0163732 0)
(-0.0390944 0.0182306 0)
(-0.0440787 0.0202027 0)
(-0.0495093 0.0222793 0)
(-0.055391 0.0244459 0)
(-0.0617217 0.0266833 0)