/*--------------------------------*- C++ -*----------------------------------*\
| =========                 |                                                 |
| \\      /  F ield         | OpenFOAM: The Open Source CFD Toolbox           |
|  \\    /   O peration     | Version:  2406                                  |
|   \\  /    A nd           | Website:  www.openfoam.com                      |
|    \\/     M anipulation  |                                                 |
\*---------------------------------------------------------------------------*/
FoamFile
{
    version     2.0;
    format      ascii;
    arch        "LSB;label=32;scalar=64";
    class       volVectorField;
    location    "29.4";
    object      dU;
}
// * * * * * * * * * * * * * * * * * * * * * * * * * * * * * * * * * * * * * //

dimensions      [0 1 -1 0 0 0 0];

internalField   nonuniform List<vector> 
900
(
(1.08965e-05 -1.50963e-06 0)
(-8.82842e-06 -5.64626e-06 0)
(-3.92044e-05 -4.73534e-06 0)
(-4.68335e-05 -7.89385e-07 0)
(-5.37808e-05 5.02886e-06 0)
(-6.1417e-05 1.18007e-05 0)
(-8.1693e-05 1.83563e-05 0)
(-0.000120499 2.64489e-05 0)
(-0.00017549 5.55623e-05 0)
(-0.000199434 0.000100573 0)
(-0.000159524 0.000103844 0)
(-7.99874e-05 5.202e-05 0)
(-1.36437e-05 -1.34261e-05 0)
(2.66807e-05 -6.80855e-05 0)
(9.05707e-05 -0.000107108 0)
(0.000213287 -0.000133883 0)
(0.000390687 -0.00015454 0)
(0.000581165 -0.000172673 0)
(0.00074258 -0.000189893 0)
(0.000800358 -0.000204993 0)
(0.000717697 -0.000213939 0)
(0.000440657 -0.000215156 0)
(3.88702e-05 -0.000204558 0)
(-0.000383106 -0.000188291 0)
(-0.000584685 -0.000166511 0)
(-0.000497677 -0.000134086 0)
(-0.000249364 -9.18233e-05 0)
(-8.02589e-05 -3.47989e-05 0)
(-2.2737e-05 -1.42228e-06 0)
(2.70998e-05 1.17534e-05 0)
(7.26029e-06 8.14315e-06 0)
(-1.21935e-05 -2.97839e-06 0)
(-3.50457e-05 -7.4164e-06 0)
(-3.68688e-05 -6.50724e-06 0)
(-4.04368e-05 1.95652e-06 0)
(-4.73041e-05 1.2294e-05 0)
(-6.71485e-05 2.69077e-05 0)
(-8.60669e-05 4.06267e-05 0)
(-0.000109709 3.31471e-05 0)
(-0.000168497 -6.35139e-06 0)
(-0.000230917 -8.29691e-05 0)
(-0.000213382 -0.00020608 0)
(-0.000138711 -0.000351977 0)
(-6.79201e-05 -0.000480663 0)
(2.23782e-05 -0.000569051 0)
(0.000161706 -0.000623452 0)
(0.000346347 -0.000659603 0)
(0.000539255 -0.000687431 0)
(0.000703171 -0.00071159 0)
(0.00076922 -0.000724742 0)
(0.000701031 -0.000713532 0)
(0.00044461 -0.000667152 0)
(6.20485e-05 -0.000572218 0)
(-0.00034653 -0.000458273 0)
(-0.000528261 -0.000340755 0)
(-0.000417957 -0.000260045 0)
(-0.000146468 -0.000204559 0)
(1.00167e-05 -0.000131161 0)
(2.1653e-05 -9.02497e-05 0)
(3.92875e-05 -7.53048e-05 0)
(2.29692e-06 3.78288e-05 0)
(-2.29668e-05 1.93338e-05 0)
(-4.44693e-05 1.08417e-05 0)
(-3.85178e-05 7.2429e-06 0)
(-3.58803e-05 1.49774e-05 0)
(-3.91605e-05 1.75793e-05 0)
(-6.19281e-05 5.8944e-08 0)
(-0.000135481 -6.24205e-05 0)
(-0.000256609 -0.000182483 0)
(-0.000349536 -0.000359806 0)
(-0.000382866 -0.000542102 0)
(-0.000362403 -0.000707098 0)
(-0.000295628 -0.000867854 0)
(-0.000196791 -0.00100588 0)
(-6.04082e-05 -0.00110293 0)
(0.000112384 -0.00116811 0)
(0.000314106 -0.00122078 0)
(0.000514979 -0.00126893 0)
(0.000690228 -0.0013177 0)
(0.0007836 -0.00134633 0)
(0.000761833 -0.00133306 0)
(0.000571063 -0.00123917 0)
(0.000240939 -0.001038 0)
(-0.00015198 -0.000757742 0)
(-0.000376905 -0.000434787 0)
(-0.000343463 -0.00023229 0)
(-0.000103976 -0.00011594 0)
(4.28765e-05 -0.000114713 0)
(3.40211e-05 -0.000128607 0)
(4.10847e-05 -0.000135057 0)
(-7.50207e-06 6.68916e-05 0)
(-3.72176e-05 3.87973e-05 0)
(-5.12094e-05 3.20106e-05 0)
(-3.83528e-05 2.38758e-05 0)
(-3.90916e-05 1.73252e-05 0)
(-8.0448e-05 -2.60618e-05 0)
(-0.000179088 -0.000127443 0)
(-0.000306414 -0.000309707 0)
(-0.000435699 -0.000530846 0)
(-0.000541724 -0.000747821 0)
(-0.000582059 -0.000942412 0)
(-0.000539626 -0.00110317 0)
(-0.000437741 -0.0012294 0)
(-0.000304608 -0.00132282 0)
(-0.000143347 -0.00139147 0)
(3.86195e-05 -0.00144776 0)
(0.000238885 -0.00151041 0)
(0.000434862 -0.00158109 0)
(0.000617919 -0.00166768 0)
(0.000746308 -0.00174019 0)
(0.000801721 -0.0017806 0)
(0.000735287 -0.00172054 0)
(0.000542035 -0.00152546 0)
(0.000260416 -0.00116891 0)
(9.53738e-06 -0.000696324 0)
(-7.75569e-05 -0.000298266 0)
(-8.86476e-06 -5.62378e-05 0)
(1.11753e-05 -1.46035e-05 0)
(5.89888e-06 -9.71331e-05 0)
(3.239e-05 -0.000114545 0)
(-2.3319e-05 0.000121314 0)
(-5.96835e-05 8.97385e-05 0)
(-6.9397e-05 8.5731e-05 0)
(-6.81231e-05 5.69874e-05 0)
(-0.00011005 6.85535e-07 0)
(-0.000219247 -0.000130567 0)
(-0.000382144 -0.000334724 0)
(-0.000561536 -0.00059157 0)
(-0.000698892 -0.000851462 0)
(-0.00075479 -0.00106603 0)
(-0.000728416 -0.00121072 0)
(-0.000639143 -0.00129957 0)
(-0.00050622 -0.00135497 0)
(-0.000351624 -0.00138882 0)
(-0.000179865 -0.00141467 0)
(-2.28425e-06 -0.00144095 0)
(0.000184496 -0.00148514 0)
(0.000361469 -0.00154418 0)
(0.000535419 -0.00163278 0)
(0.000675758 -0.00172201 0)
(0.00078765 -0.00181254 0)
(0.000833677 -0.00183018 0)
(0.000801167 -0.0017529 0)
(0.00068694 -0.00149349 0)
(0.000504603 -0.00107516 0)
(0.000309727 -0.000593272 0)
(0.000185918 -0.000224048 0)
(5.54295e-07 -1.79832e-05 0)
(-6.68604e-05 -0.000124841 0)
(2.16976e-05 -0.000121825 0)
(-3.91087e-05 0.000163373 0)
(-8.08402e-05 0.000134193 0)
(-0.000102848 0.000127258 0)
(-0.000150206 6.27754e-05 0)
(-0.000261183 -6.16442e-05 0)
(-0.000449298 -0.000278072 0)
(-0.000658182 -0.000550234 0)
(-0.000820742 -0.000823467 0)
(-0.000894866 -0.00103277 0)
(-0.00088216 -0.00116362 0)
(-0.000797626 -0.00122792 0)
(-0.000669179 -0.00124671 0)
(-0.000516314 -0.00124436 0)
(-0.000357355 -0.00123419 0)
(-0.000191478 -0.00123045 0)
(-2.96519e-05 -0.00123413 0)
(0.000137333 -0.00125906 0)
(0.000289638 -0.00129594 0)
(0.000444497 -0.00136401 0)
(0.000573725 -0.00143822 0)
(0.000704212 -0.0015406 0)
(0.000809126 -0.0016101 0)
(0.000896285 -0.00165643 0)
(0.000958196 -0.00156862 0)
(0.000928688 -0.00135086 0)
(0.000789303 -0.000988103 0)
(0.000566394 -0.000492163 0)
(9.15079e-05 -0.000303273 0)
(-0.000112163 -5.39937e-05 0)
(3.027e-05 -0.000203268 0)
(-5.60187e-05 0.000170752 0)
(-0.000111314 0.000146131 0)
(-0.000167989 0.000120662 0)
(-0.000289284 1.0259e-05 0)
(-0.000481583 -0.000178809 0)
(-0.000724933 -0.000445759 0)
(-0.000923449 -0.000718277 0)
(-0.00102422 -0.000936292 0)
(-0.00101539 -0.001068 0)
(-0.000929801 -0.00112259 0)
(-0.000797802 -0.00112521 0)
(-0.000649643 -0.00110273 0)
(-0.000494577 -0.00107863 0)
(-0.000343914 -0.00105936 0)
(-0.000189425 -0.00105455 0)
(-4.23313e-05 -0.00105592 0)
(0.00011095 -0.00107357 0)
(0.0002458 -0.00109098 0)
(0.000385181 -0.00112935 0)
(0.000495525 -0.00116398 0)
(0.000618302 -0.00123154 0)
(0.000727202 -0.00128704 0)
(0.000859103 -0.00137481 0)
(0.00101564 -0.00139725 0)
(0.00111245 -0.00138869 0)
(0.00119548 -0.00121041 0)
(0.000884554 -0.000841968 0)
(0.000427323 -0.000614055 0)
(3.12341e-06 2.35716e-06 0)
(-0.000135605 -0.000354893 0)
(-7.03266e-05 0.000100902 0)
(-0.000151842 8.18439e-05 0)
(-0.00026919 3.50503e-05 0)
(-0.000479599 -0.000107149 0)
(-0.000736801 -0.000325556 0)
(-0.000988654 -0.000584215 0)
(-0.00112984 -0.000803619 0)
(-0.00114507 -0.000941665 0)
(-0.00106067 -0.00099591 0)
(-0.000928096 -0.000994662 0)
(-0.000776829 -0.000967996 0)
(-0.000630679 -0.000938001 0)
(-0.000486974 -0.000921762 0)
(-0.000350651 -0.000917128 0)
(-0.000206696 -0.000929746 0)
(-6.79118e-05 -0.000943288 0)
(8.27613e-05 -0.000966951 0)
(0.000214109 -0.000977384 0)
(0.000352696 -0.000998073 0)
(0.000455353 -0.00100067 0)
(0.000570614 -0.00102908 0)
(0.000663159 -0.00104542 0)
(0.000792512 -0.00111368 0)
(0.000959741 -0.00116122 0)
(0.00113877 -0.00125878 0)
(0.0013676 -0.00122156 0)
(0.00119106 -0.00114064 0)
(0.000941957 -0.000723967 0)
(0.000119334 -0.000387717 0)
(-0.000340289 -0.000314608 0)
(-8.38332e-05 -4.1175e-05 0)
(-0.000201134 -5.53124e-05 0)
(-0.000386687 -0.000118737 0)
(-0.000672967 -0.000264125 0)
(-0.000965616 -0.000466493 0)
(-0.00118979 -0.000670332 0)
(-0.00125592 -0.000811831 0)
(-0.00119422 -0.00087356 0)
(-0.00105684 -0.000874263 0)
(-0.000901978 -0.00084493 0)
(-0.000750856 -0.000813222 0)
(-0.000618171 -0.000793202 0)
(-0.000489169 -0.000795487 0)
(-0.000365754 -0.000810079 0)
(-0.000227487 -0.000840944 0)
(-9.10583e-05 -0.000865709 0)
(6.38915e-05 -0.000895657 0)
(0.000198554 -0.000901748 0)
(0.000342914 -0.000911359 0)
(0.00044421 -0.000891899 0)
(0.000555631 -0.00089143 0)
(0.000631179 -0.000873195 0)
(0.000740833 -0.000907097 0)
(0.000878281 -0.000938736 0)
(0.00106696 -0.00105413 0)
(0.00133821 -0.00110967 0)
(0.00141131 -0.00117592 0)
(0.00120171 -0.000836233 0)
(0.000407584 -0.000610219 0)
(-8.95558e-05 2.35445e-05 0)
(-9.40356e-05 -0.000211854 0)
(-0.000253524 -0.000218512 0)
(-0.000504136 -0.000283161 0)
(-0.000842631 -0.000405524 0)
(-0.00113983 -0.000562384 0)
(-0.00131385 -0.000695043 0)
(-0.00130884 -0.000763491 0)
(-0.00119231 -0.000768826 0)
(-0.0010295 -0.00073911 0)
(-0.000874191 -0.000700942 0)
(-0.000736326 -0.000677078 0)
(-0.000621825 -0.000672317 0)
(-0.000506956 -0.000693473 0)
(-0.000393418 -0.000724077 0)
(-0.000256392 -0.000769493 0)
(-0.000117499 -0.000802368 0)
(4.72718e-05 -0.000838171 0)
(0.000191403 -0.000842173 0)
(0.000347813 -0.000846377 0)
(0.000454636 -0.000813358 0)
(0.000566952 -0.000794298 0)
(0.000629542 -0.000751029 0)
(0.000717485 -0.000753734 0)
(0.000816034 -0.000756878 0)
(0.000979121 -0.000851079 0)
(0.00126381 -0.00092986 0)
(0.00148919 -0.00104437 0)
(0.00152963 -0.000890856 0)
(0.000989263 -0.000437175 0)
(0.00027885 0.000139773 0)
(-0.000100703 -0.000367727 0)
(-0.000296309 -0.000365343 0)
(-0.000596199 -0.00041923 0)
(-0.000960892 -0.000500839 0)
(-0.00124513 -0.000599085 0)
(-0.0013682 -0.000661679 0)
(-0.00130895 -0.000672996 0)
(-0.00116087 -0.000642296 0)
(-0.000990606 -0.000599214 0)
(-0.000845632 -0.000561533 0)
(-0.000724089 -0.000548179 0)
(-0.000626889 -0.000555133 0)
(-0.000523106 -0.00058881 0)
(-0.000416944 -0.000627195 0)
(-0.000279038 -0.000679673 0)
(-0.000136891 -0.00071457 0)
(3.79622e-05 -0.000752986 0)
(0.000191678 -0.000755231 0)
(0.000360416 -0.000758293 0)
(0.000475008 -0.0007206 0)
(0.000591132 -0.000695627 0)
(0.000646953 -0.000642323 0)
(0.000717253 -0.000628663 0)
(0.000777792 -0.000612132 0)
(0.000903235 -0.000682869 0)
(0.0011614 -0.000764621 0)
(0.0014726 -0.000938427 0)
(0.00182909 -0.000951133 0)
(0.0014507 -0.000692985 0)
(0.0004958 -0.000378785 0)
(-0.000102206 -0.000465785 0)
(-0.000328024 -0.000453856 0)
(-0.000658417 -0.000490942 0)
(-0.00102594 -0.000531465 0)
(-0.00128635 -0.000577132 0)
(-0.00136484 -0.000586942 0)
(-0.00127234 -0.000562254 0)
(-0.00111281 -0.000513584 0)
(-0.000948959 -0.00046797 0)
(-0.000820101 -0.000434527 0)
(-0.000715583 -0.000430017 0)
(-0.000633852 -0.000442847 0)
(-0.000539113 -0.000481847 0)
(-0.000439032 -0.000519905 0)
(-0.000299899 -0.000572378 0)
(-0.000155099 -0.000603341 0)
(2.83182e-05 -0.000640185 0)
(0.000190169 -0.000638929 0)
(0.000369404 -0.000641175 0)
(0.000491488 -0.000602357 0)
(0.000611811 -0.000577704 0)
(0.000664304 -0.000523868 0)
(0.000722173 -0.000507121 0)
(0.000751351 -0.000482834 0)
(0.000832641 -0.000538621 0)
(0.0010241 -0.00061491 0)
(0.00132308 -0.000823776 0)
(0.00179777 -0.000976789 0)
(0.00157366 -0.00107816 0)
(0.000599114 -0.000982899 0)
(-9.98044e-05 -0.000498139 0)
(-0.00034387 -0.000476614 0)
(-0.00068994 -0.000495761 0)
(-0.00104733 -0.000499124 0)
(-0.00128435 -0.00050357 0)
(-0.00133141 -0.000476891 0)
(-0.00122063 -0.000433208 0)
(-0.00106011 -0.000377465 0)
(-0.000904987 -0.00033471 0)
(-0.000790957 -0.000305007 0)
(-0.000699341 -0.00030553 0)
(-0.000630027 -0.000317896 0)
(-0.000542091 -0.000355526 0)
(-0.000447897 -0.000386664 0)
(-0.000308782 -0.000433542 0)
(-0.000163954 -0.000456409 0)
(2.40376e-05 -0.000488776 0)
(0.00019001 -0.000483665 0)
(0.000375296 -0.000486201 0)
(0.000501944 -0.000449965 0)
(0.000624724 -0.00043057 0)
(0.000674156 -0.000382923 0)
(0.000723346 -0.000371969 0)
(0.000727825 -0.000349125 0)
(0.000773636 -0.000400091 0)
(0.000893019 -0.000464781 0)
(0.0011312 -0.0006755 0)
(0.00159545 -0.000879788 0)
(0.00145722 -0.00116997 0)
(0.000592778 -0.00122065 0)
(-9.23877e-05 -0.000468115 0)
(-0.000347853 -0.000439364 0)
(-0.000694977 -0.000442984 0)
(-0.00103183 -0.000420555 0)
(-0.00124669 -0.00039753 0)
(-0.0012729 -0.000351408 0)
(-0.00115786 -0.00030147 0)
(-0.0010041 -0.00024698 0)
(-0.000860871 -0.000210042 0)
(-0.000760257 -0.000183468 0)
(-0.000679214 -0.000186101 0)
(-0.000620024 -0.000193785 0)
(-0.000538143 -0.000225873 0)
(-0.000450368 -0.000245976 0)
(-0.000313611 -0.000283518 0)
(-0.000171897 -0.000295138 0)
(1.59949e-05 -0.000320149 0)
(0.000181686 -0.000309677 0)
(0.000368271 -0.000311461 0)
(0.000496045 -0.000278152 0)
(0.000619683 -0.000265032 0)
(0.000665932 -0.00022536 0)
(0.00070982 -0.000223783 0)
(0.000695273 -0.000205682 0)
(0.000713552 -0.000257745 0)
(0.00076476 -0.000309828 0)
(0.000930926 -0.000506736 0)
(0.00132395 -0.000709234 0)
(0.00124518 -0.00106923 0)
(0.00055094 -0.00117767 0)
(-8.36463e-05 -0.000394014 0)
(-0.000341115 -0.000357581 0)
(-0.00068414 -0.000347887 0)
(-0.000999409 -0.000305924 0)
(-0.00119794 -0.00026647 0)
(-0.00121433 -0.0002099 0)
(-0.00109987 -0.000161757 0)
(-0.000953323 -0.000111495 0)
(-0.000816418 -8.19054e-05 0)
(-0.000724042 -5.74604e-05 0)
(-0.000647882 -6.0703e-05 0)
(-0.000595901 -6.17376e-05 0)
(-0.000518659 -8.63219e-05 0)
(-0.000437913 -9.39356e-05 0)
(-0.000305836 -0.00012051 0)
(-0.000170369 -0.000120132 0)
(1.28125e-05 -0.000136686 0)
(0.000173677 -0.000120813 0)
(0.00035673 -0.000121545 0)
(0.000481198 -9.15346e-05 0)
(0.000603222 -8.50662e-05 0)
(0.000644536 -5.36329e-05 0)
(0.000685831 -6.28759e-05 0)
(0.000657395 -5.03756e-05 0)
(0.000660462 -0.000107672 0)
(0.000658901 -0.000145678 0)
(0.000757244 -0.000321972 0)
(0.00105438 -0.0004888 0)
(0.000999588 -0.000843732 0)
(0.000487046 -0.000966554 0)
(-6.98302e-05 -0.000300843 0)
(-0.000325109 -0.000258381 0)
(-0.000655983 -0.000235295 0)
(-0.000948083 -0.000181077 0)
(-0.00113374 -0.000130154 0)
(-0.00114674 -7.07551e-05 0)
(-0.00104053 -2.77311e-05 0)
(-0.000903294 1.4803e-05 0)
(-0.000773871 3.57786e-05 0)
(-0.000687422 5.73097e-05 0)
(-0.000614373 5.31406e-05 0)
(-0.000567378 5.85611e-05 0)
(-0.000494305 4.09673e-05 0)
(-0.000420858 4.51456e-05 0)
(-0.000295667 2.87572e-05 0)
(-0.000169059 4.03296e-05 0)
(5.50954e-06 3.19353e-05 0)
(0.0001576 5.32982e-05 0)
(0.000333413 5.43287e-05 0)
(0.000451034 8.26553e-05 0)
(0.000569977 8.4129e-05 0)
(0.000605228 0.000110499 0)
(0.000646307 9.28525e-05 0)
(0.000606798 0.000103298 0)
(0.00060415 4.13532e-05 0)
(0.000564056 1.82915e-05 0)
(0.000616654 -0.00013912 0)
(0.000826299 -0.000257004 0)
(0.000777954 -0.000577271 0)
(0.000431452 -0.000679098 0)
(-5.66687e-05 -0.000202307 0)
(-0.00030041 -0.000151066 0)
(-0.000620152 -0.000114324 0)
(-0.000893459 -4.69431e-05 0)
(-0.0010722 1.10914e-05 0)
(-0.00109078 7.41572e-05 0)
(-0.000993262 0.000110117 0)
(-0.000864426 0.000145896 0)
(-0.00073539 0.000156841 0)
(-0.00064986 0.0001742 0)
(-0.000574111 0.000166688 0)
(-0.000529115 0.000175474 0)
(-0.000458523 0.000161991 0)
(-0.000392421 0.000174553 0)
(-0.000275639 0.000166127 0)
(-0.000159794 0.000186449 0)
(3.60424e-06 0.000185179 0)
(0.000144196 0.000211294 0)
(0.000310495 0.00021444 0)
(0.000418776 0.000242552 0)
(0.000533931 0.000240504 0)
(0.000562379 0.000264666 0)
(0.000606036 0.000240877 0)
(0.000558459 0.000252917 0)
(0.000558421 0.000187992 0)
(0.000490612 0.000181702 0)
(0.000512401 3.95996e-05 0)
(0.000641965 -2.82361e-05 0)
(0.000587727 -0.000311087 0)
(0.000389142 -0.000378022 0)
(-3.61983e-05 -0.00012269 0)
(-0.000264579 -6.38629e-05 0)
(-0.000566696 -9.26889e-06 0)
(-0.00082403 6.95687e-05 0)
(-0.000999239 0.000139928 0)
(-0.00102672 0.000205973 0)
(-0.000945554 0.00023843 0)
(-0.000827467 0.000266156 0)
(-0.000703412 0.000266066 0)
(-0.000618473 0.000276665 0)
(-0.000540393 0.000262561 0)
(-0.000495271 0.000271282 0)
(-0.000426028 0.00025774 0)
(-0.000365775 0.000274911 0)
(-0.000257297 0.000270321 0)
(-0.000152604 0.000296308 0)
(-1.2074e-06 0.000299072 0)
(0.000126356 0.000328807 0)
(0.000282122 0.000332901 0)
(0.000379502 0.000362479 0)
(0.000491038 0.00035822 0)
(0.000512369 0.000384039 0)
(0.000560988 0.00035759 0)
(0.000506608 0.000376262 0)
(0.000515568 0.00031216 0)
(0.000427497 0.000325679 0)
(0.000438375 0.000196117 0)
(0.000502668 0.000179401 0)
(0.000438149 -7.07839e-05 0)
(0.000368818 -9.14155e-05 0)
(-1.79541e-05 -5.11715e-05 0)
(-0.000217493 1.7654e-05 0)
(-0.00050412 8.69075e-05 0)
(-0.000749132 0.000183889 0)
(-0.00092578 0.000263891 0)
(-0.000972999 0.000340874 0)
(-0.000909197 0.000370356 0)
(-0.00080587 0.000394156 0)
(-0.00068136 0.000381788 0)
(-0.000594253 0.000383517 0)
(-0.000508276 0.000358566 0)
(-0.000459869 0.000361527 0)
(-0.000389137 0.000342495 0)
(-0.000333412 0.000357964 0)
(-0.000232655 0.000352596 0)
(-0.00013927 0.00037959 0)
(2.85087e-08 0.000383835 0)
(0.000114499 0.000415706 0)
(0.000260316 0.000420551 0)
(0.000347356 0.000452902 0)
(0.000457087 0.000448527 0)
(0.000472981 0.000479333 0)
(0.000529807 0.000454336 0)
(0.00047065 0.00048404 0)
(0.000492975 0.0004255 0)
(0.000386477 0.000461184 0)
(0.00039718 0.000342236 0)
(0.000401504 0.000372131 0)
(0.000326386 0.000140542 0)
(0.000373366 0.000170916 0)
(9.74178e-06 -5.57532e-06 0)
(-0.000161031 6.51883e-05 0)
(-0.000421432 0.000150068 0)
(-0.000656091 0.000261794 0)
(-0.000836658 0.000364724 0)
(-0.000903462 0.000454774 0)
(-0.000868676 0.000492171 0)
(-0.000784281 0.00051396 0)
(-0.000670165 0.000490644 0)
(-0.000583489 0.000481439 0)
(-0.000493002 0.000441436 0)
(-0.000439468 0.000434641 0)
(-0.000365232 0.000404123 0)
(-0.000310239 0.000413554 0)
(-0.000213811 0.00040117 0)
(-0.000128688 0.000425731 0)
(1.11803e-06 0.000425841 0)
(0.000104277 0.000458344 0)
(0.000242295 0.00046024 0)
(0.000320231 0.000495834 0)
(0.000430151 0.000490361 0)
(0.000441748 0.000528432 0)
(0.000508768 0.000506781 0)
(0.000444963 0.000550902 0)
(0.000483223 0.000501472 0)
(0.000357393 0.000562348 0)
(0.000379348 0.000453915 0)
(0.00032563 0.000532273 0)
(0.000245561 0.0003123 0)
(0.000404574 0.000405759 0)
(2.80499e-05 5.13754e-05 0)
(-9.97515e-05 0.000119423 0)
(-0.000333012 0.000205506 0)
(-0.000548941 0.000340661 0)
(-0.000732944 0.000458065 0)
(-0.000833309 0.000574091 0)
(-0.000828924 0.000618369 0)
(-0.00077709 0.000645694 0)
(-0.000671728 0.000611345 0)
(-0.00058771 0.000591096 0)
(-0.000488114 0.00053311 0)
(-0.000426531 0.000512074 0)
(-0.000344212 0.000465865 0)
(-0.000286679 0.000463399 0)
(-0.000191315 0.00044003 0)
(-0.000111851 0.000457086 0)
(1.08305e-05 0.00045062 0)
(0.000104994 0.000480591 0)
(0.000237604 0.00047992 0)
(0.000309336 0.000518048 0)
(0.00042214 0.000514802 0)
(0.000432779 0.000561785 0)
(0.000512596 0.000549475 0)
(0.000445876 0.000611267 0)
(0.000502441 0.000577798 0)
(0.000353814 0.000665503 0)
(0.000395056 0.000569247 0)
(0.000280923 0.000692244 0)
(0.000207303 0.000469798 0)
(0.000473078 0.000636252 0)
(5.39854e-05 8.2371e-05 0)
(-4.68138e-05 0.000119869 0)
(-0.000230725 0.000217042 0)
(-0.000423998 0.000359957 0)
(-0.00061036 0.00051839 0)
(-0.000736704 0.000659892 0)
(-0.000780176 0.000731465 0)
(-0.000764192 0.000770279 0)
(-0.000685737 0.000731973 0)
(-0.000609488 0.000702692 0)
(-0.000507969 0.00062412 0)
(-0.000437126 0.00058697 0)
(-0.000344805 0.000519018 0)
(-0.000278361 0.000502416 0)
(-0.000178384 0.000460845 0)
(-9.73966e-05 0.000469157 0)
(2.39471e-05 0.000448715 0)
(0.000114666 0.000475939 0)
(0.000246407 0.000465739 0)
(0.000315668 0.000506985 0)
(0.000434437 0.000500014 0)
(0.000446026 0.000556723 0)
(0.000539972 0.000549365 0)
(0.000469334 0.000628807 0)
(0.000544345 0.000608482 0)
(0.000366264 0.000722178 0)
(0.000432322 0.000637849 0)
(0.000242981 0.000808254 0)
(0.000196108 0.000589101 0)
(0.000578935 0.000865382 0)
(4.73892e-05 0.000122935 0)
(-3.02823e-06 0.00013797 0)
(-0.00012824 0.000229431 0)
(-0.000274652 0.0003979 0)
(-0.000447949 0.000574649 0)
(-0.000621328 0.000758259 0)
(-0.000707828 0.000846532 0)
(-0.000754986 0.000904786 0)
(-0.000706088 0.000861661 0)
(-0.000649417 0.000826288 0)
(-0.000545225 0.000728217 0)
(-0.000465118 0.000674346 0)
(-0.000358314 0.00058528 0)
(-0.000278658 0.000552122 0)
(-0.000168318 0.00049329 0)
(-8.13204e-05 0.00048875 0)
(4.38004e-05 0.000456659 0)
(0.00013459 0.000475824 0)
(0.000268863 0.000460824 0)
(0.000338505 0.000499847 0)
(0.000464782 0.000496795 0)
(0.000480003 0.000559274 0)
(0.00058845 0.000566717 0)
(0.000516159 0.000662656 0)
(0.000611485 0.000666482 0)
(0.000403376 0.000807899 0)
(0.000505718 0.000746561 0)
(0.000243338 0.000964911 0)
(0.000268841 0.000750505 0)
(0.000759019 0.00117655 0)
(5.96085e-05 0.000132723 0)
(2.80191e-05 8.13072e-05 0)
(-9.37283e-06 0.000196503 0)
(-0.000112086 0.000349355 0)
(-0.00027381 0.000590354 0)
(-0.000475025 0.000799178 0)
(-0.000631035 0.000933282 0)
(-0.000734947 0.00101424 0)
(-0.000738788 0.000980016 0)
(-0.000705343 0.000945202 0)
(-0.000609625 0.000830681 0)
(-0.000520075 0.000762648 0)
(-0.00040021 0.000648837 0)
(-0.000300969 0.000600192 0)
(-0.000176033 0.000517424 0)
(-7.37749e-05 0.000502625 0)
(6.08811e-05 0.000449667 0)
(0.000160484 0.000465703 0)
(0.000302258 0.000432919 0)
(0.000378671 0.000476215 0)
(0.000516501 0.000458755 0)
(0.000538927 0.000532746 0)
(0.000666175 0.000530974 0)
(0.000592955 0.000644807 0)
(0.00071296 0.000648686 0)
(0.000469341 0.000813807 0)
(0.000613191 0.00077233 0)
(0.000252301 0.00103718 0)
(0.000410815 0.000892461 0)
(0.00101835 0.00160271 0)
(-4.98269e-06 0.000113363 0)
(3.8783e-05 0.000105186 0)
(0.000100676 0.000184552 0)
(8.1554e-05 0.000394345 0)
(-2.92432e-05 0.000627108 0)
(-0.000298496 0.000875227 0)
(-0.00050007 0.0010129 0)
(-0.000703309 0.0011134 0)
(-0.000759507 0.00107917 0)
(-0.000772086 0.00104653 0)
(-0.000689727 0.00092225 0)
(-0.000598043 0.000844317 0)
(-0.000464152 0.000715148 0)
(-0.000346165 0.000652216 0)
(-0.000200686 0.000554824 0)
(-8.26926e-05 0.000525927 0)
(6.88661e-05 0.000462603 0)
(0.000176472 0.000465784 0)
(0.0003314 0.000429155 0)
(0.000411946 0.000460895 0)
(0.000563406 0.000448553 0)
(0.000590849 0.00051389 0)
(0.000735301 0.000529419 0)
(0.000665241 0.000643581 0)
(0.000808657 0.000682109 0)
(0.000551701 0.000871342 0)
(0.000751694 0.000904525 0)
(0.000359492 0.00124504 0)
(0.000832825 0.00127865 0)
(0.00148664 0.00239183 0)
(5.53241e-05 0.000208293 0)
(8.87708e-05 3.07738e-05 0)
(0.000243255 0.000171607 0)
(0.000289126 0.000311536 0)
(0.00017 0.000615173 0)
(-0.000118524 0.000849103 0)
(-0.000411832 0.0010238 0)
(-0.000675622 0.00112869 0)
(-0.000801841 0.00110967 0)
(-0.00084826 0.00108241 0)
(-0.000788382 0.000958663 0)
(-0.000693268 0.000877656 0)
(-0.000551292 0.000738462 0)
(-0.000411929 0.000667488 0)
(-0.00024925 0.000553965 0)
(-0.000108575 0.000519106 0)
(5.79843e-05 0.000435307 0)
(0.000184398 0.000439333 0)
(0.000351457 0.000375843 0)
(0.000449328 0.000417653 0)
(0.000616155 0.000367101 0)
(0.000662507 0.000452556 0)
(0.000834045 0.000414882 0)
(0.000779356 0.000559906 0)
(0.000970251 0.000547676 0)
(0.000716714 0.000786943 0)
(0.00100813 0.000861616 0)
(0.000617059 0.0013048 0)
(0.00156886 0.00174243 0)
(0.00216802 0.00389709 0)
(-0.000179826 -4.11138e-05 0)
(-2.57862e-06 9.60223e-05 0)
(0.000352265 0.00015648 0)
(0.000485209 0.000485156 0)
(0.000469163 0.000696141 0)
(7.67241e-05 0.000907631 0)
(-0.000247754 0.00101309 0)
(-0.000635601 0.00109165 0)
(-0.000815199 0.00106218 0)
(-0.000923011 0.00103347 0)
(-0.000887428 0.000921585 0)
(-0.000802104 0.000845014 0)
(-0.000652642 0.000714754 0)
(-0.000501453 0.000643237 0)
(-0.000316158 0.000530521 0)
(-0.000163394 0.000488838 0)
(2.84072e-05 0.000401063 0)
(0.000158243 0.000391769 0)
(0.00034991 0.000324817 0)
(0.000442495 0.000343839 0)
(0.000635171 0.000297561 0)
(0.000673133 0.000347312 0)
(0.00087451 0.000337162 0)
(0.00082647 0.00044181 0)
(0.00106147 0.000521745 0)
(0.0008875 0.000773178 0)
(0.00128943 0.00113793 0)
(0.00121206 0.00188189 0)
(0.00342061 0.00367775 0)
(0.00368863 0.00731299 0)
(0.000187862 0.000610208 0)
(0.000275445 -3.21881e-05 0)
(0.000603783 0.000108387 0)
(0.000787089 0.000238111 0)
(0.000549563 0.00055501 0)
(0.000160725 0.000725088 0)
(-0.000260171 0.000843855 0)
(-0.000652484 0.00088553 0)
(-0.000879642 0.00086449 0)
(-0.00100049 0.000831933 0)
(-0.000983067 0.000739466 0)
(-0.000899147 0.000673885 0)
(-0.000748063 0.000563169 0)
(-0.000585622 0.000501711 0)
(-0.000390447 0.000400306 0)
(-0.000221212 0.000364562 0)
(-2.09634e-05 0.00027674 0)
(0.000127926 0.00027324 0)
(0.000323493 0.000191275 0)
(0.000442364 0.000223454 0)
(0.000640001 0.000138059 0)
(0.000722417 0.000218785 0)
(0.000949135 0.000129786 0)
(0.000983172 0.000299058 0)
(0.00132048 0.000260308 0)
(0.00135029 0.000671221 0)
(0.00213298 0.00107192 0)
(0.00312161 0.00263701 0)
(0.00709753 0.00583296 0)
(0.005938 0.0124149 0)
(-0.000843089 -0.00217087 0)
(-0.000522449 0.00024875 0)
(0.000601663 0.00060787 0)
(0.000906743 0.000581678 0)
(0.000922262 0.0006647 0)
(0.000329831 0.000658086 0)
(-0.000120913 0.000614684 0)
(-0.000645579 0.000581524 0)
(-0.000897139 0.000542774 0)
(-0.00107223 0.000509292 0)
(-0.00106788 0.000458243 0)
(-0.000997451 0.000418264 0)
(-0.000842572 0.00035749 0)
(-0.000679844 0.000321042 0)
(-0.000467721 0.000258577 0)
(-0.000299922 0.000237461 0)
(-7.47103e-05 0.00017609 0)
(6.20665e-05 0.000174746 0)
(0.000290783 0.000113156 0)
(0.000381392 0.000131871 0)
(0.000624687 7.356e-05 0)
(0.000661648 0.00011551 0)
(0.000953567 9.78843e-05 0)
(0.000958019 0.000206977 0)
(0.00143417 0.000463425 0)
(0.00169872 0.00102478 0)
(0.00322712 0.0028549 0)
(0.00572481 0.00644454 0)
(0.0128961 0.0149926 0)
(0.0101605 0.0266138 0)
(0.00261309 -0.00299413 0)
(0.00309524 0.000491701 0)
(0.000955982 0.000624756 0)
(0.000841066 0.000818631 0)
(0.000619074 0.000552939 0)
(9.32835e-05 0.000505656 0)
(-0.000365064 0.000314254 0)
(-0.000759504 0.000271445 0)
(-0.000992598 0.000219266 0)
(-0.00113052 0.00020121 0)
(-0.00112169 0.00019203 0)
(-0.00105072 0.000180058 0)
(-0.000895407 0.00017489 0)
(-0.000736527 0.000161912 0)
(-0.000523302 0.000154716 0)
(-0.000353758 0.000139676 0)
(-0.000129941 0.000135061 0)
(1.85124e-05 0.000114899 0)
(0.000239149 0.000122634 0)
(0.000362494 9.00241e-05 0)
(0.000590562 0.000130493 0)
(0.00071538 7.62181e-05 0)
(0.00101545 0.000204158 0)
(0.00132217 0.000149925 0)
(0.00212444 0.000580273 0)
(0.00375243 0.000831678 0)
(0.00755022 0.00259792 0)
(0.0148529 0.00509768 0)
(0.0270133 0.0118057 0)
(0.0179327 0.0188738 0)
)
;

boundaryField
{
    movingWall
    {
        type            fixedValue;
        value           uniform (1 0 0);
    }
    fixedWalls
    {
        type            noSlip;
    }
    frontAndBack
    {
        type            empty;
    }
}


// ************************************************************************* //
