/*--------------------------------*- C++ -*----------------------------------*\
| =========                 |                                                 |
| \\      /  F ield         | OpenFOAM: The Open Source CFD Toolbox           |
|  \\    /   O peration     | Version:  2406                                  |
|   \\  /    A nd           | Website:  www.openfoam.com                      |
|    \\/     M anipulation  |                                                 |
\*---------------------------------------------------------------------------*/
FoamFile
{
    version     2.0;
    format      ascii;
    arch        "LSB;label=32;scalar=64";
    class       volVectorField;
    location    "14.1";
    object      U_0;
}
// * * * * * * * * * * * * * * * * * * * * * * * * * * * * * * * * * * * * * //

dimensions      [0 1 -1 0 0 0 0];

internalField   nonuniform List<vector> 
14400
(
(3.65951e-06 -3.64292e-06 0)
(1.80157e-05 -4.27953e-06 0)
(2.98896e-05 -3.02028e-06 0)
(3.40758e-05 -6.08352e-07 0)
(2.74111e-05 2.06995e-06 0)
(1.02391e-05 4.55974e-06 0)
(-1.62825e-05 6.62659e-06 0)
(-5.04874e-05 8.24157e-06 0)
(-9.06696e-05 9.44481e-06 0)
(-0.000135322 1.03095e-05 0)
(-0.000183236 1.09195e-05 0)
(-0.000233521 1.13557e-05 0)
(-0.000285585 1.16884e-05 0)
(-0.000339094 1.19745e-05 0)
(-0.000393916 1.22573e-05 0)
(-0.000450073 1.25674e-05 0)
(-0.000507694 1.29241e-05 0)
(-0.000566972 1.33383e-05 0)
(-0.000628134 1.38138e-05 0)
(-0.000691416 1.43497e-05 0)
(-0.000757047 1.49418e-05 0)
(-0.000825234 1.55836e-05 0)
(-0.000896159 1.62678e-05 0)
(-0.000969972 1.69865e-05 0)
(-0.00104679 1.77316e-05 0)
(-0.0011267 1.84955e-05 0)
(-0.00120975 1.92708e-05 0)
(-0.00129596 2.00504e-05 0)
(-0.00138533 2.08277e-05 0)
(-0.00147782 2.15961e-05 0)
(-0.00157337 2.23493e-05 0)
(-0.00167187 2.3081e-05 0)
(-0.00177322 2.37849e-05 0)
(-0.00187726 2.44542e-05 0)
(-0.00198382 2.5082e-05 0)
(-0.00209269 2.56607e-05 0)
(-0.00220362 2.61822e-05 0)
(-0.00231634 2.66375e-05 0)
(-0.00243053 2.70171e-05 0)
(-0.00254584 2.73102e-05 0)
(-0.00266185 2.75055e-05 0)
(-0.00277813 2.75902e-05 0)
(-0.00289415 2.75511e-05 0)
(-0.00300937 2.73738e-05 0)
(-0.00312316 2.70433e-05 0)
(-0.00323484 2.65439e-05 0)
(-0.00334367 2.58596e-05 0)
(-0.00344884 2.49744e-05 0)
(-0.00354948 2.38727e-05 0)
(-0.00364466 2.25393e-05 0)
(-0.00373341 2.09604e-05 0)
(-0.00381469 1.91239e-05 0)
(-0.00388743 1.70197e-05 0)
(-0.00395054 1.46408e-05 0)
(-0.00400289 1.19831e-05 0)
(-0.00404339 9.04417e-06 0)
(-0.00407094 5.83556e-06 0)
(-0.00408452 2.40856e-06 0)
(-0.00408306 -1.26762e-06 0)
(-0.00406567 -5.19656e-06 0)
(-0.00403161 -9.32185e-06 0)
(-0.0039802 -1.35982e-05 0)
(-0.00391093 -1.79872e-05 0)
(-0.00382348 -2.24416e-05 0)
(-0.00371776 -2.6908e-05 0)
(-0.00359386 -3.13286e-05 0)
(-0.00345215 -3.56417e-05 0)
(-0.00329322 -3.97834e-05 0)
(-0.00311795 -4.36887e-05 0)
(-0.00292743 -4.72934e-05 0)
(-0.00272304 -5.05358e-05 0)
(-0.00250636 -5.33585e-05 0)
(-0.0022792 -5.571e-05 0)
(-0.00204356 -5.75466e-05 0)
(-0.00180157 -5.88337e-05 0)
(-0.00155549 -5.95472e-05 0)
(-0.00130765 -5.96742e-05 0)
(-0.00106042 -5.92139e-05 0)
(-0.000816114 -5.81773e-05 0)
(-0.000577021 -5.65873e-05 0)
(-0.000345297 -5.44777e-05 0)
(-0.000122956 -5.18926e-05 0)
(8.81776e-05 -4.88843e-05 0)
(0.000286495 -4.55121e-05 0)
(0.00047063 -4.18402e-05 0)
(0.000639472 -3.79358e-05 0)
(0.000792177 -3.38671e-05 0)
(0.000928169 -2.9701e-05 0)
(0.00104713 -2.5502e-05 0)
(0.001149 -2.13297e-05 0)
(0.00123394 -1.72383e-05 0)
(0.00130232 -1.32748e-05 0)
(0.00135468 -9.47897e-06 0)
(0.00139174 -5.88116e-06 0)
(0.00141431 -2.49689e-06 0)
(0.00142337 6.32947e-07 0)
(0.0014198 3.40504e-06 0)
(0.00140455 5.9677e-06 0)
(0.00137877 8.33977e-06 0)
(0.00134344 1.04648e-05 0)
(0.00129951 1.23473e-05 0)
(0.00124789 1.4008e-05 0)
(0.00118945 1.54651e-05 0)
(0.00112499 1.67369e-05 0)
(0.00105524 1.78413e-05 0)
(0.000980879 1.87939e-05 0)
(0.000902538 1.96069e-05 0)
(0.000820811 2.02864e-05 0)
(0.000736296 2.08303e-05 0)
(0.000649633 2.12246e-05 0)
(0.000561558 2.14388e-05 0)
(0.00047298 2.14202e-05 0)
(0.000385079 2.1086e-05 0)
(0.000299432 2.03145e-05 0)
(0.000218169 1.89345e-05 0)
(0.000144133 1.6726e-05 0)
(8.10126e-05 1.34236e-05 0)
(3.31041e-05 8.85358e-06 0)
(5.04206e-06 3.06456e-06 0)
(-1.53813e-06 -1.53703e-06 0)
(4.3866e-06 -1.80796e-05 0)
(2.40986e-05 -2.38589e-05 0)
(3.2164e-05 -1.14163e-05 0)
(1.99701e-05 9.18861e-06 0)
(-1.83937e-05 3.18657e-05 0)
(-8.26565e-05 5.31212e-05 0)
(-0.000170275 7.13409e-05 0)
(-0.000277644 8.60509e-05 0)
(-0.000400943 9.74176e-05 0)
(-0.00053665 0.000105936 0)
(-0.000681829 0.000112232 0)
(-0.000834225 0.000116941 0)
(-0.000992253 0.000120639 0)
(-0.00115493 0.000123808 0)
(-0.00132176 0.000126824 0)
(-0.00149265 0.000129964 0)
(-0.00166777 0.000133411 0)
(-0.00184747 0.000137274 0)
(-0.0020322 0.000141603 0)
(-0.00222246 0.000146401 0)
(-0.00241873 0.000151641 0)
(-0.00262147 0.000157276 0)
(-0.00283106 0.000163244 0)
(-0.00304781 0.000169477 0)
(-0.00327196 0.000175905 0)
(-0.00350366 0.000182459 0)
(-0.00374296 0.000189069 0)
(-0.00398984 0.000195669 0)
(-0.00424421 0.000202196 0)
(-0.00450587 0.000208586 0)
(-0.00477458 0.00021478 0)
(-0.00504998 0.000220715 0)
(-0.00533169 0.000226332 0)
(-0.00561919 0.000231566 0)
(-0.00591194 0.000236354 0)
(-0.00620928 0.000240626 0)
(-0.00651048 0.000244308 0)
(-0.00681471 0.000247321 0)
(-0.00712106 0.00024958 0)
(-0.00742849 0.000250993 0)
(-0.00773588 0.000251462 0)
(-0.00804197 0.000250878 0)
(-0.00834537 0.00024913 0)
(-0.00864459 0.000246097 0)
(-0.00893796 0.000241657 0)
(-0.00922369 0.00023568 0)
(-0.00949986 0.00022804 0)
(-0.00976438 0.000218607 0)
(-0.0100151 0.000207261 0)
(-0.0102495 0.000193887 0)
(-0.0104654 0.000178383 0)
(-0.0106601 0.000160665 0)
(-0.010831 0.000140668 0)
(-0.0109755 0.000118356 0)
(-0.0110909 9.37227e-05 0)
(-0.0111746 6.6796e-05 0)
(-0.011224 3.76455e-05 0)
(-0.0112369 6.40715e-06 0)
(-0.0112108 -2.66961e-05 0)
(-0.0111439 -6.15727e-05 0)
(-0.0110344 -9.79258e-05 0)
(-0.010881 -0.000135427 0)
(-0.0106826 -0.000173711 0)
(-0.0104389 -0.000212366 0)
(-0.0101498 -0.000250944 0)
(-0.00981582 -0.000288963 0)
(-0.00943801 -0.000325914 0)
(-0.00901806 -0.000361278 0)
(-0.0085582 -0.000394528 0)
(-0.00806125 -0.000425151 0)
(-0.0075306 -0.000452655 0)
(-0.00697014 -0.000476583 0)
(-0.00638424 -0.000496531 0)
(-0.0057777 -0.000512152 0)
(-0.00515563 -0.000523176 0)
(-0.00452342 -0.000529411 0)
(-0.0038866 -0.000530755 0)
(-0.00325078 -0.000527199 0)
(-0.00262153 -0.000518827 0)
(-0.00200428 -0.000505814 0)
(-0.00140422 -0.000488424 0)
(-0.000826227 -0.000466997 0)
(-0.000274753 -0.000441945 0)
(0.00024622 -0.000413735 0)
(0.000733244 -0.000382876 0)
(0.00118345 -0.000349906 0)
(0.00159459 -0.000315373 0)
(0.00196499 -0.000279823 0)
(0.00229362 -0.000243787 0)
(0.00258002 -0.000207762 0)
(0.00282427 -0.000172206 0)
(0.00302697 -0.00013753 0)
(0.00318917 -0.000104084 0)
(0.00331229 -7.21625e-05 0)
(0.00339809 -4.19971e-05 0)
(0.0034485 -1.37744e-05 0)
(0.00346576 1.2332e-05 0)
(0.00345223 3.64132e-05 0)
(0.00341021 5.84435e-05 0)
(0.00334204 7.84149e-05 0)
(0.00325008 9.63962e-05 0)
(0.00313658 0.000112489 0)
(0.00300368 0.000126811 0)
(0.00285343 0.000139488 0)
(0.00268773 0.000150639 0)
(0.0025084 0.000160369 0)
(0.00231717 0.000168747 0)
(0.00211575 0.000175793 0)
(0.00190589 0.000181455 0)
(0.00168948 0.000185577 0)
(0.0014687 0.000187875 0)
(0.00124613 0.000187885 0)
(0.00102503 0.000184929 0)
(0.000809502 0.000178061 0)
(0.000604773 0.00016604 0)
(0.000417401 0.000147385 0)
(0.000255302 0.000120604 0)
(0.000126758 8.49105e-05 0)
(4.20596e-05 4.18613e-05 0)
(3.09974e-06 5.08008e-06 0)
(3.10937e-06 -3.01205e-05 0)
(1.08961e-05 -3.16844e-05 0)
(-4.54208e-06 2.93912e-06 0)
(-5.23456e-05 5.35008e-05 0)
(-0.000137969 0.000107989 0)
(-0.000260817 0.000159361 0)
(-0.000417522 0.000204061 0)
(-0.000603307 0.000240859 0)
(-0.000813038 0.000269955 0)
(-0.0010419 0.000292342 0)
(-0.00128577 0.000309366 0)
(-0.00154142 0.00032245 0)
(-0.00180647 0.000332918 0)
(-0.00207939 0.000341902 0)
(-0.00235933 0.00035031 0)
(-0.00264596 0.000358817 0)
(-0.00293937 0.000367887 0)
(-0.00323993 0.000377807 0)
(-0.00354815 0.000388717 0)
(-0.00386462 0.000400646 0)
(-0.00418993 0.000413543 0)
(-0.00452462 0.000427301 0)
(-0.00486916 0.000441777 0)
(-0.00522389 0.000456809 0)
(-0.00558906 0.000472223 0)
(-0.00596477 0.000487845 0)
(-0.006351 0.0005035 0)
(-0.00674762 0.000519018 0)
(-0.00715435 0.000534235 0)
(-0.0075708 0.00054899 0)
(-0.00799648 0.000563126 0)
(-0.00843075 0.000576485 0)
(-0.00887289 0.000588913 0)
(-0.00932203 0.00060025 0)
(-0.00977723 0.000610332 0)
(-0.0102374 0.000618989 0)
(-0.0107013 0.000626039 0)
(-0.0111677 0.000631289 0)
(-0.0116349 0.000634535 0)
(-0.0121016 0.000635555 0)
(-0.0125658 0.000634112 0)
(-0.0130256 0.000629956 0)
(-0.0134789 0.00062282 0)
(-0.0139235 0.000612425 0)
(-0.0143568 0.000598484 0)
(-0.0147763 0.000580703 0)
(-0.0151789 0.000558789 0)
(-0.0155618 0.000532458 0)
(-0.0159217 0.000501438 0)
(-0.0162552 0.000465482 0)
(-0.0165589 0.000424378 0)
(-0.0168291 0.000377955 0)
(-0.0170621 0.000326099 0)
(-0.0172544 0.000268762 0)
(-0.0174021 0.000205972 0)
(-0.0175017 0.000137844 0)
(-0.0175498 6.45845e-05 0)
(-0.017543 -1.35053e-05 0)
(-0.0174786 -9.59187e-05 0)
(-0.017354 -0.000182172 0)
(-0.0171668 -0.000271617 0)
(-0.0169156 -0.000363479 0)
(-0.0165992 -0.000456875 0)
(-0.0162171 -0.000550829 0)
(-0.0157697 -0.000644279 0)
(-0.0152579 -0.000736095 0)
(-0.0146834 -0.000825096 0)
(-0.0140488 -0.000910078 0)
(-0.0133575 -0.000989836 0)
(-0.0126133 -0.00106319 0)
(-0.0118214 -0.00112902 0)
(-0.010987 -0.0011863 0)
(-0.0101165 -0.00123409 0)
(-0.00921644 -0.00127162 0)
(-0.00829409 -0.00129827 0)
(-0.00735692 -0.0013136 0)
(-0.00641265 -0.00131739 0)
(-0.0054691 -0.00130959 0)
(-0.00453406 -0.00129038 0)
(-0.00361515 -0.00126016 0)
(-0.00271969 -0.00121951 0)
(-0.00185458 -0.00116919 0)
(-0.0010262 -0.00111011 0)
(-0.000240294 -0.00104335 0)
(0.000498095 -0.00097004 0)
(0.00118469 -0.000891422 0)
(0.00181603 -0.000808756 0)
(0.00238948 -0.000723307 0)
(0.00290324 -0.000636311 0)
(0.0033563 -0.000548945 0)
(0.00374845 -0.000462302 0)
(0.00408018 -0.000377368 0)
(0.00435262 -0.000295008 0)
(0.0045675 -0.000215953 0)
(0.00472698 -0.0001408 0)
(0.00483364 -6.99949e-05 0)
(0.00489042 -3.80328e-06 0)
(0.0049004 5.75566e-05 0)
(0.00486676 0.000113992 0)
(0.0047928 0.00016556 0)
(0.00468179 0.000212388 0)
(0.00453695 0.000254661 0)
(0.00436137 0.000292609 0)
(0.00415804 0.000326476 0)
(0.00392981 0.0003565 0)
(0.00367945 0.000382873 0)
(0.00340964 0.000405708 0)
(0.00312307 0.000424997 0)
(0.00282256 0.000440556 0)
(0.00251112 0.000451972 0)
(0.00219222 0.000458526 0)
(0.0018699 0.000459126 0)
(0.00154908 0.000452226 0)
(0.00123575 0.000435776 0)
(0.000937257 0.000407221 0)
(0.000662423 0.000363693 0)
(0.000421456 0.000302537 0)
(0.00022433 0.000222627 0)
(8.60188e-05 0.000126909 0)
(9.01048e-06 3.34614e-05 0)
(3.58178e-07 -3.36237e-05 0)
(-1.32702e-05 -1.6614e-05 0)
(-6.41948e-05 5.30909e-05 0)
(-0.000160687 0.000145744 0)
(-0.000305443 0.000243553 0)
(-0.000496834 0.000335609 0)
(-0.000730381 0.000416223 0)
(-0.00100027 0.000483314 0)
(-0.00130041 0.000537121 0)
(-0.00162506 0.000579217 0)
(-0.00196931 0.000611824 0)
(-0.00232923 0.000637332 0)
(-0.00270191 0.000658005 0)
(-0.00308537 0.000675807 0)
(-0.00347844 0.000692328 0)
(-0.0038806 0.000708768 0)
(-0.0042918 0.00072597 0)
(-0.00471233 0.000744458 0)
(-0.00514266 0.000764504 0)
(-0.00558337 0.000786177 0)
(-0.00603503 0.0008094 0)
(-0.00649816 0.000833991 0)
(-0.00697318 0.000859701 0)
(-0.00746038 0.000886238 0)
(-0.0079599 0.00091329 0)
(-0.00847173 0.000940536 0)
(-0.00899569 0.000967658 0)
(-0.00953145 0.000994341 0)
(-0.0100785 0.00102028 0)
(-0.0106362 0.00104518 0)
(-0.0112038 0.00106874 0)
(-0.0117804 0.00109069 0)
(-0.0123648 0.00111074 0)
(-0.0129559 0.00112859 0)
(-0.0135522 0.00114396 0)
(-0.0141525 0.00115654 0)
(-0.0147549 0.00116602 0)
(-0.0153577 0.00117204 0)
(-0.0159591 0.00117426 0)
(-0.0165568 0.00117228 0)
(-0.0171486 0.0011657 0)
(-0.0177321 0.00115408 0)
(-0.0183046 0.00113696 0)
(-0.0188632 0.00111386 0)
(-0.0194048 0.00108429 0)
(-0.0199261 0.00104774 0)
(-0.0204237 0.00100373 0)
(-0.0208938 0.000951776 0)
(-0.0213324 0.00089143 0)
(-0.0217355 0.000822291 0)
(-0.022099 0.000744023 0)
(-0.0224184 0.00065637 0)
(-0.0226894 0.000559179 0)
(-0.0229076 0.000452415 0)
(-0.0230687 0.00033618 0)
(-0.0231685 0.000210734 0)
(-0.023203 7.65071e-05 0)
(-0.0231684 -6.58925e-05 0)
(-0.0230615 -0.00021572 0)
(-0.0228793 -0.000371918 0)
(-0.0226195 -0.000533317 0)
(-0.0222803 -0.000698548 0)
(-0.0218606 -0.000866061 0)
(-0.02136 -0.00103414 0)
(-0.0207792 -0.00120094 0)
(-0.0201194 -0.0013645 0)
(-0.0193828 -0.00152279 0)
(-0.0185727 -0.00167373 0)
(-0.0176932 -0.00181525 0)
(-0.0167491 -0.00194536 0)
(-0.0157463 -0.00206212 0)
(-0.0146915 -0.00216379 0)
(-0.0135921 -0.00224878 0)
(-0.0124561 -0.00231577 0)
(-0.011292 -0.00236368 0)
(-0.0101089 -0.00239178 0)
(-0.00891594 -0.00239963 0)
(-0.00772259 -0.00238717 0)
(-0.00653823 -0.00235467 0)
(-0.00537205 -0.00230276 0)
(-0.00423297 -0.00223241 0)
(-0.00312944 -0.00214489 0)
(-0.00206931 -0.00204174 0)
(-0.00105974 -0.00192474 0)
(-0.000107087 -0.00179587 0)
(0.000783194 -0.0016572 0)
(0.00160657 -0.00151091 0)
(0.00235951 -0.00135918 0)
(0.00303942 -0.00120417 0)
(0.00364473 -0.00104793 0)
(0.00417477 -0.000892405 0)
(0.00462975 -0.000739339 0)
(0.0050107 -0.000590296 0)
(0.00531936 -0.000446609 0)
(0.00555809 -0.000309374 0)
(0.00572975 -0.000179445 0)
(0.00583764 -5.74321e-05 0)
(0.00588533 5.62334e-05 0)
(0.00587662 0.000161379 0)
(0.0058154 0.000258006 0)
(0.00570563 0.000346257 0)
(0.0055512 0.00042639 0)
(0.00535595 0.000498739 0)
(0.00512361 0.000563673 0)
(0.00485778 0.000621538 0)
(0.00456201 0.000672608 0)
(0.00423979 0.000717013 0)
(0.00389464 0.000754668 0)
(0.00353028 0.000785192 0)
(0.00315069 0.000807804 0)
(0.00276038 0.000821227 0)
(0.00236455 0.000823573 0)
(0.00196935 0.000812256 0)
(0.0015821 0.000783947 0)
(0.00121155 0.000734632 0)
(0.000867934 0.000659946 0)
(0.00056302 0.000555942 0)
(0.000308158 0.000420729 0)
(0.000123493 0.00025719 0)
(1.38144e-05 8.23658e-05 0)
(-3.12751e-06 -2.37875e-05 0)
(-4.35184e-05 3.13626e-05 0)
(-0.00013747 0.000150633 0)
(-0.000291677 0.000296831 0)
(-0.000504297 0.000447293 0)
(-0.000772004 0.000587883 0)
(-0.0010888 0.000711131 0)
(-0.00144772 0.000814308 0)
(-0.00184178 0.00089782 0)
(-0.00226456 0.000963932 0)
(-0.00271055 0.00101584 0)
(-0.00317537 0.00105699 0)
(-0.0036557 0.00109069 0)
(-0.00414927 0.00111982 0)
(-0.00465468 0.00114674 0)
(-0.00517121 0.00117322 0)
(-0.00569867 0.00120053 0)
(-0.00623724 0.00122948 0)
(-0.00678727 0.00126048 0)
(-0.00734925 0.00129364 0)
(-0.00792364 0.00132887 0)
(-0.00851086 0.00136589 0)
(-0.00911119 0.00140432 0)
(-0.00972476 0.00144372 0)
(-0.0103515 0.00148362 0)
(-0.0109913 0.00152352 0)
(-0.0116437 0.00156293 0)
(-0.0123081 0.00160137 0)
(-0.0129838 0.00163835 0)
(-0.0136698 0.00167344 0)
(-0.014365 0.00170618 0)
(-0.0150683 0.00173613 0)
(-0.0157781 0.00176288 0)
(-0.0164931 0.001786 0)
(-0.0172114 0.00180503 0)
(-0.0179313 0.00181955 0)
(-0.0186509 0.00182908 0)
(-0.019368 0.00183312 0)
(-0.0200803 0.00183114 0)
(-0.0207854 0.0018226 0)
(-0.0214807 0.00180688 0)
(-0.0221634 0.00178335 0)
(-0.0228305 0.00175135 0)
(-0.0234786 0.00171018 0)
(-0.0241043 0.00165911 0)
(-0.024704 0.00159744 0)
(-0.0252736 0.00152444 0)
(-0.0258091 0.00143943 0)
(-0.0263061 0.00134178 0)
(-0.02676 0.00123094 0)
(-0.0271663 0.00110643 0)
(-0.02752 0.000967933 0)
(-0.0278164 0.000815263 0)
(-0.0280507 0.000648423 0)
(-0.0282181 0.000467621 0)
(-0.0283139 0.000273295 0)
(-0.0283339 6.61338e-05 0)
(-0.028274 -0.000152907 0)
(-0.0281305 -0.000382613 0)
(-0.0279004 -0.000621461 0)
(-0.0275809 -0.000867661 0)
(-0.0271703 -0.00111915 0)
(-0.0266673 -0.00137363 0)
(-0.0260718 -0.00162854 0)
(-0.0253841 -0.00188117 0)
(-0.0246059 -0.00212863 0)
(-0.0237397 -0.00236792 0)
(-0.0227889 -0.00259601 0)
(-0.0217581 -0.00280989 0)
(-0.0206527 -0.0030066 0)
(-0.0194792 -0.00318334 0)
(-0.018245 -0.00333754 0)
(-0.0169583 -0.00346686 0)
(-0.015628 -0.00356936 0)
(-0.0142638 -0.00364343 0)
(-0.0128756 -0.00368796 0)
(-0.0114739 -0.00370226 0)
(-0.0100695 -0.0036862 0)
(-0.00867282 -0.00364011 0)
(-0.00729455 -0.00356487 0)
(-0.00594489 -0.0034618 0)
(-0.00463363 -0.00333273 0)
(-0.00336995 -0.00317986 0)
(-0.00216227 -0.00300577 0)
(-0.00101815 -0.00281329 0)
(5.58353e-05 -0.00260549 0)
(0.00105412 -0.00238554 0)
(0.00197226 -0.00215669 0)
(0.0028069 -0.00192212 0)
(0.0035558 -0.00168492 0)
(0.0042178 -0.00144801 0)
(0.00479274 -0.00121404 0)
(0.00528142 -0.000985419 0)
(0.00568548 -0.000764203 0)
(0.00600732 -0.000552122 0)
(0.00624995 -0.000350547 0)
(0.00641691 -0.000160507 0)
(0.00651212 1.73047e-05 0)
(0.00653978 0.000182515 0)
(0.00650427 0.000335016 0)
(0.00641006 0.000474927 0)
(0.00626161 0.000602548 0)
(0.00606335 0.000718295 0)
(0.0058196 0.000822634 0)
(0.00553463 0.000916002 0)
(0.00521262 0.000998725 0)
(0.00485774 0.00107092 0)
(0.00447423 0.00113239 0)
(0.00406653 0.0011825 0)
(0.00363944 0.00122005 0)
(0.00319826 0.00124314 0)
(0.00274908 0.00124903 0)
(0.00229895 0.00123404 0)
(0.00185613 0.00119355 0)
(0.00143033 0.00112207 0)
(0.00103287 0.00101364 0)
(0.000676823 0.000862724 0)
(0.000375086 0.000665746 0)
(0.000152792 0.000423402 0)
(1.74336e-05 0.000147558 0)
(-6.98014e-06 1.15149e-06 0)
(-7.69544e-05 0.000117024 0)
(-0.000218584 0.000302214 0)
(-0.000436379 0.000514194 0)
(-0.00072291 0.000726619 0)
(-0.00107256 0.000922994 0)
(-0.00147741 0.00109467 0)
(-0.00192914 0.00123869 0)
(-0.00241985 0.00135589 0)
(-0.00294246 0.00144941 0)
(-0.00349102 0.00152357 0)
(-0.00406079 0.00158297 0)
(-0.00464823 0.00163202 0)
(-0.00525084 0.00167458 0)
(-0.00586706 0.0017138 0)
(-0.00649602 0.00175209 0)
(-0.00713739 0.00179114 0)
(-0.0077912 0.00183204 0)
(-0.00845767 0.00187536 0)
(-0.00913711 0.00192125 0)
(-0.00982983 0.00196957 0)
(-0.0105361 0.00201994 0)
(-0.0112559 0.00207184 0)
(-0.0119892 0.00212466 0)
(-0.0127357 0.00217773 0)
(-0.0134949 0.00223038 0)
(-0.0142663 0.0022819 0)
(-0.0150488 0.00233164 0)
(-0.0158416 0.00237895 0)
(-0.0166433 0.0024232 0)
(-0.0174525 0.00246378 0)
(-0.0182679 0.00250013 0)
(-0.0190876 0.00253166 0)
(-0.0199099 0.00255781 0)
(-0.0207329 0.00257802 0)
(-0.0215546 0.0025917 0)
(-0.0223728 0.00259823 0)
(-0.0231852 0.00259698 0)
(-0.0239893 0.00258726 0)
(-0.0247826 0.00256833 0)
(-0.0255624 0.00253942 0)
(-0.0263255 0.00249967 0)
(-0.027069 0.00244822 0)
(-0.0277893 0.00238412 0)
(-0.0284828 0.00230644 0)
(-0.0291458 0.00221421 0)
(-0.0297739 0.0021065 0)
(-0.030363 0.00198239 0)
(-0.0309084 0.00184106 0)
(-0.0314054 0.00168177 0)
(-0.0318489 0.00150393 0)
(-0.032234 0.00130713 0)
(-0.0325555 0.00109116 0)
(-0.0328083 0.000856045 0)
(-0.0329872 0.000602117 0)
(-0.0330873 0.000330001 0)
(-0.0331039 4.06601e-05 0)
(-0.0330327 -0.000264587 0)
(-0.0328695 -0.000584056 0)
(-0.0326109 -0.000915685 0)
(-0.0322539 -0.00125704 0)
(-0.0317964 -0.00160534 0)
(-0.0312369 -0.00195747 0)
(-0.0305748 -0.00230999 0)
(-0.0298105 -0.00265924 0)
(-0.0289453 -0.00300133 0)
(-0.0279816 -0.00333225 0)
(-0.0269229 -0.00364792 0)
(-0.0257737 -0.00394425 0)
(-0.0245398 -0.00421728 0)
(-0.0232278 -0.0044632 0)
(-0.0218456 -0.00467851 0)
(-0.0204018 -0.00486004 0)
(-0.0189062 -0.00500507 0)
(-0.017369 -0.0051114 0)
(-0.0158013 -0.0051774 0)
(-0.0142146 -0.00520209 0)
(-0.0126205 -0.00518514 0)
(-0.0110311 -0.00512692 0)
(-0.00945823 -0.00502847 0)
(-0.0079134 -0.00489151 0)
(-0.00640782 -0.00471837 0)
(-0.00495205 -0.00451196 0)
(-0.00355587 -0.00427568 0)
(-0.00222813 -0.00401332 0)
(-0.000976635 -0.003729 0)
(0.000191935 -0.00342702 0)
(0.00127212 -0.00311178 0)
(0.00225971 -0.00278764 0)
(0.00315174 -0.00245887 0)
(0.00394645 -0.00212947 0)
(0.00464327 -0.0018032 0)
(0.00524271 -0.00148339 0)
(0.00574629 -0.00117299 0)
(0.00615638 -0.000874469 0)
(0.00647613 -0.000589829 0)
(0.00670928 -0.000320594 0)
(0.00686006 -6.78307e-05 0)
(0.00693307 0.000167821 0)
(0.00693312 0.0003861 0)
(0.00686516 0.000587065 0)
(0.0067342 0.000771024 0)
(0.00654519 0.000938449 0)
(0.00630305 0.00108988 0)
(0.0060126 0.00122584 0)
(0.00567862 0.00134668 0)
(0.00530587 0.00145249 0)
(0.00489921 0.00154293 0)
(0.00446369 0.00161709 0)
(0.00400475 0.00167332 0)
(0.00352835 0.00170908 0)
(0.00304122 0.00172074 0)
(0.00255112 0.00170353 0)
(0.00206698 0.00165148 0)
(0.00159929 0.00155755 0)
(0.00116027 0.00141401 0)
(0.000764303 0.00121323 0)
(0.00042589 0.000948978 0)
(0.000174498 0.000618064 0)
(2.00071e-05 0.000225028 0)
(-1.09673e-05 4.22736e-05 0)
(-0.000111988 0.000243195 0)
(-0.00030399 0.000512033 0)
(-0.000588966 0.000802661 0)
(-0.000953285 0.00108635 0)
(-0.00138861 0.00134529 0)
(-0.00188472 0.00157043 0)
(-0.00243178 0.00175912 0)
(-0.00302085 0.00191307 0)
(-0.0036442 0.00203654 0)
(-0.00429548 0.00213512 0)
(-0.00496967 0.0022147 0)
(-0.00566307 0.00228086 0)
(-0.00637305 0.00233845 0)
(-0.00709794 0.00239144 0)
(-0.00783673 0.00244285 0)
(-0.00858898 0.00249483 0)
(-0.00935454 0.00254872 0)
(-0.0101335 0.00260522 0)
(-0.0109259 0.00266452 0)
(-0.0117319 0.00272639 0)
(-0.0125514 0.00279036 0)
(-0.0133843 0.00285573 0)
(-0.0142302 0.00292171 0)
(-0.0150886 0.00298742 0)
(-0.0159586 0.00305199 0)
(-0.0168393 0.00311453 0)
(-0.0177296 0.00317418 0)
(-0.0186281 0.00323012 0)
(-0.0195334 0.00328157 0)
(-0.0204438 0.00332779 0)
(-0.0213576 0.00336806 0)
(-0.0222729 0.0034017 0)
(-0.0231879 0.00342803 0)
(-0.0241004 0.00344638 0)
(-0.0250085 0.00345606 0)
(-0.02591 0.00345634 0)
(-0.0268024 0.00344646 0)
(-0.0276836 0.00342559 0)
(-0.0285508 0.00339284 0)
(-0.0294015 0.00334725 0)
(-0.0302328 0.00328778 0)
(-0.0310415 0.00321334 0)
(-0.0318245 0.00312275 0)
(-0.0325781 0.00301484 0)
(-0.0332985 0.00288837 0)
(-0.0339816 0.00274216 0)
(-0.034623 0.00257505 0)
(-0.0352182 0.00238598 0)
(-0.0357622 0.00217401 0)
(-0.0362499 0.00193839 0)
(-0.0366761 0.00167857 0)
(-0.0370353 0.00139429 0)
(-0.0373222 0.00108558 0)
(-0.0375312 0.000752851 0)
(-0.0376569 0.000396875 0)
(-0.0376942 1.88654e-05 0)
(-0.037638 -0.000379521 0)
(-0.0374839 -0.000796159 0)
(-0.0372276 -0.00122845 0)
(-0.0368656 -0.00167334 0)
(-0.0363949 -0.00212731 0)
(-0.0358135 -0.0025864 0)
(-0.03512 -0.0030463 0)
(-0.0343142 -0.00350234 0)
(-0.0333967 -0.00394958 0)
(-0.0323695 -0.00438291 0)
(-0.0312356 -0.0047971 0)
(-0.0299992 -0.00518692 0)
(-0.0286657 -0.00554724 0)
(-0.0272419 -0.00587313 0)
(-0.0257358 -0.00615999 0)
(-0.0241562 -0.00640366 0)
(-0.0225135 -0.00660051 0)
(-0.0208185 -0.00674756 0)
(-0.0190833 -0.00684254 0)
(-0.0173205 -0.006884 0)
(-0.0155429 -0.00687132 0)
(-0.0137639 -0.00680476 0)
(-0.011997 -0.00668549 0)
(-0.0102553 -0.00651552 0)
(-0.00855156 -0.00629771 0)
(-0.00689814 -0.00603565 0)
(-0.00530643 -0.00573362 0)
(-0.00378688 -0.00539645 0)
(-0.00234881 -0.00502938 0)
(-0.00100028 -0.00463797 0)
(0.000252013 -0.00422791 0)
(0.00140279 -0.0038049 0)
(0.00244819 -0.00337453 0)
(0.00338577 -0.0029421 0)
(0.00421445 -0.00251257 0)
(0.00493441 -0.00209042 0)
(0.00554702 -0.00167961 0)
(0.00605468 -0.00128348 0)
(0.00646066 -0.000904787 0)
(0.00676899 -0.000545661 0)
(0.0069843 -0.000207628 0)
(0.00711162 0.000108342 0)
(0.00715629 0.000401786 0)
(0.00712384 0.00067266 0)
(0.00701984 0.000921254 0)
(0.00684987 0.00114808 0)
(0.00661944 0.00135376 0)
(0.00633397 0.00153888 0)
(0.00599884 0.00170382 0)
(0.00561938 0.00184865 0)
(0.00520103 0.00197289 0)
(0.00474939 0.00207535 0)
(0.00427044 0.00215393 0)
(0.00377068 0.00220542 0)
(0.00325739 0.00222534 0)
(0.00273884 0.00220778 0)
(0.00222455 0.00214539 0)
(0.00172567 0.00202946 0)
(0.00125529 0.00185021 0)
(0.000829015 0.00159743 0)
(0.000462922 0.00126139 0)
(0.000189927 0.000833912 0)
(2.17705e-05 0.000311261 0)
(-1.50085e-05 0.000100062 0)
(-0.00014775 0.000411392 0)
(-0.000391524 0.000782488 0)
(-0.000745645 0.00116511 0)
(-0.00118994 0.00152946 0)
(-0.00171304 0.00185747 0)
(-0.00230222 0.00214058 0)
(-0.0029459 0.00237715 0)
(-0.00363402 0.00257017 0)
(-0.00435817 0.00272541 0)
(-0.00511159 0.00284992 0)
(-0.00588905 0.00295101 0)
(-0.0066867 0.00303546 0)
(-0.00750184 0.00310918 0)
(-0.0083327 0.00317695 0)
(-0.00917819 0.00324238 0)
(-0.0100377 0.00330802 0)
(-0.010911 0.00337547 0)
(-0.0117979 0.00344552 0)
(-0.0126983 0.00351835 0)
(-0.013612 0.00359367 0)
(-0.0145387 0.00367084 0)
(-0.0154779 0.003749 0)
(-0.0164289 0.00382715 0)
(-0.017391 0.00390421 0)
(-0.0183629 0.00397911 0)
(-0.0193435 0.00405078 0)
(-0.0203313 0.00411818 0)
(-0.0213247 0.00418034 0)
(-0.022322 0.00423636 0)
(-0.0233216 0.00428539 0)
(-0.0243215 0.00432662 0)
(-0.0253199 0.00435932 0)
(-0.0263148 0.00438273 0)
(-0.0273044 0.00439614 0)
(-0.0282866 0.0043988 0)
(-0.0292596 0.00438991 0)
(-0.0302212 0.00436862 0)
(-0.0311694 0.00433401 0)
(-0.032102 0.00428506 0)
(-0.0330166 0.00422062 0)
(-0.0339107 0.00413949 0)
(-0.0347816 0.00404033 0)
(-0.0356264 0.00392172 0)
(-0.0364417 0.00378221 0)
(-0.037224 0.00362028 0)
(-0.0379694 0.00343444 0)
(-0.0386737 0.00322323 0)
(-0.0393322 0.0029853 0)
(-0.0399401 0.00271945 0)
(-0.0404923 0.00242467 0)
(-0.0409831 0.00210024 0)
(-0.0414068 0.00174572 0)
(-0.0417576 0.00136109 0)
(-0.0420295 0.000946735 0)
(-0.0422164 0.000503506 0)
(-0.0423124 3.27811e-05 0)
(-0.0423115 -0.000463522 0)
(-0.0422082 -0.00098291 0)
(-0.0419973 -0.00152231 0)
(-0.0416741 -0.00207808 0)
(-0.0412345 -0.00264599 0)
(-0.0406751 -0.0032213 0)
(-0.0399934 -0.00379874 0)
(-0.0391878 -0.00437264 0)
(-0.038258 -0.00493695 0)
(-0.0372047 -0.00548534 0)
(-0.03603 -0.00601134 0)
(-0.0347374 -0.0065084 0)
(-0.0333316 -0.00697006 0)
(-0.0318192 -0.00739008 0)
(-0.0302077 -0.00776256 0)
(-0.0285064 -0.00808209 0)
(-0.0267259 -0.00834392 0)
(-0.0248779 -0.00854402 0)
(-0.0229753 -0.00867927 0)
(-0.0210319 -0.00874752 0)
(-0.0190623 -0.00874767 0)
(-0.0170814 -0.00867972 0)
(-0.0151046 -0.0085448 0)
(-0.0131472 -0.00834515 0)
(-0.0112241 -0.00808409 0)
(-0.00934979 -0.00776591 0)
(-0.00753786 -0.00739579 0)
(-0.00580089 -0.00697966 0)
(-0.00415021 -0.00652405 0)
(-0.00259572 -0.00603589 0)
(-0.00114576 -0.00552239 0)
(0.000192962 -0.00499077 0)
(0.00141541 -0.00444815 0)
(0.00251824 -0.00390136 0)
(0.00349969 -0.00335678 0)
(0.00435956 -0.00282025 0)
(0.00509904 -0.0022969 0)
(0.00572056 -0.00179117 0)
(0.00622765 -0.0013067 0)
(0.00662474 -0.000846343 0)
(0.00691695 -0.000412192 0)
(0.00710996 -5.61773e-06 0)
(0.00720981 0.000372654 0)
(0.00722275 0.00072245 0)
(0.00715511 0.00104403 0)
(0.00701322 0.00133794 0)
(0.00680334 0.0016049 0)
(0.00653161 0.00184556 0)
(0.00620407 0.0020604 0)
(0.00582671 0.00224944 0)
(0.00540555 0.00241211 0)
(0.00494676 0.00254697 0)
(0.00445683 0.00265148 0)
(0.00394277 0.0027218 0)
(0.00341232 0.00275256 0)
(0.00287423 0.00273673 0)
(0.00233857 0.00266549 0)
(0.00181708 0.00252831 0)
(0.0013237 0.00231313 0)
(0.000875137 0.00200671 0)
(0.000488887 0.00159525 0)
(0.00020046 0.00106492 0)
(2.29273e-05 0.000403509 0)
(-1.90621e-05 0.000174695 0)
(-0.000183748 0.000622299 0)
(-0.000479843 0.00111474 0)
(-0.000903917 0.00160299 0)
(-0.00142908 0.00205741 0)
(-0.00204078 0.00246083 0)
(-0.0027236 0.00280608 0)
(-0.0034641 0.00309323 0)
(-0.00425101 0.00332712 0)
(-0.00507521 0.00351537 0)
(-0.00592951 0.00366676 0)
(-0.00680847 0.00379014 0)
(-0.00770813 0.00389359 0)
(-0.00862573 0.00398408 0)
(-0.00955943 0.00406717 0)
(-0.0105081 0.00414706 0)
(-0.0114709 0.00422667 0)
(-0.0124474 0.00430777 0)
(-0.0134374 0.00439125 0)
(-0.0144403 0.00447724 0)
(-0.0154557 0.00456533 0)
(-0.0164831 0.00465472 0)
(-0.0175216 0.00474437 0)
(-0.0185702 0.00483308 0)
(-0.0196277 0.00491957 0)
(-0.0206927 0.00500258 0)
(-0.0217638 0.00508087 0)
(-0.0228393 0.00515329 0)
(-0.0239174 0.00521877 0)
(-0.0249964 0.00527632 0)
(-0.0260744 0.00532506 0)
(-0.0271498 0.00536418 0)
(-0.0282207 0.00539293 0)
(-0.0292855 0.00541059 0)
(-0.0303426 0.00541646 0)
(-0.0313904 0.00540979 0)
(-0.0324276 0.0053898 0)
(-0.0334524 0.00535559 0)
(-0.0344636 0.00530618 0)
(-0.0354594 0.00524044 0)
(-0.0364382 0.00515708 0)
(-0.0373981 0.00505467 0)
(-0.038337 0.00493166 0)
(-0.0392525 0.00478634 0)
(-0.0401418 0.00461692 0)
(-0.0410018 0.00442153 0)
(-0.041829 0.0041983 0)
(-0.0426194 0.00394538 0)
(-0.0433684 0.00366102 0)
(-0.0440713 0.00334364 0)
(-0.0447226 0.00299188 0)
(-0.0453165 0.00260466 0)
(-0.0458467 0.00218129 0)
(-0.0463068 0.00172151 0)
(-0.0466898 0.00122554 0)
(-0.0469888 0.000694175 0)
(-0.0471964 0.000128814 0)
(-0.0473056 -0.000468496 0)
(-0.0473091 -0.00109502 0)
(-0.0472002 -0.00174731 0)
(-0.0469723 -0.00242121 0)
(-0.0466195 -0.00311187 0)
(-0.0461365 -0.00381374 0)
(-0.0455188 -0.00452064 0)
(-0.0447631 -0.00522583 0)
(-0.0438671 -0.00592206 0)
(-0.0428299 -0.00660168 0)
(-0.0416521 -0.00725678 0)
(-0.0403357 -0.00787932 0)
(-0.0388847 -0.00846126 0)
(-0.0373046 -0.00899475 0)
(-0.0356027 -0.0094723 0)
(-0.0337883 -0.00988694 0)
(-0.0318721 -0.0102324 0)
(-0.0298668 -0.0105034 0)
(-0.0277863 -0.0106955 0)
(-0.0256459 -0.0108056 0)
(-0.0234621 -0.0108318 0)
(-0.0212521 -0.0107737 0)
(-0.0190337 -0.010632 0)
(-0.0168249 -0.0104091 0)
(-0.0146434 -0.0101088 0)
(-0.0125066 -0.00973588 0)
(-0.0104311 -0.00929657 0)
(-0.00843232 -0.00879798 0)
(-0.00652434 -0.00824806 0)
(-0.00471957 -0.00765536 0)
(-0.00302863 -0.00702879 0)
(-0.0014602 -0.00637742 0)
(-2.09393e-05 -0.00571019 0)
(0.00128451 -0.00503574 0)
(0.00245349 -0.00436221 0)
(0.0034852 -0.00369703 0)
(0.0043806 -0.00304685 0)
(0.00514218 -0.00241738 0)
(0.0057738 -0.00181337 0)
(0.00628041 -0.00123857 0)
(0.00666789 -0.000695769 0)
(0.00694276 -0.000186839 0)
(0.00711202 0.000287173 0)
(0.00718292 0.00072593 0)
(0.00716283 0.00112965 0)
(0.00705908 0.00149896 0)
(0.00687892 0.00183466 0)
(0.0066294 0.00213757 0)
(0.00631743 0.00240825 0)
(0.00594979 0.0026468 0)
(0.00553321 0.00285258 0)
(0.0050745 0.00302394 0)
(0.00458074 0.00315797 0)
(0.00405943 0.00325023 0)
(0.00351884 0.00329447 0)
(0.00296818 0.00328251 0)
(0.00241803 0.00320402 0)