/*--------------------------------*- C++ -*----------------------------------*\
| =========                 |                                                 |
| \\      /  F ield         | OpenFOAM: The Open Source CFD Toolbox           |
|  \\    /   O peration     | Version:  2406                                  |
|   \\  /    A nd           | Website:  www.openfoam.com                      |
|    \\/     M anipulation  |                                                 |
\*---------------------------------------------------------------------------*/
FoamFile
{
    version     2.0;
    format      ascii;
    arch        "LSB;label=32;scalar=64";
    class       volScalarField;
    location    "48";
    object      p;
}
// * * * * * * * * * * * * * * * * * * * * * * * * * * * * * * * * * * * * * //

dimensions      [0 2 -2 0 0 0 0];

internalField   nonuniform List<scalar> 
900
(
-6.4774e-10
-2.4988e-05
-0.000126914
-0.000288473
-0.000470384
-0.000683105
-0.000961818
-0.00134283
-0.00185235
-0.00240793
-0.00283188
-0.00303325
-0.00301431
-0.0027451
-0.00207717
-0.000854407
0.000916818
0.00295378
0.0046802
0.00538217
0.00454744
0.00225799
-0.00072419
-0.00334419
-0.00498638
-0.00572373
-0.0060076
-0.00610801
-0.00611317
-0.00609273
1.47252e-05
-2.42173e-05
-0.000131037
-0.000281732
-0.000433254
-0.000611859
-0.000863012
-0.00117521
-0.00159003
-0.00225214
-0.00309276
-0.00382928
-0.00426872
-0.00429449
-0.0037734
-0.00259578
-0.000796777
0.00131141
0.00316179
0.00404552
0.00340276
0.00120159
-0.00184743
-0.00453728
-0.00602144
-0.00641156
-0.00633758
-0.00620081
-0.00610425
-0.00606506
9.36512e-05
9.19263e-06
-0.000130771
-0.000277526
-0.000389911
-0.000525384
-0.000785655
-0.00131731
-0.0022133
-0.00347389
-0.00496927
-0.00643525
-0.0075879
-0.00818502
-0.0080527
-0.00713907
-0.00553741
-0.00346863
-0.00138815
5.36374e-05
0.000238205
-0.00105118
-0.00333787
-0.00556355
-0.00681432
-0.00702544
-0.00674469
-0.00644195
-0.00625669
-0.00619347
0.000293449
0.000134877
-6.35064e-05
-0.000223098
-0.000359176
-0.000652538
-0.00134868
-0.0026593
-0.00461562
-0.00700676
-0.00950957
-0.0118035
-0.0136188
-0.0147542
-0.0150863
-0.0145766
-0.0132728
-0.0113247
-0.00904451
-0.00691173
-0.00544944
-0.00500826
-0.00551771
-0.00644125
-0.00709898
-0.00722936
-0.00701404
-0.00673547
-0.00654216
-0.00646794
0.000673164
0.000431597
0.000152403
-0.000103929
-0.00051521
-0.00142735
-0.00315702
-0.00578103
-0.00907647
-0.012631
-0.0160197
-0.018917
-0.0211279
-0.0225729
-0.0232419
-0.0231203
-0.0221919
-0.0205548
-0.018381
-0.0159056
-0.0134166
-0.0112093
-0.00947885
-0.00826548
-0.00751675
-0.00712298
-0.00698542
-0.0068781
-0.00679548
-0.00676932
0.00127205
0.000972819
0.000552002
-2.9045e-05
-0.0011558
-0.00325115
-0.0064625
-0.0105353
-0.0149639
-0.019243
-0.023009
-0.0260616
-0.0283277
-0.0298131
-0.0305572
-0.0306015
-0.0299894
-0.0287628
-0.0269658
-0.0246562
-0.0219142
-0.0188094
-0.0154294
-0.0120477
-0.0092096
-0.00745463
-0.00684806
-0.00699535
-0.00701429
-0.00707265
0.00202167
0.00167586
0.000965629
-0.000296225
-0.00261467
-0.00624313
-0.0109513
-0.0161383
-0.0211865
-0.025672
-0.0293943
-0.0323117
-0.034458
-0.0358823
-0.0366277
-0.0367493
-0.0363139
-0.0353516
-0.0338754
-0.0318871
-0.0293552
-0.0261873
-0.0222706
-0.0176557
-0.0128996
-0.00913076
-0.00726916
-0.00713069
-0.00735516
-0.00741553
0.00263096
0.00219139
0.00100065
-0.00126192
-0.00501514
-0.0101304
-0.0159671
-0.0217549
-0.026958
-0.0313405
-0.0348773
-0.0376298
-0.0396701
-0.0410537
-0.0418224
-0.0420161
-0.0416744
-0.0408349
-0.0395187
-0.0377206
-0.035399
-0.0324489
-0.0286742
-0.02387
-0.0182027
-0.0126579
-0.00876538
-0.00721606
-0.00806297
-0.00786293
0.00266802
0.0020601
0.000246052
-0.00313644
-0.00823913
-0.0144826
-0.0209509
-0.0269041
-0.0319979
-0.0361852
-0.0395496
-0.0421858
-0.0441633
-0.0455279
-0.0463141
-0.0465535
-0.0462746
-0.0455074
-0.0442703
-0.0425643
-0.0403676
-0.0376078
-0.0341088
-0.029607
-0.0239512
-0.0175614
-0.0118568
-0.00868146
-0.00842828
-0.00855097
0.00178848
0.000959934
-0.00149651
-0.00587742
-0.0119916
-0.0188842
-0.0255538
-0.0314074
-0.0362988
-0.0403038
-0.0435451
-0.0461114
-0.0480578
-0.0494172
-0.0502152
-0.0504777
-0.0502328
-0.0495034
-0.0483045
-0.0466436
-0.0445178
-0.0418827
-0.0385989
-0.0344463
-0.0292402
-0.0229805
-0.0163044
-0.0105785
-0.00773963
-0.00989036
-7.48231e-05
-0.00112536
-0.00411341
-0.00920634
-0.0159102
-0.0230363
-0.0296289
-0.0352669
-0.0399497
-0.0438096
-0.0469671
-0.0494918
-0.0514231
-0.0527829
-0.0535909
-0.053868
-0.0536372
-0.0529229
-0.0517415
-0.0501045
-0.0480178
-0.0454504
-0.0422984
-0.0384233
-0.0337592
-0.0280385
-0.0209079
-0.0131025
-0.00972505
-0.0113581
-0.00268205
-0.00391968
-0.00726446
-0.01275
-0.0196752
-0.026748
-0.0331144
-0.0385055
-0.0430051
-0.0467544
-0.0498526
-0.0523483
-0.0542675
-0.0556241
-0.0564333
-0.0567129
-0.056487
-0.0557782
-0.0546069
-0.0529904
-0.0509369
-0.0484144
-0.0453558
-0.0416884
-0.0374481
-0.0321843
-0.0251368
-0.0168055
-0.0129821
-0.0112085
-0.00560445
-0.00699036
-0.0105142
-0.0161323
-0.0230291
-0.0298968
-0.0359924
-0.0411566
-0.0455066
-0.0491687
-0.052218
-0.0546874
-0.0565936
-0.0579453
-0.0587536
-0.0590329
-0.0588047
-0.0580935
-0.0569245
-0.0553195
-0.0532926
-0.0508108
-0.0478492
-0.0443446
-0.0403642
-0.0354079
-0.0288777
-0.0208113
-0.0150652
-0.00936973
-0.00840286
-0.00990791
-0.0134664
-0.01906
-0.0258027
-0.0324128
-0.0382497
-0.0432217
-0.0474497
-0.0510396
-0.0540474
-0.0564948
-0.0583908
-0.0597384
-0.0605447
-0.0608215
-0.060589
-0.0598735
-0.0587052
-0.0571058
-0.0551018
-0.0526557
-0.0497911
-0.0464077
-0.0426001
-0.037917
-0.0321224
-0.0246101
-0.0171171
-0.00891727
-0.0107516
-0.0123359
-0.0158443
-0.0213348
-0.0278764
-0.0342406
-0.0398708
-0.0446988
-0.048835
-0.0523683
-0.0553421
-0.05777
-0.0596554
-0.0609976
-0.0618004
-0.0620742
-0.0618382
-0.0611176
-0.0599491
-0.0583491
-0.056367
-0.0539521
-0.0511754
-0.0478848
-0.0442385
-0.0398136
-0.0347559
-0.0279343
-0.0201476
-0.0113368
-0.0124877
-0.0140862
-0.0175242
-0.0228581
-0.0291848
-0.0353537
-0.0408417
-0.0455691
-0.0496378
-0.053128
-0.0560762
-0.0584913
-0.0603721
-0.061715
-0.0625204
-0.0627951
-0.0625607
-0.0618327
-0.060667
-0.0590527
-0.0570939
-0.054688
-0.0519893
-0.0487669
-0.0452909
-0.0411153
-0.0367058
-0.0306662
-0.023745
-0.0155319
-0.013596
-0.015156
-0.0184697
-0.0235946
-0.0296983
-0.0357312
-0.0411401
-0.0458148
-0.0498464
-0.0533144
-0.0562531
-0.0586676
-0.0605534
-0.0619037
-0.0627167
-0.0629935
-0.062765
-0.0620227
-0.0608665
-0.059215
-0.0572951
-0.054833
-0.0522474
-0.0490044
-0.0457256
-0.0417371
-0.0378677
-0.0326276
-0.027113
-0.0199241
-0.0141996
-0.0156398
-0.0187049
-0.0235655
-0.0294567
-0.0353787
-0.0407441
-0.0454039
-0.0494302
-0.052901
-0.0558505
-0.0582824
-0.0601893
-0.0615608
-0.0623944
-0.0626853
-0.0624631
-0.0617185
-0.060553
-0.0588614
-0.0569642
-0.0543711
-0.0519403
-0.0485181
-0.0455597
-0.0415396
-0.038205
-0.0336207
-0.0295381
-0.0233963
-0.0144741
-0.0156633
-0.0183209
-0.0228335
-0.0284832
-0.0342844
-0.039624
-0.044307
-0.04837
-0.0518804
-0.0548721
-0.0573489
-0.0593023
-0.0607153
-0.0615862
-0.0618995
-0.0616893
-0.0609383
-0.0597441
-0.0580246
-0.0560552
-0.0533978
-0.0509603
-0.0473159
-0.0447038
-0.0403483
-0.0376833
-0.033418
-0.0306459
-0.0254518
-0.0145403
-0.0153307
-0.01745
-0.0215109
-0.0268222
-0.0324452
-0.0377512
-0.0424839
-0.0466237
-0.0502156
-0.0532901
-0.0558491
-0.0578835
-0.0593659
-0.0602974
-0.0606484
-0.0604616
-0.0597036
-0.0584773
-0.056704
-0.0546151
-0.0518954
-0.0492683
-0.0455223
-0.0428981
-0.0382234
-0.0361985
-0.0317631
-0.0301736
-0.0257115
-0.0143938
-0.014701
-0.0162456
-0.0197312
-0.0245411
-0.0298595
-0.0350824
-0.039879
-0.0441436
-0.0478754
-0.0510926
-0.0537872
-0.0559508
-0.0575417
-0.0585666
-0.0589782
-0.0588267
-0.0580573
-0.0567869
-0.0549236
-0.0526894
-0.0498329
-0.0469209
-0.0430611
-0.0401178
-0.0352831
-0.0334725
-0.028611
-0.0280635
-0.0236441
-0.0139943
-0.0138635
-0.0149096
-0.0176745
-0.021752
-0.0265672
-0.0315885
-0.0364198
-0.040846
-0.0447872
-0.0482263
-0.0511289
-0.0534864
-0.055238
-0.0563971
-0.0568954
-0.0567936
-0.0560228
-0.0547009
-0.0527201
-0.0503073
-0.0472247
-0.0439721
-0.0398728
-0.036463
-0.0314765
-0.0294953
-0.0242053
-0.0244372
-0.0191996
-0.0133939
-0.013063
-0.01367
-0.0155317
-0.0185991
-0.0226261
-0.0272468
-0.0320305
-0.0366425
-0.0408764
-0.0446423
-0.0478511
-0.0504904
-0.0524737
-0.0538231
-0.0544508
-0.0544277
-0.0536579
-0.0522758
-0.0501513
-0.0475155
-0.0441282
-0.0404676
-0.035969
-0.0319991
-0.0267165
-0.0244252
-0.0188193
-0.0196437
-0.0137168
-0.0127523
-0.0124989
-0.0126875
-0.0134994
-0.015247
-0.0181472
-0.0220879
-0.0266697
-0.031456
-0.0360577
-0.0402651
-0.0439005
-0.0469329
-0.0492393
-0.0508499
-0.0516563
-0.0517407
-0.0509918
-0.0495522
-0.047268
-0.0443764
-0.0406292
-0.036497
-0.031475
-0.0268511
-0.02104
-0.0183556
-0.0123007
-0.0139579
-0.00853326
-0.0122258
-0.0121313
-0.0119751
-0.0116654
-0.01183
-0.0132623
-0.0162083
-0.0203973
-0.0253084
-0.0303178
-0.0350725
-0.039264
-0.042816
-0.0455525
-0.0475117
-0.0485639
-0.0488068
-0.0481074
-0.0466242
-0.044183
-0.0410271
-0.0368931
-0.0322526
-0.0266323
-0.0212752
-0.0147207
-0.0113707
-0.00411429
-0.0069485
-0.00044079
-0.0117429
-0.0117556
-0.0114623
-0.00988974
-0.00841041
-0.00813885
-0.00984456
-0.0134913
-0.01843
-0.0238248
-0.0291902
-0.0340361
-0.0382145
-0.0414808
-0.0438787
-0.0452488
-0.0457121
-0.0451101
-0.0436154
-0.0410449
-0.0376599
-0.0331622
-0.0280465
-0.02183
-0.0157424
-0.00836396
-0.00386626
0.00547405
0.0029817
0.0177617
-0.0113166
-0.0112463
-0.0108255
-0.00784755
-0.00507254
-0.00290407
-0.00347955
-0.00650735
-0.0113426
-0.0170511
-0.0230219
-0.0285341
-0.0333879
-0.0372381
-0.0401433
-0.0418818
-0.0426218
-0.0421624
-0.040747
-0.0381162
-0.0345976
-0.0298322
-0.0243623
-0.017625
-0.01083
-0.00255766
0.00355187
0.0149971
0.0167689
0.0429699
-0.0108534
-0.0100872
-0.0095046
-0.0053073
-0.00169184
0.00210561
0.00211667
-0.000242789
-0.00495128
-0.0108899
-0.0173656
-0.0234417
-0.0289303
-0.0333411
-0.036766
-0.0388878
-0.0399555
-0.0396913
-0.0384224
-0.0358016
-0.0322669
-0.0273626
-0.0217127
-0.0145646
-0.00710626
0.00238234
0.010862
0.0247781
0.0344354
0.0612756
-0.0154998
-0.00977633
-0.00813939
-0.00320301
0.00140974
0.00595603
0.00610636
0.00434816
-0.00033649
-0.00634798
-0.0131021
-0.0195101
-0.0254603
-0.0302746
-0.0341409
-0.0365693
-0.0379756
-0.037885
-0.0368616
-0.0343042
-0.0309523
-0.0259371
-0.0203724
-0.0128541
-0.00495762
0.00625545
0.0189792
0.0409345
0.0673583
0.104212
-0.0226929
-0.0109174
-0.00720583
-0.00141328
0.0042161
0.00784105
0.00816396
0.00611806
0.00146422
-0.00456394
-0.0113541
-0.0178523
-0.0239293
-0.0288672
-0.0328724
-0.035418
-0.0369561
-0.03696
-0.0360228
-0.0335152
-0.0301637
-0.0251886
-0.0194862
-0.0119846
-0.00346792
0.00864413
0.0273109
0.0652851
0.137036
0.247517
)
;

boundaryField
{
    movingWall
    {
        type            zeroGradient;
    }
    fixedWalls
    {
        type            zeroGradient;
    }
    frontAndBack
    {
        type            empty;
    }
}


// ************************************************************************* //
