/*--------------------------------*- C++ -*----------------------------------*\
| =========                 |                                                 |
| \\      /  F ield         | OpenFOAM: The Open Source CFD Toolbox           |
|  \\    /   O peration     | Version:  2406                                  |
|   \\  /    A nd           | Website:  www.openfoam.com                      |
|    \\/     M anipulation  |                                                 |
\*---------------------------------------------------------------------------*/
FoamFile
{
    version     2.0;
    format      ascii;
    arch        "LSB;label=32;scalar=64";
    class       volScalarField;
    location    "17.8";
    object      p;
}
// * * * * * * * * * * * * * * * * * * * * * * * * * * * * * * * * * * * * * //

dimensions      [0 2 -2 0 0 0 0];

internalField   nonuniform List<scalar> 
3600
(
0.0256344
0.0256288
0.0256177
0.025598
0.0255784
0.025551
0.0255249
0.0254909
0.025458
0.0254176
0.0253783
0.0253331
0.0252897
0.0252428
0.025199
0.0251545
0.0251149
0.0250775
0.0250471
0.0250216
0.0250049
0.0249955
0.0249961
0.0250051
0.0250237
0.0250494
0.0250809
0.0251138
0.0251437
0.0251633
0.0251652
0.0251402
0.0250797
0.0249755
0.0248215
0.0246149
0.0243558
0.0240498
0.023705
0.0233348
0.0229519
0.0225729
0.0222092
0.021875
0.021575
0.0213177
0.0210999
0.0209254
0.0207847
0.0206804
0.0205989
0.0205451
0.0205029
0.0204817
0.0204633
0.0204631
0.0204598
0.0204746
0.0204812
0.0204996
0.0256393
0.0256331
0.0256243
0.0256064
0.0255892
0.0255631
0.0255385
0.0255052
0.0254733
0.0254336
0.0253955
0.0253514
0.0253095
0.0252641
0.0252221
0.0251795
0.0251418
0.0251061
0.0250769
0.0250521
0.0250352
0.0250244
0.0250222
0.0250267
0.0250391
0.0250569
0.0250788
0.0251007
0.0251186
0.0251256
0.0251148
0.0250776
0.0250061
0.0248925
0.0247312
0.0245198
0.0242588
0.0239543
0.0236142
0.0232521
0.0228805
0.0225155
0.0221677
0.0218502
0.0215666
0.0213244
0.0211194
0.0209552
0.0208217
0.020722
0.0206426
0.0205893
0.0205459
0.020523
0.0205014
0.0204979
0.0204893
0.0204994
0.0204993
0.0205178
0.0256523
0.0256421
0.0256335
0.0256141
0.0255979
0.0255712
0.0255472
0.0255134
0.0254816
0.0254412
0.0254026
0.0253575
0.0253148
0.0252683
0.0252253
0.0251814
0.0251425
0.0251055
0.025075
0.0250486
0.02503
0.0250172
0.0250129
0.0250154
0.025026
0.0250424
0.0250637
0.0250858
0.0251049
0.0251139
0.0251059
0.0250716
0.0250026
0.0248904
0.0247287
0.0245145
0.0242482
0.0239357
0.0235856
0.0232126
0.0228301
0.0224559
0.0221015
0.0217808
0.0214978
0.0212595
0.0210611
0.0209051
0.0207805
0.0206895
0.020618
0.0205716
0.0205335
0.020515
0.020496
0.020495
0.0204867
0.020499
0.0204985
0.0205237
0.0256727
0.0256573
0.02565
0.0256294
0.0256153
0.0255886
0.0255663
0.0255323
0.0255011
0.0254602
0.0254216
0.0253756
0.0253323
0.0252846
0.0252405
0.0251949
0.0251542
0.0251147
0.0250811
0.0250507
0.0250271
0.0250082
0.0249966
0.0249906
0.024992
0.0249985
0.0250099
0.0250223
0.0250326
0.025034
0.0250198
0.0249809
0.0249087
0.0247946
0.0246316
0.0244163
0.0241485
0.0238338
0.0234811
0.0231049
0.0227199
0.0223445
0.0219914
0.0216751
0.0213997
0.0211722
0.0209868
0.0208452
0.0207349
0.0206576
0.0205979
0.0205616
0.020531
0.0205182
0.0205023
0.0205034
0.0204944
0.0205073
0.0205045
0.0205342
0.0256944
0.0256723
0.0256655
0.0256419
0.0256292
0.025601
0.0255793
0.0255438
0.0255123
0.0254693
0.0254291
0.0253803
0.0253343
0.0252827
0.0252346
0.0251839
0.0251377
0.0250914
0.0250501
0.0250104
0.0249762
0.0249449
0.0249196
0.0248988
0.0248845
0.0248754
0.024872
0.0248713
0.0248712
0.0248657
0.0248489
0.0248118
0.0247458
0.0246413
0.0244905
0.0242881
0.0240322
0.0237268
0.0233793
0.0230039
0.0226156
0.0222339
0.0218735
0.0215509
0.021272
0.0210448
0.020864
0.0207309
0.020632
0.0205678
0.0205215
0.0204982
0.020479
0.0204764
0.0204681
0.0204759
0.0204708
0.0204878
0.0204863
0.0205201
0.0257194
0.0256903
0.0256849
0.0256588
0.0256482
0.0256189
0.0255985
0.0255617
0.0255301
0.025485
0.0254432
0.0253911
0.0253416
0.0252849
0.0252309
0.0251723
0.0251164
0.0250576
0.0250008
0.0249417
0.0248838
0.0248242
0.0247659
0.0247074
0.0246522
0.0245997
0.0245527
0.0245104
0.0244733
0.0244379
0.0244009
0.024355
0.0242926
0.0242043
0.0240809
0.0239148
0.023701
0.0234395
0.023134
0.0227955
0.0224369
0.0220769
0.0217311
0.0214177
0.0211451
0.0209236
0.0207494
0.0206247
0.0205362
0.0204839
0.0204501
0.0204389
0.0204308
0.0204378
0.020437
0.0204506
0.020449
0.0204685
0.0204675
0.0205023
0.025738
0.0257014
0.0256971
0.0256676
0.0256587
0.0256271
0.0256072
0.0255679
0.0255351
0.0254864
0.0254413
0.0253837
0.0253281
0.0252627
0.0251981
0.0251252
0.0250512
0.0249687
0.024882
0.0247849
0.0246804
0.0245643
0.0244404
0.0243076
0.0241716
0.0240346
0.0239035
0.023782
0.0236753
0.0235848
0.023511
0.0234501
0.0233963
0.0233404
0.023272
0.0231802
0.023055
0.0228896
0.0226811
0.0224331
0.0221528
0.0218552
0.0215546
0.0212706
0.0210148
0.0208015
0.0206314
0.0205098
0.0204255
0.0203792
0.0203534
0.0203513
0.020353
0.0203692
0.0203769
0.0203974
0.0204013
0.0204242
0.0204254
0.0204601
0.025754
0.02571
0.0257075
0.0256752
0.0256684
0.025635
0.0256159
0.0255741
0.0255402
0.0254875
0.0254384
0.0253737
0.0253093
0.0252309
0.025149
0.025052
0.0249459
0.0248201
0.024677
0.0245077
0.0243139
0.0240904
0.023842
0.0235703
0.0232852
0.0229949
0.0227132
0.0224508
0.0222206
0.0220301
0.0218859
0.0217887
0.0217362
0.0217206
0.0217313
0.0217544
0.0217746
0.0217771
0.0217486
0.0216813
0.021571
0.0214227
0.021244
0.0210516
0.0208588
0.0206845
0.0205358
0.0204245
0.0203452
0.0203019
0.0202794
0.0202815
0.0202883
0.0203097
0.0203228
0.0203474
0.020355
0.0203791
0.0203815
0.020414
0.0257546
0.025703
0.0257023
0.0256666
0.0256615
0.0256253
0.0256061
0.0255608
0.0255243
0.0254657
0.0254101
0.0253345
0.0252558
0.0251561
0.0250452
0.0249068
0.0247444
0.0245425
0.0243003
0.0240053
0.0236581
0.0232544
0.0228028
0.0223109
0.0217972
0.021279
0.0207796
0.0203182
0.0199157
0.0195862
0.0193421
0.0191886
0.0191273
0.0191531
0.0192568
0.0194236
0.019635
0.0198694
0.0201035
0.0203152
0.0204843
0.0205986
0.0206508
0.0206465
0.0205944
0.0205155
0.0204241
0.020342
0.0202744
0.0202335
0.0202103
0.020211
0.0202179
0.0202401
0.0202555
0.0202818
0.0202919
0.0203164
0.0203199
0.0203495
0.0257448
0.0256859
0.0256875
0.0256489
0.0256459
0.0256072
0.0255881
0.025539
0.0254994
0.0254335
0.0253685
0.0252771
0.0251762
0.0250425
0.0248831
0.0246754
0.0244177
0.0240881
0.0236819
0.0231838
0.0225965
0.0219207
0.0211743
0.020376
0.0195565
0.0187442
0.0179725
0.0172683
0.0166582
0.0161608
0.0157919
0.0155596
0.0154691
0.0155184
0.0157018
0.0160076
0.0164188
0.0169127
0.0174606
0.0180302
0.0185852
0.0190917
0.0195187
0.0198481
0.0200708
0.0201982
0.0202466
0.0202474
0.0202212
0.0201953
0.0201737
0.0201698
0.0201716
0.0201886
0.0202011
0.0202242
0.0202333
0.0202551
0.0202582
0.0202839
0.0257088
0.0256425
0.0256462
0.0256042
0.0256026
0.0255606
0.0255403
0.0254857
0.0254405
0.0253636
0.0252835
0.0251676
0.0250307
0.0248426
0.0246049
0.0242858
0.0238771
0.0233499
0.0226975
0.0219067
0.0209886
0.0199562
0.0188432
0.0176836
0.0165219
0.0153966
0.0143477
0.0134052
0.0125966
0.0119395
0.0114491
0.0111331
0.0109975
0.011043
0.0112686
0.0116682
0.012232
0.0129438
0.0137795
0.014707
0.0156833
0.0166589
0.017578
0.0183899
0.0190513
0.0195437
0.0198667
0.0200504
0.0201297
0.0201527
0.0201465
0.0201404
0.0201343
0.0201411
0.0201457
0.0201613
0.020166
0.0201829
0.0201842
0.0202061
0.025653
0.0255797
0.0255859
0.0255409
0.0255408
0.0254953
0.0254734
0.0254122
0.025359
0.0252668
0.025164
0.0250108
0.0248178
0.0245447
0.024185
0.0236962
0.0230632
0.0222536
0.0212651
0.0200956
0.0187738
0.0173329
0.0158266
0.0143045
0.0128218
0.0114214
0.0101433
0.00901342
0.00805407
0.00727699
0.00669244
0.00630449
0.00611778
0.00613377
0.00635492
0.00678147
0.00741275
0.00824406
0.00926473
0.0104551
0.0117817
0.0131966
0.0146337
0.0160162
0.017261
0.0182995
0.0190854
0.0196178
0.0199265
0.020076
0.0201249
0.0201316
0.0201201
0.0201135
0.0201052
0.020108
0.0201038
0.0201127
0.0201101
0.0201279
0.0255582
0.0254778
0.0254861
0.0254374
0.0254376
0.025387
0.0253611
0.0252901
0.0252238
0.0251082
0.0249701
0.0247603
0.0244821
0.0240825
0.0235448
0.0228163
0.0218793
0.020706
0.0193096
0.0177099
0.0159621
0.014123
0.0122648
0.0104467
0.00872612
0.00714122
0.00572396
0.00449019
0.00345262
0.00261431
0.00197898
0.00154591
0.00131708
0.00129321
0.00147816
0.001876
0.00249277
0.00333423
0.00440412
0.00570137
0.00721396
0.0089148
0.0107527
0.0126514
0.0145071
0.0162045
0.0176322
0.0187188
0.0194457
0.0198627
0.020052
0.0201119
0.020109
0.0200904
0.0200663
0.020052
0.0200352
0.0200331
0.0200248
0.0200389
0.0254331
0.0253464
0.0253566
0.0253043
0.0253042
0.0252478
0.0252159
0.0251317
0.0250463
0.0248974
0.0247074
0.024415
0.0240132
0.0234346
0.0226528
0.0216099
0.020295
0.0186973
0.0168581
0.014828
0.0126911
0.0105235
0.0084066
0.00639785
0.00454626
0.00287688
0.00140839
0.000144087
-0.000913108
-0.00176766
-0.0024208
-0.00287651
-0.00313463
-0.00319533
-0.00305494
-0.00270847
-0.00214778
-0.00136229
-0.000340022
0.000931946
0.00246201
0.00425079
0.00627943
0.00850229
0.0108338
0.0131487
0.0152894
0.0171002
0.0184668
0.0193622
0.019848
0.0200498
0.0200936
0.0200742
0.0200346
0.0199996
0.0199664
0.0199502
0.0199343
0.0199442
0.0252551
0.025162
0.0251733
0.0251161
0.0251134
0.0250483
0.0250061
0.0249024
0.0247881
0.0245908
0.0243261
0.0239179
0.0233468
0.0225316
0.0214409
0.0200215
0.0182824
0.0162432
0.0139817
0.0115805
0.00914551
0.00676019
0.00450139
0.0024128
0.000526839
-0.00114844
-0.00260815
-0.00385954
-0.00490629
-0.00575677
-0.00641388
-0.00688204
-0.00716109
-0.00725105
-0.00714875
-0.0068498
-0.00634739
-0.00563138
-0.00468933
-0.00350382
-0.00205665
-0.000327946
0.00169353
0.00400355
0.00656369
0.0092869
0.0120255
0.0145797
0.0167378
0.0183411
0.0193497
0.0198558
0.0200306
0.0200415
0.0199945
0.0199375
0.0198854
0.0198524
0.0198271
0.0198324
0.0250366
0.0249381
0.0249499
0.0248873
0.0248803
0.0248042
0.0247474
0.0246177
0.0244633
0.0242001
0.0238335
0.0232712
0.022481
0.0213724
0.0199183
0.0180836
0.0159105
0.0134581
0.0108411
0.00816513
0.00554384
0.00305234
0.000750548
-0.00133904
-0.00320304
-0.00484896
-0.00628192
-0.00751503
-0.00855398
-0.00940687
-0.0100749
-0.0105605
-0.0108614
-0.0109765
-0.0109025
-0.0106358
-0.0101723
-0.00950496
-0.00862566
-0.00752
-0.00617123
-0.00455421
-0.00264331
-0.000412923
0.0021456
0.00500628
0.00808291
0.0112052
0.0141292
0.0165774
0.0183472
0.019394
0.0198598
0.0199723
0.0199405
0.0198652
0.0197927
0.0197397
0.0197034
0.0197027
0.0247518
0.0246478
0.0246585
0.0245885
0.0245735
0.0244817
0.0244033
0.0242376
0.0240279
0.0236769
0.0231775
0.0224209
0.0213654
0.0199194
0.0180722
0.01582
0.0132475
0.0104534
0.0075798
0.00474005
0.00203883
-0.000469667
-0.00274928
-0.00479975
-0.0066239
-0.00823972
-0.00965706
-0.0108898
-0.0119415
-0.0128168
-0.0135129
-0.0140282
-0.0143577
-0.0144977
-0.0144446
-0.0141951
-0.0137479
-0.0130992
-0.0122474
-0.0111839
-0.00989984
-0.00837483
-0.00658444
-0.00449277
-0.0020645
0.000724789
0.00386332
0.00726158
0.010731
0.0139644
0.0166264
0.0184598
0.019456
0.0198125
0.0198482
0.0197678
0.0196763
0.0196
0.0195511
0.0195417
0.0244187
0.0243106
0.024319
0.0242404
0.0242144
0.0241031
0.0239963
0.0237848
0.0235042
0.0230428
0.0223794
0.0213914
0.0200333
0.0182236
0.0159804
0.013341
0.0104341
0.00738925
0.00436043
0.00145176
-0.00125391
-0.00372975
-0.00596357
-0.00797344
-0.0097727
-0.011384
-0.0128167
-0.0140814
-0.0151769
-0.0161021
-0.016849
-0.017411
-0.0177796
-0.0179481
-0.0179123
-0.0176683
-0.0172174
-0.0165588
-0.0156969
-0.01463
-0.013359
-0.0118729
-0.0101574
-0.00818097
-0.0059039
-0.00327732
-0.000259566
0.00314441
0.00685085
0.0106232
0.0141044
0.0168643
0.0186463
0.0194788
0.0196904
0.0196364
0.0195334
0.0194296
0.0193662
0.0193442
0.024009
0.0238969
0.0239004
0.0238105
0.0237684
0.0236316
0.0234873
0.0232176
0.0228485
0.0222533
0.0213976
0.0201496
0.0184684
0.0162938
0.0136825
0.0107161
0.00755979
0.00435984
0.00126509
-0.00164285
-0.00430951
-0.00673529
-0.00892776
-0.0109171
-0.0127212
-0.0143621
-0.0158453
-0.0171754
-0.0183447
-0.0193452
-0.0201635
-0.0207876
-0.0212056
-0.0214075
-0.0213884
-0.0211434
-0.0206759
-0.0199866
-0.0190859
-0.017977
-0.0166711
-0.0151665
-0.0134633
-0.0115416
-0.0093715
-0.0069025
-0.00407021
-0.000823343
0.0028552
0.00684859
0.0108943
0.0145165
0.0172495
0.018819
0.0194123
0.0194457
0.0193511
0.0192169
0.019136
0.0190962
0.0235488
0.0234343
0.0234314
0.0233287
0.0232666
0.0230995
0.0229098
0.0225712
0.0220978
0.0213494
0.0202797
0.0187546
0.0167468
0.0142274
0.0112958
0.0080741
0.00475201
0.0014762
-0.00162316
-0.00449408
-0.00711094
-0.00949695
-0.0116733
-0.0136761
-0.0155229
-0.0172314
-0.0188008
-0.020228
-0.0214984
-0.0225967
-0.0235045
-0.024204
-0.0246808
-0.0249213
-0.0249203
-0.0246712
-0.0241799
-0.0234472
-0.0224887
-0.0213107
-0.0199334
-0.0183628
-0.0166132
-0.014678
-0.0125448
-0.0101749
-0.00750592
-0.00446405
-0.000965771
0.00298399
0.00727308
0.0115104
0.0151711
0.0176693
0.0189137
0.0191716
0.0191138
0.0189572
0.0188528
0.0187895
0.0230076
0.022891
0.0228787
0.0227602
0.0226726
0.0224689
0.0222248
0.0218062
0.0212143
0.0202974
0.0190012
0.0171968
0.0148782
0.0120538
0.00886459
0.00546371
0.00205091
-0.00124026
-0.00430684
-0.00712763
-0.00970226
-0.0120705
-0.0142613
-0.0163114
-0.0182347
-0.020042
-0.0217251
-0.0232725
-0.0246627
-0.0258736
-0.0268821
-0.0276652
-0.0282066
-0.0284891
-0.0285077
-0.0282539
-0.0277357
-0.0269537
-0.0259278
-0.0246658
-0.0231955
-0.0215279
-0.0196895
-0.0176851
-0.0155212
-0.0131766
-0.0106056
-0.00773795
-0.00446245
-0.000709755
0.00355002
0.00808385
0.0124532
0.0159246
0.018032
0.0187726
0.01879
0.0186371
0.0185032
0.018409
0.0224224
0.0223057
0.0222823
0.0221468
0.0220299
0.0217857
0.0214807
0.0209744
0.0202548
0.0191617
0.0176368
0.0155639
0.0129636
0.00988321
0.00649942
0.00298504
-0.000463518
-0.00373496
-0.00675636
-0.00953449
-0.0120887
-0.0144692
-0.0167077
-0.0188379
-0.0208677
-0.0228
-0.0246184
-0.0263033
-0.0278269
-0.0291606
-0.0302775
-0.0311499
-0.0317601
-0.0320872
-0.0321271
-0.0318688
-0.0313233
-0.0304896
-0.0293929
-0.0280403
-0.0264669
-0.0246855
-0.022733
-0.0206219
-0.0183757
-0.0159903
-0.0134428
-0.0106816
-0.00759709
-0.00408926
-2.53837e-05
0.00451809
0.00928917
0.0135781
0.0166572
0.0181316
0.0183751
0.0182255
0.0180845
0.0179401
0.0217601
0.021644
0.0216068
0.0214517
0.0213009
0.0210116
0.0206396
0.02004
0.0191875
0.0179178
0.0161728
0.0138542
0.0110121
0.00773027
0.0042122
0.000639045
-0.00280635
-0.0060392
-0.00901577
-0.0117656
-0.0143224
-0.0167414
-0.0190537
-0.0212874
-0.0234436
-0.0255158
-0.0274809
-0.0293109
-0.0309733
-0.0324331
-0.033661
-0.0346243
-0.0353047
-0.0356772
-0.0357392
-0.0354763
-0.0349035
-0.0340175
-0.0328494
-0.0314048
-0.0297261
-0.0278252
-0.0257484
-0.0235114
-0.0211516
-0.0186782
-0.0160914
-0.0133635
-0.0104042
-0.00711621
-0.00331172
0.00104707
0.00592584
0.0107416
0.0147619
0.0170897
0.0178581
0.0176842
0.0175859
0.0173633
0.0210703
0.0209573
0.0209052
0.0207306
0.0205436
0.0202078
0.0197662
0.0190722
0.018088
0.0166492
0.0147011
0.0121674
0.00912656
0.00569399
0.00209043
-0.00150411
-0.00492646
-0.00811867
-0.0110626
-0.0138052
-0.0163893
-0.0188714
-0.0212797
-0.023635
-0.0259313
-0.0281534
-0.0302717
-0.0322509
-0.0340548
-0.0356426
-0.0369835
-0.0380392
-0.0387917
-0.0392108
-0.0392962
-0.0390292
-0.0384297
-0.0374913
-0.0362524
-0.034716
-0.032933
-0.0309131
-0.0287113
-0.0263425
-0.0238558
-0.0212677
-0.0185984
-0.0158431
-0.0129389
-0.00981028
-0.00625643
-0.0021731
0.00258395
0.0076265
0.0123797
0.0155985
0.0171264
0.0170289
0.0169642
0.0166736
0.0203164
0.0202072
0.0201384
0.019943
0.0197172
0.0193335
0.0188215
0.0180351
0.0169252
0.0153312
0.0132041
0.010491
0.00729541
0.00375834
0.000108693
-0.00348101
-0.00687012
-0.0100251
-0.0129493
-0.0157014
-0.0183302
-0.0208903
-0.0234061
-0.0258902
-0.0283302
-0.0307022
-0.0329721
-0.0350975
-0.0370404
-0.0387537
-0.0402063
-0.0413536
-0.0421783
-0.0426438
-0.042753
-0.0424816
-0.0418557
-0.0408644
-0.0395552
-0.0379275
-0.0360427
-0.0339064
-0.0315837
-0.0290858
-0.0264717
-0.0237596
-0.0209855
-0.018162
-0.0152545
-0.0122183
-0.00886724
-0.00507252
-0.000577025
0.00444612
0.00962199
0.013689
0.0160215
0.0162852
0.0161627
0.0158661
0.0195613
0.0194591
0.0193736
0.0191592
0.018895
0.0184653
0.0178854
0.017013
0.0157885
0.0140586
0.0117805
0.00892432
0.00561414
0.00200951
-0.00165955
-0.00523167
-0.00858853
-0.011717
-0.0146374
-0.0174159
-0.0201045
-0.0227539
-0.0253843
-0.0280002
-0.0305838
-0.0331032
-0.0355212
-0.0377892
-0.0398682
-0.0417051
-0.0432689
-0.0445078
-0.0454058
-0.0459188
-0.0460535
-0.0457784
-0.0451275
-0.0440838
-0.0427059
-0.0409881
-0.0390044
-0.0367553
-0.0343181
-0.0316977
-0.0289634
-0.0261298
-0.0232455
-0.0203332
-0.0173832
-0.0143826
-0.0111735
-0.00763725
-0.00345745
0.00136658
0.00667309
0.0114152
0.0145077
0.0154072
0.0151815
0.0149239
0.0187612
0.0186667
0.0185641
0.0183309
0.0180285
0.0175553
0.0169119
0.0159627
0.0146384
0.0127954
0.0103967
0.00743361
0.00404471
0.000402758
-0.00326652
-0.00681363
-0.010141
-0.0132513
-0.016178
-0.0189913
-0.0217449
-0.0244846
-0.0272269
-0.0299681
-0.0326867
-0.0353433
-0.0378997
-0.0403009
-0.0425087
-0.0444628
-0.0461336
-0.0474606
-0.0484305
-0.0489895
-0.0491498
-0.0488708
-0.0481962
-0.0471007
-0.0456564
-0.04385
-0.0417714
-0.0394136
-0.0368689
-0.0341341
-0.0312904
-0.0283449
-0.0253566
-0.0223513
-0.0193386
-0.0163342
-0.0132108
-0.00988551
-0.00601474
-0.00150349
0.00371865
0.00885616
0.0126489
0.0142698
0.0140597
0.0138084
0.0179931
0.0179099
0.0177918
0.0175436
0.0172059
0.0166943
0.0159944
0.0149802
0.0135736
0.0116423
0.00915335
0.00611626
0.00267849
-0.000979091
-0.00463833
-0.00816085
-0.0114667
-0.0145697
-0.0175133
-0.0203686
-0.0231905
-0.0260191
-0.0288682
-0.0317265
-0.0345704
-0.0373536
-0.0400385
-0.0425635
-0.0448928
-0.0469577
-0.0487315
-0.0501433
-0.051184
-0.051788
-0.0519753
-0.0516938
-0.0509987
-0.0498543
-0.0483483
-0.0464578
-0.0442906
-0.04183
-0.0391866
-0.0363467
-0.0334063
-0.0303617
-0.0272829
-0.0241916
-0.0211126
-0.0180828
-0.0150029
-0.0118395
-0.00824102
-0.00409483
0.000902077
0.00613856
0.0105341
0.0127997
0.0128421
0.0125048
0.0172008
0.0171293
0.0169965
0.0167351
0.0163649
0.0158204
0.0150726
0.0140072
0.0125378
0.0105441
0.00799477
0.00491421
0.00145308
-0.00220285
-0.00584491
-0.00934318
-0.0126324
-0.015733
-0.018696
-0.0215916
-0.0244758
-0.0273827
-0.0303254
-0.0332846
-0.0362372
-0.0391297
-0.0419272
-0.0445607
-0.0469984
-0.049162
-0.0510295
-0.0525175
-0.0536236
-0.0542683
-0.0544814
-0.0541968
-0.0534841
-0.0522939
-0.0507324
-0.0487635
-0.0465159
-0.0439603
-0.0412285
-0.0382936
-0.0352703
-0.0321405
-0.0289882
-0.0258241
-0.0226868
-0.0196245
-0.0165632
-0.0135191
-0.0101487
-0.00637075
-0.00168581
0.00341089
0.00824461
0.011023
0.0115241
0.0110234
0.0164761
0.0164197
0.0162755
0.0160062
0.0156086
0.0150387
0.0142525
0.0131504
0.0116376
0.00960648
0.00702444
0.00392702
0.000463104
-0.00317958
-0.00680233
-0.010281
-0.0135612
-0.016666
-0.0196521
-0.0225865
-0.0255273
-0.0285022
-0.0315252
-0.0345697
-0.0376149
-0.0405999
-0.0434946
-0.0462212
-0.0487541
-0.0510036
-0.052955
-0.0545102
-0.0556764
-0.0563576
-0.0565965
-0.0563099
-0.0555848
-0.0543548
-0.0527472
-0.0507091
-0.0483935
-0.0457539
-0.0429474
-0.0399297
-0.0368391
-0.0336389
-0.0304316
-0.0272109
-0.0240312
-0.0209397
-0.017888
-0.0149312
-0.0117498
-0.00831303
-0.0039894
0.000807757
0.00585952
0.00901437
0.010047
0.00937833
0.0157437
0.0157022
0.0155484
0.0152738
0.0148537
0.0142655
0.0134518
0.0123284
0.010793
0.00874982
0.00616191
0.00307266
-0.000375592
-0.00399431
-0.00759506
-0.0110554
-0.0143292
-0.017438
-0.020443
-0.0234067
-0.0263903
-0.0294152
-0.0324984
-0.0356057
-0.0387214
-0.0417759
-0.0447463
-0.0475443
-0.0501532
-0.0524695
-0.054489
-0.0560968
-0.057313
-0.058022
-0.0582835
-0.0579935
-0.0572601
-0.0559953
-0.0543518
-0.0522548
-0.049885
-0.0471741
-0.0443083
-0.0412214
-0.0380799
-0.0348241
-0.0315808
-0.0283201
-0.0251171
-0.0220059
-0.0189665
-0.0160759
-0.0130539
-0.00991721
-0.00597513
-0.00156814
0.00347168
0.00686527
0.00837222
0.00759989
0.0151125
0.0150891
0.0149301
0.0146565
0.0142204
0.0136223
0.0127916
0.0116612
0.0101213
0.0080883
0.00551808
0.00245838
-0.00095884
-0.00454609
-0.00812468
-0.0115709
-0.0148436
-0.0179591
-0.020982
-0.0239686
-0.0269844
-0.0300439
-0.0331699
-0.0363201
-0.0394863
-0.042589
-0.0456149
-0.0484635
-0.0511295
-0.0534938
-0.055566
-0.0572118
-0.0584683
-0.0591975
-0.0594799
-0.0591867
-0.0584513
-0.0571597
-0.0554934
-0.0533506
-0.0509439
-0.0481775
-0.0452714
-0.042131
-0.0389574
-0.0356613
-0.0324016
-0.0291169
-0.0259112
-0.0227928
-0.0197762
-0.0169405
-0.0140584
-0.0111793
-0.0076171
-0.00364185
0.00119045
0.00468125
0.00654142
0.00575321
0.0144805
0.0144735
0.0143118
0.0140421
0.0135961
0.0129958
0.0121595
0.0110374
0.00951289
0.00751354
0.00498521
0.00197738
-0.00139255
-0.00493832
-0.00849146
-0.0119227
-0.0151941
-0.0183124
-0.0213455
-0.0243414
-0.0273722
-0.0304445
-0.0335902
-0.0367574
-0.0399488
-0.0430729
-0.0461294
-0.0490021
-0.0517016
-0.0540894
-0.0561942
-0.0578584
-0.0591414
-0.0598787
-0.0601769
-0.0598777
-0.0591445
-0.0578318
-0.0561546
-0.0539782
-0.051552
-0.0487456
-0.0458182
-0.0426402
-0.0394532
-0.0361314
-0.0328737
-0.0295794
-0.0263904
-0.0232773
-0.0202974
-0.0175117
-0.0147578
-0.0120975
-0.00889773
-0.00536181
-0.000875639
0.0025748
0.00466024
0.00392518
0.013979
0.0139909
0.0138314
0.0135723
0.0131236
0.0125295
0.0116972
0.0105957
0.00910161
0.0071541
0.00468734
0.00174983
-0.00155869
-0.005055
-0.00858074
-0.011999
-0.0152722
-0.0183945
-0.0214357
-0.0244337
-0.0274684
-0.0305375
-0.0336848
-0.0368479
-0.0400436
-0.0431659
-0.0462311
-0.0491044
-0.0518162
-0.0542055
-0.0563247
-0.0579895
-0.0592874
-0.0600225
-0.0603335
-0.0600273
-0.0593028
-0.0579765
-0.0563029
-0.054107
-0.0516804
-0.0488511
-0.0459235
-0.0427247
-0.0395445
-0.0362115
-0.0329741
-0.0296829
-0.0265287
-0.023432
-0.0205038
-0.0177674
-0.0151359
-0.0126621
-0.00979917
-0.00668835
-0.00263185
0.000656153
0.00285214
0.00220523
0.0134699
0.0134975
0.0133425
0.0130964
0.0126517
0.0120714
0.0112544
0.0101877
0.00874211
0.00686792
0.00448551
0.00164091
-0.00158796
-0.00502097
-0.00851199
-0.0119124
-0.015185
-0.0183058
-0.0213478
-0.0243345
-0.0273569
-0.0304012
-0.0335278
-0.0366605
-0.0398356
-0.0429285
-0.0459773
-0.0488237
-0.051524
-0.0538891
-0.0560021
-0.0576462
-0.0589443
-0.0596633
-0.0599813
-0.0596632
-0.0589508
-0.0576151
-0.0559566
-0.0537516
-0.0513416
-0.0485033
-0.0455946
-0.0423893
-0.0392341
-0.035902
-0.032701
-0.0294222
-0.0263177
-0.0232453
-0.0203818
-0.0176947
-0.0151829
-0.012868
-0.0103127
-0.00759759
-0.00401077
-0.000982921
0.00121972
0.000665641
0.0131162
0.0131615
0.0130158
0.0127891
0.0123556
0.0117968
0.011003
0.00997997
0.00859371
0.00680622
0.00452388
0.00178892
-0.0013451
-0.00470334
-0.00815342
-0.0115343
-0.0148078
-0.0179288
-0.0209717
-0.0239431
-0.0269461
-0.0299532
-0.0330445
-0.0361283
-0.0392642
-0.0423063
-0.0453191
-0.0481167
-0.0507863
-0.0531063
-0.0551967
-0.0568031
-0.0580905
-0.0587829
-0.0591047
-0.0587724
-0.0580776
-0.056738
-0.0551074
-0.0529047
-0.0505288
-0.0476956
-0.044825
-0.0416268
-0.0385148
-0.0351941
-0.0320446
-0.0287849
-0.0257427
-0.0226988
-0.0199111
-0.0172722
-0.0148798
-0.0127003
-0.0104247
-0.0080679
-0.00496242
-0.00226583
-0.000154885
-0.000631367
0.0127322
0.0127902
0.0126554
0.0124495
0.0120339
0.0115041
0.0107444
0.0097782
0.0084674
0.0067864
0.0046261
0.00202539
-0.000991131
-0.00425367
-0.00764855
-0.0109989
-0.0142683
-0.0173834
-0.0204228
-0.0233692
-0.026342
-0.0292946
-0.0323333
-0.0353453
-0.0384212
-0.0413876
-0.0443432
-0.0470672
-0.0496866
-0.0519388
-0.0539898
-0.0555394
-0.0568042
-0.0574565
-0.057777
-0.057424
-0.0567491
-0.055406
-0.0538122
-0.0516175
-0.0492892
-0.0464695
-0.0436525
-0.0404697
-0.0374154
-0.0341118
-0.0310255
-0.0277867
-0.0248158
-0.0217995
-0.019095
-0.0164999
-0.0142262
-0.0121595
-0.0101368
-0.00809442
-0.00546169
-0.00313927
-0.00121283
-0.00163787
0.0125279
0.0126004
0.0124801
0.0123007
0.0119094
0.0114148
0.0106949
0.00979073
0.00856086
0.00699375
0.00496586
0.00251345
-0.000369452
-0.00352027
-0.00684766
-0.0101601
-0.013424
-0.016535
-0.0195752
-0.0224986
-0.0254419
-0.0283355
-0.0313149
-0.0342431
-0.037247
-0.0401214
-0.0430059
-0.0456395
-0.0481954
-0.0503641
-0.0523649
-0.0538446
-0.0550799
-0.0556834
-0.0560009
-0.0556238
-0.0549734
-0.0536287
-0.0520816
-0.0499007
-0.0476336
-0.044835
-0.0420863
-0.0389257
-0.0359426
-0.0326591
-0.0296459
-0.0264262
-0.0235327
-0.0205388
-0.0179221
-0.0153626
-0.0132068
-0.0112312
-0.00943832
-0.00766468
-0.00548489
-0.00355444
-0.00189625
-0.00229917
0.0122533
0.0123336
0.0122283
0.0120757
0.0117149
0.0112632
0.0105939
0.0097646
0.00863038
0.00719559
0.00532083
0.00304312
0.000320884
-0.00268859
-0.00592491
-0.00917887
-0.0124266
-0.0155253
-0.0185647
-0.0214606
-0.0243723
-0.0271976
-0.0301099
-0.0329387
-0.0358579
-0.0386212
-0.0414206
-0.0439445
-0.0464245
-0.0484921
-0.0504331
-0.0518281
-0.0530276
-0.0535707
-0.053883
-0.0534742
-0.0528502
-0.0515
-0.0500056
-0.0478377
-0.0456406
-0.0428635
-0.0401934
-0.0370544
-0.0341516
-0.0308848
-0.0279506
-0.024742
-0.021929
-0.0189464
-0.0164193
-0.0138821
-0.0118422
-0.00993343
-0.0083484
-0.00679296
-0.00503398
-0.00348521
-0.00216115
-0.00256887
0.0121876
0.012278
0.0121897
0.0120679
0.011742
0.0113377
0.0107217
0.00996856
0.00892942
0.00762707
0.00590777
0.00381283
0.00126478
-0.00158469
-0.00471155
-0.00789147
-0.0111155
-0.0142006
-0.0172454
-0.0201216
-0.023012
-0.0257752
-0.0286257
-0.0313539
-0.0341869
-0.0368317
-0.0395406
-0.041945
-0.0443436
-0.0463011
-0.0481785
-0.0494813
-0.0506435
-0.0511208
-0.0514291
-0.0509851
-0.0503917
-0.0490347
-0.0476003
-0.0454452
-0.0433274
-0.0405718
-0.0379898
-0.0348703
-0.0320554
-0.0287984
-0.0259473
-0.0227376
-0.0200057
-0.0170184
-0.0145804
-0.012048
-0.0101216
-0.00825408
-0.00685871
-0.0054713
-0.00409637
-0.00289701
-0.00194924
-0.00238056
0.0119932
0.0120858
0.0120137
0.0119218
0.0116365
0.0112878
0.0107367
0.0100737
0.00914406
0.00799211
0.00644686
0.0045611
0.00221572
-0.000436903
-0.00342123
-0.00649332
-0.00967289
-0.0127277
-0.0157755
-0.0186294
-0.0215053
-0.0242065
-0.0270005
-0.0296234
-0.03237
-0.034886
-0.0375009
-0.0397732
-0.0420867
-0.0439221
-0.0457341
-0.0469342
-0.0480594
-0.0484615
-0.0487677
-0.0482801
-0.0477208
-0.046349
-0.0449793
-0.0428295
-0.0407969
-0.0380545
-0.0355663
-0.0324558
-0.0297329
-0.0264713
-0.0237046
-0.0204754
-0.0178242
-0.0148113
-0.0124623
-0.00991251
-0.00809844
-0.00624235
-0.00501981
-0.00374365
-0.00270517
-0.00179328
-0.00122744
-0.00168798
0.0120502
0.0121485
0.0120927
0.0120327
0.0117888
0.0114973
0.0110098
0.0104339
0.00960641
0.0085967
0.00721695
0.00553779
0.00339937
0.000958724
-0.00186288
-0.00480359
-0.00792172
-0.0109355
-0.0139882
-0.0168276
-0.0197053
-0.0223604
-0.0251165
-0.0276466
-0.0303195
-0.0327117
-0.035239
-0.0373789
-0.0396108
-0.0413218
-0.0430718
-0.0441667
-0.0452591
-0.0455834
-0.0458924
-0.0453581
-0.0448383
-0.043448
-0.042149
-0.0399996
-0.0380583
-0.0353218
-0.0329326
-0.0298196
-0.0271911
-0.0239078
-0.0212247
-0.0179534
-0.0153803
-0.012316
-0.0100546
-0.00746041
-0.00575842
-0.00388174
-0.00282147
-0.00160186
-0.000855917
-0.000154619
5.74877e-05
-0.000420881
0.0118987
0.0119934
0.0119525
0.0119228
0.0117261
0.0115015
0.0110912
0.0106196
0.00991047
0.00906268
0.00786505
0.00641727
0.00451089
0.00232107
-0.000300097
-0.00306279
-0.0060855
-0.00902541
-0.012071
-0.0148865
-0.0177751
-0.0203891
-0.023125
-0.025569
-0.028184
-0.030454
-0.0329045
-0.0349081
-0.037066
-0.0386461
-0.0403408
-0.0413232
-0.0423898
-0.0426279
-0.0429468
-0.0423558
-0.0418823
-0.0404616
-0.0392395
-0.0370762
-0.0352315
-0.0324837
-0.0301972
-0.0270605
-0.0245281
-0.0211978
-0.0185991
-0.0152577
-0.0127651
-0.00962083
-0.00745353
-0.0047853
-0.00320375
-0.00126924
-0.000367026
0.000861194
0.00136393
0.00196234
0.00189399
0.00143172
0.0120645
0.0121615
0.0121336
0.0121341
0.01198
0.0118192
0.0114786
0.0111025
0.0104966
0.00979361
0.00875687
0.00752335
0.00583663
0.00389952
0.00149042
-0.00106964
-0.00397266
-0.00681441
-0.00984211
-0.0126304
-0.0155426
-0.0181319
-0.0208742
-0.0232552
-0.0258398
-0.0280068
-0.0304018
-0.0322812
-0.0343802
-0.0358356
-0.0374866
-0.0383592
-0.0394095
-0.0395617
-0.0398988
-0.0392489
-0.0388286
-0.0373722
-0.0362327
-0.0340467
-0.0323026
-0.02953
-0.0273476
-0.0241678
-0.0217304
-0.0183275
-0.0158106
-0.0123687
-0.00995587
-0.00669793
-0.00462857
-0.00185035
-0.000398455
0.00163537
0.0023732
0.00367144
0.00395904
0.00456126
0.0043016
0.00390894
0.0119144
0.0120024
0.0119866
0.0120159
0.0119122
0.0118284
0.0115752
0.0113183
0.0108362
0.0103031
0.00944412
0.00844905
0.00700012
0.00534998
0.00318533
0.000879358
-0.00186167
-0.00455366
-0.00753492
-0.0102666
-0.0132016
-0.0157626
-0.0185322
-0.0208607
-0.023444
-0.0255198
-0.0278866
-0.0296485
-0.031711
-0.0330423
-0.0346678
-0.0354261
-0.036476
-0.0365336
-0.0369025
-0.0361808
-0.0358256
-0.0343162
-0.0332691
-0.0310381
-0.0294023
-0.0265777
-0.0245053
-0.0212506
-0.0189135
-0.0154036
-0.0129772
-0.00939993
-0.00708295
-0.00367743
-0.00173179
0.00119275
0.00248303
0.00466471
0.00521386
0.00666242
0.00675604
0.00750443
0.00716928
0.00692836
0.0121831
0.0122714
0.0122639
0.0123205
0.0122555
0.0122388
0.0120556
0.0119002
0.0115165
0.0111256
0.0104096
0.00961973
0.00837525
0.00699182
0.00506145
0.0030203
0.000459968
-0.00205077
-0.00496146
-0.00761353
-0.0105671
-0.0131012
-0.0159181
-0.0182148
-0.02083
-0.0228417
-0.0252144
-0.0268824
-0.0289369
-0.0301608
-0.0317827
-0.0324367
-0.0335024
-0.0334699
-0.0338827
-0.0330886
-0.0328068
-0.0312386
-0.030289
-0.0280022
-0.0264766
-0.0235833
-0.0216203
-0.0182681
-0.0160302
-0.0123853
-0.0100504
-0.00630492
-0.00409017
-0.000498106
0.00130959
0.00442822
0.00553272
0.00792152
0.00824844
0.00992508