/*--------------------------------*- C++ -*----------------------------------*\
| =========                 |                                                 |
| \\      /  F ield         | OpenFOAM: The Open Source CFD Toolbox           |
|  \\    /   O peration     | Version:  2406                                  |
|   \\  /    A nd           | Website:  www.openfoam.com                      |
|    \\/     M anipulation  |                                                 |
\*---------------------------------------------------------------------------*/
FoamFile
{
    version     2.0;
    format      ascii;
    arch        "LSB;label=32;scalar=64";
    class       volVectorField;
    location    "42";
    object      Uold;
}
// * * * * * * * * * * * * * * * * * * * * * * * * * * * * * * * * * * * * * //

dimensions      [0 1 -1 0 0 0 0];

internalField   nonuniform List<vector> 
14400
(
(-1.89341e-05 1.88933e-05 0)
(-5.34087e-06 -9.85081e-06 0)
(0.000101803 -4.21791e-05 0)
(0.000290492 -7.13217e-05 0)
(0.00054929 -8.8954e-05 0)
(0.000844403 -9.89045e-05 0)
(0.00115982 -0.000100093 0)
(0.00146841 -9.56089e-05 0)
(0.00175849 -8.60017e-05 0)
(0.00201416 -7.37087e-05 0)
(0.00223106 -5.98173e-05 0)
(0.00240426 -4.61227e-05 0)
(0.00253652 -3.35187e-05 0)
(0.0026308 -2.29981e-05 0)
(0.00269414 -1.48946e-05 0)
(0.00273306 -9.41498e-06 0)
(0.00275519 -6.31728e-06 0)
(0.00276653 -5.2238e-06 0)
(0.00277219 -5.51416e-06 0)
(0.00277497 -6.52815e-06 0)
(0.00277588 -7.55669e-06 0)
(0.00277368 -7.97537e-06 0)
(0.00276547 -7.25646e-06 0)
(0.0027468 -5.031e-06 0)
(0.0027123 -1.07006e-06 0)
(0.00265594 4.72337e-06 0)
(0.00257143 1.2367e-05 0)
(0.00245241 2.18389e-05 0)
(0.0022925 3.31241e-05 0)
(0.00208531 4.62359e-05 0)
(0.00182437 6.12252e-05 0)
(0.00150307 7.81694e-05 0)
(0.00111465 9.71551e-05 0)
(0.000652262 0.000118255 0)
(0.000109049 0.00014151 0)
(-0.00052168 0.000166909 0)
(-0.00124625 0.000194386 0)
(-0.00207039 0.000223802 0)
(-0.00299899 0.000254951 0)
(-0.00403585 0.000287547 0)
(-0.00518342 0.00032123 0)
(-0.00644252 0.000355562 0)
(-0.00781219 0.000390034 0)
(-0.00928941 0.000424069 0)
(-0.010869 0.000457033 0)
(-0.0125433 0.000488241 0)
(-0.0143025 0.000516976 0)
(-0.0161342 0.000542496 0)
(-0.0180238 0.000564048 0)
(-0.0199541 0.000580884 0)
(-0.021906 0.000592271 0)
(-0.0238583 0.000597499 0)
(-0.0257881 0.000595896 0)
(-0.0276709 0.000586834 0)
(-0.029481 0.00056974 0)
(-0.0311918 0.000544108 0)
(-0.0327759 0.000509512 0)
(-0.0342059 0.000465624 0)
(-0.0354544 0.000412236 0)
(-0.0364947 0.000349281 0)
(-0.0373008 0.000276865 0)
(-0.0378488 0.000195292 0)
(-0.0381166 0.0001051 0)
(-0.0380847 7.08711e-06 0)
(-0.0377371 -9.76629e-05 0)
(-0.0370617 -0.000207759 0)
(-0.0360513 -0.000321493 0)
(-0.0347036 -0.000436846 0)
(-0.0330225 -0.000551508 0)
(-0.031018 -0.000662916 0)
(-0.0287073 -0.000768317 0)
(-0.0261142 -0.000864852 0)
(-0.02327 -0.000949662 0)
(-0.0202123 -0.00102001 0)
(-0.0169854 -0.00107341 0)
(-0.0136389 -0.00110779 0)
(-0.0102269 -0.0011216 0)
(-0.00680645 -0.00111395 0)
(-0.00343593 -0.0010847 0)
(-0.000173331 -0.00103452 0)
(0.00292573 -0.000964886 0)
(0.00580992 -0.00087805 0)
(0.00843394 -0.000776935 0)
(0.0107602 -0.000664995 0)
(0.0127599 -0.000546032 0)
(0.0144141 -0.000423989 0)
(0.0157141 -0.000302733 0)
(0.0166612 -0.00018586 0)
(0.0172661 -7.65135e-05 0)
(0.0175483 2.27405e-05 0)
(0.0175344 0.000109999 0)
(0.0172567 0.000184049 0)
(0.0167515 0.000244348 0)
(0.0160574 0.000290962 0)
(0.0152134 0.000324484 0)
(0.0142575 0.000345911 0)
(0.0132258 0.000356549 0)
(0.012151 0.000357884 0)
(0.0110617 0.000351496 0)
(0.00998244 0.000338954 0)
(0.00893309 0.000321772 0)
(0.00792924 0.000301317 0)
(0.00698211 0.00027883 0)
(0.00609944 0.00025533 0)
(0.00528527 0.000231724 0)
(0.0045414 0.000208662 0)
(0.00386656 0.000186763 0)
(0.00325866 0.000166349 0)
(0.00271287 0.000147838 0)
(0.00222526 0.000131213 0)
(0.00178908 0.000116727 0)
(0.00140091 0.000103824 0)
(0.00105415 9.2517e-05 0)
(0.000749261 8.12612e-05 0)
(0.000482913 6.9806e-05 0)
(0.000263416 5.50729e-05 0)
(9.37917e-05 3.74967e-05 0)
(-1.07486e-05 1.33628e-05 0)
(-4.62475e-05 -9.08107e-06 0)
(-2.27945e-05 -2.23278e-05 0)
(8.58524e-06 6.04945e-06 0)
(0.000148124 -0.000151565 0)
(0.000482515 -0.000315933 0)
(0.000975078 -0.00046328 0)
(0.0016102 -0.000561501 0)
(0.0023232 -0.000617806 0)
(0.00307878 -0.000628613 0)
(0.00382128 -0.000604597 0)
(0.00452105 -0.000550928 0)
(0.00514347 -0.000478575 0)
(0.00567454 -0.000395158 0)
(0.00610202 -0.000309767 0)
(0.00642803 -0.000228559 0)
(0.00665724 -0.000156942 0)
(0.00680218 -9.76362e-05 0)
(0.00687558 -5.18873e-05 0)
(0.00689213 -1.88225e-05 0)
(0.00686374 3.6784e-06 0)
(0.00680005 1.89774e-05 0)
(0.00670585 3.09596e-05 0)
(0.00658169 4.37595e-05 0)
(0.00642307 6.12106e-05 0)
(0.00622143 8.66048e-05 0)
(0.00596452 0.000122432 0)
(0.0056376 0.000170378 0)
(0.00522413 0.000231392 0)
(0.00470668 0.000305902 0)
(0.00406736 0.000394026 0)
(0.00328818 0.000495782 0)
(0.0023512 0.000611204 0)
(0.00123862 0.000740379 0)
(-6.71635e-05 0.000883394 0)
(-0.00158329 0.00104024 0)
(-0.00332617 0.00121069 0)
(-0.00531099 0.0013942 0)
(-0.0075512 0.00158979 0)
(-0.0100578 0.00179602 0)
(-0.0128388 0.00201096 0)
(-0.0158983 0.00223211 0)
(-0.0192362 0.00245651 0)
(-0.0228473 0.0026807 0)
(-0.0267212 0.00290078 0)
(-0.0308413 0.00311249 0)
(-0.0351855 0.00331132 0)
(-0.0397254 0.00349256 0)
(-0.044427 0.00365148 0)
(-0.0492505 0.00378337 0)
(-0.0541515 0.00388372 0)
(-0.0590809 0.00394828 0)
(-0.0639861 0.00397318 0)
(-0.0688117 0.003955 0)
(-0.0735005 0.00389084 0)
(-0.0779941 0.00377835 0)
(-0.082234 0.00361581 0)
(-0.0861624 0.00340212 0)
(-0.0897232 0.00313687 0)
(-0.0928625 0.00282032 0)
(-0.0955292 0.00245347 0)
(-0.0976762 0.00203805 0)
(-0.0992606 0.0015766 0)
(-0.100244 0.00107246 0)
(-0.100595 0.000529859 0)
(-0.100287 -4.60505e-05 0)
(-0.0993004 -0.000649167 0)
(-0.097623 -0.0012724 0)
(-0.0952507 -0.00190765 0)
(-0.0921879 -0.00254587 0)
(-0.088448 -0.00317709 0)
(-0.0840538 -0.00379052 0)
(-0.079038 -0.00437476 0)
(-0.0734434 -0.004918 0)
(-0.0673228 -0.00540831 0)
(-0.0607388 -0.00583402 0)
(-0.0537639 -0.00618408 0)
(-0.0464791 -0.00644858 0)
(-0.0389729 -0.00661915 0)
(-0.0313407 -0.00668945 0)
(-0.0236821 -0.00665561 0)
(-0.0160994 -0.00651656 0)
(-0.00869559 -0.00627427 0)
(-0.00157119 -0.00593391 0)
(0.00517779 -0.00550375 0)
(0.0114627 -0.00499501 0)
(0.0172045 -0.00442145 0)
(0.0223365 -0.00379885 0)
(0.0268058 -0.00314438 0)
(0.0305752 -0.00247585 0)
(0.033624 -0.00181091 0)
(0.0359483 -0.00116633 0)
(0.0375611 -0.000557311 0)
(0.0384912 3.16828e-06 0)
(0.0387816 0.000504731 0)
(0.038488 0.000939917 0)
(0.0376755 0.00130427 0)
(0.0364167 0.0015963 0)
(0.0347881 0.0018172 0)
(0.0328672 0.00197058 0)
(0.0307302 0.00206192 0)
(0.0284487 0.00209816 0)
(0.0260884 0.00208713 0)
(0.0237073 0.00203709 0)
(0.0213547 0.00195625 0)
(0.0190707 0.00185252 0)
(0.0168866 0.00173304 0)
(0.0148248 0.00160431 0)
(0.0129005 0.00147171 0)
(0.0111212 0.00133998 0)
(0.00948972 0.00121253 0)
(0.00800252 0.00109238 0)
(0.0066553 0.00098076 0)
(0.005438 0.000878868 0)
(0.00434512 0.000784961 0)
(0.00336578 0.000698012 0)
(0.00250092 0.000611904 0)
(0.00174514 0.000523801 0)
(0.00111314 0.000422647 0)
(0.000607649 0.000309355 0)
(0.0002544 0.00017389 0)
(4.96197e-05 4.69117e-05 0)
(-9.26165e-06 -4.61973e-05 0)
(3.78288e-05 -9.55748e-05 0)
(0.000301944 -0.000482719 0)
(0.000846555 -0.000865256 0)
(0.00159237 -0.00119818 0)
(0.0025222 -0.00142704 0)
(0.00354688 -0.00155588 0)
(0.0046211 -0.00158034 0)
(0.00567058 -0.00151921 0)
(0.00665484 -0.00138678 0)
(0.00752701 -0.00120627 0)
(0.00826626 -0.000996941 0)
(0.00885468 -0.000779256 0)
(0.0092925 -0.000568692 0)
(0.0095839 -0.000377859 0)
(0.00974296 -0.000213888 0)
(0.00978445 -7.97837e-05 0)
(0.00972542 2.61621e-05 0)
(0.00957933 0.000109055 0)
(0.0093563 0.000176894 0)
(0.0090599 0.000239198 0)
(0.00868763 0.000306084 0)
(0.00823004 0.000387099 0)
(0.0076719 0.000490494 0)
(0.00699284 0.000622658 0)
(0.00616886 0.000788029 0)
(0.00517347 0.000989247 0)
(0.00397885 0.00122759 0)
(0.00255663 0.00150344 0)
(0.000878573 0.00181672 0)
(-0.00108305 0.00216714 0)
(-0.003355 0.00255422 0)
(-0.00596266 0.00297718 0)
(-0.00892935 0.00343468 0)
(-0.0122755 0.00392454 0)
(-0.016018 0.00444352 0)
(-0.0201685 0.00498709 0)
(-0.0247331 0.00554938 0)
(-0.0297109 0.00612314 0)
(-0.0350931 0.00669976 0)
(-0.0408625 0.00726947 0)
(-0.0469926 0.00782147 0)
(-0.0534481 0.00834419 0)
(-0.0601843 0.00882563 0)
(-0.0671484 0.00925365 0)
(-0.0742797 0.00961635 0)
(-0.0815108 0.00990241 0)
(-0.0887693 0.0101014 0)
(-0.0959792 0.0102042 0)
(-0.103062 0.0102029 0)
(-0.109939 0.0100914 0)
(-0.116532 0.00986509 0)
(-0.122764 0.00952122 0)
(-0.128565 0.00905866 0)
(-0.133865 0.00847796 0)
(-0.138601 0.00778122 0)
(-0.142716 0.00697202 0)
(-0.146157 0.00605533 0)
(-0.148881 0.00503742 0)
(-0.150847 0.00392586 0)
(-0.152023 0.00272945 0)
(-0.152383 0.00145826 0)
(-0.15191 0.000123618 0)
(-0.15059 -0.00126179 0)
(-0.148418 -0.00268394 0)
(-0.145398 -0.00412739 0)
(-0.141538 -0.00557531 0)
(-0.136856 -0.00700946 0)
(-0.131377 -0.00841036 0)
(-0.125137 -0.00975737 0)
(-0.118177 -0.011029 0)
(-0.110549 -0.0122033 0)
(-0.102313 -0.0132582 0)
(-0.0935404 -0.0141721 0)
(-0.0843088 -0.0149246 0)
(-0.0747054 -0.0154974 0)
(-0.064825 -0.0158745 0)
(-0.0547692 -0.0160435 0)
(-0.044645 -0.0159965 0)
(-0.0345634 -0.0157299 0)
(-0.0246373 -0.015246 0)
(-0.0149795 -0.0145524 0)
(-0.00570014 -0.0136626 0)
(0.00309526 -0.0125958 0)
(0.0113088 -0.0113763 0)
(0.0188521 -0.0100326 0)
(0.0256493 -0.00859696 0)
(0.031638 -0.00710385 0)
(0.0367719 -0.00558885 0)
(0.0410218 -0.00408732 0)
(0.0443761 -0.00263305 0)
(0.0468416 -0.00125702 0)
(0.048443 1.36839e-05 0)
(0.0492221 0.00115683 0)
(0.0492363 0.00215569 0)
(0.0485566 0.00299948 0)
(0.0472649 0.00368338 0)
(0.0454508 0.00420843 0)
(0.0432085 0.00458089 0)
(0.0406329 0.00481158 0)
(0.0378169 0.00491482 0)
(0.0348473 0.00490745 0)
(0.0318036 0.00480763 0)
(0.0287547 0.004634 0)
(0.0257593 0.00440452 0)
(0.0228637 0.00413616 0)
(0.0201041 0.00384391 0)
(0.0175045 0.00354112 0)
(0.0150813 0.00323838 0)
(0.0128403 0.00294454 0)
(0.0107843 0.00266481 0)
(0.00890699 0.00240281 0)
(0.00720604 0.00215661 0)
(0.00567081 0.00192355 0)
(0.00430485 0.00169242 0)
(0.00310104 0.0014555 0)
(0.00207923 0.00119326 0)
(0.001238 0.000904831 0)
(0.000614987 0.000576645 0)
(0.000197678 0.000258928 0)
(1.7611e-05 -4.62455e-06 0)
(6.37296e-05 -0.000271215 0)
(0.000440668 -0.000963988 0)
(0.00116836 -0.00160813 0)
(0.00212052 -0.00214784 0)
(0.00327728 -0.00251756 0)
(0.00452761 -0.00271841 0)
(0.00582162 -0.00274733 0)
(0.00707192 -0.00263142 0)
(0.00823277 -0.00239552 0)
(0.00924929 -0.00207624 0)
(0.0100969 -0.00170602 0)
(0.0107537 -0.00131799 0)
(0.0112179 -0.000938144 0)
(0.0114921 -0.000587136 0)
(0.0115896 -0.000276999 0)
(0.0115241 -1.2567e-05 0)
(0.0113114 0.000209065 0)
(0.0109629 0.000396727 0)
(0.0104855 0.000564107 0)
(0.0098785 0.000727592 0)
(0.00913357 0.000904572 0)
(0.00823429 0.00111152 0)
(0.0071574 0.00136267 0)
(0.00587369 0.00166912 0)
(0.0043499 0.00203857 0)
(0.00255004 0.00247561 0)
(0.000436986 0.00298233 0)
(-0.00202644 0.00355907 0)
(-0.00487647 0.00420501 0)
(-0.0081475 0.0049185 0)
(-0.0118712 0.00569702 0)
(-0.0160753 0.00653691 0)
(-0.0207827 0.00743296 0)
(-0.0260095 0.00837798 0)
(-0.0317641 0.00936245 0)
(-0.0380456 0.0103744 0)
(-0.0448422 0.0113992 0)
(-0.0521308 0.01242 0)
(-0.0598759 0.0134181 0)
(-0.0680299 0.0143729 0)
(-0.0765332 0.0152631 0)
(-0.0853156 0.0160671 0)
(-0.0942975 0.0167638 0)
(-0.103392 0.0173334 0)
(-0.112507 0.0177579 0)
(-0.121548 0.0180216 0)
(-0.13042 0.018112 0)
(-0.13903 0.0180194 0)
(-0.147288 0.0177377 0)
(-0.155112 0.0172638 0)
(-0.162424 0.0165977 0)
(-0.169154 0.0157422 0)
(-0.175241 0.0147025 0)
(-0.180631 0.0134859 0)
(-0.185276 0.0121015 0)
(-0.189139 0.0105601 0)
(-0.192187 0.00887337 0)
(-0.194395 0.00705446 0)
(-0.195742 0.00511738 0)
(-0.196215 0.00307721 0)
(-0.195804 0.000950035 0)
(-0.194505 -0.00124688 0)
(-0.192318 -0.00349505 0)
(-0.189249 -0.00577457 0)
(-0.185307 -0.00806405 0)
(-0.180508 -0.0103405 0)
(-0.174872 -0.0125792 0)
(-0.168424 -0.014754 0)
(-0.161198 -0.016837 0)
(-0.153233 -0.0187993 0)
(-0.144575 -0.0206111 0)
(-0.13528 -0.0222422 0)
(-0.125409 -0.0236629 0)
(-0.115035 -0.0248448 0)
(-0.104236 -0.0257614 0)
(-0.0931001 -0.0263897 0)
(-0.081723 -0.026711 0)
(-0.0702064 -0.0267118 0)
(-0.0586574 -0.0263851 0)
(-0.0471872 -0.0257309 0)
(-0.0359086 -0.0247569 0)
(-0.0249345 -0.0234788 0)
(-0.0143753 -0.0219201 0)
(-0.00433661 -0.0201117 0)
(0.0050829 -0.0180913 0)
(0.0137937 -0.015902 0)
(0.0217173 -0.0135912 0)
(0.0287882 -0.011209 0)
(0.0349552 -0.00880669 0)
(0.0401828 -0.00643489 0)
(0.0444517 -0.00414208 0)
(0.0477602 -0.00197293 0)
(0.0501236 3.31001e-05 0)
(0.0515748 0.00184304 0)
(0.0521631 0.00343143 0)
(0.0519532 0.00478104 0)
(0.0510231 0.00588328 0)
(0.0494618 0.00673806 0)
(0.0473657 0.00735341 0)
(0.044836 0.00774445 0)
(0.0419737 0.00793225 0)
(0.0388771 0.0079421 0)
(0.0356375 0.00780211 0)
(0.0323379 0.00754128 0)
(0.0290491 0.00718845 0)
(0.025831 0.00677054 0)
(0.0227292 0.00631231 0)
(0.0197795 0.00583464 0)
(0.0170037 0.00535523 0)
(0.0144183 0.00488612 0)
(0.0120267 0.00443574 0)
(0.00983548 0.00400418 0)
(0.00783824 0.00358864 0)
(0.00604443 0.00317446 0)
(0.00444622 0.00274949 0)
(0.0030697 0.00228712 0)
(0.00190795 0.00178248 0)
(0.00101358 0.00121743 0)
(0.000367341 0.000647901 0)
(4.92747e-05 0.000122402 0)
(8.02482e-05 -0.000513504 0)
(0.000542976 -0.0015905 0)
(0.00141754 -0.00254375 0)
(0.00253374 -0.00331353 0)
(0.0038653 -0.00383185 0)
(0.00527872 -0.00409843 0)
(0.00671974 -0.00411514 0)
(0.00808971 -0.00391854 0)
(0.00934018 -0.00354652 0)
(0.0104109 -0.00305054 0)
(0.0112762 -0.00247798 0)
(0.0119114 -0.00187578 0)
(0.0123142 -0.00128135 0)
(0.0124853 -0.000723756 0)
(0.0124363 -0.00021994 0)
(0.0121783 0.000223925 0)
(0.0117234 0.000612762 0)
(0.0110781 0.000960293 0)
(0.0102434 0.00128722 0)
(0.00921108 0.00161821 0)
(0.00796469 0.00197919 0)
(0.00647863 0.00239462 0)
(0.00472018 0.0028855 0)
(0.0026506 0.00346796 0)
(0.000227493 0.004153 0)
(-0.00259354 0.00494679 0)
(-0.00585694 0.00585155 0)
(-0.00960574 0.00686642 0)
(-0.01388 0.00798826 0)
(-0.0187153 0.00921185 0)
(-0.0241413 0.0105298 0)
(-0.0301797 0.0119321 0)
(-0.0368425 0.0134054 0)
(-0.0441301 0.014933 0)
(-0.0520295 0.0164941 0)
(-0.0605134 0.018064 0)
(-0.0695391 0.0196148 0)
(-0.0790484 0.0211157 0)
(-0.088969 0.0225342 0)
(-0.0992153 0.0238372 0)
(-0.109691 0.0249923 0)
(-0.120293 0.0259689 0)
(-0.130913 0.0267395 0)
(-0.141441 0.0272806 0)
(-0.151771 0.0275737 0)
(-0.161801 0.0276053 0)
(-0.171437 0.0273671 0)
(-0.180592 0.0268561 0)
(-0.189191 0.0260738 0)
(-0.197168 0.0250258 0)
(-0.204469 0.0237211 0)
(-0.211047 0.0221714 0)
(-0.216866 0.0203905 0)
(-0.221895 0.0183937 0)
(-0.226112 0.0161974 0)
(-0.2295 0.0138186 0)
(-0.232046 0.0112749 0)
(-0.23374 0.0085842 0)
(-0.234577 0.005765 0)
(-0.234553 0.00283621 0)
(-0.233666 -0.000182504 0)
(-0.231918 -0.0032705 0)
(-0.22931 -0.0064059 0)
(-0.225847 -0.00956529 0)
(-0.221536 -0.0127234 0)
(-0.216387 -0.0158531 0)
(-0.210414 -0.0189249 0)
(-0.203635 -0.0219071 0)
(-0.196071 -0.0247657 0)
(-0.187752 -0.0274652 0)
(-0.178714 -0.029968 0)
(-0.168998 -0.032236 0)
(-0.158656 -0.0342308 0)
(-0.147747 -0.0359151 0)
(-0.136343 -0.0372537 0)
(-0.124519 -0.0382148 0)
(-0.112365 -0.0387718 0)
(-0.0999765 -0.0389043 0)
(-0.0874558 -0.0385997 0)
(-0.0749121 -0.0378542 0)
(-0.0624583 -0.0366738 0)
(-0.0502089 -0.0350746 0)
(-0.0382777 -0.033083 0)
(-0.0267758 -0.0307349 0)
(-0.0158087 -0.0280755 0)
(-0.00547426 -0.0251573 0)
(0.00413885 -0.0220389 0)
(0.0129532 -0.0187834 0)
(0.0209037 -0.015456 0)
(0.0279385 -0.0121224 0)
(0.0340198 -0.00884695 0)
(0.0391248 -0.00569086 0)
(0.0432457 -0.00271038 0)
(0.0463904 4.46731e-05 0)
(0.0485828 0.00253234 0)
(0.0498628 0.00471982 0)
(0.0502856 0.00658445 0)
(0.0499206 0.00811432 0)
(0.0488502 0.0093085 0)
(0.0471666 0.0101766 0)
(0.0449688 0.0107379 0)
(0.0423596 0.0110198 0)
(0.0394404 0.0110559 0)
(0.0363092 0.0108839 0)
(0.0330554 0.0105434 0)
(0.0297596 0.0100738 0)
(0.0264887 0.00951244 0)
(0.0232996 0.00889285 0)
(0.0202331 0.00824415 0)
(0.0173233 0.00758813 0)
(0.0145879 0.00694068 0)
(0.0120465 0.0063067 0)
(0.00970065 0.00568516 0)
(0.00756909 0.00506026 0)
(0.0056458 0.0044159 0)
(0.00396591 0.00371977 0)
(0.00251951 0.00295993 0)
(0.00137805 0.0021119 0)
(0.000519754 0.00122358 0)
(7.613e-05 0.000336148 0)
(9.28767e-05 -0.000797126 0)
(0.000623686 -0.00231576 0)
(0.0016137 -0.0036075 0)
(0.00285529 -0.0046135 0)
(0.00431302 -0.00527099 0)
(0.00583203 -0.0055827 0)
(0.00735318 -0.00555982 0)
(0.00876818 -0.00525069 0)
(0.0100274 -0.00470846 0)
(0.0110675 -0.00400041 0)
(0.0118631 -0.0031896 0)
(0.012389 -0.00233662 0)
(0.0126428 -0.00148989 0)
(0.0126235 -0.000685973 0)
(0.0123404 5.43844e-05 0)
(0.0118001 0.000724995 0)
(0.0110092 0.00133417 0)
(0.00996681 0.00190187 0)
(0.00866495 0.00245701 0)
(0.00708549 0.0030334 0)
(0.00520133 0.00366612 0)
(0.00297616 0.0043877 0)
(0.000366969 0.00522554 0)
(-0.00267424 0.0062001 0)
(-0.00619767 0.00732452 0)
(-0.0102536 0.00860502 0)
(-0.01489 0.010042 0)
(-0.0201505 0.011631 0)
(-0.0260722 0.0133636 0)
(-0.0326836 0.015227 0)
(-0.040002 0.0172047 0)
(-0.0480315 0.019275 0)
(-0.0567603 0.0214111 0)
(-0.0661596 0.023581 0)
(-0.076182 0.0257473 0)
(-0.0867618 0.0278685 0)
(-0.0978159 0.0299002 0)
(-0.109246 0.0317964 0)
(-0.120941 0.0335119 0)
(-0.132784 0.0350038 0)
(-0.144651 0.0362337 0)
(-0.156421 0.0371688 0)
(-0.167977 0.0377837 0)
(-0.179211 0.03806 0)
(-0.190025 0.0379872 0)
(-0.200334 0.0375621 0)
(-0.210066 0.0367877 0)
(-0.219161 0.0356728 0)
(-0.227572 0.0342305 0)
(-0.235263 0.0324772 0)
(-0.242207 0.0304316 0)
(-0.248383 0.0281138 0)
(-0.253778 0.0255448 0)
(-0.258383 0.0227453 0)
(-0.262193 0.0197363 0)
(-0.265203 0.0165381 0)
(-0.26741 0.0131706 0)
(-0.268814 0.00965357 0)
(-0.269412 0.00600647 0)
(-0.269203 0.0022491 0)
(-0.268184 -0.00159819 0)
(-0.266353 -0.00551407 0)
(-0.263708 -0.00947576 0)
(-0.260249 -0.0134586 0)
(-0.255973 -0.0174356 0)
(-0.250883 -0.0213772 0)
(-0.244981 -0.0252509 0)
(-0.238275 -0.0290209 0)
(-0.230774 -0.0326485 0)
(-0.222494 -0.0360921 0)
(-0.213458 -0.0393075 0)
(-0.203696 -0.0422485 0)
(-0.193245 -0.0448683 0)
(-0.182153 -0.04712 0)
(-0.170477 -0.0489587 0)
(-0.158286 -0.0503428 0)
(-0.145659 -0.0512361 0)
(-0.132685 -0.0516092 0)
(-0.119464 -0.0514419 0)
(-0.106104 -0.0507243 0)
(-0.092717 -0.0494584 0)
(-0.0794223 -0.0476585 0)
(-0.0663388 -0.0453519 0)
(-0.0535843 -0.0425779 0)
(-0.0412723 -0.0393875 0)
(-0.0295094 -0.0358411 0)
(-0.0183932 -0.0320072 0)
(-0.0080101 -0.0279598 0)
(0.00156516 -0.0237765 0)
(0.0102708 -0.0195356 0)
(0.0180579 -0.0153149 0)
(0.0248906 -0.0111892 0)
(0.0307463 -0.00722889 0)
(0.0356153 -0.00349822 0)
(0.0395014 -5.40831e-05 0)
(0.0424224 0.00305555 0)
(0.0444099 0.00579291 0)
(0.0455104 0.00813162 0)
(0.045784 0.0100576 0)
(0.0453044 0.0115695 0)
(0.0441565 0.0126784 0)
(0.0424342 0.013407 0)
(0.0402365 0.0137884 0)
(0.0376648 0.0138632 0)
(0.0348174 0.0136775 0)
(0.0317885 0.0132801 0)
(0.0286613 0.0127198 0)
(0.0255114 0.0120422 0)
(0.0223981 0.011289 0)
(0.0193745 0.0104933 0)
(0.0164745 0.00968066 0)
(0.0137335 0.00886361 0)
(0.0111642 0.00804525 0)
(0.00879766 0.00721145 0)
(0.00663272 0.00634343 0)
(0.00471589 0.00540462 0)
(0.00303765 0.00437306 0)
(0.00168933 0.00321479 0)
(0.000650349 0.0019568 0)
(9.89163e-05 0.000621838 0)
(0.000101603 -0.00111874 0)
(0.000683846 -0.00312976 0)
(0.00176135 -0.00478599 0)
(0.00309391 -0.00603259 0)
(0.00463503 -0.00681636 0)
(0.00620929 -0.00714727 0)
(0.00775165 -0.00705029 0)
(0.00914512 -0.00658886 0)
(0.0103396 -0.00583428 0)
(0.0112702 -0.00487133 0)
(0.0119137 -0.00377966 0)
(0.0122451 -0.00263347 0)
(0.0122628 -0.00149148 0)
(0.0119644 -0.000396388 0)
(0.0113561 0.000628948 0)
(0.010439 0.00158025 0)
(0.00921206 0.00247112 0)
(0.00766461 0.00332948 0)
(0.00577765 0.00419379 0)
(0.00352093 0.00510788 0)
(0.000855204 0.00611604 0)
(-0.00226721 0.00725838 0)
(-0.00589907 0.00856746 0)
(-0.0100959 0.0100662 0)
(-0.0149124 0.0117676 0)
(-0.0204001 0.013675 0)
(-0.026604 0.0157837 0)
(-0.0335602 0.0180815 0)
(-0.041293 0.0205496 0)
(-0.0498123 0.0231629 0)
(-0.0591104 0.0258892 0)
(-0.0691603 0.0286894 0)
(-0.0799135 0.0315174 0)
(-0.0913003 0.0343211 0)
(-0.10323 0.0370436 0)
(-0.115596 0.0396253 0)
(-0.128274 0.0420067 0)
(-0.141133 0.0441311 0)
(-0.154038 0.0459468 0)
(-0.166856 0.0474099 0)
(-0.179461 0.0484858 0)
(-0.191739 0.0491498 0)
(-0.203587 0.0493875 0)
(-0.214921 0.0491942 0)
(-0.225673 0.0485739 0)
(-0.235787 0.0475376 0)
(-0.245225 0.0461022 0)
(-0.253956 0.0442885 0)
(-0.261964 0.04212 0)
(-0.269235 0.0396215 0)
(-0.275766 0.0368184 0)
(-0.281553 0.0337357 0)
(-0.286598 0.0303973 0)
(-0.290901 0.0268263 0)
(-0.294464 0.0230444 0)
(-0.297287 0.0190722 0)
(-0.299371 0.0149294 0)
(-0.300715 0.0106348 0)
(-0.301315 0.00620726 0)
(-0.301168 0.00166552 0)
(-0.300267 -0.00297083 0)
(-0.298607 -0.007681 0)
(-0.29618 -0.0124424 0)
(-0.292977 -0.0172302 0)
(-0.28899 -0.0220165 0)
(-0.284212 -0.0267703 0)
(-0.278635 -0.0314566 0)
(-0.272257 -0.0360365 0)
(-0.265074 -0.0404669 0)
(-0.25709 -0.0447006 0)
(-0.248312 -0.0486868 0)
(-0.238757 -0.0523714 0)
(-0.228446 -0.0556983 0)
(-0.217413 -0.0586106 0)
(-0.205702 -0.0610522 0)
(-0.193367 -0.06297 0)
(-0.180477 -0.0643156 0)
(-0.167113 -0.0650486 0)
(-0.153368 -0.0651381 0)
(-0.139349 -0.0645653 0)
(-0.125171 -0.0633253 0)
(-0.110956 -0.0614284 0)
(-0.0968316 -0.0589009 0)
(-0.0829271 -0.0557842 0)
(-0.069368 -0.0521345 0)
(-0.0562743 -0.0480206 0)
(-0.0437564 -0.0435213 0)
(-0.0319131 -0.0387229 0)
(-0.0208296 -0.0337159 0)
(-0.0105769 -0.0285924 0)
(-0.00121166 -0.0234433 0)
(0.00722319 -0.0183563 0)
(0.0146976 -0.0134143 0)
(0.0211933 -0.00869386 0)
(0.0267035 -0.00426402 0)
(0.0312324 -0.000185374 0)
(0.0347955 0.00349123 0)
(0.0374205 0.0067259 0)
(0.0391471 0.00949097 0)
(0.0400286 0.011772 0)
(0.0401303 0.0135686 0)
(0.0395301 0.0148941 0)
(0.0383146 0.0157752 0)
(0.0365785 0.0162499 0)
(0.0344188 0.0163656 0)
(0.0319336 0.0161758 0)
(0.0292149 0.0157373 0)
(0.0263511 0.015106 0)
(0.0234161 0.0143347 0)
(0.0204799 0.0134687 0)
(0.0175919 0.012544 0)
(0.0148041 0.0115826 0)
(0.0121422 0.0105937 0)
(0.00965105 0.0095671 0)
(0.00733782 0.00848251 0)
(0.00526221 0.00730025 0)
(0.00341896 0.00598625 0)
(0.00191882 0.00449478 0)
(0.000745469 0.00282315 0)
(0.000114802 0.00096771 0)
(0.000109359 -0.00146467 0)
(0.000732957 -0.00400259 0)
(0.00187544 -0.0060359 0)
(0.00326755 -0.00751512 0)
(0.00485031 -0.00840042 0)
(0.00642944 -0.00871395 0)
(0.00793374 -0.00849939 0)
(0.00923916 -0.00783916 0)
(0.0102961 -0.00682577 0)
(0.0110399 -0.00556301 0)
(0.0114502 -0.00414763 0)
(0.0115037 -0.00266661 0)
(0.0111997 -0.00118746 0)
(0.0105339 0.000243268 0)
(0.00950858 0.00160309 0)
(0.00811764 0.00289222 0)
(0.00635053 0.00413184 0)
(0.00418468 0.00535964 0)
(0.00158811 0.00662464 0)
(-0.00148279 0.00798074 0)
(-0.00507966 0.0094806 0)
(-0.00926058 0.01117 0)
(-0.0140856 0.0130839 0)
(-0.0196136 0.0152442 0)
(-0.0258982 0.0176597 0)
(-0.0329844 0.0203264 0)
(-0.040905 0.0232291 0)
(-0.049678 0.0263421 0)
(-0.0593025 0.0296303 0)
(-0.0697566 0.0330492 0)
(-0.0809952 0.0365452 0)
(-0.0929485 0.0400563 0)
(-0.105523 0.0435136 0)
(-0.118605 0.046844 0)
(-0.132061 0.0499728 0)
(-0.145751 0.0528275 0)
(-0.159525 0.0553416 0)
(-0.173239 0.0574574 0)
(-0.186757 0.0591286 0)
(-0.199956 0.0603216 0)
(-0.212728 0.061016 0)
(-0.224987 0.0612039 0)
(-0.236664 0.0608885 0)
(-0.247708 0.0600821 0)
(-0.258082 0.0588043 0)
(-0.267764 0.05708 0)
(-0.27674 0.0549369 0)
(-0.285007 0.0524048 0)
(-0.292565 0.0495135 0)
(-0.299417 0.0462922 0)
(-0.305568 0.042769 0)
(-0.311026 0.03897 0)
(-0.315796 0.0349196 0)
(-0.319883 0.0306402 0)
(-0.323291 0.0261527 0)
(-0.326022 0.021476 0)
(-0.328077 0.0166283 0)
(-0.329454 0.0116267 0)
(-0.33015 0.0064882 0)
(-0.330159 0.00122994 0)
(-0.329476 -0.00413016 0)
(-0.32809 -0.00957277 0)
(-0.32599 -0.0150765 0)
(-0.323166 -0.0206175 0)
(-0.319603 -0.0261683 0)
(-0.315286 -0.0316977 0)
(-0.310201 -0.03717 0)
(-0.304333 -0.0425447 0)
(-0.29767 -0.0477759 0)
(-0.2902 -0.0528126 0)
(-0.281916 -0.0575986 0)
(-0.272817 -0.062073 0)
(-0.262908 -0.0661713 0)
(-0.252202 -0.0698264 0)
(-0.240725 -0.0729707 0)
(-0.228514 -0.075538 0)
(-0.21562 -0.0774662 0)
(-0.20211 -0.0787005 0)
(-0.188068 -0.0791958 0)
(-0.173591 -0.0789203 0)
(-0.158794 -0.077858 0)
(-0.143802 -0.0760106 0)
(-0.128751 -0.0733992 0)
(-0.113782 -0.0700642 0)
(-0.0990394 -0.0660648 0)
(-0.0846612 -0.0614766 0)
(-0.0707787 -0.0563892 0)
(-0.0575105 -0.0509022 0)
(-0.0449598 -0.0451213 0)
(-0.0332125 -0.0391542 0)
(-0.0223365 -0.0331075 0)
(-0.0123828 -0.0270831 0)
(-0.00338655 -0.021177 0)
(0.0046305 -0.0154773 0)
(0.0116582 -0.0100636 0)
(0.0176963 -0.00500641 0)
(0.0227535 -0.0003668 0)
(0.0268474 0.0038047 0)
(0.0300048 0.00746891 0)
(0.0322631 0.0105993 0)
(0.0336703 0.013183 0)
(0.0342867 0.0152219 0)
(0.0341828 0.0167326 0)
(0.0334403 0.0177458 0)
(0.0321471 0.0183047 0)
(0.0303972 0.0184622 0)
(0.0282834 0.0182783 0)
(0.0258995 0.0178152 0)
(0.0233285 0.0171344 0)
(0.0206527 0.0162915 0)
(0.0179347 0.0153328 0)
(0.0152416 0.0142902 0)
(0.0126122 0.01318 0)
(0.0101058 0.0119978 0)
(0.00774011 0.0107227 0)
(0.00558849 0.00931288 0)
(0.00365326 0.007721 0)
(0.00206212 0.00588795 0)
(0.000805277 0.00377622 0)
(0.000124712 0.00135165 0)
(0.000115938 -0.00183529 0)
(0.000771644 -0.00492697 0)
(0.00195864 -0.0073419 0)
(0.00338006 -0.00903812 0)
(0.00496356 -0.00999274 0)
(0.0064977 -0.0102449 0)
(0.00790542 -0.00986191 0)
(0.00905748 -0.00894955 0)
(0.00990586 -0.00762469 0)
(0.0103876 -0.00601175 0)
(0.0104863 -0.00422489 0)
(0.0101806 -0.00236276 0)
(0.00947082 -0.000499607 0)
(0.00834996 0.00131687 0)
(0.00681486 0.00306758 0)
(0.00485056 0.00476012 0)
(0.00243512 0.00642568 0)
(-0.000467435 0.00811328 0)
(-0.00390303 0.00988298 0)
(-0.00792845 0.0117979 0)
(-0.0126062 0.0139169 0)
(-0.0180014 0.0162881 0)
(-0.0241765 0.0189444 0)
(-0.0311869 0.0219018 0)
(-0.0390762 0.0251589 0)
(-0.047873 0.028698 0)
(-0.0575864 0.0324869 0)
(-0.0682033 0.0364797 0)
(-0.0796855 0.0406179 0)
(-0.091968 0.0448319 0)
(-0.104959 0.0490424 0)
(-0.118542 0.0531631 0)
(-0.132579 0.0571038 0)
(-0.14692 0.0607754 0)
(-0.161404 0.064094 0)
(-0.175876 0.0669854 0)
(-0.190185 0.0693882 0)
(-0.204198 0.0712566 0)
(-0.217799 0.0725607 0)
(-0.230896 0.0732863 0)
(-0.243414 0.0734333 0)
(-0.255302 0.0730133 0)
(-0.266524 0.0720472 0)
(-0.277061 0.0705625 0)
(-0.286902 0.068591 0)
(-0.296046 0.0661665 0)
(-0.304497 0.0633235 0)
(-0.312265 0.0600959 0)
(-0.319357 0.0565161 0)
(-0.325786 0.0526144 0)
(-0.331561 0.0484189 0)
(-0.336693 0.0439552 0)
(-0.341191 0.0392467 0)
(-0.345062 0.0343145 0)
(-0.348312 0.0291776 0)
(-0.350947 0.0238536 0)
(-0.352968 0.0183585 0)
(-0.354377 0.0127076 0)
(-0.355174 0.00691594 0)
(-0.355353 0.000998444 0)
(-0.35491 -0.00502909 0)
(-0.353835 -0.0111495 0)
(-0.352118 -0.0173437 0)
(-0.349744 -0.0235895 0)
(-0.346697 -0.0298615 0)
(-0.342957 -0.03613 0)
(-0.338503 -0.0423602 0)
(-0.333311 -0.0485116 0)
(-0.327358 -0.0545377 0)
(-0.32062 -0.0603856 0)
(-0.313072 -0.0659955 0)
(-0.304695 -0.0713015 0)
(-0.295474 -0.076232 0)
(-0.2854 -0.0807107 0)
(-0.274474 -0.0846584 0)
(-0.26271 -0.0879954 0)
(-0.250136 -0.0906441 0)
(-0.236797 -0.0925327 0)
(-0.222755 -0.0935982 0)
(-0.208095 -0.0937911 0)
(-0.192921 -0.0930785 0)
(-0.177356 -0.0914478 0)
(-0.16154 -0.0889089 0)
(-0.145626 -0.0854955 0)
(-0.129774 -0.0812655 0)
(-0.114148 -0.0762986 0)
(-0.0989059 -0.0706939 0)
(-0.0841966 -0.0645652 0)
(-0.0701518 -0.0580358 0)
(-0.0568836 -0.0512333 0)
(-0.0444813 -0.0442843 0)
(-0.0330117 -0.0373102 0)
(-0.02252 -0.0304236 0)
(-0.0130327 -0.0237272 0)
(-0.00456079 -0.0173121 0)
(0.00289656 -0.0112583 0)
(0.00934927 -0.00563484 0)
(0.0148146 -0.000499776 0)
(0.0193159 0.00409967 0)
(0.0228836 0.00812795 0)
(0.0255554 0.0115622 0)
(0.0273786 0.0143936 0)
(0.0284095 0.016628 0)
(0.0287153 0.0182865 0)
(0.0283716 0.0194045 0)
(0.027463 0.0200303 0)
(0.0260768 0.0202221 0)
(0.0243056 0.0200445 0)
(0.0222355 0.0195636 0)
(0.0199554 0.0188425 0)
(0.0175376 0.017936 0)
(0.0150608 0.0168851 0)
(0.0125759 0.0157132 0)
(0.0101558 0.0144221 0)
(0.0078296 0.012991 0)
(0.00568407 0.0113767 0)
(0.0037314 0.00951844 0)
(0.00211276 0.00734348 0)
(0.000826207 0.00477834 0)
(0.000127722 0.00175732 0)
(0.000122259 -0.00222337 0)
(0.000802476 -0.00588291 0)
(0.00201404 -0.00867125 0)
(0.00343363 -0.0105561 0)
(0.00497477 -0.0115361 0)
(0.00641126 -0.0116727 0)
(0.00766126 -0.0110627 0)
(0.00859286 -0.00983919 0)
(0.00916103 -0.00814658 0)
(0.00930619 -0.00613103 0)
(0.00901643 -0.00392367 0)
(0.00827263 -0.00163296 0)
(0.00707486 0.000662966 0)
(0.00541245 0.00291867 0)
(0.00327499 0.00512188 0)
(0.000636823 0.00729065 0)
(-0.00253697 0.00946828 0)
(-0.00629649 0.011716 0)
(-0.0107012 0.0141041 0)
(-0.0158189 0.0167027 0)
(-0.0217191 0.0195727 0)
(-0.0284681 0.0227591 0)
(-0.0361227 0.0262868 0)
(-0.0447254 0.0301587 0)
(-0.0542992 0.034356 0)
(-0.0648439 0.0388401 0)
(-0.0763329 0.043554 0)
(-0.0887106 0.048425 0)
(-0.101892 0.0533664 0)
(-0.115763 0.0582808 0)
(-0.130186 0.0630638 0)
(-0.145002 0.0676091 0)
(-0.160044 0.0718139 0)
(-0.175142 0.0755844 0)
(-0.190132 0.0788408 0)
(-0.204865 0.0815206 0)
(-0.219214 0.0835804 0)
(-0.233074 0.0849955 0)
(-0.246363 0.0857591 0)
(-0.259024 0.0858791 0)
(-0.271016 0.0853755 0)
(-0.28232 0.084277 0)
(-0.292923 0.0826179 0)
(-0.302827 0.0804361 0)
(-0.312037 0.0777704 0)
(-0.320563 0.0746596 0)
(-0.32842 0.071141 0)
(-0.33562 0.0672501 0)
(-0.342178 0.0630198 0)
(-0.348111 0.0584804 0)
(-0.353431 0.0536595 0)
(-0.358154 0.0485819 0)
(-0.362293 0.0432698 0)
(-0.365859 0.0377433 0)
(-0.368865 0.0320198 0)
(-0.371319 0.0261154 0)
(-0.373229 0.0200442 0)
(-0.374602 0.0138194 0)
(-0.37544 0.00745348 0)
(-0.375743 0.000958868 0)