/*--------------------------------*- C++ -*----------------------------------*\
| =========                 |                                                 |
| \\      /  F ield         | OpenFOAM: The Open Source CFD Toolbox           |
|  \\    /   O peration     | Version:  2406                                  |
|   \\  /    A nd           | Website:  www.openfoam.com                      |
|    \\/     M anipulation  |                                                 |
\*---------------------------------------------------------------------------*/
FoamFile
{
    version     2.0;
    format      ascii;
    arch        "LSB;label=32;scalar=64";
    class       surfaceScalarField;
    location    "56";
    object      phi;
}
// * * * * * * * * * * * * * * * * * * * * * * * * * * * * * * * * * * * * * //

dimensions      [0 3 -1 0 0 0 0];

oriented        oriented;

internalField   nonuniform List<scalar> 
8064
(
2.65341e-07
-2.65484e-07
1.25233e-06
-9.86989e-07
2.7108e-06
-1.45847e-06
4.27598e-06
-1.56518e-06
5.65315e-06
-1.37717e-06
6.68437e-06
-1.03122e-06
7.34325e-06
-6.58885e-07
7.69488e-06
-3.51624e-07
7.843e-06
-1.48123e-07
7.88122e-06
-3.82163e-08
7.8558e-06
2.542e-08
7.76311e-06
9.26872e-08
7.54704e-06
2.16068e-07
7.12002e-06
4.27017e-07
6.3763e-06
7.4372e-07
5.20351e-06
1.1728e-06
3.48401e-06
1.71949e-06
1.09703e-06
2.38698e-06
-2.07709e-06
3.17413e-06
-6.14858e-06
4.07149e-06
-1.1209e-05
5.0604e-06
-1.73149e-05
6.10588e-06
-2.44706e-05
7.15577e-06
-3.26127e-05
8.1421e-06
-4.15994e-05
8.98666e-06
-5.12069e-05
9.60747e-06
-6.11317e-05
9.92487e-06
-7.10001e-05
9.86834e-06
-8.03847e-05
9.38462e-06
-8.88304e-05
8.44573e-06
-9.58849e-05
7.05451e-06
-0.000101128
5.24308e-06
-0.000104193
3.06526e-06
-0.000104823
6.29584e-07
-0.000102644
-2.17918e-06
-9.75525e-05
-5.09115e-06
-8.95742e-05
-7.97835e-06
-7.88466e-05
-1.07276e-05
-6.56552e-05
-1.31914e-05
-5.04468e-05
-1.52083e-05
-3.38332e-05
-1.66136e-05
-1.65808e-05
-1.72524e-05
4.22964e-07
-1.70038e-05
1.63815e-05
-1.59586e-05
3.02766e-05
-1.3895e-05
4.1365e-05
-1.10885e-05
4.90823e-05
-7.7172e-06
5.32147e-05
-4.13247e-06
5.38966e-05
-6.81873e-07
5.15527e-05
2.34394e-06
4.69272e-05
4.62549e-06
4.08484e-05
6.07877e-06
3.41473e-05
6.70106e-06
2.75187e-05
6.6286e-06
2.14435e-05
6.07521e-06
1.61815e-05
5.26197e-06
1.18115e-05
4.37007e-06
8.28894e-06
3.52254e-06
5.50392e-06
2.78503e-06
3.33151e-06
2.17241e-06
1.68098e-06
1.65053e-06
5.4252e-07
1.13846e-06
-8.41464e-09
5.50933e-07
-8.41634e-09
9.27382e-07
-1.19287e-06
3.2894e-06
-3.349e-06
6.45576e-06
-4.62484e-06
9.73557e-06
-4.84498e-06
1.25783e-05
-4.21993e-06
1.46656e-05
-3.1185e-06
1.59078e-05
-1.90106e-06
1.63774e-05
-8.21263e-07
1.62156e-05
1.36464e-08
1.55427e-05
6.34752e-07
1.43956e-05
1.17245e-06
1.26957e-05
1.79261e-06
1.02637e-05
2.64808e-06
6.85032e-06
3.84041e-06
2.16464e-06
5.42939e-06
-4.09651e-06
7.43395e-06
-1.22263e-05
9.84925e-06
-2.24875e-05
1.26482e-05
-3.50793e-05
1.57659e-05
-5.00895e-05
1.90817e-05
-6.74401e-05
2.24109e-05
-8.68467e-05
2.55125e-05
-0.000107812
2.81207e-05
-0.000129656
2.99867e-05
-0.000151585
3.09151e-05
-0.000172761
3.07843e-05
-0.000192385
2.95481e-05
-0.00020974
2.72239e-05
-0.00022423
2.38744e-05
-0.000235377
1.95923e-05
-0.000242817
1.44951e-05
-0.000246306
8.73227e-06
-0.000245761
2.5202e-06
-0.000240886
-4.24568e-06
-0.000231746
-1.13189e-05
-0.000218437
-1.84003e-05
-0.000201114
-2.5302e-05
-0.000180056
-3.17852e-05
-0.000155677
-3.75702e-05
-0.000128537
-4.23481e-05
-9.93547e-05
-4.57964e-05
-6.90027e-05
-4.76044e-05
-3.84849e-05
-4.75216e-05
-9.0216e-06
-4.54219e-05
1.83717e-05
-4.12883e-05
4.25105e-05
-3.52273e-05
6.22722e-05
-2.74789e-05
7.69828e-05
-1.88431e-05
8.62441e-05
-9.94315e-06
9.01744e-05
-1.58636e-06
8.90217e-05
5.77812e-06
8.36314e-05
1.14691e-05
7.51135e-05
1.52189e-05
6.471e-05
1.70321e-05
5.36089e-05
1.71764e-05
4.27814e-05
1.60894e-05
3.28914e-05
1.42601e-05
2.42819e-05
1.21321e-05
1.70456e-05
1.00213e-05
1.11247e-05
8.09331e-06
6.42498e-06
6.35025e-06
2.92447e-06
4.63896e-06
7.31904e-07
2.7435e-06
7.23487e-07
1.42691e-06
-2.61978e-06
4.69254e-06
-6.61463e-06
8.80578e-06
-8.73808e-06
1.28691e-05
-8.90826e-06
1.62124e-05
-7.56331e-06
1.84543e-05
-5.3604e-06
1.94712e-05
-2.9179e-06
1.93066e-05
-6.56655e-07
1.80571e-05
1.26312e-06
1.57709e-05
2.92097e-06
1.23728e-05
4.57055e-06
7.64402e-06
6.52138e-06
1.23853e-06
9.05358e-06
-7.27051e-06
1.23494e-05
-1.83248e-05
1.64837e-05
-3.2339e-05
2.14481e-05
-4.96322e-05
2.71424e-05
-7.03395e-05
3.33556e-05
-9.4316e-05
3.97424e-05
-0.000121071
4.58369e-05
-0.000149784
5.11233e-05
-0.000179406
5.51345e-05
-0.000208818
5.75331e-05
-0.000236977
5.81454e-05
-0.000263007
5.69456e-05
-0.000286236
5.40136e-05
-0.000306179
4.94911e-05
-0.000322504
4.35482e-05
-0.000334991
3.63615e-05
-0.000343502
2.81035e-05
-0.000347955
1.89478e-05
-0.00034832
9.09741e-06
-0.000344614
-1.18497e-06
-0.000336736
-1.21237e-05
-0.000324857
-2.31981e-05
-0.00030901
-3.42477e-05
-0.000289288
-4.50242e-05
-0.000265865
-5.52076e-05
-0.000239008
-6.44275e-05
-0.0002091
-7.22563e-05
-0.000176666
-7.82306e-05
-0.000142389
-8.18808e-05
-0.000107121
-8.27893e-05
-7.18845e-05
-8.06588e-05
-3.78298e-05
-7.5343e-05
-6.12991e-06
-6.69272e-05
2.22914e-05
-5.59002e-05
4.6232e-05
-4.27837e-05
6.49103e-05
-2.86214e-05
7.78701e-05
-1.45461e-05
8.53192e-05
-1.671e-06
8.72593e-05
9.52901e-06
8.44055e-05
1.80727e-05
7.77295e-05
2.37081e-05
6.83933e-05
2.65126e-05
5.76084e-05
2.68742e-05
4.64659e-05
2.54027e-05
3.58079e-05
2.279e-05
2.61687e-05
1.96605e-05
1.78128e-05
1.64492e-05
1.0844e-05
1.33191e-05
5.35387e-06
1.01291e-05
1.56964e-06
6.52772e-06
2.29313e-06
1.75621e-06
-4.37598e-06
5.55635e-06
-1.04148e-05
1.00762e-05
-1.32579e-05
1.42332e-05
-1.30652e-05
1.72921e-05
-1.06222e-05
1.88657e-05
-6.934e-06
1.88279e-05
-2.88008e-06
1.7181e-05
9.90241e-07
1.39281e-05
4.51602e-06
8.97072e-06
7.87832e-06
2.04306e-06
1.14982e-05
-7.28446e-06
1.58489e-05
-1.95319e-05
2.1301e-05
-3.52381e-05
2.80557e-05
-5.48568e-05
3.61024e-05
-7.86231e-05
4.52144e-05
-0.000106414
5.49333e-05
-0.000137646
6.45877e-05
-0.000171293
7.33888e-05
-0.000206049
8.05936e-05
-0.000240577
8.56508e-05
-0.000273707
8.82651e-05
-0.000304548
8.83741e-05
-0.000332486
8.60826e-05
-0.000357135
8.15954e-05
-0.000378286
7.51641e-05
-0.000395842
6.70468e-05
-0.000409778
5.74841e-05
-0.000420103
4.6687e-05
-0.000426837
3.48375e-05
-0.000429993
2.21033e-05
-0.000429559
8.66412e-06
-0.00042544
-5.30483e-06
-0.000417823
-1.97406e-05
-0.000406594
-3.44267e-05
-0.000391702
-4.91396e-05
-0.00037312
-6.36065e-05
-0.000350856
-7.7472e-05
-0.000324983
-9.03e-05
-0.000295671
-0.000101568
-0.000263219
-0.000110683
-0.000228091
-0.000117009
-0.000190951
-0.000119929
-0.000152676
-0.000118934
-0.000114324
-0.000113696
-7.70627e-05
-0.000104189
-4.21948e-05
-9.07681e-05
-1.08277e-05
-7.41508e-05
1.60826e-05
-5.55317e-05
3.77187e-05
-3.61822e-05
5.36028e-05
-1.75551e-05
6.40389e-05
-9.07112e-07
6.90593e-05
1.30523e-05
6.92645e-05
2.35029e-05
6.5459e-05
3.03181e-05
5.86446e-05
3.36886e-05
4.99149e-05
3.41324e-05
4.03089e-05
3.2396e-05
3.06847e-05
2.92847e-05
2.16606e-05
2.54733e-05
1.36529e-05
2.13268e-05
6.99883e-06
1.67832e-05
2.1558e-06
1.13707e-05
4.44893e-06
1.97843e-06
-6.35441e-06
6.01479e-06
-1.44511e-05
1.04664e-05
-1.77096e-05
1.40966e-05
-1.66954e-05
1.61508e-05
-1.26764e-05
1.62743e-05
-7.05751e-06
1.43543e-05
-9.60068e-07
1.03205e-05
5.02401e-06
4.05039e-06
1.07861e-05
-4.78466e-06
1.67134e-05
-1.66825e-05
2.33961e-05
-3.22474e-05
3.14137e-05
-5.2072e-05
4.11256e-05
-7.65588e-05
5.25425e-05
-0.000105737
6.52809e-05
-0.000139108
7.85851e-05
-0.000175612
9.14372e-05
-0.000213793
0.000102769
-0.000252105
0.000111701
-0.000289199
0.000117687
-0.000324069
0.000120521
-0.000356068
0.000120264
-0.000384838
0.000117144
-0.000410227
0.000111472
-0.000432211
0.00010358
-0.00045084
9.3793e-05
-0.000466195
8.24016e-05
-0.000478364
6.96529e-05
-0.000487427
5.575e-05
-0.000493446
4.08568e-05
-0.000496447
2.51047e-05
-0.000496358
8.575e-06
-0.000493195
-8.46792e-06
-0.000487038
-2.58974e-05
-0.000477742
-4.37229e-05
-0.000465167
-6.17147e-05
-0.000449178
-7.95959e-05
-0.000429637
-9.70128e-05
-0.000406433
-0.000113504
-0.000379507
-0.000128494
-0.000348895
-0.000141294
-0.000314785
-0.000151119
-0.000277575
-0.00015714
-0.000237916
-0.000158593
-0.000196737
-0.000154875
-0.000155229
-0.000145697
-0.000114787
-0.00013121
-7.68316e-05
-0.000112106
-4.27316e-05
-8.96317e-05
-1.34969e-05
-6.54169e-05
1.02258e-05
-4.12778e-05
2.81723e-05
-1.88537e-05
4.0615e-05
6.09677e-07
4.7836e-05
1.62819e-05
5.03887e-05
2.77654e-05
4.89895e-05
3.50878e-05
4.45157e-05
3.86062e-05
3.79292e-05
3.89825e-05
3.01725e-05
3.70414e-05
2.2072e-05
3.35738e-05
1.43107e-05
2.90881e-05
7.49859e-06
2.35953e-05
2.35051e-06
1.65188e-05
6.79944e-06
2.11432e-06
-8.46872e-06
6.08685e-06
-1.84237e-05
9.97826e-06
-2.1601e-05
1.24578e-05
-1.91749e-05
1.28053e-05
-1.30239e-05
1.07285e-05
-4.98071e-06
6.09214e-06
3.67629e-06
-1.24295e-06
1.23591e-05
-1.16335e-05
2.11766e-05
-2.56175e-05
3.06974e-05
-4.38686e-05
4.16472e-05
-6.69998e-05
5.45449e-05
-9.53213e-05
6.94471e-05
-0.000128614
8.5835e-05
-0.000166005
0.000102672
-0.000206048
0.000118629
-0.000247024
0.000132413
-0.000287315
0.00014306
-0.000325664
0.000150049
-0.000361246
0.000153269
-0.000393608
0.000152883
-0.000422562
0.000149219
-0.000448095
0.000142677
-0.000470292
0.000133669
-0.000489291
0.000122578
-0.000505247
0.00010975
-0.000518319
9.54734e-05
-0.000528654
7.99879e-05
-0.000536386
6.34815e-05
-0.000541624
4.60948e-05
-0.00054443
2.79115e-05
-0.000544766
8.91055e-06
-0.000542727
-1.05068e-05
-0.000538332
-3.02921e-05
-0.000531442
-5.06136e-05
-0.000521891
-7.12658e-05
-0.000509468
-9.20183e-05
-0.00049392
-0.000112561
-0.000474959
-0.000132466
-0.000452289
-0.000151164
-0.000425653
-0.00016793
-0.000394885
-0.000181887
-0.000359984
-0.000192041
-0.00032121
-0.000197366
-0.00027919
-0.000196895
-0.000234949
-0.000189938
-0.000189916
-0.000176242
-0.000145823
-0.000156199
-0.000104512
-0.000130942
-6.76271e-05
-0.000102302
-3.63415e-05
-7.25635e-05
-1.11797e-05
-4.40154e-05
7.91031e-06
-1.84803e-05
2.13221e-05
2.8701e-06
2.96455e-05
1.9442e-05
3.34966e-05
3.12367e-05
3.35821e-05
3.85208e-05
3.07027e-05
4.18619e-05
2.5734e-05
4.20101e-05
1.9556e-05
3.97517e-05
1.30073e-05
3.56368e-05
6.90737e-06
2.96952e-05
2.16547e-06
2.12607e-05
8.96491e-06
2.13392e-06
-1.06026e-05
5.67639e-06
-2.19661e-05
8.45669e-06
-2.43813e-05
9.13876e-06
-1.9857e-05
7.08872e-06
-1.09739e-05
2.08944e-06
1.85786e-08
-6.05691e-06
1.18226e-05
-1.76309e-05
2.39331e-05
-3.31796e-05
3.67253e-05
-5.34035e-05
5.09212e-05
-7.89165e-05
6.71602e-05
-0.000109944
8.55725e-05
-0.000146059
0.000105562
-0.000186098
0.000125874
-0.000228342
0.000144916
-0.000270915
0.000161201
-0.000312181
0.000173679
-0.000350966
0.000181846
-0.000386565
0.000185648
-0.000418638
0.000185341
-0.000447095
0.00018134
-0.000472003
0.000174127
-0.000493517
0.000164191
-0.000511842
0.000151993
-0.000527209
0.000137945
-0.000539857
0.000122399
-0.000550024
0.000105639
-0.000557929
8.78934e-05
-0.000563776
6.93283e-05
-0.000567735
5.00543e-05
-0.000569936
3.01117e-05
-0.00057045
9.42511e-06
-0.000569361
-1.1596e-05
-0.000566673
-3.29801e-05
-0.000562304
-5.49822e-05
-0.000556106
-7.74637e-05
-0.000547849
-0.000100276
-0.000537213
-0.000123196
-0.000523793
-0.000145886
-0.000507102
-0.000167855
-0.000486603
-0.000188429
-0.000461761
-0.000206729
-0.000432119
-0.000221682
-0.000397424
-0.000232062
-0.000357736
-0.000236583
-0.000313596
-0.000234078
-0.000266156
-0.000223682
-0.000217177
-0.000205179
-0.000168913
-0.000179206
-0.0001238
-0.000147415
-8.3992e-05
-0.000112372
-5.08858e-05
-7.71217e-05
-2.48668e-05
-4.44992e-05
-5.51411e-06
-1.64826e-05
7.92673e-06
6.00118e-06
1.6327e-05
2.28364e-05
2.04981e-05
3.43497e-05
2.11597e-05
4.12003e-05
1.91208e-05
4.4049e-05
1.52397e-05
4.36329e-05
1.04135e-05
4.0463e-05
5.5755e-06
3.45332e-05
1.72519e-06
2.5111e-05
1.06901e-05
1.97356e-06
-1.25762e-05
4.62421e-06
-2.46168e-05
5.68384e-06
-2.54409e-05
3.91694e-06
-1.80901e-05
-1.16677e-06
-5.89019e-06
-9.78627e-06
8.63808e-06
-2.21533e-05
2.41897e-05
-3.87594e-05
4.05392e-05
-6.02581e-05
5.8224e-05
-8.72488e-05
7.79119e-05
-0.000119909
9.98207e-05
-0.00015769
0.000123354
-0.000199247
0.000147119
-0.000242685
0.000169311
-0.000286014
0.000188246
-0.000327573
0.00020276
-0.000366215
0.000212321
-0.000401284
0.000216915
-0.000432499
0.000216863
-0.000459818
0.000212661
-0.000483359
0.000204881
-0.000503338
0.000194106
-0.000520034
0.000180887
-0.000533762
0.000165721
-0.000544851
0.000149034
-0.000553626
0.000131174
-0.000560399
0.000112412
-0.000565454
9.29485e-05
-0.000569043
7.2917e-05
-0.000571379
5.23906e-05
-0.000572644
3.13765e-05
-0.000573001
9.78267e-06
-0.000572513
-1.20849e-05
-0.00057118
-3.43129e-05
-0.000568998
-5.71643e-05
-0.000565879
-8.05827e-05
-0.00056164
-0.000104514
-0.000555989
-0.000128848
-0.000548502
-0.000153372
-0.000538619
-0.000177738
-0.00052564
-0.000201408
-0.00050875
-0.000223619
-0.000487082
-0.00024335
-0.000459822
-0.000259322
-0.00042636
-0.000270046
-0.000386496
-0.000273941
-0.000340636
-0.000269542
-0.000290034
-0.000255781
-0.000236863
-0.000232377
-0.00018406
-0.000200218
-0.000134878
-0.000161554
-9.21621e-05
-0.000119838
-5.75965e-05
-7.90648e-05
-3.13788e-05
-4.27004e-05
-1.26009e-05
-1.27767e-05
5.57571e-08
1.01797e-05
7.71099e-06
2.66945e-05
1.14157e-05
3.74955e-05
1.20099e-05
4.34548e-05
1.03481e-05
4.52947e-05
7.34322e-06
4.34679e-05
3.96172e-06
3.79147e-05
1.19553e-06
2.78772e-05
1.18856e-05
1.55518e-06
-1.41314e-05
2.76675e-06
-2.58284e-05
1.45566e-06
-2.41298e-05
-3.34191e-06
-1.32925e-05
-1.20233e-05
2.79123e-06
-2.47956e-05
2.14104e-05
-4.19753e-05
4.13694e-05
-6.41211e-05
6.2685e-05
-9.17878e-05
8.58907e-05
-0.000125142
0.000111266
-0.000163608
0.000138287
-0.000205771
0.000165517
-0.000249638
0.000190986
-0.000293126
0.000212799
-0.000334508
0.000229628
-0.000372607
0.00024086
-0.00040677
0.000246484
-0.000436725
0.00024687
-0.000462461
0.000242598
-0.000484141
0.000234341
-0.000502048
0.000222788
-0.000516545
0.000208603
-0.000528037
0.000192379
-0.000536945
0.000174629
-0.000543679
0.000155768
-0.000548621
0.000136116
-0.000552117
0.000115908
-0.000554466
9.52974e-05
-0.000555922
7.43733e-05
-0.000556698
5.31661e-05
-0.000556979
3.16583e-05
-0.000556971
9.77458e-06
-0.000556709
-1.23473e-05
-0.000556193
-3.48285e-05
-0.000555501
-5.78567e-05
-0.000554625
-8.14589e-05
-0.000553475
-0.000105664
-0.00055186
-0.000130462
-0.000549461
-0.000155772
-0.000545791
-0.000181407
-0.000540172
-0.000207027
-0.000531713
-0.000232079
-0.000519325
-0.000255738
-0.000501786
-0.000276861
-0.000477863
-0.000293968
-0.000446519
-0.000305285
-0.000407187
-0.000308875
-0.000360084
-0.000302883
-0.000306525
-0.000285935
-0.000249143
-0.000257601
-0.000191704
-0.000218992
-0.000138488
-0.000173054
-9.31922e-05
-0.00012436
-5.78006e-05
-7.8092e-05
-3.21636e-05
-3.84137e-05
-1.47433e-05
-7.24063e-06
-3.60176e-06
1.5553e-05
2.7947e-06
3.1099e-05
5.61973e-06
4.06297e-05
5.87278e-06
4.50416e-05
4.50549e-06
4.48352e-05
2.47995e-06
3.99403e-05
7.24863e-07
2.96323e-05
1.26105e-05
8.08663e-07
-1.494e-05
-2.85294e-08
-2.49912e-05
-4.24064e-06
-1.99177e-05
-1.25943e-05
-4.93884e-06
-2.53215e-05
1.55185e-05
-4.26191e-05
3.87079e-05
-6.48749e-05
6.36251e-05
-9.25541e-05
9.03643e-05
-0.000125829
0.000119165
-0.000164175
0.000149613
-0.000206213
0.000180325
-0.000249924
0.000209228
-0.000293148
0.000234209
-0.000334059
0.00025371
-0.000371404
0.000266973
-0.000404485
0.000273941
-0.00043302
0.000275018
-0.000457013
0.000270863
-0.000476677
0.000262263
-0.000492372
0.000250035
-0.000504549
0.000234966
-0.000513712
0.000217765
-0.000520369
0.000199036
-0.000525003
0.000179264
-0.000528055
0.000158819
-0.000529902
0.000137964
-0.000530864
0.00011687
-0.000531201
9.56336e-05
-0.000531119
7.42913e-05
-0.000530787
5.28341e-05
-0.000530353
3.12246e-05
-0.000529992
9.41355e-06
-0.000529718
-1.2621e-05
-0.000529561
-3.49859e-05
-0.000529629
-5.77889e-05
-0.000529974
-8.11133e-05
-0.000530605
-0.000105034
-0.000531464
-0.000129603
-0.000532397
-0.000154839
-0.000533109
-0.000180695
-0.000533112
-0.000207025
-0.000531667
-0.000233523
-0.00052775
-0.000259655
-0.000520037
-0.000284573
-0.00050696
-0.000307046
-0.000486844
-0.000325402
-0.00045816
-0.000337559
-0.000419883
-0.000341159
-0.000371956
-0.000333863
-0.000315712
-0.000313844
-0.000254267
-0.000280438
-0.000192362
-0.000234959
-0.000135503
-0.00018122
-8.8349e-05
-0.000125246
-5.30657e-05
-7.3697e-05
-2.8886e-05
-3.14204e-05
-1.34899e-05
1.56952e-07
-4.27153e-06
2.18807e-05
5.76562e-07
3.57816e-05
2.42088e-06
4.31973e-05
2.37216e-06
4.4884e-05
1.41282e-06
4.08996e-05
4.1171e-07
3.06334e-05
1.30222e-05
-3.09647e-07
-1.46304e-05
-3.70502e-06
-2.15958e-05
-1.13548e-05
-1.22679e-05
-2.36135e-05
7.31987e-06
-4.0601e-05
3.2506e-05
-6.25213e-05
6.06281e-05
-8.96961e-05
9.08e-05
-0.000122287
0.000122955
-0.000159874
0.000156752
-0.000201201
0.000190939
-0.000244304
0.000223429
-0.000286976
0.000251899
-0.000327273
0.000274507
-0.000363826
0.000290263
-0.000395855
0.000299002
-0.000423042
0.000301129
-0.000445404
0.00029738
-0.000463202
0.000288661
-0.000476871
0.000275932
-0.000486957
0.000260121
-0.000494057
0.000242066
-0.000498764
0.000222472
-0.000501627
0.000201899
-0.000503125
0.000180763
-0.000503657
0.000159351
-0.00050354
0.000137846
-0.000503015
0.000116345
-0.000502264
9.48829e-05
-0.000501421
7.3448e-05
-0.000500589
5.20023e-05
-0.00049986
3.04955e-05
-0.000499332
8.88511e-06
-0.000499027
-1.29258e-05
-0.000498994
-3.50193e-05
-0.000499322
-5.74602e-05
-0.000500096
-8.03392e-05
-0.000501389
-0.000103741
-0.000503249
-0.000127743
-0.000505675
-0.000152413
-0.000508577
-0.000177793
-0.000511727
-0.000203876
-0.000514681
-0.000230569
-0.000516708
-0.000257627
-0.000516717
-0.000284564
-0.000513213
-0.000310549
-0.000504327
-0.000334288
-0.00048795
-0.000353936
-0.000462029
-0.000367081
-0.000425017
-0.000370875
-0.000376488
-0.000362374
-0.000317766
-0.00033916
-0.000252477
-0.000300248
-0.000186505
-0.000247192
-0.000126771
-0.000184979
-7.89076e-05
-0.000121561
-4.49554e-05
-6.53726e-05
-2.3128e-05
-2.16705e-05
-1.01989e-05
8.95156e-06
-3.12635e-06
2.87091e-05
1.65092e-07
3.99059e-05
1.13153e-06
4.39175e-05
8.82071e-07
4.1149e-05
2.96275e-07
3.12192e-05
1.33185e-05
-1.7979e-06
-1.28325e-05
-8.23883e-06
-1.51549e-05
-1.96364e-05
-8.7031e-07
-3.5906e-05
2.35894e-05
-5.71245e-05
5.37245e-05
-8.34176e-05
8.69212e-05
-0.00011489
0.000122273
-0.000151233
0.000159298
-0.000191382
0.000196902
-0.000233519
0.000233076
-0.000275439
0.000265349
-0.000315089
0.000291549
-0.000350947
0.000310364
-0.000382114
0.000321429
-0.000408214
0.000325102
-0.000429257
0.000322172
-0.000445541
0.000313665
-0.000457573
0.000300692
-0.000465985
0.000284344
-0.000471465
0.000265601
-0.000474681
0.000245283
-0.00047624
0.000224031
-0.000476652
0.000202311
-0.000476323
0.000180434
-0.000475559
0.000158587
-0.000474576
0.000136863
-0.000473521
0.00011529
-0.000472486
9.38482e-05
-0.000471532
7.24942e-05
-0.000470702
5.11716e-05
-0.000470031
2.98244e-05
-0.000469562
8.41686e-06
-0.000469312
-1.31763e-05
-0.00046933
-3.50016e-05
-0.000469689
-5.71006e-05
-0.000470475
-7.95529e-05
-0.000471786
-0.00010243
-0.000473722
-0.000125807
-0.000476375
-0.00014976
-0.000479799
-0.000174368
-0.000483976
-0.000199699
-0.000488751
-0.000225794
-0.00049376
-0.000252619
-0.000498321
-0.000280003
-0.000501335
-0.000307535
-0.000501203
-0.00033442
-0.000495815
-0.000359323
-0.000482672
-0.000380224
-0.000459196
-0.00039435
-0.000423284
-0.000398286
-0.000374086
-0.000388358
-0.000312909
-0.000361425
-0.000243985
-0.000316117
-0.000174552
-0.000254412
-0.000113132
-0.000182981
-6.61394e-05
-0.000112365
-3.48776e-05
-5.29322e-05
-1.62631e-05
-9.66296e-06
-6.095e-06
1.8541e-05
-1.15304e-06
3.49639e-05
6.88025e-07
4.20765e-05
8.52453e-07
4.09846e-05
3.64899e-07
3.17068e-05
1.36834e-05
-3.61402e-06
-9.21848e-06
-1.34297e-05
-5.33917e-06
-2.8575e-05
1.4275e-05
-4.87878e-05
4.38022e-05
-7.39348e-05
7.88715e-05
-0.000104008
0.000116994
-0.000138771
0.000157035
-0.000177385
0.000197912
-0.000218256
0.000237772
-0.000259268
0.000274089
-0.00029829
0.00030437
-0.000333629
0.000326889
-0.000364229
0.000340964
-0.000389618
0.000346819
-0.000409774
0.000345257
-0.000425009
0.000337408
-0.000435885
0.00032454
-0.00044311
0.000307917
-0.00044745
0.000288684
-0.000449645
0.000267796
-0.000450351
0.000245988
-0.000450105
0.000223784
-0.000449317
0.000201522
-0.000448278
0.000179395
-0.000447177
0.000157486
-0.000446126
0.000135812
-0.00044518
0.000114344
-0.000444363
9.30308e-05
-0.000443679
7.18102e-05
-0.000443128
5.06211e-05
-0.000442714
2.94098e-05
-0.000442438
8.14109e-06
-0.000442322
-1.32925e-05
-0.000442405
-3.4918e-05
-0.000442742
-5.67644e-05
-0.000443405
-7.88893e-05
-0.00044449
-0.000101345
-0.00044611
-0.000124188
-0.000448387
-0.000147483
-0.000451448
-0.000171308
-0.000455393
-0.000195754
-0.000460268
-0.00022092
-0.000465992
-0.000246894
-0.000472279
-0.000273717
-0.000478515
-0.000301299
-0.000483627
-0.000329309
-0.000485954
-0.000356996
-0.000483199
-0.000382979
-0.000472515
-0.000405034
-0.000450832
-0.000419969
-0.000415491
-0.000423698
-0.000365227
-0.000411689
-0.00030138
-0.000379963
-0.000228997
-0.000326795
-0.000156987
-0.000254991
-9.55874e-05
-0.000173765
-5.14601e-05
-9.70595e-05
-2.43153e-05
-3.68077e-05
-9.44411e-06
3.66978e-06
-2.15838e-06
2.76782e-05
7.06845e-07
3.92112e-05
1.16055e-06
4.05309e-05
5.63117e-07
3.23042e-05
1.42465e-05
-5.63252e-06
-3.58595e-06
-1.88469e-05
7.87517e-06
-3.76904e-05
3.31185e-05
-6.14842e-05
6.7596e-05
-8.99944e-05
0.000107382
-0.00012298
0.00014998
-0.000159803
0.000193859
-0.000199153
0.000237262
-0.000239102
0.000277721
-0.000277508
0.000312495
-0.000312522
0.000339384
-0.000342891
0.000357258
-0.000368
0.000366073
-0.000387753
0.000366572
-0.00040245
0.000359954
-0.000412677
0.000347634
-0.000419199
0.000331063
-0.000422852
0.00031157
-0.000424439
0.000290272
-0.000424665
0.000268021
-0.000424091
0.000245415
-0.000423134
0.000222828
-0.000422073
0.000200461
-0.000421071
0.000178393
-0.000420212
0.000156628
-0.000419522
0.000135122
-0.000418994
0.000113816
-0.000418606
9.26424e-05
-0.000418332
7.15366e-05
-0.000418154
5.04425e-05
-0.000418057
2.93127e-05
-0.000418029
8.11364e-06
-0.000418093
-1.32286e-05
-0.000418278
-3.47332e-05
-0.00041862
-5.64217e-05
-0.000419179
-7.83306e-05
-0.000420031
-0.000100493
-0.000421275
-0.000122944
-0.000423028
-0.00014573
-0.000425427
-0.000168908
-0.000428622
-0.000192559
-0.000432753
-0.000216789
-0.000437917
-0.00024173
-0.000444107
-0.000267527
-0.00045111
-0.000294296
-0.000458378
-0.000322041
-0.000464863
-0.000350511
-0.000468854
-0.000378988
-0.000467881
-0.000406007
-0.000458773
-0.000429076
-0.000437998
-0.000444474
-0.000402385
-0.000447302
-0.000350328
-0.00043202
-0.000283378
-0.000393745
-0.000207768
-0.000330601
-0.000134516
-0.000247017
-7.54944e-05
-0.000156081
-3.64736e-05
-7.58285e-05
-1.45557e-05
-1.82481e-05
-3.70969e-06
1.68321e-05
6.92965e-07
3.48086e-05
1.55927e-06
3.96646e-05
8.11559e-07
3.30519e-05
1.50581e-05
-7.68515e-06
4.0992e-06
-2.41695e-05
2.43595e-05
-4.63568e-05
5.53059e-05
-7.32041e-05
9.44433e-05
-0.000104323
0.0001385
-0.0001392
0.000184858
-0.000176817
0.000231475
-0.000215522
0.000275967
-0.000253271
0.00031547
-0.000288106
0.000347329
-0.000318558
0.000369837
-0.000343817
0.000382516
-0.000363662
0.000385918
-0.000378335
0.000381245
-0.000388413
0.000370032
-0.000394694
0.000353915
-0.000398065
0.000334434
-0.00039939
0.000312896
-0.000399422
0.000290304
-0.000398755
0.000267354
-0.000397816
0.000244476
-0.000396876
0.000221888
-0.000396085
0.00019967
-0.000395503
0.000177811
-0.000395133
0.000156257
-0.000394947
0.000134936
-0.000394904
0.000113773
-0.000394964
9.27021e-05
-0.000395092
7.16652e-05
-0.000395265
5.06157e-05
-0.000395468
2.95158e-05
-0.00039569
8.33511e-06
-0.000395949
-1.29695e-05
-0.000396267
-3.44147e-05
-0.000396672
-5.6017e-05
-0.000397205
-7.77974e-05
-0.000397923
-9.97746e-05
-0.000398899
-0.000121969
-0.000400223
-0.000144405
-0.000402013
-0.000167119
-0.000404407
-0.000190165
-0.000407569
-0.000213627
-0.000411671
-0.000237628
-0.000416861
-0.000262336
-0.000423199
-0.000287958
-0.000430546
-0.000314695
-0.000438409
-0.000342648
-0.000445752
-0.000371645
-0.000450785
-0.000400974
-0.000450838
-0.000429023
-0.000442403
-0.00045291
-0.000421495
-0.00046821
-0.000384503
-0.000469011
-0.00032965
-0.000448598
-0.000259041
-0.000401211
-0.000180725
-0.000325333
-0.000108333
-0.000228473
-5.47065e-05
-0.000129455
-2.28206e-05
-5.0134e-05
-6.70198e-06
7.1353e-07
1.01546e-07
2.80051e-05
1.77949e-06
3.79867e-05
1.02588e-06
3.38055e-05
1.60839e-05
-9.61877e-06
1.3718e-05
-2.9052e-05
4.37927e-05
-5.40464e-05
8.03003e-05
-8.32621e-05
0.000123659
-0.000116125
0.000171363
-0.000151849
0.000220582
-0.000189108
0.000268734
-0.00022607
0.00031293
-0.000260764
0.000350164
-0.000291533
0.000378097
-0.000317321
0.000395626
-0.000337723
0.000402919
-0.000352868
0.000401063
-0.000363281
0.000391658
-0.000369754
0.000376505
-0.000373211
0.000357371
-0.000374568
0.000335791
-0.00037463
0.000312958
-0.000374031
0.000289706
-0.000373221
0.000266544
-0.000372475
0.000243729
-0.000371934
0.000221348
-0.000371646
0.000199381
-0.000371595
0.000177761
-0.000371741
0.000156403
-0.00037203
0.000135225
-0.000372411
0.000114155
-0.000372845
9.31353e-05
-0.000373299
7.212e-05
-0.000373757
5.10734e-05
-0.000374208
2.99665e-05
-0.000374648
8.77547e-06
-0.000375093
-1.25243e-05
-0.000375561
-3.3947e-05
-0.000376073
-5.55054e-05
-0.000376658
-7.72118e-05
-0.000377356
-9.90769e-05
-0.000378214
-0.000121111
-0.000379295
-0.000143325
-0.000380677
-0.000165736
-0.000382467
-0.000188375
-0.000384801
-0.000211293
-0.000387849
-0.00023458
-0.000391809
-0.000258376
-0.000396877
-0.000282891
-0.000403176
-0.000308395
-0.00041064
-0.000335184
-0.000418824
-0.000363461
-0.000426672
-0.000393126
-0.000432268
-0.000423427
-0.000432674
-0.000452503
-0.000423986
-0.000476898
-0.000401767
-0.00049123
-0.000362068
-0.000488298
-0.000303231
-0.000460047
-0.00022851
-0.000400054
-0.000148704
-0.000308279
-8.03905e-05
-0.000197768
-3.54459e-05
-9.50786e-05
-1.1863e-05
-2.28694e-05
-1.47308e-06
1.76151e-05
1.61031e-06
3.49033e-05
1.14212e-06
3.42737e-05
1.72261e-05
-1.13109e-05
2.50289e-05
-3.31665e-05
6.56482e-05
-6.03204e-05
0.000107454
-9.11413e-05
0.00015448
-0.000124866
0.000205088
-0.000160471
0.000256186
-0.000196428
0.000304691
-0.000230878
0.00034738
-0.000262053
0.000381339
-0.000288647
0.000404692
-0.000310005
0.000416983
-0.000326076
0.00041899
-0.00033728
0.000412268
-0.000344364
0.000398741
-0.000348254
0.000380395
-0.000349909
0.000359026
-0.000350189
0.000336071
-0.00034978
0.000312549
-0.000349167
0.000289092
-0.000348643
0.00026602
-0.000348355
0.000243441
-0.000348342
0.000221335
-0.000348582
0.000199621
-0.000349022
0.000178201
-0.000349602
0.000156983
-0.000350265
0.000135888
-0.000350967
0.000114857
-0.000351675
9.38435e-05
-0.000352369
7.28142e-05
-0.000353039
5.1743e-05
-0.000353682
3.06092e-05
-0.000354301
9.39502e-06
-0.000354911
-1.19148e-05
-0.000355526
-3.33316e-05
-0.000356166
-5.48658e-05
-0.000356852
-7.65258e-05
-0.00035761
-9.83187e-05
-0.00035847
-0.00012025
-0.000359471
-0.000142324
-0.000360658
-0.000164549
-0.000362099
-0.000186935
-0.000363884
-0.000209508
-0.000366144
-0.00023232
-0.000369053
-0.000255467
-0.000372831
-0.000279113
-0.000377717
-0.000303509
-0.000383899
-0.000329002
-0.000391373
-0.000355987
-0.000399723
-0.000384776
-0.000407833
-0.000415317
-0.000413587
-0.000446749
-0.000413685
-0.0004768
-0.000403742
-0.000501173
-0.000378864
-0.000513176
-0.000334934
-0.000503977
-0.000270899
-0.00046409
-0.000192128
-0.00038705
-0.00011335
-0.000276546
-5.35022e-05
-0.000154926
-1.97347e-05
-5.66369e-05
-4.33395e-06
2.21444e-06
9.28721e-07
2.96406e-05
1.12933e-06
3.40731e-05
1.83554e-05
-1.26161e-05
3.7645e-05
-3.62668e-05
8.92989e-05
-6.48722e-05
0.00013606
-9.65249e-05
0.000186133
-0.000130286
0.000238849
-0.000164954
0.000290854
-0.00019891
0.000338647
-0.000230396
0.000378866
-0.000257909
0.000408852
-0.000280506
0.000427288
-0.000297888
0.000434365
-0.000310304
0.000431406
-0.000318399
0.000420363
-0.000323066
0.000403408
-0.000325282
0.000382611
-0.000325961
0.000359705
-0.00032585
0.00033596
-0.000325484
0.000312184
-0.000325195
0.000288802
-0.000325144
0.00026597
-0.000325378
0.000243675
-0.00032587
0.000221827
-0.000326562
0.000200313
-0.000327389
0.000179028
-0.00032829
0.000157884
-0.00032922
0.000136818
-0.000330144
0.000115782
-0.000331044
9.4743e-05
-0.000331908
7.3678e-05
-0.000332733
5.25686e-05
-0.000333524
3.14e-05
-0.000334288
1.01594e-05
-0.000335039
-1.11641e-05
-0.000335791
-3.25799e-05
-0.00033656
-5.40964e-05
-0.000337365
-7.57211e-05
-0.000338223
-9.746e-05
-0.000339155
-0.000119318
-0.000340182
-0.000141298
-0.000341327
-0.000163403
-0.000342625
-0.000185636
-0.000344126
-0.000208007
-0.000345909
-0.000230538
-0.000348095
-0.000253281
-0.000350865
-0.000276342
-0.000354463
-0.000299911
-0.000359172
-0.000324293
-0.000365238
-0.000349921
-0.000372708
-0.000377306
-0.000381158
-0.000406866
-0.000389347
-0.000438559
-0.000394856
-0.000471292
-0.000393899
-0.000502131
-0.000381524
-0.000525551
-0.000352419
-0.000533082
-0.000302607
-0.000513902
-0.00023241
-0.000457246
-0.000150845
-0.000358111
-7.763e-05
-0.000228141
-3.0822e-05
-0.000103445
-8.62381e-06
-1.99838e-05
-3.1243e-07
2.13292e-05
9.89925e-07
3.27707e-05
1.93453e-05
-1.34453e-05
5.10903e-05
-3.82039e-05
0.000114058
-6.75437e-05
0.000165399
-9.9297e-05
0.000217886
-0.000132375
0.000271927
-0.000165468
0.000323948
-0.000196972
0.00037015
-0.000225301
0.000407196
-0.000249249
0.0004328
-0.000268212
0.000446252
-0.000282194
0.000448347
-0.000291678
0.000440889
-0.000297466
0.000426152
-0.00030052
0.000406461
-0.000301791
0.000383883
-0.000302094
0.000360008
-0.000302032
0.000335898
-0.000301989
0.000312141
-0.000302162
0.000288976
-0.000302613