/*--------------------------------*- C++ -*----------------------------------*\
| =========                 |                                                 |
| \\      /  F ield         | OpenFOAM: The Open Source CFD Toolbox           |
|  \\    /   O peration     | Version:  2406                                  |
|   \\  /    A nd           | Website:  www.openfoam.com                      |
|    \\/     M anipulation  |                                                 |
\*---------------------------------------------------------------------------*/
FoamFile
{
    version     2.0;
    format      ascii;
    arch        "LSB;label=32;scalar=64";
    class       volScalarField;
    location    "42.9";
    object      p;
}
// * * * * * * * * * * * * * * * * * * * * * * * * * * * * * * * * * * * * * //

dimensions      [0 2 -2 0 0 0 0];

internalField   nonuniform List<scalar> 
3600
(
0.0407743
0.0408064
0.0407907
0.0407693
0.0406927
0.0406103
0.0404945
0.0403809
0.0402464
0.0401075
0.0399424
0.0397561
0.0395321
0.0392718
0.0389644
0.0386108
0.0382055
0.037752
0.0372532
0.0367209
0.0361734
0.03564
0.035158
0.0347705
0.0345218
0.0344518
0.0345925
0.034963
0.0355679
0.0363928
0.0374035
0.0385424
0.0397297
0.0408659
0.0418387
0.0425345
0.0428524
0.0427231
0.0421198
0.0410729
0.0396617
0.0380126
0.0362649
0.034562
0.0330109
0.0316925
0.0306327
0.02984
0.0292775
0.0289172
0.0286976
0.0285924
0.028544
0.0285492
0.0285613
0.0286012
0.0286259
0.0286741
0.0286976
0.0287349
0.0407441
0.0407772
0.0407539
0.0407325
0.0406596
0.0405867
0.0404823
0.0403815
0.0402597
0.0401338
0.0399829
0.0398136
0.0396101
0.0393746
0.0390963
0.0387747
0.0384026
0.037981
0.0375115
0.0370047
0.0364761
0.0359482
0.0354512
0.0350236
0.0347101
0.0345553
0.0345983
0.0348654
0.0353674
0.0360949
0.0370171
0.0380788
0.039202
0.0402882
0.0412252
0.041899
0.0422071
0.0420783
0.041484
0.0404543
0.0390699
0.0374601
0.0357683
0.0341402
0.0326821
0.0314696
0.0305186
0.029826
0.0293435
0.0290373
0.0288454
0.0287467
0.0286899
0.0286794
0.0286715
0.0286922
0.0286964
0.0287284
0.0287349
0.0287724
0.0407523
0.0407952
0.0407691
0.0407451
0.0406665
0.040591
0.0404875
0.0403916
0.0402781
0.0401621
0.0400222
0.0398633
0.03967
0.0394426
0.0391687
0.0388445
0.0384601
0.038012
0.037496
0.0369158
0.0362853
0.0356335
0.0350032
0.0344451
0.0340134
0.0337571
0.0337177
0.0339218
0.0343805
0.0350837
0.0360003
0.0370744
0.038228
0.0393617
0.0403617
0.0411107
0.0415008
0.0414527
0.0409292
0.0399517
0.0385961
0.036992
0.0352892
0.0336449
0.032178
0.030975
0.0300572
0.0294208
0.029011
0.0287845
0.0286684
0.0286338
0.0286248
0.0286471
0.0286582
0.0286905
0.0286975
0.0287341
0.0287385
0.0287906
0.0407652
0.0408117
0.0407786
0.0407479
0.0406637
0.0405888
0.040493
0.0404102
0.0403145
0.0402173
0.0400969
0.039955
0.0397751
0.0395521
0.0392688
0.0389122
0.0384642
0.0379126
0.0372539
0.0365003
0.0356794
0.034831
0.034006
0.0332593
0.0326482
0.0322237
0.0320287
0.032091
0.0324234
0.0330177
0.0338471
0.0348607
0.0359871
0.0371332
0.0381906
0.0390435
0.0395813
0.0397154
0.0393944
0.0386223
0.0374582
0.0360195
0.0344512
0.0329132
0.0315326
0.0304054
0.0295613
0.0290012
0.0286714
0.0285265
0.0284882
0.0285228
0.028569
0.0286315
0.0286667
0.0287124
0.0287216
0.0287593
0.0287578
0.0288187
0.0408249
0.04087
0.040827
0.0407826
0.0406871
0.0406048
0.0405106
0.0404332
0.0403475
0.0402578
0.0401411
0.0399908
0.0397853
0.0395067
0.0391276
0.0386227
0.0379721
0.0371693
0.0362262
0.03517
0.0340452
0.0329057
0.0318135
0.0308289
0.0300102
0.0294054
0.0290543
0.0289811
0.0291978
0.0296974
0.0304573
0.0314337
0.0325647
0.0337677
0.0349444
0.0359854
0.0367797
0.0372295
0.0372645
0.0368612
0.0360485
0.0349162
0.033592
0.0322306
0.0309663
0.0299095
0.0291071
0.0285757
0.0282738
0.0281641
0.0281712
0.0282592
0.0283611
0.0284754
0.0285535
0.0286323
0.0286632
0.0287158
0.0287201
0.0287882
0.0409128
0.0409482
0.0408924
0.0408298
0.040725
0.0406371
0.0405481
0.0404763
0.0403984
0.0403063
0.0401743
0.0399797
0.0396904
0.0392702
0.0386847
0.037907
0.0369302
0.0357644
0.034444
0.0330148
0.0315373
0.0300719
0.0286839
0.027431
0.0263691
0.0255414
0.0249846
0.0247198
0.0247591
0.0250974
0.0257184
0.0265878
0.0276578
0.0288623
0.0301213
0.0313407
0.0324201
0.0332607
0.0337779
0.0339186
0.0336715
0.0330808
0.0322351
0.0312632
0.0302921
0.0294396
0.0287691
0.0283164
0.0280583
0.0279724
0.0279959
0.0281008
0.0282239
0.0283623
0.0284649
0.0285642
0.0286108
0.0286717
0.0286799
0.0287458
0.0410551
0.041072
0.0410009
0.0409134
0.0407966
0.0406953
0.0406026
0.0405191
0.0404239
0.0402896
0.0400836
0.039759
0.0392721
0.0385726
0.0376335
0.0364403
0.0350131
0.033386
0.0316178
0.0297692
0.0279129
0.0261136
0.0244383
0.0229399
0.0216685
0.020658
0.0199374
0.0195202
0.0194145
0.0196139
0.0201059
0.0208638
0.0218534
0.0230263
0.0243246
0.0256773
0.0270052
0.0282226
0.0292451
0.0300008
0.0304404
0.0305544
0.0303726
0.0299724
0.0294501
0.0289168
0.0284508
0.0281128
0.0279077
0.0278365
0.0278565
0.0279526
0.0280718
0.028213
0.0283269
0.0284392
0.0285011
0.0285703
0.0285862
0.0286459
0.0412523
0.0412414
0.0411561
0.0410413
0.0409154
0.0407969
0.0406929
0.0405773
0.0404309
0.0401979
0.0398353
0.0392704
0.0384574
0.0373468
0.0359368
0.0342378
0.0323029
0.0301886
0.0279753
0.0257338
0.023543
0.0214644
0.0195595
0.0178701
0.016436
0.0152796
0.014421
0.0138658
0.0136179
0.013669
0.0140092
0.0146178
0.015472
0.0165391
0.0177828
0.0191574
0.0206116
0.0220857
0.0235145
0.0248303
0.0259678
0.0268762
0.0275242
0.0279165
0.0280843
0.0280948
0.0280151
0.0279204
0.0278474
0.0278308
0.0278591
0.0279382
0.0280335
0.0281515
0.028251
0.0283535
0.0284143
0.0284791
0.0284967
0.0285443
0.0415122
0.0414635
0.0413652
0.0412175
0.0410782
0.0409263
0.0407858
0.0405938
0.0403314
0.0399062
0.0392689
0.0383281
0.0370547
0.0354169
0.0334522
0.031201
0.02875
0.0261748
0.0235718
0.0210138
0.0185789
0.0163177
0.0142811
0.0124957
0.010989
0.00976954
0.00884833
0.00822222
0.00789073
0.00784237
0.00806809
0.00855001
0.00927232
0.0102125
0.0113496
0.0126576
0.0141107
0.0156777
0.0173234
0.019005
0.0206711
0.0222631
0.023716
0.0249718
0.0259825
0.0267339
0.0272364
0.0275439
0.0277114
0.0278109
0.0278765
0.0279477
0.0280169
0.0281021
0.0281753
0.0282557
0.0283058
0.0283597
0.0283757
0.028411
0.0418416
0.0417477
0.0416418
0.0414584
0.0413017
0.0410965
0.0408858
0.0405589
0.0400972
0.0393703
0.0383353
0.0368988
0.0350697
0.0328467
0.0303132
0.0275377
0.0246358
0.0216922
0.0188087
0.0160488
0.0134799
0.0111348
0.0090495
0.00723419
0.00570491
0.00445951
0.00350279
0.00282611
0.0024272
0.00229314
0.0024163
0.00278073
0.00337517
0.0041828
0.00519162
0.00638712
0.00775961
0.00929844
0.0109948
0.0128357
0.0148002
0.0168537
0.0189392
0.0209789
0.0228717
0.0245177
0.0258305
0.0267814
0.0273903
0.0277419
0.0279201
0.0280173
0.028071
0.0281204
0.0281571
0.0282021
0.028228
0.0282608
0.0282684
0.0282911
0.0422177
0.0420719
0.0419612
0.0417327
0.0415423
0.0412475
0.0409113
0.0403675
0.0396024
0.0384553
0.0369096
0.0348894
0.0324566
0.0296463
0.0265866
0.0233668
0.0201206
0.0169283
0.0138856
0.0110363
0.00843196
0.00608484
0.00401739
0.00222552
0.000717454
-0.000516777
-0.00147544
-0.00217055
-0.00260456
-0.00279101
-0.00273599
-0.00245432
-0.00195449
-0.00125067
-0.000350622
0.000736046
0.00200702
0.00346166
0.00510617
0.0069482
0.00899527
0.0112461
0.0136797
0.0162435
0.01884
0.0213304
0.0235459
0.0253398
0.0266255
0.0274296
0.0278516
0.0280417
0.0281086
0.0281329
0.0281346
0.0281412
0.0281379
0.0281464
0.0281424
0.0281559
0.0426358
0.0424361
0.0423241
0.0420406
0.0417947
0.041366
0.0408377
0.0399866
0.0388145
0.0371473
0.0350166
0.0323787
0.0293565
0.0260181
0.0225283
0.0189828
0.0155182
0.0121967
0.00909782
0.00624017
0.00365861
0.00134667
-0.000682861
-0.00244407
-0.00393199
-0.00516063
-0.00612801
-0.00684705
-0.00731841
-0.00755502
-0.00756061
-0.00734857
-0.00692491
-0.0063021
-0.00548567
-0.00448353
-0.00329587
-0.00192081
-0.000347738
0.00143886
0.00346087
0.00574036
0.00829138
0.0111052
0.0141297
0.0172516
0.0202858
0.0230018
0.0251778
0.0266953
0.0275807
0.0279967
0.0281367
0.0281579
0.0281307
0.0280983
0.0280621
0.0280432
0.0280244
0.0280311
0.0430297
0.0427746
0.0426575
0.0422999
0.0419628
0.0413426
0.0405447
0.0392949
0.0376271
0.0353736
0.032631
0.0293954
0.0258486
0.0220815
0.0182813
0.0145333
0.0109639
0.00760712
0.00452309
0.00170574
-0.000822965
-0.00308351
-0.00506767
-0.00679546
-0.00826182
-0.00948264
-0.0104541
-0.0111894
-0.0116868
-0.0119588
-0.0120067
-0.011843
-0.0114714
-0.0109036
-0.0101436
-0.009199
-0.00807006
-0.0067556
-0.00524603
-0.00352591
-0.0015708
0.000650143
0.00317058
0.00601648
0.00918847
0.0126344
0.0162216
0.0197201
0.0228293
0.0252648
0.0268775
0.0277366
0.0280669
0.0281314
0.0280926
0.0280274
0.027961
0.0279163
0.0278827
0.0278851
0.0433729
0.0430651
0.0429362
0.042484
0.0420155
0.0411453
0.0400039
0.0382812
0.0360611
0.0332004
0.02987
0.0261041
0.0221336
0.0180565
0.0140654
0.0102208
0.00662963
0.0032947
0.000258435
-0.00250572
-0.00498313
-0.00720338
-0.00915849
-0.0108713
-0.0123344
-0.013564
-0.0145535
-0.0153155
-0.0158459
-0.016156
-0.016245
-0.0161238
-0.0157945
-0.0152672
-0.0145451
-0.0136352
-0.0125386
-0.0112558
-0.00978042
-0.00810107
-0.0061977
-0.00404135
-0.00159464
0.00118402
0.00433042
0.00785075
0.011692
0.0156954
0.0195824
0.0229773
0.025538
0.0271154
0.0278464
0.0280463
0.028028
0.0279401
0.0278466
0.0277775
0.0277295
0.0277275
0.04356
0.0432005
0.0430449
0.0424711
0.0418257
0.0406494
0.0391042
0.0368628
0.0340743
0.0306323
0.0267807
0.0225837
0.0183057
0.0140348
0.00995476
0.00609186
0.00253194
-0.000751456
-0.00372805
-0.00643915
-0.0088721
-0.0110616
-0.0129969
-0.0147023
-0.0161668
-0.0174068
-0.0184131
-0.0191979
-0.019755
-0.0200952
-0.0202156
-0.0201264
-0.019828
-0.0193293
-0.0186326
-0.0177443
-0.0166659
-0.015399
-0.0139405
-0.0122832
-0.0104135
-0.00830909
-0.00593815
-0.00325839
-0.000220406
0.00321757
0.0070703
0.0112717
0.015639
0.0198213
0.023376
0.0259044
0.0273129
0.0278299
0.0278929
0.0278036
0.0276894
0.0275969
0.0275359
0.0275277
0.043556
0.0431486
0.0429501
0.0422315
0.0413696
0.0398462
0.0378608
0.03509
0.0317568
0.0277967
0.0235182
0.0190018
0.0145281
0.0101607
0.00606487
0.00223051
-0.00127523
-0.00450247
-0.007427
-0.0100997
-0.0125058
-0.0146825
-0.016615
-0.0183279
-0.0198065
-0.0210675
-0.0220987
-0.0229123
-0.0235
-0.0238721
-0.024024
-0.0239648
-0.0236937
-0.0232183
-0.0225401
-0.0216646
-0.0205936
-0.0193291
-0.0178707
-0.0162141
-0.0143523
-0.01227
-0.00994541
-0.00734414
-0.00441932
-0.0011172
0.0026166
0.00679092
0.0113369
0.0160104
0.020399
0.0239591
0.0262974
0.0274075
0.0276775
0.0276229
0.0274993
0.0273806
0.0273063
0.0272874
0.043247
0.0427936
0.0425326
0.0416482
0.0405389
0.0386464
0.0362137
0.0329388
0.0291198
0.0247321
0.0201341
0.0154085
0.0108361
0.00644686
0.00238436
-0.0013953
-0.00483819
-0.00801162
-0.0108922
-0.0135363
-0.0159247
-0.0180956
-0.0200298
-0.0217519
-0.0232443
-0.0245237
-0.0255759
-0.0264132
-0.0270258
-0.0274233
-0.0276004
-0.0275652
-0.027316
-0.0268592
-0.026196
-0.0253305
-0.0242653
-0.0230014
-0.0215407
-0.01988
-0.0180174
-0.0159429
-0.0136441
-0.0110966
-0.00826417
-0.00509748
-0.00152909
0.00249239
0.0069904
0.0118464
0.0167765
0.0212335
0.0246329
0.0265996
0.0273295
0.0273622
0.0272581
0.0271075
0.0270181
0.0269825
0.0426252
0.0421307
0.0417918
0.0407314
0.0393597
0.0371002
0.0342416
0.030517
0.0262936
0.02158
0.0167679
0.0119286
0.00733151
0.00296942
-0.00103472
-0.00475269
-0.00813793
-0.011269
-0.0141198
-0.016749
-0.0191322
-0.0213081
-0.0232528
-0.0249914
-0.0265034
-0.0278058
-0.0288825
-0.0297459
-0.0303849
-0.0308087
-0.0310108
-0.0309985
-0.0307696
-0.0303293
-0.0296786
-0.0288204
-0.0277581
-0.0264916
-0.0250247
-0.0233544
-0.0214828
-0.0194026
-0.0171095
-0.0145875
-0.0118135
-0.00874966
-0.00533384
-0.00150146
0.00282612
0.00763388
0.0127948
0.0178743
0.0222646
0.0252626
0.0267439
0.0270205
0.0269539
0.0267858
0.0266702
0.0266128
0.04161
0.0410786
0.0406492
0.0394112
0.0377777
0.0351751
0.0319365
0.0278376
0.023303
0.0183656
0.0134341
0.00855878
0.00399084
-0.000312399
-0.00424489
-0.0078993
-0.0112316
-0.0143268
-0.0171539
-0.0197725
-0.0221529
-0.0243336
-0.0262873
-0.0280394
-0.0295671
-0.0308879
-0.0319844
-0.0328688
-0.0335292
-0.0339741
-0.0341968
-0.0342034
-0.0339916
-0.0335651
-0.0329258
-0.0320748
-0.0310169
-0.0297503
-0.0282811
-0.026605
-0.0247275
-0.0226418
-0.0203497
-0.0178405
-0.0151024
-0.0121103
-0.00881551
-0.00515982
-0.00104349
0.0035821
0.00872501
0.0141167
0.0192518
0.02331
0.0257332
0.0265642
0.0265441
0.0263983
0.0262423
0.0261581
0.0402504
0.0396902
0.0391651
0.0377604
0.0358824
0.0329795
0.0294233
0.0250356
0.0202839
0.0152158
0.0102424
0.00538823
0.000883028
-0.00334633
-0.00720608
-0.010803
-0.0140921
-0.0171612
-0.0199736
-0.0225889
-0.0249723
-0.0271625
-0.029129
-0.0308977
-0.032444
-0.0337855
-0.0349037
-0.0358105
-0.0364933
-0.0369598
-0.0372032
-0.0372279
-0.0370323
-0.0366182
-0.035989
-0.0351435
-0.0340888
-0.0328209
-0.0313491
-0.0296669
-0.0277836
-0.0256911
-0.0233965
-0.0208907
-0.0181714
-0.0152234
-0.0120134
-0.00849866
-0.00458099
-0.00018774
0.00478467
0.0102173
0.0157977
0.0207422
0.0242135
0.0258541
0.0260489
0.0259055
0.0257427
0.0256066
0.0385197
0.0379385
0.0373174
0.0357646
0.0336707
0.0305214
0.0267176
0.022127
0.0172436
0.012123
0.00716691
0.00237389
-0.00204785
-0.00619504
-0.00998228
-0.0135246
-0.016774
-0.0198189
-0.0226172
-0.0252276
-0.0276115
-0.0298073
-0.0317827
-0.0335633
-0.0351237
-0.0364811
-0.0376167
-0.0385414
-0.0392428
-0.039727
-0.0399878
-0.0400274
-0.0398459
-0.0394424
-0.0388224
-0.0379822
-0.0369318
-0.0356646
-0.0341935
-0.032509
-0.0306251
-0.0285307
-0.0262379
-0.0237367
-0.0210319
-0.0181138
-0.0149633
-0.0115541
-0.00780219
-0.00363798
0.00109416
0.0063796
0.0121248
0.0176599
0.0221642
0.0247051
0.0254695
0.0252571
0.025159
0.0249316
0.0365237
0.0359334
0.0352224
0.0335485
0.0312762
0.0279411
0.0239616
0.0192488
0.0143081
0.0091972
0.00430097
-0.000405969
-0.00473534
-0.00880038
-0.0125209
-0.0160153
-0.019232
-0.0222581
-0.0250467
-0.0276553
-0.0300424
-0.0322461
-0.0342324
-0.0360268
-0.0376033
-0.0389783
-0.040133
-0.0410769
-0.041798
-0.0423003
-0.0425788
-0.0426332
-0.0424654
-0.0420714
-0.0414598
-0.0406235
-0.0395765
-0.0383087
-0.0368379
-0.035151
-0.0332672
-0.031172
-0.0288827
-0.0263865
-0.0236943
-0.0207982
-0.0176901
-0.0143572
-0.0107342
-0.00676832
-0.00228952
0.00275032
0.0084326
0.0142676
0.0196038
0.0230861
0.0246779
0.0244837
0.0244419
0.0241318
0.0342775
0.0336888
0.0328967
0.0311302
0.0287188
0.025256
0.021165
0.0163975
0.0114563
0.00639957
0.00158978
-0.00301698
-0.00725061
-0.0112339
-0.0148904
-0.0183381
-0.0215225
-0.0245276
-0.0273036
-0.0299061
-0.0322921
-0.0344986
-0.0364912
-0.0382946
-0.0398828
-0.0412709
-0.0424408
-0.0433998
-0.0441372
-0.0446542
-0.0449478
-0.0450143
-0.0448583
-0.0444722
-0.0438684
-0.0430355
-0.0419926
-0.0407249
-0.0392564
-0.0375691
-0.035689
-0.0335965
-0.0313156
-0.0288287
-0.0261531
-0.0232789
-0.020207
-0.016933
-0.01341
-0.00960622
-0.00536202
-0.000600849
0.00486536
0.0107619
0.016615
0.0210331
0.0234783
0.023627
0.0235168
0.0232018
0.0319198
0.031346
0.0304854
0.0286574
0.026147
0.0226123
0.0184674
0.013702
0.00880485
0.00383418
-0.000873234
-0.00537402
-0.00951433
-0.0134207
-0.0170195
-0.0204255
-0.0235819
-0.026569
-0.0293352
-0.0319334
-0.0343203
-0.0365311
-0.038532
-0.0403459
-0.0419477
-0.0433503
-0.044537
-0.045512
-0.0462669
-0.046799
-0.0471083
-0.0471866
-0.0470427
-0.0466638
-0.0460675
-0.0452369
-0.0441977
-0.042929
-0.0414625
-0.039774
-0.037898
-0.0358084
-0.0335376
-0.0310616
-0.0284052
-0.0255538
-0.0225163
-0.0192918
-0.0158484
-0.0121754
-0.00813301
-0.00364697
0.00152747
0.00729879
0.0133707
0.0185868
0.0218251
0.0226529
0.0223788
0.0221274
0.0294783
0.0289302
0.0280127
0.02615
0.0235744
0.020012
0.0158559
0.0111319
0.00630548
0.00143746
-0.00316266
-0.00755758
-0.0116087
-0.0154411
-0.0189845
-0.0223483
-0.0254751
-0.0284405
-0.0311927
-0.0337816
-0.0361645
-0.0383745
-0.040379
-0.0421983
-0.0438094
-0.0452219
-0.0464213
-0.0474082
-0.0481771
-0.0487208
-0.0490431
-0.0491306
-0.0489971
-0.0486236
-0.0480343
-0.0472053
-0.0461702
-0.0449005
-0.0434374
-0.0417485
-0.0398788
-0.0377935
-0.035536
-0.0330737
-0.030441
-0.0276159
-0.0246156
-0.0214383
-0.0180639
-0.0144999
-0.0106259
-0.00639483
-0.00152952
0.00398059
0.0100514
0.0157938
0.0197835
0.0214091
0.0210673
0.0208582
0.0270952
0.0265857
0.025625
0.0237535
0.0211439
0.0175929
0.0134611
0.00880949
0.00407279
-0.000682507
-0.00517507
-0.00946784
-0.0134365
-0.0172012
-0.0206952
-0.0240209
-0.0271219
-0.0300682
-0.032809
-0.0353906
-0.0377718
-0.0399827
-0.0419928
-0.0438192
-0.0454412
-0.0468646
-0.0480782
-0.0490777
-0.0498616
-0.0504171
-0.0507531
-0.0508495
-0.0507268
-0.0503582
-0.0497762
-0.048948
-0.0479172
-0.0466457
-0.0451862
-0.0434961
-0.041633
-0.0395516
-0.0373084
-0.0348601
-0.0322536
-0.0294565
-0.0264966
-0.0233667
-0.020057
-0.0165882
-0.0128557
-0.00885341
-0.00428353
0.000883274
0.00680349
0.0127589
0.0174443
0.0197869
0.0196454
0.0193693
0.0247848
0.0243228
0.0233294
0.0214676
0.018845
0.0153301
0.0112419
0.00667698
0.00203408
-0.00261
-0.00700228
-0.0112001
-0.0150936
-0.0187942
-0.022241
-0.0255276
-0.0286007
-0.0315238
-0.0342492
-0.0368182
-0.0391931
-0.0413995
-0.0434105
-0.0452386
-0.0468671
-0.0482965
-0.04952
-0.0505274
-0.0513226
-0.0518859
-0.0522327
-0.052335
-0.0522212
-0.0518553
-0.0512797
-0.0504511
-0.0494248
-0.048151
-0.0466961
-0.0450047
-0.0431496
-0.0410723
-0.0388454
-0.0364117
-0.0338342
-0.0310671
-0.0281517
-0.025071
-0.0218269
-0.0184455
-0.0148372
-0.0110369
-0.00673828
-0.00194649
0.0037197
0.0096229
0.0148766
0.0177913
0.0181213
0.0176607
0.0226744
0.0222708
0.0212575
0.0194234
0.0168071
0.0133501
0.00932201
0.0048551
0.000308532
-0.00422685
-0.00852633
-0.0126371
-0.0164641
-0.0201075
-0.0235131
-0.0267652
-0.0298146
-0.0327178
-0.0354312
-0.0379904
-0.0403618
-0.0425659
-0.0445801
-0.0464116
-0.0480482
-0.0494845
-0.0507193
-0.0517351
-0.0525426
-0.0531135
-0.053472
-0.0535797
-0.0534755
-0.0531118
-0.0525432
-0.0517136
-0.0506924
-0.0494157
-0.047966
-0.0462724
-0.0444261
-0.0423517
-0.0401419
-0.0377218
-0.0351748
-0.0324373
-0.0295697
-0.0265389
-0.0233633
-0.0200648
-0.0165715
-0.012949
-0.00889861
-0.00447726
0.00086123
0.00652645
0.0121398
0.0154882
0.0164205
0.0157341
0.0207495
0.0204105
0.019386
0.0175892
0.0149882
0.0115972
0.00763144
0.00326001
-0.00119971
-0.00563791
-0.00985794
-0.0138923
-0.0176614
-0.0212519
-0.0246188
-0.0278354
-0.0308594
-0.033739
-0.0364365
-0.0389808
-0.0413442
-0.0435406
-0.0455534
-0.0473825
-0.0490227
-0.0504605
-0.0517021
-0.0527211
-0.0535372
-0.0541113
-0.0544783
-0.0545876
-0.0544909
-0.0541265
-0.0535639
-0.0527311
-0.0517149
-0.0504337
-0.0489898
-0.0472929
-0.0454562
-0.0433837
-0.0411918
-0.0387841
-0.0362689
-0.0335601
-0.0307427
-0.0277618
-0.0246583
-0.0214396
-0.0180582
-0.0145928
-0.0107717
-0.00669524
-0.00173182
0.00358201
0.00930772
0.01296
0.0144602
0.0136008
0.019117
0.0188516
0.0178281
0.0160806
0.0135056
0.0101905
0.0062918
0.00201626
-0.00236209
-0.00671135
-0.0108623
-0.01483
-0.0185503
-0.0220955
-0.0254304
-0.0286169
-0.0316207
-0.0344809
-0.037167
-0.0397001
-0.0420592
-0.0442506
-0.0462648
-0.0480937
-0.0497397
-0.0511799
-0.0524301
-0.0534527
-0.0542784
-0.0548556
-0.0552321
-0.0553427
-0.0552543
-0.0548887
-0.0543329
-0.0534962
-0.0524859
-0.0511993
-0.0497619
-0.0480605
-0.046234
-0.0441617
-0.0419882
-0.0395906
-0.0371076
-0.0344249
-0.0316591
-0.0287259
-0.0256975
-0.0225553
-0.0192857
-0.0159607
-0.0123539
-0.00858902
-0.00402343
0.000877359
0.00648607
0.0103092
0.0122477
0.0113193
0.017728
0.0175397
0.0165254
0.0148314
0.0122839
0.00904297
0.00520445
0.00101378
-0.00329871
-0.00757482
-0.0116724
-0.0155854
-0.0192663
-0.022771
-0.0260765
-0.0292325
-0.0322146
-0.035052
-0.0377232
-0.0402402
-0.0425907
-0.0447718
-0.0467829
-0.0486057
-0.050253
-0.0516901
-0.0529445
-0.0539654
-0.0547971
-0.0553724
-0.0557553
-0.0558628
-0.0557805
-0.0554098
-0.0548594
-0.0540157
-0.0530105
-0.0517159
-0.0502848
-0.0485763
-0.0467601
-0.0446851
-0.0425299
-0.040139
-0.0376878
-0.0350274
-0.032313
-0.0294237
-0.0264717
-0.0234017
-0.0202437
-0.0170452
-0.0136398
-0.0101517
-0.00598403
-0.00152106
0.00379721
0.00765702
0.00988924
0.00899071
0.0166734
0.0165684
0.0155767
0.0139462
0.0114338
0.00827187
0.00449454
0.000385694
-0.00386784
-0.00807996
-0.0121344
-0.0160025
-0.0196531
-0.0231254
-0.026409
-0.0295409
-0.0325075
-0.0353277
-0.0379896
-0.0404951
-0.0428419
-0.0450162
-0.0470282
-0.0488476
-0.0504992
-0.0519347
-0.0531958
-0.0542156
-0.0550551
-0.0556286
-0.0560196
-0.0561236
-0.0560487
-0.0556722
-0.0551284
-0.0542766
-0.0532777
-0.0519735
-0.0505497
-0.048832
-0.0470264
-0.0449458
-0.0428087
-0.0404205
-0.0380002
-0.0353571
-0.0326929
-0.0298419
-0.0269658
-0.023962
-0.0209149
-0.0178303
-0.0146145
-0.0113703
-0.00758434
-0.00355788
0.0013604
0.00513451
0.00753801
0.00673364
0.0158687
0.0158469
0.014887
0.0133229
0.0108458
0.00775799
0.00403329
-6.18382e-06
-0.00421641
-0.00838044
-0.0124071
-0.0162422
-0.0198719
-0.0233168
-0.0265814
-0.0296887
-0.0326389
-0.0354382
-0.0380878
-0.040577
-0.0429163
-0.0450784
-0.0470874
-0.0488977
-0.0505499
-0.0519783
-0.0532425
-0.0542558
-0.0550999
-0.0556665
-0.0560627
-0.0561584
-0.0560887
-0.0557018
-0.0551631
-0.0542989
-0.053305
-0.051987
-0.0505693
-0.048838
-0.047042
-0.0449508
-0.0428301
-0.0404388
-0.0380471
-0.035414
-0.032797
-0.0299764
-0.0271731
-0.0242268
-0.0212873
-0.0183037
-0.015265
-0.0122332
-0.00880216
-0.00519131
-0.000728339
0.00286074
0.00533648
0.00465453
0.0153983
0.0154613
0.0145488
0.0130627
0.0106314
0.0076232
0.00395504
-1.56192e-05
-0.00418572
-0.00830808
-0.0123145
-0.0161252
-0.0197425
-0.0231682
-0.0264217
-0.0295121
-0.0324532
-0.0352386
-0.0378827
-0.0403617
-0.0426997
-0.0448545
-0.0468657
-0.0486707
-0.0503279
-0.0517516
-0.0530226
-0.0540308
-0.0548826
-0.0554428
-0.0558468
-0.0559339
-0.0558716
-0.0554736
-0.0549416
-0.0540636
-0.053076
-0.051742
-0.0503313
-0.0485832
-0.0467967
-0.0446905
-0.0425852
-0.0401845
-0.037819
-0.0351881
-0.0326146
-0.0298145
-0.0270797
-0.0241801
-0.0213431
-0.0184462
-0.0155721
-0.0127229
-0.00961532
-0.00638648
-0.00239639
0.000935635
0.00339876
0.00284148
0.0151401
0.0152814
0.0144274
0.0130241
0.0106434
0.00771271
0.00409737
0.000187324
-0.00395346
-0.00804647
-0.0120454
-0.0158419
-0.0194552
-0.0228663
-0.0261116
-0.0291842
-0.0321154
-0.0348832
-0.0375193
-0.0399831
-0.0423168
-0.0444592
-0.0464699
-0.0482644
-0.0499239
-0.0513379
-0.0526133
-0.0536114
-0.0544687
-0.0550174
-0.0554273
-0.0555007
-0.0554442
-0.0550297
-0.0545029
-0.0536055
-0.0526227
-0.0512668
-0.0498612
-0.0480897
-0.0463104
-0.0441816
-0.0420885
-0.0396695
-0.0373258
-0.034686
-0.0321503
-0.0293578
-0.0266843
-0.0238171
-0.0210743
-0.0182471
-0.0155235
-0.0128268
-0.0100094
-0.00712027
-0.00359574
-0.000565399
0.00180912
0.00136347
0.0151844
0.0153982
0.0146202
0.0133145
0.0110028
0.0081606
0.00461011
0.000767151
-0.00333943
-0.0074035
-0.0113974
-0.0151855
-0.0188016
-0.0222061
-0.0254518
-0.0285152
-0.0314452
-0.0342036
-0.0368405
-0.0392966
-0.0416342
-0.0437705
-0.0457879
-0.0475769
-0.0492452
-0.0506531
-0.0519384
-0.0529288
-0.0537964
-0.0543348
-0.0547547
-0.0548146
-0.0547672
-0.0543355
-0.0538166
-0.052898
-0.051922
-0.0505411
-0.0491416
-0.0473422
-0.0455699
-0.0434118
-0.0413293
-0.0388831
-0.0365576
-0.0338976
-0.0313936
-0.0285947
-0.0259745
-0.0231232
-0.020465
-0.0176884
-0.0151008
-0.0125268
-0.00996738
-0.00737164
-0.00429087
-0.00158289
0.000635699
0.000281436
0.0153656
0.0156366
0.0149475
0.0137471
0.0115194
0.00877053
0.00529117
0.00151613
-0.0025576
-0.00659744
-0.0105932
-0.0143792
-0.0180045
-0.0214054
-0.024654
-0.0277069
-0.0306352
-0.0333803
-0.036016
-0.0384596
-0.0407993
-0.0429248
-0.0449479
-0.0467269
-0.0484034
-0.0498008
-0.0510957
-0.0520738
-0.0529514
-0.0534747
-0.0539042
-0.0539452
-0.0539063
-0.0534514
-0.0529394
-0.0519929
-0.0510222
-0.0496085
-0.048213
-0.0463766
-0.0446082
-0.0424104
-0.0403339
-0.0378479
-0.0355342
-0.0328388
-0.0303583
-0.0275349
-0.0249574
-0.0221014
-0.0195154
-0.0167662
-0.0142983
-0.0118154
-0.00948219
-0.00713034
-0.00446139
-0.00207472
-6.74455e-05
-0.000352262
0.0157976
0.0161114
0.015528
0.0144498
0.0123353
0.00969922
0.00631438
0.00262392
-0.0014005
-0.00540716
-0.00939915
-0.0131839
-0.0168222
-0.0202267
-0.0234869
-0.0265391
-0.0294763
-0.032218
-0.0348636
-0.037304
-0.0396565
-0.0417794
-0.0438179
-0.0455937
-0.0472872
-0.0486793
-0.0499917
-0.0509612
-0.0518557
-0.0523661
-0.0528111
-0.0528342
-0.0528088
-0.0523302
-0.0518292
-0.0508527
-0.0498902
-0.0484399
-0.0470501
-0.0451707
-0.0434062
-0.04116
-0.0390875
-0.0365501
-0.0342439
-0.0314978
-0.0290333
-0.0261664
-0.0236213
-0.0207381
-0.0182115
-0.0154644
-0.0130999
-0.0106759
-0.00853986
-0.00638225
-0.0040882
-0.00200439
-0.000248643
-0.000483507
0.0162617
0.0165969
0.0161292
0.0151831
0.0132075
0.0107
0.00742879
0.00383685
-0.000126129
-0.00409196
-0.00807753
-0.0118598
-0.0155133
-0.0189211
-0.0221948
-0.0252437
-0.02819
-0.0309243
-0.0335793
-0.0360121
-0.0383778
-0.040494
-0.0425494
-0.0443184
-0.0460312
-0.0474145
-0.0487469
-0.0497039
-0.0506177
-0.0511105
-0.051573
-0.0515725
-0.0515618
-0.0510527
-0.0505631
-0.0495484
-0.0485936
-0.047097
-0.0457111
-0.043777
-0.0420132
-0.0397048
-0.0376313
-0.0350256
-0.0327195
-0.0299028
-0.0274445
-0.0245104
-0.0219851
-0.0190476
-0.0165654
-0.0137905
-0.0115118
-0.00911129
-0.00714375
-0.00512844
-0.0031671
-0.00135082
0.000132498
-6.6721e-05
0.0169247
0.0172651
0.0169188
0.01612
0.014318
0.0119682
0.0088448
0.00537999
0.00150806
-0.00239538
-0.0063578
-0.0101302
-0.0137975
-0.0172133
-0.0205092
-0.0235658
-0.0265342
-0.0292734
-0.0319521
-0.034389
-0.0367816
-0.0389016
-0.0409869
-0.0427579
-0.0445018
-0.0458834
-0.0472464
-0.0481962
-0.0491387
-0.0496175
-0.0501057
-0.0500833
-0.0500945
-0.0495547
-0.0490826
-0.0480275
-0.047085
-0.0455375
-0.0441586
-0.0421627
-0.0404005
-0.0380193
-0.0359432
-0.0332547
-0.0309442
-0.0280375
-0.0255774
-0.022552
-0.020035
-0.0170146
-0.0145628
-0.0117282
-0.00951903
-0.00710585
-0.00528194
-0.00335811
-0.00168746
-9.19816e-05
0.00111758
0.000947379
0.0175005
0.0178289
0.0176
0.0169577
0.0153573
0.0131937
0.0102493
0.00694172
0.00318889
-0.000626754
-0.00454892
-0.00829716
-0.0119727
-0.0153901
-0.0187081
-0.021768
-0.0247602
-0.0275003
-0.0302052
-0.0326427
-0.0350661
-0.0371871
-0.0393075
-0.0410781
-0.0428593
-0.0442366
-0.0456366
-0.0465759
-0.047553
-0.0480133
-0.0485322
-0.0484819
-0.0485189
-0.0479406
-0.0474885
-0.0463833
-0.0454544
-0.0438441
-0.0424717
-0.0403994
-0.0386368
-0.0361651
-0.034082
-0.0312896
-0.0289677
-0.0259458
-0.0234739
-0.0203274
-0.0178062
-0.0146691
-0.0122331
-0.00930221
-0.00714637
-0.00467983
-0.00297592
-0.00108898
0.000335419
0.00177064
0.00272701
0.00258845
0.0182515
0.0185609
0.0184321
0.0179526
0.0165773
0.0146351
0.0119087
0.00879813
0.00520574
0.00151424
-0.00233714
-0.00604153
-0.00971541
-0.0131339
-0.0164815
-0.0195561
-0.0225881
-0.0253444
-0.0280941
-0.0305473
-0.0330198
-0.035155
-0.0373277
-0.039109
-0.0409431
-0.0423252
-0.0437762
-0.0447118
-0.0457361
-0.0461826
-0.0467434
-0.0466678
-0.0467404
-0.0461241
-0.0457004
-0.0445431
-0.0436345
-0.0419567
-0.0405958
-0.038439
-0.0366786
-0.0341041
-0.0320141
-0.0291003
-0.0267634
-0.0236029
-0.0211119
-0.0178148
-0.0152785
-0.0119896
-0.00955672
-0.00649051
-0.00437516
-0.00181341
-0.000212436
0.00169046
0.00290575
0.00424592
0.00498452
0.0048904
0.0187956
0.0190795
0.0190305
0.0187148
0.0175813
0.0158969
0.0134281
0.0105618
0.00717444
0.00365508
-8.90166e-05
-0.0037148
-0.00736832
-0.0107694
-0.0141426
-0.0172237
-0.0202993
-0.0230683
-0.0258703
-0.0283375
-0.0308689
-0.0330176
-0.0352534
-0.0370449
-0.0389434
-0.0403287
-0.041842
-0.0427712
-0.043853
-0.044281
-0.0448928
-0.0447849
-0.0449007
-0.0442369
-0.0438476
-0.0426262
-0.0417424
-0.0399821
-0.0386355
-0.036376
-0.0346183
-0.0319193
-0.0298203
-0.026759
-0.0244024
-0.0210723
-0.0185548
-0.0150709
-0.0125102
-0.00902888
-0.00658944
-0.00334397
-0.00126027
0.00144443
0.00295529
0.00493444
0.00597615
0.00730039
0.00787294
0.00784771
0.0195434
0.0198042
0.0198041
0.0196357
0.0187399
0.0173378
0.0151611
0.012584
0.00945031
0.00615318
0.00256144
-0.000950022
-0.00456101
-0.00793468
-0.0113367
-0.0144341
-0.0175721
-0.0203723
-0.0232509
-0.0257517
-0.0283662
-0.0305456
-0.032867
-0.0346828
-0.0366657
-0.0380658
-0.0396593
-0.0405908
-0.041746
-0.0421618
-0.0428388
-0.0427024
-0.042874
-0.0421642
-0.0418204
-0.0405335
-0.0396839
-0.0378367
-0.0365118
-0.0341413
-0.0323916
-0.0295546
-0.027449
-0.0242205
-0.021843
-0.0183162
-0.0157671
-0.0120613
-0.00946828
-0.00575202
-0.00329773
0.000174582
0.00223171
0.00513005
0.00655364
0.00866783
0.00955362
0.0109383
0.0113935
0.0114714
0.0199622
0.0201959
0.0202291
0.0201917
0.0195335
0.0184428
0.0166007
0.0143748
0.0115557
0.00855431
0.00517467
0.00184048
-0.00168948
-0.00499752
-0.00841575
-0.0115133
-0.0147193
-0.017547
-0.020517
-0.0230528
-0.0257689
-0.0279817
-0.0304081
-0.0322501
-0.0343364
-0.0357511
-0.0374424
-0.0383734
-0.0396184
-0.0400161
-0.0407726
-0.0405988
-0.0408388
-0.0400706
-0.0397833
-0.0384153
-0.0376094
-0.035656
-0.0343606
-0.031856
-0.0301202
-0.0271178
-0.0250091
-0.021581
-0.0191839
-0.0154227
-0.0128416
-0.00887084
-0.006245
-0.00224604
0.000220763
0.00397195
0.00599533
0.00914565
0.0104742
0.0127972
0.0135388
0.015083
0.0154753
0.0157062
0.0206785
0.0208894
0.020932
0.0209839
0.0205231
0.0197326
0.0182377
0.0164005
0.0139435
0.0112961
0.00818443
0.00507952
0.00166707
-0.00155092
-0.00498072
-0.00808227
-0.0113759
-0.014251
-0.0173428
-0.0199378
-0.0227873
-0.0250558
-0.0276163
-0.0295029
-0.0317182
-0.033162
-0.0349736
-0.0359154
-0.0372694
-0.0376574
-0.0385106
-0.0383052
-0.0386288
-0.0378055
-0.0375881
-0.0361395
-0.035389
-0.0333266
-0.0320706
-0.0294248
-0.0277106
-0.0245303
-0.0224236
-0.0187763
-0.0163613
-0.012337