/*--------------------------------*- C++ -*----------------------------------*\
| =========                 |                                                 |
| \\      /  F ield         | OpenFOAM: The Open Source CFD Toolbox           |
|  \\    /   O peration     | Version:  2406                                  |
|   \\  /    A nd           | Website:  www.openfoam.com                      |
|    \\/     M anipulation  |                                                 |
\*---------------------------------------------------------------------------*/
FoamFile
{
    version     2.0;
    format      ascii;
    arch        "LSB;label=32;scalar=64";
    class       surfaceScalarField;
    location    "16.05";
    object      phi;
}
// * * * * * * * * * * * * * * * * * * * * * * * * * * * * * * * * * * * * * //

dimensions      [0 3 -1 0 0 0 0];

oriented        oriented;

internalField   nonuniform List<scalar> 
28560
(
7.9808e-09
-7.9847e-09
2.17837e-08
-1.40544e-08
3.42038e-08
-1.23705e-08
4.02211e-08
-6.08568e-09
3.87596e-08
1.56124e-09
2.95373e-08
9.35765e-09
1.35537e-08
1.62133e-08
-8.21235e-09
2.20634e-08
-3.45821e-08
2.67194e-08
-6.462e-08
3.04466e-08
-9.75338e-08
3.33522e-08
-1.32781e-07
3.57302e-08
-1.70016e-07
3.77379e-08
-2.09074e-07
3.95966e-08
-2.4994e-07
4.1423e-08
-2.92698e-07
4.3347e-08
-3.37512e-07
4.54269e-08
-3.84586e-07
4.77193e-08
-4.34149e-07
5.02374e-08
-4.8643e-07
5.29926e-08
-5.41657e-07
5.59741e-08
-6.00043e-07
5.91728e-08
-6.61785e-07
6.25707e-08
-7.27067e-07
6.61543e-08
-7.96056e-07
6.99078e-08
-8.6891e-07
7.38199e-08
-9.45775e-07
7.78799e-08
-1.02679e-06
8.20796e-08
-1.11208e-06
8.64109e-08
-1.20177e-06
9.08663e-08
-1.29598e-06
9.54364e-08
-1.39481e-06
1.00109e-07
-1.49834e-06
1.0487e-07
-1.60664e-06
1.09697e-07
-1.71975e-06
1.14564e-07
-1.83768e-06
1.19438e-07
-1.96039e-06
1.24276e-07
-2.08779e-06
1.29026e-07
-2.21975e-06
1.33629e-07
-2.35604e-06
1.38011e-07
-2.49637e-06
1.4209e-07
-2.64034e-06
1.4577e-07
-2.78746e-06
1.48946e-07
-2.9371e-06
1.51498e-07
-3.08853e-06
1.53298e-07
-3.24087e-06
1.54207e-07
-3.39309e-06
1.54077e-07
-3.54402e-06
1.52756e-07
-3.69232e-06
1.50084e-07
-3.8365e-06
1.45907e-07
-3.97493e-06
1.40069e-07
-4.10582e-06
1.32427e-07
-4.22726e-06
1.2285e-07
-4.33722e-06
1.11226e-07
-4.43361e-06
9.74683e-08
-4.51424e-06
8.15241e-08
-4.57696e-06
6.33768e-08
-4.6196e-06
4.3054e-08
-4.64009e-06
2.06324e-08
-4.63648e-06
-3.75739e-09
-4.60702e-06
-2.99283e-08
-4.55017e-06
-5.76342e-08
-4.46472e-06
-8.65705e-08
-4.34982e-06
-1.16375e-07
-4.205e-06
-1.46635e-07
-4.03028e-06
-1.76888e-07
-3.82614e-06
-2.06637e-07
-3.59361e-06
-2.35357e-07
-3.33424e-06
-2.6251e-07
-3.05009e-06
-2.8756e-07
-2.74377e-06
-3.09987e-07
-2.41835e-06
-3.29307e-07
-2.07732e-06
-3.45085e-07
-1.72457e-06
-3.56953e-07
-1.36422e-06
-3.64623e-07
-1.00064e-06
-3.67902e-07
-6.38255e-07
-3.66697e-07
-2.81484e-07
-3.61024e-07
6.53754e-08
-3.51004e-07
3.98251e-07
-3.36869e-07
7.13395e-07
-3.18944e-07
1.00747e-06
-2.97645e-07
1.27763e-06
-2.7346e-07
1.52155e-06
-2.46931e-07
1.7375e-06
-2.18638e-07
1.92431e-06
-1.89175e-07
2.08141e-06
-1.59132e-07
2.20881e-06
-1.29078e-07
2.307e-06
-9.95404e-08
2.37698e-06
-7.09927e-08
2.42013e-06
-4.38436e-08
2.43816e-06
-1.84299e-08
2.43306e-06
4.9886e-09
2.40698e-06
2.62278e-08
2.36217e-06
4.5179e-08
2.30096e-06
6.18011e-08
2.22561e-06
7.61174e-08
2.13833e-06
8.82018e-08
2.04121e-06
9.81777e-08
1.93618e-06
1.06197e-07
1.82499e-06
1.12447e-07
1.7092e-06
1.17118e-07
1.59016e-06
1.20427e-07
1.46901e-06
1.22566e-07
1.34672e-06
1.23752e-07
1.22403e-06
1.24135e-07
1.10162e-06
1.23906e-07
9.79934e-07
1.23125e-07
8.59504e-07
1.21929e-07
7.40689e-07
1.202e-07
6.24183e-07
1.17991e-07
5.10595e-07
1.14858e-07
4.01299e-07
1.10738e-07
2.9776e-07
1.04592e-07
2.02841e-07
9.62617e-08
1.1983e-07
8.36898e-08
5.38396e-08
6.71302e-08
1.04396e-08
4.35668e-08
-6.60422e-09
1.79011e-08
-6.61084e-09
1.43716e-08
-2.21023e-08
3.35022e-08
-3.31725e-08
4.56459e-08
-2.42792e-08
4.24854e-08
-2.964e-09
2.16152e-08
2.23367e-08
-1.76856e-08
4.83807e-08
-7.38299e-08
7.19439e-08
-1.44838e-07
9.2537e-08
-2.28293e-07
1.09517e-07
-3.22062e-07
1.23482e-07
-4.24308e-07
1.34774e-07
-5.33666e-07
1.44214e-07
-6.49217e-07
1.52349e-07
-7.70452e-07
1.5985e-07
-8.97213e-07
1.67146e-07
-1.0296e-06
1.74653e-07
-1.16792e-06
1.82606e-07
-1.31258e-06
1.91197e-07
-1.4641e-06
2.00501e-07
-1.62298e-06
2.10563e-07
-1.78975e-06
2.21366e-07
-1.96492e-06
2.32885e-07
-2.14895e-06
2.45069e-07
-2.34229e-06
2.57874e-07
-2.54533e-06
2.71248e-07
-2.75845e-06
2.8515e-07
-2.98199e-06
2.99542e-07
-3.21628e-06
3.1439e-07
-3.4616e-06
3.29659e-07
-3.71822e-06
3.45317e-07
-3.98638e-06
3.61321e-07
-4.26628e-06
3.7762e-07
-4.55804e-06
3.94147e-07
-4.86175e-06
4.10819e-07
-5.17741e-06
4.27526e-07
-5.50492e-06
4.44134e-07
-5.84403e-06
4.6048e-07
-6.19438e-06
4.76366e-07
-6.55541e-06
4.91559e-07
-6.92638e-06
5.05788e-07
-7.30632e-06
5.18745e-07
-7.69398e-06
5.30083e-07
-8.08785e-06
5.39415e-07
-8.48613e-06
5.4632e-07
-8.88664e-06
5.50342e-07
-9.28691e-06
5.50998e-07
-9.68408e-06
5.47786e-07
-1.00749e-05
5.40188e-07
-1.04558e-05
5.27686e-07
-1.08229e-05
5.09773e-07
-1.11719e-05
4.85967e-07
-1.14981e-05
4.55827e-07
-1.17969e-05
4.18972e-07
-1.20631e-05
3.75096e-07
-1.22917e-05
3.23991e-07
-1.24773e-05
2.65565e-07
-1.26151e-05
1.99856e-07
-1.26998e-05
1.27053e-07
-1.2727e-05
4.75083e-08
-1.26922e-05
-3.82554e-08
-1.25917e-05
-1.29535e-07
-1.24225e-05
-2.25445e-07
-1.2182e-05
-3.24926e-07
-1.18689e-05
-4.2675e-07
-1.14826e-05
-5.2954e-07
-1.10236e-05
-6.3179e-07
-1.04937e-05
-7.31896e-07
-9.89561e-06
-8.28189e-07
-9.23329e-06
-9.18976e-07
-8.51189e-06
-1.00258e-06
-7.73763e-06
-1.0774e-06
-6.91776e-06
-1.14193e-06
-6.06043e-06
-1.19484e-06
-5.17455e-06
-1.235e-06
-4.26966e-06
-1.26152e-06
-3.35569e-06
-1.2738e-06
-2.4428e-06
-1.27154e-06
-1.54114e-06
-1.25475e-06
-6.60621e-07
-1.22379e-06
1.89266e-07
-1.17931e-06
9.99684e-07
-1.12228e-06
1.76263e-06
-1.05394e-06
2.47108e-06
-9.75761e-07
3.11914e-06
-8.89396e-07
3.70215e-06
-7.96632e-07
4.21669e-06
-6.99324e-07
4.66067e-06
-5.99343e-07
5.03322e-06
-4.98514e-07
5.33474e-06
-3.98563e-07
5.56669e-06
-3.01075e-07
5.73158e-06
-2.07451e-07
5.83274e-06
-1.1888e-07
5.87425e-06
-3.63232e-08
5.8607e-06
3.9495e-08
5.79707e-06
1.08088e-07
5.68857e-06
1.69192e-07
5.54049e-06
2.22757e-07
5.35804e-06
2.68911e-07
5.14628e-06
3.07953e-07
4.90998e-06
3.403e-07
4.65359e-06
3.66483e-07
4.38113e-06
3.87084e-07
4.09623e-06
4.0275e-07
3.80203e-06
4.14101e-07
3.5013e-06
4.21782e-07
3.19637e-06
4.26317e-07
2.88932e-06
4.28233e-07
2.58188e-06
4.27791e-07
2.27586e-06
4.25269e-07
1.97288e-06
4.2043e-07
1.67519e-06
4.13143e-07
1.38506e-06
4.02315e-07
1.10627e-06
3.87245e-07
8.42912e-07
3.65456e-07
6.01607e-07
3.35772e-07
3.89287e-07
2.93839e-07
2.15841e-07
2.39595e-07
8.96089e-08
1.68128e-07
1.80566e-08
8.94723e-08
1.05906e-08
1.26973e-08
-3.48748e-08
2.38955e-08
-4.45949e-08
2.03476e-08
-2.07618e-08
-6.92566e-09
2.42841e-08
-6.06372e-08
7.6137e-08
-1.41233e-07
1.29196e-07
-2.4668e-07
1.77688e-07
-3.74217e-07
2.20506e-07
-5.20656e-07
2.56439e-07
-6.8303e-07
2.86441e-07
-8.58814e-07
3.11178e-07
-1.04605e-06
3.3214e-07
-1.2434e-06
3.50418e-07
-1.45007e-06
3.67291e-07
-1.66576e-06
3.83637e-07
-1.89053e-06
4.00274e-07
-2.12474e-06
4.17701e-07
-2.36892e-06
4.3631e-07
-2.62372e-06
4.56277e-07
-2.88983e-06
4.77704e-07
-3.16797e-06
5.0058e-07
-3.4588e-06
5.2486e-07
-3.76299e-06
5.50457e-07
-4.08113e-06
5.77281e-07
-4.41379e-06
6.05239e-07
-4.76148e-06
6.34246e-07
-5.12469e-06
6.64223e-07
-5.50385e-06
6.95098e-07
-5.89936e-06
7.26798e-07
-6.31158e-06
7.59244e-07
-6.74081e-06
7.92338e-07
-7.18728e-06
8.25963e-07
-7.65115e-06
8.59965e-07
-8.13244e-06
8.94149e-07
-8.63107e-06
9.28269e-07
-9.14675e-06
9.62024e-07
-9.67903e-06
9.95046e-07
-1.02272e-05
1.0269e-06
-1.07903e-05
1.05706e-06
-1.13669e-05
1.08495e-06
-1.19555e-05
1.10991e-06
-1.2554e-05
1.13117e-06
-1.31598e-05
1.14793e-06
-1.37701e-05
1.15929e-06
-1.43813e-05
1.1643e-06
-1.49895e-05
1.16198e-06
-1.55903e-05
1.1513e-06
-1.61787e-05
1.13122e-06
-1.67491e-05
1.10073e-06
-1.72957e-05
1.05883e-06
-1.7812e-05
1.00463e-06
-1.82912e-05
9.37298e-07
-1.87263e-05
8.56176e-07
-1.91102e-05
7.60759e-07
-1.94353e-05
6.50754e-07
-1.96946e-05
5.2611e-07
-1.98808e-05
3.87046e-07
-1.99873e-05
2.34079e-07
-2.00076e-05
6.80443e-08
-1.99362e-05
-1.09888e-07
-1.97682e-05
-2.98212e-07
-1.94998e-05
-4.95085e-07
-1.9128e-05
-6.98345e-07
-1.86514e-05
-9.05529e-07
-1.80697e-05
-1.11391e-06
-1.73841e-05
-1.32056e-06
-1.65973e-05
-1.52236e-06
-1.57136e-05
-1.71611e-06
-1.47386e-05
-1.89858e-06
-1.36796e-05
-2.06661e-06
-1.25452e-05
-2.21714e-06
-1.13455e-05
-2.34735e-06
-1.00915e-05
-2.45474e-06
-8.79552e-06
-2.53714e-06
-7.47042e-06
-2.59289e-06
-6.12976e-06
-2.6208e-06
-4.78737e-06
-2.62024e-06
-3.45716e-06
-2.59119e-06
-2.1528e-06
-2.53421e-06
-8.87469e-07
-2.45047e-06
3.26395e-07
-2.34169e-06
1.47737e-06
-2.21012e-06
2.55524e-06
-2.05846e-06
3.55122e-06
-1.88976e-06
4.45805e-06
-1.70739e-06
5.27013e-06
-1.51485e-06
5.98357e-06
-1.31573e-06
6.59619e-06
-1.11358e-06
7.10747e-06
-9.11796e-07
7.51848e-06
-7.1355e-07
7.83173e-06
-5.21698e-07
8.05101e-06
-3.38727e-07
8.18123e-06
-1.667e-07
8.22819e-06
-7.24085e-09
8.19837e-06
1.38481e-07
8.09869e-06
2.69735e-07
7.93637e-06
3.86213e-07
7.71867e-06
4.8798e-07
7.45274e-06
5.75445e-07
7.14548e-06
6.49286e-07
6.8034e-06
7.10418e-07
6.43254e-06
7.59898e-07
6.03843e-06
7.98908e-07
5.62598e-06
8.28631e-07
5.19964e-06
8.50267e-07
4.76325e-06
8.64846e-07
4.32034e-06
8.73329e-07
3.87398e-06
8.76266e-07
3.42736e-06
8.74083e-07
2.9834e-06
8.6643e-07
2.54585e-06
8.52849e-07
2.11853e-06
8.31506e-07
1.70711e-06
8.00753e-07
1.31752e-06
7.56573e-07
9.58943e-07
6.96318e-07
6.40176e-07
6.13537e-07
3.74379e-07
5.07181e-07
1.71322e-07
3.71153e-07
4.48344e-08
2.17649e-07
5.52258e-08
5.62192e-09
-4.04473e-08
-1.12174e-09
-3.77314e-08
-3.26326e-08
1.07436e-08
-9.62824e-08
8.79876e-08
-1.94257e-07
1.73982e-07
-3.26032e-07
2.60874e-07
-4.8909e-07
3.40481e-07
-6.79943e-07
4.11105e-07
-8.94905e-07
4.71021e-07
-1.13042e-06
5.2158e-07
-1.38355e-06
5.63838e-07
-1.6519e-06
6.00031e-07
-1.9339e-06
6.31883e-07
-2.2285e-06
6.61358e-07
-2.5353e-06
6.89862e-07
-2.85431e-06
7.18678e-07
-3.18586e-06
7.48624e-07
-3.53054e-06
7.80325e-07
-3.88905e-06
8.1409e-07
-4.26217e-06
8.50096e-07
-4.65071e-06
8.88345e-07
-5.05544e-06
9.28782e-07
-5.47713e-06
9.71283e-07
-5.91647e-06
1.01572e-06
-6.37413e-06
1.06195e-06
-6.85073e-06
1.10985e-06
-7.34686e-06
1.1593e-06
-7.86305e-06
1.21019e-06
-8.39979e-06
1.26238e-06
-8.95752e-06
1.31575e-06
-9.53659e-06
1.37014e-06
-1.01373e-05
1.42532e-06
-1.07597e-05
1.48104e-06
-1.1404e-05
1.53693e-06
-1.20698e-05
1.59258e-06
-1.27568e-05
1.64744e-06
-1.34642e-05
1.70086e-06
-1.41911e-05
1.75209e-06
-1.4936e-05
1.80024e-06
-1.56971e-05
1.84428e-06
-1.64721e-05
1.88308e-06
-1.72581e-05
1.91536e-06
-1.80518e-05
1.93975e-06
-1.88492e-05
1.95476e-06
-1.96457e-05
1.95883e-06
-2.0436e-05
1.95033e-06
-2.12142e-05
1.9276e-06
-2.19738e-05
1.889e-06
-2.27079e-05
1.83292e-06
-2.34086e-05
1.75784e-06
-2.40681e-05
1.66239e-06
-2.46777e-05
1.54537e-06
-2.52288e-05
1.40584e-06
-2.57125e-05
1.24315e-06
-2.61198e-05
1.05701e-06
-2.64421e-05
8.47506e-07
-2.66708e-05
6.15166e-07
-2.67981e-05
3.60991e-07
-2.68167e-05
8.64715e-08
-2.672e-05
-2.06392e-07
-2.65026e-05
-5.15092e-07
-2.61602e-05
-8.36625e-07
-2.56898e-05
-1.16752e-06
-2.509e-05
-1.50386e-06
-2.43606e-05
-1.84139e-06
-2.35034e-05
-2.17552e-06
-2.25217e-05
-2.50145e-06
-2.14206e-05
-2.81424e-06
-2.0207e-05
-3.10896e-06
-1.88894e-05
-3.38074e-06
-1.74778e-05
-3.62493e-06
-1.5984e-05
-3.83721e-06
-1.44209e-05
-4.0137e-06
-1.28026e-05
-4.1511e-06
-1.11444e-05
-4.24676e-06
-9.46197e-06
-4.29877e-06
-7.77174e-06
-4.30607e-06
-6.09013e-06
-4.26845e-06
-4.43349e-06
-4.18662e-06
-2.81773e-06
-4.06216e-06
-1.25801e-06
-3.89753e-06
2.31503e-07
-3.69599e-06
1.63792e-06
-3.4615e-06
2.94987e-06
-3.19864e-06
4.15769e-06
-2.91244e-06
5.25354e-06
-2.60828e-06
6.23155e-06
-2.29166e-06
7.08784e-06
-1.96813e-06
7.82049e-06
-1.64306e-06
8.42951e-06
-1.32152e-06
8.91671e-06
-1.00817e-06
9.28553e-06
-7.07132e-07
9.54089e-06
-4.21924e-07
9.68891e-06
-1.55392e-07
9.73671e-06
9.03063e-08
9.69215e-06
3.13702e-07
9.56359e-06
5.13994e-07
9.35963e-06
6.90995e-07
9.08892e-06
8.45076e-07
8.75992e-06
9.77077e-07
8.38081e-06
1.08824e-06
7.95926e-06
1.18007e-06
7.50245e-06
1.2543e-06
7.01689e-06
1.31271e-06
6.50857e-06
1.3571e-06
5.9828e-06
1.38908e-06
5.44456e-06
1.41007e-06
4.89828e-06
1.42099e-06
4.34851e-06
1.42241e-06
3.79948e-06
1.41389e-06
3.25638e-06
1.39461e-06
2.7243e-06
1.36202e-06
2.21049e-06
1.31345e-06
1.72208e-06
1.24343e-06
1.26999e-06
1.14771e-06
8.63943e-07
1.018e-06
5.1957e-07
8.51592e-07
2.47977e-07
6.40924e-07
7.02317e-08
3.96459e-07
1.24294e-07
-4.38582e-09
-3.62414e-08
-3.53564e-08
-6.55605e-09
-1.03139e-07
7.82967e-08
-2.12144e-07
1.97168e-07
-3.63396e-07
3.25158e-07
-5.5474e-07
4.52429e-07
-7.82933e-07
5.68751e-07
-1.04357e-06
6.72012e-07
-1.33252e-06
7.60167e-07
-1.64569e-06
8.35071e-07
-1.97985e-06
8.98291e-07
-2.33234e-06
9.52886e-07
-2.70139e-06
1.00129e-06
-3.08584e-06
1.04621e-06
-3.4852e-06
1.08963e-06
-3.89942e-06
1.13333e-06
-4.32883e-06
1.17849e-06
-4.77401e-06
1.22598e-06
-5.23568e-06
1.27626e-06
-5.71464e-06
1.32959e-06
-6.21175e-06
1.38601e-06
-6.72783e-06
1.44545e-06
-7.26369e-06
1.50776e-06
-7.82012e-06
1.5728e-06
-8.39786e-06
1.64037e-06
-8.99762e-06
1.71033e-06
-9.62008e-06
1.78253e-06
-1.02659e-05
1.8568e-06
-1.09357e-05
1.933e-06
-1.163e-05
2.01092e-06
-1.23493e-05
2.09033e-06
-1.30939e-05
2.17089e-06
-1.3864e-05
2.2522e-06
-1.46598e-05
2.33372e-06
-1.54809e-05
2.41477e-06
-1.63269e-05
2.49453e-06
-1.71968e-05
2.57199e-06
-1.80895e-05
2.64599e-06
-1.90032e-05
2.71517e-06
-1.99356e-05
2.77797e-06
-2.08839e-05
2.83266e-06
-2.18445e-05
2.87735e-06
-2.28134e-05
2.90997e-06
-2.37856e-05
2.92833e-06
-2.47556e-05
2.93014e-06
-2.57169e-05
2.91303e-06
-2.66625e-05
2.87462e-06
-2.75848e-05
2.81257e-06
-2.84752e-05
2.72462e-06
-2.93248e-05
2.6087e-06
-3.01241e-05
2.46293e-06
-3.08634e-05
2.28574e-06
-3.15325e-05
2.07596e-06
-3.21213e-05
1.83283e-06
-3.26196e-05
1.55609e-06
-3.30176e-05
1.24608e-06
-3.33057e-05
9.03723e-07
-3.34751e-05
5.30602e-07
-3.35175e-05
1.28978e-07
-3.34259e-05
-2.98201e-07
-3.31941e-05
-7.47307e-07
-3.28173e-05
-1.21405e-06
-3.22921e-05
-1.69353e-06
-3.16168e-05
-2.18028e-06
-3.07913e-05
-2.66834e-06
-2.9817e-05
-3.15136e-06
-2.86977e-05
-3.6227e-06
-2.74384e-05
-4.07557e-06
-2.60466e-05
-4.50314e-06
-2.45311e-05
-4.8987e-06
-2.29029e-05
-5.2558e-06
-2.11745e-05
-5.56845e-06
-1.936e-05
-5.83121e-06
-1.74748e-05
-6.03937e-06
-1.55355e-05
-6.18913e-06
-1.35598e-05
-6.27765e-06
-1.15658e-05
-6.30321e-06
-9.5721e-06
-6.26523e-06
-7.59734e-06
-6.1644e-06
-5.65982e-06
-6.00257e-06
-3.77728e-06
-5.78284e-06
-1.96646e-06
-5.5094e-06
-2.42892e-07
-5.18748e-06
1.37945e-06
-4.82318e-06
2.88836e-06
-4.42333e-06
4.27361e-06
-3.99525e-06
5.52706e-06
-3.54661e-06
6.64282e-06
-3.08514e-06
7.6172e-06
-2.61845e-06
8.44875e-06
-2.15383e-06
9.13811e-06
-1.69806e-06
9.68789e-06
-1.25723e-06
1.01025e-05
-8.36658e-07
1.03879e-05
-4.40742e-07
1.05514e-05
-7.29465e-08
1.06013e-05
2.64224e-07
1.05467e-05
5.69213e-07
1.0397e-05
8.41352e-07
1.0162e-05
1.08079e-06
9.85154e-06
1.28839e-06
9.47509e-06
1.46561e-06
9.04178e-06
1.61434e-06
8.56026e-06
1.73685e-06
8.03851e-06
1.83549e-06
7.48398e-06
1.91271e-06
6.90341e-06
1.97071e-06
6.30317e-06
2.01144e-06
5.68899e-06
2.0362e-06
5.06677e-06
2.04577e-06
4.44195e-06
2.03967e-06
3.82098e-06
2.01675e-06
3.21002e-06
1.97379e-06
2.61762e-06
1.90706e-06
2.05176e-06
1.80979e-06
1.52485e-06
1.67594e-06
1.04739e-06
1.49541e-06
6.37651e-07
1.26295e-06
3.0879e-07
9.68754e-07
8.91102e-08
6.18397e-07
2.12661e-07
-1.62983e-08
-2.01863e-08
-7.62254e-08
5.3893e-08
-1.8681e-07
1.88493e-07
-3.48391e-07
3.59034e-07
-5.60262e-07
5.36762e-07
-8.18082e-07
7.10339e-07
-1.11765e-06
8.68085e-07
-1.45349e-06
1.00779e-06
-1.82098e-06
1.12741e-06
-2.21555e-06
1.22949e-06
-2.63377e-06
1.31624e-06
-3.07274e-06
1.39165e-06
-3.53064e-06
1.4589e-06
-4.0062e-06
1.5215e-06
-4.49891e-06
1.58202e-06
-5.00865e-06
1.64278e-06
-5.53576e-06
1.70527e-06
-6.08077e-06
1.77065e-06
-6.6444e-06
1.83953e-06
-7.22745e-06
1.91227e-06
-7.83078e-06
1.98893e-06
-8.45522e-06
2.06947e-06
-9.10164e-06
2.15374e-06
-9.77089e-06
2.24158e-06
-1.04638e-05
2.3328e-06
-1.11813e-05
2.42725e-06
-1.1924e-05
2.52476e-06
-1.2693e-05
2.62517e-06
-1.34888e-05
2.72829e-06
-1.43124e-05
2.83388e-06
-1.51644e-05
2.94162e-06
-1.60453e-05
3.05108e-06
-1.69554e-05
3.16165e-06
-1.78951e-05
3.2726e-06
-1.8864e-05
3.38297e-06
-1.98619e-05
3.49157e-06
-2.08877e-05
3.59698e-06
-2.19401e-05
3.69756e-06
-2.30172e-05
3.79136e-06
-2.41164e-05
3.87622e-06
-2.52344e-05
3.94972e-06
-2.63672e-05
4.00921e-06
-2.751e-05
4.05187e-06
-2.86574e-05
4.07467e-06
-2.98027e-05
4.0745e-06
-3.09388e-05
4.04817e-06
-3.20577e-05
3.99252e-06
-3.31505e-05
3.90443e-06
-3.42078e-05
3.78097e-06
-3.52194e-05
3.61943e-06
-3.61747e-05
3.41744e-06
-3.70628e-05
3.17307e-06
-3.78724e-05
2.88487e-06
-3.85922e-05
2.552e-06
-3.9211e-05
2.17431e-06
-3.97177e-05
1.75235e-06
-4.01018e-05
1.2875e-06
-4.03533e-05
7.81952e-07
-4.04631e-05
2.38758e-07
-4.0423e-05
-3.38158e-07
-4.0226e-05
-9.44018e-07
-3.98664e-05
-1.57322e-06
-3.93399e-05
-2.2194e-06
-3.86439e-05
-2.87546e-06
-3.77775e-05
-3.53373e-06
-3.67417e-05
-4.18601e-06
-3.55393e-05
-4.82374e-06
-3.41752e-05
-5.43812e-06
-3.26564e-05
-6.0203e-06
-3.09918e-05
-6.56155e-06
-2.91923e-05
-7.05343e-06
-2.72707e-05
-7.488e-06
-2.52418e-05
-7.85802e-06
-2.31219e-05
-8.15713e-06
-2.09288e-05
-8.38004e-06
-1.86815e-05
-8.52269e-06
-1.64001e-05
-8.5824e-06
-1.41052e-05
-8.55796e-06
-1.18177e-05
-8.44974e-06
-9.5586e-06
-8.25967e-06
-7.34822e-06
-7.99127e-06
-5.20624e-06
-7.64954e-06
-3.15112e-06
-7.24089e-06
-1.19981e-06
-6.77293e-06
6.32561e-07
-6.2543e-06
2.33295e-06
-5.69441e-06
3.89059e-06
-5.10319e-06
5.29715e-06
-4.4908e-06
6.54677e-06
-3.86735e-06
7.63613e-06
-3.24264e-06
8.56434e-06
-2.62588e-06
9.33284e-06
-2.0255e-06
9.9452e-06
-1.44893e-06
1.04069e-05
-9.02498e-07
1.07251e-05
-3.9131e-07
1.09083e-05
8.07785e-08
1.09659e-05
5.11166e-07
1.09084e-05
8.98447e-07
1.07463e-05
1.24233e-06
1.04906e-05
1.54351e-06
1.0152e-05
1.80353e-06
9.74108e-06
2.02459e-06
9.26783e-06
2.20938e-06
8.74171e-06
2.36086e-06
8.17162e-06
2.48206e-06
7.56571e-06
2.57582e-06
6.93175e-06
2.64466e-06
6.2768e-06
2.69032e-06
5.60805e-06
2.71384e-06
4.93209e-06
2.71477e-06
4.25658e-06
2.69168e-06
3.58865e-06
2.6408e-06
2.93796e-06
2.55738e-06
2.31325e-06
2.43345e-06
1.72822e-06
2.26101e-06
1.19426e-06
2.02804e-06
7.32073e-07
1.72591e-06
3.57152e-07
1.34161e-06
1.03913e-07
8.73577e-07
3.15166e-07
-2.92848e-08
8.66301e-09
-1.21199e-07
1.46573e-07
-2.7906e-07
3.45734e-07
-4.98463e-07
5.78898e-07
-7.76524e-07
8.14525e-07
-1.10626e-06
1.04038e-06
-1.48228e-06
1.24401e-06
-1.8978e-06
1.42354e-06
-2.34767e-06
1.57732e-06
-2.82677e-06
1.7088e-06
-3.3315e-06
1.82109e-06
-3.85879e-06
1.91915e-06
-4.40678e-06
2.00705e-06
-4.97413e-06
2.08908e-06
-5.56035e-06
2.16844e-06
-6.16529e-06
2.24795e-06
-6.78926e-06
2.32947e-06
-7.43277e-06
2.41441e-06
-8.09653e-06
2.50354e-06
-8.7813e-06
2.59731e-06
-9.48794e-06
2.69586e-06
-1.02174e-05
2.79918e-06
-1.09704e-05
2.90716e-06
-1.17482e-05
3.01965e-06
-1.25515e-05
3.13653e-06
-1.33816e-05
3.25766e-06
-1.42394e-05
3.38292e-06
-1.5126e-05
3.51218e-06
-1.60425e-05
3.64525e-06
-1.699e-05
3.78188e-06
-1.79696e-05
3.92168e-06
-1.89821e-05
4.06408e-06
-2.00283e-05
4.20832e-06
-2.11085e-05
4.3534e-06
-2.22231e-05
4.49804e-06
-2.33716e-05
4.64065e-06
-2.45533e-05
4.77933e-06
-2.5767e-05
4.91184e-06
-2.70106e-05
5.03561e-06
-2.82815e-05
5.14774e-06
-2.95761e-05
5.24503e-06
-3.08902e-05
5.32398e-06
-3.22185e-05
5.38087e-06
-3.35549e-05
5.41178e-06
-3.48924e-05
5.41266e-06
-3.62229e-05
5.37941e-06
-3.75377e-05
5.30798e-06
-3.8827e-05
5.19441e-06
-4.00804e-05
5.03502e-06
-4.12868e-05
4.82641e-06
-4.24344e-05
4.56567e-06
-4.35112e-05
4.25041e-06
-4.45048e-05
3.8789e-06
-4.54025e-05
3.45018e-06
-4.61919e-05
2.96409e-06
-4.68607e-05
2.42142e-06
-4.73969e-05
1.82391e-06
-4.77892e-05
1.17431e-06
-4.80269e-05
4.76442e-07
-4.81003e-05
-2.64851e-07
-4.80009e-05
-1.04368e-06
-4.77213e-05
-1.85314e-06
-4.72557e-05
-2.6854e-06
-4.66001e-05
-3.53175e-06
-4.57518e-05
-4.38271e-06
-4.47105e-05
-5.22816e-06
-4.34777e-05
-6.05747e-06
-4.20572e-05
-6.8597e-06
-4.04549e-05
-7.62376e-06
-3.86791e-05
-8.33862e-06
-3.67404e-05
-8.99357e-06
-3.46514e-05
-9.57839e-06
-3.24273e-05
-1.00837e-05
-3.0085e-05
-1.0501e-05
-2.76435e-05
-1.08231e-05
-2.51233e-05
-1.10444e-05
-2.25464e-05
-1.11608e-05
-1.99358e-05
-1.11701e-05
-1.73151e-05
-1.10719e-05
-1.47082e-05
-1.0868e-05
-1.21388e-05
-1.0562e-05
-9.63009e-06
-1.01596e-05
-7.204e-06
-9.66819e-06
-4.88114e-06
-9.0969e-06
-2.68023e-06
-8.45621e-06
-6.17769e-07
-7.75776e-06
1.29222e-06
-7.01394e-06
3.0384e-06
-6.23762e-06
4.61224e-06
-5.44172e-06
6.00812e-06
-4.63891e-06
7.22322e-06
-3.84126e-06
8.25747e-06
-3.05993e-06
9.11337e-06
-2.30491e-06
9.79574e-06
-1.58485e-06
1.03114e-05
-9.06895e-07
1.0669e-05
-2.76627e-07
1.08785e-05
3.01979e-07
1.09508e-05
8.26486e-07
1.08975e-05
1.29592e-06
1.07309e-05
1.71061e-06
1.04628e-05
2.07204e-06
1.01053e-05
2.38257e-06
9.66991e-06
2.6453e-06
9.16756e-06
2.86372e-06
8.6087e-06
3.04148e-06
8.00295e-06
3.18209e-06
7.35954e-06
3.28866e-06
6.68688e-06
3.36347e-06
5.99348e-06
3.40787e-06
5.2871e-06
3.42157e-06
4.57654e-06
3.40292e-06
3.86989e-06
3.34772e-06
3.17785e-06
3.25023e-06
2.51e-06
3.10127e-06
1.8813e-06
2.89077e-06
1.30421e-06
2.60453e-06
8.01851e-07
2.2299e-06
3.92013e-07
1.74978e-06
1.14011e-07
1.15423e-06
4.28029e-07
-4.31176e-08
5.12036e-08
-1.6937e-07
2.73914e-07
-3.77969e-07
5.53478e-07
-6.59255e-07
8.60787e-07
-1.0078e-06
1.1626e-06
-1.41364e-06
1.4465e-06
-1.86998e-06
1.70006e-06
-2.36856e-06
1.92221e-06
-2.90366e-06
2.1122e-06
-3.46955e-06
2.27468e-06
-4.06249e-06
2.41385e-06
-4.67922e-06
2.5358e-06
-5.31789e-06
2.64554e-06
-5.97713e-06
2.7482e-06
-6.65646e-06
2.8476e-06
-7.35573e-06
2.94706e-06
-8.07523e-06
3.04879e-06
-8.81544e-06
3.15445e-06
-9.57705e-06
3.26496e-06
-1.03608e-05
3.38091e-06
-1.11677e-05
3.50251e-06
-1.19986e-05
3.62985e-06
-1.28546e-05
3.76289e-06
-1.37367e-05
3.90159e-06
-1.46464e-05
4.04591e-06
-1.55848e-05
4.19583e-06
-1.65535e-05
4.35134e-06
-1.7554e-05
4.51238e-06
-1.85879e-05
4.67883e-06
-1.96568e-05
4.85043e-06
-2.07622e-05
5.02675e-06
-2.19056e-05
5.20713e-06
-2.30882e-05
5.39061e-06
-2.43111e-05
5.57592e-06
-2.55749e-05
5.76141e-06
-2.68797e-05
5.94502e-06
-2.82251e-05
6.12431e-06
-2.96101e-05
6.29637e-06
-3.10328e-05
6.4579e-06
-3.24907e-05
6.60517e-06
-3.39802e-05
6.73409e-06
-3.5497e-05
6.84021e-06
-3.70354e-05
6.91879e-06
-3.8589e-05
6.96489e-06
-4.01502e-05
6.97343e-06
-4.17106e-05
6.93927e-06
-4.32605e-05
6.85736e-06
-4.47893e-05
6.72281e-06
-4.62858e-05
6.53103e-06
-4.77377e-05
6.27788e-06
-4.91322e-05
5.95974e-06
-5.04559e-05
5.57368e-06
-5.16949e-05
5.11757e-06
-5.28352e-05
4.59017e-06
-5.38626e-05
3.99125e-06
-5.4763e-05
3.32165e-06
-5.55226e-05
2.58337e-06
-5.6128e-05
1.77964e-06
-5.65664e-05
9.14873e-07
-5.68259e-05
-5.2202e-09
-5.68957e-05
-9.73713e-07
-5.67661e-05
-1.98247e-06
-5.6429e-05
-3.02219e-06
-5.58778e-05
-4.08251e-06
-5.51079e-05
-5.1521e-06
-5.41167e-05
-6.2188e-06
-5.29037e-05
-7.26977e-06
-5.14709e-05
-8.29169e-06
-4.98228e-05
-9.27097e-06
-4.79666e-05
-1.0194e-05
-4.59118e-05
-1.10473e-05
-4.36711e-05
-1.18181e-05
-4.12593e-05
-1.24943e-05
-3.86942e-05
-1.3065e-05
-3.59958e-05
-1.35204e-05
-3.31863e-05
-1.38528e-05
-3.02897e-05
-1.40563e-05
-2.73319e-05
-1.41269e-05
-2.43394e-05
-1.40633e-05
-2.13399e-05
-1.38665e-05
-1.8361e-05
-1.354e-05
-1.543e-05
-1.30897e-05
-1.25734e-05
-1.25239e-05
-9.81625e-06
-1.18533e-05
-7.18172e-06
-1.109e-05
-4.69068e-06
-1.02482e-05
-2.36124e-06
-9.34283e-06
-2.08553e-07
-8.38985e-06
1.75548e-06
-7.40538e-06
3.52227e-06
-6.40542e-06
5.08657e-06
-5.40536e-06
6.4464e-06
-4.41963e-06
7.60285e-06
-3.4613e-06
8.55986e-06
-2.54187e-06
9.3239e-06
-1.67101e-06
9.90359e-06
-8.56444e-07
1.03093e-05
-1.03948e-07
1.05529e-05
5.82673e-07
1.06471e-05
1.20147e-06
1.06053e-05
1.75217e-06
1.0441e-05
2.236e-06
1.01678e-05
2.65542e-06
9.79893e-06
3.01381e-06
9.34708e-06
3.31517e-06
8.82438e-06
3.56382e-06
8.24212e-06
3.76393e-06
7.61112e-06
3.91932e-06
6.94126e-06
4.03287e-06
6.24248e-06
4.10636e-06
5.52378e-06
4.13977e-06
4.79517e-06
4.13133e-06
4.06575e-06
4.07653e-06
3.34732e-06
3.96868e-06
2.65034e-06
3.79743e-06
1.99105e-06
3.55049e-06
1.38309e-06
3.21123e-06
8.51684e-07
2.76252e-06
4.16725e-07
2.18252e-06
1.21099e-07
1.45233e-06
5.47594e-07
-5.75118e-08
1.07955e-07
-2.197e-07
4.37505e-07
-4.81438e-07
8.14113e-07
-8.27476e-07
1.20762e-06
-1.24959e-06
1.58416e-06
-1.73455e-06
1.93191e-06
-2.27401e-06
2.23926e-06
-2.8581e-06
2.50656e-06
-3.48042e-06
2.73443e-06
-4.13462e-06
2.92906e-06
-4.81678e-06
3.09601e-06
-5.52346e-06
3.24264e-06
-6.25284e-06
3.37498e-06
-7.00353e-06
3.49902e-06
-7.77507e-06
3.61923e-06
-8.5673e-06
3.73942e-06
-9.38053e-06
3.86213e-06
-1.02152e-05
3.98928e-06
-1.10721e-05
4.12197e-06
-1.1952e-05
4.26093e-06
-1.28558e-05
4.40651e-06
-1.37848e-05
4.55895e-06
-1.47401e-05
4.71836e-06
-1.57232e-05
4.88488e-06
-1.67358e-05
5.05868e-06
-1.77797e-05
5.23992e-06
-1.88569e-05
5.42877e-06
-1.99696e-05
5.62533e-06
-2.11202e-05
5.82961e-06
-2.2311e-05
6.04141e-06
-2.35443e-05
6.26028e-06
-2.48223e-05
6.48547e-06
-2.61473e-05
6.71582e-06
-2.75208e-05
6.94975e-06
-2.89443e-05
7.1852e-06
-3.04186e-05
7.4196e-06
-3.19439e-05
7.64986e-06
-3.35195e-05
7.87235e-06
-3.51442e-05
8.0829e-06
-3.68156e-05
8.27686e-06
-3.85302e-05
8.44909e-06
-4.02837e-05
8.59408e-06
-4.20705e-05
8.70594e-06
-4.38839e-05
8.77855e-06
-4.57157e-05
8.80564e-06
-4.7557e-05
8.78088e-06
-4.93973e-05
8.69805e-06
-5.12253e-05
8.55115e-06
-5.30285e-05
8.33455e-06
-5.47934e-05
8.04312e-06
-5.65058e-05
7.67238e-06
-5.81505e-05
7.21866e-06
-5.97119e-05
6.67922e-06
-6.11739e-05
6.05237e-06
-6.25201e-05
5.33759e-06
-6.37339e-05
4.53561e-06
-6.4799e-05
3.64853e-06
-6.56992e-05
2.67985e-06
-6.64189e-05
1.63453e-06
-6.69431e-05
5.18997e-07
-6.72582e-05
-6.5883e-07
-6.73512e-05
-1.88959e-06
-6.72112e-05
-3.16252e-06
-6.68284e-05
-4.46553e-06
-6.61956e-05
-5.78533e-06
-6.53073e-05
-7.10756e-06
-6.41606e-05
-8.41695e-06
-6.27553e-05
-9.69754e-06
-6.10939e-05
-1.09329e-05
-5.9182e-05
-1.21065e-05
-5.70282e-05
-1.32019e-05
-5.46442e-05
-1.42029e-05
-5.2045e-05
-1.50943e-05
-4.92485e-05
-1.58622e-05
-4.6276e-05
-1.64938e-05
-4.31512e-05
-1.69784e-05
-3.99006e-05
-1.73077e-05
-3.65528e-05
-1.74755e-05
-3.31381e-05
-1.74788e-05
-2.96881e-05
-1.73172e-05
-2.62352e-05
-1.69936e-05
-2.28117e-05
-1.65138e-05
-1.94494e-05
-1.58869e-05
-1.61789e-05
-1.51244e-05
-1.30288e-05
-1.42406e-05
-1.00256e-05
-1.32519e-05
-7.19238e-06
-1.21764e-05
-4.5493e-06
-1.10333e-05
-2.11257e-06
-9.84237e-06
1.05399e-07
-8.6236e-06
2.09618e-06
-7.3963e-06
3.85527e-06
-6.17881e-06
5.3819e-06
-4.98798e-06
6.67882e-06
-3.83879e-06
7.75192e-06
-2.74405e-06
8.60982e-06
-1.71426e-06
9.26346e-06
-7.57456e-07
9.72555e-06
1.20735e-07
1.00102e-05
9.17025e-07
1.01323e-05
1.63027e-06
1.01073e-05
2.26124e-06
9.9506e-06
2.81231e-06
9.67757e-06
3.28711e-06
9.30285e-06
3.69014e-06
8.84061e-06
4.02636e-06
8.30404e-06
4.30074e-06
7.70582e-06
4.51786e-06
7.05755e-06
4.68135e-06
6.37073e-06
4.79355e-06
5.65578e-06
4.85485e-06
4.92406e-06
4.86351e-06
4.1858e-06
4.81478e-06
3.45398e-06
4.7011e-06
2.74013e-06
4.51098e-06
2.06176e-06
4.22981e-06
1.4338e-06
3.83832e-06
8.83307e-07
3.31465e-06
4.31974e-07
2.63184e-06
1.25185e-07
1.76196e-06
6.7141e-07
-7.24109e-08
1.79431e-07
-2.71814e-07
6.38646e-07
-5.88518e-07
1.12945e-06
-1.00141e-06
1.62148e-06
-1.49927e-06
2.0813e-06
-2.06544e-06
2.49856e-06
-2.68986e-06
2.86329e-06
-3.36097e-06
3.17789e-06
-4.07166e-06
3.44489e-06
-4.8149e-06
3.67239e-06
-5.5866e-06
3.86755e-06
-6.38313e-06
4.03918e-06
-7.20269e-06
4.19442e-06
-8.04387e-06
4.34016e-06
-8.90627e-06
4.48153e-06
-9.78972e-06
4.62281e-06
-1.06946e-05
4.76689e-06
-1.16213e-05
4.91595e-06
-1.25708e-05
5.0713e-06
-1.35438e-05
5.23387e-06
-1.45416e-05
5.40422e-06
-1.55656e-05
5.58281e-06
-1.66174e-05
5.77003e-06
-1.76989e-05
5.96632e-06
-1.88125e-05
6.17212e-06
-1.99607e-05
6.38794e-06
-2.11462e-05
6.6142e-06
-2.23724e-05
6.8513e-06
-2.36423e-05
7.0994e-06
-2.49595e-05
7.35843e-06
-2.63274e-05
7.62797e-06
-2.77492e-05
7.90718e-06
-2.92283e-05
8.19468e-06
-3.07673e-05
8.48858e-06
-3.23687e-05
8.78634e-06
-3.40341e-05
9.08479e-06
-3.57646e-05
9.38012e-06
-3.75603e-05
9.66783e-06
-3.94204e-05
9.9428e-06
-4.13431e-05
1.01993e-05
-4.33252e-05
1.0431e-05
-4.53624e-05
1.06311e-05
-4.74492e-05
1.07924e-05
-4.95783e-05
1.09075e-05
-5.17415e-05
1.09686e-05
-5.39288e-05
1.09679e-05
-5.61291e-05
1.0898e-05
-5.83296e-05
1.07514e-05
-6.05164e-05
1.05212e-05
-6.26745e-05
1.0201e-05
-6.47874e-05
9.78514e-06
-6.6838e-05
9.26905e-06
-6.8808e-05
8.6491e-06
-7.06787e-05
7.92288e-06
-7.24306e-05
7.08937e-06
-7.40441e-05
6.14902e-06
-7.54994e-05
5.10384e-06
-7.67771e-05
3.95751e-06
-7.7858e-05
2.71542e-06
-7.87236e-05
1.38469e-06
-7.93566e-05
-2.57704e-08
-7.97406e-05
-1.50535e-06
-7.98612e-05
-3.04173e-06
-7.97055e-05
-4.62099e-06
-7.92628e-05
-6.22774e-06
-7.85248e-05
-7.84522e-06
-7.74859e-05
-9.45552e-06
-7.61432e-05
-1.10398e-05
-7.44972e-05
-1.25785e-05
-7.25514e-05
-1.40518e-05
-7.03131e-05
-1.54397e-05
-6.7793e-05
-1.67225e-05
-6.50055e-05
-1.78813e-05
-6.19688e-05
-1.88983e-05
-5.87047e-05
-1.97573e-05
-5.52386e-05
-2.0444e-05
-5.15989e-05
-2.09468e-05
-4.78173e-05
-2.12566e-05
-4.39277e-05
-2.13678e-05
-3.99662e-05
-2.12781e-05
-3.59703e-05
-2.0989e-05
-3.19779e-05
-2.05058e-05
-2.8027e-05
-1.98373e-05
-2.41548e-05
-1.89962e-05
-2.03966e-05
-1.79985e-05
-1.67853e-05
-1.68628e-05
-1.33509e-05
-1.56105e-05
-1.01195e-05
-1.42645e-05
-7.11293e-06
-1.28487e-05
-4.34864e-06
-1.13877e-05
-1.83928e-06
-9.90554e-06
4.07178e-07
-8.42521e-06
2.38741e-06
-6.96819e-06
4.10242e-06
-5.5538e-06
5.55717e-06
-4.19883e-06
6.7601e-06
-2.91726e-06
7.72264e-06
-1.72008e-06
8.45856e-06