/*--------------------------------*- C++ -*----------------------------------*\
| =========                 |                                                 |
| \\      /  F ield         | OpenFOAM: The Open Source CFD Toolbox           |
|  \\    /   O peration     | Version:  2406                                  |
|   \\  /    A nd           | Website:  www.openfoam.com                      |
|    \\/     M anipulation  |                                                 |
\*---------------------------------------------------------------------------*/
FoamFile
{
    version     2.0;
    format      ascii;
    arch        "LSB;label=32;scalar=64";
    class       volVectorField;
    location    "8.9";
    object      U;
}
// * * * * * * * * * * * * * * * * * * * * * * * * * * * * * * * * * * * * * //

dimensions      [0 1 -1 0 0 0 0];

internalField   nonuniform List<vector> 
3600
(
(2.38657e-05 -2.24821e-05 0)
(-1.02216e-06 7.46646e-06 0)
(-0.00010635 3.39004e-05 0)
(-0.000279109 5.38084e-05 0)
(-0.00049414 6.0719e-05 0)
(-0.000723922 6.39864e-05 0)
(-0.000964914 6.26663e-05 0)
(-0.0012005 6.16643e-05 0)
(-0.00143805 5.9487e-05 0)
(-0.00166678 5.83717e-05 0)
(-0.00189584 5.68507e-05 0)
(-0.00211683 5.60959e-05 0)
(-0.00233742 5.49744e-05 0)
(-0.00255044 5.42138e-05 0)
(-0.00276147 5.29978e-05 0)
(-0.00296419 5.18147e-05 0)
(-0.00316223 5.00697e-05 0)
(-0.0033499 4.80908e-05 0)
(-0.00352913 4.54308e-05 0)
(-0.00369467 4.23068e-05 0)
(-0.00384705 3.83818e-05 0)
(-0.00398133 3.38084e-05 0)
(-0.00409701 2.83488e-05 0)
(-0.00418948 2.21365e-05 0)
(-0.00425765 1.50386e-05 0)
(-0.00429749 7.20968e-06 0)
(-0.0043079 -1.36878e-06 0)
(-0.00428578 -1.04925e-05 0)
(-0.00423065 -2.0064e-05 0)
(-0.00414077 -2.9822e-05 0)
(-0.00401688 -3.957e-05 0)
(-0.00385894 -4.90089e-05 0)
(-0.00366932 -5.78829e-05 0)
(-0.00344983 -6.59009e-05 0)
(-0.00320451 -7.28052e-05 0)
(-0.00293681 -7.83731e-05 0)
(-0.00265222 -8.2406e-05 0)
(-0.00235525 -8.48068e-05 0)
(-0.00205222 -8.5481e-05 0)
(-0.0017479 -8.44915e-05 0)
(-0.00144867 -8.18594e-05 0)
(-0.00115866 -7.78054e-05 0)
(-0.000883586 -7.2436e-05 0)
(-0.000626178 -6.60902e-05 0)
(-0.000391087 -5.88938e-05 0)
(-0.000179182 -5.12388e-05 0)
(5.93651e-06 -4.31842e-05 0)
(0.000165257 -3.51051e-05 0)
(0.000295697 -2.6908e-05 0)
(0.000399734 -1.88997e-05 0)
(0.000473854 -1.07677e-05 0)
(0.000521487 -2.74587e-06 0)
(0.000537639 5.71163e-06 0)
(0.000526558 1.43027e-05 0)
(0.000481588 2.35823e-05 0)
(0.00040975 3.23607e-05 0)
(0.000306662 3.98678e-05 0)
(0.00019105 4.10108e-05 0)
(7.55938e-05 3.15609e-05 0)
(4.63526e-06 5.45446e-06 0)
(-6.26781e-06 7.01666e-07 0)
(-0.000174217 0.000168525 0)
(-0.00051605 0.000308336 0)
(-0.000986865 0.000415665 0)
(-0.00155339 0.000468692 0)
(-0.00216169 0.000498134 0)
(-0.00280181 0.000503781 0)
(-0.00344073 0.000503925 0)
(-0.00408532 0.00049656 0)
(-0.00471586 0.000489959 0)
(-0.00534368 0.000480829 0)
(-0.00595481 0.000472826 0)
(-0.00655909 0.000462906 0)
(-0.00714487 0.000452838 0)
(-0.00771882 0.000440244 0)
(-0.00827036 0.000426045 0)
(-0.00880294 0.00040843 0)
(-0.00930649 0.000387863 0)
(-0.00978163 0.000362951 0)
(-0.0102185 0.000333918 0)
(-0.0106155 0.000299733 0)
(-0.0109631 0.000260582 0)
(-0.011258 0.000215839 0)
(-0.0114912 0.000165847 0)
(-0.011659 0.00011048 0)
(-0.0117538 5.04126e-05 0)
(-0.0117723 -1.39089e-05 0)
(-0.0117092 -8.13781e-05 0)
(-0.0115632 -0.000150976 0)
(-0.011332 -0.000221188 0)
(-0.0110174 -0.000290543 0)
(-0.0106208 -0.000357285 0)
(-0.0101477 -0.000419739 0)
(-0.0096033 -0.000476194 0)
(-0.00899675 -0.000525096 0)
(-0.00833669 -0.000565119 0)
(-0.00763499 -0.000595159 0)
(-0.00690249 -0.000614569 0)
(-0.00615262 -0.000622921 0)
(-0.00539674 -0.00062041 0)
(-0.00464828 -0.000607341 0)
(-0.00391736 -0.000584712 0)
(-0.003216 -0.000553406 0)
(-0.00255165 -0.000514989 0)
(-0.00193398 -0.000470576 0)
(-0.00136699 -0.000421921 0)
(-0.000858004 -0.000369919 0)
(-0.000407617 -0.000316084 0)
(-2.17403e-05 -0.000260656 0)
(0.000301554 -0.000204598 0)
(0.000556012 -0.000147259 0)
(0.000744985 -8.91001e-05 0)
(0.000860208 -2.88767e-05 0)
(0.000906581 3.24205e-05 0)
(0.000874505 9.48404e-05 0)
(0.000775394 0.000153012 0)
(0.000606341 0.000200116 0)
(0.000401244 0.000216996 0)
(0.000183365 0.000183997 0)
(2.95383e-05 7.45237e-05 0)
(-4.01736e-05 0.000118028 0)
(-0.000353781 0.00052537 0)
(-0.000926635 0.000854655 0)
(-0.0016644 0.00110027 0)
(-0.00253453 0.00123555 0)
(-0.00346101 0.00131151 0)
(-0.00443439 0.0013352 0)
(-0.00540968 0.00133964 0)
(-0.00639412 0.0013263 0)
(-0.00736131 0.00131004 0)
(-0.00832307 0.00128754 0)
(-0.00926129 0.00126466 0)
(-0.0101859 0.00123708 0)
(-0.0110822 0.001207 0)
(-0.0119563 0.00117068 0)
(-0.0127946 0.00112883 0)
(-0.0135993 0.00107844 0)
(-0.0143575 0.00101958 0)
(-0.0150679 0.000949892 0)
(-0.0157178 0.000869208 0)
(-0.0163031 0.000775851 0)
(-0.0168116 0.000669853 0)
(-0.0172377 0.000550397 0)
(-0.01757 0.000418112 0)
(-0.0178029 0.000273285 0)
(-0.017927 0.000117478 0)
(-0.0179383 -4.77538e-05 0)
(-0.0178305 -0.000219772 0)
(-0.0176026 -0.000395804 0)
(-0.0172529 -0.000572276 0)
(-0.0167846 -0.000745524 0)
(-0.016201 -0.000911484 0)
(-0.0155102 -0.0010662 0)
(-0.0147206 -0.00120577 0)
(-0.0138447 -0.00132669 0)
(-0.0128951 -0.00142599 0)
(-0.0118878 -0.00150125 0)
(-0.0108377 -0.00155104 0)
(-0.00976258 -0.00157455 0)
(-0.008678 -0.00157216 0)
(-0.00760145 -0.00154473 0)
(-0.00654675 -0.00149438 0)
(-0.0055295 -0.0014233 0)
(-0.00456014 -0.00133478 0)
(-0.00365123 -0.00123161 0)
(-0.00280895 -0.0011174 0)
(-0.00204277 -0.000994525 0)
(-0.00135479 -0.00086595 0)
(-0.000752616 -0.000732659 0)
(-0.000235421 -0.000596239 0)
(0.000188897 -0.000455846 0)
(0.00052265 -0.000311834 0)
(0.00075571 -0.000162521 0)
(0.000892213 -9.5423e-06 0)
(0.000921039 0.000144991 0)
(0.000854771 0.000289957 0)
(0.000691199 0.000407371 0)
(0.000470811 0.000460801 0)
(0.000221756 0.000405513 0)
(3.88471e-05 0.000189958 0)
(-7.17997e-05 0.000331483 0)
(-0.000523916 0.00106457 0)
(-0.00130798 0.00162756 0)
(-0.00227798 0.00203177 0)
(-0.00340443 0.0022639 0)
(-0.00459251 0.00239509 0)
(-0.00583804 0.00244336 0)
(-0.00708631 0.00245499 0)
(-0.00834709 0.00243636 0)
(-0.00958776 0.00240846 0)
(-0.0108211 0.00236872 0)
(-0.0120246 0.00232504 0)
(-0.0132084 0.00227219 0)
(-0.0143544 0.0022127 0)
(-0.0154681 0.00214148 0)
(-0.0165332 0.00205898 0)
(-0.0175509 0.00196092 0)
(-0.0185055 0.00184689 0)
(-0.0193943 0.00171353 0)
(-0.020202 0.00156031 0)
(-0.0209233 0.00138497 0)
(-0.0215435 0.00118754 0)
(-0.022056 0.000967201 0)
(-0.0224476 0.00072517 0)
(-0.022712 0.0004625 0)
(-0.022839 0.000182057 0)
(-0.0228245 -0.000113043 0)
(-0.0226626 -0.000418148 0)
(-0.0223531 -0.00072825 0)
(-0.0218954 -0.00103725 0)
(-0.0212946 -0.00133889 0)
(-0.020556 -0.00162642 0)
(-0.0196902 -0.00189331 0)
(-0.0187081 -0.00213328 0)
(-0.0176251 -0.00234069 0)
(-0.0164565 -0.00251087 0)
(-0.0152214 -0.0026401 0)
(-0.0139376 -0.00272622 0)
(-0.0126257 -0.0027681 0)
(-0.0113037 -0.00276649 0)
(-0.00999175 -0.00272297 0)
(-0.00870573 -0.00264098 0)
(-0.00746329 -0.0025242 0)
(-0.00627653 -0.00237794 0)
(-0.00515951 -0.00220679 0)
(-0.00411951 -0.00201651 0)
(-0.0031671 -0.00181103 0)
(-0.00230504 -0.00159497 0)
(-0.00154176 -0.00137006 0)
(-0.00087692 -0.0011386 0)
(-0.000319216 -0.000899492 0)
(0.000133199 -0.000653053 0)
(0.000469312 -0.000397171 0)
(0.000692927 -0.000134416 0)
(0.000792285 0.000130612 0)
(0.000780316 0.000380507 0)
(0.000654971 0.000585517 0)
(0.000458193 0.000691343 0)
(0.000219815 0.000625767 0)
(3.86936e-05 0.000307955 0)
(-9.41932e-05 0.000626361 0)
(-0.000659647 0.0017728 0)
(-0.00162324 0.00261819 0)
(-0.00279178 0.00320468 0)
(-0.0041362 0.00354816 0)
(-0.00554296 0.00374154 0)
(-0.00701375 0.00381884 0)
(-0.00848504 0.00383861 0)
(-0.00997056 0.00381408 0)
(-0.0114321 0.00377151 0)
(-0.0128842 0.00371006 0)
(-0.0143004 0.00363916 0)
(-0.0156912 0.00355312 0)
(-0.0170354 0.00345441 0)
(-0.0183381 0.00333686 0)
(-0.0195805 0.00320029 0)
(-0.0207627 0.0030393 0)
(-0.0218668 0.0028528 0)
(-0.0228891 0.00263655 0)
(-0.0238121 0.00238959 0)
(-0.0246295 0.00210926 0)
(-0.0253248 0.00179566 0)
(-0.0258907 0.00144831 0)
(-0.0263129 0.00106924 0)
(-0.0265848 0.000660703 0)
(-0.0266959 0.000227247 0)
(-0.0266424 -0.00022596 0)
(-0.026419 -0.000691799 0)
(-0.0260266 -0.00116254 0)
(-0.0254658 -0.00162912 0)
(-0.0247437 -0.00208225 0)
(-0.0238674 -0.00251215 0)
(-0.0228496 -0.00290941 0)
(-0.0217038 -0.00326515 0)
(-0.0204478 -0.00357143 0)
(-0.0190994 -0.00382182 0)
(-0.0176803 -0.00401128 0)
(-0.0162107 -0.00413697 0)
(-0.0147134 -0.00419761 0)
(-0.0132087 -0.00419449 0)
(-0.0117186 -0.00413014 0)
(-0.0102605 -0.00400963 0)
(-0.0088537 -0.00383847 0)
(-0.00751108 -0.0036243 0)
(-0.00624759 -0.00337385 0)
(-0.00507082 -0.00309534 0)
(-0.00399161 -0.00279452 0)
(-0.00301252 -0.00247785 0)
(-0.00214192 -0.00214794 0)
(-0.00137901 -0.00180784 0)
(-0.000732368 -0.00145611 0)
(-0.000199762 -0.001093 0)
(0.000207756 -0.000715907 0)
(0.000494146 -0.000328389 0)
(0.000647477 6.22647e-05 0)
(0.000680636 0.000431828 0)
(0.000591708 0.000738246 0)
(0.000422475 0.000908015 0)
(0.000204328 0.000841177 0)
(3.49255e-05 0.000424956 0)
(-0.000112953 0.000984217 0)
(-0.000775055 0.00261473 0)
(-0.00188971 0.003777 0)
(-0.0032249 0.00455867 0)
(-0.00475057 0.00501824 0)
(-0.00633703 0.00527429 0)
(-0.00799152 0.00538066 0)
(-0.00964302 0.00540745 0)
(-0.0113096 0.00537557 0)
(-0.0129481 0.00531557 0)
(-0.0145753 0.00522865 0)
(-0.0161609 0.00512523 0)
(-0.0177163 0.00499939 0)
(-0.019217 0.00485331 0)
(-0.0206683 0.00467986 0)
(-0.0220487 0.00447815 0)
(-0.023358 0.00424175 0)
(-0.0245759 0.00396889 0)
(-0.0256981 0.00365455 0)
(-0.0267052 0.00329743 0)
(-0.0275901 0.00289465 0)
(-0.0283352 0.00244658 0)
(-0.0289324 0.0019533 0)
(-0.0293666 0.00141797 0)
(-0.0296312 0.000844313 0)
(-0.0297154 0.000238901 0)
(-0.0296159 -0.000390723 0)
(-0.0293277 -0.00103466 0)
(-0.0288529 -0.00168214 0)
(-0.0281933 -0.00232089 0)
(-0.0273573 -0.00293835 0)
(-0.026354 -0.00352156 0)
(-0.0251981 -0.00405808 0)
(-0.0239051 -0.00453635 0)
(-0.0224954 -0.00494613 0)
(-0.020989 -0.00527923 0)
(-0.0194102 -0.00552937 0)
(-0.0177813 -0.00569316 0)
(-0.0161278 -0.0057693 0)
(-0.0144719 -0.00575983 0)
(-0.0128375 -0.00566845 0)
(-0.0112439 -0.00550217 0)
(-0.0097114 -0.00526858 0)
(-0.0082539 -0.00497798 0)
(-0.00688689 -0.00463959 0)
(-0.00561786 -0.00426438 0)
(-0.00445744 -0.00386014 0)
(-0.0034073 -0.00343545 0)
(-0.00247504 -0.00299384 0)
(-0.00165852 -0.00253924 0)
(-0.000965332 -0.0020698 0)
(-0.0003919 -0.0015857 0)
(5.15548e-05 -0.00108354 0)
(0.000369958 -0.00056788 0)
(0.000551864 -4.81203e-05 0)
(0.000610411 0.000444602 0)
(0.000543998 0.000856897 0)
(0.000393563 0.00109539 0)
(0.000191422 0.00103419 0)
(3.18783e-05 0.00052857 0)
(-0.00012668 0.00139661 0)
(-0.000866155 0.00357488 0)
(-0.00210421 0.00508809 0)
(-0.00357748 0.0060808 0)
(-0.00525397 0.00666342 0)
(-0.00698965 0.006984 0)
(-0.00879609 0.00711964 0)
(-0.0105955 0.00715213 0)
(-0.0124101 0.00711105 0)
(-0.0141925 0.0070306 0)
(-0.0159619 0.00691443 0)
(-0.0176846 0.00677339 0)
(-0.0193731 0.00660162 0)
(-0.0210003 0.00640061 0)
(-0.0225717 0.00616248 0)
(-0.0240635 0.0058854 0)
(-0.0254751 0.00556204 0)
(-0.0267846 0.00518983 0)
(-0.0279868 0.0047631 0)
(-0.029061 0.0042802 0)
(-0.0299994 0.00373818 0)
(-0.0307829 0.00313778 0)
(-0.0314029 0.00247986 0)
(-0.0318436 0.00176886 0)
(-0.032098 0.00101028 0)
(-0.0321546 0.000212965 0)
(-0.0320105 -0.000612839 0)
(-0.0316606 -0.00145413 0)
(-0.0311077 -0.00229677 0)
(-0.0303544 -0.00312492 0)
(-0.0294104 -0.00392239 0)
(-0.028286 -0.00467271 0)
(-0.0269981 -0.00536013 0)
(-0.025564 -0.00597016 0)
(-0.0240066 -0.00649007 0)
(-0.0223485 -0.00690976 0)
(-0.0206164 -0.00722163 0)
(-0.0188356 -0.00742175 0)
(-0.017034 -0.00750887 0)
(-0.0152365 -0.00748597 0)
(-0.0134695 -0.00735817 0)
(-0.0117542 -0.00713478 0)
(-0.010113 -0.00682591 0)
(-0.00856059 -0.00644509 0)
(-0.00711334 -0.00600449 0)
(-0.00577851 -0.00551845 0)
(-0.00456632 -0.00499731 0)
(-0.00347705 -0.00445218 0)
(-0.0025169 -0.00388778 0)
(-0.00168159 -0.00330916 0)
(-0.000976969 -0.00271401 0)
(-0.000397209 -0.00210241 0)
(4.8935e-05 -0.00146986 0)
(0.000368102 -0.000821814 0)
(0.000549657 -0.000169355 0)
(0.000607627 0.000449336 0)
(0.000540792 0.000970039 0)
(0.000390295 0.0012788 0)
(0.000189225 0.00122507 0)
(3.08506e-05 0.000631275 0)
(-0.000138683 0.00185008 0)
(-0.000943313 0.00462589 0)
(-0.00228332 0.00651525 0)
(-0.00387084 0.00772946 0)
(-0.00567169 0.00843791 0)
(-0.00753025 0.00882226 0)
(-0.00946156 0.00898546 0)
(-0.0113823 0.00902145 0)
(-0.0133184 0.00896902 0)
(-0.0152188 0.00886554 0)
(-0.0171051 0.00871716 0)
(-0.018941 0.00853475 0)
(-0.02074 0.00831256 0)
(-0.0224727 0.00805116 0)
(-0.0241451 0.00774198 0)
(-0.0257314 0.00738212 0)
(-0.0272309 0.00696344 0)
(-0.0286199 0.0064825 0)
(-0.0298929 0.00593308 0)
(-0.0310276 0.00531313 0)
(-0.0320155 0.00461974 0)
(-0.0328362 0.00385406 0)
(-0.0334804 0.00301783 0)
(-0.033931 0.00211689 0)
(-0.0341802 0.00115865 0)
(-0.0342158 0.000154397 0)
(-0.0340343 -0.000882684 0)
(-0.0336302 -0.00193624 0)
(-0.0330066 -0.00298843 0)
(-0.0321663 -0.00401953 0)
(-0.0311199 -0.00500939 0)
(-0.029879 -0.00593769 0)
(-0.0284624 -0.00678505 0)
(-0.0268894 -0.0075338 0)
(-0.0251853 -0.0081685 0)
(-0.0233751 -0.00867701 0)
(-0.0214887 -0.00905029 0)
(-0.0195538 -0.00928381 0)
(-0.0176019 -0.00937637 0)
(-0.0156606 -0.00933196 0)
(-0.0137597 -0.0091573 0)
(-0.011923 -0.00886434 0)
(-0.0101755 -0.00846612 0)
(-0.00853373 -0.00798004 0)
(-0.00701545 -0.00742188 0)
(-0.00562791 -0.00681011 0)
(-0.00438098 -0.00615822 0)
(-0.00327319 -0.00548058 0)
(-0.00230887 -0.00478345 0)
(-0.00148077 -0.00407335 0)
(-0.000792222 -0.00334742 0)
(-0.000234192 -0.00260566 0)
(0.000186723 -0.00184195 0)
(0.00047975 -0.00106239 0)
(0.000635416 -0.000278996 0)
(0.000669421 0.000463185 0)
(0.000580938 0.00108973 0)
(0.000412482 0.00146575 0)
(0.000197789 0.0014166 0)
(3.183e-05 0.000732186 0)
(-0.000147863 0.00233985 0)
(-0.00100527 0.00575599 0)
(-0.0024287 0.00804443 0)
(-0.00411052 0.00949139 0)
(-0.00601471 0.0103302 0)
(-0.00797593 0.0107795 0)
(-0.010012 0.01097 0)
(-0.0120347 0.0110084 0)
(-0.0140734 0.0109434 0)
(-0.016074 0.0108153 0)
(-0.0180603 0.0106328 0)
(-0.0199938 0.0104065 0)
(-0.0218894 0.0101309 0)
(-0.0237157 0.00980526 0)
(-0.0254793 0.00942045 0)
(-0.0271528 0.00897232 0)
(-0.0287355 0.00845189 0)
(-0.0302022 0.00785471 0)
(-0.031547 0.00717399 0)
(-0.0327459 0.0064072 0)
(-0.0337897 0.00555141 0)
(-0.0346565 0.00460808 0)
(-0.0353356 0.00357987 0)
(-0.0358082 0.00247398 0)
(-0.0360653 0.00129985 0)
(-0.036093 7.13407e-05 0)
(-0.0358869 -0.00119515 0)
(-0.0354403 -0.00247958 0)
(-0.0347561 -0.00375993 0)
(-0.0338371 -0.00501208 0)
(-0.0326948 -0.00621135 0)
(-0.0313422 -0.00733307 0)
(-0.0297997 -0.00835381 0)
(-0.0280888 -0.00925237 0)
(-0.026237 -0.0100103 0)
(-0.0242718 -0.0106133 0)
(-0.0222253 -0.0110507 0)
(-0.0201282 -0.0113171 0)
(-0.0180148 -0.0114111 0)
(-0.0159161 -0.0113375 0)
(-0.0138661 -0.0111047 0)
(-0.0118922 -0.0107274 0)
(-0.0100238 -0.010222 0)
(-0.00828065 -0.00961042 0)
(-0.00668323 -0.00891314 0)
(-0.0052398 -0.00815389 0)
(-0.00396046 -0.00735038 0)
(-0.00284187 -0.00652132 0)
(-0.00188612 -0.00567522 0)
(-0.00108204 -0.00482063 0)
(-0.000429553 -0.00395422 0)
(8.47994e-05 -0.00307581 0)
(0.000457357 -0.00217722 0)
(0.000700962 -0.00126473 0)
(0.000807631 -0.000350699 0)
(0.000795706 0.000513157 0)
(0.000664767 0.00124234 0)
(0.000460344 0.00168056 0)
(0.000216926 0.0016285 0)
(3.451e-05 0.00084242 0)
(-0.00015625 0.00285861 0)
(-0.00105866 0.00694938 0)
(-0.0025517 0.00965454 0)
(-0.00431223 0.0113425 0)
(-0.0063026 0.0123143 0)
(-0.00834994 0.0128288 0)
(-0.0104743 0.0130458 0)
(-0.0125839 0.0130859 0)
(-0.0147107 0.0130076 0)
(-0.0167984 0.0128541 0)
(-0.0188732 0.0126368 0)
(-0.0208945 0.0123659 0)
(-0.0228787 0.0120358 0)
(-0.0247929 0.0116445 0)
(-0.0266445 0.0111822 0)
(-0.0284045 0.0106433 0)
(-0.0300727 0.0100179 0)
(-0.031622 0.00930051 0)
(-0.0330464 0.00848354 0)
(-0.0343201 0.00756379 0)
(-0.0354329 0.00653818 0)
(-0.0363606 0.00540829 0)
(-0.0370912 0.00417754 0)
(-0.0376034 0.00285439 0)
(-0.0378861 0.00145033 0)
(-0.0379234 -1.80572e-05 0)
(-0.037709 -0.00153084 0)
(-0.0372353 -0.00306376 0)
(-0.0365046 -0.00458999 0)
(-0.0355203 -0.00608031 0)
(-0.0342955 -0.00750487 0)
(-0.0328447 -0.00883421 0)
(-0.0311906 -0.0100406 0)
(-0.0293561 -0.0110995 0)
(-0.0273703 -0.0119895 0)
(-0.0252608 -0.0126943 0)
(-0.0230603 -0.0132014 0)
(-0.0207998 -0.0135042 0)
(-0.0185156 -0.0136005 0)
(-0.0162413 -0.013495 0)
(-0.0140156 -0.0131968 0)
(-0.0118719 -0.0127229 0)
(-0.00984665 -0.0120931 0)
(-0.00796605 -0.0113347 0)
(-0.00625686 -0.0104738 0)
(-0.00473091 -0.00954115 0)
(-0.00340043 -0.00856053 0)
(-0.00226079 -0.00755674 0)
(-0.00131167 -0.00654183 0)
(-0.000536808 -0.00552733 0)
(6.87076e-05 -0.00450965 0)
(0.000524556 -0.00348833 0)
(0.000831452 -0.00245243 0)
(0.00100738 -0.00140769 0)
(0.0010466 -0.000365957 0)
(0.000971216 0.000614912 0)
(0.000781393 0.00144036 0)
(0.000527023 0.00193229 0)
(0.000243538 0.00186549 0)
(3.82918e-05 0.000962144 0)
(-0.000162845 0.0034016 0)
(-0.00110257 0.00819555 0)
(-0.00265389 0.0113328 0)
(-0.00448062 0.0132697 0)
(-0.00654417 0.0143784 0)
(-0.00866541 0.0149599 0)
(-0.0108665 0.0152045 0)
(-0.0130526 0.015247 0)
(-0.0152584 0.0151563 0)
(-0.0174256 0.0149786 0)
(-0.0195825 0.0147279 0)
(-0.0216873 0.0144135 0)
(-0.0237578 0.0140301 0)
(-0.0257601 0.0135741 0)
(-0.0277023 0.013035 0)
(-0.0295544 0.0124054 0)
(-0.0313163 0.0116745 0)
(-0.0329596 0.0108353 0)
(-0.0344777 0.00987927 0)
(-0.0358431 0.0088022 0)
(-0.037044 0.00760058 0)
(-0.0380539 0.00627573 0)
(-0.0388583 0.00483162 0)
(-0.039433 0.00327783 0)
(-0.0397644 0.00162797 0)
(-0.039834 -9.83006e-05 0)
(-0.039634 -0.00187681 0)
(-0.0391562 -0.00367813 0)
(-0.0384043 -0.00546947 0)
(-0.0373839 -0.00721547 0)
(-0.0361115 -0.0088805 0)
(-0.0346048 -0.0104303 0)
(-0.0328886 -0.0118336 0)
(-0.0309853 -0.0130635 0)
(-0.0289212 -0.0140974 0)
(-0.0267187 -0.0149176 0)
(-0.0244046 -0.01551 0)
(-0.0220042 -0.0158659 0)
(-0.0195506 -0.0159801 0)
(-0.0170781 -0.0158547 0)
(-0.0146309 -0.0154967 0)
(-0.0122516 -0.014923 0)
(-0.00998983 -0.0141558 0)
(-0.00788568 -0.0132278 0)
(-0.00597986 -0.0121725 0)
(-0.00429438 -0.0110304 0)
(-0.00284862 -0.00983462 0)
(-0.00163925 -0.00861942 0)
(-0.000664051 -0.00740301 0)
(9.9766e-05 -0.0062019 0)
(0.000664339 -0.005013 0)
(0.00105869 -0.00383555 0)
(0.0012907 -0.002655 0)
(0.00138619 -0.00147543 0)
(0.00134337 -0.000307075 0)
(0.0011898 0.0007869 0)
(0.000926859 0.00170182 0)
(0.00061027 0.00223728 0)
(0.000276724 0.00214054 0)
(4.29732e-05 0.00109819 0)
(-0.000169178 0.00396736 0)
(-0.00114154 0.0094893 0)
(-0.00274267 0.0130714 0)
(-0.00462608 0.0152639 0)
(-0.00675243 0.0165125 0)
(-0.0089379 0.0171628 0)
(-0.0112066 0.0174362 0)
(-0.0134615 0.0174826 0)
(-0.0157395 0.0173815 0)
(-0.0179812 0.0171818 0)
(-0.0202171 0.0169003 0)
(-0.0224043 0.0165456 0)
(-0.0245623 0.0161122 0)
(-0.0266563 0.0155949 0)
(-0.0286955 0.0149822 0)
(-0.0306489 0.0142649 0)
(-0.0325166 0.0134311 0)
(-0.0342691 0.0124717 0)
(-0.0358991 0.011377 0)
(-0.0373769 0.0101414 0)
(-0.0386891 0.00876038 0)
(-0.0398062 0.00723464 0)
(-0.0407109 0.00556838 0)
(-0.0413757 0.00377223 0)
(-0.0417844 0.00186233 0)
(-0.0419168 -0.000137679 0)
(-0.0417658 -0.00219782 0)
(-0.0413259 -0.00428154 0)
(-0.0406068 -0.00634821 0)
(-0.0396215 -0.00835513 0)
(-0.0383944 -0.0102611 0)
(-0.0369479 -0.012029 0)
(-0.0353068 -0.0136276 0)
(-0.0334865 -0.0150321 0)
(-0.0314994 -0.0162225 0)
(-0.0293491 -0.0171825 0)
(-0.0270414 -0.0178968 0)
(-0.0245822 -0.018352 0)
(-0.0219917 -0.0185351 0)
(-0.019299 -0.0184389 0)
(-0.0165543 -0.0180613 0)
(-0.0138158 -0.0174131 0)
(-0.0111577 -0.0165143 0)
(-0.00864853 -0.015402 0)
(-0.00635892 -0.0141189 0)
(-0.00433592 -0.0127199 0)
(-0.0026179 -0.0112532 0)
(-0.00121009 -0.00976946 0)
(-0.000111201 -0.00829861 0)
(0.000709499 -0.00686646 0)
(0.00127542 -0.00547235 0)
(0.00163052 -0.00411573 0)
(0.00179554 -0.00277723 0)
(0.0018093 -0.00145741 0)
(0.00167785 -0.000162878 0)
(0.00143724 0.00103949 0)
(0.00109174 0.00203535 0)
(0.000704522 0.00260178 0)
(0.000314164 0.0024568 0)
(4.82041e-05 0.00125054 0)
(-0.000174202 0.00454895 0)
(-0.00117424 0.0108183 0)
(-0.00281834 0.0148559 0)
(-0.00475085 0.0173102 0)
(-0.00693236 0.0187025 0)
(-0.00917516 0.0194246 0)
(-0.0115054 0.0197297 0)
(-0.0138242 0.0197834 0)
(-0.016171 0.0196756 0)
(-0.0184855 0.0194585 0)
(-0.0208001 0.0191513 0)
(-0.0230717 0.0187619 0)
(-0.0253213 0.0182845 0)
(-0.0275139 0.0177122 0)
(-0.0296594 0.0170323 0)
(-0.0317265 0.0162335 0)
(-0.0337156 0.0153022 0)
(-0.0355961 0.0142272 0)
(-0.0373597 0.0129971 0)
(-0.0389748 0.0116039 0)
(-0.0404258 0.0100419 0)
(-0.0416799 0.00831064 0)
(-0.0427172 0.00641435 0)
(-0.0435072 0.00436523 0)
(-0.0440331 0.00218337 0)
(-0.0442766 -0.000101072 0)
(-0.0442375 -0.00244882 0)
(-0.0439226 -0.00481243 0)
(-0.0433578 -0.00714058 0)
(-0.042574 -0.009383 0)
(-0.0416091 -0.0114962 0)
(-0.0404902 -0.0134473 0)
(-0.0392328 -0.0152149 0)
(-0.0378281 -0.0167864 0)
(-0.0362511 -0.0181532 0)
(-0.034459 -0.019305 0)
(-0.03241 -0.0202248 0)
(-0.0300676 -0.0208885 0)
(-0.0274214 -0.021265 0)
(-0.0244866 -0.021324 0)
(-0.0213194 -0.0210395 0)
(-0.0180028 -0.0204029 0)
(-0.0146536 -0.019422 0)
(-0.0113934 -0.0181333 0)
(-0.00835163 -0.0165896 0)
(-0.00562876 -0.0148672 0)
(-0.00330696 -0.0130404 0)
(-0.00141737 -0.0111892 0)
(3.13696e-05 -0.00936686 0)
(0.00107747 -0.00761818 0)
(0.00176133 -0.00595019 0)
(0.00215138 -0.00436449 0)
(0.00229189 -0.00283551 0)
(0.00224461 -0.00135739 0)
(0.00203156 7.04017e-05 0)
(0.00170326 0.00138043 0)
(0.0012708 0.00245016 0)
(0.00080753 0.0030348 0)
(0.000355282 0.00282161 0)
(5.39658e-05 0.0014231 0)
(-0.000179262 0.00515049 0)
(-0.00120399 0.0121866 0)
(-0.00288551 0.0166897 0)
(-0.00486104 0.0194117 0)
(-0.00709126 0.0209516 0)
(-0.00938567 0.0217488 0)
(-0.0117723 0.0220891 0)
(-0.0141513 0.0221541 0)
(-0.0165643 0.0220444 0)
(-0.0189508 0.0218155 0)
(-0.0213452 0.0214891 0)
(-0.0237044 0.0210721 0)
(-0.026051 0.0205588 0)
(-0.0283501 0.01994 0)
(-0.030613 0.0192018 0)
(-0.032808 0.0183305 0)
(-0.0349359 0.0173104 0)
(-0.036965 0.0161276 0)
(-0.0388865 0.0147683 0)
(-0.0406666 0.0132219 0)
(-0.0422875 0.0114807 0)
(-0.0437137 0.00954262 0)
(-0.0449233 0.00741286 0)
(-0.045886 0.00510698 0)
(-0.0465899 0.00265293 0)
(-0.0470292 9.32768e-05 0)
(-0.0472256 -0.00251628 0)
(-0.0472166 -0.0051112 0)
(-0.0470636 -0.00762713 0)
(-0.0468285 -0.0100103 0)
(-0.0465666 -0.0122267 0)
(-0.0462983 -0.0142656 0)
(-0.0460053 -0.0161359 0)
(-0.0456187 -0.0178565 0)
(-0.0450346 -0.019443 0)
(-0.0441226 -0.0208963 0)
(-0.0427556 -0.0221933 0)
(-0.0408243 -0.0232871 0)
(-0.0382667 -0.0241093 0)
(-0.0350724 -0.0245832 0)
(-0.0313023 -0.0246339 0)
(-0.0270739 -0.0242088 0)
(-0.0225675 -0.0232843 0)
(-0.0179902 -0.0218833 0)
(-0.0135713 -0.0200661 0)
(-0.00951078 -0.0179378 0)
(-0.00597905 -0.0156157 0)
(-0.00306954 -0.0132315 0)
(-0.000824091 -0.0108855 0)
(0.000794787 -0.00866129 0)
(0.00184934 -0.0065863 0)
(0.00244624 -0.00467043 0)
(0.0026712 -0.00288118 0)
(0.00262667 -0.00120193 0)
(0.00236607 0.000381255 0)
(0.00196594 0.00180637 0)
(0.00145226 0.00294669 0)
(0.00091361 0.00353789 0)
(0.000398114 0.00323609 0)
(6.00491e-05 0.00161583 0)
(-0.0001831 0.00576111 0)
(-0.00122865 0.0135769 0)
(-0.00294278 0.0185535 0)
(-0.00495618 0.0215483 0)
(-0.00723018 0.0232401 0)
(-0.00957193 0.0241167 0)
(-0.0120116 0.0244972 0)
(-0.0144486 0.0245793 0)
(-0.0169268 0.0244745 0)
(-0.0193858 0.0242418 0)
(-0.0218622 0.0239053 0)
(-0.0243132 0.023471 0)
(-0.0267634 0.0229329 0)
(-0.0291783 0.0222795 0)
(-0.0315706 0.0214955 0)
(-0.0339087 0.0205643 0)
(-0.0361942 0.019468 0)
(-0.0383948 0.0181892 0)
(-0.0405009 0.0167111 0)
(-0.0424771 0.0150197 0)
(-0.0443042 0.0131051 0)
(-0.0459453 0.0109647 0)
(-0.0473805 0.00860677 0)
(-0.0485874 0.006056 0)
(-0.0495733 0.0033573 0)
(-0.0503661 0.000577718 0)
(-0.051038 -0.00219854 0)
(-0.0516874 -0.00488287 0)
(-0.0524346 -0.00740128 0)
(-0.0533808 -0.00971348 0)
(-0.0545845 -0.0118237 0)
(-0.0560249 -0.0137786 0)
(-0.057599 -0.0156512 0)
(-0.0591207 -0.0175173 0)
(-0.060352 -0.0194297 0)
(-0.0610286 -0.0213998 0)
(-0.0609032 -0.0233859 0)
(-0.0597698 -0.0252966 0)
(-0.0574984 -0.0269978 0)
(-0.0540433 -0.0283343 0)
(-0.0494646 -0.0291479 0)
(-0.0439162 -0.0293077 0)
(-0.037653 -0.0287258 0)
(-0.0309933 -0.0273866 0)
(-0.0243079 -0.0253432 0)
(-0.0179544 -0.0227314 0)
(-0.0122582 -0.0197297 0)
(-0.00744023 -0.0165553 0)
(-0.00362698 -0.0133952 0)
(-0.000810873 -0.0104111 0)
(0.00108702 -0.00767943 0)
(0.00222545 -0.00523481 0)
(0.00275711 -0.00304089 0)
(0.0028533 -0.00106504 0)
(0.00262542 0.000730049 0)
(0.0021966 0.00229861 0)
(0.00162293 0.00351799 0)
(0.00101774 0.00411028 0)
(0.000441506 0.00370201 0)
(6.64312e-05 0.00183057 0)
(-0.000187085 0.00639046 0)
(-0.0012509 0.0150022 0)
(-0.00299292 0.0204607 0)
(-0.00503925 0.0237342 0)
(-0.0073519 0.0255825 0)
(-0.00973665 0.0265436 0)
(-0.0122255 0.0269696 0)
(-0.0147179 0.0270752 0)
(-0.0172599 0.026983 0)
(-0.0197916 0.0267553 0)
(-0.0223518 0.0264188 0)
(-0.0248986 0.0259786 0)
(-0.0274586 0.0254283 0)
(-0.0299982 0.0247543 0)
(-0.0325318 0.0239394 0)
(-0.0350287 0.022964 0)
(-0.0374912 0.0218073 0)
(-0.0398871 0.0204479 0)
(-0.0422067 0.0188657 0)
(-0.0444138 0.017043 0)
(-0.0464897 0.0149684 0)
(-0.0484007 0.0126415 0)
(-0.0501378 0.0100811 0)
(-0.0517037 0.00733325 0)
(-0.0531524 0.00447816 0)
(-0.0545838 0.00162771 0)
(-0.056163 -0.00109049 0)
(-0.0580835 -0.00356394 0)
(-0.0605367 -0.00573089 0)
(-0.0636433 -0.00760732 0)
(-0.067414 -0.00929041 0)
(-0.0717142 -0.0109377 0)
(-0.0762794 -0.0127266 0)
(-0.0807402 -0.0148098 0)
(-0.0846791 -0.017277 0)
(-0.0876745 -0.0201339 0)
(-0.089353 -0.0232947 0)
(-0.0894139 -0.0265932 0)
(-0.0876608 -0.0297992 0)
(-0.0840069 -0.0326472 0)
(-0.0784969 -0.0348613 0)
(-0.0713003 -0.0361938 0)
(-0.0627269 -0.0364506 0)
(-0.0531989 -0.0355341 0)
(-0.0432436 -0.0334541 0)
(-0.0334228 -0.0303566 0)
(-0.0242939 -0.0264871 0)
(-0.016303 -0.0221828 0)
(-0.00975684 -0.0177752 0)
(-0.00475111 -0.0135714 0)
(-0.00122587 -0.00975487 0)
(0.00103037 -0.0064243 0)
(0.00226504 -0.00355439 0)
(0.00275707 -0.00109392 0)
(0.00271662 0.00103197 0)
(0.00234684 0.00281136 0)
(0.00175995 0.00414124 0)
(0.00111067 0.00474185 0)
(0.000482905 0.00421588 0)
(7.2939e-05 0.0020668 0)
(-0.00018961 0.00702194 0)
(-0.00126759 0.0164369 0)
(-0.00303281 0.0223832 0)
(-0.00510726 0.0259401 0)
(-0.00745412 0.02795 0)
(-0.00987805 0.0290011 0)
(-0.0124131 0.0294795 0)
(-0.0149588 0.0296168 0)
(-0.0175635 0.0295467 0)
(-0.0201682 0.0293352 0)
(-0.0228138 0.0290116 0)
(-0.02546 0.0285802 0)
(-0.0281354 0.028034 0)
(-0.0308081 0.0273572 0)
(-0.0334945 0.0265308 0)
(-0.0361652 0.0255314 0)
(-0.0388242 0.0243354 0)
(-0.04144 0.0229169 0)
(-0.044004 0.0212521 0)
(-0.0464815 0.0193202 0)
(-0.0488587 0.0171118 0)
(-0.0511146 0.0146367 0)
(-0.0532697 0.0119395 0)
(-0.0553833 0.00911248 0)
(-0.0576016 0.0063015 0)
(-0.0601502 0.00368937 0)
(-0.0633307 0.00145363 0)
(-0.0674463 -0.00029527 0)
(-0.072728 -0.00156758 0)
(-0.0792392 -0.00251588 0)
(-0.0868391 -0.00340922 0)
(-0.0951767 -0.00457257 0)
(-0.10375 -0.00631041 0)
(-0.111969 -0.00884328 0)
(-0.119247 -0.0122669 0)
(-0.125039 -0.016542 0)
(-0.128894 -0.0215031 0)
(-0.130457 -0.0268828 0)
(-0.129487 -0.0323366 0)
(-0.125852 -0.0374746 0)
(-0.119553 -0.0418859 0)
(-0.110721 -0.0451788 0)
(-0.0996525 -0.0470101 0)
(-0.0868052 -0.0471425 0)
(-0.0728129 -0.0454748 0)
(-0.0584347 -0.0421005 0)
(-0.0445088 -0.0372952 0)
(-0.0318178 -0.0315233 0)
(-0.0209963 -0.0253198 0)
(-0.0123902 -0.0192351 0)
(-0.00606133 -0.0136645 0)
(-0.0017868 -0.00885557 0)
(0.000790001 -0.00483826 0)
(0.00210053 -0.0015523 0)
(0.0025101 0.00113021 0)
(0.00235185 0.00325741 0)
(0.00183489 0.00477149 0)
(0.00118243 0.00541234 0)
(0.000520369 0.00477094 0)
(7.96013e-05 0.0023243 0)
(-0.000192267 0.00767121 0)
(-0.00128132 0.0179029 0)
(-0.00306424 0.0243446 0)
(-0.00516122 0.028191 0)
(-0.0075365 0.0303683 0)
(-0.00999459 0.0315157 0)
(-0.0125712 0.0320537 0)
(-0.0151667 0.032231 0)
(-0.0178313 0.0321929 0)
(-0.0205076 0.0320091 0)
(-0.0232387 0.0317117 0)
(-0.0259861 0.0313043 0)
(-0.028781 0.0307797 0)
(-0.0315936 0.0301195 0)
(-0.0344428 0.0293029 0)
(-0.0373014 0.0283031 0)
(-0.0401758 0.0270928 0)
(-0.0430366 0.0256419 0)
(-0.0458783 0.0239236 0)
(-0.0486722 0.0219173 0)
(-0.0514178 0.0196232 0)
(-0.054125 0.0170785 0)
(-0.0568759 0.0143832 0)
(-0.0598354 0.0117158 0)
(-0.063303 0.00932734 0)
(-0.0676815 0.00748881 0)
(-0.0734235 0.00640038 0)
(-0.0808939 0.00609152 0)
(-0.0902527 0.00636729 0)
(-0.101361 0.00682706 0)
(-0.113789 0.00695495 0)
(-0.126883 0.00623837 0)
(-0.139885 0.00427699 0)
(-0.152042 0.000845404 0)
(-0.162686 -0.0040892 0)
(-0.171257 -0.0103907 0)
(-0.177316 -0.0177857 0)
(-0.180523 -0.0259028 0)
(-0.180631 -0.034295 0)
(-0.177467 -0.0424679 0)
(-0.170952 -0.0498913 0)
(-0.161106 -0.056032 0)
(-0.148099 -0.0603743 0)
(-0.132283 -0.0624849 0)
(-0.114255 -0.0620593 0)
(-0.0948515 -0.0590225 0)
(-0.0751429 -0.0535642 0)
(-0.0563058 -0.046204 0)
(-0.0394677 -0.0376893 0)
(-0.0254654 -0.0289161 0)
(-0.0147075 -0.0206551 0)
(-0.00710337 -0.0134661 0)
(-0.00222229 -0.00754343 0)
(0.000557199 -0.00286136 0)
(0.00182788 0.00076965 0)
(0.00212318 0.00349213 0)
(0.00180949 0.00533294 0)
(0.00122005 0.00608659 0)
(0.000551518 0.00535486 0)
(8.66044e-05 0.00260191 0)
(-0.000192966 0.00831389 0)
(-0.00128782 0.0193632 0)
(-0.00308251 0.0263042 0)
(-0.00519607 0.0304445 0)
(-0.00759424 0.0327949 0)
(-0.0100815 0.0340454 0)
(-0.0126952 0.0346512 0)
(-0.0153367 0.0348785 0)
(-0.0180582 0.0348843 0)
(-0.0208038 0.0347422 0)
(-0.0236194 0.0344874 0)
(-0.0264683 0.0341227 0)
(-0.029385 0.0336409 0)
(-0.032342 0.0330213 0)
(-0.0353618 0.0322413 0)
(-0.0384201 0.0312703 0)
(-0.0415269 0.0300781 0)