/*--------------------------------*- C++ -*----------------------------------*\
| =========                 |                                                 |
| \\      /  F ield         | OpenFOAM: The Open Source CFD Toolbox           |
|  \\    /   O peration     | Version:  2406                                  |
|   \\  /    A nd           | Website:  www.openfoam.com                      |
|    \\/     M anipulation  |                                                 |
\*---------------------------------------------------------------------------*/
FoamFile
{
    version     2.0;
    format      ascii;
    arch        "LSB;label=32;scalar=64";
    class       volVectorField;
    location    "47.9";
    object      Uold;
}
// * * * * * * * * * * * * * * * * * * * * * * * * * * * * * * * * * * * * * //

dimensions      [0 1 -1 0 0 0 0];

internalField   nonuniform List<vector> 
3600
(
(-2.35497e-05 1.15537e-05 0)
(0.000419553 -0.000222039 0)
(0.00136939 -0.000352554 0)
(0.00245299 -0.000375659 0)
(0.0034781 -0.000299514 0)
(0.00419746 -0.000194778 0)
(0.00464307 -9.74881e-05 0)
(0.00481136 -3.95274e-05 0)
(0.00484401 -1.99624e-05 0)
(0.00478446 -2.80978e-05 0)
(0.00469817 -4.16858e-05 0)
(0.0045422 -4.27681e-05 0)
(0.0042706 -1.88966e-05 0)
(0.00378162 3.36776e-05 0)
(0.00299026 0.00011512 0)
(0.00179331 0.000225193 0)
(0.000104213 0.000365744 0)
(-0.00216938 0.000536644 0)
(-0.00510349 0.000729781 0)
(-0.00876678 0.000931496 0)
(-0.0131991 0.0011353 0)
(-0.0184008 0.00134938 0)
(-0.0243058 0.00158633 0)
(-0.0307714 0.00184219 0)
(-0.0375662 0.00208351 0)
(-0.0443766 0.00225353 0)
(-0.0508221 0.00229109 0)
(-0.0564871 0.00214896 0)
(-0.0609559 0.00180365 0)
(-0.0638472 0.00125699 0)
(-0.0648428 0.000533 0)
(-0.0637109 -0.000326045 0)
(-0.0603256 -0.00126347 0)
(-0.0546831 -0.00221117 0)
(-0.0469163 -0.00309308 0)
(-0.037303 -0.00382936 0)
(-0.0262697 -0.00434305 0)
(-0.0143779 -0.0045685 0)
(-0.00230181 -0.00446231 0)
(0.00922655 -0.00401441 0)
(0.0194753 -0.00325688 0)
(0.027807 -0.00226779 0)
(0.0337474 -0.0011645 0)
(0.0370749 -8.81197e-05 0)
(0.0378348 0.000825679 0)
(0.0363569 0.00147524 0)
(0.0331615 0.00182177 0)
(0.0288946 0.0018915 0)
(0.0241653 0.00176236 0)
(0.0195002 0.00152374 0)
(0.0152275 0.00125243 0)
(0.0115518 0.000992256 0)
(0.0084946 0.000768122 0)
(0.00605489 0.000583423 0)
(0.00411013 0.000443748 0)
(0.0026142 0.000335 0)
(0.00143046 0.000253715 0)
(0.000582237 0.000154746 0)
(4.30837e-05 4.10356e-05 0)
(-9.06007e-05 -9.67033e-05 0)
(0.000179051 -0.000397779 0)
(0.00139277 -0.00144503 0)
(0.00344516 -0.0019868 0)
(0.00563228 -0.00202988 0)
(0.00763733 -0.00163994 0)
(0.00902453 -0.00107548 0)
(0.00979912 -0.000511952 0)
(0.00992201 -7.99871e-05 0)
(0.00957451 0.000205541 0)
(0.00879502 0.000397366 0)
(0.00763461 0.000592656 0)
(0.00596928 0.000884858 0)
(0.00364692 0.00133754 0)
(0.000423691 0.00197964 0)
(-0.0039261 0.00281455 0)
(-0.00964288 0.00383331 0)
(-0.016918 0.00501534 0)
(-0.0259051 0.00633115 0)
(-0.0366539 0.00774261 0)
(-0.0490746 0.00919673 0)
(-0.0628804 0.0106035 0)
(-0.0775993 0.0118271 0)
(-0.0926082 0.0127055 0)
(-0.107212 0.0130872 0)
(-0.12072 0.0128591 0)
(-0.132512 0.0119602 0)
(-0.142072 0.0103821 0)
(-0.149006 0.0081632 0)
(-0.153027 0.00537949 0)
(-0.15395 0.00213604 0)
(-0.151676 -0.00143965 0)
(-0.146188 -0.00520057 0)
(-0.137549 -0.00898169 0)
(-0.125911 -0.0125997 0)
(-0.111523 -0.0158556 0)
(-0.0947455 -0.01854 0)
(-0.0760595 -0.0204461 0)
(-0.0560697 -0.0213878 0)
(-0.0355008 -0.0212277 0)
(-0.0151643 -0.0199049 0)
(0.00407447 -0.0174639 0)
(0.0213744 -0.0140699 0)
(0.0359714 -0.0100068 0)
(0.0472808 -0.00565163 0)
(0.0549268 -0.00142252 0)
(0.0588303 0.00228149 0)
(0.059176 0.00515569 0)
(0.0564619 0.00703336 0)
(0.051374 0.00792059 0)
(0.0447759 0.00796379 0)
(0.0374776 0.00740801 0)
(0.030232 0.00650598 0)
(0.0235041 0.00548239 0)
(0.0176322 0.0044796 0)
(0.012645 0.00359713 0)
(0.00859074 0.00284058 0)
(0.0052919 0.00220803 0)
(0.00279794 0.00155951 0)
(0.000994192 0.000876585 0)
(9.47124e-05 7.22864e-05 0)
(0.000314877 -0.00130076 0)
(0.00202858 -0.00352874 0)
(0.00474481 -0.00459888 0)
(0.00744834 -0.00454215 0)
(0.00976359 -0.00359019 0)
(0.0111595 -0.00222608 0)
(0.0116409 -0.000832055 0)
(0.0111344 0.000349546 0)
(0.00979229 0.00128375 0)
(0.0075792 0.00209937 0)
(0.00444648 0.00300532 0)
(0.000141697 0.00421003 0)
(-0.00561776 0.00584828 0)
(-0.0131929 0.00797885 0)
(-0.0228912 0.01059 0)
(-0.0349743 0.0136267 0)
(-0.0495402 0.0169858 0)
(-0.0664665 0.0205033 0)
(-0.085322 0.0239202 0)
(-0.105409 0.0269002 0)
(-0.125853 0.0290974 0)
(-0.145761 0.0302407 0)
(-0.164332 0.030175 0)
(-0.180936 0.028861 0)
(-0.195114 0.0263459 0)
(-0.206566 0.0227325 0)
(-0.215109 0.018153 0)
(-0.220643 0.0127557 0)
(-0.223117 0.00669642 0)
(-0.22251 0.0001398 0)
(-0.218819 -0.00673891 0)
(-0.212058 -0.0137463 0)
(-0.202264 -0.0206644 0)
(-0.189511 -0.0272432 0)
(-0.173932 -0.0331993 0)
(-0.155742 -0.038219 0)
(-0.135264 -0.0419756 0)
(-0.112947 -0.0441552 0)
(-0.089379 -0.0444996 0)
(-0.0652778 -0.0428521 0)
(-0.0414666 -0.0392095 0)
(-0.0188102 -0.0337516 0)
(0.00183848 -0.026852 0)
(0.0197385 -0.019045 0)
(0.0342926 -0.0109638 0)
(0.0451319 -0.00326002 0)
(0.0520823 0.00348593 0)
(0.0552438 0.00882553 0)
(0.0549177 0.012508 0)
(0.0516985 0.0144942 0)
(0.0463091 0.0149698 0)
(0.039643 0.0142742 0)
(0.0324555 0.0128349 0)
(0.0254607 0.0110409 0)
(0.0190074 0.00921171 0)
(0.0134182 0.00749798 0)
(0.00864055 0.00595597 0)
(0.00485814 0.00440841 0)
(0.0019304 0.00275345 0)
(0.000294049 0.000784705 0)
(0.000409175 -0.00244684 0)
(0.00243475 -0.00597752 0)
(0.00544171 -0.00746277 0)
(0.00814834 -0.00704925 0)
(0.010158 -0.00525915 0)
(0.0109156 -0.00281815 0)
(0.0104552 -0.000314633 0)
(0.00866774 0.00194399 0)
(0.00562411 0.00394573 0)
(0.00114482 0.00593701 0)
(-0.00498869 0.00825441 0)
(-0.0131888 0.0112104 0)
(-0.0238446 0.014971 0)
(-0.0373319 0.0195617 0)
(-0.0538313 0.0248656 0)
(-0.0732696 0.030639 0)
(-0.0951799 0.0364739 0)
(-0.118746 0.0418343 0)
(-0.142924 0.0461618 0)
(-0.166675 0.0490232 0)
(-0.189124 0.0501764 0)
(-0.209644 0.0495669 0)
(-0.227834 0.0472707 0)
(-0.243476 0.0434405 0)
(-0.256466 0.0382583 0)
(-0.266774 0.0319108 0)
(-0.274396 0.0245739 0)
(-0.27934 0.0164124 0)
(-0.281605 0.00758172 0)
(-0.281175 -0.00176223 0)
(-0.278015 -0.0114532 0)
(-0.272078 -0.0212997 0)
(-0.263308 -0.031072 0)
(-0.251661 -0.0404885 0)
(-0.237119 -0.049209 0)
(-0.219724 -0.056834 0)
(-0.199607 -0.0629209 0)
(-0.177028 -0.0670145 0)
(-0.152408 -0.0687028 0)
(-0.126346 -0.0676825 0)
(-0.0996186 -0.0638386 0)
(-0.0731288 -0.057301 0)
(-0.0478426 -0.048476 0)
(-0.0246637 -0.0380107 0)
(-0.00435578 -0.0267126 0)
(0.0125601 -0.0154313 0)
(0.0257688 -0.00494696 0)
(0.0351931 0.00409642 0)
(0.0408812 0.0112423 0)
(0.0431072 0.0162335 0)
(0.0422654 0.0190555 0)
(0.0390208 0.0199223 0)
(0.0340596 0.0192547 0)
(0.0282182 0.0175619 0)
(0.0220686 0.0153526 0)
(0.0162248 0.0129821 0)
(0.0108494 0.010636 0)
(0.00634915 0.00819235 0)
(0.00265405 0.00543481 0)
(0.000454409 0.00197334 0)
(0.000473151 -0.00382695 0)
(0.00264823 -0.00870831 0)
(0.00562404 -0.0103943 0)
(0.00789719 -0.00926227 0)
(0.00906759 -0.00626229 0)
(0.00860544 -0.00238681 0)
(0.00657825 0.00158155 0)
(0.00283083 0.00534167 0)
(-0.00269432 0.00896809 0)
(-0.01036 0.0128718 0)
(-0.0205646 0.0175079 0)
(-0.0338125 0.0232317 0)
(-0.0504338 0.0301248 0)
(-0.0705236 0.0380088 0)
(-0.0937313 0.0464179 0)
(-0.119269 0.0546655 0)
(-0.145998 0.0619562 0)
(-0.17272 0.0676043 0)
(-0.198406 0.0711649 0)
(-0.222329 0.0724665 0)
(-0.244044 0.0715427 0)
(-0.26333 0.0685595 0)
(-0.280106 0.0637421 0)
(-0.294375 0.0573345 0)
(-0.306182 0.0495667 0)
(-0.315586 0.0406466 0)
(-0.322647 0.0307523 0)
(-0.327413 0.0200397 0)
(-0.329913 0.0086472 0)
(-0.330147 -0.00328942 0)
(-0.328084 -0.0156258 0)
(-0.323653 -0.028189 0)
(-0.316751 -0.0407619 0)
(-0.307241 -0.0530609 0)
(-0.294968 -0.064723 0)
(-0.279784 -0.0752937 0)
(-0.261584 -0.0842358 0)
(-0.240357 -0.0909529 0)
(-0.216247 -0.0948478 0)
(-0.189615 -0.0954035 0)
(-0.161086 -0.0922944 0)
(-0.131551 -0.0854899 0)
(-0.102121 -0.075337 0)
(-0.0739901 -0.0625586 0)
(-0.0482766 -0.0481696 0)
(-0.0258205 -0.0332981 0)
(-0.00712496 -0.0189982 0)
(0.00767336 -0.00611908 0)
(0.0186186 0.00473599 0)
(0.0259246 0.0131791 0)
(0.0298238 0.0190402 0)
(0.0307519 0.0223712 0)
(0.0291811 0.0234672 0)
(0.0258385 0.0228146 0)
(0.0213102 0.0209898 0)
(0.0163524 0.0185083 0)
(0.0113036 0.015682 0)
(0.00679057 0.0124968 0)
(0.00288897 0.00861704 0)
(0.000503214 0.00345903 0)
(0.00052655 -0.00528432 0)
(0.00268653 -0.0113355 0)
(0.00525819 -0.0128231 0)
(0.00661549 -0.0105012 0)
(0.00639291 -0.00587713 0)
(0.0041403 -0.000205281 0)
(-6.82321e-05 0.00559952 0)
(-0.00646682 0.0113458 0)
(-0.0152941 0.0172634 0)
(-0.0270879 0.0239293 0)
(-0.0423301 0.0318198 0)
(-0.0613845 0.041149 0)
(-0.0841719 0.0516601 0)
(-0.110119 0.062698 0)
(-0.138136 0.0732979 0)
(-0.166894 0.0824732 0)
(-0.195126 0.0894435 0)
(-0.221868 0.0937836 0)
(-0.246497 0.0953804 0)
(-0.268687 0.0943524 0)
(-0.288305 0.0909397 0)
(-0.30535 0.0854409 0)
(-0.319893 0.0781569 0)
(-0.332053 0.0693716 0)
(-0.341968 0.0593315 0)
(-0.349788 0.0482464 0)
(-0.355656 0.0362845 0)
(-0.3597 0.0235825 0)
(-0.362018 0.0102491 0)
(-0.362673 -0.00361868 0)
(-0.361675 -0.0179243 0)
(-0.358978 -0.0325487 0)
(-0.354468 -0.0473317 0)
(-0.347958 -0.062043 0)
(-0.339188 -0.0763601 0)
(-0.327838 -0.0898417 0)
(-0.313552 -0.10192 0)
(-0.295988 -0.111903 0)
(-0.274897 -0.119021 0)
(-0.250214 -0.122498 0)
(-0.222178 -0.121685 0)
(-0.191413 -0.11621 0)
(-0.158978 -0.106139 0)
(-0.126293 -0.0920705 0)
(-0.0949667 -0.0751262 0)
(-0.0664786 -0.0567662 0)
(-0.0419093 -0.0384965 0)
(-0.0217297 -0.0215668 0)
(-0.00592865 -0.00682114 0)
(0.00583333 0.00526086 0)
(0.0138999 0.01446 0)
(0.0186917 0.0207475 0)
(0.0205643 0.024293 0)
(0.0200959 0.0254822 0)
(0.0177799 0.0248419 0)
(0.0143712 0.0229448 0)
(0.0103004 0.0201654 0)
(0.00633717 0.0165834 0)
(0.00272163 0.0117546 0)
(0.00046969 0.00493951 0)
(0.000553905 -0.00680286 0)
(0.00247697 -0.0136722 0)
(0.00422328 -0.0144313 0)
(0.00418471 -0.0103869 0)
(0.00206157 -0.00369449 0)
(-0.00248519 0.00417915 0)
(-0.00943296 0.0122831 0)
(-0.0191242 0.0206343 0)
(-0.0319781 0.0296351 0)
(-0.0485753 0.0399264 0)
(-0.0692249 0.0517773 0)
(-0.0937935 0.0649631 0)
(-0.121497 0.0786382 0)
(-0.151063 0.0916415 0)
(-0.181012 0.102789 0)
(-0.210042 0.111231 0)
(-0.237208 0.116525 0)
(-0.261942 0.118608 0)
(-0.283957 0.117651 0)
(-0.303169 0.113964 0)
(-0.319623 0.107908 0)
(-0.333454 0.0998604 0)
(-0.34486 0.0901709 0)
(-0.354073 0.0791552 0)
(-0.361342 0.0670742 0)
(-0.366914 0.0541384 0)
(-0.37102 0.0405019 0)
(-0.373858 0.0262755 0)
(-0.375592 0.0115302 0)
(-0.376335 -0.00368373 0)
(-0.376151 -0.0193277 0)
(-0.375036 -0.0353503 0)
(-0.37291 -0.0516711 0)
(-0.369604 -0.0681479 0)
(-0.364843 -0.0845518 0)
(-0.358231 -0.100527 0)
(-0.349262 -0.115567 0)
(-0.33733 -0.128984 0)
(-0.321799 -0.139927 0)
(-0.302094 -0.147416 0)
(-0.277853 -0.150458 0)
(-0.249103 -0.148209 0)
(-0.216429 -0.140204 0)
(-0.181066 -0.126574 0)
(-0.144858 -0.108204 0)
(-0.109978 -0.086688 0)
(-0.0784897 -0.0640579 0)
(-0.0518101 -0.0422908 0)
(-0.0304725 -0.0228572 0)
(-0.0141838 -0.0065508 0)
(-0.00233377 0.00636477 0)
(0.00576698 0.0159113 0)
(0.0106122 0.0222612 0)
(0.0127657 0.0257503 0)
(0.0126627 0.0268266 0)
(0.0109961 0.0260431 0)
(0.00822709 0.0237632 0)
(0.00517483 0.0201088 0)
(0.00221668 0.0145485 0)
(0.00036408 0.00624983 0)
(0.000532528 -0.00818098 0)
(0.00191668 -0.0152554 0)
(0.00235014 -0.0146311 0)
(0.000432451 -0.00831525 0)
(-0.00406306 0.000872865 0)
(-0.0113524 0.0113591 0)
(-0.0215355 0.0222738 0)
(-0.0350484 0.033889 0)
(-0.0523901 0.0466829 0)
(-0.073917 0.0611121 0)
(-0.0994429 0.0769237 0)
(-0.128105 0.0932399 0)
(-0.158488 0.108681 0)
(-0.189011 0.12192 0)
(-0.218304 0.13197 0)
(-0.245397 0.13837 0)
(-0.269712 0.141056 0)
(-0.290967 0.140256 0)
(-0.3091 0.13634 0)
(-0.324204 0.129763 0)
(-0.336494 0.120989 0)
(-0.346259 0.11047 0)
(-0.35384 0.0985993 0)
(-0.359583 0.08571 0)
(-0.363829 0.0720565 0)
(-0.366883 0.057827 0)
(-0.369014 0.0431403 0)
(-0.370442 0.0280667 0)
(-0.371349 0.0126312 0)
(-0.37187 -0.00316546 0)
(-0.372097 -0.0193411 0)
(-0.372073 -0.0359099 0)
(-0.371782 -0.0528727 0)
(-0.371128 -0.0701875 0)
(-0.369918 -0.0877482 0)
(-0.367823 -0.105341 0)
(-0.364353 -0.122609 0)
(-0.358835 -0.138996 0)
(-0.350424 -0.153722 0)
(-0.338152 -0.165764 0)
(-0.321058 -0.173911 0)
(-0.298381 -0.176883 0)
(-0.269831 -0.173557 0)
(-0.235854 -0.163271 0)
(-0.197845 -0.146155 0)
(-0.158115 -0.123365 0)
(-0.119573 -0.097058 0)
(-0.0850204 -0.0699767 0)
(-0.0563866 -0.0447008 0)
(-0.034214 -0.0229537 0)
(-0.0179481 -0.00540938 0)
(-0.00651588 0.00797261 0)
(0.00100456 0.0175153 0)
(0.00541728 0.0236489 0)
(0.00726273 0.0268173 0)
(0.00722116 0.0275427 0)
(0.00578176 0.0261386 0)
(0.00375037 0.0227166 0)
(0.00159951 0.0166918 0)
(0.000242402 0.00721825 0)
(0.000430726 -0.00926135 0)
(0.000910559 -0.0157278 0)
(-0.000456942 -0.013025 0)
(-0.00466499 -0.0039378 0)
(-0.0119014 0.0081404 0)
(-0.0222646 0.0216655 0)
(-0.0360219 0.0359351 0)
(-0.0535978 0.0514054 0)
(-0.0753595 0.0683924 0)
(-0.101138 0.0868491 0)
(-0.130084 0.105805 0)
(-0.160709 0.123815 0)
(-0.191351 0.139319 0)
(-0.220539 0.151212 0)
(-0.247243 0.158918 0)
(-0.270829 0.162378 0)
(-0.291009 0.161835 0)
(-0.307735 0.15775 0)
(-0.321169 0.150669 0)
(-0.331609 0.141181 0)
(-0.339458 0.129837 0)
(-0.345153 0.117134 0)
(-0.349135 0.103472 0)
(-0.351805 0.0891612 0)
(-0.353515 0.0744155 0)
(-0.354554 0.0593749 0)
(-0.355159 0.0441085 0)
(-0.35551 0.0286421 0)
(-0.355754 0.0129604 0)
(-0.356003 -0.00297018 0)
(-0.356346 -0.0192018 0)
(-0.356848 -0.0357861 0)
(-0.357546 -0.0527741 0)
(-0.358437 -0.070194 0)
(-0.359453 -0.0880418 0)
(-0.360427 -0.106245 0)
(-0.361048 -0.12463 0)
(-0.360798 -0.14286 0)
(-0.358918 -0.160379 0)
(-0.354369 -0.17634 0)
(-0.345884 -0.189575 0)
(-0.332083 -0.198621 0)
(-0.311738 -0.201861 0)
(-0.284119 -0.197788 0)
(-0.249432 -0.185427 0)
(-0.209144 -0.16481 0)
(-0.166081 -0.137359 0)
(-0.123988 -0.105904 0)
(-0.0866033 -0.0740982 0)
(-0.0564047 -0.0452815 0)
(-0.0339573 -0.0214318 0)
(-0.0182321 -0.00299702 0)
(-0.00775883 0.0104696 0)
(-0.00119938 0.0196704 0)
(0.00235006 0.0252243 0)
(0.0037096 0.0277097 0)
(0.00345939 0.0274233 0)
(0.00238438 0.0244499 0)
(0.00101604 0.0182004 0)
(0.000132792 0.00787465 0)
(0.000216627 -0.00972681 0)
(-0.0006118 -0.0145682 0)
(-0.00422953 -0.00910843 0)
(-0.011046 0.00316657 0)
(-0.0212801 0.0184784 0)
(-0.0349055 0.0354355 0)
(-0.0523376 0.0535006 0)
(-0.0737939 0.073105 0)
(-0.0992796 0.0941007 0)
(-0.127939 0.115729 0)
(-0.158371 0.136382 0)
(-0.18879 0.154382 0)
(-0.217664 0.168362 0)
(-0.243817 0.177645 0)
(-0.266579 0.182082 0)
(-0.285602 0.181963 0)
(-0.300887 0.17781 0)
(-0.31264 0.170304 0)
(-0.321276 0.160154 0)
(-0.327291 0.148052 0)
(-0.331234 0.134589 0)
(-0.333612 0.120249 0)
(-0.334883 0.105383 0)
(-0.335413 0.0902364 0)
(-0.335496 0.0749496 0)
(-0.33534 0.0595974 0)
(-0.335108 0.0441936 0)
(-0.334905 0.0287228 0)
(-0.334823 0.0131397 0)
(-0.334925 -0.0026081 0)
(-0.335279 -0.0185865 0)
(-0.335943 -0.0348589 0)
(-0.336982 -0.0514936 0)
(-0.338445 -0.0685495 0)
(-0.34037 -0.0860786 0)
(-0.342742 -0.104103 0)
(-0.345464 -0.122598 0)
(-0.348289 -0.141443 0)
(-0.350753 -0.160365 0)
(-0.35208 -0.178839 0)
(-0.351132 -0.196003 0)
(-0.34639 -0.210571 0)
(-0.336084 -0.220825 0)
(-0.318465 -0.224745 0)
(-0.292278 -0.220332 0)
(-0.257353 -0.206154 0)
(-0.215165 -0.182036 0)
(-0.169039 -0.149669 0)
(-0.12371 -0.112722 0)
(-0.0839578 -0.0760221 0)
(-0.0528703 -0.0438187 0)
(-0.0308004 -0.0182742 0)
(-0.0161909 0.000572435 0)
(-0.0070183 0.0136949 0)
(-0.00172233 0.0221096 0)
(0.000899552 0.0266396 0)
(0.00165348 0.0276864 0)
(0.0013625 0.0253541 0)
(0.000611173 0.0191119 0)
(6.80441e-05 0.00825018 0)
(-0.000128009 -0.00930462 0)
(-0.00263783 -0.0114165 0)
(-0.00883475 -0.00262422 0)
(-0.0184262 0.0131338 0)
(-0.031745 0.0319454 0)
(-0.048601 0.0526225 0)
(-0.0694677 0.0746775 0)
(-0.0941381 0.0982291 0)
(-0.122131 0.122449 0)
(-0.151962 0.145889 0)
(-0.181975 0.166601 0)
(-0.210406 0.183038 0)
(-0.23605 0.194247 0)
(-0.258057 0.200014 0)
(-0.276106 0.200591 0)
(-0.29015 0.196599 0)
(-0.300509 0.188827 0)
(-0.30765 0.178151 0)
(-0.312206 0.165389 0)
(-0.314786 0.151262 0)
(-0.315988 0.136321 0)
(-0.316283 0.120972 0)
(-0.316059 0.105471 0)
(-0.315577 0.089968 0)
(-0.315029 0.0745211 0)
(-0.31452 0.0591425 0)
(-0.314128 0.0438007 0)
(-0.313887 0.0284538 0)
(-0.313832 0.0130432 0)
(-0.313986 -0.00248549 0)
(-0.314387 -0.0181939 0)
(-0.315077 -0.0341366 0)
(-0.316118 -0.050374 0)
(-0.317577 -0.0669617 0)
(-0.319539 -0.0839622 0)
(-0.322075 -0.101432 0)
(-0.325238 -0.119423 0)
(-0.329005 -0.137954 0)
(-0.333232 -0.156976 0)
(-0.337541 -0.176295 0)
(-0.341225 -0.195468 0)
(-0.343119 -0.213658 0)
(-0.341552 -0.2295 0)
(-0.334408 -0.241032 0)
(-0.319431 -0.245785 0)
(-0.294774 -0.241162 0)
(-0.259809 -0.225134 0)
(-0.215936 -0.197226 0)
(-0.167036 -0.159452 0)
(-0.11894 -0.116591 0)
(-0.0776166 -0.0749641 0)
(-0.046584 -0.0398316 0)
(-0.0257363 -0.0132785 0)
(-0.0127371 0.00532478 0)
(-0.00517706 0.017485 0)
(-0.00118904 0.0245274 0)
(0.000464439 0.0271764 0)
(0.00077746 0.0256843 0)
(0.000425633 0.0196597 0)
(5.25543e-05 0.00849972 0)
(-0.000608648 -0.00765259 0)
(-0.0051027 -0.00590053 0)
(-0.0140654 0.00666492 0)
(-0.0264476 0.0260809 0)
(-0.0427597 0.0485532 0)
(-0.0625649 0.0730425 0)
(-0.0862747 0.0989137 0)
(-0.113112 0.12572 0)
(-0.142152 0.151923 0)
(-0.171493 0.175606 0)
(-0.199528 0.194841 0)
(-0.22471 0.20845 0)
(-0.246225 0.215979 0)
(-0.263551 0.217667 0)
(-0.276738 0.214154 0)
(-0.286056 0.206383 0)
(-0.292129 0.195369 0)
(-0.295613 0.18211 0)
(-0.297254 0.167438 0)
(-0.297658 0.152011 0)
(-0.297362 0.136271 0)
(-0.296718 0.120503 0)
(-0.295998 0.104844 0)
(-0.295333 0.0893504 0)
(-0.294815 0.074009 0)
(-0.29446 0.0587857 0)
(-0.294286 0.0436217 0)
(-0.294275 0.0284639 0)
(-0.294433 0.0132526 0)
(-0.294752 -0.0020597 0)
(-0.295256 -0.0175234 0)
(-0.295966 -0.0331779 0)
(-0.296935 -0.0490683 0)
(-0.29822 -0.065234 0)
(-0.299911 -0.0817258 0)
(-0.302101 -0.0985974 0)
(-0.304904 -0.115919 0)
(-0.308412 -0.133764 0)
(-0.312685 -0.152202 0)
(-0.317662 -0.171255 0)
(-0.323082 -0.190825 0)
(-0.328323 -0.21056 0)
(-0.332263 -0.229676 0)
(-0.333136 -0.246749 0)
(-0.328559 -0.259562 0)
(-0.315794 -0.265155 0)
(-0.292403 -0.260219 0)
(-0.257256 -0.242014 0)
(-0.211688 -0.209708 0)
(-0.160225 -0.165823 0)
(-0.110005 -0.116646 0)
(-0.0681976 -0.0704164 0)
(-0.0384388 -0.0332613 0)
(-0.0196324 -0.00671461 0)
(-0.00869004 0.0107648 0)
(-0.00285312 0.021207 0)
(-0.000210705 0.025942 0)
(0.000604886 0.0255904 0)
(0.000455909 0.0200104 0)
(8.61276e-05 0.00872597 0)
(-0.0011971 -0.00454752 0)
(-0.00783541 0.00210842 0)
(-0.0195603 0.0187079 0)
(-0.0345689 0.0418068 0)
(-0.0535759 0.0679287 0)
(-0.0757978 0.0960381 0)
(-0.101488 0.125156 0)
(-0.129274 0.154144 0)
(-0.157955 0.180905 0)
(-0.185459 0.20336 0)
(-0.210446 0.219877 0)
(-0.231664 0.22977 0)
(-0.248714 0.2331 0)
(-0.26141 0.230547 0)
(-0.270187 0.223132 0)
(-0.275587 0.21206 0)
(-0.278455 0.198486 0)
(-0.279513 0.183412 0)
(-0.279495 0.167587 0)
(-0.278897 0.151529 0)
(-0.278131 0.135533 0)
(-0.277395 0.119747 0)
(-0.27684 0.104203 0)
(-0.276484 0.0888813 0)
(-0.276349 0.0737241 0)
(-0.276391 0.0586727 0)
(-0.276598 0.0436602 0)
(-0.276927 0.0286356 0)
(-0.277372 0.0135469 0)
(-0.277912 -0.00164128 0)
(-0.278561 -0.0169655 0)
(-0.279327 -0.0324492 0)
(-0.280248 -0.04812 0)
(-0.281364 -0.0639977 0)
(-0.282748 -0.0801127 0)
(-0.284477 -0.0964985 0)
(-0.28667 -0.11321 0)
(-0.289448 -0.130322 0)
(-0.292957 -0.147938 0)
(-0.297308 -0.166176 0)
(-0.302538 -0.185139 0)
(-0.308484 -0.20483 0)
(-0.314634 -0.224998 0)
(-0.31991 -0.244916 0)
(-0.322496 -0.263088 0)
(-0.319767 -0.277019 0)
(-0.308553 -0.283172 0)
(-0.285843 -0.277437 0)
(-0.250046 -0.256245 0)
(-0.202536 -0.218491 0)
(-0.148713 -0.167528 0)
(-0.0972633 -0.111849 0)
(-0.0564722 -0.0619194 0)
(-0.0293435 -0.024233 0)
(-0.0133338 0.000970429 0)
(-0.00472193 0.0162941 0)
(-0.000714759 0.0239505 0)
(0.000667521 0.0252163 0)
(0.000624803 0.020357 0)
(0.000151575 0.00905955 0)
(-0.00185284 0.000189352 0)
(-0.0106524 0.0126598 0)
(-0.0249733 0.033396 0)
(-0.0422969 0.0600753 0)
(-0.0635254 0.0896595 0)
(-0.0874473 0.120925 0)
(-0.114128 0.152417 0)
(-0.14168 0.182325 0)
(-0.168844 0.208256 0)
(-0.193578 0.228244 0)
(-0.214926 0.241141 0)
(-0.231955 0.24679 0)
(-0.244697 0.245774 0)
(-0.253288 0.239193 0)
(-0.258505 0.228394 0)
(-0.261059 0.214738 0)
(-0.26189 0.199396 0)
(-0.261654 0.183265 0)
(-0.260986 0.166936 0)
(-0.26021 0.150752 0)
(-0.259598 0.134857 0)
(-0.259204 0.119281 0)
(-0.259089 0.103979 0)
(-0.259195 0.0888884 0)
(-0.259509 0.073929 0)
(-0.25996 0.0590373 0)
(-0.260532 0.0441505 0)
(-0.261172 0.0292261 0)
(-0.26188 0.0142224 0)
(-0.262631 -0.000885271 0)
(-0.263439 -0.0161229 0)
(-0.264301 -0.0315028 0)
(-0.265248 -0.0470409 0)
(-0.266299 -0.0627434 0)
(-0.267506 -0.0786234 0)
(-0.268916 -0.094693 0)
(-0.270618 -0.110982 0)
(-0.272711 -0.127537 0)
(-0.275342 -0.144443 0)
(-0.278671 -0.161827 0)
(-0.282876 -0.179862 0)
(-0.288066 -0.198732 0)
(-0.29419 -0.218544 0)
(-0.300823 -0.239154 0)
(-0.306936 -0.259863 0)
(-0.310633 -0.279071 0)
(-0.309054 -0.293895 0)
(-0.298592 -0.300127 0)
(-0.275721 -0.292689 0)
(-0.238515 -0.267192 0)
(-0.188629 -0.222431 0)
(-0.132748 -0.16335 0)
(-0.081391 -0.101499 0)
(-0.0435048 -0.0496691 0)
(-0.0203004 -0.0134721 0)
(-0.00758625 0.00893593 0)
(-0.00151385 0.0208411 0)
(0.000714561 0.0244831 0)
(0.000829835 0.0207347 0)
(0.000230039 0.00953951 0)
(-0.00250496 0.00655166 0)
(-0.0133028 0.0255466 0)
(-0.029883 0.0503505 0)
(-0.0490697 0.0803448 0)
(-0.0719097 0.112986 0)
(-0.0967264 0.146689 0)
(-0.123429 0.179498 0)
(-0.149766 0.209067 0)
(-0.174606 0.232986 0)
(-0.196066 0.249605 0)
(-0.213627 0.258356 0)
(-0.226674 0.259618 0)
(-0.235656 0.254479 0)
(-0.240978 0.244402 0)
(-0.243659 0.230951 0)
(-0.24445 0.21551 0)
(-0.244265 0.199151 0)
(-0.243608 0.182585 0)
(-0.242968 0.166211 0)
(-0.242492 0.1502 0)
(-0.242332 0.13457 0)
(-0.242438 0.11927 0)
(-0.242818 0.104211 0)
(-0.243376 0.0893122 0)
(-0.244093 0.0744929 0)
(-0.244889 0.0596963 0)
(-0.245758 0.0448708 0)
(-0.246651 0.0299846 0)
(-0.247574 0.0150069 0)
(-0.248504 -7.79768e-05 0)
(-0.249458 -0.0152876 0)
(-0.250429 -0.0306269 0)
(-0.251442 -0.0461043 0)
(-0.252502 -0.0617176 0)
(-0.253645 -0.0774692 0)
(-0.254891 -0.0933566 0)
(-0.256298 -0.109387 0)
(-0.257922 -0.12558 0)
(-0.259871 -0.14198 0)
(-0.262277 -0.158679 0)
(-0.265334 -0.175829 0)
(-0.269255 -0.193658 0)
(-0.27424 -0.212433 0)
(-0.280324 -0.232386 0)
(-0.287179 -0.25346 0)
(-0.293781 -0.274983 0)
(-0.298118 -0.295128 0)
(-0.29702 -0.310518 0)
(-0.286426 -0.316015 0)
(-0.262357 -0.305488 0)
(-0.222762 -0.273699 0)
(-0.170057 -0.219971 0)
(-0.112768 -0.151931 0)
(-0.0635041 -0.0853781 0)
(-0.0306369 -0.0344753 0)
(-0.012234 -0.00198558 0)
(-0.00310554 0.0160403 0)
(0.000467519 0.0231727 0)
(0.000952507 0.0210991 0)
(0.000299004 0.0101782 0)
(-0.00309366 0.0144324 0)
(-0.0155994 0.04049 0)
(-0.0339945 0.0691857 0)
(-0.0545148 0.102132 0)
(-0.078297 0.137289 0)
(-0.10322 0.17259 0)
(-0.129114 0.205646 0)
(-0.153521 0.233761 0)
(-0.175576 0.254758 0)
(-0.193624 0.267433 0)
(-0.20759 0.271843 0)
(-0.217155 0.268882 0)
(-0.223138 0.260104 0)
(-0.226114 0.24722 0)
(-0.227223 0.231886 0)
(-0.22714 0.215377 0)
(-0.226672 0.198587 0)
(-0.22613 0.182005 0)
(-0.22586 0.165846 0)
(-0.225859 0.150136 0)
(-0.226203 0.134809 0)
(-0.226776 0.119766 0)
(-0.227572 0.104907 0)
(-0.228479 0.0901482 0)
(-0.22949 0.075422 0)
(-0.230531 0.0606822 0)
(-0.231609 0.0458894 0)
(-0.232679 0.0310212 0)
(-0.23376 0.016055 0)
(-0.234828 0.000980972 0)
(-0.235907 -0.0142135 0)
(-0.236984 -0.0295304 0)
(-0.238085 -0.0449745 0)
(-0.239206 -0.0605411 0)
(-0.240373 -0.0762279 0)
(-0.241588 -0.0920258 0)
(-0.242885 -0.10793 0)
(-0.244284 -0.123938 0)
(-0.245849 -0.140063 0)
(-0.247656 -0.156351 0)
(-0.24985 -0.172895 0)
(-0.252625 -0.189878 0)
(-0.256246 -0.207573 0)
(-0.260974 -0.226354 0)
(-0.266944 -0.24655 0)
(-0.273885 -0.268225 0)
(-0.280751 -0.290628 0)
(-0.285323 -0.311637 0)
(-0.284029 -0.327059 0)
(-0.272304 -0.330648 0)
(-0.245796 -0.314939 0)
(-0.202744 -0.274222 0)
(-0.146971 -0.209292 0)
(-0.0896943 -0.132436 0)
(-0.0452886 -0.0643803 0)
(-0.0192223 -0.0178877 0)
(-0.00589216 0.00869666 0)
(-0.000286293 0.0208489 0)
(0.000906112 0.0212492 0)
(0.000344199 0.0109046 0)
(-0.0035491 0.023553 0)
(-0.0173425 0.0570139 0)
(-0.0370179 0.0893105 0)
(-0.0582945 0.124721 0)
(-0.0823483 0.161723 0)
(-0.106681 0.197721 0)
(-0.131131 0.230028 0)
(-0.153178 0.255799 0)
(-0.172301 0.273273 0)
(-0.187094 0.281758 0)
(-0.197906 0.281943 0)
(-0.204663 0.275187 0)
(-0.208471 0.263421 0)
(-0.209964 0.248474 0)
(-0.210292 0.231961 0)
(-0.209973 0.214959 0)
(-0.209674 0.198144 0)
(-0.209519 0.181784 0)
(-0.20974 0.165945 0)
(-0.210227 0.150548 0)
(-0.21102 0.135484 0)
(-0.211971 0.120635 0)
(-0.213083 0.105906 0)
(-0.214244 0.0912241 0)
(-0.215466 0.076537 0)
(-0.216679 0.0618094 0)
(-0.217908 0.0470135 0)
(-0.219108 0.0321337 0)
(-0.220309 0.0171544 0)
(-0.221485 0.00206935 0)
(-0.222663 -0.0131302 0)
(-0.22383 -0.0284443 0)
(-0.225012 -0.043876 0)
(-0.226199 -0.0594201 0)
(-0.227414 -0.075073 0)
(-0.22865 -0.0908246 0)
(-0.229929 -0.106665 0)
(-0.231247 -0.122583 0)
(-0.232636 -0.138571 0)
(-0.234124 -0.154641 0)
(-0.235796 -0.17083 0)
(-0.237777 -0.187254 0)
(-0.240292 -0.204108 0)
(-0.24363 -0.221752 0)
(-0.248131 -0.240635 0)
(-0.253995 -0.261248 0)
(-0.260988 -0.283673 0)
(-0.267959 -0.30708 0)
(-0.272368 -0.328723 0)
(-0.270122 -0.34339 0)
(-0.256077 -0.343208 0)
(-0.225763 -0.319443 0)
(-0.178227 -0.266432 0)
(-0.119841 -0.188502 0)
(-0.0651624 -0.10513 0)
(-0.0288834 -0.0405731 0)
(-0.0101538 -0.00210634 0)
(-0.00166994 0.0169641 0)
(0.000647588 0.0209378 0)
(0.000358762 0.0116366 0)
(-0.00383475 0.0335662 0)
(-0.0184416 0.0746478 0)
(-0.0388406 0.110233 0)
(-0.0603143 0.147604 0)
(-0.0840352 0.185777 0)
(-0.107225 0.221653 0)
(-0.12981 0.252397 0)
(-0.149315 0.275198 0)
(-0.165588 0.288832 0)
(-0.177474 0.293143 0)
(-0.185689 0.289427 0)
(-0.190343 0.279432 0)
(-0.192724 0.265354 0)
(-0.193422 0.249003 0)
(-0.193521 0.231858 0)
(-0.193346 0.214744 0)
(-0.193428 0.198122 0)
(-0.193734 0.182068 0)
(-0.194422 0.166547 0)
(-0.195317 0.151411 0)
(-0.196456 0.136542 0)
(-0.197679 0.121819 0)
(-0.199009 0.107165 0)
(-0.20034 0.0925188 0)
(-0.201705 0.0778435 0)
(-0.203038 0.0631115 0)
(-0.204373 0.0483044 0)
(-0.20567 0.03341 0)
(-0.206963 0.0184176 0)
(-0.208223 0.00332261 0)
(-0.209483 -0.0118812 0)
(-0.210726 -0.0271938 0)
(-0.211978 -0.042617 0)
(-0.213229 -0.0581471 0)
(-0.214501 -0.0737809 0)
(-0.215783 -0.0895107 0)
(-0.217092 -0.105326 0)
(-0.218414 -0.121217 0)
(-0.219762 -0.137164 0)
(-0.221132 -0.153163 0)
(-0.222561 -0.16921 0)
(-0.224103 -0.185359 0)
(-0.225903 -0.201712 0)
(-0.228186 -0.218536 0)
(-0.231304 -0.236228 0)
(-0.235649 -0.255415 0)
(-0.241486 -0.276651 0)
(-0.248551 -0.300117 0)
(-0.255471 -0.324574 0)
(-0.25924 -0.346494 0)
(-0.255063 -0.358967 0)
(-0.237311 -0.352309 0)
(-0.201668 -0.316478 0)
(-0.149154 -0.247528 0)
(-0.0897474 -0.156546 0)
(-0.0419473 -0.0723313 0)
(-0.0159212 -0.0174565 0)
(-0.00380327 0.0108551 0)
(0.000191142 0.019849 0)
(0.000338264 0.0122691 0)
(-0.00391718 0.0440286 0)
(-0.0188183 0.0928028 0)
(-0.0393797 0.131322 0)
(-0.0605279 0.170108 0)
(-0.0833992 0.208777 0)
(-0.105045 0.243799 0)
(-0.125534 0.272358 0)
(-0.142512 0.291809 0)
(-0.156185 0.301538 0)
(-0.16562 0.301908 0)
(-0.171832 0.294771 0)
(-0.175039 0.28216 0)
(-0.176604 0.266414 0)
(-0.177008 0.24921 0)
(-0.177221 0.231833 0)
(-0.177383 0.214842 0)
(-0.177908 0.198512 0)
(-0.17865 0.182771 0)
(-0.179731 0.167519 0)
(-0.180944 0.152579 0)
(-0.182337 0.137838 0)
(-0.183753 0.123184 0)
(-0.185239 0.108562 0)
(-0.186695 0.0939188 0)
(-0.188169 0.0792319 0)
(-0.189596 0.0644781 0)
(-0.191021 0.0496456 0)
(-0.1924 0.0347244 0)
(-0.19377 0.0197075 0)
(-0.195102 0.00459124 0)
(-0.196429 -0.0106277 0)
(-0.197731 -0.0259489 0)
(-0.199036 -0.0413727 0)
(-0.200333 -0.0568963 0)
(-0.201645 -0.0725167 0)
(-0.202961 -0.0882297 0)
(-0.204297 -0.104026 0)
(-0.205638 -0.119901 0)
(-0.206992 -0.135834 0)
(-0.208338 -0.151819 0)
(-0.209686 -0.16783 0)
(-0.211039 -0.183884 0)
(-0.212467 -0.200003 0)
(-0.214097 -0.216351 0)
(-0.216202 -0.233191 0)
(-0.219169 -0.251099 0)
(-0.223473 -0.270768 0)
(-0.229402 -0.292991 0)
(-0.236568 -0.317736 0)
(-0.243232 -0.343298 0)
(-0.245659 -0.364579 0)
(-0.238317 -0.372621 0)
(-0.215128 -0.355348 0)
(-0.17291 -0.302477 0)
(-0.115824 -0.214665 0)
(-0.0592971 -0.114699 0)
(-0.0231836 -0.0390462 0)
(-0.00682096 0.00196273 0)
(-0.000457272 0.0175978 0)
(0.00029012 0.0127324 0)
(-0.00380028 0.0545065 0)
(-0.0184983 0.110988 0)
(-0.0387082 0.152148 0)
(-0.0590895 0.191875 0)
(-0.0807123 0.230479 0)
(-0.100567 0.264106 0)
(-0.118886 0.290088 0)
(-0.133489 0.306047 0)
(-0.144892 0.312002 0)
(-0.152355 0.308797 0)
(-0.157105 0.298766 0)
(-0.159395 0.284119 0)
(-0.160586 0.267228 0)
(-0.161008 0.24956 0)
(-0.161504 0.232185 0)
(-0.162054 0.215413 0)
(-0.162991 0.199374 0)
(-0.164093 0.183889 0)
(-0.165473 0.168834 0)
(-0.166914 0.154016 0)
(-0.168485 0.139344 0)
(-0.170036 0.124718 0)
(-0.171633 0.1101 0)
(-0.173182 0.0954446 0)
(-0.174741 0.0807379 0)
(-0.176247 0.0659589 0)
(-0.177748 0.0511007 0)
(-0.179198 0.0361529 0)
(-0.180636 0.0211118 0)
(-0.182031 0.00597399 0)
(-0.183416 -0.00926157 0)
(-0.18477 -0.0245945 0)
(-0.186121 -0.0400234 0)
(-0.187456 -0.0555466 0)
(-0.188801 -0.0711605 0)
(-0.190143 -0.0868648 0)
(-0.191503 -0.102652 0)
(-0.192865 -0.118522 0)
(-0.194238 -0.134458 0)
(-0.195598 -0.15046 0)
(-0.196942 -0.166491 0)
(-0.198247 -0.18256 0)
(-0.199533 -0.198632 0)
(-0.200843 -0.214795 0)
(-0.202341 -0.231163 0)
(-0.204315 -0.248176 0)
(-0.207236 -0.266434 0)