/*--------------------------------*- C++ -*----------------------------------*\
| =========                 |                                                 |
| \\      /  F ield         | OpenFOAM: The Open Source CFD Toolbox           |
|  \\    /   O peration     | Version:  2406                                  |
|   \\  /    A nd           | Website:  www.openfoam.com                      |
|    \\/     M anipulation  |                                                 |
\*---------------------------------------------------------------------------*/
FoamFile
{
    version     2.0;
    format      ascii;
    arch        "LSB;label=32;scalar=64";
    class       volScalarField;
    location    "41.8";
    object      p;
}
// * * * * * * * * * * * * * * * * * * * * * * * * * * * * * * * * * * * * * //

dimensions      [0 2 -2 0 0 0 0];

internalField   nonuniform List<scalar> 
900
(
3.77306e-06
6.45862e-05
-0.000111393
-0.00026146
-0.000475403
-0.000663063
-0.000922869
-0.00126417
-0.00184305
-0.00261381
-0.00330427
-0.00367433
-0.0037318
-0.00368654
-0.0035469
-0.00305386
-0.00199106
-0.000183241
0.00225096
0.00516074
0.00787759
0.0100109
0.0105518
0.00972341
0.00735759
0.0054209
0.00398997
0.00387305
0.00354018
0.00373996
-3.78807e-05
2.11388e-05
-0.000151561
-0.000272246
-0.00044255
-0.000577719
-0.000793477
-0.00107993
-0.00139618
-0.00181965
-0.00259521
-0.00343586
-0.00397024
-0.0042873
-0.00439608
-0.00407401
-0.00314596
-0.00146106
0.000855018
0.00366187
0.00632379
0.00845665
0.00908088
0.00836984
0.00616243
0.00447354
0.00336154
0.00365932
0.0035447
0.00383342
2.50884e-05
4.27966e-05
-0.000181987
-0.000329261
-0.000475957
-0.000583358
-0.000722237
-0.000961123
-0.0016547
-0.00278617
-0.0041072
-0.00544761
-0.00659393
-0.00744734
-0.0078873
-0.00773958
-0.00690567
-0.00528058
-0.00300301
-0.00016461
0.00267469
0.00518787
0.00645766
0.00646463
0.00492939
0.00358074
0.0025491
0.00300236
0.00293922
0.00324046
0.000228682
0.000161064
-0.000106266
-0.000264089
-0.000372269
-0.000486214
-0.000880097
-0.00172237
-0.00303754
-0.00484171
-0.00694151
-0.0089931
-0.0107222
-0.0120103
-0.0127679
-0.0128748
-0.0123009
-0.0109481
-0.00896018
-0.00631282
-0.00346394
-0.000532092
0.00168348
0.00307874
0.00320741
0.00291044
0.00258449
0.00290547
0.00268055
0.00293219
0.000535853
0.000331891
9.42726e-06
-0.000217135
-0.000436562
-0.000942339
-0.00197086
-0.00370346
-0.00607822
-0.00880707
-0.0115414
-0.0140298
-0.0160685
-0.0175606
-0.0184619
-0.0186996
-0.0183143
-0.0172047
-0.0155473
-0.0131931
-0.0105431
-0.00742798
-0.00452704
-0.0017526
0.000232963
0.00166295
0.00231474
0.00291083
0.00227717
0.00246087
0.00122599
0.000890657
0.000531258
9.19327e-05
-0.000547261
-0.00181368
-0.00388698
-0.00671798
-0.00995853
-0.0132809
-0.0163634
-0.0190075
-0.0211003
-0.0225947
-0.023512
-0.023799
-0.0235595
-0.0226655
-0.0213525
-0.0193586
-0.0171128
-0.0141724
-0.0111751
-0.00763809
-0.00426866
-0.0010189
0.00123138
0.00293055
0.00178307
0.00211756
0.00199015
0.00152001
0.00105374
0.000194826
-0.00116527
-0.00351228
-0.0067056
-0.0104703
-0.0143087
-0.0179088
-0.0210333
-0.0235939
-0.0255666
-0.0269391
-0.0277827
-0.0280337
-0.0278494
-0.0270547
-0.0259611
-0.024209
-0.0223257
-0.0196611
-0.0169441
-0.0132845
-0.0094475
-0.00517397
-0.000883278
0.00108399
0.00189359
0.00118119
0.00287337
0.00229073
0.00159816
9.29662e-05
-0.00224283
-0.0057263
-0.00988209
-0.014261
-0.0183715
-0.0220055
-0.0250375
-0.0274599
-0.0293178
-0.0306002
-0.0314172
-0.0316634
-0.0315473
-0.030821
-0.0298804
-0.0282556
-0.0266093
-0.0241246
-0.0217238
-0.0181861
-0.0145082
-0.00969176
-0.00444737
-0.00120531
0.00225108
-0.000189177
0.00315276
0.00246202
0.0014548
-0.000766214
-0.00405089
-0.00848442
-0.0132847
-0.0179706
-0.0221187
-0.0256466
-0.028522
-0.0307947
-0.0325475
-0.0337512
-0.0345486
-0.0347801
-0.0347143
-0.0340175
-0.0331844
-0.0316217
-0.0301413
-0.0277604
-0.0256244
-0.0222637
-0.018979
-0.0141454
-0.00894808
-0.00384754
-0.000203171
-0.00102462
0.00284774
0.00206932
0.000689559
-0.00219175
-0.00626839
-0.0113349
-0.0164608
-0.0212003
-0.0252554
-0.0286323
-0.0313746
-0.0335413
-0.0352424
-0.0364085
-0.0372219
-0.0374539
-0.0374466
-0.0367645
-0.0360147
-0.0344676
-0.0330967
-0.0307529
-0.0288141
-0.0255898
-0.0227018
-0.0180702
-0.0130941
-0.00703375
-0.00202941
-8.28571e-05
0.00164389
0.000806053
-0.000889573
-0.00426411
-0.00886295
-0.0142696
-0.0194752
-0.0241276
-0.028024
-0.0312372
-0.0338552
-0.0359248
-0.0375794
-0.0387009
-0.0395229
-0.039739
-0.0397796
-0.0390948
-0.0384177
-0.0368674
-0.0355852
-0.0332431
-0.0314472
-0.0283031
-0.0257586
-0.0213639
-0.016805
-0.0102645
-0.00337021
0.00018524
-4.93721e-05
-0.000908068
-0.00286513
-0.00652457
-0.0113962
-0.0168658
-0.0219787
-0.0264491
-0.0301734
-0.0332349
-0.0357635
-0.0377594
-0.0393936
-0.0404813
-0.0413252
-0.0415262
-0.0416201
-0.0409302
-0.0403293
-0.0387767
-0.0375894
-0.0352532
-0.0335972
-0.0305203
-0.0282875
-0.0241914
-0.0203119
-0.0140515
-0.00690315
-0.00253386
-0.00214164
-0.00298944
-0.00510653
-0.00889635
-0.0138482
-0.0192526
-0.0242026
-0.0284822
-0.0320399
-0.0349599
-0.0374
-0.0393094
-0.0409081
-0.0419358
-0.0427815
-0.0429409
-0.0430707
-0.0423551
-0.0418187
-0.0402516
-0.0391539
-0.0368183
-0.0352988
-0.0322764
-0.0303267
-0.0264894
-0.0233322
-0.0177095
-0.0113045
-0.00695427
-0.00414865
-0.00494908
-0.00717212
-0.0109348
-0.0158338
-0.0210434
-0.0257915
-0.0298611
-0.0332738
-0.0360659
-0.0384428
-0.0402765
-0.041858
-0.0428323
-0.0436926
-0.0438142
-0.0439887
-0.0432517
-0.0427894
-0.0412175
-0.0402239
-0.0379036
-0.0365359
-0.0335776
-0.0319093
-0.0283216
-0.0258854
-0.0209871
-0.0157633
-0.0117007
-0.0059971
-0.00674128
-0.00900035
-0.0126908
-0.0174741
-0.0225052
-0.0270802
-0.0309903
-0.034287
-0.036966
-0.039279
-0.0410214
-0.0425701
-0.0434642
-0.0443184
-0.0443737
-0.0445714
-0.0437874
-0.04338
-0.0417833
-0.0408807
-0.0385606
-0.0373367
-0.0344192
-0.0330033
-0.029588
-0.0277709
-0.0235343
-0.0195918
-0.015989
-0.00737193
-0.00802487
-0.0102941
-0.0138185
-0.0184509
-0.0232472
-0.0276653
-0.0314137
-0.0346265
-0.0372063
-0.0394854
-0.0411539
-0.0426968
-0.0435277
-0.0443976
-0.0443994
-0.0446347
-0.0438122
-0.043469
-0.0418534
-0.0410487
-0.0387309
-0.0376559
-0.0347728
-0.0336061
-0.0303158
-0.029037
-0.025276
-0.0224841
-0.0192921
-0.00840694
-0.00897154
-0.0111793
-0.0145517
-0.0190104
-0.0236445
-0.0279577
-0.0316192
-0.0347899
-0.0372973
-0.0395543
-0.0411429
-0.0426759
-0.0434251
-0.0442987
-0.0442237
-0.0444784
-0.0435904
-0.0432883
-0.0416224
-0.0408889
-0.0385349
-0.0375756
-0.0346706
-0.0337017
-0.0304388
-0.0295919
-0.0261345
-0.0243527
-0.0214843
-0.00894135
-0.00935954
-0.0114706
-0.0145873
-0.0188637
-0.0232671
-0.0274973
-0.0310589
-0.0342265
-0.0366821
-0.0389618
-0.0405038
-0.0420692
-0.0427691
-0.0436795
-0.0435522
-0.0438476
-0.042907
-0.0426553
-0.0409398
-0.040276
-0.0378731
-0.0370184
-0.0340617
-0.0332703
-0.0299669
-0.029486
-0.0261369
-0.0252033
-0.0225108
-0.00930722
-0.00957677
-0.0114652
-0.014335
-0.0183502
-0.0225852
-0.0267532
-0.0302942
-0.0335092
-0.035955
-0.0382905
-0.0397954
-0.0414088
-0.0420529
-0.043004
-0.0428085
-0.0431378
-0.0421194
-0.0418985
-0.0400948
-0.0394652
-0.036956
-0.0361503
-0.0330588
-0.0323699
-0.0289128
-0.028715
-0.0253039
-0.0251148
-0.0224367
-0.00929894
-0.00932919
-0.0109664
-0.0134214
-0.0171685
-0.0210957
-0.0252079
-0.0286836
-0.0319904
-0.0344568
-0.0369125
-0.0384346
-0.0401557
-0.0407941
-0.0418296
-0.0416014
-0.0419897
-0.0409108
-0.0407274
-0.0388327
-0.0382254
-0.0355857
-0.0347984
-0.0315255
-0.0308974
-0.0272106
-0.0272525
-0.0236238
-0.0241263
-0.0212863
-0.00933636
-0.00915622
-0.0104179
-0.0124681
-0.0157499
-0.0193867
-0.0233736
-0.026839
-0.0302804
-0.0328203
-0.0354578
-0.0370266
-0.0389025
-0.039544
-0.0406944
-0.040427
-0.0408883
-0.0397268
-0.0395746
-0.0375477
-0.0369296
-0.0340933
-0.0332589
-0.029709
-0.0290525
-0.0250117
-0.0252248
-0.0212033
-0.0223646
-0.0191286
-0.00888801
-0.00844097
-0.0094547
-0.0108756
-0.0137401
-0.0168379
-0.0206933
-0.0240455
-0.0276632
-0.0303089
-0.0332097
-0.0349022
-0.0370084
-0.037724
-0.0390378
-0.0387811
-0.0393349
-0.0381166
-0.0379884
-0.0358286
-0.0351659
-0.0321036
-0.0311632
-0.0272794
-0.026525
-0.0220509
-0.0223982
-0.0178526
-0.0197361
-0.0158575
-0.00863304
-0.00817681
-0.00877523
-0.00968148
-0.0117182
-0.0142537
-0.0177367
-0.0209628
-0.0247504
-0.027541
-0.0307924
-0.032657
-0.0350858
-0.0359047
-0.0374559
-0.0372133
-0.0379125
-0.036616
-0.0365411
-0.034204
-0.0334968
-0.0301425
-0.0290617
-0.0247574
-0.0238437
-0.0188219
-0.0192462
-0.0139692
-0.0165258
-0.0115294
-0.00781578
-0.00732848
-0.0077038
-0.00780741
-0.00920569
-0.0108044
-0.0139507
-0.016874
-0.0208597
-0.023807
-0.0274803
-0.0296044
-0.0324252
-0.0334402
-0.0352634
-0.0351112
-0.0359497
-0.0346298
-0.0345643
-0.0320787
-0.0312488
-0.0275964
-0.02627
-0.0214936
-0.0202992
-0.0146328
-0.0150358
-0.00887012
-0.0121775
-0.00554374
-0.0075345
-0.00757698
-0.00733474
-0.00700963
-0.00698144
-0.00769866
-0.0100325
-0.0125879
-0.0166634
-0.019758
-0.023929
-0.0263569
-0.0296959
-0.0309465
-0.0331694
-0.0331103
-0.0342101
-0.0328279
-0.0328945
-0.0301897
-0.0293679
-0.0253349
-0.0238999
-0.018581
-0.0172186
-0.0108391
-0.0111871
-0.00390935
-0.0074872
0.00217978
-0.00684009
-0.00657421
-0.00636522
-0.00488181
-0.00420157
-0.00360459
-0.00546653
-0.00749805
-0.0117196
-0.0149458
-0.0196118
-0.0224009
-0.026251
-0.0278315
-0.0304248
-0.0305731
-0.0318655
-0.030552
-0.0306316
-0.0278509
-0.0268605
-0.0225795
-0.0207937
-0.0149898
-0.013136
-0.00591332
-0.00572559
0.00307565
-9.4601e-05
0.0139862
-0.00598717
-0.00745706
-0.00623784
-0.00464664
-0.00198186
-0.000517672
-0.00123528
-0.00282021
-0.00699856
-0.0103295
-0.015498
-0.0186449
-0.0230962
-0.0250041
-0.0281115
-0.0284206
-0.030111
-0.0287513
-0.0291466
-0.0261053
-0.0253998
-0.0206443
-0.0191551
-0.0126546
-0.0110381
-0.00277822
-0.00226673
0.00844508
0.00759456
0.03162
-0.00666054
-0.00578531
-0.00520124
-0.00115108
0.00137847
0.00392137
0.00314254
0.0019065
-0.0024462
-0.00589186
-0.0114221
-0.0148972
-0.0197688
-0.0220265
-0.0254841
-0.0260704
-0.0279804
-0.0268099
-0.0272683
-0.0243479
-0.0235118
-0.0188049
-0.0168819
-0.0102117
-0.00756022
0.00166051
0.00471808
0.0190522
0.0278068
0.0667338
-0.00090296
-0.0072408
-0.00520847
-0.0024382
0.00277352
0.00572897
0.00605525
0.00488869
0.000609301
-0.00298129
-0.00884781
-0.0125872
-0.0178882
-0.0203905
-0.0242621
-0.024968
-0.0272789
-0.0260459
-0.0269595
-0.0237478
-0.0235357
-0.0182379
-0.0172389
-0.00953145
-0.00801135
0.00327673
0.00672131
0.0282298
0.0477511
0.114979
-0.0215556
-0.00403797
-0.000569333
0.00338148
0.00671521
0.00921236
0.0081244
0.00668783
0.00210311
-0.00156305
-0.00743574
-0.0112499
-0.0165633
-0.0191759
-0.0230936
-0.0239288
-0.0262754
-0.0251936
-0.0260664
-0.0230665
-0.0226104
-0.0176352
-0.0158213
-0.00836856
-0.00399329
0.00915464
0.0243151
0.0622537
0.125917
0.24146
)
;

boundaryField
{
    movingWall
    {
        type            zeroGradient;
    }
    fixedWalls
    {
        type            zeroGradient;
    }
    frontAndBack
    {
        type            empty;
    }
}


// ************************************************************************* //
