/*--------------------------------*- C++ -*----------------------------------*\
| =========                 |                                                 |
| \\      /  F ield         | OpenFOAM: The Open Source CFD Toolbox           |
|  \\    /   O peration     | Version:  2406                                  |
|   \\  /    A nd           | Website:  www.openfoam.com                      |
|    \\/     M anipulation  |                                                 |
\*---------------------------------------------------------------------------*/
FoamFile
{
    version     2.0;
    format      ascii;
    arch        "LSB;label=32;scalar=64";
    class       volScalarField;
    location    "51.5";
    object      p;
}
// * * * * * * * * * * * * * * * * * * * * * * * * * * * * * * * * * * * * * //

dimensions      [0 2 -2 0 0 0 0];

internalField   nonuniform List<scalar> 
4096
(
1.09459e-07
2.50428e-05
3.01009e-05
7.98105e-06
-4.3134e-05
-0.000118068
-0.000208605
-0.000307946
-0.000412928
-0.00052444
-0.000646674
-0.000785958
-0.000949248
-0.00114299
-0.00137279
-0.00164328
-0.00195829
-0.00232056
-0.00273106
-0.00318813
-0.00368593
-0.00421344
-0.00475317
-0.00528077
-0.00576564
-0.0061724
-0.00646335
-0.00660144
-0.00655349
-0.00629329
-0.00580445
-0.00508268
-0.0041375
-0.0029927
-0.00168502
-0.0002784
0.00114638
0.00249638
0.00367019
0.00456648
0.00509546
0.00519291
0.00483326
0.00402091
0.00283459
0.00137027
-0.000243107
-0.00187063
-0.00339522
-0.00473177
-0.00582948
-0.00667735
-0.00729096
-0.00770508
-0.00796301
-0.00810768
-0.00817607
-0.00819684
-0.00819023
-0.00816912
-0.00814053
-0.00810781
-0.00807437
-0.00804462
-2.16439e-05
3.70226e-06
7.23284e-06
-1.58685e-05
-6.54385e-05
-0.000136096
-0.000220338
-0.000312205
-0.000409202
-0.000512444
-0.000626135
-0.000756118
-0.00090861
-0.00108931
-0.00130327
-0.00155473
-0.00184793
-0.00218611
-0.00257118
-0.00300248
-0.00347553
-0.0039813
-0.00450585
-0.00502986
-0.00552755
-0.00596613
-0.00630705
-0.0065092
-0.00653342
-0.0063473
-0.00592965
-0.00527326
-0.00438347
-0.00327622
-0.0019987
-0.000616584
0.000792718
0.00213577
0.00330947
0.00421026
0.00474589
0.00484958
0.0044928
0.00368797
0.00249328
0.00101994
-0.00059523
-0.00220866
-0.00369894
-0.0049789
-0.00601118
-0.00678524
-0.00732582
-0.0076792
-0.0078954
-0.00801776
-0.0080796
-0.00810458
-0.00810818
-0.00809985
-0.00808467
-0.00806441
-0.00803902
-0.00800955
-3.09911e-05
-2.32823e-06
4.14873e-07
-2.58481e-05
-7.79824e-05
-0.000148539
-0.000229112
-0.000313801
-0.000400834
-0.000492297
-0.000593165
-0.000709632
-0.000847991
-0.00101342
-0.00121162
-0.00144742
-0.00172641
-0.00205436
-0.00243661
-0.00287733
-0.00337786
-0.00393374
-0.00453133
-0.00514617
-0.00574421
-0.00628474
-0.00672384
-0.00701783
-0.00712659
-0.00701692
-0.00666588
-0.00606369
-0.00521454
-0.00413647
-0.00288528
-0.00151852
-0.00011185
0.00124273
0.00244219
0.00338142
0.00396476
0.00411993
0.00381154
0.0030489
0.00189115
0.000445329
-0.00116019
-0.00276095
-0.0042304
-0.00547316
-0.00643924
-0.00713926
-0.00759915
-0.00787069
-0.00801262
-0.00807486
-0.0080934
-0.00809088
-0.00808004
-0.00806691
-0.00805322
-0.0080373
-0.00801383
-0.00798013
-2.21446e-05
9.51768e-06
9.78185e-06
-2.31572e-05
-8.22414e-05
-0.000156469
-0.000235414
-0.000312976
-0.000388257
-0.000464959
-0.000549877
-0.000650336
-0.000774147
-0.000927817
-0.00111862
-0.00135527
-0.0016487
-0.0020117
-0.00245681
-0.00299228
-0.00361773
-0.00432161
-0.00508067
-0.00586104
-0.0066206
-0.0073126
-0.00788963
-0.00830719
-0.00852612
-0.00851382
-0.00824521
-0.0077063
-0.00690379
-0.00587825
-0.00466362
-0.00331347
-0.00190062
-0.000513443
0.000747766
0.00177854
0.00248034
0.00277376
0.00261238
0.00199409
0.000967137
-0.000371334
-0.00188906
-0.00343156
-0.00486456
-0.00607444
-0.00700627
-0.00764435
-0.00803237
-0.00822401
-0.00828326
-0.00826774
-0.00821999
-0.0081664
-0.00812
-0.00808477
-0.00805936
-0.00803857
-0.00801201
-0.00797315
1.03797e-05
4.16393e-05
3.52218e-05
-9.06514e-06
-7.9162e-05
-0.000159729
-0.000238122
-0.000308666
-0.000371439
-0.000433156
-0.000503279
-0.000592394
-0.000710898
-0.000870148
-0.00108399
-0.0013698
-0.00174751
-0.00223583
-0.00284702
-0.0035825
-0.00443066
-0.00536702
-0.00635631
-0.00735526
-0.00831599
-0.00918936
-0.00992826
-0.0104902
-0.0108386
-0.0109423
-0.0107761
-0.0103278
-0.0096105
-0.00865748
-0.00749934
-0.00618208
-0.00477003
-0.0033434
-0.00199522
-0.000825471
6.71402e-05
0.000596596
0.000703
0.000366184
-0.000386617
-0.00147851
-0.00279004
-0.00417618
-0.0054951
-0.00662835
-0.00750593
-0.00810775
-0.00845084
-0.00859362
-0.00859773
-0.00852315
-0.0084173
-0.0083117
-0.00822295
-0.00815645
-0.00811051
-0.00807822
-0.00804604
-0.00800455
7.27652e-05
9.90009e-05
8.08764e-05
2.05758e-05
-6.37832e-05
-0.000152512
-0.00023189
-0.000296242
-0.000348695
-0.000401026
-0.00046626
-0.000560323
-0.000701085
-0.000909636
-0.00121092
-0.00163174
-0.00219586
-0.00291796
-0.00379932
-0.00482634
-0.00597163
-0.00719702
-0.00845726
-0.00970336
-0.0108854
-0.011955
-0.0128678
-0.0135852
-0.0140744
-0.0143074
-0.0142628
-0.0139323
-0.0133295
-0.0124771
-0.0114008
-0.0101393
-0.00874623
-0.00728977
-0.00585114
-0.00452098
-0.00339321
-0.00255569
-0.0020784
-0.00200191
-0.00232729
-0.00300901
-0.0039563
-0.00504524
-0.00614061
-0.0071207
-0.00790116
-0.0084457
-0.00875932
-0.00887747
-0.00885963
-0.00875929
-0.00862281
-0.00848407
-0.00836319
-0.00826902
-0.00820211
-0.00815659
-0.00811873
-0.00807775
0.000173213
0.000189149
0.000154402
7.42871e-05
-2.6436e-05
-0.000124376
-0.000206611
-0.000269151
-0.000320887
-0.000378017
-0.000461613
-0.000597252
-0.000814926
-0.00114844
-0.00163211
-0.00229465
-0.00315254
-0.00420582
-0.00543736
-0.00681555
-0.00829849
-0.00983772
-0.0113816
-0.0128785
-0.0142793
-0.015539
-0.0166179
-0.0174828
-0.0181066
-0.018468
-0.0185528
-0.0183566
-0.0178863
-0.0171561
-0.0161872
-0.0150109
-0.0136692
-0.0122158
-0.0107158
-0.00924439
-0.00788346
-0.00671585
-0.00581681
-0.00524329
-0.00502247
-0.00514519
-0.00556282
-0.00618917
-0.00691409
-0.00762465
-0.00822859
-0.00867054
-0.00893547
-0.0090403
-0.00902083
-0.0089227
-0.00878517
-0.00864008
-0.00850749
-0.00839929
-0.00831934
-0.00826463
-0.00822387
-0.00818663
0.00032149
0.00032156
0.000266018
0.000163425
4.49027e-05
-6.59737e-05
-0.000154152
-0.000225006
-0.000293246
-0.000383608
-0.000528778
-0.000768056
-0.00114508
-0.00170276
-0.00247564
-0.00348234
-0.00472136
-0.00617163
-0.00779647
-0.00954815
-0.0113729
-0.0132153
-0.015021
-0.0167397
-0.0183262
-0.0197413
-0.0209524
-0.0219332
-0.0226641
-0.0231323
-0.0233322
-0.023263
-0.0229255
-0.0223263
-0.0214832
-0.0204208
-0.0191706
-0.0177714
-0.0162703
-0.0147228
-0.0131918
-0.0117454
-0.0104526
-0.00937632
-0.00856455
-0.00804178
-0.00780206
-0.00780917
-0.00799919
-0.00828981
-0.00859749
-0.00885522
-0.00902395
-0.00909382
-0.00907734
-0.00899874
-0.00887951
-0.00875198
-0.0086295
-0.00852492
-0.00844467
-0.00838882
-0.00834981
-0.00831889
0.000527283
0.000506396
0.000426952
0.000300129
0.000162653
3.76902e-05
-6.86164e-05
-0.000166764
-0.000282084
-0.000452224
-0.000724623
-0.0011527
-0.00178882
-0.00267466
-0.00383219
-0.0052592
-0.00693078
-0.00880381
-0.0108234
-0.012929
-0.0150596
-0.0171572
-0.0191696
-0.0210516
-0.0227653
-0.0242802
-0.0255722
-0.0266233
-0.0274219
-0.0279632
-0.0282489
-0.0282814
-0.0280579
-0.0275805
-0.0268656
-0.0259327
-0.0248043
-0.0235068
-0.0220705
-0.0205314
-0.0189309
-0.0173156
-0.0157371
-0.0142487
-0.0129026
-0.0117437
-0.0108035
-0.0100944
-0.009608
-0.00931611
-0.00917226
-0.00912039
-0.00910733
-0.00909339
-0.00905707
-0.00899421
-0.00890862
-0.00881208
-0.00871658
-0.00863197
-0.00856483
-0.00851719
-0.00848502
-0.00846188
0.000797552
0.000751807
0.000645573
0.000496017
0.000337659
0.000188443
4.68544e-05
-0.00010882
-0.000317863
-0.000633392
-0.00111727
-0.0018314
-0.00282578
-0.00412742
-0.00573497
-0.00761999
-0.00973269
-0.01201
-0.0143835
-0.0167852
-0.0191525
-0.0214308
-0.0235746
-0.0255475
-0.0273219
-0.028877
-0.0301981
-0.0312754
-0.0321042
-0.0326854
-0.0330245
-0.033126
-0.0329883
-0.0326139
-0.0320167
-0.0312117
-0.030215
-0.0290436
-0.0277161
-0.0262529
-0.0246768
-0.023013
-0.0212907
-0.0195434
-0.0178097
-0.016133
-0.0145604
-0.0131394
-0.0119133
-0.010914
-0.0101571
-0.00963299
-0.00930457
-0.00911678
-0.00901181
-0.00894371
-0.00888709
-0.00882765
-0.00876993
-0.00871703
-0.00867401
-0.00864287
-0.00862171
-0.00860652
0.00113334
0.00105936
0.000927882
0.000755437
0.000570005
0.000381514
0.000176996
-8.01955e-05
-0.000445428
-0.000986603
-0.0017742
-0.00286728
-0.00429971
-0.00607285
-0.00815601
-0.0104931
-0.0130127
-0.0156372
-0.0182912
-0.0209066
-0.0234257
-0.0258025
-0.0280022
-0.0299999
-0.0317785
-0.0333272
-0.0346395
-0.0357122
-0.0365458
-0.0371442
-0.0375138
-0.0376601
-0.0375852
-0.0372936
-0.0367955
-0.0361026
-0.0352266
-0.0341793
-0.032972
-0.0316155
-0.0301197
-0.0284938
-0.0267479
-0.0248941
-0.0229491
-0.0209384
-0.0188997
-0.0168867
-0.0149699
-0.0132312
-0.0117516
-0.0105931
-0.0097777
-0.00927423
-0.0090083
-0.00888885
-0.00883838
-0.00881644
-0.00880016
-0.00878582
-0.00877376
-0.00876481
-0.00875727
-0.00874914
0.00152634
0.00142437
0.00126815
0.00107149
0.000847882
0.00059703
0.000290595
-0.000124816
-0.000719893
-0.00157183
-0.00274872
-0.00429297
-0.0062109
-0.00847162
-0.0110139
-0.0137578
-0.0166166
-0.0195063
-0.0223524
-0.0250937
-0.0276834
-0.0300878
-0.0322846
-0.0342602
-0.0360075
-0.0375234
-0.0388075
-0.0398615
-0.0406885
-0.0412937
-0.0416831
-0.041862
-0.0418346
-0.041607
-0.0411875
-0.0405851
-0.0398092
-0.0388682
-0.0377697
-0.036519
-0.0351192
-0.0335705
-0.0318709
-0.0300165
-0.0280049
-0.0258389
-0.0235335
-0.0211241
-0.0186748
-0.0162832
-0.0140752
-0.0121843
-0.0107176
-0.00971802
-0.00914387
-0.00888417
-0.00880507
-0.0088034
-0.00882484
-0.00884968
-0.00887133
-0.00888708
-0.008894
-0.00889157
0.00195607
0.00182881
0.00165083
0.00142138
0.00114251
0.000797576
0.000340634
-0.000297734
-0.00119869
-0.00243856
-0.00406959
-0.00610568
-0.00851847
-0.0112434
-0.0141929
-0.0172706
-0.020383
-0.0234484
-0.026401
-0.0291923
-0.0317892
-0.0341719
-0.0363299
-0.0382594
-0.0399604
-0.0414351
-0.042687
-0.04372
-0.0445387
-0.045148
-0.0455529
-0.0457583
-0.0457696
-0.045593
-0.0452352
-0.0447037
-0.0440058
-0.0431484
-0.0421371
-0.0409751
-0.0396625
-0.0381958
-0.0365669
-0.034764
-0.0327724
-0.0305782
-0.0281736
-0.0255664
-0.022793
-0.0199314
-0.0171098
-0.0145007
-0.0122909
-0.0106264
-0.00955629
-0.00900901
-0.00882095
-0.00881175
-0.00886228
-0.00892298
-0.00897718
-0.00901744
-0.00903839
-0.00904045
0.00238706
0.00223952
0.00203583
0.0017646
0.00140763
0.000929987
0.000268722
-0.000657661
-0.00193197
-0.00361704
-0.00573712
-0.00826999
-0.0111505
-0.0142847
-0.0175663
-0.0208917
-0.02417
-0.0273295
-0.0303188
-0.0331045
-0.0356685
-0.0380031
-0.0401074
-0.0419844
-0.0436387
-0.0450756
-0.0463
-0.0473167
-0.0481304
-0.0487454
-0.0491656
-0.0493953
-0.0494398
-0.0493049
-0.0489961
-0.0485194
-0.047881
-0.0470866
-0.0461406
-0.0450455
-0.043801
-0.0424027
-0.0408414
-0.039103
-0.0371678
-0.035013
-0.032616
-0.0299614
-0.0270533
-0.0239322
-0.0206933
-0.0174993
-0.0145725
-0.012151
-0.010409
-0.00938144
-0.00894462
-0.00886709
-0.00892879
-0.00901945
-0.00910283
-0.00916592
-0.00919984
-0.00920596
0.00277226
0.00260757
0.00237362
0.00204612
0.00158309
0.000931091
1.2961e-05
-0.00125778
-0.00295436
-0.00511411
-0.00772523
-0.0107262
-0.0140187
-0.017487
-0.0210158
-0.0245036
-0.0278703
-0.0310595
-0.0340364
-0.0367834
-0.0392949
-0.0415727
-0.0436226
-0.0454517
-0.0470669
-0.0484744
-0.0496795
-0.0506868
-0.0515004
-0.0521237
-0.05256
-0.0528129
-0.052887
-0.0527872
-0.052518
-0.0520844
-0.0514916
-0.050744
-0.0498457
-0.0487986
-0.0476027
-0.0462544
-0.0447459
-0.0430639
-0.0411894
-0.0390976
-0.0367592
-0.0341452
-0.0312351
-0.0280319
-0.0245836
-0.0210075
-0.0175061
-0.0143556
-0.0118413
-0.0101474
-0.00926848
-0.00900208
-0.00903911
-0.00915027
-0.00925858
-0.00934302
-0.00938927
-0.00940014
0.00305213
0.00286924
0.00260068
0.00220004
0.00160183
0.000736244
-0.000482773
-0.00213738
-0.00428002
-0.00691406
-0.00998728
-0.0134012
-0.0170317
-0.0207509
-0.0244441
-0.0280199
-0.0314144
-0.0345886
-0.0375243
-0.0402172
-0.0426713
-0.044895
-0.0468977
-0.0486882
-0.0502741
-0.0516616
-0.0528553
-0.0538593
-0.0546768
-0.0553108
-0.0557638
-0.0560387
-0.0561395
-0.0560698
-0.0558337
-0.055435
-0.0548779
-0.0541662
-0.053303
-0.0522902
-0.0511279
-0.0498137
-0.0483416
-0.0467012
-0.0448765
-0.0428452
-0.0405784
-0.0380422
-0.0352026
-0.0320355
-0.0285452
-0.0247914
-0.0209204
-0.0171834
-0.0139147
-0.0114381
-0.00991887
-0.00927781
-0.00920511
-0.0093229
-0.00945294
-0.00955719
-0.00961737
-0.00963507
0.00315961
0.00296151
0.0026508
0.00215925
0.00139943
0.000288846
-0.0012604
-0.0033164
-0.00590216
-0.00898213
-0.0124641
-0.016219
-0.0201063
-0.0239955
-0.0277804
-0.0313855
-0.0347651
-0.0378977
-0.0407789
-0.0434144
-0.045815
-0.0479924
-0.0499575
-0.0517195
-0.0532853
-0.0546604
-0.0558489
-0.0568539
-0.0576781
-0.0583239
-0.0587933
-0.0590888
-0.0592134
-0.0591702
-0.0589623
-0.0585928
-0.0580651
-0.0573821
-0.0565462
-0.0555589
-0.0544206
-0.0531294
-0.0516813
-0.0500687
-0.0482795
-0.0462958
-0.0440931
-0.0416394
-0.0388967
-0.0358265
-0.0324021
-0.0286321
-0.0245944
-0.0204745
-0.0165841
-0.0133194
-0.0110218
-0.00979771
-0.00945338
-0.00954344
-0.00969116
-0.00981644
-0.00989381
-0.00992178
0.00303878
0.00282413
0.00246302
0.00186484
0.000923367
-0.000451555
-0.00234198
-0.00479363
-0.00779508
-0.0112702
-0.0150917
-0.0191086
-0.0231729
-0.0271601
-0.0309784
-0.0345706
-0.0379089
-0.0409867
-0.0438103
-0.0463924
-0.048747
-0.0508872
-0.052824
-0.0545656
-0.0561183
-0.0574866
-0.0586738
-0.0596825
-0.0605147
-0.0611723
-0.0616572
-0.0619715
-0.0621173
-0.0620973
-0.0619139
-0.0615696
-0.0610669
-0.0604081
-0.0595948
-0.0586282
-0.0575085
-0.0562343
-0.0548028
-0.0532086
-0.0514431
-0.0494933
-0.0473402
-0.0449573
-0.0423098
-0.0393553
-0.0360507
-0.0323678
-0.0283239
-0.0240248
-0.0197108
-0.015769
-0.0126534
-0.0106828
-0.0098556
-0.009815
-0.00998018
-0.0101269
-0.0102272
-0.0102701
0.00264138
0.00240826
0.00198983
0.0012739
0.00013994
-0.00150418
-0.00372755
-0.00654836
-0.00991814
-0.0137229
-0.0178075
-0.0220081
-0.0261779
-0.030204
-0.0340122
-0.0375637
-0.0408465
-0.0438655
-0.0466344
-0.0491695
-0.0514862
-0.0535975
-0.0555132
-0.0572406
-0.058785
-0.0601499
-0.0613381
-0.0623515
-0.0631919
-0.0638608
-0.0643599
-0.0646908
-0.0648554
-0.0648557
-0.0646937
-0.0643714
-0.0638906
-0.063253
-0.0624596
-0.0615113
-0.0604077
-0.059148
-0.0577298
-0.0561492
-0.0544004
-0.0524741
-0.050357
-0.048029
-0.0454618
-0.0426168
-0.0394463
-0.035902
-0.0319567
-0.0276436
-0.0231118
-0.0186782
-0.0148187
-0.0120238
-0.010526
-0.0101604
-0.0103307
-0.0104979
-0.0106259
-0.01069
0.00193687
0.00168344
0.00120339
0.00036477
-0.000962003
-0.00286558
-0.00539656
-0.00854341
-0.0122209
-0.0162827
-0.0205544
-0.0248673
-0.0290822
-0.0331019
-0.03687
-0.0403646
-0.0435859
-0.0465474
-0.0492668
-0.0517619
-0.0540478
-0.0561364
-0.0580363
-0.0597536
-0.0612925
-0.0626559
-0.063846
-0.0648644
-0.0657125
-0.0663918
-0.0669035
-0.0672491
-0.0674302
-0.0674483
-0.067305
-0.067002
-0.0665406
-0.0659219
-0.0651466
-0.0642151
-0.063127
-0.0618811
-0.0604755
-0.0589073
-0.0571721
-0.0552637
-0.053173
-0.0508861
-0.0483819
-0.0456291
-0.042584
-0.0391919
-0.0353994
-0.0311846
-0.0266093
-0.0218903
-0.0174482
-0.0138515
-0.011568
-0.0106658
-0.0107426
-0.0109436
-0.0111004
-0.0111939
0.000915916
0.000641081
9.84998e-05
-0.000861018
-0.00237066
-0.0045109
-0.00731123
-0.0107298
-0.014648
-0.0188944
-0.0232829
-0.027647
-0.0318596
-0.03584
-0.0395492
-0.0429785
-0.0461378
-0.0490453
-0.0517209
-0.054182
-0.0564426
-0.058513
-0.0604005
-0.0621101
-0.0636451
-0.0650079
-0.0662001
-0.0672233
-0.0680786
-0.0687671
-0.0692899
-0.0696485
-0.0698439
-0.0698775
-0.0697506
-0.0694645
-0.0690201
-0.0684184
-0.0676598
-0.0667442
-0.065671
-0.0644392
-0.0630469
-0.0614916
-0.0597699
-0.0578775
-0.0558082
-0.0535529
-0.0510972
-0.048418
-0.0454795
-0.0422307
-0.0386078
-0.0345538
-0.0300612
-0.0252431
-0.0204182
-0.016139
-0.0130379
-0.0114516
-0.01122
-0.0114868
-0.0116656
-0.0117963
-0.000409273
-0.00070488
-0.00130731
-0.00237959
-0.00405346
-0.0063979
-0.00942105
-0.0130519
-0.0171437
-0.0215071
-0.0259517
-0.0303178
-0.0344926
-0.0384119
-0.0420512
-0.0454125
-0.0485118
-0.05137
-0.0540068
-0.0564386
-0.0586778
-0.0607331
-0.0626103
-0.0643135
-0.0658454
-0.0672079
-0.0684023
-0.0694299
-0.0702916
-0.0709883
-0.0715211
-0.0718909
-0.0720988
-0.0721459
-0.0720332
-0.0717618
-0.0713325
-0.0707459
-0.0700022
-0.0691015
-0.068043
-0.0668255
-0.0654474
-0.0639063
-0.0621993
-0.0603233
-0.0582739
-0.0560452
-0.0536282
-0.0510071
-0.0481555
-0.0450308
-0.0415711
-0.0377027
-0.0333699
-0.0285977
-0.0235867
-0.0188038
-0.0149414
-0.0125929
-0.0118376
-0.0121359
-0.0123405
-0.012511
-0.00200625
-0.00231965
-0.00297624
-0.00414808
-0.00596142
-0.00847207
-0.0116679
-0.0154516
-0.0196545
-0.0240762
-0.0285272
-0.0328578
-0.0369703
-0.0408151
-0.0443797
-0.0476735
-0.0507162
-0.0535292
-0.0561315
-0.0585376
-0.060758
-0.0628
-0.0646682
-0.0663659
-0.0678951
-0.0692574
-0.0704539
-0.0714855
-0.0723531
-0.0730572
-0.0735988
-0.0739785
-0.0741973
-0.0742561
-0.0741557
-0.0738969
-0.0734806
-0.0729072
-0.072177
-0.0712899
-0.0702453
-0.0690421
-0.0676787
-0.0661529
-0.0644624
-0.0626042
-0.0605752
-0.0583717
-0.055988
-0.0534145
-0.0506332
-0.0476119
-0.0442975
-0.0406142
-0.0364787
-0.0318506
-0.0268201
-0.0217308
-0.0172401
-0.0141182
-0.0127331
-0.0128763
-0.0131488
-0.0133546
-0.00382564
-0.00415256
-0.00485505
-0.00610987
-0.00803463
-0.0106719
-0.0139908
-0.0178723
-0.0221317
-0.0265632
-0.0309822
-0.0352509
-0.0392853
-0.0430488
-0.0465377
-0.0497665
-0.0527563
-0.0555282
-0.0580993
-0.0604822
-0.0626857
-0.0647156
-0.0665756
-0.0682683
-0.0697952
-0.0711574
-0.072356
-0.0733914
-0.0742643
-0.0749753
-0.0755247
-0.0759132
-0.0761415
-0.0762103
-0.0761203
-0.0758724
-0.0754671
-0.0749051
-0.0741867
-0.0733118
-0.07228
-0.0710905
-0.0697418
-0.0682321
-0.0665592
-0.0647205
-0.0627135
-0.0605355
-0.0581832
-0.0556512
-0.0529286
-0.049993
-0.046803
-0.0432903
-0.0393623
-0.0349346
-0.0300091
-0.024798
-0.0198573
-0.0160312
-0.0139803
-0.013711
-0.0141302
-0.0143477
-0.00580693
-0.00614209
-0.00688059
-0.00820031
-0.0102078
-0.0129333
-0.0163298
-0.020261
-0.0245318
-0.0289357
-0.0332952
-0.0374845
-0.0414325
-0.0451126
-0.0485276
-0.0516948
-0.0546357
-0.0573698
-0.0599123
-0.0622739
-0.0644618
-0.0664805
-0.068333
-0.0700211
-0.071546
-0.0729085
-0.0741092
-0.0751483
-0.0760264
-0.0767435
-0.0773001
-0.0776964
-0.0779329
-0.0780103
-0.0779293
-0.0776904
-0.0772944
-0.076742
-0.0760335
-0.0751692
-0.0741489
-0.0729721
-0.0716376
-0.070144
-0.0684893
-0.0666712
-0.0646876
-0.0625365
-0.0602157
-0.0577227
-0.0550516
-0.0521887
-0.0491043
-0.0457425
-0.0420145
-0.0378127
-0.0330742
-0.0278937
-0.022692
-0.0182886
-0.0155599
-0.014731
-0.0152819
-0.0155123
-0.00788398
-0.00822112
-0.00898517
-0.0103519
-0.0124152
-0.0151943
-0.0186288
-0.0225701
-0.0268175
-0.0311665
-0.0354485
-0.0395489
-0.0434074
-0.0470055
-0.05035
-0.0534597
-0.0563554
-0.0590547
-0.0615709
-0.0639128
-0.0660863
-0.0680947
-0.0699403
-0.0716243
-0.0731477
-0.0745107
-0.0757136
-0.0767566
-0.0776396
-0.0783625
-0.0789256
-0.0793288
-0.0795726
-0.0796574
-0.0795837
-0.0793523
-0.0789639
-0.0784192
-0.077719
-0.0768636
-0.0758533
-0.0746878
-0.0733665
-0.0718883
-0.0702516
-0.0684547
-0.0664955
-0.0643725
-0.0620842
-0.0596297
-0.0570067
-0.054208
-0.0512146
-0.0479842
-0.0444397
-0.0404686
-0.0359638
-0.0309278
-0.0256363
-0.0208078
-0.0174324
-0.0160505
-0.0165751
-0.0168552
-0.00999003
-0.0103221
-0.0111015
-0.0124987
-0.0145938
-0.0173969
-0.0208374
-0.0247583
-0.0289569
-0.0332334
-0.0374277
-0.0414358
-0.045206
-0.0487256
-0.0520043
-0.055061
-0.0579152
-0.0605825
-0.0630744
-0.0653982
-0.0675582
-0.0695572
-0.0713966
-0.0730773
-0.0745995
-0.0759635
-0.077169
-0.0782159
-0.0791037
-0.0798322
-0.0804012
-0.0808107
-0.0810607
-0.0811517
-0.0810841
-0.0808587
-0.0804763
-0.0799378
-0.079244
-0.0783958
-0.0773936
-0.0762379
-0.0749283
-0.0734643
-0.071845
-0.0700689
-0.0681345
-0.0660403
-0.0637855
-0.0613701
-0.0587939
-0.0560546
-0.0531418
-0.0500265
-0.0466469
-0.0428977
-0.0386488
-0.0338326
-0.0285932
-0.023505
-0.019586
-0.0177051
-0.017969
-0.0183772
-0.0120614
-0.0123811
-0.0131664
-0.0145798
-0.0166866
-0.0194898
-0.0229116
-0.0267903
-0.0309237
-0.0351177
-0.0392209
-0.0431378
-0.0468239
-0.0502705
-0.0534887
-0.056497
-0.0593133
-0.0619515
-0.0644211
-0.0667282
-0.0688761
-0.0708666
-0.0727007
-0.0743787
-0.0759006
-0.077266
-0.0784744
-0.0795253
-0.080418
-0.0811518
-0.0817264
-0.0821414
-0.0823969
-0.0824931
-0.0824304
-0.0822096
-0.0818317
-0.0812976
-0.0806086
-0.0797658
-0.0787701
-0.0776222
-0.0763226
-0.0748713
-0.0732679
-0.0715116
-0.0696014
-0.0675361
-0.0653153
-0.0629395
-0.06041
-0.0577277
-0.054889
-0.0518763
-0.048644
-0.0451012
-0.0411126
-0.0365604
-0.0314837
-0.0263045
-0.0219984
-0.019653
-0.019467
-0.0200705
-0.0140407
-0.0143425
-0.0151241
-0.0165415
-0.018644
-0.0214292
-0.0248146
-0.0286369
-0.0326962
-0.0368044
-0.0408178
-0.0446482
-0.0482565
-0.0516366
-0.0548003
-0.0577651
-0.0605472
-0.0631591
-0.0656086
-0.0679007
-0.0700378
-0.072021
-0.0738508
-0.075527
-0.0770492
-0.0784166
-0.0796284
-0.0806835
-0.0815811
-0.0823201
-0.0828999
-0.08332
-0.0835801
-0.0836805
-0.0836217
-0.0834043
-0.0830294
-0.0824983
-0.0818124
-0.0809731
-0.0799819
-0.07884
-0.0775484
-0.0761078
-0.0745185
-0.0727804
-0.070893
-0.0688558
-0.0666687
-0.0643327
-0.0618499
-0.0592235
-0.0564548
-0.0535357
-0.0504357
-0.0470818
-0.0433457
-0.0390794
-0.0342454
-0.0291262
-0.0245931
-0.0218211
-0.021132
-0.0219284
-0.0158745
-0.0161601
-0.0169273
-0.0183388
-0.0204248
-0.0231789
-0.0265165
-0.0302745
-0.0342568
-0.0382809
-0.0422095
-0.0459607
-0.049499
-0.0528202
-0.0559357
-0.058862
-0.0616139
-0.0642023
-0.0666341
-0.068913
-0.0710407
-0.073018
-0.0748446
-0.0765199
-0.0780432
-0.0794133
-0.0806289
-0.0816886
-0.0825911
-0.0833353
-0.08392
-0.0843446
-0.0846089
-0.0847127
-0.0846566
-0.0844414
-0.0840683
-0.0835386
-0.0828541
-0.0820166
-0.081028
-0.0798899
-0.0786042
-0.0771721
-0.0755946
-0.0738724
-0.0720059
-0.0699951
-0.0678405
-0.0655435
-0.063107
-0.0605356
-0.0578343
-0.0550025
-0.0520227
-0.0488402
-0.0453419
-0.0413689
-0.0368291
-0.0318868
-0.0272663
-0.0241313
-0.0230256
-0.0239437
-0.0175264
-0.0177868
-0.018539
-0.0199357
-0.021996
-0.0247108
-0.0279937
-0.0316845
-0.0355916
-0.0395367
-0.0433885
-0.0470694
-0.0505468
-0.053817
-0.0568909
-0.0597839
-0.0625096
-0.0650778
-0.0674942
-0.069762
-0.0718821
-0.0738548
-0.0756794
-0.077355
-0.0788803
-0.0802537
-0.0814737
-0.0825383
-0.083446
-0.0841952
-0.0847847
-0.0852135
-0.0854813
-0.0855878
-0.0855336
-0.0853195
-0.0849468
-0.0844172
-0.0837325
-0.0828949
-0.0819068
-0.0807704
-0.0794881
-0.0780619
-0.0764936
-0.0747847
-0.0729363
-0.0709494
-0.0688251
-0.0665655
-0.0641739
-0.0616564
-0.0590202
-0.0562708
-0.0534014
-0.0503745
-0.0470966
-0.0434132
-0.0391944
-0.034511
-0.0299253
-0.0265352
-0.0251351
-0.0260853
-0.0189688
-0.0191916
-0.0199283
-0.0213039
-0.0233337
-0.0260043
-0.029229
-0.0328526
-0.03669
-0.0405633
-0.0443479
-0.0479689
-0.0513952
-0.0546229
-0.057662
-0.0605271
-0.0632308
-0.065782
-0.0681857
-0.0704444
-0.0725588
-0.0745284
-0.0763525
-0.0780294
-0.0795577
-0.0809353
-0.0821601
-0.0832301
-0.0841432
-0.0848976
-0.0854917
-0.0859245
-0.0861953
-0.0863039
-0.0862508
-0.0860368
-0.0856633
-0.0851322
-0.0844456
-0.0836062
-0.0826165
-0.0814795
-0.0801981
-0.078775
-0.0772129
-0.0755141
-0.0736806
-0.0717143
-0.0696172
-0.067392
-0.0650431
-0.0625771
-0.0600036
-0.0573322
-0.0545649
-0.0516798
-0.0486041
-0.0451977
-0.0413077
-0.0369355
-0.0324924
-0.0289811
-0.027385
-0.0282869
-0.020182
-0.0203603
-0.021072
-0.0224239
-0.0244221
-0.0270465
-0.030212
-0.0337699
-0.0375431
-0.0413527
-0.0450816
-0.0486543
-0.0520397
-0.0552336
-0.058245
-0.0610876
-0.0637736
-0.0663112
-0.068705
-0.070957
-0.0730675
-0.0750358
-0.0768607
-0.0785403
-0.0800725
-0.0814551
-0.0826856
-0.0837615
-0.0846803
-0.0854401
-0.0860389
-0.0864754
-0.0867489
-0.086859
-0.0868062
-0.0865914
-0.0862159
-0.085682
-0.0849919
-0.0841486
-0.0831553
-0.0820152
-0.0807319
-0.079309
-0.0777497
-0.0760573
-0.0742348
-0.0722851
-0.0702112
-0.0680166
-0.0657066
-0.0632888
-0.0607743
-0.0581763
-0.0555038
-0.0527479
-0.0498564
-0.0467082
-0.043142
-0.039109
-0.0348941
-0.0313829
-0.0296712
-0.0304642
-0.0211549
-0.0212834
-0.0219612
-0.0232839
-0.0252508
-0.0278322
-0.0309423
-0.034436
-0.0381427
-0.0418994
-0.0455846
-0.0491213
-0.0524766
-0.0556454
-0.0586361
-0.0614616
-0.0641343
-0.0666619
-0.0690486
-0.0712962
-0.073405
-0.0753738
-0.077201
-0.0788845
-0.0804219
-0.0818105
-0.0830474
-0.0841298
-0.0850549
-0.0858203
-0.0864239
-0.0868641
-0.0871401
-0.0872513
-0.0871982
-0.0869816
-0.0866031
-0.0860649
-0.0853697
-0.0845207
-0.0835213
-0.0823756
-0.0810875
-0.0796613
-0.0781011
-0.0764111
-0.0745953
-0.0726575
-0.0706018
-0.0684328
-0.0661568
-0.0637824
-0.0613223
-0.058792
-0.0562068
-0.0535684
-0.050843
-0.047931
-0.0446749
-0.0409904
-0.0370621
-0.0336466
-0.0318839
-0.0325361
-0.0218849
-0.0219588
-0.0225957
-0.0238827
-0.0258139
-0.0283516
-0.0314091
-0.0348462
-0.0384981
-0.04221
-0.0458597
-0.0493692
-0.0527032
-0.0558547
-0.0588314
-0.0616459
-0.0643096
-0.0668305
-0.0692129
-0.0714587
-0.0735678
-0.075539
-0.0773702
-0.0790592
-0.0806031
-0.0819987
-0.0832429
-0.0843327
-0.0852646
-0.086036
-0.0866447
-0.0870888
-0.0873671
-0.0874792
-0.0874252
-0.0872061
-0.0868235
-0.0862797
-0.0855777
-0.0847209
-0.0837132
-0.082559
-0.081263
-0.0798299
-0.0782648
-0.0765727
-0.0747584
-0.0728271
-0.0707838
-0.0686344
-0.0663862
-0.0640492
-0.0616371
-0.0591681
-0.0566618
-0.0541292
-0.0515522
-0.0488532
-0.0458871
-0.0425459
-0.0389373
-0.0356876
-0.0339281
-0.0344327
-0.0223773
-0.0223928
-0.0229828
-0.0242272
-0.0261163
-0.0286072
-0.0316138
-0.0350012
-0.0386092
-0.0422853
-0.0459077
-0.0493979
-0.0527181
-0.0558594
-0.0588281
-0.0616365
-0.0642955
-0.0668133
-0.0691945
-0.0714411
-0.0735528
-0.0755283
-0.0773655
-0.0790615
-0.0806132
-0.0820172
-0.08327
-0.0843678
-0.0853074
-0.0860856
-0.0866999
-0.087148
-0.0874288
-0.0875415
-0.0874862
-0.0872639
-0.0868762
-0.0863255
-0.085615
-0.0847484
-0.0837299
-0.0825644
-0.0812569
-0.0798131
-0.0782386
-0.0765393
-0.0747212
-0.0727902
-0.0707527
-0.0686158
-0.066388
-0.0640807
-0.061709
-0.0592932
-0.0568566
-0.0544177
-0.0519719
-0.0494625
-0.0467618
-0.0437479
-0.0404714
-0.0374363
-0.0357287
-0.0360962
-0.0226445
-0.0226003
-0.0231375
-0.0243311
-0.0261712
-0.0286111
-0.0315661
-0.0349067
-0.0384765
-0.0421239
-0.045727
-0.0492054
-0.0525191
-0.0556566
-0.0586231
-0.0614301
-0.0640886
-0.0666069
-0.06899
-0.07124
-0.0733567
-0.0753388
-0.0771838
-0.0788886
-0.0804499
-0.0818638
-0.0831263
-0.0842336
-0.0851819
-0.0859677
-0.0865882
-0.0870409
-0.0873243
-0.0874376
-0.0873807
-0.0871546
-0.0867609
-0.0862021
-0.0854815
-0.0846029
-0.0835711
-0.0823912
-0.0810686
-0.0796098
-0.0780212
-0.0763094
-0.0744811
-0.0725437
-0.0705045
-0.0683719
-0.0661559
-0.0638692
-0.0615288
-0.0591566
-0.0567792
-0.0544214
-0.0520897
-0.0497467
-0.0472845
-0.0445746
-0.0416271
-0.0388387
-0.0372284
-0.0374791
-0.0227054
-0.022603
-0.0230811
-0.0242144
-0.0259969
-0.02838
-0.03128
-0.0345722
-0.0381048
-0.0417273
-0.0453165
-0.0487897
-0.0521034
-0.0552434
-0.0582132
-0.0610236
-0.0636856
-0.0662079
-0.068596
-0.0708522
-0.0729765
-0.0749675
-0.0768225
-0.0785383
-0.080111
-0.0815365
-0.0828106
-0.0839288
-0.084887
-0.0856816
-0.0863091
-0.0867671
-0.0870536
-0.0871677
-0.0871092
-0.0868788
-0.0864782
-0.08591
-0.0851775
-0.0842849
-0.083237
-0.0820394
-0.0806981
-0.07922
-0.077612
-0.0758818
-0.0740367
-0.0720852
-0.0700361
-0.0678988
-0.0656846
-0.0634082
-0.0610882
-0.0587483
-0.0564183
-0.0541282
-0.0518937
-0.0496942
-0.0474421
-0.0450088
-0.0423762
-0.039854
-0.0383827
-0.0385408
-0.022584
-0.0224286
-0.022841
-0.0239025
-0.0256162
-0.0279337
-0.0307717
-0.0340104
-0.0375027
-0.0411001
-0.0446781
-0.0481503
-0.051469
-0.0546168
-0.0575951
-0.0604134
-0.063083
-0.065613
-0.0680093
-0.0702746
-0.0724092
-0.0744116
-0.0762792
-0.0780083
-0.0795947
-0.081034
-0.0823215
-0.0834525
-0.0844223
-0.085227
-0.0858629
-0.0863271
-0.0866175
-0.0867327
-0.0866725
-0.0864376
-0.0860295
-0.0854507
-0.0847047
-0.0837958
-0.0827291
-0.0815104
-0.0801464
-0.078644
-0.0770112
-0.0752561
-0.0733872
-0.0714139
-0.0693459
-0.0671939
-0.0649706
-0.0626928
-0.0603799
-0.0580594
-0.0557636
-0.0535267
-0.0513725
-0.0492943
-0.0472236
-0.0450376
-0.0426991
-0.0404523
-0.0391551
-0.0392443
-0.0223083
-0.022109
-0.0224488
-0.023425
-0.0250556
-0.0272952
-0.0300607
-0.0332368
-0.0366819
-0.0402501
-0.0438156
-0.047288
-0.0506148
-0.0537745
-0.0567654
-0.059596
-0.0622772
-0.0648185
-0.0672263
-0.0695039
-0.0716519
-0.0736687
-0.0755517
-0.0772968
-0.0788996
-0.0803553
-0.0816586
-0.0828045
-0.0837881
-0.0846047
-0.0852505
-0.0857222
-0.0860173
-0.0861344
-0.0860729
-0.0858332
-0.0854169
-0.0848265
-0.0840654
-0.0831381
-0.0820498
-0.0808066
-0.0794154
-0.0778839
-0.0762203
-0.0744336
-0.0725331
-0.070529
-0.0684323
-0.066255
-0.0640118
-0.0617203
-0.0593992
-0.0570839
-0.0548064
-0.052607
-0.050516
-0.0485371
-0.04662
-0.0446515
-0.0425834
-0.0406136
-0.039513
-0.0395542
-0.0219091
-0.0216778
-0.0219388
-0.0228154
-0.0243461
-0.0264916
-0.02917
-0.0322702
-0.0356567
-0.0391871
-0.0427347
-0.0462051
-0.0495403
-0.0527139
-0.0557208
-0.0585673
-0.0612639
-0.0638203
-0.0662433
-0.0685368
-0.0707015
-0.0727362
-0.0746378
-0.0764023
-0.0780247
-0.0794998
-0.0808219
-0.0819855
-0.0829851
-0.083816
-0.0844736
-0.0849545
-0.0852557
-0.0853755
-0.0853131
-0.0850688
-0.084644
-0.084041
-0.0832633
-0.0823153
-0.0812025
-0.0799312
-0.0785086
-0.0769426