/*--------------------------------*- C++ -*----------------------------------*\
| =========                 |                                                 |
| \\      /  F ield         | OpenFOAM: The Open Source CFD Toolbox           |
|  \\    /   O peration     | Version:  2406                                  |
|   \\  /    A nd           | Website:  www.openfoam.com                      |
|    \\/     M anipulation  |                                                 |
\*---------------------------------------------------------------------------*/
FoamFile
{
    version     2.0;
    format      ascii;
    arch        "LSB;label=32;scalar=64";
    class       volVectorField;
    location    "51.5";
    object      U;
}
// * * * * * * * * * * * * * * * * * * * * * * * * * * * * * * * * * * * * * //

dimensions      [0 1 -1 0 0 0 0];

internalField   nonuniform List<vector> 
4096
(
(-1.95637e-05 1.21003e-05 0)
(0.0003611 -9.49791e-05 0)
(0.00118121 -0.000174212 0)
(0.00217102 -0.00019541 0)
(0.00312271 -0.000168891 0)
(0.00388756 -0.00012109 0)
(0.00440611 -7.52735e-05 0)
(0.00469709 -4.62286e-05 0)
(0.00482305 -3.93175e-05 0)
(0.00485443 -5.1923e-05 0)
(0.00484246 -7.57878e-05 0)
(0.00480338 -0.000102218 0)
(0.00471595 -0.000124476 0)
(0.00453101 -0.000139319 0)
(0.00418334 -0.00014563 0)
(0.00360102 -0.000143932 0)
(0.00270953 -0.000132884 0)
(0.00143212 -0.000110543 0)
(-0.000308559 -7.44954e-05 0)
(-0.00258851 -2.29478e-05 0)
(-0.00547541 4.61021e-05 0)
(-0.00901979 0.000135532 0)
(-0.0132456 0.000252483 0)
(-0.0181384 0.000408138 0)
(-0.023637 0.000611751 0)
(-0.0296281 0.000861774 0)
(-0.0359461 0.00114029 0)
(-0.0423763 0.00141453 0)
(-0.0486616 0.0016444 0)
(-0.0545158 0.00179218 0)
(-0.0596419 0.00183035 0)
(-0.0637547 0.00174265 0)
(-0.066598 0.00151892 0)
(-0.0679501 0.00116332 0)
(-0.0676162 0.000729895 0)
(-0.0654221 0.000225574 0)
(-0.0613331 -0.00033726 0)
(-0.0553959 -0.000920761 0)
(-0.0477368 -0.00147927 0)
(-0.0385845 -0.0019637 0)
(-0.028276 -0.0023239 0)
(-0.0172483 -0.00251207 0)
(-0.00598367 -0.00249998 0)
(0.00488687 -0.00230394 0)
(0.0147551 -0.00184933 0)
(0.0231035 -0.00121033 0)
(0.0294531 -0.000466723 0)
(0.0335154 0.000267156 0)
(0.0352375 0.000889138 0)
(0.0347795 0.00131203 0)
(0.0325222 0.00152588 0)
(0.028984 0.00152961 0)
(0.0247293 0.00136931 0)
(0.0202868 0.00112229 0)
(0.0160625 0.000859311 0)
(0.0123076 0.000624864 0)
(0.00913261 0.000437576 0)
(0.00654311 0.000299419 0)
(0.004481 0.000203643 0)
(0.00286116 0.000139828 0)
(0.00160552 9.38952e-05 0)
(0.000675974 4.46138e-05 0)
(8.6787e-05 -2.85145e-05 0)
(-7.91326e-05 -9.51958e-05 0)
(6.79194e-05 -0.000349134 0)
(0.00113245 -0.00117584 0)
(0.00297847 -0.0017161 0)
(0.00510767 -0.00183878 0)
(0.00710728 -0.00161623 0)
(0.00868997 -0.00120156 0)
(0.00972593 -0.000748931 0)
(0.0102214 -0.000368438 0)
(0.0102622 -0.000108379 0)
(0.00995038 4.19486e-05 0)
(0.00934979 0.000135023 0)
(0.00845296 0.00023881 0)
(0.00717598 0.0004152 0)
(0.00537586 0.00070461 0)
(0.00287293 0.00113061 0)
(-0.000527169 0.0017016 0)
(-0.00501984 0.00242224 0)
(-0.010791 0.00329517 0)
(-0.0179975 0.00431827 0)
(-0.0267437 0.00548098 0)
(-0.0370481 0.00676025 0)
(-0.0488108 0.00810964 0)
(-0.0617936 0.00945071 0)
(-0.0756234 0.0106746 0)
(-0.089821 0.0116586 0)
(-0.103849 0.0122882 0)
(-0.117165 0.0124725 0)
(-0.12927 0.0121525 0)
(-0.139733 0.0113014 0)
(-0.1482 0.00992388 0)
(-0.154402 0.00805228 0)
(-0.158145 0.00574256 0)
(-0.159297 0.00306893 0)
(-0.157747 0.000125141 0)
(-0.153436 -0.00296634 0)
(-0.146374 -0.0061491 0)
(-0.13665 -0.00930922 0)
(-0.124399 -0.0123174 0)
(-0.109837 -0.0150247 0)
(-0.0932705 -0.0172714 0)
(-0.0751055 -0.0188942 0)
(-0.0558459 -0.0197392 0)
(-0.0360714 -0.0196872 0)
(-0.0164597 -0.0187026 0)
(0.00222611 -0.0167101 0)
(0.0192042 -0.0138238 0)
(0.033756 -0.0101941 0)
(0.0452761 -0.00617594 0)
(0.0533804 -0.00212919 0)
(0.0579146 0.00154683 0)
(0.0589802 0.0045138 0)
(0.0569044 0.00658786 0)
(0.0523088 0.00769534 0)
(0.0460052 0.00791987 0)
(0.0388384 0.00747374 0)
(0.031552 0.00661818 0)
(0.0247 0.00559112 0)
(0.0186127 0.00456696 0)
(0.0134212 0.00364862 0)
(0.0091184 0.00287086 0)
(0.00563504 0.00220305 0)
(0.00291882 0.0015555 0)
(0.00100345 0.000827492 0)
(3.36163e-05 0.000103714 0)
(0.000142497 -0.00111205 0)
(0.00171826 -0.0030047 0)
(0.00419601 -0.00410297 0)
(0.00691555 -0.00427395 0)
(0.0093511 -0.00369513 0)
(0.011159 -0.00268544 0)
(0.0121828 -0.00156222 0)
(0.0124125 -0.000551148 0)
(0.0119149 0.000249921 0)
(0.0107594 0.000869474 0)
(0.00895449 0.00142541 0)
(0.0064131 0.00207198 0)
(0.00295087 0.00295308 0)
(-0.00168356 0.00416696 0)
(-0.00777802 0.00576586 0)
(-0.0156225 0.00776771 0)
(-0.0254674 0.0101652 0)
(-0.0374819 0.0129262 0)
(-0.0516921 0.0159741 0)
(-0.0679224 0.0191624 0)
(-0.0857657 0.0222643 0)
(-0.104613 0.0249988 0)
(-0.123742 0.0270914 0)
(-0.142432 0.0283339 0)
(-0.160045 0.0286129 0)
(-0.176075 0.0279034 0)
(-0.190143 0.0262438 0)
(-0.201987 0.0237081 0)
(-0.211428 0.0203856 0)
(-0.218352 0.0163696 0)
(-0.22269 0.0117584 0)
(-0.224404 0.00666457 0)
(-0.223478 0.00122078 0)
(-0.219928 -0.00444512 0)
(-0.213728 -0.0102753 0)
(-0.204966 -0.0161308 0)
(-0.193661 -0.0218563 0)
(-0.179914 -0.0272661 0)
(-0.163849 -0.0321481 0)
(-0.145674 -0.0362617 0)
(-0.125671 -0.0393511 0)
(-0.104218 -0.0411617 0)
(-0.0817854 -0.0414738 0)
(-0.0589518 -0.0401477 0)
(-0.0363873 -0.0371301 0)
(-0.0148086 -0.03248 0)
(0.00495432 -0.0264208 0)
(0.0221706 -0.0193449 0)
(0.0362867 -0.0117757 0)
(0.0468475 -0.00434343 0)
(0.0536874 0.00234088 0)
(0.0568587 0.00777868 0)
(0.0565841 0.0116962 0)
(0.0534007 0.0139904 0)
(0.0480436 0.0147711 0)
(0.0413275 0.0143304 0)
(0.0340378 0.0130607 0)
(0.0268262 0.0113583 0)
(0.0201447 0.00954593 0)
(0.0142401 0.00781992 0)
(0.0092082 0.00622263 0)
(0.00508819 0.00464433 0)
(0.00199394 0.00289096 0)
(0.00017073 0.000919904 0)
(0.000194907 -0.0021294 0)
(0.00211107 -0.00529769 0)
(0.00493511 -0.00694037 0)
(0.00784741 -0.00701235 0)
(0.0102409 -0.00586661 0)
(0.0117576 -0.00402855 0)
(0.0122475 -0.00199108 0)
(0.0116917 -8.71024e-05 0)
(0.010118 0.0015562 0)
(0.00752018 0.00301528 0)
(0.00379584 0.00450108 0)
(-0.00127024 0.00627569 0)
(-0.00798964 0.00856791 0)
(-0.0167195 0.0115266 0)
(-0.0277989 0.0152066 0)
(-0.0414808 0.0195811 0)
(-0.0578429 0.0245298 0)
(-0.0766983 0.0298121 0)
(-0.0975464 0.0350525 0)
(-0.11962 0.0397902 0)
(-0.14203 0.043587 0)
(-0.163936 0.046127 0)
(-0.184652 0.0472523 0)
(-0.203685 0.0469412 0)
(-0.220708 0.0452652 0)
(-0.235534 0.0423472 0)
(-0.248069 0.0383304 0)
(-0.258282 0.033359 0)
(-0.266175 0.0275661 0)
(-0.27176 0.0210722 0)
(-0.275039 0.0139912 0)
(-0.276001 0.00644179 0)
(-0.274646 -0.00145444 0)
(-0.271041 -0.00960467 0)
(-0.265126 -0.0179326 0)
(-0.256894 -0.0262701 0)
(-0.246301 -0.034451 0)
(-0.233349 -0.0422498 0)
(-0.218052 -0.0494071 0)
(-0.200484 -0.0556128 0)
(-0.180784 -0.0605247 0)
(-0.159183 -0.0637839 0)
(-0.136021 -0.0650536 0)
(-0.111761 -0.0640684 0)
(-0.0869961 -0.0606775 0)
(-0.0624375 -0.0549038 0)
(-0.0388957 -0.0470026 0)
(-0.0171587 -0.0373772 0)
(0.00198994 -0.0267204 0)
(0.0179438 -0.0158088 0)
(0.030313 -0.00543021 0)
(0.0389855 0.00367751 0)
(0.0440413 0.0109751 0)
(0.0457033 0.0161851 0)
(0.044427 0.0192494 0)
(0.0408253 0.0203504 0)
(0.0356083 0.0198691 0)
(0.0294974 0.0182993 0)
(0.0231269 0.0161327 0)
(0.0169766 0.0137481 0)
(0.011364 0.0113215 0)
(0.00650505 0.00877996 0)
(0.00267072 0.00583962 0)
(0.000265504 0.00220268 0)
(0.00024071 -0.00332365 0)
(0.00237165 -0.0078457 0)
(0.0052944 -0.00989867 0)
(0.00804407 -0.00962208 0)
(0.00996065 -0.00763099 0)
(0.0107043 -0.00469828 0)
(0.0101512 -0.00148789 0)
(0.00827148 0.00158875 0)
(0.00503142 0.00442713 0)
(0.00030989 0.0071995 0)
(-0.006148 0.0102357 0)
(-0.0147063 0.0139039 0)
(-0.0257737 0.0184849 0)
(-0.0397029 0.0241055 0)
(-0.0566801 0.0307037 0)
(-0.0766056 0.0380158 0)
(-0.0990082 0.0455696 0)
(-0.123067 0.0527416 0)
(-0.147771 0.0588948 0)
(-0.17214 0.0635328 0)
(-0.195385 0.0663765 0)
(-0.216964 0.0673503 0)
(-0.236553 0.0665248 0)
(-0.253991 0.0640543 0)
(-0.26923 0.0601297 0)
(-0.282285 0.0549467 0)
(-0.293208 0.0486885 0)
(-0.302064 0.041516 0)
(-0.308914 0.0335666 0)
(-0.313801 0.024957 0)
(-0.316739 0.0157895 0)
(-0.317727 0.00615623 0)
(-0.316777 -0.00386647 0)
(-0.31392 -0.0142138 0)
(-0.309102 -0.0247579 0)
(-0.302246 -0.035369 0)
(-0.293265 -0.0458637 0)
(-0.282071 -0.0560118 0)
(-0.26858 -0.0655181 0)
(-0.252731 -0.0740239 0)
(-0.234508 -0.0811106 0)
(-0.213965 -0.0863204 0)
(-0.191265 -0.0891903 0)
(-0.166706 -0.0893069 0)
(-0.140758 -0.0863735 0)
(-0.114079 -0.0802893 0)
(-0.0874952 -0.0712228 0)
(-0.0619423 -0.0596404 0)
(-0.0383792 -0.0463262 0)
(-0.0176316 -0.0322211 0)
(-0.000298873 -0.0183607 0)
(0.0133022 -0.00563501 0)
(0.0231837 0.00520371 0)
(0.0295278 0.0136808 0)
(0.0326164 0.019612 0)
(0.0328676 0.0230431 0)
(0.0308116 0.0242526 0)
(0.0270652 0.0237067 0)
(0.0222657 0.0219543 0)
(0.016996 0.0194924 0)
(0.0117365 0.0166185 0)
(0.00688118 0.0133143 0)
(0.00287941 0.00921715 0)
(0.000293277 0.00373262 0)
(0.000288501 -0.00464057 0)
(0.0025174 -0.0104705 0)
(0.0052795 -0.0126798 0)
(0.00750223 -0.011712 0)
(0.00851354 -0.00853719 0)
(0.00802202 -0.00420735 0)
(0.00593059 0.000465272 0)
(0.00218239 0.00505041 0)
(-0.0033434 0.00953541 0)
(-0.0109209 0.0142225 0)
(-0.020962 0.0195668 0)
(-0.0339104 0.0259848 0)
(-0.0501127 0.0336888 0)
(-0.0696562 0.042588 0)
(-0.0922378 0.0522598 0)
(-0.117121 0.0620012 0)
(-0.143248 0.0709792 0)
(-0.169487 0.0784419 0)
(-0.194863 0.0838813 0)
(-0.218685 0.0870728 0)
(-0.24054 0.0880193 0)
(-0.260226 0.0868667 0)
(-0.27769 0.083834 0)
(-0.292965 0.0791657 0)
(-0.30613 0.0731015 0)
(-0.317289 0.0658597 0)
(-0.326551 0.0576297 0)
(-0.334023 0.0485695 0)
(-0.3398 0.0388074 0)
(-0.343953 0.0284456 0)
(-0.34653 0.0175612 0)
(-0.347564 0.00620751 0)
(-0.347089 -0.00557633 0)
(-0.345125 -0.0177287 0)
(-0.341631 -0.030149 0)
(-0.336512 -0.0427261 0)
(-0.329659 -0.0552981 0)
(-0.32092 -0.0676485 0)
(-0.310123 -0.0794819 0)
(-0.297079 -0.0904194 0)
(-0.281603 -0.0999922 0)
(-0.263542 -0.107656 0)
(-0.242816 -0.11282 0)
(-0.219472 -0.114905 0)
(-0.193742 -0.113418 0)
(-0.166109 -0.108051 0)
(-0.13733 -0.0987854 0)
(-0.108428 -0.0859895 0)
(-0.0806012 -0.0704542 0)
(-0.0550538 -0.0533203 0)
(-0.032785 -0.0359155 0)
(-0.0144145 -0.0194851 0)
(-0.000108293 -0.00498134 0)
(0.010352 0.00695137 0)
(0.0173126 0.0160131 0)
(0.0211499 0.0221808 0)
(0.022297 0.0256415 0)
(0.0212487 0.0267881 0)
(0.0185583 0.0261358 0)
(0.0148046 0.0242096 0)
(0.010542 0.0213649 0)
(0.00629134 0.0176127 0)
(0.00264155 0.0125214 0)
(0.00025889 0.00524438 0)
(0.000335965 -0.00602215 0)
(0.00251141 -0.0129689 0)
(0.00480764 -0.0149557 0)
(0.00611115 -0.0128763 0)
(0.00578892 -0.00813897 0)
(0.00361827 -0.0020763 0)
(-0.000479952 0.00438447 0)
(-0.00662032 0.0108922 0)
(-0.0150495 0.017577 0)
(-0.0261833 0.0248787 0)
(-0.0404923 0.0333075 0)
(-0.0583123 0.0431641 0)
(-0.0796453 0.0543515 0)
(-0.104019 0.0663207 0)
(-0.130496 0.0781764 0)
(-0.157861 0.0889162 0)
(-0.184916 0.0977 0)
(-0.210715 0.104014 0)
(-0.234636 0.107676 0)
(-0.256348 0.108751 0)
(-0.275724 0.107442 0)
(-0.292769 0.104026 0)
(-0.307563 0.0987943 0)
(-0.320233 0.0920324 0)
(-0.330926 0.0839999 0)
(-0.339802 0.0749223 0)
(-0.347019 0.0649872 0)
(-0.35273 0.0543456 0)
(-0.357073 0.0431139 0)
(-0.360168 0.0313761 0)
(-0.36211 0.0191816 0)
(-0.362979 0.0065486 0)
(-0.362827 -0.00651393 0)
(-0.361677 -0.0199662 0)
(-0.35951 -0.033753 0)
(-0.356255 -0.0478023 0)
(-0.351797 -0.0620005 0)
(-0.345966 -0.0761769 0)
(-0.338535 -0.0900774 0)
(-0.329219 -0.103348 0)
(-0.31769 -0.11552 0)
(-0.303594 -0.126003 0)
(-0.286592 -0.134109 0)
(-0.26642 -0.139092 0)
(-0.24296 -0.140228 0)
(-0.216344 -0.136923 0)
(-0.187052 -0.128849 0)
(-0.155983 -0.11609 0)
(-0.12444 -0.0992606 0)
(-0.0940028 -0.0795364 0)
(-0.0662726 -0.0585299 0)
(-0.0425168 -0.0379755 0)
(-0.0233777 -0.0193327 0)
(-0.00881825 -0.00353858 0)
(0.00164003 0.00897279 0)
(0.00857918 0.0181649 0)
(0.012526 0.0242003 0)
(0.013963 0.0274559 0)
(0.0133798 0.0283854 0)
(0.0113194 0.0274808 0)
(0.00834976 0.025089 0)
(0.00505731 0.0212096 0)
(0.00210514 0.0153545 0)
(0.000187367 0.00652713 0)
(0.000372713 -0.00737837 0)
(0.00228064 -0.0150785 0)
(0.00375207 -0.0163502 0)
(0.00372624 -0.0126945 0)
(0.00166437 -0.00600905 0)
(-0.00259849 0.00212169 0)
(-0.00913875 0.0107593 0)
(-0.018146 0.0196787 0)
(-0.0300018 0.0291724 0)
(-0.0451638 0.0397532 0)
(-0.0639637 0.051795 0)
(-0.0863582 0.0652293 0)
(-0.111774 0.0794377 0)
(-0.139143 0.0933831 0)
(-0.167147 0.10592 0)
(-0.194536 0.116117 0)
(-0.220363 0.123435 0)
(-0.244038 0.127712 0)
(-0.26527 0.129052 0)
(-0.283967 0.12771 0)
(-0.300165 0.124012 0)
(-0.313985 0.118307 0)
(-0.325595 0.110933 0)
(-0.335195 0.102202 0)
(-0.342999 0.0923844 0)
(-0.349223 0.0817083 0)
(-0.354077 0.0703548 0)
(-0.357753 0.0584619 0)
(-0.360428 0.0461281 0)
(-0.362254 0.0334142 0)
(-0.363364 0.0203443 0)
(-0.363866 0.00691224 0)
(-0.363825 -0.00689831 0)
(-0.363268 -0.0210849 0)
(-0.362204 -0.0356399 0)
(-0.360604 -0.0505456 0)
(-0.358387 -0.0657512 0)
(-0.355408 -0.0811559 0)
(-0.351446 -0.0965821 0)
(-0.346196 -0.111751 0)
(-0.339259 -0.126256 0)
(-0.33015 -0.139542 0)
(-0.31832 -0.150898 0)
(-0.303204 -0.159475 0)
(-0.284301 -0.164342 0)
(-0.261281 -0.16459 0)
(-0.234131 -0.159479 0)
(-0.203311 -0.148626 0)
(-0.169871 -0.132206 0)
(-0.135471 -0.111114 0)
(-0.102202 -0.0869963 0)
(-0.0721994 -0.0620371 0)
(-0.0470836 -0.0384579 0)
(-0.0275119 -0.0179319 0)
(-0.0131734 -0.00127865 0)
(-0.00325474 0.0113923 0)
(0.00313827 0.0203437 0)
(0.00669811 0.0259886 0)
(0.00795711 0.0288027 0)
(0.0074719 0.0292426 0)
(0.00581076 0.0276115 0)
(0.00358277 0.0238705 0)
(0.00146354 0.0174977 0)
(0.000108966 0.00746887 0)
(0.000382196 -0.00857056 0)
(0.00174026 -0.0164692 0)
(0.00199096 -0.016452 0)
(0.000231095 -0.0107614 0)
(-0.00394661 -0.00176216 0)
(-0.0106337 0.00878282 0)
(-0.0199549 0.0200137 0)
(-0.0321956 0.0318527 0)
(-0.047764 0.044695 0)
(-0.0669818 0.0589405 0)
(-0.0898061 0.0745789 0)
(-0.115637 0.0909874 0)
(-0.14335 0.107042 0)
(-0.171554 0.121469 0)
(-0.198942 0.133228 0)
(-0.224533 0.141717 0)
(-0.247731 0.146767 0)
(-0.268249 0.148503 0)
(-0.28601 0.147225 0)
(-0.301075 0.143316 0)
(-0.313601 0.137186 0)
(-0.323806 0.12924 0)
(-0.331948 0.11985 0)
(-0.338299 0.109345 0)
(-0.343135 0.0979985 0)
(-0.346716 0.0860269 0)
(-0.349277 0.073594 0)
(-0.351025 0.060814 0)
(-0.35214 0.0477579 0)
(-0.35278 0.0344594 0)
(-0.353082 0.0209206 0)
(-0.353153 0.00712002 0)
(-0.353056 -0.00697461 0)
(-0.352817 -0.0213957 0)
(-0.352474 -0.0361808 0)
(-0.352046 -0.0513604 0)
(-0.351502 -0.0669429 0)
(-0.350762 -0.0829 0)
(-0.349671 -0.0991451 0)
(-0.347983 -0.115506 0)
(-0.34534 -0.131694 0)
(-0.341246 -0.147266 0)
(-0.335073 -0.161597 0)
(-0.326069 -0.17386 0)
(-0.31342 -0.183038 0)
(-0.296345 -0.187987 0)
(-0.274253 -0.187561 0)
(-0.246933 -0.180809 0)
(-0.214788 -0.16723 0)
(-0.179024 -0.147058 0)
(-0.141712 -0.121497 0)
(-0.105571 -0.0927627 0)
(-0.0734028 -0.063756 0)
(-0.0472454 -0.0372899 0)
(-0.0277158 -0.0152218 0)
(-0.0141148 0.00187655 0)
(-0.00516514 0.0143318 0)
(0.00029865 0.0227095 0)
(0.00312502 0.0276511 0)
(0.00398002 0.029647 0)
(0.00347321 0.0289795 0)
(0.00222589 0.0255784 0)
(0.000889606 0.0189225 0)
(4.78911e-05 0.00806619 0)
(0.000345302 -0.00940982 0)
(0.00082038 -0.0167641 0)
(-0.000551778 -0.0148657 0)
(-0.00440168 -0.0067157 0)
(-0.0109689 0.00493279 0)
(-0.0203265 0.0182349 0)
(-0.0326522 0.0324408 0)
(-0.048257 0.0476085 0)
(-0.0674333 0.0640693 0)
(-0.0901675 0.0818733 0)
(-0.115902 0.100455 0)
(-0.143523 0.118663 0)
(-0.171603 0.135112 0)
(-0.198769 0.148625 0)
(-0.223975 0.158498 0)
(-0.246585 0.164512 0)
(-0.266292 0.166802 0)
(-0.283023 0.165704 0)
(-0.296862 0.161664 0)
(-0.308004 0.155164 0)
(-0.316724 0.146686 0)
(-0.323342 0.136675 0)
(-0.328191 0.125521 0)
(-0.331601 0.113551 0)
(-0.333874 0.101019 0)
(-0.335276 0.088114 0)
(-0.336033 0.0749669 0)
(-0.33633 0.0616565 0)
(-0.336318 0.0482202 0)
(-0.336123 0.0346634 0)
(-0.335856 0.0209691 0)
(-0.335599 0.00710743 0)
(-0.335397 -0.00696116 0)
(-0.335281 -0.0212939 0)
(-0.335302 -0.035957 0)
(-0.335505 -0.0510063 0)
(-0.335908 -0.0664886 0)
(-0.336502 -0.0824291 0)
(-0.337226 -0.09882 0)
(-0.337949 -0.115596 0)
(-0.338434 -0.132607 0)
(-0.338304 -0.149574 0)
(-0.337009 -0.166045 0)
(-0.333804 -0.181347 0)
(-0.327755 -0.194552 0)
(-0.317795 -0.204476 0)
(-0.30284 -0.209736 0)
(-0.281989 -0.208893 0)
(-0.254782 -0.200701 0)
(-0.221521 -0.184461 0)
(-0.183553 -0.160422 0)
(-0.143409 -0.130128 0)
(-0.104549 -0.0965128 0)
(-0.0705612 -0.0633934 0)
(-0.0439164 -0.0342796 0)
(-0.0250416 -0.011119 0)
(-0.0126739 0.00594902 0)
(-0.0050514 0.0177342 0)
(-0.000736914 0.0251594 0)
(0.00125744 0.0289203 0)
(0.00169154 0.0293741 0)
(0.00122935 0.0264757 0)
(0.000498868 0.0197502 0)
(1.77496e-05 0.00839796 0)
(0.000245698 -0.00967041 0)
(-0.000522043 -0.0155932 0)
(-0.00386663 -0.0112461 0)
(-0.0100585 -0.000276731 0)
(-0.0191877 0.0142936 0)
(-0.0313306 0.0306242 0)
(-0.0466797 0.0480922 0)
(-0.0654631 0.0667634 0)
(-0.0877017 0.0866962 0)
(-0.11293 0.107422 0)
(-0.140111 0.127828 0)
(-0.167824 0.146449 0)
(-0.194634 0.161948 0)
(-0.219408 0.173467 0)
(-0.241435 0.180698 0)
(-0.260373 0.183755 0)
(-0.276139 0.183008 0)
(-0.288837 0.178965 0)
(-0.298703 0.17219 0)
(-0.306071 0.163251 0)
(-0.31132 0.152678 0)
(-0.314847 0.140931 0)
(-0.317028 0.128391 0)
(-0.318202 0.115353 0)
(-0.318655 0.102029 0)
(-0.318621 0.0885636 0)
(-0.318279 0.0750408 0)
(-0.317765 0.0614992 0)
(-0.317179 0.0479423 0)
(-0.316601 0.0343505 0)
(-0.316096 0.0206916 0)
(-0.315711 0.00692841 0)
(-0.315475 -0.00698241 0)
(-0.315417 -0.0211036 0)
(-0.315583 -0.0355039 0)
(-0.316023 -0.0502443 0)
(-0.316787 -0.0653845 0)
(-0.317914 -0.0809759 0)
(-0.319422 -0.0970579 0)
(-0.321291 -0.113643 0)
(-0.323429 -0.130697 0)
(-0.325637 -0.148102 0)
(-0.327557 -0.165613 0)
(-0.328622 -0.182796 0)
(-0.328017 -0.198959 0)
(-0.324661 -0.213095 0)
(-0.317252 -0.223854 0)
(-0.304403 -0.22959 0)
(-0.28487 -0.228513 0)
(-0.257901 -0.218997 0)
(-0.223648 -0.200048 0)
(-0.183595 -0.171884 0)
(-0.140784 -0.136472 0)
(-0.0995407 -0.097682 0)
(-0.0643533 -0.0605126 0)
(-0.0380313 -0.0292272 0)
(-0.0205159 -0.00563175 0)
(-0.00981146 0.0107894 0)
(-0.00371535 0.0213705 0)
(-0.000608052 0.027241 0)
(0.000596801 0.0290174 0)
(0.000696626 0.0267895 0)
(0.000339125 0.020189 0)
(2.18916e-05 0.00858681 0)
(6.68244e-05 -0.0091119 0)
(-0.00226992 -0.0126295 0)
(-0.00783514 -0.00534116 0)
(-0.0165051 0.00871177 0)
(-0.0282327 0.0263823 0)
(-0.0431013 0.0459072 0)
(-0.0612451 0.0667266 0)
(-0.0826945 0.0887406 0)
(-0.1071 0.111568 0)
(-0.133557 0.134193 0)
(-0.160713 0.155125 0)
(-0.187094 0.172863 0)
(-0.211462 0.186347 0)
(-0.233008 0.19512 0)
(-0.251327 0.199239 0)
(-0.266315 0.199089 0)
(-0.278085 0.195238 0)
(-0.286914 0.188339 0)
(-0.293184 0.179056 0)
(-0.297338 0.168013 0)
(-0.299826 0.15575 0)
(-0.301071 0.142708 0)
(-0.30144 0.129224 0)
(-0.301234 0.115533 0)
(-0.300686 0.10179 0)
(-0.299965 0.0880816 0)
(-0.299187 0.0744429 0)
(-0.298428 0.0608745 0)
(-0.297738 0.0473529 0)
(-0.297148 0.0338409 0)
(-0.296683 0.0202968 0)
(-0.296361 0.00667963 0)
(-0.296192 -0.00705413 0)
(-0.2962 -0.0209595 0)
(-0.296422 -0.0350938 0)
(-0.296903 -0.0495106 0)
(-0.297701 -0.0642646 0)
(-0.298877 -0.0794097 0)
(-0.300494 -0.0950006 0)
(-0.302599 -0.111086 0)
(-0.305211 -0.127701 0)
(-0.308286 -0.144844 0)
(-0.311672 -0.162444 0)
(-0.315052 -0.180302 0)
(-0.317877 -0.198023 0)
(-0.319298 -0.21492 0)
(-0.318127 -0.229922 0)
(-0.312868 -0.241518 0)
(-0.301842 -0.247771 0)
(-0.28346 -0.246482 0)
(-0.256642 -0.235553 0)
(-0.221374 -0.21361 0)
(-0.179282 -0.18083 0)
(-0.134014 -0.139754 0)
(-0.0909248 -0.0955418 0)
(-0.0554645 -0.0546851 0)
(-0.0304979 -0.0220937 0)
(-0.0150761 0.000994955 0)
(-0.0063636 0.0159765 0)
(-0.00185934 0.0246205 0)
(9.89049e-05 0.0280765 0)
(0.000595159 0.02675 0)
(0.000395379 0.0204657 0)
(5.57756e-05 0.00876251 0)
(-0.000194785 -0.00750675 0)
(-0.00435352 -0.00761667 0)
(-0.0122449 0.00299752 0)
(-0.0233828 0.0202621 0)
(-0.0376062 0.041092 0)
(-0.054951 0.0638154 0)
(-0.075424 0.0878159 0)
(-0.098778 0.112672 0)
(-0.124285 0.137496 0)
(-0.150721 0.160836 0)
(-0.176621 0.181059 0)
(-0.200652 0.196863 0)
(-0.221875 0.207577 0)
(-0.239795 0.21314 0)
(-0.254268 0.213921 0)
(-0.265403 0.210538 0)
(-0.273497 0.20373 0)
(-0.278979 0.194268 0)
(-0.282346 0.182879 0)
(-0.284098 0.170196 0)
(-0.284698 0.156729 0)
(-0.284542 0.142861 0)
(-0.28394 0.128855 0)
(-0.283123 0.114875 0)
(-0.282247 0.101006 0)
(-0.281409 0.0872793 0)
(-0.280661 0.0736895 0)
(-0.280029 0.0602074 0)
(-0.279519 0.0467918 0)
(-0.279132 0.033397 0)
(-0.278862 0.019979 0)
(-0.27871 0.00649724 0)
(-0.278676 -0.0070877 0)
(-0.278778 -0.0208207 0)
(-0.279043 -0.0347443 0)
(-0.279506 -0.0488991 0)
(-0.280219 -0.0633265 0)
(-0.281245 -0.0780704 0)
(-0.282659 -0.0931799 0)
(-0.284539 -0.10871 0)
(-0.286961 -0.124721 0)
(-0.289977 -0.141269 0)
(-0.293584 -0.158389 0)
(-0.297681 -0.176061 0)
(-0.301999 -0.194142 0)
(-0.306017 -0.212283 0)
(-0.308876 -0.22981 0)
(-0.309316 -0.245594 0)
(-0.305672 -0.257947 0)
(-0.296003 -0.26461 0)
(-0.278383 -0.262905 0)
(-0.251412 -0.250181 0)
(-0.214916 -0.224621 0)
(-0.170733 -0.186418 0)
(-0.123276 -0.139001 0)
(-0.0791476 -0.0893409 0)
(-0.0447209 -0.0457135 0)
(-0.0223132 -0.0132008 0)
(-0.00957752 0.00819699 0)
(-0.0030103 0.0207925 0)
(-8.33769e-05 0.0265689 0)
(0.000779148 0.0265101 0)
(0.000603964 0.0207625 0)
(0.000110161 0.00903163 0)
(-0.000523533 -0.00468548 0)
(-0.00662304 -0.000424075 0)
(-0.0168191 0.0137619 0)
(-0.0302939 0.0342277 0)
(-0.0467474 0.0581408 0)
(-0.0661457 0.0838747 0)
(-0.0883091 0.110629 0)
(-0.11269 0.137566 0)
(-0.138254 0.163338 0)
(-0.163614 0.186241 0)
(-0.187373 0.204726 0)
(-0.208451 0.217834 0)
(-0.226227 0.225309 0)
(-0.240486 0.227449 0)
(-0.251309 0.224895 0)
(-0.258999 0.218464 0)
(-0.264014 0.209038 0)
(-0.266894 0.197459 0)
(-0.268188 0.184466 0)
(-0.268397 0.170653 0)
(-0.267941 0.156461 0)
(-0.267143 0.142184 0)
(-0.266231 0.127999 0)
(-0.26535 0.113993 0)
(-0.264581 0.10019 0)
(-0.263957 0.0865769 0)
(-0.263484 0.0731165 0)
(-0.263149 0.0597623 0)
(-0.262937 0.0464657 0)
(-0.262827 0.0331802 0)
(-0.262805 0.0198642 0)
(-0.26286 0.00648107 0)
(-0.262991 -0.00700318 0)
(-0.26321 -0.0206213 0)
(-0.263534 -0.0344025 0)
(-0.263989 -0.0483745 0)
(-0.264617 -0.0625648 0)
(-0.265469 -0.0770032 0)
(-0.266613 -0.0917251 0)
(-0.268127 -0.106775 0)
(-0.270103 -0.12221 0)
(-0.272635 -0.138103 0)
(-0.275806 -0.154535 0)
(-0.279653 -0.171581 0)
(-0.284121 -0.189273 0)
(-0.288987 -0.20753 0)
(-0.293759 -0.226049 0)
(-0.297573 -0.244158 0)
(-0.299096 -0.26065 0)
(-0.296511 -0.273622 0)
(-0.287628 -0.280428 0)
(-0.270213 -0.277837 0)
(-0.242576 -0.262563 0)
(-0.204456 -0.232336 0)
(-0.158048 -0.187563 0)
(-0.108809 -0.133117 0)
(-0.0648678 -0.0785258 0)
(-0.0331753 -0.0338452 0)
(-0.0144526 -0.0032228 0)
(-0.00474708 0.0151542 0)
(-0.000358538 0.0242938 0)
(0.00102727 0.0260807 0)
(0.000870672 0.0211671 0)
(0.000173551 0.00945525 0)
(-0.000881653 -0.000554821 0)
(-0.00891002 0.00894521 0)
(-0.0212559 0.0267769 0)
(-0.0368038 0.050318 0)
(-0.0550987 0.0770996 0)
(-0.0760102 0.105471 0)
(-0.099146 0.134351 0)
(-0.123693 0.162473 0)
(-0.148421 0.188149 0)
(-0.171933 0.209622 0)
(-0.193021 0.225598 0)
(-0.210904 0.235525 0)
(-0.225256 0.239544 0)
(-0.236099 0.238272 0)
(-0.243718 0.232585 0)
(-0.24858 0.223467 0)
(-0.251256 0.211889 0)
(-0.252334 0.198713 0)
(-0.252357 0.184635 0)
(-0.251771 0.170168 0)
(-0.250914 0.155651 0)
(-0.250016 0.141281 0)
(-0.249215 0.127149 0)
(-0.24858 0.113275 0)
(-0.248129 0.099634 0)
(-0.247852 0.0861819 0)
(-0.247726 0.0728654 0)
(-0.247722 0.0596318 0)
(-0.247811 0.0464328 0)
(-0.247971 0.0332263 0)
(-0.248184 0.0199763 0)
(-0.248439 0.00665157 0)
(-0.248735 -0.00677532 0)
(-0.249081 -0.0203273 0)
(-0.249488 -0.0340239 0)
(-0.249974 -0.0478826 0)
(-0.250568 -0.0619197 0)
(-0.251306 -0.0761523 0)
(-0.25224 -0.0906006 0)
(-0.253432 -0.105293 0)
(-0.254962 -0.120271 0)
(-0.256927 -0.135595 0)
(-0.259436 -0.151352 0)
(-0.262597 -0.167651 0)
(-0.266487 -0.184612 0)
(-0.271097 -0.202327 0)
(-0.276247 -0.220774 0)
(-0.281469 -0.239692 0)
(-0.285876 -0.258391 0)
(-0.288047 -0.275533 0)
(-0.285992 -0.288926 0)
(-0.277274 -0.295436 0)
(-0.259372 -0.291169 0)
(-0.230381 -0.272138 0)
(-0.190093 -0.235704 0)
(-0.141335 -0.182923 0)
(-0.0910481 -0.121068 0)
(-0.0491417 -0.0630966 0)
(-0.0220909 -0.019971 0)
(-0.00777849 0.00676983 0)
(-0.00116733 0.0208122 0)
(0.00109775 0.0252964 0)
(0.00109516 0.0216471 0)
(0.000234695 0.0100386 0)
(-0.00122601 0.00489082 0)
(-0.0110443 0.0203309 0)
(-0.0252799 0.0417628 0)
(-0.0425244 0.0681394 0)
(-0.0621846 0.097445 0)
(-0.0840144 0.127937 0)
(-0.107416 0.158199 0)
(-0.13138 0.186592 0)
(-0.154601 0.211243 0)
(-0.175788 0.230517 0)
(-0.193989 0.243472 0)
(-0.208718 0.249976 0)
(-0.219904 0.250539 0)
(-0.227777 0.246052 0)
(-0.232789 0.23759 0)
(-0.235524 0.226252 0)
(-0.236605 0.213044 0)
(-0.23661 0.198785 0)
(-0.236021 0.184085 0)
(-0.235196 0.169344 0)
(-0.234374 0.154793 0)
(-0.233692 0.140531 0)
(-0.233211 0.126577 0)
(-0.23294 0.112897 0)
(-0.23286 0.0994388 0)
(-0.232936 0.0861408 0)
(-0.233131 0.0729458 0)
(-0.233413 0.0598028 0)
(-0.233756 0.0466691 0)
(-0.234137 0.0335094 0)
(-0.234545 0.0202942 0)
(-0.234971 0.00699827 0)
(-0.235415 -0.00640007 0)
(-0.235885 -0.0199173 0)
(-0.236388 -0.0335668 0)
(-0.236938 -0.0473598 0)
(-0.237553 -0.0613055 0)
(-0.238258 -0.0754119 0)
(-0.239083 -0.0896877 0)
(-0.240072 -0.104146 0)
(-0.241281 -0.118809 0)
(-0.242786 -0.133716 0)
(-0.244685 -0.148933 0)
(-0.247096 -0.164561 0)
(-0.250153 -0.180742 0)
(-0.253969 -0.197645 0)
(-0.258582 -0.215424 0)
(-0.263852 -0.234124 0)
(-0.269323 -0.253512 0)
(-0.274061 -0.272844 0)
(-0.276518 -0.290574 0)
(-0.274489 -0.304098 0)
(-0.265266 -0.309641 0)
(-0.24607 -0.302504 0)
(-0.214894 -0.277964 0)
(-0.171832 -0.233263 0)
(-0.120783 -0.170964 0)
(-0.0708385 -0.102265 0)
(-0.0335519 -0.0440324 0)
(-0.012689 -0.00559334 0)
(-0.00287876 0.0154681 0)
(0.000786757 0.0238359 0)
(0.00120062 0.0220593 0)
(0.000286594 0.0107373 0)
(-0.00154158 0.0115167 0)
(-0.0128898 0.0334342 0)
(-0.0286451 0.0583358 0)
(-0.0471448 0.0872256 0)
(-0.0676574 0.118616 0)
(-0.0898185 0.150624 0)
(-0.11286 0.1815 0)
(-0.135658 0.209327 0)
(-0.156933 0.232203 0)
(-0.175581 0.248738 0)
(-0.190924 0.258393 0)
(-0.202742 0.261443 0)
(-0.211178 0.258721 0)
(-0.216633 0.251357 0)
(-0.219682 0.24057 0)
(-0.220968 0.227521 0)
(-0.221107 0.213183 0)
(-0.220617 0.198289 0)
(-0.219887 0.183329 0)
(-0.219175 0.168582 0)
(-0.218625 0.15417 0)
(-0.218296 0.140114 0)
(-0.218193 0.126375 0)
(-0.218288 0.11289 0)
(-0.218542 0.0995911 0)
(-0.218913 0.0864135 0)
(-0.219364 0.0733036 0)
(-0.219867 0.0602174 0)
(-0.2204 0.0471194 0)
(-0.220949 0.0339813 0)
(-0.221505 0.0207797 0)
(-0.222066 0.00749472 0)
(-0.222634 -0.00589064 0)
(-0.223215 -0.0193892 0)
(-0.223816 -0.0330112 0)
(-0.224447 -0.0467647 0)
(-0.225119 -0.0606552 0)
(-0.225848 -0.0746859 0)
(-0.226652 -0.088859 0)
(-0.227554 -0.103177 0)
(-0.228589 -0.117647 0)
(-0.229802 -0.132288 0)
(-0.231265 -0.147137 0)
(-0.233074 -0.162267 0)
(-0.235357 -0.177797 0)
(-0.238269 -0.193903 0)
(-0.24196 -0.210809 0)
(-0.246511 -0.228739 0)
(-0.251817 -0.247798 0)
(-0.257414 -0.267768 0)
(-0.262283 -0.287789 0)
(-0.264692 -0.305996 0)
(-0.262165 -0.319194 0)
(-0.251689 -0.322758 0)
(-0.230272 -0.311018 0)
(-0.19599 -0.278558 0)
(-0.149622 -0.223085 0)
(-0.0968518 -0.150265 0)
(-0.0497598 -0.0772823 0)
(-0.0199882 -0.0234806 0)
(-0.00572958 0.00743195 0)
(-2.59459e-05 0.02126 0)
(0.00114533 0.0221827 0)
(0.000327785 0.0114753 0)
(-0.00178199 0.0190963 0)
(-0.0143093 0.0478873 0)
(-0.0311673 0.076061 0)
(-0.0504562 0.107086 0)
(-0.0713162 0.140067 0)
(-0.0932777 0.172965 0)
(-0.115452 0.203732 0)
(-0.136679 0.230291 0)
(-0.155782 0.250839 0)
(-0.171887 0.264313 0)
(-0.184575 0.270588 0)
(-0.193849 0.270315 0)
(-0.200029 0.264609 0)
(-0.203645 0.254785 0)
(-0.205339 0.242157 0)
(-0.205758 0.227879 0)
(-0.205463 0.212844 0)
(-0.204882 0.197663 0)
(-0.204303 0.182692 0)
(-0.203886 0.168094 0)
(-0.203698 0.1539 0)
(-0.203742 0.140071 0)
(-0.203988 0.126533 0)
(-0.204393 0.113209 0)
(-0.204912 0.100027 0)
(-0.205506 0.0869296 0)
(-0.206144 0.0738697 0)
(-0.206805 0.0608114 0)
(-0.207475 0.0477269 0)
(-0.208145 0.0345938 0)
(-0.208813 0.0213938 0)
(-0.209479 0.00811098 0)
(-0.210147 -0.00526835 0)
(-0.210823 -0.018755 0)
(-0.211513 -0.0323579 0)
(-0.212226 -0.0460836 0)
(-0.212971 -0.0599367 0)
(-0.213755 -0.073919 0)
(-0.21459 -0.0880299 0)
(-0.215485 -0.102267 0)
(-0.216457 -0.116629 0)
(-0.217528 -0.131118 0)
(-0.218739 -0.145749 0)
(-0.220152 -0.160561 0)
(-0.221863 -0.175635 0)
(-0.224011 -0.191112 0)
(-0.226774 -0.207209 0)
(-0.230338 -0.224212 0)
(-0.234823 -0.24242 0)
(-0.240142 -0.261996 0)
(-0.245791 -0.282694 0)
(-0.250612 -0.303448 0)
(-0.252615 -0.321904 0)
(-0.248982 -0.33403 0)
(-0.236377 -0.334083 0)
(-0.211693 -0.315272 0)
(-0.173382 -0.271745 0)
(-0.123504 -0.202909 0)
(-0.070648 -0.120302 0)
(-0.0303641 -0.0487255 0)
(-0.0098432 -0.00430299 0)
(-0.00139255 0.0170455 0)
(0.000925791 0.0217528 0)
(0.000362773 0.0121683 0)
(-0.00191839 0.0273646 0)
(-0.0152177 0.0632742 0)
(-0.0327401 0.0944856 0)
(-0.0523592 0.127242 0)
(-0.0731027 0.16131 0)
(-0.094419 0.194499 0)
(-0.115351 0.224533 0)
(-0.134767 0.249283 0)
(-0.151649 0.267142 0)
(-0.165354 0.277418 0)
(-0.175693 0.280392 0)
(-0.182853 0.277047 0)
(-0.187285 0.268732 0)
(-0.189599 0.256897 0)
(-0.190456 0.242889 0)
(-0.190458 0.2278 0)
(-0.190084 0.212405 0)
(-0.18966 0.197176 0)
(-0.189376 0.182341 0)
(-0.189315 0.16796 0)
(-0.189488 0.153996 0)
(-0.189863 0.140369 0)
(-0.190396 0.126992 0)
(-0.19104 0.113782 0)
(-0.191754 0.100675 0)
(-0.192507 0.0876219 0)
(-0.193278 0.0745839 0)
(-0.194052 0.0615331 0)
(-0.194821 0.0484477 0)
(-0.195583 0.0353102 0)
(-0.196337 0.0221058 0)