/*--------------------------------*- C++ -*----------------------------------*\
| =========                 |                                                 |
| \\      /  F ield         | OpenFOAM: The Open Source CFD Toolbox           |
|  \\    /   O peration     | Version:  2406                                  |
|   \\  /    A nd           | Website:  www.openfoam.com                      |
|    \\/     M anipulation  |                                                 |
\*---------------------------------------------------------------------------*/
FoamFile
{
    version     2.0;
    format      ascii;
    arch        "LSB;label=32;scalar=64";
    class       volScalarField;
    location    "14.95";
    object      p;
}
// * * * * * * * * * * * * * * * * * * * * * * * * * * * * * * * * * * * * * //

dimensions      [0 2 -2 0 0 0 0];

internalField   nonuniform List<scalar> 
3600
(
0.0211498
0.0211411
0.0211366
0.0211261
0.0211243
0.021118
0.0211199
0.0211176
0.0211219
0.0211225
0.0211285
0.0211319
0.0211399
0.0211464
0.0211572
0.0211677
0.0211826
0.0211983
0.0212184
0.0212406
0.0212675
0.0212971
0.0213314
0.0213686
0.0214094
0.0214519
0.0214956
0.0215375
0.021576
0.0216073
0.0216282
0.0216346
0.0216229
0.0215895
0.0215315
0.0214473
0.021336
0.0211995
0.0210395
0.0208611
0.0206682
0.0204682
0.0202654
0.0200675
0.0198769
0.0197006
0.0195379
0.0193947
0.0192665
0.0191593
0.0190651
0.0189912
0.0189265
0.018881
0.0188407
0.0188195
0.0187999
0.0188003
0.0187981
0.0188116
0.021158
0.0211489
0.0211475
0.0211391
0.02114
0.021135
0.0211384
0.0211367
0.0211419
0.021143
0.0211497
0.0211534
0.021162
0.0211687
0.0211798
0.0211902
0.0212047
0.0212197
0.0212389
0.0212596
0.0212846
0.0213117
0.021343
0.0213765
0.0214132
0.0214508
0.0214891
0.0215253
0.0215576
0.0215826
0.0215974
0.021598
0.0215809
0.021543
0.0214814
0.0213948
0.0212825
0.0211463
0.0209881
0.020813
0.0206248
0.0204306
0.0202344
0.0200437
0.0198605
0.0196915
0.0195355
0.0193984
0.0192755
0.0191726
0.0190819
0.0190106
0.0189477
0.0189034
0.0188632
0.0188417
0.0188199
0.018818
0.0188114
0.018825
0.0211636
0.0211503
0.0211494
0.0211398
0.0211418
0.0211367
0.0211409
0.0211392
0.0211449
0.0211459
0.0211528
0.0211564
0.0211649
0.0211713
0.0211821
0.021192
0.0212061
0.0212204
0.0212388
0.0212586
0.0212827
0.021309
0.0213394
0.0213722
0.0214084
0.0214459
0.0214844
0.0215213
0.0215547
0.0215813
0.0215978
0.0216002
0.0215849
0.0215482
0.0214871
0.0214001
0.0212862
0.0211474
0.0209855
0.020806
0.020613
0.0204142
0.0202138
0.0200199
0.0198346
0.0196647
0.0195089
0.019373
0.0192518
0.0191513
0.0190629
0.0189943
0.0189335
0.0188914
0.0188526
0.0188327
0.0188113
0.018811
0.0188043
0.0188224
0.0211734
0.0211558
0.0211566
0.0211466
0.0211509
0.0211462
0.0211522
0.0211509
0.0211576
0.0211588
0.0211662
0.0211697
0.0211782
0.0211842
0.0211945
0.0212035
0.0212164
0.0212291
0.0212458
0.0212633
0.0212848
0.0213081
0.0213354
0.0213648
0.0213976
0.0214316
0.021467
0.021501
0.0215321
0.0215567
0.0215718
0.0215731
0.021557
0.0215196
0.0214576
0.0213693
0.0212537
0.0211126
0.020948
0.0207655
0.0205696
0.0203685
0.0201666
0.0199725
0.0197882
0.0196208
0.0194685
0.0193371
0.0192209
0.0191257
0.0190422
0.0189783
0.0189214
0.0188829
0.0188461
0.0188281
0.0188068
0.0188074
0.0187996
0.0188204
0.0211736
0.0211507
0.0211521
0.02114
0.0211457
0.0211403
0.0211473
0.0211455
0.0211527
0.0211534
0.0211607
0.0211634
0.0211715
0.0211765
0.0211859
0.0211936
0.0212052
0.0212163
0.0212312
0.0212468
0.0212662
0.0212874
0.0213126
0.0213401
0.0213713
0.0214043
0.0214392
0.0214736
0.0215058
0.0215325
0.0215504
0.0215551
0.0215425
0.0215083
0.0214488
0.0213618
0.0212458
0.0211022
0.0209332
0.0207445
0.0205411
0.0203319
0.0201221
0.019921
0.0197313
0.0195606
0.019407
0.0192763
0.0191623
0.0190705
0.0189911
0.0189316
0.0188788
0.0188444
0.0188109
0.0187961
0.0187766
0.0187798
0.0187728
0.0187963
0.0211725
0.0211448
0.0211476
0.0211341
0.0211417
0.0211361
0.0211445
0.0211425
0.0211504
0.0211505
0.0211579
0.0211597
0.0211672
0.0211709
0.0211791
0.021185
0.0211946
0.021203
0.0212149
0.0212268
0.0212421
0.0212584
0.0212784
0.0213002
0.0213255
0.0213526
0.0213819
0.0214111
0.0214392
0.0214627
0.0214788
0.0214831
0.0214717
0.0214399
0.0213838
0.0213003
0.0211876
0.0210464
0.0208781
0.0206885
0.0204824
0.0202693
0.0200551
0.01985
0.0196574
0.0194854
0.0193324
0.0192043
0.0190943
0.0190078
0.018934
0.0188805
0.0188331
0.0188036
0.0187739
0.0187625
0.018745
0.0187499
0.0187433
0.0187677
0.0211565
0.0211238
0.0211275
0.0211119
0.0211207
0.0211139
0.021123
0.02112
0.0211279
0.0211268
0.0211337
0.0211341
0.0211406
0.0211426
0.0211493
0.0211529
0.0211602
0.0211656
0.021174
0.0211813
0.0211913
0.0212012
0.0212139
0.0212272
0.0212431
0.0212601
0.0212789
0.0212978
0.0213163
0.0213317
0.021342
0.0213437
0.0213332
0.021306
0.021258
0.0211854
0.021085
0.0209561
0.0207987
0.020617
0.0204153
0.0202027
0.0199859
0.0197761
0.0195781
0.0194015
0.0192455
0.0191164
0.0190077
0.0189242
0.0188548
0.0188062
0.018764
0.0187395
0.0187142
0.0187066
0.0186919
0.0186991
0.0186937
0.0187189
0.0211339
0.0210968
0.0211017
0.0210845
0.0210949
0.0210872
0.0210973
0.0210933
0.0211013
0.021099
0.0211053
0.0211042
0.0211095
0.0211095
0.0211141
0.0211148
0.0211184
0.0211188
0.0211207
0.0211197
0.0211191
0.0211155
0.0211117
0.0211052
0.021098
0.0210885
0.0210782
0.0210664
0.0210543
0.0210411
0.0210272
0.0210112
0.0209917
0.0209655
0.0209289
0.0208776
0.0208065
0.0207121
0.0205912
0.0204444
0.020273
0.0200839
0.0198832
0.0196824
0.019488
0.0193117
0.019155
0.0190257
0.0189182
0.0188375
0.0187723
0.0187288
0.0186918
0.0186723
0.0186514
0.0186474
0.0186353
0.0186441
0.0186396
0.0186646
0.0210911
0.0210495
0.0210554
0.0210362
0.0210476
0.0210384
0.0210487
0.021043
0.0210505
0.0210465
0.0210517
0.0210487
0.0210523
0.0210498
0.0210516
0.0210482
0.0210466
0.0210394
0.0210312
0.0210161
0.020997
0.0209691
0.0209342
0.0208889
0.0208347
0.0207703
0.0206986
0.0206208
0.0205418
0.0204651
0.0203957
0.0203369
0.0202914
0.0202591
0.0202377
0.0202226
0.0202067
0.0201823
0.0201407
0.0200758
0.0199823
0.0198612
0.0197144
0.019552
0.0193812
0.0192165
0.0190635
0.018934
0.0188252
0.0187441
0.01868
0.0186389
0.0186054
0.0185897
0.0185726
0.0185716
0.0185622
0.0185724
0.0185691
0.0185937
0.0210363
0.0209908
0.0209979
0.0209772
0.0209897
0.0209792
0.0209897
0.0209825
0.0209894
0.0209836
0.0209876
0.0209824
0.0209839
0.0209781
0.0209756
0.0209655
0.0209547
0.0209339
0.0209066
0.0208649
0.0208097
0.0207336
0.0206364
0.020513
0.0203644
0.0201903
0.0199967
0.01979
0.0195814
0.0193823
0.0192055
0.0190615
0.0189593
0.0189036
0.0188949
0.0189294
0.0189982
0.0190894
0.0191873
0.0192763
0.0193402
0.0193686
0.0193532
0.0192967
0.0192033
0.0190889
0.0189637
0.0188463
0.0187408
0.0186592
0.0185944
0.0185533
0.0185212
0.0185074
0.0184926
0.0184934
0.0184858
0.0184966
0.0184938
0.0185176
0.0209558
0.0209065
0.0209145
0.0208918
0.0209049
0.0208926
0.0209026
0.0208934
0.0208991
0.0208909
0.020893
0.0208849
0.0208831
0.0208722
0.0208628
0.0208421
0.0208156
0.0207716
0.020711
0.020622
0.0205017
0.0203386
0.0201291
0.0198662
0.0195518
0.0191896
0.0187927
0.0183766
0.0179635
0.0175749
0.0172335
0.016958
0.0167642
0.0166619
0.0166557
0.0167435
0.0169169
0.0171613
0.0174556
0.0177752
0.0180907
0.0183758
0.0186047
0.0187636
0.0188448
0.0188579
0.0188154
0.0187434
0.0186575
0.0185804
0.0185138
0.0184691
0.0184346
0.0184191
0.0184043
0.0184049
0.0183978
0.0184081
0.0184055
0.0184282
0.0208586
0.020806
0.0208149
0.0207907
0.0208043
0.0207903
0.0207998
0.0207884
0.0207927
0.0207819
0.0207816
0.0207696
0.0207629
0.0207441
0.020723
0.020684
0.0206301
0.0205453
0.0204256
0.0202531
0.0200186
0.0197052
0.0193063
0.0188156
0.0182408
0.0175955
0.0169056
0.0162005
0.0155151
0.0148817
0.0143314
0.0138891
0.0135748
0.0134021
0.0133785
0.0135052
0.0137765
0.0141799
0.0146941
0.0152907
0.015932
0.0165763
0.0171771
0.017695
0.0180969
0.0183716
0.0185212
0.018573
0.0185548
0.0185062
0.0184462
0.0183982
0.0183583
0.0183373
0.0183189
0.0183164
0.0183076
0.0183159
0.0183124
0.0183335
0.0207301
0.0206744
0.0206839
0.0206578
0.0206712
0.0206548
0.020663
0.0206487
0.0206506
0.0206362
0.020632
0.020614
0.0205992
0.0205676
0.0205271
0.020458
0.0203587
0.0202063
0.019989
0.0196801
0.019263
0.0187162
0.0180348
0.0172204
0.0162951
0.0152897
0.0142482
0.013215
0.0122359
0.0113496
0.0105899
0.00998181
0.00954482
0.00929167
0.00923073
0.00936574
0.00969568
0.0102146
0.0109085
0.0117555
0.0127205
0.013758
0.0148078
0.0158057
0.0166841
0.017393
0.0179009
0.018215
0.0183637
0.0184025
0.0183772
0.0183345
0.0182887
0.0182582
0.0182322
0.0182226
0.0182094
0.0182135
0.018208
0.0182271
0.0205809
0.0205227
0.0205327
0.0205049
0.0205179
0.0204992
0.0205056
0.0204881
0.020487
0.0204679
0.0204582
0.0204316
0.020404
0.0203521
0.0202802
0.0201623
0.0199894
0.0197285
0.0193573
0.0188392
0.0181524
0.0172777
0.0162218
0.0150061
0.013676
0.0122851
0.010895
0.00956036
0.00833071
0.00724263
0.00632437
0.00559398
0.00506422
0.00474284
0.00463554
0.00474671
0.00507937
0.00563573
0.00641355
0.00740586
0.00859347
0.00994436
0.0114046
0.0129023
0.014345
0.0156379
0.0166944
0.0174673
0.0179518
0.0181988
0.0182781
0.0182718
0.0182295
0.0181887
0.0181512
0.01813
0.0181091
0.0181062
0.0180971
0.0181134
0.0203954
0.0203349
0.0203448
0.0203148
0.0203265
0.0203046
0.0203081
0.0202861
0.0202802
0.0202543
0.0202357
0.0201956
0.0201479
0.0200644
0.0199437
0.0197509
0.0194661
0.0190434
0.0184491
0.0176401
0.0165977
0.015318
0.0138331
0.0121948
0.0104764
0.0087514
0.00709074
0.00554909
0.00416848
0.00297425
0.00198224
0.00119898
0.000627525
0.000268611
0.000123281
0.000194463
0.000486499
0.0010072
0.00176404
0.00276579
0.00401422
0.00550335
0.00720605
0.00907153
0.011013
0.0129149
0.0146399
0.0160634
0.0171018
0.01775
0.0180702
0.0181747
0.0181658
0.0181215
0.0180708
0.0180337
0.018001
0.0179878
0.0179733
0.0179861
0.020187
0.0201247
0.0201344
0.0201023
0.0201122
0.0200867
0.0200864
0.0200589
0.0200466
0.0200114
0.0199801
0.0199206
0.019843
0.0197125
0.0195191
0.0192158
0.018769
0.0181195
0.0172257
0.0160474
0.0145844
0.0128635
0.010954
0.00894056
0.00691867
0.0049695
0.0031595
0.00153048
0.000108084
-0.00109864
-0.00208801
-0.00286441
-0.003433
-0.00379855
-0.00396409
-0.00392886
-0.00368991
-0.00323821
-0.002563
-0.00164672
-0.000473081
0.000976013
0.00270609
0.0047066
0.0069302
0.00928588
0.0116289
0.0137792
0.015556
0.0168397
0.0176142
0.0179752
0.0180729
0.0180505
0.0179915
0.0179352
0.0178869
0.0178596
0.0178376
0.0178455
0.019938
0.0198739
0.0198828
0.0198479
0.0198546
0.0198241
0.0198182
0.0197831
0.0197613
0.019713
0.019663
0.019575
0.019454
0.019256
0.0189597
0.0185033
0.0178387
0.0168967
0.0156376
0.0140401
0.0121386
0.0100025
0.00773921
0.00545732
0.00325847
0.00121467
-0.000625845
-0.00224229
-0.00362822
-0.00478953
-0.00573501
-0.0064753
-0.00701948
-0.00737415
-0.00754429
-0.0075304
-0.00733216
-0.00694244
-0.00635314
-0.00554634
-0.00450281
-0.00319286
-0.00158976
0.000332597
0.00257714
0.00511102
0.00783851
0.0105894
0.0131319
0.0152223
0.0166963
0.0175385
0.0178881
0.0179504
0.0179015
0.0178268
0.01776
0.0177143
0.0176824
0.0176837
0.0196657
0.0196007
0.0196084
0.0195705
0.0195733
0.019537
0.0195239
0.0194793
0.0194451
0.0193793
0.0193038
0.0191771
0.0189962
0.0187062
0.0182712
0.0176141
0.0166746
0.0153826
0.0137156
0.011688
0.00938103
0.00690709
0.00440038
0.00197472
-0.000281109
-0.00231832
-0.00411387
-0.00566846
-0.00699096
-0.00809609
-0.00899679
-0.00970418
-0.0102267
-0.0105693
-0.0107368
-0.0107297
-0.0105502
-0.0101942
-0.00965943
-0.00893279
-0.0080011
-0.00683575
-0.00540601
-0.00366756
-0.00158235
0.000875001
0.00368452
0.00674849
0.00987067
0.0127546
0.0150924
0.0166697
0.0175001
0.017778
0.0177863
0.0177036
0.0176175
0.0175488
0.0175046
0.0174966
0.0193499
0.019284
0.0192895
0.0192476
0.0192447
0.0192009
0.019178
0.0191207
0.0190696
0.0189802
0.0188701
0.0186914
0.0184311
0.018021
0.0174096
0.016506
0.0152452
0.0135697
0.0114902
0.00906949
0.00643603
0.00373349
0.00110263
-0.00135777
-0.00358616
-0.00556275
-0.00728834
-0.00877909
-0.0100518
-0.0111225
-0.0120025
-0.0126986
-0.0132156
-0.0135543
-0.0137182
-0.0137064
-0.013524
-0.0131693
-0.0126469
-0.0119503
-0.0110767
-0.0100054
-0.00871433
-0.00715875
-0.00528965
-0.00304705
-0.000387882
0.00268104
0.00606307
0.00951445
0.0126805
0.0151601
0.0167323
0.0174461
0.0176126
0.0175503
0.0174503
0.0173537
0.0172947
0.0172736
0.0190135
0.0189475
0.0189504
0.0189044
0.0188946
0.0188418
0.0188069
0.0187342
0.0186619
0.0185427
0.0183888
0.0181439
0.0177833
0.0172242
0.0163999
0.015211
0.0135986
0.0115329
0.00907074
0.00632581
0.00346359
0.000638721
-0.00202253
-0.00445113
-0.00661811
-0.00853004
-0.0102044
-0.0116643
-0.0129268
-0.0140033
-0.0148992
-0.0156142
-0.0161478
-0.0164957
-0.0166593
-0.016636
-0.016433
-0.0160506
-0.0155004
-0.014782
-0.0139044
-0.0128573
-0.0116332
-0.0101974
-0.00850821
-0.00649701
-0.00408911
-0.00122265
0.00211465
0.00579799
0.00954939
0.0128975
0.0153975
0.0168111
0.0173296
0.0173467
0.0172504
0.0171227
0.0170455
0.0170065
0.0186324
0.0185663
0.0185654
0.018514
0.0184952
0.0184313
0.0183812
0.0182891
0.0181901
0.0180337
0.017825
0.0174986
0.0170164
0.0162813
0.0152144
0.0137162
0.0117462
0.00931492
0.00653028
0.0035492
0.000555501
-0.00230638
-0.00494021
-0.00731233
-0.00942353
-0.0112988
-0.0129634
-0.0144394
-0.0157384
-0.0168632
-0.017811
-0.0185734
-0.0191443
-0.019514
-0.0196821
-0.0196437
-0.0194079
-0.0189761
-0.018366
-0.0175823
-0.0166454
-0.0155548
-0.0143198
-0.0129198
-0.0113305
-0.0094916
-0.00732523
-0.00473639
-0.00163477
0.00197824
0.0059745
0.00995159
0.0133794
0.0156991
0.0168357
0.0170617
0.016998
0.0168456
0.016745
0.0166824
0.0182366
0.0181715
0.0181664
0.0181095
0.0180803
0.0180038
0.0179358
0.0178211
0.0176904
0.01749
0.0172161
0.0167941
0.0161711
0.0152376
0.0139079
0.0120918
0.00977886
0.00702689
0.00399123
0.000857058
-0.00219371
-0.00504324
-0.00763239
-0.00996059
-0.0120507
-0.0139367
-0.0156438
-0.0171868
-0.0185683
-0.0197804
-0.0208122
-0.0216463
-0.0222724
-0.0226752
-0.0228534
-0.0227993
-0.0225244
-0.0220294
-0.0213383
-0.020458
-0.0194199
-0.0182309
-0.0169173
-0.0154719
-0.0138927
-0.0121356
-0.0101381
-0.00780132
-0.0049982
-0.00164126
0.00229401
0.0065641
0.0107089
0.013995
0.0159745
0.0166552
0.0166658
0.0165121
0.0163829
0.0162894
0.017797
0.0177329
0.0177224
0.0176585
0.0176168
0.0175253
0.0174363
0.0172951
0.0171274
0.0168757
0.0165269
0.0159961
0.0152171
0.0140709
0.0124713
0.0103472
0.0077256
0.0047123
0.00149921
-0.00171811
-0.00477686
-0.00759463
-0.0101489
-0.012465
-0.0145788
-0.0165247
-0.0183221
-0.0199745
-0.0214742
-0.0228018
-0.023939
-0.0248607
-0.0255532
-0.0259961
-0.0261885
-0.0261192
-0.0258028
-0.025238
-0.0244544
-0.0234592
-0.0222933
-0.0209681
-0.0195253
-0.0179695
-0.0163208
-0.014554
-0.0126311
-0.0104673
-0.00793215
-0.00489462
-0.00121471
0.00303406
0.00757501
0.0116818
0.0146231
0.0160155
0.0162408
0.016091
0.015952
0.0158101
0.0173529
0.0172912
0.0172749
0.0172042
0.0171487
0.0170409
0.0169284
0.0167578
0.0165486
0.0162398
0.0158081
0.0151592
0.0142141
0.012849
0.0109841
0.00857433
0.00568764
0.00247193
-0.000858156
-0.00411305
-0.00715999
-0.00995381
-0.0125032
-0.0148503
-0.0170357
-0.0190882
-0.0210168
-0.0228124
-0.0244565
-0.0259191
-0.0271761
-0.0281953
-0.0289614
-0.0294494
-0.0296595
-0.0295769
-0.02922
-0.0285841
-0.027705
-0.0265876
-0.0252817
-0.0237993
-0.0221961
-0.0204842
-0.0187054
-0.0168519
-0.0149134
-0.0128277
-0.0104816
-0.0077374
-0.00438951
-0.000379909
0.00424035
0.00887122
0.0127488
0.014988
0.0157134
0.0155468
0.0154442
0.0152276
0.016868
0.0168084
0.0167854
0.0167066
0.0166355
0.0165096
0.016371
0.0161681
0.0159137
0.0155434
0.0150233
0.0142507
0.0131363
0.0115563
0.00944227
0.0067805
0.00367767
0.000314793
-0.00308531
-0.00635103
-0.00938468
-0.0121748
-0.0147537
-0.017172
-0.0194686
-0.0216615
-0.0237485
-0.0257067
-0.0275087
-0.0291147
-0.0304969
-0.0316166
-0.0324586
-0.0329926
-0.0332218
-0.0331264
-0.0327302
-0.0320239
-0.0310506
-0.0298104
-0.0283625
-0.0267158
-0.0249384
-0.0230449
-0.021097
-0.0191002
-0.0170729
-0.0149771
-0.0127282
-0.0102035
-0.00717722
-0.00350947
0.000941251
0.0057786
0.0103853
0.0135116
0.01498
0.0148868
0.0148183
0.0145335
0.0163927
0.0163371
0.0163072
0.0162211
0.0161336
0.015989
0.0158228
0.0155859
0.0152836
0.0148491
0.0142378
0.0133403
0.0120596
0.0102756
0.00793619
0.00505914
0.00178521
-0.00168232
-0.00512431
-0.00839416
-0.0114288
-0.0142444
-0.0168892
-0.0194152
-0.0218549
-0.0242134
-0.0264768
-0.0286092
-0.0305765
-0.0323303
-0.0338409
-0.0350631
-0.0359831
-0.0365645
-0.0368143
-0.0367071
-0.0362732
-0.0354977
-0.034433
-0.0330729
-0.031487
-0.0296777
-0.0277254
-0.0256419
-0.023506
-0.0213315
-0.0191637
-0.0169871
-0.0147507
-0.0123578
-0.0095932
-0.00627979
-0.00214947
0.00263064
0.00764887
0.0116163
0.0138877
0.0141368
0.0140206
0.0137249
0.0158809
0.0158289
0.0157915
0.0156971
0.0155921
0.0154279
0.015233
0.0149613
0.0146106
0.0141117
0.0134105
0.0123925
0.0109552
0.00898644
0.00645124
0.00339795
-6.15756e-06
-0.0035452
-0.00701258
-0.0102888
-0.0133422
-0.0162092
-0.0189478
-0.0216057
-0.0242071
-0.0267425
-0.0291881
-0.0314963
-0.0336287
-0.0355289
-0.0371674
-0.0384917
-0.03949
-0.0401183
-0.0403888
-0.0402682
-0.0397962
-0.0389504
-0.0377954
-0.036317
-0.034598
-0.0326315
-0.0305109
-0.02824
-0.0259135
-0.0235465
-0.0212083
-0.0189018
-0.0166102
-0.0142675
-0.0116853
-0.00868556
-0.00493091
-0.000397767
0.00472676
0.00935917
0.0123914
0.0132566
0.0130455
0.0127855
0.0153969
0.0153506
0.0153062
0.0152048
0.0150826
0.0148992
0.0146755
0.0143691
0.01397
0.0134083
0.0126205
0.0114895
0.00990983
0.00777873
0.00507867
0.00188432
-0.00161809
-0.00520849
-0.00869738
-0.0119913
-0.0150847
-0.0180277
-0.0208828
-0.0236898
-0.0264638
-0.0291813
-0.0318108
-0.0342942
-0.0365917
-0.0386388
-0.0404073
-0.0418359
-0.0429159
-0.043593
-0.043886
-0.0437517
-0.0432412
-0.0423229
-0.0410773
-0.0394806
-0.0376326
-0.0355146
-0.0332353
-0.0307863
-0.0282773
-0.0257178
-0.0231986
-0.0207344
-0.0183404
-0.0159826
-0.0135045
-0.0107549
-0.00736247
-0.00319176
0.00181186
0.00682704
0.0105521
0.0121324
0.0119309
0.0116818
0.0148806
0.0148394
0.0147876
0.0146789
0.0145393
0.0143372
0.0140855
0.0137464
0.013302
0.0126826
0.0118164
0.0105858
0.00888334
0.00661712
0.0037847
0.000482548
-0.00309181
-0.0067192
-0.0102295
-0.0135512
-0.0167
-0.0197335
-0.0227156
-0.0256763
-0.0286226
-0.0315174
-0.034325
-0.0369775
-0.0394362
-0.0416276
-0.0435265
-0.0450599
-0.0462237
-0.04695
-0.0472661
-0.0471157
-0.0465643
-0.045569
-0.0442298
-0.0425116
-0.0405357
-0.0382693
-0.0358405
-0.033224
-0.0305462
-0.0278039
-0.0251076
-0.0224756
-0.0199526
-0.0175331
-0.015094
-0.0125265
-0.00944656
-0.00568568
-0.000949136
0.00414754
0.00845985
0.0106889
0.0107202
0.0103973
0.0144133
0.0143795
0.0143215
0.0142078
0.0140521
0.013833
0.0135546
0.0131848
0.012698
0.0120262
0.0110904
0.00977432
0.00796974
0.00559531
0.00266049
-0.000722118
-0.00434986
-0.00800813
-0.0115451
-0.0149068
-0.0181245
-0.0212589
-0.0243736
-0.0274877
-0.0306021
-0.0336676
-0.0366472
-0.0394637
-0.0420816
-0.0444172
-0.0464492
-0.0480906
-0.0493426
-0.0501209
-0.0504629
-0.0502962
-0.049704
-0.0486284
-0.0471939
-0.0453509
-0.0432477
-0.0408348
-0.0382647
-0.0354914
-0.0326611
-0.029751
-0.0268915
-0.0240952
-0.0214346
-0.018925
-0.0164777
-0.0140304
-0.0112031
-0.00784643
-0.00346199
0.00147107
0.00620283
0.00894832
0.00941657
0.00894338
0.0139155
0.0138881
0.013824
0.0137054
0.0135347
0.0133004
0.0129984
0.0126026
0.0120801
0.0113657
0.0103743
0.00899227
0.00711072
0.00465801
0.00165104
-0.00178601
-0.00545096
-0.00913417
-0.0127007
-0.0161078
-0.0193991
-0.0226338
-0.0258756
-0.0291324
-0.0324024
-0.0356246
-0.0387642
-0.0417342
-0.0445048
-0.0469793
-0.0491429
-0.0508904
-0.0522316
-0.0530609
-0.0534297
-0.0532448
-0.0526111
-0.0514518
-0.0499204
-0.0479492
-0.0457192
-0.0431603
-0.0404558
-0.0375348
-0.0345682
-0.0315068
-0.0285035
-0.0255549
-0.0227619
-0.0201493
-0.0176651
-0.0152874
-0.0126569
-0.0096657
-0.00567529
-0.00106992
0.00386206
0.00697981
0.00796687
0.007331
0.0134903
0.0134719
0.0134036
0.013283
0.0130997
0.0128529
0.01253
0.0121117
0.0115583
0.0108092
0.00977396
0.00834345
0.00640795
0.0039038
0.000851184
-0.00261943
-0.00631013
-0.0100164
-0.0136169
-0.0170748
-0.0204422
-0.0237741
-0.027135
-0.0305221
-0.033934
-0.0372986
-0.0405866
-0.0436996
-0.0466161
-0.0492238
-0.0515168
-0.0533684
-0.0547996
-0.0556799
-0.0560784
-0.0558764
-0.0552048
-0.0539631
-0.0523385
-0.0502404
-0.0478878
-0.0451864
-0.0423561
-0.0392969
-0.0362104
-0.0330149
-0.02989
-0.0268063
-0.0238961
-0.0211796
-0.0186461
-0.0163006
-0.013822
-0.0111431
-0.0075577
-0.00337196
0.00153099
0.00487304
0.00633283
0.0055867
0.0130315
0.0130203
0.0129482
0.0128262
0.0126324
0.0123765
0.0120376
0.0116039
0.0110294
0.0102589
0.00919752
0.00774173
0.00577979
0.00325464
0.000184482
-0.00329712
-0.0070006
-0.0107241
-0.0143575
-0.0178634
-0.0213007
-0.0247169
-0.0281804
-0.0316767
-0.0352098
-0.0386951
-0.0421132
-0.0453511
-0.0483995
-0.0511262
-0.0535388
-0.0554841
-0.0569999
-0.0579253
-0.0583527
-0.0581322
-0.0574266
-0.0561047
-0.0543934
-0.0521725
-0.0497052
-0.0468669
-0.0439212
-0.0407335
-0.0375437
-0.0342302
-0.0310067
-0.0278067
-0.0247999
-0.0219867
-0.0194043
-0.0170662
-0.0147061
-0.0122849
-0.00909278
-0.00536525
-0.000687998
0.002727
0.00454189
0.00376292
0.0126707
0.0126695
0.012596
0.0124762
0.012275
0.0120136
0.0116621
0.0112172
0.010627
0.0098435
0.00876834
0.00730479
0.0053387
0.00281765
-0.000246171
-0.00372031
-0.00742603
-0.0111631
-0.014829
-0.0183811
-0.0218822
-0.0253705
-0.0289199
-0.0325049
-0.0361386
-0.0397233
-0.0432522
-0.0465957
-0.0497598
-0.052589
-0.0551086
-0.0571354
-0.058729
-0.0596937
-0.0601508
-0.0599137
-0.0591824
-0.0577887
-0.0560043
-0.0536722
-0.0511055
-0.0481423
-0.0450971
-0.0417936
-0.038519
-0.035104
-0.0318051
-0.0285082
-0.0254285
-0.0225307
-0.0199089
-0.0175642
-0.0153008
-0.013088
-0.0102637
-0.00699725
-0.00268835
0.000652988
0.00268812
0.00193965
0.0122656
0.0122717
0.0121973
0.0120802
0.0118749
0.0116122
0.0112548
0.0108078
0.0102138
0.00943303
0.00836363
0.00691714
0.00497505
0.00248899
-0.000540346
-0.00398318
-0.00767585
-0.0114159
-0.0151077
-0.018696
-0.022248
-0.025788
-0.0294004
-0.0330461
-0.0367534
-0.0404082
-0.0440221
-0.0474431
-0.0506989
-0.0536046
-0.0562109
-0.0582978
-0.0599557
-0.0609471
-0.0614308
-0.0611753
-0.060426
-0.0589686
-0.0571268
-0.0546976
-0.0520509
-0.0489781
-0.0458525
-0.0424479
-0.0391081
-0.0356072
-0.0322555
-0.0288793
-0.0257506
-0.0227824
-0.0201359
-0.0177785
-0.015599
-0.0135526
-0.0110634
-0.00823601
-0.0043823
-0.00124313
0.000883268
0.000197929
0.0119862
0.0120026
0.0119298
0.0118196
0.0116136
0.0113535
0.0109935
0.0105483
0.00995515
0.00918411
0.0081307
0.00671615
0.00481733
0.00238882
-0.000583443
-0.00397551
-0.00764155
-0.0113761
-0.0150886
-0.0187064
-0.0222992
-0.0258748
-0.02953
-0.0332115
-0.0369673
-0.0406644
-0.0443373
-0.0478076
-0.0511298
-0.0540848
-0.0567556
-0.0588808
-0.0605892
-0.0615955
-0.0621042
-0.0618318
-0.0610761
-0.0595684
-0.0576911
-0.0551852
-0.0524846
-0.0493238
-0.0461433
-0.0426562
-0.0392739
-0.0357035
-0.0323214
-0.0288825
-0.0257282
-0.0227035
-0.0200499
-0.0176787
-0.0155778
-0.0136638
-0.0114763
-0.00905169
-0.0056965
-0.00286126
-0.000764247
-0.00138176
0.0116412
0.0116639
0.0115933
0.0114901
0.0112874
0.0110353
0.0106809
0.0102482
0.00966923
0.00892501
0.00790767
0.00655017
0.00472232
0.00238298
-0.000502287
-0.003815
-0.00743327
-0.0111446
-0.0148658
-0.0184985
-0.0221174
-0.0257059
-0.0293798
-0.0330658
-0.0368405
-0.0405453
-0.0442464
-0.0477306
-0.0510887
-0.0540589
-0.0567672
-0.0589019
-0.0606423
-0.0616461
-0.0621747
-0.0618823
-0.0611297
-0.0595823
-0.0576906
-0.0551276
-0.0524004
-0.0491734
-0.0459647
-0.0424139
-0.0390125
-0.0353872
-0.031996
-0.0285075
-0.0253495
-0.0222801
-0.0196378
-0.0172538
-0.0152314
-0.0134211
-0.0115032
-0.00943438
-0.00658735
-0.00412441
-0.00216966
-0.0027335
0.0114538
0.011486
0.0114201
0.0113282
0.0111319
0.0108912
0.0105448
0.0101271
0.0095647
0.00885123
0.00787575
0.00658508
0.00484196
0.00261036
-0.000166916
-0.00337851
-0.00693051
-0.0106038
-0.0143239
-0.0179623
-0.0215979
-0.0251847
-0.0288595
-0.0325259
-0.036294
-0.0399765
-0.0436775
-0.0471436
-0.0505092
-0.0534632
-0.0561836
-0.058302
-0.0600579
-0.0610445
-0.0615903
-0.0612781
-0.0605411
-0.0589678
-0.0570866
-0.0544894
-0.0517669
-0.0484986
-0.0452925
-0.0416986
-0.0383034
-0.0346374
-0.0312581
-0.0277306
-0.0245887
-0.0214836
-0.0188704
-0.0164747
-0.0145344
-0.0128038
-0.0111285
-0.00936487
-0.00701512
-0.00496071
-0.00325076
-0.00378357
0.0111658
0.0112024
0.0111413
0.0110604
0.0108752
0.0106522
0.0103235
0.0099333
0.00940208
0.00873761
0.0078238
0.00662456
0.0049922
0.00290011
0.00026233
-0.00281345
-0.0062705
-0.00987872
-0.0135799
-0.017206
-0.0208452
-0.0244104
-0.0280671
-0.0316853
-0.0354203
-0.0390458
-0.0427169
-0.0461285
-0.0494723
-0.0523754
-0.0550822
-0.0571551
-0.058909
-0.0598599
-0.0604181
-0.0600812
-0.0593692
-0.0577785
-0.0559292
-0.0533154
-0.0506257
-0.0473365
-0.0441613
-0.040541
-0.0371756
-0.033479
-0.0301305
-0.0265703
-0.0234627
-0.0203271
-0.0177606
-0.0153527
-0.0135009
-0.0118272
-0.0103702
-0.00885564
-0.00697273
-0.00532659
-0.00394344
-0.00446821
0.011075
0.01112
0.0110657
0.0109997
0.0108275
0.0106247
0.0103141
0.00995148
0.00944996
0.00883373
0.00798085
0.00687538
0.00535905
0.00341805
0.000936205
-0.00198137
-0.00532056
-0.00884158
-0.0125083
-0.0161103
-0.0197465
-0.0232812
-0.0269103
-0.0304633
-0.0341469
-0.0376899
-0.0413074
-0.044636
-0.0479339
-0.0507584
-0.0534311
-0.0554358
-0.0571746
-0.0580763
-0.0586453
-0.0582825
-0.057607
-0.0560095
-0.0542147
-0.0516029
-0.0489749
-0.0456852
-0.0425695
-0.0389381
-0.0356256
-0.0319061
-0.0286059
-0.0250154
-0.021958
-0.0187927
-0.0162885
-0.013865
-0.0121096
-0.0104716
-0.00921456
-0.00789404
-0.00643896
-0.00517193
-0.00416917
-0.00470156
0.0108316
0.0108781
0.0108304
0.0107787
0.0106249
0.01045
0.010169
0.00984888
0.00939351
0.00884557
0.00807317
0.00708548
0.00570822
0.00394862
0.00165312
-0.00106707
-0.00425296
-0.00764841
-0.0112548
-0.0148083
-0.0184303
-0.0219193
-0.0255124
-0.0289808
-0.0325973
-0.0360302
-0.0395731
-0.042788
-0.0460192
-0.0487363
-0.0513578
-0.0532706
-0.0549839
-0.0558203
-0.0563988
-0.0560036
-0.0553736
-0.053772
-0.0520501
-0.0494495
-0.046907
-0.0436274
-0.0405949
-0.0369594
-0.0337192
-0.0299774
-0.0267412
-0.0231178
-0.020127
-0.0169295
-0.0145057
-0.0120605
-0.0104131
-0.00878751
-0.00771527
-0.00652751
-0.00544669
-0.00449265
-0.00387943
-0.00442112
0.0108387
0.0108919
0.0108521
0.0108179
0.0106823
0.0105355
0.010281
0.0099998
0.0095837
0.00909713
0.00839612
0.00751912
0.0062746
0.00469687
0.00259401
8.88581e-05
-0.00292067
-0.00616189
-0.00968489
-0.0131715
-0.0167725
-0.0202116
-0.0237703
-0.02715
-0.0306957
-0.0340056
-0.0374623
-0.0405447
-0.0436956
-0.0462871
-0.0488466
-0.0506529
-0.0523353
-0.0530977
-0.0536877
-0.0532581
-0.0526841
-0.0510835
-0.0494521
-0.0468723
-0.044437
-0.041177
-0.0382485
-0.0346128
-0.0314612
-0.0276944
-0.0245352
-0.020872
-0.0179614
-0.0147236
-0.0123963
-0.00991808
-0.0083912
-0.00675343
-0.00585856
-0.00474608
-0.00398935
-0.00326375
-0.00300749
-0.00354195
0.0106191
0.0106701
0.0106378
0.0106204
0.0105097
0.0104011
0.0101875
0.00996402
0.0096066
0.00920493
0.00859558
0.00785376
0.00676143
0.00539277
0.00350742
0.0012561
-0.00153996
-0.0045784
-0.00798198
-0.0113647
-0.0149293
-0.0183028
-0.0218287
-0.0251118
-0.0285887
-0.0317622
-0.0351284
-0.0380592
-0.041123
-0.0435693
-0.0460627
-0.0477461
-0.0493978
-0.0500737
-0.0506802
-0.0502082
-0.0497003
-0.0480963
-0.0465704
-0.0440087
-0.0416976
-0.038453
-0.0356444
-0.0320006
-0.0289517
-0.0251485
-0.0220811
-0.0183667
-0.0155568
-0.0122687
-0.0100634
-0.00753854
-0.00615479
-0.00447508
-0.003758
-0.00265252
-0.00216356
-0.00154713
-0.0015624
-0.0020489
0.0107248
0.010781
0.0107562
0.010758
0.0106685
0.0105948
0.0104135
0.0102385
0.00992541
0.00959385
0.00905708
0.00843236
0.00747194
0.00629796
0.0046198
0.00262674
5.79746e-05
-0.00274879
-0.00600409
-0.00925313
-0.0127662
-0.0160657
-0.0195656
-0.0227588
-0.0261802
-0.0292224
-0.0325054
-0.0352822
-0.0382606
-0.0405562
-0.0429845
-0.0445401
-0.0461645
-0.0467507
-0.0473802
-0.0468642
-0.0464322
-0.0448244
-0.0434159
-0.0408715
-0.0386969
-0.0354637
-0.0327858
-0.0291249
-0.0261878
-0.0223353
-0.0193708
-0.0155905
-0.012897
-0.00954207
-0.00747924
-0.00488541
-0.00366628
-0.00190966
-0.00138183
-0.000220282
3.26394e-05
0.000656249
0.00047207
9.39113e-05
0.0105004
0.0105501
0.010533
0.0105537
0.0104947
0.0104703
0.0103404
0.0102392
0.00999493
0.00976325
0.00932212
0.00884205
0.00803056
0.00707543
0.00562016
0.00391738
0.00160509
-0.000919064
-0.00398422
-0.00704625
-0.0104799
-0.0136759
-0.0171504
-0.0202482
-0.0236315
-0.0265437
-0.0297613
-0.0323809
-0.0352873
-0.0374241
-0.039799
-0.0412173
-0.0428265
-0.043313
-0.0439786
-0.0434073
-0.0430645
-0.0414394
-0.0401613
-0.0376173
-0.035591
-0.0323483
-0.0298123
-0.0261111
-0.0233005
-0.0193767
-0.016538
-0.0126736
-0.0101309
-0.00669194
-0.00481516
-0.00212741
-0.00111744
0.000760996
0.00106934
0.00237104
0.00241081
0.00319406
0.00296812
0.0027871
0.0107083
0.0107621
0.0107513
0.0107926
0.0107552
0.0107714
0.0106758
0.0106305
0.01043
0.010273
0.00989638
0.00953059
0.00883281
0.00806551
0.00680214
0.00537266
0.00330925
0.00108294
-0.00176866
-0.00460639
-0.00793277
-0.0110003
-0.0144459
-0.0174504
-0.0208149
-0.0236137
-0.0267911
-0.0292696
-0.0321246
-0.034113
-0.03645
-0.0377365
-0.0393432
-0.0397322
-0.0404442
-0.0398165
-0.039571
-0.0379236
-0.0367815
-0.0342283
-0.0323538
-0.0290879
-0.0266972
-0.0229399
-0.0202629
-0.0162518
-0.0135537
-0.00958704
-0.00721736
-0.0036682
-0.00200459
0.000817683
0.00158601
0.00364387
0.0036943
0.0052166
0.00501915
0.00608633
0.00589281
0.00600499
0.0104428
0.0104849
0.0104817
0.0105449
0.0105438
0.0106224
0.010588
0.0106348
0.0105105
0.0104684