/*--------------------------------*- C++ -*----------------------------------*\
| =========                 |                                                 |
| \\      /  F ield         | OpenFOAM: The Open Source CFD Toolbox           |
|  \\    /   O peration     | Version:  2406                                  |
|   \\  /    A nd           | Website:  www.openfoam.com                      |
|    \\/     M anipulation  |                                                 |
\*---------------------------------------------------------------------------*/
FoamFile
{
    version     2.0;
    format      ascii;
    arch        "LSB;label=32;scalar=64";
    class       volVectorField;
    location    "17.25";
    object      U_0;
}
// * * * * * * * * * * * * * * * * * * * * * * * * * * * * * * * * * * * * * //

dimensions      [0 1 -1 0 0 0 0];

internalField   nonuniform List<vector> 
16384
(
(1.55336e-06 -1.51806e-06 0)
(1.63737e-05 -4.35014e-06 0)
(3.98313e-05 -5.70929e-06 0)
(6.47395e-05 -5.74017e-06 0)
(8.67228e-05 -5.06044e-06 0)
(0.00010345 -4.11136e-06 0)
(0.000114033 -3.13457e-06 0)
(0.000118458 -2.24949e-06 0)
(0.00011718 -1.51242e-06 0)
(0.000110856 -9.19915e-07 0)
(0.000100184 -4.54873e-07 0)
(8.57757e-05 -9.02811e-08 0)
(6.811e-05 2.06265e-07 0)
(4.75122e-05 4.62398e-07 0)
(2.41553e-05 7.05122e-07 0)
(-1.92644e-06 9.5505e-07 0)
(-3.08136e-05 1.22753e-06 0)
(-6.26775e-05 1.53317e-06 0)
(-9.7757e-05 1.87854e-06 0)
(-0.000136338 2.26708e-06 0)
(-0.000178737 2.70004e-06 0)
(-0.00022529 3.17731e-06 0)
(-0.000276345 3.69811e-06 0)
(-0.000332255 4.26159e-06 0)
(-0.000393381 4.8672e-06 0)
(-0.000460089 5.51498e-06 0)
(-0.000532752 6.20574e-06 0)
(-0.000611756 6.94111e-06 0)
(-0.000697498 7.7236e-06 0)
(-0.000790391 8.5565e-06 0)
(-0.000890864 9.44382e-06 0)
(-0.000999366 1.03902e-05 0)
(-0.00111636 1.14007e-05 0)
(-0.00124233 1.24809e-05 0)
(-0.00137777 1.36361e-05 0)
(-0.00152318 1.48716e-05 0)
(-0.00167907 1.61924e-05 0)
(-0.00184591 1.76025e-05 0)
(-0.0020242 1.91046e-05 0)
(-0.00221436 2.07002e-05 0)
(-0.00241679 2.23884e-05 0)
(-0.00263179 2.41661e-05 0)
(-0.00285961 2.60272e-05 0)
(-0.00310034 2.79623e-05 0)
(-0.00335396 2.99583e-05 0)
(-0.00362028 3.19978e-05 0)
(-0.00389891 3.4059e-05 0)
(-0.00418924 3.61149e-05 0)
(-0.00449043 3.81337e-05 0)
(-0.00480134 4.0078e-05 0)
(-0.00512057 4.19052e-05 0)
(-0.00544637 4.35671e-05 0)
(-0.0057767 4.50105e-05 0)
(-0.00610915 4.61775e-05 0)
(-0.00644098 4.70062e-05 0)
(-0.00676911 4.74316e-05 0)
(-0.00709013 4.7387e-05 0)
(-0.00740034 4.68053e-05 0)
(-0.00769574 4.56209e-05 0)
(-0.0079721 4.37722e-05 0)
(-0.00822503 4.1204e-05 0)
(-0.00845 3.787e-05 0)
(-0.00864245 3.37364e-05 0)
(-0.00879787 2.87897e-05 0)
(-0.00891192 2.3056e-05 0)
(-0.00898056 1.65785e-05 0)
(-0.00899972 9.20237e-06 0)
(-0.0089658 9.47689e-07 0)
(-0.00887611 -7.93216e-06 0)
(-0.00872842 -1.72991e-05 0)
(-0.00852129 -2.70397e-05 0)
(-0.00825407 -3.70093e-05 0)
(-0.00792707 -4.70346e-05 0)
(-0.00754152 -5.69226e-05 0)
(-0.00709969 -6.64664e-05 0)
(-0.00660487 -7.5452e-05 0)
(-0.00606136 -8.36649e-05 0)
(-0.00547447 -9.0898e-05 0)
(-0.00485037 -9.69595e-05 0)
(-0.00419608 -0.000101681 0)
(-0.0035193 -0.000104924 0)
(-0.00282825 -0.000106589 0)
(-0.00213151 -0.000106616 0)
(-0.00143784 -0.000104992 0)
(-0.000755914 -0.000101756 0)
(-9.41624e-05 -9.70105e-05 0)
(0.000539356 -9.09018e-05 0)
(0.0011373 -8.35269e-05 0)
(0.00169322 -7.51408e-05 0)
(0.00220156 -6.59714e-05 0)
(0.00265788 -5.62626e-05 0)
(0.00305889 -4.62595e-05 0)
(0.00340252 -3.62052e-05 0)
(0.0036879 -2.63308e-05 0)
(0.00391529 -1.68416e-05 0)
(0.00408604 -7.91496e-06 0)
(0.00420244 3.05639e-07 0)
(0.00426762 7.71142e-06 0)
(0.00428536 1.42338e-05 0)
(0.00425995 1.98473e-05 0)
(0.00419605 2.45054e-05 0)
(0.00409848 2.82584e-05 0)
(0.0039721 3.1153e-05 0)
(0.00382168 3.32523e-05 0)
(0.00365182 3.46327e-05 0)
(0.00346681 3.53785e-05 0)
(0.00327058 3.55784e-05 0)
(0.00306666 3.53224e-05 0)
(0.00285817 3.46981e-05 0)
(0.00264774 3.37893e-05 0)
(0.0024376 3.2674e-05 0)
(0.00222952 3.14239e-05 0)
(0.00202489 3.0103e-05 0)
(0.00182472 2.87666e-05 0)
(0.00162974 2.74606e-05 0)
(0.00144041 2.62188e-05 0)
(0.00125704 2.50605e-05 0)
(0.00107988 2.39856e-05 0)
(0.000909269 2.2968e-05 0)
(0.000745764 2.19463e-05 0)
(0.000590365 2.08108e-05 0)
(0.000444739 1.93872e-05 0)
(0.000311491 1.74162e-05 0)
(0.000194411 1.45349e-05 0)
(9.85572e-05 1.02901e-05 0)
(2.97689e-05 4.36224e-06 0)
(-6.20951e-06 -2.67697e-06 0)
(-7.85008e-06 -7.86569e-06 0)
(4.50367e-06 -1.64326e-05 0)
(3.7795e-05 -3.74161e-05 0)
(8.40378e-05 -4.55757e-05 0)
(0.000130551 -4.3604e-05 0)
(0.000168582 -3.54981e-05 0)
(0.000193365 -2.44114e-05 0)
(0.00020287 -1.24495e-05 0)
(0.00019684 -8.73837e-07 0)
(0.000176092 9.65893e-06 0)
(0.000141978 1.89242e-05 0)
(9.59794e-05 2.69558e-05 0)
(3.94655e-05 3.3945e-05 0)
(-2.6466e-05 4.0162e-05 0)
(-0.000101049 4.58989e-05 0)
(-0.000183862 5.14344e-05 0)
(-0.000274816 5.7013e-05 0)
(-0.000374103 6.28352e-05 0)
(-0.000482147 6.90564e-05 0)
(-0.000599554 7.579e-05 0)
(-0.000727062 8.31144e-05 0)
(-0.000865506 9.10811e-05 0)
(-0.00101579 9.97221e-05 0)
(-0.00117885 0.000109058 0)
(-0.00135567 0.000119103 0)
(-0.00154727 0.00012987 0)
(-0.00175467 0.000141374 0)
(-0.00197894 0.000153634 0)
(-0.00222116 0.000166673 0)
(-0.00248247 0.000180519 0)
(-0.00276402 0.000195201 0)
(-0.00306701 0.000210754 0)
(-0.00339267 0.000227209 0)
(-0.00374225 0.000244596 0)
(-0.00411702 0.00026294 0)
(-0.00451826 0.000282257 0)
(-0.00494722 0.00030255 0)
(-0.00540513 0.000323805 0)
(-0.00589313 0.000345987 0)
(-0.00641226 0.000369037 0)
(-0.00696342 0.000392863 0)
(-0.00754731 0.000417339 0)
(-0.00816437 0.000442298 0)
(-0.00881474 0.000467529 0)
(-0.00949819 0.000492776 0)
(-0.0102141 0.00051773 0)
(-0.0109612 0.000542031 0)
(-0.0117379 0.000565269 0)
(-0.0125417 0.000586978 0)
(-0.0133697 0.000606648 0)
(-0.0142181 0.000623721 0)
(-0.0150824 0.0006376 0)
(-0.0159572 0.000647658 0)
(-0.0168363 0.000653245 0)
(-0.0177129 0.000653703 0)
(-0.0185792 0.000648376 0)
(-0.0194267 0.000636627 0)
(-0.0202462 0.000617859 0)
(-0.0210281 0.000591527 0)
(-0.0217621 0.000557162 0)
(-0.0224376 0.000514391 0)
(-0.0230438 0.000462956 0)
(-0.0235699 0.000402736 0)
(-0.0240053 0.000333768 0)
(-0.0243397 0.000256278 0)
(-0.0245636 0.000170718 0)
(-0.0246684 7.76374e-05 0)
(-0.0246459 -2.25557e-05 0)
(-0.0244885 -0.000128477 0)
(-0.0241913 -0.000239062 0)
(-0.0237507 -0.000352975 0)
(-0.023165 -0.000468695 0)
(-0.0224342 -0.000584542 0)
(-0.0215604 -0.000698717 0)
(-0.0205477 -0.000809336 0)
(-0.0194025 -0.00091447 0)
(-0.0181333 -0.00101219 0)
(-0.0167506 -0.00110063 0)
(-0.0152671 -0.00117801 0)
(-0.0136971 -0.00124272 0)
(-0.0120567 -0.00129336 0)
(-0.0103633 -0.00132879 0)
(-0.00863532 -0.00134818 0)
(-0.00689205 -0.00135105 0)
(-0.00515303 -0.00133726 0)
(-0.00343779 -0.0013071 0)
(-0.00176542 -0.00126123 0)
(-0.000154163 -0.00120071 0)
(0.00137891 -0.00112683 0)
(0.00281843 -0.0010413 0)
(0.00415095 -0.000946053 0)
(0.00536517 -0.000843248 0)
(0.00645223 -0.000735088 0)
(0.00740575 -0.000623841 0)
(0.00822197 -0.000511747 0)
(0.00889967 -0.000400929 0)
(0.00944008 -0.000293345 0)
(0.00984673 -0.000190724 0)
(0.0101252 -9.45342e-05 0)
(0.0102827 -5.94799e-06 0)
(0.010328 7.42087e-05 0)
(0.010271 0.000145411 0)
(0.0101223 0.000207357 0)
(0.00989305 0.000260023 0)
(0.00959424 0.000303648 0)
(0.00923689 0.000338667 0)
(0.00883152 0.000365671 0)
(0.00838806 0.000385369 0)
(0.00791563 0.000398549 0)
(0.00742247 0.000406048 0)
(0.00691585 0.000408715 0)
(0.00640202 0.000407388 0)
(0.00588627 0.000402865 0)
(0.00537291 0.000395878 0)
(0.00486543 0.000387077 0)
(0.00436652 0.000376993 0)
(0.00387832 0.000366017 0)
(0.00340256 0.000354355 0)
(0.00294082 0.000341992 0)
(0.00249485 0.000328631 0)
(0.00206689 0.000313638 0)
(0.00166012 0.000295978 0)
(0.00127907 0.000274168 0)
(0.000930051 0.000246278 0)
(0.000621438 0.000210087 0)
(0.000363556 0.000163581 0)
(0.000167755 0.000106344 0)
(4.42928e-05 4.33316e-05 0)
(-2.53481e-06 -6.21027e-06 0)
(6.03076e-06 -4.04152e-05 0)
(4.63146e-05 -8.39494e-05 0)
(9.73767e-05 -9.71423e-05 0)
(0.000144345 -8.84945e-05 0)
(0.000176697 -6.6368e-05 0)
(0.00018876 -3.73521e-05 0)
(0.000178074 -6.0823e-06 0)
(0.00014434 2.4522e-05 0)
(8.86067e-05 5.2848e-05 0)
(1.26213e-05 7.82472e-05 0)
(-8.16672e-05 0.000100722 0)
(-0.000192439 0.000120677 0)
(-0.000318218 0.000138733 0)
(-0.000457974 0.000155593 0)
(-0.000611151 0.000171943 0)
(-0.00077765 0.000188404 0)
(-0.000957775 0.000205495 0)
(-0.00115217 0.000223634 0)
(-0.00136176 0.000243134 0)
(-0.00158765 0.000264226 0)
(-0.00183115 0.000287068 0)
(-0.00209363 0.000311772 0)
(-0.0023766 0.000338415 0)
(-0.00268161 0.000367057 0)
(-0.00301028 0.000397751 0)
(-0.00336426 0.00043055 0)
(-0.00374529 0.000465512 0)
(-0.00415512 0.000502702 0)
(-0.00459559 0.000542189 0)
(-0.00506856 0.000584046 0)
(-0.00557595 0.000628344 0)
(-0.0061197 0.000675145 0)
(-0.00670176 0.000724498 0)
(-0.00732411 0.000776429 0)
(-0.00798865 0.000830929 0)
(-0.00869723 0.00088795 0)
(-0.00945159 0.000947387 0)
(-0.0102533 0.00100907 0)
(-0.0111037 0.00107275 0)
(-0.0120037 0.0011381 0)
(-0.0129541 0.00120466 0)
(-0.0139551 0.0012719 0)
(-0.0150061 0.00133913 0)
(-0.0161063 0.00140557 0)
(-0.0172538 0.00147027 0)
(-0.0184461 0.00153218 0)
(-0.0196795 0.0015901 0)
(-0.0209497 0.00164272 0)
(-0.0222509 0.00168861 0)
(-0.0235764 0.00172628 0)
(-0.0249185 0.00175411 0)
(-0.026268 0.0017705 0)
(-0.0276149 0.00177379 0)
(-0.028948 0.00176236 0)
(-0.0302549 0.00173465 0)
(-0.0315227 0.0016892 0)
(-0.0327373 0.00162469 0)
(-0.0338842 0.00154002 0)
(-0.0349486 0.0014343 0)
(-0.0359154 0.00130692 0)
(-0.0367693 0.00115763 0)
(-0.0374957 0.000986497 0)
(-0.0380802 0.000794019 0)
(-0.0385094 0.000581131 0)
(-0.038771 0.000349255 0)
(-0.0388547 0.000100117 0)
(-0.0387502 -0.000164728 0)
(-0.038449 -0.000441528 0)
(-0.0379463 -0.000727671 0)
(-0.0372386 -0.00101983 0)
(-0.0363251 -0.00131426 0)
(-0.0352074 -0.00160689 0)
(-0.0338895 -0.00189347 0)
(-0.0323783 -0.00216962 0)
(-0.0306834 -0.00243091 0)
(-0.028817 -0.00267297 0)
(-0.0267937 -0.00289158 0)
(-0.0246307 -0.00308279 0)
(-0.0223474 -0.00324302 0)
(-0.0199651 -0.00336914 0)
(-0.0175068 -0.00345861 0)
(-0.014997 -0.00350957 0)
(-0.012461 -0.00352088 0)
(-0.00992467 -0.0034922 0)
(-0.00741393 -0.00342402 0)
(-0.00495437 -0.0033177 0)
(-0.00257067 -0.00317543 0)
(-0.000286184 -0.00300014 0)
(0.00187755 -0.00279544 0)
(0.00390119 -0.00256555 0)
(0.00576808 -0.00231534 0)
(0.00746443 -0.00204983 0)
(0.00897955 -0.00177425 0)
(0.010306 -0.00149389 0)
(0.0114398 -0.00121385 0)
(0.0123801 -0.000938957 0)
(0.0131293 -0.000673607 0)
(0.0136927 -0.000421651 0)
(0.0140782 -0.000186315 0)
(0.014296 2.98758e-05 0)
(0.0143582 0.000225141 0)
(0.0142781 0.000398322 0)
(0.0140704 0.000548881 0)
(0.0137499 0.000676946 0)
(0.0133318 0.00078318 0)
(0.0128312 0.000868691 0)
(0.0122622 0.000934946 0)
(0.0116385 0.000983682 0)
(0.0109725 0.00101682 0)
(0.0102754 0.00103636 0)
(0.00955727 0.00104435 0)
(0.00882677 0.00104275 0)
(0.00809124 0.0010334 0)
(0.00735685 0.00101795 0)
(0.0066287 0.000997756 0)
(0.00591103 0.000973819 0)
(0.0052075 0.000946691 0)
(0.00452151 0.000916368 0)
(0.00385657 0.000882175 0)
(0.00321683 0.000842658 0)
(0.0026075 0.000795489 0)
(0.00203538 0.00073744 0)
(0.00150929 0.000664511 0)
(0.00104027 0.000572393 0)
(0.000641338 0.000457592 0)
(0.000326638 0.000319892 0)
(0.000110661 0.000167868 0)
(4.93302e-06 3.09148e-05 0)
(6.19687e-06 -6.59348e-05 0)
(4.36144e-05 -0.000130179 0)
(8.56211e-05 -0.000143651 0)
(0.000116758 -0.000122202 0)
(0.000126258 -7.9282e-05 0)
(0.000108534 -2.52932e-05 0)
(6.13594e-05 3.23527e-05 0)
(-1.52727e-05 8.88646e-05 0)
(-0.000119991 0.000141545 0)
(-0.000250693 0.000189265 0)
(-0.000405102 0.000231994 0)
(-0.000581118 0.0002704 0)
(-0.000777054 0.000305538 0)
(-0.000991755 0.00033862 0)
(-0.00122463 0.000370851 0)
(-0.00147564 0.000403334 0)
(-0.00174524 0.000437009 0)
(-0.0020343 0.000472641 0)
(-0.00234403 0.000510822 0)
(-0.00267592 0.000551999 0)
(-0.00303167 0.000596495 0)
(-0.00341317 0.000644547 0)
(-0.0038224 0.000696331 0)
(-0.00426149 0.00075199 0)
(-0.00473264 0.000811646 0)
(-0.00523816 0.000875421 0)
(-0.00578042 0.000943436 0)
(-0.00636187 0.00101582 0)
(-0.00698504 0.00109269 0)
(-0.00765249 0.00117418 0)
(-0.00836686 0.00126039 0)
(-0.00913078 0.0013514 0)
(-0.00994686 0.00144726 0)
(-0.0108177 0.00154794 0)
(-0.0117458 0.00165336 0)
(-0.0127334 0.00176333 0)
(-0.0137827 0.00187755 0)
(-0.0148954 0.00199559 0)
(-0.0160729 0.00211685 0)
(-0.0173162 0.00224056 0)
(-0.0186255 0.00236574 0)
(-0.0200004 0.00249121 0)
(-0.0214397 0.00261554 0)
(-0.0229411 0.0027371 0)
(-0.0245014 0.00285398 0)
(-0.0261161 0.00296408 0)
(-0.0277796 0.00306507 0)
(-0.0294848 0.00315442 0)
(-0.0312233 0.00322943 0)
(-0.0329853 0.00328732 0)
(-0.0347595 0.00332518 0)
(-0.0365333 0.00334011 0)
(-0.0382929 0.00332926 0)
(-0.0400233 0.00328989 0)
(-0.0417082 0.00321942 0)
(-0.0433308 0.00311556 0)
(-0.0448734 0.00297634 0)
(-0.046318 0.00280021 0)
(-0.0476463 0.00258608 0)
(-0.0488404 0.00233341 0)
(-0.0498824 0.00204227 0)
(-0.0507554 0.00171335 0)
(-0.0514432 0.00134804 0)
(-0.051931 0.000948417 0)
(-0.0522056 0.000517194 0)
(-0.0522566 5.7835e-05 0)
(-0.052073 -0.000424908 0)
(-0.0516461 -0.000926768 0)
(-0.0509724 -0.00144231 0)
(-0.0500492 -0.00196551 0)
(-0.0488768 -0.00248995 0)
(-0.0474581 -0.00300882 0)
(-0.0457988 -0.00351507 0)
(-0.0439075 -0.00400147 0)
(-0.0417958 -0.00446081 0)
(-0.0394778 -0.00488597 0)
(-0.0369706 -0.00527013 0)
(-0.0342937 -0.0056069 0)
(-0.031469 -0.00589046 0)
(-0.0285208 -0.00611576 0)
(-0.0254749 -0.00627862 0)
(-0.0223589 -0.00637592 0)
(-0.0192016 -0.00640567 0)
(-0.0160325 -0.00636713 0)
(-0.0128814 -0.00626087 0)
(-0.009778 -0.00608881 0)
(-0.00675127 -0.00585419 0)
(-0.00382902 -0.00556153 0)
(-0.00103732 -0.00521652 0)
(0.00159973 -0.00482586 0)
(0.00406078 -0.00439714 0)
(0.00632766 -0.00393864 0)
(0.00838524 -0.00345896 0)
(0.0102221 -0.00296698 0)
(0.0118304 -0.00247138 0)
(0.0132063 -0.00198052 0)
(0.0143494 -0.00150219 0)
(0.0152632 -0.00104338 0)
(0.0159541 -0.000610128 0)
(0.0164317 -0.000207428 0)
(0.0167084 0.000160857 0)
(0.0167982 0.000492002 0)
(0.016717 0.000784555 0)
(0.0164819 0.00103805 0)
(0.0161106 0.00125298 0)
(0.0156209 0.00143074 0)
(0.0150302 0.0015734 0)
(0.0143556 0.00168363 0)
(0.0136129 0.00176449 0)
(0.0128168 0.00181932 0)
(0.0119807 0.00185155 0)
(0.0111166 0.00186457 0)
(0.0102348 0.00186162 0)
(0.00934426 0.00184559 0)
(0.00845277 0.00181894 0)
(0.00756693 0.0017835 0)
(0.00669263 0.00174032 0)
(0.00583532 0.00168952 0)
(0.00500048 0.00163007 0)
(0.00419414 0.00155968 0)
(0.00342333 0.00147465 0)
(0.00269669 0.00136993 0)
(0.00202481 0.00123939 0)
(0.00142053 0.00107653 0)
(0.000898763 0.000876152 0)
(0.000476358 0.000637356 0)
(0.00017361 0.000369512 0)
(1.16358e-05 0.000103469 0)
(5.49733e-06 -8.78182e-05 0)
(3.26487e-05 -0.000165091 0)
(5.4608e-05 -0.000170986 0)
(5.67916e-05 -0.000129062 0)
(2.9379e-05 -5.81255e-05 0)
(-3.23583e-05 2.75405e-05 0)
(-0.000129908 0.000117777 0)
(-0.00026264 0.000205966 0)
(-0.000428663 0.00028839 0)
(-0.000625483 0.000363501 0)
(-0.000850532 0.000431299 0)
(-0.00110152 0.000492788 0)
(-0.00137664 0.000549534 0)
(-0.00167474 0.00060334 0)
(-0.00199527 0.000656009 0)
(-0.00233832 0.0007092 0)
(-0.00270454 0.000764348 0)
(-0.00309506 0.000822632 0)
(-0.00351141 0.000884985 0)
(-0.00395545 0.000952124 0)
(-0.00442931 0.00102459 0)
(-0.00493534 0.0011028 0)
(-0.00547608 0.00118707 0)
(-0.0060542 0.00127766 0)
(-0.00667255 0.00137482 0)
(-0.00733406 0.00147876 0)
(-0.00804182 0.00158969 0)
(-0.00879898 0.00170783 0)
(-0.00960881 0.00183336 0)
(-0.0104746 0.00196647 0)
(-0.0113997 0.00210728 0)
(-0.0123875 0.00225586 0)
(-0.0134412 0.0024122 0)
(-0.014564 0.00257618 0)
(-0.0157589 0.00274753 0)
(-0.0170286 0.00292583 0)
(-0.0183755 0.00311044 0)
(-0.0198014 0.0033005 0)
(-0.0213075 0.00349485 0)
(-0.0228945 0.00369208 0)
(-0.024562 0.00389041 0)
(-0.0263088 0.00408774 0)
(-0.0281324 0.00428162 0)
(-0.0300291 0.00446923 0)
(-0.0319939 0.0046474 0)
(-0.0340202 0.00481265 0)
(-0.0361 0.00496118 0)
(-0.0382234 0.00508898 0)
(-0.0403793 0.00519181 0)
(-0.0425546 0.00526535 0)
(-0.0447349 0.00530526 0)
(-0.0469043 0.00530724 0)
(-0.0490456 0.00526718 0)
(-0.0511405 0.00518123 0)
(-0.0531697 0.00504593 0)
(-0.0551134 0.00485831 0)
(-0.0569512 0.00461598 0)
(-0.0586627 0.00431723 0)
(-0.0602277 0.00396111 0)
(-0.0616263 0.00354752 0)
(-0.0628395 0.00307725 0)
(-0.0638493 0.00255199 0)
(-0.0646388 0.00197443 0)
(-0.065193 0.00134819 0)
(-0.0654986 0.000677823 0)
(-0.0655439 -3.11398e-05 0)
(-0.0653198 -0.000771748 0)
(-0.0648184 -0.00153759 0)
(-0.0640357 -0.00232052 0)
(-0.0629697 -0.00311183 0)
(-0.0616212 -0.00390232 0)
(-0.0599938 -0.00468237 0)
(-0.0580937 -0.00544203 0)
(-0.0559302 -0.00617122 0)
(-0.0535154 -0.00685985 0)
(-0.0508642 -0.00749803 0)
(-0.0479941 -0.00807624 0)
(-0.0449256 -0.00858554 0)
(-0.0416816 -0.00901775 0)
(-0.0382873 -0.00936571 0)
(-0.0347701 -0.0096234 0)
(-0.0311591 -0.00978619 0)
(-0.0274853 -0.00985097 0)
(-0.0237802 -0.00981633 0)
(-0.0200765 -0.0096826 0)
(-0.0164068 -0.00945196 0)
(-0.0128036 -0.00912845 0)
(-0.00929822 -0.00871789 0)
(-0.00592092 -0.00822779 0)
(-0.0026999 -0.00766728 0)
(0.000339035 -0.00704659 0)
(0.00317313 -0.0063772 0)
(0.00578276 -0.00567117 0)
(0.00815205 -0.00494126 0)
(0.0102691 -0.00419992 0)
(0.0121259 -0.00345955 0)
(0.0137188 -0.00273176 0)
(0.0150479 -0.00202727 0)
(0.0161173 -0.00135558 0)
(0.0169347 -0.000724778 0)
(0.017511 -0.000141403 0)
(0.0178598 0.000389589 0)
(0.0179972 0.000865037 0)
(0.0179409 0.00128334 0)
(0.0177097 0.00164436 0)
(0.0173233 0.00194929 0)
(0.0168014 0.00220052 0)
(0.0161635 0.00240139 0)
(0.0154284 0.00255599 0)
(0.0146138 0.00266891 0)
(0.013736 0.00274501 0)
(0.0128101 0.00278921 0)
(0.0118494 0.00280625 0)
(0.0108658 0.00280049 0)
(0.0098698 0.00277562 0)
(0.0088705 0.0027345 0)
(0.0078762 0.00267887 0)
(0.00689457 0.0026091 0)
(0.00593315 0.00252397 0)
(0.00499981 0.00242046 0)
(0.00410334 0.00229363 0)
(0.00325395 0.00213669 0)
(0.00246375 0.0019414 0)
(0.00174715 0.00169896 0)
(0.00112098 0.00140178 0)
(0.000605295 0.00104661 0)
(0.0002269 0.000639881 0)
(1.68355e-05 0.000206686 0)
(4.29898e-06 -0.000102423 0)
(1.57715e-05 -0.000180521 0)
(9.01413e-06 -0.000168346 0)
(-2.8393e-05 -9.68441e-05 0)
(-0.000104324 9.96712e-06 0)
(-0.000222 0.000134058 0)
(-0.000381704 0.000262709 0)
(-0.000581852 0.000387706 0)
(-0.000819844 0.00050448 0)
(-0.0010927 0.00061123 0)
(-0.00139755 0.000708121 0)
(-0.00173195 0.000796602 0)
(-0.00209406 0.000878847 0)
(-0.00248275 0.000957327 0)
(-0.00289765 0.00103451 0)
(-0.00333901 0.00111269 0)
(-0.00380776 0.00119384 0)
(-0.00430532 0.0012796 0)
(-0.00483358 0.00137131 0)
(-0.00539481 0.00147001 0)
(-0.0059916 0.00157651 0)
(-0.00662681 0.00169145 0)
(-0.00730355 0.00181533 0)
(-0.00802512 0.00194861 0)
(-0.00879502 0.00209168 0)
(-0.00961693 0.00224488 0)
(-0.0104947 0.00240856 0)
(-0.0114322 0.00258303 0)
(-0.0124335 0.00276856 0)
(-0.0135028 0.00296536 0)
(-0.0146441 0.00317358 0)
(-0.0158615 0.00339322 0)
(-0.0171589 0.00362416 0)
(-0.0185402 0.00386607 0)
(-0.0200088 0.00411843 0)
(-0.0215677 0.00438039 0)
(-0.0232193 0.00465083 0)
(-0.0249656 0.00492824 0)
(-0.0268075 0.0052107 0)
(-0.028745 0.00549588 0)
(-0.0307771 0.00578093 0)
(-0.0329013 0.00606256 0)
(-0.0351138 0.00633695 0)
(-0.0374092 0.00659981 0)
(-0.0397804 0.00684641 0)
(-0.0422187 0.00707159 0)
(-0.0447134 0.00726986 0)
(-0.0472521 0.00743546 0)
(-0.0498207 0.0075625 0)
(-0.0524033 0.00764503 0)
(-0.0549826 0.00767718 0)
(-0.0575397 0.00765332 0)
(-0.0600548 0.00756817 0)
(-0.0625068 0.00741695 0)
(-0.0648742 0.00719553 0)
(-0.0671351 0.00690053 0)
(-0.0692673 0.00652945 0)
(-0.071249 0.00608076 0)
(-0.0730587 0.00555401 0)
(-0.0746757 0.00494983 0)
(-0.0760804 0.00427006 0)
(-0.0772543 0.0035177 0)
(-0.0781804 0.00269695 0)
(-0.0788434 0.00181324 0)
(-0.07923 0.000873276 0)
(-0.079329 -0.000115254 0)
(-0.079131 -0.00114495 0)
(-0.0786273 -0.00220505 0)
(-0.0778143 -0.00328518 0)
(-0.0766896 -0.00437421 0)
(-0.0752536 -0.00546027 0)
(-0.0735094 -0.00653098 0)
(-0.0714626 -0.0075736 0)
(-0.0691219 -0.00857519 0)
(-0.0664987 -0.00952281 0)
(-0.0636073 -0.0104037 0)
(-0.0604649 -0.0112057 0)
(-0.0570914 -0.011917 0)
(-0.0535098 -0.0125269 0)
(-0.0497455 -0.013026 0)
(-0.0458262 -0.0134059 0)
(-0.0417823 -0.0136604 0)
(-0.0376457 -0.0137847 0)
(-0.03345 -0.0137764 0)
(-0.0292301 -0.013635 0)
(-0.0250213 -0.0133628 0)
(-0.0208594 -0.012964 0)
(-0.0167795 -0.0124454 0)
(-0.0128158 -0.011816 0)
(-0.00900087 -0.0110871 0)
(-0.00536522 -0.0102714 0)
(-0.00193635 -0.00938347 0)
(0.00126107 -0.00843899 0)
(0.00420635 -0.00745434 0)
(0.00688292 -0.00644605 0)
(0.00927823 -0.00543094 0)
(0.0113844 -0.00442477 0)
(0.0131978 -0.00344245 0)
(0.0147193 -0.00249747 0)
(0.0159538 -0.00160164 0)
(0.0169102 -0.00076481 0)
(0.0176006 5.32641e-06 0)
(0.0180403 0.000703098 0)
(0.0182468 0.00132514 0)
(0.0182394 0.00187015 0)
(0.0180387 0.0023386 0)
(0.0176662 0.00273273 0)
(0.0171432 0.00305622 0)
(0.0164908 0.00331388 0)
(0.0157294 0.00351138 0)
(0.0148781 0.00365492 0)
(0.0139547 0.00375091 0)
(0.0129757 0.00380566 0)
(0.0119556 0.00382502 0)
(0.0109079 0.00381412 0)
(0.00984429 0.00377696 0)
(0.00877559 0.00371615 0)
(0.00771178 0.00363252 0)
(0.00666251 0.00352482 0)
(0.00563758 0.00338951 0)
(0.0046475 0.00322058 0)
(0.00370404 0.00300964 0)
(0.00282084 0.0027463 0)
(0.00201396 0.00241912 0)
(0.00130245 0.00201731 0)
(0.000709814 0.00153342 0)
(0.000269231 0.000967727 0)
(2.06256e-05 0.00033487 0)
(2.80405e-06 -0.000107155 0)
(-5.41579e-06 -0.000170275 0)
(-4.77484e-05 -0.000127177 0)
(-0.000133364 -1.55923e-05 0)
(-0.000267366 0.000135623 0)
(-0.000450933 0.000305045 0)
(-0.000682709 0.000477737 0)
(-0.000959866 0.000644209 0)
(-0.00127891 0.000799335 0)
(-0.00163628 0.000941297 0)
(-0.00202876 0.00107062 0)
(-0.00245375 0.00118936 0)
(-0.00290944 0.0013004 0)
(-0.00339481 0.00140699 0)
(-0.00390967 0.00151232 0)
(-0.00445455 0.00161937 0)
(-0.00503069 0.0017307 0)
(-0.00563986 0.0018485 0)
(-0.00628439 0.00197453 0)
(-0.00696701 0.0021102 0)
(-0.00769082 0.00225665 0)
(-0.00845928 0.00241481 0)
(-0.00927612 0.00258544 0)
(-0.0101454 0.0027692 0)
(-0.0110713 0.00296671 0)
(-0.0120583 0.00317848 0)
(-0.0131112 0.00340502 0)
(-0.0142346 0.00364676 0)
(-0.0154337 0.00390406 0)
(-0.0167132 0.00417715 0)
(-0.0180783 0.00446613 0)
(-0.0195337 0.00477091 0)
(-0.0210841 0.00509116 0)
(-0.0227339 0.00542625 0)
(-0.0244869 0.00577521 0)
(-0.0263464 0.00613665 0)
(-0.028315 0.00650873 0)
(-0.0303944 0.00688908 0)
(-0.0325852 0.00727476 0)
(-0.0348866 0.00766222 0)
(-0.0372966 0.00804729 0)
(-0.0398115 0.00842514 0)
(-0.042426 0.00879033 0)
(-0.0451327 0.0091368 0)
(-0.0479225 0.00945799 0)
(-0.0507843 0.00974685 0)
(-0.053705 0.00999601 0)
(-0.0566696 0.0101979 0)
(-0.0596614 0.0103448 0)
(-0.0626619 0.0104293 0)
(-0.0656511 0.0104439 0)
(-0.0686081 0.0103819 0)
(-0.0715105 0.010237 0)
(-0.0743356 0.0100038 0)
(-0.0770602 0.00967774 0)
(-0.0796608 0.00925528 0)
(-0.0821142 0.00873414 0)
(-0.0843977 0.00811327 0)
(-0.086489 0.00739291 0)
(-0.0883672 0.00657471 0)
(-0.0900119 0.00566167 0)
(-0.0914044 0.00465819 0)
(-0.0925275 0.00357003 0)
(-0.0933651 0.00240428 0)
(-0.0939035 0.00116931 0)
(-0.0941318 -0.00012504 0)
(-0.0940393 -0.00146726 0)
(-0.0936154 -0.00284684 0)
(-0.0928563 -0.00425054 0)
(-0.0917582 -0.00566465 0)
(-0.0903201 -0.00707468 0)
(-0.0885435 -0.00846558 0)
(-0.0864326 -0.00982185 0)
(-0.0839942 -0.0111277 0)
(-0.0812384 -0.0123674 0)
(-0.0781777 -0.0135251 0)
(-0.0748283 -0.0145858 0)
(-0.071209 -0.0155347 0)
(-0.0673418 -0.0163583 0)
(-0.0632518 -0.0170444 0)
(-0.0589669 -0.0175821 0)
(-0.054518 -0.0179628 0)
(-0.0499379 -0.0181798 0)
(-0.0452622 -0.0182289 0)
(-0.0405279 -0.0181087 0)
(-0.0357732 -0.0178204 0)
(-0.0310373 -0.0173684 0)
(-0.0263592 -0.0167599 0)
(-0.0217778 -0.0160051 0)
(-0.0173305 -0.0151167 0)
(-0.0130529 -0.01411 0)
(-0.00897801 -0.0130025 0)
(-0.00513589 -0.0118134 0)
(-0.0015526 -0.0105627 0)
(0.00174958 -0.00927153 0)
(0.00475308 -0.00796087 0)
(0.0074454 -0.00665122 0)
(0.00981848 -0.0053622 0)
(0.0118693 -0.00411176 0)
(0.0135996 -0.00291598 0)
(0.0150155 -0.00178864 0)
(0.0161272 -0.000740953 0)
(0.0169485 0.000218462 0)
(0.0174965 0.00108367 0)
(0.0177903 0.0018517 0)
(0.0178511 0.00252172 0)
(0.0177014 0.00309529 0)
(0.0173642 0.003576 0)
(0.0168626 0.00396904 0)
(0.0162192 0.00428091 0)
(0.015456 0.00451893 0)
(0.0145934 0.00469091 0)
(0.0136506 0.00480467 0)
(0.0126454 0.00486763 0)
(0.0115937 0.00488639 0)
(0.0105103 0.00486627 0)
(0.00940836 0.0048109 0)
(0.00830041 0.00472174 0)
(0.00719829 0.00459777 0)
(0.00611381 0.00443511 0)
(0.00505929 0.00422685 0)
(0.00404818 0.00396307 0)
(0.00309579 0.00363119 0)
(0.00222005 0.00321675 0)
(0.00144236 0.00270485 0)
(0.00078973 0.00208231 0)
(0.000300976 0.00134094 0)
(2.32558e-05 0.000482179 0)
(1.06743e-06 -0.000100137 0)
(-2.99208e-05 -0.000129517 0)
(-0.000113236 -4.05911e-05 0)
(-0.00025406 0.000122872 0)
(-0.000454014 0.000327677 0)
(-0.000711723 0.000549532 0)
(-0.00102384 0.000771759 0)
(-0.00138602 0.000984016 0)
(-0.00179373 0.00118099 0)
(-0.00224271 0.00136117 0)
(-0.00272937 0.00152568 0)
(-0.00325097 0.00167736 0)
(-0.00380572 0.00181997 0)
(-0.00439278 0.00195762 0)
(-0.00501221 0.00209432 0)
(-0.00566488 0.00223377 0)
(-0.0063524 0.00237921 0)
(-0.00707699 0.00253337 0)
(-0.00784145 0.00269852 0)
(-0.00864908 0.00287651 0)
(-0.00950358 0.00306885 0)
(-0.0104091 0.00327682 0)
(-0.0113701 0.0035015 0)
(-0.0123914 0.00374384 0)
(-0.0134782 0.00400471 0)
(-0.0146359 0.00428487 0)
(-0.0158701 0.004585 0)
(-0.0171866 0.00490566 0)
(-0.0185914 0.00524731 0)
(-0.0200904 0.00561016 0)
(-0.0216894 0.00599424 0)
(-0.0233942 0.00639926 0)
(-0.0252103 0.00682456 0)
(-0.0271424 0.00726909 0)
(-0.0291949 0.00773126 0)
(-0.0313714 0.00820893 0)
(-0.0336744 0.0086993 0)
(-0.0361054 0.00919891 0)
(-0.0386643 0.00970349 0)
(-0.0413497 0.010208 0)
(-0.0441584 0.0107067 0)
(-0.0470852 0.0111928 0)
(-0.0501231 0.0116592 0)
(-0.053263 0.0120975 0)
(-0.0564935 0.0124994 0)
(-0.0598012 0.0128557 0)
(-0.0631708 0.013157 0)
(-0.0665849 0.0133939 0)
(-0.0700242 0.0135571 0)
(-0.0734683 0.0136374 0)
(-0.0768949 0.0136263 0)
(-0.0802812 0.013516 0)
(-0.0836032 0.0132994 0)
(-0.0868367 0.0129707 0)
(-0.0899572 0.0125252 0)
(-0.0929404 0.0119595 0)
(-0.0957621 0.0112718 0)
(-0.0983988 0.0104615 0)
(-0.100828 0.00952987 0)
(-0.103027 0.00847947 0)
(-0.104977 0.00731454 0)
(-0.106656 0.00604083 0)
(-0.108048 0.00466555 0)
(-0.109135 0.00319728 0)
(-0.109903 0.00164599 0)
(-0.110337 2.36894e-05 0)
(-0.110427 -0.00165486 0)
(-0.110163 -0.0033792 0)
(-0.109536 -0.00513328 0)
(-0.108541 -0.00690106 0)
(-0.107175 -0.00866556 0)
(-0.105438 -0.0104091 0)
(-0.103331 -0.0121136 0)
(-0.100858 -0.0137602 0)
(-0.0980282 -0.0153303 0)
(-0.0948516 -0.0168051 0)
(-0.0913422 -0.018166 0)
(-0.0875176 -0.0193954 0)
(-0.0833983 -0.0204764 0)
(-0.0790087 -0.0213935 0)
(-0.0743763 -0.0221329 0)
(-0.0695321 -0.022683 0)
(-0.0645101 -0.0230345 0)
(-0.059347 -0.0231809 0)
(-0.0540823 -0.023119 0)
(-0.0487571 -0.0228488 0)
(-0.0434143 -0.0223737 0)
(-0.0380974 -0.021701 0)
(-0.03285 -0.0208414 0)
(-0.0277151 -0.019809 0)
(-0.0227341 -0.0186212 0)
(-0.0179464 -0.0172981 0)
(-0.0133881 -0.0158623 0)
(-0.00909188 -0.0143379 0)
(-0.005086 -0.0127505 0)
(-0.00139388 -0.0111257 0)
(0.00196616 -0.00948923 0)
(0.00498119 -0.00786568 0)
(0.00764382 -0.00627813 0)
(0.00995188 -0.00474757 0)
(0.0119084 -0.00329233 0)
(0.0135212 -0.00192783 0)
(0.0148024 -0.000666257 0)
(0.015768 0.000483383 0)
(0.0164371 0.00151521 0)
(0.0168308 0.00242697 0)
(0.0169726 0.00321904 0)
(0.0168871 0.00389435 0)
(0.0165991 0.00445811 0)
(0.0161335 0.00491727 0)
(0.0155147 0.00528008 0)
(0.014766 0.00555555 0)
(0.0139095 0.00575296 0)
(0.0129656 0.00588128 0)
(0.0119535 0.00594865 0)
(0.0108905 0.00596179 0)
(0.00979275 0.0059255 0)
(0.00867518 0.00584211 0)
(0.007552 0.00571097 0)
(0.00643718 0.00552809 0)
(0.005345 0.00528581 0)
(0.00429076 0.00497276 0)
(0.00329162 0.00457405 0)
(0.00236753 0.00407184 0)
(0.00154237 0.00344641 0)
(0.000846386 0.00267774 0)
(0.000323041 0.00174772 0)
(2.49368e-05 0.000643229 0)
(-8.34825e-07 -7.99395e-05 0)
(-5.70567e-05 -5.44456e-05 0)
(-0.000185753 9.7011e-05 0)
(-0.000387497 0.000325239 0)
(-0.000659882 0.000593412 0)
(-0.00099853 0.000874998 0)
(-0.00139779 0.00115216 0)
(-0.00185162 0.00141421 0)
(-0.00235425 0.00165612 0)
(-0.00290066 0.00187703 0)
(-0.00348686 0.00207897 0)
(-0.00410997 0.00226579 0)
(-0.00476825 0.00244229 0)
(-0.00546108 0.00261355 0)
(-0.00618884 0.00278449 0)
(-0.00695278 0.00295962 0)
(-0.00775497 0.00314288 0)
(-0.00859818 0.00333763 0)
(-0.00948578 0.00354669 0)
(-0.0104217 0.0037724 0)
(-0.0114104 0.00401675 0)
(-0.0124569 0.00428142 0)
(-0.0135664 0.00456788 0)
(-0.0147448 0.00487744 0)
(-0.0159982 0.00521129 0)
(-0.0173332 0.00557047 0)
(-0.0187565 0.00595587 0)
(-0.020275 0.00636821 0)
(-0.0218958 0.00680798 0)
(-0.023626 0.00727538 0)
(-0.0254723 0.00777026 0)
(-0.0274414 0.00829203 0)
(-0.0295396 0.0088396 0)
(-0.0317723 0.00941128 0)
(-0.0341442 0.0100047 0)
(-0.0366591 0.0106167 0)
(-0.0393194 0.0112433 0)
(-0.0421263 0.0118797 0)
(-0.045079 0.0125199 0)
(-0.0481751 0.0131572 0)
(-0.0514103 0.0137838 0)
(-0.0547778 0.0143911 0)
(-0.0582688 0.0149695 0)
(-0.0618723 0.0155087 0)
(-0.0655748 0.015998 0)
(-0.0693607 0.0164262 0)
(-0.0732125 0.016782 0)
(-0.0771106 0.017054 0)
(-0.0810337 0.0172312 0)
(-0.0849592 0.0173033 0)
(-0.0888633 0.0172606 0)
(-0.0927213 0.0170944 0)
(-0.096508 0.0167972 0)
(-0.100198 0.016363 0)
(-0.103765 0.015787 0)
(-0.107185 0.0150662 0)
(-0.110432 0.0141991 0)
(-0.113481 0.013186 0)
(-0.11631 0.0120289 0)
(-0.118895 0.0107313 0)
(-0.121214 0.00929869 0)
(-0.123248 0.00773791 0)
(-0.124976 0.00605754 0)
(-0.126381 0.00426763 0)
(-0.127445 0.00237989 0)
(-0.128152 0.000408072 0)
(-0.128492 -0.00163299 0)