/*--------------------------------*- C++ -*----------------------------------*\
| =========                 |                                                 |
| \\      /  F ield         | OpenFOAM: The Open Source CFD Toolbox           |
|  \\    /   O peration     | Version:  2406                                  |
|   \\  /    A nd           | Website:  www.openfoam.com                      |
|    \\/     M anipulation  |                                                 |
\*---------------------------------------------------------------------------*/
FoamFile
{
    version     2.0;
    format      ascii;
    arch        "LSB;label=32;scalar=64";
    class       surfaceScalarField;
    location    "20.2";
    object      phi;
}
// * * * * * * * * * * * * * * * * * * * * * * * * * * * * * * * * * * * * * //

dimensions      [0 3 -1 0 0 0 0];

oriented        oriented;

internalField   nonuniform List<scalar> 
1740
(
3.03575e-06
-3.03575e-06
6.72935e-06
-3.69359e-06
9.40666e-06
-2.67731e-06
1.05557e-05
-1.14904e-06
9.84487e-06
7.1082e-07
6.87652e-06
2.96835e-06
1.00512e-06
5.8714e-06
-8.85641e-06
9.86154e-06
-2.45373e-05
1.56808e-05
-4.8736e-05
2.41987e-05
-8.34372e-05
3.47012e-05
-0.000127512
4.40753e-05
-0.000176338
4.88259e-05
-0.000222113
4.57743e-05
-0.000256354
3.42414e-05
-0.000272251
1.58967e-05
-0.00026536
-6.89094e-06
-0.000233496
-3.18638e-05
-0.000177915
-5.55814e-05
-0.000103905
-7.40095e-05
-2.1743e-05
-8.21622e-05
5.35152e-05
-7.52582e-05
0.000106475
-5.29593e-05
0.000126146
-1.96711e-05
0.00011391
1.2236e-05
8.36224e-05
3.02872e-05
5.13796e-05
3.22428e-05
2.57816e-05
2.55979e-05
8.48066e-06
1.7301e-05
8.48066e-06
3.21159e-06
-6.24734e-06
6.32648e-06
-6.80847e-06
6.55411e-06
-2.90494e-06
2.70608e-06
2.69899e-06
-6.87871e-06
1.02956e-05
-2.45257e-05
2.06153e-05
-5.34995e-05
3.48452e-05
-9.80484e-05
5.44105e-05
-0.000161411
7.9043e-05
-0.000241116
0.000103904
-0.00032768
0.000121266
-0.000409102
0.000125497
-0.000475651
0.000115375
-0.000522085
9.22086e-05
-0.000546183
5.83393e-05
-0.000547189
1.69025e-05
-0.000523907
-3.01731e-05
-0.000476197
-7.95741e-05
-0.000404632
-0.000127146
-0.000311508
-0.000167134
-0.000202694
-0.000190976
-8.89586e-05
-0.000188993
1.32713e-05
-0.000155189
8.64774e-05
-9.28772e-05
0.000118496
-1.97831e-05
0.000112956
3.58275e-05
8.45739e-05
6.06251e-05
4.90194e-05
6.11525e-05
1.73515e-05
4.89689e-05
2.58322e-05
6.794e-07
-6.92674e-06
-1.66448e-06
-4.4646e-06
-9.07211e-06
4.50269e-06
-2.39156e-05
1.75424e-05
-5.0079e-05
3.64591e-05
-9.25995e-05
6.31357e-05
-0.000156526
9.87714e-05
-0.00024305
0.000140935
-0.000344895
0.000180888
-0.000448313
0.000207322
-0.000541155
0.000214108
-0.000617123
0.000201464
-0.000673899
0.000172151
-0.000711609
0.000129919
-0.000731282
7.8012e-05
-0.000732877
1.84976e-05
-0.000717006
-4.60442e-05
-0.00068211
-0.00011447
-0.000625546
-0.00018371
-0.000545289
-0.000247391
-0.000441035
-0.00029523
-0.000316791
-0.000313238
-0.000184451
-0.000287528
-6.46556e-05
-0.000212673
1.95335e-05
-0.000103972
5.74762e-05
-2.11525e-06
5.96243e-05
5.84771e-05
4.12948e-05
7.9482e-05
1.6087e-05
7.41767e-05
4.19191e-05
-3.91779e-06
-3.00895e-06
-1.47958e-05
6.41344e-06
-3.36002e-05
2.3307e-05
-6.45896e-05
4.85318e-05
-0.000114022
8.58918e-05
-0.000187356
0.000136469
-0.000284644
0.00019606
-0.000396446
0.000252737
-0.000507139
0.000291581
-0.000604126
0.000304309
-0.000681751
0.000291733
-0.00073922
0.000258933
-0.000778685
0.000211617
-0.000803371
0.000154604
-0.000816301
9.09426e-05
-0.000819286
2.14823e-05
-0.000813316
-5.20143e-05
-0.000797508
-0.000130277
-0.000768334
-0.000212885
-0.000719891
-0.000295834
-0.00064482
-0.000370301
-0.000537127
-0.00042093
-0.000397509
-0.000427147
-0.000241734
-0.000368448
-0.000102047
-0.000243659
-1.43215e-05
-8.98411e-05
1.82213e-05
2.59342e-05
2.04311e-05
7.72723e-05
8.94573e-06
8.5662e-05
5.08648e-05
-1.02997e-05
7.29073e-06
-3.19623e-05
2.8076e-05
-6.50895e-05
5.64343e-05
-0.000115858
9.93e-05
-0.000190546
0.00016058
-0.000289531
0.000235455
-0.000403202
0.000309731
-0.000514703
0.000364237
-0.000609434
0.000386313
-0.000680933
0.000375808
-0.000729237
0.000340036
-0.000757916
0.000287613
-0.000772383
0.000226083
-0.000778045
0.000160266
-0.000779435
9.23329e-05
-0.000780484
2.25315e-05
-0.000782335
-5.01638e-05
-0.000785009
-0.000127604
-0.000786404
-0.00021149
-0.000780146
-0.000302092
-0.000755123
-0.000395324
-0.000696477
-0.000479576
-0.000590516
-0.000533108
-0.000433482
-0.000525481
-0.000248581
-0.00042856
-9.20137e-05
-0.000246408
-1.49508e-05
-5.11287e-05
4.03204e-06
5.82895e-05
3.8158e-06
8.58783e-05
5.46806e-05
-1.80085e-05
2.52992e-05
-5.16941e-05
6.17616e-05
-0.000100338
0.000105078
-0.0001704
0.000169361
-0.000264124
0.000254304
-0.000373597
0.000344928
-0.000482033
0.000418167
-0.000572405
0.000454609
-0.00063599
0.000449897
-0.000672784
0.000412602
-0.000687792
0.000355044
-0.000688294
0.000288116
-0.000681456
0.000219244
-0.000672689
0.000151499
-0.000665607
8.52517e-05
-0.000662949
1.98731e-05
-0.000665897
-4.72161e-05
-0.000675829
-0.000117672
-0.000693523
-0.000193795
-0.000716869
-0.000278746
-0.000738028
-0.000374165
-0.000741387
-0.000476217
-0.000703203
-0.000571292
-0.00059926
-0.000629424
-0.00042196
-0.00060586
-0.000208274
-0.000460095
-5.16148e-05
-0.000207788
-2.0457e-06
8.72034e-06
2.53073e-06
8.13018e-05
5.72114e-05
-2.60261e-05
5.13253e-05
-7.13347e-05
0.00010707
-0.000133716
0.00016746
-0.000217314
0.00025296
-0.000318002
0.000354991
-0.000421265
0.000448191
-0.000508774
0.000505676
-0.000568483
0.000514318
-0.000598883
0.000480298
-0.000605938
0.000419657
-0.000598839
0.000347945
-0.000586563
0.00027584
-0.000574885
0.000207566
-0.00056631
0.000142924
-0.000561176
8.01171e-05
-0.000558761
1.7458e-05
-0.000559499
-4.64776e-05
-0.000565001
-0.00011217
-0.000578097
-0.000180699
-0.000602088
-0.000254755
-0.000637519
-0.000338734
-0.000676794
-0.000436943
-0.000700269
-0.000547817
-0.000675729
-0.000653964
-0.00056753
-0.00071406
-0.000365886
-0.000661738
-0.000130592
-0.000443082
-6.66749e-06
-0.000115204
3.49474e-06
7.11396e-05
6.07061e-05
-3.28731e-05
8.41984e-05
-8.73909e-05
0.000161588
-0.000158682
0.000238751
-0.000246945
0.000341223
-0.000342573
0.00045062
-0.00042854
0.000534157
-0.000489716
0.000566852
-0.000520886
0.000545488
-0.000527255
0.000486667
-0.000519443
0.000411844
-0.000508338
0.00033684
-0.000501
0.000268502
-0.000499316
0.000205882
-0.000501694
0.000145302
-0.000505187
8.36101e-05
-0.000507214
1.9485e-05
-0.00050705
-4.66409e-05
-0.000505736
-0.000113485
-0.000506357
-0.000180077
-0.000514097
-0.000247016
-0.000534909
-0.000317922
-0.000571794
-0.000400057
-0.000618015
-0.000501595
-0.000649691
-0.000622287
-0.000625172
-0.000738579
-0.000497633
-0.000789278
-0.000264778
-0.000675938
-4.42678e-05
-0.000335714
6.42053e-06
2.04513e-05
6.71266e-05
-3.70145e-05
0.000121213
-9.66135e-05
0.000221187
-0.000170543
0.00031268
-0.000255133
0.000425814
-0.000337936
0.000533422
-0.00040311
0.000599332
-0.00044085
0.000604592
-0.000452484
0.000557123
-0.000448277
0.00048246
-0.000440822
0.000404389
-0.0004393
0.000335317
-0.000446272
0.000275475
-0.000459175
0.000218785
-0.000473506
0.000159634
-0.000485087
9.51907e-05
-0.000491268
2.56664e-05
-0.000491022
-4.68869e-05
-0.000484962
-0.000119546
-0.00047546
-0.000189579
-0.000467035
-0.00025544
-0.000466674
-0.000318283
-0.000482599
-0.000384132
-0.000519171
-0.000465024
-0.000567464
-0.000573994
-0.000596851
-0.000709192
-0.000555567
-0.000830562
-0.000394512
-0.000836992
-0.000127468
-0.000602758
8.17571e-06
-0.000115193
7.53023e-05
-3.74969e-05
0.00015871
-9.74587e-05
0.000281149
-0.000168157
0.000383378
-0.000243255
0.000500912
-0.000310184
0.000600351
-0.000356518
0.000645666
-0.00037782
0.000625894
-0.000380441
0.000559744
-0.000377114
0.000479133
-0.000379474
0.00040675
-0.000392499
0.000348342
-0.00041407
0.000297046
-0.000438867
0.000243582
-0.000461661
0.000182428
-0.000478758
0.000112288
-0.000488028
3.49366e-05
-0.000488737
-4.61779e-05
-0.00048115
-0.000127133
-0.000466527
-0.000204202
-0.000447684
-0.000274283
-0.000429925
-0.000336042
-0.000422126
-0.000391931
-0.000435204
-0.000451946
-0.000474033
-0.000535165
-0.000524384
-0.000658842
-0.000541059
-0.000813887
-0.000456304
-0.000921747
-0.000239225
-0.000819836
-1.20402e-05
-0.000342378
6.32621e-05
-3.40484e-05
0.000192758
-8.98953e-05
0.000336996
-0.00015296
0.000446442
-0.000215695
0.000563648
-0.000267322
0.000651978
-0.000299385
0.000677729
-0.000311758
0.000638267
-0.000313586
0.000561572
-0.000317494
0.00048304
-0.00033193
0.000421186
-0.000357294
0.000373706
-0.000388513
0.000328264
-0.000419669
0.000274738
-0.000446292
0.000209051
-0.000465717
0.000131713
-0.000476665
4.58844e-05
-0.00047872
-4.41232e-05
-0.000472122
-0.000133731
-0.000457602
-0.000218722
-0.000436472
-0.000295412
-0.000411271
-0.000361244
-0.000387661
-0.000415541
-0.000376865
-0.000462742
-0.000391947
-0.000520083
-0.000436279
-0.00061451
-0.000481159
-0.000769007
-0.000467789
-0.000935117
-0.000327935
-0.00095969
-6.10146e-05
-0.000609298
2.24753e-06
-2.72779e-05
0.000220036
-7.5485e-05
0.000385203
-0.000128206
0.000499163
-0.000177786
0.000613227
-0.000216224
0.000690416
-0.000238694
0.000700199
-0.000247799
0.000647372
-0.000253192
0.000566965
-0.000265426
0.000495274
-0.000289048
0.000444808
-0.000321237
0.000405895
-0.000356101
0.000363129
-0.000388569
0.000307206
-0.000415431
0.000235913
-0.000434985
0.000151267
-0.000446462
5.73617e-05
-0.000449637
-4.09486e-05
-0.000444768
-0.0001386
-0.000432504
-0.000230986
-0.000413671
-0.000314245
-0.000389326
-0.000385588
-0.000361656
-0.000443211
-0.000337918
-0.00048648
-0.000330879
-0.000527122
-0.000355282
-0.000590107
-0.000405275
-0.000719014
-0.00043521
-0.000905182
-0.000354691
-0.00104021
-0.000125484
-0.000838505
-0.000123236
-1.80218e-05
0.000238058
-5.60725e-05
0.000423254
-9.70207e-05
0.000540112
-0.000133842
0.000650048
-0.000161571
0.000718145
-0.00017816
0.000716788
-0.000187289
0.000656501
-0.000197226
0.000576903
-0.000215351
0.000513398
-0.000243093
0.000472551
-0.000276442
0.000439243
-0.00031026
0.000396947
-0.000340866
0.000337812
-0.000366189
0.000261236
-0.000385112
0.00017019
-0.000396929
6.91786e-05
-0.000401311
-3.65666e-05
-0.000398483
-0.000141428
-0.000389152
-0.000240317
-0.000374113
-0.000329284
-0.000354259
-0.000405442
-0.000329552
-0.000467917
-0.0003031
-0.000512932
-0.000283286
-0.000546936
-0.000288468
-0.000584924
-0.000328674
-0.000678808
-0.000378445
-0.000855412
-0.000353052
-0.0010656
-0.000189175
-0.00100238
-0.000312411
-7.49318e-06
0.000245551
-3.36866e-05
0.000449447
-6.24715e-05
0.000568897
-8.74045e-05
0.000674981
-0.000106198
0.000736938
-0.000118932
0.000729522
-0.000128993
0.000666563
-0.000142003
0.000589913
-0.000162158
0.000533552
-0.000189176
0.000499569
-0.000219443
0.000469509
-0.000249259
0.000426764
-0.000276262
0.000364815
-0.000299158
0.000284132
-0.000317072
0.000188104
-0.000329184
8.12898e-05
-0.000334903
-3.0847e-05
-0.000334296
-0.000142036
-0.000328224
-0.000246388
-0.00031754
-0.000339968
-0.000303584
-0.000419398
-0.00028559
-0.000485912
-0.000263983
-0.000534539
-0.000241659
-0.00056926
-0.000234297
-0.000592286
-0.000257528
-0.000655577
-0.000308408
-0.000804532
-0.000319434
-0.00105458
-0.000209346
-0.00111247
-0.000521757
3.3519e-06
0.000242199
-9.84414e-06
0.000462643
-2.66053e-05
0.000585658
-4.04804e-05
0.000688856
-5.14058e-05
0.000747864
-6.10729e-05
0.000739189
-7.16435e-05
0.000677133
-8.55866e-05
0.000603856
-0.000104256
0.000552222
-0.000126814
0.000522127
-0.000150998
0.000493694
-0.000174755
0.000450521
-0.000196809
0.000386869
-0.000216371
0.000303694
-0.000232674
0.000204407
-0.000244885
9.35005e-05
-0.000252231
-2.35005e-05
-0.000254418
-0.000139849
-0.000252232
-0.000248574
-0.000246524
-0.000345676
-0.000238644
-0.000427278
-0.000228393
-0.000496163
-0.000214882
-0.000548049
-0.000197796
-0.000586346
-0.00018695
-0.000603131
-0.000197191
-0.000645336
-0.000241574
-0.000760149
-0.000270754
-0.0010254
-0.000195841
-0.00118738
-0.000717598
1.36679e-05
0.000228531
1.33355e-05
0.000462975
8.43382e-06
0.000590559
5.1899e-06
0.0006921
1.53294e-06
0.000751521
-4.37424e-06
0.000745096
-1.37749e-05
0.000686534
-2.64032e-05
0.000616484
-4.10022e-05
0.000566821
-5.66679e-05
0.000537793
-7.28493e-05
0.000509875
-8.90865e-05
0.000466758
-0.000104973
0.000402755
-0.000120071
0.000318792
-0.000133787
0.000218122
-0.000145384
0.000105098
-0.000154424
-1.44606e-05
-0.000160064
-0.000134209
-0.000162905
-0.000245734
-0.000163463
-0.000345118
-0.000162806
-0.000427935
-0.000161089
-0.00049788
-0.000156951
-0.000552187
-0.000148565
-0.000594733
-0.00014038
-0.000611316
-0.000144138
-0.000641578
-0.000180489
-0.000723798
-0.000217373
-0.000988513
-0.000171549
-0.00123321
-0.000889147
2.21436e-05
0.000206388
3.46664e-05
0.000450453
4.13286e-05
0.000583897
4.86827e-05
0.000684746
5.35664e-05
0.000746637
5.19735e-05
0.000746689
4.42948e-05
0.000694213
3.42631e-05
0.000626516
2.51538e-05
0.00057593
1.76346e-05
0.000545312
1.06249e-05
0.000516885
3.15659e-06
0.000474226
-5.19427e-06
0.000411106
-1.44479e-05
0.000328045
-2.43749e-05
0.000228049
-3.44888e-05
0.000115212
-4.45834e-05
-4.36604e-06
-5.42127e-05
-0.000124579
-6.28133e-05
-0.000237133
-7.09318e-05
-0.000337
-7.88018e-05
-0.000420065
-8.57468e-05
-0.000490935
-9.22085e-05
-0.000545725
-9.41361e-05
-0.000592805
-9.419e-05
-0.000611262
-9.87508e-05
-0.000637017
-0.00012974
-0.000692809
-0.000169093
-0.00094916
-0.000145327
-0.00125697
-0.00103447
2.80659e-05
0.000178322
5.2742e-05
0.000425777
7.06342e-05
0.000566005
8.8229e-05
0.000667151
0.000101928
0.000732938
0.000106747
0.00074187
0.000103013
0.000697947
9.64591e-05
0.00063307
9.29318e-05
0.000579457
9.37284e-05
0.000544515
9.64575e-05
0.000514156
9.84711e-05
0.000472213
9.83768e-05
0.0004112
9.57435e-05
0.000330679
9.02463e-05
0.000233546
8.21004e-05
0.000123358
7.13187e-05
6.41559e-06
5.80651e-05
-0.000111326
4.33298e-05
-0.000222398
2.65499e-05
-0.00032022
1.07684e-05
-0.000404284
-8.30085e-06
-0.000471866
-2.2462e-05
-0.000531564
-3.65888e-05
-0.000578678
-4.64977e-05
-0.000601353
-5.63775e-05
-0.000627137
-8.60956e-05
-0.000663091
-0.000128006
-0.000907249
-0.000122501
-0.00126248
-0.00115697
3.0943e-05
0.000147379
6.65182e-05
0.000390201
9.52187e-05
0.000537304
0.000122772
0.000639598
0.000146122
0.000709588
0.000158906
0.000729086
0.000160732
0.000696121
0.000158197
0.000635605
0.000159304
0.00057835
0.000166996
0.000536824
0.000178626
0.000502525
0.000190138
0.000460701
0.00019874
0.000402599
0.000203331
0.000326087
0.000203004
0.000233874
0.000197434
0.000128927
0.000186364
1.74855e-05
0.000170263
-9.52245e-05
0.000149288
-0.000201423
0.000125713
-0.000296644
9.90478e-05
-0.000377619
7.28539e-05
-0.000445672
4.69396e-05
-0.00050565
2.15003e-05
-0.000553239
3.13889e-06
-0.000582992
-1.9184e-05
-0.000604814
-5.09355e-05
-0.00063134
-9.51751e-05
-0.000863009
-0.000103657
-0.001254
-0.00126063
3.04409e-05
0.000116938
7.4524e-05
0.000346118
0.000113066
0.000498763
0.000150033
0.000602631
0.000183682
0.000675939
0.000206748
0.00070602
0.000216781
0.000686088
0.000219588
0.000632798
0.000224527
0.000573411
0.000236893
0.000524458
0.000255238
0.00048418
0.000274949
0.000440989
0.000291647
0.000385902
0.000303119
0.000314615
0.000307876
0.000229117
0.000305075
0.000131728
0.000294233
2.83278e-05
0.000275696
-7.6688e-05
0.000250045
-0.000175772
0.000219413
-0.000266012
0.000184889
-0.000343095
0.00015042
-0.000411203
0.000114433
-0.000469662
8.09413e-05
-0.000519748
4.8082e-05
-0.000550133
1.64875e-05
-0.00057322
-2.0532e-05
-0.00059432
-6.95958e-05
-0.000813946
-9.03564e-05
-0.00123324
-0.00135099
2.74007e-05
8.95371e-05
7.66559e-05
0.000296863
0.000123466
0.000451952
0.000168924
0.000557173
0.000212584
0.000632279
0.000247075
0.000671529
0.000267635
0.000665528
0.000277646
0.000622786
0.0002862
0.000564858
0.000300885
0.000509773
0.000322687
0.000462378
0.0003479
0.000415777
0.000371194
0.000362607
0.00038884
0.000296969
0.000398453
0.000219503
0.000398737
0.000131444
0.000388839
3.82257e-05
0.00036906
-5.69091e-05
0.000340277
-0.000146989
0.000304719
-0.000230453
0.000264746
-0.000303122
0.00022307
-0.000369527
0.000179528
-0.00042612
0.000136539
-0.000476759
9.1937e-05
-0.000505531
5.04663e-05
-0.000531749
5.97733e-06
-0.000549831
-5.06573e-05
-0.000757311
-8.22889e-05
-0.0012016
-0.00143328
2.243e-05
6.7107e-05
7.19335e-05
0.00024736
0.000124319
0.000399566
0.000176747
0.000504745
0.000229755
0.000579271
0.000277005
0.000624279
0.000311247
0.000631287
0.000332292
0.000601741
0.000346842
0.000550308
0.000363303
0.000493312
0.000385486
0.000440195
0.000412072
0.000389191
0.000438456
0.000336223
0.000460013
0.000275412
0.000473237
0.00020628
0.000476122
0.000128559
0.000467626
4.67217e-05
0.000447805
-3.70882e-05
0.00041785
-0.000117034
0.00038002
-0.000192624
0.000336878
-0.00025998
0.000290306
-0.000322955
0.000240629
-0.000376443
0.000188501
-0.00042463
0.000133774
-0.000450804
8.10943e-05
-0.00047907
2.6669e-05
-0.000495406
-3.46401e-05
-0.000696002
-7.60544e-05
-0.00116019
-0.00150933
1.65332e-05
5.05738e-05
6.18436e-05
0.000202049
0.000116112
0.000345298
0.000173084
0.000447773
0.000233135
0.00051922
0.000291558
0.000565856
0.000340408
0.000582436
0.000375828
0.000566321
0.000400467
0.000525669
0.000421278
0.000472501
0.000443602
0.000417871
0.000468885
0.000363908
0.00049472
0.000310388
0.000517095
0.000253037
0.000532135
0.00019124
0.000537113
0.000123582
0.000530701
5.31338e-05
0.000512629
-1.90164e-05
0.000484055
-8.84603e-05
0.000446652
-0.000155221
0.00040269
-0.000216018
0.000352732
-0.000272997
0.000297419
-0.00032113
0.00023612
-0.000363331
0.000171718
-0.000386401
0.00010732
-0.000414672
4.65222e-05
-0.000434608
-1.84005e-05
-0.000631079
-6.60645e-05
-0.00111253
-0.0015754
9.10805e-06
4.14658e-05
4.48911e-05
0.000166266
9.60884e-05
0.000294101
0.00015536
0.000388502
0.0002212
0.000453379
0.000289818
0.000497238
0.000353532
0.000518723
0.000406335
0.000513518
0.000446368
0.000485635
0.000477228
0.000441641
0.000503742
0.000391357
0.000528881
0.000338769
0.000552785
0.000286484
0.000573328
0.000232495
0.00058767
0.000176898
0.000593059
0.000118193
0.000588014
5.81783e-05
0.000571911
-2.91338e-06
0.000545372
-6.19208e-05
0.000509011
-0.00011886
0.000464404
-0.000171411
0.000410785
-0.000219378
0.00034962
-0.000259966
0.000279191
-0.000292902
0.000206249
-0.00031346
0.000130352
-0.000338775
6.59611e-05
-0.000370217
-4.31507e-06
-0.000560803
-5.57029e-05
-0.00106114
-0.0016311
-9.72309e-08
4.1563e-05
2.44706e-05
0.000141698
6.73741e-05
0.000251198
0.000125242
0.000330634
0.000192494
0.000386127
0.000266519
0.000423212
0.000341803
0.000443438
0.000410497
0.000444824
0.000468055
0.000428077
0.000514246
0.00039545
0.000551386
0.000354217
0.000582195
0.000307959
0.000608026
0.000260653
0.000628613
0.000211908
0.000642627
0.000162883
0.000648255
0.000112565
0.000644293
6.21403e-05
0.000629324
1.20565e-05
0.000604129
-3.67266e-05
0.000567768
-8.24988e-05
0.00052144
-0.000125082
0.000463432
-0.00016137
0.000396385
-0.000192919
0.000318032
-0.000214548
0.000238447
-0.000233876
0.000152074
-0.000252402
8.64376e-05
-0.000304581
4.99379e-06
-0.000479359
-5.64388e-05
-0.000999705
-0.00168754
-1.8576e-05
6.0139e-05
-1.0253e-05
0.000133375
2.34043e-05
0.00021754
8.15136e-05
0.000272525
0.00015021
0.000317431
0.000230274
0.000343149
0.000313785
0.000359927
0.000395384
0.000363225
0.000469168
0.000354292
0.000532338
0.00033228
0.000584254
0.000302301
0.000626116
0.000266097
0.00065896
0.000227809
0.000683318
0.00018755
0.000698892
0.000147309
0.000704944
0.000106513
0.000700739
6.63452e-05
0.000685464
2.73319e-05
0.000658889
-1.01521e-05
0.000620447
-4.40566e-05
0.00057068
-7.53155e-05
0.000508771
-9.94608e-05
0.000437634
-0.000121782
0.000355641
-0.000132555
0.000274475
-0.00015271
0.000183699
-0.000161626
0.000118184
-0.000239065
2.41768e-05
-0.000385352
-5.08993e-05
-0.000924629
-0.00173844
-4.06487e-05
0.000100788
-4.64581e-05
0.000139185
-2.66509e-05
0.000197733
2.43584e-05
0.000221516
9.11434e-05
0.000250646
0.000172322
0.00026197
0.000258825
0.000273424
0.000347261
0.000274789
0.000431336
0.000270217
0.00050784
0.000255776
0.000573063
0.000237079
0.000627969
0.000211191
0.000670759
0.000185019
0.000703483
0.000154827
0.000724188
0.000126604
0.00073454
9.61606e-05
0.00073235
6.85356e-05
0.000719314
4.03678e-05
0.000693146
1.60159e-05
0.000655877
-6.78739e-06
0.00060662
-2.60585e-05
0.000546916
-3.9757e-05
0.000479592
-5.44582e-05
0.000403214
-5.61766e-05
0.000329296
-7.87918e-05
0.00024775
-8.00805e-05
0.000182693
-0.000174008
0.000104576
-0.000307235
2.74477e-05
-0.000847501
-0.00171099
-0.00013704
0.000237828
-0.000119483
0.000121627
-9.57304e-05
0.000173981
-2.86009e-05
0.000154386
4.43893e-05
0.000177656
0.00013073
0.000175629
0.000219672
0.000184482
0.000313955
0.000180506
0.000402419
0.000181754
0.000487776
0.000170419
0.000561232
0.000163623
0.000626071
0.000146352
0.000677015
0.000134075
0.000717448
0.000114394
0.000744101
9.99511e-05
0.000759572
8.06888e-05
0.000761957
6.61509e-05
0.00075274
4.95847e-05
0.000732468
3.62877e-05
0.000700889
2.47916e-05
0.00066186
1.29709e-05
0.000612967
9.13559e-06
0.000561949
-3.4402e-06
0.000504817
9.55404e-07
0.000447798
-2.17727e-05
0.000391634
-2.39165e-05
0.000326095
-0.000108468
0.000284657
-0.000265797
0.0001804
-0.000743244
-0.00153059
-4.74512e-05
0.000285279
-8.64812e-05
0.000160657
-5.66435e-05
0.000144143
-2.59746e-05
0.000123717
4.42507e-05
0.000107431
0.000121193
9.86862e-05
0.00020917
9.65047e-05
0.00029859
9.10864e-05
0.000389925
9.04191e-05
0.000475643
8.47012e-05
0.00055704
8.22257e-05
0.000628116
7.52757e-05
0.000691426
7.07659e-05
0.000742998
6.28214e-05
0.000785692
5.72564e-05
0.000817065
4.93167e-05
0.000839612
4.36039e-05
0.000852624
3.65728e-05
0.000857519
3.13922e-05
0.000856191
2.61196e-05
0.00084741
2.17519e-05
0.00083803
1.85159e-05
0.000820187
1.44026e-05
0.000809591
1.15516e-05
0.000781522
6.29646e-06
0.000765167
-7.56222e-06
0.000696915
-4.02155e-05
0.000625408
-0.00019429
0.000398437
-0.000516273
-0.00113215
0.000285279
0.000445936
0.000590079
0.000713797
0.000821228
0.000919914
0.00101642
0.0011075
0.00119792
0.00128263
0.00136485
0.00144013
0.00151089
0.00157371
0.00163097
0.00168029
0.00172389
0.00176046
0.00179186
0.00181798
0.00183973
0.00185824
0.00187265
0.0018842
0.00189049
0.00188293
0.00184272
0.00164843
0.00113215
)
;

boundaryField
{
    movingWall
    {
        type            calculated;
        value           uniform 0;
    }
    fixedWalls
    {
        type            calculated;
        value           uniform 0;
    }
    frontAndBack
    {
        type            empty;
    }
}


// ************************************************************************* //
