/*--------------------------------*- C++ -*----------------------------------*\
| =========                 |                                                 |
| \\      /  F ield         | OpenFOAM: The Open Source CFD Toolbox           |
|  \\    /   O peration     | Version:  2406                                  |
|   \\  /    A nd           | Website:  www.openfoam.com                      |
|    \\/     M anipulation  |                                                 |
\*---------------------------------------------------------------------------*/
FoamFile
{
    version     2.0;
    format      ascii;
    arch        "LSB;label=32;scalar=64";
    class       volVectorField;
    location    "20.55";
    object      U;
}
// * * * * * * * * * * * * * * * * * * * * * * * * * * * * * * * * * * * * * //

dimensions      [0 1 -1 0 0 0 0];

internalField   nonuniform List<vector> 
14400
(
(2.85721e-06 -2.8412e-06 0)
(2.49088e-05 -7.78042e-06 0)
(6.34273e-05 -1.15055e-05 0)
(0.000111491 -1.27626e-05 0)
(0.000160878 -1.26522e-05 0)
(0.000207715 -1.1691e-05 0)
(0.000249781 -1.03682e-05 0)
(0.000286176 -8.95542e-06 0)
(0.000316808 -7.59578e-06 0)
(0.000341992 -6.34815e-06 0)
(0.000362193 -5.22959e-06 0)
(0.000377833 -4.24257e-06 0)
(0.000389216 -3.35927e-06 0)
(0.000396461 -2.53108e-06 0)
(0.000399425 -1.69932e-06 0)
(0.000397941 -6.8526e-07 0)
(0.000391729 4.60997e-07 0)
(0.000380218 1.71825e-06 0)
(0.000362762 3.1194e-06 0)
(0.000338641 4.68659e-06 0)
(0.000307053 6.43669e-06 0)
(0.000267128 8.38546e-06 0)
(0.000217926 1.05484e-05 0)
(0.00015844 1.2942e-05 0)
(8.7584e-05 1.55846e-05 0)
(4.1911e-06 1.84973e-05 0)
(-9.29989e-05 2.17036e-05 0)
(-0.000205346 2.52293e-05 0)
(-0.000334317 2.91016e-05 0)
(-0.000481484 3.33485e-05 0)
(-0.000648525 3.79971e-05 0)
(-0.000837212 4.30721e-05 0)
(-0.00104939 4.85944e-05 0)
(-0.00128697 5.45785e-05 0)
(-0.00155186 6.10313e-05 0)
(-0.00184597 6.79495e-05 0)
(-0.00217112 7.53178e-05 0)
(-0.00252901 8.31065e-05 0)
(-0.00292112 9.127e-05 0)
(-0.00334868 9.97449e-05 0)
(-0.00381254 0.000108448 0)
(-0.00431314 0.000117276 0)
(-0.00485034 0.000126103 0)
(-0.00542343 0.000134782 0)
(-0.00603094 0.000143144 0)
(-0.00667065 0.000150999 0)
(-0.00733943 0.000158138 0)
(-0.00803324 0.000164335 0)
(-0.00874705 0.00016935 0)
(-0.00947482 0.000172934 0)
(-0.0102095 0.000174834 0)
(-0.010943 0.000174796 0)
(-0.0116664 0.000172576 0)
(-0.0123698 0.000167943 0)
(-0.0130425 0.000160689 0)
(-0.0136732 0.000150636 0)
(-0.0142504 0.000137643 0)
(-0.0147619 0.000121618 0)
(-0.0151958 0.000102523 0)
(-0.0155404 8.03512e-05 0)
(-0.0157846 5.52595e-05 0)
(-0.0159182 2.78847e-05 0)
(-0.015931 -1.72429e-06 0)
(-0.0158155 -3.40029e-05 0)
(-0.0155662 -6.79925e-05 0)
(-0.0151787 -0.000102991 0)
(-0.0146512 -0.000138431 0)
(-0.0139844 -0.000173629 0)
(-0.0131819 -0.000207838 0)
(-0.01225 -0.000240273 0)
(-0.0111978 -0.000270138 0)
(-0.0100373 -0.000296648 0)
(-0.00878312 -0.000319063 0)
(-0.00745249 -0.000336723 0)
(-0.00606458 -0.000349075 0)
(-0.0046403 -0.000355705 0)
(-0.00320172 -0.00035636 0)
(-0.00177146 -0.000350973 0)
(-0.00037208 -0.000339666 0)
(0.000974594 -0.000322759 0)
(0.00224813 -0.000300752 0)
(0.00343008 -0.000274312 0)
(0.00450458 -0.000244243 0)
(0.00545874 -0.000211445 0)
(0.00628301 -0.000176877 0)
(0.00697132 -0.000141507 0)
(0.00752118 -0.000106272 0)
(0.00793353 -7.20318e-05 0)
(0.00821249 -3.95196e-05 0)
(0.00836521 -9.33745e-06 0)
(0.00840144 1.76047e-05 0)
(0.00833124 4.03936e-05 0)
(0.00816713 6.03378e-05 0)
(0.00792357 7.72847e-05 0)
(0.00761387 9.07378e-05 0)
(0.00725119 0.000100835 0)
(0.0068483 0.000107867 0)
(0.0064171 0.000112146 0)
(0.00596834 0.000114016 0)
(0.00551147 0.000113839 0)
(0.00505456 0.000111974 0)
(0.00460431 0.000108767 0)
(0.00416605 0.000104546 0)
(0.00374385 9.96096e-05 0)
(0.00334058 9.42255e-05 0)
(0.00295805 8.86291e-05 0)
(0.00259716 8.302e-05 0)
(0.00225804 7.75584e-05 0)
(0.0019402 7.23585e-05 0)
(0.0016428 6.74781e-05 0)
(0.00136487 6.29031e-05 0)
(0.00110565 5.85273e-05 0)
(0.000865005 5.4129e-05 0)
(0.000643894 4.93479e-05 0)
(0.000444907 4.36701e-05 0)
(0.000272729 3.64648e-05 0)
(0.000134327 2.70909e-05 0)
(3.81151e-05 1.52853e-05 0)
(-8.67431e-06 1.93919e-06 0)
(-7.22132e-06 -7.23425e-06 0)
(7.88771e-06 -2.49745e-05 0)
(6.51488e-05 -6.47882e-05 0)
(0.000150496 -8.95914e-05 0)
(0.000252671 -9.83035e-05 0)
(0.000355205 -9.62505e-05 0)
(0.000450398 -8.79038e-05 0)
(0.000533405 -7.65007e-05 0)
(0.000602005 -6.41145e-05 0)
(0.000655664 -5.19248e-05 0)
(0.000694767 -4.04666e-05 0)
(0.000720032 -2.98532e-05 0)
(0.000732166 -1.99453e-05 0)
(0.000731669 -1.04516e-05 0)
(0.000718561 -1.03701e-06 0)
(0.000692461 8.73769e-06 0)
(0.000652545 1.93391e-05 0)
(0.000597507 3.10215e-05 0)
(0.000525769 4.40252e-05 0)
(0.000435415 5.85779e-05 0)
(0.000324231 7.4875e-05 0)
(0.00018976 9.30891e-05 0)
(2.93192e-05 0.00011338 0)
(-0.000159986 0.000135907 0)
(-0.000381262 0.000160831 0)
(-0.000637834 0.00018833 0)
(-0.000933253 0.000218593 0)
(-0.00127131 0.000251823 0)
(-0.00165602 0.000288233 0)
(-0.00209164 0.000328037 0)
(-0.00258265 0.000371441 0)
(-0.0031337 0.00041863 0)
(-0.00374957 0.00046975 0)
(-0.00443511 0.000524897 0)
(-0.00519511 0.000584093 0)
(-0.00603423 0.00064727 0)
(-0.00695681 0.000714253 0)
(-0.00796674 0.000784737 0)
(-0.00906728 0.000858275 0)
(-0.0102608 0.000934259 0)
(-0.0115487 0.00101191 0)
(-0.0129311 0.00109026 0)
(-0.0144065 0.00116817 0)
(-0.0159718 0.00124431 0)
(-0.017622 0.00131715 0)
(-0.0193499 0.00138502 0)
(-0.0211463 0.00144608 0)
(-0.0229995 0.0014984 0)
(-0.0248954 0.00153995 0)
(-0.0268177 0.00156864 0)
(-0.0287477 0.00158242 0)
(-0.0306646 0.00157928 0)
(-0.0325456 0.00155733 0)
(-0.0343664 0.00151486 0)
(-0.0361011 0.0014504 0)
(-0.0377232 0.00136277 0)
(-0.0392055 0.00125116 0)
(-0.0405209 0.00111517 0)
(-0.0416429 0.00095484 0)
(-0.0425458 0.000770737 0)
(-0.043206 0.000563946 0)
(-0.0436015 0.000336149 0)
(-0.0437137 8.991e-05 0)
(-0.0435272 -0.000171717 0)
(-0.0430293 -0.000446425 0)
(-0.0422123 -0.000729867 0)
(-0.0410732 -0.00101754 0)
(-0.0396135 -0.0013046 0)
(-0.03784 -0.00158587 0)
(-0.0357647 -0.00185598 0)
(-0.0334047 -0.00210944 0)
(-0.0307827 -0.00234082 0)
(-0.0279261 -0.0025449 0)
(-0.0248672 -0.00271682 0)
(-0.0216426 -0.00285227 0)
(-0.0182924 -0.00294769 0)
(-0.0148599 -0.00300037 0)
(-0.0113903 -0.00300866 0)
(-0.00792996 -0.00297202 0)
(-0.00452545 -0.00289112 0)
(-0.00122228 -0.00276787 0)
(0.00193615 -0.00260536 0)
(0.00490959 -0.00240783 0)
(0.00766205 -0.00218045 0)
(0.0101627 -0.00192922 0)
(0.0123865 -0.00166067 0)
(0.014315 -0.00138164 0)
(0.0159365 -0.00109902 0)
(0.0172463 -0.000819434 0)
(0.0182465 -0.000549046 0)
(0.0189455 -0.000293341 0)
(0.0193572 -5.71503e-05 0)
(0.0195015 0.000155587 0)
(0.0194021 0.00034369 0)
(0.019085 0.000505421 0)
(0.0185784 0.00063986 0)
(0.017912 0.000747379 0)
(0.017115 0.000829181 0)
(0.016216 0.000887079 0)
(0.0152417 0.000923344 0)
(0.0142169 0.000940556 0)
(0.0131633 0.000941455 0)
(0.0121002 0.000928819 0)
(0.0110437 0.00090537 0)
(0.0100067 0.000873688 0)
(0.00899956 0.000836155 0)
(0.00802974 0.000794905 0)
(0.00710235 0.000751782 0)
(0.00622038 0.000708286 0)
(0.00538522 0.000665512 0)
(0.00459712 0.000624052 0)
(0.00385584 0.000583884 0)
(0.00316145 0.000544232 0)
(0.0025152 0.000503423 0)
(0.00192047 0.000458789 0)
(0.00138382 0.000406691 0)
(0.000915558 0.000342906 0)
(0.000529793 0.000263698 0)
(0.000241651 0.000168428 0)
(6.71666e-05 6.47054e-05 0)
(2.43824e-06 -8.21351e-06 0)
(1.17126e-05 -6.3913e-05 0)
(9.02727e-05 -0.000150281 0)
(0.000198265 -0.000197862 0)
(0.000322875 -0.000212583 0)
(0.000443773 -0.000204851 0)
(0.000551938 -0.000183544 0)
(0.000641337 -0.00015529 0)
(0.000709026 -0.000124503 0)
(0.00075409 -9.37786e-05 0)
(0.00077675 -6.43479e-05 0)
(0.000777651 -3.64784e-05 0)
(0.000757382 -9.805e-06 0)
(0.000716141 1.63808e-05 0)
(0.000653617 4.29044e-05 0)
(0.00056887 7.07366e-05 0)
(0.000460215 0.000100727 0)
(0.000325364 0.000133714 0)
(0.000161494 0.000170424 0)
(-3.47436e-05 0.000211474 0)
(-0.000267162 0.000257402 0)
(-0.000539991 0.000308692 0)
(-0.000857843 0.000365793 0)
(-0.00122569 0.000429145 0)
(-0.00164887 0.000499191 0)
(-0.00213306 0.000576389 0)
(-0.00268428 0.000661215 0)
(-0.0033089 0.000754157 0)
(-0.0040136 0.000855699 0)
(-0.00480533 0.000966299 0)
(-0.00569129 0.00108636 0)
(-0.00667878 0.0012162 0)
(-0.00777512 0.00135599 0)
(-0.00898751 0.00150574 0)
(-0.0103228 0.00166523 0)
(-0.0117873 0.00183396 0)
(-0.0133864 0.00201114 0)
(-0.0151246 0.00219557 0)
(-0.0170048 0.00238571 0)
(-0.0190282 0.00257956 0)
(-0.0211941 0.00277468 0)
(-0.0234992 0.00296819 0)
(-0.0259375 0.00315675 0)
(-0.0285004 0.00333662 0)
(-0.0311756 0.00350369 0)
(-0.0339481 0.00365352 0)
(-0.0367991 0.00378145 0)
(-0.0397065 0.00388267 0)
(-0.0426454 0.00395239 0)
(-0.0455873 0.00398586 0)
(-0.0485015 0.00397861 0)
(-0.0513548 0.00392651 0)
(-0.0541125 0.00382594 0)
(-0.0567383 0.00367392 0)
(-0.0591956 0.00346819 0)
(-0.0614478 0.00320737 0)
(-0.0634589 0.002891 0)
(-0.0651944 0.00251964 0)
(-0.0666219 0.00209493 0)
(-0.0677113 0.00161959 0)
(-0.0684359 0.00109745 0)
(-0.0687727 0.000533413 0)
(-0.0687024 -6.66215e-05 0)
(-0.0682115 -0.000695246 0)
(-0.0672905 -0.00134454 0)
(-0.065935 -0.00200583 0)
(-0.0641466 -0.00266952 0)
(-0.0619322 -0.00332533 0)
(-0.0593047 -0.00396256 0)
(-0.0562827 -0.00457028 0)
(-0.0528906 -0.00513754 0)
(-0.0491583 -0.0056536 0)
(-0.0451211 -0.00610821 0)
(-0.0408195 -0.0064919 0)
(-0.0362983 -0.00679628 0)
(-0.0316067 -0.00701433 0)
(-0.0267968 -0.00714066 0)
(-0.0219238 -0.0071718 0)
(-0.017044 -0.00710638 0)
(-0.0122145 -0.00694529 0)
(-0.0074919 -0.00669176 0)
(-0.00293118 -0.00635133 0)
(0.0014156 -0.00593178 0)
(0.00550035 -0.00544292 0)
(0.00928009 -0.00489628 0)
(0.0127179 -0.00430478 0)
(0.0157839 -0.00368226 0)
(0.0184556 -0.003043 0)
(0.0207189 -0.00240122 0)
(0.0225678 -0.00177058 0)
(0.0240043 -0.00116369 0)
(0.0250384 -0.000591569 0)
(0.0256878 -6.31506e-05 0)
(0.0259763 0.000413848 0)
(0.0259322 0.000834071 0)
(0.0255891 0.00119476 0)
(0.0249832 0.00149502 0)
(0.0241524 0.00173581 0)
(0.0231349 0.00191972 0)
(0.0219681 0.0020507 0)
(0.0206879 0.00213369 0)
(0.0193273 0.00217434 0)
(0.0179164 0.00217868 0)
(0.0164814 0.00215287 0)
(0.0150449 0.00210296 0)
(0.0136253 0.00203467 0)
(0.0122374 0.00195329 0)
(0.0108923 0.00186346 0)
(0.00959825 0.00176905 0)
(0.00836054 0.00167295 0)
(0.00718279 0.00157687 0)
(0.00606758 0.00148107 0)
(0.00501746 0.00138411 0)
(0.00403618 0.00128258 0)
(0.00312975 0.00117101 0)
(0.00230767 0.00104212 0)
(0.00158348 0.00088776 0)
(0.000974601 0.000701161 0)
(0.000498156 0.000481635 0)
(0.00017997 0.000242685 0)
(1.70922e-05 4.22467e-05 0)
(1.29708e-05 -0.00011245 0)
(9.80568e-05 -0.000251881 0)
(0.000209567 -0.00032148 0)
(0.00033303 -0.000338287 0)
(0.000446306 -0.000319228 0)
(0.000540163 -0.000278296 0)
(0.000608427 -0.000225917 0)
(0.000648081 -0.000169109 0)
(0.000658123 -0.000112044 0)
(0.000638646 -5.67014e-05 0)
(0.000590081 -3.48782e-06 0)
(0.000512677 4.82454e-05 0)
(0.000406125 9.9774e-05 0)
(0.000269425 0.000152706 0)
(0.000100762 0.000208697 0)
(-0.000102573 0.00026937 0)
(-0.000344093 0.000336249 0)
(-0.000628067 0.000410694 0)
(-0.000959462 0.000493904 0)
(-0.00134388 0.000586944 0)
(-0.00178749 0.000690781 0)
(-0.00229703 0.000806313 0)
(-0.00287971 0.00093441 0)
(-0.00354326 0.00107593 0)
(-0.00429583 0.00123174 0)
(-0.00514603 0.00140271 0)
(-0.00610287 0.00158966 0)
(-0.00717565 0.00179341 0)
(-0.00837395 0.00201463 0)
(-0.00970743 0.00225386 0)
(-0.0111857 0.00251138 0)
(-0.0128181 0.00278718 0)
(-0.0146133 0.00308082 0)
(-0.0165794 0.0033914 0)
(-0.018723 0.0037174 0)
(-0.0210493 0.00405668 0)
(-0.0235614 0.00440637 0)
(-0.02626 0.00476281 0)
(-0.0291431 0.00512156 0)
(-0.0322052 0.00547736 0)
(-0.0354373 0.00582417 0)
(-0.0388267 0.00615522 0)
(-0.0423563 0.00646314 0)
(-0.0460053 0.00674002 0)
(-0.0497484 0.00697765 0)
(-0.0535565 0.00716765 0)
(-0.0573969 0.00730171 0)
(-0.0612334 0.00737182 0)
(-0.0650274 0.00737047 0)
(-0.068738 0.00729094 0)
(-0.0723232 0.00712743 0)
(-0.0757401 0.00687534 0)
(-0.0789459 0.00653138 0)
(-0.0818989 0.00609371 0)
(-0.0845589 0.00556207 0)
(-0.0868877 0.0049378 0)
(-0.0888501 0.0042239 0)
(-0.0904143 0.00342502 0)
(-0.091552 0.00254741 0)
(-0.0922392 0.00159895 0)
(-0.0924563 0.000588979 0)
(-0.0921881 -0.000471826 0)
(-0.0914246 -0.00157163 0)
(-0.0901606 -0.00269675 0)
(-0.0883962 -0.00383299 0)
(-0.0861364 -0.00496518 0)
(-0.0833917 -0.00607743 0)
(-0.080178 -0.00715336 0)
(-0.0765166 -0.00817633 0)
(-0.072434 -0.00912979 0)
(-0.0679621 -0.00999754 0)
(-0.063138 -0.0107641 0)
(-0.0580037 -0.0114152 0)
(-0.0526057 -0.0119379 0)
(-0.0469951 -0.0123214 0)
(-0.0412263 -0.0125571 0)
(-0.035357 -0.0126392 0)
(-0.029447 -0.0125649 0)
(-0.0235576 -0.0123346 0)
(-0.0177505 -0.0119523 0)
(-0.0120863 -0.0114253 0)
(-0.0066242 -0.0107645 0)
(-0.00142004 -0.00998396 0)
(0.0034745 -0.00910045 0)
(0.00801308 -0.00813327 0)
(0.0121557 -0.00710349 0)
(0.0158697 -0.00603332 0)
(0.0191304 -0.00494536 0)
(0.0219214 -0.00386188 0)
(0.0242352 -0.00280403 0)
(0.0260732 -0.00179116 0)
(0.0274451 -0.000840296 0)
(0.0283684 3.40921e-05 0)
(0.0288681 0.000821113 0)
(0.0289753 0.00151328 0)
(0.0287261 0.00210635 0)
(0.0281603 0.00259928 0)
(0.0273199 0.00299403 0)
(0.026248 0.00329513 0)
(0.0249871 0.00350925 0)
(0.0235785 0.00364465 0)
(0.0220606 0.00371073 0)
(0.0204687 0.00371749 0)
(0.0188341 0.00367513 0)
(0.0171838 0.0035936 0)
(0.0155404 0.00348229 0)
(0.0139225 0.00334965 0)
(0.0123445 0.00320287 0)
(0.0108176 0.00304752 0)
(0.00935016 0.00288713 0)
(0.00794912 0.00272279 0)
(0.00662068 0.0025527 0)
(0.00537174 0.00237184 0)
(0.00421115 0.00217194 0)
(0.00315089 0.00194195 0)
(0.00220689 0.00166962 0)
(0.00139916 0.0013447 0)
(0.00074715 0.000965016 0)
(0.000290165 0.000545804 0)
(3.11184e-05 0.000148582 0)
(1.25927e-05 -0.000161536 0)
(9.25089e-05 -0.000350647 0)
(0.0001917 -0.00043606 0)
(0.000294561 -0.000447624 0)
(0.000379024 -0.000409885 0)
(0.000436292 -0.000342265 0)
(0.000460729 -0.000258972 0)
(0.000449721 -0.000169502 0)
(0.000402453 -7.94387e-05 0)
(0.000318963 8.65921e-06 0)
(0.000199397 9.44266e-05 0)
(4.34937e-05 0.000178976 0)
(-0.000149762 0.000264325 0)
(-0.000382314 0.000352968 0)
(-0.000657125 0.00044752 0)
(-0.000978214 0.000550547 0)
(-0.0013506 0.000664443 0)
(-0.00178023 0.000791382 0)
(-0.00227394 0.000933312 0)
(-0.00283935 0.00109199 0)
(-0.00348481 0.001269 0)
(-0.00421937 0.00146586 0)
(-0.0050527 0.00168397 0)
(-0.00599507 0.00192474 0)
(-0.00705728 0.00218949 0)
(-0.00825059 0.00247953 0)
(-0.00958667 0.00279605 0)
(-0.0110774 0.00314007 0)
(-0.0127347 0.00351239 0)
(-0.0145704 0.00391341 0)
(-0.0165959 0.00434308 0)
(-0.0188217 0.00480071 0)
(-0.0212573 0.00528487 0)
(-0.0239105 0.00579323 0)
(-0.026787 0.00632245 0)
(-0.0298898 0.00686809 0)
(-0.033219 0.00742448 0)
(-0.0367707 0.00798476 0)
(-0.0405375 0.00854082 0)
(-0.0445069 0.00908338 0)
(-0.0486624 0.00960212 0)
(-0.0529821 0.0100858 0)
(-0.0574396 0.0105225 0)
(-0.0620038 0.0109 0)
(-0.0666393 0.0112059 0)
(-0.0713071 0.0114281 0)
(-0.075965 0.011555 0)
(-0.0805682 0.011576 0)
(-0.0850708 0.0114818 0)
(-0.0894258 0.0112646 0)
(-0.0935866 0.0109184 0)
(-0.0975077 0.010439 0)
(-0.101145 0.00982465 0)
(-0.104457 0.00907533 0)
(-0.107405 0.00819344 0)
(-0.109954 0.00718342 0)
(-0.112072 0.0060518 0)
(-0.113732 0.0048071 0)
(-0.114908 0.00345971 0)
(-0.115582 0.00202176 0)
(-0.115738 0.00050709 0)
(-0.115364 -0.00106901 0)
(-0.114453 -0.00268988 0)
(-0.113002 -0.00433749 0)
(-0.111013 -0.00599269 0)
(-0.108492 -0.00763538 0)
(-0.105448 -0.00924471 0)
(-0.101897 -0.0107993 0)
(-0.0978585 -0.0122773 0)
(-0.0933576 -0.0136572 0)
(-0.088424 -0.0149176 0)
(-0.0830926 -0.0160381 0)
(-0.0774032 -0.0169995 0)
(-0.0714007 -0.0177843 0)
(-0.0651345 -0.0183776 0)
(-0.0586586 -0.018767 0)
(-0.0520306 -0.0189436 0)
(-0.0453112 -0.0189025 0)
(-0.0385635 -0.0186426 0)
(-0.0318523 -0.0181676 0)
(-0.0252423 -0.0174855 0)
(-0.0187977 -0.0166092 0)
(-0.0125807 -0.0155557 0)
(-0.00665014 -0.0143462 0)
(-0.00106061 -0.0130054 0)
(0.00413899 -0.0115608 0)
(0.0089063 -0.010042 0)
(0.0132065 -0.00847952 0)
(0.0170129 -0.00690434 0)
(0.0203075 -0.00534647 0)
(0.0230814 -0.00383421 0)
(0.0253346 -0.00239335 0)
(0.0270761 -0.00104626 0)
(0.028323 0.000188753 0)
(0.0291003 0.00129751 0)
(0.0294395 0.00227045 0)
(0.0293776 0.00310256 0)
(0.0289562 0.00379319 0)
(0.0282192 0.00434568 0)
(0.0272124 0.00476684 0)
(0.0259815 0.00506633 0)
(0.0245708 0.00525601 0)
(0.0230224 0.0053492 0)
(0.0213752 0.00536005 0)
(0.0196639 0.00530283 0)
(0.0179193 0.0051914 0)
(0.0161672 0.00503852 0)
(0.0144295 0.00485536 0)
(0.0127239 0.00465086 0)
(0.0110648 0.00443108 0)
(0.00946436 0.00419862 0)
(0.0079334 0.00395197 0)
(0.00648269 0.00368513 0)
(0.00512431 0.00338755 0)
(0.003873 0.00304483 0)
(0.00274725 0.00264062 0)
(0.00177021 0.00216027 0)
(0.000965044 0.00159723 0)
(0.000385761 0.000961882 0)
(4.30014e-05 0.000305771 0)
(1.09464e-05 -0.000205837 0)
(7.69379e-05 -0.00043495 0)
(0.000150907 -0.000526544 0)
(0.000216979 -0.000523435 0)
(0.00025488 -0.000458318 0)
(0.000256847 -0.000356163 0)
(0.0002183 -0.000234826 0)
(0.000137395 -0.000106013 0)
(1.37126e-05 2.35847e-05 0)
(-0.000152694 0.000151135 0)
(-0.000362021 0.000276601 0)
(-0.000615188 0.000401832 0)
(-0.000914143 0.00052983 0)
(-0.00126202 0.000664184 0)
(-0.00166321 0.000808663 0)
(-0.00212333 0.000966955 0)
(-0.00264922 0.00114252 0)
(-0.00324879 0.00133851 0)
(-0.00393102 0.0015578 0)
(-0.00470582 0.00180298 0)
(-0.00558397 0.00207642 0)
(-0.00657708 0.00238034 0)
(-0.00769747 0.00271682 0)
(-0.00895813 0.00308784 0)
(-0.0103726 0.00349524 0)
(-0.0119548 0.00394074 0)
(-0.013719 0.00442576 0)
(-0.0156794 0.00495138 0)
(-0.01785 0.00551819 0)
(-0.0202442 0.00612608 0)
(-0.0228744 0.00677409 0)
(-0.0257514 0.00746021 0)
(-0.0288841 0.00818116 0)
(-0.0322786 0.00893225 0)
(-0.0359379 0.00970722 0)
(-0.039861 0.0104981 0)
(-0.0440428 0.0112954 0)
(-0.0484731 0.0120876 0)
(-0.0531367 0.0128618 0)
(-0.0580127 0.0136038 0)
(-0.0630752 0.014298 0)
(-0.0682926 0.0149281 0)
(-0.0736287 0.0154775 0)
(-0.0790429 0.0159295 0)
(-0.084491 0.0162682 0)
(-0.089926 0.0164783 0)
(-0.0952994 0.0165462 0)
(-0.100562 0.0164603 0)
(-0.105663 0.0162109 0)
(-0.110556 0.0157907 0)
(-0.115194 0.0151953 0)
(-0.119533 0.0144227 0)
(-0.123532 0.0134735 0)
(-0.127154 0.0123512 0)
(-0.130363 0.0110614 0)
(-0.133129 0.00961227 0)
(-0.135426 0.00801413 0)
(-0.13723 0.00627926 0)
(-0.13852 0.00442182 0)
(-0.13928 0.00245774 0)
(-0.139496 0.000404533 0)
(-0.139158 -0.00171875 0)
(-0.138258 -0.00389162 0)
(-0.136794 -0.00609226 0)
(-0.134765 -0.00829761 0)
(-0.132174 -0.0104835 0)
(-0.129029 -0.0126248 0)
(-0.125341 -0.0146955 0)
(-0.121125 -0.0166694 0)
(-0.116402 -0.0185198 0)
(-0.111198 -0.0202204 0)
(-0.105543 -0.0217456 0)
(-0.0994734 -0.023071 0)
(-0.0930304 -0.0241741 0)
(-0.086261 -0.0250349 0)
(-0.0792171 -0.0256367 0)
(-0.0719557 -0.0259666 0)
(-0.0645379 -0.0260161 0)
(-0.0570282 -0.0257819 0)
(-0.049494 -0.025266 0)
(-0.0420042 -0.0244762 0)
(-0.034628 -0.0234261 0)
(-0.0274336 -0.0221349 0)
(-0.0204871 -0.0206272 0)
(-0.0138511 -0.0189321 0)
(-0.00758319 -0.0170829 0)
(-0.00173492 -0.0151161 0)
(0.00364911 -0.0130698 0)
(0.00853228 -0.0109833 0)
(0.0128865 -0.00889558 0)
(0.0166928 -0.00684395 0)
(0.0199414 -0.00486331 0)
(0.0226316 -0.00298494 0)
(0.024772 -0.00123574 0)
(0.0263797 0.000362402 0)
(0.0274795 0.00179309 0)
(0.0281031 0.0030456 0)
(0.0282884 0.00411483 0)
(0.0280774 0.00500106 0)
(0.0275157 0.00570947 0)
(0.0266505 0.0062495 0)
(0.0255292 0.00663409 0)
(0.0241987 0.00687879 0)
(0.0227034 0.00700093 0)
(0.0210847 0.00701869 0)
(0.0193802 0.00695021 0)
(0.0176233 0.00681272 0)
(0.0158429 0.00662168 0)
(0.0140639 0.0063899 0)
(0.0123072 0.0061266 0)
(0.010591 0.00583657 0)
(0.0089312 0.00551935 0)
(0.00734323 0.00516863 0)
(0.005843 0.00477224 0)
(0.00444861 0.00431278 0)
(0.00318184 0.00376958 0)
(0.00206984 0.00312235 0)
(0.00114056 0.00235709 0)
(0.00046193 0.0014737 0)
(5.2277e-05 0.00050493 0)
(8.40889e-06 -0.000241196 0)
(5.36998e-05 -0.000494884 0)
(9.18684e-05 -0.000579432 0)
(0.00010753 -0.000550013 0)
(8.37134e-05 -0.000447574 0)
(1.43274e-05 -0.000302376 0)
(-0.000103702 -0.000135605 0)
(-0.000271148 3.92418e-05 0)
(-0.000487883 0.000214813 0)
(-0.000753811 0.000388427 0)
(-0.00106955 0.000560761 0)
(-0.00143683 0.000734741 0)
(-0.00185877 0.000914642 0)
(-0.00233996 0.00110542 0)
(-0.00288652 0.0013122 0)
(-0.00350599 0.00154 0)
(-0.00420733 0.00179352 0)
(-0.00500074 0.00207708 0)
(-0.00589765 0.0023946 0)
(-0.00691053 0.00274966 0)
(-0.00805288 0.00314552 0)
(-0.00933906 0.0035852 0)
(-0.0107842 0.00407151 0)
(-0.0124042 0.00460703 0)
(-0.0142153 0.00519406 0)
(-0.016234 0.00583457 0)
(-0.0184769 0.00653 0)
(-0.0209602 0.00728113 0)
(-0.0236994 0.00808787 0)
(-0.0267087 0.00894895 0)
(-0.0300004 0.00986174 0)
(-0.0335843 0.010822 0)
(-0.037467 0.0118234 0)
(-0.0416515 0.0128579 0)
(-0.046136 0.013915 0)
(-0.0509138 0.014982 0)
(-0.0559724 0.0160441 0)
(-0.0612936 0.0170843 0)
(-0.0668531 0.018084 0)
(-0.0726207 0.0190232 0)
(-0.0785606 0.019881 0)
(-0.0846322 0.0206361 0)
(-0.0907905 0.0212676 0)
(-0.0969875 0.0217555 0)
(-0.103173 0.0220812 0)
(-0.109295 0.0222281 0)
(-0.115303 0.0221825 0)
(-0.121147 0.0219329 0)
(-0.126778 0.0214714 0)
(-0.13215 0.0207929 0)
(-0.13722 0.0198957 0)
(-0.141949 0.0187809 0)
(-0.146301 0.0174526 0)
(-0.150242 0.0159177 0)
(-0.153743 0.0141852 0)
(-0.156779 0.0122668 0)
(-0.159324 0.0101758 0)
(-0.161358 0.00792758 0)
(-0.162863 0.00553932 0)
(-0.163823 0.00302966 0)
(-0.164224 0.000418908 0)
(-0.164055 -0.00227115 0)
(-0.163307 -0.00501721 0)
(-0.161973 -0.00779447 0)
(-0.160049 -0.0105767 0)
(-0.157536 -0.0133364 0)
(-0.154434 -0.0160445 0)
(-0.150751 -0.0186711 0)
(-0.146498 -0.0211855 0)
(-0.141688 -0.0235561 0)
(-0.136342 -0.0257515 0)
(-0.130485 -0.0277406 0)
(-0.124148 -0.0294935 0)
(-0.117369 -0.0309817 0)
(-0.11019 -0.0321797 0)
(-0.102662 -0.033065 0)
(-0.0948385 -0.0336197 0)
(-0.0867819 -0.0338307 0)
(-0.0785575 -0.0336908 0)
(-0.0702355 -0.0331994 0)
(-0.0618888 -0.0323626 0)
(-0.053592 -0.0311935 0)
(-0.0454204 -0.0297124 0)
(-0.0374476 -0.0279462 0)
(-0.0297449 -0.0259282 0)
(-0.0223791 -0.0236968 0)
(-0.0154116 -0.0212946 0)
(-0.00889682 -0.0187673 0)
(-0.00288143 -0.0161626 0)
(0.00259665 -0.013528 0)
(0.00750867 -0.0109102 0)
(0.0118354 -0.0083536 0)
(0.0155674 -0.00589878 0)
(0.0187044 -0.00358175 0)
(0.0212555 -0.00143297 0)
(0.0232386 0.000523253 0)
(0.024679 0.00226919 0)
(0.0256096 0.00379384 0)
(0.0260687 0.00509283 0)
(0.0260996 0.00616803 0)
(0.0257488 0.00702698 0)
(0.0250648 0.00768213 0)
(0.0240966 0.00814989 0)
(0.0228926 0.0084496 0)
(0.0214991 0.00860243 0)
(0.0199595 0.00863025 0)
(0.0183137 0.00855445 0)
(0.0165973 0.00839478 0)
(0.0148422 0.00816812 0)
(0.0130758 0.00788727 0)
(0.0113226 0.0075598 0)
(0.00960426 0.00718694 0)
(0.00794133 0.00676279 0)
(0.00635419 0.0062741 0)
(0.00486505 0.00570078 0)
(0.00349972 0.00501759 0)
(0.00229002 0.00419741 0)
(0.00126926 0.00321623 0)
(0.000517214 0.00205946 0)
(5.88856e-05 0.000735875 0)
(5.25398e-06 -0.000264445 0)
(2.43222e-05 -0.000522362 0)
(1.77709e-05 -0.000583263 0)
(-2.86305e-05 -0.000514037 0)
(-0.000127336 -0.000363062 0)
(-0.000282063 -0.000165655 0)
(-0.000494018 5.4225e-05 0)
(-0.000762642 0.000281882 0)
(-0.00108715 0.000509885 0)
(-0.00146743 0.000736244 0)
(-0.00190463 0.000962827 0)
(-0.00240149 0.00119404 0)
(-0.00296255 0.00143579 0)
(-0.00359416 0.00169467 0)
(-0.00430446 0.00197743 0)
(-0.00510327 0.00229061 0)
(-0.00600198 0.00264033 0)
(-0.00701343 0.00303222 0)
(-0.00815177 0.0034714 0)
(-0.00943236 0.00396253 0)
(-0.0108716 0.00450986 0)
(-0.0124868 0.00511725 0)
(-0.0142961 0.00578821 0)
(-0.0163182 0.00652585 0)
(-0.0185719 0.00733275 0)
(-0.0210761 0.00821086 0)
(-0.0238495 0.00916124 0)
(-0.0269095 0.0101838 0)
(-0.0302722 0.0112771 0)
(-0.0339514 0.0124378 0)
(-0.0379581 0.0136606 0)
(-0.0422996 0.0149378 0)
(-0.0469786 0.016259 0)
(-0.0519928 0.0176112 0)
(-0.057334 0.0189785 0)
(-0.0629878 0.0203423 0)
(-0.0689331 0.0216815 0)
(-0.0751425 0.0229729 0)
(-0.0815822 0.0241917 0)
(-0.0882126 0.0253124 0)
(-0.0949892 0.0263089 0)
(-0.101864 0.027156 0)
(-0.108785 0.0278297 0)
(-0.115701 0.0283083 0)
(-0.122558 0.0285724 0)
(-0.129303 0.0286061 0)
(-0.135888 0.0283967 0)
(-0.142263 0.0279352 0)
(-0.148384 0.0272164 0)
(-0.15421 0.0262384 0)
(-0.159701 0.0250028 0)
(-0.164824 0.0235141 0)
(-0.169546 0.0217798 0)
(-0.173838 0.0198097 0)
(-0.177676 0.0176159 0)
(-0.181034 0.0152125 0)
(-0.183891 0.0126152 0)
(-0.186227 0.00984153 0)
(-0.188024 0.00691067 0)
(-0.189266 0.00384322 0)
(-0.189938 0.000661378 0)
(-0.190027 -0.00261108 0)
(-0.189521 -0.00594876 0)
(-0.18841 -0.00932459 0)
(-0.186688 -0.0127098 0)
(-0.184349 -0.0160739 0)
(-0.181391 -0.0193847 0)
(-0.177814 -0.0226086 0)
(-0.173623 -0.0257105 0)
(-0.168827 -0.0286545 0)
(-0.16344 -0.0314037 0)
(-0.15748 -0.0339214 0)
(-0.150972 -0.0361717 0)
(-0.143947 -0.0381196 0)
(-0.136443 -0.0397331 0)
(-0.128507 -0.040983 0)
(-0.120189 -0.0418449 0)
(-0.11155 -0.0422997 0)
(-0.102655 -0.0423349 0)
(-0.0935774 -0.0419453 0)
(-0.0843928 -0.0411339 0)
(-0.0751817 -0.039912 0)
(-0.0660266 -0.0382995 0)
(-0.0570101 -0.0363247 0)
(-0.0482131 -0.0340239 0)
(-0.0397132 -0.0314402 0)
(-0.0315828 -0.0286223 0)
(-0.0238877 -0.0256234 0)
(-0.0166855 -0.0224993 0)
(-0.0100248 -0.019307 0)
(-0.00394425 -0.0161027 0)
(0.00152743 -0.0129407 0)
(0.00637197 -0.00987138 0)
(0.0105812 -0.00694048 0)
(0.0141569 -0.00418768 0)
(0.01711 -0.00164592 0)
(0.01946 0.000659199 0)
(0.0212346 0.00270973 0)
(0.0224678 0.00449542 0)
(0.0232 0.00601348 0)
(0.0234755 0.00726813 0)
(0.0233424 0.00826983 0)
(0.0228506 0.00903441 0)
(0.0220504 0.00958191 0)
(0.0209916 0.00993537 0)
(0.019722 0.0101195 0)
(0.018287 0.0101592 0)
(0.016728 0.0100782 0)
(0.0150832 0.00989728 0)
(0.0133865 0.00963309 0)
(0.0116685 0.00929628 0)
(0.00995694 0.00889028 0)
(0.00827779 0.00841015 0)
(0.00665649 0.00784204 0)
(0.00511993 0.0071634 0)
(0.00369856 0.00634424 0)
(0.00242926 0.00534972 0)
(0.00135068 0.0041442 0)
(0.000551815 0.00269626 0)
(6.29251e-05 0.000988345 0)
(1.64748e-06 -0.000272697 0)
(-1.01594e-05 -0.0005108 0)
(-6.94569e-05 -0.000528418 0)
(-0.000188139 -0.000403763 0)
(-0.000373169 -0.000191942 0)
(-0.000625698 6.74336e-05 0)
(-0.000944421 0.000348392 0)
(-0.00132728 0.000635785 0)
(-0.0017728 0.000922816 0)
(-0.0022809 0.00120883 0)
(-0.00285343 0.00149745 0)
(-0.00349438 0.00179504 0)
(-0.00420999 0.00210952 0)
(-0.00500868 0.00244945 0)
(-0.00590095 0.00282345 0)
(-0.00689923 0.0032398 0)
(-0.0080177 0.00370622 0)
(-0.00927213 0.00422978 0)
(-0.0106797 0.0048169 0)
(-0.0122589 0.0054734 0)
(-0.0140292 0.00620451 0)
(-0.016011 0.00701494 0)
(-0.0182254 0.00790877 0)
(-0.0206936 0.00888943 0)
(-0.0234372 0.00995947 0)
(-0.0264767 0.0111204 0)
(-0.0298321 0.0123722 0)
(-0.0335213 0.0137132 0)
(-0.0375599 0.0151396 0)
(-0.0419599 0.0166449 0)
(-0.0467293 0.01822 0)
(-0.0518712 0.0198523 0)
(-0.0573826 0.0215259 0)
(-0.0632542 0.0232218 0)
(-0.0694696 0.0249174 0)
(-0.0760056 0.0265872 0)
(-0.0828318 0.0282035 0)
(-0.0899111 0.0297365 0)
(-0.0972007 0.0311557 0)
(-0.104653 0.0324306 0)
(-0.112217 0.0335315 0)
(-0.119838 0.0344306 0)
(-0.127464 0.0351028 0)
(-0.135038 0.0355262 0)
(-0.142509 0.0356827 0)
(-0.149826 0.0355583 0)
(-0.156942 0.0351433 0)
(-0.163812 0.0344317 0)
(-0.170396 0.0334218 0)
(-0.176656 0.032115 0)
(-0.182559 0.0305162 0)
(-0.188073 0.0286331 0)
(-0.19317 0.0264758 0)
(-0.197823 0.0240567 0)
(-0.20201 0.0213899 0)
(-0.205708 0.0184915 0)
(-0.208896 0.0153791 0)
(-0.211556 0.0120716 0)
(-0.21367 0.0085897 0)
(-0.215221 0.00495526 0)
(-0.216195 0.00119188 0)
(-0.216578 -0.00267526 0)
(-0.216356 -0.00661928 0)
(-0.215517 -0.0106114 0)
(-0.214052 -0.014621 0)
(-0.211952 -0.0186154 0)
(-0.209209 -0.0225599 0)
(-0.20582 -0.0264177 0)
(-0.201783 -0.0301501 0)
(-0.197098 -0.0337169 0)
(-0.191773 -0.0370767 0)
(-0.185819 -0.040187 0)
(-0.179251 -0.0430056 0)
(-0.172093 -0.045491 0)
(-0.164376 -0.0476034 0)
(-0.156137 -0.0493063 0)
(-0.147423 -0.0505673 0)
(-0.13829 -0.0513596 0)
(-0.128801 -0.0516634 0)
(-0.119029 -0.0514671 0)
(-0.109051 -0.0507682 0)
(-0.0989543 -0.0495741 0)
(-0.0888274 -0.0479026 0)
(-0.0787623 -0.0457819 0)
(-0.0688513 -0.0432498 0)
(-0.0591845 -0.0403533 0)
(-0.0498477 -0.037147 0)
(-0.0409203 -0.0336914 0)
(-0.0324735 -0.0300513 0)
(-0.0245684 -0.0262934 0)
(-0.0172556 -0.0224844 0)
(-0.0105745 -0.0186895 0)
(-0.00455247 -0.0149699 0)
(0.000794108 -0.0113817 0)
(0.00545992 -0.00797474 0)
(0.00944991 -0.00479129 0)
(0.0127785 -0.00186558 0)
(0.0154686 0.000776726 0)
(0.0175508 0.00311864 0)
(0.0190623 0.00515174 0)
(0.0200456 0.00687581 0)
(0.0205475 0.00829816 0)
(0.0206179 0.00943275 0)
(0.0203081 0.0102991 0)
(0.0196703 0.010921 0)
(0.0187555 0.0113248 0)
(0.0176131 0.0115384 0)
(0.0162899 0.0115885 0)
(0.0148293 0.0114999 0)
(0.0132713 0.0112927 0)
(0.0116525 0.0109808 0)
(0.0100064 0.0105701 0)
(0.00836476 0.010057 0)
(0.00675831 0.00942742 0)
(0.0052191 0.00865656 0)
(0.00378257 0.00770962 0)
(0.00249063 0.00654365 0)
(0.00138698 0.00511066 0)
(0.000566946 0.00336163 0)
(6.45895e-05 0.00125253 0)
(-2.72298e-06 -0.000263725 0)
(-4.96203e-05 -0.000454152 0)
(-0.000168335 -0.00040632 0)
(-0.0003686 -0.00020875 0)
(-0.000650456 7.7217e-05 0)
(-0.00101192 0.000408875 0)
(-0.00144897 0.00075918 0)
(-0.00195787 0.00111344 0)
(-0.00253646 0.00146635 0)
(-0.00318482 0.00181933 0)
(-0.00390572 0.00217839 0)
(-0.00470465 0.00255239 0)
(-0.00558987 0.00295168 0)
(-0.00657222 0.00338714 0)
(-0.0076649 0.00386954 0)
(-0.00888329 0.00440909 0)
(-0.0102447 0.00501525 0)
(-0.011768 0.00569664 0)
(-0.0134739 0.00646106 0)
(-0.0153839 0.00731548 0)
(-0.0175208 0.00826607 0)
(-0.0199081 0.00931822 0)
(-0.0225696 0.0104764 0)
(-0.025529 0.0117439 0)
(-0.0288097 0.0131228 0)
(-0.0324337 0.0146134 0)
(-0.0364209 0.016214 0)
(-0.0407886 0.0179202 0)