/*--------------------------------*- C++ -*----------------------------------*\
| =========                 |                                                 |
| \\      /  F ield         | OpenFOAM: The Open Source CFD Toolbox           |
|  \\    /   O peration     | Version:  2406                                  |
|   \\  /    A nd           | Website:  www.openfoam.com                      |
|    \\/     M anipulation  |                                                 |
\*---------------------------------------------------------------------------*/
FoamFile
{
    version     2.0;
    format      ascii;
    arch        "LSB;label=32;scalar=64";
    class       volScalarField;
    location    "30.5";
    object      p;
}
// * * * * * * * * * * * * * * * * * * * * * * * * * * * * * * * * * * * * * //

dimensions      [0 2 -2 0 0 0 0];

internalField   nonuniform List<scalar> 
3600
(
0.036725
0.0367556
0.0367379
0.0367139
0.0366376
0.0365549
0.0364408
0.0363281
0.036198
0.0360669
0.0359174
0.0357547
0.0355644
0.0353472
0.0350937
0.0348042
0.034475
0.0341089
0.033709
0.0332847
0.0328496
0.0324245
0.0320367
0.0317183
0.0315038
0.0314259
0.0315128
0.0317834
0.0322459
0.0328936
0.033704
0.0346363
0.0356324
0.0366177
0.0375063
0.0382091
0.0386429
0.0387451
0.0384819
0.0378611
0.0369277
0.0357657
0.0344745
0.0331645
0.0319236
0.0308263
0.0299044
0.0291779
0.0286268
0.0282388
0.0279692
0.0278036
0.0276951
0.0276448
0.0276102
0.0276119
0.027608
0.0276354
0.0276465
0.0276797
0.0366959
0.0367271
0.0367025
0.0366784
0.0366051
0.0365305
0.0364264
0.0363255
0.0362076
0.0360892
0.0359533
0.0358057
0.0356328
0.0354357
0.0352054
0.0349416
0.0346396
0.0343003
0.0339251
0.0335216
0.0331015
0.0326824
0.0322877
0.0319454
0.0316889
0.031552
0.0315668
0.0317571
0.0321364
0.0327022
0.0334361
0.0342999
0.0352379
0.0361766
0.0370311
0.0377119
0.0381352
0.0382368
0.0379815
0.0373762
0.0364662
0.0353371
0.0340903
0.0328377
0.0316666
0.0306478
0.0298061
0.0291536
0.0286628
0.0283175
0.0280725
0.0279164
0.0278059
0.0277474
0.0277
0.0276885
0.0276691
0.0276838
0.0276801
0.0277134
0.0367076
0.0367467
0.0367193
0.0366921
0.036613
0.0365346
0.0364295
0.0363308
0.0362186
0.0361078
0.0359813
0.035843
0.0356793
0.0354895
0.0352639
0.0349996
0.0346899
0.0343328
0.0339266
0.033475
0.0329878
0.0324839
0.0319925
0.0315499
0.0311974
0.0309747
0.0309176
0.0310516
0.0313908
0.0319329
0.0326596
0.0335323
0.0344948
0.035473
0.0363802
0.0371242
0.0376164
0.0377865
0.037592
0.0370328
0.0361494
0.0350269
0.0337709
0.0325018
0.0313174
0.0302975
0.0294721
0.0288535
0.0284098
0.0281179
0.027925
0.0278143
0.0277392
0.0277064
0.0276752
0.0276744
0.0276586
0.0276783
0.0276736
0.0277194
0.036725
0.0367654
0.0367314
0.0366972
0.0366125
0.0365323
0.0364314
0.0363411
0.0362425
0.036147
0.0360377
0.035915
0.0357647
0.0355818
0.0353538
0.0350719
0.0347244
0.0343026
0.0338031
0.033231
0.0326035
0.0319475
0.0313002
0.0307027
0.0302005
0.0298353
0.0296452
0.0296571
0.0298873
0.0303356
0.0309867
0.0318063
0.0327429
0.0337272
0.0346765
0.0354997
0.0361065
0.0364196
0.0363857
0.0359908
0.0352618
0.0342726
0.0331239
0.0319374
0.0308171
0.0298516
0.0290788
0.0285157
0.0281312
0.0279005
0.0277663
0.0277083
0.0276758
0.0276751
0.0276643
0.0276761
0.0276638
0.0276857
0.0276771
0.0277303
0.03679
0.0368269
0.0367842
0.0367366
0.0366407
0.0365506
0.0364469
0.0363568
0.0362636
0.0361729
0.0360675
0.0359406
0.0357751
0.0355571
0.0352678
0.0348887
0.0344044
0.0338058
0.0330971
0.0322932
0.0314238
0.0305267
0.0296493
0.0288392
0.0281463
0.0276128
0.0272763
0.0271622
0.0272863
0.0276492
0.0282386
0.0290248
0.0299635
0.0309925
0.0320367
0.0330097
0.0338212
0.0343871
0.0346401
0.0345448
0.0341041
0.0333685
0.0324229
0.0313823
0.0303559
0.0294442
0.0287008
0.0281573
0.0277932
0.0275896
0.0274909
0.0274741
0.0274845
0.027524
0.0275472
0.0275859
0.027592
0.027627
0.027624
0.0276836
0.0368815
0.0369074
0.0368539
0.0367893
0.0366837
0.0365847
0.0364814
0.0363919
0.0363034
0.0362111
0.0360969
0.0359422
0.0357238
0.0354138
0.034987
0.0344186
0.0336981
0.0328243
0.0318164
0.0307027
0.0295274
0.0283372
0.027186
0.0261233
0.025199
0.0244536
0.0239231
0.0236309
0.0235932
0.0238115
0.0242785
0.0249713
0.0258558
0.0268824
0.0279899
0.0291039
0.0301426
0.0310222
0.0316655
0.0320153
0.0320427
0.0317615
0.0312224
0.0305158
0.0297413
0.0290034
0.0283706
0.0278922
0.0275655
0.0273849
0.0273045
0.0273066
0.0273385
0.0274005
0.0274457
0.0275026
0.0275228
0.0275657
0.0275668
0.0276249
0.037025
0.0370331
0.0369671
0.0368797
0.0367618
0.0366468
0.0365363
0.0364338
0.0363309
0.0362073
0.0360423
0.035799
0.0354462
0.034942
0.034261
0.0333809
0.0323068
0.0310532
0.0296595
0.0281689
0.0266396
0.0251256
0.0236865
0.0223714
0.0212287
0.0202929
0.0195951
0.0191525
0.0189776
0.0190698
0.0194237
0.0200213
0.0208386
0.0218391
0.0229786
0.0242009
0.0254415
0.0266278
0.0276848
0.0285427
0.0291447
0.0294622
0.0294971
0.0292939
0.0289213
0.0284728
0.0280262
0.0276524
0.0273753
0.0272118
0.0271344
0.0271354
0.0271701
0.0272389
0.0272966
0.0273663
0.0274004
0.0274511
0.0274592
0.0275128
0.0372165
0.0371994
0.0371223
0.0370104
0.0368828
0.0367498
0.0366281
0.0364994
0.0363598
0.0361665
0.0358936
0.0354826
0.034898
0.0340901
0.0330459
0.031756
0.0302498
0.0285612
0.0267511
0.0248759
0.0230051
0.0211954
0.0195063
0.0179805
0.0166595
0.0155685
0.0147305
0.014155
0.0138496
0.0138108
0.0140339
0.0145045
0.0152071
0.0161173
0.017208
0.0184432
0.0197818
0.0211734
0.0225608
0.0238804
0.0250662
0.0260592
0.0268128
0.0273099
0.0275599
0.0276116
0.0275261
0.0273828
0.0272332
0.0271262
0.0270646
0.02706
0.0270834
0.0271404
0.0271922
0.0272578
0.0272938
0.0273426
0.0273528
0.027397
0.0374638
0.0374139
0.0373269
0.0371861
0.0370461
0.0368834
0.0367331
0.0365469
0.0363244
0.035994
0.0355252
0.0348392
0.0339064
0.032681
0.0311752
0.0294015
0.0274194
0.0252835
0.0230755
0.0208606
0.0187138
0.0166874
0.0148347
0.0131867
0.0117743
0.0106098
0.00970718
0.00906618
0.00868905
0.00856762
0.00869637
0.00906191
0.0096534
0.0104541
0.0114491
0.0126188
0.0139436
0.0153977
0.0169508
0.0185631
0.0201843
0.0217537
0.0232013
0.0244598
0.0254703
0.0262068
0.0266725
0.0269188
0.0270079
0.0270209
0.027004
0.0270017
0.027011
0.0270472
0.0270828
0.0271343
0.0271643
0.0272057
0.0272155
0.0272501
0.037769
0.0376807
0.0375885
0.0374174
0.0372636
0.0370591
0.0368586
0.036575
0.0362111
0.0356623
0.0348994
0.0338319
0.0324509
0.0307279
0.0287113
0.0264402
0.0240055
0.0214784
0.018954
0.0164963
0.0141765
0.0120333
0.010108
0.00841571
0.00697564
0.00578838
0.00486012
0.00418382
0.00375835
0.00357267
0.00362117
0.00389089
0.00437386
0.00505731
0.00593344
0.00699204
0.00822734
0.00963186
0.0111991
0.012917
0.0147652
0.0167079
0.0186879
0.0206259
0.0224212
0.0239729
0.0251955
0.026058
0.0265816
0.0268508
0.0269552
0.0269892
0.0269945
0.0270073
0.0270181
0.0270442
0.0270574
0.027083
0.0270869
0.0271112
0.038113
0.0379812
0.0378862
0.0376787
0.0375006
0.0372295
0.0369401
0.0364996
0.0359153
0.0350516
0.0338919
0.0323477
0.0304462
0.0281867
0.0256604
0.0229324
0.0201198
0.0173003
0.0145708
0.0119833
0.009596
0.00742919
0.00550991
0.00383824
0.00242384
0.00125814
0.000342747
-0.000333864
-0.000774237
-0.000991052
-0.000989589
-0.000782818
-0.000377268
0.000215619
0.000990841
0.00194172
0.00306853
0.00437255
0.00586116
0.00754186
0.00942155
0.0114974
0.0137484
0.016123
0.0185292
0.0208363
0.0228872
0.0245431
0.025721
0.0264415
0.0267993
0.0269378
0.0269668
0.0269643
0.0269499
0.0269464
0.0269378
0.026944
0.0269389
0.0269552
0.0384906
0.0383137
0.0382196
0.0379699
0.0377543
0.0373868
0.0369615
0.0362964
0.035408
0.0341384
0.0324993
0.030419
0.027974
0.0251966
0.0222197
0.0191261
0.0160471
0.013052
0.0102278
0.00760454
0.00522406
0.00308689
0.00120827
-0.000423444
-0.00180377
-0.00294651
-0.00385096
-0.00453028
-0.00498605
-0.00523099
-0.00526892
-0.00511228
-0.00476624
-0.00424167
-0.00354255
-0.002675
-0.00163763
-0.000427376
0.000967083
0.00256091
0.00437532
0.00643063
0.00874035
0.0112961
0.0140515
0.0169035
0.0196855
0.0221868
0.0242023
0.0256138
0.0264367
0.0268142
0.026929
0.026933
0.0268984
0.0268635
0.0268287
0.0268121
0.0267949
0.0268044
0.0388471
0.038624
0.0385288
0.0382239
0.0379461
0.0374405
0.0368203
0.035856
0.0345821
0.0328323
0.0306626
0.0280306
0.0250685
0.0218391
0.0185084
0.0151627
0.0119321
0.00886489
0.00603049
0.00343418
0.00110245
-0.000980225
-0.00280559
-0.00439251
-0.00573765
-0.00685705
-0.00774872
-0.00842606
-0.00888888
-0.00914953
-0.00921028
-0.00908316
-0.00877234
-0.00828859
-0.00763575
-0.00682061
-0.00584278
-0.00470068
-0.00338436
-0.00187887
-0.000160076
0.00180138
0.00403887
0.00657789
0.00942315
0.0125305
0.0157855
0.0189829
0.0218523
0.0241266
0.0256555
0.0264809
0.0268015
0.0268598
0.0268209
0.0267581
0.0266977
0.0266579
0.0266278
0.0266318
0.0391626
0.0388953
0.0387954
0.0384218
0.0380536
0.0373661
0.0364916
0.0351609
0.0334385
0.0311659
0.0284563
0.0253041
0.0218946
0.018312
0.01474
0.0112518
0.0079639
0.00489586
0.00209761
-0.000448096
-0.00272533
-0.00476054
-0.00654749
-0.00810838
-0.00943797
-0.0105525
-0.0114472
-0.0121349
-0.0126129
-0.012893
-0.0129755
-0.0128719
-0.0125853
-0.0121261
-0.0114981
-0.0107089
-0.00975952
-0.00865098
-0.00737701
-0.0059267
-0.00427999
-0.00240896
-0.000275785
0.00216059
0.0049391
0.00807078
0.011517
0.0151407
0.0186983
0.0218472
0.0242666
0.025791
0.0265217
0.0267313
0.0267212
0.0266398
0.0265552
0.0264915
0.026448
0.0264458
0.0393498
0.0390395
0.0389243
0.0384622
0.0379687
0.0370532
0.0358692
0.0341205
0.0319142
0.0291139
0.0258973
0.0222945
0.0185352
0.014709
0.0110015
0.00745956
0.00417938
0.0011505
-0.00159303
-0.00408565
-0.00631615
-0.00831693
-0.01008
-0.0116283
-0.0129532
-0.0140704
-0.014972
-0.0156703
-0.0161605
-0.0164539
-0.0165495
-0.0164584
-0.0161828
-0.0157331
-0.015113
-0.0143304
-0.013388
-0.0122887
-0.0110299
-0.00960551
-0.00800181
-0.00619714
-0.00415854
-0.00184392
0.000799365
0.0038159
0.00723097
0.0109941
0.0149533
0.0187961
0.0221204
0.0245399
0.0259333
0.0264749
0.0265587
0.02648
0.026376
0.0262876
0.0262308
0.0262199
0.0393834
0.0390336
0.0388913
0.0383231
0.0376721
0.0364911
0.0349576
0.0327641
0.0300706
0.0267744
0.0231165
0.0191559
0.0151514
0.0111823
0.00742201
0.0038843
0.000643999
-0.00233553
-0.00503026
-0.00748592
-0.00969098
-0.0116802
-0.0134415
-0.0149972
-0.0163346
-0.0174684
-0.018388
-0.0191049
-0.0196126
-0.0199217
-0.0200302
-0.0199487
-0.0196789
-0.0192308
-0.0186082
-0.0178191
-0.0168675
-0.0157572
-0.0144893
-0.0130611
-0.0114656
-0.00968846
-0.00770591
-0.00548346
-0.00297029
-0.000110643
0.00315827
0.00685514
0.010935
0.0151864
0.0192456
0.0226051
0.024879
0.0260058
0.0263172
0.0262781
0.0261673
0.0260503
0.0259791
0.0259551
0.039166
0.0387785
0.0385935
0.0379011
0.0370634
0.0355903
0.0336864
0.0310497
0.0278987
0.0241689
0.0201574
0.0159405
0.0117891
0.00775925
0.00400435
0.000504042
-0.0026845
-0.00561784
-0.00827601
-0.0107108
-0.0129069
-0.0148993
-0.0166706
-0.0182423
-0.0195977
-0.0207507
-0.0216884
-0.0224218
-0.0229431
-0.0232627
-0.0233778
-0.0232988
-0.0230274
-0.022573
-0.0219403
-0.0211366
-0.0201674
-0.0190368
-0.0177486
-0.0163021
-0.0146957
-0.0129208
-0.0109631
-0.00879793
-0.00638451
-0.00367143
-0.000583363
0.0029373
0.0069317
0.0113049
0.0158175
0.0199694
0.0232168
0.025159
0.0259363
0.026
0.0259093
0.0257609
0.0256724
0.0256298
0.0386926
0.0382719
0.0380309
0.0372035
0.0361609
0.0343868
0.0321149
0.029063
0.0255092
0.0214266
0.0171558
0.0127768
0.00855823
0.00452451
0.000806623
-0.0026462
-0.0057888
-0.00869112
-0.0113324
-0.0137666
-0.015973
-0.0179852
-0.0197809
-0.0213803
-0.0227631
-0.0239427
-0.0249039
-0.0256576
-0.0261947
-0.0265252
-0.0266462
-0.0265674
-0.026291
-0.0258259
-0.0251776
-0.024353
-0.0233592
-0.0222001
-0.0208819
-0.0194048
-0.0177716
-0.0159772
-0.0140156
-0.011871
-0.0095151
-0.00690838
-0.00398014
-0.000661311
0.00314078
0.00742641
0.0121035
0.0167826
0.0209113
0.0238104
0.0253065
0.0256387
0.0255863
0.0254236
0.0253077
0.0252418
0.0378878
0.0374372
0.0371276
0.0361593
0.0349039
0.0328364
0.0302198
0.0268031
0.0229183
0.0185717
0.0141323
0.0096721
0.00544641
0.00144585
-0.00221949
-0.00562444
-0.00873033
-0.0116146
-0.0142527
-0.0166983
-0.0189245
-0.0209634
-0.0227878
-0.024417
-0.0258277
-0.0270328
-0.0280155
-0.0287861
-0.029335
-0.0296717
-0.0297935
-0.0297095
-0.0294229
-0.0289417
-0.0282732
-0.0274236
-0.0264019
-0.0252113
-0.0238607
-0.0223498
-0.0206853
-0.0188633
-0.016884
-0.0147381
-0.0124085
-0.00986892
-0.00706155
-0.00392425
-0.00034436
0.00373614
0.00835185
0.013268
0.0180389
0.0218909
0.0242699
0.0251458
0.0251634
0.0250172
0.0248671
0.0247713
0.0367912
0.0363173
0.0359322
0.0348272
0.0333648
0.0310285
0.0281082
0.0243911
0.0202541
0.0157296
0.0111997
0.00672
0.00252585
-0.00142378
-0.00503591
-0.00840248
-0.0114867
-0.0143691
-0.0170194
-0.0194896
-0.0217469
-0.0238217
-0.0256827
-0.0273479
-0.0287918
-0.0300265
-0.0310339
-0.0318236
-0.0323855
-0.0327285
-0.0328502
-0.0327591
-0.0324595
-0.0319588
-0.0312663
-0.0303871
-0.0293333
-0.0281067
-0.0267197
-0.0251706
-0.0234699
-0.0216134
-0.0196065
-0.0174429
-0.0151151
-0.0126077
-0.00987811
-0.00688014
-0.00350248
0.000334185
0.00475384
0.0096597
0.0147924
0.0194173
0.0227595
0.0243891
0.0246552
0.0245047
0.0243556
0.0242054
0.0353681
0.0348769
0.0344124
0.0331806
0.0315265
0.0289575
0.0257847
0.0218373
0.0175251
0.0128987
0.00834067
0.00388563
-0.000253418
-0.00414409
-0.00770632
-0.0110426
-0.0141151
-0.0170041
-0.0196735
-0.0221727
-0.024464
-0.0265755
-0.0284731
-0.0301733
-0.0316491
-0.0329111
-0.0339407
-0.0347462
-0.0353178
-0.0356631
-0.0357809
-0.0356783
-0.0353619
-0.0348375
-0.0341176
-0.0332055
-0.0321172
-0.0308525
-0.0294283
-0.0278405
-0.0261042
-0.024213
-0.0221773
-0.0199907
-0.0176532
-0.0151567
-0.0124725
-0.00957201
-0.00635747
-0.00275352
0.00141255
0.00614118
0.0113766
0.0164995
0.0207614
0.0232253
0.0240427
0.0238501
0.0237559
0.023522
0.0337068
0.0332079
0.0326662
0.0313255
0.0295046
0.0267478
0.0233798
0.0192723
0.0148548
0.0101898
0.00564956
0.00124726
-0.0028267
-0.00665999
-0.0101816
-0.0134991
-0.0165719
-0.0194778
-0.0221753
-0.0247106
-0.0270419
-0.0291953
-0.0311341
-0.0328734
-0.0343846
-0.035677
-0.0367313
-0.0375544
-0.038137
-0.0384848
-0.0385984
-0.0384831
-0.0381483
-0.0375976
-0.0368476
-0.0358992
-0.0347734
-0.0334673
-0.0320031
-0.030374
-0.0286002
-0.0266724
-0.0246061
-0.0223929
-0.020039
-0.0175394
-0.0148772
-0.0120387
-0.0089446
-0.00553675
-0.00162853
0.00283875
0.0079719
0.0133259
0.0183065
0.0216341
0.0232055
0.023079
0.0230218
0.0227192
0.0318081
0.03131
0.0306953
0.0292657
0.0273063
0.0244076
0.0208989
0.0166934
0.0122272
0.00757073
0.00307847
-0.00125516
-0.00526107
-0.00904016
-0.012528
-0.0158327
-0.0189107
-0.0218359
-0.0245625
-0.0271332
-0.0295033
-0.0316965
-0.0336745
-0.0354503
-0.0369946
-0.0383146
-0.0393912
-0.0402288
-0.0408196
-0.0411667
-0.0412734
-0.0411421
-0.0407861
-0.0402062
-0.0394237
-0.0384367
-0.0372717
-0.0359225
-0.0344178
-0.0327468
-0.0309364
-0.028973
-0.0268781
-0.0246394
-0.022269
-0.0197615
-0.0171094
-0.0143095
-0.0113009
-0.0080475
-0.00437178
-0.000189772
0.00470764
0.0100736
0.0154867
0.0196469
0.0219953
0.0222147
0.0220974
0.0217899
0.0297928
0.0293068
0.0286276
0.0271333
0.0250668
0.0220732
0.0184754
0.0142267
0.00975791
0.00514477
0.00071918
-0.00353904
-0.00748023
-0.0112123
-0.0146757
-0.0179756
-0.0210661
-0.024016
-0.0267764
-0.029386
-0.0317984
-0.0340343
-0.0360547
-0.0378698
-0.0394501
-0.0407999
-0.0419011
-0.0427549
-0.0433553
-0.0437025
-0.0438028
-0.0436553
-0.0432778
-0.0426675
-0.0418517
-0.0408241
-0.0396186
-0.0382241
-0.0366775
-0.0349626
-0.0331148
-0.0311147
-0.0289916
-0.0267275
-0.0243411
-0.0218237
-0.0191757
-0.0163998
-0.0134506
-0.0103147
-0.00683337
-0.00292602
0.00167304
0.00688282
0.0124611
0.0173078
0.020385
0.0212147
0.020983
0.0207185
0.0276757
0.0272109
0.0264757
0.0249381
0.0227924
0.0197433
0.0160972
0.0118457
0.00740455
0.00285501
-0.00149645
-0.00567891
-0.00956053
-0.0132508
-0.0166945
-0.0199917
-0.0230951
-0.0260677
-0.0288592
-0.031504
-0.0339552
-0.0362298
-0.038289
-0.0401395
-0.0417525
-0.0431288
-0.0442516
-0.0451185
-0.0457262
-0.0460706
-0.0461626
-0.0459965
-0.0455962
-0.0449537
-0.0441037
-0.0430342
-0.041788
-0.0403475
-0.0387593
-0.0370005
-0.0351163
-0.0330802
-0.030931
-0.0286432
-0.0262439
-0.0237182
-0.0210742
-0.0183159
-0.0154106
-0.0123648
-0.00903958
-0.00538037
-0.00108988
0.00384605
0.00938933
0.014674
0.0184307
0.0199601
0.0197112
0.0194666
0.0255868
0.0251546
0.0243745
0.0228161
0.0206188
0.0175509
0.0138921
0.00967114
0.00528021
0.000807479
-0.00346767
-0.00757772
-0.0114072
-0.0150628
-0.0184936
-0.0217927
-0.0249128
-0.0279106
-0.0307354
-0.0334169
-0.0359086
-0.0382235
-0.0403234
-0.042211
-0.0438588
-0.0452632
-0.0464097
-0.0472911
-0.047908
-0.048251
-0.0483362
-0.0481524
-0.0477306
-0.0470563
-0.0461731
-0.0450619
-0.0437756
-0.0422888
-0.0406595
-0.0388561
-0.0369361
-0.0348635
-0.0326893
-0.0303783
-0.0279683
-0.0254356
-0.0227971
-0.0200541
-0.0171843
-0.01421
-0.011009
-0.007566
-0.00356563
0.00102954
0.00640091
0.0118489
0.0162134
0.0183791
0.0183305
0.018021
0.0235324
0.0231407
0.0223247
0.0207621
0.0185332
0.0154718
0.0118229
0.00765101
0.00331916
-0.00107462
-0.00527846
-0.00932248
-0.0131069
-0.0167319
-0.0201519
-0.0234517
-0.0265859
-0.029604
-0.0324573
-0.0351696
-0.0376964
-0.0400456
-0.0421812
-0.0441006
-0.0457789
-0.0472069
-0.0483738
-0.0492663
-0.0498901
-0.0502291
-0.0503065
-0.0501035
-0.0496599
-0.0489532
-0.0480375
-0.0468845
-0.0455595
-0.0440269
-0.0423583
-0.040511
-0.0385572
-0.0364489
-0.0342521
-0.031919
-0.0295016
-0.0269639
-0.0243347
-0.0216075
-0.0187712
-0.0158567
-0.0127578
-0.00949938
-0.00576037
-0.00152806
0.00357938
0.00895846
0.0138012
0.0164837
0.0168444
0.016387
0.0216344
0.0212934
0.0204531
0.0189037
0.0166627
0.0136312
0.0100118
0.00590476
0.00163867
-0.00267559
-0.00681363
-0.0107986
-0.0145456
-0.0181456
-0.0215593
-0.0248623
-0.0280123
-0.0310514
-0.0339336
-0.0366769
-0.0392393
-0.041623
-0.0437951
-0.0457468
-0.0474569
-0.0489095
-0.0500987
-0.0510037
-0.0516368
-0.0519736
-0.0520459
-0.0518256
-0.0513634
-0.0506262
-0.0496812
-0.0484883
-0.0471276
-0.0455506
-0.0438454
-0.0419551
-0.0399698
-0.0378263
-0.035609
-0.0332543
-0.030832
-0.0282902
-0.0256739
-0.0229632
-0.0201616
-0.0172998
-0.0142894
-0.0111874
-0.00768134
-0.00380222
0.000980379
0.00612584
0.0112588
0.0143346
0.0152038
0.0145743
0.0198751
0.0195906
0.0187344
0.0172086
0.0149664
0.0119769
0.00839453
0.00435547
0.000150969
-0.0040913
-0.00817397
-0.0121083
-0.0158247
-0.0194023
-0.0228098
-0.0261124
-0.0292735
-0.0323269
-0.0352314
-0.0379978
-0.0405886
-0.0429993
-0.0452013
-0.0471784
-0.0489151
-0.0503867
-0.0515944
-0.052508
-0.0531482
-0.0534805
-0.0535472
-0.0533088
-0.0528289
-0.0520616
-0.0510893
-0.0498577
-0.0484641
-0.0468443
-0.0451057
-0.043174
-0.0411603
-0.0389827
-0.0367477
-0.0343721
-0.0319478
-0.0294028
-0.0268031
-0.0241098
-0.0213461
-0.0185326
-0.0156041
-0.012635
-0.00933737
-0.00578354
-0.0013609
0.0034489
0.0086603
0.0120081
0.0133611
0.0126032
0.0183619
0.0181422
0.0172821
0.0157928
0.0135622
0.0106279
0.00709206
0.00312626
-0.00101774
-0.00519285
-0.00922787
-0.013119
-0.0168114
-0.020371
-0.0237751
-0.0270787
-0.0302513
-0.0333186
-0.0362449
-0.0390334
-0.0416522
-0.0440888
-0.0463207
-0.0483229
-0.0500866
-0.0515778
-0.0528057
-0.0537292
-0.0543796
-0.0547097
-0.0547748
-0.0545214
-0.0540285
-0.0532345
-0.05224
-0.0509731
-0.0495517
-0.0478922
-0.0461247
-0.044154
-0.0421157
-0.0399053
-0.0376557
-0.0352595
-0.032836
-0.0302875
-0.0277075
-0.0250313
-0.022309
-0.0195407
-0.0166914
-0.0138364
-0.0107276
-0.00746432
-0.00341474
0.00100414
0.00610007
0.00959611
0.0113351
0.0105267
0.0170456
0.0168937
0.0160381
0.0145914
0.0123775
0.00950178
0.00601184
0.00211468
-0.00197846
-0.00609749
-0.0100966
-0.0139531
-0.0176273
-0.02117
-0.0245694
-0.0278689
-0.0310471
-0.03412
-0.0370599
-0.0398611
-0.0424994
-0.0449528
-0.0472067
-0.0492258
-0.0510105
-0.0525147
-0.0537588
-0.0546878
-0.0553463
-0.0556719
-0.0557355
-0.0554666
-0.0549627
-0.0541431
-0.0531296
-0.0518293
-0.0503841
-0.0486871
-0.046895
-0.0448871
-0.0428281
-0.040586
-0.038325
-0.0359081
-0.0334878
-0.0309349
-0.028377
-0.0257165
-0.0230385
-0.0203121
-0.0175413
-0.0147854
-0.0118492
-0.00884062
-0.00515865
-0.00115201
0.00367989
0.0072015
0.00921052
0.00842513
0.0160213
0.0159429
0.0151049
0.0137119
0.0115251
0.00871649
0.00527831
0.00145176
-0.00259277
-0.00666095
-0.0106309
-0.0144592
-0.0181206
-0.0216499
-0.0250469
-0.028343
-0.0315267
-0.0346043
-0.0375569
-0.0403693
-0.043026
-0.0454946
-0.04777
-0.0498051
-0.0516113
-0.0531286
-0.0543907
-0.0553266
-0.0559969
-0.0563208
-0.0563881
-0.0561075
-0.0555988
-0.0547581
-0.0537325
-0.0524034
-0.0509411
-0.0492106
-0.0474
-0.0453579
-0.0432833
-0.041011
-0.0387424
-0.0363045
-0.0338899
-0.0313307
-0.0287967
-0.0261493
-0.0235173
-0.0208289
-0.0181363
-0.0154668
-0.0126897
-0.00990249
-0.00657011
-0.00297339
0.00149695
0.00493201
0.00710463
0.0063903
0.015205
0.0151993
0.0143882
0.0130537
0.010898
0.00815691
0.00476853
0.00100689
-0.00299816
-0.00702578
-0.0109769
-0.0147844
-0.0184377
-0.021954
-0.0253461
-0.0286328
-0.0318151
-0.034888
-0.0378444
-0.0406574
-0.0433233
-0.0457967
-0.0480855
-0.0501274
-0.0519487
-0.053472
-0.054748
-0.0556861
-0.0563666
-0.0566861
-0.056758
-0.0564654
-0.0559546
-0.0550939
-0.0540602
-0.0527042
-0.0512296
-0.0494676
-0.0476433
-0.0455683
-0.0434822
-0.0411799
-0.0389066
-0.0364463
-0.0340389
-0.0314701
-0.0289605
-0.0263214
-0.0237357
-0.0210793
-0.0184637
-0.0158686
-0.0132385
-0.0106413
-0.00763266
-0.00442622
-0.000370769
0.00288483
0.00512775
0.00450508
0.014688
0.0147559
0.0139865
0.0127227
0.0106107
0.00794595
0.00461562
0.000923148
-0.00304079
-0.00702985
-0.0109657
-0.014757
-0.0184061
-0.0219126
-0.0253021
-0.0285805
-0.0317618
-0.0348294
-0.0377892
-0.0406015
-0.043276
-0.0457528
-0.0480547
-0.0501025
-0.0519397
-0.0534691
-0.0547617
-0.0557035
-0.0563986
-0.0567171
-0.0567996
-0.0564994
-0.055994
-0.0551183
-0.0540846
-0.0527067
-0.0512276
-0.0494385
-0.0476074
-0.0455024
-0.0434105
-0.041079
-0.0388048
-0.0363205
-0.0339222
-0.0313398
-0.0288545
-0.0262177
-0.0236772
-0.0210453
-0.0185043
-0.0159716
-0.0134774
-0.0110416
-0.00832798
-0.00548126
-0.00186225
0.00114383
0.00337278
0.00284162
0.0143481
0.0144827
0.0137658
0.0125784
0.0105179
0.00793186
0.00466196
0.00103724
-0.00288935
-0.0068457
-0.0107731
-0.014553
-0.0182015
-0.0216975
-0.0250818
-0.0283453
-0.0315187
-0.0345711
-0.0375252
-0.0403257
-0.0429998
-0.0454694
-0.0477767
-0.0498212
-0.0516685
-0.0531968
-0.0545024
-0.0554429
-0.0561518
-0.0564665
-0.056561
-0.0562524
-0.0557557
-0.0548656
-0.0538364
-0.0524378
-0.0509592
-0.0491437
-0.0473104
-0.0451754
-0.0430812
-0.0407188
-0.0384458
-0.0359337
-0.0335445
-0.0309422
-0.0284793
-0.0258361
-0.0233376
-0.0207198
-0.018249
-0.0157648
-0.0133952
-0.0110928
-0.00864458
-0.00611932
-0.00293613
-0.000225809
0.00191147
0.00145868
0.014285
0.0144806
0.013832
0.0127349
0.0107451
0.00825041
0.00505585
0.00150936
-0.00237045
-0.00628982
-0.0102067
-0.0139769
-0.0176271
-0.0211158
-0.0244978
-0.0277489
-0.0309162
-0.0339543
-0.036904
-0.0396926
-0.0423674
-0.0448294
-0.0471434
-0.0491845
-0.0510443
-0.0525722
-0.0538947
-0.054836
-0.0555641
-0.0558784
-0.0559921
-0.0556796
-0.0551999
-0.0543005
-0.0532844
-0.0518698
-0.0504001
-0.0485619
-0.0467338
-0.0445705
-0.0424798
-0.0400857
-0.0378174
-0.0352735
-0.0328943
-0.0302648
-0.0278226
-0.0251628
-0.0227022
-0.0200861
-0.0176799
-0.0152287
-0.0129729
-0.010777
-0.00856618
-0.00632059
-0.00355903
-0.001169
0.000806076
0.000412179
0.0143324
0.0145747
0.0140053
0.0130058
0.0111023
0.00870692
0.00559844
0.00213714
-0.0016902
-0.00557019
-0.00947703
-0.0132379
-0.0168911
-0.0203706
-0.0237481
-0.0269801
-0.0301353
-0.0331495
-0.0360869
-0.0388531
-0.041521
-0.0439654
-0.0462801
-0.0483091
-0.0501774
-0.0516981
-0.0530356
-0.0539728
-0.0547204
-0.0550314
-0.0551665
-0.0548486
-0.0543896
-0.0534801
-0.0524818
-0.0510507
-0.0495945
-0.0477323
-0.0459136
-0.0437193
-0.0416348
-0.0392042
-0.0369414
-0.0343583
-0.0319877
-0.0293204
-0.0268948
-0.0242047
-0.0217759
-0.0191453
-0.0167959
-0.0143591
-0.0122052
-0.0100877
-0.00808705
-0.0060759
-0.00371124
-0.00164495
0.000108051
-0.000248036
0.014617
0.0148939
0.0144169
0.0135297
0.0117386
0.00946154
0.00646251
0.00310536
-0.000649792
-0.00447696
-0.00836369
-0.0121117
-0.0157675
-0.0192408
-0.0226179
-0.0258355
-0.0289835
-0.0319775
-0.034907
-0.0376534
-0.0403184
-0.0427471
-0.0450666
-0.0470854
-0.0489668
-0.0504824
-0.0518406
-0.0527766
-0.0535506
-0.0538618
-0.0540266
-0.0537075
-0.0532782
-0.052363
-0.0513916
-0.0499476
-0.0485137
-0.0466297
-0.0448277
-0.0426022
-0.0405293
-0.038059
-0.0358045
-0.0331752
-0.0308127
-0.0280966
-0.025684
-0.0229486
-0.0205453
-0.0178821
-0.0155813
-0.0131381
-0.0110746
-0.00900735
-0.00719215
-0.00536977
-0.00337149
-0.0016147
-0.0001293
-0.000466103
0.0149188
0.015212
0.0148336
0.0140665
0.0124103
0.0102677
0.00739857
0.0041638
0.000498886
-0.00326058
-0.00711743
-0.010845
-0.0145005
-0.0179631
-0.0213379
-0.0245348
-0.0276717
-0.030637
-0.0335538
-0.0362712
-0.0389289
-0.0413334
-0.0436549
-0.0456562
-0.0475496
-0.0490544
-0.050434
-0.0513642
-0.0521671
-0.0524751
-0.0526731
-0.0523501
-0.0519549
-0.0510314
-0.0500917
-0.0486317
-0.0472244
-0.0453144
-0.0435325
-0.0412697
-0.0392103
-0.0366914
-0.0344449
-0.0317573
-0.0293999
-0.0266192
-0.0242139
-0.0214139
-0.0190279
-0.01631
-0.014048
-0.011574
-0.00958844
-0.00754061
-0.00588668
-0.00420438
-0.00253496
-0.00105471
0.000137429
-0.000193054
0.0154204
0.0157181
0.0154398
0.0148044
0.0133102
0.0113274
0.00861812
0.00553341
0.00198887
-0.00167808
-0.00548441
-0.00917974
-0.0128296
-0.0162825
-0.0196602
-0.0228438
-0.0259787
-0.0289233
-0.0318365
-0.0345316
-0.0371907
-0.0395764
-0.0419079
-0.0438963
-0.0458099
-0.0473078
-0.0487173
-0.0496458
-0.0504862
-0.0507951
-0.0510356
-0.0507125
-0.0503611
-0.0494325
-0.0485342
-0.0470603
-0.0456886
-0.0437527
-0.0419983
-0.0396955
-0.0376548
-0.0350809
-0.0328447
-0.0300879
-0.0277345
-0.0248734
-0.0224707
-0.0195856
-0.0172094
-0.0144125
-0.0121803
-0.00964878
-0.00773019
-0.00567019
-0.00415701
-0.00256692
-0.00118767
6.23115e-05
0.000957173
0.000628681
0.0158322
0.0161205
0.0159359
0.0154376
0.0141267
0.0123285
0.00980761
0.00690386
0.00351096
-3.20614e-05
-0.00376378
-0.00740574
-0.0110388
-0.0144713
-0.017849
-0.0210127
-0.0241451
-0.0270628
-0.0299724
-0.0326389
-0.0352999
-0.0376609
-0.0400045
-0.0419749
-0.043912
-0.0453988
-0.0468425
-0.0477652
-0.0486485
-0.0489542
-0.0492429
-0.0489154
-0.0486136
-0.047675
-0.0468234
-0.0453293
-0.0439978
-0.0420279
-0.0403045
-0.0379511
-0.0359306
-0.0332879
-0.0310611
-0.0282175
-0.0258646
-0.0229014
-0.0204953
-0.0174996
-0.0151254
-0.0122212
-0.0100101
-0.00739036
-0.00552903
-0.00342128
-0.00202977
-0.000479405
0.000652935
0.00173605
0.002356
0.00203606
0.0164332
0.0167077
0.016601
0.016241
0.0151281
0.0135409
0.0112392
0.00855013
0.00534628
0.00196345
-0.00166099
-0.00522579
-0.00882807
-0.012236
-0.015618
-0.0187707
-0.0219144
-0.0248183
-0.0277401
-0.0303902
-0.0330682
-0.0354147
-0.0377839
-0.0397445
-0.0417177
-0.0432
-0.0446897
-0.0456121
-0.0465496
-0.0468565
-0.0472044
-0.0468759
-0.0466344
-0.0456879
-0.0448932
-0.0433795
-0.0420975
-0.0400917
-0.0384069
-0.0359976
-0.0340027
-0.0312816
-0.0290664
-0.0261211
-0.0237674
-0.0206815
-0.0182674
-0.015135
-0.012756
-0.00971388
-0.00751666
-0.00477549
-0.00296462
-0.000772361
0.000509896
0.00207122
0.00299321
0.00397917
0.00436616
0.00407357
0.0168336
0.0170873
0.0170425
0.0168174
0.0159131
0.0145649
0.0125155
0.0100839
0.0071125
0.00394008
0.000464689
-0.00298173
-0.00652818
-0.00988825
-0.0132672
-0.0163991
-0.0195568
-0.022443
-0.0253839
-0.0280153
-0.0307185
-0.0330485
-0.0354524
-0.037401
-0.0394196
-0.0408947
-0.0424399
-0.0433583
-0.0443592
-0.0446625
-0.0450784
-0.0447426
-0.0445694
-0.0436069
-0.0428764
-0.041333
-0.0401064
-0.038052
-0.0364104
-0.0339294
-0.0319625
-0.0291434
-0.02694
-0.0238692
-0.0215127
-0.0182761
-0.0158505
-0.0125496
-0.0101623
-0.00694777
-0.00476239
-0.00186281
-0.000101661
0.00221723
0.00339736
0.00502856
0.00577636
0.00675198
0.00697026
0.00673811
0.0174594
0.0176942
0.0176879
0.0175795
0.0168744
0.0157776
0.0140029
0.0118617
0.00916127
0.00624302
0.00295941
-0.000331147
-0.00379586
-0.00709338
-0.0104686
-0.0135865
-0.0167751
-0.019661
-0.0226442
-0.0252759
-0.0280275
-0.0303573
-0.0328165
-0.034766
-0.0368482
-0.0383259
-0.0399426
-0.0408643
-0.0419429
-0.0422478
-0.0427447
-0.0424049
-0.0423121
-0.0413352
-0.0406799
-0.0391059
-0.0379449
-0.0358383
-0.0342482
-0.0316879
-0.0297552
-0.0268257
-0.0246374
-0.0214227
-0.0190636
-0.0156513
-0.0132118
-0.00971111
-0.00731199
-0.00388796
-0.00171271
0.00138663
0.00309566
0.00558657
0.00666135
0.00841933
0.00900948
0.0100579
0.0101707
0.0100437
0.0177658
0.017976
0.0179975
0.0179906
0.017482
0.0166568
0.01519
0.0133911
0.0110151
0.0084198
0.00538772
0.00231923
-0.00101939
-0.00421041
-0.00756409
-0.0106485
-0.0138715
-0.0167529
-0.019793
-0.0224271
-0.0252453
-0.0275779
-0.0301112
-0.0320631
-0.0342265
-0.035706
-0.0374104
-0.0383321
-0.0395031
-0.0398033
-0.0403944
-0.0400414
-0.0400409
-0.0390373
-0.038468
-0.0368481
-0.035762
-0.0335844
-0.0320538
-0.0293918
-0.0274996
-0.024433
-0.0222646
-0.0188753
-0.0165173
-0.0128947
-0.0104458
-0.00670734
-0.00430386
-0.000629704
0.00152268
0.00486604
0.0065048
0.0092204
0.0101736
0.0121313
0.0125735
0.0138028
0.013881
0.0139214
0.018392
0.0185827
0.0186125
0.0186735
0.0183222
0.0177502
0.01659
0.0151536
0.0131319
0.0109023
0.00816681
0.00536774
0.00219225
-0.000863582
-0.00418534
-0.00723497
-0.0105075
-0.013402
-0.0165278
-0.0191883
-0.0221049
-0.0244631
-0.0270994
-0.0290724
-0.0313418
-0.0328373
-0.0346502
-0.0355819
-0.036863
-0.0371654
-0.037866
-0.037504
-0.0376092
-0.0365807
-0.0361093
-0.0344429
-0.0334423
-0.0311899
-0.0297278
-0.0269565
-0.0251119
-0.0218957