/*--------------------------------*- C++ -*----------------------------------*\
| =========                 |                                                 |
| \\      /  F ield         | OpenFOAM: The Open Source CFD Toolbox           |
|  \\    /   O peration     | Version:  2406                                  |
|   \\  /    A nd           | Website:  www.openfoam.com                      |
|    \\/     M anipulation  |                                                 |
\*---------------------------------------------------------------------------*/
FoamFile
{
    version     2.0;
    format      ascii;
    arch        "LSB;label=32;scalar=64";
    class       volScalarField;
    location    "0.3";
    object      error_velocity_mag;
}
// * * * * * * * * * * * * * * * * * * * * * * * * * * * * * * * * * * * * * //

dimensions      [0 2 -2 0 0 0 0];

internalField   nonuniform List<scalar> 
16384
(
2.4655160222e-05
5.48621405411e-05
8.78441208703e-05
0.000120352567967
0.000151652624131
0.000181331679215
0.000209075007218
0.000234617532457
0.000257729804209
0.000278213326881
0.00029589898524
0.000310646619337
0.000322345007804
0.000330911954707
0.000336294323122
0.000338467956195
0.000337437443147
0.000333235704835
0.000325923414639
0.000315588259526
0.000302344049618
0.00028632973599
0.000267708398328
0.000246666315821
0.00022341236697
0.000198178276489
0.000171220907786
0.000142829885183
0.000113350900855
8.32654508025e-05
5.35482320047e-05
2.82380132651e-05
2.82380146667e-05
5.35482347137e-05
8.32654530623e-05
0.000113350903097
0.000142829887998
0.000171220911149
0.000198178279193
0.000223412369483
0.00024666631883
0.000267708402654
0.000286329740556
0.000302344053627
0.000315588264811
0.000325923420085
0.000333235709346
0.000337437449257
0.000338467963366
0.000336294330324
0.000330911962828
0.000322345016139
0.000310646627067
0.000295898993557
0.000278213336579
0.000257729815887
0.000234617545229
0.00020907502084
0.000181331694761
0.000151652641263
0.000120352586763
8.78441415789e-05
5.48621650689e-05
2.46551568e-05
2.46551447527e-05
5.47331981583e-05
8.76317274296e-05
0.000120115403867
0.000151429495541
0.000181162284684
0.000208998535188
0.00023467167389
0.000257950247611
0.000278633458738
0.000296549779599
0.000311556705862
0.000323540922631
0.000332418580509
0.000338135529559
0.000340667464946
0.000340019949618
0.000336228336269
0.000329357615029
0.000319502279368
0.0003067863273
0.000291363617087
0.000273418973126
0.000253170748959
0.000230876208813
0.000206842546061
0.000181449664542
0.00015519911425
0.000128825248238
0.00010356239553
8.17829323565e-05
6.80640009306e-05
6.8063999172e-05
8.17829299943e-05
0.000103562393001
0.000128825245475
0.000155199111965
0.00018144966214
0.000206842543138
0.00023087620544
0.000253170745753
0.000273418969636
0.000291363613286
0.000306786324391
0.000319502276955
0.000329357610925
0.000336228331266
0.000340019943776
0.000340667455084
0.000338135518869
0.000332418570926
0.000323540913752
0.000311556696396
0.000296549770211
0.000278633448042
0.000257950236269
0.000234671661219
0.000208998520929
0.00018116226927
0.00015142947883
0.000120115385645
8.76317080922e-05
5.47331810509e-05
2.46551603092e-05
5.4733181098e-05
7.21166295539e-05
9.87333007769e-05
0.000128034306749
0.000157542032944
0.000186126519123
0.000213155314738
0.000238204179867
0.000260956510884
0.000281162789276
0.000298622593737
0.0003131759688
0.000324699007372
0.000333101397144
0.000338324922544
0.0003403423805
0.000339156675619
0.000334799933601
0.00032733256569
0.000316842254073
0.000303442847518
0.000287273174844
0.000268495835178
0.00024729602909
0.000223880605553
0.000198477681781
0.000171337711523
0.000142738344049
0.000113000578247
8.25463167554e-05
5.21682467991e-05
2.5262115102e-05
2.52621167417e-05
5.21682491677e-05
8.25463188832e-05
0.000113000580562
0.000142738347028
0.000171337714455
0.000198477684464
0.000223880608478
0.000247296032637
0.000268495837769
0.000287273177334
0.00030344285143
0.000316842259594
0.000327332571238
0.000334799939404
0.000339156682063
0.000340342387377
0.000338324930198
0.000333101405491
0.000324699015525
0.000313175977987
0.000298622603673
0.000281162800165
0.000260956522014
0.000238204192267
0.000213155329136
0.000186126534621
0.00015754205023
0.000128034325442
9.87333202212e-05
7.21166562208e-05
5.47331597192e-05
5.48620970291e-05
7.21166347982e-05
9.84851647243e-05
0.000127736104031
0.000157296956867
0.000186034394676
0.000213310286471
0.000238695371476
0.000261868532182
0.000282575990578
0.000300613310276
0.000315816926588
0.000328059966436
0.000337250130985
0.000343328595717
0.000346269441966
0.000346079388657
0.000342797729608
0.000336496482699
0.000327280879653
0.000315290385235
0.000300700640537
0.000283726981183
0.000264630690755
0.000243730043445
0.000221419892484
0.000198206785291
0.000174772283861
0.000152085334132
0.000131584663303
0.00011538666647
0.000106189873849
0.000106189874026
0.000115386666173
0.000131584662146
0.000152085331504
0.000174772281015
0.000198206782313
0.00022141988934
0.000243730040327
0.00026463068687
0.000283726976464
0.00030070063513
0.000315290379718
0.000327280874289
0.000336496478633
0.000342797727153
0.000346079387719
0.000346269435684
0.00034332858545
0.000337250122397
0.000328059958685
0.000315816917685
0.000300613300998
0.000282575979425
0.000261868520586
0.0002386953581
0.000213310271799
0.000186034379049
0.000157296940468
0.000127736086637
9.84851477288e-05
7.21166298527e-05
5.48621408709e-05
8.7631708144e-05
9.84851479988e-05
0.000118640324072
0.000143411108997
0.000169931668718
0.000196512258244
0.000222164002018
0.000246246199034
0.000268309728165
0.000288020998346
0.000305124348127
0.000319422432468
0.000330765494924
0.000339045202624
0.000344190898301
0.000346167149748
0.0003449720044
0.000340635646935
0.000333219284353
0.000322814216398
0.000309541123608
0.000293549711746
0.000275018964349
0.000254158589453
0.000231212718264
0.000206468191832
0.000180272612796
0.000153074956009
0.00012552310386
9.87194858202e-05
7.49350490723e-05
5.92675020768e-05
5.92675023465e-05
7.49350508422e-05
9.87194880077e-05
0.000125523105889
0.000153074958119
0.000180272615071
0.000206468194718
0.000231212722119
0.000254158592123
0.000275018967184
0.000293549714323
0.000309541127418
0.000322814220099
0.000333219289471
0.000340635652809
0.000344972009748
0.000346167154692
0.000344190903891
0.000339045209081
0.000330765502993
0.000319422442787
0.000305124358612
0.000288021008375
0.000268309739054
0.00024624621141
0.000222164015785
0.000196512274008
0.000169931685331
0.000143411128228
0.00011864034186
9.84851775468e-05
8.76316722542e-05
8.78440499363e-05
9.87332933126e-05
0.000118640337792
0.000143444399367
0.00017013041594
0.00019701092385
0.000223087032445
0.000247710178168
0.000270424977044
0.000290892910147
0.000308854293537
0.000324108605435
0.000336503900496
0.000345930953644
0.000352319967754
0.000355638739477
0.00035589174896
0.000353119848143
0.000347400532759
0.000338848849474
0.000327619170247
0.000313908269724
0.000297960431028
0.000280075772682
0.000260623684155
0.000240064339552
0.000218982535988
0.000198138731399
0.000178538141997
0.000161498648047
0.000148641165863
0.00014164171532
0.00014164171451
0.000148641164655
0.000161498646697
0.000178538140532
0.000198138729395
0.000218982532894
0.000240064336709
0.000260623681144
0.000280075769295
0.000297960427584
0.000313908265946
0.000327619166408
0.000338848843938
0.000347400526457
0.000353119841963
0.000355891747246
0.000355638740927
0.000352319962599
0.000345930946884
0.000336503893862
0.000324108596382
0.000308854283655
0.000290892898656
0.000270424964541
0.000247710164874
0.000223087017292
0.000197010908976
0.000170130399901
0.000143444382925
0.000118640324848
9.87333008799e-05
8.78441211265e-05
0.000120115385668
0.000127736086527
0.000143444382994
0.000164183108154
0.000187576862188
0.000211825248174
0.000235752064942
0.000258553359491
0.000279661046473
0.000298657643486
0.000315228588091
0.00032913485209
0.000340196940193
0.000348285255283
0.000353314122583
0.000355237933192
0.00035404858618
0.000349773740735
0.00034247565269
0.000332250537846
0.000319228546176
0.000303574607683
0.000285490689943
0.000265220469204
0.000243058326922
0.000219366343101
0.000194606690252
0.000169404585799
0.000144672521364
0.000121849025764
0.000103280624464
9.24052105059e-05
9.24052107481e-05
0.000103280625072
0.00012184902742
0.000144672523162
0.000169404588448
0.000194606692148
0.000219366345699
0.000243058329214
0.000265220472964
0.000285490693903
0.00030357461301
0.000319228550775
0.000332250541776
0.000342475656593
0.000349773745944
0.000354048592457
0.000355237938633
0.000353314129137
0.000348285262581
0.000340196946746
0.000329134860099
0.000315228597066
0.000298657652843
0.000279661057879
0.000258553371842
0.000235752077832
0.000211825263014
0.000187576878526
0.000164183126508
0.000143444396845
0.000127736122789
0.00012011534149
0.00012035247029
0.000128034286608
0.000143411116457
0.00016418312376
0.000187784992649
0.000212426928276
0.000236914898051
0.000260431262655
0.000282396021676
0.00030238259513
0.00032006932555
0.00033521185759
0.000347627151313
0.000357184101616
0.000363797991266
0.000367427235741
0.000368071630223
0.000365771585119
0.000360608286673
0.000352704728588
0.000342227795676
0.000329391851723
0.000314464393473
0.000297774739915
0.000279727011555
0.000260818945367
0.000241667748563
0.000223041952693
0.000205891062527
0.000191348260988
0.000180655860338
0.000174955113492
0.000174955112787
0.000180655859202
0.000191348259371
0.00020589106129
0.000223041949996
0.000241667746533
0.000260818942513
0.000279727008652
0.000297774736659
0.000314464390136
0.000329391848546
0.000342227792405
0.000352704723526
0.00036060828045
0.00036577157358
0.000368071615019
0.000367427232016
0.000363797990893
0.000357184095774
0.000347627142874
0.00033521184892
0.000320069315938
0.000302382582899
0.000282396009758
0.00026043124993
0.000236914884053
0.000212426913671
0.00018778497737
0.000164183108192
0.000143411108613
0.000128034306989
0.000120352567919
0.000151429478596
0.000157296940279
0.000170130399623
0.000187784978135
0.000208464323094
0.000230491478428
0.000252663986517
0.000274097388741
0.0002941448541
0.000312323445204
0.000328267883595
0.000341700895837
0.000352414583437
0.000360258603566
0.000365132559669
0.000366981026832
0.000365790301354
0.000361586306787
0.000354433424995
0.000344434158054
0.000331729776258
0.000316502294491
0.000298978452219
0.000279436941751
0.000258220960726
0.000235759792122
0.000212605624361
0.00018949547413
0.000167450092444
0.000147908370343
0.000132821709351
0.000124440283254
0.000124440283424
0.000132821709726
0.000147908371625
0.000167450093919
0.000189495476346
0.000212605626905
0.000235759793873
0.00025822096321
0.000279436943886
0.000298978455443
0.000316502297479
0.000331729779968
0.000344434161698
0.000354433429342
0.000361586311561
0.000365790306526
0.000366981033185
0.000365132565446
0.000360258610069
0.000352414589783
0.000341700902785
0.000328267892787
0.000312323454841
0.000294144864775
0.000274097401881
0.000252663999806
0.000230491493005
0.00020846433891
0.00018778499582
0.000170130410816
0.000157296983972
0.000151429431252
0.000151652501816
0.000157541997834
0.000169931671628
0.000187576875507
0.000208464338513
0.000230940407607
0.000253776218933
0.000276068307409
0.000297150933778
0.000316526525749
0.000333818249745
0.00034873996551
0.000361077467152
0.000370676779269
0.000377436888179
0.000381305296094
0.000382275415956
0.000380385394322
0.000375717995323
0.000368401489218
0.000358611793725
0.000346576033744
0.000332577999225
0.000316966078812
0.000300164263139
0.000282686539856
0.000265153835242
0.000248309754941
0.000233025198148
0.0002202722962
0.000211040056714
0.000206174517499
0.000206174516769
0.000211040056535
0.000220272295566
0.000233025196893
0.00024830975297
0.000265153833357
0.000282686536494
0.000300164260257
0.000316966075075
0.000332577995742
0.000346576029143
0.000358611788148
0.000368401483518
0.000375717989481
0.000380385389753
0.000382275401776
0.000381305278167
0.000377436881454
0.000370676773284
0.000361077457647
0.000348739956303
0.000333818239695
0.000316526514204
0.00029715092213
0.000276068293178
0.000253776204005
0.000230940392412
0.000208464323287
0.000187576862723
0.000169931668539
0.000157542033305
0.000151652624465
0.000181162269073
0.000186034378984
0.000197010908941
0.000212426913508
0.00023094039254
0.000251052066736
0.000271620616457
0.000291745563708
0.00031074293146
0.000328088802815
0.000343381342021
0.000356313130329
0.000366652539941
0.000374231219164
0.000378935733492
0.000380701978574
0.000379511501282
0.000375389222371
0.000368402275909
0.000358659940996
0.000346314795785
0.000331565484817
0.000314661794302
0.000295913189726
0.000275702611592
0.000254508233188
0.000232936744727
0.000211771361299
0.000192032119383
0.000175025042778
0.0001623066396
0.000155432187658
0.000155432187776
0.000162306639945
0.000175025043138
0.000192032120581
0.00021177136289
0.000232936746068
0.000254508234697
0.000275702613768
0.000295913191531
0.00031466179667
0.000331565486501
0.000346314799314
0.00035865994529
0.000368402279721
0.000375389226129
0.000379511506314
0.000380701983129
0.000378935739791
0.000374231225417
0.000366652547181
0.000356313138662
0.000343381350788
0.000328088812385
0.000310742942765
0.000291745575979
0.000271620629996
0.000251052081692
0.00023094040742
0.000212426932498
0.000197010916213
0.00018603443022
0.000181162222928
0.000181331535198
0.000186126467447
0.000196512253837
0.000211825259468
0.000230491493752
0.000251052082571
0.000272330651906
0.000293404384026
0.000313563166548
0.000332262453419
0.000349083760488
0.000363706614899
0.000375889600264
0.000385457793251
0.000392294585107
0.000396336434691
0.000397569785258
0.000396029368832
0.000391797794859
0.00038500634269
0.000375836812446
0.000364524758988
0.000351364304007
0.000336714751267
0.000321009090078
0.000304763854426
0.000288588464645
0.00027318952487
0.00025936125457
0.000247948496025
0.000239768190725
0.0002354876481
0.000235487648306
0.000239768190296
0.000247948495971
0.000259361253986
0.000273189523703
0.000288588463539
0.00030476385191
0.000321009088124
0.000336714748343
0.000351364301059
0.000364524756421
0.000375836808556
0.00038500633797
0.000391797790807
0.000396029365671
0.000397569796804
0.000396336438973
0.000392294572836
0.000385457787189
0.000375889591313
0.000363706605877
0.000349083749969
0.000332262441966
0.000313563154031
0.000293404369967
0.000272330636656
0.000251052066859
0.000230491478761
0.000211825248377
0.000196512258877
0.000186126519336
0.000181331679398
0.000208998520575
0.00021331027192
0.000223087017495
0.000236914884024
0.000253776203844
0.000272330636128
0.000291528595347
0.000310489254745
0.000328521674903
0.000345082213962
0.000359746891791
0.000372187634851
0.000382155292872
0.000389467573105
0.000394000659842
0.000395683472562
0.000394493863265
0.00039045627458
0.000383640658469
0.000374162593359
0.000362184753845
0.000347920093012
0.00033163733567
0.000313669704092
0.000294428120235
0.000274420387511
0.00025427738472
0.000234784886755
0.000216912209632
0.000201812193404
0.000190742470903
0.000184852144993
0.000184852145086
0.000190742472091
0.000201812195599
0.00021691221194
0.000234784889249
0.000254277386642
0.000274420390271
0.000294428122998
0.000313669707322
0.000331637339999
0.000347920096152
0.000362184758017
0.000374162597942
0.000383640663563
0.00039045627938
0.000394493868102
0.000395683478487
0.000394000666312
0.000389467580631
0.000382155300239
0.000372187642633
0.000359746900518
0.000345082222406
0.000328521685295
0.000310489265896
0.000291528607936
0.000272330651577
0.000253776218751
0.000236914903284
0.000223087020644
0.000213310330937
0.000208998479987
0.000209074845257
0.000213155246839
0.000222163988319
0.000235752073065
0.00025266400261
0.000271620632121
0.00029152861002
0.000311483792056
0.000330761905026
0.000348792236357
0.000365128131284
0.000379423212701
0.000391413962095
0.000400907484849
0.0004077731251
0.000411936985692
0.000413378323019
0.000412127715125
0.000408266465241
0.000401926928935
0.000393294164243
0.000382608647577
0.000370170241564
0.000356343371334
0.000341563097424
0.000326341107333
0.000311269314888
0.000297016725907
0.000284312379738
0.000273905360953
0.000266495003042
0.000262635156747
0.00026263515489
0.000266495001461
0.000273905359562
0.000284312377547
0.00029701672303
0.000311269313125
0.000326341103052
0.000341563094546
0.000356343367072
0.000370170236955
0.000382608643726
0.000393294159449
0.000401926923544
0.000408266458907
0.000412127703704
0.000413378287763
0.00041193696262
0.000407773123341
0.000400907475398
0.000391413952691
0.000379423202949
0.000365128121446
0.000348792224632
0.00033076189243
0.000311483778172
0.000291528595412
0.000271620616354
0.00025266398672
0.000235752063216
0.000222164001909
0.000213155315051
0.000209075006933
0.000234671660741
0.00023869535771
0.000247710165034
0.000260431249544
0.000276068293824
0.000293404369813
0.000311483778224
0.000329459974193
0.000346652863222
0.000362513941791
0.000376608581151
0.000388596404708
0.000398216695715
0.000405277377308
0.000409647102023
0.000411249689539
0.000410060395496
0.000406103637452
0.000399451996872
0.00039022646293
0.0003785980468
0.000364791062885
0.000349088549655
0.000331840434802
0.000313475181214
0.000294515313657
0.000275596190956
0.000257484258016
0.000241084492994
0.000227415935927
0.000217524400509
0.000212311423042
0.000212311423059
0.000217524400605
0.000227415936341
0.000241084494549
0.000257484259451
0.000275596192905
0.000294515315139
0.000313475183172
0.000331840437999
0.000349088552169
0.000364791066233
0.000378598048604
0.000390226465756
0.000399452000794
0.000406103641617
0.000410060399981
0.000411249694143
0.000409647107676
0.000405277383209
0.000398216701588
0.00038859641191
0.000376608588619
0.000362513951063
0.000346652873293
0.000329459984024
0.000311483790198
0.000293404383351
0.000276068306958
0.000260431270209
0.000247710164891
0.000238695422999
0.000234671627464
0.000234617357274
0.000238204096403
0.000246246174742
0.000258553363721
0.000274097403413
0.000291745580129
0.000310489270315
0.000329459987232
0.000347937787902
0.000365341039605
0.000381206254993
0.000395169141927
0.000406949544686
0.000416340221288
0.000423198817773
0.000427442273871
0.00042904333272
0.000428028416036
0.000424476671943
0.000418520303383
0.000410345746233
0.000400195859323
0.000388373025686
0.000375242972968
0.000361238733522
0.000346863546469
0.000332690332452
0.000319353816023
0.000307529693126
0.00029789482702
0.000291065495404
0.000287519377246
0.00028751937732
0.000291065495655
0.000297894826348
0.000307529692321
0.000319353814027
0.000332690330864
0.000346863543825
0.000361238731315
0.000375242969799
0.000388373022591
0.000400195855241
0.000410345741629
0.000418520297776
0.000424476669181
0.000428028421713
0.0004290433561
0.000427442275675
0.000423198799339
0.000416340216139
0.000406949534993
0.000395169130638
0.000381206244658
0.000365341027152
0.00034793777399
0.000329459972941
0.000310489254726
0.00029174556383
0.000274097389823
0.000258553359316
0.000246246199203
0.000238204179803
0.000234617533344
0.00025795023587
0.000261868520053
0.000270424965105
0.0002823960095
0.000297150922048
0.000313563154311
0.000330761891955
0.00034793777253
0.000364430463619
0.000379695662604
0.000393296194233
0.000404885829101
0.000414197209262
0.000421032115173
0.000425254259133
0.000426784109344
0.000425595348191
0.000421712761315
0.000415211313662
0.000406216473982
0.000394905854782
0.000381512381774
0.000366329342383
0.000349717650606
0.000332115575786
0.000314050629703
0.000296151939619
0.000279158479992
0.00026391347094
0.000251328800856
0.000242300953456
0.000237572910336
0.00023757291042
0.000242300953743
0.000251328801424
0.000263913471839
0.000279158480835
0.000296151940242
0.000314050631625
0.000332115577584
0.00034971765175
0.000366329344234
0.000381512383984
0.00039490585754
0.000406216477348
0.0004152113169
0.000421712765386
0.000425595352835
0.000426784113418
0.000425254266359
0.000421032121761
0.00041419721562
0.00040488583702
0.000393296202216
0.000379695672105
0.000364430473929
0.00034793778687
0.000330761904752
0.000313563168238
0.000297150934259
0.000282396032213
0.000270424960142
0.000261868589731
0.000257950210388
0.000257729619119
0.000260956414344
0.000268309693632
0.000279661044427
0.000294144866421
0.000310742948507
0.000328521690595
0.000346652879682
0.000364430477471
0.000381271657859
0.000396704302933
0.000410352538464
0.000421924218114
0.000431201023236
0.000438031029639
0.000442323472359
0.000444045154942
0.0004432182951
0.00043991961836
0.000434280267092
0.000426486717166
0.000416782463467
0.000405470341287
0.000392915162389
0.000379545953465
0.000365856501278
0.000352401933544
0.000339787874825
0.000328647811068
0.000319604577855
0.000313215121641
0.000309904594016
0.000309904593947
0.000313215121431
0.000319604577439
0.000328647810351
0.000339787873646
0.00035240193279
0.000365856500287
0.000379545951269
0.000392915161674
0.000405470339601
0.000416782460332
0.000426486713721
0.000434280263714
0.000439919611692
0.00044321827998
0.000444045132713
0.000442323471317
0.000438031028126
0.000431201012851
0.000421924209777
0.000410352528875
0.000396704292265
0.000381271645267
0.00036443046382
0.000346652863795
0.000328521674984
0.000310742932328
0.000294144854099
0.000279661045884
0.000268309727021
0.000260956510955
0.000257729804823
0.000278633448784
0.000282575979647
0.00029089289888
0.000302382582781
0.00031652651444
0.000332262440958
0.000348792224535
0.000365341027743
0.000381271645418
0.00039604884488
0.000409238105515
0.000420491899871
0.000429539982207
0.000436180903358
0.000440275596705
0.000441742655883
0.000440555091235
0.000436738368934
0.000430369608937
0.000421577937461
0.000410546070366
0.000397513280015
0.000382779936163
0.00036671375897
0.000349757691263
0.000332438596691
0.000315374600621
0.000299276334084
0.000284933579187
0.000273175221252
0.000264791437969
0.000260419403084
0.00026041940324
0.000264791438352
0.000273175222797
0.000284933580872
0.000299276336236
0.000315374602563
0.000332438599172
0.000349757695141
0.000366713762887
0.000382779939546
0.000397513283636
0.00041054607403
0.000421577941213
0.000430369614062
0.000436738374706
0.000440555095864
0.000441742660641
0.000440275602831
0.000436180910444
0.000429539988718
0.000420491907355
0.000409238113564
0.000396048853648
0.000381271655286
0.000365341038184
0.000348792235685
0.000332262454694
0.000316526526723
0.000302382605831
0.000290892890798
0.000282576053956
0.00027863343073
0.000278213133535
0.000281162683775
0.000288020954153
0.000298657633368
0.000312323455551
0.000328088817703
0.000345082229921
0.00036251395658
0.00037969567622
0.000396048857426
0.000411098190337
0.000424460878165
0.000435836487818
0.000444998408914
0.000451787199526
0.000456105667324
0.000457915498787
0.000457235148267
0.000454138713227
0.000448755812775
0.000441272180251
0.000431930903088
0.00042103407577
0.000408944463997
0.000396086394796
0.000382944542697
0.000370058489444
0.000358010036696
0.000347399766833
0.000338810077254
0.000332754952521
0.000329622464895
0.000329622463708
0.000332754951921
0.000338810075285
0.000347399764507
0.000358010033807
0.00037005848635
0.000382944538648
0.000396086390855
0.000408944460423
0.000421034071648
0.000431930898677
0.000441272175941
0.00044875580822
0.000454138708616
0.000457235143222
0.000457915484935
0.000456105652477
0.000451787196837
0.000444998399105
0.000435836478162
0.000424460868184
0.000411098178254
0.000396048844228
0.000379695662644
0.00036251394129
0.000345082213247
0.000328088802257
0.000312323445844
0.000298657643344
0.000288020998346
0.000281162789604
0.00027821332585
0.000296549770985
0.000300613300713
0.000308854283058
0.000320069315981
0.000333818239652
0.000349083750058
0.00036512812171
0.000381206245273
0.000396704291432
0.000411098179112
0.00042395908532
0.00043494117757
0.00044377399016
0.000450255025233
0.000454244108111
0.000455659144147
0.0004544731737
0.000450712597152
0.000444456475339
0.000435836906611
0.000425040522631
0.000412311198712
0.000397954080453
0.000382340884866
0.000365916130241
0.000349203250514
0.000332808172592
0.00031741581079
0.000303772182766
0.000292643025753
0.000284742214465
0.000280634317286
0.000280634318427
0.000284742215912
0.000292643026371
0.000303772184429
0.000317415812444
0.000332808173748
0.00034920325229
0.000365916132036
0.000382340886195
0.000397954083536
0.000412311201575
0.000425040524329
0.000435836909133
0.000444456478006
0.000450712600657
0.000454473177404
0.000455659147905
0.00045424411312
0.000450255030249
0.00044377399558
0.000434941184345
0.000423959093401
0.000411098186514
0.000396704300899
0.000381206255631
0.000365128132121
0.000349083764213
0.000333818250575
0.000320069338693
0.0003088542734
0.000300613379598
0.000296549759223
0.000295898786607
0.000298622481196
0.000305124296589
0.000315228569287
0.000328267891355
0.00034338135636
0.000359746908847
0.000376608597302
0.000393296207663
0.000409238118502
0.00042395909661
0.000437072605947
0.000448272655309
0.000457326546467
0.0004640689575
0.000468397477807
0.000470269418595
0.000469699754383
0.000466760063887
0.000461578208533
0.000454338723124
0.000445283702567
0.000434713921744
0.000422989730046
0.000410530910982
0.000397814193273
0.000385366401959
0.000373750622736
0.000363542465733
0.000355294495695
0.000349489748407
0.000346490054322
0.00034649005403
0.000349489747508
0.000355294494147
0.000363542463569
0.000373750621597
0.000385366400171
0.000397814190659
0.000410530908992
0.000422989725823
0.000434713918009
0.000445283698153
0.000454338717659
0.000461578203033
0.000466760060841
0.000469699754079
0.000470269422924
0.000468397470408
0.000464068944019
0.000457326538207
0.000448272644592
0.000437072596635
0.00042395908543
0.000409238106188
0.00039329619475
0.000376608580636
0.000359746892162
0.000343381341086
0.000328267883535
0.000315228586059
0.000305124350804
0.000298622594371
0.000295898982952
0.000311556696589
0.000315816918722
0.000324108596567
0.000335211848075
0.00034873995513
0.000363706605546
0.000379423203128
0.000395169131592
0.000410352528032
0.000424460868114
0.000437072596764
0.000447845385717
0.000456510343106
0.000462865465239
0.000466770707158
0.000468144165787
0.000466959441841
0.000463244044182
0.000457078794486
0.000448598214041
0.000437991934181
0.000425507172602
0.000411452275467
0.000396201202113
0.0003801984259
0.000363963035261
0.000348089581972
0.000333241396672
0.000320130101918
0.000309474223615
0.000301932884839
0.000298020161024
0.00029802016122
0.000301932885444
0.00030947422366
0.000320130102316
0.000333241396648
0.000348089582151
0.00036396303625
0.000380198425784
0.000396201203041
0.000411452277585
0.0004255071739
0.000437991936617
0.000448598215871
0.000457078797369
0.000463244048064
0.000466959445546
0.000468144169284
0.00046677071149
0.000462865470765
0.000456510348981
0.000447845392302
0.000437072603446
0.000424460876498
0.000410352537987
0.000395169141896
0.000379423213642
0.000363706619484
0.000348739966525
0.000335211870553
0.000324108583849
0.000315817001026
0.000311556691412
0.000310646416663
0.00031317585316
0.000319422375169
0.000329134824704
0.000341700897845
0.000356313144371
0.000372187650989
0.000388596421093
0.000404885843128
0.000420491911677
0.000434941188538
0.000447845397192
0.00045889489837
0.000467852551514
0.000474548486386
0.000478876040795
0.000480788826203
0.000480298781095
0.000477475083546
0.000472443792817
0.000465388074877
0.000456548807642
0.000446225298845
0.000434775604344
0.000422615628281
0.000410215720099
0.00039809287722
0.00038679616232
0.000376882912212
0.000368884290146
0.000363261478766
0.00036035801518
0.000360358015719
0.000363261479321
0.000368884289693
0.000376882911715
0.000386796162627
0.000398092877392
0.000410215719422
0.000422615626888
0.000434775603288
0.000446225296971
0.000456548804609
0.000465388071097
0.000472443789282
0.000477475077562
0.000480298772267
0.000480788812047
0.000478876033079
0.000474548480325
0.000467852541634
0.000458894890471
0.000447845386528
0.000434941177773
0.000420491899906
0.000404885828977
0.000388596404326
0.000372187635082
0.00035631313074
0.000341700895349
0.000329134851493
0.000319422434941
0.000313175969835
0.00031064661712
0.000323540913725
0.000328059958963
0.000336503892234
0.000347627142657
0.000361077458598
0.000375889592236
0.000391413953046
0.000406949535168
0.000421924210711
0.000435836478114
0.000448272646539
0.00045889488978
0.000467437014451
0.000473698564558
0.000477540484829
0.00047888170315
0.000477696752212
0.000474014359285
0.000467916942403
0.000459541022938
0.000449078559224
0.000436779221185
0.000422953548807
0.000407976777869
0.000392292715231
0.000376416349243
0.000360932771681
0.000346488406664
0.000333769014019
0.000323458810366
0.000316178219334
0.000312406396081
0.000312406395333
0.000316178220066
0.000323458810675
0.000333769015571
0.000346488407729
0.000360932774355
0.000376416350796
0.000392292717716
0.000407976782189
0.000422953551516
0.000436779224543
0.000449078563105
0.000459541026964
0.000467916946294
0.000474014363702
0.000477696757079
0.000478881708198
0.000477540490074
0.000473698569727
0.000467437020939
0.000458894896366
0.000448272654172
0.000435836486158
0.000421924218434
0.000406949545611
0.000391413962404
0.000375889604561
0.000361077468434
0.000347627162467
0.000336503877599
0.000328060048107
0.000323540913954
0.000322344802344
0.000324698891368
0.000330765431951
0.000340196905685
0.000352414580545
0.000366652551692
0.000382155309186
0.000398216711681
0.000414197223038
0.000429539994919
0.000443774000801
0.000456510353299
0.00046743702379
0.000476313601915
0.000482966670407
0.000487286120429
0.000489222437854
0.000488784878132
0.00048604043037
0.000481113418837
0.000474185625955
0.000465496714161
0.000455344657229
0.000444085649825
0.000432132688946
0.000419951540698