/*--------------------------------*- C++ -*----------------------------------*\
| =========                 |                                                 |
| \\      /  F ield         | OpenFOAM: The Open Source CFD Toolbox           |
|  \\    /   O peration     | Version:  2406                                  |
|   \\  /    A nd           | Website:  www.openfoam.com                      |
|    \\/     M anipulation  |                                                 |
\*---------------------------------------------------------------------------*/
FoamFile
{
    version     2.0;
    format      ascii;
    arch        "LSB;label=32;scalar=64";
    class       volScalarField;
    location    "27.9";
    object      p;
}
// * * * * * * * * * * * * * * * * * * * * * * * * * * * * * * * * * * * * * //

dimensions      [0 2 -2 0 0 0 0];

internalField   nonuniform List<scalar> 
3600
(
0.0362223
0.0362373
0.0362151
0.0361827
0.0361148
0.0360352
0.0359315
0.0358181
0.0356877
0.035546
0.0353877
0.0352129
0.0350168
0.0347966
0.034549
0.0342712
0.0339631
0.033625
0.0332625
0.0328826
0.0324995
0.0321307
0.0318018
0.0315397
0.031375
0.0313344
0.0314408
0.0317067
0.0321343
0.0327107
0.0334082
0.034182
0.0349726
0.0357077
0.036309
0.0367002
0.0368171
0.0366199
0.0360986
0.0352819
0.0342287
0.033027
0.0317695
0.0305512
0.0294411
0.0284933
0.0277237
0.0271397
0.0267149
0.0264331
0.0262509
0.0261541
0.0261004
0.0260916
0.02609
0.0261149
0.0261295
0.0261669
0.0261853
0.026217
0.0362077
0.0362226
0.036197
0.0361647
0.036099
0.036024
0.0359265
0.0358205
0.0356989
0.0355674
0.0354212
0.0352604
0.0350809
0.0348796
0.0346536
0.0343993
0.0341159
0.0338022
0.033462
0.0331005
0.0327301
0.0323654
0.0320282
0.0317425
0.0315378
0.0314419
0.0314811
0.0316724
0.032023
0.0325239
0.0331512
0.0338624
0.0346
0.0352928
0.0358628
0.0362336
0.0363401
0.0361415
0.0356273
0.0348263
0.0337984
0.0326332
0.031425
0.0302691
0.0292319
0.0283625
0.0276695
0.0271526
0.0267795
0.0265317
0.0263662
0.026273
0.0262132
0.0261936
0.0261779
0.0261889
0.0261879
0.0262128
0.026217
0.026249
0.0362283
0.0362457
0.0362186
0.036184
0.0361161
0.036039
0.0359413
0.0358358
0.0357172
0.0355895
0.0354492
0.0352946
0.0351221
0.0349266
0.0347046
0.0344498
0.0341597
0.0338302
0.0334627
0.0330591
0.0326302
0.0321915
0.0317698
0.031396
0.0311065
0.0309348
0.0309109
0.0310535
0.0313709
0.0318541
0.0324792
0.0332029
0.033967
0.0346984
0.035317
0.0357425
0.0359053
0.0357585
0.0352859
0.0345115
0.0334937
0.0323239
0.0311025
0.0299327
0.0288897
0.0280288
0.0273609
0.0268842
0.0265609
0.0263658
0.0262492
0.026197
0.0261679
0.0261699
0.0261669
0.0261864
0.0261875
0.0262162
0.0262191
0.0262634
0.0362605
0.0362753
0.0362454
0.0362066
0.0361377
0.0360599
0.0359657
0.0358648
0.0357546
0.0356364
0.035508
0.0353649
0.035203
0.0350134
0.0347896
0.0345201
0.0341979
0.0338132
0.0333651
0.0328561
0.0323026
0.0317265
0.0311618
0.0306441
0.0302144
0.0299083
0.029759
0.0297871
0.0300035
0.0304019
0.0309618
0.0316439
0.0323939
0.0331421
0.0338104
0.0343178
0.0345906
0.0345741
0.0342417
0.0336057
0.0327144
0.0316525
0.0305186
0.0294191
0.028435
0.0276283
0.0270147
0.0265949
0.0263307
0.0261944
0.0261326
0.0261276
0.0261353
0.0261638
0.0261766
0.026205
0.0262068
0.0262363
0.0262344
0.0262861
0.0363295
0.0363378
0.0363044
0.0362576
0.036185
0.0361014
0.0360061
0.0359033
0.0357948
0.0356766
0.035548
0.0353983
0.0352214
0.0350001
0.0347229
0.0343693
0.0339285
0.0333889
0.0327549
0.0320368
0.0312615
0.0304609
0.0296785
0.0289565
0.0283406
0.0278686
0.0275744
0.0274788
0.0275937
0.0279147
0.0284249
0.0290897
0.0298608
0.0306744
0.0314568
0.0321277
0.0326098
0.0328381
0.0327704
0.0323988
0.0317516
0.0308965
0.029923
0.0289363
0.0280244
0.0272606
0.0266734
0.0262744
0.0260333
0.0259264
0.0259006
0.0259358
0.0259837
0.0260487
0.0260914
0.026143
0.0261601
0.0262005
0.0262027
0.0262606
0.0364212
0.0364182
0.0363814
0.0363252
0.0362508
0.0361622
0.0360683
0.0359641
0.0358571
0.0357345
0.0355961
0.0354208
0.0351975
0.0348968
0.0345009
0.0339822
0.0333323
0.0325446
0.0316355
0.0306265
0.0295576
0.0284695
0.0274129
0.0264332
0.0255781
0.0248855
0.0243898
0.0241118
0.0240653
0.0242487
0.0246511
0.0252451
0.0259929
0.0268412
0.0277274
0.0285787
0.0293202
0.029881
0.0302036
0.0302555
0.0300348
0.0295781
0.0289496
0.0282395
0.027533
0.0269102
0.0264129
0.0260676
0.0258576
0.0257702
0.0257604
0.0258121
0.0258788
0.0259632
0.0260244
0.0260908
0.0261191
0.0261652
0.02617
0.0262262
0.0365458
0.036527
0.0364867
0.0364178
0.0363402
0.0362416
0.0361434
0.0360278
0.0359078
0.0357576
0.0355753
0.0353238
0.0349851
0.0345161
0.0338968
0.0330996
0.0321271
0.0309849
0.029707
0.0283287
0.026904
0.0254821
0.0241207
0.0228672
0.0217699
0.0208635
0.0201793
0.0197343
0.0195406
0.0195963
0.019894
0.0204126
0.0211248
0.0219903
0.0229616
0.0239805
0.0249833
0.0259026
0.0266742
0.0272451
0.0275809
0.027677
0.0275563
0.0272749
0.0269
0.0265101
0.02616
0.0258957
0.0257226
0.0256461
0.025636
0.0256849
0.0257527
0.0258423
0.0259139
0.0259909
0.0260308
0.0260829
0.0260933
0.0261445
0.0366992
0.0366605
0.0366188
0.0365367
0.0364579
0.036348
0.0362431
0.0361071
0.0359579
0.0357508
0.0354792
0.0350866
0.0345488
0.0338137
0.0328683
0.0316935
0.0303117
0.0287458
0.0270498
0.0252733
0.0234829
0.0217333
0.020085
0.018582
0.0172683
0.0161711
0.0153157
0.0147129
0.0143712
0.0142872
0.0144556
0.0148606
0.0154845
0.0163003
0.0172776
0.0183773
0.0195558
0.0207616
0.0219395
0.0230319
0.0239845
0.0247549
0.0253161
0.0256695
0.0258367
0.0258676
0.0258129
0.0257324
0.0256579
0.0256215
0.0256181
0.0256561
0.0257092
0.0257845
0.0258481
0.0259192
0.025959
0.0260078
0.0260191
0.0260606
0.0368752
0.0368124
0.0367704
0.036672
0.0365894
0.0364597
0.0363351
0.0361557
0.0359422
0.0356251
0.035192
0.0345666
0.0337254
0.0326158
0.0312433
0.0296065
0.0277547
0.0257316
0.023613
0.0214607
0.0193501
0.0173356
0.0154745
0.0138019
0.0123524
0.0111422
0.0101878
0.00949108
0.00905571
0.00887438
0.00894171
0.00924416
0.00977011
0.0105017
0.0114226
0.0125111
0.0137449
0.0150956
0.0165299
0.0180063
0.0194745
0.0208778
0.0221547
0.0232512
0.0241245
0.0247629
0.0251779
0.0254179
0.0255332
0.0255878
0.0256138
0.0256466
0.0256813
0.0257334
0.0257789
0.0258345
0.025867
0.0259074
0.0259175
0.025949
0.0370729
0.0369831
0.036944
0.0368285
0.0367406
0.0365829
0.0364234
0.0361715
0.0358488
0.035357
0.0346798
0.0337269
0.0324865
0.0309174
0.0290545
0.0269216
0.0245987
0.0221498
0.019668
0.0172197
0.0148805
0.0126954
0.0107116
0.00894971
0.00743318
0.00616623
0.00515737
0.00440162
0.00389895
0.00363942
0.00361784
0.00382178
0.00424334
0.00486995
0.00569363
0.00670397
0.00789434
0.00925588
0.0107794
0.0124491
0.0142391
0.0161082
0.0179945
0.0198177
0.0214824
0.0229004
0.0240041
0.0247798
0.0252574
0.0255166
0.025634
0.0256882
0.0257116
0.0257364
0.0257546
0.0257831
0.0257975
0.0258214
0.0258248
0.025846
0.0372654
0.0371458
0.0371101
0.0369722
0.0368707
0.0366669
0.0364439
0.0360747
0.0355804
0.0348338
0.0338219
0.0324504
0.0307328
0.0286507
0.0262773
0.023665
0.0209231
0.0181294
0.0153849
0.0127496
0.0102898
0.0080342
0.00601568
0.00423979
0.00271928
0.00144853
0.000430583
-0.000344305
-0.000877875
-0.00118152
-0.00125997
-0.00112515
-0.00078314
-0.000244464
0.000486392
0.00140369
0.00250819
0.0038017
0.00529093
0.00698157
0.00887599
0.0109642
0.0132143
0.0155631
0.0179077
0.0201141
0.0220333
0.0235488
0.0246057
0.0252456
0.0255661
0.0256978
0.0257329
0.0257373
0.0257275
0.0257251
0.0257164
0.0257204
0.0257145
0.0257276
0.0374481
0.037298
0.037267
0.0371023
0.0369774
0.0367067
0.0363859
0.0358478
0.0351142
0.034034
0.0326087
0.0307532
0.0285197
0.0259211
0.0230724
0.0200508
0.0169868
0.0139589
0.0110635
0.00834328
0.00584855
0.00358842
0.00158231
-0.000177208
-0.00168423
-0.00295031
-0.00397409
-0.00476688
-0.00532951
-0.00567294
-0.00580014
-0.00572202
-0.00544304
-0.00497281
-0.00431468
-0.00347358
-0.00244738
-0.00123181
0.000184961
0.00181839
0.00368794
0.00580987
0.00818901
0.0108037
0.0135892
0.0164239
0.019129
0.0214982
0.0233522
0.0246131
0.0253291
0.0256518
0.0257493
0.025751
0.0257169
0.0256815
0.0256455
0.0256263
0.025608
0.0256148
0.0375711
0.0373891
0.0373597
0.037158
0.0369912
0.0366231
0.0361598
0.0353935
0.034351
0.0328675
0.0309719
0.0286019
0.0258572
0.0227855
0.0195394
0.016211
0.012938
0.0097858
0.00683597
0.00410791
0.00163468
-0.000592312
-0.00256334
-0.00429442
-0.0057823
-0.007041
-0.00806814
-0.00887472
-0.00945939
-0.00983193
-0.0099933
-0.00995332
-0.00971519
-0.00928812
-0.00867546
-0.00788289
-0.00690969
-0.00575328
-0.00440332
-0.00284397
-0.00105139
0.00100275
0.00334738
0.00599961
0.00894848
0.0121282
0.0153984
0.018535
0.0212685
0.0233631
0.0247202
0.0254246
0.0256856
0.0257244
0.0256799
0.0256152
0.0255525
0.0255104
0.0254791
0.0254814
0.0376244
0.0374118
0.0373802
0.0371316
0.0369029
0.0364056
0.0357542
0.0347039
0.0332946
0.0313603
0.0289707
0.0260962
0.0228877
0.0194234
0.0158828
0.0123575
0.00897813
0.00578657
0.0028441
0.000146347
-0.00228783
-0.00448019
-0.00642567
-0.00814448
-0.00963234
-0.010903
-0.011951
-0.0127858
-0.0134028
-0.0138101
-0.0140061
-0.0139994
-0.0137917
-0.0133917
-0.0128028
-0.0120319
-0.0110805
-0.00994916
-0.0086321
-0.0071181
-0.00538744
-0.00341214
-0.00115617
0.0014181
0.0043405
0.00760657
0.0111522
0.0148108
0.0183134
0.0213183
0.0235413
0.0248827
0.025491
0.0256478
0.0256206
0.0255343
0.025447
0.0253819
0.0253374
0.0253349
0.03754
0.0372968
0.0372541
0.0369436
0.0366268
0.0359649
0.03508
0.0336988
0.0318831
0.0294797
0.0266085
0.0232773
0.0196845
0.0159282
0.0121998
0.00857597
0.00516991
0.00199491
-0.000907365
-0.00356129
-0.00595694
-0.00812394
-0.0100575
-0.0117787
-0.01328
-0.0145734
-0.01565
-0.016517
-0.0171671
-0.0176064
-0.0178315
-0.0178495
-0.0176612
-0.0172745
-0.0166933
-0.0159248
-0.0149729
-0.013841
-0.0125283
-0.0110294
-0.00933199
-0.0074147
-0.00524574
-0.00278386
1.94561e-05
0.00320111
0.00676924
0.0106472
0.0146483
0.0184327
0.0215996
0.0238114
0.0250221
0.0254548
0.0255006
0.0254105
0.0253034
0.0252155
0.0251585
0.0251494
0.0373111
0.0370394
0.0369769
0.0365916
0.0361628
0.0353063
0.0341524
0.0324104
0.0301735
0.0273131
0.0240038
0.0202897
0.0164067
0.0124586
0.00863409
0.00498382
0.0015987
-0.00153588
-0.00439374
-0.0070137
-0.00938937
-0.0115538
-0.0134995
-0.0152459
-0.0167812
-0.0181151
-0.0192347
-0.0201452
-0.0208363
-0.0213126
-0.0215687
-0.0216105
-0.0214376
-0.0210574
-0.0204738
-0.0196944
-0.0187248
-0.0175705
-0.0162353
-0.0147186
-0.0130165
-0.011116
-0.00899556
-0.00662087
-0.0039429
-0.000908146
0.00253749
0.00639677
0.0105948
0.0148841
0.0188709
0.0220569
0.0241184
0.0250763
0.0253063
0.025246
0.0251287
0.0250152
0.0249452
0.0249254
0.0368665
0.0365671
0.0364725
0.035998
0.0354334
0.034358
0.0329116
0.030799
0.0281521
0.024875
0.0211955
0.0171873
0.0131102
0.00905977
0.00521024
0.0015815
-0.00175764
-0.00484529
-0.00766521
-0.010265
-0.0126376
-0.0148162
-0.0167887
-0.0185723
-0.0201506
-0.0215307
-0.0226965
-0.0236513
-0.0243825
-0.0248933
-0.0251769
-0.0252378
-0.0250753
-0.0246958
-0.0241039
-0.0233067
-0.0223118
-0.0211255
-0.0197555
-0.0182043
-0.016475
-0.0145619
-0.0124543
-0.010129
-0.0075468
-0.00465619
-0.00138489
0.00231828
0.0064755
0.0109622
0.0154969
0.0195564
0.0226122
0.0243526
0.0249866
0.0250095
0.0249059
0.0247626
0.0246776
0.0246415
0.0362181
0.0358943
0.0357575
0.035185
0.0344685
0.0331622
0.0314165
0.028945
0.0259216
0.0222877
0.0183171
0.0141035
0.00991605
0.00583104
0.00200179
-0.00158274
-0.00487227
-0.00792249
-0.0107218
-0.0133219
-0.0157122
-0.0179242
-0.0199403
-0.021775
-0.0234077
-0.0248432
-0.0260624
-0.0270668
-0.027842
-0.0283896
-0.0287015
-0.0287811
-0.0286275
-0.028246
-0.0276419
-0.0268219
-0.0257957
-0.0245697
-0.023155
-0.0215562
-0.0197818
-0.0178315
-0.0157041
-0.013387
-0.0108548
-0.00806769
-0.00495584
-0.00145045
0.00253266
0.00697586
0.0117511
0.0164294
0.0204373
0.0231385
0.0244526
0.0246921
0.0246262
0.0244622
0.0243542
0.0242963
0.0353102
0.0349641
0.0347748
0.0340972
0.0332184
0.0316799
0.029644
0.0268435
0.0234946
0.0195754
0.0153957
0.0110581
0.0068288
0.00275829
-0.00102322
-0.00455401
-0.00779747
-0.0108209
-0.0136133
-0.016227
-0.0186464
-0.0209003
-0.0229659
-0.0248552
-0.0265436
-0.0280343
-0.0293057
-0.0303577
-0.0311744
-0.0317558
-0.0320932
-0.0321884
-0.0320408
-0.0316545
-0.031036
-0.0301913
-0.0291323
-0.0278653
-0.0264047
-0.0247555
-0.0229312
-0.0209339
-0.0187704
-0.0164358
-0.0139175
-0.0111903
-0.00819733
-0.00487414
-0.00111
0.00314689
0.00790725
0.0129001
0.0176382
0.0213423
0.0235341
0.024262
0.0242508
0.0240993
0.0239565
0.0238713
0.0341868
0.0338238
0.0335758
0.032794
0.0317527
0.0299941
0.0276918
0.0246066
0.020993
0.0168623
0.0125486
0.00815352
0.00393103
-9.62403e-05
-0.00382013
-0.00730063
-0.01051
-0.013522
-0.0163234
-0.018965
-0.0214257
-0.023731
-0.0258538
-0.0278033
-0.0295522
-0.0311017
-0.0324284
-0.0335303
-0.0343904
-0.0350067
-0.0353704
-0.035481
-0.0353388
-0.0349462
-0.0343118
-0.03344
-0.0323462
-0.0310355
-0.0295266
-0.0278238
-0.0259457
-0.0238949
-0.0216847
-0.0193145
-0.0167828
-0.0140768
-0.0111559
-0.00797158
-0.00441164
-0.000395249
0.00418983
0.00922422
0.014401
0.0189602
0.022136
0.0236061
0.023787
0.0236433
0.0234888
0.0233562
0.0328183
0.0324426
0.0321313
0.0312492
0.0300516
0.0280938
0.0255588
0.0222408
0.0184256
0.0141532
0.00976942
0.00536858
0.00118636
-0.00278084
-0.00644414
-0.00987922
-0.0130635
-0.016073
-0.0188911
-0.0215654
-0.0240699
-0.0264268
-0.0286055
-0.0306127
-0.0324193
-0.0340243
-0.0354032
-0.0365518
-0.0374526
-0.0381011
-0.0384886
-0.0386124
-0.038474
-0.0380735
-0.0374222
-0.0365228
-0.0353943
-0.0340405
-0.0324847
-0.0307301
-0.0288003
-0.0266971
-0.0244394
-0.0220282
-0.0194702
-0.0167615
-0.0138766
-0.0107861
-0.00739041
-0.00360951
0.000726986
0.00560978
0.0109461
0.0160827
0.0202338
0.0225539
0.0232347
0.0230465
0.0229405
0.0227266
0.031283
0.0309022
0.0305278
0.0295563
0.028217
0.0260901
0.0233633
0.0198681
0.0159126
0.0115597
0.00715662
0.00278619
-0.00133712
-0.00523925
-0.00884716
-0.0122466
-0.0154173
-0.0184346
-0.021278
-0.023991
-0.0265437
-0.0289549
-0.0311913
-0.0332575
-0.0351229
-0.0367843
-0.0382166
-0.0394129
-0.0403554
-0.0410367
-0.0414487
-0.0415859
-0.0414513
-0.0410425
-0.0403741
-0.0394463
-0.0382828
-0.0368852
-0.0352826
-0.033476
-0.0314951
-0.0293397
-0.0270348
-0.0245803
-0.02199
-0.0192644
-0.0163906
-0.0133557
-0.0100791
-0.00649787
-0.00242186
0.00220668
0.00747491
0.0129017
0.0178491
0.021058
0.022493
0.0223266
0.0222724
0.0219792
0.029573
0.0291934
0.0287574
0.0277089
0.0262455
0.0239819
0.021105
0.0174848
0.0134419
0.00905773
0.00467233
0.000356087
-0.0036984
-0.0075343
-0.0110914
-0.0144607
-0.0176228
-0.0206503
-0.0235191
-0.0262685
-0.0288656
-0.0313259
-0.0336147
-0.0357342
-0.0376531
-0.0393659
-0.0408471
-0.0420868
-0.0430677
-0.0437786
-0.0442129
-0.0443613
-0.0442295
-0.0438117
-0.0431264
-0.0421706
-0.0409736
-0.0395338
-0.037887
-0.0360311
-0.0340029
-0.0317991
-0.0294513
-0.0269569
-0.0243359
-0.0215896
-0.0187149
-0.015711
-0.0125165
-0.00909146
-0.00525291
-0.000912145
0.00413445
0.00961187
0.0150623
0.019147
0.0213894
0.0215165
0.0214183
0.021108
0.0277907
0.0274215
0.0269297
0.0258211
0.0242558
0.0218909
0.0189063
0.0152101
0.0111259
0.00674963
0.00240772
-0.00184073
-0.00582442
-0.0095984
-0.0131127
-0.0164595
-0.0196197
-0.0226616
-0.0255581
-0.0283445
-0.0309855
-0.0334936
-0.0358335
-0.0380048
-0.0399762
-0.0417392
-0.0432688
-0.0445513
-0.0455703
-0.0463106
-0.0467675
-0.0469272
-0.0467991
-0.0463726
-0.0456717
-0.0446888
-0.0434601
-0.0419794
-0.0402908
-0.0383873
-0.0363148
-0.034065
-0.031678
-0.0291467
-0.0264983
-0.0237317
-0.0208519
-0.0178651
-0.0147262
-0.011419
-0.0077797
-0.00371984
0.00102827
0.00637117
0.0120343
0.0168663
0.0198685
0.0205919
0.0203686
0.0201017
0.0259364
0.0255844
0.0250424
0.0238891
0.0222425
0.0198081
0.0167517
0.0130187
0.00892693
0.00458517
0.000301506
-0.00387305
-0.00778731
-0.0115029
-0.0149786
-0.0183049
-0.0214629
-0.0245158
-0.0274352
-0.0302514
-0.0329288
-0.0354764
-0.0378595
-0.0400744
-0.042091
-0.043897
-0.0454687
-0.046788
-0.0478405
-0.0486058
-0.0490824
-0.049251
-0.0491257
-0.0486902
-0.047975
-0.0469665
-0.0457091
-0.0441905
-0.0424644
-0.0405174
-0.0384057
-0.0361147
-0.0336945
-0.0311316
-0.0284621
-0.0256798
-0.0227974
-0.0198234
-0.0167251
-0.0135082
-0.0100291
-0.00622458
-0.00179235
0.00328433
0.00893858
0.0142692
0.0179813
0.0194297
0.0191539
0.0189193
0.0241212
0.0237959
0.0232127
0.0220325
0.0203268
0.0178544
0.0147598
0.0110247
0.00695313
0.0026656
-0.0015511
-0.00565056
-0.00950013
-0.0131635
-0.016607
-0.0199168
-0.023075
-0.0261389
-0.0290798
-0.0319232
-0.034634
-0.0372175
-0.0396403
-0.0418953
-0.0439539
-0.0457996
-0.0474109
-0.0487645
-0.0498489
-0.0506378
-0.0511338
-0.0513111
-0.0511898
-0.0507465
-0.0500196
-0.048988
-0.0477058
-0.0461528
-0.0443939
-0.0424076
-0.040262
-0.037934
-0.0354863
-0.0328966
-0.030212
-0.027419
-0.024539
-0.0215785
-0.0185149
-0.0153707
-0.0120198
-0.00843918
-0.00430702
0.000425562
0.00591894
0.011457
0.0158125
0.0179338
0.0178265
0.0175389
0.0223372
0.0220449
0.0214277
0.0202343
0.0184869
0.0160005
0.0128919
0.00917806
0.00514271
0.000918741
-0.00322994
-0.00725706
-0.0110472
-0.0146621
-0.0180751
-0.0213667
-0.0245211
-0.0275893
-0.0305437
-0.0334046
-0.036139
-0.0387479
-0.0412005
-0.0434851
-0.0455764
-0.0474524
-0.0490951
-0.050475
-0.051585
-0.0523916
-0.0529033
-0.0530861
-0.052968
-0.0525165
-0.0517798
-0.0507273
-0.0494247
-0.0478414
-0.0460557
-0.0440353
-0.0418627
-0.0395038
-0.0370356
-0.034425
-0.0317329
-0.0289353
-0.0260649
-0.0231219
-0.0200939
-0.0170132
-0.0137691
-0.0103812
-0.00652074
-0.00216133
0.00306947
0.00856202
0.0134355
0.0161057
0.0164003
0.0159644
0.0206929
0.0204421
0.0198013
0.0186103
0.0168395
0.0143625
0.0112627
0.00759097
0.00360548
-0.000547887
-0.00462902
-0.00858798
-0.0123252
-0.015897
-0.0192839
-0.0225589
-0.0257095
-0.0287798
-0.0317446
-0.034619
-0.0373726
-0.0400019
-0.0424794
-0.0447884
-0.0469075
-0.0488088
-0.0504788
-0.0518809
-0.0530138
-0.0538354
-0.054362
-0.0545497
-0.0544362
-0.0539782
-0.0532355
-0.0521655
-0.050848
-0.0492396
-0.0474339
-0.0453852
-0.0431928
-0.0408086
-0.0383273
-0.0357013
-0.0330089
-0.0302121
-0.027359
-0.0244383
-0.0214505
-0.0184293
-0.0152804
-0.0120582
-0.00844133
-0.00444906
0.000451157
0.00571655
0.0109158
0.0140054
0.0148248
0.0142051
0.0191598
0.0189549
0.0182982
0.0171198
0.0153377
0.0128849
0.00980719
0.00618821
0.00225653
-0.00182709
-0.00584641
-0.00974349
-0.0134338
-0.016965
-0.0203257
-0.0235803
-0.026721
-0.0297846
-0.0327503
-0.0356269
-0.0383889
-0.0410266
-0.0435178
-0.0458393
-0.0479754
-0.0498906
-0.0515784
-0.052993
-0.0541414
-0.054971
-0.055508
-0.0556968
-0.0555867
-0.0551214
-0.0543748
-0.0532898
-0.0519623
-0.0503331
-0.0485143
-0.0464431
-0.0442389
-0.0418355
-0.039349
-0.0367134
-0.0340285
-0.0312377
-0.0284097
-0.0255158
-0.0225751
-0.0196124
-0.0165546
-0.0134762
-0.0100791
-0.00642751
-0.00189827
0.00302679
0.008328
0.0117114
0.0130394
0.0122771
0.0178388
0.0176866
0.0170249
0.015872
0.0140928
0.0116803
0.00863923
0.00508472
0.00121269
-0.00280038
-0.00676183
-0.0106028
-0.0142523
-0.0177478
-0.0210853
-0.0243201
-0.02745
-0.0305044
-0.0334678
-0.0363423
-0.039108
-0.0417487
-0.0442483
-0.0465763
-0.048724
-0.0506474
-0.0523482
-0.0537703
-0.0549309
-0.0557653
-0.0563117
-0.0565006
-0.0563958
-0.0559249
-0.0551788
-0.0540825
-0.0527514
-0.0511071
-0.0492829
-0.0471954
-0.0449876
-0.0425712
-0.0400876
-0.0374476
-0.0347777
-0.0319973
-0.0292016
-0.0263383
-0.0234517
-0.0205479
-0.0175817
-0.0146305
-0.0114349
-0.00808974
-0.00394838
0.000574135
0.00576869
0.00931731
0.011052
0.0102307
0.0166736
0.0165757
0.015917
0.0147967
0.0130284
0.0106642
0.00766609
0.00417927
0.0003651
-0.00358254
-0.00749406
-0.0112859
-0.0149004
-0.0183618
-0.0216751
-0.0248851
-0.0279975
-0.0310332
-0.0339843
-0.0368451
-0.0396033
-0.0422346
-0.0447311
-0.0470531
-0.0492013
-0.0511209
-0.0528248
-0.0542442
-0.0554093
-0.0562407
-0.0567919
-0.0569763
-0.0568754
-0.0563975
-0.0556538
-0.0545479
-0.053218
-0.0515622
-0.0497392
-0.0476405
-0.0454366
-0.0430123
-0.040539
-0.0378991
-0.0352509
-0.0324841
-0.0297271
-0.0268966
-0.0240704
-0.0212254
-0.018353
-0.0155163
-0.0125076
-0.00943354
-0.00567682
-0.00158244
0.00334442
0.006929
0.00894705
0.0081477
0.0157596
0.01572
0.0150759
0.0139996
0.0122544
0.00995009
0.00700579
0.00359451
-0.00015805
-0.00404074
-0.00790604
-0.0116541
-0.015239
-0.0186707
-0.0219626
-0.0251491
-0.0282437
-0.031259
-0.0341954
-0.037039
-0.0397862
-0.0424034
-0.0448925
-0.0472031
-0.0493472
-0.0512576
-0.0529605
-0.0543724
-0.0555394
-0.0563646
-0.0569201
-0.0570991
-0.0570041
-0.0565207
-0.0557839
-0.054672
-0.0533497
-0.0516874
-0.0498733
-0.0477687
-0.0455766
-0.0431495
-0.0406939
-0.0380578
-0.0354378
-0.0326867
-0.0299738
-0.0271768
-0.0244161
-0.0216288
-0.0188529
-0.0161204
-0.013287
-0.0104513
-0.00706221
-0.0033962
0.00115715
0.00465809
0.00684761
0.00612297
0.0150081
0.0150248
0.0144034
0.0133764
0.0116612
0.00942144
0.00653518
0.00320074
-0.000492314
-0.0043149
-0.00814092
-0.0118513
-0.0154115
-0.0188147
-0.0220841
-0.0252419
-0.0283123
-0.031298
-0.0342104
-0.0370255
-0.0397513
-0.0423425
-0.0448138
-0.0471011
-0.0492312
-0.0511212
-0.0528143
-0.054209
-0.055371
-0.0561825
-0.0567379
-0.0569064
-0.056816
-0.0563248
-0.0555964
-0.0544786
-0.0531678
-0.0515009
-0.0497011
-0.0475933
-0.045419
-0.0429915
-0.0405594
-0.0379287
-0.0353415
-0.0326062
-0.0299409
-0.0271757
-0.0244833
-0.0217503
-0.0190719
-0.0164338
-0.0137651
-0.0111372
-0.00809016
-0.00483418
-0.000712236
0.00260508
0.0048694
0.00424149
0.0145162
0.0145894
0.0140031
0.0130365
0.0113644
0.00919971
0.0063827
0.00313344
-0.000493949
-0.00425446
-0.00804202
-0.0117181
-0.0152579
-0.018637
-0.0218878
-0.0250194
-0.0280673
-0.0310235
-0.0339117
-0.0366968
-0.0393998
-0.0419624
-0.0444137
-0.0466743
-0.0487882
-0.0506539
-0.0523354
-0.0537094
-0.0548655
-0.0556608
-0.0562169
-0.0563742
-0.0562911
-0.0557932
-0.0550778
-0.0539567
-0.0526633
-0.0509951
-0.0492163
-0.0471087
-0.0449587
-0.0425333
-0.0401303
-0.0375058
-0.0349558
-0.0322348
-0.0296198
-0.0268829
-0.02426
-0.0215759
-0.0189948
-0.0164408
-0.0139272
-0.0114792
-0.00874536
-0.00586921
-0.00220239
0.000855267
0.00310718
0.00257501
0.0141589
0.0142816
0.0137385
0.0128372
0.011217
0.00913204
0.0063905
0.00323014
-0.000329617
-0.00402879
-0.00778105
-0.0114262
-0.014949
-0.0183047
-0.0215361
-0.0246372
-0.0276574
-0.0305758
-0.033432
-0.036177
-0.0388487
-0.0413722
-0.0437954
-0.0460193
-0.0481094
-0.0499416
-0.051605
-0.0529501
-0.0540955
-0.0548678
-0.0554217
-0.0555626
-0.0554859
-0.054978
-0.0542767
-0.0531504
-0.0518771
-0.0502069
-0.0484525
-0.0463444
-0.0442224
-0.0417977
-0.0394269
-0.0368059
-0.0342948
-0.0315836
-0.029019
-0.0263034
-0.0237486
-0.0211045
-0.0186176
-0.0161351
-0.0137664
-0.0114707
-0.00902023
-0.00648529
-0.00327377
-0.000526588
0.0016318
0.00118022
0.0140469
0.014215
0.013727
0.0129023
0.0113502
0.00935701
0.0067053
0.00364561
0.000165116
-0.00346543
-0.00717792
-0.0107921
-0.0143002
-0.017637
-0.0208539
-0.0239293
-0.0269263
-0.0298101
-0.0326374
-0.0353437
-0.037986
-0.0404706
-0.0428671
-0.0450536
-0.0471212
-0.0489189
-0.0505655
-0.0518806
-0.0530169
-0.0537656
-0.0543197
-0.0544444
-0.0543776
-0.0538605
-0.0531778
-0.0520477
-0.0507998
-0.0491286
-0.0474041
-0.0452959
-0.0432066
-0.0407816
-0.0384465
-0.0358257
-0.0333553
-0.0306479
-0.0281332
-0.0254301
-0.0229407
-0.0203252
-0.0179281
-0.0155023
-0.0132685
-0.0110983
-0.00890282
-0.00666643
-0.00389605
-0.00148708
0.000503283
0.000110325
0.0140122
0.0142141
0.0137879
0.0130446
0.0115731
0.00967906
0.00712797
0.00417818
0.000786196
-0.00276881
-0.00643791
-0.010019
-0.0135131
-0.0168299
-0.0200324
-0.0230786
-0.0260492
-0.0288919
-0.0316851
-0.0343444
-0.0369517
-0.039389
-0.0417539
-0.0438953
-0.0459365
-0.0476926
-0.0493197
-0.0505984
-0.051724
-0.0524434
-0.052997
-0.0531004
-0.0530438
-0.0525131
-0.0518502
-0.0507121
-0.0494913
-0.0478152
-0.0461221
-0.0440092
-0.0419538
-0.0395227
-0.0372234
-0.0345952
-0.0321642
-0.0294504
-0.0269823
-0.0242788
-0.0218495
-0.019247
-0.0169324
-0.0145446
-0.012434
-0.0103608
-0.00839252
-0.006408
-0.00405342
-0.00198784
-0.000229486
-0.000587433
0.0141979
0.0144261
0.0140701
0.0134187
0.0120468
0.0102668
0.00783453
0.00501103
0.0017259
-0.00173892
-0.00535271
-0.008895
-0.0123736
-0.0156739
-0.0188679
-0.0218922
-0.0248447
-0.0276533
-0.0304197
-0.0330374
-0.0356161
-0.0380099
-0.0403488
-0.042448
-0.044468
-0.0461849
-0.0477976
-0.0490417
-0.0501615
-0.0508528
-0.051411
-0.051494
-0.0514527
-0.0509089
-0.0502709
-0.0491248
-0.0479359
-0.0462537
-0.0445965
-0.0424761
-0.0404579
-0.0380157
-0.0357539
-0.0331105
-0.0307182
-0.0279869
-0.0255622
-0.0228435
-0.0204684
-0.0178608
-0.0156206
-0.0132499
-0.0112508
-0.00924567
-0.00747902
-0.00569884
-0.00372839
-0.00199222
-0.000515105
-0.000858834
0.0143818
0.0146231
0.0143392
0.0137838
0.0125263
0.0108723
0.00857486
0.0058942
0.00273411
-0.000622803
-0.00416766
-0.00765989
-0.0111179
-0.0143968
-0.0175818
-0.020581
-0.0235152
-0.0262851
-0.0290236
-0.0315939
-0.0341423
-0.0364868
-0.0387988
-0.0408505
-0.0428499
-0.0445229
-0.0461225
-0.0473278
-0.0484436
-0.0491026
-0.0496673
-0.0497253
-0.0497012
-0.049139
-0.0485275
-0.0473674
-0.0462116
-0.0445161
-0.0428954
-0.0407588
-0.0387775
-0.0363134
-0.0340874
-0.0314156
-0.0290585
-0.0262936
-0.0239065
-0.021153
-0.0188241
-0.0161887
-0.0140129
-0.0116336
-0.00973288
-0.00776346
-0.00617301
-0.00454602
-0.00292022
-0.00147906
-0.000311417
-0.000655598
0.014766
0.0150138
0.0148018
0.0143495
0.0132235
0.0117127
0.00957038
0.00705281
0.00404166
0.000815192
-0.00264002
-0.00606809
-0.00949801
-0.0127552
-0.015937
-0.0189202
-0.0218481
-0.024591
-0.0273144
-0.0298478
-0.0323775
-0.034681
-0.0369765
-0.0389874
-0.0409757
-0.0426104
-0.0442061
-0.045377
-0.0464974
-0.0471273
-0.0477064
-0.0477412
-0.0477415
-0.0471612
-0.0465826
-0.0454071
-0.0442899
-0.0425779
-0.0409978
-0.0388395
-0.0368977
-0.0344033
-0.0322137
-0.0295013
-0.0271775
-0.0243624
-0.022008
-0.0191988
-0.0169083
-0.0142199
-0.0120987
-0.00968269
-0.00786839
-0.00590119
-0.00446489
-0.00294039
-0.00161795
-0.000422609
0.000430655
8.08197e-05
0.0150561
0.0152993
0.0151537
0.0148055
0.0138237
0.0124727
0.0105057
0.00817565
0.00534038
0.002275
-0.00106421
-0.00440307
-0.00778983
-0.0110123
-0.0141873
-0.0171496
-0.0200736
-0.0227872
-0.0254994
-0.0279933
-0.0305084
-0.0327681
-0.0350516
-0.0370191
-0.0390016
-0.0405954
-0.0421929
-0.0433266
-0.0444577
-0.0450548
-0.0456537
-0.0456604
-0.0456896
-0.0450846
-0.0445425
-0.0433431
-0.0422669
-0.0405278
-0.0389895
-0.0367966
-0.0348939
-0.0323538
-0.0301984
-0.0274268
-0.0251321
-0.0222444
-0.0199165
-0.0170253
-0.0147649
-0.0119938
-0.0099176
-0.00743203
-0.00569271
-0.00368957
-0.00238625
-0.000908356
0.000157473
0.00117503
0.00173777
0.00138913
0.0155497
0.0157857
0.0156963
0.015451
0.0146208
0.0134447
0.0116712
0.00954993
0.00691626
0.00404036
0.000845789
-0.00237974
-0.00570699
-0.00888728
-0.0120578
-0.0150076
-0.0179427
-0.0206427
-0.0233629
-0.0258334
-0.0283523
-0.0305817
-0.0328696
-0.0348044
-0.0367957
-0.0383572
-0.0399699
-0.0410731
-0.0422268
-0.042796
-0.0434255
-0.0434068
-0.0434743
-0.0428453
-0.0423476
-0.0411226
-0.0400939
-0.0383233
-0.0368318
-0.0345968
-0.0327366
-0.0301391
-0.0280191
-0.025172
-0.0229045
-0.0199227
-0.0176161
-0.0146156
-0.0123778
-0.00949172
-0.00745181
-0.00486097
-0.0031879
-0.00110919
7.58293e-05
0.00156124
0.00241085
0.00332588
0.00364396
0.00331684
0.0158471
0.016068
0.0160251
0.0158778
0.0152053
0.0142218
0.0126649
0.0107842
0.00838652
0.00574404
0.00273406
-0.000335113
-0.00357348
-0.00668398
-0.00983919
-0.0127654
-0.0157147
-0.0183995
-0.0211373
-0.0235858
-0.0261201
-0.0283204
-0.0306243
-0.0325267
-0.0345382
-0.0360667
-0.0377056
-0.0387763
-0.039963
-0.0405004
-0.04117
-0.0411199
-0.0412339
-0.0405722
-0.0401256
-0.0388636
-0.0378876
-0.0360713
-0.0346303
-0.0323358
-0.0305199
-0.0278445
-0.0257598
-0.0228127
-0.0205705
-0.0174656
-0.0151769
-0.0120339
-0.00981438
-0.00677652
-0.00476922
-0.00203301
-0.000423059
0.00177682
0.00285333
0.004409
0.00508281
0.00598858
0.00613262
0.00586306
0.0163902
0.0165979
0.0165858
0.0165233
0.0159985
0.0152114
0.0138806
0.0122577
0.0101178
0.00773777
0.00494438
0.00206414
-0.00105958
-0.00408228
-0.00721723
-0.0101229
-0.0131013
-0.015788
-0.0185682
-0.021016
-0.0235917
-0.0257824
-0.0281259
-0.0300117
-0.0320638
-0.0335713
-0.0352543
-0.0363015
-0.0375368
-0.0380489
-0.0387721
-0.0386943
-0.0388665
-0.0381732
-0.0377878
-0.036487
-0.0355721
-0.0337052
-0.0323214
-0.0299588
-0.0281922
-0.0254254
-0.0233785
-0.0203122
-0.018095
-0.014841
-0.012567
-0.00924828
-0.00704223
-0.00381276
-0.00183411
0.0010922
0.00263936
0.00500922
0.00597664
0.00766283
0.00818107
0.00916664
0.00920733
0.00904396
0.0166203
0.0168075
0.0168195
0.0168318
0.0164539
0.0158778
0.0147968
0.0134708
0.0116292
0.00956808
0.00704279
0.00441381
0.00145041
-0.00143646
-0.00452768
-0.00738874
-0.0103959
-0.0130793
-0.0159162
-0.018367
-0.0210043
-0.023191
-0.0255951
-0.0274681
-0.0295804
-0.0310682
-0.0328131
-0.033835
-0.0351351
-0.0356168
-0.0364082
-0.0362944
-0.0365377
-0.035801
-0.035488
-0.0341331
-0.0332892
-0.0313526
-0.0300346
-0.0275809
-0.0258707
-0.0229856
-0.0209822
-0.0177652
-0.0155775
-0.0121386
-0.00988368
-0.0063492
-0.00416289
-0.000697881
0.00124166
0.00440636
0.00587548
0.00847196
0.00931675
0.0112099
0.0115855
0.0127646
0.0127805
0.0127903
0.0171899
0.0173623
0.0173827
0.0174476
0.0171856
0.0168034
0.0159627
0.0149389
0.013406
0.0116857
0.00945481
0.00711108
0.00433818
0.00161539
-0.00141794
-0.00422712
-0.00727265
-0.0099656
-0.0128855
-0.0153628
-0.0180941
-0.0203015
-0.0227973
-0.0246788
-0.0268786
-0.0283633
-0.0301931
-0.0312018
-0.0325862
-0.033046
-0.0339221
-0.0337776
-0.0341061
-0.0333282
-0.0330998
-0.0316898
-0.0309273
-0.0289168
-0.0276731
-0.0251203
-0.0234732
-0.0204565
-0.0185013
-0.0151139
-0.0129581