/*--------------------------------*- C++ -*----------------------------------*\
| =========                 |                                                 |
| \\      /  F ield         | OpenFOAM: The Open Source CFD Toolbox           |
|  \\    /   O peration     | Version:  2406                                  |
|   \\  /    A nd           | Website:  www.openfoam.com                      |
|    \\/     M anipulation  |                                                 |
\*---------------------------------------------------------------------------*/
FoamFile
{
    version     2.0;
    format      ascii;
    arch        "LSB;label=32;scalar=64";
    class       volVectorField;
    location    "23.25";
    object      U_0;
}
// * * * * * * * * * * * * * * * * * * * * * * * * * * * * * * * * * * * * * //

dimensions      [0 1 -1 0 0 0 0];

internalField   nonuniform List<vector> 
16384
(
(-4.62379e-06 4.59225e-06 0)
(1.75017e-05 -3.61539e-06 0)
(8.07614e-05 -1.19665e-05 0)
(0.00017373 -1.74307e-05 0)
(0.000286181 -2.03109e-05 0)
(0.000408879 -2.14237e-05 0)
(0.000534736 -2.13843e-05 0)
(0.000658637 -2.06213e-05 0)
(0.000777049 -1.94291e-05 0)
(0.000887645 -1.80098e-05 0)
(0.000988985 -1.65004e-05 0)
(0.00108027 -1.49935e-05 0)
(0.00116116 -1.35502e-05 0)
(0.0012316 -1.22093e-05 0)
(0.00129173 -1.09942e-05 0)
(0.00134182 -9.91675e-06 0)
(0.00138213 -8.9803e-06 0)
(0.00141295 -8.18154e-06 0)
(0.00143449 -7.51201e-06 0)
(0.0014469 -6.96323e-06 0)
(0.00145013 -6.53659e-06 0)
(0.00144404 -6.15443e-06 0)
(0.0014283 -5.81665e-06 0)
(0.00140233 -5.49762e-06 0)
(0.00136534 -5.15919e-06 0)
(0.00131626 -4.76086e-06 0)
(0.00125375 -4.26072e-06 0)
(0.00117621 -3.61526e-06 0)
(0.00108174 -2.78027e-06 0)
(0.0009682 -1.71236e-06 0)
(0.000833168 -3.6621e-07 0)
(0.000674006 1.29888e-06 0)
(0.000487869 3.32768e-06 0)
(0.000271741 5.76088e-06 0)
(2.24768e-05 8.63898e-06 0)
(-0.000263155 1.20015e-05 0)
(-0.000588424 1.58871e-05 0)
(-0.000956575 2.03321e-05 0)
(-0.00137077 2.53687e-05 0)
(-0.00183399 3.10243e-05 0)
(-0.00234901 3.73187e-05 0)
(-0.00291824 4.42623e-05 0)
(-0.00354366 5.18538e-05 0)
(-0.00422673 6.00771e-05 0)
(-0.00496826 6.88996e-05 0)
(-0.00576833 7.82696e-05 0)
(-0.00662616 8.81148e-05 0)
(-0.00754008 9.83402e-05 0)
(-0.00850736 0.000108827 0)
(-0.00952423 0.000119434 0)
(-0.0105858 0.000129994 0)
(-0.0116859 0.000140317 0)
(-0.0128174 0.000150191 0)
(-0.0139719 0.000159385 0)
(-0.0151399 0.00016765 0)
(-0.0163108 0.000174723 0)
(-0.0174729 0.000180332 0)
(-0.018614 0.000184199 0)
(-0.0197208 0.000186049 0)
(-0.0207793 0.000185614 0)
(-0.0217754 0.00018264 0)
(-0.0226943 0.000176897 0)
(-0.0235214 0.000168189 0)
(-0.024242 0.000156373 0)
(-0.0248421 0.000141404 0)
(-0.0253082 0.000123373 0)
(-0.025628 0.000102324 0)
(-0.0257898 7.79105e-05 0)
(-0.0257812 5.08402e-05 0)
(-0.0255927 1.97386e-05 0)
(-0.02522 -1.4336e-05 0)
(-0.0246587 -5.00434e-05 0)
(-0.0239063 -8.68282e-05 0)
(-0.0229639 -0.000124133 0)
(-0.0218356 -0.000161247 0)
(-0.0205285 -0.000197355 0)
(-0.0190533 -0.00023158 0)
(-0.0174241 -0.000263015 0)
(-0.0156581 -0.000290755 0)
(-0.0137759 -0.000313938 0)
(-0.0118011 -0.000331789 0)
(-0.00975955 -0.000343653 0)
(-0.00767935 -0.000349041 0)
(-0.00558995 -0.000347647 0)
(-0.00352147 -0.000339382 0)
(-0.00150371 -0.000324495 0)
(0.000433821 -0.000303673 0)
(0.00226347 -0.000277061 0)
(0.00396074 -0.000245711 0)
(0.00550406 -0.000210761 0)
(0.00687572 -0.000173349 0)
(0.00806253 -0.000134714 0)
(0.00905597 -9.59968e-05 0)
(0.0098524 -5.84423e-05 0)
(0.0104531 -2.3036e-05 0)
(0.0108636 9.35081e-06 0)
(0.0110939 3.80506e-05 0)
(0.0111569 6.26177e-05 0)
(0.0110688 8.28915e-05 0)
(0.0108476 9.85914e-05 0)
(0.0105126 0.000110081 0)
(0.0100835 0.000117629 0)
(0.00957967 0.000121621 0)
(0.00901997 0.000122526 0)
(0.00842182 0.000120849 0)
(0.00780101 0.000117098 0)
(0.0071714 0.00011176 0)
(0.00654481 0.000105282 0)
(0.00593101 9.80622e-05 0)
(0.00533772 9.04413e-05 0)
(0.00477078 8.27042e-05 0)
(0.00423429 7.50827e-05 0)
(0.00373079 6.7761e-05 0)
(0.00326147 6.08824e-05 0)
(0.00282639 5.45552e-05 0)
(0.00242467 4.88552e-05 0)
(0.00205476 4.38247e-05 0)
(0.00171468 3.94651e-05 0)
(0.00140237 3.57225e-05 0)
(0.00111608 3.24666e-05 0)
(0.000854825 2.94638e-05 0)
(0.000618975 2.63477e-05 0)
(0.000410769 2.25915e-05 0)
(0.000234771 1.7504e-05 0)
(9.77814e-05 1.03514e-05 0)
(7.73101e-06 9.00688e-07 0)
(-2.86665e-05 -9.45892e-06 0)
(-1.53648e-05 -1.54228e-05 0)
(3.48802e-06 -1.74489e-05 0)
(8.72417e-05 -8.75626e-05 0)
(0.000253664 -0.000152907 0)
(0.000481435 -0.00019944 0)
(0.000749535 -0.000227276 0)
(0.00103958 -0.000239888 0)
(0.00133657 -0.000241015 0)
(0.00162897 -0.000233883 0)
(0.00190828 -0.00022107 0)
(0.00216853 -0.000204545 0)
(0.00240569 -0.000185765 0)
(0.00261716 -0.000165778 0)
(0.00280143 -0.000145309 0)
(0.00295768 -0.000124832 0)
(0.00308554 -0.000104633 0)
(0.00318488 -8.48502e-05 0)
(0.00325564 -6.55056e-05 0)
(0.00329772 -4.65293e-05 0)
(0.00331085 -2.77762e-05 0)
(0.00329447 -9.03976e-06 0)
(0.0032477 9.95442e-06 0)
(0.00316924 2.95944e-05 0)
(0.00305723 5.02537e-05 0)
(0.00290929 7.23726e-05 0)
(0.00272241 9.64386e-05 0)
(0.0024929 0.000122971 0)
(0.00221639 0.000152507 0)
(0.00188782 0.000185587 0)
(0.00150144 0.000222745 0)
(0.00105087 0.000264482 0)
(0.000529141 0.000311274 0)
(-7.11866e-05 0.000363533 0)
(-0.000757957 0.000421611 0)
(-0.00153928 0.000485786 0)
(-0.00242338 0.000556249 0)
(-0.00341843 0.000633094 0)
(-0.00453238 0.0007163 0)
(-0.00577273 0.000805721 0)
(-0.00714635 0.000901068 0)
(-0.00865917 0.00100189 0)
(-0.010316 0.00110756 0)
(-0.0121202 0.00121728 0)
(-0.0140734 0.00133001 0)
(-0.0161754 0.00144456 0)
(-0.0184236 0.0015595 0)
(-0.0208133 0.00167321 0)
(-0.0233369 0.0017839 0)
(-0.0259843 0.00188961 0)
(-0.0287424 0.00198824 0)
(-0.0315953 0.00207761 0)
(-0.0345245 0.00215546 0)
(-0.0375086 0.00221951 0)
(-0.0405238 0.00226752 0)
(-0.0435441 0.0022973 0)
(-0.0465413 0.0023068 0)
(-0.0494857 0.0022941 0)
(-0.0523463 0.0022575 0)
(-0.055091 0.00219553 0)
(-0.0576875 0.00210701 0)
(-0.0601032 0.00199105 0)
(-0.0623058 0.00184711 0)
(-0.0642641 0.00167503 0)
(-0.0659478 0.00147506 0)
(-0.0673284 0.00124793 0)
(-0.0683798 0.00099493 0)
(-0.0690787 0.000717692 0)
(-0.0694054 0.000417796 0)
(-0.0693418 9.67334e-05 0)
(-0.0688708 -0.000237355 0)
(-0.0679807 -0.000585419 0)
(-0.0666678 -0.00094327 0)
(-0.0649321 -0.0013058 0)
(-0.0627778 -0.00166789 0)
(-0.0602144 -0.00202405 0)
(-0.0572567 -0.00236849 0)
(-0.0539253 -0.0026952 0)
(-0.0502465 -0.00299804 0)
(-0.0462523 -0.00327093 0)
(-0.0419803 -0.00350801 0)
(-0.0374731 -0.00370379 0)
(-0.0327782 -0.00385336 0)
(-0.0279472 -0.00395263 0)
(-0.023035 -0.00399846 0)
(-0.0180994 -0.00398889 0)
(-0.013199 -0.00392327 0)
(-0.00839302 -0.00380246 0)
(-0.00373954 -0.00362903 0)
(0.000705281 -0.0034063 0)
(0.00488929 -0.00313942 0)
(0.00876568 -0.00283491 0)
(0.0122935 -0.00250031 0)
(0.0154393 -0.00214414 0)
(0.0181775 -0.00177475 0)
(0.0204912 -0.00140156 0)
(0.0223731 -0.00103305 0)
(0.0238248 -0.000677389 0)
(0.0248563 -0.00034189 0)
(0.0254862 -3.27907e-05 0)
(0.0257396 0.000245105 0)
(0.0256486 0.000488738 0)
(0.0252499 0.000695893 0)
(0.0245826 0.0008658 0)
(0.0236882 0.000999033 0)
(0.0226086 0.00109731 0)
(0.0213848 0.00116323 0)
(0.0200557 0.00120004 0)
(0.0186574 0.00121141 0)
(0.017222 0.00120123 0)
(0.0157778 0.00117338 0)
(0.0143485 0.00113165 0)
(0.0129536 0.00107959 0)
(0.0116083 0.00102042 0)
(0.0103236 0.000957013 0)
(0.00910711 0.000891847 0)
(0.00796317 0.000826984 0)
(0.00689341 0.00076404 0)
(0.00589739 0.00070413 0)
(0.0049733 0.000647785 0)
(0.00411871 0.000594838 0)
(0.00333158 0.000544293 0)
(0.00261126 0.000494199 0)
(0.0019596 0.000441597 0)
(0.00138196 0.000382641 0)
(0.000887763 0.000313103 0)
(0.000490078 0.00022969 0)
(0.000203361 0.000133104 0)
(3.81985e-05 3.47669e-05 0)
(-8.92959e-06 -2.87543e-05 0)
(1.17384e-05 -8.02701e-05 0)
(0.000152196 -0.000253715 0)
(0.000399843 -0.000400561 0)
(0.000724769 -0.00050529 0)
(0.001099 -0.000569003 0)
(0.00149942 -0.000598156 0)
(0.00190688 -0.00060017 0)
(0.00230611 -0.000581875 0)
(0.00268546 -0.000549003 0)
(0.00303636 -0.000506101 0)
(0.00335268 -0.000456633 0)
(0.00363015 -0.000403139 0)
(0.00386588 -0.000347398 0)
(0.00405787 -0.000290585 0)
(0.00420473 -0.000233395 0)
(0.00430532 -0.000176149 0)
(0.00435856 -0.000118867 0)
(0.00436326 -6.13246e-05 0)
(0.00431789 -3.08702e-06 0)
(0.00422053 5.64565e-05 0)
(0.00406866 0.000118105 0)
(0.00385908 0.000182791 0)
(0.00358781 0.000251605 0)
(0.00325 0.000325755 0)
(0.00283983 0.000406543 0)
(0.00235052 0.000495343 0)
(0.00177426 0.00059356 0)
(0.00110223 0.000702591 0)
(0.000324707 0.000823778 0)
(-0.000568905 0.000958367 0)
(-0.00158991 0.00110746 0)
(-0.00275014 0.00127197 0)
(-0.00406178 0.0014526 0)
(-0.00553703 0.00164975 0)
(-0.00718793 0.00186356 0)
(-0.00902593 0.0020938 0)
(-0.0110616 0.00233985 0)
(-0.0133042 0.00260067 0)
(-0.0157614 0.00287476 0)
(-0.0184385 0.00316011 0)
(-0.0213386 0.00345421 0)
(-0.0244616 0.00375397 0)
(-0.0278042 0.0040558 0)
(-0.0313594 0.00435557 0)
(-0.0351162 0.00464869 0)
(-0.0390597 0.00493013 0)
(-0.0431705 0.00519455 0)
(-0.0474253 0.00543636 0)
(-0.0517966 0.00564987 0)
(-0.0562534 0.00582936 0)
(-0.0607608 0.00596927 0)
(-0.0652815 0.00606431 0)
(-0.0697752 0.00610955 0)
(-0.0742003 0.00610057 0)
(-0.0785134 0.00603357 0)
(-0.082671 0.0059054 0)
(-0.0866292 0.00571368 0)
(-0.0903452 0.00545683 0)
(-0.0937769 0.00513406 0)
(-0.0968842 0.00474548 0)
(-0.0996292 0.004292 0)
(-0.101977 0.00377541 0)
(-0.103894 0.00319837 0)
(-0.105352 0.00256447 0)
(-0.106326 0.00187792 0)
(-0.106796 0.00114305 0)
(-0.106745 0.000365802 0)
(-0.106155 -0.000440647 0)
(-0.105017 -0.00127182 0)
(-0.103333 -0.00212114 0)
(-0.1011 -0.00297971 0)
(-0.0983268 -0.00383757 0)
(-0.0950237 -0.00468393 0)
(-0.0912081 -0.00550743 0)
(-0.086903 -0.00629632 0)
(-0.0821366 -0.00703862 0)
(-0.0769432 -0.0077223 0)
(-0.0713625 -0.00833549 0)
(-0.0654399 -0.00886681 0)
(-0.0592258 -0.00930563 0)
(-0.0527759 -0.0096424 0)
(-0.04615 -0.00986905 0)
(-0.0394118 -0.00997926 0)
(-0.032628 -0.00996886 0)
(-0.0258672 -0.00983607 0)
(-0.019199 -0.0095818 0)
(-0.0126927 -0.00920985 0)
(-0.00641635 -0.00872679 0)
(-0.000434666 -0.00814173 0)
(0.00519173 -0.00746668 0)
(0.0104078 -0.00671558 0)
(0.015166 -0.00590564 0)
(0.0194263 -0.00505302 0)
(0.0231579 -0.00417829 0)
(0.0263406 -0.00329923 0)
(0.0289638 -0.00243416 0)
(0.0310277 -0.00160034 0)
(0.0325428 -0.00081328 0)
(0.0335299 -8.62655e-05 0)
(0.0340183 0.000570434 0)
(0.034045 0.00114856 0)
(0.0336535 0.00164362 0)
(0.0328925 0.00205358 0)
(0.0318139 0.00237923 0)
(0.0304708 0.00262388 0)
(0.0289162 0.0027929 0)
(0.0272011 0.00289324 0)
(0.0253736 0.00293295 0)
(0.0234774 0.00292073 0)
(0.0215515 0.00286549 0)
(0.0196293 0.00277601 0)
(0.0177385 0.00266065 0)
(0.0159012 0.00252709 0)
(0.0141344 0.0023822 0)
(0.01245 0.00223188 0)
(0.0108555 0.0020809 0)
(0.00935529 0.00193274 0)
(0.00795086 0.00178937 0)
(0.00664247 0.00165098 0)
(0.00543016 0.00151573 0)
(0.00431521 0.00137961 0)
(0.00330149 0.0012364 0)
(0.00239661 0.00107821 0)
(0.00161253 0.000896775 0)
(0.000964973 0.000686214 0)
(0.000471407 0.000448421 0)
(0.000147988 0.000203626 0)
(2.86749e-06 1.15901e-05 0)
(1.71938e-05 -0.000172694 0)
(0.000198931 -0.000481167 0)
(0.000505 -0.000725499 0)
(0.000896455 -0.000896659 0)
(0.00133929 -0.00099979 0)
(0.00180716 -0.00104543 0)
(0.00227856 -0.0010452 0)
(0.00273616 -0.00100993 0)
(0.00316642 -0.000948849 0)
(0.00355905 -0.000869414 0)
(0.00390635 -0.000777377 0)
(0.00420259 -0.000676986 0)
(0.00444346 -0.000571232 0)
(0.00462559 -0.000462075 0)
(0.00474617 -0.000350649 0)
(0.00480263 -0.000237427 0)
(0.00479235 -0.000122349 0)
(0.00471246 -4.91281e-06 0)
(0.0045596 0.00011577 0)
(0.0043298 0.000240926 0)
(0.0040183 0.000372081 0)
(0.0036194 0.000511036 0)
(0.00312635 0.000659849 0)
(0.00253127 0.000820796 0)
(0.00182502 0.000996298 0)
(0.000997249 0.00118888 0)
(3.63436e-05 0.00140108 0)
(-0.00107046 0.00163537 0)
(-0.002337 0.00189409 0)
(-0.00377793 0.00217929 0)
(-0.00540855 0.00249269 0)
(-0.00724445 0.00283559 0)
(-0.00930115 0.00320872 0)
(-0.0115937 0.00361222 0)
(-0.0141361 0.00404552 0)
(-0.0169409 0.00450727 0)
(-0.0200186 0.00499527 0)
(-0.023377 0.00550639 0)
(-0.0270207 0.00603652 0)
(-0.0309506 0.00658055 0)
(-0.0351632 0.00713237 0)
(-0.0396502 0.00768485 0)
(-0.0443981 0.00822997 0)
(-0.0493883 0.0087589 0)
(-0.0545965 0.00926215 0)
(-0.0599934 0.00972977 0)
(-0.0655442 0.0101516 0)
(-0.0712099 0.0105174 0)
(-0.0769472 0.0108174 0)
(-0.0827095 0.011042 0)
(-0.0884477 0.0111829 0)
(-0.0941111 0.0112321 0)
(-0.0996482 0.0111834 0)
(-0.105008 0.0110315 0)
(-0.110139 0.0107725 0)
(-0.114993 0.0104041 0)
(-0.119523 0.00992531 0)
(-0.123685 0.00933653 0)
(-0.127439 0.00863956 0)
(-0.130748 0.00783746 0)
(-0.133577 0.00693453 0)
(-0.135898 0.00593621 0)
(-0.137683 0.00484904 0)
(-0.138913 0.00368066 0)
(-0.13957 0.00243947 0)
(-0.13964 0.00113448 0)
(-0.139108 -0.000223627 0)
(-0.137973 -0.00161765 0)
(-0.136233 -0.00304274 0)
(-0.133891 -0.00448347 0)
(-0.130952 -0.00592576 0)
(-0.127427 -0.0073547 0)
(-0.123332 -0.00875457 0)
(-0.118686 -0.0101089 0)
(-0.113514 -0.0114007 0)
(-0.107846 -0.0126127 0)
(-0.101717 -0.0137273 0)
(-0.0951656 -0.0147274 0)
(-0.0882374 -0.0155964 0)
(-0.080982 -0.0163185 0)
(-0.0734542 -0.0168797 0)
(-0.0657132 -0.0172675 0)
(-0.0578225 -0.0174723 0)
(-0.0498489 -0.0174869 0)
(-0.041862 -0.0173078 0)
(-0.0339335 -0.016935 0)
(-0.0261358 -0.0163727 0)
(-0.0185408 -0.015629 0)
(-0.0112191 -0.0147164 0)
(-0.0042377 -0.0136513 0)
(0.00233919 -0.0124538 0)
(0.0084552 -0.0111474 0)
(0.0140585 -0.00975501 0)
(0.0191057 -0.00830984 0)
(0.0235657 -0.00683778 0)
(0.0274137 -0.00536809 0)
(0.0306365 -0.00392872 0)
(0.0332319 -0.00254592 0)
(0.0352082 -0.00124329 0)
(0.0365842 -4.14446e-05 0)
(0.0373887 0.00104307 0)
(0.037659 0.00199855 0)
(0.0374397 0.00281798 0)
(0.0367818 0.00349826 0)
(0.0357408 0.00404062 0)
(0.0343746 0.00445024 0)
(0.0327418 0.0047356 0)
(0.0308999 0.00490779 0)
(0.0289037 0.00497975 0)
(0.026804 0.00496559 0)
(0.0246468 0.00487988 0)
(0.022472 0.00473706 0)
(0.0203137 0.00455089 0)
(0.0181993 0.00433409 0)
(0.0161507 0.00409787 0)
(0.014184 0.0038516 0)
(0.0123106 0.00360244 0)
(0.0105382 0.00335491 0)
(0.00887199 0.00311044 0)
(0.00731601 0.00286702 0)
(0.00587489 0.00261893 0)
(0.0045552 0.00235695 0)
(0.0033668 0.00206922 0)
(0.00232371 0.00174331 0)
(0.00144386 0.00137022 0)
(0.000748616 0.000951245 0)
(0.00026389 0.000510164 0)
(1.50735e-05 0.000114711 0)
(2.02645e-05 -0.000284965 0)
(0.000227962 -0.000749561 0)
(0.000570738 -0.00110025 0)
(0.00100191 -0.0013398 0)
(0.00148229 -0.00148051 0)
(0.00198292 -0.00153849 0)
(0.0024807 -0.00153019 0)
(0.00295712 -0.00147065 0)
(0.00339755 -0.00137272 0)
(0.00379057 -0.00124676 0)
(0.00412729 -0.0011008 0)
(0.00440068 -0.000940782 0)
(0.00460504 -0.000770848 0)
(0.00473545 -0.000593678 0)
(0.00478745 -0.000410753 0)
(0.00475665 -0.000222577 0)
(0.00463844 -2.88703e-05 0)
(0.00442778 0.000171318 0)
(0.00411898 0.000379519 0)
(0.00370546 0.000597779 0)
(0.00317966 0.000828608 0)
(0.00253281 0.00107493 0)
(0.00175485 0.00134003 0)
(0.000834339 0.0016275 0)
(-0.000241603 0.00194112 0)
(-0.00148727 0.00228476 0)
(-0.00291829 0.00266222 0)
(-0.00455148 0.00307714 0)
(-0.00640458 0.00353276 0)
(-0.00849592 0.00403181 0)
(-0.0108441 0.00457632 0)
(-0.0134672 0.00516743 0)
(-0.0163828 0.00580528 0)
(-0.0196064 0.0064888 0)
(-0.0231518 0.00721565 0)
(-0.0270295 0.00798202 0)
(-0.0312462 0.00878258 0)
(-0.0358044 0.00961041 0)
(-0.0407012 0.010457 0)
(-0.045928 0.0113121 0)
(-0.05147 0.0121641 0)
(-0.0573058 0.013 0)
(-0.0634077 0.0138057 0)
(-0.0697413 0.0145662 0)
(-0.0762663 0.0152662 0)
(-0.0829369 0.0158902 0)
(-0.0897031 0.0164232 0)
(-0.0965109 0.0168509 0)
(-0.103304 0.0171603 0)
(-0.110026 0.0173399 0)
(-0.116618 0.01738 0)
(-0.123024 0.0172729 0)
(-0.12919 0.0170132 0)
(-0.135063 0.0165974 0)
(-0.140595 0.0160243 0)
(-0.145742 0.0152947 0)
(-0.150462 0.0144113 0)
(-0.15472 0.0133782 0)
(-0.158483 0.0122015 0)
(-0.161723 0.0108884 0)
(-0.164417 0.00944729 0)
(-0.166544 0.00788773 0)
(-0.168087 0.00622023 0)
(-0.169034 0.00445609 0)
(-0.169375 0.00260757 0)
(-0.169103 0.00068863 0)
(-0.168211 -0.00128482 0)
(-0.166697 -0.00330204 0)
(-0.164568 -0.00534562 0)
(-0.161825 -0.00739848 0)
(-0.158477 -0.00944293 0)
(-0.154533 -0.0114602 0)
(-0.150007 -0.0134306 0)
(-0.144918 -0.0153335 0)
(-0.139287 -0.0171474 0)
(-0.13314 -0.0188505 0)
(-0.126506 -0.0204205 0)
(-0.119422 -0.0218353 0)
(-0.111927 -0.0230733 0)
(-0.104067 -0.0241139 0)
(-0.0958909 -0.0249381 0)
(-0.0874547 -0.0255291 0)
(-0.078818 -0.0258728 0)
(-0.070045 -0.0259589 0)
(-0.0612038 -0.0257808 0)
(-0.052365 -0.0253367 0)
(-0.0436016 -0.0246299 0)
(-0.0349873 -0.0236689 0)
(-0.0265957 -0.0224677 0)
(-0.0184987 -0.0210455 0)
(-0.0107653 -0.0194273 0)
(-0.00345705 -0.017641 0)
(0.00336127 -0.0157201 0)
(0.0096377 -0.0137 0)
(0.0153335 -0.0116182 0)
(0.0204101 -0.00951466 0)
(0.0248423 -0.00742701 0)
(0.0286146 -0.00539229 0)
(0.0317221 -0.0034449 0)
(0.0341702 -0.00161568 0)
(0.0359755 6.90441e-05 0)
(0.0371646 0.00158751 0)
(0.0377726 0.0029248 0)
(0.0378423 0.00407186 0)
(0.0374243 0.00502499 0)
(0.0365741 0.00578625 0)
(0.0353506 0.00636292 0)
(0.0338144 0.00676671 0)
(0.0320257 0.0070129 0)
(0.030043 0.0071194 0)
(0.0279211 0.00710573 0)
(0.0257104 0.00699214 0)
(0.0234554 0.00679868 0)
(0.0211945 0.00654448 0)
(0.0189598 0.00624692 0)
(0.0167773 0.00592105 0)
(0.0146671 0.00557884 0)
(0.0126448 0.00522849 0)
(0.0107224 0.00487381 0)
(0.0089096 0.00451358 0)
(0.00721563 0.00414133 0)
(0.00565077 0.00374553 0)
(0.00422791 0.00331084 0)
(0.00296377 0.00282059 0)
(0.0018795 0.00226147 0)
(0.00100195 0.00163089 0)
(0.000369204 0.000948829 0)
(2.56387e-05 0.000276842 0)
(2.18005e-05 -0.000408453 0)
(0.000242721 -0.00104118 0)
(0.000603063 -0.0015019 0)
(0.00105042 -0.00180791 0)
(0.00154159 -0.00198106 0)
(0.00204551 -0.00204442 0)
(0.00253798 -0.00202 0)
(0.00299974 -0.00192731 0)
(0.0034155 -0.00178277 0)
(0.00377307 -0.00159957 0)
(0.0040626 -0.00138786 0)
(0.00427585 -0.00115505 0)
(0.00440566 -0.000906262 0)
(0.00444545 -0.00064471 0)
(0.00438883 -0.000372025 0)
(0.00422926 -8.85485e-05 0)
(0.00395974 0.000206419 0)
(0.00357266 0.000514493 0)
(0.00305946 0.000838075 0)
(0.00241051 0.00118027 0)
(0.0016149 0.00154481 0)
(0.000660312 0.00193599 0)
(-0.000467068 0.00235855 0)
(-0.00178263 0.00281759 0)
(-0.00330336 0.00331839 0)
(-0.00504761 0.00386622 0)
(-0.00703503 0.00446615 0)
(-0.00928622 0.00512277 0)
(-0.0118223 0.00583995 0)
(-0.0146643 0.00662057 0)
(-0.0178327 0.00746623 0)
(-0.0213466 0.00837701 0)
(-0.0252227 0.00935122 0)
(-0.0294748 0.0103852 0)
(-0.0341125 0.0114731 0)
(-0.0391405 0.0126069 0)
(-0.0445575 0.0137761 0)
(-0.0503558 0.0149678 0)
(-0.0565204 0.016167 0)
(-0.0630287 0.0173566 0)
(-0.0698506 0.0185177 0)
(-0.0769482 0.01963 0)
(-0.0842768 0.0206726 0)
(-0.0917857 0.0216241 0)
(-0.0994189 0.0224636 0)
(-0.107117 0.0231714 0)
(-0.114818 0.0237292 0)
(-0.122458 0.0241211 0)
(-0.129977 0.0243334 0)
(-0.137314 0.0243557 0)
(-0.144411 0.0241801 0)
(-0.151215 0.0238021 0)
(-0.157677 0.0232199 0)
(-0.163753 0.0224343 0)
(-0.169405 0.0214488 0)
(-0.174597 0.0202688 0)
(-0.1793 0.0189017 0)
(-0.183488 0.0173563 0)
(-0.187142 0.0156428 0)
(-0.190242 0.0137722 0)
(-0.192774 0.0117567 0)
(-0.194727 0.0096089 0)
(-0.19609 0.00734223 0)
(-0.196857 0.00497049 0)
(-0.197021 0.0025084 0)
(-0.196578 -2.71536e-05 0)
(-0.195525 -0.00261736 0)
(-0.193862 -0.00525138 0)
(-0.19159 -0.00790875 0)
(-0.188712 -0.0105703 0)
(-0.185232 -0.0132156 0)
(-0.181156 -0.0158229 0)
(-0.176494 -0.0183695 0)
(-0.171259 -0.0208313 0)
(-0.165465 -0.023183 0)
(-0.159132 -0.0253987 0)
(-0.152285 -0.0274515 0)
(-0.144952 -0.0293146 0)
(-0.137166 -0.0309611 0)
(-0.128966 -0.0323654 0)
(-0.120397 -0.0335032 0)
(-0.111509 -0.0343523 0)
(-0.102357 -0.034894 0)
(-0.0930018 -0.0351131 0)
(-0.08351 -0.0349995 0)
(-0.073951 -0.0345483 0)
(-0.064398 -0.0337605 0)
(-0.0549262 -0.0326438 0)
(-0.0456121 -0.0312125 0)
(-0.0365315 -0.0294876 0)
(-0.0277584 -0.0274964 0)
(-0.0193629 -0.0252722 0)
(-0.0114134 -0.0228564 0)
(-0.00396888 -0.0202862 0)
(0.00291777 -0.0176104 0)
(0.00920069 -0.0148766 0)
(0.0148451 -0.0121325 0)
(0.0198239 -0.00942532 0)
(0.0241204 -0.00679968 0)
(0.0277285 -0.0042968 0)
(0.0306518 -0.00195305 0)
(0.032905 0.000200252 0)
(0.0345124 0.00213783 0)
(0.0355066 0.00384246 0)
(0.0359286 0.00530384 0)
(0.0358267 0.00651844 0)
(0.0352552 0.0074896 0)
(0.0342723 0.00822698 0)
(0.0329385 0.00874563 0)
(0.0313148 0.00906501 0)
(0.029461 0.00920779 0)
(0.0274343 0.0091987 0)
(0.0252873 0.00906326 0)
(0.0230677 0.00882666 0)
(0.0208171 0.00851263 0)
(0.0185713 0.00814233 0)
(0.0163596 0.00773328 0)
(0.0142065 0.00729835 0)
(0.0121317 0.00684472 0)
(0.0101519 0.00637311 0)
(0.00828198 0.00587731 0)
(0.00653721 0.00534442 0)
(0.00493458 0.00475609 0)
(0.00349464 0.00409125 0)
(0.00224301 0.00333082 0)
(0.00121332 0.00246478 0)
(0.000456221 0.0015028 0)
(3.39285e-05 0.00048984 0)
(2.23827e-05 -0.000536558 0)
(0.000246466 -0.00134126 0)
(0.000608054 -0.00191065 0)
(0.00105102 -0.00227777 0)
(0.00152947 -0.00247553 0)
(0.00201087 -0.00253512 0)
(0.00247028 -0.00248467 0)
(0.00288802 -0.00234839 0)
(0.00324838 -0.00214623 0)
(0.00353858 -0.00189401 0)
(0.00374788 -0.00160371 0)
(0.00386683 -0.00128395 0)
(0.00388671 -0.000940523 0)
(0.00379907 -0.000576885 0)
(0.00359533 -0.000194551 0)
(0.00326647 0.000206527 0)
(0.00280275 0.000627755 0)
(0.00219353 0.00107166 0)
(0.00142698 0.00154177 0)
(0.000489952 0.00204248 0)
(-0.000632215 0.00257899 0)
(-0.0019558 0.00315716 0)
(-0.00349871 0.00378338 0)
(-0.00528054 0.00446432 0)
(-0.00732236 0.00520677 0)
(-0.00964653 0.00601731 0)
(-0.0122763 0.00690195 0)
(-0.0152353 0.00786579 0)
(-0.0185468 0.0089126 0)
(-0.0222331 0.0100444 0)
(-0.0263144 0.0112613 0)
(-0.0308079 0.0125606 0)
(-0.0357267 0.0139372 0)
(-0.0410786 0.0153828 0)
(-0.0468652 0.016886 0)
(-0.0530807 0.0184322 0)
(-0.0597114 0.0200034 0)
(-0.066735 0.021579 0)
(-0.0741204 0.0231356 0)
(-0.081828 0.0246477 0)
(-0.0898102 0.0260884 0)
(-0.0980123 0.0274304 0)
(-0.106374 0.0286464 0)
(-0.114831 0.0297103 0)
(-0.123316 0.030598 0)
(-0.131762 0.0312881 0)
(-0.140103 0.0317626 0)
(-0.148275 0.0320071 0)
(-0.15622 0.0320112 0)
(-0.163882 0.0317682 0)
(-0.171213 0.0312754 0)
(-0.178168 0.0305335 0)
(-0.184712 0.0295462 0)
(-0.190811 0.0283198 0)
(-0.196439 0.0268629 0)
(-0.201574 0.0251857 0)
(-0.206196 0.0233 0)
(-0.210291 0.0212182 0)
(-0.213846 0.0189536 0)
(-0.216851 0.0165203 0)
(-0.219299 0.0139323 0)
(-0.22118 0.0112042 0)
(-0.222491 0.0083508 0)
(-0.223224 0.00538737 0)
(-0.223375 0.00233006 0)
(-0.222937 -0.000803683 0)
(-0.221911 -0.00399715 0)
(-0.220293 -0.00723397 0)
(-0.218079 -0.0104938 0)
(-0.215269 -0.0137563 0)
(-0.211863 -0.0169992 0)
(-0.20786 -0.0201989 0)
(-0.203266 -0.0233298 0)
(-0.198085 -0.0263651 0)
(-0.192328 -0.029276 0)
(-0.186005 -0.0320327 0)
(-0.179134 -0.0346038 0)
(-0.171735 -0.0369576 0)
(-0.163836 -0.039062 0)
(-0.155467 -0.0408856 0)
(-0.146666 -0.0423981 0)
(-0.137479 -0.0435715 0)
(-0.127955 -0.0443811 0)
(-0.118152 -0.0448063 0)
(-0.108134 -0.0448316 0)
(-0.0979675 -0.0444478 0)
(-0.0877278 -0.0436527 0)
(-0.0774916 -0.0424517 0)
(-0.0673385 -0.0408582 0)
(-0.0573491 -0.0388937 0)
(-0.0476033 -0.0365877 0)
(-0.0381786 -0.0339772 0)
(-0.0291492 -0.0311063 0)
(-0.0205833 -0.0280223 0)
(-0.0125424 -0.0247801 0)
(-0.00508032 -0.021434 0)
(0.00175806 -0.0180418 0)
(0.0079368 -0.0146602 0)
(0.0134302 -0.0113435 0)
(0.018222 -0.00814308 0)
(0.0223061 -0.00510548 0)
(0.025686 -0.0022713 0)
(0.0283757 0.000324842 0)
(0.0303983 0.00265578 0)
(0.0317847 0.00470313 0)
(0.0325743 0.00645649 0)
(0.0328135 0.00791329 0)
(0.0325549 0.00907882 0)
(0.0318553 0.00996545 0)
(0.0307742 0.0105917 0)
(0.0293723 0.0109812 0)
(0.0277097 0.0111612 0)
(0.0258441 0.0111609 0)
(0.0238297 0.0110107 0)
(0.021716 0.0107399 0)
(0.0195469 0.0103756 0)
(0.017361 0.00994101 0)
(0.015191 0.00945425 0)
(0.013065 0.00892665 0)
(0.0110071 0.00836178 0)
(0.00903917 0.00775468 0)
(0.00718213 0.00709186 0)
(0.00545823 0.00635247 0)
(0.00389302 0.00551081 0)
(0.00251764 0.0045407 0)
(0.001373 0.00342182 0)
(0.000521364 0.00214864 0)
(3.98596e-05 0.000742799 0)
(2.23578e-05 -0.000664312 0)
(0.000241604 -0.00163762 0)
(0.000590524 -0.00230935 0)
(0.00101099 -0.00272878 0)
(0.00145569 -0.00294078 0)
(0.00189132 -0.0029854 0)
(0.00229264 -0.00289732 0)
(0.00263981 -0.00270555 0)
(0.00291685 -0.00243345 0)
(0.00311046 -0.00209917 0)
(0.00320898 -0.00171617 0)
(0.00320165 -0.00129392 0)
(0.00307802 -0.000838518 0)
(0.00282752 -0.0003533 0)
(0.00243905 0.000160655 0)
(0.00190082 0.000704118 0)
(0.00119998 0.00127947 0)
(0.000322473 0.00189041 0)
(-0.00074719 0.00254186 0)
(-0.00202606 0.00323974 0)
(-0.00353286 0.00399092 0)
(-0.00528808 0.00480295 0)
(-0.00731388 0.00568391 0)
(-0.00963396 0.00664202 0)
(-0.0122733 0.00768537 0)
(-0.0152576 0.0088214 0)
(-0.0186128 0.0100564 0)
(-0.0223641 0.0113952 0)
(-0.0265353 0.0128401 0)
(-0.0311474 0.014391 0)
(-0.0362173 0.0160443 0)
(-0.041757 0.0177931 0)
(-0.0477717 0.0196261 0)
(-0.0542592 0.0215283 0)
(-0.0612085 0.0234801 0)
(-0.0685992 0.0254581 0)
(-0.0764012 0.0274353 0)
(-0.0845748 0.0293815 0)
(-0.0930708 0.0312642 0)
(-0.101832 0.0330497 0)
(-0.110796 0.0347042 0)
(-0.119892 0.0361948 0)
(-0.129052 0.0374906 0)
(-0.138201 0.0385641 0)
(-0.147272 0.0393917 0)
(-0.156197 0.0399541 0)
(-0.164913 0.0402374 0)
(-0.173366 0.0402321 0)
(-0.181504 0.0399336 0)
(-0.189285 0.0393417 0)
(-0.196673 0.03846 0)
(-0.203637 0.0372952 0)
(-0.210151 0.0358568 0)
(-0.216197 0.0341562 0)
(-0.221757 0.0322062 0)
(-0.226819 0.0300209 0)
(-0.231373 0.0276148 0)
(-0.235411 0.0250028 0)
(-0.238925 0.0221998 0)
(-0.241909 0.0192212 0)
(-0.244358 0.0160818 0)
(-0.246267 0.0127968 0)
(-0.247631 0.0093814 0)
(-0.248443 0.00585108 0)
(-0.248698 0.00222224 0)
(-0.24839 -0.00148834 0)
(-0.247514 -0.00526511 0)
(-0.246066 -0.00908852 0)
(-0.244039 -0.0129388 0)
(-0.241428 -0.0167946 0)
(-0.238226 -0.0206326 0)
(-0.234432 -0.0244277 0)
(-0.230041 -0.0281526 0)
(-0.225055 -0.0317777 0)
(-0.219473 -0.0352714 0)
(-0.213302 -0.0385999 0)
(-0.20655 -0.041728 0)
(-0.199229 -0.0446189 0)
(-0.191358 -0.047235 0)
(-0.182959 -0.0495389 0)
(-0.174064 -0.0514939 0)
(-0.164709 -0.0530651 0)
(-0.154939 -0.0542209 0)
(-0.144805 -0.0549339 0)
(-0.134366 -0.055182 0)
(-0.12369 -0.0549501 0)
(-0.11285 -0.0542311 0)
(-0.101924 -0.0530263 0)
(-0.0909957 -0.0513468 0)
(-0.0801508 -0.0492133 0)
(-0.0694761 -0.0466562 0)
(-0.0590576 -0.0437151 0)
(-0.0489783 -0.040438 0)
(-0.039316 -0.0368794 0)
(-0.0301422 -0.0331 0)
(-0.0215203 -0.0291637 0)
(-0.0135045 -0.0251369 0)
(-0.00613954 -0.0210854 0)
(0.000540339 -0.0170737 0)
(0.00651093 -0.0131631 0)
(0.0117582 -0.00940983 0)
(0.016278 -0.00586429 0)
(0.0200754 -0.00256978 0)
(0.0231651 0.00043762 0)
(0.0255705 0.00313039 0)
(0.0273223 0.00549038 0)
(0.0284591 0.00750826 0)
(0.0290263 0.00918343 0)
(0.0290749 0.0105238 0)
(0.0286605 0.0115448 0)
(0.0278413 0.0122688 0)
(0.0266773 0.0127233 0)
(0.0252281 0.0129397 0)
(0.0235514 0.0129514 0)
(0.021702 0.0127923 0)
(0.0197304 0.0124945 0)
(0.0176825 0.0120867 0)
(0.0155988 0.0115921 0)
(0.0135154 0.0110266 0)
(0.0114639 0.0103972 0)
(0.00947321 0.00970075 0)
(0.00757092 0.008924 0)
(0.00578531 0.00804393 0)
(0.00414778 0.00703008 0)
(0.00269556 0.00584828 0)
(0.00147677 0.00446599 0)
(0.000563321 0.00285956 0)
(4.34847e-05 0.00102366 0)
(2.19117e-05 -0.000787829 0)
(0.000229675 -0.00192005 0)
(0.000553748 -0.00268299 0)
(0.000935426 -0.00314244 0)
(0.00132714 -0.00335573 0)
(0.00169558 -0.0033722 0)
(0.00201564 -0.00323328 0)
(0.00226759 -0.00297269 0)
(0.00243531 -0.00261695 0)
(0.00250494 -0.00218619 0)
(0.0024638 -0.00169491 0)
(0.00229964 -0.00115296 0)
(0.00200002 -0.000566331 0)
(0.00155197 6.21596e-05 0)
(0.00094162 0.000732233 0)
(0.000153994 0.00144574 0)
(-0.000827207 0.00220631 0)
(-0.00201979 0.00301911 0)
(-0.00344321 0.00389064 0)
(-0.00511867 0.00482859 0)
(-0.00706915 0.00584158 0)
(-0.00931935 0.00693888 0)
(-0.0118955 0.00813013 0)
(-0.0148251 0.0094248 0)
(-0.0181362 0.0108317 0)
(-0.0218569 0.0123585 0)
(-0.026014 0.0140105 0)
(-0.0306324 0.0157908 0)
(-0.0357336 0.0176987 0)
(-0.041334 0.0197297 0)
(-0.0474438 0.0218746 0)
(-0.0540654 0.0241191 0)
(-0.0611921 0.0264438 0)
(-0.0688074 0.0288241 0)
(-0.0768839 0.0312305 0)
(-0.0853836 0.0336291 0)
(-0.094258 0.0359826 0)
(-0.103449 0.0382514 0)
(-0.112892 0.0403949 0)
(-0.122514 0.0423731 0)
(-0.132242 0.0441477 0)
(-0.141999 0.0456841 0)
(-0.15171 0.0469518 0)
(-0.161306 0.047926 0)
(-0.170721 0.0485873 0)
(-0.179896 0.0489225 0)
(-0.188778 0.0489242 0)
(-0.197325 0.0485903 0)
(-0.205498 0.0479233 0)
(-0.213269 0.0469297 0)
(-0.220612 0.0456194 0)
(-0.22751 0.0440046 0)
(-0.233946 0.0420992 0)
(-0.239911 0.0399184 0)
(-0.245395 0.0374781 0)
(-0.250392 0.0347943 0)
(-0.254897 0.0318831 0)
(-0.258905 0.0287606 0)
(-0.262413 0.0254423 0)
(-0.265416 0.0219435 0)
(-0.26791 0.0182794 0)
(-0.269893 0.0144647 0)
(-0.271357 0.0105143 0)
(-0.272299 0.00644347 0)
(-0.272711 0.00226782 0)
(-0.272588 -0.00199665 0)
(-0.271923 -0.00633383 0)
(-0.27071 -0.0107247 0)
(-0.268939 -0.0151495 0)
(-0.266602 -0.0195868 0)
(-0.263691 -0.0240129 0)
(-0.260197 -0.0284016 0)
(-0.256112 -0.0327246 0)
(-0.25143 -0.0369503 0)
(-0.246145 -0.0410449 0)
(-0.240254 -0.0449716 0)
(-0.233757 -0.0486914 0)
(-0.226657 -0.0521628 0)
(-0.218962 -0.0553432 0)
(-0.210687 -0.0581888 0)
(-0.20185 -0.0606562 0)
(-0.192479 -0.0627031 0)
(-0.18261 -0.0642898 0)
(-0.172285 -0.0653808 0)
(-0.16156 -0.0659458 0)
(-0.150494 -0.0659619 0)
(-0.13916 -0.0654147 0)
(-0.127636 -0.0642997 0)
(-0.116008 -0.0626233 0)
(-0.104368 -0.0604034 0)
(-0.0928085 -0.0576694 0)
(-0.0814267 -0.0544625 0)
(-0.0703164 -0.0508339 0)
(-0.0595676 -0.046844 0)
(-0.0492646 -0.0425606 0)
(-0.0394832 -0.0380565 0)
(-0.0302894 -0.0334077 0)