/*--------------------------------*- C++ -*----------------------------------*\
| =========                 |                                                 |
| \\      /  F ield         | OpenFOAM: The Open Source CFD Toolbox           |
|  \\    /   O peration     | Version:  2406                                  |
|   \\  /    A nd           | Website:  www.openfoam.com                      |
|    \\/     M anipulation  |                                                 |
\*---------------------------------------------------------------------------*/
FoamFile
{
    version     2.0;
    format      ascii;
    arch        "LSB;label=32;scalar=64";
    class       volScalarField;
    location    "10.6";
    object      p;
}
// * * * * * * * * * * * * * * * * * * * * * * * * * * * * * * * * * * * * * //

dimensions      [0 2 -2 0 0 0 0];

internalField   nonuniform List<scalar> 
14400
(
-1.15655e-08
-1.53742e-06
-4.50465e-06
-8.37713e-06
-1.2483e-05
-1.63962e-05
-1.98386e-05
-2.2653e-05
-2.47693e-05
-2.61738e-05
-2.68872e-05
-2.69477e-05
-2.64004e-05
-2.52896e-05
-2.36542e-05
-2.15255e-05
-1.89259e-05
-1.58687e-05
-1.23586e-05
-8.39223e-06
-3.95914e-06
9.57318e-07
6.37908e-06
1.23326e-05
1.88481e-05
2.59591e-05
3.37014e-05
4.21131e-05
5.12338e-05
6.11044e-05
7.17665e-05
8.3262e-05
9.5633e-05
0.000108921
0.000123166
0.000138409
0.000154685
0.000172032
0.00019048
0.00021006
0.000230796
0.00025271
0.000275815
0.000300123
0.000325637
0.000352353
0.00038026
0.000409339
0.000439561
0.000470889
0.000503277
0.000536666
0.000570988
0.000606166
0.000642108
0.000678715
0.000715875
0.000753469
0.000791359
0.000829406
0.00086746
0.000905361
0.000942944
0.00098004
0.00101647
0.00105206
0.00108664
0.00112002
0.00115204
0.00118253
0.00121132
0.00123827
0.00126325
0.00128612
0.00130678
0.00132514
0.00134113
0.00135469
0.00136579
0.00137441
0.00138057
0.00138429
0.00138563
0.00138465
0.00138144
0.0013761
0.00136875
0.00135953
0.00134858
0.00133605
0.00132211
0.00130691
0.00129064
0.00127346
0.00125554
0.00123706
0.00121817
0.00119905
0.00117984
0.0011607
0.00114178
0.0011232
0.00110509
0.00108758
0.00107077
0.00105479
0.00103969
0.00102562
0.00101264
0.00100085
0.000990316
0.000981126
0.000973352
0.000967063
0.000962314
0.00095913
0.000957475
0.000957204
0.000958035
0.000959084
1.50868e-06
-3.41861e-08
-2.73121e-06
-6.11439e-06
-9.68821e-06
-1.3087e-05
-1.60746e-05
-1.85114e-05
-2.0328e-05
-2.15036e-05
-2.20479e-05
-2.19875e-05
-2.13563e-05
-2.01888e-05
-1.8516e-05
-1.63627e-05
-1.37464e-05
-1.06768e-05
-7.1562e-06
-3.17978e-06
1.26373e-06
6.19123e-06
1.16246e-05
1.75898e-05
2.41165e-05
3.12373e-05
3.89873e-05
4.74035e-05
5.65247e-05
6.63906e-05
7.70418e-05
8.8519e-05
0.000100863
0.000114115
0.000128314
0.000143497
0.000159703
0.000176964
0.000195312
0.000214776
0.00023538
0.000257143
0.00028008
0.0003042
0.000329507
0.000355997
0.000383657
0.000412469
0.000442404
0.000473426
0.000505488
0.000538533
0.000572494
0.000607293
0.000642843
0.000679044
0.000715785
0.000752946
0.0007904
0.000828005
0.000865612
0.000903066
0.000940204
0.000976858
0.00101286
0.00104802
0.00108219
0.00111517
0.00114681
0.00117694
0.0012054
0.00123204
0.00125673
0.00127935
0.00129979
0.00131795
0.00133378
0.00134721
0.00135822
0.00136679
0.00137292
0.00137666
0.00137804
0.00137714
0.00137404
0.00136884
0.00136166
0.00135263
0.0013419
0.00132961
0.00131593
0.00130101
0.00128504
0.00126816
0.00125057
0.00123242
0.00121388
0.0011951
0.00117625
0.00115748
0.00113891
0.00112069
0.00110295
0.00108581
0.00106936
0.00105372
0.00103901
0.0010253
0.00101266
0.00100118
0.000990946
0.00098202
0.000974468
0.000968341
0.000963681
0.000960497
0.000958745
0.000958308
0.000959079
0.00096013
4.51325e-06
2.63062e-06
-1.19905e-07
-3.1237e-06
-6.17835e-06
-9.03319e-06
-1.15105e-05
-1.35022e-05
-1.49506e-05
-1.58332e-05
-1.61522e-05
-1.59236e-05
-1.51705e-05
-1.39171e-05
-1.21853e-05
-9.99261e-06
-7.35064e-06
-4.2647e-06
-7.33788e-07
3.2491e-06
7.69654e-06
1.26261e-05
1.80597e-05
2.40233e-05
3.05458e-05
3.76593e-05
4.53978e-05
5.37975e-05
6.2896e-05
7.27318e-05
8.33445e-05
9.47736e-05
0.000107059
0.00012024
0.000134354
0.000149439
0.000165531
0.000182661
0.000200861
0.000220158
0.000240576
0.000262132
0.000284843
0.000308715
0.000333752
0.00035995
0.000387297
0.000415774
0.000445354
0.000476001
0.000507667
0.000540298
0.000573829
0.000608182
0.000643271
0.000678999
0.000715259
0.00075193
0.000788887
0.000825993
0.000863102
0.000900059
0.000936705
0.000972876
0.0010084
0.00104311
0.00107683
0.00110939
0.00114062
0.00117036
0.00119846
0.00122477
0.00124916
0.00127151
0.00129171
0.00130967
0.00132532
0.00133861
0.00134952
0.00135801
0.00136411
0.00136784
0.00136926
0.00136842
0.00136541
0.00136034
0.00135332
0.00134448
0.00133395
0.0013219
0.00130848
0.00129385
0.00127817
0.00126162
0.00124436
0.00122656
0.00120838
0.00118998
0.00117152
0.00115313
0.00113497
0.00111716
0.00109984
0.00108311
0.00106708
0.00105187
0.00103757
0.00102425
0.001012
0.00100091
0.000991021
0.000982407
0.000975115
0.000969182
0.000964632
0.000961465
0.000959632
0.000959058
0.000959845
0.000960968
8.4788e-06
6.00045e-06
2.74371e-06
-3.02241e-07
-3.19469e-06
-5.78257e-06
-7.94741e-06
-9.62439e-06
-1.07819e-05
-1.14105e-05
-1.15168e-05
-1.11168e-05
-1.02301e-05
-8.87643e-06
-7.07266e-06
-4.83134e-06
-2.15974e-06
9.40543e-07
4.4735e-06
8.44848e-06
1.28798e-05
1.77861e-05
2.31901e-05
2.9118e-05
3.5599e-05
4.26648e-05
5.03493e-05
5.86881e-05
6.77183e-05
7.7478e-05
8.80058e-05
9.9341e-05
0.000111522
0.000124589
0.000138578
0.000153526
0.000169469
0.000186438
0.000204464
0.000223574
0.000243791
0.000265134
0.000287617
0.00031125
0.000336036
0.00036197
0.000389042
0.000417233
0.000446518
0.000476861
0.000508217
0.000540531
0.00057374
0.000607768
0.000642531
0.000677934
0.000713869
0.000750221
0.000786863
0.000823659
0.000860466
0.000897132
0.000933497
0.000969397
0.00100466
0.00103913
0.00107261
0.00110496
0.00113599
0.00116554
0.00119347
0.00121962
0.00124386
0.00126608
0.00128616
0.00130401
0.00131957
0.00133278
0.00134361
0.00135205
0.0013581
0.0013618
0.00136319
0.00136234
0.00135933
0.00135428
0.00134728
0.00133848
0.00132801
0.00131603
0.00130269
0.00128816
0.0012726
0.00125618
0.00123907
0.00122143
0.00120342
0.00118522
0.00116696
0.0011488
0.00113087
0.00111331
0.00109624
0.00107977
0.00106403
0.00104909
0.00103507
0.00102204
0.00101007
0.000999242
0.000989607
0.000981218
0.000974117
0.000968333
0.000963885
0.000960775
0.000958969
0.000958433
0.000959409
0.00096073
1.27084e-05
9.53281e-06
5.58866e-06
2.30933e-06
-5.95264e-07
-3.05804e-06
-5.01683e-06
-6.45268e-06
-7.36575e-06
-7.7657e-06
-7.67009e-06
-7.09988e-06
-6.07588e-06
-4.61647e-06
-2.73594e-06
-4.43658e-07
2.25641e-06
5.36575e-06
8.89107e-06
1.2844e-05
1.72407e-05
2.21013e-05
2.74495e-05
3.33122e-05
3.97189e-05
4.67018e-05
5.42946e-05
6.25329e-05
7.14537e-05
8.10947e-05
9.14946e-05
0.000102692
0.000114726
0.000127635
0.000141456
0.000156226
0.000171981
0.000188751
0.000206569
0.000225461
0.00024545
0.000266557
0.000288796
0.000312177
0.000336705
0.000362375
0.00038918
0.000417101
0.000446113
0.000476184
0.000507268
0.000539315
0.00057226
0.000606031
0.000640544
0.000675706
0.000711411
0.000747544
0.000783981
0.000820586
0.000857216
0.000893719
0.000929937
0.000965706
0.00100086
0.00103522
0.00106862
0.00110088
0.00113185
0.00116135
0.00118923
0.00121534
0.00123955
0.00126173
0.00128178
0.0012996
0.00131513
0.0013283
0.00133909
0.00134749
0.0013535
0.00135715
0.00135848
0.00135758
0.00135452
0.00134941
0.00134236
0.00133351
0.001323
0.00131098
0.00129761
0.00128306
0.00126749
0.00125108
0.00123399
0.00121639
0.00119845
0.00118032
0.00116215
0.0011441
0.0011263
0.00110888
0.00109197
0.00107568
0.00106013
0.0010454
0.00103158
0.00101876
0.00100701
0.000996386
0.000986948
0.000978739
0.000971795
0.000966139
0.000961789
0.000958751
0.000957004
0.000956541
0.000957681
0.000959153
1.66607e-05
1.27499e-05
8.04504e-06
4.42821e-06
1.40252e-06
-1.03387e-06
-2.86857e-06
-4.12666e-06
-4.8412e-06
-5.04372e-06
-4.76594e-06
-4.03717e-06
-2.88243e-06
-1.32135e-06
6.32331e-07
2.97092e-06
5.69265e-06
8.80136e-06
1.23061e-05
1.62204e-05
2.05625e-05
2.53537e-05
3.06192e-05
3.63866e-05
4.26864e-05
4.95508e-05
5.70143e-05
6.51126e-05
7.38829e-05
8.3363e-05
9.35918e-05
0.000104608
0.000116451
0.000129159
0.00014277
0.000157321
0.000172848
0.000189383
0.000206958
0.000225601
0.000245336
0.000266184
0.000288161
0.000311278
0.000335541
0.000360948
0.000387492
0.000415157
0.000443919
0.000473747
0.000504598
0.000536423
0.00056916
0.000602737
0.000637073
0.000672074
0.000707638
0.00074365
0.000779985
0.000816509
0.000853079
0.000889543
0.000925742
0.00096151
0.000996678
0.00103107
0.00106452
0.00109684
0.00112788
0.00115745
0.0011854
0.00121159
0.00123587
0.00125812
0.00127822
0.00129609
0.00131165
0.00132485
0.00133564
0.00134402
0.00134999
0.00135359
0.00135486
0.00135387
0.00135071
0.00134549
0.00133832
0.00132934
0.0013187
0.00130656
0.00129307
0.0012784
0.00126272
0.00124621
0.00122904
0.00121137
0.00119338
0.00117521
0.00115704
0.001139
0.00112123
0.00110386
0.00108703
0.00107083
0.00105538
0.00104078
0.0010271
0.00101442
0.00100282
0.000992353
0.000983063
0.000974993
0.000968173
0.000962624
0.000958362
0.000955396
0.000953712
0.000953317
0.00095456
0.000956116
1.98852e-05
1.52443e-05
9.76186e-06
5.75338e-06
2.53918e-06
6.06531e-08
-1.71294e-06
-2.84707e-06
-3.40657e-06
-3.44539e-06
-3.01089e-06
-2.14261e-06
-8.71613e-07
7.79358e-07
2.79556e-06
5.16966e-06
7.90109e-06
1.09953e-05
1.44631e-05
1.83199e-05
2.25853e-05
2.72824e-05
3.24373e-05
3.8079e-05
4.42385e-05
5.09492e-05
5.82458e-05
6.61648e-05
7.47439e-05
8.40213e-05
9.40364e-05
0.000104829
0.000116438
0.000128903
0.000142263
0.000156555
0.000171816
0.00018808
0.00020538
0.000223744
0.0002432
0.000263768
0.000285467
0.000308311
0.000332305
0.00035745
0.000383742
0.000411167
0.000439702
0.000469318
0.000499976
0.000531626
0.00056421
0.000597656
0.000631886
0.000666807
0.000702316
0.000738301
0.000774636
0.000811188
0.000847812
0.000884356
0.00092066
0.000956555
0.00099187
0.00102643
0.00106005
0.00109257
0.0011238
0.00115357
0.00118172
0.0012081
0.00123257
0.00125498
0.00127524
0.00129323
0.00130889
0.00132216
0.001333
0.00134139
0.00134735
0.0013509
0.00135209
0.001351
0.00134771
0.00134233
0.00133499
0.00132582
0.00131498
0.00130263
0.00128893
0.00127405
0.00125817
0.00124146
0.00122411
0.00120628
0.00118813
0.00116984
0.00115156
0.00113344
0.00111562
0.00109822
0.00108137
0.00106519
0.00104978
0.00103522
0.00102162
0.00100903
0.000997518
0.000987148
0.000977959
0.000969987
0.000963259
0.000957792
0.000953602
0.000950697
0.000949067
0.000948722
0.000950014
0.000951601
2.19998e-05
1.66579e-05
1.04162e-05
5.99842e-06
2.5617e-06
-6.27127e-10
-1.7568e-06
-2.8087e-06
-3.25064e-06
-3.15821e-06
-2.59446e-06
-1.60979e-06
-2.42317e-07
1.4811e-06
3.54366e-06
5.93743e-06
8.66221e-06
1.17244e-05
1.51361e-05
1.89142e-05
2.30795e-05
2.76566e-05
3.26729e-05
3.81582e-05
4.41448e-05
5.06669e-05
5.77601e-05
6.54617e-05
7.38101e-05
8.28446e-05
9.26052e-05
0.000103132
0.000114467
0.000126649
0.000139718
0.000153714
0.000168674
0.000184634
0.000201628
0.000219688
0.000238841
0.000259112
0.00028052
0.000303081
0.000326804
0.000351692
0.000377743
0.000404943
0.000433276
0.000462712
0.000493214
0.000524736
0.000557219
0.000590596
0.000624788
0.000659704
0.000695242
0.000731288
0.00076772
0.000804401
0.000841188
0.000877924
0.000914449
0.000950592
0.000986178
0.00102103
0.00105496
0.00108779
0.00111934
0.00114944
0.00117791
0.00120459
0.00122934
0.00125203
0.00127252
0.00129073
0.00130657
0.00131997
0.0013309
0.00133935
0.00134531
0.00134883
0.00134994
0.00134873
0.00134528
0.00133971
0.00133215
0.00132275
0.00131164
0.00129901
0.00128502
0.00126985
0.00125369
0.0012367
0.00121908
0.00120099
0.00118262
0.00116412
0.00114565
0.00112736
0.0011094
0.0010919
0.00107497
0.00105873
0.00104329
0.00102872
0.00101512
0.00100256
0.000991095
0.000980775
0.000971644
0.000963734
0.000957066
0.000951657
0.000947519
0.000944661
0.000943071
0.000942756
0.00094406
0.000945645
2.2673e-05
1.66702e-05
9.70627e-06
4.88443e-06
1.21382e-06
-1.45435e-06
-3.22152e-06
-4.22231e-06
-4.57793e-06
-4.38402e-06
-3.71861e-06
-2.64276e-06
-1.20182e-06
5.72723e-07
2.66144e-06
5.0552e-06
7.75357e-06
1.07634e-05
1.40976e-05
1.7774e-05
2.18148e-05
2.62456e-05
3.10949e-05
3.63938e-05
4.21756e-05
4.84755e-05
5.53303e-05
6.27783e-05
7.08588e-05
7.96124e-05
8.90802e-05
9.93041e-05
0.000110326
0.000122188
0.000134931
0.000148596
0.000163223
0.00017885
0.000195513
0.000213245
0.000232077
0.000252035
0.000273143
0.000295417
0.00031887
0.000343507
0.000369328
0.000396324
0.000424478
0.000453766
0.000484151
0.000515589
0.000548025
0.000581391
0.00061561
0.000650593
0.000686237
0.000722431
0.000759049
0.000795956
0.000833006
0.000870042
0.000906899
0.000943405
0.000979379
0.00101464
0.001049
0.00108226
0.00111426
0.00114479
0.0011737
0.0012008
0.00122595
0.001249
0.00126983
0.00128833
0.00130441
0.00131802
0.0013291
0.00133764
0.00134364
0.00134713
0.00134817
0.00134683
0.00134322
0.00133743
0.00132961
0.00131992
0.00130849
0.00129552
0.00128118
0.00126565
0.00124913
0.00123178
0.00121382
0.0011954
0.00117671
0.00115793
0.0011392
0.00112068
0.00110251
0.00108483
0.00106776
0.00105141
0.00103587
0.00102124
0.0010076
0.000995016
0.000983545
0.000973235
0.000964124
0.000956241
0.000949605
0.000944231
0.000940127
0.0009373
0.000935735
0.000935436
0.000936732
0.000938299
2.16089e-05
1.49894e-05
7.3485e-06
2.14042e-06
-1.7619e-06
-4.5453e-06
-6.34125e-06
-7.31398e-06
-7.60911e-06
-7.34057e-06
-6.60016e-06
-5.45894e-06
-3.96927e-06
-2.16725e-06
-7.51668e-08
2.29629e-06
4.94608e-06
7.88109e-06
1.11147e-05
1.46655e-05
1.85567e-05
2.28147e-05
2.74693e-05
3.25526e-05
3.80991e-05
4.4145e-05
5.07285e-05
5.78889e-05
6.56671e-05
7.4105e-05
8.32452e-05
9.31312e-05
0.000103807
0.000115315
0.000127701
0.000141006
0.000155273
0.000170542
0.000186852
0.000204239
0.000222735
0.000242372
0.000263173
0.00028516
0.000308347
0.000332743
0.00035835
0.000385163
0.000413166
0.000442338
0.000472645
0.000504045
0.000536483
0.000569895
0.000604205
0.000639323
0.000675149
0.000711569
0.00074846
0.000785684
0.000823093
0.000860529
0.000897824
0.0009348
0.000971275
0.00100706
0.00104196
0.00107578
0.00110834
0.00113943
0.00116888
0.00119651
0.00122216
0.00124568
0.00126694
0.00128582
0.00130222
0.00131609
0.00132738
0.00133605
0.00134212
0.00134562
0.0013466
0.00134513
0.00134132
0.0013353
0.00132719
0.00131716
0.00130537
0.00129201
0.00127725
0.0012613
0.00124435
0.00122658
0.0012082
0.00118938
0.00117032
0.00115117
0.00113212
0.0011133
0.00109487
0.00107696
0.00105969
0.00104316
0.00102748
0.00101274
0.000999016
0.000986367
0.000974852
0.000964515
0.000955391
0.000947506
0.000940878
0.000935516
0.00093143
0.00092862
0.000927072
0.000926781
0.000928064
0.000929613
1.85376e-05
1.13462e-05
3.07651e-06
-2.49351e-06
-6.61743e-06
-9.51741e-06
-1.13526e-05
-1.23142e-05
-1.25701e-05
-1.22508e-05
-1.14605e-05
-1.02793e-05
-8.7661e-06
-6.96129e-06
-4.89e-06
-2.56459e-06
1.30958e-08
2.84973e-06
5.95889e-06
9.35979e-06
1.30762e-05
1.71356e-05
2.15685e-05
2.64084e-05
3.16908e-05
3.74532e-05
4.37351e-05
5.05773e-05
5.80221e-05
6.61132e-05
7.48951e-05
8.4413e-05
9.47127e-05
0.00010584
0.000117842
0.000130763
0.000144648
0.00015954
0.000175481
0.00019251
0.000210663
0.000229972
0.000250467
0.00027217
0.0002951
0.000319269
0.000344681
0.000371334
0.000399215
0.000428305
0.000458573
0.000489978
0.000522469
0.000555981
0.000590441
0.000625759
0.000661836
0.000698559
0.000735803
0.000773429
0.000811287
0.000849218
0.000887049
0.0009246
0.000961682
0.0009981
0.00103366
0.00106815
0.00110138
0.00113314
0.00116325
0.00119152
0.00121778
0.00124187
0.00126364
0.00128299
0.0012998
0.001314
0.00132555
0.0013344
0.00134058
0.0013441
0.00134503
0.00134344
0.00133944
0.00133315
0.00132472
0.00131432
0.00130212
0.00128832
0.00127309
0.00125666
0.00123921
0.00122096
0.00120209
0.00118282
0.00116331
0.00114375
0.00112431
0.00110514
0.00108639
0.0010682
0.00105067
0.00103393
0.00101807
0.00100318
0.000989329
0.000976581
0.000964988
0.000954593
0.000945429
0.000937518
0.000930876
0.000925511
0.000921428
0.000918627
0.00091709
0.000916807
0.000918087
0.000919628
1.32089e-05
5.48938e-06
-3.36094e-06
-9.26578e-06
-1.3597e-05
-1.66102e-05
-1.84902e-05
-1.94534e-05
-1.96878e-05
-1.93388e-05
-1.85218e-05
-1.7325e-05
-1.58129e-05
-1.40301e-05
-1.20041e-05
-9.74889e-06
-7.26728e-06
-4.55288e-06
-1.59205e-06
1.63479e-06
5.15198e-06
8.98779e-06
1.31738e-05
1.77443e-05
2.27362e-05
2.81882e-05
3.41413e-05
4.06379e-05
4.77223e-05
5.54397e-05
6.38369e-05
7.29614e-05
8.28614e-05
9.35855e-05
0.000105182
0.0001177
0.000131187
0.000145689
0.000161251
0.000177915
0.00019572
0.000214703
0.000234896
0.000256324
0.00027901
0.000302968
0.000328207
0.000354724
0.000382513
0.000411555
0.000441822
0.000473276
0.000505865
0.00053953
0.000574195
0.000609773
0.000646166
0.000683261
0.00072093
0.000759037
0.000797429
0.000835942
0.000874403
0.000912626
0.000950416
0.000987574
0.00102389
0.00105916
0.00109318
0.00112573
0.00115661
0.00118562
0.0012126
0.00123736
0.00125975
0.00127965
0.00129695
0.00131156
0.00132342
0.00133252
0.00133884
0.00134242
0.00134331
0.00134159
0.00133739
0.00133083
0.00132206
0.00131125
0.0012986
0.0012843
0.00126855
0.00125158
0.00123358
0.00121478
0.00119538
0.00117558
0.00115557
0.00113555
0.00111567
0.0010961
0.00107698
0.00105846
0.00104065
0.00102366
0.00100758
0.0009925
0.000978492
0.000965615
0.000953919
0.000943442
0.000934216
0.00092626
0.000919587
0.000914205
0.000910116
0.000907319
0.000905792
0.000905525
0.000906819
0.000908369
5.38935e-06
-2.8166e-06
-1.22011e-05
-1.84131e-05
-2.29357e-05
-2.60561e-05
-2.79838e-05
-2.89583e-05
-2.91861e-05
-2.88262e-05
-2.80037e-05
-2.68142e-05
-2.5327e-05
-2.35901e-05
-2.16334e-05
-1.94723e-05
-1.71104e-05
-1.45416e-05
-1.17524e-05
-8.72291e-06
-5.42822e-06
-1.83938e-06
2.07608e-06
6.35355e-06
1.1031e-05
1.61489e-05
2.17495e-05
2.78772e-05
3.4578e-05
4.18994e-05
4.98905e-05
5.86013e-05
6.80826e-05
7.8386e-05
8.95631e-05
0.000101665
0.000114744
0.000128848
0.000144026
0.000160323
0.000177783
0.000196445
0.000216344
0.00023751
0.000259967
0.000283734
0.000308821
0.00033523
0.000362956
0.000391983
0.000422286
0.000453827
0.000486558
0.00052042
0.000555341
0.000591233
0.000628
0.000665527
0.000703689
0.000742347
0.000781348
0.000820525
0.0008597
0.000898685
0.00093728
0.000975277
0.00101246
0.00104862
0.00108353
0.00111697
0.00114874
0.00117862
0.00120641
0.00123195
0.00125506
0.00127561
0.00129348
0.00130857
0.00132083
0.00133021
0.00133672
0.00134039
0.00134126
0.00133944
0.00133503
0.00132817
0.00131903
0.00130779
0.00129465
0.00127981
0.00126349
0.00124593
0.00122733
0.00120792
0.00118793
0.00116755
0.00114699
0.00112645
0.00110608
0.00108607
0.00106655
0.00104766
0.00102953
0.00101225
0.000995925
0.000980635
0.000966448
0.000953422
0.000941602
0.000931026
0.00092172
0.000913705
0.000906991
0.000901583
0.000897483
0.000894689
0.000893177
0.000892934
0.000894265
0.000895847
-5.14054e-06
-1.37934e-05
-2.36679e-05
-3.01605e-05
-3.48582e-05
-3.8079e-05
-4.00555e-05
-4.10491e-05
-4.12833e-05
-4.09291e-05
-4.01207e-05
-3.89596e-05
-3.75196e-05
-3.58514e-05
-3.3987e-05
-3.19429e-05
-2.97234e-05
-2.73227e-05
-2.47273e-05
-2.1917e-05
-1.88666e-05
-1.55462e-05
-1.19227e-05
-7.95942e-06
-3.61717e-06
1.14589e-06
6.37387e-06
1.2113e-05
1.84114e-05
2.53191e-05
3.28874e-05
4.11692e-05
5.02182e-05
6.0089e-05
7.08365e-05
8.25154e-05
9.51802e-05
0.000108884
0.000123678
0.000139613
0.000156733
0.000175083
0.0001947
0.000215619
0.000237865
0.000261461
0.00028642
0.000312747
0.000340438
0.00036948
0.00039985
0.000431514
0.000464424
0.000498524
0.000533742
0.000569993
0.000607181
0.000645194
0.000683905
0.000723174
0.000762849
0.00080276
0.000842726
0.000882555
0.000922041
0.000960972
0.000999125
0.00103627
0.00107219
0.00110664
0.00113939
0.00117025
0.00119898
0.0012254
0.00124934
0.00127064
0.00128917
0.00130483
0.00131755
0.00132729
0.00133404
0.00133783
0.00133872
0.0013368
0.00133219
0.00132503
0.00131551
0.0013038
0.00129013
0.00127471
0.00125778
0.00123956
0.00122031
0.00120025
0.0011796
0.0011586
0.00113744
0.00111633
0.00109544
0.00107494
0.00105498
0.0010357
0.00101722
0.000999632
0.000983041
0.000967521
0.000953138
0.000939946
0.000927989
0.000917301
0.000907907
0.000899823
0.00089306
0.000887622
0.00088351
0.000880721
0.000879232
0.000879028
0.000880422
0.000882059
-1.8587e-05
-2.76498e-05
-3.79729e-05
-4.47208e-05
-4.95781e-05
-5.28923e-05
-5.49184e-05
-5.59376e-05
-5.61896e-05
-5.58563e-05
-5.50796e-05
-5.39665e-05
-5.25944e-05
-5.10163e-05
-4.92657e-05
-4.73602e-05
-4.53044e-05
-4.30928e-05
-4.07119e-05
-3.81411e-05
-3.53546e-05
-3.23222e-05
-2.90096e-05
-2.53791e-05
-2.139e-05
-1.69991e-05
-1.21603e-05
-6.8255e-06
-9.44143e-07
5.53613e-06
1.26695e-05
2.05116e-05
2.91194e-05
3.85506e-05
4.88635e-05
6.01165e-05
7.23673e-05
8.56728e-05
0.000100088
0.000115666
0.000132457
0.000150507
0.000169857
0.000190544
0.000212598
0.000236043
0.000260896
0.000287163
0.000314843
0.000343927
0.000374391
0.000406204
0.000439323
0.00047369
0.000509237
0.000545881
0.000583526
0.000622063
0.000661365
0.000701293
0.000741693
0.000782396
0.000823218
0.000863961
0.000904417
0.000944365
0.000983576
0.00102181
0.00105883
0.0010944
0.00112827
0.00116021
0.00119
0.00121743
0.00124231
0.00126447
0.00128377
0.00130009
0.00131336
0.00132353
0.00133059
0.00133456
0.0013355
0.0013335
0.0013287
0.00132124
0.00131131
0.00129912
0.00128489
0.00126885
0.00125126
0.00123235
0.00121239
0.00119162
0.00117028
0.0011486
0.0011268
0.00110508
0.00108363
0.00106261
0.00104219
0.00102248
0.00100363
0.000985718
0.000968845
0.000953083
0.000938494
0.000925129
0.000913028
0.000902222
0.000892734
0.000884578
0.000877764
0.000872295
0.000868173
0.000865396
0.000863939
0.00086379
0.000865273
0.000866989
-3.51439e-05
-4.4582e-05
-5.53151e-05
-6.22949e-05
-6.72976e-05
-7.06989e-05
-7.27748e-05
-7.38258e-05
-7.41059e-05
-7.38072e-05
-7.30785e-05
-7.20313e-05
-7.07461e-05
-6.92779e-05
-6.76611e-05
-6.5914e-05
-6.40416e-05
-6.20386e-05
-5.9891e-05
-5.75781e-05
-5.50737e-05
-5.23465e-05
-4.93613e-05
-4.60795e-05
-4.24588e-05
-3.84543e-05
-3.40181e-05
-2.90998e-05
-2.36465e-05
-1.76033e-05
-1.09132e-05
-3.51729e-06
4.64442e-06
1.36331e-05
2.35106e-05
3.43386e-05
4.61788e-05
5.90915e-05
7.31355e-05
8.8367e-05
0.00010484
0.000122602
0.0001417
0.000162172
0.000184051
0.000207364
0.000232128
0.000258354
0.000286042
0.000315184
0.000345761
0.000377741
0.000411084
0.000445735
0.000481628
0.000518682
0.000556804
0.000595885
0.000635803
0.000676419
0.000717578
0.000759112
0.000800835
0.000842547
0.000884036
0.000925074
0.000965423
0.00100484
0.00104307
0.00107986
0.00111495
0.00114811
0.00117908
0.00120764
0.00123358
0.00125673
0.00127692
0.00129403
0.00130796
0.00131866
0.00132611
0.00133032
0.00133137
0.00132934
0.00132437
0.00131662
0.00130629
0.0012936
0.00127878
0.00126209
0.00124379
0.00122415
0.00120344
0.00118191
0.00115983
0.00113743
0.00111494
0.00109258
0.00107053
0.00104897
0.00102805
0.00100791
0.000988665
0.000970419
0.000953256
0.000937247
0.000922449
0.000908909
0.000896663
0.000885739
0.000876156
0.000867929
0.000861066
0.000855569
0.000851443
0.000848684
0.000847272
0.000847194
0.000848792
0.000850611
-5.49929e-05
-6.4774e-05
-7.58813e-05
-8.30716e-05
-8.82069e-05
-9.16897e-05
-9.38162e-05
-9.49046e-05
-9.52226e-05
-9.49711e-05
-9.43053e-05
-9.33405e-05
-9.21598e-05
-9.08194e-05
-8.93548e-05
-8.77845e-05
-8.61137e-05
-8.43368e-05
-8.24398e-05
-8.04015e-05
-7.81949e-05
-7.57882e-05
-7.3145e-05
-7.02253e-05
-6.69857e-05
-6.33792e-05
-5.93561e-05
-5.48636e-05
-4.98465e-05
-4.42469e-05
-3.80049e-05
-3.10587e-05
-2.33447e-05
-1.47984e-05
-5.3545e-06
5.05253e-06
1.64877e-05
2.9015e-05
4.26966e-05
5.75923e-05
7.37583e-05
9.1247e-05
0.000110106
0.000130377
0.000152095
0.000175288
0.000199977
0.000226172
0.000253878
0.000283086
0.000313779
0.000345929
0.000379496
0.000414429
0.000450664
0.000488124
0.000526717
0.00056634
0.000606871
0.000648175
0.0006901
0.000732477
0.000775122
0.000817833
0.000860393
0.000902572
0.000944125
0.000984796
0.00102432
0.00106244
0.00109887
0.00113336
0.00116565
0.00119549
0.00122265
0.00124694
0.00126817
0.00128621
0.00130093
0.00131229
0.00132024
0.00132481
0.00132605
0.00132405
0.00131897
0.00131097
0.00130025
0.00128706
0.00127164
0.00125428
0.00123524
0.00121483
0.00119332
0.00117099
0.00114812
0.00112496
0.00110175
0.0010787
0.00105603
0.00103389
0.00101247
0.000991873
0.000972235
0.000953647
0.000936193
0.000919936
0.000904932
0.00089122
0.000878834
0.000867797
0.000858127
0.000849834
0.000842927
0.000837409
0.000833285
0.000830555
0.000829198
0.000829208
0.000830945
0.000832888
-7.8304e-05
-8.83981e-05
-9.98463e-05
-0.000107228
-0.000112484
-0.000116044
-0.000118222
-0.000119354
-0.000119719
-0.000119527
-0.000118937
-0.00011807
-0.00011701
-0.000115814
-0.000114519
-0.000113142
-0.000111689
-0.000110155
-0.000108524
-0.000106775
-0.000104881
-0.000102808
-0.000100519
-9.79735e-05
-9.51255e-05
-9.19266e-05
-8.83248e-05
-8.42653e-05
-7.969e-05
-7.45384e-05
-6.87475e-05
-6.22521e-05
-5.49856e-05
-4.68798e-05
-3.78659e-05
-2.78749e-05
-1.68382e-05
-4.6884e-06
8.63987e-06
2.32094e-05
3.90794e-05
5.63048e-05
7.49351e-05
9.50141e-05
0.000116579
0.000139658
0.000164275
0.00019044
0.000218159
0.000247424
0.000278221
0.000310522
0.00034429
0.000379476
0.00041602
0.000453848
0.000492874
0.000532997
0.0005741
0.000616054
0.000658709
0.000701901
0.000745447
0.000789146
0.000832781
0.000876117
0.000918906
0.000960884
0.00100178
0.00104131
0.0010792
0.00111515
0.0011489
0.00118018
0.00120873
0.00123434
0.00125681
0.00127596
0.00129168
0.00130388
0.00131251
0.00131759
0.00131916
0.00131732
0.00131221
0.00130403
0.00129298
0.00127932
0.00126332
0.00124527
0.00122548
0.00120426
0.00118192
0.00115875
0.00113505
0.00111109
0.00108711
0.00106335
0.00104002
0.0010173
0.000995342
0.000974286
0.000954247
0.000935318
0.000917574
0.000901078
0.000885875
0.000872002
0.000859485
0.000848346
0.000838596
0.000830247
0.000823305
0.000817774
0.000813661
0.000810969
0.000809681
0.000809793
0.000811691
0.000813777
-0.000105235
-0.000115615
-0.000127373
-0.000134928
-0.000140296
-0.00014393
-0.000146161
-0.000147342
-0.000147763
-0.000147641
-0.000147141
-0.000146386
-0.000145461
-0.000144425
-0.000143314
-0.000142147
-0.000140928
-0.00013965
-0.0001383
-0.000136855
-0.000135285
-0.000133559
-0.000131636
-0.000129474
-0.000127027
-0.000124244
-0.000121071
-0.00011745
-0.000113321
-0.000108621
-0.000103283
-9.72387e-05
-9.04187e-05
-8.27511e-05
-7.41637e-05
-6.4584e-05
-5.39401e-05
-4.21614e-05
-2.91795e-05
-1.4929e-05
6.51754e-07
1.76195e-05
3.60256e-05
5.59148e-05
7.73249e-05
0.000100286
0.000124819
0.000150938
0.000178647
0.000207939
0.000238799
0.000271203
0.000305114
0.000340487
0.000377264
0.000415378
0.000454745
0.000495273
0.00053685
0.000579353
0.00062264
0.000666552
0.000710912
0.000755523
0.000800171
0.000844621
0.000888624
0.000931913
0.000974207
0.00101522
0.00105464
0.00109219
0.00112755
0.00116045
0.00119062
0.00121779
0.00124174
0.00126228
0.00127926
0.00129257
0.00130215
0.00130798
0.00131011
0.00130863
0.00130369
0.00129547
0.0012842
0.00127015
0.00125362
0.00123492
0.00121439
0.00119236
0.00116916
0.00114512
0.00112055
0.00109574
0.00107096
0.00104645
0.00102244
0.000999097
0.000976595
0.000955067
0.000934624
0.000915354
0.000897329
0.000880602
0.000865213
0.000851192
0.00083856
0.000827331
0.000817516
0.000809122
0.000802156
0.000796622
0.00079253
0.000789887
0.000788678
0.000788905
0.000790983
0.000793228
-0.000135934
-0.000146573
-0.000158613
-0.000166326
-0.000171797
-0.000175502
-0.000177789
-0.000179025
-0.00017951
-0.00017947
-0.000179073
-0.000178443
-0.000177668
-0.000176806
-0.000175895
-0.000174951
-0.000173979
-0.000172974
-0.000171917
-0.000170788
-0.000169556
-0.000168187
-0.000166641
-0.000164874
-0.000162836
-0.000160477
-0.000157738
-0.000154562
-0.000150884
-0.000146638
-0.000141755
-0.000136164
-0.000129791
-0.00012256
-0.000114398
-0.000105227
-9.49728e-05
-8.35621e-05
-7.09237e-05
-5.69902e-05
-4.16982e-05
-2.49896e-05
-6.81265e-06
1.28777e-05
3.41187e-05
5.69396e-05
8.13608e-05
0.000107394
0.000135042
0.000164297
0.000195145
0.00022756
0.000261508
0.000296945
0.000333818
0.000372064
0.000411607
0.00045236
0.000494222
0.000537078
0.000580796
0.000625229
0.000670207
0.000715545
0.000761036
0.000806453
0.00085155
0.000896062
0.000939707
0.000982191
0.00102321
0.00106244
0.00109958
0.00113431
0.00116634
0.00119537
0.00122116
0.00124347
0.00126211
0.00127695
0.00128788
0.00129488
0.00129796
0.00129719
0.00129273
0.00128474
0.00127349
0.00125924
0.00124232
0.00122306
0.00120184
0.00117902
0.00115496
0.00113003
0.00110456
0.00107887
0.00105325
0.00102796
0.00100322
0.000979239
0.000956173
0.00093416
0.000913307
0.000893698
0.000875398
0.000858451
0.000842891
0.000828739
0.000816007
0.000804706
0.000794841
0.000786416
0.000779437
0.00077391
0.000769848
0.000767262
0.000766142
0.000766496
0.000768769
0.000771186
-0.000170536
-0.00018141
-0.000193706
-0.000201563
-0.00020713
-0.000210904
-0.00021325
-0.000214548
-0.000215107
-0.000215159
-0.000214876
-0.000214385
-0.000213773
-0.000213101
-0.000212403
-0.000211697
-0.000210987
-0.000210266
-0.000209518
-0.000208718
-0.000207836
-0.000206836
-0.000205677
-0.000204314
-0.000202695
-0.000200768
-0.000198473
-0.000195747
-0.000192526
-0.00018874
-0.000184317
-0.000179181
-0.000173257
-0.000166467
-0.00015873
-0.00014997
-0.000140108
-0.000129068
-0.000116777
-0.000103166
-8.81713e-05
-7.17346e-05
-5.38046e-05
-3.43379e-05
-1.32994e-05
9.33731e-06
3.35894e-05
5.94648e-05
8.69627e-05
0.000116073
0.000146778
0.000179051
0.000212857
0.000248155
0.000284893
0.000323014
0.000362449
0.00040312
0.000444938
0.000487799
0.000531587
0.000576167
0.00062139
0.000667086
0.000713065
0.000759116
0.00080501
0.000850493
0.000895296
0.000939127
0.00098168
0.00102264
0.00106167
0.00109845
0.00113265
0.00116394
0.00119203