/*--------------------------------*- C++ -*----------------------------------*\
| =========                 |                                                 |
| \\      /  F ield         | OpenFOAM: The Open Source CFD Toolbox           |
|  \\    /   O peration     | Version:  2406                                  |
|   \\  /    A nd           | Website:  www.openfoam.com                      |
|    \\/     M anipulation  |                                                 |
\*---------------------------------------------------------------------------*/
FoamFile
{
    version     2.0;
    format      ascii;
    arch        "LSB;label=32;scalar=64";
    class       volVectorField;
    location    "33.8";
    object      U;
}
// * * * * * * * * * * * * * * * * * * * * * * * * * * * * * * * * * * * * * //

dimensions      [0 1 -1 0 0 0 0];

internalField   nonuniform List<vector> 
14400
(
(-1.75764e-05 1.75263e-05 0)
(-1.41777e-06 -1.09333e-05 0)
(0.000105561 -4.18932e-05 0)
(0.00028931 -6.92464e-05 0)
(0.000538528 -8.54011e-05 0)
(0.000820481 -9.43133e-05 0)
(0.00112063 -9.51132e-05 0)
(0.00141372 -9.08059e-05 0)
(0.00168953 -8.18909e-05 0)
(0.0019335 -7.06058e-05 0)
(0.00214194 -5.78755e-05 0)
(0.00231017 -4.52928e-05 0)
(0.00244059 -3.36116e-05 0)
(0.00253551 -2.37087e-05 0)
(0.002601 -1.58713e-05 0)
(0.00264257 -1.03015e-05 0)
(0.00266683 -6.80696e-06 0)
(0.00267901 -5.08972e-06 0)
(0.00268367 -4.63544e-06 0)
(0.00268342 -4.89418e-06 0)
(0.00267938 -5.26074e-06 0)
(0.00267071 -5.19094e-06 0)
(0.00265512 -4.20687e-06 0)
(0.00262888 -1.9542e-06 0)
(0.00258733 1.81103e-06 0)
(0.00252513 7.22132e-06 0)
(0.00243657 1.43365e-05 0)
(0.00231572 2.3172e-05 0)
(0.0021566 3.37361e-05 0)
(0.00195313 4.60495e-05 0)
(0.00169917 6.01564e-05 0)
(0.00138846 7.61192e-05 0)
(0.00101461 9.40073e-05 0)
(0.000571169 0.000113879 0)
(5.17105e-05 0.000135766 0)
(-0.000550045 0.00015966 0)
(-0.00124004 0.000185497 0)
(-0.00202369 0.000213157 0)
(-0.00290565 0.000242453 0)
(-0.00388958 0.00027313 0)
(-0.00497793 0.000304862 0)
(-0.00617169 0.000337252 0)
(-0.0074702 0.000369838 0)
(-0.00887094 0.000402095 0)
(-0.0103694 0.000433442 0)
(-0.0119588 0.000463252 0)
(-0.0136304 0.000490864 0)
(-0.015373 0.00051559 0)
(-0.0171733 0.000536733 0)
(-0.0190157 0.000553592 0)
(-0.0208828 0.00056548 0)
(-0.022755 0.000571727 0)
(-0.0246112 0.000571697 0)
(-0.0264286 0.000564789 0)
(-0.0281835 0.000550452 0)
(-0.0298507 0.000528195 0)
(-0.0314049 0.000497597 0)
(-0.03282 0.000458322 0)
(-0.0340701 0.000410139 0)
(-0.0351296 0.000352945 0)
(-0.0359739 0.000286784 0)
(-0.0365795 0.000211882 0)
(-0.0369248 0.00012867 0)
(-0.0369905 3.7816e-05 0)
(-0.0367603 -5.97521e-05 0)
(-0.0362213 -0.000162823 0)
(-0.035365 -0.000269889 0)
(-0.0341875 -0.000379149 0)
(-0.0326905 -0.000488513 0)
(-0.0308815 -0.000595644 0)
(-0.0287743 -0.000698 0)
(-0.0263893 -0.000792909 0)
(-0.0237538 -0.000877661 0)
(-0.0209014 -0.00094962 0)
(-0.0178721 -0.00100635 0)
(-0.0147113 -0.00104573 0)
(-0.0114691 -0.00106612 0)
(-0.0081988 -0.00106645 0)
(-0.00495555 -0.00104633 0)
(-0.00179479 -0.00100612 0)
(0.00122969 -0.000946932 0)
(0.00406751 -0.000870643 0)
(0.00667348 -0.000779792 0)
(0.00900916 -0.000677472 0)
(0.0110442 -0.000567167 0)
(0.0127572 -0.000452564 0)
(0.0141365 -0.000337352 0)
(0.0151797 -0.000225029 0)
(0.0158942 -0.000118723 0)
(0.0162953 -2.10602e-05 0)
(0.016406 6.59347e-05 0)
(0.016255 0.00014088 0)
(0.0158753 0.000203037 0)
(0.0153028 0.000252263 0)
(0.0145742 0.00028894 0)
(0.0137257 0.000313873 0)
(0.0127921 0.000328192 0)
(0.0118053 0.000333233 0)
(0.0107937 0.000330457 0)
(0.00978166 0.000321338 0)
(0.00878948 0.000307322 0)
(0.00783333 0.000289731 0)
(0.00692516 0.000269783 0)
(0.00607359 0.000248494 0)
(0.00528356 0.000226776 0)
(0.00455779 0.0002053 0)
(0.0038959 0.000184708 0)
(0.00329663 0.000165354 0)
(0.0027559 0.000147687 0)
(0.00227048 0.00013172 0)
(0.00183415 0.000117741 0)
(0.00144403 0.000105224 0)
(0.00109384 9.42201e-05 0)
(0.000784426 8.32116e-05 0)
(0.000512525 7.19776e-05 0)
(0.000286839 5.7424e-05 0)
(0.00011032 3.99472e-05 0)
(-9.02954e-07 1.56376e-05 0)
(-4.25648e-05 -7.44023e-06 0)
(-2.24687e-05 -2.20318e-05 0)
(9.77216e-06 2.06422e-06 0)
(0.000149211 -0.000152285 0)
(0.000476335 -0.000309116 0)
(0.000951984 -0.000447235 0)
(0.00156063 -0.000537637 0)
(0.00223993 -0.000588459 0)
(0.00295758 -0.000597135 0)
(0.00366183 -0.000574137 0)
(0.00432623 -0.000524326 0)
(0.00491908 -0.000457733 0)
(0.00542794 -0.000381054 0)
(0.00584129 -0.00030232 0)
(0.00616069 -0.000226854 0)
(0.00638955 -0.000159406 0)
(0.00653841 -0.000102364 0)
(0.00661788 -5.69155e-05 0)
(0.00664052 -2.24185e-05 0)
(0.00661654 2.81238e-06 0)
(0.00655441 2.15526e-05 0)
(0.00645852 3.70532e-05 0)
(0.00632969 5.28444e-05 0)
(0.00616436 7.22721e-05 0)
(0.0059554 9.83047e-05 0)
(0.00569229 0.000133295 0)
(0.0053621 0.000178959 0)
(0.00495003 0.000236391 0)
(0.00444021 0.000306215 0)
(0.0038161 0.000388734 0)
(0.00306091 0.000484099 0)
(0.00215776 0.000592405 0)
(0.00108984 0.000713743 0)
(-0.000159478 0.000848169 0)
(-0.00160638 0.000995641 0)
(-0.00326636 0.00115592 0)
(-0.00515381 0.0013285 0)
(-0.0072815 0.00151248 0)
(-0.00966002 0.00170657 0)
(-0.0122972 0.00190901 0)
(-0.0151975 0.00211757 0)
(-0.0183614 0.00232955 0)
(-0.0217848 0.0025418 0)
(-0.0254586 0.00275079 0)
(-0.0293687 0.00295261 0)
(-0.0334952 0.00314312 0)
(-0.0378128 0.00331798 0)
(-0.0422905 0.00347278 0)
(-0.0468926 0.00360313 0)
(-0.0515781 0.00370479 0)
(-0.056302 0.00377373 0)
(-0.0610158 0.00380624 0)
(-0.0656679 0.00379899 0)
(-0.0702049 0.00374912 0)
(-0.0745718 0.00365427 0)
(-0.0787136 0.00351261 0)
(-0.0825751 0.00332292 0)
(-0.0861027 0.00308456 0)
(-0.0892444 0.00279755 0)
(-0.0919508 0.00246255 0)
(-0.0941756 0.00208092 0)
(-0.0958764 0.00165475 0)
(-0.0970153 0.00118691 0)
(-0.0975593 0.000681079 0)
(-0.0974809 0.000141795 0)
(-0.0967591 -0.000425491 0)
(-0.0953796 -0.00101439 0)
(-0.0933353 -0.00161755 0)
(-0.0906273 -0.00222669 0)
(-0.087265 -0.00283261 0)
(-0.083267 -0.0034253 0)
(-0.0786609 -0.00399408 0)
(-0.0734842 -0.00452779 0)
(-0.0677841 -0.00501507 0)
(-0.0616173 -0.00544466 0)
(-0.05505 -0.00580577 0)
(-0.0481569 -0.00608852 0)
(-0.0410208 -0.00628437 0)
(-0.0337308 -0.00638658 0)
(-0.0263812 -0.00639058 0)
(-0.0190695 -0.00629441 0)
(-0.0118944 -0.00609894 0)
(-0.00495313 -0.00580802 0)
(0.0016605 -0.00542855 0)
(0.00785899 -0.00497028 0)
(0.0135635 -0.00444552 0)
(0.0187061 -0.00386871 0)
(0.0232316 -0.00325582 0)
(0.0270997 -0.00262365 0)
(0.0302854 -0.00198911 0)
(0.0327798 -0.00136851 0)
(0.0345905 -0.000776832 0)
(0.0357401 -0.000227136 0)
(0.0362657 0.000269889 0)
(0.0362165 0.000706265 0)
(0.035652 0.00107686 0)
(0.0346391 0.00137938 0)
(0.0332494 0.00161417 0)
(0.0315561 0.00178396 0)
(0.0296319 0.00189338 0)
(0.0275459 0.00194859 0)
(0.025362 0.00195669 0)
(0.0231372 0.00192536 0)
(0.0209207 0.00186233 0)
(0.0187529 0.00177514 0)
(0.0166662 0.00167072 0)
(0.0146843 0.00155541 0)
(0.012824 0.00143455 0)
(0.0110945 0.00131293 0)
(0.00950057 0.00119402 0)
(0.00804022 0.00108098 0)
(0.0067109 0.000975183 0)
(0.00550402 0.000877998 0)
(0.00441546 0.000787867 0)
(0.00343541 0.000703939 0)
(0.00256589 0.000620272 0)
(0.00180209 0.000534136 0)
(0.00115973 0.000434471 0)
(0.000641887 0.000321966 0)
(0.000276068 0.000185994 0)
(5.91754e-05 5.64019e-05 0)
(-7.52854e-06 -4.24718e-05 0)
(3.80463e-05 -0.000100034 0)
(0.000296981 -0.000476635 0)
(0.000824586 -0.000840656 0)
(0.00154044 -0.00115221 0)
(0.00242758 -0.00136299 0)
(0.00340059 -0.00147941 0)
(0.00441812 -0.00149923 0)
(0.00541124 -0.00144098 0)
(0.00634372 -0.00131816 0)
(0.0071726 -0.0011519 0)
(0.00787916 -0.000959273 0)
(0.00844652 -0.000758308 0)
(0.00887425 -0.000562468 0)
(0.00916493 -0.000382789 0)
(0.00933012 -0.00022556 0)
(0.00938185 -9.36097e-05 0)
(0.00933443 1.42567e-05 0)
(0.00919919 0.000102114 0)
(0.00898481 0.00017656 0)
(0.00869447 0.000245574 0)
(0.00832626 0.000317798 0)
(0.00787221 0.000401571 0)
(0.00731923 0.00050432 0)
(0.00664954 0.000632057 0)
(0.00584187 0.00078923 0)
(0.00487234 0.000978773 0)
(0.00371557 0.00120239 0)
(0.00234535 0.0014609 0)
(0.000735348 0.00175454 0)
(-0.00114047 0.00208323 0)
(-0.00330733 0.00244657 0)
(-0.00578923 0.00284384 0)
(-0.00860828 0.00327376 0)
(-0.0117841 0.00373431 0)
(-0.0153327 0.00422253 0)
(-0.019266 0.00473431 0)
(-0.0235904 0.00526436 0)
(-0.0283061 0.0058061 0)
(-0.0334062 0.00635176 0)
(-0.038876 0.00689244 0)
(-0.0446926 0.00741828 0)
(-0.0508245 0.00791869 0)
(-0.0572319 0.00838259 0)
(-0.063867 0.00879872 0)
(-0.0706746 0.00915596 0)
(-0.0775931 0.00944363 0)
(-0.0845558 0.00965181 0)
(-0.0914918 0.00977159 0)
(-0.098328 0.00979529 0)
(-0.10499 0.00971664 0)
(-0.111404 0.00953086 0)
(-0.117497 0.00923477 0)
(-0.1232 0.00882671 0)
(-0.128446 0.00830658 0)
(-0.133173 0.00767574 0)
(-0.137324 0.00693695 0)
(-0.140849 0.00609432 0)
(-0.1437 0.00515321 0)
(-0.145838 0.00412022 0)
(-0.14723 0.00300318 0)
(-0.147848 0.00181111 0)
(-0.14767 0.000554296 0)
(-0.146683 -0.000755704 0)
(-0.144878 -0.002106 0)
(-0.142255 -0.00348234 0)
(-0.13882 -0.00486909 0)
(-0.134586 -0.00624925 0)
(-0.129577 -0.00760455 0)
(-0.12382 -0.00891554 0)
(-0.117354 -0.0101618 0)
(-0.110226 -0.0113225 0)
(-0.102492 -0.0123762 0)
(-0.0942151 -0.0133021 0)
(-0.0854687 -0.0140802 0)
(-0.0763341 -0.0146919 0)
(-0.0669005 -0.0151213 0)
(-0.0572639 -0.0153551 0)
(-0.0475259 -0.0153842 0)
(-0.0377925 -0.0152037 0)
(-0.0281723 -0.0148138 0)
(-0.0187742 -0.0142202 0)
(-0.0097057 -0.0134339 0)
(-0.00107002 -0.0124715 0)
(0.00703593 -0.0113548 0)
(0.0145241 -0.0101098 0)
(0.0213173 -0.00876644 0)
(0.0273518 -0.00735716 0)
(0.0325784 -0.00591583 0)
(0.036964 -0.0044765 0)
(0.0404931 -0.00307208 0)
(0.0431671 -0.00173311 0)
(0.0450053 -0.000486638 0)
(0.0460434 0.000644709 0)
(0.0463326 0.00164345 0)
(0.0459374 0.00249772 0)
(0.0449335 0.00320136 0)
(0.0434045 0.00375386 0)
(0.0414391 0.00415981 0)
(0.0391272 0.00442831 0)
(0.0365577 0.00457202 0)
(0.0338143 0.00460621 0)
(0.0309743 0.00454766 0)
(0.0281056 0.00441382 0)
(0.0252664 0.00422178 0)
(0.0225037 0.00398782 0)
(0.0198547 0.00372656 0)
(0.0173451 0.00345112 0)
(0.0149932 0.00317211 0)
(0.012807 0.00289849 0)
(0.0107913 0.00263573 0)
(0.00894179 0.00238775 0)
(0.00725836 0.00215303 0)
(0.00573193 0.00192928 0)
(0.00436776 0.00170572 0)
(0.00315988 0.00147481 0)
(0.00212969 0.00121714 0)
(0.00127651 0.000931327 0)
(0.000640243 0.000602917 0)
(0.000209305 0.000280322 0)
(1.99189e-05 5.26846e-06 0)
(6.26686e-05 -0.000272494 0)
(0.000428117 -0.000942858 0)
(0.00112762 -0.00155421 0)
(0.00203623 -0.00205831 0)
(0.00313469 -0.0023985 0)
(0.00431741 -0.00257977 0)
(0.00553915 -0.00260219 0)
(0.006719 -0.00249243 0)
(0.00781601 -0.00227387 0)
(0.0087798 -0.00197975 0)
(0.00958814 -0.00163882 0)
(0.0102201 -0.00128024 0)
(0.0106732 -0.000926647 0)
(0.0109483 -0.000596099 0)
(0.0110558 -0.000299227 0)
(0.0110064 -4.05859e-05 0)
(0.0108131 0.000181859 0)
(0.010485 0.000375182 0)
(0.0100278 0.000550683 0)
(0.00944075 0.000722126 0)
(0.00871658 0.000904386 0)
(0.00784099 0.00111187 0)
(0.00679363 0.00135742 0)
(0.00554864 0.00165144 0)
(0.00407623 0.00200165 0)
(0.00234378 0.00241308 0)
(0.000317275 0.00288855 0)
(-0.00203773 0.00342909 0)
(-0.00475505 0.00403452 0)
(-0.00786703 0.0047036 0)
(-0.0114036 0.00543417 0)
(-0.0153913 0.00622291 0)
(-0.019852 0.00706505 0)
(-0.024802 0.00795406 0)
(-0.0302503 0.00888132 0)
(-0.0361974 0.00983596 0)
(-0.0426343 0.0108048 0)
(-0.0495414 0.0117727 0)
(-0.056888 0.0127223 0)
(-0.0646319 0.013635 0)
(-0.0727202 0.0144912 0)
(-0.0810893 0.0152708 0)
(-0.0896669 0.0159542 0)
(-0.0983734 0.0165225 0)
(-0.107124 0.0169584 0)
(-0.115829 0.0172469 0)
(-0.1244 0.0173751 0)
(-0.132749 0.0173334 0)
(-0.140791 0.0171148 0)
(-0.148443 0.0167153 0)
(-0.15563 0.0161338 0)
(-0.162285 0.0153718 0)
(-0.168344 0.0144333 0)
(-0.173753 0.0133242 0)
(-0.178465 0.0120522 0)
(-0.18244 0.0106268 0)
(-0.185642 0.00905838 0)
(-0.188045 0.00735882 0)
(-0.189627 0.00554093 0)
(-0.190371 0.00361857 0)
(-0.190267 0.00160663 0)
(-0.189307 -0.000478841 0)
(-0.187489 -0.0026206 0)
(-0.184817 -0.00480005 0)
(-0.181298 -0.00699713 0)
(-0.176945 -0.00919024 0)
(-0.171774 -0.0113561 0)
(-0.16581 -0.01347 0)
(-0.159081 -0.0155056 0)
(-0.151623 -0.0174351 0)
(-0.14348 -0.0192302 0)
(-0.134701 -0.0208618 0)
(-0.125344 -0.022301 0)
(-0.115477 -0.0235199 0)
(-0.105173 -0.0244922 0)
(-0.0945154 -0.0251946 0)
(-0.0835938 -0.0256076 0)
(-0.072505 -0.0257163 0)
(-0.0613513 -0.025512 0)
(-0.0502395 -0.0249922 0)
(-0.0392783 -0.0241619 0)
(-0.0285775 -0.0230338 0)
(-0.0182448 -0.0216279 0)
(-0.00838417 -0.0199718 0)
(0.000906569 -0.0180998 0)
(0.00953792 -0.0160518 0)
(0.0174307 -0.0138725 0)
(0.0245179 -0.0116094 0)
(0.0307461 -0.0093117 0)
(0.0360771 -0.0070286 0)
(0.0404883 -0.00480746 0)
(0.0439742 -0.00269237 0)
(0.0465457 -0.000722687 0)
(0.048231 0.00106827 0)
(0.049074 0.00265425 0)
(0.0491339 0.00401681 0)
(0.0484828 0.00514574 0)
(0.0472036 0.00603902 0)
(0.0453872 0.00670248 0)
(0.043129 0.00714887 0)
(0.0405251 0.00739681 0)
(0.0376697 0.00746925 0)
(0.034651 0.00739213 0)
(0.0315495 0.00719259 0)
(0.028435 0.00689791 0)
(0.0253671 0.0065339 0)
(0.022392 0.00612452 0)
(0.0195468 0.00569025 0)
(0.0168548 0.00524868 0)
(0.0143347 0.00481199 0)
(0.0119921 0.00438893 0)
(0.00983576 0.00398012 0)
(0.00786137 0.00358326 0)
(0.00608049 0.00318435 0)
(0.0044869 0.00277158 0)
(0.00310863 0.00231858 0)
(0.00193992 0.00181984 0)
(0.00103576 0.00125613 0)
(0.000378065 0.000680534 0)
(5.15286e-05 0.000138514 0)
(7.80686e-05 -0.000507832 0)
(0.00052306 -0.00154516 0)
(0.00135804 -0.00244742 0)
(0.00241701 -0.00316491 0)
(0.00367504 -0.00364115 0)
(0.00500611 -0.00388121 0)
(0.00636134 -0.00389085 0)
(0.00764971 -0.00370586 0)
(0.00882789 -0.00336169 0)
(0.0098405 -0.00290484 0)
(0.0106639 -0.00237731 0)
(0.0112746 -0.00182029 0)
(0.0116691 -0.0012664 0)
(0.011846 -0.000741041 0)
(0.0118141 -0.00025922 0)
(0.0115812 0.000173178 0)
(0.0111569 0.000559701 0)
(0.0105457 0.000911396 0)
(0.00974778 0.00124539 0)
(0.00875568 0.00158245 0)
(0.00755469 0.0019448 0)
(0.00612223 0.0023539 0)
(0.00442926 0.00282872 0)
(0.00244116 0.00338447 0)
(0.000119617 0.0040322 0)
(-0.00257589 0.00477879 0)
(-0.00568633 0.00562754 0)
(-0.00925177 0.00657874 0)
(-0.0133098 0.00763028 0)
(-0.0178943 0.00877787 0)
(-0.0230336 0.010015 0)
(-0.0287491 0.0113327 0)
(-0.0350537 0.0127189 0)
(-0.0419495 0.0141584 0)
(-0.0494268 0.0156325 0)
(-0.0574629 0.0171189 0)
(-0.0660209 0.0185922 0)
(-0.0750497 0.0200243 0)
(-0.0844848 0.0213855 0)
(-0.0942493 0.0226449 0)
(-0.104256 0.0237724 0)
(-0.114409 0.024739 0)
(-0.124608 0.0255183 0)
(-0.134752 0.0260874 0)
(-0.144738 0.0264275 0)
(-0.154469 0.0265244 0)
(-0.163853 0.0263687 0)
(-0.172806 0.0259559 0)
(-0.181252 0.0252854 0)
(-0.189126 0.0243612 0)
(-0.19637 0.0231901 0)
(-0.202938 0.0217821 0)
(-0.208789 0.0201489 0)
(-0.213892 0.0183044 0)
(-0.218222 0.0162632 0)
(-0.221759 0.014041 0)
(-0.224488 0.0116541 0)
(-0.226398 0.00911932 0)
(-0.227482 0.00645386 0)
(-0.227735 0.00367557 0)
(-0.227153 0.000803004 0)
(-0.225736 -0.00214438 0)
(-0.223486 -0.00514595 0)
(-0.220405 -0.00817962 0)
(-0.216501 -0.0112217 0)
(-0.211781 -0.0142463 0)
(-0.206257 -0.0172259 0)
(-0.199945 -0.0201305 0)
(-0.192866 -0.0229279 0)
(-0.185046 -0.0255842 0)
(-0.176516 -0.0280636 0)
(-0.167317 -0.0303295 0)
(-0.157494 -0.0323449 0)
(-0.147105 -0.0340731 0)
(-0.136212 -0.0354794 0)
(-0.12489 -0.0365321 0)
(-0.113221 -0.0372035 0)
(-0.101295 -0.0374719 0)
(-0.0892093 -0.0373226 0)
(-0.0770691 -0.0367489 0)
(-0.0649824 -0.0357534 0)
(-0.05306 -0.0343485 0)
(-0.0414129 -0.0325562 0)
(-0.03015 -0.0304084 0)
(-0.0193758 -0.027946 0)
(-0.00918809 -0.0252175 0)
(0.00032418 -0.0222779 0)
(0.0090823 -0.0191872 0)
(0.0170194 -0.016008 0)
(0.0240816 -0.012804 0)
(0.0302288 -0.00963826 0)
(0.0354355 -0.00657079 0)
(0.0396911 -0.00365743 0)
(0.0430004 -0.000947918 0)
(0.0453839 0.00151544 0)
(0.0468775 0.00369905 0)
(0.0475321 0.00557901 0)
(0.0474125 0.00714173 0)
(0.0465956 0.00838413 0)
(0.0451683 0.00931327 0)
(0.0432242 0.00994558 0)
(0.0408607 0.0103054 0)
(0.0381747 0.0104233 0)
(0.0352601 0.0103341 0)
(0.0322035 0.010075 0)
(0.0290834 0.00968298 0)
(0.0259657 0.00919398 0)
(0.0229073 0.00864025 0)
(0.0199496 0.00805028 0)
(0.0171284 0.00744561 0)
(0.0144627 0.00684225 0)
(0.0119744 0.00624556 0)
(0.00966717 0.00565505 0)
(0.00756196 0.00505574 0)
(0.00565469 0.00443199 0)
(0.00398255 0.00375194 0)
(0.00253714 0.00300289 0)
(0.00139216 0.00215924 0)
(0.000527234 0.00126514 0)
(7.78203e-05 0.000357673 0)
(8.96064e-05 -0.000780941 0)
(0.000596325 -0.00223729 0)
(0.00153517 -0.00345636 0)
(0.00270592 -0.00439182 0)
(0.00407548 -0.00499477 0)
(0.00549879 -0.00527447 0)
(0.00692295 -0.00524635 0)
(0.00824842 -0.00495724 0)
(0.00943083 -0.00445648 0)
(0.0104117 -0.00380454 0)
(0.0111676 -0.00305716 0)
(0.0116738 -0.00226743 0)
(0.0119263 -0.00147755 0)
(0.0119219 -0.000719502 0)
(0.0116666 -1.17225e-05 0)
(0.0111644 0.000639674 0)
(0.0104194 0.0012409 0)
(0.00942936 0.0018081 0)
(0.00818667 0.00236528 0)
(0.00667475 0.002941 0)
(0.00486937 0.0035654 0)
(0.00273819 0.00426715 0)
(0.000242715 0.00507113 0)
(-0.00266037 0.00599679 0)
(-0.00601681 0.00705753 0)
(-0.00987289 0.00826075 0)
(-0.0142732 0.00960846 0)
(-0.0192589 0.011098 0)
(-0.0248653 0.0127226 0)
(-0.0311202 0.0144716 0)
(-0.0380414 0.0163299 0)
(-0.045635 0.0182784 0)
(-0.0538927 0.0202929 0)
(-0.0627909 0.0223443 0)
(-0.0722891 0.024399 0)
(-0.0823298 0.026419 0)
(-0.0928393 0.0283638 0)
(-0.103729 0.0301908 0)
(-0.114899 0.0318579 0)
(-0.12624 0.0333246 0)
(-0.137639 0.034554 0)
(-0.148981 0.0355139 0)
(-0.160154 0.0361785 0)
(-0.171053 0.0365284 0)
(-0.181584 0.0365513 0)
(-0.19166 0.0362416 0)
(-0.201209 0.0356 0)
(-0.21017 0.0346325 0)
(-0.218491 0.0333495 0)
(-0.226135 0.031765 0)
(-0.23307 0.0298954 0)
(-0.239274 0.027759 0)
(-0.244731 0.0253746 0)
(-0.249429 0.0227619 0)
(-0.253362 0.0199404 0)
(-0.256522 0.0169293 0)
(-0.258908 0.0137476 0)
(-0.260515 0.0104141 0)
(-0.261343 0.0069474 0)
(-0.261388 0.00336648 0)
(-0.260649 -0.000309367 0)
(-0.259123 -0.00405987 0)
(-0.256809 -0.00786351 0)
(-0.253703 -0.011697 0)
(-0.249806 -0.015535 0)
(-0.245119 -0.0193497 0)
(-0.239642 -0.0231105 0)
(-0.233383 -0.0267838 0)
(-0.226349 -0.030333 0)
(-0.218556 -0.0337188 0)
(-0.210022 -0.036899 0)
(-0.200774 -0.0398298 0)
(-0.190846 -0.0424657 0)
(-0.180283 -0.0447616 0)
(-0.169136 -0.0466733 0)
(-0.157468 -0.0481594 0)
(-0.145354 -0.049183 0)
(-0.132878 -0.0497134 0)
(-0.120131 -0.0497281 0)
(-0.107217 -0.0492139 0)
(-0.0942439 -0.0481688 0)
(-0.0813254 -0.0466027 0)
(-0.0685771 -0.0445376 0)
(-0.0561143 -0.0420079 0)
(-0.0440491 -0.0390591 0)
(-0.0324878 -0.035747 0)
(-0.0215286 -0.0321356 0)
(-0.0112596 -0.0282951 0)
(-0.0017574 -0.0243002 0)
(0.0069136 -0.0202271 0)
(0.014702 -0.0161518 0)
(0.0215696 -0.0121483 0)
(0.0274912 -0.00828619 0)
(0.0324551 -0.00462972 0)
(0.0364629 -0.00123583 0)
(0.0395302 0.00184709 0)
(0.0416862 0.00458057 0)
(0.0429742 0.00693707 0)
(0.043451 0.00890089 0)
(0.0431861 0.0104685 0)
(0.0422597 0.0116483 0)
(0.0407607 0.01246 0)
(0.0387832 0.0129331 0)
(0.0364238 0.0131048 0)
(0.0337765 0.0130179 0)
(0.0309321 0.0127178 0)
(0.0279713 0.0122508 0)
(0.0249681 0.0116605 0)
(0.0219812 0.0109869 0)
(0.019064 0.0102624 0)
(0.0162513 0.00951206 0)
(0.01358 0.00874855 0)
(0.0110647 0.00797541 0)
(0.00873831 0.00717929 0)
(0.00660182 0.00634195 0)
(0.00470368 0.00542743 0)
(0.00303612 0.00441308 0)
(0.00169229 0.00326383 0)
(0.000653246 0.00200235 0)
(9.98011e-05 0.000646515 0)
(9.72854e-05 -0.00108839 0)
(0.000649064 -0.00300881 0)
(0.00166378 -0.00456699 0)
(0.00291206 -0.00572324 0)
(0.00435106 -0.00644042 0)
(0.00581777 -0.00673587 0)
(0.00725432 -0.0066387 0)
(0.00855363 -0.0062095 0)
(0.00967084 -0.00551391 0)
(0.0105459 -0.00462765 0)
(0.0111565 -0.00362097 0)
(0.0114778 -0.00255867 0)
(0.011506 -0.00149197 0)
(0.011236 -0.000458248 0)
(0.0106709 0.000522002 0)
(0.00980918 0.00144405 0)
(0.00864829 0.00231835 0)
(0.00717733 0.00316764 0)
(0.00537866 0.00402396 0)
(0.00322495 0.00492441 0)
(0.000681093 0.00590728 0)
(-0.00229567 0.00700809 0)
(-0.00575293 0.00825667 0)
(-0.00974124 0.00967517 0)
(-0.014311 0.0112773 0)
(-0.0195102 0.0130684 0)
(-0.0253814 0.0150462 0)
(-0.0319595 0.0172014 0)
(-0.0392689 0.0195182 0)
(-0.0473212 0.0219746 0)
(-0.0561122 0.0245418 0)
(-0.0656204 0.0271849 0)
(-0.0758048 0.0298623 0)
(-0.0866048 0.0325265 0)
(-0.0979408 0.0351257 0)
(-0.109716 0.0376051 0)
(-0.121819 0.0399094 0)
(-0.13413 0.0419849 0)
(-0.146523 0.0437823 0)
(-0.158871 0.0452585 0)
(-0.171056 0.0463786 0)
(-0.182964 0.0471164 0)
(-0.194496 0.0474552 0)
(-0.205566 0.0473874 0)
(-0.216103 0.0469135 0)
(-0.226049 0.0460414 0)
(-0.235361 0.0447844 0)
(-0.244007 0.0431603 0)
(-0.251964 0.0411901 0)
(-0.259218 0.0388961 0)
(-0.26576 0.0363019 0)
(-0.271586 0.0334307 0)
(-0.276695 0.0303055 0)
(-0.281087 0.0269481 0)
(-0.284762 0.0233794 0)
(-0.28772 0.0196195 0)
(-0.289963 0.0156871 0)
(-0.291487 0.0116007 0)
(-0.292292 0.00737815 0)
(-0.292372 0.00303761 0)
(-0.291723 -0.00140232 0)
(-0.290339 -0.00592196 0)
(-0.288212 -0.0105 0)
(-0.285334 -0.0151132 0)
(-0.281698 -0.0197353 0)
(-0.277295 -0.0243374 0)
(-0.272119 -0.0288868 0)
(-0.266165 -0.0333469 0)
(-0.25943 -0.0376774 0)
(-0.251917 -0.0418337 0)
(-0.243631 -0.0457677 0)
(-0.234585 -0.0494282 0)
(-0.224798 -0.0527613 0)
(-0.214301 -0.0557121 0)
(-0.203132 -0.058226 0)
(-0.191342 -0.0602506 0)
(-0.178993 -0.0617374 0)
(-0.16616 -0.0626447 0)
(-0.15293 -0.0629393 0)
(-0.139402 -0.0625989 0)
(-0.125685 -0.0616142 0)
(-0.111897 -0.0599903 0)
(-0.0981601 -0.0577469 0)
(-0.0845989 -0.0549195 0)
(-0.0713373 -0.0515576 0)
(-0.058494 -0.0477239 0)
(-0.0461803 -0.0434917 0)
(-0.0344966 -0.0389427 0)
(-0.023531 -0.0341639 0)
(-0.0133576 -0.0292449 0)
(-0.00403682 -0.0242749 0)
(0.00438504 -0.019341 0)
(0.0118748 -0.0145258 0)
(0.0184118 -0.00990603 0)
(0.0239872 -0.00555111 0)
(0.0286037 -0.0015221 0)
(0.0322756 0.00212962 0)
(0.0350291 0.00536341 0)
(0.0369023 0.00815056 0)
(0.037946 0.0104752 0)
(0.0382229 0.0123346 0)
(0.0378069 0.0137397 0)
(0.0367806 0.0147139 0)
(0.0352341 0.0152915 0)
(0.0332599 0.0155162 0)
(0.030952 0.0154375 0)
(0.0283988 0.0151088 0)
(0.0256857 0.0145829 0)
(0.0228851 0.0139103 0)
(0.0200657 0.0131344 0)
(0.017277 0.0122901 0)
(0.0145717 0.011399 0)
(0.0119765 0.0104704 0)
(0.0095379 0.00949467 0)
(0.00726491 0.00845197 0)
(0.00521886 0.00730341 0)
(0.00339634 0.0060143 0)
(0.00190931 0.00453798 0)
(0.000743149 0.00286723 0)
(0.000114756 0.000993093 0)
(0.0001039 -0.00141651 0)
(0.000690363 -0.00382992 0)
(0.00175824 -0.00573649 0)
(0.00305295 -0.0071047 0)
(0.00452071 -0.00791275 0)
(0.00598246 -0.00819054 0)
(0.00737516 -0.00798504 0)
(0.00858568 -0.00737386 0)
(0.00956939 -0.00644136 0)
(0.010266 -0.00527968 0)
(0.0106554 -0.00397382 0)
(0.0107134 -0.0025996 0)
(0.0104364 -0.00121591 0)
(0.00981721 0.000136335 0)
(0.00885501 0.00143668 0)
(0.00754184 0.00268392 0)
(0.00586655 0.00389469 0)
(0.0038078 0.00509985 0)
(0.00133647 0.00634036 0)
(-0.00158665 0.00766212 0)
(-0.0050079 0.00911084 0)
(-0.00897963 0.0107274 0)
(-0.0135565 0.0125444 0)
(-0.0187928 0.0145835 0)
(-0.0247385 0.0168554 0)
(-0.0314367 0.0193591 0)
(-0.0389198 0.0220833 0)
(-0.0472068 0.0250068 0)
(-0.0563003 0.0280992 0)
(-0.0661838 0.0313211 0)
(-0.0768196 0.0346245 0)
(-0.0881479 0.0379535 0)
(-0.100087 0.0412456 0)
(-0.112534 0.0444336 0)
(-0.125371 0.0474483 0)
(-0.138467 0.050222 0)
(-0.151685 0.0526909 0)
(-0.164889 0.0547989 0)
(-0.177948 0.0564995 0)
(-0.190742 0.0577577 0)
(-0.203165 0.0585503 0)
(-0.215127 0.0588655 0)
(-0.226558 0.0587026 0)
(-0.237401 0.0580698 0)
(-0.247617 0.0569828 0)
(-0.257179 0.0554626 0)
(-0.266068 0.053534 0)
(-0.274278 0.0512239 0)
(-0.281806 0.0485601 0)
(-0.288652 0.04557 0)
(-0.294821 0.0422803 0)
(-0.300319 0.0387162 0)
(-0.305149 0.0349011 0)
(-0.309317 0.030857 0)
(-0.312826 0.0266041 0)
(-0.315678 0.0221609 0)
(-0.317875 0.0175452 0)
(-0.319414 0.0127734 0)
(-0.320293 0.0078621 0)
(-0.320507 0.00282758 0)
(-0.32005 -0.00231309 0)
(-0.318913 -0.00754167 0)
(-0.317086 -0.0128381 0)
(-0.314556 -0.01818 0)
(-0.311312 -0.0235419 0)
(-0.307339 -0.0288947 0)
(-0.302623 -0.0342051 0)
(-0.29715 -0.0394353 0)
(-0.290906 -0.0445425 0)
(-0.283881 -0.0494787 0)
(-0.276066 -0.0541909 0)
(-0.267459 -0.0586217 0)
(-0.258063 -0.0627094 0)
(-0.247888 -0.06639 0)
(-0.236957 -0.069598 0)
(-0.225303 -0.0722687 0)
(-0.21297 -0.0743406 0)
(-0.200021 -0.0757581 0)
(-0.18653 -0.0764745 0)
(-0.172589 -0.0764544 0)
(-0.158304 -0.0756772 0)
(-0.143794 -0.0741385 0)
(-0.129187 -0.0718524 0)
(-0.11462 -0.0688517 0)
(-0.100232 -0.0651873 0)
(-0.0861575 -0.0609275 0)
(-0.0725286 -0.0561544 0)
(-0.0594647 -0.0509619 0)
(-0.0470719 -0.0454508 0)
(-0.0354401 -0.0397258 0)
(-0.024642 -0.0338916 0)
(-0.0147337 -0.0280498 0)
(-0.00575497 -0.0222965 0)
(0.00226849 -0.0167207 0)
(0.00932346 -0.0114033 0)
(0.0154076 -0.0064159 0)
(0.0205284 -0.00182034 0)
(0.0247028 0.002332 0)
(0.0279572 0.00600115 0)
(0.030328 0.00915961 0)
(0.0318624 0.0117932 0)
(0.0326185 0.0139019 0)
(0.0326645 0.0154996 0)
(0.0320784 0.0166138 0)
(0.0309443 0.017284 0)
(0.0293524 0.0175592 0)
(0.0273914 0.0174951 0)
(0.0251516 0.0171504 0)
(0.0227134 0.0165831 0)
(0.0201569 0.0158462 0)
(0.0175439 0.014984 0)
(0.0149409 0.0140274 0)
(0.0123872 0.0129921 0)
(0.00994312 0.0118739 0)
(0.00762762 0.0106522 0)
(0.00551529 0.00928605 0)
(0.00361016 0.00772766 0)
(0.00204039 0.00591717 0)
(0.000797834 0.00381275 0)
(0.000123763 0.00137491 0)
(0.000109236 -0.00176533 0)
(0.000720845 -0.00469283 0)
(0.00182134 -0.00694927 0)
(0.00313283 -0.00851355 0)
(0.00458995 -0.00938246 0)
(0.00599946 -0.00960261 0)
(0.00729331 -0.00924306 0)
(0.00835403 -0.00840189 0)
(0.00913801 -0.00718472 0)
(0.00958603 -0.0057013 0)
(0.0096807 -0.00405158 0)
(0.009399 -0.0023214 0)
(0.00873738 -0.000575645 0)
(0.00768595 0.00114352 0)
(0.0062388 0.00281814 0)
(0.00438008 0.00445294 0)
(0.0020886 0.00607276 0)
(-0.000668699 0.00771798 0)
(-0.00393325 0.00943897 0)
(-0.00775602 0.0112898 0)
(-0.0121933 0.0133219 0)
(-0.0173042 0.0155789 0)
(-0.0231463 0.0180921 0)
(-0.0297716 0.0208786 0)
(-0.0372222 0.0239406 0)
(-0.0455271 0.0272653 0)
(-0.0546982 0.0308262 0)
(-0.0647274 0.034584 0)
(-0.075584 0.0384874 0)
(-0.0872128 0.0424741 0)
(-0.099534 0.0464726 0)
(-0.112445 0.0504043 0)
(-0.125821 0.0541862 0)
(-0.139526 0.0577352 0)
(-0.153411 0.0609718 0)
(-0.167331 0.0638241 0)
(-0.181141 0.0662315 0)
(-0.194712 0.0681465 0)
(-0.207928 0.0695362 0)
(-0.220695 0.0703825 0)
(-0.232936 0.0706804 0)
(-0.244595 0.0704366 0)
(-0.25563 0.0696674 0)
(-0.266017 0.0683959 0)
(-0.275741 0.0666501 0)
(-0.284798 0.0644608 0)
(-0.293189 0.06186 0)
(-0.300919 0.0588796 0)
(-0.307996 0.0555504 0)
(-0.31443 0.0519014 0)
(-0.32023 0.04796 0)
(-0.325405 0.0437511 0)
(-0.329964 0.0392974 0)
(-0.333913 0.0346196 0)
(-0.33726 0.0297364 0)
(-0.340008 0.024665 0)
(-0.34216 0.0194211 0)
(-0.343717 0.0140196 0)
(-0.344679 0.00847482 0)
(-0.345041 0.00280127 0)
(-0.344799 -0.00298613 0)
(-0.343944 -0.00887123 0)
(-0.342466 -0.0148361 0)
(-0.340352 -0.0208601 0)
(-0.337587 -0.0269198 0)
(-0.33415 -0.0329873 0)
(-0.330024 -0.0390305 0)
(-0.325185 -0.0450118 0)
(-0.31961 -0.0508879 0)
(-0.313275 -0.0566092 0)
(-0.306159 -0.0621198 0)
(-0.29824 -0.0673575 0)
(-0.289505 -0.0722546 0)
(-0.279941 -0.0767383 0)
(-0.26955 -0.0807328 0)
(-0.258339 -0.0841608 0)
(-0.246334 -0.0869464 0)
(-0.233573 -0.0890181 0)
(-0.220113 -0.0903118 0)
(-0.20603 -0.0907753 0)
(-0.191418 -0.0903712 0)
(-0.176393 -0.0890808 0)
(-0.161086 -0.0869062 0)
(-0.14564 -0.0838723 0)
(-0.13021 -0.0800273 0)
(-0.114954 -0.0754413 0)
(-0.100026 -0.0702041 0)
(-0.085576 -0.0644214 0)
(-0.071736 -0.05821 0)
(-0.0586223 -0.051693 0)
(-0.0463299 -0.0449944 0)
(-0.0349318 -0.0382347 0)
(-0.0244799 -0.0315275 0)
(-0.0150068 -0.024977 0)
(-0.00652884 -0.0186768 0)
(0.000951036 -0.012709 0)
(0.00744024 -0.00714453 0)
(0.0129547 -0.00204318 0)
(0.0175176 0.0025468 0)
(0.0211594 0.006589 0)
(0.0239181 0.0100597 0)
(0.0258405 0.0129487 0)
(0.026982 0.0152603 0)
(0.0274082 0.0170128 0)
(0.027192 0.0182386 0)
(0.026415 0.0189823 0)
(0.0251609 0.019298 0)
(0.023519 0.019246 0)
(0.0215721 0.0188886 0)
(0.0194067 0.0182855 0)
(0.017093 0.0174885 0)
(0.0147086 0.016537 0)
(0.0123042 0.0154531 0)
(0.00995255 0.0142383 0)
(0.00768389 0.0128718 0)
(0.00558533 0.0113112 0)
(0.00367056 0.00949553 0)
(0.00208034 0.00735151 0)
(0.000814273 0.00480194 0)
(0.000125983 0.00177601 0)
(0.000114171 -0.00212739 0)
(0.000743025 -0.00557752 0)
(0.00185632 -0.00817321 0)
(0.00315447 -0.00990594 0)
(0.00456003 -0.0107952 0)
(0.00586792 -0.0109088 0)
(0.00700604 -0.0103425 0)
(0.00785472 -0.00921816 0)
(0.00837243 -0.0076651 0)
(0.00850242 -0.00581144 0)
(0.00823032 -0.00377163 0)
(0.00753439 -0.00163997 0)
(0.00641042 0.000515032 0)
(0.00484482 0.00265275 0)
(0.00282516 0.00476056 0)
(0.000326236 0.00685168 0)
(-0.00268445 0.00896093 0)
(-0.00625229 0.011139 0)
(-0.0104306 0.0134452 0)
(-0.0152805 0.0159399 0)
(-0.0208648 0.018677 0)
(-0.0272445 0.0216981 0)
(-0.0344732 0.0250282 0)
(-0.0425922 0.0286735 0)
(-0.051626 0.032621 0)
(-0.061579 0.0368393 0)
(-0.0724313 0.04128 0)
(-0.0841371 0.0458794 0)
(-0.0966234 0.0505603 0)
(-0.109791 0.0552348 0)
(-0.123515 0.0598076 0)
(-0.137655 0.0641802 0)
(-0.152055 0.0682563 0)
(-0.166557 0.0719461 0)
(-0.181005 0.0751713 0)
(-0.195256 0.0778686 0)
(-0.209183 0.0799917 0)
(-0.222679 0.0815117 0)
(-0.23566 0.0824165 0)
(-0.248063 0.0827083 0)
(-0.259843 0.0824016 0)
(-0.270972 0.0815201 0)
(-0.281437 0.0800938 0)
(-0.291233 0.0781567 0)
(-0.300361 0.0757447 0)
(-0.308832 0.0728942 0)
(-0.316653 0.0696406 0)
(-0.323839 0.0660178 0)
(-0.330403 0.0620576 0)
(-0.336357 0.0577895 0)
(-0.341717 0.0532402 0)
(-0.346494 0.0484341 0)
(-0.350702 0.043393 0)
(-0.354352 0.0381366 0)
(-0.357454 0.0326822 0)
(-0.360018 0.0270454 0)
(-0.362051 0.0212402 0)
(-0.363558 0.0152796 0)