/*--------------------------------*- C++ -*----------------------------------*\
| =========                 |                                                 |
| \\      /  F ield         | OpenFOAM: The Open Source CFD Toolbox           |
|  \\    /   O peration     | Version:  2406                                  |
|   \\  /    A nd           | Website:  www.openfoam.com                      |
|    \\/     M anipulation  |                                                 |
\*---------------------------------------------------------------------------*/
FoamFile
{
    version     2.0;
    format      ascii;
    arch        "LSB;label=32;scalar=64";
    class       surfaceScalarField;
    location    "26.2";
    object      phi;
}
// * * * * * * * * * * * * * * * * * * * * * * * * * * * * * * * * * * * * * //

dimensions      [0 3 -1 0 0 0 0];

oriented        oriented;

internalField   nonuniform List<scalar> 
28560
(
-6.30584e-09
6.30385e-09
3.79476e-08
-4.61175e-08
1.33084e-07
-9.54357e-08
2.67043e-07
-1.36156e-07
4.25769e-07
-1.59896e-07
5.95578e-07
-1.72128e-07
7.66751e-07
-1.72758e-07
9.30552e-07
-1.65911e-07
1.08173e-06
-1.52731e-07
1.21602e-06
-1.35986e-07
1.33166e-06
-1.16902e-07
1.42772e-06
-9.72709e-08
1.50484e-06
-7.79871e-08
1.56414e-06
-6.00412e-08
1.60751e-06
-4.38471e-08
1.63691e-06
-2.97331e-08
1.65441e-06
-1.76448e-08
1.66181e-06
-7.4027e-09
1.66054e-06
1.4156e-09
1.65149e-06
9.32619e-09
1.63493e-06
1.69704e-08
1.61047e-06
2.50174e-08
1.57702e-06
3.41572e-08
1.53288e-06
4.50357e-08
1.47574e-06
5.82412e-08
1.40282e-06
7.4271e-08
1.31092e-06
9.35315e-08
1.19654e-06
1.16335e-07
1.05596e-06
1.42916e-07
8.85281e-07
1.73445e-07
6.80475e-07
2.08041e-07
4.37446e-07
2.46788e-07
1.52052e-07
2.89728e-07
-1.7985e-07
3.36859e-07
-5.62343e-07
3.88118e-07
-9.9937e-07
4.43364e-07
-1.49464e-06
5.02354e-07
-2.0515e-06
5.6473e-07
-2.67283e-06
6.29998e-07
-3.36086e-06
6.97521e-07
-4.11707e-06
7.66514e-07
-4.942e-06
8.3604e-07
-5.83512e-06
9.05022e-07
-6.79473e-06
9.72248e-07
-7.8178e-06
1.03639e-06
-8.89991e-06
1.09603e-06
-1.00351e-05
1.14968e-06
-1.12161e-05
1.1958e-06
-1.24338e-05
1.23287e-06
-1.36779e-05
1.25936e-06
-1.49365e-05
1.27383e-06
-1.61964e-05
1.27491e-06
-1.74431e-05
1.26135e-06
-1.8661e-05
1.23204e-06
-1.98338e-05
1.18607e-06
-2.09441e-05
1.1227e-06
-2.19744e-05
1.04144e-06
-2.29066e-05
9.42051e-07
-2.37229e-05
8.24553e-07
-2.44056e-05
6.89286e-07
-2.49379e-05
5.36916e-07
-2.53037e-05
3.68469e-07
-2.54886e-05
1.85349e-07
-2.54798e-05
-1.06315e-08
-2.52667e-05
-2.1724e-07
-2.48414e-05
-4.31812e-07
-2.4199e-05
-6.5126e-07
-2.33381e-05
-8.72084e-07
-2.22612e-05
-1.09042e-06
-2.09748e-05
-1.30208e-06
-1.94898e-05
-1.50266e-06
-1.78216e-05
-1.68765e-06
-1.59901e-05
-1.85255e-06
-1.40196e-05
-1.99301e-06
-1.1938e-05
-2.10506e-06
-9.77707e-06
-2.18526e-06
-7.57091e-06
-2.23086e-06
-5.35569e-06
-2.24002e-06
-3.16831e-06
-2.2119e-06
-1.04541e-06
-2.14681e-06
9.77886e-07
-2.04623e-06
2.86908e-06
-1.91285e-06
4.59945e-06
-1.75044e-06
6.14499e-06
-1.56377e-06
7.48719e-06
-1.35838e-06
8.61357e-06
-1.14034e-06
9.51791e-06
-9.15989e-07
1.02002e-05
-6.91606e-07
1.06665e-05
-4.73154e-07
1.09278e-05
-2.66005e-07
1.10001e-05
-7.47238e-08
1.09026e-05
9.70848e-08
1.0657e-05
2.46867e-07
1.02868e-05
3.73136e-07
9.81566e-06
4.75431e-07
9.2668e-06
5.54211e-07
8.66226e-06
6.10723e-07
8.02223e-06
6.46822e-07
7.36462e-06
6.64808e-07
6.70477e-06
6.67229e-07
6.05544e-06
6.56761e-07
5.42673e-06
6.36017e-07
4.82633e-06
6.0752e-07
4.25959e-06
5.73527e-07
3.72994e-06
5.36125e-07
3.23894e-06
4.97013e-07
2.78685e-06
4.57774e-07
2.37252e-06
4.19483e-07
1.99418e-06
3.83235e-07
1.64912e-06
3.49358e-07
1.3349e-06
3.18409e-07
1.04878e-06
2.89578e-07
7.89653e-07
2.6271e-07
5.57118e-07
2.35112e-07
3.54165e-07
2.05957e-07
1.85814e-07
1.69883e-07
6.08128e-08
1.2729e-07
-1.05441e-08
7.17448e-08
-2.60463e-08
1.69551e-08
-2.60865e-08
4.52121e-08
-3.70446e-08
1.96578e-07
-1.97477e-07
4.47478e-07
-3.4299e-07
7.74237e-07
-4.61085e-07
1.15304e-06
-5.34748e-07
1.5564e-06
-5.72523e-07
1.96338e-06
-5.7577e-07
2.35434e-06
-5.5369e-07
2.71616e-06
-5.11097e-07
3.03823e-06
-4.55285e-07
3.31492e-06
-3.90933e-07
3.54286e-06
-3.23157e-07
3.72195e-06
-2.55287e-07
3.85346e-06
-1.90267e-07
3.94031e-06
-1.2971e-07
3.98577e-06
-7.45909e-08
3.99333e-06
-2.48887e-08
3.96593e-06
2.00192e-08
3.90568e-06
6.1441e-08
3.81342e-06
1.01102e-07
3.68858e-06
1.41093e-07
3.52894e-06
1.83664e-07
3.33071e-06
2.31117e-07
3.08849e-06
2.85643e-07
2.79551e-06
3.49239e-07
2.44372e-06
4.23612e-07
2.02414e-06
5.10152e-07
1.52699e-06
6.09916e-07
9.41977e-07
7.2366e-07
2.5851e-07
8.51861e-07
-5.34134e-07
9.94757e-07
-1.44661e-06
1.15236e-06
-2.48928e-06
1.32444e-06
-3.67206e-06
1.51051e-06
-5.00408e-06
1.70977e-06
-6.49346e-06
1.92105e-06
-8.14692e-06
2.14273e-06
-9.9695e-06
2.37276e-06
-1.19641e-05
2.60855e-06
-1.41312e-05
2.84702e-06
-1.64683e-05
3.08459e-06
-1.89701e-05
3.31722e-06
-2.16276e-05
3.54048e-06
-2.44284e-05
3.74964e-06
-2.73565e-05
3.93975e-06
-3.03921e-05
4.10577e-06
-3.35119e-05
4.24268e-06
-3.66892e-05
4.34562e-06
-3.98944e-05
4.40999e-06
-4.3095e-05
4.4316e-06
-4.62561e-05
4.40676e-06
-4.93414e-05
4.33232e-06
-5.23131e-05
4.20583e-06
-5.51327e-05
4.0255e-06
-5.77617e-05
3.79033e-06
-6.01619e-05
3.50004e-06
-6.22964e-05
3.15519e-06
-6.41297e-05
2.75711e-06
-6.56284e-05
2.30796e-06
-6.6762e-05
1.81071e-06
-6.75028e-05
1.26919e-06
-6.78272e-05
6.88065e-07
-6.77154e-05
7.28665e-08
-6.71525e-05
-5.69996e-07
-6.61287e-05
-1.23324e-06
-6.46394e-05
-1.90872e-06
-6.26864e-05
-2.58748e-06
-6.02775e-05
-3.25977e-06
-5.74272e-05
-3.9152e-06
-5.41569e-05
-4.54285e-06
-5.04947e-05
-5.13145e-06
-4.64758e-05
-5.66964e-06
-4.21422e-05
-6.14625e-06
-3.75422e-05
-6.55062e-06
-3.27298e-05
-6.87297e-06
-2.77644e-05
-7.10479e-06
-2.27093e-05
-7.23924e-06
-1.76309e-05
-7.27153e-06
-1.25973e-05
-7.19924e-06
-7.67641e-06
-7.02259e-06
-2.93476e-06
-6.74464e-06
1.56447e-06
-6.3713e-06
5.76309e-06
-5.9113e-06
9.60952e-06
-5.37595e-06
1.30603e-05
-4.77879e-06
1.60812e-05
-4.13513e-06
1.86485e-05
-3.46148e-06
2.07491e-05
-2.77485e-06
2.23809e-05
-2.0921e-06
2.35527e-05
-1.42927e-06
2.42834e-05
-8.00897e-07
2.46008e-05
-2.19537e-07
2.45404e-05
3.04711e-07
2.41436e-05
7.6445e-07
2.34559e-05
1.15512e-06
2.25251e-05
1.47494e-06
2.13996e-05
1.72472e-06
2.01261e-05
1.90756e-06
1.87491e-05
2.02842e-06
1.73089e-05
2.09365e-06
1.58413e-05
2.11056e-06
1.43767e-05
2.08689e-06
1.29405e-05
2.03052e-06
1.15524e-05
1.94897e-06
1.02271e-05
1.84938e-06
8.9748e-06
1.73803e-06
7.80152e-06
1.62061e-06
6.70962e-06
1.50159e-06
5.69912e-06
1.38489e-06
4.76756e-06
1.27258e-06
3.9123e-06
1.16636e-06
3.12993e-06
1.06488e-06
2.41986e-06
9.66969e-07
1.78272e-06
8.66351e-07
1.22523e-06
7.59305e-07
7.56375e-07
6.34092e-07
3.91467e-07
4.9015e-07
1.43454e-07
3.16576e-07
1.83043e-08
1.42225e-07
-9.21952e-09
9.28349e-08
-1.29582e-07
3.38745e-07
-4.46725e-07
7.17404e-07
-7.21644e-07
1.19071e-06
-9.37764e-07
1.72911e-06
-1.07478e-06
2.29615e-06
-1.14291e-06
2.86463e-06
-1.14656e-06
3.40801e-06
-1.1001e-06
3.90811e-06
-1.01349e-06
4.34978e-06
-8.99419e-07
4.72428e-06
-7.67308e-07
5.02583e-06
-6.26491e-07
5.25288e-06
-4.83652e-07
5.40578e-06
-3.44278e-07
5.48696e-06
-2.11633e-07
5.49934e-06
-8.75113e-08
5.44611e-06
2.80824e-08
5.32962e-06
1.36454e-07
5.15102e-06
2.40196e-07
4.90966e-06
3.428e-07
4.60284e-06
4.48462e-07
4.22552e-06
5.61727e-07
3.77038e-06
6.8723e-07
3.22785e-06
8.29403e-07
2.58637e-06
9.92256e-07
1.83266e-06
1.17921e-06
9.52132e-07
1.39298e-06
-7.07629e-08
1.63558e-06
-1.2521e-06
1.90831e-06
-2.60808e-06
2.21178e-06
-4.15469e-06
2.54599e-06
-5.9072e-06
2.91026e-06
-7.87982e-06
3.3033e-06
-1.00852e-05
3.72302e-06
-1.25338e-05
4.16655e-06
-1.52337e-05
4.63007e-06
-1.81894e-05
5.10875e-06
-2.14019e-05
5.59672e-06
-2.48677e-05
6.08707e-06
-2.85788e-05
6.57191e-06
-3.25216e-05
7.04249e-06
-3.66774e-05
7.48936e-06
-4.10221e-05
7.90261e-06
-4.5526e-05
8.27212e-06
-5.01546e-05
8.58782e-06
-5.48684e-05
8.84002e-06
-5.96241e-05
9.01964e-06
-6.43752e-05
9.11848e-06
-6.90726e-05
9.12947e-06
-7.36654e-05
9.04678e-06
-7.81024e-05
8.86599e-06
-8.23323e-05
8.58414e-06
-8.63049e-05
8.19974e-06
-8.99717e-05
7.71279e-06
-9.32868e-05
7.12468e-06
-9.62071e-05
6.43817e-06
-9.86931e-05
5.65728e-06
-0.000100709
4.78728e-06
-0.000102224
3.83454e-06
-0.000103211
2.80658e-06
-0.000103647
1.71197e-06
-0.000103516
5.6037e-07
-0.000102805
-6.37521e-07
-0.000101508
-1.86992e-06
-9.96243e-05
-3.12397e-06
-9.71573e-05
-4.38576e-06
-9.4118e-05
-5.64034e-06
-9.0523e-05
-6.87181e-06
-8.63952e-05
-8.06344e-06
-8.17638e-05
-9.1978e-06
-7.66648e-05
-1.02571e-05
-7.11404e-05
-1.12233e-05
-6.52395e-05
-1.20788e-05
-5.90171e-05
-1.28068e-05
-5.25338e-05
-1.33915e-05
-4.58558e-05
-1.38191e-05
-3.90537e-05
-1.40784e-05
-3.22014e-05
-1.41608e-05
-2.53756e-05
-1.40617e-05
-1.86537e-05
-1.37801e-05
-1.21129e-05
-1.33195e-05
-5.82839e-06
-1.2688e-05
1.28612e-07
-1.18981e-05
5.69213e-06
-1.09665e-05
1.08033e-05
-9.91393e-06
1.54119e-05
-8.76441e-06
1.94777e-05
-7.54445e-06
2.29714e-05
-6.28222e-06
2.58755e-05
-5.00648e-06
2.8185e-05
-3.74558e-06
2.99068e-05
-2.52642e-06
3.106e-05
-1.37343e-06
3.16743e-05
-3.07769e-07
3.17896e-05
6.53381e-07
3.14536e-05
1.49732e-06
3.07202e-05
2.21607e-06
2.96476e-05
2.80637e-06
2.82957e-05
3.26941e-06
2.67242e-05
3.61044e-06
2.49906e-05
3.83805e-06
2.31486e-05
3.96346e-06
2.12465e-05
3.99966e-06
1.93268e-05
3.96072e-06
1.74249e-05
3.86087e-06
1.55696e-05
3.71413e-06
1.37831e-05
3.53346e-06
1.20812e-05
3.33081e-06
1.04742e-05
3.11617e-06
8.9682e-06
2.89811e-06
7.56499e-06
2.68212e-06
6.26536e-06
2.47212e-06
5.06813e-06
2.26718e-06
3.97511e-06
2.06524e-06
2.98843e-06
1.85676e-06
2.11784e-06
1.63435e-06
1.3736e-06
1.38038e-06
7.75917e-07
1.09155e-06
3.38716e-07
7.53594e-07
8.10649e-08
4.03185e-07
7.12659e-08
1.3256e-07
-2.59945e-07
4.56159e-07
-7.72177e-07
9.34153e-07
-1.19625e-06
1.51427e-06
-1.51792e-06
2.1624e-06
-1.7201e-06
2.83593e-06
-1.81536e-06
3.50437e-06
-1.81255e-06
4.13692e-06
-1.73119e-06
4.71245e-06
-1.58699e-06
5.21266e-06
-1.39823e-06
5.62647e-06
-1.17957e-06
5.94588e-06
-9.44812e-07
6.16759e-06
-7.04312e-07
6.29027e-06
-4.6625e-07
6.31487e-06
-2.35634e-07
6.24273e-06
-1.50274e-08
6.07534e-06
1.95693e-07
5.81303e-06
3.9879e-07
5.45462e-06
5.98508e-07
4.99661e-06
8.00555e-07
4.43296e-06
1.01172e-06
3.75479e-06
1.23935e-06
2.95041e-06
1.49089e-06
2.0055e-06
1.77341e-06
9.03403e-07
2.09323e-06
-3.74408e-07
2.45563e-06
-1.84779e-06
2.86468e-06
-3.53734e-06
3.32311e-06
-5.4638e-06
3.83234e-06
-7.64737e-06
4.39249e-06
-1.01071e-05
5.00234e-06
-1.28601e-05
5.65937e-06
-1.5921e-05
6.35965e-06
-1.93009e-05
7.09773e-06
-2.30068e-05
7.86654e-06
-2.70407e-05
8.65731e-06
-3.1399e-05
9.45952e-06
-3.60715e-05
1.0261e-05
-4.10415e-05
1.10479e-05
-4.6285e-05
1.18054e-05
-5.1771e-05
1.25176e-05
-5.74617e-05
1.31682e-05
-6.33126e-05
1.3741e-05
-6.92741e-05
1.42203e-05
-7.52918e-05
1.45915e-05
-8.13079e-05
1.48415e-05
-8.72625e-05
1.49591e-05
-9.3095e-05
1.49354e-05
-9.8745e-05
1.47637e-05
-0.000104154
1.44399e-05
-0.000109266
1.3962e-05
-0.000114028
1.33306e-05
-0.000118391
1.25482e-05
-0.000122312
1.16192e-05
-0.00012575
1.05498e-05
-0.000128672
9.34747e-06
-0.000131047
8.02117e-06
-0.00013285
6.58085e-06
-0.000134061
5.03753e-06
-0.000134664
3.40316e-06
-0.000134646
1.69066e-06
-0.000134002
-8.61262e-08
-0.000132726
-1.91234e-06
-0.000130822
-3.77206e-06
-0.000128292
-5.64826e-06
-0.000125148
-7.52271e-06
-0.000121402
-9.37602e-06
-0.000117074
-1.11876e-05
-0.000112188
-1.29357e-05
-0.000106771
-1.45978e-05
-0.000100859
-1.61506e-05
-9.44912e-05
-1.75704e-05
-8.77142e-05
-1.88338e-05
-8.05795e-05
-1.99181e-05
-7.31449e-05
-2.08018e-05
-6.54734e-05
-2.14656e-05
-5.76331e-05
-2.18933e-05
-4.96965e-05
-2.2072e-05
-4.17394e-05
-2.19936e-05
-3.38403e-05
-2.16548e-05
-2.60782e-05
-2.10582e-05
-1.8532e-05
-2.02121e-05
-1.12784e-05
-1.91311e-05
-4.39074e-06
-1.78355e-05
2.06322e-06
-1.63513e-05
8.02238e-06
-1.47092e-05
1.34339e-05
-1.2944e-05
1.82547e-05
-1.10933e-05
2.2452e-05
-9.19655e-06
2.60049e-05
-7.29346e-06
2.89041e-05
-5.4229e-06
3.11529e-05
-3.62152e-06
3.27666e-05
-1.92257e-06
3.3772e-05
-3.54785e-07
3.42067e-05
1.05845e-06
3.41177e-05
2.29979e-06
3.35596e-05
3.35829e-06
3.25926e-05
4.22945e-06
3.12807e-05
4.91502e-06
2.96889e-05
5.42236e-06
2.7881e-05
5.76371e-06
2.5918e-05
5.9551e-06
2.3856e-05
6.01535e-06
2.1745e-05
5.96477e-06
1.96281e-05
5.82433e-06
1.75408e-05
5.61437e-06
1.55115e-05
5.35421e-06
1.35614e-05
5.06074e-06
1.17059e-05
4.7487e-06
9.95457e-06
4.42859e-06
8.31483e-06
4.1079e-06
6.79026e-06
3.78755e-06
5.38704e-06
3.46553e-06
4.10973e-06
3.13032e-06
2.97128e-06
2.77116e-06
1.98249e-06
2.36564e-06
1.16836e-06
1.90587e-06
5.44798e-07
1.37326e-06
1.49079e-07
8.01425e-07
2.17911e-07
1.57815e-07
-4.16543e-07
5.36635e-07
-1.15501e-06
1.08593e-06
-1.74383e-06
1.7402e-06
-2.17503e-06
2.4599e-06
-2.43975e-06
3.1968e-06
-2.55444e-06
3.91788e-06
-2.53433e-06
4.58935e-06
-2.40441e-06
5.18825e-06
-2.18681e-06
5.69418e-06
-1.90551e-06
6.09438e-06
-1.58062e-06
6.37903e-06
-1.23042e-06
6.54306e-06
-8.68967e-07
6.5832e-06
-5.07004e-07
6.49833e-06
-1.51133e-07
6.28742e-06
1.95576e-07
5.94929e-06
5.33688e-07
5.48121e-06
8.6682e-07
4.8785e-06
1.20131e-06
4.13369e-06
1.54554e-06
3.23635e-06
1.90935e-06
2.17282e-06
2.30328e-06
9.26343e-07
2.7379e-06
-5.22651e-07
3.22307e-06
-2.19601e-06
3.76742e-06
-4.11723e-06
4.37788e-06
-6.31067e-06
5.05936e-06
-8.8007e-06
5.81463e-06
-1.16108e-05
6.64421e-06
-1.47625e-05
7.54635e-06
-1.82747e-05
8.51702e-06
-2.21622e-05
9.54981e-06
-2.64351e-05
1.06359e-05
-3.10974e-05
1.17639e-05
-3.61462e-05
1.29197e-05
-4.1571e-05
1.4087e-05
-4.73528e-05
1.52468e-05
-5.34639e-05
1.63782e-05
-5.9868e-05
1.74588e-05
-6.65205e-05
1.84653e-05
-7.33693e-05
1.93744e-05
-8.0356e-05
2.01635e-05
-8.74172e-05
2.08114e-05
-9.44864e-05
2.12992e-05
-0.000101495
2.16107e-05
-0.000108377
2.17332e-05
-0.000115064
2.16572e-05
-0.000121494
2.1377e-05
-0.00012761
2.08903e-05
-0.000133356
2.01978e-05
-0.000138686
1.93033e-05
-0.000143558
1.82129e-05
-0.000147934
1.6935e-05
-0.000151784
1.54793e-05
-0.000155082
1.3857e-05
-0.000157806
1.20804e-05
-0.00015994
1.01624e-05
-0.000161469
8.11666e-06
-0.000162384
5.95747e-06
-0.000162677
3.69968e-06
-0.000162343
1.3588e-06
-0.000161379
-1.04886e-06
-0.000159786
-3.50606e-06
-0.000157566
-5.99445e-06
-0.000154724
-8.49441e-06
-0.000151267
-1.09849e-05
-0.000147207
-1.34435e-05
-0.000142558
-1.58459e-05
-0.000137338
-1.81665e-05
-0.000131569
-2.03782e-05
-0.000125281
-2.24527e-05
-0.000118505
-2.43609e-05
-0.000111281
-2.60736e-05
-0.000103653
-2.75619e-05
-9.56743e-05
-2.8798e-05
-8.74012e-05
-2.97564e-05
-7.88977e-05
-3.04147e-05
-7.0233e-05
-3.07546e-05
-6.14809e-05
-3.07633e-05
-5.27191e-05
-3.04338e-05
-4.40278e-05
-2.9766e-05
-3.5488e-05
-2.87674e-05
-2.71805e-05
-2.7453e-05
-1.91836e-05
-2.58455e-05
-1.15719e-05
-2.39747e-05
-4.41445e-06
-2.18769e-05
2.22679e-06
-1.95938e-05
8.29796e-06
-1.71714e-05
1.37546e-05
-1.46585e-05
1.85627e-05
-1.21052e-05
2.26991e-05
-9.56136e-06
2.6152e-05
-7.07512e-06
2.89216e-05
-4.69146e-06
3.10194e-05
-2.45086e-06
3.24688e-05
-3.88111e-07
3.33036e-05
1.46861e-06
3.35676e-05
3.09853e-06
3.33131e-05
4.4887e-06
3.25992e-05
5.63413e-06
3.14893e-05
6.5375e-06
3.00498e-05
7.20859e-06
2.8347e-05
7.66327e-06
2.64452e-05
7.92239e-06
2.44047e-05
8.01027e-06
2.22805e-05
7.95345e-06
2.01203e-05
7.77901e-06
1.79652e-05
7.51361e-06
1.58482e-05
7.18163e-06
1.37958e-05
6.80485e-06
1.18275e-05
6.40004e-06
9.95918e-06
5.97958e-06
8.20132e-06
5.54775e-06
6.56615e-06
5.10377e-06
5.06209e-06
4.63571e-06
3.70651e-06
4.12982e-06
2.51219e-06
3.55983e-06
1.51067e-06
2.91102e-06
7.22715e-07
2.1587e-06
2.05578e-07
1.32368e-06
4.21624e-07
1.75002e-07
-5.89135e-07
5.90987e-07
-1.57417e-06
1.18626e-06
-2.33561e-06
1.8846e-06
-2.87462e-06
2.64096e-06
-3.19387e-06
3.40232e-06
-3.31588e-06
4.13353e-06
-3.26391e-06
4.79866e-06
-3.06912e-06
5.37361e-06
-2.76056e-06
5.83656e-06
-2.36791e-06
6.17354e-06
-1.91672e-06
6.37311e-06
-1.4295e-06
6.42845e-06
-9.23716e-07
6.33408e-06
-4.123e-07
6.08632e-06
9.69645e-08
5.68111e-06
6.00968e-07
5.11372e-06
1.1012e-06
4.37741e-06
1.60315e-06
3.46298e-06
2.1157e-06
2.35801e-06
2.65036e-06
1.04679e-06
3.22037e-06
-4.89876e-07
3.83964e-06
-2.27424e-06
4.52187e-06
-4.33116e-06
5.2795e-06
-6.68731e-06
6.12295e-06
-9.37019e-06
7.06e-06
-1.24071e-05
8.09532e-06
-1.58238e-05
9.23022e-06
-1.96434e-05
1.04625e-05
-2.38851e-05
1.17865e-05
-2.85627e-05
1.31928e-05
-3.36834e-05
1.46683e-05
-3.92463e-05
1.61964e-05
-4.5242e-05
1.77567e-05
-5.1651e-05
1.93255e-05
-5.84437e-05
2.0876e-05
-6.55801e-05
2.23792e-05
-7.30106e-05
2.38042e-05
-8.06769e-05
2.51202e-05
-8.85135e-05
2.62965e-05
-9.64493e-05
2.73045e-05
-0.000104411
2.81185e-05
-0.000112322
2.87165e-05
-0.000120111
2.90808e-05
-0.000127706
2.91986e-05
-0.000135042
2.90619e-05
-0.00014206
2.86673e-05
-0.000148707
2.80158e-05
-0.000154937
2.7112e-05
-0.000160711
2.59636e-05
-0.000165996
2.45809e-05
-0.000170767
2.29759e-05
-0.000175001
2.11621e-05
-0.000178682
1.91537e-05
-0.000181797
1.69654e-05
-0.000184335
1.46124e-05
-0.000186287
1.21098e-05
-0.000187648
9.47315e-06
-0.000188411
6.71784e-06
-0.000188574
3.85977e-06
-0.000188132
9.15298e-07
-0.000187082
-2.09849e-06
-0.000185424
-5.1635e-06
-0.000183156
-8.26038e-06
-0.000180279
-1.13682e-05
-0.000176795
-1.44643e-05
-0.000172709
-1.75239e-05
-0.000168027
-2.05203e-05
-0.000162762
-2.34244e-05
-0.000156926
-2.62052e-05
-0.000150539
-2.88298e-05
-0.000143626
-3.12637e-05
-0.000136216
-3.34717e-05
-0.000128348
-3.54182e-05
-0.000120065
-3.70687e-05
-0.000111418
-3.83904e-05
-0.000102466
-3.93537e-05
-9.32748e-05
-3.99335e-05
-8.39152e-05
-4.01104e-05
-7.44648e-05
-3.98721e-05
-6.50048e-05
-3.92144e-05
-5.56191e-05
-3.8142e-05
-4.63928e-05
-3.66692e-05
-3.74098e-05
-3.48193e-05
-2.87511e-05
-3.2625e-05
-2.04935e-05
-3.01273e-05
-1.27072e-05
-2.7374e-05
-5.45468e-06
-2.44189e-05
1.21008e-06
-2.13194e-05
7.24297e-06
-1.81354e-05
1.26101e-05
-1.49268e-05
1.72881e-05
-1.17525e-05
2.12647e-05
-8.66833e-06
2.45383e-05
-5.72568e-06
2.71187e-05
-2.97032e-06
2.90261e-05
-4.41182e-07
3.02911e-05
1.83059e-06
3.09541e-05
3.82237e-06
3.10642e-05
5.52049e-06
3.06775e-05
6.92039e-06
2.9856e-05
8.02636e-06
2.86646e-05
8.85082e-06
2.71699e-05
9.41339e-06
2.54372e-05
9.73941e-06
2.35287e-05
9.85847e-06
2.1502e-05
9.80246e-06
1.94085e-05
9.60411e-06
1.72925e-05
9.29473e-06
1.51917e-05
8.90316e-06
1.31361e-05
8.45298e-06
1.11515e-05
7.96232e-06
9.25669e-06
7.44011e-06
7.47136e-06
6.88802e-06
5.80935e-06
6.29516e-06
4.2938e-06
5.64543e-06
2.94107e-06
4.90943e-06
1.79027e-06
4.06376e-06
8.68629e-07
3.07552e-06
2.51802e-07
1.94529e-06
6.70137e-07
1.84418e-07
-7.71767e-07
6.21289e-07
-2.01535e-06
1.24015e-06
-2.95186e-06
1.95611e-06
-3.59323e-06
2.71886e-06
-3.95571e-06
3.47105e-06
-4.06976e-06
4.17545e-06
-3.96822e-06
4.79444e-06
-3.68927e-06
5.30307e-06
-3.26944e-06
5.67851e-06
-2.74416e-06
5.9058e-06
-2.14434e-06
5.97211e-06
-1.49636e-06
5.86879e-06
-8.20673e-07
5.58798e-06
-1.31846e-07
5.12304e-06
5.61733e-07
4.46628e-06
1.25755e-06
3.60878e-06
1.95865e-06
2.53894e-06
2.67294e-06
1.24227e-06
3.41242e-06
-2.9936e-07
4.19208e-06
-2.10754e-06
5.02871e-06
-4.20727e-06
5.93958e-06
-6.62621e-06
6.9411e-06
-9.39392e-06
8.04758e-06
-1.25406e-05
9.27012e-06
-1.60959e-05
1.06158e-05
-2.00872e-05
1.20873e-05
-2.45381e-05
1.3682e-05
-2.9467e-05
1.53924e-05
-3.48853e-05
1.72059e-05
-4.07958e-05
1.91046e-05
-4.71915e-05
2.10656e-05
-5.40546e-05
2.30613e-05
-6.13553e-05
2.50596e-05
-6.90524e-05
2.7025e-05
-7.70933e-05
2.89195e-05
-8.54151e-05
3.07039e-05
-9.39467e-05
3.23392e-05
-0.000102611
3.37882e-05
-0.000111328
3.50171e-05
-0.000120016
3.59969e-05
-0.000128597
3.67038e-05
-0.000136996
3.71203e-05
-0.000145145
3.7235e-05
-0.000152984
3.70427e-05
-0.00016046
3.65436e-05
-0.00016753
3.57426e-05
-0.000174157
3.46486e-05
-0.000180313
3.32735e-05
-0.000185975
3.16313e-05
-0.000191127
2.97375e-05
-0.000195754
2.76085e-05
-0.000199847
2.52608e-05
-0.0002034
2.27111e-05
-0.000206406
1.99757e-05
-0.00020886
1.70706e-05
-0.000210759
1.40115e-05
-0.000212097
1.08139e-05
-0.00021287
7.49316e-06
-0.000213074
4.0649e-06
-0.000212703
5.45185e-07
-0.000211753
-3.04913e-06
-0.000210217
-6.70003e-06
-0.000208092
-1.0388e-05
-0.000205371
-1.40916e-05
-0.000202051
-1.77873e-05
-0.00019813
-2.1449e-05
-0.000193608
-2.50479e-05
-0.000188486
-2.85524e-05
-0.000182769
-3.19279e-05
-0.000176469
-3.51374e-05
-0.000169599
-3.81413e-05
-0.00016218
-4.08983e-05
-0.000154241
-4.33661e-05
-0.000145816
-4.55025e-05
-0.000136949
-4.72666e-05
-0.000127691
-4.86203e-05
-0.000118104
-4.95299e-05
-0.000108255
-4.99678e-05
-9.82218e-05
-4.9914e-05
-8.80863e-05
-4.93581e-05
-7.79363e-05
-4.82998e-05
-6.78621e-05
-4.67504e-05
-5.79552e-05
-4.47327e-05
-4.83053e-05
-4.22808e-05
-3.89982e-05
-3.94394e-05
-3.01141e-05
-3.62624e-05
-2.17253e-05
-3.28112e-05
-1.38951e-05
-2.91524e-05
-6.67669e-06
-2.53557e-05
-1.12817e-07
-2.14919e-05
5.76459e-06
-1.76304e-05
1.09343e-05
-1.38379e-05
1.53856e-05
-1.01762e-05
1.91181e-05
-6.70151e-06
2.21413e-05
-3.46276e-06
2.44749e-05
-5.00942e-07
2.61478e-05
2.15177e-06
2.71981e-05
4.47267e-06
2.76722e-05
6.44887e-06
2.76238e-05
8.07744e-06
2.71122e-05
9.36507e-06
2.62008e-05
1.03274e-05
2.49547e-05
1.0988e-05
2.34392e-05
1.13765e-05
2.17167e-05
1.15272e-05
1.98462e-05
1.14769e-05
1.78805e-05
1.12622e-05
1.58675e-05
1.09183e-05
1.38468e-05
1.04752e-05
1.1854e-05
9.95701e-06
9.91685e-06
9.37815e-06
8.06347e-06
8.74344e-06
6.31444e-06
8.04422e-06
4.69989e-06
7.2625e-06
3.24159e-06
6.36632e-06
1.98689e-06
5.32231e-06
9.70424e-07
4.08787e-06
2.83101e-07
2.63899e-06
9.50361e-07
1.89548e-07
-9.58907e-07
6.34651e-07
-2.46421e-06
1.2576e-06
-3.57133e-06
1.96676e-06
-4.3042e-06
2.70713e-06
-4.69412e-06
3.41794e-06
-4.78121e-06
4.06015e-06
-4.60921e-06
4.59492e-06
-4.22413e-06
4.99667e-06
-3.67039e-06
5.24184e-06
-2.98919e-06
5.3146e-06
-2.21656e-06
5.20068e-06
-1.38227e-06
4.8895e-06
-5.09145e-07
4.3705e-06
3.87301e-07
3.63361e-06
1.29883e-06
2.66696e-06
2.22428e-06
1.45674e-06
3.16894e-06
-1.41126e-08
4.1438e-06
-1.76606e-06
5.16435e-06
-3.82334e-06
6.24928e-06
-6.21356e-06
7.41882e-06
-8.96722e-06
8.69307e-06
-1.21165e-05
1.00902e-05
-1.56942e-05
1.1625e-05
-1.97317e-05
1.33073e-05
-2.42574e-05
1.51412e-05
-2.92949e-05
1.71242e-05
-3.48608e-05
1.92472e-05
-4.0963e-05
2.14939e-05
-4.75989e-05
2.3841e-05
-5.47541e-05
2.62589e-05
-6.24015e-05
2.87118e-05
-7.05004e-05
3.11589e-05
-7.89975e-05
3.35552e-05
-8.78276e-05
3.58534e-05
-9.69157e-05
3.80057e-05
-0.00010618
3.99656e-05
-0.000115533
4.16903e-05
-0.000124889
4.31418e-05
-0.000134164
4.42889e-05
-0.000143278
4.51076e-05
-0.000152159
4.55818e-05
-0.000160745
4.57028e-05
-0.000168982
4.54689e-05
-0.000176828
4.48845e-05
-0.000184247
4.39586e-05
-0.000191212
4.27044e-05
-0.000197705
4.11375e-05
-0.000203711
3.92754e-05
-0.00020922
3.71365e-05
-0.000214225
3.47394e-05
-0.000218723
3.21026e-05
-0.00022271
2.9244e-05
-0.000226183
2.6181e-05
-0.00022914
2.293e-05
-0.000231579
1.95068e-05
-0.000233496
1.59267e-05
-0.000234888
1.22043e-05
-0.00023575
8.35429e-06
-0.000236078
4.39137e-06
-0.000235863
3.30717e-07
-0.0002351
-3.81165e-06
-0.000233781
-8.01849e-06
-0.000231897
-1.22709e-05
-0.000229438
-1.65477e-05
-0.000226397
-2.08256e-05
-0.000222765
-2.5078e-05
-0.000218534
-2.92753e-05
-0.000213698
-3.33842e-05
-0.000208253
-3.73679e-05
-0.000202199
-4.1186e-05
-0.00019554
-4.47948e-05
-0.000188285
-4.81474e-05
-0.00018045
-5.11951e-05
-0.000172058
-5.38879e-05
-0.000163142
-5.61761e-05
-0.000153744
-5.8012e-05
-0.000143916
-5.93516e-05
-0.00013372
-6.01568e-05
-0.00012323
-6.03976e-05
-0.000112529
-6.0054e-05
-0.000101705
-5.91179e-05
-9.08559e-05
-5.75945e-05
-8.0081e-05
-5.55029e-05
-6.94811e-05
-5.28766e-05
-5.91544e-05
-4.97625e-05
-4.91943e-05
-4.62194e-05
-3.96865e-05
-4.23165e-05
-3.07068e-05
-3.81301e-05
-2.23201e-05
-3.37411e-05
-1.45789e-05
-2.92322e-05
-7.52383e-06
-2.46851e-05
-1.18353e-06
-2.01782e-05
4.42459e-06
-1.57848e-05
9.2936e-06
-1.15713e-05
1.34263e-05
-7.59663e-06
1.68349e-05
-3.91085e-06
1.95401e-05
-5.54978e-07
2.15712e-05
2.43982e-06
2.29658e-05
5.05253e-06
2.37687e-05
7.27264e-06
2.40319e-05
9.10005e-06
2.38127e-05
1.05448e-05
2.31725e-05
1.16263e-05
2.21752e-05
1.23721e-05
2.08846e-05
1.28162e-05
1.93633e-05
1.29967e-05
1.76699e-05
1.2954e-05
1.58596e-05
1.27275e-05
1.39801e-05
1.23531e-05
1.20762e-05
1.18602e-05
1.01841e-05
1.12687e-05
8.34057e-06
1.05869e-05
6.57375e-06
9.80907e-06
4.92145e-06
8.91577e-06
3.41202e-06
7.87278e-06
2.10087e-06
6.63636e-06
1.03001e-06
5.15342e-06
3.01392e-07
3.37366e-06
1.24807e-06
1.90452e-07
-1.14736e-06
6.32419e-07
-2.91043e-06
1.24174e-06
-4.17772e-06
1.92142e-06
-4.98634e-06
2.6125e-06
-5.38395e-06
3.2516e-06
-5.42171e-06
3.7982e-06
-5.15537e-06
4.21268e-06
-4.63945e-06
4.46895e-06
-3.92659e-06
4.54287e-06
-3.06366e-06
4.41771e-06
-2.09147e-06
4.07769e-06
-1.04259e-06
3.51e-06
5.84462e-08
2.70105e-06
1.19604e-06
1.63688e-06
2.36293e-06
3.00921e-07
3.56012e-06
-1.32603e-06
4.79587e-06
-3.267e-06
6.08474e-06
-5.54863e-06
7.446e-06
-8.20122e-06
8.90191e-06
-1.12579e-05
1.04755e-05
-1.47534e-05
1.21887e-05
-1.87227e-05
1.40597e-05
-2.31989e-05
1.61014e-05
-2.8211e-05
1.83197e-05
-3.37819e-05
2.07124e-05
-3.9926e-05
2.32687e-05
-4.66469e-05
2.59686e-05
-5.39359e-05
2.87835e-05
-6.17706e-05
3.16764e-05
-7.01139e-05
3.4603e-05
-7.89142e-05
3.7513e-05
-8.81063e-05
4.03519e-05
-9.76132e-05
4.30632e-05
-0.000107349
4.55907e-05
-0.000117223
4.7881e-05
-0.000127142
4.98861e-05
-0.000137015
5.15653e-05
-0.000146758
5.28862e-05
-0.000156293
5.38257e-05
-0.000165553
5.43699e-05
-0.000174482
5.45133e-05
-0.000183035
5.42582e-05
-0.000191176
5.36129e-05
-0.00019888
5.25906e-05
-0.000206127
5.12082e-05
-0.000212904
4.94847e-05
-0.000219205
4.74405e-05
-0.000225023
4.50964e-05
-0.000230357
4.24732e-05
-0.000235206
3.95911e-05
-0.00023957
3.64693e-05
-0.00024345
3.31261e-05
-0.000246846
2.95789e-05
-0.000249758
2.58437e-05
-0.000252185
2.19358e-05
-0.000254127
1.78696e-05
-0.000255581
1.36589e-05
-0.000256543
9.3174e-06
-0.00025701
4.85847e-06
-0.000256976
2.96007e-07
-0.000256432
-4.35539e-06
-0.000255372
-9.07991e-06
-0.000253784
-1.38601e-05
-0.000251657
-1.86763e-05
-0.000248979
-2.35061e-05
-0.000245736
-2.83241e-05
-0.000241913
-3.31011e-05
-0.000237496
-3.78037e-05
-0.000232474
-4.23944e-05
-0.000226833
-4.6831e-05
-0.000220565
-5.10666e-05
-0.000213666
-5.50506e-05
-0.000206137
-5.87283e-05
-0.000197987
-6.20426e-05
-0.000189233
-6.4935e-05
-0.000179902
-6.73475e-05
-0.000170034
-6.92244e-05
-0.000159681
-7.0515e-05
-0.000148906
-7.11763e-05
-0.000137789
-7.11755e-05
-0.000126419
-7.04922e-05
-0.000114895
-6.91216e-05
-0.000103326
-6.70748e-05
-9.18252e-05
-6.43808e-05
-8.0505e-05
-6.10853e-05
-6.94764e-05
-5.72501e-05
-5.88437e-05
-5.2951e-05
-4.8701e-05
-4.82741e-05
-3.913e-05
-4.33131e-05
-3.01981e-05
-3.81647e-05
-2.19579e-05
-3.29255e-05
-1.44475e-05
-2.76886e-05
-7.691e-06
-2.2541e-05
-1.70038e-06
-1.75614e-05
3.52333e-06
-1.28196e-05
7.98861e-06
-8.37517e-06
1.17123e-05
-4.2776e-06
1.4719e-05
-5.65703e-07
1.70405e-05
2.73229e-06
1.87155e-05
5.59895e-06
1.97892e-05
8.02766e-06
2.03128e-05
1.00225e-05
2.03426e-05
1.15978e-05
1.99387e-05
1.27773e-05
1.91633e-05
1.35926e-05
1.80796e-05
1.40816e-05
1.67488e-05
1.42856e-05
1.52306e-05
1.42469e-05
1.35789e-05
1.40054e-05
1.18455e-05
1.35947e-05
1.00745e-05
1.30398e-05
8.31077e-06
1.23522e-05
6.59017e-06
1.1529e-05
4.95832e-06
1.05498e-05
3.45077e-06
9.37831e-06
2.13036e-06
7.9606e-06
1.04578e-06
6.23324e-06
3.057e-07
4.12047e-06
1.55048e-06
1.88263e-07
-1.33337e-06
6.16869e-07
-3.34285e-06
1.19573e-06
-4.75331e-06
1.82376e-06
-5.61635e-06
2.43889e-06
-5.99735e-06
2.97609e-06
-5.95975e-06
3.3939e-06
-5.57222e-06
3.65239e-06
-4.89824e-06
3.72516e-06
-3.99877e-06
3.58757e-06
-2.92612e-06
3.22183e-06
-1.72537e-06
2.61044e-06
-4.31171e-07
1.73802e-06
9.31087e-07
5.87499e-07
2.34661e-06
-8.59431e-07
3.80999e-06
-2.62449e-06
5.32521e-06
-4.73266e-06
6.9041e-06
-7.21305e-06
8.56512e-06
-1.00983e-05
1.03312e-05
-1.34239e-05
1.22275e-05
-1.72272e-05
1.42788e-05
-2.15452e-05
1.65066e-05
-2.64123e-05
1.89267e-05
-3.18582e-05
2.15471e-05
-3.79047e-05
2.4366e-05
-4.45636e-05
2.73711e-05
-5.18341e-05
3.05389e-05
-5.97012e-05
3.38353e-05
-6.8134e-05
3.72159e-05
-7.70856e-05
4.06275e-05
-8.64937e-05
4.40105e-05
-9.62818e-05
4.73005e-05
-0.000106362
5.04319e-05
-0.000116641
5.33405e-05
-0.000127018
5.59669e-05
-0.000137397
5.82587e-05
-0.000147685
6.01729e-05
-0.000157797
6.1677e-05
-0.000167662
6.27492e-05
-0.000177216
6.33781e-05
-0.000186409
6.35619e-05
-0.000195204
6.33063e-05
-0.000203571
6.26235e-05
-0.00021149
6.15305e-05
-0.000218949
6.00473e-05
-0.000225938
5.8196e-05
-0.000232455
5.59997e-05
-0.000238499
5.34817e-05
-0.000244069
5.06649e-05
-0.000249169
4.75713e-05
-0.000253801
4.4222e-05
-0.000257971
4.06369e-05
-0.00026168
3.68345e-05
-0.000264935
3.28319e-05
-0.000267738
2.86451e-05
-0.000270092
2.42888e-05
-0.000271999
1.97766e-05
-0.000273462
1.51213e-05
-0.00027448
1.03351e-05
-0.000275052
5.43e-06
-0.000275174
4.18003e-07
-0.00027484
-4.68834e-06
-0.000274044
-9.87549e-06
-0.000272775
-1.51284e-05
-0.00027102
-2.04299e-05
-0.000268764
-2.57601e-05
-0.00026599
-3.10959e-05
-0.000262679
-3.64103e-05
-0.000258808
-4.16717e-05
-0.000254357
-4.68435e-05
-0.000249301
-5.18838e-05
-0.00024362
-5.67449e-05
-0.000237293
-6.13738e-05
-0.000230306
-6.5712e-05
-0.000222649
-6.96966e-05
-0.000214319
-7.32612e-05
-0.000205326
-7.63377e-05
-0.000195688
-7.88584e-05
-0.000185441
-8.07586e-05
-0.000174635
-8.19796e-05
-0.000163335
-8.24722e-05
-0.000151625
-8.21995e-05
-0.000139603
-8.1141e-05
-0.000127381
-7.92945e-05
-0.000115081
-7.66781e-05
-0.000102833
-7.33313e-05
-9.07677e-05
-6.93143e-05
-7.90115e-05
-6.4706e-05
-6.76836e-05
-5.96011e-05
-5.68902e-05
-5.41057e-05
-4.67216e-05
-4.83329e-05
-3.72498e-05
-4.23971e-05
-2.85283e-05
-3.64102e-05
-2.05925e-05
-3.04769e-05
-1.34616e-05
-2.46927e-05
-7.14046e-06
-1.91412e-05
-1.62245e-06
-1.38938e-05
3.10863e-06
-9.00942e-06
7.07673e-06