/*--------------------------------*- C++ -*----------------------------------*\
| =========                 |                                                 |
| \\      /  F ield         | OpenFOAM: The Open Source CFD Toolbox           |
|  \\    /   O peration     | Version:  2406                                  |
|   \\  /    A nd           | Website:  www.openfoam.com                      |
|    \\/     M anipulation  |                                                 |
\*---------------------------------------------------------------------------*/
FoamFile
{
    version     2.0;
    format      ascii;
    arch        "LSB;label=32;scalar=64";
    class       volVectorField;
    location    "25.95";
    object      Uold;
}
// * * * * * * * * * * * * * * * * * * * * * * * * * * * * * * * * * * * * * //

dimensions      [0 1 -1 0 0 0 0];

internalField   nonuniform List<vector> 
14400
(
(-1.04188e-05 1.03645e-05 0)
(1.02694e-05 -1.21127e-05 0)
(9.74845e-05 -3.35089e-05 0)
(0.000234049 -5.0838e-05 0)
(0.0004112 -5.99613e-05 0)
(0.00060531 -6.44475e-05 0)
(0.000808696 -6.41413e-05 0)
(0.00100591 -6.12313e-05 0)
(0.00119268 -5.59741e-05 0)
(0.00136076 -4.96406e-05 0)
(0.00150891 -4.25494e-05 0)
(0.00163402 -3.54527e-05 0)
(0.00173712 -2.85903e-05 0)
(0.00181833 -2.23584e-05 0)
(0.00187996 -1.68559e-05 0)
(0.0019237 -1.2216e-05 0)
(0.00195214 -8.39273e-06 0)
(0.0019672 -5.33067e-06 0)
(0.00197086 -2.86761e-06 0)
(0.00196433 -8.25612e-07 0)
(0.00194837 1.02835e-06 0)
(0.00192288 2.92954e-06 0)
(0.00188709 5.1271e-06 0)
(0.00183941 7.85157e-06 0)
(0.00177759 1.13167e-05 0)
(0.0016987 1.57026e-05 0)
(0.00159931 2.11585e-05 0)
(0.00147552 2.77998e-05 0)
(0.00132311 3.57153e-05 0)
(0.00113759 4.4972e-05 0)
(0.000914321 5.56229e-05 0)
(0.000648495 6.77105e-05 0)
(0.000335246 8.12699e-05 0)
(-3.0321e-05 9.63258e-05 0)
(-0.000453065 0.000112889 0)
(-0.000937727 0.000130948 0)
(-0.00148882 0.000150462 0)
(-0.00211053 0.000171356 0)
(-0.00280653 0.00019351 0)
(-0.00357984 0.000216755 0)
(-0.00443267 0.000240873 0)
(-0.00536623 0.000265591 0)
(-0.00638055 0.000290582 0)
(-0.00747434 0.000315467 0)
(-0.00864482 0.00033982 0)
(-0.00988764 0.000363169 0)
(-0.0111967 0.000385005 0)
(-0.0125642 0.000404791 0)
(-0.0139804 0.000421966 0)
(-0.0154341 0.000435961 0)
(-0.0169119 0.000446201 0)
(-0.0183991 0.000452123 0)
(-0.0198793 0.00045318 0)
(-0.0213348 0.000448856 0)
(-0.0227466 0.000438671 0)
(-0.0240949 0.0004222 0)
(-0.0253588 0.000399077 0)
(-0.0265175 0.000369014 0)
(-0.0275496 0.000331816 0)
(-0.0284341 0.000287393 0)
(-0.0291507 0.000235787 0)
(-0.0296798 0.000177183 0)
(-0.0300035 0.000111936 0)
(-0.0301056 4.0588e-05 0)
(-0.0299723 -3.61171e-05 0)
(-0.0295929 -0.000117216 0)
(-0.0289598 -0.000201522 0)
(-0.0280693 -0.000287626 0)
(-0.0269221 -0.000373908 0)
(-0.0255237 -0.000458563 0)
(-0.0238845 -0.000539642 0)
(-0.0220201 -0.000615102 0)
(-0.0199515 -0.000682878 0)
(-0.0177048 -0.000740961 0)
(-0.0153109 -0.000787492 0)
(-0.0128052 -0.000820856 0)
(-0.0102266 -0.000839777 0)
(-0.00761655 -0.000843406 0)
(-0.00501824 -0.000831391 0)
(-0.00247505 -0.000803925 0)
(-2.92583e-05 -0.00076177 0)
(0.00227929 -0.000706236 0)
(0.00441458 -0.00063914 0)
(0.00634561 -0.000562719 0)
(0.00804742 -0.000479519 0)
(0.00950187 -0.000392264 0)
(0.0106981 -0.000303711 0)
(0.0116325 -0.000216511 0)
(0.0123087 -0.000133077 0)
(0.012737 -5.54781e-05 0)
(0.0129333 1.46382e-05 0)
(0.0129183 7.60859e-05 0)
(0.0127164 0.000128153 0)
(0.012354 0.000170574 0)
(0.0118589 0.000203491 0)
(0.0112586 0.000227378 0)
(0.0105799 0.000242977 0)
(0.0098476 0.000251207 0)
(0.00908392 0.000253108 0)
(0.00830849 0.000249747 0)
(0.00753774 0.000242198 0)
(0.00678518 0.000231453 0)
(0.00606113 0.000218449 0)
(0.00537342 0.000203977 0)
(0.00472698 0.000188776 0)
(0.00412508 0.000173394 0)
(0.00356836 0.000158386 0)
(0.00305689 0.000144059 0)
(0.00258819 0.000130828 0)
(0.00216068 0.000118713 0)
(0.00176994 0.000107997 0)
(0.00141474 9.82251e-05 0)
(0.00109042 8.94892e-05 0)
(0.000799106 8.0445e-05 0)
(0.000538459 7.09585e-05 0)
(0.000317823 5.81871e-05 0)
(0.000140162 4.24448e-05 0)
(2.26062e-05 1.97664e-05 0)
(-3.0091e-05 -2.87273e-06 0)
(-1.97099e-05 -1.93887e-05 0)
(1.15606e-05 -9.97093e-06 0)
(0.000125814 -0.000127075 0)
(0.000373327 -0.000233983 0)
(0.00071517 -0.000321049 0)
(0.00113912 -0.000373327 0)
(0.00160091 -0.000399954 0)
(0.00208251 -0.000401536 0)
(0.00255238 -0.00038591 0)
(0.00299766 -0.00035614 0)
(0.00340032 -0.000317803 0)
(0.00375442 -0.000273887 0)
(0.00405243 -0.000228076 0)
(0.0042941 -0.00018248 0)
(0.00447877 -0.000139158 0)
(0.00460962 -9.91084e-05 0)
(0.00468938 -6.30238e-05 0)
(0.00472223 -3.08607e-05 0)
(0.00471137 -2.24038e-06 0)
(0.0046598 2.37036e-05 0)
(0.00456898 4.80857e-05 0)
(0.00443916 7.22872e-05 0)
(0.00426865 9.77895e-05 0)
(0.0040541 0.000126133 0)
(0.00379023 0.000158798 0)
(0.0034701 0.000197151 0)
(0.00308515 0.000242382 0)
(0.00262555 0.000295482 0)
(0.00208035 0.000357227 0)
(0.00143784 0.0004282 0)
(0.000685777 0.000508804 0)
(-0.000188396 0.00059929 0)
(-0.00119728 0.000699773 0)
(-0.00235328 0.000810226 0)
(-0.0036684 0.000930469 0)
(-0.00515389 0.00106014 0)
(-0.00681997 0.00119865 0)
(-0.00867547 0.00134515 0)
(-0.0107274 0.00149849 0)
(-0.0129804 0.00165719 0)
(-0.0154367 0.00181943 0)
(-0.0180952 0.00198304 0)
(-0.0209514 0.00214552 0)
(-0.0239969 0.00230408 0)
(-0.0272192 0.00245565 0)
(-0.0306017 0.00259694 0)
(-0.0341234 0.00272453 0)
(-0.0377589 0.00283491 0)
(-0.0414788 0.0029246 0)
(-0.0452498 0.00299018 0)
(-0.0490353 0.00302837 0)
(-0.0527955 0.00303617 0)
(-0.0564883 0.00301084 0)
(-0.0600698 0.00295005 0)
(-0.0634948 0.00285185 0)
(-0.0667177 0.00271479 0)
(-0.0696931 0.00253793 0)
(-0.0723763 0.00232087 0)
(-0.0747243 0.00206384 0)
(-0.0766964 0.00176765 0)
(-0.0782545 0.00143381 0)
(-0.0793641 0.00106451 0)
(-0.0799947 0.00066267 0)
(-0.0801207 0.000231972 0)
(-0.0797214 -0.000223125 0)
(-0.0787822 -0.000697369 0)
(-0.0772945 -0.00118471 0)
(-0.0752569 -0.00167835 0)
(-0.0726751 -0.00217075 0)
(-0.0695623 -0.00265376 0)
(-0.0659399 -0.0031187 0)
(-0.0618374 -0.00355656 0)
(-0.0572925 -0.0039582 0)
(-0.052351 -0.00431459 0)
(-0.0470663 -0.0046171 0)
(-0.0414992 -0.00485785 0)
(-0.035717 -0.00503 0)
(-0.0297924 -0.00512814 0)
(-0.0238021 -0.00514857 0)
(-0.0178258 -0.00508956 0)
(-0.0119438 -0.00495162 0)
(-0.00623562 -0.00473754 0)
(-0.000777888 -0.00445248 0)
(0.00435779 -0.00410381 0)
(0.0091067 -0.00370091 0)
(0.0134129 -0.00325484 0)
(0.0172307 -0.00277789 0)
(0.0205262 -0.00228304 0)
(0.0232778 -0.00178345 0)
(0.025477 -0.00129186 0)
(0.027128 -0.000820059 0)
(0.0282473 -0.000378404 0)
(0.0288628 2.45331e-05 0)
(0.029012 0.000382241 0)
(0.0287405 0.000690379 0)
(0.0280997 0.000946781 0)
(0.0271445 0.00115131 0)
(0.0259318 0.00130567 0)
(0.0245175 0.00141302 0)
(0.0229552 0.00147774 0)
(0.0212949 0.00150496 0)
(0.0195813 0.00150028 0)
(0.0178533 0.00146942 0)
(0.0161434 0.00141802 0)
(0.0144784 0.0013513 0)
(0.0128782 0.00127417 0)
(0.0113579 0.00119078 0)
(0.0099262 0.00110496 0)
(0.00858905 0.00101951 0)
(0.0073466 0.000937049 0)
(0.00619903 0.000858704 0)
(0.00514116 0.000785663 0)
(0.00417232 0.000716542 0)
(0.00328629 0.000650686 0)
(0.00248813 0.000582861 0)
(0.0017757 0.00051076 0)
(0.00116672 0.000424318 0)
(0.00066568 0.000323829 0)
(0.000302476 0.000198484 0)
(7.62721e-05 7.3871e-05 0)
(-2.81717e-06 -2.99539e-05 0)
(3.20237e-05 -9.53098e-05 0)
(0.000229901 -0.000373745 0)
(0.000614153 -0.000619164 0)
(0.00111579 -0.00081402 0)
(0.00172179 -0.00093615 0)
(0.0023729 -0.000997185 0)
(0.00304621 -0.0010009 0)
(0.0037 -0.000961411 0)
(0.0043161 -0.000887396 0)
(0.00486991 -0.000790411 0)
(0.00535175 -0.000678466 0)
(0.00575045 -0.000559699 0)
(0.00606382 -0.000439687 0)
(0.00628953 -0.000323115 0)
(0.00643002 -0.000212684 0)
(0.00648734 -0.000109953 0)
(0.00646525 -1.49554e-05 0)
(0.00636627 7.33117e-05 0)
(0.00619248 0.000156932 0)
(0.0059438 0.000238721 0)
(0.00561834 0.000322107 0)
(0.00521152 0.00041083 0)
(0.00471629 0.00050876 0)
(0.00412289 0.000619642 0)
(0.00341916 0.000746932 0)
(0.00259072 0.000893636 0)
(0.0016214 0.00106223 0)
(0.000493624 0.00125462 0)
(-0.000811105 0.00147213 0)
(-0.00231175 0.00171557 0)
(-0.00402725 0.00198522 0)
(-0.00597605 0.00228087 0)
(-0.0081756 0.00260179 0)
(-0.0106418 0.0029467 0)
(-0.0133884 0.00331367 0)
(-0.0164265 0.00370005 0)
(-0.0197636 0.00410238 0)
(-0.0234032 0.00451634 0)
(-0.0273441 0.00493672 0)
(-0.0315797 0.00535743 0)
(-0.0360974 0.00577156 0)
(-0.0408786 0.00617149 0)
(-0.0458982 0.00654902 0)
(-0.0511246 0.00689556 0)
(-0.0565202 0.00720233 0)
(-0.0620415 0.00746058 0)
(-0.0676397 0.00766183 0)
(-0.073262 0.00779808 0)
(-0.0788515 0.00786205 0)
(-0.0843495 0.00784732 0)
(-0.0896953 0.00774852 0)
(-0.0948281 0.00756145 0)
(-0.0996877 0.00728315 0)
(-0.104215 0.00691195 0)
(-0.108355 0.00644752 0)
(-0.112054 0.00589083 0)
(-0.115262 0.00524416 0)
(-0.117936 0.00451111 0)
(-0.120034 0.00369651 0)
(-0.121523 0.00280645 0)
(-0.122372 0.00184828 0)
(-0.122559 0.000830548 0)
(-0.122066 -0.00023695 0)
(-0.120882 -0.00134319 0)
(-0.119001 -0.00247596 0)
(-0.116427 -0.00362182 0)
(-0.113168 -0.00476625 0)
(-0.109239 -0.00589366 0)
(-0.104666 -0.00698761 0)
(-0.0994779 -0.00803094 0)
(-0.0937145 -0.00900609 0)
(-0.0874222 -0.00989545 0)
(-0.0806551 -0.0106817 0)
(-0.073475 -0.0113485 0)
(-0.0659507 -0.0118805 0)
(-0.0581576 -0.0122647 0)
(-0.0501767 -0.0124905 0)
(-0.0420939 -0.0125501 0)
(-0.0339985 -0.0124396 0)
(-0.0259819 -0.0121589 0)
(-0.0181358 -0.0117124 0)
(-0.0105502 -0.0111087 0)
(-0.0033118 -0.0103608 0)
(0.00349827 -0.00948585 0)
(0.00980633 -0.00850462 0)
(0.0155481 -0.00744078 0)
(0.0206702 -0.00632017 0)
(0.025132 -0.00516983 0)
(0.0289062 -0.00401692 0)
(0.0319798 -0.00288778 0)
(0.0343544 -0.0018068 0)
(0.0360458 -0.000795631 0)
(0.0370833 0.000127668 0)
(0.0375083 0.000949112 0)
(0.0373728 0.00165915 0)
(0.0367371 0.00225273 0)
(0.0356675 0.00272915 0)
(0.0342339 0.00309164 0)
(0.0325067 0.00334684 0)
(0.0305551 0.00350405 0)
(0.0284445 0.00357457 0)
(0.0262351 0.00357082 0)
(0.0239799 0.0035058 0)
(0.021725 0.00339228 0)
(0.0195077 0.00324256 0)
(0.0173585 0.00306775 0)
(0.0152987 0.002878 0)
(0.013345 0.00268153 0)
(0.0115052 0.00248541 0)
(0.00978603 0.00229385 0)
(0.00818629 0.00210991 0)
(0.00670939 0.00193201 0)
(0.00535069 0.00175806 0)
(0.00411927 0.00157853 0)
(0.00301318 0.00138673 0)
(0.00205659 0.00116514 0)
(0.00125181 0.000911698 0)
(0.000641263 0.000611655 0)
(0.000217183 0.000305635 0)
(2.33567e-05 2.78031e-05 0)
(4.86366e-05 -0.000228148 0)
(0.000315915 -0.000713388 0)
(0.000809123 -0.0011207 0)
(0.00142965 -0.00143276 0)
(0.00216365 -0.00162845 0)
(0.00293989 -0.0017221 0)
(0.00373399 -0.001722 0)
(0.0044974 -0.0016483 0)
(0.00520942 -0.00151593 0)
(0.00584088 -0.00134272 0)
(0.00637958 -0.00114226 0)
(0.00681126 -0.000927588 0)
(0.00713163 -0.000708165 0)
(0.00733615 -0.000491594 0)
(0.00742544 -0.000282458 0)
(0.00739962 -8.32172e-05 0)
(0.00726051 0.000106122 0)
(0.00700836 0.000287425 0)
(0.00664266 0.000464359 0)
(0.00616026 0.000641906 0)
(0.00555564 0.000826081 0)
(0.00482 0.00102346 0)
(0.00394149 0.0012408 0)
(0.00290501 0.00148465 0)
(0.00169265 0.00176099 0)
(0.000283954 0.00207494 0)
(-0.00134342 0.00243063 0)
(-0.00321313 0.00283106 0)
(-0.0053494 0.00327808 0)
(-0.00777635 0.0037724 0)
(-0.0105171 0.00431361 0)
(-0.0135931 0.00490015 0)
(-0.0170232 0.00552926 0)
(-0.0208228 0.00619691 0)
(-0.0250027 0.00689763 0)
(-0.0295687 0.00762446 0)
(-0.0345201 0.00836882 0)
(-0.0398492 0.00912056 0)
(-0.0455406 0.00986797 0)
(-0.0515706 0.010598 0)
(-0.0579074 0.0112964 0)
(-0.0645105 0.0119484 0)
(-0.071332 0.0125384 0)
(-0.0783165 0.0130512 0)
(-0.0854028 0.0134719 0)
(-0.0925247 0.0137868 0)
(-0.0996128 0.0139833 0)
(-0.106596 0.0140505 0)
(-0.113402 0.0139798 0)
(-0.11996 0.0137643 0)
(-0.126202 0.0133998 0)
(-0.132064 0.012884 0)
(-0.137485 0.0122171 0)
(-0.142409 0.0114011 0)
(-0.146786 0.0104403 0)
(-0.150572 0.0093405 0)
(-0.153728 0.00810932 0)
(-0.15622 0.0067558 0)
(-0.158023 0.00529037 0)
(-0.159112 0.00372478 0)
(-0.159473 0.00207203 0)
(-0.159092 0.000346363 0)
(-0.157964 -0.00143674 0)
(-0.156088 -0.00326053 0)
(-0.153466 -0.00510695 0)
(-0.150107 -0.00695667 0)
(-0.146026 -0.00878905 0)
(-0.141241 -0.0105823 0)
(-0.135778 -0.0123134 0)
(-0.129669 -0.0139586 0)
(-0.122951 -0.0154936 0)
(-0.115669 -0.0168937 0)
(-0.107873 -0.0181349 0)
(-0.0996234 -0.0191938 0)
(-0.0909839 -0.0200487 0)
(-0.0820269 -0.0206805 0)
(-0.0728305 -0.021073 0)
(-0.0634782 -0.0212143 0)
(-0.0540582 -0.0210969 0)
(-0.0446622 -0.020719 0)
(-0.0353837 -0.0200844 0)
(-0.0263164 -0.0192031 0)
(-0.0175525 -0.0180915 0)
(-0.00918104 -0.0167718 0)
(-0.0012854 -0.0152718 0)
(0.00605814 -0.0136239 0)
(0.0127823 -0.0118644 0)
(0.0188306 -0.0100324 0)
(0.0241584 -0.00816807 0)
(0.0287344 -0.00631153 0)
(0.032541 -0.0045015 0)
(0.0355754 -0.00277385 0)
(0.037849 -0.00116036 0)
(0.0393872 0.000312262 0)
(0.0402287 0.00162323 0)
(0.0404239 0.00275819 0)
(0.0400333 0.00370939 0)
(0.039125 0.00447556 0)
(0.0377727 0.00506141 0)
(0.0360525 0.00547693 0)
(0.0340405 0.00573638 0)
(0.0318105 0.0058572 0)
(0.0294312 0.00585891 0)
(0.0269654 0.00576191 0)
(0.0244672 0.00558673 0)
(0.0219835 0.00535276 0)
(0.019551 0.00507819 0)
(0.0171998 0.00477851 0)
(0.0149496 0.00446713 0)
(0.0128176 0.0041531 0)
(0.0108103 0.00384286 0)
(0.0089386 0.00353604 0)
(0.00720204 0.00323007 0)
(0.00561563 0.00291225 0)
(0.00417782 0.0025719 0)
(0.00291939 0.00218525 0)
(0.00183887 0.00174611 0)
(0.000992714 0.00123523 0)
(0.000367822 0.000695624 0)
(5.17483e-05 0.000162983 0)
(5.8065e-05 -0.000401787 0)
(0.00037244 -0.00113824 0)
(0.000943451 -0.00173165 0)
(0.00164706 -0.00217063 0)
(0.00246656 -0.00244156 0)
(0.00331954 -0.00256256 0)
(0.00418048 -0.0025486 0)
(0.00499555 -0.0024261 0)
(0.00574278 -0.00221718 0)
(0.0063898 -0.00194623 0)
(0.00692284 -0.00163302 0)
(0.00732512 -0.00129571 0)
(0.00759048 -0.000947947 0)
(0.00771196 -0.000600333 0)
(0.00768789 -0.000259358 0)
(0.00751564 7.17706e-05 0)
(0.00719408 0.000393325 0)
(0.00672003 0.00070843 0)
(0.00608913 0.00102282 0)
(0.00529384 0.00134421 0)
(0.00432376 0.00168179 0)
(0.00316471 0.00204558 0)
(0.00179907 0.00244576 0)
(0.000205687 0.00289207 0)
(-0.00163948 0.00339327 0)
(-0.00376291 0.00395668 0)
(-0.00619254 0.00458787 0)
(-0.00895697 0.00529047 0)
(-0.0120843 0.00606608 0)
(-0.0156013 0.00691422 0)
(-0.0195318 0.00783232 0)
(-0.0238959 0.00881563 0)
(-0.0287088 0.00985716 0)
(-0.033979 0.0109475 0)
(-0.0397078 0.0120749 0)
(-0.0458879 0.0132249 0)
(-0.0525024 0.0143807 0)
(-0.0595244 0.0155233 0)
(-0.066917 0.0166316 0)
(-0.0746328 0.0176832 0)
(-0.0826155 0.018655 0)
(-0.0908002 0.0195237 0)
(-0.0991153 0.0202668 0)
(-0.107484 0.020863 0)
(-0.115827 0.0212935 0)
(-0.124064 0.021542 0)
(-0.132115 0.0215952 0)
(-0.139904 0.0214434 0)
(-0.147359 0.0210804 0)
(-0.154411 0.0205034 0)
(-0.161002 0.0197128 0)
(-0.167075 0.018712 0)
(-0.172586 0.0175071 0)
(-0.177491 0.0161065 0)
(-0.181757 0.0145204 0)
(-0.185356 0.0127606 0)
(-0.188263 0.0108403 0)
(-0.19046 0.00877398 0)
(-0.191933 0.00657694 0)
(-0.192669 0.00426557 0)
(-0.192663 0.00185724 0)
(-0.191908 -0.000629665 0)
(-0.190404 -0.00317559 0)
(-0.188151 -0.00575971 0)
(-0.185155 -0.00835982 0)
(-0.181423 -0.0109522 0)
(-0.176965 -0.0135116 0)
(-0.171798 -0.0160111 0)
(-0.16594 -0.0184224 0)
(-0.159417 -0.0207159 0)
(-0.152258 -0.0228607 0)
(-0.1445 -0.0248258 0)
(-0.136187 -0.0265797 0)
(-0.127368 -0.0280922 0)
(-0.118101 -0.0293344 0)
(-0.108452 -0.0302799 0)
(-0.0984924 -0.0309064 0)
(-0.0883017 -0.0311959 0)
(-0.077965 -0.0311363 0)
(-0.0675726 -0.0307222 0)
(-0.0572182 -0.0299556 0)
(-0.0469977 -0.0288464 0)
(-0.0370073 -0.0274124 0)
(-0.0273414 -0.0256797 0)
(-0.0180907 -0.0236814 0)
(-0.00934032 -0.0214577 0)
(-0.00116788 -0.0190541 0)
(0.00635805 -0.0165202 0)
(0.0131795 -0.0139084 0)
(0.0192502 -0.011272 0)
(0.0245367 -0.00866353 0)
(0.0290187 -0.00613312 0)
(0.03269 -0.00372698 0)
(0.0355579 -0.00148588 0)
(0.0376439 0.000556072 0)
(0.0389822 0.00237239 0)
(0.0396196 0.00394484 0)
(0.0396134 0.00526374 0)
(0.0390297 0.00632784 0)
(0.0379416 0.00714375 0)
(0.036426 0.00772512 0)
(0.0345614 0.00809137 0)
(0.0324248 0.00826634 0)
(0.0300902 0.00827671 0)
(0.0276247 0.00815069 0)
(0.0250898 0.00791627 0)
(0.0225364 0.0076005 0)
(0.0200096 0.00722754 0)
(0.0175421 0.00681866 0)
(0.0151639 0.0063896 0)
(0.0128916 0.00595175 0)
(0.0107461 0.00550774 0)
(0.00873322 0.00505563 0)
(0.00687567 0.00458122 0)
(0.00517378 0.00406992 0)
(0.00366647 0.00349287 0)
(0.0023503 0.00283714 0)
(0.00129826 0.00207757 0)
(0.000495612 0.00124772 0)
(7.41495e-05 0.000373985 0)
(6.42778e-05 -0.000595962 0)
(0.000410292 -0.00161042 0)
(0.00103182 -0.00240066 0)
(0.00178593 -0.00296516 0)
(0.00265182 -0.00330297 0)
(0.00353785 -0.00343852 0)
(0.00441719 -0.00339548 0)
(0.00523202 -0.0032071 0)
(0.00595973 -0.00290318 0)
(0.0065657 -0.00251452 0)
(0.00703511 -0.00206702 0)
(0.00734913 -0.00158364 0)
(0.00749978 -0.00108197 0)
(0.00747754 -0.000575212 0)
(0.00727799 -7.13978e-05 0)
(0.00689508 0.000425961 0)
(0.00632383 0.000917877 0)
(0.00555661 0.00140923 0)
(0.00458408 0.00190831 0)
(0.00339314 0.00242605 0)
(0.00196744 0.00297525 0)
(0.000286451 0.00356965 0)
(-0.00167389 0.00422303 0)
(-0.00394113 0.00494827 0)
(-0.00654529 0.00575661 0)
(-0.00951811 0.00665696 0)
(-0.0128917 0.00765543 0)
(-0.0166975 0.00875501 0)
(-0.0209643 0.00995542 0)
(-0.0257175 0.011253 0)
(-0.0309767 0.0126405 0)
(-0.0367549 0.0141073 0)
(-0.0430565 0.015639 0)
(-0.0498762 0.0172176 0)
(-0.0571976 0.0188216 0)
(-0.0649928 0.0204259 0)
(-0.0732215 0.0220027 0)
(-0.0818317 0.0235217 0)
(-0.0907605 0.0249514 0)
(-0.0999353 0.0262597 0)
(-0.109276 0.0274154 0)
(-0.118697 0.0283891 0)
(-0.128111 0.0291542 0)
(-0.13743 0.0296881 0)
(-0.146567 0.0299725 0)
(-0.155443 0.0299939 0)
(-0.163982 0.0297437 0)
(-0.172117 0.0292183 0)
(-0.179788 0.0284182 0)
(-0.186945 0.027348 0)
(-0.193544 0.0260158 0)
(-0.19955 0.0244322 0)
(-0.204932 0.0226101 0)
(-0.209668 0.0205639 0)
(-0.213738 0.0183095 0)
(-0.217128 0.0158632 0)
(-0.219826 0.0132423 0)
(-0.221823 0.0104643 0)
(-0.223112 0.00754749 0)
(-0.223686 0.00451045 0)
(-0.22354 0.00137259 0)
(-0.222672 -0.00184585 0)
(-0.221078 -0.00512349 0)
(-0.218757 -0.00843754 0)
(-0.215709 -0.0117636 0)
(-0.211936 -0.0150755 0)
(-0.207442 -0.0183448 0)
(-0.202234 -0.0215411 0)
(-0.196323 -0.0246318 0)
(-0.189723 -0.0275824 0)
(-0.182457 -0.0303566 0)
(-0.174549 -0.0329167 0)
(-0.166033 -0.0352247 0)
(-0.156949 -0.0372428 0)
(-0.147346 -0.0389342 0)
(-0.137282 -0.040265 0)
(-0.12682 -0.0412049 0)
(-0.116037 -0.0417288 0)
(-0.105013 -0.0418182 0)
(-0.0938362 -0.0414623 0)
(-0.0826023 -0.0406592 0)
(-0.0714091 -0.0394166 0)
(-0.0603571 -0.0377523 0)
(-0.0495468 -0.035694 0)
(-0.0390762 -0.0332787 0)
(-0.0290391 -0.0305524 0)
(-0.0195225 -0.0275682 0)
(-0.0106054 -0.024385 0)
(-0.00235671 -0.0210656 0)
(0.00516559 -0.0176748 0)
(0.0119154 -0.0142777 0)
(0.0178593 -0.0109373 0)
(0.0229763 -0.00771307 0)
(0.027259 -0.00465932 0)
(0.0307126 -0.00182347 0)
(0.0333556 0.000755078 0)
(0.0352187 0.00304598 0)
(0.0363449 0.00502862 0)
(0.0367877 0.00669248 0)
(0.0366099 0.00803699 0)
(0.0358819 0.00907103 0)
(0.0346793 0.00981185 0)
(0.0330798 0.0102838 0)
(0.0311619 0.0105167 0)
(0.0290004 0.0105437 0)
(0.0266669 0.0103999 0)
(0.0242243 0.0101203 0)
(0.0217307 0.00973755 0)
(0.0192318 0.00928136 0)
(0.0167708 0.00877516 0)
(0.0143758 0.00823661 0)
(0.0120791 0.00767307 0)
(0.00989461 0.00708475 0)
(0.00785446 0.00645782 0)
(0.00596273 0.00577456 0)
(0.0042677 0.00500203 0)
(0.00276641 0.00411805 0)
(0.00154842 0.00308884 0)
(0.000600383 0.00192784 0)
(9.22621e-05 0.000642994 0)
(6.72997e-05 -0.000807179 0)
(0.000430626 -0.0021194 0)
(0.00107859 -0.00311338 0)
(0.00185449 -0.00380028 0)
(0.00273272 -0.00419463 0)
(0.00361413 -0.00432936 0)
(0.00447002 -0.00423876 0)
(0.00523945 -0.0039637 0)
(0.00589919 -0.00354234 0)
(0.00641303 -0.00301198 0)
(0.00676532 -0.00240461 0)
(0.00693549 -0.0017477 0)
(0.00691374 -0.00106242 0)
(0.00668789 -0.000364079 0)
(0.00625035 0.000338286 0)
(0.00559114 0.00104146 0)
(0.0047007 0.00174782 0)
(0.00356608 0.00246461 0)
(0.00217205 0.00320328 0)
(0.000499067 0.00397848 0)
(-0.00147598 0.00480695 0)
(-0.00378044 0.00570631 0)
(-0.00644502 0.0066938 0)
(-0.00950325 0.00778499 0)
(-0.0129901 0.00899274 0)
(-0.0169409 0.0103263 0)
(-0.0213892 0.0117906 0)
(-0.0263654 0.0133859 0)
(-0.0318948 0.0151075 0)
(-0.0379954 0.0169454 0)
(-0.0446763 0.0188846 0)
(-0.0519361 0.0209049 0)
(-0.059761 0.0229809 0)
(-0.0681241 0.0250825 0)
(-0.0769847 0.0271753 0)
(-0.0862883 0.0292214 0)
(-0.0959679 0.0311805 0)
(-0.105945 0.0330111 0)
(-0.116133 0.0346724 0)
(-0.126439 0.0361255 0)
(-0.136768 0.037335 0)
(-0.147025 0.0382705 0)
(-0.157119 0.038907 0)
(-0.166964 0.0392261 0)
(-0.176485 0.0392159 0)
(-0.185613 0.0388707 0)
(-0.194289 0.0381906 0)
(-0.202465 0.0371809 0)
(-0.210103 0.0358507 0)
(-0.217169 0.0342131 0)
(-0.22364 0.0322831 0)
(-0.229496 0.0300776 0)
(-0.234724 0.0276148 0)
(-0.239312 0.0249131 0)
(-0.243253 0.0219913 0)
(-0.246538 0.0188684 0)
(-0.249162 0.015563 0)
(-0.25112 0.0120938 0)
(-0.252406 0.00847962 0)
(-0.253014 0.00473956 0)
(-0.252938 0.000893303 0)
(-0.252172 -0.00303852 0)
(-0.250709 -0.00703403 0)
(-0.248544 -0.0110697 0)
(-0.245671 -0.0151199 0)
(-0.242084 -0.0191567 0)
(-0.237781 -0.0231496 0)
(-0.232759 -0.0270651 0)
(-0.22702 -0.030867 0)
(-0.220569 -0.034516 0)
(-0.213415 -0.0379704 0)
(-0.205573 -0.0411863 0)
(-0.197066 -0.0441182 0)
(-0.187922 -0.0467202 0)
(-0.178179 -0.0489469 0)
(-0.167885 -0.0507553 0)
(-0.157097 -0.0521056 0)
(-0.145881 -0.0529636 0)
(-0.134316 -0.0533024 0)
(-0.122487 -0.0531036 0)
(-0.11049 -0.0523594 0)
(-0.0984259 -0.0510733 0)
(-0.0864007 -0.0492609 0)
(-0.0745228 -0.0469503 0)
(-0.0628998 -0.0441816 0)
(-0.0516362 -0.0410056 0)
(-0.0408307 -0.037483 0)
(-0.0305739 -0.0336818 0)
(-0.0209462 -0.0296755 0)
(-0.0120169 -0.0255404 0)
(-0.00384275 -0.021354 0)
(0.00353215 -0.017192 0)
(0.0100765 -0.0131266 0)
(0.0157718 -0.00922483 0)
(0.0206117 -0.00554679 0)
(0.0246026 -0.00214432 0)
(0.0277621 0.000940147 0)
(0.0301199 0.00367451 0)
(0.0317165 0.00603766 0)
(0.0326027 0.00801977 0)
(0.0328383 0.00962218 0)
(0.0324911 0.0108567 0)
(0.031634 0.0117449 0)
(0.0303438 0.0123159 0)
(0.0286972 0.0126052 0)
(0.0267708 0.0126522 0)
(0.0246349 0.012498 0)
(0.0223576 0.0121828 0)
(0.0199955 0.011744 0)
(0.0176036 0.0112133 0)
(0.0152211 0.010615 0)
(0.0128925 0.00996269 0)
(0.0106403 0.00925968 0)
(0.00850733 0.00849411 0)
(0.00650345 0.00764568 0)
(0.00468723 0.00667809 0)
(0.00305909 0.00555802 0)
(0.0017241 0.00424109 0)
(0.000672615 0.00271388 0)
(0.000104016 0.000959534 0)
(6.90524e-05 -0.00102393 0)
(0.000439781 -0.00264025 0)
(0.00109412 -0.00383502 0)
(0.00186598 -0.00463342 0)
(0.00272468 -0.00506752 0)
(0.00356563 -0.00518096 0)
(0.00435811 -0.00502021 0)
(0.00503904 -0.00463473 0)
(0.0055846 -0.00407146 0)
(0.00595751 -0.00337411 0)
(0.00614129 -0.00258048 0)
(0.0061138 -0.00172199 0)
(0.00586321 -0.000822737 0)
(0.00537445 0.000100607 0)
(0.00463632 0.00103878 0)
(0.0036343 0.00198967 0)
(0.00235353 0.00295774 0)
(0.000775014 0.00395331 0)
(-0.00112315 0.00499151 0)
(-0.00336751 0.00609105 0)
(-0.0059883 0.00727266 0)
(-0.00901965 0.00855756 0)
(-0.0124982 0.00996568 0)
(-0.0164623 0.0115141 0)
(-0.0209495 0.0132156 0)
(-0.0259956 0.0150775 0)
(-0.0316314 0.0171009 0)
(-0.0378814 0.0192801 0)
(-0.0447607 0.0216023 0)
(-0.0522737 0.0240476 0)
(-0.0604115 0.0265892 0)
(-0.0691509 0.0291934 0)
(-0.0784531 0.0318207 0)
(-0.0882641 0.0344261 0)
(-0.0985152 0.0369612 0)
(-0.109125 0.0393749 0)
(-0.12 0.0416161 0)
(-0.131043 0.0436355 0)
(-0.142152 0.0453877 0)
(-0.153223 0.0468326 0)
(-0.164162 0.0479373 0)
(-0.174876 0.0486768 0)
(-0.185286 0.0490341 0)
(-0.195321 0.0490004 0)
(-0.204924 0.048574 0)
(-0.214045 0.0477599 0)
(-0.222648 0.0465681 0)
(-0.230704 0.045013 0)
(-0.238192 0.0431117 0)
(-0.245096 0.0408836 0)
(-0.251406 0.0383491 0)
(-0.257113 0.0355288 0)
(-0.262213 0.0324436 0)
(-0.266702 0.0291138 0)
(-0.270576 0.0255591 0)
(-0.273832 0.0217988 0)
(-0.276466 0.0178516 0)
(-0.278473 0.0137356 0)
(-0.279849 0.00946921 0)
(-0.280586 0.00507072 0)
(-0.280679 0.000559165 0)
(-0.280119 -0.00404547 0)
(-0.278896 -0.00872175 0)
(-0.277002 -0.0134464 0)
(-0.274426 -0.0181936 0)
(-0.271157 -0.0229349 0)
(-0.267186 -0.0276387 0)
(-0.262502 -0.0322698 0)
(-0.257099 -0.0367893 0)
(-0.25097 -0.0411544 0)
(-0.244114 -0.0453189 0)
(-0.236534 -0.0492332 0)
(-0.228236 -0.052845 0)
(-0.219238 -0.0561004 0)
(-0.209562 -0.058945 0)
(-0.199244 -0.0613254 0)
(-0.188327 -0.0631914 0)
(-0.176868 -0.0644976 0)
(-0.164936 -0.0652059 0)
(-0.152613 -0.0652878 0)
(-0.139991 -0.0647262 0)
(-0.127172 -0.0635171 0)
(-0.114269 -0.0616713 0)
(-0.101398 -0.0592143 0)
(-0.0886778 -0.056187 0)
(-0.0762279 -0.0526439 0)
(-0.0641618 -0.0486521 0)
(-0.052586 -0.0442888 0)
(-0.0415966 -0.0396384 0)
(-0.0312772 -0.0347899 0)
(-0.0216975 -0.0298337 0)
(-0.0129126 -0.0248589 0)
(-0.00496365 -0.019951 0)
(0.00212241 -0.0151897 0)
(0.0083314 -0.0106473 0)
(0.0136614 -0.00638749 0)
(0.0181217 -0.00246397 0)
(0.0217327 0.00108016 0)
(0.0245246 0.00421326 0)
(0.0265381 0.00691561 0)
(0.0278226 0.00917964 0)
(0.0284366 0.0110097 0)
(0.028445 0.0124215 0)
(0.0279195 0.0134408 0)
(0.0269339 0.0141018 0)
(0.0255651 0.0144452 0)
(0.0238868 0.0145154 0)
(0.0219727 0.014358 0)
(0.0198872 0.0140169 0)
(0.017695 0.0135308 0)
(0.0154452 0.0129311 0)
(0.0131929 0.0122375 0)
(0.0109705 0.0114575 0)
(0.00883097 0.0105822 0)
(0.00679192 0.00958931 0)
(0.00492213 0.00843966 0)
(0.00322779 0.00708776 0)
(0.00182688 0.00547709 0)
(0.000715044 0.00356371 0)
(0.000110805 0.00130326 0)
(6.93701e-05 -0.00124481 0)
(0.000438388 -0.00316442 0)
(0.0010812 -0.00455104 0)
(0.00182528 -0.00544553 0)
(0.00263483 -0.00589897 0)
(0.00340176 -0.00596739 0)
(0.00409325 -0.00571071 0)
(0.00464506 -0.00518777 0)
(0.00503268 -0.00445467 0)
(0.00521815 -0.00356147 0)
(0.00518403 -0.00255144 0)
(0.00490661 -0.00145933 0)
(0.00437174 -0.000311456 0)
(0.00356115 0.000874989 0)
(0.0024595 0.00209138 0)
(0.00104722 0.00333758 0)
(-0.000696461 0.00462094 0)
(-0.00279716 0.0059555 0)
(-0.00528383 0.0073605 0)
(-0.00819018 0.00885876 0)
(-0.0115532 0.0104747 0)
(-0.015413 0.0122323 0)
(-0.0198103 0.0141527 0)
(-0.0247856 0.0162525 0)
(-0.0303757 0.0185417 0)
(-0.036612 0.0210225 0)
(-0.0435171 0.0236885 0)
(-0.0511029 0.026524 0)
(-0.0593677 0.0295039 0)
(-0.0682948 0.0325942 0)
(-0.0778504 0.0357525 0)
(-0.087984 0.0389289 0)
(-0.098628 0.0420676 0)
(-0.1097 0.0451087 0)
(-0.121105 0.0479909 0)
(-0.132739 0.0506535 0)
(-0.144493 0.0530396 0)
(-0.156259 0.055098 0)
(-0.167933 0.0567856 0)
(-0.179417 0.0580686 0)
(-0.190625 0.0589228 0)
(-0.201483 0.0593341 0)
(-0.211929 0.0592974 0)
(-0.221914 0.0588158 0)
(-0.2314 0.0578989 0)
(-0.240358 0.0565616 0)
(-0.248769 0.0548226 0)
(-0.256618 0.0527031 0)
(-0.263898 0.0502259 0)
(-0.270603 0.047414 0)
(-0.276731 0.0442905 0)
(-0.28228 0.0408781 0)
(-0.287249 0.0371982 0)
(-0.29164 0.0332717 0)
(-0.295451 0.0291181 0)
(-0.298681 0.024756 0)
(-0.301329 0.0202036 0)
(-0.303394 0.015478 0)
(-0.30487 0.0105966 0)
(-0.305754 0.00557637 0)
(-0.306039 0.000435268 0)
(-0.305718 -0.00480801 0)
(-0.30478 -0.0101332 0)
(-0.303215 -0.0155181 0)
(-0.30101 -0.020938 0)
(-0.29815 -0.0263648 0)
(-0.294621 -0.0317671 0)
(-0.290405 -0.0371093 0)
(-0.285487 -0.0423513 0)
(-0.27985 -0.0474484 0)
(-0.27348 -0.052351 0)
(-0.266366 -0.057005 0)
(-0.2585 -0.0613523 0)
(-0.249882 -0.0653314 0)
(-0.240517 -0.0688789 0)
(-0.230422 -0.0719309 0)
(-0.219624 -0.074425 0)
(-0.208163 -0.0763029 0)
(-0.196095 -0.0775129 0)
(-0.18349 -0.0780128 0)
(-0.170432 -0.0777724 0)
(-0.157022 -0.0767764 0)
(-0.143374 -0.075026 0)
(-0.129611 -0.0725407 0)
(-0.115865 -0.0693583 0)
(-0.102271 -0.0655348 0)
(-0.0889622 -0.0611422 0)
(-0.0760665 -0.0562665 0)
(-0.063702 -0.0510039 0)
(-0.051973 -0.0454577 0)
(-0.0409682 -0.0397336 0)
(-0.0307589 -0.0339367 0)
(-0.0213988 -0.028168 0)
(-0.0129247 -0.0225218 0)
(-0.00535771 -0.0170837 0)
(0.00129474 -0.0119294 0)
(0.00703748 -0.00712389 0)
(0.0118862 -0.00272029 0)
(0.015866 0.00124009 0)
(0.0190112 0.00472837 0)
(0.0213643 0.00772829 0)
(0.0229761 0.0102363 0)
(0.0239044 0.0122611 0)
(0.024214 0.013823 0)
(0.023974 0.014953 0)
(0.0232585 0.0156899 0)
(0.0221405 0.0160792 0)
(0.0206962 0.0161691 0)
(0.0189942 0.016008 0)
(0.0171059 0.0156403 0)
(0.0150882 0.0151033 0)
(0.0130054 0.0144228 0)
(0.0108989 0.0136104 0)
(0.00883155 0.0126607 0)
(0.00682952 0.0115497 0)
(0.00497125 0.0102357 0)
(0.0032704 0.00866097 0)
(0.00185475 0.00675651 0)
(0.00072606 0.0044475 0)
(0.000112047 0.00166159 0)
(6.88816e-05 -0.00146294 0)
(0.000428503 -0.00367485 0)
(0.00104315 -0.00523595 0)
(0.0017366 -0.00620402 0)
(0.00246793 -0.00665063 0)
(0.00312758 -0.00664569 0)
(0.00368084 -0.00626364 0)
(0.00406336 -0.00557327 0)
(0.00424991 -0.00463998 0)
(0.00420226 -0.00351988 0)
(0.00390171 -0.00226115 0)
(0.0033229 -0.000901121 0)
(0.00244891 0.000532594 0)
(0.00125787 0.00202328 0)
(-0.000270248 0.0035639 0)
(-0.00216058 0.00515721 0)
(-0.00444029 0.0068142 0)
(-0.00714187 0.00855311 0)
(-0.0103013 0.0103974 0)
(-0.013959 0.0123736 0)
(-0.0181575 0.0145089 0)
(-0.0229408 0.0168282 0)
(-0.028351 0.0193517 0)
(-0.0344266 0.0220922 0)
(-0.0411986 0.0250532 0)
(-0.0486881 0.0282278 0)
(-0.0569029 0.0315975 0)
(-0.0658354 0.0351319 0)
(-0.0754603 0.0387897 0)
(-0.0857337 0.0425192 0)
(-0.0965928 0.0462599 0)
(-0.107957 0.0499448 0)
(-0.119732 0.0535027 0)
(-0.13181 0.0568619 0)
(-0.144078 0.059953 0)
(-0.156419 0.062712 0)
(-0.168721 0.0650834 0)
(-0.180878 0.067022 0)
(-0.192797 0.0684938 0)
(-0.204394 0.0694769 0)
(-0.215604 0.0699603 0)
(-0.22637 0.0699431 0)
(-0.236652 0.0694329 0)
(-0.24642 0.0684439 0)
(-0.255651 0.0669953 0)
(-0.264332 0.0651097 0)
(-0.272455 0.062812 0)
(-0.280015 0.0601277 0)
(-0.287011 0.0570828 0)
(-0.293445 0.0537025 0)