/*--------------------------------*- C++ -*----------------------------------*\
| =========                 |                                                 |
| \\      /  F ield         | OpenFOAM: The Open Source CFD Toolbox           |
|  \\    /   O peration     | Version:  2406                                  |
|   \\  /    A nd           | Website:  www.openfoam.com                      |
|    \\/     M anipulation  |                                                 |
\*---------------------------------------------------------------------------*/
FoamFile
{
    version     2.0;
    format      ascii;
    arch        "LSB;label=32;scalar=64";
    class       volVectorField;
    location    "16";
    object      U_0;
}
// * * * * * * * * * * * * * * * * * * * * * * * * * * * * * * * * * * * * * //

dimensions      [0 1 -1 0 0 0 0];

internalField   nonuniform List<vector> 
3600
(
(2.16116e-05 -2.15261e-05 0)
(5.58071e-05 -7.69329e-06 0)
(1.13199e-05 1.28381e-05 0)
(-0.000102533 2.81783e-05 0)
(-0.000264096 3.68757e-05 0)
(-0.000451828 4.09191e-05 0)
(-0.000652098 4.25389e-05 0)
(-0.000858589 4.3383e-05 0)
(-0.0010698 4.44071e-05 0)
(-0.00128678 4.60161e-05 0)
(-0.00151144 4.82867e-05 0)
(-0.00174572 5.11354e-05 0)
(-0.00199105 5.44232e-05 0)
(-0.00224831 5.80034e-05 0)
(-0.00251778 6.17281e-05 0)
(-0.00279906 6.54307e-05 0)
(-0.00309104 6.88972e-05 0)
(-0.0033916 7.18352e-05 0)
(-0.00369732 7.38487e-05 0)
(-0.00400311 7.44235e-05 0)
(-0.00430174 7.29282e-05 0)
(-0.00458347 6.86336e-05 0)
(-0.00483581 6.07447e-05 0)
(-0.0050435 4.84527e-05 0)
(-0.00518879 3.11622e-05 0)
(-0.00525146 8.52169e-06 0)
(-0.00521054 -2.0284e-05 0)
(-0.00504593 -5.47704e-05 0)
(-0.00473906 -9.40586e-05 0)
(-0.00427575 -0.000136819 0)
(-0.00364833 -0.000181011 0)
(-0.00285762 -0.000223972 0)
(-0.00191469 -0.000262575 0)
(-0.000841805 -0.000293503 0)
(0.000327658 -0.000313598 0)
(0.00155045 -0.000320287 0)
(0.00277601 -0.000311988 0)
(0.00395025 -0.000288425 0)
(0.00501995 -0.000250788 0)
(0.00593766 -0.000201662 0)
(0.00666596 -0.00014474 0)
(0.00718076 -8.43028e-05 0)
(0.00747319 -2.44342e-05 0)
(0.00755037 3.0339e-05 0)
(0.00742886 7.51528e-05 0)
(0.00713634 0.000111234 0)
(0.00670909 0.000138494 0)
(0.00618294 0.000156417 0)
(0.00559149 0.000165881 0)
(0.0049643 0.000168537 0)
(0.00432518 0.000166222 0)
(0.00369152 0.000160706 0)
(0.00307458 0.000153505 0)
(0.00248074 0.000145674 0)
(0.00191372 0.000137478 0)
(0.00137833 0.00012795 0)
(0.000886045 0.000113918 0)
(0.000459551 9.13472e-05 0)
(0.000153232 5.19797e-05 0)
(9.91347e-06 9.30892e-06 0)
(5.23694e-06 -5.33235e-05 0)
(-6.87961e-05 5.44233e-05 0)
(-0.000326824 0.000215099 0)
(-0.000746943 0.000338165 0)
(-0.00127718 0.000414249 0)
(-0.00187499 0.000454981 0)
(-0.002511 0.000475699 0)
(-0.00316976 0.000488336 0)
(-0.00384544 0.000500107 0)
(-0.00453747 0.000514303 0)
(-0.00524726 0.000531698 0)
(-0.00597626 0.000551736 0)
(-0.00672497 0.000573324 0)
(-0.00749261 0.000595235 0)
(-0.00827705 0.000616208 0)
(-0.00907478 0.000634863 0)
(-0.00988074 0.00064951 0)
(-0.0106879 0.000657934 0)
(-0.0114867 0.000657214 0)
(-0.0122643 0.000643621 0)
(-0.0130036 0.000612641 0)
(-0.0136828 0.000559149 0)
(-0.0142748 0.000477739 0)
(-0.0147474 0.000363216 0)
(-0.0150639 0.000211271 0)
(-0.0151847 1.92727e-05 0)
(-0.0150689 -0.000213327 0)
(-0.0146774 -0.000483768 0)
(-0.0139763 -0.000785534 0)
(-0.0129405 -0.0011081 0)
(-0.0115574 -0.00143697 0)
(-0.00983009 -0.00175417 0)
(-0.00777984 -0.0020393 0)
(-0.00544791 -0.00227111 0)
(-0.00289528 -0.00242953 0)
(-0.000200891 -0.00249789 0)
(0.00254191 -0.0024651 0)
(0.00523084 -0.00232753 0)
(0.00776153 -0.00209005 0)
(0.0100353 -0.00176617 0)
(0.0119669 -0.00137691 0)
(0.0134918 -0.00094862 0)
(0.0145703 -0.00050999 0)
(0.0151901 -8.8906e-05 0)
(0.0153673 0.000289976 0)
(0.0151421 0.000612233 0)
(0.0145692 0.000868557 0)
(0.0137143 0.00105643 0)
(0.0126467 0.00117999 0)
(0.0114318 0.00124813 0)
(0.0101265 0.00127234 0)
(0.00877708 0.00126477 0)
(0.00741803 0.00123637 0)
(0.00607419 0.00119493 0)
(0.00476485 0.00114256 0)
(0.00351051 0.00107256 0)
(0.00234315 0.00096575 0)
(0.00131036 0.000789938 0)
(0.000526671 0.000506911 0)
(5.76479e-05 0.000157569 0)
(-2.40934e-05 1.40678e-05 0)
(-0.000296707 0.000338129 0)
(-0.000835792 0.000711702 0)
(-0.00160424 0.000994555 0)
(-0.0025202 0.00117551 0)
(-0.00353243 0.00127971 0)
(-0.00460353 0.00133869 0)
(-0.0057126 0.00137713 0)
(-0.00684993 0.0014102 0)
(-0.00801189 0.00144497 0)
(-0.0091971 0.00148318 0)
(-0.0104041 0.00152364 0)
(-0.0116305 0.00156401 0)
(-0.0128724 0.00160166 0)
(-0.0141245 0.00163392 0)
(-0.0153805 0.00165796 0)
(-0.0166327 0.00167037 0)
(-0.0178716 0.00166662 0)
(-0.0190849 0.00164071 0)
(-0.0202568 0.00158494 0)
(-0.0213669 0.00148989 0)
(-0.0223886 0.00134493 0)
(-0.0232892 0.0011389 0)
(-0.0240294 0.000861302 0)
(-0.0245644 0.00050356 0)
(-0.0248448 6.05321e-05 0)
(-0.0248199 -0.000467571 0)
(-0.0244406 -0.00107414 0)
(-0.0236622 -0.00174558 0)
(-0.0224497 -0.00246023 0)
(-0.0207813 -0.00318875 0)
(-0.0186524 -0.00389516 0)
(-0.0160789 -0.00453876 0)
(-0.0131 -0.00507693 0)
(-0.0097789 -0.00546871 0)
(-0.00620215 -0.00567875 0)
(-0.00247715 -0.00568145 0)
(0.00127281 -0.00546455 0)
(0.00491547 -0.00503177 0)
(0.00831829 -0.00440382 0)
(0.0113581 -0.00361732 0)
(0.0139307 -0.00272163 0)
(0.0159591 -0.00177374 0)
(0.017399 -0.000831692 0)
(0.0182424 5.24113e-05 0)
(0.0185137 0.000835252 0)
(0.0182646 0.00148831 0)
(0.0175681 0.00199914 0)
(0.016508 0.00236939 0)
(0.01517 0.00261204 0)
(0.0136344 0.00274764 0)
(0.0119709 0.00280002 0)
(0.0102365 0.00279184 0)
(0.00847624 0.00273991 0)
(0.00672761 0.00264964 0)
(0.00502809 0.00250884 0)
(0.00342651 0.00228129 0)
(0.00198309 0.00190604 0)
(0.000850873 0.0013088 0)
(0.000104152 0.000490286 0)
(-5.74534e-05 0.000201656 0)
(-0.000552536 0.000883769 0)
(-0.00139878 0.00154755 0)
(-0.00253611 0.00203657 0)
(-0.00384479 0.00235211 0)
(-0.00526688 0.00254026 0)
(-0.0067601 0.00265245 0)
(-0.00830072 0.0027279 0)
(-0.00987633 0.00279038 0)
(-0.0114803 0.00285084 0)
(-0.0131078 0.00291183 0)
(-0.0147539 0.00297151 0)
(-0.016413 0.00302638 0)
(-0.0180788 0.00307279 0)
(-0.019745 0.00310733 0)
(-0.0214057 0.0031265 0)
(-0.0230551 0.0031259 0)
(-0.0246873 0.00309929 0)
(-0.0262946 0.00303782 0)
(-0.0278661 0.00292947 0)
(-0.0293861 0.0027592 0)
(-0.0308317 0.00250952 0)
(-0.0321719 0.00216184 0)
(-0.0333668 0.00169832 0)
(-0.0343675 0.0011041 0)
(-0.0351174 0.000369603 0)
(-0.0355535 -0.000507102 0)
(-0.0356107 -0.00151763 0)
(-0.0352253 -0.00264206 0)
(-0.0343383 -0.00384863 0)
(-0.0329021 -0.00509315 0)
(-0.0308851 -0.00632024 0)
(-0.0282778 -0.00746595 0)
(-0.0250969 -0.00846165 0)
(-0.0213897 -0.00923902 0)
(-0.0172352 -0.00973606 0)
(-0.0127436 -0.00990358 0)
(-0.00805282 -0.00971139 0)
(-0.00332186 -0.00915347 0)
(0.00127917 -0.00825089 0)
(0.00558098 -0.00705188 0)
(0.00942833 -0.00562832 0)
(0.0126928 -0.00406883 0)
(0.0152831 -0.00246917 0)
(0.0171515 -0.000921837 0)
(0.0182942 0.000493394 0)
(0.0187484 0.00171835 0)
(0.0185836 0.00271944 0)
(0.0178907 0.00348754 0)
(0.0167704 0.00403463 0)
(0.015323 0.00438806 0)
(0.0136408 0.00458333 0)
(0.0118031 0.00465636 0)
(0.00987587 0.00463512 0)
(0.00791557 0.00453047 0)
(0.00597586 0.00432608 0)
(0.00412016 0.00396878 0)
(0.00241942 0.00336532 0)
(0.00105984 0.00239283 0)
(0.000132623 0.000965304 0)
(-9.15766e-05 0.000519247 0)
(-0.000815121 0.00170577 0)
(-0.00197524 0.00273001 0)
(-0.00348523 0.00345737 0)
(-0.00518283 0.00392304 0)
(-0.00700301 0.00420445 0)
(-0.00889934 0.00437675 0)
(-0.0108463 0.00449421 0)
(-0.0128296 0.00458859 0)
(-0.0148398 0.00467401 0)
(-0.0168692 0.00475363 0)
(-0.0189101 0.00482534 0)
(-0.0209556 0.00488567 0)
(-0.0230005 0.00493173 0)
(-0.0250426 0.00496162 0)
(-0.0270833 0.0049736 0)
(-0.0291273 0.00496464 0)
(-0.031182 0.00492861 0)
(-0.0332545 0.00485485 0)
(-0.0353494 0.00472713 0)
(-0.0374646 0.0045236 0)
(-0.0395885 0.00421769 0)
(-0.0416966 0.00377995 0)
(-0.0437491 0.00318072 0)
(-0.0456901 0.00239341 0)
(-0.0474474 0.00139812 0)
(-0.0489341 0.000184892 0)
(-0.050051 -0.00124326 0)
(-0.0506936 -0.00286614 0)
(-0.0507569 -0.00464531 0)
(-0.0501429 -0.00652457 0)
(-0.0487699 -0.00842898 0)
(-0.0465818 -0.0102684 0)
(-0.0435557 -0.011942 0)
(-0.0397092 -0.0133452 0)
(-0.0351048 -0.0143773 0)
(-0.0298517 -0.0149517 0)
(-0.0241038 -0.0150055 0)
(-0.0180539 -0.0145079 0)
(-0.0119225 -0.0134676 0)
(-0.00594343 -0.0119351 0)
(-0.000345729 -0.0100004 0)
(0.00466574 -0.00778511 0)
(0.00892768 -0.00542979 0)
(0.0123313 -0.003078 0)
(0.0148283 -0.00085993 0)
(0.0164296 0.00112109 0)
(0.017196 0.00279677 0)
(0.0172251 0.0041364 0)
(0.0166353 0.00514342 0)
(0.0155518 0.00584761 0)
(0.0140942 0.00629473 0)
(0.0123695 0.00653463 0)
(0.0104691 0.00660866 0)
(0.00847143 0.006536 0)
(0.00644851 0.00629915 0)
(0.00447952 0.00582979 0)
(0.00264841 0.00500043 0)
(0.00116793 0.00362853 0)
(0.000147151 0.00151734 0)
(-0.000126016 0.000968044 0)
(-0.00107773 0.00280648 0)
(-0.00254936 0.00426179 0)
(-0.00442639 0.00525657 0)
(-0.00650238 0.00588262 0)
(-0.00870478 0.00626069 0)
(-0.0109829 0.00649423 0)
(-0.0133098 0.00665337 0)
(-0.0156695 0.00677727 0)
(-0.0180509 0.00688276 0)
(-0.0204445 0.00697399 0)
(-0.0228429 0.00705016 0)
(-0.0252426 0.00711054 0)
(-0.027646 0.00715673 0)
(-0.0300638 0.00719255 0)
(-0.0325156 0.00722228 0)
(-0.0350292 0.00724785 0)
(-0.0376381 0.00726565 0)
(-0.0403769 0.00726389 0)
(-0.043276 0.00722074 0)
(-0.0463552 0.00710398 0)
(-0.049617 0.00687213 0)
(-0.0530415 0.00647703 0)
(-0.0565812 0.00586759 0)
(-0.0601587 0.00499464 0)
(-0.0636659 0.00381632 0)
(-0.0669668 0.0023036 0)
(-0.0699019 0.000445666 0)
(-0.0722972 -0.00174458 0)
(-0.0739767 -0.00422647 0)
(-0.0747723 -0.00693212 0)
(-0.0745359 -0.00976352 0)
(-0.0731539 -0.0125968 0)
(-0.0705566 -0.0152887 0)
(-0.0667261 -0.0176852 0)
(-0.0617038 -0.0196316 0)
(-0.0555936 -0.020986 0)
(-0.0485628 -0.0216326 0)
(-0.040839 -0.0214964 0)
(-0.0327001 -0.0205542 0)
(-0.0244592 -0.0188432 0)
(-0.0164423 -0.016462 0)
(-0.00896197 -0.013564 0)
(-0.00228923 -0.0103422 0)
(0.00337064 -0.00700679 0)
(0.00789429 -0.00376033 0)
(0.0112446 -0.00077435 0)
(0.0134629 0.0018272 0)
(0.0146522 0.00397521 0)
(0.0149549 0.00565325 0)
(0.0145308 0.00688764 0)
(0.0135395 0.00773292 0)
(0.012127 0.00825471 0)
(0.0104202 0.00851139 0)
(0.00852766 0.00853499 0)
(0.00654609 0.00831098 0)
(0.00457473 0.0077585 0)
(0.00271432 0.0067152 0)
(0.00119811 0.0049337 0)
(0.000150458 0.0021024 0)
(-0.000160623 0.00154793 0)
(-0.00133814 0.00418263 0)
(-0.00311458 0.00613628 0)
(-0.00534795 0.00742365 0)
(-0.00778792 0.00821602 0)
(-0.0103545 0.00868962 0)
(-0.0129928 0.00898108 0)
(-0.0156745 0.00917741 0)
(-0.0183829 0.00932505 0)
(-0.0211066 0.00944394 0)
(-0.0238375 0.00954099 0)
(-0.0265738 0.00962021 0)
(-0.0293227 0.00968869 0)
(-0.032105 0.00975864 0)
(-0.0349571 0.00984611 0)
(-0.0379315 0.00996725 0)
(-0.0410946 0.0101332 0)
(-0.0445203 0.0103445 0)
(-0.0482824 0.0105867 0)
(-0.0524445 0.0108273 0)
(-0.0570486 0.0110151 0)
(-0.0621051 0.0110813 0)
(-0.067583 0.0109443 0)
(-0.0734037 0.0105149 0)
(-0.0794377 0.00970414 0)
(-0.0855071 0.00843249 0)
(-0.0913925 0.00663935 0)
(-0.0968453 0.00429222 0)
(-0.101604 0.00139461 0)
(-0.105412 -0.00200814 0)
(-0.108035 -0.00582642 0)
(-0.109265 -0.00993431 0)
(-0.108943 -0.0141612 0)
(-0.106959 -0.018312 0)
(-0.103265 -0.0221719 0)
(-0.0978746 -0.0255202 0)
(-0.0908727 -0.0281444 0)
(-0.0824219 -0.0298574 0)
(-0.072764 -0.0305159 0)
(-0.0622179 -0.0300391 0)
(-0.0511691 -0.0284246 0)
(-0.0400485 -0.0257575 0)
(-0.0293012 -0.0222106 0)
(-0.0193466 -0.0180298 0)
(-0.0105368 -0.0135075 0)
(-0.00312196 -0.00894621 0)
(0.00276964 -0.00461989 0)
(0.00713109 -0.000742735 0)
(0.0100582 0.0025489 0)
(0.011719 0.00519864 0)
(0.0123199 0.00721867 0)
(0.0120765 0.00866934 0)
(0.0111921 0.00963458 0)
(0.0098455 0.0101956 0)
(0.00818935 0.0104043 0)
(0.0063558 0.0102557 0)
(0.00447203 0.00966131 0)
(0.00266106 0.00842673 0)
(0.00117315 0.00624129 0)
(0.000146246 0.00268674 0)
(-0.000195288 0.00225823 0)
(-0.00159501 0.00582857 0)
(-0.00366711 0.00834311 0)
(-0.00624335 0.00994445 0)
(-0.00903082 0.010906 0)
(-0.011943 0.0114712 0)
(-0.0149209 0.0118146 0)
(-0.0179359 0.0120417 0)
(-0.0209716 0.0122068 0)
(-0.0240192 0.012335 0)
(-0.0270776 0.01244 0)
(-0.0301582 0.0125367 0)
(-0.0332906 0.0126481 0)
(-0.0365277 0.0128059 0)
(-0.0399484 0.0130468 0)
(-0.0436554 0.0134054 0)
(-0.0477691 0.0139052 0)
(-0.0524161 0.0145492 0)
(-0.0577146 0.0153135 0)
(-0.0637575 0.0161422 0)
(-0.0705949 0.0169471 0)
(-0.0782184 0.0176106 0)
(-0.0865493 0.0179932 0)
(-0.0954333 0.0179436 0)
(-0.104643 0.0173131 0)
(-0.113889 0.0159707 0)
(-0.122845 0.0138202 0)
(-0.131168 0.0108127 0)
(-0.138522 0.00695544 0)
(-0.144602 0.00231592 0)
(-0.149144 -0.00297938 0)
(-0.151925 -0.0087568 0)
(-0.152764 -0.0148047 0)
(-0.151538 -0.0208705 0)
(-0.148166 -0.0266812 0)
(-0.142624 -0.0319498 0)
(-0.134952 -0.0363903 0)
(-0.125265 -0.0397324 0)
(-0.11377 -0.0417439 0)
(-0.100775 -0.0422549 0)
(-0.0866924 -0.0411839 0)
(-0.0720314 -0.0385612 0)
(-0.0573685 -0.0345425 0)
(-0.0433011 -0.0294059 0)
(-0.0303871 -0.0235278 0)
(-0.0190795 -0.0173367 0)
(-0.0096751 -0.011254 0)
(-0.00229131 -0.00563726 0)
(0.00312305 -0.000739203 0)
(0.00674912 0.00330703 0)
(0.00884679 0.00647772 0)
(0.00970602 0.00883097 0)
(0.00960987 0.0104708 0)
(0.00881195 0.0115091 0)
(0.00752901 0.0120276 0)
(0.00594477 0.0120411 0)
(0.00422605 0.0114624 0)
(0.00252614 0.0100721 0)
(0.00111255 0.0075035 0)
(0.000137465 0.00324775 0)
(-0.000229804 0.00309759 0)
(-0.00184679 0.00773702 0)
(-0.0042037 0.0108698 0)
(-0.00710766 0.0128031 0)
(-0.0102254 0.0139346 0)
(-0.013465 0.0145863 0)
(-0.0167646 0.0149753 0)
(-0.0200962 0.0152274 0)
(-0.0234464 0.0154074 0)
(-0.026814 0.0155496 0)
(-0.0302123 0.0156811 0)
(-0.0336771 0.0158376 0)
(-0.0372749 0.0160691 0)
(-0.0411086 0.0164382 0)
(-0.0453175 0.0170117 0)
(-0.050071 0.0178475 0)
(-0.055555 0.0189797 0)
(-0.0619508 0.0204051 0)
(-0.0694109 0.0220722 0)
(-0.0780327 0.0238768 0)
(-0.0878335 0.0256625 0)
(-0.098732 0.0272289 0)
(-0.11054 0.0283461 0)
(-0.122968 0.0287766 0)
(-0.135647 0.0283004 0)
(-0.148162 0.026742 0)
(-0.160094 0.0239918 0)
(-0.17105 0.0200172 0)
(-0.180686 0.0148625 0)
(-0.188712 0.0086418 0)
(-0.194896 0.00152833 0)
(-0.199059 -0.00625424 0)
(-0.201042 -0.014454 0)
(-0.200719 -0.0227808 0)
(-0.197992 -0.0309244 0)
(-0.192781 -0.0385503 0)
(-0.185048 -0.0453124 0)
(-0.174807 -0.0508621 0)
(-0.162156 -0.0548679 0)
(-0.147304 -0.0570429 0)
(-0.1306 -0.0571796 0)
(-0.112544 -0.0551903 0)
(-0.0937877 -0.0511438 0)
(-0.075092 -0.0452885 0)
(-0.0572603 -0.0380479 0)
(-0.0410387 -0.0299791 0)
(-0.0270129 -0.0216961 0)
(-0.0155299 -0.0137733 0)
(-0.00667173 -0.00666074 0)
(-0.000290218 -0.000636243 0)
(0.00392018 0.00419665 0)
(0.00634058 0.0078737 0)
(0.00736167 0.0105172 0)
(0.00734173 0.0122783 0)
(0.00658874 0.0132827 0)
(0.00536013 0.0135802 0)
(0.00387886 0.0130981 0)
(0.00233973 0.0116043 0)
(0.00103237 0.00868891 0)
(0.000126569 0.00377244 0)
(-0.000263857 0.00406375 0)
(-0.00209159 0.00989907 0)
(-0.00472092 0.0137024 0)
(-0.00793644 0.0159829 0)
(-0.0113671 0.0172843 0)
(-0.0149175 0.0180177 0)
(-0.018524 0.0184478 0)
(-0.0221618 0.0187235 0)
(-0.0258245 0.0189244 0)
(-0.0295251 0.0191008 0)
(-0.0333015 0.0193043 0)
(-0.0372284 0.0196042 0)
(-0.0414265 0.0200917 0)
(-0.0460669 0.0208729 0)
(-0.0513662 0.0220519 0)
(-0.0575706 0.023709 0)
(-0.0649295 0.0258775 0)
(-0.0736617 0.028524 0)
(-0.083917 0.0315357 0)
(-0.09574 0.0347166 0)
(-0.109042 0.0377959 0)
(-0.12359 0.0404481 0)
(-0.139015 0.0423257 0)
(-0.154851 0.0431008 0)
(-0.170586 0.0425071 0)
(-0.185725 0.0403708 0)
(-0.199826 0.0366236 0)
(-0.212534 0.0312978 0)
(-0.22358 0.0245093 0)
(-0.232772 0.0164358 0)
(-0.239975 0.0073001 0)
(-0.245092 -0.00264185 0)
(-0.248039 -0.01311 0)
(-0.248718 -0.0238163 0)
(-0.247028 -0.0344426 0)
(-0.242833 -0.0446491 0)
(-0.235999 -0.0540626 0)
(-0.226394 -0.0622855 0)
(-0.213937 -0.0689001 0)
(-0.198634 -0.0734952 0)
(-0.180636 -0.0757004 0)
(-0.160288 -0.075241 0)
(-0.13817 -0.072 0)
(-0.115096 -0.0660804 0)
(-0.0920706 -0.0578462 0)
(-0.0701817 -0.0479187 0)
(-0.0504421 -0.0371079 0)
(-0.0336198 -0.026282 0)
(-0.0201155 -0.0162102 0)
(-0.00994026 -0.00743823 0)
(-0.00279521 -0.000239921 0)
(0.00179633 0.00535079 0)
(0.00436542 0.00946165 0)
(0.0054155 0.0122921 0)
(0.00538363 0.0140304 0)
(0.00463173 0.0147825 0)
(0.00346176 0.0145109 0)
(0.00212593 0.0129885 0)
(0.000945898 0.00977908 0)
(0.000115648 0.00425565 0)
(-0.000297053 0.00515325 0)
(-0.00232718 0.0123041 0)
(-0.00521509 0.0168256 0)
(-0.00872519 0.0194668 0)
(-0.0124518 0.0209384 0)
(-0.016298 0.021751 0)
(-0.0202007 0.0222217 0)
(-0.0241413 0.0225276 0)
(-0.0281261 0.0227692 0)
(-0.032191 0.0230241 0)
(-0.0364114 0.0233822 0)
(-0.0409171 0.0239632 0)
(-0.045901 0.0249153 0)
(-0.0516186 0.0263984 0)
(-0.0583724 0.0285542 0)
(-0.0664801 0.0314719 0)
(-0.0762303 0.0351545 0)
(-0.0878305 0.0394935 0)
(-0.101355 0.0442577 0)
(-0.116706 0.0490991 0)
(-0.133593 0.0535794 0)
(-0.151553 0.0572191 0)
(-0.170006 0.059561 0)
(-0.188325 0.0602332 0)
(-0.205927 0.0589945 0)
(-0.222323 0.055748 0)
(-0.237153 0.0505299 0)
(-0.250189 0.0434811 0)
(-0.261318 0.0348125 0)
(-0.270507 0.0247721 0)
(-0.277771 0.0136239 0)
(-0.28314 0.00163408 0)
(-0.286636 -0.0109324 0)
(-0.288232 -0.0238136 0)
(-0.287846 -0.0367372 0)
(-0.285319 -0.0494036 0)
(-0.280433 -0.0614708 0)
(-0.272911 -0.0725442 0)
(-0.262461 -0.0821685 0)
(-0.248812 -0.0898381 0)
(-0.231795 -0.0950219 0)
(-0.211421 -0.0972165 0)
(-0.187976 -0.0960241 0)
(-0.162089 -0.0912542 0)
(-0.134763 -0.083026 0)
(-0.107319 -0.0718452 0)
(-0.0812415 -0.0586031 0)
(-0.0579204 -0.044466 0)
(-0.0383749 -0.0306528 0)
(-0.0230595 -0.0181767 0)
(-0.0118586 -0.00766637 0)
(-0.00425329 0.000659675 0)
(0.000453155 0.00689134 0)
(0.00296395 0.0112797 0)
(0.00390002 0.0141003 0)
(0.00377293 0.015546 0)
(0.00299688 0.0156438 0)
(0.00190415 0.0141972 0)
(0.00086453 0.010766 0)
(0.000106566 0.00469898 0)
(-0.000328928 0.00636129 0)
(-0.00255101 0.0149398 0)
(-0.00568212 0.0202229 0)
(-0.00946904 0.0232375 0)
(-0.0134751 0.0248812 0)
(-0.017604 0.0257742 0)
(-0.0217959 0.0262922 0)
(-0.0260429 0.0266464 0)
(-0.0303709 0.0269686 0)
(-0.0348493 0.0273775 0)
(-0.0396056 0.0280197 0)
(-0.0448409 0.0290838 0)
(-0.0508356 0.0307892 0)
(-0.0579373 0.033352 0)
(-0.0665267 0.0369378 0)
(-0.0769633 0.0416097 0)
(-0.0895174 0.047285 0)
(-0.1043 0.0537093 0)
(-0.121207 0.0604568 0)
(-0.139891 0.0669636 0)
(-0.159785 0.0725946 0)
(-0.180175 0.0767363 0)
(-0.200304 0.0788895 0)
(-0.219477 0.0787335 0)
(-0.237146 0.076147 0)
(-0.252943 0.0711883 0)
(-0.266685 0.0640512 0)
(-0.278345 0.0550131 0)
(-0.288019 0.0443855 0)
(-0.295868 0.0324784 0)
(-0.30208 0.0195763 0)
(-0.306829 0.0059259 0)
(-0.310249 -0.00825939 0)
(-0.312406 -0.022781 0)
(-0.313272 -0.0374497 0)
(-0.31271 -0.0520561 0)
(-0.310475 -0.0663496 0)
(-0.306207 -0.0800085 0)
(-0.299448 -0.0926176 0)
(-0.289672 -0.103653 0)
(-0.27635 -0.112486 0)
(-0.259044 -0.11841 0)
(-0.237532 -0.120715 0)
(-0.211953 -0.118799 0)
(-0.182943 -0.112328 0)
(-0.151705 -0.101405 0)
(-0.119964 -0.0867067 0)
(-0.089738 -0.0694982 0)
(-0.0629405 -0.0514504 0)
(-0.0409225 -0.0342623 0)
(-0.0241741 -0.019238 0)
(-0.0123675 -0.00704582 0)
(-0.00468238 0.00223278 0)
(-0.000159913 0.00887441 0)
(0.00208303 0.0132704 0)
(0.00277601 0.0157451 0)
(0.00249594 0.0164339 0)
(0.00168918 0.0152076 0)
(0.000798047 0.01165 0)
(0.000100991 0.00510999 0)
(-0.000358945 0.00768148 0)
(-0.00276016 0.0177916 0)
(-0.00611728 0.0238767 0)
(-0.0101622 0.0272774 0)
(-0.0144313 0.029098 0)
(-0.0188312 0.0300782 0)
(-0.0233088 0.0306592 0)
(-0.0278719 0.0310953 0)
(-0.0325742 0.0315626 0)
(-0.0375304 0.0322391 0)
(-0.0429341 0.0333484 0)
(-0.0490719 0.0351657 0)
(-0.0563184 0.037988 0)
(-0.0651052 0.0420757 0)
(-0.0758591 0.0475805 0)
(-0.0889194 0.0544758 0)
(-0.104446 0.0625087 0)
(-0.122343 0.0711879 0)
(-0.142218 0.0798182 0)
(-0.163404 0.087588 0)
(-0.185044 0.0936951 0)
(-0.206232 0.0974796 0)
(-0.226146 0.0985189 0)
(-0.244157 0.0966601 0)
(-0.25988 0.0919952 0)
(-0.273172 0.0847977 0)
(-0.284102 0.0754459 0)
(-0.292886 0.0643519 0)
(-0.299834 0.0519079 0)
(-0.305285 0.0384543 0)
(-0.309565 0.0242641 0)
(-0.312959 0.00953923 0)
(-0.315685 -0.00558035 0)
(-0.317874 -0.020989 0)
(-0.319568 -0.0365941 0)
(-0.320696 -0.0523088 0)
(-0.321066 -0.0680099 0)
(-0.320343 -0.0835125 0)
(-0.318038 -0.0985239 0)
(-0.313506 -0.112613 0)
(-0.305972 -0.125172 0)
(-0.294594 -0.135414 0)
(-0.278582 -0.142396 0)
(-0.257374 -0.145107 0)
(-0.230856 -0.142636 0)
(-0.199592 -0.134403 0)
(-0.16498 -0.120447 0)
(-0.129233 -0.101657 0)
(-0.095069 -0.0798209 0)
(-0.0650954 -0.0573219 0)
(-0.0410687 -0.0365006 0)
(-0.0234493 -0.0189718 0)
(-0.0115717 -0.00534407 0)
(-0.00423155 0.0045515 0)
(-0.000190423 0.0112314 0)
(0.00159911 0.0152121 0)
(0.00195457 0.0168027 0)
(0.0014889 0.0159956 0)
(0.000753877 0.0124373 0)
(0.000100308 0.00550147 0)
(-0.000386474 0.00910563 0)
(-0.00295127 0.0208428 0)
(-0.00651501 0.0277673 0)
(-0.0107977 0.0315682 0)
(-0.0153129 0.0335744 0)
(-0.0199727 0.0346555 0)
(-0.0247344 0.0353267 0)
(-0.0296273 0.0358965 0)
(-0.0347416 0.0366021 0)
(-0.040249 0.0377012 0)
(-0.0464207 0.0395148 0)
(-0.0536351 0.0424164 0)
(-0.0623543 0.0467727 0)
(-0.0730626 0.052852 0)
(-0.0861717 0.0607236 0)
(-0.101908 0.070177 0)
(-0.12021 0.080685 0)
(-0.140668 0.0914326 0)
(-0.162534 0.101418 0)
(-0.184822 0.109619 0)
(-0.206467 0.115169 0)
(-0.226506 0.117505 0)
(-0.244214 0.116422 0)
(-0.259179 0.112045 0)
(-0.271299 0.104744 0)
(-0.280732 0.095027 0)
(-0.287821 0.0834398 0)
(-0.293007 0.0704878 0)
(-0.296755 0.0565929 0)
(-0.2995 0.0420759 0)
(-0.30162 0.0271591 0)
(-0.303426 0.0119778 0)
(-0.305147 -0.0034025 0)
(-0.306925 -0.0189613 0)
(-0.308843 -0.0347007 0)
(-0.31091 -0.0506396 0)
(-0.313039 -0.0667808 0)
(-0.315027 -0.0830903 0)
(-0.316515 -0.0994525 0)
(-0.316954 -0.115623 0)
(-0.31557 -0.131169 0)
(-0.311367 -0.145406 0)
(-0.303174 -0.157368 0)
(-0.289785 -0.165814 0)
(-0.270185 -0.169334 0)
(-0.243877 -0.166569 0)
(-0.211244 -0.156569 0)
(-0.17385 -0.13924 0)
(-0.134482 -0.11575 0)
(-0.0967481 -0.0886224 0)
(-0.0641262 -0.0612415 0)
(-0.0388041 -0.0367602 0)
(-0.0210598 -0.0170456 0)
(-0.00972337 -0.00246443 0)
(-0.00315345 0.00752904 0)
(0.000143637 0.0137047 0)
(0.00134105 0.0166391 0)
(0.00129933 0.016528 0)
(0.00073522 0.0131361 0)
(0.000105369 0.00588996 0)
(-0.000410786 0.0106234 0)
(-0.00312037 0.0240736 0)
(-0.00686864 0.0318731 0)
(-0.0113665 0.0360903 0)
(-0.0161094 0.0382958 0)
(-0.0210175 0.0394994 0)
(-0.0260618 0.0403005 0)
(-0.0312993 0.0410759 0)
(-0.0368651 0.0421426 0)
(-0.0429965 0.0438597 0)
(-0.0500489 0.0466618 0)
(-0.0584872 0.0510192 0)
(-0.0688337 0.0573379 0)
(-0.0815698 0.065827 0)
(-0.0970047 0.0763746 0)
(-0.115146 0.0884715 0)
(-0.13561 0.101218 0)
(-0.157614 0.113431 0)
(-0.180067 0.123837 0)
(-0.201759 0.131318 0)
(-0.221579 0.135113 0)
(-0.238693 0.134921 0)
(-0.252647 0.13088 0)
(-0.263374 0.123466 0)
(-0.271127 0.113336 0)
(-0.27637 0.101196 0)
(-0.279671 0.0876885 0)
(-0.281602 0.0733357 0)
(-0.282676 0.058517 0)
(-0.28331 0.043478 0)
(-0.283822 0.0283537 0)
(-0.284447 0.0132004 0)
(-0.285342 -0.00197852 0)
(-0.286599 -0.0172194 0)
(-0.288297 -0.0325818 0)
(-0.29048 -0.0481388 0)
(-0.29317 -0.0639707 0)
(-0.296326 -0.0801488 0)
(-0.299821 -0.0967186 0)
(-0.30337 -0.11365 0)
(-0.306466 -0.130777 0)
(-0.3083 -0.147703 0)
(-0.307722 -0.163701 0)
(-0.303256 -0.177626 0)
(-0.29324 -0.187898 0)
(-0.276108 -0.192599 0)
(-0.250839 -0.189768 0)
(-0.217516 -0.177926 0)
(-0.177826 -0.156779 0)
(-0.135235 -0.127881 0)
(-0.0944476 -0.0948162 0)
(-0.0599766 -0.0623401 0)
(-0.034348 -0.0345389 0)
(-0.0173699 -0.0133121 0)
(-0.00719884 0.0014828 0)
(-0.00177594 0.0108572 0)
(0.000580185 0.0157731 0)
(0.00109684 0.0167482 0)
(0.000738052 0.013749 0)
(0.000116095 0.00629336 0)
(-0.000431047 0.0122221 0)
(-0.0032629 0.0274612 0)
(-0.00717027 0.0361695 0)
(-0.0118577 0.0408218 0)
(-0.0168076 0.0432456 0)
(-0.0219499 0.0446018 0)
(-0.0272731 0.0455855 0)
(-0.032867 0.0466582 0)
(-0.0389178 0.0482366 0)
(-0.045734 0.0508004 0)
(-0.0537512 0.0549038 0)
(-0.0635 0.0610935 0)
(-0.0755159 0.0697556 0)
(-0.0902003 0.0809431 0)
(-0.107664 0.0942432 0)
(-0.127605 0.10874 0)
(-0.149265 0.123105 0)
(-0.171504 0.135812 0)
(-0.192997 0.145442 0)
(-0.212485 0.150963 0)
(-0.22901 0.151909 0)
(-0.242054 0.148389 0)
(-0.251565 0.140967 0)
(-0.25788 0.130466 0)
(-0.261584 0.117775 0)
(-0.263369 0.103701 0)
(-0.263909 0.0888797 0)
(-0.263779 0.0737545 0)
(-0.263414 0.0585903 0)
(-0.263106 0.0435138 0)
(-0.263029 0.0285548 0)
(-0.263273 0.0136912 0)
(-0.263878 -0.00111535 0)
(-0.264851 -0.0159211 0)
(-0.266222 -0.0308001 0)
(-0.26803 -0.0458165 0)
(-0.27035 -0.0610595 0)
(-0.273261 -0.0766291 0)
(-0.276841 -0.0926491 0)
(-0.281099 -0.10924 0)
(-0.285906 -0.126481 0)
(-0.290885 -0.14432 0)
(-0.295289 -0.16245 0)
(-0.297897 -0.18015 0)
(-0.296979 -0.196124 0)
(-0.290411 -0.208415 0)
(-0.276006 -0.214493 0)
(-0.252109 -0.211627 0)
(-0.218392 -0.197638 0)
(-0.176659 -0.171975 0)
(-0.131197 -0.136797 0)
(-0.0880582 -0.0972315 0)
(-0.0528751 -0.0598451 0)
(-0.0281905 -0.0295834 0)
(-0.0129161 -0.00790861 0)
(-0.00446136 0.00611573 0)
(-0.000464048 0.0139371 0)
(0.000829172 0.0165549 0)
(0.000747737 0.0142622 0)
(0.000131203 0.00672709 0)
(-0.000446334 0.0138862 0)
(-0.00337373 0.0309787 0)
(-0.00741082 0.0406282 0)
(-0.0122585 0.0457376 0)
(-0.0173908 0.0484042 0)
(-0.022749 0.0499512 0)
(-0.0283421 0.0511824 0)
(-0.0342963 0.0526612 0)
(-0.0408523 0.0549232 0)
(-0.0483873 0.0585808 0)
(-0.0574026 0.0642993 0)
(-0.0684575 0.0726563 0)
(-0.0820375 0.0839311 0)
(-0.0983815 0.0979033 0)
(-0.117322 0.113744 0)
(-0.138198 0.13006 0)
(-0.159898 0.145105 0)
(-0.181031 0.15713 0)
(-0.200209 0.164755 0)
(-0.21633 0.167249 0)
(-0.228777 0.164609 0)
(-0.237472 0.157446 0)
(-0.242804 0.146744 0)
(-0.245468 0.133601 0)
(-0.246276 0.11902 0)
(-0.246005 0.103776 0)
(-0.245292 0.088389 0)
(-0.244586 0.0731387 0)
(-0.244147 0.0581278 0)
(-0.244088 0.0433466 0)
(-0.244409 0.0287299 0)
(-0.245047 0.0141988 0)
(-0.245918 -0.000310006 0)
(-0.246961 -0.0148396 0)
(-0.248145 -0.0294288 0)
(-0.249475 -0.0441027 0)
(-0.251032 -0.0589007 0)
(-0.252944 -0.0738906 0)
(-0.255397 -0.0891845 0)
(-0.258595 -0.104948 0)
(-0.262715 -0.121388 0)
(-0.267814 -0.138706 0)
(-0.273694 -0.157004 0)
(-0.279733 -0.176111 0)
(-0.284706 -0.195354 0)
(-0.286682 -0.213305 0)
(-0.283095 -0.227597 0)
(-0.271106 -0.234972 0)
(-0.24836 -0.231749 0)
(-0.214083 -0.214885 0)
(-0.170268 -0.183609 0)
(-0.122272 -0.141092 0)
(-0.077776 -0.0947268 0)
(-0.0434244 -0.0532848 0)
(-0.021088 -0.0220486 0)
(-0.00834464 -0.0013322 0)
(-0.00200133 0.0107186 0)
(0.000408916 0.0157749 0)
(0.000736883 0.0146301 0)
(0.000148404 0.00719802 0)
(-0.000455663 0.0155971 0)
(-0.00344729 0.0345947 0)
(-0.00758021 0.0452167 0)
(-0.0125541 0.0508084 0)
(-0.0178393 0.0537475 0)
(-0.0233893 0.0555304 0)
(-0.0292351 0.0570837 0)
(-0.0355406 0.0590891 0)
(-0.0425994 0.0622169 0)
(-0.0508473 0.0672134 0)
(-0.0608243 0.0748267 0)
(-0.07307 0.0855959 0)
(-0.087952 0.0995868 0)
(-0.105478 0.116189 0)
(-0.125159 0.134073 0)
(-0.145994 0.151361 0)
(-0.166609 0.165986 0)
(-0.185523 0.176157 0)
(-0.201482 0.180757 0)
(-0.213721 0.179544 0)
(-0.222076 0.173085 0)
(-0.226938 0.162495 0)
(-0.229073 0.149096 0)
(-0.229404 0.134124 0)
(-0.228815 0.11854 0)
(-0.228014 0.102966 0)
(-0.227475 0.087708 0)
(-0.227442 0.07284 0)
(-0.227968 0.0582923 0)
(-0.228977 0.0439348 0)
(-0.230322 0.029637 0)
(-0.231828 0.0153008 0)
(-0.233332 0.000867564 0)
(-0.234713 -0.0136768 0)
(-0.235899 -0.0283071 0)
(-0.236871 -0.0429922 0)
(-0.237681 -0.057701 0)
(-0.238456 -0.0724329 0)
(-0.239399 -0.0872367 0)
(-0.240788 -0.102238 0)
(-0.242955 -0.117652 0)
(-0.246235 -0.133785 0)
(-0.250873 -0.150987 0)
(-0.256859 -0.169536 0)
(-0.263715 -0.189428 0)
(-0.270236 -0.210057 0)
(-0.274311 -0.229845 0)
(-0.272936 -0.245937 0)
(-0.262616 -0.254196 0)
(-0.240301 -0.249799 0)
(-0.204847 -0.228732 0)
(-0.158672 -0.190227 0)
(-0.108604 -0.139239 0)
(-0.0642295 -0.0864259 0)
(-0.0326527 -0.0427651 0)
(-0.0139649 -0.0126139 0)
(-0.00431181 0.00551331 0)
(-0.00028626 0.014134 0)
(0.000664697 0.0147594 0)
(0.000164054 0.00769804 0)
(-0.000458049 0.017333 0)
(-0.00347784 0.0382732 0)
(-0.00766779 0.0498975 0)
(-0.0127283 0.0559997 0)
(-0.0181313 0.0592454 0)
(-0.0238414 0.0613143 0)
(-0.0299116 0.0632696 0)
(-0.0365417 0.0659263 0)
(-0.0440711 0.0700971 0)
(-0.0529755 0.0766506 0)
(-0.0637985 0.0863695 0)
(-0.0770071 0.0996666 0)
(-0.0927941 0.116284 0)
(-0.110898 0.135129 0)
(-0.130518 0.154341 0)
(-0.15039 0.171622 0)
(-0.169015 0.184747 0)
(-0.185002 0.1921 0)
(-0.197397 0.193032 0)
(-0.205877 0.187917 0)
(-0.210753 0.177912 0)
(-0.21281 0.164553 0)
(-0.213056 0.149351 0)
(-0.212478 0.133509 0)
(-0.211874 0.117808 0)
(-0.211766 0.102615 0)
(-0.2124 0.0879812 0)
(-0.213793 0.0737722 0)
(-0.21581 0.0597753 0)
(-0.218234 0.0457829 0)
(-0.220819 0.031639 0)
(-0.223336 0.0172574 0)
(-0.225588 0.00261692 0)
(-0.227432 -0.012249 0)
(-0.228774 -0.0272618 0)
(-0.229576 -0.0423249 0)
(-0.229862 -0.0573387 0)
(-0.229724 -0.0722252 0)
(-0.229332 -0.0869501 0)
(-0.228942 -0.101554 0)
(-0.228911 -0.116184 0)
(-0.229676 -0.13112 0)
(-0.231721 -0.146787 0)
(-0.235468 -0.163709 0)
(-0.241093 -0.182375 0)
(-0.248245 -0.202963 0)
(-0.255715 -0.224914 0)
(-0.261172 -0.246415 0)
(-0.261135 -0.263957 0)
(-0.251444 -0.2723 0)
(-0.228435 -0.265267 0)
(-0.190837 -0.237899 0)
(-0.141958 -0.190034 0)
(-0.0907005 -0.12977 0)
(-0.048638 -0.072148 0)
(-0.0219172 -0.0292132 0)
(-0.00772425 -0.00250664 0)
(-0.00140332 0.0112243 0)
(0.000481811 0.0144974 0)
(0.000173449 0.00819924 0)
(-0.000452575 0.0190691 0)
(-0.00345981 0.0419729 0)
(-0.00766294 0.0546279 0)
(-0.012765 0.0612714 0)
(-0.0182437 0.0648606 0)
(-0.0240735 0.067268 0)
(-0.0303268 0.0697054 0)
(-0.0372337 0.0731318 0)
(-0.0451668 0.0785017 0)