/*--------------------------------*- C++ -*----------------------------------*\
| =========                 |                                                 |
| \\      /  F ield         | OpenFOAM: The Open Source CFD Toolbox           |
|  \\    /   O peration     | Version:  2406                                  |
|   \\  /    A nd           | Website:  www.openfoam.com                      |
|    \\/     M anipulation  |                                                 |
\*---------------------------------------------------------------------------*/
FoamFile
{
    version     2.0;
    format      ascii;
    arch        "LSB;label=32;scalar=64";
    class       surfaceScalarField;
    location    "7.2";
    object      phi;
}
// * * * * * * * * * * * * * * * * * * * * * * * * * * * * * * * * * * * * * //

dimensions      [0 3 -1 0 0 0 0];

oriented        oriented;

internalField   nonuniform List<scalar> 
7080
(
-2.73939e-09
2.69833e-09
-1.57928e-07
1.57308e-07
-4.30271e-07
2.71995e-07
-7.83128e-07
3.55311e-07
-1.17607e-06
3.93033e-07
-1.5876e-06
4.14064e-07
-2.00434e-06
4.17193e-07
-2.41941e-06
4.17453e-07
-2.83082e-06
4.12098e-07
-3.23653e-06
4.07879e-07
-3.63725e-06
4.01581e-07
-4.03166e-06
3.96385e-07
-4.42031e-06
3.89611e-07
-4.80149e-06
3.82979e-07
-5.17497e-06
3.74504e-07
-5.53857e-06
3.65215e-07
-5.89119e-06
3.53657e-07
-6.23019e-06
3.40451e-07
-6.55369e-06
3.24494e-07
-6.85856e-06
3.06142e-07
-7.14221e-06
2.84551e-07
-7.40108e-06
2.59927e-07
-7.63198e-06
2.31656e-07
-7.83107e-06
1.99908e-07
-7.99485e-06
1.64321e-07
-8.11945e-06
1.25145e-07
-8.20149e-06
8.23198e-08
-8.23754e-06
3.62789e-08
-8.22487e-06
-1.26841e-08
-8.16112e-06
-6.38812e-08
-8.04482e-06
-1.16646e-07
-7.87529e-06
-1.70025e-07
-7.65295e-06
-2.23026e-07
-7.37929e-06
-2.7451e-07
-7.05701e-06
-3.23291e-07
-6.68997e-06
-3.68212e-07
-6.28317e-06
-4.08102e-07
-5.84259e-06
-4.42021e-07
-5.37505e-06
-4.6905e-07
-4.88799e-06
-4.88696e-07
-4.38914e-06
-5.00482e-07
-3.88636e-06
-5.04513e-07
-3.3872e-06
-5.00826e-07
-2.89883e-06
-4.90113e-07
-2.4276e-06
-4.72831e-07
-1.9792e-06
-4.50073e-07
-1.55822e-06
-4.22444e-07
-1.16866e-06
-3.91087e-07
-8.13547e-07
-3.56362e-07
-4.95904e-07
-3.18989e-07
-2.18194e-07
-2.78681e-07
1.5976e-08
-2.35294e-07
2.0311e-07
-1.87754e-07
3.37259e-07
-1.3501e-07
4.13155e-07
-7.60681e-08
4.23049e-07
-1.04772e-08
3.65312e-07
5.80932e-08
2.44248e-07
1.20642e-07
9.61652e-08
1.48891e-07
9.61059e-08
-1.62416e-07
1.63026e-07
-6.30884e-07
6.25914e-07
-1.33136e-06
9.68931e-07
-2.19407e-06
1.2172e-06
-3.15524e-06
1.35025e-06
-4.16941e-06
1.42666e-06
-5.20795e-06
1.45178e-06
-6.25179e-06
1.45933e-06
-7.29274e-06
1.4493e-06
-8.32379e-06
1.43675e-06
-9.34355e-06
1.41783e-06
-1.03482e-05
1.39875e-06
-1.1337e-05
1.37517e-06
-1.23061e-05
1.34974e-06
-1.32535e-05
1.3189e-06
-1.41745e-05
1.28385e-06
-1.50654e-05
1.24181e-06
-1.59204e-05
1.19325e-06
-1.67344e-05
1.136e-06
-1.75003e-05
1.07012e-06
-1.82118e-05
9.93911e-07
-1.88609e-05
9.0729e-07
-1.944e-05
8.0907e-07
-1.99408e-05
6.9931e-07
-2.03551e-05
5.77461e-07
-2.06748e-05
4.44015e-07
-2.08925e-05
2.9925e-07
-2.10008e-05
1.44354e-07
-2.09941e-05
-1.9409e-08
-2.08676e-05
-1.89992e-07
-2.06185e-05
-3.65099e-07
-2.02457e-05
-5.41851e-07
-1.97503e-05
-7.17076e-07
-1.91357e-05
-8.87332e-07
-1.8408e-05
-1.04898e-06
-1.75754e-05
-1.19853e-06
-1.66484e-05
-1.33249e-06
-1.56397e-05
-1.44799e-06
-1.45634e-05
-1.54233e-06
-1.3435e-05
-1.61395e-06
-1.22707e-05
-1.66148e-06
-1.10869e-05
-1.685e-06
-9.89964e-06
-1.68471e-06
-8.72417e-06
-1.66232e-06
-7.57446e-06
-1.61925e-06
-6.46317e-06
-1.5583e-06
-5.4012e-06
-1.48135e-06
-4.39835e-06
-1.39121e-06
-3.46297e-06
-1.28903e-06
-2.6034e-06
-1.17629e-06
-1.82762e-06
-1.05219e-06
-1.14554e-06
-9.15686e-07
-5.6768e-07
-7.63871e-07
-1.08106e-07
-5.93608e-07
2.2007e-07
-4.03125e-07
4.02425e-07
-1.92716e-07
4.36078e-07
2.49423e-08
3.31741e-07
2.24221e-07
1.46914e-07
3.33893e-07
2.42276e-07
-3.02729e-07
4.65901e-07
-1.04242e-06
1.36927e-06
-2.09782e-06
2.02411e-06
-3.36275e-06
2.48604e-06
-4.76223e-06
2.75054e-06
-6.23527e-06
2.90359e-06
-7.74648e-06
2.96443e-06
-9.2684e-06
2.98493e-06
-1.0789e-05
2.97173e-06
-1.22971e-05
2.94823e-06
-1.37891e-05
2.91185e-06
-1.52588e-05
2.87163e-06
-1.67039e-05
2.82235e-06
-1.81185e-05
2.76725e-06
-1.94989e-05
2.70142e-06
-2.08381e-05
2.62582e-06
-2.21307e-05
2.53642e-06
-2.33681e-05
2.43317e-06
-2.4543e-05
2.31279e-06
-2.56455e-05
2.17475e-06
-2.66664e-05
2.01648e-06
-2.75947e-05
1.83745e-06
-2.84202e-05
1.63593e-06
-2.91313e-05
1.41184e-06
-2.97175e-05
1.16461e-06
-3.01677e-05
8.95123e-07
-3.04723e-05
6.0432e-07
-3.06221e-05
2.94492e-07
-3.06099e-05
-3.16225e-08
-3.04301e-05
-3.70092e-07
-3.00795e-05
-7.16339e-07
-2.95573e-05
-1.06489e-06
-2.8866e-05
-1.40967e-06
-2.80107e-05
-1.74422e-06
-2.69998e-05
-2.06171e-06
-2.58447e-05
-2.35569e-06
-2.45598e-05
-2.6197e-06
-2.31619e-05
-2.84848e-06
-2.16698e-05
-3.03716e-06
-2.01038e-05
-3.18282e-06
-1.84851e-05
-3.28309e-06
-1.68351e-05
-3.33806e-06
-1.51746e-05
-3.34816e-06
-1.35236e-05
-3.3164e-06
-1.19003e-05
-3.24544e-06
-1.03213e-05
-3.14016e-06
-8.80129e-06
-3.00397e-06
-7.35344e-06
-2.84169e-06
-5.98945e-06
-2.65527e-06
-4.72103e-06
-2.44696e-06
-3.5599e-06
-2.21508e-06
-2.52003e-06
-1.95738e-06
-1.6168e-06
-1.66829e-06
-8.6922e-07
-1.34248e-06
-2.95925e-07
-9.76909e-07
8.46838e-08
-5.74062e-07
2.66578e-07
-1.56685e-07
2.61844e-07
2.28628e-07
1.30568e-07
4.65977e-07
3.72945e-07
-4.23448e-07
8.86758e-07
-1.39519e-06
2.34237e-06
-2.74195e-06
3.36676e-06
-4.32477e-06
4.06916e-06
-6.06185e-06
4.48381e-06
-7.88306e-06
4.72422e-06
-9.75114e-06
4.82898e-06
-1.16334e-05
4.86609e-06
-1.3516e-05
4.85109e-06
-1.5384e-05
4.81483e-06
-1.72325e-05
4.7573e-06
-1.90524e-05
4.69e-06
-2.08403e-05
4.60747e-06
-2.2588e-05
4.51328e-06
-2.42905e-05
4.40146e-06
-2.59389e-05
4.27252e-06
-2.7526e-05
4.12124e-06
-2.90413e-05
3.94687e-06
-3.04755e-05
3.74505e-06
-3.18168e-05
3.51455e-06
-3.30539e-05
3.25194e-06
-3.4174e-05
2.95621e-06
-3.51646e-05
2.62517e-06
-3.60124e-05
2.25868e-06
-3.6705e-05
1.85632e-06
-3.72301e-05
1.41957e-06
-3.75766e-05
9.50313e-07
-3.77346e-05
4.52258e-07
-3.76962e-05
-7.00045e-08
-3.74558e-05
-6.10246e-07
-3.70105e-05
-1.16115e-06
-3.63604e-05
-1.7142e-06
-3.55092e-05
-2.25991e-06
-3.44638e-05
-2.78836e-06
-3.32349e-05
-3.28912e-06
-3.18365e-05
-3.75235e-06
-3.0286e-05
-4.16832e-06
-2.86033e-05
-4.52913e-06
-2.68106e-05
-4.82756e-06
-2.49319e-05
-5.05928e-06
-2.29916e-05
-5.22092e-06
-2.10145e-05
-5.31273e-06
-1.90246e-05
-5.33555e-06
-1.70446e-05
-5.29397e-06
-1.50955e-05
-5.19213e-06
-1.3196e-05
-5.03737e-06
-1.13629e-05
-4.83479e-06
-9.61105e-06
-4.59154e-06
-7.95393e-06
-4.31033e-06
-6.40483e-06
-3.99442e-06
-4.97731e-06
-3.64088e-06
-3.68709e-06
-3.2464e-06
-2.5518e-06
-2.80225e-06
-1.59224e-06
-2.30135e-06
-8.29524e-07
-1.73873e-06
-2.83051e-07
-1.12043e-06
3.84062e-08
-4.77657e-07
1.46288e-07
1.20327e-07
9.32576e-08
5.19233e-07
4.65845e-07
-5.07512e-07
1.39383e-06
-1.65922e-06
3.49863e-06
-3.23792e-06
4.94397e-06
-5.07464e-06
5.90992e-06
-7.07836e-06
6.48722e-06
-9.17071e-06
6.82016e-06
-1.13136e-05
6.97228e-06
-1.34708e-05
7.0266e-06
-1.56283e-05
7.00945e-06
-1.77686e-05
6.95804e-06
-1.98859e-05
6.87585e-06
-2.19695e-05
6.7762e-06
-2.40147e-05
6.65395e-06
-2.60116e-05
6.51263e-06
-2.79542e-05
6.34547e-06
-2.98319e-05
6.15231e-06
-3.16361e-05
5.92688e-06
-3.33549e-05
5.66755e-06
-3.49774e-05
5.36894e-06
-3.64903e-05
5.02904e-06
-3.78808e-05
4.64363e-06
-3.91344e-05
4.21115e-06
-4.02373e-05
3.72908e-06
-4.11749e-05
3.19728e-06
-4.19335e-05
2.61562e-06
-4.24996e-05
1.98632e-06
-4.28613e-05
1.31245e-06
-4.30082e-05
5.99365e-07
-4.2932e-05
-1.46174e-07
-4.26271e-05
-9.15318e-07
-4.20911e-05
-1.69763e-06
-4.13248e-05
-2.48115e-06
-4.0333e-05
-3.25257e-06
-3.91243e-05
-3.9981e-06
-3.77114e-05
-4.70323e-06
-3.61108e-05
-5.35441e-06
-3.43424e-05
-5.93828e-06
-3.24293e-05
-6.44402e-06
-3.03968e-05
-6.86188e-06
-2.8272e-05
-7.18608e-06
-2.60826e-05
-7.41226e-06
-2.38564e-05
-7.541e-06
-2.16202e-05
-7.57379e-06
-1.93991e-05
-7.51721e-06
-1.72159e-05
-7.37723e-06
-1.50912e-05
-7.16414e-06
-1.30426e-05
-6.88512e-06
-1.1086e-05
-6.55008e-06
-9.23509e-06
-6.16273e-06
-7.50348e-06
-5.72766e-06
-5.90492e-06
-5.24061e-06
-4.45511e-06
-4.69754e-06
-3.17209e-06
-4.08605e-06
-2.07665e-06
-3.39777e-06
-1.19084e-06
-2.62487e-06
-5.34308e-07
-1.7776e-06
-1.18246e-07
-8.93614e-07
6.73954e-08
-6.56667e-08
6.85304e-08
5.18441e-07
5.34349e-07
-5.73954e-07
1.96481e-06
-1.86754e-06
4.79467e-06
-3.62818e-06
6.70002e-06
-5.66336e-06
7.94639e-06
-7.87328e-06
8.69332e-06
-1.01733e-05
9.12051e-06
-1.25249e-05
9.32058e-06
-1.489e-05
9.39138e-06
-1.72546e-05
9.37109e-06
-1.95997e-05
9.30245e-06
-2.19193e-05
9.19286e-06
-2.4201e-05
9.05692e-06
-2.64394e-05
8.89011e-06
-2.86235e-05
8.69561e-06
-3.07461e-05
8.46607e-06
-3.27954e-05
8.20047e-06
-3.47619e-05
7.89158e-06
-3.66323e-05
7.5368e-06
-3.83947e-05
7.12977e-06
-4.00343e-05
6.66762e-06
-4.15373e-05
6.14537e-06
-4.2888e-05
5.56092e-06
-4.40714e-05
4.91144e-06
-4.50717e-05
4.1968e-06
-4.58741e-05
3.41727e-06
-4.64641e-05
2.57589e-06
-4.68291e-05
1.67704e-06
-4.69577e-05
7.27884e-07
-4.68416e-05
-2.62429e-07
-4.64745e-05
-1.28218e-06
-4.58543e-05
-2.3175e-06
-4.49823e-05
-3.35263e-06
-4.38642e-05
-4.37005e-06
-4.25098e-05
-5.35162e-06
-4.09336e-05
-6.27835e-06
-3.91544e-05
-7.13248e-06
-3.71947e-05
-7.8966e-06
-3.50807e-05
-8.55662e-06
-3.28411e-05
-9.09995e-06
-3.05063e-05
-9.51927e-06
-2.81077e-05
-9.80917e-06
-2.56762e-05
-9.97079e-06
-2.32417e-05
-1.00065e-05
-2.08319e-05
-9.92541e-06
-1.84716e-05
-9.73575e-06
-1.61827e-05
-9.45147e-06
-1.39839e-05
-9.08231e-06
-1.18909e-05
-8.64171e-06
-9.91744e-06
-8.13468e-06
-8.07621e-06
-7.56779e-06
-6.38003e-06
-6.9355e-06
-4.84327e-06
-6.23352e-06
-3.48281e-06
-5.44548e-06
-2.31806e-06
-4.56208e-06
-1.37042e-06
-3.57177e-06
-6.58722e-07
-2.48923e-06
-1.95171e-07
-1.3567e-06
2.9416e-08
-2.90467e-07
5.7165e-08
4.9093e-07
5.91394e-07
-6.19714e-07
2.58359e-06
-2.01871e-06
6.1988e-06
-3.91815e-06
8.59708e-06
-6.10726e-06
1.01398e-05
-8.4777e-06
1.10627e-05
-1.09392e-05
1.15855e-05
-1.34521e-05
1.18333e-05
-1.5977e-05
1.19193e-05
-1.85001e-05
1.18945e-05
-2.10019e-05
1.18068e-05
-2.34761e-05
1.16677e-05
-2.59096e-05
1.14927e-05
-2.82967e-05
1.1278e-05
-3.06253e-05
1.10262e-05
-3.28878e-05
1.07295e-05
-3.50713e-05
1.03858e-05
-3.71657e-05
9.98692e-06
-3.91566e-05
9.52924e-06
-4.10313e-05
9.00544e-06
-4.2774e-05
8.41163e-06
-4.43698e-05
7.74209e-06
-4.58019e-05
6.99407e-06
-4.70542e-05
6.16442e-06
-4.81095e-05
5.25294e-06
-4.8952e-05
4.2603e-06
-4.95659e-05
3.19032e-06
-4.99374e-05
2.04873e-06
-5.00538e-05
8.44587e-07
-4.99058e-05
-4.10448e-07
-4.94865e-05
-1.70158e-06
-4.8793e-05
-3.01122e-06
-4.78267e-05
-4.31942e-06
-4.65933e-05
-5.60394e-06
-4.51039e-05
-6.84177e-06
-4.33743e-05
-8.00876e-06
-4.14255e-05
-9.0823e-06
-3.92829e-05
-1.00402e-05
-3.69761e-05
-1.08647e-05
-3.45376e-05
-1.15397e-05
-3.20022e-05
-1.20561e-05
-2.94054e-05
-1.24073e-05
-2.67824e-05
-1.25952e-05
-2.41669e-05
-1.26234e-05
-2.15898e-05
-1.2504e-05
-1.90784e-05
-1.22484e-05
-1.66564e-05
-1.1875e-05
-1.4343e-05
-1.13969e-05
-1.21541e-05
-1.0832e-05
-1.01024e-05
-1.01873e-05
-8.19935e-06
-9.47209e-06
-6.45573e-06
-8.67986e-06
-4.88381e-06
-7.80648e-06
-3.49834e-06
-6.83141e-06
-2.3167e-06
-5.74455e-06
-1.35874e-06
-4.52989e-06
-6.42121e-07
-3.20645e-06
-1.78491e-07
-1.82022e-06
4.19555e-08
-5.11342e-07
6.28286e-08
4.70275e-07
6.54092e-07
-6.56153e-07
3.23659e-06
-2.13613e-06
7.68194e-06
-4.14175e-06
1.05978e-05
-6.44903e-06
1.2449e-05
-8.94265e-06
1.35524e-05
-1.1528e-05
1.41718e-05
-1.41647e-05
1.44667e-05
-1.68122e-05
1.4567e-05
-1.94574e-05
1.4537e-05
-2.20802e-05
1.44293e-05
-2.46748e-05
1.426e-05
-2.72275e-05
1.40448e-05
-2.97325e-05
1.3781e-05
-3.21772e-05
1.34702e-05
-3.45536e-05
1.31042e-05
-3.68483e-05
1.26796e-05
-3.90504e-05
1.21876e-05
-4.11451e-05
1.16231e-05
-4.31188e-05
1.09779e-05
-4.49548e-05
1.02469e-05
-4.66374e-05
9.42359e-06
-4.81484e-05
8.50442e-06
-4.94707e-05
7.48578e-06
-5.05855e-05
6.36725e-06
-5.14756e-05
5.14975e-06
-5.21233e-05
3.83775e-06
-5.25132e-05
2.43826e-06
-5.26309e-05
9.62151e-07
-5.24652e-05
-5.76315e-07
-5.20075e-05
-2.15914e-06
-5.12539e-05
-3.7647e-06
-5.02045e-05
-5.36846e-06
-4.88651e-05
-6.94288e-06
-4.72469e-05
-8.45935e-06
-4.53672e-05
-9.88773e-06
-4.32491e-05
-1.11996e-05
-4.09212e-05
-1.23672e-05
-3.84169e-05
-1.3368e-05
-3.57737e-05
-1.41818e-05
-3.30314e-05
-1.47973e-05
-3.0231e-05
-1.52064e-05
-2.74133e-05
-1.54119e-05
-2.46166e-05
-1.54188e-05
-2.18761e-05
-1.52434e-05
-1.92225e-05
-1.49007e-05
-1.66813e-05
-1.44151e-05
-1.42729e-05
-1.38041e-05
-1.20128e-05
-1.30912e-05
-9.91246e-06
-1.22865e-05
-7.98109e-06
-1.14028e-05
-6.22686e-06
-1.04331e-05
-4.65902e-06
-9.37387e-06
-3.28924e-06
-8.20033e-06
-2.13211e-06
-6.9015e-06
-1.2049e-06
-5.45639e-06
-5.23295e-07
-3.88814e-06
-9.66295e-08
-2.24632e-06
8.73762e-08
-6.9564e-07
7.80888e-08
4.79987e-07
7.32078e-07
-6.81537e-07
3.9169e-06
-2.22158e-06
9.22748e-06
-4.30761e-06
1.26809e-05
-6.7059e-06
1.48518e-05
-9.29549e-06
1.61404e-05
-1.19782e-05
1.68581e-05
-1.47127e-05
1.72005e-05
-1.74578e-05
1.7315e-05
-2.02007e-05
1.72799e-05
-2.29214e-05
1.71525e-05
-2.56144e-05
1.69533e-05
-2.8266e-05
1.66986e-05
-3.08707e-05
1.63862e-05
-3.34154e-05
1.60168e-05
-3.58923e-05
1.55817e-05
-3.82875e-05
1.50764e-05
-4.059e-05
1.44908e-05
-4.27842e-05
1.38186e-05
-4.4856e-05
1.30504e-05
-4.6788e-05
1.21799e-05
-4.85634e-05
1.11996e-05
-5.01627e-05
1.01047e-05
-5.15674e-05
8.891e-06
-5.2757e-05
7.55756e-06
-5.37122e-05
6.10531e-06
-5.4413e-05
4.53906e-06
-5.48415e-05
2.86692e-06
-5.49805e-05
1.10142e-06
-5.48161e-05
-7.40626e-07
-5.43374e-05
-2.6379e-06
-5.35378e-05
-4.56445e-06
-5.24158e-05
-6.49066e-06
-5.09761e-05
-8.38294e-06
-4.92298e-05
-1.02061e-05
-4.71951e-05
-1.19229e-05
-4.48975e-05
-1.3498e-05
-4.2369e-05
-1.48964e-05
-3.96481e-05
-1.60897e-05
-3.6778e-05
-1.70528e-05
-3.38054e-05
-1.77709e-05
-3.07783e-05
-1.82344e-05
-2.77443e-05
-1.84468e-05
-2.47485e-05
-1.84155e-05
-2.18315e-05
-1.81615e-05
-1.90282e-05
-1.77049e-05
-1.63669e-05
-1.70776e-05
-1.38688e-05
-1.63029e-05
-1.15491e-05
-1.5412e-05
-9.41745e-06
-1.44187e-05
-7.48016e-06
-1.33411e-05
-5.7417e-06
-1.21719e-05
-4.20753e-06
-1.09089e-05
-2.88525e-06
-9.52277e-06
-1.7861e-06
-8.00146e-06
-9.23829e-07
-6.31858e-06
-3.11494e-07
-4.50118e-06
4.55285e-08
-2.60304e-06
1.63998e-07
-8.14773e-07
1.02895e-07
5.41512e-07
8.34676e-07
-7.02718e-07
4.61634e-06
-2.28971e-06
1.0818e-05
-4.43811e-06
1.48241e-05
-6.90731e-06
1.73233e-05
-9.57211e-06
1.88012e-05
-1.23319e-05
1.96192e-05
-1.51447e-05
2.001e-05
-1.79688e-05
2.01397e-05
-2.07922e-05
2.01006e-05
-2.35948e-05
1.99552e-05
-2.63721e-05
1.97284e-05
-2.91102e-05
1.94364e-05
-3.18042e-05
1.90783e-05
-3.4441e-05
1.86532e-05
-3.7013e-05
1.81521e-05
-3.95061e-05
1.75689e-05
-4.19092e-05
1.68925e-05
-4.42063e-05
1.61151e-05
-4.63829e-05
1.52259e-05
-4.84207e-05
1.42171e-05
-5.03018e-05
1.30798e-05
-5.20055e-05
1.18079e-05
-5.35114e-05
1.03961e-05
-5.47969e-05
8.8426e-06
-5.584e-05
7.14781e-06
-5.66178e-05
5.31656e-06
-5.71088e-05
3.35763e-06
-5.72925e-05
1.28495e-06
-5.7151e-05
-8.82256e-07
-5.66696e-05
-3.11931e-06
-5.58383e-05
-5.39565e-06
-5.46528e-05
-7.67599e-06
-5.31157e-05
-9.9198e-06
-5.12373e-05
-1.20842e-05
-4.90366e-05
-1.41232e-05
-4.65413e-05
-1.59927e-05
-4.37879e-05
-1.76491e-05
-4.08207e-05
-1.90563e-05
-3.76903e-05
-2.01824e-05
-3.44519e-05
-2.10086e-05
-3.11628e-05
-2.15226e-05
-2.78798e-05
-2.17292e-05
-2.4656e-05
-2.16383e-05
-2.15396e-05
-2.12772e-05
-1.85707e-05
-2.06729e-05
-1.5781e-05
-1.98667e-05
-1.31929e-05
-1.889e-05
-1.08208e-05
-1.77836e-05
-8.67154e-06
-1.6567e-05
-6.74766e-06
-1.52647e-05
-5.04859e-06
-1.38701e-05
-3.5748e-06
-1.23826e-05
-2.32858e-06
-1.07681e-05
-1.31682e-06
-9.01334e-06
-5.48713e-07
-7.08588e-06
-3.37562e-08
-5.0165e-06
2.28087e-07
-2.86409e-06
2.59754e-07
-8.47038e-07
1.32487e-07
6.69568e-07
9.66911e-07
-7.17992e-07
5.33297e-06
-2.34127e-06
1.24471e-05
-4.53876e-06
1.70184e-05
-7.06461e-06
1.98538e-05
-9.79052e-06
2.15252e-05
-1.26141e-05
2.24464e-05
-1.54926e-05
2.28877e-05
-1.83846e-05
2.30346e-05
-2.12784e-05
2.2994e-05
-2.41544e-05
2.28336e-05
-2.70087e-05
2.25827e-05
-2.9828e-05
2.22578e-05
-3.26079e-05
2.18585e-05
-3.53357e-05
2.13827e-05
-3.8004e-05
2.08209e-05
-4.05989e-05
2.01652e-05
-4.31095e-05
1.94036e-05
-4.55193e-05
1.85261e-05
-4.78137e-05
1.75208e-05
-4.99733e-05
1.63777e-05
-5.19793e-05
1.50863e-05
-5.38094e-05
1.36388e-05
-5.54411e-05
1.20282e-05
-5.6849e-05
1.02512e-05
-5.80082e-05
8.3073e-06
-5.88918e-05
6.20062e-06
-5.94741e-05
3.94015e-06
-5.97295e-05
1.5407e-06
-5.96354e-05
-9.76333e-07
-5.91716e-05
-3.58298e-06
-5.83235e-05
-6.24379e-06
-5.70825e-05
-8.91716e-06
-5.54479e-05
-1.15545e-05
-5.34286e-05
-1.41037e-05
-5.10439e-05
-1.65083e-05
-4.8324e-05
-1.8713e-05
-4.53103e-05
-2.06632e-05
-4.20545e-05
-2.23127e-05
-3.86165e-05
-2.36209e-05
-3.50625e-05
-2.45632e-05
-3.14615e-05
-2.51241e-05
-2.78822e-05
-2.53093e-05
-2.43887e-05
-2.51323e-05
-2.10383e-05
-2.46284e-05
-1.78781e-05
-2.38335e-05
-1.49441e-05
-2.28016e-05
-1.226e-05
-2.15745e-05
-9.83863e-06
-2.02058e-05
-7.68312e-06
-1.87227e-05
-5.79056e-06
-1.71581e-05
-4.15371e-06
-1.5507e-05
-2.76646e-06
-1.37707e-05
-1.62424e-06
-1.19102e-05
-7.28447e-07
-9.91002e-06
-8.26116e-08
-7.73132e-06
3.08172e-07
-5.40821e-06
4.5058e-07
-3.00583e-06
3.75188e-07
-7.72681e-07
1.67651e-07
8.77956e-07
1.13404e-06
-7.31866e-07
6.06142e-06
-2.3851e-06
1.4104e-05
-4.62272e-06
1.92506e-05
-7.19515e-06
2.24287e-05
-9.97185e-06
2.42978e-05
-1.28493e-05
2.53252e-05
-1.57846e-05
2.58197e-05
-1.87366e-05
2.59872e-05
-2.16941e-05
2.59488e-05
-2.46383e-05
2.5778e-05
-2.7566e-05
2.55083e-05
-3.04648e-05
2.51564e-05
-3.33307e-05
2.47226e-05
-3.61519e-05
2.42034e-05
-3.89214e-05
2.35889e-05
-4.16256e-05
2.28689e-05
-4.42537e-05
2.20305e-05
-4.67895e-05
2.10614e-05
-4.92177e-05
1.99479e-05
-5.15183e-05
1.86778e-05
-5.36715e-05
1.72386e-05
-5.5653e-05
1.56198e-05
-5.74381e-05
1.38126e-05
-5.89984e-05
1.18111e-05
-6.0305e-05
9.61333e-06
-6.13265e-05
7.22183e-06
-6.20317e-05
4.64503e-06
-6.23892e-05
1.89801e-06
-6.23696e-05
-9.96206e-07
-6.19461e-05
-4.00652e-06
-6.10975e-05
-7.09241e-06
-5.98094e-05
-1.02052e-05
-5.80766e-05
-1.32872e-05
-5.59053e-05
-1.62749e-05
-5.33144e-05
-1.90988e-05
-5.03372e-05
-2.169e-05
-4.70205e-05
-2.39794e-05
-4.34251e-05
-2.59078e-05
-3.96223e-05
-2.74231e-05
-3.56922e-05
-2.84929e-05
-3.17184e-05
-2.90972e-05
-2.77847e-05
-2.92426e-05
-2.39693e-05
-2.8947e-05
-2.03415e-05
-2.82558e-05
-1.69573e-05
-2.72169e-05
-1.38583e-05
-2.59003e-05
-1.10694e-05
-2.43626e-05
-8.60161e-06
-2.26734e-05
-6.45254e-06
-2.08709e-05
-4.61187e-06
-1.89988e-05
-3.0633e-06
-1.70546e-05
-1.79183e-06
-1.50424e-05
-7.83968e-07
-1.29171e-05
-3.40006e-08
-1.06605e-05
4.61513e-07
-8.22583e-06
7.0277e-07
-5.65021e-06
7.04074e-07
-3.00599e-06
5.04655e-07
-5.74327e-07
2.06081e-07
1.17782e-06
1.33962e-06
-7.42226e-07
6.80228e-06
-2.42015e-06
1.5788e-05
-4.69157e-06
2.15187e-05
-7.30377e-06
2.50458e-05
-1.01247e-05
2.71168e-05
-1.30501e-05
2.82544e-05
-1.60372e-05
2.88059e-05
-1.9045e-05
2.89981e-05
-2.20634e-05
2.89668e-05
-2.50742e-05
2.87913e-05
-2.80753e-05
2.85094e-05
-3.10549e-05
2.81381e-05
-3.40103e-05
2.76782e-05
-3.69302e-05
2.7125e-05
-3.98084e-05
2.64676e-05
-4.2632e-05
2.56939e-05
-4.53906e-05
2.47896e-05
-4.8068e-05
2.37399e-05
-5.06488e-05
2.25293e-05
-5.31125e-05
2.11425e-05
-5.5438e-05
1.95646e-05
-5.75993e-05
1.77819e-05
-5.95691e-05
1.57828e-05
-6.13155e-05
1.35582e-05
-6.28053e-05
1.11034e-05
-6.40015e-05
8.41857e-06
-6.48666e-05
5.5104e-06
-6.53616e-05
2.3933e-06
-6.54488e-05
-9.08799e-07
-6.5093e-05
-4.36211e-06
-6.42645e-05
-7.92091e-06
-6.29409e-05
-1.15288e-05
-6.1111e-05
-1.51171e-05
-5.87771e-05
-1.86089e-05
-5.59575e-05
-2.19186e-05
-5.2688e-05
-2.49598e-05
-4.90224e-05
-2.76452e-05
-4.50316e-05
-2.98991e-05
-4.08005e-05
-3.16544e-05
-3.64252e-05
-3.28687e-05
-3.2007e-05
-3.35157e-05
-2.76481e-05
-3.36022e-05
-2.34442e-05
-3.31511e-05
-1.94805e-05
-3.22203e-05
-1.58251e-05
-3.08724e-05
-1.25276e-05
-2.91986e-05
-9.6156e-06
-2.72746e-05
-7.09776e-06
-2.51921e-05
-4.96463e-06
-2.30039e-05
-3.1959e-06
-2.07685e-05
-1.7631e-06
-1.84871e-05
-6.39149e-07
-1.61674e-05
2.01217e-07
-1.3757e-05
7.73014e-07
-1.12333e-05
1.08825e-06
-8.54026e-06
1.15333e-06
-5.71653e-06
9.91021e-07
-2.84254e-06
6.49936e-07
-2.34766e-07
2.48789e-07
1.58041e-06
1.58761e-06
-7.5241e-07
7.55107e-06
-2.45175e-06
1.74911e-05
-4.75227e-06
2.38135e-05
-7.39906e-06
2.76951e-05
-1.02591e-05
2.99724e-05
-1.32276e-05
3.12244e-05
-1.62624e-05
3.18371e-05
-1.93229e-05
3.20593e-05
-2.24001e-05
3.20411e-05
-2.54767e-05
3.1868e-05
-2.85518e-05
3.15821e-05
-3.16146e-05
3.12007e-05
-3.46635e-05
3.07252e-05
-3.76882e-05
3.01493e-05
-4.06836e-05
2.94614e-05
-4.36375e-05
2.86473e-05
-4.65402e-05
2.76909e-05
-4.93759e-05
2.65751e-05
-5.21293e-05
2.52816e-05
-5.47793e-05
2.3792e-05
-5.7304e-05
2.20883e-05
-5.96755e-05
2.01529e-05
-6.18638e-05
1.79703e-05
-6.38335e-05
1.55275e-05
-6.55462e-05
1.28156e-05
-6.69589e-05
9.83089e-06
-6.80263e-05
6.57735e-06
-6.87006e-05
3.06724e-06
-6.8934e-05
-6.75619e-07
-6.86809e-05
-4.61541e-06
-6.79008e-05
-8.70114e-06
-6.6562e-05
-1.28677e-05
-6.46457e-05
-1.70334e-05
-6.21497e-05
-2.11049e-05
-5.90914e-05
-2.49767e-05
-5.55101e-05
-2.85409e-05
-5.14665e-05
-3.16886e-05
-4.70417e-05
-3.43237e-05
-4.23337e-05
-3.63621e-05
-3.7454e-05
-3.77482e-05
-3.25218e-05
-3.84473e-05
-2.76594e-05
-3.84645e-05
-2.29836e-05
-3.78263e-05
-1.86009e-05
-3.66029e-05
-1.4598e-05
-3.48745e-05
-1.10387e-05
-3.2758e-05
-7.95787e-06
-3.03547e-05
-5.36401e-06
-2.77861e-05
-3.24031e-06
-2.51267e-05
-1.55365e-06
-2.24555e-05
-2.59207e-07
-1.97806e-05
6.86951e-07
-1.71141e-05
1.32628e-06
-1.43952e-05
1.68665e-06
-1.15945e-05
1.79111e-06
-8.64341e-06
1.65366e-06
-5.58027e-06
1.30635e-06
-2.49363e-06
8.07657e-07
2.62273e-07
2.94325e-07
2.09565e-06
1.8811e-06
-7.597e-07
8.30954e-06
-2.47716e-06
1.92149e-05
-4.80321e-06
2.61363e-05
-7.48093e-06
3.0378e-05
-1.03766e-05
3.28663e-05
-1.33855e-05
3.42373e-05
-1.64658e-05
3.49165e-05
-1.95778e-05
3.51745e-05
-2.27133e-05
3.51764e-05
-2.58564e-05
3.50138e-05
-2.90073e-05
3.47331e-05
-3.21565e-05
3.43521e-05
-3.53037e-05
3.38728e-05
-3.84399e-05
3.32874e-05
-4.15613e-05
3.25833e-05
-4.46568e-05
3.17443e-05
-4.77177e-05
3.07524e-05
-5.07289e-05
2.95875e-05
-5.36755e-05
2.82287e-05
-5.65363e-05
2.6654e-05
-5.92887e-05
2.48412e-05
-6.19032e-05
2.27683e-05
-6.43473e-05
2.04149e-05
-6.65816e-05
1.77625e-05
-6.85626e-05
1.4797e-05
-7.02403e-05
1.15092e-05
-7.15608e-05
7.8982e-06
-7.24659e-05
3.97274e-06
-7.28964e-05
-2.44835e-07
-7.27942e-05
-4.71728e-06
-7.21073e-05
-9.38784e-06
-7.07941e-05
-1.41807e-05
-6.88292e-05
-1.89982e-05
-6.62078e-05
-2.37263e-05
-6.29487e-05
-2.82358e-05
-5.90951e-05
-3.23947e-05
-5.47123e-05
-3.60714e-05
-4.98864e-05
-3.915e-05
-4.47189e-05
-4.15296e-05
-3.93274e-05
-4.31402e-05
-3.384e-05
-4.39348e-05
-2.83952e-05
-4.39099e-05
-2.31334e-05
-4.30881e-05
-1.81916e-05
-4.15454e-05
-1.36893e-05
-3.93766e-05
-9.72058e-06
-3.67275e-05
-6.34212e-06
-3.37328e-05
-3.57265e-06
-3.05565e-05
-1.39226e-06
-2.73067e-05
2.46309e-07
-2.40951e-05
1.40961e-06
-2.09432e-05
2.16607e-06
-1.78717e-05
2.58107e-06
-1.48093e-05
2.70199e-06
-1.17168e-05
2.56769e-06
-8.50785e-06
2.20261e-06
-5.21684e-06
1.64969e-06
-1.939e-06
9.77947e-07
9.3191e-07
3.43022e-07
2.73273e-06
2.223e-06
-7.67078e-07
9.07271e-06
-2.49996e-06
2.09514e-05
-4.84781e-06
2.84782e-05
-7.55254e-06
3.3085e-05
-1.04801e-05
3.57892e-05
-1.35259e-05
3.72843e-05
-1.66487e-05
3.80356e-05
-1.98099e-05
3.83362e-05
-2.30025e-05
3.83659e-05
-2.62117e-05
3.82229e-05
-2.94393e-05
3.79582e-05
-3.26773e-05
3.75897e-05
-3.59268e-05
3.71202e-05
-3.91804e-05
3.65405e-05
-4.24359e-05
3.5837e-05
-4.56836e-05
3.49913e-05
-4.89162e-05
3.39835e-05
-5.21197e-05
3.27904e-05
-5.52803e-05
3.1388e-05
-5.83769e-05
2.975e-05
-6.13867e-05
2.78499e-05
-6.42791e-05
2.56601e-05
-6.70192e-05
2.31542e-05
-6.95641e-05
2.03069e-05
-7.18648e-05
1.7097e-05
-7.38639e-05
1.35079e-05
-7.54984e-05
9.53208e-06
-7.66989e-05
5.17283e-06
-7.73942e-05
4.50074e-07
-7.75147e-05
-4.59706e-06
-7.69993e-05
-9.90355e-06
-7.58018e-05
-1.53783e-05
-7.38982e-05
-2.0902e-05
-7.12897e-05
-2.63349e-05
-6.80022e-05
-3.15233e-05
-6.40821e-05
-3.63149e-05
-5.95886e-05
-4.05647e-05
-5.45902e-05
-4.41485e-05
-4.91625e-05
-4.6957e-05
-4.33957e-05
-4.89072e-05
-3.73991e-05
-4.99311e-05
-3.13107e-05
-4.99985e-05
-2.5294e-05
-4.91043e-05
-1.95326e-05
-4.73071e-05
-1.42088e-05
-4.46997e-05
-9.48525e-06
-4.14515e-05
-5.47821e-06
-3.7739e-05
-2.24675e-06
-3.37885e-05
2.14081e-07
-2.97664e-05
1.96114e-06
-2.58428e-05
3.08876e-06
-2.20696e-05
3.70279e-06
-1.84867e-05
3.90733e-06
-1.50124e-05
3.78302e-06
-1.15938e-05
3.39511e-06
-8.11824e-06
2.78543e-06
-4.60888e-06
2.01186e-06
-1.16331e-06
1.15583e-06
1.78561e-06
3.9311e-07
3.49804e-06
2.61488e-06
-7.71079e-07
9.84283e-06
-2.51599e-06
2.2703e-05
-4.88226e-06
3.08415e-05
-7.6107e-06
3.5819e-05
-1.05672e-05
3.87441e-05
-1.36473e-05
4.03688e-05
-1.68107e-05
4.11984e-05
-2.00196e-05
4.15486e-05
-2.32683e-05
4.16147e-05
-2.65436e-05
4.15012e-05
-2.98488e-05
4.12637e-05
-3.31774e-05
4.09208e-05
-3.65325e-05
4.04759e-05
-3.99084e-05
3.99185e-05
-4.3305e-05
3.92342e-05
-4.67142e-05
3.84023e-05
-5.0131e-05
3.7401e-05
-5.35428e-05
3.62036e-05
-5.69373e-05
3.47832e-05
-6.02946e-05
3.31085e-05
-6.35921e-05
3.11481e-05
-6.67989e-05
2.88679e-05
-6.98786e-05
2.62345e-05
-7.27848e-05
2.3214e-05
-7.54638e-05
1.97765e-05
-7.7851e-05
1.58958e-05
-7.98745e-05
1.15561e-05
-8.14552e-05
6.75409e-06
-8.25132e-05
1.50858e-06
-8.29748e-05
-4.13504e-06
-8.27829e-05
-1.00952e-05
-8.19062e-05
-1.62548e-05
-8.03448e-05
-2.24631e-05
-7.81264e-05
-2.85533e-05
-7.52927e-05
-3.43568e-05
-7.18816e-05
-3.97261e-05
-6.791e-05
-4.45363e-05
-6.33712e-05
-4.86879e-05
-5.82435e-05
-5.20849e-05
-5.25184e-05
-5.46331e-05
-4.62273e-05
-5.62225e-05
-3.94721e-05
-5.67546e-05
-3.24332e-05
-5.61434e-05
-2.53671e-05
-5.43742e-05
-1.85737e-05
-5.1493e-05
-1.2358e-05
-4.76683e-05
-6.97613e-06
-4.31203e-05
-2.59882e-06
-3.8167e-05
7.14155e-07
-3.30786e-05
3.00682e-06
-2.81368e-05
4.40361e-06
-2.34653e-05
5.06801e-06
-1.91526e-05
5.17059e-06
-1.51135e-05
4.85341e-06
-1.12784e-05
4.23116e-06
-7.49419e-06
3.37949e-06
-3.75934e-06
2.38154e-06
-1.63033e-07
1.33659e-06
2.8278e-06
4.43538e-07
4.39402e-06
3.05695e-06
-7.74979e-07
1.06135e-05
-2.52838e-06
2.44597e-05
-4.90837e-06
3.3215e-05
-7.65568e-06
3.85683e-05
-1.06364e-05
4.17197e-05
-1.37463e-05
4.34796e-05
-1.69462e-05
4.43941e-05
-2.01992e-05
4.48018e-05
-2.35013e-05
4.49133e-05
-2.68405e-05
4.484e-05
-3.02219e-05
4.46422e-05
-3.36411e-05
4.43393e-05
-3.71032e-05
4.39355e-05
-4.06045e-05
4.3419e-05
-4.41472e-05
4.27749e-05
-4.77259e-05
4.19801e-05
-5.13375e-05
4.10109e-05
-5.49723e-05
3.98375e-05
-5.86198e-05
3.84293e-05
-6.22623e-05
3.67502e-05
-6.58785e-05
3.47631e-05
-6.94379e-05
3.24266e-05
-7.29036e-05
2.96992e-05
-7.62273e-05
2.6537e-05
-7.93511e-05
2.28994e-05
-8.22054e-05
1.87494e-05
-8.47123e-05
1.40623e-05
-8.679e-05
8.83113e-06
-8.83632e-05
3.08122e-06
-8.93778e-05
-3.12092e-06
-8.9817e-05
-9.65644e-06
-8.97102e-05
-1.6362e-05
-8.91274e-05
-2.30463e-05
-8.81516e-05
-2.95295e-05
-8.6836e-05
-3.56727e-05
-8.51622e-05
-4.14004e-05
-8.30161e-05
-4.66828e-05
-8.01985e-05
-5.15061e-05
-7.64659e-05
-5.58176e-05
-7.15979e-05
-5.95019e-05
-6.54615e-05
-6.23589e-05
-5.80714e-05
-6.41455e-05
-4.96137e-05
-6.4601e-05
-4.0449e-05
-6.354e-05
-3.10672e-05
-6.08745e-05
-2.20263e-05
-5.67103e-05
-1.38554e-05
-5.12906e-05
-6.97178e-06
-4.50518e-05
-1.61077e-06
-3.84384e-05
2.19161e-06
-3.19404e-05
4.57177e-06
-2.58439e-05
5.77381e-06
-2.03561e-05
6.08019e-06
-1.54181e-05
5.7467e-06
-1.09467e-05
4.98356e-06
-6.72888e-06
3.93537e-06
-2.71349e-06
2.73377e-06
1.04125e-06
1.5094e-06
4.0491e-06
4.91305e-07
5.41542e-06
3.54662e-06
-7.74361e-07
1.13873e-05
-2.53169e-06
2.62242e-05
-4.92086e-06
3.56017e-05
-7.68262e-06
4.13361e-05
-1.06834e-05
4.47194e-05
-1.38194e-05
4.66205e-05
-1.70522e-05
4.76268e-05
-2.03462e-05
4.80998e-05
-2.36985e-05
4.82661e-05
-2.70991e-05
4.82439e-05
-3.05548e-05
4.80987e-05
-3.40632e-05
4.78506e-05
-3.76318e-05
4.75051e-05
-4.12596e-05
4.70491e-05
-4.49512e-05
4.64675e-05
-4.87043e-05
4.57351e-05
-5.25189e-05
4.48266e-05
-5.63884e-05
4.37087e-05
-6.03056e-05
4.23475e-05
-6.42557e-05
4.07016e-05
-6.82201e-05
3.87284e-05
-7.21704e-05
3.63781e-05
-7.60706e-05
3.36002e-05
-7.98723e-05
3.03397e-05
-8.35167e-05
2.65446e-05
-8.69337e-05
2.21673e-05
-9.00495e-05
1.71789e-05
-9.27982e-05
1.15806e-05
-9.51443e-05
5.42794e-06
-9.71083e-05
-1.1563e-06
-9.87877e-05
-7.97656e-06
-0.000100352
-1.47977e-05
-0.000101998
-2.13998e-05
-0.000103873
-2.76544e-05
-0.000105981
-3.35642e-05
-0.000108122
-3.926e-05
-0.00010988
-4.49244e-05
-0.000110689
-5.06974e-05
-0.000109932
-5.65747e-05
-0.000107064
-6.23697e-05
-0.000101718
-6.77049e-05
-9.37797e-05
-7.20841e-05
-8.3427e-05
-7.49532e-05
-7.11362e-05
-7.58318e-05
-5.76371e-05
-7.43732e-05
-4.38407e-05
-7.05083e-05
-3.07042e-05
-6.44266e-05
-1.90879e-05
-5.66699e-05
-9.60218e-06
-4.79232e-05
-2.52055e-06
-3.9024e-05
2.22356e-06
-3.05865e-05
4.95338e-06
-2.3088e-05
6.11855e-06
-1.65813e-05
6.17062e-06
-1.10011e-05
5.49617e-06
-6.05204e-06
4.3748e-06
-1.5948e-06
3.03284e-06
2.38618e-06
1.66084e-06
5.4177e-06
5.33529e-07
6.54638e-06
4.07836e-06
-7.73377e-07
1.21559e-05
-2.52961e-06
2.79831e-05
-4.9213e-06
3.79863e-05
-7.69061e-06
4.41067e-05
-1.07045e-05
4.77275e-05
-1.38599e-05
4.97762e-05
-1.71191e-05
5.08812e-05
-2.04477e-05
5.14279e-05
-2.38445e-05
5.16589e-05
-2.73009e-05
5.16995e-05
-3.0826e-05
5.16204e-05
-3.44196e-05
5.14431e-05
-3.80916e-05
5.11743e-05
-4.1844e-05
5.08003e-05
-4.56846e-05
5.03058e-05
-4.96144e-05
4.96637e-05
-5.36374e-05
4.88476e-05
-5.77509e-05
4.7821e-05
-6.1952e-05
4.65469e-05
-6.62301e-05
4.49787e-05
-7.05709e-05
4.30678e-05
-7.495e-05
4.07562e-05
-7.93348e-05
3.79838e-05
-8.36803e-05
3.46842e-05
-8.79325e-05
3.07958e-05
-9.20322e-05