/*--------------------------------*- C++ -*----------------------------------*\
| =========                 |                                                 |
| \\      /  F ield         | OpenFOAM: The Open Source CFD Toolbox           |
|  \\    /   O peration     | Version:  2406                                  |
|   \\  /    A nd           | Website:  www.openfoam.com                      |
|    \\/     M anipulation  |                                                 |
\*---------------------------------------------------------------------------*/
FoamFile
{
    version     2.0;
    format      ascii;
    arch        "LSB;label=32;scalar=64";
    class       surfaceScalarField;
    location    "17.2";
    object      phi;
}
// * * * * * * * * * * * * * * * * * * * * * * * * * * * * * * * * * * * * * //

dimensions      [0 3 -1 0 0 0 0];

oriented        oriented;

internalField   nonuniform List<scalar> 
7080
(
1.02356e-07
-1.0275e-07
1.13916e-07
-8.48737e-09
1.82941e-09
1.12428e-07
-2.12062e-07
2.18766e-07
-4.82774e-07
2.72748e-07
-7.79732e-07
3.02478e-07
-1.08686e-06
3.10384e-07
-1.39664e-06
3.15225e-07
-1.71027e-06
3.17565e-07
-2.0295e-06
3.24516e-07
-2.35932e-06
3.34245e-07
-2.70306e-06
3.49036e-07
-3.0653e-06
3.67114e-07
-3.44903e-06
3.89195e-07
-3.85745e-06
4.13727e-07
-4.29185e-06
4.40113e-07
-4.75208e-06
4.65887e-07
-5.23462e-06
4.88406e-07
-5.73219e-06
5.03301e-07
-6.23214e-06
5.05572e-07
-6.71592e-06
4.88937e-07
-7.15817e-06
4.46772e-07
-7.5268e-06
3.72116e-07
-7.78334e-06
2.5866e-07
-7.88431e-06
1.0125e-07
-7.78325e-06
-1.03e-07
-7.43392e-06
-3.53912e-07
-6.79429e-06
-6.4719e-07
-5.83128e-06
-9.73784e-07
-4.52591e-06
-1.31945e-06
-2.87826e-06
-1.66498e-06
-9.11502e-07
-1.98707e-06
1.32567e-06
-2.26e-06
3.75898e-06
-2.458e-06
6.2914e-06
-2.55816e-06
8.80908e-06
-2.54351e-06
1.11901e-05
-2.40586e-06
1.3315e-05
-2.14782e-06
1.50786e-05
-1.78347e-06
1.64e-05
-1.33751e-06
1.72308e-05
-8.42526e-07
1.7559e-05
-3.35195e-07
1.74082e-05
1.48795e-07
1.68317e-05
5.78657e-07
1.59055e-05
9.32735e-07
1.47159e-05
1.19904e-06
1.33518e-05
1.37663e-06
1.18935e-05
1.47182e-06
1.04106e-05
1.49837e-06
8.95406e-06
1.47113e-06
7.56174e-06
1.40844e-06
6.25151e-06
1.32373e-06
5.03409e-06
1.2332e-06
3.90363e-06
1.14141e-06
2.86166e-06
1.05736e-06
1.90488e-06
9.63776e-07
1.06693e-06
8.52982e-07
4.04472e-07
6.63568e-07
2.3387e-08
3.95386e-07
2.32796e-08
6.65734e-09
-1.12284e-07
-2.39391e-07
2.38807e-07
-7.55158e-07
6.21373e-07
-1.48427e-06
9.45043e-07
-2.35329e-06
1.13282e-06
-3.30068e-06
1.24409e-06
-4.29239e-06
1.29263e-06
-5.30716e-06
1.32277e-06
-6.34141e-06
1.34242e-06
-7.39373e-06
1.36877e-06
-8.4697e-06
1.40078e-06
-9.57287e-06
1.44342e-06
-1.07093e-05
1.49384e-06
-1.18827e-05
1.55302e-06
-1.30968e-05
1.61752e-06
-1.43516e-05
1.68465e-06
-1.5644e-05
1.74745e-06
-1.69635e-05
1.79718e-06
-1.82916e-05
1.82067e-06
-1.95987e-05
1.80221e-06
-2.08423e-05
1.72288e-06
-2.19666e-05
1.5627e-06
-2.29025e-05
1.30154e-06
-2.35695e-05
9.21731e-07
-2.38788e-05
4.09983e-07
-2.37384e-05
-2.3982e-07
-2.30593e-05
-1.02447e-06
-2.17632e-05
-1.9292e-06
-1.97905e-05
-2.92646e-06
-1.71081e-05
-3.9755e-06
-1.37174e-05
-5.02341e-06
-9.65896e-06
-6.00754e-06
-5.01666e-06
-6.85963e-06
8.27319e-08
-7.51124e-06
5.47303e-06
-7.90034e-06
1.09561e-05
-7.97833e-06
1.63134e-05
-7.71671e-06
2.13206e-05
-7.11241e-06
2.57649e-05
-6.19064e-06
2.94618e-05
-5.00453e-06
3.22717e-05
-3.63076e-06
3.41113e-05
-2.16204e-06
3.49601e-05
-6.96069e-07
3.4859e-05
6.75113e-07
3.39033e-05
1.8766e-06
3.22276e-05
2.85647e-06
2.99908e-05
3.59098e-06
2.73555e-05
4.08067e-06
2.44774e-05
4.34933e-06
2.14868e-05
4.43248e-06
1.84913e-05
4.3767e-06
1.55621e-05
4.22411e-06
1.27524e-05
4.01874e-06
1.00836e-05
3.78292e-06
7.58612e-06
3.5358e-06
5.27813e-06
3.24606e-06
3.23805e-06
2.882e-06
1.55703e-06
2.32088e-06
4.23505e-07
1.52953e-06
4.32628e-07
-1.70197e-07
5.5479e-08
-7.86689e-07
8.63351e-07
-1.80609e-06
1.63859e-06
-3.11425e-06
2.26144e-06
-4.62e-06
2.64063e-06
-6.23917e-06
2.87146e-06
-7.9303e-06
2.98817e-06
-9.66232e-06
3.06265e-06
-1.14284e-05
3.11411e-06
-1.32227e-05
3.17069e-06
-1.50496e-05
3.23406e-06
-1.69111e-05
3.31259e-06
-1.88139e-05
3.40377e-06
-2.07626e-05
3.50962e-06
-2.2763e-05
3.62564e-06
-2.48172e-05
3.74709e-06
-2.69234e-05
3.86183e-06
-2.90709e-05
3.95316e-06
-3.12383e-05
3.99627e-06
-3.3389e-05
3.96085e-06
-3.54697e-05
3.81084e-06
-3.7409e-05
3.50813e-06
-3.91178e-05
3.01487e-06
-4.04918e-05
2.29809e-06
-4.14156e-05
1.33339e-06
-4.17687e-05
1.0956e-07
-4.14331e-05
-1.36783e-06
-4.03012e-05
-3.07314e-06
-3.82856e-05
-4.95893e-06
-3.53275e-05
-6.95543e-06
-3.14051e-05
-8.97231e-06
-2.65412e-05
-1.09023e-05
-2.08082e-05
-1.26272e-05
-1.43304e-05
-1.40263e-05
-7.28311e-06
-1.49863e-05
1.12188e-07
-1.54124e-05
7.59775e-06
-1.52395e-05
1.48934e-05
-1.44422e-05
2.17147e-05
-1.30416e-05
2.77934e-05
-1.11073e-05
3.2899e-05
-8.75369e-06
3.68569e-05
-6.1305e-06
3.95642e-05
-3.40666e-06
4.09948e-05
-7.52433e-07
4.11999e-05
1.68059e-06
4.0296e-05
3.77396e-06
3.84504e-05
5.45444e-06
3.58566e-05
6.69412e-06
3.27183e-05
7.5099e-06
2.92228e-05
7.94936e-06
2.5538e-05
8.08487e-06
2.17902e-05
7.99192e-06
1.80836e-05
7.74821e-06
1.4479e-05
7.40388e-06
1.10451e-05
6.99201e-06
7.8249e-06
6.47649e-06
4.93511e-06
5.79448e-06
2.48588e-06
4.76954e-06
7.52171e-07
3.28762e-06
1.1831e-06
-3.82968e-07
4.32042e-07
-1.42815e-06
1.91705e-06
-3.00149e-06
3.20165e-06
-4.9164e-06
4.17926e-06
-7.06652e-06
4.78271e-06
-9.34956e-06
5.15364e-06
-1.17234e-05
5.35519e-06
-1.41505e-05
5.48684e-06
-1.66231e-05
5.58057e-06
-1.91318e-05
5.67541e-06
-2.1681e-05
5.77748e-06
-2.42735e-05
5.90041e-06
-2.69204e-05
6.04491e-06
-2.96329e-05
6.21682e-06
-3.24264e-05
6.41327e-06
-3.53142e-05
6.62925e-06
-3.83066e-05
6.84821e-06
-4.14041e-05
7.04486e-06
-4.45943e-05
7.18067e-06
-4.78462e-05
7.20726e-06
-5.11072e-05
7.06685e-06
-5.43008e-05
6.69761e-06
-5.73266e-05
6.03768e-06
-6.0062e-05
5.0319e-06
-6.23656e-05
3.63736e-06
-6.40834e-05
1.83e-06
-6.50558e-05
-3.90147e-07
-6.51267e-05
-2.99401e-06
-6.41537e-05
-5.92052e-06
-6.20194e-05
-9.07513e-06
-5.86427e-05
-1.23313e-05
-5.39899e-05
-1.55345e-05
-4.80843e-05
-1.85099e-05
-4.10134e-05
-2.10728e-05
-3.29322e-05
-2.30421e-05
-2.40627e-05
-2.42566e-05
-1.46865e-05
-2.45914e-05
-5.13241e-06
-2.39741e-05
4.24272e-06
-2.23973e-05
1.30777e-05
-1.99265e-05
2.10346e-05
-1.6699e-05
2.78253e-05
-1.29142e-05
3.32357e-05
-8.81445e-06
3.71409e-05
-4.65951e-06
3.95128e-05
-6.96876e-07
4.04137e-05
2.86378e-06
3.99845e-05
5.87233e-06
3.84188e-05
8.24571e-06
3.5944e-05
9.97062e-06
3.2788e-05
1.10891e-05
2.91706e-05
1.16882e-05
2.52731e-05
1.18725e-05
2.12555e-05
1.17539e-05
1.72263e-05
1.14159e-05
1.32994e-05
1.09113e-05
9.5475e-06
1.02098e-05
6.12313e-06
9.21904e-06
3.15531e-06
7.71427e-06
9.92113e-07
5.46319e-06
2.15983e-06
-5.97112e-07
1.02249e-06
-2.08725e-06
3.4226e-06
-4.23358e-06
5.33839e-06
-6.76716e-06
6.72307e-06
-9.5623e-06
7.57461e-06
-1.24975e-05
8.09603e-06
-1.55324e-05
8.39022e-06
-1.8625e-05
8.58513e-06
-2.17703e-05
8.72773e-06
-2.49587e-05
8.86861e-06
-2.82e-05
9.02163e-06
-3.15046e-05
9.20949e-06
-3.48978e-05
9.44148e-06
-3.8409e-05
9.73246e-06
-4.2078e-05
1.00861e-05
-4.59447e-05
1.05003e-05
-5.00481e-05
1.09555e-05
-5.44158e-05
1.14167e-05
-5.90591e-05
1.18278e-05
-6.39641e-05
1.21158e-05
-6.90865e-05
1.21922e-05
-7.43466e-05
1.19602e-05
-7.96277e-05
1.13202e-05
-8.47751e-05
1.01797e-05
-8.95997e-05
8.46099e-06
-9.38835e-05
6.11122e-06
-9.73885e-05
3.11044e-06
-9.98687e-05
-5.19987e-07
-0.000101086
-4.71189e-06
-0.000100824
-9.34707e-06
-9.89088e-05
-1.42583e-05
-9.52232e-05
-1.9234e-05
-8.97204e-05
-2.40282e-05
-8.24362e-05
-2.83735e-05
-7.34967e-05
-3.19989e-05
-6.31203e-05
-3.46502e-05
-5.16152e-05
-3.61134e-05
-3.93678e-05
-3.62371e-05
-2.68245e-05
-3.49545e-05
-1.44642e-05
-3.22984e-05
-2.76421e-06
-2.84077e-05
7.83677e-06
-2.3521e-05
1.6976e-05
-1.79561e-05
2.43942e-05
-1.20773e-05
2.99543e-05
-6.2535e-06
3.36414e-05
-8.17831e-07
3.55535e-05
3.96831e-06
3.58734e-05
7.9344e-06
3.48455e-05
1.10094e-05
3.27353e-05
1.3209e-05
2.98148e-05
1.46209e-05
2.63234e-05
1.53726e-05
2.24815e-05
1.56088e-05
1.84518e-05
1.54516e-05
1.43989e-05
1.49788e-05
1.04333e-05
1.41757e-05
6.74793e-06
1.29229e-05
3.5019e-06
1.09497e-05
1.10629e-06
7.88522e-06
3.25886e-06
-8.19016e-07
1.83085e-06
-2.76544e-06
5.38657e-06
-5.49189e-06
8.04892e-06
-8.64376e-06
9.88369e-06
-1.20747e-05
1.09962e-05
-1.56445e-05
1.1669e-05
-1.93167e-05
1.20561e-05
-2.30472e-05
1.2316e-05
-2.6838e-05
1.25139e-05
-3.06851e-05
1.27145e-05
-3.46127e-05
1.29454e-05
-3.86507e-05
1.32454e-05
-4.28538e-05
1.36411e-05
-4.7288e-05
1.41642e-05
-5.20369e-05
1.48316e-05
-5.71875e-05
1.56481e-05
-6.28264e-05
1.65912e-05
-6.90242e-05
1.76118e-05
-7.58267e-05
1.86273e-05
-8.32399e-05
1.95266e-05
-9.12223e-05
2.01724e-05
-9.96742e-05
2.04106e-05
-0.000108434
2.00796e-05
-0.000117278
1.90237e-05
-0.000125923
1.7107e-05
-0.000134037
1.42285e-05
-0.000141259
1.0337e-05
-0.000147216
5.44356e-06
-0.000151549
-3.70756e-07
-0.000153934
-6.95238e-06
-0.000154102
-1.40788e-05
-0.000151857
-2.14669e-05
-0.000147087
-2.87852e-05
-0.000139776
-3.567e-05
-0.000130016
-4.17445e-05
-0.000118011
-4.66422e-05
-0.000104078
-5.00332e-05
-8.86489e-05
-5.16541e-05
-7.22543e-05
-5.13389e-05
-5.54986e-05
-4.90459e-05
-3.90229e-05
-4.48773e-05
-2.34571e-05
-3.9083e-05
-9.36549e-06
-3.20461e-05
2.80202e-06
-2.42455e-05
1.27481e-05
-1.62017e-05
2.03408e-05
-8.41479e-06
2.56108e-05
-1.30643e-06
2.87191e-05
4.81925e-06
2.9927e-05
9.79533e-06
2.95443e-05
1.35834e-05
2.7905e-05
1.62543e-05
2.53185e-05
1.79496e-05
2.20772e-05
1.88458e-05
1.84103e-05
1.91076e-05
1.45428e-05
1.88457e-05
1.06346e-05
1.80699e-05
6.92339e-06
1.66409e-05
3.60649e-06
1.42449e-05
1.13888e-06
1.03715e-05
4.38283e-06
-1.04319e-06
2.86246e-06
-3.44853e-06
7.81565e-06
-6.7539e-06
1.13371e-05
-1.0518e-05
1.36617e-05
-1.45737e-05
1.50442e-05
-1.87626e-05
1.5866e-05
-2.30539e-05
1.63444e-05
-2.74052e-05
1.66725e-05
-3.18315e-05
1.69397e-05
-3.63441e-05
1.72309e-05
-4.09953e-05
1.75974e-05
-4.5852e-05
1.81052e-05
-5.10196e-05
1.88101e-05
-5.66241e-05
1.97712e-05
-6.28163e-05
2.10256e-05
-6.9752e-05
2.25861e-05
-7.75813e-05
2.44224e-05
-8.64258e-05
2.64583e-05
-9.63614e-05
2.85646e-05
-0.000107397
3.05641e-05
-0.00011946
3.2237e-05
-0.000132383
3.33348e-05
-0.0001459
3.3597e-05
-0.00015965
3.27742e-05
-0.000173196
3.06532e-05
-0.00018605
2.70826e-05
-0.000197708
2.19936e-05
-0.000207678
1.54121e-05
-0.000215512
7.46098e-06
-0.000220822
-1.64582e-06
-0.000223291
-1.1614e-05
-0.000222681
-2.2082e-05
-0.000218836
-3.26347e-05
-0.000211694
-4.28177e-05
-0.000201291
-5.21536e-05
-0.000187776
-6.0162e-05
-0.00017143
-6.63844e-05
-0.000152672
-7.04175e-05
-0.000132064
-7.19514e-05
-0.000110302
-7.08115e-05
-8.81848e-05
-6.6998e-05
-6.65584e-05
-6.07117e-05
-4.62469e-05
-5.23586e-05
-2.79722e-05
-4.25204e-05
-1.22795e-05
-3.1893e-05
5.05987e-07
-2.11983e-05
1.0294e-05
-1.10907e-05
1.71978e-05
-2.08108e-06
2.14916e-05
5.50699e-06
2.35407e-05
1.15381e-05
2.37599e-05
1.60418e-05
2.25496e-05
1.91629e-05
2.02938e-05
2.11096e-05
1.73065e-05
2.20957e-05
1.38878e-05
2.22748e-05
1.02615e-05
2.1692e-05
6.71847e-06
2.01995e-05
3.50185e-06
1.74474e-05
1.09761e-06
1.28006e-05
5.47103e-06
-1.27422e-06
4.12158e-06
-4.14185e-06
1.07101e-05
-8.02271e-06
1.51955e-05
-1.23899e-05
1.80432e-05
-1.70578e-05
1.97002e-05
-2.18524e-05
2.06671e-05
-2.67521e-05
2.12373e-05
-3.17219e-05
2.16449e-05
-3.6799e-05
2.20125e-05
-4.20236e-05
2.2456e-05
-4.74945e-05
2.30653e-05
-5.33386e-05
2.39487e-05
-5.97373e-05
2.52064e-05
-6.69018e-05
2.69347e-05
-7.50728e-05
2.91946e-05
-8.44884e-05
3.20005e-05
-9.53645e-05
3.52968e-05
-0.000107858
3.8951e-05
-0.000122042
4.2747e-05
-0.000137871
4.63925e-05
-0.000155166
4.95322e-05
-0.000173605
5.17742e-05
-0.000192731
5.27243e-05
-0.000211983
5.20288e-05
-0.000230744
4.94162e-05
-0.000248385
4.47276e-05
-0.000264318
3.79313e-05
-0.000278021
2.91198e-05
-0.00028905
1.84955e-05
-0.000297041
6.35163e-06
-0.000301702
-6.94638e-06
-0.000302801
-2.09755e-05
-0.000300162
-3.52653e-05
-0.000293666
-4.93053e-05
-0.000283259
-6.25512e-05
-0.000268977
-7.4435e-05
-0.000250971
-8.4382e-05
-0.000229541
-9.18388e-05
-0.00020517
-9.63144e-05
-0.00017854
-9.74341e-05
-0.000150531
-9.50021e-05
-0.000122177
-8.90615e-05
-9.45961e-05
-7.99378e-05
-6.88728e-05
-6.82434e-05
-4.59349e-05
-5.48315e-05
-2.64443e-05
-4.0691e-05
-1.07319e-05
-2.68051e-05
1.19308e-06
-1.40096e-05
9.58997e-06
-2.89222e-06
1.48865e-05
6.23708e-06
1.76034e-05
1.3323e-05
1.82644e-05
1.84962e-05
1.73759e-05
2.19978e-05
1.53648e-05
2.40994e-05
1.26282e-05
2.50141e-05
9.47262e-06
2.48367e-05
6.25233e-06
2.34288e-05
3.26408e-06
2.04169e-05
1.01578e-06
1.5068e-05
6.474e-06
-1.50863e-06
5.6137e-06
-4.83787e-06
1.40718e-05
-9.28728e-06
1.96202e-05
-1.42467e-05
2.30208e-05
-1.95152e-05
2.4957e-05
-2.49072e-05
2.60689e-05
-3.04155e-05
2.67403e-05
-3.60207e-05
2.72557e-05
-4.17951e-05
2.77848e-05
-4.78259e-05
2.84903e-05
-5.42815e-05
2.95204e-05
-6.13747e-05
3.10444e-05
-6.93896e-05
3.32217e-05
-7.86443e-05
3.61914e-05
-8.94802e-05
4.00312e-05
-0.000102212
4.47343e-05
-0.000117095
5.01798e-05
-0.000134265
5.6123e-05
-0.00015371
6.21926e-05
-0.000175225
6.79092e-05
-0.000198412
7.27201e-05
-0.000222691
7.60546e-05
-0.000247358
7.73917e-05
-0.000271652
7.63238e-05
-0.000294837
7.26011e-05
-0.000316255
6.61447e-05
-0.000335361
5.70349e-05
-0.000351725
4.54817e-05
-0.000365024
3.17908e-05
-0.00037501
1.63335e-05
-0.000381487
-4.75332e-07
-0.000384278
-1.81896e-05
-0.000383215
-3.63342e-05
-0.000378125
-5.44007e-05
-0.000368841
-7.184e-05
-0.000355224
-8.80559e-05
-0.000337203
-0.000102406
-0.00031483
-0.000114214
-0.000288341
-0.000122803
-0.000258221
-0.000127552
-0.000225249
-0.000127972
-0.000190508
-0.0001238
-0.000155337
-0.000115106
-0.000121221
-0.000102358
-8.96119e-05
-8.6439e-05
-6.17272e-05
-6.85748e-05
-3.83721e-05
-5.01584e-05
-1.98636e-05
-3.25171e-05
-6.05851e-06
-1.66945e-05
3.51088e-06
-3.33133e-06
9.49845e-06
7.33938e-06
1.25987e-05
1.53962e-05
1.34888e-05
2.11131e-05
1.27511e-05
2.48354e-05
1.09125e-05
2.68605e-05
8.38767e-06
2.73558e-05
5.61017e-06
2.6219e-05
2.94044e-06
2.30728e-05
9.08044e-07
1.71213e-05
7.373e-06
-1.74698e-06
7.34109e-06
-5.53576e-06
1.78965e-05
-1.05451e-05
2.46003e-05
-1.60853e-05
2.85804e-05
-2.19448e-05
3.08018e-05
-2.79321e-05
3.20655e-05
-3.40618e-05
3.2862e-05
-4.03415e-05
3.35397e-05
-4.68949e-05
3.43335e-05
-5.38778e-05
3.54749e-05
-6.15538e-05
3.71934e-05
-7.02478e-05
3.97387e-05
-8.03667e-05
4.33385e-05
-9.2343e-05
4.81674e-05
-0.000106605
5.42921e-05
-0.000123504
6.16327e-05
-0.000143255
6.99298e-05
-0.000165868
7.87362e-05
-0.000191109
8.74331e-05
-0.000218478
9.52792e-05
-0.00024725
0.000101493
-0.000276549
0.000105354
-0.000305458
0.000106301
-0.000333124
0.00010399
-0.000358832
9.8309e-05
-0.000382042
8.93546e-05
-0.00040239
7.73816e-05
-0.000419659
6.27486e-05
-0.000433739
4.58683e-05
-0.00044458
2.71715e-05
-0.000452145
7.08659e-06
-0.000456372
-1.39665e-05
-0.000457142
-3.5569e-05
-0.000454261
-5.7286e-05
-0.000447461
-7.86436e-05
-0.000436417
-9.91042e-05
-0.000420781
-0.000118045
-0.000400249
-0.000134747
-0.000374646
-0.000148407
-0.000344029
-0.000158167
-0.000308799
-0.000163199
-0.000269788
-0.000162808
-0.0002283
-0.00015659
-0.000186065
-0.000144589
-0.000145071
-0.000127429
-0.000107297
-0.000106349
-7.4365e-05
-8.30899e-05
-4.72771e-05
-5.9607e-05
-2.62904e-05
-3.7682e-05
-1.1033e-05
-1.85916e-05
-7.27187e-07
-2.96651e-06
5.55045e-06
9.11475e-06
8.72274e-06
1.79422e-05
9.59552e-06
2.39571e-05
8.87736e-06
2.75826e-05
7.12868e-06
2.90959e-05
4.88657e-06
2.847e-05
2.59024e-06
2.53539e-05
7.98534e-07
1.89298e-05
8.16134e-06
-1.98541e-06
9.30525e-06
-6.22719e-06
2.21794e-05
-1.17844e-05
3.01256e-05
-1.78927e-05
3.47115e-05
-2.43357e-05
3.72295e-05
-3.09227e-05
3.86643e-05
-3.76996e-05
3.96317e-05
-4.47152e-05
4.05616e-05
-5.21638e-05
4.17789e-05
-6.02936e-05
4.36086e-05
-6.94881e-05
4.63867e-05
-8.02028e-05
5.0456e-05
-9.29722e-05
5.61078e-05
-0.000108323
6.35205e-05
-0.000126719
7.2688e-05
-0.000148451
8.3366e-05
-0.000173565
9.50448e-05
-0.000201788
0.000106961
-0.000232514
0.00011816
-0.000264847
0.000127612
-0.000297714
0.000134359
-0.000330012
0.000137651
-0.000360748
0.000137036
-0.000389137
0.000132376
-0.000414648
0.000123815
-0.000436996
0.000111697
-0.000456107
9.64865e-05
-0.000472063
7.86966e-05
-0.000485031
5.88285e-05
-0.000495208
3.73391e-05
-0.000502758
1.46275e-05
-0.000507773
-8.96126e-06
-0.000510233
-3.31192e-05
-0.000509982
-5.75475e-05
-0.000506715
-8.19223e-05
-0.000499976
-0.000105854
-0.000489184
-0.000128849
-0.000473675
-0.000150268
-0.000452789
-0.000169303
-0.000425988
-0.000184977
-0.000393012
-0.00019618
-0.000354056
-0.000201766
-0.000309933
-0.000200712
-0.000262171
-0.000192348
-0.000212981
-0.000176615
-0.000165034
-0.000154293
-0.000121032
-0.000127088
-8.31777e-05
-9.74605e-05
-5.27077e-05
-6.81499e-05
-2.97682e-05
-4.15316e-05
-1.36289e-05
-1.91033e-05
-3.12005e-06
-1.39533e-06
3.02486e-06
1.18013e-05
5.94121e-06
2.1038e-05
6.60447e-06
2.69255e-05
5.78091e-06
2.99136e-05
4.15048e-06
3.01106e-05
2.25516e-06
2.72372e-05
7.01643e-07
2.05e-05
8.85524e-06
-2.22207e-06
1.15033e-05
-6.90666e-06
2.69087e-05
-1.29969e-05
3.61797e-05
-1.966e-05
4.13988e-05
-2.6681e-05
4.42327e-05
-3.38785e-05
4.58735e-05
-4.13411e-05
4.7085e-05
-4.91745e-05
4.84005e-05
-5.76643e-05
5.02635e-05
-6.71733e-05
5.31199e-05
-7.82216e-05
5.74317e-05
-9.13984e-05
6.36335e-05
-0.000107342
7.20493e-05
-0.000126614
8.27921e-05
-0.000149604
9.56775e-05
-0.000176403
0.000110164
-0.000206716
0.000125358
-0.000239833
0.000140077
-0.000274681
0.000153008
-0.000309969
0.0001629
-0.000344378
0.000168767
-0.000376743
0.000170014
-0.000406184
0.000166474
-0.000432161
0.000158351
-0.000454472
0.000146122
-0.000473193
0.000130415
-0.000488608
0.0001119
-0.000501119
9.12074e-05
-0.000511173
6.88818e-05
-0.00051919
4.53568e-05
-0.00052552
2.09586e-05
-0.0005304
-4.07892e-06
-0.00053393
-2.95873e-05
-0.000536044
-5.54321e-05
-0.000536491
-8.14753e-05
-0.000534815
-0.000107532
-0.000530348
-0.000133319
-0.000522217
-0.000158404
-0.00050939
-0.000182139
-0.000490758
-0.000203618
-0.000465295
-0.000221653
-0.000432269
-0.000234801
-0.000391515
-0.000241473
-0.000343706
-0.000240161
-0.00029056
-0.000229761
-0.000234856
-0.000209994
-0.000180145
-0.000181794
-0.000130117
-0.000147487
-8.77296e-05
-0.000110536
-5.45016e-05
-7.47612e-05
-3.0339e-05
-4.3265e-05
-1.40205e-05
-1.77172e-05
-3.87281e-06
1.6558e-06
1.71337e-06
1.54472e-05
4.11416e-06
2.4529e-05
4.39985e-06
2.96207e-05
3.45849e-06
3.10601e-05
1.97442e-06
2.87088e-05
6.33763e-07
2.18548e-05
9.48095e-06
-2.452e-06
1.39297e-05
-7.56309e-06
3.20691e-05
-1.41663e-05
4.27443e-05
-2.1368e-05
4.86276e-05
-2.89615e-05
5.18078e-05
-3.67839e-05
5.37098e-05
-4.49785e-05
5.52707e-05
-5.3725e-05
5.71545e-05
-6.3419e-05
5.99535e-05
-7.45533e-05
6.42586e-05
-8.77872e-05
7.06641e-05
-0.00010382
7.9669e-05
-0.000123331
9.15602e-05
-0.000146807
0.00010627
-0.000174418
0.000123289
-0.000205876
0.000141624
-0.000240399
0.000159881
-0.000276751
0.00017643
-0.000313421
0.000189677
-0.000348851
0.000198328
-0.000381678
0.000201591
-0.000410898
0.000199232
-0.000435952
0.000191526
-0.000456711
0.000179107
-0.000473402
0.000162812
-0.000486506
0.000143519
-0.000496642
0.000122037
-0.000504471
9.90388e-05
-0.000510621
7.50348e-05
-0.000515636
5.03771e-05
-0.000519954
2.52821e-05
-0.000523887
-1.40024e-07
-0.000527613
-2.58538e-05
-0.00053117
-5.18685e-05
-0.000534429
-7.82085e-05
-0.000537074
-0.00010488
-0.000538558
-0.000131829
-0.000538068
-0.000158889
-0.000534502
-0.000185704
-0.000526475
-0.000211646
-0.000512404
-0.000235729
-0.000490674
-0.000256539
-0.000459923
-0.000272234
-0.000419432
-0.000280661
-0.000369564
-0.000279635
-0.000312144
-0.000267417
-0.000250582
-0.000243354
-0.000189536
-0.00020853
-0.000133962
-0.000166105
-8.77747e-05
-0.000120947
-5.2722e-05
-7.83145e-05
-2.82886e-05
-4.21529e-05
-1.25707e-05
-1.40585e-05
-3.35683e-06
6.22951e-06
1.31726e-06
1.98604e-05
2.97971e-06
2.79522e-05
2.83311e-06
3.12154e-05
1.76941e-06
2.97617e-05
6.04052e-07
2.30341e-05
1.00783e-05
-2.67133e-06
1.65731e-05
-8.18651e-06
3.76368e-05
-1.52775e-05
4.9793e-05
-2.29985e-05
5.6377e-05
-3.1158e-05
5.99466e-05
-3.9621e-05
6.21865e-05
-4.85977e-05
6.42368e-05
-5.83569e-05
6.69201e-05
-6.9417e-05
7.10075e-05
-8.24032e-05
7.72476e-05
-9.80929e-05
8.63499e-05
-0.000117237
9.88139e-05
-0.000140453
0.000114774
-0.000168008
0.000133826
-0.000199684
0.000154963
-0.000234671
0.000176612
-0.000271626
0.000196834
-0.000308835
0.000213637
-0.000344505
0.000225344
-0.000377052
0.000230874
-0.000405332
0.00022987
-0.000428747
0.000222647
-0.000447235
0.000210015
-0.000461175
0.000193049
-0.000471239
0.000172879
-0.000478244
0.000150529
-0.000483028
0.000126827
-0.000486361
0.000102378
-0.000488893
7.75734e-05
-0.000491141
5.26312e-05
-0.00049349
2.76378e-05
-0.000496212
2.58949e-06
-0.000499484
-2.25747e-05
-0.000503393
-4.79508e-05
-0.000507939
-7.36542e-05
-0.000513004
-9.98055e-05
-0.000518312
-0.000126512
-0.000523357
-0.000153833
-0.000527326
-0.000181724
-0.000529016
-0.000209946
-0.000526795
-0.000237944
-0.000518634
-0.000264697
-0.000502278
-0.000288592
-0.000475593
-0.000307353
-0.000437095
-0.000318142
-0.000386625
-0.000317896
-0.000325987
-0.000303998
-0.000259274
-0.000275246
-0.000192485
-0.00023289
-0.000132167
-0.000181264
-8.33059e-05
-0.000127171
-4.77127e-05
-7.77483e-05
-2.41226e-05
-3.76454e-05
-9.81359e-06
-8.08467e-06
-2.03001e-06
1.20817e-05
1.43276e-06
2.44824e-05
2.25632e-06
3.03998e-05
1.64484e-06
3.03618e-05
6.18093e-07
2.40737e-05
1.06894e-05
-2.87322e-06
1.9417e-05
-8.7612e-06
4.35813e-05
-1.63066e-05
5.72939e-05
-2.45209e-05
6.46222e-05
-3.32337e-05
6.86384e-05
-4.23475e-05
7.1316e-05
-5.21494e-05
7.40286e-05
-6.30075e-05
7.77867e-05
-7.5566e-05
8.35614e-05
-9.05666e-05
9.22533e-05
-0.000108855
0.000104637
-0.000131142
0.000121105
-0.000157851
0.000141483
-0.000188872
0.00016485
-0.000223467
0.000189558
-0.000260247
0.000213393
-0.000297363
0.000233949
-0.000332804
0.000249077
-0.000364762
0.000257302
-0.000391925
0.000258036
-0.00041363
0.000251575
-0.000429866
0.000238884
-0.00044115
0.000221301
-0.000448343
0.000200245
-0.000452454
0.000176993
-0.000454477
0.000152554
-0.000455286
0.000127638
-0.000455576
0.00010267
-0.000455862
7.78602e-05
-0.000456491
5.32614e-05
-0.000457688
2.88348e-05
-0.000459591
4.49243e-06
-0.000462292
-1.98741e-05
-0.000465861
-4.43823e-05
-0.000470358
-6.91573e-05
-0.000475824
-9.4338e-05
-0.000482252
-0.000120081
-0.000489522
-0.00014656
-0.000497304
-0.000173936
-0.000504934
-0.000202308
-0.000511272
-0.000231598
-0.000514572
-0.000261387
-0.000512456
-0.0002907
-0.000502036
-0.000317769
-0.000480305
-0.000339874
-0.000444827
-0.000353379
-0.000394702
-0.000354132
-0.000331577
-0.000338379
-0.000260294
-0.000304176
-0.000188488
-0.00025307
-0.000124592
-0.000191061
-7.46598e-05
-0.00012768
-4.01125e-05
-7.21873e-05
-1.85592e-05
-2.96431e-05
-6.38665e-06
-8.52673e-08
-4.48058e-07
1.85368e-05
1.64791e-06
2.83123e-05
1.57677e-06
3.0422e-05
6.72226e-07
2.49914e-05
1.13552e-05
-3.05184e-06
2.24375e-05
-9.27252e-06
4.9861e-05
-1.72305e-05
6.52043e-05
-2.59045e-05
7.33281e-05
-3.5151e-05
7.78618e-05
-4.49167e-05
8.1097e-05
-5.5572e-05
8.46719e-05
-6.75873e-05
8.98091e-05
-8.17202e-05
9.76874e-05
-9.87904e-05
0.000109326
-0.000119635
0.000125478
-0.000144811
0.000146281
-0.000174406
0.000171076
-0.000207822
0.000198265
-0.000243746
0.000225479
-0.00028027
0.000249916
-0.000315228
0.000268905
-0.000346589
0.000280437
-0.000372842
0.000283554
-0.000393211
0.000278406
-0.000407691
0.000266057
-0.000416909
0.000248104
-0.000421898
0.000226293
-0.000423852
0.0002022
-0.000423917
0.00017706
-0.000423061
0.0001517
-0.00042201
0.000126587
-0.000421241
0.000101902
-0.000421025
7.76437e-05
-0.000421476
5.37119e-05
-0.000422613
2.99714e-05
-0.000424414
6.29197e-06
-0.000426855
-1.74348e-05
-0.000429943
-4.12957e-05
-0.000433736
-6.53667e-05
-0.000438343
-8.97326e-05
-0.000443919
-0.000114508
-0.000450621
-0.000139859
-0.000458551
-0.000166008
-0.000467631
-0.000193227
-0.000477449
-0.000221777
-0.000487046
-0.000251785
-0.000494704
-0.000283035
-0.000497805
-0.00031466
-0.000492885
-0.000344786
-0.000476031
-0.000370229
-0.000443728
-0.000386436
-0.000394168
-0.000387947
-0.000328772
-0.000369582
-0.000253278
-0.000328571
-0.000177331
-0.000267006
-0.00011152
-0.00019349
-6.26061e-05
-0.000121091
-3.08839e-05
-6.13704e-05
-1.2465e-05
-1.84986e-05
-3.01549e-06
9.07909e-06
8.52802e-07
2.44523e-05
1.50852e-06
2.97548e-05
7.5378e-07
2.57588e-05
1.21025e-05
-3.19827e-06
2.56036e-05
-9.69956e-06
5.64243e-05
-1.80162e-05
7.34721e-05
-2.71045e-05
8.24504e-05
-3.68505e-05
8.75847e-05
-4.72498e-05
9.15136e-05
-5.87565e-05
9.61677e-05
-7.19355e-05
0.000102997
-8.76296e-05
0.000113377
-0.000106678
0.00012838
-0.000129815
0.000148614
-0.000157327
0.000173796
-0.000188867
0.000202616
-0.000223295
0.000232696
-0.000258783
0.000260967
-0.000293082
0.000284215
-0.000323975
0.000299797
-0.000349717
0.00030618
-0.000369353
0.000303191
-0.000382804
0.000291858
-0.000390746
0.000274
-0.000394348
0.000251708
-0.000394977
0.000226923
-0.000393934
0.000201158
-0.000392288
0.000175414
-0.0003908
0.000150211
-0.00038992
0.000125705
-0.000389839
0.000101819
-0.000390561
7.83641e-05
-0.000391976
5.51251e-05
-0.000393926
3.19193e-05
-0.000396253
8.61749e-06
-0.000398838
-1.48513e-05
-0.000401624
-3.85114e-05
-0.000404633
-6.23603e-05
-0.000407973
-8.63939e-05
-0.000411848
-0.000110636
-0.000416542
-0.000135167
-0.000422392
-0.00016016
-0.000429725
-0.000185897
-0.000438735
-0.000212769
-0.000449293
-0.000241228
-0.000460683
-0.000271644
-0.000471289
-0.00030405
-0.000478341
-0.000337727
-0.00047786
-0.000370702
-0.000465036
-0.000399252
-0.000435228
-0.000417753
-0.000385674
-0.00041914
-0.000317637
-0.00039662
-0.000238097
-0.000346553
-0.000159211
-0.00027238
-9.37969e-05
-0.000186496
-4.84207e-05
-0.000106746
-2.12204e-05
-4.56918e-05
-6.77758e-06
-5.37282e-06
-3.67016e-07
1.80501e-05
1.34591e-06
2.80305e-05
8.3861e-07
2.62783e-05
1.29352e-05
-3.30549e-06
2.88755e-05
-1.00244e-05
6.32063e-05
-1.86344e-05
8.20309e-05
-2.80796e-05
9.19296e-05
-3.82761e-05
9.77565e-05
-4.9269e-05
0.000102523
-6.15886e-05
0.000108474
-7.58747e-05
0.000117291
-9.30119e-05
0.000130507
-0.000113785
0.000149157
-0.000138735
0.000173559
-0.000167785
0.000202848
-0.000200111
0.000234939
-0.000234078
0.000266662
-0.000267495
0.000294381
-0.000298013
0.000314732
-0.000323652
0.000325435
-0.000343197
0.000325725
-0.000356394
0.000316388
-0.000363869
0.000299335
-0.000366867
0.000276999
-0.000366895
0.000251736
-0.000365411
0.000225439
-0.000363605
0.000199351
-0.000362297
0.000174105
-0.000361933
0.000149847
-0.00036265
0.000126421
-0.00036436
0.000103529
-0.000366845
8.08486e-05
-0.000369832
5.81116e-05
-0.000373048
3.5135e-05
-0.000376258
1.18268e-05
-0.000379286
-1.18243e-05
-0.000382029
-3.57691e-05
-0.000384468
-5.99212e-05
-0.00038668
-8.41833e-05
-0.00038884
-0.000108476
-0.000391239
-0.000132769
-0.000394279
-0.000157122
-0.000398457
-0.000181721
-0.000404309
-0.000206919
-0.000412289
-0.00023325
-0.000422551
-0.000261384
-0.000434624
-0.000291979
-0.000447004
-0.000325346
-0.000456775
-0.000360927
-0.000459451
-0.000396569
-0.000449325
-0.000427871
-0.000420656
-0.000447802
-0.000369831
-0.00044745
-0.000298291
-0.000418104
-0.000214881
-0.000355804
-0.000134916
-0.000266459
-7.30062e-05
-0.000168651
-3.37803e-05
-8.4905e-05
-1.23677e-05
-2.67955e-05
-2.32124e-06
8.0106e-06
9.64113e-07
2.47345e-05
8.93716e-07
2.63587e-05
1.3824e-05
-3.36345e-06
3.22055e-05
-1.02231e-05
7.01309e-05
-1.90461e-05
9.08027e-05
-2.87743e-05
0.000101694
-3.93508e-05
0.000108309
-5.08651e-05
0.000114055
-6.39086e-05
0.000121507
-7.91665e-05
0.000132559
-9.75111e-05
0.000148846
-0.000119602
0.000171255
-0.00014571
0.000199665
-0.000175357
0.0002325
-0.000207271
0.000266852
-0.000239442
0.000298835
-0.000269526
0.000324464
-0.000295331
0.000340538
-0.000315336
0.000345441
-0.000328993
0.000339384
-0.000336756
0.000324154
-0.000339839
0.00030242
-0.000339842
0.000277003
-0.00033837
0.000250265
-0.000336757
0.000223825
-0.000335915
0.00019851
-0.000336328
0.000174517
-0.000338107
0.000151625
-0.000341104
0.000129418
-0.000345019
0.000107443
-0.000349491
8.53199e-05
-0.000354161
6.2781e-05
-0.000358711
3.96843e-05
-0.000362882
1.59974e-05
-0.000366484
-8.22314e-06
-0.000369396
-3.28579e-05
-0.00037157
-5.77477e-05
-0.000373037
-8.27167e-05
-0.000373917
-0.000107596
-0.000374435
-0.000132252
-0.000374938
-0.000156619
-0.000375917
-0.000180743
-0.000378
-0.000204837
-0.000381913
-0.000229338
-0.000388356
-0.000254943
-0.000397754
-0.000282583
-0.000409864
-0.000313237
-0.000423247
-0.000347546
-0.000434765
-0.000385048
-0.00043933
-0.000423302
-0.000430297
-0.000456824
-0.000400887
-0.000476855
-0.000346957
-0.000472034
-0.000270791
-0.000431989
-0.000184161
-0.000353094
-0.00010611
-0.000246713
-5.1441e-05
-0.000139546
-2.04601e-05
-5.77836e-05
-5.37146e-06
-7.07444e-06
2.21164e-07
1.91344e-05
8.81186e-07
2.57044e-05
1.47026e-05
-3.36587e-06
3.55371e-05
-1.02785e-05
7.71077e-05
-1.92216e-05
9.96935e-05
-2.91446e-05
0.000111651
-4.00108e-05
0.00011915
-5.19444e-05
0.000126005
-6.55747e-05
0.000135123
-8.15948e-05
0.000148587
-0.00010081
0.000168054
-0.000123695
0.000194143
-0.000150211
0.000226175
-0.000179495
0.000261785
-0.000209914
0.000297267
-0.000239261
0.00032818
-0.000265253
0.000350452
-0.000286056
0.00036134
-0.000300746
0.00036013
-0.000309451
0.00034809
-0.000313226
0.000327928
-0.000313669
0.000302863
-0.000312507
0.000275839
-0.000311227
0.000248984
-0.000310882
0.000223479
-0.000312033
0.00019966
-0.000314814
0.000177297
-0.000319048
0.000155858
-0.000324377
0.000134747
-0.000330376
0.000113442
-0.000336622
9.15657e-05
-0.000342741
6.88992e-05
-0.000348423
4.53663e-05
-0.000353429
2.10036e-05
-0.000357585
-4.06765e-06
-0.000360773
-2.9669e-05
-0.000362936
-5.55855e-05
-0.000364068
-8.15847e-05
-0.000364231