/*--------------------------------*- C++ -*----------------------------------*\
| =========                 |                                                 |
| \\      /  F ield         | OpenFOAM: The Open Source CFD Toolbox           |
|  \\    /   O peration     | Version:  2406                                  |
|   \\  /    A nd           | Website:  www.openfoam.com                      |
|    \\/     M anipulation  |                                                 |
\*---------------------------------------------------------------------------*/
FoamFile
{
    version     2.0;
    format      ascii;
    arch        "LSB;label=32;scalar=64";
    class       volVectorField;
    location    "6.8";
    object      U_0;
}
// * * * * * * * * * * * * * * * * * * * * * * * * * * * * * * * * * * * * * //

dimensions      [0 1 -1 0 0 0 0];

internalField   nonuniform List<vector> 
14400
(
(2.05011e-06 -2.04173e-06 0)
(4.10221e-06 -5.86874e-08 0)
(-5.028e-06 3.12348e-06 0)
(-2.63654e-05 6.16123e-06 0)
(-5.87436e-05 8.66883e-06 0)
(-0.000100094 1.06e-05 0)
(-0.00014833 1.20179e-05 0)
(-0.000201636 1.30184e-05 0)
(-0.000258541 1.36969e-05 0)
(-0.0003179 1.41347e-05 0)
(-0.000378852 1.43975e-05 0)
(-0.000440763 1.45363e-05 0)
(-0.000503181 1.459e-05 0)
(-0.000565793 1.45871e-05 0)
(-0.000628387 1.45485e-05 0)
(-0.000690827 1.44885e-05 0)
(-0.000753029 1.4417e-05 0)
(-0.000814945 1.43404e-05 0)
(-0.00087655 1.42625e-05 0)
(-0.000937834 1.41853e-05 0)
(-0.000998793 1.41095e-05 0)
(-0.00105943 1.40349e-05 0)
(-0.00111973 1.39609e-05 0)
(-0.00117971 1.38864e-05 0)
(-0.00123934 1.38103e-05 0)
(-0.00129862 1.37311e-05 0)
(-0.00135753 1.36477e-05 0)
(-0.00141605 1.35587e-05 0)
(-0.00147414 1.34629e-05 0)
(-0.00153178 1.33589e-05 0)
(-0.00158892 1.32455e-05 0)
(-0.00164552 1.31217e-05 0)
(-0.00170154 1.29861e-05 0)
(-0.00175692 1.28377e-05 0)
(-0.0018116 1.26752e-05 0)
(-0.00186551 1.24975e-05 0)
(-0.0019186 1.23035e-05 0)
(-0.00197079 1.2092e-05 0)
(-0.002022 1.18618e-05 0)
(-0.00207215 1.16118e-05 0)
(-0.00212116 1.1341e-05 0)
(-0.00216893 1.10481e-05 0)
(-0.00221537 1.07322e-05 0)
(-0.00226037 1.03921e-05 0)
(-0.00230385 1.00271e-05 0)
(-0.00234568 9.63607e-06 0)
(-0.00238576 9.21833e-06 0)
(-0.00242398 8.77313e-06 0)
(-0.00246022 8.2999e-06 0)
(-0.00249436 7.79816e-06 0)
(-0.00252629 7.26761e-06 0)
(-0.00255588 6.70809e-06 0)
(-0.00258302 6.11964e-06 0)
(-0.00260758 5.50249e-06 0)
(-0.00262945 4.85706e-06 0)
(-0.00264851 4.18403e-06 0)
(-0.00266465 3.48429e-06 0)
(-0.00267777 2.75899e-06 0)
(-0.00268776 2.00952e-06 0)
(-0.00269453 1.23752e-06 0)
(-0.00269799 4.44963e-07 0)
(-0.00269807 -3.65894e-07 0)
(-0.00269468 -1.19285e-06 0)
(-0.00268778 -2.03313e-06 0)
(-0.00267731 -2.88379e-06 0)
(-0.00266324 -3.7417e-06 0)
(-0.00264555 -4.60355e-06 0)
(-0.00262424 -5.46586e-06 0)
(-0.0025993 -6.32498e-06 0)
(-0.00257077 -7.17717e-06 0)
(-0.00253867 -8.01861e-06 0)
(-0.00250307 -8.84546e-06 0)
(-0.00246403 -9.65386e-06 0)
(-0.00242163 -1.044e-05 0)
(-0.00237598 -1.12002e-05 0)
(-0.00232719 -1.19309e-05 0)
(-0.00227539 -1.26286e-05 0)
(-0.00222072 -1.32902e-05 0)
(-0.00216333 -1.39128e-05 0)
(-0.0021034 -1.44936e-05 0)
(-0.0020411 -1.50304e-05 0)
(-0.00197661 -1.55211e-05 0)
(-0.00191013 -1.59642e-05 0)
(-0.00184185 -1.63584e-05 0)
(-0.00177197 -1.67028e-05 0)
(-0.00170071 -1.69968e-05 0)
(-0.00162827 -1.72403e-05 0)
(-0.00155486 -1.74335e-05 0)
(-0.00148068 -1.75768e-05 0)
(-0.00140594 -1.76709e-05 0)
(-0.00133083 -1.77167e-05 0)
(-0.00125557 -1.77152e-05 0)
(-0.00118034 -1.76673e-05 0)
(-0.00110532 -1.75742e-05 0)
(-0.00103072 -1.74367e-05 0)
(-0.00095671 -1.72553e-05 0)
(-0.000883478 -1.70302e-05 0)
(-0.000811209 -1.67612e-05 0)
(-0.00074009 -1.64473e-05 0)
(-0.000670315 -1.6087e-05 0)
(-0.000602089 -1.56778e-05 0)
(-0.000535627 -1.52162e-05 0)
(-0.000471164 -1.46978e-05 0)
(-0.000408956 -1.41172e-05 0)
(-0.000349284 -1.34678e-05 0)
(-0.000292459 -1.27419e-05 0)
(-0.00023883 -1.1931e-05 0)
(-0.000188777 -1.1026e-05 0)
(-0.000142723 -1.00176e-05 0)
(-0.000101124 -8.89683e-06 0)
(-6.44685e-05 -7.65653e-06 0)
(-3.32617e-05 -6.29293e-06 0)
(-8.00306e-06 -4.80921e-06 0)
(1.08532e-05 -3.22003e-06 0)
(2.29735e-05 -1.55876e-06 0)
(2.82869e-05 8.87565e-08 0)
(2.70828e-05 1.52586e-06 0)
(2.02791e-05 2.60449e-06 0)
(1.07867e-05 2.80685e-06 0)
(1.95266e-06 1.95793e-06 0)
(6.04335e-08 -4.08174e-06 0)
(-1.16019e-05 1.15073e-05 0)
(-4.92797e-05 3.64706e-05 0)
(-0.000115138 6.07983e-05 0)
(-0.000206387 8.16526e-05 0)
(-0.00031917 9.83143e-05 0)
(-0.000449158 0.000111019 0)
(-0.000592359 0.000120348 0)
(-0.000745363 0.000126959 0)
(-0.000905392 0.000131459 0)
(-0.00107026 0.000134364 0)
(-0.0012383 0.000136096 0)
(-0.00140825 0.000136988 0)
(-0.00157921 0.000137293 0)
(-0.00175053 0.0001372 0)
(-0.00192177 0.000136848 0)
(-0.00209261 0.000136333 0)
(-0.00226286 0.000135721 0)
(-0.00243238 0.000135055 0)
(-0.0026011 0.000134361 0)
(-0.00276896 0.000133649 0)
(-0.00293592 0.000132925 0)
(-0.00310194 0.000132186 0)
(-0.00326699 0.000131427 0)
(-0.00343102 0.000130638 0)
(-0.00359397 0.00012981 0)
(-0.00375579 0.000128933 0)
(-0.00391639 0.000127996 0)
(-0.0040757 0.000126988 0)
(-0.0042336 0.000125899 0)
(-0.00438999 0.000124718 0)
(-0.00454474 0.000123434 0)
(-0.00469772 0.000122038 0)
(-0.00484877 0.000120519 0)
(-0.00499774 0.000118867 0)
(-0.00514445 0.000117072 0)
(-0.00528872 0.000115124 0)
(-0.00543035 0.000113012 0)
(-0.00556913 0.000110728 0)
(-0.00570484 0.000108262 0)
(-0.00583726 0.000105603 0)
(-0.00596614 0.000102743 0)
(-0.00609123 9.9672e-05 0)
(-0.00621226 9.63828e-05 0)
(-0.00632897 9.2867e-05 0)
(-0.00644108 8.91176e-05 0)
(-0.0065483 8.5128e-05 0)
(-0.00665033 8.08929e-05 0)
(-0.00674689 7.64079e-05 0)
(-0.00683766 7.16697e-05 0)
(-0.00692235 6.66765e-05 0)
(-0.00700065 6.14278e-05 0)
(-0.00707225 5.59249e-05 0)
(-0.00713686 5.01706e-05 0)
(-0.00719418 4.41698e-05 0)
(-0.00724393 3.7929e-05 0)
(-0.00728582 3.14572e-05 0)
(-0.0073196 2.4765e-05 0)
(-0.00734502 1.78656e-05 0)
(-0.00736183 1.07741e-05 0)
(-0.00736984 3.50794e-06 0)
(-0.00736885 -3.91297e-06 0)
(-0.0073587 -1.14675e-05 0)
(-0.00733924 -1.91316e-05 0)
(-0.00731038 -2.68797e-05 0)
(-0.00727204 -3.46843e-05 0)
(-0.00722417 -4.25163e-05 0)
(-0.00716677 -5.03455e-05 0)
(-0.00709987 -5.81404e-05 0)
(-0.00702353 -6.58685e-05 0)
(-0.00693786 -7.34972e-05 0)
(-0.006843 -8.09932e-05 0)
(-0.00673914 -8.83236e-05 0)
(-0.00662649 -9.54559e-05 0)
(-0.00650531 -0.000102359 0)
(-0.00637591 -0.000109001 0)
(-0.00623859 -0.000115354 0)
(-0.00609373 -0.000121391 0)
(-0.00594172 -0.000127087 0)
(-0.00578297 -0.000132418 0)
(-0.00561793 -0.000137366 0)
(-0.00544706 -0.000141913 0)
(-0.00527084 -0.000146046 0)
(-0.00508977 -0.000149753 0)
(-0.00490436 -0.000153026 0)
(-0.00471512 -0.000155861 0)
(-0.00452257 -0.000158255 0)
(-0.00432723 -0.00016021 0)
(-0.00412962 -0.000161728 0)
(-0.00393025 -0.000162815 0)
(-0.00372964 -0.000163476 0)
(-0.00352828 -0.000163718 0)
(-0.00332667 -0.00016355 0)
(-0.0031253 -0.000162978 0)
(-0.00292465 -0.000162007 0)
(-0.0027252 -0.000160638 0)
(-0.00252744 -0.000158872 0)
(-0.00233184 -0.000156703 0)
(-0.00213892 -0.00015412 0)
(-0.00194918 -0.000151104 0)
(-0.00176319 -0.00014763 0)
(-0.00158153 -0.000143664 0)
(-0.00140482 -0.000139164 0)
(-0.00123378 -0.000134077 0)
(-0.00106917 -0.000128341 0)
(-0.000911822 -0.000121888 0)
(-0.000762681 -0.000114641 0)
(-0.000622767 -0.000106521 0)
(-0.000493194 -9.74509e-05 0)
(-0.000375156 -8.73621e-05 0)
(-0.000269902 -7.62089e-05 0)
(-0.000178695 -6.39862e-05 0)
(-0.00010274 -5.07589e-05 0)
(-4.30703e-05 -3.67079e-05 0)
(-3.74517e-07 -2.22041e-05 0)
(2.52496e-05 -7.93116e-06 0)
(3.47232e-05 4.91517e-06 0)
(3.0297e-05 1.44879e-05 0)
(1.7668e-05 1.77408e-05 0)
(2.77369e-06 1.07673e-05 0)
(-3.22188e-06 5.25086e-06 0)
(-3.74293e-05 4.94962e-05 0)
(-0.000109186 0.000107555 0)
(-0.00022057 0.000163692 0)
(-0.000366564 0.000212562 0)
(-0.000542628 0.000252497 0)
(-0.000743297 0.000283714 0)
(-0.000963369 0.000307251 0)
(-0.00119825 0.00032441 0)
(-0.00144409 0.000336476 0)
(-0.00169774 0.000344592 0)
(-0.00195675 0.000349727 0)
(-0.00221921 0.000352662 0)
(-0.00248369 0.000354012 0)
(-0.00274914 0.000354248 0)
(-0.00301479 0.00035372 0)
(-0.00328012 0.000352681 0)
(-0.00354473 0.00035131 0)
(-0.00380837 0.000349725 0)
(-0.00407085 0.000348 0)
(-0.00433203 0.000346179 0)
(-0.00459181 0.000344279 0)
(-0.0048501 0.000342303 0)
(-0.00510681 0.000340242 0)
(-0.00536183 0.000338079 0)
(-0.00561508 0.000335795 0)
(-0.00586643 0.000333365 0)
(-0.00611574 0.000330766 0)
(-0.00636288 0.000327971 0)
(-0.00660766 0.000324956 0)
(-0.00684992 0.000321695 0)
(-0.00708945 0.000318164 0)
(-0.00732603 0.000314336 0)
(-0.00755943 0.000310187 0)
(-0.00778939 0.000305692 0)
(-0.00801564 0.000300827 0)
(-0.00823789 0.000295568 0)
(-0.00845584 0.00028989 0)
(-0.00866918 0.000283769 0)
(-0.00887755 0.000277183 0)
(-0.00908062 0.000270108 0)
(-0.009278 0.000262522 0)
(-0.00946933 0.000254406 0)
(-0.0096542 0.000245738 0)
(-0.0098322 0.000236502 0)
(-0.0100029 0.00022668 0)
(-0.0101659 0.000216259 0)
(-0.0103208 0.000205227 0)
(-0.0104671 0.000193574 0)
(-0.0106043 0.000181295 0)
(-0.0107321 0.000168386 0)
(-0.0108499 0.000154849 0)
(-0.0109573 0.000140689 0)
(-0.011054 0.000125914 0)
(-0.0111394 0.000110538 0)
(-0.0112131 9.45799e-05 0)
(-0.0112749 7.80626e-05 0)
(-0.0113242 6.10146e-05 0)
(-0.0113607 4.34694e-05 0)
(-0.0113841 2.54659e-05 0)
(-0.0113941 7.04827e-06 0)
(-0.0113905 -1.17344e-05 0)
(-0.011373 -3.08278e-05 0)
(-0.0113414 -5.01732e-05 0)
(-0.0112956 -6.9707e-05 0)
(-0.0112355 -8.93618e-05 0)
(-0.0111611 -0.000109067 0)
(-0.0110724 -0.000128747 0)
(-0.0109694 -0.000148327 0)
(-0.0108522 -0.000167728 0)
(-0.0107211 -0.00018687 0)
(-0.0105762 -0.000205674 0)
(-0.0104178 -0.00022406 0)
(-0.0102463 -0.000241951 0)
(-0.010062 -0.00025927 0)
(-0.0098654 -0.000275944 0)
(-0.00965697 -0.000291905 0)
(-0.00943724 -0.000307088 0)
(-0.00920677 -0.000321433 0)
(-0.0089662 -0.000334886 0)
(-0.00871616 -0.000347401 0)
(-0.00845732 -0.000358936 0)
(-0.0081904 -0.000369459 0)
(-0.00791611 -0.000378943 0)
(-0.00763519 -0.000387369 0)
(-0.00734838 -0.000394726 0)
(-0.00705644 -0.000401007 0)
(-0.00676012 -0.000406214 0)
(-0.00646019 -0.000410353 0)
(-0.00615737 -0.000413434 0)
(-0.00585243 -0.000415471 0)
(-0.00554608 -0.000416479 0)
(-0.00523907 -0.000416472 0)
(-0.00493209 -0.000415463 0)
(-0.00462587 -0.00041346 0)
(-0.00432112 -0.000410465 0)
(-0.00401856 -0.000406471 0)
(-0.00371892 -0.000401458 0)
(-0.00342296 -0.000395394 0)
(-0.00313145 -0.000388229 0)
(-0.00284525 -0.000379893 0)
(-0.00256524 -0.000370298 0)
(-0.0022924 -0.000359331 0)
(-0.00202778 -0.000346861 0)
(-0.00177256 -0.000332732 0)
(-0.00152801 -0.000316772 0)
(-0.00129554 -0.000298796 0)
(-0.00107669 -0.000278617 0)
(-0.000873119 -0.000256058 0)
(-0.000686576 -0.000230976 0)
(-0.000518875 -0.000203292 0)
(-0.00037181 -0.000173045 0)
(-0.000247053 -0.000140454 0)
(-0.000145982 -0.000106026 0)
(-6.94475e-05 -7.07101e-05 0)
(-1.74505e-05 -3.61089e-05 0)
(1.13527e-05 -4.7759e-06 0)
(1.98702e-05 1.93458e-05 0)
(1.4665e-05 3.04526e-05 0)
(2.57813e-06 2.02074e-05 0)
(-6.51802e-06 2.75019e-05 0)
(-6.38811e-05 0.000117263 0)
(-0.000170135 0.000220131 0)
(-0.000326095 0.000317771 0)
(-0.000523477 0.000403063 0)
(-0.000756989 0.000473569 0)
(-0.00102033 0.000529517 0)
(-0.00130756 0.000572419 0)
(-0.00161334 0.000604285 0)
(-0.00193316 0.000627172 0)
(-0.00226324 0.00064297 0)
(-0.00260056 0.000653315 0)
(-0.00294273 0.000659557 0)
(-0.00328791 0.00066278 0)
(-0.00363473 0.000663826 0)
(-0.00398213 0.000663335 0)
(-0.00432937 0.000661778 0)
(-0.00467589 0.000659492 0)
(-0.00502128 0.000656708 0)
(-0.00536524 0.000653577 0)
(-0.00570756 0.000650189 0)
(-0.00604803 0.00064659 0)
(-0.00638651 0.000642793 0)
(-0.00672284 0.000638791 0)
(-0.00705687 0.00063456 0)
(-0.00738843 0.000630069 0)
(-0.00771736 0.000625278 0)
(-0.00804346 0.000620146 0)
(-0.00836652 0.00061463 0)
(-0.00868631 0.000608684 0)
(-0.00900258 0.000602264 0)
(-0.00931506 0.000595324 0)
(-0.00962345 0.000587821 0)
(-0.00992744 0.00057971 0)
(-0.0102267 0.000570946 0)
(-0.0105209 0.000561485 0)
(-0.0108095 0.000551284 0)
(-0.0110924 0.000540301 0)
(-0.0113689 0.000528492 0)
(-0.0116387 0.000515818 0)
(-0.0119013 0.000502237 0)
(-0.0121563 0.000487712 0)
(-0.0124031 0.000472207 0)
(-0.0126413 0.000455688 0)
(-0.0128702 0.000438124 0)
(-0.0130895 0.000419488 0)
(-0.0132985 0.000399757 0)
(-0.0134968 0.000378912 0)
(-0.0136836 0.000356939 0)
(-0.0138586 0.000333829 0)
(-0.0140211 0.000309581 0)
(-0.0141705 0.000284199 0)
(-0.0143064 0.000257695 0)
(-0.0144281 0.000230088 0)
(-0.0145353 0.000201407 0)
(-0.0146272 0.000171687 0)
(-0.0147036 0.000140974 0)
(-0.0147639 0.000109321 0)
(-0.0148076 7.67925e-05 0)
(-0.0148345 4.346e-05 0)
(-0.0148441 9.40553e-06 0)
(-0.0148362 -2.52804e-05 0)
(-0.0148105 -6.04982e-05 0)
(-0.0147669 -9.61404e-05 0)
(-0.014705 -0.000132092 0)
(-0.0146249 -0.000168231 0)
(-0.0145266 -0.00020443 0)
(-0.01441 -0.000240554 0)
(-0.0142753 -0.000276468 0)
(-0.0141227 -0.00031203 0)
(-0.0139523 -0.0003471 0)
(-0.0137645 -0.000381535 0)
(-0.0135596 -0.000415195 0)
(-0.0133381 -0.000447943 0)
(-0.0131005 -0.000479643 0)
(-0.0128473 -0.000510167 0)
(-0.0125791 -0.000539395 0)
(-0.0122967 -0.000567212 0)
(-0.0120007 -0.000593514 0)
(-0.0116919 -0.000618207 0)
(-0.0113711 -0.000641208 0)
(-0.0110392 -0.000662448 0)
(-0.010697 -0.000681867 0)
(-0.0103454 -0.000699419 0)
(-0.00998535 -0.000715073 0)
(-0.00961774 -0.000728805 0)
(-0.00924352 -0.000740608 0)
(-0.0088636 -0.000750482 0)
(-0.00847893 -0.000758437 0)
(-0.00809043 -0.000764489 0)
(-0.00769902 -0.00076866 0)
(-0.0073056 -0.000770974 0)
(-0.00691108 -0.000771453 0)
(-0.00651635 -0.000770116 0)
(-0.00612229 -0.000766973 0)
(-0.00572981 -0.00076202 0)
(-0.00533981 -0.000755239 0)
(-0.00495321 -0.000746588 0)
(-0.00457096 -0.000736 0)
(-0.00419408 -0.000723378 0)
(-0.00382362 -0.000708592 0)
(-0.00346072 -0.000691472 0)
(-0.00310663 -0.000671812 0)
(-0.00276269 -0.000649368 0)
(-0.00243039 -0.000623859 0)
(-0.00211135 -0.000594974 0)
(-0.00180735 -0.000562389 0)
(-0.00152031 -0.000525777 0)
(-0.0012523 -0.000484842 0)
(-0.00100547 -0.000439361 0)
(-0.000782043 -0.00038924 0)
(-0.000584172 -0.000334604 0)
(-0.000413836 -0.000275915 0)
(-0.000272638 -0.000214138 0)
(-0.000161537 -0.000150976 0)
(-8.05187e-05 -8.91744e-05 0)
(-2.81585e-05 -3.29302e-05 0)
(-1.35055e-06 1.1574e-05 0)
(6.22513e-06 3.57921e-05 0)
(1.60363e-06 2.72392e-05 0)
(-9.45524e-06 6.21645e-05 0)
(-8.82238e-05 0.000213544 0)
(-0.000226983 0.000371384 0)
(-0.000424833 0.000517641 0)
(-0.000669793 0.000644855 0)
(-0.000955542 0.000750501 0)
(-0.00127494 0.000835094 0)
(-0.00162142 0.000900721 0)
(-0.00198918 0.000950132 0)
(-0.00237325 0.000986183 0)
(-0.00276947 0.00101155 0)
(-0.00317441 0.00102857 0)
(-0.00358538 0.00103921 0)
(-0.00400022 0.00104509 0)
(-0.00441729 0.00104746 0)
(-0.00483534 0.00104729 0)
(-0.0052534 0.00104532 0)
(-0.00567079 0.00104208 0)
(-0.00608695 0.00103792 0)
(-0.00650147 0.00103311 0)
(-0.00691405 0.0010278 0)
(-0.0073244 0.00102207 0)
(-0.0077323 0.00101595 0)
(-0.00813753 0.00100944 0)
(-0.00853987 0.00100251 0)
(-0.0089391 0.000995134 0)
(-0.00933499 0.000987241 0)
(-0.00972729 0.000978776 0)
(-0.0101157 0.000969676 0)
(-0.0105 0.000959874 0)
(-0.0108798 0.000949303 0)
(-0.0112548 0.000937896 0)
(-0.0116246 0.000925584 0)
(-0.0119889 0.000912302 0)
(-0.0123472 0.000897982 0)
(-0.0126991 0.000882557 0)
(-0.0130441 0.000865963 0)
(-0.0133818 0.000848134 0)
(-0.0137117 0.000829008 0)
(-0.0140332 0.000808523 0)
(-0.0143457 0.000786621 0)
(-0.0146488 0.000763244 0)
(-0.0149419 0.000738341 0)
(-0.0152242 0.000711862 0)
(-0.0154953 0.000683763 0)
(-0.0157545 0.000654005 0)
(-0.0160012 0.000622557 0)
(-0.0162347 0.000589393 0)
(-0.0164544 0.000554495 0)
(-0.0166596 0.000517856 0)
(-0.0168497 0.000479477 0)
(-0.017024 0.000439368 0)
(-0.017182 0.000397554 0)
(-0.0173229 0.000354067 0)
(-0.0174463 0.000308955 0)
(-0.0175516 0.000262278 0)
(-0.0176381 0.000214109 0)
(-0.0177055 0.000164535 0)
(-0.0177531 0.000113656 0)
(-0.0177807 6.15867e-05 0)
(-0.0177879 8.45505e-06 0)
(-0.0177742 -4.55976e-05 0)
(-0.0177395 -0.000100417 0)
(-0.0176835 -0.000155838 0)
(-0.0176062 -0.000211684 0)
(-0.0175073 -0.000267766 0)
(-0.017387 -0.00032389 0)
(-0.0172452 -0.000379853 0)
(-0.0170822 -0.000435447 0)
(-0.0168982 -0.00049046 0)
(-0.0166934 -0.000544679 0)
(-0.0164683 -0.000597888 0)
(-0.0162232 -0.000649879 0)
(-0.0159588 -0.000700442 0)
(-0.0156756 -0.00074938 0)
(-0.0153742 -0.000796498 0)
(-0.0150554 -0.000841617 0)
(-0.01472 -0.000884568 0)
(-0.0143688 -0.000925195 0)
(-0.0140027 -0.000963361 0)
(-0.0136226 -0.000998943 0)
(-0.0132296 -0.00103184 0)
(-0.0128246 -0.00106196 0)
(-0.0124086 -0.00108923 0)
(-0.0119828 -0.00111362 0)
(-0.0115481 -0.00113509 0)
(-0.0111056 -0.00115363 0)
(-0.0106564 -0.00116923 0)
(-0.0102016 -0.00118192 0)
(-0.00974222 -0.0011917 0)
(-0.00927929 -0.00119863 0)
(-0.00881387 -0.00120272 0)
(-0.008347 -0.00120401 0)
(-0.0078797 -0.00120252 0)
(-0.00741299 -0.00119826 0)
(-0.00694792 -0.00119122 0)
(-0.00648552 -0.00118137 0)
(-0.00602687 -0.00116862 0)
(-0.00557308 -0.00115287 0)
(-0.00512532 -0.00113397 0)
(-0.00468482 -0.00111171 0)
(-0.00425292 -0.00108582 0)
(-0.00383107 -0.00105598 0)
(-0.00342083 -0.00102182 0)
(-0.00302392 -0.000982909 0)
(-0.00264223 -0.000938782 0)
(-0.0022778 -0.000888953 0)
(-0.00193285 -0.000832947 0)
(-0.00160971 -0.000770344 0)
(-0.00131083 -0.000700847 0)
(-0.0010387 -0.000624368 0)
(-0.000795716 -0.000541161 0)
(-0.000584072 -0.000451984 0)
(-0.000405525 -0.000358333 0)
(-0.000261153 -0.000262731 0)
(-0.000151044 -0.000169112 0)
(-7.3918e-05 -8.32794e-05 0)
(-2.67605e-05 -1.34392e-05 0)
(-4.22291e-06 2.9377e-05 0)
(4.34702e-07 2.94498e-05 0)
(-1.19688e-05 0.000107813 0)
(-0.000109609 0.000335953 0)
(-0.00027777 0.000558795 0)
(-0.000513815 0.000760465 0)
(-0.000802102 0.000934458 0)
(-0.00113507 0.00107896 0)
(-0.00150463 0.00119521 0)
(-0.00190364 0.00128607 0)
(-0.00232587 0.00135514 0)
(-0.00276605 0.00140613 0)
(-0.00321973 0.00144251 0)
(-0.00368325 0.00146736 0)
(-0.00415368 0.00148331 0)
(-0.00462867 0.00149249 0)
(-0.00510637 0.00149663 0)
(-0.00558537 0.00149706 0)
(-0.00606456 0.00149479 0)
(-0.0065431 0.00149056 0)
(-0.00702034 0.00148491 0)
(-0.00749578 0.00147818 0)
(-0.007969 0.00147062 0)
(-0.00843965 0.00146235 0)
(-0.00890744 0.00145344 0)
(-0.00937207 0.00144389 0)
(-0.00983327 0.00143368 0)
(-0.0102908 0.00142275 0)
(-0.0107442 0.00141104 0)
(-0.0111934 0.00139847 0)
(-0.0116379 0.00138495 0)
(-0.0120775 0.0013704 0)
(-0.0125116 0.00135472 0)
(-0.01294 0.00133782 0)
(-0.0133622 0.00131961 0)
(-0.0137778 0.0013 0)
(-0.0141862 0.00127889 0)
(-0.014587 0.00125619 0)
(-0.0149796 0.00123182 0)
(-0.0153636 0.00120569 0)
(-0.0157382 0.00117771 0)
(-0.016103 0.00114779 0)
(-0.0164573 0.00111586 0)
(-0.0168004 0.00108185 0)
(-0.0171317 0.00104568 0)
(-0.0174506 0.00100728 0)
(-0.0177562 0.000966609 0)
(-0.018048 0.000923607 0)
(-0.0183252 0.000878236 0)
(-0.0185872 0.000830465 0)
(-0.0188331 0.000780278 0)
(-0.0190623 0.000727666 0)
(-0.019274 0.000672638 0)
(-0.0194676 0.000615216 0)
(-0.0196424 0.000555437 0)
(-0.0197977 0.000493354 0)
(-0.0199328 0.00042904 0)
(-0.0200472 0.000362583 0)
(-0.0201403 0.000294091 0)
(-0.0202115 0.000223689 0)
(-0.0202604 0.000151524 0)
(-0.0202864 7.77571e-05 0)
(-0.0202892 2.57211e-06 0)
(-0.0202686 -7.38315e-05 0)
(-0.0202241 -0.000151237 0)
(-0.0201557 -0.000229411 0)
(-0.0200632 -0.000308106 0)
(-0.0199465 -0.000387062 0)
(-0.0198057 -0.000466008 0)
(-0.0196409 -0.000544662 0)
(-0.0194523 -0.000622736 0)
(-0.0192402 -0.00069994 0)
(-0.0190049 -0.000775979 0)
(-0.0187469 -0.00085056 0)
(-0.0184667 -0.000923395 0)
(-0.0181649 -0.000994202 0)
(-0.0178421 -0.00106271 0)
(-0.0174993 -0.00112865 0)
(-0.0171371 -0.00119179 0)
(-0.0167564 -0.00125189 0)
(-0.0163583 -0.00130874 0)
(-0.0159436 -0.00136217 0)
(-0.0155135 -0.00141199 0)
(-0.015069 -0.00145809 0)
(-0.0146113 -0.00150034 0)
(-0.0141414 -0.00153865 0)
(-0.0136605 -0.00157295 0)
(-0.0131699 -0.00160322 0)
(-0.0126706 -0.00162943 0)
(-0.0121639 -0.00165158 0)
(-0.0116509 -0.0016697 0)
(-0.0111328 -0.0016838 0)
(-0.0106107 -0.00169395 0)
(-0.0100858 -0.00170017 0)
(-0.00955924 -0.0017025 0)
(-0.00903212 -0.00170098 0)
(-0.00850558 -0.0016956 0)
(-0.00798076 -0.00168635 0)
(-0.00745881 -0.00167316 0)
(-0.00694091 -0.00165593 0)
(-0.00642829 -0.0016345 0)
(-0.00592224 -0.00160865 0)
(-0.00542414 -0.00157807 0)
(-0.00493546 -0.00154241 0)
(-0.00445778 -0.00150121 0)
(-0.00399284 -0.00145395 0)
(-0.00354254 -0.00140005 0)
(-0.00310893 -0.00133887 0)
(-0.00269424 -0.00126975 0)
(-0.00230089 -0.00119206 0)
(-0.0019314 -0.00110527 0)
(-0.00158841 -0.00100901 0)
(-0.00127459 -0.000903216 0)
(-0.000992499 -0.00078829 0)
(-0.000744473 -0.000665319 0)
(-0.00053241 -0.000536349 0)
(-0.000357534 -0.000404733 0)
(-0.000220119 -0.000275551 0)
(-0.000119179 -0.000156086 0)
(-5.20308e-05 -5.63398e-05 0)
(-1.46879e-05 1.05361e-05 0)
(-7.93086e-07 2.65793e-05 0)
(-1.40859e-05 0.000162898 0)
(-0.00012801 0.000481421 0)
(-0.000322137 0.000778653 0)
(-0.000592281 0.00104208 0)
(-0.000919435 0.00126719 0)
(-0.00129472 0.00145364 0)
(-0.00170903 0.00160386 0)
(-0.0021546 0.00172179 0)
(-0.00262481 0.00181203 0)
(-0.0031141 0.0018792 0)
(-0.00361785 0.00192763 0)
(-0.00413221 0.00196116 0)
(-0.00465411 0.00198307 0)
(-0.00518105 0.00199607 0)
(-0.00571106 0.00200233 0)
(-0.0062426 0.00200356 0)
(-0.00677446 0.00200108 0)
(-0.00730568 0.00199584 0)
(-0.00783553 0.00198856 0)
(-0.00836341 0.00197971 0)
(-0.00888883 0.0019696 0)
(-0.00941137 0.00195844 0)
(-0.00993066 0.0019463 0)
(-0.0104464 0.00193322 0)
(-0.0109581 0.00191916 0)
(-0.0114656 0.00190408 0)
(-0.0119685 0.00188789 0)
(-0.0124663 0.00187048 0)
(-0.0129589 0.00185177 0)
(-0.0134456 0.00183162 0)
(-0.0139261 0.00180993 0)
(-0.0144 0.00178658 0)
(-0.0148667 0.00176146 0)
(-0.0153258 0.00173443 0)
(-0.0157766 0.00170539 0)
(-0.0162187 0.00167421 0)
(-0.0166515 0.00164078 0)
(-0.0170743 0.001605 0)
(-0.0174864 0.00156674 0)
(-0.0178874 0.00152591 0)
(-0.0182763 0.0014824 0)
(-0.0186526 0.00143613 0)
(-0.0190156 0.00138699 0)
(-0.0193644 0.00133491 0)
(-0.0196983 0.00127983 0)
(-0.0200166 0.00122168 0)
(-0.0203185 0.00116041 0)
(-0.0206031 0.001096 0)
(-0.0208699 0.00102842 0)
(-0.0211179 0.00095768 0)
(-0.0213464 0.000883789 0)
(-0.0215547 0.000806785 0)
(-0.021742 0.000726725 0)
(-0.0219076 0.000643686 0)
(-0.0220509 0.00055777 0)
(-0.0221711 0.000469099 0)
(-0.0222678 0.000377821 0)
(-0.0223403 0.000284107 0)
(-0.0223882 0.000188154 0)
(-0.0224109 9.01808e-05 0)
(-0.0224082 -9.5698e-06 0)
(-0.0223796 -0.000110832 0)
(-0.0223249 -0.000213319 0)
(-0.0222439 -0.000316724 0)
(-0.0221366 -0.000420721 0)
(-0.022003 -0.000524969 0)
(-0.021843 -0.000629114 0)
(-0.0216569 -0.000732791 0)
(-0.0214449 -0.000835624 0)
(-0.0212074 -0.000937237 0)
(-0.0209447 -0.00103725 0)
(-0.0206574 -0.00113528 0)
(-0.0203461 -0.00123097 0)
(-0.0200114 -0.00132394 0)
(-0.0196541 -0.00141385 0)
(-0.0192751 -0.00150036 0)
(-0.0188752 -0.00158316 0)
(-0.0184555 -0.00166197 0)
(-0.018017 -0.00173651 0)
(-0.0175608 -0.00180656 0)
(-0.0170879 -0.0018719 0)
(-0.0165997 -0.00193235 0)
(-0.0160972 -0.00198778 0)
(-0.0155817 -0.00203808 0)
(-0.0150546 -0.00208316 0)
(-0.0145169 -0.00212298 0)
(-0.0139701 -0.00215753 0)
(-0.0134153 -0.00218679 0)
(-0.0128538 -0.00221081 0)
(-0.0122869 -0.00222962 0)
(-0.0117158 -0.00224327 0)
(-0.0111418 -0.00225182 0)
(-0.0105659 -0.0022553 0)
(-0.00998956 -0.00225376 0)
(-0.00941385 -0.00224718 0)
(-0.00884002 -0.00223555 0)
(-0.00826929 -0.00221877 0)
(-0.00770295 -0.0021967 0)
(-0.00714229 -0.00216913 0)
(-0.00658871 -0.00213575 0)
(-0.00604365 -0.00209619 0)
(-0.0055087 -0.00204995 0)
(-0.00498556 -0.00199645 0)
(-0.00447605 -0.00193502 0)
(-0.0039822 -0.0018649 0)
(-0.00350617 -0.00178529 0)
(-0.00305033 -0.00169536 0)
(-0.00261719 -0.00159432 0)
(-0.00220942 -0.00148151 0)
(-0.00182977 -0.00135651 0)
(-0.00148101 -0.00121928 0)
(-0.00116583 -0.00107039 0)
(-0.00088667 -0.000911244 0)
(-0.000645561 -0.000744436 0)
(-0.000443897 -0.000574103 0)
(-0.000282202 -0.00040638 0)
(-0.000159866 -0.000249876 0)
(-7.466e-05 -0.000116143 0)
(-2.39651e-05 -2.00269e-05 0)
(-1.86285e-06 1.90444e-05 0)
(-1.58619e-05 0.000225998 0)
(-0.000143698 0.000646901 0)
(-0.000360432 0.0010271 0)
(-0.00066058 0.00135817 0)
(-0.00102217 0.00163837 0)
(-0.00143503 0.00186948 0)
(-0.00188905 0.00205557 0)
(-0.00237579 0.00220198 0)
(-0.00288823 0.00231445 0)
(-0.00342057 0.00239867 0)
(-0.00396798 0.00245985 0)
(-0.00452653 0.00250263 0)
(-0.00509302 0.00253096 0)
(-0.00566486 0.00254811 0)
(-0.00624 0.00255673 0)
(-0.00681681 0.0025589 0)
(-0.00739399 0.00255625 0)
(-0.00797053 0.00254997 0)
(-0.00854561 0.00254093 0)
(-0.00911855 0.00252975 0)
(-0.00968881 0.00251684 0)
(-0.0102559 0.00250244 0)
(-0.0108194 0.00248669 0)
(-0.0113789 0.00246962 0)
(-0.011934 0.00245121 0)
(-0.0124843 0.00243141 0)
(-0.0130294 0.00241011 0)
(-0.0135689 0.0023872 0)
(-0.0141024 0.00236256 0)
(-0.0146294 0.00233605 0)
(-0.0151494 0.00230752 0)
(-0.0156619 0.00227683 0)
(-0.0161664 0.00224384 0)
(-0.0166623 0.00220841 0)
(-0.017149 0.00217037 0)
(-0.017626 0.0021296 0)
(-0.0180925 0.00208595 0)
(-0.0185479 0.00203929 0)
(-0.0189915 0.00198947 0)
(-0.0194225 0.00193637 0)
(-0.0198403 0.00187987 0)
(-0.0202441 0.00181986 0)
(-0.0206331 0.00175623 0)
(-0.0210065 0.00168888 0)
(-0.0213635 0.00161775 0)
(-0.0217033 0.00154274 0)
(-0.022025 0.00146383 0)
(-0.0223279 0.00138097 0)
(-0.0226111 0.00129415 0)
(-0.0228738 0.00120337 0)
(-0.0231152 0.00110867 0)
(-0.0233345 0.0010101 0)
(-0.0235309 0.000907732 0)
(-0.0237038 0.000801681 0)
(-0.0238524 0.00069208 0)
(-0.0239761 0.000579089 0)
(-0.0240741 0.000462903 0)
(-0.0241461 0.000343743 0)
(-0.0241914 0.000221862 0)
(-0.0242095 9.7541e-05 0)
(-0.0242002 -2.89107e-05 0)
(-0.0241631 -0.000157155 0)
(-0.024098 -0.00028683 0)
(-0.0240047 -0.000417547 0)
(-0.0238831 -0.000548897 0)
(-0.0237333 -0.000680454 0)
(-0.0235554 -0.000811772 0)
(-0.0233495 -0.000942396 0)
(-0.023116 -0.00107186 0)
(-0.0228553 -0.00119969 0)
(-0.0225678 -0.00132543 0)
(-0.0222541 -0.0014486 0)
(-0.0219149 -0.00156874 0)
(-0.021551 -0.00168541 0)
(-0.0211631 -0.00179817 0)
(-0.0207522 -0.00190663 0)
(-0.0203194 -0.00201039 0)
(-0.0198655 -0.0021091 0)
(-0.0193919 -0.00220245 0)
(-0.0188995 -0.00229013 0)
(-0.0183898 -0.00237191 0)
(-0.0178638 -0.00244757 0)
(-0.017323 -0.00251695 0)
(-0.0167686 -0.0025799 0)
(-0.016202 -0.00263634 0)
(-0.0156245 -0.00268622 0)
(-0.0150374 -0.00272951 0)
(-0.0144422 -0.00276623 0)
(-0.01384 -0.00279641 0)
(-0.0132323 -0.0028201 0)
(-0.0126203 -0.00283736 0)
(-0.0120054 -0.00284827 0)
(-0.0113888 -0.00285287 0)
(-0.0107718 -0.0028512 0)
(-0.0101556 -0.00284326 0)
(-0.0095416 -0.002829 0)
(-0.00893101 -0.00280832 0)
(-0.00832518 -0.00278103 0)
(-0.00772547 -0.00274686 0)
(-0.00713334 -0.00270543 0)
(-0.0065503 -0.00265625 0)
(-0.005978 -0.00259874 0)
(-0.00541819 -0.00253216 0)
(-0.00487279 -0.0024557 0)
(-0.00434387 -0.00236841 0)
(-0.00383367 -0.00226932 0)
(-0.00334464 -0.00215743 0)
(-0.00287934 -0.0020318 0)
(-0.00244053 -0.00189164 0)
(-0.00203102 -0.00173647 0)
(-0.00165365 -0.00156629 0)
(-0.00131119 -0.00138182 0)
(-0.00100618 -0.00118477 0)
(-0.00074077 -0.00097825 0)
(-0.000516546 -0.000767107 0)
(-0.000334303 -0.000558428 0)
(-0.000193832 -0.000361983 0)
(-9.33774e-05 -0.000190647 0)
(-3.15129e-05 -6.06451e-05 0)
(-2.7049e-06 7.55242e-06 0)
(-1.73535e-05 0.000295875 0)
(-0.000157026 0.000829593 0)
(-0.000393273 0.00130044 0)
(-0.000719561 0.00170454 0)
(-0.00111137 0.00204351 0)
(-0.00155734 0.00232172 0)
(-0.00204637 0.00254533 0)
(-0.00256938 0.00272132 0)
(-0.00311893 0.00285683 0)
(-0.00368896 0.00295868 0)
(-0.00427448 0.00303308 0)
(-0.00487145 0.00308546 0)
(-0.00547658 0.00312048 0)
(-0.00608724 0.00314198 0)
(-0.00670132 0.00315309 0)
(-0.00731712 0.00315627 0)
(-0.00793331 0.00315345 0)
(-0.00854879 0.00314605 0)
(-0.00916271 0.00313513 0)
(-0.00977433 0.00312144 0)
(-0.0103831 0.00310547 0)
(-0.0109883 0.00308754 0)
(-0.0115897 0.0030678 0)
(-0.0121867 0.00304633 0)
(-0.0127789 0.0030231 0)
(-0.0133658 0.00299806 0)
(-0.013947 0.0029711 0)
(-0.0145221 0.00294207 0)
(-0.0150905 0.00291085 0)
(-0.0156518 0.00287725 0)
(-0.0162054 0.00284113 0)
(-0.0167508 0.0028023 0)
(-0.0172874 0.00276059 0)
(-0.0178145 0.00271583 0)
(-0.0183316 0.00266786 0)
(-0.0188379 0.00261648 0)
(-0.0193329 0.00256155 0)
(-0.0198157 0.00250289 0)
(-0.0202856 0.00244035 0)
(-0.0207419 0.00237377 0)
(-0.0211838 0.00230302 0)
(-0.0216104 0.00222796 0)
(-0.022021 0.00214846 0)
(-0.0224146 0.00206443 0)
(-0.0227905 0.00197578 0)
(-0.0231478 0.00188242 0)
(-0.0234856 0.0017843 0)
(-0.023803 0.00168139 0)
(-0.0240993 0.00157368 0)
(-0.0243735 0.0014612 0)
(-0.0246248 0.00134397 0)
(-0.0248524 0.00122209 0)
(-0.0250555 0.00109565 0)
(-0.0252333 0.000964793 0)
(-0.0253852 0.000829691 0)
(-0.0255104 0.000690552 0)
(-0.0256084 0.000547617 0)
(-0.0256785 0.000401165 0)
(-0.0257202 0.000251509 0)
(-0.0257331 9.89965e-05 0)
(-0.0257168 -5.59898e-05 0)
(-0.025671 -0.000213035 0)
(-0.0255954 -0.000371696 0)
(-0.0254901 -0.000531498 0)
(-0.0253548 -0.000691944 0)
(-0.0251897 -0.000852513 0)
(-0.0249949 -0.00101267 0)
(-0.0247707 -0.00117186 0)
(-0.0245173 -0.00132952 0)
(-0.0242353 -0.00148508 0)
(-0.0239252 -0.00163799 0)
(-0.0235876 -0.00178767 0)
(-0.0232233 -0.00193359 0)
(-0.022833 -0.0020752 0)
(-0.0224178 -0.00221199 0)
(-0.0219785 -0.00234348 0)
(-0.0215162 -0.00246921 0)
(-0.0210321 -0.00258876 0)
(-0.0205274 -0.00270175 0)
(-0.0200034 -0.00280784 0)
(-0.0194612 -0.00290675 0)
(-0.0189024 -0.00299822 0)
(-0.0183282 -0.00308205 0)
(-0.0177401 -0.0031581 0)
(-0.0171394 -0.00322626 0)
(-0.0165276 -0.00328648 0)
(-0.0159061 -0.00333873 0)
(-0.0152762 -0.00338304 0)
(-0.0146395 -0.00341945 0)
(-0.0139973 -0.00344802 0)
(-0.0133509 -0.00346885 0)
(-0.0127018 -0.00348199 0)
(-0.0120511 -0.00348753 0)
(-0.0114004 -0.00348551 0)