/*--------------------------------*- C++ -*----------------------------------*\
| =========                 |                                                 |
| \\      /  F ield         | OpenFOAM: The Open Source CFD Toolbox           |
|  \\    /   O peration     | Version:  2406                                  |
|   \\  /    A nd           | Website:  www.openfoam.com                      |
|    \\/     M anipulation  |                                                 |
\*---------------------------------------------------------------------------*/
FoamFile
{
    version     2.0;
    format      ascii;
    arch        "LSB;label=32;scalar=64";
    class       volScalarField;
    location    "0.15";
    object      p;
}
// * * * * * * * * * * * * * * * * * * * * * * * * * * * * * * * * * * * * * //

dimensions      [0 2 -2 0 0 0 0];

internalField   nonuniform List<scalar> 
14400
(
-1.43045e-10
-2.85022e-07
1.06899e-06
5.01693e-06
1.1443e-05
2.03524e-05
3.17507e-05
4.56295e-05
6.19779e-05
8.07841e-05
0.000102034
0.000125714
0.000151805
0.00018029
0.000211147
0.000244356
0.000279891
0.000317728
0.00035784
0.000400199
0.000444773
0.000491532
0.000540442
0.000591468
0.000644574
0.000699723
0.000756875
0.000815989
0.000877025
0.000939938
0.00100468
0.00107122
0.00113949
0.00120946
0.00128107
0.00135427
0.00142901
0.00150524
0.00158291
0.00166195
0.00174232
0.00182395
0.0019068
0.00199079
0.00207588
0.002162
0.0022491
0.0023371
0.00242596
0.0025156
0.00260596
0.00269698
0.0027886
0.00288075
0.00297337
0.00306639
0.00315974
0.00325336
0.00334719
0.00344115
0.00353519
0.00362922
0.0037232
0.00381704
0.00391069
0.00400407
0.00409713
0.00418978
0.00428198
0.00437365
0.00446472
0.00455513
0.00464481
0.00473371
0.00482175
0.00490887
0.00499502
0.00508011
0.0051641
0.00524693
0.00532852
0.00540883
0.00548778
0.00556534
0.00564142
0.00571599
0.00578899
0.00586035
0.00593003
0.00599798
0.00606414
0.00612846
0.0061909
0.00625141
0.00630994
0.00636645
0.0064209
0.00647324
0.00652343
0.00657144
0.00661723
0.00666076
0.006702
0.00674092
0.00677749
0.00681168
0.00684346
0.00687281
0.0068997
0.00692412
0.00694605
0.00696546
0.00698235
0.00699669
0.00700849
0.00701772
0.00702439
0.00702851
0.00702997
0.00702972
2.8574e-07
5.47008e-11
1.22547e-06
5.15703e-06
1.15817e-05
2.04886e-05
3.18847e-05
4.57619e-05
6.21085e-05
8.09126e-05
0.000102161
0.000125838
0.000151927
0.000180409
0.000211264
0.000244469
0.000280002
0.000317836
0.000357946
0.000400301
0.000444872
0.000491628
0.000540535
0.000591558
0.000644661
0.000699806
0.000756955
0.000816066
0.000877098
0.000940008
0.00100475
0.00107128
0.00113955
0.00120951
0.00128112
0.00135432
0.00142906
0.00150528
0.00158294
0.00166198
0.00174235
0.00182398
0.00190682
0.00199081
0.0020759
0.00216202
0.00224911
0.00233711
0.00242596
0.0025156
0.00260596
0.00269698
0.0027886
0.00288074
0.00297336
0.00306637
0.00315972
0.00325334
0.00334717
0.00344113
0.00353516
0.00362919
0.00372317
0.00381701
0.00391065
0.00400404
0.00409709
0.00418974
0.00428194
0.0043736
0.00446467
0.00455508
0.00464476
0.00473366
0.0048217
0.00490882
0.00499496
0.00508006
0.00516404
0.00524687
0.00532846
0.00540876
0.00548772
0.00556527
0.00564136
0.00571593
0.00578892
0.00586028
0.00592996
0.00599791
0.00606407
0.00612839
0.00619083
0.00625134
0.00630987
0.00636638
0.00642082
0.00647316
0.00652335
0.00657136
0.00661715
0.00666068
0.00670192
0.00674084
0.0067774
0.00681159
0.00684337
0.00687272
0.00689961
0.00692403
0.00694595
0.00696537
0.00698225
0.0069966
0.00700839
0.00701762
0.00702429
0.0070284
0.00702972
0.00702947
-1.07343e-06
-1.23294e-06
-9.00188e-09
3.95354e-06
1.03897e-05
1.93022e-05
3.07022e-05
4.45833e-05
6.0934e-05
7.97429e-05
0.000100997
0.00012468
0.000150776
0.000179265
0.000210129
0.000243344
0.000278887
0.000316732
0.000356853
0.000399221
0.000443805
0.000490575
0.000539496
0.000590535
0.000643654
0.000698817
0.000755983
0.000815113
0.000876164
0.000939094
0.00100386
0.00107041
0.0011387
0.00120869
0.00128032
0.00135354
0.0014283
0.00150455
0.00158224
0.0016613
0.00174169
0.00182335
0.00190622
0.00199024
0.00207536
0.0021615
0.00224862
0.00233666
0.00242554
0.0025152
0.0026056
0.00269665
0.0027883
0.00288048
0.00297312
0.00306617
0.00315955
0.00325321
0.00334706
0.00344106
0.00353512
0.00362919
0.00372319
0.00381707
0.00391075
0.00400416
0.00409725
0.00418994
0.00428217
0.00437386
0.00446497
0.00455541
0.00464513
0.00473405
0.00482213
0.00490928
0.00499545
0.00508058
0.0051646
0.00524745
0.00532908
0.00540941
0.0054884
0.00556598
0.0056421
0.00571669
0.00578971
0.00586111
0.00593081
0.00599878
0.00606497
0.00612932
0.00619178
0.00625231
0.00631087
0.0063674
0.00642187
0.00647422
0.00652444
0.00657246
0.00661827
0.00666182
0.00670307
0.00674201
0.00677859
0.00681279
0.00684458
0.00687394
0.00690084
0.00692527
0.0069472
0.00696662
0.00698351
0.00699786
0.00700966
0.0070189
0.00702558
0.00702972
0.00703104
0.00703092
-5.03728e-06
-5.18306e-06
-3.99096e-06
-2.55405e-08
6.41745e-06
1.53398e-05
2.67521e-05
4.0648e-05
5.70161e-05
7.58449e-05
9.71212e-05
0.00012083
0.000146954
0.000175474
0.000206371
0.000239622
0.000275204
0.00031309
0.000353255
0.000395669
0.000440303
0.000487124
0.000536099
0.000587194
0.000640372
0.000695595
0.000752824
0.000812019
0.000873138
0.000936138
0.00100097
0.0010676
0.00113597
0.00120603
0.00127774
0.00135104
0.00142589
0.00150222
0.00158
0.00165915
0.00173963
0.00182138
0.00190434
0.00198846
0.00207367
0.00215991
0.00224713
0.00233526
0.00242424
0.00251401
0.0026045
0.00269565
0.00278741
0.00287969
0.00297244
0.00306559
0.00315908
0.00325284
0.0033468
0.00344091
0.00353508
0.00362925
0.00372337
0.00381735
0.00391114
0.00400466
0.00409785
0.00419065
0.00428298
0.00437479
0.004466
0.00455654
0.00464637
0.0047354
0.00482357
0.00491083
0.00499711
0.00508233
0.00516645
0.00524941
0.00533113
0.00541156
0.00549064
0.00556831
0.00564452
0.00571921
0.00579232
0.00586379
0.00593359
0.00600164
0.00606791
0.00613233
0.00619487
0.00625548
0.00631411
0.00637071
0.00642524
0.00647766
0.00652794
0.00657602
0.00662189
0.00666549
0.00670679
0.00674578
0.0067824
0.00681664
0.00684848
0.00687787
0.00690481
0.00692927
0.00695122
0.00697067
0.00698758
0.00700195
0.00701376
0.00702301
0.0070297
0.00703385
0.00703513
0.00703503
-1.14968e-05
-1.16443e-05
-1.0463e-05
-6.49312e-06
-3.98973e-08
8.89791e-06
2.03303e-05
3.42507e-05
5.06477e-05
6.95099e-05
9.08241e-05
0.000114575
0.000140745
0.000169317
0.000200269
0.00023358
0.000269226
0.00030718
0.000347418
0.000389908
0.000434623
0.000481528
0.000530592
0.000581779
0.000635053
0.000690377
0.00074771
0.000807012
0.000868242
0.000931355
0.000996308
0.00106305
0.00113155
0.00120174
0.00127357
0.00134701
0.00142199
0.00149847
0.00157638
0.00165568
0.0017363
0.0018182
0.00190131
0.00198558
0.00207095
0.00215735
0.00224472
0.00233301
0.00242216
0.00251209
0.00260275
0.00269407
0.00278599
0.00287844
0.00297136
0.00306468
0.00315834
0.00325228
0.00334641
0.00344069
0.00353503
0.00362938
0.00372367
0.00381782
0.00391178
0.00400548
0.00409885
0.00419182
0.00428432
0.0043763
0.00446768
0.0045584
0.00464839
0.00473759
0.00482593
0.00491335
0.00499979
0.00508518
0.00516946
0.00525257
0.00533445
0.00541504
0.00549427
0.00557209
0.00564845
0.00572328
0.00579653
0.00586815
0.00593808
0.00600626
0.00607266
0.00613721
0.00619988
0.0062606
0.00631934
0.00637606
0.0064307
0.00648323
0.0065336
0.00658178
0.00662774
0.00667142
0.00671281
0.00675187
0.00678857
0.00682288
0.00685478
0.00688423
0.00691122
0.00693573
0.00695773
0.00697722
0.00699416
0.00700856
0.0070204
0.00702966
0.00703637
0.00704052
0.0070418
0.00704169
-2.04667e-05
-2.06151e-05
-1.9437e-05
-1.54601e-05
-8.99265e-06
-3.36318e-08
1.14266e-05
2.53812e-05
4.18188e-05
6.07279e-05
8.20951e-05
0.000105905
0.000132141
0.000160784
0.000191814
0.000225208
0.000260943
0.000298994
0.000339332
0.00038193
0.000426756
0.00047378
0.000522967
0.000574283
0.000627692
0.000683154
0.000740632
0.000800083
0.000861467
0.000924739
0.000989856
0.00105677
0.00112543
0.0011958
0.00126782
0.00134144
0.00141661
0.00149328
0.00157139
0.00165088
0.00173171
0.00181382
0.00189714
0.00198162
0.0020672
0.00215381
0.00224141
0.00232992
0.00241929
0.00250945
0.00260034
0.00269189
0.00278404
0.00287672
0.00296988
0.00306344
0.00315734
0.00325151
0.00334588
0.00344039
0.00353498
0.00362957
0.0037241
0.00381849
0.00391269
0.00400663
0.00410024
0.00419345
0.00428619
0.0043784
0.00447002
0.00456097
0.0046512
0.00474063
0.0048292
0.00491685
0.00500352
0.00508913
0.00517363
0.00525696
0.00533906
0.00541986
0.0054993
0.00557733
0.00565389
0.00572892
0.00580237
0.00587418
0.00594429
0.00601266
0.00607924
0.00614397
0.0062068
0.00626769
0.00632659
0.00638346
0.00643825
0.00649092
0.00654144
0.00658975
0.00663583
0.00667964
0.00672114
0.00676031
0.00679711
0.00683152
0.0068635
0.00689303
0.0069201
0.00694467
0.00696674
0.00698627
0.00700327
0.0070177
0.00702957
0.00703886
0.00704559
0.00704974
0.00705102
0.00705091
-3.19655e-05
-3.21153e-05
-3.09373e-05
-2.695e-05
-2.04637e-05
-1.14772e-05
1.88477e-08
1.40177e-05
3.05076e-05
4.9477e-05
7.09127e-05
9.47992e-05
0.000121119
0.000149855
0.000180984
0.000214486
0.000250337
0.00028851
0.000328978
0.000371713
0.000416684
0.00046386
0.000513206
0.000564688
0.000618268
0.00067391
0.000731572
0.000791216
0.000852797
0.000916274
0.000981599
0.00104873
0.00111761
0.00118821
0.00126046
0.00133432
0.00140973
0.00148664
0.001565
0.00164475
0.00172584
0.00180821
0.0018918
0.00197655
0.0020624
0.0021493
0.00223718
0.00232598
0.00241563
0.00250608
0.00259726
0.0026891
0.00278155
0.00287454
0.00296799
0.00306185
0.00315606
0.00325053
0.00334521
0.00344003
0.00353492
0.00362982
0.00372465
0.00381936
0.00391387
0.00400811
0.00410202
0.00419554
0.00428859
0.0043811
0.00447302
0.00456428
0.0046548
0.00474453
0.0048334
0.00492134
0.00500829
0.00509419
0.00517898
0.00526259
0.00534496
0.00542603
0.00550574
0.00558403
0.00566085
0.00573614
0.00580984
0.00588189
0.00595225
0.00602085
0.00608766
0.00615261
0.00621566
0.00627676
0.00633587
0.00639293
0.00644792
0.00650077
0.00655146
0.00659994
0.00664618
0.00669015
0.0067318
0.0067711
0.00680803
0.00684256
0.00687465
0.0069043
0.00693146
0.00695612
0.00697826
0.00699786
0.00701492
0.00702941
0.00704132
0.00705064
0.00705738
0.00706155
0.00706283
0.00706272
-4.60015e-05
-4.61536e-05
-4.49738e-05
-4.0973e-05
-3.4463e-05
-2.54426e-05
-1.39024e-05
1.50585e-07
1.67046e-05
3.57482e-05
5.72677e-05
8.12478e-05
0.000107671
0.000136519
0.000167772
0.000201405
0.000237396
0.00027572
0.000316347
0.000359251
0.000404399
0.00045176
0.0005013
0.000552984
0.000606775
0.000662635
0.000720525
0.000780402
0.000842226
0.000905951
0.000971533
0.00103893
0.00110808
0.00117895
0.00125148
0.00132563
0.00140134
0.00147855
0.00155722
0.00163728
0.00171869
0.00180138
0.0018853
0.00197038
0.00205657
0.0021438
0.00223203
0.00232117
0.00241117
0.00250198
0.00259351
0.00268572
0.00277853
0.00287188
0.0029657
0.00305993
0.0031545
0.00324935
0.0033444
0.00343959
0.00353486
0.00363013
0.00372534
0.00382042
0.0039153
0.00400992
0.00410421
0.0041981
0.00429152
0.0043844
0.00447669
0.00456831
0.0046592
0.00474929
0.00483851
0.00492681
0.00501411
0.00510036
0.00518549
0.00526944
0.00535215
0.00543355
0.00551359
0.00559221
0.00566935
0.00574494
0.00581895
0.0058913
0.00596195
0.00603084
0.00609793
0.00616315
0.00622647
0.00628782
0.00634718
0.00640449
0.0064597
0.00651278
0.00656368
0.00661237
0.00665881
0.00670296
0.00674479
0.00678426
0.00682135
0.00685603
0.00688826
0.00691803
0.0069453
0.00697007
0.00699231
0.007012
0.00702912
0.00704367
0.00705563
0.007065
0.00707177
0.00707596
0.00707724
0.00707713
-6.25837e-05
-6.27381e-05
-6.15551e-05
-5.75377e-05
-5.09991e-05
-4.19383e-05
-3.03457e-05
-1.62284e-05
4.01725e-07
1.95331e-05
4.1152e-05
6.5243e-05
9.17889e-05
0.000120771
0.000152168
0.000185957
0.000222115
0.000260616
0.000301433
0.000344535
0.000389892
0.000437473
0.000487243
0.000539166
0.000593207
0.000649325
0.000707483
0.000767637
0.000829746
0.000893766
0.000959651
0.00102736
0.00109683
0.00116803
0.00124089
0.00131538
0.00139144
0.00146901
0.00154804
0.00162847
0.00171025
0.00179332
0.00187762
0.0019631
0.00204968
0.00213732
0.00222595
0.0023155
0.00240592
0.00249714
0.0025891
0.00268173
0.00277497
0.00286875
0.002963
0.00305767
0.00315267
0.00324796
0.00334345
0.00343909
0.00353479
0.00363051
0.00372616
0.00382168
0.00391701
0.00401207
0.00410679
0.00420112
0.00429498
0.0043883
0.00448102
0.00457307
0.00466439
0.0047549
0.00484455
0.00493327
0.00502099
0.00510765
0.00519319
0.00527754
0.00536065
0.00544244
0.00552287
0.00560186
0.00567937
0.00575534
0.0058297
0.00590241
0.0059734
0.00604263
0.00611005
0.00617559
0.00623922
0.00630088
0.00636053
0.00641812
0.00647361
0.00652695
0.00657811
0.00662705
0.00667372
0.00671809
0.00676013
0.0067998
0.00683707
0.00687192
0.00690432
0.00693424
0.00696165
0.00698654
0.00700889
0.00702868
0.0070459
0.00706052
0.00707254
0.00708195
0.00708876
0.00709296
0.00709425
0.00709413
-8.17242e-05
-8.18808e-05
-8.06936e-05
-7.66565e-05
-7.00845e-05
-6.09766e-05
-4.93232e-05
-3.51314e-05
-1.84132e-05
8.19676e-07
2.25536e-05
4.67729e-05
7.34603e-05
0.000102597
0.000134161
0.000168131
0.000204482
0.000243189
0.000284223
0.000327555
0.000373154
0.000420989
0.000471024
0.000523224
0.000577552
0.000633969
0.000692436
0.000752911
0.00081535
0.00087971
0.000945945
0.00101401
0.00108385
0.00115542
0.00122868
0.00130356
0.00138002
0.001458
0.00153745
0.00161831
0.00170052
0.00178403
0.00186878
0.0019547
0.00204174
0.00212984
0.00221894
0.00230897
0.00239986
0.00249157
0.00258401
0.00267713
0.00277086
0.00286514
0.00295989
0.00305506
0.00315057
0.00324636
0.00334236
0.0034385
0.00353472
0.00363094
0.00372711
0.00382314
0.00391897
0.00401454
0.00410978
0.00420461
0.00429897
0.0043928
0.00448602
0.00457857
0.00467038
0.00476139
0.00485152
0.00494073
0.00502893
0.00511606
0.00520207
0.00528688
0.00537045
0.00545269
0.00553357
0.005613
0.00569094
0.00576733
0.00584211
0.00591522
0.00598662
0.00605624
0.00612403
0.00618994
0.00625393
0.00631594
0.00637593
0.00643385
0.00648966
0.00654331
0.00659476
0.00664397
0.00669091
0.00673554
0.00677782
0.00681772
0.00685521
0.00689026
0.00692285
0.00695294
0.00698051
0.00700555
0.00702803
0.00704793
0.00706525
0.00707995
0.00709204
0.00710151
0.00710835
0.00711258
0.00711388
0.00711376
-0.000103437
-0.000103596
-0.000102403
-9.83433e-05
-9.17332e-05
-8.25715e-05
-7.08489e-05
-5.65723e-05
-3.9754e-05
-2.04056e-05
1.45906e-06
2.58242e-05
5.26724e-05
8.19843e-05
0.000113739
0.000147914
0.000184484
0.000223424
0.000264705
0.000308299
0.000354173
0.000402295
0.000452631
0.000505146
0.0005598
0.000616557
0.000675375
0.000736212
0.000799026
0.000863772
0.000930404
0.000998875
0.00106914
0.00114114
0.00121483
0.00129016
0.00136708
0.00144552
0.00152544
0.00160678
0.00168949
0.00177349
0.00185875
0.00194518
0.00203275
0.00212137
0.002211
0.00230156
0.002393
0.00248525
0.00257824
0.00267192
0.00276621
0.00286105
0.00295637
0.0030521
0.00314819
0.00324455
0.00334112
0.00343784
0.00353464
0.00363144
0.00372818
0.00382479
0.0039212
0.00401735
0.00411316
0.00420857
0.0043035
0.0043979
0.00449169
0.0045848
0.00467718
0.00476874
0.00485943
0.00494918
0.00503792
0.0051256
0.00521214
0.00529748
0.00538156
0.00546432
0.0055457
0.00562563
0.00570406
0.00578093
0.00585618
0.00592975
0.0060016
0.00607166
0.00613988
0.00620622
0.00627061
0.00633302
0.0063934
0.00645169
0.00650785
0.00656185
0.00661363
0.00666317
0.00671041
0.00675533
0.00679788
0.00683804
0.00687578
0.00691106
0.00694386
0.00697414
0.0070019
0.0070271
0.00704973
0.00706976
0.00708719
0.00710199
0.00711416
0.00712369
0.00713058
0.00713483
0.00713614
0.00713602
-0.000127737
-0.000127898
-0.0001267
-0.000122614
-0.000115961
-0.000106739
-9.49383e-05
-8.05667e-05
-6.36359e-05
-4.4158e-05
-2.21469e-05
2.38172e-06
2.94101e-05
5.89189e-05
9.08869e-05
0.000125291
0.000162107
0.000201308
0.000242867
0.000286752
0.000332934
0.000381379
0.000432053
0.000484919
0.000539939
0.000597076
0.000656287
0.000717531
0.000780764
0.000845942
0.000913019
0.000981946
0.00105268
0.00112516
0.00119934
0.00127517
0.0013526
0.00143156
0.00151202
0.0015939
0.00167715
0.00176171
0.00184753
0.00193454
0.00202268
0.0021119
0.00220212
0.00229328
0.00238532
0.00247818
0.0025718
0.00266609
0.00276101
0.00285648
0.00295243
0.0030488
0.00314552
0.00324253
0.00333974
0.00343711
0.00353455
0.003632
0.00372938
0.00382664
0.0039237
0.00402049
0.00411695
0.004213
0.00430857
0.00440361
0.00449803
0.00459178
0.00468478
0.00477697
0.00486827
0.00495864
0.00504799
0.00513626
0.0052234
0.00530933
0.00539399
0.00547732
0.00555926
0.00563975
0.00571873
0.00579614
0.00587191
0.00594601
0.00601836
0.00608891
0.00615762
0.00622442
0.00628928
0.00635213
0.00641293
0.00647164
0.00652821
0.00658259
0.00663475
0.00668464
0.00673222
0.00677747
0.00682033
0.00686078
0.00689879
0.00693433
0.00696736
0.00699787
0.00702583
0.00705122
0.00707401
0.00709419
0.00711174
0.00712666
0.00713891
0.00714851
0.00715545
0.00715974
0.00716105
0.00716093
-0.000154642
-0.000154806
-0.0001536
-0.000149486
-0.000142785
-0.000133496
-0.000121609
-0.000107132
-9.00764e-05
-7.04549e-05
-4.82812e-05
-2.35714e-05
3.65669e-06
3.33836e-05
6.5588e-05
0.000100247
0.000137335
0.000176826
0.000218691
0.000262901
0.000309424
0.000358226
0.000409273
0.000462529
0.000517955
0.000575512
0.000635159
0.000696853
0.000760551
0.000826207
0.000893776
0.000963208
0.00103446
0.00110747
0.00118219
0.00125858
0.00133657
0.00141612
0.00149716
0.00157963
0.00166349
0.00174867
0.00183512
0.00192276
0.00201155
0.00210141
0.00219229
0.00228412
0.00237683
0.00247037
0.00256466
0.00265964
0.00275525
0.00285142
0.00294807
0.00304515
0.00314257
0.00324029
0.00333822
0.00343629
0.00353445
0.00363261
0.00373072
0.00382869
0.00392647
0.00402397
0.00412114
0.0042179
0.00431419
0.00440993
0.00450505
0.0045995
0.00469319
0.00478607
0.00487806
0.0049691
0.00505913
0.00514807
0.00523586
0.00532244
0.00540775
0.00549172
0.00557428
0.00565539
0.00573497
0.00581297
0.00588933
0.00596399
0.00603691
0.00610801
0.00617725
0.00624457
0.00630994
0.00637328
0.00643456
0.00649373
0.00655074
0.00660556
0.00665812
0.00670841
0.00675637
0.00680197
0.00684518
0.00688595
0.00692427
0.00696009
0.00699339
0.00702414
0.00705233
0.00707792
0.00710089
0.00712123
0.00713893
0.00715396
0.00716632
0.00717599
0.00718298
0.0071873
0.00718862
0.00718851
-0.000184172
-0.000184339
-0.000183125
-0.000178979
-0.000172225
-0.000162862
-0.00015088
-0.000136287
-0.000119095
-9.93152e-05
-7.6963e-05
-5.2054e-05
-2.46064e-05
5.36023e-06
3.78243e-05
7.27624e-05
0.000110149
0.000149959
0.000192161
0.000236727
0.000283624
0.000332819
0.000384277
0.000437961
0.000493832
0.00055185
0.000611975
0.000674164
0.000738372
0.000804554
0.000872663
0.00094265
0.00101447
0.00108806
0.00116338
0.00124038
0.00131899
0.00139917
0.00148085
0.00156399
0.00164851
0.00173437
0.0018215
0.00190984
0.00199933
0.00208991
0.0021815
0.00227406
0.00236751
0.00246179
0.00255683
0.00265257
0.00274894
0.00284587
0.00294329
0.00304114
0.00313934
0.00323783
0.00333654
0.0034354
0.00353434
0.00363329
0.00373218
0.00383094
0.0039295
0.00402779
0.00412574
0.00422328
0.00432034
0.00441685
0.00451275
0.00460796
0.00470242
0.00479605
0.0048888
0.00498058
0.00507135
0.00516102
0.00524953
0.00533683
0.00542284
0.0055075
0.00559076
0.00567254
0.00575278
0.00583144
0.00590844
0.00598373
0.00605726
0.00612896
0.00619879
0.00626668
0.0063326
0.00639649
0.00645829
0.00651797
0.00657547
0.00663075
0.00668377
0.00673449
0.00678287
0.00682887
0.00687245
0.00691358
0.00695222
0.00698836
0.00702195
0.00705297
0.0070814
0.00710722
0.00713039
0.00715091
0.00716876
0.00718393
0.00719639
0.00720615
0.00721321
0.00721756
0.00721889
0.00721878
-0.000216348
-0.000216518
-0.000215295
-0.000211114
-0.000204303
-0.000194859
-0.000182774
-0.000168054
-0.000150712
-0.00013076
-0.000108213
-8.30867e-05
-5.53996e-05
-2.51715e-05
7.57575e-06
4.28186e-05
8.05317e-05
0.000120688
0.000163258
0.000208212
0.000255518
0.000305141
0.000357046
0.000411196
0.000467552
0.000526074
0.000586721
0.000649448
0.000714212
0.000780967
0.000849664
0.000920256
0.000992693
0.00106692
0.00114289
0.00122055
0.00129984
0.00138071
0.0014631
0.00154694
0.0016322
0.00171879
0.00180667
0.00189577
0.00198603
0.00207738
0.00216976
0.00226311
0.00235736
0.00245245
0.00254831
0.00264487
0.00274206
0.00283982
0.00293808
0.00303677
0.00313582
0.00323516
0.00333472
0.00343443
0.00353422
0.00363403
0.00373377
0.00383338
0.0039328
0.00403194
0.00413074
0.00422913
0.00432704
0.0044244
0.00452113
0.00461718
0.00471247
0.00480692
0.00490049
0.00499308
0.00508465
0.00517512
0.00526442
0.0053525
0.00543928
0.0055247
0.0056087
0.00569122
0.00577219
0.00585155
0.00592925
0.00600523
0.00607942
0.00615178
0.00622225
0.00629077
0.00635729
0.00642176
0.00648414
0.00654437
0.0066024
0.0066582
0.00671172
0.00676291
0.00681174
0.00685817
0.00690216
0.00694367
0.00698268
0.00701916
0.00705307
0.00708438
0.00711308
0.00713914
0.00716254
0.00718325
0.00720127
0.00721658
0.00722916
0.00723901
0.00724614
0.00725054
0.00725188
0.00725176
-0.000251194
-0.000251367
-0.000250134
-0.000245916
-0.000239041
-0.00022951
-0.000217312
-0.000202454
-0.00018495
-0.000164812
-0.000142053
-0.000116692
-8.87451e-05
-5.82336e-05
-2.51793e-05
1.03939e-05
4.84603e-05
8.89927e-05
0.000131962
0.000177336
0.000225084
0.000275171
0.000327561
0.000382216
0.000439098
0.000498166
0.000559377
0.000622688
0.000688055
0.000755429
0.000824765
0.000896012
0.00096912
0.00104404
0.00112071
0.00119909
0.00127911
0.00136072
0.00144387
0.0015285
0.00161453
0.00170193
0.00179061
0.00188053
0.00197162
0.00206381
0.00215705
0.00225126
0.00234638
0.00244234
0.00253908
0.00263653
0.00273462
0.00283328
0.00293244
0.00303204
0.003132
0.00323226
0.00333274
0.00343337
0.00353409
0.00363482
0.00373549
0.00383603
0.00393637
0.00403643
0.00413616
0.00423546
0.00433429
0.00443256
0.0045302
0.00462715
0.00472334
0.00481869
0.00491314
0.00500661
0.00509905
0.00519038
0.00528054
0.00536946
0.00545707
0.00554331
0.00562812
0.00571143
0.00579319
0.00587333
0.00595178
0.0060285
0.00610342
0.00617649
0.00624765
0.00631684
0.00638402
0.00644913
0.00651213
0.00657296
0.00663157
0.00668792
0.00674198
0.00679368
0.006843
0.0068899
0.00693433
0.00697627
0.00701567
0.00705251
0.00708677
0.0071184
0.00714739
0.00717371
0.00719735
0.00721828
0.00723648
0.00725195
0.00726466
0.00727461
0.0072818
0.00728625
0.0072876
0.00728748
-0.000288735
-0.00028891
-0.000287668
-0.000283408
-0.000276466
-0.00026684
-0.00025452
-0.000239515
-0.000221835
-0.000201495
-0.000178509
-0.000152894
-0.000124667
-9.38498e-05
-6.04645e-05
-2.45351e-05
1.39124e-05
5.48502e-05
9.82489e-05
0.000144077
0.000192302
0.000242889
0.000295801
0.000351001
0.00040845
0.000468105
0.000529925
0.000593866
0.000659881
0.000727924
0.000797947
0.000869899
0.000943731
0.00101939
0.00109682
0.00117597
0.00125678
0.0013392
0.00142317
0.00150863
0.00159551
0.00168376
0.00177332
0.00186413
0.00195611
0.00204921
0.00214336
0.00223849
0.00233455
0.00243145
0.00252914
0.00262755
0.0027266
0.00282623
0.00292637
0.00302695
0.00312789
0.00322914
0.00333061
0.00343223
0.00353394
0.00363567
0.00373734
0.00383887
0.0039402
0.00404127
0.00414198
0.00424228
0.00434209
0.00444135
0.00453997
0.00463789
0.00473504
0.00483136
0.00492676
0.00502118
0.00511455
0.00520681
0.00529789
0.00538771
0.00547622
0.00556335
0.00564903
0.00573321
0.00581581
0.00589677
0.00597604
0.00605356
0.00612926
0.0062031
0.006275
0.00634493
0.00641281
0.00647861
0.00654227
0.00660375
0.00666299
0.00671994
0.00677457
0.00682683
0.00687668
0.00692408
0.00696899
0.00701138
0.00705121
0.00708845
0.00712307
0.00715505
0.00718436
0.00721097
0.00723486
0.00725601
0.00727442
0.00729005
0.0073029
0.00731296
0.00732023
0.00732472
0.0073261
0.00732597
-0.000328998
-0.000329177
-0.000327923
-0.000323619
-0.000316604
-0.000306876
-0.000294426
-0.000279261
-0.000261394
-0.000240838
-0.000217607
-0.000191718
-0.000163191
-0.000132046
-9.83052e-05
-6.19935e-05
-2.3137e-05
1.82361e-05
6.2096e-05
0.000108411
0.000157148
0.000208271
0.000261744
0.000317529
0.000375585
0.000435872
0.000498345
0.00056296
0.000629671
0.000698431
0.000769191
0.000841901
0.000916508
0.000992961
0.00107121
0.00115119
0.00123284
0.00131613
0.00140097
0.00148732
0.00157511
0.00166429
0.00175478
0.00184653
0.00193948
0.00203355
0.00212868
0.0022248
0.00232186
0.00241977
0.00251848
0.00261791
0.002718
0.00281867
0.00291985
0.00302148
0.00312348
0.00322578
0.00332832
0.00343101
0.00353378
0.00363658
0.00373931
0.00384191
0.00394432
0.00404644
0.00414822
0.00424958
0.00435045
0.00445076
0.00455043
0.0046494
0.00474759
0.00484493
0.00494135
0.00503679
0.00513117
0.00522442
0.00531648
0.00540728
0.00549676
0.00558483
0.00567145
0.00575655
0.00584005
0.00592191
0.00600206
0.00608043
0.00615697
0.00623162
0.00630433
0.00637504
0.00644368
0.00651022
0.0065746
0.00663677
0.00669667
0.00675427
0.00680952
0.00686238
0.00691279
0.00696073
0.00700616
0.00704903
0.00708932
0.00712699
0.00716201
0.00719436
0.007224
0.00725092
0.00727509
0.00729649
0.00731511
0.00733092
0.00734392
0.0073541
0.00736145
0.007366
0.00736739
0.00736726
-0.000372013
-0.000372195
-0.000370928
-0.000366577
-0.000359484
-0.000349648
-0.000337058
-0.000321723
-0.000303655
-0.000282867
-0.000259374
-0.000233194
-0.000204346
-0.000172849
-0.000138729
-0.000102008
-6.27144e-05
-2.08759e-05
2.34771e-05
7.03124e-05
0.000119596
0.000171293
0.000225366
0.000281776
0.000340482
0.000401442
0.000464613
0.000529949
0.000597405
0.000666931
0.000738479
0.000811997
0.000887434
0.000964735
0.00104385
0.00112471
0.00120728
0.00129148
0.00137727
0.00146457
0.00155333
0.00164349
0.00173498
0.00182775
0.00192171
0.00201682
0.002113
0.00221018
0.00230831
0.0024073
0.0025071
0.00260762
0.00270881
0.00281059
0.00291289
0.00301564
0.00311877
0.0032222
0.00332587
0.00342969
0.00353361
0.00363754
0.00374141
0.00384516
0.0039487
0.00405196
0.00415488
0.00425737
0.00435937
0.0044608
0.00456159
0.00466167
0.00476097
0.00485941
0.00495693
0.00505345
0.00514891
0.00524322
0.00533634
0.00542818
0.00551868
0.00560777
0.00569539
0.00578147
0.00586594
0.00594875
0.00602983
0.00610912
0.00618656
0.00626209
0.00633565
0.00640719
0.00647665
0.00654398
0.00660913
0.00667203
0.00673266
0.00679095
0.00684686
0.00690035
0.00695138
0.00699989
0.00704587
0.00708926
0.00713004
0.00716817
0.00720362
0.00723636
0.00726637
0.00729361
0.00731808
0.00733974
0.00735858
0.00737459
0.00738775
0.00739805
0.0074055
0.0074101
0.00741151
0.00741138
-0.00041781
-0.000417996
-0.000416716
-0.000412315
-0.000405139
-0.000395187
-0.000382448
-0.000366931
-0.000348648
-0.000327614
-0.000303842
-0.000277351
-0.00024816
-0.00021629
-0.000181764
-0.000144608
-0.000104848
-6.25137e-05
-1.76353e-05
2.97544e-05
7.96213e-05
0.000131929
0.000186641
0.000243716
0.000303114
0.000364792
0.000428707
0.000494812
0.000563059
0.000633402
0.000705788
0.000780167
0.000856487
0.000934692
0.00101473
0.00109654
0.00118007
0.00126525
0.00135203
0.00144035
0.00153015
0.00162135
0.00171391
0.00180775
0.00190281
0.00199902
0.00209631
0.00219462
0.00229388
0.00239403
0.00249498
0.00259667
0.00269903
0.00280199
0.00290548
0.00300942
0.00311374
0.00321838
0.00332325
0.00342829
0.00353341
0.00363856
0.00374364
0.0038486
0.00395335
0.00405783
0.00416195
0.00426565
0.00436885
0.00447148
0.00457347
0.00467473
0.00477521
0.00487482
0.0049735
0.00507118
0.00516777
0.00526322
0.00535746
0.00545041
0.005542
0.00563217
0.00572085
0.00580798
0.00589349
0.00597731
0.00605939
0.00613966
0.00621805
0.00629452
0.00636899
0.00644142
0.00651175
0.00657992
0.00664588
0.00670958
0.00677096
0.00682999
0.00688661
0.00694078
0.00699245
0.00704159
0.00708815
0.0071321
0.0071734
0.00721202
0.00724792
0.00728108
0.00731147
0.00733907
0.00736385
0.0073858
0.00740488
0.0074211
0.00743443
0.00744486
0.00745241
0.00745707
0.0074585
0.00745837
-0.000466425
-0.000466614
-0.00046532
-0.000460865
-0.0004536
-0.000443525
-0.000430628
-0.000414918
-0.000396408
-0.000375111
-0.000351043
-0.000324221
-0.000294666
-0.000262399
-0.000227443
-0.000189823
-0.000149568
-0.000106707
-6.12707e-05
-1.3292e-05
3.71942e-05
9.01512e-05
0.000145541
0.000203323
0.000263456
0.000325897
0.000390601
0.000457522
0.000526611
0.000597819
0.000671096
0.00074639
0.000823646
0.000902811
0.000983828
0.00106664
0.00115119
0.00123742
0.00132526
0.00141466
0.00150555
0.00159786
0.00169155
0.00178653
0.00188274
0.00198012
0.0020786
0.00217811
0.00227858
0.00237993
0.00248211
0.00258504
0.00268865
0.00279286
0.00289761
0.00300281
0.00310841
0.00321432
0.00332047
0.00342679
0.0035332
0.00363963
0.003746
0.00385225
0.00395828
0.00406404
0.00416945
0.00427443
0.00437891
0.0044828
0.00458605
0.00468858
0.00479031
0.00489116
0.00499108
0.00508997
0.00518778
0.00528444
0.00537986
0.00547398
0.00556674
0.00565806
0.00574787
0.00583611
0.00592272
0.00600762
0.00609075
0.00617206
0.00625147
0.00632892
0.00640437
0.00647775
0.00654899
0.00661806
0.00668489
0.00674942
0.00681162
0.00687143
0.0069288
0.00698369
0.00703605
0.00708585
0.00713303
0.00717757
0.00721942
0.00725856
0.00729495
0.00732856
0.00735936
0.00738734
0.00741245
0.00743469
0.00745404
0.00747048
0.00748399
0.00749457
0.00750222
0.00750694
0.00750838
0.00750825
-0.000517891
-0.000518084
-0.000516775
-0.000512263
-0.000504905
-0.000494699
-0.000481634
-0.000465719
-0.000446967
-0.000425392
-0.00040101
-0.000373839
-0.000343898
-0.000311209
-0.000275797
-0.000237687
-0.000196908
-0.000153488
-0.00010746
-5.88574e-05
-7.71515e-06
4.59295e-05
0.000102038
0.000160569
0.000221481
0.000284729
0.000350269
0.000418053
0.000488033
0.000560159
0.000634379
0.000710641
0.00078889
0.00086907
0.000951126
0.001035
0.00112063
0.00120796
0.00129692
0.00138746
0.00147951
0.001573
0.00166788
0.00176407
0.00186151
0.00196013
0.00205986
0.00216063
0.00226237
0.00236502
0.0024685
0.00257273
0.00267765
0.00278319
0.00288927
0.00299582
0.00310275
0.00321001
0.00331752
0.00342519
0.00353296
0.00364075
0.00374849
0.00385609
0.00396349
0.00407061