/*--------------------------------*- C++ -*----------------------------------*\
| =========                 |                                                 |
| \\      /  F ield         | OpenFOAM: The Open Source CFD Toolbox           |
|  \\    /   O peration     | Version:  2406                                  |
|   \\  /    A nd           | Website:  www.openfoam.com                      |
|    \\/     M anipulation  |                                                 |
\*---------------------------------------------------------------------------*/
FoamFile
{
    version     2.0;
    format      ascii;
    arch        "LSB;label=32;scalar=64";
    class       surfaceScalarField;
    location    "13";
    object      phi_0;
}
// * * * * * * * * * * * * * * * * * * * * * * * * * * * * * * * * * * * * * //

dimensions      [0 3 -1 0 0 0 0];

oriented        oriented;

internalField   nonuniform List<scalar> 
8064
(
6.55981e-08
-6.55839e-08
7.90536e-08
-1.34554e-08
-8.63134e-10
7.99177e-08
-1.61737e-07
1.60873e-07
-3.81118e-07
2.19379e-07
-6.37055e-07
2.55936e-07
-9.15684e-07
2.7863e-07
-1.21132e-06
2.95641e-07
-1.52406e-06
3.12732e-07
-1.85717e-06
3.3311e-07
-2.21519e-06
3.58018e-07
-2.60262e-06
3.87434e-07
-3.02327e-06
4.20649e-07
-3.47992e-06
4.5665e-07
-3.97425e-06
4.94326e-07
-4.50681e-06
5.32562e-07
-5.07707e-06
5.70264e-07
-5.68342e-06
6.06352e-07
-6.32315e-06
6.3973e-07
-6.99241e-06
6.69256e-07
-7.68611e-06
6.93696e-07
-8.39779e-06
7.11685e-07
-9.11948e-06
7.2169e-07
-9.84147e-06
7.2199e-07
-1.05521e-05
7.10675e-07
-1.12378e-05
6.85689e-07
-1.18827e-05
6.44913e-07
-1.24691e-05
5.86304e-07
-1.29772e-05
5.08099e-07
-1.33862e-05
4.09076e-07
-1.36751e-05
2.88837e-07
-1.38228e-05
1.4778e-07
-1.3809e-05
-1.38462e-08
-1.36165e-05
-1.92484e-07
-1.32341e-05
-3.82384e-07
-1.26562e-05
-5.7798e-07
-1.18846e-05
-7.71533e-07
-1.09302e-05
-9.54434e-07
-9.81253e-06
-1.11766e-06
-8.56009e-06
-1.25243e-06
-7.20907e-06
-1.35102e-06
-5.80161e-06
-1.40746e-06
-4.38335e-06
-1.41825e-06
-3.00054e-06
-1.38281e-06
-1.69684e-06
-1.30369e-06
-5.10325e-07
-1.18652e-06
5.29798e-07
-1.04012e-06
1.40261e-06
-8.72808e-07
2.09661e-06
-6.94004e-07
2.61105e-06
-5.14442e-07
2.95317e-06
-3.4212e-07
3.13646e-06
-1.83289e-07
3.17853e-06
-4.20648e-08
3.09877e-06
7.97571e-08
2.91696e-06
1.81813e-07
2.65163e-06
2.6533e-07
2.31993e-06
3.31693e-07
1.93815e-06
3.81781e-07
1.52326e-06
4.14888e-07
1.09571e-06
4.27548e-07
6.83467e-07
4.12246e-07
3.27037e-07
3.56429e-07
8.17087e-08
2.45329e-07
8.17096e-08
9.28921e-09
-7.48731e-08
-1.4303e-07
1.38863e-07
-5.08866e-07
4.45755e-07
-1.06338e-06
7.15394e-07
-1.75573e-06
9.11724e-07
-2.54135e-06
1.04156e-06
-3.39037e-06
1.12765e-06
-4.28811e-06
1.19337e-06
-5.23153e-06
1.25615e-06
-6.22469e-06
1.32627e-06
-7.27477e-06
1.4081e-06
-8.38931e-06
1.50197e-06
-9.57453e-06
1.60587e-06
-1.08344e-05
1.71657e-06
-1.21704e-05
1.83032e-06
-1.35811e-05
1.94326e-06
-1.50624e-05
2.05148e-06
-1.66072e-05
2.15118e-06
-1.8206e-05
2.23852e-06
-1.98464e-05
2.30964e-06
-2.15132e-05
2.36055e-06
-2.31885e-05
2.38696e-06
-2.4851e-05
2.38425e-06
-2.64764e-05
2.34738e-06
-2.80367e-05
2.27091e-06
-2.95002e-05
2.14917e-06
-3.08318e-05
1.97654e-06
-3.19934e-05
1.74791e-06
-3.29445e-05
1.45926e-06
-3.36439e-05
1.10843e-06
-3.4051e-05
6.95973e-07
-3.41295e-05
2.26219e-07
-3.38418e-05
-3.01519e-07
-3.31612e-05
-8.73134e-07
-3.20727e-05
-1.47083e-06
-3.05737e-05
-2.07695e-06
-2.8676e-05
-2.66929e-06
-2.64072e-05
-3.22322e-06
-2.38115e-05
-3.71333e-06
-2.09487e-05
-4.11524e-06
-1.78922e-05
-4.40752e-06
-1.4726e-05
-4.57372e-06
-1.15402e-05
-4.60405e-06
-8.42626e-06
-4.49672e-06
-5.4715e-06
-4.25845e-06
-2.75376e-06
-3.90426e-06
-3.37412e-07
-3.45647e-06
1.73371e-06
-2.94393e-06
3.42877e-06
-2.38906e-06
4.74001e-06
-1.82568e-06
5.67529e-06
-1.27741e-06
6.2563e-06
-7.64298e-07
6.51432e-06
-3.00087e-07
6.48607e-06
1.08013e-07
6.21167e-06
4.5621e-07
5.72988e-06
7.4712e-07
5.079e-06
9.82569e-07
4.29738e-06
1.1634e-06
3.42621e-06
1.28606e-06
2.51404e-06
1.33972e-06
1.62259e-06
1.30369e-06
8.32819e-07
1.1462e-06
2.49434e-07
8.28715e-07
3.31143e-07
-1.16294e-07
4.14217e-08
-5.50061e-07
5.72627e-07
-1.30026e-06
1.19595e-06
-2.31016e-06
1.72529e-06
-3.51057e-06
2.11214e-06
-4.84317e-06
2.37416e-06
-6.26883e-06
2.55331e-06
-7.76722e-06
2.69176e-06
-9.33228e-06
2.82121e-06
-1.09666e-05
2.9606e-06
-1.26767e-05
3.11816e-06
-1.44692e-05
3.29455e-06
-1.63493e-05
3.48589e-06
-1.83185e-05
3.68584e-06
-2.03752e-05
3.88698e-06
-2.25135e-05
4.08152e-06
-2.47237e-05
4.26177e-06
-2.69928e-05
4.42022e-06
-2.93039e-05
4.54965e-06
-3.16373e-05
4.64301e-06
-3.39699e-05
4.69321e-06
-3.62759e-05
4.69287e-06
-3.85257e-05
4.63412e-06
-4.06868e-05
4.50845e-06
-4.27226e-05
4.30672e-06
-4.45929e-05
4.01944e-06
-4.62537e-05
3.63736e-06
-4.76581e-05
3.1523e-06
-4.8757e-05
2.55821e-06
-4.95011e-05
1.85253e-06
-4.98427e-05
1.03751e-06
-4.97411e-05
1.24632e-07
-4.91498e-05
-8.92781e-07
-4.80447e-05
-1.9783e-06
-4.64085e-05
-3.10704e-06
-4.42402e-05
-4.2452e-06
-4.15565e-05
-5.35295e-06
-3.83931e-05
-6.38661e-06
-3.48053e-05
-7.3012e-06
-3.08672e-05
-8.05335e-06
-2.66701e-05
-8.60454e-06
-2.23194e-05
-8.9245e-06
-1.79291e-05
-8.9943e-06
-1.36171e-05
-8.80876e-06
-9.49766e-06
-8.37785e-06
-5.67542e-06
-7.7265e-06
-2.23892e-06
-6.89297e-06
7.42734e-07
-5.92558e-06
3.23071e-06
-4.87704e-06
5.20203e-06
-3.797e-06
6.66156e-06
-2.73693e-06
7.63277e-06
-1.73552e-06
8.15328e-06
-8.20594e-07
8.26982e-06
-8.52472e-09
8.03331e-06
6.92718e-07
7.49629e-06
1.28414e-06
6.71115e-06
1.76771e-06
5.73124e-06
2.14331e-06
4.61398e-06
2.40332e-06
3.42583e-06
2.52786e-06
2.24844e-06
2.48108e-06
1.18546e-06
2.20919e-06
3.72214e-07
1.64196e-06
7.03355e-07
-2.67802e-07
3.09225e-07
-1.03699e-06
1.34181e-06
-2.22373e-06
2.38269e-06
-3.72787e-06
3.22943e-06
-5.45759e-06
3.84186e-06
-7.34301e-06
4.25958e-06
-9.33917e-06
4.54947e-06
-1.14226e-05
4.77522e-06
-1.35852e-05
4.98374e-06
-1.58273e-05
5.20272e-06
-1.81529e-05
5.4438e-06
-2.05658e-05
5.70738e-06
-2.30668e-05
5.98695e-06
-2.56533e-05
6.27232e-06
-2.8318e-05
6.55171e-06
-3.10495e-05
6.81301e-06
-3.38323e-05
7.04452e-06
-3.66474e-05
7.23535e-06
-3.94733e-05
7.3755e-06
-4.22859e-05
7.45562e-06
-4.50593e-05
7.46667e-06
-4.77658e-05
7.39929e-06
-5.03749e-05
7.2433e-06
-5.28538e-05
6.98733e-06
-5.51659e-05
6.6188e-06
-5.72708e-05
6.12432e-06
-5.9124e-05
5.49055e-06
-6.06772e-05
4.70548e-06
-6.1879e-05
3.76007e-06
-6.26768e-05
2.65027e-06
-6.3019e-05
1.37971e-06
-6.2859e-05
-3.53623e-08
-6.21452e-05
-1.60654e-06
-6.08434e-05
-3.28006e-06
-5.89294e-05
-5.02108e-06
-5.63942e-05
-6.78043e-06
-5.32477e-05
-8.49945e-06
-4.9521e-05
-1.01133e-05
-4.52678e-05
-1.15544e-05
-4.05651e-05
-1.27561e-05
-3.5512e-05
-1.36576e-05
-3.02273e-05
-1.42092e-05
-2.48446e-05
-1.4377e-05
-1.95063e-05
-1.41471e-05
-1.43554e-05
-1.35288e-05
-9.52655e-06
-1.25553e-05
-5.13801e-06
-1.12815e-05
-1.28368e-06
-9.77992e-06
1.97324e-06
-8.13395e-06
4.59985e-06
-6.42361e-06
6.59395e-06
-4.73103e-06
7.97989e-06
-3.12145e-06
8.80177e-06
-1.64248e-06
9.11675e-06
-3.23496e-07
8.98775e-06
8.21714e-07
8.48043e-06
1.79146e-06
7.65988e-06
2.58827e-06
6.59165e-06
3.21154e-06
5.34505e-06
3.64992e-06
3.99854e-06
3.87438e-06
2.64674e-06
3.83288e-06
1.40968e-06
3.44625e-06
4.48227e-07
2.60341e-06
1.15158e-06
-4.29127e-07
7.38352e-07
-1.55065e-06
2.46334e-06
-3.1922e-06
4.02425e-06
-5.202e-06
5.23922e-06
-7.4618e-06
6.10166e-06
-9.88984e-06
6.68762e-06
-1.24365e-05
7.09617e-06
-1.50765e-05
7.41518e-06
-1.77998e-05
7.70703e-06
-2.06044e-05
8.00735e-06
-2.34907e-05
8.33009e-06
-2.64576e-05
8.67432e-06
-2.95008e-05
9.03012e-06
-3.26114e-05
9.38296e-06
-3.57764e-05
9.71667e-06
-3.89787e-05
1.00153e-05
-4.21984e-05
1.02643e-05
-4.54142e-05
1.04511e-05
-4.86039e-05
1.05652e-05
-5.17457e-05
1.05974e-05
-5.48183e-05
1.05392e-05
-5.78002e-05
1.03812e-05
-6.06692e-05
1.01123e-05
-6.34006e-05
9.71875e-06
-6.59659e-05
9.18407e-06
-6.83312e-05
8.48961e-06
-7.04565e-05
7.61581e-06
-7.2295e-05
6.54402e-06
-7.37937e-05
5.25878e-06
-7.4894e-05
3.75054e-06
-7.55332e-05
2.01893e-06
-7.56609e-05
9.23725e-08
-7.5196e-05
-2.07144e-06
-7.40883e-05
-4.3878e-06
-7.22888e-05
-6.82052e-06
-6.97647e-05
-9.30459e-06
-6.6503e-05
-1.17611e-05
-6.25153e-05
-1.4101e-05
-5.78408e-05
-1.62289e-05
-5.2549e-05
-1.80478e-05
-4.67409e-05
-1.94658e-05
-4.0547e-05
-2.04031e-05
-3.41239e-05
-2.08001e-05
-2.76468e-05
-2.06242e-05
-2.12997e-05
-1.98758e-05
-1.5264e-05
-1.8591e-05
-9.70496e-06
-1.68406e-05
-4.75992e-06
-1.4725e-05
-5.29302e-07
-1.23646e-05
2.93614e-06
-9.88905e-06
5.61704e-06
-7.41193e-06
7.5409e-06
-5.04531e-06
8.76216e-06
-2.86374e-06
9.3545e-06
-9.1584e-07
9.4006e-06
7.75619e-07
8.9853e-06
2.20676e-06
8.19119e-06
3.38238e-06
7.09871e-06
4.30402e-06
5.78952e-06
4.95911e-06
4.35281e-06
5.3111e-06
2.89399e-06
5.2917e-06
1.54673e-06
4.79351e-06
4.92578e-07
3.65756e-06
1.64416e-06
-5.89785e-07
1.32814e-06
-2.06182e-06
3.93538e-06
-4.15348e-06
6.11591e-06
-6.65891e-06
7.74465e-06
-9.43181e-06
8.87455e-06
-1.23781e-05
9.63388e-06
-1.54436e-05
1.01617e-05
-1.86014e-05
1.05729e-05
-2.18397e-05
1.09453e-05
-2.51534e-05
1.13211e-05
-2.85387e-05
1.17153e-05
-3.19888e-05
1.21245e-05
-3.54935e-05
1.25348e-05
-3.90378e-05
1.29273e-05
-4.26037e-05
1.32826e-05
-4.6171e-05
1.35825e-05
-4.97194e-05
1.38127e-05
-5.32307e-05
1.39624e-05
-5.66899e-05
1.40244e-05
-6.00864e-05
1.39939e-05
-6.34132e-05
1.3866e-05
-6.66655e-05
1.36335e-05
-6.98385e-05
1.32853e-05
-7.29241e-05
1.28044e-05
-7.59082e-05
1.21682e-05
-7.87677e-05
1.13491e-05
-8.14683e-05
1.03164e-05
-8.39631e-05
9.03883e-06
-8.61923e-05
7.48791e-06
-8.8083e-05
5.64125e-06
-8.95521e-05
3.48807e-06
-9.05024e-05
1.04264e-06
-9.08596e-05
-1.71424e-06
-9.05012e-05
-4.74617e-06
-8.9338e-05
-7.98375e-06
-8.72945e-05
-1.1348e-05
-8.43171e-05
-1.47386e-05
-8.03812e-05
-1.80369e-05
-7.54979e-05
-2.11122e-05
-6.97196e-05
-2.38262e-05
-6.31426e-05
-2.60428e-05
-5.59086e-05
-2.76371e-05
-4.82015e-05
-2.85071e-05
-4.02407e-05
-2.8585e-05
-3.22696e-05
-2.78469e-05
-2.454e-05
-2.63207e-05
-1.72931e-05
-2.40875e-05
-1.07403e-05
-2.12777e-05
-5.04536e-06
-1.80595e-05
-3.13893e-07
-1.46205e-05
3.42358e-06
-1.11494e-05
6.17918e-06
-7.80091e-06
8.02375e-06
-4.7083e-06
9.0576e-06
-1.94969e-06
9.39619e-06
4.37028e-07
9.15711e-06
2.44583e-06
8.4524e-06
4.08709e-06
7.38652e-06
5.3699e-06
6.05961e-06
6.28602e-06
4.57501e-06
6.79569e-06
3.05028e-06
6.81643e-06
1.63212e-06
6.21167e-06
5.18986e-07
4.77069e-06
2.16315e-06
-7.44925e-07
2.07306e-06
-2.55405e-06
5.7445e-06
-5.07638e-06
8.63823e-06
-8.05282e-06
1.07211e-05
-1.13092e-05
1.21309e-05
-1.47391e-05
1.30637e-05
-1.82838e-05
1.37064e-05
-2.19142e-05
1.42034e-05
-2.56166e-05
1.46477e-05
-2.93824e-05
1.5087e-05
-3.32029e-05
1.55358e-05
-3.70659e-05
1.59875e-05
-4.09554e-05
1.64242e-05
-4.48522e-05
1.68241e-05
-4.8736e-05
1.71663e-05
-5.25882e-05
1.74347e-05
-5.63949e-05
1.76195e-05
-6.015e-05
1.77174e-05
-6.38561e-05
1.77305e-05
-6.75251e-05
1.7663e-05
-7.11762e-05
1.75171e-05
-7.48322e-05
1.72895e-05
-7.85149e-05
1.6968e-05
-8.22399e-05
1.65294e-05
-8.60112e-05
1.59395e-05
-8.98168e-05
1.51547e-05
-9.36247e-05
1.41243e-05
-9.73804e-05
1.27945e-05
-0.000101005
1.11123e-05
-0.000104395
9.03139e-06
-0.000107424
6.51741e-06
-0.000109937
3.55504e-06
-0.000111853
2.02431e-07
-0.000112921
-3.6787e-06
-0.000113015
-7.88995e-06
-0.000111992
-1.23709e-05
-0.000109741
-1.69893e-05
-0.000106189
-2.15891e-05
-0.000101307
-2.59942e-05
-9.51202e-05
-3.00127e-05
-8.77136e-05
-3.34494e-05
-7.92344e-05
-3.61163e-05
-6.98929e-05
-3.78486e-05
-5.99576e-05
-3.85203e-05
-4.97443e-05
-3.80603e-05
-3.95984e-05
-3.64665e-05
-2.9871e-05
-3.38149e-05
-2.08889e-05
-3.02598e-05
-1.29254e-05
-2.60231e-05
-6.17368e-06
-2.13722e-05
-7.35523e-07
-1.65876e-05
3.3922e-06
-1.19286e-05
6.28185e-06
-7.59795e-06
8.06968e-06
-3.73752e-06
8.92151e-06
-4.14806e-07
9.00851e-06
2.35883e-06
8.49234e-06
4.60326e-06
7.51869e-06
6.34355e-06
6.21924e-06
7.58547e-06
4.72035e-06
8.29458e-06
3.15697e-06
8.37982e-06
1.69104e-06
7.67761e-06
5.36898e-07
5.92483e-06
2.70005e-06
-8.91837e-07
2.9649e-06
-3.0178e-06
7.87046e-06
-5.94256e-06
1.1563e-05
-9.35657e-06
1.41351e-05
-1.30592e-05
1.58335e-05
-1.6932e-05
1.69366e-05
-2.09119e-05
1.76863e-05
-2.49672e-05
1.82588e-05
-2.90817e-05
1.87621e-05
-3.32431e-05
1.92484e-05
-3.74381e-05
1.97307e-05
-4.16495e-05
2.0199e-05
-4.58577e-05
2.06325e-05
-5.00423e-05
2.10087e-05
-5.4186e-05
2.131e-05
-5.82793e-05
2.1528e-05
-6.23246e-05
2.16648e-05
-6.63393e-05
2.17322e-05
-7.03573e-05
2.17485e-05
-7.44264e-05
2.17321e-05
-7.86045e-05
2.16952e-05
-8.29525e-05
2.16375e-05
-8.75264e-05
2.15419e-05
-9.2369e-05
2.13719e-05
-9.75019e-05
2.10724e-05
-0.000102919
2.05717e-05
-0.00010858
1.97852e-05
-0.000114406
1.86212e-05
-0.000120281
1.69873e-05
-0.000126048
1.47977e-05
-0.000131512
1.1982e-05
-0.000136454
8.49717e-06
-0.000140593
4.34134e-06
-0.000143852
-4.19632e-07
-0.000145824
-5.9182e-06
-0.000146346
-1.18494e-05
-0.000145243
-1.80923e-05
-0.000142392
-2.44399e-05
-0.000137722
-3.06639e-05
-0.000131226
-3.65092e-05
-0.000122964
-4.17108e-05
-0.000113078
-4.60025e-05
-0.000101789
-4.91378e-05
-8.94022e-05
-5.09071e-05
-7.63003e-05
-5.11621e-05
-6.29292e-05
-4.98377e-05
-4.97719e-05
-4.69722e-05
-3.73124e-05
-4.27192e-05
-2.59903e-05
-3.73452e-05
-1.61545e-05
-3.1208e-05
-8.02642e-06
-2.47157e-05
-1.68328e-06
-1.82718e-05
2.93944e-06
-1.22207e-05
6.00729e-06
-6.80537e-06
7.75179e-06
-2.15931e-06
8.42621e-06
1.68442e-06
8.26878e-06
4.76068e-06
7.49449e-06
7.11784e-06
6.2881e-06
8.79187e-06
4.8147e-06
9.76797e-06
3.2371e-06
9.95742e-06
1.73853e-06
9.17617e-06
5.51981e-07
7.11138e-06
3.25203e-06
-1.02876e-06
3.99366e-06
-3.44745e-06
1.02891e-05
-6.74172e-06
1.48573e-05
-1.05553e-05
1.79487e-05
-1.46633e-05
1.99415e-05
-1.89362e-05
2.12095e-05
-2.33062e-05
2.20563e-05
-2.77393e-05
2.26918e-05
-3.22162e-05
2.3239e-05
-3.67212e-05
2.37535e-05
-4.12371e-05
2.42466e-05
-4.57438e-05
2.47057e-05
-5.02211e-05
2.51097e-05
-5.46526e-05
2.54401e-05
-5.90319e-05
2.56893e-05
-6.33688e-05
2.5865e-05
-6.7695e-05
2.59909e-05
-7.20664e-05
2.61036e-05
-7.6563e-05
2.6245e-05
-8.12831e-05
2.64522e-05
-8.63353e-05
2.67473e-05
-9.18263e-05
2.71285e-05
-9.78493e-05
2.7565e-05
-0.000104472
2.79945e-05
-0.000111725
2.83251e-05
-0.000119591
2.84383e-05
-0.000128002
2.81956e-05
-0.000136826
2.74459e-05
-0.000145876
2.60367e-05
-0.000154905
2.38272e-05
-0.000163625
2.07022e-05
-0.000171714
1.65863e-05
-0.000178832
1.14586e-05
-0.000184628
5.37668e-06
-0.000188975
-1.57141e-06
-0.000191398
-9.42591e-06
-0.000191735
-1.77553e-05
-0.000189833
-2.63421e-05
-0.000185584
-3.49128e-05
-0.000178945
-4.3148e-05
-0.000169943
-5.07132e-05
-0.000158685
-5.72605e-05
-0.000145371
-6.24513e-05
-0.000130305
-6.59732e-05
-0.000113899
-6.75688e-05
-9.6669e-05
-6.70673e-05
-7.92228e-05
-6.44184e-05
-6.22191e-05
-5.9723e-05
-4.63139e-05
-5.32504e-05
-3.20906e-05
-4.54312e-05
-1.99878e-05
-3.68185e-05
-1.02447e-05
-2.80149e-05
-2.8843e-06
-1.9581e-05
2.26287e-06
-1.19525e-05
5.49437e-06
-5.39081e-06
7.176e-06
2.79495e-09
7.65383e-06
4.28285e-06
7.25407e-06
7.5176e-06
6.2459e-06
9.80004e-06
4.85781e-06
1.11561e-05
3.29764e-06
1.15176e-05
1.78114e-06
1.06927e-05
5.67011e-07
8.32551e-06
3.81904e-06
-1.15455e-06
5.14821e-06
-3.83984e-06
1.29744e-05
-7.46871e-06
1.84861e-05
-1.16425e-05
2.21225e-05
-1.61143e-05
2.44133e-05
-2.07448e-05
2.58401e-05
-2.54618e-05
2.67733e-05
-3.02287e-05
2.74587e-05
-3.50235e-05
2.80338e-05
-3.98277e-05
2.85577e-05
-4.46218e-05
2.90407e-05
-4.93858e-05
2.94697e-05
-5.41038e-05
2.98278e-05
-5.87712e-05
3.01075e-05
-6.34026e-05
3.03207e-05
-6.80407e-05
3.05031e-05
-7.27622e-05
3.07123e-05
-7.76784e-05
3.10199e-05
-8.29314e-05
3.1498e-05
-8.8683e-05
3.22039e-05
-9.51001e-05
3.31644e-05
-0.000102337
3.43656e-05
-0.000110519
3.57468e-05
-0.000119724
3.71993e-05
-0.000129968
3.85694e-05
-0.000141195
3.96648e-05
-0.000153263
4.02638e-05
-0.000165947
4.01302e-05
-0.000178943
3.90321e-05
-0.00019188
3.67648e-05
-0.000204352
3.31737e-05
-0.000215935
2.81701e-05
-0.000226218
2.17415e-05
-0.000234803
1.39609e-05
-0.00024139
5.01644e-06
-0.000245794
-5.02227e-06
-0.000247652
-1.58976e-05
-0.000246828
-2.71665e-05
-0.000243209
-3.85316e-05
-0.000236718
-4.96387e-05
-0.00022733
-6.01009e-05
-0.000215087
-6.95038e-05
-0.000200115
-7.7423e-05
-0.000182651
-8.34378e-05
-0.000163059
-8.71601e-05
-0.000141856
-8.82704e-05
-0.000119709
-8.6566e-05
-9.74169e-05
-8.20147e-05
-7.58648e-05
-7.48025e-05
-5.59336e-05
-6.53624e-05
-3.83917e-05
-5.43604e-05
-2.37815e-05
-4.26251e-05
-1.2341e-05
-3.10215e-05
-3.99266e-06
-2.03009e-05
1.59666e-06
-1.09801e-05
4.8984e-06
-3.29895e-06
6.43871e-06
2.74255e-06
6.6844e-06
7.27191e-06
6.0381e-06
1.04463e-05
4.82802e-06
1.23661e-05
3.33307e-06
1.30125e-05
1.81923e-06
1.22065e-05
5.8287e-07
9.56187e-06
4.40191e-06
-1.26848e-06
6.4167e-06
-4.19349e-06
1.58994e-05
-8.12179e-06
2.24145e-05
-1.26168e-05
2.66175e-05
-1.74124e-05
2.92089e-05
-2.23605e-05
3.07882e-05
-2.73849e-05
3.17977e-05
-3.24466e-05
3.25204e-05
-3.75219e-05
3.31091e-05
-4.25906e-05
3.36264e-05
-4.76336e-05
3.40836e-05
-5.26352e-05
3.44713e-05
-5.75908e-05
3.47834e-05
-6.25171e-05
3.50338e-05
-6.74634e-05
3.52671e-05
-7.25216e-05
3.55613e-05
-7.78309e-05
3.60216e-05
-8.35756e-05
3.67645e-05
-8.99735e-05
3.78959e-05
-9.72575e-05
3.9488e-05
-0.000105653
4.15595e-05
-0.000115351
4.40638e-05
-0.000126487
4.68833e-05
-0.000139118
4.98303e-05
-0.000153202
5.26529e-05
-0.000168584
5.50464e-05
-0.000184992
5.66723e-05
-0.000202048
5.71862e-05
-0.000219288
5.6272e-05
-0.000236201
5.36778e-05
-0.000252272
4.92444e-05
-0.00026702
4.29183e-05
-0.000280025
3.47468e-05
-0.000290925
2.48602e-05
-0.000299376
1.34677e-05
-0.000305348
9.50167e-07
-0.000308494
-1.27519e-05
-0.000308736
-2.69241e-05
-0.000305958
-4.13097e-05
-0.000300049
-5.55482e-05
-0.000290917
-6.92324e-05
-0.000278506
-8.19152e-05
-0.000262814
-9.31153e-05
-0.000243929
-0.000102323
-0.000222071
-0.000109018
-0.000197631
-0.00011271
-0.000171215
-0.000112982
-0.000143653
-0.000109576
-0.000115988
-0.000102468
-8.93954e-05
-9.19548e-05
-6.50587e-05
-7.86971e-05
-4.39881e-05
-6.36956e-05
-2.68444e-05
-4.81653e-05
-1.38279e-05
-3.33173e-05
-4.69186e-06
-2.01162e-05
1.1274e-06
-9.11822e-06
4.33813e-06
-4.68175e-07
5.62458e-06
5.98546e-06
5.58164e-06
1.04893e-05
4.68745e-06
1.32603e-05
3.32939e-06
1.43706e-05
1.84948e-06
1.36864e-05
5.99533e-07
1.08118e-05
5.00144e-06
-1.37018e-06
7.78687e-06
-4.50801e-06
1.90373e-05
-8.70141e-06
2.66079e-05
-1.34805e-05
3.13966e-05
-1.85623e-05
3.42907e-05
-2.37913e-05
3.60172e-05
-2.90882e-05
3.70946e-05
-3.44123e-05
3.78445e-05
-3.97388e-05
3.84356e-05
-4.50483e-05
3.89359e-05
-5.03255e-05
3.93608e-05
-5.55649e-05
3.97108e-05
-6.07822e-05
4.00007e-05
-6.60277e-05
4.02793e-05
-7.14011e-05
4.06405e-05
-7.70617e-05
4.12219e-05
-8.32297e-05
4.21896e-05
-9.01763e-05
4.37112e-05
-9.82026e-05
4.59222e-05
-0.00010761
4.88949e-05
-0.000118665
5.26145e-05
-0.000131568
5.69671e-05
-0.000146421
6.17361e-05
-0.000163197
6.66068e-05
-0.000181723
7.11792e-05
-0.000201669
7.49925e-05
-0.000222561
7.75642e-05
-0.000243818
7.84424e-05
-0.000264806
7.72607e-05
-0.000284909
7.37803e-05
-0.000303575
6.79106e-05
-0.000320357
5.97007e-05
-0.000334919
4.93091e-05
-0.000347029
3.69694e-05
-0.000356528
2.29673e-05
-0.000363196
7.61771e-06
-0.000367168
-8.77972e-06
-0.000368313
-2.57789e-05
-0.000366528
-4.3095e-05
-0.000361695
-6.03812e-05
-0.00035366
-7.72675e-05
-0.00034225
-9.33245e-05
-0.0003273
-0.000108066
-0.000308681
-0.000120941
-0.000286363
-0.000131337
-0.000260475
-0.000138598
-0.000231386
-0.000142071
-0.000199769
-0.000141192
-0.000166643
-0.000135594
-0.000133353
-0.000125245
-0.00010147
-0.00011058
-7.25845e-05
-9.25808e-05
-4.80239e-05
-7.27258e-05
-2.85723e-05
-5.2769e-05
-1.43267e-05
-3.43618e-05
-4.77187e-06
-1.8673e-05
9.68173e-07
-6.20821e-06
3.85986e-06
3.09377e-06
4.76556e-06
9.58357e-06
4.38494e-06
1.3641e-05
3.26713e-06
1.54884e-05
1.86701e-06
1.50865e-05
6.16888e-07
1.20619e-05
5.61833e-06
-1.45947e-06
9.24635e-06
-4.78371e-06
2.23615e-05
-9.20925e-06
3.10334e-05
-1.42374e-05
3.64248e-05
-1.95711e-05
3.96244e-05
-2.50486e-05
4.14947e-05
-3.05881e-05
4.26341e-05
-3.61484e-05
4.34047e-05
-4.17054e-05
4.39926e-05
-4.72432e-05
4.44737e-05
-5.2755e-05
4.48726e-05
-5.82531e-05
4.52089e-05
-6.37838e-05
4.55314e-05
-6.94462e-05
4.59417e-05
-7.54081e-05
4.66024e-05
-8.19141e-05
4.77279e-05
-8.92802e-05
4.95557e-05
-9.78717e-05
5.23026e-05
-0.000108067
5.61177e-05
-0.000120215
6.10425e-05
-0.000134586
6.69862e-05
-0.000151334
7.37144e-05
-0.000170448
8.08506e-05
-0.000191731
8.78897e-05
-0.00021478
9.42277e-05
-0.000239003
9.92161e-05
-0.000263677
0.000102238
-0.000288024
0.000102789
-0.00031131
0.000100547
-0.000332917
9.53878e-05
-0.000352384
8.73774e-05
-0.00036941
7.67265e-05
-0.000383835
6.37345e-05
-0.000395619
4.87533e-05
-0.000404784
3.21319e-05
-0.000411324
1.4158e-05
-0.000415271
-4.83298e-06
-0.000416915
-2.41343e-05
-0.000416116
-4.38947e-05
-0.000412743
-6.3754e-05
-0.000406612
-8.33982e-05
-0.000397455
-0.000102482
-0.000384943
-0.000120578
-0.00036871
-0.000137174
-0.000348414
-0.000151633
-0.000323806
-0.000163206
-0.000294848
-0.00017103
-0.000261819
-0.000174222
-0.000225432
-0.000171981
-0.00018692
-0.000163757
-0.000148025
-0.000149476
-0.000110848
-0.000129758
-7.75313e-05
-0.000106042
-4.98036e-05
-8.04967e-05
-2.85493e-05
-5.5616e-05
-1.36461e-05
-3.35762e-05
-4.18243e-06
-1.56719e-05
1.10511e-06
-2.19377e-06
3.44468e-06
7.244e-06
3.85497e-06
1.32307e-05
3.12222e-06
1.62212e-05
1.86636e-06
1.63424e-05
6.35206e-07
1.32931e-05
6.25354e-06
-1.53633e-06
1.07827e-05
-5.02117e-06
2.58463e-05
-9.64741e-06
3.56596e-05
-1.48921e-05
4.16695e-05
-2.04465e-05
4.51787e-05
-2.61438e-05
4.71921e-05
-3.19012e-05
4.83914e-05
-3.76779e-05
4.91814e-05
-4.34528e-05
4.97676e-05
-4.9217e-05
5.02379e-05
-5.49782e-05
5.06338e-05
-6.07751e-05
5.10058e-05
-6.66979e-05
5.14542e-05
-7.29101e-05
5.21539e-05
-7.96651e-05
5.33574e-05
-8.73081e-05
5.5371e-05
-9.62575e-05
5.85051e-05
-0.000106965
6.30103e-05
-0.000119862
6.90147e-05
-0.000135298
7.64784e-05
-0.000153482
8.51697e-05
-0.000174426
9.46591e-05
-0.000197908
0.000104333
-0.000223445
0.000113426
-0.000250315
0.000121098
-0.00027763
0.000126531
-0.000304446
0.000129054
-0.000329894
0.000128237
-0.000353273
0.000123926
-0.000374102
0.000116217
-0.000392121
0.000105396
-0.000407266
9.18715e-05
-0.000419627
7.6095e-05
-0.000429393
5.85193e-05
-0.00043681
3.95495e-05
-0.000442124
1.94718e-05
-0.000445306
-1.65071e-06
-0.0004469
-2.25403e-05
-0.000446823
-4.39726e-05
-0.000444979
-6.55975e-05
-0.000441204
-8.71733e-05
-0.000435192
-0.000108494
-0.000426513
-0.000129257
-0.000414615
-0.000149072
-0.000398868
-0.00016738
-0.000378631
-0.000183443
-0.000353352
-0.000196309
-0.000322716
-0.000204858
-0.000286827
-0.000207869
-0.000246415
-0.000204169
-0.000202955
-0.000192936
-0.000158701
-0.000174012
-0.000116467
-0.000148276
-7.91246e-05
-0.000117839
-4.88771e-05
-8.58636e-05
-2.66203e-05
-5.5833e-05
-1.1825e-05
-3.04673e-05
-3.0385e-06
-1.09803e-05
1.41869e-06
2.78681e-06
3.00836e-06
1.1641e-05
2.86247e-06
1.63671e-05
1.8405e-06
1.73644e-05
6.55001e-07
1.44786e-05
6.90854e-06
-1.60069e-06
1.23834e-05
-5.2209e-06
2.94665e-05
-1.00178e-05
4.04565e-05
-1.54487e-05
4.71004e-05
-2.11952e-05
5.09252e-05
-2.70874e-05
5.30843e-05
-3.30421e-05
5.43461e-05
-3.90208e-05
5.51602e-05
-4.5008e-05
5.57548e-05
-5.1006e-05
5.62359e-05
-5.7044e-05
5.66718e-05
-6.31973e-05
5.71591e-05
-6.96136e-05
5.78704e-05
-7.65369e-05
5.90772e-05
-8.43208e-05
6.11413e-05
-9.34177e-05
6.44678e-05
-0.000104341
6.94281e-05
-0.0001176
7.62702e-05
-0.000133629
8.50435e-05
-0.000152702
9.55516e-05
-0.000174866
0.000107334
-0.000199882
0.000119675
-0.000227193
0.000131643
-0.000255946
0.00014218
-0.000285079
0.000150231
-0.000313466
0.000154918
-0.000340081
0.00015567
-0.000364126
0.000152281
-0.000385094
0.000144894
-0.000402778
0.000133901
-0.000417223
0.000119842
-0.000428656
0.000103305
-0.000437421
8.48598e-05
-0.000443912
6.50101e-05
-0.000448526
4.4164e-05
-0.000451661
2.26065e-05
-0.000453533
2.21493e-07
-0.000454487
-2.15871e-05
-0.000454604
-4.38551e-05
-0.000453918
-6.62834e-05
-0.00045233
-8.8761e-05
-0.000449591
-0.000111233
-0.000445273
-0.000133574
-0.000438767
-0.000155578
-0.000429276
-0.000176871
-0.000415859
-0.00019686
-0.000397501
-0.000214667
-0.000373258
-0.000229101
-0.000342459
-0.000238669
-0.000304943
-0.000241685
-0.000261379
-0.0002365
-0.000213536
-0.000221855
-0.000164327
-0.000197485
-0.000117505
-0.000164661
-7.68704e-05
-0.000126498
-4.51173e-05
-8.7586e-05
-2.29391e-05
-5.26454e-05
-9.13496e-06
-2.47845e-05
-1.60198e-06
-4.74617e-06
1.71472e-06
8.3243e-06
2.43956e-06
1.56422e-05
1.77761e-06
1.80263e-05
6.76171e-07
1.558e-05
7.58471e-06
-1.65241e-06
1.40358e-05
-5.38306e-06
3.31972e-05
-1.03215e-05
4.53949e-05
-1.59097e-05
5.26886e-05
-2.18222e-05
5.68377e-05
-2.78869e-05
5.9149e-05
-3.40216e-05
6.04809e-05
-4.01922e-05
6.13307e-05
-4.63913e-05
6.1954e-05
-5.26378e-05
6.24824e-05
-5.89897e-05
6.30236e-05
-6.55701e-05
6.37395e-05
-7.25975e-05
6.48978e-05
-8.04097e-05
6.68895e-05
-8.94672e-05
7.01988e-05
-0.000100323
7.53235e-05
-0.000113557
8.2662e-05
-0.000129685
9.23987e-05
-0.000149062
0.00010442
-0.000171786
0.000118275
-0.000197623
0.000133171
-0.000225967
0.000148018
-0.000255851
0.000161528
-0.000286049
0.000172377
-0.000315248
0.00017943
-0.000342253
0.000181923
-0.000366158
0.000179574
-0.000386435
0.000172559
-0.000402929
0.000161388
-0.000415791
0.000146762
-0.000425384
0.000129435
-0.000432197
0.000110118
-0.000436756
8.94192e-05
-0.000439573
6.78271e-05
-0.00044111
4.57007e-05
-0.000441774
2.32707e-05
-0.000442089
5.36305e-07
-0.000441939
-2.17378e-05
-0.000441657
-4.41366e-05
-0.000441383
-6.65577e-05
-0.00044113
-8.90133e-05
-0.000440796
-0.000111568
-0.000440098
-0.000134272
-0.000438547
-0.000157129
-0.000435395
-0.000180023
-0.000429622
-0.000202634
-0.000419952
-0.000224336
-0.000404951
-0.000244102
-0.000383188
-0.000260432
-0.000353513
-0.00027136
-0.000315429
-0.000274584
-0.000269496
-0.000267787
-0.000217806
-0.000249175
-0.000164129
-0.000218338
-0.000113438
-0.000177189
-7.06431e-05
-0.000130381
-3.87935e-05
-8.44951e-05
-1.79783e-05
-4.55997e-05
-6.0355e-06
-1.66889e-05
-2.18665e-07
2.50747e-06
1.77675e-06
1.36468e-05
1.65554e-06
1.81475e-05
6.96452e-07
1.65391e-05
8.28116e-06
-1.69114e-06
1.57269e-05
-5.50719e-06
3.70132e-05
-1.05584e-05
5.04462e-05
-1.62761e-05
5.84062e-05
-2.23296e-05
6.28912e-05
-2.85461e-05
6.53655e-05
-3.48457e-05
6.67805e-05
-4.12002e-05
6.76852e-05
-4.76144e-05
6.83681e-05
-5.41283e-05
6.89963e-05
-6.0837e-05
6.97324e-05
-6.79218e-05
7.08244e-05
-7.56832e-05
7.26592e-05
-8.45595e-05
7.57658e-05
-9.51131e-05
8.07524e-05
-0.000107972
8.81825e-05
-0.000123732
9.84217e-05
-0.000142836
0.000111503
-0.000165459
0.000127043
-0.000191409
0.000144225
-0.000220067
0.000161829
-0.000250395
0.000178346
-0.000281032
0.000192165
-0.000310493
0.000201838
-0.000337414
0.000206351
-0.000360777
0.000205286
-0.00038002
0.000198817
-0.000395037
0.000187576
-0.000406091
0.000172442
-0.000413688
0.000154358
-0.00041845
0.000134198
-0.000421022
0.000112689
-0.000421988
9.03855e-05
-0.000421843
6.76824e-05
-0.000420985
4.48421e-05
-0.000419746
2.20325e-05
-0.000418596
-6.13795e-07
-0.000417314
-2.30198e-05
-0.000416233
-4.52173e-05
-0.000415556
-6.7235e-05
-0.000415415
-8.91545e-05
-0.000415891
-0.000111092
-0.000416953
-0.000133211
-0.000418394
-0.000155688
-0.000419752
-0.000178665
-0.000420225
-0.00020216
-0.000418617
-0.000225945
-0.000413332
-0.000249387
-0.000402468
-0.000271296
-0.000384026
-0.000289801
-0.000356273
-0.000302338
-0.000318255
-0.000305805
-0.000270417
-0.000297013
-0.000215252
-0.000273503
-0.000157649
-0.000234792
-0.000104129
-0.000183901
-6.07944e-05
-0.00012783
-3.06128e-05
-7.57813e-05
-1.24695e-05
-3.48322e-05
-3.08205e-06
-6.88002e-06
7.53835e-07
9.81092e-06
1.4355e-06
1.74659e-05
7.09483e-07
1.72651e-05
8.99064e-06
-1.71634e-06
1.74433e-05
-5.59212e-06
4.0889e-05
-1.07273e-05
5.55813e-05
-1.65465e-05
6.42254e-05
-2.27164e-05
6.90611e-05
-2.90644e-05
7.17135e-05
-3.55142e-05
7.32303e-05
-4.20455e-05
7.42165e-05
-4.86783e-05
7.50009e-05
-5.54794e-05
7.57974e-05
-6.25883e-05
7.68413e-05
-7.02528e-05
7.84888e-05
-7.88612e-05
8.12676e-05
-8.89494e-05
8.5854e-05
-0.000101161
9.29637e-05
-0.000116152
0.000103174
-0.000134462
0.000116732
-0.000156367
0.000133407
-0.000181758
0.000152434
-0.000210059
0.000172526
-0.000240219
0.000191989
-0.000270797
0.000208924
-0.00030017
0.000221537
-0.000326816
0.000228485
-0.000349589
0.000229124
-0.000367871
0.000223568
-0.000381593
0.000212539
-0.000391124
0.000197107
-0.000397114
0.000178431
-0.000400329
0.000157574
-0.00040152
0.00013539
-0.000401333
0.000112501
-0.000400264
8.93171e-05
-0.000398665
6.60832e-05
-0.000396764
4.29411e-05
-0.000394723
1.99913e-05
-0.000392775
-2.56148e-06
-0.000390727
-2.50677e-05
-0.000388805
-4.71395e-05
-0.000387197
-6.88437e-05
-0.000386111
-9.02405e-05
-0.000385785
-0.000111417
-0.000386438
-0.000132557
-0.000388209
-0.000153917
-0.000391055
-0.000175819
-0.000394635
-0.000198581
-0.000398168
-0.000222411
-0.000400339
-0.000247217
-0.000399251
-0.000272384
-0.000392512
-0.00029654
-0.000377489
-0.000317361
-0.000351772
-0.000331523
-0.000313874
-0.000334911
-0.000264135
-0.000323242
-0.00020564
-0.000293286
-0.000144774
-0.000244768
-8.99517e-05
-0.000182652
-4.82565e-05
-0.000117476
-2.16699e-05
-6.14189e-05
-7.25636e-06
-2.12935e-05
-7.98389e-07
3.35295e-06
1.05806e-06
1.56094e-05
7.03739e-07
1.76195e-05
9.69438e-06
-1.72718e-06
1.91704e-05
-5.63593e-06
4.47978e-05
-1.0825e-05
6.07704e-05
-1.67173e-05
7.01177e-05
-2.29783e-05
7.53222e-05
-2.94367e-05
7.81719e-05
-3.60209e-05
7.98145e-05
-4.27204e-05
8.0916e-05
-4.95732e-05
8.18537e-05
-5.66779e-05
8.29021e-05
-6.42237e-05
8.4387e-05
-7.25295e-05
8.67946e-05
-8.20699e-05
9.08081e-05
-9.34622e-05
9.72463e-05
-0.000107393
0.000106894
-0.000124484
0.000120265
-0.000145132
0.00013738
-0.000169356
0.000157631
-0.000196684
0.000179762
-0.000226122
0.000201965