/*--------------------------------*- C++ -*----------------------------------*\
| =========                 |                                                 |
| \\      /  F ield         | OpenFOAM: The Open Source CFD Toolbox           |
|  \\    /   O peration     | Version:  2406                                  |
|   \\  /    A nd           | Website:  www.openfoam.com                      |
|    \\/     M anipulation  |                                                 |
\*---------------------------------------------------------------------------*/
FoamFile
{
    version     2.0;
    format      ascii;
    arch        "LSB;label=32;scalar=64";
    class       volVectorField;
    location    "59";
    object      U_0;
}
// * * * * * * * * * * * * * * * * * * * * * * * * * * * * * * * * * * * * * //

dimensions      [0 1 -1 0 0 0 0];

internalField   nonuniform List<vector> 
4096
(
(-1.83459e-05 1.09364e-05 0)
(0.000368477 -9.70717e-05 0)
(0.00119675 -0.000176552 0)
(0.00219467 -0.000197614 0)
(0.00315379 -0.000170838 0)
(0.00392537 -0.000122793 0)
(0.00445013 -7.67866e-05 0)
(0.00474698 -4.75895e-05 0)
(0.00487841 -4.04825e-05 0)
(0.00491479 -5.27917e-05 0)
(0.00490673 -7.65644e-05 0)
(0.00486988 -0.000102794 0)
(0.00478281 -0.000124829 0)
(0.00459618 -0.00013952 0)
(0.00424476 -0.000145779 0)
(0.00365664 -0.000144065 0)
(0.00275718 -0.000132967 0)
(0.00146937 -0.000110446 0)
(-0.00028441 -7.40555e-05 0)
(-0.00258043 -2.20373e-05 0)
(-0.00548634 4.76747e-05 0)
(-0.00905214 0.000138075 0)
(-0.0133007 0.000256508 0)
(-0.0182158 0.000414243 0)
(-0.0237338 0.000620243 0)
(-0.0297383 0.000872247 0)
(-0.0360605 0.00115142 0)
(-0.042482 0.00142429 0)
(-0.0487427 0.00165052 0)
(-0.0545539 0.00179271 0)
(-0.0596177 0.00182374 0)
(-0.0636488 0.00172729 0)
(-0.0663932 0.00149303 0)
(-0.0676332 0.00112749 0)
(-0.0671768 0.000691796 0)
(-0.0648489 0.000183755 0)
(-0.0606312 -0.00038066 0)
(-0.0545739 -0.000962264 0)
(-0.0468116 -0.00151518 0)
(-0.0375807 -0.00199027 0)
(-0.0272259 -0.00233777 0)
(-0.0161894 -0.00251048 0)
(-0.00495329 -0.00248286 0)
(0.00584476 -0.00227504 0)
(0.0155982 -0.00180204 0)
(0.0238034 -0.00115563 0)
(0.0299905 -0.000408981 0)
(0.033882 0.00031894 0)
(0.0354434 0.000930136 0)
(0.0348484 0.00133866 0)
(0.0324845 0.00153776 0)
(0.0288736 0.0015292 0)
(0.0245796 0.00136083 0)
(0.0201252 0.00111014 0)
(0.0159084 0.000846925 0)
(0.0121721 0.000614137 0)
(0.00902013 0.000429141 0)
(0.00645391 0.000293175 0)
(0.00441319 0.000199148 0)
(0.00281218 0.000136565 0)
(0.00157299 9.14054e-05 0)
(0.000657774 4.26669e-05 0)
(8.00338e-05 -2.96283e-05 0)
(-7.94326e-05 -9.48564e-05 0)
(6.99039e-05 -0.000356235 0)
(0.00114561 -0.00118909 0)
(0.00300542 -0.00173078 0)
(0.00514807 -0.00185271 0)
(0.00715984 -0.0016289 0)
(0.00875356 -0.00121321 0)
(0.00979988 -0.00075992 0)
(0.0103053 -0.00037888 0)
(0.0103554 -0.000117927 0)
(0.0100513 3.4064e-05 0)
(0.00945571 0.000129543 0)
(0.00855983 0.000236679 0)
(0.0072784 0.000417024 0)
(0.00546763 0.000710658 0)
(0.00294738 0.00114088 0)
(-0.000477024 0.00171626 0)
(-0.00500125 0.00244168 0)
(-0.0108113 0.0033199 0)
(-0.0180634 0.00434878 0)
(-0.0268603 0.00551737 0)
(-0.0372173 0.00680193 0)
(-0.0490293 0.0081547 0)
(-0.0620522 0.00949544 0)
(-0.0759064 0.0107137 0)
(-0.0901072 0.0116857 0)
(-0.104113 0.0122967 0)
(-0.117382 0.0124567 0)
(-0.129413 0.0121076 0)
(-0.139777 0.0112246 0)
(-0.148126 0.00981385 0)
(-0.154192 0.00790923 0)
(-0.157785 0.00556851 0)
(-0.158774 0.00287051 0)
(-0.157051 -8.3788e-05 0)
(-0.152564 -0.00318205 0)
(-0.145329 -0.00636511 0)
(-0.135438 -0.009515 0)
(-0.123035 -0.0125017 0)
(-0.108341 -0.0151754 0)
(-0.0916704 -0.0173768 0)
(-0.0734369 -0.0189437 0)
(-0.0541494 -0.0197251 0)
(-0.0343902 -0.0196062 0)
(-0.0148393 -0.018559 0)
(0.00372564 -0.0165055 0)
(0.0205395 -0.0135726 0)
(0.0348959 -0.00990839 0)
(0.0461904 -0.00588743 0)
(0.0540621 -0.00185929 0)
(0.0583699 0.00177734 0)
(0.0592288 0.00468738 0)
(0.0569763 0.00670414 0)
(0.0522446 0.00775788 0)
(0.04585 0.00793754 0)
(0.0386349 0.00745981 0)
(0.0313349 0.00658614 0)
(0.0244939 0.00555158 0)
(0.0184323 0.00452672 0)
(0.0132733 0.0036112 0)
(0.00900514 0.00283737 0)
(0.00555579 0.00217343 0)
(0.00287144 0.00153018 0)
(0.000983332 0.000809059 0)
(3.1573e-05 9.69091e-05 0)
(0.000144788 -0.00112718 0)
(0.0017333 -0.00303184 0)
(0.00422598 -0.00413234 0)
(0.0069595 -0.00430143 0)
(0.00940715 -0.00371994 0)
(0.0112255 -0.00270822 0)
(0.0122588 -0.00158374 0)
(0.012497 -0.00057148 0)
(0.0120065 0.000231828 0)
(0.0108552 0.000855682 0)
(0.00904937 0.00141871 0)
(0.00649971 0.00207503 0)
(0.00301982 0.00296789 0)
(-0.00164318 0.00419478 0)
(-0.00777796 0.00580744 0)
(-0.0156747 0.00782366 0)
(-0.0255831 0.0102361 0)
(-0.0376699 0.0130118 0)
(-0.0519565 0.0160723 0)
(-0.0682596 0.019268 0)
(-0.0861632 0.0223683 0)
(-0.105051 0.0250896 0)
(-0.124195 0.0271573 0)
(-0.142875 0.0283653 0)
(-0.160454 0.0286028 0)
(-0.176429 0.0278478 0)
(-0.190425 0.0261406 0)
(-0.20218 0.0235567 0)
(-0.21152 0.0201866 0)
(-0.218333 0.0161252 0)
(-0.222548 0.011473 0)
(-0.224128 0.00634542 0)
(-0.223057 0.00087623 0)
(-0.219356 -0.00481066 0)
(-0.213007 -0.0106526 0)
(-0.204087 -0.0165053 0)
(-0.192628 -0.0222129 0)
(-0.178729 -0.027588 0)
(-0.162524 -0.0324169 0)
(-0.144225 -0.036459 0)
(-0.124122 -0.0394595 0)
(-0.102598 -0.0411669 0)
(-0.0801319 -0.0413676 0)
(-0.0573069 -0.0399307 0)
(-0.0347996 -0.0368128 0)
(-0.0133142 -0.0320705 0)
(0.00630184 -0.02595 0)
(0.0233326 -0.018844 0)
(0.0372493 -0.0112795 0)
(0.0475953 -0.00388771 0)
(0.0542267 0.00272872 0)
(0.0572076 0.00807698 0)
(0.0567595 0.0119059 0)
(0.0534335 0.0141149 0)
(0.0479723 0.0148225 0)
(0.0411906 0.0143264 0)
(0.0338696 0.0130201 0)
(0.0266543 0.0112975 0)
(0.0199886 0.00947703 0)
(0.0141117 0.00775015 0)
(0.00911355 0.00615591 0)
(0.00502898 0.00458419 0)
(0.00196722 0.00284419 0)
(0.000167478 0.000898865 0)
(0.000197404 -0.00215312 0)
(0.00212669 -0.0053392 0)
(0.00496515 -0.00698426 0)
(0.00788994 -0.0070524 0)
(0.010293 -0.00590183 0)
(0.011817 -0.0040601 0)
(0.0123122 -0.00202006 0)
(0.0117597 -0.000113236 0)
(0.0101859 0.00153529 0)
(0.00758225 0.00300392 0)
(0.00384327 0.00450477 0)
(-0.0012495 0.00629977 0)
(-0.00801012 0.00861652 0)
(-0.0167971 0.0116024 0)
(-0.0279496 0.0153107 0)
(-0.0417183 0.0197133 0)
(-0.0581757 0.0246873 0)
(-0.077126 0.0299873 0)
(-0.098058 0.0352327 0)
(-0.120195 0.039959 0)
(-0.142646 0.0437287 0)
(-0.164569 0.0462291 0)
(-0.185285 0.0473065 0)
(-0.204302 0.0469427 0)
(-0.221299 0.0452114 0)
(-0.23609 0.0422368 0)
(-0.248582 0.0381632 0)
(-0.258743 0.0331349 0)
(-0.266576 0.0272861 0)
(-0.27209 0.0207383 0)
(-0.275285 0.013608 0)
(-0.276152 0.0060158 0)
(-0.274693 -0.00191818 0)
(-0.270966 -0.0101045 0)
(-0.264917 -0.0184511 0)
(-0.256538 -0.0267933 0)
(-0.24579 -0.0349588 0)
(-0.232675 -0.0427213 0)
(-0.217214 -0.0498177 0)
(-0.199486 -0.0559374 0)
(-0.179638 -0.0607381 0)
(-0.157909 -0.0638639 0)
(-0.134647 -0.0649846 0)
(-0.110324 -0.0638443 0)
(-0.0855399 -0.0603032 0)
(-0.0610079 -0.054396 0)
(-0.0375453 -0.0464002 0)
(-0.0159264 -0.0367101 0)
(0.00306833 -0.0260408 0)
(0.0188468 -0.0151609 0)
(0.0310299 -0.00484835 0)
(0.039526 0.00416383 0)
(0.0444234 0.0113498 0)
(0.045936 0.0164455 0)
(0.044535 0.0194046 0)
(0.0408371 0.0204165 0)
(0.0355537 0.0198667 0)
(0.0294053 0.0182496 0)
(0.0230223 0.0160543 0)
(0.0168787 0.0136553 0)
(0.0112858 0.0112244 0)
(0.00645359 0.00868745 0)
(0.00264662 0.00576456 0)
(0.000262402 0.00216695 0)
(0.000243459 -0.00335625 0)
(0.00238751 -0.00790117 0)
(0.00532324 -0.00995549 0)
(0.00808255 -0.00967189 0)
(0.0100046 -0.00767273 0)
(0.01075 -0.00473364 0)
(0.0101952 -0.00151803 0)
(0.00830961 0.00156517 0)
(0.00505698 0.00441489 0)
(0.000312593 0.00720628 0)
(-0.00618257 0.0102707 0)
(-0.0147961 0.0139756 0)
(-0.0259382 0.0185994 0)
(-0.039961 0.0242653 0)
(-0.0570465 0.0309072 0)
(-0.0770863 0.0382555 0)
(-0.0995978 0.0458312 0)
(-0.12375 0.0530055 0)
(-0.148525 0.0591407 0)
(-0.172945 0.0637441 0)
(-0.196227 0.0665419 0)
(-0.217832 0.0674631 0)
(-0.237442 0.0665811 0)
(-0.254898 0.0640517 0)
(-0.27015 0.0600662 0)
(-0.283215 0.0548206 0)
(-0.294141 0.0484977 0)
(-0.302991 0.0412589 0)
(-0.309823 0.0332419 0)
(-0.314677 0.0245645 0)
(-0.317565 0.0153308 0)
(-0.318486 0.00563473 0)
(-0.317457 -0.00444447 0)
(-0.314499 -0.0148374 0)
(-0.30956 -0.0254162 0)
(-0.302563 -0.0360451 0)
(-0.293424 -0.0465368 0)
(-0.282055 -0.0566564 0)
(-0.268377 -0.0661048 0)
(-0.252332 -0.0745207 0)
(-0.233911 -0.0814847 0)
(-0.213178 -0.0865409 0)
(-0.190303 -0.0892319 0)
(-0.165598 -0.0891539 0)
(-0.139542 -0.0860233 0)
(-0.112805 -0.079757 0)
(-0.086221 -0.0705427 0)
(-0.0607229 -0.0588592 0)
(-0.0372646 -0.0455054 0)
(-0.0166554 -0.0314163 0)
(0.00052161 -0.0176226 0)
(0.0139594 -0.00499318 0)
(0.0236907 0.00572103 0)
(0.0298978 0.0140712 0)
(0.0328678 0.0198792 0)
(0.0330174 0.023199 0)
(0.0308799 0.0243149 0)
(0.0270746 0.0236961 0)
(0.0222392 0.021892 0)
(0.0169542 0.0193975 0)
(0.0116954 0.0165068 0)
(0.00685135 0.0132011 0)
(0.0028649 0.00912184 0)
(0.000291482 0.0036859 0)
(0.000291556 -0.00468225 0)
(0.00253309 -0.0105389 0)
(0.00530557 -0.0127468 0)
(0.00753345 -0.0117672 0)
(0.00854402 -0.00857957 0)
(0.00804636 -0.004239 0)
(0.00594307 0.000443845 0)
(0.00217524 0.00504275 0)
(-0.00338197 0.00955006 0)
(-0.0110076 0.0142718 0)
(-0.0211177 0.019664 0)
(-0.034158 0.0261405 0)
(-0.0504732 0.0339079 0)
(-0.0701442 0.0428677 0)
(-0.0928568 0.0525878 0)
(-0.117862 0.0623571 0)
(-0.144094 0.0713385 0)
(-0.170418 0.0787823 0)
(-0.195865 0.0841863 0)
(-0.219751 0.0873324 0)
(-0.241666 0.0882276 0)
(-0.261414 0.08702 0)
(-0.278938 0.0839288 0)
(-0.294272 0.0791985 0)
(-0.307493 0.0730683 0)
(-0.3187 0.0657562 0)
(-0.328001 0.0574516 0)
(-0.3355 0.0483128 0)
(-0.341289 0.0384691 0)
(-0.345439 0.0280236 0)
(-0.347993 0.0170547 0)
(-0.348986 0.00561727 0)
(-0.348451 -0.00624523 0)
(-0.34641 -0.0184652 0)
(-0.342813 -0.0309418 0)
(-0.33757 -0.043558 0)
(-0.330566 -0.0561476 0)
(-0.321654 -0.068488 0)
(-0.310661 -0.0802789 0)
(-0.297399 -0.0911363 0)
(-0.281688 -0.100589 0)
(-0.263382 -0.108091 0)
(-0.242409 -0.113058 0)
(-0.218829 -0.114916 0)
(-0.19289 -0.113187 0)
(-0.165091 -0.107584 0)
(-0.136206 -0.0981093 0)
(-0.107268 -0.0851541 0)
(-0.0794769 -0.0695287 0)
(-0.0540258 -0.05238 0)
(-0.0318947 -0.0350306 0)
(-0.0136808 -0.018706 0)
(0.000482311 -0.00433169 0)
(0.0108138 0.0074627 0)
(0.0176599 0.0163867 0)
(0.0213992 0.022428 0)
(0.0224627 0.0257783 0)
(0.0213469 0.0268324 0)
(0.0186072 0.0261085 0)
(0.014822 0.0241317 0)
(0.0105433 0.0212563 0)
(0.00628783 0.017494 0)
(0.00263924 0.012418 0)
(0.000258799 0.00519299 0)
(0.000339309 -0.00607283 0)
(0.00252596 -0.0130482 0)
(0.0048283 -0.0150286 0)
(0.00613039 -0.0129305 0)
(0.00579873 -0.00817361 0)
(0.00361101 -0.00209347 0)
(-0.000513348 0.00438613 0)
(-0.00669286 0.0109201 0)
(-0.0151796 0.0176447 0)
(-0.0263943 0.0250036 0)
(-0.0408102 0.0335051 0)
(-0.0587601 0.0434428 0)
(-0.0802379 0.0547084 0)
(-0.104759 0.0667403 0)
(-0.131371 0.0786335 0)
(-0.158856 0.0893828 0)
(-0.186015 0.0981522 0)
(-0.211907 0.104435 0)
(-0.23592 0.108058 0)
(-0.257724 0.109086 0)
(-0.277195 0.107728 0)
(-0.294335 0.104256 0)
(-0.309223 0.0989636 0)
(-0.321982 0.0921353 0)
(-0.332758 0.0840298 0)
(-0.341706 0.0748724 0)
(-0.348985 0.0648514 0)
(-0.354745 0.0541183 0)
(-0.359124 0.0427907 0)
(-0.362238 0.0309535 0)
(-0.364183 0.0186569 0)
(-0.365037 0.0059208 0)
(-0.364851 -0.00724227 0)
(-0.363649 -0.0207867 0)
(-0.361406 -0.0346552 0)
(-0.358051 -0.0487705 0)
(-0.353467 -0.0630144 0)
(-0.347482 -0.0772097 0)
(-0.339865 -0.0910962 0)
(-0.330334 -0.104313 0)
(-0.318557 -0.116385 0)
(-0.304186 -0.126721 0)
(-0.286888 -0.134629 0)
(-0.266406 -0.139371 0)
(-0.242639 -0.140233 0)
(-0.21574 -0.136641 0)
(-0.186212 -0.128291 0)
(-0.154979 -0.115296 0)
(-0.123359 -0.098299 0)
(-0.0929375 -0.0784965 0)
(-0.0653019 -0.0575056 0)
(-0.0416901 -0.0370443 0)
(-0.0227063 -0.018539 0)
(-0.00829103 -0.00290511 0)
(0.00204747 0.00945131 0)
(0.00889092 0.0185 0)
(0.0127556 0.0244123 0)
(0.0141232 0.0275607 0)
(0.0134856 0.0284032 0)
(0.0113846 0.0274331 0)
(0.00838703 0.0249981 0)
(0.0050768 0.0210999 0)
(0.00211353 0.0152554 0)
(0.000188665 0.00647769 0)
(0.000376204 -0.00743734 0)
(0.00229236 -0.015165 0)
(0.0037634 -0.0164222 0)
(0.00372703 -0.0127387 0)
(0.00164409 -0.00602477 0)
(-0.00265047 0.0021338 0)
(-0.00923601 0.0108038 0)
(-0.018308 0.0197683 0)
(-0.0302536 0.0293266 0)
(-0.0455338 0.039992 0)
(-0.0644774 0.0521311 0)
(-0.0870316 0.0656616 0)
(-0.112609 0.0799493 0)
(-0.14013 0.0939459 0)
(-0.168269 0.106503 0)
(-0.19578 0.116695 0)
(-0.221721 0.123991 0)
(-0.245512 0.128236 0)
(-0.266861 0.129537 0)
(-0.285677 0.128151 0)
(-0.301995 0.124403 0)
(-0.315932 0.118641 0)
(-0.327654 0.111202 0)
(-0.337359 0.102397 0)
(-0.345259 0.0924976 0)
(-0.35157 0.0817315 0)
(-0.356499 0.0702805 0)
(-0.36024 0.0582835 0)
(-0.362965 0.04584 0)
(-0.364829 0.0330118 0)
(-0.365963 0.0198242 0)
(-0.366473 0.00627213 0)
(-0.366422 -0.00765725 0)
(-0.365836 -0.021957 0)
(-0.364724 -0.0366173 0)
(-0.363055 -0.0516155 0)
(-0.360744 -0.0668964 0)
(-0.357643 -0.082353 0)
(-0.353528 -0.0978011 0)
(-0.348089 -0.112955 0)
(-0.340923 -0.127399 0)
(-0.331545 -0.140572 0)
(-0.319406 -0.151758 0)
(-0.303946 -0.160107 0)
(-0.284673 -0.164695 0)
(-0.261276 -0.164626 0)
(-0.233766 -0.159182 0)
(-0.202635 -0.148013 0)
(-0.168968 -0.131328 0)
(-0.134448 -0.110057 0)
(-0.101175 -0.0858726 0)
(-0.0712685 -0.0609585 0)
(-0.0463071 -0.0375104 0)
(-0.0269016 -0.0171604 0)
(-0.0127081 -0.000685669 0)
(-0.00289904 0.0118208 0)
(0.0034073 0.0206291 0)
(0.00689468 0.0261542 0)
(0.0080977 0.0288698 0)
(0.00756759 0.0292328 0)
(0.00587168 0.0275483 0)
(0.00361744 0.0237804 0)
(0.00147872 0.0174124 0)
(0.000110982 0.00742633 0)
(0.000385499 -0.00863594 0)
(0.00174667 -0.0165569 0)
(0.00198781 -0.0165138 0)
(0.000205261 -0.0107838 0)
(-0.00400808 -0.00174394 0)
(-0.0107453 0.00884361 0)
(-0.0201361 0.0201265 0)
(-0.032472 0.0320363 0)
(-0.0481654 0.0449724 0)
(-0.0675362 0.0593291 0)
(-0.090532 0.0750814 0)
(-0.116539 0.0915883 0)
(-0.144418 0.107712 0)
(-0.172773 0.122174 0)
(-0.200298 0.13394 0)
(-0.226021 0.142418 0)
(-0.249352 0.147445 0)
(-0.270004 0.149152 0)
(-0.2879 0.147837 0)
(-0.303099 0.143883 0)
(-0.315757 0.1377 0)
(-0.326088 0.129692 0)
(-0.334349 0.120231 0)
(-0.340813 0.109645 0)
(-0.345754 0.0982071 0)
(-0.349429 0.086136 0)
(-0.352075 0.073595 0)
(-0.353897 0.0606992 0)
(-0.355074 0.0475207 0)
(-0.355764 0.0340944 0)
(-0.356103 0.0204237 0)
(-0.356198 0.00648893 0)
(-0.356106 -0.00773966 0)
(-0.355856 -0.0222913 0)
(-0.355488 -0.0372013 0)
(-0.355015 -0.0524958 0)
(-0.354406 -0.0681793 0)
(-0.353577 -0.0842183 0)
(-0.35237 -0.10052 0)
(-0.350535 -0.116906 0)
(-0.347705 -0.133079 0)
(-0.343381 -0.148587 0)
(-0.336929 -0.162798 0)
(-0.327595 -0.174876 0)
(-0.314566 -0.183805 0)
(-0.297073 -0.188445 0)
(-0.274542 -0.187664 0)
(-0.246793 -0.180536 0)
(-0.214267 -0.166598 0)
(-0.178213 -0.146129 0)
(-0.140738 -0.120374 0)
(-0.104577 -0.0915808 0)
(-0.0725084 -0.0626478 0)
(-0.0465205 -0.0363507 0)
(-0.0271675 -0.0144885 0)
(-0.0137113 0.00241309 0)
(-0.00486855 0.0146961 0)
(0.000516964 0.0229386 0)
(0.003283 0.0277695 0)
(0.00408991 0.0296787 0)
(0.00354471 0.0289493 0)
(0.00226687 0.0255142 0)
(0.000907099 0.0188562 0)
(4.99233e-05 0.00803294 0)
(0.000347879 -0.00947808 0)
(0.000818304 -0.0168439 0)
(-0.000575522 -0.0149054 0)
(-0.00446288 -0.00670128 0)
(-0.0110832 0.00500381 0)
(-0.0205132 0.018368 0)
(-0.0329363 0.0326514 0)
(-0.0486685 0.04792 0)
(-0.0680022 0.0645032 0)
(-0.0909156 0.0824378 0)
(-0.116837 0.101138 0)
(-0.144638 0.119436 0)
(-0.172883 0.135939 0)
(-0.2002 0.149474 0)
(-0.225551 0.159348 0)
(-0.248305 0.165351 0)
(-0.268157 0.167619 0)
(-0.285033 0.166492 0)
(-0.299013 0.162413 0)
(-0.310295 0.155866 0)
(-0.319151 0.14733 0)
(-0.325898 0.137252 0)
(-0.330873 0.126021 0)
(-0.334401 0.113962 0)
(-0.336785 0.101331 0)
(-0.33829 0.0883183 0)
(-0.33914 0.0750529 0)
(-0.339518 0.0616153 0)
(-0.339575 0.0480441 0)
(-0.339438 0.0343461 0)
(-0.339215 0.0205063 0)
(-0.338988 0.00649714 0)
(-0.3388 -0.00771867 0)
(-0.338682 -0.022197 0)
(-0.338687 -0.0370006 0)
(-0.338858 -0.0521823 0)
(-0.339214 -0.0677853 0)
(-0.339741 -0.0838307 0)
(-0.340378 -0.100306 0)
(-0.340989 -0.117141 0)
(-0.341331 -0.134177 0)
(-0.341022 -0.151129 0)
(-0.339502 -0.167535 0)
(-0.336019 -0.182713 0)
(-0.329633 -0.195728 0)
(-0.319276 -0.20539 0)
(-0.303871 -0.210319 0)
(-0.282536 -0.209089 0)
(-0.254845 -0.200482 0)
(-0.221142 -0.183842 0)
(-0.182829 -0.159468 0)
(-0.142485 -0.128963 0)
(-0.10359 -0.095294 0)
(-0.069712 -0.0622769 0)
(-0.0432531 -0.0333676 0)
(-0.0245632 -0.0104379 0)
(-0.0123372 0.00642386 0)
(-0.00481305 0.0180411 0)
(-0.000570975 0.0253351 0)
(0.00137024 0.0289963 0)
(0.00176338 0.0293795 0)
(0.00126928 0.0264396 0)
(0.000514975 0.0197042 0)
(1.92748e-05 0.00837398 0)
(0.0002469 -0.00973604 0)
(-0.000536439 -0.0156537 0)
(-0.0039173 -0.0112488 0)
(-0.0101635 -0.000207555 0)
(-0.0193658 0.0144391 0)
(-0.0316057 0.0308563 0)
(-0.0470809 0.0484314 0)
(-0.0660213 0.0672335 0)
(-0.088442 0.0873113 0)
(-0.113865 0.108176 0)
(-0.141236 0.128695 0)
(-0.169127 0.147392 0)
(-0.1961 0.162931 0)
(-0.221028 0.174465 0)
(-0.243207 0.181695 0)
(-0.262296 0.18474 0)
(-0.278211 0.183972 0)
(-0.291055 0.179897 0)
(-0.301066 0.173081 0)
(-0.308576 0.164091 0)
(-0.313965 0.153457 0)
(-0.317628 0.141639 0)
(-0.319942 0.129017 0)
(-0.321243 0.115884 0)
(-0.321817 0.102455 0)
(-0.321894 0.0888712 0)
(-0.321652 0.0752192 0)
(-0.321224 0.061538 0)
(-0.320712 0.0478328 0)
(-0.320194 0.0340857 0)
(-0.319735 0.0202669 0)
(-0.319381 0.00634227 0)
(-0.31916 -0.00772966 0)
(-0.319102 -0.0220106 0)
(-0.319255 -0.0365654 0)
(-0.319668 -0.0514527 0)
(-0.320389 -0.0667287 0)
(-0.321459 -0.0824419 0)
(-0.322894 -0.0986277 0)
(-0.324671 -0.115295 0)
(-0.326695 -0.132403 0)
(-0.328761 -0.14983 0)
(-0.330505 -0.167324 0)
(-0.331353 -0.184441 0)
(-0.330477 -0.200479 0)
(-0.326788 -0.214422 0)
(-0.31898 -0.224913 0)
(-0.305668 -0.230305 0)
(-0.285626 -0.228817 0)
(-0.258133 -0.21885 0)
(-0.223393 -0.199459 0)
(-0.182951 -0.170923 0)
(-0.139909 -0.135279 0)
(-0.098627 -0.0964437 0)
(-0.0635628 -0.0594089 0)
(-0.0374402 -0.0283628 0)
(-0.0201153 -0.0050172 0)
(-0.00954904 0.011194 0)
(-0.00354322 0.0216137 0)
(-0.000497222 0.0273658 0)
(0.000663609 0.0290595 0)
(0.000731211 0.026781 0)
(0.00035168 0.0201617 0)
(2.2638e-05 0.00857044 0)
(6.5763e-05 -0.00916716 0)
(-0.00230021 -0.0126568 0)
(-0.00791821 -0.0052905 0)
(-0.016661 0.00885524 0)
(-0.0284832 0.0266256 0)
(-0.0434735 0.0462651 0)
(-0.0617696 0.0672218 0)
(-0.0833991 0.0893923 0)
(-0.108001 0.112378 0)
(-0.134658 0.135141 0)
(-0.162002 0.156173 0)
(-0.188556 0.173973 0)
(-0.213086 0.187487 0)
(-0.234788 0.196271 0)
(-0.25326 0.200387 0)
(-0.268399 0.200224 0)
(-0.28032 0.196349 0)
(-0.289296 0.189417 0)
(-0.295715 0.180093 0)
(-0.300017 0.168998 0)
(-0.302654 0.156673 0)
(-0.304046 0.143557 0)
(-0.304558 0.129986 0)
(-0.30449 0.116195 0)
(-0.30407 0.102337 0)
(-0.303465 0.0884988 0)
(-0.30279 0.0747179 0)
(-0.30212 0.0609958 0)
(-0.301502 0.047311 0)
(-0.30097 0.0336286 0)
(-0.300548 0.0199098 0)
(-0.300253 0.00611621 0)
(-0.300097 -0.00779337 0)
(-0.300104 -0.0218725 0)
(-0.300312 -0.036175 0)
(-0.300767 -0.0507523 0)
(-0.301525 -0.0656556 0)
(-0.302648 -0.0809366 0)
(-0.304196 -0.0966464 0)
(-0.306219 -0.112831 0)
(-0.30873 -0.129521 0)
(-0.311683 -0.146711 0)
(-0.314924 -0.164324 0)
(-0.318129 -0.182158 0)
(-0.320739 -0.199808 0)
(-0.321897 -0.216576 0)
(-0.320403 -0.231384 0)
(-0.314753 -0.242709 0)
(-0.303266 -0.248609 0)
(-0.284365 -0.24689 0)
(-0.257003 -0.23548 0)
(-0.221217 -0.213055 0)
(-0.178707 -0.179865 0)
(-0.133192 -0.138541 0)
(-0.0900691 -0.0942998 0)
(-0.0547539 -0.0536193 0)
(-0.0300008 -0.0213033 0)
(-0.0147604 0.00152679 0)
(-0.00617059 0.0163052 0)
(-0.00174513 0.0248026 0)
(0.000161575 0.0281577 0)
(0.000624181 0.0267679 0)
(0.000404162 0.0204543 0)
(5.57521e-05 0.00875139 0)
(-0.000199181 -0.00754154 0)
(-0.00440323 -0.00759439 0)
(-0.0123642 0.00312057 0)
(-0.0235934 0.0205004 0)
(-0.0379328 0.0414561 0)
(-0.0554222 0.0643232 0)
(-0.0760686 0.0884885 0)
(-0.0996177 0.113519 0)
(-0.125328 0.138505 0)
(-0.15196 0.161974 0)
(-0.178042 0.182283 0)
(-0.202241 0.198137 0)
(-0.223623 0.208875 0)
(-0.241699 0.214445 0)
(-0.256325 0.215222 0)
(-0.26761 0.211823 0)
(-0.275856 0.204992 0)
(-0.281492 0.195498 0)
(-0.285015 0.184069 0)
(-0.286927 0.171335 0)
(-0.287688 0.157806 0)
(-0.28769 0.143862 0)
(-0.287241 0.129763 0)
(-0.286566 0.115672 0)
(-0.28582 0.101676 0)
(-0.285096 0.0878065 0)
(-0.284447 0.074059 0)
(-0.283896 0.0604071 0)
(-0.283451 0.0468122 0)
(-0.283112 0.0332316 0)
(-0.282878 0.019624 0)
(-0.282746 0.00595177 0)
(-0.282721 -0.0078226 0)
(-0.282821 -0.0217421 0)
(-0.283072 -0.0358464 0)
(-0.28351 -0.0501738 0)
(-0.284188 -0.0647632 0)
(-0.285166 -0.079656 0)
(-0.286519 -0.0948982 0)
(-0.288324 -0.110542 0)
(-0.290655 -0.126644 0)
(-0.293562 -0.143258 0)
(-0.297041 -0.160415 0)
(-0.300986 -0.178089 0)
(-0.305123 -0.196134 0)
(-0.308927 -0.214195 0)
(-0.311529 -0.231587 0)
(-0.311655 -0.247172 0)
(-0.307633 -0.25925 0)
(-0.297514 -0.265551 0)
(-0.27938 -0.2634 0)
(-0.251858 -0.250167 0)
(-0.214829 -0.224088 0)
(-0.170211 -0.185443 0)
(-0.122504 -0.137769 0)
(-0.078364 -0.0881136 0)
(-0.0441097 -0.0447116 0)
(-0.0219161 -0.0124984 0)
(-0.00934234 0.00864091 0)
(-0.00287966 0.0210477 0)
(-1.7886e-05 0.0266958 0)
(0.000805983 0.0265554 0)
(0.000610411 0.0207649 0)
(0.000109582 0.00902378 0)
(-0.000531912 -0.00468822 0)
(-0.0066932 -0.00033419 0)
(-0.0169761 0.0139766 0)
(-0.0305608 0.0345809 0)
(-0.0471495 0.0586465 0)
(-0.0667111 0.0845517 0)
(-0.0890623 0.111492 0)
(-0.113645 0.138614 0)
(-0.139411 0.164544 0)
(-0.164961 0.187562 0)
(-0.188893 0.20612 0)
(-0.210134 0.219269 0)
(-0.228067 0.226762 0)
(-0.242479 0.228907 0)
(-0.253454 0.226347 0)
(-0.261297 0.219903 0)
(-0.26647 0.210455 0)
(-0.269514 0.198849 0)
(-0.270976 0.18582 0)
(-0.271357 0.17196 0)
(-0.271072 0.157703 0)
(-0.270439 0.143343 0)
(-0.269681 0.129055 0)
(-0.268939 0.114926 0)
(-0.268291 0.10098 0)
(-0.26777 0.0872058 0)
(-0.267381 0.0735698 0)
(-0.267112 0.0600286 0)
(-0.266949 0.0465367 0)
(-0.266876 0.0330509 0)
(-0.266877 0.0195325 0)
(-0.266944 0.00594699 0)
(-0.267079 -0.00773755 0)
(-0.267294 -0.021552 0)
(-0.267605 -0.0355235 0)
(-0.268041 -0.0496779 0)
(-0.26864 -0.0640406 0)
(-0.269454 -0.0786394 0)
(-0.270548 -0.0935069 0)
(-0.272 -0.108685 0)
(-0.273899 -0.124228 0)
(-0.276338 -0.140204 0)
(-0.279395 -0.156691 0)
(-0.283108 -0.173763 0)
(-0.287418 -0.191445 0)
(-0.292099 -0.209652 0)
(-0.296655 -0.228077 0)
(-0.300213 -0.24604 0)
(-0.301432 -0.262323 0)
(-0.298481 -0.27501 0)
(-0.289163 -0.281445 0)
(-0.271245 -0.278391 0)
(-0.243062 -0.262581 0)
(-0.204406 -0.231801 0)
(-0.157561 -0.186562 0)
(-0.108088 -0.131872 0)
(-0.0641729 -0.0773412 0)
(-0.0326777 -0.0329405 0)
(-0.0141543 -0.00262951 0)
(-0.00458441 0.015505 0)
(-0.000279879 0.0244781 0)
(0.00105773 0.0261578 0)
(0.000877349 0.0211838 0)
(0.000172761 0.00944988 0)
(-0.000893796 -0.000512438 0)
(-0.00900068 0.00912007 0)
(-0.0214501 0.0271 0)
(-0.0371243 0.0508035 0)
(-0.0555703 0.0777636 0)
(-0.0766585 0.106331 0)
(-0.09999 0.135412 0)
(-0.124739 0.16372 0)
(-0.149662 0.189544 0)
(-0.173356 0.21112 0)
(-0.19461 0.227157 0)
(-0.212651 0.237116 0)
(-0.227155 0.24115 0)
(-0.238151 0.239882 0)
(-0.245924 0.234191 0)
(-0.250946 0.225065 0)
(-0.253789 0.213473 0)
(-0.255044 0.200276 0)
(-0.255247 0.186166 0)
(-0.254841 0.17165 0)
(-0.254157 0.157063 0)
(-0.253421 0.142599 0)
(-0.252764 0.128349 0)
(-0.252253 0.114332 0)
(-0.251904 0.100528 0)
(-0.25171 0.0868948 0)
(-0.251645 0.0733841 0)
(-0.251686 0.0599467 0)
(-0.251806 0.0465381 0)
(-0.251985 0.0331193 0)
(-0.252208 0.0196569 0)
(-0.252467 0.00612163 0)
(-0.252762 -0.00751249 0)
(-0.253102 -0.0212668 0)
(-0.253499 -0.0351596 0)
(-0.253971 -0.0492071 0)
(-0.254546 -0.0634242 0)
(-0.25526 -0.0778261 0)
(-0.25616 -0.092431 0)
(-0.257308 -0.107265 0)
(-0.258781 -0.122365 0)
(-0.260672 -0.13779 0)
(-0.263089 -0.153622 0)
(-0.266136 -0.169968 0)
(-0.269889 -0.186943 0)
(-0.274338 -0.204633 0)
(-0.279299 -0.223016 0)
(-0.284303 -0.241824 0)
(-0.288456 -0.260361 0)
(-0.290328 -0.277279 0)
(-0.287919 -0.290373 0)
(-0.278781 -0.296495 0)
(-0.260391 -0.291745 0)
(-0.230865 -0.272151 0)
(-0.190048 -0.235136 0)
(-0.140865 -0.18188 0)
(-0.090382 -0.119824 0)
(-0.0485562 -0.0619962 0)
(-0.0217147 -0.0191976 0)
(-0.00756989 0.00724271 0)
(-0.0010649 0.0210701 0)
(0.00113827 0.0254142 0)
(0.00110488 0.0216817 0)
(0.000234059 0.0100365 0)
(-0.00124244 0.004991 0)
(-0.0111549 0.0206064 0)
(-0.0255084 0.0422093 0)
(-0.0428925 0.0687713 0)
(-0.0627154 0.0982792 0)
(-0.08473 0.128985 0)
(-0.10833 0.159457 0)
(-0.132491 0.188033 0)
(-0.155898 0.21282 0)
(-0.177257 0.232183 0)
(-0.195617 0.245189 0)
(-0.2105 0.251721 0)
(-0.221837 0.252297 0)
(-0.229864 0.247817 0)
(-0.235035 0.239357 0)
(-0.23794 0.22802 0)
(-0.2392 0.214806 0)
(-0.239391 0.200532 0)
(-0.238988 0.185799 0)
(-0.238342 0.171003 0)
(-0.237686 0.156369 0)
(-0.237151 0.141995 0)
(-0.236793 0.127901 0)
(-0.236622 0.114056 0)
(-0.236617 0.100412 0)
(-0.236746 0.0869131 0)
(-0.236978 0.073506 0)
(-0.237281 0.0601447 0)
(-0.237633 0.0467901 0)
(-0.238016 0.0334097 0)
(-0.238421 0.0199761 0)
(-0.238841 0.00646567 0)
(-0.23928 -0.00714243 0)
(-0.239743 -0.0208638 0)
(-0.240241 -0.0347113 0)
(-0.240785 -0.0486957 0)
(-0.241393 -0.0628252 0)
(-0.242087 -0.0771067 0)
(-0.242898 -0.0915474 0)
(-0.243864 -0.106158 0)
(-0.24504 -0.120958 0)
(-0.246496 -0.135983 0)
(-0.248328 -0.151295 0)
(-0.250652 -0.166991 0)
(-0.253598 -0.183209 0)
(-0.257277 -0.200113 0)
(-0.261726 -0.217853 0)
(-0.266806 -0.236471 0)
(-0.272058 -0.255731 0)
(-0.276544 -0.274881 0)
(-0.278708 -0.292367 0)
(-0.276335 -0.305572 0)
(-0.266706 -0.310706 0)
(-0.247037 -0.303062 0)
(-0.215339 -0.277931 0)
(-0.171763 -0.232627 0)
(-0.120319 -0.16987 0)
(-0.0702411 -0.101054 0)
(-0.0330963 -0.0430673 0)
(-0.0124276 -0.00497315 0)
(-0.00274601 0.0158183 0)
(0.000842228 0.0240058 0)
(0.00121526 0.0221181 0)
(0.000286317 0.0107406 0)
(-0.00156153 0.0116858 0)
(-0.0130174 0.0338243 0)
(-0.0289023 0.0589181 0)
(-0.0475515 0.0880142 0)
(-0.0682343 0.119627 0)
(-0.0905832 0.151863 0)
(-0.11382 0.182951 0)
(-0.136808 0.210953 0)
(-0.158259 0.233952 0)
(-0.17707 0.250565 0)
(-0.192567 0.260264 0)
(-0.204535 0.263339 0)
(-0.213122 0.260634 0)
(-0.218735 0.253282 0)
(-0.221952 0.242508 0)
(-0.223418 0.229468 0)
(-0.223744 0.215132 0)
(-0.223443 0.200224 0)
(-0.222896 0.185225 0)
(-0.222353 0.170408 0)
(-0.22195 0.155894 0)
(-0.221743 0.141701 0)
(-0.221734 0.127797 0)
(-0.221897 0.114123 0)
(-0.222195 0.100615 0)
(-0.222589 0.0872168 0)
(-0.223048 0.0738796 0)
(-0.223547 0.0605637 0)
(-0.224069 0.0472372 0)
(-0.224604 0.0338741 0)
(-0.225145 0.0204526 0)
(-0.225692 0.00695353 0)
(-0.22625 -0.00663973 0)
(-0.226825 -0.02034 0)
(-0.227425 -0.0341578 0)
(-0.228058 -0.0481011 0)
(-0.228735 -0.0621755 0)
(-0.22947 -0.0763836 0)
(-0.230278 -0.0907264 0)
(-0.23118 -0.105205 0)
(-0.232206 -0.119824 0)
(-0.2334 -0.134598 0)
(-0.234826 -0.149562 0)
(-0.236578 -0.164782 0)
(-0.238781 -0.180374 0)
(-0.241586 -0.196507 0)
(-0.245141 -0.213401 0)
(-0.249529 -0.231275 0)
(-0.254643 -0.250233 0)
(-0.26002 -0.270052 0)
(-0.264639 -0.289868 0)
(-0.266762 -0.307807 0)
(-0.2639 -0.320662 0)
(-0.25303 -0.32379 0)
(-0.231154 -0.311514 0)
(-0.196366 -0.278435 0)
(-0.149506 -0.222351 0)
(-0.0963903 -0.149128 0)
(-0.0492594 -0.0761652 0)
(-0.0196711 -0.0226947 0)
(-0.00556445 0.00789356 0)
(4.66821e-05 0.0214949 0)
(0.0011661 0.0222734 0)
(0.000327992 0.011487 0)
(-0.00180441 0.0193439 0)
(-0.01445 0.0484029 0)
(-0.0314464 0.0767879 0)
(-0.0508911 0.108037 0)
(-0.0719244 0.141258 0)
(-0.0940727 0.174392 0)
(-0.116436 0.20537 0)
(-0.137844 0.232093 0)
(-0.157114 0.252752 0)
(-0.173374 0.266293 0)
(-0.18621 0.272609 0)
(-0.195634 0.272362 0)
(-0.201967 0.266678 0)
(-0.205747 0.256877 0)
(-0.207617 0.244272 0)
(-0.208221 0.230013 0)
(-0.208116 0.214983 0)
(-0.207719 0.199781 0)
(-0.20731 0.184757 0)
(-0.20704 0.170068 0)
(-0.206972 0.155745 0)
(-0.207106 0.141752 0)
(-0.207413 0.128021 0)
(-0.207851 0.114481 0)
(-0.208381 0.10107 0)
(-0.208969 0.0877353 0)
(-0.209588 0.0744361 0)
(-0.210223 0.0611407 0)
(-0.210864 0.0478241 0)
(-0.211505 0.034466 0)
(-0.212147 0.0210486 0)
(-0.212793 0.00755616 0)
(-0.213448 -0.00602529 0)
(-0.214119 -0.0197074 0)
(-0.214812 -0.0334999 0)
(-0.215535 -0.0474104 0)
(-0.216296 -0.0614438 0)
(-0.217101 -0.075602 0)
(-0.217958 -0.0898839 0)
(-0.218875 -0.104286 0)
(-0.219863 -0.118805 0)
(-0.220942 -0.13344 0)
(-0.222148 -0.148203 0)
(-0.223537 -0.163128 0)
(-0.225202 -0.178289 0)
(-0.227278 -0.193821 0)
(-0.229938 -0.209935 0)
(-0.233368 -0.226912 0)
(-0.237689 -0.245045 0)
(-0.242816 -0.264496 0)
(-0.248246 -0.285017 0)
(-0.25282 -0.305539 0)
(-0.254543 -0.323699 0)
(-0.250585 -0.335454 0)
(-0.237596 -0.335041 0)
(-0.212466 -0.315661 0)
(-0.173664 -0.271491 0)
(-0.123325 -0.202059 0)
(-0.0702045 -0.119163 0)
(-0.0299952 -0.0477772 0)
(-0.00964735 -0.00371336 0)
(-0.00130303 0.0173585 0)
(0.000952952 0.0218837 0)
(0.000363496 0.0121916 0)
(-0.001942 0.0276975 0)
(-0.015367 0.0639231 0)
(-0.0330333 0.0953626 0)
(-0.0528107 0.128359 0)
(-0.073727 0.162679 0)
(-0.0952256 0.196109 0)
(-0.116339 0.226348 0)
(-0.135926 0.251251 0)
(-0.152965 0.26921 0)
(-0.166819 0.279548 0)
(-0.177304 0.282561 0)
(-0.184612 0.279247 0)
(-0.189201 0.270963 0)
(-0.191684 0.259163 0)
(-0.192722 0.245188 0)
(-0.192911 0.230122 0)
(-0.19272 0.214727 0)
(-0.192466 0.199464 0)
(-0.192331 0.184554 0)
(-0.192389 0.170054 0)
(-0.192648 0.15593 0)
(-0.193078 0.142109 0)
(-0.193636 0.12851 0)
(-0.19428 0.115061 0)
(-0.194975 0.101707 0)
(-0.195694 0.0884029 0)
(-0.196423 0.0751174 0)
(-0.197151 0.0618259 0)
(-0.197874 0.0485089 0)
(-0.198594 0.0351501 0)
(-0.199314 0.0217347 0)
(-0.200037 0.00824886 0)