/*--------------------------------*- C++ -*----------------------------------*\
| =========                 |                                                 |
| \\      /  F ield         | OpenFOAM: The Open Source CFD Toolbox           |
|  \\    /   O peration     | Version:  2406                                  |
|   \\  /    A nd           | Website:  www.openfoam.com                      |
|    \\/     M anipulation  |                                                 |
\*---------------------------------------------------------------------------*/
FoamFile
{
    version     2.0;
    format      ascii;
    arch        "LSB;label=32;scalar=64";
    class       surfaceScalarField;
    location    "31.75";
    object      phi_0;
}
// * * * * * * * * * * * * * * * * * * * * * * * * * * * * * * * * * * * * * //

dimensions      [0 3 -1 0 0 0 0];

oriented        oriented;

internalField   nonuniform List<scalar> 
28560
(
5.4854e-10
-5.46863e-10
5.45301e-08
-5.39815e-08
1.74788e-07
-1.20258e-07
3.47998e-07
-1.7321e-07
5.57002e-07
-2.09004e-07
7.84713e-07
-2.27711e-07
1.01596e-06
-2.3125e-07
1.23829e-06
-2.22323e-07
1.44228e-06
-2.03994e-07
1.62166e-06
-1.79383e-07
1.77311e-06
-1.51446e-07
1.8959e-06
-1.22793e-07
1.99144e-06
-9.55374e-08
2.06265e-06
-7.12162e-08
2.11341e-06
-5.07536e-08
2.14789e-06
-3.44848e-08
2.1702e-06
-2.23102e-08
2.18361e-06
-1.34065e-08
2.19043e-06
-6.81653e-09
2.19166e-06
-1.23139e-09
2.18762e-06
4.03487e-09
2.17709e-06
1.0535e-08
2.15774e-06
1.93506e-08
2.12645e-06
3.12911e-08
2.07946e-06
4.69878e-08
2.01258e-06
6.6875e-08
1.92135e-06
9.12326e-08
1.80111e-06
1.2024e-07
1.64708e-06
1.54028e-07
1.45437e-06
1.92714e-07
1.21795e-06
2.36415e-07
9.32713e-07
2.85241e-07
5.93441e-07
3.39272e-07
1.94922e-07
3.9852e-07
-2.67979e-07
4.62901e-07
-8.00184e-07
5.32205e-07
-1.40625e-06
6.06066e-07
-2.0902e-06
6.83949e-07
-2.85534e-06
7.65138e-07
-3.70406e-06
8.48727e-07
-4.63769e-06
9.33627e-07
-5.65626e-06
1.01857e-06
-6.75838e-06
1.10212e-06
-7.94109e-06
1.18271e-06
-9.19973e-06
1.25865e-06
-1.05279e-05
1.32817e-06
-1.19174e-05
1.38948e-06
-1.33581e-05
1.44074e-06
-1.48383e-05
1.48019e-06
-1.63444e-05
1.5061e-06
-1.78613e-05
1.51689e-06
-1.93724e-05
1.51107e-06
-2.08597e-05
1.48737e-06
-2.23044e-05
1.44466e-06
-2.36865e-05
1.38208e-06
-2.49854e-05
1.29896e-06
-2.61804e-05
1.19493e-06
-2.72502e-05
1.06987e-06
-2.81743e-05
9.24057e-07
-2.89323e-05
7.58054e-07
-2.95054e-05
5.73086e-07
-2.98761e-05
3.70693e-07
-3.00264e-05
1.50295e-07
-2.99405e-05
-8.58936e-08
-2.96113e-05
-3.29186e-07
-2.9029e-05
-5.82317e-07
-2.81889e-05
-8.40096e-07
-2.70906e-05
-1.09829e-06
-2.57384e-05
-1.35228e-06
-2.41412e-05
-1.59715e-06
-2.23135e-05
-1.8277e-06
-2.02749e-05
-2.03863e-06
-1.80502e-05
-2.22466e-06
-1.56694e-05
-2.38076e-06
-1.31671e-05
-2.50233e-06
-1.05817e-05
-2.58543e-06
-7.95467e-06
-2.62703e-06
-5.32952e-06
-2.62515e-06
-2.75041e-06
-2.57911e-06
-2.60848e-07
-2.48956e-06
2.09775e-06
-2.3586e-06
4.28747e-06
-2.18972e-06
6.2752e-06
-1.98773e-06
8.03375e-06
-1.75855e-06
9.54272e-06
-1.50897e-06
1.07891e-05
-1.24634e-06
1.17673e-05
-9.78238e-07
1.24794e-05
-7.12125e-07
1.29344e-05
-4.55006e-07
1.31475e-05
-2.13041e-07
1.31429e-05
4.5706e-09
1.29356e-05
2.07256e-07
1.25599e-05
3.75793e-07
1.20441e-05
5.15723e-07
1.14166e-05
6.27501e-07
1.07056e-05
7.11068e-07
9.93747e-06
7.68089e-07
9.13653e-06
8.00943e-07
8.32399e-06
8.12532e-07
7.51793e-06
8.06068e-07
6.73307e-06
7.84856e-07
5.98093e-06
7.52139e-07
5.26996e-06
7.10966e-07
4.60586e-06
6.64105e-07
3.99187e-06
6.13992e-07
3.42917e-06
5.62702e-07
2.91721e-06
5.11952e-07
2.45411e-06
4.63105e-07
2.03694e-06
4.17165e-07
1.6622e-06
3.74746e-07
1.32618e-06
3.36015e-07
1.02559e-06
3.00597e-07
7.58117e-07
2.67468e-07
5.23233e-07
2.34884e-07
3.22827e-07
2.00406e-07
1.61606e-07
1.61221e-07
4.66347e-08
1.14971e-07
-1.5009e-08
6.16437e-08
-2.265e-08
7.64105e-09
-2.265e-08
5.1937e-08
-5.24838e-08
2.40258e-07
-2.42302e-07
5.66113e-07
-4.46113e-07
1.0033e-06
-6.10397e-07
1.51697e-06
-7.22671e-07
2.07098e-06
-7.8172e-07
2.63192e-06
-7.92198e-07
3.17142e-06
-7.61821e-07
3.66728e-06
-6.99856e-07
4.10395e-06
-6.16045e-07
4.4723e-06
-5.19797e-07
4.76903e-06
-4.19529e-07
4.99565e-06
-3.22158e-07
5.15722e-06
-2.32781e-07
5.261e-06
-1.54535e-07
5.31514e-06
-8.86211e-08
5.32732e-06
-3.44911e-08
5.30405e-06
9.86289e-09
5.24933e-06
4.78999e-08
5.16484e-06
8.32636e-08
5.04876e-06
1.20107e-07
4.89676e-06
1.62541e-07
4.70189e-06
2.14224e-07
4.45503e-06
2.78147e-07
4.14543e-06
3.56588e-07
3.76115e-06
4.5115e-07
3.28951e-06
5.62879e-07
2.71733e-06
6.92417e-07
2.03121e-06
8.40151e-07
1.21762e-06
1.0063e-06
2.6307e-07
1.19096e-06
-8.45733e-07
1.39404e-06
-2.12166e-06
1.6152e-06
-3.57686e-06
1.85372e-06
-5.22238e-06
2.10841e-06
-7.06769e-06
2.37752e-06
-9.12029e-06
2.65866e-06
-1.13851e-05
2.94877e-06
-1.38641e-05
3.24414e-06
-1.65558e-05
3.54039e-06
-1.94547e-05
3.83257e-06
-2.25514e-05
4.11524e-06
-2.58318e-05
4.38255e-06
-2.92776e-05
4.62844e-06
-3.28656e-05
4.84672e-06
-3.65688e-05
5.0313e-06
-4.03556e-05
5.17628e-06
-4.4191e-05
5.27619e-06
-4.80369e-05
5.32603e-06
-5.18522e-05
5.32148e-06
-5.55943e-05
5.25892e-06
-5.92187e-05
5.13551e-06
-6.26806e-05
4.94927e-06
-6.5935e-05
4.69906e-06
-6.89375e-05
4.38459e-06
-7.1645e-05
4.00644e-06
-7.40161e-05
3.56602e-06
-7.60118e-05
3.0656e-06
-7.75961e-05
2.50831e-06
-7.87362e-05
1.89822e-06
-7.94032e-05
1.24006e-06
-7.95721e-05
5.39574e-07
-7.92265e-05
-1.95287e-07
-7.83497e-05
-9.62662e-07
-7.69321e-05
-1.74686e-06
-7.49732e-05
-2.54115e-06
-7.24779e-05
-3.33546e-06
-6.94578e-05
-4.11834e-06
-6.59324e-05
-4.87768e-06
-6.19287e-05
-5.60083e-06
-5.74817e-05
-6.27473e-06
-5.26341e-05
-6.8862e-06
-4.74365e-05
-7.4223e-06
-4.19466e-05
-7.87072e-06
-3.62287e-05
-8.22022e-06
-3.0353e-05
-8.46112e-06
-2.43942e-05
-8.58576e-06
-1.84304e-05
-8.58893e-06
-1.25412e-05
-8.46832e-06
-6.80604e-06
-8.22476e-06
-1.30216e-06
-7.86248e-06
3.89721e-06
-7.38909e-06
8.725e-06
-6.81552e-06
1.31222e-05
-6.15571e-06
1.70394e-05
-5.42617e-06
2.04384e-05
-4.64539e-06
2.32934e-05
-3.83318e-06
2.55911e-05
-3.00984e-06
2.73314e-05
-2.19539e-06
2.85274e-05
-1.40903e-06
2.91999e-05
-6.67885e-07
2.93885e-05
1.86543e-08
2.91387e-05
6.25631e-07
2.84974e-05
1.15694e-06
2.75221e-05
1.60283e-06
2.62714e-05
1.96181e-06
2.48042e-05
2.23527e-06
2.31779e-05
2.42727e-06
2.14462e-05
2.54423e-06
1.9658e-05
2.59426e-06
1.78562e-05
2.58662e-06
1.60772e-05
2.53114e-06
1.43505e-05
2.43767e-06
1.26989e-05
2.3157e-06
1.11389e-05
2.174e-06
9.68118e-06
2.02043e-06
8.33137e-06
1.86176e-06
7.09088e-06
1.7036e-06
5.95775e-06
1.55029e-06
4.92772e-06
1.40478e-06
3.99534e-06
1.26839e-06
3.15533e-06
1.1406e-06
2.40406e-06
1.01874e-06
1.74104e-06
8.97912e-07
1.17018e-06
7.71264e-07
7.00317e-07
6.31082e-07
3.44004e-07
4.71285e-07
1.13228e-07
2.9242e-07
1.06443e-08
1.10224e-07
-1.20058e-08
1.1478e-07
-1.67264e-07
4.35922e-07
-5.63444e-07
9.35178e-07
-9.45369e-07
1.57459e-06
-1.24981e-06
2.30898e-06
-1.45706e-06
3.09162e-06
-1.56436e-06
3.87869e-06
-1.57927e-06
4.63226e-06
-1.51539e-06
5.32204e-06
-1.38963e-06
5.9261e-06
-1.22011e-06
6.4308e-06
-1.0245e-06
6.83004e-06
-8.18764e-07
7.12397e-06
-6.16087e-07
7.31744e-06
-4.26255e-07
7.41823e-06
-2.55324e-07
7.43523e-06
-1.05622e-07
7.37674e-06
2.40012e-08
7.24917e-06
1.37435e-07
7.05589e-06
2.41174e-07
6.79638e-06
3.42779e-07
6.46595e-06
4.50534e-07
6.05595e-06
5.72539e-07
5.5541e-06
7.1608e-07
4.94504e-06
8.87204e-07
4.21109e-06
1.09053e-06
3.33292e-06
1.32932e-06
2.29017e-06
1.60563e-06
1.06197e-06
1.92061e-06
-3.72595e-07
2.27472e-06
-2.03415e-06
2.66786e-06
-3.94258e-06
3.09939e-06
-6.11657e-06
3.56804e-06
-8.57307e-06
4.0717e-06
-1.13266e-05
4.60723e-06
-1.43885e-05
5.1703e-06
-1.77662e-05
5.75521e-06
-2.14623e-05
6.35484e-06
-2.54743e-05
6.96071e-06
-2.97931e-05
7.56301e-06
-3.44036e-05
8.15083e-06
-3.92834e-05
8.7124e-06
-4.44035e-05
9.23536e-06
-4.97282e-05
9.70719e-06
-5.52152e-05
1.01155e-05
-6.08171e-05
1.04485e-05
-6.64812e-05
1.06954e-05
-7.21514e-05
1.08465e-05
-7.77688e-05
1.08936e-05
-8.32731e-05
1.08304e-05
-8.86036e-05
1.0652e-05
-9.37005e-05
1.03557e-05
-9.85053e-05
9.94035e-06
-0.000102962
9.40645e-06
-0.00010702
8.75615e-06
-0.000110628
7.993e-06
-0.000113743
7.12183e-06
-0.000116326
6.14866e-06
-0.000118341
5.08061e-06
-0.000119758
3.92575e-06
-0.000120553
2.69319e-06
-0.000120707
1.39344e-06
-0.000120201
3.40636e-08
-0.000119033
-1.36393e-06
-0.000117198
-2.79778e-06
-0.000114696
-4.24796e-06
-0.000111539
-5.69905e-06
-0.000107739
-7.1349e-06
-0.00010332
-8.53775e-06
-9.83085e-05
-9.88884e-06
-9.27408e-05
-1.11686e-05
-8.66587e-05
-1.23568e-05
-8.01117e-05
-1.34332e-05
-7.31562e-05
-1.43778e-05
-6.58555e-05
-1.51714e-05
-5.82793e-05
-1.57964e-05
-5.05032e-05
-1.62372e-05
-4.26079e-05
-1.64811e-05
-3.46778e-05
-1.6519e-05
-2.68001e-05
-1.6346e-05
-1.9063e-05
-1.59619e-05
-1.15541e-05
-1.53713e-05
-4.35865e-06
-1.45846e-05
2.44263e-06
-1.36168e-05
8.77517e-06
-1.24883e-05
1.45725e-05
-1.12235e-05
1.97782e-05
-9.85099e-06
2.43467e-05
-8.40171e-06
2.82454e-05
-6.90853e-06
3.14549e-05
-5.40493e-06
3.39696e-05
-3.92374e-06
3.57975e-05
-2.49575e-06
3.69654e-05
-1.1493e-06
3.75049e-05
8.61499e-08
3.74617e-05
1.20017e-06
3.68945e-05
2.17006e-06
3.58674e-05
2.98888e-06
3.44501e-05
3.65252e-06
3.2715e-05
4.16244e-06
3.07342e-05
4.52503e-06
2.85776e-05
4.75084e-06
2.63105e-05
4.85374e-06
2.39917e-05
4.84993e-06
2.16724e-05
4.75691e-06
1.93956e-05
4.59256e-06
1.71953e-05
4.37427e-06
1.50974e-05
4.11832e-06
1.31199e-05
3.83932e-06
1.12736e-05
3.54987e-06
9.56374e-06
3.26014e-06
7.99101e-06
2.97751e-06
6.55326e-06
2.70614e-06
5.24738e-06
2.44648e-06
4.07123e-06
2.19489e-06
3.02559e-06
1.94355e-06
2.1157e-06
1.68115e-06
1.35184e-06
1.39494e-06
7.48248e-07
1.07488e-06
3.19414e-07
7.21255e-07
7.32999e-08
3.56338e-07
6.12941e-08
1.65187e-07
-3.32451e-07
5.96168e-07
-9.94425e-07
1.23636e-06
-1.58556e-06
2.03225e-06
-2.0457e-06
2.92839e-06
-2.3532e-06
3.87009e-06
-2.50605e-06
4.80669e-06
-2.51587e-06
5.69437e-06
-2.40306e-06
6.49784e-06
-2.19311e-06
7.19119e-06
-1.91345e-06
7.75767e-06
-1.59099e-06
8.18889e-06
-1.24998e-06
8.48332e-06
-9.10516e-07
8.64452e-06
-5.8746e-07
8.67911e-06
-2.89917e-07
8.59472e-06
-2.12241e-08
8.39803e-06
2.20691e-07
8.09306e-06
4.42399e-07
7.68016e-06
6.54077e-07
7.15488e-06
8.68063e-07
6.50781e-06
1.0976e-06
5.72473e-06
1.35562e-06
4.7871e-06
1.65371e-06
3.67285e-06
2.00146e-06
2.35729e-06
2.40609e-06
8.14052e-07
2.87256e-06
-9.84088e-07
3.40377e-06
-3.06438e-06
4.0009e-06
-5.45337e-06
4.66371e-06
-8.17616e-06
5.39065e-06
-1.12556e-05
6.17883e-06
-1.47114e-05
7.02382e-06
-1.8559e-05
7.91933e-06
-2.28088e-05
8.857e-06
-2.74646e-05
9.82616e-06
-3.25232e-05
1.08138e-05
-3.7973e-05
1.18046e-05
-4.37935e-05
1.27812e-05
-4.99553e-05
1.37248e-05
-5.64196e-05
1.46152e-05
-6.31392e-05
1.54319e-05
-7.00587e-05
1.61549e-05
-7.71163e-05
1.67647e-05
-8.42447e-05
1.72439e-05
-9.13732e-05
1.75771e-05
-9.84293e-05
1.77515e-05
-0.00010534
1.77574e-05
-0.000112035
1.75883e-05
-0.000118445
1.72406e-05
-0.000124507
1.67137e-05
-0.000130161
1.60096e-05
-0.000135353
1.51326e-05
-0.000140036
1.40892e-05
-0.000144167
1.28873e-05
-0.00014771
1.15364e-05
-0.000150635
1.00467e-05
-0.000152916
8.42973e-06
-0.000154533
6.69742e-06
-0.00015547
4.86256e-06
-0.000155715
2.93863e-06
-0.000155262
9.39703e-07
-0.000154108
-1.11986e-06
-0.000152249
-3.22214e-06
-0.000149695
-5.35187e-06
-0.000146453
-7.49029e-06
-0.000142535
-9.61743e-06
-0.000137957
-1.17121e-05
-0.000132743
-1.37518e-05
-0.00012692
-1.57126e-05
-0.000120519
-1.75692e-05
-0.00011358
-1.92956e-05
-0.000106148
-2.08652e-05
-9.82747e-05
-2.22514e-05
-9.00176e-05
-2.34286e-05
-8.14416e-05
-2.43724e-05
-7.26176e-05
-2.50612e-05
-6.36221e-05
-2.54766e-05
-5.45367e-05
-2.56044e-05
-4.54467e-05
-2.5436e-05
-3.644e-05
-2.49685e-05
-2.76056e-05
-2.42058e-05
-1.90317e-05
-2.31585e-05
-1.08043e-05
-2.18442e-05
-3.0051e-06
-2.02875e-05
4.2902e-06
-1.85188e-05
1.10135e-05
-1.65743e-05
1.71059e-05
-1.44941e-05
2.25191e-05
-1.23217e-05
2.72162e-05
-1.01021e-05
3.11733e-05
-7.88076e-06
3.43796e-05
-5.7021e-06
3.68386e-05
-3.60829e-06
3.85629e-05
-1.63816e-06
3.95864e-05
1.76681e-07
3.99492e-05
1.80728e-06
3.9705e-05
3.2331e-06
3.89168e-05
4.44069e-06
3.76552e-05
5.42399e-06
3.59959e-05
6.18439e-06
3.40165e-05
6.73022e-06
3.17943e-05
7.07592e-06
2.94034e-05
7.24087e-06
2.69122e-05
7.24811e-06
2.43818e-05
7.12288e-06
2.18649e-05
6.89123e-06
1.94045e-05
6.57872e-06
1.70344e-05
6.2094e-06
1.47795e-05
5.80475e-06
1.26567e-05
5.38294e-06
1.06763e-05
4.95797e-06
8.84358e-06
4.53884e-06
7.16125e-06
4.12882e-06
5.63133e-06
3.72481e-06
4.25753e-06
3.31735e-06
3.04712e-06
2.89156e-06
2.01207e-06
2.42999e-06
1.1691e-06
1.91786e-06
5.38293e-07
1.35206e-06
1.41051e-07
7.5358e-07
2.02345e-07
2.0265e-07
-5.35102e-07
7.18147e-07
-1.50992e-06
1.46714e-06
-2.33456e-06
2.37991e-06
-2.95847e-06
3.3901e-06
-3.36339e-06
4.43542e-06
-3.55138e-06
5.45976e-06
-3.5402e-06
6.41519e-06
-3.3585e-06
7.26342e-06
-3.04133e-06
7.97617e-06
-2.62621e-06
8.5349e-06
-2.14972e-06
8.92961e-06
-1.64469e-06
9.15722e-06
-1.13812e-06
9.21951e-06
-6.49753e-07
9.12094e-06
-1.91346e-07
8.86638e-06
2.33338e-07
8.4591e-06
6.27972e-07
7.89896e-06
1.00254e-06
7.18122e-06
1.37181e-06
6.29572e-06
1.75357e-06
5.22666e-06
2.16665e-06
3.95301e-06
2.62927e-06
2.44918e-06
3.15754e-06
6.86106e-07
3.76453e-06
-1.36759e-06
4.45978e-06
-3.74438e-06
5.24936e-06
-6.47669e-06
6.13608e-06
-9.5957e-06
7.11991e-06
-1.31302e-05
8.19823e-06
-1.71055e-05
9.3659e-06
-2.15417e-05
1.06151e-05
-2.6453e-05
1.19351e-05
-3.18455e-05
1.33118e-05
-3.77164e-05
1.47279e-05
-4.40527e-05
1.61625e-05
-5.08304e-05
1.75915e-05
-5.80139e-05
1.89881e-05
-6.55563e-05
2.03237e-05
-7.34002e-05
2.15687e-05
-8.14789e-05
2.26938e-05
-8.97179e-05
2.36709e-05
-9.80375e-05
2.44745e-05
-0.000106355
2.50822e-05
-0.000114587
2.54759e-05
-0.000122652
2.5642e-05
-0.000130472
2.55718e-05
-0.000137975
2.52608e-05
-0.000145096
2.47091e-05
-0.000151776
2.39204e-05
-0.000157964
2.29018e-05
-0.000163617
2.16628e-05
-0.0001687
2.02149e-05
-0.000173181
1.85709e-05
-0.000177039
1.67447e-05
-0.000180253
1.47507e-05
-0.00018281
1.26037e-05
-0.000184699
1.03185e-05
-0.000185911
7.91014e-06
-0.000186443
5.39398e-06
-0.00018629
2.78549e-06
-0.000185451
1.0082e-07
-0.000183927
-2.64351e-06
-0.00018172
-5.42937e-06
-0.000178834
-8.23804e-06
-0.000175275
-1.10488e-05
-0.000171053
-1.38395e-05
-0.000166179
-1.65858e-05
-0.000160669
-1.92617e-05
-0.000154543
-2.18389e-05
-0.000147825
-2.42875e-05
-0.000140544
-2.65759e-05
-0.000132738
-2.86713e-05
-0.000124449
-3.05408e-05
-0.000115726
-3.21516e-05
-0.000106626
-3.34721e-05
-9.72138e-05
-3.44736e-05
-8.75596e-05
-3.51308e-05
-7.77406e-05
-3.54233e-05
-6.78395e-05
-3.53372e-05
-5.79428e-05
-3.48653e-05
-4.81396e-05
-3.40089e-05
-3.85203e-05
-3.27778e-05
-2.91739e-05
-3.11906e-05
-2.0187e-05
-2.92744e-05
-1.16414e-05
-2.70645e-05
-3.61251e-06
-2.46031e-05
3.83176e-06
-2.19384e-05
1.06327e-05
-1.91227e-05
1.67417e-05
-1.62111e-05
2.21209e-05
-1.326e-05
2.6744e-05
-1.03252e-05
3.05965e-05
-7.46073e-06
3.36756e-05
-4.71729e-06
3.59928e-05
-2.14052e-06
3.75708e-05
2.29308e-07
3.84447e-05
2.35912e-06
3.86619e-05
4.22354e-06
3.82799e-05
5.806e-06
3.73653e-05
7.09895e-06
3.59916e-05
8.1039e-06
3.42365e-05
8.83105e-06
3.2179e-05
9.29838e-06
2.98967e-05
9.53037e-06
2.74632e-05
9.55638e-06
2.49456e-05
9.40885e-06
2.24029e-05
9.12145e-06
1.98849e-05
8.72737e-06
1.7432e-05
8.25763e-06
1.50754e-05
7.73958e-06
1.28379e-05
7.19548e-06
1.07356e-05
6.64108e-06
8.78002e-06
6.08443e-06
6.97992e-06
5.52491e-06
5.34415e-06
4.95312e-06
3.88381e-06
4.35189e-06
2.61434e-06
3.69947e-06
1.55706e-06
2.97514e-06
7.40694e-07
2.16842e-06
2.03425e-07
1.29085e-06
4.0577e-07
2.29702e-07
-7.64803e-07
8.07525e-07
-2.08775e-06
1.63618e-06
-3.16322e-06
2.63078e-06
-3.95307e-06
3.71386e-06
-4.44647e-06
4.81548e-06
-4.65299e-06
5.87446e-06
-4.59918e-06
6.83973e-06
-4.32377e-06
7.67108e-06
-3.87269e-06
8.33914e-06
-3.29427e-06
8.82451e-06
-2.63509e-06
9.11628e-06
-1.93646e-06
9.21003e-06
-1.23187e-06
9.10551e-06
-5.45231e-07
8.80426e-06
1.09902e-07
8.30727e-06
7.30329e-07
7.61287e-06
1.32237e-06
6.71506e-06
1.90035e-06
5.60234e-06
2.48454e-06
4.25717e-06
3.09873e-06
2.6561e-06
3.76773e-06
7.70373e-07
4.51499e-06
-1.43288e-06
5.3608e-06
-3.9893e-06
6.32095e-06
-6.93572e-06
7.4062e-06
-1.03086e-05
8.62224e-06
-1.41424e-05
9.96992e-06
-1.84682e-05
1.14456e-05
-2.33114e-05
1.30415e-05
-2.86909e-05
1.47454e-05
-3.46165e-05
1.65407e-05
-4.10876e-05
1.84062e-05
-4.80917e-05
2.03159e-05
-5.56029e-05
2.22392e-05
-6.35819e-05
2.41415e-05
-7.19756e-05
2.59852e-05
-8.07185e-05
2.77309e-05
-8.97339e-05
2.93391e-05
-9.89368e-05
3.07716e-05
-0.000108237
3.19935e-05
-0.00011754
3.29744e-05
-0.000126755
3.36893e-05
-0.000135793
3.41199e-05
-0.000144571
3.42541e-05
-0.000153015
3.40864e-05
-0.00016106
3.36169e-05
-0.000168651
3.28511e-05
-0.00017574
3.17983e-05
-0.000182291
3.04714e-05
-0.000188274
2.88854e-05
-0.000193668
2.70566e-05
-0.000198456
2.50024e-05
-0.000202625
2.27403e-05
-0.000206168
2.02877e-05
-0.000209079
1.76614e-05
-0.000211353
1.48781e-05
-0.000212989
1.19537e-05
-0.000213983
8.90401e-06
-0.000214333
5.74444e-06
-0.000214038
2.49069e-06
-0.000213096
-8.41135e-07
-0.000211506
-4.23422e-06
-0.000209265
-7.67036e-06
-0.000206373
-1.11301e-05
-0.00020283
-1.45918e-05
-0.000198637
-1.80317e-05
-0.0001938
-2.14236e-05
-0.000188323
-2.47384e-05
-0.000182217
-2.79444e-05
-0.000175497
-3.10074e-05
-0.000168183
-3.38904e-05
-0.0001603
-3.65547e-05
-0.00015188
-3.89604e-05
-0.000142964
-4.10672e-05
-0.000133601
-4.28356e-05
-0.000123846
-4.42283e-05
-0.000113765
-4.52118e-05
-0.000103431
-4.57577e-05
-9.29231e-05
-4.58448e-05
-8.23283e-05
-4.54601e-05
-7.1737e-05
-4.46001e-05
-6.12427e-05
-4.32721e-05
-5.09393e-05
-4.1494e-05
-4.09189e-05
-3.92947e-05
-3.12702e-05
-3.67132e-05
-2.2076e-05
-3.37974e-05
-1.34115e-05
-3.06029e-05
-5.34342e-06
-2.71907e-05
2.07134e-06
-2.36259e-05
8.78608e-06
-1.99747e-05
1.47646e-05
-1.63037e-05
1.99812e-05
-1.26774e-05
2.44211e-05
-9.15722e-06
2.80805e-05
-5.79984e-06
3.09662e-05
-2.65645e-06
3.30968e-05
2.28542e-07
3.45017e-05
2.81862e-06
3.52218e-05
5.08591e-06
3.53085e-05
7.01223e-06
3.48229e-05
8.58954e-06
3.38338e-05
9.82011e-06
3.2416e-05
1.07163e-05
3.06469e-05
1.12994e-05
2.86046e-05
1.15987e-05
2.63641e-05
1.16493e-05
2.39956e-05
1.149e-05
2.15619e-05
1.11611e-05
1.91175e-05
1.0702e-05
1.67077e-05
1.01494e-05
1.43691e-05
9.53413e-06
1.21301e-05
8.88006e-06
1.0013e-05
8.20156e-06
8.03559e-06
7.50228e-06
6.21414e-06
6.77457e-06
4.56577e-06
6.00027e-06
3.11155e-06
5.15369e-06
1.87961e-06
4.20707e-06
9.09054e-07
3.13898e-06
2.55012e-07
1.94489e-06
6.60782e-07
2.49329e-07
-1.01413e-06
8.71578e-07
-2.71e-06
1.75453e-06
-4.04617e-06
2.79943e-06
-4.99797e-06
3.91805e-06
-5.56509e-06
5.03289e-06
-5.76784e-06
6.07804e-06
-5.64433e-06
6.99985e-06
-5.24559e-06
7.75705e-06
-4.62989e-06
8.32e-06
-3.85722e-06
8.66922e-06
-2.98431e-06
8.79338e-06
-2.06062e-06
8.68682e-06
-1.12531e-06
8.34699e-06
-2.05398e-07
7.7718e-06
6.85098e-07
6.95724e-06
1.54489e-06
5.89536e-06
2.38424e-06
4.57279e-06
3.22292e-06
2.96985e-06
4.08748e-06
1.06046e-06
5.00812e-06
-1.18725e-06
6.01544e-06
-3.80978e-06
7.13752e-06
-6.8466e-06
8.39762e-06
-1.03383e-05
9.8126e-06
-1.43243e-05
1.13923e-05
-1.88415e-05
1.31394e-05
-2.39211e-05
1.50496e-05
-2.95876e-05
1.71121e-05
-3.58558e-05
1.93097e-05
-4.27292e-05
2.16188e-05
-5.0198e-05
2.40094e-05
-5.82371e-05
2.64454e-05
-6.68061e-05
2.88848e-05
-7.58482e-05
3.12813e-05
-8.52923e-05
3.35855e-05
-9.5054e-05
3.57469e-05
-0.000105039
3.77163e-05
-0.000115148
3.94478e-05
-0.000125278
4.09012e-05
-0.000135327
4.20432e-05
-0.000145202
4.28489e-05
-0.000154814
4.33018e-05
-0.000164088
4.33936e-05
-0.000172958
4.3124e-05
-0.000181371
4.24991e-05
-0.000189284
4.15303e-05
-0.000196666
4.02332e-05
-0.000203494
3.86261e-05
-0.000209751
3.6729e-05
-0.000215429
3.45625e-05
-0.000220519
3.21475e-05
-0.000225021
2.95041e-05
-0.000228933
2.66517e-05
-0.000232253
2.36085e-05
-0.000234984
2.03918e-05
-0.000237123
1.70177e-05
-0.000238671
1.35017e-05
-0.000239626
9.85849e-06
-0.000239984
6.10271e-06
-0.000239742
2.24899e-06
-0.000238896
-1.68753e-06
-0.000237439
-5.69076e-06
-0.000235367
-9.74312e-06
-0.000232671
-1.38253e-05
-0.000229348
-1.79157e-05
-0.00022539
-2.19897e-05
-0.000220793
-2.602e-05
-0.000215556
-2.99756e-05
-0.000209678
-3.38221e-05
-0.000203164
-3.75215e-05
-0.000196022
-4.10323e-05
-0.000188267
-4.43102e-05
-0.000179919
-4.73084e-05
-0.000171007
-4.99788e-05
-0.00016157
-5.22731e-05
-0.000151653
-5.41447e-05
-0.000141315
-5.555e-05
-0.000130622
-5.64508e-05
-0.000119651
-5.68162e-05
-0.000108486
-5.66244e-05
-9.72215e-05
-5.58649e-05
-8.59542e-05
-5.45395e-05
-7.47849e-05
-5.26633e-05
-6.38146e-05
-5.0265e-05
-5.31417e-05
-4.73861e-05
-4.28591e-05
-4.40799e-05
-3.30526e-05
-4.04094e-05
-2.37983e-05
-3.64451e-05
-1.51616e-05
-3.22625e-05
-7.19706e-06
-2.79392e-05
5.22741e-08
-2.3553e-05
6.55417e-06
-1.91793e-05
1.22867e-05
-1.48897e-05
1.72378e-05
-1.0751e-05
2.1405e-05
-6.82362e-06
2.4795e-05
-3.16143e-06
2.74241e-05
1.89497e-07
2.93185e-05
3.19151e-06
3.05144e-05
5.81636e-06
3.10579e-05
8.04598e-06
3.10048e-05
9.87323e-06
3.04189e-05
1.13021e-05
2.93708e-05
1.23475e-05
2.79351e-05
1.30345e-05
2.61877e-05
1.33967e-05
2.42034e-05
1.34743e-05
2.2053e-05
1.33114e-05
1.98013e-05
1.29538e-05
1.75055e-05
1.24452e-05
1.52145e-05
1.18251e-05
1.29692e-05
1.11253e-05
1.08034e-05
1.03674e-05
8.74537e-06
9.56031e-06
6.82034e-06
8.6996e-06
5.05346e-06
7.76715e-06
3.47338e-06
6.73377e-06
2.11661e-06
5.56384e-06
1.03301e-06
4.22258e-06
2.9282e-07
2.68508e-06
9.53601e-07
2.63775e-07
-1.27791e-06
9.16071e-07
-3.36229e-06
1.83101e-06
-4.9611e-06
2.89705e-06
-6.06401e-06
4.0158e-06
-6.68385e-06
5.10268e-06
-6.85471e-06
6.08752e-06
-6.62918e-06
6.9148e-06
-6.07286e-06
7.54288e-06
-5.25796e-06
7.94254e-06
-4.25688e-06
8.09478e-06
-3.13655e-06
7.98806e-06
-1.9539e-06
7.61544e-06
-7.52685e-07
6.97152e-06
4.38516e-07
6.04978e-06
1.60684e-06
4.84012e-06
2.75455e-06
3.32705e-06
3.89731e-06
1.48859e-06
5.06138e-06
-7.04073e-07
6.28015e-06
-3.28602e-06
7.59007e-06
-6.29731e-06
9.02673e-06
-9.78107e-06
1.06213e-05
-1.37812e-05
1.23977e-05
-1.83397e-05
1.43711e-05
-2.34944e-05
1.6547e-05
-2.92762e-05
1.89211e-05
-3.57064e-05
2.14797e-05
-4.27943e-05
2.42e-05
-5.05351e-05
2.70505e-05
-5.89076e-05
2.99913e-05
-6.78728e-05
3.29747e-05
-7.7374e-05
3.59466e-05
-8.7337e-05
3.88478e-05
-9.76726e-05
4.16169e-05
-0.000108279
4.41925e-05
-0.000119049
4.65166e-05
-0.00012987
4.85372e-05
-0.000140633
5.02106e-05
-0.000151235
5.1503e-05
-0.000161583
5.23912e-05
-0.000171596
5.28628e-05
-0.000181209
5.29148e-05
-0.000190369
5.25528e-05
-0.000199034
5.17893e-05
-0.000207177
5.06419e-05
-0.000214778
4.91318e-05
-0.000221827
4.72822e-05
-0.000228318
4.51172e-05
-0.00023425
4.2661e-05
-0.000239625
3.9937e-05
-0.000244445
3.69673e-05
-0.000248713
3.37728e-05
-0.000252434
3.03727e-05
-0.000255611
2.67847e-05
-0.000258244
2.3025e-05
-0.000260335
1.91086e-05
-0.000261883
1.50497e-05
-0.000262886
1.08617e-05
-0.000263341
6.55757e-06
-0.000263242
2.15058e-06
-0.000262584
-2.34555e-06
-0.000261359
-6.91611e-06
-0.000259557
-1.15448e-05
-0.000257169
-1.62134e-05
-0.000254184
-2.0901e-05
-0.00025059
-2.55837e-05
-0.000246376
-3.02339e-05
-0.000241532
-3.48201e-05
-0.000236047
-3.93066e-05
-0.000229916
-4.36529e-05
-0.000223134
-4.78142e-05
-0.000215703
-5.17416e-05
-0.000207629
-5.53821e-05
-0.000198927
-5.86803e-05
-0.000189621
-6.15791e-05
-0.000179744
-6.40216e-05
-0.000169342
-6.59529e-05
-0.00015847
-6.73227e-05
-0.000147198
-6.80877e-05
-0.000135608
-6.82142e-05
-0.000123793
-6.76807e-05
-0.000111852
-6.64798e-05
-9.98958e-05
-6.46199e-05
-8.80347e-05
-6.21261e-05
-7.63809e-05
-5.904e-05
-6.50426e-05
-5.54182e-05
-5.4121e-05
-5.13309e-05
-4.37074e-05
-4.68587e-05
-3.38809e-05
-4.2089e-05
-2.4707e-05
-3.71132e-05
-1.62376e-05
-3.20224e-05
-8.51137e-06
-2.69055e-05
-1.55489e-06
-2.18462e-05
4.61607e-06
-1.69219e-05
9.99506e-06
-1.22026e-05
1.4584e-05
-7.75033e-06
1.83925e-05
-3.619e-06
2.14379e-05
1.46019e-07
2.37459e-05
3.50842e-06
2.53502e-05
6.44165e-06
2.62937e-05
8.92971e-06
2.6628e-05
1.09678e-05
2.64127e-05
1.25628e-05
2.57141e-05
1.37331e-05
2.46034e-05
1.45074e-05
2.31538e-05
1.49238e-05
2.14385e-05
1.50267e-05
1.95276e-05
1.48647e-05
1.74862e-05
1.44866e-05
1.53732e-05
1.39382e-05
1.324e-05
1.32585e-05
1.11315e-05
1.24759e-05
9.08647e-06
1.16053e-05
7.14016e-06
1.06459e-05
5.32693e-06
9.58038e-06
3.68428e-06
8.37641e-06
2.25779e-06
6.99033e-06
1.10744e-06
5.37293e-06
3.15444e-07
3.47708e-06
1.26905e-06
2.74346e-07
-1.55225e-06
9.44352e-07
-4.0323e-06
1.87062e-06
-5.88737e-06
2.92959e-06
-7.12298e-06
4.01351e-06
-7.76776e-06
5.0315e-06
-7.8727e-06
5.91002e-06
-7.50771e-06
6.59246e-06
-6.7553e-06
7.03759e-06
-5.7031e-06
7.21721e-06
-4.4365e-06
7.11307e-06
-3.0324e-06
6.71345e-06
-1.55428e-06
6.00968e-06
-4.89179e-08
4.99288e-06
1.45532e-06
3.65107e-06
2.94864e-06
1.96696e-06
4.43866e-06
-8.3521e-08
5.94779e-06
-2.53173e-06
7.50959e-06
-5.4158e-06
9.16422e-06
-8.77927e-06
1.09535e-05
-1.26688e-05
1.29162e-05
-1.71314e-05
1.50839e-05
-2.22112e-05
1.74776e-05
-2.79468e-05
2.01067e-05
-3.43672e-05
2.29675e-05
-4.149e-05
2.60439e-05
-4.93176e-05
2.93073e-05
-5.78353e-05
3.27177e-05
-6.70094e-05
3.62246e-05
-7.67861e-05
3.9768e-05
-8.70921e-05
4.32807e-05
-9.78361e-05
4.66905e-05
-0.000108912
4.9924e-05
-0.000120205
5.29096e-05
-0.000131594
5.55819e-05
-0.000142962
5.78841e-05
-0.000154196
5.97709e-05
-0.000165195
6.12097e-05
-0.000175873
6.21808e-05
-0.000186158
6.26766e-05
-0.000195995
6.27001e-05
-0.000205344
6.22632e-05
-0.000214176
6.13845e-05
-0.000222473
6.00871e-05
-0.000230228
5.8397e-05
-0.000237438
5.63417e-05
-0.000244105
5.39488e-05
-0.000250233
5.12453e-05
-0.000255829
4.82568e-05
-0.000260899
4.50075e-05
-0.000265451
4.15195e-05
-0.000269492
3.78132e-05
-0.000273026
3.39071e-05
-0.00027606
2.9818e-05
-0.000278596
2.55611e-05
-0.000280637
2.115e-05
-0.000282185
1.65974e-05
-0.000283238
1.19153e-05
-0.000283796
7.11504e-06
-0.000283853
2.20805e-06
-0.000283405
-2.79384e-06
-0.000282443
-7.87789e-06
-0.000280958
-1.30299e-05
-0.000278938
-1.82337e-05
-0.000276368
-2.34703e-05
-0.000273234
-2.87177e-05
-0.000269518
-3.39498e-05
-0.000265202
-3.91362e-05
-0.000260268
-4.42414e-05
-0.000254696
-4.92246e-05
-0.000248471
-5.40394e-05
-0.000241578
-5.8634e-05
-0.000234009
-6.29511e-05
-0.000225761
-6.69289e-05
-0.000216837
-7.05022e-05
-0.000207255
-7.36041e-05
-0.00019704
-7.61677e-05
-0.000186234
-7.8129e-05
-0.000174892
-7.94298e-05
-0.000163085
-8.00208e-05
-0.000150901
-7.98651e-05
-0.000138439
-7.89411e-05
-0.000125814
-7.72451e-05
-0.000113147
-7.47931e-05
-0.000100565
-7.16218e-05
-8.81959e-05
-6.77875e-05
-7.6162e-05
-6.33649e-05
-6.45771e-05
-5.84436e-05
-5.3542e-05
-5.31242e-05
-4.31415e-05
-4.75136e-05
-3.34433e-05
-4.17206e-05
-2.44976e-05
-3.58512e-05
-1.63384e-05
-3.00055e-05
-8.98522e-06
-2.42751e-05
-2.44606e-06
-1.87418e-05
3.28073e-06
-1.34771e-05
8.20435e-06
-8.54262e-06
1.23403e-05
-3.98997e-06
1.57102e-05
1.38596e-07
1.83414e-05
3.8104e-06
2.02684e-05
7.00274e-06
2.15327e-05
9.70352e-06
2.21835e-05
1.1912e-05
2.22776e-05
1.3639e-05
2.1878e-05
1.49071e-05
2.10524e-05
1.57493e-05
1.98716e-05
1.62076e-05
1.84064e-05
1.63299e-05
1.67256e-05
1.61674e-05
1.48942e-05
1.57696e-05
1.29719e-05
1.51808e-05
1.10127e-05
1.44351e-05
9.06517e-06
1.35528e-05
7.17445e-06
1.25366e-05
5.38448e-06
1.13703e-05
3.74201e-06
1.00189e-05
2.30151e-06
8.43082e-06
1.13163e-06
6.54281e-06
3.22779e-07
4.28594e-06
1.59182e-06
2.8145e-07
-1.8337e-06
9.57329e-07
-4.70818e-06
1.87437e-06
-6.80442e-06
2.89761e-06
-8.14622e-06
3.91094e-06
-8.78109e-06
4.81836e-06
-8.78012e-06
5.54411e-06
-8.23345e-06
6.0315e-06
-7.24269e-06
6.24051e-06
-5.91211e-06
6.14441e-06
-4.3404e-06
5.72579e-06
-2.61379e-06
4.97244e-06
-8.00928e-07
3.87332e-06
1.0502e-06
2.41511e-06
2.91353e-06
5.7933e-07
4.78442e-06
-1.65947e-06
6.67746e-06
-4.33458e-06
8.6229e-06
-7.48672e-06
1.06617e-05
-1.11625e-05
1.284e-05
-1.54119e-05
1.52029e-05
-2.02849e-05
1.77893e-05
-2.58278e-05
2.06267e-05
-3.20793e-05
2.3729e-05
-3.90667e-05
2.70941e-05
-4.68027e-05
3.07036e-05
-5.52823e-05
3.45235e-05
-6.44805e-05
3.85054e-05
-7.43504e-05
4.25876e-05
-8.48232e-05
4.66975e-05
-9.58096e-05
5.07544e-05
-0.000107202
5.46733e-05
-0.000118881
5.83691e-05
-0.000130718
6.17611e-05
-0.000142586
6.47773e-05
-0.000154361
6.73578e-05
-0.000165934
6.94569e-05
-0.000177208
7.10445e-05
-0.000188103
7.21049e-05
-0.000198558
7.26359e-05
-0.000208528
7.26465e-05
-0.000217982
7.21543e-05
-0.000226902
7.11835e-05
-0.00023528
6.97619e-05
-0.000243113
6.79199e-05
-0.000250404
6.56885e-05
-0.000257161
6.30985e-05
-0.000263392
6.01794e-05
-0.000269106
5.69595e-05
-0.000274314
5.34649e-05
-0.000279026
4.97198e-05
-0.000283253
4.57463e-05
-0.000287004
4.15643e-05
-0.000290289
3.71918e-05
-0.000293115
3.26446e-05
-0.000295491
2.7937e-05
-0.000297423
2.30816e-05
-0.000298915
1.80895e-05
-0.00029997
1.2971e-05
-0.000300591
7.7356e-06
-0.000300775
2.39251e-06
-0.00030052
-3.04887e-06
-0.00029982
-8.57846e-06
-0.000298665
-1.4185e-05
-0.000297043
-1.98553e-05
-0.00029494
-2.55736e-05
-0.000292337
-3.1321e-05
-0.000289212
-3.70745e-05
-0.000285542
-4.28066e-05
-0.000281299
-4.84842e-05
-0.000276455
-5.40683e-05
-0.000270981
-5.95132e-05
-0.000264849
-6.47667e-05
-0.00025803
-6.97694e-05
-0.000250504
-7.44556e-05
-0.000242252
-7.87538e-05
-0.000233268
-8.25884e-05
-0.000223555
-8.58811e-05
-0.00021313
-8.85537e-05
-0.000202028
-9.05318e-05
-0.000190301
-9.17474e-05
-0.000178022
-9.21442e-05
-0.000165283
-9.16805e-05
-0.000152194
-9.03341e-05
-0.000138882
-8.81046e-05
-0.000125488
-8.50164e-05
-0.000112156
-8.11188e-05
-9.90363e-05
-7.6485e-05
-8.62699e-05
-7.12099e-05
-7.39886e-05
-6.54055e-05
-6.23069e-05
-5.91953e-05
-5.13192e-05
-5.27083e-05
-4.10976e-05
-4.60728e-05
-3.1692e-05
-3.94111e-05
-2.31319e-05
-3.28352e-05
-1.54294e-05
-2.64442e-05
-8.58294e-06
-2.03236e-05
-2.58071e-06
-1.45449e-05
2.59629e-06
-9.16697e-06
6.97214e-06