/*--------------------------------*- C++ -*----------------------------------*\
| =========                 |                                                 |
| \\      /  F ield         | OpenFOAM: The Open Source CFD Toolbox           |
|  \\    /   O peration     | Version:  2406                                  |
|   \\  /    A nd           | Website:  www.openfoam.com                      |
|    \\/     M anipulation  |                                                 |
\*---------------------------------------------------------------------------*/
FoamFile
{
    version     2.0;
    format      ascii;
    arch        "LSB;label=32;scalar=64";
    class       volVectorField;
    location    "16.25";
    object      Uold;
}
// * * * * * * * * * * * * * * * * * * * * * * * * * * * * * * * * * * * * * //

dimensions      [0 1 -1 0 0 0 0];

internalField   nonuniform List<vector> 
3600
(
(3.77215e-05 -3.44216e-05 0)
(5.29608e-05 -1.12772e-05 0)
(-3.14307e-06 1.56027e-05 0)
(-0.000140805 3.90909e-05 0)
(-0.000325606 4.74079e-05 0)
(-0.000533437 5.22596e-05 0)
(-0.00075641 5.13347e-05 0)
(-0.000979688 5.19486e-05 0)
(-0.00121248 5.14324e-05 0)
(-0.00144527 5.3417e-05 0)
(-0.00169116 5.53012e-05 0)
(-0.00194188 5.91309e-05 0)
(-0.00220921 6.2937e-05 0)
(-0.00248543 6.81236e-05 0)
(-0.00278002 7.33034e-05 0)
(-0.00308589 7.94304e-05 0)
(-0.00340988 8.53694e-05 0)
(-0.00374467 9.15414e-05 0)
(-0.00409322 9.67377e-05 0)
(-0.00444592 0.000100763 0)
(-0.0047998 0.000102158 0)
(-0.00514042 0.000100161 0)
(-0.00545702 9.31084e-05 0)
(-0.00572855 7.99332e-05 0)
(-0.00593615 5.90832e-05 0)
(-0.0060528 2.9721e-05 0)
(-0.00605433 -8.97123e-06 0)
(-0.0059122 -5.68085e-05 0)
(-0.00560387 -0.000113046 0)
(-0.00510797 -0.000175641 0)
(-0.00441418 -0.000241653 0)
(-0.00351932 -0.000306889 0)
(-0.00243627 -0.000366474 0)
(-0.00118871 -0.000415011 0)
(0.000181866 -0.000447366 0)
(0.00162487 -0.000459254 0)
(0.00307593 -0.000447954 0)
(0.00447023 -0.000412949 0)
(0.0057387 -0.000356011 0)
(0.00682499 -0.000281449 0)
(0.00767902 -0.000195137 0)
(0.0082752 -0.000104356 0)
(0.00859876 -1.59428e-05 0)
(0.00866368 6.36114e-05 0)
(0.00848914 0.000130187 0)
(0.00811921 0.000180844 0)
(0.00758974 0.000215643 0)
(0.00695522 0.000235117 0)
(0.00624719 0.000242365 0)
(0.00551412 0.000239406 0)
(0.00476991 0.00023048 0)
(0.0040508 0.000217134 0)
(0.00334996 0.000203665 0)
(0.00269418 0.000189646 0)
(0.00206161 0.000178738 0)
(0.00148026 0.000165349 0)
(0.000933021 0.000149969 0)
(0.000472919 0.000114198 0)
(0.000129254 5.9297e-05 0)
(-2.22394e-05 -2.24906e-05 0)
(1.65422e-05 -5.52065e-05 0)
(-0.000100665 9.44612e-05 0)
(-0.000393071 0.000243574 0)
(-0.000844161 0.000372466 0)
(-0.00140858 0.000438756 0)
(-0.00203514 0.000482488 0)
(-0.00270965 0.000498483 0)
(-0.00340095 0.000514252 0)
(-0.00412046 0.00052387 0)
(-0.00485032 0.00054055 0)
(-0.00560893 0.000556991 0)
(-0.00638235 0.000579502 0)
(-0.00718695 0.000601991 0)
(-0.00800975 0.000628081 0)
(-0.00886296 0.00065325 0)
(-0.00973392 0.000679389 0)
(-0.0106298 0.000702341 0)
(-0.0115364 0.000721759 0)
(-0.0124532 0.000732451 0)
(-0.0133601 0.000731331 0)
(-0.0142452 0.000711549 0)
(-0.0150779 0.000667676 0)
(-0.0158312 0.000591923 0)
(-0.0164619 0.000478266 0)
(-0.0169289 0.000320209 0)
(-0.0171792 0.000114234 0)
(-0.0171648 -0.000141429 0)
(-0.0168333 -0.000443972 0)
(-0.0161435 -0.000786882 0)
(-0.0150595 -0.00115803 0)
(-0.0135649 -0.00154093 0)
(-0.0116579 -0.00191418 0)
(-0.00936288 -0.00225367 0)
(-0.0067239 -0.0025336 0)
(-0.00381373 -0.00272963 0)
(-0.000721955 -0.00282104 0)
(0.00243834 -0.00279387 0)
(0.00554901 -0.00264303 0)
(0.00848163 -0.00237376 0)
(0.0111221 -0.00200208 0)
(0.0133627 -0.00155296 0)
(0.015131 -0.00105855 0)
(0.0163727 -0.000553023 0)
(0.0170814 -7.01815e-05 0)
(0.0172674 0.000362796 0)
(0.0169883 0.000725227 0)
(0.0163011 0.00100777 0)
(0.0152997 0.00120784 0)
(0.0140524 0.00133321 0)
(0.0126559 0.00139343 0)
(0.011158 0.00140524 0)
(0.00963671 0.00138032 0)
(0.00810505 0.00133615 0)
(0.00662184 0.00127693 0)
(0.00517196 0.00121408 0)
(0.00381514 0.00113052 0)
(0.0025386 0.00102199 0)
(0.00144387 0.00082929 0)
(0.000567384 0.000548547 0)
(6.60378e-05 0.000133094 0)
(-2.17376e-05 1.74803e-05 0)
(-0.000319134 0.000414322 0)
(-0.000903891 0.000779073 0)
(-0.00169822 0.00107952 0)
(-0.00265673 0.00125238 0)
(-0.00370061 0.00136715 0)
(-0.00481932 0.00142315 0)
(-0.00596773 0.00147043 0)
(-0.007161 0.00150403 0)
(-0.00837316 0.00154715 0)
(-0.00962517 0.00158928 0)
(-0.0108973 0.00164024 0)
(-0.0122073 0.00169031 0)
(-0.0135377 0.00174446 0)
(-0.0149013 0.00179525 0)
(-0.0162821 0.00184459 0)
(-0.0176875 0.00188499 0)
(-0.0191001 0.00191387 0)
(-0.0205182 0.00192076 0)
(-0.0219174 0.00189727 0)
(-0.0232816 0.00182887 0)
(-0.0245727 0.00170245 0)
(-0.0257561 0.00150157 0)
(-0.0267774 0.00121272 0)
(-0.0275843 0.000823022 0)
(-0.0281102 0.000325599 0)
(-0.0282936 -0.000281473 0)
(-0.028068 -0.000990897 0)
(-0.0273788 -0.00178711 0)
(-0.0261768 -0.00264369 0)
(-0.0244342 -0.00352538 0)
(-0.0221386 -0.00438773 0)
(-0.0193075 -0.00518095 0)
(-0.0159807 -0.0058519 0)
(-0.0122322 -0.00634976 0)
(-0.00815895 -0.00662977 0)
(-0.00388915 -0.00665938 0)
(0.000435658 -0.00642201 0)
(0.00465463 -0.00592111 0)
(0.00861394 -0.00518117 0)
(0.0121601 -0.0042467 0)
(0.0151726 -0.00317864 0)
(0.0175502 -0.00204718 0)
(0.0192461 -0.000925159 0)
(0.0202388 0.00012224 0)
(0.0205676 0.00104177 0)
(0.0202833 0.0018002 0)
(0.0194883 0.00238148 0)
(0.0182675 0.00279055 0)
(0.0167445 0.00304294 0)
(0.0149936 0.00316813 0)
(0.013125 0.00319329 0)
(0.0111754 0.00315238 0)
(0.0092327 0.00306108 0)
(0.00729617 0.00293786 0)
(0.00545357 0.00275832 0)
(0.00369703 0.00250306 0)
(0.00216666 0.00207676 0)
(0.000896592 0.0014421 0)
(0.000134054 0.00050532 0)
(-6.64299e-05 0.000222061 0)
(-0.000571415 0.000993969 0)
(-0.00147713 0.00164238 0)
(-0.00262792 0.00214797 0)
(-0.0039811 0.00245111 0)
(-0.00542944 0.00265377 0)
(-0.00697305 0.00276515 0)
(-0.0085532 0.00285635 0)
(-0.0101918 0.00292446 0)
(-0.0118535 0.00300157 0)
(-0.0135623 0.00307452 0)
(-0.0152917 0.00315644 0)
(-0.0170617 0.00323471 0)
(-0.0188514 0.00331616 0)
(-0.0206771 0.0033913 0)
(-0.0225229 0.00346274 0)
(-0.0244016 0.00352026 0)
(-0.0262986 0.00355922 0)
(-0.0282184 0.00356379 0)
(-0.0301396 0.0035197 0)
(-0.0320506 0.0034038 0)
(-0.0339142 0.00319406 0)
(-0.035696 0.0028639 0)
(-0.0373374 0.00239071 0)
(-0.0387798 0.00175345 0)
(-0.0399454 0.000939909 0)
(-0.0407584 -5.41215e-05 0)
(-0.0411322 -0.00121919 0)
(-0.0409886 -0.00253307 0)
(-0.0402504 -0.00395733 0)
(-0.0388595 -0.00543968 0)
(-0.0367715 -0.00691337 0)
(-0.0339734 -0.00830206 0)
(-0.0304784 -0.00952247 0)
(-0.0263406 -0.0104921 0)
(-0.0216463 -0.0111346 0)
(-0.0165254 -0.0113893 0)
(-0.0111344 -0.0112171 0)
(-0.0056633 -0.0106085 0)
(-0.000308506 -0.0095862 0)
(0.00472307 -0.00820627 0)
(0.00925098 -0.00655421 0)
(0.0131119 -0.00473629 0)
(0.0162013 -0.00286908 0)
(0.018448 -0.00106448 0)
(0.0198555 0.000580091 0)
(0.0204522 0.0019946 0)
(0.0203345 0.00313704 0)
(0.0195925 0.00399868 0)
(0.0183678 0.0045933 0)
(0.0167568 0.00495811 0)
(0.0148989 0.00513445 0)
(0.0128556 0.00517248 0)
(0.0107451 0.00510272 0)
(0.0085844 0.00495176 0)
(0.00648908 0.00469457 0)
(0.00445643 0.00429467 0)
(0.00265792 0.00362718 0)
(0.00112563 0.00259377 0)
(0.000180342 0.00102435 0)
(-0.000107564 0.000555354 0)
(-0.000820572 0.00184584 0)
(-0.00205208 0.00285637 0)
(-0.00356195 0.00360474 0)
(-0.00530753 0.00406061 0)
(-0.00714931 0.00436396 0)
(-0.00910023 0.00454161 0)
(-0.0110869 0.00468437 0)
(-0.0131407 0.00479352 0)
(-0.0152161 0.00490846 0)
(-0.0173429 0.00501486 0)
(-0.0194886 0.00512921 0)
(-0.0216793 0.0052382 0)
(-0.0238944 0.00535188 0)
(-0.0261606 0.00546131 0)
(-0.0284694 0.00557137 0)
(-0.0308485 0.00567101 0)
(-0.0332959 0.00575418 0)
(-0.0358328 0.00579985 0)
(-0.0384514 0.00578665 0)
(-0.0411537 0.00568082 0)
(-0.0439105 0.00544796 0)
(-0.0466916 0.00504718 0)
(-0.0494345 0.00444126 0)
(-0.0520695 0.00359495 0)
(-0.0544973 0.0024839 0)
(-0.0566115 0.00109474 0)
(-0.0582849 -0.000567578 0)
(-0.0593914 -0.00247967 0)
(-0.0597997 -0.0045949 0)
(-0.0593954 -0.00684519 0)
(-0.0580785 -0.00913983 0)
(-0.0557854 -0.011371 0)
(-0.052486 -0.0134171 0)
(-0.0482024 -0.0151525 0)
(-0.0430026 -0.0164554 0)
(-0.0370148 -0.017221 0)
(-0.030412 -0.0173707 0)
(-0.0234206 -0.0168653 0)
(-0.0162923 -0.0157114 0)
(-0.00930602 -0.0139664 0)
(-0.0027262 -0.0117354 0)
(0.00319533 -0.00916288 0)
(0.00826922 -0.0064175 0)
(0.0123511 -0.00367206 0)
(0.0153894 -0.00108518 0)
(0.0173779 0.00121798 0)
(0.0184002 0.00315316 0)
(0.0185509 0.00468418 0)
(0.0179911 0.00581414 0)
(0.0168434 0.00658189 0)
(0.0152812 0.00704217 0)
(0.0133963 0.00726108 0)
(0.0113407 0.00728856 0)
(0.00915385 0.00716053 0)
(0.00698024 0.0068579 0)
(0.00482804 0.00632468 0)
(0.00289823 0.00540994 0)
(0.00123042 0.00393673 0)
(0.000197073 0.00164223 0)
(-0.000150025 0.00102185 0)
(-0.00107627 0.00297378 0)
(-0.00263511 0.00441464 0)
(-0.00450105 0.00543094 0)
(-0.00663007 0.00604876 0)
(-0.00884997 0.00645495 0)
(-0.0111877 0.00670103 0)
(-0.0135551 0.00689641 0)
(-0.0159946 0.00704766 0)
(-0.0184515 0.00720029 0)
(-0.0209639 0.00734066 0)
(-0.023497 0.00749007 0)
(-0.0260891 0.00763823 0)
(-0.0287276 0.00780182 0)
(-0.0314594 0.00797668 0)
(-0.0342949 0.00817338 0)
(-0.0372893 0.00838301 0)
(-0.040466 0.00859944 0)
(-0.0438751 0.0087964 0)
(-0.0475319 0.00894316 0)
(-0.0514585 0.00899114 0)
(-0.0556351 0.00888698 0)
(-0.0600312 0.00856679 0)
(-0.0645686 0.00796815 0)
(-0.0691477 0.00702969 0)
(-0.073623 0.00570243 0)
(-0.0778288 0.00395219 0)
(-0.081568 0.00176974 0)
(-0.0846396 -0.000826936 0)
(-0.0868365 -0.00378583 0)
(-0.0879733 -0.00702209 0)
(-0.0878863 -0.0104166 0)
(-0.0864567 -0.0138226 0)
(-0.0836094 -0.0170703 0)
(-0.0793319 -0.0199787 0)
(-0.0736691 -0.0223655 0)
(-0.0667405 -0.0240641 0)
(-0.0587283 -0.0249362 0)
(-0.0498896 -0.0248909 0)
(-0.040532 -0.0238962 0)
(-0.0310152 -0.0219913 0)
(-0.0217074 -0.0192875 0)
(-0.0129787 -0.0159627 0)
(-0.00514075 -0.0122435 0)
(0.0015501 -0.00837916 0)
(0.00695202 -0.00461219 0)
(0.0109988 -0.00114863 0)
(0.0137464 0.00186063 0)
(0.0152899 0.00433174 0)
(0.0158136 0.00624304 0)
(0.0154766 0.0076265 0)
(0.0144965 0.00854747 0)
(0.0130078 0.00908822 0)
(0.0112058 0.00932222 0)
(0.0091629 0.0092987 0)
(0.00705646 0.00901065 0)
(0.00491461 0.00838483 0)
(0.00296414 0.00724559 0)
(0.00125946 0.00533106 0)
(0.000200112 0.00228023 0)
(-0.000191034 0.00161907 0)
(-0.0013272 0.00437637 0)
(-0.00320699 0.00631751 0)
(-0.00542027 0.00762881 0)
(-0.00792106 0.00841787 0)
(-0.010504 0.00892777 0)
(-0.0132102 0.00924209 0)
(-0.0159367 0.00948863 0)
(-0.0187388 0.00968159 0)
(-0.0215545 0.00987279 0)
(-0.0244357 0.0100532 0)
(-0.027351 0.0102523 0)
(-0.0303609 0.010469 0)
(-0.0334717 0.0107322 0)
(-0.0367647 0.0110486 0)
(-0.0402835 0.0114387 0)
(-0.0441258 0.0118989 0)
(-0.0483534 0.0124226 0)
(-0.0530552 0.0129754 0)
(-0.0582737 0.0135099 0)
(-0.0640481 0.013952 0)
(-0.0703552 0.0142148 0)
(-0.0771422 0.0141939 0)
(-0.0842835 0.0137826 0)
(-0.0916124 0.0128752 0)
(-0.0988975 0.0113827 0)
(-0.10588 0.00923999 0)
(-0.11227 0.00642036 0)
(-0.117782 0.00293968 0)
(-0.12214 -0.00113633 0)
(-0.125105 -0.00569497 0)
(-0.12647 -0.0105776 0)
(-0.126083 -0.015589 0)
(-0.123836 -0.020503 0)
(-0.119687 -0.0250761 0)
(-0.113648 -0.0290569 0)
(-0.105811 -0.0322046 0)
(-0.0963407 -0.0343037 0)
(-0.0854937 -0.0351878 0)
(-0.0736061 -0.0347577 0)
(-0.0611011 -0.0330045 0)
(-0.0484501 -0.0300182 0)
(-0.0361615 -0.0259932 0)
(-0.024709 -0.0212108 0)
(-0.0145145 -0.0160111 0)
(-0.00586742 -0.0107499 0)
(0.00105671 -0.00575201 0)
(0.00625152 -0.00127406 0)
(0.00979745 0.00251908 0)
(0.0119013 0.00555772 0)
(0.0127694 0.00785338 0)
(0.0126789 0.00947801 0)
(0.0118259 0.0105313 0)
(0.0104633 0.0111165 0)
(0.00871287 0.0113028 0)
(0.00679353 0.0111028 0)
(0.00476555 0.0104313 0)
(0.00288252 0.00909168 0)
(0.0012205 0.00674142 0)
(0.000189698 0.002924 0)
(-0.000233666 0.00234968 0)
(-0.00158037 0.0060518 0)
(-0.00377531 0.00855548 0)
(-0.00632594 0.0101817 0)
(-0.00918455 0.0111447 0)
(-0.0121142 0.0117541 0)
(-0.015171 0.0121325 0)
(-0.0182384 0.0124269 0)
(-0.021387 0.012662 0)
(-0.0245516 0.0128981 0)
(-0.0278046 0.0131366 0)
(-0.0311277 0.0134214 0)
(-0.0346157 0.0137694 0)
(-0.0383088 0.0142289 0)
(-0.0423386 0.0148252 0)
(-0.0467976 0.0155931 0)
(-0.0518398 0.0165351 0)
(-0.0575733 0.0176403 0)
(-0.0641262 0.0188565 0)
(-0.0715573 0.0201041 0)
(-0.0798994 0.0212623 0)
(-0.089089 0.0221847 0)
(-0.0990029 0.0227 0)
(-0.109415 0.0226325 0)
(-0.120042 0.0218146 0)
(-0.130533 0.0201105 0)
(-0.140528 0.0174303 0)
(-0.149658 0.013746 0)
(-0.157596 0.00909318 0)
(-0.164046 0.00357196 0)
(-0.168768 -0.00266231 0)
(-0.17156 -0.00940511 0)
(-0.17227 -0.0164141 0)
(-0.170779 -0.0234142 0)
(-0.16701 -0.0301086 0)
(-0.16093 -0.0361845 0)
(-0.152567 -0.0413284 0)
(-0.142015 -0.0452392 0)
(-0.12947 -0.0476545 0)
(-0.115229 -0.0483742 0)
(-0.0997182 -0.0472952 0)
(-0.0834699 -0.0444366 0)
(-0.0671166 -0.0399622 0)
(-0.051318 -0.034178 0)
(-0.0367205 -0.02751 0)
(-0.0238455 -0.0204506 0)
(-0.0130663 -0.0134918 0)
(-0.00452546 -0.00705459 0)
(0.00179755 -0.00144061 0)
(0.00611429 0.00318996 0)
(0.00868416 0.00680247 0)
(0.00986035 0.00946497 0)
(0.00992393 0.0112949 0)
(0.00920711 0.0124323 0)
(0.00790228 0.0129763 0)
(0.00628396 0.0129694 0)
(0.0044593 0.0123249 0)
(0.00271206 0.0108308 0)
(0.00114694 0.00807617 0)
(0.000174925 0.00352327 0)
(-0.000275308 0.00321011 0)
(-0.00182722 0.00799127 0)
(-0.00432678 0.0111167 0)
(-0.00720116 0.0130769 0)
(-0.0104021 0.0142166 0)
(-0.0136629 0.0149223 0)
(-0.0170554 0.0153621 0)
(-0.0204517 0.0157042 0)
(-0.0239414 0.0159887 0)
(-0.0274625 0.0162893 0)
(-0.031117 0.0166266 0)
(-0.034912 0.0170687 0)
(-0.0389926 0.0176612 0)
(-0.0434486 0.0184815 0)
(-0.0484789 0.0195802 0)
(-0.0542373 0.0210075 0)
(-0.0609399 0.0227674 0)
(-0.0687358 0.0248306 0)
(-0.0777724 0.0271048 0)
(-0.0880871 0.0294466 0)
(-0.0996512 0.0316519 0)
(-0.112293 0.0334771 0)
(-0.125748 0.0346521 0)
(-0.139634 0.0349152 0)
(-0.153523 0.0340403 0)
(-0.16696 0.0318697 0)
(-0.179526 0.028328 0)
(-0.190851 0.0234277 0)
(-0.20064 0.0172584 0)
(-0.208655 0.00997552 0)
(-0.214723 0.00178319 0)
(-0.218695 -0.00707542 0)
(-0.220458 -0.0163282 0)
(-0.219897 -0.0256757 0)
(-0.216912 -0.0347948 0)
(-0.211405 -0.043338 0)
(-0.203304 -0.05094 0)
(-0.19258 -0.0572244 0)
(-0.179285 -0.061826 0)
(-0.163579 -0.0644168 0)
(-0.145781 -0.0647491 0)
(-0.126378 -0.0626996 0)
(-0.106046 -0.0583193 0)
(-0.0855971 -0.0518612 0)
(-0.0659292 -0.0437861 0)
(-0.0478876 -0.0347169 0)
(-0.0321761 -0.0253559 0)
(-0.0192131 -0.016369 0)
(-0.00914427 -0.00828652 0)
(-0.00181099 -0.00143697 0)
(0.00308824 0.00404811 0)
(0.00599832 0.00820953 0)
(0.00731515 0.011179 0)
(0.00747968 0.0131417 0)
(0.00678365 0.0142412 0)
(0.00557811 0.0145646 0)
(0.00403527 0.014039 0)
(0.00247828 0.0124487 0)
(0.0010483 0.00933218 0)
(0.000156286 0.00408585 0)
(-0.000317814 0.00420332 0)
(-0.00207144 0.0101932 0)
(-0.00486512 0.0139939 0)
(-0.00804962 0.0163033 0)
(-0.0115774 0.0176205 0)
(-0.015155 0.0184191 0)
(-0.0188715 0.0189199 0)
(-0.0225915 0.0193158 0)
(-0.0264285 0.0196693 0)
(-0.0303321 0.0200752 0)
(-0.0344456 0.0205858 0)
(-0.0388163 0.021305 0)
(-0.0436554 0.0223203 0)
(-0.0491189 0.0237462 0)
(-0.0554839 0.025662 0)
(-0.0629687 0.0281268 0)
(-0.0718401 0.0311285 0)
(-0.082258 0.0345889 0)
(-0.0943364 0.0383337 0)
(-0.108017 0.0421057 0)
(-0.123123 0.0455675 0)
(-0.13929 0.0483403 0)
(-0.156056 0.0500426 0)
(-0.172868 0.0503472 0)
(-0.189198 0.0490201 0)
(-0.204557 0.0459462 0)
(-0.21857 0.0411247 0)
(-0.230954 0.0346539 0)
(-0.241533 0.0267031 0)
(-0.250196 0.0174901 0)
(-0.256891 0.00725912 0)
(-0.261573 -0.00372857 0)
(-0.264197 -0.0152015 0)
(-0.264688 -0.026873 0)
(-0.262935 -0.0384369 0)
(-0.258784 -0.0495556 0)
(-0.252053 -0.0598555 0)
(-0.242548 -0.0689215 0)
(-0.230112 -0.0763075 0)
(-0.214663 -0.0815555 0)
(-0.196273 -0.0842391 0)
(-0.175216 -0.0840195 0)
(-0.152037 -0.0807235 0)
(-0.127553 -0.0744163 0)
(-0.102835 -0.0654612 0)
(-0.0790762 -0.0545229 0)
(-0.0574464 -0.0425023 0)
(-0.0388521 -0.0303865 0)
(-0.0238226 -0.0190697 0)
(-0.0124093 -0.00919097 0)
(-0.00433612 -0.00108448 0)
(0.000932546 0.00520789 0)
(0.00394282 0.00981668 0)
(0.00528651 0.0129812 0)
(0.00539508 0.0149087 0)
(0.00472669 0.0157521 0)
(0.0035425 0.0154745 0)
(0.00221966 0.0138737 0)
(0.000946409 0.0104597 0)
(0.000139422 0.00458588 0)
(-0.000358455 0.00532027 0)
(-0.00230478 0.0126392 0)
(-0.00537806 0.0171642 0)
(-0.00885629 0.0198368 0)
(-0.0126946 0.0213337 0)
(-0.0165757 0.0222252 0)
(-0.0206083 0.0227927 0)
(-0.0246543 0.0232593 0)
(-0.0288578 0.0237194 0)
(-0.0331902 0.0243006 0)
(-0.0378497 0.0251016 0)
(-0.0429391 0.0262771 0)
(-0.0487508 0.0279681 0)
(-0.0555171 0.0303307 0)
(-0.0635937 0.0334666 0)
(-0.0732464 0.0374214 0)
(-0.0847533 0.0421288 0)
(-0.098219 0.0474065 0)
(-0.113634 0.0529327 0)
(-0.130742 0.0582726 0)
(-0.149124 0.0629115 0)
(-0.168173 0.0663296 0)
(-0.187235 0.0680757 0)
(-0.205655 0.0678338 0)
(-0.2229 0.0654496 0)
(-0.238559 0.0609269 0)
(-0.252397 0.0543946 0)
(-0.264298 0.0460676 0)
(-0.274272 0.0362053 0)
(-0.282382 0.0250823 0)
(-0.288733 0.0129654 0)
(-0.293412 0.000107036 0)
(-0.296476 -0.0132559 0)
(-0.297913 -0.0268904 0)
(-0.297642 -0.0405542 0)
(-0.295482 -0.0539743 0)
(-0.291175 -0.066829 0)
(-0.284378 -0.0787277 0)
(-0.274715 -0.0892027 0)
(-0.261808 -0.0977116 0)
(-0.245369 -0.103664 0)
(-0.225283 -0.106473 0)
(-0.201726 -0.10565 0)
(-0.175248 -0.100909 0)
(-0.146838 -0.0923042 0)
(-0.117873 -0.0803235 0)
(-0.0899821 -0.065911 0)
(-0.0647461 -0.0503533 0)
(-0.0434013 -0.0350391 0)
(-0.0265441 -0.0211418 0)
(-0.014144 -0.00941392 0)
(-0.00565043 -0.000116239 0)
(-0.000344507 0.00682825 0)
(0.00257343 0.0117161 0)
(0.00373394 0.0148438 0)
(0.00374996 0.0164635 0)
(0.0030055 0.0166056 0)
(0.00195573 0.0151075 0)
(0.000850013 0.011477 0)
(0.000125257 0.00504446 0)
(-0.000398768 0.00656456 0)
(-0.00252967 0.0153293 0)
(-0.00586753 0.0206246 0)
(-0.00962337 0.0236739 0)
(-0.0137566 0.0253545 0)
(-0.0179303 0.0263441 0)
(-0.0222754 0.0269932 0)
(-0.0266574 0.027563 0)
(-0.0312584 0.0281925 0)
(-0.0360839 0.0290566 0)
(-0.0413996 0.0303181 0)
(-0.0473781 0.0321958 0)
(-0.0544015 0.0348917 0)
(-0.0627768 0.0385969 0)
(-0.0729179 0.043411 0)
(-0.0850929 0.0493203 0)
(-0.0995163 0.0561375 0)
(-0.116136 0.0634957 0)
(-0.134707 0.070849 0)
(-0.154681 0.0775352 0)
(-0.175357 0.0828652 0)
(-0.195909 0.0862396 0)
(-0.215583 0.0872382 0)
(-0.23374 0.085665 0)
(-0.249963 0.0815372 0)
(-0.264026 0.0750402 0)
(-0.275911 0.0664666 0)
(-0.285727 0.0561572 0)
(-0.293694 0.044453 0)
(-0.300058 0.0316646 0)
(-0.305079 0.0180554 0)
(-0.308967 0.00384032 0)
(-0.311883 -0.0108078 0)
(-0.313893 -0.0257412 0)
(-0.314971 -0.0408178 0)
(-0.314969 -0.0558743 0)
(-0.31362 -0.0706988 0)
(-0.310522 -0.0849986 0)
(-0.305153 -0.0983718 0)
(-0.296896 -0.110285 0)
(-0.285103 -0.120069 0)
(-0.269185 -0.126946 0)
(-0.248756 -0.130095 0)
(-0.223792 -0.128781 0)
(-0.194802 -0.12253 0)
(-0.162927 -0.111331 0)
(-0.129941 -0.0958173 0)
(-0.0980207 -0.0773094 0)
(-0.0693437 -0.057646 0)
(-0.0455295 -0.0387535 0)
(-0.0272836 -0.0221634 0)
(-0.0143361 -0.00866792 0)
(-0.00586257 0.00159366 0)
(-0.000803638 0.00894274 0)
(0.00175385 0.0137936 0)
(0.00265054 0.0165463 0)
(0.00244563 0.0173451 0)
(0.00170936 0.0161056 0)
(0.000773607 0.0123651 0)
(0.000117836 0.00545563 0)
(-0.000435721 0.00791933 0)
(-0.00273727 0.0182335 0)
(-0.00632051 0.0243402 0)
(-0.0103349 0.0277795 0)
(-0.0147462 0.0296509 0)
(-0.0192019 0.0307499 0)
(-0.0238584 0.0315064 0)
(-0.0285917 0.0322297 0)
(-0.0336304 0.0331192 0)
(-0.0390263 0.0344141 0)
(-0.0451239 0.0363586 0)
(-0.052174 0.0392454 0)
(-0.0606456 0.0433346 0)
(-0.0708996 0.048827 0)
(-0.0833599 0.0557703 0)
(-0.0982183 0.0640147 0)
(-0.11552 0.0731585 0)
(-0.134941 0.0825595 0)
(-0.155911 0.0913914 0)
(-0.177558 0.098771 0)
(-0.198944 0.103912 0)
(-0.219141 0.106258 0)
(-0.237436 0.105552 0)
(-0.253346 0.101827 0)
(-0.266693 0.0953416 0)
(-0.277515 0.0864975 0)
(-0.286053 0.0757518 0)
(-0.292645 0.0635495 0)
(-0.297693 0.0502793 0)
(-0.301577 0.0362515 0)
(-0.304653 0.0216935 0)
(-0.307203 0.00675899 0)
(-0.309443 -0.00845827 0)
(-0.311495 -0.0239045 0)
(-0.313399 -0.039545 0)
(-0.31508 -0.0553402 0)
(-0.31635 -0.071216 0)
(-0.316866 -0.0870303 0)
(-0.316127 -0.10253 0)
(-0.313447 -0.117308 0)
(-0.30798 -0.130761 0)
(-0.298766 -0.14207 0)
(-0.284856 -0.150211 0)
(-0.265483 -0.154045 0)
(-0.240318 -0.152481 0)
(-0.209727 -0.144742 0)
(-0.17499 -0.130688 0)
(-0.13833 -0.111121 0)
(-0.102647 -0.0878863 0)
(-0.0708634 -0.0635839 0)
(-0.0451021 -0.0408838 0)
(-0.0260625 -0.0216694 0)
(-0.0131661 -0.00671995 0)
(-0.00513246 0.00414829 0)
(-0.00067344 0.0114689 0)
(0.00138478 0.0158572 0)
(0.00185702 0.0176395 0)
(0.00148725 0.0168692 0)
(0.000722456 0.0131533 0)
(0.000118169 0.00584931 0)
(-0.000470871 0.00938901 0)
(-0.0029296 0.0213539 0)
(-0.00673784 0.0283128 0)
(-0.0109914 0.0321582 0)
(-0.0156639 0.0342331 0)
(-0.0203925 0.0354621 0)
(-0.0253618 0.0363662 0)
(-0.0304661 0.0373162 0)
(-0.0359884 0.0385895 0)
(-0.0420366 0.0405076 0)
(-0.0490405 0.04341 0)
(-0.0573272 0.0476628 0)
(-0.0674322 0.0535622 0)
(-0.0797252 0.0612671 0)
(-0.0945637 0.0706914 0)
(-0.111961 0.0814456 0)
(-0.131681 0.092812 0)
(-0.153046 0.103808 0)
(-0.175136 0.113334 0)
(-0.196822 0.120375 0)
(-0.217065 0.124192 0)
(-0.235001 0.124429 0)
(-0.250127 0.121121 0)
(-0.262252 0.114608 0)
(-0.271515 0.105422 0)
(-0.278249 0.0941666 0)
(-0.282938 0.0814193 0)
(-0.286084 0.067671 0)
(-0.288184 0.0532991 0)
(-0.289659 0.0385652 0)
(-0.290862 0.0236283 0)
(-0.292054 0.00856622 0)
(-0.293436 -0.00660334 0)
(-0.295129 -0.0219035 0)
(-0.297212 -0.0373808 0)
(-0.299685 -0.0530911 0)
(-0.302485 -0.0690778 0)
(-0.305428 -0.0853499 0)
(-0.308192 -0.101838 0)
(-0.310247 -0.118349 0)
(-0.310827 -0.134487 0)
(-0.308897 -0.149599 0)
(-0.3032 -0.162699 0)
(-0.292372 -0.172484 0)
(-0.275175 -0.177398 0)
(-0.250839 -0.175871 0)
(-0.219476 -0.166682 0)
(-0.18245 -0.149485 0)
(-0.14251 -0.125293 0)
(-0.103443 -0.0966786 0)
(-0.0691169 -0.0673313 0)
(-0.0421584 -0.0408167 0)
(-0.0231368 -0.0193815 0)
(-0.010913 -0.00349017 0)
(-0.00379601 0.00738165 0)
(-0.000152523 0.0141309 0)
(0.00120597 0.0173603 0)
(0.00128581 0.0173512 0)
(0.000700752 0.0138373 0)
(0.000128637 0.00623359 0)
(-0.000500583 0.010947 0)
(-0.00309611 0.0246461 0)
(-0.00710383 0.0324931 0)
(-0.011573 0.0367612 0)
(-0.0164869 0.0390566 0)
(-0.0214766 0.0404442 0)
(-0.0267581 0.0415495 0)
(-0.0322513 0.0428194 0)
(-0.0382997 0.0446286 0)
(-0.0450742 0.0473961 0)
(-0.0530881 0.0515626 0)
(-0.0627286 0.0575513 0)
(-0.0745575 0.0656482 0)
(-0.0888842 0.0758889 0)
(-0.105904 0.0879463 0)
(-0.125349 0.10108 0)
(-0.146626 0.114181 0)
(-0.16869 0.125926 0)
(-0.190349 0.135034 0)
(-0.210366 0.14052 0)
(-0.227795 0.141875 0)
(-0.242022 0.139096 0)
(-0.252895 0.132596 0)
(-0.260592 0.123053 0)
(-0.265585 0.11124 0)
(-0.268457 0.0978906 0)
(-0.26984 0.0836173 0)
(-0.27029 0.0688736 0)
(-0.270285 0.0539578 0)
(-0.27017 0.0390365 0)
(-0.270204 0.0241781 0)
(-0.270547 0.00938407 0)
(-0.271315 -0.00538533 0)
(-0.272577 -0.0201962 0)
(-0.274401 -0.0351298 0)
(-0.27683 -0.0502815 0)
(-0.279903 -0.0657524 0)
(-0.283611 -0.0816471 0)
(-0.287875 -0.0980438 0)
(-0.292464 -0.114964 0)
(-0.296931 -0.132293 0)
(-0.300513 -0.149698 0)
(-0.302074 -0.166495 0)
(-0.300095 -0.181565 0)
(-0.292785 -0.193275 0)
(-0.278356 -0.199578 0)
(-0.255474 -0.19827 0)
(-0.223878 -0.187544 0)
(-0.184962 -0.166754 0)
(-0.14209 -0.13722 0)
(-0.100141 -0.102583 0)
(-0.0640897 -0.0679726 0)
(-0.0369822 -0.0380715 0)
(-0.0189035 -0.0151274 0)
(-0.00802772 0.000846443 0)
(-0.00216171 0.0110087 0)
(0.000407537 0.0163501 0)
(0.00107541 0.0175115 0)
(0.000701232 0.0144357 0)
(0.000148728 0.00663954 0)
(-0.000526628 0.0125983 0)
(-0.00323875 0.0281143 0)
(-0.0074183 0.0368874 0)
(-0.0120782 0.0416004 0)
(-0.0172117 0.0441408 0)
(-0.0224496 0.0457266 0)
(-0.0280406 0.0471027 0)
(-0.0339369 0.0488085 0)
(-0.0405447 0.0513338 0)
(-0.0480985 0.055205 0)
(-0.0571807 0.0609561 0)
(-0.0682072 0.0690285 0)
(-0.0817067 0.0796227 0)
(-0.0978465 0.092544 0)
(-0.11657 0.107108 0)
(-0.137259 0.122138 0)
(-0.158955 0.136121 0)
(-0.180324 0.14748 0)
(-0.200062 0.154927 0)
(-0.217025 0.157712 0)
(-0.230553 0.155729 0)
(-0.240424 0.149429 0)
(-0.246903 0.139633 0)
(-0.250533 0.127304 0)
(-0.252044 0.113362 0)
(-0.25215 0.0985592 0)
(-0.251502 0.0834368 0)
(-0.250585 0.0683268 0)
(-0.24975 0.0533939 0)
(-0.249189 0.0386833 0)
(-0.249008 0.0241707 0)
(-0.24923 0.00979598 0)
(-0.249864 -0.00451035 0)
(-0.250902 -0.0188212 0)
(-0.252369 -0.0332075 0)
(-0.254309 -0.0477508 0)
(-0.256813 -0.0625448 0)
(-0.259983 -0.077713 0)
(-0.263932 -0.0933965 0)
(-0.268713 -0.109754 0)
(-0.27426 -0.126902 0)
(-0.280264 -0.144852 0)
(-0.286055 -0.163358 0)
(-0.290468 -0.181773 0)
(-0.291784 -0.198839 0)
(-0.287803 -0.212596 0)
(-0.276139 -0.220393 0)
(-0.254816 -0.219255 0)
(-0.223094 -0.206615 0)
(-0.182409 -0.181479 0)
(-0.136862 -0.145693 0)
(-0.0926978 -0.104418 0)
(-0.0560748 -0.0647901 0)
(-0.0301217 -0.0323936 0)
(-0.0139727 -0.00917528 0)
(-0.0049607 0.00590896 0)
(-0.00068491 0.0143205 0)
(0.000798091 0.0172347 0)
(0.000707591 0.0149229 0)
(0.000177505 0.00707536 0)
(-0.000544551 0.0143042 0)
(-0.00334461 0.031696 0)
(-0.00766174 0.0414275 0)
(-0.0124813 0.0466078 0)
(-0.0178071 0.0494219 0)
(-0.0232733 0.0512524 0)
(-0.0291625 0.0529793 0)
(-0.0354624 0.0552498 0)
(-0.0426411 0.0586827 0)
(-0.0509885 0.0639114 0)
(-0.0611315 0.0715372 0)
(-0.0734689 0.0819575 0)
(-0.0884275 0.095191 0)
(-0.105955 0.110698 0)
(-0.125681 0.127344 0)
(-0.146632 0.143482 0)
(-0.167556 0.157268 0)
(-0.18698 0.167042 0)
(-0.203685 0.17172 0)
(-0.216816 0.170982 0)
(-0.226131 0.165249 0)
(-0.231858 0.155454 0)
(-0.234654 0.142765 0)
(-0.235324 0.128314 0)
(-0.234721 0.113032 0)
(-0.233545 0.0975659 0)
(-0.232337 0.0822919 0)
(-0.231412 0.0673631 0)
(-0.230935 0.052788 0)
(-0.230917 0.038494 0)
(-0.231312 0.0243841 0)
(-0.232017 0.0103653 0)
(-0.232949 -0.00363163 0)
(-0.234033 -0.0176563 0)
(-0.235251 -0.0317387 0)
(-0.236624 -0.045913 0)
(-0.238248 -0.0602219 0)
(-0.240267 -0.0747503 0)
(-0.242888 -0.089623 0)
(-0.246336 -0.105035 0)
(-0.250824 -0.121216 0)
(-0.256452 -0.138418 0)
(-0.263089 -0.156781 0)
(-0.27019 -0.176212 0)
(-0.276611 -0.1961 0)
(-0.280481 -0.21509 0)
(-0.279206 -0.23082 0)
(-0.269813 -0.239952 0)
(-0.249622 -0.238556 0)
(-0.217432 -0.223167 0)
(-0.17477 -0.192494 0)
(-0.126789 -0.149285 0)
(-0.0813464 -0.101072 0)
(-0.045743 -0.0572696 0)
(-0.022401 -0.0240857 0)
(-0.0089909 -0.00198043 0)
(-0.00228952 0.010858 0)
(0.000359757 0.0163524 0)
(0.000689046 0.0152596 0)
(0.000210763 0.00755508 0)
(-0.000556632 0.0160705 0)
(-0.0034163 0.0353976 0)
(-0.00783375 0.046124 0)
(-0.0127791 0.051801 0)
(-0.0182658 0.0549252 0)
(-0.0239357 0.057056 0)
(-0.0301032 0.0592241 0)
(-0.0367932 0.0621992 0)
(-0.0445268 0.066736 0)
(-0.0536334 0.0735612 0)
(-0.0647478 0.0832982 0)
(-0.0781992 0.0962165 0)
(-0.0942486 0.112045 0)
(-0.112574 0.129798 0)
(-0.132481 0.14784 0)
(-0.152701 0.164104 0)
(-0.17182 0.176564 0)
(-0.188414 0.183688 0)
(-0.201529 0.184815 0)
(-0.210725 0.180195 0)
(-0.216229 0.170813 0)
(-0.218676 0.158024 0)
(-0.219002 0.143214 0)
(-0.218126 0.127531 0)
(-0.216869 0.111776 0)
(-0.21579 0.0963865 0)
(-0.215233 0.0815159 0)
(-0.215301 0.0671226 0)
(-0.215968 0.0530728 0)
(-0.217089 0.0392061 0)
(-0.2185 0.0253883 0)
(-0.220018 0.0115246 0)
(-0.221502 -0.00242778 0)
(-0.222835 -0.016477 0)
(-0.223971 -0.0305981 0)
(-0.224905 -0.0447644 0)
(-0.22571 -0.0589499 0)
(-0.22652 -0.0731723 0)
(-0.227556 -0.0874908 0)
(-0.229099 -0.102061 0)
(-0.231498 -0.117115 0)
(-0.235104 -0.133001 0)
(-0.240191 -0.15009 0)
(-0.246799 -0.168725 0)
(-0.254508 -0.188939 0)
(-0.262209 -0.21021 0)
(-0.267857 -0.231002 0)
(-0.268494 -0.248501 0)
(-0.260512 -0.258491 0)
(-0.24061 -0.255921 0)
(-0.207155 -0.236339 0)
(-0.162111 -0.198357 0)
(-0.112024 -0.146521 0)
(-0.0667881 -0.091627 0)
(-0.0341901 -0.0457153 0)
(-0.0147825 -0.0137899 0)
(-0.00468704 0.00533972 0)
(-0.000362764 0.0145736 0)
(0.00060427 0.0153397 0)
(0.000243297 0.00806292 0)
(-0.000557585 0.0178441 0)
(-0.00343874 0.0391344 0)
(-0.00791155 0.0508841 0)
(-0.0129413 0.0570866 0)
(-0.0185494 0.0605585 0)
(-0.0243876 0.0630472 0)
(-0.0307986 0.0657476 0)
(-0.037841 0.0695609 0)
(-0.0460757 0.0753755 0)
(-0.0558485 0.0839823 0)
(-0.0677614 0.0959642 0)
(-0.0820254 0.111371 0)
(-0.0986903 0.129546 0)
(-0.117152 0.148994 0)
(-0.136437 0.167595 0)
(-0.155089 0.182979 0)
(-0.171697 0.193131 0)
(-0.185047 0.196867 0)
(-0.194575 0.194108 0)
(-0.200301 0.185737 0)
(-0.202876 0.173255 0)
(-0.203228 0.158305 0)
(-0.202415 0.142323 0)
(-0.201315 0.126318 0)
(-0.200593 0.110849 0)
(-0.20059 0.0960862 0)
(-0.201423 0.0819485 0)
(-0.202994 0.0682238 0)
(-0.205126 0.0546775 0)
(-0.207569 0.0411059 0)
(-0.210096 0.0273751 0)
(-0.21249 0.0134158 0)
(-0.214593 -0.000772423 0)
(-0.216276 -0.0151499 0)
(-0.217478 -0.0296361 0)
(-0.218172 -0.0441476 0)
(-0.218405 -0.0585905 0)
(-0.218269 -0.0729117 0)
(-0.217948 -0.0870859 0)
(-0.217698 -0.101188 0)
(-0.217879 -0.115375 0)
(-0.218933 -0.129973 0)
(-0.221347 -0.145415 0)
(-0.22556 -0.162285 0)
(-0.231769 -0.181084 0)
(-0.239683 -0.202063 0)
(-0.248151 -0.224688 0)
(-0.25495 -0.247213 0)
(-0.25663 -0.266131 0)
(-0.249024 -0.276143 0)
(-0.228171 -0.27085 0)
(-0.192399 -0.244822 0)
(-0.144463 -0.197296 0)
(-0.0931227 -0.135834 0)
(-0.050272 -0.0760898 0)
(-0.0228732 -0.030971 0)
(-0.00819636 -0.00304799 0)
(-0.00151289 0.0114963 0)
(0.000405339 0.0150098 0)
(0.000267395 0.0085728 0)
(-0.000550693 0.0196324 0)
(-0.00341666 0.0429163 0)
(-0.00789668 0.0557241 0)
(-0.0129658 0.0624877 0)
(-0.0186501 0.0663506 0)
(-0.0246134 0.069258 0)
(-0.0312193 0.0725807 0)
(-0.0385541 0.0773559 0)
(-0.047199 0.0845931 0)
(-0.0574887 0.0951063 0)
(-0.0699531 0.109365 0)