/*--------------------------------*- C++ -*----------------------------------*\
| =========                 |                                                 |
| \\      /  F ield         | OpenFOAM: The Open Source CFD Toolbox           |
|  \\    /   O peration     | Version:  2406                                  |
|   \\  /    A nd           | Website:  www.openfoam.com                      |
|    \\/     M anipulation  |                                                 |
\*---------------------------------------------------------------------------*/
FoamFile
{
    version     2.0;
    format      ascii;
    arch        "LSB;label=32;scalar=64";
    class       volScalarField;
    location    "20.6";
    object      p;
}
// * * * * * * * * * * * * * * * * * * * * * * * * * * * * * * * * * * * * * //

dimensions      [0 2 -2 0 0 0 0];

internalField   nonuniform List<scalar> 
3600
(
0.0281431
0.0281449
0.0281307
0.0281082
0.0280735
0.0280309
0.0279796
0.0279211
0.0278556
0.0277841
0.0277072
0.0276259
0.0275412
0.0274541
0.0273655
0.0272764
0.0271878
0.0271009
0.0270172
0.0269385
0.026867
0.0268052
0.0267557
0.0267211
0.0267035
0.026704
0.0267226
0.0267571
0.0268036
0.0268554
0.0269037
0.0269377
0.0269459
0.0269166
0.0268397
0.0267081
0.026519
0.0262743
0.0259811
0.0256511
0.0252988
0.0249402
0.0245908
0.0242638
0.023969
0.0237127
0.0234967
0.0233206
0.0231808
0.0230734
0.0229923
0.0229339
0.0228918
0.0228648
0.0228466
0.0228399
0.0228372
0.0228456
0.0228523
0.0228655
0.0281412
0.0281426
0.0281283
0.0281066
0.0280733
0.0280322
0.0279824
0.0279255
0.0278619
0.0277924
0.0277181
0.0276398
0.0275586
0.0274753
0.0273909
0.027306
0.0272216
0.0271386
0.0270581
0.0269818
0.0269114
0.0268489
0.0267968
0.0267572
0.0267321
0.0267226
0.0267289
0.0267495
0.0267807
0.0268168
0.0268497
0.0268695
0.026865
0.0268254
0.0267409
0.0266049
0.0264145
0.0261721
0.0258847
0.0255638
0.0252239
0.0248805
0.0245481
0.024239
0.0239617
0.0237213
0.0235187
0.0233529
0.02322
0.0231165
0.0230366
0.0229775
0.022933
0.0229029
0.0228806
0.0228696
0.0228612
0.0228645
0.0228651
0.0228786
0.0281562
0.0281564
0.0281416
0.0281189
0.0280855
0.0280438
0.0279939
0.0279365
0.0278726
0.0278027
0.0277281
0.0276496
0.0275684
0.0274852
0.0274008
0.0273158
0.0272308
0.0271465
0.027064
0.0269845
0.0269098
0.0268419
0.0267833
0.0267366
0.026704
0.0266874
0.0266874
0.026703
0.0267311
0.0267661
0.0267999
0.0268222
0.0268216
0.0267861
0.0267053
0.0265716
0.0263816
0.0261371
0.0258453
0.0255183
0.0251715
0.0248217
0.0244847
0.0241738
0.0238979
0.023662
0.0234665
0.0233093
0.0231855
0.0230907
0.0230184
0.0229656
0.0229259
0.0228993
0.0228787
0.0228691
0.0228605
0.0228651
0.0228652
0.022885
0.0281805
0.028177
0.0281616
0.0281373
0.028104
0.0280619
0.0280122
0.0279545
0.0278906
0.0278204
0.0277459
0.0276674
0.0275865
0.0275035
0.027419
0.0273331
0.0272462
0.0271583
0.0270701
0.0269823
0.0268966
0.0268149
0.0267398
0.0266744
0.0266217
0.0265844
0.0265643
0.0265616
0.0265742
0.0265973
0.0266238
0.0266435
0.026645
0.0266159
0.0265448
0.0264228
0.0262452
0.0260122
0.02573
0.0254103
0.0250683
0.0247218
0.0243876
0.0240804
0.0238101
0.0235822
0.0233968
0.0232514
0.02314
0.0230573
0.0229957
0.0229519
0.0229189
0.0228972
0.0228792
0.0228711
0.0228616
0.0228665
0.0228648
0.0228894
0.0282193
0.0282105
0.0281942
0.0281672
0.0281334
0.0280896
0.0280389
0.0279794
0.0279136
0.0278411
0.0277642
0.0276829
0.0275988
0.0275116
0.0274217
0.0273285
0.0272316
0.0271302
0.0270245
0.0269146
0.026802
0.0266888
0.0265783
0.0264746
0.0263822
0.0263058
0.0262489
0.026214
0.026201
0.026207
0.026226
0.0262491
0.0262646
0.0262596
0.0262208
0.026137
0.026
0.0258068
0.0255602
0.0252693
0.024948
0.024614
0.0242855
0.0239794
0.0237082
0.02348
0.0232964
0.0231559
0.0230522
0.0229794
0.0229288
0.0228961
0.0228731
0.0228603
0.022849
0.0228465
0.0228401
0.0228483
0.0228475
0.0228766
0.0282672
0.0282517
0.0282346
0.0282044
0.0281703
0.0281247
0.0280731
0.0280113
0.0279434
0.0278678
0.0277874
0.0277015
0.0276114
0.0275161
0.027415
0.0273061
0.0271878
0.0270579
0.0269151
0.0267589
0.0265903
0.026412
0.0262284
0.0260455
0.025871
0.0257126
0.0255782
0.0254739
0.0254036
0.0253682
0.0253645
0.0253855
0.0254209
0.0254572
0.0254794
0.0254727
0.0254241
0.0253246
0.0251704
0.0249642
0.0247153
0.0244381
0.0241502
0.0238699
0.023613
0.0233913
0.0232106
0.0230723
0.0229719
0.0229043
0.0228606
0.0228361
0.0228213
0.0228163
0.0228114
0.022814
0.0228107
0.0228214
0.0228211
0.0228518
0.028325
0.0283017
0.0282839
0.0282502
0.0282156
0.0281673
0.0281139
0.0280486
0.0279769
0.0278957
0.0278085
0.0277133
0.0276108
0.027498
0.0273729
0.0272309
0.0270682
0.0268803
0.0266644
0.0264186
0.0261443
0.0258455
0.0255297
0.0252071
0.0248905
0.0245936
0.0243301
0.0241118
0.0239482
0.0238447
0.0238023
0.023817
0.0238803
0.0239792
0.0240973
0.0242161
0.0243167
0.024382
0.0243983
0.0243579
0.0242597
0.0241103
0.0239224
0.0237134
0.0235017
0.0233044
0.0231337
0.0229973
0.0228956
0.0228271
0.0227841
0.0227626
0.0227525
0.0227533
0.0227542
0.0227621
0.0227628
0.0227762
0.0227773
0.022808
0.0283884
0.0283564
0.0283385
0.028301
0.0282663
0.0282153
0.0281598
0.0280901
0.0280131
0.027924
0.027826
0.0277151
0.0275904
0.0274457
0.0272759
0.0270727
0.0268285
0.0265357
0.0261895
0.025788
0.0253344
0.0248369
0.024309
0.0237684
0.0232356
0.0227323
0.0222793
0.0218953
0.0215953
0.0213898
0.0212841
0.0212779
0.0213657
0.0215364
0.0217741
0.0220585
0.0223662
0.0226722
0.0229517
0.0231826
0.0233482
0.0234396
0.0234568
0.0234092
0.0233134
0.0231906
0.0230609
0.0229422
0.0228443
0.0227731
0.0227258
0.0227011
0.0226897
0.0226911
0.0226938
0.0227038
0.0227067
0.0227209
0.0227227
0.0227514
0.028455
0.0284137
0.0283959
0.0283547
0.0283198
0.0282653
0.0282068
0.0281308
0.0280457
0.0279438
0.0278276
0.0276895
0.0275253
0.0273239
0.0270751
0.026765
0.0263816
0.0259144
0.0253583
0.0247143
0.0239919
0.0232077
0.0223853
0.0215528
0.0207403
0.0199777
0.0192925
0.0187085
0.0182445
0.0179142
0.0177258
0.0176822
0.0177809
0.0180142
0.0183694
0.0188282
0.0193674
0.0199585
0.0205692
0.0211644
0.0217093
0.0221733
0.0225338
0.0227804
0.0229167
0.02296
0.022936
0.0228745
0.0228005
0.0227336
0.0226815
0.0226493
0.0226312
0.0226278
0.0226278
0.0226366
0.0226393
0.0226528
0.0226545
0.0226803
0.0285198
0.0284684
0.0284514
0.0284066
0.0283718
0.0283135
0.0282509
0.0281664
0.028069
0.0279473
0.0278013
0.0276179
0.0273874
0.0270912
0.0267123
0.0262302
0.0256295
0.0248995
0.0240397
0.0230601
0.0219821
0.0208362
0.0196594
0.0184911
0.0173705
0.0163331
0.0154098
0.0146251
0.013998
0.0135417
0.0132644
0.0131697
0.0132577
0.0135244
0.0139621
0.0145589
0.0152974
0.0161539
0.0170975
0.0180889
0.0190819
0.0200255
0.0208694
0.0215708
0.0221027
0.0224602
0.0226605
0.0227398
0.0227402
0.022703
0.0226552
0.022616
0.0225872
0.0225738
0.0225659
0.0225686
0.0225674
0.0225774
0.0225776
0.0225997
0.028577
0.0285152
0.0284995
0.0284509
0.0284158
0.0283524
0.0282834
0.0281862
0.0280694
0.027916
0.0277217
0.027465
0.0271281
0.0266829
0.0261047
0.0253684
0.0244592
0.0233731
0.0221225
0.0207338
0.019247
0.0177092
0.0161711
0.0146808
0.0132818
0.0120096
0.0108924
0.0099506
0.00919835
0.00864449
0.00829408
0.00814924
0.00821021
0.00847565
0.00894289
0.0096073
0.0104614
0.0114928
0.0126821
0.0139995
0.0154026
0.0168349
0.0182274
0.0195051
0.0205976
0.0214537
0.0220542
0.0224179
0.0225928
0.0226441
0.0226286
0.022592
0.0225532
0.0225265
0.0225059
0.0224982
0.0224894
0.0224934
0.0224905
0.0225091
0.0286197
0.0285468
0.028533
0.0284806
0.0284448
0.0283747
0.028296
0.0281799
0.0280331
0.0278306
0.0275607
0.0271909
0.0266929
0.0260289
0.0251689
0.0240889
0.0227838
0.0212661
0.0195706
0.0177468
0.0158552
0.013958
0.0121139
0.0103726
0.00877407
0.00734721
0.00611196
0.00508051
0.00425965
0.00365215
0.00325859
0.00307818
0.00310994
0.00335306
0.0038075
0.00447376
0.00535256
0.00644333
0.00774204
0.0092374
0.0109061
0.0127071
0.0145776
0.0164311
0.0181646
0.0196724
0.0208703
0.021719
0.0222362
0.0224911
0.0225723
0.0225666
0.0225264
0.0224863
0.0224497
0.0224274
0.0224072
0.0224026
0.0223948
0.0224101
0.0286384
0.0285543
0.0285425
0.0284854
0.0284473
0.0283671
0.028273
0.0281281
0.0279351
0.0276581
0.0272752
0.0267404
0.0260149
0.0250537
0.0238288
0.0223275
0.0205663
0.0185849
0.0164464
0.0142241
0.0119942
0.0098253
0.00777416
0.00588295
0.00418084
0.00268537
0.00140605
0.000346298
-0.000493803
-0.00111643
-0.00152446
-0.00172103
-0.00170865
-0.00148895
-0.00106194
-0.000425861
0.000423262
0.00149121
0.00278473
0.00430901
0.00606359
0.00803554
0.0101909
0.0124655
0.0147591
0.0169389
0.0188581
0.0203905
0.0214694
0.0221148
0.0224179
0.0225083
0.0224922
0.0224456
0.022392
0.0223524
0.0223175
0.0223021
0.0222877
0.0223001
0.0286233
0.0285279
0.028518
0.0284554
0.0284127
0.028318
0.0282005
0.0280133
0.0277522
0.0273673
0.0268241
0.0260629
0.0250374
0.0237032
0.0220459
0.0200772
0.0178457
0.0154243
0.0129025
0.0103697
0.00790604
0.00557422
0.00341924
0.00146874
-0.000261957
-0.00176703
-0.00304573
-0.00410065
-0.00493541
-0.00555432
-0.00596138
-0.00616051
-0.00615496
-0.00594739
-0.00553917
-0.00493007
-0.00411733
-0.00309527
-0.0018546
-0.000383011
0.00133323
0.00330484
0.00553176
0.00799136
0.0106235
0.0133183
0.0159135
0.0182164
0.0200503
0.0213192
0.0220449
0.0223596
0.0224275
0.0223947
0.0223282
0.0222697
0.0222176
0.0221892
0.0221668
0.0221761
0.0285617
0.0284549
0.0284463
0.028376
0.0283245
0.0282081
0.0280555
0.0278071
0.0274493
0.0269157
0.0261586
0.0251073
0.0237158
0.0219519
0.019828
0.0173917
0.0147288
0.0119414
0.00913553
0.00640214
0.00381218
0.00141211
-0.000770645
-0.0027244
-0.00444603
-0.00593805
-0.00720432
-0.00824952
-0.00907745
-0.00969182
-0.0100957
-0.0102923
-0.0102848
-0.0100765
-0.0096703
-0.00906854
-0.00827173
-0.00727796
-0.00608136
-0.00467133
-0.00303176
-0.00114206
0.00101906
0.00346532
0.00618762
0.00913402
0.0121869
0.0151554
0.0177947
0.019874
0.021265
0.0220105
0.0222846
0.0223144
0.022249
0.0221734
0.0221022
0.0220588
0.0220268
0.0220322
0.0284418
0.028324
0.0283153
0.0282346
0.028169
0.0280224
0.0278201
0.027488
0.027
0.0262726
0.0252469
0.0238482
0.0220419
0.0198217
0.0172385
0.0143801
0.0113651
0.008313
0.00533064
0.0024963
-0.000138405
-0.00254767
-0.00472149
-0.00666086
-0.00837015
-0.00985528
-0.0111204
-0.0121688
-0.0130018
-0.0136208
-0.0140266
-0.0142211
-0.0142068
-0.0139873
-0.013567
-0.0129506
-0.0121423
-0.011145
-0.00995838
-0.00857808
-0.00699326
-0.00518546
-0.0031285
-0.000790999
0.001854
0.00481286
0.00804142
0.011416
0.0147106
0.0176245
0.0198666
0.021292
0.0219763
0.022172
0.0221426
0.0220574
0.0219666
0.0219055
0.0218623
0.0218618
0.0282492
0.0281205
0.0281095
0.0280141
0.027927
0.0277384
0.0274684
0.0270261
0.0263716
0.0254056
0.0240639
0.0222774
0.0200357
0.0173701
0.0143749
0.0111737
0.00790585
0.00469157
0.0016239
-0.00124124
-0.0038751
-0.00627112
-0.00843222
-0.0103666
-0.0120808
-0.0135797
-0.0148646
-0.0159351
-0.0167889
-0.017424
-0.017839
-0.018034
-0.0180108
-0.0177733
-0.0173268
-0.0166782
-0.0158349
-0.0148042
-0.0135915
-0.0121995
-0.0106255
-0.00885896
-0.00687981
-0.00465599
-0.0021472
0.000688659
0.00387063
0.0073643
0.0110303
0.0146028
0.0177108
0.0200102
0.0213568
0.0219064
0.0219869
0.0219132
0.0218053
0.0217228
0.0216666
0.0216567
0.0279724
0.0278335
0.0278173
0.0277028
0.0275858
0.0273426
0.0269857
0.026406
0.0255501
0.0243073
0.0226155
0.0204236
0.0177566
0.0146892
0.011356
0.0079051
0.00447996
0.00118665
-0.00190531
-0.00476543
-0.00738562
-0.00977338
-0.0119386
-0.0138911
-0.0156353
-0.0171724
-0.0184986
-0.0196091
-0.0204975
-0.0211588
-0.021589
-0.021787
-0.0217539
-0.0214938
-0.0210131
-0.0203205
-0.0194258
-0.0183398
-0.0170728
-0.0156335
-0.014027
-0.0122524
-0.0103002
-0.00814718
-0.00575673
-0.0030758
-5.08102e-05
0.00335513
0.00710504
0.011041
0.0148322
0.0180327
0.0202528
0.0214047
0.0217476
0.0217257
0.0216131
0.0215046
0.0214323
0.0214084
0.0275988
0.0274502
0.0274249
0.0272854
0.0271285
0.0268167
0.0263526
0.0256094
0.0245227
0.0229761
0.0209199
0.018331
0.015277
0.0118747
0.00828962
0.00467835
0.00117359
-0.00214274
-0.00522785
-0.00807432
-0.0106893
-0.013088
-0.0152818
-0.017278
-0.0190764
-0.0206724
-0.022057
-0.0232208
-0.0241536
-0.0248475
-0.0252967
-0.0254989
-0.0254549
-0.0251693
-0.0246494
-0.0239055
-0.0229497
-0.0217955
-0.0204566
-0.0189464
-0.0172763
-0.0154532
-0.0134784
-0.0113409
-0.00901659
-0.00645841
-0.00360531
-0.000381925
0.00325292
0.00726417
0.0114412
0.0153758
0.0185315
0.0205117
0.0213562
0.0214717
0.0213788
0.0212442
0.0211511
0.0211075
0.0271215
0.0269644
0.0269259
0.026756
0.0265498
0.0261564
0.0255673
0.0246399
0.023302
0.0214399
0.0190251
0.0160702
0.0126865
0.0090261
0.00527105
0.00157218
-0.00195935
-0.00526966
-0.00834072
-0.0111828
-0.0138118
-0.0162455
-0.0184924
-0.0205548
-0.0224263
-0.0240966
-0.0255515
-0.0267772
-0.0277603
-0.0284905
-0.0289603
-0.0291668
-0.0291106
-0.0287968
-0.028234
-0.027434
-0.0264112
-0.0251813
-0.0237611
-0.0221671
-0.0204151
-0.0185177
-0.0164848
-0.014316
-0.012002
-0.00950976
-0.00678874
-0.00375428
-0.000324548
0.00356148
0.00783169
0.0122134
0.0161741
0.0191
0.0206803
0.0211269
0.0210775
0.0209352
0.0208126
0.0207437
0.0265342
0.0263695
0.0263133
0.0261071
0.0258421
0.0253553
0.0246267
0.0235008
0.0219031
0.0197297
0.0169807
0.0137077
0.0100613
0.00621779
0.00236223
-0.00137178
-0.00489964
-0.00819453
-0.0112582
-0.0141125
-0.0167768
-0.0192669
-0.0215862
-0.023731
-0.0256882
-0.0274423
-0.0289743
-0.0302667
-0.0313032
-0.0320715
-0.0325626
-0.0327729
-0.032703
-0.0323587
-0.03175
-0.0308904
-0.0297966
-0.0284868
-0.0269804
-0.0252965
-0.0234543
-0.0214696
-0.0193583
-0.0171275
-0.0147809
-0.0123
-0.00965306
-0.00676491
-0.0035464
0.000118831
0.00427022
0.00880083
0.0133051
0.0171143
0.0195889
0.0206198
0.0206906
0.0205569
0.0204086
0.0203034
0.025839
0.0256684
0.0255905
0.0253439
0.0250127
0.0244246
0.0235478
0.0222187
0.0203647
0.0178993
0.0148545
0.0113201
0.00747785
0.00351621
-0.000388011
-0.00412492
-0.00763686
-0.01092
-0.0139901
-0.0168749
-0.0195933
-0.0221566
-0.0245621
-0.0267994
-0.02885
-0.0306931
-0.0323059
-0.0336676
-0.0347592
-0.0355665
-0.036079
-0.0362925
-0.0362076
-0.0358309
-0.0351737
-0.0342517
-0.0330838
-0.0316911
-0.0300958
-0.0283193
-0.0263839
-0.0243072
-0.0221092
-0.0198008
-0.0173954
-0.0148859
-0.0122605
-0.00946128
-0.00641365
-0.00298268
0.00093689
0.00538514
0.0101353
0.0146105
0.0180184
0.0198078
0.0202193
0.0200703
0.0199338
0.019769
0.0250393
0.0248648
0.0247615
0.0244707
0.0240678
0.0233737
0.022346
0.0208173
0.018722
0.0159948
0.0127007
0.00896292
0.00498515
0.000957145
-0.00296028
-0.00668296
-0.0101775
-0.0134577
-0.0165482
-0.0194784
-0.022264
-0.0249107
-0.0274094
-0.029744
-0.0318907
-0.0338247
-0.0355194
-0.0369512
-0.0380985
-0.0389451
-0.0394791
-0.0396953
-0.0395946
-0.0391841
-0.0384767
-0.0374901
-0.0362462
-0.0347684
-0.0330826
-0.0312126
-0.0291836
-0.0270148
-0.024729
-0.0223384
-0.0198627
-0.0173016
-0.0146601
-0.0118984
-0.00896667
-0.00573635
-0.00207913
0.00214752
0.00688529
0.0117498
0.0159616
0.0185986
0.0196073
0.0194618
0.0193645
0.0191271
0.0241487
0.0239728
0.0238417
0.0235057
0.0230291
0.0222294
0.0210552
0.0193396
0.0170271
0.0140762
0.0105826
0.00669614
0.00263299
-0.00142378
-0.00533321
-0.00903566
-0.0125177
-0.0158057
-0.0189286
-0.021915
-0.0247758
-0.0275109
-0.0301055
-0.0325382
-0.034781
-0.0368054
-0.0385817
-0.0400835
-0.0412865
-0.0421723
-0.0427277
-0.0429467
-0.0428298
-0.042385
-0.0416267
-0.0405747
-0.0392537
-0.03769
-0.0359133
-0.0339497
-0.0318282
-0.0295691
-0.0271982
-0.0247272
-0.0221799
-0.0195582
-0.0168799
-0.014119
-0.011253
-0.00817241
-0.00475659
-0.000809854
0.00373868
0.00872443
0.0134912
0.0169878
0.0187153
0.0187565
0.0186505
0.0183717
0.023181
0.0230065
0.0228461
0.022465
0.0219149
0.0210141
0.019703
0.0178195
0.0153198
0.0121862
0.00854068
0.00455269
0.000443036
-0.00361696
-0.00750696
-0.0111888
-0.0146644
-0.0179683
-0.021131
-0.0241783
-0.0271161
-0.0299391
-0.0326271
-0.0351548
-0.0374904
-0.0396023
-0.0414577
-0.0430275
-0.0442848
-0.0452092
-0.0457856
-0.0460071
-0.0458742
-0.0453955
-0.044587
-0.0434702
-0.0420731
-0.0404245
-0.0385581
-0.0365025
-0.034291
-0.0319447
-0.0294932
-0.0269467
-0.0243324
-0.0216509
-0.0189287
-0.0161479
-0.0133109
-0.0103306
-0.00711263
-0.00344721
0.000818345
0.00570547
0.0107584
0.0149984
0.0174575
0.017949
0.0177616
0.0174928
0.0221596
0.0219902
0.0218007
0.0213774
0.0207577
0.0197646
0.0183319
0.016305
0.0136521
0.0103774
0.00662386
0.00257371
-0.00155365
-0.0056009
-0.0094669
-0.0131309
-0.0166061
-0.0199316
-0.0231375
-0.0262462
-0.0292589
-0.0321656
-0.034942
-0.0375591
-0.0399822
-0.0421768
-0.0441075
-0.0457421
-0.0470515
-0.0480128
-0.0486094
-0.0488335
-0.0486855
-0.0481742
-0.0473175
-0.0461385
-0.0446683
-0.0429379
-0.0409854
-0.0388413
-0.0365438
-0.034115
-0.0315886
-0.0289733
-0.0262995
-0.0235643
-0.0208006
-0.0179926
-0.0151632
-0.0122448
-0.00917812
-0.00576325
-0.00181266
0.00282697
0.0079323
0.0126848
0.0158548
0.016954
0.0167119
0.0164649
0.0211055
0.0209449
0.0207273
0.0202658
0.0195822
0.0185084
0.0169722
0.0148286
0.0120566
0.00867935
0.004855
0.000773148
-0.00335206
-0.00737734
-0.0112181
-0.014867
-0.0183448
-0.0216931
-0.0249405
-0.028106
-0.0311866
-0.0341687
-0.0370243
-0.0397219
-0.0422241
-0.0444939
-0.0464931
-0.0481872
-0.0495444
-0.0505397
-0.0511551
-0.0513815
-0.0512195
-0.050678
-0.0497766
-0.0485397
-0.0470015
-0.0451949
-0.0431623
-0.0409357
-0.0385587
-0.0360537
-0.0334595
-0.030783
-0.0280586
-0.0252789
-0.0224813
-0.0196479
-0.0168178
-0.0139363
-0.010982
-0.00777523
-0.0041331
0.000181479
0.00515346
0.0101544
0.0139699
0.0156813
0.0155432
0.015268
0.0200475
0.0198998
0.0196573
0.0191637
0.0184248
0.0172847
0.0156659
0.0134342
0.0105771
0.0071332
0.00327012
-0.000819528
-0.00492889
-0.00892733
-0.0127435
-0.0163797
-0.0198614
-0.023231
-0.0265152
-0.0297301
-0.0328692
-0.035916
-0.03884
-0.0416073
-0.0441785
-0.0465141
-0.0485738
-0.0503205
-0.0517202
-0.0527458
-0.0533781
-0.0536067
-0.0534323
-0.0528638
-0.0519226
-0.0506338
-0.0490351
-0.0471601
-0.045056
-0.0427555
-0.0403076
-0.0377348
-0.0350816
-0.0323528
-0.0295876
-0.0267733
-0.0239523
-0.0211009
-0.0182708
-0.0154139
-0.0125442
-0.00950454
-0.00614408
-0.00217815
0.00252587
0.00754722
0.0118679
0.0141198
0.0142814
0.0139057
0.019008
0.0188769
0.0186129
0.018094
0.0173089
0.0161176
0.0144373
0.0121451
0.00923392
0.005754
0.00187761
-0.00220258
-0.00628757
-0.010257
-0.0140493
-0.0176731
-0.0211567
-0.0245421
-0.0278546
-0.0311075
-0.0342922
-0.0373897
-0.0403679
-0.0431911
-0.045818
-0.0482072
-0.0503165
-0.0521065
-0.0535414
-0.0545922
-0.0552384
-0.0554686
-0.0552836
-0.054692
-0.0537171
-0.052384
-0.0507338
-0.0488005
-0.0466357
-0.0442721
-0.0417645
-0.0391343
-0.0364325
-0.0336612
-0.0308657
-0.0280275
-0.0251942
-0.0223347
-0.0195111
-0.0166756
-0.0138739
-0.0109683
-0.00785526
-0.00422926
0.000122956
0.00499245
0.00961533
0.0123167
0.0128986
0.0123859
0.0180152
0.0179049
0.0176245
0.0170888
0.0162683
0.0150423
0.0133224
0.010997
0.00806109
0.00457293
0.00070508
-0.00335187
-0.00740642
-0.0113457
-0.015115
-0.0187259
-0.0222079
-0.0256024
-0.0289331
-0.0322116
-0.0354278
-0.0385612
-0.0415784
-0.0444425
-0.0471107
-0.0495403
-0.0516872
-0.0535102
-0.0549723
-0.0560424
-0.0566997
-0.056931
-0.0567378
-0.0561279
-0.0551263
-0.0537579
-0.052067
-0.050087
-0.0478743
-0.0454605
-0.042906
-0.0402307
-0.0374922
-0.0346895
-0.0318746
-0.0290228
-0.0261887
-0.0233315
-0.0205237
-0.0177123
-0.0149709
-0.0121758
-0.0092766
-0.00596562
-0.00200478
0.0025909
0.00729481
0.0103393
0.0113487
0.0107217
0.0170867
0.0170002
0.0167086
0.016164
0.0153188
0.0140734
0.0123341
0.0100001
0.00706525
0.00359211
-0.000250053
-0.00427382
-0.00829428
-0.0122031
-0.0159491
-0.0195448
-0.0230197
-0.0264139
-0.0297503
-0.0330395
-0.0362707
-0.0394227
-0.0424614
-0.045349
-0.0480419
-0.050496
-0.0526664
-0.0545103
-0.0559898
-0.0570723
-0.0577365
-0.0579678
-0.0577686
-0.0571452
-0.0561248
-0.0547307
-0.053011
-0.0509972
-0.0487506
-0.0463006
-0.0437137
-0.0410068
-0.0382447
-0.0354221
-0.0325992
-0.0297441
-0.0269197
-0.0240746
-0.0212924
-0.0185106
-0.0158282
-0.013128
-0.0104143
-0.0073871
-0.00382447
0.000417372
0.00500581
0.00826648
0.00963091
0.00895045
0.0162455
0.0161859
0.0158897
0.0153454
0.0144872
0.0132383
0.0114999
0.00918095
0.0062717
0.00283538
-0.000965041
-0.00494634
-0.00892908
-0.0128069
-0.0165293
-0.0201073
-0.0235694
-0.0269543
-0.0302844
-0.0335699
-0.0368001
-0.0399537
-0.0429966
-0.0458905
-0.0485915
-0.0510546
-0.0532344
-0.055087
-0.0565743
-0.0576622
-0.0583296
-0.0585603
-0.0583578
-0.0577262
-0.0566953
-0.0552861
-0.05355
-0.0515162
-0.0492504
-0.0467791
-0.0441748
-0.0414503
-0.0386782
-0.0358477
-0.0330281
-0.0301792
-0.0273741
-0.0245496
-0.0218021
-0.0190558
-0.0164344
-0.0138194
-0.0112689
-0.00849311
-0.00531469
-0.00147046
0.00285242
0.00619007
0.00780831
0.00713789
0.0155003
0.0154689
0.015174
0.014638
0.0137772
0.0125388
0.0108189
0.00853599
0.00567366
0.00229308
-0.00145197
-0.00538306
-0.0093252
-0.0131713
-0.0168691
-0.0204262
-0.0238689
-0.0272344
-0.030545
-0.0338113
-0.0370234
-0.0401605
-0.0431893
-0.0460712
-0.0487626
-0.051218
-0.0533921
-0.0552402
-0.0567247
-0.05781
-0.0584762
-0.0587048
-0.0585011
-0.0578664
-0.0568331
-0.0554188
-0.0536789
-0.0516384
-0.0493683
-0.0468904
-0.0442837
-0.0415557
-0.0387871
-0.0359603
-0.0331545
-0.0303203
-0.0275428
-0.0247455
-0.0220397
-0.0193338
-0.0167765
-0.0142402
-0.0118362
-0.00928075
-0.00646111
-0.00302759
0.000928461
0.00420966
0.00598019
0.00536283
0.0148661
0.0148645
0.0145779
0.0140596
0.0132078
0.0119941
0.0103103
0.00808388
0.00528963
0.00198392
-0.00169106
-0.00556276
-0.00945988
-0.0132727
-0.0169449
-0.0204787
-0.0238971
-0.0272353
-0.0305157
-0.0337495
-0.0369286
-0.0400333
-0.0430314
-0.0458848
-0.0485505
-0.0509829
-0.0531377
-0.0549695
-0.0564418
-0.0575178
-0.0581791
-0.0584049
-0.0582025
-0.05757
-0.0565424
-0.0551333
-0.0534017
-0.0513678
-0.0491076
-0.0466373
-0.0440426
-0.0413243
-0.0385718
-0.0357591
-0.0329768
-0.0301642
-0.0274207
-0.0246546
-0.0219955
-0.0193326
-0.0168416
-0.0143788
-0.0121084
-0.00974436
-0.00725295
-0.00421967
-0.00069055
0.00242089
0.00424779
0.00370115
0.0143408
0.0143677
0.0140949
0.0136014
0.0127686
0.0115916
0.0099588
0.00780653
0.00509932
0.00188635
-0.00170434
-0.00550712
-0.00935426
-0.0131317
-0.0167769
-0.020285
-0.0236744
-0.0269777
-0.0302173
-0.0334059
-0.0365374
-0.0395938
-0.042545
-0.0453536
-0.047978
-0.0503726
-0.0524947
-0.0542983
-0.055749
-0.0568085
-0.0574608
-0.0576823
-0.0574829
-0.0568567
-0.0558419
-0.0544467
-0.0527344
-0.0507187
-0.0484814
-0.0460313
-0.0434616
-0.0407646
-0.0380394
-0.0352496
-0.0324986
-0.0297125
-0.0270072
-0.0242738
-0.0216635
-0.019043
-0.016619
-0.0142239
-0.0120763
-0.00987694
-0.00768173
-0.00502199
-0.00194832
0.000906934
0.00269806
0.00221938
0.0139321
0.0139868
0.0137346
0.0132747
0.0124724
0.0113446
0.00977803
0.00771752
0.0051168
0.00201571
-0.00147397
-0.00519544
-0.00898487
-0.0127231
-0.01634
-0.0198215
-0.02318
-0.0264444
-0.0296371
-0.0327717
-0.0358451
-0.0388413
-0.0417329
-0.0444837
-0.0470543
-0.0493992
-0.051478
-0.0532442
-0.0546663
-0.055704
-0.0563447
-0.0565614
-0.0563675
-0.0557518
-0.0547567
-0.0533836
-0.0517005
-0.0497136
-0.0475106
-0.0450918
-0.0425583
-0.0398922
-0.0372034
-0.0344431
-0.031729
-0.0289716
-0.0263063
-0.023604
-0.0210415
-0.01846
-0.0161007
-0.0137658
-0.011731
-0.00967122
-0.00774066
-0.00541755
-0.00280461
-0.000263966
0.00140307
0.000976518
0.0136266
0.0137053
0.0134777
0.0130568
0.0122941
0.0112256
0.00973767
0.00778407
0.00530761
0.00233735
-0.00103363
-0.00465936
-0.00838132
-0.0120751
-0.0156614
-0.0191154
-0.0224418
-0.0256647
-0.0288058
-0.0318795
-0.0348858
-0.0378114
-0.0406323
-0.0433137
-0.0458194
-0.0481039
-0.0501301
-0.0518506
-0.0532374
-0.0542484
-0.0548748
-0.0550856
-0.0548984
-0.0542963
-0.0533258
-0.0519809
-0.0503348
-0.0483848
-0.0462253
-0.0438462
-0.0413577
-0.0387295
-0.0360837
-0.0333566
-0.0306822
-0.0279528
-0.0253262
-0.0226503
-0.0201319
-0.0175821
-0.0152829
-0.0129983
-0.011066
-0.00912144
-0.00742534
-0.0053957
-0.00323141
-0.00103653
0.000425516
2.91004e-05
0.0134283
0.0135284
0.0133305
0.0129562
0.0122444
0.0112465
0.00985044
0.00801882
0.00568479
0.00286544
-0.000366375
-0.00387843
-0.0075193
-0.0111604
-0.014713
-0.0181398
-0.0214361
-0.0246195
-0.0277096
-0.0307213
-0.0336576
-0.0365077
-0.0392519
-0.0418572
-0.0442913
-0.0465089
-0.0484769
-0.0501466
-0.0514948
-0.0524765
-0.0530878
-0.0532931
-0.0531149
-0.0525295
-0.0515885
-0.0502773
-0.0486751
-0.0467684
-0.0446599
-0.0423266
-0.0398896
-0.0373035
-0.0347047
-0.0320112
-0.0293766
-0.0266714
-0.0240795
-0.0214219
-0.0189409
-0.0164125
-0.014166
-0.0119191
-0.0100785
-0.00822468
-0.00673447
-0.00495115
-0.0032102
-0.00136576
-0.000175996
-0.000564425
0.013313
0.0134286
0.0132619
0.0129369
0.0122837
0.0113648
0.0100708
0.00837381
0.00619869
0.00355047
0.000479914
-0.00289711
-0.00643952
-0.0100162
-0.0135293
-0.016928
-0.0201964
-0.0233433
-0.0263855
-0.0293364
-0.0322024
-0.0349747
-0.037639
-0.0401637
-0.0425216
-0.0446674
-0.0465732
-0.0481884
-0.0494955
-0.0504458
-0.0510414
-0.0512409
-0.051073
-0.0505058
-0.0495975
-0.048323
-0.0467688
-0.0449093
-0.0428562
-0.0405719
-0.0381897
-0.0356465
-0.0330952
-0.0304325
-0.0278345
-0.025146
-0.0225817
-0.0199314
-0.0174785
-0.0149583
-0.0127551
-0.010531
-0.00877066
-0.00698254
-0.00567152
-0.00408435
-0.00273114
-0.00121556
-0.000344578
-0.000741734
0.0132864
0.0134145
0.0132816
0.0130113
0.0124271
0.0115974
0.0104172
0.00886705
0.00686668
0.00440926
0.0015234
-0.00169458
-0.00511698
-0.00861362
-0.0120788
-0.0154479
-0.0186923
-0.02181
-0.0248126
-0.0277108
-0.0305133
-0.0332128
-0.0358003
-0.038246
-0.0405289
-0.0426031
-0.0444471
-0.0460079
-0.0472747
-0.0481942
-0.0487757
-0.048971
-0.0488159
-0.0482692
-0.0473969
-0.0461617
-0.0446593
-0.0428492
-0.0408545
-0.0386201
-0.0362937
-0.0337914
-0.0312854
-0.0286474
-0.0260797
-0.0233975
-0.0208514
-0.0181945
-0.0157585
-0.013231
-0.0110603
-0.00884191
-0.00715049
-0.00540229
-0.00424618
-0.00280255
-0.00179411
-0.000559844
-2.66116e-05
-0.000438419
0.0133141
0.0134478
0.0133464
0.0131299
0.0126196
0.0118857
0.0108274
0.00943418
0.00762252
0.00537549
0.00269913
-0.000331849
-0.00360757
-0.0070024
-0.0104058
-0.0137397
-0.0169618
-0.0200568
-0.0230294
-0.025885
-0.0286337
-0.0312683
-0.0337859
-0.0361572
-0.0383688
-0.0403738
-0.0421584
-0.0436662
-0.0448945
-0.0457844
-0.0463536
-0.0465454
-0.046405
-0.0458794
-0.0450446
-0.0438489
-0.0423993
-0.0406379
-0.0387015
-0.0365141
-0.0342412
-0.031774
-0.0293076
-0.0266845
-0.0241381
-0.0214486
-0.0189089
-0.0162293
-0.0137978
-0.0112459
-0.00909667
-0.00686595
-0.005233
-0.00349837
-0.00247618
-0.00112149
-0.000411136
0.000614283
0.000822388
0.000405958
0.0134113
0.0135486
0.0134791
0.013319
0.0128903
0.0122611
0.0113346
0.0101076
0.00849631
0.00647562
0.00403126
0.00121448
-0.00188566
-0.00515333
-0.00847677
-0.0117667
-0.0149668
-0.0180472
-0.0210028
-0.0238315
-0.026543
-0.0291282
-0.0315901
-0.0338991
-0.0360499
-0.0379939
-0.0397267
-0.0411874
-0.042383
-0.0432474
-0.0438088
-0.0440001
-0.0438774
-0.0433746
-0.0425795
-0.0414235
-0.0400275
-0.038313
-0.0364337
-0.034289
-0.0320654
-0.029625
-0.0271905
-0.0245702
-0.0220339
-0.0193217
-0.0167753
-0.0140558
-0.0116164
-0.00902257
-0.00688481
-0.00462333
-0.00304054
-0.00129304
-0.000388469
0.000933147
0.00139095
0.00230222
0.00222835
0.00183758
0.0135305
0.0136641
0.0136206
0.0135114
0.0131649
0.0126443
0.0118562
0.010803
0.00940265
0.00762433
0.00543508
0.00286299
-2.76672e-05
-0.00313515
-0.00635237
-0.00958135
-0.0127537
-0.0158225
-0.0187722
-0.021589
-0.0242811
-0.0268345
-0.029258
-0.0315194
-0.0336233
-0.0355173
-0.0372083
-0.0386291
-0.0397992
-0.0406427
-0.0412008
-0.0413939
-0.0412916
-0.0408115
-0.0400566
-0.0389379
-0.0375939
-0.0359214
-0.0340948
-0.0319845
-0.0298027
-0.0273774
-0.0249642
-0.0223314
-0.0197924
-0.0170402
-0.0144738
-0.0116968
-0.0092378
-0.00658509
-0.00445088
-0.00214093
-0.000603379
0.00118295
0.00198003
0.00332482
0.00356886
0.0044783
0.00418826
0.0038767
0.0137074
0.0138378
0.0138196
0.0137614
0.0135011
0.0130951
0.0124531
0.0115797
0.0103964
0.00886881
0.00695003
0.00464578
0.00199504
-0.000919717
-0.00400102
-0.0071476
-0.0102813
-0.0133389
-0.0162927
-0.0191144
-0.0218088
-0.0243535
-0.0267624
-0.0289981
-0.0310757
-0.032937
-0.0346023
-0.0359959
-0.037152
-0.037983
-0.0385458
-0.0387451
-0.0386679
-0.0382117
-0.0374987
-0.0364153
-0.0351219
-0.0334859
-0.0317076
-0.0296226
-0.0274749
-0.0250519
-0.0226492
-0.0199885
-0.0174344
-0.0146254
-0.0120273
-0.00917628
-0.00668897
-0.00396212
-0.0018271
0.000547549
0.00204032
0.00389064
0.00458287
0.00600665
0.00606315
0.00709412
0.00666142
0.00650713
0.0138716
0.0139908
0.0139899
0.0139732
0.0137949
0.0135041
0.0130128
0.0123258
0.011367
0.010101
0.00846895
0.00645818
0.00408066
0.00139779
-0.00150986
-0.00454164
-0.00761572
-0.010652
-0.0136123
-0.0164498
-0.019165
-0.0217222
-0.0241407
-0.0263733
-0.0284474
-0.0302952
-0.031953
-0.0333334
-0.0344888
-0.0353159
-0.035892
-0.0361015
-0.0360537
-0.035621
-0.0349501
-0.0338976
-0.0326514
-0.0310434
-0.0293064
-0.0272347
-0.0251111
-0.0226754
-0.0202714
-0.0175661
-0.014985
-0.0121028
-0.00946338
-0.00652381
-0.00400294
-0.00118882
0.000947096
0.00340124
0.0048447
0.00678375
0.00736562
0.00892377
0.00880214
0.0100828
0.00956994
0.00967372
0.0140971
0.0142092
0.0142261
0.0142501
0.014154
0.0139802
0.0136434
0.0131443
0.01241
0.011404
0.0100611
0.00835344
0.00626959
0.00384791
0.00114834
-0.00173559
-0.00472373
-0.00772286
-0.0106858
-0.0135456
-0.0162979
-0.0188891
-0.0213434
-0.0235993
-0.0256972
-0.0275557
-0.0292298
-0.0306157
-0.0317885
-0.0326245
-0.0332262
-0.0334528
-0.0334414
-0.0330336
-0.0324073
-0.0313823
-0.0301816
-0.0285941
-0.0268934
-0.024824
-0.0227168
-0.0202554
-0.0178415
-0.0150781
-0.0124625
-0.00949473
-0.00680995
-0.00377123
-0.0012174
0.00169396
0.00382546
0.00637266
0.00775716
0.00981043