/*--------------------------------*- C++ -*----------------------------------*\
| =========                 |                                                 |
| \\      /  F ield         | OpenFOAM: The Open Source CFD Toolbox           |
|  \\    /   O peration     | Version:  2406                                  |
|   \\  /    A nd           | Website:  www.openfoam.com                      |
|    \\/     M anipulation  |                                                 |
\*---------------------------------------------------------------------------*/
FoamFile
{
    version     2.0;
    format      ascii;
    arch        "LSB;label=32;scalar=64";
    class       volVectorField;
    location    "16.25";
    object      Uold;
}
// * * * * * * * * * * * * * * * * * * * * * * * * * * * * * * * * * * * * * //

dimensions      [0 1 -1 0 0 0 0];

internalField   nonuniform List<vector> 
14400
(
(3.20908e-06 -3.14037e-06 0)
(1.72087e-05 -6.63598e-06 0)
(3.50762e-05 -6.40205e-06 0)
(4.67426e-05 -4.02307e-06 0)
(5.0823e-05 -1.03542e-06 0)
(4.52688e-05 1.95914e-06 0)
(3.1306e-05 4.51153e-06 0)
(9.67733e-06 6.62684e-06 0)
(-1.80993e-05 8.24522e-06 0)
(-5.08769e-05 9.5016e-06 0)
(-8.75922e-05 1.04408e-05 0)
(-0.000127452 1.11927e-05 0)
(-0.000169953 1.18143e-05 0)
(-0.000214766 1.23968e-05 0)
(-0.000261819 1.29791e-05 0)
(-0.000311131 1.36123e-05 0)
(-0.000362881 1.43135e-05 0)
(-0.000417275 1.51038e-05 0)
(-0.000474596 1.59846e-05 0)
(-0.000535113 1.69599e-05 0)
(-0.000599122 1.80237e-05 0)
(-0.000666889 1.9173e-05 0)
(-0.000738682 2.04004e-05 0)
(-0.000814742 2.17021e-05 0)
(-0.000895303 2.30726e-05 0)
(-0.000980581 2.45095e-05 0)
(-0.00107079 2.601e-05 0)
(-0.00116612 2.75729e-05 0)
(-0.00126677 2.91969e-05 0)
(-0.00137294 3.08809e-05 0)
(-0.00148479 3.26233e-05 0)
(-0.00160251 3.44215e-05 0)
(-0.00172624 3.62715e-05 0)
(-0.00185612 3.81675e-05 0)
(-0.00199226 4.01012e-05 0)
(-0.00213472 4.20617e-05 0)
(-0.00228354 4.40349e-05 0)
(-0.00243868 4.60032e-05 0)
(-0.00260004 4.7945e-05 0)
(-0.00276743 4.98344e-05 0)
(-0.00294055 5.1641e-05 0)
(-0.00311903 5.33293e-05 0)
(-0.00330232 5.48591e-05 0)
(-0.00348975 5.61849e-05 0)
(-0.0036805 5.72562e-05 0)
(-0.00387355 5.80179e-05 0)
(-0.00406771 5.84104e-05 0)
(-0.00426159 5.83706e-05 0)
(-0.0044536 5.78329e-05 0)
(-0.00464194 5.67302e-05 0)
(-0.00482459 5.49954e-05 0)
(-0.00499935 5.25638e-05 0)
(-0.00516382 4.93746e-05 0)
(-0.00531545 4.53733e-05 0)
(-0.00545155 4.05149e-05 0)
(-0.00556931 3.47659e-05 0)
(-0.0056659 2.81078e-05 0)
(-0.00573847 2.05392e-05 0)
(-0.00578423 1.2079e-05 0)
(-0.0058005 2.76851e-06 0)
(-0.00578483 -7.32668e-06 0)
(-0.00573503 -1.81153e-05 0)
(-0.00564924 -2.94798e-05 0)
(-0.00552606 -4.12766e-05 0)
(-0.00536457 -5.33377e-05 0)
(-0.00516442 -6.54724e-05 0)
(-0.00492588 -7.74717e-05 0)
(-0.00464988 -8.91122e-05 0)
(-0.00433805 -0.000100162 0)
(-0.00399271 -0.000110388 0)
(-0.00361687 -0.000119562 0)
(-0.00321422 -0.000127471 0)
(-0.00278902 -0.00013392 0)
(-0.00234607 -0.000138746 0)
(-0.00189061 -0.000141821 0)
(-0.00142817 -0.000143058 0)
(-0.000964496 -0.000142417 0)
(-0.000505371 -0.000139906 0)
(-5.64878e-05 -0.000135582 0)
(0.000376692 -0.00012955 0)
(0.000789074 -0.00012196 0)
(0.00117605 -0.000112998 0)
(0.00153361 -0.000102884 0)
(0.00185843 -9.18599e-05 0)
(0.0021479 -8.01804e-05 0)
(0.00240019 -6.81054e-05 0)
(0.00261426 -5.58893e-05 0)
(0.00278982 -4.37733e-05 0)
(0.00292728 -3.19772e-05 0)
(0.00302771 -2.06945e-05 0)
(0.00309275 -1.0087e-05 0)
(0.00312451 -2.83758e-07 0)
(0.00312549 8.6215e-06 0)
(0.00309845 1.65679e-05 0)
(0.00304634 2.35276e-05 0)
(0.00297219 2.95002e-05 0)
(0.00287903 3.45122e-05 0)
(0.0027698 3.8609e-05 0)
(0.0026473 4.18562e-05 0)
(0.00251418 4.43274e-05 0)
(0.00237277 4.61114e-05 0)
(0.00222527 4.72929e-05 0)
(0.00207346 4.79711e-05 0)
(0.00191901 4.82261e-05 0)
(0.00176314 4.8158e-05 0)
(0.00160706 4.78258e-05 0)
(0.00145142 4.73249e-05 0)
(0.00129717 4.66702e-05 0)
(0.00114449 4.59487e-05 0)
(0.00099437 4.50917e-05 0)
(0.000846733 4.41742e-05 0)
(0.000703193 4.29664e-05 0)
(0.000563717 4.15262e-05 0)
(0.000431517 3.93045e-05 0)
(0.000307207 3.63423e-05 0)
(0.000197001 3.1461e-05 0)
(0.00010307 2.48515e-05 0)
(3.5465e-05 1.45382e-05 0)
(-2.88017e-06 3.16719e-06 0)
(-7.32165e-06 -7.26238e-06 0)
(6.93985e-06 -1.73604e-05 0)
(2.91332e-05 -2.8726e-05 0)
(5.18001e-05 -2.41152e-05 0)
(5.91907e-05 -9.72012e-06 0)
(4.78345e-05 7.86983e-06 0)
(1.42295e-05 2.60693e-05 0)
(-4.0162e-05 4.2451e-05 0)
(-0.000113715 5.6702e-05 0)
(-0.000203586 6.83475e-05 0)
(-0.000307158 7.78696e-05 0)
(-0.000422078 8.55014e-05 0)
(-0.000546411 9.18607e-05 0)
(-0.000678869 9.73226e-05 0)
(-0.000818554 0.000102379 0)
(-0.000965144 0.000107323 0)
(-0.00111857 0.000112455 0)
(-0.00127915 0.000117932 0)
(-0.00144728 0.000123892 0)
(-0.00162359 0.000130384 0)
(-0.00180867 0.000137443 0)
(-0.00200322 0.000145056 0)
(-0.00220786 0.00015321 0)
(-0.00242325 0.000161872 0)
(-0.00264995 0.000171017 0)
(-0.00288856 0.000180616 0)
(-0.0031396 0.000190647 0)
(-0.00340358 0.000201091 0)
(-0.00368099 0.000211931 0)
(-0.00397229 0.000223152 0)
(-0.00427792 0.000234738 0)
(-0.00459828 0.000246665 0)
(-0.00493374 0.000258904 0)
(-0.00528461 0.000271414 0)
(-0.00565114 0.00028414 0)
(-0.00603349 0.00029701 0)
(-0.0064317 0.000309932 0)
(-0.00684565 0.000322792 0)
(-0.00727507 0.000335449 0)
(-0.00771949 0.000347739 0)
(-0.00817818 0.000359464 0)
(-0.00865013 0.0003704 0)
(-0.00913404 0.000380291 0)
(-0.00962822 0.000388848 0)
(-0.0101306 0.000395754 0)
(-0.0106388 0.000400665 0)
(-0.0111498 0.000403209 0)
(-0.0116602 0.000402995 0)
(-0.0121662 0.000399619 0)
(-0.0126634 0.00039267 0)
(-0.013147 0.000381737 0)
(-0.0136115 0.000366428 0)
(-0.0140515 0.000346372 0)
(-0.0144606 0.000321243 0)
(-0.0148325 0.000290765 0)
(-0.0151605 0.000254735 0)
(-0.0154379 0.000213036 0)
(-0.015658 0.00016565 0)
(-0.015814 0.000112675 0)
(-0.0158995 5.43344e-05 0)
(-0.0159088 -9.00899e-06 0)
(-0.0158363 -7.68496e-05 0)
(-0.0156776 -0.000148535 0)
(-0.0154289 -0.000223266 0)
(-0.0150875 -0.000300106 0)
(-0.0146522 -0.000377989 0)
(-0.0141227 -0.000455739 0)
(-0.0135004 -0.000532092 0)
(-0.0127881 -0.000605724 0)
(-0.0119901 -0.000675283 0)
(-0.0111123 -0.000739423 0)
(-0.010162 -0.000796848 0)
(-0.00914784 -0.000846347 0)
(-0.00807986 -0.000886838 0)
(-0.00696912 -0.000917404 0)
(-0.0058276 -0.000937328 0)
(-0.00466795 -0.000946121 0)
(-0.00350325 -0.000943547 0)
(-0.00234669 -0.000929631 0)
(-0.00121133 -0.000904671 0)
(-0.000109793 -0.000869223 0)
(0.000946027 -0.000824092 0)
(0.00194519 -0.000770301 0)
(0.00287798 -0.000709058 0)
(0.00373606 -0.000641716 0)
(0.00451263 -0.000569724 0)
(0.00520256 -0.00049458 0)
(0.00580237 -0.000417778 0)
(0.00631031 -0.000340764 0)
(0.00672622 -0.000264891 0)
(0.0070515 -0.000191384 0)
(0.00728891 -0.000121308 0)
(0.00744244 -5.55496e-05 0)
(0.00751708 5.19506e-06 0)
(0.00751866 6.04234e-05 0)
(0.00745355 0.000109824 0)
(0.00732852 0.000153262 0)
(0.00715051 0.000190767 0)
(0.00692644 0.000222506 0)
(0.00666304 0.000248773 0)
(0.00636677 0.000269944 0)
(0.00604358 0.000286483 0)
(0.00569901 0.000298878 0)
(0.00533792 0.000307669 0)
(0.00496474 0.000313359 0)
(0.00458309 0.000316482 0)
(0.00419636 0.000317453 0)
(0.003807 0.000316721 0)
(0.00341773 0.000314487 0)
(0.00303011 0.000311031 0)
(0.0026469 0.00030615 0)
(0.00226932 0.00029985 0)
(0.00190142 0.000291212 0)
(0.00154489 0.000279867 0)
(0.00120692 0.000263673 0)
(0.000890723 0.000241954 0)
(0.000608854 0.000210705 0)
(0.000366274 0.000170205 0)
(0.000181264 0.000115256 0)
(5.58045e-05 5.5467e-05 0)
(3.1382e-06 -2.8776e-06 0)
(6.86669e-06 -3.5681e-05 0)
(2.42472e-05 -5.11684e-05 0)
(3.35656e-05 -3.42521e-05 0)
(1.83938e-05 3.24549e-06 0)
(-2.60215e-05 4.77244e-05 0)
(-0.000102691 9.37781e-05 0)
(-0.000210185 0.000135964 0)
(-0.000345831 0.000173236 0)
(-0.000506124 0.000204436 0)
(-0.000687314 0.000230438 0)
(-0.000886291 0.000251808 0)
(-0.00110027 0.000269897 0)
(-0.00132743 0.000285661 0)
(-0.00156643 0.00030025 0)
(-0.00181675 0.000314434 0)
(-0.00207818 0.000328947 0)
(-0.0023511 0.000344228 0)
(-0.00263601 0.000360628 0)
(-0.00293371 0.000378306 0)
(-0.00324503 0.00039736 0)
(-0.00357088 0.000417786 0)
(-0.00391215 0.000439557 0)
(-0.00426973 0.000462608 0)
(-0.00464446 0.000486877 0)
(-0.00503715 0.000512296 0)
(-0.00544855 0.000538809 0)
(-0.00587941 0.000566363 0)
(-0.00633041 0.000594913 0)
(-0.00680222 0.000624409 0)
(-0.00729546 0.000654798 0)
(-0.00781069 0.000686007 0)
(-0.00834841 0.000717943 0)
(-0.00890902 0.00075048 0)
(-0.00949281 0.000783451 0)
(-0.0100999 0.000816644 0)
(-0.0107302 0.00084979 0)
(-0.0113835 0.00088256 0)
(-0.012059 0.000914557 0)
(-0.012756 0.000945314 0)
(-0.013473 0.000974287 0)
(-0.0142084 0.00100086 0)
(-0.0149598 0.00102432 0)
(-0.0157245 0.00104391 0)
(-0.0164989 0.00105878 0)
(-0.0172792 0.00106802 0)
(-0.0180605 0.00107068 0)
(-0.0188375 0.00106574 0)
(-0.0196042 0.0010522 0)
(-0.0203537 0.00102903 0)
(-0.0210786 0.000995248 0)
(-0.0217709 0.000949915 0)
(-0.022422 0.000892186 0)
(-0.023023 0.000821338 0)
(-0.0235645 0.000736806 0)
(-0.0240369 0.000638218 0)
(-0.0244307 0.000525433 0)
(-0.0247365 0.000398568 0)
(-0.0249449 0.000258032 0)
(-0.0250476 0.000104548 0)
(-0.0250365 -6.08312e-05 0)
(-0.0249048 -0.000236714 0)
(-0.0246466 -0.000421369 0)
(-0.0242574 -0.000612737 0)
(-0.0237343 -0.000808451 0)
(-0.0230759 -0.00100587 0)
(-0.0222828 -0.00120212 0)
(-0.0213573 -0.00139415 0)
(-0.0203039 -0.00157881 0)
(-0.0191288 -0.00175289 0)
(-0.0178405 -0.00191325 0)
(-0.016449 -0.00205685 0)
(-0.0149666 -0.00218088 0)
(-0.0134067 -0.00228283 0)
(-0.0117844 -0.00236057 0)
(-0.0101161 -0.00241242 0)
(-0.00841881 -0.00243722 0)
(-0.00671031 -0.00243439 0)
(-0.00500858 -0.00240392 0)
(-0.0033315 -0.00234643 0)
(-0.00169646 -0.00226312 0)
(-0.000120086 -0.00215578 0)
(0.00138218 -0.00202671 0)
(0.00279635 -0.00187864 0)
(0.00411011 -0.00171467 0)
(0.00531314 -0.00153817 0)
(0.00639718 -0.00135265 0)
(0.00735618 -0.00116167 0)
(0.00818636 -0.000968715 0)
(0.00888611 -0.000777115 0)
(0.00945598 -0.000589928 0)
(0.00989849 -0.000409885 0)
(0.010218 -0.00023932 0)
(0.0104202 -8.01366e-05 0)
(0.0105125 6.62122e-05 0)
(0.0105029 0.000198729 0)
(0.0104004 0.00031685 0)
(0.0102142 0.000420425 0)
(0.00995406 0.00050966 0)
(0.00962931 0.000585088 0)
(0.00924921 0.00064749 0)
(0.00882249 0.000697867 0)
(0.00835737 0.000737336 0)
(0.00786123 0.00076713 0)
(0.00734095 0.00078846 0)
(0.00680232 0.000802561 0)
(0.00625084 0.000810474 0)
(0.00569077 0.000813198 0)
(0.00512669 0.000811306 0)
(0.00456172 0.000805291 0)
(0.00400045 0.000794842 0)
(0.00344559 0.000779629 0)
(0.00290336 0.000757856 0)
(0.00237706 0.000728065 0)
(0.00187689 0.000686188 0)
(0.00140767 0.000629813 0)
(0.000986295 0.000552131 0)
(0.000618378 0.000452513 0)
(0.000328981 0.000324183 0)
(0.000118201 0.000181854 0)
(1.50328e-05 3.62174e-05 0)
(4.3861e-06 -4.75218e-05 0)
(7.59052e-06 -5.64493e-05 0)
(-1.07011e-05 -1.72805e-05 0)
(-6.32406e-05 5.25029e-05 0)
(-0.000155452 0.000132366 0)
(-0.000288199 0.000214159 0)
(-0.000460124 0.000289457 0)
(-0.000667214 0.000356459 0)
(-0.000905701 0.000413315 0)
(-0.00117088 0.000461307 0)
(-0.00145928 0.000501393 0)
(-0.00176747 0.00053574 0)
(-0.00209336 0.000565989 0)
(-0.00243524 0.00059405 0)
(-0.00279245 0.000621273 0)
(-0.00316467 0.000648911 0)
(-0.00355228 0.000677753 0)
(-0.0039558 0.000708418 0)
(-0.00437614 0.000741215 0)
(-0.00481422 0.000776332 0)
(-0.0052711 0.000813791 0)
(-0.00574783 0.000853562 0)
(-0.00624546 0.000895551 0)
(-0.00676499 0.000939664 0)
(-0.00730741 0.000985792 0)
(-0.00787367 0.00103385 0)
(-0.00846467 0.00108374 0)
(-0.0090813 0.00113538 0)
(-0.0097244 0.00118868 0)
(-0.0103947 0.00124354 0)
(-0.011093 0.00129981 0)
(-0.0118199 0.0013573 0)
(-0.0125759 0.00141576 0)
(-0.0133612 0.00147485 0)
(-0.014176 0.00153415 0)
(-0.0150201 0.00159315 0)
(-0.015893 0.00165118 0)
(-0.0167938 0.0017075 0)
(-0.017721 0.00176121 0)
(-0.0186727 0.00181126 0)
(-0.0196465 0.00185651 0)
(-0.0206392 0.00189564 0)
(-0.0216468 0.00192722 0)
(-0.0226647 0.00194972 0)
(-0.0236874 0.00196149 0)
(-0.0247086 0.00196082 0)
(-0.0257211 0.00194593 0)
(-0.0267168 0.00191507 0)
(-0.027687 0.00186649 0)
(-0.0286221 0.00179853 0)
(-0.0295118 0.00170966 0)
(-0.0303453 0.00159853 0)
(-0.0311113 0.00146405 0)
(-0.0317984 0.00130541 0)
(-0.0323949 0.00112218 0)
(-0.0328891 0.000914335 0)
(-0.0332697 0.000682305 0)
(-0.0335261 0.000427025 0)
(-0.0336482 0.000149958 0)
(-0.0336269 -0.000146888 0)
(-0.0334543 -0.000460949 0)
(-0.033124 -0.000789123 0)
(-0.0326311 -0.00112779 0)
(-0.0319726 -0.00147286 0)
(-0.0311474 -0.00181981 0)
(-0.0301563 -0.00216381 0)
(-0.0290027 -0.00249974 0)
(-0.0276918 -0.00282236 0)
(-0.0262311 -0.00312638 0)
(-0.0246306 -0.00340661 0)
(-0.0229022 -0.00365809 0)
(-0.0210598 -0.00387618 0)
(-0.0191193 -0.00405677 0)
(-0.0170981 -0.00419631 0)
(-0.0150152 -0.00429202 0)
(-0.0128905 -0.00434191 0)
(-0.0107447 -0.00434489 0)
(-0.00859907 -0.00430083 0)
(-0.00647477 -0.00421056 0)
(-0.00439266 -0.0040759 0)
(-0.00237284 -0.00389956 0)
(-0.000434292 -0.00368514 0)
(0.00140549 -0.00343699 0)
(0.00313081 -0.00316009 0)
(0.00472806 -0.00285989 0)
(0.00618596 -0.00254217 0)
(0.0074957 -0.00221284 0)
(0.00865103 -0.00187778 0)
(0.00964831 -0.00154268 0)
(0.0104864 -0.00121285 0)
(0.0111667 -0.00089313 0)
(0.0116928 -0.000587747 0)
(0.0120703 -0.000300248 0)
(0.0123065 -3.34534e-05 0)
(0.0124102 0.000210573 0)
(0.0123914 0.000430504 0)
(0.0122608 0.000625722 0)
(0.0120296 0.000796254 0)
(0.0117091 0.000942707 0)
(0.0113105 0.00106616 0)
(0.0108448 0.00116811 0)
(0.0103223 0.0012503 0)
(0.00975249 0.0013147 0)
(0.0091445 0.00136329 0)
(0.00850611 0.0013981 0)
(0.00784483 0.0014209 0)
(0.00716675 0.00143331 0)
(0.00647832 0.00143634 0)
(0.0057843 0.00143074 0)
(0.00509113 0.00141611 0)
(0.00440299 0.00139173 0)
(0.00372814 0.00135492 0)
(0.00307114 0.00130303 0)
(0.00244466 0.00123016 0)
(0.00185418 0.00113206 0)
(0.00131998 0.000999486 0)
(0.000847 0.00083027 0)
(0.00046664 0.000615989 0)
(0.000177465 0.00037146 0)
(2.62207e-05 0.000106559 0)
(6.91853e-07 -5.0028e-05 0)
(-1.59357e-05 -3.74807e-05 0)
(-7.1256e-05 3.6874e-05 0)
(-0.000171644 0.000150128 0)
(-0.000322907 0.000275303 0)
(-0.000522396 0.000401612 0)
(-0.000768688 0.000517847 0)
(-0.00105589 0.000621527 0)
(-0.00138008 0.000710237 0)
(-0.00173553 0.000785755 0)
(-0.00211862 0.000849554 0)
(-0.00252535 0.000904729 0)
(-0.00295354 0.00095372 0)
(-0.0034012 0.000999301 0)
(-0.00386763 0.00104349 0)
(-0.00435242 0.00108814 0)
(-0.00485594 0.00113445 0)
(-0.00537872 0.00118335 0)
(-0.00592171 0.00123533 0)
(-0.00648589 0.0012907 0)
(-0.00707241 0.00134951 0)
(-0.00768239 0.00141176 0)
(-0.00831702 0.00147734 0)
(-0.00897742 0.00154611 0)
(-0.00966474 0.00161796 0)
(-0.0103801 0.00169276 0)
(-0.0111246 0.00177039 0)
(-0.0118993 0.00185073 0)
(-0.0127052 0.00193366 0)
(-0.0135434 0.00201899 0)
(-0.0144147 0.00210649 0)
(-0.0153201 0.00219585 0)
(-0.01626 0.00228663 0)
(-0.0172349 0.00237828 0)
(-0.0182449 0.0024701 0)
(-0.0192898 0.0025612 0)
(-0.020369 0.00265052 0)
(-0.0214812 0.00273681 0)
(-0.0226248 0.00281861 0)
(-0.0237972 0.00289422 0)
(-0.0249954 0.00296178 0)
(-0.0262153 0.00301921 0)
(-0.0274521 0.00306424 0)
(-0.0286999 0.00309444 0)
(-0.029952 0.00310727 0)
(-0.0312007 0.00310008 0)
(-0.0324372 0.00307019 0)
(-0.0336518 0.00301496 0)
(-0.0348341 0.0029318 0)
(-0.0359727 0.00281831 0)
(-0.0370554 0.00267231 0)
(-0.0380697 0.00249195 0)
(-0.0390025 0.00227578 0)
(-0.0398405 0.00202283 0)
(-0.0405704 0.00173269 0)
(-0.041179 0.00140559 0)
(-0.0416538 0.00104244 0)
(-0.0419825 0.000644872 0)
(-0.0421542 0.000215304 0)
(-0.0421586 -0.000243076 0)
(-0.0419871 -0.000726302 0)
(-0.0416325 -0.00122966 0)
(-0.0410894 -0.00174771 0)
(-0.0403545 -0.00227439 0)
(-0.0394262 -0.00280306 0)
(-0.0383056 -0.00332665 0)
(-0.0369956 -0.00383775 0)
(-0.0355019 -0.00432874 0)
(-0.0338325 -0.004792 0)
(-0.0319976 -0.00522004 0)
(-0.03001 -0.00560566 0)
(-0.0278847 -0.00594217 0)
(-0.0256386 -0.00622354 0)
(-0.0232907 -0.00644459 0)
(-0.0208616 -0.00660112 0)
(-0.0183732 -0.00669008 0)
(-0.0158487 -0.00670967 0)
(-0.0133116 -0.00665939 0)
(-0.010786 -0.00654015 0)
(-0.00829564 -0.00635423 0)
(-0.00586388 -0.00610525 0)
(-0.00351298 -0.00579807 0)
(-0.00126383 -0.0054387 0)
(0.000864477 -0.00503412 0)
(0.00285498 -0.00459206 0)
(0.00469315 -0.00412081 0)
(0.00636709 -0.00362895 0)
(0.00786774 -0.00312513 0)
(0.00918894 -0.00261779 0)
(0.0103274 -0.00211498 0)
(0.0112827 -0.00162411 0)
(0.012057 -0.00115177 0)
(0.0126551 -0.000703654 0)
(0.0130837 -0.000284398 0)
(0.0133518 0.000102431 0)
(0.0134694 0.000454355 0)
(0.0134482 0.000769957 0)
(0.0133003 0.0010488 0)
(0.0130384 0.00129136 0)
(0.0126754 0.00149886 0)
(0.0122237 0.00167319 0)
(0.0116958 0.00181669 0)
(0.011103 0.00193208 0)
(0.0104563 0.00202216 0)
(0.00976544 0.00208981 0)
(0.0090399 0.00213762 0)
(0.00828755 0.00216793 0)
(0.00751667 0.00218227 0)
(0.00673363 0.0021817 0)
(0.00594664 0.00216577 0)
(0.00516126 0.00213337 0)
(0.00438758 0.00208099 0)
(0.00363111 0.00200468 0)
(0.00290665 0.00189682 0)
(0.00221996 0.00175101 0)
(0.00159441 0.00155578 0)
(0.0010344 0.00130632 0)
(0.000577957 0.000992034 0)
(0.000223359 0.000623583 0)
(3.39374e-05 0.000205934 0)
(-3.67757e-06 -3.91468e-05 0)
(-4.42241e-05 1.40591e-05 0)
(-0.000143895 0.000138399 0)
(-0.000300542 0.000306367 0)
(-0.000520032 0.000485669 0)
(-0.00079505 0.000663391 0)
(-0.00112397 0.000826181 0)
(-0.00149855 0.000971218 0)
(-0.00191477 0.00109585 0)
(-0.00236576 0.00120253 0)
(-0.00284791 0.00129339 0)
(-0.00335669 0.00137255 0)
(-0.00388997 0.00144332 0)
(-0.00444553 0.00150938 0)
(-0.00502273 0.00157344 0)
(-0.00562103 0.00163797 0)
(-0.00624087 0.00170461 0)
(-0.00688273 0.0017746 0)
(-0.0075476 0.00184863 0)
(-0.00823646 0.00192715 0)
(-0.00895054 0.00201028 0)
(-0.00969101 0.00209804 0)
(-0.0104592 0.00219032 0)
(-0.0112563 0.00228702 0)
(-0.0120836 0.00238799 0)
(-0.0129426 0.00249312 0)
(-0.0138345 0.00260228 0)
(-0.0147607 0.00271535 0)
(-0.0157225 0.00283215 0)
(-0.0167212 0.00295244 0)
(-0.017758 0.0030759 0)
(-0.0188341 0.00320204 0)
(-0.0199503 0.00333025 0)
(-0.0211073 0.00345967 0)
(-0.0223054 0.00358927 0)
(-0.0235444 0.00371771 0)
(-0.0248236 0.00384343 0)
(-0.0261418 0.00396456 0)
(-0.027497 0.00407895 0)
(-0.0288864 0.00418414 0)
(-0.0303063 0.00427739 0)
(-0.031752 0.00435572 0)
(-0.033218 0.00441588 0)
(-0.0346974 0.00445444 0)
(-0.0361824 0.0044678 0)
(-0.037664 0.00445229 0)
(-0.0391324 0.00440423 0)
(-0.0405763 0.00432001 0)
(-0.0419839 0.00419617 0)
(-0.0433421 0.00402953 0)
(-0.0446375 0.00381727 0)
(-0.0458558 0.00355707 0)
(-0.0469824 0.00324717 0)
(-0.0480026 0.00288649 0)
(-0.0489016 0.00247474 0)
(-0.0496649 0.00201248 0)
(-0.0502784 0.00150119 0)
(-0.0507286 0.000943304 0)
(-0.0510032 0.000342275 0)
(-0.0510909 -0.000297447 0)
(-0.0509816 -0.00097042 0)
(-0.0506673 -0.00167024 0)
(-0.0501412 -0.00238962 0)
(-0.049399 -0.00312044 0)
(-0.0484381 -0.00385389 0)
(-0.0472586 -0.00458058 0)
(-0.0458628 -0.00529072 0)
(-0.0442555 -0.00597424 0)
(-0.0424441 -0.00662104 0)
(-0.0404387 -0.00722117 0)
(-0.0382519 -0.00776503 0)
(-0.0358988 -0.00824363 0)
(-0.033397 -0.00864881 0)
(-0.0307664 -0.00897344 0)
(-0.0280286 -0.00921164 0)
(-0.0252074 -0.00935896 0)
(-0.0223277 -0.00941256 0)
(-0.0194158 -0.0093713 0)
(-0.0164983 -0.00923585 0)
(-0.0136022 -0.00900868 0)
(-0.010754 -0.00869406 0)
(-0.00797987 -0.00829797 0)
(-0.00530424 -0.00782793 0)
(-0.00275011 -0.00729286 0)
(-0.00033826 -0.00670277 0)
(0.00191301 -0.00606855 0)
(0.00398824 -0.0054016 0)
(0.005875 -0.00471353 0)
(0.00756406 -0.00401585 0)
(0.00904945 -0.00331962 0)
(0.0103284 -0.00263522 0)
(0.0114014 -0.00197202 0)
(0.0122716 -0.00133826 0)
(0.012945 -0.000740823 0)
(0.0134299 -0.000185204 0)
(0.0137366 0.000324569 0)
(0.0138767 0.000785908 0)
(0.0138635 0.00119759 0)
(0.0137105 0.00155966 0)
(0.013432 0.00187325 0)
(0.0130421 0.00214047 0)
(0.0125548 0.00236413 0)
(0.0119834 0.00254759 0)
(0.0113407 0.00269444 0)
(0.0106384 0.00280841 0)
(0.00988787 0.00289293 0)
(0.00909875 0.00295108 0)
(0.00828123 0.00298501 0)
(0.00744326 0.00299612 0)
(0.00659485 0.00298405 0)
(0.00574284 0.00294736 0)
(0.00489906 0.00288184 0)
(0.00406986 0.00278232 0)
(0.00327195 0.00263964 0)
(0.0025113 0.00244513 0)
(0.00181414 0.00218501 0)
(0.00118465 0.00185076 0)
(0.000666907 0.00142832 0)
(0.000259743 0.000920617 0)
(3.98617e-05 0.000324608 0)
(-8.39514e-06 -1.38832e-05 0)
(-7.54156e-05 0.00010193 0)
(-0.00022436 0.00029325 0)
(-0.000443294 0.000528777 0)
(-0.000737893 0.000772095 0)
(-0.0010953 0.00100877 0)
(-0.00151351 0.00122401 0)
(-0.00198148 0.0014151 0)
(-0.00249503 0.00157954 0)
(-0.00304603 0.00172073 0)
(-0.00363088 0.00184168 0)
(-0.00424457 0.00194764 0)
(-0.00488507 0.0020429 0)
(-0.00554996 0.00213208 0)
(-0.00623871 0.00221864 0)
(-0.00695072 0.00230568 0)
(-0.00768647 0.00239527 0)
(-0.00844642 0.00248899 0)
(-0.0092316 0.00258775 0)
(-0.010043 0.00269214 0)
(-0.0108819 0.00280237 0)
(-0.0117496 0.00291853 0)
(-0.0126474 0.00304056 0)
(-0.0135769 0.0031684 0)
(-0.0145396 0.00330196 0)
(-0.0155371 0.00344117 0)
(-0.0165712 0.00358593 0)
(-0.0176435 0.00373614 0)
(-0.0187559 0.00389161 0)
(-0.0199101 0.00405207 0)
(-0.0211078 0.00421706 0)
(-0.0223506 0.00438597 0)
(-0.0236398 0.0045579 0)
(-0.0249766 0.00473169 0)
(-0.0263615 0.00490587 0)
(-0.0277947 0.0050786 0)
(-0.0292758 0.00524769 0)
(-0.0308034 0.00541054 0)
(-0.0323757 0.00556417 0)
(-0.0339895 0.00570522 0)
(-0.035641 0.00582996 0)
(-0.037325 0.00593432 0)
(-0.0390352 0.00601394 0)
(-0.0407643 0.00606422 0)
(-0.0425034 0.00608041 0)
(-0.0442428 0.00605769 0)
(-0.0459712 0.00599124 0)
(-0.0476764 0.00587641 0)
(-0.0493452 0.0057088 0)
(-0.0509633 0.00548439 0)
(-0.0525157 0.00519969 0)
(-0.0539868 0.00485186 0)
(-0.0553605 0.00443883 0)
(-0.0566204 0.00395941 0)
(-0.0577503 0.00341341 0)
(-0.0587339 0.00280173 0)
(-0.0595554 0.00212641 0)
(-0.0601998 0.00139068 0)
(-0.0606528 0.000599041 0)
(-0.0609011 -0.000242813 0)
(-0.0609331 -0.00112795 0)
(-0.0607384 -0.00204828 0)
(-0.0603085 -0.0029946 0)
(-0.0596369 -0.00395672 0)
(-0.0587193 -0.00492357 0)
(-0.0575537 -0.00588333 0)
(-0.0561406 -0.00682366 0)
(-0.0544835 -0.00773184 0)
(-0.0525882 -0.00859507 0)
(-0.0504637 -0.00940061 0)
(-0.048122 -0.0101361 0)
(-0.0455777 -0.01079 0)
(-0.0428485 -0.0113514 0)
(-0.0399548 -0.011811 0)
(-0.0369195 -0.0121605 0)
(-0.0337677 -0.0123938 0)
(-0.0305267 -0.0125064 0)
(-0.0272253 -0.0124962 0)
(-0.0238933 -0.0123632 0)
(-0.0205612 -0.0121097 0)
(-0.0172598 -0.0117403 0)
(-0.0140193 -0.011262 0)
(-0.0108687 -0.0106836 0)
(-0.00783565 -0.010016 0)
(-0.00494565 -0.00927156 0)
(-0.00222155 -0.0084639 0)
(0.000316809 -0.00760751 0)
(0.00265288 -0.0067173 0)
(0.00477369 -0.00580821 0)
(0.00666996 -0.00489479 0)
(0.00833612 -0.00399084 0)
(0.00977022 -0.00310903 0)
(0.0109738 -0.00226065 0)
(0.0119516 -0.00145535 0)
(0.0127111 -0.000701021 0)
(0.0132624 -3.70507e-06 0)
(0.0136175 0.000632428 0)
(0.0137902 0.001205 0)
(0.0137952 0.00171332 0)
(0.0136481 0.00215819 0)
(0.0133644 0.00254174 0)
(0.0129601 0.00286709 0)
(0.0124502 0.00313817 0)
(0.0118497 0.00335935 0)
(0.0111722 0.00353518 0)
(0.0104309 0.00366998 0)
(0.00963763 0.00376765 0)
(0.00880431 0.00383103 0)
(0.0079406 0.00386196 0)
(0.00705829 0.00386027 0)
(0.00616554 0.00382429 0)
(0.00527584 0.00374927 0)
(0.00439643 0.00362881 0)
(0.0035458 0.00345231 0)
(0.00273039 0.00320858 0)
(0.00197909 0.00288131 0)
(0.00129647 0.00245735 0)
(0.000731967 0.00191809 0)
(0.000285391 0.00125667 0)
(4.36227e-05 0.000459889 0)
(-1.33857e-05 2.74081e-05 0)
(-0.000108893 0.000230088 0)
(-0.000310955 0.000506705 0)
(-0.0005969 0.000823143 0)
(-0.00097199 0.00114016 0)
(-0.00141714 0.00144262 0)
(-0.00192981 0.0017152 0)
(-0.0024958 0.00195583 0)
(-0.00311073 0.00216275 0)
(-0.00376506 0.00234059 0)
(-0.00445529 0.00249352 0)
(-0.00517584 0.00262807 0)
(-0.00592486 0.00274956 0)
(-0.00669977 0.00286362 0)
(-0.00750018 0.00297447 0)
(-0.00832541 0.00308581 0)
(-0.00917605 0.00320015 0)
(-0.0100525 0.00331941 0)
(-0.0109559 0.00344474 0)
(-0.0118873 0.00357687 0)
(-0.012848 0.00371616 0)
(-0.0138394 0.0038628 0)
(-0.0148632 0.00401685 0)
(-0.0159212 0.00417836 0)
(-0.0170152 0.00434736 0)
(-0.0181472 0.00452388 0)
(-0.0193197 0.00470794 0)
(-0.0205348 0.00489949 0)
(-0.021795 0.00509839 0)
(-0.0231028 0.00530434 0)
(-0.0244606 0.0055168 0)
(-0.0258706 0.00573496 0)
(-0.027335 0.00595768 0)
(-0.0288555 0.0061834 0)
(-0.0304333 0.00641016 0)
(-0.0320691 0.00663553 0)
(-0.0337627 0.00685659 0)
(-0.0355135 0.00706989 0)
(-0.0373194 0.00727153 0)
(-0.0391776 0.00745708 0)
(-0.0410839 0.00762168 0)
(-0.0430332 0.00776006 0)
(-0.0450186 0.00786659 0)
(-0.0470323 0.00793539 0)
(-0.0490648 0.00796041 0)
(-0.0511053 0.00793555 0)
(-0.0531418 0.00785478 0)
(-0.055161 0.00771229 0)
(-0.0571484 0.00750264 0)
(-0.0590883 0.0072209 0)
(-0.0609643 0.00686282 0)
(-0.0627591 0.00642498 0)
(-0.064455 0.00590488 0)
(-0.0660338 0.00530117 0)
(-0.067477 0.00461365 0)
(-0.0687663 0.00384346 0)
(-0.0698837 0.00299311 0)
(-0.0708117 0.00206653 0)
(-0.0715333 0.00106913 0)
(-0.0720327 7.77131e-06 0)
(-0.0722954 -0.00110922 0)
(-0.0723081 -0.00227211 0)
(-0.0720594 -0.00346985 0)
(-0.07154 -0.00469015 0)
(-0.0707426 -0.00591965 0)
(-0.0696626 -0.00714402 0)
(-0.0682978 -0.00834823 0)
(-0.0666492 -0.00951671 0)
(-0.0647208 -0.0106336 0)
(-0.0625198 -0.0116832 0)
(-0.0600567 -0.01265 0)
(-0.0573455 -0.0135192 0)
(-0.0544036 -0.014277 0)
(-0.0512517 -0.0149109 0)
(-0.0479136 -0.0154102 0)
(-0.0444161 -0.0157661 0)
(-0.0407888 -0.0159721 0)
(-0.0370634 -0.0160244 0)
(-0.0332735 -0.0159217 0)
(-0.0294537 -0.0156658 0)
(-0.0256394 -0.0152613 0)
(-0.0218661 -0.0147155 0)
(-0.0181684 -0.0140386 0)
(-0.0145796 -0.0132433 0)
(-0.0111308 -0.0123442 0)
(-0.00785063 -0.0113579 0)
(-0.00476443 -0.0103021 0)
(-0.00189386 -0.00919544 0)
(0.000743387 -0.00805662 0)
(0.00313386 -0.00690421 0)
(0.00526842 -0.00575598 0)
(0.00714219 -0.00462846 0)
(0.00875445 -0.00353658 0)
(0.0101083 -0.00249335 0)
(0.0112104 -0.00150961 0)
(0.0120705 -0.000593935 0)
(0.0127007 0.000247441 0)
(0.0131157 0.00101056 0)
(0.0133311 0.00169364 0)
(0.0133642 0.00229684 0)
(0.0132323 0.00282207 0)
(0.0129532 0.00327262 0)
(0.0125442 0.00365287 0)
(0.0120224 0.00396787 0)
(0.0114036 0.00422303 0)
(0.0107035 0.00442356 0)
(0.00993562 0.00457426 0)
(0.00911421 0.00467875 0)
(0.00825072 0.00473944 0)
(0.0073588 0.00475651 0)
(0.00644805 0.00472816 0)
(0.00553367 0.00464926 0)
(0.00462395 0.00451227 0)
(0.00373911 0.00430518 0)
(0.00288631 0.00401415 0)
(0.0020969 0.00362003 0)
(0.00137623 0.00310429 0)
(0.000778073 0.00244279 0)
(0.000303436 0.00161767 0)
(4.62204e-05 0.000604717 0)
(-1.85634e-05 8.53174e-05 0)
(-0.000143946 0.000400687 0)
(-0.000401822 0.000782218 0)
(-0.000758161 0.0011939 0)
(-0.00121765 0.00159495 0)
(-0.00175446 0.00197037 0)
(-0.00236541 0.00230527 0)
(-0.00303283 0.00259885 0)
(-0.00375211 0.00285068 0)
(-0.00451215 0.00306699 0)
(-0.00530954 0.00325342 0)
(-0.00613813 0.00341791 0)
(-0.00699628 0.00356699 0)
(-0.00788121 0.00370729 0)
(-0.00879273 0.00384382 0)
(-0.00973012 0.00398088 0)
(-0.0106941 0.00412145 0)
(-0.011685 0.00426777 0)
(-0.0127041 0.00442124 0)
(-0.0137526 0.0045828 0)
(-0.0148319 0.00475299 0)
(-0.0159438 0.00493219 0)
(-0.0170901 0.00512066 0)
(-0.0182732 0.00531865 0)
(-0.0194954 0.0055264 0)
(-0.0207594 0.00574414 0)
(-0.0220684 0.00597208 0)
(-0.0234254 0.00621033 0)
(-0.0248339 0.00645882 0)
(-0.0262972 0.00671727 0)
(-0.0278189 0.00698506 0)
(-0.0294021 0.0072612 0)
(-0.0310499 0.00754425 0)
(-0.0327651 0.00783223 0)
(-0.0345498 0.00812261 0)
(-0.0364054 0.00841226 0)
(-0.0383325 0.00869743 0)
(-0.040331 0.00897371 0)
(-0.0423992 0.0092361 0)
(-0.0445347 0.00947899 0)
(-0.0467335 0.00969623 0)
(-0.0489901 0.00988115 0)
(-0.0512978 0.0100267 0)
(-0.053648 0.0101256 0)
(-0.0560308 0.0101703 0)
(-0.0584347 0.0101532 0)
(-0.0608466 0.010067 0)
(-0.0632519 0.00990444 0)
(-0.0656349 0.00965897 0)
(-0.0679784 0.00932455 0)
(-0.070264 0.008896 0)
(-0.0724724 0.00836912 0)
(-0.0745838 0.00774084 0)
(-0.0765773 0.00700942 0)
(-0.078432 0.00617449 0)
(-0.0801265 0.00523724 0)
(-0.0816398 0.00420047 0)
(-0.082951 0.00306865 0)
(-0.0840397 0.00184796 0)
(-0.0848866 0.000546317 0)
(-0.0854735 -0.000826636 0)
(-0.0857833 -0.00225958 0)
(-0.0858011 -0.0037396 0)
(-0.0855138 -0.00525227 0)
(-0.0849105 -0.0067818 0)
(-0.0839832 -0.00831119 0)
(-0.0827267 -0.00982246 0)
(-0.0811388 -0.0112969 0)
(-0.0792211 -0.0127154 0)
(-0.0769785 -0.0140585 0)
(-0.0744198 -0.0153073 0)
(-0.0715578 -0.0164431 0)
(-0.0684093 -0.0174486 0)
(-0.0649949 -0.0183075 0)
(-0.0613394 -0.0190059 0)
(-0.0574711 -0.0195315 0)
(-0.0534219 -0.0198752 0)
(-0.0492266 -0.0200307 0)
(-0.0449227 -0.0199948 0)
(-0.0405497 -0.019768 0)
(-0.0361485 -0.0193542 0)
(-0.0317603 -0.018761 0)
(-0.0274264 -0.0179995 0)
(-0.0231869 -0.0170838 0)
(-0.01908 -0.0160311 0)
(-0.0151413 -0.0148608 0)
(-0.0114029 -0.0135943 0)
(-0.00789304 -0.0122543 0)
(-0.00463535 -0.0108639 0)
(-0.00164861 -0.00944624 0)
(0.0010534 -0.00802384 0)
(0.00346206 -0.00661784 0)
(0.00557365 -0.00524756 0)
(0.00738922 -0.0039301 0)
(0.0089141 -0.00267998 0)
(0.0101575 -0.00150897 0)
(0.0111319 -0.000425955 0)
(0.0118526 0.000563033 0)
(0.0123367 0.00145468 0)
(0.0126031 0.00224817 0)
(0.0126714 0.00294494 0)
(0.0125617 0.00354824 0)
(0.0122937 0.00406282 0)
(0.0118872 0.00449438 0)
(0.0113605 0.00484917 0)
(0.0107319 0.00513341 0)
(0.0100174 0.00535285 0)
(0.00923357 0.00551207 0)
(0.00839391 0.00561416 0)
(0.00751416 0.00565982 0)
(0.00660562 0.00564729 0)
(0.00568528 0.00557118 0)
(0.0047627 0.00542289 0)
(0.0038599 0.00518903 0)
(0.00298508 0.00485295 0)
(0.00217183 0.00439238 0)
(0.00142662 0.00378304 0)
(0.000806658 0.00299459 0)
(0.000314143 0.00199789 0)
(4.75474e-05 0.000757134 0)
(-2.39272e-05 0.000160697 0)
(-0.00018036 0.000615795 0)
(-0.000496187 0.00112258 0)
(-0.000925494 0.00164418 0)
(-0.00147226 0.00213949 0)
(-0.00210356 0.00259471 0)