/*--------------------------------*- C++ -*----------------------------------*\
| =========                 |                                                 |
| \\      /  F ield         | OpenFOAM: The Open Source CFD Toolbox           |
|  \\    /   O peration     | Version:  2406                                  |
|   \\  /    A nd           | Website:  www.openfoam.com                      |
|    \\/     M anipulation  |                                                 |
\*---------------------------------------------------------------------------*/
FoamFile
{
    version     2.0;
    format      ascii;
    arch        "LSB;label=32;scalar=64";
    class       surfaceScalarField;
    location    "10.8";
    object      phi_0;
}
// * * * * * * * * * * * * * * * * * * * * * * * * * * * * * * * * * * * * * //

dimensions      [0 3 -1 0 0 0 0];

oriented        oriented;

internalField   nonuniform List<scalar> 
1740
(
-1.10929e-06
1.10929e-06
-3.86984e-06
2.76055e-06
-7.49459e-06
3.62475e-06
-1.13546e-05
3.86004e-06
-1.53539e-05
3.99924e-06
-1.95588e-05
4.20497e-06
-2.40886e-05
4.52977e-06
-2.90473e-05
4.95867e-06
-3.44953e-05
5.44799e-06
-4.04063e-05
5.91104e-06
-4.66177e-05
6.21144e-06
-5.27839e-05
6.16614e-06
-5.83538e-05
5.56993e-06
-6.26003e-05
4.24649e-06
-6.46892e-05
2.08892e-06
-6.38411e-05
-8.48168e-07
-5.95521e-05
-4.28899e-06
-5.16816e-05
-7.87043e-06
-4.06605e-05
-1.10212e-05
-2.75427e-05
-1.31177e-05
-1.39083e-05
-1.36344e-05
-1.54604e-06
-1.23623e-05
8.01842e-06
-9.56446e-06
1.39228e-05
-5.90433e-06
1.61524e-05
-2.22962e-06
1.53079e-05
8.44429e-07
1.22162e-05
3.09178e-06
7.72588e-06
4.49028e-06
3.023e-06
4.70287e-06
3.023e-06
-4.06721e-06
5.1765e-06
-1.22666e-05
1.09599e-05
-2.21456e-05
1.35038e-05
-3.26307e-05
1.43451e-05
-4.34892e-05
1.48577e-05
-5.47916e-05
1.55074e-05
-6.66579e-05
1.63961e-05
-7.91434e-05
1.74442e-05
-9.21545e-05
1.84591e-05
-0.000105356
1.9113e-05
-0.000118101
1.89562e-05
-0.000129424
1.74891e-05
-0.000138152
1.42977e-05
-0.00014309
9.18467e-06
-0.00014326
2.25849e-06
-0.000138071
-6.03719e-06
-0.000127285
-1.50747e-05
-0.000111096
-2.40596e-05
-9.02328e-05
-3.18841e-05
-6.61038e-05
-3.72468e-05
-4.08409e-05
-3.88973e-05
-1.71129e-05
-3.60902e-05
2.41126e-06
-2.90887e-05
1.58729e-05
-1.9366e-05
2.27216e-05
-9.07829e-06
2.36368e-05
-7.07481e-08
2.00292e-05
6.69935e-06
1.32468e-05
1.12727e-05
5.19539e-06
1.27543e-05
8.21839e-06
-6.79635e-06
1.19729e-05
-1.93633e-05
2.35268e-05
-3.3991e-05
2.81316e-05
-4.94462e-05
2.98003e-05
-6.54505e-05
3.08619e-05
-8.2007e-05
3.20639e-05
-9.91217e-05
3.35107e-05
-0.000116663
3.49852e-05
-0.000134251
3.6047e-05
-0.000151177
3.60394e-05
-0.000166417
3.41961e-05
-0.000178793
2.98653e-05
-0.000187278
2.27829e-05
-0.000191278
1.31842e-05
-0.000190563
1.54397e-06
-0.000185204
-1.13968e-05
-0.000174874
-2.54045e-05
-0.000158955
-3.99785e-05
-0.000136925
-5.39143e-05
-0.000109026
-6.51457e-05
-7.69136e-05
-7.10096e-05
-4.38456e-05
-6.91582e-05
-1.41965e-05
-5.87378e-05
7.91756e-06
-4.14801e-05
2.04674e-05
-2.16281e-05
2.42393e-05
-3.84264e-06
2.14753e-05
9.46333e-06
1.45362e-05
1.82119e-05
5.86672e-06
2.14237e-05
1.40851e-05
-8.82493e-06
2.07978e-05
-2.45554e-05
3.92573e-05
-4.25904e-05
4.61666e-05
-6.1555e-05
4.87649e-05
-8.11383e-05
5.04452e-05
-0.000101275
5.22011e-05
-0.000121844
5.4079e-05
-0.000142525
5.56664e-05
-0.000162713
5.62348e-05
-0.000181509
5.48355e-05
-0.000197911
5.05986e-05
-0.000211254
4.32075e-05
-0.000221697
3.32265e-05
-0.000230256
2.17427e-05
-0.000237951
9.23902e-06
-0.000244421
-4.9264e-06
-0.000247733
-2.2093e-05
-0.000243985
-4.37261e-05
-0.000229281
-6.86188e-05
-0.000201698
-9.27285e-05
-0.000161809
-0.000110899
-0.000113328
-0.000117639
-6.31813e-05
-0.000108885
-2.02573e-05
-8.44041e-05
8.17956e-06
-5.0065e-05
2.05706e-05
-1.62337e-05
2.10124e-05
9.02154e-06
1.4772e-05
2.44523e-05
6.03539e-06
3.01603e-05
2.01205e-05
-1.0181e-05
3.09788e-05
-2.79934e-05
5.70697e-05
-4.82901e-05
6.64633e-05
-6.95826e-05
7.00574e-05
-9.15312e-05
7.23938e-05
-0.000114026
7.46962e-05
-0.000136871
7.6924e-05
-0.000159664
7.84588e-05
-0.000181758
7.83292e-05
-0.000202421
7.54983e-05
-0.000221362
6.95393e-05
-0.000239608
6.14541e-05
-0.000259969
5.35874e-05
-0.000285888
4.76619e-05
-0.000318645
4.19956e-05
-0.000354413
3.08416e-05
-0.000385269
8.76309e-06
-0.00040229
-2.67046e-05
-0.000400036
-7.08727e-05
-0.000375332
-0.000117433
-0.000327731
-0.0001585
-0.000259852
-0.000185518
-0.00017892
-0.000189816
-9.78669e-05
-0.000165458
-3.27522e-05
-0.00011518
4.70056e-06
-5.36864e-05
1.66326e-05
-2.91046e-06
1.40532e-05
2.70317e-05
6.07495e-06
3.81385e-05
2.61955e-05
-1.09278e-05
4.19066e-05
-2.99304e-05
7.60723e-05
-5.1572e-05
8.81049e-05
-7.42908e-05
9.27762e-05
-9.77387e-05
9.58417e-05
-0.000121813
9.87706e-05
-0.00014634
0.000101451
-0.000170988
0.000103107
-0.000195343
0.000102685
-0.00021939
9.95445e-05
-0.000244693
9.48423e-05
-0.000275833
9.25944e-05
-0.000319682
9.7437e-05
-0.000380205
0.000108185
-0.000452014
0.000113804
-0.000521187
0.000100014
-0.00057449
6.20664e-05
-0.000606697
5.5026e-06
-0.000613516
-6.40536e-05
-0.000593975
-0.000136974
-0.000546672
-0.000205803
-0.000470271
-0.000261919
-0.000366484
-0.000293603
-0.000244437
-0.000287505
-0.00012499
-0.000234626
-3.70859e-05
-0.000141591
3.46645e-06
-4.34628e-05
1.10989e-05
1.93992e-05
5.77922e-06
4.34582e-05
3.19747e-05
-1.11458e-05
5.30523e-05
-3.06038e-05
9.55303e-05
-5.2863e-05
0.000110364
-7.63234e-05
0.000116237
-0.000100658
0.000120176
-0.000125835
0.000123948
-0.00015181
0.000127426
-0.000178501
0.000129798
-0.00020609
0.000130274
-0.000236174
0.000129628
-0.00027397
0.000132638
-0.00032904
0.000147664
-0.000408901
0.000177299
-0.000507292
0.000206576
-0.000603762
0.000210274
-0.0006812
0.000177452
-0.000735584
0.000116451
-0.000766193
3.61114e-05
-0.000776076
-5.41709e-05
-0.000766092
-0.000146958
-0.000733813
-0.000238082
-0.00067406
-0.000321672
-0.000579075
-0.000388588
-0.000445448
-0.000421133
-0.000283062
-0.000397012
-0.000126402
-0.000298251
-2.58514e-05
-0.000144013
5.77672e-06
-1.22289e-05
5.4061e-06
4.38288e-05
3.73808e-05
-1.0905e-05
6.39573e-05
-3.02001e-05
0.000114825
-5.24757e-05
0.00013264
-7.6122e-05
0.000139883
-0.000100858
0.000144912
-0.000126776
0.000149866
-0.000154061
0.000154711
-0.000183077
0.000158813
-0.00021513
0.000162327
-0.00025459
0.000169089
-0.000311089
0.000189137
-0.000395045
0.00023162
-0.000502999
0.000285252
-0.000611577
0.000315154
-0.0006971
0.000295798
-0.000754456
0.000234807
-0.000788357
0.000150351
-0.000804656
5.24112e-05
-0.000809749
-4.90787e-05
-0.000807064
-0.000149642
-0.000796458
-0.000248688
-0.000772587
-0.000345543
-0.000723006
-0.000438168
-0.000629663
-0.000514476
-0.000477777
-0.000548899
-0.000279429
-0.000496599
-9.34505e-05
-0.000329991
-4.00039e-06
-0.000101679
4.59415e-06
3.52343e-05
4.19749e-05
-1.02577e-05
7.42151e-05
-2.88466e-05
0.000133414
-5.06042e-05
0.000154397
-7.39273e-05
0.000163206
-9.85875e-05
0.000169572
-0.000124832
0.000176111
-0.000153147
0.000183025
-0.00018455
0.000190216
-0.000221934
0.000199711
-0.000272496
0.000219651
-0.000346844
0.000263484
-0.000447323
0.0003321
-0.000555056
0.000392985
-0.000641135
0.000401234
-0.0006937
0.000348363
-0.000720713
0.00026182
-0.000731165
0.000160803
-0.000732333
5.35798e-05
-0.000729228
-5.21844e-05
-0.000723048
-0.000155822
-0.000719552
-0.000252185
-0.000720787
-0.000344307
-0.000720718
-0.000438238
-0.000697817
-0.000537376
-0.000618653
-0.000628063
-0.000454475
-0.000660777
-0.000223075
-0.000561391
-3.68427e-05
-0.000287911
6.05498e-06
-7.66339e-06
4.80299e-05
-9.24711e-06
8.34622e-05
-2.66286e-05
0.000150796
-4.73582e-05
0.000175127
-6.98395e-05
0.000185687
-9.38765e-05
0.000193609
-0.00011986
0.000202094
-0.000148589
0.000211755
-0.000181766
0.000223393
-0.00022353
0.000241475
-0.000281759
0.00027788
-0.000362995
0.00034472
-0.000459126
0.000428231
-0.000544826
0.000478685
-0.000599175
0.000455583
-0.000625713
0.000374901
-0.000640111
0.000276218
-0.00064919
0.000169882
-0.000652961
5.73515e-05
-0.000647728
-5.74171e-05
-0.000632468
-0.000171082
-0.000613989
-0.000270663
-0.000603241
-0.000355055
-0.000609952
-0.000431527
-0.000629302
-0.000518026
-0.000630974
-0.00062639
-0.000560465
-0.000731287
-0.000378235
-0.000743621
-0.000120565
-0.000545581
5.32787e-06
-0.000133556
5.33578e-05
-7.9169e-06
9.13791e-05
-2.36186e-05
0.000166498
-4.28151e-05
0.000194323
-6.39014e-05
0.000206774
-8.66668e-05
0.000216375
-0.000111585
0.000227013
-0.000139671
0.000239841
-0.000172992
0.000256713
-0.000215782
0.000284266
-0.000274072
0.00033617
-0.000348943
0.000419592
-0.000427232
0.000506519
-0.000487617
0.00053907
-0.000522362
0.000490328
-0.000545493
0.000398032
-0.000571635
0.00030236
-0.000598826
0.000197073
-0.000616978
7.55031e-05
-0.000617461
-5.69339e-05
-0.00059992
-0.000188623
-0.000567309
-0.000303275
-0.000530199
-0.000392165
-0.000506789
-0.000454937
-0.000513656
-0.000511159
-0.000545174
-0.000594873
-0.000554506
-0.000721954
-0.000466332
-0.000831795
-0.000242643
-0.00076927
-1.729e-05
-0.00035891
3.60678e-05
-6.32062e-06
9.76997e-05
-1.99077e-05
0.000180085
-3.70802e-05
0.000211496
-5.62034e-05
0.000225897
-7.69772e-05
0.000237149
-9.9851e-05
0.000249887
-0.000125851
0.000265841
-0.000156882
0.000287744
-0.000196114
0.000323497
-0.000246642
0.000386698
-0.000306226
0.000479175
-0.000363342
0.000563636
-0.000405649
0.000581376
-0.00043523
0.000519909
-0.000466942
0.000429744
-0.000506831
0.000342249
-0.000544792
0.000235035
-0.000568323
9.90339e-05
-0.000572474
-5.27833e-05
-0.000557596
-0.000203501
-0.000525141
-0.000335729
-0.000480772
-0.000436534
-0.000437985
-0.000497723
-0.000417694
-0.000531451
-0.000436987
-0.00057558
-0.000475649
-0.000683292
-0.00046934
-0.000838104
-0.000339355
-0.000899255
-7.45561e-05
-0.000623709
-3.84883e-05
-4.53214e-06
0.000102232
-1.56308e-05
0.000191183
-3.03253e-05
0.00022619
-4.69358e-05
0.000242507
-6.50006e-05
0.000255213
-8.48176e-05
0.000269704
-0.000107194
0.000288217
-0.000133415
0.000313966
-0.000164979
0.000355061
-0.000202291
0.00042401
-0.000242563
0.000519447
-0.000279777
0.000600849
-0.000310162
0.000611761
-0.00033869
0.000548438
-0.000373603
0.000464657
-0.000413452
0.000382097
-0.000448164
0.000269747
-0.00046973
0.000120601
-0.000476386
-4.61274e-05
-0.000468191
-0.000211697
-0.00044604
-0.00035788
-0.000410899
-0.000471676
-0.000369027
-0.000539594
-0.000335988
-0.00056449
-0.000337244
-0.000574324
-0.000380305
-0.000640231
-0.000419795
-0.000798614
-0.000356842
-0.000962208
-0.000142516
-0.000838034
-0.000181004
-2.65098e-06
0.000104883
-1.09855e-05
0.000199518
-2.28305e-05
0.000238035
-3.64742e-05
0.000256151
-5.12213e-05
0.000269961
-6.71057e-05
0.000285588
-8.45559e-05
0.000305667
-0.000104037
0.000333446
-0.000125335
0.00037636
-0.000146809
0.000445484
-0.000166568
0.000539206
-0.000184795
0.000619076
-0.000204082
0.000631048
-0.00022801
0.000572366
-0.000256677
0.000493324
-0.000285807
0.000411227
-0.000311174
0.000295113
-0.000329454
0.000138881
-0.000338797
-3.67848e-05
-0.00033939
-0.000211104
-0.0003312
-0.00036607
-0.000313302
-0.000489574
-0.000286644
-0.000566252
-0.000258452
-0.000592683
-0.000248995
-0.000583781
-0.000282037
-0.000607189
-0.000342348
-0.000738304
-0.000338873
-0.000965682
-0.000198021
-0.000978886
-0.000379025
-7.9676e-07
0.00010568
-6.20803e-06
0.000204929
-1.49365e-05
0.000246764
-2.52874e-05
0.000266502
-3.62985e-05
0.000280972
-4.76804e-05
0.00029697
-5.94222e-05
0.000317409
-7.12082e-05
0.000345232
-8.14339e-05
0.000386586
-8.68849e-05
0.000450935
-8.62421e-05
0.000538563
-8.49329e-05
0.000617767
-9.08938e-05
0.000637009
-0.000105053
0.000586526
-0.000120837
0.000509108
-0.000134232
0.000424622
-0.000147522
0.000308404
-0.000160238
0.000151597
-0.000171816
-2.52062e-05
-0.000179949
-0.000202971
-0.000185435
-0.000360584
-0.000186174
-0.000488835
-0.000181792
-0.000570633
-0.000173594
-0.000600882
-0.000172156
-0.000585218
-0.00019721
-0.000582135
-0.000257219
-0.000678294
-0.000287637
-0.000935264
-0.000201494
-0.00106503
-0.000580519
9.26869e-07
0.000104753
-1.5717e-06
0.000207428
-7.11563e-06
0.000252308
-1.40541e-05
0.00027344
-2.11496e-05
0.000288067
-2.78044e-05
0.000303625
-3.36117e-05
0.000323216
-3.77011e-05
0.000349322
-3.75847e-05
0.000386469
-2.88544e-05
0.000442205
-9.32564e-06
0.000519035
1.25142e-05
0.000595927
2.35768e-05
0.000625947
2.28474e-05
0.000587255
2.09461e-05
0.000511009
2.26576e-05
0.000422911
2.24768e-05
0.000308585
1.64075e-05
0.000157666
4.20919e-06
-1.30079e-05
-1.31872e-05
-0.000185575
-3.16926e-05
-0.000342079
-5.05442e-05
-0.000469984
-6.71698e-05
-0.000554008
-8.04583e-05
-0.000587593
-9.56087e-05
-0.000570067
-0.000122847
-0.000554897
-0.000182815
-0.000618326
-0.000230161
-0.000887919
-0.000178271
-0.00111692
-0.00075879
2.40968e-06
0.000102343
2.62952e-06
0.000207208
1.78612e-07
0.000254759
-3.31751e-06
0.000276936
-6.56002e-06
0.00029131
-8.65532e-06
0.00030572
-8.87208e-06
0.000323433
-6.04599e-06
0.000346496
2.5227e-06
0.000377901
2.1945e-05
0.000422782
5.59223e-05
0.000485057
9.78939e-05
0.000553955
0.000130699
0.000593142
0.000146302
0.000571652
0.000155036
0.000502275
0.000167364
0.000410582
0.000177857
0.000298092
0.000177868
0.000157654
0.000166327
-1.46661e-06
0.000144629
-0.000163877
0.000115063
-0.000312513
8.1739e-05
-0.00043666
4.5497e-05
-0.000517766
8.3032e-06
-0.000550399
-2.48032e-05
-0.000536961
-6.06921e-05
-0.000519008
-0.000119835
-0.000559183
-0.000174719
-0.000833035
-0.000150459
-0.00114118
-0.000909249
3.49792e-06
9.88451e-05
6.05971e-06
0.000204646
6.49564e-06
0.000254323
6.1358e-06
0.000277296
6.47204e-06
0.000290973
8.57173e-06
0.00030362
1.33237e-05
0.000318681
2.19748e-05
0.000337845
3.69978e-05
0.000362878
6.30084e-05
0.000396772
0.000105381
0.000442684
0.00016222
0.000497116
0.000216933
0.000538429
0.00025371
0.000534874
0.000275334
0.000480651
0.000292932
0.000392985
0.000306993
0.00028403
0.000310942
0.000153705
0.000300746
8.7295e-06
0.000277172
-0.000140303
0.000241525
-0.000276865
0.000197144
-0.000392278
0.000144178
-0.000464799
8.99852e-05
-0.000496207
3.71064e-05
-0.000484082
-1.19739e-05
-0.000469928
-7.27687e-05
-0.000498388
-0.000130421
-0.000775383
-0.000125109
-0.00114649
-0.00103436
4.18384e-06
9.46613e-05
8.6052e-06
0.000200225
1.15382e-05
0.00025139
1.40368e-05
0.000274798
1.7523e-05
0.000287487
2.31744e-05
0.000297969
3.19818e-05
0.000309874
4.51048e-05
0.000324722
6.45162e-05
0.000343466
9.38725e-05
0.000367415
0.000138357
0.0003982
0.000200394
0.000435079
0.000270467
0.000468356
0.000330037
0.000475304
0.000370338
0.000440351
0.000396536
0.000366787
0.000413031
0.000267535
0.000418336
0.000148399
0.000407922
1.91438e-05
0.000382477
-0.000114858
0.000341083
-0.000235471
0.000285767
-0.000336962
0.000218703
-0.000397736
0.000149782
-0.000427286
8.31745e-05
-0.000417474
2.63442e-05
-0.000413097
-3.74623e-05
-0.000434582
-9.7399e-05
-0.000715446
-0.000106342
-0.00113755
-0.0011407
4.26491e-06
9.03964e-05
9.77166e-06
0.000194718
1.45542e-05
0.000246607
1.93971e-05
0.000269955
2.56387e-05
0.000281245
3.43598e-05
0.000289248
4.64496e-05
0.000297784
6.28947e-05
0.000308276
8.51375e-05
0.000321224
0.000115663
0.00033689
0.000158259
0.000355603
0.000216687
0.000376651
0.000288613
0.000396431
0.000361426
0.000402491
0.000420335
0.000381442
0.000460999
0.000326123
0.000484416
0.000244118
0.000491858
0.000140957
0.000481018
2.99838e-05
0.000452014
-8.58533e-05
0.000404004
-0.000187462
0.000340156
-0.000273114
0.000264473
-0.000322052
0.00018807
-0.000350883
0.000114407
-0.000343811
5.24378e-05
-0.000351128
-1.31208e-05
-0.000369023
-7.48425e-05
-0.000653725
-9.41392e-05
-0.00111825
-0.00123484
3.91678e-06
8.64796e-05
9.88187e-06
0.000188753
1.59877e-05
0.000240501
2.27101e-05
0.000263232
3.10766e-05
0.000272879
4.21013e-05
0.000278223
5.66e-05
0.000283285
7.53116e-05
0.000289565
9.91787e-05
0.000297357
0.000129668
0.000306401
0.000168979
0.000316291
0.00021992
0.00032571
0.000283053
0.000333298
0.000353364
0.000332179
0.000418817
0.000315989
0.000469933
0.000275007
0.000501398
0.000212653
0.000512886
0.000129469
0.000503172
3.96979e-05
0.000472585
-5.52658e-05
0.000421258
-0.000136136
0.000354605
-0.000206461
0.000277653
-0.0002451
0.000202024
-0.000275255
0.00012936
-0.000271147
6.78411e-05
-0.00028961
3.36637e-06
-0.000304548
-6.18789e-05
-0.00058848
-8.95193e-05
-0.00109061
-0.00132436
2.50743e-06
8.39722e-05
7.61097e-06
0.000183649
1.40853e-05
0.000234027
2.22224e-05
0.000255095
3.26624e-05
0.000262439
4.59326e-05
0.000264953
6.25022e-05
0.000266716
8.28885e-05
0.000269179
0.000107642
0.000272603
0.000137543
0.000276501
0.000173574
0.00028026
0.000217134
0.000282151
0.000268767
0.000281666
0.00032697
0.000273976
0.000385187
0.000257773
0.000435233
0.000224961
0.0004691
0.000178786
0.000483491
0.000115078
0.00047621
4.69785e-05
0.000448116
-2.71715e-05
0.000400456
-8.84757e-05
0.000339591
-0.000145595
0.000270212
-0.000175721
0.000202007
-0.00020705
0.000134371
-0.00020351
7.63086e-05
-0.000231548
1.36279e-05
-0.000241868
-5.17717e-05
-0.00052308
-8.71096e-05
-0.00105527
-0.00141147
7.80627e-07
8.31915e-05
4.76934e-06
0.000179661
1.10309e-05
0.000227765
1.99643e-05
0.000246162
3.15894e-05
0.000250814
4.63022e-05
0.00025024
6.43779e-05
0.00024864
8.59128e-05
0.000247644
0.000111101
0.000247415
0.000140209
0.000247392
0.000173487
0.000246982
0.000211263
0.000244375
0.000253433
0.000239496
0.000299056
0.000228352
0.000344761
0.000212068
0.000385697
0.000184025
0.000415249
0.000149233
0.00042899
0.000101337
0.000424052
5.19159e-05
0.000400948
-4.06663e-06
0.000361313
-4.8841e-05
0.000310244
-9.45261e-05
0.000251591
-0.000117068
0.00019251
-0.00014797
0.000132946
-0.000143946
8.00349e-05
-0.000178637
2.19602e-05
-0.000183793
-4.23349e-05
-0.000458785
-8.05349e-05
-0.00101707
-0.001492
-3.91467e-06
8.71062e-05
-3.80362e-06
0.00017955
1.57504e-06
0.000222387
1.19643e-05
0.000235773
2.5847e-05
0.000236931
4.30035e-05
0.000233084
6.29448e-05
0.000228699
8.56915e-05
0.000224897
0.000111245
0.000221861
0.000139629
0.000219009
0.000170707
0.000215904
0.00020425
0.000210831
0.000239712
0.000204034
0.000276046
0.000192018
0.000311059
0.000177054
0.000341825
0.00015326
0.000364405
0.000126653
0.000375011
9.07322e-05
0.000371341
5.55859e-05
0.000352909
1.43648e-05
0.000321436
-1.73673e-05
0.000279678
-5.27686e-05
0.000231357
-6.8747e-05
0.000179553
-9.61657e-05
0.00012844
-9.2833e-05
7.91244e-05
-0.000129321
3.1741e-05
-0.00013641
-2.98663e-05
-0.000397178
-7.0817e-05
-0.000976122
-0.00156282
-8.22289e-06
9.53291e-05
-9.95999e-06
0.000181287
-6.55845e-06
0.000218985
3.39581e-06
0.000225818
1.80485e-05
0.000222278
3.65282e-05
0.000214604
5.7964e-05
0.000207263
8.17682e-05
0.000201093
0.000107788
0.000195841
0.000135688
0.000191109
0.000165222
0.00018637
0.000195879
0.000180173
0.000226908
0.000173005
0.000257278
0.000161648
0.000285253
0.000149079
0.000308751
0.000129762
0.000325503
0.0001099
0.000332977
8.32581e-05
0.000329622
5.89415e-05
0.000314627
2.93598e-05
0.000289352
7.90734e-06
0.000254423
-1.78397e-05
0.000214781
-2.91048e-05
0.00016803
-4.94144e-05
0.000125553
-5.0356e-05
7.57101e-05
-7.94784e-05
4.33894e-05
-0.000104089
-2.34837e-05
-0.000330304
-7.42172e-05
-0.000925389
-0.00163704
-2.64206e-05
0.00012175
-3.42314e-05
0.000189097
-3.04418e-05
0.000215196
-1.39557e-05
0.000209332
5.0933e-06
0.000203229
2.81943e-05
0.000191503
5.20933e-05
0.000183364
7.77309e-05
0.000175455
0.000104409
0.000169163
0.000132235
0.000163283
0.000160595
0.00015801
0.000189334
0.000151435
0.000217286
0.000145053
0.000243876
0.000135058
0.00026743
0.000125525
0.000286553
0.000110639
0.000299586
9.68673e-05
0.00030502
7.78243e-05
0.000301958
6.20031e-05
0.000289296
4.20222e-05
0.000269089
2.81144e-05
0.000239325
1.19244e-05
0.00020776
2.45961e-06
0.000165443
-7.09761e-06
0.00013248
-1.73928e-05
8.16023e-05
-2.86005e-05
6.61326e-05
-8.86192e-05
-1.2931e-05
-0.000251241
-7.54442e-05
-0.000862876
-0.00171248
-3.04193e-05
0.000152169
-4.07991e-05
0.000199477
-4.11199e-05
0.000215516
-2.65714e-05
0.000194784
-6.31376e-06
0.000182972
1.76367e-05
0.000167552
4.36457e-05
0.000157355
7.09105e-05
0.00014819
9.85782e-05
0.000141495
0.000127052
0.000134809
0.000155149
0.000129914
0.000183419
0.000123165
0.000209905
0.000118567
0.000235104
0.000109859
0.000256543
0.000104087
0.000274406
9.27758e-05
0.000286179
8.50943e-05
0.000292117
7.18867e-05
0.000290858
6.32619e-05
0.000282162
5.07178e-05
0.000267934
4.23424e-05
0.000245644
3.42147e-05
0.000223208
2.48954e-05
0.000189559
2.65514e-05
0.000166969
5.19758e-06
0.000122523
1.58453e-05
0.000116117
-8.22134e-05
6.25975e-05
-0.000197721
9.67507e-06
-0.000809953
-0.00170281
-0.000123268
0.000275437
-9.73991e-05
0.000173608
-8.3013e-05
0.00020113
-4.24735e-05
0.000154244
-8.74269e-06
0.000149241
2.55367e-05
0.000133273
5.70497e-05
0.000125842
8.89093e-05
0.000116331
0.000118317
0.000112087
0.000149341
0.000103785
0.000177563
0.000101692
0.000207119
9.36084e-05
0.000233234
9.24522e-05
0.000259183
8.391e-05
0.000280844
8.24261e-05
0.000300048
7.35717e-05
0.000314376
7.07657e-05
0.000323622
6.26415e-05
0.000329092
5.77919e-05
0.000326928
5.28812e-05
0.000324555
4.47151e-05
0.000311923
4.68473e-05
0.000305196
3.16219e-05
0.00028534
4.64076e-05
0.000277817
1.27205e-05
0.000259419
3.42433e-05
0.000242507
-6.53008e-05
0.000244074
-0.000199289
0.000166533
-0.000732412
-0.00153627
-8.43824e-06
0.000283876
-1.32626e-05
0.000178432
2.97716e-05
0.000158096
4.72729e-05
0.000136743
8.4643e-05
0.000111871
0.000120696
9.72205e-05
0.000158076
8.8462e-05
0.000195774
7.86325e-05
0.000234362
7.34991e-05
0.000272139
6.60075e-05
0.000310725
6.31065e-05
0.000347255
5.70787e-05
0.000384653
5.50545e-05
0.000418471
5.00915e-05
0.000452954
4.79427e-05
0.000482289
4.42374e-05
0.000512076
4.09785e-05
0.000535475
3.92427e-05
0.000559392
3.38746e-05
0.000576761
3.5512e-05
0.000594783
2.66928e-05
0.000608249
3.33821e-05
0.00062059
1.92808e-05
0.000636069
3.09279e-05
0.000637771
1.10187e-05
0.000656525
1.54896e-05
0.000620646
-2.94221e-05
0.000598867
-0.00017751
0.000391062
-0.000524607
-0.00114521
0.000283876
0.000462308
0.000620404
0.000757147
0.000869018
0.000966238
0.0010547
0.00113333
0.00120683
0.00127284
0.00133595
0.00139302
0.00144808
0.00149817
0.00154611
0.00159035
0.00163133
0.00167057
0.00170445
0.00173996
0.00176665
0.00180003
0.00181931
0.00185024
0.00186126
0.00187675
0.00184733
0.00166982
0.00114521
)
;

boundaryField
{
    movingWall
    {
        type            calculated;
        value           uniform 0;
    }
    fixedWalls
    {
        type            calculated;
        value           uniform 0;
    }
    frontAndBack
    {
        type            empty;
    }
}


// ************************************************************************* //
