/*--------------------------------*- C++ -*----------------------------------*\
| =========                 |                                                 |
| \\      /  F ield         | OpenFOAM: The Open Source CFD Toolbox           |
|  \\    /   O peration     | Version:  2406                                  |
|   \\  /    A nd           | Website:  www.openfoam.com                      |
|    \\/     M anipulation  |                                                 |
\*---------------------------------------------------------------------------*/
FoamFile
{
    version     2.0;
    format      ascii;
    arch        "LSB;label=32;scalar=64";
    class       volScalarField;
    location    "32.4";
    object      p;
}
// * * * * * * * * * * * * * * * * * * * * * * * * * * * * * * * * * * * * * //

dimensions      [0 2 -2 0 0 0 0];

internalField   nonuniform List<scalar> 
900
(
2.46404e-09
-2.05078e-05
-0.000105789
-0.000243582
-0.000403157
-0.000594713
-0.000848751
-0.00119482
-0.00165512
-0.00216395
-0.00256014
-0.0027418
-0.00269683
-0.00240314
-0.00174005
-0.000562133
0.00114676
0.00315724
0.00495067
0.00584505
0.00529499
0.00328876
0.000492212
-0.00207725
-0.00374936
-0.00452455
-0.00482153
-0.00492167
-0.00492533
-0.00490366
1.29081e-05
-1.79315e-05
-0.000105417
-0.00023187
-0.000364057
-0.000524813
-0.000751233
-0.00104062
-0.00141533
-0.0019959
-0.00274478
-0.0034141
-0.00380482
-0.00380565
-0.00329992
-0.00218041
-0.000455125
0.00160973
0.00350558
0.00455921
0.00418565
0.00227059
-0.000580334
-0.00322522
-0.00476377
-0.00521094
-0.00515719
-0.00501953
-0.00491828
-0.00487598
8.26021e-05
1.70713e-05
-9.53388e-05
-0.000216524
-0.000314708
-0.000438685
-0.000672104
-0.00113984
-0.00192845
-0.0030394
-0.00436529
-0.00567514
-0.00671105
-0.00724956
-0.00712226
-0.00626848
-0.00476514
-0.00278872
-0.000739237
0.000773222
0.00112807
4.66143e-05
-0.00208639
-0.00427825
-0.00557928
-0.00583634
-0.0055701
-0.00526437
-0.00507263
-0.00500559
0.000254355
0.000133604
-2.43429e-05
-0.000155718
-0.000275797
-0.000532076
-0.00113288
-0.00226576
-0.00397033
-0.00607275
-0.00828867
-0.0103308
-0.011957
-0.0129851
-0.0132978
-0.0128509
-0.0116751
-0.00988544
-0.00774544
-0.00569305
-0.00424171
-0.00377073
-0.00425769
-0.00519717
-0.00589221
-0.00604577
-0.00583346
-0.00555033
-0.00535282
-0.00527602
0.000567179
0.000385745
0.000163744
-4.95357e-05
-0.000398445
-0.00117146
-0.00264562
-0.00490256
-0.00776257
-0.0108716
-0.0138555
-0.0164235
-0.0183971
-0.0197013
-0.0203294
-0.0202717
-0.0194936
-0.0180648
-0.0161229
-0.013873
-0.0115904
-0.0095744
-0.00802467
-0.00696471
-0.00630786
-0.00593861
-0.00578859
-0.00567482
-0.00559283
-0.00556588
0.00103417
0.000811908
0.000474514
-4.5829e-06
-0.000940232
-0.00269615
-0.00542096
-0.00891568
-0.0127481
-0.0164732
-0.0197667
-0.022449
-0.0244553
-0.0257929
-0.0265009
-0.0266143
-0.0261604
-0.0251642
-0.0236512
-0.02166
-0.0192586
-0.0165161
-0.013512
-0.0104749
-0.00788144
-0.0062351
-0.00564011
-0.00576487
-0.00579439
-0.00585195
0.0015779
0.00131785
0.000751236
-0.000271786
-0.00217683
-0.00520561
-0.00919446
-0.0136366
-0.0179846
-0.0218548
-0.0250669
-0.0275881
-0.0294579
-0.0307303
-0.0314478
-0.0316503
-0.0313906
-0.0306854
-0.0295346
-0.0279259
-0.025818
-0.0231166
-0.0197022
-0.0155912
-0.0112689
-0.00777976
-0.00602341
-0.00588499
-0.00611214
-0.00617709
0.00195829
0.00162252
0.000678833
-0.00113833
-0.00420978
-0.0084739
-0.0134098
-0.0183404
-0.0227745
-0.0264925
-0.0294794
-0.0318091
-0.0335649
-0.0348052
-0.0355628
-0.0358628
-0.0357281
-0.0351805
-0.0342278
-0.0328549
-0.0310135
-0.0285954
-0.0253997
-0.0212009
-0.0161086
-0.0110243
-0.00741052
-0.00597676
-0.00677871
-0.00660646
0.00184754
0.00137776
-5.52788e-05
-0.0027642
-0.00693336
-0.0121304
-0.0175757
-0.0225956
-0.0268635
-0.0303406
-0.0331278
-0.0353394
-0.0370549
-0.0383152
-0.0391359
-0.0395252
-0.0394899
-0.0390425
-0.0381902
-0.0369278
-0.0352318
-0.0330324
-0.0301556
-0.0263203
-0.0213245
-0.015524
-0.0102694
-0.00734596
-0.00717115
-0.00727577
0.000992446
0.000348852
-0.00159046
-0.00509858
-0.0100909
-0.0158132
-0.0213853
-0.0262515
-0.0302713
-0.0335392
-0.036207
-0.0383843
-0.0401271
-0.0414512
-0.042352
-0.0428219
-0.042863
-0.0424768
-0.0416675
-0.04044
-0.0387969
-0.0367083
-0.0340483
-0.0305846
-0.0260797
-0.0204807
-0.0143993
-0.00917468
-0.00659345
-0.00855666
-0.000643453
-0.00146392
-0.00382478
-0.00790587
-0.0133744
-0.0192637
-0.024716
-0.0293301
-0.0331183
-0.0362469
-0.0388728
-0.0410806
-0.0428974
-0.0443141
-0.0453092
-0.0458629
-0.0459617
-0.0456074
-0.0448058
-0.0435693
-0.0419168
-0.0398447
-0.037274
-0.0340635
-0.0301024
-0.025092
-0.0186782
-0.0115378
-0.00836586
-0.0100228
-0.00286614
-0.00383828
-0.00648299
-0.0108779
-0.0165153
-0.0223248
-0.0275332
-0.0318869
-0.0354981
-0.0385565
-0.0411991
-0.0434793
-0.0453967
-0.0469197
-0.0480107
-0.0486375
-0.0487823
-0.0484419
-0.0476266
-0.0463597
-0.0446692
-0.042561
-0.040002
-0.0369323
-0.0333671
-0.0288489
-0.022588
-0.0149621
-0.0114548
-0.0100675
-0.0053406
-0.00643407
-0.0092192
-0.0137111
-0.0193069
-0.0249098
-0.0298472
-0.0339811
-0.0374757
-0.0405162
-0.0432114
-0.0455864
-0.0476174
-0.049254
-0.0504426
-0.0511383
-0.0513159
-0.0509717
-0.0501217
-0.0488011
-0.0470502
-0.0448807
-0.042311
-0.0393086
-0.0359486
-0.0317386
-0.0260033
-0.0186548
-0.013479
-0.00842776
-0.00772507
-0.00891258
-0.0117193
-0.0161745
-0.0216194
-0.0269764
-0.031668
-0.0356352
-0.0390617
-0.0421167
-0.0448836
-0.0473645
-0.0495155
-0.0512686
-0.052554
-0.0533136
-0.0535143
-0.0531529
-0.0522534
-0.0508596
-0.0490326
-0.0467863
-0.0441959
-0.0412069
-0.0379403
-0.0339604
-0.028925
-0.0221289
-0.0153256
-0.00782151
-0.00976287
-0.0110065
-0.0137623
-0.0181145
-0.0233669
-0.0284933
-0.0329962
-0.0368534
-0.0402492
-0.0433363
-0.04618
-0.048765
-0.0510309
-0.0528935
-0.0542681
-0.0550844
-0.0553005
-0.0549121
-0.0539535
-0.0524716
-0.0505615
-0.0482345
-0.0456162
-0.042613
-0.0394128
-0.0356183
-0.0312658
-0.0251405
-0.0180123
-0.00979615
-0.0113188
-0.0125625
-0.0152453
-0.0194536
-0.0245024
-0.0294428
-0.03382
-0.0376122
-0.040998
-0.0441201
-0.047033
-0.0497097
-0.0520772
-0.0540379
-0.0554926
-0.0563584
-0.056586
-0.0561642
-0.0551459
-0.0535658
-0.0515755
-0.0491599
-0.0465142
-0.0434869
-0.0403636
-0.0367383
-0.0329733
-0.0275841
-0.0212334
-0.0134895
-0.0123659
-0.0135659
-0.0161332
-0.0201591
-0.0250021
-0.0298072
-0.0341171
-0.0378839
-0.0412729
-0.0444252
-0.0473915
-0.0501392
-0.0525864
-0.0546244
-0.0561419
-0.0570429
-0.0572775
-0.0568171
-0.0557496
-0.0540623
-0.0520239
-0.0494749
-0.0468585
-0.043747
-0.0407482
-0.0372453
-0.0339645
-0.0293127
-0.0242845
-0.0174562
-0.0129787
-0.0140732
-0.0164362
-0.0202405
-0.0248911
-0.029589
-0.0338602
-0.0376237
-0.0410234
-0.044197
-0.0471965
-0.0499892
-0.0524887
-0.0545784
-0.0561395
-0.0570642
-0.0573022
-0.0568109
-0.0556976
-0.0539157
-0.0518502
-0.0491192
-0.0466101
-0.0432941
-0.0405671
-0.0370054
-0.0342109
-0.0301611
-0.0265237
-0.0206512
-0.0132727
-0.0141681
-0.0162176
-0.019742
-0.0241833
-0.0287715
-0.0330178
-0.0367988
-0.0402212
-0.0434122
-0.0464273
-0.0492402
-0.0517654
-0.0538812
-0.0554674
-0.0564021
-0.0566392
-0.0561218
-0.05496
-0.0531284
-0.0509739
-0.0481711
-0.0456467
-0.0421377
-0.0397309
-0.0358598
-0.0336967
-0.0299522
-0.0276071
-0.0226126
-0.0133355
-0.0139309
-0.0155781
-0.0187467
-0.0229081
-0.0273446
-0.0315585
-0.0353698
-0.0388287
-0.0420416
-0.0450666
-0.0478851
-0.0504188
-0.0525414
-0.0541381
-0.0550724
-0.0553069
-0.054772
-0.0535776
-0.0517049
-0.0494522
-0.0466215
-0.0439545
-0.0403887
-0.0380241
-0.0338846
-0.0323569
-0.0284777
-0.0272838
-0.0230015
-0.0131851
-0.0134253
-0.0146369
-0.0173518
-0.021111
-0.025301
-0.0294461
-0.0332979
-0.0368232
-0.0400857
-0.043139
-0.0459687
-0.0485105
-0.0506337
-0.0522373
-0.0531716
-0.053409
-0.0528587
-0.0516398
-0.0497201
-0.0473817
-0.0444861
-0.0416292
-0.0380206
-0.0354615
-0.0312044
-0.0299861
-0.0257026
-0.0255093
-0.0212921
-0.0128228
-0.0127369
-0.0135489
-0.0156912
-0.0188701
-0.0226625
-0.0266523
-0.0305285
-0.0341531
-0.037517
-0.0406503
-0.043529
-0.0461062
-0.0482471
-0.0498695
-0.050812
-0.0510581
-0.0505039
-0.0492675
-0.0472967
-0.0448707
-0.0418532
-0.0387834
-0.0350408
-0.0321748
-0.027815
-0.0265861
-0.0218472
-0.0224803
-0.0173935
-0.0122975
-0.0120449
-0.0124868
-0.0139046
-0.016282
-0.0194604
-0.0231548
-0.0270092
-0.0307701
-0.0343154
-0.0376196
-0.0406245
-0.0432988
-0.0455026
-0.0471758
-0.0481504
-0.0484238
-0.047874
-0.0466221
-0.0445896
-0.0420532
-0.0388581
-0.0355293
-0.0315249
-0.0282726
-0.0236954
-0.0223273
-0.017175
-0.0186021
-0.0126242
-0.011722
-0.011494
-0.0115803
-0.0121323
-0.0134532
-0.0157648
-0.0189657
-0.0227007
-0.0266153
-0.0304293
-0.0340208
-0.0372664
-0.0401371
-0.0424813
-0.0442623
-0.0453088
-0.0456339
-0.0451007
-0.0438373
-0.0417322
-0.0390614
-0.0356452
-0.032005
-0.0276316
-0.0238991
-0.0189073
-0.0173169
-0.0116664
-0.0140522
-0.00844829
-0.0112093
-0.0110782
-0.0108439
-0.0104208
-0.0104741
-0.0116699
-0.014153
-0.0176419
-0.0217022
-0.0258536
-0.029852
-0.0334723
-0.0366637
-0.0392496
-0.0412175
-0.0423916
-0.0428091
-0.0423153
-0.0410493
-0.0388707
-0.0360554
-0.0323909
-0.0284034
-0.0235907
-0.0192915
-0.0136845
-0.0116032
-0.00479305
-0.00842174
-0.00172852
-0.0107142
-0.010641
-0.0102064
-0.00866739
-0.00740264
-0.00731096
-0.00889291
-0.0120354
-0.016193
-0.0206962
-0.0251848
-0.0292916
-0.0329206
-0.0358518
-0.0380958
-0.0394627
-0.0400237
-0.0396031
-0.0383619
-0.036128
-0.0331949
-0.0292941
-0.0249788
-0.0197156
-0.0148296
-0.00851989
-0.00544579
0.00333555
-2.99533e-05
0.0150072
-0.0103215
-0.010059
-0.00943931
-0.00665274
-0.00435696
-0.00282332
-0.00357571
-0.00632097
-0.0104917
-0.0153051
-0.0203056
-0.0249377
-0.0290764
-0.0324203
-0.035018
-0.0366319
-0.0373946
-0.0370814
-0.0359252
-0.0336785
-0.0307009
-0.0266379
-0.0220837
-0.016411
-0.01093
-0.00385259
0.000744217
0.0115412
0.0123507
0.0390978
-0.0100894
-0.00906131
-0.00819298
-0.00430975
-0.00131186
0.00148372
0.00116363
-0.00115123
-0.00530688
-0.0103573
-0.0158067
-0.0209006
-0.0255426
-0.029299
-0.0322815
-0.0341658
-0.0351829
-0.0350218
-0.0340126
-0.0317967
-0.0288495
-0.0247127
-0.0200545
-0.0140377
-0.00796882
0.000206137
0.00711864
0.0202683
0.0291077
0.0565554
-0.0148263
-0.0086679
-0.00693138
-0.00232097
0.00138071
0.00482616
0.00458579
0.00268621
-0.00150155
-0.00664512
-0.0123736
-0.0177478
-0.0227764
-0.0268353
-0.0301678
-0.0322686
-0.0335634
-0.0335356
-0.0327725
-0.0306212
-0.0278892
-0.0236203
-0.0190806
-0.0127109
-0.00623493
0.00359364
0.0147434
0.0357407
0.0618337
0.099428
-0.021456
-0.00952541
-0.00604279
-0.000892854
0.00377872
0.0065292
0.00637698
0.00426532
6.58133e-05
-0.0051179
-0.0109159
-0.0163739
-0.02151
-0.0256607
-0.029114
-0.0313034
-0.0327123
-0.0327572
-0.0320664
-0.0299577
-0.0272126
-0.0230047
-0.0182877
-0.0119419
-0.00480528
0.00584308
0.0231905
0.0604243
0.132503
0.244271
)
;

boundaryField
{
    movingWall
    {
        type            zeroGradient;
    }
    fixedWalls
    {
        type            zeroGradient;
    }
    frontAndBack
    {
        type            empty;
    }
}


// ************************************************************************* //
