/*--------------------------------*- C++ -*----------------------------------*\
| =========                 |                                                 |
| \\      /  F ield         | OpenFOAM: The Open Source CFD Toolbox           |
|  \\    /   O peration     | Version:  2406                                  |
|   \\  /    A nd           | Website:  www.openfoam.com                      |
|    \\/     M anipulation  |                                                 |
\*---------------------------------------------------------------------------*/
FoamFile
{
    version     2.0;
    format      ascii;
    arch        "LSB;label=32;scalar=64";
    class       volVectorField;
    location    "32.4";
    object      U;
}
// * * * * * * * * * * * * * * * * * * * * * * * * * * * * * * * * * * * * * //

dimensions      [0 1 -1 0 0 0 0];

internalField   nonuniform List<vector> 
900
(
(0.000577393 -0.000584824 0)
(0.00319993 -0.000773216 0)
(0.00558541 -0.000534689 0)
(0.00684717 -0.000193579 0)
(0.00694894 -3.91248e-05 0)
(0.00641459 4.53951e-05 0)
(0.00521929 0.000191229 0)
(0.00284697 0.00012352 0)
(-0.00200889 -0.000369985 0)
(-0.0112134 -6.91171e-05 0)
(-0.0256976 0.00235274 0)
(-0.044905 0.00579678 0)
(-0.0664467 0.00809167 0)
(-0.0861282 0.00820515 0)
(-0.100413 0.00633806 0)
(-0.107124 0.00309081 0)
(-0.104855 -0.000977466 0)
(-0.0931151 -0.00524789 0)
(-0.0722643 -0.00919429 0)
(-0.0441982 -0.012055 0)
(-0.0122943 -0.0129009 0)
(0.0183029 -0.0109673 0)
(0.0419078 -0.0060677 0)
(0.0537315 0.000435221 0)
(0.0518787 0.00525038 0)
(0.0396967 0.0061854 0)
(0.0249822 0.0045119 0)
(0.0130642 0.00261291 0)
(0.00531521 0.00131546 0)
(0.000812643 0.000624052 0)
(0.000916563 -0.00329644 0)
(0.00570688 -0.00498305 0)
(0.00895546 -0.00317791 0)
(0.0095441 -0.000514912 0)
(0.00701935 0.001505 0)
(0.00141504 0.00330165 0)
(-0.00890234 0.00603694 0)
(-0.0266867 0.0111255 0)
(-0.0540644 0.0196726 0)
(-0.089204 0.029486 0)
(-0.125267 0.0360303 0)
(-0.156719 0.0372582 0)
(-0.181304 0.0332037 0)
(-0.19793 0.0248041 0)
(-0.20643 0.0134329 0)
(-0.206669 0.000277731 0)
(-0.198521 -0.0137318 0)
(-0.181854 -0.0277601 0)
(-0.156942 -0.0404244 0)
(-0.124397 -0.0497711 0)
(-0.0858965 -0.0532398 0)
(-0.0446167 -0.0485469 0)
(-0.00538025 -0.0348178 0)
(0.0256551 -0.0144573 0)
(0.0430725 0.00574964 0)
(0.0452911 0.0184792 0)
(0.0370027 0.0215265 0)
(0.0238854 0.0178953 0)
(0.0114393 0.0120398 0)
(0.00177063 0.00549606 0)
(0.00116139 -0.0067736 0)
(0.00577456 -0.00898651 0)
(0.00672462 -0.00395429 0)
(0.00319711 0.00266621 0)
(-0.00607548 0.00898991 0)
(-0.0229512 0.0169917 0)
(-0.0506944 0.0296718 0)
(-0.0892778 0.0460745 0)
(-0.132066 0.0600799 0)
(-0.172105 0.0672581 0)
(-0.20579 0.0672239 0)
(-0.231842 0.0609282 0)
(-0.250605 0.0496351 0)
(-0.262667 0.0345675 0)
(-0.268682 0.0168349 0)
(-0.268933 -0.00277442 0)
(-0.263521 -0.0236219 0)
(-0.251809 -0.0449178 0)
(-0.233055 -0.0651491 0)
(-0.206513 -0.0818966 0)
(-0.171962 -0.0915934 0)
(-0.130269 -0.0902117 0)
(-0.0842422 -0.0748617 0)
(-0.0394339 -0.0465426 0)
(-0.00410608 -0.0132823 0)
(0.0150383 0.0125051 0)
(0.0207534 0.025294 0)
(0.0174647 0.0270867 0)
(0.0098851 0.0222899 0)
(0.0015481 0.0116791 0)
(0.00114312 -0.0101735 0)
(0.00324593 -0.0106911 0)
(-0.000913156 -0.000183447 0)
(-0.0120214 0.0129391 0)
(-0.0325611 0.0281662 0)
(-0.0650436 0.0482339 0)
(-0.107817 0.0713672 0)
(-0.153346 0.0904411 0)
(-0.194198 0.100284 0)
(-0.227204 0.100485 0)
(-0.252001 0.0927405 0)
(-0.26947 0.0790936 0)
(-0.281051 0.0614359 0)
(-0.288009 0.041061 0)
(-0.291485 0.0187054 0)
(-0.292126 -0.00544308 0)
(-0.290187 -0.0311713 0)
(-0.285229 -0.0579465 0)
(-0.276269 -0.0848075 0)
(-0.261583 -0.1095 0)
(-0.238866 -0.128103 0)
(-0.205719 -0.13502 0)
(-0.161085 -0.124507 0)
(-0.107684 -0.0939002 0)
(-0.0546054 -0.0488312 0)
(-0.0163295 -0.00605111 0)
(0.000855938 0.0195757 0)
(0.00606597 0.0294784 0)
(0.00464519 0.0284073 0)
(0.000603258 0.0158247 0)
(0.000501224 -0.0116786 0)
(-0.00272738 -0.00712056 0)
(-0.0144525 0.0114721 0)
(-0.035829 0.0343878 0)
(-0.0687658 0.0616068 0)
(-0.111616 0.0914769 0)
(-0.156992 0.116587 0)
(-0.196702 0.130299 0)
(-0.22726 0.131854 0)
(-0.248614 0.123668 0)
(-0.261959 0.108592 0)
(-0.269312 0.0892891 0)
(-0.272608 0.067594 0)
(-0.273643 0.0445817 0)
(-0.27384 0.0206137 0)
(-0.274093 -0.00441236 0)
(-0.274672 -0.030831 0)
(-0.275612 -0.0590597 0)
(-0.276382 -0.0890873 0)
(-0.275424 -0.119802 0)
(-0.269656 -0.148112 0)
(-0.254452 -0.168385 0)
(-0.224343 -0.172519 0)
(-0.176042 -0.152388 0)
(-0.113103 -0.105533 0)
(-0.0507606 -0.0439958 0)
(-0.0132559 0.00370676 0)
(-0.00169272 0.0256586 0)
(0.00108758 0.0296265 0)
(0.000155824 0.0173391 0)
(-0.00117741 -0.00911707 0)
(-0.0119935 0.00405627 0)
(-0.0320837 0.0328777 0)
(-0.0630043 0.0669722 0)
(-0.10325 0.103525 0)
(-0.146833 0.135654 0)
(-0.185036 0.155111 0)
(-0.213019 0.159411 0)
(-0.230726 0.15143 0)
(-0.239705 0.135068 0)
(-0.242518 0.114022 0)
(-0.241756 0.0909753 0)
(-0.239405 0.0673583 0)
(-0.236949 0.0437427 0)
(-0.235198 0.0200954 0)
(-0.23468 -0.00380086 0)
(-0.235688 -0.0284983 0)
(-0.238683 -0.0548509 0)
(-0.24373 -0.0835227 0)
(-0.250655 -0.114845 0)
(-0.257839 -0.147913 0)
(-0.261348 -0.179361 0)
(-0.253995 -0.201906 0)
(-0.227149 -0.204246 0)
(-0.175201 -0.174336 0)
(-0.102825 -0.108929 0)
(-0.0332058 -0.0295887 0)
(-0.00473134 0.016525 0)
(0.000241213 0.028303 0)
(0.000360339 0.0178701 0)
(-0.00365676 -0.000575044 0)
(-0.0226271 0.0236954 0)
(-0.049725 0.0626438 0)
(-0.0862104 0.105296 0)
(-0.126737 0.145093 0)
(-0.16381 0.172628 0)
(-0.190699 0.182348 0)
(-0.206439 0.176209 0)
(-0.213006 0.159381 0)
(-0.213232 0.136721 0)
(-0.210413 0.11216 0)
(-0.206761 0.0877232 0)
(-0.203672 0.0641484 0)
(-0.201634 0.0413071 0)
(-0.200654 0.0187744 0)
(-0.20063 -0.00391215 0)
(-0.201673 -0.0272136 0)
(-0.204065 -0.05152 0)
(-0.208235 -0.0773954 0)
(-0.214882 -0.105587 0)
(-0.224441 -0.136841 0)
(-0.23586 -0.170939 0)
(-0.24476 -0.204838 0)
(-0.242199 -0.229877 0)
(-0.216693 -0.230269 0)
(-0.160263 -0.187717 0)
(-0.0789743 -0.0988291 0)
(-0.0100563 -0.00651849 0)
(0.000865741 0.0275366 0)
(0.000417708 0.0188406 0)
(-0.00605578 0.0142545 0)
(-0.0314697 0.0500082 0)
(-0.0623583 0.0969666 0)
(-0.0996648 0.143922 0)
(-0.135457 0.181255 0)
(-0.163213 0.199859 0)
(-0.179308 0.198502 0)
(-0.185692 0.182817 0)
(-0.185426 0.159372 0)
(-0.182085 0.133441 0)
(-0.178481 0.108209 0)
(-0.17582 0.0844924 0)
(-0.174563 0.0621323 0)
(-0.174359 0.040417 0)
(-0.17489 0.0187823 0)
(-0.175832 -0.00326852 0)
(-0.177179 -0.0259979 0)
(-0.179039 -0.0495316 0)
(-0.18184 -0.0740775 0)
(-0.186165 -0.100007 0)
(-0.192936 -0.128017 0)
(-0.202913 -0.159142 0)
(-0.215398 -0.19389 0)
(-0.225783 -0.229539 0)
(-0.223921 -0.255428 0)
(-0.196225 -0.249342 0)
(-0.132544 -0.184362 0)
(-0.0400975 -0.0619399 0)
(0.00230275 0.0211134 0)
(-0.00151662 0.0204685 0)
(-0.0076411 0.0338945 0)
(-0.0366441 0.0800252 0)
(-0.0680402 0.131751 0)
(-0.102653 0.178418 0)
(-0.131477 0.209059 0)
(-0.150311 0.217075 0)
(-0.158307 0.205651 0)
(-0.159175 0.182934 0)
(-0.156305 0.156071 0)
(-0.153119 0.129814 0)
(-0.15116 0.105786 0)
(-0.150714 0.0836136 0)
(-0.151511 0.0624771 0)
(-0.152926 0.0414999 0)
(-0.154602 0.0202358 0)
(-0.156214 -0.00159852 0)
(-0.157736 -0.024025 0)
(-0.15922 -0.0471044 0)
(-0.160974 -0.0708377 0)
(-0.163448 -0.0954354 0)
(-0.16747 -0.121406 0)
(-0.174125 -0.149804 0)
(-0.184256 -0.182095 0)
(-0.19697 -0.218966 0)
(-0.206866 -0.256675 0)
(-0.201861 -0.280096 0)
(-0.166899 -0.25694 0)
(-0.091109 -0.15492 0)
(-0.00247438 -0.0054618 0)
(-0.000589106 0.0243722 0)
(-0.00797679 0.0557123 0)
(-0.0373505 0.110594 0)
(-0.0665369 0.164072 0)
(-0.0964318 0.207307 0)
(-0.118175 0.229544 0)
(-0.130067 0.227445 0)
(-0.133205 0.208024 0)
(-0.131971 0.180941 0)
(-0.129408 0.153164 0)
(-0.128105 0.128083 0)
(-0.128387 0.105677 0)
(-0.13007 0.0848047 0)
(-0.132535 0.0643527 0)
(-0.135228 0.0435489 0)
(-0.137791 0.0221036 0)
(-0.139964 -7.59212e-05 0)
(-0.141742 -0.0228648 0)
(-0.143138 -0.0461091 0)
(-0.144302 -0.069644 0)
(-0.145485 -0.0934256 0)
(-0.147251 -0.117687 0)
(-0.150539 -0.143254 0)
(-0.156601 -0.171925 0)
(-0.166657 -0.206201 0)
(-0.180009 -0.246808 0)
(-0.188237 -0.286761 0)
(-0.176854 -0.299125 0)
(-0.12438 -0.236204 0)
(-0.0336872 -0.0652574 0)
(0.0113102 0.0256469 0)
(-0.00710517 0.0769398 0)
(-0.0341358 0.139216 0)
(-0.0595032 0.192119 0)
(-0.0840977 0.230054 0)
(-0.0998462 0.243456 0)
(-0.107158 0.232642 0)
(-0.108063 0.207642 0)
(-0.106839 0.17865 0)
(-0.105779 0.151683 0)
(-0.106509 0.128402 0)
(-0.108623 0.107558 0)
(-0.111802 0.0876545 0)
(-0.115325 0.0675473 0)
(-0.118786 0.0466677 0)
(-0.121847 0.0248718 0)
(-0.124358 0.00221963 0)
(-0.126272 -0.0210638 0)
(-0.127656 -0.0447309 0)
(-0.128662 -0.0685776 0)
(-0.129482 -0.0924939 0)
(-0.130422 -0.116495 0)
(-0.131913 -0.14082 0)
(-0.134604 -0.166418 0)
(-0.139867 -0.196088 0)
(-0.151054 -0.23361 0)
(-0.164208 -0.280213 0)
(-0.16902 -0.317785 0)
(-0.137024 -0.299543 0)
(-0.0770034 -0.161589 0)
(0.0194608 0.013961 0)
(-0.00530275 0.0951283 0)
(-0.0279752 0.16411 0)
(-0.0486673 0.215187 0)
(-0.0679681 0.247447 0)
(-0.0790168 0.253231 0)
(-0.0835976 0.235956 0)
(-0.0839454 0.207575 0)
(-0.0837415 0.178167 0)
(-0.0844047 0.15253 0)
(-0.086786 0.1308 0)
(-0.0901808 0.111014 0)
(-0.0942867 0.0915734 0)
(-0.098434 0.0714283 0)
(-0.102357 0.0501776 0)
(-0.105736 0.0277844 0)
(-0.108464 0.0044606 0)
(-0.110469 -0.0194439 0)
(-0.11182 -0.0435867 0)
(-0.112632 -0.0676641 0)
(-0.113164 -0.0915547 0)
(-0.113717 -0.115333 0)
(-0.114514 -0.139246 0)
(-0.115995 -0.163607 0)
(-0.118134 -0.19045 0)
(-0.126042 -0.222873 0)
(-0.136982 -0.267147 0)
(-0.150057 -0.316338 0)
(-0.134369 -0.336091 0)
(-0.101765 -0.244007 0)
(0.00928575 -0.0163973 0)
(-0.00290228 0.108602 0)
(-0.0199407 0.184223 0)
(-0.0357606 0.233081 0)
(-0.0502988 0.260216 0)
(-0.0579378 0.259765 0)
(-0.0612188 0.237748 0)
(-0.0619452 0.207417 0)
(-0.0629345 0.178438 0)
(-0.0648789 0.154294 0)
(-0.0681885 0.13392 0)
(-0.0721782 0.114976 0)
(-0.0766469 0.0958552 0)
(-0.0810435 0.0756111 0)
(-0.0851862 0.0539576 0)
(-0.0887632 0.0309454 0)
(-0.0916714 0.00688498 0)
(-0.0938165 -0.0177884 0)
(-0.0952633 -0.042606 0)
(-0.0961176 -0.0672026 0)
(-0.0966153 -0.0913742 0)
(-0.0970873 -0.115075 0)
(-0.097362 -0.138669 0)
(-0.0985341 -0.162077 0)
(-0.0986499 -0.187285 0)
(-0.104582 -0.215878 0)
(-0.110811 -0.255771 0)
(-0.127086 -0.307727 0)
(-0.122576 -0.354257 0)
(-0.112559 -0.306279 0)
(-0.0111544 -0.0715293 0)
(-0.000214475 0.116328 0)
(-0.0109159 0.198966 0)
(-0.0219334 0.24608 0)
(-0.0320697 0.269291 0)
(-0.0371273 0.264665 0)
(-0.0397343 0.239934 0)
(-0.0410049 0.208888 0)
(-0.0429061 0.180628 0)
(-0.0456261 0.157626 0)
(-0.0493552 0.138113 0)
(-0.0535336 0.119608 0)
(-0.05804 0.100532 0)
(-0.0624344 0.080039 0)
(-0.0665822 0.0579217 0)
(-0.0702055 0.0342905 0)
(-0.0732052 0.00951803 0)
(-0.0754766 -0.0158742 0)
(-0.0770711 -0.0413064 0)
(-0.0781055 -0.0663193 0)
(-0.0787151 -0.0907489 0)
(-0.0795797 -0.114402 0)
(-0.0796742 -0.138053 0)
(-0.0817303 -0.161206 0)
(-0.0807354 -0.185787 0)
(-0.0861442 -0.211196 0)
(-0.0869222 -0.245737 0)
(-0.103465 -0.294399 0)
(-0.102546 -0.357821 0)
(-0.107336 -0.353547 0)
(-0.0204378 -0.145726 0)
(0.00249778 0.118075 0)
(-0.00157583 0.208083 0)
(-0.00796201 0.254442 0)
(-0.0141941 0.27524 0)
(-0.0173519 0.26804 0)
(-0.0197548 0.241659 0)
(-0.0216419 0.210254 0)
(-0.024128 0.182582 0)
(-0.0270762 0.160437 0)
(-0.0306264 0.141607 0)
(-0.0344216 0.123522 0)
(-0.0384545 0.104605 0)
(-0.0424295 0.0840535 0)
(-0.0462661 0.0616638 0)
(-0.0497363 0.0375605 0)
(-0.0527526 0.0121722 0)
(-0.0552081 -0.0138939 0)
(-0.0570954 -0.0399748 0)
(-0.0586197 -0.0654132 0)
(-0.0594371 -0.0901543 0)
(-0.0611482 -0.113638 0)
(-0.0609328 -0.137142 0)
(-0.0644084 -0.159823 0)
(-0.0625797 -0.184453 0)
(-0.0693575 -0.208686 0)
(-0.066175 -0.240417 0)
(-0.0828939 -0.283861 0)
(-0.08102 -0.353818 0)
(-0.095536 -0.382428 0)
(-0.0191427 -0.213855 0)
(0.00486261 0.11374 0)
(0.00760449 0.2114 0)
(0.0057154 0.258651 0)
(0.00322418 0.278506 0)
(0.00178597 0.2706 0)
(-0.000225551 0.24411 0)
(-0.00232432 0.213018 0)
(-0.00494533 0.185803 0)
(-0.00772073 0.164052 0)
(-0.0107671 0.145492 0)
(-0.0139109 0.127553 0)
(-0.0172463 0.108642 0)
(-0.0206054 0.0879604 0)
(-0.0239473 0.0653005 0)
(-0.0271077 0.0408162 0)
(-0.0300325 0.0149886 0)
(-0.0326826 -0.0115038 0)
(-0.034863 -0.0380543 0)
(-0.0372519 -0.0637303 0)
(-0.0383184 -0.0887082 0)
(-0.0416458 -0.112114 0)
(-0.0412799 -0.135723 0)
(-0.0469702 -0.158006 0)
(-0.0443192 -0.182652 0)
(-0.0533903 -0.205739 0)
(-0.0471212 -0.23556 0)
(-0.0644803 -0.273746 0)
(-0.0589413 -0.346658 0)
(-0.0813335 -0.403056 0)
(-0.0155149 -0.274261 0)
(0.00663084 0.103798 0)
(0.0162039 0.209027 0)
(0.018786 0.258758 0)
(0.0196658 0.279203 0)
(0.0198919 0.271886 0)
(0.018294 0.245913 0)
(0.0160033 0.214993 0)
(0.0133673 0.187767 0)
(0.0110419 0.166014 0)
(0.00888272 0.147567 0)
(0.00683249 0.129819 0)
(0.00465317 0.111102 0)
(0.00236074 0.0905797 0)
(-9.23516e-05 0.0680189 0)
(-0.00266502 0.0435703 0)
(-0.00528736 0.017675 0)
(-0.00815917 -0.00890524 0)
(-0.0105217 -0.035638 0)
(-0.0141828 -0.0614712 0)
(-0.0154145 -0.0863642 0)
(-0.0209873 -0.109734 0)
(-0.0203549 -0.132986 0)
(-0.0289354 -0.15514 0)
(-0.0254685 -0.17994 0)
(-0.038138 -0.203078 0)
(-0.0299892 -0.23288 0)
(-0.0496175 -0.266534 0)
(-0.0400748 -0.337807 0)
(-0.0687039 -0.413079 0)
(-0.010562 -0.324373 0)
(0.00756401 0.0890816 0)
(0.0237299 0.200898 0)
(0.0307909 0.25485 0)
(0.0352555 0.277286 0)
(0.0375077 0.272257 0)
(0.0369538 0.248149 0)
(0.0350298 0.218002 0)
(0.0327099 0.190672 0)
(0.0309771 0.168498 0)
(0.0297779 0.149737 0)
(0.0288895 0.131885 0)
(0.0279439 0.113218 0)
(0.0267921 0.0928335 0)
(0.0253051 0.0704337 0)
(0.0233514 0.046183 0)
(0.0211564 0.0204337 0)
(0.0179787 -0.00596588 0)
(0.0155582 -0.0324295 0)
(0.0104242 -0.0582223 0)
(0.0089061 -0.082624 0)
(0.000737468 -0.106298 0)
(0.00139875 -0.128601 0)
(-0.0107592 -0.151375 0)
(-0.00614675 -0.1753 0)
(-0.0232983 -0.198767 0)
(-0.0131546 -0.228122 0)
(-0.0364445 -0.258839 0)
(-0.0231781 -0.328964 0)
(-0.0581117 -0.419197 0)
(-0.00599067 -0.366374 0)
(0.00736389 0.0710234 0)
(0.0294577 0.187007 0)
(0.0412723 0.246546 0)
(0.0494066 0.272516 0)
(0.0539858 0.270776 0)
(0.0545871 0.249023 0)
(0.0530342 0.21954 0)
(0.0509877 0.191689 0)
(0.0498421 0.168688 0)
(0.0496904 0.149396 0)
(0.0501721 0.131435 0)
(0.0507471 0.112985 0)
(0.051038 0.09305 0)
(0.0508753 0.0712206 0)
(0.0497672 0.0476934 0)
(0.0483808 0.0226897 0)
(0.0449369 -0.0029946 0)
(0.0426124 -0.0286869 0)
(0.0360984 -0.0539473 0)
(0.034048 -0.0776876 0)
(0.0235405 -0.101187 0)
(0.0239306 -0.122623 0)
(0.00794127 -0.145863 0)
(0.0135455 -0.16883 0)
(-0.0091805 -0.193994 0)
(0.0030739 -0.222575 0)
(-0.0261188 -0.251992 0)
(-0.00940337 -0.31874 0)
(-0.0503301 -0.418455 0)
(-0.00133593 -0.401365 0)
(0.00578971 0.0515345 0)
(0.0326237 0.167374 0)
(0.0494956 0.233709 0)
(0.062083 0.264512 0)
(0.0696761 0.267537 0)
(0.0724021 0.249623 0)
(0.0721019 0.221894 0)
(0.0707845 0.193859 0)
(0.0702219 0.169766 0)
(0.0708809 0.149438 0)
(0.0724431 0.130937 0)
(0.0743266 0.112442 0)
(0.0758417 0.0929048 0)
(0.0769661 0.0717078 0)
(0.0764547 0.0490635 0)
(0.075981 0.0250619 0)
(0.0720764 0.000436106 0)
(0.0701108 -0.0242568 0)
(0.0620336 -0.0484913 0)
(0.0597105 -0.0715443 0)
(0.0467227 -0.0941686 0)
(0.0466319 -0.115297 0)
(0.027277 -0.138276 0)
(0.0331846 -0.16048 0)
(0.00513234 -0.186281 0)
(0.0198016 -0.213551 0)
(-0.0172676 -0.243201 0)
(0.00348438 -0.307256 0)
(-0.044999 -0.414925 0)
(0.00283354 -0.431027 0)
(0.00328413 0.0334055 0)
(0.0324995 0.142521 0)
(0.0548514 0.215618 0)
(0.0720199 0.252716 0)
(0.0831267 0.261023 0)
(0.0882324 0.247363 0)
(0.0894072 0.221708 0)
(0.088947 0.193628 0)
(0.0889648 0.168367 0)
(0.0903483 0.146843 0)
(0.0929033 0.127734 0)
(0.0961564 0.109251 0)
(0.0988714 0.0903489 0)
(0.101606 0.0701699 0)
(0.10169 0.0488479 0)
(0.102593 0.0264056 0)
(0.0982963 0.00340972 0)
(0.0971346 -0.0196532 0)
(0.0875484 -0.0423601 0)
(0.0854379 -0.064187 0)
(0.0699845 -0.0856711 0)
(0.0697561 -0.106315 0)
(0.0469745 -0.128512 0)
(0.0529397 -0.150687 0)
(0.0196647 -0.176439 0)
(0.0359052 -0.203186 0)
(-0.00999987 -0.23291 0)
(0.0154784 -0.292937 0)
(-0.0422962 -0.405576 0)
(0.00718046 -0.455077 0)
(0.000771936 0.0186122 0)
(0.028972 0.113617 0)
(0.0565215 0.192427 0)
(0.0790063 0.236577 0)
(0.0944157 0.251575 0)
(0.103441 0.243626 0)
(0.107623 0.221572 0)
(0.109093 0.194481 0)
(0.110067 0.168405 0)
(0.112033 0.14544 0)
(0.114985 0.125284 0)
(0.119141 0.106396 0)
(0.122298 0.0878529 0)
(0.126418 0.0686456 0)
(0.12656 0.0487118 0)
(0.128822 0.0279826 0)
(0.123813 0.0068101 0)
(0.123726 -0.0143877 0)
(0.112503 -0.0353687 0)
(0.111116 -0.0557168 0)
(0.0931291 -0.0759318 0)
(0.093286 -0.0957408 0)
(0.0670503 -0.116996 0)
(0.0733018 -0.138656 0)
(0.0347712 -0.163422 0)
(0.0523621 -0.189581 0)
(-0.0026128 -0.218998 0)
(0.02819 -0.276644 0)
(-0.0408101 -0.393728 0)
(0.0123093 -0.474349 0)
(-0.000441266 0.00793811 0)
(0.0224496 0.0829309 0)
(0.0540042 0.164086 0)
(0.0807489 0.215478 0)
(0.100777 0.236802 0)
(0.113871 0.234566 0)
(0.121682 0.216603 0)
(0.125976 0.191376 0)
(0.128686 0.165297 0)
(0.131799 0.141398 0)
(0.135163 0.12042 0)
(0.140381 0.101267 0)
(0.143661 0.0831784 0)
(0.149333 0.0651351 0)
(0.14935 0.046858 0)
(0.153357 0.028183 0)
(0.147689 0.00922973 0)
(0.149287 -0.0096701 0)
(0.136635 -0.0285196 0)
(0.136768 -0.0468756 0)
(0.116377 -0.0654483 0)
(0.117717 -0.0838436 0)
(0.0877972 -0.103808 0)
(0.0947122 -0.124427 0)
(0.0503525 -0.1481 0)
(0.0691514 -0.173447 0)
(0.00446782 -0.202428 0)
(0.0409395 -0.258015 0)
(-0.0398978 -0.378031 0)
(0.0192591 -0.491716 0)
(-0.000290561 0.0013211 0)
(0.0149903 0.0549735 0)
(0.0466489 0.13295 0)
(0.0774791 0.189743 0)
(0.102422 0.218244 0)
(0.121623 0.222427 0)
(0.135074 0.209712 0)
(0.144158 0.1876 0)
(0.150054 0.162714 0)
(0.155456 0.138559 0)
(0.159215 0.116911 0)
(0.165487 0.0973517 0)
(0.168042 0.0794467 0)
(0.174885 0.0623213 0)
(0.173908 0.0455231 0)
(0.179481 0.0288342 0)
(0.17256 0.0120606 0)
(0.175999 -0.00448313 0)
(0.161621 -0.0211481 0)
(0.163666 -0.0373598 0)
(0.140696 -0.0541459 0)
(0.14371 -0.0707085 0)
(0.109832 -0.0890796 0)
(0.117841 -0.107706 0)
(0.067003 -0.12954 0)
(0.087261 -0.152718 0)
(0.0117567 -0.18193 0)
(0.0548606 -0.237143 0)
(-0.0404935 -0.361585 0)
(0.0272528 -0.510913 0)
(7.98912e-05 -0.00256852 0)
(0.00826319 0.0331357 0)
(0.0345482 0.101287 0)
(0.0652636 0.159407 0)
(0.094546 0.192043 0)
(0.119041 0.201811 0)
(0.138845 0.19431 0)
(0.154374 0.176375 0)
(0.165181 0.154234 0)
(0.17506 0.131487 0)
(0.180532 0.110401 0)
(0.189321 0.0913036 0)
(0.191551 0.0740498 0)
(0.200317 0.0580872 0)
(0.198239 0.0428718 0)
(0.20597 0.0282367 0)
(0.197633 0.013713 0)
(0.203623 -0.00034253 0)
(0.1874 -0.0146164 0)
(0.192175 -0.0283549 0)
(0.166502 -0.0428585 0)
(0.171893 -0.056887 0)
(0.133733 -0.0729039 0)
(0.143206 -0.0885003 0)
(0.0854379 -0.108019 0)
(0.107144 -0.127921 0)
(0.0193351 -0.157844 0)
(0.0693305 -0.211545 0)
(-0.0461406 -0.341719 0)
(0.0356773 -0.526399 0)
(-0.00100723 -0.00307771 0)
(0.00175272 0.0198335 0)
(0.0183975 0.0758754 0)
(0.0473633 0.128306 0)
(0.0797716 0.163725 0)
(0.111826 0.177149 0)
(0.139126 0.174462 0)
(0.163256 0.161046 0)
(0.180573 0.142681 0)
(0.197272 0.122484 0)
(0.205623 0.103144 0)
(0.218651 0.0852503 0)
(0.22069 0.0691631 0)
(0.232212 0.0544747 0)
(0.228331 0.0409024 0)
(0.238565 0.0281717 0)
(0.227699 0.0158642 0)
(0.23647 0.00416056 0)
(0.217132 -0.00763258 0)
(0.22491 -0.0187656 0)
(0.19525 -0.0306456 0)
(0.203399 -0.0417126 0)
(0.159838 -0.0547926 0)
(0.171522 -0.0667586 0)
(0.106702 -0.0834188 0)
(0.130859 -0.099052 0)
(0.0319071 -0.129216 0)
(0.0882736 -0.178022 0)
(-0.050697 -0.312719 0)
(0.0487946 -0.523844 0)
(-0.0061258 0.00041275 0)
(-0.013625 0.0126994 0)
(-0.00520871 0.0565955 0)
(0.0148903 0.0948511 0)
(0.0504148 0.127022 0)
(0.086116 0.141209 0)
(0.121538 0.142769 0)
(0.155425 0.134733 0)
(0.179856 0.121464 0)
(0.206116 0.105738 0)
(0.218669 0.0901221 0)
(0.239177 0.0751631 0)
(0.242047 0.06167 0)
(0.259299 0.0492027 0)
(0.253817 0.0379847 0)
(0.269072 0.0274494 0)
(0.25503 0.0176656 0)
(0.268843 0.00835823 0)
(0.245182 -0.000664599 0)
(0.258318 -0.00915676 0)
(0.223176 -0.018028 0)
(0.236981 -0.0260529 0)
(0.186722 -0.0355258 0)
(0.204221 -0.0437541 0)
(0.131914 -0.0566722 0)
(0.162038 -0.0688207 0)
(0.0551736 -0.0985347 0)
(0.117245 -0.14404 0)
(-0.0352148 -0.276321 0)
(0.0756393 -0.507215 0)
(-0.0275896 0.0254919 0)
(-0.0460623 0.0170863 0)
(-0.0352567 0.0500021 0)
(-0.0159994 0.069505 0)
(0.0217178 0.0964732 0)
(0.0631706 0.102693 0)
(0.104763 0.106955 0)
(0.149426 0.10172 0)
(0.179057 0.0934518 0)
(0.216583 0.0819463 0)
(0.231809 0.0712169 0)
(0.262479 0.0595509 0)
(0.264382 0.0500402 0)
(0.290796 0.0401106 0)
(0.28105 0.0324777 0)
(0.305257 0.0241827 0)
(0.284355 0.0179681 0)
(0.30783 0.0108517 0)
(0.275212 0.00562875 0)
(0.299394 -0.000571374 0)
(0.253504 -0.00520491 0)
(0.280592 -0.0107563 0)
(0.218399 -0.015742 0)
(0.251731 -0.0212074 0)
(0.167144 -0.0291651 0)
(0.214017 -0.0393755 0)
(0.096345 -0.0663549 0)
(0.170894 -0.119615 0)
(0.0108777 -0.251128 0)
(0.117699 -0.504549 0)
(0.0153819 0.0728708 0)
(-0.0759295 0.0132345 0)
(-0.0471587 0.0326459 0)
(-0.0591678 0.0325202 0)
(-0.0115155 0.0476234 0)
(0.0253226 0.0522342 0)
(0.0745356 0.059888 0)
(0.127607 0.0591631 0)
(0.158204 0.058079 0)
(0.211451 0.0525493 0)
(0.223356 0.0482114 0)
(0.272572 0.041486 0)
(0.266917 0.0367413 0)
(0.314151 0.0305073 0)
(0.292804 0.0263531 0)
(0.340566 0.0210376 0)
(0.304364 0.0175606 0)
(0.355176 0.0131477 0)
(0.303894 0.0101985 0)
(0.360363 0.00663027 0)
(0.292615 0.00395415 0)
(0.357751 0.00104395 0)
(0.270867 -0.00200694 0)
(0.348924 -0.00487529 0)
(0.238024 -0.00963548 0)
(0.332183 -0.0164338 0)
(0.183526 -0.034838 0)
(0.290502 -0.0892954 0)
(0.0758305 -0.220445 0)
(0.178212 -0.452816 0)
(0.0743889 0.0672298 0)
(0.0986702 0.0525677 0)
(0.141581 0.0350518 0)
(0.188275 0.0265115 0)
(0.195767 0.0183284 0)
(0.252074 0.0158238 0)
(0.256419 0.0143641 0)
(0.32672 0.0142324 0)
(0.323846 0.0142758 0)
(0.401266 0.0137701 0)
(0.387079 0.0134776 0)
(0.466638 0.0123149 0)
(0.438083 0.0118905 0)
(0.519641 0.0102608 0)
(0.475827 0.0100294 0)
(0.561198 0.00805733 0)
(0.501482 0.00828209 0)
(0.59319 0.00593918 0)
(0.516589 0.00681434 0)
(0.617462 0.0039166 0)
(0.522383 0.00562495 0)
(0.635576 0.00185312 0)
(0.519737 0.00471309 0)
(0.648796 -0.000485139 0)
(0.508396 0.00383149 0)
(0.654655 -0.00404294 0)
(0.473068 0.000618676 0)
(0.612014 -0.0198664 0)
(0.300648 -0.0334609 0)
(0.390644 -0.0960736 0)
)
;

boundaryField
{
    movingWall
    {
        type            fixedValue;
        value           uniform (1 0 0);
    }
    fixedWalls
    {
        type            noSlip;
    }
    frontAndBack
    {
        type            empty;
    }
}


// ************************************************************************* //
