/*--------------------------------*- C++ -*----------------------------------*\
| =========                 |                                                 |
| \\      /  F ield         | OpenFOAM: The Open Source CFD Toolbox           |
|  \\    /   O peration     | Version:  2406                                  |
|   \\  /    A nd           | Website:  www.openfoam.com                      |
|    \\/     M anipulation  |                                                 |
\*---------------------------------------------------------------------------*/
FoamFile
{
    version     2.0;
    format      ascii;
    arch        "LSB;label=32;scalar=64";
    class       volVectorField;
    location    "33";
    object      Uold;
}
// * * * * * * * * * * * * * * * * * * * * * * * * * * * * * * * * * * * * * //

dimensions      [0 1 -1 0 0 0 0];

internalField   nonuniform List<vector> 
3600
(
(-1.37452e-05 6.88916e-06 0)
(0.000316876 -0.000178356 0)
(0.00106415 -0.000282219 0)
(0.00191096 -0.000301081 0)
(0.00271532 -0.000242187 0)
(0.003285 -0.000158747 0)
(0.00363024 -7.85783e-05 0)
(0.00375275 -2.62628e-05 0)
(0.00374524 -3.16727e-06 0)
(0.00365366 -2.63621e-06 0)
(0.00352254 -8.58673e-06 0)
(0.0033334 -6.07988e-06 0)
(0.0030439 1.67718e-05 0)
(0.00257676 6.52167e-05 0)
(0.00185137 0.000140272 0)
(0.000782071 0.000240793 0)
(-0.000709358 0.000366221 0)
(-0.00269708 0.00051605 0)
(-0.00524476 0.000687169 0)
(-0.00840383 0.000872202 0)
(-0.0122042 0.00106353 0)
(-0.0166434 0.00125863 0)
(-0.0216707 0.00145869 0)
(-0.0271744 0.00165885 0)
(-0.0329728 0.0018384 0)
(-0.0388149 0.00195982 0)
(-0.0443899 0.00197797 0)
(-0.0493484 0.00185304 0)
(-0.0533303 0.00156061 0)
(-0.0559946 0.00109613 0)
(-0.0570472 0.000474931 0)
(-0.056265 -0.000270038 0)
(-0.0535162 -0.00109118 0)
(-0.0487774 -0.00192932 0)
(-0.0421476 -0.00271708 0)
(-0.0338572 -0.00338326 0)
(-0.02427 -0.00385876 0)
(-0.0138736 -0.00408435 0)
(-0.0032552 -0.00402014 0)
(0.00694078 -0.00365526 0)
(0.016071 -0.0030157 0)
(0.0235674 -0.00216733 0)
(0.0290083 -0.00121061 0)
(0.0321847 -0.000266295 0)
(0.0331272 0.000548845 0)
(0.0321047 0.00114755 0)
(0.0295603 0.00149411 0)
(0.0260348 0.00160644 0)
(0.022051 0.00154345 0)
(0.0180525 0.00137535 0)
(0.0143338 0.00116452 0)
(0.0110744 0.000950585 0)
(0.00831637 0.000758356 0)
(0.00606396 0.000595481 0)
(0.0042303 0.000469026 0)
(0.00277747 0.000369247 0)
(0.00159323 0.000292121 0)
(0.000714403 0.000197229 0)
(0.000110616 8.11252e-05 0)
(-6.45509e-05 -6.986e-05 0)
(0.000152357 -0.000303892 0)
(0.00109411 -0.00112688 0)
(0.0027223 -0.00155653 0)
(0.0044484 -0.0015927 0)
(0.00603005 -0.0012897 0)
(0.00712142 -0.000840588 0)
(0.00769925 -0.000379812 0)
(0.00773446 -9.29815e-06 0)
(0.00734212 0.000251682 0)
(0.00656889 0.000434858 0)
(0.00544846 0.000611129 0)
(0.00390645 0.000855805 0)
(0.00181623 0.00122879 0)
(-0.00101156 0.00176202 0)
(-0.00477536 0.00246334 0)
(-0.0096742 0.00332432 0)
(-0.0158759 0.00432627 0)
(-0.0235056 0.0054412 0)
(-0.0326144 0.00663209 0)
(-0.0431485 0.00785038 0)
(-0.0549119 0.00902707 0)
(-0.0675564 0.0100641 0)
(-0.0805982 0.0108397 0)
(-0.0934661 0.0112288 0)
(-0.105561 0.0111264 0)
(-0.116313 0.0104634 0)
(-0.125227 0.00921309 0)
(-0.131898 0.00739052 0)
(-0.136019 0.00504788 0)
(-0.13738 0.00226821 0)
(-0.135853 -0.000840092 0)
(-0.131397 -0.00414711 0)
(-0.124049 -0.00750354 0)
(-0.113934 -0.0107424 0)
(-0.101272 -0.0136818 0)
(-0.0863849 -0.0161311 0)
(-0.0697086 -0.0179021 0)
(-0.0517926 -0.0188263 0)
(-0.0332933 -0.0187776 0)
(-0.0149506 -0.0176987 0)
(0.00245037 -0.0156246 0)
(0.0181382 -0.0126976 0)
(0.0314176 -0.00916568 0)
(0.0417466 -0.0053601 0)
(0.0487876 -0.00164979 0)
(0.052465 0.00161519 0)
(0.0529628 0.00416811 0)
(0.0507307 0.00586733 0)
(0.046397 0.00671884 0)
(0.0407116 0.00684809 0)
(0.0343847 0.00645796 0)
(0.0280454 0.00575826 0)
(0.0221006 0.00493511 0)
(0.0168308 0.00411227 0)
(0.0122794 0.00337596 0)
(0.00849523 0.00273703 0)
(0.00534133 0.00218855 0)
(0.00289708 0.00160699 0)
(0.00106049 0.000953254 0)
(0.000129334 0.00013653 0)
(0.000263462 -0.00102374 0)
(0.00159861 -0.00277778 0)
(0.0037459 -0.00362472 0)
(0.00587434 -0.00358016 0)
(0.00769101 -0.00282507 0)
(0.00877072 -0.0017203 0)
(0.00907648 -0.000558901 0)
(0.0085477 0.000464305 0)
(0.00727277 0.00130516 0)
(0.0052446 0.00204138 0)
(0.00242306 0.00282691 0)
(-0.00136357 0.00382959 0)
(-0.00634571 0.00517745 0)
(-0.0128085 0.00693527 0)
(-0.021018 0.00910554 0)
(-0.0311943 0.0116427 0)
(-0.0434489 0.0144599 0)
(-0.0577346 0.017426 0)
(-0.0737857 0.0203508 0)
(-0.091111 0.022984 0)
(-0.10904 0.0250464 0)
(-0.126825 0.0262868 0)
(-0.143738 0.0265285 0)
(-0.159157 0.025687 0)
(-0.17259 0.0237607 0)
(-0.183684 0.02081 0)
(-0.192199 0.0169348 0)
(-0.197983 0.0122596 0)
(-0.200946 0.00692376 0)
(-0.20104 0.00107922 0)
(-0.198245 -0.00510865 0)
(-0.192564 -0.0114568 0)
(-0.184031 -0.017759 0)
(-0.172718 -0.0237816 0)
(-0.158752 -0.0292615 0)
(-0.142338 -0.0339114 0)
(-0.123776 -0.0374326 0)
(-0.103484 -0.0395403 0)
(-0.0820028 -0.0399982 0)
(-0.0599922 -0.0386612 0)
(-0.0382074 -0.0355183 0)
(-0.0174504 -0.0307234 0)
(0.00148849 -0.0246041 0)
(0.0179068 -0.0176382 0)
(0.0312447 -0.0103992 0)
(0.0411463 -0.00348188 0)
(0.0474686 0.00258134 0)
(0.0503207 0.00738729 0)
(0.0500282 0.0107192 0)
(0.0471534 0.0125603 0)
(0.042376 0.0130876 0)
(0.036471 0.0126048 0)
(0.0300979 0.0114761 0)
(0.0238451 0.0100304 0)
(0.0180149 0.00853099 0)
(0.0128791 0.00710589 0)
(0.00840619 0.00578747 0)
(0.0047959 0.00441471 0)
(0.00192788 0.00285567 0)
(0.000317813 0.000896098 0)
(0.00033505 -0.00192852 0)
(0.00189367 -0.0046988 0)
(0.00423777 -0.00587028 0)
(0.00634335 -0.00554632 0)
(0.00789272 -0.00411781 0)
(0.00843469 -0.00212658 0)
(0.00793983 -2.25261e-05 0)
(0.00631616 0.0019347 0)
(0.00359056 0.00370538 0)
(-0.000348532 0.00544232 0)
(-0.00566868 0.00739881 0)
(-0.0126698 0.00983278 0)
(-0.0216769 0.0129146 0)
(-0.0330044 0.0166938 0)
(-0.046849 0.0210975 0)
(-0.063224 0.0259442 0)
(-0.0818711 0.0309397 0)
(-0.102243 0.0356851 0)
(-0.123557 0.0397289 0)
(-0.144941 0.0426626 0)
(-0.165578 0.0442011 0)
(-0.184811 0.0442109 0)
(-0.202167 0.0426888 0)
(-0.217342 0.0397216 0)
(-0.230157 0.035445 0)
(-0.240517 0.0300153 0)
(-0.248377 0.0235919 0)
(-0.253711 0.0163301 0)
(-0.2565 0.00838199 0)
(-0.256719 -9.87055e-05 0)
(-0.254331 -0.0089475 0)
(-0.249294 -0.017978 0)
(-0.241563 -0.0269703 0)
(-0.231103 -0.0356599 0)
(-0.217909 -0.0437313 0)
(-0.20203 -0.0508191 0)
(-0.183599 -0.0565207 0)
(-0.162863 -0.0604245 0)
(-0.140214 -0.0621555 0)
(-0.116204 -0.0614354 0)
(-0.091543 -0.0581481 0)
(-0.0670626 -0.0523955 0)
(-0.0436521 -0.0445244 0)
(-0.0221645 -0.0351063 0)
(-0.00332932 -0.0248713 0)
(0.0123262 -0.014606 0)
(0.024488 -0.00504908 0)
(0.0330684 0.00318852 0)
(0.0381522 0.00968185 0)
(0.0400327 0.0142163 0)
(0.0391432 0.01681 0)
(0.0361112 0.0176876 0)
(0.0315811 0.0172361 0)
(0.0262692 0.0159029 0)
(0.0206743 0.0141135 0)
(0.0153092 0.0121602 0)
(0.0103188 0.0101716 0)
(0.00608751 0.0080179 0)
(0.00255382 0.00544831 0)
(0.0004581 0.00206203 0)
(0.000374423 -0.00299252 0)
(0.00200634 -0.00679642 0)
(0.00426804 -0.00812127 0)
(0.00598762 -0.0072392 0)
(0.00683075 -0.00483889 0)
(0.00635647 -0.00166178 0)
(0.00454729 0.00169268 0)
(0.00127688 0.00494356 0)
(-0.00351885 0.00809996 0)
(-0.0100854 0.0114259 0)
(-0.018732 0.0152773 0)
(-0.0298519 0.0199652 0)
(-0.043761 0.0256223 0)
(-0.060615 0.0321641 0)
(-0.080273 0.0392825 0)
(-0.102252 0.04648 0)
(-0.125748 0.053135 0)
(-0.149791 0.0586327 0)
(-0.173441 0.0624951 0)
(-0.195935 0.0644504 0)
(-0.216736 0.0644214 0)
(-0.235516 0.0624752 0)
(-0.252098 0.0587643 0)
(-0.266407 0.0534811 0)
(-0.278427 0.0468258 0)
(-0.288173 0.0389892 0)
(-0.295669 0.0301445 0)
(-0.30094 0.0204476 0)
(-0.303998 0.0100419 0)
(-0.304835 -0.000932192 0)
(-0.303418 -0.0123255 0)
(-0.299686 -0.0239649 0)
(-0.293547 -0.0356375 0)
(-0.284886 -0.0470736 0)
(-0.273576 -0.057933 0)
(-0.259497 -0.0677978 0)
(-0.242575 -0.0761777 0)
(-0.222823 -0.0825333 0)
(-0.200392 -0.0863246 0)
(-0.17563 -0.0870833 0)
(-0.149114 -0.0845064 0)
(-0.121658 -0.0785496 0)
(-0.0942697 -0.0694983 0)
(-0.0680422 -0.0579777 0)
(-0.044009 -0.0448865 0)
(-0.0229866 -0.0312546 0)
(-0.00548985 -0.0180779 0)
(0.0082873 -0.00618618 0)
(0.01837 0.00382049 0)
(0.0249636 0.0115758 0)
(0.0283559 0.0169493 0)
(0.0290007 0.0200366 0)
(0.0273993 0.0211453 0)
(0.0242161 0.0207306 0)
(0.019993 0.0192957 0)
(0.0153782 0.0172701 0)
(0.0106702 0.0148837 0)
(0.006437 0.0120781 0)
(0.00273867 0.00848088 0)
(0.000496031 0.00348751 0)
(0.000398865 -0.00408526 0)
(0.00196286 -0.00875964 0)
(0.00383993 -0.0099293 0)
(0.0047905 -0.00812831 0)
(0.00448307 -0.0044225 0)
(0.0025268 0.000246056 0)
(-0.00109742 0.00516724 0)
(-0.00656766 0.0101054 0)
(-0.0140733 0.0151715 0)
(-0.0239979 0.0207547 0)
(-0.0367434 0.0272614 0)
(-0.0526589 0.034937 0)
(-0.071826 0.0437031 0)
(-0.0939643 0.0531438 0)
(-0.118375 0.0625619 0)
(-0.144063 0.0711405 0)
(-0.169939 0.0781326 0)
(-0.195051 0.0830174 0)
(-0.218687 0.0855415 0)
(-0.240393 0.0856798 0)
(-0.259915 0.0835594 0)
(-0.277147 0.079393 0)
(-0.292074 0.0734271 0)
(-0.304745 0.0659107 0)
(-0.315245 0.0570752 0)
(-0.32368 0.0471253 0)
(-0.330163 0.0362351 0)
(-0.334798 0.0245502 0)
(-0.337672 0.0121933 0)
(-0.33884 -0.000725995 0)
(-0.338315 -0.0140977 0)
(-0.336057 -0.0277944 0)
(-0.331967 -0.0416515 0)
(-0.325881 -0.0554439 0)
(-0.317575 -0.0688639 0)
(-0.30677 -0.0815008 0)
(-0.293163 -0.0928316 0)
(-0.276472 -0.102228 0)
(-0.256501 -0.108992 0)
(-0.233227 -0.112427 0)
(-0.206895 -0.111945 0)
(-0.178093 -0.107203 0)
(-0.147785 -0.098238 0)
(-0.117254 -0.0855606 0)
(-0.0879447 -0.0701458 0)
(-0.0612127 -0.0532943 0)
(-0.038076 -0.0363864 0)
(-0.019049 -0.0206193 0)
(-0.00419405 -0.00684993 0)
(0.0067419 0.00441592 0)
(0.0141022 0.0129603 0)
(0.0183207 0.0187914 0)
(0.0198177 0.0221224 0)
(0.0191657 0.0233474 0)
(0.0168645 0.0229579 0)
(0.0135893 0.0214457 0)
(0.00973406 0.0191005 0)
(0.00599261 0.0159286 0)
(0.00256605 0.0114494 0)
(0.000459598 0.00488937 0)
(0.000397406 -0.00517117 0)
(0.00171798 -0.0104181 0)
(0.00288248 -0.0110235 0)
(0.00268597 -0.00788728 0)
(0.00081639 -0.00250791 0)
(-0.00303942 0.00399694 0)
(-0.0089346 0.0108665 0)
(-0.017117 0.0179786 0)
(-0.0279086 0.0255741 0)
(-0.0417637 0.0341203 0)
(-0.0590242 0.0439357 0)
(-0.0797563 0.0549947 0)
(-0.103562 0.066799 0)
(-0.129597 0.0784948 0)
(-0.156713 0.089085 0)
(-0.18374 0.0977022 0)
(-0.209696 0.10377 0)
(-0.233885 0.107039 0)
(-0.255876 0.107513 0)
(-0.275445 0.105369 0)
(-0.292517 0.100875 0)
(-0.307129 0.0943394 0)
(-0.319394 0.0860768 0)
(-0.329482 0.0763823 0)
(-0.337595 0.0655157 0)
(-0.343949 0.0536935 0)
(-0.348752 0.0410858 0)
(-0.352195 0.0278205 0)
(-0.354435 0.0139895 0)
(-0.35559 -0.000339489 0)
(-0.355723 -0.0151095 0)
(-0.354838 -0.0302565 0)
(-0.352864 -0.0456886 0)
(-0.349644 -0.0612612 0)
(-0.344926 -0.0767483 0)
(-0.338351 -0.0918125 0)
(-0.329461 -0.105977 0)
(-0.317723 -0.118609 0)
(-0.302583 -0.128928 0)
(-0.283559 -0.136047 0)
(-0.260373 -0.139067 0)
(-0.233097 -0.137231 0)
(-0.202299 -0.130113 0)
(-0.169119 -0.11782 0)
(-0.135216 -0.101118 0)
(-0.102539 -0.0814135 0)
(-0.0729398 -0.0605181 0)
(-0.0477426 -0.0402458 0)
(-0.0275058 -0.0220128 0)
(-0.0120738 -0.00665226 0)
(-0.000938806 0.00551229 0)
(0.00652663 0.0144815 0)
(0.0108541 0.0204573 0)
(0.0126242 0.0237995 0)
(0.0123176 0.0249616 0)
(0.0105897 0.0244389 0)
(0.00788416 0.0225296 0)
(0.00495013 0.0192703 0)
(0.00211243 0.0140983 0)
(0.000363052 0.00612995 0)
(0.000356313 -0.00610699 0)
(0.00121056 -0.0114382 0)
(0.00129441 -0.0109737 0)
(-0.000426186 -0.006062 0)
(-0.00423981 0.00135631 0)
(-0.0103647 0.0100478 0)
(-0.0189305 0.0192788 0)
(-0.0302529 0.0290856 0)
(-0.044739 0.0398032 0)
(-0.0627583 0.0518334 0)
(-0.0843684 0.0651873 0)
(-0.109134 0.0793627 0)
(-0.13611 0.0933755 0)
(-0.164045 0.106076 0)
(-0.191678 0.116455 0)
(-0.21797 0.123858 0)
(-0.242189 0.128008 0)
(-0.263886 0.128924 0)
(-0.282835 0.126825 0)
(-0.29899 0.122045 0)
(-0.312441 0.114975 0)
(-0.323382 0.106019 0)
(-0.33208 0.0955546 0)
(-0.338839 0.083915 0)
(-0.343972 0.0713726 0)
(-0.347776 0.0581362 0)
(-0.350524 0.0443525 0)
(-0.352448 0.0301153 0)
(-0.353738 0.0154743 0)
(-0.354542 0.000448571 0)
(-0.354958 -0.0149613 0)
(-0.355034 -0.0307574 0)
(-0.354754 -0.0469277 0)
(-0.354025 -0.0634239 0)
(-0.352652 -0.0801344 0)
(-0.350316 -0.0968495 0)
(-0.346552 -0.113222 0)
(-0.340732 -0.128728 0)
(-0.332083 -0.142634 0)
(-0.319744 -0.153997 0)
(-0.302879 -0.161705 0)
(-0.280859 -0.1646 0)
(-0.253491 -0.16167 0)
(-0.221251 -0.152325 0)
(-0.185444 -0.136685 0)
(-0.148175 -0.11578 0)
(-0.112049 -0.0915319 0)
(-0.0795743 -0.0663999 0)
(-0.0525046 -0.0427438 0)
(-0.0314195 -0.0222201 0)
(-0.0159164 -0.00557014 0)
(-0.00509578 0.00714711 0)
(0.00190693 0.0162181 0)
(0.00588124 0.0220696 0)
(0.00741649 0.025172 0)
(0.00718764 0.0260154 0)
(0.00568734 0.0248814 0)
(0.00367188 0.0218033 0)
(0.00155942 0.0161715 0)
(0.000251592 0.00706909 0)
(0.000253355 -0.00676136 0)
(0.000374468 -0.0115332 0)
(-0.000995473 -0.00944997 0)
(-0.0045723 -0.00234123 0)
(-0.0106405 0.00746432 0)
(-0.0193179 0.0187017 0)
(-0.0308443 0.0307314 0)
(-0.0455519 0.0437314 0)
(-0.0638134 0.0580014 0)
(-0.085703 0.073657 0)
(-0.110812 0.0901988 0)
(-0.138159 0.106595 0)
(-0.166425 0.121535 0)
(-0.19425 0.133857 0)
(-0.220511 0.142778 0)
(-0.244404 0.147963 0)
(-0.265438 0.149424 0)
(-0.283377 0.147421 0)
(-0.298205 0.142366 0)
(-0.310081 0.134751 0)
(-0.319293 0.125085 0)
(-0.326209 0.113847 0)
(-0.33123 0.101452 0)
(-0.334749 0.088236 0)
(-0.33713 0.0744494 0)
(-0.338684 0.0602637 0)
(-0.339673 0.0457817 0)
(-0.340308 0.0310524 0)
(-0.340757 0.0160832 0)
(-0.341148 0.00085321 0)
(-0.341583 -0.0146767 0)
(-0.342129 -0.0305526 0)
(-0.342822 -0.0468178 0)
(-0.343648 -0.063498 0)
(-0.344529 -0.0805832 0)
(-0.345281 -0.0979991 0)
(-0.345582 -0.115569 0)
(-0.344919 -0.132962 0)
(-0.342554 -0.149636 0)
(-0.337514 -0.164783 0)
(-0.328636 -0.177305 0)
(-0.314695 -0.185845 0)
(-0.294633 -0.188921 0)
(-0.267888 -0.185175 0)
(-0.234748 -0.173746 0)
(-0.196639 -0.154692 0)
(-0.156159 -0.129318 0)
(-0.116691 -0.100178 0)
(-0.0815659 -0.0705576 0)
(-0.0530181 -0.0435011 0)
(-0.0316224 -0.0208978 0)
(-0.0165661 -0.00330014 0)
(-0.00657027 0.00961072 0)
(-0.000405808 0.0184489 0)
(0.00283179 0.0238371 0)
(0.00396149 0.026329 0)
(0.00357842 0.02622 0)
(0.00244196 0.0235354 0)
(0.00103835 0.0176659 0)
(0.000151845 0.00772363 0)
(6.91953e-05 -0.0069186 0)
(-0.000833919 -0.0103338 0)
(-0.00400685 -0.00607948 0)
(-0.00970594 0.00359757 0)
(-0.018254 0.0161022 0)
(-0.0296595 0.0302228 0)
(-0.0442738 0.0454374 0)
(-0.0623359 0.0619602 0)
(-0.0840232 0.0798541 0)
(-0.108944 0.0987408 0)
(-0.136193 0.117551 0)
(-0.164392 0.134871 0)
(-0.192112 0.149336 0)
(-0.218106 0.160004 0)
(-0.241488 0.166427 0)
(-0.261697 0.168591 0)
(-0.278491 0.166789 0)
(-0.291884 0.161524 0)
(-0.302114 0.153402 0)
(-0.309564 0.143058 0)
(-0.314709 0.131085 0)
(-0.318039 0.117989 0)
(-0.320019 0.104169 0)
(-0.32105 0.0899151 0)
(-0.321464 0.0754172 0)
(-0.321518 0.0607844 0)
(-0.321407 0.0460626 0)
(-0.321273 0.0312541 0)
(-0.321225 0.0163303 0)
(-0.321347 0.00124414 0)
(-0.321712 -0.0140634 0)
(-0.322383 -0.0296568 0)
(-0.32342 -0.0456025 0)
(-0.32487 -0.061963 0)
(-0.326756 -0.0787898 0)
(-0.329045 -0.0961067 0)
(-0.331618 -0.113885 0)
(-0.334201 -0.132002 0)
(-0.336307 -0.150173 0)
(-0.337162 -0.167878 0)
(-0.335658 -0.18427 0)
(-0.330368 -0.198113 0)
(-0.319676 -0.207788 0)
(-0.302043 -0.211423 0)
(-0.276437 -0.207205 0)
(-0.242853 -0.193875 0)
(-0.202778 -0.171342 0)
(-0.15933 -0.141206 0)
(-0.116809 -0.106821 0)
(-0.0794851 -0.0725455 0)
(-0.0501036 -0.0422329 0)
(-0.0290414 -0.0179439 0)
(-0.014994 0.000147965 0)
(-0.006181 0.0128132 0)
(-0.00114772 0.0209936 0)
(0.00126671 0.0254538 0)
(0.00187461 0.0266065 0)
(0.00148878 0.0245138 0)
(0.000663432 0.0186261 0)
(8.9343e-05 0.00813128 0)
(-0.00020927 -0.00636973 0)
(-0.00241394 -0.00754305 0)
(-0.00766391 -0.000619867 0)
(-0.0156464 0.0119159 0)
(-0.0267778 0.0273747 0)
(-0.0409337 0.0446494 0)
(-0.0585361 0.0632925 0)
(-0.0795851 0.0833744 0)
(-0.103931 0.104522 0)
(-0.130664 0.12577 0)
(-0.158509 0.145595 0)
(-0.185915 0.16245 0)
(-0.21156 0.175157 0)
(-0.234414 0.183117 0)
(-0.253864 0.18624 0)
(-0.269627 0.184846 0)
(-0.28176 0.17952 0)
(-0.290563 0.170999 0)
(-0.296527 0.160059 0)
(-0.300216 0.147419 0)
(-0.302212 0.133684 0)
(-0.30303 0.119319 0)
(-0.303104 0.104648 0)
(-0.302764 0.0898752 0)
(-0.302249 0.0751055 0)
(-0.301715 0.0603772 0)
(-0.301266 0.0456819 0)
(-0.300964 0.0309848 0)
(-0.300849 0.0162356 0)
(-0.300956 0.00137846 0)
(-0.30132 -0.0136458 0)
(-0.301986 -0.0288965 0)
(-0.303013 -0.0444352 0)
(-0.30447 -0.0603248 0)
(-0.306434 -0.0766315 0)
(-0.308973 -0.0934204 0)
(-0.312126 -0.110747 0)
(-0.315851 -0.128633 0)
(-0.31997 -0.147022 0)
(-0.324074 -0.165709 0)
(-0.32742 -0.184232 0)
(-0.328844 -0.201747 0)
(-0.326727 -0.216911 0)
(-0.31909 -0.227836 0)
(-0.303897 -0.232208 0)
(-0.27958 -0.227648 0)
(-0.245754 -0.212367 0)
(-0.203913 -0.186055 0)
(-0.157751 -0.150674 0)
(-0.112613 -0.110643 0)
(-0.0738264 -0.0716827 0)
(-0.0444941 -0.038548 0)
(-0.0245603 -0.0132082 0)
(-0.0120111 0.00472483 0)
(-0.00469036 0.0165668 0)
(-0.00086299 0.023489 0)
(0.000675248 0.0262042 0)
(0.000901697 0.0249221 0)
(0.000476475 0.019228 0)
(7.04104e-05 0.00841062 0)
(-0.000584542 -0.00487973 0)
(-0.00432216 -0.00288464 0)
(-0.0118231 0.00711863 0)
(-0.0221372 0.0227141 0)
(-0.0358233 0.0413075 0)
(-0.0525759 0.0618884 0)
(-0.0728139 0.0839727 0)
(-0.0961676 0.107286 0)
(-0.122115 0.130903 0)
(-0.149303 0.153327 0)
(-0.176289 0.172807 0)
(-0.201549 0.187909 0)
(-0.223994 0.197793 0)
(-0.242863 0.202252 0)
(-0.257869 0.201586 0)
(-0.269047 0.196457 0)
(-0.27678 0.187735 0)
(-0.281623 0.176349 0)
(-0.28425 0.163162 0)
(-0.285301 0.14889 0)
(-0.285354 0.13407 0)
(-0.284854 0.119064 0)
(-0.284131 0.104082 0)
(-0.283394 0.0892231 0)
(-0.282769 0.0745091 0)
(-0.282312 0.0599166 0)
(-0.282043 0.0453973 0)
(-0.281959 0.0308953 0)
(-0.282055 0.0163534 0)
(-0.282324 0.00171937 0)
(-0.282778 -0.0130553 0)
(-0.283439 -0.0280143 0)
(-0.284355 -0.0432016 0)
(-0.285589 -0.0586625 0)
(-0.287231 -0.0744511 0)
(-0.289386 -0.0906316 0)
(-0.292169 -0.107283 0)
(-0.295677 -0.12449 0)
(-0.299956 -0.142331 0)
(-0.304924 -0.160827 0)
(-0.310276 -0.179865 0)
(-0.315342 -0.199067 0)
(-0.318959 -0.217615 0)
(-0.319372 -0.234074 0)
(-0.314294 -0.246275 0)
(-0.301206 -0.251401 0)
(-0.277979 -0.246396 0)
(-0.243806 -0.228835 0)
(-0.200199 -0.198144 0)
(-0.151534 -0.156842 0)
(-0.104388 -0.110791 0)
(-0.0651571 -0.0674542 0)
(-0.0370052 -0.0323207 0)
(-0.0189783 -0.00691594 0)
(-0.00836957 0.010047 0)
(-0.00268157 0.0202877 0)
(-0.000109497 0.0250572 0)
(0.00065745 0.0248963 0)
(0.000472362 0.0196274 0)
(9.37514e-05 0.00866204 0)
(-0.00104079 -0.00226782 0)
(-0.00645303 0.00378572 0)
(-0.0162451 0.0171598 0)
(-0.0288048 0.0359059 0)
(-0.0448633 0.0576972 0)
(-0.0638686 0.0815467 0)
(-0.0861609 0.106795 0)
(-0.110927 0.132666 0)
(-0.137325 0.157694 0)
(-0.163709 0.180014 0)
(-0.188667 0.197893 0)
(-0.210831 0.210186 0)
(-0.229427 0.216478 0)
(-0.244006 0.216993 0)
(-0.254647 0.212436 0)
(-0.261711 0.203798 0)
(-0.26586 0.192173 0)
(-0.267812 0.178586 0)
(-0.268304 0.163883 0)
(-0.267936 0.148689 0)
(-0.267192 0.133407 0)
(-0.266381 0.11826 0)
(-0.265701 0.103338 0)
(-0.265236 0.0886424 0)
(-0.265013 0.0741304 0)
(-0.265009 0.0597381 0)
(-0.265194 0.0453979 0)
(-0.265522 0.0310491 0)
(-0.265965 0.01664 0)
(-0.266496 0.00213008 0)
(-0.267111 -0.0125128 0)
(-0.267816 -0.0273131 0)
(-0.268643 -0.0422929 0)
(-0.269639 -0.0574738 0)
(-0.270881 -0.0728851 0)
(-0.272467 -0.0885683 0)
(-0.274525 -0.104587 0)
(-0.277202 -0.121032 0)
(-0.280654 -0.138025 0)
(-0.285 -0.1557 0)
(-0.29026 -0.174167 0)
(-0.296234 -0.193416 0)
(-0.302345 -0.213166 0)
(-0.307449 -0.232634 0)
(-0.309694 -0.250283 0)
(-0.306514 -0.263627 0)
(-0.294929 -0.269264 0)
(-0.272268 -0.263359 0)
(-0.237332 -0.242748 0)
(-0.191751 -0.206683 0)
(-0.140798 -0.158568 0)
(-0.0925011 -0.10635 0)
(-0.0542171 -0.0594571 0)
(-0.0284927 -0.0237413 0)
(-0.013095 0.000527138 0)
(-0.00471358 0.0154653 0)
(-0.000758832 0.023097 0)
(0.000615416 0.0245318 0)
(0.000592143 0.0199714 0)
(0.000146468 0.00898763 0)
(-0.00155034 0.00159912 0)
(-0.00867661 0.0125213 0)
(-0.020673 0.0294368 0)
(-0.0352748 0.0513228 0)
(-0.0533856 0.0762496 0)
(-0.0741424 0.103132 0)
(-0.0977559 0.131007 0)
(-0.122972 0.158526 0)
(-0.148749 0.183793 0)
(-0.17331 0.204794 0)
(-0.195427 0.220023 0)
(-0.213975 0.228738 0)
(-0.228545 0.231011 0)
(-0.239026 0.227512 0)
(-0.245863 0.219337 0)
(-0.24968 0.207738 0)
(-0.251317 0.193927 0)
(-0.251525 0.178904 0)
(-0.250993 0.163408 0)
(-0.250194 0.147901 0)
(-0.249467 0.132627 0)
(-0.248971 0.11767 0)
(-0.248783 0.103012 0)
(-0.248885 0.0885895 0)
(-0.249243 0.0743183 0)
(-0.249787 0.0601179 0)
(-0.250465 0.0459188 0)
(-0.251219 0.031667 0)
(-0.252012 0.0173221 0)
(-0.252813 0.0028576 0)
(-0.253615 -0.0117438 0)
(-0.254414 -0.0264905 0)
(-0.255229 -0.041387 0)
(-0.25609 -0.0564352 0)
(-0.257049 -0.0716408 0)
(-0.258177 -0.0870177 0)
(-0.259579 -0.102599 0)
(-0.261386 -0.118447 0)
(-0.263774 -0.134665 0)
(-0.266936 -0.15141 0)
(-0.271066 -0.168879 0)
(-0.276275 -0.187276 0)
(-0.282471 -0.206704 0)
(-0.289162 -0.226979 0)
(-0.295225 -0.247337 0)
(-0.298693 -0.266096 0)
(-0.296722 -0.280361 0)
(-0.285881 -0.286033 0)
(-0.262999 -0.278359 0)
(-0.226606 -0.253437 0)
(-0.178684 -0.210538 0)
(-0.125781 -0.154681 0)
(-0.0776044 -0.0966162 0)
(-0.0420055 -0.0478851 0)
(-0.0199158 -0.0133757 0)
(-0.00764371 0.00827373 0)
(-0.00167263 0.0200132 0)
(0.000561539 0.023769 0)
(0.000747925 0.0203053 0)
(0.000211539 0.00943474 0)
(-0.00206778 0.0067493 0)
(-0.0108221 0.0232213 0)
(-0.0248024 0.0437207 0)
(-0.0411268 0.0686143 0)
(-0.0608471 0.0964519 0)
(-0.0827453 0.125917 0)
(-0.106892 0.155668 0)
(-0.131659 0.183806 0)
(-0.155944 0.20819 0)
(-0.177985 0.22685 0)
(-0.19684 0.238673 0)
(-0.211674 0.243388 0)
(-0.222465 0.241583 0)
(-0.229433 0.234359 0)
(-0.233327 0.223138 0)
(-0.234921 0.209314 0)
(-0.235111 0.194092 0)
(-0.234571 0.178347 0)
(-0.233862 0.162639 0)
(-0.233291 0.147244 0)
(-0.233047 0.132252 0)
(-0.233161 0.11763 0)
(-0.233622 0.10329 0)
(-0.23435 0.089128 0)
(-0.23528 0.0750477 0)
(-0.236329 0.0609695 0)
(-0.237441 0.0468335 0)
(-0.238559 0.0325985 0)
(-0.239654 0.0182382 0)
(-0.240696 0.00373926 0)
(-0.241679 -0.010903 0)
(-0.242597 -0.0256848 0)
(-0.243461 -0.0405984 0)
(-0.244285 -0.0556315 0)
(-0.245103 -0.070773 0)
(-0.245956 -0.0860147 0)
(-0.246912 -0.101361 0)
(-0.248064 -0.116835 0)
(-0.249549 -0.132501 0)
(-0.25155 -0.148475 0)
(-0.2543 -0.164949 0)
(-0.258051 -0.18219 0)
(-0.263009 -0.200502 0)
(-0.269184 -0.220113 0)
(-0.27616 -0.240934 0)
(-0.282803 -0.262193 0)
(-0.286992 -0.281965 0)
(-0.285547 -0.296811 0)
(-0.274573 -0.301719 0)
(-0.250473 -0.290925 0)
(-0.211721 -0.259796 0)
(-0.161099 -0.208264 0)
(-0.106933 -0.143923 0)
(-0.0607654 -0.0814831 0)
(-0.029787 -0.0334028 0)
(-0.0121724 -0.0023211 0)
(-0.0032853 0.0152725 0)
(0.000255948 0.0223987 0)
(0.000839842 0.0205801 0)
(0.000269964 0.0100095 0)
(-0.002548 0.0131199 0)
(-0.0127396 0.0356871 0)
(-0.0283847 0.0597147 0)
(-0.0460354 0.0873927 0)
(-0.0668507 0.117795 0)
(-0.0892477 0.149254 0)
(-0.113184 0.18004 0)
(-0.136756 0.207789 0)
(-0.158939 0.230315 0)
(-0.178086 0.245867 0)
(-0.193603 0.25383 0)
(-0.204963 0.254444 0)
(-0.212523 0.248813 0)
(-0.216767 0.238402 0)
(-0.218648 0.22485 0)
(-0.218971 0.209557 0)
(-0.218579 0.193616 0)
(-0.217993 0.1777 0)
(-0.21762 0.162169 0)
(-0.217599 0.147121 0)
(-0.218002 0.13252 0)
(-0.218766 0.118255 0)
(-0.219833 0.1042 0)
(-0.221096 0.0902402 0)
(-0.222487 0.0762832 0)
(-0.223923 0.0622613 0)
(-0.22536 0.0481298 0)
(-0.226749 0.033861 0)
(-0.228071 0.0194414 0)
(-0.229301 0.00486801 0)
(-0.230439 -0.00985478 0)
(-0.231476 -0.0247156 0)
(-0.232421 -0.0396996 0)
(-0.233282 -0.0547869 0)
(-0.234075 -0.069957 0)
(-0.234823 -0.0851885 0)
(-0.235562 -0.100465 0)
(-0.236344 -0.115782 0)
(-0.237256 -0.131159 0)
(-0.238424 -0.146658 0)
(-0.24004 -0.162411 0)
(-0.242362 -0.178645 0)
(-0.245702 -0.1957 0)
(-0.250348 -0.213992 0)
(-0.256407 -0.233876 0)
(-0.263516 -0.255356 0)
(-0.270487 -0.277577 0)
(-0.27496 -0.298256 0)
(-0.273337 -0.313135 0)
(-0.261227 -0.316099 0)
(-0.23472 -0.300138 0)
(-0.192631 -0.260325 0)
(-0.139166 -0.198086 0)
(-0.0851615 -0.125595 0)
(-0.04357 -0.0616264 0)
(-0.0188371 -0.0176053 0)
(-0.00597567 0.00811516 0)
(-0.000501484 0.0200409 0)
(0.000786274 0.0206308 0)
(0.000307648 0.0106619 0)
(-0.00294095 0.0205376 0)
(-0.0142769 0.0495958 0)
(-0.0311832 0.0770017 0)
(-0.0497076 0.107139 0)
(-0.0710696 0.139633 0)
(-0.0933476 0.172394 0)
(-0.116438 0.203349 0)
(-0.138274 0.229806 0)
(-0.15801 0.249719 0)
(-0.174185 0.261681 0)
(-0.186575 0.265643 0)
(-0.194943 0.262356 0)
(-0.199978 0.253393 0)
(-0.202333 0.240478 0)
(-0.203049 0.225332 0)
(-0.20286 0.209247 0)
(-0.202488 0.193124 0)
(-0.202275 0.177405 0)
(-0.202477 0.162259 0)
(-0.203099 0.147639 0)
(-0.204135 0.133425 0)
(-0.205469 0.119461 0)
(-0.207029 0.105614 0)
(-0.208703 0.0917743 0)
(-0.210434 0.0778651 0)
(-0.21215 0.0638341 0)
(-0.213822 0.0496522 0)
(-0.215408 0.035304 0)
(-0.216899 0.0207868 0)
(-0.218274 0.0061056 0)
(-0.219536 -0.00872839 0)
(-0.220678 -0.0236987 0)
(-0.221709 -0.0387857 0)
(-0.22263 -0.0539659 0)
(-0.223454 -0.0692146 0)
(-0.22419 -0.0845041 0)
(-0.224856 -0.0998085 0)
(-0.225474 -0.115105 0)
(-0.226089 -0.130382 0)
(-0.22677 -0.145656 0)
(-0.227642 -0.160991 0)
(-0.228897 -0.176536 0)
(-0.230822 -0.192563 0)
(-0.233783 -0.209497 0)
(-0.238149 -0.227873 0)
(-0.244103 -0.248194 0)
(-0.251299 -0.270502 0)
(-0.258412 -0.293793 0)
(-0.262737 -0.315139 0)
(-0.26014 -0.329228 0)
(-0.245713 -0.328371 0)
(-0.215481 -0.304482 0)
(-0.169154 -0.252761 0)
(-0.113394 -0.178385 0)
(-0.0620578 -0.0998396 0)
(-0.0279841 -0.0392037 0)
(-0.0100269 -0.00232661 0)
(-0.0018411 0.0161846 0)
(0.000541175 0.0202234 0)
(0.000317465 0.0113143 0)
(-0.00321176 0.0287519 0)
(-0.0153377 0.0645736 0)
(-0.0330615 0.0951621 0)
(-0.0519976 0.127391 0)
(-0.0733803 0.161461 0)
(-0.0950055 0.194832 0)
(-0.116766 0.225181 0)
(-0.136538 0.249626 0)
(-0.153719 0.266417 0)
(-0.16707 0.274575 0)
(-0.176727 0.274645 0)
(-0.182702 0.267858 0)
(-0.185933 0.256169 0)
(-0.187138 0.241435 0)
(-0.187352 0.225341 0)
(-0.187168 0.208977 0)
(-0.187159 0.19302 0)
(-0.187494 0.177687 0)
(-0.188312 0.16299 0)
(-0.189524 0.148777 0)
(-0.191087 0.134884 0)
(-0.19286 0.121139 0)
(-0.19478 0.107421 0)
(-0.196743 0.0936326 0)
(-0.198711 0.0797169 0)
(-0.20062 0.0656361 0)
(-0.202456 0.0513743 0)
(-0.204182 0.0369258 0)
(-0.205797 0.0222955 0)
(-0.207282 0.00749434 0)
(-0.208642 -0.00746159 0)
(-0.209871 -0.0225523 0)
(-0.210977 -0.0377553 0)
(-0.211962 -0.0530454 0)
(-0.212838 -0.0683965 0)
(-0.213607 -0.0837798 0)
(-0.214281 -0.0991665 0)
(-0.214865 -0.114526 0)
(-0.215376 -0.129833 0)
(-0.215841 -0.145071 0)
(-0.216322 -0.160251 0)
(-0.216932 -0.175444 0)
(-0.217875 -0.190816 0)
(-0.219466 -0.206701 0)
(-0.222131 -0.223616 0)
(-0.226314 -0.242265 0)
(-0.232253 -0.263256 0)
(-0.239551 -0.286673 0)
(-0.246631 -0.311079 0)
(-0.250283 -0.332694 0)
(-0.245718 -0.344501 0)
(-0.227585 -0.337173 0)
(-0.192223 -0.301419 0)
(-0.141286 -0.234581 0)
(-0.0849075 -0.148065 0)
(-0.0402154 -0.0691105 0)
(-0.0155158 -0.0170602 0)
(-0.00387939 0.0102182 0)
(0.000105522 0.019068 0)
(0.000295211 0.0118753 0)
(-0.00333181 0.0374432 0)
(-0.0158478 0.0801777 0)
(-0.0339249 0.113712 0)
(-0.0528216 0.147617 0)
(-0.0737455 0.18271 0)
(-0.0942867 0.216029 0)
(-0.114387 0.245106 0)
(-0.131953 0.267011 0)
(-0.146658 0.280407 0)
(-0.157491 0.284786 0)
(-0.164906 0.281279 0)
(-0.169107 0.271524 0)
(-0.171181 0.257754 0)
(-0.171827 0.241831 0)
(-0.171999 0.225305 0)
(-0.172121 0.209021 0)
(-0.172622 0.193428 0)
(-0.17353 0.178549 0)
(-0.174904 0.164283 0)
(-0.1766 0.15041 0)
(-0.178565 0.136755 0)
(-0.180659 0.12315 0)
(-0.182835 0.109492 0)
(-0.185002 0.0957008 0)
(-0.187138 0.0817381 0)
(-0.18919 0.0675772 0)
(-0.19115 0.0532126 0)
(-0.192988 0.038645 0)
(-0.194704 0.0238858 0)
(-0.196278 0.00895023 0)
(-0.197718 -0.00614105 0)
(-0.199016 -0.0213647 0)
(-0.200183 -0.0366952 0)
(-0.201218 -0.0521056 0)
(-0.202135 -0.0675689 0)
(-0.202938 -0.0830571 0)
(-0.203636 -0.0985421 0)
(-0.204231 -0.113994 0)
(-0.204729 -0.129384 0)
(-0.205132 -0.144682 0)
(-0.20546 -0.159868 0)
(-0.205759 -0.174955 0)
(-0.206144 -0.190012 0)
(-0.206826 -0.205249 0)
(-0.208162 -0.221056 0)
(-0.210642 -0.238116 0)
(-0.214788 -0.257263 0)
(-0.220849 -0.279304 0)
(-0.228281 -0.304094 0)
(-0.235076 -0.329649 0)
(-0.237327 -0.350536 0)
(-0.229515 -0.357831 0)
(-0.206033 -0.339865 0)
(-0.164408 -0.287691 0)
(-0.109438 -0.203007 0)
(-0.0562616 -0.108791 0)
(-0.0224421 -0.0375579 0)
(-0.00672995 0.0015712 0)
(-0.000516919 0.0168082 0)
(0.000247119 0.0122698 0)
(-0.00329338 0.0462674 0)
(-0.0157945 0.0959791 0)
(-0.0337776 0.132237 0)
(-0.0522302 0.167424 0)
(-0.072296 0.203038 0)
(-0.0914441 0.235755 0)
(-0.109703 0.263073 0)
(-0.125074 0.282129 0)
(-0.137509 0.292073 0)
(-0.146208 0.292877 0)
(-0.151887 0.286222 0)
(-0.154866 0.274062 0)
(-0.156299 0.258794 0)
(-0.156796 0.242178 0)
(-0.157196 0.225576 0)
(-0.157754 0.20957 0)
(-0.158779 0.19441 0)
(-0.160193 0.179962 0)
(-0.162014 0.166054 0)
(-0.164073 0.152436 0)
(-0.166325 0.138938 0)
(-0.168641 0.125406 0)
(-0.170994 0.111759 0)
(-0.173305 0.0979322 0)
(-0.175565 0.0839007 0)
(-0.177727 0.0696456 0)
(-0.17979 0.0551689 0)
(-0.181721 0.0404752 0)
(-0.183522 0.0255808 0)
(-0.185174 0.0105041 0)
(-0.186683 -0.00472987 0)
(-0.18804 -0.0200945 0)
(-0.189255 -0.0355609 0)
(-0.190329 -0.0510999 0)
(-0.191278 -0.0666833 0)
(-0.192105 -0.0822836 0)
(-0.192826 -0.0978747 0)
(-0.193441 -0.113431 0)
(-0.193956 -0.128924 0)
(-0.194365 -0.144325 0)
(-0.194668 -0.159602 0)
(-0.194868 -0.174736 0)
(-0.19501 -0.189728 0)
(-0.195204 -0.204679 0)
(-0.195687 -0.219816 0)