/*--------------------------------*- C++ -*----------------------------------*\
| =========                 |                                                 |
| \\      /  F ield         | OpenFOAM: The Open Source CFD Toolbox           |
|  \\    /   O peration     | Version:  2406                                  |
|   \\  /    A nd           | Website:  www.openfoam.com                      |
|    \\/     M anipulation  |                                                 |
\*---------------------------------------------------------------------------*/
FoamFile
{
    version     2.0;
    format      ascii;
    arch        "LSB;label=32;scalar=64";
    class       volVectorField;
    location    "49.6";
    object      U;
}
// * * * * * * * * * * * * * * * * * * * * * * * * * * * * * * * * * * * * * //

dimensions      [0 1 -1 0 0 0 0];

internalField   nonuniform List<vector> 
3600
(
(-1.20636e-05 1.18691e-06 0)
(0.000436045 -0.000222597 0)
(0.00136329 -0.00034458 0)
(0.00241216 -0.000365807 0)
(0.00340811 -0.000295564 0)
(0.00412038 -0.000199373 0)
(0.0045819 -0.000110721 0)
(0.00478878 -5.84524e-05 0)
(0.00487143 -4.08353e-05 0)
(0.00486446 -4.65521e-05 0)
(0.00482021 -5.42993e-05 0)
(0.0046891 -4.76529e-05 0)
(0.00442067 -1.6406e-05 0)
(0.00391617 4.16813e-05 0)
(0.00309452 0.000126345 0)
(0.0018578 0.000238201 0)
(0.000121707 0.000380206 0)
(-0.00220476 0.000552541 0)
(-0.00519798 0.000746339 0)
(-0.00892635 0.000947626 0)
(-0.0134285 0.00115105 0)
(-0.0187007 0.00136641 0)
(-0.024671 0.00160634 0)
(-0.0311881 0.00186456 0)
(-0.0380117 0.00210428 0)
(-0.044819 0.00226651 0)
(-0.0512228 0.00229001 0)
(-0.0568041 0.00212937 0)
(-0.0611479 0.00176376 0)
(-0.0638775 0.0011977 0)
(-0.0646821 0.000457612 0)
(-0.0633402 -0.00041239 0)
(-0.0597381 -0.00135426 0)
(-0.0538854 -0.00229904 0)
(-0.0459291 -0.00317034 0)
(-0.0361607 -0.00388871 0)
(-0.0250192 -0.00437832 0)
(-0.0130757 -0.00457556 0)
(-0.00100947 -0.00443984 0)
(0.0104478 -0.00396445 0)
(0.0205711 -0.00318487 0)
(0.0287355 -0.0021819 0)
(0.0344839 -0.00107433 0)
(0.0376131 -3.0194e-06 0)
(0.0381854 0.000898265 0)
(0.0365431 0.00153085 0)
(0.0332141 0.00185923 0)
(0.0288466 0.00191247 0)
(0.0240481 0.00177035 0)
(0.0193409 0.00152289 0)
(0.0150482 0.00124638 0)
(0.011369 0.000983558 0)
(0.00832047 0.000758239 0)
(0.00589713 0.000573074 0)
(0.00397453 0.000433249 0)
(0.00250355 0.000324434 0)
(0.00134788 0.000243031 0)
(0.000527922 0.00014409 0)
(1.81506e-05 3.18172e-05 0)
(-9.47288e-05 -0.000100465 0)
(0.000184404 -0.000416709 0)
(0.00136993 -0.00141518 0)
(0.00334426 -0.00192049 0)
(0.00543694 -0.00195782 0)
(0.0073577 -0.00159528 0)
(0.00869939 -0.00107257 0)
(0.00947074 -0.000552917 0)
(0.00963388 -0.000153563 0)
(0.00935259 0.000116853 0)
(0.00864873 0.000314857 0)
(0.00754903 0.000534858 0)
(0.00591434 0.000863468 0)
(0.00358169 0.00135457 0)
(0.000308268 0.00202985 0)
(-0.00412788 0.0028899 0)
(-0.00996012 0.0039271 0)
(-0.0173754 0.00512324 0)
(-0.0265218 0.0064508 0)
(-0.0374406 0.00787234 0)
(-0.0500266 0.00933306 0)
(-0.0639734 0.0107379 0)
(-0.0787892 0.0119455 0)
(-0.0938355 0.0127909 0)
(-0.10841 0.0131238 0)
(-0.12182 0.0128351 0)
(-0.133454 0.0118691 0)
(-0.142806 0.010223 0)
(-0.149492 0.00794039 0)
(-0.153238 0.00510161 0)
(-0.153868 0.00181514 0)
(-0.151293 -0.00178887 0)
(-0.145505 -0.0055613 0)
(-0.136576 -0.00933547 0)
(-0.124668 -0.012927 0)
(-0.110041 -0.0161368 0)
(-0.0930653 -0.0187563 0)
(-0.0742321 -0.0205815 0)
(-0.0541551 -0.0214314 0)
(-0.0335645 -0.0211754 0)
(-0.0132735 -0.0197612 0)
(0.00585647 -0.0172425 0)
(0.0229938 -0.013792 0)
(0.0373885 -0.00969842 0)
(0.0484724 -0.00533937 0)
(0.0558859 -0.00112915 0)
(0.0595634 0.0025398 0)
(0.0596988 0.00537006 0)
(0.0567953 0.007201 0)
(0.0515429 0.0080429 0)
(0.044808 0.00804472 0)
(0.0374035 0.0074532 0)
(0.0300835 0.00652192 0)
(0.0233128 0.0054757 0)
(0.0174256 0.00445619 0)
(0.0124464 0.00356198 0)
(0.00841622 0.00279736 0)
(0.00515445 0.00215957 0)
(0.00270324 0.00150839 0)
(0.000946837 0.000829864 0)
(8.45549e-05 4.6885e-05 0)
(0.000313205 -0.00130488 0)
(0.00196652 -0.00341968 0)
(0.00455606 -0.00441329 0)
(0.00711869 -0.00434841 0)
(0.00930721 -0.0034547 0)
(0.0106241 -0.00218037 0)
(0.0110754 -0.000881439 0)
(0.0105887 0.000226572 0)
(0.00929414 0.00112454 0)
(0.007135 0.00195054 0)
(0.00403215 0.00290927 0)
(-0.000285524 0.00419461 0)
(-0.00611293 0.00592127 0)
(-0.0138096 0.00813248 0)
(-0.0236784 0.0108097 0)
(-0.0359709 0.0138985 0)
(-0.0507701 0.0172972 0)
(-0.0679274 0.0208383 0)
(-0.0869805 0.0242532 0)
(-0.107202 0.0271968 0)
(-0.127701 0.0293226 0)
(-0.147581 0.030367 0)
(-0.166051 0.0301862 0)
(-0.182493 0.0287518 0)
(-0.196468 0.0261194 0)
(-0.207688 0.0223974 0)
(-0.21598 0.0177215 0)
(-0.221252 0.0122423 0)
(-0.223456 0.00611769 0)
(-0.222576 -0.000485961 0)
(-0.218609 -0.00739137 0)
(-0.211574 -0.0144028 0)
(-0.201509 -0.0212999 0)
(-0.188497 -0.0278302 0)
(-0.172676 -0.0337088 0)
(-0.154272 -0.0386224 0)
(-0.133618 -0.0422471 0)
(-0.111173 -0.044275 0)
(-0.0875365 -0.0444582 0)
(-0.0634309 -0.0426533 0)
(-0.0396802 -0.0388718 0)
(-0.0171426 -0.0333072 0)
(0.00334191 -0.0263422 0)
(0.0210498 -0.018513 0)
(0.0354019 -0.0104474 0)
(0.0460438 -0.00278629 0)
(0.0528098 0.0039022 0)
(0.0558021 0.00917893 0)
(0.0553205 0.0127979 0)
(0.0519584 0.0147211 0)
(0.0464408 0.015134 0)
(0.0396657 0.0143775 0)
(0.032395 0.0128819 0)
(0.0253458 0.0110396 0)
(0.0188679 0.00917224 0)
(0.0132785 0.00743038 0)
(0.00852137 0.00586958 0)
(0.00477141 0.00431127 0)
(0.00188498 0.00266118 0)
(0.000283764 0.000730113 0)
(0.000400946 -0.00241798 0)
(0.00233624 -0.00575476 0)
(0.00517679 -0.00712218 0)
(0.00771157 -0.00670444 0)
(0.0095702 -0.00500872 0)
(0.0102306 -0.00270766 0)
(0.00972059 -0.000348549 0)
(0.00792721 0.00180113 0)
(0.00489235 0.00375527 0)
(0.0004108 0.00577424 0)
(-0.00576862 0.00818654 0)
(-0.0140732 0.0112793 0)
(-0.0248983 0.0151865 0)
(-0.0386095 0.0199099 0)
(-0.0553711 0.0253206 0)
(-0.0750793 0.0311668 0)
(-0.0972288 0.0370285 0)
(-0.120965 0.0423591 0)
(-0.145222 0.0466007 0)
(-0.168961 0.0493329 0)
(-0.191323 0.0503323 0)
(-0.211703 0.0495613 0)
(-0.22972 0.0471082 0)
(-0.245171 0.0431324 0)
(-0.257962 0.0378188 0)
(-0.268066 0.031355 0)
(-0.275482 0.0239171 0)
(-0.280217 0.0156698 0)
(-0.282267 0.00676928 0)
(-0.281614 -0.00262705 0)
(-0.278223 -0.0123503 0)
(-0.272045 -0.0222051 0)
(-0.263026 -0.0319575 0)
(-0.251123 -0.0413211 0)
(-0.236327 -0.0499518 0)
(-0.218687 -0.0574477 0)
(-0.198346 -0.0633674 0)
(-0.175579 -0.0672616 0)
(-0.150822 -0.06873 0)
(-0.124686 -0.0674866 0)
(-0.0979571 -0.0634381 0)
(-0.0715398 -0.0567361 0)
(-0.0463902 -0.0478037 0)
(-0.0233924 -0.0372945 0)
(-0.0032848 -0.0260105 0)
(0.0134364 -0.0147848 0)
(0.026473 -0.00437707 0)
(0.0357533 0.00458565 0)
(0.0413216 0.0116557 0)
(0.0434434 0.0165759 0)
(0.0425056 0.0193276 0)
(0.0391707 0.0201211 0)
(0.0341288 0.0193784 0)
(0.0282217 0.0176128 0)
(0.0220273 0.0153396 0)
(0.0161601 0.0129178 0)
(0.0107823 0.0105347 0)
(0.0062943 0.00806788 0)
(0.00262299 0.00531065 0)
(0.00044711 0.00189656 0)
(0.000457627 -0.00374371 0)
(0.00251097 -0.00833284 0)
(0.00528354 -0.00986161 0)
(0.00736242 -0.00874012 0)
(0.00836898 -0.00587938 0)
(0.00780234 -0.00219691 0)
(0.00571141 0.00158299 0)
(0.00192878 0.00521222 0)
(-0.00364217 0.00880048 0)
(-0.0113927 0.0127729 0)
(-0.0217493 0.0175663 0)
(-0.0352171 0.0234941 0)
(-0.0521141 0.0305912 0)
(-0.0725024 0.0386424 0)
(-0.0959907 0.0471561 0)
(-0.121745 0.055428 0)
(-0.148595 0.0626589 0)
(-0.175338 0.0681774 0)
(-0.200963 0.0715637 0)
(-0.224768 0.0726718 0)
(-0.246336 0.071554 0)
(-0.265464 0.0683878 0)
(-0.28208 0.0634039 0)
(-0.296195 0.0568473 0)
(-0.307852 0.0489473 0)
(-0.317111 0.0399098 0)
(-0.324029 0.0299114 0)
(-0.32865 0.0191073 0)
(-0.330998 0.00763622 0)
(-0.331069 -0.00436412 0)
(-0.328828 -0.016746 0)
(-0.324201 -0.0293318 0)
(-0.317083 -0.0418981 0)
(-0.307335 -0.0541546 0)
(-0.294806 -0.0657311 0)
(-0.279351 -0.0761675 0)
(-0.260875 -0.0849241 0)
(-0.239382 -0.0914069 0)
(-0.215035 -0.095029 0)
(-0.188217 -0.0952918 0)
(-0.159574 -0.0918968 0)
(-0.130015 -0.0848448 0)
(-0.100656 -0.0745125 0)
(-0.0726789 -0.061642 0)
(-0.0471756 -0.0472499 0)
(-0.0249485 -0.0324467 0)
(-0.00646411 -0.0182555 0)
(0.00816421 -0.00549456 0)
(0.0189859 0.0052536 0)
(0.0262057 0.0136063 0)
(0.0300413 0.0193878 0)
(0.0309152 0.0226407 0)
(0.0292933 0.0236552 0)
(0.0259028 0.0229185 0)
(0.0213342 0.0210138 0)
(0.0163472 0.018463 0)
(0.0112831 0.015583 0)
(0.00676715 0.0123616 0)
(0.00287335 0.00847462 0)
(0.000499437 0.00336784 0)
(0.000500908 -0.00512394 0)
(0.00250392 -0.010773 0)
(0.0048394 -0.0120743 0)
(0.00598966 -0.00979302 0)
(0.00560064 -0.00536012 0)
(0.00324219 6.99529e-05 0)
(-0.00104597 0.00565915 0)
(-0.00752124 0.01128 0)
(-0.0164699 0.0172013 0)
(-0.0284528 0.0240036 0)
(-0.0439621 0.0321237 0)
(-0.0633333 0.0417101 0)
(-0.0864449 0.0524406 0)
(-0.112668 0.0636117 0)
(-0.14087 0.0742354 0)
(-0.169702 0.0833291 0)
(-0.197908 0.0901387 0)
(-0.224554 0.0942737 0)
(-0.249049 0.095651 0)
(-0.271091 0.0944094 0)
(-0.290565 0.0908001 0)
(-0.307479 0.0851256 0)
(-0.321907 0.0776866 0)
(-0.333968 0.0687644 0)
(-0.343799 0.0586019 0)
(-0.351545 0.0474058 0)
(-0.357345 0.0353419 0)
(-0.36132 0.0225455 0)
(-0.363565 0.0091254 0)
(-0.364135 -0.00481976 0)
(-0.363035 -0.01919 0)
(-0.360213 -0.0338609 0)
(-0.355549 -0.0486654 0)
(-0.348849 -0.0633644 0)
(-0.339853 -0.0776258 0)
(-0.328236 -0.0909986 0)
(-0.313649 -0.102907 0)
(-0.295757 -0.112656 0)
(-0.274327 -0.119478 0)
(-0.249322 -0.122614 0)
(-0.22101 -0.121438 0)
(-0.190051 -0.115617 0)
(-0.157532 -0.105258 0)
(-0.124888 -0.0909996 0)
(-0.093717 -0.0739864 0)
(-0.065465 -0.0556737 0)
(-0.041159 -0.037535 0)
(-0.0212177 -0.0207725 0)
(-0.00559715 -0.00618824 0)
(0.00604794 0.00576015 0)
(0.0140477 0.0148543 0)
(0.0188023 0.0210534 0)
(0.02065 0.0245154 0)
(0.0201588 0.0256198 0)
(0.0178201 0.0248959 0)
(0.0143903 0.022922 0)
(0.0103038 0.020079 0)
(0.0063319 0.0164511 0)
(0.00271557 0.0116072 0)
(0.000468136 0.00484257 0)
(0.000515608 -0.00653517 0)
(0.00224566 -0.0128852 0)
(0.00373031 -0.0134451 0)
(0.00348158 -0.00948806 0)
(0.00119551 -0.00304327 0)
(-0.00345967 0.00454946 0)
(-0.0105126 0.0124344 0)
(-0.0203379 0.0206982 0)
(-0.0334019 0.0297747 0)
(-0.0502883 0.0402816 0)
(-0.0712831 0.0524148 0)
(-0.0961905 0.0658582 0)
(-0.124167 0.0796936 0)
(-0.153893 0.0927266 0)
(-0.183882 0.103782 0)
(-0.212855 0.112043 0)
(-0.239902 0.117112 0)
(-0.264491 0.118959 0)
(-0.28636 0.117776 0)
(-0.305441 0.113885 0)
(-0.321788 0.10765 0)
(-0.33554 0.0994475 0)
(-0.346892 0.0896234 0)
(-0.356075 0.0784887 0)
(-0.363335 0.0662996 0)
(-0.368912 0.0532622 0)
(-0.373029 0.0395275 0)
(-0.37588 0.0252044 0)
(-0.377622 0.010364 0)
(-0.378361 -0.00494208 0)
(-0.378154 -0.0206719 0)
(-0.37699 -0.0367689 0)
(-0.374785 -0.0531455 0)
(-0.371359 -0.0696507 0)
(-0.366431 -0.0860445 0)
(-0.3596 -0.10196 0)
(-0.350352 -0.116876 0)
(-0.338082 -0.130097 0)
(-0.322161 -0.140765 0)
(-0.302031 -0.147905 0)
(-0.277361 -0.15054 0)
(-0.248217 -0.147859 0)
(-0.215236 -0.139444 0)
(-0.179697 -0.125482 0)
(-0.143474 -0.106908 0)
(-0.108734 -0.0853453 0)
(-0.0774987 -0.0628132 0)
(-0.051115 -0.0412414 0)
(-0.030045 -0.0220343 0)
(-0.0139524 -0.00593296 0)
(-0.00222056 0.00682178 0)
(0.00582174 0.0162469 0)
(0.0106436 0.0224994 0)
(0.0127881 0.0259009 0)
(0.0126788 0.0268944 0)
(0.0110046 0.0260338 0)
(0.00822797 0.0236867 0)
(0.00517063 0.0199808 0)
(0.00221217 0.0143994 0)
(0.000362994 0.00614962 0)
(0.000479893 -0.00777559 0)
(0.00163973 -0.0142165 0)
(0.00179949 -0.0134015 0)
(-0.00032056 -0.00723346 0)
(-0.00497167 0.00165464 0)
(-0.012378 0.0118409 0)
(-0.0227041 0.022565 0)
(-0.036419 0.0341622 0)
(-0.054052 0.0471163 0)
(-0.0759274 0.0618175 0)
(-0.101801 0.0779063 0)
(-0.130733 0.0944061 0)
(-0.161266 0.109889 0)
(-0.191811 0.123033 0)
(-0.221028 0.132893 0)
(-0.247988 0.139055 0)
(-0.27215 0.141494 0)
(-0.29326 0.140461 0)
(-0.311272 0.136339 0)
(-0.32629 0.129587 0)
(-0.338531 0.120667 0)
(-0.348285 0.110026 0)
(-0.355888 0.0980501 0)
(-0.361681 0.0850664 0)
(-0.365996 0.0713229 0)
(-0.369132 0.0570028 0)
(-0.371348 0.0422217 0)
(-0.37286 0.0270484 0)
(-0.373842 0.0115081 0)
(-0.374423 -0.00439656 0)
(-0.374692 -0.02068 0)
(-0.374683 -0.0373517 0)
(-0.374378 -0.0544058 0)
(-0.373674 -0.0717923 0)
(-0.37237 -0.0893951 0)
(-0.370128 -0.106989 0)
(-0.366448 -0.124201 0)
(-0.360646 -0.140463 0)
(-0.351872 -0.154981 0)
(-0.339158 -0.166724 0)
(-0.32156 -0.174481 0)
(-0.298347 -0.176992 0)
(-0.26928 -0.17317 0)
(-0.234869 -0.16241 0)
(-0.196573 -0.144913 0)
(-0.156751 -0.121897 0)
(-0.118317 -0.0955574 0)
(-0.0840222 -0.0686204 0)
(-0.0557085 -0.0436003 0)
(-0.0338263 -0.0221347 0)
(-0.0177688 -0.00483366 0)
(-0.0064579 0.00836421 0)
(0.00100636 0.0177733 0)
(0.00540011 0.0238042 0)
(0.00724284 0.0268868 0)
(0.00720239 0.0275359 0)
(0.00576489 0.0260646 0)
(0.0037362 0.0225885 0)
(0.0015911 0.0165391 0)
(0.000240562 0.0071146 0)
(0.00036412 -0.00868828 0)
(0.000599382 -0.0144194 0)
(-0.00103706 -0.011557 0)
(-0.0054305 -0.00268439 0)
(-0.0128149 0.00905435 0)
(-0.0233111 0.0222865 0)
(-0.0372561 0.0364228 0)
(-0.0550941 0.0519582 0)
(-0.0771908 0.0691699 0)
(-0.10331 0.0878998 0)
(-0.13253 0.107059 0)
(-0.163303 0.125129 0)
(-0.193966 0.140545 0)
(-0.223071 0.152245 0)
(-0.249638 0.159705 0)
(-0.27307 0.16291 0)
(-0.293112 0.16213 0)
(-0.30973 0.157841 0)
(-0.323102 0.150593 0)
(-0.333527 0.140972 0)
(-0.341408 0.129524 0)
(-0.347176 0.116736 0)
(-0.351264 0.102999 0)
(-0.354063 0.0886154 0)
(-0.355917 0.0737925 0)
(-0.357103 0.0586656 0)
(-0.357852 0.0433017 0)
(-0.358336 0.0277262 0)
(-0.358698 0.0119252 0)
(-0.359045 -0.00413224 0)
(-0.359465 -0.0204941 0)
(-0.360017 -0.0372073 0)
(-0.360739 -0.0543168 0)
(-0.361622 -0.0718439 0)
(-0.362596 -0.0897766 0)
(-0.363486 -0.108033 0)
(-0.36397 -0.126427 0)
(-0.363521 -0.14461 0)
(-0.361363 -0.162007 0)
(-0.356444 -0.177757 0)
(-0.347491 -0.19068 0)
(-0.333131 -0.199312 0)
(-0.312166 -0.202047 0)
(-0.283921 -0.197422 0)
(-0.248679 -0.184525 0)
(-0.207993 -0.163472 0)
(-0.164754 -0.135767 0)
(-0.122728 -0.104288 0)
(-0.0855992 -0.072668 0)
(-0.0557354 -0.0441636 0)
(-0.0335914 -0.0206431 0)
(-0.0180796 -0.00248255 0)
(-0.00772839 0.0107842 0)
(-0.00122519 0.0198442 0)
(0.00230631 0.0252953 0)
(0.0036651 0.0276987 0)
(0.00342195 0.027343 0)
(0.00235694 0.0243134 0)
(0.00100191 0.0180378 0)
(0.000129812 0.00776429 0)
(0.000138795 -0.00896483 0)
(-0.000938387 -0.0129922 0)
(-0.00480272 -0.0074227 0)
(-0.0117809 0.00457457 0)
(-0.0221558 0.0195289 0)
(-0.0359338 0.0362279 0)
(-0.0535912 0.0542343 0)
(-0.0753401 0.0739743 0)
(-0.10115 0.095212 0)
(-0.130079 0.117052 0)
(-0.160672 0.137789 0)
(-0.19112 0.155718 0)
(-0.21992 0.16951 0)
(-0.245941 0.178542 0)
(-0.268557 0.182718 0)
(-0.287452 0.18236 0)
(-0.302649 0.178006 0)
(-0.314366 0.170345 0)
(-0.323024 0.160081 0)
(-0.329115 0.147898 0)
(-0.333181 0.134375 0)
(-0.335718 0.119986 0)
(-0.337175 0.10507 0)
(-0.337903 0.0898641 0)
(-0.338188 0.074504 0)
(-0.338227 0.0590611 0)
(-0.338177 0.0435484 0)
(-0.338138 0.0279517 0)
(-0.338197 0.0122286 0)
(-0.338415 -0.00366947 0)
(-0.33886 -0.0198036 0)
(-0.339587 -0.0362317 0)
(-0.340661 -0.0530162 0)
(-0.342131 -0.0702098 0)
(-0.344034 -0.0878576 0)
(-0.346351 -0.105974 0)
(-0.348983 -0.124528 0)
(-0.351673 -0.143387 0)
(-0.353944 -0.162265 0)
(-0.355005 -0.180624 0)
(-0.353696 -0.197583 0)
(-0.348486 -0.211838 0)
(-0.3376 -0.221666 0)
(-0.31931 -0.225054 0)
(-0.292418 -0.220042 0)
(-0.256838 -0.205269 0)
(-0.214151 -0.180658 0)
(-0.167773 -0.148005 0)
(-0.122472 -0.111039 0)
(-0.0829695 -0.0745667 0)
(-0.0522231 -0.0427258 0)
(-0.0304564 -0.0175476 0)
(-0.016055 0.00100774 0)
(-0.00700011 0.0139239 0)
(-0.0017576 0.0221981 0)
(0.00084759 0.0266275 0)
(0.0016051 0.0275962 0)
(0.00132651 0.0252031 0)
(0.000593214 0.018934 0)
(6.42697e-05 0.0081306 0)
(-0.000211526 -0.00834392 0)
(-0.0029555 -0.0095916 0)
(-0.00936141 -0.000750927 0)
(-0.0190865 0.0146791 0)
(-0.0325386 0.0331392 0)
(-0.0495617 0.0536123 0)
(-0.0706702 0.0756801 0)
(-0.0956229 0.0994029 0)
(-0.123881 0.123828 0)
(-0.153882 0.147377 0)
(-0.183945 0.168047 0)
(-0.21232 0.184308 0)
(-0.237849 0.19527 0)
(-0.259725 0.200772 0)
(-0.277664 0.201108 0)
(-0.291644 0.196919 0)
(-0.301998 0.189002 0)
(-0.309197 0.178231 0)
(-0.313873 0.165414 0)
(-0.316625 0.151255 0)
(-0.318037 0.136292 0)
(-0.318566 0.120919 0)
(-0.31859 0.10538 0)
(-0.318355 0.0898196 0)
(-0.318046 0.0742917 0)
(-0.31776 0.0588074 0)
(-0.31757 0.0433367 0)
(-0.317506 0.0278403 0)
(-0.317603 0.0122637 0)
(-0.317879 -0.00344279 0)
(-0.318375 -0.0193351 0)
(-0.319129 -0.0354619 0)
(-0.320206 -0.0518773 0)
(-0.321672 -0.0686307 0)
(-0.323612 -0.0857781 0)
(-0.326097 -0.10337 0)
(-0.32918 -0.121452 0)
(-0.332836 -0.140036 0)
(-0.336914 -0.159067 0)
(-0.341029 -0.178339 0)
(-0.344455 -0.197397 0)
(-0.346005 -0.215385 0)
(-0.343986 -0.23092 0)
(-0.336268 -0.242023 0)
(-0.320605 -0.246228 0)
(-0.295198 -0.240971 0)
(-0.259509 -0.224296 0)
(-0.215061 -0.195845 0)
(-0.165848 -0.157754 0)
(-0.117753 -0.114886 0)
(-0.0766774 -0.073531 0)
(-0.0459836 -0.0388064 0)
(-0.0254246 -0.0126408 0)
(-0.0126171 0.00566672 0)
(-0.00516255 0.0176244 0)
(-0.00122138 0.0245291 0)
(0.000421662 0.0270803 0)
(0.000742136 0.0255175 0)
(0.000407631 0.0194642 0)
(4.86765e-05 0.00836952 0)
(-0.000690379 -0.00650021 0)
(-0.00538577 -0.00386425 0)
(-0.0145084 0.00868619 0)
(-0.0269935 0.0277432 0)
(-0.0434265 0.0498916 0)
(-0.0634 0.0742388 0)
(-0.0873393 0.100174 0)
(-0.114412 0.127145 0)
(-0.143632 0.153478 0)
(-0.173046 0.177156 0)
(-0.201055 0.196245 0)
(-0.226145 0.209617 0)
(-0.247552 0.216882 0)
(-0.26479 0.218325 0)
(-0.277938 0.214618 0)
(-0.28728 0.206712 0)
(-0.293446 0.195621 0)
(-0.297088 0.18233 0)
(-0.298941 0.167656 0)
(-0.299596 0.152236 0)
(-0.299574 0.1365 0)
(-0.299215 0.120718 0)
(-0.298778 0.105021 0)
(-0.298383 0.0894598 0)
(-0.298119 0.074021 0)
(-0.297996 0.0586707 0)
(-0.298029 0.0433534 0)
(-0.298199 0.0280196 0)
(-0.298512 0.0126144 0)
(-0.298957 -0.00290451 0)
(-0.299558 -0.0185816 0)
(-0.300336 -0.0344502 0)
(-0.301343 -0.0505487 0)
(-0.302637 -0.0669101 0)
(-0.304306 -0.0835785 0)
(-0.306445 -0.100601 0)
(-0.309167 -0.118043 0)
(-0.312567 -0.135971 0)
(-0.316702 -0.154451 0)
(-0.32151 -0.173499 0)
(-0.326723 -0.193011 0)
(-0.331706 -0.212623 0)
(-0.335316 -0.231536 0)
(-0.33576 -0.248305 0)
(-0.330632 -0.260691 0)
(-0.317192 -0.265728 0)
(-0.293038 -0.260131 0)
(-0.257129 -0.241238 0)
(-0.210936 -0.208343 0)
(-0.159126 -0.164124 0)
(-0.108897 -0.114964 0)
(-0.067342 -0.0690594 0)
(-0.0379093 -0.0323465 0)
(-0.0193623 -0.00619274 0)
(-0.00858474 0.0110019 0)
(-0.00283596 0.0212497 0)
(-0.000228428 0.0258537 0)
(0.000581324 0.0254138 0)
(0.000442412 0.0198002 0)
(8.29343e-05 0.00858633 0)
(-0.00126862 -0.00322682 0)
(-0.00806002 0.00430587 0)
(-0.0198883 0.0208334 0)
(-0.0349662 0.0435629 0)
(-0.0540739 0.0694025 0)
(-0.0764481 0.0974261 0)
(-0.10233 0.126632 0)
(-0.130286 0.155745 0)
(-0.159063 0.182546 0)
(-0.186571 0.204898 0)
(-0.211498 0.221205 0)
(-0.232631 0.23084 0)
(-0.249619 0.233927 0)
(-0.262299 0.231178 0)
(-0.271126 0.223634 0)
(-0.276649 0.212498 0)
(-0.279706 0.198913 0)
(-0.281005 0.183861 0)
(-0.28127 0.168072 0)
(-0.280974 0.152045 0)
(-0.280517 0.13606 0)
(-0.280086 0.120256 0)
(-0.279821 0.104661 0)
(-0.279738 0.0892543 0)
(-0.279853 0.0739775 0)
(-0.280123 0.058775 0)
(-0.280533 0.0435837 0)
(-0.28104 0.0283567 0)
(-0.281638 0.0130471 0)
(-0.282305 -0.00237515 0)
(-0.283055 -0.0179408 0)
(-0.283894 -0.0336673 0)
(-0.284861 -0.0495754 0)
(-0.285993 -0.0656785 0)
(-0.287363 -0.082 0)
(-0.289048 -0.0985668 0)
(-0.291165 -0.115428 0)
(-0.293838 -0.132651 0)
(-0.297212 -0.150337 0)
(-0.3014 -0.1686 0)
(-0.30644 -0.187539 0)
(-0.312162 -0.207151 0)
(-0.318049 -0.227181 0)
(-0.323003 -0.246886 0)
(-0.325181 -0.26475 0)
(-0.321932 -0.278255 0)
(-0.310068 -0.283846 0)
(-0.286604 -0.277432 0)
(-0.250036 -0.255518 0)
(-0.201883 -0.217145 0)
(-0.147704 -0.16585 0)
(-0.0962605 -0.110238 0)
(-0.0557315 -0.060691 0)
(-0.0289021 -0.0234693 0)
(-0.0131102 0.00135766 0)
(-0.00463148 0.0164143 0)
(-0.000690893 0.0238923 0)
(0.000665337 0.0250432 0)
(0.000619659 0.0201397 0)
(0.000149713 0.00891365 0)
(-0.00190652 0.00163882 0)
(-0.0108001 0.0149579 0)
(-0.0251643 0.0355778 0)
(-0.0425204 0.0618962 0)
(-0.0638202 0.0912464 0)
(-0.0878629 0.12247 0)
(-0.114682 0.15405 0)
(-0.142337 0.184027 0)
(-0.169534 0.209917 0)
(-0.194237 0.229738 0)
(-0.215529 0.2424 0)
(-0.232517 0.247809 0)
(-0.245265 0.246597 0)
(-0.253926 0.239886 0)
(-0.259285 0.22903 0)
(-0.262049 0.215376 0)
(-0.263142 0.200077 0)
(-0.263205 0.184006 0)
(-0.262855 0.167733 0)
(-0.2624 0.151585 0)
(-0.2621 0.135694 0)
(-0.262004 0.120087 0)
(-0.262167 0.104716 0)
(-0.26253 0.0895175 0)
(-0.263079 0.074416 0)
(-0.263744 0.0593503 0)
(-0.264507 0.0442619 0)
(-0.265319 0.0291121 0)
(-0.266177 0.0138643 0)
(-0.267057 -0.00150152 0)
(-0.267972 -0.0170056 0)
(-0.268918 -0.0326546 0)
(-0.269924 -0.0484579 0)
(-0.271006 -0.0644151 0)
(-0.272215 -0.0805322 0)
(-0.273598 -0.0968143 0)
(-0.275241 -0.113284 0)
(-0.277242 -0.129982 0)
(-0.27975 -0.146989 0)
(-0.282924 -0.164426 0)
(-0.286947 -0.182464 0)
(-0.291928 -0.201285 0)
(-0.297815 -0.220995 0)
(-0.304178 -0.241444 0)
(-0.309974 -0.261923 0)
(-0.313282 -0.280813 0)
(-0.31121 -0.295203 0)
(-0.300131 -0.300866 0)
(-0.276531 -0.292732 0)
(-0.238565 -0.266491 0)
(-0.188043 -0.221098 0)
(-0.131831 -0.161716 0)
(-0.080518 -0.100009 0)
(-0.0429017 -0.0486252 0)
(-0.0199529 -0.0128878 0)
(-0.00741107 0.00917255 0)
(-0.00143886 0.0208409 0)
(0.000739548 0.0243322 0)
(0.000835333 0.020522 0)
(0.000229856 0.0093923 0)
(-0.00253503 0.00807929 0)
(-0.0133622 0.0278809 0)
(-0.0299249 0.0525397 0)
(-0.0491052 0.0821963 0)
(-0.0719795 0.114652 0)
(-0.096876 0.148345 0)
(-0.123662 0.181228 0)
(-0.150047 0.210812 0)
(-0.174884 0.234632 0)
(-0.196312 0.251055 0)
(-0.213852 0.259584 0)
(-0.226919 0.26065 0)
(-0.235985 0.255379 0)
(-0.24146 0.245243 0)
(-0.24436 0.231802 0)
(-0.245422 0.216416 0)
(-0.245543 0.200135 0)
(-0.245207 0.183646 0)
(-0.244889 0.167331 0)
(-0.244723 0.151346 0)
(-0.244856 0.135704 0)
(-0.245235 0.120352 0)
(-0.245866 0.105202 0)
(-0.246655 0.0901745 0)
(-0.247582 0.0751926 0)
(-0.248572 0.0602027 0)
(-0.249619 0.0451569 0)
(-0.250673 0.0300272 0)
(-0.251743 0.014787 0)
(-0.252804 -0.000574997 0)
(-0.253872 -0.0160713 0)
(-0.254938 -0.0317017 0)
(-0.256026 -0.0474681 0)
(-0.257138 -0.0633622 0)
(-0.258307 -0.0793792 0)
(-0.259551 -0.0955094 0)
(-0.260924 -0.111753 0)
(-0.262483 -0.128122 0)
(-0.264332 -0.144655 0)
(-0.266604 -0.161438 0)
(-0.269495 -0.17862 0)
(-0.27322 -0.196427 0)
(-0.277982 -0.215126 0)
(-0.28382 -0.234947 0)
(-0.290402 -0.255833 0)
(-0.296692 -0.277104 0)
(-0.300657 -0.296913 0)
(-0.299094 -0.311857 0)
(-0.287914 -0.316772 0)
(-0.263147 -0.305535 0)
(-0.222819 -0.272987 0)
(-0.169512 -0.218643 0)
(-0.111946 -0.15037 0)
(-0.0627856 -0.0840723 0)
(-0.0301806 -0.0336572 0)
(-0.011978 -0.00159857 0)
(-0.00297966 0.0161269 0)
(0.000519831 0.0230645 0)
(0.000968536 0.0209041 0)
(0.000300368 0.010035 0)
(-0.00309708 0.0159804 0)
(-0.0155666 0.0427947 0)
(-0.0338858 0.0713331 0)
(-0.0543599 0.103975 0)
(-0.0781358 0.138994 0)
(-0.103096 0.174309 0)
(-0.129025 0.20742 0)
(-0.153444 0.235513 0)
(-0.175486 0.256383 0)
(-0.193527 0.26887 0)
(-0.207522 0.273098 0)
(-0.217175 0.270002 0)
(-0.223312 0.26116 0)
(-0.226508 0.248282 0)
(-0.227887 0.233008 0)
(-0.228105 0.216588 0)
(-0.227952 0.199891 0)
(-0.227723 0.183385 0)
(-0.227752 0.167272 0)
(-0.22803 0.151569 0)
(-0.22863 0.136209 0)
(-0.229438 0.121092 0)
(-0.230448 0.106122 0)
(-0.231552 0.0912167 0)
(-0.232747 0.0763123 0)
(-0.233958 0.0613652 0)
(-0.235197 0.0463396 0)
(-0.236419 0.0312158 0)
(-0.237643 0.0159748 0)
(-0.238845 0.000610213 0)
(-0.240046 -0.0148861 0)
(-0.241232 -0.0305112 0)
(-0.242426 -0.0462642 0)
(-0.243621 -0.0621341 0)
(-0.24484 -0.0781118 0)
(-0.246082 -0.0941809 0)
(-0.247378 -0.110329 0)
(-0.248746 -0.126546 0)
(-0.250246 -0.14284 0)
(-0.251953 -0.159247 0)
(-0.254012 -0.175857 0)
(-0.256616 -0.192849 0)
(-0.260035 -0.210493 0)
(-0.264533 -0.229166 0)
(-0.270252 -0.249198 0)
(-0.27692 -0.270655 0)
(-0.283483 -0.292778 0)
(-0.2877 -0.313429 0)
(-0.285965 -0.328386 0)
(-0.273685 -0.331377 0)
(-0.246511 -0.314943 0)
(-0.202766 -0.273469 0)
(-0.146449 -0.207965 0)
(-0.0889825 -0.131001 0)
(-0.0447448 -0.063318 0)
(-0.0189033 -0.0173225 0)
(-0.0057222 0.00889474 0)
(-0.00021143 0.0208027 0)
(0.000930481 0.021084 0)
(0.000346592 0.0107701 0)
(-0.00352566 0.0250625 0)
(-0.0172209 0.059227 0)
(-0.0367667 0.0913693 0)
(-0.0579587 0.126518 0)
(-0.0819664 0.163426 0)
(-0.106298 0.19946 0)
(-0.130748 0.231812 0)
(-0.152791 0.257544 0)
(-0.17191 0.274895 0)
(-0.186735 0.283226 0)
(-0.197629 0.283284 0)
(-0.204535 0.276458 0)
(-0.208552 0.264692 0)
(-0.210304 0.249801 0)
(-0.210922 0.233381 0)
(-0.210905 0.21648 0)
(-0.210903 0.199754 0)
(-0.211028 0.183454 0)
(-0.211506 0.167639 0)
(-0.212226 0.152226 0)
(-0.213229 0.137107 0)
(-0.21437 0.122164 0)
(-0.215655 0.107307 0)
(-0.216977 0.0924655 0)
(-0.218352 0.07759 0)
(-0.219713 0.0626474 0)
(-0.221085 0.0476124 0)
(-0.222427 0.0324714 0)
(-0.223766 0.0172112 0)
(-0.225078 0.00182834 0)
(-0.226387 -0.0136823 0)
(-0.227676 -0.0293165 0)
(-0.22897 -0.045072 0)
(-0.230254 -0.0609375 0)
(-0.231548 -0.0769026 0)
(-0.232843 -0.0929498 0)
(-0.234154 -0.109062 0)
(-0.235478 -0.125219 0)
(-0.236842 -0.141408 0)
(-0.238273 -0.157633 0)
(-0.239851 -0.173925 0)
(-0.241703 -0.190393 0)
(-0.24405 -0.20723 0)
(-0.247186 -0.224794 0)
(-0.251457 -0.243534 0)
(-0.25707 -0.263947 0)
(-0.263795 -0.28612 0)
(-0.270474 -0.309219 0)
(-0.274546 -0.330479 0)
(-0.271883 -0.344659 0)
(-0.257311 -0.343859 0)
(-0.226366 -0.319359 0)
(-0.178186 -0.265607 0)
(-0.119339 -0.187198 0)
(-0.0645871 -0.103889 0)
(-0.0285162 -0.0398039 0)
(-0.00995088 -0.00177971 0)
(-0.00157771 0.0169969 0)
(0.000677316 0.0208117 0)
(0.000361665 0.0115139 0)
(-0.00378673 0.0349818 0)
(-0.0182402 0.0767127 0)
(-0.0384626 0.11216 0)
(-0.0598171 0.149317 0)
(-0.0834564 0.187442 0)
(-0.106615 0.223378 0)
(-0.129177 0.254173 0)
(-0.148679 0.276942 0)
(-0.164971 0.290482 0)
(-0.176929 0.29469 0)
(-0.185274 0.290909 0)
(-0.190121 0.280905 0)
(-0.19274 0.266876 0)
(-0.193711 0.250612 0)
(-0.194091 0.233571 0)
(-0.194193 0.216552 0)
(-0.194532 0.200001 0)
(-0.195069 0.183984 0)
(-0.195961 0.168461 0)
(-0.197037 0.153285 0)
(-0.198333 0.138339 0)
(-0.199697 0.123506 0)
(-0.201157 0.108713 0)
(-0.202612 0.0938999 0)
(-0.204097 0.0790325 0)
(-0.205552 0.0640846 0)
(-0.207014 0.0490392 0)
(-0.208442 0.0338849 0)
(-0.209869 0.0186124 0)
(-0.211269 0.00321859 0)
(-0.212668 -0.0122998 0)
(-0.214048 -0.0279393 0)
(-0.215431 -0.0436968 0)
(-0.216803 -0.0595626 0)
(-0.218183 -0.0755265 0)
(-0.219554 -0.0915735 0)
(-0.22093 -0.107685 0)
(-0.222296 -0.123843 0)
(-0.22366 -0.140021 0)
(-0.225016 -0.156209 0)
(-0.226397 -0.172394 0)
(-0.227857 -0.188625 0)
(-0.229537 -0.204998 0)
(-0.231662 -0.221778 0)
(-0.234585 -0.239356 0)
(-0.238705 -0.258365 0)
(-0.244297 -0.279362 0)
(-0.251102 -0.30254 0)
(-0.257745 -0.326657 0)
(-0.261198 -0.348169 0)
(-0.256626 -0.360133 0)
(-0.238371 -0.352839 0)
(-0.202132 -0.316266 0)
(-0.149037 -0.246626 0)
(-0.0892814 -0.155317 0)
(-0.0415379 -0.0713695 0)
(-0.0157007 -0.0169819 0)
(-0.00369446 0.0109778 0)
(0.000224001 0.0197702 0)
(0.000341763 0.0121597 0)
(-0.0038488 0.0453021 0)
(-0.0185504 0.0946714 0)
(-0.0388963 0.133082 0)
(-0.0598962 0.171705 0)
(-0.0826571 0.210374 0)
(-0.10425 0.245488 0)
(-0.124705 0.274118 0)
(-0.14169 0.293566 0)
(-0.155408 0.303248 0)
(-0.164952 0.303574 0)
(-0.171327 0.296431 0)
(-0.17475 0.283861 0)
(-0.17656 0.268194 0)
(-0.177225 0.251089 0)
(-0.177688 0.233809 0)
(-0.178082 0.216894 0)
(-0.178811 0.200609 0)
(-0.179727 0.184875 0)
(-0.180953 0.169596 0)
(-0.182288 0.154592 0)
(-0.183784 0.139758 0)
(-0.185292 0.124983 0)
(-0.186863 0.110214 0)
(-0.188404 0.0954035 0)
(-0.189966 0.0805274 0)
(-0.191491 0.0655638 0)
(-0.193024 0.050501 0)
(-0.194522 0.0353282 0)
(-0.196024 0.0200386 0)
(-0.197498 0.00462916 0)
(-0.198973 -0.0109019 0)
(-0.200427 -0.0265514 0)
(-0.201884 -0.0423149 0)
(-0.203326 -0.0581843 0)
(-0.204773 -0.074149 0)
(-0.206209 -0.0901973 0)
(-0.207646 -0.106312 0)
(-0.209067 -0.122478 0)
(-0.210476 -0.138669 0)
(-0.21185 -0.154872 0)
(-0.213197 -0.171053 0)
(-0.214517 -0.187225 0)
(-0.215877 -0.203401 0)
(-0.217403 -0.219744 0)
(-0.219362 -0.236508 0)
(-0.222146 -0.254269 0)
(-0.226234 -0.27372 0)
(-0.231928 -0.295667 0)
(-0.238848 -0.320086 0)
(-0.245254 -0.34528 0)
(-0.247385 -0.366129 0)
(-0.23967 -0.373642 0)
(-0.216 -0.355715 0)
(-0.173222 -0.302118 0)
(-0.115633 -0.213704 0)
(-0.0589062 -0.113647 0)
(-0.0229448 -0.0384053 0)
(-0.0066997 0.00217986 0)
(-0.000418481 0.017575 0)
(0.00029338 0.0126376 0)
(-0.00371689 0.0555996 0)
(-0.0181797 0.112621 0)
(-0.0381434 0.153709 0)
(-0.0583536 0.193331 0)
(-0.0798444 0.231986 0)
(-0.0996326 0.265747 0)
(-0.117915 0.291836 0)
(-0.132538 0.307838 0)
(-0.144009 0.313802 0)
(-0.151606 0.310613 0)
(-0.156536 0.300627 0)
(-0.159046 0.286054 0)
(-0.160466 0.269254 0)
(-0.161116 0.251679 0)
(-0.161816 0.234379 0)
(-0.162543 0.217655 0)
(-0.163622 0.201629 0)
(-0.164836 0.186122 0)
(-0.1663 0.171013 0)
(-0.167805 0.156113 0)
(-0.169424 0.141335 0)
(-0.171016 0.126581 0)
(-0.172653 0.111816 0)
(-0.174247 0.0969977 0)
(-0.175863 0.0821118 0)
(-0.17744 0.0671363 0)
(-0.17903 0.0520628 0)
(-0.180589 0.0368791 0)
(-0.182154 0.02158 0)
(-0.183694 0.00616083 0)
(-0.185236 -0.00937848 0)
(-0.186757 -0.0250358 0)
(-0.188279 -0.0408054 0)
(-0.189784 -0.0566805 0)
(-0.191291 -0.0726499 0)
(-0.192785 -0.0887051 0)
(-0.194279 -0.104829 0)
(-0.195756 -0.121014 0)
(-0.197222 -0.137232 0)
(-0.19865 -0.153478 0)
(-0.200036 -0.169708 0)
(-0.201356 -0.185926 0)
(-0.202626 -0.20209 0)
(-0.203887 -0.218286 0)
(-0.205297 -0.234618 0)
(-0.207141 -0.251523 0)
(-0.209893 -0.269595 0)
(-0.214091 -0.289873 0)