/*--------------------------------*- C++ -*----------------------------------*\
| =========                 |                                                 |
| \\      /  F ield         | OpenFOAM: The Open Source CFD Toolbox           |
|  \\    /   O peration     | Version:  2406                                  |
|   \\  /    A nd           | Website:  www.openfoam.com                      |
|    \\/     M anipulation  |                                                 |
\*---------------------------------------------------------------------------*/
FoamFile
{
    version     2.0;
    format      ascii;
    arch        "LSB;label=32;scalar=64";
    class       surfaceScalarField;
    location    "49.4";
    object      phi;
}
// * * * * * * * * * * * * * * * * * * * * * * * * * * * * * * * * * * * * * //

dimensions      [0 3 -1 0 0 0 0];

oriented        oriented;

internalField   nonuniform List<scalar> 
28560
(
-4.94426e-09
4.93221e-09
4.66867e-08
-5.1631e-08
1.72447e-07
-1.25761e-07
3.60327e-07
-1.8788e-07
5.91955e-07
-2.31627e-07
8.47622e-07
-2.55668e-07
1.10894e-06
-2.61315e-07
1.36023e-06
-2.51294e-07
1.58939e-06
-2.29162e-07
1.78823e-06
-1.9884e-07
1.95247e-06
-1.64233e-07
2.08136e-06
-1.28892e-07
2.1771e-06
-9.57428e-08
2.24402e-06
-6.69226e-08
2.28773e-06
-4.37033e-08
2.31425e-06
-2.65249e-08
2.32938e-06
-1.5132e-08
2.33767e-06
-8.28498e-09
2.34238e-06
-4.71343e-09
2.34514e-06
-2.75844e-09
2.34553e-06
-3.92348e-10
2.3422e-06
3.33335e-09
2.33189e-06
1.03071e-08
2.3104e-06
2.14954e-08
2.27286e-06
3.75361e-08
2.21408e-06
5.8782e-08
2.12871e-06
8.53724e-08
2.01137e-06
1.17338e-07
1.85668e-06
1.54691e-07
1.6592e-06
1.97477e-07
1.41341e-06
2.45791e-07
1.11365e-06
2.99756e-07
7.54173e-07
3.59479e-07
3.29177e-07
4.24997e-07
-1.67054e-07
4.96231e-07
-7.40002e-07
5.72947e-07
-1.39473e-06
6.54727e-07
-2.13568e-06
7.40948e-07
-2.96645e-06
8.30773e-07
-3.8896e-06
9.23148e-07
-4.9064e-06
1.01681e-06
-6.01668e-06
1.11028e-06
-7.21858e-06
1.2019e-06
-8.50846e-06
1.28988e-06
-9.88073e-06
1.37227e-06
-1.13278e-05
1.44707e-06
-1.284e-05
1.51223e-06
-1.44057e-05
1.5657e-06
-1.60112e-05
1.60551e-06
-1.7641e-05
1.62976e-06
-1.92777e-05
1.63671e-06
-2.09025e-05
1.62477e-06
-2.2495e-05
1.59256e-06
-2.4034e-05
1.53895e-06
-2.5497e-05
1.46305e-06
-2.68613e-05
1.36425e-06
-2.81035e-05
1.24226e-06
-2.92007e-05
1.09713e-06
-3.013e-05
9.29306e-07
-3.08696e-05
7.39622e-07
-3.13998e-05
5.30165e-07
-3.17011e-05
3.01379e-07
-3.17519e-05
5.07775e-08
-3.15431e-05
-2.08775e-07
-3.10631e-05
-4.80069e-07
-3.03038e-05
-7.59292e-07
-2.92622e-05
-1.04163e-06
-2.79399e-05
-1.32222e-06
-2.63441e-05
-1.59583e-06
-2.44872e-05
-1.85686e-06
-2.23877e-05
-2.0995e-06
-2.00699e-05
-2.31789e-06
-1.75636e-05
-2.50627e-06
-1.49043e-05
-2.65928e-06
-1.21322e-05
-2.77211e-06
-9.29135e-06
-2.84084e-06
-6.42874e-06
-2.86262e-06
-3.59285e-06
-2.83589e-06
-8.32287e-07
-2.76056e-06
1.80584e-06
-2.63813e-06
4.27748e-06
-2.47164e-06
6.54318e-06
-2.2657e-06
8.56945e-06
-2.02627e-06
1.03299e-05
-1.76045e-06
1.1806e-05
-1.47614e-06
1.29878e-05
-1.18172e-06
1.38734e-05
-8.85619e-07
1.44693e-05
-5.95972e-07
1.47896e-05
-3.20253e-07
1.48564e-05
-6.68223e-08
1.469e-05
1.66452e-07
1.43221e-05
3.67848e-07
1.3786e-05
5.36153e-07
1.31134e-05
6.72535e-07
1.23363e-05
7.77108e-07
1.14854e-05
8.50971e-07
1.05889e-05
8.96476e-07
9.6722e-06
9.16676e-07
8.75711e-06
9.15085e-07
7.86168e-06
8.95429e-07
7.00025e-06
8.61438e-07
6.18357e-06
8.16679e-07
5.41913e-06
7.64436e-07
4.71151e-06
7.07619e-07
4.06278e-06
6.48728e-07
3.47294e-06
5.89846e-07
2.94029e-06
5.32645e-07
2.46188e-06
4.7841e-07
2.03384e-06
4.28045e-07
1.65178e-06
3.82053e-07
1.3113e-06
3.40484e-07
1.00846e-06
3.02841e-07
7.40476e-07
2.67983e-07
5.06427e-07
2.3405e-07
3.07925e-07
1.98502e-07
1.4947e-07
1.58455e-07
3.79133e-08
1.11557e-07
-2.00111e-08
5.79244e-08
-2.44526e-08
4.44152e-09
-2.44525e-08
4.88435e-08
-4.39113e-08
2.42886e-07
-2.45673e-07
5.93313e-07
-4.76188e-07
1.07532e-06
-6.6989e-07
1.65105e-06
-8.07355e-07
2.27853e-06
-8.8315e-07
2.91724e-06
-9.00021e-07
3.53164e-06
-8.65698e-07
4.09342e-06
-7.90944e-07
4.58258e-06
-6.87994e-07
4.98759e-06
-5.69247e-07
5.30483e-06
-4.46128e-07
5.53728e-06
-3.28197e-07
5.69291e-06
-2.22551e-07
5.78274e-06
-1.33534e-07
5.81894e-06
-6.27192e-08
5.81305e-06
-9.24045e-09
5.7745e-06
3.02577e-08
5.70951e-06
6.02785e-08
5.62031e-06
8.64446e-08
5.50526e-06
1.14654e-07
5.35826e-06
1.50334e-07
5.1703e-06
1.9827e-07
4.9297e-06
2.62092e-07
4.623e-06
3.44239e-07
4.23566e-06
4.46124e-07
3.75263e-06
5.68399e-07
3.15871e-06
7.11262e-07
2.43869e-06
8.74714e-07
1.57744e-06
1.05872e-06
5.60009e-07
1.26323e-06
-6.28334e-07
1.4881e-06
-2.00181e-06
1.73296e-06
-3.57383e-06
1.99702e-06
-5.35653e-06
2.27893e-06
-7.36025e-06
2.57667e-06
-9.59298e-06
2.88746e-06
-1.20598e-05
3.20774e-06
-1.47622e-05
3.53318e-06
-1.76977e-05
3.8587e-06
-2.08595e-05
4.17856e-06
-2.42357e-05
4.48649e-06
-2.78096e-05
4.77581e-06
-3.15593e-05
5.03959e-06
-3.54579e-05
5.27088e-06
-3.94737e-05
5.46284e-06
-4.35705e-05
5.60898e-06
-4.77081e-05
5.70331e-06
-5.1843e-05
5.7405e-06
-5.59293e-05
5.716e-06
-5.99187e-05
5.62614e-06
-6.37621e-05
5.46819e-06
-6.74099e-05
5.24036e-06
-7.08129e-05
4.94187e-06
-7.39227e-05
4.57291e-06
-7.66931e-05
4.13461e-06
-7.90799e-05
3.62904e-06
-8.10419e-05
3.0592e-06
-8.25417e-05
2.42906e-06
-8.35457e-05
1.7436e-06
-8.4024e-05
1.00854e-06
-8.3955e-05
2.32339e-07
-8.33206e-05
-5.83585e-07
-8.21049e-05
-1.42449e-06
-8.03041e-05
-2.28095e-06
-7.79198e-05
-3.14355e-06
-7.4961e-05
-4.00047e-06
-7.14442e-05
-4.83894e-06
-6.73946e-05
-5.6455e-06
-6.28453e-05
-6.40616e-06
-5.78382e-05
-7.1066e-06
-5.24235e-05
-7.73253e-06
-4.66597e-05
-8.27009e-06
-4.06127e-05
-8.7063e-06
-3.43552e-05
-9.02959e-06
-2.79658e-05
-9.23028e-06
-2.15272e-05
-9.30115e-06
-1.51253e-05
-9.23785e-06
-8.84648e-06
-9.03936e-06
-2.77636e-06
-8.70824e-06
3.00282e-06
-8.25082e-06
8.41421e-06
-7.67709e-06
1.33885e-05
-7.00061e-06
1.78661e-05
-6.23802e-06
2.17985e-05
-5.40854e-06
2.51501e-05
-4.53327e-06
2.78988e-05
-3.63433e-06
3.00368e-05
-2.73402e-06
3.15707e-05
-1.85407e-06
3.25182e-05
-1.0144e-06
3.29152e-05
-2.30554e-07
3.28053e-05
4.7777e-07
3.22395e-05
1.10202e-06
3.12771e-05
1.63488e-06
2.99823e-05
2.07194e-06
2.84204e-05
2.41281e-06
2.66564e-05
2.66048e-06
2.47523e-05
2.82086e-06
2.27652e-05
2.90216e-06
2.07464e-05
2.91423e-06
1.87399e-05
2.8679e-06
1.67823e-05
2.77433e-06
1.49022e-05
2.64447e-06
1.31213e-05
2.48861e-06
1.14539e-05
2.31609e-06
9.90868e-06
2.13506e-06
8.48893e-06
1.95239e-06
7.19369e-06
1.77365e-06
6.01876e-06
1.60298e-06
4.95773e-06
1.44308e-06
4.00327e-06
1.29495e-06
3.14841e-06
1.1577e-06
2.38807e-06
1.02831e-06
1.72061e-06
9.01516e-07
1.14899e-06
7.70117e-07
6.81291e-07
6.26157e-07
3.29351e-07
4.63497e-07
1.04297e-07
2.82977e-07
7.53293e-09
1.01206e-07
-1.69196e-08
1.17975e-07
-1.61886e-07
4.6129e-07
-5.88988e-07
1.00893e-06
-1.02383e-06
1.72337e-06
-1.38432e-06
2.55474e-06
-1.63873e-06
3.44838e-06
-1.77679e-06
4.35097e-06
-1.80261e-06
5.21515e-06
-1.72987e-06
6.0025e-06
-1.57829e-06
6.68517e-06
-1.37067e-06
7.24622e-06
-1.1303e-06
7.67892e-06
-8.78831e-07
7.98521e-06
-6.34486e-07
8.17356e-06
-4.10903e-07
8.25653e-06
-2.165e-07
8.24817e-06
-5.43593e-08
8.16166e-06
7.72678e-08
8.0074e-06
1.84518e-07
7.79119e-06
2.7649e-07
7.51345e-06
3.64183e-07
7.16892e-06
4.59183e-07
6.74679e-06
5.72462e-07
6.23163e-06
7.13431e-07
5.60434e-06
8.89384e-07
4.84325e-06
1.10533e-06
3.92515e-06
1.36422e-06
2.82613e-06
1.66742e-06
1.52214e-06
2.01524e-06
-1.05292e-08
2.40739e-06
-1.79499e-06
2.84318e-06
-3.85333e-06
3.32157e-06
-6.20618e-06
3.84095e-06
-8.87211e-06
4.39888e-06
-1.18668e-05
4.99173e-06
-1.52023e-05
5.61445e-06
-1.88861e-05
6.26042e-06
-2.292e-05
6.92133e-06
-2.72995e-05
7.58727e-06
-3.20132e-05
8.24687e-06
-3.7042e-05
8.8875e-06
-4.2359e-05
9.49562e-06
-4.79297e-05
1.00572e-05
-5.37119e-05
1.0558e-05
-5.96566e-05
1.09843e-05
-6.57088e-05
1.13231e-05
-7.18086e-05
1.15626e-05
-7.78924e-05
1.16928e-05
-8.38942e-05
1.17051e-05
-8.97472e-05
1.15934e-05
-9.53846e-05
1.13534e-05
-0.000100741
1.09829e-05
-0.000105755
1.04816e-05
-0.000110366
9.85139e-06
-0.000114519
9.09543e-06
-0.000118165
8.21861e-06
-0.000121258
7.22712e-06
-0.000123757
6.12833e-06
-0.000125628
4.93072e-06
-0.000126843
3.6438e-06
-0.000127378
2.27816e-06
-0.000127214
8.45132e-07
-0.00012634
-6.42148e-07
-0.000124752
-2.17121e-06
-0.000122449
-3.72728e-06
-0.000119437
-5.29312e-06
-0.000115729
-6.85185e-06
-0.000111344
-8.38522e-06
-0.000106309
-9.87361e-06
-0.000100659
-1.12964e-05
-9.44325e-05
-1.26322e-05
-8.76801e-05
-1.38591e-05
-8.04574e-05
-1.49552e-05
-7.28281e-05
-1.58994e-05
-6.48631e-05
-1.66713e-05
-5.66398e-05
-1.72529e-05
-4.82417e-05
-1.76284e-05
-3.97572e-05
-1.77857e-05
-3.12782e-05
-1.77168e-05
-2.28991e-05
-1.74185e-05
-1.47145e-05
-1.68928e-05
-6.81771e-06
-1.61476e-05
7.01422e-07
-1.51962e-05
7.75854e-06
-1.40577e-05
1.42768e-05
-1.27563e-05
2.01888e-05
-1.13205e-05
2.54383e-05
-9.78281e-06
2.99819e-05
-8.17789e-06
3.37899e-05
-6.54198e-06
3.68472e-05
-4.91138e-06
3.91538e-05
-3.32108e-06
4.07273e-05
-1.80403e-06
4.15968e-05
-3.91758e-07
4.18048e-05
8.94023e-07
4.14076e-05
2.0321e-06
4.04713e-05
3.00824e-06
3.90693e-05
3.81483e-06
3.72797e-05
4.45005e-06
3.51826e-05
4.91795e-06
3.2857e-05
5.22776e-06
3.03782e-05
5.39302e-06
2.78156e-05
5.43057e-06
2.52305e-05
5.35936e-06
2.26757e-05
5.19933e-06
2.01939e-05
4.97039e-06
1.78185e-05
4.69151e-06
1.55734e-05
4.38006e-06
1.34745e-05
4.05134e-06
1.15299e-05
3.71822e-06
9.74206e-06
3.39085e-06
8.10878e-06
3.07635e-06
6.62529e-06
2.77845e-06
5.28596e-06
2.49703e-06
4.08646e-06
2.22782e-06
3.02564e-06
1.96234e-06
2.10713e-06
1.68863e-06
1.33986e-06
1.39343e-06
7.36896e-07
1.06646e-06
3.11537e-07
7.08337e-07
7.017e-08
3.42573e-07
5.32504e-08
1.75728e-07
-3.37614e-07
6.46917e-07
-1.06018e-06
1.36063e-06
-1.73755e-06
2.26127e-06
-2.28496e-06
3.28656e-06
-2.66401e-06
4.37175e-06
-2.86198e-06
5.45489e-06
-2.88574e-06
6.48115e-06
-2.75614e-06
7.406e-06
-2.50315e-06
8.19686e-06
-2.16152e-06
8.83334e-06
-1.76678e-06
9.30642e-06
-1.35191e-06
9.61663e-06
-9.44693e-07
9.7716e-06
-5.65872e-07
9.78325e-06
-2.28152e-07
9.6649e-06
6.399e-08
9.4284e-06
3.13761e-07
9.08199e-06
5.30936e-07
8.62831e-06
7.30167e-07
8.06347e-06
9.29018e-07
7.37672e-06
1.14594e-06
6.55084e-06
1.39834e-06
5.56315e-06
1.70113e-06
4.38674e-06
2.06579e-06
2.99192e-06
2.50016e-06
1.34744e-06
3.0087e-06
-5.78347e-07
3.59321e-06
-2.81665e-06
4.25354e-06
-5.39743e-06
4.98817e-06
-8.34868e-06
5.79443e-06
-1.16956e-05
6.66847e-06
-1.54595e-05
7.60488e-06
-1.96569e-05
8.59623e-06
-2.42979e-05
9.63273e-06
-2.93853e-05
1.07019e-05
-3.49134e-05
1.17885e-05
-4.08667e-05
1.28747e-05
-4.72197e-05
1.39403e-05
-5.39364e-05
1.49635e-05
-6.09704e-05
1.59215e-05
-6.82657e-05
1.6791e-05
-7.5758e-05
1.75495e-05
-8.33759e-05
1.81758e-05
-9.10428e-05
1.86512e-05
-9.86791e-05
1.89594e-05
-0.000106204
1.90877e-05
-0.000113538
1.90269e-05
-0.000120605
1.87714e-05
-0.00012733
1.83191e-05
-0.000133648
1.7671e-05
-0.000139496
1.6831e-05
-0.00014482
1.58056e-05
-0.000149572
1.46031e-05
-0.00015371
1.32335e-05
-0.000157199
1.17079e-05
-0.000160011
1.00387e-05
-0.000162121
8.23883e-06
-0.000163512
6.32188e-06
-0.000164171
4.30216e-06
-0.000164087
2.19448e-06
-0.000163257
1.53605e-08
-0.000161679
-2.22071e-06
-0.000159356
-4.49412e-06
-0.000156296
-6.78696e-06
-0.00015251
-9.0789e-06
-0.000148014
-1.13481e-05
-0.000142828
-1.35714e-05
-0.000136977
-1.57241e-05
-0.000130494
-1.77799e-05
-0.000123414
-1.97114e-05
-0.000115783
-2.14903e-05
-0.00010765
-2.3088e-05
-9.90737e-05
-2.4476e-05
-9.01178e-05
-2.56273e-05
-8.08541e-05
-2.65166e-05
-7.13607e-05
-2.71218e-05
-6.17214e-05
-2.7425e-05
-5.20249e-05
-2.74133e-05
-4.23636e-05
-2.70797e-05
-3.2832e-05
-2.64244e-05
-2.3525e-05
-2.54546e-05
-1.4536e-05
-2.41852e-05
-5.95523e-06
-2.26385e-05
2.13246e-06
-2.0844e-05
9.64921e-06
-1.88373e-05
1.6526e-05
-1.66596e-05
2.2704e-05
-1.43559e-05
2.81361e-05
-1.19741e-05
3.27878e-05
-9.56312e-06
3.66386e-05
-7.17183e-06
3.96819e-05
-4.8474e-06
4.19243e-05
-2.63415e-06
4.33893e-05
-5.70925e-07
4.41132e-05
1.30812e-06
4.41459e-05
2.97557e-06
4.35491e-05
4.41167e-06
4.23944e-05
5.60468e-06
4.07613e-05
6.55108e-06
3.87336e-05
7.25544e-06
3.63969e-05
7.72972e-06
3.38352e-05
7.99233e-06
3.11279e-05
8.06667e-06
2.83476e-05
7.97966e-06
2.55579e-05
7.76001e-06
2.28127e-05
7.43677e-06
2.01549e-05
7.03786e-06
1.76172e-05
6.58902e-06
1.52226e-05
6.11284e-06
1.29854e-05
5.628e-06
1.09132e-05
5.14856e-06
9.00844e-06
4.68322e-06
7.27081e-06
4.23466e-06
5.69965e-06
3.79898e-06
4.29618e-06
3.3658e-06
3.06551e-06
2.9193e-06
2.01779e-06
2.44115e-06
1.16818e-06
1.91607e-06
5.35401e-07
1.34111e-06
1.39315e-07
7.38658e-07
1.92566e-07
2.20385e-07
-5.57999e-07
7.94044e-07
-1.63384e-06
1.64157e-06
-2.58507e-06
2.68792e-06
-3.33131e-06
3.85707e-06
-3.83316e-06
5.07439e-06
-4.07931e-06
6.27067e-06
-4.08202e-06
7.38584e-06
-3.8713e-06
8.37168e-06
-3.489e-06
9.19314e-06
-2.98298e-06
9.8282e-06
-2.40183e-06
1.02666e-05
-1.79035e-06
1.05079e-05
-1.18594e-06
1.05582e-05
-6.16206e-07
1.04277e-05
-9.76062e-08
1.01269e-05
3.64784e-07
9.66412e-06
7.7652e-07
9.04289e-06
1.15216e-06
8.26012e-06
1.51294e-06
7.3052e-06
1.88394e-06
6.15988e-06
2.29125e-06
4.79902e-06
2.75921e-06
3.19178e-06
3.30836e-06
1.30333e-06
3.95424e-06
-9.03524e-07
4.70701e-06
-3.46671e-06
5.57189e-06
-6.42351e-06
6.55e-06
-9.80923e-06
7.63926e-06
-1.3656e-05
8.83495e-06
-1.79915e-05
1.01299e-05
-2.28373e-05
1.15143e-05
-2.82075e-05
1.29751e-05
-3.41071e-05
1.44958e-05
-4.05302e-05
1.60559e-05
-4.74591e-05
1.76308e-05
-5.48631e-05
1.91925e-05
-6.26986e-05
2.07101e-05
-7.0909e-05
2.21507e-05
-7.94262e-05
2.34807e-05
-8.8172e-05
2.46673e-05
-9.70609e-05
2.56798e-05
-0.000106002
2.64907e-05
-0.000114903
2.70768e-05
-0.000123672
2.742e-05
-0.00013222
2.75078e-05
-0.000140466
2.7333e-05
-0.000148332
2.68934e-05
-0.000155752
2.61918e-05
-0.000162668
2.52346e-05
-0.000169029
2.40318e-05
-0.000174793
2.25955e-05
-0.000179928
2.09399e-05
-0.000184405
1.90801e-05
-0.000188203
1.70321e-05
-0.000191308
1.48121e-05
-0.000193705
1.24365e-05
-0.000195388
9.92157e-06
-0.00019635
7.28382e-06
-0.000196587
4.53974e-06
-0.000196099
1.7062e-06
-0.000194885
-1.1993e-06
-0.000192946
-4.15911e-06
-0.000190287
-7.15352e-06
-0.000186912
-1.01617e-05
-0.00018283
-1.31612e-05
-0.00017805
-1.61276e-05
-0.000172587
-1.90343e-05
-0.000166459
-2.18526e-05
-0.000159687
-2.45515e-05
-0.0001523
-2.70983e-05
-0.000144332
-2.94584e-05
-0.000135824
-3.15966e-05
-0.000126822
-3.34773e-05
-0.000117384
-3.50656e-05
-0.000107572
-3.63285e-05
-9.74576e-05
-3.72364e-05
-8.71185e-05
-3.77641e-05
-7.66395e-05
-3.78923e-05
-6.61103e-05
-3.76089e-05
-5.56246e-05
-3.69102e-05
-4.5278e-05
-3.58013e-05
-3.51662e-05
-3.4297e-05
-2.53832e-05
-3.24215e-05
-1.60191e-05
-3.02081e-05
-7.15808e-06
-2.76983e-05
1.12289e-06
-2.49405e-05
8.75568e-06
-2.19887e-05
1.56821e-05
-1.89005e-05
2.18548e-05
-1.57358e-05
2.72381e-05
-1.2555e-05
3.18079e-05
-9.41727e-06
3.55529e-05
-6.3791e-06
3.84749e-05
-3.49293e-06
4.05889e-05
-8.05908e-07
4.19232e-05
1.64132e-06
4.25191e-05
3.81576e-06
4.24306e-05
5.69317e-06
4.17229e-05
7.25877e-06
4.04706e-05
8.50769e-06
3.87554e-05
9.44498e-06
3.66627e-05
1.0085e-05
3.42789e-05
1.04504e-05
3.1688e-05
1.05706e-05
2.89684e-05
1.04796e-05
2.6191e-05
1.02142e-05
2.34168e-05
9.81202e-06
2.06966e-05
9.30924e-06
1.80703e-05
8.73915e-06
1.55677e-05
8.13061e-06
1.32096e-05
7.50665e-06
1.10096e-05
6.8832e-06
8.97634e-06
6.26796e-06
7.11571e-06
5.65961e-06
5.43384e-06
5.04768e-06
3.93931e-06
4.41382e-06
2.64541e-06
3.73505e-06
1.57173e-06
2.98975e-06
7.4561e-07
2.16724e-06
2.04007e-07
1.28026e-06
3.96573e-07
2.54335e-07
-8.12334e-07
9.0788e-07
-2.28738e-06
1.85959e-06
-3.53678e-06
3.0155e-06
-4.48723e-06
4.28516e-06
-5.10282e-06
5.5836e-06
-5.37776e-06
6.8347e-06
-5.33312e-06
7.97421e-06
-5.01082e-06
8.95181e-06
-4.46659e-06
9.73163e-06
-3.7628e-06
1.02915e-05
-2.96174e-06
1.06212e-05
-2.12002e-06
1.07194e-05
-1.28418e-06
1.0591e-05
-4.87736e-07
1.0243e-05
2.50317e-07
9.68211e-06
9.2571e-07
8.91086e-06
1.54777e-06
7.92582e-06
2.1372e-06
6.71583e-06
2.72292e-06
5.26143e-06
3.33834e-06
3.53523e-06
4.01746e-06
1.50302e-06
4.79141e-06
-8.74352e-07
5.68574e-06
-3.63904e-06
6.71893e-06
-6.83403e-06
7.90201e-06
-1.05013e-05
9.23911e-06
-1.46797e-05
1.07284e-05
-1.94037e-05
1.23632e-05
-2.47009e-05
1.41321e-05
-3.05906e-05
1.60196e-05
-3.70815e-05
1.80052e-05
-4.41699e-05
2.00635e-05
-5.18377e-05
2.21637e-05
-6.00518e-05
2.42699e-05
-6.8763e-05
2.63419e-05
-7.79068e-05
2.83364e-05
-8.74051e-05
3.02084e-05
-9.7168e-05
3.19136e-05
-0.000107097
3.34101e-05
-0.00011709
3.46603e-05
-0.000127043
3.56325e-05
-0.000136855
3.63022e-05
-0.00014643
3.6652e-05
-0.000155682
3.66726e-05
-0.000164536
3.63613e-05
-0.000172925
3.5722e-05
-0.000180795
3.47637e-05
-0.000188103
3.34997e-05
-0.000194814
3.1946e-05
-0.000200903
3.01209e-05
-0.000206352
2.80436e-05
-0.000211145
2.57337e-05
-0.000215276
2.32106e-05
-0.000218737
2.04935e-05
-0.000221526
1.76007e-05
-0.000223639
1.45497e-05
-0.000225075
1.13578e-05
-0.000225833
8.04155e-06
-0.000225911
4.61744e-06
-0.000225307
1.10226e-06
-0.000224019
-2.48687e-06
-0.000222047
-6.13168e-06
-0.000219388
-9.81253e-06
-0.000216041
-1.3508e-05
-0.000212008
-1.71943e-05
-0.00020729
-2.08453e-05
-0.000201893
-2.4432e-05
-0.000195823
-2.79224e-05
-0.000189093
-3.12815e-05
-0.00018172
-3.44715e-05
-0.000173726
-3.7452e-05
-0.000165142
-4.01809e-05
-0.000156004
-4.26148e-05
-0.000146359
-4.47107e-05
-0.000136261
-4.64267e-05
-0.000125773
-4.77241e-05
-0.000114968
-4.85689e-05
-0.000103927
-4.89333e-05
-9.27382e-05
-4.87981e-05
-8.14948e-05
-4.81536e-05
-7.02951e-05
-4.70009e-05
-5.9239e-05
-4.5353e-05
-4.8426e-05
-4.32345e-05
-3.79525e-05
-4.06816e-05
-2.79098e-05
-3.7741e-05
-1.83824e-05
-3.4468e-05
-9.44566e-06
-3.09254e-05
-1.16555e-06
-2.71806e-05
6.40259e-06
-2.3304e-05
1.32142e-05
-1.93666e-05
1.92353e-05
-1.54384e-05
2.44431e-05
-1.15868e-05
2.88253e-05
-7.87511e-06
3.23808e-05
-4.36143e-06
3.51199e-05
-1.0978e-06
3.70646e-05
1.87109e-06
3.82488e-05
4.50895e-06
3.87186e-05
6.78898e-06
3.85315e-05
8.69483e-06
3.77552e-05
1.02212e-05
3.64662e-05
1.13741e-05
3.47464e-05
1.21702e-05
3.26808e-05
1.26362e-05
3.03537e-05
1.28067e-05
2.78458e-05
1.27221e-05
2.52315e-05
1.24263e-05
2.25765e-05
1.19642e-05
1.99369e-05
1.13788e-05
1.73581e-05
1.07094e-05
1.48759e-05
9.98881e-06
1.25173e-05
9.24185e-06
1.03021e-05
8.48317e-06
8.24564e-06
7.71603e-06
6.36149e-06
6.93183e-06
4.6642e-06
6.11111e-06
3.1726e-06
5.22665e-06
1.91308e-06
4.24927e-06
9.2354e-07
3.15677e-06
2.58485e-07
1.94532e-06
6.55058e-07
2.80835e-07
-1.09317e-06
9.96276e-07
-3.00282e-06
2.02641e-06
-4.56692e-06
3.25924e-06
-5.72005e-06
4.5897e-06
-6.43328e-06
5.9223e-06
-6.71036e-06
7.17425e-06
-6.58507e-06
8.27794e-06
-6.1145e-06
9.18208e-06
-5.37073e-06
9.85138e-06
-4.4321e-06
1.02648e-05
-3.37516e-06
1.04128e-05
-2.268e-06
1.02939e-05
-1.16527e-06
9.91099e-06
-1.04846e-07
9.2677e-06
8.93614e-07
8.36481e-06
1.82859e-06
7.19754e-06
2.71504e-06
5.75341e-06
3.58134e-06
4.0112e-06
4.46513e-06
1.941e-06
5.40853e-06
-4.94713e-07
6.45318e-06
-3.33921e-06
7.6359e-06
-6.63903e-06
8.98556e-06
-1.04414e-05
1.05213e-05
-1.47918e-05
1.22524e-05
-1.97312e-05
1.41785e-05
-2.52941e-05
1.62914e-05
-3.15062e-05
1.85753e-05
-3.83815e-05
2.10075e-05
-4.59206e-05
2.35587e-05
-5.41079e-05
2.61926e-05
-6.29106e-05
2.88661e-05
-7.22772e-05
3.15303e-05
-8.21385e-05
3.41312e-05
-9.24087e-05
3.66121e-05
-0.000102989
3.89162e-05
-0.000113769
4.0989e-05
-0.000124637
4.2781e-05
-0.000135477
4.42501e-05
-0.00014618
4.53632e-05
-0.000156644
4.60968e-05
-0.000166779
4.64374e-05
-0.000176508
4.63809e-05
-0.000185767
4.59312e-05
-0.000194504
4.50992e-05
-0.000202683
4.39008e-05
-0.000210275
4.23559e-05
-0.000217262
4.04864e-05
-0.000223632
3.83156e-05
-0.000229378
3.5867e-05
-0.000234498
3.31633e-05
-0.00023899
3.02265e-05
-0.000242857
2.70774e-05
-0.000246099
2.37354e-05
-0.000248717
2.02185e-05
-0.000250711
1.65437e-05
-0.00025208
1.27272e-05
-0.000252823
8.78442e-06
-0.000252936
4.73073e-06
-0.000252416
5.81772e-07
-0.000251256
-3.64637e-06
-0.000249452
-7.93619e-06
-0.000246996
-1.22686e-05
-0.000243881
-1.66223e-05
-0.000240102
-2.09735e-05
-0.000235653
-2.5295e-05
-0.000230528
-2.95564e-05
-0.000224727
-3.37234e-05
-0.000218251
-3.77578e-05
-0.000211105
-4.16177e-05
-0.000203299
-4.52573e-05
-0.000194852
-4.86282e-05
-0.000185788
-5.16792e-05
-0.00017614
-5.43586e-05
-0.000165952
-5.66148e-05
-0.000155277
-5.83986e-05
-0.000144181
-5.96653e-05
-0.000132738
-6.03763e-05
-0.000121034
-6.05024e-05
-0.000109162
-6.0025e-05
-9.72249e-05
-5.89382e-05
-8.53276e-05
-5.72503e-05
-7.35779e-05
-5.49842e-05
-6.20824e-05
-5.21771e-05
-5.09434e-05
-4.888e-05
-4.02562e-05
-4.51552e-05
-3.01069e-05
-4.10747e-05
-2.05707e-05
-3.67169e-05
-1.17107e-05
-3.21639e-05
-3.57846e-06
-2.74989e-05
3.78638e-06
-2.28033e-05
1.03549e-05
-1.81554e-05
1.61084e-05
-1.36286e-05
2.10376e-05
-9.29059e-06
2.51422e-05
-5.20246e-06
2.84315e-05
-1.41815e-06
3.09241e-05
2.01634e-06
3.26491e-05
5.06394e-06
3.36465e-05
7.69746e-06
3.39669e-05
9.90073e-06
3.36716e-05
1.16694e-05
3.28308e-05
1.30111e-05
3.15215e-05
1.39455e-05
2.98252e-05
1.4503e-05
2.78243e-05
1.4723e-05
2.5599e-05
1.46516e-05
2.32248e-05
1.43385e-05
2.07695e-05
1.38341e-05
1.82924e-05
1.31865e-05
1.58432e-05
1.24381e-05
1.34623e-05
1.16228e-05
1.11821e-05
1.07633e-05
9.02911e-06
9.86903e-06
7.02624e-06
8.9347e-06
5.19632e-06
7.94103e-06
3.56594e-06
6.85703e-06
2.17007e-06
5.64514e-06
1.05777e-06
4.26907e-06
2.99416e-07
2.70367e-06
9.54475e-07
3.02451e-07
-1.39562e-06
1.06572e-06
-3.76609e-06
2.15175e-06
-5.65295e-06
3.43101e-06
-6.99931e-06
4.78407e-06
-7.78633e-06
6.10516e-06
-8.03146e-06
7.30542e-06
-7.78533e-06
8.31479e-06
-7.12387e-06
9.08224e-06
-6.13818e-06
9.57421e-06
-4.92407e-06
9.77171e-06
-3.57265e-06
9.6665e-06
-2.1628e-06
9.25689e-06
-7.55659e-07
8.54341e-06
6.08636e-07
7.52484e-06
1.91218e-06
6.19484e-06
3.1586e-06
4.53934e-06
4.37054e-06
2.53513e-06
5.58555e-06
1.4957e-07
6.8507e-06
-2.65839e-06
8.21649e-06
-5.9361e-06
9.73089e-06
-9.73441e-06
1.14342e-05
-1.41044e-05
1.33555e-05
-1.90941e-05
1.5511e-05
-2.47456e-05
1.79039e-05
-3.1092e-05
2.05249e-05
-3.81545e-05
2.33539e-05
-4.594e-05
2.63608e-05
-5.44383e-05
2.95058e-05
-6.36199e-05
3.27402e-05
-7.34348e-05
3.60074e-05
-8.38122e-05
3.92436e-05
-9.46625e-05
4.23805e-05
-0.000105879
4.53481e-05
-0.000117345
4.8078e-05
-0.000128936
5.05071e-05
-0.000140527
5.25803e-05
-0.000152
5.42535e-05
-0.000163244
5.54945e-05
-0.000174165
5.62835e-05
-0.00018468
5.66125e-05
-0.000194727
5.6484e-05
-0.000204255
5.59093e-05
-0.00021323
5.49063e-05
-0.000221629
5.34975e-05
-0.000229436
5.17086e-05
-0.000236647
4.95666e-05
-0.000243259
4.70987e-05
-0.000249275
4.43316e-05
-0.000254699
4.12905e-05
-0.000259535
3.79994e-05
-0.000263789
3.44802e-05
-0.000267464
3.07529e-05
-0.000270565
2.68362e-05
-0.000273094
2.27468e-05
-0.00027505
1.85004e-05
-0.000276435
1.41116e-05
-0.000277245
9.59432e-06
-0.000277476
4.96229e-06
-0.000277124
2.29567e-07
-0.000276181
-4.58916e-06
-0.000274639
-9.47798e-06
-0.000272489
-1.44191e-05
-0.000269719
-1.93925e-05
-0.000266317
-2.4375e-05
-0.000262272
-2.934e-05
-0.000257572
-3.4257e-05
-0.000252204
-3.90908e-05
-0.00024616
-4.38017e-05
-0.000239433
-4.83448e-05
-0.00023202
-5.26707e-05
-0.000223923
-5.67252e-05
-0.000215151
-6.04507e-05
-0.000205723
-6.37866e-05
-0.000195667
-6.66715e-05
-0.00018502
-6.90448e-05
-0.000173837
-7.0849e-05
-0.000162181
-7.20324e-05
-0.000150131
-7.25524e-05
-0.000137778
-7.23776e-05
-0.000125225
-7.14909e-05
-0.000112584
-6.98916e-05
-9.99718e-05
-6.75965e-05
-8.75083e-05
-6.46406e-05
-7.53117e-05
-6.10765e-05
-6.34945e-05
-5.69724e-05
-5.21597e-05
-5.24095e-05
-4.13982e-05
-4.74784e-05
-3.12867e-05
-4.22754e-05
-2.1887e-05
-3.68985e-05
-1.32463e-05
-3.1444e-05
-5.39812e-06
-2.60036e-05
1.63574e-06
-2.06625e-05
7.84361e-06
-1.54985e-05
1.32223e-05
-1.05812e-05
1.77763e-05
-5.97208e-06
2.15169e-05
-1.72434e-06
2.44634e-05
2.11747e-06
2.66429e-05
5.51794e-06
2.80919e-05
8.4518e-06
2.88563e-05
1.09049e-05
2.89919e-05
1.28754e-05
2.85636e-05
1.43738e-05
2.76435e-05
1.54231e-05
2.63086e-05
1.60579e-05
2.46383e-05
1.63219e-05
2.27109e-05
1.62658e-05
2.06011e-05
1.59439e-05
1.83772e-05
1.54103e-05
1.61002e-05
1.47151e-05
1.38226e-05
1.39004e-05
1.15888e-05
1.29971e-05
9.43684e-06
1.2021e-05
7.40028e-06
1.09713e-05
5.51171e-06
9.8296e-06
3.80698e-06
8.56176e-06
2.33054e-06
7.12158e-06
1.14216e-06
5.45745e-06
3.25072e-07
3.52076e-06
1.27955e-06
3.20703e-07
-1.71632e-06
1.11999e-06
-4.56537e-06
2.24094e-06
-6.7739e-06
3.53665e-06
-8.29503e-06
4.87379e-06
-9.12347e-06
6.1371e-06
-9.29477e-06
7.23274e-06
-8.88096e-06
8.0895e-06
-7.98064e-06
8.65789e-06
-6.70656e-06
8.90713e-06
-5.17331e-06
8.82096e-06
-3.48649e-06
8.39264e-06
-1.73448e-06
7.61977e-06
1.72107e-08
6.49954e-06
1.72887e-06
5.02455e-06
3.38717e-06
3.17966e-06
5.00349e-06
9.39989e-07
6.6102e-06
-1.72957e-06
8.25511e-06
-4.87347e-06
9.99459e-06
-8.54315e-06
1.18862e-05
-1.27937e-05
1.39815e-05
-1.768e-05
1.63205e-05
-2.32525e-05
1.8928e-05
-2.95535e-05
2.1812e-05
-3.66135e-05
2.49639e-05
-4.44482e-05
2.83596e-05
-5.30554e-05
3.19611e-05
-6.24123e-05
3.57177e-05
-7.24741e-05
3.95675e-05
-8.31725e-05
4.34387e-05
-9.44176e-05
4.72525e-05
-0.0001061
5.09258e-05
-0.000118095
5.43756e-05
-0.00013027
5.75232e-05
-0.00014249
6.02983e-05
-0.000154625
6.26425e-05
-0.000166557
6.45116e-05
-0.00017818
6.58763e-05
-0.000189407
6.6722e-05
-0.000200171
6.70471e-05
-0.000210419
6.68612e-05
-0.000220118
6.61827e-05
-0.000229245
6.50358e-05
-0.000237787
6.34491e-05
-0.000245743
6.14529e-05
-0.000253113
5.90785e-05
-0.000259902
5.63563e-05
-0.000266119
5.33158e-05
-0.000271772
4.99845e-05
-0.00027687
4.63881e-05
-0.00028142
4.25499e-05
-0.000285431
3.84912e-05
-0.00028891
3.42313e-05
-0.000291861
2.97875e-05
-0.00029429
2.51754e-05
-0.000296198
2.04092e-05
-0.000297589
1.5502e-05
-0.000298461
1.04661e-05
-0.000298812
5.31324e-06
-0.000298637
5.53731e-08
-0.000297932
-5.29437e-06
-0.000296687
-1.07228e-05
-0.000294892
-1.62144e-05
-0.000292533
-2.17512e-05
-0.000289596
-2.73123e-05
-0.000286063
-3.28732e-05
-0.000281915
-3.84048e-05
-0.000277133
-4.38732e-05
-0.000271695
-4.92388e-05
-0.000265584
-5.44562e-05
-0.000258781
-5.9474e-05
-0.000251271
-6.42346e-05
-0.000243047
-6.86751e-05
-0.000234106
-7.27279e-05
-0.000224455
-7.63221e-05
-0.000214115
-7.93854e-05
-0.000203117
-8.1847e-05
-0.000191509
-8.36399e-05
-0.000179357
-8.47048e-05
-0.000166741
-8.49933e-05
-0.00015376
-8.44719e-05
-0.000140527
-8.31248e-05
-0.000127166
-8.0957e-05
-0.000113812
-7.79952e-05
-0.0001006
-7.42884e-05
-8.76656e-05
-6.99067e-05
-7.51366e-05
-6.49385e-05
-6.31285e-05
-5.94865e-05
-5.17411e-05
-5.36628e-05
-4.10557e-05
-4.7584e-05
-3.11344e-05
-4.13653e-05
-2.20208e-05
-3.51171e-05
-1.37419e-05
-2.89414e-05
-6.31088e-06
-2.29295e-05
2.69894e-07
-1.7162e-05
6.00624e-06
-1.17084e-05
1.09102e-05
-6.62831e-06
1.49992e-05
-1.97148e-06
1.82957e-05
2.22139e-06
2.08285e-05
5.91901e-06
2.26332e-05
9.10022e-06
2.37537e-05
1.1755e-05
2.42422e-05
1.38853e-05
2.41595e-05
1.55058e-05
2.35734e-05
1.66439e-05
2.25572e-05
1.73381e-05
2.11865e-05
1.76365e-05
1.95372e-05
1.75933e-05
1.76823e-05
1.72653e-05
1.56897e-05
1.67076e-05
1.36212e-05
1.59689e-05
1.15318e-05
1.50866e-05
9.46998e-06
1.40828e-05
7.48017e-06
1.29611e-05
5.60524e-06
1.17045e-05
3.89091e-06
1.02761e-05
2.39115e-06
8.62134e-06
1.17509e-06
6.67351e-06
3.35054e-07
4.3608e-06
1.6146e-06
3.36056e-07
-2.05238e-06
1.15992e-06
-5.38924e-06
2.29444e-06
-7.90842e-06
3.57538e-06
-9.57596e-06
4.85627e-06
-1.04044e-05
6.01372e-06
-1.04522e-05
6.95052e-06
-9.81776e-06
7.59597e-06
-8.62608e-06
7.90345e-06
-7.01405e-06
7.84595e-06
-5.11581e-06
7.41025e-06
-3.05078e-06
6.59071e-06
-9.14941e-07
5.38337e-06
1.22455e-06
3.78068e-06
3.33156e-06
1.76746e-06
5.40039e-06
-6.81748e-07
7.4527e-06
-3.60365e-06
9.53211e-06
-7.04543e-06
1.16969e-05
-1.10623e-05
1.40114e-05
-1.57134e-05
1.65373e-05
-2.10573e-05
1.93254e-05
-2.7147e-05
2.24102e-05
-3.40248e-05
2.58058e-05
-4.17184e-05
2.95056e-05
-5.0237e-05
3.34825e-05
-5.95683e-05
3.7691e-05
-6.96765e-05
4.20692e-05
-8.05002e-05
4.65415e-05
-9.19535e-05
5.10208e-05
-0.000103927
5.54126e-05
-0.000116294
5.96195e-05
-0.000128915
6.35462e-05
-0.000141644
6.71048e-05
-0.00015434
7.02195e-05
-0.000166872
7.28301e-05
-0.000179124
7.48937e-05
-0.000190997
7.63852e-05
-0.000202416
7.72956e-05
-0.000213324
7.76299e-05
-0.000223682
7.74047e-05
-0.000233465
7.66443e-05
-0.000242661
7.5379e-05
-0.000251267
7.3642e-05
-0.000259286
7.14681e-05
-0.000266725
6.88919e-05
-0.000273594
6.59472e-05
-0.000279904
6.26661e-05
-0.000285667
5.90787e-05
-0.000290895
5.52129e-05
-0.000295601
5.10941e-05
-0.000299797
4.67454e-05
-0.000303493
4.21875e-05
-0.000306701
3.74391e-05
-0.00030943
3.25164e-05
-0.000311688
2.7434e-05
-0.000313484
2.22046e-05
-0.000314822
1.68397e-05
-0.000315705
1.13495e-05
-0.000316136
5.74393e-06
-0.000316112
3.16604e-08
-0.000315631
-5.77557e-06
-0.000314685
-1.16689e-05
-0.000313264
-1.76353e-05
-0.000311355
-2.36604e-05
-0.00030894
-2.97268e-05
-0.000306
-3.58133e-05
-0.00030251
-4.18944e-05
-0.000298444
-4.79392e-05
-0.000293773
-5.39106e-05
-0.000288464
-5.9765e-05
-0.000282486
-6.54517e-05
-0.000275808
-7.09124e-05
-0.000268402
-7.60816e-05
-0.000260243
-8.08868e-05
-0.000251315
-8.52498e-05
-0.000241612
-8.90883e-05
-0.000231141
-9.23182e-05
-0.000219925
-9.48565e-05
-0.000208004
-9.66252e-05
-0.000195442
-9.75555e-05
-0.000182322
-9.75921e-05
-0.000168749
-9.66979e-05
-0.000154848
-9.4858e-05
-0.00014076
-9.20826e-05
-0.00012664
-8.84092e-05
-0.000112644
-8.39023e-05
-9.89308e-05
-7.86517e-05
-8.56486e-05
-7.27687e-05
-7.29311e-05
-6.63804e-05
-6.08915e-05
-5.96235e-05
-4.96195e-05
-5.26372e-05
-3.91801e-05
-4.55565e-05
-2.96146e-05
-3.85069e-05
-2.09433e-05
-3.16008e-05
-1.31699e-05
-2.49353e-05
-6.28563e-06
-1.85927e-05
-2.73375e-07
-1.26406e-05
4.88941e-06
-7.13426e-06
9.22884e-06
-2.11804e-06
1.27741e-05
2.37372e-06