/*--------------------------------*- C++ -*----------------------------------*\
| =========                 |                                                 |
| \\      /  F ield         | OpenFOAM: The Open Source CFD Toolbox           |
|  \\    /   O peration     | Version:  2406                                  |
|   \\  /    A nd           | Website:  www.openfoam.com                      |
|    \\/     M anipulation  |                                                 |
\*---------------------------------------------------------------------------*/
FoamFile
{
    version     2.0;
    format      ascii;
    arch        "LSB;label=32;scalar=64";
    class       volVectorField;
    location    "49.4";
    object      U_0;
}
// * * * * * * * * * * * * * * * * * * * * * * * * * * * * * * * * * * * * * //

dimensions      [0 1 -1 0 0 0 0];

internalField   nonuniform List<vector> 
14400
(
(-7.45274e-06 7.34878e-06 0)
(1.28162e-05 -1.09517e-05 0)
(0.000120466 -3.48628e-05 0)
(0.000311563 -5.44203e-05 0)
(0.000566284 -6.80003e-05 0)
(0.000861632 -7.53246e-05 0)
(0.00117445 -7.69631e-05 0)
(0.00148414 -7.38312e-05 0)
(0.00177395 -6.70731e-05 0)
(0.00203169 -5.79222e-05 0)
(0.0022499 -4.75913e-05 0)
(0.00242564 -3.71688e-05 0)
(0.00255989 -2.75408e-05 0)
(0.00265671 -1.93423e-05 0)
(0.00272218 -1.29365e-05 0)
(0.00276339 -8.41854e-06 0)
(0.00278759 -5.70328e-06 0)
(0.00280103 -4.59923e-06 0)
(0.00280846 -4.64374e-06 0)
(0.00281284 -5.29431e-06 0)
(0.00281487 -5.95952e-06 0)
(0.00281346 -5.843e-06 0)
(0.00280584 -4.71412e-06 0)
(0.00278746 -2.40732e-06 0)
(0.00275281 1.24806e-06 0)
(0.00269581 6.33958e-06 0)
(0.00261012 1.28918e-05 0)
(0.00248931 2.09031e-05 0)
(0.0023269 3.03724e-05 0)
(0.00211642 4.13163e-05 0)
(0.0018513 5.3773e-05 0)
(0.00152483 6.77958e-05 0)
(0.00113017 8.3439e-05 0)
(0.000660356 0.000100742 0)
(0.000108473 0.000119716 0)
(-0.000532228 0.00014033 0)
(-0.0012681 0.000162506 0)
(-0.00210489 0.000186114 0)
(-0.00304744 0.000210963 0)
(-0.00409949 0.000236808 0)
(-0.00526336 0.000263343 0)
(-0.00653975 0.000290211 0)
(-0.00792746 0.000316997 0)
(-0.0094232 0.000343242 0)
(-0.0110215 0.000368446 0)
(-0.0127144 0.000392077 0)
(-0.0144915 0.000413579 0)
(-0.0163402 0.000432383 0)
(-0.0182451 0.000447913 0)
(-0.0201887 0.000459598 0)
(-0.0221513 0.000466878 0)
(-0.0241111 0.000469211 0)
(-0.0260447 0.000466083 0)
(-0.0279269 0.000457014 0)
(-0.0297315 0.000441569 0)
(-0.0314313 0.000419363 0)
(-0.0329987 0.000390073 0)
(-0.0344058 0.000353459 0)
(-0.035625 0.000309363 0)
(-0.0366295 0.00025762 0)
(-0.0373945 0.000198663 0)
(-0.0378963 0.000134667 0)
(-0.0381102 6.55875e-05 0)
(-0.0380168 -1.21426e-05 0)
(-0.0376051 -9.57812e-05 0)
(-0.0368624 -0.000182874 0)
(-0.035782 -0.000272169 0)
(-0.0343631 -0.00036217 0)
(-0.0326108 -0.000451099 0)
(-0.0305369 -0.000536983 0)
(-0.02816 -0.000617703 0)
(-0.0255055 -0.000691063 0)
(-0.0226062 -0.000754884 0)
(-0.0195012 -0.000807097 0)
(-0.0162361 -0.000845852 0)
(-0.0128615 -0.000869624 0)
(-0.00943222 -0.000877318 0)
(-0.00600582 -0.000868358 0)
(-0.00264074 -0.00084275 0)
(0.000605342 -0.000801126 0)
(0.00367751 -0.000744733 0)
(0.00652543 -0.000675399 0)
(0.00910515 -0.000595449 0)
(0.0113806 -0.000507584 0)
(0.0133247 -0.000414741 0)
(0.0149204 -0.000319923 0)
(0.0161605 -0.000226039 0)
(0.0170479 -0.000135726 0)
(0.0175949 -5.10609e-05 0)
(0.017824 2.54459e-05 0)
(0.0177602 8.98511e-05 0)
(0.0174348 0.000144403 0)
(0.0168875 0.000190397 0)
(0.0161575 0.000226562 0)
(0.015283 0.000252579 0)
(0.0143017 0.000269269 0)
(0.0132492 0.000277699 0)
(0.0121578 0.00027901 0)
(0.0110558 0.000274397 0)
(0.00996703 0.000265051 0)
(0.00891105 0.000252102 0)
(0.00790284 0.00023659 0)
(0.00695329 0.000219439 0)
(0.00606958 0.000201446 0)
(0.00525565 0.000183277 0)
(0.00451265 0.000165474 0)
(0.00383953 0.000148463 0)
(0.00323343 0.000132563 0)
(0.0026902 0.000117993 0)
(0.00220483 0.000104866 0)
(0.00177196 9.31648e-05 0)
(0.0013865 8.27195e-05 0)
(0.00104431 7.31624e-05 0)
(0.000743061 6.38975e-05 0)
(0.000483058 5.40933e-05 0)
(0.000267935 4.27775e-05 0)
(0.000104722 2.9101e-05 0)
(2.35048e-06 1.28307e-05 0)
(-3.47431e-05 -3.92691e-06 0)
(-1.34375e-05 -1.34558e-05 0)
(9.74831e-06 -1.18893e-05 0)
(0.000151007 -0.00015567 0)
(0.000477635 -0.000333075 0)
(0.000984085 -0.000482362 0)
(0.00162494 -0.000587982 0)
(0.00235327 -0.000646194 0)
(0.00311886 -0.000659605 0)
(0.00387563 -0.000634476 0)
(0.00458502 -0.000579233 0)
(0.00521796 -0.000503304 0)
(0.00575557 -0.00041616 0)
(0.00618891 -0.000326468 0)
(0.00651782 -0.00024143 0)
(0.00674916 -0.000166348 0)
(0.0068946 -0.000104417 0)
(0.00696836 -5.67417e-05 0)
(0.0069849 -2.25692e-05 0)
(0.00695702 3.29829e-07 0)
(0.00689423 1.55182e-05 0)
(0.00680167 2.7224e-05 0)
(0.00667971 3.9847e-05 0)
(0.00652363 5.76939e-05 0)
(0.00632425 8.40978e-05 0)
(0.00606903 0.000121591 0)
(0.00574278 0.00017189 0)
(0.00532859 0.000235964 0)
(0.00480865 0.000314232 0)
(0.00416477 0.000406809 0)
(0.00337868 0.000513716 0)
(0.00243219 0.000634999 0)
(0.00130723 0.000770767 0)
(-1.40461e-05 0.000921128 0)
(-0.00154904 0.00108609 0)
(-0.00331438 0.00126541 0)
(-0.00532548 0.00145852 0)
(-0.00759591 0.0016644 0)
(-0.0101368 0.00188153 0)
(-0.0129559 0.00210784 0)
(-0.0160575 0.00234072 0)
(-0.0194409 0.00257699 0)
(-0.0231006 0.002813 0)
(-0.0270255 0.00304459 0)
(-0.0311985 0.00326726 0)
(-0.0355963 0.00347617 0)
(-0.0401897 0.00366634 0)
(-0.0449434 0.00383269 0)
(-0.0498166 0.00397022 0)
(-0.0547635 0.0040741 0)
(-0.0597338 0.00413979 0)
(-0.0646736 0.00416314 0)
(-0.0695264 0.00414051 0)
(-0.0742335 0.00406881 0)
(-0.0787357 0.00394555 0)
(-0.0829735 0.00376892 0)
(-0.0868883 0.00353783 0)
(-0.0904232 0.00325189 0)
(-0.0935239 0.00291147 0)
(-0.0961392 0.00251774 0)
(-0.0982218 0.00207269 0)
(-0.0997288 0.00157916 0)
(-0.100622 0.00104109 0)
(-0.100871 0.000464571 0)
(-0.100452 -0.00014419 0)
(-0.0993427 -0.000782448 0)
(-0.0975332 -0.00144118 0)
(-0.0950214 -0.00211112 0)
(-0.0918137 -0.00278228 0)
(-0.0879254 -0.00344389 0)
(-0.0833813 -0.00408441 0)
(-0.0782164 -0.0046917 0)
(-0.0724757 -0.00525328 0)
(-0.0662146 -0.00575663 0)
(-0.0594983 -0.00618962 0)
(-0.0524014 -0.00654088 0)
(-0.0450074 -0.0068003 0)
(-0.0374072 -0.00695954 0)
(-0.0296978 -0.00701244 0)
(-0.0219806 -0.00695553 0)
(-0.0143593 -0.0067883 0)
(-0.00693729 -0.00651348 0)
(0.000184274 -0.00613711 0)
(0.00690964 -0.00566849 0)
(0.0131508 -0.0051199 0)
(0.0188302 -0.00450619 0)
(0.0238826 -0.00384422 0)
(0.0282574 -0.00315215 0)
(0.0319199 -0.00244869 0)
(0.0348522 -0.00175228 0)
(0.0370533 -0.00108032 0)
(0.0385384 -0.000448746 0)
(0.0393392 0.000127211 0)
(0.0395042 0.000640138 0)
(0.0390905 0.00108406 0)
(0.0381643 0.00145354 0)
(0.0368002 0.00174673 0)
(0.0350763 0.00196532 0)
(0.0330713 0.00211352 0)
(0.0308614 0.00219747 0)
(0.0285185 0.0022247 0)
(0.0261078 0.00220362 0)
(0.0236866 0.00214298 0)
(0.0213033 0.00205144 0)
(0.018997 0.0019372 0)
(0.0167977 0.00180774 0)
(0.014727 0.00166963 0)
(0.0127987 0.00152851 0)
(0.0110196 0.00138899 0)
(0.00939106 0.00125473 0)
(0.00790982 0.00112838 0)
(0.00656935 0.00101155 0)
(0.00536121 0.000904644 0)
(0.0042766 0.000806708 0)
(0.00330806 0.00071517 0)
(0.00245132 0.00062574 0)
(0.00170702 0.000532572 0)
(0.00108178 0.000429117 0)
(0.000588014 0.000310186 0)
(0.000239773 0.000176389 0)
(4.76117e-05 4.21572e-05 0)
(-2.82318e-06 -3.37658e-05 0)
(3.18068e-05 -0.00011331 0)
(0.000317754 -0.000477843 0)
(0.000850227 -0.000869069 0)
(0.00161811 -0.00119625 0)
(0.00255354 -0.00142821 0)
(0.00359685 -0.0015554 0)
(0.00468237 -0.00158182 0)
(0.00574902 -0.00152014 0)
(0.00674498 -0.00138837 0)
(0.00763038 -0.00120719 0)
(0.00837835 -0.000997686 0)
(0.00897489 -0.000779358 0)
(0.0094174 -0.0005686 0)
(0.00971249 -0.00037764 0)
(0.00987316 -0.000214008 0)
(0.00991577 -8.04666e-05 0)
(0.00985699 2.46439e-05 0)
(0.00971124 0.000106649 0)
(0.00948845 0.000173648 0)
(0.00919244 0.00023538 0)
(0.00882031 0.000302061 0)
(0.00836232 0.000383236 0)
(0.00780259 0.000487245 0)
(0.00712022 0.000620509 0)
(0.0062906 0.000787397 0)
(0.00528666 0.000990472 0)
(0.00408001 0.00123093 0)
(0.00264181 0.0015091 0)
(0.000943353 0.00182487 0)
(-0.00104351 0.00217793 0)
(-0.00334594 0.0025678 0)
(-0.00598967 0.00299369 0)
(-0.0089983 0.0034542 0)
(-0.0123925 0.0039471 0)
(-0.0161891 0.00446903 0)
(-0.0203999 0.00501534 0)
(-0.0250306 0.00558 0)
(-0.0300798 0.00615556 0)
(-0.035538 0.00673324 0)
(-0.0413868 0.00730304 0)
(-0.0475989 0.00785394 0)
(-0.0541373 0.00837417 0)
(-0.0609559 0.00885155 0)
(-0.0679998 0.00927377 0)
(-0.0752066 0.00962883 0)
(-0.0825071 0.00990536 0)
(-0.089827 0.0100929 0)
(-0.0970884 0.0101825 0)
(-0.104211 0.0101662 0)
(-0.111115 0.0100383 0)
(-0.117722 0.0097943 0)
(-0.123953 0.00943184 0)
(-0.129736 0.00895012 0)
(-0.135003 0.00835008 0)
(-0.13969 0.0076342 0)
(-0.143739 0.00680647 0)
(-0.1471 0.00587228 0)
(-0.149727 0.0048383 0)
(-0.151583 0.00371252 0)
(-0.152636 0.0025042 0)
(-0.15286 0.00122343 0)
(-0.152239 -0.000118774 0)
(-0.150762 -0.00150792 0)
(-0.148428 -0.00292904 0)
(-0.145237 -0.00436776 0)
(-0.141203 -0.00580741 0)
(-0.136344 -0.00722955 0)
(-0.130687 -0.00861448 0)
(-0.124271 -0.00994154 0)
(-0.117138 -0.0111893 0)
(-0.109343 -0.012336 0)
(-0.100949 -0.0133597 0)
(-0.0920279 -0.0142396 0)
(-0.0826603 -0.0149556 0)
(-0.0729354 -0.0154899 0)
(-0.0629497 -0.0158276 0)
(-0.0528067 -0.0159572 0)
(-0.0426147 -0.0158713 0)
(-0.0324857 -0.0155677 0)
(-0.0225333 -0.0150494 0)
(-0.0128707 -0.0143251 0)
(-0.00360808 -0.013409 0)
(0.00514983 -0.012321 0)
(0.013306 -0.0110859 0)
(0.0207735 -0.00973253 0)
(0.027478 -0.00829321 0)
(0.0333595 -0.00680234 0)
(0.0383739 -0.00529525 0)
(0.0424943 -0.00380689 0)
(0.0457115 -0.00237031 0)
(0.0480361 -0.00101463 0)
(0.0494965 0.000233503 0)
(0.0501357 0.00135143 0)
(0.050013 0.0023236 0)
(0.0492023 0.00314047 0)
(0.0477879 0.003798 0)
(0.045861 0.00429778 0)
(0.043517 0.00464664 0)
(0.0408517 0.00485581 0)
(0.0379582 0.00493994 0)
(0.0349235 0.00491603 0)
(0.0318263 0.00480235 0)
(0.0287352 0.00461743 0)
(0.0257076 0.00437917 0)
(0.022789 0.00410422 0)
(0.0200139 0.00380744 0)
(0.0174058 0.00350165 0)
(0.014979 0.00319743 0)
(0.0127396 0.00290288 0)
(0.0106876 0.0026235 0)
(0.00881841 0.0023618 0)
(0.00712558 0.00211692 0)
(0.00560279 0.00188433 0)
(0.00424646 0.00165568 0)
(0.00305791 0.00141947 0)
(0.00204471 0.001163 0)
(0.00122051 0.000876552 0)
(0.000599274 0.000561344 0)
(0.00020271 0.000242348 0)
(1.68625e-05 1.14666e-05 0)
(4.95099e-05 -0.000292023 0)
(0.000458758 -0.000972419 0)
(0.00116702 -0.00163484 0)
(0.00215014 -0.00217757 0)
(0.00331514 -0.00255756 0)
(0.00459106 -0.00276046 0)
(0.00590105 -0.00279253 0)
(0.00717432 -0.00267425 0)
(0.00835085 -0.00243527 0)
(0.00938427 -0.00210994 0)
(0.0102428 -0.00173345 0)
(0.0109091 -0.00133849 0)
(0.0113784 -0.000952617 0)
(0.0116559 -0.000596441 0)
(0.0117538 -0.000282677 0)
(0.0116878 -1.59497e-05 0)
(0.0114733 0.000206686 0)
(0.0111226 0.000394589 0)
(0.0106426 0.000561853 0)
(0.0100326 0.000725477 0)
(0.00928378 0.000903346 0)
(0.00837925 0.00111237 0)
(0.00729489 0.00136707 0)
(0.00600074 0.00167868 0)
(0.00446263 0.00205491 0)
(0.00264382 0.00250026 0)
(0.000506424 0.00301671 0)
(-0.00198739 0.00360449 0)
(-0.00487444 0.0042627 0)
(-0.0081896 0.00498962 0)
(-0.0119649 0.00578266 0)
(-0.0162285 0.00663806 0)
(-0.0210032 0.00755047 0)
(-0.0263051 0.00851244 0)
(-0.0321423 0.00951416 0)
(-0.0385131 0.0105432 0)
(-0.0454049 0.0115846 0)
(-0.0527933 0.0126208 0)
(-0.0606413 0.0136325 0)
(-0.0688993 0.0145987 0)
(-0.077506 0.0154974 0)
(-0.0863888 0.0163064 0)
(-0.0954661 0.0170041 0)
(-0.104649 0.0175704 0)
(-0.113843 0.0179869 0)
(-0.122952 0.0182378 0)
(-0.131879 0.0183107 0)
(-0.140531 0.018196 0)
(-0.148816 0.0178877 0)
(-0.156652 0.0173832 0)
(-0.16396 0.0166828 0)
(-0.170671 0.0157898 0)
(-0.176723 0.0147099 0)
(-0.182063 0.0134509 0)
(-0.186644 0.0120226 0)
(-0.190428 0.010436 0)
(-0.193385 0.00870355 0)
(-0.195488 0.00683893 0)
(-0.19672 0.00485673 0)
(-0.197066 0.00277265 0)
(-0.196518 0.000603428 0)
(-0.195073 -0.00163339 0)
(-0.192731 -0.00391957 0)
(-0.189501 -0.00623307 0)
(-0.185391 -0.00855181 0)
(-0.18042 -0.0108523 0)
(-0.174607 -0.0131094 0)
(-0.167981 -0.0152962 0)
(-0.160575 -0.0173844 0)
(-0.152431 -0.0193444 0)
(-0.143598 -0.0211461 0)
(-0.134132 -0.022759 0)
(-0.124097 -0.0241534 0)
(-0.113567 -0.0253008 0)
(-0.102625 -0.0261753 0)
(-0.0913582 -0.0267544 0)
(-0.0798658 -0.0270201 0)
(-0.0682508 -0.0269602 0)
(-0.0566222 -0.0265687 0)
(-0.0450923 -0.0258471 0)
(-0.033775 -0.0248049 0)
(-0.0227835 -0.0234592 0)
(-0.0122285 -0.0218351 0)
(-0.00221513 -0.0199652 0)
(0.00715865 -0.0178885 0)
(0.0158045 -0.0156492 0)
(0.0236454 -0.0132958 0)
(0.0306177 -0.010879 0)
(0.0366722 -0.00845049 0)
(0.0417759 -0.00606091 0)
(0.0459124 -0.00375833 0)
(0.0490818 -0.00158789 0)
(0.0513018 0.000411119 0)
(0.0526086 0.00220708 0)
(0.0530543 0.00377575 0)
(0.0527057 0.00510092 0)
(0.0516434 0.00617502 0)
(0.0499585 0.00699918 0)
(0.0477492 0.00758256 0)
(0.0451177 0.00794142 0)
(0.0421663 0.00809778 0)
(0.0389934 0.00807782 0)
(0.0356906 0.00791025 0)
(0.0323398 0.00762462 0)
(0.0290117 0.00724989 0)
(0.0257642 0.00681324 0)
(0.0226428 0.00633911 0)
(0.0196808 0.00584849 0)
(0.0169002 0.00535834 0)
(0.014314 0.00488099 0)
(0.0119278 0.00442353 0)
(0.00974255 0.00398713 0)
(0.00775737 0.00356659 0)
(0.00597219 0.00315031 0)
(0.00439061 0.00272142 0)
(0.00302174 0.00226092 0)
(0.00188103 0.00175364 0)
(0.00098415 0.00119885 0)
(0.000371891 0.000625471 0)
(3.83501e-05 0.000137057 0)
(6.28424e-05 -0.00053158 0)
(0.00056924 -0.00160299 0)
(0.00141964 -0.00257607 0)
(0.00257432 -0.00335106 0)
(0.00391467 -0.00388051 0)
(0.00535738 -0.00414939 0)
(0.00681546 -0.00416869 0)
(0.00821061 -0.00396857 0)
(0.00947752 -0.00359187 0)
(0.0105662 -0.00308797 0)
(0.0114424 -0.00250724 0)
(0.0120873 -0.00189631 0)
(0.0124945 -0.00129436 0)
(0.0126681 -0.000730466 0)
(0.0126183 -0.000222279 0)
(0.0123579 0.000224308 0)
(0.0118988 0.000614366 0)
(0.0112483 0.000962321 0)
(0.0104069 0.00128953 0)
(0.00936644 0.00162145 0)
(0.00810961 0.00198471 0)
(0.00661017 0.00240434 0)
(0.00483432 0.00290163 0)
(0.00274239 0.00349286 0)
(0.000290928 0.00418896 0)
(-0.00256538 0.00499594 0)
(-0.00587184 0.00591577 0)
(-0.00967221 0.00694742 0)
(-0.0140071 0.00808753 0)
(-0.0189127 0.0093307 0)
(-0.0244186 0.0106693 0)
(-0.0305467 0.012093 0)
(-0.0373085 0.0135882 0)
(-0.0447038 0.0151374 0)
(-0.0527185 0.0167193 0)
(-0.0613238 0.0183084 0)
(-0.070475 0.019876 0)
(-0.0801119 0.0213905 0)
(-0.0901595 0.0228186 0)
(-0.10053 0.0241264 0)
(-0.111124 0.0252809 0)
(-0.121836 0.026251 0)
(-0.132555 0.027009 0)
(-0.14317 0.0275316 0)
(-0.153574 0.0278001 0)
(-0.163662 0.0278016 0)
(-0.17334 0.0275283 0)
(-0.182521 0.0269778 0)
(-0.191131 0.0261522 0)
(-0.199103 0.0250578 0)
(-0.206384 0.0237044 0)
(-0.212928 0.0221044 0)
(-0.218699 0.0202722 0)
(-0.223667 0.0182237 0)
(-0.227811 0.0159759 0)
(-0.231113 0.0135464 0)
(-0.233563 0.0109532 0)
(-0.23515 0.00821479 0)
(-0.23587 0.00535015 0)
(-0.23572 0.00237868 0)
(-0.234698 -0.000679281 0)
(-0.232806 -0.00380227 0)
(-0.230047 -0.00696862 0)
(-0.226426 -0.0101542 0)
(-0.22195 -0.0133328 0)
(-0.216631 -0.0164767 0)
(-0.210484 -0.0195558 0)
(-0.203526 -0.0225379 0)
(-0.195782 -0.0253887 0)
(-0.187283 -0.028072 0)
(-0.178064 -0.0305501 0)
(-0.168172 -0.0327847 0)
(-0.157658 -0.0347375 0)
(-0.146586 -0.0363715 0)
(-0.135026 -0.0376518 0)
(-0.123059 -0.0385477 0)
(-0.110774 -0.0390335 0)
(-0.0982703 -0.0390901 0)
(-0.0856517 -0.0387064 0)
(-0.0730286 -0.0378803 0)
(-0.0605149 -0.0366197 0)
(-0.0482256 -0.0349424 0)
(-0.0362749 -0.0328765 0)
(-0.0247735 -0.0304599 0)
(-0.0138262 -0.0277389 0)
(-0.00353005 -0.0247673 0)
(0.00602777 -0.0216046 0)
(0.0147713 -0.0183144 0)
(0.0226372 -0.0149621 0)
(0.0295753 -0.0116136 0)
(0.0355499 -0.00833304 0)
(0.0405396 -0.00518133 0)
(0.0445386 -0.00221349 0)
(0.0475571 0.000521386 0)
(0.0496209 0.00298211 0)
(0.0507718 0.00513694 0)
(0.0510673 0.00696442 0)
(0.0505791 0.00845391 0)
(0.0493913 0.00960577 0)
(0.0475982 0.0104309 0)
(0.0453004 0.0109499 0)
(0.0426016 0.0111912 0)
(0.0396045 0.0111894 0)
(0.036407 0.0109829 0)
(0.0330989 0.0106117 0)
(0.0297595 0.0101156 0)
(0.0264562 0.00953178 0)
(0.0232431 0.00889383 0)
(0.0201621 0.00823011 0)
(0.0172433 0.00756262 0)
(0.0145069 0.00690584 0)
(0.011966 0.00626563 0)
(0.00962892 0.00563853 0)
(0.00750243 0.00501171 0)
(0.00559507 0.00436445 0)
(0.00391978 0.00367191 0)
(0.00249629 0.00291214 0)
(0.00134526 0.00207762 0)
(0.000530573 0.00119065 0)
(5.8156e-05 0.000344309 0)
(7.27451e-05 -0.000817803 0)
(0.000654042 -0.00234237 0)
(0.00161573 -0.00365971 0)
(0.00290231 -0.00467742 0)
(0.00437044 -0.00534976 0)
(0.00592336 -0.00566588 0)
(0.00746378 -0.0056452 0)
(0.00890688 -0.00533042 0)
(0.0101836 -0.00477976 0)
(0.0112424 -0.00405914 0)
(0.0120486 -0.00323499 0)
(0.0125831 -0.00236817 0)
(0.0128394 -0.00150918 0)
(0.0128202 -0.000694878 0)
(0.0125332 5.32387e-05 0)
(0.011987 0.000729302 0)
(0.0111877 0.00134199 0)
(0.010135 0.00191222 0)
(0.00882023 0.00246992 0)
(0.00722516 0.00305009 0)
(0.00532149 0.00368874 0)
(0.00307205 0.00441925 0)
(0.000432512 0.00526942 0)
(-0.00264623 0.0062599 0)
(-0.00621556 0.00740372 0)
(-0.0103267 0.00870684 0)
(-0.0150285 0.0101693 0)
(-0.0203651 0.0117863 0)
(-0.0263742 0.0135489 0)
(-0.0330841 0.0154441 0)
(-0.0405119 0.0174547 0)
(-0.048661 0.0195583 0)
(-0.0575185 0.0217275 0)
(-0.0670538 0.023929 0)
(-0.0772174 0.0261244 0)
(-0.0879412 0.0282712 0)
(-0.0991392 0.0303235 0)
(-0.11071 0.0322345 0)
(-0.122541 0.0339579 0)
(-0.13451 0.0354502 0)
(-0.146493 0.0366726 0)
(-0.158366 0.0375923 0)
(-0.170012 0.0381838 0)
(-0.181321 0.0384293 0)
(-0.192195 0.038319 0)
(-0.202549 0.0378503 0)
(-0.212312 0.0370271 0)
(-0.221425 0.0358589 0)
(-0.229841 0.0343596 0)
(-0.237524 0.0325464 0)
(-0.244449 0.0304387 0)
(-0.250596 0.0280572 0)
(-0.255951 0.0254232 0)
(-0.260507 0.0225583 0)
(-0.264258 0.0194837 0)
(-0.267199 0.0162201 0)
(-0.269329 0.0127881 0)
(-0.270646 0.00920775 0)
(-0.271147 0.00549911 0)
(-0.270832 0.00168255 0)
(-0.269697 -0.002221 0)
(-0.267742 -0.00618969 0)
(-0.264963 -0.0101997 0)
(-0.26136 -0.0142258 0)
(-0.256932 -0.01824 0)
(-0.251681 -0.022212 0)
(-0.245611 -0.0261082 0)
(-0.238729 -0.029892 0)
(-0.231047 -0.0335238 0)
(-0.222582 -0.0369612 0)
(-0.213359 -0.0401593 0)
(-0.203407 -0.0430716 0)
(-0.192768 -0.0456508 0)
(-0.181491 -0.0478501 0)
(-0.169636 -0.0496249 0)
(-0.157275 -0.0509344 0)
(-0.144488 -0.0517433 0)
(-0.131368 -0.0520237 0)
(-0.118016 -0.0517572 0)
(-0.104542 -0.050936 0)
(-0.0910611 -0.0495643 0)
(-0.0776927 -0.047659 0)
(-0.0645565 -0.0452496 0)
(-0.0517704 -0.0423781 0)
(-0.0394474 -0.0390972 0)
(-0.0276933 -0.0354693 0)
(-0.0166041 -0.0315643 0)
(-0.00626485 -0.0274571 0)
(0.00325168 -0.023226 0)
(0.0118854 -0.0189496 0)
(0.0195894 -0.0147055 0)
(0.0263295 -0.0105682 0)
(0.0320845 -0.00660747 0)
(0.0368466 -0.00288684 0)
(0.040621 0.000537625 0)
(0.0434272 0.00361898 0)
(0.0452985 0.00632064 0)
(0.0462832 0.00861752 0)
(0.0464433 0.010497 0)
(0.0458544 0.0119591 0)
(0.0446033 0.0130167 0)
(0.0427854 0.013694 0)
(0.0405013 0.0140254 0)
(0.0378531 0.0140529 0)
(0.0349404 0.0138236 0)
(0.0318566 0.013387 0)
(0.0286859 0.0127921 0)
(0.0255015 0.012085 0)
(0.0223644 0.0113068 0)
(0.0193233 0.010491 0)
(0.0164155 0.0096617 0)
(0.0136687 0.00883219 0)
(0.0111037 0.00800331 0)
(0.00873743 0.00716337 0)
(0.00658625 0.00628944 0)
(0.0046699 0.00535136 0)
(0.00301529 0.00431879 0)
(0.00165103 0.00317252 0)
(0.000664545 0.00191878 0)
(7.47281e-05 0.000623706 0)
(8.04449e-05 -0.00113981 0)
(0.000720088 -0.00316614 0)
(0.00176709 -0.00485241 0)
(0.00315027 -0.00611535 0)
(0.00470286 -0.00691561 0)
(0.00631399 -0.00725137 0)
(0.00787614 -0.00715492 0)
(0.00929853 -0.00668516 0)
(0.0105097 -0.00591839 0)
(0.0114579 -0.00493877 0)
(0.0121097 -0.00382956 0)
(0.0124472 -0.00266564 0)
(0.0124644 -0.00150792 0)
(0.0121626 -0.000399518 0)
(0.0115464 0.000636058 0)
(0.0106189 0.001595 0)
(0.00937804 0.00249156 0)
(0.0078137 0.00335494 0)
(0.00590576 0.00422494 0)
(0.00362346 0.00514682 0)
(0.000926092 0.00616609 0)
(-0.00223516 0.00732373 0)
(-0.00591457 0.00865275 0)
(-0.0101688 0.0101762 0)
(-0.0150538 0.0119066 0)
(-0.0206219 0.0138471 0)
(-0.0269186 0.0159921 0)
(-0.0339805 0.018329 0)
(-0.0418316 0.0208382 0)
(-0.0504812 0.0234936 0)
(-0.0599206 0.0262622 0)
(-0.0701208 0.0291035 0)
(-0.0810314 0.0319702 0)
(-0.0925799 0.0348085 0)
(-0.104673 0.0375602 0)
(-0.117199 0.0401642 0)
(-0.130032 0.0425599 0)
(-0.143038 0.0446895 0)
(-0.156079 0.0465011 0)
(-0.169021 0.0479504 0)
(-0.181736 0.0490031 0)
(-0.194108 0.0496352 0)
(-0.206037 0.0498329 0)
(-0.217438 0.0495927 0)
(-0.228243 0.0489193 0)
(-0.238398 0.047825 0)
(-0.247864 0.0463275 0)
(-0.256613 0.0444484 0)
(-0.264628 0.042212 0)
(-0.271898 0.0396438 0)
(-0.278418 0.0367697 0)
(-0.284185 0.033615 0)
(-0.289201 0.0302043 0)
(-0.293466 0.026561 0)
(-0.296982 0.0227071 0)
(-0.299749 0.0186636 0)
(-0.301767 0.0144507 0)
(-0.303035 0.0100876 0)
(-0.303549 0.00559358 0)
(-0.303306 0.000988121 0)
(-0.302299 -0.00370864 0)
(-0.300521 -0.00847532 0)
(-0.297966 -0.0132885 0)
(-0.294625 -0.0181224 0)
(-0.29049 -0.0229484 0)
(-0.285553 -0.0277343 0)
(-0.279809 -0.0324443 0)
(-0.273254 -0.0370385 0)
(-0.265888 -0.0414727 0)
(-0.257713 -0.0456989 0)
(-0.24874 -0.0496654 0)
(-0.238986 -0.0533177 0)
(-0.228475 -0.0565991 0)
(-0.217242 -0.0594527 0)
(-0.205333 -0.0618226 0)
(-0.192807 -0.0636562 0)
(-0.179734 -0.0649065 0)
(-0.166198 -0.0655344 0)
(-0.152296 -0.065511 0)
(-0.138136 -0.0648198 0)
(-0.123836 -0.0634587 0)
(-0.109519 -0.0614408 0)
(-0.0953143 -0.0587951 0)
(-0.0813514 -0.0555661 0)
(-0.0677558 -0.0518122 0)
(-0.0546463 -0.0476045 0)
(-0.0421322 -0.0430234 0)
(-0.0303104 -0.0381562 0)
(-0.019264 -0.0330942 0)
(-0.00906183 -0.0279294 0)
(0.000241591 -0.0227525 0)
(0.00860521 -0.0176506 0)
(0.0160006 -0.0127058 0)
(0.0224109 -0.00799368 0)
(0.0278306 -0.00358241 0)
(0.0322649 0.00046843 0)
(0.0357305 0.00410902 0)
(0.038256 0.00730062 0)
(0.0398827 0.0100168 0)
(0.0406649 0.0122445 0)
(0.0406701 0.0139848 0)
(0.0399773 0.0152527 0)
(0.0386752 0.0160764 0)
(0.0368594 0.0164956 0)
(0.0346288 0.0165588 0)
(0.0320813 0.0163207 0)
(0.0293108 0.0158388 0)
(0.0264035 0.0151695 0)
(0.023436 0.0143657 0)
(0.0204735 0.0134726 0)
(0.01757 0.0125256 0)
(0.0147692 0.011547 0)
(0.0121058 0.0105441 0)
(0.00960899 0.00950855 0)
(0.00730587 0.00841687 0)
(0.00522557 0.00723407 0)
(0.00340462 0.00592018 0)
(0.00188163 0.00444041 0)
(0.000765415 0.00277786 0)
(8.71028e-05 0.000960682 0)
(8.68312e-05 -0.00149037 0)
(0.000772999 -0.00405525 0)
(0.00188354 -0.00612533 0)
(0.00333131 -0.00762711 0)
(0.00492713 -0.00853145 0)
(0.0065461 -0.00885047 0)
(0.00807092 -0.00863416 0)
(0.00940582 -0.00796177 0)
(0.0104782 -0.0069308 0)
(0.0112376 -0.0056455 0)
(0.0116531 -0.00420646 0)
(0.0117091 -0.00270199 0)
(0.0114001 -0.00120184 0)
(0.0107261 0.000246814 0)
(0.0096873 0.00162103 0)
(0.00827959 0.00292169 0)
(0.00649104 0.00417101 0)
(0.00429943 0.00540834 0)
(0.00167118 0.00668444 0)
(-0.00143816 0.00805497 0)
(-0.00508203 0.00957397 0)
(-0.00931982 0.0112882 0)
(-0.0142132 0.0132329 0)
(-0.019822 0.01543 0)
(-0.026201 0.0178877 0)
(-0.0333954 0.0206012 0)
(-0.0414385 0.0235543 0)
(-0.0503474 0.0267203 0)
(-0.0601205 0.0300627 0)
(-0.0707342 0.0335357 0)
(-0.0821411 0.037084 0)
(-0.0942686 0.0406437 0)
(-0.10702 0.0441443 0)
(-0.120277 0.0475106 0)
(-0.133905 0.0506665 0)
(-0.147758 0.0535382 0)
(-0.161686 0.0560585 0)
(-0.175542 0.0581693 0)
(-0.189187 0.0598244 0)
(-0.202499 0.0609911 0)
(-0.215372 0.0616496 0)
(-0.227718 0.0617931 0)
(-0.239469 0.0614259 0)
(-0.250575 0.0605615 0)
(-0.261002 0.0592206 0)
(-0.270727 0.0574287 0)
(-0.279739 0.0552146 0)
(-0.288032 0.0526084 0)
(-0.295609 0.0496406 0)
(-0.302472 0.0463409 0)
(-0.308627 0.0427375 0)
(-0.31408 0.038857 0)
(-0.318837 0.0347241 0)
(-0.322902 0.0303615 0)
(-0.32628 0.0257903 0)
(-0.328971 0.0210301 0)
(-0.330976 0.0160992 0)
(-0.332293 0.0110155 0)
(-0.332918 0.00579621 0)
(-0.332847 0.000459324 0)
(-0.332071 -0.0049765 0)
(-0.330582 -0.0104912 0)
(-0.328368 -0.0160626 0)
(-0.325417 -0.0216657 0)
(-0.321716 -0.027272 0)
(-0.31725 -0.0328492 0)
(-0.312005 -0.0383603 0)
(-0.305966 -0.0437635 0)
(-0.29912 -0.0490117 0)
(-0.291459 -0.0540527 0)
(-0.282975 -0.0588289 0)
(-0.273668 -0.0632787 0)
(-0.263545 -0.0673366 0)
(-0.252622 -0.0709351 0)
(-0.240926 -0.0740065 0)
(-0.228498 -0.0764849 0)
(-0.215391 -0.0783093 0)
(-0.201677 -0.0794261 0)
(-0.18744 -0.0797924 0)
(-0.172784 -0.079379 0)
(-0.157825 -0.0781729 0)
(-0.142691 -0.0761794 0)
(-0.127521 -0.073423 0)
(-0.112458 -0.0699478 0)
(-0.0976443 -0.0658163 0)
(-0.0832197 -0.0611073 0)
(-0.0693138 -0.0559127 0)
(-0.0560433 -0.0503338 0)
(-0.043509 -0.0444771 0)
(-0.0317941 -0.0384508 0)
(-0.0209638 -0.032361 0)
(-0.0110664 -0.0263089 0)
(-0.00213468 -0.0203895 0)
(0.00581145 -0.0146895 0)
(0.0127633 -0.00928736 0)
(0.0187218 -0.00425252 0)
(0.0236963 0.000355205 0)
(0.0277052 0.00448635 0)
(0.0307761 0.00810289 0)
(0.032947 0.0111795 0)
(0.0342674 0.0137048 0)
(0.0347984 0.0156822 0)
(0.0346124 0.0171298 0)
(0.033792 0.0180802 0)
(0.0324271 0.018578 0)
(0.0306121 0.0186778 0)
(0.0284419 0.0184405 0)
(0.0260088 0.0179296 0)
(0.0233988 0.0172066 0)
(0.0206898 0.0163276 0)
(0.0179498 0.0153385 0)
(0.015237 0.0142714 0)
(0.0126004 0.0131414 0)
(0.0100825 0.0119449 0)
(0.00772256 0.0106592 0)
(0.00556112 0.00924509 0)
(0.00364583 0.00765229 0)
(0.00202627 0.00582815 0)
(0.00082875 0.00372856 0)
(9.47932e-05 0.00133776 0)
(9.24268e-05 -0.0018647 0)
(0.000816081 -0.00499446 0)
(0.00197069 -0.00745262 0)
(0.0034523 -0.00917662 0)
(0.00505018 -0.0101514 0)
(0.00662597 -0.0104082 0)
(0.00805376 -0.0100197 0)
(0.00923422 -0.00909025 0)
(0.0100952 -0.00774164 0)
(0.010589 -0.00609997 0)
(0.0106884 -0.00428332 0)
(0.0103801 -0.00239227 0)
(0.0096596 -0.000503176 0)
(0.00852433 0.0013356 0)
(0.00696876 0.00310488 0)
(0.00497978 0.00481325 0)
(0.00253356 0.00649342 0)
(-0.000405916 0.00819648 0)
(-0.00388664 0.00998458 0)
(-0.00796658 0.0119228 0)
(-0.0127103 0.0140715 0)
(-0.0181843 0.0164795 0)
(-0.0244523 0.0191798 0)
(-0.0315707 0.0221881 0)
(-0.0395837 0.0255018 0)
(-0.0485193 0.0291022 0)
(-0.0583861 0.0329553 0)
(-0.0691695 0.0370134 0)
(-0.0808291 0.0412164 0)
(-0.0932971 0.0454923 0)
(-0.106478 0.0497597 0)
(-0.120252 0.05393 0)
(-0.134478 0.0579111 0)
(-0.149001 0.0616122 0)
(-0.163658 0.0649483 0)
(-0.17829 0.0678444 0)
(-0.192747 0.0702395 0)
(-0.206894 0.0720881 0)
(-0.220616 0.0733614 0)
(-0.233819 0.0740463 0)
(-0.246433 0.074144 0)
(-0.258406 0.0736674 0)
(-0.269703 0.0726385 0)
(-0.280306 0.0710859 0)
(-0.290205 0.069042 0)
(-0.299399 0.0665415 0)
(-0.307894 0.0636194 0)
(-0.315697 0.0603101 0)
(-0.322818 0.0566461 0)
(-0.329267 0.0526584 0)
(-0.335054 0.0483751 0)
(-0.34019 0.0438223 0)
(-0.344683 0.0390235 0)
(-0.34854 0.0340003 0)
(-0.351767 0.028772 0)
(-0.354369 0.0233565 0)
(-0.356349 0.0177705 0)
(-0.357706 0.0120296 0)
(-0.35844 0.0061493 0)
(-0.358547 0.00014533 0)
(-0.358021 -0.00596575 0)
(-0.356852 -0.0121662 0)
(-0.35503 -0.0184359 0)
(-0.35254 -0.0247518 0)
(-0.349365 -0.0310874 0)
(-0.345485 -0.0374117 0)
(-0.340879 -0.0436886 0)
(-0.335524 -0.0498764 0)
(-0.329396 -0.0559272 0)
(-0.32247 -0.0617866 0)
(-0.314724 -0.0673935 0)
(-0.306138 -0.0726807 0)
(-0.296699 -0.0775754 0)
(-0.286399 -0.0820005 0)
(-0.275242 -0.0858765 0)
(-0.263244 -0.0891236 0)
(-0.250435 -0.0916648 0)
(-0.236863 -0.0934293 0)
(-0.222596 -0.0943563 0)
(-0.207722 -0.0943986 0)
(-0.192349 -0.0935267 0)
(-0.176602 -0.0917316 0)
(-0.160626 -0.0890276 0)
(-0.144577 -0.0854526 0)
(-0.128616 -0.0810687 0)
(-0.112909 -0.0759595 0)
(-0.0976122 -0.0702275 0)
(-0.0828735 -0.0639886 0)
(-0.0688225 -0.0573679 0)
(-0.055568 -0.0504934 0)
(-0.043196 -0.0434913 0)
(-0.0317698 -0.0364821 0)
(-0.0213314 -0.0295769 0)
(-0.0119044 -0.0228766 0)
(-0.00349768 -0.0164707 0)
(0.0038912 -0.0104374 0)
(0.0102732 -0.00484431 0)
(0.015666 0.000251635 0)
(0.0200935 0.00480437 0)
(0.0235864 0.00877943 0)
(0.026183 0.0121551 0)
(0.0279309 0.0149239 0)
(0.0288878 0.017093 0)
(0.0291216 0.018685 0)
(0.0287096 0.0197373 0)
(0.0277369 0.0202995 0)
(0.0262933 0.0204314 0)
(0.02447 0.0201986 0)
(0.0223568 0.0196682 0)
(0.0200386 0.0189038 0)
(0.0175933 0.0179603 0)
(0.0150909 0.0168787 0)
(0.0125933 0.0156822 0)
(0.010156 0.0143723 0)
(0.00783081 0.0129279 0)
(0.00567035 0.0113061 0)
(0.00373393 0.00944657 0)
(0.00208201 0.00727809 0)
(0.000853451 0.00472821 0)
(9.77044e-05 0.00173618 0)
(9.74034e-05 -0.0022592 0)
(0.000850241 -0.00597011 0)
(0.00202946 -0.00880921 0)
(0.00351319 -0.0107275 0)
(0.00507002 -0.0117285 0)
(0.00654935 -0.011868 0)
(0.00781846 -0.0112475 0)
(0.00877649 -0.0100005 0)
(0.00935352 -0.00827644 0)
(0.00950624 -0.00622455 0)
(0.00921144 -0.00397998 0)
(0.00845875 -0.00165365 0)
(0.00724326 0.000674347 0)
(0.00555878 0.00295802 0)
(0.00339219 0.00518547 0)
(0.000719405 0.00737616 0)
(-0.00249687 0.00957549 0)
(-0.00630722 0.0118472 0)
(-0.0107736 0.0142639 0)
(-0.0159652 0.0168978 0)
(-0.0219536 0.0198111 0)
(-0.0288064 0.0230494 0)
(-0.0365814 0.0266371 0)
(-0.0453212 0.0305762 0)
(-0.0550485 0.0348463 0)
(-0.0657619 0.0394067 0)
(-0.0774328 0.0441983 0)
(-0.090003 0.0491459 0)
(-0.103384 0.0541601 0)
(-0.117458 0.0591408 0)
(-0.132083 0.0639813 0)
(-0.147097 0.0685729 0)
(-0.162329 0.0728111 0)
(-0.177605 0.0766014 0)
(-0.192761 0.0798635 0)
(-0.207647 0.0825353 0)
(-0.222135 0.0845743 0)
(-0.23612 0.0859571 0)
(-0.249524 0.0866783 0)
(-0.262287 0.0867472 0)
(-0.274374 0.086185 0)
(-0.285763 0.0850214 0)
(-0.296444 0.0832919 0)
(-0.306419 0.0810349 0)
(-0.315692 0.0782898 0)
(-0.324275 0.075096 0)
(-0.33218 0.0714911 0)
(-0.339422 0.0675108 0)
(-0.346015 0.0631885 0)
(-0.351974 0.0585547 0)
(-0.357313 0.0536373 0)
(-0.362047 0.0484614 0)
(-0.366188 0.0430496 0)
(-0.369748 0.0374222 0)
(-0.37274 0.0315971 0)
(-0.375171 0.0255907 0)
(-0.37705 0.0194176 0)
(-0.378383 0.0130914 0)
(-0.379171 0.0066252 0)