/*--------------------------------*- C++ -*----------------------------------*\
| =========                 |                                                 |
| \\      /  F ield         | OpenFOAM: The Open Source CFD Toolbox           |
|  \\    /   O peration     | Version:  2406                                  |
|   \\  /    A nd           | Website:  www.openfoam.com                      |
|    \\/     M anipulation  |                                                 |
\*---------------------------------------------------------------------------*/
FoamFile
{
    version     2.0;
    format      ascii;
    arch        "LSB;label=32;scalar=64";
    class       volVectorField;
    location    "19.95";
    object      U;
}
// * * * * * * * * * * * * * * * * * * * * * * * * * * * * * * * * * * * * * //

dimensions      [0 1 -1 0 0 0 0];

internalField   nonuniform List<vector> 
3600
(
(4.05152e-05 -3.80331e-05 0)
(0.000200687 -7.36213e-05 0)
(0.000405833 -7.41475e-05 0)
(0.000561788 -5.89303e-05 0)
(0.00068532 -4.59614e-05 0)
(0.000760322 -3.43869e-05 0)
(0.000808433 -2.73313e-05 0)
(0.000823574 -1.90199e-05 0)
(0.000808438 -1.07989e-05 0)
(0.000754572 1.06632e-06 0)
(0.000653533 1.45537e-05 0)
(0.000497943 3.15282e-05 0)
(0.000276833 5.00019e-05 0)
(-1.42891e-05 7.11705e-05 0)
(-0.000385826 9.37472e-05 0)
(-0.00084061 0.00011887 0)
(-0.00138831 0.000145834 0)
(-0.0020307 0.000175371 0)
(-0.00277448 0.000206418 0)
(-0.00361626 0.000238396 0)
(-0.00455269 0.000268939 0)
(-0.00556661 0.000295684 0)
(-0.00663544 0.00031481 0)
(-0.00772015 0.000322542 0)
(-0.00877345 0.000314275 0)
(-0.00973273 0.000285987 0)
(-0.0105297 0.000233896 0)
(-0.0110876 0.000155926 0)
(-0.0113337 5.17262e-05 0)
(-0.0111997 -7.60213e-05 0)
(-0.0106355 -0.000221757 0)
(-0.00961106 -0.000376442 0)
(-0.00812832 -0.000528502 0)
(-0.00621988 -0.000664351 0)
(-0.00395654 -0.000770258 0)
(-0.00143855 -0.000833811 0)
(0.00120299 -0.000846104 0)
(0.0038243 -0.000803234 0)
(0.00627249 -0.000707519 0)
(0.00841122 -0.000567706 0)
(0.010123 -0.000397845 0)
(0.0113358 -0.000215559 0)
(0.012014 -3.86495e-05 0)
(0.0121784 0.000117068 0)
(0.0118791 0.00024109 0)
(0.011209 0.000327965 0)
(0.010261 0.000378603 0)
(0.00914742 0.000396949 0)
(0.00794977 0.00039061 0)
(0.00675598 0.0003663 0)
(0.00560625 0.000332289 0)
(0.00455181 0.000293283 0)
(0.00359063 0.000255904 0)
(0.00274695 0.00022097 0)
(0.00199219 0.000192895 0)
(0.00134433 0.000165072 0)
(0.000780404 0.000137641 0)
(0.000342677 9.08872e-05 0)
(5.6689e-05 3.21244e-05 0)
(-3.84432e-05 -3.89779e-05 0)
(8.11081e-05 -0.000204151 0)
(0.000328558 -0.000323711 0)
(0.000602675 -0.000301578 0)
(0.00077243 -0.000213889 0)
(0.000859631 -0.000133803 0)
(0.000845334 -5.70842e-05 0)
(0.000756649 3.13617e-06 0)
(0.00058577 7.05584e-05 0)
(0.000329194 0.000142246 0)
(-3.07585e-05 0.000234153 0)
(-0.000517863 0.000340587 0)
(-0.00115289 0.000468761 0)
(-0.00196467 0.000611713 0)
(-0.00297044 0.00077259 0)
(-0.004196 0.000945778 0)
(-0.00565264 0.00113292 0)
(-0.00735874 0.00132898 0)
(-0.00931544 0.00153217 0)
(-0.0115247 0.00173354 0)
(-0.0139647 0.0019236 0)
(-0.0166044 0.00208569 0)
(-0.0193818 0.00220161 0)
(-0.022218 0.00224849 0)
(-0.0250026 0.0022044 0)
(-0.0276108 0.00204753 0)
(-0.0298968 0.00176171 0)
(-0.0317142 0.00133682 0)
(-0.0329159 0.00077349 0)
(-0.0333745 8.30827e-05 0)
(-0.0329843 -0.000709549 0)
(-0.0316787 -0.00156806 0)
(-0.0294301 -0.00244453 0)
(-0.0262625 -0.00328392 0)
(-0.0222465 -0.0040265 0)
(-0.0175076 -0.00461438 0)
(-0.0122134 -0.00499566 0)
(-0.00657766 -0.00513176 0)
(-0.000837477 -0.00500159 0)
(0.00474728 -0.00460705 0)
(0.00992697 -0.00397413 0)
(0.0144642 -0.00315254 0)
(0.0181743 -0.00221075 0)
(0.0209185 -0.00122767 0)
(0.0226442 -0.000282935 0)
(0.0233569 0.000555257 0)
(0.0231515 0.00123682 0)
(0.0221569 0.00173721 0)
(0.0205627 0.00205366 0)
(0.0185414 0.00220531 0)
(0.01629 0.00222075 0)
(0.013941 0.0021383 0)
(0.0116375 0.0019905 0)
(0.0094336 0.00181298 0)
(0.00740944 0.00162291 0)
(0.00555422 0.00144111 0)
(0.00392074 0.00125154 0)
(0.00248606 0.00105223 0)
(0.00133363 0.000781215 0)
(0.000484086 0.000457977 0)
(4.21368e-05 6.24331e-05 0)
(8.04507e-05 -0.000411386 0)
(0.000275545 -0.000584112 0)
(0.000431709 -0.000489977 0)
(0.000431886 -0.00027465 0)
(0.00030273 -7.89453e-05 0)
(3.80194e-05 0.000108302 0)
(-0.000340007 0.000265738 0)
(-0.000838596 0.000441471 0)
(-0.0014754 0.00063543 0)
(-0.00227726 0.000880235 0)
(-0.0032876 0.00116902 0)
(-0.00454157 0.00151553 0)
(-0.00608862 0.00190772 0)
(-0.0079605 0.00234914 0)
(-0.0101997 0.00282735 0)
(-0.0128263 0.00334024 0)
(-0.0158654 0.0038727 0)
(-0.0193135 0.00441198 0)
(-0.0231603 0.00493068 0)
(-0.0273573 0.00539721 0)
(-0.0318363 0.00576652 0)
(-0.0364849 0.00599073 0)
(-0.0411677 0.00601679 0)
(-0.0457131 0.0057978 0)
(-0.0499384 0.00529396 0)
(-0.0536461 0.00448229 0)
(-0.0566492 0.00335718 0)
(-0.0587698 0.0019364 0)
(-0.0598609 0.000258862 0)
(-0.0598035 -0.00161336 0)
(-0.0585227 -0.00360017 0)
(-0.0559836 -0.00560446 0)
(-0.0522043 -0.0075195 0)
(-0.0472488 -0.00923236 0)
(-0.0412389 -0.0106336 0)
(-0.0343429 -0.0116231 0)
(-0.0267847 -0.0121215 0)
(-0.0188243 -0.0120773 0)
(-0.0107616 -0.0114771 0)
(-0.00290529 -0.0103497 0)
(0.00442783 -0.00876902 0)
(0.010957 -0.00684889 0)
(0.0164352 -0.00473366 0)
(0.0206993 -0.00258194 0)
(0.0236511 -0.000547354 0)
(0.0253033 0.0012394 0)
(0.0257299 0.00268739 0)
(0.0251045 0.00375037 0)
(0.0236166 0.00443024 0)
(0.0215153 0.00476369 0)
(0.019001 0.00481688 0)
(0.0162992 0.00466143 0)
(0.0135368 0.00437585 0)
(0.0108677 0.00401343 0)
(0.00832776 0.00362212 0)
(0.00602278 0.00319076 0)
(0.00394496 0.00271118 0)
(0.00222697 0.0020897 0)
(0.000883153 0.0013309 0)
(0.000122733 0.000389396 0)
(5.65521e-05 -0.000545333 0)
(0.000107918 -0.000671732 0)
(1.64881e-05 -0.000437264 0)
(-0.000280512 -5.07573e-05 0)
(-0.000750163 0.000290886 0)
(-0.00137641 0.000615974 0)
(-0.00215069 0.000902975 0)
(-0.00308105 0.00122939 0)
(-0.00420839 0.00160179 0)
(-0.00557178 0.00207176 0)
(-0.00724128 0.00263294 0)
(-0.00926935 0.00330605 0)
(-0.0117312 0.00407346 0)
(-0.0146751 0.00493708 0)
(-0.0181629 0.00587416 0)
(-0.0222234 0.00687314 0)
(-0.0268862 0.007901 0)
(-0.0321383 0.00892373 0)
(-0.03795 0.00988377 0)
(-0.0442378 0.0107158 0)
(-0.0508896 0.0113368 0)
(-0.0577408 0.0116638 0)
(-0.0646037 0.0116134 0)
(-0.0712569 0.0111188 0)
(-0.0774765 0.0101311 0)
(-0.0830302 0.00863081 0)
(-0.0877042 0.00662576 0)
(-0.0912969 0.00415635 0)
(-0.0936396 0.00129037 0)
(-0.0945895 -0.00187551 0)
(-0.094046 -0.00522257 0)
(-0.0919444 -0.00861048 0)
(-0.0882709 -0.0118858 0)
(-0.0830566 -0.0148847 0)
(-0.0763929 -0.0174446 0)
(-0.0684235 -0.0194106 0)
(-0.0593586 -0.020651 0)
(-0.04946 -0.0210669 0)
(-0.03905 -0.0206091 0)
(-0.0284824 -0.0192852 0)
(-0.0181437 -0.0171701 0)
(-0.00840639 -0.0144019 0)
(0.000373754 -0.0111748 0)
(0.00791515 -0.00771919 0)
(0.0140002 -0.00427688 0)
(0.0185316 -0.00107322 0)
(0.02149 0.00170948 0)
(0.0229831 0.00394864 0)
(0.0231638 0.00559213 0)
(0.0222815 0.00665105 0)
(0.0205644 0.00719258 0)
(0.0182958 0.0073129 0)
(0.0156682 0.00712798 0)
(0.0129146 0.00673403 0)
(0.0101328 0.00621412 0)
(0.00749833 0.00558017 0)
(0.00503425 0.00482326 0)
(0.00293173 0.0038337 0)
(0.00121129 0.00256763 0)
(0.000189893 0.000921169 0)
(2.13281e-05 -0.000592118 0)
(-0.00012624 -0.00054284 0)
(-0.000546601 -8.44654e-05 0)
(-0.00122297 0.00052065 0)
(-0.00211642 0.00103912 0)
(-0.00318164 0.00152975 0)
(-0.00443195 0.00198308 0)
(-0.0058783 0.00251278 0)
(-0.0075955 0.00313787 0)
(-0.00964016 0.00393149 0)
(-0.0121186 0.00488992 0)
(-0.0151054 0.00604034 0)
(-0.0187082 0.00735836 0)
(-0.0229942 0.00884051 0)
(-0.0280473 0.0104485 0)
(-0.0339027 0.0121527 0)
(-0.0405917 0.0138913 0)
(-0.0480834 0.015595 0)
(-0.0563202 0.0171621 0)
(-0.0651736 0.0184806 0)
(-0.0744804 0.0194211 0)
(-0.0840183 0.0198622 0)
(-0.0935454 0.0196922 0)
(-0.102788 0.0188295 0)
(-0.111478 0.0172222 0)
(-0.119342 0.0148591 0)
(-0.126133 0.0117645 0)
(-0.131619 0.00800314 0)
(-0.135608 0.00367225 0)
(-0.13793 -0.00109669 0)
(-0.138461 -0.00614622 0)
(-0.137109 -0.0112925 0)
(-0.133829 -0.0163342 0)
(-0.128617 -0.0210543 0)
(-0.121525 -0.0252321 0)
(-0.11266 -0.0286493 0)
(-0.102203 -0.0311086 0)
(-0.0903972 -0.0324452 0)
(-0.0775706 -0.0325511 0)
(-0.0641106 -0.0313879 0)
(-0.0504697 -0.0290068 0)
(-0.0371188 -0.0255496 0)
(-0.024537 -0.0212485 0)
(-0.0131435 -0.0164025 0)
(-0.00329253 -0.0113494 0)
(0.00479457 -0.00642451 0)
(0.0109968 -0.00192373 0)
(0.015346 0.00192824 0)
(0.0179465 0.00499566 0)
(0.0190269 0.00723487 0)
(0.0188202 0.00868556 0)
(0.0176419 0.0094481 0)
(0.015733 0.00966098 0)
(0.0133943 0.00946188 0)
(0.010786 0.00896982 0)
(0.00815707 0.00823355 0)
(0.00557671 0.00724714 0)
(0.00330222 0.00589837 0)
(0.00138175 0.00407434 0)
(0.00022109 0.00159643 0)
(-2.27326e-05 -0.000492156 0)
(-0.000414384 -9.56668e-05 0)
(-0.00122789 0.000680677 0)
(-0.00234693 0.00154815 0)
(-0.00372831 0.00226779 0)
(-0.00529506 0.00294795 0)
(-0.00709289 0.00360759 0)
(-0.00914101 0.00440421 0)
(-0.0115604 0.00537541 0)
(-0.0144322 0.00661733 0)
(-0.0179091 0.00812955 0)
(-0.0220926 0.00994333 0)
(-0.0271278 0.0120243 0)
(-0.0331015 0.0143575 0)
(-0.0401178 0.016881 0)
(-0.0482114 0.0195354 0)
(-0.0574035 0.0222152 0)
(-0.0676285 0.0248001 0)
(-0.078781 0.0271295 0)
(-0.0906656 0.0290342 0)
(-0.103048 0.0303339 0)
(-0.115627 0.0308693 0)
(-0.128093 0.0305047 0)
(-0.140106 0.0291502 0)
(-0.151353 0.0267592 0)
(-0.161529 0.0233379 0)
(-0.170373 0.0189369 0)
(-0.177653 0.0136529 0)
(-0.183183 0.00761735 0)
(-0.186807 0.000996714 0)
(-0.188405 -0.00601727 0)
(-0.187881 -0.0132058 0)
(-0.185171 -0.0203312 0)
(-0.180233 -0.0271345 0)
(-0.173067 -0.0333459 0)
(-0.163712 -0.0386872 0)
(-0.152277 -0.0428901 0)
(-0.138938 -0.0457087 0)
(-0.123974 -0.0469487 0)
(-0.107758 -0.0464885 0)
(-0.0907744 -0.0443124 0)
(-0.0735803 -0.040525 0)
(-0.0567938 -0.035364 0)
(-0.0410122 -0.0291821 0)
(-0.026781 -0.0224176 0)
(-0.0144997 -0.0155369 0)
(-0.0044288 -0.00898051 0)
(0.00337058 -0.00310762 0)
(0.00895391 0.00183229 0)
(0.0125343 0.00571477 0)
(0.0143521 0.00852725 0)
(0.0147501 0.0103532 0)
(0.0140093 0.0113346 0)
(0.0124869 0.0116402 0)
(0.0104026 0.0114193 0)
(0.00807386 0.0107623 0)
(0.00562622 0.0096699 0)
(0.00337998 0.00803532 0)
(0.00142649 0.00567097 0)
(0.000228813 0.00232008 0)
(-7.3326e-05 -0.000247661 0)
(-0.000742712 0.000681753 0)
(-0.00199517 0.00187565 0)
(-0.00360155 0.003051 0)
(-0.00551899 0.00400006 0)
(-0.00764035 0.00490373 0)
(-0.010056 0.00582842 0)
(-0.0128007 0.00698443 0)
(-0.0160548 0.00843487 0)
(-0.0199312 0.0102994 0)
(-0.0246379 0.0125803 0)
(-0.0303059 0.0153078 0)
(-0.0371196 0.0184317 0)
(-0.0451796 0.021915 0)
(-0.0546015 0.0256588 0)
(-0.0654005 0.0295551 0)
(-0.0775632 0.0334337 0)
(-0.0909556 0.0371009 0)
(-0.105387 0.0403188 0)
(-0.120558 0.0428486 0)
(-0.136127 0.0444544 0)
(-0.151694 0.0449429 0)
(-0.166872 0.0441673 0)
(-0.181273 0.0420502 0)
(-0.194569 0.0385749 0)
(-0.206473 0.0337905 0)
(-0.216767 0.027794 0)
(-0.225272 0.0207273 0)
(-0.231866 0.0127604 0)
(-0.236445 0.00409074 0)
(-0.238934 -0.00506763 0)
(-0.239253 -0.0144789 0)
(-0.237334 -0.0238906 0)
(-0.233096 -0.0330256 0)
(-0.226474 -0.0415875 0)
(-0.217406 -0.0492556 0)
(-0.205879 -0.0556994 0)
(-0.191933 -0.0605868 0)
(-0.175713 -0.0636154 0)
(-0.157483 -0.0645392 0)
(-0.13767 -0.0632173 0)
(-0.11685 -0.0596475 0)
(-0.0957492 -0.0540068 0)
(-0.0751662 -0.046654 0)
(-0.0559146 -0.0381141 0)
(-0.0386838 -0.0290099 0)
(-0.0239869 -0.0199818 0)
(-0.0120604 -0.0115888 0)
(-0.00292923 -0.00425029 0)
(0.00361135 0.00179147 0)
(0.00783849 0.00645016 0)
(0.0101477 0.00978105 0)
(0.0108789 0.0119202 0)
(0.0104501 0.0130613 0)
(0.00914312 0.0133787 0)
(0.00733924 0.0130047 0)
(0.00522618 0.0119495 0)
(0.00318061 0.0101176 0)
(0.00134578 0.00725682 0)
(0.000211559 0.00304214 0)
(-0.000132832 0.0001892 0)
(-0.00111557 0.00186408 0)
(-0.00285052 0.00357897 0)
(-0.00498557 0.00510731 0)
(-0.00748531 0.00631767 0)
(-0.010218 0.00749135 0)
(-0.013333 0.0087632 0)
(-0.01689 0.0104054 0)
(-0.0211414 0.0125117 0)
(-0.0262378 0.0152229 0)
(-0.032447 0.0185392 0)
(-0.0399268 0.0224804 0)
(-0.0488947 0.0269687 0)
(-0.0594487 0.0319281 0)
(-0.0716912 0.037201 0)
(-0.0855799 0.0426026 0)
(-0.101018 0.0478686 0)
(-0.117748 0.0527047 0)
(-0.13544 0.0567777 0)
(-0.153647 0.0597747 0)
(-0.171906 0.0614176 0)
(-0.189728 0.0615081 0)
(-0.206688 0.0599289 0)
(-0.22241 0.056658 0)
(-0.236624 0.0517477 0)
(-0.249127 0.0453177 0)
(-0.259809 0.0375281 0)
(-0.268602 0.0285703 0)
(-0.275491 0.0186466 0)
(-0.280463 0.0079698 0)
(-0.283518 -0.00324618 0)
(-0.28462 -0.0147772 0)
(-0.283717 -0.0263898 0)
(-0.280705 -0.037826 0)
(-0.275455 -0.0488011 0)
(-0.267799 -0.0589902 0)
(-0.257568 -0.0680322 0)
(-0.244608 -0.0755289 0)
(-0.228838 -0.0810695 0)
(-0.210289 -0.0842563 0)
(-0.189178 -0.0847613 0)
(-0.165938 -0.0823815 0)
(-0.141266 -0.0771139 0)
(-0.11608 -0.069203 0)
(-0.0914688 -0.0591701 0)
(-0.0685242 -0.0477669 0)
(-0.0482039 -0.0358821 0)
(-0.0311305 -0.0243815 0)
(-0.0175664 -0.0139761 0)
(-0.0073827 -0.0051195 0)
(-0.000253117 0.00197801 0)
(0.00431822 0.00732898 0)
(0.00678345 0.0110647 0)
(0.00765662 0.0134092 0)
(0.00730575 0.0145656 0)
(0.00618222 0.0147104 0)
(0.00454367 0.0138693 0)
(0.00281611 0.0119623 0)
(0.00119832 0.00869289 0)
(0.00018427 0.0036898 0)
(-0.000199897 0.000817546 0)
(-0.00152589 0.00345555 0)
(-0.00377893 0.00579415 0)
(-0.00647658 0.00772208 0)
(-0.00960132 0.00923584 0)
(-0.0130052 0.0107479 0)
(-0.0169122 0.0124836 0)
(-0.0214166 0.0147846 0)
(-0.0268528 0.0177781 0)
(-0.0334099 0.0216185 0)
(-0.0414138 0.0262947 0)
(-0.0510364 0.0317995 0)
(-0.0625087 0.0380082 0)
(-0.0758929 0.044777 0)
(-0.0912306 0.0518538 0)
(-0.10836 0.0589354 0)
(-0.127033 0.065626 0)
(-0.146804 0.0715051 0)
(-0.167168 0.0761429 0)
(-0.187523 0.0791772 0)
(-0.207317 0.0803346 0)
(-0.22603 0.0794704 0)
(-0.243281 0.0765548 0)
(-0.258783 0.0716689 0)
(-0.272396 0.064968 0)
(-0.284062 0.056662 0)
(-0.293827 0.0469799 0)
(-0.301765 0.0361577 0)
(-0.307995 0.0244176 0)
(-0.312615 0.0119694 0)
(-0.315714 -0.000996152 0)
(-0.317326 -0.0142937 0)
(-0.317438 -0.0277405 0)
(-0.315959 -0.0411354 0)
(-0.312733 -0.0542504 0)
(-0.307517 -0.0668068 0)
(-0.300014 -0.0784677 0)
(-0.289873 -0.0888229 0)
(-0.27675 -0.0973963 0)
(-0.260352 -0.103659 0)
(-0.240534 -0.107077 0)
(-0.217373 -0.107176 0)
(-0.191283 -0.103639 0)
(-0.163046 -0.0964141 0)
(-0.133842 -0.0858148 0)
(-0.105112 -0.0725575 0)
(-0.078388 -0.0577188 0)
(-0.0549649 -0.0425502 0)
(-0.0356833 -0.0282417 0)
(-0.0207544 -0.0156667 0)
(-0.00991131 -0.00530658 0)
(-0.00254218 0.00274772 0)
(0.00199302 0.00862084 0)
(0.0043787 0.0125901 0)
(0.00512605 0.0149111 0)
(0.00478743 0.0158212 0)
(0.00370825 0.0153778 0)
(0.00236634 0.0135258 0)
(0.00101765 0.00995165 0)
(0.000152248 0.00425936 0)
(-0.000277441 0.00168496 0)
(-0.00198029 0.00552445 0)
(-0.00478849 0.00859173 0)
(-0.008085 0.0109705 0)
(-0.0118827 0.0128448 0)
(-0.0160281 0.0147922 0)
(-0.0208351 0.0171493 0)
(-0.02644 0.0203311 0)
(-0.0332633 0.0244942 0)
(-0.0415266 0.0297919 0)
(-0.0516001 0.0361834 0)
(-0.0636442 0.0436083 0)
(-0.0778652 0.0518615 0)
(-0.0942331 0.060687 0)
(-0.112658 0.0696882 0)
(-0.132781 0.0783961 0)
(-0.154138 0.0862548 0)
(-0.17606 0.0927212 0)
(-0.197877 0.0973083 0)
(-0.218884 0.0996699 0)
(-0.238524 0.0996145 0)
(-0.256343 0.0971229 0)
(-0.272093 0.0923104 0)
(-0.285656 0.0853999 0)
(-0.297081 0.0766681 0)
(-0.306494 0.0664167 0)
(-0.314108 0.054933 0)
(-0.320139 0.0424802 0)
(-0.324827 0.0292787 0)
(-0.328365 0.0155143 0)
(-0.330922 0.0013343 0)
(-0.332596 -0.0131346 0)
(-0.333431 -0.0277817 0)
(-0.333379 -0.0424888 0)
(-0.332315 -0.0571186 0)
(-0.329996 -0.0714863 0)
(-0.326084 -0.0853416 0)
(-0.320119 -0.0983387 0)
(-0.31156 -0.110022 0)
(-0.299809 -0.119814 0)
(-0.284307 -0.127035 0)
(-0.264624 -0.130948 0)
(-0.240624 -0.130857 0)
(-0.212597 -0.126242 0)
(-0.181399 -0.11694 0)
(-0.14847 -0.103304 0)
(-0.115734 -0.0863071 0)
(-0.0852715 -0.0674564 0)
(-0.0588943 -0.0485339 0)
(-0.0376684 -0.0311398 0)
(-0.0217843 -0.0163606 0)
(-0.0106724 -0.0046042 0)
(-0.00347377 0.00417928 0)
(0.000765045 0.0103418 0)
(0.0027962 0.0142383 0)
(0.00334084 0.0162097 0)
(0.00287139 0.0163793 0)
(0.00193687 0.0147385 0)
(0.000857356 0.0109876 0)
(0.000127938 0.00473044 0)
(-0.000362879 0.00279059 0)
(-0.00246888 0.0080693 0)
(-0.00586184 0.0119675 0)
(-0.00978777 0.0148526 0)
(-0.0143047 0.0171626 0)
(-0.0192647 0.0196731 0)
(-0.0250849 0.0228504 0)
(-0.0319459 0.0271794 0)
(-0.0403508 0.0328343 0)
(-0.0505354 0.0399429 0)
(-0.0628868 0.0484055 0)
(-0.0775101 0.0580681 0)
(-0.0945278 0.0685956 0)
(-0.113742 0.0795586 0)
(-0.134852 0.0903599 0)
(-0.157236 0.10033 0)
(-0.18019 0.10876 0)
(-0.202851 0.115035 0)
(-0.224456 0.118695 0)
(-0.244307 0.119504 0)
(-0.261957 0.117441 0)
(-0.27713 0.11268 0)
(-0.289799 0.10552 0)
(-0.300072 0.0963406 0)
(-0.30821 0.085529 0)
(-0.314507 0.0734545 0)
(-0.319312 0.0604314 0)
(-0.322934 0.0467184 0)
(-0.32567 0.0325085 0)
(-0.327751 0.0179453 0)
(-0.329377 0.00312349 0)
(-0.330675 -0.0118905 0)
(-0.331732 -0.0270551 0)
(-0.332558 -0.0423326 0)
(-0.333102 -0.0576807 0)
(-0.333205 -0.0730266 0)
(-0.332608 -0.0882468 0)
(-0.330896 -0.10313 0)
(-0.327507 -0.117342 0)
(-0.32171 -0.130388 0)
(-0.31266 -0.141587 0)
(-0.299461 -0.150072 0)
(-0.281329 -0.154843 0)
(-0.257781 -0.154885 0)
(-0.228891 -0.149373 0)
(-0.195495 -0.137934 0)
(-0.159318 -0.120936 0)
(-0.12284 -0.0996605 0)
(-0.0888831 -0.0762302 0)
(-0.0598768 -0.0531293 0)
(-0.0371972 -0.0325288 0)
(-0.0208667 -0.015653 0)
(-0.00999224 -0.00280658 0)
(-0.00329701 0.00638436 0)
(0.000338291 0.0124268 0)
(0.00191627 0.0158432 0)
(0.00210902 0.0168864 0)
(0.0015836 0.0156387 0)
(0.000742671 0.0118509 0)
(0.000115338 0.00514449 0)
(-0.000458778 0.00418173 0)
(-0.00299586 0.011155 0)
(-0.00700251 0.0159905 0)
(-0.0115896 0.0194488 0)
(-0.0168746 0.0222939 0)
(-0.0227259 0.0255322 0)
(-0.029671 0.0297707 0)
(-0.0379298 0.0355507 0)
(-0.0480716 0.0430395 0)
(-0.0603159 0.0523013 0)
(-0.0750236 0.0631338 0)
(-0.0921844 0.0752316 0)
(-0.111763 0.0880647 0)
(-0.133315 0.100966 0)
(-0.156271 0.1131 0)
(-0.17973 0.123605 0)
(-0.202792 0.131683 0)
(-0.224498 0.136749 0)
(-0.244124 0.138485 0)
(-0.261125 0.136877 0)
(-0.275292 0.132149 0)
(-0.286619 0.124709 0)
(-0.295355 0.115044 0)
(-0.301832 0.103659 0)
(-0.306485 0.0910064 0)
(-0.309717 0.0774708 0)
(-0.311926 0.0633437 0)
(-0.313423 0.0488393 0)
(-0.314483 0.0340975 0)
(-0.315297 0.0192078 0)
(-0.316028 0.00421508 0)
(-0.316781 -0.0108606 0)
(-0.317647 -0.0260228 0)
(-0.318673 -0.0412847 0)
(-0.319885 -0.0566684 0)
(-0.321247 -0.072189 0)
(-0.322658 -0.0878419 0)
(-0.323886 -0.103571 0)
(-0.324548 -0.11923 0)
(-0.324038 -0.134524 0)
(-0.321517 -0.148948 0)
(-0.3159 -0.161728 0)
(-0.305952 -0.171795 0)
(-0.290445 -0.177825 0)
(-0.268444 -0.178382 0)
(-0.239657 -0.1722 0)
(-0.204814 -0.158586 0)
(-0.165894 -0.137876 0)
(-0.126051 -0.111772 0)
(-0.0889937 -0.0832164 0)
(-0.057934 -0.0556917 0)
(-0.034478 -0.0319711 0)
(-0.0183812 -0.0134089 0)
(-0.00821725 7.84876e-05 0)
(-0.00240413 0.00913239 0)
(0.000488583 0.0145573 0)
(0.00144773 0.0168368 0)
(0.00134161 0.0162222 0)
(0.000695304 0.0125632 0)
(0.000120192 0.00552056 0)
(-0.000560148 0.00585062 0)
(-0.00354316 0.0147657 0)
(-0.00817943 0.0206415 0)
(-0.0134478 0.0247471 0)
(-0.0195395 0.0282468 0)
(-0.0263457 0.0324037 0)
(-0.0345054 0.0379678 0)
(-0.0442623 0.0455094 0)
(-0.0562234 0.0551519 0)
(-0.0705484 0.0668447 0)
(-0.0875145 0.0802254 0)
(-0.106925 0.094766 0)
(-0.128517 0.109674 0)
(-0.151544 0.123997 0)
(-0.175162 0.136671 0)
(-0.198251 0.146709 0)
(-0.219831 0.153343 0)
(-0.239001 0.156157 0)
(-0.255244 0.155106 0)
(-0.268301 0.150478 0)
(-0.278295 0.142786 0)
(-0.285525 0.132656 0)
(-0.290484 0.120713 0)
(-0.293667 0.107516 0)
(-0.295588 0.0935102 0)
(-0.29665 0.0790265 0)
(-0.297203 0.0642833 0)
(-0.297472 0.0494186 0)
(-0.29764 0.0345047 0)
(-0.297799 0.0195786 0)
(-0.298035 0.00464942 0)
(-0.298391 -0.0102849 0)
(-0.298929 -0.0252402 0)
(-0.299695 -0.0402399 0)
(-0.300761 -0.0553224 0)
(-0.302181 -0.0705373 0)
(-0.304005 -0.0859451 0)
(-0.306216 -0.101603 0)
(-0.308708 -0.117538 0)
(-0.311186 -0.133693 0)
(-0.313112 -0.149856 0)
(-0.313607 -0.165556 0)
(-0.31143 -0.179959 0)
(-0.305012 -0.191796 0)
(-0.292649 -0.199369 0)
(-0.272844 -0.200718 0)
(-0.244812 -0.19399 0)
(-0.209062 -0.178034 0)
(-0.167821 -0.153139 0)
(-0.125018 -0.12156 0)
(-0.0854555 -0.0874335 0)
(-0.0531773 -0.0554596 0)
(-0.0298871 -0.0291291 0)
(-0.0147572 -0.00952215 0)
(-0.00583642 0.00384765 0)
(-0.00113191 0.0121326 0)
(0.000810145 0.0161765 0)
(0.00118424 0.0165246 0)
(0.000707055 0.013195 0)
(0.00014086 0.00591524 0)
(-0.00066859 0.00783851 0)
(-0.00410979 0.0189561 0)
(-0.00938543 0.0259817 0)
(-0.0153502 0.0308237 0)
(-0.0222784 0.0351223 0)
(-0.0300869 0.0404155 0)
(-0.0395148 0.0475847 0)
(-0.0508036 0.0571866 0)
(-0.064558 0.0692479 0)
(-0.080825 0.0835373 0)
(-0.0997367 0.0994617 0)
(-0.120848 0.116198 0)
(-0.14362 0.132642 0)
(-0.167009 0.147561 0)
(-0.189959 0.15973 0)
(-0.211258 0.168173 0)
(-0.230014 0.172309 0)
(-0.245556 0.172039 0)
(-0.257712 0.167685 0)
(-0.266588 0.159876 0)
(-0.272648 0.149381 0)
(-0.276437 0.136973 0)
(-0.278599 0.12332 0)
(-0.279666 0.108942 0)
(-0.280116 0.0941954 0)
(-0.28025 0.0793011 0)
(-0.280296 0.0643732 0)
(-0.280345 0.049462 0)
(-0.280457 0.0345778 0)
(-0.280619 0.0197197 0)
(-0.280836 0.00488134 0)
(-0.281088 -0.00993819 0)
(-0.281399 -0.0247409 0)
(-0.281794 -0.0395311 0)
(-0.282351 -0.0543255 0)
(-0.283157 -0.0691609 0)
(-0.284344 -0.0841008 0)
(-0.286034 -0.0992409 0)
(-0.288339 -0.114698 0)
(-0.29128 -0.13059 0)
(-0.294725 -0.146974 0)
(-0.298252 -0.163758 0)
(-0.301042 -0.180547 0)
(-0.301764 -0.196496 0)
(-0.298577 -0.210141 0)
(-0.289296 -0.219375 0)
(-0.271801 -0.221597 0)
(-0.244722 -0.214214 0)
(-0.20826 -0.195499 0)
(-0.164924 -0.165689 0)
(-0.119582 -0.127917 0)
(-0.0783209 -0.0878993 0)
(-0.0459858 -0.0519613 0)
(-0.0239646 -0.0238925 0)
(-0.0105895 -0.00432476 0)
(-0.00328394 0.00809679 0)
(3.30076e-05 0.0146975 0)
(0.00104189 0.0164871 0)
(0.000755747 0.0137552 0)
(0.00017495 0.0063493 0)
(-0.000775661 0.0101201 0)
(-0.00466582 0.0236816 0)
(-0.0105687 0.0319612 0)
(-0.0172226 0.0376334 0)
(-0.0249905 0.0428837 0)
(-0.03381 0.0495296 0)
(-0.0445007 0.0585574 0)
(-0.057267 0.0704531 0)
(-0.0726636 0.0850843 0)
(-0.0905705 0.101967 0)
(-0.11092 0.120207 0)
(-0.13298 0.138633 0)
(-0.155941 0.155822 0)
(-0.178522 0.170323 0)
(-0.199587 0.180888 0)
(-0.217998 0.186721 0)
(-0.233125 0.187592 0)
(-0.244656 0.183824 0)
(-0.252825 0.176142 0)
(-0.258088 0.165471 0)
(-0.261165 0.152745 0)
(-0.262724 0.138767 0)
(-0.263421 0.124137 0)
(-0.263702 0.109246 0)
(-0.263913 0.0943075 0)
(-0.264196 0.0794074 0)
(-0.264627 0.0645545 0)
(-0.265165 0.0497272 0)
(-0.265768 0.0348967 0)
(-0.266345 0.0200483 0)
(-0.266848 0.00518248 0)
(-0.267216 -0.00968282 0)
(-0.267449 -0.0245209 0)
(-0.267549 -0.0393032 0)
(-0.267583 -0.0540088 0)
(-0.267633 -0.0686383 0)
(-0.267844 -0.0832207 0)
(-0.268381 -0.0978328 0)
(-0.269459 -0.112598 0)
(-0.271281 -0.1277 0)
(-0.274015 -0.143345 0)
(-0.277678 -0.159727 0)
(-0.28201 -0.176887 0)
(-0.286292 -0.194557 0)
(-0.289169 -0.21189 0)
(-0.288582 -0.227246 0)
(-0.281887 -0.238043 0)
(-0.266338 -0.240929 0)
(-0.239923 -0.232419 0)
(-0.202563 -0.210095 0)
(-0.157143 -0.174327 0)
(-0.109753 -0.129527 0)
(-0.0679284 -0.0837667 0)
(-0.0370283 -0.0448689 0)
(-0.0174646 -0.0166092 0)
(-0.00644878 0.00176697 0)
(-0.00114047 0.0120795 0)
(0.000790971 0.0160045 0)
(0.000794971 0.0142439 0)
(0.000214522 0.00685237 0)
(-0.000881763 0.0127209 0)
(-0.00520447 0.0289746 0)
(-0.0117098 0.0386196 0)
(-0.019032 0.045228 0)
(-0.027619 0.0515931 0)
(-0.037418 0.0598041 0)
(-0.0492975 0.0709101 0)
(-0.0633854 0.0852562 0)
(-0.0801383 0.102479 0)
(-0.0992266 0.121768 0)
(-0.120352 0.141874 0)
(-0.1425 0.161258 0)
(-0.164647 0.178233 0)
(-0.185394 0.191258 0)
(-0.203683 0.199239 0)
(-0.218613 0.201734 0)
(-0.229934 0.198987 0)
(-0.237744 0.191778 0)
(-0.242648 0.181187 0)
(-0.24535 0.168326 0)
(-0.246685 0.15416 0)
(-0.247297 0.139397 0)
(-0.247734 0.124476 0)
(-0.248273 0.109607 0)
(-0.249083 0.0948421 0)
(-0.250142 0.0801444 0)
(-0.251401 0.0654447 0)
(-0.252723 0.0506808 0)
(-0.254008 0.0358148 0)
(-0.255128 0.0208412 0)
(-0.256014 0.0057831 0)
(-0.256594 -0.00931405 0)
(-0.256856 -0.0243909 0)
(-0.256793 -0.0393856 0)
(-0.256453 -0.0542392 0)
(-0.255899 -0.068913 0)
(-0.255253 -0.0833904 0)
(-0.254665 -0.0977039 0)
(-0.254352 -0.111934 0)
(-0.254568 -0.126247 0)
(-0.255612 -0.140876 0)
(-0.257764 -0.156144 0)
(-0.261194 -0.172367 0)
(-0.265797 -0.189761 0)
(-0.27096 -0.20817 0)
(-0.275329 -0.22677 0)
(-0.276628 -0.243682 0)
(-0.271793 -0.255768 0)
(-0.257434 -0.258775 0)
(-0.230984 -0.24816 0)
(-0.192156 -0.22086 0)
(-0.144554 -0.177651 0)
(-0.0958121 -0.125213 0)
(-0.0550444 -0.0744541 0)
(-0.0273027 -0.0346404 0)
(-0.0111704 -0.00786149 0)
(-0.00301289 0.0077739 0)
(0.000285596 0.0148235 0)
(0.000771933 0.014567 0)
(0.000251773 0.00740655 0)
(-0.000974822 0.0155863 0)
(-0.00568405 0.0347454 0)
(-0.012737 0.0458568 0)
(-0.0206736 0.0535009 0)
(-0.0300175 0.0611261 0)
(-0.0407069 0.0710681 0)
(-0.0536237 0.084385 0)
(-0.0687811 0.101207 0)
(-0.0864987 0.120874 0)
(-0.106212 0.14219 0)
(-0.127395 0.163531 0)
(-0.148796 0.18302 0)
(-0.169279 0.198817 0)
(-0.187473 0.209455 0)
(-0.202541 0.214177 0)
(-0.213934 0.213025 0)
(-0.221823 0.206767 0)
(-0.226672 0.196594 0)
(-0.229349 0.183823 0)
(-0.230657 0.169608 0)
(-0.231402 0.154809 0)
(-0.232089 0.139941 0)
(-0.233082 0.12523 0)
(-0.234464 0.110697 0)
(-0.236242 0.0962557 0)
(-0.238269 0.0817834 0)
(-0.240416 0.0671731 0)
(-0.242502 0.0523568 0)
(-0.24441 0.0373128 0)
(-0.246007 0.022061 0)
(-0.247232 0.00665488 0)
(-0.248017 -0.0088312 0)
(-0.248354 -0.0243078 0)
(-0.248232 -0.039686 0)
(-0.24769 -0.0548763 0)
(-0.246768 -0.0698094 0)
(-0.245558 -0.0844282 0)
(-0.244167 -0.0987206 0)
(-0.242768 -0.112708 0)
(-0.241579 -0.126499 0)
(-0.240899 -0.140273 0)
(-0.241087 -0.15435 0)
(-0.242531 -0.169138 0)
(-0.245543 -0.185131 0)
(-0.250154 -0.202698 0)
(-0.255856 -0.221831 0)
(-0.26123 -0.241655 0)
(-0.263787 -0.259965 0)
(-0.259956 -0.272885 0)
(-0.245801 -0.275038 0)
(-0.218235 -0.260744 0)
(-0.177165 -0.226383 0)
(-0.127314 -0.174087 0)
(-0.0784654 -0.11383 0)
(-0.0409152 -0.0603038 0)
(-0.0179661 -0.0220328 0)
(-0.00589423 0.00106428 0)
(-0.00062295 0.0125926 0)
(0.00063213 0.0145879 0)
(0.000278195 0.00798653 0)
(-0.00105488 0.018717 0)
(-0.00609527 0.0409937 0)
(-0.0136244 0.0536783 0)
(-0.0221021 0.06246 0)
(-0.0321072 0.0714772 0)
(-0.0435479 0.0832767 0)
(-0.0572798 0.0988641 0)
(-0.0731728 0.11808 0)
(-0.0913858 0.139909 0)
(-0.111125 0.162737 0)
(-0.131668 0.184577 0)
(-0.151617 0.203301 0)
(-0.16984 0.217063 0)
(-0.185124 0.224651 0)
(-0.19696 0.225789 0)
(-0.205187 0.221075 0)
(-0.210357 0.211764 0)
(-0.213194 0.199347 0)
(-0.214683 0.185223 0)
(-0.215585 0.170445 0)
(-0.216568 0.155664 0)
(-0.217936 0.141148 0)
(-0.219858 0.12691 0)
(-0.222249 0.112811 0)
(-0.224998 0.0986712 0)
(-0.227887 0.0843283 0)
(-0.23076 0.0696755 0)
(-0.233429 0.0546647 0)
(-0.23579 0.0393063 0)
(-0.237725 0.023651 0)
(-0.239189 0.00778398 0)
(-0.240128 -0.00819518 0)
(-0.240544 -0.0241718 0)
(-0.240424 -0.0400377 0)
(-0.239808 -0.0556808 0)
(-0.238721 -0.0710129 0)
(-0.237232 -0.0859489 0)
(-0.235411 -0.100447 0)
(-0.233376 -0.114477 0)
(-0.231277 -0.128087 0)
(-0.229341 -0.141372 0)
(-0.227879 -0.154573 0)
(-0.227301 -0.168042 0)
(-0.228093 -0.182342 0)
(-0.230687 -0.198106 0)
(-0.235266 -0.215927 0)
(-0.241345 -0.235887 0)
(-0.247436 -0.257005 0)
(-0.250649 -0.276538 0)
(-0.246939 -0.289569 0)
(-0.23172 -0.289366 0)
(-0.201775 -0.268956 0)
(-0.15757 -0.224896 0)
(-0.105904 -0.161829 0)
(-0.0589945 -0.095317 0)
(-0.0272642 -0.042333 0)
(-0.0100587 -0.00895841 0)
(-0.00206234 0.00881155 0)
(0.000336538 0.0140828 0)
(0.000287745 0.00852735 0)
(-0.00110759 0.0220204 0)
(-0.00639029 0.0475732 0)
(-0.014291 0.0619193 0)
(-0.0232005 0.0719172 0)
(-0.0337275 0.0824091 0)
(-0.0457274 0.0961074 0)
(-0.0599958 0.113905 0)
(-0.0762431 0.135293 0)
(-0.0944641 0.158868 0)
(-0.113664 0.182598 0)
(-0.132991 0.204191 0)
(-0.150992 0.221384 0)
(-0.166657 0.232488 0)
(-0.179025 0.236696 0)
(-0.187956 0.234301 0)
(-0.193647 0.226444 0)
(-0.196934 0.214772 0)
(-0.198665 0.200919 0)
(-0.199806 0.186221 0)
(-0.200978 0.171514 0)
(-0.202652 0.157185 0)
(-0.204928 0.143255 0)
(-0.207812 0.129557 0)
(-0.2111 0.115842 0)
(-0.214624 0.101888 0)
(-0.218144 0.0875333 0)
(-0.22151 0.0726983 0)
(-0.224554 0.0573687 0)
(-0.227195 0.0415913 0)
(-0.229335 0.025447 0)
(-0.230947 0.0090487 0)
(-0.231987 -0.0074831 0)
(-0.232463 -0.0240128 0)
(-0.232368 -0.0404176 0)
(-0.231742 -0.0565681 0)
(-0.230605 -0.0723652 0)
(-0.229018 -0.0877058 0)
(-0.227028 -0.102533 0)
(-0.224719 -0.116787 0)
(-0.222182 -0.130475 0)
(-0.219561 -0.143619 0)
(-0.217066 -0.156365 0)
(-0.215012 -0.168943 0)
(-0.21386 -0.181827 0)
(-0.214162 -0.195665 0)
(-0.216504 -0.211336 0)
(-0.22113 -0.229601 0)
(-0.227611 -0.250646 0)
(-0.234157 -0.27319 0)
(-0.237484 -0.293637 0)
(-0.232783 -0.305647 0)
(-0.215113 -0.300695 0)
(-0.181293 -0.270887 0)
(-0.133482 -0.213855 0)
(-0.0812584 -0.139821 0)
(-0.039605 -0.070609 0)
(-0.0156856 -0.02334 0)
(-0.0041682 0.00289358 0)
(-0.000140637 0.0127909 0)
(0.000275101 0.00896474 0)
(-0.00113474 0.0254703 0)
(-0.00656448 0.0544502 0)
(-0.0147173 0.0705503 0)
(-0.0239309 0.0818359 0)
(-0.0348118 0.0938547 0)
(-0.0471435 0.109439 0)
(-0.0616343 0.129317 0)
(-0.0778374 0.152583 0)
(-0.0955989 0.177435 0)
(-0.113776 0.20145 0)
(-0.131459 0.22212 0)
(-0.147242 0.237184 0)
(-0.160317 0.245258 0)
(-0.170024 0.246046 0)
(-0.17657 0.240435 0)
(-0.180433 0.230034 0)
(-0.182608 0.216742 0)
(-0.183944 0.202185 0)
(-0.18529 0.187514 0)
(-0.187073 0.173285 0)
(-0.189568 0.159614 0)
(-0.192706 0.146311 0)
(-0.196381 0.13308 0)