/*--------------------------------*- C++ -*----------------------------------*\
| =========                 |                                                 |
| \\      /  F ield         | OpenFOAM: The Open Source CFD Toolbox           |
|  \\    /   O peration     | Version:  2406                                  |
|   \\  /    A nd           | Website:  www.openfoam.com                      |
|    \\/     M anipulation  |                                                 |
\*---------------------------------------------------------------------------*/
FoamFile
{
    version     2.0;
    format      ascii;
    arch        "LSB;label=32;scalar=64";
    class       surfaceScalarField;
    location    "47.45";
    object      phi_0;
}
// * * * * * * * * * * * * * * * * * * * * * * * * * * * * * * * * * * * * * //

dimensions      [0 3 -1 0 0 0 0];

oriented        oriented;

internalField   nonuniform List<scalar> 
28560
(
-3.69333e-09
3.69384e-09
5.06673e-08
-5.43608e-08
1.80114e-07
-1.29447e-07
3.71862e-07
-1.91747e-07
6.07124e-07
-2.35262e-07
8.66047e-07
-2.58923e-07
1.13027e-06
-2.64221e-07
1.38424e-06
-2.53976e-07
1.61602e-06
-2.31776e-07
1.81754e-06
-2.01523e-07
1.98461e-06
-1.67073e-07
2.11653e-06
-1.31911e-07
2.21543e-06
-9.89009e-08
2.28555e-06
-7.01248e-08
2.33237e-06
-4.6818e-08
2.36176e-06
-2.93954e-08
2.37939e-06
-1.76214e-08
2.38968e-06
-1.02968e-08
2.39583e-06
-6.14476e-09
2.39939e-06
-3.56353e-09
2.39998e-06
-5.88812e-10
2.39629e-06
3.69275e-09
2.38519e-06
1.11015e-08
2.36257e-06
2.26133e-08
2.32372e-06
3.88542e-08
2.26353e-06
6.0189e-08
2.17675e-06
8.67812e-08
2.05806e-06
1.18691e-07
1.9021e-06
1.55956e-07
1.70346e-06
1.98643e-07
1.4566e-06
2.46858e-07
1.15587e-06
3.00726e-07
7.95526e-07
3.60348e-07
3.69775e-07
4.25751e-07
-1.27069e-07
4.96844e-07
-7.0045e-07
5.73381e-07
-1.35538e-06
6.54933e-07
-2.09625e-06
7.40867e-07
-2.92659e-06
8.30341e-07
-3.84889e-06
9.22297e-07
-4.86435e-06
1.01546e-06
-5.97273e-06
1.10837e-06
-7.17211e-06
1.19938e-06
-8.45879e-06
1.28668e-06
-9.82715e-06
1.36836e-06
-1.12696e-05
1.44242e-06
-1.27764e-05
1.50684e-06
-1.4336e-05
1.5596e-06
-1.59348e-05
1.59874e-06
-1.75572e-05
1.6224e-06
-1.9186e-05
1.62886e-06
-2.08026e-05
1.61656e-06
-2.23867e-05
1.58417e-06
-2.39173e-05
1.53055e-06
-2.53722e-05
1.45486e-06
-2.67287e-05
1.35651e-06
-2.79639e-05
1.23522e-06
-2.90549e-05
1.09105e-06
-2.99794e-05
9.24465e-07
-3.07157e-05
7.36296e-07
-3.12443e-05
5.28618e-07
-3.15462e-05
3.01863e-07
-3.15999e-05
5.37027e-08
-3.13964e-05
-2.03482e-07
-3.09244e-05
-4.72045e-07
-3.01759e-05
-7.48435e-07
-2.91481e-05
-1.02787e-06
-2.78425e-05
-1.30555e-06
-2.62662e-05
-1.57632e-06
-2.44315e-05
-1.83466e-06
-2.23567e-05
-2.07486e-06
-2.00655e-05
-2.29112e-06
-1.75877e-05
-2.47781e-06
-1.49581e-05
-2.62961e-06
-1.22163e-05
-2.74183e-06
-9.40572e-06
-2.81057e-06
-6.57269e-06
-2.83302e-06
-3.76503e-06
-2.80766e-06
-1.03066e-06
-2.73438e-06
1.58395e-06
-2.61461e-06
4.0353e-06
-2.45135e-06
6.28442e-06
-2.24912e-06
8.29816e-06
-2.01374e-06
1.00503e-05
-1.75218e-06
1.15226e-05
-1.47221e-06
1.27046e-05
-1.18206e-06
1.35946e-05
-8.90006e-07
1.41987e-05
-6.0406e-07
1.45303e-05
-3.31595e-07
1.46109e-05
-8.05917e-08
1.44608e-05
1.50025e-07
1.41107e-05
3.50172e-07
1.35931e-05
5.17597e-07
1.29395e-05
6.53587e-07
1.21812e-05
7.58321e-07
1.13484e-05
8.32777e-07
1.04692e-05
8.79226e-07
9.56852e-06
9.00632e-07
8.6681e-06
9.00422e-07
7.78586e-06
8.82241e-07
6.93611e-06
8.49751e-07
6.12965e-06
8.06462e-07
5.37404e-06
7.55611e-07
4.67396e-06
7.0008e-07
4.03161e-06
6.42349e-07
3.44712e-06
5.84489e-07
2.91895e-06
5.2817e-07
2.44427e-06
4.74679e-07
2.01935e-06
4.24925e-07
1.63993e-06
3.79419e-07
1.30171e-06
3.38217e-07
1.00087e-06
3.00838e-07
7.34715e-07
2.66158e-07
5.02363e-07
2.32352e-07
3.05432e-07
1.96931e-07
1.48356e-07
1.57076e-07
3.78474e-08
1.10509e-07
-1.95363e-08
5.73837e-08
-2.40406e-08
4.50429e-09
-2.40406e-08
5.15605e-08
-4.78669e-08
2.51772e-07
-2.54572e-07
6.09765e-07
-4.87441e-07
1.09947e-06
-6.81448e-07
1.6823e-06
-8.18094e-07
2.31607e-06
-8.92698e-07
2.96038e-06
-9.08529e-07
3.58001e-06
-8.73603e-07
4.147e-06
-7.98771e-07
4.64169e-06
-6.96207e-07
5.05276e-06
-5.78142e-07
5.37664e-06
-4.55791e-07
5.61623e-06
-3.38496e-07
5.77928e-06
-2.33171e-07
5.87649e-06
-1.44026e-07
5.91967e-06
-7.25748e-08
5.91996e-06
-1.79113e-08
5.88654e-06
2.31216e-08
5.82533e-06
5.50634e-08
5.73847e-06
8.32985e-08
5.62431e-06
1.13567e-07
5.47687e-06
1.51134e-07
5.28732e-06
2.00655e-07
5.04424e-06
2.65689e-07
4.73444e-06
3.48654e-07
4.34364e-06
4.50992e-07
3.857e-06
5.73422e-07
3.25947e-06
7.16222e-07
2.53595e-06
8.79473e-07
1.6714e-06
1.0632e-06
6.50886e-07
1.26737e-06
-5.40245e-07
1.49186e-06
-1.91616e-06
1.73626e-06
-3.49016e-06
1.99976e-06
-5.27428e-06
2.28096e-06
-7.2787e-06
2.57781e-06
-9.51126e-06
2.88749e-06
-1.19768e-05
3.20644e-06
-1.46768e-05
3.53028e-06
-1.76084e-05
3.85396e-06
-2.07647e-05
4.17175e-06
-2.41338e-05
4.4774e-06
-2.76986e-05
4.76428e-06
-3.14375e-05
5.02552e-06
-3.53233e-05
5.25422e-06
-3.93246e-05
5.44364e-06
-4.34051e-05
5.58737e-06
-4.7525e-05
5.67952e-06
-5.16411e-05
5.71485e-06
-5.57076e-05
5.68889e-06
-5.96768e-05
5.59806e-06
-6.34999e-05
5.43969e-06
-6.71279e-05
5.21209e-06
-7.05118e-05
4.91451e-06
-7.36041e-05
4.54718e-06
-7.63589e-05
4.11125e-06
-7.87325e-05
3.60882e-06
-8.06843e-05
3.04287e-06
-8.21772e-05
2.41737e-06
-8.31781e-05
1.73724e-06
-8.36577e-05
1.00818e-06
-8.35943e-05
2.38512e-07
-8.29704e-05
-5.70187e-07
-8.17703e-05
-1.40359e-06
-7.99902e-05
-2.25221e-06
-7.76318e-05
-3.10679e-06
-7.47041e-05
-3.95564e-06
-7.12234e-05
-4.78618e-06
-6.72146e-05
-5.58511e-06
-6.27106e-05
-6.33865e-06
-5.77528e-05
-7.03267e-06
-5.23909e-05
-7.65307e-06
-4.66825e-05
-8.18619e-06
-4.06929e-05
-8.61924e-06
-3.44939e-05
-8.94081e-06
-2.81631e-05
-9.14135e-06
-2.17824e-05
-9.21373e-06
-1.54364e-05
-9.15366e-06
-9.21068e-06
-8.9601e-06
-3.18972e-06
-8.63556e-06
2.54515e-06
-8.18622e-06
7.91795e-06
-7.62192e-06
1.28602e-05
-6.95594e-06
1.73126e-05
-6.20466e-06
2.12274e-05
-5.38698e-06
2.4569e-05
-4.52364e-06
2.73154e-05
-3.63641e-06
2.94586e-05
-2.74726e-06
3.10046e-05
-1.87758e-06
3.1971e-05
-1.04702e-06
3.23922e-05
-2.71221e-07
3.23112e-05
4.31239e-07
3.1778e-05
1.05078e-06
3.08509e-05
1.58068e-06
2.95928e-05
2.01637e-06
2.80683e-05
2.35733e-06
2.63411e-05
2.60637e-06
2.44726e-05
2.76919e-06
2.25192e-05
2.85376e-06
2.05318e-05
2.86967e-06
1.8554e-05
2.82753e-06
1.66222e-05
2.73827e-06
1.47652e-05
2.61268e-06
1.30043e-05
2.46091e-06
1.13545e-05
2.29218e-06
9.82442e-06
2.11457e-06
8.41767e-06
1.93492e-06
7.13358e-06
1.75877e-06
5.96823e-06
1.59027e-06
4.91552e-06
1.43213e-06
3.96836e-06
1.28537e-06
3.12004e-06
1.14915e-06
2.36569e-06
1.02051e-06
1.70375e-06
8.94291e-07
1.13722e-06
7.63459e-07
6.74038e-07
6.2026e-07
3.25782e-07
4.58765e-07
1.03234e-07
2.79932e-07
7.5345e-09
1.00203e-07
-1.65061e-08
1.2165e-07
-1.69517e-07
4.72551e-07
-6.05473e-07
1.02919e-06
-1.04408e-06
1.75253e-06
-1.40479e-06
2.59196e-06
-1.65753e-06
3.49264e-06
-1.79337e-06
4.40146e-06
-1.81735e-06
5.27152e-06
-1.74366e-06
6.0649e-06
-1.59215e-06
6.7542e-06
-1.3855e-06
7.32275e-06
-1.14669e-06
7.76391e-06
-8.9695e-07
8.07948e-06
-6.54074e-07
8.27765e-06
-4.31334e-07
8.3705e-06
-2.36884e-07
8.37161e-06
-7.36757e-08
8.29362e-06
6.00776e-08
8.14643e-06
1.70312e-07
7.93553e-06
2.65959e-07
7.66114e-06
3.57687e-07
7.31796e-06
4.56747e-07
6.8953e-06
5.73794e-07
6.37797e-06
7.17989e-07
5.74719e-06
8.9647e-07
4.98165e-06
1.11419e-06
4.05849e-06
1.37415e-06
2.95408e-06
1.67783e-06
1.64464e-06
2.02567e-06
1.06614e-07
2.4175e-06
-1.68293e-06
2.85274e-06
-3.74594e-06
3.33038e-06
-6.1029e-06
3.84882e-06
-8.77218e-06
4.40554e-06
-1.17693e-05
4.99686e-06
-1.5106e-05
5.61766e-06
-1.87894e-05
6.26124e-06
-2.28212e-05
6.91927e-06
-2.71966e-05
7.58182e-06
-3.19038e-05
8.23751e-06
-3.69236e-05
8.87377e-06
-4.2229e-05
9.47713e-06
-4.77852e-05
1.00336e-05
-5.35502e-05
1.05292e-05
-5.9475e-05
1.09503e-05
-6.55049e-05
1.12841e-05
-7.15802e-05
1.1519e-05
-7.76377e-05
1.16449e-05
-8.36121e-05
1.16538e-05
-8.94368e-05
1.15396e-05
-9.50458e-05
1.12979e-05
-0.000100375
1.09269e-05
-0.000105361
1.04264e-05
-0.000109947
9.7981e-06
-0.000114078
9.04537e-06
-0.000117704
8.17306e-06
-0.00012078
7.18733e-06
-0.000123267
6.09553e-06
-0.00012513
4.90608e-06
-0.000126341
3.62841e-06
-0.000126877
2.27302e-06
-0.00012672
8.51112e-07
-0.000125857
-6.24247e-07
-0.000124287
-2.14071e-06
-0.000122006
-3.68373e-06
-0.000119022
-5.23622e-06
-0.000115348
-6.78149e-06
-0.000111002
-8.30148e-06
-0.000106011
-9.77684e-06
-0.000100409
-1.11872e-05
-9.42365e-05
-1.25114e-05
-8.75414e-05
-1.37278e-05
-8.03795e-05
-1.4815e-05
-7.28138e-05
-1.57518e-05
-6.49145e-05
-1.65185e-05
-5.67584e-05
-1.7097e-05
-4.84279e-05
-1.74718e-05
-4.00106e-05
-1.76311e-05
-3.15975e-05
-1.75668e-05
-2.32818e-05
-1.72758e-05
-1.51573e-05
-1.67601e-05
-7.31623e-06
-1.60273e-05
1.52402e-07
-1.50905e-05
7.16511e-06
-1.39686e-05
1.36458e-05
-1.26853e-05
1.95277e-05
-1.12689e-05
2.4755e-05
-9.75097e-06
2.92846e-05
-8.16599e-06
3.30869e-05
-6.54958e-06
3.61469e-05
-4.93753e-06
3.84642e-05
-3.36436e-06
4.00556e-05
-1.86261e-06
4.09499e-05
-4.63062e-07
4.11888e-05
8.11926e-07
4.08272e-05
1.94221e-06
3.99304e-05
2.91321e-06
3.85704e-05
3.7173e-06
3.68243e-05
4.35251e-06
3.47709e-05
4.82259e-06
3.24882e-05
5.13644e-06
3.00507e-05
5.3072e-06
2.75269e-05
5.35128e-06
2.49779e-05
5.28724e-06
2.2456e-05
5.13465e-06
2.00038e-05
4.91309e-06
1.76547e-05
4.64126e-06
1.54329e-05
4.33635e-06
1.33543e-05
4.01352e-06
1.14275e-05
3.68556e-06
9.65522e-06
3.36259e-06
8.03563e-06
3.05172e-06
6.56429e-06
2.75672e-06
5.23591e-06
2.47753e-06
4.04641e-06
2.21001e-06
2.99481e-06
1.94589e-06
2.08476e-06
1.6735e-06
1.32507e-06
1.37995e-06
7.28506e-07
1.05533e-06
3.07938e-07
7.005e-07
6.93903e-08
3.38751e-07
5.28842e-08
1.79639e-07
-3.49156e-07
6.58617e-07
-1.08445e-06
1.38129e-06
-1.76674e-06
2.29051e-06
-2.31401e-06
3.32329e-06
-2.69031e-06
4.41483e-06
-2.88492e-06
5.50351e-06
-2.90603e-06
6.53509e-06
-2.77523e-06
7.46564e-06
-2.5227e-06
8.26307e-06
-2.18293e-06
8.90732e-06
-1.79095e-06
9.38945e-06
-1.37908e-06
9.70981e-06
-9.74433e-07
9.87565e-06
-5.97177e-07
9.89836e-06
-2.59592e-07
9.79062e-06
3.40645e-08
9.56368e-06
2.87019e-07
9.22516e-06
5.0883e-07
8.77733e-06
7.1379e-07
8.21604e-06
9.18981e-07
7.53047e-06
1.14232e-06
6.70355e-06
1.40071e-06
5.71287e-06
1.70867e-06
4.5319e-06
2.07744e-06
3.13135e-06
2.51475e-06
1.48038e-06
3.02512e-06
-4.52307e-07
3.61051e-06
-2.69759e-06
4.27095e-06
-5.28516e-06
5.00507e-06
-8.24275e-06
5.81033e-06
-1.15953e-05
6.68289e-06
-1.53637e-05
7.6173e-06
-1.95643e-05
8.60608e-06
-2.42067e-05
9.63931e-06
-2.92935e-05
1.07044e-05
-3.48184e-05
1.17861e-05
-4.07657e-05
1.28665e-05
-4.71095e-05
1.39256e-05
-5.38135e-05
1.49415e-05
-6.08313e-05
1.58916e-05
-6.8107e-05
1.67528e-05
-7.55763e-05
1.75029e-05
-8.3168e-05
1.81209e-05
-9.0806e-05
1.85884e-05
-9.84113e-05
1.88894e-05
-0.000105904
1.90114e-05
-0.000113204
1.89456e-05
-0.000120237
1.86865e-05
-0.00012693
1.8232e-05
-0.000133215
1.75835e-05
-0.000139033
1.67449e-05
-0.000144329
1.57226e-05
-0.000149056
1.4525e-05
-0.000153173
1.3162e-05
-0.000156645
1.16448e-05
-0.000159443
9.9854e-06
-0.000161544
8.19682e-06
-0.00016293
6.29257e-06
-0.000163589
4.2868e-06
-0.00016351
2.19421e-06
-0.00016269
3.10077e-08
-0.000161126
-2.18804e-06
-0.000158823
-4.44391e-06
-0.000155788
-6.71873e-06
-0.000152032
-8.99235e-06
-0.00014757
-1.12432e-05
-0.000142423
-1.34484e-05
-0.000136617
-1.55834e-05
-0.000130181
-1.76224e-05
-0.000123155
-1.95381e-05
-0.00011558
-2.13028e-05
-0.000107507
-2.2888e-05
-9.89928e-05
-2.42658e-05
-9.01019e-05
-2.54094e-05
-8.0905e-05
-2.62939e-05
-7.14794e-05
-2.68975e-05
-6.1908e-05
-2.72024e-05
-5.22789e-05
-2.71959e-05
-4.26834e-05
-2.68712e-05
-3.32152e-05
-2.62283e-05
-2.39682e-05
-2.52742e-05
-1.50351e-05
-2.40237e-05
-6.50521e-06
-2.24986e-05
1.53735e-06
-2.07279e-05
9.01538e-06
-1.87469e-05
1.58604e-05
-1.6596e-05
2.2014e-05
-1.43196e-05
2.74294e-05
-1.1965e-05
3.20724e-05
-9.58047e-06
3.59222e-05
-7.21418e-06
3.89723e-05
-4.91274e-06
4.12291e-05
-2.71987e-06
4.27152e-05
-6.74144e-07
4.34666e-05
1.1908e-06
4.35321e-05
2.8477e-06
4.29725e-05
4.2769e-06
4.18584e-05
5.46657e-06
4.0268e-05
6.413e-06
3.82841e-05
7.12039e-06
3.5991e-05
7.60027e-06
3.34718e-05
7.87047e-06
3.08052e-05
7.95387e-06
2.80631e-05
7.87678e-06
2.53087e-05
7.66742e-06
2.25956e-05
7.35437e-06
1.99668e-05
6.96519e-06
1.7455e-05
6.52533e-06
1.50833e-05
6.05719e-06
1.28666e-05
5.57933e-06
1.08126e-05
5.10576e-06
8.92409e-06
4.6452e-06
7.20121e-06
4.20041e-06
5.64354e-06
3.76768e-06
4.25251e-06
3.33692e-06
3.03327e-06
2.89274e-06
1.99584e-06
2.41737e-06
1.1551e-06
1.89607e-06
5.29295e-07
1.32631e-06
1.37737e-07
7.3031e-07
1.90621e-07
2.24151e-07
-5.73307e-07
8.05061e-07
-1.66536e-06
1.66061e-06
-2.62229e-06
2.71427e-06
-3.36767e-06
3.88943e-06
-3.86548e-06
5.11157e-06
-4.10705e-06
6.31193e-06
-4.10639e-06
7.43114e-06
-3.89445e-06
8.42168e-06
-3.51324e-06
9.24901e-06
-3.01026e-06
9.89143e-06
-2.43337e-06
1.03387e-05
-1.8264e-06
1.05902e-05
-1.22585e-06
1.06515e-05
-6.58499e-07
1.05321e-05
-1.40229e-07
1.0242e-05
3.24193e-07
9.78869e-06
7.40326e-07
9.17508e-06
1.12244e-06
8.39764e-06
1.49123e-06
7.4455e-06
1.87111e-06
6.30041e-06
2.28741e-06
4.93737e-06
2.76376e-06
3.32587e-06
3.32017e-06
1.4315e-06
3.97181e-06
-7.82485e-07
4.72873e-06
-3.35356e-06
5.5962e-06
-6.31858e-06
6.57553e-06
-9.71246e-06
7.66483e-06
-1.35669e-05
8.85955e-06
-1.79092e-05
1.01526e-05
-2.27606e-05
1.15342e-05
-2.81345e-05
1.29913e-05
-3.40356e-05
1.45071e-05
-4.04574e-05
1.60611e-05
-4.73817e-05
1.76288e-05
-5.47776e-05
1.9182e-05
-6.26008e-05
2.06898e-05
-7.07949e-05
2.21197e-05
-7.92915e-05
2.34382e-05
-8.80128e-05
2.46129e-05
-9.68734e-05
2.56134e-05
-0.000105783
2.64126e-05
-0.00011465
2.69878e-05
-0.000123383
2.73214e-05
-0.000131895
2.74009e-05
-0.000140103
2.72195e-05
-0.000147932
2.67754e-05
-0.000155317
2.60713e-05
-0.000162199
2.51139e-05
-0.000168529
2.39131e-05
-0.000174265
2.2481e-05
-0.000179374
2.08316e-05
-0.000183829
1.89802e-05
-0.000187609
1.69425e-05
-0.000190699
1.47345e-05
-0.000193086
1.23727e-05
-0.000194763
9.87309e-06
-0.000195722
7.2521e-06
-0.000195961
4.52608e-06
-0.000195479
1.71175e-06
-0.000194274
-1.17356e-06
-0.00019235
-4.11224e-06
-0.000189709
-7.08483e-06
-0.000186357
-1.00707e-05
-0.000182302
-1.30476e-05
-0.000177554
-1.59913e-05
-0.000172127
-1.88756e-05
-0.000166038
-2.1672e-05
-0.000159311
-2.43499e-05
-0.000151972
-2.68769e-05
-0.000144056
-2.9219e-05
-0.000135602
-3.13413e-05
-0.00012666
-3.32086e-05
-0.000117282
-3.47865e-05
-0.000107534
-3.60425e-05
-9.74839e-05
-3.69473e-05
-8.72105e-05
-3.74759e-05
-7.67971e-05
-3.76093e-05
-6.63328e-05
-3.73355e-05
-5.59104e-05
-3.66507e-05
-4.56247e-05
-3.556e-05
-3.55706e-05
-3.40778e-05
-2.58412e-05
-3.22279e-05
-1.65259e-05
-3.00432e-05
-7.70842e-06
-2.75644e-05
5.3489e-07
-2.48393e-05
8.13633e-06
-2.19211e-05
1.5038e-05
-1.88667e-05
2.11929e-05
-1.57354e-05
2.65654e-05
-1.25866e-05
3.11315e-05
-9.47887e-06
3.48798e-05
-6.46814e-06
3.78118e-05
-3.60623e-06
3.99424e-05
-9.3981e-07
4.12993e-05
1.49086e-06
4.19232e-05
3.65303e-06
4.18672e-05
5.52254e-06
4.11957e-05
7.08451e-06
3.99822e-05
8.33385e-06
3.83073e-05
9.27516e-06
3.62555e-05
9.92228e-06
3.39122e-05
1.02972e-05
3.13604e-05
1.04285e-05
2.86781e-05
1.03498e-05
2.59354e-05
1.0097e-05
2.31933e-05
9.70728e-06
2.05023e-05
9.2163e-06
1.79025e-05
8.65703e-06
1.54238e-05
8.05808e-06
1.30872e-05
7.44234e-06
1.09066e-05
6.82573e-06
8.89104e-06
6.21601e-06
7.04664e-06
5.61207e-06
5.37974e-06
5.00383e-06
3.89899e-06
4.37349e-06
2.61758e-06
3.69879e-06
1.55479e-06
2.95887e-06
7.37431e-07
2.14366e-06
2.01768e-07
1.26597e-06
3.92389e-07
2.57779e-07
-8.31086e-07
9.17635e-07
-2.32522e-06
1.87591e-06
-3.58057e-06
3.03731e-06
-4.52906e-06
4.31096e-06
-5.13913e-06
5.61217e-06
-5.40827e-06
6.86548e-06
-5.3597e-06
8.00742e-06
-5.03639e-06
8.98841e-06
-4.49422e-06
9.7731e-06
-3.79496e-06
1.03396e-05
-2.99987e-06
1.06776e-05
-2.16435e-06
1.07854e-05
-1.33372e-06
1.06674e-05
-5.40454e-07
1.033e-05
1.97194e-07
9.77883e-06
8.7532e-07
9.01594e-06
1.50322e-06
8.03718e-06
2.10119e-06
6.83098e-06
2.69743e-06
5.37767e-06
3.32443e-06
3.64987e-06
4.0152e-06
1.61365e-06
4.79998e-06
-7.69781e-07
5.7036e-06
-3.54209e-06
6.74412e-06
-6.74577e-06
7.93241e-06
-1.04222e-05
9.27265e-06
-1.46099e-05
1.07632e-05
-1.93427e-05
1.23976e-05
-2.46477e-05
1.41646e-05
-3.05436e-05
1.60486e-05
-3.70386e-05
1.80292e-05
-4.41282e-05
2.00809e-05
-5.17938e-05
2.21728e-05
-6.00017e-05
2.4269e-05
-6.87022e-05
2.63293e-05
-7.78308e-05
2.83105e-05
-8.7309e-05
3.0168e-05
-9.70472e-05
3.18579e-05
-0.000106948
3.33386e-05
-0.000116908
3.45731e-05
-0.000126825
3.55304e-05
-0.000136599
3.61863e-05
-0.000146135
3.6524e-05
-0.000155348
3.65344e-05
-0.000164162
3.62153e-05
-0.000172513
3.55706e-05
-0.000180347
3.46095e-05
-0.000187621
3.33453e-05
-0.000194301
3.17941e-05
-0.000200362
2.99739e-05
-0.000205785
2.79039e-05
-0.000210557
2.56035e-05
-0.000214669
2.30921e-05
-0.000218115
2.03886e-05
-0.000220892
1.75112e-05
-0.000222996
1.44773e-05
-0.000224427
1.13041e-05
-0.000225183
8.00793e-06
-0.000225262
4.60525e-06
-0.000224663
1.11269e-06
-0.000223384
-2.45275e-06
-0.000221424
-6.07292e-06
-0.00021878
-9.72836e-06
-0.000215453
-1.33978e-05
-0.000211443
-1.70578e-05
-0.000206752
-2.06823e-05
-0.000201385
-2.42426e-05
-0.00019535
-2.77072e-05
-0.000188658
-3.10413e-05
-0.000181327
-3.42077e-05
-0.00017338
-3.71664e-05
-0.000164846
-3.98757e-05
-0.000155761
-4.22929e-05
-0.000146172
-4.43755e-05
-0.000136133
-4.6082e-05
-0.000125706
-4.73743e-05
-0.000114963
-4.82185e-05
-0.000103985
-4.85875e-05
-9.28583e-05
-4.84621e-05
-8.16766e-05
-4.78324e-05
-7.0537e-05
-4.66996e-05
-5.95384e-05
-4.50764e-05
-4.87795e-05
-4.29868e-05
-3.83561e-05
-4.04665e-05
-2.83591e-05
-3.75614e-05
-1.88721e-05
-3.43262e-05
-9.97054e-06
-3.08227e-05
-1.71981e-06
-2.71174e-05
5.82487e-06
-2.328e-05
1.2619e-05
-1.93807e-05
1.86289e-05
-1.54887e-05
2.38314e-05
-1.16707e-05
2.82145e-05
-7.9893e-06
3.17769e-05
-4.50218e-06
3.45286e-05
-1.26087e-06
3.64913e-05
1.69031e-06
3.76986e-05
4.31528e-06
3.81958e-05
6.58731e-06
3.80397e-05
8.48992e-06
3.72973e-05
1.00175e-05
3.60441e-05
1.11756e-05
3.4361e-05
1.19803e-05
3.23321e-05
1.24574e-05
3.00409e-05
1.26409e-05
2.75677e-05
1.25703e-05
2.4986e-05
1.22889e-05
2.23615e-05
1.18408e-05
1.975e-05
1.12686e-05
1.7197e-05
1.06111e-05
1.47383e-05
9.90098e-06
1.24012e-05
9.1629e-06
1.02056e-05
8.41153e-06
8.16735e-06
7.65036e-06
6.29995e-06
6.87123e-06
4.61811e-06
6.05533e-06
3.14055e-06
5.17634e-06
1.89337e-06
4.20605e-06
9.13886e-07
3.12314e-06
2.55777e-07
1.92408e-06
6.48166e-07
2.83878e-07
-1.11496e-06
1.00447e-06
-3.04581e-06
2.03942e-06
-4.61552e-06
3.27555e-06
-5.7652e-06
4.60766e-06
-6.47124e-06
5.94075e-06
-6.74136e-06
7.19286e-06
-6.6118e-06
8.29725e-06
-6.14079e-06
9.2034e-06
-5.40037e-06
9.87649e-06
-4.46804e-06
1.02956e-05
-3.419e-06
1.04511e-05
-2.3198e-06
1.03409e-05
-1.22355e-06
9.96734e-06
-1.66904e-07
9.33319e-06
8.31351e-07
8.43842e-06
1.77009e-06
7.27749e-06
2.66415e-06
5.83734e-06
3.54134e-06
4.0964e-06
4.43837e-06
2.02468e-06
5.39615e-06
-4.15218e-07
6.4551e-06
-3.26619e-06
7.65095e-06
-6.5743e-06
9.01171e-06
-1.03862e-05
1.05561e-05
-1.47468e-05
1.2293e-05
-1.96965e-05
1.42224e-05
-2.52692e-05
1.6336e-05
-3.14898e-05
1.86182e-05
-3.83718e-05
2.10466e-05
-4.59149e-05
2.35917e-05
-5.4103e-05
2.62172e-05
-6.29022e-05
2.88801e-05
-7.22607e-05
3.15313e-05
-8.21088e-05
3.41171e-05
-9.23605e-05
3.6581e-05
-0.000102917
3.88667e-05
-0.000113669
4.09201e-05
-0.000124503
4.26924e-05
-0.000135307
4.41423e-05
-0.000145971
4.52372e-05
-0.000156395
4.59543e-05
-0.000166489
4.62805e-05
-0.000176177
4.62121e-05
-0.000185396
4.57534e-05
-0.000194096
4.49152e-05
-0.00020224
4.37137e-05
-0.000209799
4.21686e-05
-0.000216755
4.03017e-05
-0.000223097
3.81363e-05
-0.000228819
3.56955e-05
-0.000233917
3.3002e-05
-0.000238391
3.00777e-05
-0.000242242
2.69431e-05
-0.000245471
2.36175e-05
-0.000248079
2.01188e-05
-0.000250065
1.64638e-05
-0.00025143
1.26687e-05
-0.000252171
8.74876e-06
-0.000252285
4.71925e-06
-0.000251768
5.95707e-07
-0.000250614
-3.60588e-06
-0.000248819
-7.86813e-06
-0.000246375
-1.21721e-05
-0.000243277
-1.64967e-05
-0.000239516
-2.08182e-05
-0.000235089
-2.51099e-05
-0.00022999
-2.93414e-05
-0.000224218
-3.3479e-05
-0.000217774
-3.74849e-05
-0.000210665
-4.13174e-05
-0.000202899
-4.49316e-05
-0.000194496
-4.82793e-05
-0.000185478
-5.13102e-05
-0.000175881
-5.3973e-05
-0.000165746
-5.62168e-05
-0.000155127
-5.7993e-05
-0.000144089
-5.92572e-05
-0.000132705
-5.99716e-05
-0.00012106
-6.01068e-05
-0.000109248
-5.96445e-05
-9.73689e-05
-5.85787e-05
-8.55278e-05
-5.69174e-05
-7.38317e-05
-5.46829e-05
-6.23864e-05
-5.19119e-05
-5.12935e-05
-4.86543e-05
-4.06479e-05
-4.49718e-05
-3.05353e-05
-4.09353e-05
-2.10306e-05
-3.66221e-05
-1.2197e-05
-3.21136e-05
-4.08587e-06
-2.74919e-05
3.26313e-06
-2.28377e-05
9.82106e-06
-1.82286e-05
1.55691e-05
-1.37374e-05
2.0498e-05
-9.43103e-06
2.46074e-05
-5.37026e-06
2.79063e-05
-1.6086e-06
3.04133e-05
1.80827e-06
3.21572e-05
4.84343e-06
3.31774e-05
7.46972e-06
3.35241e-05
9.67077e-06
3.32578e-05
1.14418e-05
3.2448e-05
1.27901e-05
3.1171e-05
1.37345e-05
2.95072e-05
1.43046e-05
2.75385e-05
1.4539e-05
2.53446e-05
1.44829e-05
2.30002e-05
1.41852e-05
2.0573e-05
1.36957e-05
1.81221e-05
1.3062e-05
1.56972e-05
1.23259e-05
1.33387e-05
1.15214e-05
1.10793e-05
1.0671e-05
8.94545e-06
9.78417e-06
6.96036e-06
8.85632e-06
5.14686e-06
7.86883e-06
3.53145e-06
6.79176e-06
2.14876e-06
5.58874e-06
1.04727e-06
4.22463e-06
2.96439e-07
2.67491e-06
9.44605e-07
3.05049e-07
-1.42001e-06
1.07217e-06
-3.81294e-06
2.16103e-06
-5.70437e-06
3.4412e-06
-7.04537e-06
4.79338e-06
-7.82342e-06
6.11257e-06
-8.06054e-06
7.31089e-06
-7.81012e-06
8.31927e-06
-7.14917e-06
9.0874e-06
-6.1685e-06
9.5821e-06
-4.96274e-06
9.78437e-06
-3.62127e-06
9.68563e-06
-2.22106e-06
9.28355e-06
-8.2147e-07
8.57785e-06
5.38795e-07
7.56644e-06
1.84277e-06
6.2421e-06
3.09443e-06
4.59008e-06
4.31618e-06
2.58666e-06
5.54476e-06
1.99011e-07
6.82602e-06
-2.61384e-06
8.209e-06
-5.89893e-06
9.74019e-06
-9.70658e-06
1.14586e-05
-1.40873e-05
1.33924e-05
-1.90884e-05
1.55572e-05
-2.47513e-05
1.79559e-05
-3.11083e-05
2.05794e-05
-3.81801e-05
2.34077e-05
-4.59726e-05
2.64107e-05
-5.44747e-05
2.95487e-05
-6.36561e-05
3.27731e-05
-7.34661e-05
3.60272e-05
-8.38334e-05
3.92474e-05
-9.46678e-05
4.23657e-05
-0.000105863
4.53124e-05
-0.000117302
4.80199e-05
-0.000128861
5.04255e-05
-0.000140416
5.24753e-05
-0.000151849
5.41258e-05
-0.000163053
5.53456e-05
-0.000173931
5.61155e-05
-0.000184405
5.64281e-05
-0.00019441
5.62862e-05
-0.0002039
5.57013e-05
-0.000212838
5.46914e-05
-0.000221202
5.32791e-05
-0.000228978
5.14898e-05
-0.000236159
4.93504e-05
-0.000242746
4.68879e-05
-0.000248738
4.41289e-05
-0.000254141
4.10984e-05
-0.000258959
3.78201e-05
-0.000263197
3.43159e-05
-0.00026686
3.06056e-05
-0.00026995
2.67076e-05
-0.00027247
2.26386e-05
-0.00027442
1.84143e-05
-0.000275801
1.40491e-05
-0.000276609
9.55677e-06
-0.00027684
4.95111e-06
-0.000276491
2.4603e-07
-0.000275553
-4.54388e-06
-0.000274018
-9.4028e-06
-0.000271877
-1.43131e-05
-0.000269119
-1.92548e-05
-0.000265732
-2.4205e-05
-0.000261705
-2.91374e-05
-0.000257025
-3.40216e-05
-0.000251681
-3.8823e-05
-0.000245663
-4.35021e-05
-0.000238966
-4.80146e-05
-0.000231586
-5.23116e-05
-0.000223526
-5.63395e-05
-0.000214795
-6.00413e-05
-0.00020541
-6.33573e-05
-0.000195401
-6.62266e-05
-0.000184804
-6.85893e-05
-0.000173673
-7.03886e-05
-0.000162071
-7.15734e-05
-0.000150077
-7.21012e-05
-0.00013778
-7.1941e-05
-0.000125283
-7.10757e-05
-0.000112697
-6.95041e-05
-0.000100137
-6.72427e-05
-8.77229e-05
-6.43258e-05
-7.55724e-05
-6.08049e-05
-6.3797e-05
-5.67472e-05
-5.24994e-05
-5.22328e-05
-4.17704e-05
-4.73512e-05
-3.16865e-05
-4.21975e-05
-2.23095e-05
-3.68688e-05
-1.36869e-05
-3.14604e-05
-5.85217e-06
-2.60633e-05
1.17262e-06
-2.07622e-05
7.37572e-06
-1.56341e-05
1.27539e-05
-1.07484e-05
1.73114e-05
-6.16614e-06
2.10598e-05
-1.94011e-06
2.4018e-05
1.88526e-06
2.6213e-05
5.27467e-06
2.7681e-05
8.20278e-06
2.84676e-05
1.06553e-05
2.8628e-05
1.26297e-05
2.82264e-05
1.41361e-05
2.73342e-05
1.51968e-05
2.60279e-05
1.58454e-05
2.4386e-05
1.61247e-05
2.24865e-05
1.60847e-05
2.04034e-05
1.57788e-05
1.8205e-05
1.52604e-05
1.5952e-05
1.4579e-05
1.36967e-05
1.37766e-05
1.14839e-05
1.28838e-05
9.35138e-06
1.19167e-05
7.33294e-06
1.08748e-05
5.46114e-06
9.74063e-06
3.77169e-06
8.4812e-06
2.30873e-06
7.05171e-06
1.1314e-06
5.40196e-06
3.22014e-07
3.4843e-06
1.26662e-06
3.22809e-07
-1.74282e-06
1.12451e-06
-4.61464e-06
2.24613e-06
-6.82599e-06
3.54019e-06
-8.33943e-06
4.87381e-06
-9.15704e-06
6.13279e-06
-9.31951e-06
7.22445e-06
-8.90178e-06
8.07863e-06
-8.00335e-06
8.64647e-06
-6.73635e-06
8.89745e-06
-5.21372e-06
8.81509e-06
-3.53892e-06
8.39208e-06
-1.79804e-06
7.6252e-06
-5.45932e-08
6.5107e-06
1.65329e-06
5.04023e-06
3.31324e-06
3.19781e-06
4.93685e-06
9.57965e-07
6.55602e-06
-1.71474e-06
8.21747e-06
-4.86475e-06
9.97602e-06
-8.54319e-06
1.18874e-05
-1.28046e-05
1.40016e-05
-1.77032e-05
1.63572e-05
-2.32886e-05
1.89778e-05
-2.96023e-05
2.18709e-05
-3.6674e-05
2.50276e-05
-4.45186e-05
2.8424e-05
-5.31329e-05
3.2022e-05
-6.24933e-05
3.57711e-05
-7.25539e-05
3.96093e-05
-8.32459e-05
4.34651e-05
-9.44787e-05
4.72599e-05
-0.000106142
5.0911e-05
-0.000118113
5.43361e-05
-0.000130258
5.74573e-05
-0.000142443
6.02051e-05
-0.00015454
6.25223e-05
-0.00016643
6.43654e-05
-0.00017801
6.57061e-05
-0.000189195
6.65303e-05
-0.000199916
6.68372e-05
-0.000210125
6.66365e-05
-0.000219785
6.59467e-05
-0.000228876
6.47922e-05
-0.000237386
6.32013e-05
-0.000245311
6.12045e-05
-0.000252654
5.88325e-05
-0.000259419
5.61157e-05
-0.000265615
5.30833e-05
-0.000271249
4.97627e-05
-0.000276329
4.61792e-05
-0.000280865
4.23562e-05
-0.000284864
3.83146e-05
-0.000288332
3.40737e-05
-0.000291275
2.96506e-05
-0.000293698
2.50608e-05
-0.000295602
2.03184e-05
-0.000296989
1.54365e-05
-0.00029786
1.04272e-05
-0.000298211
5.30242e-06
-0.000298039
7.38638e-08
-0.000297337
-5.24542e-06
-0.000296098
-1.06423e-05
-0.00029431
-1.61012e-05
-0.00029196
-2.16045e-05
-0.000289033
-2.71314e-05
-0.000285513
-3.26575e-05
-0.000281381
-3.81542e-05
-0.000276616
-4.35876e-05
-0.000271199
-4.89188e-05
-0.000265111
-5.41028e-05
-0.000258334
-5.90886e-05
-0.000250854
-6.38194e-05
-0.000242663
-6.82329e-05
-0.000233758
-7.22623e-05
-0.000224147
-7.58374e-05
-0.000213849
-7.8887e-05
-0.000202897
-8.13406e-05
-0.000191338
-8.31322e-05
-0.000179237
-8.42028e-05
-0.000166673
-8.45045e-05
-0.000153745
-8.40038e-05
-0.000140564
-8.26849e-05
-0.000127255
-8.05521e-05
-0.000113949
-7.76314e-05
-0.000100783
-7.3971e-05
-8.78908e-05
-6.96395e-05
-7.53993e-05
-6.47242e-05
-6.34241e-05
-5.93264e-05
-5.20648e-05
-5.35569e-05
-4.14027e-05
-4.75309e-05
-3.15002e-05
-4.13629e-05
-2.24012e-05
-3.51623e-05
-1.41329e-05
-2.90304e-05
-6.70892e-06
-2.30582e-05
-1.3165e-07
-1.73257e-05
5.60456e-06
-1.19023e-05
1.05117e-05
-6.84728e-06
1.46072e-05
-2.21021e-06
1.79136e-05
1.9683e-06
2.04594e-05
5.65696e-06
2.22802e-05
8.83447e-06
2.34194e-05
1.14905e-05
2.3929e-05
1.36265e-05
2.38693e-05
1.52566e-05
2.33074e-05
1.64072e-05
2.23159e-05
1.71162e-05
2.09702e-05
1.74305e-05
1.93454e-05
1.74036e-05
1.75143e-05
1.70915e-05
1.55445e-05
1.65488e-05
1.34976e-05
1.58235e-05
1.14285e-05
1.49529e-05
9.38582e-06
1.39594e-05
7.41386e-06
1.28467e-05
5.5555e-06
1.1599e-05
3.85626e-06
1.01804e-05
2.36979e-06
8.53819e-06
1.16458e-06
6.60716e-06
3.32077e-07
4.3168e-06
1.5987e-06
3.37608e-07
-2.08043e-06
1.16231e-06
-5.43934e-06
2.29517e-06
-7.95885e-06
3.57174e-06
-9.61601e-06
4.84642e-06
-1.04317e-05
5.99714e-06
-1.04702e-05
6.92804e-06
-9.83268e-06
7.56944e-06
-8.64475e-06
7.87529e-06
-7.04219e-06
7.81856e-06
-5.15699e-06
7.38559e-06
-3.10594e-06
6.56995e-06
-9.82401e-07
5.36664e-06
1.14871e-06
3.76707e-06
3.25287e-06
1.75508e-06
5.32523e-06
-6.95537e-07
7.38747e-06
-3.62194e-06
9.48242e-06
-7.07137e-06
1.16669e-05
-1.10987e-05
1.40034e-05
-1.57626e-05
1.65513e-05
-2.11208e-05
1.93598e-05
-2.72253e-05
2.24616e-05
-3.41175e-05
2.587e-05
-4.1824e-05
2.95775e-05
-5.03533e-05
3.35569e-05
-5.9692e-05
3.77627e-05
-6.98032e-05
4.21332e-05
-8.06248e-05
4.65927e-05
-9.20699e-05
5.10544e-05
-0.000104029
5.54244e-05
-0.000116375
5.96058e-05
-0.000128968
6.35041e-05
-0.000141665
6.70324e-05
-0.000154323
7.01161e-05
-0.000166814
7.26962e-05
-0.000179023
7.47308e-05
-0.000190853
7.61956e-05
-0.000202229
7.70824e-05
-0.000213096
7.73968e-05
-0.000223414
7.71553e-05
-0.00023316
7.63827e-05
-0.000242322
7.51089e-05
-0.000250898
7.33673e-05
-0.000258889
7.11923e-05
-0.000266302
6.86183e-05
-0.000273149
6.56789e-05
-0.000279439
6.24059e-05
-0.000285185
5.88291e-05
-0.000290398
5.49762e-05
-0.000295092
5.08725e-05
-0.000299276
4.65409e-05
-0.000302964
4.20021e-05
-0.000306164
3.72743e-05
-0.000308888
3.23738e-05
-0.000311142
2.73152e-05
-0.000312935
2.21109e-05
-0.000314271
1.67725e-05
-0.000315154
1.13102e-05
-0.000315585
5.73371e-06
-0.000315563
5.18851e-08
-0.000315084
-5.72387e-06
-0.000314142
-1.15845e-05
-0.000312726
-1.75172e-05
-0.000310823
-2.35076e-05
-0.000308416
-2.95384e-05
-0.000305485
-3.55888e-05
-0.000302006
-4.16333e-05
-0.000297952
-4.76414e-05
-0.000293295
-5.35763e-05
-0.000288002
-5.9395e-05
-0.000282044
-6.50472e-05
-0.000275388
-7.04752e-05
-0.000268007
-7.56143e-05
-0.000259876
-8.03927e-05
-0.00025098
-8.47333e-05
-0.000241313
-8.85544e-05
-0.000230881
-9.17728e-05
-0.000219707
-9.43064e-05
-0.000207832
-9.60779e-05
-0.000195317
-9.7019e-05
-0.000182246
-9.70747e-05
-0.000168723
-9.62079e-05
-0.000154872
-9.44034e-05
-0.000140833
-9.16706e-05
-0.000126758
-8.8046e-05
-0.000112804
-8.35928e-05
-9.91293e-05
-7.83993e-05
-8.58806e-05
-7.25751e-05
-7.31915e-05
-6.62459e-05
-6.11755e-05
-5.95469e-05
-4.99225e-05
-5.2616e-05
-3.94977e-05
-4.55871e-05
-2.99429e-05
-3.85852e-05
-2.12791e-05
-3.1722e-05
-1.35101e-05
-2.50946e-05
-6.62769e-06
-1.87848e-05
-6.14648e-07
-1.28603e-05
4.55147e-06
-7.37633e-06
8.89681e-06