/*--------------------------------*- C++ -*----------------------------------*\
| =========                 |                                                 |
| \\      /  F ield         | OpenFOAM: The Open Source CFD Toolbox           |
|  \\    /   O peration     | Version:  2406                                  |
|   \\  /    A nd           | Website:  www.openfoam.com                      |
|    \\/     M anipulation  |                                                 |
\*---------------------------------------------------------------------------*/
FoamFile
{
    version     2.0;
    format      ascii;
    arch        "LSB;label=32;scalar=64";
    class       volVectorField;
    location    "3.8";
    object      U;
}
// * * * * * * * * * * * * * * * * * * * * * * * * * * * * * * * * * * * * * //

dimensions      [0 1 -1 0 0 0 0];

internalField   nonuniform List<vector> 
3600
(
(5.85286e-06 -5.70788e-06 0)
(-3.84951e-05 2.00062e-05 0)
(-0.000145689 3.77748e-05 0)
(-0.00028828 4.91925e-05 0)
(-0.000457292 5.30471e-05 0)
(-0.000631759 5.47381e-05 0)
(-0.00081338 5.42548e-05 0)
(-0.000991733 5.38295e-05 0)
(-0.00117159 5.29017e-05 0)
(-0.00134729 5.23074e-05 0)
(-0.00152285 5.15015e-05 0)
(-0.00169461 5.08664e-05 0)
(-0.00186519 5.00381e-05 0)
(-0.002032 4.92376e-05 0)
(-0.00219655 4.82416e-05 0)
(-0.00235695 4.71861e-05 0)
(-0.00251393 4.59303e-05 0)
(-0.00266602 4.45559e-05 0)
(-0.00281345 4.297e-05 0)
(-0.002955 4.12198e-05 0)
(-0.00309051 3.92421e-05 0)
(-0.00321891 3.70633e-05 0)
(-0.0033398 3.46403e-05 0)
(-0.00345217 3.19884e-05 0)
(-0.00355543 2.90794e-05 0)
(-0.00364863 2.59249e-05 0)
(-0.00373108 2.25096e-05 0)
(-0.00380187 1.88469e-05 0)
(-0.00386028 1.49337e-05 0)
(-0.0039055 1.07898e-05 0)
(-0.00393681 6.42467e-06 0)
(-0.00395355 1.86776e-06 0)
(-0.0039551 -2.85936e-06 0)
(-0.00394102 -7.71514e-06 0)
(-0.00391086 -1.26676e-05 0)
(-0.00386444 -1.76623e-05 0)
(-0.00380154 -2.26609e-05 0)
(-0.00372235 -2.75969e-05 0)
(-0.00362688 -3.24324e-05 0)
(-0.00351574 -3.70907e-05 0)
(-0.00338918 -4.15447e-05 0)
(-0.00324827 -4.57094e-05 0)
(-0.00309337 -4.95827e-05 0)
(-0.0029261 -5.30697e-05 0)
(-0.00274677 -5.62121e-05 0)
(-0.00255755 -5.88978e-05 0)
(-0.00235846 -6.12371e-05 0)
(-0.0021523 -6.3082e-05 0)
(-0.00193848 -6.4645e-05 0)
(-0.00172058 -6.56965e-05 0)
(-0.00149707 -6.65834e-05 0)
(-0.00127276 -6.68619e-05 0)
(-0.00104523 -6.69782e-05 0)
(-0.00082187 -6.58646e-05 0)
(-0.000600978 -6.37915e-05 0)
(-0.000396013 -5.80126e-05 0)
(-0.000211078 -4.8184e-05 0)
(-7.06044e-05 -2.88663e-05 0)
(1.12957e-05 -4.10281e-06 0)
(1.92368e-05 1.95527e-05 0)
(-2.04183e-05 3.87773e-05 0)
(-0.000168579 0.000166295 0)
(-0.000436996 0.000254895 0)
(-0.000772319 0.000314357 0)
(-0.00116289 0.000342668 0)
(-0.00157122 0.000357115 0)
(-0.00199684 0.000360299 0)
(-0.00242056 0.00036032 0)
(-0.00284741 0.000357213 0)
(-0.00326759 0.000353898 0)
(-0.00368613 0.000349455 0)
(-0.00409712 0.000344934 0)
(-0.00450392 0.000339523 0)
(-0.00490241 0.000333692 0)
(-0.00529439 0.000326899 0)
(-0.00567672 0.000319386 0)
(-0.00605007 0.000310794 0)
(-0.00641186 0.00030124 0)
(-0.00676194 0.000290473 0)
(-0.00709806 0.000278537 0)
(-0.00741947 0.000265248 0)
(-0.00772406 0.000250614 0)
(-0.00801068 0.000234501 0)
(-0.00827729 0.000216905 0)
(-0.00852242 0.000197738 0)
(-0.00874409 0.000177007 0)
(-0.00894067 0.000154676 0)
(-0.00911025 0.00013078 0)
(-0.00925114 0.000105339 0)
(-0.00936159 7.8437e-05 0)
(-0.00944003 5.01573e-05 0)
(-0.00948495 2.06434e-05 0)
(-0.00949501 -9.95358e-06 0)
(-0.00946913 -4.14236e-05 0)
(-0.00940632 -7.35518e-05 0)
(-0.00930608 -0.000106063 0)
(-0.00916789 -0.000138695 0)
(-0.00899195 -0.000171118 0)
(-0.0087783 -0.000203048 0)
(-0.00852795 -0.000234125 0)
(-0.00824146 -0.000264085 0)
(-0.00792074 -0.00029256 0)
(-0.00756677 -0.000319357 0)
(-0.00718237 -0.000344122 0)
(-0.00676868 -0.000366795 0)
(-0.0063295 -0.000387036 0)
(-0.0058657 -0.000404984 0)
(-0.00538214 -0.000420261 0)
(-0.00487897 -0.000433265 0)
(-0.00436237 -0.000443388 0)
(-0.00383139 -0.000451217 0)
(-0.00329455 -0.000455282 0)
(-0.00275033 -0.000455836 0)
(-0.00221259 -0.000448769 0)
(-0.00168242 -0.000432598 0)
(-0.00118573 -0.000397142 0)
(-0.00073301 -0.00033872 0)
(-0.00036911 -0.000240887 0)
(-0.000112799 -0.000117119 0)
(-3.39051e-06 1.17632e-05 0)
(-4.02802e-05 0.000149922 0)
(-0.000266647 0.000438188 0)
(-0.000655935 0.00063855 0)
(-0.00112734 0.00077124 0)
(-0.00167031 0.000841429 0)
(-0.00223658 0.000877565 0)
(-0.00282598 0.000889045 0)
(-0.00341418 0.000890395 0)
(-0.00400643 0.000884471 0)
(-0.00459046 0.000876389 0)
(-0.00517155 0.000865757 0)
(-0.00574251 0.000854095 0)
(-0.00630681 0.000840493 0)
(-0.00685948 0.000825443 0)
(-0.00740226 0.000808238 0)
(-0.00793135 0.00078905 0)
(-0.00844717 0.000767376 0)
(-0.00894657 0.000743239 0)
(-0.00942904 0.000716263 0)
(-0.00989174 0.000686395 0)
(-0.0103335 0.000653341 0)
(-0.0107516 0.000617016 0)
(-0.0111445 0.000577201 0)
(-0.0115094 0.000533821 0)
(-0.0118444 0.000486734 0)
(-0.0121469 0.000435914 0)
(-0.0124146 0.000381316 0)
(-0.0126452 0.000322997 0)
(-0.0128364 0.000261033 0)
(-0.0129859 0.000195597 0)
(-0.0130916 0.000126903 0)
(-0.0131516 5.52652e-05 0)
(-0.0131641 -1.89492e-05 0)
(-0.0131278 -9.52749e-05 0)
(-0.0130413 -0.000173198 0)
(-0.012904 -0.000252111 0)
(-0.0127153 -0.000331381 0)
(-0.0124753 -0.00041029 0)
(-0.0121842 -0.000488141 0)
(-0.0118431 -0.000564161 0)
(-0.0114531 -0.000637668 0)
(-0.0110163 -0.000707901 0)
(-0.0105342 -0.000774294 0)
(-0.0100103 -0.00083616 0)
(-0.00944622 -0.000893158 0)
(-0.00884667 -0.000944705 0)
(-0.00821315 -0.000990783 0)
(-0.00755155 -0.00103085 0)
(-0.00686265 -0.00106523 0)
(-0.00615398 -0.00109305 0)
(-0.00542518 -0.00111462 0)
(-0.00468675 -0.00112742 0)
(-0.0039379 -0.00113024 0)
(-0.00319604 -0.00111538 0)
(-0.00246342 -0.00107673 0)
(-0.00177286 -0.000995658 0)
(-0.00113626 -0.000860538 0)
(-0.000611723 -0.000645458 0)
(-0.000217939 -0.000366755 0)
(-2.39118e-05 -6.25347e-05 0)
(-5.4338e-05 0.000303019 0)
(-0.000338641 0.000787987 0)
(-0.000814658 0.00111676 0)
(-0.00137922 0.00132915 0)
(-0.00202387 0.00144584 0)
(-0.00269295 0.00150621 0)
(-0.00338855 0.00152782 0)
(-0.0040828 0.00153111 0)
(-0.00478192 0.00152227 0)
(-0.00547168 0.00150855 0)
(-0.00615772 0.00149036 0)
(-0.00683174 0.00146972 0)
(-0.00749734 0.00144574 0)
(-0.00814886 0.00141895 0)
(-0.00878801 0.0013885 0)
(-0.00941048 0.0013545 0)
(-0.0100166 0.00131631 0)
(-0.0106027 0.00127384 0)
(-0.0111682 0.0012266 0)
(-0.0117098 0.00117442 0)
(-0.0122261 0.0011169 0)
(-0.012714 0.00105384 0)
(-0.0131717 0.000984942 0)
(-0.0135959 0.000910056 0)
(-0.0139846 0.000828984 0)
(-0.0143347 0.000741674 0)
(-0.0146437 0.000648078 0)
(-0.0149089 0.000548288 0)
(-0.0151276 0.000442448 0)
(-0.0152974 0.000330846 0)
(-0.0154158 0.000213852 0)
(-0.0154807 9.19871e-05 0)
(-0.0154902 -3.41305e-05 0)
(-0.0154426 -0.000163735 0)
(-0.0153366 -0.000295965 0)
(-0.0151715 -0.000429826 0)
(-0.0149466 -0.000564262 0)
(-0.0146622 -0.000698103 0)
(-0.0143185 -0.000830182 0)
(-0.013917 -0.00095925 0)
(-0.0134588 -0.00108416 0)
(-0.0129464 -0.00120368 0)
(-0.0123817 -0.00131685 0)
(-0.0117685 -0.00142257 0)
(-0.0111091 -0.00152021 0)
(-0.0104085 -0.00160889 0)
(-0.00966883 -0.0016884 0)
(-0.0088966 -0.001758 0)
(-0.00809299 -0.00181788 0)
(-0.00726646 -0.00186685 0)
(-0.00641695 -0.00190482 0)
(-0.00555637 -0.00192813 0)
(-0.00468401 -0.00193378 0)
(-0.00381962 -0.00191053 0)
(-0.00296507 -0.00184705 0)
(-0.00215719 -0.00171692 0)
(-0.00140625 -0.0014988 0)
(-0.000778637 -0.00115765 0)
(-0.000291547 -0.000703074 0)
(-3.77795e-05 -0.00018231 0)
(-6.09692e-05 0.00048988 0)
(-0.000380649 0.00120573 0)
(-0.000913952 0.00168087 0)
(-0.00154092 0.00198131 0)
(-0.00225357 0.0021493 0)
(-0.00299002 0.00223595 0)
(-0.00375444 0.00226883 0)
(-0.00451642 0.00227405 0)
(-0.00528348 0.00226185 0)
(-0.00604001 0.00224142 0)
(-0.00679228 0.00221431 0)
(-0.00753113 0.00218292 0)
(-0.0082604 0.00214654 0)
(-0.00897391 0.00210568 0)
(-0.00967343 0.00205942 0)
(-0.0103543 0.00200775 0)
(-0.0110167 0.00194992 0)
(-0.0116568 0.00188572 0)
(-0.0122739 0.00181451 0)
(-0.0128644 0.00173602 0)
(-0.0134267 0.00164972 0)
(-0.0139577 0.0015553 0)
(-0.014455 0.00145237 0)
(-0.0149156 0.00134069 0)
(-0.0153368 0.00122002 0)
(-0.0157157 0.00109027 0)
(-0.0160493 0.000951391 0)
(-0.0163348 0.000803525 0)
(-0.0165694 0.000646898 0)
(-0.0167502 0.000481926 0)
(-0.0168749 0.000309166 0)
(-0.016941 0.000129371 0)
(-0.0169465 -5.65476e-05 0)
(-0.0168897 -0.000247479 0)
(-0.0167691 -0.000442162 0)
(-0.016584 -0.000639159 0)
(-0.0163337 -0.000836923 0)
(-0.0160186 -0.00103377 0)
(-0.0156391 -0.00122799 0)
(-0.0151966 -0.00141779 0)
(-0.0146925 -0.00160147 0)
(-0.0141298 -0.00177732 0)
(-0.0135105 -0.00194384 0)
(-0.0128388 -0.00209956 0)
(-0.0121174 -0.00224342 0)
(-0.0113517 -0.00237429 0)
(-0.0105443 -0.00249169 0)
(-0.00970209 -0.0025947 0)
(-0.00882664 -0.00268331 0)
(-0.00792708 -0.00275608 0)
(-0.00700339 -0.00281228 0)
(-0.00606843 -0.00284727 0)
(-0.00512117 -0.00285581 0)
(-0.00418283 -0.00282328 0)
(-0.00325435 -0.00273225 0)
(-0.00237532 -0.00254861 0)
(-0.00155462 -0.00223928 0)
(-0.000865337 -0.00175937 0)
(-0.000325015 -0.00110617 0)
(-4.19131e-05 -0.000332175 0)
(-6.49898e-05 0.00068962 0)
(-0.000407443 0.00165498 0)
(-0.000977298 0.00228487 0)
(-0.00164443 0.00267572 0)
(-0.00240056 0.00289503 0)
(-0.00317952 0.00300719 0)
(-0.00398711 0.00305071 0)
(-0.00479116 0.00305727 0)
(-0.00560044 0.00304123 0)
(-0.00639833 0.00301352 0)
(-0.00719175 0.00297684 0)
(-0.0079709 0.00293392 0)
(-0.00873992 0.00288424 0)
(-0.00949218 0.00282826 0)
(-0.0102296 0.00276502 0)
(-0.0109472 0.00269441 0)
(-0.0116452 0.00261555 0)
(-0.0123196 0.00252812 0)
(-0.0129696 0.00243136 0)
(-0.0135914 0.00232485 0)
(-0.0141835 0.00220795 0)
(-0.0147424 0.00208025 0)
(-0.0152657 0.00194124 0)
(-0.0157503 0.00179062 0)
(-0.0161933 0.00162807 0)
(-0.0165916 0.00145348 0)
(-0.0169421 0.0012668 0)
(-0.0172418 0.00106822 0)
(-0.0174877 0.000858039 0)
(-0.0176768 0.000636816 0)
(-0.0178065 0.000405299 0)
(-0.0178742 0.000164487 0)
(-0.0178778 -8.43983e-05 0)
(-0.0178154 -0.000339882 0)
(-0.0176855 -0.000600277 0)
(-0.0174872 -0.000863672 0)
(-0.0172199 -0.00112799 0)
(-0.016884 -0.00139101 0)
(-0.0164797 -0.00165041 0)
(-0.016009 -0.00190384 0)
(-0.0154731 -0.002149 0)
(-0.0148754 -0.00238361 0)
(-0.0142181 -0.00260569 0)
(-0.0135059 -0.00281327 0)
(-0.0127416 -0.00300493 0)
(-0.0119314 -0.00317921 0)
(-0.0110779 -0.00333538 0)
(-0.0101887 -0.00347238 0)
(-0.00926562 -0.00358995 0)
(-0.00831836 -0.00368648 0)
(-0.00734695 -0.00376063 0)
(-0.006365 -0.00380688 0)
(-0.00537115 -0.00381778 0)
(-0.00438764 -0.00377558 0)
(-0.00341459 -0.00365659 0)
(-0.0024934 -0.00341906 0)
(-0.00163217 -0.00301702 0)
(-0.000908149 -0.00239407 0)
(-0.000339965 -0.00153243 0)
(-4.29302e-05 -0.000488267 0)
(-6.64305e-05 0.000902469 0)
(-0.000421503 0.0021333 0)
(-0.00101345 0.00292649 0)
(-0.00170603 0.00341216 0)
(-0.00249029 0.00368455 0)
(-0.00329684 0.00382269 0)
(-0.00413242 0.00387683 0)
(-0.00496351 0.00388444 0)
(-0.00579989 0.00386423 0)
(-0.00662424 0.0038288 0)
(-0.00744413 0.00378208 0)
(-0.00824929 0.00372703 0)
(-0.0090442 0.00366339 0)
(-0.00982193 0.00359152 0)
(-0.0105846 0.00351045 0)
(-0.0113269 0.00341993 0)
(-0.0120493 0.00331899 0)
(-0.0127476 0.00320714 0)
(-0.0134209 0.00308352 0)
(-0.0140654 0.00294756 0)
(-0.0146795 0.0027985 0)
(-0.0152595 0.0026358 0)
(-0.0158032 0.00245883 0)
(-0.016307 0.0022672 0)
(-0.0167682 0.00206052 0)
(-0.0171832 0.00183863 0)
(-0.017549 0.00160148 0)
(-0.0178623 0.00134927 0)
(-0.0181199 0.0010824 0)
(-0.0183187 0.000801557 0)
(-0.0184557 0.00050768 0)
(-0.0185283 0.000202028 0)
(-0.018534 -0.000113854 0)
(-0.0184707 -0.0004381 0)
(-0.0183368 -0.000768562 0)
(-0.0181312 -0.00110281 0)
(-0.0178533 -0.0014382 0)
(-0.0175032 -0.00177188 0)
(-0.0170815 -0.00210089 0)
(-0.01659 -0.00242222 0)
(-0.0160301 -0.0027329 0)
(-0.0154055 -0.00303006 0)
(-0.0147186 -0.00331108 0)
(-0.0139745 -0.00357354 0)
(-0.0131764 -0.00381553 0)
(-0.012331 -0.00403529 0)
(-0.0114411 -0.00423179 0)
(-0.0105152 -0.00440384 0)
(-0.00955517 -0.00455094 0)
(-0.00857134 -0.00467138 0)
(-0.00756386 -0.00476316 0)
(-0.00654695 -0.00482 0)
(-0.00551908 -0.00483212 0)
(-0.00450325 -0.00477866 0)
(-0.00349926 -0.00462933 0)
(-0.00254995 -0.00433435 0)
(-0.00166363 -0.00383412 0)
(-0.000920518 -0.00305962 0)
(-0.00034056 -0.00197819 0)
(-4.11279e-05 -0.000649864 0)
(-6.75151e-05 0.00111753 0)
(-0.000430821 0.00262116 0)
(-0.00103672 0.00358173 0)
(-0.00174583 0.00416401 0)
(-0.00254851 0.00448952 0)
(-0.00337335 0.0046532 0)
(-0.00422758 0.00471737 0)
(-0.0050768 0.0047256 0)
(-0.00593151 0.00470097 0)
(-0.00677393 0.0046577 0)
(-0.00761214 0.00460091 0)
(-0.00843556 0.00453377 0)
(-0.009249 0.00445621 0)
(-0.0100453 0.0043685 0)
(-0.0108267 0.00426967 0)
(-0.0115879 0.00415928 0)
(-0.0123294 0.00403629 0)
(-0.0130468 0.00390006 0)
(-0.0137394 0.00374958 0)
(-0.0144031 0.00358414 0)
(-0.0150364 0.00340283 0)
(-0.0156356 0.00320498 0)
(-0.0161982 0.00298983 0)
(-0.0167206 0.00275688 0)
(-0.0171998 0.00250564 0)
(-0.0176323 0.00223588 0)
(-0.0180148 0.00194752 0)
(-0.0183436 0.00164079 0)
(-0.0186155 0.00131613 0)
(-0.0188269 0.000974359 0)
(-0.0189748 0.000616592 0)
(-0.019056 0.00024434 0)
(-0.0190678 -0.000140519 0)
(-0.019008 -0.000535719 0)
(-0.0188744 -0.000938626 0)
(-0.018666 -0.00134626 0)
(-0.0183818 -0.00175535 0)
(-0.0180219 -0.00216238 0)
(-0.0175868 -0.00256367 0)
(-0.0170782 -0.00295548 0)
(-0.0164979 -0.00333411 0)
(-0.0158496 -0.00369598 0)
(-0.0151362 -0.00403783 0)
(-0.0143631 -0.00435667 0)
(-0.013534 -0.00465006 0)
(-0.012656 -0.00491595 0)
(-0.0117327 -0.00515295 0)
(-0.010773 -0.00535981 0)
(-0.00977917 -0.00553579 0)
(-0.00876233 -0.00567916 0)
(-0.00772282 -0.00578733 0)
(-0.00667544 -0.00585335 0)
(-0.00561873 -0.00586517 0)
(-0.00457634 -0.0057988 0)
(-0.00354814 -0.0056173 0)
(-0.00257804 -0.0052624 0)
(-0.00167501 -0.00466057 0)
(-0.000920937 -0.00372921 0)
(-0.000336963 -0.00242199 0)
(-3.92371e-05 -0.00080546 0)
(-6.7913e-05 0.00133832 0)
(-0.00043631 0.00312177 0)
(-0.00105155 0.0042539 0)
(-0.00177228 0.00493556 0)
(-0.00258833 0.00531546 0)
(-0.0034268 0.00550534 0)
(-0.00429519 0.00557974 0)
(-0.00515835 0.00558872 0)
(-0.00602735 0.00555976 0)
(-0.00688403 0.00550879 0)
(-0.00773693 0.00544212 0)
(-0.00857525 0.00536307 0)
(-0.00940412 0.00527183 0)
(-0.0102162 0.00516852 0)
(-0.0110141 0.00505216 0)
(-0.0117921 0.00492213 0)
(-0.0125511 0.00477731 0)
(-0.0132865 0.00461685 0)
(-0.0139976 0.00443964 0)
(-0.0146804 0.00424478 0)
(-0.0153332 0.0040312 0)
(-0.0159523 0.00379806 0)
(-0.0165351 0.00354447 0)
(-0.0170779 0.00326974 0)
(-0.0175776 0.0029733 0)
(-0.0180303 0.00265481 0)
(-0.0184325 0.00231413 0)
(-0.0187804 0.00195145 0)
(-0.0190703 0.00156726 0)
(-0.0192985 0.00116247 0)
(-0.0194613 0.000738367 0)
(-0.0195553 0.0002967 0)
(-0.0195775 -0.000160318 0)
(-0.019525 -0.000630002 0)
(-0.0193956 -0.0011092 0)
(-0.0191877 -0.00159434 0)
(-0.0189001 -0.00208145 0)
(-0.0185328 -0.00256627 0)
(-0.018086 -0.0030443 0)
(-0.0175615 -0.00351098 0)
(-0.0169613 -0.00396174 0)
(-0.0162892 -0.00439223 0)
(-0.0155486 -0.00479837 0)
(-0.0147453 -0.00517656 0)
(-0.0138835 -0.00552375 0)
(-0.0129711 -0.00583752 0)
(-0.0120123 -0.00611611 0)
(-0.0110167 -0.00635822 0)
(-0.00998722 -0.00656289 0)
(-0.00893564 -0.00672842 0)
(-0.00786276 -0.00685168 0)
(-0.00678396 -0.00692507 0)
(-0.00569812 -0.00693427 0)
(-0.00462947 -0.00685206 0)
(-0.00357839 -0.00663467 0)
(-0.00258965 -0.00621492 0)
(-0.00167338 -0.00550525 0)
(-0.000912502 -0.00440928 0)
(-0.000329044 -0.00286882 0)
(-3.65668e-05 -0.000959458 0)
(-6.85567e-05 0.00155947 0)
(-0.000441353 0.00362602 0)
(-0.00106409 0.00493202 0)
(-0.00179421 0.00571454 0)
(-0.00262112 0.00614937 0)
(-0.00347093 0.00636566 0)
(-0.00435126 0.00645028 0)
(-0.00522647 0.00646011 0)
(-0.00610799 0.00642698 0)
(-0.00697744 0.00636863 0)
(-0.00784373 0.00629249 0)
(-0.0086959 0.00620209 0)
(-0.00953936 0.00609779 0)
(-0.0103667 0.00597959 0)
(-0.0111806 0.00584645 0)
(-0.0119756 0.00569759 0)
(-0.0127523 0.00553177 0)
(-0.0135064 0.00534796 0)
(-0.014237 0.00514489 0)
(-0.0149403 0.00492145 0)
(-0.0156144 0.00467641 0)
(-0.0162556 0.00440873 0)
(-0.0168611 0.00411733 0)
(-0.0174271 0.00380136 0)
(-0.0179504 0.00346006 0)
(-0.0184268 0.00309296 0)
(-0.0188525 0.00269983 0)
(-0.0192235 0.00228077 0)
(-0.0195355 0.0018363 0)
(-0.0197845 0.00136735 0)
(-0.0199664 0.000875362 0)
(-0.0200774 0.000362306 0)
(-0.0201137 -0.000169277 0)
(-0.0200721 -0.000716278 0)
(-0.0199499 -0.001275 0)
(-0.019745 -0.00184122 0)
(-0.0194559 -0.0024102 0)
(-0.0190822 -0.00297686 0)
(-0.018624 -0.00353577 0)
(-0.0180831 -0.00408141 0)
(-0.0174616 -0.00460822 0)
(-0.0167635 -0.00511091 0)
(-0.0159927 -0.00558449 0)
(-0.0151555 -0.00602462 0)
(-0.014257 -0.00642752 0)
(-0.0133058 -0.00679038 0)
(-0.0123069 -0.00711103 0)
(-0.0112707 -0.00738815 0)
(-0.0102012 -0.00762056 0)
(-0.00911084 -0.00780672 0)
(-0.0080011 -0.007943 0)
(-0.00688798 -0.00802128 0)
(-0.00577096 -0.00802496 0)
(-0.00467479 -0.00792357 0)
(-0.00360062 -0.00766637 0)
(-0.00259389 -0.007177 0)
(-0.00166603 -0.00635378 0)
(-0.000900425 -0.00508666 0)
(-0.000319824 -0.00330745 0)
(-3.39951e-05 -0.00110519 0)
(-6.90373e-05 0.00178436 0)
(-0.000445668 0.00413819 0)
(-0.00107524 0.00562072 0)
(-0.00181395 0.00650609 0)
(-0.00265098 0.00699704 0)
(-0.00351155 0.00724059 0)
(-0.00440336 0.00733598 0)
(-0.00529036 0.00734714 0)
(-0.00618428 0.00731033 0)
(-0.00706654 0.00724516 0)
(-0.00794637 0.00716016 0)
(-0.00881274 0.0070591 0)
(-0.0096713 0.0069425 0)
(-0.0105146 0.00681021 0)
(-0.0113456 0.00666117 0)
(-0.0121586 0.0064944 0)
(-0.0129545 0.00630852 0)
(-0.0137289 0.00610231 0)
(-0.0144811 0.00587431 0)
(-0.0152071 0.0056232 0)
(-0.0159052 0.00534754 0)
(-0.0165713 0.00504604 0)
(-0.0172028 0.00471743 0)
(-0.0177956 0.0043606 0)
(-0.0183462 0.00397461 0)
(-0.0188504 0.00355877 0)
(-0.019304 0.00311271 0)
(-0.0197024 0.00263642 0)
(-0.0200412 0.00213033 0)
(-0.0203156 0.0015954 0)
(-0.0205211 0.00103317 0)
(-0.0206532 0.000445792 0)
(-0.0207076 -0.000163865 0)
(-0.0206805 -0.000792265 0)
(-0.0205684 -0.00143512 0)
(-0.0203688 -0.00208753 0)
(-0.0200795 -0.00274389 0)
(-0.0196999 -0.00339817 0)
(-0.0192298 -0.00404385 0)
(-0.018671 -0.00467432 0)
(-0.0180255 -0.00528284 0)
(-0.0172977 -0.00586301 0)
(-0.0164921 -0.00640872 0)
(-0.0156157 -0.00691474 0)
(-0.0146744 -0.00737644 0)
(-0.0136777 -0.00779053 0)
(-0.012632 -0.00815436 0)
(-0.0115486 -0.0084666 0)
(-0.0104326 -0.00872592 0)
(-0.0092973 -0.00893101 0)
(-0.00814527 -0.0090778 0)
(-0.00699313 -0.00915776 0)
(-0.00584121 -0.009152 0)
(-0.00471472 -0.00902674 0)
(-0.00361584 -0.00872416 0)
(-0.00259058 -0.00815852 0)
(-0.00165181 -0.00721403 0)
(-0.000883131 -0.00576746 0)
(-0.000307695 -0.00374265 0)
(-3.07931e-05 -0.00124617 0)
(-6.97838e-05 0.00201031 0)
(-0.000450547 0.00465417 0)
(-0.00108708 0.00631529 0)
(-0.00183444 0.00730494 0)
(-0.00268158 0.00785284 0)
(-0.00355297 0.00812423 0)
(-0.0044564 0.0082308 0)
(-0.00535547 0.00824376 0)
(-0.00626218 0.00820375 0)
(-0.00715781 0.00813239 0)
(-0.00805188 0.00803928 0)
(-0.0089333 0.00792842 0)
(-0.00980797 0.00780049 0)
(-0.0106684 0.00765522 0)
(-0.0115178 0.00749146 0)
(-0.0123504 0.00730803 0)
(-0.0131674 0.00710343 0)
(-0.0139642 0.00687619 0)
(-0.0147403 0.00662466 0)
(-0.0154917 0.00634729 0)
(-0.0162165 0.00604237 0)
(-0.0169108 0.00570837 0)
(-0.0175718 0.00534372 0)
(-0.0181951 0.00494706 0)
(-0.0187773 0.00451716 0)
(-0.0193135 0.0040531 0)
(-0.0197995 0.00355425 0)
(-0.0202301 0.00302043 0)
(-0.0206004 0.00245195 0)
(-0.0209051 0.00184971 0)
(-0.0211389 0.00121527 0)
(-0.0212967 0.000550959 0)
(-0.0213735 -0.000140081 0)
(-0.0213645 -0.000853879 0)
(-0.0212656 -0.00158554 0)
(-0.0210735 -0.00232941 0)
(-0.0207855 -0.00307892 0)
(-0.0204002 -0.00382698 0)
(-0.0199173 -0.00456581 0)
(-0.0193383 -0.0052875 0)
(-0.0186653 -0.00598388 0)
(-0.0179033 -0.00664726 0)
(-0.017057 -0.00727014 0)
(-0.0161347 -0.00784624 0)
(-0.0151431 -0.00836987 0)
(-0.0140931 -0.00883717 0)
(-0.0129924 -0.00924493 0)
(-0.0118537 -0.00959188 0)
(-0.0106835 -0.00987652 0)
(-0.00949624 -0.010098 0)
(-0.00829577 -0.0102518 0)
(-0.00709943 -0.0103292 0)
(-0.00590863 -0.0103092 0)
(-0.00474901 -0.0101545 0)
(-0.00362395 -0.00980023 0)
(-0.0025798 -0.00915116 0)
(-0.00163106 -0.00807731 0)
(-0.000861065 -0.00644305 0)
(-0.000293272 -0.00416639 0)
(-2.72954e-05 -0.00137719 0)
(-7.04596e-05 0.00223952 0)
(-0.000455405 0.00517708 0)
(-0.00109923 0.0070192 0)
(-0.00185557 0.00811489 0)
(-0.00271329 0.00872096 0)
(-0.00359603 0.00902111 0)
(-0.00451172 0.00913958 0)
(-0.00542358 0.00915505 0)
(-0.00634389 0.00911258 0)
(-0.00725381 0.00903586 0)
(-0.00816313 0.00893555 0)
(-0.00906075 0.00881592 0)
(-0.0099528 0.00867779 0)
(-0.0108319 0.00852075 0)
(-0.0117012 0.00834358 0)
(-0.0125553 0.00814491 0)
(-0.0133954 0.00792304 0)
(-0.0142169 0.0076763 0)
(-0.0150194 0.0074028 0)
(-0.0157989 0.00710069 0)
(-0.0165537 0.00676802 0)
(-0.0172796 0.00640291 0)
(-0.0179738 0.0060035 0)
(-0.0186319 0.00556807 0)
(-0.0192499 0.00509506 0)
(-0.019823 0.00458322 0)
(-0.0203463 0.00403163 0)
(-0.0208143 0.0034398 0)
(-0.0212215 0.00280785 0)
(-0.0215619 0.00213652 0)
(-0.0218295 0.00142737 0)
(-0.0220182 0.000682774 0)
(-0.0221222 -9.38499e-05 0)
(-0.0221357 -0.000898123 0)
(-0.0220537 -0.00172452 0)
(-0.0218718 -0.00256656 0)
(-0.0215866 -0.00341663 0)
(-0.0211961 -0.00426638 0)
(-0.0206994 -0.00510657 0)
(-0.0200976 -0.00592776 0)
(-0.0193932 -0.00672006 0)
(-0.0185913 -0.00747416 0)
(-0.0176976 -0.00818091 0)
(-0.0167211 -0.00883266 0)
(-0.0156702 -0.00942246 0)
(-0.0145573 -0.00994571 0)
(-0.0133917 -0.0103986 0)
(-0.012188 -0.0107798 0)
(-0.0109544 -0.0110879 0)
(-0.00970675 -0.0113224 0)
(-0.00845054 -0.0114789 0)
(-0.00720392 -0.0115484 0)
(-0.00596965 -0.0115077 0)
(-0.00477374 -0.0113165 0)
(-0.00362094 -0.0109025 0)
(-0.00255777 -0.010161 0)
(-0.00160046 -0.00894795 0)
(-0.000831678 -0.00711623 0)
(-0.000274939 -0.00458048 0)
(-2.29758e-05 -0.00149969 0)
(-7.13175e-05 0.00247075 0)
(-0.000460797 0.00570526 0)
(-0.00111232 0.00773072 0)
(-0.00187813 0.00893404 0)
(-0.00274695 0.00959933 0)
(-0.00364162 0.00992902 0)
(-0.00457017 0.01006 0)
(-0.00549552 0.0100787 0)
(-0.0064302 0.0100345 0)
(-0.00735528 0.00995323 0)
(-0.00828084 0.00984669 0)
(-0.00919578 0.00971941 0)
(-0.0101065 0.00957232 0)
(-0.0110056 0.00940492 0)
(-0.0118965 0.00921586 0)
(-0.0127738 0.00900358 0)
(-0.013639 0.0087662 0)
(-0.0144874 0.0085018 0)
(-0.015319 0.00820823 0)
(-0.0161295 0.00788334 0)
(-0.0169174 0.00752486 0)
(-0.0176784 0.00713055 0)
(-0.0184097 0.00669816 0)
(-0.0191067 0.00622557 0)
(-0.0197654 0.00571081 0)
(-0.0203803 0.00515221 0)
(-0.0209464 0.00454843 0)
(-0.0214575 0.00389862 0)
(-0.0219075 0.00320256 0)
(-0.0222897 0.00246075 0)
(-0.0225971 0.0016746 0)
(-0.0228227 0.000846506 0)
(-0.0229595 -1.99521e-05 0)
(-0.0230006 -0.000920013 0)
(-0.0229399 -0.00184752 0)
(-0.0227717 -0.0027951 0)
(-0.0224916 -0.00375396 0)
(-0.0220966 -0.00471435 0)
(-0.0215852 -0.00566531 0)
(-0.0209581 -0.00659554 0)
(-0.0202177 -0.00749309 0)
(-0.0193696 -0.00834665 0)
(-0.0184203 -0.00914499 0)
(-0.0173802 -0.00987882 0)
(-0.0162594 -0.0105395 0)
(-0.0150722 -0.0111216 0)
(-0.0138302 -0.0116205 0)
(-0.01255 -0.012035 0)
(-0.0112424 -0.0123635 0)
(-0.00992478 -0.0126068 0)
(-0.00860477 -0.0127599 0)
(-0.00730142 -0.0128146 0)
(-0.00601912 -0.0127453 0)
(-0.0047841 -0.0125091 0)
(-0.00360269 -0.0120259 0)
(-0.00252121 -0.0111819 0)
(-0.00155776 -0.00981862 0)
(-0.00079371 -0.00777912 0)
(-0.000252432 -0.00497729 0)
(-1.79607e-05 -0.00160883 0)
(-7.20943e-05 0.00270494 0)
(-0.000466175 0.00624013 0)
(-0.00112577 0.00845148 0)
(-0.0019015 0.00976425 0)
(-0.00278199 0.01049 0)
(-0.00368921 0.0108502 0)
(-0.00463133 0.0109946 0)
(-0.00557092 0.0110173 0)
(-0.00652079 0.0109723 0)
(-0.00746194 0.0108876 0)
(-0.00840472 0.0107759 0)
(-0.00933806 0.0106423 0)
(-0.0102686 0.0104877 0)
(-0.011189 0.0103115 0)
(-0.0121031 0.0101123 0)
(-0.0130054 0.00988827 0)
(-0.0138976 0.00963737 0)
(-0.0147752 0.0093574 0)
(-0.0156383 0.00904593 0)
(-0.0164827 0.00870049 0)
(-0.0173069 0.00831842 0)
(-0.0181067 0.00789709 0)
(-0.0188792 0.0074338 0)
(-0.0196197 0.00692595 0)
(-0.0203239 0.00637107 0)
(-0.0209862 0.00576695 0)
(-0.0216009 0.00511174 0)
(-0.0221615 0.0044041 0)
(-0.0226611 0.00364332 0)
(-0.0230919 0.00282953 0)
(-0.0234463 0.00196386 0)
(-0.0237158 0.00104858 0)
(-0.0238923 8.73665e-05 0)
(-0.0239675 -0.000914719 0)
(-0.0239336 -0.00195089 0)
(-0.0237836 -0.00301286 0)
(-0.0235117 -0.00409052 0)
(-0.0231136 -0.0051725 0)
(-0.0225869 -0.00624583 0)
(-0.0219318 -0.00729699 0)
(-0.0211505 -0.00831148 0)
(-0.0202488 -0.00927553 0)
(-0.0192347 -0.0101753 0)
(-0.0181196 -0.0109994 0)
(-0.0169163 -0.011737 0)
(-0.015641 -0.0123817 0)
(-0.0143087 -0.0129276 0)
(-0.0129384 -0.013374 0)
(-0.0115441 -0.0137193 0)
(-0.0101453 -0.0139653 0)
(-0.00875219 -0.0141076 0)
(-0.00738488 -0.0141385 0)
(-0.00604972 -0.0140306 0)
(-0.00477296 -0.0137386 0)
(-0.00356267 -0.0131745 0)
(-0.00246453 -0.0122157 0)
(-0.00149863 -0.0106895 0)
(-0.000744212 -0.00843055 0)
(-0.000224197 -0.00535521 0)
(-1.18567e-05 -0.00170409 0)
(-7.29881e-05 0.00294192 0)
(-0.000471872 0.00678161 0)
(-0.00113979 0.00918155 0)
(-0.00192581 0.0106056 0)
(-0.0028184 0.0113931 0)
(-0.00373866 0.0117848 0)
(-0.00469487 0.0119433 0)
(-0.00564928 0.0119708 0)
(-0.00661498 0.0119258 0)
(-0.0075729 0.0118386 0)
(-0.0085337 0.0117231 0)
(-0.00948634 0.0115844 0)
(-0.0104378 0.0114238 0)
(-0.0113808 0.0112405 0)
(-0.0123193 0.011033 0)
(-0.0132482 0.0107993 0)
(-0.0141692 0.0105371 0)
(-0.0150782 0.0102439 0)
(-0.0159751 0.00991704 0)
(-0.0168562 0.00955365 0)
(-0.0177199 0.00915068 0)
(-0.0185622 0.00870502 0)
(-0.0193801 0.00821347 0)
(-0.0201688 0.00767285 0)
(-0.0209238 0.00708011 0)
(-0.0216393 0.00643238 0)
(-0.0223091 0.00572715 0)
(-0.0229262 0.00496242 0)
(-0.0234828 0.00413687 0)
(-0.0239703 0.00325006 0)
(-0.0243798 0.00230267 0)
(-0.0247016 0.00129667 0)
(-0.024926 0.000235668 0)
(-0.0250429 -0.00087506 0)
(-0.0250428 -0.00202816 0)
(-0.0249169 -0.00321441 0)
(-0.0246575 -0.00442228 0)
(-0.0242587 -0.00563855 0)
(-0.0237168 -0.00684787 0)
(-0.023031 -0.00803407 0)
(-0.0222033 -0.00917951 0)
(-0.0212399 -0.0102674 0)
(-0.0201498 -0.0112804 0)
(-0.0189465 -0.0122045 0)
(-0.0176453 -0.0130263 0)
(-0.0162657 -0.0137377 0)
(-0.0148263 -0.0143316 0)
(-0.0133497 -0.0148077 0)
(-0.0118538 -0.0151643 0)
(-0.0103608 -0.0154053 0)
(-0.00888404 -0.0155266 0)
(-0.00744501 -0.0155224 0)
(-0.00605228 -0.0153633 0)
(-0.00473184 -0.0150022 0)
(-0.00349359 -0.0143434 0)
(-0.00238195 -0.0132558 0)
(-0.00141898 -0.0115523 0)
(-0.000680776 -0.00906133 0)
(-0.000189403 -0.00570553 0)
(-4.65813e-06 -0.00178035 0)
(-7.37601e-05 0.00318139 0)
(-0.000477381 0.00732936 0)
(-0.00115381 0.00992063 0)
(-0.00195039 0.0114579 0)
(-0.0028555 0.0123086 0)
(-0.00378924 0.0127327 0)
(-0.00476005 0.0129064 0)
(-0.00572981 0.0129396 0)
(-0.00671192 0.0128957 0)
(-0.00768725 0.0128072 0)
(-0.00866675 0.0126891 0)
(-0.00963949 0.012547 0)
(-0.0106127 0.0123821 0)
(-0.0115793 0.0121937 0)
(-0.0125435 0.01198 0)
(-0.0135003 0.0117389 0)
(-0.0144518 0.0114679 0)
(-0.015394 0.0111643 0)
(-0.0163272 0.010825 0)
(-0.0172476 0.0104467 0)
(-0.0181541 0.0100259 0)
(-0.0190425 0.00955914 0)
(-0.01991 0.00904249 0)
(-0.0207517 0.00847217 0)
(-0.0215632 0.00784438 0)
(-0.0223381 0.00715551 0)
(-0.0230702 0.00640224 0)
(-0.0237514 0.0055817 0)
(-0.0243736 0.00469177 0)
(-0.0249269 0.0037312 0)
(-0.0254012 0.00270002 0)
(-0.0257851 0.00159967 0)
(-0.0260673 0.000433486 0)
(-0.0262355 -0.000793235 0)
(-0.0262782 -0.00207267 0)
(-0.026184 -0.00339469 0)
(-0.025943 -0.00474622 0)
(-0.0255472 -0.00611199 0)
(-0.024991 -0.00747386 0)
(-0.0242721 -0.00881244 0)
(-0.0233923 -0.0101062 0)
(-0.0223577 -0.0113345 0)
(-0.0211788 -0.0124758 0)
(-0.0198712 -0.0135124 0)
(-0.0184538 -0.0144274 0)
(-0.0169497 -0.0152108 0)
(-0.0153829 -0.0158537 0)
(-0.01378 -0.0163561 0)
(-0.0121644 -0.016717 0)
(-0.0105616 -0.0169426 0)
(-0.00898913 -0.0170298 0)
(-0.0074698 -0.0169757 0)
(-0.00601488 -0.0167494 0)
(-0.00464961 -0.016303 0)
(-0.00338576 -0.0155326 0)
(-0.00226555 -0.0142996 0)
(-0.00131306 -0.0124025 0)
(-0.000599745 -0.00966579 0)
(-0.000146362 -0.00602292 0)
(3.9672e-06 -0.0018352 0)
(-7.46139e-05 0.00342419 0)
(-0.00048301 0.00788472 0)
(-0.00116796 0.0106704 0)
(-0.00197524 0.0123229 0)
(-0.00289303 0.0132381 0)
(-0.00384049 0.0136958 0)
(-0.00482616 0.0138854 0)
(-0.00581157 0.0139253 0)
(-0.00681042 0.0138834 0)
(-0.00780353 0.0137948 0)
(-0.00880221 0.0136754 0)
(-0.00979558 0.0135313 0)
(-0.0107912 0.0133639 0)
(-0.0117822 0.0131722 0)
(-0.012773 0.0129546 0)
(-0.013759 0.0127086 0)
(-0.0147424 0.0124316 0)
(-0.0157196 0.0121205 0)
(-0.0166911 0.0117718 0)
(-0.0176535 0.0113821 0)
(-0.0186056 0.0109472 0)
(-0.0195438 0.010463 0)
(-0.0204652 0.0099251 0)
(-0.021365 0.00932885 0)
(-0.0222387 0.00866967 0)
(-0.0230799 0.007943 0)
(-0.0238817 0.00714454 0)
(-0.0246358 0.00627037 0)
(-0.0253329 0.00531731 0)
(-0.0259624 0.00428304 0)
(-0.0265125 0.00316664 0)
(-0.0269703 0.0019687 0)
(-0.0273221 0.000692013 0)
(-0.0275535 -0.000658367 0)
(-0.0276501 -0.00207435 0)
(-0.0275976 -0.00354498 0)
(-0.0273832 -0.0050556 0)
(-0.0269958 -0.00658866 0)
(-0.0264275 -0.00812279 0)
(-0.025674 -0.00963471 0)
(-0.0247359 -0.0110982 0)
(-0.0236194 -0.0124874 0)
(-0.0223365 -0.0137756 0)
(-0.0209052 -0.0149402 0)
(-0.0193491 -0.0159598 0)
(-0.017696 -0.0168214 0)
(-0.0159765 -0.017514 0)
(-0.014223 -0.0180382 0)
(-0.0124658 -0.0183934 0)
(-0.0107346 -0.0185897 0)
(-0.00905254 -0.0186258 0)
(-0.00744372 -0.0185027 0)
(-0.0059225 -0.018189 0)
(-0.00451266 -0.017637 0)
(-0.00322773 -0.0167349 0)
(-0.00210645 -0.0153373 0)
(-0.00117471 -0.0132282 0)
(-0.000497518 -0.0102315 0)
(-9.37359e-05 -0.00629617 0)
(1.41253e-05 -0.00186263 0)
(-7.52809e-05 0.00366873 0)