/*--------------------------------*- C++ -*----------------------------------*\
| =========                 |                                                 |
| \\      /  F ield         | OpenFOAM: The Open Source CFD Toolbox           |
|  \\    /   O peration     | Version:  2406                                  |
|   \\  /    A nd           | Website:  www.openfoam.com                      |
|    \\/     M anipulation  |                                                 |
\*---------------------------------------------------------------------------*/
FoamFile
{
    version     2.0;
    format      ascii;
    arch        "LSB;label=32;scalar=64";
    class       surfaceScalarField;
    location    "4";
    object      phi;
}
// * * * * * * * * * * * * * * * * * * * * * * * * * * * * * * * * * * * * * //

dimensions      [0 3 -1 0 0 0 0];

oriented        oriented;

internalField   nonuniform List<scalar> 
32512
(
1.9262e-09
-1.91415e-09
-8.09045e-10
2.73521e-09
-9.82667e-09
9.01759e-09
-2.48631e-08
1.50364e-08
-4.49151e-08
2.0052e-08
-6.88987e-08
2.39835e-08
-9.58525e-08
2.69538e-08
-1.24984e-07
2.91313e-08
-1.55664e-07
3.06802e-08
-1.87408e-07
3.17439e-08
-2.1985e-07
3.24415e-08
-2.52718e-07
3.28688e-08
-2.8582e-07
3.31012e-08
-3.19017e-07
3.31969e-08
-3.52216e-07
3.31996e-08
-3.85358e-07
3.31412e-08
-4.18402e-07
3.30441e-08
-4.51325e-07
3.29235e-08
-4.84114e-07
3.27892e-08
-5.16761e-07
3.2647e-08
-5.49261e-07
3.24998e-08
-5.8161e-07
3.23487e-08
-6.13803e-07
3.21935e-08
-6.45836e-07
3.20334e-08
-6.77703e-07
3.1867e-08
-7.09397e-07
3.16932e-08
-7.40907e-07
3.15104e-08
-7.72224e-07
3.13174e-08
-8.03337e-07
3.11128e-08
-8.34233e-07
3.08954e-08
-8.64897e-07
3.06641e-08
-8.95314e-07
3.04178e-08
-9.2547e-07
3.01554e-08
-9.55346e-07
2.98761e-08
-9.84924e-07
2.95786e-08
-1.01419e-06
2.92622e-08
-1.04311e-06
2.89257e-08
-1.07168e-06
2.85683e-08
-1.09987e-06
2.81889e-08
-1.12766e-06
2.77868e-08
-1.15502e-06
2.73608e-08
-1.18193e-06
2.69101e-08
-1.20836e-06
2.64337e-08
-1.23429e-06
2.59307e-08
-1.25969e-06
2.54003e-08
-1.28453e-06
2.48415e-08
-1.30879e-06
2.42535e-08
-1.33242e-06
2.36355e-08
-1.35541e-06
2.29867e-08
-1.37771e-06
2.23063e-08
-1.39931e-06
2.15937e-08
-1.42016e-06
2.08483e-08
-1.44023e-06
2.00693e-08
-1.45948e-06
1.92565e-08
-1.47789e-06
1.84091e-08
-1.49542e-06
1.75271e-08
-1.51203e-06
1.66099e-08
-1.52769e-06
1.56576e-08
-1.54236e-06
1.46699e-08
-1.556e-06
1.36471e-08
-1.56859e-06
1.25892e-08
-1.58009e-06
1.14964e-08
-1.59046e-06
1.03692e-08
-1.59967e-06
9.20824e-09
-1.60768e-06
8.0141e-09
-1.61447e-06
6.78767e-09
-1.62e-06
5.52992e-09
-1.62424e-06
4.24198e-09
-1.62717e-06
2.92518e-09
-1.62875e-06
1.58119e-09
-1.62896e-06
2.12625e-10
-1.62778e-06
-1.18283e-09
-1.62518e-06
-2.59865e-09
-1.62114e-06
-4.03441e-09
-1.61566e-06
-5.4879e-09
-1.6087e-06
-6.95672e-09
-1.60026e-06
-8.43831e-09
-1.59033e-06
-9.93001e-09
-1.5789e-06
-1.1429e-08
-1.56597e-06
-1.29325e-08
-1.55153e-06
-1.44376e-08
-1.53559e-06
-1.5941e-08
-1.51815e-06
-1.74398e-08
-1.49922e-06
-1.89308e-08
-1.47881e-06
-2.04108e-08
-1.45693e-06
-2.18766e-08
-1.43361e-06
-2.3325e-08
-1.40885e-06
-2.47529e-08
-1.3827e-06
-2.61572e-08
-1.35516e-06
-2.75348e-08
-1.32628e-06
-2.88828e-08
-1.29608e-06
-3.01984e-08
-1.2646e-06
-3.14789e-08
-1.23188e-06
-3.27217e-08
-1.19796e-06
-3.39244e-08
-1.16287e-06
-3.50849e-08
-1.12667e-06
-3.62011e-08
-1.0894e-06
-3.72713e-08
-1.05111e-06
-3.82937e-08
-1.01184e-06
-3.92669e-08
-9.71649e-07
-4.01897e-08
-9.30588e-07
-4.10609e-08
-8.88708e-07
-4.18793e-08
-8.46065e-07
-4.26435e-08
-8.02713e-07
-4.33521e-08
-7.5871e-07
-4.40027e-08
-7.14118e-07
-4.45923e-08
-6.69001e-07
-4.51163e-08
-6.23433e-07
-4.55683e-08
-5.77495e-07
-4.59387e-08
-5.3128e-07
-4.62147e-08
-4.84901e-07
-4.63785e-08
-4.38495e-07
-4.64061e-08
-3.92229e-07
-4.62666e-08
-3.46309e-07
-4.59198e-08
-3.00993e-07
-4.53155e-08
-2.56602e-07
-4.43914e-08
-2.13529e-07
-4.30726e-08
-1.7226e-07
-4.12696e-08
-1.3338e-07
-3.88795e-08
-9.75933e-08
-3.57868e-08
-6.57243e-08
-3.1869e-08
-3.87137e-08
-2.70106e-08
-1.75778e-08
-2.11359e-08
-3.27574e-09
-1.43021e-08
3.64593e-09
-6.92165e-09
3.71487e-09
-6.88999e-11
3.7149e-09
-2.741e-09
8.26823e-10
-1.71929e-08
1.71869e-08
-4.58702e-08
3.76946e-08
-8.79759e-08
5.7142e-08
-1.417e-07
7.37755e-08
-2.04948e-07
8.72315e-08
-2.75707e-07
9.7713e-08
-3.52204e-07
1.05629e-07
-4.32956e-07
1.11432e-07
-5.16764e-07
1.15551e-07
-6.02684e-07
1.18362e-07
-6.89994e-07
1.20178e-07
-7.7815e-07
1.21258e-07
-8.66756e-07
1.21803e-07
-9.55527e-07
1.21971e-07
-1.04427e-06
1.2188e-07
-1.13284e-06
1.21615e-07
-1.22115e-06
1.21237e-07
-1.30915e-06
1.20784e-07
-1.39678e-06
1.20284e-07
-1.48403e-06
1.19749e-07
-1.57087e-06
1.19188e-07
-1.65728e-06
1.18602e-07
-1.74324e-06
1.17991e-07
-1.82872e-06
1.17351e-07
-1.91371e-06
1.16679e-07
-1.99817e-06
1.15971e-07
-2.08207e-06
1.15223e-07
-2.16539e-06
1.1443e-07
-2.24808e-06
1.13588e-07
-2.33011e-06
1.12694e-07
-2.41144e-06
1.11744e-07
-2.49202e-06
1.10734e-07
-2.5718e-06
1.09661e-07
-2.65074e-06
1.08521e-07
-2.72879e-06
1.07311e-07
-2.80589e-06
1.06027e-07
-2.88199e-06
1.04667e-07
-2.95703e-06
1.03226e-07
-3.03094e-06
1.01703e-07
-3.10368e-06
1.00092e-07
-3.17516e-06
9.83915e-08
-3.24532e-06
9.6598e-08
-3.3141e-06
9.47081e-08
-3.38142e-06
9.27189e-08
-3.4472e-06
9.06273e-08
-3.51138e-06
8.84305e-08
-3.57387e-06
8.61257e-08
-3.63459e-06
8.37103e-08
-3.69347e-06
8.11816e-08
-3.75041e-06
7.85375e-08
-3.80534e-06
7.57757e-08
-3.85817e-06
7.28943e-08
-3.9088e-06
6.98917e-08
-3.95716e-06
6.67665e-08
-4.00315e-06
6.35175e-08
-4.04668e-06
6.0144e-08
-4.08767e-06
5.66454e-08
-4.12602e-06
5.30217e-08
-4.16165e-06
4.92732e-08
-4.19446e-06
4.54005e-08
-4.22437e-06
4.14049e-08
-4.25129e-06
3.72879e-08
-4.27513e-06
3.30515e-08
-4.29581e-06
2.86983e-08
-4.31326e-06
2.42315e-08
-4.32738e-06
1.96545e-08
-4.33811e-06
1.49716e-08
-4.34537e-06
1.01874e-08
-4.3491e-06
5.30752e-09
-4.34923e-06
3.43603e-10
-4.3457e-06
-4.71735e-09
-4.33845e-06
-9.84801e-09
-4.32743e-06
-1.50481e-08
-4.31261e-06
-2.03103e-08
-4.29394e-06
-2.56258e-08
-4.2714e-06
-3.09858e-08
-4.24494e-06
-3.63809e-08
-4.21457e-06
-4.18015e-08
-4.18027e-06
-4.72374e-08
-4.14203e-06
-5.26784e-08
-4.09985e-06
-5.81138e-08
-4.05376e-06
-6.35327e-08
-4.00377e-06
-6.89243e-08
-3.9499e-06
-7.42773e-08
-3.8922e-06
-7.95806e-08
-3.8307e-06
-8.48233e-08
-3.76546e-06
-8.99942e-08
-3.69653e-06
-9.50827e-08
-3.62399e-06
-1.00078e-07
-3.5479e-06
-1.0497e-07
-3.46835e-06
-1.09749e-07
-3.38542e-06
-1.14405e-07
-3.29922e-06
-1.18929e-07
-3.20983e-06
-1.23313e-07
-3.11736e-06
-1.2755e-07
-3.02193e-06
-1.31631e-07
-2.92366e-06
-1.3555e-07
-2.82265e-06
-1.39301e-07
-2.71904e-06
-1.42879e-07
-2.61295e-06
-1.46279e-07
-2.50451e-06
-1.49495e-07
-2.39387e-06
-1.52524e-07
-2.28115e-06
-1.55358e-07
-2.16651e-06
-1.57992e-07
-2.0501e-06
-1.60415e-07
-1.93208e-06
-1.62614e-07
-1.81263e-06
-1.64572e-07
-1.69193e-06
-1.66261e-07
-1.57023e-06
-1.67645e-07
-1.44777e-06
-1.68675e-07
-1.32486e-06
-1.69283e-07
-1.20189e-06
-1.6938e-07
-1.0793e-06
-1.68853e-07
-9.57664e-07
-1.67557e-07
-8.37667e-07
-1.65312e-07
-7.20157e-07
-1.61902e-07
-6.06161e-07
-1.57069e-07
-4.96915e-07
-1.50515e-07
-3.93885e-07
-1.4191e-07
-2.98772e-07
-1.309e-07
-2.13498e-07
-1.17143e-07
-1.40147e-07
-1.00362e-07
-8.08155e-08
-8.04673e-08
-3.73253e-08
-5.77921e-08
-1.07046e-08
-3.35423e-08
-5.37986e-11
-1.07196e-08
3.66111e-09
-9.14047e-09
9.96725e-09
-3.80728e-08
4.61192e-08
-8.68068e-08
8.64285e-08
-1.5386e-07
1.24195e-07
-2.369e-07
1.56816e-07
-3.33302e-07
1.83633e-07
-4.40485e-07
2.04896e-07
-5.56106e-07
2.2125e-07
-6.78142e-07
2.33468e-07
-8.04909e-07
2.42318e-07
-9.35046e-07
2.48499e-07
-1.06748e-06
2.52615e-07
-1.2014e-06
2.55169e-07
-1.33616e-06
2.56569e-07
-1.47133e-06
2.57136e-07
-1.60656e-06
2.57114e-07
-1.74163e-06
2.56684e-07
-1.87637e-06
2.55978e-07
-2.01067e-06
2.55083e-07
-2.14444e-06
2.54059e-07
-2.27763e-06
2.5294e-07
-2.41019e-06
2.51746e-07
-2.54208e-06
2.50486e-07
-2.67325e-06
2.4916e-07
-2.80366e-06
2.47766e-07
-2.93328e-06
2.46296e-07
-3.06205e-06
2.44745e-07
-3.18993e-06
2.43104e-07
-3.31687e-06
2.41365e-07
-3.4428e-06
2.39521e-07
-3.56767e-06
2.37564e-07
-3.69141e-06
2.35487e-07
-3.81396e-06
2.33282e-07
-3.93524e-06
2.30943e-07
-4.05519e-06
2.28463e-07
-4.17371e-06
2.25834e-07
-4.29073e-06
2.2305e-07
-4.40617e-06
2.20104e-07
-4.51993e-06
2.1699e-07
-4.63193e-06
2.13701e-07
-4.74207e-06
2.1023e-07
-4.85025e-06
2.0657e-07
-4.95637e-06
2.02716e-07
-5.06032e-06
1.98661e-07
-5.162e-06
1.94399e-07
-5.2613e-06
1.89924e-07
-5.3581e-06
1.85231e-07
-5.45228e-06
1.80312e-07
-5.54374e-06
1.75164e-07
-5.63234e-06
1.69782e-07
-5.71796e-06
1.64161e-07
-5.80048e-06
1.58296e-07
-5.87977e-06
1.52184e-07
-5.9557e-06
1.45822e-07
-6.02814e-06
1.39208e-07
-6.09696e-06
1.32338e-07
-6.16203e-06
1.25213e-07
-6.22322e-06
1.1783e-07
-6.28039e-06
1.10191e-07
-6.33341e-06
1.02296e-07
-6.38216e-06
9.41465e-08
-6.4265e-06
8.57453e-08
-6.4663e-06
7.7096e-08
-6.50146e-06
6.8203e-08
-6.53183e-06
5.90718e-08
-6.55731e-06
4.97088e-08
-6.57777e-06
4.01218e-08
-6.59312e-06
3.03192e-08
-6.60324e-06
2.03109e-08
-6.60804e-06
1.01067e-08
-6.60743e-06
-2.65444e-10
-6.60132e-06
-1.08337e-08
-6.58962e-06
-2.1543e-08
-6.57228e-06
-3.23935e-08
-6.54922e-06
-4.33684e-08
-6.5204e-06
-5.44504e-08
-6.48576e-06
-6.56212e-08
-6.44528e-06
-7.6862e-08
-6.39893e-06
-8.81529e-08
-6.34669e-06
-9.94734e-08
-6.28857e-06
-1.10803e-07
-6.22456e-06
-1.22119e-07
-6.1547e-06
-1.334e-07
-6.079e-06
-1.44623e-07
-5.99751e-06
-1.55767e-07
-5.91028e-06
-1.66809e-07
-5.81738e-06
-1.77725e-07
-5.71888e-06
-1.88495e-07
-5.61486e-06
-1.99096e-07
-5.50544e-06
-2.09506e-07
-5.3907e-06
-2.19705e-07
-5.27078e-06
-2.29672e-07
-5.14579e-06
-2.39389e-07
-5.01589e-06
-2.48836e-07
-4.8812e-06
-2.57998e-07
-4.7419e-06
-2.66857e-07
-4.59813e-06
-2.75399e-07
-4.45007e-06
-2.8361e-07
-4.29789e-06
-2.91478e-07
-4.14178e-06
-2.9899e-07
-3.98192e-06
-3.06136e-07
-3.81851e-06
-3.12906e-07
-3.65175e-06
-3.19286e-07
-3.48184e-06
-3.25265e-07
-3.309e-06
-3.30826e-07
-3.13347e-06
-3.35947e-07
-2.95549e-06
-3.40599e-07
-2.77532e-06
-3.44739e-07
-2.59327e-06
-3.4831e-07
-2.40968e-06
-3.51232e-07
-2.22496e-06
-3.53399e-07
-2.03958e-06
-3.54668e-07
-1.8541e-06
-3.54852e-07
-1.66924e-06
-3.53714e-07
-1.48584e-06
-3.50957e-07
-1.30494e-06
-3.46217e-07
-1.12778e-06
-3.39056e-07
-9.55885e-07
-3.28966e-07
-7.91029e-07
-3.15372e-07
-6.35291e-07
-2.97647e-07
-4.91038e-07
-2.75153e-07
-3.60877e-07
-2.47303e-07
-2.47554e-07
-2.13684e-07
-1.53751e-07
-1.74271e-07
-8.17436e-08
-1.29799e-07
-3.28659e-08
-8.242e-08
-6.70126e-09
-3.68843e-08
-3.04018e-09
-1.54334e-08
2.54006e-08
-5.84011e-08
8.90869e-08
-1.26211e-07
1.54238e-07
-2.16098e-07
2.14082e-07
-3.25064e-07
2.65781e-07
-4.50039e-07
3.08608e-07
-5.88076e-07
3.42932e-07
-7.36484e-07
3.69658e-07
-8.92911e-07
3.89894e-07
-1.05536e-06
4.04767e-07
-1.22219e-06
4.15329e-07
-1.39208e-06
4.22508e-07
-1.564e-06
4.27091e-07
-1.73716e-06
4.29725e-07
-1.91095e-06
4.30928e-07
-2.08494e-06
4.31101e-07
-2.2588e-06
4.30543e-07
-2.4323e-06
4.29476e-07
-2.60527e-06
4.28052e-07
-2.77758e-06
4.26375e-07
-2.94915e-06
4.24508e-07
-3.1199e-06
4.22491e-07
-3.28975e-06
4.20341e-07
-3.45866e-06
4.18065e-07
-3.62655e-06
4.1566e-07
-3.79337e-06
4.13118e-07
-3.95906e-06
4.10431e-07
-4.12354e-06
4.07586e-07
-4.28675e-06
4.04572e-07
-4.4486e-06
4.01378e-07
-4.60903e-06
3.9799e-07
-4.76794e-06
3.94398e-07
-4.92525e-06
3.9059e-07
-5.08086e-06
3.86555e-07
-5.23468e-06
3.82282e-07
-5.38661e-06
3.77759e-07
-5.53653e-06
3.72975e-07
-5.68435e-06
3.67921e-07
-5.82994e-06
3.62585e-07
-5.9732e-06
3.56956e-07
-6.11399e-06
3.51024e-07
-6.2522e-06
3.44778e-07
-6.38769e-06
3.38209e-07
-6.52034e-06
3.31305e-07
-6.64999e-06
3.24058e-07
-6.77653e-06
3.16457e-07
-6.89979e-06
3.08494e-07
-7.01964e-06
3.00159e-07
-7.13592e-06
2.91445e-07
-7.24848e-06
2.82344e-07
-7.35717e-06
2.72848e-07
-7.46182e-06
2.62951e-07
-7.56229e-06
2.52648e-07
-7.6584e-06
2.41934e-07
-7.74999e-06
2.30804e-07
-7.83691e-06
2.19255e-07
-7.91898e-06
2.07287e-07
-7.99605e-06
1.94898e-07
-8.06795e-06
1.82088e-07
-8.13451e-06
1.6886e-07
-8.19558e-06
1.55217e-07
-8.251e-06
1.41162e-07
-8.30061e-06
1.26703e-07
-8.34425e-06
1.11847e-07
-8.38178e-06
9.6604e-08
-8.41306e-06
8.09842e-08
-8.43794e-06
6.50005e-08
-8.45629e-06
4.86677e-08
-8.46798e-06
3.20018e-08
-8.47289e-06
1.50214e-08
-8.47091e-06
-2.24958e-09
-8.46194e-06
-1.98034e-08
-8.44588e-06
-3.76031e-08
-8.42264e-06
-5.56277e-08
-8.39216e-06
-7.38509e-08
-8.35437e-06
-9.22446e-08
-8.30921e-06
-1.10779e-07
-8.25665e-06
-1.29424e-07
-8.19665e-06
-1.48146e-07
-8.12922e-06
-1.66912e-07
-8.05433e-06
-1.85688e-07
-7.97201e-06
-2.0444e-07
-7.88228e-06
-2.2313e-07
-7.78518e-06
-2.41723e-07
-7.68076e-06
-2.60183e-07
-7.5691e-06
-2.78472e-07
-7.45027e-06
-2.96555e-07
-7.32437e-06
-3.14395e-07
-7.19151e-06
-3.31957e-07
-7.05181e-06
-3.49207e-07
-6.9054e-06
-3.66109e-07
-6.75244e-06
-3.82632e-07
-6.59309e-06
-3.98745e-07
-6.42751e-06
-4.14417e-07
-6.25588e-06
-4.29621e-07
-6.07841e-06
-4.4433e-07
-5.89529e-06
-4.58521e-07
-5.70673e-06
-4.72169e-07
-5.51295e-06
-4.85255e-07
-5.31418e-06
-4.97759e-07
-5.11066e-06
-5.09662e-07
-4.90262e-06
-5.20945e-07
-4.69032e-06
-5.31588e-07
-4.47402e-06
-5.41567e-07
-4.25399e-06
-5.50853e-07
-4.03053e-06
-5.59408e-07
-3.80395e-06
-5.67178e-07
-3.57459e-06
-5.74093e-07
-3.34285e-06
-5.80051e-07
-3.10917e-06
-5.84918e-07
-2.87405e-06
-5.88514e-07
-2.63812e-06
-5.906e-07
-2.40211e-06
-5.90868e-07
-2.16689e-06
-5.88928e-07
-1.93355e-06
-5.84298e-07
-1.70338e-06
-5.76389e-07
-1.47793e-06
-5.64507e-07
-1.25904e-06
-5.47852e-07
-1.04888e-06
-5.25532e-07
-8.49929e-07
-4.96599e-07
-6.64972e-07
-4.6011e-07
-4.97039e-07
-4.15237e-07
-3.4928e-07
-3.61443e-07
-2.24767e-07
-2.98783e-07
-1.26203e-07
-2.28364e-07
-5.55399e-08
-1.53083e-07
-1.35914e-08
-7.88329e-08
-1.66316e-08
-2.08841e-08
4.62845e-08
-7.64344e-08
1.44637e-07
-1.61484e-07
2.39288e-07
-2.71821e-07
3.24419e-07
-4.03632e-07
3.97592e-07
-5.53366e-07
4.58342e-07
-7.17756e-07
5.07323e-07
-8.93866e-07
5.45768e-07
-1.07913e-06
5.75153e-07
-1.27134e-06
5.96984e-07
-1.46869e-06
6.12679e-07
-1.66969e-06
6.23507e-07
-1.87316e-06
6.30559e-07
-2.07817e-06
6.34741e-07
-2.28403e-06
6.36786e-07
-2.4902e-06
6.37269e-07
-2.69628e-06
6.36627e-07
-2.90199e-06
6.35182e-07
-3.1071e-06
6.33163e-07
-3.31145e-06
6.30727e-07
-3.51492e-06
6.27975e-07
-3.7174e-06
6.24968e-07
-3.91879e-06
6.21739e-07
-4.11903e-06
6.18301e-07
-4.31803e-06
6.14654e-07
-4.5157e-06
6.10793e-07
-4.71197e-06
6.06704e-07
-4.90676e-06
6.02373e-07
-5.09997e-06
5.97784e-07
-5.29151e-06
5.92922e-07
-5.48129e-06
5.87769e-07
-5.66921e-06
5.82311e-07
-5.85515e-06
5.7653e-07
-6.039e-06
5.7041e-07
-6.22066e-06
5.63936e-07
-6.39999e-06
5.57093e-07
-6.57688e-06
5.49864e-07
-6.75119e-06
5.42235e-07
-6.9228e-06
5.34189e-07
-7.09155e-06
5.25712e-07
-7.25732e-06
5.16789e-07
-7.41995e-06
5.07405e-07
-7.57928e-06
4.97545e-07
-7.73517e-06
4.87195e-07
-7.88746e-06
4.76341e-07
-8.03597e-06
4.6497e-07
-8.18054e-06
4.53069e-07
-8.32101e-06
4.40625e-07
-8.45719e-06
4.27628e-07
-8.58891e-06
4.14065e-07
-8.716e-06
3.99928e-07
-8.83825e-06
3.85208e-07
-8.9555e-06
3.69896e-07
-9.06755e-06
3.53987e-07
-9.17422e-06
3.37474e-07
-9.27532e-06
3.20355e-07
-9.37066e-06
3.02627e-07
-9.46006e-06
2.8429e-07
-9.54331e-06
2.65345e-07
-9.62025e-06
2.45795e-07
-9.69068e-06
2.25646e-07
-9.75442e-06
2.04904e-07
-9.81129e-06
1.83579e-07
-9.86113e-06
1.61683e-07
-9.90376e-06
1.3923e-07
-9.93901e-06
1.16236e-07
-9.96673e-06
9.27208e-08
-9.98677e-06
6.87052e-08
-9.99898e-06
4.42133e-08
-1.00032e-05
1.9272e-08
-9.99939e-06
-6.08919e-09
-9.98735e-06
-3.18421e-08
-9.967e-06
-5.79495e-08
-9.93826e-06
-8.43754e-08
-9.90103e-06
-1.11081e-07
-9.85524e-06
-1.38027e-07
-9.80085e-06
-1.65169e-07
-9.73781e-06
-1.92462e-07
-9.6661e-06
-2.19861e-07
-9.5857e-06
-2.47316e-07
-9.49661e-06
-2.74779e-07
-9.39885e-06
-3.02199e-07
-9.29245e-06
-3.29524e-07
-9.17747e-06
-3.56702e-07
-9.05397e-06
-3.83682e-07
-8.92204e-06
-4.10409e-07
-8.78176e-06
-4.36833e-07
-8.63325e-06
-4.62901e-07
-8.47665e-06
-4.88563e-07
-8.31209e-06
-5.13768e-07
-8.13973e-06
-5.38468e-07
-7.95974e-06
-5.62617e-07
-7.77232e-06
-5.86169e-07
-7.57765e-06
-6.09082e-07
-7.37596e-06
-6.31315e-07
-7.16746e-06
-6.52831e-07
-6.95238e-06
-6.73595e-07
-6.73098e-06
-6.93573e-07
-6.5035e-06
-7.12735e-07
-6.27021e-06
-7.31052e-07
-6.03137e-06
-7.48496e-07
-5.78728e-06
-7.65038e-07
-5.53822e-06
-7.80648e-07
-5.2845e-06
-7.95289e-07
-5.02644e-06
-8.08915e-07
-4.76438e-06
-8.21469e-07
-4.49869e-06
-8.32869e-07
-4.22977e-06
-8.43006e-07
-3.95809e-06
-8.51732e-07
-3.68417e-06
-8.58845e-07
-3.4086e-06
-8.64081e-07
-3.13211e-06
-8.6709e-07
-2.85555e-06
-8.67427e-07
-2.57995e-06
-8.6453e-07
-2.30654e-06
-8.57707e-07
-2.0368e-06
-8.46128e-07
-1.77249e-06
-8.28816e-07
-1.51568e-06
-8.04658e-07
-1.26879e-06
-7.7243e-07
-1.03454e-06
-7.30847e-07
-8.15992e-07
-6.78656e-07
-6.16452e-07
-6.14777e-07
-4.39359e-07
-5.38535e-07
-2.88139e-07
-4.50004e-07
-1.65996e-07
-3.50507e-07
-7.57251e-08
-2.43354e-07
-1.96443e-08
-1.34914e-07
-3.6276e-08
-2.53852e-08
7.16695e-08
-9.17312e-08
2.10983e-07
-1.91819e-07
3.39375e-07
-3.20056e-07
4.52655e-07
-4.71765e-07
5.49301e-07
-6.42875e-07
6.29452e-07
-8.29794e-07
6.94242e-07
-1.02937e-06
7.45343e-07
-1.23887e-06
7.84652e-07
-1.45597e-06
8.14081e-07
-1.67872e-06
8.35433e-07
-1.90554e-06
8.50326e-07
-2.13515e-06
8.60165e-07
-2.36653e-06
8.66127e-07
-2.59892e-06
8.69171e-07
-2.8317e-06
8.70054e-07
-3.06443e-06
8.6936e-07
-3.29677e-06
8.67522e-07
-3.52846e-06
8.64853e-07
-3.7593e-06
8.61567e-07
-3.98914e-06
8.5781e-07
-4.21784e-06
8.53668e-07
-4.44529e-06
8.49192e-07
-4.6714e-06
8.44405e-07
-4.89605e-06
8.39313e-07
-5.11917e-06
8.33909e-07
-5.34065e-06
8.28179e-07
-5.56038e-06
8.22108e-07
-5.77827e-06
8.15676e-07
-5.99421e-06
8.08862e-07
-6.20809e-06
8.01645e-07
-6.41978e-06
7.94005e-07
-6.62917e-06
7.8592e-07
-6.83613e-06
7.7737e-07
-7.04053e-06
7.68334e-07
-7.24223e-06
7.58792e-07
-7.44109e-06
7.48723e-07
-7.63696e-06
7.38107e-07
-7.8297e-06
7.26924e-07
-8.01914e-06
7.15153e-07
-8.20512e-06
7.02775e-07
-8.38749e-06
6.89771e-07
-8.56606e-06
6.76121e-07
-8.74068e-06
6.61806e-07
-8.91114e-06
6.46809e-07
-9.07728e-06
6.31112e-07
-9.23891e-06
6.14698e-07
-9.39584e-06
5.97551e-07
-9.54787e-06
5.79656e-07
-9.6948e-06
5.61e-07
-9.83644e-06
5.41569e-07
-9.97259e-06
5.21353e-07
-1.0103e-05
5.00341e-07
-1.02276e-05
4.78527e-07
-1.0346e-05
4.55902e-07
-1.04581e-05
4.32464e-07
-1.05637e-05
4.08209e-07
-1.06625e-05
3.83139e-07
-1.07544e-05
3.57254e-07
-1.08392e-05
3.30561e-07
-1.09166e-05
3.03067e-07
-1.09865e-05
2.74782e-07
-1.10487e-05
2.45721e-07
-1.11029e-05
2.15898e-07
-1.1149e-05
1.85334e-07
-1.11868e-05
1.54052e-07
-1.12161e-05
1.22077e-07
-1.12369e-05
8.94391e-08
-1.12488e-05
5.61708e-08
-1.12519e-05
2.23082e-08
-1.12459e-05
-1.21093e-08
-1.12307e-05
-4.704e-08
-1.12062e-05
-8.2437e-08
-1.11723e-05
-1.18251e-07
-1.11289e-05
-1.54431e-07
-1.1076e-05
-1.90921e-07
-1.10136e-05
-2.27664e-07
-1.09414e-05
-2.64599e-07
-1.08596e-05
-3.01665e-07
-1.07681e-05
-3.38796e-07
-1.0667e-05
-3.75928e-07
-1.05562e-05
-4.12991e-07
-1.04358e-05
-4.49918e-07
-1.03059e-05
-4.86639e-07
-1.01665e-05
-5.23084e-07
-1.00177e-05
-5.59183e-07
-9.85965e-06
-5.94867e-07
-9.69249e-06
-6.30066e-07
-9.51634e-06
-6.64714e-07
-9.33136e-06
-6.98744e-07
-9.13774e-06
-7.32091e-07
-8.93566e-06
-7.64693e-07
-8.72534e-06
-7.96492e-07
-8.50699e-06
-8.27429e-07
-8.28085e-06
-8.57452e-07
-8.04718e-06
-8.8651e-07
-7.80621e-06
-9.14556e-07
-7.55824e-06
-9.41545e-07
-7.30354e-06
-9.67438e-07
-7.0424e-06
-9.92194e-07
-6.77512e-06
-1.01577e-06
-6.50202e-06
-1.03814e-06
-6.22342e-06
-1.05925e-06
-5.93966e-06
-1.07905e-06
-5.6511e-06
-1.09748e-06
-5.35812e-06
-1.11445e-06
-5.06113e-06
-1.12985e-06
-4.7606e-06
-1.14354e-06
-4.45702e-06
-1.15531e-06
-4.15098e-06
-1.16488e-06
-3.84316e-06
-1.1719e-06
-3.53434e-06
-1.1759e-06
-3.22548e-06
-1.17629e-06
-2.9177e-06
-1.17231e-06
-2.61235e-06
-1.16306e-06
-2.31102e-06
-1.14745e-06
-2.01562e-06
-1.12422e-06
-1.72837e-06
-1.09191e-06
-1.45183e-06
-1.04898e-06
-1.1889e-06
-9.93777e-07
-9.42813e-07
-9.24738e-07
-7.17084e-07
-8.40506e-07
-5.15406e-07
-7.40213e-07
-3.41566e-07
-6.23844e-07
-1.9933e-07
-4.92744e-07
-9.23924e-08
-3.50291e-07
-2.45034e-08
-2.02803e-07
-6.07794e-08
-2.90201e-08
1.0069e-07
-1.04375e-07
2.86338e-07
-2.17244e-07
4.52244e-07
-3.60828e-07
5.9624e-07
-5.29628e-07
7.181e-07
-7.19038e-07
8.18862e-07
-9.25135e-07
9.00339e-07
-1.14455e-06
9.64762e-07
-1.37442e-06
1.01452e-06
-1.61231e-06
1.05197e-06
-1.85619e-06
1.07932e-06
-2.10441e-06
1.09854e-06
-2.35562e-06
1.11138e-06
-2.60877e-06
1.11927e-06
-2.86302e-06
1.12342e-06
-3.11772e-06
1.12476e-06
-3.37238e-06
1.12403e-06
-3.62664e-06
1.12177e-06
-3.88018e-06
1.1184e-06
-4.1328e-06
1.11419e-06
-4.38431e-06
1.10932e-06
-4.63456e-06
1.10391e-06
-4.88341e-06
1.09805e-06
-5.13075e-06
1.09175e-06
-5.37646e-06
1.08503e-06
-5.62044e-06
1.07788e-06
-5.86256e-06
1.0703e-06
-6.10272e-06
1.06227e-06
-6.3408e-06
1.05375e-06
-6.57668e-06
1.04474e-06
-6.81022e-06
1.03519e-06
-7.04131e-06
1.02509e-06
-7.26981e-06
1.01441e-06
-7.49557e-06
1.00313e-06
-7.71845e-06
9.91216e-07
-7.9383e-06
9.78644e-07
-8.15497e-06
9.65391e-07
-8.36829e-06
9.5143e-07
-8.57811e-06
9.36737e-07
-8.78424e-06
9.21286e-07
-8.98652e-06
9.05053e-07
-9.18476e-06
8.88013e-07
-9.37878e-06
8.70143e-07
-9.56839e-06
8.51419e-07
-9.7534e-06
8.31819e-07
-9.93361e-06
8.11321e-07
-1.01088e-05
7.89904e-07
-1.02788e-05
7.67549e-07
-1.04434e-05
7.44238e-07
-1.06024e-05
7.19952e-07
-1.07555e-05
6.94678e-07
-1.09025e-05
6.684e-07
-1.10433e-05
6.41109e-07
-1.11775e-05
6.12793e-07
-1.13051e-05
5.83447e-07
-1.14257e-05
5.53064e-07
-1.15391e-05
5.21644e-07
-1.16452e-05
4.89187e-07
-1.17436e-05
4.55697e-07
-1.18342e-05
4.21181e-07
-1.19168e-05
3.85651e-07
-1.19912e-05
3.49119e-07
-1.2057e-05
3.11604e-07
-1.21143e-05
2.73127e-07
-1.21626e-05
2.33715e-07
-1.2202e-05
1.93397e-07
-1.22321e-05
1.52206e-07
-1.22529e-05
1.10182e-07
-1.22641e-05
6.73651e-08
-1.22656e-05
2.38032e-08
-1.22572e-05
-2.04536e-08
-1.22389e-05
-6.53505e-08
-1.22105e-05
-1.10828e-07
-1.21719e-05
-1.56825e-07
-1.21231e-05
-2.03273e-07
-1.20639e-05
-2.50102e-07
-1.19943e-05
-2.9724e-07
-1.19143e-05
-3.44609e-07
-1.18239e-05
-3.92129e-07
-1.17229e-05
-4.39721e-07
-1.16116e-05
-4.87298e-07
-1.14898e-05
-5.34775e-07
-1.13576e-05
-5.82066e-07
-1.12152e-05
-6.29082e-07
-1.10625e-05
-6.75735e-07
-1.08998e-05
-7.21936e-07
-1.07271e-05
-7.67597e-07
-1.05445e-05
-8.12632e-07
-1.03523e-05
-8.56954e-07
-1.01505e-05
-9.00481e-07
-9.93947e-06
-9.4313e-07
-9.71934e-06
-9.84824e-07
-9.49035e-06
-1.02549e-06
-9.25273e-06
-1.06505e-06
-9.00674e-06
-1.10344e-06
-8.75265e-06
-1.1406e-06
-8.49074e-06
-1.17646e-06
-8.2213e-06
-1.21098e-06
-7.94464e-06
-1.24409e-06
-7.66108e-06
-1.27576e-06
-7.37094e-06
-1.30592e-06
-7.07455e-06
-1.33453e-06
-6.77228e-06
-1.36152e-06
-6.46448e-06
-1.38684e-06
-6.15155e-06
-1.41041e-06
-5.8339e-06
-1.4321e-06
-5.51197e-06
-1.45178e-06
-5.18627e-06
-1.46925e-06
-4.85733e-06
-1.48425e-06
-4.52579e-06
-1.49642e-06
-4.19237e-06
-1.50532e-06
-3.85792e-06
-1.51035e-06
-3.52345e-06
-1.51076e-06
-3.19015e-06
-1.50561e-06
-2.85944e-06
-1.49377e-06
-2.53301e-06
-1.47388e-06
-2.21284e-06
-1.44438e-06
-1.90125e-06
-1.40351e-06
-1.60089e-06
-1.34933e-06
-1.31479e-06
-1.27988e-06
-1.04632e-06
-1.19321e-06
-7.99152e-07
-1.08767e-06
-5.77238e-07
-9.62126e-07
-3.84732e-07
-8.1635e-07
-2.25962e-07
-6.51514e-07
-1.05468e-07
-4.70785e-07
-2.81948e-08
-2.80076e-07
-8.89742e-08
-3.19157e-08
1.32605e-07
-1.14647e-07
3.69069e-07
-2.38165e-07
5.75761e-07
-3.94674e-07
7.52749e-07
-5.7794e-07
9.01367e-07
-7.82855e-07
1.02378e-06
-1.00516e-06
1.12264e-06
-1.24128e-06
1.20088e-06
-1.48821e-06
1.26144e-06
-1.74342e-06
1.30718e-06
-2.00483e-06
1.34073e-06
-2.27074e-06
1.36445e-06
-2.53977e-06
1.3804e-06
-2.81081e-06
1.39031e-06
-3.083e-06
1.39561e-06
-3.35567e-06
1.39743e-06
-3.6283e-06
1.39666e-06
-3.90049e-06
1.39396e-06
-4.17192e-06
1.38983e-06
-4.44234e-06
1.38461e-06
-4.71156e-06
1.37854e-06
-4.97941e-06
1.37176e-06
-5.24574e-06
1.36437e-06
-5.51042e-06
1.35642e-06
-5.77331e-06
1.34792e-06
-6.03429e-06
1.33887e-06
-6.29324e-06
1.32925e-06
-6.55003e-06
1.31906e-06
-6.80454e-06
1.30826e-06
-7.05662e-06
1.29682e-06
-7.30615e-06
1.28472e-06
-7.55298e-06
1.27192e-06
-7.79696e-06
1.2584e-06
-8.03795e-06
1.24412e-06
-8.27579e-06
1.22905e-06
-8.51031e-06
1.21317e-06
-8.74136e-06
1.19644e-06
-8.96875e-06
1.17882e-06
-9.19232e-06
1.1603e-06
-9.41187e-06
1.14084e-06
-9.62723e-06
1.12041e-06
-9.8382e-06
1.09898e-06
-1.00446e-05
1.07653e-06
-1.02462e-05
1.05302e-06
-1.04428e-05
1.02843e-06
-1.06342e-05
1.00273e-06
-1.08202e-05
9.759e-07
-1.10006e-05
9.47913e-07
-1.11751e-05
9.18748e-07
-1.13435e-05
8.88386e-07
-1.15056e-05
8.56807e-07
-1.16612e-05
8.23998e-07
-1.18101e-05
7.89943e-07
-1.19519e-05
7.54632e-07
-1.20865e-05
7.18057e-07
-1.22137e-05
6.80213e-07
-1.23331e-05
6.41099e-07
-1.24447e-05
6.00717e-07
-1.2548e-05
5.59072e-07
-1.2643e-05
5.16175e-07
-1.27294e-05
4.72038e-07
-1.2807e-05
4.26681e-07
-1.28755e-05
3.80126e-07
-1.29348e-05
3.32401e-07
-1.29846e-05
2.83538e-07
-1.30248e-05
2.33574e-07
-1.30551e-05
1.82552e-07
-1.30755e-05
1.30519e-07
-1.30856e-05
7.75273e-08
-1.30854e-05
2.36351e-08
-1.30748e-05
-3.1095e-08
-1.30536e-05
-8.65953e-08
-1.30216e-05
-1.42793e-07
-1.29788e-05
-1.99611e-07
-1.29251e-05
-2.56966e-07
-1.28604e-05
-3.14774e-07
-1.27847e-05
-3.72942e-07
-1.2698e-05
-4.31378e-07
-1.26001e-05
-4.89984e-07
-1.24912e-05
-5.48659e-07
-1.23712e-05
-6.073e-07
-1.22402e-05
-6.65803e-07
-1.20982e-05
-7.24062e-07
-1.19453e-05
-7.81967e-07
-1.17816e-05
-8.39412e-07
-1.16072e-05
-8.96289e-07
-1.14223e-05
-9.5249e-07
-1.12271e-05
-1.00791e-06
-1.10216e-05
-1.06244e-06
-1.08061e-05
-1.11599e-06
-1.05808e-05
-1.16845e-06
-1.03459e-05
-1.21972e-06
-1.01016e-05
-1.26973e-06
-9.8483e-06
-1.31837e-06
-9.58618e-06
-1.36557e-06
-9.31552e-06
-1.41125e-06
-9.03665e-06
-1.45534e-06
-8.74987e-06
-1.49777e-06
-8.45549e-06
-1.53847e-06
-8.15387e-06
-1.57738e-06
-7.84534e-06
-1.61445e-06
-7.53027e-06
-1.6496e-06
-7.20903e-06
-1.68277e-06
-6.882e-06
-1.71387e-06
-6.54961e-06
-1.7428e-06
-6.21229e-06
-1.76942e-06
-5.87051e-06
-1.79356e-06
-5.5248e-06
-1.81496e-06
-5.17573e-06
-1.83331e-06
-4.82397e-06
-1.84819e-06
-4.47028e-06
-1.85902e-06
-4.11554e-06
-1.86509e-06
-3.7608e-06
-1.8655e-06
-3.40731e-06
-1.8591e-06
-3.05652e-06
-1.84455e-06
-2.71018e-06
-1.82022e-06
-2.37033e-06
-1.78424e-06
-2.03933e-06
-1.7345e-06
-1.71993e-06
-1.66874e-06
-1.41523e-06
-1.58458e-06
-1.12871e-06
-1.47973e-06
-8.64219e-07
-1.35216e-06
-6.25948e-07
-1.2004e-06
-4.18408e-07
-1.02389e-06
-2.46445e-07
-8.23476e-07
-1.15317e-07
-6.01914e-07
-3.08817e-08
-3.64511e-07
-1.19856e-07
-3.41989e-08
1.66804e-07
-1.22884e-07
4.57754e-07
-2.55131e-07
7.08008e-07
-4.22357e-07
9.19975e-07
-6.17704e-07
1.09671e-06
-8.35607e-07
1.24168e-06
-1.07149e-06
1.35853e-06
-1.32158e-06
1.45097e-06
-1.58272e-06
1.52258e-06
-1.85232e-06
1.57678e-06
-2.12823e-06
1.61664e-06
-2.40871e-06
1.64494e-06
-2.69236e-06
1.66406e-06
-2.97806e-06
1.67601e-06
-3.26493e-06
1.68247e-06
-3.55227e-06
1.68477e-06
-3.83954e-06
1.68393e-06
-4.12634e-06
1.68076e-06
-4.41232e-06
1.67582e-06
-4.69724e-06
1.66953e-06
-4.98086e-06
1.66217e-06
-5.26302e-06
1.65392e-06
-5.54355e-06
1.6449e-06
-5.8223e-06
1.63517e-06
-6.09914e-06
1.62475e-06
-6.37392e-06
1.61365e-06
-6.64652e-06
1.60185e-06
-6.9168e-06
1.58934e-06
-7.18461e-06
1.57607e-06
-7.44982e-06
1.56203e-06
-7.71228e-06
1.54718e-06
-7.97184e-06
1.53148e-06
-8.22834e-06
1.5149e-06
-8.48163e-06
1.49741e-06
-8.73153e-06
1.47896e-06
-8.97789e-06
1.45952e-06
-9.22051e-06
1.43906e-06
-9.45923e-06
1.41754e-06
-9.69386e-06
1.39493e-06
-9.92419e-06
1.37118e-06
-1.01501e-05
1.34627e-06
-1.03712e-05
1.32016e-06
-1.05875e-05
1.29282e-06
-1.07987e-05
1.26421e-06
-1.10046e-05
1.2343e-06
-1.12049e-05
1.20307e-06
-1.13995e-05
1.17049e-06
-1.15881e-05
1.13652e-06
-1.17705e-05
1.10114e-06
-1.19464e-05
1.06433e-06
-1.21157e-05
1.02607e-06
-1.2278e-05
9.86337e-07
-1.24332e-05
9.45121e-07
-1.2581e-05
9.02408e-07
-1.27211e-05
8.58189e-07
-1.28534e-05
8.12459e-07
-1.29775e-05
7.65218e-07
-1.30932e-05
7.16469e-07
-1.32004e-05
6.66219e-07
-1.32987e-05
6.14482e-07
-1.33879e-05
5.61275e-07
-1.34679e-05
5.0662e-07
-1.35383e-05
4.50546e-07
-1.3599e-05
3.93086e-07
-1.36497e-05
3.3428e-07
-1.36903e-05
2.74174e-07
-1.37206e-05
2.12818e-07
-1.37403e-05
1.5027e-07
-1.37494e-05
8.65933e-08
-1.37476e-05
2.18577e-08
-1.37349e-05
-4.38615e-08
-1.3711e-05
-1.10483e-07
-1.36758e-05
-1.77919e-07
-1.36294e-05
-2.46077e-07
-1.35715e-05
-3.14858e-07
-1.35021e-05
-3.84161e-07
-1.34212e-05
-4.53875e-07
-1.33287e-05
-5.23889e-07
-1.32246e-05
-5.94088e-07
-1.31089e-05
-6.6435e-07
-1.29816e-05
-7.34553e-07
-1.28428e-05
-8.04573e-07
-1.26926e-05
-8.74282e-07
-1.2531e-05
-9.43553e-07
-1.23582e-05
-1.01226e-06
-1.21742e-05
-1.08027e-06
-1.19793e-05
-1.14745e-06
-1.17735e-05
-1.21369e-06
-1.15571e-05
-1.27886e-06
-1.13302e-05
-1.34283e-06
-1.10932e-05
-1.40549e-06
-1.08462e-05
-1.46673e-06
-1.05894e-05
-1.52644e-06
-1.03233e-05
-1.58452e-06
-1.0048e-05
-1.64087e-06
-9.76385e-06
-1.69539e-06
-9.47119e-06
-1.74801e-06
-9.17032e-06
-1.79863e-06
-8.8616e-06
-1.84719e-06
-8.54537e-06
-1.89361e-06
-8.22201e-06
-1.93781e-06
-7.89188e-06
-1.97972e-06
-7.55538e-06
-2.01926e-06
-7.21293e-06
-2.05632e-06
-6.86494e-06
-2.09078e-06
-6.51189e-06
-2.12247e-06
-6.15426e-06
-2.15118e-06
-5.7926e-06
-2.17662e-06
-5.42751e-06
-2.1984e-06
-5.05968e-06
-2.21602e-06
-4.68989e-06
-2.22881e-06
-4.31906e-06
-2.23593e-06
-3.94825e-06
-2.2363e-06
-3.57875e-06
-2.22861e-06
-3.21204e-06
-2.21126e-06
-2.8499e-06
-2.18236e-06
-2.4944e-06
-2.13974e-06
-2.14795e-06
-2.08095e-06
-1.81335e-06
-2.00333e-06
-1.49379e-06
-1.90415e-06
-1.19285e-06
-1.78067e-06
-9.14532e-07
-1.63047e-06
-6.63264e-07
-1.45166e-06
-4.43881e-07
-1.24327e-06
-2.61675e-07
-1.00568e-06
-1.22466e-07
-7.41122e-07
-3.27576e-08
-4.5422e-07
-1.52613e-07
-3.59835e-08
2.02788e-07
-1.29416e-07
5.51186e-07
-2.68725e-07
8.47318e-07
-4.44719e-07
1.09597e-06
-6.50026e-07
1.30202e-06