/*--------------------------------*- C++ -*----------------------------------*\
| =========                 |                                                 |
| \\      /  F ield         | OpenFOAM: The Open Source CFD Toolbox           |
|  \\    /   O peration     | Version:  2406                                  |
|   \\  /    A nd           | Website:  www.openfoam.com                      |
|    \\/     M anipulation  |                                                 |
\*---------------------------------------------------------------------------*/
FoamFile
{
    version     2.0;
    format      ascii;
    arch        "LSB;label=32;scalar=64";
    class       volScalarField;
    location    "22.4";
    object      p;
}
// * * * * * * * * * * * * * * * * * * * * * * * * * * * * * * * * * * * * * //

dimensions      [0 2 -2 0 0 0 0];

internalField   nonuniform List<scalar> 
900
(
5.41669e-09
-2.79089e-05
-0.00010434
-0.000226689
-0.000379376
-0.000560641
-0.000780659
-0.00105386
-0.00139188
-0.0017712
-0.00210081
-0.0022763
-0.00223881
-0.00195147
-0.00135564
-0.000368695
0.00102896
0.00269928
0.00428361
0.00526691
0.00517309
0.00387657
0.00179344
-0.000315526
-0.00183918
-0.00265676
-0.00301774
-0.00315657
-0.00318426
-0.00317417
2.42784e-05
-8.53342e-06
-8.61141e-05
-0.000204065
-0.00034426
-0.000506207
-0.00070317
-0.000946252
-0.00124038
-0.00162659
-0.00212298
-0.00261171
-0.00290836
-0.0028891
-0.00246396
-0.00155902
-0.000167085
0.00153988
0.00320265
0.00430431
0.00433975
0.00312131
0.00100334
-0.00118351
-0.00264012
-0.00322185
-0.00330807
-0.00325481
-0.00319273
-0.00316258
9.89034e-05
5.10318e-05
-3.85766e-05
-0.000159358
-0.000289102
-0.000436554
-0.000637603
-0.000962924
-0.00148781
-0.0022327
-0.00314654
-0.00408804
-0.00486355
-0.00528882
-0.0052124
-0.00455915
-0.00337911
-0.00178679
-6.03459e-05
0.00133898
0.00189352
0.00129528
-0.000278362
-0.00212129
-0.00339547
-0.00381573
-0.00371198
-0.00350302
-0.0033538
-0.00329863
0.000239217
0.000173865
6.366e-05
-6.89294e-05
-0.000222079
-0.000446919
-0.000855839
-0.00158528
-0.00271306
-0.00417875
-0.00579963
-0.00735564
-0.00864419
-0.00950316
-0.0098166
-0.00952763
-0.0086515
-0.00726503
-0.00554878
-0.00381975
-0.00248971
-0.00192737
-0.00222685
-0.00305747
-0.00381086
-0.00411161
-0.00401909
-0.00380144
-0.00363412
-0.00356672
0.000435582
0.000358468
0.000220063
4.14748e-05
-0.000234434
-0.000748421
-0.00169249
-0.00318729
-0.00518266
-0.00746841
-0.00976603
-0.0118261
-0.0134717
-0.0146069
-0.0152079
-0.0152703
-0.0147544
-0.0137039
-0.0122108
-0.0104141
-0.0085279
-0.00682655
-0.00553921
-0.00473533
-0.00432438
-0.00413495
-0.00405416
-0.00396262
-0.00388305
-0.00385678
0.000653305
0.000569401
0.000381789
7.59442e-05
-0.000507007
-0.00159955
-0.00338155
-0.00581773
-0.0086529
-0.0115438
-0.0141971
-0.0164268
-0.018147
-0.0193425
-0.0200383
-0.020261
-0.0200218
-0.0193368
-0.0182245
-0.0167069
-0.0148257
-0.0126419
-0.0102442
-0.00783386
-0.00578129
-0.00446828
-0.00398097
-0.00407486
-0.00409642
-0.00414467
0.000805523
0.000708684
0.000423674
-0.000138493
-0.00124817
-0.00315061
-0.00587169
-0.0091334
-0.01251
-0.0156353
-0.0183006
-0.020438
-0.0220615
-0.0232118
-0.0239228
-0.0242208
-0.0241426
-0.0237049
-0.0229116
-0.0217503
-0.0201791
-0.0181164
-0.0154614
-0.0122093
-0.00872177
-0.00583944
-0.00434128
-0.00418755
-0.00440761
-0.00446724
0.000756073
0.000624754
0.000171808
-0.000783168
-0.00257398
-0.00533736
-0.00885363
-0.0126275
-0.0161851
-0.0192514
-0.0217569
-0.0237479
-0.0252969
-0.0264536
-0.0272348
-0.0276416
-0.0276834
-0.0273755
-0.0267319
-0.0257537
-0.0244108
-0.0226175
-0.020199
-0.0169334
-0.0128431
-0.00863063
-0.0055585
-0.00432922
-0.00500625
-0.00488896
0.000357971
0.000162393
-0.00052336
-0.00195332
-0.00444286
-0.00793271
-0.011959
-0.015916
-0.0194013
-0.0222909
-0.024647
-0.0265805
-0.0281696
-0.0294374
-0.0303651
-0.0309194
-0.0310785
-0.0308433
-0.0302326
-0.0292703
-0.0279702
-0.0263026
-0.0241347
-0.0212016
-0.0172454
-0.0124743
-0.00803835
-0.00553667
-0.00539859
-0.00554612
-0.000479377
-0.000764646
-0.00171231
-0.00361051
-0.00668483
-0.0106637
-0.014908
-0.0188183
-0.0221278
-0.024861
-0.0271662
-0.02917
-0.0309228
-0.0324028
-0.0335453
-0.0342786
-0.0345545
-0.0343586
-0.0337085
-0.0326491
-0.0312397
-0.029517
-0.0274214
-0.0247527
-0.0212295
-0.0166869
-0.0116134
-0.00722368
-0.00508766
-0.0067446
-0.00174723
-0.0021331
-0.00332341
-0.00560195
-0.00907782
-0.0133017
-0.0175503
-0.0213043
-0.024443
-0.0271026
-0.0294707
-0.031658
-0.0336709
-0.0354354
-0.0368394
-0.0377754
-0.0381681
-0.0379893
-0.0372589
-0.0360389
-0.0344237
-0.0325028
-0.0302906
-0.0276974
-0.024585
-0.0205939
-0.0153368
-0.00936857
-0.00661683
-0.00815516
-0.00333307
-0.00381736
-0.00519204
-0.00772284
-0.0114136
-0.0156927
-0.0198271
-0.0234038
-0.0264266
-0.0291011
-0.0316218
-0.0340661
-0.0363904
-0.0384693
-0.0401482
-0.0412877
-0.0417908
-0.0416175
-0.0407899
-0.0393884
-0.0375318
-0.0353403
-0.0328967
-0.0302159
-0.0273245
-0.0237657
-0.0187181
-0.0123546
-0.00935459
-0.00845658
-0.00506171
-0.00563419
-0.00711718
-0.00977379
-0.013529
-0.0177454
-0.0217246
-0.0251519
-0.0281216
-0.0308753
-0.0335961
-0.0363236
-0.038967
-0.0413572
-0.0433051
-0.0446428
-0.0452505
-0.0450753
-0.0441414
-0.0425483
-0.0404418
-0.0379634
-0.0352622
-0.0324044
-0.0295243
-0.0261785
-0.0216071
-0.0155154
-0.011232
-0.00724493
-0.00675184
-0.00739198
-0.00891174
-0.0115952
-0.0153127
-0.0194095
-0.0232384
-0.0265588
-0.0295215
-0.0323825
-0.0353076
-0.038303
-0.0412399
-0.043916
-0.0461143
-0.0476394
-0.0483461
-0.0481672
-0.0471273
-0.0453406
-0.0429911
-0.0402389
-0.0372982
-0.034232
-0.0312458
-0.0279912
-0.023998
-0.0184126
-0.0127714
-0.00657185
-0.00825982
-0.00893166
-0.0104384
-0.0130793
-0.0166934
-0.0206515
-0.0243562
-0.0276093
-0.0305889
-0.0335514
-0.0366481
-0.0398626
-0.0430398
-0.0459538
-0.0483652
-0.0500539
-0.0508486
-0.0506663
-0.0495323
-0.0475657
-0.0449999
-0.0420086
-0.0388646
-0.0356136
-0.0325107
-0.0292893
-0.0258325
-0.0208468
-0.0148887
-0.00789299
-0.00949692
-0.0101542
-0.0116166
-0.0141632
-0.0176304
-0.0214462
-0.0250542
-0.02827
-0.0312686
-0.0342991
-0.0375069
-0.0408658
-0.0442069
-0.0472896
-0.0498571
-0.0516692
-0.0525349
-0.0523462
-0.0511416
-0.0490248
-0.0462973
-0.0431088
-0.039822
-0.0364386
-0.0332777
-0.0300909
-0.0270758
-0.0227282
-0.0174153
-0.0106879
-0.0104277
-0.0110353
-0.0124065
-0.0148158
-0.0181064
-0.0217744
-0.0253053
-0.0285057
-0.0315112
-0.0345615
-0.0378042
-0.0412164
-0.0446283
-0.0477927
-0.0504408
-0.0523155
-0.0532242
-0.0530188
-0.0517793
-0.0495523
-0.0467478
-0.0433951
-0.0400957
-0.0365759
-0.0334793
-0.0303165
-0.0276776
-0.0239475
-0.019775
-0.0137628
-0.0110641
-0.0115833
-0.0128069
-0.0150323
-0.0181215
-0.0216367
-0.0250958
-0.0282796
-0.0312737
-0.0342957
-0.0374965
-0.0408672
-0.0442501
-0.0474002
-0.0500453
-0.051918
-0.0528228
-0.0526095
-0.05135
-0.0490869
-0.0462604
-0.042815
-0.0396281
-0.0359379
-0.0330944
-0.0298359
-0.0276282
-0.0243845
-0.0214562
-0.0162277
-0.0114399
-0.0118299
-0.0128583
-0.0148491
-0.0176947
-0.0210293
-0.0244067
-0.0275694
-0.0305407
-0.0334996
-0.036596
-0.0398422
-0.0431044
-0.0461485
-0.0487118
-0.0505188
-0.0513871
-0.0511563
-0.0498981
-0.047662
-0.0448434
-0.0414534
-0.0383094
-0.0346037
-0.03204
-0.028559
-0.0269264
-0.0239299
-0.0222355
-0.0177364
-0.0115898
-0.0118218
-0.0126234
-0.014328
-0.0168652
-0.0199611
-0.0232233
-0.0263561
-0.0293053
-0.0321914
-0.0351515
-0.0382185
-0.0412928
-0.0441585
-0.0465772
-0.0482691
-0.0490725
-0.0488193
-0.0475846
-0.0454083
-0.0426506
-0.0393779
-0.0362518
-0.0326619
-0.0302062
-0.026632
-0.0255442
-0.0224675
-0.021961
-0.0180769
-0.0115491
-0.011623
-0.0121843
-0.0135449
-0.0156891
-0.0184577
-0.0215437
-0.0246283
-0.0275705
-0.0304084
-0.033246
-0.0361233
-0.0389821
-0.0416298
-0.0438658
-0.0454146
-0.0461364
-0.0458603
-0.0446615
-0.0425615
-0.0399021
-0.0367396
-0.0336512
-0.0301708
-0.0277114
-0.0241603
-0.0234291
-0.0200472
-0.0205555
-0.0167452
-0.0113593
-0.0113065
-0.0116261
-0.0125825
-0.0142373
-0.016571
-0.0193868
-0.022379
-0.0253262
-0.0281655
-0.0309415
-0.0336747
-0.0363435
-0.03878
-0.0408293
-0.042231
-0.0428688
-0.0425728
-0.0414195
-0.0394011
-0.0368435
-0.0337593
-0.0307032
-0.0272531
-0.0247469
-0.0211993
-0.0206637
-0.0169168
-0.0181708
-0.0135099
-0.0110716
-0.0109527
-0.0110314
-0.0115196
-0.012587
-0.0143658
-0.0167966
-0.0196219
-0.0225711
-0.0254708
-0.0282807
-0.030968
-0.0335286
-0.0358141
-0.0377149
-0.038995
-0.0395648
-0.0392565
-0.0381488
-0.0361996
-0.0337172
-0.0306608
-0.0275864
-0.0240666
-0.0214713
-0.0178244
-0.0174721
-0.0132912
-0.0153639
-0.00964656
-0.0107339
-0.0105901
-0.0104376
-0.010411
-0.0108069
-0.01193
-0.013854
-0.0164096
-0.0193233
-0.0223179
-0.0252556
-0.028021
-0.0305965
-0.0328375
-0.0346708
-0.0358854
-0.0364223
-0.036113
-0.0350474
-0.0331446
-0.0307
-0.0276191
-0.0244659
-0.020797
-0.0180504
-0.0141628
-0.014017
-0.00919828
-0.0126427
-0.00702031
-0.0103917
-0.0102207
-0.00985335
-0.00925699
-0.00894929
-0.00936059
-0.0106888
-0.0128762
-0.0156891
-0.0187695
-0.0218941
-0.024846
-0.0275641
-0.0298826
-0.0317533
-0.0329797
-0.0335383
-0.0332553
-0.032229
-0.030354
-0.0279208
-0.0247847
-0.0215231
-0.0176653
-0.0147064
-0.0104438
-0.0103585
-0.00444085
-0.00958957
-0.002879
-0.0100459
-0.00976828
-0.00922678
-0.00801076
-0.00706104
-0.00676179
-0.00747389
-0.00925218
-0.0118935
-0.0150061
-0.0183156
-0.0215021
-0.0244473
-0.0269402
-0.0289444
-0.030259
-0.0308968
-0.0306754
-0.0297217
-0.0278876
-0.0254819
-0.0223031
-0.0189692
-0.0149378
-0.011752
-0.0070686
-0.0065766
0.000980565
-0.00449975
0.0106712
-0.00994259
-0.0092813
-0.00850758
-0.00661255
-0.00522092
-0.00423514
-0.00446225
-0.00585378
-0.00829496
-0.0113802
-0.0148365
-0.0182354
-0.0214352
-0.0241435
-0.0263491
-0.0278039
-0.0285818
-0.0284571
-0.0276275
-0.0258644
-0.0235479
-0.0203765
-0.0170463
-0.0128815
-0.00945037
-0.00433737
-0.00280711
0.00641048
0.00451433
0.0320897
-0.0103066
-0.00880014
-0.00773766
-0.00518397
-0.00347084
-0.00194055
-0.00191881
-0.00299173
-0.00528879
-0.00832126
-0.0118874
-0.0154306
-0.0188623
-0.0217634
-0.0241936
-0.0258049
-0.0267708
-0.0267664
-0.0260941
-0.0244282
-0.0222573
-0.0191391
-0.0158768
-0.0115835
-0.00787177
-0.00205893
0.00135533
0.0125999
0.0185379
0.0470224
-0.0154765
-0.00840946
-0.00709301
-0.00394974
-0.00206404
-0.000195466
-0.000101276
-0.000942001
-0.00321316
-0.00618139
-0.0098323
-0.0134293
-0.0170396
-0.0200491
-0.022686
-0.0244001
-0.0255888
-0.0256689
-0.0252592
-0.0236416
-0.021766
-0.0185712
-0.0155778
-0.0109478
-0.00707225
8.0505e-05
0.00729342
0.025533
0.0494547
0.0883754
-0.0203455
-0.00860641
-0.00656982
-0.00340885
-0.000761328
0.000933982
0.00103967
8.89178e-05
-0.0022245
-0.00520735
-0.00890795
-0.012518
-0.0161986
-0.0192281
-0.021956
-0.0236923
-0.0249736
-0.0250767
-0.0247407
-0.0231547
-0.0212873
-0.0181605
-0.0149827
-0.0104838
-0.00588938
0.00176675
0.0156317
0.0500956
0.12155
0.235444
)
;

boundaryField
{
    movingWall
    {
        type            zeroGradient;
    }
    fixedWalls
    {
        type            zeroGradient;
    }
    frontAndBack
    {
        type            empty;
    }
}


// ************************************************************************* //
