/*--------------------------------*- C++ -*----------------------------------*\
| =========                 |                                                 |
| \\      /  F ield         | OpenFOAM: The Open Source CFD Toolbox           |
|  \\    /   O peration     | Version:  2406                                  |
|   \\  /    A nd           | Website:  www.openfoam.com                      |
|    \\/     M anipulation  |                                                 |
\*---------------------------------------------------------------------------*/
FoamFile
{
    version     2.0;
    format      ascii;
    arch        "LSB;label=32;scalar=64";
    class       volScalarField;
    location    "0.045";
    object      error_velocity_mag_squ;
}
// * * * * * * * * * * * * * * * * * * * * * * * * * * * * * * * * * * * * * //

dimensions      [0 2 -2 0 0 0 0];

internalField   nonuniform List<scalar> 
16384
(
2.01830451253e+72
3.39637111257e+72
3.48870107343e+72
3.85188022376e+72
4.22639689844e+72
4.34979476092e+72
4.1795750774e+72
3.56919039673e+72
2.64270147777e+72
1.7857163466e+72
1.2504491833e+72
1.01172953814e+72
9.5222568651e+71
1.0029231284e+72
1.12550708634e+72
1.29951786257e+72
1.52123363109e+72
1.75000209233e+72
1.92719999487e+72
2.09484760394e+72
2.25435733819e+72
2.24240553862e+72
2.1491092397e+72
2.21275630909e+72
2.3171528156e+72
2.28585391562e+72
2.3453934372e+72
2.69174215795e+72
3.09814788367e+72
3.21608912212e+72
3.09410990082e+72
2.98877565514e+72
2.93541862233e+72
2.81195706752e+72
2.62652245603e+72
2.53134036471e+72
2.5140495647e+72
2.34365056449e+72
1.92873213421e+72
1.54409508012e+72
1.37664321805e+72
1.39460022081e+72
1.45547841506e+72
1.41657187401e+72
1.3401022789e+72
1.32245794275e+72
1.3360773651e+72
1.277578703e+72
1.09972072416e+72
8.92775494012e+71
7.4601537787e+71
6.75540220655e+71
6.45243975933e+71
5.86206690273e+71
4.89532393636e+71
4.02447297418e+71
3.44833019404e+71
3.08069811724e+71
2.67409305052e+71
2.03607159667e+71
1.35581032031e+71
9.36053066401e+70
9.72108555367e+70
1.53350847737e+71
2.22795176292e+71
2.4268795711e+71
2.11397728858e+71
1.87473475244e+71
2.1550888159e+71
3.01036293218e+71
4.21189752185e+71
5.28887217529e+71
5.83238364153e+71
5.91998202792e+71
6.05349550852e+71
6.70495673942e+71
7.99770370709e+71
9.67521637077e+71
1.12739176086e+72
1.242093914e+72
1.30651444877e+72
1.34653348409e+72
1.39936308425e+72
1.49239890176e+72
1.63192119571e+72
1.80661527498e+72
2.00011048217e+72
2.19748545013e+72
2.38258077868e+72
2.53994777297e+72
2.66512318809e+72
2.76745817123e+72
2.85983326462e+72
2.95160601483e+72
3.05141663993e+72
3.16248237348e+72
3.26548590585e+72
3.31709606791e+72
3.28115462145e+72
3.16053204727e+72
2.99067451226e+72
2.80789269557e+72
2.63180925687e+72
2.46404596959e+72
2.28472144338e+72
2.06350565349e+72
1.79938534286e+72
1.53776350432e+72
1.32592498848e+72
1.17353768835e+72
1.07505732366e+72
1.02615893657e+72
9.9887231183e+71
9.62975302351e+71
9.38906197167e+71
9.62691617279e+71
1.03575289422e+72
1.17489574959e+72
1.431987513e+72
1.82105994143e+72
2.2724881561e+72
2.63977193039e+72
2.83341404958e+72
2.93678765673e+72
2.94214190323e+72
2.69625017646e+72
2.3641723482e+72
2.10319097753e+72
3.71596274813e+72
7.43957008379e+72
7.21877371463e+72
5.87040070434e+72
4.1878082081e+72
2.93230918809e+72
2.15837026554e+72
1.66273115301e+72
1.32307915018e+72
1.15076341061e+72
1.17218536452e+72
1.33324614811e+72
1.53096481269e+72
1.68884937548e+72
1.78637747097e+72
1.86324060106e+72
1.9862464661e+72
2.12975244268e+72
2.19288949119e+72
2.24819765768e+72
2.3035040572e+72
2.1524997761e+72
1.95956071009e+72
1.9678139065e+72
1.93781436507e+72
1.92904075011e+72
2.26249456554e+72
2.78835883605e+72
2.80346106127e+72
2.57352843111e+72
2.75888727737e+72
3.0998395958e+72
2.87098954305e+72
2.29906490852e+72
2.13048406069e+72
2.32699039291e+72
2.18663979519e+72
1.55663936885e+72
1.10448387074e+72
1.18336178542e+72
1.59992487733e+72
1.75515598179e+72
1.44156829198e+72
1.12507465173e+72
1.12529417487e+72
1.31617270513e+72
1.30294058778e+72
9.75363498705e+71
6.5988948174e+71
5.80830077587e+71
6.7131420561e+71
7.25408679689e+71
6.11165327536e+71
4.19662407221e+71
3.04659111619e+71
3.04315377177e+71
3.47937633548e+71
3.28599959563e+71
2.22453387256e+71
1.12720468521e+71
6.32553744033e+70
6.76956619129e+70
1.04822724628e+71
1.49344108626e+71
1.68088410316e+71
1.56472632332e+71
1.38619286819e+71
1.25784075321e+71
1.19731006899e+71
1.4357543923e+71
2.20219223043e+71
3.29888890606e+71
4.26519652644e+71
4.89083275305e+71
5.3506024153e+71
5.95691678385e+71
6.93624528649e+71
8.30145856155e+71
9.7746245131e+71
1.09167542016e+72
1.14880349829e+72
1.17037290679e+72
1.20935937305e+72
1.31072358426e+72
1.48421983512e+72
1.70481456703e+72
1.9272868127e+72
2.10503742724e+72
2.21598143305e+72
2.28308161107e+72
2.36064027352e+72
2.48849550989e+72
2.66104394605e+72
2.84118720018e+72
2.9909655589e+72
3.08324106388e+72
3.1046645843e+72
3.06813154422e+72
3.01190113991e+72
2.96505204455e+72
2.91713210205e+72
2.83590714208e+72
2.70587188339e+72
2.53319799238e+72
2.32701607952e+72
2.10009216973e+72
1.87653236958e+72
1.67322562107e+72
1.48568066678e+72
1.31606295572e+72
1.19677436464e+72
1.16380702182e+72
1.23085124283e+72
1.39505478695e+72
1.61813323489e+72
1.80739600455e+72
1.88921103448e+72
1.88775307918e+72
1.86710470093e+72
1.84440473124e+72
1.8133389906e+72
1.80615907629e+72
1.93272071555e+72
2.37073848009e+72
3.20212577694e+72
4.18638858544e+72
4.97393047049e+72
6.1515653356e+72
9.82409152076e+72
8.70567041617e+72
6.53366663443e+72
5.29691751982e+72
4.19672253416e+72
3.2466691593e+72
2.47812493636e+72
1.88477042887e+72
1.46631590418e+72
1.22904643455e+72
1.15978722177e+72
1.20920052606e+72
1.31023996097e+72
1.4100611554e+72
1.4722575666e+72
1.4859863581e+72
1.50378206172e+72
1.54639947818e+72
1.50215894276e+72
1.39807389146e+72
1.36355464972e+72
1.29933334669e+72
1.2217280326e+72
1.31847057872e+72
1.50133596066e+72
1.5525357613e+72
1.70511514119e+72
2.10426344516e+72
2.59647346081e+72
2.8820159401e+72
2.78114539286e+72
2.34327361725e+72
1.90589761669e+72
1.83420035061e+72
2.10918237645e+72
2.21474336676e+72
1.77133746191e+72
1.27190378786e+72
1.26666756133e+72
1.67096946912e+72
1.85534134944e+72
1.48256058963e+72
1.07036547296e+72
1.0387194978e+72
1.28331238412e+72
1.34730145291e+72
9.84058427603e+71
5.82325763073e+71
4.7189461109e+71
6.32446754805e+71
8.28829720836e+71
7.46238947578e+71
4.61112237567e+71
2.75679502179e+71
2.71150798807e+71
3.78750276794e+71
4.28908923384e+71
3.02353931344e+71
1.31890872527e+71
5.59223160807e+70
6.51170543377e+70
1.39455318157e+71
2.08621869951e+71
1.81336105694e+71
1.23386134759e+71
1.34905259487e+71
1.61261064923e+71
1.30817271694e+71
8.75287079592e+70
9.08962983533e+70
1.48713790543e+71
2.54109765625e+71
3.82880988588e+71
4.87239216323e+71
5.46104116786e+71
5.90492545819e+71
6.65549744825e+71
7.85730531125e+71
9.18885069682e+71
1.00850856433e+72
1.02876421488e+72
1.01822007296e+72
1.04875540886e+72
1.17004675805e+72
1.38558483038e+72
1.65366946209e+72
1.89746857479e+72
2.043968504e+72
2.08259400267e+72
2.07995276696e+72
2.12507146506e+72
2.26433755354e+72
2.48401466674e+72
2.72823708611e+72
2.92190242451e+72
3.00304439854e+72
2.96405060711e+72
2.86068474291e+72
2.76557389449e+72
2.71207007417e+72
2.68553647116e+72
2.65282914401e+72
2.58388676965e+72
2.45738339942e+72
2.27045178567e+72
2.04401039801e+72
1.80449579435e+72
1.56477472461e+72
1.33564958963e+72
1.14408531706e+72
1.02204681142e+72
9.90203604682e+71
1.0638029792e+72
1.24108572429e+72
1.46477393718e+72
1.64265823304e+72
1.74079811017e+72
1.81525122287e+72
1.9336346772e+72
2.10984806444e+72
2.31900209677e+72
2.54683472772e+72
2.8400318857e+72
3.30954011713e+72
4.0452391592e+72
5.05539204468e+72
6.72749314947e+72
1.13947893436e+73
1.44014072585e+73
7.42784860304e+72
5.24889870512e+72
4.30312185524e+72
3.56719704489e+72
2.89384704647e+72
2.32850715021e+72
1.89156797159e+72
1.57470440613e+72
1.36403862192e+72
1.24316047128e+72
1.18487192267e+72
1.15827541911e+72
1.14838273924e+72
1.14354044033e+72
1.12304700951e+72
1.11774550455e+72
1.16148823466e+72
1.17587289019e+72
1.15329140313e+72
1.1665140464e+72
1.15726792814e+72
1.18940190804e+72
1.31847166877e+72
1.44926862195e+72
1.66198349509e+72
2.13221330768e+72
2.52030030491e+72
2.38848110505e+72
2.18646351273e+72
2.4944098496e+72
3.04433797737e+72
3.03562758646e+72
2.43794832295e+72
1.91395544331e+72
1.75365042086e+72
1.7251510955e+72
1.63759493204e+72
1.57047295382e+72
1.5381294632e+72
1.42978746286e+72
1.24961016222e+72
1.17724428785e+72
1.2403961307e+72
1.2145092589e+72
9.48496203189e+71
6.17392955184e+71
4.69030272776e+71
5.5429274514e+71
7.53933929773e+71
7.94066055347e+71
5.76407561104e+71
3.46180811348e+71
2.84660533736e+71
3.7199941859e+71
4.6518162281e+71
3.81689364768e+71
1.81498633806e+71
6.35153692783e+70
5.31712888309e+70
1.29647895481e+71
2.55633069075e+71
2.60988835354e+71
1.30361444678e+71
8.72915274269e+70
1.70424236504e+71
1.93628484782e+71
1.19476075015e+71
6.18448403032e+70
6.11484821635e+70
1.12604182975e+71
2.34963445569e+71
3.93505042205e+71
5.04634103412e+71
5.45976036118e+71
5.72194482307e+71
6.39602266796e+71
7.55384409637e+71
8.71635039727e+71
9.23733295749e+71
9.0002376249e+71
8.63075960213e+71
8.93782192689e+71
1.03685519009e+72
1.28854621655e+72
1.59019437765e+72
1.83741756517e+72
1.94733292421e+72
1.93286369657e+72
1.89079665336e+72
1.92054171836e+72
2.06737286083e+72
2.31560901889e+72
2.59546092708e+72
2.80594414841e+72
2.87367740373e+72
2.80496108437e+72
2.67128108959e+72
2.54764509283e+72
2.47202782006e+72
2.44508930977e+72
2.44104491817e+72
2.4189421798e+72
2.34255820104e+72
2.19673014125e+72
1.98486339211e+72
1.7224995433e+72
1.4418590645e+72
1.18960185677e+72
1.00745650942e+72
9.23282297624e+71
9.60355525902e+71
1.12222104807e+72
1.35023621456e+72
1.53480651378e+72
1.6086459316e+72
1.6115597811e+72
1.64281430669e+72
1.7782245649e+72
2.04303713428e+72
2.42184100506e+72
2.88463987587e+72
3.43998798106e+72
4.16608458797e+72
5.16411768828e+72
6.46978412612e+72
8.47146263981e+72
9.4292506111e+72
9.89698182513e+72
6.03586933115e+72
4.42157006286e+72
3.77825514961e+72
3.26468803019e+72
2.73786691069e+72
2.2482564351e+72
1.83227538971e+72
1.48613366562e+72
1.2072197247e+72
1.00466825213e+72
8.80796658902e+71
8.27570091289e+71
8.446067155e+71
9.21089943739e+71
1.01412727666e+72
1.14257487467e+72
1.33030247937e+72
1.45041378471e+72
1.5143625694e+72
1.59583640991e+72
1.6056776012e+72
1.64367167004e+72
1.80774833822e+72
1.94245494827e+72
1.99235558305e+72
2.2008232209e+72
2.57682003843e+72
2.94927084254e+72
3.36491793523e+72
3.69595328373e+72
3.29410220108e+72
2.19234005931e+72
1.41844435396e+72
1.41287779949e+72
1.8405908593e+72
1.95342625527e+72
1.55403712618e+72
1.23608517168e+72
1.31278620562e+72
1.57024349734e+72
1.61431965706e+72
1.37149581801e+72
1.05951464676e+72
8.2537631432e+71
6.77164790632e+71
5.90672715748e+71
5.77183931387e+71
6.23077779695e+71
6.630777347e+71
6.17201200057e+71
4.92194537066e+71
4.03192420483e+71
4.15885793687e+71
4.5954295728e+71
4.03971336938e+71
2.36585551536e+71
9.58520983623e+70
5.70722555142e+70
1.05747887383e+71
2.33827601437e+71
3.12502850728e+71
2.00020738205e+71
5.6242328036e+70
9.95390304625e+70
2.12697234239e+71
1.96888870977e+71
1.02924873962e+71
5.03956941999e+70
5.15004176544e+70
1.1578918493e+71
2.61052760774e+71
4.20509610965e+71
5.07743732786e+71
5.28459075184e+71
5.51388057471e+71
6.24134427299e+71
7.3667723336e+71
8.27091411328e+71
8.3599087158e+71
7.75887601781e+71
7.2537982435e+71
7.60874920594e+71
9.18965582949e+71
1.19089577063e+72
1.50561546029e+72
1.74557435635e+72
1.83220377199e+72
1.79429550352e+72
1.73561809833e+72
1.75338335874e+72
1.89316494427e+72
2.14022095604e+72
2.42157206884e+72
2.63599136131e+72
2.71358900989e+72
2.65461443971e+72
2.51503574463e+72
2.36511308195e+72
2.25633524278e+72
2.20635685845e+72
2.20140351738e+72
2.20918315383e+72
2.18748143893e+72
2.09090440205e+72
1.89355163298e+72
1.61505646754e+72
1.31311314287e+72
1.04947128563e+72
8.76620205219e+71
8.43775432439e+71
9.70011434984e+71
1.19464648868e+72
1.39285181632e+72
1.47530426375e+72
1.46155680901e+72
1.44513003202e+72
1.51350249856e+72
1.71241247362e+72
2.04613967371e+72
2.48437308236e+72
2.99698782468e+72
3.60833986277e+72
4.40868730013e+72
5.48181109395e+72
6.68602077522e+72
7.3552986384e+72
4.62051303314e+72
4.47188301879e+72
5.55852826122e+72
4.65182058284e+72
3.90274827865e+72
3.30798408256e+72
2.74498082783e+72
2.18385206768e+72
1.65968147539e+72
1.21623966362e+72
8.89324790812e+71
6.94894931501e+71
6.21716543126e+71
6.47279835401e+71
7.6960748944e+71
9.67138800296e+71
1.14807814597e+72
1.32253748577e+72
1.52520825142e+72
1.62392342816e+72
1.64018812055e+72
1.6134116349e+72
1.53458843735e+72
1.56510491784e+72
1.68288776405e+72
1.72607502876e+72
1.92113053742e+72
2.55307261238e+72
3.0702990835e+72
2.76779268707e+72
2.11630804434e+72
1.80209806908e+72
1.74587854934e+72
1.60036852236e+72
1.51896124973e+72
1.68438182901e+72
1.77884018487e+72
1.47484217125e+72
1.11598228885e+72
1.1610335948e+72
1.62303693336e+72
1.96750522248e+72
1.67257160605e+72
1.09045170804e+72
7.55369926023e+71
7.13572257739e+71
7.63826630788e+71
7.18250508601e+71
5.85576045857e+71
4.93247992964e+71
5.11015672057e+71
5.84628751621e+71
6.12579904643e+71
5.77871539455e+71
5.03142732471e+71
3.88535098179e+71
2.52618596768e+71
1.40012750429e+71
8.75382369008e+70
1.060297992e+71
1.90563074309e+71
2.80638985706e+71
2.47585560933e+71
9.31849260349e+70
2.39434485404e+70
1.26196253102e+71
2.20957773328e+71
1.82750970019e+71
9.61659208347e+70
5.21999980282e+70
6.37936628123e+70
1.47715829069e+71
2.95047509527e+71
4.27715684158e+71
4.87551398451e+71
5.02562469772e+71
5.35006463903e+71
6.14952565023e+71
7.1709169429e+71
7.76416257253e+71
7.50331284244e+71
6.71242681496e+71
6.18490697476e+71
6.56872056068e+71
8.16837975439e+71
1.08853344746e+72
1.39989340195e+72
1.6366223845e+72
1.72510445144e+72
1.69036160517e+72
1.6258840919e+72
1.62368710797e+72
1.7317079498e+72
1.94409921139e+72
2.20636820548e+72
2.43541611493e+72
2.55600798428e+72
2.53797496146e+72
2.40923438593e+72
2.23316018649e+72
2.07170820919e+72
1.96730245469e+72
1.94003682417e+72
1.97378080216e+72
2.00591047302e+72
1.95943114595e+72
1.79645307857e+72
1.53273161653e+72
1.21755108154e+72
9.29049873193e+71
7.68332358257e+71
7.98531441787e+71
9.72626908398e+71
1.15805348865e+72
1.25239184379e+72
1.25895494624e+72
1.25265595702e+72
1.30678764388e+72
1.45988792415e+72
1.71541125846e+72
2.04845580895e+72
2.43058405025e+72
2.86796584207e+72
3.41044657595e+72
4.11065064626e+72
4.93789617012e+72
5.61583031417e+72
5.44498183375e+72
3.56026718736e+72
3.21373683492e+72
5.28362962409e+72
5.22154837919e+72
4.30140438754e+72
3.45346057899e+72
2.74155639756e+72
2.09969332525e+72
1.53286235788e+72
1.08706017536e+72
7.90134124717e+71
6.44067756191e+71
6.28354193025e+71
6.9477405215e+71
8.20036158003e+71
9.59191184831e+71
1.0006463492e+72
1.00226731283e+72
1.00167522752e+72
9.46704132329e+71
9.49483137234e+71
9.15178662169e+71
8.2828529984e+71
9.30394360213e+71
1.22448474609e+72
1.38889756173e+72
1.46310639182e+72
1.68949051893e+72
1.74680655719e+72
1.45240080237e+72
1.3741636812e+72
1.78831923761e+72
2.19109518314e+72
1.95785341103e+72
1.47481563594e+72
1.30714659531e+72
1.37183139177e+72
1.35213275468e+72
1.32128417559e+72
1.5374748887e+72
1.86707426851e+72
1.81969033858e+72
1.3246112096e+72
8.89837418422e+71
7.93262823917e+71
8.96462551876e+71
8.85724762602e+71
6.5065639624e+71
4.23129385614e+71
3.83533453779e+71
5.48561441998e+71
7.84115486986e+71
8.40933026803e+71
6.6214597002e+71
4.16770077181e+71
2.43361721996e+71
1.61399100834e+71
1.35268029676e+71
1.43944937616e+71
1.82160361543e+71
2.23314182841e+71
2.17940070906e+71
1.32690126075e+71
2.6275371195e+70
2.37737718445e+70
1.31100434681e+71
2.05913972839e+71
1.73377698601e+71
1.03044229809e+71
6.93427522488e+70
9.32066125654e+70
1.80911923496e+71
3.07154875551e+71
4.09778468498e+71
4.56958791057e+71
4.78385646422e+71
5.20643519676e+71
5.99619138587e+71
6.84745187675e+71
7.19756070521e+71
6.78208699265e+71
5.97323847419e+71
5.464139298e+71
5.80117011418e+71
7.26823420998e+71
9.8181653675e+71
1.28525819323e+72
1.53412940299e+72
1.64933179742e+72
1.63378727577e+72
1.56146142553e+72
1.52042723687e+72
1.57024511176e+72
1.73087039574e+72
1.9787524024e+72
2.2440446806e+72
2.43317473557e+72
2.47710873755e+72
2.36524923578e+72
2.14395387676e+72
1.89917456459e+72
1.72768111053e+72
1.68462444244e+72
1.74390737845e+72
1.82353359555e+72
1.84244121114e+72
1.74029305989e+72
1.4864020581e+72
1.12965443497e+72
8.16918317439e+71
6.89146878367e+71
7.49833872172e+71
8.7750499235e+71
9.62771708128e+71
9.94734413396e+71
1.02671646549e+72
1.10774296731e+72
1.25378571645e+72
1.45122307906e+72
1.67497187148e+72
1.91827496411e+72
2.21289967109e+72
2.61382835028e+72
3.1509333225e+72
3.77682707676e+72
4.35608087366e+72
4.71671066127e+72
5.19267696446e+72
6.74894547187e+72
3.76141647008e+72
4.73343498064e+72
4.88614094597e+72
4.36819075135e+72
3.5786092604e+72
2.84690988219e+72
2.22691516384e+72
1.70936698327e+72
1.29677255044e+72
9.92986776122e+71
8.107950101e+71
7.39128021656e+71
6.93764822304e+71
6.58757199437e+71
6.29950324901e+71
5.32538082522e+71
4.802739769e+71
4.46476161268e+71
4.0430254672e+71
4.88148626487e+71
5.61200153989e+71
5.5294032166e+71
6.91187326488e+71
9.10548317128e+71
9.29083703282e+71
9.96368196924e+71
1.4648223268e+72
2.05595706177e+72
2.26649144136e+72
2.38691632146e+72
2.52513887384e+72
2.16146637409e+72
1.34738314619e+72
8.67289530379e+71
1.000247093e+72
1.4607923396e+72
1.70209096641e+72
1.63719050505e+72
1.6148085941e+72
1.6951151816e+72
1.61090931655e+72
1.30324898471e+72
1.05967219974e+72
1.01000107242e+72
9.67369198688e+71
7.41496878651e+71
4.59327065242e+71
3.48871459993e+71
4.78674011878e+71
8.12582936248e+71
1.05851604904e+72
9.13809016774e+71
5.43919168169e+71
2.72531540375e+71
1.70316416941e+71
1.71198683734e+71
2.07214287003e+71
2.24790477188e+71
2.06828791306e+71
1.65172182996e+71
1.15201413525e+71
5.62965914854e+70
5.75316244423e+69
2.49052198991e+70
1.20266527102e+71
1.93517278447e+71
1.78866725079e+71
1.24107341979e+71
9.68275764029e+70
1.19794637883e+71
1.93561059439e+71
2.9658146123e+71
3.83675506353e+71
4.30192558179e+71
4.56435374037e+71
4.97535844689e+71
5.66046749739e+71
6.37924123322e+71
6.67947849493e+71
6.32493118948e+71
5.5901812362e+71
5.05891805457e+71
5.24443631141e+71
6.46360667571e+71
8.78473624285e+71
1.1801448417e+72
1.45804238445e+72
1.61575700828e+72
1.62147407016e+72
1.52613138329e+72
1.4247619632e+72
1.4074617367e+72
1.52716494553e+72
1.77958163848e+72
2.09768668205e+72
2.36982927867e+72
2.47869225554e+72
2.35888572704e+72
2.05624725692e+72
1.72307117986e+72
1.51251787344e+72
1.47182310064e+72
1.55421048782e+72
1.6894345979e+72
1.78454833353e+72
1.71325850437e+72
1.41846156144e+72
1.01868438964e+72
7.19188057895e+71
6.12304574782e+71
6.28940074234e+71
6.68706073403e+71
7.05211792325e+71
7.69038749362e+71
8.87604306862e+71
1.05340215038e+72
1.22755143793e+72
1.37487219807e+72
1.50712652379e+72
1.69140007977e+72
2.01362850666e+72
2.52110951084e+72
3.16878248819e+72
3.81449466213e+72
4.32752514118e+72
4.79632036546e+72
5.87087643318e+72
1.06828555158e+73
5.27374296785e+72
4.00803016523e+72
4.01662094323e+72
4.05928888778e+72
3.73661764504e+72
3.2207333944e+72
2.67090520479e+72
2.14856191698e+72
1.6748348232e+72
1.2534825163e+72
9.18972069466e+71
7.14807924793e+71
5.61374962975e+71
4.58603854339e+71
4.41661208056e+71
3.98557542001e+71
4.46944363519e+71
4.69173902571e+71
4.56000112433e+71
5.91292920154e+71
6.58746012859e+71
5.93402705168e+71
7.02689287136e+71
1.00165947027e+72
1.19077095542e+72
1.54411390131e+72
2.25588321618e+72
2.6719315015e+72
2.30248284514e+72
1.83148217973e+72
1.60698906599e+72
1.29716944344e+72
9.05578966748e+71
8.26177115249e+71
1.17449068105e+72
1.61626310942e+72
1.63190592629e+72
1.41402521504e+72
1.43819715467e+72
1.710538187e+72
1.83819092766e+72
1.60415909962e+72
1.25390399002e+72
9.95293812074e+71
7.82702196669e+71
5.61784768382e+71
4.25358296524e+71
4.83715928613e+71
7.59666693136e+71
1.09051118525e+72
1.11061478326e+72
7.53102398121e+71
3.81459970887e+71
2.15108189742e+71
2.03002888313e+71
2.64578083703e+71
3.00524026933e+71
2.47562427333e+71
1.52804937414e+71
8.18794965933e+70
4.92139296524e+70
2.76328912566e+70
2.75707017346e+69
2.3030481583e+70
1.14834219066e+71
1.98846301912e+71
1.99664229869e+71
1.49295308814e+71
1.15367690184e+71
1.2668445239e+71
1.87630563276e+71
2.81796970457e+71
3.66193417302e+71
4.10223695281e+71
4.27367372908e+71
4.53918704847e+71
5.11583323394e+71
5.86757553082e+71
6.35440598975e+71
6.21044422053e+71
5.54765314182e+71
4.90067201978e+71
4.84163718734e+71
5.77553310054e+71
7.90251458753e+71
1.099435405e+72
1.41650017782e+72
1.61864042289e+72
1.63215374707e+72
1.49322318997e+72
1.32638017442e+72
1.26161821154e+72
1.36699094578e+72
1.64046842788e+72
2.02035267662e+72
2.37110863791e+72
2.50777566581e+72
2.32874089802e+72
1.93724288906e+72
1.56268020071e+72
1.35717236302e+72
1.33172603899e+72
1.44856195757e+72
1.64204621859e+72
1.75907944045e+72
1.63784077741e+72
1.28987487724e+72
9.00513989308e+71
6.29359275125e+71
4.940954002e+71
4.43006253783e+71
4.49263765376e+71
5.19232698473e+71
6.58002147092e+71
8.38777435918e+71
1.0027795164e+72
1.10684565064e+72
1.17388175572e+72
1.29000463773e+72
1.56169069202e+72
2.06105456805e+72
2.76600986184e+72
3.54330507133e+72
4.23338926439e+72
4.79101241387e+72
5.39604497691e+72
6.67891785341e+72
6.66091656245e+72
5.508089991e+72
4.55902073074e+72
4.15699735241e+72
4.10780839325e+72
4.0512440849e+72
3.74673856039e+72
3.20628728424e+72
2.558433912e+72
1.93362387996e+72
1.382167113e+72
9.46783270198e+71
7.35569647877e+71
6.41035244498e+71
6.01533486701e+71
6.78320412993e+71
6.74524482064e+71
8.01335048409e+71
7.38629317058e+71
6.00344087224e+71
6.5729716927e+71
6.53520058866e+71
6.01919436403e+71
7.62433106737e+71
1.09760340552e+72
1.17828432199e+72
1.30758442611e+72
1.62528000924e+72
1.58543629726e+72
1.18529180649e+72
1.07514709542e+72
1.29770759172e+72
1.32526250371e+72
1.0537989416e+72
9.3998943871e+71
1.11216018905e+72
1.28939592309e+72
1.23904638992e+72
1.22740579235e+72
1.55838078856e+72
2.07675122803e+72
2.18229082089e+72
1.69597175371e+72
1.12517395467e+72
8.06189786265e+71
6.74906538147e+71
6.05997964479e+71
6.09950205001e+71
7.48591771505e+71
9.80807593819e+71
1.10624329797e+72
9.25614939994e+71
5.67531710427e+71
3.25285070728e+71
2.6616890466e+71
3.12882592204e+71
3.68200078565e+71
3.23089368944e+71
1.93547738254e+71
8.63008471972e+70
3.72081677901e+70
2.65168534357e+70
2.15209253086e+70
3.50576213947e+69
2.61270896246e+70
1.27829491815e+71
2.22307411887e+71
2.19656965674e+71
1.55783919559e+71
1.11044827198e+71
1.18364017238e+71
1.81261941427e+71
2.80200556805e+71
3.62344578497e+71
3.8885499451e+71
3.79521731693e+71
3.87160555071e+71
4.4639402783e+71
5.45887728021e+71
6.30743140415e+71
6.43021203423e+71
5.77643577589e+71
4.91417855601e+71
4.56928306699e+71
5.2563750321e+71
7.26088011731e+71
1.04855521757e+72
1.40384018051e+72
1.63557800707e+72
1.63333156379e+72
1.44334057006e+72
1.23497308161e+72
1.15857211e+72
1.27256518888e+72
1.57877934351e+72
2.01733970256e+72
2.40173245617e+72
2.4926693294e+72
2.22853779788e+72
1.80289195272e+72
1.45607541397e+72
1.28618872895e+72
1.29420141125e+72
1.45212039777e+72
1.64337461842e+72
1.67994987427e+72
1.47839593079e+72
1.13565964791e+72
7.95642627628e+71
5.29005124204e+71
3.52857243025e+71
2.7879545313e+71
3.15804898727e+71
4.52435347671e+71
6.34878909633e+71
7.79989114313e+71
8.4495069937e+71
8.71543586445e+71
9.53879384377e+71
1.19632327328e+72
1.68162488364e+72
2.40745503131e+72
3.25516009297e+72
4.07218465855e+72
4.78186847667e+72
5.38794076742e+72
5.80718876417e+72
5.86315810538e+72
2.49251222502e+72
5.37635904308e+72
6.34903933978e+72
5.77376881392e+72
5.18356005102e+72
4.80292826893e+72
4.34577507463e+72
3.68746832194e+72
2.91690754225e+72
2.20714564457e+72
1.61900637691e+72
1.1447633276e+72
9.63389994616e+71
9.09760223387e+71
8.50256762265e+71
8.11193861381e+71
6.3043451575e+71
6.52427374119e+71
4.82146452351e+71
3.23710374378e+71
3.60473397533e+71
3.33653650292e+71
3.16684423033e+71
4.76581197312e+71
6.82146921164e+71
6.70606256196e+71
8.18490291504e+71
1.20826683454e+72
1.31870875574e+72
1.1887096704e+72
1.35156472552e+72
1.70281683242e+72
1.56559931508e+72
1.02291834952e+72
7.46251843744e+71
8.60263292935e+71
1.09524430608e+72
1.22904915157e+72
1.44944480706e+72
1.9396943784e+72
2.34869552833e+72
2.1124277823e+72
1.42835874156e+72
9.26180961542e+71
7.80927485739e+71
8.23442729811e+71
8.61183285703e+71
8.56933349044e+71
8.82023889543e+71
9.41534238386e+71
9.301614853e+71
7.52484363112e+71
5.12598264583e+71
3.81988819933e+71
3.73622492117e+71
4.05976693529e+71
3.8231589827e+71
2.62917588376e+71
1.32781437173e+71
6.32986541347e+70
3.5592684908e+70
3.05259921669e+70
2.43501102391e+70
5.02804440388e+69
4.13525203553e+70
1.59226902688e+71
2.42806569923e+71
2.11263938096e+71
1.33344073008e+71
9.45417828577e+70
1.14197173914e+71
1.91504415903e+71
2.98953589391e+71
3.65685982647e+71
3.53668199213e+71
3.10031313539e+71
3.09849855908e+71
3.88119275918e+71
5.2498183516e+71
6.52304360265e+71
6.89649543245e+71
6.1723537252e+71
5.03699712007e+71
4.43269003847e+71
4.94561035825e+71
6.88434792356e+71
1.02380141898e+72
1.40251297472e+72
1.63438504016e+72
1.59848372652e+72
1.37792437348e+72
1.17118483949e+72
1.11376426722e+72
1.25246506502e+72
1.59822690908e+72
2.05982470861e+72
2.39154884414e+72
2.38087760785e+72
2.07400622082e+72
1.69969887029e+72
1.42926434795e+72
1.3179340924e+72
1.37060790414e+72
1.51673331243e+72
1.60094579078e+72
1.51628554581e+72
1.29133092378e+72
1.00627104605e+72
7.09619059785e+71
4.38606979927e+71
2.46553647917e+71
1.88412396806e+71
2.8160457391e+71
4.57521071978e+71
5.89219891571e+71
6.16447654293e+71
6.01966897995e+71
6.54052576112e+71
8.67350212338e+71
1.31936352266e+72
2.01951402268e+72
2.86790965092e+72
3.73737126344e+72
4.57901315543e+72
5.38768458557e+72
6.06617309128e+72
6.38103245585e+72
5.95056951072e+72
3.99114080893e+72
6.08738261622e+72
7.21439079789e+72
7.57161521526e+72
7.14700490459e+72
6.34627601721e+72
5.47682868682e+72
4.59535204146e+72
3.67001993954e+72
2.82088545514e+72
2.11773098553e+72
1.43553544199e+72
1.02549414757e+72
7.29789951845e+71
4.9684676212e+71
3.02307092984e+71
1.52887602955e+71
1.83184974989e+71
1.26414273835e+71
1.01179300361e+71
1.71756601987e+71
1.38347829253e+71
1.28790419428e+71
3.06434959515e+71
4.92656736753e+71
5.74318944681e+71
9.8390632789e+71
1.68244617352e+72
1.86736890112e+72
1.66331367716e+72
1.69108355722e+72
1.71270314862e+72
1.24886933513e+72
7.06901411642e+71
5.93805382305e+71
8.95259816656e+71
1.30237630161e+72
1.52609076278e+72
1.73397290967e+72
2.05952971065e+72
2.17431705621e+72
1.77972899461e+72
1.22231825635e+72
9.51305333895e+71
1.00188036583e+72
1.13234695096e+72
1.08598629498e+72
9.04405886394e+71
7.86278269053e+71
7.91910012807e+71
8.18595925725e+71
7.33540686613e+71
5.74098631022e+71
4.67017322137e+71
4.25580921404e+71
3.88834257411e+71
3.07735101024e+71
1.95449678069e+71
1.1772452447e+71
8.55527442705e+70
6.63458565252e+70
5.24414134816e+70
2.8978254539e+70
1.17514763221e+70
7.2785291298e+70
1.88955575522e+71
2.30126909488e+71
1.69360992139e+71
1.04353309812e+71
9.14016559709e+70
1.31174540221e+71
2.27487544503e+71
3.35183374381e+71
3.62941719922e+71
2.98607939923e+71
2.32827159763e+71
2.45561563139e+71
3.51750527434e+71
5.24983091006e+71
6.91571699953e+71
7.48042979698e+71
6.62636413509e+71
5.23345580143e+71
4.44599841537e+71
4.84995076628e+71
6.75181982979e+71
1.01550134698e+72
1.38859858519e+72
1.58812648414e+72
1.52248564322e+72
1.31396550174e+72
1.14845575974e+72
1.13012041682e+72
1.30811201427e+72
1.67800248449e+72
2.08519311588e+72
2.28608825815e+72
2.18902034186e+72
1.924131451e+72
1.66257191523e+72
1.49464640394e+72
1.45393784524e+72
1.50734330148e+72
1.54399581947e+72
1.48062773054e+72
1.33518478503e+72
1.15086819619e+72
9.28192976262e+71
6.60216100078e+71
3.81805743863e+71
1.84243487568e+71
1.63114754882e+71
2.94670449032e+71
4.22912830988e+71
4.40608168217e+71
4.00402067238e+71
4.17898390833e+71
5.83828977392e+71
9.6725827894e+71
1.58060405937e+72
2.35396857144e+72
3.21908881047e+72
4.18440340366e+72
5.27228638511e+72
6.37793665232e+72
7.23272652025e+72
7.72660043397e+72
8.68541319761e+72
1.08027047461e+73
8.38802900261e+72
7.81712669803e+72
8.90143865337e+72
9.4547747242e+72
8.9071537812e+72
7.83995340916e+72
6.60117136858e+72
5.1975937915e+72
3.84066999143e+72
2.70590027627e+72
1.54642901448e+72
7.82802108726e+71
3.53778589521e+71
1.73482257172e+71
6.38115568079e+70
3.64580756765e+70
1.08554624802e+71
5.76265793883e+70
7.470241764e+70
1.26534853956e+71
7.44289409083e+70
9.39657327523e+70
3.25776365673e+71
5.2256937293e+71
6.58392055334e+71
1.21674681635e+72
1.9224223914e+72
1.8196223646e+72
1.36487518499e+72
1.25979179038e+72
1.21996041714e+72
8.85726904171e+71
6.23581611066e+71
7.58596114326e+71
1.225540451e+72
1.58387384136e+72
1.60735887872e+72
1.63497370107e+72
1.83875906444e+72
1.91975266934e+72
1.63914353609e+72
1.28407625756e+72
1.18341066221e+72
1.29336735446e+72
1.30489170339e+72
1.05498906923e+72
7.64939739502e+71
6.64023419897e+71
7.56121062205e+71
8.74988966721e+71
8.24109001954e+71
6.30349938278e+71
4.57492275632e+71
3.55373226894e+71
2.89571840664e+71
2.28690429875e+71
1.73292034275e+71
1.47908087566e+71
1.39705585191e+71
1.17683635558e+71
7.92037490099e+70
3.6864854945e+70
3.51256416603e+70
1.09982852381e+71
1.90220082594e+71
1.85044586447e+71
1.3072905939e+71
1.05581958905e+71
1.19245891273e+71
1.78196699835e+71
2.91328753998e+71
3.77700293552e+71
3.43302048481e+71
2.34695888554e+71
1.75906469271e+71
2.15856857001e+71
3.42771442139e+71
5.41499247472e+71
7.38650212612e+71
8.05677560375e+71
7.06166932688e+71
5.50244534462e+71
4.62350703513e+71
4.96529056177e+71
6.83149823816e+71
1.01102040026e+72
1.34204656494e+72
1.49063050498e+72
1.42180622782e+72
1.2675754925e+72