/*--------------------------------*- C++ -*----------------------------------*\
| =========                 |                                                 |
| \\      /  F ield         | OpenFOAM: The Open Source CFD Toolbox           |
|  \\    /   O peration     | Version:  2406                                  |
|   \\  /    A nd           | Website:  www.openfoam.com                      |
|    \\/     M anipulation  |                                                 |
\*---------------------------------------------------------------------------*/
FoamFile
{
    version     2.0;
    format      ascii;
    arch        "LSB;label=32;scalar=64";
    class       volScalarField;
    location    "34.2";
    object      p;
}
// * * * * * * * * * * * * * * * * * * * * * * * * * * * * * * * * * * * * * //

dimensions      [0 2 -2 0 0 0 0];

internalField   nonuniform List<scalar> 
3600
(
-3.09004e-08
9.26927e-06
4.89607e-06
-2.63573e-05
-8.33968e-05
-0.000161664
-0.000255597
-0.000361367
-0.000478381
-0.000608968
-0.000757458
-0.000929591
-0.00113085
-0.00136619
-0.00163991
-0.00195547
-0.00231486
-0.00271754
-0.0031592
-0.00363028
-0.00411467
-0.00458882
-0.0050218
-0.00537662
-0.00561327
-0.00569295
-0.00558269
-0.00525963
-0.00471381
-0.00395178
-0.00300001
-0.00191017
-0.000750129
0.000390162
0.00140557
0.00218575
0.00262869
0.0026567
0.00223194
0.00136711
0.00012767
-0.0013772
-0.00301309
-0.0046441
-0.00615499
-0.00746919
-0.00853923
-0.00935894
-0.00994994
-0.0103495
-0.0106
-0.0107423
-0.0108116
-0.0108348
-0.0108311
-0.0108129
-0.0107873
-0.010758
-0.0107275
-0.0107051
-8.86492e-06
7.48068e-07
-3.10729e-06
-3.48705e-05
-9.1017e-05
-0.000166514
-0.000255993
-0.000355892
-0.0004658
-0.000588318
-0.000728093
-0.000890163
-0.00107962
-0.00130124
-0.00155953
-0.00185861
-0.00220161
-0.00258951
-0.0030198
-0.00348486
-0.00397123
-0.004459
-0.00492083
-0.00532128
-0.00561839
-0.00576819
-0.00573032
-0.00547389
-0.00498491
-0.00426995
-0.00335365
-0.00227894
-0.00112002
2.85202e-05
0.00105891
0.00185798
0.00232012
0.00236371
0.00194731
0.00108146
-0.000168114
-0.00168851
-0.00333842
-0.00497349
-0.00646998
-0.0077406
-0.00875132
-0.0095049
-0.010031
-0.0103747
-0.0105845
-0.0107024
-0.0107603
-0.0107814
-0.0107811
-0.0107693
-0.0107513
-0.0107295
-0.0107028
-0.0106812
-7.26248e-06
2.12536e-06
-2.75381e-06
-3.74835e-05
-9.49567e-05
-0.000168716
-0.000253028
-0.000344738
-0.0004442
-0.000554765
-0.000681337
-0.000829159
-0.00100344
-0.00120958
-0.0014537
-0.0017426
-0.00208311
-0.00248094
-0.00293889
-0.00345418
-0.00401483
-0.00459735
-0.00516709
-0.00568093
-0.00609107
-0.00634979
-0.00641432
-0.00625166
-0.005844
-0.00519389
-0.00432804
-0.00329275
-0.00215427
-0.00100334
5.16915e-05
0.000895086
0.00141697
0.00152934
0.00118274
0.000379844
-0.000819092
-0.00230218
-0.00392403
-0.00553217
-0.00699403
-0.00821819
-0.00916547
-0.00984258
-0.0102852
-0.0105472
-0.0106851
-0.0107461
-0.0107644
-0.0107615
-0.0107497
-0.0107349
-0.0107195
-0.0107029
-0.0106781
-0.010656
1.73035e-05
2.60928e-05
1.82479e-05
-2.2517e-05
-8.50129e-05
-0.000160055
-0.000240711
-0.000324157
-0.000412083
-0.000509502
-0.000622919
-0.000759251
-0.000925948
-0.00113204
-0.00138908
-0.00171105
-0.00211281
-0.00260641
-0.00319605
-0.00387396
-0.00461854
-0.00539488
-0.00615738
-0.006854
-0.00743123
-0.00783909
-0.00803564
-0.00798966
-0.00768337
-0.00711754
-0.00631409
-0.00531832
-0.00419334
-0.0030226
-0.00190843
-0.000964255
-0.000302472
-1.92716e-05
-0.000177608
-0.000791727
-0.00181806
-0.00315716
-0.00466877
-0.00619748
-0.00760243
-0.00878195
-0.00968544
-0.0103085
-0.0106862
-0.0108754
-0.0109371
-0.0109256
-0.0108817
-0.0108307
-0.0107854
-0.0107498
-0.0107235
-0.0107023
-0.010674
-0.0106493
6.85163e-05
7.36858e-05
5.85942e-05
8.21235e-06
-6.20329e-05
-0.000139998
-0.000217817
-0.000293619
-0.000371403
-0.000459085
-0.000566601
-0.000705383
-0.000889396
-0.00113667
-0.00146946
-0.00191148
-0.00248237
-0.00319125
-0.00403209
-0.00498233
-0.00600476
-0.00705132
-0.00806756
-0.00899683
-0.00978422
-0.0103807
-0.0107469
-0.0108542
-0.0106838
-0.0102338
-0.00952898
-0.00860308
-0.00750906
-0.00632067
-0.00512942
-0.00404019
-0.00316255
-0.00259853
-0.00242679
-0.00268612
-0.0033624
-0.00438436
-0.00563214
-0.00695905
-0.00822103
-0.00930457
-0.0101433
-0.0107198
-0.0110576
-0.0112048
-0.0112191
-0.0111557
-0.0110596
-0.010961
-0.0108765
-0.010812
-0.0107665
-0.0107345
-0.0107006
-0.0106741
0.00015163
0.000149579
0.000122817
5.97676e-05
-2.01573e-05
-0.000102441
-0.000179316
-0.0002513
-0.000326142
-0.000416797
-0.000540058
-0.000716973
-0.000974068
-0.00134295
-0.00185619
-0.00253997
-0.00340651
-0.00444952
-0.00564387
-0.00694868
-0.00831202
-0.00967593
-0.0109809
-0.0121695
-0.0131891
-0.0139945
-0.0145503
-0.0148316
-0.0148218
-0.014517
-0.0139438
-0.0131219
-0.0120923
-0.0109146
-0.00966384
-0.00842838
-0.00730609
-0.00639616
-0.00578749
-0.00554369
-0.00568813
-0.00619327
-0.00697986
-0.00792943
-0.0089085
-0.00979731
-0.0105128
-0.0110178
-0.0113169
-0.0114424
-0.0114401
-0.0113579
-0.0112378
-0.0111114
-0.0109987
-0.0109092
-0.0108446
-0.0108003
-0.0107614
-0.0107343
0.000272576
0.000259847
0.000217547
0.000139612
4.8651e-05
-4.01104e-05
-0.00012091
-0.000198646
-0.000287466
-0.000409148
-0.000592692
-0.000874568
-0.00129703
-0.00190221
-0.0027229
-0.0037738
-0.00504709
-0.0065133
-0.00812587
-0.00982706
-0.0115537
-0.0132419
-0.0148313
-0.0162671
-0.0175027
-0.0185003
-0.0192306
-0.0196747
-0.0198256
-0.0196862
-0.0192561
-0.0185623
-0.0176368
-0.0165208
-0.015268
-0.013944
-0.0126247
-0.0113935
-0.0103351
-0.00952568
-0.00902051
-0.00884105
-0.00896587
-0.00933019
-0.00983737
-0.0103805
-0.0108671
-0.0112371
-0.011468
-0.0115677
-0.0115628
-0.0114858
-0.0113699
-0.0112418
-0.0111213
-0.0110206
-0.0109447
-0.0108923
-0.0108512
-0.0108255
0.000436886
0.000410465
0.000349803
0.00025558
0.00015198
5.21922e-05
-4.27391e-05
-0.000145188
-0.000279764
-0.000482373
-0.000799411
-0.0012845
-0.00199045
-0.00295767
-0.00420384
-0.0057193
-0.00746896
-0.00939844
-0.0114416
-0.0135275
-0.0155865
-0.0175542
-0.0193745
-0.0210006
-0.022396
-0.0235331
-0.0243923
-0.0249626
-0.0252443
-0.0252423
-0.0249576
-0.0244075
-0.0236165
-0.0226127
-0.0214306
-0.0201116
-0.0187048
-0.0172671
-0.0158622
-0.0145576
-0.013419
-0.0125015
-0.0118392
-0.0114365
-0.0112636
-0.0112618
-0.0113568
-0.0114774
-0.0115713
-0.0116119
-0.011595
-0.0115308
-0.0114359
-0.0113271
-0.0112197
-0.0111252
-0.0110508
-0.0109983
-0.01096
-0.0109378
0.000647902
0.000605138
0.00052406
0.000413715
0.00029383
0.000173644
4.58508e-05
-0.000113781
-0.000345436
-0.000703758
-0.00125328
-0.00205823
-0.00316817
-0.00460525
-0.00635856
-0.00838679
-0.010626
-0.0129995
-0.0154264
-0.0178293
-0.0201396
-0.0222995
-0.0242636
-0.0259978
-0.0274785
-0.0286899
-0.0296226
-0.0302737
-0.030647
-0.0307492
-0.0305865
-0.0301721
-0.0295228
-0.0286575
-0.0275972
-0.0263648
-0.0249857
-0.0234893
-0.0219096
-0.0202881
-0.0186743
-0.0171255
-0.0157036
-0.0144677
-0.0134637
-0.0127136
-0.0122064
-0.0118998
-0.0117319
-0.0116397
-0.0115753
-0.0115119
-0.0114406
-0.0113625
-0.0112833
-0.0112106
-0.011151
-0.011108
-0.0110776
-0.0110609
0.000902936
0.000843574
0.000741202
0.000612803
0.000469786
0.000312744
0.000121676
-0.000144263
-0.000545
-0.0011542
-0.00204745
-0.00328498
-0.00489559
-0.00686883
-0.00915759
-0.0116876
-0.0143699
-0.0171121
-0.0198278
-0.0224432
-0.0248993
-0.0271525
-0.0291723
-0.0309394
-0.0324424
-0.033676
-0.0346389
-0.035334
-0.0357667
-0.0359443
-0.0358765
-0.0355743
-0.0350505
-0.0343185
-0.0333916
-0.032282
-0.0310001
-0.0295553
-0.0279568
-0.0262164
-0.0243532
-0.0223993
-0.0204055
-0.0184446
-0.0166084
-0.0149959
-0.0136907
-0.0127346
-0.0121109
-0.0117509
-0.0115629
-0.0114653
-0.0114056
-0.0113586
-0.0113152
-0.0112749
-0.0112407
-0.0112156
-0.0111975
-0.0111875
0.00119149
0.0011169
0.000992622
0.000841977
0.0006631
0.000443187
0.000144887
-0.000293005
-0.000950423
-0.00191323
-0.00325351
-0.00500936
-0.00717362
-0.00969512
-0.0124897
-0.0154552
-0.0184865
-0.0214872
-0.0243774
-0.0270966
-0.029603
-0.0318701
-0.0338834
-0.0356361
-0.0371264
-0.0383558
-0.0393279
-0.0400478
-0.0405213
-0.0407557
-0.0407606
-0.0405457
-0.0401215
-0.0394985
-0.0386864
-0.0376926
-0.0365213
-0.0351719
-0.0336397
-0.0319165
-0.0299948
-0.0278739
-0.0255703
-0.0231295
-0.0206372
-0.0182222
-0.0160425
-0.0142491
-0.0129354
-0.0120991
-0.0116465
-0.011441
-0.0113621
-0.011336
-0.0113282
-0.011325
-0.0113228
-0.0113213
-0.011318
-0.011315
0.00149244
0.00140463
0.0012571
0.00107616
0.000841327
0.00052206
6.00028e-05
-0.000626911
-0.00163276
-0.00304193
-0.00490482
-0.00722148
-0.00993996
-0.0129677
-0.0161897
-0.0194868
-0.0227511
-0.0258957
-0.0288573
-0.0315956
-0.0340878
-0.0363239
-0.0383019
-0.0400236
-0.0414929
-0.0427143
-0.0436926
-0.0444331
-0.0449409
-0.0452223
-0.045285
-0.0451372
-0.0447879
-0.0442458
-0.0435191
-0.0426136
-0.0415319
-0.0402711
-0.0388224
-0.03717
-0.0352927
-0.0331673
-0.0307771
-0.0281256
-0.0252543
-0.0222631
-0.0193199
-0.0166454
-0.0144598
-0.0129015
-0.0119656
-0.0115128
-0.0113499
-0.0113205
-0.0113405
-0.0113738
-0.0114056
-0.0114302
-0.0114424
-0.0114463
0.00177184
0.00167293
0.00149884
0.00127443
0.000955967
0.000491906
-0.000198213
-0.00121282
-0.00264818
-0.00456981
-0.00699
-0.00986096
-0.013085
-0.016535
-0.0200772
-0.0235901
-0.0269774
-0.0301716
-0.0331322
-0.0358396
-0.0382879
-0.0404795
-0.0424199
-0.0441154
-0.0455718
-0.0467938
-0.0477855
-0.0485505
-0.0490928
-0.0494168
-0.0495282
-0.0494335
-0.04914
-0.0486553
-0.0479865
-0.0471391
-0.0461161
-0.0449159
-0.043531
-0.0419464
-0.0401388
-0.0380773
-0.0357274
-0.0330598
-0.0300673
-0.0267897
-0.0233429
-0.0199369
-0.0168588
-0.0143967
-0.0127211
-0.0117996
-0.0114248
-0.0113418
-0.0113724
-0.0114364
-0.0115004
-0.0115508
-0.0115784
-0.0115889
0.00198348
0.00187462
0.0016679
0.00138176
0.000946089
0.000287108
-0.000695003
-0.00210542
-0.00402696
-0.00648977
-0.00945714
-0.0128316
-0.0164762
-0.020242
-0.0239916
-0.027616
-0.0310404
-0.0342221
-0.037143
-0.039801
-0.0422023
-0.0443562
-0.0462717
-0.047956
-0.0494142
-0.0506496
-0.0516644
-0.0524604
-0.0530395
-0.0534047
-0.0535594
-0.0535086
-0.0532579
-0.0528136
-0.052182
-0.0513685
-0.0503768
-0.0492075
-0.0478563
-0.0463128
-0.0445583
-0.0425645
-0.040294
-0.0377036
-0.0347538
-0.0314293
-0.0277705
-0.0239134
-0.020117
-0.0167402
-0.0141341
-0.0124781
-0.0116782
-0.0114367
-0.0114442
-0.0115274
-0.0116198
-0.0116939
-0.0117362
-0.0117535
0.00207183
0.00195239
0.00170418
0.00133446
0.000745708
-0.000156518
-0.0014846
-0.00333739
-0.00576863
-0.00876114
-0.0122258
-0.0160208
-0.0199825
-0.0239553
-0.027813
-0.0314694
-0.0348758
-0.0380136
-0.0408831
-0.0434944
-0.0458603
-0.0479929
-0.0499011
-0.051591
-0.0530655
-0.054326
-0.0553726
-0.056205
-0.0568236
-0.0572293
-0.0574241
-0.0574113
-0.057195
-0.0567803
-0.0561724
-0.0553766
-0.054397
-0.0532359
-0.0518924
-0.0503611
-0.0486299
-0.0466784
-0.0444753
-0.0419784
-0.039137
-0.035903
-0.0322545
-0.0282367
-0.0240141
-0.019906
-0.0163508
-0.0137507
-0.0122549
-0.0116646
-0.0115769
-0.0116591
-0.011774
-0.0118705
-0.0119275
-0.0119527
0.00197761
0.00184496
0.00154451
0.00106854
0.000293443
-0.000891379
-0.00260104
-0.0049143
-0.00784345
-0.0113186
-0.0152019
-0.0193184
-0.0234924
-0.0275764
-0.0314664
-0.0351032
-0.0384638
-0.0415493
-0.0443726
-0.0469504
-0.0492981
-0.0514271
-0.0533445
-0.0550541
-0.0565564
-0.0578505
-0.0589347
-0.0598071
-0.0604663
-0.0609118
-0.0611443
-0.0611655
-0.0609783
-0.0605865
-0.0599947
-0.0592073
-0.0582286
-0.0570622
-0.0557093
-0.0541688
-0.0524347
-0.050495
-0.0483282
-0.0459014
-0.0431679
-0.0400697
-0.0365502
-0.032583
-0.0282245
-0.0236818
-0.0193531
-0.0157624
-0.0133352
-0.0121312
-0.0118
-0.0118439
-0.0119708
-0.0120902
-0.0121636
-0.0121991
0.00164523
0.0014952
0.00113152
0.000529197
-0.000457865
-0.00194964
-0.00405295
-0.00681474
-0.0101988
-0.0140837
-0.0182919
-0.0226291
-0.0269223
-0.031043
-0.0349144
-0.0385044
-0.0418111
-0.0448493
-0.0476393
-0.0502
-0.0525458
-0.0546861
-0.0566254
-0.0583646
-0.0599022
-0.0612352
-0.0623602
-0.063274
-0.0639739
-0.0644582
-0.0647261
-0.0647785
-0.0646169
-0.0642441
-0.0636638
-0.0628801
-0.0618971
-0.0607186
-0.0593478
-0.057786
-0.0560322
-0.0540809
-0.0519205
-0.0495293
-0.0468724
-0.0438977
-0.0405392
-0.0367311
-0.0324457
-0.0277626
-0.0229535
-0.0185197
-0.0150675
-0.0129892
-0.0121763
-0.0120961
-0.0122183
-0.0123604
-0.0124549
-0.0125044
0.0010307
0.000858473
0.000422356
-0.00032069
-0.00153382
-0.00333846
-0.00582306
-0.0089948
-0.0127676
-0.0169752
-0.0214122
-0.0258791
-0.0302167
-0.034322
-0.0381459
-0.0416791
-0.0449353
-0.0479376
-0.0507086
-0.0532666
-0.0556236
-0.0577859
-0.0597553
-0.0615302
-0.063107
-0.0644814
-0.0656486
-0.066604
-0.067344
-0.0678656
-0.0681673
-0.0682484
-0.0681099
-0.0677536
-0.0671824
-0.0663999
-0.0654102
-0.0642175
-0.0628257
-0.061238
-0.0594562
-0.05748
-0.055305
-0.0529201
-0.050303
-0.0474154
-0.0441985
-0.0405755
-0.0364713
-0.0318637
-0.026875
-0.0218756
-0.0174938
-0.0143885
-0.0128234
-0.0124387
-0.0125317
-0.0126883
-0.0128119
-0.0128798
0.000108327
-9.05217e-05
-0.000604805
-0.00149499
-0.00293484
-0.00503961
-0.00787159
-0.011395
-0.0154774
-0.0199174
-0.0244948
-0.0290161
-0.0333435
-0.0374011
-0.0411642
-0.0446413
-0.0478557
-0.050834
-0.0535985
-0.0561648
-0.0585418
-0.0607328
-0.0627368
-0.0645503
-0.0661682
-0.0675848
-0.0687941
-0.0697908
-0.0705699
-0.0711277
-0.0714613
-0.0715695
-0.0714521
-0.0711102
-0.0705464
-0.0697638
-0.0687666
-0.0675592
-0.0661462
-0.064532
-0.0627204
-0.0607141
-0.0585137
-0.0561157
-0.0535094
-0.0506707
-0.0475558
-0.0440957
-0.0402
-0.0357858
-0.0308499
-0.0255907
-0.0205219
-0.0164092
-0.0138825
-0.0129416
-0.0129279
-0.0130877
-0.0132444
-0.0133378
-0.0011252
-0.00135383
-0.00194743
-0.00298243
-0.00463657
-0.00701259
-0.0101422
-0.0139475
-0.0182568
-0.0228447
-0.0274874
-0.0320058
-0.0362865
-0.0402791
-0.0439785
-0.0474052
-0.0505875
-0.0535523
-0.0563194
-0.0589012
-0.0613033
-0.0635261
-0.0655666
-0.0674197
-0.0690789
-0.0705375
-0.0717887
-0.0728259
-0.0736434
-0.0742362
-0.0746006
-0.0747343
-0.0746364
-0.0743075
-0.0737496
-0.0729659
-0.0719606
-0.0707386
-0.0693052
-0.0676657
-0.0658253
-0.0637886
-0.0615594
-0.0591393
-0.0565255
-0.0537063
-0.050654
-0.0473159
-0.0436083
-0.0394247
-0.0346802
-0.0294166
-0.023962
-0.0190216
-0.015462
-0.0137271
-0.0134172
-0.0135843
-0.0137651
-0.0138939
-0.00264996
-0.00290972
-0.00357901
-0.00474839
-0.00659352
-0.00920027
-0.0125685
-0.0165826
-0.0210406
-0.0257031
-0.030352
-0.0348271
-0.0390394
-0.0429599
-0.0465983
-0.0499819
-0.0531406
-0.0560995
-0.058875
-0.0614762
-0.0639055
-0.0661611
-0.0682382
-0.0701305
-0.0718307
-0.0733308
-0.0746232
-0.0757003
-0.0765554
-0.0771823
-0.0775765
-0.0777346
-0.077655
-0.0773378
-0.0767847
-0.0759988
-0.0749848
-0.0737482
-0.072295
-0.0706316
-0.0687643
-0.0666994
-0.0644424
-0.0619979
-0.0593682
-0.0565505
-0.0535308
-0.0502745
-0.0467151
-0.0427488
-0.0382522
-0.0331547
-0.0275932
-0.0220991
-0.0175923
-0.0149033
-0.0140575
-0.0142042
-0.0143928
-0.0145634
-0.00442511
-0.00471533
-0.00545241
-0.00673937
-0.00874471
-0.0115353
-0.0150807
-0.019234
-0.0237716
-0.0284498
-0.0330614
-0.0374673
-0.0416002
-0.0454482
-0.0490305
-0.0523779
-0.0555195
-0.0584772
-0.0612641
-0.0638858
-0.0663425
-0.0686303
-0.0707433
-0.0726739
-0.074414
-0.0759548
-0.0772877
-0.0784041
-0.079296
-0.0799564
-0.0803794
-0.080561
-0.0804987
-0.0801921
-0.0796427
-0.0788539
-0.0778306
-0.0765791
-0.0751064
-0.0734202
-0.0715281
-0.0694374
-0.0671552
-0.0646879
-0.0620409
-0.0592166
-0.0562111
-0.0530054
-0.0495534
-0.0457682
-0.0415207
-0.0366774
-0.0312196
-0.0254603
-0.0202114
-0.0165381
-0.0149702
-0.0149434
-0.0151564
-0.0153617
-0.00639347
-0.00671158
-0.00750534
-0.00888903
-0.0110201
-0.0139462
-0.0176103
-0.021841
-0.0264018
-0.0310511
-0.0355963
-0.0399182
-0.0439682
-0.0477465
-0.0512784
-0.0545952
-0.0577239
-0.0606828
-0.0634819
-0.0661238
-0.0686066
-0.0709252
-0.0730723
-0.0750398
-0.0768186
-0.0783991
-0.0797716
-0.0809263
-0.0818543
-0.0825473
-0.0829985
-0.0832026
-0.0831568
-0.0828599
-0.0823134
-0.0815209
-0.0804879
-0.0792213
-0.0777294
-0.0760211
-0.0741055
-0.0719913
-0.069687
-0.0672001
-0.0645377
-0.0617056
-0.0587058
-0.0555312
-0.052154
-0.0485098
-0.0444839
-0.0399204
-0.0346962
-0.0289186
-0.0231981
-0.0186566
-0.0162509
-0.0158081
-0.0160882
-0.0163099
-0.00848747
-0.00882924
-0.00966661
-0.0111244
-0.0133466
-0.0163627
-0.0200935
-0.0243506
-0.0288914
-0.0334808
-0.037942
-0.0421737
-0.0461418
-0.0498551
-0.0533418
-0.0566321
-0.0597502
-0.0627111
-0.0655215
-0.068182
-0.070689
-0.0730361
-0.0752155
-0.0772181
-0.0790339
-0.0806526
-0.0820633
-0.0832553
-0.0842183
-0.0849429
-0.0854211
-0.085647
-0.0856166
-0.0853288
-0.0847847
-0.0839881
-0.082945
-0.0816633
-0.0801525
-0.0784228
-0.0764849
-0.0743491
-0.0720252
-0.0695221
-0.066848
-0.0640104
-0.0610148
-0.0578617
-0.0545378
-0.0510009
-0.0471598
-0.0428631
-0.0379334
-0.0323199
-0.0264025
-0.0211941
-0.0179074
-0.0168789
-0.0172151
-0.0174297
-0.0106351
-0.0109952
-0.0118621
-0.0133718
-0.0156531
-0.0187191
-0.0224737
-0.0267177
-0.0312077
-0.0357181
-0.0400868
-0.0442278
-0.048118
-0.0517715
-0.0552174
-0.0584841
-0.0615925
-0.0645547
-0.0673748
-0.0700516
-0.0725802
-0.0749533
-0.0771625
-0.0791978
-0.0810487
-0.0827036
-0.0841508
-0.0853784
-0.0863747
-0.0871294
-0.0876335
-0.0878799
-0.0878643
-0.0875849
-0.0870427
-0.0862417
-0.0851886
-0.0838922
-0.0823629
-0.0806127
-0.0786536
-0.0764979
-0.0741567
-0.0716406
-0.0689587
-0.0661195
-0.0631305
-0.0599966
-0.0567147
-0.0532611
-0.0495698
-0.0455096
-0.0408888
-0.0355557
-0.0296674
-0.0240158
-0.0199138
-0.0182464
-0.0185079
-0.0187302
-0.0127656
-0.0131377
-0.0140194
-0.0155611
-0.0178741
-0.0209572
-0.0247022
-0.0289047
-0.0333244
-0.0377457
-0.0420204
-0.0460743
-0.0498921
-0.0534912
-0.0569
-0.0601447
-0.0632434
-0.0662055
-0.069033
-0.0717234
-0.0742706
-0.0766669
-0.0789029
-0.0809682
-0.0828514
-0.0845401
-0.0860213
-0.0872821
-0.0883098
-0.0890927
-0.0896209
-0.0898866
-0.0898846
-0.0896129
-0.0890723
-0.0882671
-0.0872043
-0.0858937
-0.084347
-0.0825773
-0.0805985
-0.0784245
-0.0760683
-0.0735419
-0.0708558
-0.0680193
-0.065041
-0.0619283
-0.0586846
-0.0553
-0.051731
-0.0478738
-0.0435506
-0.0385549
-0.032856
-0.0269922
-0.0222528
-0.0199392
-0.0199118
-0.0202014
-0.0148137
-0.0151898
-0.0160725
-0.0176298
-0.0199526
-0.0230271
-0.0267383
-0.030881
-0.0352198
-0.0395496
-0.0437333
-0.0477063
-0.0514582
-0.055008
-0.0583828
-0.0616066
-0.064695
-0.067655
-0.0704874
-0.0731882
-0.0757508
-0.0781669
-0.0804264
-0.0825185
-0.0844307
-0.0861499
-0.0876621
-0.0889532
-0.0900094
-0.0908182
-0.0913684
-0.0916517
-0.0916621
-0.0913973
-0.090858
-0.0900487
-0.088977
-0.0876532
-0.0860902
-0.0843026
-0.0823058
-0.0801153
-0.0777462
-0.0752121
-0.072525
-0.0696953
-0.0667323
-0.0636447
-0.0604401
-0.0571177
-0.0536525
-0.0499701
-0.0459194
-0.0412736
-0.0358701
-0.0300173
-0.0248709
-0.0219288
-0.0214484
-0.0218436
-0.0167247
-0.0170922
-0.0179651
-0.0195261
-0.0218412
-0.0248879
-0.0285493
-0.032622
-0.0368768
-0.0411177
-0.0452171
-0.0491168
-0.0528097
-0.056315
-0.0596586
-0.0628621
-0.0659391
-0.068895
-0.0717293
-0.0744373
-0.0770119
-0.079444
-0.0817234
-0.0838383
-0.0857757
-0.0875216
-0.0890609
-0.0903787
-0.0914602
-0.0922918
-0.0928616
-0.0931604
-0.0931818
-0.092923
-0.0923848
-0.0915716
-0.0904916
-0.0891559
-0.0875783
-0.0857746
-0.0837617
-0.081557
-0.0791772
-0.0766378
-0.0739525
-0.0711329
-0.0681893
-0.0651316
-0.0619691
-0.0587073
-0.0553356
-0.0518061
-0.0479984
-0.0436904
-0.0386478
-0.0329906
-0.0276564
-0.0241538
-0.0231841
-0.0236912
-0.0184507
-0.0187996
-0.0196549
-0.0212086
-0.0235014
-0.0265075
-0.0301101
-0.0341089
-0.0382814
-0.0424399
-0.0464636
-0.0502987
-0.0539398
-0.0574054
-0.06072
-0.0639035
-0.0669679
-0.0699175
-0.0727509
-0.0754627
-0.0780455
-0.0804898
-0.0827848
-0.0849183
-0.0868765
-0.0886446
-0.0902068
-0.0915471
-0.09265
-0.093501
-0.0940874
-0.0943993
-0.09443
-0.0941761
-0.0936386
-0.0928219
-0.0917345
-0.0903881
-0.0887976
-0.0869798
-0.0849531
-0.0827364
-0.0803482
-0.0778058
-0.0751247
-0.0723182
-0.0693976
-0.0663736
-0.063257
-0.060057
-0.0567741
-0.0533818
-0.0497891
-0.0457975
-0.0411485
-0.0358142
-0.0304757
-0.0265482
-0.0251715
-0.0257341
-0.019955
-0.020278
-0.0211097
-0.0226443
-0.0249046
-0.0278627
-0.0314022
-0.0353276
-0.0394232
-0.0435081
-0.0474659
-0.0512455
-0.0548417
-0.0582722
-0.06156
-0.0647239
-0.0677746
-0.0707157
-0.0735451
-0.0762574
-0.0788445
-0.0812968
-0.083603
-0.0857503
-0.0877245
-0.08951
-0.0910903
-0.0924486
-0.0935687
-0.0944352
-0.0950349
-0.0953574
-0.0953953
-0.0951452
-0.0946077
-0.0937876
-0.0926936
-0.091338
-0.0897363
-0.0879066
-0.0858683
-0.0836418
-0.0812474
-0.0787042
-0.0760294
-0.073238
-0.0703428
-0.0673556
-0.0642881
-0.0611523
-0.0579564
-0.05469
-0.0512895
-0.0475903
-0.0433394
-0.0384015
-0.0332138
-0.0290497
-0.0273776
-0.0279139
-0.0212145
-0.0215052
-0.0223029
-0.0238088
-0.0260325
-0.0289386
-0.0324133
-0.0362684
-0.0402946
-0.0443156
-0.048218
-0.0519514
-0.0555096
-0.0589095
-0.0621728
-0.0653172
-0.0683531
-0.0712835
-0.0741063
-0.0768155
-0.0794031
-0.0818591
-0.0841719
-0.0863282
-0.0883133
-0.090111
-0.0917044
-0.0930759
-0.0942085
-0.0950865
-0.095696
-0.0960261
-0.0960691
-0.0958213
-0.0952832
-0.0944597
-0.0933598
-0.0919961
-0.090385
-0.0885452
-0.0864974
-0.0842633
-0.0818647
-0.0793224
-0.0766554
-0.0738805
-0.0710122
-0.0680635
-0.0650471
-0.0619772
-0.0588673
-0.0557191
-0.0524931
-0.0490611
-0.0451927
-0.0406848
-0.0357723
-0.0315595
-0.0296955
-0.0301307
-0.0222167
-0.0224678
-0.0232216
-0.0246927
-0.026875
-0.0297265
-0.0331372
-0.0369263
-0.0408908
-0.044858
-0.0487155
-0.0524115
-0.0559386
-0.0593122
-0.0625531
-0.0656786
-0.0686987
-0.0716164
-0.0744297
-0.0771326
-0.0797169
-0.0821724
-0.0844871
-0.0866475
-0.0886385
-0.0904434
-0.0920446
-0.0934243
-0.0945649
-0.0954502
-0.0960659
-0.0964006
-0.0964464
-0.0961993
-0.0956598
-0.0948327
-0.0937272
-0.0923565
-0.0907373
-0.0888891
-0.0868336
-0.0845936
-0.0821923
-0.0796521
-0.0769937
-0.0742358
-0.0713946
-0.0684844
-0.0655195
-0.0625157
-0.0594904
-0.0564542
-0.0533882
-0.0501983
-0.0466852
-0.0426131
-0.0380623
-0.0339526
-0.0319837
-0.032273
-0.0229589
-0.0231634
-0.0238653
-0.0252951
-0.0274308
-0.030225
-0.0335728
-0.0373004
-0.0412107
-0.0451333
-0.0489551
-0.0526221
-0.0561247
-0.0594763
-0.0626971
-0.0658042
-0.0688077
-0.0717111
-0.0745124
-0.0772059
-0.0797833
-0.0822342
-0.0845465
-0.0867064
-0.0886983
-0.0905053
-0.0921095
-0.0934926
-0.0946367
-0.0955252
-0.0961435
-0.0964798
-0.096526
-0.0962779
-0.0957359
-0.0949049
-0.093794
-0.0924168
-0.0907904
-0.088935
-0.086873
-0.0846282
-0.0822251
-0.0796874
-0.0770376
-0.074296
-0.0714807
-0.0686076
-0.0656927
-0.0627531
-0.0598094
-0.0568792
-0.0539601
-0.0509877
-0.0477974
-0.0441471
-0.0400068
-0.0361082
-0.0341086
-0.0342407
-0.0234485
-0.0235995
-0.0242427
-0.0256232
-0.0277064
-0.0304399
-0.0337243
-0.0373936
-0.0412555
-0.0451412
-0.0489355
-0.0525811
-0.0560651
-0.059399
-0.0626021
-0.0656915
-0.0686779
-0.0715655
-0.0743527
-0.0770341
-0.0796013
-0.0820441
-0.0843501
-0.0865052
-0.0884936
-0.0902982
-0.0919007
-0.0932828
-0.0944262
-0.095314
-0.0959314
-0.0962664
-0.0963106
-0.0960599
-0.0955142
-0.0946785
-0.0935621
-0.0921787
-0.0905456
-0.0886835
-0.0866155
-0.0843664
-0.0819614
-0.0794258
-0.0767834
-0.0740562
-0.0712641
-0.0684249
-0.0655561
-0.0626767
-0.0598097
-0.0569782
-0.0541929
-0.0514144
-0.0485128
-0.0452566
-0.041544
-0.0379269
-0.0359642
-0.0359533
-0.0237011
-0.0237943
-0.0243719
-0.0256929
-0.0277155
-0.0303834
-0.0336018
-0.0372127
-0.0410293
-0.0448833
-0.0486565
-0.0522871
-0.0557582
-0.0590784
-0.0622662
-0.065339
-0.0683083
-0.0711791
-0.0739504
-0.0766174
-0.079172
-0.0816036
-0.0838999
-0.0860466
-0.0880277
-0.089826
-0.091423
-0.0928001
-0.0939391
-0.0948228
-0.0954362
-0.0957673
-0.0958074
-0.0955522
-0.0950016
-0.0941605
-0.093038
-0.0916481
-0.0900082
-0.0881394
-0.0860652
-0.0838111
-0.0814033
-0.078868
-0.0762306
-0.0735145
-0.0707414
-0.0679308
-0.0651021
-0.0622762
-0.0594788
-0.0567369
-0.0540718
-0.0514643
-0.0488172
-0.0459196
-0.0426281
-0.0393349
-0.0374729
-0.0373482
-0.0237387
-0.0237738
-0.0242793
-0.025528
-0.0274789
-0.030073
-0.0332196
-0.0367686
-0.0405389
-0.0443633
-0.0481197
-0.0517403
-0.055203
-0.0585134
-0.0616887
-0.0647463
-0.0676988
-0.0705522
-0.0733067
-0.0759578
-0.0784977
-0.0809159
-0.0832001
-0.0853357
-0.0873067
-0.0890956
-0.090684
-0.0920531
-0.0931846
-0.0940614
-0.0946683
-0.0949931
-0.0950272
-0.0947659
-0.0942091
-0.0933615
-0.0922322
-0.090835
-0.0891877
-0.0873113
-0.0852298
-0.0829691
-0.0805563
-0.0780185
-0.0753822
-0.0726724
-0.0699122
-0.0671231
-0.0643264
-0.061545
-0.058807
-0.0561433
-0.0535837
-0.051125
-0.0486996
-0.0461211
-0.0432294
-0.0402827
-0.038578
-0.038374
-0.0235898
-0.0235703
-0.0239976
-0.0251589
-0.0270234
-0.029532
-0.0325968
-0.0360757
-0.0397948
-0.0435877
-0.0473281
-0.0509416
-0.0543996
-0.0577036
-0.0608689
-0.0639132
-0.0668499
-0.0696863
-0.0724236
-0.0750581
-0.0775824
-0.0799861
-0.0822567
-0.0843796
-0.0863386
-0.0881163
-0.089694
-0.091053
-0.092175
-0.0930429
-0.0936413
-0.0939582
-0.0939845
-0.0937158
-0.0931515
-0.0922963
-0.0911591
-0.0897536
-0.0880975
-0.0862119
-0.0841211
-0.0818513
-0.0794302
-0.0768856
-0.0742452
-0.071535
-0.06878
-0.0660031
-0.063228
-0.0604794
-0.0577884
-0.0551889
-0.0527184
-0.0503866
-0.0481511
-0.0458516
-0.0433316
-0.0407397
-0.0392359
-0.0389852
-0.0232871
-0.0232203
-0.0235641
-0.0246211
-0.0263813
-0.0287883
-0.0317567
-0.0351526
-0.0388101
-0.0425648
-0.0462863
-0.0498927
-0.0533479
-0.0566483
-0.0598067
-0.06284
-0.0657627
-0.0685832
-0.0713041
-0.0739224
-0.0764312
-0.0788203
-0.0810771
-0.0831871
-0.0851337
-0.0868994
-0.0884657
-0.0898137
-0.0909252
-0.091783
-0.0923719
-0.0926796
-0.0926972
-0.0924199
-0.0918471
-0.0909831
-0.0898367
-0.0884214
-0.0867547
-0.0848577
-0.0827547
-0.0804722
-0.0780383
-0.0754813
-0.0728299
-0.0701112
-0.0673516
-0.0645758
-0.0618095
-0.0590799
-0.0564209
-0.0538689
-0.0514694
-0.0492417
-0.0471651
-0.0451052
-0.0429244
-0.0406827
-0.0394097
-0.0391389
-0.0228658
-0.0227618
-0.0230184
-0.0239543
-0.0255893
-0.0278744
-0.0307269
-0.0340215
-0.0376012
-0.0413055
-0.0450004
-0.0485961
-0.0520485
-0.0553472
-0.0585012
-0.0615265
-0.0644379
-0.0672449
-0.0699512
-0.0725551
-0.0750499
-0.0774258
-0.0796702
-0.0817683
-0.0837035
-0.0854581
-0.0870136
-0.088351
-0.0894522
-0.0902999
-0.0908791
-0.0911774
-0.0911857
-0.0908991
-0.0903169
-0.0894431
-0.0882862
-0.0868592
-0.0851796
-0.0832683
-0.0811495
-0.0788498
-0.0763973
-0.0738211
-0.0711504
-0.0684134
-0.0656377
-0.0628497
-0.0600776
-0.0573506
-0.0547059
-0.0521832
-0.0498353
-0.0476871
-0.0457376
-0.0438784
-0.0419986
-0.0400847
-0.0390635
-0.0387946
-0.0223609
-0.0222312
-0.0224001
-0.0232002
-0.0246873
-0.0268263
-0.0295388
-0.032708
-0.0361878
-0.039823
-0.0434777
-0.047055
-0.0505014
-0.0537987
-0.056951
-0.0599718
-0.0628755
-0.0656727
-0.0683681
-0.0709608
-0.0734448
-0.0758106
-0.0780455
-0.0801345
-0.082061
-0.0838069
-0.0853536
-0.0866823
-0.0877746
-0.0886135
-0.0891838
-0.0894732
-0.0894725
-0.0891765
-0.0885844
-0.0876998
-0.0865309
-0.0850904
-0.0833954
-0.0814664
-0.0793274
-0.0770049
-0.0745274
-0.0719239
-0.0692242
-0.0664573
-0.0636524
-0.0608372
-0.0580423
-0.0552995
-0.0526494
-0.050136
-0.0478183
-0.0457229
-0.0438696
-0.0421725
-0.0405487
-0.0389236
-0.0381618
-0.0379121
-0.0218051
-0.0216609
-0.0217461
-0.0224003
-0.0237171
-0.0256828
-0.0282267
-0.0312416
-0.0345928
-0.0381334
-0.0417279
-0.0452733
-0.0487066
-0.0520008
-0.0551531
-0.0581733
-0.0610745
-0.0638672
-0.066557
-0.0691437
-0.0716221
-0.0739828
-0.0762129
-0.0782975
-0.0802196
-0.0819609
-0.0835026
-0.0848259
-0.0859123
-0.0867448
-0.0873082
-0.0875902
-0.0875814
-0.0872765
-0.0866745
-0.0857785
-0.0845964
-0.0831404
-0.0814271
-0.0794766
-0.0773127
-0.0749614
-0.0724511
-0.0698111
-0.0670716
-0.0642621
-0.061413
-0.0585537
-0.0557174
-0.0529382
-0.0502614
-0.047735
-0.0454227
-0.0433532
-0.0415706
-0.0399965
-0.0385779
-0.0371913
-0.0366842
-0.0364492
-0.0212267
-0.0210774
-0.0210889
-0.0215936
-0.0227206
-0.0244845
-0.0268281
-0.0296546
-0.0328424
-0.0362555
-0.0397623
-0.0432557
-0.046664
-0.04995
-0.0531028
-0.0561266
-0.0590314
-0.0618269
-0.0645187
-0.0671072
-0.0695873
-0.07195
-0.0741824
-0.0762693
-0.0781932
-0.0799359
-0.0814781
-0.0828009
-0.0838858
-0.0847156
-0.0852753
-0.0855523
-0.0855373
-0.0852248
-0.0846133
-0.0837056
-0.0825093
-0.0810359
-0.0793014
-0.0773256
-0.0751315
-0.0727448
-0.0701937
-0.0675071
-0.0647157
-0.0618495
-0.05894
-0.0560183
-0.0531202
-0.0502828
-0.0475565
-0.0449924
-0.0426587
-0.0405887
-0.038855
-0.0373638
-0.0360993
-0.034894
-0.0346194
-0.0343726
-0.020649
-0.0205015
-0.0204545
-0.0208141
-0.0217374
-0.0232727
-0.0253822
-0.0279824
-0.0309661
-0.0342115
-0.0375949
-0.0410085
-0.0443733
-0.047642
-0.0507936
-0.0538247
-0.0567405
-0.0595481
-0.0622521
-0.0648526
-0.0673447
-0.0697193
-0.0719634
-0.0740615
-0.0759958
-0.0777476
-0.0792976
-0.0806264
-0.0817156
-0.0825479
-0.0831082
-0.0833838
-0.0833654
-0.0830471
-0.0824272
-0.0815082
-0.0802969
-0.0788045
-0.0770462
-0.075041
-0.0728113
-0.0703823
-0.0677816
-0.0650379
-0.0621819
-0.0592438
-0.0562567
-0.0532529
-0.0502716
-0.0473531
-0.0445532
-0.0419261
-0.039547
-0.0374538
-0.0357335
-0.0342851
-0.0331319
-0.0320491
-0.0319664
-0.0316625
-0.0200898
-0.019949
-0.0198612
-0.0200884
-0.0208035
-0.0220879
-0.0239295
-0.0262622
-0.028996
-0.0320265
-0.0352424
-0.0385398
-0.0418351
-0.0450716
-0.0482169
-0.0512581
-0.0541931
-0.0570241
-0.0597532
-0.0623793
-0.0648968
-0.0672962
-0.0695643
-0.071685
-0.0736405
-0.0754114
-0.0769783
-0.0783214
-0.0794223
-0.0802635
-0.0808298
-0.0811087
-0.0810904
-0.0807691
-0.0801427
-0.0792132
-0.0779868
-0.0764741
-0.0746894
-0.072651
-0.0703806
-0.0679022
-0.065243
-0.0624311