/*--------------------------------*- C++ -*----------------------------------*\
| =========                 |                                                 |
| \\      /  F ield         | OpenFOAM: The Open Source CFD Toolbox           |
|  \\    /   O peration     | Version:  2406                                  |
|   \\  /    A nd           | Website:  www.openfoam.com                      |
|    \\/     M anipulation  |                                                 |
\*---------------------------------------------------------------------------*/
FoamFile
{
    version     2.0;
    format      ascii;
    arch        "LSB;label=32;scalar=64";
    class       volVectorField;
    location    "21.2";
    object      dU;
}
// * * * * * * * * * * * * * * * * * * * * * * * * * * * * * * * * * * * * * //

dimensions      [0 1 -1 0 0 0 0];

internalField   nonuniform List<vector> 
900
(
(5.82141e-06 1.6572e-07 0)
(-7.56809e-06 -3.35205e-06 0)
(-3.03952e-05 -2.6339e-06 0)
(-4.01703e-05 -1.79028e-08 0)
(-4.87125e-05 4.18611e-06 0)
(-5.58667e-05 9.28506e-06 0)
(-6.93551e-05 1.5163e-05 0)
(-9.38822e-05 2.17586e-05 0)
(-0.000132517 3.81463e-05 0)
(-0.000162184 6.98875e-05 0)
(-0.00015239 8.83413e-05 0)
(-0.000104349 6.79704e-05 0)
(-4.33574e-05 2.42381e-05 0)
(8.69012e-06 -2.02198e-05 0)
(6.49556e-05 -5.65449e-05 0)
(0.00015059 -8.41511e-05 0)
(0.000278245 -0.000106451 0)
(0.00042916 -0.000126127 0)
(0.000581382 -0.000145324 0)
(0.000680794 -0.000163065 0)
(0.000690381 -0.000176797 0)
(0.000546997 -0.000183459 0)
(0.000264424 -0.000178795 0)
(-0.000109816 -0.000165903 0)
(-0.000389721 -0.000145814 0)
(-0.000442003 -0.000118558 0)
(-0.000276793 -8.39428e-05 0)
(-0.000106645 -3.88602e-05 0)
(-2.8657e-05 -6.83781e-06 0)
(1.96576e-05 3.54642e-06 0)
(3.41406e-06 9.09702e-06 0)
(-8.42704e-06 -7.05846e-07 0)
(-2.49177e-05 -2.3355e-06 0)
(-3.01851e-05 -1.65925e-06 0)
(-3.57782e-05 3.66268e-06 0)
(-4.19372e-05 1.04346e-05 0)
(-5.61297e-05 2.055e-05 0)
(-7.43761e-05 3.19222e-05 0)
(-9.42329e-05 3.3798e-05 0)
(-0.00012972 1.25459e-05 0)
(-0.000177613 -3.40565e-05 0)
(-0.000189871 -0.000108736 0)
(-0.000146264 -0.00020417 0)
(-8.19297e-05 -0.000300758 0)
(-6.81412e-06 -0.000379652 0)
(9.40402e-05 -0.000436454 0)
(0.000230525 -0.000479824 0)
(0.000385182 -0.000516134 0)
(0.000539686 -0.000551755 0)
(0.000644667 -0.00058062 0)
(0.000665204 -0.00059444 0)
(0.000539854 -0.000578841 0)
(0.000276435 -0.000519592 0)
(-8.30064e-05 -0.000430533 0)
(-0.000347793 -0.000321244 0)
(-0.000383151 -0.000241627 0)
(-0.00019652 -0.000179958 0)
(-2.72788e-05 -0.000129044 0)
(1.60765e-05 -8.67328e-05 0)
(3.07778e-05 -7.63914e-05 0)
(2.75652e-07 3.24477e-05 0)
(-1.39855e-05 1.71438e-05 0)
(-3.04027e-05 1.56485e-05 0)
(-3.33463e-05 1.49119e-05 0)
(-3.56896e-05 2.02063e-05 0)
(-4.07914e-05 2.17329e-05 0)
(-5.74097e-05 1.34338e-05 0)
(-0.000103043 -2.45508e-05 0)
(-0.000185324 -0.000102861 0)
(-0.000263275 -0.000223075 0)
(-0.000299856 -0.000355484 0)
(-0.000294203 -0.000473032 0)
(-0.000249926 -0.000579754 0)
(-0.000177788 -0.00067709 0)
(-7.97847e-05 -0.000756402 0)
(4.25086e-05 -0.000817051 0)
(0.000190897 -0.000872587 0)
(0.000349172 -0.000928001 0)
(0.000507775 -0.000992205 0)
(0.000627425 -0.00104886 0)
(0.000679385 -0.0010849 0)
(0.000606472 -0.00106181 0)
(0.000394665 -0.000951285 0)
(6.79664e-05 -0.000752176 0)
(-0.000219746 -0.000482742 0)
(-0.000313691 -0.000270904 0)
(-0.000167228 -0.000134383 0)
(-1.27197e-05 -0.00012014 0)
(2.64005e-05 -0.000126772 0)
(3.11191e-05 -0.00013786 0)
(-5.52226e-06 4.97268e-05 0)
(-2.1614e-05 2.9067e-05 0)
(-3.58375e-05 3.23148e-05 0)
(-3.84668e-05 3.17765e-05 0)
(-4.45416e-05 3.11662e-05 0)
(-7.1918e-05 5.21053e-06 0)
(-0.000135979 -6.06937e-05 0)
(-0.000224782 -0.000185696 0)
(-0.000314555 -0.000345991 0)
(-0.000391478 -0.000502187 0)
(-0.000430513 -0.000635404 0)
(-0.000414606 -0.000741654 0)
(-0.000349827 -0.000822057 0)
(-0.000257863 -0.000882271 0)
(-0.000146382 -0.000930727 0)
(-2.25103e-05 -0.000974715 0)
(0.00011795 -0.0010311 0)
(0.000262196 -0.00110096 0)
(0.00041303 -0.00119695 0)
(0.000543025 -0.00129599 0)
(0.000639332 -0.00138993 0)
(0.000655644 -0.00141867 0)
(0.000562525 -0.00134637 0)
(0.000355743 -0.00112412 0)
(0.000101616 -0.000763375 0)
(-6.0671e-05 -0.000381645 0)
(-5.35832e-05 -0.000122313 0)
(-1.79107e-05 -2.23e-05 0)
(1.68902e-07 -0.000103569 0)
(2.09622e-05 -0.000124378 0)
(-1.53225e-05 7.95514e-05 0)
(-3.61486e-05 5.88557e-05 0)
(-5.21153e-05 6.87406e-05 0)
(-6.60194e-05 6.05161e-05 0)
(-9.8005e-05 3.09199e-05 0)
(-0.000170702 -5.50656e-05 0)
(-0.000277926 -0.000199215 0)
(-0.000399322 -0.000384691 0)
(-0.000498137 -0.000569711 0)
(-0.000545211 -0.00071984 0)
(-0.000532072 -0.000815827 0)
(-0.000474281 -0.000864915 0)
(-0.000384883 -0.000886223 0)
(-0.000281425 -0.000894363 0)
(-0.000167941 -0.000902521 0)
(-5.42912e-05 -0.000916206 0)
(6.72004e-05 -0.0009518 0)
(0.000184463 -0.00100674 0)
(0.000311823 -0.001099 0)
(0.00043058 -0.0012063 0)
(0.000548858 -0.00133668 0)
(0.00063684 -0.00142825 0)
(0.000669194 -0.00145847 0)
(0.00062211 -0.00133942 0)
(0.000485633 -0.00105252 0)
(0.000289164 -0.000649982 0)
(0.000174623 -0.000265328 0)
(1.27887e-05 -5.46652e-05 0)
(-7.00898e-05 -0.000104048 0)
(1.29094e-05 -0.000147709 0)
(-2.55675e-05 9.17803e-05 0)
(-5.06787e-05 7.56809e-05 0)
(-7.65876e-05 8.8183e-05 0)
(-0.00012333 6.13357e-05 0)
(-0.000201525 -1.2764e-05 0)
(-0.000327934 -0.000160389 0)
(-0.00046913 -0.000355304 0)
(-0.000582476 -0.000552632 0)
(-0.000633742 -0.000698712 0)
(-0.000624247 -0.00077902 0)
(-0.00056406 -0.000805212 0)
(-0.000474973 -0.000796128 0)
(-0.000369674 -0.00077174 0)
(-0.000264346 -0.000744188 0)
(-0.000158189 -0.000725411 0)
(-6.17835e-05 -0.00071642 0)
(3.66127e-05 -0.000730555 0)
(0.000122625 -0.00076154 0)
(0.000218561 -0.000830095 0)
(0.000307008 -0.000916684 0)
(0.000414693 -0.00104628 0)
(0.000525721 -0.00116729 0)
(0.000636563 -0.00128823 0)
(0.000738013 -0.00130927 0)
(0.000756358 -0.00120441 0)
(0.000680942 -0.000945144 0)
(0.00050373 -0.000502164 0)
(0.000137783 -0.000315949 0)
(-7.95221e-05 -3.36009e-05 0)
(-1.67157e-05 -0.000250409 0)
(-3.75059e-05 8.03162e-05 0)
(-7.22887e-05 6.99754e-05 0)
(-0.000119914 7.31679e-05 0)
(-0.000213526 1.76285e-05 0)
(-0.000346267 -0.000102239 0)
(-0.000514499 -0.000288366 0)
(-0.000651578 -0.000485272 0)
(-0.000718848 -0.000637095 0)
(-0.000705232 -0.000716266 0)
(-0.000636276 -0.000733729 0)
(-0.000535189 -0.000711676 0)
(-0.000426853 -0.000671929 0)
(-0.000317179 -0.000632595 0)
(-0.000217389 -0.000598788 0)
(-0.000120723 -0.000577259 0)
(-3.91653e-05 -0.000562866 0)
(4.20212e-05 -0.000565637 0)
(0.000103357 -0.000575526 0)
(0.000172191 -0.00061412 0)
(0.000225824 -0.000662031 0)
(0.000304349 -0.000755324 0)
(0.000394702 -0.000851655 0)
(0.000519866 -0.000992767 0)
(0.000689811 -0.00108863 0)
(0.000823195 -0.00115414 0)
(0.00094937 -0.00106578 0)
(0.000752558 -0.000796917 0)
(0.000446808 -0.000556813 0)
(8.79044e-06 -9.44946e-05 0)
(-0.000190618 -0.000368482 0)
(-4.7689e-05 2.26476e-05 0)
(-9.81813e-05 1.81993e-05 0)
(-0.000181046 6.99076e-06 0)
(-0.000331889 -7.23827e-05 0)
(-0.00051181 -0.000217549 0)
(-0.000690238 -0.00040162 0)
(-0.000786605 -0.000557804 0)
(-0.000786663 -0.000644433 0)
(-0.000710829 -0.000661314 0)
(-0.000602323 -0.000637159 0)
(-0.000484267 -0.00059788 0)
(-0.000375032 -0.000560363 0)
(-0.000271851 -0.000534517 0)
(-0.000181444 -0.00051689 0)
(-9.26874e-05 -0.000509653 0)
(-1.97345e-05 -0.000502512 0)
(5.4438e-05 -0.000504491 0)
(0.000103941 -0.000501987 0)
(0.000159771 -0.000518361 0)
(0.000190051 -0.000531855 0)
(0.00024359 -0.000584662 0)
(0.000299503 -0.000636995 0)
(0.000402289 -0.000750445 0)
(0.00056924 -0.000849505 0)
(0.000762197 -0.000991744 0)
(0.00100763 -0.0010252 0)
(0.00096646 -0.000993153 0)
(0.000780738 -0.000667277 0)
(9.86179e-05 -0.000425236 0)
(-0.000266589 -0.000268636 0)
(-5.71235e-05 -7.18518e-05 0)
(-0.00012899 -7.18516e-05 0)
(-0.000251464 -9.76862e-05 0)
(-0.000451165 -0.000185592 0)
(-0.000658166 -0.000326956 0)
(-0.000819008 -0.000475712 0)
(-0.000858562 -0.000573741 0)
(-0.000796695 -0.000601768 0)
(-0.000678259 -0.000582397 0)
(-0.000552368 -0.000547941 0)
(-0.000434765 -0.000519356 0)
(-0.000335515 -0.000504747 0)
(-0.000242996 -0.000505703 0)
(-0.000161185 -0.000511577 0)
(-7.53405e-05 -0.000522338 0)
(-3.18535e-06 -0.000523486 0)
(7.39958e-05 -0.000525817 0)
(0.000122422 -0.000511972 0)
(0.000176095 -0.000509344 0)
(0.000193015 -0.000492771 0)
(0.00022912 -0.000509164 0)
(0.000252217 -0.000518399 0)
(0.000321468 -0.000589176 0)
(0.000450244 -0.000656508 0)
(0.000638983 -0.000800055 0)
(0.000926708 -0.000894781 0)
(0.00107645 -0.000972525 0)
(0.000957171 -0.000744507 0)
(0.000370184 -0.000490047 0)
(-1.57021e-05 3.40086e-05 0)
(-6.33507e-05 -0.000179323 0)
(-0.000160412 -0.00017359 0)
(-0.000321944 -0.000205833 0)
(-0.000556201 -0.000286858 0)
(-0.000768495 -0.000405226 0)
(-0.000893149 -0.000508223 0)
(-0.000876919 -0.000554919 0)
(-0.000771379 -0.000546686 0)
(-0.000635894 -0.000517151 0)
(-0.000515173 -0.000494303 0)
(-0.000413868 -0.000491281 0)
(-0.000333023 -0.000506774 0)
(-0.000253312 -0.000536504 0)
(-0.0001773 -0.000564671 0)
(-8.73652e-05 -0.000591906 0)
(-6.48229e-06 -0.000599711 0)
(8.51712e-05 -0.000603016 0)
(0.00014474 -0.000579269 0)
(0.000208621 -0.000561824 0)
(0.000224602 -0.000520151 0)
(0.000253331 -0.0005062 0)
(0.000251338 -0.000478629 0)
(0.000288896 -0.000506719 0)
(0.000369183 -0.000533794 0)
(0.00052332 -0.000644729 0)
(0.000820461 -0.000741637 0)
(0.00109289 -0.000860079 0)
(0.00121989 -0.00076721 0)
(0.000823679 -0.000377596 0)
(0.00024517 7.58104e-05 0)
(-6.7187e-05 -0.000274156 0)
(-0.000186486 -0.000262383 0)
(-0.000377947 -0.000293889 0)
(-0.000629388 -0.000355915 0)
(-0.000833978 -0.000441663 0)
(-0.000921068 -0.000500392 0)
(-0.000863371 -0.000511686 0)
(-0.000736467 -0.000488626 0)
(-0.000603786 -0.000467705 0)
(-0.000502277 -0.000466909 0)
(-0.000424535 -0.000492837 0)
(-0.00036463 -0.000535632 0)
(-0.000295309 -0.000589286 0)
(-0.000219891 -0.000633993 0)
(-0.000118017 -0.000673627 0)
(-2.04679e-05 -0.000685051 0)
(9.41861e-05 -0.000689315 0)
(0.000172904 -0.000657294 0)
(0.000254787 -0.000629981 0)
(0.000278201 -0.000569884 0)
(0.000306512 -0.00053442 0)
(0.000287704 -0.000480012 0)
(0.00029881 -0.000473573 0)
(0.000330635 -0.000466777 0)
(0.000437708 -0.00053861 0)
(0.000702558 -0.000618595 0)
(0.0010325 -0.000773097 0)
(0.00140824 -0.000806412 0)
(0.00115643 -0.000616669 0)
(0.000402006 -0.000352869 0)
(-6.6834e-05 -0.000333519 0)
(-0.000205348 -0.000314862 0)
(-0.000416792 -0.000340718 0)
(-0.000670958 -0.000383086 0)
(-0.000860222 -0.00044081 0)
(-0.00091515 -0.000470301 0)
(-0.00083451 -0.000465828 0)
(-0.000706726 -0.000445113 0)
(-0.000593805 -0.000441529 0)
(-0.000522393 -0.000463222 0)
(-0.000474218 -0.000512791 0)
(-0.000436283 -0.000574022 0)
(-0.000374075 -0.000642753 0)
(-0.000293591 -0.000695457 0)
(-0.000172502 -0.000741485 0)
(-5.12644e-05 -0.000752139 0)
(9.3708e-05 -0.000756341 0)
(0.000198582 -0.000717402 0)
(0.000305322 -0.000684802 0)
(0.00034407 -0.000613374 0)
(0.000378673 -0.000565442 0)
(0.0003511 -0.000494331 0)
(0.000340689 -0.000464698 0)
(0.000328853 -0.000433873 0)
(0.000383709 -0.000471615 0)
(0.000581748 -0.000527195 0)
(0.000890532 -0.000687745 0)
(0.00135808 -0.000809179 0)
(0.00123281 -0.000889964 0)
(0.00047683 -0.000794104 0)
(-6.41566e-05 -0.000352414 0)
(-0.000214987 -0.000326754 0)
(-0.000437972 -0.000345083 0)
(-0.00068708 -0.000368704 0)
(-0.000863098 -0.000405313 0)
(-0.000898376 -0.000417138 0)
(-0.000810384 -0.000410171 0)
(-0.000694556 -0.00039858 0)
(-0.000607629 -0.00041219 0)
(-0.000568864 -0.000449323 0)
(-0.000548327 -0.000512478 0)
(-0.000528255 -0.000580385 0)
(-0.000466705 -0.000653981 0)
(-0.000375672 -0.00070584 0)
(-0.000230299 -0.000752631 0)
(-8.22915e-05 -0.000759388 0)
(9.52836e-05 -0.000763502 0)
(0.00022779 -0.000720711 0)
(0.000360565 -0.000688229 0)
(0.000417579 -0.000614604 0)
(0.000462142 -0.000565056 0)
(0.000431988 -0.000489511 0)
(0.000404386 -0.000450604 0)
(0.000355087 -0.00040606 0)
(0.000361491 -0.000419549 0)
(0.000484059 -0.00044939 0)
(0.000735093 -0.000591509 0)
(0.00119224 -0.000734927 0)
(0.00113932 -0.000957334 0)
(0.000476892 -0.000969499 0)
(-5.74234e-05 -0.00033416 0)
(-0.000216494 -0.000302063 0)
(-0.000443051 -0.000312591 0)
(-0.000682013 -0.000323737 0)
(-0.00084742 -0.000347958 0)
(-0.000873655 -0.000354455 0)
(-0.000791938 -0.000353099 0)
(-0.000696625 -0.000352815 0)
(-0.000640268 -0.000378557 0)
(-0.000634517 -0.000421939 0)
(-0.000640007 -0.000487803 0)
(-0.000634817 -0.000551122 0)
(-0.000570949 -0.000620389 0)
(-0.000467596 -0.000663647 0)
(-0.000296761 -0.000706301 0)
(-0.000121384 -0.0007062 0)
(8.90528e-05 -0.000709109 0)
(0.000249661 -0.000663951 0)
(0.000408319 -0.000633781 0)
(0.000485136 -0.00056372 0)
(0.000542917 -0.000519824 0)
(0.000516458 -0.000449436 0)
(0.000478259 -0.000414152 0)
(0.000399839 -0.000365695 0)
(0.000363438 -0.000367008 0)
(0.000409167 -0.000373631 0)
(0.000588441 -0.000488038 0)
(0.000979681 -0.000612917 0)
(0.000971054 -0.000885389 0)
(0.000447779 -0.00094463 0)
(-4.99753e-05 -0.000286882 0)
(-0.000211225 -0.000247415 0)
(-0.000438882 -0.000250128 0)
(-0.000668179 -0.000250868 0)
(-0.000829592 -0.000268644 0)
(-0.000857688 -0.000273685 0)
(-0.000788036 -0.000280294 0)
(-0.000714392 -0.000286926 0)
(-0.00068366 -0.000317416 0)
(-0.000705662 -0.000356123 0)
(-0.000730159 -0.000413615 0)
(-0.00073501 -0.000461382 0)
(-0.000665115 -0.000517918 0)
(-0.000548713 -0.000546439 0)
(-0.000353001 -0.000581524 0)
(-0.000151824 -0.000573945 0)
(8.86868e-05 -0.000576321 0)
(0.000274511 -0.000532753 0)
(0.000454579 -0.000508307 0)
(0.000547804 -0.000447606 0)
(0.000617609 -0.000415228 0)
(0.000596932 -0.000357896 0)
(0.000553896 -0.000337065 0)
(0.000453676 -0.000294774 0)
(0.000384154 -0.000297992 0)
(0.000363443 -0.000286867 0)
(0.000476454 -0.00037518 0)
(0.000781777 -0.000458228 0)
(0.000784445 -0.000722871 0)
(0.000404477 -0.000791266 0)
(-3.81024e-05 -0.000228559 0)
(-0.000198344 -0.000181898 0)
(-0.000421992 -0.000174696 0)
(-0.000641984 -0.000167649 0)
(-0.000803148 -0.000179536 0)
(-0.000839507 -0.000185797 0)
(-0.000788027 -0.000198304 0)
(-0.000735335 -0.000208299 0)
(-0.000726683 -0.000236513 0)
(-0.000770167 -0.000262262 0)
(-0.000809463 -0.000303374 0)
(-0.000823092 -0.000328177 0)
(-0.000749591 -0.000366919 0)
(-0.000624568 -0.000376931 0)
(-0.000409343 -0.000402433 0)
(-0.000186356 -0.000387486 0)
(8.01326e-05 -0.00039 0)
(0.000288748 -0.000351273 0)
(0.000486579 -0.000335134 0)
(0.000593352 -0.000286655 0)
(0.00067411 -0.000267691 0)
(0.000660624 -0.000225751 0)
(0.000619442 -0.000224122 0)
(0.00050451 -0.000193499 0)
(0.000412563 -0.000208447 0)
(0.000335399 -0.00018485 0)
(0.000394936 -0.000255628 0)
(0.000615859 -0.000291426 0)
(0.00061528 -0.000529603 0)
(0.000367885 -0.000579889 0)
(-2.68972e-05 -0.000161081 0)
(-0.000179007 -0.000104777 0)
(-0.000398806 -8.66741e-05 0)
(-0.00061162 -6.90526e-05 0)
(-0.000777191 -7.61982e-05 0)
(-0.000828886 -7.96692e-05 0)
(-0.000794937 -9.5987e-05 0)
(-0.00075944 -0.000102963 0)
(-0.000761965 -0.000124113 0)
(-0.000818707 -0.000130735 0)
(-0.000865389 -0.000150325 0)
(-0.000885949 -0.000146788 0)
(-0.000809687 -0.000162696 0)
(-0.000679313 -0.00015023 0)
(-0.000449491 -0.000162462 0)
(-0.00020884 -0.000139807 0)
(7.84959e-05 -0.000142838 0)
(0.000306311 -0.0001133 0)
(0.000516702 -0.000110342 0)
(0.00063184 -7.89914e-05 0)
(0.000719732 -7.66359e-05 0)
(0.000710895 -5.19902e-05 0)
(0.000675245 -7.26184e-05 0)
(0.000549825 -5.783e-05 0)
(0.000446255 -9.25866e-05 0)
(0.000323641 -6.27013e-05 0)
(0.000344283 -0.000126447 0)
(0.000487184 -0.000116585 0)
(0.000472893 -0.000329602 0)
(0.00034382 -0.000349173 0)
(-9.91305e-06 -0.0001071 0)
(-0.000150744 -4.21543e-05 0)
(-0.000360372 -9.03112e-06 0)
(-0.00056716 2.01041e-05 0)
(-0.000738616 2.50346e-05 0)
(-0.000807724 2.66588e-05 0)
(-0.000795401 1.26124e-05 0)
(-0.000773907 1.0369e-05 0)
(-0.000783024 -1.11581e-06 0)
(-0.000844459 1.34413e-05 0)
(-0.000893739 1.74666e-05 0)
(-0.000919821 5.18301e-05 0)
(-0.000844928 6.08995e-05 0)
(-0.000715327 9.74476e-05 0)
(-0.000480172 9.97062e-05 0)
(-0.000230206 0.000129345 0)
(6.88527e-05 0.000123817 0)
(0.000310176 0.00014057 0)
(0.00052888 0.000125645 0)
(0.000649182 0.000137288 0)
(0.000743105 0.000121476 0)
(0.000737754 0.000130657 0)
(0.00071182 8.88134e-05 0)
(0.000579412 8.85432e-05 0)
(0.000474685 3.11404e-05 0)
(0.00031514 6.44491e-05 0)
(0.000312479 -2.208e-06 0)
(0.000385382 5.16124e-05 0)
(0.000356789 -0.000145874 0)
(0.000337887 -0.000124407 0)
(3.37703e-06 -4.92801e-05 0)
(-0.00011578 2.54054e-05 0)
(-0.000313955 7.14211e-05 0)
(-0.000512515 0.000118023 0)
(-0.000690382 0.000133893 0)
(-0.000783187 0.000148674 0)
(-0.000791219 0.000137651 0)
(-0.000783505 0.000144342 0)
(-0.000788076 0.000140702 0)
(-0.000845766 0.000173772 0)
(-0.000888844 0.000197135 0)
(-0.000917967 0.000258129 0)
(-0.000846055 0.000290569 0)
(-0.000721414 0.000349473 0)
(-0.000488201 0.000367431 0)
(-0.000235778 0.000404015 0)
(6.61698e-05 0.000396965 0)
(0.000314297 0.000400752 0)
(0.000536899 0.000367799 0)
(0.000659049 0.000360462 0)
(0.000757823 0.000327337 0)
(0.000753838 0.000323426 0)
(0.000739146 0.000262624 0)
(0.000600146 0.000248986 0)
(0.000502231 0.000168842 0)
(0.000310853 0.000203467 0)
(0.000300033 0.00012604 0)
(0.000308259 0.000219888 0)
(0.000267467 2.22246e-05 0)
(0.000354527 8.96967e-05 0)
(2.19246e-05 -1.64983e-05 0)
(-7.60067e-05 5.88039e-05 0)
(-0.00025074 0.000122084 0)
(-0.000439385 0.000184066 0)
(-0.000621507 0.000224398 0)
(-0.000735656 0.000254965 0)
(-0.000771411 0.000256834 0)
(-0.000778002 0.000271052 0)
(-0.000781625 0.000272846 0)
(-0.000829511 0.000317856 0)
(-0.000861889 0.000353782 0)
(-0.000888335 0.000435165 0)
(-0.000819593 0.000485712 0)
(-0.000702152 0.00056315 0)
(-0.000478917 0.000592458 0)
(-0.000232825 0.000633615 0)
(6.11524e-05 0.000621585 0)
(0.00030636 0.000613452 0)
(0.00052776 0.000562575 0)
(0.00064907 0.000541199 0)
(0.000753711 0.000492921 0)
(0.000751191 0.000480391 0)
(0.000750418 0.000403077 0)
(0.00060545 0.000379726 0)
(0.000521477 0.00027804 0)
(0.000300781 0.000315125 0)
(0.000295735 0.000220908 0)
(0.000237444 0.000356763 0)
(0.000192529 0.000151233 0)
(0.000393749 0.000279031 0)
(2.76153e-05 2.86316e-05 0)
(-3.6873e-05 0.000101179 0)
(-0.000182896 0.000174631 0)
(-0.000349577 0.000259899 0)
(-0.000528325 0.000317473 0)
(-0.000670472 0.000374366 0)
(-0.000733394 0.000385918 0)
(-0.000765781 0.000411251 0)
(-0.000764842 0.000411973 0)
(-0.000801158 0.000459637 0)
(-0.000814093 0.00049492 0)
(-0.000832667 0.00058107 0)
(-0.000765085 0.000636861 0)
(-0.000656079 0.000721018 0)
(-0.000448593 0.000755114 0)
(-0.000216087 0.00079652 0)
(6.23255e-05 0.000781248 0)
(0.000297337 0.0007671 0)
(0.000514382 0.000709613 0)
(0.000634273 0.000684931 0)
(0.000746259 0.000632312 0)
(0.000745703 0.000617081 0)
(0.000759181 0.000530948 0)
(0.000606045 0.000503284 0)
(0.00054072 0.000387237 0)
(0.000289976 0.000429466 0)
(0.000307418 0.000317669 0)
(0.000184953 0.00049208 0)
(0.000150463 0.000265798 0)
(0.000469807 0.000463997 0)
(3.99461e-05 4.05401e-05 0)
(-4.01723e-06 8.77745e-05 0)
(-0.000101337 0.000180579 0)
(-0.000243488 0.000275211 0)
(-0.000412864 0.000372299 0)
(-0.000572194 0.000453853 0)
(-0.000673498 0.000493881 0)
(-0.000735012 0.000531321 0)
(-0.00074883 0.000531899 0)
(-0.000779082 0.000573528 0)
(-0.000777675 0.00059602 0)
(-0.000782171 0.000674402 0)
(-0.000711603 0.000721334 0)
(-0.000605441 0.000802931 0)
(-0.000413008 0.000831955 0)
(-0.000196177 0.000872318 0)
(6.30059e-05 0.000851058 0)
(0.000283312 0.000839409 0)
(0.00049407 0.000779062 0)
(0.000613205 0.000760618 0)
(0.000734643 0.000702204 0)
(0.000736961 0.000686954 0)
(0.00076602 0.000586545 0)
(0.000602684 0.000557403 0)
(0.000559369 0.000424752 0)
(0.000274904 0.000474689 0)
(0.000325101 0.000343739 0)
(0.000123806 0.000557478 0)
(0.000121137 0.000320188 0)
(0.0005797 0.000628667 0)
(2.45724e-05 6.59459e-05 0)
(1.88186e-05 0.000105603 0)
(-2.75052e-05 0.000196037 0)
(-0.000122072 0.000321976 0)
(-0.000259651 0.000433068 0)
(-0.000442574 0.000551939 0)
(-0.00057181 0.000606797 0)
(-0.000686259 0.000662265 0)
(-0.000720327 0.000657587 0)
(-0.000760165 0.00068908 0)
(-0.000747242 0.000688586 0)
(-0.00073983 0.000745039 0)
(-0.00066421 0.000769385 0)
(-0.000560546 0.000833712 0)
(-0.000381974 0.000850133 0)
(-0.000182867 0.00088359 0)
(5.71641e-05 0.000861631 0)
(0.000262303 0.00085552 0)
(0.000469058 0.000805576 0)
(0.000590511 0.000794776 0)
(0.000723648 0.000741108 0)
(0.000728428 0.000724488 0)
(0.000771366 0.00062317 0)
(0.000595351 0.000597802 0)
(0.000576411 0.00046732 0)
(0.000259665 0.000531396 0)
(0.00035913 0.000394529 0)
(9.10942e-05 0.000641549 0)
(0.000173168 0.000400396 0)
(0.00076633 0.000857405 0)
(4.11006e-05 7.11286e-05 0)
(4.07039e-05 5.74862e-05 0)
(5.93104e-05 0.000165072 0)
(5.75651e-06 0.000275397 0)
(-0.00010524 0.000434962 0)
(-0.000285394 0.000571974 0)
(-0.000455328 0.000669726 0)
(-0.000610971 0.000746746 0)
(-0.000690343 0.000753219 0)
(-0.000750697 0.00077999 0)
(-0.000746407 0.000757584 0)
(-0.000732543 0.000789586 0)
(-0.000654556 0.00078402 0)
(-0.000547299 0.00082767 0)
(-0.000376704 0.000823369 0)
(-0.000185063 0.00085205 0)
(4.27645e-05 0.000821775 0)
(0.000243526 0.000826539 0)
(0.000451734 0.000771585 0)
(0.000582432 0.000771431 0)
(0.000729181 0.000696427 0)
(0.000737095 0.000683856 0)
(0.000794985 0.00055405 0)
(0.000604499 0.000543355 0)
(0.000612982 0.000396043 0)
(0.000257494 0.000481757 0)
(0.000409538 0.00034092 0)
(5.47082e-05 0.000609263 0)
(0.000286581 0.000431209 0)
(0.00102799 0.00117016 0)
(-1.3464e-05 4.44374e-05 0)
(3.74179e-05 8.15775e-05 0)
(0.000112182 0.000154893 0)
(0.000125468 0.000325882 0)
(8.71496e-05 0.000469744 0)
(-0.000103808 0.000638109 0)
(-0.000274056 0.00073416 0)
(-0.00049538 0.000827701 0)
(-0.000613248 0.000833092 0)
(-0.000717429 0.000857498 0)
(-0.000730598 0.000817793 0)
(-0.000723685 0.000828381 0)
(-0.000648044 0.000796413 0)
(-0.000541915 0.000816709 0)
(-0.000376742 0.000792535 0)
(-0.000192878 0.000808149 0)
(2.96075e-05 0.000770805 0)
(0.000225188 0.000770823 0)
(0.000440042 0.000714727 0)
(0.000572088 0.000704571 0)
(0.000731075 0.000625034 0)
(0.000730914 0.000599725 0)
(0.000800265 0.000481005 0)
(0.000597468 0.000476741 0)
(0.000631668 0.000367485 0)
(0.000262997 0.000475087 0)
(0.00046744 0.0003886 0)
(9.96448e-05 0.000682181 0)
(0.000678171 0.000683065 0)
(0.00149996 0.00182379 0)
(6.78018e-05 0.000146026 0)
(9.42486e-05 1.86893e-05 0)
(0.000215143 0.000140635 0)
(0.000265561 0.000215118 0)
(0.000218784 0.000411691 0)
(5.69152e-05 0.00056095 0)
(-0.000147539 0.000692159 0)
(-0.000384412 0.00079249 0)
(-0.000547535 0.000818196 0)
(-0.000676147 0.000847977 0)
(-0.000714853 0.000807448 0)
(-0.000712097 0.000806619 0)
(-0.000643331 0.000755722 0)
(-0.000532058 0.000758301 0)
(-0.000371386 0.0007108 0)
(-0.000183488 0.000716939 0)
(3.45207e-05 0.000656531 0)
(0.000236845 0.000658868 0)
(0.000452989 0.000570658 0)
(0.000594317 0.000571325 0)
(0.00075779 0.000442181 0)
(0.000760444 0.000447048 0)
(0.000843344 0.000277265 0)
(0.000639675 0.000333982 0)
(0.000713947 0.000188894 0)
(0.000335302 0.000360656 0)
(0.000609657 0.000303071 0)
(0.000272267 0.000642606 0)
(0.00138715 0.00103643 0)
(0.00218297 0.00322238 0)
(-0.00014583 -0.000160402 0)
(-6.18345e-06 4.8282e-05 0)
(0.000222943 9.84175e-05 0)
(0.000316963 0.000350346 0)
(0.000402436 0.000477604 0)
(0.000211097 0.00061553 0)
(4.43647e-05 0.000686073 0)
(-0.000249965 0.000757669 0)
(-0.000432802 0.00076095 0)
(-0.000603511 0.000779132 0)
(-0.000665002 0.000733918 0)
(-0.000676131 0.000725794 0)
(-0.000614259 0.000665609 0)
(-0.000505972 0.000657596 0)
(-0.000344848 0.000594371 0)
(-0.000164907 0.00058964 0)
(5.69524e-05 0.000512822 0)
(0.00024324 0.000504146 0)
(0.000468883 0.000403834 0)
(0.000584303 0.000389286 0)
(0.000761011 0.000267254 0)
(0.000731497 0.000257075 0)
(0.000836143 0.000145465 0)
(0.000627559 0.000188523 0)
(0.00073561 0.000167951 0)
(0.000425427 0.000343305 0)
(0.00075739 0.000561828 0)
(0.000749457 0.00114154 0)
(0.00320252 0.00288242 0)
(0.00371241 0.0065714 0)
(0.000256243 0.000432346 0)
(0.000304389 -0.000117835 0)
(0.00042694 4.97468e-06 0)
(0.000544209 4.53408e-05 0)
(0.000413137 0.000274085 0)
(0.000251255 0.000398351 0)
(3.00162e-05 0.00049781 0)
(-0.000226829 0.000554532 0)
(-0.00042514 0.000565117 0)
(-0.000582462 0.000576821 0)
(-0.00064999 0.000536569 0)
(-0.000656386 0.000525984 0)
(-0.000594692 0.000465844 0)
(-0.000483203 0.00045171 0)
(-0.000323487 0.000382818 0)
(-0.000143629 0.0003726 0)
(7.04531e-05 0.000287787 0)
(0.000256722 0.000284658 0)
(0.000468422 0.000174267 0)
(0.000592086 0.000189923 0)
(0.000754447 5.17778e-05 0)
(0.000755855 0.000112459 0)
(0.000867866 -3.90942e-05 0)
(0.000727876 0.000110242 0)
(0.000913561 -2.45712e-06 0)
(0.000765403 0.000334454 0)
(0.00143472 0.000605689 0)
(0.00252495 0.00198692 0)
(0.00687239 0.00516792 0)
(0.00599072 0.0118592 0)
(-0.000725048 -0.00213566 0)
(-0.000488127 0.000177283 0)
(0.000304672 0.000391823 0)
(0.000501387 0.000351204 0)
(0.000672528 0.000426777 0)
(0.000377173 0.000445824 0)
(0.000171297 0.000420899 0)
(-0.000177325 0.000411825 0)
(-0.000386406 0.000382491 0)
(-0.000587792 0.000366985 0)
(-0.000664261 0.000333711 0)
(-0.000687538 0.000318125 0)
(-0.00062792 0.00027924 0)
(-0.000527596 0.000266649 0)
(-0.000364392 0.000219356 0)
(-0.000204419 0.000213419 0)
(1.98346e-05 0.000152395 0)
(0.000170752 0.000155753 0)
(0.00040667 7.83994e-05 0)
(0.000477189 9.4976e-05 0)
(0.000686812 1.01006e-05 0)
(0.000622448 4.69593e-05 0)
(0.000809608 7.31786e-07 0)
(0.000629629 9.72095e-05 0)
(0.000940381 0.000325419 0)
(0.00101439 0.000835171 0)
(0.00238385 0.00264368 0)
(0.00502206 0.00620356 0)
(0.012712 0.014904 0)
(0.01027 0.0266742 0)
(0.00258085 -0.0028619 0)
(0.00286647 0.000470798 0)
(0.000591922 0.000477417 0)
(0.000535277 0.000717385 0)
(0.000441261 0.000514117 0)
(0.000153781 0.00050682 0)
(-0.000108599 0.000338176 0)
(-0.000373773 0.000297651 0)
(-0.000573138 0.000228776 0)
(-0.000734207 0.000200849 0)
(-0.0007896 0.000178999 0)
(-0.000804927 0.000163818 0)
(-0.000728416 0.000155177 0)
(-0.00063541 0.000145635 0)
(-0.000460601 0.000138418 0)
(-0.000312391 0.000129786 0)
(-8.43984e-05 0.000123966 0)
(6.09537e-05 0.000109582 0)
(0.00028961 0.000113781 0)
(0.000379765 8.20256e-05 0)
(0.000572815 0.000118805 0)
(0.000594225 5.58577e-05 0)
(0.000787939 0.000183712 0)
(0.000916505 0.000108801 0)
(0.00155439 0.000542075 0)
(0.0030228 0.000764904 0)
(0.00674676 0.00255219 0)
(0.0143152 0.00510472 0)
(0.0270372 0.0119549 0)
(0.0181299 0.0191013 0)
)
;

boundaryField
{
    movingWall
    {
        type            fixedValue;
        value           uniform (1 0 0);
    }
    fixedWalls
    {
        type            noSlip;
    }
    frontAndBack
    {
        type            empty;
    }
}


// ************************************************************************* //
