/*--------------------------------*- C++ -*----------------------------------*\
| =========                 |                                                 |
| \\      /  F ield         | OpenFOAM: The Open Source CFD Toolbox           |
|  \\    /   O peration     | Version:  2406                                  |
|   \\  /    A nd           | Website:  www.openfoam.com                      |
|    \\/     M anipulation  |                                                 |
\*---------------------------------------------------------------------------*/
FoamFile
{
    version     2.0;
    format      ascii;
    arch        "LSB;label=32;scalar=64";
    class       volVectorField;
    location    "4.25";
    object      U;
}
// * * * * * * * * * * * * * * * * * * * * * * * * * * * * * * * * * * * * * //

dimensions      [0 1 -1 0 0 0 0];

internalField   nonuniform List<vector> 
14400
(
(2.46972e-06 -2.45299e-06 0)
(2.79789e-06 1.57472e-07 0)
(-6.26727e-06 3.49704e-06 0)
(-2.46247e-05 6.80225e-06 0)
(-5.16171e-05 9.1197e-06 0)
(-8.45815e-05 1.09228e-05 0)
(-0.000122675 1.20879e-05 0)
(-0.000163915 1.29387e-05 0)
(-0.000207799 1.34517e-05 0)
(-0.000253124 1.37986e-05 0)
(-0.000299628 1.39748e-05 0)
(-0.00034664 1.40707e-05 0)
(-0.000394042 1.40863e-05 0)
(-0.000441488 1.40686e-05 0)
(-0.000488941 1.40177e-05 0)
(-0.000536236 1.39569e-05 0)
(-0.000583372 1.38847e-05 0)
(-0.000630277 1.38117e-05 0)
(-0.00067696 1.37356e-05 0)
(-0.000723388 1.36604e-05 0)
(-0.000769569 1.35837e-05 0)
(-0.000815484 1.35066e-05 0)
(-0.000861133 1.34271e-05 0)
(-0.000906498 1.3345e-05 0)
(-0.000951571 1.3259e-05 0)
(-0.000996333 1.31685e-05 0)
(-0.00104077 1.30725e-05 0)
(-0.00108486 1.29704e-05 0)
(-0.00112858 1.28615e-05 0)
(-0.0011719 1.27451e-05 0)
(-0.0012148 1.26207e-05 0)
(-0.00125726 1.24877e-05 0)
(-0.00129924 1.23455e-05 0)
(-0.0013407 1.21937e-05 0)
(-0.00138162 1.20317e-05 0)
(-0.00142197 1.1859e-05 0)
(-0.00146169 1.16751e-05 0)
(-0.00150077 1.14794e-05 0)
(-0.00153914 1.12715e-05 0)
(-0.00157679 1.10509e-05 0)
(-0.00161365 1.0817e-05 0)
(-0.00164969 1.05695e-05 0)
(-0.00168485 1.03079e-05 0)
(-0.0017191 1.00317e-05 0)
(-0.00175239 9.74051e-06 0)
(-0.00178465 9.43397e-06 0)
(-0.00181585 9.1117e-06 0)
(-0.00184592 8.77337e-06 0)
(-0.00187482 8.41869e-06 0)
(-0.00190249 8.04741e-06 0)
(-0.00192888 7.65932e-06 0)
(-0.00195393 7.25427e-06 0)
(-0.00197758 6.83215e-06 0)
(-0.00199977 6.39292e-06 0)
(-0.00202046 5.93661e-06 0)
(-0.00203959 5.46329e-06 0)
(-0.0020571 4.97313e-06 0)
(-0.00207293 4.46637e-06 0)
(-0.00208703 3.94333e-06 0)
(-0.00209935 3.40439e-06 0)
(-0.00210984 2.85006e-06 0)
(-0.00211845 2.2809e-06 0)
(-0.00212513 1.69758e-06 0)
(-0.00212983 1.10086e-06 0)
(-0.00213252 4.91579e-07 0)
(-0.00213316 -1.29313e-07 0)
(-0.0021317 -7.60786e-07 0)
(-0.00212811 -1.40172e-06 0)
(-0.00212237 -2.05091e-06 0)
(-0.00211445 -2.70706e-06 0)
(-0.00210433 -3.36881e-06 0)
(-0.002092 -4.03473e-06 0)
(-0.00207744 -4.70331e-06 0)
(-0.00206064 -5.37299e-06 0)
(-0.00204161 -6.04217e-06 0)
(-0.00202035 -6.7092e-06 0)
(-0.00199686 -7.37242e-06 0)
(-0.00197117 -8.03013e-06 0)
(-0.00194329 -8.68065e-06 0)
(-0.00191325 -9.32228e-06 0)
(-0.00188107 -9.95336e-06 0)
(-0.00184681 -1.05723e-05 0)
(-0.00181049 -1.11774e-05 0)
(-0.00177216 -1.17672e-05 0)
(-0.00173187 -1.23403e-05 0)
(-0.00168969 -1.28952e-05 0)
(-0.00164567 -1.34307e-05 0)
(-0.00159987 -1.39456e-05 0)
(-0.00155236 -1.44389e-05 0)
(-0.00150322 -1.49096e-05 0)
(-0.00145252 -1.53568e-05 0)
(-0.00140034 -1.578e-05 0)
(-0.00134675 -1.61785e-05 0)
(-0.00129184 -1.65518e-05 0)
(-0.00123568 -1.68998e-05 0)
(-0.00117837 -1.72219e-05 0)
(-0.00111999 -1.75181e-05 0)
(-0.00106062 -1.77875e-05 0)
(-0.00100036 -1.803e-05 0)
(-0.00093931 -1.82438e-05 0)
(-0.000877553 -1.84279e-05 0)
(-0.000815214 -1.85783e-05 0)
(-0.000752401 -1.86925e-05 0)
(-0.000689278 -1.87618e-05 0)
(-0.000625986 -1.87811e-05 0)
(-0.000562765 -1.87335e-05 0)
(-0.000499821 -1.86107e-05 0)
(-0.000437531 -1.8382e-05 0)
(-0.000376199 -1.80363e-05 0)
(-0.000316426 -1.75207e-05 0)
(-0.000258659 -1.68247e-05 0)
(-0.000203831 -1.58592e-05 0)
(-0.00015258 -1.46233e-05 0)
(-0.000106289 -1.29648e-05 0)
(-6.58215e-05 -1.09184e-05 0)
(-3.30473e-05 -8.23232e-06 0)
(-8.97618e-06 -5.10614e-06 0)
(4.67622e-06 -1.31347e-06 0)
(7.82455e-06 1.90779e-06 0)
(3.25929e-06 3.28707e-06 0)
(-1.20237e-07 -2.81467e-06 0)
(-1.27458e-05 1.27381e-05 0)
(-4.64024e-05 3.06897e-05 0)
(-9.92484e-05 4.8479e-05 0)
(-0.000171193 6.25188e-05 0)
(-0.00025739 7.38907e-05 0)
(-0.000356125 8.21501e-05 0)
(-0.000463426 8.83376e-05 0)
(-0.000577789 9.25659e-05 0)
(-0.000696609 9.55044e-05 0)
(-0.000818888 9.73272e-05 0)
(-0.000943091 9.84327e-05 0)
(-0.00106865 9.89559e-05 0)
(-0.00119473 9.91218e-05 0)
(-0.00132105 9.90134e-05 0)
(-0.00144719 9.87483e-05 0)
(-0.00157304 9.83674e-05 0)
(-0.00169839 9.79254e-05 0)
(-0.0018232 9.74367e-05 0)
(-0.00194737 9.69219e-05 0)
(-0.00207089 9.63819e-05 0)
(-0.00219368 9.58212e-05 0)
(-0.00231574 9.52354e-05 0)
(-0.002437 9.46229e-05 0)
(-0.00255744 9.39778e-05 0)
(-0.00267701 9.32968e-05 0)
(-0.00279564 9.25744e-05 0)
(-0.00291329 9.18068e-05 0)
(-0.0030299 9.09896e-05 0)
(-0.00314539 9.01189e-05 0)
(-0.00325969 8.91908e-05 0)
(-0.00337273 8.82017e-05 0)
(-0.00348444 8.71479e-05 0)
(-0.00359471 8.6026e-05 0)
(-0.00370347 8.48325e-05 0)
(-0.00381062 8.35641e-05 0)
(-0.00391607 8.22174e-05 0)
(-0.00401971 8.07891e-05 0)
(-0.00412144 7.92759e-05 0)
(-0.00422114 7.76747e-05 0)
(-0.00431872 7.59823e-05 0)
(-0.00441404 7.41958e-05 0)
(-0.00450699 7.23122e-05 0)
(-0.00459746 7.03288e-05 0)
(-0.0046853 6.82429e-05 0)
(-0.00477039 6.60521e-05 0)
(-0.0048526 6.37542e-05 0)
(-0.00493179 6.1347e-05 0)
(-0.00500783 5.88289e-05 0)
(-0.00508058 5.61983e-05 0)
(-0.00514989 5.3454e-05 0)
(-0.00521563 5.05951e-05 0)
(-0.00527766 4.76212e-05 0)
(-0.00533582 4.45321e-05 0)
(-0.00538998 4.13281e-05 0)
(-0.00544 3.801e-05 0)
(-0.00548574 3.45791e-05 0)
(-0.00552705 3.1037e-05 0)
(-0.00556381 2.7386e-05 0)
(-0.00559588 2.36289e-05 0)
(-0.00562313 1.9769e-05 0)
(-0.00564543 1.58103e-05 0)
(-0.00566268 1.17572e-05 0)
(-0.00567476 7.61484e-06 0)
(-0.00568155 3.38891e-06 0)
(-0.00568297 -9.14327e-07 0)
(-0.00567892 -5.28803e-06 0)
(-0.00566932 -9.72479e-06 0)
(-0.00565409 -1.42166e-05 0)
(-0.00563318 -1.87551e-05 0)
(-0.00560654 -2.33312e-05 0)
(-0.00557412 -2.79355e-05 0)
(-0.00553589 -3.25582e-05 0)
(-0.00549184 -3.71892e-05 0)
(-0.00544196 -4.18178e-05 0)
(-0.00538626 -4.64334e-05 0)
(-0.00532477 -5.10252e-05 0)
(-0.00525753 -5.5582e-05 0)
(-0.00518456 -6.00928e-05 0)
(-0.00510596 -6.45466e-05 0)
(-0.00502177 -6.89325e-05 0)
(-0.00493211 -7.32399e-05 0)
(-0.00483706 -7.74582e-05 0)
(-0.00473674 -8.15774e-05 0)
(-0.00463129 -8.55879e-05 0)
(-0.00452082 -8.94806e-05 0)
(-0.0044055 -9.32468e-05 0)
(-0.00428549 -9.68786e-05 0)
(-0.00416094 -0.000100369 0)
(-0.00403204 -0.000103711 0)
(-0.00389898 -0.000106899 0)
(-0.00376193 -0.000109928 0)
(-0.00362111 -0.000112794 0)
(-0.00347672 -0.000115492 0)
(-0.00332895 -0.000118019 0)
(-0.00317804 -0.000120372 0)
(-0.00302419 -0.000122546 0)
(-0.00286763 -0.000124535 0)
(-0.0027086 -0.000126333 0)
(-0.00254736 -0.000127927 0)
(-0.00238416 -0.000129301 0)
(-0.00221932 -0.000130428 0)
(-0.00205316 -0.000131277 0)
(-0.0018861 -0.000131792 0)
(-0.00171856 -0.000131918 0)
(-0.00155118 -0.000131553 0)
(-0.00138457 -0.000130603 0)
(-0.00121969 -0.000128899 0)
(-0.00105745 -0.000126304 0)
(-0.000899325 -0.000122553 0)
(-0.000746631 -0.000117475 0)
(-0.000601557 -0.000110674 0)
(-0.000465898 -0.000101999 0)
(-0.000342723 -9.0892e-05 0)
(-0.000234178 -7.74048e-05 0)
(-0.000144062 -6.08615e-05 0)
(-7.41604e-05 -4.2221e-05 0)
(-2.75919e-05 -2.13837e-05 0)
(-3.21542e-06 -3.21241e-06 0)
(1.83907e-06 7.79271e-06 0)
(-3.52145e-06 6.31167e-06 0)
(-3.11155e-05 4.65543e-05 0)
(-9.07198e-05 8.99324e-05 0)
(-0.000176136 0.000131906 0)
(-0.000288016 0.000166545 0)
(-0.000419574 0.000194932 0)
(-0.00056894 0.000216438 0)
(-0.000730805 0.000232742 0)
(-0.00090314 0.000244346 0)
(-0.00108238 0.00025253 0)
(-0.00126702 0.000257881 0)
(-0.00145489 0.000261238 0)
(-0.00164505 0.000263043 0)
(-0.00183628 0.000263799 0)
(-0.00202807 0.000263781 0)
(-0.00221978 0.000263266 0)
(-0.00241115 0.000262397 0)
(-0.00260187 0.000261309 0)
(-0.00279181 0.000260061 0)
(-0.00298082 0.000258707 0)
(-0.00316883 0.000257264 0)
(-0.00335574 0.000255743 0)
(-0.00354148 0.000254141 0)
(-0.00372598 0.000252456 0)
(-0.00390918 0.000250676 0)
(-0.00409098 0.000248793 0)
(-0.0042713 0.000246795 0)
(-0.00445006 0.000244673 0)
(-0.00462715 0.000242415 0)
(-0.00480247 0.000240013 0)
(-0.00497591 0.000237456 0)
(-0.00514735 0.000234736 0)
(-0.00531668 0.000231844 0)
(-0.00548375 0.00022877 0)
(-0.00564844 0.000225505 0)
(-0.0058106 0.000222042 0)
(-0.00597009 0.000218372 0)
(-0.00612676 0.000214486 0)
(-0.00628045 0.000210377 0)
(-0.00643099 0.000206035 0)
(-0.00657821 0.000201455 0)
(-0.00672194 0.000196627 0)
(-0.00686201 0.000191545 0)
(-0.00699823 0.000186202 0)
(-0.00713041 0.000180591 0)
(-0.00725835 0.000174706 0)
(-0.00738187 0.000168542 0)
(-0.00750076 0.000162094 0)
(-0.00761483 0.000155357 0)
(-0.00772386 0.000148329 0)
(-0.00782765 0.000141005 0)
(-0.007926 0.000133385 0)
(-0.00801868 0.000125468 0)
(-0.00810551 0.000117252 0)
(-0.00818626 0.00010874 0)
(-0.00826074 9.99339e-05 0)
(-0.00832873 9.08369e-05 0)
(-0.00839003 8.14538e-05 0)
(-0.00844446 7.17906e-05 0)
(-0.00849182 6.18549e-05 0)
(-0.00853192 5.16554e-05 0)
(-0.00856458 4.12024e-05 0)
(-0.00858963 3.05077e-05 0)
(-0.00860692 1.95845e-05 0)
(-0.00861628 8.44748e-06 0)
(-0.00861757 -2.88709e-06 0)
(-0.00861068 -1.44016e-05 0)
(-0.00859547 -2.6077e-05 0)
(-0.00857185 -3.78929e-05 0)
(-0.00853973 -4.98275e-05 0)
(-0.00849904 -6.1858e-05 0)
(-0.00844972 -7.39602e-05 0)
(-0.00839172 -8.61092e-05 0)
(-0.00832504 -9.82789e-05 0)
(-0.00824966 -0.000110443 0)
(-0.0081656 -0.000122573 0)
(-0.00807289 -0.000134643 0)
(-0.00797159 -0.000146624 0)
(-0.00786177 -0.000158488 0)
(-0.00774351 -0.000170206 0)
(-0.00761694 -0.000181752 0)
(-0.00748218 -0.000193099 0)
(-0.00733937 -0.000204218 0)
(-0.00718869 -0.000215086 0)
(-0.00703031 -0.000225677 0)
(-0.00686444 -0.000235968 0)
(-0.00669129 -0.000245936 0)
(-0.00651109 -0.000255563 0)
(-0.00632408 -0.000264827 0)
(-0.00613052 -0.000273714 0)
(-0.00593068 -0.000282206 0)
(-0.00572484 -0.000290292 0)
(-0.00551328 -0.000297957 0)
(-0.00529631 -0.000305192 0)
(-0.00507421 -0.000311985 0)
(-0.00484732 -0.000318326 0)
(-0.00461595 -0.000324201 0)
(-0.00438044 -0.000329593 0)
(-0.00414114 -0.000334478 0)
(-0.00389844 -0.000338822 0)
(-0.00365273 -0.000342576 0)
(-0.00340448 -0.000345668 0)
(-0.00315419 -0.000348005 0)
(-0.0029025 -0.000349446 0)
(-0.00265007 -0.000349823 0)
(-0.00239784 -0.000348888 0)
(-0.00214677 -0.000346367 0)
(-0.00189827 -0.000341857 0)
(-0.00165373 -0.000334957 0)
(-0.00141529 -0.000325066 0)
(-0.0011849 -0.000311674 0)
(-0.000965671 -0.000293953 0)
(-0.000760149 -0.000271411 0)
(-0.000572564 -0.000243037 0)
(-0.000405741 -0.000208798 0)
(-0.000264825 -0.000167839 0)
(-0.000151687 -0.000122056 0)
(-7.10653e-05 -7.23273e-05 0)
(-2.07149e-05 -2.73307e-05 0)
(-1.28732e-06 4.72791e-06 0)
(-6.97142e-06 2.50593e-05 0)
(-4.97916e-05 0.000100301 0)
(-0.000134784 0.000175887 0)
(-0.000250374 0.000246783 0)
(-0.000397796 0.000306155 0)
(-0.000568306 0.000355113 0)
(-0.000760315 0.000393031 0)
(-0.000967495 0.000422119 0)
(-0.00118769 0.00044331 0)
(-0.00141665 0.000458484 0)
(-0.0016526 0.000468701 0)
(-0.00189288 0.000475285 0)
(-0.0021363 0.000479048 0)
(-0.00238132 0.000480825 0)
(-0.00262724 0.000481134 0)
(-0.00287324 0.000480451 0)
(-0.00311893 0.00047906 0)
(-0.00336387 0.000477199 0)
(-0.00360788 0.000474996 0)
(-0.00385072 0.00047255 0)
(-0.00409227 0.000469905 0)
(-0.00433239 0.000467089 0)
(-0.00457097 0.000464102 0)
(-0.00480791 0.000460943 0)
(-0.0050431 0.000457599 0)
(-0.00527643 0.000454054 0)
(-0.00550778 0.000450291 0)
(-0.00573704 0.000446295 0)
(-0.00596406 0.000442047 0)
(-0.00618872 0.000437532 0)
(-0.00641087 0.000432732 0)
(-0.00663036 0.000427632 0)
(-0.00684702 0.000422215 0)
(-0.0070607 0.000416468 0)
(-0.00727121 0.000410373 0)
(-0.00747839 0.000403917 0)
(-0.00768203 0.000397085 0)
(-0.00788194 0.000389862 0)
(-0.00807793 0.000382234 0)
(-0.00826979 0.000374187 0)
(-0.0084573 0.000365708 0)
(-0.00864024 0.000356783 0)
(-0.00881839 0.000347401 0)
(-0.00899152 0.000337549 0)
(-0.00915938 0.000327216 0)
(-0.00932174 0.000316393 0)
(-0.00947835 0.000305069 0)
(-0.00962897 0.000293236 0)
(-0.00977333 0.000280888 0)
(-0.00991119 0.000268018 0)
(-0.0100423 0.000254622 0)
(-0.0101664 0.000240698 0)
(-0.0102832 0.000226244 0)
(-0.0103924 0.000211261 0)
(-0.0104939 0.000195751 0)
(-0.0105873 0.000179719 0)
(-0.0106724 0.000163171 0)
(-0.010749 0.000146118 0)
(-0.0108167 0.000128569 0)
(-0.0108755 0.000110538 0)
(-0.010925 9.20422e-05 0)
(-0.010965 7.30997e-05 0)
(-0.0109953 5.37316e-05 0)
(-0.0110158 3.39619e-05 0)
(-0.0110262 1.3817e-05 0)
(-0.0110264 -6.67429e-06 0)
(-0.0110161 -2.74804e-05 0)
(-0.0109954 -4.85674e-05 0)
(-0.010964 -6.9899e-05 0)
(-0.0109218 -9.14368e-05 0)
(-0.0108688 -0.00011314 0)
(-0.0108049 -0.000134967 0)
(-0.0107301 -0.000156872 0)
(-0.0106443 -0.00017881 0)
(-0.0105475 -0.000200734 0)
(-0.0104397 -0.000222596 0)
(-0.0103211 -0.000244348 0)
(-0.0101916 -0.00026594 0)
(-0.0100514 -0.000287322 0)
(-0.00990052 -0.000308446 0)
(-0.00973918 -0.000329262 0)
(-0.00956753 -0.000349724 0)
(-0.00938574 -0.000369785 0)
(-0.00919402 -0.000389399 0)
(-0.00899259 -0.000408524 0)
(-0.00878172 -0.000427117 0)
(-0.00856165 -0.000445141 0)
(-0.00833269 -0.000462559 0)
(-0.00809512 -0.000479338 0)
(-0.00784928 -0.000495447 0)
(-0.00759548 -0.00051086 0)
(-0.00733408 -0.00052555 0)
(-0.00706543 -0.000539496 0)
(-0.00678989 -0.000552675 0)
(-0.00650786 -0.000565069 0)
(-0.00621972 -0.000576653 0)
(-0.00592588 -0.000587403 0)
(-0.00562676 -0.000597282 0)
(-0.00532281 -0.000606245 0)
(-0.00501451 -0.000614223 0)
(-0.00470237 -0.000621125 0)
(-0.004387 -0.000626815 0)
(-0.00406903 -0.000631116 0)
(-0.00374928 -0.000633775 0)
(-0.00342862 -0.00063448 0)
(-0.00310821 -0.000632793 0)
(-0.0027893 -0.000628213 0)
(-0.00247364 -0.00062005 0)
(-0.00216299 -0.00060758 0)
(-0.00185994 -0.000589806 0)
(-0.00156692 -0.000565822 0)
(-0.00128764 -0.000534334 0)
(-0.00102508 -0.000494477 0)
(-0.000784288 -0.000444834 0)
(-0.000568279 -0.000385292 0)
(-0.000383236 -0.000314992 0)
(-0.000230718 -0.000236615 0)
(-0.000117337 -0.00015206 0)
(-4.0088e-05 -7.24213e-05 0)
(-4.84294e-06 -8.30868e-06 0)
(-9.53777e-06 5.30398e-05 0)
(-6.52732e-05 0.00017445 0)
(-0.000172821 0.000289946 0)
(-0.00031532 0.000395185 0)
(-0.000494212 0.0004837 0)
(-0.000698618 0.00055679 0)
(-0.00092721 0.00061417 0)
(-0.00117272 0.000658542 0)
(-0.00143304 0.000691382 0)
(-0.00170338 0.000715168 0)
(-0.00198186 0.000731505 0)
(-0.00226547 0.000742235 0)
(-0.00255288 0.0007486 0)
(-0.00284231 0.000751809 0)
(-0.00313293 0.000752673 0)
(-0.00342375 0.000751901 0)
(-0.00371431 0.000749949 0)
(-0.00400406 0.000747182 0)
(-0.00429274 0.000743818 0)
(-0.00458005 0.000740016 0)
(-0.00486583 0.000735855 0)
(-0.00514989 0.000731386 0)
(-0.00543209 0.000726621 0)
(-0.00571228 0.00072156 0)
(-0.00599034 0.000716188 0)
(-0.00626611 0.000710488 0)
(-0.00653946 0.000704436 0)
(-0.00681024 0.000698008 0)
(-0.00707827 0.000691178 0)
(-0.00734341 0.000683924 0)
(-0.00760546 0.00067622 0)
(-0.00786426 0.000668044 0)
(-0.00811961 0.000659371 0)
(-0.00837132 0.000650178 0)
(-0.00861917 0.000640443 0)
(-0.00886295 0.000630143 0)
(-0.00910245 0.000619256 0)
(-0.00933744 0.000607761 0)
(-0.00956767 0.000595637 0)
(-0.0097929 0.000582861 0)
(-0.0100129 0.000569416 0)
(-0.0102274 0.00055528 0)
(-0.0104361 0.000540436 0)
(-0.0106388 0.000524866 0)
(-0.0108352 0.000508554 0)
(-0.0110249 0.000491485 0)
(-0.0112079 0.000473645 0)
(-0.0113836 0.000455023 0)
(-0.0115519 0.000435607 0)
(-0.0117124 0.000415391 0)
(-0.0118649 0.000394368 0)
(-0.0120091 0.000372535 0)
(-0.0121446 0.000349891 0)
(-0.0122712 0.000326437 0)
(-0.0123886 0.000302178 0)
(-0.0124964 0.000277123 0)
(-0.0125944 0.000251282 0)
(-0.0126824 0.00022467 0)
(-0.0127599 0.000197304 0)
(-0.0128269 0.000169207 0)
(-0.012883 0.000140403 0)
(-0.0129279 0.000110922 0)
(-0.0129615 8.07976e-05 0)
(-0.0129835 5.00658e-05 0)
(-0.0129936 1.87678e-05 0)
(-0.0129918 -1.30516e-05 0)
(-0.0129779 -4.53442e-05 0)
(-0.0129516 -7.80577e-05 0)
(-0.0129129 -0.000111136 0)
(-0.0128617 -0.000144522 0)
(-0.0127977 -0.000178151 0)
(-0.0127211 -0.00021196 0)
(-0.0126317 -0.000245881 0)
(-0.0125295 -0.000279845 0)
(-0.0124146 -0.000313779 0)
(-0.0122869 -0.000347611 0)
(-0.0121466 -0.000381267 0)
(-0.0119936 -0.000414673 0)
(-0.0118282 -0.000447752 0)
(-0.0116504 -0.000480432 0)
(-0.0114604 -0.000512638 0)
(-0.0112585 -0.000544298 0)
(-0.0110447 -0.000575342 0)
(-0.0108195 -0.000605701 0)
(-0.010583 -0.00063531 0)
(-0.0103355 -0.000664107 0)
(-0.0100773 -0.000692032 0)
(-0.00980885 -0.000719031 0)
(-0.00953037 -0.000745054 0)
(-0.00924227 -0.000770053 0)
(-0.00894494 -0.000793986 0)
(-0.00863876 -0.000816814 0)
(-0.00832415 -0.000838503 0)
(-0.00800153 -0.000859017 0)
(-0.00767135 -0.000878325 0)
(-0.00733406 -0.000896387 0)
(-0.00699012 -0.000913162 0)
(-0.00664004 -0.000928589 0)
(-0.00628433 -0.000942594 0)
(-0.00592355 -0.000955066 0)
(-0.00555831 -0.000965855 0)
(-0.00518932 -0.000974748 0)
(-0.00481731 -0.000981464 0)
(-0.00444325 -0.000985611 0)
(-0.00406815 -0.000986701 0)
(-0.00369337 -0.000984073 0)
(-0.00332033 -0.00097695 0)
(-0.00295105 -0.000964312 0)
(-0.00258752 -0.000945054 0)
(-0.0022327 -0.000917743 0)
(-0.00188923 -0.000881012 0)
(-0.0015613 -0.000833083 0)
(-0.0012521 -0.000772661 0)
(-0.000967254 -0.000697967 0)
(-0.000709816 -0.000608732 0)
(-0.000486935 -0.000504191 0)
(-0.000299912 -0.000387528 0)
(-0.000157486 -0.000261603 0)
(-5.6324e-05 -0.000138681 0)
(-7.55072e-06 -3.07681e-05 0)
(-1.16573e-05 8.7859e-05 0)
(-7.84901e-05 0.000264744 0)
(-0.000205603 0.000426168 0)
(-0.000371576 0.000569462 0)
(-0.000577816 0.000689666 0)
(-0.000811392 0.00078871 0)
(-0.00107116 0.00086704 0)
(-0.00134898 0.000927926 0)
(-0.00164287 0.000973477 0)
(-0.00194759 0.00100676 0)
(-0.00226127 0.00102994 0)
(-0.00258062 0.00104539 0)
(-0.00290425 0.00105479 0)
(-0.00323021 0.00105972 0)
(-0.00355758 0.00106133 0)
(-0.00388525 0.00106055 0)
(-0.00421269 0.00105803 0)
(-0.00453926 0.00105428 0)
(-0.00486466 0.00104962 0)
(-0.00518853 0.00104428 0)
(-0.00551065 0.00103837 0)
(-0.00583079 0.00103199 0)
(-0.0061488 0.00102514 0)
(-0.00646448 0.00101785 0)
(-0.00677768 0.00101009 0)
(-0.00708823 0.00100185 0)
(-0.00739595 0.000993091 0)
(-0.00770066 0.000983793 0)
(-0.00800219 0.000973918 0)
(-0.00830034 0.000963436 0)
(-0.00859491 0.000952315 0)
(-0.00888569 0.000940521 0)
(-0.00917247 0.000928024 0)
(-0.00945503 0.000914793 0)
(-0.00973312 0.000900797 0)
(-0.0100065 0.000886005 0)
(-0.010275 0.000870388 0)
(-0.0105382 0.000853916 0)
(-0.010796 0.000836561 0)
(-0.011048 0.000818295 0)
(-0.011294 0.000799091 0)
(-0.0115337 0.000778922 0)
(-0.0117668 0.000757764 0)
(-0.011993 0.000735594 0)
(-0.012212 0.000712389 0)
(-0.0124235 0.000688131 0)
(-0.0126271 0.0006628 0)
(-0.0128226 0.000636383 0)
(-0.0130096 0.000608865 0)
(-0.0131879 0.000580237 0)
(-0.013357 0.000550492 0)
(-0.0135166 0.000519625 0)
(-0.0136665 0.000487637 0)
(-0.0138063 0.000454531 0)
(-0.0139357 0.000420315 0)
(-0.0140543 0.000385002 0)
(-0.0141619 0.000348606 0)
(-0.0142581 0.000311149 0)
(-0.0143427 0.000272658 0)
(-0.0144154 0.000233164 0)
(-0.0144758 0.000192701 0)
(-0.0145237 0.000151312 0)
(-0.0145589 0.000109044 0)
(-0.0145811 6.59474e-05 0)
(-0.0145902 2.20803e-05 0)
(-0.0145858 -2.24951e-05 0)
(-0.0145679 -6.77111e-05 0)
(-0.0145362 -0.000113496 0)
(-0.0144906 -0.000159771 0)
(-0.0144311 -0.000206456 0)
(-0.0143574 -0.000253464 0)
(-0.0142696 -0.000300707 0)
(-0.0141676 -0.00034809 0)
(-0.0140514 -0.000395518 0)
(-0.013921 -0.000442893 0)
(-0.0137765 -0.000490113 0)
(-0.0136179 -0.000537078 0)
(-0.0134453 -0.000583685 0)
(-0.0132589 -0.000629831 0)
(-0.0130587 -0.000675414 0)
(-0.0128451 -0.000720333 0)
(-0.0126182 -0.00076449 0)
(-0.0123783 -0.000807787 0)
(-0.0121257 -0.000850132 0)
(-0.0118605 -0.000891434 0)
(-0.0115832 -0.000931609 0)
(-0.0112942 -0.000970576 0)
(-0.0109936 -0.00100826 0)
(-0.0106821 -0.00104459 0)
(-0.0103599 -0.0010795 0)
(-0.0100275 -0.00111294 0)
(-0.00968532 -0.00114485 0)
(-0.00933382 -0.00117518 0)
(-0.00897347 -0.00120388 0)
(-0.00860477 -0.00123091 0)
(-0.0082282 -0.0012562 0)
(-0.0078443 -0.0012797 0)
(-0.00745361 -0.00130132 0)
(-0.00705671 -0.00132095 0)
(-0.00665423 -0.00133843 0)
(-0.00624684 -0.00135354 0)
(-0.00583533 -0.00136599 0)
(-0.00542054 -0.00137538 0)
(-0.00500351 -0.00138115 0)
(-0.00458537 -0.00138264 0)
(-0.00416763 -0.00137894 0)
(-0.00375183 -0.00136899 0)
(-0.00334017 -0.0013514 0)
(-0.00293479 -0.00132469 0)
(-0.00253889 -0.00128697 0)
(-0.00215524 -0.0012364 0)
(-0.00178836 -0.00117074 0)
(-0.00144149 -0.00108822 0)
(-0.00112074 -0.000986742 0)
(-0.000829086 -0.000865778 0)
(-0.000574583 -0.000724601 0)
(-0.000358367 -0.000566491 0)
(-0.000191227 -0.000394875 0)
(-6.97975e-05 -0.00022203 0)
(-9.70034e-06 -6.04775e-05 0)
(-1.31927e-05 0.000128839 0)
(-8.89128e-05 0.000369852 0)
(-0.000232286 0.000583205 0)
(-0.000418149 0.000768615 0)
(-0.000647756 0.00092335 0)
(-0.00090627 0.00105036 0)
(-0.00119259 0.00115116 0)
(-0.00149774 0.00122974 0)
(-0.00181983 0.00128894 0)
(-0.00215323 0.00133247 0)
(-0.00249612 0.0013631 0)
(-0.00284499 0.00138371 0)
(-0.00319846 0.00139647 0)
(-0.00355442 0.00140336 0)
(-0.00391193 0.00140582 0)
(-0.00426979 0.00140508 0)
(-0.00462741 0.00140197 0)
(-0.00498412 0.00139715 0)
(-0.00533954 0.00139106 0)
(-0.00569328 0.00138398 0)
(-0.0060451 0.0013761 0)
(-0.00639473 0.00136753 0)
(-0.00674196 0.0013583 0)
(-0.0070866 0.00134845 0)
(-0.00742845 0.00133795 0)
(-0.00776732 0.00132679 0)
(-0.00810301 0.00131492 0)
(-0.00843533 0.00130232 0)
(-0.00876407 0.00128895 0)
(-0.00908901 0.00127476 0)
(-0.00940993 0.00125971 0)
(-0.00972661 0.00124377 0)
(-0.0100388 0.0012269 0)
(-0.0103463 0.00120904 0)
(-0.0106488 0.00119018 0)
(-0.010946 0.00117026 0)
(-0.0112377 0.00114925 0)
(-0.0115236 0.00112711 0)
(-0.0118035 0.00110381 0)
(-0.0120769 0.0010793 0)
(-0.0123437 0.00105357 0)
(-0.0126034 0.00102656 0)
(-0.0128559 0.000998256 0)
(-0.0131007 0.000968624 0)
(-0.0133376 0.000937636 0)
(-0.0135661 0.000905268 0)
(-0.0137861 0.000871497 0)
(-0.013997 0.000836306 0)
(-0.0141986 0.000799677 0)
(-0.0143906 0.0007616 0)
(-0.0145725 0.000722066 0)
(-0.0147441 0.000681072 0)
(-0.014905 0.000638619 0)
(-0.0150548 0.000594713 0)
(-0.0151932 0.000549365 0)
(-0.0153198 0.000502593 0)
(-0.0154344 0.000454418 0)
(-0.0155366 0.00040487 0)
(-0.0156261 0.000353984 0)
(-0.0157026 0.000301801 0)
(-0.0157657 0.00024837 0)
(-0.0158153 0.000193746 0)
(-0.0158511 0.00013799 0)
(-0.0158727 8.11711e-05 0)
(-0.01588 2.33646e-05 0)
(-0.0158728 -3.53473e-05 0)
(-0.0158508 -9.48761e-05 0)
(-0.015814 -0.000155127 0)
(-0.0157621 -0.000215998 0)
(-0.0156951 -0.000277384 0)
(-0.0156129 -0.000339171 0)
(-0.0155153 -0.000401244 0)
(-0.0154024 -0.000463481 0)
(-0.0152742 -0.000525757 0)
(-0.0151306 -0.000587944 0)
(-0.0149718 -0.000649913 0)
(-0.0147979 -0.00071153 0)
(-0.0146088 -0.000772664 0)
(-0.0144049 -0.000833182 0)
(-0.0141862 -0.000892951 0)
(-0.0139531 -0.000951841 0)
(-0.0137056 -0.00100972 0)
(-0.0134442 -0.00106648 0)
(-0.013169 -0.00112198 0)
(-0.0128805 -0.00117611 0)
(-0.0125789 -0.00122877 0)
(-0.0122647 -0.00127984 0)
(-0.0119382 -0.00132924 0)
(-0.0115999 -0.00137687 0)
(-0.0112502 -0.00142265 0)
(-0.0108895 -0.0014665 0)
(-0.0105184 -0.00150835 0)
(-0.0101373 -0.00154814 0)
(-0.00974669 -0.0015858 0)
(-0.00934718 -0.00162127 0)
(-0.00893927 -0.00165447 0)
(-0.00852353 -0.00168532 0)
(-0.00810055 -0.0017137 0)
(-0.00767095 -0.00173946 0)
(-0.00723542 -0.00176239 0)
(-0.00679468 -0.0017822 0)
(-0.00634957 -0.00179849 0)
(-0.00590099 -0.00181075 0)
(-0.00545009 -0.00181826 0)
(-0.00499804 -0.00182014 0)
(-0.00454645 -0.00181524 0)
(-0.00409695 -0.00180217 0)
(-0.00365187 -0.00177922 0)
(-0.00321341 -0.00174444 0)
(-0.00278496 -0.00169553 0)
(-0.00236933 -0.00163013 0)
(-0.00197128 -0.00154552 0)
(-0.00159406 -0.00143945 0)
(-0.00124419 -0.00130945 0)
(-0.000924631 -0.00115463 0)
(-0.000644257 -0.000974192 0)
(-0.00040421 -0.000771184 0)
(-0.00021712 -0.00054928 0)
(-7.9725e-05 -0.000320106 0)
(-1.11192e-05 -9.61536e-05 0)
(-1.4432e-05 0.000174131 0)
(-9.74136e-05 0.000486125 0)
(-0.000254184 0.000756228 0)
(-0.000456661 0.00098694 0)
(-0.0007059 0.00117825 0)
(-0.00098542 0.00133451 0)
(-0.00129407 0.00145864 0)
(-0.00162213 0.00155548 0)
(-0.00196774 0.00162877 0)
(-0.00232494 0.00168287 0)
(-0.00269195 0.00172121 0)
(-0.00306511 0.00174719 0)
(-0.00344304 0.00176347 0)
(-0.00382353 0.00177241 0)
(-0.00420566 0.0017758 0)
(-0.00458813 0.0017751 0)
(-0.00497034 0.00177136 0)
(-0.00535157 0.0017654 0)
(-0.00573142 0.00175775 0)
(-0.00610946 0.0017488 0)
(-0.00648541 0.00173877 0)
(-0.00685898 0.0017278 0)
(-0.00722996 0.00171597 0)
(-0.00759809 0.0017033 0)
(-0.00796318 0.00168979 0)
(-0.00832501 0.0016754 0)
(-0.00868336 0.0016601 0)
(-0.00903802 0.00164386 0)
(-0.00938876 0.00162662 0)
(-0.00973535 0.00160835 0)
(-0.0100775 0.00158898 0)
(-0.0104151 0.00156847 0)
(-0.0107478 0.00154678 0)
(-0.0110753 0.00152385 0)
(-0.0113974 0.00149964 0)
(-0.0117137 0.0014741 0)
(-0.0120241 0.00144719 0)
(-0.0123281 0.00141885 0)
(-0.0126256 0.00138905 0)
(-0.0129161 0.00135774 0)
(-0.0131994 0.00132488 0)
(-0.0134751 0.00129043 0)
(-0.0137429 0.00125435 0)
(-0.0140025 0.00121661 0)
(-0.0142535 0.00117717 0)
(-0.0144955 0.00113601 0)
(-0.0147282 0.00109309 0)
(-0.0149512 0.0010484 0)
(-0.0151643 0.00100192 0)
(-0.0153669 0.000953638 0)
(-0.0155587 0.000903538 0)
(-0.0157395 0.000851623 0)
(-0.0159087 0.000797894 0)
(-0.0160661 0.00074236 0)
(-0.0162113 0.000685037 0)
(-0.0163439 0.000625948 0)
(-0.0164636 0.000565123 0)
(-0.0165701 0.000502598 0)
(-0.016663 0.00043842 0)
(-0.016742 0.000372641 0)
(-0.0168068 0.000305324 0)
(-0.0168572 0.000236537 0)
(-0.0168927 0.000166358 0)
(-0.0169133 9.4876e-05 0)
(-0.0169186 2.21841e-05 0)
(-0.0169085 -5.1614e-05 0)
(-0.0168827 -0.000126407 0)
(-0.0168411 -0.000202076 0)
(-0.0167836 -0.000278494 0)
(-0.0167099 -0.000355528 0)
(-0.0166202 -0.000433039 0)
(-0.0165141 -0.00051088 0)
(-0.0163919 -0.0005889 0)
(-0.0162534 -0.000666945 0)
(-0.0160987 -0.000744855 0)
(-0.0159279 -0.000822469 0)
(-0.015741 -0.000899622 0)
(-0.0155382 -0.00097615 0)
(-0.0153197 -0.00105189 0)
(-0.0150856 -0.00112668 0)
(-0.0148363 -0.00120035 0)
(-0.0145718 -0.00127275 0)
(-0.0142927 -0.00134372 0)
(-0.013999 -0.00141312 0)
(-0.0136913 -0.0014808 0)
(-0.0133699 -0.00154663 0)
(-0.0130352 -0.00161048 0)
(-0.0126876 -0.00167223 0)
(-0.0123275 -0.00173176 0)
(-0.0119555 -0.00178898 0)
(-0.011572 -0.00184379 0)
(-0.0111776 -0.00189611 0)
(-0.0107727 -0.00194584 0)
(-0.0103578 -0.00199292 0)
(-0.00993367 -0.00203726 0)
(-0.00950073 -0.00207876 0)
(-0.00905961 -0.00211731 0)
(-0.00861095 -0.00215276 0)
(-0.00815539 -0.00218493 0)
(-0.00769368 -0.00221355 0)
(-0.00722656 -0.00223824 0)
(-0.00675494 -0.00225853 0)
(-0.00627975 -0.00227374 0)
(-0.00580219 -0.00228303 0)
(-0.00532349 -0.00228527 0)
(-0.00484533 -0.00227908 0)
(-0.00436937 -0.00226274 0)
(-0.00389804 -0.00223418 0)
(-0.00343358 -0.00219106 0)
(-0.00297947 -0.00213057 0)
(-0.00253857 -0.00204989 0)
(-0.00211581 -0.00194579 0)
(-0.00171444 -0.00181551 0)
(-0.00134134 -0.00165614 0)
(-0.000999463 -0.00146631 0)
(-0.000698429 -0.001245 0)
(-0.000439475 -0.000994729 0)
(-0.000236735 -0.000719094 0)
(-8.71037e-05 -0.000428681 0)
(-1.21253e-05 -0.000135724 0)
(-1.53377e-05 0.000223259 0)
(-0.00010401 0.000612166 0)
(-0.000271558 0.000943383 0)
(-0.000487637 0.00122251 0)
(-0.000753121 0.0014525 0)
(-0.00105014 0.00163942 0)
(-0.00137745 0.00178781 0)
(-0.00172462 0.00190352 0)
(-0.00208979 0.00199132 0)
(-0.00246672 0.00205627 0)
(-0.00285364 0.00210251 0)
(-0.00324675 0.00213401 0)
(-0.00364471 0.00215389 0)
(-0.00404523 0.00216494 0)
(-0.00444739 0.00216925 0)
(-0.00484986 0.00216857 0)
(-0.00525203 0.00216416 0)
(-0.00565313 0.00215697 0)
(-0.00605277 0.00214765 0)
(-0.00645048 0.00213667 0)
(-0.00684596 0.00212432 0)
(-0.0072389 0.00211077 0)
(-0.00762906 0.00209612 0)
(-0.00801618 0.0020804 0)
(-0.00840004 0.0020636 0)
(-0.00878041 0.00204572 0)
(-0.00915705 0.0020267 0)
(-0.00952973 0.0020065 0)
(-0.00989821 0.00198508 0)
(-0.0102622 0.00196236 0)
(-0.0106216 0.00193831 0)
(-0.0109759 0.00191286 0)
(-0.0113251 0.00188595 0)
(-0.0116687 0.00185753 0)
(-0.0120065 0.00182754 0)
(-0.0123382 0.00179593 0)
(-0.0126635 0.00176264 0)
(-0.0129821 0.00172763 0)
(-0.0132936 0.00169082 0)
(-0.0135978 0.00165219 0)
(-0.0138943 0.00161166 0)
(-0.0141827 0.00156921 0)
(-0.0144628 0.00152479 0)
(-0.014734 0.00147834 0)
(-0.0149962 0.00142984 0)
(-0.0152489 0.00137926 0)
(-0.0154917 0.00132655 0)
(-0.0157243 0.0012717 0)
(-0.0159463 0.00121469 0)
(-0.0161573 0.0011555 0)
(-0.0163569 0.00109412 0)
(-0.0165448 0.00103055 0)
(-0.0167206 0.000964792 0)
(-0.0168839 0.000896866 0)
(-0.0170342 0.000826789 0)
(-0.0171714 0.00075459 0)
(-0.017295 0.000680306 0)
(-0.0174046 0.000603984 0)
(-0.0174999 0.000525681 0)
(-0.0175807 0.000445461 0)
(-0.0176465 0.000363402 0)
(-0.0176971 0.000279589 0)
(-0.0177322 0.000194116 0)
(-0.0177516 0.000107092 0)
(-0.017755 1.863e-05 0)
(-0.0177421 -7.11425e-05 0)
(-0.0177129 -0.000162091 0)
(-0.0176671 -0.00025407 0)
(-0.0176045 -0.000346927 0)
(-0.0175252 -0.0004405 0)
(-0.0174289 -0.000534619 0)
(-0.0173157 -0.000629109 0)
(-0.0171855 -0.000723787 0)
(-0.0170383 -0.000818466 0)
(-0.0168742 -0.000912953 0)
(-0.0166933 -0.00100705 0)
(-0.0164956 -0.00110057 0)
(-0.0162813 -0.00119331 0)
(-0.0160506 -0.00128506 0)
(-0.0158038 -0.00137564 0)
(-0.0155409 -0.00146485 0)
(-0.0152624 -0.0015525 0)
(-0.0149686 -0.00163841 0)
(-0.0146597 -0.00172239 0)
(-0.0143362 -0.00180428 0)