/*--------------------------------*- C++ -*----------------------------------*\
| =========                 |                                                 |
| \\      /  F ield         | OpenFOAM: The Open Source CFD Toolbox           |
|  \\    /   O peration     | Version:  2406                                  |
|   \\  /    A nd           | Website:  www.openfoam.com                      |
|    \\/     M anipulation  |                                                 |
\*---------------------------------------------------------------------------*/
FoamFile
{
    version     2.0;
    format      ascii;
    arch        "LSB;label=32;scalar=64";
    class       volVectorField;
    location    "49.9";
    object      U_0;
}
// * * * * * * * * * * * * * * * * * * * * * * * * * * * * * * * * * * * * * //

dimensions      [0 1 -1 0 0 0 0];

internalField   nonuniform List<vector> 
14400
(
(-7.4099e-06 7.29957e-06 0)
(1.26554e-05 -1.08604e-05 0)
(0.000119483 -3.46068e-05 0)
(0.000309225 -5.40455e-05 0)
(0.000562241 -6.75565e-05 0)
(0.000855709 -7.48562e-05 0)
(0.00116662 -7.6505e-05 0)
(0.00147449 -7.34087e-05 0)
(0.00176265 -6.67036e-05 0)
(0.00201896 -5.76163e-05 0)
(0.00223599 -4.73545e-05 0)
(0.00241083 -3.70033e-05 0)
(0.00254446 -2.74459e-05 0)
(0.00264092 -1.93154e-05 0)
(0.0027063 -1.2973e-05 0)
(0.00274767 -8.51163e-06 0)
(0.00277224 -5.84313e-06 0)
(0.00278625 -4.77135e-06 0)
(0.0027944 -4.82842e-06 0)
(0.00279961 -5.46242e-06 0)
(0.00280258 -6.10845e-06 0)
(0.00280208 -6.06671e-06 0)
(0.00279523 -4.93629e-06 0)
(0.00277756 -2.58841e-06 0)
(0.0027435 1.11088e-06 0)
(0.00268693 6.24706e-06 0)
(0.00260151 1.2843e-05 0)
(0.00248079 2.08948e-05 0)
(0.00231833 3.04007e-05 0)
(0.00210764 4.13775e-05 0)
(0.00184217 5.38646e-05 0)
(0.00151522 6.79164e-05 0)
(0.00111994 8.35888e-05 0)
(0.000649369 0.000100923 0)
(9.65789e-05 0.000119929 0)
(-0.000545189 0.000140579 0)
(-0.0012823 0.000162794 0)
(-0.00212051 0.000186442 0)
(-0.00306467 0.000211335 0)
(-0.00411851 0.000237223 0)
(-0.00528438 0.000263803 0)
(-0.00656293 0.000290712 0)
(-0.00795297 0.000317536 0)
(-0.0094512 0.000343815 0)
(-0.0110521 0.000369046 0)
(-0.0127476 0.000392694 0)
(-0.0145274 0.000414203 0)
(-0.0163787 0.000433002 0)
(-0.0182862 0.000448512 0)
(-0.0202321 0.000460161 0)
(-0.0221968 0.000467386 0)
(-0.0241584 0.000469646 0)
(-0.0260933 0.000466424 0)
(-0.0279763 0.000457241 0)
(-0.0297811 0.000441659 0)
(-0.0314806 0.000419295 0)
(-0.0330468 0.000389824 0)
(-0.034452 0.00035301 0)
(-0.0356684 0.000308695 0)
(-0.0366692 0.000256716 0)
(-0.0374296 0.000197533 0)
(-0.0379259 0.000133383 0)
(-0.0381332 6.41197e-05 0)
(-0.0380324 -1.40084e-05 0)
(-0.0376125 -9.79328e-05 0)
(-0.0368608 -0.000185242 0)
(-0.0357708 -0.000274729 0)
(-0.0343417 -0.000364885 0)
(-0.0325789 -0.000453923 0)
(-0.0304943 -0.000539864 0)
(-0.0281065 -0.00062058 0)
(-0.0254415 -0.000693872 0)
(-0.022532 -0.000757557 0)
(-0.0194175 -0.000809566 0)
(-0.0161437 -0.000848051 0)
(-0.0127615 -0.000871493 0)
(-0.0093259 -0.000878807 0)
(-0.0058945 -0.000869427 0)
(-0.0025259 -0.000843375 0)
(0.000722165 -0.000801296 0)
(0.00379474 -0.000744454 0)
(0.00664154 -0.000674692 0)
(0.00921867 -0.00059435 0)
(0.0114902 -0.000506141 0)
(0.0134292 -0.00041301 0)
(0.0150187 -0.000317966 0)
(0.0162518 -0.000223918 0)
(0.0171317 -0.000133502 0)
(0.0176707 -4.87687e-05 0)
(0.0178918 2.77491e-05 0)
(0.0178198 9.19775e-05 0)
(0.0174863 0.000146412 0)
(0.0169313 0.000192309 0)
(0.016194 0.000228315 0)
(0.0153127 0.000254154 0)
(0.0143252 0.000270665 0)
(0.0132672 0.000278914 0)
(0.0121708 0.000280049 0)
(0.0110645 0.00027527 0)
(0.00997217 0.000265767 0)
(0.00891316 0.000252674 0)
(0.00790249 0.000237032 0)
(0.00695101 0.000219766 0)
(0.00606584 0.000201672 0)
(0.00525084 0.000183417 0)
(0.00450715 0.000165541 0)
(0.00383363 0.000148469 0)
(0.00322738 0.00013252 0)
(0.00268421 0.000117912 0)
(0.00219907 0.000104754 0)
(0.00176655 9.30311e-05 0)
(0.00138154 8.25699e-05 0)
(0.00103987 7.30011e-05 0)
(0.000739199 6.37265e-05 0)
(0.000479822 5.39129e-05 0)
(0.000265371 4.25875e-05 0)
(0.000102867 2.89055e-05 0)
(1.22263e-06 1.26393e-05 0)
(-3.52449e-05 -4.07998e-06 0)
(-1.35143e-05 -1.35321e-05 0)
(9.66619e-06 -1.17519e-05 0)
(0.000149827 -0.000154449 0)
(0.000474092 -0.000330667 0)
(0.000977069 -0.000479073 0)
(0.00161374 -0.000584171 0)
(0.00233751 -0.000642185 0)
(0.00309847 -0.00065566 0)
(0.00385078 -0.000630789 0)
(0.00455604 -0.000575938 0)
(0.00518531 -0.000500487 0)
(0.00571978 -0.000413872 0)
(0.00615056 -0.000324734 0)
(0.00647752 -0.000240256 0)
(0.00670751 -0.000165725 0)
(0.00685221 -0.000104324 0)
(0.00692581 -5.71406e-05 0)
(0.00694273 -2.34048e-05 0)
(0.00691571 -8.63749e-07 0)
(0.00685418 1.40603e-05 0)
(0.00676317 2.5611e-05 0)
(0.00664287 3.81853e-05 0)
(0.00648852 5.60174e-05 0)
(0.00629082 8.25546e-05 0)
(0.00603706 0.000120286 0)
(0.00571196 0.000170888 0)
(0.00529856 0.000235301 0)
(0.00477902 0.000313922 0)
(0.00413511 0.00040685 0)
(0.00334858 0.000514092 0)
(0.00240123 0.000635698 0)
(0.00127499 0.000771778 0)
(-4.79775e-05 0.00092245 0)
(-0.00158509 0.00108773 0)
(-0.00335301 0.00126739 0)
(-0.00536715 0.00146085 0)
(-0.00764109 0.00166711 0)
(-0.010186 0.00188463 0)
(-0.0130096 0.00211134 0)
(-0.0161162 0.00234462 0)
(-0.0195051 0.0025813 0)
(-0.0231708 0.00281768 0)
(-0.0271019 0.00304961 0)
(-0.0312814 0.00327255 0)
(-0.0356859 0.00348168 0)
(-0.040286 0.00367196 0)
(-0.0450463 0.00383832 0)
(-0.0499259 0.00397573 0)
(-0.0548786 0.00407935 0)
(-0.0598541 0.00414463 0)
(-0.0647984 0.00416742 0)
(-0.0696545 0.00414406 0)
(-0.0743639 0.00407147 0)
(-0.078867 0.00394715 0)
(-0.0831042 0.00376932 0)
(-0.0870169 0.00353688 0)
(-0.0905481 0.00324946 0)
(-0.0936433 0.00290744 0)
(-0.0962512 0.00251202 0)
(-0.0983246 0.00206522 0)
(-0.0998207 0.00156989 0)
(-0.100701 0.00103002 0)
(-0.100936 0.000451791 0)
(-0.100501 -0.000158587 0)
(-0.0993743 -0.000798541 0)
(-0.0975462 -0.00145874 0)
(-0.0950147 -0.00212996 0)
(-0.0917864 -0.00280215 0)
(-0.0878769 -0.00346451 0)
(-0.0833113 -0.00410548 0)
(-0.0781248 -0.00471287 0)
(-0.0723629 -0.00527417 0)
(-0.0660811 -0.00577688 0)
(-0.0593449 -0.00620882 0)
(-0.0522295 -0.00655865 0)
(-0.0448185 -0.00681627 0)
(-0.037203 -0.00697337 0)
(-0.0294805 -0.00702385 0)
(-0.0217524 -0.00696428 0)
(-0.0141226 -0.00679423 0)
(-0.00669487 -0.0065165 0)
(0.000429847 -0.00613723 0)
(0.00715571 -0.00566577 0)
(0.0133948 -0.00511448 0)
(0.0190695 -0.0044983 0)
(0.024115 -0.00383413 0)
(0.0284807 -0.00314019 0)
(0.0321323 -0.00243521 0)
(0.035052 -0.00173764 0)
(0.0372394 -0.0010649 0)
(0.0387096 -0.000432908 0)
(0.0394948 0.000143004 0)
(0.039644 0.000655705 0)
(0.0392144 0.00109918 0)
(0.0382726 0.00146792 0)
(0.0368933 0.00176017 0)
(0.0351549 0.00197768 0)
(0.0331363 0.0021247 0)
(0.0309139 0.0022074 0)
(0.0285597 0.00223337 0)
(0.0261389 0.00221105 0)
(0.0237089 0.00214921 0)
(0.0213181 0.00205655 0)
(0.0190054 0.00194127 0)
(0.016801 0.00181086 0)
(0.0147262 0.00167192 0)
(0.0127947 0.00153007 0)
(0.0110134 0.00138993 0)
(0.00938331 0.00125515 0)
(0.00790117 0.00112837 0)
(0.00656031 0.0010112 0)
(0.0053522 0.000904029 0)
(0.00426795 0.000805891 0)
(0.00330004 0.000714195 0)
(0.00244415 0.000624638 0)
(0.00170085 0.000531356 0)
(0.00107679 0.000427797 0)
(0.000584314 0.000308798 0)
(0.000237442 0.000175033 0)
(4.65185e-05 4.10578e-05 0)
(-2.97263e-06 -3.42692e-05 0)
(3.15814e-05 -0.00011241 0)
(0.00031551 -0.000474309 0)
(0.000844363 -0.000862992 0)
(0.00160722 -0.00118829 0)
(0.00253677 -0.00141912 0)
(0.00357372 -0.00154586 0)
(0.00465279 -0.0015724 0)
(0.00571319 -0.00151126 0)
(0.00670329 -0.00138033 0)
(0.00758339 -0.00120018 0)
(0.00832673 -0.000991833 0)
(0.00891936 -0.00077473 0)
(0.00935873 -0.00056523 0)
(0.00965148 -0.000375527 0)
(0.00981061 -0.000213121 0)
(0.00985246 -8.07399e-05 0)
(0.00979367 2.3319e-05 0)
(0.00964858 0.000104428 0)
(0.00942699 0.000170725 0)
(0.00913259 0.000231987 0)
(0.0087623 0.00029846 0)
(0.00830623 0.000379734 0)
(0.00774832 0.000484065 0)
(0.0070675 0.000617854 0)
(0.00623901 0.000785431 0)
(0.00523568 0.000989304 0)
(0.00402906 0.00123062 0)
(0.00259025 0.00150966 0)
(0.000890534 0.0018263 0)
(-0.00109827 0.00218023 0)
(-0.00340334 0.00257097 0)
(-0.00605042 0.00299773 0)
(-0.00906314 0.00345915 0)
(-0.0124622 0.00395299 0)
(-0.0162645 0.00447589 0)
(-0.0204817 0.00502321 0)
(-0.0251195 0.0055889 0)
(-0.0301766 0.00616547 0)
(-0.0356433 0.00674412 0)
(-0.0415012 0.00731481 0)
(-0.0477228 0.00786648 0)
(-0.054271 0.00838732 0)
(-0.0610993 0.00886509 0)
(-0.0681529 0.00928746 0)
(-0.0753688 0.00964239 0)
(-0.0826779 0.00991846 0)
(-0.0900054 0.0101053 0)
(-0.0972733 0.0101936 0)
(-0.104401 0.0101759 0)
(-0.111309 0.0100461 0)
(-0.117917 0.00979991 0)
(-0.124148 0.00943492 0)
(-0.129929 0.0089504 0)
(-0.135192 0.00834728 0)
(-0.139872 0.00762813 0)
(-0.143913 0.00679696 0)
(-0.147263 0.0058592 0)
(-0.149878 0.00482158 0)
(-0.15172 0.00369216 0)
(-0.152756 0.00248021 0)
(-0.152963 0.00119589 0)
(-0.152322 -0.000149681 0)
(-0.150824 -0.00154192 0)
(-0.148468 -0.00296581 0)
(-0.145254 -0.004407 0)
(-0.141195 -0.00584873 0)
(-0.136311 -0.00727247 0)
(-0.13063 -0.00865848 0)
(-0.124188 -0.00998603 0)
(-0.11703 -0.0112337 0)
(-0.109211 -0.0123795 0)
(-0.100793 -0.0134018 0)
(-0.091849 -0.0142794 0)
(-0.0824599 -0.0149926 0)
(-0.072715 -0.0155235 0)
(-0.0627113 -0.0158571 0)
(-0.0525523 -0.015982 0)
(-0.0423466 -0.0158911 0)
(-0.0322064 -0.0155822 0)
(-0.0222455 -0.0150584 0)
(-0.0125771 -0.0143285 0)
(-0.00331135 -0.0134069 0)
(0.00544691 -0.0123136 0)
(0.0136007 -0.0110735 0)
(0.0210634 -0.00971552 0)
(0.0277606 -0.00827214 0)
(0.0336325 -0.00677778 0)
(0.0386353 -0.00526782 0)
(0.0427423 -0.00377725 0)
(0.0459446 -0.00233912 0)
(0.0482531 -0.000982474 0)
(0.0496965 0.000266044 0)
(0.0503179 0.00138369 0)
(0.0501769 0.00235506 0)
(0.049348 0.00317068 0)
(0.0479155 0.00382653 0)
(0.045971 0.0043243 0)
(0.0436103 0.00467088 0)
(0.0409292 0.00487759 0)
(0.0380211 0.00495916 0)
(0.0349732 0.00493268 0)
(0.0318643 0.00481648 0)
(0.028763 0.00462913 0)
(0.0257266 0.00438861 0)
(0.0228008 0.00411158 0)
(0.0200197 0.00381295 0)
(0.017407 0.00350554 0)
(0.0149767 0.00319991 0)
(0.0127348 0.0029042 0)
(0.0106811 0.00262385 0)
(0.00881098 0.00236138 0)
(0.00711778 0.00211589 0)
(0.00559509 0.00188281 0)
(0.00423923 0.00165377 0)
(0.00305146 0.00141722 0)
(0.00203932 0.00116046 0)
(0.00121641 0.000873796 0)
(0.000596612 0.000558589 0)
(0.000201407 0.000240036 0)
(1.66763e-05 1.03438e-05 0)
(4.91886e-05 -0.000289903 0)
(0.00045576 -0.00096557 0)
(0.00115949 -0.00162379 0)
(0.0021365 -0.00216346 0)
(0.00329446 -0.0025416 0)
(0.00456284 -0.00274377 0)
(0.0058652 -0.00277602 0)
(0.00713104 -0.0026586 0)
(0.00830058 -0.00242097 0)
(0.0093276 -0.00209732 0)
(0.0101805 -0.00172273 0)
(0.0108419 -0.00132979 0)
(0.011307 -0.000946016 0)
(0.0115814 -0.000591962 0)
(0.011677 -0.00028029 0)
(0.0116096 -1.55573e-05 0)
(0.0113945 0.000205255 0)
(0.0110441 0.000391587 0)
(0.0105649 0.00055762 0)
(0.00995624 0.000720421 0)
(0.00920899 0.000897925 0)
(0.00830608 0.00110705 0)
(0.00722319 0.0013623 0)
(0.00593013 0.00167484 0)
(0.00439259 0.0020523 0)
(0.00257367 0.00249909 0)
(0.000435391 0.00301711 0)
(-0.00206015 0.00360653 0)
(-0.00494981 0.00426641 0)
(-0.00826853 0.00499502 0)
(-0.0120484 0.00578977 0)
(-0.0163175 0.00664693 0)
(-0.0210987 0.00756114 0)
(-0.0264082 0.00852497 0)
(-0.032254 0.00952857 0)
(-0.0386344 0.0105595 0)
(-0.0455366 0.0116027 0)
(-0.0529361 0.0126407 0)
(-0.0607958 0.0136539 0)
(-0.0690658 0.0146214 0)
(-0.0776846 0.015521 0)
(-0.0865793 0.0163305 0)
(-0.0956679 0.0170284 0)
(-0.104861 0.0175942 0)
(-0.114064 0.0180096 0)
(-0.123181 0.018259 0)
(-0.132115 0.0183296 0)
(-0.140771 0.0182122 0)
(-0.14906 0.0179006 0)
(-0.156896 0.0173922 0)
(-0.164202 0.0166876 0)
(-0.17091 0.0157899 0)
(-0.176956 0.0147051 0)
(-0.182287 0.0134409 0)
(-0.186859 0.0120071 0)
(-0.190631 0.010415 0)
(-0.193574 0.00867703 0)
(-0.195662 0.0068069 0)
(-0.196876 0.0048193 0)
(-0.197204 0.00273 0)
(-0.196637 0.000555819 0)
(-0.19517 -0.00168573 0)
(-0.192807 -0.00397626 0)
(-0.189553 -0.00629359 0)
(-0.18542 -0.00861562 0)
(-0.180423 -0.0109188 0)
(-0.174586 -0.0131779 0)
(-0.167934 -0.015366 0)
(-0.160504 -0.0174545 0)
(-0.152335 -0.0194141 0)
(-0.143477 -0.0212144 0)
(-0.133987 -0.022825 0)
(-0.123929 -0.0242161 0)
(-0.113377 -0.0253593 0)
(-0.102414 -0.0262286 0)
(-0.0911286 -0.0268017 0)
(-0.079619 -0.0270607 0)
(-0.0679891 -0.0269934 0)
(-0.0563478 -0.026594 0)
(-0.0448075 -0.0258644 0)
(-0.0334824 -0.0248139 0)
(-0.0224857 -0.02346 0)
(-0.0119279 -0.0218279 0)
(-0.0019143 -0.0199505 0)
(0.0074573 -0.0178666 0)
(0.0160986 -0.015621 0)
(0.0239329 -0.0132619 0)
(0.0308966 -0.0108403 0)
(0.0369407 -0.00840779 0)
(0.0420323 -0.00601509 0)
(0.0461553 -0.00371024 0)
(0.0493099 -0.00153843 0)
(0.051514 0.000461074 0)
(0.0528042 0.00225675 0)
(0.0532325 0.00382439 0)
(0.0528663 0.00514781 0)
(0.0517862 0.00621955 0)
(0.0500836 0.00704079 0)
(0.0478572 0.00762081 0)
(0.0452093 0.00797598 0)
(0.0422425 0.00812844 0)
(0.0390554 0.00810451 0)
(0.0357397 0.00793298 0)
(0.0323776 0.00764354 0)
(0.0290396 0.00726522 0)
(0.0257838 0.00682526 0)
(0.0226556 0.00634816 0)
(0.019688 0.00585494 0)
(0.0169031 0.00536255 0)
(0.0143137 0.00488332 0)
(0.0119252 0.00442433 0)
(0.00973851 0.00398669 0)
(0.00775251 0.00356515 0)
(0.00596706 0.00314805 0)
(0.00438565 0.00271846 0)
(0.00301735 0.00225736 0)
(0.00187752 0.00174963 0)
(0.000981787 0.00119473 0)
(0.000370691 0.000621904 0)
(3.81745e-05 0.00013526 0)
(6.24625e-05 -0.000527947 0)
(0.000565758 -0.00159218 0)
(0.00141101 -0.00255925 0)
(0.00255885 -0.00332992 0)
(0.0038914 -0.00385679 0)
(0.00532584 -0.00412466 0)
(0.00677555 -0.00414422 0)
(0.00816257 -0.0039453 0)
(0.00942179 -0.00357047 0)
(0.0105034 -0.00306891 0)
(0.0113733 -0.00249083 0)
(0.0120125 -0.00188276 0)
(0.012415 -0.00128378 0)
(0.0125848 -0.000722923 0)
(0.0125321 -0.000217749 0)
(0.0122698 0.000225945 0)
(0.0118096 0.000613346 0)
(0.0111588 0.000959014 0)
(0.0103178 0.00128443 0)
(0.00927812 0.00161518 0)
(0.00802229 0.00197794 0)
(0.00652382 0.00239777 0)
(0.00474866 0.00289593 0)
(0.00265692 0.00348861 0)
(0.000204948 0.00418663 0)
(-0.00265271 0.00499586 0)
(-0.0059615 0.00591817 0)
(-0.00976525 0.00695244 0)
(-0.0141047 0.00809526 0)
(-0.0190159 0.00934121 0)
(-0.0245288 0.0106826 0)
(-0.030665 0.0121092 0)
(-0.0374362 0.0136074 0)
(-0.044842 0.0151595 0)
(-0.0528684 0.0167443 0)
(-0.0614862 0.0183362 0)
(-0.0706506 0.0199064 0)
(-0.0803011 0.0214231 0)
(-0.0903624 0.022853 0)
(-0.100746 0.024162 0)
(-0.111353 0.0253171 0)
(-0.122077 0.026287 0)
(-0.132807 0.0270441 0)
(-0.143432 0.0275648 0)
(-0.153843 0.0278308 0)
(-0.163936 0.0278288 0)
(-0.173618 0.0275514 0)
(-0.182801 0.026996 0)
(-0.191409 0.0261649 0)
(-0.199379 0.0250646 0)
(-0.206655 0.0237048 0)
(-0.213193 0.0220981 0)
(-0.218955 0.020259 0)
(-0.223913 0.0182034 0)
(-0.228045 0.0159484 0)
(-0.231334 0.0135117 0)
(-0.233769 0.0109114 0)
(-0.235341 0.00816615 0)
(-0.236044 0.0052948 0)
(-0.235875 0.0023169 0)
(-0.234835 -0.000747121 0)
(-0.232922 -0.00387581 0)
(-0.230142 -0.00704737 0)
(-0.226499 -0.0102375 0)
(-0.222001 -0.0134201 0)
(-0.216659 -0.0165672 0)
(-0.210488 -0.0196487 0)
(-0.203506 -0.0226322 0)
(-0.195739 -0.0254835 0)
(-0.187215 -0.0281661 0)
(-0.177973 -0.0306424 0)
(-0.168057 -0.032874 0)
(-0.15752 -0.0348227 0)
(-0.146425 -0.0364512 0)
(-0.134845 -0.037725 0)
(-0.122858 -0.0386133 0)
(-0.110556 -0.0390905 0)
(-0.0980362 -0.0391376 0)
(-0.0854038 -0.0387439 0)
(-0.0727692 -0.0379073 0)
(-0.0602463 -0.036636 0)
(-0.0479503 -0.034948 0)
(-0.0359952 -0.0328718 0)
(-0.0244918 -0.0304452 0)
(-0.0135448 -0.0277149 0)
(-0.003251 -0.0247348 0)
(0.00630253 -0.0215645 0)
(0.01504 -0.0182676 0)
(0.0228982 -0.0149097 0)
(0.0298273 -0.0115566 0)
(0.0357915 -0.0082725 0)
(0.0407697 -0.00511827 0)
(0.0447561 -0.00214885 0)
(0.047761 0.000586621 0)
(0.0498105 0.00304698 0)
(0.0509465 0.00520055 0)
(0.0512264 0.00702589 0)
(0.0507223 0.00851244 0)
(0.0495186 0.00966064 0)
(0.0477096 0.0104815 0)
(0.0453965 0.0109958 0)
(0.042683 0.011232 0)
(0.0396722 0.011225 0)
(0.036462 0.0110133 0)
(0.0331426 0.0106371 0)
(0.0297933 0.0101361 0)
(0.0264813 0.00954794 0)
(0.0232611 0.00890603 0)
(0.0201742 0.00823884 0)
(0.0172507 0.00756839 0)
(0.0145108 0.00690912 0)
(0.0119672 0.00626688 0)
(0.00962828 0.00563811 0)
(0.0075006 0.00500991 0)
(0.00559261 0.00436148 0)
(0.00391719 0.00366793 0)
(0.00249397 0.00290737 0)
(0.00134357 0.00207251 0)
(0.000529657 0.00118609 0)
(5.8014e-05 0.000341942 0)
(7.2329e-05 -0.00081247 0)
(0.000650247 -0.00232718 0)
(0.00160638 -0.00363654 0)
(0.00288563 -0.00464864 0)
(0.00434549 -0.00531769 0)
(0.00588967 -0.00563254 0)
(0.00742132 -0.00561221 0)
(0.00885589 -0.00529899 0)
(0.0101246 -0.00475074 0)
(0.0111759 -0.00403311 0)
(0.0119753 -0.00321237 0)
(0.0125038 -0.00234924 0)
(0.0127551 -0.00149411 0)
(0.0127317 -0.000683766 0)
(0.0124414 6.04037e-05 0)
(0.0118929 0.000732668 0)
(0.011092 0.00134187 0)
(0.0100385 0.00190912 0)
(0.00872357 0.00246452 0)
(0.00712862 0.00304323 0)
(0.00522517 0.00368136 0)
(0.00297575 0.0044123 0)
(0.000335781 0.00526382 0)
(-0.00274408 0.00625645 0)
(-0.00631543 0.00740305 0)
(-0.0104297 0.00870944 0)
(-0.0151357 0.0101755 0)
(-0.0204778 0.0117964 0)
(-0.0264937 0.0135629 0)
(-0.0332118 0.0154622 0)
(-0.0406493 0.0174769 0)
(-0.0488094 0.0195848 0)
(-0.057679 0.021758 0)
(-0.0672276 0.0239636 0)
(-0.0774054 0.0261628 0)
(-0.0881439 0.028313 0)
(-0.0993568 0.0303682 0)
(-0.110942 0.0322814 0)
(-0.122787 0.0340062 0)
(-0.13477 0.035499 0)
(-0.146764 0.0367208 0)
(-0.158648 0.0376389 0)
(-0.170302 0.0382277 0)
(-0.181618 0.0384696 0)
(-0.192496 0.0383546 0)
(-0.202853 0.0378804 0)
(-0.212616 0.0370509 0)
(-0.221727 0.0358758 0)
(-0.23014 0.0343691 0)
(-0.237818 0.0325481 0)
(-0.244736 0.0304323 0)
(-0.250875 0.0280425 0)
(-0.256222 0.0254002 0)
(-0.260767 0.0225268 0)
(-0.264506 0.0194437 0)
(-0.267435 0.0161719 0)
(-0.269551 0.0127316 0)
(-0.270853 0.00914329 0)
(-0.271339 0.00542691 0)
(-0.271007 0.00160292 0)
(-0.269855 -0.00230767 0)
(-0.267881 -0.00628288 0)
(-0.265084 -0.0102989 0)
(-0.261461 -0.0143304 0)
(-0.257012 -0.0183493 0)
(-0.25174 -0.0223251 0)
(-0.245648 -0.0262241 0)
(-0.238743 -0.0300097 0)
(-0.231038 -0.0336422 0)
(-0.22255 -0.037079 0)
(-0.213303 -0.0402752 0)
(-0.203328 -0.0431841 0)
(-0.192666 -0.0457584 0)
(-0.181367 -0.0479514 0)
(-0.169491 -0.0497185 0)
(-0.157109 -0.0510189 0)
(-0.144303 -0.0518175 0)
(-0.131166 -0.0520866 0)
(-0.1178 -0.0518079 0)
(-0.104313 -0.0509739 0)
(-0.0908224 -0.0495891 0)
(-0.0774461 -0.0476707 0)
(-0.0643046 -0.0452486 0)
(-0.0515155 -0.0423648 0)
(-0.0391918 -0.0390725 0)
(-0.027439 -0.0354341 0)
(-0.016353 -0.0315197 0)
(-0.00601854 -0.0274044 0)
(0.00349184 -0.0231662 0)
(0.0121183 -0.018884 0)
(0.0198141 -0.0146353 0)
(0.0265451 -0.0104946 0)
(0.0322903 -0.00653137 0)
(0.0370418 -0.00280934 0)
(0.0408051 0.000615514 0)
(0.0435995 0.00369626 0)
(0.0454586 0.00639633 0)
(0.0464303 0.00869066 0)
(0.0465772 0.0105666 0)
(0.0459747 0.0120245 0)
(0.0447099 0.0130771 0)
(0.0428785 0.0137488 0)
(0.0405813 0.0140742 0)
(0.0379207 0.0140955 0)
(0.0349965 0.0138599 0)
(0.0319021 0.0134173 0)
(0.028722 0.0128166 0)
(0.0255295 0.0121044 0)
(0.0223854 0.0113214 0)
(0.0193385 0.0105015 0)
(0.016426 0.00966867 0)
(0.0136755 0.00883622 0)
(0.0111077 0.0080049 0)
(0.0087393 0.00716292 0)
(0.00658666 0.00628725 0)
(0.00466942 0.00534766 0)
(0.0030144 0.00431388 0)
(0.00165017 0.00316694 0)
(0.000663994 0.00191361 0)
(7.46317e-05 0.000620932 0)
(8.00008e-05 -0.00113266 0)
(0.000716059 -0.00314626 0)
(0.00175721 -0.00482251 0)
(0.00313272 -0.00607853 0)
(0.00467672 -0.00687481 0)
(0.00627886 -0.00720909 0)
(0.00783202 -0.00711313 0)
(0.00924571 -0.00664531 0)
(0.0104487 -0.00588149 0)
(0.0113893 -0.00490554 0)
(0.0120342 -0.00380048 0)
(0.0123656 -0.00264107 0)
(0.0123775 -0.00148808 0)
(0.0120714 -0.00038454 0)
(0.0114517 0.000646182 0)
(0.0105215 0.00160046 0)
(0.00927879 0.00249277 0)
(0.00771323 0.00335256 0)
(0.00580449 0.00421987 0)
(0.00352156 0.00514017 0)
(0.00082343 0.00615907 0)
(-0.002339 0.00731758 0)
(-0.00602027 0.00864864 0)
(-0.0102773 0.0101751 0)
(-0.0151662 0.0119094 0)
(-0.0207394 0.0138544 0)
(-0.0270427 0.0160043 0)
(-0.0341125 0.0183464 0)
(-0.0419731 0.0208611 0)
(-0.0506336 0.023522 0)
(-0.0600853 0.0262961 0)
(-0.0702991 0.0291429 0)
(-0.0812243 0.0320148 0)
(-0.0927881 0.0348579 0)
(-0.104897 0.0376138 0)
(-0.117438 0.0402214 0)
(-0.130286 0.0426196 0)
(-0.143307 0.0447507 0)
(-0.156361 0.0465625 0)
(-0.169314 0.0480108 0)
(-0.182038 0.0490613 0)
(-0.194418 0.0496897 0)
(-0.206352 0.0498828 0)
(-0.217757 0.0496368 0)
(-0.228563 0.0489568 0)
(-0.238717 0.0478551 0)
(-0.248181 0.0463495 0)
(-0.256928 0.0444619 0)
(-0.264938 0.0422167 0)
(-0.272202 0.0396393 0)
(-0.278715 0.0367559 0)
(-0.284475 0.0335918 0)
(-0.289482 0.0301717 0)
(-0.293737 0.0265189 0)
(-0.297242 0.0226556 0)
(-0.299998 0.018603 0)
(-0.302004 0.0143809 0)
(-0.303259 0.0100089 0)
(-0.30376 0.00550631 0)
(-0.303502 0.000892547 0)
(-0.302479 -0.00381212 0)
(-0.300686 -0.00858625 0)
(-0.298113 -0.0134063 0)
(-0.294754 -0.0182465 0)
(-0.2906 -0.0230779 0)
(-0.285643 -0.0278684 0)
(-0.279879 -0.032582 0)
(-0.273302 -0.0371785 0)
(-0.265914 -0.0416138 0)
(-0.257717 -0.0458398 0)
(-0.248721 -0.0498045 0)
(-0.238943 -0.0534532 0)
(-0.228409 -0.0567294 0)
(-0.217153 -0.0595761 0)
(-0.205223 -0.0619373 0)
(-0.192675 -0.0637606 0)
(-0.179583 -0.0649991 0)
(-0.166029 -0.0656137 0)
(-0.152111 -0.065576 0)
(-0.137937 -0.0648698 0)
(-0.123625 -0.0634931 0)
(-0.109299 -0.0614597 0)
(-0.095088 -0.0587987 0)
(-0.0811213 -0.055555 0)
(-0.0675243 -0.0517874 0)
(-0.0544158 -0.0475672 0)
(-0.0419047 -0.042975 0)
(-0.0300875 -0.0380982 0)
(-0.019047 -0.033028 0)
(-0.00885176 -0.0278565 0)
(0.000444033 -0.0226743 0)
(0.00879955 -0.0175683 0)
(0.0161865 -0.0126206 0)
(0.0225882 -0.00790657 0)
(0.0279989 -0.00349444 0)
(0.0324241 0.000556281 0)
(0.0358802 0.00419578 0)
(0.0383957 0.00738532 0)
(0.0400121 0.0100985 0)
(0.0407837 0.0123222 0)
(0.0407778 0.0140576 0)
(0.0400737 0.0153199 0)
(0.0387603 0.0161373 0)
(0.0369335 0.0165497 0)
(0.0346921 0.016606 0)
(0.0321345 0.016361 0)
(0.0293547 0.0158723 0)
(0.0264391 0.0151967 0)
(0.0234641 0.014387 0)
(0.0204952 0.0134887 0)
(0.0175864 0.0125372 0)
(0.014781 0.0115547 0)
(0.012114 0.0105486 0)
(0.00961433 0.00951027 0)
(0.00730901 0.00841621 0)
(0.00522713 0.00723136 0)
(0.00340513 0.00591576 0)
(0.0018816 0.00443491 0)
(0.00076523 0.00277249 0)
(8.7053e-05 0.000957683 0)
(8.63584e-05 -0.00148128 0)
(0.000768748 -0.00403045 0)
(0.00187319 -0.00608841 0)
(0.00331302 -0.00758198 0)
(0.00490006 -0.0084817 0)
(0.0065099 -0.0087991 0)
(0.00802567 -0.00858347 0)
(0.00935186 -0.00791344 0)
(0.010416 -0.00688599 0)
(0.0111679 -0.00560503 0)
(0.0115766 -0.00417088 0)
(0.0116265 -0.00267171 0)
(0.0113122 -0.00117714 0)
(0.0106339 0.000265771 0)
(0.0095915 0.00163428 0)
(0.00818102 0.00292949 0)
(0.00639037 0.00417391 0)
(0.00419712 0.0054072 0)
(0.00156745 0.00668042 0)
(-0.0015434 0.00804946 0)
(-0.00518917 0.0095685 0)
(-0.00942955 0.0112842 0)
(-0.0143264 0.0132319 0)
(-0.01994 0.0154333 0)
(-0.026325 0.0178961 0)
(-0.033527 0.0206155 0)
(-0.041579 0.023575 0)
(-0.0504985 0.0267477 0)
(-0.0602836 0.0300971 0)
(-0.0709108 0.033577 0)
(-0.0823323 0.037132 0)
(-0.0944753 0.0406982 0)
(-0.107243 0.0442046 0)
(-0.120516 0.047576 0)
(-0.13416 0.0507359 0)
(-0.148028 0.0536105 0)
(-0.16197 0.0561322 0)
(-0.175837 0.058243 0)
(-0.189493 0.0598967 0)
(-0.202814 0.0610604 0)
(-0.215692 0.0617146 0)
(-0.228043 0.0618525 0)
(-0.239796 0.0614787 0)
(-0.250904 0.0606068 0)
(-0.26133 0.0592576 0)
(-0.271053 0.0574568 0)
(-0.280062 0.0552334 0)
(-0.288352 0.0526176 0)
(-0.295923 0.0496399 0)
(-0.302781 0.0463301 0)
(-0.308929 0.0427166 0)
(-0.314375 0.0388259 0)
(-0.319125 0.0346828 0)
(-0.323182 0.0303101 0)
(-0.32655 0.0257288 0)
(-0.329231 0.0209586 0)
(-0.331226 0.0160179 0)
(-0.332532 0.0109244 0)
(-0.333146 0.00569571 0)
(-0.333062 0.000349693 0)
(-0.332272 -0.00509491 0)
(-0.330769 -0.010618 0)
(-0.32854 -0.0161972 0)
(-0.325573 -0.0218074 0)
(-0.321854 -0.0274201 0)
(-0.31737 -0.0330027 0)
(-0.312106 -0.0385182 0)
(-0.306047 -0.0439246 0)
(-0.299181 -0.0491747 0)
(-0.291498 -0.0542159 0)
(-0.282992 -0.0589907 0)
(-0.273662 -0.0634372 0)
(-0.263516 -0.0674899 0)
(-0.25257 -0.0710812 0)
(-0.240852 -0.0741433 0)
(-0.228401 -0.0766104 0)
(-0.215273 -0.0784216 0)
(-0.201539 -0.0795235 0)
(-0.187284 -0.0798736 0)
(-0.172612 -0.0794428 0)
(-0.157639 -0.0782186 0)
(-0.142494 -0.0762068 0)
(-0.127316 -0.0734323 0)
(-0.112247 -0.0699397 0)
(-0.0974316 -0.065792 0)
(-0.0830074 -0.0610682 0)
(-0.0691042 -0.0558605 0)
(-0.0558385 -0.0502703 0)
(-0.0433107 -0.0444042 0)
(-0.0316033 -0.0383704 0)
(-0.0207813 -0.0322747 0)
(-0.0108924 -0.0262184 0)
(-0.00196925 -0.0202959 0)
(0.00596849 -0.014594 0)
(0.0129122 -0.00919106 0)
(0.0188628 -0.00415628 0)
(0.0238295 0.000450522 0)
(0.0278307 0.00457987 0)
(0.0308937 0.00819371 0)
(0.0330566 0.0112667 0)
(0.0343685 0.0137875 0)
(0.0348908 0.0157594 0)
(0.0346958 0.0172009 0)
(0.0338663 0.0181444 0)
(0.0324924 0.018635 0)
(0.0306685 0.0187274 0)
(0.0284898 0.0184827 0)
(0.0260487 0.0179645 0)
(0.0234315 0.0172349 0)
(0.020716 0.0163498 0)
(0.0179704 0.0153552 0)
(0.0152526 0.0142834 0)
(0.0126119 0.0131494 0)
(0.0100906 0.0119495 0)
(0.00772795 0.0106607 0)
(0.00556437 0.00924397 0)
(0.00364752 0.00764893 0)
(0.00202694 0.00582322 0)
(0.000828879 0.00372335 0)
(9.4784e-05 0.0013347 0)
(9.19202e-05 -0.00185356 0)
(0.000811587 -0.0049645 0)
(0.00195986 -0.00740843 0)
(0.00343331 -0.00912298 0)
(0.00502226 -0.0100926 0)
(0.00658888 -0.0103477 0)
(0.00800766 -0.00996016 0)
(0.00917953 -0.00903351 0)
(0.0100324 -0.00768904 0)
(0.010519 -0.00605238 0)
(0.0106117 -0.00424137 0)
(0.0102976 -0.00235641 0)
(0.00957196 -0.000473725 0)
(0.00843243 0.00135849 0)
(0.00687339 0.00312128 0)
(0.00488159 0.00482353 0)
(0.00243306 0.00649832 0)
(-0.000508473 0.00819711 0)
(-0.0039913 0.00998239 0)
(-0.00807374 0.0119195 0)
(-0.0128206 0.0140689 0)
(-0.0182988 0.0164794 0)
(-0.0245723 0.019184 0)
(-0.0316976 0.0221978 0)
(-0.0397189 0.0255182 0)
(-0.0486644 0.029126 0)
(-0.0585427 0.032987 0)
(-0.0693391 0.0370534 0)
(-0.081013 0.0412646 0)
(-0.0934963 0.0455486 0)
(-0.106694 0.0498236 0)
(-0.120484 0.0540007 0)
(-0.134726 0.0579877 0)
(-0.149264 0.0616934 0)
(-0.163936 0.0650325 0)
(-0.178582 0.0679301 0)
(-0.19305 0.0703249 0)
(-0.207206 0.0721717 0)
(-0.220935 0.0734415 0)
(-0.234144 0.0741215 0)
(-0.246762 0.074213 0)
(-0.258736 0.0737291 0)
(-0.270034 0.0726921 0)
(-0.280636 0.0711306 0)
(-0.290534 0.0690773 0)
(-0.299726 0.0665669 0)
(-0.308217 0.0636347 0)
(-0.316016 0.0603149 0)
(-0.323132 0.0566404 0)
(-0.329576 0.052642 0)
(-0.335358 0.048348 0)
(-0.340488 0.0437844 0)
(-0.344974 0.0389749 0)
(-0.348824 0.0339409 0)
(-0.352044 0.0287019 0)
(-0.354638 0.0232758 0)
(-0.356608 0.0176792 0)
(-0.357957 0.011928 0)
(-0.358681 0.00603751 0)
(-0.358777 2.35885e-05 0)
(-0.358239 -0.0060971 0)
(-0.357058 -0.0123067 0)
(-0.355223 -0.018585 0)
(-0.352719 -0.024909 0)
(-0.349529 -0.031252 0)
(-0.345634 -0.0375827 0)
(-0.341012 -0.043865 0)
(-0.335639 -0.050057 0)
(-0.329491 -0.0561105 0)
(-0.322545 -0.061971 0)
(-0.314778 -0.0675772 0)
(-0.306171 -0.0728617 0)
(-0.296709 -0.0777516 0)
(-0.286386 -0.0821697 0)
(-0.275206 -0.0860362 0)
(-0.263185 -0.0892716 0)
(-0.250353 -0.0917987 0)
(-0.236759 -0.0935471 0)
(-0.222471 -0.094456 0)
(-0.207578 -0.0944787 0)
(-0.192187 -0.0935862 0)
(-0.176427 -0.09177 0)
(-0.16044 -0.0890448 0)
(-0.144383 -0.0854494 0)
(-0.128417 -0.0810461 0)
(-0.112709 -0.0759193 0)
(-0.0974138 -0.0701715 0)
(-0.0826797 -0.0639193 0)
(-0.0686354 -0.0572876 0)
(-0.0553892 -0.0504045 0)
(-0.0430267 -0.043396 0)
(-0.0316104 -0.0363823 0)
(-0.0211819 -0.0294744 0)
(-0.0117644 -0.0227726 0)
(-0.00336649 -0.0163663 0)
(0.00401426 -0.0103335 0)
(0.0103888 -0.00474174 0)
(0.0157747 0.000352197 0)
(0.0201958 0.0049022 0)
(0.0236824 0.00887377 0)
(0.0262726 0.0122452 0)
(0.0280141 0.0150088 0)
(0.0289642 0.0171719 0)
(0.029191 0.0187574 0)
(0.028772 0.0198024 0)
(0.027792 0.020357 0)
(0.0263412 0.0204812 0)
(0.024511 0.0202408 0)
(0.0223913 0.0197032 0)
(0.0200669 0.018932 0)
(0.0176161 0.0179823 0)
(0.0151088 0.0168954 0)
(0.0126069 0.0156941 0)
(0.0101659 0.0143801 0)
(0.00783771 0.012932 0)
(0.00567478 0.011307 0)
(0.00373646 0.00944468 0)
(0.00208318 0.0072741 0)
(0.000853807 0.00472347 0)
(9.77251e-05 0.0017332 0)
(9.68566e-05 -0.00224587 0)
(0.000845474 -0.00593476 0)
(0.00201811 -0.00875752 0)
(0.00349349 -0.0106652 0)
(0.00504131 -0.0116606 0)
(0.00651151 -0.0117984 0)
(0.00777176 -0.0111792 0)
(0.00872143 -0.00993553 0)
(0.00929071 -0.00821627 0)
(0.00943638 -0.0061701 0)
(0.00913527 -0.00393191 0)
(0.00837704 -0.00161247 0)
(0.00715679 0.000708326 0)
(0.00546832 0.00298466 0)
(0.00329842 0.00520495 0)
(0.000622842 0.00738902 0)
(-0.00259593 0.0095827 0)
(-0.0064088 0.0118501 0)
(-0.010878 0.0142644 0)
(-0.0160733 0.0168979 0)
(-0.0220663 0.019813 0)
(-0.0289251 0.0230551 0)
(-0.0367075 0.0266485 0)
(-0.0454564 0.0305947 0)
(-0.0551943 0.034873 0)
(-0.0659199 0.0394424 0)
(-0.0776045 0.0442434 0)
(-0.0901896 0.0492005 0)
(-0.103586 0.054224 0)
(-0.117677 0.0592134 0)
(-0.132319 0.0640616 0)
(-0.147349 0.0686598 0)
(-0.162596 0.0729031 0)
(-0.177886 0.0766967 0)
(-0.193054 0.0799603 0)
(-0.20795 0.0826318 0)
(-0.222446 0.0846686 0)
(-0.236438 0.0860476 0)
(-0.249847 0.0867635 0)
(-0.262613 0.0868257 0)
(-0.274702 0.0862558 0)
(-0.286091 0.0850837 0)
(-0.296772 0.0833449 0)
(-0.306745 0.0810781 0)
(-0.316016 0.0783228 0)
(-0.324596 0.0751184 0)
(-0.332499 0.0715028 0)
(-0.339737 0.0675116 0)
(-0.346326 0.0631783 0)
(-0.35228 0.0585333 0)
(-0.357614 0.0536047 0)
(-0.362343 0.0484176 0)
(-0.366478 0.0429947 0)
(-0.370033 0.0373561 0)
(-0.373019 0.0315199 0)
(-0.375444 0.0255023 0)
(-0.377316 0.0193182 0)
(-0.378641 0.0129811 0)
(-0.379422 0.00650401 0)