/*--------------------------------*- C++ -*----------------------------------*\
| =========                 |                                                 |
| \\      /  F ield         | OpenFOAM: The Open Source CFD Toolbox           |
|  \\    /   O peration     | Version:  2406                                  |
|   \\  /    A nd           | Website:  www.openfoam.com                      |
|    \\/     M anipulation  |                                                 |
\*---------------------------------------------------------------------------*/
FoamFile
{
    version     2.0;
    format      ascii;
    arch        "LSB;label=32;scalar=64";
    class       surfaceScalarField;
    location    "35.4";
    object      phi;
}
// * * * * * * * * * * * * * * * * * * * * * * * * * * * * * * * * * * * * * //

dimensions      [0 3 -1 0 0 0 0];

oriented        oriented;

internalField   nonuniform List<scalar> 
7080
(
2.74554e-07
-2.74133e-07
1.38075e-06
-1.11544e-06
2.91443e-06
-1.53177e-06
4.47967e-06
-1.57401e-06
5.78982e-06
-1.30909e-06
6.71358e-06
-9.2955e-07
7.27238e-06
-5.57128e-07
7.54366e-06
-2.73824e-07
7.6353e-06
-8.9096e-08
7.59578e-06
3.96496e-08
7.42686e-06
1.7264e-07
7.05647e-06
3.73294e-07
6.38496e-06
6.77447e-07
5.28177e-06
1.10982e-06
3.61383e-06
1.67762e-06
1.23469e-06
2.39075e-06
-1.99834e-06
3.24786e-06
-6.22523e-06
4.2443e-06
-1.15654e-05
5.36089e-06
-1.81109e-05
6.56974e-06
-2.58982e-05
7.81611e-06
-3.48813e-05
9.01632e-06
-4.48984e-05
1.00538e-05
-5.56567e-05
1.07964e-05
-6.67254e-05
1.11054e-05
-7.75526e-05
1.08601e-05
-8.74997e-05
9.97389e-06
-9.58948e-05
8.41433e-06
-0.000102087
6.20284e-06
-0.0001055
3.41441e-06
-0.000105672
1.65355e-07
-0.000102298
-3.39021e-06
-9.52519e-05
-7.07013e-06
-8.46187e-05
-1.06645e-05
-7.07105e-05
-1.39456e-05
-5.40802e-05
-1.66729e-05
-3.55127e-05
-1.86135e-05
-1.60002e-05
-1.95608e-05
3.32048e-06
-1.9369e-05
2.12547e-05
-1.79816e-05
3.66756e-05
-1.54639e-05
4.86528e-05
-1.20154e-05
5.6587e-05
-7.96365e-06
6.02944e-05
-3.72908e-06
6.00433e-05
2.41288e-07
5.64944e-05
3.54711e-06
5.05837e-05
5.92012e-06
4.33342e-05
7.26322e-06
3.56907e-05
7.66479e-06
2.83726e-05
7.33718e-06
2.18414e-05
6.55423e-06
1.62986e-05
5.55879e-06
1.1774e-05
4.54405e-06
8.17134e-06
3.61245e-06
5.35108e-06
2.83568e-06
3.16271e-06
2.19234e-06
1.49945e-06
1.67546e-06
3.77528e-07
1.12157e-06
-1.47466e-07
5.3424e-07
-1.47413e-07
1.06536e-06
-1.33067e-06
3.51817e-06
-3.5693e-06
6.6086e-06
-4.60829e-06
9.62524e-06
-4.58902e-06
1.20839e-05
-3.75704e-06
1.37068e-05
-2.55192e-06
1.44709e-05
-1.31588e-06
1.44376e-05
-2.42608e-07
1.37149e-05
6.34003e-07
1.23053e-05
1.4444e-06
1.01159e-05
2.35779e-06
6.91787e-06
3.56261e-06
2.41807e-06
5.16708e-06
-3.73311e-06
7.24604e-06
-1.18845e-05
9.81044e-06
-2.23739e-05
1.28561e-05
-3.54784e-05
1.63233e-05
-5.13746e-05
2.01063e-05
-7.00502e-05
2.39974e-05
-9.1228e-05
2.77025e-05
-0.00011432
3.08551e-05
-0.000138461
3.30962e-05
-0.000162595
3.41206e-05
-0.000185602
3.37321e-05
-0.000206407
3.18411e-05
-0.000224072
2.84637e-05
-0.000237838
2.36898e-05
-0.000247132
1.76726e-05
-0.000251553
1.06036e-05
-0.000250851
2.71149e-06
-0.000244919
-5.75026e-06
-0.000233782
-1.44935e-05
-0.000217602
-2.32001e-05
-0.000196693
-3.15084e-05
-0.000171537
-3.90231e-05
-0.000142808
-4.53143e-05
-0.000111377
-4.99501e-05
-7.83165e-05
-5.25239e-05
-4.4869e-05
-5.27189e-05
-1.23995e-05
-5.03583e-05
1.76988e-05
-4.5477e-05
4.4104e-05
-3.83489e-05
6.56982e-05
-2.95011e-05
8.16687e-05
-1.96629e-05
9.16106e-05
-9.68232e-06
9.55677e-05
-4.13023e-07
9.40573e-05
7.41318e-06
8.80088e-05
1.32791e-05
7.86716e-05
1.69654e-05
6.7413e-05
1.85527e-05
5.5536e-05
1.83941e-05
4.40667e-05
1.69893e-05
3.36973e-05
1.4886e-05
2.47493e-05
1.25303e-05
1.72971e-05
1.02711e-05
1.12371e-05
8.22951e-06
6.45491e-06
6.45017e-06
2.91141e-06
4.64777e-06
6.97039e-07
2.74849e-06
5.40125e-07
1.54778e-06
-2.87835e-06
4.77309e-06
-6.80881e-06
8.61996e-06
-8.45343e-06
1.21258e-05
-8.10661e-06
1.47151e-05
-6.34626e-06
1.60334e-05
-3.87723e-06
1.60232e-05
-1.3042e-06
1.46811e-05
1.09752e-06
1.20222e-05
3.29665e-06
7.90297e-06
5.56609e-06
2.04739e-06
8.22009e-06
-5.97868e-06
1.15959e-05
-1.66673e-05
1.5867e-05
-3.05348e-05
2.11271e-05
-4.80269e-05
2.73209e-05
-6.94451e-05
3.4297e-05
-9.47953e-05
4.17017e-05
-0.000123667
4.90102e-05
-0.000155177
5.55436e-05
-0.000188072
6.06378e-05
-0.00022092
6.37494e-05
-0.000252337
6.45651e-05
-0.00028114
6.29801e-05
-0.000306422
5.90737e-05
-0.000327549
5.30254e-05
-0.000344112
4.50793e-05
-0.000355871
3.54911e-05
-0.000362696
2.45274e-05
-0.000364522
1.24464e-05
-0.000361329
-4.81109e-07
-0.00035312
-1.39741e-05
-0.000339934
-2.77108e-05
-0.000321854
-4.13255e-05
-0.000299043
-5.43786e-05
-0.000271773
-6.63639e-05
-0.00024047
-7.66976e-05
-0.000205748
-8.47592e-05
-0.000168437
-8.9924e-05
-0.000129589
-9.16561e-05
-9.0449e-05
-8.95831e-05
-5.23882e-05
-8.36137e-05
-1.68109e-05
-7.39912e-05
1.49768e-05
-6.13376e-05
4.18668e-05
-4.65865e-05
6.30535e-05
-3.08837e-05
7.80651e-05
-1.54254e-05
8.68086e-05
-1.31514e-06
8.95666e-05
1.05435e-05
8.70309e-05
1.95329e-05
8.0244e-05
2.53701e-05
7.0522e-05
2.81508e-05
5.92249e-05
2.83132e-05
4.75904e-05
2.65507e-05
3.65174e-05
2.36219e-05
2.65832e-05
2.02298e-05
1.80169e-05
1.68056e-05
1.09294e-05
1.35579e-05
5.35707e-06
1.02211e-05
1.56971e-06
6.55372e-06
2.11093e-06
1.83144e-06
-4.70129e-06
5.38587e-06
-1.03692e-05
9.31315e-06
-1.23686e-05
1.24699e-05
-1.12659e-05
1.42557e-05
-8.12431e-06
1.42966e-05
-3.92002e-06
1.25052e-05
4.90325e-07
8.76696e-06
4.83242e-06
2.91694e-06
9.14544e-06
-5.42741e-06
1.39049e-05
-1.67878e-05
1.95751e-05
-3.18014e-05
2.66008e-05
-5.10659e-05
3.51217e-05
-7.50366e-05
4.50849e-05
-0.00010383
5.60989e-05
-0.00013706
6.75074e-05
-0.000173731
7.83492e-05
-0.00021236
8.76115e-05
-0.000251256
9.44072e-05
-0.000288846
9.81924e-05
-0.000323885
9.87495e-05
-0.000355519
9.61559e-05
-0.00038323
9.06447e-05
-0.000406747
8.25447e-05
-0.000425955
7.21887e-05
-0.000440819
5.99056e-05
-0.000451341
4.59818e-05
-0.000457519
3.06854e-05
-0.000459336
1.42538e-05
-0.000456747
-3.06803e-06
-0.000449679
-2.10272e-05
-0.000438045
-3.9318e-05
-0.000421757
-5.75752e-05
-0.000400758
-7.53291e-05
-0.000375057
-9.2006e-05
-0.000344786
-0.000106903
-0.000310249
-0.000119225
-0.000271985
-0.000128115
-0.000230808
-0.00013276
-0.000187824
-0.000132497
-0.000144392
-0.000126981
-0.000102036
-0.000116293
-6.22835e-05
-0.000101046
-2.65074e-05
-8.23323e-05
4.23244e-06
-6.16046e-05
2.92368e-05
-4.04255e-05
4.81707e-05
-2.02533e-05
6.09813e-05
-2.28328e-06
6.78976e-05
1.25976e-05
6.94178e-05
2.38233e-05
6.63749e-05
3.11711e-05
5.98509e-05
3.48096e-05
5.11021e-05
3.52809e-05
4.12973e-05
3.34025e-05
3.14407e-05
3.00753e-05
2.21814e-05
2.6044e-05
1.4005e-05
2.17314e-05
7.18079e-06
1.70252e-05
2.25942e-06
1.148e-05
4.35751e-06
1.95343e-06
-6.65201e-06
5.45483e-06
-1.38829e-05
8.89294e-06
-1.58013e-05
1.0993e-05
-1.33741e-05
1.11616e-05
-8.29005e-06
9.02869e-06
-1.79075e-06
4.4596e-06
5.06241e-06
-2.81739e-06
1.21098e-05
-1.32086e-05
1.95411e-05
-2.73623e-05
2.80627e-05
-4.59963e-05
3.82162e-05
-6.97762e-05
5.03887e-05
-9.90617e-05
6.44177e-05
-0.000133704
7.97396e-05
-0.000172849
9.52583e-05
-0.00021498
0.000109657
-0.000258211
0.0001216
-0.000300715
0.000130139
-0.000341039
0.000134757
-0.000378211
0.000135395
-0.000411679
0.00013225
-0.000441189
0.000125701
-0.00046667
0.000116163
-0.000488154
0.000104065
-0.000505718
8.97846e-05
-0.000519449
7.36641e-05
-0.000529426
5.59788e-05
-0.000535704
3.69741e-05
-0.000538298
1.68488e-05
-0.000537176
-4.1971e-06
-0.000532255
-2.59668e-05
-0.000523389
-4.82104e-05
-0.000510381
-7.06185e-05
-0.000492994
-9.27599e-05
-0.000470976
-0.000114073
-0.000444115
-0.000133818
-0.000412307
-0.000151091
-0.000375645
-0.000164835
-0.000334521
-0.000173942
-0.000289715
-0.000177358
-0.000242443
-0.000174302
-0.000194326
-0.000164454
-0.00014724
-0.000148166
-0.000103085
-0.000126513
-6.34793e-05
-0.000101225
-2.95412e-05
-7.43699e-05
-1.8043e-06
-4.79851e-05
1.96424e-05
-2.37202e-05
3.49959e-05
-2.73711e-06
4.45844e-05
1.42525e-05
4.89181e-05
2.68608e-05
4.86964e-05
3.50483e-05
4.48859e-05
3.91137e-05
3.85541e-05
3.97461e-05
3.08233e-05
3.78259e-05
2.26008e-05
3.42713e-05
1.47054e-05
2.96457e-05
7.70912e-06
2.40182e-05
2.46639e-06
1.67431e-05
6.82334e-06
1.93834e-06
-8.58442e-06
4.96556e-06
-1.69174e-05
7.27796e-06
-1.81056e-05
7.5633e-06
-1.36632e-05
5.28084e-06
-6.00397e-06
7.20236e-08
3.41529e-06
-8.2945e-06
1.34287e-05
-2.03049e-05
2.41166e-05
-3.66302e-05
3.58628e-05
-5.80978e-05
4.95249e-05
-8.53765e-05
6.54885e-05
-0.000118721
8.37257e-05
-0.000157672
0.000103359
-0.000200964
0.000123021
-0.000246685
0.000140965
-0.000292731
0.000155687
-0.00033727
0.000166121
-0.000378996
0.000171845
-0.000417126
0.000172864
-0.000451279
0.000169523
-0.000481339
0.000162282
-0.000507352
0.000151685
-0.000529456
0.000138236
-0.000547842
0.000122423
-0.000562727
0.000104643
-0.000574331
8.5247e-05
-0.000582859
6.44918e-05
-0.000588485
4.25924e-05
-0.000591332
1.96952e-05
-0.000591456
-4.06602e-06
-0.000588827
-2.85807e-05
-0.000583318
-5.36975e-05
-0.000574688
-7.92209e-05
-0.000562578
-0.000104836
-0.000546521
-0.000130093
-0.000525966
-0.000154331
-0.000500345
-0.000176669
-0.000469164
-0.000195972
-0.00043215
-0.000210911
-0.000389418
-0.000220046
-0.00034164
-0.00022204
-0.000290157
-0.000215902
-0.000236971
-0.000201322
-0.000184554
-0.000178909
-0.000135447
-0.000150317
-9.17829e-05
-0.00011803
-5.48589e-05
-8.49099e-05
-2.50685e-05
-5.35202e-05
-2.12394e-06
-2.56922e-05
1.45195e-05
-2.40795e-06
2.54649e-05
1.59022e-05
3.13003e-05
2.91942e-05
3.27603e-05
3.76426e-05
3.06939e-05
4.17946e-05
2.61303e-05
4.23834e-05
2.00438e-05
4.03407e-05
1.3447e-05
3.62425e-05
7.17202e-06
3.02746e-05
2.30113e-06
2.16202e-05
9.11209e-06
1.73919e-06
-1.03208e-05
3.81503e-06
-1.89999e-05
4.35193e-06
-1.86382e-05
2.1071e-06
-1.14208e-05
-3.38384e-06
-5.10722e-07
-1.24918e-05
1.25243e-05
-2.56029e-05
2.65423e-05
-4.34234e-05
4.19409e-05
-6.67794e-05
5.92229e-05
-9.63844e-05
7.91362e-05
-0.000132398
0.000101508
-0.000174148
0.000125484
-0.000220057
0.000149276
-0.000267947
0.000170922
-0.000315574
0.000188602
-0.000361098
0.000201226
-0.000403281
0.000208319
-0.000441422
0.000210003
-0.000475211
0.000206671
-0.000504598
0.00019893
-0.000529707
0.000187411
-0.000550777
0.000172777
-0.000568128
0.000155608
-0.000582124
0.000136439
-0.000593146
0.000115681
-0.000601564
9.36785e-05
-0.000607719
7.06539e-05
-0.000611899
4.67746e-05
-0.000614329
2.21205e-05
-0.000615155
-3.25071e-06
-0.000614428
-2.93234e-05
-0.000612091
-5.60564e-05
-0.000607949
-8.33895e-05
-0.00060165
-0.000111166
-0.00059266
-0.000139119
-0.000580251
-0.000166777
-0.000563524
-0.000193436
-0.000541463
-0.000218073
-0.000513068
-0.000239346
-0.000477552
-0.0002556
-0.000434602
-0.000265025
-0.000384669
-0.000265865
-0.00032919
-0.000256824
-0.00027065
-0.000237467
-0.000212329
-0.000208647
-0.000157734
-0.00017263
-0.000109777
-0.000132864
-7.01134e-05
-9.31805e-05
-3.89516e-05
-5.68437e-05
-1.55451e-05
-2.58054e-05
1.17967e-06
-8.07877e-07
1.21637e-05
1.82199e-05
1.82439e-05
3.15779e-05
2.01985e-05
3.98471e-05
1.89425e-05
4.36545e-05
1.54165e-05
4.38692e-05
1.06922e-05
4.0982e-05
5.7644e-06
3.51993e-05
1.81561e-06
2.55858e-05
1.09276e-05
1.27147e-06
-1.15915e-05
1.81945e-06
-1.95504e-05
-1.18207e-07
-1.67005e-05
-5.59805e-06
-5.94158e-06
-1.50098e-05
8.89805e-06
-2.87727e-05
2.62865e-05
-4.74532e-05
4.52177e-05
-7.18743e-05
6.63599e-05
-0.000102736
9.00782e-05
-0.000140192
0.000116588
-0.000183453
0.000144761
-0.000230764
0.000172789
-0.000279758
0.00019826
-0.000328059
0.000219215
-0.000373768
0.000234299
-0.000415622
0.000243069
-0.000452918
0.0002456
-0.000485357
0.000242428
-0.000512935
0.000234231
-0.000535857
0.000221837
-0.000554492
0.000206029
-0.000569312
0.000187581
-0.000580844
0.000167125
-0.000589626
0.000145208
-0.000596167
0.000122213
-0.000600928
9.84343e-05
-0.000604305
7.40298e-05
-0.000606627
4.91005e-05
-0.000608153
2.36558e-05
-0.000609075
-2.31401e-06
-0.000609511
-2.8869e-05
-0.000609491
-5.60528e-05
-0.000608938
-8.39159e-05
-0.000607629
-0.000112445
-0.000605153
-0.000141562
-0.000600857
-0.000171039
-0.000593806
-0.000200454
-0.000582768
-0.000229079
-0.000566262
-0.000255822
-0.000542696
-0.000279139
-0.000510631
-0.000297066
-0.000469151
-0.000307325
-0.000418313
-0.000307645
-0.000359549
-0.000296218
-0.000295837
-0.000272348
-0.000231454
-0.000237008
-0.000171143
-0.000193173
-0.000118897
-0.000145432
-7.68305e-05
-9.89149e-05
-4.49558e-05
-5.76907e-05
-2.19016e-05
-2.38699e-05
-6.01681e-06
2.32246e-06
4.10759e-06
2.14468e-05
9.53618e-06
3.44058e-05
1.12504e-05
4.19364e-05
1.01976e-05
4.49095e-05
7.45157e-06
4.37279e-05
4.08068e-06
3.85569e-05
1.25025e-06
2.84196e-05
1.21688e-05
4.67732e-07
-1.20599e-05
-1.11365e-06
-1.79639e-05
-6.16215e-06
-1.16549e-05
-1.54533e-05
3.35668e-06
-2.9335e-05
2.27776e-05
-4.82938e-05
4.52533e-05
-7.3012e-05
6.99356e-05
-0.000104179
9.75356e-05
-0.000141981
0.000127882
-0.000185643
0.000160259
-0.000233357
0.000192479
-0.000282637
0.000222078
-0.000330976
0.000246605
-0.000376345
0.000264594
-0.000417396
0.000275357
-0.000453364
0.000279049
-0.000483947
0.000276193
-0.000509184
0.000267678
-0.000529393
0.000254452
-0.000545088
0.000237546
-0.000556908
0.000217862
-0.000565536
0.000196222
-0.000571639
0.000173239
-0.000575822
0.000149401
-0.000578606
0.000125003
-0.000580417
0.00010025
-0.0005816
7.52129e-05
-0.000582427
4.99233e-05
-0.000583111
2.43318e-05
-0.000583823
-1.61378e-06
-0.000584695
-2.8012e-05
-0.000585822
-5.49442e-05
-0.000587245
-8.25144e-05
-0.000588922
-0.00011079
-0.000590682
-0.000139827
-0.000592154
-0.000169592
-0.000592684
-0.000199949
-0.000591247
-0.00023054
-0.000586384
-0.000260708
-0.000576208
-0.000289337
-0.000558533
-0.000314762
-0.000531177
-0.000334701
-0.00049246
-0.000346379
-0.00044185
-0.000346842
-0.000380606
-0.000333601
-0.000312167
-0.000305453
-0.000241918
-0.00026342
-0.000176117
-0.000211231
-0.000120048
-0.000154977
-7.63544e-05
-0.000101379
-4.46652e-05
-5.55498e-05
-2.28644e-05
-1.94727e-05
-8.5937e-06
7.18629e-06
-2.3259e-08
2.58398e-05
4.24472e-06
3.76787e-05
5.34375e-06
4.38125e-05
4.39398e-06
4.4688e-05
2.49533e-06
4.04547e-05
7.32506e-07
3.01932e-05
1.29025e-05
-7.47288e-07
-1.13205e-05
-5.06402e-06
-1.36377e-05
-1.37767e-05
-2.95605e-06
-2.73207e-05
1.69083e-05
-4.60399e-05
4.14842e-05
-7.04459e-05
6.96636e-05
-0.000101161
0.000100639
-0.000138415
0.00013479
-0.000181574
0.00017103
-0.000228883
0.000207566
-0.000277837
0.000241423
-0.00032578
0.000270017
-0.000370528
0.000291343
-0.000410574
0.000304634
-0.000445073
0.000309846
-0.00047369
0.000307659
-0.000496528
0.000299019
-0.000514016
0.000285158
-0.000526835
0.00026726
-0.000535786
0.000246489
-0.000541707
0.000223773
-0.000545374
0.000199882
-0.000547459
0.000175317
-0.000548504
0.000150442
-0.000548925
0.000125421
-0.000549028
0.000100353
-0.000549032
7.52202e-05
-0.000549098
4.9996e-05
-0.00054935
2.45938e-05
-0.000549897
-1.05353e-06
-0.000550845
-2.70494e-05
-0.000552299
-5.34718e-05
-0.000554366
-8.04265e-05
-0.000557137
-0.000107997
-0.000560654
-0.000136287
-0.000564853
-0.000165368
-0.000569487
-0.00019529
-0.000574006
-0.000225997
-0.000577426
-0.000257266
-0.000578197
-0.000288545
-0.000574144
-0.000318795
-0.000562549
-0.00034628
-0.000540461
-0.000368454
-0.000505311
-0.000381984
-0.000455784
-0.000383123
-0.000392784
-0.000368452
-0.000320129
-0.000336074
-0.000244441
-0.000286921
-0.000173716
-0.000225703
-0.000114719
-0.000160382
-7.0481e-05
-9.97918e-05
-4.00001e-05
-4.99615e-05
-2.02052e-05
-1.26131e-05
-8.08931e-06
1.37156e-05
-1.37054e-06
3.0957e-05
1.58884e-06
4.08449e-05
2.11701e-06
4.41588e-05
1.38313e-06
4.11802e-05
4.09024e-07
3.11676e-05
1.33058e-05
-2.36304e-06
-8.96527e-06
-9.89976e-06
-6.07712e-06
-2.2628e-05
9.75571e-06
-4.06238e-05
3.4925e-05
-6.42428e-05
6.50929e-05
-9.39046e-05
9.93427e-05
-0.000129931
0.00013666
-0.000171826
0.0001767
-0.000218078
0.000217281
-0.000266208
0.000255708
-0.000313497
0.000288713
-0.00035754
0.000314071
-0.000396665
0.000330471
-0.000429881
0.00033786
-0.000456829
0.000336798
-0.000477638
0.000328478
-0.000492865
0.000314253
-0.000503336
0.000295639
-0.000510023
0.000273954
-0.000513891
0.000250367
-0.000515815
0.000225703
-0.000516507
0.00020058
-0.00051651
0.000175324
-0.000516201
0.000150136
-0.000515826
0.000125046
-0.00051553
0.000100056
-0.000515397
7.5081e-05
-0.000515471
5.00629e-05
-0.00051579
2.49027e-05
-0.000516397
-4.59054e-07
-0.000517355
-2.61074e-05
-0.000518751
-5.20933e-05
-0.000520703
-7.84941e-05
-0.000523351
-0.000105368
-0.000526852
-0.000132808
-0.000531341
-0.000160901
-0.000536884
-0.000189767
-0.000543392
-0.000219508
-0.000550486
-0.00025019
-0.000557322
-0.000281724
-0.000562397
-0.000313732
-0.000563395
-0.000345294
-0.00055718
-0.000374677
-0.000540081
-0.00039909
-0.000508584
-0.000414625
-0.00046045
-0.000416591
-0.000396075
-0.000400451
-0.000319618
-0.000363379
-0.000239071
-0.000306248
-0.000164426
-0.000235023
-0.000103938
-0.000160273
-6.06772e-05
-9.32185e-05
-3.25401e-05
-4.07439e-05
-1.54446e-05
-3.3767e-06
-5.78028e-06
2.1299e-05
-9.86897e-07
3.60534e-05
7.5972e-07
4.24188e-05
8.34284e-07
4.11061e-05
3.0158e-07
3.17069e-05
1.36091e-05
-4.35678e-06
-4.62756e-06
-1.54585e-05
5.05239e-06
-3.23534e-05
2.66177e-05
-5.47609e-05
5.73528e-05
-8.30149e-05
9.33218e-05
-0.000117277
0.000133617
-0.000157363
0.000176727
-0.000201966
0.000221309
-0.000248883
0.000264181
-0.000295308
0.000302135
-0.000338707
0.000332099
-0.000377134
0.000352497
-0.000409466
0.000362792
-0.000435231
0.000363623
-0.000454593
0.000356151
-0.000468173
0.000342055
-0.000476948
0.000323019
-0.000482017
0.000300705
-0.000484484
0.000276412
-0.000485291
0.00025117
-0.000485195
0.0002256
-0.000484722
0.000200105
-0.000484216
0.000174814
-0.000483859
0.000149779
-0.000483732
0.000124919
-0.000483844
0.000100171
-0.000484176
7.54169e-05
-0.000484694
5.05894e-05
-0.000485381
2.55984e-05
-0.000486233
4.0496e-07
-0.00048728
-2.50479e-05
-0.00048858
-5.07777e-05
-0.000490234
-7.68245e-05
-0.000492377
-0.000103208
-0.000495186
-0.000129982
-0.000498864
-0.000157205
-0.000503627
-0.000184987
-0.000509653
-0.000213467
-0.000517003
-0.000242825
-0.000525478
-0.000273236
-0.000534421
-0.000304778
-0.00054245
-0.000337254
-0.000547218
-0.000369899
-0.000545291
-0.000401009
-0.000532364
-0.000427546
-0.000503991
-0.000444961
-0.000456955
-0.000447487
-0.000391089
-0.000429248
-0.000310958
-0.000386382
-0.000226187
-0.000319798
-0.000149012
-0.00023745
-8.89812e-05
-0.000153253
-4.8441e-05
-8.12868e-05
-2.37341e-05
-2.80885e-05
-9.79239e-06
7.35454e-06
-2.70924e-06
2.89652e-05
2.21311e-07
3.94869e-05
8.2846e-07
4.04934e-05
4.09022e-07
3.21262e-05
1.4014e-05
-6.58334e-06
1.93865e-06
-2.1344e-05
1.98596e-05
-4.22785e-05
4.75178e-05
-6.87602e-05
8.38718e-05
-0.000101028
0.000125569
-0.000138829
0.000171445
-0.000181373
0.000219259
-0.000226646
0.000266602
-0.000272066
0.000309595
-0.000314868
0.000344953
-0.000352937
0.000370165
-0.000384862
0.000384435
-0.000410086
0.000388016
-0.00042868
0.000382229
-0.000441338
0.000368811
-0.000449102
0.000349828
-0.000453221
0.00032714
-0.000454885
0.000302377
-0.000455134
0.000276664
-0.00045474
0.000250783
-0.00045424
0.000225102
-0.00045393
0.000199799
-0.000453952
0.000174835
-0.000454321
0.000150149
-0.000454998
0.000125593
-0.000455903
0.000101073
-0.000456962
7.6469e-05
-0.000458103
5.17237e-05
-0.000459282
2.67674e-05
-0.000460473
1.58617e-06
-0.000461686
-2.38483e-05
-0.000462953
-4.95236e-05
-0.000464347
-7.54457e-05
-0.000465972
-0.000101598
-0.000467979
-0.000127991
-0.00047056
-0.00015464
-0.000473955
-0.000181607
-0.000478437
-0.000208999
-0.000484281
-0.000236994
-0.000491684
-0.000265845
-0.000500624
-0.000295848
-0.00051063
-0.000327256
-0.000520473
-0.000360064
-0.000527814
-0.000393673
-0.000528986
-0.000426376
-0.00051911
-0.000454838
-0.000492859
-0.000473737
-0.000446072
-0.000476035
-0.000378112
-0.000454343
-0.000294207
-0.000403703
-0.000206048
-0.000325607
-0.000128341
-0.000230956
-7.12467e-05
-0.000138376
-3.52832e-05
-6.40488e-05
-1.48676e-05
-1.3058e-05
-4.41991e-06
1.85193e-05
4.34102e-08
3.50276e-05
1.13753e-06
3.93995e-05
6.48592e-07
3.26204e-05
1.46636e-05
-8.91387e-06
1.08218e-05
-2.72203e-05
3.82141e-05
-5.1847e-05
7.20908e-05
-8.1822e-05
0.000113881
-0.000117202
0.000160911
-0.000157227
0.00021149
-0.000200543
0.000262548
-0.00024465
0.00031072
-0.000286911
0.000351836
-0.000324852
0.000382899
-0.00035689
0.000402188
-0.000382173
0.000409719
-0.000400718
0.000406549
-0.000413125
0.000394636
-0.000420529
0.000376204
-0.000424229
0.000353528
-0.000425552
0.000328455
-0.000425589
0.000302412
-0.000425181
0.000276248
-0.000424849
0.000250451
-0.000424891
0.000225138
-0.000425393
0.000200302
-0.000426346
0.000175786
-0.000427657
0.000151461
-0.000429221
0.000127158
-0.000430925
0.000102782
-0.000432679
7.82269e-05
-0.000434404
5.34565e-05
-0.000436055
2.84256e-05
-0.000437601
3.14255e-06
-0.000439042
-2.23969e-05
-0.000440395
-4.81585e-05
-0.000441706
-7.41226e-05
-0.000443043
-0.000100247
-0.000444511
-0.00012651
-0.000446252
-0.000152886
-0.00044846
-0.000179387
-0.000451384
-0.000206063
-0.000455338
-0.000233029
-0.000460671
-0.000260503
-0.000467705
-0.000288806
-0.000476582
-0.000318373
-0.000487015
-0.000349625
-0.000497904
-0.00038278
-0.000506909
-0.000417367
-0.000510106
-0.000451638
-0.000502048
-0.000481794
-0.000476563
-0.000501518
-0.000428674
-0.000502234
-0.000357554
-0.000474827
-0.000269641
-0.000413526
-0.000179354
-0.000321246
-0.000103865
-0.000213867
-5.25333e-05
-0.000115379
-2.26845e-05
-4.29099e-05
-7.18117e-06
3.01306e-06
-3.73861e-07
2.82188e-05
1.47184e-06
3.75495e-05
9.29722e-07
3.31632e-05
1.55898e-05
-1.11146e-05
2.19105e-05
-3.25857e-05
5.97529e-05
-6.03189e-05
9.97721e-05
-9.2991e-05
0.000146606
-0.000130403
0.000198292
-0.000171284
0.000252408
-0.000213844
0.000305089
-0.000255361
0.000352263
-0.000293391
0.000389855
-0.000325896
0.000415424
-0.000351863
0.00042815
-0.000370996
0.000428868
-0.000383858
0.000419409
-0.000391486
0.000402277
-0.000395291
0.000380009
-0.000396637
0.000354884
-0.000396747
0.000328565
-0.000396488
0.000302161
-0.000396442
0.000276203
-0.000396876
0.000250891
-0.000397884
0.000226145
-0.000399404
0.000201826
-0.000401336
0.000177715
-0.000403534
0.00015366
-0.000405878
0.000129499
-0.000408251
0.000105153
-0.000410572
8.05423e-05
-0.000412773
5.56519e-05
-0.000414816
3.04601e-05
-0.000416674
4.99226e-06
-0.000418345
-2.07362e-05
-0.000419836
-4.66773e-05
-0.000421177
-7.27929e-05
-0.000422409
-9.90265e-05
-0.000423599
-0.000125331
-0.000424835
-0.000151661
-0.000426248
-0.000177985
-0.000428016
-0.000204305
-0.00043039
-0.000230664
-0.000433701
-0.0002572
-0.000438363
-0.000284151
-0.000444806
-0.000311936
-0.000453337
-0.0003411
-0.000463832
-0.000372289
-0.0004753
-0.000405902
-0.000485324
-0.000441615
-0.000489636
-0.000477481
-0.000482128
-0.000509023
-0.000455808
-0.000528553
-0.000405082
-0.00052555
-0.000329484
-0.000489127
-0.00023756
-0.000413169
-0.000147312
-0.000304117
-7.7695e-05
-0.000184989
-3.47927e-05
-8.58097e-05
-1.20843e-05
-1.96935e-05
-1.68629e-06
1.78223e-05
1.50001e-06
3.43635e-05
1.14129e-06
3.3526e-05
1.67315e-05
-1.30382e-05
3.49086e-05
-3.71336e-05
8.39128e-05
-6.72532e-05
0.000129821
-0.000101716
0.000181115
-0.000140035
0.000236563
-0.000180501
0.000292901
-0.000221071
0.000345624
-0.000259031
0.000390238
-0.000292298
0.000423097
-0.000319331
0.000442466
-0.000339682
0.000448482
-0.000353571
0.000442762
-0.000362022
0.000427845
-0.00036635
0.000406607
-0.000368058
0.000381705
-0.000368403
0.000355229
-0.000368389
0.000328541
-0.000368609
0.000302382
-0.000369394
0.00027698
-0.000370803
0.0002523
-0.000372791
0.000228129
-0.000375215
0.000204251
-0.000377938
0.000180435
-0.000380808
0.000156533
-0.000383717
0.000132409
-0.000386565
0.000108005
-0.00038929
8.32705e-05
-0.000391837
5.82059e-05
-0.000394181
3.28097e-05
-0.000396299
7.11858e-06
-0.00039819
-1.88372e-05
-0.000399856
-4.50017e-05
-0.000401317
-7.13232e-05
-0.000402595
-9.77381e-05
-0.000403733
-0.000124184
-0.000404781
-0.000150604
-0.000405817
-0.000176939
-0.000406948
-0.000203166
-0.000408337
-0.000229267
-0.000410219
-0.000255311
-0.000412942
-0.000281423
-0.000416959
-0.000307914
-0.000422806
-0.000335248
-0.000430929
-0.000364163
-0.000441362
-0.000395468
-0.000453157
-0.000429819
-0.000463731
-0.000466908
-0.0004683
-0.000504452
-0.000459969
-0.000536883
-0.000430915
-0.0005546
-0.000375306
-0.000544738
-0.000293913
-0.000494568
-0.000198737
-0.000399298
-0.000112126
-0.000271603
-5.25132e-05
-0.000145418
-1.98916e-05
-5.23158e-05
-4.39513e-06
2.32218e-06
9.9103e-07
2.89758e-05
1.21329e-06
3.3303e-05
1.79428e-05
-1.44764e-05
4.93533e-05
-4.04783e-05
0.000109997
-7.21519e-05
0.00016143
-0.000107456
0.000216483
-0.00014562
0.000274688
-0.000184617
0.000331941
-0.000222328
0.000383313
-0.000256227
0.000424167
-0.000284668
0.000451525
-0.000306619
0.000464441
-0.000322152
0.000464007
-0.000331925
0.000452554
-0.000337279
0.000433196
-0.00033964
0.000408982
-0.000340441
0.000382504
-0.00034072
0.00035552
-0.00034122
0.00032904
-0.000342272
0.000303443
-0.000344006
0.000278713
-0.00034634
0.000254641
-0.000349158
0.000230946
-0.000352284
0.00020738
-0.000355585
0.000183734
-0.000358926
0.000159876
-0.000362225
0.000135704
-0.000365401
0.00011118
-0.000368411
8.62754e-05
-0.000371212
6.10034e-05
-0.000373787
3.53777e-05
-0.000376114
9.44051e-06
-0.000378194
-1.67651e-05
-0.000380024
-4.31793e-05
-0.000381618
-6.9738e-05
-0.000382989
-9.63749e-05
-0.000384166
-0.000123015
-0.00038518
-0.000149598
-0.000386077
-0.00017605
-0.000386916
-0.000202335
-0.000387789
-0.0002284
-0.000388837
-0.000254269
-0.000390292
-0.000279972
-0.000392501
-0.00030571
-0.000395973
-0.00033178
-0.000401325
-0.000358814
-0.000409143
-0.000387652
-0.000419556
-0.000419407
-0.000431596
-0.00045487
-0.000442326
-0.00049372
-0.000446259
-0.000532951
-0.000435505
-0.000565348
-0.00040152
-0.000578721
-0.000338834
-0.000557251
-0.000250853
-0.000487286
-0.000154817
-0.000367639
-7.71229e-05
-0.000223113
-3.10639e-05
-9.83604e-05
-8.81626e-06
-1.99331e-05
-1.76873e-07
2.03415e-05
1.11354e-06
3.20117e-05
1.9058e-05
-1.53608e-05
6.46688e-05
-4.25043e-05
0.000137214
-7.48961e-05
0.000193742
-0.000110146
0.000251786
-0.000147242
0.000311729
-0.000183976
0.000368707
-0.000218305
0.000417604
-0.000247998
0.000453879
-0.000271878
0.000475377
-0.000289385
0.000481959
-0.000301037
0.000475637
-0.000307813
0.000459336
-0.000311219
0.000436584
-0.000312639
0.000410405
-0.000313324
0.000383175
-0.000314055
0.000356252
-0.00031532
0.000330294
-0.00031724
0.000305364
-0.00031981
0.000281274
-0.000322871
0.000257703
-0.000326283
0.000234353
-0.000329878
0.000210977
-0.000333547
0.0001874
-0.000337181
0.000163513
-0.000340724
0.000139246
-0.000344114
0.000114574
-0.000347323
8.94865e-05
-0.000350315
6.40008e-05
-0.000353076
3.81427e-05
-0.000355585
1.19559e-05
-0.00035784
-1.45053e-05
-0.000359833
-4.11793e-05
-0.000361574
-6.79898e-05
-0.000363073
-9.48693e-05
-0.00036435
-0.00012173
-0.000365427
-0.000148514
-0.000366337
-0.000175134
-0.00036711
-0.000201556
-0.0003678
-0.000227704
-0.000368474
-0.00025359
-0.000369264
-0.000279179
-0.000370381
-0.000304589
-0.000372198
-0.00032996
-0.000375262
-0.000355748
-0.000380303
-0.000382611
-0.000388003
-0.000411705
-0.000398561
-0.000444314
-0.000410806
-0.000481474
-0.000421252
-0.000522508
-0.000423385
-0.000563211
-0.000408223
-0.000593885
-0.000366733
-0.000598732
-0.000294966
-0.000559067
-0.00020094
-0.00046166
-0.000109092
-0.000314983
-4.63529e-05
-0.000161073
-1.49959e-05
-5.13019e-05
-2.09355e-06
7.44274e-06
8.67557e-07
2.90456e-05
1.9926e-05
-1.55862e-05
8.02213e-05
-4.30519e-05
0.000164768
-7.53401e-05
0.000225962
-0.00010973
0.000286244
-0.000145024
0.000346981
-0.000178966
0.000402695
-0.000209694
0.000448307
-0.000235332
0.00047955
-0.000255145
0.000495176
-0.000268986
0.000495827
-0.000277714
0.000484356
-0.0002825
0.000464143
-0.00028487
0.00043895
-0.000286061
0.000411612
-0.000287095
0.000384207
-0.000288497
0.000357667
-0.00029055
0.000332346
-0.000293227
0.000308052
-0.000296446
0.000284493
-0.000300023
0.000261287
-0.000303828
0.000238156
-0.000307715
0.000214869
-0.000311608
0.000191292
-0.000315424
0.000167331
-0.000319128
0.000142947
-0.000322672
0.000118117
-0.000326034
9.28451e-05
-0.000329182
6.71465e-05
-0.000332101
4.10569e-05
-0.000334768
1.46184e-05
-0.000337175
-1.21034e-05
-0.000339313
-3.90468e-05
-0.000341187
-6.61217e-05
-0.000342802
-9.32604e-05
-0.000344177
-0.00012036
-0.00034533
-0.000147367
-0.000346291
-0.000174178
-0.000347083
-0.00020077
-0.00034774
-0.000227051
-0.000348296
-0.000253039
-0.000348816
-0.000278662
-0.000349402
-0.000304007
-0.000350276
-0.000329088
-0.000351814
-0.000354211
-0.000354649
-0.000379777
-0.000359595
-0.000406759
-0.000367461
-0.00043645
-0.000378366
-0.000470567
-0.000390777
-0.0005101
-0.000400266
-0.000553718
-0.000399029
-0.000595124
-0.000376914
-0.000620837
-0.000325163
-0.00061082
-0.000243166
-0.000543658
-0.000146414
-0.000411747
-6.68082e-05
-0.000240676
-2.2996e-05
-9.50988e-05
-4.8723e-06
-1.0688e-05
4.97477e-07
2.36755e-05
2.04257e-05
-1.51936e-05
9.53688e-05
-4.22193e-05
0.000191867
-7.36767e-05
0.000257338
-0.000106546
0.000319167
-0.000139505
0.000379883
-0.000170359
0.000433581
-0.000197492
0.000475399
-0.000219394
0.000501471
-0.000235724
0.000511475
-0.000246666
0.00050678
-0.000253307
0.000490974
-0.000256888
0.00046773
-0.000258849
0.000440891
-0.000260222
0.000412988
-0.000261794
0.000385763
-0.000263874
0.000359748
-0.000266593
0.000335052
-0.000269836
0.000311296
-0.000273493
0.00028814
-0.000277384
0.000265178
-0.000281406
0.000242172
-0.000285445
0.000218908
-0.000289453
0.000195295
-0.000293368
0.000171249
-0.000297172
0.000146749
-0.000300823
0.000121771
-0.000304305
9.63278e-05
-0.000307584
7.04292e-05
-0.000310643
4.41191e-05
-0.000313456
1.74356e-05
-0.000316012