/*--------------------------------*- C++ -*----------------------------------*\
| =========                 |                                                 |
| \\      /  F ield         | OpenFOAM: The Open Source CFD Toolbox           |
|  \\    /   O peration     | Version:  2406                                  |
|   \\  /    A nd           | Website:  www.openfoam.com                      |
|    \\/     M anipulation  |                                                 |
\*---------------------------------------------------------------------------*/
FoamFile
{
    version     2.0;
    format      ascii;
    arch        "LSB;label=32;scalar=64";
    class       surfaceScalarField;
    location    "32";
    object      phi_0;
}
// * * * * * * * * * * * * * * * * * * * * * * * * * * * * * * * * * * * * * //

dimensions      [0 3 -1 0 0 0 0];

oriented        oriented;

internalField   nonuniform List<scalar> 
1740
(
5.98117e-06
-5.98117e-06
1.51047e-05
-9.12354e-06
2.14528e-05
-6.34807e-06
2.34273e-05
-1.97454e-06
2.25521e-05
8.75209e-07
1.97709e-05
2.78123e-06
1.40452e-05
5.72564e-06
2.81652e-06
1.12287e-05
-1.9562e-05
2.23785e-05
-5.87034e-05
3.91413e-05
-0.000115272
5.65688e-05
-0.00018405
6.8778e-05
-0.000253723
6.96729e-05
-0.000311411
5.7688e-05
-0.000347611
3.61995e-05
-0.000356144
8.5334e-06
-0.000334025
-2.21193e-05
-0.000280388
-5.36368e-05
-0.00019867
-8.17181e-05
-9.70191e-05
-0.000101651
9.80203e-06
-0.000106821
0.000103215
-9.3413e-05
0.000163692
-6.04769e-05
0.000179329
-1.56367e-05
0.000153676
2.56521e-05
0.000107473
4.62033e-05
6.22996e-05
4.51736e-05
2.9177e-05
3.31225e-05
8.91421e-06
2.02628e-05
8.91421e-06
1.07488e-05
-1.67299e-05
2.55659e-05
-2.39407e-05
3.2491e-05
-1.32732e-05
2.90973e-05
1.41922e-06
1.58871e-05
1.40854e-05
-9.41633e-06
2.80847e-05
-5.47433e-05
5.10526e-05
-0.000130091
8.65768e-05
-0.000234797
0.000127084
-0.000354378
0.000158723
-0.000468839
0.00017103
-0.000563481
0.00016342
-0.000632295
0.000138486
-0.000674296
9.96896e-05
-0.000689176
5.10794e-05
-0.000677242
-3.4011e-06
-0.000636561
-6.28e-05
-0.000568295
-0.000121903
-0.000473117
-0.000176896
-0.000354018
-0.000220749
-0.000218656
-0.000242183
-8.16599e-05
-0.000230409
3.76872e-05
-0.000179824
0.000118758
-9.67073e-05
0.00015058
-6.16968e-06
0.000139661
5.71217e-05
0.000102663
8.2172e-05
5.82536e-05
7.75318e-05
2.01503e-05
5.83661e-05
2.90645e-05
1.20749e-05
-2.88049e-05
2.2783e-05
-3.46487e-05
1.91787e-05
-9.66892e-06
-1.56291e-06
2.21609e-05
-4.36855e-05
5.6208e-05
-0.000117013
0.000101412
-0.000227896
0.000161936
-0.000365338
0.000224019
-0.000505056
0.000266801
-0.000628334
0.000282001
-0.000728176
0.000270872
-0.000802899
0.000238143
-0.000853991
0.000189578
-0.000884147
0.000129845
-0.000895146
6.20787e-05
-0.000886212
-1.23357e-05
-0.000858915
-9.00963e-05
-0.00080963
-0.000171188
-0.000735474
-0.000251053
-0.000634236
-0.000321988
-0.000506055
-0.000370363
-0.000357196
-0.000379269
-0.000203133
-0.000333887
-6.81301e-05
-0.00023171
2.34283e-05
-9.77281e-05
6.36756e-05
1.68745e-05
6.6831e-05
7.90166e-05
4.67538e-05
9.7609e-05
1.81764e-05
8.69435e-05
4.72409e-05
9.01675e-06
-3.78216e-05
6.97019e-06
-3.26022e-05
-1.75318e-05
1.4833e-05
-6.91796e-05
7.38087e-05
-0.000156646
0.000143674
-0.000283128
0.000227895
-0.000432386
0.000311193
-0.000577482
0.000369115
-0.000701066
0.000390385
-0.000797398
0.000378333
-0.000867409
0.000340883
-0.000915231
0.000285966
-0.000945548
0.000219895
-0.000962551
0.000146848
-0.000969224
6.87513e-05
-0.000966978
-1.45812e-05
-0.000956084
-0.000100991
-0.000934228
-0.000193043
-0.000896554
-0.000288727
-0.000836159
-0.000382383
-0.000744198
-0.000462324
-0.000614063
-0.000509404
-0.000448281
-0.000499668
-0.000267639
-0.000412353
-0.000111913
-0.000253453
-1.92645e-05
-7.57744e-05
1.55288e-05
4.42232e-05
1.99063e-05
9.32315e-05
8.74012e-06
9.81097e-05
5.5981e-05
-8.08358e-07
-3.70133e-05
-2.43504e-05
-9.06011e-06
-7.87844e-05
6.9267e-05
-0.000168859
0.000163884
-0.000296234
0.000271049
-0.000445344
0.000377004
-0.000588563
0.000454413
-0.000705955
0.000486507
-0.000792237
0.000476667
-0.00084951
0.000435606
-0.000883141
0.000374515
-0.000900001
0.000302825
-0.000906473
0.000226368
-0.00090769
0.000148064
-0.000907335
6.83966e-05
-0.000909236
-1.26803e-05
-0.000911637
-9.85898e-05
-0.000914994
-0.000189686
-0.000916103
-0.000287618
-0.00090733
-0.000391156
-0.000875208
-0.000494446
-0.000802148
-0.000582464
-0.000672675
-0.000629141
-0.000484544
-0.000600485
-0.00026903
-0.000468967
-9.5879e-05
-0.000248925
-1.79673e-05
-3.36885e-05
1.56151e-06
7.37027e-05
2.78753e-06
9.68837e-05
5.87685e-05
-1.75924e-05
-1.94209e-05
-6.85068e-05
4.18543e-05
-0.000153932
0.000154693
-0.000273424
0.000283376
-0.000415102
0.000412727
-0.000552884
0.000514786
-0.000663606
0.000565135
-0.000739527
0.000562428
-0.000783333
0.000520473
-0.000801894
0.000454168
-0.000804139
0.00037676
-0.000797929
0.000296616
-0.0007891
0.000217539
-0.000781334
0.000140298
-0.000777018
6.40803e-05
-0.000777399
-1.22992e-05
-0.000783734
-9.22547e-05
-0.000797061
-0.000176359
-0.000817644
-0.000267035
-0.000842511
-0.000366289
-0.000862746
-0.000474211
-0.000860577
-0.000584633
-0.000808854
-0.000680863
-0.000679853
-0.000729486
-0.000467041
-0.000681779
-0.000218757
-0.000497209
-4.87467e-05
-0.000203699
-1.91804e-06
2.6874e-05
2.34547e-06
9.26202e-05
6.1114e-05
-3.89107e-05
1.94898e-05
-0.000115959
0.000118903
-0.000223813
0.000262547
-0.000353651
0.000413214
-0.000484563
0.000543639
-0.000591696
0.000621919
-0.000662621
0.000636059
-0.000699116
0.000598923
-0.00070927
0.000530627
-0.000703619
0.000448516
-0.000691749
0.000364889
-0.000679706
0.000284574
-0.000670574
0.000208407
-0.00066512
0.000134844
-0.000663294
6.22549e-05
-0.000664216
-1.13773e-05
-0.000669522
-8.69492e-05
-0.000680073
-0.000165808
-0.000697855
-0.000249253
-0.000725001
-0.000339143
-0.000761054
-0.000438159
-0.000797722
-0.000547964
-0.000814022
-0.000664564
-0.000774884
-0.000768624
-0.000640599
-0.000816064
-0.000401886
-0.000735923
-0.000131876
-0.000473708
-1.16453e-06
-0.000103837
4.25659e-06
8.71991e-05
6.53706e-05
-5.80477e-05
7.75375e-05
-0.000152978
0.000213833
-0.000269413
0.000378983
-0.000392348
0.000536149
-0.000499104
0.000650394
-0.000572177
0.000694992
-0.000609172
0.000673054
-0.000618287
0.000608038
-0.000610941
0.000523281
-0.000598275
0.000435851
-0.000587217
0.000353831
-0.00058039
0.000277747
-0.000577765
0.000205782
-0.000578112
0.00013519
-0.000580159
6.43026e-05
-0.000583427
-8.11002e-06
-0.000588074
-8.23018e-05
-0.000595145
-0.000158737
-0.000606462
-0.000237936
-0.000624582
-0.000321022
-0.00065241
-0.000410331
-0.000690552
-0.000509822
-0.000732062
-0.000623054
-0.000754057
-0.000746629
-0.000713604
-0.000856517
-0.000558895
-0.000890631
-0.000287891
-0.000744712
-4.00636e-05
-0.000351665
8.13338e-06
3.90021e-05
7.3504e-05
-7.03265e-05
0.000147864
-0.000172617
0.000316123
-0.000285527
0.000491893
-0.000391506
0.000642128
-0.000471331
0.00073022
-0.000515804
0.000739465
-0.00052992
0.00068717
-0.000525354
0.000603472
-0.000514227
0.000512154
-0.000505182
0.000426806
-0.000501211
0.00034986
-0.000502004
0.000278539
-0.000505765
0.000209543
-0.00051075
0.000140176
-0.00051573
6.92821e-05
-0.000520267
-3.57264e-06
-0.00052438
-7.81892e-05
-0.000528832
-0.000154284
-0.000535042
-0.000231727
-0.000545172
-0.000310892
-0.000562303
-0.0003932
-0.000589957
-0.000482168
-0.000629085
-0.000583926
-0.000671128
-0.000704586
-0.000688611
-0.000839034
-0.00063083
-0.000948412
-0.000443623
-0.00093192
-0.000136199
-0.000659089
1.21415e-05
-0.000109338
8.56455e-05
-7.29765e-05
0.000220841
-0.000172612
0.000415759
-0.000273596
0.000592876
-0.000359244
0.000727775
-0.00041552
0.000786496
-0.000440267
0.000764212
-0.000442761
0.000689664
-0.000435421
0.000596133
-0.000428571
0.000505303
-0.000427085
0.00042532
-0.000430947
0.000353722
-0.000438369
0.000285961
-0.00044714
0.000218314
-0.000455671
0.000148707
-0.000463043
7.66538e-05
-0.000468659
2.0436e-06
-0.000472927
-7.39215e-05
-0.000476087
-0.000151124
-0.000479004
-0.00022881
-0.000483032
-0.000306864
-0.000490409
-0.000385824
-0.000505004
-0.000467573
-0.000531826
-0.000557103
-0.00057246
-0.000663952
-0.000615164
-0.00079633
-0.000619227
-0.000944349
-0.000515794
-0.00103535
-0.000269898
-0.000904985
-1.11458e-05
-0.00036809
7.44997e-05
-6.66217e-05
0.000287462
-0.000156358
0.000505495
-0.000241612
0.00067813
-0.000308073
0.000794237
-0.000346801
0.000825224
-0.000360307
0.000777718
-0.000359239
0.000688596
-0.000354865
0.000591759
-0.000354561
0.000504999
-0.000360049
0.000430808
-0.000369799
0.000363472
-0.000381596
0.000297758
-0.000393449
0.000230166
-0.000404079
0.000159337
-0.000412625
8.51998e-05
-0.000419092
8.51099e-06
-0.000423289
-6.97248e-05
-0.000425999
-0.000148414
-0.000427916
-0.000226893
-0.000429855
-0.000304925
-0.000432789
-0.000382889
-0.000438608
-0.000461754
-0.000451971
-0.00054374
-0.000478889
-0.000637035
-0.00052107
-0.000754149
-0.000555917
-0.000909502
-0.00053147
-0.0010598
-0.000374712
-0.00106174
-6.90241e-05
-0.000673778
5.47558e-06
-5.32625e-05
0.000340725
-0.000128451
0.000580683
-0.000196556
0.000746236
-0.000246268
0.00084395
-0.000272831
0.000851786
-0.000281053
0.000785941
-0.000281033
0.000688575
-0.000281725
0.000592451
-0.000287543
0.000510817
-0.000298233
0.000441498
-0.000311807
0.000377046
-0.000326222
0.000312174
-0.000339889
0.000243833
-0.000351771
0.000171218
-0.000361246
9.46749e-05
-0.000368039
1.53043e-05
-0.00037234
-6.54241e-05
-0.000374579
-0.000146175
-0.000375546
-0.000225926
-0.000376143
-0.000304328
-0.000377342
-0.00038169
-0.000379991
-0.000459105
-0.00038663
-0.0005371
-0.000401213
-0.000622452
-0.00043135
-0.000724011
-0.000474331
-0.000866522
-0.000494938
-0.00103919
-0.000401646
-0.00115503
-0.000146273
-0.000929152
-0.000140797
-3.55603e-05
0.000376285
-9.38329e-05
0.000638956
-0.000145203
0.000797606
-0.000181418
0.000880165
-0.000200421
0.000870789
-0.000207356
0.000792875
-0.000210256
0.000691475
-0.000215451
0.000597647
-0.000225195
0.000520561
-0.000238522
0.000454824
-0.000253697
0.000392221
-0.000269115
0.000327592
-0.000283556
0.000258274
-0.000296139
0.000183801
-0.000306253
0.000104789
-0.000313605
2.26562e-05
-0.000318274
-6.07547e-05
-0.000320748
-0.0001437
-0.000321734
-0.00022494
-0.000321954
-0.000304108
-0.000322525
-0.00038112
-0.000323539
-0.000458091
-0.000326574
-0.000534066
-0.00033339
-0.000615636
-0.000352668
-0.000704733
-0.000390616
-0.000828574
-0.000430984
-0.000998824
-0.000397636
-0.00118838
-0.000219344
-0.00110744
-0.000360141
-1.58704e-05
0.000392156
-5.5859e-05
0.000678944
-9.12083e-05
0.000832955
-0.000116144
0.0009051
-0.000130015
0.00088466
-0.000136871
0.000799731
-0.000142427
0.000697031
-0.000150651
0.000605871
-0.000162421
0.00053233
-0.000176707
0.000469111
-0.000192169
0.000407682
-0.000207586
0.000343009
-0.000222015
0.000272704
-0.000234709
0.000196495
-0.000245113
0.000115193
-0.00025294
3.04838e-05
-0.000258191
-5.5504e-05
-0.000261237
-0.000140655
-0.000262907
-0.00022327
-0.000263749
-0.000303266
-0.000265222
-0.000379646
-0.00026693
-0.000456383
-0.000270027
-0.000530969
-0.000273871
-0.000611792
-0.000285521
-0.000693083
-0.000311026
-0.000803069
-0.000351622
-0.000958228
-0.000354773
-0.00118523
-0.000236108
-0.00122611
-0.000596249
4.15301e-06
0.000388003
-1.64588e-05
0.000699556
-3.76459e-05
0.000854142
-5.32731e-05
0.000920727
-6.37007e-05
0.000895088
-7.13158e-05
0.000807346
-7.91058e-05
0.000704821
-8.87224e-05
0.000615488
-0.00010042
0.000544028
-0.000113569
0.00048226
-0.000127426
0.000421539
-0.000141259
0.000356842
-0.000154459
0.000285904
-0.000166453
0.000208488
-0.000176752
0.000125493
-0.000185094
3.88253e-05
-0.000191421
-4.91766e-05
-0.000195821
-0.000136254
-0.000199076
-0.000220016
-0.000201556
-0.000300785
-0.000204366
-0.000376837
-0.000207573
-0.000453176
-0.000212011
-0.000526531
-0.000216631
-0.000607171
-0.000225333
-0.000684381
-0.000242126
-0.000786276
-0.000277644
-0.00092271
-0.0002985
-0.00116438
-0.000216103
-0.00130851
-0.000812352
2.40251e-05
0.000363977
2.21049e-05
0.000701476
1.45052e-05
0.000861742
7.58269e-06
0.00092765
1.19754e-06
0.000901473
-6.25392e-06
0.000814798
-1.4805e-05
0.000713372
-2.43663e-05
0.000625049
-3.46833e-05
0.000554345
-4.56252e-05
0.000493202
-5.70177e-05
0.000432932
-6.85507e-05
0.000368375
-7.98819e-05
0.000297235
-9.06265e-05
0.000219233
-0.000100468
0.000135335
-0.000109132
4.74887e-05
-0.000116762
-4.15465e-05
-0.000123068
-0.000129948
-0.000128825
-0.000214259
-0.000134278
-0.000295332
-0.000139996
-0.000371118
-0.000146473
-0.0004467
-0.000153505
-0.000519499
-0.000160603
-0.000600073
-0.00016849
-0.000676495
-0.000180266
-0.000774501
-0.000208805
-0.000894171
-0.000236305
-0.00113688
-0.00018562
-0.00135919
-0.000997972
4.13906e-05
0.000322587
5.85809e-05
0.000684286
6.46549e-05
0.000855668
6.62388e-05
0.000926066
6.25945e-05
0.000905117
5.51359e-05
0.000822256
4.62903e-05
0.000722217
3.78088e-05
0.000633531
3.01176e-05
0.000562036
2.28107e-05
0.000500509
1.54234e-05
0.000440319
7.71647e-06
0.000376081
-3.51871e-07
0.000305303
-8.7166e-06
0.000227597
-1.73679e-05
0.000143986
-2.60952e-05
5.6216e-05
-3.48776e-05
-3.2764e-05
-4.38197e-05
-0.000121006
-5.25577e-05
-0.000205521
-6.18421e-05
-0.000286048
-7.18183e-05
-0.000361142
-8.18604e-05
-0.000436658
-9.31488e-05
-0.000508211
-0.000104376
-0.000588846
-0.00011559
-0.000665281
-0.00012798
-0.00076211
-0.000152475
-0.000869677
-0.000182101
-0.00110725
-0.000154396
-0.0013869
-0.00115237
5.50878e-05
0.000267499
9.14922e-05
0.000647882
0.00011145
0.00083571
0.000122244
0.000915272
0.000123721
0.00090364
0.000118238
0.000827739
0.000110487
0.000729969
0.000103802
0.000640216
9.91179e-05
0.00056672
9.5737e-05
0.00050389
9.26291e-05
0.000443427
8.90384e-05
0.000379672
8.44558e-05
0.000309886
7.86529e-05
0.0002334
7.13503e-05
0.000151289
6.26765e-05
6.48897e-05
5.26689e-05
-2.27565e-05
4.10124e-05
-0.00010935
2.89417e-05
-0.00019345
1.4095e-05
-0.000271201
1.54413e-06
-0.000348591
-1.67329e-05
-0.00041838
-3.10774e-05
-0.000493866
-4.79681e-05
-0.000571955
-6.37897e-05
-0.000649459
-7.88049e-05
-0.000747095
-0.000102431
-0.000846051
-0.000134945
-0.00107474
-0.000127456
-0.00139439
-0.00127982
6.31317e-05
0.000204367
0.000118737
0.000592276
0.000153387
0.00080106
0.000173992
0.000894667
0.000181234
0.000896398
0.000178189
0.000830784
0.00017144
0.000736718
0.000166319
0.000645337
0.000164688
0.00056835
0.000165711
0.000502867
0.00016771
0.000441428
0.000169251
0.000378131
0.000169209
0.000309929
0.000167033
0.000235576
0.000162094
0.000156228
0.000154175
7.28088e-05
0.000143229
-1.18106e-05
0.000129507
-9.56277e-05
0.000112951
-0.000176894
9.48751e-05
-0.000253125
7.43966e-05
-0.000328113
5.27473e-05
-0.000396731
3.19614e-05
-0.00047308
5.99207e-06
-0.000545986
-1.21955e-05
-0.000631272
-3.5582e-05
-0.000723709
-6.26508e-05
-0.000818982
-9.8192e-05
-0.00103919
-0.000105131
-0.00138745
-0.00138495
6.35134e-05
0.000140854
0.000137711
0.000518078
0.000189056
0.000749715
0.000221793
0.00086193
0.000237706
0.000880485
0.000240358
0.000828133
0.000236833
0.000740243
0.000233856
0.000648314
0.000234712
0.000567494
0.0002392
0.000498379
0.000245411
0.000435217
0.000251438
0.000372104
0.00025548
0.000305886
0.000256534
0.000234522
0.00025371
0.000159051
0.000246467
8.0052e-05
0.000234855
-1.99019e-07
0.000218884
-7.96563e-05
0.000198948
-0.000156958
0.000176177
-0.000230354
0.000150061
-0.000301997
0.00012352
-0.00037019
9.47453e-05
-0.000444306
6.56868e-05
-0.000516927
3.71623e-05
-0.000602747
3.9977e-06
-0.000690544
-2.57024e-05
-0.000789282
-6.73852e-05
-0.000997511
-8.85343e-05
-0.0013663
-0.00147349
5.54063e-05
8.54476e-05
0.000146301
0.000427183
0.00021514
0.000680876
0.000261168
0.000815902
0.00028719
0.000854463
0.000296491
0.000818832
0.000296707
0.000740027
0.000295933
0.000649088
0.000298937
0.000564491
0.000306528
0.000490788
0.000316776
0.000424968
0.000327393
0.000361487
0.000335988
0.000297292
0.000340894
0.000229616
0.000340993
0.000158952
0.000335497
8.55483e-05
0.000324009
1.12884e-05
0.000306868
-6.25145e-05
0.000284453
-0.000134543
0.000257693
-0.000203594
0.000227305
-0.000271609
0.000194955
-0.000337839
0.000159683
-0.000409034
0.000124093
-0.000481337
8.59264e-05
-0.000564581
4.69247e-05
-0.000651542
7.89518e-06
-0.000750253
-4.29452e-05
-0.000946671
-7.70641e-05
-0.00133218
-0.00155055
4.26371e-05
4.28105e-05
0.000143107
0.000326713
0.000229392
0.000594591
0.000291629
0.000753666
0.000331827
0.000814264
0.000353077
0.000797582
0.00036151
0.000731594
0.000365264
0.000645334
0.000370561
0.000559194
0.000379905
0.000481443
0.00039224
0.000412634
0.000405432
0.000348294
0.000416928
0.000285797
0.000424511
0.000222032
0.000426693
0.00015677
0.000422342
8.98993e-05
0.000411246
2.23845e-05
0.000393203
-4.4471e-05
0.000368977
-0.000110317
0.000339312
-0.000173929
0.000305267
-0.000237565
0.00026779
-0.000300362
0.000227022
-0.000368267
0.000183933
-0.000438248
0.00013726
-0.000517908
8.85279e-05
-0.000602811
3.74497e-05
-0.000699174
-2.04504e-05
-0.000888771
-6.69742e-05
-0.00128565
-0.00161753
2.85417e-05
1.42689e-05
0.000127304
0.000227951
0.000226947
0.000494949
0.000304936
0.000675676
0.000360026
0.000759175
0.000394689
0.000762918
0.000413921
0.000712363
0.000425163
0.000634092
0.000434853
0.000549503
0.000446798
0.000469499
0.0004613
0.000398132
0.000476779
0.000332816
0.000490894
0.000271682
0.000501162
0.000211764
0.000505862
0.00015207
0.000503624
9.21367e-05
0.00049399
3.20192e-05
0.000476659
-2.71408e-05
0.000452354
-8.60116e-05
0.000421469
-0.000143044
0.000385176
-0.000201272
0.000343667
-0.000258853
0.00029753
-0.000322129
0.000246327
-0.000387044
0.00019041
-0.000461992
0.000129626
-0.000542026
6.75658e-05
-0.000637114
-1.52797e-06
-0.000819677
-5.34612e-05
-0.00123372
-0.00167099
1.69479e-05
-2.67908e-06
0.000100248
0.00014465
0.000207
0.000388197
0.000300982
0.000581695
0.000375545
0.000684612
0.00043037
0.000708093
0.000467101
0.000675632
0.000491899
0.000609294
0.000510173
0.00053123
0.000526517
0.000453154
0.000543024
0.000381625
0.000559317
0.000316523
0.00057398
0.000257018
0.000584907
0.000200837
0.00059049
0.000146487
0.000589143
9.34841e-05
0.000580369
4.07936e-05
0.000563657
-1.04296e-05
0.000539438
-6.17926e-05
0.000507765
-0.000111371
0.000469669
-0.000163175
0.000424553
-0.000213737
0.000373172
-0.000270749
0.000313529
-0.000327401
0.000247526
-0.000395989
0.000173178
-0.000467678
0.000100446
-0.000564382
2.58501e-05
-0.000745082
-3.96837e-05
-0.00116819
-0.00171067
8.11035e-06
-1.07894e-05
6.75149e-05
8.52457e-05
0.000163562
0.000292149
0.000265747
0.00047951
0.000357734
0.000592625
0.000432059
0.000633767
0.000490662
0.000617029
0.000534969
0.000564987
0.000568219
0.000497979
0.000595
0.000426374
0.000618057
0.000358568
0.000638222
0.000296359
0.000655254
0.000239986
0.000667981
0.000188109
0.000675202
0.000139267
0.000675637
9.30484e-05
0.00066862
4.78105e-05
0.000653587
4.60345e-06
0.000630627
-3.88326e-05
0.000599372
-8.01152e-05
0.000560297
-0.000124101
0.000512269
-0.000165708
0.000455529
-0.00021401
0.000387489
-0.00025936
0.000310472
-0.000318972
0.000220632
-0.000377838
0.000134737
-0.000478487
4.24408e-05
-0.000652785
-3.64468e-05
-0.0010893
-0.00174712
-3.02349e-06
-7.76594e-06
2.92422e-05
5.298e-05
0.000102769
0.000218622
0.000211106
0.000371174
0.000318713
0.000485018
0.000419621
0.000532859
0.000506245
0.000530405
0.000575616
0.000495616
0.000630629
0.000442966
0.000674028
0.000382975
0.000708284
0.000324312
0.000735468
0.000269174
0.000756341
0.000219114
0.000771197
0.000173253
0.000779266
0.000131198
0.000780336
9.19781e-05
0.000773494
5.46529e-05
0.000758474
1.96232e-05
0.000734897
-1.52555e-05
0.000702645
-4.78636e-05
0.000660711
-8.21667e-05
0.000608846
-0.000113844
0.000545855
-0.000151019
0.000470621
-0.000184126
0.000384255
-0.000232606
0.000283355
-0.000276938
0.000183978
-0.00037911
7.05427e-05
-0.00053935
-2.22744e-05
-0.000996483
-0.00176939
-3.9095e-05
3.13291e-05
-3.46905e-05
4.85755e-05
8.51164e-06
0.00017542
0.00010844
0.000271246
0.000222252
0.000371205
0.000348623
0.000406488
0.000462398
0.000416631
0.000561042
0.000396972
0.000643545
0.000360462
0.000710654
0.000315866
0.000763159
0.000271808
0.000805002
0.000227331
0.000835789
0.000188326
0.00085848
0.000150562
0.000871306
0.000118373
0.000876622
8.66618e-05
0.000871818
5.9457e-05
0.000859391
3.20497e-05
0.000836305
7.83132e-06
0.000805047
-1.6606e-05
0.000762301
-3.9421e-05
0.000709664
-6.12067e-05
0.000644187
-8.5542e-05
0.000567044
-0.000106982
0.000476945
-0.000142507
0.000375995
-0.000175987
0.000266856
-0.000269972
0.000155063
-0.000427556
4.86219e-05
-0.000890042
-0.00172077
-0.000142297
0.000173626
-0.000136076
4.23542e-05
-9.76493e-05
0.000136993
5.69885e-06
0.000167898
0.000133773
0.000243131
0.000284086
0.000256175
0.000420217
0.0002805
0.000550389
0.0002668
0.00065823
0.000252621
0.00074997
0.000224126
0.000822179
0.000199599
0.000880748
0.000168762
0.000923617
0.000145457
0.000955764
0.000118415
0.000974953
9.9184e-05
0.000985193
7.64215e-05
0.000983673
6.09764e-05
0.000973918
4.18051e-05
0.000952902
2.88471e-05
0.000923435
1.28612e-05
0.000883708
3.05486e-07
0.000834835
-1.23335e-05
0.000774357
-2.50635e-05
0.000705113
-3.77382e-05
0.000621034
-5.84283e-05
0.000532229
-8.71825e-05
0.000423701
-0.000161445
0.000331751
-0.000335606
0.000196733
-0.000755024
-0.00152404
-0.00011157
0.000285197
-0.000205231
0.000136015
-0.000190052
0.000121814
-0.000121058
9.89044e-05
1.96274e-05
0.000102445
0.000168667
0.000107135
0.00033228
0.000116887
0.000479691
0.000119389
0.000613302
0.00011901
0.000727011
0.000110417
0.000823208
0.000103402
0.000901365
9.06046e-05
0.000964553
8.22701e-05
0.00101384
6.91322e-05
0.00105079
6.22298e-05
0.00107722
4.99967e-05
0.00109305
4.51407e-05
0.00110114
3.37116e-05
0.0010991
3.08908e-05
0.00109217
1.97908e-05
0.00107348
1.89932e-05
0.00105356
7.59308e-06
0.00102002
8.47783e-06
0.000988349
-6.07224e-06
0.000934605
-4.68375e-06
0.000880273
-3.28506e-05
0.000776402
-5.75742e-05
0.000652158
-0.000211361
0.000405928
-0.000508794
-0.00111811
0.000285197
0.000421212
0.000543026
0.00064193
0.000744375
0.000851511
0.000968398
0.00108779
0.0012068
0.00131721
0.00142062
0.00151122
0.00159349
0.00166262
0.00172485
0.00177485
0.00181999
0.0018537
0.00188459
0.00190438
0.00192338
0.00193097
0.00193945
0.00193337
0.00192869
0.00189584
0.00183827
0.0016269
0.00111811
)
;

boundaryField
{
    movingWall
    {
        type            calculated;
        value           uniform 0;
    }
    fixedWalls
    {
        type            calculated;
        value           uniform 0;
    }
    frontAndBack
    {
        type            empty;
    }
}


// ************************************************************************* //
