/*--------------------------------*- C++ -*----------------------------------*\
| =========                 |                                                 |
| \\      /  F ield         | OpenFOAM: The Open Source CFD Toolbox           |
|  \\    /   O peration     | Version:  2406                                  |
|   \\  /    A nd           | Website:  www.openfoam.com                      |
|    \\/     M anipulation  |                                                 |
\*---------------------------------------------------------------------------*/
FoamFile
{
    version     2.0;
    format      ascii;
    arch        "LSB;label=32;scalar=64";
    class       surfaceScalarField;
    location    "8.6";
    object      phi;
}
// * * * * * * * * * * * * * * * * * * * * * * * * * * * * * * * * * * * * * //

dimensions      [0 3 -1 0 0 0 0];

oriented        oriented;

internalField   nonuniform List<scalar> 
7080
(
2.54396e-08
-2.557e-08
-9.6311e-08
1.25164e-07
-3.45834e-07
2.49265e-07
-6.83925e-07
3.4211e-07
-1.06738e-06
3.84243e-07
-1.46945e-06
4.06164e-07
-1.87603e-06
4.08092e-07
-2.27842e-06
4.06203e-07
-2.67521e-06
3.98689e-07
-3.06401e-06
3.92246e-07
-3.44604e-06
3.8414e-07
-3.82e-06
3.77076e-07
-4.1865e-06
3.68697e-07
-4.54384e-06
3.60178e-07
-4.89145e-06
3.49795e-07
-5.22696e-06
3.38068e-07
-5.54864e-06
3.23754e-07
-5.85341e-06
3.07033e-07
-6.13853e-06
2.86978e-07
-6.40022e-06
2.63593e-07
-6.63488e-06
2.36206e-07
-6.83821e-06
2.04798e-07
-7.00608e-06
1.68977e-07
-7.13401e-06
1.28861e-07
-7.21786e-06
8.44153e-08
-7.2536e-06
3.60403e-08
-7.23781e-06
-1.58611e-08
-7.1677e-06
-7.05057e-08
-7.04145e-06
-1.27028e-07
-6.85832e-06
-1.84258e-07
-6.61888e-06
-2.40943e-07
-6.32507e-06
-2.95647e-07
-5.98031e-06
-3.46925e-07
-5.58946e-06
-3.93317e-07
-5.1587e-06
-4.33474e-07
-4.69544e-06
-4.66214e-07
-4.20795e-06
-4.90589e-07
-3.70521e-06
-5.05978e-07
-3.19642e-06
-5.12052e-07
-2.69083e-06
-5.08909e-07
-2.19715e-06
-4.96899e-07
-1.72353e-06
-4.7681e-07
-1.27697e-06
-4.49529e-07
-8.63539e-07
-4.16328e-07
-4.87772e-07
-3.78316e-07
-1.53343e-07
-3.36911e-07
1.37674e-07
-2.9303e-07
3.8354e-07
-2.47874e-07
5.83911e-07
-2.01758e-07
7.37792e-07
-1.55399e-07
8.45337e-07
-1.08227e-07
9.04786e-07
-6.04908e-08
9.1573e-07
-1.08229e-08
8.74893e-07
4.02206e-08
7.82387e-07
9.35385e-08
6.37193e-07
1.44849e-07
4.50083e-07
1.89064e-07
2.42564e-07
2.07017e-07
6.77459e-08
1.77393e-07
6.76847e-08
-1.30726e-07
1.01835e-07
-5.7417e-07
5.69015e-07
-1.27488e-06
9.44039e-07
-2.15614e-06
1.22153e-06
-3.14849e-06
1.36991e-06
-4.19673e-06
1.45099e-06
-5.26953e-06
1.47425e-06
-6.34373e-06
1.47625e-06
-7.41105e-06
1.45976e-06
-8.46318e-06
1.43993e-06
-9.49899e-06
1.41416e-06
-1.05141e-05
1.38768e-06
-1.15075e-05
1.35671e-06
-1.24745e-05
1.32274e-06
-1.34121e-05
1.28247e-06
-1.43143e-05
1.23603e-06
-1.51758e-05
1.18078e-06
-1.59889e-05
1.11627e-06
-1.67462e-05
1.04044e-06
-1.74386e-05
9.52693e-07
-1.8057e-05
8.51538e-07
-1.85914e-05
7.36616e-07
-1.90318e-05
6.07225e-07
-1.93682e-05
4.63662e-07
-1.95911e-05
3.063e-07
-1.96919e-05
1.36474e-07
-1.96635e-05
-4.413e-08
-1.95001e-05
-2.3292e-07
-1.91987e-05
-4.26861e-07
-1.87585e-05
-6.22186e-07
-1.81816e-05
-8.14792e-07
-1.74734e-05
-1.00018e-06
-1.66423e-05
-1.1738e-06
-1.56995e-05
-1.33117e-06
-1.46595e-05
-1.46817e-06
-1.35388e-05
-1.58122e-06
-1.23558e-05
-1.66747e-06
-1.11305e-05
-1.72502e-06
-9.88321e-06
-1.75294e-06
-8.63435e-06
-1.75141e-06
-7.40341e-06
-1.72152e-06
-6.20869e-06
-1.66548e-06
-5.06637e-06
-1.58601e-06
-3.99066e-06
-1.48666e-06
-2.99295e-06
-1.37092e-06
-2.08271e-06
-1.2427e-06
-1.26652e-06
-1.10506e-06
-5.49931e-07
-9.61111e-07
6.37885e-08
-8.12323e-07
5.70651e-07
-6.60136e-07
9.68289e-07
-5.03753e-07
1.25157e-06
-3.4299e-07
1.41743e-06
-1.75605e-07
1.45933e-06
-2.36655e-09
1.37742e-06
1.75595e-07
1.17299e-06
3.47052e-07
8.69292e-07
4.92411e-07
5.06425e-07
5.664e-07
1.75099e-07
5.08835e-07
2.40232e-07
-2.89273e-07
3.90686e-07
-1.04312e-06
1.32908e-06
-2.15288e-06
2.0531e-06
-3.49792e-06
2.57296e-06
-4.99561e-06
2.86919e-06
-6.57213e-06
3.03371e-06
-8.18827e-06
3.09324e-06
-9.81093e-06
3.10469e-06
-1.14273e-05
3.07955e-06
-1.30238e-05
3.04175e-06
-1.45966e-05
2.99072e-06
-1.61382e-05
2.93411e-06
-1.76451e-05
2.86739e-06
-1.91099e-05
2.79197e-06
-2.05268e-05
2.70306e-06
-2.18866e-05
2.59991e-06
-2.31807e-05
2.47839e-06
-2.43979e-05
2.33703e-06
-2.55269e-05
2.17249e-06
-2.65545e-05
1.98332e-06
-2.74676e-05
1.76721e-06
-2.82521e-05
1.52344e-06
-2.88943e-05
1.25122e-06
-2.93805e-05
9.51302e-07
-2.96983e-05
6.2497e-07
-2.98365e-05
2.751e-07
-2.97863e-05
-9.45502e-08
-2.95412e-05
-4.78703e-07
-2.90983e-05
-8.7115e-07
-2.84579e-05
-1.26449e-06
-2.76244e-05
-1.6507e-06
-2.66065e-05
-2.02118e-06
-2.54166e-05
-2.36731e-06
-2.40711e-05
-2.68072e-06
-2.259e-05
-2.95377e-06
-2.09961e-05
-3.17993e-06
-1.93146e-05
-3.35405e-06
-1.75722e-05
-3.47275e-06
-1.5796e-05
-3.53444e-06
-1.40133e-05
-3.53957e-06
-1.22498e-05
-3.49025e-06
-1.05299e-05
-3.39054e-06
-8.87523e-06
-3.24555e-06
-7.30483e-06
-3.06173e-06
-5.83432e-06
-2.84561e-06
-4.47682e-06
-2.60418e-06
-3.24197e-06
-2.34321e-06
-2.13809e-06
-2.06815e-06
-1.17082e-06
-1.7819e-06
-3.46608e-07
-1.48665e-06
3.29791e-07
-1.18136e-06
8.50517e-07
-8.65155e-07
1.20992e-06
-5.34998e-07
1.39885e-06
-1.91954e-07
1.41638e-06
1.59402e-07
1.26404e-06
4.99289e-07
9.69972e-07
7.89124e-07
5.81796e-07
9.54262e-07
2.08507e-07
8.85632e-07
4.48954e-07
-4.35526e-07
8.21911e-07
-1.47221e-06
2.36924e-06
-2.93934e-06
3.51334e-06
-4.67408e-06
4.3086e-06
-6.58526e-06
4.77441e-06
-8.58728e-06
5.03474e-06
-1.06387e-05
5.13935e-06
-1.26999e-05
5.16392e-06
-1.47558e-05
5.13066e-06
-1.67881e-05
5.07158e-06
-1.87908e-05
4.98921e-06
-2.07529e-05
4.89337e-06
-2.26685e-05
4.77924e-06
-2.45273e-05
4.64794e-06
-2.6321e-05
4.49335e-06
-2.80375e-05
4.31362e-06
-2.96652e-05
4.10312e-06
-3.11899e-05
3.8592e-06
-3.25972e-05
3.57724e-06
-3.3871e-05
3.25492e-06
-3.4995e-05
2.88923e-06
-3.59525e-05
2.47927e-06
-3.67272e-05
2.02447e-06
-3.73033e-05
1.52642e-06
-3.76668e-05
9.87848e-07
-3.78057e-05
4.13742e-07
-3.77107e-05
-1.89388e-07
-3.73758e-05
-8.1287e-07
-3.67993e-05
-1.44659e-06
-3.59835e-05
-2.07879e-06
-3.49353e-05
-2.69684e-06
-3.36666e-05
-3.28746e-06
-3.21937e-05
-3.83741e-06
-3.05372e-05
-4.33405e-06
-2.87215e-05
-4.76594e-06
-2.67743e-05
-5.1234e-06
-2.47254e-05
-5.39899e-06
-2.26062e-05
-5.58791e-06
-2.04484e-05
-5.68808e-06
-1.82833e-05
-5.70048e-06
-1.61408e-05
-5.62862e-06
-1.40487e-05
-5.47877e-06
-1.20315e-05
-5.25887e-06
-1.0111e-05
-4.97873e-06
-8.30495e-06
-4.64826e-06
-6.62825e-06
-4.27799e-06
-5.092e-06
-3.87665e-06
-3.70576e-06
-3.45225e-06
-2.47627e-06
-3.0092e-06
-1.41111e-06
-2.5505e-06
-5.16192e-07
-2.07474e-06
1.99344e-07
-1.58032e-06
7.28613e-07
-1.06332e-06
1.06138e-06
-5.25391e-07
1.19605e-06
2.52397e-08
1.1342e-06
5.59356e-07
9.0464e-07
1.01915e-06
5.56925e-07
1.29911e-06
2.02736e-07
1.24083e-06
6.49657e-07
-5.46577e-07
1.36646e-06
-1.81733e-06
3.64814e-06
-3.58578e-06
5.27804e-06
-5.64869e-06
6.37799e-06
-7.90386e-06
7.02856e-06
-1.02548e-05
7.39093e-06
-1.26591e-05
7.54423e-06
-1.50728e-05
7.58217e-06
-1.74801e-05
7.53937e-06
-1.98596e-05
7.45493e-06
-2.22036e-05
7.33514e-06
-2.44983e-05
7.19144e-06
-2.67361e-05
7.01908e-06
-2.89037e-05
6.81859e-06
-3.09908e-05
6.58263e-06
-3.29826e-05
6.30808e-06
-3.48653e-05
5.98786e-06
-3.66218e-05
5.61803e-06
-3.82355e-05
5.19279e-06
-3.96876e-05
4.70896e-06
-4.09599e-05
4.16303e-06
-4.20333e-05
3.5541e-06
-4.28899e-05
2.88213e-06
-4.35126e-05
2.14995e-06
-4.38864e-05
1.36219e-06
-4.39989e-05
5.26475e-07
-4.38411e-05
-3.47337e-07
-4.34078e-05
-1.24658e-06
-4.26987e-05
-2.15659e-06
-4.1718e-05
-3.06066e-06
-4.04753e-05
-3.94099e-06
-3.89856e-05
-4.77905e-06
-3.72686e-05
-5.55658e-06
-3.53489e-05
-6.25628e-06
-3.32548e-05
-6.86267e-06
-3.10183e-05
-7.36283e-06
-2.86734e-05
-7.74695e-06
-2.62556e-05
-8.00895e-06
-2.38004e-05
-8.14651e-06
-2.13427e-05
-8.16147e-06
-1.89153e-05
-8.05914e-06
-1.65487e-05
-7.84856e-06
-1.42695e-05
-7.54102e-06
-1.21009e-05
-7.15022e-06
-1.00616e-05
-6.69008e-06
-8.16694e-06
-6.17511e-06
-6.42814e-06
-5.61743e-06
-4.85451e-06
-5.02792e-06
-3.45239e-06
-4.41267e-06
-2.22888e-06
-3.77557e-06
-1.18951e-06
-3.11472e-06
-3.43178e-07
-2.42777e-06
3.03273e-07
-1.70957e-06
7.39534e-07
-9.62408e-07
9.63673e-07
-1.9779e-07
9.77204e-07
5.45187e-07
8.08355e-07
1.19005e-06
5.07549e-07
1.5989e-06
1.85246e-07
1.56597e-06
8.34626e-07
-6.39197e-07
2.00056e-06
-2.10502e-06
5.12024e-06
-4.12347e-06
7.28853e-06
-6.45759e-06
8.71536e-06
-8.99424e-06
9.55941e-06
-1.1628e-05
1.00257e-05
-1.4316e-05
1.02278e-05
-1.70116e-05
1.02775e-05
-1.96987e-05
1.02228e-05
-2.23538e-05
1.0109e-05
-2.49682e-05
9.94643e-06
-2.75257e-05
9.74755e-06
-3.00172e-05
9.50782e-06
-3.2427e-05
9.22692e-06
-3.47432e-05
8.89639e-06
-3.69483e-05
8.51172e-06
-3.90269e-05
8.06442e-06
-4.09596e-05
7.54923e-06
-4.27277e-05
6.95925e-06
-4.43105e-05
6.29051e-06
-4.56879e-05
5.53914e-06
-4.68392e-05
4.70443e-06
-4.77451e-05
3.78713e-06
-4.83873e-05
2.79162e-06
-4.87503e-05
1.72477e-06
-4.88212e-05
5.97294e-07
-4.85912e-05
-5.77176e-07
-4.80559e-05
-1.78147e-06
-4.72159e-05
-2.99589e-06
-4.60774e-05
-4.19822e-06
-4.46522e-05
-5.36496e-06
-4.29579e-05
-6.47184e-06
-4.10176e-05
-7.49513e-06
-3.88594e-05
-8.41246e-06
-3.6516e-05
-9.20401e-06
-3.40231e-05
-9.8534e-06
-3.14192e-05
-1.03484e-05
-2.8744e-05
-1.06817e-05
-2.6037e-05
-1.0851e-05
-2.33367e-05
-1.08593e-05
-2.06791e-05
-1.07142e-05
-1.80972e-05
-1.04281e-05
-1.56195e-05
-1.00163e-05
-1.32704e-05
-9.49721e-06
-1.1069e-05
-8.88938e-06
-9.03033e-06
-8.21204e-06
-7.16468e-06
-7.48125e-06
-5.48004e-06
-6.7113e-06
-3.98102e-06
-5.91021e-06
-2.6729e-06
-5.08299e-06
-1.5593e-06
-4.22717e-06
-6.47372e-07
-3.33963e-06
5.7498e-08
-2.41355e-06
5.46206e-07
-1.45177e-06
8.17407e-07
-4.6823e-07
8.73139e-07
4.88003e-07
7.4098e-07
1.32314e-06
4.71531e-07
1.86604e-06
1.7247e-07
1.86644e-06
1.00555e-06
-7.10225e-07
2.7074e-06
-2.33255e-06
6.75215e-06
-4.55475e-06
9.50474e-06
-7.11189e-06
1.12794e-05
-9.88017e-06
1.23249e-05
-1.27458e-05
1.28963e-05
-1.56652e-05
1.31462e-05
-1.85892e-05
1.32053e-05
-2.15022e-05
1.31359e-05
-2.43791e-05
1.2989e-05
-2.72108e-05
1.27789e-05
-2.99795e-05
1.25188e-05
-3.26749e-05
1.22043e-05
-3.52797e-05
1.18339e-05
-3.77803e-05
1.13981e-05
-4.01576e-05
1.08909e-05
-4.23945e-05
1.03024e-05
-4.44696e-05
9.62591e-06
-4.63627e-05
8.85345e-06
-4.80512e-05
7.98028e-06
-4.95134e-05
7.00223e-06
-5.07268e-05
5.91882e-06
-5.16709e-05
4.73178e-06
-5.23258e-05
3.44715e-06
-5.26751e-05
2.07432e-06
-5.2705e-05
6.27325e-07
-5.24063e-05
-8.76025e-07
-5.17744e-05
-2.41364e-06
-5.08105e-05
-3.96025e-06
-4.95219e-05
-5.48757e-06
-4.79221e-05
-6.96573e-06
-4.60311e-05
-8.36407e-06
-4.38749e-05
-9.65266e-06
-4.14854e-05
-1.08035e-05
-3.88993e-05
-1.17918e-05
-3.61572e-05
-1.25973e-05
-3.33023e-05
-1.32052e-05
-3.03792e-05
-1.36067e-05
-2.74324e-05
-1.37997e-05
-2.45049e-05
-1.37888e-05
-2.16366e-05
-1.35843e-05
-1.88638e-05
-1.32028e-05
-1.62174e-05
-1.26645e-05
-1.37231e-05
-1.19933e-05
-1.14003e-05
-1.12136e-05
-9.26369e-06
-1.03503e-05
-7.32181e-06
-9.42428e-06
-5.58042e-06
-8.45405e-06
-4.04131e-06
-7.45003e-06
-2.70665e-06
-6.41878e-06
-1.57686e-06
-5.35717e-06
-6.56148e-07
-4.26126e-06
5.2701e-08
-3.12203e-06
5.42613e-07
-1.94251e-06
8.13668e-07
-7.38244e-07
8.6891e-07
4.31838e-07
7.36386e-07
1.45745e-06
4.67538e-07
2.13351e-06
1.70006e-07
2.16642e-06
1.17497e-06
-7.69818e-07
3.47164e-06
-2.52043e-06
8.51102e-06
-4.90893e-06
1.18844e-05
-7.64839e-06
1.40238e-05
-1.06058e-05
1.52764e-05
-1.36607e-05
1.59536e-05
-1.67687e-05
1.62499e-05
-1.98787e-05
1.63162e-05
-2.29759e-05
1.62299e-05
-2.60341e-05
1.60471e-05
-2.90442e-05
1.57865e-05
-3.1987e-05
1.54611e-05
-3.48518e-05
1.5067e-05
-3.76199e-05
1.46012e-05
-4.02765e-05
1.40531e-05
-4.28012e-05
1.34148e-05
-4.51754e-05
1.26752e-05
-4.73763e-05
1.1826e-05
-4.9382e-05
1.08581e-05
-5.11683e-05
9.76583e-06
-5.27117e-05
8.54471e-06
-5.39878e-05
7.19442e-06
-5.49742e-05
5.7176e-06
-5.56493e-05
4.12195e-06
-5.59947e-05
2.41945e-06
-5.5995e-05
6.27622e-07
-5.56397e-05
-1.23131e-06
-5.49231e-05
-3.12993e-06
-5.38461e-05
-5.03683e-06
-5.2416e-05
-6.91698e-06
-5.06477e-05
-8.73332e-06
-4.85629e-05
-1.04479e-05
-4.61909e-05
-1.20236e-05
-4.35672e-05
-1.3426e-05
-4.07331e-05
-1.46245e-05
-3.77346e-05
-1.55944e-05
-3.46206e-05
-1.63177e-05
-3.14415e-05
-1.67843e-05
-2.82478e-05
-1.69919e-05
-2.50881e-05
-1.6947e-05
-2.20074e-05
-1.66634e-05
-1.90464e-05
-1.61624e-05
-1.62392e-05
-1.54702e-05
-1.36137e-05
-1.46176e-05
-1.11901e-05
-1.36359e-05
-8.98216e-06
-1.25572e-05
-6.99665e-06
-1.14086e-05
-5.23628e-06
-1.02137e-05
-3.69892e-06
-8.98631e-06
-2.38246e-06
-7.73493e-06
-1.28283e-06
-6.45586e-06
-4.00085e-07
-5.14416e-06
2.66761e-07
-3.78799e-06
7.13536e-07
-2.38999e-06
9.4268e-07
-9.6642e-07
9.58833e-07
4.14319e-07
7.91712e-07
1.62587e-06
4.94489e-07
2.42858e-06
1.77622e-07
2.4851e-06
1.35123e-06
-8.16921e-07
4.28424e-06
-2.67111e-06
1.03758e-05
-5.19491e-06
1.44007e-05
-8.08382e-06
1.69201e-05
-1.11973e-05
1.83857e-05
-1.44089e-05
1.91702e-05
-1.76737e-05
1.95126e-05
-2.09391e-05
1.95852e-05
-2.41908e-05
1.94809e-05
-2.74022e-05
1.92611e-05
-3.05644e-05
1.89487e-05
-3.36577e-05
1.85565e-05
-3.6671e-05
1.80807e-05
-3.95847e-05
1.75166e-05
-4.23835e-05
1.68524e-05
-4.50457e-05
1.60784e-05
-4.75518e-05
1.51818e-05
-4.98774e-05
1.41527e-05
-5.19992e-05
1.29806e-05
-5.38911e-05
1.16586e-05
-5.55277e-05
1.01817e-05
-5.68821e-05
8.54953e-06
-5.79295e-05
6.7653e-06
-5.86454e-05
4.83823e-06
-5.90085e-05
2.78277e-06
-5.90007e-05
6.19939e-07
-5.86088e-05
-1.62337e-06
-5.78249e-05
-3.91399e-06
-5.66484e-05
-6.21368e-06
-5.50861e-05
-8.47969e-06
-5.31534e-05
-1.06666e-05
-5.0874e-05
-1.2728e-05
-4.82801e-05
-1.46184e-05
-4.54115e-05
-1.62955e-05
-4.23148e-05
-1.77223e-05
-3.90416e-05
-1.88687e-05
-3.56473e-05
-1.97131e-05
-3.21893e-05
-2.02435e-05
-2.87247e-05
-2.04577e-05
-2.53092e-05
-2.03638e-05
-2.19944e-05
-1.99794e-05
-1.88268e-05
-1.93313e-05
-1.58454e-05
-1.84525e-05
-1.30817e-05
-1.73825e-05
-1.05574e-05
-1.6161e-05
-8.28626e-06
-1.48294e-05
-6.27288e-06
-1.34225e-05
-4.5163e-06
-1.19713e-05
-3.00942e-06
-1.04935e-05
-1.74448e-06
-9.00074e-06
-7.11439e-07
-7.4888e-06
9.50944e-08
-5.95153e-06
6.81113e-07
-4.37345e-06
1.04618e-06
-2.75598e-06
1.19604e-06
-1.11515e-06
1.13751e-06
4.71634e-07
9.03444e-07
1.86177e-06
5.50025e-07
2.78018e-06
1.93863e-07
2.84383e-06
1.54417e-06
-8.57225e-07
5.13559e-06
-2.7973e-06
1.23254e-05
-5.43265e-06
1.70266e-05
-8.44504e-06
1.99385e-05
-1.16879e-05
2.16225e-05
-1.50306e-05
2.25163e-05
-1.84274e-05
2.29053e-05
-2.18251e-05
2.29846e-05
-2.521e-05
2.28629e-05
-2.85553e-05
2.26071e-05
-3.18529e-05
2.22441e-05
-3.50826e-05
2.17864e-05
-3.82336e-05
2.123e-05
-4.12858e-05
2.05685e-05
-4.42235e-05
1.97888e-05
-4.70242e-05
1.88788e-05
-4.96675e-05
1.78241e-05
-5.21277e-05
1.66125e-05
-5.438e-05
1.52321e-05
-5.63962e-05
1.36743e-05
-5.81482e-05
1.19332e-05
-5.96065e-05
1.00075e-05
-6.07425e-05
7.90095e-06
-6.15282e-05
5.62369e-06
-6.1938e-05
3.19238e-06
-6.19495e-05
6.31486e-07
-6.15457e-05
-2.02719e-06
-6.07154e-05
-4.74411e-06
-5.94557e-05
-7.47317e-06
-5.77724e-05
-1.01626e-05
-5.56816e-05
-1.2757e-05
-5.32092e-05
-1.51999e-05
-5.03909e-05
-1.74361e-05
-4.72712e-05
-1.94145e-05
-4.39017e-05
-2.1091e-05
-4.03397e-05
-2.24298e-05
-3.66465e-05
-2.34055e-05
-3.28855e-05
-2.40037e-05
-2.91207e-05
-2.42215e-05
-2.54152e-05
-2.40683e-05
-2.18289e-05
-2.35647e-05
-1.84165e-05
-2.27428e-05
-1.5225e-05
-2.16431e-05
-1.22922e-05
-2.03145e-05
-9.64414e-06
-1.88081e-05
-7.29628e-06
-1.71767e-05
-5.25184e-06
-1.54661e-05
-3.50591e-06
-1.37169e-05
-2.04518e-06
-1.19534e-05
-8.54543e-07
-1.01914e-05
8.40807e-08
-8.42656e-06
7.83494e-07
-6.65132e-06
1.25648e-06
-4.84548e-06
1.50764e-06
-3.00802e-06
1.54718e-06
-1.15348e-06
1.38488e-06
6.3242e-07
1.05791e-06
2.19046e-06
6.26659e-07
3.20902e-06
2.16248e-07
3.25666e-06
1.75895e-06
-8.90237e-07
6.02087e-06
-2.90147e-06
1.43479e-05
-5.62959e-06
1.97462e-05
-8.74534e-06
2.30619e-05
-1.20976e-05
2.49699e-05
-1.55525e-05
2.59762e-05
-1.90639e-05
2.6414e-05
-2.25782e-05
2.65022e-05
-2.60825e-05
2.63659e-05
-2.95504e-05
2.60774e-05
-3.29745e-05
2.56676e-05
-3.63349e-05
2.51486e-05
-3.96213e-05
2.45163e-05
-4.28134e-05
2.3762e-05
-4.58955e-05
2.28711e-05
-4.88447e-05
2.18291e-05
-5.16398e-05
2.06194e-05
-5.42538e-05
1.92274e-05
-5.66603e-05
1.76389e-05
-5.88285e-05
1.58432e-05
-6.07277e-05
1.38326e-05
-6.23243e-05
1.16046e-05
-6.35854e-05
9.16226e-06
-6.44777e-05
6.51628e-06
-6.49703e-05
3.68512e-06
-6.50354e-05
6.96679e-07
-6.46509e-05
-2.41185e-06
-6.38017e-05
-5.59338e-06
-6.24828e-05
-8.79224e-06
-6.07002e-05
-1.19454e-05
-5.84719e-05
-1.49857e-05
-5.58276e-05
-1.78447e-05
-5.28075e-05
-2.04568e-05
-4.946e-05
-2.27626e-05
-4.58399e-05
-2.47117e-05
-4.20063e-05
-2.62641e-05
-3.80215e-05
-2.7391e-05
-3.39505e-05
-2.80754e-05
-2.98608e-05
-2.83119e-05
-2.58219e-05
-2.8108e-05
-2.19034e-05
-2.74839e-05
-1.81727e-05
-2.64743e-05
-1.46909e-05
-2.51255e-05
-1.15094e-05
-2.34967e-05
-8.66566e-06
-2.16523e-05
-6.18197e-06
-1.96612e-05
-4.06354e-06
-1.75847e-05
-2.30255e-06
-1.54786e-05
-8.78396e-07
-1.33775e-05
2.33884e-07
-1.13044e-05
1.06369e-06
-9.25601e-06
1.63459e-06
-7.22309e-06
1.96922e-06
-5.17934e-06
2.07954e-06
-3.11944e-06
1.98208e-06
-1.05468e-06
1.69075e-06
9.22175e-07
1.24841e-06
2.63493e-06
7.20785e-07
3.73421e-06
2.43484e-07
3.73701e-06
2.00108e-06
-9.193e-07
6.93406e-06
-2.99118e-06
1.64303e-05
-5.79799e-06
2.2543e-05
-9.00177e-06
2.62724e-05
-1.24481e-05
2.841e-05
-1.60008e-05
2.95328e-05
-1.96139e-05
3.0023e-05
-2.32338e-05
3.01242e-05
-2.68488e-05
2.99781e-05
-3.04329e-05
2.96627e-05
-3.398e-05
2.92128e-05
-3.74709e-05
2.864e-05
-4.08959e-05
2.79398e-05
-4.42351e-05
2.71013e-05
-4.74731e-05
2.6108e-05
-5.05867e-05
2.49426e-05
-5.3554e-05
2.35859e-05
-5.63471e-05
2.20203e-05
-5.89376e-05
2.02287e-05
-6.12921e-05
1.81975e-05
-6.33761e-05
1.59161e-05
-6.51517e-05
1.338e-05
-6.65804e-05
1.05906e-05
-6.76228e-05
7.5585e-06
-6.82414e-05
4.30353e-06
-6.84022e-05
8.575e-07
-6.80786e-05
-2.73555e-06
-6.72533e-05
-6.41858e-06
-6.59224e-05
-1.01231e-05
-6.40962e-05
-1.37715e-05
-6.17995e-05
-1.72822e-05
-5.9069e-05
-2.05748e-05
-5.59498e-05
-2.35757e-05
-5.24902e-05
-2.62218e-05
-4.87393e-05
-2.84622e-05
-4.47453e-05
-3.02577e-05
-4.0557e-05
-3.15788e-05
-3.62274e-05
-3.24046e-05
-3.18169e-05
-3.27218e-05
-2.73966e-05
-3.25278e-05
-2.30474e-05
-3.18325e-05
-1.88579e-05
-3.06634e-05
-1.49164e-05
-2.90663e-05
-1.13046e-05
-2.71082e-05
-8.08736e-06
-2.48689e-05
-5.30812e-06
-2.24402e-05
-2.98374e-06
-1.99084e-05
-1.10815e-06
-1.73541e-05
3.46575e-07
-1.48314e-05
1.4189e-06
-1.2377e-05
2.15531e-06
-9.99155e-06
2.59655e-06
-7.66494e-06
2.78113e-06
-5.36283e-06
2.73322e-06
-3.07266e-06
2.47934e-06
-7.99284e-07
2.03983e-06
1.35982e-06
1.46508e-06
3.21191e-06
8.27308e-07
4.36903e-06
2.74075e-07
4.29344e-06
2.27339e-06
-9.43892e-07
7.87259e-06
-3.06762e-06
1.85657e-05
-5.942e-06
2.54082e-05
-9.22201e-06
2.95604e-05
-1.2751e-05
3.19337e-05
-1.63912e-05
3.31782e-05
-2.00973e-05
3.3726e-05
-2.38159e-05
3.38463e-05
-2.75369e-05
3.36973e-05
-3.12352e-05
3.33633e-05
-3.4906e-05
3.28829e-05
-3.85313e-05
3.22669e-05
-4.21023e-05
3.15105e-05
-4.56e-05
3.06002e-05
-4.90096e-05
2.95176e-05
-5.2308e-05
2.82418e-05
-5.54729e-05
2.6751e-05
-5.84753e-05
2.50234e-05
-6.1285e-05
2.30385e-05
-6.38655e-05
2.07786e-05
-6.61785e-05
1.82293e-05
-6.81807e-05
1.53826e-05
-6.98275e-05
1.22375e-05
-7.10724e-05
8.80366e-06
-7.18718e-05
5.10302e-06
-7.21873e-05
1.17315e-06
-7.19917e-05
-2.93122e-06
-7.12728e-05
-7.13751e-06
-7.00378e-05
-1.13582e-05
-6.83129e-05
-1.54966e-05
-6.61395e-05
-1.94559e-05
-6.3566e-05
-2.31487e-05
-6.06376e-05
-2.65045e-05
-5.73885e-05
-2.94713e-05
-5.38376e-05
-3.20135e-05
-4.99918e-05
-3.41041e-05
-4.58536e-05
-3.57176e-05
-4.14344e-05
-3.68245e-05
-3.67657e-05
-3.73911e-05
-3.19097e-05
-3.73847e-05
-2.69606e-05
-3.67821e-05
-2.20429e-05
-3.55818e-05
-1.7298e-05
-3.38117e-05
-1.287e-05
-3.15368e-05
-8.88585e-06
-2.88533e-05
-5.44145e-06
-2.58852e-05
-2.58911e-06
-2.27607e-05
-3.38424e-07
-1.96055e-05
1.34205e-06
-1.65116e-05
2.50879e-06
-1.35445e-05
3.23523e-06
-1.07174e-05
3.59145e-06
-8.02216e-06
3.64381e-06
-5.41417e-06
3.43882e-06
-2.86905e-06
3.02065e-06
-3.79462e-07
2.42131e-06
1.95713e-06
1.70206e-06
3.93375e-06
9.43714e-07
5.12421e-06
3.07406e-07
4.93352e-06
2.57898e-06
-9.65938e-07
8.83222e-06
-3.13479e-06
2.07457e-05
-6.06797e-06
2.83311e-05
-9.41492e-06
3.29146e-05
-1.30176e-05
3.55299e-05
-1.67374e-05
3.69022e-05
-2.05299e-05
3.75142e-05
-2.43426e-05
3.76614e-05
-2.8167e-05
3.75189e-05
-3.19794e-05
3.71771e-05
-3.57769e-05
3.66783e-05
-3.95424e-05
3.60331e-05
-4.32692e-05
3.52359e-05
-4.69391e-05
3.42704e-05
-5.05384e-05
3.31159e-05
-5.40444e-05
3.17479e-05
-5.7435e-05
3.01408e-05
-6.06801e-05
2.82684e-05
-6.37478e-05
2.61057e-05
-6.65987e-05
2.36293e-05
-6.91902e-05
2.08203e-05
-7.14733e-05
1.76656e-05
-7.33975e-05
1.41613e-05
-7.49107e-05
1.03167e-05
-7.59665e-05
6.15859e-06
-7.65298e-05
1.73632e-06
-7.65859e-05
-2.87527e-06
-7.61468e-05
-7.5766e-06
-7.5254e-05
-1.22511e-05
-7.39714e-05
-1.67791e-05
-7.23712e-05
-2.1056e-05
-7.05125e-05
-2.50074e-05
-6.84216e-05
-2.85953e-05
-6.608e-05
-3.1813e-05
-6.34247e-05
-3.46689e-05
-6.03624e-05
-3.71666e-05
-5.67928e-05
-3.92873e-05
-5.26372e-05
-4.09803e-05
-4.78641e-05
-4.21643e-05
-4.25095e-05
-4.27396e-05
-3.66838e-05
-4.26079e-05
-3.05688e-05
-4.16971e-05
-2.43983e-05
-3.99821e-05
-1.84324e-05
-3.7503e-05
-1.29203e-05
-3.43651e-05
-8.07037e-06
-3.07354e-05
-4.02047e-06
-2.68101e-05
-8.30028e-07
-2.27962e-05
1.52062e-06
-1.88615e-05
3.10801e-06
-1.51324e-05
4.04708e-06
-1.16555e-05
4.45853e-06
-8.43452e-06
4.45902e-06
-5.41335e-06
4.13745e-06
-2.54896e-06
3.57138e-06
1.88464e-07
2.81548e-06
2.71072e-06
1.94903e-06
4.803e-06
1.06558e-06
6.00403e-06
3.42425e-07
5.66076e-06
2.91923e-06
-9.84545e-07
9.81115e-06
-3.19221e-06
2.29656e-05
-6.17657e-06
3.13058e-05
-9.58264e-06
3.63289e-05
-1.32517e-05
3.91933e-05
-1.70449e-05
4.07007e-05
-2.0919e-05
4.13851e-05
-2.48228e-05
4.15688e-05
-2.87496e-05
4.14439e-05
-3.26774e-05
4.11073e-05
-3.66054e-05
4.06054e-05
-4.05185e-05
3.99478e-05
-4.44116e-05
3.91286e-05
-4.82685e-05
3.81285e-05
-5.20768e-05
3.69241e-05
-5.58148e-05
3.54868e-05
-5.9461e-05
3.3787e-05
-6.29848e-05
3.1793e-05
-6.63529e-05
2.94739e-05
-6.95233e-05
2.68002e-05
-7.24492e-05
2.37464e-05
-7.50774e-05
2.02942e-05
-7.73532e-05
1.64372e-05
-7.92246e-05
1.21884e-05
-8.0654e-05
7.58807e-06
-8.16297e-05
2.71217e-06
-8.21804e-05
-2.32453e-06
-8.23814e-05
-7.37563e-06
-8.23482e-05
-1.22844e-05
-8.22123e-05
-1.69151e-05
-8.2083e-05
-2.11856e-05
-8.2006e-05
-2.50848e-05
-8.19339e-05
-2.86679e-05
-8.17183e-05
-3.20293e-05
-8.11265e-05
-3.52614e-05
-7.98795e-05
-3.84143e-05
-7.77004e-05
-4.14672e-05
-7.43637e-05
-4.43178e-05
-6.97375e-05
-4.67913e-05
-6.3813e-05
-4.8665e-05
-5.67171e-05
-4.97046e-05
-4.87099e-05
-4.97054e-05
-4.01603e-05
-4.85325e-05
-3.15092e-05
-4.61553e-05
-2.3212e-05
-4.26628e-05
-1.5683e-05
-3.82654e-05
-9.2359e-06
-3.32573e-05
-4.0523e-06
-2.79808e-05
-1.68034e-07
-2.27454e-05
2.50122e-06
-1.78026e-05
4.1262e-06
-1.32796e-05
4.9095e-06
-9.21907e-06
5.05558e-06
-5.55811e-06
4.73184e-06
-2.22694e-06
4.0788e-06
8.4356e-07
3.19555e-06
3.59144e-06
2.19382e-06
5.80791e-06
1.18854e-06
7.00536e-06
3.78316e-07
6.47561e-06
3.29525e-06
-1.00079e-06
1.08054e-05
-3.24153e-06
2.52178e-05
-6.26992e-06
3.43235e-05
-9.72785e-06
3.97943e-05
-1.34565e-05
4.29152e-05
-1.73172e-05
4.45658e-05
-2.12684e-05
4.5332e-05
-2.52603e-05
4.55632e-05
-2.92885e-05
4.54691e-05
-3.33329e-05
4.51531e-05
-3.73952e-05
4.46656e-05
-4.14625e-05
4.40159e-05
-4.55323e-05
4.3197e-05
-4.95906e-05
4.2187e-05
-5.3627e-05
4.09595e-05
-5.76217e-05
3.94816e-05
-6.15541e-05
3.77186e-05
-6.53941e-05
3.56329e-05
-6.91077e-05
3.31869e-05
-7.26511e-05
3.03434e-05
-7.59753e-05
2.70701e-05
-7.90255e-05
2.33442e-05
-8.17505e-05
1.91619e-05
-8.41133e-05
1.4551e-05
-8.61119e-05
9.5864e-06
-8.78013e-05
4.4014e-06
-8.9311e-05
-8.15093e-07
-9.08415e-05
-5.84535e-06
-9.26314e-05
-1.04946e-05
-9.48949e-05
-1.46519e-05
-9.77465e-05
-1.83343e-05
-0.00010114
-2.1691e-05
-0.000104845
-2.49631e-05
-0.000108463
-2.84121e-05
-0.000111481
-3.22427e-05
-0.000113353
-3.65425e-05
-0.000113568
-4.12519e-05
-0.000111721
-4.6164e-05
-0.000107561
-5.09508e-05
-0.000101021
-5.52042e-05
-9.22361e-05
-5.84888e-05
-8.15432e-05
-6.03982e-05
-6.94614e-05
-6.06141e-05
-5.66546e-05
-5.89626e-05
-4.38625e-05
-5.5455e-05
-3.18176e-05
-5.03112e-05
-2.11426e-05
-4.39322e-05
-1.2272e-05
-3.68523e-05
-5.39814e-06
-2.96187e-05
-4.83005e-07
-2.27188e-05
2.69521e-06
-1.64568e-05
4.45436e-06
-1.09795e-05
5.13977e-06
-6.24192e-06
5.05458e-06
-2.14364e-06
4.45259e-06
1.44784e-06
3.51611e-06
4.52508e-06
2.41599e-06
6.91147e-06
1.3053e-06
8.11165e-06
4.13683e-07
7.37221e-06
3.70633e-06
-1.01327e-06
1.1813e-05
-3.28064e-06
2.74977e-05
-6.34567e-06
3.73787e-05
-9.84815e-06
4.33053e-05
-1.36297e-05
4.6691e-05
-1.75522e-05
4.84938e-05
-2.15758e-05
4.93523e-05
-2.56526e-05
4.96436e-05
-2.97805e-05
4.95952e-05
-3.3942e-05
4.93171e-05
-3.81413e-05
4.8864e-05
-4.23685e-05
4.82448e-05
-4.6624e-05
4.74521e-05
-5.08967e-05
4.64609e-05
-5.51792e-05
4.52419e-05
-5.94541e-05
4.37574e-05
-6.37031e-05
4.19677e-05
-6.78976e-05
3.98281e-05
-7.20043e-05
3.72937e-05
-7.59796e-05
3.43193e-05
-7.97763e-05
3.08669e-05
-8.33463e-05
2.69146e-05
-8.66587e-05
2.24745e-05
-8.97232e-05
1.76158e-05
-9.26269e-05
1.24902e-05
-9.55655e-05
7.34033e-06
-9.8854e-05
2.47345e-06
-0.000102887
-1.81263e-06
-0.000108047
-5.33461e-06
-0.000114583
-8.11593e-06
-0.000122499
-1.0418e-05
-0.000131501
-1.26893e-05
-0.000141012
-1.54511e-05
-0.00015026
-1.91636e-05
-0.000158384
-2.41173e-05
-0.00016455
-3.03747e-05
-0.000168036
-3.77639e-05
-0.000168288
-4.59098e-05
-0.000164954
-5.4283e-05
-0.000157902
-6.22535e-05
-0.000147241
-6.91475e-05
-0.00013333
-7.43081e-05
-0.00011678
-7.71623e-05
-9.84444e-05
-7.72983e-05
-7.93588e-05
-7.45401e-05
-6.06549e-05
-6.9016e-05
-4.34143e-05
-6.11729e-05
-2.85189e-05
-5.17492e-05
-1.65103e-05
-4.16269e-05
-7.53958e-06
-3.1691e-05
-1.39885e-06
-2.25964e-05
2.35475e-06
-1.47348e-05
4.266e-06
-8.15142e-06
4.85295e-06
-2.73277e-06
4.55904e-06
1.74431e-06
3.71255e-06
5.3685e-06
2.58842e-06
8.0394e-06
1.40723e-06
9.28816e-06
4.47229e-07
8.33769e-06
4.15084e-06
-1.0227e-06
1.2829e-05
-3.30987e-06
2.97964e-05
-6.40335e-06
4.04613e-05
-9.94221e-06
4.68516e-05
-1.37689e-05
5.05107e-05
-1.77463e-05
5.24756e-05
-2.18365e-05
5.3438e-05
-2.59936e-05
5.38031e-05
-3.02179e-05
5.38165e-05
-3.44948e-05
5.35953e-05
-3.88318e-05
5.31989e-05
-4.32222e-05
5.26358e-05
-4.767e-05
5.18984e-05
-5.21676e-05
5.09588e-05
-5.67117e-05
4.97849e-05
-6.12885e-05
4.83342e-05
-6.58832e-05
4.65615e-05
-7.04702e-05
4.4415e-05
-7.50195e-05
4.18423e-05
-7.9492e-05
3.87915e-05
-8.38501e-05
3.52244e-05
-8.80695e-05
3.11338e-05
-9.2173e-05
2.65774e-05
-9.62752e-05
2.17177e-05
-0.000100639
1.68531e-05
-0.000105703
1.2404e-05
-0.000112053
8.82299e-06
-0.000120299
6.43375e-06
-0.000130895
5.26093e-06
-0.000143951
4.94065e-06
-0.000159137
4.76872e-06
-0.000175697
3.87142e-06
-0.000192573
1.4264e-06
-0.000208582
-3.15135e-06
-0.000222583
-1.0114e-05
-0.000233576
-1.93786e-05
-0.000240755
-3.05807e-05
-0.000243519
-4.31429e-05
-0.00024146
-5.63374e-05
-0.000234374
-6.93349e-05
-0.000222271
-8.12467e-05
-0.000205407
-9.11679e-05
-0.00018433
-9.8235e-05
-0.000159917
-0.000101708
-0.000133376
-0.000101078
-0.0001062
-9.61911e-05
-8.00161e-05
-8.73558e-05
-5.6371e-05
-7.53953e-05
-3.64564e-05
-6.15408e-05
-2.09068e-05
-4.72424e-05
-9.72631e-06
-3.37756e-05
-2.41555e-06
-2.20476e-05
1.8073e-06
-1.23722e-05
3.76956e-06
-4.69752e-06
4.20989e-06
1.30678e-06
3.69538e-06
5.8796e-06
2.67493e-06
9.06388e-06
1.48373e-06
1.04743e-05
4.77794e-07
9.34937e-06
4.62566e-06
-1.02708e-06
1.38504e-05
-3.32575e-06
3.21079e-05
-6.43833e-06
4.3564e-05
-1.00044e-05
5.04264e-05
-1.38675e-05
5.43682e-05
-1.78919e-05
5.65058e-05
-2.20415e-05
5.75845e-05
-2.62725e-05
5.8038e-05
-3.05882e-05
5.81304e-05
-3.49769e-05
5.79866e-05
-3.94495e-05
5.76706e-05
-4.40032e-05
5.71914e-05
-4.86463e-05
5.65412e-05
-5.33759e-05
5.56897e-05
-5.81934e-05
5.46023e-05
-6.309e-05
5.32318e-05
-6.80563e-05
5.15279e-05
-7.30724e-05
4.94319e-05
-7.81151e-05
4.68852e-05
-8.31574e-05
4.38345e-05
-8.81867e-05
4.0254e-05
-9.32337e-05
3.61813e-05
-9.84318e-05
3.17759e-05
-0.000104091
2.73769e-05
-0.00011076
2.35227e-05
-0.000119219
2.08636e-05
-0.000130343
1.99477e-05
-0.00014485
2.09408e-05
-0.000163018
2.34301e-05
-0.000184512
2.64353e-05
-0.000208385
2.86442e-05
-0.000233275
2.87626e-05
-0.00025767
2.58239e-05
-0.000280158
1.93386e-05
-0.000299551
9.28162e-06
-0.000314921
-4.00643e-06
-0.000325567
-1.99315e-05
-0.00033097
-3.77375e-05
-0.000330741
-5.65639e-05
-0.0003246
-7.54736e-05
-0.000312382
-9.34613e-05
-0.000294087
-0.000109459
-0.000269963
-0.000122354
-0.000240613
-0.000131053
-0.000207103
-0.000134583
-0.000171015
-0.000132275
-0.0001344
-0.000123968
-9.95663e-05
-0.000110228
-6.86964e-05
-9.24092e-05
-4.33941e-05
-7.25466e-05
-2.43286e-05
-5.28398e-05
-1.12084e-05
-3.51702e-05
-3.06263e-06
-2.05157e-05
1.33749e-06
-9.1005e-06
3.16394e-06
-5.16459e-07
3.35445e-06
5.68542e-06
2.63459e-06
9.78817e-06
1.5252e-06
1.15784e-05
5.05532e-07
1.03752e-05
5.12819e-06
-1.02725e-06
1.48708e-05
-3.32828e-06
3.44204e-05
-6.44903e-06
4.66736e-05
-1.00312e-05
5.40159e-05
-1.39201e-05
5.825e-05
-1.79814e-05
6.05712e-05
-2.21809e-05
6.17792e-05
-2.64771e-05
6.23364e-05
-3.0876e-05
6.25261e-05
-3.53692e-05
6.24811e-05
-3.99717e-05
6.22708e-05
-4.4685e-05
6.19051e-05
-4.95222e-05
6.13767e-05
-5.44859e-05
6.06535e-05
-5.95837e-05
5.96988e-05
-6.48134e-05
5.84614e-05
-7.0173e-05
5.68865e-05
-7.56516e-05
5.49102e-05
-8.12395e-05
5.24722e-05
-8.69338e-05
4.95284e-05
-9.2773e-05
4.60924e-05
-9.88926e-05
4.23004e-05
-0.00010562
3.85026e-05
-0.000113571
3.53272e-05
-0.000123683
3.36343e-05
-0.000137092
3.42724e-05
-0.000154821
3.76763e-05
-0.000177378
4.34984e-05
-0.000204465