/*--------------------------------*- C++ -*----------------------------------*\
| =========                 |                                                 |
| \\      /  F ield         | OpenFOAM: The Open Source CFD Toolbox           |
|  \\    /   O peration     | Version:  2406                                  |
|   \\  /    A nd           | Website:  www.openfoam.com                      |
|    \\/     M anipulation  |                                                 |
\*---------------------------------------------------------------------------*/
FoamFile
{
    version     2.0;
    format      ascii;
    arch        "LSB;label=32;scalar=64";
    class       surfaceScalarField;
    location    "40";
    object      phi;
}
// * * * * * * * * * * * * * * * * * * * * * * * * * * * * * * * * * * * * * //

dimensions      [0 3 -1 0 0 0 0];

oriented        oriented;

internalField   nonuniform List<scalar> 
7080
(
2.4447e-07
-2.43302e-07
1.4565e-06
-1.24797e-06
3.23222e-06
-1.77461e-06
5.03617e-06
-1.83361e-06
6.51668e-06
-1.48432e-06
7.48466e-06
-9.84955e-07
7.97751e-06
-4.92978e-07
8.10517e-06
-1.32428e-07
8.0266e-06
8.34181e-08
7.83622e-06
1.94048e-07
7.56349e-06
2.82456e-07
7.14722e-06
4.27813e-07
6.47517e-06
6.89964e-07
5.40012e-06
1.09846e-06
3.76921e-06
1.66295e-06
1.42888e-06
2.38139e-06
-1.76535e-06
3.24592e-06
-5.94608e-06
4.24289e-06
-1.12258e-05
5.35333e-06
-1.76868e-05
6.54782e-06
-2.53595e-05
7.77494e-06
-3.4194e-05
8.95174e-06
-4.40317e-05
9.9657e-06
-5.45854e-05
1.06847e-05
-6.54326e-05
1.09718e-05
-7.60293e-05
1.07062e-05
-8.57461e-05
9.80407e-06
-9.39192e-05
8.2337e-06
-9.99071e-05
6.01911e-06
-0.000103141
3.23525e-06
-0.00010317
2.84944e-11
-9.96933e-05
-3.53308e-06
-9.25946e-05
-7.18061e-06
-8.19653e-05
-1.07337e-05
-6.81248e-05
-1.39638e-05
-5.16306e-05
-1.66326e-05
-3.32716e-05
-1.85081e-05
-1.40392e-05
-1.93879e-05
4.93407e-06
-1.91299e-05
2.24666e-05
-1.76846e-05
3.745e-05
-1.51242e-05
4.89835e-05
-1.16566e-05
5.65019e-05
-7.61651e-06
5.98616e-05
-3.42816e-06
5.93649e-05
4.62407e-07
5.56978e-05
3.66576e-06
4.97977e-05
5.93043e-06
4.26686e-05
7.18159e-06
3.52137e-05
7.5238e-06
2.81089e-05
7.17671e-06
2.1774e-05
6.40783e-06
1.63871e-05
5.44875e-06
1.19682e-05
4.47763e-06
8.4195e-06
3.59027e-06
5.61505e-06
2.84806e-06
3.40229e-06
2.23453e-06
1.70237e-06
1.7334e-06
5.06308e-07
1.20015e-06
-8.22864e-08
6.16264e-07
-8.25301e-08
1.16682e-06
-1.37447e-06
3.98439e-06
-4.06816e-06
7.65456e-06
-5.39213e-06
1.12325e-05
-5.3976e-06
1.4122e-05
-4.33573e-06
1.5947e-05
-2.79953e-06
1.66987e-05
-1.22809e-06
1.64872e-05
7.77367e-08
1.55044e-05
1.06508e-06
1.38356e-05
1.85115e-06
1.14437e-05
2.65976e-06
8.12774e-06
3.71944e-06
3.58531e-06
5.19985e-06
-2.55088e-06
7.18851e-06
-1.06524e-05
9.70345e-06
-2.10641e-05
1.27134e-05
-3.40623e-05
1.61457e-05
-4.98109e-05
1.98748e-05
-6.82875e-05
2.36961e-05
-8.92106e-05
2.73168e-05
-0.000112001
3.03856e-05
-0.000135806
3.25517e-05
-0.000159589
3.35237e-05
-0.000182244
3.31087e-05
-0.000202713
3.12215e-05
-0.000220073
2.78729e-05
-0.000233572
2.31507e-05
-0.000242643
1.72009e-05
-0.000246887
1.02131e-05
-0.000246056
2.411e-06
-0.000240041
-5.95151e-06
-0.000228868
-1.45892e-05
-0.000212701
-2.31816e-05
-0.000191857
-3.13691e-05
-0.000166822
-3.87536e-05
-0.000138275
-4.49085e-05
-0.000107092
-4.9401e-05
-7.43501e-05
-5.18313e-05
-4.12971e-05
-5.18865e-05
-9.29621e-06
-4.94025e-05
2.02614e-05
-4.44239e-05
4.6067e-05
-3.72421e-05
6.70198e-05
-2.83979e-05
8.23391e-05
-1.86349e-05
9.16597e-05
-8.80769e-06
9.50779e-05
2.35521e-07
9.31609e-05
7.7832e-06
8.68805e-05
1.33561e-05
7.74963e-05
1.67807e-05
6.63559e-05
1.81797e-05
5.47072e-05
1.79283e-05
4.3512e-05
1.65239e-05
3.34039e-05
1.44887e-05
2.46632e-05
1.22413e-05
1.73562e-05
1.00935e-05
1.1366e-05
8.1594e-06
6.61334e-06
6.45687e-06
3.02895e-06
4.73465e-06
7.70728e-07
2.87561e-06
6.60598e-07
1.76573e-06
-3.13632e-06
5.5722e-06
-7.93045e-06
1.02431e-05
-1.00587e-05
1.45133e-05
-9.71061e-06
1.76843e-05
-7.51357e-06
1.93007e-05
-4.4399e-06
1.93287e-05
-1.25812e-06
1.78252e-05
1.57444e-06
1.49021e-05
3.99397e-06
1.05105e-05
6.24861e-06
4.43785e-06
8.74672e-06
-3.7172e-06
1.18931e-05
-1.44499e-05
1.5961e-05
-2.82818e-05
2.10587e-05
-4.56644e-05
2.71388e-05
-6.68921e-05
3.40099e-05
-9.19719e-05
4.13123e-05
-0.000120506
4.85098e-05
-0.000151642
5.4945e-05
-0.000184163
5.99618e-05
-0.000216674
6.30344e-05
-0.000247812
6.38444e-05
-0.000276409
6.22864e-05
-0.000301557
5.84247e-05
-0.000322611
5.24341e-05
-0.000339148
4.45471e-05
-0.00035091
3.50196e-05
-0.00035775
2.41127e-05
-0.000359596
1.20892e-05
-0.000356415
-7.81405e-07
-0.00034821
-1.42112e-05
-0.000335018
-2.78779e-05
-0.000316926
-4.14076e-05
-0.000294104
-5.43605e-05
-0.000266832
-6.62228e-05
-0.000235547
-7.64124e-05
-0.000200877
-8.43048e-05
-0.000163666
-8.92823e-05
-0.000124979
-9.08104e-05
-8.60739e-05
-8.85315e-05
-4.83354e-05
-8.23638e-05
-1.31733e-05
-7.25738e-05
1.81001e-05
-5.98004e-05
4.43851e-05
-4.50043e-05
6.48911e-05
-2.93507e-05
7.9185e-05
-1.40525e-05
8.72267e-05
-2.13739e-07
8.93709e-05
1.12829e-05
8.63745e-05
1.98676e-05
7.93269e-05
2.53214e-05
6.95447e-05
2.78069e-05
5.83501e-05
2.7802e-05
4.69143e-05
2.60057e-05
3.60659e-05
2.31492e-05
2.63389e-05
1.98838e-05
1.79218e-05
1.66086e-05
1.09432e-05
1.34878e-05
5.3961e-06
1.02824e-05
1.61964e-06
6.70337e-06
2.27607e-06
2.1582e-06
-5.26078e-06
6.47633e-06
-1.22765e-05
1.13962e-05
-1.49318e-05
1.54169e-05
-1.37378e-05
1.78242e-05
-9.89283e-06
1.81691e-05
-4.78505e-06
1.64162e-05
5.07041e-07
1.25311e-05
5.45632e-06
6.45137e-06
1.00738e-05
-2.11583e-06
1.48068e-05
-1.36425e-05
2.02633e-05
-2.87451e-05
2.69783e-05
-4.80253e-05
3.52191e-05
-7.19354e-05
4.49387e-05
-0.000100594
5.5759e-05
-0.000133623
6.69884e-05
-0.000170059
7.76853e-05
-0.000208463
8.68371e-05
-0.000247184
9.35803e-05
-0.000284675
9.73587e-05
-0.000319695
9.79523e-05
-0.000351373
9.54141e-05
-0.000379168
8.99704e-05
-0.000402783
8.19328e-05
-0.000422078
7.1635e-05
-0.000437006
5.93978e-05
-0.000447556
4.55145e-05
-0.000453725
3.02503e-05
-0.000455492
1.38521e-05
-0.000452816
-3.43551e-06
-0.000445629
-2.13499e-05
-0.000433848
-3.95849e-05
-0.000417391
-5.77654e-05
-0.00039621
-7.54214e-05
-0.000370324
-9.19696e-05
-0.000339874
-0.000106709
-0.000305177
-0.000118838
-0.000266787
-0.000127505
-0.000225532
-0.000131899
-0.000182534
-0.000131371
-0.000139169
-0.000125585
-9.69722e-05
-0.000114647
-5.74875e-05
-9.91859e-05
-2.20962e-05
-8.03248e-05
8.1334e-06
-5.95381e-05
3.25101e-05
-3.8417e-05
5.07191e-05
-1.84354e-05
6.27584e-05
-7.93017e-07
6.89242e-05
1.3652e-05
6.97969e-05
2.43859e-05
6.62711e-05
3.12718e-05
5.94597e-05
3.45485e-05
5.06036e-05
3.48112e-05
4.08229e-05
3.28745e-05
3.107e-05
2.96061e-05
2.19313e-05
2.56998e-05
1.38828e-05
2.15311e-05
7.12784e-06
1.6986e-05
2.27356e-06
1.15833e-05
4.51633e-06
2.38687e-06
-7.63183e-06
6.81167e-06
-1.67553e-05
1.13443e-05
-1.94415e-05
1.43119e-05
-1.67377e-05
1.50369e-05
-1.06115e-05
1.31245e-05
-2.88869e-06
8.53391e-06
5.10066e-06
1.09858e-06
1.2887e-05
-9.48481e-06
2.06625e-05
-2.37943e-05
2.91203e-05
-4.25252e-05
3.9005e-05
-6.63416e-05
5.08083e-05
-9.56111e-05
6.45092e-05
-0.000130187
7.95406e-05
-0.000169236
9.48398e-05
-0.00021128
0.00010907
-0.000254478
0.000120929
-0.000297034
0.000129446
-0.0003375
0.000134105
-0.000374885
0.000134807
-0.000408602
0.000131738
-0.000438365
0.000125249
-0.000464078
0.000115753
-0.000485753
0.000103669
-0.000503455
8.93859e-05
-0.000517267
7.32429e-05
-0.000527266
5.55294e-05
-0.000533509
3.64896e-05
-0.000536014
1.63355e-05
-0.000534754
-4.73488e-06
-0.000529647
-2.6513e-05
-0.000520553
-4.87504e-05
-0.000507277
-7.11257e-05
-0.000489587
-9.32079e-05
-0.000467239
-0.000114423
-0.000440029
-0.000134029
-0.000407867
-0.000151113
-0.000370864
-0.000164622
-0.000329432
-0.00017344
-0.000284374
-0.000176531
-0.000236931
-0.00017312
-0.000188742
-0.000162916
-0.000141701
-0.000146291
-9.77161e-05
-0.000124356
-5.84137e-05
-9.88678e-05
-2.49117e-05
-7.19284e-05
2.25764e-06
-4.55943e-05
2.30253e-05
-2.15367e-05
3.76239e-05
-9.08089e-07
4.64485e-05
1.56026e-05
5.00818e-05
2.76868e-05
4.92932e-05
3.53765e-05
4.50854e-05
3.90638e-05
3.85245e-05
3.94622e-05
3.07069e-05
3.74634e-05
2.24809e-05
3.3934e-05
1.46429e-05
2.94108e-05
7.67837e-06
2.39309e-05
2.48692e-06
1.68306e-05
6.98882e-06
2.49701e-06
-1.00999e-05
6.58801e-06
-2.08829e-05
1.00298e-05
-2.2845e-05
1.11051e-05
-1.7827e-05
9.24091e-06
-8.72803e-06
4.12136e-06
2.22617e-06
-4.34724e-06
1.35767e-05
-1.65276e-05
2.50633e-05
-3.30026e-05
3.71369e-05
-5.45656e-05
5.06768e-05
-8.18995e-05
6.63327e-05
-0.000115282
8.41799e-05
-0.000154274
0.000103488
-0.000197631
0.000122879
-0.000243477
0.000140662
-0.000289737
0.000155302
-0.000334588
0.000165747
-0.000376701
0.000171522
-0.000415253
0.000172617
-0.000449819
0.00016933
-0.000480246
0.00016212
-0.000506554
0.00015151
-0.000528867
0.000138022
-0.000547374
0.000122138
-0.000562294
0.000104277
-0.000573858
8.4788e-05
-0.000582282
6.39462e-05
-0.00058775
4.19623e-05
-0.000590393
1.89955e-05
-0.000590274
-4.82641e-06
-0.000587367
-2.93825e-05
-0.000581544
-5.45268e-05
-0.000572564
-8.00522e-05
-0.000560067
-0.000105646
-0.000543583
-0.000130843
-0.000522566
-0.000154979
-0.000496453
-0.000177158
-0.000464766
-0.00019624
-0.000427253
-0.000210885
-0.000384058
-0.000219658
-0.000335889
-0.000221226
-0.000284122
-0.000214626
-0.00023079
-0.000199574
-0.000178382
-0.000176728
-0.000129448
-0.00014778
-8.61061e-05
-0.000115264
-4.96441e-05
-8.20608e-05
-2.0439e-05
-5.07589e-05
1.81116e-06
-2.31792e-05
1.76883e-05
-3.03426e-07
2.78483e-05
1.7502e-05
3.2955e-05
3.02382e-05
3.38051e-05
3.81937e-05
3.12851e-05
4.19515e-05
2.64323e-05
4.2307e-05
2.01822e-05
4.01519e-05
1.35277e-05
3.60739e-05
7.20737e-06
3.02069e-05
2.33986e-06
2.17321e-05
9.2987e-06
2.41536e-06
-1.24994e-05
5.6398e-06
-2.41486e-05
7.24436e-06
-2.44276e-05
5.62282e-06
-1.62257e-05
3.48967e-07
-3.44685e-06
-8.83166e-06
1.13986e-05
-2.21381e-05
2.68864e-05
-4.01559e-05
4.30799e-05
-6.36597e-05
6.06451e-05
-9.33753e-05
8.03965e-05
-0.000129506
0.000102471
-0.000171418
0.0001261
-0.000217557
0.000149638
-0.000265769
0.000171103
-0.000313817
0.000188724
-0.000359849
0.00020135
-0.000402581
0.000208498
-0.000441258
0.00021022
-0.00047552
0.000206899
-0.00050528
0.000199111
-0.000530646
0.000187505
-0.000551855
0.000172737
-0.000569239
0.000155419
-0.000583177
0.000136085
-0.000594071
0.000115174
-0.000602309
9.30229e-05
-0.000608248
6.98736e-05
-0.000612187
4.58837e-05
-0.00061436
2.11435e-05
-0.000614917
-4.30138e-06
-0.000613909
-3.0428e-05
-0.000611274
-5.72064e-05
-0.000606808
-8.45672e-05
-0.000600149
-0.000112359
-0.000590749
-0.0001403
-0.000577874
-0.000167916
-0.000560616
-0.000194479
-0.000537967
-0.000218954
-0.000508941
-0.000239974
-0.000472781
-0.000255878
-0.000429217
-0.000264842
-0.000378756
-0.00026513
-0.000322894
-0.000255467
-0.000264162
-0.00023548
-0.000205869
-0.000206082
-0.000151511
-0.000169624
-0.000103965
-0.000129603
-6.48333e-05
-8.98832e-05
-3.4293e-05
-5.37051e-05
-1.15737e-05
-2.3009e-05
4.417e-06
1.53245e-06
1.46673e-05
2.00022e-05
2.00686e-05
3.28159e-05
2.14518e-05
4.05771e-05
1.97649e-05
4.40185e-05
1.59322e-05
4.39825e-05
1.10191e-05
4.10172e-05
5.9344e-06
3.52702e-05
1.89868e-06
2.58118e-05
1.11833e-05
2.04921e-06
-1.45335e-05
3.75722e-06
-2.5878e-05
2.72907e-06
-2.33807e-05
-2.35511e-06
-1.11476e-05
-1.17731e-05
5.9779e-06
-2.57624e-05
2.53861e-05
-4.47207e-05
4.58453e-05
-6.93784e-05
6.77355e-05
-0.000100434
9.16982e-05
-0.000138091
0.00011805
-0.000181617
0.000145993
-0.000229288
0.000173765
-0.000278751
0.000199092
-0.000327622
0.000219965
-0.000373965
0.000235055
-0.000416457
0.00024383
-0.000454326
0.000246354
-0.000487222
0.000243102
-0.000515109
0.000234773
-0.00053819
0.00022218
-0.000556843
0.000206148
-0.000571561
0.00018745
-0.000582897
0.000166755
-0.000591415
0.000144608
-0.00059765
0.000121419
-0.000602081
9.74722e-05
-0.000605124
7.29409e-05
-0.000607122
4.79114e-05
-0.000608343
2.24006e-05
-0.000608984
-3.61988e-06
-0.00060916
-3.02067e-05
-0.000608895
-5.74219e-05
-0.000608099
-8.53114e-05
-0.000606531
-0.000113873
-0.000603759
-0.000143019
-0.000599106
-0.000172518
-0.000591614
-0.000201923
-0.000580037
-0.000230488
-0.000562889
-0.000257085
-0.000538597
-0.000280142
-0.000505754
-0.000297662
-0.000463509
-0.000307358
-0.000412002
-0.000306961
-0.000352756
-0.000294714
-0.000288833
-0.000269995
-0.000224551
-0.000233899
-0.000164636
-0.000189515
-0.000112995
-0.00014153
-7.16375e-05
-9.50699e-05
-4.04958e-05
-5.4165e-05
-1.81735e-05
-2.07995e-05
-3.00667e-06
4.81881e-06
6.43217e-06
2.33707e-05
1.1247e-05
3.57448e-05
1.24553e-05
4.28101e-05
1.10014e-05
4.54159e-05
7.9665e-06
4.40624e-05
4.34936e-06
3.88578e-05
1.35966e-06
2.88265e-05
1.25235e-05
1.28546e-06
-1.58187e-05
7.63833e-07
-2.53623e-05
-3.64138e-06
-1.8976e-05
-1.28191e-05
-1.96804e-06
-2.69484e-05
2.01046e-05
-4.62911e-05
4.47324e-05
-7.13918e-05
7.09454e-05
-0.000102892
9.924e-05
-0.000141017
0.000129825
-0.000185058
0.000162095
-0.000233244
0.000194182
-0.000283103
0.000223627
-0.000332102
0.000248094
-0.000378165
0.000266032
-0.000419866
0.000276761
-0.000456372
0.000280339
-0.000487323
0.00027731
-0.000512744
0.000268526
-0.000532954
0.000254987
-0.000548492
0.000237722
-0.000560027
0.000217686
-0.000568277
0.000195701
-0.000573939
0.000172416
-0.000577649
0.000148314
-0.000579951
0.000123714
-0.000581297
9.88063e-05
-0.000582047
7.3676e-05
-0.000582489
4.83337e-05
-0.000582846
2.27351e-05
-0.000583294
-3.19717e-06
-0.000583966
-2.95627e-05
-0.000584949
-5.64687e-05
-0.000586269
-8.40212e-05
-0.000587864
-0.000112308
-0.000589532
-0.000141379
-0.000590869
-0.000171207
-0.000591181
-0.000201634
-0.000589406
-0.000232285
-0.000584055
-0.000262456
-0.000573227
-0.00029099
-0.000554747
-0.000316165
-0.000526475
-0.000335652
-0.000486815
-0.000346643
-0.000435352
-0.000346196
-0.000373488
-0.00033187
-0.000304792
-0.000302599
-0.000234727
-0.000259575
-0.000169516
-0.000206735
-0.000114296
-0.00015028
-7.15144e-05
-9.69411e-05
-4.06694e-05
-5.16341e-05
-1.96161e-05
-1.62313e-05
-6.02001e-06
9.78717e-06
1.9463e-06
2.7779e-05
5.69189e-06
3.90792e-05
6.34653e-06
4.47564e-05
5.04481e-06
4.53826e-05
2.83698e-06
4.10513e-05
8.60363e-07
3.08288e-05
1.33755e-05
4.12787e-08
-1.58724e-05
-3.41721e-06
-2.18801e-05
-1.18266e-05
-1.05864e-05
-2.55548e-05
1.17774e-05
-4.47551e-05
3.92919e-05
-6.96976e-05
6.9683e-05
-0.000100921
0.00010216
-0.000138645
0.000136966
-0.000182295
0.00017347
-0.000230163
0.000209963
-0.000279756
0.000243769
-0.000328393
0.000272262
-0.00037383
0.000293526
-0.000414484
0.000306683
-0.000449429
0.000311702
-0.000478288
0.000309197
-0.000501148
0.000300169
-0.000518461
0.000285841
-0.000530937
0.000267466
-0.000539419
0.00024621
-0.000544778
0.000223052
-0.000547826
0.000198757
-0.000549262
0.000173864
-0.000549655
0.00014872
-0.000549443
0.000123517
-0.000548953
9.83337e-05
-0.000548423
7.31661e-05
-0.000548031
4.79633e-05
-0.000547914
2.2642e-05
-0.000548189
-2.89564e-06
-0.000548966
-2.87582e-05
-0.000550349
-5.50565e-05
-0.000552435
-8.19053e-05
-0.000555295
-0.000109417
-0.000558943
-0.0001377
-0.000563279
-0.000166841
-0.000568006
-0.000196877
-0.000572518
-0.000227742
-0.000575775
-0.000259171
-0.000576175
-0.000290563
-0.000571512
-0.000320805
-0.000559064
-0.000348083
-0.000535929
-0.000369769
-0.00049964
-0.000382483
-0.000449043
-0.000382472
-0.000385249
-0.000366399
-0.000312282
-0.000332545
-0.000236886
-0.000282132
-0.000167012
-0.000220153
-0.000109181
-0.000154777
-6.61052e-05
-9.47104e-05
-3.65935e-05
-4.57526e-05
-1.75709e-05
-9.23583e-06
-6.08211e-06
1.62793e-05
1.0958e-07
3.28906e-05
2.61659e-06
4.22367e-05
2.77509e-06
4.52319e-05
1.71852e-06
4.20912e-05
5.24043e-07
3.20369e-05
1.38894e-05
-1.70932e-06
-1.41943e-05
-8.69646e-06
-1.48362e-05
-2.15213e-05
2.19306e-06
-4.00079e-05
3.02999e-05
-6.43416e-05
6.36036e-05
-9.47037e-05
0.000100065
-0.000131393
0.00013884
-0.000173919
0.000179505
-0.000220824
0.000220371
-0.000269644
0.00025879
-0.000317636
0.000291758
-0.00036234
0.000316969
-0.000401998
0.000333184
-0.000435551
0.000340237
-0.000462592
0.000338744
-0.000483256
0.000329863
-0.000498125
0.000315039
-0.00050807
0.000295786
-0.000514103
0.000273498
-0.000517232
0.000249336
-0.000518359
0.000224175
-0.000518226
0.000198618
-0.000517398
0.000173027
-0.000516276
0.000147586
-0.000515126
0.000122353
-0.000514115
9.73069e-05
-0.000513347
7.23786e-05
-0.000512885
4.74811e-05
-0.000512784
2.25174e-05
-0.000513097
-2.60708e-06
-0.000513895
-2.79866e-05
-0.000515268
-5.37109e-05
-0.000517328
-7.98728e-05
-0.000520206
-0.000106567
-0.000524032
-0.0001339
-0.000528911
-0.000161986
-0.000534865
-0.000190946
-0.000541744
-0.000220883
-0.000549097
-0.000251833
-0.000556003
-0.000283668
-0.000560879
-0.000315934
-0.000561351
-0.000347613
-0.000554262
-0.000376858
-0.000535983
-0.000400762
-0.000503124
-0.000415334
-0.000453656
-0.000415874
-0.000388264
-0.000397945
-0.000311406
-0.000358995
-0.000231265
-0.00030029
-0.000157766
-0.000228272
-9.87775e-05
-0.000153688
-5.69041e-05
-8.76251e-05
-2.98199e-05
-3.63118e-05
-1.34747e-05
-6.96151e-08
-4.37818e-06
2.3804e-05
-3.84261e-08
3.78912e-05
1.34786e-06
4.38573e-05
1.12013e-06
4.23094e-05
3.9182e-07
3.27796e-05
1.42766e-05
-3.923e-06
-1.03228e-05
-1.48456e-05
-3.81971e-06
-3.22508e-05
1.95219e-05
-5.54397e-05
5.35416e-05
-8.46332e-05
9.27584e-05
-0.000119762
0.000135218
-0.000160666
0.000179724
-0.000206036
0.000224884
-0.000253699
0.000268022
-0.000300832
0.000305925
-0.000344846
0.000335766
-0.000383729
0.000355852
-0.00041628
0.000365732
-0.000442
0.000365959
-0.000461056
0.0003578
-0.000474117
0.000342926
-0.000482203
0.000323127
-0.000486471
0.000300058
-0.000488052
0.000275084
-0.000487926
0.000249215
-0.000486865
0.000223119
-0.000485417
0.000197177
-0.000483941
0.000171559
-0.000482642
0.000146297
-0.000481621
0.000121342
-0.000480909
9.66078e-05
-0.000480508
7.19915e-05
-0.000480408
4.73963e-05
-0.000480605
2.27316e-05
-0.000481114
-2.08027e-06
-0.000481972
-2.71095e-05
-0.000483246
-5.24173e-05
-0.000485035
-7.80646e-05
-0.000487469
-0.000104114
-0.000490711
-0.00013064
-0.000494944
-0.000157737
-0.000500348
-0.000185528
-0.000507054
-0.000214164
-0.000515055
-0.000243821
-0.000524071
-0.000274643
-0.000533341
-0.000306655
-0.000541379
-0.000339566
-0.000545743
-0.000372484
-0.000542951
-0.000403545
-0.000528725
-0.000429553
-0.00049876
-0.000445836
-0.000450108
-0.000446601
-0.000382989
-0.000426124
-0.000302385
-0.000380902
-0.000218193
-0.00031247
-0.000142523
-0.000229354
-8.43416e-05
-0.000145808
-4.53661e-05
-7.52821e-05
-2.17268e-05
-2.37183e-05
-8.50188e-06
1.05841e-05
-1.91181e-06
3.1291e-05
6.71596e-07
4.12815e-05
1.01982e-06
4.1949e-05
4.57915e-07
3.33522e-05
1.47277e-05
-6.4629e-06
-3.93065e-06
-2.14628e-05
1.13151e-05
-4.33201e-05
4.12743e-05
-7.08537e-05
8.11519e-05
-0.00010427
0.000126128
-0.000143088
0.000174073
-0.000186572
0.000223188
-0.000232681
0.000271011
-0.000278841
0.000314172
-0.000322243
0.000349337
-0.000360707
0.000374225
-0.000392765
0.000387917
-0.000417825
0.00039079
-0.000435985
0.000384123
-0.000447983
0.000369797
-0.000454932
0.000349877
-0.000458125
0.000326319
-0.000458798
0.00030073
-0.000458007
0.000274289
-0.000456546
0.00024775
-0.000454956
0.000221523
-0.000453553
0.000195767
-0.000452491
0.000170488
-0.00045181
0.000145607
-0.000451489
0.00012101
-0.000451477
9.65837e-05
-0.000451719
7.222e-05
-0.000452169
4.78314e-05
-0.000452798
2.33446e-05
-0.000453599
-1.29593e-06
-0.00045459
-2.61364e-05
-0.000455813
-5.12114e-05
-0.000457343
-7.65533e-05
-0.000459282
-0.000102192
-0.000461772
-0.000128167
-0.000464992
-0.000154532
-0.00046916
-0.000181374
-0.000474516
-0.000208821
-0.000481287
-0.000237062
-0.0004896
-0.00026634
-0.000499341
-0.000296922
-0.000509921
-0.000328991
-0.000519974
-0.000362434
-0.000527034
-0.000396484
-0.000527346
-0.000429236
-0.000516043
-0.000457133
-0.000487954
-0.000474685
-0.000439251
-0.000474828
-0.0003698
-0.000450359
-0.000285389
-0.000396891
-0.000198056
-0.000316685
-0.000122266
-0.000221599
-6.73069e-05
-0.000130225
-3.29489e-05
-5.80826e-05
-1.35571e-05
-8.79898e-06
-3.72432e-06
2.14495e-05
3.69957e-07
3.71978e-05
1.23867e-06
4.10693e-05
6.60264e-07
3.39442e-05
1.53825e-05
-9.14538e-06
5.12265e-06
-2.81024e-05
3.04422e-05
-5.40269e-05
6.70601e-05
-8.52899e-05
0.000112507
-0.000122001
0.000162775
-0.000163162
0.000215274
-0.000207485
0.000267478
-0.000252413
0.000315956
-0.000295304
0.000357044
-0.000333627
0.000387667
-0.000365747
0.000406335
-0.000390795
0.000412969
-0.000408807
0.000408798
-0.000420459
0.000395778
-0.00042695
0.000376286
-0.00042965
0.00035258
-0.000429914
0.000326583
-0.000428861
0.000299679
-0.000427331
0.00027276
-0.000425856
0.000246278
-0.000424731
0.000220401
-0.000424064
0.000195105
-0.000423855
0.000170284
-0.000424039
0.000145798
-0.000424532
0.000121511
-0.00042525
9.73101e-05
-0.000426121
7.3101e-05
-0.000427093
4.88149e-05
-0.000428136
2.43994e-05
-0.000429238
-1.80881e-07
-0.000430408
-2.49524e-05
-0.000431676
-4.99306e-05
-0.000433088
-7.51279e-05
-0.000434715
-0.000100551
-0.000436658
-0.000126213
-0.000439049
-0.00015213
-0.000442067
-0.000178346
-0.000445943
-0.000204937
-0.000450959
-0.00023204
-0.000457417
-0.000259877
-0.000465571
-0.000288764
-0.000475468
-0.000319093
-0.000486683
-0.000351217
-0.000497956
-0.00038521
-0.000506779
-0.000420411
-0.000509106
-0.000454802
-0.000499476
-0.000484307
-0.000471898
-0.000502401
-0.000421805
-0.000500452
-0.000349012
-0.000469696
-0.000260674
-0.000405034
-0.000171603
-0.000310678
-9.84736e-05
-0.000203343
-4.94226e-05
-0.000107132
-2.11017e-05
-3.71128e-05
-6.45173e-06
6.78696e-06
-1.09589e-07
3.08657e-05
1.50653e-06
3.94389e-05
9.10402e-07
3.45541e-05
1.62855e-05
-1.17292e-05
1.6745e-05
-3.42471e-05
5.31668e-05
-6.3609e-05
9.62593e-05
-9.77629e-05
0.000146776
-0.000136643
0.000201584
-0.000178719
0.000257404
-0.000222277
0.000311003
-0.000264512
0.000358217
-0.000302974
0.00039549
-0.000335576
0.000420283
-0.000361288
0.000432041
-0.00037985
0.000431541
-0.000391894
0.00042084
-0.000398555
0.000402446
-0.000401309
0.000379038
-0.000401571
0.000352845
-0.000400572
0.000325581
-0.000399186
0.000298294
-0.00039798
0.000271551
-0.000397228
0.000245525
-0.000397022
0.00022019
-0.000397322
0.000195401
-0.000398039
0.000170996
-0.000399062
0.000146815
-0.000400289
0.000122731
-0.000401632
9.86458e-05
-0.000403029
7.44892e-05
-0.000404435
5.02126e-05
-0.000405829
2.57833e-05
-0.000407202
1.18195e-06
-0.000408563
-2.36033e-05
-0.000409929
-4.85751e-05
-0.000411334
-7.37336e-05
-0.000412823
-9.90728e-05
-0.000414457
-0.000124588
-0.000416321
-0.000150275
-0.000418533
-0.000176143
-0.000421259
-0.000202219
-0.000424727
-0.000228578
-0.000429245
-0.000255364
-0.000435182
-0.000282832
-0.000442905
-0.000311374
-0.000452614
-0.00034151
-0.000464044
-0.000373783
-0.00047601
-0.000408445
-0.000485893
-0.000444919
-0.000489263
-0.000480931
-0.000479993
-0.000511665
-0.000451297
-0.000529138
-0.0003981
-0.000522893
-0.000320742
-0.000482402
-0.000228644
-0.000402791
-0.000140159
-0.000291828
-7.32723e-05
-0.00017401
-3.25813e-05
-7.7787e-05
-1.11017e-05
-1.47079e-05
-1.36389e-06
2.114e-05
1.52476e-06
3.65356e-05
1.1103e-06
3.49834e-05
1.73891e-05
-1.40002e-05
3.06217e-05
-3.94773e-05
7.88752e-05
-7.14885e-05
0.000128081
-0.000107576
0.000182989
-0.000147451
0.000241372
-0.000189117
0.000299125
-0.000230615
0.000352456
-0.000269131
0.000396757
-0.000302588
0.000428924
-0.000329423
0.000447129
-0.000349221
0.000451826
-0.00036229
0.000444616
-0.00036975
0.000428292
-0.000373019
0.000405718
-0.000373644
0.000379657
-0.000372908
0.000352111
-0.000371799
0.000324469
-0.000370906
0.000297402
-0.000370534
0.000271178
-0.000370754
0.000245746
-0.000371519
0.000220956
-0.000372712
0.000196598
-0.000374211
0.000172498
-0.000375896
0.000148505
-0.000377676
0.000124516
-0.000379478
0.000100455
-0.000381258
7.62748e-05
-0.000382982
5.19453e-05
-0.000384641
2.74497e-05
-0.000386231
2.7807e-06
-0.000387762
-2.20634e-05
-0.000389251
-4.70777e-05
-0.00039072
-7.22555e-05
-0.0003922
-9.75844e-05
-0.000393727
-0.000123053
-0.000395349
-0.000148646
-0.000397132
-0.000174353
-0.000399172
-0.000200173
-0.000401617
-0.000226129
-0.000404686
-0.000252291
-0.000408703
-0.000278813
-0.000414089
-0.000305987
-0.000421313
-0.000334285
-0.000430721
-0.000364376
-0.000442179
-0.000396988
-0.000454525
-0.000432575
-0.000464928
-0.000470527
-0.000468419
-0.000508172
-0.000458076
-0.00053947
-0.000426353
-0.00055461
-0.000368075
-0.000540678
-0.000285003
-0.000485887
-0.000190168
-0.000386666
-0.000105993
-0.000258205
-4.92576e-05
-0.000134478
-1.84349e-05
-4.5551e-05
-3.89107e-06
6.60722e-06
1.05929e-06
3.1571e-05
1.18554e-06
3.48688e-05
1.85688e-05
-1.57528e-05
4.62434e-05
-4.34179e-05
0.000106796
-7.71812e-05
0.00016164
-0.000114197
0.000220148
-0.000153945
0.000281029
-0.000194088
0.000339333
-0.000232601
0.000390925
-0.000266851
0.000431041
-0.000295234
0.000457286
-0.000316725
0.000468641
-0.000331485
0.000466578
-0.000340294
0.000453439
-0.0003446
0.000432594
-0.00034591
0.000407037
-0.000345672
0.000379416
-0.000344929
0.000351374
-0.000344388
0.000323926
-0.000344369
0.000297385
-0.000344978
0.000271785
-0.000346148
0.000246917
-0.000347766
0.000222571
-0.000349684
0.000198515
-0.000351786
0.000174595
-0.000353964
0.000150681
-0.00035615
0.000126697
-0.000358288
0.000102589
-0.000360348
7.83295e-05
-0.000362311
5.39029e-05
-0.000364172
2.93045e-05
-0.000365934
4.53593e-06
-0.000367607
-2.0397e-05
-0.000369207
-4.54841e-05
-0.000370755
-7.07146e-05
-0.000372272
-9.60736e-05
-0.000373784
-0.000121547
-0.000375317
-0.000147118
-0.000376904
-0.00017277
-0.000378593
-0.000198488
-0.000380459
-0.000224267
-0.000382629
-0.000250123
-0.000385318
-0.000276125
-0.000388863
-0.000302445
-0.000393737
-0.000329411
-0.00040051
-0.000357606
-0.000409649
-0.000387849
-0.000421114
-0.000421114
-0.000433672
-0.000457968
-0.000444113
-0.000497733
-0.00044673
-0.000536845
-0.000433646
-0.000567685
-0.000396698
-0.000577614
-0.000331254
-0.000551339
-0.000241942
-0.000475997
-0.000147069
-0.000353098
-7.24183e-05
-0.000209107
-2.89171e-05
-8.90329e-05
-8.02995e-06
-1.42897e-05
-1.58637e-08
2.35533e-05
1.10243e-06
3.37543e-05
1.9669e-05
-1.68624e-05
6.29652e-05
-4.58666e-05
0.000136066
-8.04694e-05
0.000196024
-0.000117466
0.000257291
-0.000156125
0.000319587
-0.000193914
0.000377186
-0.000228897
0.000425855
-0.000258745
0.000460919
-0.000282355
0.000480868
-0.000299218
0.00048552
-0.000309982
0.000477325
-0.000315762
0.000459228
-0.00031816
0.000434979
-0.000318613
0.000407494
-0.000318362
0.000379157
-0.000318169
0.000351182
-0.000318479
0.00032423
-0.000319403
0.00029831
-0.000320915
0.000273295
-0.000322877
0.000248881
-0.000325156
0.000224848
-0.00032761
0.000200973
-0.000330143
0.000177129
-0.00033267
0.000153211
-0.000335142
0.000129171
-0.000337519
0.000104971
-0.000339785
8.05985e-05
-0.000341925
5.60481e-05
-0.000343941
3.13251e-05
-0.000345836
6.43696e-06
-0.000347624
-1.86038e-05
-0.000349319
-4.37831e-05
-0.000350942
-6.90867e-05
-0.000352511
-9.44984e-05
-0.000354049
-0.000120005
-0.000355574
-0.000145589
-0.000357104
-0.000171237
-0.000358657
-0.000196931
-0.000360264
-0.000222658
-0.000361977
-0.000248408
-0.000363907
-0.000274193
-0.000366264
-0.000300088
-0.000369402
-0.000326272
-0.00037386
-0.00035315
-0.000380306
-0.000381402
-0.00038932
-0.000412104
-0.000400882
-0.000446406
-0.000413541
-0.00048508
-0.000423477
-0.000526905
-0.000423969
-0.00056719
-0.000406107
-0.000595459
-0.000361409
-0.000596028
-0.000287019
-0.00055041
-0.000192374
-0.000447752
-0.000102784
-0.000298742
-4.32369e-05
-0.000148507
-1.38606e-05
-4.36843e-05
-1.78794e-06
1.14784e-05
8.79883e-07
3.10852e-05
2.05494e-05
-1.72478e-05
8.00723e-05
-4.6709e-05
0.000165802
-8.12666e-05
0.000230361
-0.00011739
0.000293569
-0.000154185
0.000356282
-0.000189065
0.000412138
-0.000220291
0.000457031
-0.000245905
0.000486573
-0.000265289
0.000500228
-0.00027838
0.000498637
-0.000286196
0.000485131
-0.00029004
0.000463089
-0.00029151
0.000436444
-0.000291867
0.000407862
-0.000292098
0.000379384
-0.000292697
0.00035179
-0.000293903
0.000325434
-0.000295683
0.000300095
-0.000297943
0.000275553
-0.000300521
0.000251462
-0.000303294
0.000227619
-0.000306141
0.000203821
-0.00030899
0.000179976
-0.000311778
0.000155998
-0.000314471
0.000131861
-0.000317039
0.000107537
-0.000319472
8.30281e-05
-0.00032176
5.83333e-05
-0.000323906
3.34663e-05
-0.000325913
8.44009e-06
-0.000327794
-1.67272e-05
-0.000329563
-4.20173e-05
-0.000331242
-6.74125e-05
-0.000332849
-9.28951e-05
-0.000334406
-0.000118451
-0.000335931
-0.000144066
-0.00033744
-0.000169731
-0.000338942
-0.000195432
-0.000340445
-0.000221156
-0.000341961
-0.000246893
-0.000343528
-0.000272626
-0.000345242
-0.000298376
-0.00034731
-0.000324202
-0.000350121
-0.000350341
-0.000354285
-0.000377236
-0.000360585
-0.000405808
-0.000369686
-0.000437302
-0.000381489
-0.000473285
-0.0003941
-0.00051429
-0.000402751
-0.000558544
-0.000399445
-0.000598748
-0.000374235
-0.000621226
-0.000319187
-0.000605448
-0.000235013
-0.000531963
-0.000138874
-0.000394899
-6.24392e-05
-0.000224948
-2.13853e-05
-8.46668e-05
-4.35498e-06
-5.60208e-06
5.48153e-07
2.61938e-05
2.10965e-05
-1.69114e-05
9.68411e-05
-4.59875e-05
0.000195149
-7.97071e-05
0.000263858
-0.000114257
0.00032827
-0.00014863
0.000390548
-0.000180304
0.000443881
-0.000207802
0.000484472
-0.000229556
0.000508362
-0.000245375
0.000516015
-0.000255553
0.000508835
-0.000261349
0.000490906
-0.000264113
0.000465862
-0.000265333
0.000437648
-0.000266035
0.000408569
-0.000266959
0.000380296
-0.000268378
0.000353211
-0.000270384
0.000327431
-0.000272861
0.000302574
-0.000275693
0.00027838
-0.000278723
0.000254494
-0.000281853
0.000230745
-0.000284984
0.000206954
-0.000288067
0.000183058
-0.000291054
0.000158987
-0.000293922
0.00013473
-0.000296647
0.000110265
-0.000299222
8.56045e-05
-0.000301637
6.07514e-05
-0.000303894
3.57264e-05
-0.000305998
1.0547e-05
-0.000307959