/*--------------------------------*- C++ -*----------------------------------*\
| =========                 |                                                 |
| \\      /  F ield         | OpenFOAM: The Open Source CFD Toolbox           |
|  \\    /   O peration     | Version:  2406                                  |
|   \\  /    A nd           | Website:  www.openfoam.com                      |
|    \\/     M anipulation  |                                                 |
\*---------------------------------------------------------------------------*/
FoamFile
{
    version     2.0;
    format      ascii;
    arch        "LSB;label=32;scalar=64";
    class       volVectorField;
    location    "5.5";
    object      U;
}
// * * * * * * * * * * * * * * * * * * * * * * * * * * * * * * * * * * * * * //

dimensions      [0 1 -1 0 0 0 0];

internalField   nonuniform List<vector> 
3600
(
(9.96782e-06 -9.57939e-06 0)
(-2.93584e-05 1.77183e-05 0)
(-0.000139097 3.85528e-05 0)
(-0.000293998 5.30637e-05 0)
(-0.000482416 5.85031e-05 0)
(-0.000680263 6.11366e-05 0)
(-0.000887804 6.08228e-05 0)
(-0.00109245 6.04225e-05 0)
(-0.00129902 5.92903e-05 0)
(-0.00150072 5.85687e-05 0)
(-0.00170215 5.76027e-05 0)
(-0.00189903 5.69074e-05 0)
(-0.00209454 5.60143e-05 0)
(-0.00228565 5.52042e-05 0)
(-0.00247423 5.41761e-05 0)
(-0.00265799 5.30984e-05 0)
(-0.00283783 5.17775e-05 0)
(-0.00301192 5.03129e-05 0)
(-0.00318046 4.8574e-05 0)
(-0.00334187 4.66154e-05 0)
(-0.00349587 4.43447e-05 0)
(-0.00364098 4.17889e-05 0)
(-0.00377655 3.88819e-05 0)
(-0.00390116 3.56365e-05 0)
(-0.0040139 3.20081e-05 0)
(-0.00411337 2.80067e-05 0)
(-0.00419853 2.36091e-05 0)
(-0.00426806 1.88326e-05 0)
(-0.00432089 1.36778e-05 0)
(-0.00435584 8.1778e-06 0)
(-0.00437199 2.35991e-06 0)
(-0.00436843 -3.72094e-06 0)
(-0.00434452 -1.00096e-05 0)
(-0.00429978 -1.64274e-05 0)
(-0.00423398 -2.28946e-05 0)
(-0.0041472 -2.93121e-05 0)
(-0.00403975 -3.55846e-05 0)
(-0.00391233 -4.16025e-05 0)
(-0.00376583 -4.727e-05 0)
(-0.00360162 -5.24808e-05 0)
(-0.00342108 -5.71583e-05 0)
(-0.00322617 -6.12148e-05 0)
(-0.00301861 -6.46133e-05 0)
(-0.0028008 -6.72949e-05 0)
(-0.00257453 -6.92797e-05 0)
(-0.00234246 -7.05353e-05 0)
(-0.00210614 -7.11473e-05 0)
(-0.00186838 -7.10837e-05 0)
(-0.00163025 -7.04854e-05 0)
(-0.00139483 -6.92462e-05 0)
(-0.0011628 -6.75138e-05 0)
(-0.000938097 -6.49399e-05 0)
(-0.000721798 -6.15706e-05 0)
(-0.000520182 -5.65145e-05 0)
(-0.000336492 -4.96446e-05 0)
(-0.000181073 -3.9279e-05 0)
(-6.08768e-05 -2.58425e-05 0)
(1.24482e-05 -7.94895e-06 0)
(3.43645e-05 8.53605e-06 0)
(1.59391e-05 1.6628e-05 0)
(-1.78861e-05 2.95566e-05 0)
(-0.000172927 0.000169741 0)
(-0.000468139 0.000275791 0)
(-0.000850166 0.00035225 0)
(-0.00130398 0.000391263 0)
(-0.00178562 0.000412712 0)
(-0.00229173 0.000418873 0)
(-0.00279834 0.000420175 0)
(-0.00330973 0.000416765 0)
(-0.0038135 0.000412804 0)
(-0.00431506 0.000407277 0)
(-0.00480715 0.000401739 0)
(-0.00529368 0.000395146 0)
(-0.00576962 0.000388134 0)
(-0.00623708 0.000379934 0)
(-0.0066921 0.000370839 0)
(-0.00713531 0.000360315 0)
(-0.00756333 0.000348485 0)
(-0.00797571 0.000334965 0)
(-0.0083693 0.000319779 0)
(-0.00874285 0.000302642 0)
(-0.00909331 0.000283532 0)
(-0.00941884 0.000262238 0)
(-0.0097164 0.000238735 0)
(-0.00998377 0.000212896 0)
(-0.010218 0.000184731 0)
(-0.0104167 0.000154212 0)
(-0.010577 0.000121425 0)
(-0.0106968 8.64614e-05 0)
(-0.0107735 4.95189e-05 0)
(-0.0108054 1.08263e-05 0)
(-0.0107906 -2.92892e-05 0)
(-0.0107279 -7.0456e-05 0)
(-0.0106166 -0.000112219 0)
(-0.0104564 -0.000154083 0)
(-0.0102476 -0.000195496 0)
(-0.00999106 -0.00023589 0)
(-0.00968853 -0.000274673 0)
(-0.00934204 -0.000311282 0)
(-0.00895452 -0.000345168 0)
(-0.0085291 -0.000375864 0)
(-0.00806983 -0.000402948 0)
(-0.00758052 -0.000426142 0)
(-0.00706603 -0.000445204 0)
(-0.0065304 -0.000460105 0)
(-0.00597894 -0.000470778 0)
(-0.00541539 -0.000477427 0)
(-0.00484531 -0.000480021 0)
(-0.00427185 -0.000478848 0)
(-0.00370117 -0.000473521 0)
(-0.00313622 -0.000464031 0)
(-0.00258522 -0.00044884 0)
(-0.00205269 -0.000427045 0)
(-0.00155191 -0.000394892 0)
(-0.00109191 -0.000350652 0)
(-0.000693765 -0.000288544 0)
(-0.000371167 -0.000210431 0)
(-0.000146507 -0.000114874 0)
(-2.30659e-05 -2.50346e-05 0)
(7.62591e-06 3.39872e-05 0)
(-4.21434e-05 0.000145256 0)
(-0.000295421 0.000471062 0)
(-0.000745162 0.000715136 0)
(-0.00130392 0.000888142 0)
(-0.00195799 0.000985574 0)
(-0.00264933 0.00103981 0)
(-0.00337461 0.00106028 0)
(-0.00410266 0.00106572 0)
(-0.0048376 0.00105988 0)
(-0.00556335 0.00105029 0)
(-0.00628534 0.00103682 0)
(-0.00699432 0.00102194 0)
(-0.00769418 0.00100452 0)
(-0.00837857 0.000985295 0)
(-0.00904937 0.000963206 0)
(-0.00970153 0.000938435 0)
(-0.0103352 0.000910177 0)
(-0.0109461 0.000878391 0)
(-0.011533 0.000842458 0)
(-0.0120917 0.000802237 0)
(-0.0126203 0.000757247 0)
(-0.0131147 0.000707323 0)
(-0.013572 0.000652117 0)
(-0.0139884 0.000591517 0)
(-0.0143606 0.000525338 0)
(-0.0146848 0.0004536 0)
(-0.0149576 0.000376332 0)
(-0.0151756 0.000293758 0)
(-0.0153356 0.000206177 0)
(-0.0154346 0.00011408 0)
(-0.0154703 1.80734e-05 0)
(-0.0154406 -8.10537e-05 0)
(-0.015344 -0.000182385 0)
(-0.0151797 -0.000284848 0)
(-0.0149477 -0.000387269 0)
(-0.0146485 -0.000488373 0)
(-0.0142838 -0.000586844 0)
(-0.0138557 -0.000681343 0)
(-0.0133674 -0.000770582 0)
(-0.0128228 -0.000853344 0)
(-0.0122262 -0.000928564 0)
(-0.011583 -0.000995335 0)
(-0.0108983 -0.001053 0)
(-0.0101786 -0.00110108 0)
(-0.00942919 -0.00113942 0)
(-0.00865704 -0.00116797 0)
(-0.00786725 -0.001187 0)
(-0.00706696 -0.00119654 0)
(-0.00626067 -0.00119688 0)
(-0.00545637 -0.00118726 0)
(-0.00465851 -0.00116697 0)
(-0.00387789 -0.00113283 0)
(-0.00312108 -0.00108169 0)
(-0.00240559 -0.00100599 0)
(-0.00174332 -0.000900476 0)
(-0.00116198 -0.000755055 0)
(-0.000677508 -0.000572087 0)
(-0.000321405 -0.00035396 0)
(-9.49584e-05 -0.000141605 0)
(-5.60391e-06 1.68064e-05 0)
(-6.14478e-05 0.000317733 0)
(-0.000395684 0.000879701 0)
(-0.000968649 0.00128697 0)
(-0.00166186 0.00156775 0)
(-0.00246418 0.00173181 0)
(-0.00330691 0.00182386 0)
(-0.00418957 0.00186234 0)
(-0.00507576 0.00187367 0)
(-0.00597067 0.00186587 0)
(-0.00685521 0.00184979 0)
(-0.00773513 0.00182659 0)
(-0.00859936 0.00179974 0)
(-0.0094518 0.00176818 0)
(-0.0102849 0.00173278 0)
(-0.0111004 0.00169225 0)
(-0.0118924 0.00164665 0)
(-0.0126605 0.00159491 0)
(-0.0133998 0.00153679 0)
(-0.0141085 0.00147144 0)
(-0.0147819 0.00139853 0)
(-0.0154172 0.00131736 0)
(-0.0160097 0.00122765 0)
(-0.016556 0.00112889 0)
(-0.0170515 0.00102091 0)
(-0.0174924 0.000903504 0)
(-0.0178741 0.000776728 0)
(-0.018193 0.000640728 0)
(-0.0184449 0.000495933 0)
(-0.0186263 0.000342928 0)
(-0.018734 0.00018259 0)
(-0.0187653 1.60075e-05 0)
(-0.018718 -0.000155456 0)
(-0.0185907 -0.00033022 0)
(-0.0183826 -0.000506475 0)
(-0.018094 -0.000682241 0)
(-0.0177258 -0.000855403 0)
(-0.0172801 -0.00102378 0)
(-0.0167597 -0.00118517 0)
(-0.0161685 -0.00133748 0)
(-0.0155112 -0.00147874 0)
(-0.014793 -0.00160723 0)
(-0.0140203 -0.0017215 0)
(-0.0131992 -0.0018205 0)
(-0.0123371 -0.00190349 0)
(-0.0114404 -0.00197022 0)
(-0.0105171 -0.00202062 0)
(-0.0095732 -0.00205504 0)
(-0.00861689 -0.00207358 0)
(-0.00765357 -0.00207644 0)
(-0.00669241 -0.00206248 0)
(-0.0057387 -0.00203005 0)
(-0.0048049 -0.00197423 0)
(-0.0038984 -0.00188922 0)
(-0.00303921 -0.00176377 0)
(-0.00223969 -0.00158851 0)
(-0.00153138 -0.00134971 0)
(-0.000929452 -0.00104891 0)
(-0.000472396 -0.000693022 0)
(-0.000159855 -0.00033399 0)
(-1.78029e-05 -3.86798e-05 0)
(-7.24604e-05 0.000538212 0)
(-0.00046294 0.00138612 0)
(-0.00112691 0.00198385 0)
(-0.00192047 0.00238591 0)
(-0.0028331 0.00262491 0)
(-0.00378646 0.00275893 0)
(-0.0047829 0.00281807 0)
(-0.00578194 0.00283601 0)
(-0.0067905 0.00282611 0)
(-0.00778721 0.00280227 0)
(-0.00877856 0.00276745 0)
(-0.00975206 0.00272596 0)
(-0.0107118 0.00267707 0)
(-0.0116494 0.0026217 0)
(-0.0125663 0.00255841 0)
(-0.0134559 0.00248707 0)
(-0.0143179 0.00240638 0)
(-0.0151465 0.00231587 0)
(-0.0159396 0.00221444 0)
(-0.016692 0.00210154 0)
(-0.0174005 0.00197628 0)
(-0.0180598 0.00183819 0)
(-0.0186663 0.00168667 0)
(-0.0192147 0.00152147 0)
(-0.0197008 0.00134239 0)
(-0.0201198 0.00114955 0)
(-0.0204674 0.000943278 0)
(-0.0207392 0.000724253 0)
(-0.0209315 0.000493428 0)
(-0.0210408 0.000252151 0)
(-0.0210643 2.0928e-06 0)
(-0.0209996 -0.000254698 0)
(-0.0208455 -0.000515854 0)
(-0.0206012 -0.000778699 0)
(-0.0202672 -0.00104031 0)
(-0.0198449 -0.00129761 0)
(-0.0193366 -0.0015474 0)
(-0.0187458 -0.00178653 0)
(-0.0180769 -0.00201193 0)
(-0.0173354 -0.00222083 0)
(-0.0165272 -0.00241072 0)
(-0.0156595 -0.0025796 0)
(-0.0147394 -0.00272594 0)
(-0.013775 -0.00284879 0)
(-0.0127737 -0.00294773 0)
(-0.0117442 -0.00302279 0)
(-0.0106934 -0.00307437 0)
(-0.00963024 -0.00310271 0)
(-0.00856069 -0.00310787 0)
(-0.00749475 -0.00308839 0)
(-0.00643805 -0.0030415 0)
(-0.00540399 -0.00296058 0)
(-0.00440003 -0.00283675 0)
(-0.00344757 -0.00265517 0)
(-0.00255857 -0.00240161 0)
(-0.00176714 -0.00205909 0)
(-0.00108753 -0.00162678 0)
(-0.000564103 -0.00111646 0)
(-0.000196165 -0.000586624 0)
(-2.32716e-05 -0.000121037 0)
(-8.01424e-05 0.000783727 0)
(-0.00051145 0.00194981 0)
(-0.00124107 0.0027537 0)
(-0.00210735 0.00328264 0)
(-0.00309936 0.0035982 0)
(-0.00413142 0.00377407 0)
(-0.00520824 0.0038536 0)
(-0.00628625 0.00387765 0)
(-0.00737422 0.00386514 0)
(-0.008449 0.00383271 0)
(-0.00951802 0.00378518 0)
(-0.0105676 0.00372759 0)
(-0.0116022 0.00365959 0)
(-0.0126126 0.00358208 0)
(-0.0136004 0.00349355 0)
(-0.0145583 0.00339366 0)
(-0.0154859 0.00328087 0)
(-0.0163769 0.00315449 0)
(-0.0172291 0.00301316 0)
(-0.0180367 0.00285613 0)
(-0.0187965 0.00268231 0)
(-0.0195026 0.00249106 0)
(-0.0201511 0.00228167 0)
(-0.0207364 0.00205384 0)
(-0.0212539 0.00180737 0)
(-0.0216984 0.0015425 0)
(-0.0220654 0.00125974 0)
(-0.0223502 0.00096006 0)
(-0.0225489 0.00064483 0)
(-0.0226575 0.000315917 0)
(-0.0226733 -2.43728e-05 0)
(-0.0225937 -0.000373239 0)
(-0.0224173 -0.000727459 0)
(-0.0221437 -0.00108341 0)
(-0.0217733 -0.00143717 0)
(-0.0213076 -0.00178457 0)
(-0.0207495 -0.00212134 0)
(-0.0201029 -0.00244328 0)
(-0.0193726 -0.00274632 0)
(-0.0185648 -0.00302674 0)
(-0.0176863 -0.00328127 0)
(-0.016745 -0.00350728 0)
(-0.0157487 -0.00370275 0)
(-0.0147067 -0.00386651 0)
(-0.0136271 -0.00399803 0)
(-0.0125196 -0.00409744 0)
(-0.0113916 -0.00416526 0)
(-0.0102529 -0.004202 0)
(-0.00911013 -0.00420759 0)
(-0.00797375 -0.00418042 0)
(-0.00684963 -0.00411661 0)
(-0.00575173 -0.00400808 0)
(-0.00468727 -0.00384285 0)
(-0.00367833 -0.00360277 0)
(-0.00273616 -0.00326845 0)
(-0.00189622 -0.00281974 0)
(-0.00117196 -0.00225212 0)
(-0.000611255 -0.00158119 0)
(-0.000213585 -0.000868871 0)
(-2.53007e-05 -0.000214576 0)
(-8.42335e-05 0.00105242 0)
(-0.000542301 0.00256464 0)
(-0.00131726 0.00359001 0)
(-0.00223523 0.00425362 0)
(-0.00328441 0.0046492 0)
(-0.00437312 0.00486806 0)
(-0.00550764 0.00496822 0)
(-0.00664188 0.00499803 0)
(-0.00778621 0.0049824 0)
(-0.00891617 0.00494056 0)
(-0.0100402 0.00487936 0)
(-0.0111436 0.00480441 0)
(-0.0122316 0.00471581 0)
(-0.013294 0.00461439 0)
(-0.0143328 0.00449858 0)
(-0.0153402 0.00436779 0)
(-0.0163158 0.00422028 0)
(-0.0172529 0.00405507 0)
(-0.0181493 0.00387059 0)
(-0.0189987 0.0036658 0)
(-0.0197977 0.00343944 0)
(-0.0205402 0.00319068 0)
(-0.0212219 0.00291868 0)
(-0.0218368 0.00262309 0)
(-0.0223803 0.0023037 0)
(-0.0228466 0.00196088 0)
(-0.0232309 0.00159532 0)
(-0.0235281 0.00120832 0)
(-0.023734 0.000801678 0)
(-0.0238444 0.000377819 0)
(-0.023856 -6.02539e-05 0)
(-0.0237662 -0.000508926 0)
(-0.0235735 -0.000964032 0)
(-0.023277 -0.00142091 0)
(-0.0228774 -0.0018745 0)
(-0.0223764 -0.00231946 0)
(-0.0217769 -0.0027503 0)
(-0.0210832 -0.00316162 0)
(-0.0203007 -0.00354819 0)
(-0.0194363 -0.0039053 0)
(-0.0184974 -0.00422871 0)
(-0.017493 -0.00451513 0)
(-0.0164318 -0.004762 0)
(-0.0153241 -0.0049679 0)
(-0.014179 -0.00513216 0)
(-0.0130071 -0.00525516 0)
(-0.0118169 -0.00533753 0)
(-0.010619 -0.00538019 0)
(-0.00942041 -0.00538307 0)
(-0.00823228 -0.00534455 0)
(-0.00706066 -0.00525971 0)
(-0.0059198 -0.00511917 0)
(-0.00481675 -0.00490779 0)
(-0.00377381 -0.00460423 0)
(-0.00280188 -0.00418365 0)
(-0.00193706 -0.00362266 0)
(-0.00119262 -0.00291245 0)
(-0.000617985 -0.00207209 0)
(-0.0002127 -0.00116687 0)
(-2.37838e-05 -0.000312337 0)
(-8.72965e-05 0.00133061 0)
(-0.000564479 0.00320552 0)
(-0.00137126 0.00446148 0)
(-0.00232607 0.00526387 0)
(-0.00341607 0.00574035 0)
(-0.00454541 0.00600182 0)
(-0.00572135 0.00612184 0)
(-0.00689598 0.00615669 0)
(-0.00808093 0.00613739 0)
(-0.00925081 0.00608572 0)
(-0.0104149 0.0060105 0)
(-0.011558 0.0059178 0)
(-0.0126856 0.0058082 0)
(-0.0137873 0.00568235 0)
(-0.0148651 0.00553863 0)
(-0.0159111 0.00537619 0)
(-0.0169247 0.00519307 0)
(-0.017899 0.00498798 0)
(-0.0188318 0.00475911 0)
(-0.0197165 0.00450516 0)
(-0.0205494 0.00422463 0)
(-0.0213243 0.0039165 0)
(-0.0220366 0.00357978 0)
(-0.0226799 0.00321401 0)
(-0.0232491 0.00281901 0)
(-0.0237382 0.00239519 0)
(-0.0241419 0.00194346 0)
(-0.0244547 0.00146539 0)
(-0.0246717 0.000963237 0)
(-0.0247885 0.00043999 0)
(-0.0248012 -0.00010063 0)
(-0.0247069 -0.000654146 0)
(-0.0245035 -0.00121539 0)
(-0.0241901 -0.00177858 0)
(-0.0237671 -0.0023374 0)
(-0.023236 -0.00288523 0)
(-0.0226001 -0.00341519 0)
(-0.021864 -0.00392057 0)
(-0.0210334 -0.00439481 0)
(-0.0201161 -0.00483201 0)
(-0.0191203 -0.00522691 0)
(-0.018056 -0.00557539 0)
(-0.0169332 -0.00587428 0)
(-0.0157632 -0.0061219 0)
(-0.0145566 -0.00631747 0)
(-0.0133251 -0.00646164 0)
(-0.0120784 -0.00655531 0)
(-0.0108279 -0.00659996 0)
(-0.00958155 -0.00659567 0)
(-0.00835099 -0.00654105 0)
(-0.00714267 -0.00643032 0)
(-0.00597093 -0.00625305 0)
(-0.00484283 -0.00599103 0)
(-0.00378053 -0.00561983 0)
(-0.0027948 -0.0051091 0)
(-0.00192158 -0.00443202 0)
(-0.0011742 -0.00357534 0)
(-0.000601536 -0.00256134 0)
(-0.000202811 -0.00145972 0)
(-2.11964e-05 -0.000404118 0)
(-8.90079e-05 0.0016202 0)
(-0.000579146 0.00387212 0)
(-0.0014084 0.00536699 0)
(-0.0023899 0.0063131 0)
(-0.00351005 0.00687269 0)
(-0.0046698 0.00717772 0)
(-0.00587704 0.0073178 0)
(-0.00708242 0.00735769 0)
(-0.00829857 0.00733467 0)
(-0.00949938 0.00727315 0)
(-0.0106949 0.00718392 0)
(-0.0118696 0.00707351 0)
(-0.0130294 0.0069429 0)
(-0.0141635 0.00679257 0)
(-0.0152743 0.00662084 0)
(-0.0163536 0.00642651 0)
(-0.0174009 0.00620741 0)
(-0.0184092 0.00596193 0)
(-0.019376 0.00568797 0)
(-0.0202947 0.00538392 0)
(-0.0211615 0.00504801 0)
(-0.0219696 0.00467897 0)
(-0.0227143 0.00427563 0)
(-0.0233888 0.00383738 0)
(-0.0239877 0.00336399 0)
(-0.0245041 0.0028559 0)
(-0.0249326 0.00231416 0)
(-0.0252667 0.00174062 0)
(-0.0255013 0.00113794 0)
(-0.0256308 0.0005097 0)
(-0.0256511 -0.000139646 0)
(-0.0255584 -0.000804712 0)
(-0.02535 -0.00147924 0)
(-0.0250247 -0.00215622 0)
(-0.0245823 -0.00282794 0)
(-0.0240245 -0.00348629 0)
(-0.0233542 -0.00412286 0)
(-0.0225764 -0.00472933 0)
(-0.0216976 -0.00529761 0)
(-0.020726 -0.00582041 0)
(-0.0196711 -0.00629118 0)
(-0.0185439 -0.00670485 0)
(-0.0173561 -0.00705748 0)
(-0.0161205 -0.00734707 0)
(-0.0148491 -0.00757273 0)
(-0.0135554 -0.00773547 0)
(-0.0122503 -0.00783657 0)
(-0.0109465 -0.00787828 0)
(-0.00965299 -0.00786104 0)
(-0.00838205 -0.00778398 0)
(-0.00714067 -0.00764062 0)
(-0.00594319 -0.0074197 0)
(-0.00479687 -0.00710002 0)
(-0.00372344 -0.00665418 0)
(-0.00273383 -0.0060463 0)
(-0.00186318 -0.00524616 0)
(-0.00112505 -0.00423649 0)
(-0.000566177 -0.00304329 0)
(-0.000184804 -0.00174282 0)
(-1.7318e-05 -0.000489058 0)
(-9.05998e-05 0.00191384 0)
(-0.000590915 0.00455129 0)
(-0.00143726 0.00629031 0)
(-0.00243923 0.0073831 0)
(-0.0035826 0.00802689 0)
(-0.00476613 0.00837582 0)
(-0.00599814 0.00853591 0)
(-0.00722826 0.00858087 0)
(-0.0084699 0.00855429 0)
(-0.00969647 0.00848331 0)
(-0.0109187 0.00838063 0)
(-0.0121208 0.00825321 0)
(-0.0133091 0.00810241 0)
(-0.0144726 0.00792848 0)
(-0.0156142 0.00772964 0)
(-0.0167252 0.00750434 0)
(-0.0178056 0.00725016 0)
(-0.0188478 0.00696509 0)
(-0.0198497 0.00664674 0)
(-0.0208043 0.00629313 0)
(-0.0217075 0.00590218 0)
(-0.0225525 0.00547229 0)
(-0.023334 0.00500205 0)
(-0.0240448 0.00449064 0)
(-0.024679 0.00393768 0)
(-0.0252293 0.00334357 0)
(-0.0256893 0.00270945 0)
(-0.0260519 0.00203738 0)
(-0.0263109 0.00133039 0)
(-0.0264602 0.000592605 0)
(-0.0264946 -0.000170768 0)
(-0.0264093 -0.0009534 0)
(-0.0262012 -0.00174788 0)
(-0.0258678 -0.00254582 0)
(-0.0254089 -0.00333799 0)
(-0.0248254 -0.00411457 0)
(-0.0241204 -0.00486533 0)
(-0.0232991 -0.00558013 0)
(-0.0223684 -0.00624903 0)
(-0.0213376 -0.00686305 0)
(-0.0202173 -0.00741408 0)
(-0.0190201 -0.00789587 0)
(-0.0177594 -0.00830354 0)
(-0.01645 -0.00863469 0)
(-0.0151061 -0.00888829 0)
(-0.0137428 -0.00906582 0)
(-0.0123731 -0.0091691 0)
(-0.0110112 -0.00920147 0)
(-0.00966735 -0.00916396 0)
(-0.0083546 -0.00905659 0)
(-0.0070807 -0.00887249 0)
(-0.00585985 -0.00859986 0)
(-0.00469962 -0.00821471 0)
(-0.00362093 -0.00768679 0)
(-0.00263497 -0.00697482 0)
(-0.00177532 -0.00604533 0)
(-0.00105567 -0.00487756 0)
(-0.000519147 -0.00350216 0)
(-0.000162492 -0.00200419 0)
(-1.31178e-05 -0.00056132 0)
(-9.17226e-05 0.00221418 0)
(-0.000600071 0.0052453 0)
(-0.00146029 0.00723341 0)
(-0.00247901 0.00847616 0)
(-0.00364169 0.00920597 0)
(-0.00484534 0.0096 0)
(-0.0060987 0.00978086 0)
(-0.00735056 0.0098316 0)
(-0.00861501 0.00980221 0)
(-0.0098651 0.00972264 0)
(-0.0111122 0.00960753 0)
(-0.0123403 0.00946425 0)
(-0.0135562 0.00929451 0)
(-0.014749 0.00909832 0)
(-0.0159215 0.00887376 0)
(-0.0170653 0.00861889 0)
(-0.0181803 0.008331 0)
(-0.0192589 0.00800764 0)
(-0.020299 0.00764606 0)
(-0.0212933 0.00724384 0)
(-0.0222378 0.00679852 0)
(-0.023125 0.00630812 0)
(-0.0239495 0.00577085 0)
(-0.0247034 0.00518559 0)
(-0.0253803 0.00455174 0)
(-0.0259721 0.00386956 0)
(-0.0264716 0.00314015 0)
(-0.0268707 0.00236571 0)
(-0.0271622 0.00154958 0)
(-0.0273388 0.000696384 0)
(-0.0273942 -0.000187924 0)
(-0.0273225 -0.00109604 0)
(-0.0271193 -0.00201928 0)
(-0.0267813 -0.00294779 0)
(-0.0263074 -0.00387055 0)
(-0.0256981 -0.00477581 0)
(-0.0249562 -0.00565117 0)
(-0.024087 -0.00648432 0)
(-0.0230981 -0.00726306 0)
(-0.0219997 -0.00797633 0)
(-0.0208041 -0.00861409 0)
(-0.0195257 -0.00916857 0)
(-0.0181802 -0.00963369 0)
(-0.0167846 -0.0100065 0)
(-0.015356 -0.0102859 0)
(-0.0139117 -0.0104739 0)
(-0.0124674 -0.010573 0)
(-0.0110389 -0.010588 0)
(-0.00963841 -0.010521 0)
(-0.00827966 -0.0103733 0)
(-0.00697141 -0.0101379 0)
(-0.00572754 -0.00980298 0)
(-0.004556 -0.00934193 0)
(-0.00347648 -0.00872191 0)
(-0.00250036 -0.0078964 0)
(-0.00165902 -0.00682909 0)
(-0.000966046 -0.00549657 0)
(-0.000459798 -0.00393548 0)
(-0.000134871 -0.00224219 0)
(-8.08153e-06 -0.000621271 0)
(-9.29966e-05 0.00251755 0)
(-0.000608769 0.00594802 0)
(-0.00148135 0.00818887 0)
(-0.00251497 0.00958393 0)
(-0.00369483 0.0104011 0)
(-0.00491664 0.0108411 0)
(-0.0061895 0.0110434 0)
(-0.00746164 0.0111008 0)
(-0.00874773 0.0110695 0)
(-0.0100206 0.0109826 0)
(-0.0112922 0.0108565 0)
(-0.0125465 0.010699 0)
(-0.0137906 0.0105122 0)
(-0.0150136 0.0102957 0)
(-0.0162189 0.0100476 0)
(-0.0173976 0.00976536 0)
(-0.0185501 0.00944601 0)
(-0.0196688 0.0090866 0)
(-0.0207514 0.00868394 0)
(-0.0217904 0.00823511 0)
(-0.0227817 0.0077372 0)
(-0.0237176 0.00718767 0)
(-0.024592 0.00658433 0)
(-0.0253967 0.0059256 0)
(-0.0261244 0.00521051 0)
(-0.0267662 0.00443906 0)
(-0.0273138 0.0036122 0)
(-0.0277581 0.00273213 0)
(-0.0280906 0.00180241 0)
(-0.0283026 0.000828086 0)
(-0.0283862 -0.000184172 0)
(-0.0283342 -0.00122605 0)
(-0.0281407 -0.00228755 0)
(-0.0278013 -0.00335715 0)
(-0.0273136 -0.00442183 0)
(-0.0266773 -0.00546757 0)
(-0.0258949 -0.00647947 0)
(-0.0249718 -0.00744253 0)
(-0.0239162 -0.00834183 0)
(-0.0227394 -0.0091637 0)
(-0.0214556 -0.00989568 0)
(-0.0200815 -0.0105281 0)
(-0.0186357 -0.0110532 0)
(-0.0171381 -0.0114675 0)
(-0.0156093 -0.0117696 0)
(-0.0140696 -0.0119622 0)
(-0.0125378 -0.0120489 0)
(-0.0110321 -0.0120364 0)
(-0.00956692 -0.0119282 0)
(-0.00815694 -0.0117276 0)
(-0.00681205 -0.0114282 0)
(-0.00554553 -0.0110184 0)
(-0.00436562 -0.0104694 0)
(-0.00329019 -0.00974612 0)
(-0.00233067 -0.00879703 0)
(-0.00151531 -0.00758349 0)
(-0.000857367 -0.00608023 0)
(-0.000389177 -0.00433159 0)
(-0.000102738 -0.00244773 0)
(-2.50792e-06 -0.00066427 0)
(-9.40948e-05 0.00282594 0)
(-0.000616712 0.00666174 0)
(-0.00150095 0.00915903 0)
(-0.00254856 0.0107089 0)
(-0.00374471 0.0116151 0)
(-0.00498393 0.0121025 0)
(-0.00627573 0.0123276 0)
(-0.00756789 0.0123929 0)
(-0.00887564 0.0123612 0)
(-0.0101717 0.0122686 0)
(-0.0114685 0.0121334 0)
(-0.01275 0.0119638 0)
(-0.0140239 0.0117621 0)
(-0.0152792 0.0115279 0)
(-0.0165196 0.0112588 0)
(-0.0177364 0.0109519 0)
(-0.0189302 0.0106038 0)
(-0.0200931 0.0102111 0)
(-0.0212232 0.00977003 0)
(-0.0223127 0.00927707 0)
(-0.0233573 0.00872873 0)
(-0.0243489 0.00812188 0)
(-0.0252812 0.0074537 0)
(-0.0261451 0.00672204 0)
(-0.0269325 0.00592541 0)
(-0.0276337 0.00506337 0)
(-0.0282391 0.00413655 0)
(-0.0287383 0.00314701 0)
(-0.0291213 0.00209836 0)
(-0.0293777 0.000995998 0)
(-0.0294978 -0.000152766 0)
(-0.0294725 -0.00133861 0)
(-0.0292943 -0.00255012 0)
(-0.0289569 -0.00377393 0)
(-0.0284565 -0.00499479 0)
(-0.0277918 -0.00619601 0)
(-0.0269646 -0.00735967 0)
(-0.02598 -0.00846755 0)
(-0.0248472 -0.00950135 0)
(-0.0235786 -0.0104441 0)
(-0.0221907 -0.0112803 0)
(-0.0207029 -0.0119978 0)
(-0.0191373 -0.0125867 0)
(-0.017518 -0.0130426 0)
(-0.0158695 -0.0133637 0)
(-0.0142162 -0.0135538 0)
(-0.012581 -0.0136178 0)
(-0.0109849 -0.013565 0)
(-0.00944524 -0.0134009 0)
(-0.00797771 -0.0131316 0)
(-0.00659348 -0.012752 0)
(-0.00530485 -0.0122516 0)
(-0.00412016 -0.0115996 0)
(-0.0030547 -0.0107594 0)
(-0.00211959 -0.00967455 0)
(-0.00133905 -0.00830483 0)
(-0.000725667 -0.00662404 0)
(-0.000304515 -0.00468614 0)
(-6.44881e-05 -0.00261768 0)
(4.08809e-06 -0.000689561 0)
(-9.53615e-05 0.00313776 0)
(-0.000624847 0.00738403 0)
(-0.00152051 0.0101411 0)
(-0.00258181 0.011848 0)
(-0.0037939 0.0128447 0)
(-0.00505028 0.0133809 0)
(-0.00636091 0.0136299 0)
(-0.00767322 0.0137046 0)
(-0.00900299 0.0136741 0)
(-0.0103229 0.0135777 0)
(-0.0116459 0.0134355 0)
(-0.0129561 0.0132563 0)
(-0.0142615 0.0130426 0)
(-0.0155514 0.0127935 0)
(-0.0168298 0.0125066 0)
(-0.0180881 0.0121784 0)
(-0.019327 0.0118051 0)
(-0.020539 0.0113825 0)
(-0.0217218 0.0109065 0)
(-0.0228678 0.0103728 0)
(-0.0239726 0.00977715 0)
(-0.0250275 0.00911569 0)
(-0.0260259 0.00838487 0)
(-0.026958 0.00758173 0)
(-0.027815 0.00670412 0)
(-0.0285858 0.00575089 0)
(-0.0292597 0.00472219 0)
(-0.0298247 0.0036197 0)
(-0.0302689 0.00244692 0)
(-0.03058 0.00120941 0)
(-0.0307461 -8.49661e-05 0)
(-0.030756 -0.00142592 0)
(-0.0305996 -0.00280056 0)
(-0.0302687 -0.00419355 0)
(-0.0297575 -0.00558704 0)
(-0.029063 -0.0069613 0)
(-0.0281862 -0.00829479 0)
(-0.0271318 -0.00956538 0)
(-0.0259094 -0.0107506 0)
(-0.0245332 -0.0118293 0)
(-0.023022 -0.0127819 0)
(-0.0213988 -0.0135931 0)
(-0.0196901 -0.0142504 0)
(-0.0179248 -0.0147479 0)
(-0.016133 -0.0150832 0)
(-0.0143442 -0.0152616 0)
(-0.0125865 -0.0152896 0)
(-0.0108845 -0.0151799 0)
(-0.00925922 -0.0149412 0)
(-0.00772745 -0.0145837 0)
(-0.00630173 -0.0141039 0)
(-0.00499286 -0.0134939 0)
(-0.0038088 -0.0127215 0)
(-0.00276126 -0.0117489 0)
(-0.00186055 -0.0105151 0)
(-0.00112565 -0.00897911 0)
(-0.000568107 -0.00711451 0)
(-0.000204342 -0.0049871 0)
(-1.97544e-05 -0.0027426 0)
(1.16432e-05 -0.000692347 0)
(-9.64936e-05 0.00345382 0)
(-0.000632607 0.0081159 0)
(-0.00153958 0.0111361 0)
(-0.00261443 0.0130023 0)
(-0.00384241 0.0140913 0)
(-0.00511601 0.0146778 0)
(-0.00644571 0.0149524 0)
(-0.00777859 0.0150382 0)
(-0.00913105 0.015011 0)
(-0.0104757 0.0149132 0)
(-0.0118262 0.0147666 0)
(-0.0131666 0.0145807 0)
(-0.0145056 0.014358 0)
(-0.0158325 0.0140976 0)
(-0.0171517 0.0137966 0)
(-0.0184549 0.013451 0)
(-0.0197431 0.0130565 0)
(-0.0210087 0.0126084 0)
(-0.0222499 0.0121016 0)
(-0.0234588 0.0115311 0)
(-0.0246308 0.010892 0)
(-0.0257572 0.0101793 0)
(-0.0268307 0.00938863 0)
(-0.0278409 0.00851606 0)
(-0.0287781 0.00755845 0)
(-0.02963 0.00651377 0)
(-0.0303845 0.00538137 0)
(-0.0310277 0.0041623 0)
(-0.0315457 0.0028597 0)
(-0.0319238 0.00147907 0)
(-0.0321476 2.86447e-05 0)
(-0.0322029 -0.0014804 0)
(-0.0320771 -0.00303369 0)
(-0.0317588 -0.00461373 0)
(-0.0312399 -0.00619981 0)
(-0.0305151 -0.00776862 0)
(-0.029584 -0.00929434 0)
(-0.0284504 -0.01075 0)
(-0.0271246 -0.012108 0)
(-0.025622 -0.0133418 0)
(-0.0239648 -0.0144269 0)
(-0.0221798 -0.0153433 0)
(-0.0202994 -0.0160751 0)
(-0.0183585 -0.0166144 0)
(-0.0163945 -0.0169583 0)
(-0.0144432 -0.0171132 0)
(-0.0125396 -0.0170883 0)
(-0.0107131 -0.0169008 0)
(-0.00898912 -0.0165638 0)
(-0.00738587 -0.016093 0)
(-0.00591718 -0.0154883 0)
(-0.00459149 -0.0147454 0)
(-0.00341574 -0.0138314 0)
(-0.00239673 -0.0127081 0)
(-0.0015431 -0.0113105 0)
(-0.000867268 -0.00959709 0)
(-0.000379234 -0.00754231 0)
(-8.52769e-05 -0.00522607 0)
(3.31018e-05 -0.00281625 0)
(2.05489e-05 -0.000670206 0)
(-9.77314e-05 0.00377387 0)
(-0.000640435 0.008857 0)
(-0.00155853 0.0121437 0)
(-0.00264677 0.0141715 0)
(-0.00389052 0.0153546 0)
(-0.00518132 0.015993 0)
(-0.00653018 0.0162948 0)
(-0.00788391 0.0163937 0)
(-0.00925954 0.0163718 0)
(-0.0106297 0.016275 0)
(-0.0120087 0.0161269 0)
(-0.0133807 0.0159374 0)
(-0.0147549 0.0157094 0)
(-0.016121 0.0154415 0)
(-0.0174838 0.0151305 0)
(-0.0188352 0.014772 0)
(-0.0201766 0.0143611 0)
(-0.0215007 0.0138922 0)
(-0.0228057 0.0133597 0)
(-0.0240839 0.0127575 0)
(-0.0253307 0.0120796 0)
(-0.026537 0.0113203 0)
(-0.0276952 0.0104737 0)
(-0.0287942 0.00953486 0)
(-0.0298234 0.00849934 0)
(-0.0307692 0.00736393 0)
(-0.0316179 0.00612685 0)
(-0.0323536 0.00478819 0)
(-0.0329601 0.00335036 0)
(-0.0334199 0.00181851 0)
(-0.0337155 0.000200975 0)
(-0.0338293 -0.00149036 0)
(-0.0337452 -0.0032397 0)
(-0.0334482 -0.00502729 0)
(-0.0329267 -0.00682926 0)
(-0.0321725 -0.00861814 0)
(-0.0311828 -0.0103631 0)
(-0.0299604 -0.0120312 0)
(-0.0285154 -0.0135884 0)
(-0.026865 -0.0150014 0)
(-0.0250347 -0.016239 0)
(-0.0230564 -0.0172754 0)
(-0.0209696 -0.0180897 0)
(-0.0188168 -0.0186714 0)
(-0.0166448 -0.0190162 0)
(-0.014498 -0.0191326 0)
(-0.0124202 -0.019033 0)
(-0.0104469 -0.0187409 0)
(-0.00860935 -0.0182753 0)
(-0.00692716 -0.0176597 0)
(-0.00541536 -0.0168994 0)
(-0.00407892 -0.0159953 0)
(-0.0029226 -0.0149149 0)
(-0.00194644 -0.0136206 0)
(-0.00115632 -0.0120431 0)
(-0.000556289 -0.0101412 0)
(-0.000154293 -0.00789087 0)
(5.52249e-05 -0.0053885 0)
(9.49237e-05 -0.00282744 0)
(3.08414e-05 -0.000617696 0)
(-9.87684e-05 0.00409732 0)
(-0.000647633 0.00960635 0)
(-0.0015765 0.0131628 0)
(-0.0026778 0.0153546 0)
(-0.00393711 0.0166336 0)
(-0.00524503 0.0173257 0)
(-0.00661308 0.0176567 0)
(-0.00798787 0.0177707 0)
(-0.00938703 0.0177567 0)
(-0.0107834 0.0176637 0)
(-0.0121916 0.0175173 0)
(-0.0135964 0.0173279 0)
(-0.0150074 0.0170986 0)
(-0.0164146 0.0168277 0)
(-0.0178234 0.0165117 0)
(-0.0192261 0.0161455 0)
(-0.0206245 0.0157237 0)
(-0.0220116 0.0152399 0)
(-0.0233859 0.0146875 0)
(-0.0247399 0.0140595 0)
(-0.0260691 0.0133489 0)
(-0.0273642 0.0125484 0)
(-0.0286172 0.0116511 0)
(-0.0298166 0.0106502 0)
(-0.0309507 0.00954003 0)
(-0.0320047 0.00831561 0)
(-0.0329632 0.00697369 0)
(-0.0338081 0.00551296 0)
(-0.0345206 0.00393469 0)
(-0.0350798 0.0022432 0)
(-0.0354647 0.000446591 0)
(-0.0356536 -0.00144288 0)
(-0.0356259 -0.00340813 0)
(-0.035362 -0.00542716 0)
(-0.0348461 -0.00747261 0)
(-0.0340656 -0.00951235 0)
(-0.0330145 -0.0115095 0)
(-0.0316935 -0.0134241 0)
(-0.0301123 -0.0152137 0)
(-0.0282894 -0.0168367 0)
(-0.0262543 -0.0182529 0)
(-0.024045 -0.0194286 0)
(-0.0217096 -0.0203365 0)
(-0.0193005 -0.0209618 0)
(-0.0168765 -0.0212985 0)
(-0.0144931 -0.0213575 0)
(-0.0122058 -0.0211553 0)
(-0.0100584 -0.0207239 0)
(-0.0080893 -0.0200908 0)
(-0.00631995 -0.0192906 0)
(-0.00476634 -0.0183359 0)
(-0.00342826 -0.0172359 0)
(-0.00230668 -0.0159596 0)
(-0.00139235 -0.014471 0)
(-0.00068668 -0.0126962 0)
(-0.000183217 -0.0105949 0)
(0.000112842 -0.0081447 0)
(0.000220657 -0.00546106 0)
(0.000167225 -0.00276641 0)
(4.28279e-05 -0.000530727 0)
(-9.98401e-05 0.004425 0)
(-0.000654513 0.0103652 0)
(-0.00159349 0.0141949 0)
(-0.00270727 0.0165531 0)
(-0.00398154 0.01793 0)
(-0.00530611 0.0186777 0)
(-0.00669298 0.0190398 0)
(-0.00808861 0.0191712 0)
(-0.00951124 0.0191676 0)
(-0.0109338 0.0190813 0)
(-0.0123718 0.01894 0)
(-0.01381 0.0187545 0)
(-0.0152589 0.0185281 0)
(-0.0167088 0.018259 0)
(-0.0181657 0.0179432 0)
(-0.0196224 0.0175751 0)
(-0.0210812 0.0171485 0)
(-0.0225355 0.0166563 0)
(-0.0239845 0.016091 0)
(-0.0254207 0.0154444 0)
(-0.02684 0.0147081 0)
(-0.028233 0.0138736 0)
(-0.0295918 0.012932 0)
(-0.030904 0.0118751 0)
(-0.0321572 0.010695 0)
(-0.0333354 0.00938494 0)
(-0.0344214 0.00793952 0)
(-0.0353947 0.00635554 0)
(-0.0362336 0.00463252 0)
(-0.0369136 0.00277342 0)
(-0.0374093 0.000785485 0)
(-0.0376941 -0.00131907 0)
(-0.037742 -0.00352225 0)
(-0.0375278 -0.00579988 0)
(-0.0370294 -0.00812098 0)
(-0.0362292 -0.0104481 0)
(-0.0351164 -0.0127374 0)
(-0.0336882 -0.0149402 0)
(-0.0319534 -0.0170038 0)
(-0.0299315 -0.0188754 0)
(-0.0276566 -0.0205036 0)
(-0.0251733 -0.0218442 0)
(-0.0225404 -0.0228606 0)
(-0.0198223 -0.0235322 0)
(-0.017093 -0.0238505 0)
(-0.014422 -0.0238283 0)
(-0.0118805 -0.0234883 0)
(-0.00952334 -0.0228733 0)
(-0.00739911 -0.0220227 0)
(-0.0055317 -0.0209867 0)
(-0.00393795 -0.0197892 0)
(-0.00261029 -0.0184507 0)
(-0.00154346 -0.0169435 0)
(-0.000715371 -0.0152346 0)
(-0.000120471 -0.0132445 0)
(0.000260988 -0.0109341 0)
(0.000427512 -0.00828213 0)
(0.000413701 -0.00542546 0)
(0.000250864 -0.0026196 0)
(5.6554e-05 -0.000403052 0)
(-0.000100589 0.00475472 0)
(-0.000660239 0.0111301 0)
(-0.00160844 0.0152361 0)
(-0.00273383 0.017763 0)
(-0.00402229 0.01924 0)
(-0.00536283 0.0200452 0)
(-0.00676796 0.0204405 0)