/*--------------------------------*- C++ -*----------------------------------*\
| =========                 |                                                 |
| \\      /  F ield         | OpenFOAM: The Open Source CFD Toolbox           |
|  \\    /   O peration     | Version:  2406                                  |
|   \\  /    A nd           | Website:  www.openfoam.com                      |
|    \\/     M anipulation  |                                                 |
\*---------------------------------------------------------------------------*/
FoamFile
{
    version     2.0;
    format      ascii;
    arch        "LSB;label=32;scalar=64";
    class       volVectorField;
    location    "21.15";
    object      Uold;
}
// * * * * * * * * * * * * * * * * * * * * * * * * * * * * * * * * * * * * * //

dimensions      [0 1 -1 0 0 0 0];

internalField   nonuniform List<vector> 
3600
(
(3.167e-05 -3.07403e-05 0)
(0.000232255 -9.12285e-05 0)
(0.000532042 -0.000106467 0)
(0.000805726 -9.69443e-05 0)
(0.00105273 -8.05938e-05 0)
(0.00123373 -6.29161e-05 0)
(0.0013709 -4.76564e-05 0)
(0.00144676 -3.14716e-05 0)
(0.00147027 -1.53692e-05 0)
(0.00142664 3.41038e-06 0)
(0.00131419 2.31706e-05 0)
(0.00112187 4.53575e-05 0)
(0.000844207 6.85041e-05 0)
(0.000473137 9.40495e-05 0)
(3.30512e-09 0.000121585 0)
(-0.000584135 0.000152814 0)
(-0.00129176 0.000187752 0)
(-0.00213287 0.000227402 0)
(-0.00311912 0.000270941 0)
(-0.00425475 0.000317714 0)
(-0.00554046 0.000365273 0)
(-0.00696364 0.00041089 0)
(-0.00850194 0.00045017 0)
(-0.0101146 0.000478294 0)
(-0.0117465 0.000489185 0)
(-0.0133228 0.000476805 0)
(-0.0147558 0.000434947 0)
(-0.015944 0.000358801 0)
(-0.0167837 0.000245309 0)
(-0.0171726 9.48706e-05 0)
(-0.0170244 -8.83062e-05 0)
(-0.0162747 -0.000295143 0)
(-0.0148949 -0.000512307 0)
(-0.0128954 -0.000722572 0)
(-0.0103351 -0.000906844 0)
(-0.00731638 -0.00104597 0)
(-0.00398779 -0.00112367 0)
(-0.000526156 -0.00112896 0)
(0.0028679 -0.00105856 0)
(0.00600021 -0.000918161 0)
(0.00868988 -0.000722178 0)
(0.0108047 -0.000492223 0)
(0.0122575 -0.000253095 0)
(0.0130354 -2.92831e-05 0)
(0.0131723 0.00016028 0)
(0.0127668 0.000303487 0)
(0.0119311 0.000397533 0)
(0.0108094 0.000445431 0)
(0.00951557 0.000456198 0)
(0.00817176 0.000439048 0)
(0.00684256 0.000405243 0)
(0.00560201 0.000362022 0)
(0.00445804 0.000318246 0)
(0.00344655 0.000276114 0)
(0.00253739 0.000241402 0)
(0.00175401 0.00020792 0)
(0.00106468 0.000176567 0)
(0.000516954 0.000125623 0)
(0.00013119 5.94639e-05 0)
(-2.96553e-05 -3.08988e-05 0)
(9.60878e-05 -0.000234396 0)
(0.00048029 -0.000473725 0)
(0.0009913 -0.00052022 0)
(0.00143568 -0.000458761 0)
(0.00180938 -0.000365132 0)
(0.00205041 -0.000256622 0)
(0.0021815 -0.000151505 0)
(0.00217173 -3.51368e-05 0)
(0.00202174 8.86125e-05 0)
(0.00170018 0.000232203 0)
(0.00118898 0.000389963 0)
(0.000458489 0.000568089 0)
(-0.000516186 0.000761285 0)
(-0.00176141 0.000974616 0)
(-0.00330521 0.00120602 0)
(-0.00517239 0.00146005 0)
(-0.00738989 0.00173411 0)
(-0.00997354 0.00202691 0)
(-0.0129328 0.00232864 0)
(-0.0162536 0.00262728 0)
(-0.0199025 0.00290244 0)
(-0.0238106 0.00313079 0)
(-0.0278811 0.00328288 0)
(-0.0319783 0.00332858 0)
(-0.0359413 0.0032367 0)
(-0.0395823 0.00298115 0)
(-0.0427061 0.00254235 0)
(-0.0451156 0.00191307 0)
(-0.0466327 0.00109944 0)
(-0.0471051 0.000124526 0)
(-0.0464241 -0.000973185 0)
(-0.0445271 -0.00213928 0)
(-0.0414115 -0.00330786 0)
(-0.037131 -0.00440392 0)
(-0.0318058 -0.0053504 0)
(-0.0256117 -0.0060729 0)
(-0.0187855 -0.00650874 0)
(-0.0116037 -0.00661299 0)
(-0.00438227 -0.0063671 0)
(0.00255886 -0.00578286 0)
(0.00890001 -0.00490533 0)
(0.01437 -0.00380953 0)
(0.0187451 -0.00259242 0)
(0.0219005 -0.00136086 0)
(0.0237868 -0.000215083 0)
(0.0244716 0.000763486 0)
(0.0240801 0.00152504 0)
(0.0228266 0.00205092 0)
(0.0209221 0.00235472 0)
(0.0186172 0.002468 0)
(0.0160935 0.00243784 0)
(0.0135451 0.00230778 0)
(0.0110594 0.00212462 0)
(0.00874983 0.00191509 0)
(0.00661617 0.00170822 0)
(0.00472778 0.00149329 0)
(0.00305458 0.00127228 0)
(0.00169105 0.000978575 0)
(0.000649733 0.000619375 0)
(7.23613e-05 0.000138456 0)
(0.000114691 -0.00054197 0)
(0.000520876 -0.000980998 0)
(0.00102097 -0.00103663 0)
(0.00140407 -0.00087448 0)
(0.00166931 -0.000650414 0)
(0.00175416 -0.000389724 0)
(0.00167394 -0.000127454 0)
(0.00138887 0.000168919 0)
(0.000880984 0.000495125 0)
(0.000102267 0.000877736 0)
(-0.000989353 0.00130847 0)
(-0.00244374 0.00179974 0)
(-0.00431067 0.00234233 0)
(-0.00663654 0.00294436 0)
(-0.00947064 0.00360003 0)
(-0.0128509 0.0043125 0)
(-0.0168119 0.00506912 0)
(-0.0213623 0.00585481 0)
(-0.026491 0.00663527 0)
(-0.0321426 0.00736803 0)
(-0.0382259 0.00799408 0)
(-0.0445968 0.00844939 0)
(-0.0510744 0.00866338 0)
(-0.0574365 0.00857148 0)
(-0.0634438 0.00811766 0)
(-0.0688446 0.00726585 0)
(-0.0734001 0.00600153 0)
(-0.076889 0.00433847 0)
(-0.0791266 0.0023162 0)
(-0.0799637 1.9224e-06 0)
(-0.0793007 -0.00251504 0)
(-0.0770824 -0.00512395 0)
(-0.0733102 -0.00769993 0)
(-0.0680361 -0.0101065 0)
(-0.0613746 -0.0122055 0)
(-0.053495 -0.0138622 0)
(-0.0446325 -0.0149596 0)
(-0.0350722 -0.0154061 0)
(-0.0251559 -0.0151519 0)
(-0.0152509 -0.0141958 0)
(-0.00574945 -0.0125959 0)
(0.00298048 -0.0104663 0)
(0.0105977 -0.00797182 0)
(0.0168493 -0.0053094 0)
(0.0215568 -0.00268444 0)
(0.0246755 -0.000284832 0)
(0.0262446 0.00174449 0)
(0.0264349 0.00331464 0)
(0.0254548 0.00440104 0)
(0.0235983 0.00503138 0)
(0.0211168 0.00527751 0)
(0.0182985 0.00522713 0)
(0.0153194 0.00497943 0)
(0.0123848 0.00460943 0)
(0.00955663 0.00418466 0)
(0.00697087 0.00370975 0)
(0.00462032 0.00318664 0)
(0.00265594 0.00251812 0)
(0.00108455 0.00168375 0)
(0.000161469 0.000570054 0)
(0.000105947 -0.000817743 0)
(0.000426236 -0.0013865 0)
(0.000754927 -0.00138858 0)
(0.000908769 -0.00107508 0)
(0.000894025 -0.00068017 0)
(0.000660563 -0.000225014 0)
(0.000208473 0.000246355 0)
(-0.000512261 0.000791489 0)
(-0.00154829 0.00140904 0)
(-0.00296803 0.002142 0)
(-0.00484513 0.00298022 0)
(-0.0072525 0.0039425 0)
(-0.0102696 0.00501475 0)
(-0.0139634 0.00620553 0)
(-0.018404 0.00749995 0)
(-0.0236358 0.00889067 0)
(-0.0296898 0.0103418 0)
(-0.0365494 0.0118077 0)
(-0.0441611 0.0132114 0)
(-0.0524066 0.0144628 0)
(-0.0611212 0.0154519 0)
(-0.0700814 0.0160691 0)
(-0.0790352 0.0162078 0)
(-0.0877017 0.015783 0)
(-0.0958043 0.0147344 0)
(-0.103071 0.0130379 0)
(-0.109257 0.0107018 0)
(-0.114145 0.00777152 0)
(-0.117551 0.00432214 0)
(-0.119324 0.000459608 0)
(-0.119356 -0.0036864 0)
(-0.11757 -0.00796164 0)
(-0.113939 -0.0121947 0)
(-0.108478 -0.0161973 0)
(-0.101261 -0.0197751 0)
(-0.0924136 -0.0227324 0)
(-0.0821382 -0.0248891 0)
(-0.0706983 -0.0260919 0)
(-0.058435 -0.0262369 0)
(-0.0457427 -0.0252829 0)
(-0.0330709 -0.0232704 0)
(-0.0208763 -0.0203246 0)
(-0.00961493 -0.0166543 0)
(0.000327618 -0.0125313 0)
(0.00863415 -0.0082624 0)
(0.0151271 -0.00415098 0)
(0.0197291 -0.000459388 0)
(0.0225212 0.00261981 0)
(0.0236534 0.00498235 0)
(0.0234019 0.00661015 0)
(0.0220343 0.00756305 0)
(0.0198927 0.00794908 0)
(0.0172231 0.0079078 0)
(0.0143199 0.00756624 0)
(0.0113197 0.00703826 0)
(0.00844159 0.00636433 0)
(0.0057202 0.00555466 0)
(0.00337428 0.00450103 0)
(0.00142147 0.0031228 0)
(0.000230967 0.00121468 0)
(8.16191e-05 -0.00104605 0)
(0.000244788 -0.00164261 0)
(0.000295819 -0.00151104 0)
(0.000108927 -0.000989187 0)
(-0.0003041 -0.000377839 0)
(-0.000973697 0.000321035 0)
(-0.00192491 0.00106633 0)
(-0.0032207 0.00194928 0)
(-0.00494768 0.00297595 0)
(-0.00719905 0.0042077 0)
(-0.0100883 0.00563284 0)
(-0.0137139 0.00727538 0)
(-0.0181885 0.00911391 0)
(-0.0235973 0.0111518 0)
(-0.0300265 0.0133555 0)
(-0.0375142 0.0156922 0)
(-0.0460712 0.0180837 0)
(-0.0556338 0.0204325 0)
(-0.0660868 0.0225996 0)
(-0.0772345 0.024434 0)
(-0.0888365 0.025771 0)
(-0.100599 0.0264621 0)
(-0.112217 0.0263791 0)
(-0.123373 0.0254348 0)
(-0.13377 0.0235802 0)
(-0.143124 0.0208134 0)
(-0.151191 0.0171705 0)
(-0.157747 0.012728 0)
(-0.162611 0.00759317 0)
(-0.165627 0.00190599 0)
(-0.166673 -0.00416902 0)
(-0.165656 -0.0104397 0)
(-0.16252 -0.0166929 0)
(-0.157236 -0.0226928 0)
(-0.149829 -0.0281898 0)
(-0.140366 -0.032924 0)
(-0.12899 -0.0366429 0)
(-0.115914 -0.0391145 0)
(-0.101446 -0.040156 0)
(-0.0859808 -0.0396545 0)
(-0.0700086 -0.0375992 0)
(-0.0540728 -0.0340936 0)
(-0.0387582 -0.0293674 0)
(-0.0246099 -0.0237564 0)
(-0.0121137 -0.0176738 0)
(-0.00160592 -0.0115549 0)
(0.00670499 -0.00580517 0)
(0.0128032 -0.000750215 0)
(0.0167756 0.00339366 0)
(0.0188672 0.00653067 0)
(0.0193416 0.00867574 0)
(0.0185669 0.00993131 0)
(0.0168347 0.0104561 0)
(0.0145098 0.0104231 0)
(0.011798 0.0099904 0)
(0.00900107 0.00924808 0)
(0.00620999 0.00821956 0)
(0.00371909 0.00680154 0)
(0.00158119 0.00483434 0)
(0.000259793 0.00200564 0)
(4.71209e-05 -0.00114953 0)
(-4.15076e-06 -0.0016122 0)
(-0.000319097 -0.00124424 0)
(-0.000939826 -0.000452811 0)
(-0.0018518 0.00042053 0)
(-0.00306261 0.00141441 0)
(-0.00463569 0.00250787 0)
(-0.00665247 0.00383461 0)
(-0.00925176 0.00541222 0)
(-0.0125561 0.00731991 0)
(-0.0167257 0.0095427 0)
(-0.0218848 0.0121056 0)
(-0.0281791 0.0149739 0)
(-0.0357037 0.0181347 0)
(-0.0445476 0.0215199 0)
(-0.0547206 0.0250498 0)
(-0.0661869 0.0285812 0)
(-0.0788082 0.0319449 0)
(-0.0923861 0.0349284 0)
(-0.106634 0.0373194 0)
(-0.121233 0.0389082 0)
(-0.13582 0.039524 0)
(-0.150045 0.039035 0)
(-0.163557 0.0373676 0)
(-0.176049 0.0344972 0)
(-0.187242 0.0304539 0)
(-0.196907 0.0253084 0)
(-0.20485 0.0191726 0)
(-0.210923 0.0121865 0)
(-0.215001 0.00451929 0)
(-0.216989 -0.00363927 0)
(-0.216799 -0.0120737 0)
(-0.214364 -0.020548 0)
(-0.209621 -0.0287982 0)
(-0.20253 -0.0365387 0)
(-0.193075 -0.0434593 0)
(-0.181293 -0.0492402 0)
(-0.167283 -0.0535626 0)
(-0.151252 -0.0561409 0)
(-0.133518 -0.0567503 0)
(-0.114546 -0.0552739 0)
(-0.094921 -0.0517333 0)
(-0.0753485 -0.0463232 0)
(-0.0565646 -0.0394065 0)
(-0.0392903 -0.031493 0)
(-0.0241036 -0.0231696 0)
(-0.0114163 -0.0150256 0)
(-0.00138506 -0.0075653 0)
(0.00600462 -0.0011581 0)
(0.0109755 0.00399106 0)
(0.013801 0.00782595 0)
(0.0148788 0.0104216 0)
(0.0145424 0.0119345 0)
(0.013214 0.0125697 0)
(0.0111619 0.01252 0)
(0.0087619 0.0119273 0)
(0.00616905 0.0108307 0)
(0.0037485 0.00914029 0)
(0.00160506 0.00661374 0)
(0.000263221 0.00283264 0)
(4.04654e-06 -0.00113329 0)
(-0.000309083 -0.00127949 0)
(-0.00105963 -0.000561921 0)
(-0.00218716 0.000565784 0)
(-0.00368088 0.00175631 0)
(-0.00552757 0.00311512 0)
(-0.0078445 0.00466085 0)
(-0.010738 0.0065776 0)
(-0.0144105 0.0088972 0)
(-0.0190159 0.0117136 0)
(-0.0247646 0.0150042 0)
(-0.0318017 0.0187871 0)
(-0.0402984 0.0230028 0)
(-0.0503414 0.0276038 0)
(-0.0619981 0.0324634 0)
(-0.0752165 0.0374274 0)
(-0.0898806 0.0422629 0)
(-0.105745 0.0467122 0)
(-0.122503 0.0504843 0)
(-0.139759 0.0533109 0)
(-0.157105 0.054951 0)
(-0.17411 0.0552293 0)
(-0.190383 0.0540319 0)
(-0.205564 0.0513214 0)
(-0.219371 0.0471208 0)
(-0.231571 0.0415136 0)
(-0.24201 0.0346219 0)
(-0.250576 0.0266031 0)
(-0.257208 0.0176312 0)
(-0.261855 0.00789852 0)
(-0.264487 -0.00239449 0)
(-0.265055 -0.0130303 0)
(-0.263502 -0.0237766 0)
(-0.259737 -0.0343722 0)
(-0.253661 -0.0445273 0)
(-0.24515 -0.0539114 0)
(-0.234099 -0.062161 0)
(-0.220434 -0.0688818 0)
(-0.204166 -0.0736776 0)
(-0.185426 -0.0761793 0)
(-0.164527 -0.0761033 0)
(-0.141976 -0.0733045 0)
(-0.118507 -0.0678443 0)
(-0.0950172 -0.0600232 0)
(-0.0725068 -0.0503927 0)
(-0.0519156 -0.0396915 0)
(-0.0340175 -0.0287484 0)
(-0.019257 -0.0183358 0)
(-0.00777865 -0.0090654 0)
(0.000598841 -0.00131315 0)
(0.00618886 0.00476097 0)
(0.00945823 0.00919307 0)
(0.0108164 0.0121313 0)
(0.0107569 0.0138089 0)
(0.00961766 0.0144484 0)
(0.0078431 0.0142423 0)
(0.00565683 0.0132472 0)
(0.00348615 0.0113912 0)
(0.00149601 0.00836129 0)
(0.000239959 0.00364727 0)
(-5.03237e-05 -0.000932379 0)
(-0.000676942 -0.000536081 0)
(-0.00193359 0.000657614 0)
(-0.0036409 0.00219473 0)
(-0.00580156 0.00376871 0)
(-0.00838712 0.00558351 0)
(-0.0115856 0.00771754 0)
(-0.0155344 0.0104103 0)
(-0.020508 0.0137067 0)
(-0.0266896 0.0177074 0)
(-0.0343374 0.0223729 0)
(-0.0436037 0.0276996 0)
(-0.0546666 0.0335834 0)
(-0.0675722 0.0399138 0)
(-0.082326 0.0464741 0)
(-0.0987667 0.0530046 0)
(-0.116652 0.0591608 0)
(-0.13559 0.0645867 0)
(-0.155136 0.0689173 0)
(-0.174772 0.0718453 0)
(-0.194003 0.073126 0)
(-0.212352 0.0726154 0)
(-0.229434 0.0702575 0)
(-0.24494 0.0660916 0)
(-0.258678 0.0602227 0)
(-0.270534 0.0528129 0)
(-0.280488 0.0440491 0)
(-0.288559 0.0341359 0)
(-0.294814 0.0232734 0)
(-0.299312 0.0116601 0)
(-0.302112 -0.000516547 0)
(-0.303227 -0.0130666 0)
(-0.302637 -0.0257964 0)
(-0.30025 -0.038488 0)
(-0.295926 -0.0508925 0)
(-0.289451 -0.0627078 0)
(-0.280577 -0.0735747 0)
(-0.269026 -0.0830657 0)
(-0.254553 -0.0907003 0)
(-0.23699 -0.0959648 0)
(-0.216339 -0.0983694 0)
(-0.192833 -0.0975147 0)
(-0.167023 -0.0931941 0)
(-0.139785 -0.0854799 0)
(-0.112303 -0.0748043 0)
(-0.085912 -0.0619538 0)
(-0.0619234 -0.0479927 0)
(-0.0413369 -0.0340653 0)
(-0.024714 -0.0211896 0)
(-0.0120758 -0.0100659 0)
(-0.00310531 -0.00105228 0)
(0.00277432 0.00581611 0)
(0.0061173 0.0106806 0)
(0.00754207 0.0138155 0)
(0.00749361 0.0154826 0)
(0.00649812 0.01593 0)
(0.00485813 0.0152383 0)
(0.00305574 0.0133575 0)
(0.00131912 0.00992553 0)
(0.0002067 0.00436842 0)
(-0.000115944 -0.000545667 0)
(-0.00110486 0.00063335 0)
(-0.00293185 0.00243423 0)
(-0.00528498 0.00445964 0)
(-0.0081945 0.00650028 0)
(-0.0116251 0.00889271 0)
(-0.0158523 0.0117936 0)
(-0.0210479 0.0154977 0)
(-0.0275614 0.0200564 0)
(-0.0355959 0.0255634 0)
(-0.0454449 0.031947 0)
(-0.0572426 0.0391575 0)
(-0.0711395 0.0470153 0)
(-0.0870917 0.0553077 0)
(-0.104988 0.0636886 0)
(-0.124501 0.0717605 0)
(-0.145215 0.0790511 0)
(-0.166554 0.0851082 0)
(-0.187928 0.0895148 0)
(-0.208709 0.0919625 0)
(-0.228365 0.092255 0)
(-0.246437 0.0903369 0)
(-0.262631 0.0862648 0)
(-0.27677 0.0801983 0)
(-0.288826 0.0723534 0)
(-0.298855 0.0629831 0)
(-0.307006 0.0523389 0)
(-0.313447 0.0406623 0)
(-0.318375 0.0281631 0)
(-0.321958 0.0150265 0)
(-0.324344 0.00140607 0)
(-0.325618 -0.0125582 0)
(-0.325812 -0.0267374 0)
(-0.324868 -0.040988 0)
(-0.322653 -0.0551419 0)
(-0.318922 -0.0689759 0)
(-0.313347 -0.0821971 0)
(-0.305497 -0.0944151 0)
(-0.294892 -0.105137 0)
(-0.281039 -0.113765 0)
(-0.263528 -0.11963 0)
(-0.242131 -0.122054 0)
(-0.216947 -0.12046 0)
(-0.188502 -0.114506 0)
(-0.157843 -0.104248 0)
(-0.126479 -0.0902542 0)
(-0.0962349 -0.0736359 0)
(-0.0688844 -0.0558899 0)
(-0.045802 -0.0386125 0)
(-0.0276156 -0.0231046 0)
(-0.0142496 -0.0101658 0)
(-0.00507218 -3.07632e-05 0)
(0.000679892 0.0074091 0)
(0.00384 0.0124953 0)
(0.00503764 0.0155634 0)
(0.00492679 0.0169442 0)
(0.00391507 0.0167632 0)
(0.00254563 0.0150044 0)
(0.00111181 0.0112866 0)
(0.000169465 0.00499823 0)
(-0.000197061 9.54523e-05 0)
(-0.00160439 0.00233429 0)
(-0.00407068 0.00488278 0)
(-0.00714051 0.00748582 0)
(-0.0108884 0.0100991 0)
(-0.0152815 0.0132265 0)
(-0.0206963 0.0171163 0)
(-0.0273369 0.0221099 0)
(-0.0356227 0.028251 0)
(-0.0457578 0.0356032 0)
(-0.0580463 0.0440371 0)
(-0.0725638 0.05342 0)
(-0.0893811 0.0634534 0)
(-0.1083 0.0737735 0)
(-0.12903 0.0838657 0)
(-0.151019 0.0931719 0)
(-0.173645 0.101095 0)
(-0.19615 0.107117 0)
(-0.217831 0.110822 0)
(-0.238026 0.111973 0)
(-0.25626 0.110501 0)
(-0.272206 0.106509 0)
(-0.285758 0.100217 0)
(-0.296944 0.0919311 0)
(-0.305946 0.0819843 0)
(-0.313003 0.0707081 0)
(-0.318415 0.0583953 0)
(-0.32247 0.0452976 0)
(-0.325454 0.0316095 0)
(-0.327598 0.017482 0)
(-0.329105 0.00301963 0)
(-0.330107 -0.0116989 0)
(-0.330686 -0.0266177 0)
(-0.33084 -0.0416791 0)
(-0.330491 -0.0568144 0)
(-0.329448 -0.0719118 0)
(-0.327409 -0.086797 0)
(-0.323921 -0.101193 0)
(-0.318404 -0.114694 0)
(-0.310144 -0.126731 0)
(-0.298374 -0.136572 0)
(-0.282356 -0.143338 0)
(-0.261554 -0.146095 0)
(-0.235816 -0.143984 0)
(-0.205587 -0.136446 0)
(-0.172041 -0.123456 0)
(-0.137097 -0.105741 0)
(-0.103164 -0.0848227 0)
(-0.0726735 -0.0628199 0)
(-0.0474185 -0.0419042 0)
(-0.0281466 -0.0237528 0)
(-0.0145097 -0.0091553 0)
(-0.00559077 0.00180534 0)
(-0.00025646 0.00953296 0)
(0.00242128 0.01449 0)
(0.00331217 0.0171472 0)
(0.00298318 0.0177216 0)
(0.00206659 0.0162596 0)
(0.000931217 0.0123967 0)
(0.00014179 0.00551497 0)
(-0.000292079 0.000998904 0)
(-0.002168 0.00458356 0)
(-0.00533476 0.0080209 0)
(-0.00918477 0.0112985 0)
(-0.0138558 0.0146128 0)
(-0.0193256 0.0186663 0)
(-0.0260802 0.0238041 0)
(-0.0343455 0.0303951 0)
(-0.0445953 0.038452 0)
(-0.0570039 0.0479762 0)
(-0.0718465 0.0587427 0)
(-0.0890829 0.0704852 0)
(-0.108639 0.0827313 0)
(-0.130094 0.0949157 0)
(-0.152921 0.106326 0)
(-0.176319 0.116244 0)
(-0.199473 0.123987 0)
(-0.221499 0.129041 0)
(-0.241692 0.131087 0)
(-0.259482 0.13006 0)
(-0.274592 0.126099 0)
(-0.286932 0.119521 0)
(-0.296659 0.110728 0)
(-0.304031 0.100163 0)
(-0.309423 0.0882411 0)
(-0.313208 0.0753306 0)
(-0.315774 0.0617225 0)
(-0.317443 0.0476421 0)
(-0.318514 0.0332423 0)
(-0.319209 0.0186264 0)
(-0.319722 0.00384814 0)
(-0.320182 -0.0110659 0)
(-0.320697 -0.0261165 0)
(-0.32131 -0.0413124 0)
(-0.322028 -0.0566666 0)
(-0.322766 -0.0721729 0)
(-0.323356 -0.0877886 0)
(-0.323476 -0.103395 0)
(-0.322642 -0.118759 0)
(-0.320154 -0.133474 0)
(-0.315115 -0.146913 0)
(-0.306457 -0.158196 0)
(-0.293079 -0.1662 0)
(-0.274027 -0.169647 0)
(-0.248794 -0.167298 0)
(-0.217625 -0.158252 0)
(-0.181792 -0.142339 0)
(-0.143648 -0.120454 0)
(-0.106352 -0.0946956 0)
(-0.0731156 -0.0679972 0)
(-0.0462652 -0.0433309 0)
(-0.0265234 -0.0226942 0)
(-0.0132189 -0.00683458 0)
(-0.00495269 0.00455733 0)
(-0.000382149 0.0120999 0)
(0.00170652 0.0164934 0)
(0.00213064 0.0181275 0)
(0.0016727 0.0171692 0)
(0.000802386 0.0133162 0)
(0.000127655 0.00596808 0)
(-0.000404866 0.00223657 0)
(-0.00280322 0.00748463 0)
(-0.0067313 0.0119603 0)
(-0.011425 0.0160242 0)
(-0.0171033 0.0201971 0)
(-0.0237591 0.025403 0)
(-0.0319867 0.0320774 0)
(-0.0420139 0.0405846 0)
(-0.0543415 0.0508714 0)
(-0.0690714 0.0628307 0)
(-0.0863973 0.0760903 0)
(-0.106097 0.0901878 0)
(-0.127886 0.104421 0)
(-0.151066 0.117988 0)
(-0.174856 0.129978 0)
(-0.198231 0.139563 0)
(-0.220273 0.146065 0)
(-0.240107 0.149091 0)
(-0.257184 0.148545 0)
(-0.271182 0.144627 0)
(-0.282131 0.137743 0)
(-0.290241 0.128426 0)
(-0.295928 0.117229 0)
(-0.299636 0.104674 0)
(-0.301854 0.0911946 0)
(-0.30299 0.0771308 0)
(-0.303421 0.0627221 0)
(-0.303414 0.0481318 0)
(-0.303199 0.033453 0)
(-0.302923 0.0187374 0)
(-0.302719 0.00399815 0)
(-0.302671 -0.01077 0)
(-0.302872 -0.0255948 0)
(-0.303382 -0.0405138 0)
(-0.304271 -0.05558 0)
(-0.305564 -0.0708494 0)
(-0.307254 -0.0863759 0)
(-0.309233 -0.102184 0)
(-0.311261 -0.118233 0)
(-0.312882 -0.134358 0)
(-0.31338 -0.150192 0)
(-0.311716 -0.165076 0)
(-0.30657 -0.177992 0)
(-0.296432 -0.187539 0)
(-0.27987 -0.192021 0)
(-0.255892 -0.18969 0)
(-0.224435 -0.179179 0)
(-0.186799 -0.160077 0)
(-0.145836 -0.133514 0)
(-0.105587 -0.102351 0)
(-0.0702269 -0.0706867 0)
(-0.0425666 -0.0423849 0)
(-0.0231718 -0.0197841 0)
(-0.0107791 -0.00322168 0)
(-0.00360743 0.00795681 0)
(4.03024e-05 0.0147709 0)
(0.00136176 0.0178968 0)
(0.00138906 0.017721 0)
(0.000743693 0.0140645 0)
(0.000132399 0.00637708 0)
(-0.000530361 0.00381349 0)
(-0.00348954 0.0110414 0)
(-0.00822191 0.0167016 0)
(-0.0138046 0.0216704 0)
(-0.020554 0.0268764 0)
(-0.0284762 0.0334762 0)
(-0.0382635 0.041975 0)
(-0.0501154 0.0526875 0)
(-0.064521 0.0654494 0)
(-0.0814573 0.0799882 0)
(-0.100976 0.0957232 0)
(-0.122608 0.111931 0)
(-0.145813 0.12764 0)
(-0.1696 0.141803 0)
(-0.192981 0.153372 0)
(-0.214813 0.16151 0)
(-0.234229 0.165686 0)
(-0.250542 0.165774 0)
(-0.263519 0.162006 0)
(-0.273187 0.1549 0)
(-0.279922 0.145116 0)
(-0.284198 0.133348 0)
(-0.286611 0.120217 0)
(-0.287676 0.106237 0)
(-0.28788 0.0917777 0)
(-0.28756 0.0770958 0)
(-0.286991 0.0623406 0)
(-0.286323 0.0475968 0)
(-0.285674 0.0328971 0)
(-0.285087 0.0182532 0)
(-0.284619 0.00365662 0)
(-0.284294 -0.0109046 0)
(-0.28417 -0.025455 0)
(-0.2843 -0.0400258 0)
(-0.284775 -0.054666 0)
(-0.285685 -0.0694416 0)
(-0.287138 -0.084441 0)
(-0.289202 -0.0997669 0)
(-0.291898 -0.115518 0)
(-0.295096 -0.131748 0)
(-0.298459 -0.148391 0)
(-0.301312 -0.165162 0)
(-0.302574 -0.181411 0)
(-0.300708 -0.196004 0)
(-0.293824 -0.207242 0)
(-0.279952 -0.212934 0)
(-0.257531 -0.210697 0)
(-0.226086 -0.198548 0)
(-0.18691 -0.175783 0)
(-0.143429 -0.143847 0)
(-0.100759 -0.106745 0)
(-0.0641394 -0.0700354 0)
(-0.0367466 -0.038692 0)
(-0.0185893 -0.014916 0)
(-0.0077395 0.00143516 0)
(-0.00192974 0.0116917 0)
(0.000567901 0.0169431 0)
(0.00117291 0.0179391 0)
(0.000740506 0.0147117 0)
(0.000153072 0.00680209 0)
(-0.000670621 0.00579493 0)
(-0.00422505 0.0153413 0)
(-0.00979446 0.0223391 0)
(-0.0163 0.0283459 0)
(-0.0241646 0.0347798 0)
(-0.033398 0.0430255 0)
(-0.0447673 0.0536218 0)
(-0.0584048 0.0667745 0)
(-0.0747427 0.0821512 0)
(-0.0935779 0.0992461 0)
(-0.114766 0.117206 0)
(-0.137551 0.134999 0)
(-0.161127 0.151376 0)
(-0.184267 0.165106 0)
(-0.205887 0.175117 0)
(-0.224892 0.180723 0)
(-0.240649 0.181702 0)
(-0.252813 0.178314 0)
(-0.261556 0.171165 0)
(-0.267261 0.161067 0)
(-0.270584 0.148853 0)
(-0.272147 0.135271 0)
(-0.27259 0.120904 0)
(-0.272373 0.106165 0)
(-0.271871 0.091303 0)
(-0.271276 0.0764555 0)
(-0.270721 0.0616741 0)
(-0.270224 0.046973 0)
(-0.269796 0.0323424 0)
(-0.269399 0.017775 0)
(-0.269028 0.00326245 0)
(-0.268661 -0.0111953 0)
(-0.26833 -0.0256009 0)
(-0.268068 -0.0399599 0)
(-0.267963 -0.0542929 0)
(-0.268116 -0.068642 0)
(-0.268678 -0.0830801 0)
(-0.269806 -0.0977203 0)
(-0.271675 -0.112711 0)
(-0.274409 -0.128231 0)
(-0.278032 -0.144436 0)
(-0.282335 -0.161388 0)
(-0.286756 -0.178908 0)
(-0.290218 -0.196395 0)
(-0.291036 -0.21261 0)
(-0.28697 -0.225537 0)
(-0.275502 -0.232409 0)
(-0.254462 -0.230064 0)
(-0.22291 -0.215785 0)
(-0.182167 -0.188528 0)
(-0.136379 -0.150346 0)
(-0.0919736 -0.106807 0)
(-0.055293 -0.0655062 0)
(-0.0294488 -0.0321359 0)
(-0.0134594 -0.00849541 0)
(-0.00459021 0.00668911 0)
(-0.000446269 0.0150015 0)
(0.000936545 0.0177344 0)
(0.000763206 0.0152521 0)
(0.000185945 0.00725903 0)
(-0.000815308 0.00816647 0)
(-0.00497056 0.0203517 0)
(-0.0113776 0.0288302 0)
(-0.0188054 0.0360052 0)
(-0.0277853 0.0438552 0)
(-0.0383138 0.0539688 0)
(-0.0512011 0.0668693 0)
(-0.0664694 0.0825862 0)
(-0.0844462 0.100559 0)
(-0.1047 0.119981 0)
(-0.126855 0.13968 0)
(-0.149865 0.158297 0)
(-0.172714 0.174356 0)
(-0.194048 0.186559 0)
(-0.212852 0.193976 0)
(-0.228255 0.19625 0)
(-0.240006 0.193596 0)
(-0.248173 0.186703 0)
(-0.253312 0.176519 0)
(-0.256074 0.164045 0)
(-0.257251 0.150161 0)
(-0.257468 0.135546 0)
(-0.257273 0.120646 0)
(-0.25697 0.105716 0)
(-0.256768 0.0908599 0)
(-0.256696 0.0761005 0)
(-0.256757 0.061413 0)
(-0.256867 0.0467691 0)
(-0.256971 0.0321451 0)
(-0.256983 0.0175376 0)
(-0.256871 0.00295547 0)
(-0.256594 -0.0115781 0)
(-0.25617 -0.0260369 0)
(-0.255614 -0.0403957 0)
(-0.255002 -0.0546401 0)
(-0.254416 -0.0687766 0)
(-0.254003 -0.0828399 0)
(-0.253927 -0.0969121 0)
(-0.254412 -0.111125 0)
(-0.255697 -0.125682 0)
(-0.25802 -0.140834 0)
(-0.26153 -0.15686 0)
(-0.266173 -0.173955 0)
(-0.271502 -0.192077 0)
(-0.276474 -0.210673 0)
(-0.27929 -0.228402 0)
(-0.277369 -0.242871 0)
(-0.267678 -0.250626 0)
(-0.247416 -0.247599 0)
(-0.215249 -0.2302 0)
(-0.172633 -0.197205 0)
(-0.12476 -0.151653 0)
(-0.0796061 -0.101594 0)
(-0.0444585 -0.0567305 0)
(-0.0215516 -0.0231609 0)
(-0.00843625 -0.00100949 0)
(-0.00195348 0.0116886 0)
(0.000545756 0.0169656 0)
(0.000760759 0.0156684 0)
(0.000222002 0.00777273 0)
(-0.000963891 0.01097 0)
(-0.00571336 0.0261232 0)
(-0.0129384 0.0362285 0)
(-0.0212636 0.0447071 0)
(-0.031319 0.0541563 0)
(-0.0430635 0.0663292 0)
(-0.0573113 0.0816713 0)
(-0.0739339 0.0999615 0)
(-0.0931148 0.120348 0)
(-0.114167 0.141669 0)
(-0.136484 0.16241 0)
(-0.158775 0.180924 0)
(-0.179916 0.195623 0)
(-0.198577 0.205303 0)
(-0.213979 0.209366 0)
(-0.225609 0.207918 0)
(-0.233653 0.201668 0)
(-0.238561 0.191694 0)
(-0.241166 0.17917 0)
(-0.242233 0.165142 0)
(-0.242538 0.150401 0)
(-0.242575 0.135454 0)
(-0.242716 0.120556 0)
(-0.243071 0.105789 0)
(-0.243687 0.0911307 0)
(-0.244462 0.0765204 0)
(-0.245316 0.0618957 0)
(-0.246111 0.0472189 0)
(-0.24677 0.0324773 0)
(-0.247195 0.0176871 0)
(-0.247356 0.0028827 0)
(-0.247209 -0.0118875 0)
(-0.24677 -0.0265704 0)
(-0.246048 -0.0411153 0)
(-0.245101 -0.0554777 0)
(-0.24399 -0.0696328 0)
(-0.242828 -0.0835743 0)
(-0.241747 -0.0973407 0)
(-0.240946 -0.111012 0)
(-0.240666 -0.124755 0)
(-0.241213 -0.138806 0)
(-0.242911 -0.153518 0)
(-0.246039 -0.16928 0)
(-0.250682 -0.186457 0)
(-0.256502 -0.205131 0)
(-0.262489 -0.224808 0)
(-0.266685 -0.243969 0)
(-0.266186 -0.259737 0)
(-0.257398 -0.267813 0)
(-0.236999 -0.26303 0)
(-0.203347 -0.240959 0)
(-0.158426 -0.200418 0)
(-0.108849 -0.146478 0)
(-0.064475 -0.090409 0)
(-0.0327899 -0.0442536 0)
(-0.0139813 -0.0124781 0)
(-0.00424858 0.00639372 0)
(-0.000142423 0.015338 0)
(0.000680966 0.0158435 0)
(0.000253801 0.00831643 0)
(-0.00110041 0.0141525 0)
(-0.00639637 0.0325615 0)
(-0.0143759 0.0444203 0)
(-0.0235259 0.0543154 0)
(-0.0345571 0.0655017 0)
(-0.0473634 0.0798411 0)
(-0.0627237 0.0976372 0)
(-0.0803273 0.11835 0)
(-0.100189 0.14079 0)
(-0.121365 0.16341 0)
(-0.143055 0.184377 0)
(-0.163813 0.201845 0)
(-0.182539 0.214266 0)
(-0.198077 0.220714 0)
(-0.210003 0.221072 0)
(-0.218216 0.215979 0)
(-0.223304 0.206601 0)
(-0.225984 0.194286 0)
(-0.227215 0.180277 0)
(-0.227718 0.16552 0)
(-0.228131 0.150607 0)
(-0.228741 0.135821 0)
(-0.229727 0.121221 0)
(-0.231025 0.106745 0)
(-0.232564 0.0922861 0)
(-0.234168 0.0777473 0)
(-0.235724 0.0630651 0)
(-0.237083 0.0482181 0)
(-0.238175 0.0332205 0)
(-0.238913 0.0181151 0)
(-0.23928 0.00296373 0)
(-0.23924 -0.0121631 0)
(-0.238818 -0.0271898 0)
(-0.238018 -0.0420479 0)
(-0.236894 -0.0566717 0)
(-0.235484 -0.0710163 0)
(-0.233873 -0.0850447 0)
(-0.232148 -0.0987596 0)
(-0.230453 -0.112186 0)
(-0.22897 -0.125427 0)
(-0.227966 -0.13865 0)
(-0.227783 -0.152163 0)
(-0.22883 -0.166385 0)
(-0.231506 -0.181873 0)
(-0.236018 -0.199138 0)
(-0.242143 -0.218434 0)
(-0.248821 -0.23925 0)
(-0.253924 -0.259796 0)
(-0.254082 -0.276503 0)
(-0.245206 -0.283955 0)
(-0.223449 -0.275766 0)
(-0.187279 -0.246678 0)
(-0.139631 -0.196491 0)
(-0.0893098 -0.133463 0)
(-0.0479196 -0.073578 0)
(-0.02167 -0.0290125 0)
(-0.00761475 -0.00163771 0)
(-0.00126144 0.0124682 0)
(0.000476353 0.0156247 0)
(0.000273641 0.00886009 0)
(-0.00122285 0.0177164 0)
(-0.00700146 0.0396633 0)
(-0.0156467 0.0534008 0)
(-0.0255187 0.0648161 0)
(-0.0373789 0.0778448 0)
(-0.0510296 0.0943958 0)
(-0.0671793 0.114566 0)
(-0.0853196 0.137436 0)
(-0.105293 0.161445 0)
(-0.125934 0.184663 0)
(-0.146317 0.205012 0)
(-0.16495 0.220577 0)
(-0.180889 0.230028 0)
(-0.193262 0.232875 0)
(-0.202051 0.229569 0)
(-0.207536 0.221263 0)
(-0.210601 0.209471 0)
(-0.21208 0.195649 0)
(-0.212907 0.180956 0)
(-0.213644 0.166117 0)
(-0.214727 0.151479 0)
(-0.216233 0.137095 0)
(-0.218174 0.122868 0)
(-0.220369 0.10864 0)
(-0.222691 0.0942718 0)
(-0.224936 0.0796692 0)
(-0.227 0.064793 0)
(-0.228744 0.0496509 0)
(-0.230122 0.0342887 0)
(-0.23106 0.0187753 0)
(-0.231557 0.00319713 0)
(-0.231589 -0.0123573 0)
(-0.231186 -0.0277946 0)
(-0.230357 -0.0430345 0)
(-0.229153 -0.0579972 0)
(-0.227605 -0.0726283 0)
(-0.225782 -0.086873 0)
(-0.223736 -0.100715 0)
(-0.221562 -0.114139 0)
(-0.219373 -0.127197 0)
(-0.21735 -0.139969 0)
(-0.215758 -0.152673 0)
(-0.214969 -0.165636 0)
(-0.215473 -0.17941 0)
(-0.217763 -0.194678 0)
(-0.222197 -0.212181 0)
(-0.228572 -0.232281 0)
(-0.235789 -0.254415 0)
(-0.241335 -0.276301 0)
(-0.24139 -0.293347 0)
(-0.23119 -0.298733 0)
(-0.206723 -0.284589 0)
(-0.166879 -0.245489 0)
(-0.1166 -0.183342 0)
(-0.0673636 -0.112323 0)
(-0.0319134 -0.0522652 0)
(-0.0122866 -0.0133244 0)
(-0.00293032 0.00783146 0)
(0.000115322 0.0147784 0)
(0.000276286 0.00933688 0)
(-0.00131198 0.0215564 0)
(-0.00746346 0.0472582 0)
(-0.0166398 0.0629687 0)
(-0.0270832 0.0759629 0)
(-0.0395719 0.0908601 0)
(-0.0537944 0.109554 0)
(-0.0703643 0.131884 0)
(-0.0885772 0.156513 0)
(-0.108123 0.181511 0)
(-0.12767 0.204607 0)
(-0.146252 0.22358 0)
(-0.162447 0.236598 0)
(-0.175559 0.242706 0)
(-0.185056 0.241952 0)
(-0.191308 0.235368 0)
(-0.194882 0.224527 0)
(-0.19682 0.211134 0)
(-0.197931 0.196592 0)
(-0.199012 0.181849 0)
(-0.200414 0.167356 0)
(-0.202368 0.153209 0)
(-0.204778 0.139276 0)
(-0.20755 0.125356 0)
(-0.210447 0.111254 0)
(-0.21333 0.0968378 0)
(-0.216008 0.0820395 0)
(-0.218398 0.0668555 0)
(-0.220383 0.0513247 0)
(-0.221936 0.0355224 0)
(-0.222996 0.0195394 0)
(-0.223573 0.00348353 0)
(-0.223647 -0.0125419 0)
(-0.223256 -0.0284273 0)
(-0.22241 -0.0440835 0)
(-0.221167 -0.0594189 0)
(-0.219557 -0.0743764 0)
(-0.217644 -0.0888918 0)
(-0.21547 -0.102946 0)
(-0.213099 -0.116502 0)
(-0.210594 -0.129586 0)
(-0.208057 -0.14221 0)
(-0.20565 -0.154507 0)
(-0.203631 -0.166667 0)
(-0.202417 -0.179127 0)
(-0.202542 -0.192511 0)
(-0.204645 -0.207742 0)
(-0.209129 -0.225731 0)
(-0.215865 -0.24698 0)
(-0.22346 -0.270676 0)
(-0.229032 -0.293728 0)
(-0.227967 -0.31011 0)
(-0.215098 -0.311065 0)
(-0.186308 -0.287495 0)
(-0.14206 -0.23457 0)
(-0.0900673 -0.159494 0)
(-0.0453076 -0.083923 0)
(-0.0183845 -0.0297722 0)
(-0.00529683 0.000846359 0)
(-0.000423736 0.0130307 0)
(0.000256 0.0096849 0)
(-0.00136761 0.025631 0)
(-0.00777034 0.0552885 0)
(-0.0173224 0.073064 0)
(-0.0281628 0.0876785 0)
(-0.0410467 0.104429 0)
(-0.0555377 0.125142 0)
(-0.0721401 0.149358 0)
(-0.0899772 0.175304 0)
(-0.108622 0.200703 0)
(-0.12665 0.223015 0)
(-0.143143 0.240003 0)
(-0.156834 0.250065 0)
(-0.167332 0.252742 0)
(-0.17444 0.248662 0)
(-0.178841 0.239376 0)
(-0.181268 0.226735 0)
(-0.182785 0.212478 0)
(-0.184078 0.197817 0)
(-0.185749 0.183427 0)
(-0.18794 0.169472 0)
(-0.190714 0.155841 0)
(-0.193862 0.142275 0)
(-0.197246 0.128529 0)
(-0.200619 0.114412 0)
(-0.203862 0.0998221 0)
(-0.206808 0.0847274 0)
(-0.2094 0.0691593 0)
(-0.211539 0.0531821 0)