/*--------------------------------*- C++ -*----------------------------------*\
| =========                 |                                                 |
| \\      /  F ield         | OpenFOAM: The Open Source CFD Toolbox           |
|  \\    /   O peration     | Version:  2406                                  |
|   \\  /    A nd           | Website:  www.openfoam.com                      |
|    \\/     M anipulation  |                                                 |
\*---------------------------------------------------------------------------*/
FoamFile
{
    version     2.0;
    format      ascii;
    arch        "LSB;label=32;scalar=64";
    class       surfaceScalarField;
    location    "17.4";
    object      phi;
}
// * * * * * * * * * * * * * * * * * * * * * * * * * * * * * * * * * * * * * //

dimensions      [0 3 -1 0 0 0 0];

oriented        oriented;

internalField   nonuniform List<scalar> 
28560
(
7.61263e-09
-7.61588e-09
2.3138e-08
-1.58703e-08
3.94788e-08
-1.63043e-08
5.11817e-08
-1.18633e-08
5.66245e-08
-5.39452e-09
5.5023e-08
1.63064e-09
4.70428e-08
8.13181e-09
3.33733e-08
1.38605e-08
1.50405e-08
1.85956e-08
-7.15024e-09
2.24999e-08
-3.24547e-08
2.56565e-08
-6.03729e-08
2.83103e-08
-9.05616e-08
3.06104e-08
-1.22866e-07
3.27611e-08
-1.57267e-07
3.48843e-08
-1.93862e-07
3.71116e-08
-2.32829e-07
3.95149e-08
-2.74408e-07
4.21629e-08
-3.18874e-07
4.50871e-08
-3.66526e-07
4.83167e-08
-4.17679e-07
5.18616e-08
-4.72654e-07
5.57334e-08
-5.31778e-07
5.9936e-08
-5.95386e-07
6.44773e-08
-6.63818e-07
6.93634e-08
-7.37424e-07
7.4604e-08
-8.16565e-07
8.02086e-08
-9.0161e-07
8.61881e-08
-9.92939e-07
9.25521e-08
-1.09094e-06
9.93089e-08
-1.19601e-06
1.06463e-07
-1.30853e-06
1.14013e-07
-1.42889e-06
1.21952e-07
-1.55747e-06
1.30263e-07
-1.69459e-06
1.3892e-07
-1.84057e-06
1.47882e-07
-1.99565e-06
1.57096e-07
-2.16001e-06
1.66491e-07
-2.33375e-06
1.75976e-07
-2.51684e-06
1.85441e-07
-2.70914e-06
1.94753e-07
-2.91034e-06
2.03757e-07
-3.11996e-06
2.12271e-07
-3.33732e-06
2.20089e-07
-3.5615e-06
2.26984e-07
-3.79135e-06
2.32704e-07
-4.02543e-06
2.36976e-07
-4.26204e-06
2.39512e-07
-4.49916e-06
2.40012e-07
-4.73449e-06
2.38171e-07
-4.9654e-06
2.33684e-07
-5.189e-06
2.26257e-07
-5.40211e-06
2.15615e-07
-5.60131e-06
2.01515e-07
-5.78298e-06
1.83752e-07
-5.94336e-06
1.62177e-07
-6.07858e-06
1.36706e-07
-6.1848e-06
1.07329e-07
-6.25821e-06
7.41253e-08
-6.29522e-06
3.72679e-08
-6.29247e-06
-2.96673e-09
-6.247e-06
-4.61948e-08
-6.15633e-06
-9.19242e-08
-6.01859e-06
-1.39556e-07
-5.83256e-06
-1.88392e-07
-5.59785e-06
-2.37643e-07
-5.31488e-06
-2.86445e-07
-4.98502e-06
-3.33879e-07
-4.61054e-06
-3.7899e-07
-4.1947e-06
-4.20819e-07
-3.74166e-06
-4.5843e-07
-3.25647e-06
-4.90939e-07
-2.74496e-06
-5.17551e-07
-2.21364e-06
-5.37584e-07
-1.66955e-06
-5.50502e-07
-1.12008e-06
-5.55937e-07
-5.72828e-07
-5.5371e-07
-3.53428e-08
-5.4384e-07
4.85033e-07
-5.2655e-07
9.81376e-07
-5.02261e-07
1.44737e-06
-4.71582e-07
1.87745e-06
-4.35284e-07
2.26697e-06
-3.94275e-07
2.61226e-06
-3.49564e-07
2.91073e-06
-3.02223e-07
3.16086e-06
-2.53346e-07
3.36222e-06
-2.0401e-07
3.51534e-06
-1.55234e-07
3.62173e-06
-1.07953e-07
3.68367e-06
-6.29838e-08
3.70412e-06
-2.10091e-08
3.68659e-06
1.74344e-08
3.63495e-06
5.19624e-08
3.55331e-06
8.23381e-08
3.44587e-06
1.08466e-07
3.31681e-06
1.30375e-07
3.17015e-06
1.48205e-07
3.00971e-06
1.62183e-07
2.83899e-06
1.72613e-07
2.66115e-06
1.79841e-07
2.47899e-06
1.84255e-07
2.29487e-06
1.86249e-07
2.1108e-06
1.86236e-07
1.92837e-06
1.8459e-07
1.74882e-06
1.81706e-07
1.57304e-06
1.77882e-07
1.4017e-06
1.73456e-07
1.23511e-06
1.68586e-07
1.07362e-06
1.63517e-07
9.17317e-07
1.58157e-07
7.6665e-07
1.52608e-07
6.21963e-07
1.46334e-07
4.84549e-07
1.39246e-07
3.5587e-07
1.30014e-07
2.39141e-07
1.18394e-07
1.38221e-07
1.01767e-07
5.91495e-08
8.04519e-08
8.5699e-09
5.07905e-08
-9.65856e-09
1.92319e-08
-9.66913e-09
1.61807e-08
-2.34496e-08
4.16861e-08
-4.13654e-08
6.46363e-08
-3.88794e-08
7.58714e-08
-2.30592e-08
7.21163e-08
-1.55805e-09
5.16519e-08
2.19557e-08
1.53475e-08
4.42125e-08
-3.54854e-08
6.43226e-08
-9.88454e-08
8.14846e-08
-1.72951e-07
9.60391e-08
-2.56154e-07
1.08211e-07
-3.47247e-07
1.18689e-07
-4.45386e-07
1.27967e-07
-5.50133e-07
1.36675e-07
-6.61387e-07
1.45243e-07
-7.79325e-07
1.54102e-07
-9.04347e-07
1.63524e-07
-1.03701e-06
1.73751e-07
-1.17799e-06
1.84919e-07
-1.32804e-06
1.97139e-07
-1.48796e-06
2.10471e-07
-1.65859e-06
2.24966e-07
-1.84081e-06
2.40652e-07
-2.0355e-06
2.57565e-07
-2.24359e-06
2.75732e-07
-2.46602e-06
2.95187e-07
-2.70375e-06
3.15964e-07
-2.95777e-06
3.38094e-07
-3.22909e-06
3.61601e-07
-3.5187e-06
3.865e-07
-3.82761e-06
4.12787e-07
-4.1568e-06
4.40437e-07
-4.50718e-06
4.69396e-07
-4.87963e-06
4.99573e-07
-5.27487e-06
5.30835e-07
-5.69352e-06
5.62999e-07
-6.13599e-06
5.95828e-07
-6.60247e-06
6.2902e-07
-7.09285e-06
6.62203e-07
-7.6067e-06
6.94934e-07
-8.1432e-06
7.26689e-07
-8.70105e-06
7.56865e-07
-9.27848e-06
7.84778e-07
-9.87314e-06
8.09666e-07
-1.04821e-05
8.30694e-07
-1.11016e-05
8.46961e-07
-1.17275e-05
8.57517e-07
-1.23548e-05
8.61374e-07
-1.29777e-05
8.57528e-07
-1.35898e-05
8.44983e-07
-1.41841e-05
8.22778e-07
-1.47528e-05
7.90015e-07
-1.52877e-05
7.45896e-07
-1.57803e-05
6.89754e-07
-1.62215e-05
6.21089e-07
-1.66023e-05
5.396e-07
-1.69135e-05
4.45222e-07
-1.71464e-05
3.38153e-07
-1.72925e-05
2.18875e-07
-1.73439e-05
8.81814e-08
-1.72937e-05
-5.28201e-08
-1.71358e-05
-2.02698e-07
-1.68657e-05
-3.59707e-07
-1.64801e-05
-5.21802e-07
-1.59774e-05
-6.86665e-07
-1.53578e-05
-8.51744e-07
-1.46234e-05
-1.0143e-06
-1.37784e-05
-1.17147e-06
-1.28286e-05
-1.32033e-06
-1.17822e-05
-1.45796e-06
-1.06489e-05
-1.58157e-06
-9.44063e-06
-1.68851e-06
-8.17048e-06
-1.77642e-06
-6.85308e-06
-1.84328e-06
-5.50411e-06
-1.8875e-06
-4.13998e-06
-1.90797e-06
-2.77753e-06
-1.90411e-06
-1.43356e-06
-1.87594e-06
-1.24563e-07
-1.82402e-06
1.13376e-06
-1.74954e-06
2.32682e-06
-1.65421e-06
3.44146e-06
-1.54023e-06
4.4663e-06
-1.41025e-06
5.39193e-06
-1.26724e-06
6.2111e-06
-1.11441e-06
6.91883e-06
-9.55104e-07
7.5124e-06
-7.92651e-07
7.99137e-06
-6.30297e-07
8.35739e-06
-4.71078e-07
8.61406e-06
-3.17737e-07
8.7667e-06
-1.72651e-07
8.82207e-06
-3.77843e-08
8.78805e-06
8.53497e-08
8.67337e-06
1.9569e-07
8.48727e-06
2.92622e-07
8.23924e-06
3.75947e-07
7.93869e-06
4.45845e-07
7.59479e-06
5.02818e-07
7.21622e-06
5.47641e-07
6.81101e-06
5.8129e-07
6.38646e-06
6.04905e-07
5.94901e-06
6.19697e-07
5.50426e-06
6.26953e-07
5.05689e-06
6.27905e-07
4.61081e-06
6.23791e-07
4.16905e-06
6.15665e-07
3.7341e-06
6.04548e-07
3.30776e-06
5.91086e-07
2.89175e-06
5.75902e-07
2.48733e-06
5.58916e-07
2.09648e-06
5.40121e-07
1.72114e-06
5.18233e-07
1.36509e-06
4.92389e-07
1.03255e-06
4.59417e-07
7.30947e-07
4.1775e-07
4.68244e-07
3.61803e-07
2.55958e-07
2.91535e-07
1.03763e-07
2.00985e-07
1.95296e-08
1.03496e-07
8.8611e-09
1.67098e-08
-4.02181e-08
3.87525e-08
-6.37745e-08
5.21467e-08
-5.23007e-08
4.64674e-08
-1.75549e-08
1.79525e-08
2.69725e-08
-3.51716e-08
7.51445e-08
-1.11792e-07
1.21017e-07
-2.10065e-07
1.62873e-07
-3.27392e-07
1.99167e-07
-4.6133e-07
2.30418e-07
-6.09672e-07
2.57045e-07
-7.70727e-07
2.80303e-07
-9.43333e-07
3.01171e-07
-1.12686e-06
3.20852e-07
-1.32115e-06
3.40224e-07
-1.52644e-06
3.60142e-07
-1.74332e-06
3.81186e-07
-1.97258e-06
4.03852e-07
-2.21522e-06
4.2845e-07
-2.47235e-06
4.5523e-07
-2.7452e-06
4.84341e-07
-3.03504e-06
5.15907e-07
-3.34323e-06
5.50013e-07
-3.67115e-06
5.86744e-07
-4.02024e-06
6.26173e-07
-4.39198e-06
6.68375e-07
-4.78789e-06
7.13417e-07
-5.20949e-06
7.61359e-07
-5.65835e-06
8.12238e-07
-6.13602e-06
8.66061e-07
-6.64399e-06
9.22793e-07
-7.18373e-06
9.82343e-07
-7.75657e-06
1.04455e-06
-8.36371e-06
1.10916e-06
-9.00611e-06
1.17585e-06
-9.68449e-06
1.24415e-06
-1.03992e-05
1.31349e-06
-1.11502e-05
1.38314e-06
-1.1937e-05
1.45224e-06
-1.27584e-05
1.51978e-06
-1.36127e-05
1.58456e-06
-1.44974e-05
1.64524e-06
-1.5409e-05
1.70032e-06
-1.63435e-05
1.74815e-06
-1.72957e-05
1.78694e-06
-1.82594e-05
1.81482e-06
-1.92275e-05
1.82981e-06
-2.01918e-05
1.82994e-06
-2.11432e-05
1.8132e-06
-2.20718e-05
1.77768e-06
-2.29666e-05
1.72157e-06
-2.38159e-05
1.64326e-06
-2.46077e-05
1.54135e-06
-2.53294e-05
1.41479e-06
-2.59682e-05
1.26288e-06
-2.65113e-05
1.08535e-06
-2.69464e-05
8.82407e-07
-2.72614e-05
6.54793e-07
-2.74453e-05
4.03802e-07
-2.74881e-05
1.31304e-07
-2.7381e-05
-1.60247e-07
-2.7117e-05
-4.6782e-07
-2.66907e-05
-7.87837e-07
-2.6099e-05
-1.11621e-06
-2.53408e-05
-1.4484e-06
-2.44174e-05
-1.77949e-06
-2.33325e-05
-2.10429e-06
-2.20924e-05
-2.41742e-06
-2.0706e-05
-2.71345e-06
-1.91842e-05
-2.987e-06
-1.75408e-05
-3.2329e-06
-1.57914e-05
-3.44635e-06
-1.39537e-05
-3.62301e-06
-1.2047e-05
-3.75916e-06
-1.0092e-05
-3.85185e-06
-8.11051e-06
-3.89898e-06
-6.12471e-06
-3.89937e-06
-4.15706e-06
-3.85289e-06
-2.22969e-06
-3.76043e-06
-3.63961e-07
-3.62392e-06
1.41996e-06
-3.4463e-06
3.10357e-06
-3.23143e-06
4.67037e-06
-2.98399e-06
6.10623e-06
-2.70933e-06
7.39963e-06
-2.41329e-06
8.5419e-06
-2.10204e-06
9.52726e-06
-1.78188e-06
1.03529e-05
-1.459e-06
1.10189e-05
-1.13933e-06
1.1528e-05
-8.28351e-07
1.18855e-05
-5.30947e-07
1.20989e-05
-2.51287e-07
1.21775e-05
7.25282e-09
1.21321e-05
2.42135e-07
1.19746e-05
4.51666e-07
1.17175e-05
6.34969e-07
1.13737e-05
7.9193e-07
1.0956e-05
9.2311e-07
1.04767e-05
1.02966e-06
9.94778e-06
1.1132e-06
9.38004e-06
1.17572e-06
8.78342e-06
1.21945e-06
8.16678e-06
1.24679e-06
7.53774e-06
1.26011e-06
6.90289e-06
1.26182e-06
6.26763e-06
1.25402e-06
5.63659e-06
1.23869e-06
5.01341e-06
1.21721e-06
4.40156e-06
1.19072e-06
3.80392e-06
1.15927e-06
3.2242e-06
1.12267e-06
2.66602e-06
1.07884e-06
2.13527e-06
1.0258e-06
1.63818e-06
9.58445e-07
1.18504e-06
8.73332e-07
7.8584e-07
7.62156e-07
4.55901e-07
6.23659e-07
2.0642e-07
4.50415e-07
5.30063e-08
2.58943e-07
6.16052e-08
1.16671e-08
-5.17413e-08
1.98022e-08
-7.18774e-08
1.05051e-08
-4.28561e-08
-2.5685e-08
1.86842e-08
-9.2154e-08
9.34395e-08
-1.89936e-07
1.7288e-07
-3.17526e-07
2.48461e-07
-4.72508e-07
3.17679e-07
-6.5189e-07
3.78279e-07
-8.52771e-07
4.31008e-07
-1.07263e-06
4.76536e-07
-1.30947e-06
5.16763e-07
-1.56197e-06
5.53235e-07
-1.82939e-06
5.87816e-07
-2.11158e-06
6.2192e-07
-2.40887e-06
6.56903e-07
-2.72197e-06
6.93722e-07
-3.05191e-06
7.33192e-07
-3.39996e-06
7.75855e-07
-3.76756e-06
8.22144e-07
-4.15629e-06
8.72344e-07
-4.56786e-06
9.26694e-07
-5.00406e-06
9.85368e-07
-5.46674e-06
1.04853e-06
-5.95787e-06
1.11633e-06
-6.47943e-06
1.18891e-06
-7.03349e-06
1.26637e-06
-7.62213e-06
1.34881e-06
-8.24743e-06
1.43627e-06
-8.91145e-06
1.52873e-06
-9.61619e-06
1.62609e-06
-1.03635e-05
1.72812e-06
-1.11551e-05
1.8345e-06
-1.19924e-05
1.94471e-06
-1.28765e-05
2.05809e-06
-1.38081e-05
2.17376e-06
-1.47873e-05
2.29063e-06
-1.58137e-05
2.40736e-06
-1.68862e-05
2.52238e-06
-1.80027e-05
2.63384e-06
-1.91603e-05
2.73963e-06
-2.03551e-05
2.8374e-06
-2.1582e-05
2.92454e-06
-2.2835e-05
2.99825e-06
-2.41064e-05
3.05552e-06
-2.53878e-05
3.09325e-06
-2.66692e-05
3.10825e-06
-2.79396e-05
3.09734e-06
-2.91868e-05
3.05743e-06
-3.03976e-05
2.98559e-06
-3.15581e-05
2.87917e-06
-3.26534e-05
2.73586e-06
-3.36684e-05
2.55382e-06
-3.45877e-05
2.33176e-06
-3.53959e-05
2.06901e-06
-3.6078e-05
1.76561e-06
-3.66194e-05
1.42235e-06
-3.70065e-05
1.04085e-06
-3.72269e-05
6.23563e-07
-3.72696e-05
1.73794e-07
-3.71253e-05
-3.04311e-07
-3.67865e-05
-8.05793e-07
-3.6248e-05
-1.32493e-06
-3.5507e-05
-1.85531e-06
-3.4563e-05
-2.38993e-06
-3.34181e-05
-2.92127e-06
-3.20773e-05
-3.44148e-06
-3.05481e-05
-3.94248e-06
-2.88408e-05
-4.41615e-06
-2.69681e-05
-4.85449e-06
-2.49457e-05
-5.24982e-06
-2.27912e-05
-5.59495e-06
-2.05247e-05
-5.88338e-06
-1.81679e-05
-6.10952e-06
-1.57444e-05
-6.26882e-06
-1.32788e-05
-6.35795e-06
-1.07967e-05
-6.37491e-06
-8.32392e-06
-6.31919e-06
-5.88631e-06
-6.19175e-06
-3.50912e-06
-5.99509e-06
-1.21653e-06
-5.73319e-06
9.68763e-07
-5.41143e-06
3.02608e-06
-5.03645e-06
4.9371e-06
-4.61598e-06
6.68625e-06
-4.1586e-06
8.26097e-06
-3.67347e-06
9.65192e-06
-3.17009e-06
1.08531e-05
-2.65797e-06
1.18617e-05
-2.14637e-06
1.26785e-05
-1.644e-06
1.33069e-05
-1.15882e-06
1.37536e-05
-6.97824e-07
1.40274e-05
-2.66865e-07
1.41394e-05
1.29417e-07
1.41024e-05
4.87656e-07
1.39303e-05
8.0575e-07
1.36378e-05
1.08281e-06
1.32401e-05
1.31905e-06
1.27521e-05
1.51569e-06
1.21885e-05
1.67478e-06
1.1563e-05
1.79902e-06
1.08887e-05
1.89163e-06
1.01771e-05
1.95613e-06
9.43878e-06
1.99616e-06
8.68299e-06
2.0154e-06
7.91761e-06
2.01717e-06
7.14958e-06
2.00459e-06
6.38469e-06
1.97994e-06
5.62843e-06
1.94499e-06
4.88553e-06
1.90008e-06
4.16156e-06
1.84487e-06
3.46178e-06
1.7766e-06
2.79399e-06
1.69216e-06
2.16578e-06
1.58469e-06
1.5895e-06
1.44874e-06
1.07606e-06
1.27362e-06
6.43792e-07
1.05599e-06
3.05425e-07
7.8655e-07
8.57515e-08
4.79948e-07
1.45938e-07
3.13665e-09
-5.49986e-08
-9.76338e-09
-5.89599e-08
-5.11126e-08
-1.65166e-09
-1.28037e-07
9.5654e-08
-2.42956e-07
2.08287e-07
-3.95484e-07
3.25516e-07
-5.83453e-07
4.36471e-07
-8.03635e-07
5.3804e-07
-1.05264e-06
6.27435e-07
-1.32715e-06
7.05753e-07
-1.62441e-06
7.74034e-07
-1.94227e-06
8.34915e-07
-2.27934e-06
8.90596e-07
-2.63486e-06
9.43678e-07
-3.00876e-06
9.96176e-07
-3.40149e-06
1.05001e-06
-3.81393e-06
1.10657e-06
-4.24734e-06
1.16704e-06
-4.70328e-06
1.23225e-06
-5.1835e-06
1.30286e-06
-5.68997e-06
1.37934e-06
-6.22481e-06
1.46209e-06
-6.79026e-06
1.55143e-06
-7.3887e-06
1.64762e-06
-8.0226e-06
1.75094e-06
-8.69454e-06
1.86159e-06
-9.40714e-06
1.97977e-06
-1.01631e-05
2.10559e-06
-1.0965e-05
2.2391e-06
-1.18155e-05
2.38021e-06
-1.27171e-05
2.52871e-06
-1.3672e-05
2.68418e-06
-1.46823e-05
2.84601e-06
-1.57497e-05
3.01333e-06
-1.68752e-05
3.18498e-06
-1.80596e-05
3.35952e-06
-1.93026e-05
3.53513e-06
-2.06033e-05
3.70966e-06
-2.19598e-05
3.88056e-06
-2.33691e-05
4.04492e-06
-2.48271e-05
4.19945e-06
-2.63284e-05
4.34052e-06
-2.7866e-05
4.46416e-06
-2.94319e-05
4.56617e-06
-3.10164e-05
4.64212e-06
-3.26086e-05
4.68748e-06
-3.41959e-05
4.69771e-06
-3.57648e-05
4.66835e-06
-3.73004e-05
4.59516e-06
-3.8787e-05
4.47424e-06
-4.02079e-05
4.30214e-06
-4.15462e-05
4.07603e-06
-4.27843e-05
3.79374e-06
-4.39049e-05
3.45398e-06
-4.48908e-05
3.05633e-06
-4.57253e-05
2.60139e-06
-4.63927e-05
2.09079e-06
-4.68784e-05
1.52726e-06
-4.71691e-05
9.14649e-07
-4.72531e-05
2.57897e-07
-4.71207e-05
-4.36983e-07
-4.67642e-05
-1.16295e-06
-4.61781e-05
-1.91203e-06
-4.53595e-05
-2.67537e-06
-4.43078e-05
-3.4434e-06
-4.30253e-05
-4.20596e-06
-4.1517e-05
-4.95243e-06
-3.97905e-05
-5.67195e-06
-3.78564e-05
-6.35359e-06
-3.5728e-05
-6.98659e-06
-3.34212e-05
-7.56055e-06
-3.09546e-05
-8.06572e-06
-2.83492e-05
-8.4932e-06
-2.56281e-05
-8.8352e-06
-2.28163e-05
-9.08526e-06
-1.99404e-05
-9.23849e-06
-1.70283e-05
-9.29173e-06
-1.41084e-05
-9.24368e-06
-1.12096e-05
-9.09506e-06
-8.36034e-06
-8.84859e-06
-5.58856e-06
-8.50901e-06
-2.92078e-06
-8.08299e-06
-3.81724e-07
-7.57896e-06
2.00611e-06
-7.00693e-06
4.22294e-06
-6.37817e-06
6.25205e-06
-5.70495e-06
8.0801e-06
-5.00011e-06
9.6973e-06
-4.27674e-06
1.10975e-05
-3.54777e-06
1.22783e-05
-2.82557e-06
1.32407e-05
-2.12169e-06
1.39892e-05
-1.44645e-06
1.45313e-05
-8.08793e-07
1.48773e-05
-2.16063e-07
1.50395e-05
3.26101e-07
1.50324e-05
8.13787e-07
1.48715e-05
1.24479e-06
1.45733e-05
1.6185e-06
1.41546e-05
1.9358e-06
1.3632e-05
2.19881e-06
1.30219e-05
2.41073e-06
1.23395e-05
2.57556e-06
1.15993e-05
2.69792e-06
1.08144e-05
2.78266e-06
9.99662e-06
2.83477e-06
9.15641e-06
2.85893e-06
8.30311e-06
2.85947e-06
7.44475e-06
2.83975e-06
6.58899e-06
2.80231e-06
5.74245e-06
2.74793e-06
4.91262e-06
2.67624e-06
4.10628e-06
2.584e-06
3.33297e-06
2.46701e-06
2.60141e-06
2.31691e-06
1.92577e-06
2.12603e-06
1.31792e-06
1.88142e-06
7.9946e-07
1.57645e-06
3.85692e-07
1.19902e-06
1.10778e-07
7.57665e-07
2.55772e-07
-7.65523e-09
-4.74719e-08
-4.71125e-08
-1.91385e-08
-1.28148e-07
7.91618e-08
-2.54332e-07
2.2206e-07
-4.26537e-07
3.8033e-07
-6.42364e-07
5.41428e-07
-8.98728e-07
6.92676e-07
-1.19138e-06
8.30664e-07
-1.51651e-06
9.52384e-07
-1.87035e-06
1.05947e-06
-2.25004e-06
1.15352e-06
-2.65329e-06
1.23799e-06
-3.07877e-06
1.31584e-06
-3.52577e-06
1.39045e-06
-3.99437e-06
1.46451e-06
-4.48516e-06
1.54053e-06
-4.99927e-06
1.62039e-06
-5.53822e-06
1.70568e-06
-6.10385e-06
1.79755e-06
-6.6983e-06
1.89695e-06
-7.32394e-06
2.0046e-06
-7.98335e-06
2.1211e-06
-8.67931e-06
2.24695e-06
-9.41476e-06
2.38261e-06
-1.01928e-05
2.52846e-06
-1.10166e-05
2.68487e-06
-1.18895e-05
2.85209e-06
-1.28148e-05
3.03028e-06
-1.37958e-05
3.21946e-06
-1.48358e-05
3.41946e-06
-1.59377e-05
3.62988e-06
-1.71044e-05
3.85003e-06
-1.83381e-05
4.07892e-06
-1.96409e-05
4.31517e-06
-2.10139e-05
4.55699e-06
-2.24575e-05
4.80216e-06
-2.39714e-05
5.04794e-06
-2.5554e-05
5.29113e-06
-2.72027e-05
5.52799e-06
-2.89133e-05
5.7543e-06
-3.06805e-05
5.96533e-06
-3.24973e-05
6.15594e-06
-3.43551e-05
6.32061e-06
-3.62439e-05
6.45353e-06
-3.8152e-05
6.5487e-06
-4.00661e-05
6.60009e-06
-4.19716e-05
6.60172e-06
-4.38527e-05
6.54786e-06
-4.56921e-05
6.43316e-06
-4.74722e-05
6.25283e-06
-4.91742e-05
6.00277e-06
-5.07793e-05
5.67974e-06
-5.22683e-05
5.28148e-06
-5.36223e-05
4.80682e-06
-5.48228e-05
4.2558e-06
-5.58519e-05
3.62972e-06
-5.6693e-05
2.93118e-06
-5.73304e-05
2.16413e-06
-5.77498e-05
1.33386e-06
-5.79389e-05
4.46972e-07
-5.78871e-05
-4.8865e-07
-5.75856e-05
-1.46392e-06
-5.70282e-05
-2.46864e-06
-5.6211e-05
-3.49158e-06
-5.51324e-05
-4.52067e-06
-5.37937e-05
-5.54308e-06
-5.21988e-05
-6.54545e-06
-5.03545e-05
-7.51409e-06
-4.82705e-05
-8.43516e-06
-4.59595e-05
-9.29498e-06
-4.3437e-05
-1.00803e-05
-4.07214e-05
-1.07784e-05
-3.78338e-05
-1.13777e-05
-3.47979e-05
-1.18678e-05
-3.16399e-05
-1.22401e-05
-2.83876e-05
-1.24874e-05
-2.5071e-05
-1.2605e-05
-2.17211e-05
-1.25904e-05
-1.83694e-05
-1.24436e-05
-1.50481e-05
-1.21669e-05
-1.17887e-05
-1.17656e-05
-8.62183e-06
-1.12472e-05
-5.57675e-06
-1.06216e-05
-2.68047e-06
-9.90101e-06
4.25603e-08
-9.09926e-06
2.57097e-06
-8.23169e-06
4.88687e-06
-7.31461e-06
6.97613e-06
-6.36488e-06
8.82858e-06
-5.39936e-06
1.04381e-05
-4.43449e-06
1.18025e-05
-3.4858e-06
1.29237e-05
-2.5675e-06
1.38069e-05
-1.69214e-06
1.44609e-05
-8.70355e-07
1.48972e-05
-1.1066e-07
1.51297e-05
5.80632e-07
1.51743e-05
1.19943e-06
1.50482e-05
1.74376e-06
1.47693e-05
2.21367e-06
1.43561e-05
2.61096e-06
1.38268e-05
2.93897e-06
1.3199e-05
3.20224e-06
1.24896e-05
3.40625e-06
1.17141e-05
3.557e-06
1.0887e-05
3.66073e-06
1.00213e-05
3.72349e-06
9.12882e-06
3.7509e-06
8.21993e-06
3.74748e-06
7.30456e-06
3.71672e-06
6.39135e-06
3.65999e-06
5.48973e-06
3.57708e-06
4.60806e-06
3.46448e-06
3.75756e-06
3.31703e-06
2.94807e-06
3.12507e-06
2.19552e-06
2.87862e-06
1.51292e-06
2.56234e-06
9.25062e-07
2.16529e-06
4.50226e-07
1.67128e-06
1.30667e-07
1.07968e-06
3.8468e-07
-1.9946e-08
-2.78704e-08
-8.98581e-08
5.13276e-08
-2.16217e-07
2.05032e-07
-3.98234e-07
4.04411e-07
-6.34758e-07
6.16602e-07
-9.20887e-07
8.27775e-07
-1.25237e-06
1.02406e-06
-1.62368e-06
1.20216e-06
-2.03053e-06
1.35924e-06
-2.46863e-06
1.49774e-06
-2.93504e-06
1.62001e-06
-3.42738e-06
1.7305e-06
-3.94443e-06
1.83302e-06
-4.48559e-06
1.93181e-06
-5.05117e-06
2.03025e-06
-5.64196e-06
2.13153e-06
-6.25939e-06
2.23802e-06
-6.90528e-06
2.3518e-06
-7.58187e-06
2.47438e-06
-8.29172e-06
2.60706e-06
-9.03769e-06
2.75085e-06
-9.82293e-06
2.90663e-06
-1.06508e-05
3.07517e-06
-1.1525e-05
3.25713e-06
-1.24493e-05
3.45312e-06
-1.34277e-05
3.66364e-06
-1.44643e-05
3.88906e-06
-1.55631e-05
4.12957e-06
-1.67283e-05
4.38514e-06
-1.79638e-05
4.65548e-06
-1.92733e-05
4.93992e-06
-2.06601e-05
5.23742e-06
-2.21271e-05
5.54647e-06
-2.36763e-05
5.86502e-06
-2.5309e-05
6.19048e-06
-2.70258e-05
6.51964e-06
-2.88257e-05
6.84865e-06
-3.07068e-05
7.17299e-06
-3.26654e-05
7.48751e-06
-3.46966e-05
7.78642e-06
-3.67937e-05
8.06335e-06
-3.89482e-05
8.31143e-06
-4.115e-05
8.5234e-06
-4.33872e-05
8.69171e-06
-4.56461e-05
8.80868e-06
-4.79116e-05
8.8667e-06
-5.01672e-05
8.85836e-06
-5.23949e-05
8.77667e-06
-5.4576e-05
8.61523e-06
-5.66905e-05
8.36846e-06
-5.87185e-05
8.0317e-06
-6.06392e-05
7.60142e-06
-6.24322e-05
7.07535e-06
-6.40772e-05
6.45255e-06
-6.55542e-05
5.73355e-06
-6.68443e-05
4.92037e-06
-6.79292e-05
4.01658e-06
-6.87921e-05
3.02731e-06
-6.94173e-05
1.95921e-06
-6.97908e-05
8.20462e-07
-6.99003e-05
-3.79293e-07
-6.97356e-05
-1.62903e-06
-6.92883e-05
-2.91642e-06
-6.85527e-05
-4.22794e-06
-6.75253e-05
-5.54904e-06
-6.62053e-05
-6.86425e-06
-6.45947e-05
-8.15741e-06
-6.26985e-05
-9.41186e-06
-6.05246e-05
-1.06107e-05
-5.80844e-05
-1.17371e-05
-5.53922e-05
-1.27745e-05
-5.24657e-05
-1.3707e-05
-4.93257e-05
-1.45199e-05
-4.59961e-05
-1.51997e-05
-4.25039e-05
-1.57346e-05
-3.88785e-05
-1.61152e-05
-3.51516e-05
-1.63343e-05
-3.13569e-05
-1.63874e-05
-2.75293e-05
-1.62733e-05
-2.37047e-05
-1.59937e-05
-1.9919e-05
-1.55533e-05
-1.62076e-05
-1.49604e-05
-1.26048e-05
-1.42262e-05
-9.14292e-06
-1.33644e-05
-5.8519e-06
-1.23917e-05
-2.75849e-06
-1.13263e-05
1.1411e-07
-1.01882e-05
2.74674e-06
-8.99832e-06
5.12453e-06
-7.77777e-06
7.23708e-06
-6.54748e-06
9.07852e-06
-5.32749e-06
1.06474e-05
-4.13646e-06
1.19465e-05
-2.99117e-06
1.29825e-05
-1.90617e-06
1.37657e-05
-8.93473e-07
1.43092e-05
3.75699e-08
1.46287e-05
8.80377e-07
1.4742e-05
1.63106e-06
1.46681e-05
2.28832e-06
1.44265e-05
2.85319e-06
1.40375e-05
3.32874e-06
1.35208e-05
3.71977e-06
1.28955e-05
4.03239e-06
1.21797e-05
4.27357e-06
1.13905e-05
4.45076e-06
1.05434e-05
4.57133e-06
9.65291e-06
4.64224e-06
8.73177e-06
4.66932e-06
7.79228e-06
4.65707e-06
6.84516e-06
4.60769e-06
5.90188e-06
4.52125e-06
4.97248e-06
4.39424e-06
4.0699e-06
4.22064e-06
3.20529e-06
3.98966e-06
2.39643e-06
3.68881e-06
1.65784e-06
3.3002e-06
1.01749e-06
2.80768e-06
4.96719e-07
2.18994e-06
1.44312e-07
1.43543e-06
5.27534e-07
-3.34046e-08
5.07622e-09
-1.36933e-07
1.55756e-07
-3.13234e-07
3.80649e-07
-5.565e-07
6.48189e-07
-8.6314e-07
9.22864e-07
-1.22533e-06
1.19022e-06
-1.63743e-06
1.43592e-06
-2.09247e-06
1.6573e-06
-2.58557e-06
1.85217e-06
-3.11192e-06
2.02409e-06
-3.66849e-06
2.17644e-06
-4.25285e-06
2.3148e-06
-4.86393e-06
2.44396e-06
-5.50132e-06
2.5691e-06
-6.16559e-06
2.69437e-06
-6.85783e-06
2.82364e-06
-7.57984e-06
2.95987e-06
-8.33383e-06
3.10562e-06
-9.1225e-06
3.26287e-06
-9.94896e-06
3.43333e-06
-1.08167e-05
3.61837e-06
-1.17295e-05
3.81925e-06
-1.26916e-05
4.03703e-06
-1.37074e-05
4.27271e-06
-1.47817e-05
4.52713e-06
-1.59193e-05
4.80099e-06
-1.71253e-05
5.09478e-06
-1.84048e-05
5.40874e-06
-1.97628e-05
5.74276e-06
-2.1204e-05
6.09635e-06
-2.2733e-05
6.46851e-06
-2.43537e-05
6.85771e-06
-2.60694e-05
7.26178e-06
-2.78827e-05
7.67785e-06
-2.97951e-05
8.10231e-06
-3.18067e-05
8.53077e-06
-3.39166e-05
8.95799e-06
-3.61222e-05
9.37796e-06
-3.84191e-05
9.78383e-06
-4.08014e-05
1.0168e-05
-4.32611e-05
1.05224e-05
-4.57884e-05
1.0838e-05
-4.83715e-05
1.11058e-05
-5.0997e-05
1.13164e-05
-5.36495e-05
1.14604e-05
-5.6312e-05
1.15285e-05
-5.89662e-05
1.15118e-05
-6.15925e-05
1.14022e-05
-6.41703e-05
1.11923e-05
-6.66782e-05
1.08756e-05
-6.90943e-05
1.04471e-05
-7.13965e-05
9.90297e-06
-7.35626e-05
9.24089e-06
-7.55708e-05
8.46015e-06
-7.73994e-05
7.56173e-06
-7.90278e-05
6.54828e-06
-8.04357e-05
5.42424e-06
-8.16044e-05
4.19577e-06
-8.2516e-05
2.87077e-06
-8.31544e-05
1.45886e-06
-8.35048e-05
-2.87067e-08
-8.35544e-05
-1.57907e-06
-8.32926e-05
-3.17786e-06
-8.27106e-05
-4.80934e-06
-8.18024e-05
-6.45648e-06
-8.05647e-05
-8.10116e-06
-7.89967e-05
-9.72433e-06
-7.71012e-05
-1.13063e-05
-7.48839e-05
-1.28268e-05
-7.23539e-05
-1.42656e-05
-6.95243e-05
-1.56027e-05
-6.64113e-05
-1.68185e-05
-6.30352e-05
-1.78944e-05
-5.94198e-05
-1.88134e-05
-5.55924e-05
-1.95603e-05
-5.15838e-05
-2.01222e-05
-4.74276e-05
-2.04888e-05
-4.31601e-05
-2.06533e-05
-3.88199e-05
-2.0612e-05
-3.44468e-05
-2.03652e-05
-3.00817e-05
-1.9917e-05
-2.57655e-05
-1.92753e-05
-2.15383e-05
-1.84522e-05
-1.74386e-05
-1.7463e-05
-1.35028e-05
-1.63265e-05
-9.764e-06
-1.50642e-05
-6.25175e-06
-1.36998e-05
-2.99119e-06
-1.22583e-05
-2.79299e-09
-1.07657e-05
2.69795e-06
-9.24791e-06
5.1007e-06
-7.73005e-06
7.20019e-06
-6.23589e-06
8.99611e-06
-4.78713e-06
1.04928e-05
-3.40297e-06
1.16987e-05
-2.09965e-06
1.26262e-05
-8.90249e-07
1.32907e-05
2.15507e-07
1.37102e-05
1.2112e-06
1.39044e-05
2.09361e-06
1.38946e-05
2.8625e-06
1.37025e-05
3.5203e-06
1.335e-05
4.07169e-06
1.28587e-05
4.52314e-06
1.22493e-05
4.88242e-06
1.15414e-05
5.15807e-06
1.07534e-05
5.35875e-06
9.90235e-06
5.49279e-06
9.00366e-06
5.56738e-06
8.0721e-06
5.58821e-06
7.12066e-06
5.55845e-06
6.16296e-06
5.47867e-06
5.21089e-06
5.34553e-06
4.27923e-06
5.15231e-06
3.38069e-06
4.88717e-06
2.53495e-06
4.53508e-06
1.75826e-06
4.07531e-06
1.08148e-06
3.48599e-06
5.28745e-07
2.73987e-06
1.53628e-07
1.81367e-06
6.79229e-07
-4.7781e-08
5.21972e-08
-1.87353e-07
2.96519e-07
-4.1717e-07
6.09508e-07
-7.25919e-07
9.57618e-07
-1.10725e-06
1.3037e-06
-1.55007e-06
1.63342e-06
-2.04718e-06
1.9328e-06
-2.59e-06
2.20034e-06
-3.17299e-06
2.43507e-06
-3.79076e-06
2.64201e-06
-4.4402e-06
2.82587e-06
-5.11884e-06
2.99356e-06
-5.82584e-06
3.15099e-06
-6.56099e-06
3.30437e-06
-7.32522e-06
3.45868e-06
-8.12001e-06
3.61854e-06
-8.94758e-06
3.78754e-06
-9.81067e-06
3.96884e-06
-1.07126e-05
4.16491e-06
-1.16571e-05
4.37798e-06
-1.26485e-05
4.60989e-06
-1.36914e-05
4.86233e-06
-1.4791e-05
5.13681e-06
-1.59528e-05
5.43468e-06
-1.71826e-05
5.75712e-06
-1.84865e-05
6.10504e-06
-1.98706e-05
6.4791e-06
-2.13412e-05
6.87954e-06
-2.29043e-05
7.30616e-06
-2.45659e-05
7.75817e-06
-2.63312e-05
8.23415e-06
-2.82052e-05
8.73194e-06
-3.01916e-05
9.24854e-06
-3.22935e-05
9.78006e-06
-3.45125e-05
1.03217e-05
-3.68489e-05
1.08676e-05
-3.93014e-05
1.14109e-05
-4.18669e-05
1.19438e-05
-4.45403e-05
1.24577e-05
-4.73146e-05
1.29428e-05
-5.01807e-05
1.3389e-05
-5.31275e-05
1.37853e-05
-5.61416e-05
1.41205e-05
-5.9208e-05
1.43834e-05
-6.23096e-05
1.45625e-05
-6.54277e-05
1.46471e-05
-6.85421e-05
1.46268e-05
-7.16314e-05
1.44921e-05
-7.46732e-05
1.42346e-05
-7.76442e-05
1.38472e-05
-8.05207e-05
1.33241e-05
-8.32785e-05
1.26612e-05
-8.58935e-05
1.18563e-05
-8.83415e-05
1.09085e-05
-9.05988e-05
9.81939e-06
-9.26423e-05
8.59202e-06
-9.44494e-05
7.23158e-06
-9.59987e-05
5.74519e-06
-9.72698e-05
4.14191e-06
-9.82437e-05
2.43271e-06
-9.89029e-05
6.3041e-07
-9.92318e-05
-1.25035e-06
-9.92168e-05
-3.19321e-06
-9.88464e-05
-5.18018e-06
-9.81116e-05
-7.19178e-06
-9.70062e-05
-9.2072e-06
-9.55268e-05
-1.12044e-05
-9.36732e-05
-1.31606e-05
-9.14488e-05
-1.50521e-05
-8.88604e-05
-1.6855e-05
-8.59188e-05
-1.85453e-05
-8.26387e-05
-2.00996e-05
-7.9039e-05
-2.14952e-05
-7.51429e-05
-2.27106e-05
-7.09778e-05
-2.37267e-05
-6.65748e-05
-2.45263e-05
-6.19694e-05
-2.50954e-05
-5.72003e-05
-2.54235e-05
-5.23093e-05
-2.55041e-05
-4.73406e-05
-2.5335e-05
-4.23401e-05
-2.49184e-05
-3.73547e-05
-2.42617e-05
-3.2431e-05
-2.33767e-05
-2.76149e-05
-2.22799e-05
-2.295e-05
-2.09921e-05
-1.84771e-05
-1.95377e-05
-1.42333e-05
-1.79441e-05
-1.0251e-05
-1.6241e-05
-6.55751e-06
-1.44595e-05
-3.17447e-06
-1.26312e-05
-1.17737e-07
-1.07869e-05
2.60278e-06
-8.95647e-06
4.98298e-06
-7.16731e-06
7.02426e-06
-5.44416e-06
8.73314e-06
-3.80838e-06
1.01207e-05
-2.27757e-06
1.12019e-05
-8.65421e-07
1.19949e-05
4.18422e-07
1.25206e-05
1.56822e-06
1.28016e-05
2.58191e-06
1.28615e-05
3.46081e-06
1.27244e-05
4.20911e-06
1.24146e-05
4.8334e-06
1.19554e-05
5.34201e-06
1.13694e-05
5.74447e-06
1.06778e-05
6.05069e-06
9.90065e-06
6.2704e-06
9.05609e-06
6.41225e-06
8.16157e-06
6.48322e-06
7.23256e-06
6.48767e-06
6.285e-06
6.42681e-06
5.33284e-06
6.29769e-06
4.3929e-06
6.09302e-06
3.47968e-06
5.80002e-06
2.61488e-06
5.40107e-06
1.81665e-06
4.87243e-06
1.11842e-06
4.18628e-06
5.46755e-07
3.30901e-06
1.58505e-07
2.2055e-06
8.36002e-07
-6.29824e-08
1.14354e-07
-2.40687e-07
4.75774e-07
-5.2701e-07
8.9462e-07
-9.04715e-07
1.33619e-06
-1.36441e-06
1.76276e-06
-1.8915e-06
2.16096e-06
-2.47705e-06
2.518e-06
-3.11075e-06
2.83426e-06
-3.78638e-06
3.11049e-06
-4.49793e-06
3.35364e-06
-5.24222e-06
3.57003e-06
-6.01679e-06
3.76814e-06
-6.82104e-06
3.95514e-06
-7.65508e-06
4.13837e-06
-8.52024e-06
4.32375e-06
-9.41846e-06
4.51671e-06
-1.03526e-05
4.72157e-06
-1.13259e-05
4.94213e-06
-1.23426e-05
5.18151e-06
-1.34073e-05
5.44254e-06
-1.45251e-05
5.72763e-06
-1.5702e-05
6.03905e-06
-1.69441e-05
6.37881e-06
-1.82583e-05
6.74875e-06
-1.96517e-05
7.15039e-06
-2.11317e-05
7.58496e-06
-2.2706e-05
8.05323e-06
-2.43821e-05
8.55547e-06
-2.61674e-05
9.09127e-06
-2.80689e-05
9.6595e-06
-3.00932e-05
1.02582e-05
-3.22457e-05
1.08843e-05
-3.45314e-05
1.15339e-05
-3.69535e-05
1.22019e-05
-3.95139e-05
1.28819e-05
-4.22131e-05
1.35664e-05
-4.50493e-05
1.42468e-05
-4.80188e-05
1.49131e-05
-5.1116e-05
1.55545e-05
-5.43327e-05
1.61592e-05
-5.76585e-05
1.67145e-05
-6.10808e-05
1.72072e-05
-6.45848e-05
1.76241e-05
-6.81534e-05
1.79516e-05
-7.17678e-05
1.81765e-05
-7.54071e-05
1.82861e-05
-7.90493e-05
1.82685e-05
-8.26705e-05
1.81129e-05
-8.6246e-05
1.78098e-05
-8.97503e-05
1.73511e-05
-9.31571e-05
1.67305e-05
-9.64396e-05
1.59435e-05
-9.95711e-05
1.49875e-05
-0.000102525
1.3862e-05
-0.000105274
1.25686e-05
-0.000107793
1.1111e-05
-0.000110057
9.49524e-06
-0.000112041
7.72932e-06
-0.000113723
5.82352e-06
-0.00011508
3.79019e-06
-0.000116094
1.64378e-06
-0.000116744
-5.99254e-07
-0.000117017
-2.92055e-06
-0.000116897
-5.29991e-06
-0.000116373
-7.71543e-06
-0.000115436
-1.01436e-05
-0.00011408
-1.25597e-05
-0.000112302
-1.49375e-05
-0.000110104
-1.72502e-05
-0.000107488
-1.94701e-05
-0.000104463
-2.15694e-05
-0.000101042
-2.35202e-05
-9.72404e-05
-2.52956e-05
-9.30807e-05
-2.68695e-05
-8.85887e-05
-2.82178e-05
-8.37955e-05
-2.93186e-05
-7.87369e-05
-3.01532e-05
-7.3453e-05
-3.07066e-05
-6.79883e-05
-3.0968e-05
-6.23908e-05
-3.09318e-05
-5.67112e-05
-3.05973e-05
-5.10024e-05
-2.99698e-05
-4.53182e-05
-2.90603e-05
-3.97122e-05
-2.78854e-05
-3.42366e-05
-2.64672e-05
-2.89411e-05
-2.48327e-05
-2.38718e-05
-2.30131e-05
-1.90698e-05
-2.10426e-05
-1.4571e-05
-1.89581e-05
-1.04048e-05
-1.67972e-05
-6.59394e-06
-1.45977e-05
-3.15425e-06
-1.23961e-05
-9.47272e-08
-1.02268e-05
2.58229e-06
-8.12124e-06
4.88063e-06
-6.10682e-06
6.80973e-06
-4.20682e-06