/*--------------------------------*- C++ -*----------------------------------*\
| =========                 |                                                 |
| \\      /  F ield         | OpenFOAM: The Open Source CFD Toolbox           |
|  \\    /   O peration     | Version:  2406                                  |
|   \\  /    A nd           | Website:  www.openfoam.com                      |
|    \\/     M anipulation  |                                                 |
\*---------------------------------------------------------------------------*/
FoamFile
{
    version     2.0;
    format      ascii;
    arch        "LSB;label=32;scalar=64";
    class       volVectorField;
    location    "25.4";
    object      U;
}
// * * * * * * * * * * * * * * * * * * * * * * * * * * * * * * * * * * * * * //

dimensions      [0 1 -1 0 0 0 0];

internalField   nonuniform List<vector> 
900
(
(0.00032244 -0.000453633 0)
(0.00283763 -0.000999504 0)
(0.00582781 -0.00087266 0)
(0.00729283 -0.000562247 0)
(0.00784723 -0.000471438 0)
(0.00768936 -0.000624463 0)
(0.00735024 -0.000912731 0)
(0.00671795 -0.00127156 0)
(0.00534592 -0.00213699 0)
(0.00156755 -0.00340153 0)
(-0.00651487 -0.00287959 0)
(-0.0200031 0.00110285 0)
(-0.0386748 0.00645217 0)
(-0.0599728 0.00990208 0)
(-0.0803507 0.0106176 0)
(-0.0972585 0.00948364 0)
(-0.109183 0.00722774 0)
(-0.114946 0.00423113 0)
(-0.113948 0.000749468 0)
(-0.105457 -0.00300439 0)
(-0.0896737 -0.00671834 0)
(-0.0665739 -0.00991032 0)
(-0.0384788 -0.011803 0)
(-0.00760024 -0.0114154 0)
(0.0192852 -0.00752689 0)
(0.0365306 -0.000899364 0)
(0.0369637 0.0054238 0)
(0.025397 0.00674668 0)
(0.0123262 0.00497021 0)
(0.00176492 0.00217919 0)
(0.000984512 -0.00269687 0)
(0.00517684 -0.00457477 0)
(0.00943578 -0.00355715 0)
(0.0109841 -0.00146842 0)
(0.0103766 0.00010372 0)
(0.00735954 0.00113826 0)
(0.00155285 0.00192194 0)
(-0.00932273 0.00330644 0)
(-0.0277704 0.00737343 0)
(-0.0541743 0.0155125 0)
(-0.0857102 0.024816 0)
(-0.117413 0.0314177 0)
(-0.145182 0.0338089 0)
(-0.167399 0.0320007 0)
(-0.183939 0.0268878 0)
(-0.194775 0.0195483 0)
(-0.199755 0.0106688 0)
(-0.198586 0.000692014 0)
(-0.191053 -0.0100389 0)
(-0.176698 -0.0211879 0)
(-0.155486 -0.0320006 0)
(-0.127272 -0.0413878 0)
(-0.0932427 -0.0471435 0)
(-0.0551983 -0.0467292 0)
(-0.0177346 -0.0365761 0)
(0.0132624 -0.01702 0)
(0.0291107 0.0060106 0)
(0.0262996 0.0176147 0)
(0.0155065 0.0189424 0)
(0.00254067 0.0119149 0)
(0.00147395 -0.00657224 0)
(0.00573475 -0.00949907 0)
(0.00871991 -0.00665012 0)
(0.00771555 -0.00154192 0)
(0.00283869 0.00313099 0)
(-0.00741755 0.00814505 0)
(-0.0254163 0.0157392 0)
(-0.0530787 0.0280774 0)
(-0.0884966 0.0426744 0)
(-0.125427 0.054201 0)
(-0.158351 0.0598442 0)
(-0.185197 0.0601309 0)
(-0.205786 0.0560375 0)
(-0.220712 0.0482343 0)
(-0.230812 0.0375965 0)
(-0.236604 0.0249287 0)
(-0.238411 0.0107407 0)
(-0.236203 -0.00474499 0)
(-0.229823 -0.0212849 0)
(-0.218719 -0.038729 0)
(-0.202346 -0.0561027 0)
(-0.179893 -0.0722301 0)
(-0.150834 -0.0836768 0)
(-0.11548 -0.0870083 0)
(-0.0749179 -0.0755868 0)
(-0.0342948 -0.0477287 0)
(-0.000509607 -0.00723784 0)
(0.0108887 0.0198503 0)
(0.00880059 0.028694 0)
(0.000582542 0.0198835 0)
(0.00163715 -0.00986622 0)
(0.00410298 -0.0118613 0)
(0.00309156 -0.00548013 0)
(-0.00356116 0.004448 0)
(-0.0168869 0.015312 0)
(-0.0391224 0.0294892 0)
(-0.070982 0.0476876 0)
(-0.108492 0.0663703 0)
(-0.144696 0.0796851 0)
(-0.175078 0.0855102 0)
(-0.198896 0.0847928 0)
(-0.216544 0.0790175 0)
(-0.22881 0.0694462 0)
(-0.23677 0.0571346 0)
(-0.24152 0.0428979 0)
(-0.2438 0.0272295 0)
(-0.244129 0.0103337 0)
(-0.242626 -0.00792948 0)
(-0.239288 -0.0275605 0)
(-0.233594 -0.0488591 0)
(-0.224915 -0.0709709 0)
(-0.211896 -0.09326 0)
(-0.19294 -0.111767 0)
(-0.166292 -0.123082 0)
(-0.129955 -0.117684 0)
(-0.085643 -0.0914549 0)
(-0.036368 -0.0384724 0)
(-0.00282576 0.00815682 0)
(0.00304518 0.0296178 0)
(-0.00101546 0.0213919 0)
(0.00121425 -0.0123372 0)
(-4.53346e-05 -0.0110324 0)
(-0.00722646 0.00099053 0)
(-0.021669 0.0183911 0)
(-0.0447406 0.0386473 0)
(-0.0762892 0.0621533 0)
(-0.112495 0.0849809 0)
(-0.146671 0.1017 0)
(-0.174422 0.109106 0)
(-0.194867 0.108143 0)
(-0.208849 0.101041 0)
(-0.217374 0.0898373 0)
(-0.221939 0.0760987 0)
(-0.223734 0.0607923 0)
(-0.22395 0.044514 0)
(-0.223255 0.0274326 0)
(-0.222281 0.00953208 0)
(-0.221179 -0.00963937 0)
(-0.220253 -0.0302568 0)
(-0.219136 -0.0531242 0)
(-0.217675 -0.0776782 0)
(-0.214393 -0.104269 0)
(-0.20767 -0.12922 0)
(-0.194104 -0.150182 0)
(-0.169694 -0.156261 0)
(-0.131162 -0.141332 0)
(-0.0774863 -0.0898611 0)
(-0.0195606 -0.0197817 0)
(0.0030484 0.0270019 0)
(-0.0012422 0.0217501 0)
(-0.000237569 -0.0109723 0)
(-0.0071629 -0.00333992 0)
(-0.0216455 0.0162462 0)
(-0.0433948 0.0420888 0)
(-0.0727066 0.0700047 0)
(-0.106017 0.0973187 0)
(-0.138028 0.11809 0)
(-0.163461 0.128294 0)
(-0.180972 0.127913 0)
(-0.191445 0.120072 0)
(-0.196457 0.107463 0)
(-0.197519 0.0922812 0)
(-0.196301 0.0759802 0)
(-0.193874 0.0593079 0)
(-0.19129 0.0425971 0)
(-0.18891 0.0257015 0)
(-0.187242 0.00844198 0)
(-0.186208 -0.00985837 0)
(-0.186321 -0.0294055 0)
(-0.187295 -0.0513976 0)
(-0.189804 -0.0755157 0)
(-0.192755 -0.103322 0)
(-0.195692 -0.131966 0)
(-0.194931 -0.161295 0)
(-0.186038 -0.180682 0)
(-0.162588 -0.184022 0)
(-0.117648 -0.149698 0)
(-0.0529808 -0.0727804 0)
(0.00452172 0.0117001 0)
(-0.000868118 0.023168 0)
(-0.00218105 -0.00502795 0)
(-0.0148771 0.010368 0)
(-0.0354227 0.0371381 0)
(-0.0613348 0.069427 0)
(-0.0917263 0.10116 0)
(-0.12135 0.127369 0)
(-0.145764 0.142291 0)
(-0.161804 0.144577 0)
(-0.170458 0.137026 0)
(-0.173285 0.123582 0)
(-0.17231 0.107079 0)
(-0.169216 0.0896644 0)
(-0.165607 0.072457 0)
(-0.162208 0.0557803 0)
(-0.159691 0.0395922 0)
(-0.157859 0.0233988 0)
(-0.156902 0.00693823 0)
(-0.156292 -0.0105328 0)
(-0.156586 -0.0289685 0)
(-0.157349 -0.0496093 0)
(-0.159966 -0.0719138 0)
(-0.163754 -0.0983497 0)
(-0.169974 -0.126717 0)
(-0.175828 -0.15982 0)
(-0.178566 -0.188457 0)
(-0.171172 -0.209981 0)
(-0.142856 -0.199113 0)
(-0.0920595 -0.143152 0)
(-0.0105997 -0.0241952 0)
(0.00626025 0.0250828 0)
(-0.00411079 0.0061244 0)
(-0.0214287 0.0301068 0)
(-0.045528 0.0627371 0)
(-0.0721652 0.09853 0)
(-0.100096 0.13001 0)
(-0.1237 0.151405 0)
(-0.140257 0.158572 0)
(-0.148515 0.153089 0)
(-0.150792 0.139496 0)
(-0.148881 0.122053 0)
(-0.145119 0.103506 0)
(-0.141072 0.0856732 0)
(-0.137994 0.0690536 0)
(-0.136099 0.0534291 0)
(-0.135532 0.0383034 0)
(-0.135551 0.022886 0)
(-0.136063 0.00692426 0)
(-0.13618 -0.0102762 0)
(-0.136514 -0.0282702 0)
(-0.13638 -0.0481971 0)
(-0.137603 -0.0689528 0)
(-0.139522 -0.0935271 0)
(-0.144761 -0.119646 0)
(-0.151381 -0.152799 0)
(-0.15925 -0.185208 0)
(-0.161857 -0.219416 0)
(-0.150148 -0.22942 0)
(-0.116448 -0.204495 0)
(-0.0451253 -0.0870978 0)
(0.0169592 0.0191544 0)
(-0.00513852 0.0203533 0)
(-0.0247901 0.0518222 0)
(-0.0497629 0.0876712 0)
(-0.0746516 0.123945 0)
(-0.0984426 0.152516 0)
(-0.115874 0.167458 0)
(-0.126043 0.167031 0)
(-0.128933 0.155099 0)
(-0.12764 0.137357 0)
(-0.123876 0.117881 0)
(-0.120146 0.0992293 0)
(-0.117507 0.0824895 0)
(-0.116797 0.0674527 0)
(-0.117577 0.0532589 0)
(-0.119567 0.0390464 0)
(-0.121598 0.0238596 0)
(-0.123497 0.00762829 0)
(-0.124151 -0.0101885 0)
(-0.124309 -0.0286302 0)
(-0.123007 -0.0487073 0)
(-0.122352 -0.0685414 0)
(-0.121403 -0.091475 0)
(-0.123728 -0.114543 0)
(-0.127867 -0.145575 0)
(-0.136283 -0.177698 0)
(-0.143412 -0.218878 0)
(-0.143356 -0.245088 0)
(-0.123674 -0.247195 0)
(-0.0746153 -0.160168 0)
(0.00607761 -0.00196255 0)
(-0.00530846 0.0360684 0)
(-0.0252356 0.0749564 0)
(-0.0491214 0.11253 0)
(-0.0709335 0.147319 0)
(-0.090138 0.171192 0)
(-0.102229 0.179105 0)
(-0.107776 0.171706 0)
(-0.107558 0.154816 0)
(-0.104876 0.134527 0)
(-0.101313 0.114648 0)
(-0.0992113 0.0972015 0)
(-0.0990212 0.0823632 0)
(-0.101121 0.069173 0)
(-0.10452 0.0561934 0)
(-0.108711 0.0423781 0)
(-0.112315 0.026754 0)
(-0.115279 0.00956061 0)
(-0.116373 -0.00960743 0)
(-0.116552 -0.0292636 0)
(-0.114522 -0.050411 0)
(-0.112577 -0.0702949 0)
(-0.109179 -0.092532 0)
(-0.108407 -0.112808 0)
(-0.108599 -0.14065 0)
(-0.114677 -0.169253 0)
(-0.12218 -0.212395 0)
(-0.129045 -0.248873 0)
(-0.121378 -0.273077 0)
(-0.0881301 -0.217368 0)
(-0.0214858 -0.0482843 0)
(-0.00453902 0.0507606 0)
(-0.0228815 0.0956686 0)
(-0.044133 0.133134 0)
(-0.0622406 0.164904 0)
(-0.0771665 0.183649 0)
(-0.0852198 0.185071 0)
(-0.0880219 0.172306 0)
(-0.0865368 0.152172 0)
(-0.0840896 0.131045 0)
(-0.081928 0.112147 0)
(-0.0821125 0.0968636 0)
(-0.084416 0.0843088 0)
(-0.0888914 0.072904 0)
(-0.0941307 0.0607493 0)
(-0.0996727 0.0468456 0)
(-0.104066 0.0303044 0)
(-0.10755 0.0117675 0)
(-0.10879 -0.00910065 0)
(-0.109055 -0.0302927 0)
(-0.106665 -0.0529857 0)
(-0.104223 -0.073561 0)
(-0.0993942 -0.0961016 0)
(-0.0966458 -0.11467 0)
(-0.0931945 -0.139846 0)
(-0.0958689 -0.163627 0)
(-0.100274 -0.204784 0)
(-0.109434 -0.245471 0)
(-0.108643 -0.288004 0)
(-0.0866844 -0.260308 0)
(-0.0340921 -0.111482 0)
(-0.00324006 0.0635444 0)
(-0.0187956 0.114734 0)
(-0.0367473 0.151816 0)
(-0.0511613 0.180449 0)
(-0.0623761 0.194168 0)
(-0.0675617 0.190112 0)
(-0.0688226 0.173127 0)
(-0.0671964 0.151018 0)
(-0.0656897 0.130003 0)
(-0.0652392 0.112751 0)
(-0.0674128 0.099761 0)
(-0.0714988 0.0891791 0)
(-0.0773515 0.0789675 0)
(-0.0834046 0.0669671 0)
(-0.0894187 0.0524215 0)
(-0.0939452 0.0345562 0)
(-0.0975978 0.0144504 0)
(-0.0988522 -0.00828303 0)
(-0.0993755 -0.0311198 0)
(-0.0969656 -0.0555742 0)
(-0.0947469 -0.0771576 0)
(-0.089427 -0.100623 0)
(-0.0861735 -0.118464 0)
(-0.080437 -0.142083 0)
(-0.0807157 -0.161602 0)
(-0.0811959 -0.199343 0)
(-0.0900169 -0.240078 0)
(-0.0915656 -0.29567 0)
(-0.0776059 -0.292839 0)
(-0.0325582 -0.169523 0)
(-0.00151616 0.072728 0)
(-0.0134437 0.129159 0)
(-0.0275353 0.165312 0)
(-0.0384105 0.190456 0)
(-0.0465595 0.199924 0)
(-0.0498723 0.191496 0)
(-0.0506482 0.171875 0)
(-0.0495745 0.148972 0)
(-0.0493161 0.128989 0)
(-0.0503089 0.113758 0)
(-0.0537857 0.103033 0)
(-0.0586845 0.0941171 0)
(-0.0649295 0.0847625 0)
(-0.0708992 0.0726698 0)
(-0.0767278 0.0574157 0)
(-0.0809178 0.038298 0)
(-0.0845342 0.0168139 0)
(-0.0857077 -0.00759569 0)
(-0.086623 -0.0318902 0)
(-0.084359 -0.0580283 0)
(-0.0828328 -0.080638 0)
(-0.0775653 -0.105267 0)
(-0.0749353 -0.123041 0)
(-0.0681169 -0.146047 0)
(-0.0674622 -0.162202 0)
(-0.0644724 -0.196139 0)
(-0.0725093 -0.234505 0)
(-0.0748432 -0.300069 0)
(-0.067684 -0.319536 0)
(-0.0295084 -0.221871 0)
(0.000235421 0.0786121 0)
(-0.00763946 0.140859 0)
(-0.0178995 0.176765 0)
(-0.0255808 0.199553 0)
(-0.0311642 0.20568 0)
(-0.0332516 0.194374 0)
(-0.0338498 0.172959 0)
(-0.0334289 0.149824 0)
(-0.0340653 0.130847 0)
(-0.035878 0.117305 0)
(-0.0397734 0.10825 0)
(-0.0445784 0.100364 0)
(-0.0503876 0.091323 0)
(-0.055612 0.0787507 0)
(-0.0608437 0.0626354 0)
(-0.0644464 0.042259 0)
(-0.0680104 0.0195261 0)
(-0.0691164 -0.00643839 0)
(-0.0706355 -0.0320535 0)
(-0.0686728 -0.0597934 0)
(-0.0682526 -0.0833792 0)
(-0.0633722 -0.109155 0)
(-0.0622266 -0.127195 0)
(-0.0553738 -0.150364 0)
(-0.0553747 -0.16448 0)
(-0.0500121 -0.195113 0)
(-0.0573276 -0.229055 0)
(-0.0590749 -0.30035 0)
(-0.0578289 -0.338225 0)
(-0.0258739 -0.266982 0)
(0.00202198 0.0801159 0)
(-0.00164297 0.147186 0)
(-0.00792234 0.183135 0)
(-0.0126853 0.203597 0)
(-0.0161472 0.207499 0)
(-0.0174054 0.194124 0)
(-0.0182041 0.171975 0)
(-0.0184383 0.14907 0)
(-0.0197478 0.131328 0)
(-0.0217483 0.119305 0)
(-0.0253267 0.111645 0)
(-0.029224 0.104546 0)
(-0.0339629 0.0957706 0)
(-0.0379372 0.0829084 0)
(-0.0423136 0.0663263 0)
(-0.045122 0.0451787 0)
(-0.0485973 0.0217046 0)
(-0.0495531 -0.00537078 0)
(-0.0518042 -0.0319325 0)
(-0.0501947 -0.0609716 0)
(-0.0512297 -0.085343 0)
(-0.0469205 -0.112029 0)
(-0.0477923 -0.130268 0)
(-0.0415098 -0.153787 0)
(-0.0434266 -0.166702 0)
(-0.0370953 -0.195113 0)
(-0.0448203 -0.224626 0)
(-0.0458326 -0.299616 0)
(-0.0497134 -0.352475 0)
(-0.0225682 -0.30594 0)
(0.00345953 0.0783878 0)
(0.00406373 0.150828 0)
(0.00152295 0.187872 0)
(-0.000537918 0.20784 0)
(-0.00202981 0.210505 0)
(-0.00259143 0.196605 0)
(-0.00334277 0.174158 0)
(-0.00391602 0.151508 0)
(-0.00529842 0.134318 0)
(-0.00686511 0.122968 0)
(-0.00949499 0.115904 0)
(-0.0119643 0.109026 0)
(-0.0152799 0.100264 0)
(-0.0177206 0.0870532 0)
(-0.0211066 0.0701343 0)
(-0.0229086 0.0483729 0)
(-0.0262459 0.0243871 0)
(-0.0269105 -0.00356932 0)
(-0.0300402 -0.0308315 0)
(-0.0288425 -0.0609108 0)
(-0.0317588 -0.0859165 0)
(-0.0283234 -0.113345 0)
(-0.0317441 -0.131719 0)
(-0.0264933 -0.155664 0)
(-0.0311743 -0.167918 0)
(-0.0248261 -0.194778 0)
(-0.0339459 -0.219403 0)
(-0.0341638 -0.295811 0)
(-0.0430442 -0.36101 0)
(-0.019705 -0.339681 0)
(0.00466505 0.0726046 0)
(0.00929097 0.148904 0)
(0.0105864 0.187682 0)
(0.0110589 0.206955 0)
(0.0113027 0.20948 0)
(0.011449 0.195313 0)
(0.0106249 0.17322 0)
(0.00988051 0.150843 0)
(0.00851606 0.134175 0)
(0.00773066 0.123273 0)
(0.0063397 0.116681 0)
(0.00572147 0.110063 0)
(0.00412825 0.10155 0)
(0.00359957 0.0884113 0)
(0.00143583 0.0716705 0)
(0.000972834 0.0498984 0)
(-0.00208665 0.0260292 0)
(-0.00220023 -0.00213336 0)
(-0.00624028 -0.0294792 0)
(-0.00539051 -0.0599697 0)
(-0.0104484 -0.0851428 0)
(-0.008114 -0.112933 0)
(-0.0145063 -0.131188 0)
(-0.0106314 -0.155405 0)
(-0.0187352 -0.167296 0)
(-0.0131742 -0.193531 0)
(-0.0247896 -0.21419 0)
(-0.0243419 -0.291154 0)
(-0.03798 -0.366212 0)
(-0.017155 -0.369183 0)
(0.00515665 0.064637 0)
(0.0137222 0.144874 0)
(0.0185763 0.186255 0)
(0.0216371 0.207178 0)
(0.0238245 0.210276 0)
(0.0248862 0.197451 0)
(0.0245201 0.175952 0)
(0.0239426 0.153753 0)
(0.0230019 0.136708 0)
(0.0232386 0.125206 0)
(0.0232612 0.118189 0)
(0.0246399 0.111215 0)
(0.024805 0.102735 0)
(0.0263211 0.0896207 0)
(0.0253725 0.0732214 0)
(0.0264289 0.0516316 0)
(0.023627 0.0281646 0)
(0.024263 0.000145975 0)
(0.0192299 -0.0268785 0)
(0.0197642 -0.057339 0)
(0.0123565 -0.0822792 0)
(0.0134066 -0.110145 0)
(0.00369639 -0.128133 0)
(0.00598278 -0.15252 0)
(-0.00593791 -0.164138 0)
(-0.00150668 -0.190051 0)
(-0.0164895 -0.206944 0)
(-0.0155043 -0.283582 0)
(-0.0341881 -0.367224 0)
(-0.0148469 -0.395367 0)
(0.0051498 0.0537428 0)
(0.0170192 0.135149 0)
(0.0256092 0.179755 0)
(0.0312064 0.201422 0)
(0.0351711 0.206177 0)
(0.0373725 0.194396 0)
(0.0373544 0.1741 0)
(0.0371176 0.152087 0)
(0.0363951 0.134803 0)
(0.0376282 0.122678 0)
(0.0388603 0.115266 0)
(0.0423034 0.10813 0)
(0.0442089 0.0999776 0)
(0.0480131 0.0873816 0)
(0.0483735 0.0718254 0)
(0.0512578 0.051064 0)
(0.0487912 0.0286342 0)
(0.0504088 0.00154515 0)
(0.0444388 -0.0243489 0)
(0.0447968 -0.0539675 0)
(0.0350774 -0.0779603 0)
(0.0349035 -0.10533 0)
(0.0217866 -0.122719 0)
(0.0224722 -0.147049 0)
(0.00651548 -0.158479 0)
(0.00969289 -0.184534 0)
(-0.00931917 -0.198671 0)
(-0.00770215 -0.274798 0)
(-0.0316211 -0.365618 0)
(-0.012543 -0.418869 0)
(0.00404471 0.04274 0)
(0.0189544 0.124372 0)
(0.0309052 0.172301 0)
(0.0393556 0.197692 0)
(0.0456875 0.204337 0)
(0.0495033 0.195426 0)
(0.0506643 0.176518 0)
(0.0511394 0.154831 0)
(0.050893 0.136558 0)
(0.0529997 0.122757 0)
(0.0551402 0.113928 0)
(0.060358 0.105758 0)
(0.0636527 0.0975257 0)
(0.0696273 0.0852152 0)
(0.0710428 0.0706038 0)
(0.0757605 0.0508253 0)
(0.073452 0.0297879 0)
(0.0760672 0.00395231 0)
(0.0691019 -0.0203369 0)
(0.0693889 -0.0487027 0)
(0.0573899 -0.0712973 0)
(0.056152 -0.0978199 0)
(0.0396463 -0.114404 0)
(0.0389183 -0.138533 0)
(0.0188624 -0.149743 0)
(0.0209366 -0.175925 0)
(-0.0026649 -0.187655 0)
(-0.000292133 -0.263009 0)
(-0.030059 -0.360741 0)
(-0.010098 -0.440281 0)
(0.00260807 0.0307432 0)
(0.0190974 0.107822 0)
(0.034576 0.159357 0)
(0.045764 0.186223 0)
(0.0541021 0.196001 0)
(0.0598468 0.189056 0)
(0.0620172 0.172434 0)
(0.0635891 0.151451 0)
(0.0636125 0.132921 0)
(0.0665242 0.117947 0)
(0.0690266 0.107974 0)
(0.0757543 0.0990623 0)
(0.0799689 0.0909228 0)
(0.088097 0.0793531 0)
(0.0903837 0.0660735 0)
(0.0970695 0.0479044 0)
(0.0949495 0.0288741 0)
(0.0987373 0.00501552 0)
(0.090922 -0.0169563 0)
(0.0914052 -0.0432953 0)
(0.0773803 -0.063816 0)
(0.0754903 -0.0888636 0)
(0.0559076 -0.10429 0)
(0.054211 -0.127888 0)
(0.0301995 -0.138841 0)
(0.0315138 -0.165138 0)
(0.00299909 -0.175289 0)
(0.00656044 -0.249749 0)
(-0.0295698 -0.353782 0)
(-0.00728005 -0.459991 0)
(0.000545062 0.0214036 0)
(0.017544 0.0924299 0)
(0.0356101 0.145966 0)
(0.049884 0.178309 0)
(0.0613087 0.190565 0)
(0.0697094 0.187667 0)
(0.0741975 0.173199 0)
(0.0775012 0.153317 0)
(0.0783171 0.134142 0)
(0.0819531 0.117281 0)
(0.0843435 0.105295 0)
(0.0918803 0.0945868 0)
(0.0961681 0.0858697 0)
(0.105797 0.0744143 0)
(0.108394 0.0624357 0)
(0.116683 0.0457313 0)
(0.114498 0.0290577 0)
(0.119391 0.00731608 0)
(0.11068 -0.0119163 0)
(0.111581 -0.0359932 0)
(0.0957003 -0.0540944 0)
(0.0936577 -0.077452 0)
(0.071284 -0.0915116 0)
(0.0691846 -0.114366 0)
(0.0413366 -0.124886 0)
(0.0423044 -0.150964 0)
(0.00849994 -0.159863 0)
(0.0137034 -0.233231 0)
(-0.0297725 -0.344154 0)
(-0.00378133 -0.478261 0)
(-0.000120307 0.0125984 0)
(0.0145745 0.0721127 0)
(0.0346052 0.127025 0)
(0.0512728 0.159885 0)
(0.0645039 0.176175 0)
(0.0758239 0.175587 0)
(0.0822756 0.164669 0)
(0.0882321 0.146744 0)
(0.0901492 0.128544 0)
(0.0952024 0.111248 0)
(0.097308 0.0982262 0)
(0.105602 0.0864786 0)
(0.109224 0.0773387 0)
(0.119974 0.0662869 0)
(0.122243 0.0556806 0)
(0.131994 0.0408696 0)
(0.129464 0.0268033 0)
(0.135684 0.00778478 0)
(0.12616 -0.00836135 0)
(0.128028 -0.0295519 0)
(0.110692 -0.0448962 0)
(0.109286 -0.0660103 0)
(0.0846587 -0.0784473 0)
(0.0828848 -0.100041 0)
(0.0514599 -0.109923 0)
(0.0525091 -0.135287 0)
(0.0132045 -0.143671 0)
(0.0206129 -0.215348 0)
(-0.0309354 -0.333041 0)
(0.000649936 -0.495169 0)
(-0.00120631 0.00735197 0)
(0.0102877 0.0579534 0)
(0.0297513 0.109693 0)
(0.0488967 0.148747 0)
(0.0658912 0.166416 0)
(0.0809629 0.170089 0)
(0.0911919 0.161356 0)
(0.10066 0.145456 0)
(0.104731 0.127897 0)
(0.111715 0.109944 0)
(0.113778 0.0957205 0)
(0.122487 0.0822991 0)
(0.12491 0.0724097 0)
(0.135784 0.0608552 0)
(0.136939 0.0514238 0)
(0.147306 0.0378326 0)
(0.143912 0.0264943 0)
(0.151167 0.00980969 0)
(0.140698 -0.00296482 0)
(0.143796 -0.0215165 0)
(0.125138 -0.0337793 0)
(0.124976 -0.0527174 0)
(0.0982134 -0.0630528 0)
(0.0973489 -0.0830078 0)
(0.062199 -0.0915963 0)
(0.0638185 -0.115572 0)
(0.0186613 -0.123739 0)
(0.0292052 -0.193307 0)
(-0.0316832 -0.319547 0)
(0.00679564 -0.510405 0)
(0.000876403 0.00338051 0)
(0.00740676 0.0403155 0)
(0.0234166 0.0883929 0)
(0.0428093 0.122748 0)
(0.0595592 0.144108 0)
(0.0785752 0.149377 0)
(0.0916822 0.145076 0)
(0.106292 0.132373 0)
(0.113416 0.117717 0)
(0.124341 0.101319 0)
(0.127394 0.0878003 0)
(0.137986 0.0743704 0)
(0.139347 0.0645168 0)
(0.150996 0.0532047 0)
(0.150282 0.0447608 0)
(0.161587 0.0327688 0)
(0.15639 0.0236665 0)
(0.16519 0.00975452 0)
(0.15316 -0.000121673 0)
(0.158309 -0.0154598 0)
(0.138128 -0.0249755 0)
(0.140139 -0.0409788 0)
(0.111274 -0.0492859 0)
(0.112021 -0.0666938 0)
(0.0731761 -0.0740037 0)
(0.0756327 -0.0958634 0)
(0.0245381 -0.105087 0)
(0.0383248 -0.171174 0)
(-0.0322323 -0.305482 0)
(0.0150895 -0.52304 0)
(-0.00233183 -0.000868268 0)
(-0.000125259 0.0362686 0)
(0.0116585 0.0746327 0)
(0.0312649 0.113498 0)
(0.0524244 0.131118 0)
(0.0754222 0.138341 0)
(0.0933471 0.134384 0)
(0.113175 0.123669 0)
(0.124195 0.110824 0)
(0.139594 0.0956367 0)
(0.144536 0.0831822 0)
(0.157639 0.0698212 0)
(0.158733 0.0605952 0)
(0.171287 0.0492408 0)
(0.169057 0.0421229 0)
(0.180822 0.0309024 0)
(0.173883 0.0243133 0)
(0.183555 0.0120511 0)
(0.169921 0.00556158 0)
(0.176592 -0.00770944 0)
(0.15462 -0.0135753 0)
(0.158545 -0.0274482 0)
(0.126807 -0.032216 0)
(0.129444 -0.0471041 0)
(0.0857542 -0.0512699 0)
(0.0907604 -0.0704046 0)
(0.033164 -0.0803831 0)
(0.053512 -0.142381 0)
(-0.0269438 -0.288206 0)
(0.0279737 -0.531047 0)
(0.00483931 0.00629302 0)
(0.00304863 0.0250849 0)
(-0.00251143 0.0571524 0)
(0.0135857 0.0802599 0)
(0.0294864 0.0998503 0)
(0.0581155 0.107007 0)
(0.0790753 0.107471 0)
(0.106871 0.100354 0)
(0.122352 0.0917046 0)
(0.144955 0.0798377 0)
(0.152862 0.0703086 0)
(0.171286 0.0589598 0)
(0.172813 0.0515128 0)
(0.188996 0.0415933 0)
(0.184978 0.0359547 0)
(0.199679 0.0265868 0)
(0.189572 0.0217661 0)
(0.202495 0.0122444 0)
(0.184974 0.00781247 0)
(0.19573 -0.00186867 0)
(0.169423 -0.00573731 0)
(0.178304 -0.0153668 0)
(0.141894 -0.0185981 0)
(0.150249 -0.0288695 0)
(0.101877 -0.0328704 0)
(0.113273 -0.0486212 0)
(0.0502392 -0.063493 0)
(0.0759586 -0.120376 0)
(-0.0133943 -0.272705 0)
(0.0466529 -0.528372 0)
(-0.0200476 -0.0108925 0)
(-0.0198558 0.0457491 0)
(-0.0124271 0.0639561 0)
(-0.00533085 0.0838435 0)
(0.0174874 0.0872965 0)
(0.0475268 0.0896763 0)
(0.0727187 0.0866244 0)
(0.105007 0.0803387 0)
(0.124274 0.0739967 0)
(0.151819 0.0646348 0)
(0.162249 0.0582675 0)
(0.184973 0.0491925 0)
(0.187162 0.0444089 0)
(0.206803 0.0362708 0)
(0.201704 0.0330838 0)
(0.219501 0.0253371 0)
(0.207147 0.023326 0)
(0.223606 0.0154229 0)
(0.203214 0.0144763 0)
(0.218816 0.00622584 0)
(0.189154 0.00656588 0)
(0.205111 -0.00208775 0)
(0.164364 -0.000456046 0)
(0.183161 -0.0100216 0)
(0.12819 -0.0088503 0)
(0.1544 -0.0228694 0)
(0.0813381 -0.0348322 0)
(0.124797 -0.0858652 0)
(0.0334856 -0.24205 0)
(0.0826062 -0.503089 0)
(-0.0814752 0.0524793 0)
(-0.0778415 0.0146397 0)
(-0.104218 0.0428963 0)
(-0.0647434 0.0464174 0)
(-0.0468213 0.0462957 0)
(6.27282e-05 0.0494203 0)
(0.0274749 0.0500132 0)
(0.0722064 0.0472167 0)
(0.0937025 0.0453701 0)
(0.133878 0.0404092 0)
(0.144779 0.0377912 0)
(0.181405 0.0325096 0)
(0.18168 0.0303795 0)
(0.216885 0.0254124 0)
(0.207228 0.0240254 0)
(0.242965 0.019403 0)
(0.223323 0.0185373 0)
(0.261228 0.0142939 0)
(0.230747 0.013633 0)
(0.272604 0.0100773 0)
(0.229954 0.00918521 0)
(0.278103 0.00684482 0)
(0.221714 0.00479264 0)
(0.278958 0.00365148 0)
(0.207185 -0.00242216 0)
(0.275671 -0.00818563 0)
(0.186957 -0.0328364 0)
(0.262122 -0.0855111 0)
(0.14265 -0.225 0)
(0.139345 -0.433333 0)
(0.079938 0.13529 0)
(0.119343 0.0738905 0)
(0.160048 0.0512902 0)
(0.214872 0.0310718 0)
(0.235328 0.0237589 0)
(0.284355 0.0170315 0)
(0.300066 0.0156072 0)
(0.350387 0.0140298 0)
(0.360077 0.0136261 0)
(0.410202 0.0128419 0)
(0.412101 0.0122709 0)
(0.461253 0.0114077 0)
(0.45466 0.0106452 0)
(0.503347 0.00974759 0)
(0.488318 0.00891413 0)
(0.537476 0.00808712 0)
(0.514132 0.00725499 0)
(0.564657 0.00650612 0)
(0.533023 0.00577305 0)
(0.585737 0.00496035 0)
(0.545817 0.00456638 0)
(0.601501 0.00323098 0)
(0.55318 0.00366727 0)
(0.61222 0.00051813 0)
(0.553822 0.00230823 0)
(0.61374 -0.00684381 0)
(0.532903 -0.00612863 0)
(0.5724 -0.0390625 0)
(0.395832 -0.06419 0)
(0.291841 -0.197583 0)
)
;

boundaryField
{
    movingWall
    {
        type            fixedValue;
        value           uniform (1 0 0);
    }
    fixedWalls
    {
        type            noSlip;
    }
    frontAndBack
    {
        type            empty;
    }
}


// ************************************************************************* //
