/*--------------------------------*- C++ -*----------------------------------*\
| =========                 |                                                 |
| \\      /  F ield         | OpenFOAM: The Open Source CFD Toolbox           |
|  \\    /   O peration     | Version:  2406                                  |
|   \\  /    A nd           | Website:  www.openfoam.com                      |
|    \\/     M anipulation  |                                                 |
\*---------------------------------------------------------------------------*/
FoamFile
{
    version     2.0;
    format      ascii;
    arch        "LSB;label=32;scalar=64";
    class       volVectorField;
    location    "22.75";
    object      U_0;
}
// * * * * * * * * * * * * * * * * * * * * * * * * * * * * * * * * * * * * * //

dimensions      [0 1 -1 0 0 0 0];

internalField   nonuniform List<vector> 
16384
(
(-3.68647e-06 3.66488e-06 0)
(1.78339e-05 -3.85651e-06 0)
(7.60948e-05 -1.12391e-05 0)
(0.000160115 -1.59262e-05 0)
(0.000260439 -1.82894e-05 0)
(0.000368853 -1.91104e-05 0)
(0.000479235 -1.89615e-05 0)
(0.00058731 -1.82288e-05 0)
(0.000690224 -1.717e-05 0)
(0.000786169 -1.59539e-05 0)
(0.000874075 -1.46895e-05 0)
(0.000953379 -1.34452e-05 0)
(0.00102385 -1.22622e-05 0)
(0.00108545 -1.11637e-05 0)
(0.00113827 -1.01611e-05 0)
(0.00118242 -9.258e-06 0)
(0.00121803 -8.45296e-06 0)
(0.00124517 -7.74018e-06 0)
(0.00126386 -7.11101e-06 0)
(0.00127406 -6.55514e-06 0)
(0.00127556 -6.09109e-06 0)
(0.00126805 -5.651e-06 0)
(0.0012511 -5.22982e-06 0)
(0.00122409 -4.811e-06 0)
(0.00118619 -4.36652e-06 0)
(0.00113637 -3.86478e-06 0)
(0.0010734 -3.27132e-06 0)
(0.000995778 -2.54879e-06 0)
(0.000901787 -1.65979e-06 0)
(0.000789461 -5.62778e-07 0)
(0.000656605 7.81428e-07 0)
(0.000500808 2.4133e-06 0)
(0.000319464 4.37616e-06 0)
(0.000109793 6.70907e-06 0)
(-0.000131111 9.45315e-06 0)
(-0.000406251 1.26435e-05 0)
(-0.000718684 1.63194e-05 0)
(-0.00107145 2.05153e-05 0)
(-0.00146752 2.52618e-05 0)
(-0.00190974 3.05845e-05 0)
(-0.00240072 3.65026e-05 0)
(-0.00294277 4.30262e-05 0)
(-0.00353782 5.01544e-05 0)
(-0.00418731 5.78731e-05 0)
(-0.00489206 6.61529e-05 0)
(-0.00565225 7.49465e-05 0)
(-0.00646722 8.41872e-05 0)
(-0.00733549 9.37873e-05 0)
(-0.00825459 0.000103637 0)
(-0.00922104 0.000113602 0)
(-0.0102303 0.000123528 0)
(-0.0112766 0.000133235 0)
(-0.0123533 0.000142523 0)
(-0.0134524 0.000151173 0)
(-0.0145649 0.000158946 0)
(-0.0156807 0.000165593 0)
(-0.0167889 0.000170852 0)
(-0.0178774 0.000174457 0)
(-0.0189337 0.000176142 0)
(-0.0199443 0.00017565 0)
(-0.0208956 0.000172736 0)
(-0.0217733 0.000167176 0)
(-0.0225633 0.000158781 0)
(-0.0232514 0.000147415 0)
(-0.0238239 0.000133031 0)
(-0.0242678 0.000115706 0)
(-0.0245711 9.54784e-05 0)
(-0.0247224 7.2055e-05 0)
(-0.0247097 4.60913e-05 0)
(-0.024524 1.61654e-05 0)
(-0.024161 -1.64615e-05 0)
(-0.0236163 -5.06152e-05 0)
(-0.0228877 -8.57923e-05 0)
(-0.0219761 -0.000121448 0)
(-0.0208856 -0.000156892 0)
(-0.0196232 -0.000191342 0)
(-0.0181992 -0.000223956 0)
(-0.0166273 -0.000253864 0)
(-0.0149243 -0.000280205 0)
(-0.01311 -0.000302159 0)
(-0.0112071 -0.000318988 0)
(-0.00924075 -0.000330077 0)
(-0.007238 -0.000334966 0)
(-0.00522721 -0.00033337 0)
(-0.00323735 -0.000325204 0)
(-0.00129696 -0.000310742 0)
(0.000565469 -0.000290738 0)
(0.00232343 -0.000265074 0)
(0.00395368 -0.000234974 0)
(0.00543553 -0.000201496 0)
(0.00675201 -0.000165655 0)
(0.00789054 -0.000128694 0)
(0.00884321 -9.16982e-05 0)
(0.00960662 -5.5789e-05 0)
(0.010182 -2.19382e-05 0)
(0.0105748 9.03045e-06 0)
(0.0107945 3.64912e-05 0)
(0.0108537 6.00237e-05 0)
(0.0107678 7.94625e-05 0)
(0.0105541 9.45566e-05 0)
(0.010231 0.000105641 0)
(0.0098174 0.000112974 0)
(0.00933189 0.000116917 0)
(0.0087924 0.000117912 0)
(0.00821563 0.000116437 0)
(0.00761667 0.000112971 0)
(0.0070088 0.000107976 0)
(0.00640333 0.000101876 0)
(0.00580964 9.50483e-05 0)
(0.00523515 8.78194e-05 0)
(0.00468548 8.04618e-05 0)
(0.00416461 7.31984e-05 0)
(0.00367502 6.62076e-05 0)
(0.00321789 5.96293e-05 0)
(0.00279332 5.35699e-05 0)
(0.00240051 4.81047e-05 0)
(0.00203801 4.32765e-05 0)
(0.00170398 3.90879e-05 0)
(0.00139649 3.54876e-05 0)
(0.00111391 3.23494e-05 0)
(0.00085541 2.94455e-05 0)
(0.000621433 2.64167e-05 0)
(0.000414303 2.27445e-05 0)
(0.000238646 1.77433e-05 0)
(0.000101332 1.06659e-05 0)
(1.03037e-05 1.2586e-06 0)
(-2.73543e-05 -9.04552e-06 0)
(-1.51019e-05 -1.51556e-05 0)
(3.78766e-06 -1.78035e-05 0)
(8.1384e-05 -8.15282e-05 0)
(0.000232138 -0.000138985 0)
(0.000435717 -0.000178683 0)
(0.000672774 -0.000201466 0)
(0.000926959 -0.000210892 0)
(0.00118532 -0.000210533 0)
(0.00143817 -0.000203359 0)
(0.00167857 -0.000191655 0)
(0.00190178 -0.0001771 0)
(0.00210469 -0.000160882 0)
(0.00228535 -0.000143803 0)
(0.00244259 -0.000126379 0)
(0.00257571 -0.000108913 0)
(0.00268429 -9.1555e-05 0)
(0.002768 -7.4343e-05 0)
(0.00282646 -5.72347e-05 0)
(0.00285922 -4.01269e-05 0)
(0.0028656 -2.28739e-05 0)
(0.00284468 -5.29593e-06 0)
(0.00279523 1.28347e-05 0)
(0.00271568 3.18356e-05 0)
(0.00260401 5.20097e-05 0)
(0.00245775 7.37073e-05 0)
(0.00227393 9.73215e-05 0)
(0.00204901 0.000123278 0)
(0.00177891 0.000152028 0)
(0.00145891 0.000184035 0)
(0.00108374 0.000219761 0)
(0.000647539 0.000259669 0)
(0.000143923 0.000304188 0)
(-0.000433947 0.000353711 0)
(-0.00109329 0.000408584 0)
(-0.00184162 0.000469086 0)
(-0.00268657 0.000535424 0)
(-0.00363578 0.000607706 0)
(-0.00469672 0.000685943 0)
(-0.00587649 0.000770024 0)
(-0.00718162 0.000859703 0)
(-0.00861784 0.000954584 0)
(-0.0101898 0.0010541 0)
(-0.011901 0.00115752 0)
(-0.0137531 0.00126392 0)
(-0.0157463 0.00137216 0)
(-0.0178786 0.00148094 0)
(-0.0201456 0.00158875 0)
(-0.0225407 0.0016939 0)
(-0.0250547 0.00179456 0)
(-0.0276755 0.00188873 0)
(-0.0303885 0.00197432 0)
(-0.0331763 0.00204919 0)
(-0.036019 0.00211114 0)
(-0.0388941 0.00215798 0)
(-0.0417769 0.00218759 0)
(-0.0446407 0.00219795 0)
(-0.047457 0.00218716 0)
(-0.0501961 0.00215354 0)
(-0.0528271 0.00209561 0)
(-0.0553188 0.00201215 0)
(-0.0576394 0.00190226 0)
(-0.0597578 0.00176535 0)
(-0.0616432 0.00160122 0)
(-0.0632663 0.00141006 0)
(-0.0645991 0.00119255 0)
(-0.0656158 0.000949875 0)
(-0.0662935 0.0006836 0)
(-0.0666128 0.000395273 0)
(-0.0665555 8.65222e-05 0)
(-0.0661051 -0.000235136 0)
(-0.0652499 -0.000570489 0)
(-0.0639861 -0.000915258 0)
(-0.0623134 -0.00126456 0)
(-0.0602357 -0.00161342 0)
(-0.0577622 -0.00195651 0)
(-0.0549073 -0.0022882 0)
(-0.051691 -0.00260264 0)
(-0.0481388 -0.00289391 0)
(-0.0442818 -0.00315614 0)
(-0.0401565 -0.00338366 0)
(-0.0358045 -0.00357119 0)
(-0.0312717 -0.00371405 0)
(-0.0266083 -0.00380832 0)
(-0.0218677 -0.00385103 0)
(-0.0171056 -0.00384034 0)
(-0.012379 -0.00377569 0)
(-0.00774492 -0.00365798 0)
(-0.0032595 -0.00348987 0)
(0.00102298 -0.00327436 0)
(0.00505238 -0.0030166 0)
(0.00878396 -0.00272296 0)
(0.0121782 -0.00240035 0)
(0.0152028 -0.00205746 0)
(0.017834 -0.0017023 0)
(0.0200558 -0.0013435 0)
(0.0218612 -0.000989354 0)
(0.023252 -0.000647706 0)
(0.0242384 -0.000325512 0)
(0.0248382 -2.87038e-05 0)
(0.025076 0.000238162 0)
(0.0249827 0.000472183 0)
(0.0245936 0.000671263 0)
(0.0239463 0.000834699 0)
(0.0230808 0.000963062 0)
(0.0220371 0.001058 0)
(0.0208546 0.001122 0)
(0.0195704 0.00115816 0)
(0.0182191 0.00116997 0)
(0.0168314 0.00116112 0)
(0.0154343 0.00113534 0)
(0.0140507 0.00109621 0)
(0.0126991 0.00104712 0)
(0.011394 0.000991144 0)
(0.0101462 0.000931031 0)
(0.00896286 0.00086915 0)
(0.00784831 0.000807476 0)
(0.00680415 0.000747558 0)
(0.00583007 0.000690461 0)
(0.00492444 0.000636685 0)
(0.00408509 0.000586052 0)
(0.00331024 0.000537573 0)
(0.00259951 0.000489326 0)
(0.001955 0.000438393 0)
(0.00138228 0.00038097 0)
(0.000890962 0.000312844 0)
(0.000494314 0.000230672 0)
(0.000207051 0.000134988 0)
(4.03458e-05 3.69921e-05 0)
(-8.51938e-06 -2.74462e-05 0)
(1.11422e-05 -7.58614e-05 0)
(0.000138761 -0.000232172 0)
(0.000360363 -0.00036057 0)
(0.000647906 -0.000449392 0)
(0.000975848 -0.000501157 0)
(0.00132371 -0.00052261 0)
(0.00167498 -0.000520917 0)
(0.00201685 -0.000502394 0)
(0.00233977 -0.000472142 0)
(0.00263688 -0.000434051 0)
(0.00290336 -0.000390953 0)
(0.00313589 -0.000344804 0)
(0.00333212 -0.00029688 0)
(0.00349035 -0.000247931 0)
(0.00360918 -0.000198316 0)
(0.0036873 -0.000148106 0)
(0.00372332 -9.71577e-05 0)
(0.00371563 -4.51606e-05 0)
(0.00366227 8.33357e-06 0)
(0.0035609 6.38662e-05 0)
(0.00340864 0.000122134 0)
(0.00320204 0.000183908 0)
(0.00293697 0.000250079 0)
(0.00260858 0.000321628 0)
(0.00221123 0.000399627 0)
(0.00173846 0.000485218 0)
(0.00118294 0.000579583 0)
(0.000536497 0.00068393 0)
(-0.000209868 0.000799438 0)
(-0.00106591 0.000927226 0)
(-0.00204206 0.00106832 0)
(-0.00314924 0.00122358 0)
(-0.00439872 0.00139372 0)
(-0.00580189 0.00157917 0)
(-0.00736998 0.00178014 0)
(-0.0091138 0.00199648 0)
(-0.0110434 0.00222772 0)
(-0.0131677 0.00247297 0)
(-0.0154942 0.0027309 0)
(-0.0180283 0.00299973 0)
(-0.0207733 0.00327716 0)
(-0.0237297 0.0035604 0)
(-0.0268951 0.00384614 0)
(-0.0302634 0.00413055 0)
(-0.0338251 0.00440936 0)
(-0.0375668 0.00467786 0)
(-0.0414709 0.00493102 0)
(-0.045516 0.00516354 0)
(-0.0496768 0.00536996 0)
(-0.0539242 0.0055448 0)
(-0.0582257 0.00568265 0)
(-0.062546 0.00577832 0)
(-0.0668469 0.00582696 0)
(-0.0710885 0.00582414 0)
(-0.0752295 0.005766 0)
(-0.0792277 0.00564931 0)
(-0.0830406 0.00547155 0)
(-0.0866263 0.00523096 0)
(-0.0899438 0.00492659 0)
(-0.0929536 0.00455832 0)
(-0.0956184 0.00412687 0)
(-0.0979029 0.00363383 0)
(-0.099775 0.00308166 0)
(-0.101206 0.00247374 0)
(-0.10217 0.00181414 0)
(-0.102647 0.00110711 0)
(-0.10262 0.000358372 0)
(-0.102071 -0.000419846 0)
(-0.100991 -0.0012225 0)
(-0.0993802 -0.00204313 0)
(-0.0972373 -0.00287309 0)
(-0.0945681 -0.00370261 0)
(-0.091384 -0.0045211 0)
(-0.0877016 -0.00531745 0)
(-0.0835429 -0.0060802 0)
(-0.0789357 -0.00679764 0)
(-0.0739134 -0.00745807 0)
(-0.0685147 -0.00804995 0)
(-0.0627841 -0.00856226 0)
(-0.0567708 -0.00898472 0)
(-0.0505292 -0.00930813 0)
(-0.0441177 -0.00952475 0)
(-0.0375984 -0.00962858 0)
(-0.0310362 -0.00961568 0)
(-0.024498 -0.00948448 0)
(-0.0180514 -0.009236 0)
(-0.0117637 -0.00887407 0)
(-0.00570077 -0.0084052 0)
(7.46165e-05 -0.00783828 0)
(0.00550435 -0.00718506 0)
(0.0105347 -0.00645826 0)
(0.0151198 -0.0056759 0)
(0.0192223 -0.00485384 0)
(0.0228126 -0.00401028 0)
(0.0258713 -0.00316313 0)
(0.0283888 -0.00233008 0)
(0.0303658 -0.0015276 0)
(0.0318131 -0.000770503 0)
(0.0327511 -7.14341e-05 0)
(0.0332086 0.000559844 0)
(0.0332214 0.00111557 0)
(0.032832 0.00159149 0)
(0.0320873 0.00198578 0)
(0.0310372 0.00229926 0)
(0.029733 0.00253519 0)
(0.0282254 0.00269874 0)
(0.0265634 0.00279659 0)
(0.024793 0.00283643 0)
(0.0229561 0.00282657 0)
(0.0210898 0.00277552 0)
(0.019226 0.00269163 0)
(0.0173913 0.00258288 0)
(0.0156069 0.00245661 0)
(0.013889 0.00231935 0)
(0.0122488 0.00217674 0)
(0.0106939 0.00203332 0)
(0.00922829 0.00189239 0)
(0.00785375 0.00175578 0)
(0.00657066 0.00162361 0)
(0.00537933 0.00149404 0)
(0.00428136 0.00136306 0)
(0.00328094 0.00122453 0)
(0.00238596 0.00107063 0)
(0.00160868 0.000893098 0)
(0.000965102 0.000685967 0)
(0.000473094 0.000450819 0)
(0.00014942 0.000207297 0)
(3.16672e-06 1.40585e-05 0)
(1.58885e-05 -0.000159745 0)
(0.000178774 -0.00043573 0)
(0.000449535 -0.000648173 0)
(0.000792282 -0.000792384 0)
(0.00117629 -0.000875319 0)
(0.00157837 -0.000907922 0)
(0.0019801 -0.000901443 0)
(0.00236695 -0.000865894 0)
(0.00272785 -0.000809498 0)
(0.00305454 -0.000738627 0)
(0.00334088 -0.000657972 0)
(0.00358228 -0.000570803 0)
(0.00377519 -0.000479247 0)
(0.00391664 -0.000384536 0)
(0.00400394 -0.000287224 0)
(0.00403443 -0.000187351 0)
(0.00400522 -8.45711e-05 0)
(0.00391309 2.17679e-05 0)
(0.0037543 0.000132574 0)
(0.00352453 0.000248972 0)
(0.00321875 0.000372282 0)
(0.00283109 0.000504022 0)
(0.0023548 0.000645901 0)
(0.00178216 0.000799792 0)
(0.00110443 0.000967709 0)
(0.00031178 0.00115176 0)
(-0.000606642 0.00135412 0)
(-0.00166272 0.00157691 0)
(-0.00286927 0.0018222 0)
(-0.00423987 0.00209184 0)
(-0.0057887 0.00238746 0)
(-0.00753025 0.00271029 0)
(-0.009479 0.00306114 0)
(-0.0116491 0.00344027 0)
(-0.0140538 0.00384731 0)
(-0.0167052 0.00428119 0)
(-0.0196136 0.00474003 0)
(-0.0227867 0.0052211 0)
(-0.0262298 0.00572076 0)
(-0.0299442 0.00623441 0)
(-0.0339278 0.00675647 0)
(-0.0381738 0.00728043 0)
(-0.0426706 0.00779888 0)
(-0.0474017 0.00830362 0)
(-0.0523455 0.00878574 0)
(-0.0574753 0.00923587 0)
(-0.0627593 0.00964432 0)
(-0.0681613 0.0100013 0)
(-0.073641 0.0102973 0)
(-0.0791545 0.010523 0)
(-0.0846554 0.0106699 0)
(-0.0900954 0.0107303 0)
(-0.0954247 0.0106977 0)
(-0.100594 0.0105664 0)
(-0.105553 0.0103324 0)
(-0.110256 0.00999288 0)
(-0.114654 0.00954639 0)
(-0.118706 0.00899293 0)
(-0.122369 0.00833382 0)
(-0.125608 0.0075717 0)
(-0.128387 0.00671045 0)
(-0.130678 0.00575512 0)
(-0.132452 0.00471196 0)
(-0.133688 0.00358829 0)
(-0.134369 0.00239233 0)
(-0.134481 0.00113284 0)
(-0.134007 -0.000179778 0)
(-0.132945 -0.00152897 0)
(-0.131293 -0.00290926 0)
(-0.129053 -0.00430564 0)
(-0.12623 -0.00570424 0)
(-0.122835 -0.00709035 0)
(-0.118882 -0.00844847 0)
(-0.114391 -0.00976241 0)
(-0.109387 -0.0110155 0)
(-0.103897 -0.0121907 0)
(-0.0979566 -0.013271 0)
(-0.0916045 -0.0142396 0)
(-0.0848849 -0.0150803 0)
(-0.0778468 -0.0157779 0)
(-0.0705438 -0.0163188 0)
(-0.0630343 -0.0166912 0)
(-0.0553802 -0.0168855 0)
(-0.0476472 -0.0168953 0)
(-0.0399033 -0.0167171 0)
(-0.0322185 -0.0163515 0)
(-0.0246632 -0.0158025 0)
(-0.0173079 -0.0150783 0)
(-0.0102209 -0.0141912 0)
(-0.00346632 -0.0131572 0)
(0.00289189 -0.0119959 0)
(0.0087984 -0.0107299 0)
(0.0142066 -0.00938404 0)
(0.0190742 -0.00798644 0)
(0.0233697 -0.0065641 0)
(0.0270705 -0.00514537 0)
(0.0301648 -0.00375699 0)
(0.032651 -0.00242414 0)
(0.0345378 -0.0011694 0)
(0.0358443 -1.24189e-05 0)
(0.036599 0.00103112 0)
(0.0368384 0.00195021 0)
(0.0366061 0.00273829 0)
(0.0359517 0.0033926 0)
(0.034929 0.00391451 0)
(0.0335939 0.00430916 0)
(0.0320027 0.0045848 0)
(0.0302106 0.00475212 0)
(0.0282704 0.00482355 0)
(0.0262305 0.00481261 0)
(0.0241349 0.00473321 0)
(0.0220218 0.00459914 0)
(0.0199235 0.00442355 0)
(0.0178664 0.00421851 0)
(0.0158713 0.00399471 0)
(0.0139535 0.00376106 0)
(0.0121242 0.00352431 0)
(0.0103907 0.00328868 0)
(0.00875817 0.0030554 0)
(0.00723095 0.00282234 0)
(0.0058138 0.00258378 0)
(0.00451358 0.00233054 0)
(0.00334048 0.00205082 0)
(0.0023088 0.00173222 0)
(0.00143685 0.00136558 0)
(0.000746353 0.000951782 0)
(0.000263786 0.000513762 0)
(1.52478e-05 0.000117783 0)
(1.84554e-05 -0.000260275 0)
(0.000202321 -0.000673045 0)
(0.000501923 -0.000976074 0)
(0.000874862 -0.00117631 0)
(0.00128612 -0.00128791 0)
(0.00171045 -0.0013273 0)
(0.00212822 -0.00131034 0)
(0.00252401 -0.00125091 0)
(0.00288587 -0.00116041 0)
(0.00320463 -0.00104767 0)
(0.00347314 -0.000919212 0)
(0.00368568 -0.00077956 0)
(0.00383739 -0.000631618 0)
(0.00392393 -0.00047701 0)
(0.00394103 -0.000316374 0)
(0.00388433 -0.000149593 0)
(0.00374907 2.40316e-05 0)
(0.00352997 0.00020566 0)
(0.00322107 0.000396835 0)
(0.0028156 0.000599443 0)
(0.00230587 0.000815687 0)
(0.00168315 0.00104805 0)
(0.000937582 0.00129929 0)
(5.81423e-05 0.0015724 0)
(-0.000967426 0.00187054 0)
(-0.0021526 0.00219697 0)
(-0.00351199 0.00255497 0)
(-0.00506127 0.00294768 0)
(-0.00681695 0.00337799 0)
(-0.00879611 0.00384839 0)
(-0.0110161 0.00436081 0)
(-0.0134939 0.00491646 0)
(-0.0162461 0.00551567 0)
(-0.0192878 0.0061577 0)
(-0.022632 0.00684068 0)
(-0.0262896 0.00756139 0)
(-0.0302676 0.0083152 0)
(-0.0345695 0.009096 0)
(-0.0391938 0.00989611 0)
(-0.044134 0.0107064 0)
(-0.0493776 0.0115161 0)
(-0.0549062 0.0123133 0)
(-0.0606952 0.0130849 0)
(-0.0667138 0.0138168 0)
(-0.0729254 0.0144946 0)
(-0.0792881 0.0151033 0)
(-0.0857551 0.0156286 0)
(-0.0922762 0.0160565 0)
(-0.0987983 0.0163739 0)
(-0.105266 0.0165694 0)
(-0.111625 0.0166328 0)
(-0.11782 0.0165562 0)
(-0.123798 0.0163332 0)
(-0.129506 0.0159599 0)
(-0.134897 0.0154342 0)
(-0.139926 0.0147562 0)
(-0.144552 0.0139276 0)
(-0.148737 0.012952 0)
(-0.152449 0.0118347 0)
(-0.155658 0.0105823 0)
(-0.158339 0.00920281 0)
(-0.160472 0.00770521 0)
(-0.162038 0.00609971 0)
(-0.163022 0.00439744 0)
(-0.163416 0.00261053 0)
(-0.163211 0.000752489 0)
(-0.162399 -0.00116202 0)
(-0.160978 -0.00312012 0)
(-0.158952 -0.00510552 0)
(-0.156325 -0.00710118 0)
(-0.153104 -0.00908958 0)
(-0.149298 -0.0110521 0)
(-0.144921 -0.0129691 0)
(-0.139991 -0.0148204 0)
(-0.134529 -0.0165848 0)
(-0.128561 -0.0182406 0)
(-0.122116 -0.0197663 0)
(-0.115231 -0.0211401 0)
(-0.107944 -0.0223409 0)
(-0.1003 -0.0233489 0)
(-0.092349 -0.0241455 0)
(-0.0841448 -0.0247146 0)
(-0.0757467 -0.0250428 0)
(-0.0672177 -0.0251201 0)
(-0.0586244 -0.0249406 0)
(-0.0500364 -0.0245029 0)
(-0.0415249 -0.0238103 0)
(-0.0331621 -0.0228715 0)
(-0.0250196 -0.0217003 0)
(-0.017167 -0.0203158 0)
(-0.00967245 -0.018743 0)
(-0.00259782 -0.017008 0)
(0.00399931 -0.015144 0)
(0.0100685 -0.013186 0)
(0.0155678 -0.0111699 0)
(0.0204629 -0.00913444 0)
(0.0247301 -0.00711604 0)
(0.0283549 -0.00515048 0)
(0.0313335 -0.0032708 0)
(0.033672 -0.00150654 0)
(0.0353875 0.000117119 0)
(0.0365066 0.00157958 0)
(0.0370639 0.00286689 0)
(0.0371019 0.00397059 0)
(0.0366699 0.00488752 0)
(0.0358219 0.00561998 0)
(0.0346151 0.00617524 0)
(0.0331081 0.00656477 0)
(0.0313589 0.00680338 0)
(0.0294235 0.00690833 0)
(0.0273547 0.00689837 0)
(0.0252005 0.00679289 0)
(0.0230034 0.00661103 0)
(0.0208001 0.00637103 0)
(0.0186212 0.00608944 0)
(0.0164914 0.00578052 0)
(0.0144301 0.00545557 0)
(0.0124522 0.00512225 0)
(0.0105694 0.00478393 0)
(0.00879113 0.00443916 0)
(0.00712681 0.00408132 0)
(0.00558683 0.00369888 0)
(0.0041843 0.00327652 0)
(0.0029362 0.00279759 0)
(0.00186397 0.00224856 0)
(0.000994799 0.00162638 0)
(0.000367093 0.000950039 0)
(2.56203e-05 0.000279426 0)
(1.9622e-05 -0.00036948 0)
(0.000212672 -0.000927651 0)
(0.000523312 -0.00132293 0)
(0.00090456 -0.00157628 0)
(0.00131828 -0.0017111 0)
(0.0017377 -0.00175049 0)
(0.00214242 -0.00171546 0)
(0.00251656 -0.00162397 0)
(0.00284771 -0.0014905 0)
(0.00312606 -0.00132623 0)
(0.0033436 -0.0011393 0)
(0.00349352 -0.000935298 0)
(0.00356963 -0.000717708 0)
(0.00356599 -0.000488355 0)
(0.00347654 -0.000247772 0)
(0.00329488 4.50528e-06 0)
(0.00301401 0.000269717 0)
(0.00262621 0.000549731 0)
(0.00212286 0.000846941 0)
(0.00149432 0.0011642 0)
(0.000729791 0.00150482 0)
(-0.000182762 0.00187245 0)
(-0.00125668 0.00227113 0)
(-0.00250667 0.00270512 0)
(-0.00394875 0.00317889 0)
(-0.00560022 0.00369692 0)
(-0.00747947 0.00426357 0)
(-0.00960574 0.00488287 0)
(-0.0119988 0.0055583 0)
(-0.0146785 0.00629255 0)
(-0.017664 0.00708725 0)
(-0.0209738 0.00794275 0)
(-0.024624 0.00885785 0)
(-0.0286282 0.00982962 0)
(-0.0329967 0.0108531 0)
(-0.0377351 0.0119214 0)
(-0.0428439 0.0130252 0)
(-0.0483176 0.0141531 0)
(-0.0541443 0.0152915 0)
(-0.0603047 0.0164248 0)
(-0.0667726 0.0175356 0)
(-0.0735147 0.018605 0)
(-0.0804907 0.0196133 0)
(-0.0876542 0.0205403 0)
(-0.0949537 0.0213659 0)
(-0.102334 0.0220707 0)
(-0.109736 0.0226367 0)
(-0.1171 0.0230476 0)
(-0.124366 0.0232896 0)
(-0.131476 0.0233513 0)
(-0.138373 0.023224 0)
(-0.145004 0.022902 0)
(-0.15132 0.0223824 0)
(-0.157276 0.0216648 0)
(-0.162832 0.0207514 0)
(-0.167951 0.0196467 0)
(-0.172603 0.0183569 0)
(-0.176761 0.0168902 0)
(-0.180402 0.0152557 0)
(-0.183507 0.0134641 0)
(-0.186059 0.011527 0)
(-0.188046 0.00945672 0)
(-0.189456 0.00726641 0)
(-0.190282 0.00496973 0)
(-0.190516 0.00258126 0)
(-0.190153 0.000117808 0)
(-0.189191 -0.00240146 0)
(-0.187626 -0.00496572 0)
(-0.185463 -0.00755465 0)
(-0.182702 -0.0101491 0)
(-0.179347 -0.0127285 0)
(-0.175406 -0.0152714 0)
(-0.170887 -0.017755 0)
(-0.165803 -0.0201556 0)
(-0.16017 -0.0224482 0)
(-0.154008 -0.0246071 0)
(-0.147341 -0.0266061 0)
(-0.140196 -0.0284189 0)
(-0.132608 -0.0300193 0)
(-0.124616 -0.0313823 0)
(-0.116263 -0.0324843 0)
(-0.107599 -0.0333042 0)
(-0.0986789 -0.0338237 0)
(-0.0895633 -0.0340286 0)
(-0.0803166 -0.0339092 0)
(-0.0710075 -0.0334613 0)
(-0.0617077 -0.0326863 0)
(-0.0524911 -0.031592 0)
(-0.0434323 -0.0301928 0)
(-0.0346054 -0.0285095 0)
(-0.0260829 -0.0265693 0)
(-0.0179337 -0.0244043 0)
(-0.0102224 -0.0220531 0)
(-0.00300649 -0.0195563 0)
(0.00366109 -0.0169592 0)
(0.00973698 -0.0143079 0)
(0.015188 -0.0116486 0)
(0.0199883 -0.0090275 0)
(0.0241227 -0.00648754 0)
(0.0275858 -0.00406843 0)
(0.0303823 -0.00180508 0)
(0.0325275 0.000272522 0)
(0.0340462 0.00214049 0)
(0.0349707 0.00378273 0)
(0.0353418 0.00518976 0)
(0.0352073 0.00635869 0)
(0.0346202 0.00729321 0)
(0.0336372 0.00800304 0)
(0.0323171 0.00850298 0)
(0.0307188 0.00881197 0)
(0.0289 0.00895194 0)
(0.0269154 0.00894666 0)
(0.0248156 0.00882063 0)
(0.0226461 0.00859791 0)
(0.0204467 0.0083011 0)
(0.0182514 0.00795028 0)
(0.0160883 0.00756201 0)
(0.0139808 0.00714828 0)
(0.0119479 0.00671561 0)
(0.0100058 0.00626424 0)
(0.00816917 0.00578765 0)
(0.00645319 0.0052728 0)
(0.00487488 0.00470132 0)
(0.00345495 0.00405207 0)
(0.00221915 0.00330576 0)
(0.00120128 0.00245189 0)
(0.000452063 0.00149914 0)
(3.36986e-05 0.000490847 0)
(1.99105e-05 -0.000481265 0)
(0.000212815 -0.00118585 0)
(0.000519331 -0.00167035 0)
(0.000889791 -0.00197076 0)
(0.00128422 -0.00212094 0)
(0.00167491 -0.0021516 0)
(0.00204115 -0.00208938 0)
(0.00236685 -0.00195635 0)
(0.00263937 -0.00177003 0)
(0.00284839 -0.00154366 0)
(0.00298514 -0.00128676 0)
(0.00304163 -0.00100565 0)
(0.00301024 -0.000704134 0)
(0.00288321 -0.000383945 0)
(0.00265243 -4.52653e-05 0)
(0.00230913 0.000312955 0)
(0.00184374 0.000692733 0)
(0.00124571 0.00109687 0)
(0.000503338 0.00152882 0)
(-0.000396272 0.00199266 0)
(-0.00146739 0.00249297 0)
(-0.00272573 0.00303479 0)
(-0.00418842 0.00362355 0)
(-0.00587403 0.00426494 0)
(-0.00780245 0.0049647 0)
(-0.00999469 0.00572848 0)
(-0.0124726 0.00656149 0)
(-0.0152584 0.00746826 0)
(-0.0183741 0.00845226 0)
(-0.021841 0.00951555 0)
(-0.0256786 0.0106585 0)
(-0.029904 0.0118791 0)
(-0.0345305 0.0131734 0)
(-0.039567 0.0145342 0)
(-0.045017 0.0159517 0)
(-0.0508772 0.0174132 0)
(-0.0571373 0.0189027 0)
(-0.0637789 0.0204016 0)
(-0.0707756 0.0218884 0)
(-0.0780928 0.0233399 0)
(-0.0856882 0.0247309 0)
(-0.0935123 0.0260356 0)
(-0.10151 0.0272279 0)
(-0.109621 0.0282824 0)
(-0.117784 0.0291755 0)
(-0.125933 0.0298855 0)
(-0.134005 0.0303938 0)
(-0.141939 0.030685 0)
(-0.149675 0.0307474 0)
(-0.157158 0.0305729 0)
(-0.16434 0.0301571 0)
(-0.171174 0.0294991 0)
(-0.177623 0.0286009 0)
(-0.183651 0.0274674 0)
(-0.18923 0.0261057 0)
(-0.194336 0.024525 0)
(-0.198948 0.0227358 0)
(-0.203048 0.02075 0)
(-0.206623 0.0185803 0)
(-0.209661 0.0162399 0)
(-0.212152 0.0137429 0)
(-0.214088 0.0111037 0)
(-0.215461 0.00833701 0)
(-0.216265 0.00545795 0)
(-0.216495 0.00248267 0)
(-0.216142 -0.000570963 0)
(-0.215208 -0.00368472 0)
(-0.213688 -0.00684396 0)
(-0.21158 -0.0100277 0)
(-0.208882 -0.0132154 0)
(-0.205593 -0.0163847 0)
(-0.201716 -0.019512 0)
(-0.197253 -0.0225719 0)
(-0.192212 -0.0255376 0)
(-0.186602 -0.0283808 0)
(-0.180435 -0.0310718 0)
(-0.173729 -0.0335801 0)
(-0.166503 -0.0358743 0)
(-0.158786 -0.0379233 0)
(-0.15061 -0.0396963 0)
(-0.142011 -0.0411641 0)
(-0.133035 -0.0422996 0)
(-0.123731 -0.0430791 0)
(-0.114157 -0.0434827 0)
(-0.104375 -0.043496 0)
(-0.0944524 -0.0431105 0)
(-0.0844617 -0.0423246 0)
(-0.0744787 -0.0411438 0)
(-0.0645815 -0.0395819 0)
(-0.0548488 -0.0376603 0)
(-0.045359 -0.035408 0)
(-0.0361877 -0.0328612 0)
(-0.0274069 -0.0300627 0)
(-0.0190829 -0.0270602 0)
(-0.0112762 -0.0239064 0)
(-0.0040385 -0.0206542 0)
(0.00258641 -0.0173599 0)
(0.00856398 -0.0140785 0)
(0.0138701 -0.0108629 0)
(0.0184895 -0.00776281 0)
(0.022417 -0.00482306 0)
(0.0256571 -0.0020827 0)
(0.0282246 0.000425129 0)
(0.0301429 0.00267473 0)
(0.0314435 0.00464901 0)
(0.0321654 0.00633849 0)
(0.032355 0.00774139 0)
(0.032064 0.00886341 0)
(0.0313479 0.00971703 0)
(0.0302648 0.0103206 0)
(0.0288736 0.010697 0)
(0.0272323 0.0108728 0)
(0.0253965 0.0108762 0)
(0.0234183 0.0107363 0)
(0.0213449 0.010481 0)
(0.0192186 0.0101361 0)
(0.0170759 0.00972368 0)
(0.0149484 0.0092606 0)
(0.012863 0.00875724 0)
(0.0108429 0.00821642 0)
(0.00890942 0.00763264 0)
(0.00708309 0.00699212 0)
(0.00538597 0.00627384 0)
(0.00384353 0.00545199 0)
(0.00248687 0.00450015 0)
(0.00135684 0.00339757 0)
(0.000515456 0.00213784 0)
(3.94481e-05 0.000741202 0)
(1.96282e-05 -0.000591014 0)
(0.000204926 -0.00143634 0)
(0.00049437 -0.00200243 0)
(0.000837242 -0.00234065 0)
(0.00119293 -0.00249606 0)
(0.00153354 -0.00250751 0)
(0.00183839 -0.0024075 0)
(0.00209148 -0.00222227 0)
(0.00228006 -0.00197211 0)
(0.00239339 -0.00167205 0)
(0.00242183 -0.00133257 0)
(0.00235615 -0.000960414 0)
(0.00218706 -0.000559283 0)
(0.00190478 -0.000130514 0)
(0.00149881 0.000326364 0)
(0.000957727 0.00081327 0)
(0.000269015 0.00133325 0)
(-0.000581076 0.00189027 0)
(-0.00160764 0.0024891 0)
(-0.00282721 0.00313521 0)
(-0.00425784 0.00383462 0)
(-0.00591911 0.00459392 0)
(-0.00783208 0.00541998 0)
(-0.0100192 0.00631985 0)
(-0.012504 0.00730043 0)
(-0.0153107 0.00836817 0)
(-0.018464 0.00952864 0)
(-0.0219878 0.0107861 0)
(-0.0259049 0.012143 0)
(-0.0302359 0.0135995 0)
(-0.0349982 0.0151531 0)
(-0.0402043 0.0167979 0)
(-0.0458615 0.0185247 0)
(-0.0519702 0.0203203 0)
(-0.0585228 0.0221678 0)
(-0.0655036 0.0240463 0)
(-0.0728874 0.0259315 0)
(-0.0806403 0.0277959 0)
(-0.0887192 0.0296095 0)
(-0.0970733 0.0313409 0)
(-0.105645 0.0329578 0)
(-0.114371 0.0344286 0)
(-0.123185 0.035723 0)
(-0.132018 0.0368135 0)
(-0.140805 0.0376757 0)
(-0.149479 0.0382894 0)
(-0.157978 0.0386387 0)
(-0.166247 0.0387125 0)
(-0.174234 0.038504 0)
(-0.181894 0.038011 0)
(-0.189189 0.0372347 0)
(-0.196085 0.0361801 0)
(-0.202555 0.0348547 0)
(-0.208577 0.0332684 0)
(-0.214131 0.0314329 0)
(-0.219204 0.0293609 0)
(-0.223781 0.0270662 0)
(-0.227854 0.0245631 0)
(-0.231413 0.0218663 0)
(-0.234452 0.0189905 0)
(-0.236963 0.0159509 0)
(-0.23894 0.0127625 0)
(-0.240378 0.00944063 0)
(-0.241269 0.00600103 0)
(-0.241608 0.00246034 0)
(-0.241386 -0.00116424 0)
(-0.240602 -0.00485682 0)
(-0.23925 -0.00859758 0)
(-0.237322 -0.0123664 0)
(-0.234814 -0.016142 0)
(-0.23172 -0.0199007 0)
(-0.228038 -0.0236174 0)
(-0.223765 -0.0272647 0)
(-0.218902 -0.0308133 0)
(-0.21345 -0.0342317 0)
(-0.207416 -0.0374866 0)
(-0.200808 -0.0405433 0)
(-0.19364 -0.0433656 0)
(-0.185931 -0.0459169 0)
(-0.177704 -0.0481606 0)
(-0.16899 -0.0500611 0)
(-0.159827 -0.0515847 0)
(-0.150259 -0.0527009 0)
(-0.140337 -0.0533833 0)
(-0.130121 -0.0536112 0)
(-0.119676 -0.0533704 0)
(-0.109075 -0.0526544 0)
(-0.0983951 -0.0514654 0)
(-0.0877181 -0.0498146 0)
(-0.0771283 -0.0477227 0)
(-0.0667105 -0.0452199 0)
(-0.0565485 -0.0423451 0)
(-0.0467234 -0.0391453 0)
(-0.037311 -0.0356741 0)
(-0.0283812 -0.0319909 0)
(-0.0199955 -0.0281577 0)
(-0.0122069 -0.0242395 0)
(-0.00505851 -0.0203002 0)
(0.00141649 -0.0164027 0)
(0.00719497 -0.0126065 0)
(0.0122639 -0.00896626 0)
(0.0166199 -0.00553056 0)
(0.0202689 -0.0023411 0)
(0.0232266 0.000567542 0)
(0.0255166 0.00316936 0)
(0.0271703 0.00544754 0)
(0.0282263 0.0073938 0)
(0.0287301 0.00900836 0)
(0.0287321 0.0102996 0)
(0.028287 0.0112831 0)
(0.0274519 0.011981 0)
(0.0262851 0.0124203 0)
(0.0248443 0.0126312 0)
(0.0231854 0.0126463 0)
(0.0213612 0.0124978 0)
(0.01942 0.0122166 0)
(0.0174059 0.0118297 0)
(0.0153578 0.0113591 0)
(0.0133101 0.0108192 0)
(0.0112934 0.0102161 0)
(0.00933573 0.009546 0)
(0.00746386 0.00879494 0)
(0.00570564 0.00793964 0)
(0.00409211 0.00694944 0)
(0.00266024 0.00578993 0)
(0.00145781 0.00442819 0)
(0.000556201 0.00283988 0)
(4.29456e-05 0.00101865 0)
(1.89375e-05 -0.00069508 0)
(0.000190391 -0.00166956 0)
(0.000451417 -0.00230521 0)
(0.000751611 -0.00266885 0)
(0.00105086 -0.00281706 0)
(0.00132174 -0.0027971 0)
(0.00154409 -0.00264737 0)
(0.00170224 -0.00239806 0)
(0.00178341 -0.00207195 0)
(0.00177639 -0.00168542 0)
(0.0016706 -0.0012495 0)
(0.00145537 -0.000770848 0)
(0.00111948 -0.000252677 0)
(0.000650847 0.0003044 0)
(3.62691e-05 0.000901902 0)
(-0.00073866 0.0015429 0)
(-0.00168974 0.00223173 0)
(-0.00283422 0.00297377 0)
(-0.00419092 0.00377528 0)
(-0.00578023 0.00464327 0)
(-0.00762414 0.00558537 0)
(-0.00974618 0.00660966 0)
(-0.0121712 0.00772442 0)
(-0.0149253 0.00893781 0)
(-0.0180349 0.0102574 0)
(-0.0215268 0.0116899 0)
(-0.0254268 0.0132403 0)
(-0.0297591 0.0149113 0)
(-0.034545 0.016703 0)
(-0.0398015 0.0186117 0)
(-0.0455406 0.0206301 0)
(-0.0517671 0.0227461 0)
(-0.058478 0.0249432 0)
(-0.0656614 0.0271996 0)
(-0.0732955 0.0294893 0)
(-0.0813486 0.0317818 0)
(-0.0897788 0.0340431 0)
(-0.0985354 0.0362364 0)
(-0.10756 0.0383238 0)
(-0.116786 0.0402668 0)
(-0.126145 0.0420285 0)
(-0.135566 0.0435743 0)
(-0.144977 0.0448733 0)
(-0.154309 0.0458993 0)
(-0.163498 0.0466313 0)
(-0.172483 0.0470536 0)
(-0.181211 0.0471563 0)
(-0.189637 0.0469345 0)
(-0.19772 0.0463883 0)
(-0.205428 0.0455216 0)
(-0.212734 0.0443421 0)
(-0.219615 0.0428598 0)
(-0.226054 0.0410871 0)
(-0.232038 0.0390377 0)
(-0.237554 0.0367265 0)
(-0.242596 0.0341686 0)
(-0.247155 0.0313795 0)
(-0.251225 0.0283749 0)
(-0.254801 0.0251703 0)
(-0.257878 0.0217808 0)
(-0.26045 0.0182217 0)
(-0.262514 0.0145082 0)
(-0.264063 0.0106552 0)
(-0.265091 0.00667838 0)
(-0.265591 0.0025939 0)
(-0.265556 -0.00158178 0)
(-0.264981 -0.00583222 0)
(-0.263858 -0.0101379 0)
(-0.26218 -0.0144787 0)
(-0.259936 -0.0188327 0)
(-0.257121 -0.0231761 0)
(-0.253724 -0.0274826 0)
(-0.249739 -0.0317235 0)
(-0.245161 -0.0358676 0)
(-0.239984 -0.0398811 0)
(-0.234206 -0.0437275 0)
(-0.227828 -0.0473683 0)
(-0.220854 -0.0507629 0)
(-0.213295 -0.0538693 0)
(-0.205163 -0.056645 0)
(-0.19648 -0.0590475 0)
(-0.187274 -0.061036 0)
(-0.177581 -0.0625722 0)
(-0.167445 -0.0636218 0)
(-0.156919 -0.0641561 0)
(-0.146066 -0.0641535 0)
(-0.134955 -0.0636006 0)
(-0.123664 -0.0624939 0)
(-0.112277 -0.0608403 0)
(-0.100885 -0.058658 0)
(-0.0895797 -0.0559764 0)
(-0.0784542 -0.0528359 0)
(-0.0676006 -0.0492869 0)
(-0.0571068 -0.0453886 0)
(-0.0470547 -0.0412072 0)
(-0.0375183 -0.0368139 0)