/*--------------------------------*- C++ -*----------------------------------*\
| =========                 |                                                 |
| \\      /  F ield         | OpenFOAM: The Open Source CFD Toolbox           |
|  \\    /   O peration     | Version:  2406                                  |
|   \\  /    A nd           | Website:  www.openfoam.com                      |
|    \\/     M anipulation  |                                                 |
\*---------------------------------------------------------------------------*/
FoamFile
{
    version     2.0;
    format      ascii;
    arch        "LSB;label=32;scalar=64";
    class       surfaceScalarField;
    location    "65.5";
    object      phi;
}
// * * * * * * * * * * * * * * * * * * * * * * * * * * * * * * * * * * * * * //

dimensions      [0 3 -1 0 0 0 0];

oriented        oriented;

internalField   nonuniform List<scalar> 
8064
(
2.55306e-07
-2.55556e-07
1.23281e-06
-9.77501e-07
2.688e-06
-1.4552e-06
4.25354e-06
-1.56554e-06
5.62937e-06
-1.37584e-06
6.65385e-06
-1.02447e-06
7.30004e-06
-6.46195e-07
7.6353e-06
-3.35255e-07
7.7672e-06
-1.31906e-07
7.79205e-06
-2.48468e-08
7.7596e-06
3.24443e-08
7.66544e-06
9.41615e-08
7.4523e-06
2.13144e-07
7.03056e-06
4.21735e-07
6.29294e-06
7.37625e-07
5.1264e-06
1.16654e-06
3.41347e-06
1.71294e-06
1.03371e-06
2.37975e-06
-2.13236e-06
3.16607e-06
-6.19524e-06
4.06288e-06
-1.12471e-05
5.05182e-06
-1.73453e-05
6.09828e-06
-2.44957e-05
7.15034e-06
-3.26357e-05
8.14005e-06
-4.16246e-05
8.98889e-06
-5.12389e-05
9.61431e-06
-6.11747e-05
9.93583e-06
-7.10567e-05
9.88198e-06
-8.04553e-05
9.39858e-06
-8.89122e-05
8.45686e-06
-9.59713e-05
7.05913e-06
-0.000101209
5.23729e-06
-0.000104254
3.04535e-06
-0.000104849
5.94639e-07
-0.000102611
-2.23802e-06
-9.74402e-05
-5.17038e-06
-8.93619e-05
-8.07826e-06
-7.85155e-05
-1.08465e-05
-6.519e-05
-1.33255e-05
-4.98381e-05
-1.53519e-05
-3.30789e-05
-1.67592e-05
-1.56861e-05
-1.73928e-05
1.44656e-06
-1.71327e-05
1.74859e-05
-1.60393e-05
3.14274e-05
-1.39415e-05
4.25249e-05
-1.10975e-05
5.02002e-05
-7.67536e-06
5.42487e-05
-4.04846e-06
5.48133e-05
-5.64558e-07
5.23306e-05
2.48265e-06
4.75593e-05
4.77134e-06
4.13427e-05
6.21653e-06
3.4522e-05
6.82068e-06
2.77977e-05
6.72437e-06
2.16506e-05
6.14702e-06
1.63371e-05
5.31357e-06
1.19304e-05
4.40665e-06
8.38128e-06
3.54914e-06
5.57548e-06
2.80581e-06
3.38499e-06
2.19048e-06
1.71715e-06
1.66784e-06
5.62166e-07
1.15499e-06
-1.25856e-09
5.63427e-07
-1.25627e-09
9.15993e-07
-1.17155e-06
3.27218e-06
-3.33369e-06
6.44522e-06
-4.62824e-06
9.73748e-06
-4.85779e-06
1.25881e-05
-4.22642e-06
1.46713e-05
-3.10776e-06
1.58965e-05
-1.87132e-06
1.63401e-05
-7.78938e-07
1.61506e-05
5.76296e-08
1.5456e-05
6.69741e-07
1.42974e-05
1.1911e-06
1.2598e-05
1.79351e-06
1.01769e-05
2.63424e-06
6.78162e-06
3.81703e-06
2.11874e-06
5.40051e-06
-4.1162e-06
7.40147e-06
-1.22167e-05
9.81342e-06
-2.2446e-05
1.26091e-05
-3.50044e-05
1.57245e-05
-4.99823e-05
1.90408e-05
-6.73053e-05
2.23748e-05
-8.66934e-05
2.54864e-05
-0.000107652
2.81093e-05
-0.000129505
2.99931e-05
-0.000151456
3.09398e-05
-0.000172667
3.08249e-05
-0.00019233
2.95994e-05
-0.000209727
2.72787e-05
-0.000224253
2.39243e-05
-0.000235424
1.96285e-05
-0.000242874
1.4509e-05
-0.000246353
8.71626e-06
-0.000245777
2.46957e-06
-0.00024084
-4.34242e-06
-0.000231617
-1.14619e-05
-0.000218196
-1.85911e-05
-0.000200735
-2.55392e-05
-0.000179517
-3.20643e-05
-0.000154959
-3.78832e-05
-0.000127628
-4.26835e-05
-9.82481e-05
-4.61388e-05
-6.77053e-05
-4.79356e-05
-3.70195e-05
-4.78185e-05
-7.40395e-06
-4.56549e-05
2.01134e-05
-4.14588e-05
4.43204e-05
-3.53044e-05
6.40827e-05
-2.74377e-05
7.87398e-05
-1.87056e-05
8.78891e-05
-9.71385e-06
9.16675e-05
-1.29579e-06
9.03198e-05
6.11903e-06
8.47184e-05
1.1818e-05
7.59911e-05
1.5548e-05
6.53973e-05
1.73182e-05
5.41363e-05
1.7408e-05
4.31829e-05
1.6267e-05
3.31974e-05
1.43921e-05
2.45161e-05
1.22304e-05
1.72241e-05
1.00978e-05
1.12566e-05
8.15803e-06
6.51438e-06
6.41004e-06
2.97379e-06
4.69558e-06
7.46761e-07
2.79046e-06
7.45505e-07
1.4205e-06
-2.59205e-06
4.69317e-06
-6.60636e-06
8.82944e-06
-8.76451e-06
1.29206e-05
-8.94897e-06
1.62838e-05
-7.58955e-06
1.85294e-05
-5.3534e-06
1.95335e-05
-2.87542e-06
1.93454e-05
-5.90821e-07
1.8071e-05
1.33203e-06
1.57674e-05
2.97328e-06
1.23656e-05
4.59298e-06
7.64837e-06
6.51069e-06
1.26839e-06
9.01423e-06
-7.2038e-06
1.22892e-05
-1.82127e-05
1.64094e-05
-3.21749e-05
2.13636e-05
-4.94118e-05
2.70503e-05
-7.00632e-05
3.32605e-05
-9.39911e-05
3.96523e-05
-0.000120713
4.57629e-05
-0.000149415
5.10768e-05
-0.000179053
5.5124e-05
-0.000208506
5.75625e-05
-0.000236726
5.82129e-05
-0.00026283
5.70445e-05
-0.000286139
5.41337e-05
-0.00030616
4.96201e-05
-0.000322554
4.36729e-05
-0.000335098
3.64685e-05
-0.00034365
2.818e-05
-0.000348123
1.89822e-05
-0.000348488
9.08075e-06
-0.000344755
-1.26307e-06
-0.000336827
-1.22708e-05
-0.00032487
-2.34186e-05
-0.000308919
-3.45424e-05
-0.000289067
-4.53908e-05
-0.000265491
-5.56401e-05
-0.000238459
-6.4915e-05
-0.00020836
-7.27829e-05
-0.000175724
-7.87748e-05
-0.000141244
-8.24157e-05
-0.00010578
-8.32826e-05
-7.03579e-05
-8.10768e-05
-3.61585e-05
-7.56583e-05
-4.35954e-06
-6.71034e-05
2.41431e-05
-5.59403e-05
4.80916e-05
-4.26541e-05
6.67149e-05
-2.83371e-05
7.95588e-05
-1.41397e-05
8.68725e-05
-1.19465e-06
8.86203e-05
1.00701e-05
8.55567e-05
1.86117e-05
7.86697e-05
2.42051e-05
6.9138e-05
2.69397e-05
5.81844e-05
2.72207e-05
4.69043e-05
2.56722e-05
3.61387e-05
2.29961e-05
2.64154e-05
1.98211e-05
1.79913e-05
1.65821e-05
1.09636e-05
1.34378e-05
5.4205e-06
1.02387e-05
1.59194e-06
6.61902e-06
2.33744e-06
1.75679e-06
-4.34883e-06
5.58018e-06
-1.04298e-05
1.01413e-05
-1.33256e-05
1.43412e-05
-1.31488e-05
1.74301e-05
-1.06784e-05
1.90144e-05
-6.93773e-06
1.89704e-05
-2.83145e-06
1.73083e-05
1.07127e-06
1.40427e-05
4.5977e-06
9.08381e-06
7.93214e-06
2.17149e-06
1.15053e-05
-7.12279e-06
1.5805e-05
-1.93215e-05
2.1213e-05
-3.49668e-05
2.79345e-05
-5.45162e-05
3.59588e-05
-7.8211e-05
4.50584e-05
-0.000105938
5.47775e-05
-0.000137127
6.44489e-05
-0.000170761
7.32864e-05
-0.000205542
8.05441e-05
-0.000240129
8.56643e-05
-0.000273349
8.83434e-05
-0.000304298
8.85115e-05
-0.000332353
8.62679e-05
-0.000357122
8.18137e-05
-0.000378387
7.53985e-05
-0.000396047
6.72799e-05
-0.000410072
5.76985e-05
-0.00042047
4.68665e-05
-0.000427257
3.49668e-05
-0.000430444
2.2169e-05
-0.000430018
8.65524e-06
-0.000425882
-5.3995e-06
-0.000418223
-1.99294e-05
-0.000406927
-3.47145e-05
-0.000391942
-4.9528e-05
-0.000373239
-6.40933e-05
-0.000350829
-7.80501e-05
-0.000324787
-9.09568e-05
-0.000295286
-0.000102285
-0.000262628
-0.000111433
-0.000227286
-0.000117758
-0.00018993
-0.000120638
-0.000151448
-0.000119559
-0.000112912
-0.000114194
-7.5495e-05
-0.00010452
-4.05278e-05
-9.09075e-05
-9.10653e-06
-7.40754e-05
1.78125e-05
-5.52561e-05
3.93944e-05
-3.57216e-05
5.51554e-05
-1.69556e-05
6.54742e-05
-2.48728e-07
7.03131e-05
1.37728e-05
7.03259e-05
2.41923e-05
6.63272e-05
3.09384e-05
5.93323e-05
3.42156e-05
5.04444e-05
3.45601e-05
4.07071e-05
3.27333e-05
3.09773e-05
2.9551e-05
2.1868e-05
2.56913e-05
1.37894e-05
2.15165e-05
7.07405e-06
1.6954e-05
2.18126e-06
1.15118e-05
4.51871e-06
1.98756e-06
-6.33639e-06
6.06535e-06
-1.45076e-05
1.05765e-05
-1.78368e-05
1.42621e-05
-1.68344e-05
1.63532e-05
-1.27695e-05
1.64921e-05
-7.0767e-06
1.45733e-05
-9.12549e-07
1.05372e-05
5.10733e-06
4.27439e-06
1.08605e-05
-4.53657e-06
1.67431e-05
-1.63913e-05
2.33601e-05
-3.18958e-05
3.13094e-05
-5.16476e-05
4.09648e-05
-7.60566e-05
5.23435e-05
-0.000105163
6.50648e-05
-0.000138481
7.83764e-05
-0.000174967
9.12635e-05
-0.000213175
0.000102657
-0.000251559
0.000111671
-0.000288763
0.000117747
-0.00032377
0.000120672
-0.000355921
0.000120494
-0.000384847
0.000117438
-0.000410391
0.000111811
-0.00043252
0.000103943
-0.00045128
9.41592e-05
-0.000466751
8.27502e-05
-0.000479017
6.99646e-05
-0.000488157
5.60068e-05
-0.000494233
4.10423e-05
-0.000497268
2.52044e-05
-0.000497189
8.57613e-06
-0.000494013
-8.57553e-06
-0.000487819
-2.61235e-05
-0.000478461
-4.40728e-05
-0.000465798
-6.21906e-05
-0.000449695
-8.01958e-05
-0.000430016
-9.77297e-05
-0.000406648
-0.000114325
-0.000379535
-0.000129398
-0.000348716
-0.000142251
-0.000314384
-0.00015209
-0.000276943
-0.000158079
-0.000237055
-0.000159447
-0.000195661
-0.000155589
-0.000153963
-0.000146218
-0.000113374
-0.000131496
-7.5318e-05
-0.000112132
-4.11761e-05
-8.9398e-05
-1.19508e-05
-6.49469e-05
1.1714e-05
-4.06204e-05
2.9541e-05
-1.80758e-05
4.18521e-05
1.4617e-06
4.8917e-05
1.71274e-05
5.13007e-05
2.85547e-05
4.97322e-05
3.57841e-05
4.50992e-05
3.91931e-05
3.83725e-05
3.946e-05
3.04979e-05
3.74256e-05
2.23003e-05
3.38889e-05
1.44584e-05
2.93583e-05
7.57862e-06
2.38338e-05
2.37717e-06
1.67132e-05
6.89588e-06
2.13399e-06
-8.47038e-06
6.16763e-06
-1.85412e-05
1.01355e-05
-2.18047e-05
1.26797e-05
-1.93786e-05
1.3068e-05
-1.31578e-05
1.10105e-05
-5.01925e-06
6.38486e-06
3.71311e-06
-9.32549e-07
1.24247e-05
-1.12914e-05
2.12193e-05
-2.5222e-05
3.06737e-05
-4.34016e-05
4.15397e-05
-6.6452e-05
5.43598e-05
-9.46949e-05
6.92078e-05
-0.000127926
8.55743e-05
-0.000165289
0.000102428
-0.000205351
0.000118439
-0.0002464
0.000132312
-0.000286811
0.000143069
-0.000325317
0.000150176
-0.000361078
0.000153509
-0.00039363
0.000153223
-0.000422774
0.000149638
-0.000448488
0.000143153
-0.000470854
0.000134176
-0.000490005
0.000123094
-0.000506095
0.00011025
-0.000519281
9.59364e-05
-0.00052971
8.03937e-05
-0.000537516
6.38119e-05
-0.000542806
4.63332e-05
-0.000545645
2.80429e-05
-0.000545989
8.92067e-06
-0.000543938
-1.06267e-05
-0.00053951
-3.05518e-05
-0.000532563
-5.10197e-05
-0.000522932
-7.18214e-05
-0.000510406
-9.2722e-05
-0.000494729
-0.000113406
-0.000475614
-0.00013344
-0.000452766
-0.000152246
-0.000425928
-0.000169089
-0.000394935
-0.000183083
-0.000359793
-0.000193222
-0.000320769
-0.000198471
-0.000278501
-0.000197856
-0.000234031
-0.000190689
-0.000188803
-0.000176724
-0.000144561
-0.000156373
-0.000103163
-0.000130796
-6.62519e-05
-0.000101858
-3.4996e-05
-7.18763e-05
-9.91335e-06
-4.31585e-05
9.07161e-06
-1.75233e-05
2.23563e-05
3.84271e-06
3.05402e-05
2.03709e-05
3.42443e-05
3.20801e-05
3.41829e-05
3.92544e-05
3.11673e-05
4.24756e-05
2.60784e-05
4.25145e-05
1.97976e-05
4.01697e-05
1.31622e-05
3.59937e-05
6.98978e-06
3.00062e-05
2.19213e-06
2.15109e-05
9.08801e-06
2.16617e-06
-1.06365e-05
5.78974e-06
-2.21648e-05
8.66066e-06
-2.46756e-05
9.41293e-06
-2.01309e-05
7.40612e-06
-1.1151e-05
2.43048e-06
-4.36062e-08
-5.69195e-06
1.18355e-05
-1.72278e-05
2.39606e-05
-3.27155e-05
3.6707e-05
-5.28605e-05
5.08187e-05
-7.82886e-05
6.69678e-05
-0.000109242
8.53134e-05
-0.000145312
0.000105278
-0.000185352
0.000125614
-0.000227655
0.00014473
-0.000270344
0.000161128
-0.000311774
0.000173742
-0.000350757
0.000182052
-0.000386571
0.000185991
-0.000418864
0.000185802
-0.000447536
0.000181895
-0.000472646
0.000174749
-0.000494346
0.000164852
-0.000512837
0.000152668
-0.000528351
0.000138608
-0.000541127
0.000123025
-0.000551399
0.000106209
-0.000559392
8.83864e-05
-0.000565307
6.97269e-05
-0.000569316
5.03422e-05
-0.000571547
3.02739e-05
-0.000572073
9.44705e-06
-0.000570977
-1.17231e-05
-0.000568263
-3.32661e-05
-0.000563848
-5.54347e-05
-0.000557582
-7.80869e-05
-0.000549234
-0.00010107
-0.000538484
-0.000124156
-0.000524924
-0.000147
-0.000508067
-0.000169103
-0.000487374
-0.000189782
-0.000462311
-0.000208146
-0.000432423
-0.00022311
-0.00039746
-0.000233434
-0.000357492
-0.000237824
-0.000313076
-0.000235105
-0.000265381
-0.000224419
-0.00021619
-0.000205564
-0.000167778
-0.000179209
-0.00012259
-0.000147046
-8.27815e-05
-0.000111685
-4.97339e-05
-7.62061e-05
-2.38034e-05
-4.34537e-05
-4.5613e-06
-1.53994e-05
8.75756e-06
7.05199e-06
1.70377e-05
2.37999e-05
2.10787e-05
3.52135e-05
2.16178e-05
4.19365e-05
1.94654e-05
4.46669e-05
1.54829e-05
4.41522e-05
1.05685e-05
4.09081e-05
5.65632e-06
3.49184e-05
1.75023e-06
2.5417e-05
1.08382e-05
2.01985e-06
-1.26564e-05
4.76983e-06
-2.49148e-05
5.92986e-06
-2.58356e-05
4.23537e-06
-1.84364e-05
-8.07473e-07
-6.10815e-06
-9.39293e-06
8.54185e-06
-2.17191e-05
2.41617e-05
-3.82641e-05
4.05056e-05
-5.96829e-05
5.81258e-05
-8.65894e-05
7.77252e-05
-0.000119183
9.95614e-05
-0.000156936
0.000123067
-0.000198522
0.000146863
-0.000242052
0.000169145
-0.000285535
0.000188213
-0.000327295
0.000202888
-0.000366168
0.000212615
-0.000401481
0.000217365
-0.000432938
0.000217448
-0.000460491
0.000213354
-0.000484249
0.000205653
-0.000504426
0.000194925
-0.000521298
0.000181725
-0.000535181
0.000166551
-0.000546405
0.000149831
-0.000555296
0.000131917
-0.000562167
0.00011308
-0.000567304
9.35234e-05
-0.000570959
7.3382e-05
-0.000573347
5.27298e-05
-0.000574648
3.15752e-05
-0.000575027
9.82588e-06
-0.000574543
-1.2207e-05
-0.000573198
-3.46106e-05
-0.000570986
-5.76468e-05
-0.000567817
-8.12558e-05
-0.000563507
-0.00010538
-0.000557761
-0.000129903
-0.000550153
-0.000154608
-0.000540121
-0.000179136
-0.000526961
-0.000202941
-0.000509859
-0.000225248
-0.000487945
-0.000245023
-0.000460407
-0.000260972
-0.000426639
-0.000271592
-0.000386452
-0.000275291
-0.00034027
-0.000270602
-0.000289373
-0.000256461
-0.000235964
-0.000232617
-0.000183007
-0.000200003
-0.000133769
-0.000160924
-9.10855e-05
-0.000118889
-5.66123e-05
-7.79269e-05
-3.05116e-05
-4.15001e-05
-1.18552e-05
-1.16044e-05
6.78879e-07
1.12658e-05
8.23727e-06
2.76551e-05
1.18388e-05
3.8335e-05
1.23318e-05
4.41739e-05
1.05762e-05
4.59078e-05
7.48734e-06
4.3997e-05
4.03477e-06
3.8371e-05
1.21675e-06
2.8235e-05
1.2055e-05
1.61585e-06
-1.42722e-05
2.94041e-06
-2.62393e-05
1.73658e-06
-2.46318e-05
-2.99293e-06
-1.37069e-05
-1.16279e-05
2.52682e-06
-2.4359e-05
2.12729e-05
-4.14827e-05
4.12854e-05
-6.35548e-05
6.25777e-05
-9.11434e-05
8.57143e-05
-0.00012444
0.000111021
-0.000162893
0.000138014
-0.000205106
0.00016528
-0.000249092
0.000190849
-0.000292761
0.000212814
-0.000334372
0.000229824
-0.000372727
0.000241243
-0.000407155
0.000247043
-0.00043737
0.000247581
-0.000463352
0.00024343
-0.000485257
0.00023526
-0.000503368
0.000223763
-0.000518045
0.000209602
-0.000529696
0.000193376
-0.000538743
0.000175598
-0.000545598
0.000156686
-0.000550646
0.000136965
-0.000554233
0.000116668
-0.000556663
9.59528e-05
-0.000558189
7.4908e-05
-0.000559024
5.35648e-05
-0.000559355
3.19058e-05
-0.000559384
9.8556e-06
-0.000559147
-1.24448e-05
-0.000558642
-3.51155e-05
-0.000557944
-5.8345e-05
-0.000557043
-8.21566e-05
-0.000555847
-0.000106576
-0.000554163
-0.000131587
-0.000551668
-0.000157103
-0.000547872
-0.000182931
-0.000542095
-0.000208719
-0.00053344
-0.000233903
-0.000520818
-0.000257646
-0.000503002
-0.000278788
-0.000478759
-0.000295835
-0.000447057
-0.000306993
-0.000407343
-0.000310316
-0.000359856
-0.000303947
-0.000305946
-0.000286527
-0.000248288
-0.000257661
-0.000190687
-0.000218525
-0.000137437
-0.000172139
-9.22185e-05
-0.000123146
-5.69653e-05
-7.67532e-05
-3.14726e-05
-3.70971e-05
-1.4179e-05
-6.02777e-06
-3.14105e-06
1.66171e-05
3.15976e-06
3.20342e-05
5.89694e-06
4.14367e-05
6.0678e-06
4.57369e-05
4.62607e-06
4.54387e-05
2.53811e-06
4.04589e-05
7.39905e-07
3.00332e-05
1.27949e-05
8.82705e-07
-1.5155e-05
1.71883e-07
-2.55285e-05
-3.9428e-06
-2.05171e-05
-1.22283e-05
-5.42136e-06
-2.49095e-05
1.5208e-05
-4.21586e-05
3.85221e-05
-6.43526e-05
6.34793e-05
-9.19647e-05
9.01899e-05
-0.000125191
0.00011894
-0.000163534
0.000149365
-0.000205636
0.000180116
-0.000249484
0.000209128
-0.000292908
0.000234274
-0.000334067
0.000253972
-0.000371684
0.000267442
-0.000405044
0.000274603
-0.000433848
0.000275846
-0.000458093
0.000271825
-0.000477986
0.000263323
-0.000493884
0.000251158
-0.00050624
0.00023612
-0.00051556
0.000218921
-0.000522353
0.00020017
-0.000527109
0.000180353
-0.000530268
0.000159845
-0.000532212
0.000138909
-0.000533263
0.000117719
-0.000533682
9.63713e-05
-0.000533676
7.49027e-05
-0.000533416
5.33041e-05
-0.000533047
3.15376e-05
-0.000532745
9.55329e-06
-0.000532521
-1.26682e-05
-0.000532403
-3.52343e-05
-0.000532495
-5.82524e-05
-0.000532849
-8.18033e-05
-0.000533467
-0.000105958
-0.00053429
-0.000130764
-0.00053516
-0.000156233
-0.000535778
-0.000182312
-0.000535652
-0.000208845
-0.000534042
-0.000235514
-0.000529915
-0.000261773
-0.000521943
-0.00028676
-0.000508554
-0.000309224
-0.000488071
-0.000327476
-0.000458969
-0.000339418
-0.000420239
-0.000342677
-0.000371852
-0.000334914
-0.000315189
-0.000314325
-0.000253422
-0.000280292
-0.000191346
-0.000234215
-0.000134483
-0.000180008
-8.74613e-05
-0.000123775
-5.23675e-05
-7.21909e-05
-2.8365e-05
-3.00302e-05
-1.30863e-05
1.33833e-06
-3.97291e-06
2.29208e-05
7.93647e-07
3.66702e-05
2.56799e-06
4.39626e-05
2.4581e-06
4.55486e-05
1.44993e-06
4.14671e-05
4.18746e-07
3.10644e-05
1.32136e-05
-2.27239e-07
-1.49277e-05
-3.50114e-06
-2.22546e-05
-1.10522e-05
-1.2966e-05
-2.32526e-05
6.77903e-06
-4.01966e-05
3.2152e-05
-6.20696e-05
6.0395e-05
-8.91928e-05
9.06025e-05
-0.000121747
0.000122744
-0.000159339
0.000156532
-0.000200736
0.000190763
-0.000243984
0.000223364
-0.000286865
0.000252009
-0.000327419
0.000274828
-0.000364253
0.000290806
-0.000396566
0.000299755
-0.000424026
0.000302063
-0.00044664
0.00029846
-0.000464664
0.000289849
-0.000478531
0.00027719
-0.000488789
0.000261416
-0.000496039
0.000243369
-0.000500876
0.000223758
-0.000503853
0.000203147
-0.000505454
0.000181954
-0.00050608
0.000160471
-0.000506051
0.00013888
-0.000505612
0.00011728
-0.000504946
9.57045e-05
-0.000504186
7.41428e-05
-0.000503437
5.25554e-05
-0.00050279
3.08908e-05
-0.000502342
9.10485e-06
-0.000502113
-1.28968e-05
-0.000502149
-3.51986e-05
-0.000502536
-5.78651e-05
-0.000503355
-8.09847e-05
-0.000504674
-0.000104639
-0.000506537
-0.0001289
-0.00050894
-0.00015383
-0.000511789
-0.000179463
-0.00051485
-0.000205784
-0.000517675
-0.000232689
-0.000519529
-0.000259918
-0.000519314
-0.000286974
-0.000515529
-0.000313009
-0.000506297
-0.000336709
-0.000489506
-0.000356209
-0.000463105
-0.000369078
-0.000425564
-0.000372455
-0.000376493
-0.000363395
-0.000317277
-0.000339509
-0.000251618
-0.000299874
-0.000185469
-0.000246157
-0.000125773
-0.000183471
-7.81019e-05
-0.000119862
-4.43795e-05
-6.37526e-05
-2.27629e-05
-2.02783e-05
-9.95801e-06
1.01159e-05
-2.97107e-06
2.96832e-05
2.57978e-07
4.07335e-05
1.17708e-06
4.46295e-05
8.9501e-07
4.17491e-05
2.94586e-07
3.16648e-05
1.35082e-05
-1.71163e-06
-1.32161e-05
-8.03899e-06
-1.59272e-05
-1.93483e-05
-1.65669e-06
-3.55744e-05
2.30051e-05
-5.67598e-05
5.33374e-05
-8.30197e-05
8.66549e-05
-0.000114469
0.000122052
-0.000150824
0.000159098
-0.000191046
0.000196754
-0.000233326
0.000233043
-0.000275455
0.000265494
-0.000315363
0.000291916
-0.000351502
0.000310967
-0.000382954
0.000322258
-0.000409325
0.000326126
-0.000430615
0.000323354
-0.000447118
0.000314963
-0.000459339
0.000302069
-0.000467914
0.000285765
-0.000473531
0.000267034
-0.000476866
0.000246704
-0.000478528
0.00022542
-0.000479031
0.00020365
-0.000478787
0.00018171
-0.000478103
0.000159787
-0.000477199
0.000137976
-0.000476224
0.000116305
-0.000475273
9.47532e-05
-0.000474407
7.32767e-05
-0.000473668
5.18171e-05
-0.000473094
3.03166e-05
-0.000472725
8.73617e-06
-0.000472576
-1.3046e-05
-0.000472693
-3.50821e-05
-0.000473145
-5.74126e-05
-0.000474014
-8.01157e-05
-0.000475392
-0.000103261
-0.000477376
-0.000126917
-0.00048005
-0.000151156
-0.000483466
-0.000176048
-0.000487598
-0.000201652
-0.000492289
-0.000227998
-0.000497168
-0.000255039
-0.000501549
-0.000282593
-0.000504327
-0.000310231
-0.000503893
-0.000337143
-0.000498129
-0.000361973
-0.000484527
-0.00038268
-0.000460513
-0.000396469
-0.000423999
-0.000399909
-0.000374179
-0.000389328
-0.000312435
-0.000361619
-0.000243097
-0.000315494
-0.000173496
-0.000253073
-0.000112167
-0.00018119
-6.54321e-05
-0.000110488
-3.44461e-05
-5.12643e-05
-1.60279e-05
-8.30237e-06
-5.97685e-06
1.96322e-05
-1.10388e-06
3.58606e-05
6.97407e-07
4.28282e-05
8.43278e-07
4.16033e-05
3.55463e-07
3.21526e-05
1.38637e-05
-3.52912e-06
-9.68697e-06
-1.32416e-05
-6.21477e-06
-2.83364e-05
1.34381e-05
-4.85184e-05
4.31871e-05
-7.36494e-05
7.84684e-05
-0.000103716
0.000116722
-0.000138499
0.000156835
-0.000177184
0.000197783
-0.000218192
0.000237761
-0.000259406
0.000274257
-0.000298678
0.000304766
-0.000334294
0.000327532
-0.000365174
0.000341847
-0.000390828
0.000347912
-0.000411223
0.000346521
-0.000426668
0.000338799
-0.000437721
0.000326017
-0.000445096
0.000309444
-0.000449561
0.000290229
-0.00045186
0.000269334
-0.000452655
0.000247499
-0.000452485
0.000225251
-0.000451767
0.000202932
-0.000450793
0.000180736
-0.000449757
0.000158751
-0.000448773
0.000136992
-0.0004479
0.000115432
-0.000447162
9.40156e-05
-0.000446567
7.26813e-05
-0.000446115
5.13651e-05
-0.000445808
3.001e-05
-0.000445649
8.57713e-06
-0.000445656
-1.30389e-05
-0.000445866
-3.48721e-05
-0.000446328
-5.69507e-05
-0.000447112
-7.93321e-05
-0.000448306
-0.000102066
-0.000450017
-0.000125206
-0.000452363
-0.00014881
-0.000455462
-0.000172949
-0.000459411
-0.000197703
-0.000464248
-0.000223161
-0.00046989
-0.000249398
-0.000476043
-0.000276439
-0.000482091
-0.000304183
-0.000486952
-0.000332282
-0.000488957
-0.000359968
-0.000485797
-0.000385839
-0.000474617
-0.00040765
-0.000452343
-0.000422183
-0.000416335
-0.000425336
-0.000365376
-0.000412578
-0.000300899
-0.000379971
-0.000228074
-0.000325897
-0.000155922
-0.000253343
-9.46836e-05
-0.000171726
-5.08715e-05
-9.50764e-05
-2.40072e-05
-3.51667e-05
-9.31386e-06
4.93887e-06
-2.12482e-06
2.86715e-05
6.95393e-07
4.0008e-05
1.13701e-06
4.11617e-05
5.48689e-07
3.2741e-05
1.44124e-05
-5.55925e-06
-4.12772e-06
-1.8706e-05
6.93194e-06
-3.75147e-05
3.22469e-05
-6.1305e-05
6.69773e-05
-8.98272e-05
0.000106991
-0.000122845
0.000149739
-0.000159738
0.000193729
-0.000199216
0.000237261
-0.000239353
0.000277899
-0.000277998
0.000312902
-0.000313279
0.000340047
-0.000343919
0.000358172
-0.000369284
0.000367212
-0.000389268
0.000367896
-0.000404163
0.000361416
-0.000414556
0.000349191
-0.000421215
0.000332676
-0.000424978
0.000313207
-0.000426655
0.000291907
-0.000426954
0.000269632
-0.000426441
0.000246986
-0.000425536
0.000224346
-0.000424521
0.000201917
-0.000423566
0.00017978
-0.000422755
0.00015794
-0.000422118
0.000136356
-0.000421652
0.000114966
-0.000421337
9.37007e-05
-0.00042115
7.24947e-05
-0.000421073
5.1288e-05
-0.000421093
3.00294e-05
-0.000421196
8.68048e-06
-0.000421402
-1.28326e-05
-0.000421738
-3.45361e-05
-0.000422237
-5.64523e-05
-0.000422951
-7.86181e-05
-0.000423952
-0.000101065
-0.00042533
-0.000123827
-0.000427198
-0.000146942
-0.000429684
-0.000170462
-0.000432931
-0.000194456
-0.000437073
-0.000219019
-0.000442202
-0.000244269
-0.000448305
-0.000270336
-0.000455165
-0.000297323
-0.00046223
-0.000325217
-0.000468447
-0.000353751
-0.000472094
-0.000382192
-0.00047069
-0.000409054
-0.000461052
-0.000431821
-0.000439642
-0.000446747
-0.000403306
-0.000448914
-0.000350495
-0.000432783
-0.000282867
-0.000393525
-0.000206811
-0.000329398
-0.000133471
-0.000245066
-7.46885e-05
-0.000153859
-3.60109e-05
-7.38442e-05
-1.4352e-05
-1.672e-05
-3.65048e-06
1.797e-05
6.85359e-07
3.56722e-05
1.53415e-06
4.03129e-05
7.96426e-07
3.34787e-05
1.52088e-05
-7.63788e-06
3.51016e-06
-2.40799e-05
2.3374e-05
-4.62666e-05
5.44336e-05
-7.31415e-05
9.38522e-05
-0.000104307
0.000138156
-0.00013926
0.000184692
-0.000176997
0.000231466
-0.000215877
0.00027614
-0.000253849
0.000315871
-0.000288936
0.000347989
-0.000319649
0.00037076
-0.000345155
0.000383678
-0.000365221
0.000387279
-0.000380082
0.000382757
-0.000390315
0.000371648
-0.000396719
0.000355595
-0.000400188
0.000336145
-0.000401589
0.000314609
-0.00040168
0.000291997
-0.000401059
0.000269011
-0.000400154
0.000246081
-0.000399243
0.000223434
-0.000398477
0.000201151
-0.00039792
0.000179223
-0.00039758
0.0001576
-0.000397431
0.000136208
-0.000397439
0.000114973
-0.000397564
9.38258e-05
-0.000397775
7.27063e-05
-0.000398051
5.15634e-05
-0.000398376
3.03543e-05
-0.000398739
9.04351e-06
-0.000399156
-1.24152e-05
-0.000399647
-3.40451e-05
-0.000400234
-5.5865e-05
-0.000400955
-7.78978e-05
-0.000401858
-0.000100162
-0.000403009
-0.000122676
-0.000404493
-0.000145459
-0.000406416
-0.000168539
-0.00040891
-0.000191962
-0.000412132
-0.000215797
-0.000416246
-0.000240154
-0.000421396
-0.000265187
-0.000427636
-0.000291083
-0.000434824
-0.000318029
-0.000442465
-0.00034611
-0.000449517
-0.00037514
-0.000454183
-0.000404388
-0.000453778
-0.000432225
-0.000444781
-0.000455744
-0.000423201
-0.000470494
-0.000385441
-0.000470542
-0.000329788
-0.000449179
-0.000258476
-0.00040071
-0.000179744
-0.000323798
-0.000107352
-0.000226251
-5.40363e-05
-0.00012716
-2.24835e-05
-4.82728e-05
-6.5726e-06
2.05907e-06
1.27269e-07
2.89723e-05
1.76792e-06
3.86722e-05
1.01501e-06
3.42316e-05
1.62238e-05
-9.59283e-06
1.3103e-05
-2.90263e-05
4.28075e-05
-5.40572e-05
7.94645e-05
-8.33362e-05
0.000123131
-0.000116285
0.000171105
-0.000152128
0.000220534
-0.000189548
0.000268886
-0.000226718
0.00031331
-0.000261649
0.000350803
-0.000292666
0.000379006
-0.000318692
0.000396786
-0.000339307
0.000404293
-0.000354631
0.000402603
-0.000365189
0.000393314
-0.000371776
0.000378235
-0.000375319
0.000359139
-0.000376741
0.000337567
-0.00037685
0.000314718
-0.000376284
0.000291431
-0.000375494
0.00026822
-0.000374759
0.000245347
-0.000374224
0.000222899
-0.000373939
0.000200865
-0.000373894
0.000179179
-0.000374051
0.000157757
-0.000374363
0.000136519
-0.000374782
0.000115392
-0.000375271
9.43148e-05
-0.000375803
7.32381e-05
-0.00037636
5.21212e-05
-0.000376936
3.09294e-05
-0.000377525
9.63244e-06
-0.00037814
-1.17996e-05
-0.000378798
-3.33875e-05
-0.000379515
-5.51482e-05
-0.000380315
-7.70973e-05
-0.000381231
-9.92465e-05
-0.000382302
-0.000121604
-0.000383583
-0.000144179
-0.000385143
-0.000166979
-0.000387079
-0.000190025
-0.00038952
-0.000213357
-0.000392627
-0.000237047
-0.000396593
-0.000261221
-0.000401606
-0.000286069
-0.000407789
-0.000311846
-0.000415073
-0.000338827
-0.00042301
-0.000367203
-0.000430541
-0.000396857
-0.000435743
-0.000427023
-0.000435666
-0.000455821
-0.000426387
-0.000479772
-0.000403463
-0.000493467
-0.000362959
-0.000489683
-0.000303293
-0.000460376
-0.000227875
-0.000399216
-0.000147727
-0.000306399
-7.95305e-05
-0.000195356
-3.49363e-05
-9.2867e-05
-1.16322e-05
-2.12451e-05
-1.39321e-06
1.87333e-05
1.6246e-06
3.56544e-05
1.13956e-06
3.47166e-05
1.73634e-05
-1.13159e-05
2.44189e-05
-3.32135e-05
6.47051e-05
-6.04425e-05
0.000106693
-9.13635e-05
0.000154052
-0.000125213
0.000204955
-0.000160973
0.000256295
-0.000197123
0.000305036
-0.000231797
0.000347984
-0.000263208
0.000382214
-0.000290032
0.00040583
-0.000311596
0.00041835
-0.000327841
0.000420537
-0.000339183
0.000413945
-0.000346372
0.000400503
-0.000350341
0.000382204
-0.000352052
0.00036085
-0.000352371
0.000337885
-0.000351986
0.000314333
-0.000351381
0.000290827
-0.000350856
0.000267695
-0.000350558
0.000245048
-0.00035053
0.000222871
-0.000350753
0.000201088
-0.000351179
0.000179605
-0.000351753
0.000158331
-0.000352424
0.000137189
-0.00035315
0.000116118
-0.000353903
9.50682e-05
-0.000354667
7.40016e-05
-0.000355432
5.28865e-05
-0.000356198
3.16955e-05
-0.000356969
1.04036e-05
-0.000357757
-1.10119e-05
-0.000358575
-3.25696e-05
-0.000359438
-5.42857e-05
-0.000360361
-7.61734e-05
-0.000361366
-9.82422e-05
-0.000362473
-0.000120498
-0.00036371
-0.000142941
-0.000365117
-0.000165573
-0.000366748
-0.000188395
-0.000368685
-0.000211419
-0.00037105
-0.000234683
-0.000374009
-0.000258262
-0.000377776
-0.000282302
-0.000382587
-0.000307035
-0.000388626
-0.000332787
-0.000395891
-0.000359938
-0.000403965
-0.000388783
-0.000411731
-0.000419257
-0.000417065
-0.000450488
-0.000416652
-0.000480185
-0.000406091
-0.000504027
-0.000380479
-0.000515295
-0.000335717
-0.000505138
-0.000270843
-0.000464091
-0.000191421
-0.000385821
-0.000112429
-0.000274348
-5.28206e-05
-0.000152476
-1.93847e-05
-5.46809e-05
-4.18515e-06
3.5337e-06
9.76545e-07
3.04927e-05
1.13733e-06
3.45558e-05
1.85007e-05
-1.26548e-05
3.70737e-05
-3.63903e-05
8.84406e-05
-6.51087e-05
0.000135412
-9.68966e-05
0.00018584
-0.000130816
0.000238874
-0.000165669
0.000291148
-0.000199837
0.000339204
-0.00023155
0.000379697
-0.000259286
0.000409951
-0.000282086
0.00042863
-0.000299639
0.000435903
-0.000312189
0.000433088
-0.000320386
0.000422142
-0.000325126
0.000405243
-0.000327393
0.000384471
-0.000328105
0.000361563
-0.000328012
0.000337792
-0.000327651
0.000313971
-0.000327353
0.000290529
-0.000327282
0.000267625
-0.000327487
0.000245253
-0.000327945
0.000223329
-0.000328602
0.000201746
-0.000329398
0.000180401
-0.000330278
0.000159211
-0.0003312
0.000138112
-0.000332136
0.000117054
-0.000333069
9.60013e-05
-0.000333992
7.49252e-05
-0.000334906
5.38007e-05
-0.000335816
3.26056e-05
-0.000336731
1.13186e-05
-0.000337663
-1.008e-05
-0.000338625
-3.16078e-05
-0.00033963
-5.32812e-05
-0.000340689
-7.51136e-05
-0.000341816
-9.71152e-05
-0.000343022
-0.000119292
-0.000344318
-0.000141645
-0.000345718
-0.000164172
-0.000347247
-0.000186866
-0.000348942
-0.000209724
-0.000350874
-0.000232751
-0.000353155
-0.000255982
-0.000355957
-0.000279499
-0.00035952
-0.000303472
-0.000364124
-0.000328183
-0.000370016
-0.000354046
-0.000377243
-0.000381556
-0.000385386
-0.000411115
-0.000393201
-0.000442672
-0.000398264
-0.000475123
-0.000396772
-0.000505519
-0.000383755
-0.000528312
-0.00035389
-0.000535003
-0.000303228
-0.000514753
-0.000232206
-0.000456843
-0.00015009
-0.000356464
-7.68438e-05
-0.000225722
-3.03493e-05
-0.000101175
-8.40579e-06
-1.84098e-05
-2.31444e-07
2.23184e-05
1.00841e-06
3.3316e-05
1.95091e-05
-1.35174e-05
5.05911e-05
-3.84022e-05
0.000113325
-6.78905e-05
0.0001649
-9.98104e-05
0.00021776
-0.000133074
0.000272137
-0.000166374
0.000324448
-0.000198096
0.000370927
-0.000226646
0.000408246
-0.000250797
0.000434102
-0.000269932
0.000447765
-0.00028405
0.000450021
-0.000293635
0.000442673
-0.000299495
0.000428002
-0.000302597
0.000408345
-0.000303899
0.000385773
-0.000304219
0.000361882
-0.000304159
0.000337733
-0.000304106
0.000313918