/*--------------------------------*- C++ -*----------------------------------*\
| =========                 |                                                 |
| \\      /  F ield         | OpenFOAM: The Open Source CFD Toolbox           |
|  \\    /   O peration     | Version:  2406                                  |
|   \\  /    A nd           | Website:  www.openfoam.com                      |
|    \\/     M anipulation  |                                                 |
\*---------------------------------------------------------------------------*/
FoamFile
{
    version     2.0;
    format      ascii;
    arch        "LSB;label=32;scalar=64";
    class       surfaceScalarField;
    location    "44.8";
    object      phi;
}
// * * * * * * * * * * * * * * * * * * * * * * * * * * * * * * * * * * * * * //

dimensions      [0 3 -1 0 0 0 0];

oriented        oriented;

internalField   nonuniform List<scalar> 
1740
(
6.77998e-06
-6.77998e-06
1.69611e-05
-1.01812e-05
2.40976e-05
-7.13648e-06
2.65926e-05
-2.49502e-06
2.61076e-05
4.84997e-07
2.35425e-05
2.56517e-06
1.77574e-05
5.78507e-06
5.8156e-06
1.19418e-05
-1.90476e-05
2.48632e-05
-6.25796e-05
4.3532e-05
-0.000124573
6.19929e-05
-0.000198479
7.39067e-05
-0.000270678
7.21985e-05
-0.00032788
5.72024e-05
-0.000360898
3.3018e-05
-0.000364011
3.11325e-06
-0.000334819
-2.91926e-05
-0.000273601
-6.12175e-05
-0.000184786
-8.88151e-05
-7.79067e-05
-0.000106879
3.09761e-05
-0.000108883
0.000122936
-9.19596e-05
0.00017872
-5.57844e-05
0.000188386
-9.66636e-06
0.000157243
3.11433e-05
0.00010773
4.95135e-05
6.11494e-05
4.65802e-05
2.79445e-05
3.32049e-05
8.27022e-06
1.96743e-05
8.27022e-06
1.20919e-05
-1.88719e-05
2.85371e-05
-2.66264e-05
3.63787e-05
-1.49781e-05
3.33073e-05
5.7642e-07
1.98606e-05
1.39317e-05
-6.98897e-06
2.94148e-05
-5.69347e-05
5.57308e-05
-0.000140728
9.57354e-05
-0.000255473
0.000139608
-0.00038328
0.000171339
-0.000502468
0.000181181
-0.00059847
0.000169909
-0.000666794
0.000140522
-0.000706818
9.72272e-05
-0.000718347
4.4547e-05
-0.00070131
-1.39244e-05
-0.000654595
-7.59074e-05
-0.000579225
-0.000136587
-0.000476468
-0.000191572
-0.000350284
-0.000233064
-0.000209424
-0.000249743
-6.96497e-05
-0.000231734
4.94313e-05
-0.000174865
0.000127341
-8.75761e-05
0.000155596
2.88799e-06
0.000141932
6.31782e-05
0.000103022
8.54894e-05
5.77475e-05
7.84799e-05
1.97355e-05
5.76863e-05
2.80057e-05
1.38787e-05
-3.27506e-05
2.60936e-05
-3.88413e-05
2.26005e-05
-1.1485e-05
5.10434e-07
2.26665e-05
-4.54657e-05
5.99078e-05
-0.000127085
0.000111034
-0.000250085
0.000178731
-0.000399421
0.000245071
-0.000547402
0.000287588
-0.000676139
0.000300076
-0.000779573
0.000284615
-0.000856347
0.000246683
-0.000908302
0.000192477
-0.000938091
0.000127016
-0.00094698
5.34358e-05
-0.000934959
-2.59445e-05
-0.000902475
-0.000108392
-0.000846328
-0.000192735
-0.000763976
-0.000273924
-0.000653572
-0.000343468
-0.000516254
-0.000387061
-0.000359612
-0.000388376
-0.000200507
-0.00033397
-6.39556e-05
-0.000224128
2.6514e-05
-8.75816e-05
6.54938e-05
2.41985e-05
6.79133e-05
8.30699e-05
4.71998e-05
9.91934e-05
1.82667e-05
8.66194e-05
4.62724e-05
1.09446e-05
-4.36952e-05
9.34731e-06
-3.7244e-05
-1.72085e-05
1.50708e-05
-7.42422e-05
7.97002e-05
-0.000172078
0.000157743
-0.000312533
0.000251489
-0.000474595
0.000340793
-0.000628845
0.000399321
-0.000758987
0.000417731
-0.000860067
0.000401156
-0.000933591
0.000358139
-0.000983969
0.00029706
-0.0010159
0.000224404
-0.00103346
0.000144581
-0.00103949
5.94607e-05
-0.0010353
-3.01305e-05
-0.00102098
-0.000122708
-0.000993907
-0.000219811
-0.000949063
-0.000318768
-0.000879456
-0.000413075
-0.000776293
-0.000490224
-0.000633913
-0.000530757
-0.000456637
-0.000511246
-0.000267856
-0.000412909
-0.000109257
-0.00024618
-1.75062e-05
-6.75528e-05
1.66895e-05
4.88741e-05
2.06823e-05
9.52007e-05
9.05842e-06
9.82432e-05
5.53308e-05
1.04912e-07
-4.38001e-05
-2.5388e-05
-1.1751e-05
-8.58547e-05
7.55375e-05
-0.000186669
0.000180514
-0.000328426
0.0002995
-0.000491124
0.000414187
-0.000644163
0.000493832
-0.000768304
0.000523462
-0.000859669
0.000509095
-0.000920743
0.00046223
-0.000957393
0.000394789
-0.000976693
0.00031636
-0.000985068
0.000232778
-0.000987506
0.00014702
-0.000987911
5.9866e-05
-0.000989054
-2.89878e-05
-0.000989704
-0.000122058
-0.000989935
-0.00021958
-0.000986176
-0.000322526
-0.000970364
-0.000428886
-0.000928428
-0.00053216
-0.000842737
-0.000616448
-0.000698514
-0.000655468
-0.000495422
-0.000616001
-0.000269161
-0.000472441
-9.28739e-05
-0.00024384
-1.62476e-05
-2.77521e-05
2.50149e-06
7.64516e-05
3.16955e-06
9.75751e-05
5.85004e-05
-1.88056e-05
-2.49945e-05
-7.51977e-05
4.4641e-05
-0.000170638
0.000170978
-0.000303894
0.000313769
-0.000459554
0.000455161
-0.000607732
0.000562365
-0.000725144
0.000611245
-0.000805782
0.0006041
-0.000853151
0.000556464
-0.000874783
0.000483863
-0.000880046
0.000400052
-0.000876667
0.000312982
-0.000870311
0.000226422
-0.000864383
0.000141091
-0.000861041
5.65234e-05
-0.000861377
-2.8652e-05
-0.000866646
-0.000116788
-0.000877827
-0.000208399
-0.00089503
-0.000305323
-0.000914954
-0.000408963
-0.000928332
-0.000518782
-0.000916793
-0.000627987
-0.000852458
-0.000719802
-0.000707967
-0.000760492
-0.000478845
-0.000701563
-0.00021862
-0.000504065
-4.58678e-05
-0.000200505
-5.33387e-07
3.11172e-05
2.90908e-06
9.41327e-05
6.14095e-05
-4.34126e-05
1.84181e-05
-0.000129297
0.000130525
-0.000249499
0.000291181
-0.000392844
0.000457114
-0.000534729
0.000597046
-0.000648802
0.000676439
-0.000724156
0.000686599
-0.000764143
0.000644087
-0.0007776
0.000569921
-0.000775671
0.000481934
-0.000767595
0.000391975
-0.000758904
0.000304291
-0.000752302
0.00021982
-0.000748477
0.000137267
-0.000747263
5.53094e-05
-0.000748215
-2.77008e-05
-0.000752818
-0.000112186
-0.000761795
-0.000199422
-0.000776835
-0.000290282
-0.000799828
-0.00038597
-0.000830272
-0.000488338
-0.00085971
-0.000598549
-0.000867049
-0.000712463
-0.000816548
-0.000810993
-0.000667903
-0.000850208
-0.000413351
-0.000758617
-0.00013152
-0.000482335
1.0194e-06
-0.000101422
4.80119e-06
9.03509e-05
6.62107e-05
-6.53211e-05
8.37392e-05
-0.000170915
0.000236119
-0.00029984
0.000420106
-0.000434234
0.000591508
-0.000548932
0.000711744
-0.000626682
0.000754189
-0.000667199
0.000727116
-0.000679823
0.000656711
-0.00067639
0.000566487
-0.00066774
0.000473284
-0.000659786
0.000384022
-0.000654748
0.000299253
-0.000652673
0.000217746
-0.000652839
0.000137433
-0.000654639
5.71093e-05
-0.00065799
-2.43495e-05
-0.000663005
-0.00010717
-0.000670399
-0.000192028
-0.000681394
-0.000279288
-0.00069775
-0.000369614
-0.000721664
-0.000464424
-0.000753588
-0.000566624
-0.000787254
-0.000678797
-0.000800596
-0.000797652
-0.000750416
-0.000900389
-0.000583088
-0.000925944
-0.000296862
-0.000768562
-3.89743e-05
-0.00035931
8.85426e-06
4.25223e-05
7.50649e-05
-7.92847e-05
0.000163024
-0.000192639
0.000349473
-0.000316879
0.000544345
-0.000431909
0.000706538
-0.000517366
0.000797201
-0.00056538
0.000802202
-0.000582849
0.000744585
-0.000581895
0.000655757
-0.000574264
0.000558856
-0.000567423
0.000466443
-0.000563566
0.000380165
-0.000562739
0.000298426
-0.000564017
0.000219023
-0.000566734
0.00014015
-0.000570451
6.08263e-05
-0.000575143
-1.96579e-05
-0.000580709
-0.000101604
-0.000587575
-0.000185162
-0.000596512
-0.000270351
-0.000608735
-0.000357391
-0.000626101
-0.000447057
-0.000651058
-0.000541668
-0.00068422
-0.000645635
-0.000718148
-0.000763724
-0.000727337
-0.0008912
-0.000661518
-0.000991763
-0.000463856
-0.000966225
-0.000140963
-0.000682202
1.36502e-05
-0.000112091
8.87151e-05
-8.21242e-05
0.000245148
-0.000191937
0.000459286
-0.000302356
0.000654764
-0.000394858
0.000799041
-0.000455309
0.000857653
-0.000483186
0.000830079
-0.000488926
0.000750325
-0.000484536
0.000651367
-0.000479194
0.000553515
-0.000476577
0.000463825
-0.000476808
0.000380396
-0.000479268
0.000300886
-0.000483122
0.000222877
-0.000487989
0.000145017
-0.000493601
6.64386e-05
-0.000499702
-1.35567e-05
-0.000506411
-9.48949e-05
-0.000513599
-0.000177974
-0.000521453
-0.000262498
-0.000530486
-0.000348358
-0.000541891
-0.000435653
-0.000558265
-0.000525294
-0.000583376
-0.000620524
-0.000618455
-0.000728645
-0.000653537
-0.000856118
-0.000650324
-0.000994976
-0.00053983
-0.00107672
-0.000284213
-0.000937819
-1.19602e-05
-0.000384343
7.67549e-05
-7.46813e-05
0.000319829
-0.000173003
0.000557607
-0.000265752
0.000747514
-0.000337447
0.000870735
-0.000379539
0.000899745
-0.000395856
0.000846397
-0.000397327
0.000751796
-0.000394111
0.000648151
-0.000392261
0.000551664
-0.00039299
0.000464554
-0.000395808
0.000383214
-0.000400089
0.000305167
-0.000405329
0.000228117
-0.000411347
0.000151035
-0.000417909
7.30006e-05
-0.000425164
-6.30184e-06
-0.000432718
-8.73403e-05
-0.000440836
-0.000169856
-0.000449517
-0.000253817
-0.000458774
-0.000339101
-0.000468658
-0.000425768
-0.000479873
-0.000514079
-0.000495664
-0.000604733
-0.000520703
-0.000703605
-0.000557047
-0.000819774
-0.000585041
-0.000966982
-0.000555707
-0.00110605
-0.000394014
-0.00109951
-7.40653e-05
-0.000704293
2.68959e-06
-5.93309e-05
0.00037916
-0.000141123
0.0006394
-0.000214733
0.000821124
-0.000268299
0.000924301
-0.000297491
0.000928937
-0.000307925
0.000856831
-0.000309217
0.000753088
-0.000308883
0.000647816
-0.000310279
0.000553061
-0.000313428
0.000467703
-0.000317871
0.000387657
-0.000323221
0.000310518
-0.000329321
0.000234216
-0.000336129
0.000157844
-0.000343595
8.04667e-05
-0.000351469
1.57251e-06
-0.000359762
-7.90475e-05
-0.000368266
-0.000161352
-0.000377038
-0.000245045
-0.000386241
-0.000329899
-0.000396231
-0.000415778
-0.00040697
-0.000503339
-0.000419731
-0.000591973
-0.000436486
-0.00068685
-0.000463619
-0.000792642
-0.00050055
-0.000930051
-0.000516214
-0.00109039
-0.000419056
-0.00119667
-0.000156336
-0.000967013
-0.000153647
-3.91188e-05
0.000418279
-0.000101946
0.000702227
-0.000156946
0.000876124
-0.000195881
0.000963235
-0.000216969
0.000950025
-0.000225375
0.000865237
-0.000228172
0.000755885
-0.00023031
0.000649954
-0.000233505
0.000556255
-0.000237631
0.000471829
-0.000242565
0.000392591
-0.00024823
0.000316182
-0.000254706
0.000240693
-0.000262021
0.000165158
-0.000270082
8.85284e-05
-0.000278727
1.02177e-05
-0.000287753
-7.00217e-05
-0.000297054
-0.000152051
-0.000306574
-0.000235525
-0.000316106
-0.000320367
-0.000326206
-0.000405678
-0.000336289
-0.000493256
-0.000347336
-0.000580926
-0.000359623
-0.000674562
-0.000379701
-0.000772565
-0.00041348
-0.000896272
-0.000448392
-0.00105548
-0.000412657
-0.0012324
-0.000231862
-0.00114781
-0.000385509
-1.67209e-05
0.000435
-5.90708e-05
0.000744576
-9.62405e-05
0.000913294
-0.000122775
0.00098977
-0.000137942
0.000965192
-0.000145368
0.000872663
-0.000149642
0.000760159
-0.000153621
0.000653934
-0.000158048
0.000560682
-0.000162863
0.000476644
-0.000168135
0.000397862
-0.000173971
0.000322018
-0.00018057
0.000247293
-0.000187999
0.000172586
-0.000196225
9.67552e-05
-0.000205142
1.91347e-05
-0.000214586
-6.0578e-05
-0.00022438
-0.000142256
-0.000234691
-0.000225214
-0.000245116
-0.000309943
-0.00025644
-0.000394354
-0.00026775
-0.000481946
-0.00027969
-0.000568986
-0.000290745
-0.000663507
-0.000306061
-0.000757248
-0.000329738
-0.000872595
-0.000364598
-0.00102062
-0.000364633
-0.00123237
-0.000244781
-0.00126766
-0.00063029
6.1386e-06
0.000428861
-1.453e-05
0.000765245
-3.60626e-05
0.000934826
-5.22898e-05
0.001006
-6.3328e-05
0.00097623
-7.1053e-05
0.000880388
-7.70587e-05
0.000766165
-8.22208e-05
0.000659096
-8.69132e-05
0.000565375
-9.13872e-05
0.000481118
-9.60293e-05
0.000402504
-0.000101175
0.000327164
-0.000107152
0.000253269
-0.000114116
0.000179551
-0.00012212
0.000104759
-0.000131124
2.81386e-05
-0.000141045
-5.06572e-05
-0.000151564
-0.000131737
-0.00016284
-0.000213937
-0.000174411
-0.000298372
-0.000186532
-0.000382232
-0.000198986
-0.000469493
-0.00021204
-0.000555932
-0.00022466
-0.000650887
-0.000238792
-0.000743116
-0.0002564
-0.000854987
-0.000287543
-0.000989473
-0.000305039
-0.00121487
-0.000221385
-0.00135131
-0.000851675
2.87786e-05
0.000400083
2.88986e-05
0.000765125
2.27058e-05
0.000941019
1.63193e-05
0.00101238
9.79457e-06
0.000982755
2.77064e-06
0.000887412
-3.97646e-06
0.000772912
-9.92635e-06
0.000665046
-1.48093e-05
0.000570258
-1.90875e-05
0.000485396
-2.33082e-05
0.000406725
-2.79134e-05
0.00033177
-3.32779e-05
0.000258633
-3.96375e-05
0.00018591
-4.71917e-05
0.000112314
-5.59148e-05
3.68617e-05
-6.61101e-05
-4.04618e-05
-7.71138e-05
-0.000120734
-8.96831e-05
-0.000201368
-0.000102866
-0.00028519
-0.000117065
-0.000368033
-0.000131887
-0.000454671
-0.00014688
-0.000540939
-0.000161535
-0.000636232
-0.000175268
-0.000729384
-0.000189709
-0.000840546
-0.000215146
-0.000964036
-0.000239089
-0.00119093
-0.000188134
-0.00140227
-0.00103981
4.86252e-05
0.000351458
7.00753e-05
0.000743675
7.90305e-05
0.000932064
8.20724e-05
0.00100934
7.88018e-05
0.000986026
7.15135e-05
0.0008947
6.36572e-05
0.000780768
5.72835e-05
0.00067142
5.27453e-05
0.000574796
4.94104e-05
0.000488731
4.65002e-05
0.000409635
4.33757e-05
0.000334894
3.9505e-05
0.000262504
3.45124e-05
0.000190903
2.7988e-05
0.000118838
1.97684e-05
4.50813e-05
9.89623e-06
-3.05896e-05
-2.52894e-06
-0.000108309
-1.52889e-05
-0.000188608
-3.11005e-05
-0.000269378
-4.67847e-05
-0.000352349
-6.38958e-05
-0.00043756
-8.22998e-05
-0.000522535
-0.00010005
-0.000618482
-0.000117082
-0.000712352
-0.000133145
-0.000824483
-0.000156404
-0.000940777
-0.000183026
-0.00116431
-0.000155039
-0.00143026
-0.00119485
6.42169e-05
0.000287241
0.000107088
0.000700804
0.000131497
0.000907655
0.000144917
0.000995921
0.000147361
0.000983582
0.000142128
0.000899933
0.000134544
0.000788351
0.000128021
0.000677943
0.000123597
0.000579219
0.000120748
0.00049158
0.000118625
0.000411759
0.000116489
0.00033703
0.000113671
0.000265323
0.000109715
0.000194858
0.000104022
0.000124531
9.63532e-05
5.275e-05
8.63512e-05
-2.05877e-05
7.39871e-05
-9.59444e-05
5.91555e-05
-0.000173777
4.15169e-05
-0.000251739
2.3608e-05
-0.00033444
2.1563e-07
-0.000414167
-1.77285e-05
-0.000504591
-4.07221e-05
-0.000595489
-6.11264e-05
-0.000691948
-7.97562e-05
-0.000805853
-0.000103343
-0.00091719
-0.000133621
-0.00113403
-0.00012662
-0.00143726
-0.00132147
7.31284e-05
0.000214112
0.000137425
0.000636508
0.000178274
0.000866806
0.000202711
0.000971485
0.000211475
0.000974818
0.000208443
0.000902965
0.000200753
0.000796042
0.000193744
0.000684952
0.000189452
0.000583511
0.000187552
0.00049348
0.000186965
0.000412346
0.000186692
0.000337302
0.000185763
0.000266252
0.00018361
0.000197011
0.000179446
0.000128696
0.000172788
5.94079e-05
0.000163153
-1.09531e-05
0.000150403
-8.31942e-05
0.000134216
-0.000157589
0.000115474
-0.000232997
9.34373e-05
-0.000312404
6.99586e-05
-0.000390689
4.50646e-05
-0.000479697
1.63061e-05
-0.00056673
-5.76096e-06
-0.000669881
-3.36913e-05
-0.000777923
-6.15014e-05
-0.00088938
-9.5612e-05
-0.00109992
-0.000103288
-0.00142958
-0.00142476
7.27586e-05
0.000141354
0.00015803
0.000551237
0.000217682
0.000807153
0.000255804
0.000933363
0.000274355
0.000956267
0.000277442
0.000899877
0.000272548
0.000800937
0.000266279
0.000691221
0.00026205
0.00058774
0.000260389
0.000495141
0.00026039
0.000412344
0.000261045
0.000336648
0.000261139
0.000266157
0.000259952
0.000198198
0.00025661
0.000132038
0.000250348
6.56692e-05
0.000240875
-1.48003e-06
0.000227509
-6.98283e-05
0.000210191
-0.000140271
0.000189278
-0.000212084
0.000164326
-0.000287452
0.000137643
-0.000364005
0.000107364
-0.000449418
7.6522e-05
-0.000535888
4.50398e-05
-0.000638398
9.82754e-06
-0.000742711
-2.13471e-05
-0.000858205
-6.2923e-05
-0.00105834
-8.58892e-05
-0.00140661
-0.00151065
6.20621e-05
7.92917e-05
0.000166344
0.000446955
0.000245845
0.000727651
0.000298985
0.000880223
0.00032881
0.000926442
0.000339066
0.000889621
0.000337769
0.000802234
0.000332911
0.00069608
0.0003293
0.00059135
0.000328483
0.000495957
0.000329764
0.000411063
0.000332109
0.000334304
0.000334094
0.000264172
0.000334633
0.000197659
0.000332828
0.000133844
0.000327789
7.07075e-05
0.000318683
7.62614e-06
0.000305283
-5.64285e-05
0.000287171
-0.000122159
0.00026448
-0.000189393
0.000237308
-0.00026028
0.00020679
-0.000333487
0.000172165
-0.000414793
0.000135987
-0.00049971
9.60553e-05
-0.000598467
5.4864e-05
-0.000701519
1.32934e-05
-0.000816635
-3.75831e-05
-0.00100747
-7.36751e-05
-0.00137052
-0.00158432
4.60446e-05
3.32471e-05
0.000161016
0.000331983
0.00026026
0.000628408
0.000331854
0.00080863
0.0003778
0.000880495
0.000401446
0.000865976
0.000409295
0.000794385
0.0004094
0.000695975
0.000407946
0.000592804
0.000407987
0.000495917
0.000409687
0.000409363
0.000412413
0.000331577
0.000414944
0.000261641
0.000415987
0.000196616
0.000414555
0.000135275
0.00040956
7.57024e-05
0.000400452
1.67348e-05
0.000386393
-4.23704e-05
0.000367226
-0.000102991
0.000342747
-0.000164915
0.000313207
-0.00023074
0.000279001
-0.000299281
0.000240118
-0.000375909
0.000197657
-0.000457249
0.000150407
-0.000551216
0.000100012
-0.000651124
4.60471e-05
-0.00076267
-1.41799e-05
-0.00094724
-6.24692e-05
-0.00132223
-0.00164679
2.92509e-05
3.99623e-06
0.000141116
0.000220118
0.000255514
0.00051401
0.000344989
0.000719154
0.000407463
0.000818021
0.000446084
0.000827355
0.000466126
0.000774343
0.000475045
0.000687055
0.000479139
0.00058871
0.000482517
0.000492539
0.000486522
0.000405358
0.000491027
0.000327072
0.000495172
0.000257496
0.000497641
0.000194147
0.000497444
0.000135472
0.000493445
7.97015e-05
0.000484944
2.52356e-05
0.000471062
-2.84882e-05
0.00045163
-8.35593e-05
0.000426079
-0.000139364
0.000394706
-0.000199366
0.000357109
-0.000261684
0.000313562
-0.000332363
0.000263638
-0.000407325
0.00020733
-0.000494908
0.00014483
-0.000588624
7.91354e-05
-0.000696975
8.78268e-06
-0.000876887
-4.80103e-05
-0.00126544
-0.0016948
1.64608e-05
-1.24645e-05
0.000109071
0.000127508
0.000231416
0.000391665
0.000338652
0.000611918
0.000422885
0.000733789
0.000483915
0.000766324
0.000523648
0.00073461
0.000548472
0.000662231
0.000563524
0.000573658
0.000573559
0.000482504
0.000581399
0.000397519
0.000587822
0.000320649
0.000592785
0.000252533
0.000595475
0.000191457
0.000595174
0.000135774
0.000590772
8.41032e-05
0.00058172
3.42877e-05
0.000567103
-1.38719e-05
0.000546512
-6.29677e-05
0.000519234
-0.000112086
0.000485364
-0.000165497
0.000443858
-0.000220178
0.000394918
-0.000283422
0.000336558
-0.000348965
0.000269908
-0.000428259
0.000193198
-0.000511914
0.00011536
-0.000619137
3.65166e-05
-0.000798044
-3.38494e-05
-0.00119507
-0.00172865
9.00012e-06
-2.14647e-05
7.30857e-05
6.34226e-05
0.000181429
0.000283321
0.000296739
0.000496608
0.000399862
0.000630665
0.000482391
0.000683796
0.000546732
0.00067027
0.000593976
0.000614987
0.000627081
0.000540553
0.000650864
0.000458722
0.000668445
0.000379937
0.000681453
0.000307641
0.000690755
0.000243231
0.000696356
0.000185856
0.000697923
0.000134206
0.000694785
8.72412e-05
0.000686319
4.27537e-05
0.00067201
4.37169e-07
0.00065104
-4.19973e-05
0.000622748
-8.37939e-05
0.000586621
-0.00012937
0.000541285
-0.000174842
0.000486144
-0.000228281
0.000418691
-0.000281513
0.000339756
-0.000349323
0.00024627
-0.000418429
0.000153071
-0.000525937
5.47531e-05
-0.000699727
-2.98207e-05
-0.0011105
-0.00175847
5.72144e-07
-2.20368e-05
3.55746e-05
2.84202e-05
0.000114496
0.000204399
0.000234269
0.000376836
0.00035315
0.000511784
0.0004645
0.000572445
0.000559941
0.000574829
0.000635158
0.00053977
0.000693621
0.00048209
0.00073786
0.000414483
0.000770374
0.000347423
0.000793889
0.000284126
0.000809909
0.000227211
0.000819732
0.000176033
0.000823227
0.000130711
0.000820961
8.95078e-05
0.000812086
5.16286e-05
0.000796404
1.61185e-05
0.000773248
-1.88415e-05
0.000742254
-5.27997e-05
0.000701618
-8.87335e-05
0.000650897
-0.000124121
0.000587821
-0.000165206
0.000511477
-0.000205168
0.000421293
-0.00025914
0.000315224
-0.000312359
0.000205842
-0.000416554
8.46589e-05
-0.000578544
-1.37733e-05
-0.00101207
-0.00177224
-3.65125e-05
1.44757e-05
-3.33941e-05
2.53017e-05
9.78116e-06
0.000161224
0.000117758
0.000268859
0.000240836
0.000388706
0.00038098
0.000432301
0.00050599
0.000449819
0.000614111
0.000431649
0.000704096
0.000392106
0.000775991
0.000342588
0.000830634
0.00029278
0.000872573
0.000242187
0.000901843
0.00019794
0.000922221
0.000155655
0.000932404
0.000120528
0.000935478
8.64341e-05
0.000928942
5.81648e-05
0.000915645
2.94157e-05
0.000892132
4.67091e-06
0.000860912
-2.15799e-05
0.000817849
-4.56704e-05
0.000764749
-7.10201e-05
0.000697232
-9.76893e-05
0.000616939
-0.000124875
0.000520624
-0.000162826
0.000412114
-0.000203849
0.000291284
-0.000295725
0.000168885
-0.000456146
5.40253e-05
-0.000897208
-0.00171822
-0.000142433
0.000156909
-0.000142159
2.50269e-05
-0.000105507
0.000124572
-2.83318e-07
0.000163635
0.000136756
0.000251666
0.000301486
0.000267572
0.000450682
0.000300623
0.000594024
0.000288307
0.000712432
0.000273697
0.000812171
0.000242849
0.000889935
0.000215016
0.000951862
0.000180261
0.000996267
0.000153535
0.00102868
0.000123243
0.00104728
0.000101928
0.00105662
7.70972e-05
0.00105413
6.0648e-05
0.00104366
3.98838e-05
0.0010217
2.6639e-05
0.000991525
8.59142e-06
0.000949906
-4.05112e-06
0.000898787
-1.99009e-05
0.000834213
-3.31159e-05
0.000759408
-5.00698e-05
0.000667198
-7.06151e-05
0.000567829
-0.000104479
0.000447914
-0.00017581
0.0003423
-0.000350532
0.000199923
-0.000754832
-0.00151829
-0.000128564
0.000285473
-0.000235604
0.000132067
-0.000227311
0.000116279
-0.000155104
9.14284e-05
-1.41452e-06
9.79769e-05
0.00015999
0.000106167
0.0003414
0.000119213
0.000504293
0.000125414
0.00065133
0.00012666
0.000776472
0.000117707
0.000880968
0.00011052
0.000965056
9.61729e-05
0.00103185
8.67369e-05
0.00108322
7.18749e-05
0.00112077
6.43846e-05
0.00114718
5.0682e-05
0.0011621
4.57267e-05
0.00116898
3.30064e-05
0.00116518
3.04345e-05
0.00115588
1.78932e-05
0.00113439
1.74416e-05
0.0011102
4.28845e-06
0.00107139
5.69807e-06
0.0010325
-1.11846e-05
0.000971055
-9.16891e-06
0.000905694
-3.91183e-05
0.000792309
-6.24248e-05
0.00065576
-0.000213983
0.000405947
-0.000505019
-0.00111235
0.000285473
0.000417541
0.000533819
0.000625248
0.000723225
0.000829392
0.000948605
0.00107402
0.00120068
0.00131839
0.00142891
0.00152508
0.00161182
0.00168369
0.00174808
0.00179876
0.00184448
0.00187749
0.00190792
0.00192582
0.00194326
0.00194755
0.00195325
0.00194206
0.00193289
0.00189377
0.00183135
0.00161737
0.00111235
)
;

boundaryField
{
    movingWall
    {
        type            calculated;
        value           uniform 0;
    }
    fixedWalls
    {
        type            calculated;
        value           uniform 0;
    }
    frontAndBack
    {
        type            empty;
    }
}


// ************************************************************************* //
