/*--------------------------------*- C++ -*----------------------------------*\
| =========                 |                                                 |
| \\      /  F ield         | OpenFOAM: The Open Source CFD Toolbox           |
|  \\    /   O peration     | Version:  2406                                  |
|   \\  /    A nd           | Website:  www.openfoam.com                      |
|    \\/     M anipulation  |                                                 |
\*---------------------------------------------------------------------------*/
FoamFile
{
    version     2.0;
    format      ascii;
    arch        "LSB;label=32;scalar=64";
    class       volVectorField;
    location    "46.8";
    object      Uold;
}
// * * * * * * * * * * * * * * * * * * * * * * * * * * * * * * * * * * * * * //

dimensions      [0 1 -1 0 0 0 0];

internalField   nonuniform List<vector> 
900
(
(0.000279307 -0.000528108 0)
(0.0037228 -0.00128818 0)
(0.00760339 -0.00100214 0)
(0.00915964 -0.000543013 0)
(0.00962199 -0.000477705 0)
(0.00943363 -0.000802547 0)
(0.00939178 -0.00124531 0)
(0.00931926 -0.0017414 0)
(0.00837229 -0.00329804 0)
(0.00375963 -0.00519073 0)
(-0.00693297 -0.00314086 0)
(-0.0249564 0.00372365 0)
(-0.0490527 0.0102618 0)
(-0.0744209 0.0128031 0)
(-0.0967727 0.0121474 0)
(-0.113846 0.00985914 0)
(-0.12429 0.00662202 0)
(-0.127196 0.00283201 0)
(-0.122204 -0.00126675 0)
(-0.108848 -0.00541394 0)
(-0.0878093 -0.00924481 0)
(-0.0594929 -0.0121442 0)
(-0.0272905 -0.0132801 0)
(0.00601578 -0.0115985 0)
(0.0321112 -0.00596109 0)
(0.0454395 0.00164469 0)
(0.040735 0.00743628 0)
(0.0260959 0.00744777 0)
(0.0122805 0.00490529 0)
(0.00146974 0.00184086 0)
(0.00122181 -0.00345467 0)
(0.00718138 -0.00614091 0)
(0.0129119 -0.00438374 0)
(0.0147333 -0.00149753 0)
(0.0140148 0.000250965 0)
(0.0106991 0.0010449 0)
(0.00432429 0.00141246 0)
(-0.00895051 0.00276909 0)
(-0.0324928 0.00899301 0)
(-0.066031 0.0208776 0)
(-0.104491 0.0323359 0)
(-0.140648 0.0388071 0)
(-0.170461 0.0395008 0)
(-0.193308 0.0351716 0)
(-0.209571 0.0275523 0)
(-0.219149 0.0179112 0)
(-0.221898 0.00699392 0)
(-0.21757 -0.00471684 0)
(-0.206004 -0.0168368 0)
(-0.186879 -0.0288907 0)
(-0.160392 -0.0399297 0)
(-0.126766 -0.0485386 0)
(-0.0878241 -0.0522205 0)
(-0.0461371 -0.0482644 0)
(-0.00730341 -0.0333508 0)
(0.0222333 -0.0105342 0)
(0.0337524 0.0122109 0)
(0.0277935 0.0206783 0)
(0.0161326 0.0200545 0)
(0.00230838 0.0119189 0)
(0.00217712 -0.00886883 0)
(0.00876737 -0.0130575 0)
(0.0131913 -0.00849926 0)
(0.0121212 -0.00170728 0)
(0.00660794 0.00354441 0)
(-0.00555788 0.00881181 0)
(-0.0280296 0.0183953 0)
(-0.063468 0.0351751 0)
(-0.107697 0.0537082 0)
(-0.151066 0.0662547 0)
(-0.187835 0.0708796 0)
(-0.216789 0.0692694 0)
(-0.238359 0.0624555 0)
(-0.253593 0.0514081 0)
(-0.263464 0.037531 0)
(-0.26841 0.0217624 0)
(-0.268731 0.00471238 0)
(-0.264312 -0.0133619 0)
(-0.254957 -0.0321071 0)
(-0.240097 -0.0511948 0)
(-0.2192 -0.069295 0)
(-0.191631 -0.0848087 0)
(-0.157045 -0.0936647 0)
(-0.116428 -0.0922024 0)
(-0.0713882 -0.0737846 0)
(-0.0283918 -0.0394026 0)
(0.00383969 0.00220023 0)
(0.0112139 0.0244402 0)
(0.00913936 0.0303793 0)
(0.000201031 0.0198914 0)
(0.00287613 -0.0143462 0)
(0.00771458 -0.0172358 0)
(0.00741427 -0.00764728 0)
(-0.000399473 0.0051131 0)
(-0.0165519 0.0180249 0)
(-0.0447133 0.0358062 0)
(-0.0854928 0.0594507 0)
(-0.131832 0.0823144 0)
(-0.174058 0.0965658 0)
(-0.208134 0.101245 0)
(-0.234367 0.0982608 0)
(-0.25332 0.0894563 0)
(-0.266174 0.0763933 0)
(-0.274297 0.0603792 0)
(-0.278902 0.0424826 0)
(-0.280673 0.0232397 0)
(-0.2801 0.00292829 0)
(-0.277218 -0.0185778 0)
(-0.271946 -0.0411459 0)
(-0.263683 -0.0649178 0)
(-0.251652 -0.0886001 0)
(-0.234454 -0.111135 0)
(-0.21028 -0.127645 0)
(-0.177634 -0.13438 0)
(-0.134465 -0.12108 0)
(-0.0840726 -0.0857564 0)
(-0.0308612 -0.0265295 0)
(-0.00139301 0.0151439 0)
(0.00357186 0.0315505 0)
(-0.00153647 0.0213819 0)
(0.00268184 -0.0194874 0)
(0.00292932 -0.017726 0)
(-0.0051205 -0.000389923 0)
(-0.0230014 0.0221897 0)
(-0.0522001 0.0478264 0)
(-0.0925724 0.0776134 0)
(-0.137414 0.105366 0)
(-0.177604 0.123657 0)
(-0.208847 0.129781 0)
(-0.23146 0.126209 0)
(-0.246609 0.115772 0)
(-0.25567 0.100867 0)
(-0.260453 0.0832462 0)
(-0.262243 0.0639629 0)
(-0.262345 0.0437795 0)
(-0.261338 0.0228479 0)
(-0.259893 0.00122903 0)
(-0.258063 -0.0215642 0)
(-0.256127 -0.045567 0)
(-0.25361 -0.0715178 0)
(-0.25018 -0.0984081 0)
(-0.244195 -0.126294 0)
(-0.233618 -0.150475 0)
(-0.214853 -0.168271 0)
(-0.183359 -0.167347 0)
(-0.136569 -0.143033 0)
(-0.0741758 -0.0802631 0)
(-0.0139501 -0.010431 0)
(0.00326918 0.0307167 0)
(-0.00172563 0.0216879 0)
(0.000707657 -0.0198815 0)
(-0.0066938 -0.00935864 0)
(-0.0243154 0.0184555 0)
(-0.0519061 0.0523342 0)
(-0.0890773 0.0876742 0)
(-0.130618 0.121092 0)
(-0.16868 0.144478 0)
(-0.197431 0.153698 0)
(-0.216644 0.150477 0)
(-0.228105 0.139175 0)
(-0.233505 0.122652 0)
(-0.234818 0.103497 0)
(-0.233691 0.0831633 0)
(-0.231294 0.0624638 0)
(-0.228638 0.041789 0)
(-0.226047 0.0209577 0)
(-0.224064 -0.000127532 0)
(-0.222599 -0.0222222 0)
(-0.22216 -0.0453696 0)
(-0.222421 -0.0708185 0)
(-0.223871 -0.0977999 0)
(-0.225309 -0.127783 0)
(-0.225888 -0.156925 0)
(-0.221613 -0.184922 0)
(-0.207418 -0.199464 0)
(-0.176346 -0.195193 0)
(-0.122019 -0.148888 0)
(-0.0474581 -0.0625206 0)
(0.0067714 0.0197175 0)
(-0.00249733 0.0229279 0)
(-0.00232559 -0.0136011 0)
(-0.0178491 0.00729347 0)
(-0.0435836 0.0447787 0)
(-0.0764712 0.0869266 0)
(-0.114391 0.126428 0)
(-0.150259 0.157074 0)
(-0.178191 0.172042 0)
(-0.195714 0.171562 0)
(-0.205136 0.160396 0)
(-0.208385 0.143036 0)
(-0.207674 0.122474 0)
(-0.204919 0.101064 0)
(-0.201437 0.0797486 0)
(-0.197994 0.0589275 0)
(-0.195125 0.0385986 0)
(-0.192773 0.0183045 0)
(-0.191239 -0.00208125 0)
(-0.190167 -0.0234253 0)
(-0.190125 -0.045503 0)
(-0.190654 -0.0697601 0)
(-0.19284 -0.0951651 0)
(-0.19582 -0.124243 0)
(-0.200518 -0.153812 0)
(-0.203917 -0.186755 0)
(-0.203169 -0.212466 0)
(-0.190422 -0.228841 0)
(-0.154736 -0.208641 0)
(-0.0941083 -0.140815 0)
(-0.00485715 -0.0131191 0)
(0.00313821 0.0255245 0)
(-0.00545093 0.000338973 0)
(-0.0276116 0.0321569 0)
(-0.0581033 0.0771538 0)
(-0.0916898 0.123283 0)
(-0.125885 0.161418 0)
(-0.153606 0.184925 0)
(-0.171818 0.189963 0)
(-0.180625 0.180758 0)
(-0.183314 0.16327 0)
(-0.181741 0.141853 0)
(-0.17835 0.1193 0)
(-0.174496 0.0973463 0)
(-0.171036 0.076308 0)
(-0.168223 0.0561655 0)
(-0.166225 0.0366046 0)
(-0.164733 0.0170085 0)
(-0.163992 -0.0026998 0)
(-0.163476 -0.0234809 0)
(-0.163871 -0.0448108 0)
(-0.164418 -0.0683245 0)
(-0.166517 -0.0924605 0)
(-0.168998 -0.12035 0)
(-0.173964 -0.148539 0)
(-0.178902 -0.182374 0)
(-0.184202 -0.212807 0)
(-0.182637 -0.243248 0)
(-0.166022 -0.245837 0)
(-0.125673 -0.212067 0)
(-0.0431737 -0.0773231 0)
(0.0186578 0.0213755 0)
(-0.0072481 0.019275 0)
(-0.0329204 0.0600058 0)
(-0.0645775 0.108639 0)
(-0.0957128 0.154641 0)
(-0.124391 0.18814 0)
(-0.144333 0.202941 0)
(-0.155208 0.199007 0)
(-0.158385 0.183059 0)
(-0.157515 0.161486 0)
(-0.154086 0.138053 0)
(-0.150503 0.1152 0)
(-0.14721 0.0937077 0)
(-0.144817 0.0734641 0)
(-0.143016 0.0540645 0)
(-0.141952 0.0351406 0)
(-0.141104 0.0160062 0)
(-0.140892 -0.00323973 0)
(-0.140588 -0.0236575 0)
(-0.141145 -0.0443833 0)
(-0.141407 -0.0673194 0)
(-0.14316 -0.090318 0)
(-0.144631 -0.117116 0)
(-0.148837 -0.143546 0)
(-0.152979 -0.176807 0)
(-0.160159 -0.208411 0)
(-0.163679 -0.24676 0)
(-0.160044 -0.266493 0)
(-0.135039 -0.262255 0)
(-0.0793504 -0.160679 0)
(0.0122787 0.0022095 0)
(-0.0077054 0.0404975 0)
(-0.034031 0.089728 0)
(-0.0643908 0.139824 0)
(-0.091559 0.183172 0)
(-0.114461 0.209955 0)
(-0.128011 0.215856 0)
(-0.133851 0.204101 0)
(-0.133937 0.183204 0)
(-0.131685 0.159061 0)
(-0.12826 0.134929 0)
(-0.125599 0.112486 0)
(-0.123433 0.0916901 0)
(-0.122227 0.0721668 0)
(-0.121312 0.0532761 0)
(-0.121013 0.034759 0)
(-0.120637 0.0158613 0)
(-0.120899 -0.00310677 0)
(-0.120814 -0.0233971 0)
(-0.121681 -0.0438026 0)
(-0.121836 -0.0665866 0)
(-0.12349 -0.0889229 0)
(-0.124002 -0.11508 0)
(-0.127172 -0.139751 0)
(-0.129339 -0.171509 0)
(-0.136084 -0.201613 0)
(-0.141084 -0.243442 0)
(-0.145265 -0.274199 0)
(-0.133218 -0.292557 0)
(-0.0958789 -0.225558 0)
(-0.0199327 -0.0442603 0)
(-0.00683772 0.0608713 0)
(-0.0313485 0.11674 0)
(-0.0583684 0.16589 0)
(-0.0808463 0.204649 0)
(-0.0985647 0.224427 0)
(-0.107496 0.222345 0)
(-0.110603 0.204891 0)
(-0.109551 0.180868 0)
(-0.107494 0.15574 0)
(-0.105029 0.131894 0)
(-0.103667 0.110309 0)
(-0.102598 0.0902484 0)
(-0.102343 0.0713234 0)
(-0.101978 0.05275 0)
(-0.102137 0.0345108 0)
(-0.101917 0.0157561 0)
(-0.102415 -0.00293668 0)
(-0.102313 -0.023087 0)
(-0.103406 -0.0431299 0)
(-0.103458 -0.0658451 0)
(-0.105323 -0.0877826 0)
(-0.105334 -0.113925 0)
(-0.1081 -0.137686 0)
(-0.108367 -0.16849 0)
(-0.113587 -0.196073 0)
(-0.116797 -0.237899 0)
(-0.124199 -0.273843 0)
(-0.119983 -0.311506 0)
(-0.0952145 -0.274006 0)
(-0.0366164 -0.113381 0)
(-0.00512271 0.0787314 0)
(-0.02614 0.141424 0)
(-0.0490123 0.189168 0)
(-0.0669327 0.223438 0)
(-0.0803035 0.236586 0)
(-0.086143 0.228081 0)
(-0.0878278 0.206263 0)
(-0.0866935 0.180232 0)
(-0.0853791 0.154628 0)
(-0.0840678 0.131181 0)
(-0.0838167 0.110138 0)
(-0.0835976 0.090397 0)
(-0.0840096 0.071648 0)
(-0.0840007 0.053044 0)
(-0.0845015 0.0348384 0)
(-0.0843591 0.016031 0)
(-0.0850747 -0.00250373 0)
(-0.0849015 -0.0226213 0)
(-0.0862078 -0.0423414 0)
(-0.086085 -0.0650299 0)
(-0.0882271 -0.0865842 0)
(-0.0878783 -0.112851 0)
(-0.0907897 -0.136102 0)
(-0.0898707 -0.166751 0)
(-0.0942039 -0.192511 0)
(-0.0948561 -0.233459 0)
(-0.102467 -0.270541 0)
(-0.100742 -0.321446 0)
(-0.0848377 -0.310071 0)
(-0.0346691 -0.176673 0)
(-0.00278892 0.0921093 0)
(-0.0192433 0.160618 0)
(-0.0372559 0.206468 0)
(-0.0508287 0.235874 0)
(-0.0606913 0.243538 0)
(-0.0645841 0.229894 0)
(-0.0659504 0.205375 0)
(-0.0653715 0.178343 0)
(-0.0651384 0.153011 0)
(-0.0648975 0.13021 0)
(-0.0655545 0.109762 0)
(-0.0659264 0.0903063 0)
(-0.0668172 0.0717144 0)
(-0.0670179 0.0530806 0)
(-0.0677935 0.0349431 0)
(-0.0676577 0.016111 0)
(-0.0685785 -0.00221301 0)
(-0.0682706 -0.0222698 0)
(-0.0698028 -0.0416203 0)
(-0.0694457 -0.0642805 0)
(-0.0719363 -0.0854808 0)
(-0.0712426 -0.111997 0)
(-0.0745713 -0.134988 0)
(-0.0727803 -0.165889 0)
(-0.076911 -0.190287 0)
(-0.0753399 -0.230386 0)
(-0.0830488 -0.267245 0)
(-0.0823836 -0.328773 0)
(-0.0737713 -0.340338 0)
(-0.0310645 -0.233171 0)
(-0.00028774 0.100886 0)
(-0.0115061 0.175948 0)
(-0.0246769 0.220669 0)
(-0.0343653 0.246927 0)
(-0.0413345 0.250396 0)
(-0.0440723 0.233546 0)
(-0.0454028 0.207175 0)
(-0.045483 0.179558 0)
(-0.0460734 0.154272 0)
(-0.0465894 0.131683 0)
(-0.0478216 0.111306 0)
(-0.0485643 0.0916941 0)
(-0.0498092 0.0729116 0)
(-0.0501667 0.0539724 0)
(-0.0512453 0.0357022 0)
(-0.0511377 0.0166603 0)
(-0.0523536 -0.00157877 0)
(-0.0519302 -0.0216948 0)
(-0.0537823 -0.0407265 0)
(-0.0531754 -0.0633723 0)
(-0.0561308 -0.0841753 0)
(-0.0551284 -0.110909 0)
(-0.0591999 -0.13376 0)
(-0.0569122 -0.16532 0)
(-0.0615636 -0.189051 0)
(-0.0581355 -0.228281 0)
(-0.0657013 -0.262762 0)
(-0.0646148 -0.330584 0)
(-0.0626042 -0.361444 0)
(-0.0268443 -0.281767 0)
(0.00234465 0.10396 0)
(-0.00344108 0.184882 0)
(-0.0116026 0.229211 0)
(-0.0177395 0.252419 0)
(-0.0223487 0.253192 0)
(-0.0243217 0.233946 0)
(-0.0259659 0.2067 0)
(-0.0267093 0.178885 0)
(-0.0280644 0.154001 0)
(-0.029076 0.13178 0)
(-0.0307 0.111666 0)
(-0.0316032 0.0920936 0)
(-0.0331007 0.0733277 0)
(-0.0335066 0.0542711 0)
(-0.0348745 0.0360309 0)
(-0.0347523 0.0168952 0)
(-0.0363264 -0.00116262 0)
(-0.035788 -0.0212792 0)
(-0.0380785 -0.0399449 0)
(-0.0372199 -0.0625312 0)
(-0.0407747 -0.0828841 0)
(-0.0394303 -0.109724 0)
(-0.0444369 -0.132325 0)
(-0.0418011 -0.164517 0)
(-0.0477093 -0.188028 0)
(-0.0432941 -0.227296 0)
(-0.0517198 -0.259826 0)
(-0.0499679 -0.331937 0)
(-0.053447 -0.377845 0)
(-0.0229929 -0.323029 0)
(0.00468255 0.102163 0)
(0.00457705 0.189835 0)
(0.00118953 0.234987 0)
(-0.00164843 0.257694 0)
(-0.00402077 0.257091 0)
(-0.0053993 0.237355 0)
(-0.00709748 0.209715 0)
(-0.00828873 0.181792 0)
(-0.0100018 0.156809 0)
(-0.0112056 0.134403 0)
(-0.0129771 0.114045 0)
(-0.0138779 0.0941105 0)
(-0.0155723 0.0750783 0)
(-0.0159759 0.0556593 0)
(-0.0176968 0.0372835 0)
(-0.017571 0.0178864 0)
(-0.0196455 -0.000105042 0)
(-0.0190412 -0.0203351 0)
(-0.0219794 -0.038711 0)
(-0.0209355 -0.061276 0)
(-0.0253405 -0.0811922 0)
(-0.0237221 -0.108085 0)
(-0.0299403 -0.130398 0)
(-0.0270364 -0.163121 0)
(-0.0346175 -0.186421 0)
(-0.029517 -0.225485 0)
(-0.0394684 -0.255082 0)
(-0.0369466 -0.329252 0)
(-0.0458932 -0.387906 0)
(-0.0197083 -0.358641 0)
(0.0068102 0.0948032 0)
(0.0121154 0.188111 0)
(0.0136003 0.235421 0)
(0.0138653 0.257439 0)
(0.0134557 0.25693 0)
(0.0127372 0.236941 0)
(0.0108805 0.20951 0)
(0.00941494 0.181601 0)
(0.00739228 0.156813 0)
(0.00622273 0.13451 0)
(0.00443419 0.114293 0)
(0.00376972 0.0943994 0)
(0.00200859 0.0754802 0)
(0.00180347 0.0560394 0)
(-0.000207964 0.0378136 0)
(4.45697e-05 0.0183932 0)
(-0.00257208 0.000653583 0)
(-0.00185224 -0.0195309 0)
(-0.00558943 -0.0375091 0)
(-0.00437286 -0.059929 0)
(-0.00985343 -0.0793189 0)
(-0.00799808 -0.106093 0)
(-0.0157098 -0.127965 0)
(-0.0126412 -0.16102 0)
(-0.0224212 -0.184283 0)
(-0.0171067 -0.223761 0)
(-0.0294368 -0.251184 0)
(-0.0261019 -0.326194 0)
(-0.0400754 -0.394345 0)
(-0.0167833 -0.389159 0)
(0.00813892 0.0834726 0)
(0.0189731 0.182893 0)
(0.0251106 0.233365 0)
(0.0286153 0.257826 0)
(0.0305312 0.258383 0)
(0.0307358 0.240096 0)
(0.0292884 0.21324 0)
(0.0278334 0.185398 0)
(0.0258466 0.160243 0)
(0.0249062 0.137417 0)
(0.0232346 0.116807 0)
(0.0229335 0.0965047 0)
(0.0211173 0.0774268 0)
(0.0211905 0.0577179 0)
(0.018812 0.039513 0)
(0.0192288 0.0199395 0)
(0.0159042 0.00238314 0)
(0.0167348 -0.0178154 0)
(0.0119566 -0.0354427 0)
(0.0132953 -0.057731 0)
(0.00644109 -0.076616 0)
(0.00846084 -0.103206 0)
(-0.00105568 -0.124565 0)
(0.0021517 -0.157663 0)
(-0.010175 -0.180562 0)
(-0.00477923 -0.219947 0)
(-0.0202669 -0.24473 0)
(-0.0162722 -0.319624 0)
(-0.0356088 -0.396239 0)
(-0.0141923 -0.41607 0)
(0.00868604 0.0678071 0)
(0.0243872 0.170735 0)
(0.035399 0.225835 0)
(0.0421302 0.251731 0)
(0.0462129 0.254832 0)
(0.0476758 0.238016 0)
(0.0465734 0.212372 0)
(0.0453968 0.184779 0)
(0.0434223 0.159676 0)
(0.0429315 0.136782 0)
(0.0414683 0.116278 0)
(0.0418234 0.0961122 0)
(0.040118 0.0773585 0)
(0.0407747 0.0578571 0)
(0.0381504 0.0400548 0)
(0.0389843 0.0206972 0)
(0.0349694 0.00359757 0)
(0.0360752 -0.0163315 0)
(0.0301563 -0.0334128 0)
(0.0316788 -0.0553436 0)
(0.0232453 -0.0735761 0)
(0.0254065 -0.099753 0)
(0.013789 -0.120449 0)
(0.0170506 -0.153311 0)
(0.00176906 -0.175841 0)
(0.0070666 -0.215313 0)
(-0.0122217 -0.238099 0)
(-0.00746476 -0.3122 0)
(-0.0322965 -0.395186 0)
(-0.011632 -0.439619 0)
(0.00739818 0.0506939 0)
(0.0280767 0.155991 0)
(0.0437775 0.215835 0)
(0.054339 0.247001 0)
(0.0614783 0.253048 0)
(0.0648708 0.239863 0)
(0.0650755 0.215795 0)
(0.0645955 0.188625 0)
(0.0629658 0.163049 0)
(0.0630128 0.139358 0)
(0.0617453 0.118344 0)
(0.062793 0.0977314 0)
(0.0611162 0.0789985 0)
(0.0624391 0.0594233 0)
(0.05945 0.0419354 0)
(0.0607998 0.0226982 0)
(0.0559197 0.00605582 0)
(0.0573767 -0.0136103 0)
(0.0500931 -0.030116 0)
(0.0518358 -0.051652 0)
(0.0415558 -0.0691998 0)
(0.0438526 -0.0948609 0)
(0.0298226 -0.114794 0)
(0.0331087 -0.147088 0)
(0.0144774 -0.168855 0)
(0.019563 -0.207764 0)
(-0.00432279 -0.228327 0)
(0.00106455 -0.301265 0)
(-0.0299316 -0.390498 0)
(-0.00900171 -0.460745 0)
(0.00446246 0.0324294 0)
(0.0287485 0.133816 0)
(0.0495587 0.199641 0)
(0.0639844 0.23362 0)
(0.0739278 0.244363 0)
(0.0797913 0.234124 0)
(0.0813016 0.212677 0)
(0.0821277 0.18652 0)
(0.0809549 0.161281 0)
(0.0819553 0.137542 0)
(0.0809775 0.116614 0)
(0.083102 0.0961964 0)
(0.0815823 0.0779652 0)
(0.0839822 0.0588767 0)
(0.0807445 0.0420939 0)
(0.0829969 0.0234561 0)
(0.0773162 0.00758756 0)
(0.0794336 -0.0114267 0)
(0.0707814 -0.0271044 0)
(0.0729509 -0.0479216 0)
(0.0607238 -0.0645709 0)
(0.063229 -0.0893894 0)
(0.0465546 -0.108344 0)
(0.0497992 -0.139664 0)
(0.027445 -0.160506 0)
(0.0322114 -0.198631 0)
(0.00313626 -0.217472 0)
(0.00932402 -0.288809 0)
(-0.0284108 -0.383182 0)
(-0.00602051 -0.479469 0)
(0.000168553 0.0179129 0)
(0.0264938 0.110788 0)
(0.051962 0.18091 0)
(0.0710369 0.222679 0)
(0.0852656 0.237517 0)
(0.0946407 0.232577 0)
(0.0989979 0.213832 0)
(0.10189 0.188966 0)
(0.101776 0.163694 0)
(0.103892 0.1392 0)
(0.10314 0.117779 0)
(0.106269 0.0968564 0)
(0.104678 0.0788117 0)
(0.108171 0.0598514 0)
(0.104476 0.0437355 0)
(0.107755 0.0255681 0)
(0.101095 0.0105734 0)
(0.104042 -0.00780384 0)
(0.0938303 -0.0225057 0)
(0.0965766 -0.0425361 0)
(0.0821664 -0.0581175 0)
(0.084963 -0.0819204 0)
(0.0653289 -0.0996706 0)
(0.0684887 -0.129613 0)
(0.0419361 -0.149102 0)
(0.0461842 -0.185687 0)
(0.0110774 -0.20278 0)
(0.0179973 -0.272363 0)
(-0.027515 -0.372617 0)
(-0.00245414 -0.496261 0)
(-0.00196041 0.00585641 0)
(0.0211 0.0812649 0)
(0.0506351 0.155209 0)
(0.0734806 0.199668 0)
(0.0908922 0.220879 0)
(0.104372 0.219893 0)
(0.111604 0.205572 0)
(0.117948 0.183231 0)
(0.119575 0.159459 0)
(0.123997 0.135565 0)
(0.123867 0.114518 0)
(0.128781 0.093941 0)
(0.127182 0.076474 0)
(0.132362 0.0582523 0)
(0.128177 0.0430517 0)
(0.133004 0.0258873 0)
(0.125336 0.0119876 0)
(0.12957 -0.00526722 0)
(0.117792 -0.0187756 0)
(0.121477 -0.037569 0)
(0.104849 -0.0518443 0)
(0.108121 -0.0741582 0)
(0.0853422 -0.0903807 0)
(0.0883307 -0.118333 0)
(0.0571776 -0.136125 0)
(0.0607076 -0.170582 0)
(0.0189707 -0.186431 0)
(0.0267932 -0.253768 0)
(-0.0273348 -0.359681 0)
(0.00201454 -0.510924 0)
(-0.00229503 -0.000693766 0)
(0.0142742 0.0582253 0)
(0.0445808 0.129043 0)
(0.0715095 0.182608 0)
(0.0940832 0.206978 0)
(0.112741 0.211912 0)
(0.124845 0.200753 0)
(0.135681 0.180849 0)
(0.140184 0.158307 0)
(0.147524 0.134584 0)
(0.148387 0.113781 0)
(0.155266 0.0930738 0)
(0.153578 0.0761346 0)
(0.160458 0.0582635 0)
(0.155601 0.044121 0)
(0.162027 0.0276909 0)
(0.153193 0.0151791 0)
(0.158838 -0.00112316 0)
(0.145309 -0.0130556 0)
(0.150061 -0.0306473 0)
(0.130901 -0.0431376 0)
(0.134684 -0.0637487 0)
(0.108252 -0.0778298 0)
(0.110999 -0.103252 0)
(0.0746205 -0.118697 0)
(0.0772949 -0.15018 0)
(0.0281579 -0.164986 0)
(0.0371491 -0.229976 0)
(-0.0268856 -0.343568 0)
(0.00805992 -0.52333 0)
(0.00143045 -0.00621778 0)
(0.00930561 0.0333724 0)
(0.0343556 0.0980339 0)
(0.0624388 0.149132 0)
(0.0861746 0.179798 0)
(0.110677 0.188294 0)
(0.127359 0.182941 0)
(0.145134 0.16717 0)
(0.153887 0.148051 0)
(0.166736 0.126568 0)
(0.169645 0.107303 0)
(0.180484 0.0878385 0)
(0.178986 0.071892 0)
(0.188906 0.0552081 0)
(0.183148 0.0421756 0)
(0.192116 0.0271563 0)
(0.181691 0.0159702 0)
(0.189471 0.00132953 0)
(0.173749 -0.00906265 0)
(0.18013 -0.0246632 0)
(0.158051 -0.0353056 0)
(0.162748 -0.0533662 0)
(0.132357 -0.0651399 0)
(0.135069 -0.087206 0)
(0.0931155 -0.10012 0)
(0.0948601 -0.12792 0)
(0.0380249 -0.142621 0)
(0.0481805 -0.204459 0)
(-0.0262294 -0.325775 0)
(0.0162283 -0.532504 0)
(0.000279822 -0.0112821 0)
(0.00339769 0.0262199 0)
(0.0191293 0.076357 0)
(0.0471393 0.131631 0)
(0.0755145 0.159075 0)
(0.10579 0.170849 0)
(0.128833 0.166931 0)
(0.153813 0.15399 0)
(0.167855 0.137621 0)
(0.187023 0.118265 0)
(0.192877 0.101101 0)
(0.208333 0.0830496 0)
(0.20779 0.0688923 0)
(0.220964 0.0533284 0)
(0.214875 0.0422111 0)
(0.226249 0.0282725 0)
(0.214615 0.0192739 0)
(0.224237 0.00580585 0)
(0.206456 -0.00204996 0)
(0.21418 -0.0161586 0)
(0.188936 -0.0237575 0)
(0.194411 -0.0395517 0)
(0.159297 -0.0475663 0)
(0.162217 -0.0660077 0)
(0.1136 -0.0748141 0)
(0.115811 -0.0982246 0)
(0.0508977 -0.112656 0)
(0.0648314 -0.171123 0)
(-0.0202726 -0.303954 0)
(0.0288506 -0.536596 0)
(0.00514391 -0.00967055 0)
(0.00607864 0.0131149 0)
(-0.000538561 0.0542878 0)
(0.0217037 0.0910865 0)
(0.0446464 0.121215 0)
(0.082546 0.133639 0)
(0.110591 0.135408 0)
(0.146285 0.127129 0)
(0.166217 0.115583 0)
(0.195169 0.100526 0)
(0.204748 0.0868009 0)
(0.227909 0.0717985 0)
(0.228512 0.0600717 0)
(0.247616 0.0468888 0)
(0.240535 0.0377107 0)
(0.25673 0.0260791 0)
(0.242419 0.0188495 0)
(0.256264 0.00801836 0)
(0.234393 0.00196117 0)
(0.246023 -0.00882465 0)
(0.215477 -0.0143863 0)
(0.22473 -0.0258171 0)
(0.183478 -0.0314594 0)
(0.190374 -0.0445112 0)
(0.135512 -0.0514965 0)
(0.142259 -0.0702485 0)
(0.0708491 -0.0877008 0)
(0.0880476 -0.142301 0)
(-0.00690069 -0.283054 0)
(0.0471898 -0.530051 0)
(-0.0249529 -0.0245654 0)
(-0.0247058 0.034453 0)
(-0.0211356 0.0608848 0)
(-0.00980717 0.0888747 0)
(0.0207119 0.0987102 0)
(0.0620248 0.10543 0)
(0.0957731 0.103946 0)
(0.139326 0.0978608 0)
(0.164473 0.0898855 0)
(0.201392 0.0789096 0)
(0.214684 0.0697147 0)
(0.244446 0.0584173 0)
(0.246763 0.0506632 0)
(0.271043 0.0404069 0)
(0.263834 0.0347065 0)
(0.284275 0.0253878 0)
(0.268352 0.0215339 0)
(0.286165 0.0126285 0)
(0.261477 0.0102715 0)
(0.27756 0.00123172 0)
(0.243113 9.79447e-05 0)
(0.258321 -0.00954197 0)
(0.211965 -0.00977599 0)
(0.227681 -0.0206775 0)
(0.165887 -0.0216075 0)
(0.185365 -0.0372143 0)
(0.104298 -0.0504158 0)
(0.136608 -0.0999787 0)
(0.0387019 -0.246608 0)
(0.0826074 -0.501091 0)
(-0.0869606 0.0463075 0)
(-0.0903069 0.00654469 0)
(-0.122302 0.0395605 0)
(-0.0768686 0.0452738 0)
(-0.0550537 0.0490501 0)
(0.00424046 0.0564359 0)
(0.038587 0.0587093 0)
(0.095894 0.0570933 0)
(0.122667 0.0544536 0)
(0.173254 0.0490353 0)
(0.186844 0.0446553 0)
(0.231086 0.0383071 0)
(0.231625 0.0342951 0)
(0.2716 0.0282755 0)
(0.260294 0.0252708 0)
(0.298339 0.0198946 0)
(0.275864 0.0177926 0)
(0.314148 0.0130775 0)
(0.280335 0.0114991 0)
(0.320892 0.00751469 0)
(0.274775 0.00592386 0)
(0.319678 0.00288686 0)
(0.259671 0.0004103 0)
(0.311179 -0.00188537 0)
(0.235397 -0.00783563 0)
(0.295464 -0.0148266 0)
(0.201887 -0.038263 0)
(0.267171 -0.0895724 0)
(0.143686 -0.224192 0)
(0.138295 -0.429453 0)
(0.0791054 0.138308 0)
(0.117361 0.0755426 0)
(0.153141 0.0483869 0)
(0.20621 0.0263082 0)
(0.222659 0.018532 0)
(0.273192 0.012848 0)
(0.290283 0.0129169 0)
(0.345634 0.0130147 0)
(0.359263 0.0135045 0)
(0.41476 0.0135373 0)
(0.420723 0.0131841 0)
(0.473772 0.0125081 0)
(0.470314 0.0116698 0)
(0.52086 0.0106675 0)
(0.507893 0.00970537 0)
(0.557004 0.00865258 0)
(0.534901 0.0077511 0)
(0.583875 0.00671567 0)
(0.55293 0.00600091 0)
(0.602956 0.00486097 0)
(0.56324 0.00453803 0)
(0.61531 0.00286906 0)
(0.566508 0.00333731 0)
(0.621174 -6.05429e-05 0)
(0.561301 0.0015859 0)
(0.616441 -0.00759244 0)
(0.533286 -0.00720823 0)
(0.568733 -0.0395874 0)
(0.391835 -0.064178 0)
(0.288981 -0.195949 0)
)
;

boundaryField
{
    movingWall
    {
        type            fixedValue;
        value           uniform (1 0 0);
    }
    fixedWalls
    {
        type            noSlip;
    }
    frontAndBack
    {
        type            empty;
    }
}


// ************************************************************************* //
