/*--------------------------------*- C++ -*----------------------------------*\
| =========                 |                                                 |
| \\      /  F ield         | OpenFOAM: The Open Source CFD Toolbox           |
|  \\    /   O peration     | Version:  2406                                  |
|   \\  /    A nd           | Website:  www.openfoam.com                      |
|    \\/     M anipulation  |                                                 |
\*---------------------------------------------------------------------------*/
FoamFile
{
    version     2.0;
    format      ascii;
    arch        "LSB;label=32;scalar=64";
    class       surfaceScalarField;
    location    "31.35";
    object      phi;
}
// * * * * * * * * * * * * * * * * * * * * * * * * * * * * * * * * * * * * * //

dimensions      [0 3 -1 0 0 0 0];

oriented        oriented;

internalField   nonuniform List<scalar> 
28560
(
-1.1528e-08
1.15204e-08
4.0251e-08
-5.40805e-08
1.59514e-07
-1.19688e-07
3.33141e-07
-1.76461e-07
5.43068e-07
-2.11508e-07
7.70728e-07
-2.30736e-07
1.0017e-06
-2.33126e-07
1.22279e-06
-2.23914e-07
1.42545e-06
-2.0474e-07
1.603e-06
-1.79804e-07
1.75272e-06
-1.51365e-07
1.87368e-06
-1.2251e-07
1.96761e-06
-9.50092e-08
2.03731e-06
-7.06109e-08
2.0868e-06
-5.00646e-08
2.12018e-06
-3.37961e-08
2.14151e-06
-2.15152e-08
2.15407e-06
-1.26224e-08
2.16026e-06
-6.10465e-09
2.16126e-06
-8.13652e-10
2.15708e-06
4.51229e-09
2.14648e-06
1.1058e-08
2.12723e-06
1.98897e-08
2.09621e-06
3.18593e-08
2.04969e-06
4.761e-08
1.98352e-06
6.75749e-08
1.89325e-06
9.20344e-08
1.77426e-06
1.21163e-07
1.62183e-06
1.55091e-07
1.4311e-06
1.93933e-07
1.1971e-06
2.37809e-07
9.14744e-07
2.86833e-07
5.7886e-07
3.41088e-07
1.8426e-07
4.00594e-07
-2.74173e-07
4.65272e-07
-8.01353e-07
5.34915e-07
-1.40184e-06
6.09162e-07
-2.07967e-06
6.8748e-07
-2.83817e-06
7.6915e-07
-3.67977e-06
8.53267e-07
-4.60584e-06
9.38736e-07
-5.61648e-06
1.02428e-06
-6.71035e-06
1.10846e-06
-7.88458e-06
1.18969e-06
-9.1346e-06
1.26628e-06
-1.04541e-05
1.33643e-06
-1.18349e-05
1.39833e-06
-1.32671e-05
1.45014e-06
-1.4739e-05
1.49008e-06
-1.62371e-05
1.5164e-06
-1.77464e-05
1.5275e-06
-1.92505e-05
1.52189e-06
-2.07315e-05
1.49827e-06
-2.21705e-05
1.45551e-06
-2.35478e-05
1.39272e-06
-2.48428e-05
1.30925e-06
-2.60348e-05
1.20468e-06
-2.71027e-05
1.07893e-06
-2.80259e-05
9.32187e-07
-2.87839e-05
7.65001e-07
-2.93575e-05
5.78288e-07
-2.97287e-05
3.73365e-07
-2.98811e-05
1.51986e-07
-2.98006e-05
-8.36351e-08
-2.94756e-05
-3.30794e-07
-2.88979e-05
-5.86287e-07
-2.80629e-05
-8.46411e-07
-2.69699e-05
-1.10698e-06
-2.56232e-05
-1.36338e-06
-2.40317e-05
-1.61063e-06
-2.22097e-05
-1.84347e-06
-2.01766e-05
-2.05654e-06
-1.79574e-05
-2.2445e-06
-1.55819e-05
-2.40225e-06
-1.30847e-05
-2.52514e-06
-1.05042e-05
-2.60918e-06
-7.88198e-06
-2.65127e-06
-5.26159e-06
-2.64943e-06
-2.68728e-06
-2.60292e-06
-2.02634e-07
-2.51241e-06
2.15084e-06
-2.38e-06
4.33516e-06
-2.20922e-06
6.31714e-06
-2.00493e-06
8.06955e-06
-1.77312e-06
9.57201e-06
-1.52067e-06
1.08115e-05
-1.25505e-06
1.17827e-05
-9.83936e-07
1.24877e-05
-7.14905e-07
1.29356e-05
-4.55044e-07
1.31419e-05
-2.10667e-07
1.31271e-05
1.29357e-08
1.29159e-05
2.11672e-07
1.25358e-05
3.82738e-07
1.20156e-05
5.24627e-07
1.13844e-05
6.37064e-07
1.06707e-05
7.20873e-07
9.90086e-06
7.7781e-07
9.09915e-06
8.10339e-07
8.2867e-06
8.21439e-07
7.48146e-06
8.14359e-07
6.69806e-06
7.92466e-07
5.94786e-06
7.59022e-07
5.23922e-06
7.17136e-07
4.57768e-06
6.69566e-07
3.96642e-06
6.18816e-07
3.40647e-06
5.66906e-07
2.89729e-06
5.15666e-07
2.43676e-06
4.66337e-07
2.02206e-06
4.20135e-07
1.64935e-06
3.7743e-07
1.31508e-06
3.38792e-07
1.01546e-06
3.03318e-07
7.48451e-07
2.70746e-07
5.13003e-07
2.38131e-07
3.1153e-07
2.04489e-07
1.48843e-07
1.64237e-07
3.2956e-08
1.1806e-07
-2.67497e-08
6.01085e-08
-3.14471e-08
5.92157e-09
-3.14958e-08
5.23552e-08
-3.85323e-08
2.40641e-07
-2.42342e-07
5.62386e-07
-4.3718e-07
9.9082e-07
-6.02467e-07
1.49516e-06
-7.10655e-07
2.03802e-06
-7.69601e-07
2.5887e-06
-7.78498e-07
3.11795e-06
-7.48883e-07
3.60527e-06
-6.87438e-07
4.03449e-06
-6.05365e-07
4.39735e-06
-5.10752e-07
4.69e-06
-4.12525e-07
4.91415e-06
-3.16911e-07
5.0743e-06
-2.29191e-07
5.17763e-06
-1.52186e-07
5.23177e-06
-8.72093e-08
5.2443e-06
-3.36046e-08
5.22124e-06
1.05571e-08
5.16663e-06
4.84149e-08
5.08177e-06
8.37187e-08
4.96518e-06
1.20555e-07
4.81256e-06
1.62873e-07
4.61709e-06
2.14244e-07
4.36984e-06
2.7761e-07
4.06026e-06
3.55237e-07
3.67659e-06
4.48719e-07
3.20634e-06
5.59107e-07
2.63649e-06
6.87051e-07
1.95379e-06
8.32948e-07
1.14485e-06
9.97025e-07
1.96312e-07
1.17938e-06
-9.04995e-07
1.37993e-06
-2.17182e-06
1.59835e-06
-3.6162e-06
1.83394e-06
-5.24907e-06
2.08554e-06
-7.07986e-06
2.35143e-06
-9.116e-06
2.62926e-06
-1.13624e-05
2.91605e-06
-1.38211e-05
3.20811e-06
-1.64906e-05
3.50116e-06
-1.93656e-05
3.79031e-06
-2.24368e-05
4.07017e-06
-2.56904e-05
4.33499e-06
-2.91081e-05
4.57875e-06
-3.26673e-05
4.79531e-06
-3.63409e-05
4.97863e-06
-4.00979e-05
5.12286e-06
-4.39035e-05
5.22254e-06
-4.77198e-05
5.27271e-06
-5.15063e-05
5.26904e-06
-5.52203e-05
5.20792e-06
-5.88179e-05
5.08652e-06
-6.22544e-05
4.90284e-06
-6.54851e-05
4.65573e-06
-6.84659e-05
4.34489e-06
-7.11538e-05
3.97087e-06
-7.35077e-05
3.53506e-06
-7.54888e-05
3.03969e-06
-7.70611e-05
2.48783e-06
-7.81923e-05
1.88338e-06
-7.88536e-05
1.23112e-06
-7.90208e-05
5.36689e-07
-7.86746e-05
-1.93339e-07
-7.78007e-05
-9.51469e-07
-7.63911e-05
-1.72925e-06
-7.44437e-05
-2.51727e-06
-7.19634e-05
-3.30519e-06
-6.89618e-05
-4.0818e-06
-6.54585e-05
-4.83513e-06
-6.14802e-05
-5.55259e-06
-5.70618e-05
-6.22121e-06
-5.22459e-05
-6.8279e-06
-4.70826e-05
-7.35981e-06
-4.16294e-05
-7.8047e-06
-3.59503e-05
-8.15143e-06
-3.01147e-05
-8.39037e-06
-2.4197e-05
-8.5139e-06
-1.82746e-05
-8.51687e-06
-1.24264e-05
-8.39697e-06
-6.73128e-06
-8.15506e-06
-1.26586e-06
-7.79534e-06
3.89729e-06
-7.32539e-06
8.69165e-06
-6.75606e-06
1.30587e-05
-6.10121e-06
1.69495e-05
-5.37725e-06
2.03261e-05
-4.60256e-06
2.31628e-05
-3.79678e-06
2.54465e-05
-2.98007e-06
2.7177e-05
-2.17229e-06
2.83667e-05
-1.39222e-06
2.90398e-05
-6.56821e-07
2.92311e-05
1.93437e-08
2.89843e-05
6.24627e-07
2.83501e-05
1.1506e-06
2.73839e-05
1.59218e-06
2.61438e-05
1.94763e-06
2.46884e-05
2.21831e-06
2.30744e-05
2.40829e-06
2.13551e-05
2.52395e-06
1.95791e-05
2.57333e-06
1.77891e-05
2.56563e-06
1.60211e-05
2.51055e-06
1.43046e-05
2.4179e-06
1.26621e-05
2.29703e-06
1.11103e-05
2.1567e-06
9.65954e-06
2.00458e-06
8.31576e-06
1.84753e-06
7.08018e-06
1.6909e-06
5.95116e-06
1.53931e-06
4.92419e-06
1.39527e-06
3.99437e-06
1.26071e-06
3.15597e-06
1.1342e-06
2.40621e-06
1.0144e-06
1.74387e-06
8.94409e-07
1.17396e-06
7.70186e-07
7.04174e-07
6.29444e-07
3.47775e-07
4.7246e-07
1.15404e-07
2.89558e-07
7.30587e-09
1.14166e-07
-2.53952e-08
1.14132e-07
-1.5226e-07
4.27458e-07
-5.59893e-07
9.20639e-07
-9.30369e-07
1.54828e-06
-1.23449e-06
2.2716e-06
-1.43615e-06
3.04051e-06
-1.54297e-06
3.81503e-06
-1.55612e-06
4.55568e-06
-1.4936e-06
5.23444e-06
-1.36925e-06
5.82858e-06
-1.20277e-06
6.3256e-06
-1.01022e-06
6.71877e-06
-8.07994e-07
7.00863e-06
-6.08415e-07
7.19945e-06
-4.21385e-07
7.29891e-06
-2.52562e-07
7.31543e-06
-1.04389e-07
7.25716e-06
2.43157e-08
7.13015e-06
1.374e-07
6.9376e-06
2.4101e-07
6.67892e-06
3.42609e-07
6.34957e-06
4.50307e-07
5.94102e-06
5.72018e-07
5.4412e-06
7.14908e-07
4.83501e-06
8.84937e-07
4.10505e-06
1.0867e-06
3.23225e-06
1.32346e-06
2.19652e-06
1.5973e-06
9.77246e-07
1.90939e-06
-4.46265e-07
2.26022e-06
-2.09442e-06
2.64973e-06
-3.9869e-06
3.0773e-06
-6.14225e-06
3.54169e-06
-8.57725e-06
4.04084e-06
-1.13063e-05
4.57168e-06
-1.43408e-05
5.12993e-06
-1.76881e-05
5.70998e-06
-2.13511e-05
6.30485e-06
-2.53271e-05
6.90614e-06
-2.96075e-05
7.50418e-06
-3.41775e-05
8.08818e-06
-3.90151e-05
8.64649e-06
-4.40917e-05
9.16687e-06
-4.93721e-05
9.63688e-06
-5.48148e-05
1.00442e-05
-6.03727e-05
1.03771e-05
-6.5994e-05
1.06248e-05
-7.16229e-05
1.07775e-05
-7.72011e-05
1.08271e-05
-8.26689e-05
1.07671e-05
-8.79659e-05
1.05927e-05
-9.30326e-05
1.0301e-05
-9.7811e-05
9.89076e-06
-0.000102246
9.3624e-06
-0.000106284
8.71797e-06
-0.000109878
7.96093e-06
-0.000112983
7.09602e-06
-0.000115559
6.12919e-06
-0.000117571
5.06746e-06
-0.000118989
3.91887e-06
-0.000119789
2.69246e-06
-0.00011995
1.39825e-06
-0.000119458
4.72746e-08
-0.000118304
-1.34839e-06
-0.000116485
-2.77555e-06
-0.000114004
-4.2199e-06
-0.000110868
-5.66593e-06
-0.000107094
-7.09699e-06
-0.000102702
-8.49531e-06
-9.77204e-05
-9.84211e-06
-9.21842e-05
-1.11178e-05
-8.61355e-05
-1.23023e-05
-7.96236e-05
-1.33754e-05
-7.27046e-05
-1.4317e-05
-6.54416e-05
-1.5108e-05
-5.79043e-05
-1.57308e-05
-5.01679e-05
-1.61699e-05
-4.23128e-05
-1.64127e-05
-3.44231e-05
-1.64501e-05
-2.65858e-05
-1.62772e-05
-1.88887e-05
-1.58938e-05
-1.1419e-05
-1.53047e-05
-4.26156e-06
-1.452e-05
2.50318e-06
-1.3555e-05
8.80106e-06
-1.24299e-05
1.4566e-05
-1.11692e-05
1.97417e-05
-9.80133e-06
2.42832e-05
-8.35718e-06
2.81579e-05
-6.86956e-06
3.13469e-05
-5.37184e-06
3.38449e-05
-3.8968e-06
3.56607e-05
-2.4755e-06
3.68169e-05
-1.13623e-06
3.73486e-05
9.64998e-08
3.73028e-05
1.20272e-06
3.67359e-05
2.16759e-06
3.57121e-05
2.98174e-06
3.43007e-05
3.64137e-06
3.25735e-05
4.14802e-06
3.06025e-05
4.50809e-06
2.8457e-05
4.73214e-06
2.62019e-05
4.83405e-06
2.38954e-05
4.82992e-06
2.15886e-05
4.73722e-06
1.93237e-05
4.57366e-06
1.71349e-05
4.35662e-06
1.50476e-05
4.10217e-06
1.30796e-05
3.825e-06
1.12417e-05
3.53738e-06
9.53923e-06
3.24978e-06
7.97242e-06
2.96903e-06
6.53976e-06
2.69999e-06
5.23739e-06
2.44199e-06
4.06433e-06
2.19293e-06
3.02012e-06
1.9425e-06
2.11196e-06
1.68283e-06
1.34798e-06
1.39547e-06
7.45581e-07
1.07847e-06
3.15612e-07
7.19301e-07
7.08341e-08
3.6202e-07
4.48013e-08
1.67812e-07
-3.17252e-07
5.88398e-07
-9.82905e-07
1.22103e-06
-1.55862e-06
2.00087e-06
-2.01438e-06
2.88207e-06
-2.31365e-06
3.80527e-06
-2.46472e-06
4.72517e-06
-2.47275e-06
5.59595e-06
-2.36242e-06
6.38522e-06
-2.15581e-06
7.06605e-06
-1.88176e-06
7.62305e-06
-1.56518e-06
8.04704e-06
-1.23059e-06
8.33689e-06
-8.96937e-07
8.49546e-06
-5.79066e-07
8.52923e-06
-2.8559e-07
8.44522e-06
-1.99326e-08
8.24986e-06
2.19974e-07
7.9469e-06
4.40465e-07
7.53649e-06
6.5141e-07
7.01414e-06
8.64785e-07
6.37062e-06
1.09353e-06
5.5919e-06
1.35028e-06
4.65977e-06
1.64641e-06
3.55251e-06
1.99134e-06
2.24583e-06
2.39227e-06
7.13698e-07
2.85415e-06
-1.07074e-06
3.37991e-06
-3.13441e-06
3.9708e-06
-5.50361e-06
4.62665e-06
-8.2032e-06
5.34598e-06
-1.12559e-05
6.12597e-06
-1.46811e-05
6.96228e-06
-1.84945e-05
7.84875e-06
-2.27063e-05
8.77718e-06
-2.73207e-05
9.73706e-06
-3.23344e-05
1.07156e-05
-3.77364e-05
1.16977e-05
-4.35068e-05
1.26662e-05
-4.96164e-05
1.36025e-05
-5.60273e-05
1.44867e-05
-6.26929e-05
1.52986e-05
-6.95585e-05
1.60181e-05
-7.65631e-05
1.6626e-05
-8.364e-05
1.71048e-05
-9.07193e-05
1.74392e-05
-9.77288e-05
1.76164e-05
-0.000104596
1.76267e-05
-0.000111251
1.74632e-05
-0.000117626
1.71224e-05
-0.000123655
1.66035e-05
-0.000129281
1.59082e-05
-0.00013445
1.50409e-05
-0.000139113
1.40078e-05
-0.000143228
1.28166e-05
-0.000146759
1.14768e-05
-0.000149676
9.99848e-06
-0.000151952
8.39298e-06
-0.000153567
6.67226e-06
-0.000154506
4.849e-06
-0.000154756
2.93659e-06
-0.00015431
9.49174e-07
-0.000153166
-1.09827e-06
-0.000151323
-3.18978e-06
-0.000148786
-5.30828e-06
-0.000145563
-7.43546e-06
-0.000141668
-9.55165e-06
-0.000137116
-1.16357e-05
-0.000131931
-1.36652e-05
-0.000126139
-1.56161e-05
-0.000119773
-1.74633e-05
-0.000112872
-1.9181e-05
-0.00010548
-2.07425e-05
-9.76489e-05
-2.21215e-05
-8.94366e-05
-2.32923e-05
-8.09075e-05
-2.4231e-05
-7.2132e-05
-2.49157e-05
-6.31864e-05
-2.53284e-05
-5.41516e-05
-2.5455e-05
-4.51125e-05
-2.52869e-05
-3.61566e-05
-2.48212e-05
-2.73721e-05
-2.4062e-05
-1.88468e-05
-2.30197e-05
-1.06663e-05
-2.1712e-05
-2.91165e-06
-2.01633e-05
4.34182e-06
-1.8404e-05
1.10264e-05
-1.64699e-05
1.70836e-05
-1.44011e-05
2.24652e-05
-1.22408e-05
2.71348e-05
-1.00339e-05
3.10684e-05
-7.82554e-06
3.42551e-05
-5.65996e-06
3.66976e-05
-3.57886e-06
3.8412e-05
-1.62027e-06
3.94279e-05
1.82639e-07
3.97872e-05
1.80257e-06
3.95429e-05
3.2189e-06
3.8758e-05
4.41826e-06
3.75025e-05
5.39473e-06
3.58517e-05
6.14978e-06
3.38827e-05
6.69175e-06
3.16724e-05
7.03504e-06
2.92942e-05
7.19895e-06
2.68162e-05
7.2064e-06
2.4299e-05
7.0824e-06
2.17949e-05
6.8529e-06
1.93465e-05
6.54317e-06
1.69876e-05
6.1772e-06
1.47426e-05
5.7761e-06
1.26287e-05
5.35822e-06
1.06555e-05
4.93693e-06
8.82923e-06
4.52191e-06
7.15157e-06
4.11519e-06
5.62611e-06
3.71529e-06
4.25466e-06
3.31009e-06
3.04738e-06
2.88843e-06
2.01242e-06
2.4269e-06
1.17185e-06
1.91927e-06
5.38343e-07
1.349e-06
1.43895e-07
7.59052e-07
1.86345e-07
2.04122e-07
-5.19736e-07
7.05953e-07
-1.49001e-06
1.44581e-06
-2.29618e-06
2.33978e-06
-2.91211e-06
3.33338e-06
-3.30714e-06
4.35817e-06
-3.49243e-06
5.36439e-06
-3.47989e-06
6.30149e-06
-3.30187e-06
7.13452e-06
-2.99006e-06
7.83392e-06
-2.58296e-06
8.38267e-06
-2.11503e-06
8.7699e-06
-1.61907e-06
8.99297e-06
-1.12081e-06
9.05294e-06
-6.39811e-07
8.9542e-06
-1.87312e-07
8.70103e-06
2.32843e-07
8.29653e-06
6.24276e-07
7.74029e-06
9.9659e-07
7.02756e-06
1.36417e-06
6.14817e-06
1.74427e-06
5.08663e-06
2.15531e-06
3.82216e-06
2.61508e-06
2.32962e-06
3.13943e-06
5.80366e-07
3.74123e-06
-1.45652e-06
4.43e-06
-3.81311e-06
5.21181e-06
-6.52143e-06
6.08958e-06
-9.61234e-06
7.06339e-06
-1.31144e-05
8.13076e-06
-1.70526e-05
9.28668e-06
-2.14472e-05
1.05235e-05
-2.63122e-05
1.18308e-05
-3.1654e-05
1.31946e-05
-3.74702e-05
1.4598e-05
-4.37481e-05
1.60204e-05
-5.04644e-05
1.7438e-05
-5.75843e-05
1.88244e-05
-6.50618e-05
2.01513e-05
-7.28404e-05
2.13895e-05
-8.08544e-05
2.25099e-05
-8.90303e-05
2.34844e-05
-9.72894e-05
2.42877e-05
-0.00010555
2.48975e-05
-0.000113729
2.52955e-05
-0.000121745
2.54681e-05
-0.000129522
2.5406e-05
-0.000136987
2.51049e-05
-0.000144075
2.45643e-05
-0.000150727
2.37879e-05
-0.000156892
2.27823e-05
-0.000162528
2.15569e-05
-0.000167597
2.01228e-05
-0.00017207
1.84928e-05
-0.000175922
1.66806e-05
-0.000179135
1.47005e-05
-0.000181694
1.25671e-05
-0.000183588
1.02953e-05
-0.000184809
7.90005e-06
-0.000185351
5.39662e-06
-0.000185211
2.80056e-06
-0.000184388
1.27935e-07
-0.000182882
-2.60445e-06
-0.000180694
-5.37882e-06
-0.00017783
-8.17612e-06
-0.000174295
-1.09758e-05
-0.000170099
-1.37556e-05
-0.000165253
-1.64914e-05
-0.000159772
-1.91569e-05
-0.000153678
-2.17241e-05
-0.000146993
-2.4163e-05
-0.000139748
-2.64422e-05
-0.000131979
-2.8529e-05
-0.000123729
-3.03905e-05
-0.000115047
-3.19941e-05
-0.00010599
-3.33085e-05
-9.66213e-05
-3.43049e-05
-8.70125e-05
-3.49583e-05
-7.724e-05
-3.52485e-05
-6.7386e-05
-3.51615e-05
-5.75368e-05
-3.46904e-05
-4.77812e-05
-3.38366e-05
-3.82091e-05
-3.26097e-05
-2.89092e-05
-3.10284e-05
-1.99676e-05
-2.91198e-05
-1.14658e-05
-2.6919e-05
-3.47892e-06
-2.44681e-05
3.92555e-06
-2.1815e-05
1.06892e-05
-1.90119e-05
1.67635e-05
-1.61137e-05
2.2111e-05
-1.31766e-05
2.67054e-05
-1.02561e-05
3.05325e-05
-7.40602e-06
3.35903e-05
-4.67668e-06
3.58895e-05
-2.11379e-06
3.74532e-05
2.42777e-07
3.83168e-05
2.36013e-06
3.85274e-05
4.21326e-06
3.81424e-05
5.78576e-06
3.72284e-05
7.07027e-06
3.58582e-05
8.06842e-06
3.41094e-05
8.79051e-06
3.20603e-05
9.25449e-06
2.97882e-05
9.48482e-06
2.73659e-05
9.51065e-06
2.48601e-05
9.36434e-06
2.23293e-05
9.07923e-06
1.9823e-05
8.68843e-06
1.73809e-05
8.22251e-06
1.50345e-05
7.70892e-06
1.28056e-05
7.16924e-06
1.07114e-05
6.61977e-06
8.76179e-06
6.06731e-06
6.96763e-06
5.51268e-06
5.33515e-06
4.94396e-06
3.87939e-06
4.34735e-06
2.61049e-06
3.69561e-06
1.55764e-06
2.97579e-06
7.38656e-07
2.16534e-06
2.07593e-07
1.29528e-06
3.91967e-07
2.31292e-07
-7.47807e-07
7.94002e-07
-2.05702e-06
1.61224e-06
-3.10973e-06
2.58535e-06
-3.88696e-06
3.64962e-06
-4.36839e-06
4.72815e-06
-4.57112e-06
5.76714e-06
-4.51669e-06
6.71247e-06
-4.24667e-06
7.52774e-06
-3.80369e-06
8.182e-06
-3.2365e-06
8.65755e-06
-2.58941e-06
8.94241e-06
-1.9033e-06
9.03265e-06
-1.21028e-06
8.92718e-06
-5.33913e-07
8.62751e-06
1.12798e-07
8.13402e-06
7.26557e-07
7.44496e-06
1.31353e-06
6.55409e-06
1.88752e-06
5.45001e-06
2.46826e-06
4.11533e-06
3.07885e-06
2.52696e-06
3.74352e-06
6.5657e-07
4.48521e-06
-1.52821e-06
5.32385e-06
-4.06254e-06
6.27506e-06
-6.98275e-06
7.34958e-06
-1.03249e-05
8.55316e-06
-1.41231e-05
9.88681e-06
-1.84082e-05
1.13472e-05
-2.32055e-05
1.29266e-05
-2.85339e-05
1.46132e-05
-3.44034e-05
1.63908e-05
-4.08138e-05
1.82386e-05
-4.77532e-05
2.0131e-05
-5.51965e-05
2.20379e-05
-6.31052e-05
2.39251e-05
-7.14274e-05
2.57557e-05
-8.00987e-05
2.74906e-05
-8.90436e-05
2.90907e-05
-9.81783e-05
3.0518e-05
-0.000107413
3.17379e-05
-0.000116656
3.27198e-05
-0.000125815
3.34389e-05
-0.000134802
3.38764e-05
-0.000143535
3.40201e-05
-0.00015194
3.3864e-05
-0.000159951
3.3408e-05
-0.000167513
3.26571e-05
-0.000174578
3.16205e-05
-0.00018111
3.03104e-05
-0.000187079
2.87416e-05
-0.000192462
2.69303e-05
-0.000197241
2.48937e-05
-0.000201406
2.26491e-05
-0.000204947
2.02136e-05
-0.000207858
1.76043e-05
-0.000210134
1.48376e-05
-0.000211774
1.19296e-05
-0.000212774
8.89578e-06
-0.000213133
5.75186e-06
-0.000212848
2.51349e-06
-0.000211917
-8.03212e-07
-0.00021034
-4.18131e-06
-0.000208115
-7.60272e-06
-0.00020524
-1.10478e-05
-0.000201716
-1.4495e-05
-0.000197545
-1.79205e-05
-0.000192731
-2.12981e-05
-0.000187281
-2.45989e-05
-0.000181204
-2.77913e-05
-0.000174515
-3.08408e-05
-0.000167234
-3.37109e-05
-0.000159388
-3.6363e-05
-0.000151007
-3.87574e-05
-0.000142133
-4.08538e-05
-0.000132814
-4.2613e-05
-0.000123106
-4.39981e-05
-0.000113074
-4.49757e-05
-0.000102789
-4.55177e-05
-9.23334e-05
-4.56029e-05
-8.1791e-05
-4.52186e-05
-7.12526e-05
-4.43615e-05
-6.08109e-05
-4.30387e-05
-5.05594e-05
-4.12682e-05
-4.05898e-05
-3.90787e-05
-3.09903e-05
-3.65091e-05
-2.18432e-05
-3.36071e-05
-1.32236e-05
-3.04279e-05
-5.19764e-06
-2.70324e-05
2.17779e-06
-2.34851e-05
8.85617e-06
-1.98522e-05
1.48014e-05
-1.61999e-05
1.9988e-05
-1.25924e-05
2.44012e-05
-9.09073e-06
2.80372e-05
-5.75155e-06
3.09031e-05
-2.6257e-06
3.30172e-05
2.42714e-07
3.44093e-05
2.81738e-06
3.51202e-05
5.07075e-06
3.52011e-05
6.98486e-06
3.4713e-05
8.55188e-06
3.37247e-05
9.77425e-06
3.23102e-05
1.06643e-05
3.0547e-05
1.12436e-05
2.85122e-05
1.15411e-05
2.62808e-05
1.15918e-05
2.3922e-05
1.14342e-05
2.14985e-05
1.11085e-05
1.9064e-05
1.06537e-05
1.6664e-05
1.01062e-05
1.4334e-05
9.49637e-06
1.21034e-05
8.84832e-06
9.99271e-06
8.17534e-06
8.02213e-06
7.4821e-06
6.20456e-06
6.75887e-06
4.56188e-06
5.99011e-06
3.10848e-06
5.14579e-06
1.88219e-06
4.20415e-06
9.08147e-07
3.13442e-06
2.61465e-07
1.94701e-06
6.50047e-07
2.49607e-07
-9.94914e-07
8.54818e-07
-2.66816e-06
1.7259e-06
-3.97715e-06
2.74731e-06
-4.91202e-06
3.84585e-06
-5.46561e-06
4.93642e-06
-5.66401e-06
5.96114e-06
-5.54123e-06
6.86293e-06
-5.15004e-06
7.60456e-06
-4.54562e-06
8.15458e-06
-3.78763e-06
8.49526e-06
-2.9305e-06
8.61405e-06
-2.02284e-06
8.50582e-06
-1.10239e-06
8.16711e-06
-1.95664e-07
7.59589e-06
6.83803e-07
6.78761e-06
1.53459e-06
5.73438e-06
2.36666e-06
4.4227e-06
3.19912e-06
2.83319e-06
4.05779e-06
9.40054e-07
4.97204e-06
-1.28807e-06
5.97177e-06
-3.88717e-06
7.0845e-06
-6.89615e-06
8.33311e-06
-1.03551e-05
9.73433e-06
-1.4303e-05
1.1298e-05
-1.87763e-05
1.30271e-05
-2.38063e-05
1.49175e-05
-2.94172e-05
1.6959e-05
-3.56241e-05
1.91346e-05
-4.24309e-05
2.14214e-05
-4.98283e-05
2.37899e-05
-5.77923e-05
2.62046e-05
-6.62833e-05
2.86243e-05
-7.52461e-05
3.10032e-05
-8.46107e-05
3.32927e-05
-9.42943e-05
3.54426e-05
-0.000104204
3.74043e-05
-0.000114241
3.9132e-05
-0.000124305
4.05856e-05
-0.000134294
4.17318e-05
-0.000144114
4.25452e-05
-0.000153678
4.30091e-05
-0.000162911
4.31147e-05
-0.000171746
4.28612e-05
-0.00018013
4.22542e-05
-0.00018802
4.13046e-05
-0.000195384
4.00276e-05
-0.000202197
3.84411e-05
-0.000208445
3.65647e-05
-0.000214116
3.44189e-05
-0.000219203
3.20243e-05
-0.000223704
2.94008e-05
-0.000227617
2.65678e-05
-0.000230942
2.35435e-05
-0.000233678
2.0345e-05
-0.000235825
1.69886e-05
-0.000237382
1.34897e-05
-0.000238346
9.86321e-06
-0.000238716
6.12363e-06
-0.000238487
2.28572e-06
-0.000237655
-1.63529e-06
-0.000236214
-5.62322e-06
-0.000234158
-9.66049e-06
-0.00023148
-1.37277e-05
-0.000228176
-1.78031e-05
-0.000224239
-2.18623e-05
-0.000219665
-2.58777e-05
-0.000214452
-2.98185e-05
-0.0002086
-3.36503e-05
-0.000202113
-3.73351e-05
-0.000195001
-4.08317e-05
-0.000187278
-4.40957e-05
-0.000178964
-4.70807e-05
-0.00017009
-4.97387e-05
-0.000160691
-5.20217e-05
-0.000150817
-5.38835e-05
-0.000140522
-5.52806e-05
-0.000129875
-5.61752e-05
-0.000118952
-5.65366e-05
-0.000107837
-5.63434e-05
-9.66229e-05
-5.55851e-05
-8.5407e-05
-5.42636e-05
-7.42892e-05
-5.23942e-05
-6.33702e-05
-5.00053e-05
-5.27475e-05
-4.71383e-05
-4.25141e-05
-4.38462e-05
-3.27549e-05
-4.01918e-05
-2.35457e-05
-3.62453e-05
-1.4952e-05
-3.20816e-05
-7.02795e-06
-2.77783e-05
1.83555e-07
-2.34124e-05
6.65032e-06
-1.90593e-05
1.23506e-05
-1.47904e-05
1.72723e-05
-1.0672e-05
2.14129e-05
-6.7646e-06
2.47795e-05
-3.12159e-06
2.73884e-05
2.11115e-07
2.92659e-05
3.19615e-06
3.04484e-05
5.80555e-06
3.0982e-05
8.02153e-06
3.09223e-05
9.83718e-06
3.03332e-05
1.12567e-05
2.92848e-05
1.22951e-05
2.78514e-05
1.29775e-05
2.61087e-05
1.33374e-05
2.41306e-05
1.34148e-05
2.19879e-05
1.32538e-05
1.97442e-05
1.28995e-05
1.7457e-05
1.23956e-05
1.5174e-05
1.1781e-05
1.2937e-05
1.10874e-05
1.07778e-05
1.03355e-05
8.7271e-06
9.53497e-06
6.80636e-06
8.67964e-06
5.04609e-06
7.75301e-06
3.46727e-06
6.72308e-06
2.11749e-06
5.55794e-06
1.03051e-06
4.21701e-06
2.99489e-07
2.68474e-06
9.46449e-07
2.63625e-07
-1.25515e-06
8.97517e-07
-3.30741e-06
1.79918e-06
-4.87391e-06
2.83984e-06
-5.95533e-06
3.93715e-06
-6.56015e-06
4.99862e-06
-6.72646e-06
5.9627e-06
-6.50361e-06
6.77017e-06
-5.95769e-06
7.38363e-06
-5.15796e-06
7.77184e-06
-4.1757e-06
7.91755e-06
-3.07546e-06
7.80784e-06
-1.91291e-06
7.43627e-06
-7.30356e-07
6.79653e-06
4.44254e-07
5.88219e-06
1.59842e-06
4.68268e-06
2.7342e-06
3.18272e-06
3.86674e-06
1.36036e-06
5.0215e-06
-8.12745e-07
6.2309e-06
-3.37124e-06
7.53048e-06
-6.35457e-06
8.95502e-06
-9.8053e-06
1.05351e-05
-1.37667e-05
1.22943e-05
-1.82805e-05
1.42479e-05
-2.33842e-05
1.64013e-05
-2.91084e-05
1.87509e-05
-3.54748e-05
2.12833e-05
-4.24929e-05
2.39765e-05
-5.01587e-05
2.67996e-05
-5.84518e-05
2.97134e-05
-6.73345e-05
3.26714e-05
-7.67513e-05
3.562e-05
-8.66298e-05
3.85011e-05
-9.68823e-05
4.12538e-05
-0.000107409
4.38174e-05
-0.000118103
4.61343e-05
-0.000128854
4.81526e-05
-0.000139554
4.98284e-05
-0.000150099
5.11279e-05
-0.000160398
5.20273e-05
-0.00017037
5.25135e-05
-0.000179949
5.25831e-05
-0.000189079
5.22411e-05
-0.000197721
5.14992e-05
-0.000205846
5.03747e-05
-0.000213434
4.88881e-05
-0.000220474
4.70622e-05
-0.000226958
4.49211e-05
-0.000232886
4.24884e-05
-0.000238259
3.97874e-05
-0.00024308
3.68402e-05
-0.00024735
3.36676e-05
-0.000251075
3.02886e-05
-0.000254256
2.6721e-05
-0.000256895
2.2981e-05
-0.000258993
1.90838e-05
-0.000260549
1.50435e-05
-0.000261561
1.08734e-05
-0.000262025
6.58692e-06
-0.000261937
2.19717e-06
-0.00026129
-2.282e-06
-0.000260077
-6.83575e-06
-0.000258288
-1.14478e-05
-0.000255914
-1.60997e-05
-0.000252944
-2.07705e-05
-0.000249366
-2.54364e-05
-0.00024517
-3.00697e-05
-0.000240344
-3.46389e-05
-0.000234881
-3.91083e-05
-0.000228773
-4.34375e-05
-0.000222016
-4.75819e-05
-0.000214613
-5.14925e-05
-0.000206569
-5.51168e-05
-0.000197901
-5.83996e-05
-0.000188631
-6.12839e-05
-0.000178794
-6.37134e-05
-0.000168433
-6.56335e-05
-0.000157607
-6.69942e-05
-0.000146383
-6.77527e-05
-0.000134844
-6.78756e-05
-0.00012308
-6.73416e-05
-0.000111194
-6.61436e-05
-9.92921e-05
-6.42901e-05
-8.7486e-05
-6.18061e-05
-7.58867e-05
-5.87329e-05
-6.46018e-05
-5.51271e-05
-5.3732e-05
-5.10583e-05
-4.33679e-05
-4.66066e-05
-3.35883e-05
-4.18592e-05
-2.44585e-05
-3.69066e-05
-1.60304e-05
-3.18398e-05
-8.34236e-06
-2.67471e-05
-1.42114e-06
-2.17119e-05
4.71741e-06
-1.68114e-05
1.00668e-05
-1.21151e-05
1.46288e-05
-7.68516e-06
1.84133e-05
-3.57512e-06
2.14376e-05
1.69847e-07
2.37274e-05
3.51368e-06
2.53166e-05
6.43009e-06
2.62482e-05
8.90335e-06
2.65736e-05
1.09289e-05
2.63527e-05
1.25139e-05
2.56513e-05
1.36767e-05
2.45404e-05
1.44463e-05
2.30929e-05
1.48604e-05
2.13817e-05
1.49634e-05
1.94759e-05
1.48035e-05
1.74409e-05
1.44293e-05
1.53342e-05
1.38861e-05
1.32082e-05
1.32125e-05
1.11056e-05
1.24365e-05
9.06766e-06
1.15728e-05
7.12553e-06
1.06197e-05
5.31926e-06
9.56033e-06
3.67793e-06
8.36129e-06
2.25899e-06
6.98001e-06
1.105e-06
5.36536e-06
3.22691e-07
3.47355e-06
1.26523e-06
2.7332e-07
-1.52551e-06
9.23318e-07
-3.96361e-06
1.83488e-06
-5.78112e-06
2.86696e-06
-6.99101e-06
3.92865e-06
-7.61991e-06
4.92101e-06
-7.72086e-06
5.77942e-06
-7.3613e-06
6.44338e-06
-6.62287e-06
6.87594e-06
-5.59037e-06
7.04665e-06
-4.34718e-06
6.93895e-06
-2.96782e-06
6.53962e-06
-1.51406e-06
5.84048e-06
-3.13278e-08
4.83172e-06
1.45272e-06
3.50158e-06
2.92848e-06
1.83242e-06
4.40321e-06
-1.99437e-07
5.89856e-06
-2.6251e-06
7.44711e-06
-5.48209e-06
9.08791e-06
-8.81335e-06
1.08618e-05
-1.26648e-05
1.28066e-05
-1.70831e-05
1.49534e-05
-2.21118e-05
1.73232e-05
-2.77891e-05
1.99254e-05
-3.41444e-05
2.27569e-05
-4.11953e-05
2.58021e-05
-4.89449e-05
2.90334e-05
-5.73795e-05
3.24116e-05
-6.64666e-05
3.58873e-05
-7.61539e-05
3.94015e-05
-8.63698e-05
4.28882e-05
-9.70248e-05
4.62761e-05
-0.000108015
4.94926e-05
-0.000119227
5.24668e-05
-0.000130541
5.51333e-05
-0.000141841
5.74356e-05
-0.000153014
5.93281e-05
-0.000163961
6.07777e-05
-0.000174595
6.1764e-05
-0.000184844
6.22787e-05
-0.000194652
6.23241e-05
-0.000203978
6.19114e-05
-0.000212792
6.10583e-05
-0.000221077
5.97875e-05
-0.000228824
5.81245e-05
-0.000236029
5.60963e-05
-0.000242694
5.37302e-05
-0.000248822
5.1053e-05
-0.000254421
4.80902e-05
-0.000259496
4.48656e-05
-0.000264055
4.14015e-05
-0.000268103
3.77182e-05
-0.000271646
3.38342e-05
-0.000274689
2.97662e-05
-0.000277235
2.55294e-05
-0.000279287
2.11377e-05
-0.000280847
1.66038e-05
-0.000281912
1.19397e-05
-0.000282482
7.15696e-06
-0.000282552
2.267e-06
-0.000282116
-2.71818e-06
-0.000281167
-7.78575e-06
-0.000279695
-1.29214e-05
-0.000277688
-1.81087e-05
-0.000275132
-2.33288e-05
-0.000272012
-2.85595e-05
-0.00026831
-3.37746e-05
-0.000264009
-3.89437e-05
-0.00025909
-4.40312e-05
-0.000253536
-4.89965e-05
-0.000247329
-5.37932e-05
-0.000240457
-5.83695e-05
-0.000232911
-6.26684e-05
-0.000224688
-6.66284e-05
-0.000215792
-7.01847e-05
-0.000206241
-7.32705e-05
-0.00019606
-7.58195e-05
-0.000185292
-7.77681e-05
-0.000173991
-7.90587e-05
-0.00016223
-7.96425e-05
-0.000150093
-7.94828e-05
-0.000137683
-7.85586e-05
-0.000125111
-7.68663e-05
-0.000112499
-7.4422e-05
-9.99724e-05
-7.12624e-05
-8.76587e-05
-6.74436e-05
-7.56796e-05
-6.30398e-05
-6.4148e-05
-5.81402e-05
-5.31639e-05
-5.28447e-05
-4.28118e-05
-4.72597e-05
-3.3159e-05
-4.14932e-05
-2.42555e-05
-3.56508e-05
-1.61353e-05
-2.9832e-05
-8.81815e-06
-2.4128e-05
-2.31206e-06
-1.86204e-05
3.38443e-06
-1.33806e-05
8.28044e-06
-8.46988e-06
1.23914e-05
-3.93976e-06
1.57389e-05
1.67677e-07
1.83506e-05
3.81998e-06
2.02609e-05
6.99468e-06
2.15114e-05
9.67998e-06
2.21516e-05
1.18753e-05
2.22379e-05
1.35919e-05
2.18334e-05
1.48522e-05
2.10055e-05
1.56895e-05
1.98249e-05
1.61454e-05
1.83615e-05
1.6268e-05
1.66844e-05
1.61077e-05
1.48572e-05
1.5714e-05
1.29406e-05
1.51305e-05
1.09861e-05
1.43911e-05
9.04508e-06
1.35154e-05
7.15817e-06
1.25059e-05
5.37515e-06
1.13457e-05
3.73405e-06
1.00002e-05
2.30147e-06
8.41665e-06
1.12818e-06
6.53352e-06
3.29511e-07
4.27943e-06
1.59118e-06
2.80034e-07
-1.80215e-06
9.34545e-07
-4.62395e-06
1.83553e-06
-6.67717e-06
2.83065e-06
-7.98919e-06
3.82123e-06
-8.60788e-06
4.70322e-06
-8.6042e-06
5.40997e-06
-8.06661e-06
5.88081e-06
-7.09422e-06
6.07992e-06
-5.78863e-06
5.97815e-06
-4.24554e-06
5.55968e-06
-2.54884e-06
4.81067e-06
-7.65028e-07
3.72057e-06
1.05908e-06
2.27516e-06
2.89819e-06
4.56291e-07
4.74752e-06
-1.76165e-06
6.62119e-06
-4.41139e-06
8.54838e-06
-7.53322e-06
1.05689e-05
-1.1173e-05
1.27277e-05
-1.53801e-05
1.50688e-05
-2.02037e-05
1.76302e-05
-2.56899e-05
2.04395e-05
-3.18771e-05
2.35103e-05
-3.87928e-05
2.6841e-05
-4.64503e-05
3.04142e-05
-5.48454e-05
3.41969e-05
-6.39542e-05
3.81418e-05
-7.37315e-05
4.21885e-05
-8.41103e-05
4.62656e-05
-9.50033e-05
5.02939e-05
-0.000106305
5.41895e-05
-0.000117898
5.78679e-05
-0.000129655
6.12492e-05
-0.000141451
6.42614e-05
-0.000153163
6.68445e-05
-0.000164681
6.89525e-05
-0.000175909
7.05544e-05
-0.000186767
7.16339e-05
-0.000197192
7.21878e-05
-0.000207139
7.22242e-05
-0.000216577
7.176e-05
-0.000225486
7.08184e-05
-0.000233857
6.9427e-05
-0.000241687
6.76153e-05
-0.000248979
6.54142e-05
-0.000255739
6.28539e-05
-0.000261974
5.99639e-05
-0.000267696
5.67722e-05
-0.000272912
5.33047e-05
-0.000277635
4.95857e-05
-0.000281872
4.56371e-05
-0.000285635
4.14789e-05
-0.000288931
3.71291e-05
-0.00029177
3.26035e-05
-0.000294158
2.79164e-05
-0.000296102
2.30806e-05
-0.000297606
1.81073e-05
-0.000298674
1.30069e-05
-0.000299306
7.78893e-06
-0.000299502
2.46283e-06
-0.000299258
-2.96191e-06
-0.000298567
-8.47509e-06
-0.000297422
-1.40653e-05
-0.00029581
-1.97191e-05
-0.000293717
-2.54208e-05
-0.000291123
-3.11512e-05
-0.000288007
-3.68874e-05
-0.000284347
-4.26017e-05
-0.000280114
-4.82609e-05
-0.000275281
-5.38261e-05
-0.000269819
-5.92517e-05
-0.000263699
-6.44853e-05
-0.000256896
-6.94678e-05
-0.000249387
-7.41339e-05
-0.000241155
-7.84122e-05
-0.000232194
-8.22275e-05
-0.000222507
-8.5502e-05
-0.000212113
-8.81582e-05
-0.000201046
-9.01218e-05
-0.000189359
-9.1326e-05
-0.000177124
-9.17146e-05
-0.000164432
-9.12468e-05
-0.000151395
-8.99006e-05
-0.000138138
-8.76761e-05
-0.000124801
-8.45976e-05
-0.000111528
-8.07144e-05
-9.84665e-05
-7.60994e-05
-8.57582e-05
-7.08471e-05
-7.35331e-05
-6.50687e-05
-6.19052e-05
-5.88869e-05
-5.0968e-05
-5.243e-05
-4.07934e-05
-4.58253e-05
-3.1431e-05
-3.91945e-05
-2.29104e-05
-3.26489e-05
-1.5244e-05
-2.62874e-05
-8.43029e-06
-2.0195e-05
-2.45786e-06
-1.44432e-05
2.69202e-06
-9.09061e-06
7.04334e-06