/*--------------------------------*- C++ -*----------------------------------*\
| =========                 |                                                 |
| \\      /  F ield         | OpenFOAM: The Open Source CFD Toolbox           |
|  \\    /   O peration     | Version:  2406                                  |
|   \\  /    A nd           | Website:  www.openfoam.com                      |
|    \\/     M anipulation  |                                                 |
\*---------------------------------------------------------------------------*/
FoamFile
{
    version     2.0;
    format      ascii;
    arch        "LSB;label=32;scalar=64";
    class       surfaceScalarField;
    location    "61";
    object      phi;
}
// * * * * * * * * * * * * * * * * * * * * * * * * * * * * * * * * * * * * * //

dimensions      [0 3 -1 0 0 0 0];

oriented        oriented;

internalField   nonuniform List<scalar> 
8064
(
2.50952e-07
-2.50999e-07
1.20276e-06
-9.51801e-07
2.61845e-06
-1.4157e-06
4.14239e-06
-1.52394e-06
5.48376e-06
-1.34137e-06
6.48589e-06
-1.00213e-06
7.12325e-06
-6.37363e-07
7.46197e-06
-3.38717e-07
7.6066e-06
-1.44628e-07
7.65056e-06
-4.39608e-08
7.63714e-06
1.34176e-08
7.55994e-06
7.72017e-08
7.35851e-06
2.01432e-07
6.94245e-06
4.16052e-07
6.20454e-06
7.37918e-07
5.03286e-06
1.17168e-06
3.31075e-06
1.72211e-06
9.18197e-07
2.39255e-06
-2.26445e-06
3.18264e-06
-6.34831e-06
4.08387e-06
-1.14261e-05
5.07775e-06
-1.75555e-05
6.12949e-06
-2.47422e-05
7.18669e-06
-3.2923e-05
8.18073e-06
-4.19553e-05
9.03237e-06
-5.16137e-05
9.6584e-06
-6.15915e-05
9.97775e-06
-7.151e-05
9.91857e-06
-8.09366e-05
9.42657e-06
-8.94099e-05
8.47329e-06
-9.64715e-05
7.06161e-06
-0.000101696
5.22417e-06
-0.000104712
3.01609e-06
-0.000105264
5.52527e-07
-0.000102965
-2.29964e-06
-9.77203e-05
-5.24439e-06
-8.95573e-05
-8.163e-06
-7.86181e-05
-1.09391e-05
-6.51956e-05
-1.34225e-05
-4.97466e-05
-1.5449e-05
-3.28945e-05
-1.6852e-05
-1.54175e-05
-1.7477e-05
1.78793e-06
-1.72054e-05
1.78802e-05
-1.60923e-05
3.18549e-05
-1.39747e-05
4.29671e-05
-1.11123e-05
5.06356e-05
-7.66852e-06
5.46586e-05
-4.02291e-06
5.51817e-05
-5.23183e-07
5.26433e-05
2.53846e-06
4.78072e-05
4.83603e-06
4.15224e-05
6.28485e-06
3.46355e-05
6.88692e-06
2.78526e-05
6.78288e-06
2.16587e-05
6.1939e-06
1.63115e-05
5.3472e-06
1.18841e-05
4.42743e-06
8.32532e-06
3.55875e-06
5.51873e-06
2.80659e-06
3.33392e-06
2.18481e-06
1.67625e-06
1.65768e-06
5.34319e-07
1.14193e-06
-1.57299e-08
5.50049e-07
-1.57296e-08
8.9398e-07
-1.14498e-06
3.18633e-06
-3.24415e-06
6.27169e-06
-4.50106e-06
9.47307e-06
-4.72532e-06
1.22451e-05
-4.11343e-06
1.42712e-05
-3.02821e-06
1.54638e-05
-1.82989e-06
1.58984e-05
-7.73402e-07
1.57194e-05
3.43861e-08
1.50473e-05
6.28133e-07
1.39171e-05
1.14369e-06
1.2243e-05
1.75129e-06
9.83838e-06
2.60602e-06
6.4484e-06
3.80604e-06
1.77802e-06
5.4083e-06
-4.47724e-06
7.42694e-06
-1.26105e-05
9.85538e-06
-2.28857e-05
1.26678e-05
-3.5504e-05
1.58009e-05
-5.05556e-05
1.91355e-05
-6.79645e-05
2.24866e-05
-8.74464e-05
2.56115e-05
-0.000108501
2.8241e-05
-0.000130443
3.01231e-05
-0.00015247
3.10593e-05
-0.000173737
3.09255e-05
-0.000193434
2.96746e-05
-0.000210839
2.73237e-05
-0.000225349
2.39362e-05
-0.000236481
1.96059e-05
-0.000243871
1.44517e-05
-0.000247272
8.62517e-06
-0.000246606
2.34999e-06
-0.000241556
-4.49795e-06
-0.000232214
-1.16414e-05
-0.000218666
-1.87923e-05
-0.000201072
-2.57574e-05
-0.000179717
-3.22938e-05
-0.000155022
-3.81172e-05
-0.000127557
-4.29142e-05
-9.80512e-05
-4.63581e-05
-6.73929e-05
-4.81353e-05
-3.66077e-05
-4.79906e-05
-6.90842e-06
-4.57916e-05
2.06796e-05
-4.15627e-05
4.4935e-05
-3.53676e-05
6.47236e-05
-2.74572e-05
7.93905e-05
-1.86898e-05
8.85309e-05
-9.66352e-06
9.22862e-05
-1.21685e-06
9.08915e-05
6.23067e-06
8.52231e-05
1.19533e-05
7.64108e-05
1.56993e-05
6.57209e-05
1.74727e-05
5.43627e-05
1.75522e-05
4.33207e-05
1.63892e-05
3.32632e-05
1.4485e-05
2.45297e-05
1.22922e-05
1.72052e-05
1.01311e-05
1.1222e-05
8.16799e-06
6.47766e-06
6.40202e-06
2.94574e-06
4.67385e-06
7.35836e-07
2.75995e-06
7.20106e-07
1.38533e-06
-2.5303e-06
4.56945e-06
-6.42827e-06
8.59066e-06
-8.52226e-06
1.2565e-05
-8.69968e-06
1.58267e-05
-7.37514e-06
1.79957e-05
-5.19718e-06
1.89513e-05
-2.78551e-06
1.87417e-05
-5.63814e-07
1.74682e-05
1.30788e-06
1.51801e-05
2.91629e-06
1.17986e-05
4.52514e-06
7.09815e-06
6.45175e-06
7.23551e-07
8.98062e-06
-7.76074e-06
1.22903e-05
-1.87998e-05
1.64473e-05
-3.28118e-05
2.1439e-05
-5.01195e-05
2.71632e-05
-7.08622e-05
3.34104e-05
-9.48976e-05
3.98363e-05
-0.000121735
4.59733e-05
-0.00015055
5.13013e-05
-0.000180286
5.5347e-05
-0.000209813
5.77681e-05
-0.000238077
5.83878e-05
-0.000264197
5.71789e-05
-0.000287493
5.42216e-05
-0.000307477
4.96586e-05
-0.000323815
4.36613e-05
-0.000336286
3.64077e-05
-0.000344752
2.80718e-05
-0.00034913
1.88299e-05
-0.000349395
8.88987e-06
-0.000345543
-1.50156e-06
-0.000337506
-1.2535e-05
-0.000325436
-2.37121e-05
-0.000309367
-3.48605e-05
-0.000289398
-4.57269e-05
-0.000265705
-5.59869e-05
-0.000238558
-6.52637e-05
-0.000208349
-7.31235e-05
-0.000175611
-7.90966e-05
-0.000141038
-8.27077e-05
-0.000105494
-8.35344e-05
-7.00055e-05
-8.12805e-05
-3.57577e-05
-7.58105e-05
-3.92585e-06
-6.71995e-05
2.46076e-05
-5.59906e-05
4.85733e-05
-4.26555e-05
6.72075e-05
-2.82977e-05
8.0055e-05
-1.40644e-05
8.73753e-05
-1.08961e-06
8.91117e-05
1.02169e-05
8.60192e-05
1.87918e-05
7.90829e-05
2.44089e-05
6.94837e-05
2.71514e-05
5.84518e-05
2.74211e-05
4.70926e-05
2.58441e-05
3.62567e-05
2.31282e-05
2.64779e-05
1.99099e-05
1.80151e-05
1.66308e-05
1.09643e-05
1.34528e-05
5.41209e-06
1.02261e-05
1.58577e-06
6.58626e-06
2.30588e-06
1.71195e-06
-4.24225e-06
5.4297e-06
-1.0146e-05
9.85939e-06
-1.2952e-05
1.39302e-05
-1.27705e-05
1.69093e-05
-1.03542e-05
1.84109e-05
-6.69878e-06
1.83133e-05
-2.68792e-06
1.66239e-05
1.12563e-06
1.33513e-05
4.58043e-06
8.39737e-06
7.87023e-06
1.49057e-06
1.14319e-05
-7.80847e-06
1.57508e-05
-2.00279e-05
2.12001e-05
-3.57142e-05
2.79766e-05
-5.5328e-05
3.60611e-05
-7.911e-05
4.5221e-05
-0.000106943
5.49961e-05
-0.000138246
6.47133e-05
-0.000171989
7.35795e-05
-0.00020686
8.08438e-05
-0.000241506
8.5948e-05
-0.000274751
8.85916e-05
-0.000305693
8.871e-05
-0.000333713
8.64078e-05
-0.000358425
8.18912e-05
-0.000379617
7.54135e-05
-0.000397193
6.72346e-05
-0.000411128
5.75966e-05
-0.000421433
4.6712e-05
-0.000428125
3.47639e-05
-0.000431217
2.19218e-05
-0.000430694
8.36712e-06
-0.00042647
-5.72528e-06
-0.000418719
-2.02857e-05
-0.000407334
-3.5098e-05
-0.000392259
-4.99347e-05
-0.000373469
-6.45169e-05
-0.000350973
-7.84828e-05
-0.000324849
-9.13887e-05
-0.000295268
-0.000102704
-0.000262538
-0.000111826
-0.000227134
-0.000118112
-0.000189728
-0.00012094
-0.00015121
-0.000119798
-0.000112656
-0.000114364
-7.52344e-05
-0.000104622
-4.02772e-05
-9.09478e-05
-8.86893e-06
-7.40638e-05
1.8041e-05
-5.52076e-05
3.96212e-05
-3.56447e-05
5.53861e-05
-1.68544e-05
6.57324e-05
-1.29423e-07
7.05882e-05
1.39359e-05
7.06103e-05
2.43868e-05
6.66039e-05
3.11578e-05
5.9582e-05
3.44431e-05
5.06519e-05
3.47742e-05
4.08647e-05
3.29154e-05
3.10852e-05
2.96894e-05
2.19328e-05
2.57832e-05
1.3821e-05
2.15647e-05
7.08399e-06
1.69631e-05
2.18144e-06
1.14888e-05
4.48731e-06
1.93302e-06
-6.17527e-06
5.89066e-06
-1.41037e-05
1.02601e-05
-1.73213e-05
1.38131e-05
-1.63235e-05
1.57961e-05
-1.23372e-05
1.58563e-05
-6.75902e-06
1.38877e-05
-7.19336e-07
9.82614e-06
5.18722e-06
3.55142e-06
1.08552e-05
-5.26801e-06
1.66897e-05
-1.71372e-05
2.33011e-05
-3.26715e-05
3.12851e-05
-5.24743e-05
4.10029e-05
-7.6956e-05
5.24583e-05
-0.000106153
6.52584e-05
-0.000139573
7.86404e-05
-0.000176156
9.15797e-05
-0.000214442
0.000102999
-0.000252872
0.000112009
-0.000290084
0.000118056
-0.000325065
0.000120929
-0.00035716
0.000120686
-0.000386009
0.00011756
-0.000411461
0.00011186
-0.000433492
0.000103922
-0.000452153
9.4074e-05
-0.000467525
8.26067e-05
-0.000479697
6.97685e-05
-0.000488748
5.57637e-05
-0.000494742
4.0757e-05
-0.0004977
2.48802e-05
-0.000497546
8.21293e-06
-0.000494308
-8.96327e-06
-0.000488052
-2.65413e-05
-0.000478634
-4.45163e-05
-0.000465913
-6.26553e-05
-0.000449754
-8.06762e-05
-0.000430019
-9.82179e-05
-0.000406597
-0.000114811
-0.000379432
-0.000129869
-0.000348566
-0.000142692
-0.000314194
-0.000152485
-0.000276724
-0.00015841
-0.000236822
-0.0001597
-0.000195433
-0.000155754
-0.00015376
-0.000146295
-0.000113214
-0.000131493
-7.52128e-05
-0.000112065
-4.11273e-05
-8.9293e-05
-1.19461e-05
-6.48259e-05
1.1698e-05
-4.04986e-05
2.95248e-05
-1.79562e-05
4.18649e-05
1.59578e-06
4.89701e-05
1.72817e-05
5.13914e-05
2.87365e-05
4.98474e-05
3.5987e-05
4.52213e-05
3.94004e-05
3.84844e-05
3.96522e-05
3.05877e-05
3.75861e-05
2.23626e-05
3.40083e-05
1.44939e-05
2.94333e-05
7.59297e-06
2.3864e-05
2.37944e-06
1.67023e-05
6.86675e-06
2.06834e-06
-8.24361e-06
5.96871e-06
-1.8004e-05
9.7897e-06
-2.11423e-05
1.22054e-05
-1.87393e-05
1.24957e-05
-1.26274e-05
1.03706e-05
-4.63395e-06
5.70469e-06
3.94657e-06
-1.63527e-06
1.25272e-05
-1.20067e-05
2.12266e-05
-2.59559e-05
3.06388e-05
-4.41697e-05
4.15149e-05
-6.72737e-05
5.43892e-05
-9.55891e-05
6.93182e-05
-0.000128904
8.57733e-05
-0.000166351
0.000102705
-0.000206482
0.000118772
-0.000247569
0.000132666
-0.00028798
0.00014341
-0.000326446
0.000150476
-0.000362136
0.000153745
-0.000394591
0.000153384
-0.000423625
0.00014972
-0.000449223
0.000143158
-0.000471474
0.00013411
-0.000490516
0.000122964
-0.000506507
0.000110065
-0.000519603
9.57032e-05
-0.000529954
8.0119e-05
-0.000537691
6.35009e-05
-0.000542924
4.59898e-05
-0.000545712
2.7669e-05
-0.000546013
8.5135e-06
-0.00054393
-1.10466e-05
-0.000539471
-3.09998e-05
-0.000532496
-5.14913e-05
-0.000522839
-7.23126e-05
-0.000510287
-9.32285e-05
-0.000494583
-0.000113921
-0.000475441
-0.000133954
-0.000452564
-0.000152745
-0.000425696
-0.000169559
-0.000394677
-0.000183504
-0.000359514
-0.000193574
-0.00032048
-0.000198734
-0.000278219
-0.000198015
-0.000233777
-0.000190736
-0.000188604
-0.000176666
-0.000144442
-0.000156227
-0.00010314
-0.000130596
-6.63245e-05
-0.000101641
-3.5146e-05
-7.1677e-05
-1.01083e-05
-4.29939e-05
8.87532e-06
-1.73878e-05
2.21912e-05
3.9658e-06
3.04255e-05
2.05022e-05
3.41833e-05
3.22292e-05
3.41665e-05
3.94172e-05
3.11789e-05
4.26398e-05
2.61011e-05
4.2664e-05
1.98185e-05
4.02909e-05
1.31745e-05
3.60773e-05
6.99308e-06
3.00454e-05
2.19114e-06
2.15043e-05
9.05789e-06
2.08875e-06
-1.03324e-05
5.56928e-06
-2.14846e-05
8.29514e-06
-2.38682e-05
8.93114e-06
-1.93753e-05
6.84473e-06
-1.0541e-05
1.81468e-06
3.96096e-07
-6.32986e-06
1.20911e-05
-1.78781e-05
2.40754e-05
-3.33816e-05
3.67302e-05
-5.35548e-05
5.0812e-05
-7.90294e-05
6.69895e-05
-0.000110045
8.54051e-05
-0.000146184
0.000105457
-0.000186285
0.000125874
-0.000228625
0.000145045
-0.000271315
0.000161462
-0.000312705
0.000174056
-0.00035161
0.000182316
-0.000387317
0.000186183
-0.000419484
0.000185913
-0.000448024
0.000181924
-0.000473004
0.0001747
-0.000494582
0.000164736
-0.000512964
0.000152492
-0.000528383
0.000138384
-0.000541079
0.000122761
-0.000551288
0.000105912
-0.000559232
8.80621e-05
-0.00056511
6.9379e-05
-0.000569093
4.99729e-05
-0.000571307
2.98831e-05
-0.000571824
9.03071e-06
-0.000570725
-1.21461e-05
-0.00056801
-3.37139e-05
-0.000563597
-5.59044e-05
-0.000557334
-7.85758e-05
-0.000548988
-0.000101575
-0.000538237
-0.000124671
-0.000524673
-0.000147518
-0.000507806
-0.000169612
-0.0004871
-0.000190266
-0.000462017
-0.000208586
-0.000432108
-0.000223483
-0.000397126
-0.000233716
-0.000357149
-0.000237992
-0.000312741
-0.000235144
-0.000265081
-0.000224325
-0.000215958
-0.00020535
-0.000167648
-0.000178906
-0.000122585
-0.000146704
-8.29044e-05
-0.000111358
-4.99624e-05
-7.59359e-05
-2.40928e-05
-4.32574e-05
-4.86188e-06
-1.52651e-05
8.48871e-06
7.15158e-06
1.68221e-05
2.38957e-05
2.09248e-05
3.53146e-05
2.15163e-05
4.20483e-05
1.94018e-05
4.47784e-05
1.54429e-05
4.42498e-05
1.0542e-05
4.09783e-05
5.63933e-06
3.49481e-05
1.74281e-06
2.54008e-05
1.08007e-05
1.93198e-06
-1.22643e-05
4.53597e-06
-2.40886e-05
5.56175e-06
-2.4894e-05
3.77037e-06
-1.75839e-05
-1.32726e-06
-5.44337e-06
-9.93504e-06
9.00388e-06
-2.22721e-05
2.44282e-05
-3.88217e-05
4.06249e-05
-6.02535e-05
5.81621e-05
-8.71892e-05
7.77477e-05
-0.000119826
9.96268e-05
-0.000157628
0.000123207
-0.00019925
0.000147079
-0.00024279
0.000169414
-0.000286245
0.0001885
-0.000327934
0.000203151
-0.000366701
0.000212823
-0.000401884
0.000217498
-0.000433199
0.000217498
-0.00046061
0.000213323
-0.000484234
0.000205548
-0.000504292
0.000194758
-0.000521064
0.000181508
-0.000534867
0.000166295
-0.000546029
0.000149546
-0.000554878
0.00013161
-0.000561723
0.000112757
-0.000566849
9.31873e-05
-0.000570503
7.3034e-05
-0.0005729
5.23695e-05
-0.000574217
3.12005e-05
-0.000574619
9.43241e-06
-0.000574158
-1.26073e-05
-0.000572838
-3.50338e-05
-0.000570651
-5.80913e-05
-0.000567506
-8.17205e-05
-0.000563218
-0.000105863
-0.00055749
-0.0001304
-0.000549896
-0.000155112
-0.00053987
-0.000179638
-0.000526709
-0.000203427
-0.000509596
-0.0002257
-0.000487661
-0.000245417
-0.000460095
-0.000261282
-0.000426295
-0.000271792
-0.000386084
-0.000275356
-0.000339894
-0.000270516
-0.00028902
-0.000256223
-0.000235677
-0.00023225
-0.000182829
-0.000199552
-0.000133734
-0.000160453
-9.12017e-05
-0.000118468
-5.68536e-05
-7.76055e-05
-3.08265e-05
-4.12922e-05
-1.21875e-05
-1.14874e-05
3.77701e-07
1.13305e-05
7.98526e-06
2.7707e-05
1.16446e-05
3.8389e-05
1.21903e-05
4.42326e-05
1.04771e-05
4.59631e-05
7.42135e-06
4.4034e-05
3.99661e-06
3.83728e-05
1.20271e-06
2.81947e-05
1.20034e-05
1.5217e-06
-1.3786e-05
2.70835e-06
-2.52752e-05
1.39033e-06
-2.3576e-05
-3.40299e-06
-1.27906e-05
-1.20672e-05
3.22083e-06
-2.47954e-05
2.17321e-05
-4.19075e-05
4.15402e-05
-6.39705e-05
6.2688e-05
-9.15628e-05
8.57543e-05
-0.000124877
0.000111062
-0.000163353
0.000138103
-0.00020558
0.000165433
-0.000249554
0.000191053
-0.000293174
0.000213034
-0.000334695
0.000230021
-0.000372929
0.000241385
-0.000407216
0.00024711
-0.000437284
0.000247567
-0.000463125
0.000243339
-0.000484904
0.000235103
-0.000502909
0.000223553
-0.000517504
0.000209353
-0.000529096
0.0001931
-0.000538106
0.000175305
-0.000544945
0.000156385
-0.000549994
0.000136659
-0.000553598
0.000116361
-0.000556055
9.56441e-05
-0.000557617
7.45957e-05
-0.000558493
5.32455e-05
-0.000558868
3.15758e-05
-0.000558946
9.51008e-06
-0.00055875
-1.28029e-05
-0.000558287
-3.54967e-05
-0.000557629
-5.87494e-05
-0.000556765
-8.25845e-05
-0.000555602
-0.000107026
-0.000553947
-0.000132055
-0.000551475
-0.000157584
-0.000547697
-0.000183416
-0.000541927
-0.000209196
-0.00053327
-0.000234357
-0.000520631
-0.000258056
-0.000502784
-0.00027913
-0.000478497
-0.000296079
-0.000446742
-0.00030711
-0.000406978
-0.00031028
-0.000359457
-0.000303744
-0.000305547
-0.000286159
-0.00024794
-0.000257159
-0.000190445
-0.000217947
-0.000137347
-0.000171566
-9.22932e-05
-0.000122659
-5.71774e-05
-7.6408e-05
-3.17659e-05
-3.68989e-05
-1.44959e-05
-5.93948e-06
-3.43417e-06
1.66453e-05
2.91394e-06
3.20409e-05
5.70441e-06
4.14421e-05
5.9265e-06
4.5741e-05
4.53095e-06
4.54295e-05
2.48455e-06
4.04192e-05
7.21423e-07
2.99578e-05
1.27248e-05
7.88971e-07
-1.4575e-05
-4.3686e-08
-2.44425e-05
-4.23184e-06
-1.93878e-05
-1.25487e-05
-4.47369e-06
-2.52221e-05
1.58942e-05
-4.24417e-05
3.89517e-05
-6.4601e-05
6.36996e-05
-9.21864e-05
9.02734e-05
-0.000125399
0.000118967
-0.000163738
0.000149401
-0.000205831
0.000180196
-0.000249649
0.000209252
-0.000293011
0.000234415
-0.000334072
0.000254095
-0.000371564
0.000267513
-0.000404783
0.000274604
-0.000433446
0.000275772
-0.00045756
0.000271681
-0.000477343
0.000263122
-0.000493155
0.000250915
-0.000505452
0.00023585
-0.000514738
0.000218638
-0.000521521
0.000199883
-0.000526288
0.000180072
-0.000529475
0.000159572
-0.000531462
0.000138647
-0.000532567
0.000117465
-0.000533046
9.61233e-05
-0.000533105
7.46553e-05
-0.000532911
5.30515e-05
-0.000532609
3.12736e-05
-0.000532372
9.27261e-06
-0.000532205
-1.29697e-05
-0.000532139
-3.55622e-05
-0.00053228
-5.86089e-05
-0.000532675
-8.21889e-05
-0.00053333
-0.000106371
-0.000534184
-0.000131201
-0.00053508
-0.000156688
-0.000535719
-0.000182778
-0.000535606
-0.000209309
-0.000533998
-0.000235965
-0.000529862
-0.000262192
-0.000521866
-0.000287126
-0.000508433
-0.000309512
-0.000487887
-0.000327656
-0.000458708
-0.000339459
-0.000419899
-0.000342553
-0.000371447
-0.000334611
-0.000314756
-0.00031385
-0.00025302
-0.000279683
-0.000191043
-0.000233544
-0.000134334
-0.000179368
-8.7483e-05
-0.000123259
-5.253e-05
-7.18519e-05
-2.86088e-05
-2.98606e-05
-1.33525e-05
1.38901e-06
-4.22086e-06
2.29092e-05
5.86785e-07
3.66345e-05
2.41002e-06
4.39178e-05
2.35057e-06
4.5489e-05
1.39033e-06
4.13794e-05
3.99079e-07
3.09491e-05
1.31239e-05
-3.10193e-07
-1.42648e-05
-3.66816e-06
-2.10846e-05
-1.1259e-05
-1.1797e-05
-2.34448e-05
7.71212e-06
-4.03436e-05
3.2793e-05
-6.21567e-05
6.07648e-05
-8.92211e-05
9.0764e-05
-0.000121727
0.00012278
-0.000159284
0.000156523
-0.000200648
0.000190766
-0.000243852
0.0002234
-0.000286664
0.000252064
-0.000327121
0.000274872
-0.000363833
0.000290807
-0.000396014
0.000299694
-0.000423345
0.000301936
-0.000445846
0.000298273
-0.000463779
0.000289614
-0.000477582
0.000276925
-0.000487805
0.000261137
-0.000495044
0.00024309
-0.000499895
0.000223489
-0.000502906
0.000202895
-0.000504558
0.000181724
-0.000505248
0.000160263
-0.000505294
0.000138692
-0.000504936
0.000117107
-0.000504354
9.55415e-05
-0.00050368
7.39816e-05
-0.000503017
5.23877e-05
-0.000502451
3.07085e-05
-0.000502079
8.90045e-06
-0.000501919
-1.31302e-05
-0.000502015
-3.54656e-05
-0.000502456
-5.81687e-05
-0.000503319
-8.13257e-05
-0.000504674
-0.000105015
-0.000506567
-0.000129308
-0.000508993
-0.000154263
-0.000511859
-0.000179912
-0.000514931
-0.000206237
-0.000517761
-0.000233134
-0.000519611
-0.000260342
-0.00051938
-0.000287358
-0.000515561
-0.000313331
-0.000506273
-0.000336944
-0.000489404
-0.000356328
-0.000462905
-0.000369052
-0.00042526
-0.000372257
-0.000376097
-0.000363013
-0.000316826
-0.000338954
-0.00025118
-0.00029919
-0.000185121
-0.000245427
-0.000125577
-0.000182803
-7.8076e-05
-0.000119353
-4.44879e-05
-6.34487e-05
-2.29453e-05
-2.01536e-05
-1.01599e-05
1.01238e-05
-3.15599e-06
2.96306e-05
1.10342e-07
4.06514e-05
1.07512e-06
4.45242e-05
8.39238e-07
4.16153e-05
2.76986e-07
3.15113e-05
1.34009e-05
-1.7743e-06
-1.24905e-05
-8.13996e-06
-1.47189e-05
-1.9446e-05
-4.90943e-07
-3.56095e-05
2.38756e-05
-5.67102e-05
5.38937e-05
-8.28794e-05
8.6934e-05
-0.000114245
0.00012213
-0.00015053
0.000159064
-0.000190693
0.000196686
-0.000232913
0.000232986
-0.00027497
0.000265457
-0.000314784
0.000291877
-0.000350811
0.000310899
-0.000382144
0.00032214
-0.000408403
0.000325953
-0.000429599
0.000323132
-0.000446032
0.000314706
-0.00045821
0.000301792
-0.000466769
0.000285484
-0.000472396
0.000266764
-0.000475762
0.000246455
-0.000477473
0.0002252
-0.000478042
0.000203463
-0.000477875
0.000181557
-0.000477279
0.000159666
-0.000476469
0.000137883
-0.000475593
0.000116231
-0.000474743
9.46914e-05
-0.000473978
7.32165e-05
-0.000473338
5.17479e-05
-0.000472858
3.02278e-05
-0.000472575
8.61832e-06
-0.000472504
-1.32013e-05
-0.000472689
-3.52805e-05
-0.0004732
-5.76581e-05
-0.000474117
-8.04092e-05
-0.000475532
-0.0001036
-0.000477542
-0.000127297
-0.000480235
-0.00015157
-0.000483662
-0.000176485
-0.0004878
-0.0002021
-0.000492491
-0.000228443
-0.000497365
-0.000255468
-0.000501734
-0.000282989
-0.000504487
-0.000310577
-0.000504012
-0.000337419
-0.000498185
-0.000362156
-0.000484494
-0.000382742
-0.000460368
-0.000396384
-0.00042373
-0.000399651
-0.000373797
-0.000388886
-0.00031198
-0.000361008
-0.000242642
-0.000314765
-0.000173125
-0.000252319
-0.000111947
-0.000180531
-6.53727e-05
-0.000110023
-3.45052e-05
-5.10211e-05
-1.61469e-05
-8.23453e-06
-6.10857e-06
1.95923e-05
-1.21814e-06
3.5761e-05
6.16275e-07
4.26898e-05
7.99483e-07
4.14321e-05
3.42404e-07
3.19684e-05
1.37433e-05
-3.56512e-06
-8.92539e-06
-1.32727e-05
-5.01138e-06
-2.82874e-05
1.45238e-05
-4.83708e-05
4.3959e-05
-7.33832e-05
7.89061e-05
-0.000103332
0.000116883
-0.000138009
0.000156807
-0.000176604
0.00019766
-0.000217533
0.000237615
-0.000258668
0.000274121
-0.000297851
0.000304639
-0.000333366
0.000327393
-0.000364142
0.000341675
-0.000389701
0.000347699
-0.00041002
0.000346271
-0.000425413
0.000338525
-0.000436441
0.000325734
-0.000443816
0.000309167
-0.000448302
0.000289971
-0.000450643
0.000269105
-0.000451494
0.000247307
-0.000451396
0.000225101
-0.000450759
0.000202827
-0.000449877
0.000180675
-0.000448941
0.00015873
-0.000448063
0.000137005
-0.000447301
0.000115469
-0.000446676
9.40665e-05
-0.000446193
7.27336e-05
-0.000445851
5.14058e-05
-0.000445649
3.00263e-05
-0.000445588
8.55683e-06
-0.000445684
-1.31054e-05
-0.000445972
-3.49926e-05
-0.000446499
-5.71304e-05
-0.000447336
-7.95725e-05
-0.00044857
-0.000102366
-0.000450309
-0.000125559
-0.000452671
-0.000149208
-0.000455776
-0.000173379
-0.000459724
-0.000198153
-0.000464553
-0.000223614
-0.000470182
-0.000249839
-0.000476318
-0.000276852
-0.000482343
-0.000304552
-0.000487173
-0.00033259
-0.000489131
-0.000360197
-0.000485904
-0.000385969
-0.00047463
-0.000407658
-0.000452237
-0.000422044
-0.000416095
-0.000425029
-0.000365011
-0.000412092
-0.00030045
-0.000379325
-0.00022762
-0.00032515
-0.000155553
-0.000252598
-9.44617e-05
-0.000171114
-5.07943e-05
-9.46885e-05
-2.40249e-05
-3.50039e-05
-9.3741e-06
4.9414e-06
-2.19062e-06
2.85775e-05
6.45188e-07
3.9854e-05
1.11025e-06
4.09671e-05
5.41547e-07
3.25371e-05
1.42848e-05
-5.558e-06
-3.3674e-06
-1.8632e-05
8.06265e-06
-3.73251e-05
3.32168e-05
-6.09711e-05
6.7605e-05
-8.93418e-05
0.000107277
-0.000122216
0.000149757
-0.000158986
0.000193577
-0.000198359
0.000237033
-0.000238405
0.000277661
-0.000276961
0.000312677
-0.000312151
0.000339829
-0.000342701
0.000357943
-0.000367986
0.00036696
-0.000387909
0.000367622
-0.000402767
0.00036113
-0.000413147
0.000348905
-0.000419816
0.000332402
-0.000423607
0.000312958
-0.000425328
0.000291692
-0.000425683
0.000269459
-0.000425238
0.000246862
-0.000424411
0.000224274
-0.000423484
0.0002019
-0.000422625
0.000179816
-0.00042192
0.000158025
-0.000421397
0.000136482
-0.00042105
0.000115122
-0.000420857
9.38738e-05
-0.000420794
7.26702e-05
-0.000420838
5.14501e-05
-0.000420974
3.01627e-05
-0.000421187
8.76989e-06
-0.000421494
-1.27986e-05
-0.000421919
-3.45676e-05
-0.000422493
-5.65561e-05
-0.000423269
-7.87971e-05
-0.000424316
-0.000101318
-0.000425726
-0.000124148
-0.000427611
-0.000147323
-0.000430102
-0.000170889
-0.000433342
-0.000194913
-0.000437468
-0.000219488
-0.000442576
-0.000244732
-0.000448653
-0.000270775
-0.000455485
-0.00029772
-0.000462518
-0.000325557
-0.000468696
-0.000354019
-0.000472292
-0.000382373
-0.000470818
-0.000409132
-0.000461086
-0.000431777
-0.000439556
-0.000446559
-0.000403084
-0.000448564
-0.000350144
-0.000432265
-0.000282432
-0.000392861
-0.000206375
-0.000328655
-0.000133128
-0.000244362
-7.44863e-05
-0.00015333
-3.59293e-05
-7.35609e-05
-1.43388e-05
-1.66492e-05
-3.66429e-06
1.79031e-05
6.68897e-07
3.55208e-05
1.52568e-06
4.01103e-05
7.953e-07
3.32675e-05
1.50801e-05
-7.58815e-06
4.22075e-06
-2.39121e-05
2.43866e-05
-4.59346e-05
5.52393e-05
-7.26283e-05
9.42987e-05
-0.000103615
0.000138264
-0.000138406
0.000184548
-0.000176007
0.000231177
-0.000214774
0.0002758
-0.00025265
0.000315537
-0.000287649
0.000347677
-0.000318281
0.000370461
-0.000343718
0.00038338
-0.000363734
0.000386977
-0.000378569
0.000382456
-0.000388797
0.000371358
-0.000395216
0.000355324
-0.000398714
0.0003359
-0.000400155
0.0003144
-0.000400295
0.000291831
-0.00039973
0.000268895
-0.000398892
0.000246023
-0.000398057
0.000223439
-0.000397378
0.000201221
-0.000396919
0.000179358
-0.000396688
0.000157794
-0.000396658
0.000136452
-0.000396791
0.000115255
-0.000397047
9.41298e-05
-0.000397392
7.30148e-05
-0.0003978
5.18579e-05
-0.000398253
3.06163e-05
-0.000398739
9.25532e-06
-0.000399269
-1.22681e-05
-0.000399862
-3.39752e-05
-0.000400537
-5.58811e-05
-0.00040133
-7.80043e-05
-0.000402289
-0.000100359
-0.000403479
-0.000122958
-0.000404986
-0.000145817
-0.000406915
-0.000168959
-0.000409402
-0.000192426
-0.000412605
-0.000216286
-0.00041669
-0.000240646
-0.000421806
-0.00026566
-0.000428008
-0.000291518
-0.000435157
-0.000318408
-0.000442757
-0.000346418
-0.000449765
-0.000375365
-0.000454378
-0.000404519
-0.000453904
-0.00043225
-0.000444815
-0.000455648
-0.000423118
-0.000470261
-0.000385227
-0.000470156
-0.000329451
-0.000448637
-0.000258064
-0.000400042
-0.000179345
-0.000323081
-0.000107055
-0.00022562
-5.38697e-05
-0.000126746
-2.24079e-05
-4.81109e-05
-6.5418e-06
2.03696e-06
1.402e-07
2.88388e-05
1.77492e-06
3.84755e-05
1.0187e-06
3.40237e-05
1.60988e-05
-9.50828e-06
1.3729e-05
-2.87686e-05
4.3647e-05
-5.35942e-05
8.00648e-05
-8.26618e-05
0.000123366
-0.000115411
0.000171013
-0.000151079
0.000220216
-0.000188357
0.000268454
-0.000225412
0.000312855
-0.00026025
0.000350375
-0.000291189
0.000378615
-0.000317152
0.000396424
-0.000337723
0.000403951
-0.000353026
0.000402279
-0.000363583
0.000393013
-0.000370185
0.00037796
-0.000373754
0.000358893
-0.000375207
0.000337354
-0.000375352
0.000314545
-0.000374828
0.000291306
-0.000374085
0.000268153
-0.000373408
0.000245346
-0.000372943
0.000222974
-0.000372741
0.000201019
-0.000372794
0.000179411
-0.000373062
0.000158062
-0.000373495
0.000136885
-0.000374046
0.000115805
-0.000374673
9.47569e-05
-0.000375347
7.36885e-05
-0.000376047
5.25582e-05
-0.000376762
3.13315e-05
-0.000377486
9.97893e-06
-0.000378227
-1.15265e-05
-0.000379
-3.32028e-05
-0.000379818
-5.50632e-05
-0.000380703
-7.71185e-05
-0.000381687
-9.93751e-05
-0.000382809
-0.000121836
-0.00038412
-0.000144505
-0.000385694
-0.000167385
-0.000387628
-0.000190493
-0.00039005
-0.000213863
-0.000393127
-0.000237569
-0.000397052
-0.000261734
-0.00040202
-0.00028655
-0.000408156
-0.000312272
-0.000415392
-0.000339182
-0.000423283
-0.000367474
-0.000430767
-0.000397035
-0.000435916
-0.000427101
-0.000435771
-0.000455793
-0.000426406
-0.000479626
-0.000403372
-0.00049319
-0.000362745
-0.000489264
-0.000302968
-0.000459819
-0.000227493
-0.000398556
-0.000147381
-0.000305732
-7.92972e-05
-0.00019483
-3.48132e-05
-9.25949e-05
-1.15707e-05
-2.12055e-05
-1.36144e-06
1.86295e-05
1.64113e-06
3.5473e-05
1.14582e-06
3.4519e-05
1.72447e-05
-1.11939e-05
2.49229e-05
-3.28757e-05
6.53287e-05
-5.9867e-05
0.000107056
-9.05545e-05
0.000154054
-0.000124191
0.000204649
-0.00015977
0.000255796
-0.000195777
0.00030446
-0.00023034
0.000347418
-0.000261666
0.000381701
-0.000288426
0.000405375
-0.000309947
0.000417945
-0.00032617
0.000420174
-0.000337511
0.00041362
-0.000344712
0.000400214
-0.0003487
0.000381947
-0.000350432
0.000360625
-0.000350772
0.000337693
-0.000350408
0.000314181
-0.000349829
0.000290728
-0.000349338
0.000267662
-0.000349086
0.000245094
-0.000349119
0.000223007
-0.000349421
0.00020132
-0.000349942
0.000179932
-0.000350626
0.000158746
-0.000351421
0.00013768
-0.000352282
0.000116666
-0.000353179
9.56536e-05
-0.000354091
7.46006e-05
-0.000355007
5.34745e-05
-0.000355923
3.22476e-05
-0.00035684
1.08961e-05
-0.000357767
-1.06002e-05
-0.000358713
-3.22567e-05
-0.00035969
-5.40857e-05
-0.000360714
-7.60951e-05
-0.0003618
-9.82888e-05
-0.00036297
-0.000120666
-0.000364251
-0.000143223
-0.000365682
-0.000165954
-0.000367318
-0.000188856
-0.000369244
-0.000211938
-0.000371581
-0.000235232
-0.0003745
-0.000258815
-0.000378219
-0.000282831
-0.000382976
-0.000307515
-0.000388962
-0.000333197
-0.000396175
-0.000360261
-0.0004042
-0.00038901
-0.000411919
-0.000419383
-0.000417202
-0.00045051
-0.000416727
-0.000480101
-0.000406086
-0.000503831
-0.000380374
-0.000514977
-0.000335502
-0.000504691
-0.000270534
-0.000463524
-0.000191082
-0.000385184
-0.000112153
-0.000273758
-5.26592e-05
-0.000152089
-1.93046e-05
-5.45601e-05
-4.14425e-06
3.46912e-06
9.963e-07
3.03324e-05
1.14379e-06
3.43716e-05
1.83884e-05
-1.25012e-05
3.74241e-05
-3.59873e-05
8.88149e-05
-6.44446e-05
0.000135513
-9.59849e-05
0.000185594
-0.000129684
0.000238349
-0.000164356
0.000290468
-0.000198385
0.000338489
-0.000229994
0.000379028
-0.000257656
0.000409364
-0.000280406
0.000428126
-0.000297932
0.000435471
-0.000310476
0.000432718
-0.00031868
0.000421824
-0.000323431
0.000404966
-0.000325708
0.000384224
-0.000326424
0.000361341
-0.000326331
0.0003376
-0.00032597
0.00031382
-0.000325678
0.000290436
-0.000325626
0.000267609
-0.000325864
0.000245333
-0.000326374
0.000223517
-0.000327103
0.000202049
-0.000327989
0.000180818
-0.000328976
0.000159733
-0.000330021
0.000138724
-0.000331092
0.000117738
-0.000332171
9.67324e-05
-0.000333248
7.56772e-05
-0.000334319
5.4546e-05
-0.000335388
3.33161e-05
-0.000336459
1.19674e-05
-0.000337542
-9.51756e-06
-0.000338645
-3.11533e-05
-0.000339779
-5.29515e-05
-0.000340954
-7.49205e-05
-0.000342178
-9.70642e-05
-0.000343462
-0.000119382
-0.000344816
-0.000141869
-0.000346254
-0.000164516
-0.0003478
-0.000187311
-0.000349494
-0.000210244
-0.000351407
-0.00023332
-0.000353653
-0.000256568
-0.00035641
-0.000280074
-0.000359919
-0.000304006
-0.000364465
-0.00032865
-0.0003703
-0.000354427
-0.000377474
-0.000381835
-0.00038557
-0.000411288
-0.000393342
-0.000442738
-0.000398359
-0.000475084
-0.000396812
-0.000505378
-0.000383723
-0.000528066
-0.000353769
-0.000534645
-0.000303011
-0.000514281
-0.000231919
-0.000456277
-0.000149806
-0.000355871
-7.66498e-05
-0.000225245
-3.02549e-05
-0.000100955
-8.36239e-06
-1.84234e-05
-2.13195e-07
2.21832e-05
1.01334e-06
3.3145e-05
1.94018e-05
-1.33405e-05
5.07646e-05
-3.79521e-05
0.000113426
-6.71645e-05
0.000164726
-9.883e-05
0.00021726
-0.000131873
0.000271392
-0.000164995
0.00032359
-0.000196585
0.000370078
-0.000225039
0.000407482
-0.000249126
0.000433451
-0.000268224
0.000447223
-0.000282326
0.000449572
-0.000291908
0.000442301
-0.00029777
0.000427686
-0.00030087
0.000408066
-0.000302162
0.000385515
-0.000302461
0.000361641
-0.000302377
0.000337516
-0.0003023
0.000313743
-0.000302436
0.000290572
-0.000302852
0.000268026
-0.000303537
0.000246017