/*--------------------------------*- C++ -*----------------------------------*\
| =========                 |                                                 |
| \\      /  F ield         | OpenFOAM: The Open Source CFD Toolbox           |
|  \\    /   O peration     | Version:  2406                                  |
|   \\  /    A nd           | Website:  www.openfoam.com                      |
|    \\/     M anipulation  |                                                 |
\*---------------------------------------------------------------------------*/
FoamFile
{
    version     2.0;
    format      ascii;
    arch        "LSB;label=32;scalar=64";
    class       surfaceScalarField;
    location    "1.8";
    object      phi;
}
// * * * * * * * * * * * * * * * * * * * * * * * * * * * * * * * * * * * * * //

dimensions      [0 3 -1 0 0 0 0];

oriented        oriented;

internalField   nonuniform List<scalar> 
1740
(
-7.96778e-07
6.49593e-07
-2.15274e-06
1.37568e-06
-3.6505e-06
1.49867e-06
-5.14718e-06
1.51389e-06
-6.61632e-06
1.4721e-06
-8.03062e-06
1.42831e-06
-9.38919e-06
1.36288e-06
-1.06689e-05
1.29061e-06
-1.18655e-05
1.20109e-06
-1.29586e-05
1.1011e-06
-1.39402e-05
9.85589e-07
-1.47919e-05
8.57403e-07
-1.55036e-05
7.14722e-07
-1.6058e-05
5.58119e-07
-1.64442e-05
3.88229e-07
-1.66465e-05
2.04286e-07
-1.66553e-05
9.21276e-09
-1.64566e-05
-1.98363e-07
-1.60452e-05
-4.13214e-07
-1.54101e-05
-6.36428e-07
-1.45544e-05
-8.60854e-07
-1.34713e-05
-1.08587e-06
-1.21769e-05
-1.30411e-06
-1.06693e-05
-1.5107e-06
-8.98224e-06
-1.70239e-06
-7.11851e-06
-1.86518e-06
-5.13514e-06
-2.00544e-06
-3.06402e-06
-2.06765e-06
-1.13357e-06
-1.96075e-06
-1.13266e-06
-1.44618e-06
2.07111e-06
-3.76264e-06
3.69253e-06
-6.27222e-06
3.98224e-06
-8.74392e-06
3.9801e-06
-1.11611e-05
3.86801e-06
-1.34736e-05
3.7323e-06
-1.56787e-05
3.55e-06
-1.77393e-05
3.34147e-06
-1.96464e-05
3.09317e-06
-2.1369e-05
2.81429e-06
-2.28941e-05
2.49898e-06
-2.4195e-05
2.15065e-06
-2.52565e-05
1.76856e-06
-2.60554e-05
1.35259e-06
-2.65768e-05
9.06381e-07
-2.68004e-05
4.27604e-07
-2.67146e-05
-7.54068e-08
-2.63026e-05
-6.06187e-07
-2.55598e-05
-1.15099e-06
-2.44745e-05
-1.71332e-06
-2.30536e-05
-2.27398e-06
-2.12921e-05
-2.83437e-06
-1.92149e-05
-3.37228e-06
-1.68243e-05
-3.88299e-06
-1.41697e-05
-4.34864e-06
-1.12599e-05
-4.74995e-06
-8.17944e-06
-5.08096e-06
-4.97289e-06
-5.24111e-06
-1.95279e-06
-4.9841e-06
-3.05686e-06
-1.61644e-06
3.6926e-06
-4.18266e-06
6.28722e-06
-6.95518e-06
6.7565e-06
-9.67948e-06
6.72673e-06
-1.23406e-05
6.53464e-06
-1.48832e-05
6.29253e-06
-1.73047e-05
5.97828e-06
-1.95648e-05
5.61524e-06
-2.16535e-05
5.18864e-06
-2.35378e-05
4.7089e-06
-2.52033e-05
4.17055e-06
-2.66219e-05
3.57681e-06
-2.77773e-05
2.92895e-06
-2.86451e-05
2.22546e-06
-2.92093e-05
1.47395e-06
-2.94485e-05
6.69556e-07
-2.93503e-05
-1.72613e-07
-2.88967e-05
-1.05976e-06
-2.80824e-05
-1.96753e-06
-2.68945e-05
-2.9041e-06
-2.534e-05
-3.835e-06
-2.34127e-05
-4.76682e-06
-2.1139e-05
-5.65771e-06
-1.85202e-05
-6.50748e-06
-1.56097e-05
-7.27686e-06
-1.24159e-05
-7.94718e-06
-9.03118e-06
-8.4909e-06
-5.5004e-06
-8.76875e-06
-2.16894e-06
-8.35061e-06
-5.22523e-06
-1.66235e-06
5.33642e-06
-4.31995e-06
8.95209e-06
-7.18733e-06
9.60186e-06
-1.00036e-05
9.54387e-06
-1.27556e-05
9.26981e-06
-1.53851e-05
8.91928e-06
-1.78912e-05
8.47126e-06
-2.02321e-05
7.9516e-06
-2.23983e-05
7.34462e-06
-2.43557e-05
6.66158e-06
-2.60903e-05
5.89773e-06
-2.7573e-05
5.05551e-06
-2.87874e-05
4.13871e-06
-2.97078e-05
3.14338e-06
-3.03177e-05
2.08202e-06
-3.05945e-05
9.45544e-07
-3.0524e-05
-2.42668e-07
-3.00865e-05
-1.496e-06
-2.92747e-05
-2.77703e-06
-2.80731e-05
-4.1022e-06
-2.64869e-05
-5.41776e-06
-2.45067e-05
-6.74041e-06
-2.21584e-05
-8.00256e-06
-1.94403e-05
-9.2145e-06
-1.6408e-05
-1.03076e-05
-1.3068e-05
-1.12698e-05
-9.51884e-06
-1.20437e-05
-5.8071e-06
-1.24544e-05
-2.29501e-06
-1.18769e-05
-7.49846e-06
-1.70149e-06
7.03784e-06
-4.44151e-06
1.17188e-05
-7.39948e-06
1.25559e-05
-1.0306e-05
1.247e-05
-1.31478e-05
1.21125e-05
-1.58655e-05
1.16516e-05
-1.8459e-05
1.10678e-05
-2.08854e-05
1.03891e-05
-2.31361e-05
9.59925e-06
-2.51762e-05
8.70986e-06
-2.69917e-05
7.7174e-06
-2.8553e-05
6.62259e-06
-2.98431e-05
5.43253e-06
-3.08354e-05
4.13927e-06
-3.1512e-05
2.76148e-06
-3.18484e-05
1.28334e-06
-3.18283e-05
-2.61275e-07
-3.14292e-05
-1.89581e-06
-3.06405e-05
-3.56596e-06
-2.94427e-05
-5.30212e-06
-2.78376e-05
-7.02504e-06
-2.58111e-05
-8.76922e-06
-2.33871e-05
-1.04317e-05
-2.05591e-05
-1.2043e-05
-1.73848e-05
-1.34916e-05
-1.38676e-05
-1.4783e-05
-1.01146e-05
-1.58145e-05
-6.17558e-06
-1.6381e-05
-2.44088e-06
-1.56417e-05
-9.9307e-06
-1.75471e-06
8.77507e-06
-4.59154e-06
1.45654e-05
-7.65508e-06
1.55975e-05
-1.06678e-05
1.54858e-05
-1.3616e-05
1.50446e-05
-1.64386e-05
1.44735e-05
-1.91366e-05
1.3754e-05
-2.16662e-05
1.29162e-05
-2.40193e-05
1.19439e-05
-2.61606e-05
1.0848e-05
-2.8076e-05
9.6272e-06
-2.97355e-05
8.27893e-06
-3.11213e-05
6.81486e-06
-3.22059e-05
5.22072e-06
-3.29695e-05
3.5233e-06
-3.33857e-05
1.69643e-06
-3.3435e-05
-2.12392e-07
-3.30916e-05
-2.24214e-06
-3.23403e-05
-4.3164e-06
-3.11566e-05
-6.4876e-06
-2.95375e-05
-8.64227e-06
-2.74621e-05
-1.0844e-05
-2.49514e-05
-1.29409e-05
-2.19919e-05
-1.4998e-05
-1.86433e-05
-1.68418e-05
-1.49042e-05
-1.85113e-05
-1.08927e-05
-1.98354e-05
-6.66279e-06
-2.05899e-05
-2.64018e-06
-1.96875e-05
-1.25532e-05
-1.82008e-06
1.05943e-05
-4.77824e-06
1.75517e-05
-7.97528e-06
1.87892e-05
-1.11215e-05
1.86529e-05
-1.4203e-05
1.81262e-05
-1.71569e-05
1.74431e-05
-1.99854e-05
1.65855e-05
-2.26436e-05
1.55862e-05
-2.51241e-05
1.44289e-05
-2.73911e-05
1.31238e-05
-2.94309e-05
1.16721e-05
-3.12127e-05
1.00667e-05
-3.27181e-05
8.32534e-06
-3.39187e-05
6.42455e-06
-3.47926e-05
4.40184e-06
-3.53113e-05
2.21584e-06
-3.54513e-05
-6.79614e-08
-3.51829e-05
-2.51173e-06
-3.44851e-05
-5.00966e-06
-3.33269e-05
-7.64768e-06
-3.16986e-05
-1.0266e-05
-2.95703e-05
-1.29737e-05
-2.6958e-05
-1.55501e-05
-2.3838e-05
-1.81171e-05
-2.0272e-05
-2.04097e-05
-1.62503e-05
-2.25265e-05
-1.19062e-05
-2.41914e-05
-7.29744e-06
-2.51811e-05
-2.89964e-06
-2.41139e-05
-1.54374e-05
-1.90198e-06
1.24747e-05
-5.00258e-06
2.066e-05
-8.35542e-06
2.21152e-05
-1.16574e-05
2.19557e-05
-1.48944e-05
2.13431e-05
-1.80017e-05
2.05475e-05
-2.09826e-05
1.95518e-05
-2.37914e-05
1.83907e-05
-2.64216e-05
1.7049e-05
-2.88371e-05
1.55344e-05
-3.10243e-05
1.38526e-05
-3.29524e-05
1.19893e-05
-3.46021e-05
9.97088e-06
-3.59443e-05
7.76036e-06
-3.69546e-05
5.40987e-06
-3.76026e-05
2.85618e-06
-3.78598e-05
1.88831e-07
-3.76922e-05
-2.68792e-06
-3.70716e-05
-5.62889e-06
-3.59588e-05
-8.76932e-06
-3.43353e-05
-1.18865e-05
-3.2159e-05
-1.51582e-05
-2.94388e-05
-1.82677e-05
-2.61359e-05
-2.14258e-05
-2.23132e-05
-2.42344e-05
-1.79477e-05
-2.68911e-05
-1.31924e-05
-2.89597e-05
-8.1069e-06
-3.02518e-05
-3.23371e-06
-2.90196e-05
-1.86561e-05
-1.99427e-06
1.44727e-05
-5.26333e-06
2.39649e-05
-8.8011e-06
2.56517e-05
-1.22871e-05
2.54697e-05
-1.57072e-05
2.47679e-05
-1.89944e-05
2.38567e-05
-2.21534e-05
2.27185e-05
-2.51376e-05
2.13918e-05
-2.79415e-05
1.9862e-05
-3.05289e-05
1.81343e-05
-3.28869e-05
1.62202e-05
-3.4985e-05
1.40958e-05
-3.68034e-05
1.17988e-05
-3.83127e-05
9.2742e-06
-3.94863e-05
6.59356e-06
-4.0292e-05
3.66312e-06
-4.06961e-05
6.04663e-07
-4.06599e-05
-2.72514e-06
-4.01463e-05
-6.12846e-06
-3.9107e-05
-9.81143e-06
-3.7511e-05
-1.34662e-05
-3.53011e-05
-1.73718e-05
-3.24743e-05
-2.10785e-05
-2.89709e-05
-2.49319e-05
-2.48527e-05
-2.83417e-05
-2.00752e-05
-3.16647e-05
-1.48165e-05
-3.42206e-05
-9.13394e-06
-3.59142e-05
-3.66104e-06
-3.45193e-05
-2.22938e-05
-2.10476e-06
1.65442e-05
-5.56402e-06
2.74226e-05
-9.30931e-06
2.93577e-05
-1.30017e-05
2.91533e-05
-1.66269e-05
2.83621e-05
-2.01158e-05
2.73336e-05
-2.34748e-05
2.60539e-05
-2.66566e-05
2.4561e-05
-2.96573e-05
2.28455e-05
-3.24409e-05
2.09056e-05
-3.49953e-05
1.87629e-05
-3.72908e-05
1.63787e-05
-3.93071e-05
1.38079e-05
-4.10155e-05
1.0969e-05
-4.23865e-05
7.96106e-06
-4.33871e-05
4.648e-06
-4.39773e-05
1.19525e-06
-4.41144e-05
-2.60659e-06
-4.37498e-05
-6.48914e-06
-4.28253e-05
-1.07581e-05
-4.12934e-05
-1.49913e-05
-3.90777e-05
-1.96128e-05
-3.61578e-05
-2.39904e-05
-3.24449e-05
-2.86699e-05
-2.79956e-05
-3.27867e-05
-2.27314e-05
-3.69462e-05
-1.68626e-05
-4.00995e-05
-1.04342e-05
-4.23389e-05
-4.20586e-06
-4.07883e-05
-2.64874e-05
-2.22234e-06
1.87842e-05
-5.90143e-06
3.11561e-05
-9.88749e-06
3.3356e-05
-1.38182e-05
3.31295e-05
-1.76789e-05
3.22411e-05
-2.13977e-05
3.10898e-05
-2.49826e-05
2.96593e-05
-2.83857e-05
2.79934e-05
-3.16047e-05
2.60851e-05
-3.46049e-05
2.39274e-05
-3.73755e-05
2.15533e-05
-3.98888e-05
1.89065e-05
-4.21249e-05
1.60638e-05
-4.40572e-05
1.29097e-05
-4.56542e-05
9.5798e-06
-4.68838e-05
5.88085e-06
-4.76997e-05
2.03696e-06
-4.80562e-05
-2.25152e-06
-4.78918e-05
-6.6223e-06
-4.71377e-05
-1.15189e-05
-4.57252e-05
-1.6367e-05
-4.35543e-05
-2.17952e-05
-4.05787e-05
-2.69247e-05
-3.66693e-05
-3.25926e-05
-3.18691e-05
-3.75477e-05
-2.60462e-05
-4.27755e-05
-1.94492e-05
-4.66744e-05
-1.20931e-05
-4.96776e-05
-4.91329e-06
-4.79879e-05
-3.13685e-05
-2.36463e-06
2.10912e-05
-6.28345e-06
3.50515e-05
-1.05296e-05
3.75374e-05
-1.47169e-05
3.72856e-05
-1.88313e-05
3.63013e-05
-2.2798e-05
3.50231e-05
-2.66278e-05
3.34456e-05
-3.02728e-05
3.16065e-05
-3.37328e-05
2.95122e-05
-3.69749e-05
2.71401e-05
-3.99895e-05
2.4545e-05
-4.27522e-05
2.16415e-05
-4.5243e-05
1.85405e-05
-4.7439e-05
1.50776e-05
-4.93063e-05
1.14407e-05
-5.08157e-05
7.3587e-06
-5.19138e-05
3.13575e-06
-5.2554e-05
-1.64943e-06
-5.26594e-05
-6.50928e-06
-5.21515e-05
-1.20743e-05
-5.09344e-05
-1.75691e-05
-4.88814e-05
-2.3905e-05
-4.59091e-05
-2.98742e-05
-4.18348e-05
-3.67286e-05
-3.66749e-05
-4.26823e-05
-3.02161e-05
-4.92892e-05
-2.27503e-05
-5.41318e-05
-1.4228e-05
-5.82242e-05
-5.83667e-06
-5.64248e-05
-3.72012e-05
-2.50575e-06
2.36454e-05
-6.70386e-06
3.93419e-05
-1.12547e-05
4.21309e-05
-1.57417e-05
4.18542e-05
-2.01482e-05
4.07558e-05
-2.43969e-05
3.93409e-05
-2.84995e-05
3.75959e-05
-3.24084e-05
3.55703e-05
-3.61261e-05
3.32742e-05
-3.96223e-05
3.06768e-05
-4.2891e-05
2.78546e-05
-4.59125e-05
2.46903e-05
-4.86693e-05
2.13374e-05
-5.11451e-05
1.75695e-05
-5.33056e-05
1.36444e-05
-5.51286e-05
9.18785e-06
-5.65547e-05
4.6119e-06
-5.7541e-05
-6.66739e-07
-5.79942e-05
-5.99466e-06
-5.78296e-05
-1.22533e-05
-5.69177e-05
-1.84048e-05
-5.5103e-05
-2.57459e-05
-5.22483e-05
-3.26369e-05
-4.81015e-05
-4.09116e-05
-4.26265e-05
-4.80578e-05
-3.5487e-05
-5.64653e-05
-2.70134e-05
-6.25262e-05
-1.70308e-05
-6.82132e-05
-7.08981e-06
-6.63629e-05
-4.42527e-05
-2.68868e-06
2.623e-05
-7.17927e-06
4.37641e-05
-1.20439e-05
4.68832e-05
-1.68357e-05
4.65686e-05
-2.15406e-05
4.53623e-05
-2.60775e-05
4.38005e-05
-3.04634e-05
4.18999e-05
-3.46515e-05
3.96872e-05
-3.86473e-05
3.72066e-05
-4.24247e-05
3.43913e-05
-4.59793e-05
3.13645e-05
-4.92981e-05
2.79521e-05
-5.23642e-05
2.43758e-05
-5.51704e-05
2.03198e-05
-5.7681e-05
1.61419e-05
-5.98846e-05
1.13293e-05
-6.17153e-05
6.44189e-06
-6.31395e-05
6.82323e-07
-6.4046e-05
-5.07515e-06
-6.43501e-05
-1.20428e-05
-6.38825e-05
-1.88414e-05
-6.24613e-05
-2.72816e-05
-5.98772e-05
-3.51673e-05
-5.57944e-05
-4.51276e-05
-5.00871e-05
-5.36919e-05
-4.22425e-05
-6.44479e-05
-3.2606e-05
-7.21e-05
-2.07724e-05
-8.01461e-05
-8.82128e-06
-7.83451e-05
-5.30955e-05
-2.85024e-06
2.91876e-05
-7.69584e-06
4.87723e-05
-1.29443e-05
5.22326e-05
-1.81119e-05
5.18861e-05
-2.31742e-05
5.05295e-05
-2.80501e-05
4.88065e-05
-3.27541e-05
4.67034e-05
-3.72415e-05
4.42791e-05
-4.15223e-05
4.15773e-05
-4.55753e-05
3.85214e-05
-4.94031e-05
3.52733e-05
-5.30017e-05
3.16023e-05
-5.63605e-05
2.78117e-05
-5.94853e-05
2.34744e-05
-6.23443e-05
1.90814e-05
-6.4943e-05
1.39388e-05
-6.72142e-05
8.80536e-06
-6.91433e-05
2.6039e-06
-7.06047e-05
-3.49907e-06
-7.1526e-05
-1.11486e-05
-7.16947e-05
-1.85251e-05
-7.09109e-05
-2.81174e-05
-6.88686e-05
-3.70228e-05
-6.51349e-05
-4.89453e-05
-5.9429e-05
-5.91779e-05
-5.09872e-05
-7.30008e-05
-4.00974e-05
-8.27762e-05
-2.59471e-05
-9.43839e-05
-1.13713e-05
-9.28384e-05
-6.44416e-05
-3.09551e-06
3.20967e-05
-8.29286e-06
5.38164e-05
-1.39116e-05
5.76558e-05
-1.9424e-05
5.72332e-05
-2.48197e-05
5.57486e-05
-3.001e-05
5.38361e-05
-3.50212e-05
5.15647e-05
-3.98118e-05
4.89251e-05
-4.43943e-05
4.60425e-05
-4.87566e-05
4.27586e-05
-5.28996e-05
3.93338e-05
-5.68327e-05
3.54248e-05
-6.05438e-05
3.14712e-05
-6.40566e-05
2.68808e-05
-6.73383e-05
2.23376e-05
-7.04187e-05
1.69032e-05
-7.32274e-05
1.16108e-05
-7.57801e-05
5.01738e-06
-7.79378e-05
-1.31965e-06
-7.96579e-05
-9.60316e-06
-8.06846e-05
-1.74423e-05
-8.08207e-05
-2.82021e-05
-7.96461e-05
-3.80925e-05
-7.66344e-05
-5.22298e-05
-7.1272e-05
-6.43729e-05
-6.24701e-05
-8.21152e-05
-5.03062e-05
-9.47334e-05
-3.32899e-05
-0.000111688
-1.52714e-05
-0.000110787
-7.9822e-05
-3.26964e-06
3.55766e-05
-8.92931e-06
5.97617e-05
-1.50374e-05
6.39655e-05
-2.10337e-05
6.35023e-05
-2.68708e-05
6.179e-05
-3.24696e-05
5.96757e-05
-3.78437e-05
5.71313e-05
-4.29573e-05
5.42329e-05
-4.7831e-05
5.10883e-05
-5.24595e-05
4.75293e-05
-5.68591e-05
4.38863e-05
-6.10504e-05
3.97098e-05
-6.50362e-05
3.55984e-05
-6.88589e-05
3.07555e-05
-7.24972e-05
2.61206e-05
-7.60121e-05
2.04358e-05
-7.93412e-05
1.51054e-05
-8.25479e-05
8.21113e-06
-8.54927e-05
1.8326e-06
-8.81934e-05
-6.94975e-06
-9.03625e-05
-1.50024e-05
-9.18451e-05
-2.68164e-05
-9.2093e-05
-3.74904e-05
-9.05076e-05
-5.39864e-05
-8.62277e-05
-6.81992e-05
-7.77529e-05
-9.08543e-05
-6.46387e-05
-0.000107318
-4.43134e-05
-0.000132323
-2.17936e-05
-0.000132941
-0.000101702
-3.63176e-06
3.88864e-05
-9.71744e-06
6.55454e-05
-1.62621e-05
7.01802e-05
-2.26176e-05
6.95349e-05
-2.87969e-05
6.76643e-05
-3.47026e-05
6.52705e-05
-4.03779e-05
6.2543e-05
-4.57953e-05
5.93749e-05
-5.09726e-05
5.60593e-05
-5.59234e-05
5.22451e-05
-6.06502e-05
4.84681e-05
-6.51965e-05
4.40529e-05
-6.95553e-05
3.98673e-05
-7.37983e-05
3.48055e-05
-7.79008e-05
3.01789e-05
-8.19655e-05
2.42941e-05
-8.59323e-05
1.90674e-05
-8.99285e-05
1.1961e-05
-9.38176e-05
5.75824e-06
-9.77098e-05
-3.37228e-06
-0.000101304
-1.13168e-05
-0.000104548
-2.39844e-05
-0.000106791
-3.50685e-05
-0.000107443
-5.38638e-05
-0.00010523
-7.00817e-05
-9.82384e-05
-9.85004e-05
-8.50304e-05
-0.000119985
-6.14979e-05
-0.000156601
-3.33275e-05
-0.000160602
-0.000135449
-3.7908e-06
4.30509e-05
-1.05056e-05
7.27504e-05
-1.76833e-05
7.77163e-05
-2.47038e-05
7.70406e-05
-3.14511e-05
7.47769e-05
-3.78669e-05
7.21202e-05
-4.39572e-05
6.89808e-05
-4.97023e-05
6.54684e-05
-5.51443e-05
6.18137e-05
-6.02984e-05
5.76499e-05
-6.52058e-05
5.36495e-05
-6.99156e-05
4.89233e-05
-7.44508e-05
4.46532e-05
-7.89023e-05
3.93421e-05
-8.32668e-05
3.47955e-05
-8.76901e-05
2.8743e-05
-9.21329e-05
2.37972e-05
-9.68089e-05
1.66118e-05
-0.000101611
1.09206e-05
-0.000106799
1.73262e-06
-0.000112107
-5.53157e-06
-0.000117692
-1.85694e-05
-0.00012287
-2.92456e-05
-0.000127206
-4.98412e-05
-0.000128988
-6.74159e-05
-0.000125961
-0.000102069
-0.000115108
-0.000129612
-9.03555e-05
-0.000182189
-5.57745e-05
-0.000193735
-0.000191745
-4.42393e-06
4.695e-05
-1.16749e-05
7.94529e-05
-1.93892e-05
8.49055e-05
-2.67001e-05
8.37551e-05
-3.37218e-05
8.12975e-05
-4.03555e-05
7.8182e-05
-4.66737e-05
7.48572e-05
-5.26884e-05
7.09819e-05
-5.84061e-05
6.71856e-05
-6.38861e-05
6.27104e-05
-6.91173e-05
5.86405e-05
-7.41915e-05
5.36384e-05
-7.90944e-05
4.94126e-05
-8.3962e-05
4.38761e-05
-8.87737e-05
3.95433e-05
-9.3737e-05
3.33546e-05
-9.88106e-05
2.88735e-05
-0.000104313
2.16936e-05
-0.000110156
1.68312e-05
-0.000116789
7.81571e-06
-0.000124013
1.84005e-06
-0.000132303
-1.10207e-05
-0.000141097
-2.01714e-05
-0.000150402
-4.15288e-05
-0.000158378
-5.88794e-05
-0.000162988
-9.87751e-05
-0.000159615
-0.000131804
-0.000140253
-0.000203317
-0.000101311
-0.00023019
-0.00029393
-4.44107e-06
5.19915e-05
-1.26027e-05
8.84329e-05
-2.11338e-05
9.40062e-05
-2.94728e-05
9.29399e-05
-3.73028e-05
8.97344e-05
-4.46262e-05
8.62668e-05
-5.14427e-05
8.22696e-05
-5.77535e-05
7.78926e-05
-6.36618e-05
7.36321e-05
-6.91925e-05
6.86616e-05
-7.44402e-05
6.4361e-05
-7.9472e-05
5.89266e-05
-8.43388e-05
5.47074e-05
-8.91728e-05
4.88356e-05
-9.39858e-05
4.47834e-05
-9.90218e-05
3.84162e-05
-0.00010426
3.45936e-05
-0.000110137
2.75094e-05
-0.000116603
2.39052e-05
-0.000124389
1.54401e-05
-0.000133426
1.17018e-05
-0.00014475
-7.49672e-09
-0.000158142
-5.62878e-06
-0.000174549
-2.57056e-05
-0.000192597
-3.91932e-05
-0.000211536
-8.09536e-05
-0.000226406
-0.00011434
-0.000226919
-0.000204658
-0.000190959
-0.000260321
-0.000486185
-5.88839e-06
5.71054e-05
-1.47616e-05
9.63643e-05
-2.40045e-05
0.00010249
-3.22739e-05
0.000100142
-4.00524e-05
9.67332e-05
-4.73108e-05
9.2507e-05
-5.41303e-05
8.83809e-05
-6.06363e-05
8.35248e-05
-6.67611e-05
7.92022e-05
-7.26466e-05
7.38255e-05
-7.82236e-05
6.95656e-05
-8.3647e-05
6.37432e-05
-8.88697e-05
5.9722e-05
-9.40934e-05
5.35034e-05
-9.92762e-05
4.98942e-05
-0.000104741
4.33019e-05
-0.000110427
4.03234e-05
-0.000116908
3.32948e-05
-0.000124104
3.12611e-05
-0.000133028
2.34363e-05
-0.0001437
2.26646e-05
-0.000157766
1.27678e-05
-0.000175555
1.26355e-05
-0.000199555
-3.53541e-06
-0.000230013
-7.82164e-06
-0.000270327
-4.34929e-05
-0.000316464
-6.62037e-05
-0.000351515
-0.000175013
-0.000310705
-0.00029716
-0.000804525
-5.04881e-06
6.29674e-05
-1.53941e-05
0.000108047
-2.57255e-05
0.000113599
-3.59241e-05
0.00011181
-4.51231e-05
0.000106881
-5.34183e-05
0.000102108
-6.0911e-05
9.68548e-05
-6.7582e-05
9.11902e-05
-7.37397e-05
8.62589e-05
-7.93667e-05
8.01127e-05
-8.46792e-05
7.56651e-05
-8.97103e-05
6.91507e-05
-9.45561e-05
6.52795e-05
-9.93456e-05
5.84513e-05
-0.000104083
5.53327e-05
-0.000109075
4.82854e-05
-0.000114235
4.62639e-05
-0.00012024
3.91391e-05
-0.000126919
3.89352e-05
-0.000135674
3.18353e-05
-0.000146491
3.48933e-05
-0.000162045
2.76564e-05
-0.000183255
3.59285e-05
-0.000215128
2.70414e-05
-0.000259802
3.99939e-05
-0.000325496
1.88627e-05
-0.000398096
1.18377e-05
-0.000444947
-0.000137442
-0.000336607
-0.000392315
-0.00115079
-9.84204e-06
7.19443e-05
-2.09591e-05
0.000117595
-3.1953e-05
0.000123672
-4.06214e-05
0.000118571
-4.8509e-05
0.000113609
-5.60398e-05
0.000107862
-6.29951e-05
0.000102705
-6.98113e-05
9.65281e-05
-7.61346e-05
9.17383e-05
-8.22616e-05
8.50499e-05
-8.79848e-05
8.08507e-05
-9.35264e-05
7.37011e-05
-9.87696e-05
7.02572e-05
-0.000103961
6.27427e-05
-0.000108987
6.03206e-05
-0.000114258
5.26268e-05
-0.000119552
5.17294e-05
-0.000125702
4.41707e-05
-0.000132285
4.59272e-05
-0.000140973
3.90192e-05
-0.000151419
4.60278e-05
-0.000166839
4.09482e-05
-0.000187973
5.81336e-05
-0.000221596
5.74907e-05
-0.000268739
8.94619e-05
-0.000340473
8.45166e-05
-0.000401118
7.99318e-05
-0.00041532
-0.000135628
-0.000229139
-0.000557813
-0.00138643
-3.49137e-06
7.59467e-05
-1.78537e-05
0.000134133
-3.15541e-05
0.000138148
-4.49991e-05
0.000134631
-5.62831e-05
0.000126344
-6.54157e-05
0.000119214
-7.3361e-05
0.000112251
-7.98722e-05
0.000104607
-8.58863e-05
9.92143e-05
-9.11556e-05
9.12808e-05
-9.61729e-05
8.7147e-05
-0.000100807
7.88246e-05
-0.000105238
7.58439e-05
-0.000109491
6.71418e-05
-0.000113538
6.54895e-05
-0.000117651
5.66268e-05
-0.000121489
5.67855e-05
-0.000125915
4.82145e-05
-0.000129941
5.1528e-05
-0.000135715
4.39732e-05
-0.000141606
5.43082e-05
-0.00015209
4.9869e-05
-0.000166367
7.62888e-05
-0.000193708
8.20262e-05
-0.000233056
0.000135245
-0.000295897
0.000140851
-0.00033777
0.000131559
-0.000332787
-0.000151616
-0.000164252
-0.000713539
-0.00156092
-2.59967e-05
0.000102357
-3.76651e-05
0.000143164
-4.75101e-05
0.000147306
-5.40715e-05
0.000137646
-5.96828e-05
0.000130179
-6.68286e-05
0.000123279
-7.32732e-05
0.00011698
-8.02117e-05
0.000109133
-8.65428e-05
0.000104324
-9.27612e-05
9.56103e-05
-9.84408e-05
9.21239e-05
-0.000103837
8.2653e-05
-0.000108757
8.04906e-05
-0.000113453
7.0406e-05
-0.000117694
6.982e-05
-0.00012196
5.94078e-05
-0.000125616
6.09099e-05
-0.000129793
5.06092e-05
-0.000132902
5.55885e-05
-0.000137274
4.59931e-05
-0.000140116
5.86574e-05
-0.000145649
5.22087e-05
-0.000150267
8.31147e-05
-0.000163055
8.99686e-05
-0.000175825
0.000151912
-0.00020745
0.000162288
-0.000216009
0.00014753
-0.000220566
-0.000163674
-0.000121865
-0.000796566
-0.00169749
7.51275e-06
9.19392e-05
-1.89078e-05
0.000173341
-4.235e-05
0.000170998
-6.02106e-05
0.000160467
-7.41145e-05
0.00014652
-8.25228e-05
0.000135419
-9.00291e-05
0.000127151
-9.51393e-05
0.00011657
-0.000100132
0.000111659
-0.000104038
0.000100763
-0.000107769
9.78797e-05
-0.000110921
8.63097e-05
-0.000113716
8.51143e-05
-0.000116157
7.28597e-05
-0.00011804
7.34365e-05
-0.000119803
6.08475e-05
-0.000120403
6.33054e-05
-0.00012146
5.0916e-05
-0.000119598
5.60773e-05
-0.000119003
4.3659e-05
-0.000112243
5.57648e-05
-0.000106583
4.30722e-05
-9.03648e-05
7.34151e-05
-7.47016e-05
6.87093e-05
-4.39759e-05
0.000132096
-2.51251e-05
0.000134738
2.57183e-06
0.000137223
-3.74298e-05
-0.000133629
2.42158e-06
-0.000793436
-0.00170442
-4.00475e-05
0.000141802
-3.62482e-05
0.000163411
-4.38784e-05
0.000178592
-6.35742e-05
0.000173136
-7.17148e-05
0.000151458
-8.19675e-05
0.000140456
-8.72261e-05
0.000129669
-9.1191e-05
0.000116728
-9.23798e-05
0.000111141
-9.26221e-05
9.80751e-05
-9.10042e-05
9.54066e-05
-8.92177e-05
8.20448e-05
-8.59054e-05
8.15777e-05
-8.31677e-05
6.77983e-05
-7.88581e-05
6.94538e-05
-7.58801e-05
5.54162e-05
-7.07172e-05
5.9134e-05
-6.7867e-05
4.51375e-05
-6.12164e-05
5.12418e-05
-5.77996e-05
3.6676e-05
-4.73943e-05
4.78523e-05
-3.96778e-05
3.12966e-05
-1.7026e-05
5.37463e-05
5.60825e-06
4.05619e-05
6.56388e-05
7.60351e-05
0.000114481
7.2769e-05
0.00021172
4.17497e-05
0.000212888
-0.000161619
0.000186505
-0.000758756
-0.00156046
-0.000208165
0.000331968
-0.000215613
0.000179076
-0.000211966
0.000174979
-0.000170017
0.000139206
-0.000132763
0.000117928
-8.79678e-05
0.000100663
-4.61075e-05
9.17143e-05
-5.43464e-06
7.87021e-05
3.42079e-05
7.49092e-05
6.95475e-05
6.39034e-05
0.000105206
6.279e-05
0.000135201
5.23108e-05
0.000166571
5.30428e-05
0.000191695
4.24138e-05
0.000218965
4.48045e-05
0.000239718
3.41619e-05
0.000263868
3.74699e-05
0.000279819
2.81475e-05
0.00030353
3.08452e-05
0.000313473
2.37592e-05
0.000340528
2.65544e-05
0.000346388
1.94065e-05
0.000383535
2.52157e-05
0.000397651
1.77701e-05
0.000466612
1.97813e-05
0.000519344
1.02001e-05
0.000617587
-3.24427e-05
0.000636922
-0.000173819
0.000457218
-0.000480395
-0.00106307
0.00035001
0.00051337
0.000692398
0.000827429
0.000943949
0.00104149
0.00113244
0.00120862
0.00128343
0.00134511
0.00140834
0.0014585
0.00151243
0.00155261
0.00159875
0.00163037
0.00166983
0.00169478
0.00172858
0.00174828
0.00177861
0.00179365
0.00182259
0.00183578
0.00185827
0.00185847
0.00182278
0.00162668
0.00116277
)
;

boundaryField
{
    movingWall
    {
        type            calculated;
        value           uniform 0;
    }
    fixedWalls
    {
        type            calculated;
        value           uniform 0;
    }
    frontAndBack
    {
        type            empty;
    }
}


// ************************************************************************* //
