/*--------------------------------*- C++ -*----------------------------------*\
| =========                 |                                                 |
| \\      /  F ield         | OpenFOAM: The Open Source CFD Toolbox           |
|  \\    /   O peration     | Version:  2406                                  |
|   \\  /    A nd           | Website:  www.openfoam.com                      |
|    \\/     M anipulation  |                                                 |
\*---------------------------------------------------------------------------*/
FoamFile
{
    version     2.0;
    format      ascii;
    arch        "LSB;label=32;scalar=64";
    class       volVectorField;
    location    "1.8";
    object      Uc;
}
// * * * * * * * * * * * * * * * * * * * * * * * * * * * * * * * * * * * * * //

dimensions      [0 1 -1 0 0 0 0];

internalField   nonuniform List<vector> 
900
(
(-6.23264e-05 2.11317e-05 0)
(-0.000416442 0.000113541 0)
(-0.000871949 0.00012812 0)
(-0.00131044 0.000133352 0)
(-0.00176511 0.000129812 0)
(-0.00218701 0.000127841 0)
(-0.00260874 0.000123023 0)
(-0.00299706 0.000118398 0)
(-0.00337149 0.000111747 0)
(-0.00370983 0.000104474 0)
(-0.00402219 9.54316e-05 0)
(-0.0042937 8.52503e-05 0)
(-0.00452831 7.33925e-05 0)
(-0.00471598 6.00473e-05 0)
(-0.00485663 4.50939e-05 0)
(-0.00494388 2.84748e-05 0)
(-0.00497478 1.03984e-05 0)
(-0.00494669 -9.29145e-06 0)
(-0.00485405 -3.01134e-05 0)
(-0.00469944 -5.21441e-05 0)
(-0.00447385 -7.47515e-05 0)
(-0.00418823 -9.76562e-05 0)
(-0.00382773 -0.00012041 0)
(-0.00341679 -0.00014191 0)
(-0.0029301 -0.000162649 0)
(-0.0024128 -0.000179871 0)
(-0.00182164 -0.000196105 0)
(-0.00123354 -0.000202394 0)
(-0.000590693 -0.000190273 0)
(-8.66105e-05 -9.20911e-05 0)
(-0.000128069 0.000370919 0)
(-0.000741058 0.00071313 0)
(-0.0015135 0.000772714 0)
(-0.00224208 0.000776225 0)
(-0.0029919 0.000754576 0)
(-0.00368756 0.000729914 0)
(-0.00437454 0.000695191 0)
(-0.00500558 0.000656053 0)
(-0.00560589 0.000608628 0)
(-0.00614469 0.000555493 0)
(-0.0066344 0.000494837 0)
(-0.00705466 0.000427721 0)
(-0.00741001 0.000353618 0)
(-0.00768689 0.000272706 0)
(-0.00788498 0.000185477 0)
(-0.00799582 9.15904e-05 0)
(-0.00801588 -7.45732e-06 0)
(-0.00794178 -0.000112241 0)
(-0.00776714 -0.000220194 0)
(-0.00749556 -0.000331782 0)
(-0.00711667 -0.000443468 0)
(-0.00664514 -0.000555049 0)
(-0.00606339 -0.000662688 0)
(-0.00540399 -0.000764504 0)
(-0.00463582 -0.00085814 0)
(-0.00381941 -0.000938004 0)
(-0.00289968 -0.00100531 0)
(-0.00198176 -0.00103601 0)
(-0.000987394 -0.000983368 0)
(-0.000181277 -0.000584884 0)
(-0.000145542 0.000868938 0)
(-0.000825999 0.0014987 0)
(-0.00168078 0.00161314 0)
(-0.00248478 0.00160787 0)
(-0.00331076 0.00156209 0)
(-0.00407662 0.00150488 0)
(-0.00483146 0.0014299 0)
(-0.00552446 0.00134347 0)
(-0.00618244 0.00124156 0)
(-0.00677249 0.00112699 0)
(-0.0073078 0.000998163 0)
(-0.00776663 0.000856076 0)
(-0.00815389 0.000700812 0)
(-0.00845503 0.000532224 0)
(-0.00866996 0.000351933 0)
(-0.00878941 0.000159042 0)
(-0.00880999 -4.30808e-05 0)
(-0.00872764 -0.000255768 0)
(-0.00853601 -0.000473562 0)
(-0.00823825 -0.000697839 0)
(-0.0078238 -0.000920947 0)
(-0.00730747 -0.00114363 0)
(-0.00667097 -0.0013568 0)
(-0.00594835 -0.00155928 0)
(-0.00510661 -0.00174305 0)
(-0.0042105 -0.00190211 0)
(-0.0032004 -0.00203177 0)
(-0.00219081 -0.0020961 0)
(-0.00109425 -0.00199349 0)
(-0.000204199 -0.00123598 0)
(-0.000147323 0.00133817 0)
(-0.000852089 0.00226459 0)
(-0.00173737 0.0024317 0)
(-0.00256785 0.00241859 0)
(-0.00342264 0.00234887 0)
(-0.00421421 0.00226031 0)
(-0.00499556 0.00214638 0)
(-0.00571285 0.00201451 0)
(-0.00639498 0.00186012 0)
(-0.00700731 0.00168652 0)
(-0.0075642 0.00149214 0)
(-0.00804274 0.00127797 0)
(-0.00844858 0.00104466 0)
(-0.00876621 0.000791614 0)
(-0.00899602 0.000521671 0)
(-0.0091277 0.000233061 0)
(-0.00915818 -6.87541e-05 0)
(-0.00908218 -0.000386399 0)
(-0.00889347 -0.000711114 0)
(-0.00859392 -0.00104596 0)
(-0.00817269 -0.0013785 0)
(-0.0076438 -0.00171141 0)
(-0.00698794 -0.00202938 0)
(-0.00623981 -0.002333 0)
(-0.00536407 -0.00260746 0)
(-0.00442906 -0.0028473 0)
(-0.00337059 -0.00304111 0)
(-0.00231128 -0.00314154 0)
(-0.0011566 -0.00299175 0)
(-0.00021712 -0.00187421 0)
(-0.00014865 0.00185 0)
(-0.000874549 0.00309242 0)
(-0.00178817 0.00331507 0)
(-0.00264469 0.00329281 0)
(-0.00352757 0.00319776 0)
(-0.00434502 0.00307542 0)
(-0.00515334 0.00292011 0)
(-0.00589603 0.00273965 0)
(-0.00660405 0.00252947 0)
(-0.00724103 0.00229294 0)
(-0.00782267 0.00202886 0)
(-0.00832477 0.00173781 0)
(-0.00875391 0.00142137 0)
(-0.0090933 0.00107801 0)
(-0.00934405 0.000712195 0)
(-0.0094943 0.000320654 0)
(-0.0095415 -8.84344e-05 0)
(-0.00947847 -0.000519904 0)
(-0.00929923 -0.000960675 0)
(-0.00900348 -0.00141682 0)
(-0.00858022 -0.00186945 0)
(-0.00804164 -0.00232502 0)
(-0.00736741 -0.00275946 0)
(-0.00659218 -0.00317747 0)
(-0.00567781 -0.00355395 0)
(-0.00469667 -0.00388655 0)
(-0.00357873 -0.00415314 0)
(-0.00245754 -0.00429612 0)
(-0.00122963 -0.00409725 0)
(-0.000231104 -0.0025877 0)
(-0.000151998 0.00235352 0)
(-0.000903431 0.00391909 0)
(-0.0018497 0.00419857 0)
(-0.00273703 0.00416862 0)
(-0.00365296 0.00404876 0)
(-0.00450122 0.00389389 0)
(-0.00534172 0.0036984 0)
(-0.00611491 0.00347099 0)
(-0.00685424 0.00320682 0)
(-0.00752124 0.00290938 0)
(-0.00813333 0.00257784 0)
(-0.00866467 0.0022122 0)
(-0.00912311 0.00181508 0)
(-0.00949019 0.00138356 0)
(-0.00976806 0.000924107 0)
(-0.00994278 0.000431078 0)
(-0.0100127 -8.39515e-05 0)
(-0.00996787 -0.00062936 0)
(-0.00980304 -0.00118657 0)
(-0.0095146 -0.00176663 0)
(-0.00909179 -0.00234222 0)
(-0.00854375 -0.00292624 0)
(-0.00784925 -0.00348276 0)
(-0.00704208 -0.00402394 0)
(-0.00608087 -0.00451004 0)
(-0.00504247 -0.00494544 0)
(-0.00384958 -0.0052923 0)
(-0.00264947 -0.00548496 0)
(-0.0013275 -0.00523734 0)
(-0.000251967 -0.00332008 0)
(-0.000156056 0.00288723 0)
(-0.000938994 0.00479523 0)
(-0.00192661 0.00513479 0)
(-0.00285276 0.00509696 0)
(-0.00381 0.00495154 0)
(-0.00469695 0.00476292 0)
(-0.00557758 0.00452601 0)
(-0.00638887 0.00424999 0)
(-0.00716714 0.00393015 0)
(-0.00787148 0.00356965 0)
(-0.00852143 0.00316843 0)
(-0.00908912 0.00272532 0)
(-0.00958415 0.00224449 0)
(-0.00998587 0.0017208 0)
(-0.010298 0.00116343 0)
(-0.0105039 0.000563152 0)
(-0.0106033 -6.3933e-05 0)
(-0.0105825 -0.000731603 0)
(-0.0104376 -0.00141391 0)
(-0.0101603 -0.00212963 0)
(-0.00974074 -0.00283993 0)
(-0.00918312 -0.00356804 0)
(-0.00846585 -0.0042613 0)
(-0.00762023 -0.00494443 0)
(-0.00660135 -0.00555604 0)
(-0.00549074 -0.00611307 0)
(-0.00420173 -0.00655357 0)
(-0.00289982 -0.00680765 0)
(-0.00145449 -0.00651007 0)
(-0.000279494 -0.00414627 0)
(-0.000162112 0.00343964 0)
(-0.000982479 0.00570535 0)
(-0.0020183 0.006108 0)
(-0.0029899 0.00606312 0)
(-0.00399532 0.00589185 0)
(-0.00492749 0.00566961 0)
(-0.00585496 0.00539108 0)
(-0.00671086 0.00506659 0)
(-0.00753481 0.00469123 0)
(-0.0082831 0.00426805 0)
(-0.00897787 0.00379778 0)
(-0.00958881 0.0032778 0)
(-0.0101278 0.00271422 0)
(-0.0105715 0.00209883 0)
(-0.0109259 0.00144431 0)
(-0.0111704 0.000736244 0)
(-0.0113076 -3.35376e-06 0)
(-0.0113182 -0.000796262 0)
(-0.0112011 -0.0016068 0)
(-0.010941 -0.00246539 0)
(-0.0105302 -0.00331771 0)
(-0.00996546 -0.00420301 0)
(-0.00922572 -0.00504527 0)
(-0.00833722 -0.00588945 0)
(-0.00725151 -0.00664254 0)
(-0.00605431 -0.00734326 0)
(-0.0046471 -0.00789259 0)
(-0.00321872 -0.00822408 0)
(-0.00161665 -0.00787644 0)
(-0.000316156 -0.00503344 0)
(-0.00016819 0.00401058 0)
(-0.00103235 0.00665521 0)
(-0.00212556 0.00712531 0)
(-0.00315083 0.00707338 0)
(-0.00421309 0.00687625 0)
(-0.00519835 0.00661986 0)
(-0.00618073 0.00629978 0)
(-0.00708855 0.00592636 0)
(-0.00796568 0.00549554 0)
(-0.0087648 0.00500907 0)
(-0.00951162 0.00446948 0)
(-0.0101726 0.00387143 0)
(-0.010763 0.00322406 0)
(-0.0112557 0.0025145 0)
(-0.0116604 0.00176037 0)
(-0.0119516 0.00093978 0)
(-0.0121355 8.28088e-05 0)
(-0.012186 -0.000843794 0)
(-0.0121063 -0.00179118 0)
(-0.0118713 -0.0028067 0)
(-0.0114779 -0.00381487 0)
(-0.0109108 -0.00487877 0)
(-0.0101519 -0.00588975 0)
(-0.00921776 -0.00692395 0)
(-0.00805719 -0.00784244 0)
(-0.00675811 -0.00871946 0)
(-0.00520726 -0.00939962 0)
(-0.00362306 -0.00983213 0)
(-0.00182226 -0.00943401 0)
(-0.00036465 -0.00605743 0)
(-0.000176646 0.00463303 0)
(-0.00109072 0.00768273 0)
(-0.00224841 0.00822422 0)
(-0.00333403 0.00816566 0)
(-0.00446005 0.00794064 0)
(-0.00550487 0.00764875 0)
(-0.00654885 0.00728447 0)
(-0.00751513 0.00686023 0)
(-0.00845234 0.00637164 0)
(-0.00930926 0.00582023 0)
(-0.0101157 0.00521009 0)
(-0.0108344 0.00453309 0)
(-0.0114848 0.00380201 0)
(-0.0120354 0.00299798 0)
(-0.0125006 0.00214507 0)
(-0.0128484 0.00121113 0)
(-0.0130911 0.000236872 0)
(-0.0131927 -0.000827103 0)
(-0.0131638 -0.00191448 0)
(-0.0129654 -0.0030969 0)
(-0.012602 -0.00427042 0)
(-0.0120412 -0.00553306 0)
(-0.0112706 -0.00673118 0)
(-0.0102909 -0.00798815 0)
(-0.00904971 -0.00909872 0)
(-0.00763303 -0.0101941 0)
(-0.00590973 -0.0110326 0)
(-0.00413497 -0.0116006 0)
(-0.0020821 -0.0111535 0)
(-0.000428535 -0.00719227 0)
(-0.00018381 0.00524901 0)
(-0.00115493 0.00872525 0)
(-0.00238761 0.00934416 0)
(-0.00354285 0.00927857 0)
(-0.0047424 0.00902748 0)
(-0.0058551 0.00870038 0)
(-0.00696925 0.00829485 0)
(-0.00800093 0.0078213 0)
(-0.00900548 0.00727842 0)
(-0.00992599 0.00666409 0)
(-0.0107985 0.00598667 0)
(-0.0115804 0.00523223 0)
(-0.0122977 0.00441976 0)
(-0.0129125 0.00352125 0)
(-0.0134468 0.00257014 0)
(-0.0138597 0.00151993 0)
(-0.014173 0.000426055 0)
(-0.0143375 -0.000783171 0)
(-0.014375 -0.00201782 0)
(-0.0142277 -0.00338324 0)
(-0.0139126 -0.0047372 0)
(-0.0133722 -0.00622724 0)
(-0.0126054 -0.00763822 0)
(-0.0115863 -0.00916278 0)
(-0.0102653 -0.0105016 0)
(-0.00871777 -0.0118737 0)
(-0.00679218 -0.0129081 0)
(-0.00478655 -0.013662 0)
(-0.00241429 -0.013168 0)
(-0.000516135 -0.0085445 0)
(-0.000195333 0.00597161 0)
(-0.00122943 0.00991722 0)
(-0.00254347 0.0106175 0)
(-0.00377394 0.0105453 0)
(-0.0050528 0.0102618 0)
(-0.00623885 0.00989569 0)
(-0.00742874 0.00944055 0)
(-0.00853189 0.00891198 0)
(-0.00961017 0.00830704 0)
(-0.0106015 0.00762433 0)
(-0.011548 0.00687457 0)
(-0.0124018 0.00603931 0)
(-0.0131961 0.00514421 0)
(-0.0138857 0.00415045 0)
(-0.014502 0.0031034 0)
(-0.0149934 0.00193762 0)
(-0.015394 0.000727933 0)
(-0.015638 -0.000627668 0)
(-0.0157635 -0.00200817 0)
(-0.0156868 -0.00356557 0)
(-0.0154451 -0.00510706 0)
(-0.0149449 -0.0068501 0)
(-0.0142049 -0.00849665 0)
(-0.0131576 -0.0103402 0)
(-0.0117636 -0.0119491 0)
(-0.0100725 -0.0136764 0)
(-0.00791098 -0.0149568 0)
(-0.00562424 -0.0159741 0)
(-0.00284169 -0.0154403 0)
(-0.000636075 -0.0100849 0)
(-0.000202032 0.00662935 0)
(-0.00130859 0.0110585 0)
(-0.0027179 0.0118489 0)
(-0.00403612 0.0117678 0)
(-0.00540722 0.0114587 0)
(-0.0066765 0.011055 0)
(-0.00795254 0.0105606 0)
(-0.00913337 0.0099824 0)
(-0.0102924 0.00932702 0)
(-0.0113576 0.00858319 0)
(-0.0123827 0.00777196 0)
(-0.0133102 0.00686259 0)
(-0.0141856 0.00589372 0)
(-0.014953 0.00480908 0)
(-0.0156583 0.00367233 0)
(-0.0162352 0.00239161 0)
(-0.0167364 0.00106895 0)
(-0.017074 -0.000438308 0)
(-0.0173102 -0.00196721 0)
(-0.0173276 -0.0037323 0)
(-0.0171932 -0.0054739 0)
(-0.0167637 -0.0075047 0)
(-0.0160906 -0.00941693 0)
(-0.015042 -0.0116456 0)
(-0.0136018 -0.0135784 0)
(-0.0117655 -0.0157659 0)
(-0.00934212 -0.0173595 0)
(-0.00671724 -0.0187537 0)
(-0.00340751 -0.0181892 0)
(-0.000811613 -0.0119978 0)
(-0.000218866 0.00749862 0)
(-0.00140222 0.0124857 0)
(-0.00291106 0.0133677 0)
(-0.00431895 0.0132803 0)
(-0.00578419 0.0129279 0)
(-0.00713925 0.0124793 0)
(-0.0085032 0.011923 0)
(-0.00976666 0.0112819 0)
(-0.0110109 0.0105549 0)
(-0.0121579 0.00973619 0)
(-0.0132698 0.00884889 0)
(-0.0142816 0.00785612 0)
(-0.0152504 0.00680823 0)
(-0.0161089 0.00563038 0)
(-0.0169199 0.00440838 0)
(-0.0175992 0.00301689 0)
(-0.0182238 0.00159332 0)
(-0.0186777 -5.88785e-05 0)
(-0.0190565 -0.00172198 0)
(-0.0191987 -0.00369473 0)
(-0.0192151 -0.00563079 0)
(-0.0188952 -0.00797313 0)
(-0.0183414 -0.0101707 0)
(-0.0173286 -0.0128575 0)
(-0.0158845 -0.0151758 0)
(-0.0139083 -0.0179675 0)
(-0.0112017 -0.0199697 0)
(-0.00816685 -0.021924 0)
(-0.00417038 -0.0213528 0)
(-0.00107136 -0.0142554 0)
(-0.000221687 0.00817728 0)
(-0.00149807 0.0137089 0)
(-0.00312695 0.0146971 0)
(-0.00464528 0.014593 0)
(-0.00622568 0.0142186 0)
(-0.00768029 0.0137262 0)
(-0.00914827 0.0131374 0)
(-0.0104989 0.0124462 0)
(-0.011836 0.0116787 0)
(-0.0130614 0.010803 0)
(-0.0142605 0.00986713 0)
(-0.0153492 0.00880762 0)
(-0.0164089 0.00770244 0)
(-0.0173519 0.00644339 0)
(-0.0182688 0.0051523 0)
(-0.01905 0.00365643 0)
(-0.0198079 0.00214385 0)
(-0.0203901 0.000346859 0)
(-0.0209395 -0.00144275 0)
(-0.0212389 -0.00363312 0)
(-0.0214617 -0.00576496 0)
(-0.021309 -0.00845194 0)
(-0.0209608 -0.01096 0)
(-0.0200571 -0.0141902 0)
(-0.0187025 -0.0169674 0)
(-0.0166289 -0.0205437 0)
(-0.0136577 -0.0230797 0)
(-0.0101386 -0.0258602 0)
(-0.00525384 -0.025315 0)
(-0.00148999 -0.0172206 0)
(-0.000250016 0.00926766 0)
(-0.00161746 0.0154848 0)
(-0.00336767 0.0165714 0)
(-0.00498832 0.0164643 0)
(-0.00667493 0.0160216 0)
(-0.00822485 0.0154754 0)
(-0.00978757 0.0147971 0)
(-0.0112289 0.0140281 0)
(-0.012658 0.0131672 0)
(-0.013973 0.0122031 0)
(-0.0152682 0.0111812 0)
(-0.0164499 0.0100319 0)
(-0.0176167 0.0088529 0)
(-0.0186631 0.00750466 0)
(-0.0197079 0.00615024 0)
(-0.0206131 0.00455875 0)
(-0.0215334 0.00298347 0)
(-0.0222724 0.00106409 0)
(-0.0230346 -0.000811031 0)
(-0.0235334 -0.00319416 0)
(-0.0240284 -0.0054812 0)
(-0.0241089 -0.00851292 0)
(-0.0240672 -0.0113237 0)
(-0.0233638 -0.0151778 0)
(-0.0222265 -0.018491 0)
(-0.0201274 -0.0230977 0)
(-0.0169556 -0.0263574 0)
(-0.0128718 -0.0304051 0)
(-0.00685158 -0.0299704 0)
(-0.00218453 -0.0209463 0)
(-0.000240523 0.00992123 0)
(-0.00173403 0.0167339 0)
(-0.00363533 0.0179493 0)
(-0.00539854 0.0177995 0)
(-0.0072328 0.0173474 0)
(-0.00890006 0.016741 0)
(-0.0105906 0.0160498 0)
(-0.0121223 0.0152285 0)
(-0.0136554 0.0143506 0)
(-0.015042 0.0133368 0)
(-0.0164263 0.0122923 0)
(-0.0176737 0.0110884 0)
(-0.0189306 0.00988202 0)
(-0.0200523 0.00846903 0)
(-0.0212081 0.00708358 0)
(-0.022216 0.00541011 0)
(-0.0232932 0.00379666 0)
(-0.0241857 0.00176158 0)
(-0.0251832 -0.000175195 0)
(-0.0259137 -0.00274864 0)
(-0.0267571 -0.00516544 0)
(-0.0271637 -0.0085531 0)
(-0.0275882 -0.0116573 0)
(-0.0272529 -0.016208 0)
(-0.026579 -0.0201278 0)
(-0.0246413 -0.0260268 0)
(-0.0214818 -0.0302478 0)
(-0.0168053 -0.0361734 0)
(-0.00940924 -0.0359864 0)
(-0.0034502 -0.0262741 0)
(-0.00029742 0.01135 0)
(-0.00189434 0.0190457 0)
(-0.00394988 0.0203513 0)
(-0.00582293 0.020219 0)
(-0.00776569 0.0196397 0)
(-0.00953229 0.0189716 0)
(-0.0113102 0.0181289 0)
(-0.0129373 0.0172037 0)
(-0.0145588 0.0161842 0)
(-0.0160403 0.0150539 0)
(-0.0175236 0.0138988 0)
(-0.0188685 0.0125876 0)
(-0.0202406 0.0113104 0)
(-0.0214704 0.0098087 0)
(-0.0227693 0.0083943 0)
(-0.0239115 0.00664977 0)
(-0.0251824 0.00504479 0)
(-0.0262614 0.00294094 0)
(-0.0275423 0.00103148 0)
(-0.0285508 -0.00165596 0)
(-0.0298229 -0.00408315 0)
(-0.0306448 -0.00775155 0)
(-0.0316935 -0.0110446 0)
(-0.0319088 -0.0163104 0)
(-0.0319953 -0.0208685 0)
(-0.0305009 -0.0283927 0)
(-0.0277464 -0.0339368 0)
(-0.0225795 -0.0427267 0)
(-0.013747 -0.0431506 0)
(-0.00586432 -0.0338058 0)
(-0.000252284 0.0119068 0)
(-0.00203899 0.0202044 0)
(-0.00428124 0.0216777 0)
(-0.00634735 0.0214196 0)
(-0.00849503 0.0208713 0)
(-0.0103973 0.0200974 0)
(-0.0123452 0.0192944 0)
(-0.0140517 0.0183108 0)
(-0.0157913 0.0173275 0)
(-0.0173147 0.0161595 0)
(-0.0188799 0.015031 0)
(-0.0202534 0.0136822 0)
(-0.0216973 0.0124267 0)
(-0.0229634 0.0108803 0)
(-0.0243532 0.00949375 0)
(-0.0255636 0.00769726 0)
(-0.0269829 0.00613761 0)
(-0.0282001 0.00397065 0)
(-0.02975 0.00212715 0)
(-0.031035 -0.00066209 0)
(-0.0328024 -0.00303138 0)
(-0.0341469 -0.00693996 0)
(-0.0360595 -0.0103119 0)
(-0.0371442 -0.0162473 0)
(-0.038528 -0.0213871 0)
(-0.038078 -0.0307221 0)
(-0.0365826 -0.0379379 0)
(-0.0315002 -0.0507174 0)
(-0.0217926 -0.0524673 0)
(-0.0109518 -0.0461032 0)
(-0.000388773 0.013843 0)
(-0.00228046 0.0233618 0)
(-0.00474233 0.0248674 0)
(-0.00691328 0.0247151 0)
(-0.00913538 0.0239009 0)
(-0.0111321 0.0230737 0)
(-0.0131208 0.0219837 0)
(-0.014927 0.0208511 0)
(-0.0167314 0.0196266 0)
(-0.0183575 0.018286 0)
(-0.0200164 0.0169937 0)
(-0.0214912 0.0154952 0)
(-0.0230522 0.0141626 0)
(-0.0244217 0.01251 0)
(-0.0259573 0.011137 0)
(-0.0272901 0.00928933 0)
(-0.0289104 0.00784312 0)
(-0.0303051 0.00568685 0)
(-0.0321728 0.00406896 0)
(-0.0337639 0.00133776 0)
(-0.0360889 -0.000706163 0)
(-0.0380192 -0.00461222 0)
(-0.0409557 -0.00769865 0)
(-0.0431633 -0.0140649 0)
(-0.0463609 -0.0194842 0)
(-0.0477471 -0.0307509 0)
(-0.0488841 -0.0399509 0)
(-0.0455201 -0.0581953 0)
(-0.0371353 -0.0630022 0)
(-0.0223091 -0.0670085 0)
(-0.000233289 0.014246 0)
(-0.00245346 0.0242276 0)
(-0.00513048 0.0259917 0)
(-0.00757684 0.0254523 0)
(-0.0101371 0.0247856 0)
(-0.0122793 0.0237383 0)
(-0.0145346 0.0228211 0)
(-0.0163727 0.0216201 0)
(-0.0183239 0.0205478 0)
(-0.0199193 0.0191925 0)
(-0.0216424 0.0180172 0)
(-0.023066 0.0165023 0)
(-0.0246571 0.0152673 0)
(-0.0259793 0.0135847 0)
(-0.0275469 0.0123187 0)
(-0.0288539 0.0104385 0)
(-0.0305492 0.00914673 0)
(-0.0319742 0.00697879 0)
(-0.0340422 0.0056147 0)
(-0.0358144 0.00291959 0)
(-0.0386546 0.00129195 0)
(-0.0411621 -0.00253073 0)
(-0.0453372 -0.00504309 0)
(-0.0490519 -0.0114762 0)
(-0.0549635 -0.016575 0)
(-0.0596088 -0.0291112 0)
(-0.0659307 -0.0397491 0)
(-0.0680785 -0.0638288 0)
(-0.0656487 -0.074755 0)
(-0.0464661 -0.107152 0)
(-0.000626385 0.0168631 0)
(-0.00292094 0.0287409 0)
(-0.00595493 0.0303232 0)
(-0.00847251 0.0302169 0)
(-0.0109296 0.0289571 0)
(-0.0131522 0.0279168 0)
(-0.0152964 0.0264239 0)
(-0.0172545 0.0249903 0)
(-0.0192071 0.0234853 0)
(-0.0209345 0.0218483 0)
(-0.0227394 0.0204133 0)
(-0.0242794 0.0186564 0)
(-0.0259883 0.0173218 0)
(-0.0274059 0.015469 0)
(-0.0291113 0.0142565 0)
(-0.0305031 0.0123019 0)
(-0.0323719 0.0112394 0)
(-0.0338956 0.00913842 0)
(-0.0362317 0.00825603 0)
(-0.0381825 0.005847 0)
(-0.0415374 0.00510689 0)
(-0.0445261 0.00186868 0)
(-0.0498823 0.000819362 0)
(-0.0550752 -0.00483973 0)
(-0.0640697 -0.00811557 0)
(-0.0730787 -0.020647 0)
(-0.0877452 -0.0304885 0)
(-0.100083 -0.0602179 0)
(-0.107627 -0.0832108 0)
(-0.075123 -0.184099 0)
(-6.98476e-05 0.0173075 0)
(-0.00299054 0.0289878 0)
(-0.0062736 0.0310803 0)
(-0.0091987 0.0297827 0)
(-0.0123962 0.0289909 0)
(-0.0147254 0.0274931 0)
(-0.0173802 0.0264939 0)
(-0.0192286 0.0250068 0)
(-0.021391 0.0238912 0)
(-0.0229301 0.022293 0)
(-0.0247734 0.0211351 0)
(-0.0261213 0.0193886 0)
(-0.0277935 0.0182645 0)
(-0.0290282 0.0163758 0)
(-0.0306636 0.0153665 0)
(-0.0318667 0.0133538 0)
(-0.0336503 0.0125566 0)
(-0.0349575 0.0104238 0)
(-0.0372396 0.00998209 0)
(-0.038957 0.00766951 0)
(-0.0424689 0.00778159 0)
(-0.0454281 0.00502911 0)
(-0.051752 0.00571895 0)
(-0.0581046 0.00155447 0)
(-0.0707512 0.00173147 0)
(-0.0848372 -0.00741316 0)
(-0.109814 -0.0124183 0)
(-0.128101 -0.048155 0)
(-0.136574 -0.100565 0)
(-0.0613156 -0.302348 0)
(-0.00147776 0.0203825 0)
(-0.00442749 0.0357369 0)
(-0.00815465 0.0369869 0)
(-0.0110292 0.037204 0)
(-0.0133817 0.0350395 0)
(-0.0157885 0.0336693 0)
(-0.0179232 0.0315018 0)
(-0.0199837 0.0295856 0)
(-0.0220274 0.0277119 0)
(-0.0237895 0.0256168 0)
(-0.0257092 0.0240623 0)
(-0.0272265 0.0218947 0)
(-0.0290325 0.0206415 0)
(-0.0303697 0.0184286 0)
(-0.0321407 0.0175014 0)
(-0.0333815 0.0152804 0)
(-0.0352953 0.0147823 0)
(-0.0365578 0.0126312 0)
(-0.0389785 0.012831 0)
(-0.040516 0.0108662 0)
(-0.0441941 0.0123875 0)
(-0.0468102 0.0107509 0)
(-0.053472 0.0146514 0)
(-0.0595859 0.0133268 0)
(-0.0737391 0.0201414 0)
(-0.0882454 0.0161149 0)
(-0.116825 0.0150299 0)
(-0.1246 -0.0395441 0)
(-0.123925 -0.14211 0)
(-0.0101192 -0.394872 0)
(0.000884848 0.0226489 0)
(-0.00303973 0.0347127 0)
(-0.00770994 0.0371144 0)
(-0.011274 0.0338597 0)
(-0.0157749 0.0330431 0)
(-0.0180507 0.0309683 0)
(-0.0212658 0.0300187 0)
(-0.0228301 0.028227 0)
(-0.0251904 0.0271859 0)
(-0.026453 0.0252652 0)
(-0.0283668 0.0242447 0)
(-0.0294733 0.0221221 0)
(-0.0311548 0.0212428 0)
(-0.0321371 0.01895 0)
(-0.0337093 0.0183477 0)
(-0.0345711 0.015958 0)
(-0.0361797 0.0158244 0)
(-0.0368899 0.0134473 0)
(-0.0388451 0.0141675 0)
(-0.0393484 0.0119944 0)
(-0.0423462 0.0144538 0)
(-0.0429788 0.0130283 0)
(-0.0487476 0.0190264 0)
(-0.0517931 0.0198376 0)
(-0.0654639 0.0313312 0)
(-0.0761161 0.0318518 0)
(-0.103603 0.0281411 0)
(-0.100724 -0.0476783 0)
(-0.0984306 -0.19933 0)
(0.00321223 -0.443213 0)
(-0.00566884 0.0228343 0)
(-0.00983936 0.0456429 0)
(-0.0126948 0.0456734 0)
(-0.0157611 0.0468103 0)
(-0.0166924 0.0426678 0)
(-0.0191941 0.0404712 0)
(-0.0210225 0.0372234 0)
(-0.023102 0.0344359 0)
(-0.0252092 0.0321924 0)
(-0.02692 0.0293594 0)
(-0.0289494 0.0278309 0)
(-0.0303332 0.0249696 0)
(-0.0321867 0.0239799 0)
(-0.0332832 0.0210671 0)
(-0.0349989 0.0205901 0)
(-0.0358292 0.0176832 0)
(-0.0375548 0.0178129 0)
(-0.0380399 0.0150755 0)
(-0.0400716 0.016207 0)
(-0.0399542 0.013896 0)
(-0.042749 0.0174063 0)
(-0.0417799 0.0162397 0)
(-0.046236 0.0256775 0)
(-0.0449239 0.028317 0)
(-0.0544384 0.0479064 0)
(-0.0537548 0.050361 0)
(-0.0743597 0.0465838 0)
(-0.0584579 -0.0485896 0)
(-0.0737806 -0.235002 0)
(0.00499295 -0.496594 0)
(0.00478346 0.0382465 0)
(-0.000481246 0.0401295 0)
(-0.0109736 0.0425866 0)
(-0.0145293 0.0357195 0)
(-0.0216481 0.0353909 0)
(-0.0228569 0.0334563 0)
(-0.0267178 0.0328887 0)
(-0.027383 0.0309756 0)
(-0.0298223 0.0302652 0)
(-0.0304058 0.027882 0)
(-0.0321936 0.0272299 0)
(-0.0326609 0.0244291 0)
(-0.0340977 0.0240222 0)
(-0.0343432 0.020916 0)
(-0.0355657 0.0209379 0)
(-0.0354792 0.017641 0)
(-0.0366252 0.0183019 0)
(-0.0358692 0.0149198 0)
(-0.0372684 0.0166322 0)
(-0.0348287 0.0132871 0)
(-0.0369691 0.0171542 0)
(-0.0309358 0.0146011 0)
(-0.0337906 0.0233801 0)
(-0.021671 0.0249854 0)
(-0.025097 0.0420354 0)
(-0.00461494 0.0458115 0)
(-0.0150837 0.0398042 0)
(0.0124204 -0.0518536 0)
(-0.0337498 -0.244445 0)
(0.0426429 -0.51753 0)
(-0.00950065 0.0168213 0)
(-0.0138748 0.0636754 0)
(-0.00745813 0.0598421 0)
(-0.018634 0.0604259 0)
(-0.0194268 0.0524371 0)
(-0.0237079 0.0477523 0)
(-0.0256537 0.0433206 0)
(-0.0269281 0.0389174 0)
(-0.0280639 0.0365947 0)
(-0.0276631 0.0324703 0)
(-0.0282173 0.0312818 0)
(-0.0266936 0.0271777 0)
(-0.0271388 0.0267477 0)
(-0.0246973 0.0225514 0)
(-0.0254824 0.0227604 0)
(-0.0221075 0.0185635 0)
(-0.0236826 0.0192727 0)
(-0.0190295 0.0152956 0)
(-0.0219765 0.0165526 0)
(-0.0150909 0.0125903 0)
(-0.0199891 0.0157758 0)
(-0.00895802 0.0109636 0)
(-0.0155425 0.0201469 0)
(0.00426052 0.0159965 0)
(-0.00242631 0.0368376 0)
(0.039245 0.0351017 0)
(0.0262797 0.0430413 0)
(0.0996652 -0.0260631 0)
(0.034787 -0.224716 0)
(0.0898245 -0.488698 0)
(-0.0699398 0.0664973 0)
(-0.0559057 0.0344018 0)
(-0.0739322 0.047385 0)
(-0.0533737 0.0434126 0)
(-0.0486042 0.0384617 0)
(-0.0309668 0.0365558 0)
(-0.0218166 0.0344659 0)
(-0.00590601 0.0311338 0)
(0.0025062 0.0300188 0)
(0.0178282 0.0263354 0)
(0.0236634 0.0258163 0)
(0.0392009 0.0219415 0)
(0.0416462 0.0219782 0)
(0.058028 0.017958 0)
(0.0567225 0.0186356 0)
(0.0743983 0.0144713 0)
(0.0691884 0.0158986 0)
(0.0888536 0.0115546 0)
(0.0787897 0.0138497 0)
(0.102992 0.00921438 0)
(0.0847297 0.0125606 0)
(0.119125 0.00766879 0)
(0.0880395 0.0118119 0)
(0.141078 0.00828575 0)
(0.0960188 0.0089719 0)
(0.181699 0.00945822 0)
(0.12789 -0.0146718 0)
(0.24491 -0.0625756 0)
(0.152305 -0.210316 0)
(0.144774 -0.409739 0)
(0.0875123 0.128136 0)
(0.127516 0.0737744 0)
(0.183043 0.0581145 0)
(0.232543 0.0409087 0)
(0.263945 0.0329245 0)
(0.302234 0.0244667 0)
(0.322361 0.0210021 0)
(0.356758 0.0164886 0)
(0.368046 0.015199 0)
(0.401624 0.0122512 0)
(0.405053 0.0120039 0)
(0.439567 0.00958 0)
(0.435165 0.00990023 0)
(0.471942 0.00755248 0)
(0.459293 0.00822784 0)
(0.499642 0.00604945 0)
(0.478288 0.00650385 0)
(0.523305 0.00534197 0)
(0.493259 0.00454115 0)
(0.54355 0.00501704 0)
(0.505008 0.00328119 0)
(0.561692 0.00386612 0)
(0.51387 0.00335076 0)
(0.578946 0.00225256 0)
(0.521969 0.00353974 0)
(0.593439 -0.00215418 0)
(0.526437 0.000241929 0)
(0.58403 -0.0301516 0)
(0.431171 -0.0508347 0)
(0.311016 -0.181979 0)
)
;

boundaryField
{
    movingWall
    {
        type            fixedValue;
        value           uniform (1 0 0);
    }
    fixedWalls
    {
        type            noSlip;
    }
    frontAndBack
    {
        type            empty;
    }
}


// ************************************************************************* //
