/*--------------------------------*- C++ -*----------------------------------*\
| =========                 |                                                 |
| \\      /  F ield         | OpenFOAM: The Open Source CFD Toolbox           |
|  \\    /   O peration     | Version:  2406                                  |
|   \\  /    A nd           | Website:  www.openfoam.com                      |
|    \\/     M anipulation  |                                                 |
\*---------------------------------------------------------------------------*/
FoamFile
{
    version     2.0;
    format      ascii;
    arch        "LSB;label=32;scalar=64";
    class       volVectorField;
    location    "30.6";
    object      dU;
}
// * * * * * * * * * * * * * * * * * * * * * * * * * * * * * * * * * * * * * //

dimensions      [0 1 -1 0 0 0 0];

internalField   nonuniform List<vector> 
900
(
(1.14037e-05 -1.68589e-06 0)
(-9.43985e-06 -6.01894e-06 0)
(-4.11109e-05 -5.13404e-06 0)
(-4.87736e-05 -1.04844e-06 0)
(-5.5712e-05 4.94664e-06 0)
(-6.33008e-05 1.19308e-05 0)
(-8.41032e-05 1.84804e-05 0)
(-0.000124615 2.65848e-05 0)
(-0.000181103 5.76832e-05 0)
(-0.000203066 0.000103775 0)
(-0.000159327 0.000103244 0)
(-7.74736e-05 4.76776e-05 0)
(-1.14018e-05 -1.76689e-05 0)
(2.82971e-05 -7.00634e-05 0)
(9.2817e-05 -0.000106828 0)
(0.000215194 -0.000132188 0)
(0.000390149 -0.000151927 0)
(0.000576838 -0.000169464 0)
(0.000735087 -0.000186395 0)
(0.000792424 -0.000201387 0)
(0.000713683 -0.000210406 0)
(0.000444915 -0.000211798 0)
(5.30947e-05 -0.000201288 0)
(-0.000362027 -0.000185038 0)
(-0.000564712 -0.000163164 0)
(-0.000486165 -0.000130483 0)
(-0.000247393 -8.8779e-05 0)
(-8.12434e-05 -3.35485e-05 0)
(-2.35551e-05 -1.39877e-06 0)
(2.62955e-05 1.09401e-05 0)
(7.66133e-06 8.23738e-06 0)
(-1.2857e-05 -3.56594e-06 0)
(-3.66411e-05 -8.40133e-06 0)
(-3.81815e-05 -7.39539e-06 0)
(-4.15039e-05 1.50087e-06 0)
(-4.82745e-05 1.2227e-05 0)
(-6.83719e-05 2.75536e-05 0)
(-8.58236e-05 4.14941e-05 0)
(-0.000107349 3.15527e-05 0)
(-0.000165525 -1.17967e-05 0)
(-0.000224658 -9.18195e-05 0)
(-0.000202453 -0.00021616 0)
(-0.000129075 -0.000359648 0)
(-6.17516e-05 -0.000483203 0)
(2.77316e-05 -0.000566354 0)
(0.000166146 -0.000616861 0)
(0.000348452 -0.000650447 0)
(0.000538069 -0.000676837 0)
(0.000699431 -0.000700758 0)
(0.000765687 -0.000714475 0)
(0.000701824 -0.000704736 0)
(0.000453902 -0.000660278 0)
(8.08366e-05 -0.00056729 0)
(-0.000322369 -0.000454957 0)
(-0.000508365 -0.000337923 0)
(-0.000410561 -0.000256513 0)
(-0.000149693 -0.000199108 0)
(5.60445e-06 -0.000127172 0)
(1.96129e-05 -8.7276e-05 0)
(3.82057e-05 -7.30481e-05 0)
(2.46181e-06 3.88649e-05 0)
(-2.42229e-05 1.90647e-05 0)
(-4.64852e-05 9.82016e-06 0)
(-3.95522e-05 6.23851e-06 0)
(-3.6037e-05 1.44586e-05 0)
(-3.78779e-05 1.70161e-05 0)
(-5.90767e-05 -2.80861e-06 0)
(-0.000132722 -7.03079e-05 0)
(-0.000252646 -0.000196914 0)
(-0.000341502 -0.00037865 0)
(-0.000371791 -0.000559819 0)
(-0.000349149 -0.000722101 0)
(-0.000281188 -0.000878906 0)
(-0.000181983 -0.00100973 0)
(-4.52815e-05 -0.00109909 0)
(0.00012636 -0.00115773 0)
(0.00032552 -0.00120566 0)
(0.000522774 -0.00125082 0)
(0.000695183 -0.00129907 0)
(0.00078838 -0.00132919 0)
(0.000770321 -0.00132005 0)
(0.000587306 -0.00123207 0)
(0.000265197 -0.00103806 0)
(-0.000124535 -0.000764795 0)
(-0.000357962 -0.000446342 0)
(-0.000341435 -0.00024429 0)
(-0.000114109 -0.000121696 0)
(3.37153e-05 -0.000115799 0)
(3.06368e-05 -0.000126974 0)
(3.99968e-05 -0.000132729 0)
(-7.87073e-06 6.92248e-05 0)
(-3.9498e-05 3.92001e-05 0)
(-5.37602e-05 3.17391e-05 0)
(-3.90247e-05 2.35728e-05 0)
(-3.80647e-05 1.63202e-05 0)
(-7.8982e-05 -3.09689e-05 0)
(-0.000177834 -0.000140273 0)
(-0.000303422 -0.000332291 0)
(-0.000430402 -0.000558655 0)
(-0.000533341 -0.000775938 0)
(-0.000568216 -0.00096723 0)
(-0.000520109 -0.00112177 0)
(-0.000414771 -0.00124012 0)
(-0.000279735 -0.00132427 0)
(-0.000117631 -0.00138374 0)
(6.29464e-05 -0.00143147 0)
(0.00025992 -0.00148736 0)
(0.000450894 -0.00155322 0)
(0.000629288 -0.0016386 0)
(0.000755312 -0.00171322 0)
(0.000811981 -0.00176037 0)
(0.000751143 -0.00171063 0)
(0.000563954 -0.00152872 0)
(0.00028423 -0.0011856 0)
(2.37991e-05 -0.000723037 0)
(-8.12583e-05 -0.000325989 0)
(-2.51946e-05 -7.76607e-05 0)
(1.36335e-07 -2.29056e-05 0)
(2.86628e-06 -0.000100868 0)
(3.17863e-05 -0.000116292 0)
(-2.45779e-05 0.000127126 0)
(-6.34719e-05 9.35531e-05 0)
(-7.28386e-05 8.91609e-05 0)
(-6.95915e-05 5.88038e-05 0)
(-0.000111549 -2.29712e-06 0)
(-0.000221903 -0.000143735 0)
(-0.000385175 -0.000360129 0)
(-0.000562435 -0.000626007 0)
(-0.000694155 -0.000888328 0)
(-0.000742088 -0.00109857 0)
(-0.000707763 -0.0012354 0)
(-0.000611707 -0.00131542 0)
(-0.00047374 -0.00136149 0)
(-0.000316113 -0.00138514 0)
(-0.00014318 -0.0014008 0)
(3.25178e-05 -0.00141693 0)
(0.000214748 -0.0014525 0)
(0.000384334 -0.0015047 0)
(0.000550305 -0.00159063 0)
(0.000684314 -0.00168133 0)
(0.000793262 -0.00177939 0)
(0.000841729 -0.00180963 0)
(0.000813695 -0.00174916 0)
(0.000702507 -0.00150775 0)
(0.000515822 -0.00110323 0)
(0.000306247 -0.000624809 0)
(0.000172639 -0.000247561 0)
(-8.0774e-06 -2.89466e-05 0)
(-6.89906e-05 -0.000128995 0)
(2.24612e-05 -0.000127174 0)
(-4.12352e-05 0.00017376 0)
(-8.60401e-05 0.000142937 0)
(-0.000108463 0.000135158 0)
(-0.000156319 6.55594e-05 0)
(-0.000269935 -6.95326e-05 0)
(-0.000460625 -0.000301279 0)
(-0.00066766 -0.000586814 0)
(-0.000822683 -0.000865214 0)
(-0.000886526 -0.00107096 0)
(-0.000863206 -0.00119427 0)
(-0.000769319 -0.00125005 0)
(-0.000633461 -0.00126041 0)
(-0.00047467 -0.00125 0)
(-0.000311488 -0.00123089 0)
(-0.000143147 -0.00121735 0)
(1.74503e-05 -0.00120981 0)
(0.000179511 -0.00122385 0)
(0.000322362 -0.00125077 0)
(0.000465434 -0.00131295 0)
(0.000582996 -0.00138585 0)
(0.000704035 -0.00149378 0)
(0.000805584 -0.00157499 0)
(0.000893241 -0.00163822 0)
(0.000958989 -0.00156976 0)
(0.000930917 -0.00136798 0)
(0.000787523 -0.0010125 0)
(0.000559144 -0.000510074 0)
(8.78492e-05 -0.000312788 0)
(-0.000110346 -5.08307e-05 0)
(2.98719e-05 -0.000210845 0)
(-5.90077e-05 0.000184447 0)
(-0.000118385 0.000158333 0)
(-0.000177613 0.000129972 0)
(-0.000303209 9.83961e-06 0)
(-0.000501029 -0.000195072 0)
(-0.000745566 -0.000479349 0)
(-0.000936554 -0.000761855 0)
(-0.00102409 -0.000979977 0)
(-0.00100154 -0.00110576 0)
(-0.000904507 -0.00115349 0)
(-0.000763604 -0.00115053 0)
(-0.000607999 -0.00112364 0)
(-0.000445601 -0.00109507 0)
(-0.000288345 -0.001069 0)
(-0.000128568 -0.00105458 0)
(1.9491e-05 -0.00104267 0)
(0.000168791 -0.00104568 0)
(0.000293165 -0.00104831 0)
(0.000417606 -0.00107585 0)
(0.000511289 -0.00110494 0)
(0.000617783 -0.00117477 0)
(0.000716175 -0.00124001 0)
(0.000842069 -0.00134351 0)
(0.000999651 -0.00138482 0)
(0.00110138 -0.00139257 0)
(0.00118813 -0.00122343 0)
(0.000879931 -0.000855188 0)
(0.000433276 -0.000614905 0)
(7.98224e-06 3.31153e-06 0)
(-0.000141259 -0.000358817 0)
(-7.40241e-05 0.000113327 0)
(-0.000161464 9.26332e-05 0)
(-0.000285443 4.04364e-05 0)
(-0.000504658 -0.000115308 0)
(-0.000767881 -0.000352004 0)
(-0.00101619 -0.000626289 0)
(-0.00114326 -0.000851567 0)
(-0.00114155 -0.000987164 0)
(-0.00104341 -0.00103672 0)
(-0.000901153 -0.00103279 0)
(-0.000742397 -0.0010057 0)
(-0.000588546 -0.000976063 0)
(-0.000435236 -0.000958514 0)
(-0.000288738 -0.000948072 0)
(-0.00013536 -0.000949811 0)
(7.81357e-06 -0.000946506 0)
(0.000156446 -0.000950432 0)
(0.000277217 -0.000940184 0)
(0.000398582 -0.000944213 0)
(0.000480786 -0.000936386 0)
(0.000574291 -0.000963171 0)
(0.000650391 -0.000987144 0)
(0.000767506 -0.00107035 0)
(0.000931555 -0.00113717 0)
(0.00111492 -0.00125204 0)
(0.00134916 -0.00122707 0)
(0.00118573 -0.00114832 0)
(0.000942952 -0.000724914 0)
(0.000123893 -0.00038941 0)
(-0.000338841 -0.000310906 0)
(-8.81469e-05 -3.59901e-05 0)
(-0.000213659 -5.21819e-05 0)
(-0.000410225 -0.000122929 0)
(-0.000708694 -0.000283057 0)
(-0.00100611 -0.000502786 0)
(-0.00122146 -0.000718909 0)
(-0.00126897 -0.000863467 0)
(-0.00118999 -0.000923271 0)
(-0.00104139 -0.000922985 0)
(-0.000879811 -0.000895849 0)
(-0.00072255 -0.000868325 0)
(-0.000581194 -0.00085189 0)
(-0.000439427 -0.000854183 0)
(-0.000301535 -0.000862311 0)
(-0.00014921 -0.000879855 0)
(-4.78817e-06 -0.000883624 0)
(0.000149876 -0.000888644 0)
(0.000273616 -0.000868654 0)
(0.000398268 -0.00085645 0)
(0.000475725 -0.000822568 0)
(0.000561118 -0.000817017 0)
(0.000616099 -0.000804494 0)
(0.000709669 -0.000852543 0)
(0.000840925 -0.000903973 0)
(0.00103284 -0.00103877 0)
(0.00131148 -0.00110906 0)
(0.00139875 -0.00117852 0)
(0.00119694 -0.000839656 0)
(0.000415302 -0.000599905 0)
(-8.00046e-05 2.99221e-05 0)
(-9.89173e-05 -0.000216219 0)
(-0.000269215 -0.000225172 0)
(-0.000534751 -0.000297921 0)
(-0.000887207 -0.000434598 0)
(-0.00118676 -0.000606866 0)
(-0.00134774 -0.000749292 0)
(-0.00132292 -0.000820222 0)
(-0.00119194 -0.000825866 0)
(-0.00102214 -0.000798915 0)
(-0.000863289 -0.000766399 0)
(-0.000719933 -0.000749068 0)
(-0.000594859 -0.00074864 0)
(-0.000463204 -0.0007692 0)
(-0.000330303 -0.000791558 0)
(-0.00017432 -0.000820947 0)
(-2.38689e-05 -0.000829232 0)
(0.00014197 -0.000835942 0)
(0.000274402 -0.000810062 0)
(0.000408119 -0.00078889 0)
(0.000487563 -0.0007391 0)
(0.000570036 -0.000712795 0)
(0.000608806 -0.000674184 0)
(0.000678731 -0.000690698 0)
(0.00076909 -0.000714331 0)
(0.000935575 -0.000830358 0)
(0.00122944 -0.000925955 0)
(0.00147115 -0.00104787 0)
(0.0015257 -0.000895126 0)
(0.000991939 -0.000432851 0)
(0.000283575 0.000139215 0)
(-0.000105966 -0.000381519 0)
(-0.000314436 -0.00038146 0)
(-0.000632247 -0.00044324 0)
(-0.00101196 -0.000537644 0)
(-0.00129696 -0.000649279 0)
(-0.00140536 -0.000720429 0)
(-0.00132782 -0.000735093 0)
(-0.00116948 -0.000707005 0)
(-0.000996275 -0.000668839 0)
(-0.000849906 -0.000637753 0)
(-0.00072228 -0.000630662 0)
(-0.000611705 -0.000640597 0)
(-0.000486719 -0.000671961 0)
(-0.000356536 -0.000700305 0)
(-0.000195571 -0.000734987 0)
(-3.93358e-05 -0.000743625 0)
(0.000136782 -0.000751123 0)
(0.000277147 -0.000722463 0)
(0.000419596 -0.000699028 0)
(0.000502967 -0.000644262 0)
(0.000585913 -0.000611295 0)
(0.000615417 -0.00056211 0)
(0.000667834 -0.000561757 0)
(0.000719956 -0.00056557 0)
(0.000850029 -0.000659605 0)
(0.00111833 -0.000759789 0)
(0.00144773 -0.000944123 0)
(0.00181761 -0.000958432 0)
(0.00144405 -0.000699892 0)
(0.000495135 -0.000382895 0)
(-0.000107734 -0.000485517 0)
(-0.000348129 -0.000475825 0)
(-0.000698406 -0.000520402 0)
(-0.00108142 -0.00057254 0)
(-0.00134209 -0.000630663 0)
(-0.00140648 -0.000649181 0)
(-0.00129907 -0.000629114 0)
(-0.00113382 -0.000584245 0)
(-0.000970321 -0.000543513 0)
(-0.000841109 -0.000515256 0)
(-0.000728971 -0.000514733 0)
(-0.000630606 -0.000528003 0)
(-0.000510386 -0.000562692 0)
(-0.000382306 -0.000589685 0)
(-0.000217133 -0.000624199 0)
(-5.67311e-05 -0.00062983 0)
(0.000127324 -0.00063685 0)
(0.000273803 -0.000606766 0)
(0.00042315 -0.000584002 0)
(0.0005101 -0.000529733 0)
(0.000594326 -0.000497716 0)
(0.000618124 -0.000448007 0)
(0.000659207 -0.000444063 0)
(0.000681166 -0.000439009 0)
(0.000770179 -0.000517826 0)
(0.000974032 -0.000612214 0)
(0.00129286 -0.00083224 0)
(0.00178134 -0.000986016 0)
(0.00156111 -0.0010849 0)
(0.000595569 -0.000983631 0)
(-0.000105451 -0.000519975 0)
(-0.000365338 -0.000500558 0)
(-0.000732912 -0.000526786 0)
(-0.00110672 -0.000540942 0)
(-0.00134508 -0.000557671 0)
(-0.00138024 -0.000540364 0)
(-0.00125823 -0.000502139 0)
(-0.00109544 -0.000449895 0)
(-0.000942306 -0.000410038 0)
(-0.000827482 -0.000382379 0)
(-0.000725776 -0.000383406 0)
(-0.000636378 -0.000393352 0)
(-0.000519279 -0.000425156 0)
(-0.000394245 -0.000445676 0)
(-0.000227639 -0.000476621 0)
(-6.69773e-05 -0.000478161 0)
(0.000120198 -0.000485116 0)
(0.000268524 -0.000456381 0)
(0.000420755 -0.000437964 0)
(0.000508704 -0.000389412 0)
(0.000593287 -0.000364242 0)
(0.000612156 -0.00032073 0)
(0.000646086 -0.00032183 0)
(0.000645148 -0.0003162 0)
(0.000702342 -0.000388374 0)
(0.000837054 -0.000469585 0)
(0.00109784 -0.00069049 0)
(0.00157826 -0.000893817 0)
(0.00144377 -0.00117999 0)
(0.000589849 -0.00122216 0)
(-9.80821e-05 -0.000487908 0)
(-0.00037049 -0.000461141 0)
(-0.000740236 -0.000471524 0)
(-0.00109448 -0.000459412 0)
(-0.00131266 -0.000448865 0)
(-0.00132986 -0.000412853 0)
(-0.00120692 -0.000368643 0)
(-0.00105308 -0.000316341 0)
(-0.000912193 -0.000279294 0)
(-0.000809538 -0.000250986 0)
(-0.00071584 -0.000250539 0)
(-0.000633677 -0.000253538 0)
(-0.000520006 -0.000279291 0)
(-0.000399727 -0.00029079 0)
(-0.000235249 -0.000316265 0)
(-7.82861e-05 -0.00031286 0)
(0.000107184 -0.000319285 0)
(0.000253304 -0.000292459 0)
(0.00040481 -0.000279178 0)
(0.000491254 -0.000237704 0)
(0.000575677 -0.000221275 0)
(0.000590344 -0.000185784 0)
(0.000620873 -0.000195458 0)
(0.000603181 -0.000191959 0)
(0.00063636 -0.000262169 0)
(0.000705556 -0.00032799 0)
(0.000895708 -0.00053269 0)
(0.0013067 -0.000732479 0)
(0.00123185 -0.00108733 0)
(0.000549073 -0.00118679 0)
(-8.93424e-05 -0.000409091 0)
(-0.000364701 -0.000374454 0)
(-0.000731486 -0.000371113 0)
(-0.00106559 -0.000339016 0)
(-0.00127019 -0.00031219 0)
(-0.00128072 -0.000266122 0)
(-0.00116083 -0.00022336 0)
(-0.0010149 -0.00017331 0)
(-0.000879324 -0.000140159 0)
(-0.000782778 -0.000110199 0)
(-0.000691232 -0.000107158 0)
(-0.000613747 -0.000102095 0)
(-0.00050293 -0.000120879 0)
(-0.000388932 -0.00012321 0)
(-0.000229833 -0.000143006 0)
(-8.03992e-05 -0.000135413 0)
(9.86888e-05 -0.000141868 0)
(0.000238278 -0.000118117 0)
(0.000385252 -0.000110913 0)
(0.000466838 -7.74144e-05 0)
(0.000549696 -7.07741e-05 0)
(0.000559357 -4.35976e-05 0)
(0.000589372 -6.31856e-05 0)
(0.00056007 -6.24786e-05 0)
(0.000580781 -0.000134266 0)
(0.000599603 -0.000182595 0)
(0.000723109 -0.000362716 0)
(0.00104004 -0.000523951 0)
(0.000988556 -0.000871625 0)
(0.000486943 -0.000985358 0)
(-7.54055e-05 -0.000309773 0)
(-0.000349419 -0.000268649 0)
(-0.000704834 -0.000250922 0)
(-0.001017 -0.00020555 0)
(-0.00121157 -0.000166683 0)
(-0.00122155 -0.000117685 0)
(-0.00111154 -7.9536e-05 0)
(-0.000974507 -3.55103e-05 0)
(-0.000844604 -8.15195e-06 0)
(-0.000751716 2.18356e-05 0)
(-0.000661143 2.6154e-05 0)
(-0.000587188 3.7949e-05 0)
(-0.000480036 2.45486e-05 0)
(-0.00037362 2.97433e-05 0)
(-0.000222702 1.41341e-05 0)
(-8.36366e-05 2.48208e-05 0)
(8.56594e-05 1.77962e-05 0)
(0.000215535 3.87809e-05 0)
(0.000355689 4.04664e-05 0)
(0.000430584 6.78207e-05 0)
(0.000511954 6.61208e-05 0)
(0.000516871 8.80483e-05 0)
(0.000549042 6.1041e-05 0)
(0.000511007 6.25681e-05 0)
(0.000527306 -9.73136e-06 0)
(0.000508594 -3.95797e-05 0)
(0.000585586 -0.000196299 0)
(0.00081582 -0.00030597 0)
(0.00077025 -0.000616176 0)
(0.000433236 -0.000708752 0)
(-6.1895e-05 -0.000205652 0)
(-0.000324619 -0.000154945 0)
(-0.000669428 -0.000121874 0)
(-0.000964164 -6.17235e-05 0)
(-0.00115482 -1.45249e-05 0)
(-0.00117336 3.87223e-05 0)
(-0.0010733 7.04089e-05 0)
(-0.000943671 0.000108974 0)
(-0.000811942 0.000128388 0)
(-0.000717484 0.000156213 0)
(-0.00062227 0.000158539 0)
(-0.000549165 0.000173342 0)
(-0.000444462 0.000162048 0)
(-0.00034595 0.000171394 0)
(-0.000204703 0.000157913 0)
(-7.77826e-05 0.000170001 0)
(7.9729e-05 0.000161938 0)
(0.000197893 0.000180392 0)
(0.000329932 0.000177167 0)
(0.000396898 0.000200169 0)
(0.000477121 0.00019166 0)
(0.000477608 0.000211044 0)
(0.000514628 0.000178964 0)
(0.000470662 0.000184672 0)
(0.000489515 0.000113589 0)
(0.000443228 0.000103928 0)
(0.00048739 -3.23687e-05 0)
(0.000637657 -8.911e-05 0)
(0.000585158 -0.000358467 0)
(0.000392945 -0.000416238 0)
(-4.06627e-05 -0.000122238 0)
(-0.000287539 -6.25313e-05 0)
(-0.000614694 -8.92776e-06 0)
(-0.000894438 6.54102e-05 0)
(-0.0010843 0.00012745 0)
(-0.00111448 0.000185096 0)
(-0.00103182 0.000213857 0)
(-0.000911824 0.000244813 0)
(-0.000782937 0.000253857 0)
(-0.000686978 0.000275625 0)
(-0.000588133 0.000271633 0)
(-0.000514518 0.000285492 0)
(-0.000411838 0.00027194 0)
(-0.00032021 0.000282055 0)
(-0.000188484 0.000267174 0)
(-7.37113e-05 0.000278847 0)
(7.19428e-05 0.000267832 0)
(0.000178071 0.000284277 0)
(0.000302299 0.000276226 0)
(0.000361448 0.000297497 0)
(0.00044187 0.000284341 0)
(0.000438838 0.000305283 0)
(0.000482858 0.00027218 0)
(0.000433825 0.000287006 0)
(0.000459868 0.000221066 0)
(0.000391937 0.000234004 0)
(0.000421356 0.00011471 0)
(0.000505481 0.000111099 0)
(0.000441886 -0.000122393 0)
(0.00037456 -0.000134046 0)
(-2.10616e-05 -4.91221e-05 0)
(-0.000237169 2.23895e-05 0)
(-0.000548087 9.36182e-05 0)
(-0.000816295 0.000189388 0)
(-0.00101024 0.000264231 0)
(-0.00106352 0.000334861 0)
(-0.00100001 0.000361337 0)
(-0.000894446 0.000388257 0)
(-0.000763764 0.000384687 0)
(-0.000664134 0.00039722 0)
(-0.000556628 0.000381857 0)
(-0.000479412 0.000389091 0)
(-0.000375753 0.000368385 0)
(-0.000289058 0.00037448 0)
(-0.000165344 0.000355186 0)
(-6.15627e-05 0.000364203 0)
(7.33536e-05 0.000349548 0)
(0.000168714 0.00036448 0)
(0.000286772 0.000352981 0)
(0.000339849 0.000374722 0)
(0.000422605 0.000359917 0)
(0.000418041 0.000385741 0)
(0.000471373 0.000355994 0)
(0.000418491 0.000383767 0)
(0.000454689 0.000327284 0)
(0.000365919 0.000364484 0)
(0.000389957 0.000259507 0)
(0.000412041 0.000303869 0)
(0.000336949 9.13659e-05 0)
(0.000380597 0.000129936 0)
(8.48467e-06 -3.21357e-06 0)
(-0.000175867 7.22366e-05 0)
(-0.000459132 0.000161403 0)
(-0.000717067 0.00027589 0)
(-0.000916973 0.000377932 0)
(-0.000993001 0.000465025 0)
(-0.000960803 0.000500824 0)
(-0.000874773 0.000525597 0)
(-0.000754176 0.000509774 0)
(-0.000654582 0.000510077 0)
(-0.00054262 0.000478219 0)
(-0.00046057 0.000474733 0)
(-0.000354081 0.000441225 0)
(-0.000268282 0.00044021 0)
(-0.000148644 0.00041166 0)
(-5.16485e-05 0.000416614 0)
(7.62772e-05 0.000394718 0)
(0.000164075 0.000408348 0)
(0.000278985 0.000391668 0)
(0.000328345 0.000415484 0)
(0.000415512 0.000399576 0)
(0.000410701 0.000433023 0)
(0.000474434 0.000409238 0)
(0.000416964 0.000453078 0)
(0.000464826 0.000409104 0)
(0.000353299 0.00047264 0)
(0.000382519 0.00038017 0)
(0.000343584 0.000473368 0)
(0.000262851 0.000273596 0)
(0.000412721 0.000373971 0)
(2.9016e-05 5.50956e-05 0)
(-0.000108715 0.000128472 0)
(-0.000362293 0.000219636 0)
(-0.000599874 0.000360923 0)
(-0.000804366 0.000481644 0)
(-0.000917432 0.000598794 0)
(-0.000919126 0.000643557 0)
(-0.000867985 0.000674099 0)
(-0.000757611 0.000645791 0)
(-0.00066177 0.000633337 0)
(-0.000542154 0.000581514 0)
(-0.000453048 0.000562909 0)
(-0.000339474 0.00051287 0)
(-0.000250593 0.000500577 0)
(-0.000130847 0.000460734 0)
(-3.64138e-05 0.000459143 0)
(8.84891e-05 0.000430337 0)
(0.000172787 0.000441729 0)
(0.000287917 0.000422463 0)
(0.000337275 0.000448794 0)
(0.000431324 0.000436209 0)
(0.000429195 0.000478977 0)
(0.000504947 0.000466953 0)
(0.000443635 0.000529321 0)
(0.000505044 0.000503393 0)
(0.00036662 0.000594072 0)
(0.000408592 0.000514091 0)
(0.000304891 0.000651584 0)
(0.00022959 0.000448828 0)
(0.000480969 0.000620518 0)
(5.65976e-05 8.76016e-05 0)
(-5.12586e-05 0.000128504 0)
(-0.000251827 0.000230994 0)
(-0.000463271 0.000382945 0)
(-0.000669649 0.000549753 0)
(-0.00081101 0.000697915 0)
(-0.000864294 0.000773676 0)
(-0.00085245 0.000817338 0)
(-0.000771799 0.000784046 0)
(-0.000686303 0.000761071 0)
(-0.000567224 0.000686415 0)
(-0.000470806 0.000650735 0)
(-0.00034889 0.000578169 0)
(-0.000250904 0.000552824 0)
(-0.000125377 0.000495505 0)
(-2.60331e-05 0.000487013 0)
(0.000101992 0.000445624 0)
(0.000188989 0.00045558 0)
(0.000308999 0.000428448 0)
(0.000362315 0.000458654 0)
(0.000465961 0.000444591 0)
(0.000468072 0.000497816 0)
(0.000556982 0.000493203 0)
(0.000490473 0.000573756 0)
(0.000566118 0.000562065 0)
(0.000394202 0.000678581 0)
(0.000455143 0.00060932 0)
(0.000271523 0.000793785 0)
(0.000221855 0.000592724 0)
(0.000585831 0.000872543 0)
(5.04878e-05 0.000130124 0)
(-4.73421e-06 0.000144205 0)
(-0.000140556 0.000241659 0)
(-0.000299032 0.000419899 0)
(-0.000489474 0.000609484 0)
(-0.000679642 0.000805111 0)
(-0.000780171 0.000901886 0)
(-0.000836583 0.000967623 0)
(-0.000790207 0.000929482 0)
(-0.000728429 0.000899504 0)
(-0.000611005 0.000803417 0)
(-0.000508524 0.000750054 0)
(-0.000375225 0.000655629 0)
(-0.000264765 0.000614814 0)
(-0.000128259 0.00054187 0)
(-1.95797e-05 0.000523061 0)
(0.000116824 0.000473082 0)
(0.000210595 0.00047754 0)
(0.000339304 0.000448823 0)
(0.000399913 0.000478626 0)
(0.000515086 0.000471217 0)
(0.000524255 0.000531341 0)
(0.000627272 0.000543148 0)
(0.000557866 0.000640663 0)
(0.000650485 0.000652977 0)
(0.000444643 0.000797266 0)
(0.000537008 0.000748836 0)
(0.000274726 0.000980897 0)
(0.00029521 0.00078171 0)
(0.000763742 0.00120989 0)
(6.12408e-05 0.000138435 0)
(2.69173e-05 8.22878e-05 0)
(-1.47267e-05 0.000202911 0)
(-0.000123229 0.000366303 0)
(-0.000296461 0.000624856 0)
(-0.000514368 0.000851125 0)
(-0.000687623 0.000998984 0)
(-0.000805958 0.00109101 0)
(-0.000817668 0.0010628 0)
(-0.000784109 0.00103322 0)
(-0.00067997 0.000919395 0)
(-0.000571862 0.000851049 0)
(-0.000429076 0.000731407 0)
(-0.000300943 0.000675604 0)
(-0.000150368 0.000580361 0)
(-2.46148e-05 0.000553109 0)
(0.000124608 0.000485255 0)
(0.000232596 0.000488676 0)
(0.000374127 0.000445258 0)
(0.000447656 0.0004809 0)
(0.000578428 0.000461417 0)
(0.000598173 0.000533954 0)
(0.00072062 0.000537566 0)
(0.000649626 0.000653292 0)
(0.000765002 0.000665293 0)
(0.000520729 0.00083363 0)
(0.000651627 0.000803303 0)
(0.000285604 0.00108262 0)
(0.000436247 0.000951238 0)
(0.00102078 0.0016631 0)
(-5.36105e-06 0.000119669 0)
(3.71708e-05 0.000105825 0)
(0.000102269 0.000187962 0)
(8.68734e-05 0.00040732 0)
(-2.8196e-05 0.000658499 0)
(-0.000313691 0.000926822 0)
(-0.000535491 0.0010815 0)
(-0.000759191 0.00119605 0)
(-0.00082965 0.00116944 0)
(-0.000847614 0.00114253 0)
(-0.000762784 0.00101872 0)
(-0.000657004 0.000939863 0)
(-0.000504734 0.00080494 0)
(-0.000360762 0.000734783 0)
(-0.000191467 0.000626433 0)
(-4.94121e-05 0.00058612 0)
(0.000118668 0.000510589 0)
(0.00023907 0.000502808 0)
(0.00039838 0.000458325 0)
(0.000481939 0.000483978 0)
(0.000630668 0.000471373 0)
(0.000659258 0.000536448 0)
(0.000800494 0.000557667 0)
(0.00073276 0.000674876 0)
(0.000870864 0.000721141 0)
(0.00061126 0.00091568 0)
(0.000797838 0.000959558 0)
(0.000395673 0.00131681 0)
(0.000856524 0.00136149 0)
(0.00148661 0.00247599 0)
(5.30837e-05 0.000213076 0)
(8.63051e-05 2.80305e-05 0)
(0.000247642 0.00016973 0)
(0.000304065 0.000320633 0)
(0.000188719 0.000643104 0)
(-0.000112992 0.000897755 0)
(-0.000427672 0.00109084 0)
(-0.000715776 0.00121034 0)
(-0.000861606 0.00119985 0)
(-0.000918207 0.0011783 0)
(-0.000860931 0.0010551 0)
(-0.000755764 0.000972713 0)
(-0.0005993 0.000828387 0)
(-0.000436842 0.00075031 0)
(-0.000252397 0.000627423 0)
(-8.81918e-05 0.00058206 0)
(9.56486e-05 0.000488056 0)
(0.00023725 0.000482255 0)
(0.000411909 0.000412295 0)
(0.000516652 0.000448743 0)
(0.000684435 0.000397972 0)
(0.000734753 0.000483333 0)
(0.000905302 0.000450317 0)
(0.000853558 0.000598658 0)
(0.00104 0.000593611 0)
(0.000783589 0.000840083 0)
(0.00106361 0.00092646 0)
(0.000657955 0.00138899 0)
(0.00159044 0.00183822 0)
(0.00216605 0.00399407 0)
(-0.000186557 -2.90776e-05 0)
(-8.35811e-06 9.90426e-05 0)
(0.000364067 0.000158096 0)
(0.000516518 0.000496587 0)
(0.000508331 0.000721523 0)
(0.000103555 0.000949712 0)
(-0.000244459 0.00106973 0)
(-0.000661095 0.00116073 0)
(-0.000865313 0.00113927 0)
(-0.000987465 0.0011159 0)
(-0.000959249 0.00100554 0)
(-0.000867242 0.000927756 0)
(-0.000706996 0.000793826 0)
(-0.000535303 0.00071584 0)
(-0.000330358 0.00059559 0)
(-0.000154813 0.000544412 0)
(5.44462e-05 0.000448203 0)
(0.000201147 0.000429979 0)
(0.00040262 0.00035745 0)
(0.000505118 0.000371348 0)
(0.00070139 0.000324332 0)
(0.000745593 0.000373685 0)
(0.000947581 0.000366948 0)
(0.000903224 0.000475317 0)
(0.00113552 0.000562655 0)
(0.00095995 0.000824064 0)
(0.00135556 0.00120341 0)
(0.00126146 0.00196891 0)
(0.00344224 0.00377652 0)
(0.00368472 0.0074116 0)
(0.000176541 0.000634332 0)
(0.00026357 -2.33102e-05 0)
(0.000615102 0.000112628 0)
(0.000820378 0.000248652 0)
(0.000593745 0.000577115 0)
(0.000195535 0.000758857 0)
(-0.000248822 0.000887773 0)
(-0.000669357 0.000936743 0)
(-0.00092362 0.000921476 0)
(-0.0010608 0.000892095 0)
(-0.00105354 0.000801205 0)
(-0.000965566 0.000734117 0)
(-0.000806077 0.00062118 0)
(-0.00062537 0.000554135 0)
(-0.000411985 0.000447507 0)
(-0.00022107 0.000403947 0)
(-3.30964e-06 0.000309993 0)
(0.000162624 0.000299246 0)
(0.000369372 0.000212868 0)
(0.00049879 0.000240687 0)
(0.000701943 0.00015404 0)
(0.000791013 0.00023398 0)
(0.00102061 0.00014696 0)
(0.00105979 0.000319242 0)
(0.00139847 0.000286821 0)
(0.00143111 0.000708033 0)
(0.00221311 0.00112194 0)
(0.00318147 0.00270774 0)
(0.00711785 0.00590965 0)
(0.0059313 0.012485 0)
(-0.000866356 -0.00218056 0)
(-0.000550955 0.000244944 0)
(0.000611734 0.000614589 0)
(0.000951066 0.000589097 0)
(0.000978518 0.000681873 0)
(0.000373763 0.000679694 0)
(-0.00010406 0.00063781 0)
(-0.000659881 0.00060656 0)
(-0.000939766 0.000570487 0)
(-0.00113318 0.000538322 0)
(-0.00114074 0.000488993 0)
(-0.0010681 0.000448092 0)
(-0.000906639 0.000386811 0)
(-0.000727662 0.000347112 0)
(-0.000498547 0.00028199 0)
(-0.00031077 0.000256477 0)
(-6.82688e-05 0.000191558 0)
(8.45506e-05 0.000186233 0)
(0.000325182 0.000121809 0)
(0.000425982 0.000138132 0)
(0.000676131 7.87417e-05 0)
(0.000719902 0.00012021 0)
(0.00101688 0.00010348 0)
(0.00102764 0.00021438 0)
(0.00151022 0.000474041 0)
(0.00177984 0.00104165 0)
(0.00331387 0.00287513 0)
(0.00578895 0.00646893 0)
(0.0129085 0.0150038 0)
(0.0101474 0.0266118 0)
(0.00260784 -0.0030159 0)
(0.00309997 0.000487451 0)
(0.000979507 0.000634854 0)
(0.000884984 0.000825672 0)
(0.000675413 0.000560207 0)
(0.000131357 0.000510757 0)
(-0.000353089 0.00031502 0)
(-0.000775012 0.000271598 0)
(-0.00103482 0.000220035 0)
(-0.00119122 0.000202419 0)
(-0.00119393 0.00019486 0)
(-0.00112317 0.000183004 0)
(-0.000961466 0.000178704 0)
(-0.000789484 0.000165273 0)
(-0.000559466 0.000158084 0)
(-0.000372922 0.00014232 0)
(-0.000131718 0.000137285 0)
(3.05187e-05 0.000116506 0)
(0.000263703 0.000123789 0)
(0.000396007 9.10303e-05 0)
(0.000632069 0.000131121 0)
(0.000763573 7.74528e-05 0)
(0.00107028 0.000204944 0)
(0.00138455 0.000152419 0)
(0.00219463 0.000582373 0)
(0.00382775 0.000836352 0)
(0.00762437 0.00260039 0)
(0.0148954 0.00509525 0)
(0.0270014 0.0117896 0)
(0.0179092 0.0188508 0)
)
;

boundaryField
{
    movingWall
    {
        type            fixedValue;
        value           uniform (1 0 0);
    }
    fixedWalls
    {
        type            noSlip;
    }
    frontAndBack
    {
        type            empty;
    }
}


// ************************************************************************* //
