/*--------------------------------*- C++ -*----------------------------------*\
| =========                 |                                                 |
| \\      /  F ield         | OpenFOAM: The Open Source CFD Toolbox           |
|  \\    /   O peration     | Version:  2406                                  |
|   \\  /    A nd           | Website:  www.openfoam.com                      |
|    \\/     M anipulation  |                                                 |
\*---------------------------------------------------------------------------*/
FoamFile
{
    version     2.0;
    format      ascii;
    arch        "LSB;label=32;scalar=64";
    class       volVectorField;
    location    "32.25";
    object      U_0;
}
// * * * * * * * * * * * * * * * * * * * * * * * * * * * * * * * * * * * * * //

dimensions      [0 1 -1 0 0 0 0];

internalField   nonuniform List<vector> 
14400
(
(-5.39729e-06 5.30403e-06 0)
(2.10895e-05 -1.22619e-05 0)
(0.000129033 -3.43385e-05 0)
(0.000311462 -5.15467e-05 0)
(0.000548537 -6.30178e-05 0)
(0.000819237 -6.88992e-05 0)
(0.00110341 -6.99441e-05 0)
(0.00138384 -6.70675e-05 0)
(0.00164689 -6.12813e-05 0)
(0.00188281 -5.35988e-05 0)
(0.00208565 -4.49726e-05 0)
(0.00225297 -3.62348e-05 0)
(0.00238529 -2.80534e-05 0)
(0.00248546 -2.09056e-05 0)
(0.00255785 -1.50691e-05 0)
(0.00260761 -1.06211e-05 0)
(0.00264007 -7.49804e-06 0)
(0.00265994 -5.62421e-06 0)
(0.0026708 -4.73359e-06 0)
(0.00267473 -4.37586e-06 0)
(0.00267267 -3.81208e-06 0)
(0.00266414 -2.83751e-06 0)
(0.00264689 -1.23616e-06 0)
(0.00261756 1.24672e-06 0)
(0.0025719 4.79586e-06 0)
(0.00250502 9.52776e-06 0)
(0.00241161 1.55118e-05 0)
(0.00228607 2.27892e-05 0)
(0.00212267 3.13909e-05 0)
(0.00191553 4.13495e-05 0)
(0.00165864 5.27045e-05 0)
(0.00134586 6.54994e-05 0)
(0.000970939 7.97747e-05 0)
(0.000527568 9.55574e-05 0)
(9.47458e-06 0.000112851 0)
(-0.000589437 0.000131626 0)
(-0.00127492 0.000151813 0)
(-0.00205217 0.000173298 0)
(-0.00292564 0.000195917 0)
(-0.00389881 0.000219457 0)
(-0.00497392 0.000243653 0)
(-0.00615182 0.000268193 0)
(-0.00743169 0.000292716 0)
(-0.00881093 0.000316819 0)
(-0.0102849 0.000340062 0)
(-0.011847 0.000361976 0)
(-0.0134884 0.000382068 0)
(-0.015198 0.000399832 0)
(-0.0169626 0.000414754 0)
(-0.018767 0.00042632 0)
(-0.0205939 0.000434027 0)
(-0.022424 0.000437385 0)
(-0.0242367 0.000435927 0)
(-0.0260096 0.000429216 0)
(-0.0277194 0.000416848 0)
(-0.0293416 0.000398468 0)
(-0.0308513 0.00037377 0)
(-0.0322231 0.00034251 0)
(-0.0334319 0.000304533 0)
(-0.0344528 0.000259716 0)
(-0.0352624 0.000208055 0)
(-0.0358388 0.000150631 0)
(-0.0361605 8.91383e-05 0)
(-0.0362066 2.1842e-05 0)
(-0.0359632 -5.27405e-05 0)
(-0.0354208 -0.000131362 0)
(-0.0345699 -0.000212357 0)
(-0.0334073 -0.00029463 0)
(-0.0319351 -0.000376666 0)
(-0.0301614 -0.000456768 0)
(-0.0280999 -0.000533081 0)
(-0.0257711 -0.000603656 0)
(-0.0232017 -0.000666516 0)
(-0.0204246 -0.000719741 0)
(-0.0174787 -0.000761564 0)
(-0.014408 -0.000790463 0)
(-0.0112608 -0.000805258 0)
(-0.00808852 -0.000805194 0)
(-0.00494415 -0.000790015 0)
(-0.00188079 -0.000760006 0)
(0.00105007 -0.000716012 0)
(0.00380032 -0.000659412 0)
(0.00632684 -0.000592073 0)
(0.00859298 -0.000516252 0)
(0.0105698 -0.000434484 0)
(0.012237 -0.000349437 0)
(0.0135831 -0.000263766 0)
(0.0146062 -0.000179979 0)
(0.0153126 -0.00010026 0)
(0.0157167 -2.58078e-05 0)
(0.0158442 4.12062e-05 0)
(0.0157169 9.46465e-05 0)
(0.0153645 0.00013987 0)
(0.0148261 0.000178263 0)
(0.014136 0.000207666 0)
(0.013328 0.000228226 0)
(0.0124352 0.000240851 0)
(0.0114885 0.000246491 0)
(0.0105152 0.000246172 0)
(0.00953909 0.000240958 0)
(0.00857998 0.000231885 0)
(0.00765366 0.000219924 0)
(0.00677213 0.000205961 0)
(0.00594389 0.000190775 0)
(0.00517426 0.000175031 0)
(0.00446588 0.000159288 0)
(0.00381908 0.000143995 0)
(0.00323234 0.000129505 0)
(0.00270273 0.00011607 0)
(0.00222633 0.000103838 0)
(0.00179872 9.28321e-05 0)
(0.00141562 8.29165e-05 0)
(0.00107354 7.37606e-05 0)
(0.000770659 6.48045e-05 0)
(0.000507655 5.52488e-05 0)
(0.000288427 4.41412e-05 0)
(0.00012023 3.06176e-05 0)
(1.22672e-05 1.44127e-05 0)
(-3.00335e-05 -2.57018e-06 0)
(-1.2648e-05 -1.26711e-05 0)
(1.13084e-05 -2.0372e-05 0)
(0.000155744 -0.000159338 0)
(0.000470336 -0.000320885 0)
(0.00094487 -0.000451466 0)
(0.00153415 -0.000540585 0)
(0.00219576 -0.000587554 0)
(0.00288625 -0.000596396 0)
(0.003567 -0.000573444 0)
(0.00420647 -0.000526168 0)
(0.00478119 -0.000462336 0)
(0.00527589 -0.000389415 0)
(0.00568301 -0.000314051 0)
(0.00600169 -0.000241681 0)
(0.00623633 -0.000176287 0)
(0.00639499 -0.000120292 0)
(0.00648761 -7.45959e-05 0)
(0.00652442 -3.87354e-05 0)
(0.00651459 -1.12169e-05 0)
(0.00646497 1.03918e-05 0)
(0.00637937 2.91964e-05 0)
(0.00625788 4.86677e-05 0)
(0.00609682 7.17982e-05 0)
(0.00588932 0.000101273 0)
(0.00562554 0.000139325 0)
(0.00529326 0.000187627 0)
(0.00487854 0.000247331 0)
(0.0043663 0.000319165 0)
(0.00374077 0.000403572 0)
(0.00298576 0.000500834 0)
(0.00208492 0.000611159 0)
(0.00102184 0.000734712 0)
(-0.000219684 0.00087159 0)
(-0.00165553 0.00102176 0)
(-0.00330084 0.00118498 0)
(-0.00516967 0.00136072 0)
(-0.00727448 0.00154805 0)
(-0.00962554 0.00174567 0)
(-0.0122304 0.00195176 0)
(-0.0150933 0.00216407 0)
(-0.0182144 0.00237986 0)
(-0.0215896 0.00259592 0)
(-0.0252099 0.00280866 0)
(-0.029061 0.00301413 0)
(-0.0331233 0.00320808 0)
(-0.0373718 0.0033861 0)
(-0.041776 0.0035437 0)
(-0.0463005 0.00367638 0)
(-0.0509051 0.00377979 0)
(-0.0555456 0.0038498 0)
(-0.0601741 0.00388257 0)
(-0.0647402 0.00387468 0)
(-0.0691912 0.00382318 0)
(-0.0734734 0.00372562 0)
(-0.0775325 0.00358012 0)
(-0.0813147 0.00338541 0)
(-0.0847673 0.00314086 0)
(-0.0878393 0.00284647 0)
(-0.0904823 0.00250295 0)
(-0.0926511 0.00211173 0)
(-0.0943044 0.00167499 0)
(-0.0954047 0.00119561 0)
(-0.0959195 0.000678077 0)
(-0.0958242 0.000129117 0)
(-0.0950991 -0.000447557 0)
(-0.0937265 -0.00104784 0)
(-0.0917019 -0.00166234 0)
(-0.089027 -0.00228237 0)
(-0.0857118 -0.00289838 0)
(-0.0817748 -0.00350012 0)
(-0.0772437 -0.00407672 0)
(-0.0721556 -0.00461685 0)
(-0.0665573 -0.00510904 0)
(-0.0605047 -0.00554196 0)
(-0.054063 -0.00590483 0)
(-0.0473057 -0.0061878 0)
(-0.0403138 -0.00638242 0)
(-0.0331746 -0.00648207 0)
(-0.0259805 -0.00648238 0)
(-0.0188265 -0.00638154 0)
(-0.0118088 -0.00618064 0)
(-0.00502212 -0.00588373 0)
(0.00144232 -0.00549788 0)
(0.00749963 -0.005033 0)
(0.0130734 -0.00450154 0)
(0.0180978 -0.00391803 0)
(0.0225198 -0.00329849 0)
(0.0263003 -0.00265975 0)
(0.0294155 -0.00201876 0)
(0.0318574 -0.0013918 0)
(0.0336336 -0.000793824 0)
(0.0347644 -0.000238236 0)
(0.0352854 0.000260073 0)
(0.03525 0.000700165 0)
(0.0347135 0.00107648 0)
(0.0337385 0.00138416 0)
(0.0323954 0.0016234 0)
(0.0307557 0.00179703 0)
(0.0288895 0.00190969 0)
(0.0268641 0.00196751 0)
(0.0247415 0.00197764 0)
(0.0225773 0.00194775 0)
(0.0204191 0.00188561 0)
(0.0183068 0.00179878 0)
(0.0162719 0.00169428 0)
(0.0143379 0.00157844 0)
(0.0125211 0.00145679 0)
(0.0108314 0.001334 0)
(0.00927281 0.00121385 0)
(0.0078449 0.00109919 0)
(0.00654381 0.000991891 0)
(0.00536352 0.00089263 0)
(0.00429739 0.000800732 0)
(0.00333981 0.000713925 0)
(0.00248805 0.000628215 0)
(0.00174394 0.000538014 0)
(0.0011151 0.000436944 0)
(0.000614746 0.000319788 0)
(0.000257756 0.000186767 0)
(5.66119e-05 5.13452e-05 0)
(-1.50649e-06 -2.90733e-05 0)
(3.20061e-05 -0.000123552 0)
(0.000309567 -0.000470647 0)
(0.000810372 -0.000824038 0)
(0.00151934 -0.00110894 0)
(0.00237054 -0.00130427 0)
(0.00331061 -0.00140687 0)
(0.004283 -0.00142381 0)
(0.00523659 -0.00136794 0)
(0.00612884 -0.0012552 0)
(0.0069273 -0.00110261 0)
(0.00760998 -0.000926805 0)
(0.00816486 -0.000742764 0)
(0.0085886 -0.00056287 0)
(0.00888479 -0.000396303 0)
(0.0090618 -0.00024875 0)
(0.00913056 -0.000122425 0)
(0.00910232 -1.63264e-05 0)
(0.00898677 7.32792e-05 0)
(0.00879048 0.000152075 0)
(0.00851565 0.000227115 0)
(0.00815942 0.000305838 0)
(0.00771378 0.00039569 0)
(0.00716601 0.000503306 0)
(0.00649923 0.000634136 0)
(0.00569319 0.00079232 0)
(0.00472524 0.000980742 0)
(0.00357113 0.00120123 0)
(0.00220572 0.00145482 0)
(0.000603576 0.00174202 0)
(-0.00126053 0.00206294 0)
(-0.00341118 0.00241733 0)
(-0.00587177 0.00280455 0)
(-0.00866389 0.00322336 0)
(-0.0118066 0.00367174 0)
(-0.0153156 0.00414673 0)
(-0.0192023 0.00464429 0)
(-0.0234728 0.00515918 0)
(-0.028127 0.00568496 0)
(-0.033158 0.006214 0)
(-0.038551 0.00673762 0)
(-0.0442833 0.0072462 0)
(-0.0503237 0.00772943 0)
(-0.056633 0.00817653 0)
(-0.063164 0.00857657 0)
(-0.0698622 0.00891877 0)
(-0.0766672 0.00919279 0)
(-0.083513 0.00938904 0)
(-0.0903303 0.00949895 0)
(-0.097047 0.00951514 0)
(-0.10359 0.00943162 0)
(-0.109887 0.0092439 0)
(-0.115866 0.00894898 0)
(-0.121458 0.00854544 0)
(-0.1266 0.00803331 0)
(-0.131229 0.00741409 0)
(-0.13529 0.00669063 0)
(-0.138733 0.0058671 0)
(-0.141513 0.00494886 0)
(-0.14359 0.00394249 0)
(-0.144933 0.00285583 0)
(-0.145514 0.0016979 0)
(-0.145311 0.000478222 0)
(-0.144311 -0.000792725 0)
(-0.142512 -0.00209964 0)
(-0.139908 -0.00342945 0)
(-0.136508 -0.00476791 0)
(-0.132325 -0.0060987 0)
(-0.127382 -0.00740402 0)
(-0.121708 -0.00866514 0)
(-0.115341 -0.00986246 0)
(-0.108327 -0.0109759 0)
(-0.100722 -0.0119852 0)
(-0.0925889 -0.0128704 0)
(-0.0839998 -0.0136126 0)
(-0.0750347 -0.0141944 0)
(-0.065781 -0.0146006 0)
(-0.0563328 -0.014819 0)
(-0.0467897 -0.0148409 0)
(-0.0372551 -0.0146622 0)
(-0.0278349 -0.0142833 0)
(-0.0186353 -0.0137097 0)
(-0.00976085 -0.0129522 0)
(-0.00131179 -0.0120268 0)
(0.0066178 -0.0109542 0)
(0.0139426 -0.00975948 0)
(0.020588 -0.00847093 0)
(0.0264921 -0.00711946 0)
(0.0316077 -0.00573728 0)
(0.035903 -0.00435684 0)
(0.0393626 -0.00300965 0)
(0.0419876 -0.00172486 0)
(0.0437991 -0.000526042 0)
(0.0448333 0.000565208 0)
(0.0451353 0.00152852 0)
(0.0447686 0.00235404 0)
(0.0438078 0.00303617 0)
(0.042334 0.00357399 0)
(0.0404328 0.00397157 0)
(0.0381917 0.00423731 0)
(0.0356967 0.00438304 0)
(0.0330295 0.0044231 0)
(0.0302651 0.00437339 0)
(0.02747 0.00425046 0)
(0.0247008 0.00407064 0)
(0.0220041 0.00384945 0)
(0.019416 0.00360106 0)
(0.0169627 0.00333795 0)
(0.0146615 0.00307062 0)
(0.012522 0.00280743 0)
(0.0105475 0.00255421 0)
(0.00873687 0.00231397 0)
(0.00708672 0.00208646 0)
(0.00559358 0.00186776 0)
(0.00425631 0.00165018 0)
(0.00307828 0.00142281 0)
(0.00206879 0.0011734 0)
(0.00124291 0.000892281 0)
(0.000615898 0.000580068 0)
(0.000211775 0.000260075 0)
(1.82854e-05 2.10678e-05 0)
(4.79678e-05 -0.000296939 0)
(0.000435099 -0.000937083 0)
(0.0010899 -0.00153196 0)
(0.00198577 -0.00200268 0)
(0.00303474 -0.00232172 0)
(0.00417421 -0.0024848 0)
(0.0053385 -0.00250297 0)
(0.00646858 -0.00239684 0)
(0.00751516 -0.00219247 0)
(0.0084403 -0.00191804 0)
(0.00921766 -0.00160127 0)
(0.00983196 -0.00126725 0)
(0.0102775 -0.000936776 0)
(0.0105562 -0.000625317 0)
(0.010675 -0.000342442 0)
(0.0106436 -9.18145e-05 0)
(0.0104714 0.000128391 0)
(0.010166 0.000324713 0)
(0.00973055 0.000507218 0)
(0.00916325 0.000688219 0)
(0.00845599 0.000880977 0)
(0.00759455 0.00109847 0)
(0.00655901 0.00135235 0)
(0.00532459 0.00165219 0)
(0.00386271 0.0020053 0)
(0.00214219 0.00241666 0)
(0.000130319 0.0028893 0)
(-0.00220607 0.00342466 0)
(-0.0048997 0.00402292 0)
(-0.00798195 0.00468322 0)
(-0.0114819 0.00540365 0)
(-0.0154254 0.00618105 0)
(-0.0198338 0.00701076 0)
(-0.0247226 0.00788632 0)
(-0.0301006 0.00879919 0)
(-0.035968 0.00973862 0)
(-0.0423157 0.0106916 0)
(-0.0491243 0.0116431 0)
(-0.0563633 0.0125762 0)
(-0.0639915 0.0134725 0)
(-0.0719564 0.0143126 0)
(-0.0801958 0.0150769 0)
(-0.0886386 0.015746 0)
(-0.0972067 0.0163013 0)
(-0.105816 0.016726 0)
(-0.114381 0.017005 0)
(-0.122813 0.0171261 0)
(-0.131025 0.0170794 0)
(-0.138934 0.0168583 0)
(-0.14646 0.0164588 0)
(-0.153528 0.01588 0)
(-0.160071 0.0151232 0)
(-0.166027 0.0141925 0)
(-0.171343 0.0130936 0)
(-0.175972 0.0118344 0)
(-0.179874 0.0104241 0)
(-0.183015 0.0088731 0)
(-0.185368 0.00719327 0)
(-0.186912 0.00539735 0)
(-0.18763 0.00349927 0)
(-0.187511 0.00151413 0)
(-0.18655 -0.00054253 0)
(-0.184742 -0.00265489 0)
(-0.182092 -0.00480319 0)
(-0.178609 -0.00696667 0)
(-0.174304 -0.00912417 0)
(-0.169196 -0.011253 0)
(-0.163306 -0.0133286 0)
(-0.156666 -0.0153252 0)
(-0.14931 -0.0172156 0)
(-0.141281 -0.0189718 0)
(-0.132629 -0.0205656 0)
(-0.123413 -0.0219688 0)
(-0.113698 -0.0231543 0)
(-0.103558 -0.0240968 0)
(-0.0930743 -0.0247738 0)
(-0.0823354 -0.0251667 0)
(-0.0714367 -0.0252615 0)
(-0.0604787 -0.0250501 0)
(-0.049566 -0.0245306 0)
(-0.0388053 -0.0237083 0)
(-0.0283037 -0.0225959 0)
(-0.0181665 -0.0212134 0)
(-0.00849505 -0.019588 0)
(0.000615362 -0.0177531 0)
(0.00907768 -0.0157478 0)
(0.016815 -0.0136154 0)
(0.0237623 -0.0114024 0)
(0.029868 -0.00915635 0)
(0.0350951 -0.00692495 0)
(0.0394224 -0.00475376 0)
(0.0428456 -0.0026849 0)
(0.0453741 -0.000758756 0)
(0.0470353 0.000992459 0)
(0.0478746 0.00254484 0)
(0.0479485 0.00388042 0)
(0.0473273 0.0049889 0)
(0.0460919 0.00586812 0)
(0.0443306 0.00652352 0)
(0.0421363 0.00696726 0)
(0.0396026 0.00721718 0)
(0.0368212 0.00729541 0)
(0.0338781 0.00722691 0)
(0.0308516 0.00703803 0)
(0.0278105 0.00675513 0)
(0.0248124 0.00640345 0)
(0.0219036 0.00600616 0)
(0.0191195 0.00558358 0)
(0.016485 0.00515247 0)
(0.0140162 0.00472541 0)
(0.0117225 0.00431002 0)
(0.00960833 0.00390827 0)
(0.00767611 0.00351587 0)
(0.00592893 0.00312226 0)
(0.00437314 0.0027116 0)
(0.00302017 0.00226567 0)
(0.00188742 0.00176961 0)
(0.00099221 0.00122203 0)
(0.000377571 0.000649639 0)
(3.93738e-05 0.000151014 0)
(5.95544e-05 -0.000523732 0)
(0.000529919 -0.00152103 0)
(0.00130464 -0.00238973 0)
(0.00234363 -0.00305886 0)
(0.00353722 -0.00350153 0)
(0.00481298 -0.00371608 0)
(0.00609725 -0.0037196 0)
(0.00732515 -0.00354183 0)
(0.00844302 -0.00322 0)
(0.0094097 -0.00279439 0)
(0.0101964 -0.00230452 0)
(0.0107859 -0.00178607 0)
(0.0111706 -0.00126859 0)
(0.0113506 -0.000773851 0)
(0.0113304 -0.000315112 0)
(0.0111169 0.000102961 0)
(0.0107158 0.000483677 0)
(0.0101301 0.000837159 0)
(0.00935751 0.00117875 0)
(0.00838952 0.00152704 0)
(0.00721069 0.00190189 0)
(0.00579878 0.00232258 0)
(0.00412542 0.00280626 0)
(0.00215728 0.00336696 0)
(-0.000142519 0.00401506 0)
(-0.00281294 0.00475736 0)
(-0.00589354 0.00559746 0)
(-0.00942301 0.00653616 0)
(-0.0134378 0.00757189 0)
(-0.0179708 0.00870088 0)
(-0.0230496 0.00991701 0)
(-0.0286948 0.0112116 0)
(-0.0349189 0.0125728 0)
(-0.0417237 0.0139858 0)
(-0.0490996 0.015432 0)
(-0.057024 0.0168894 0)
(-0.0654604 0.0183332 0)
(-0.0743589 0.0197357 0)
(-0.0836557 0.0210677 0)
(-0.0932756 0.0222992 0)
(-0.103133 0.0234004 0)
(-0.113133 0.0243429 0)
(-0.123179 0.0251011 0)
(-0.13317 0.0256523 0)
(-0.143006 0.0259784 0)
(-0.15259 0.0260653 0)
(-0.161833 0.025904 0)
(-0.170652 0.0254899 0)
(-0.178973 0.0248228 0)
(-0.186729 0.0239063 0)
(-0.193865 0.0227474 0)
(-0.200333 0.0213557 0)
(-0.206094 0.0197431 0)
(-0.211118 0.0179229 0)
(-0.215377 0.0159099 0)
(-0.218854 0.0137196 0)
(-0.221532 0.011368 0)
(-0.223402 0.008872 0)
(-0.224455 0.0062486 0)
(-0.224686 0.00351557 0)
(-0.224093 0.000691296 0)
(-0.222676 -0.00220462 0)
(-0.220435 -0.00515119 0)
(-0.217375 -0.00812792 0)
(-0.213502 -0.0111106 0)
(-0.208825 -0.0140737 0)
(-0.203356 -0.0169899 0)
(-0.197112 -0.0198299 0)
(-0.190113 -0.0225623 0)
(-0.182386 -0.0251538 0)
(-0.173963 -0.0275698 0)
(-0.164883 -0.0297746 0)
(-0.155194 -0.0317323 0)
(-0.144951 -0.0334077 0)
(-0.134218 -0.0347674 0)
(-0.123067 -0.0357808 0)
(-0.11158 -0.0364218 0)
(-0.0998447 -0.0366697 0)
(-0.0879584 -0.0365108 0)
(-0.0760228 -0.0359391 0)
(-0.064144 -0.0349578 0)
(-0.0524302 -0.0335791 0)
(-0.0409901 -0.031825 0)
(-0.0299298 -0.0297265 0)
(-0.0193511 -0.0273233 0)
(-0.00934926 -0.0246627 0)
(-1.10089e-05 -0.021798 0)
(0.00858707 -0.0187871 0)
(0.0163799 -0.0156906 0)
(0.0233152 -0.0125701 0)
(0.029354 -0.00948649 0)
(0.0344717 -0.0064981 0)
(0.0386575 -0.0036594 0)
(0.0419166 -0.00101685 0)
(0.0442697 0.00138753 0)
(0.0457514 0.00352093 0)
(0.0464115 0.0053602 0)
(0.0463134 0.00689196 0)
(0.045532 0.00811289 0)
(0.044152 0.00902952 0)
(0.0422648 0.00965738 0)
(0.0399653 0.0100197 0)
(0.0373481 0.0101459 0)
(0.0345048 0.0100693 0)
(0.0315203 0.00982586 0)
(0.0284708 0.00945147 0)
(0.0254221 0.0089808 0)
(0.0224284 0.0084455 0)
(0.0195329 0.00787289 0)
(0.0167678 0.00728461 0)
(0.0141566 0.00669536 0)
(0.0117154 0.00611172 0)
(0.00945611 0.00553125 0)
(0.00738887 0.00494246 0)
(0.00552534 0.00432599 0)
(0.00388123 0.00365824 0)
(0.00247851 0.00291794 0)
(0.00133972 0.00209713 0)
(0.000530508 0.00121567 0)
(5.84863e-05 0.000360329 0)
(6.77767e-05 -0.00078995 0)
(0.000599331 -0.00219539 0)
(0.00146319 -0.00336411 0)
(0.002606 -0.00423837 0)
(0.00389789 -0.0047976 0)
(0.005256 -0.00504705 0)
(0.00659885 -0.00501282 0)
(0.00785653 -0.0047359 0)
(0.00897239 -0.00426617 0)
(0.00990354 -0.00365692 0)
(0.0106202 -0.00295996 0)
(0.0111041 -0.00222172 0)
(0.0113466 -0.00148016 0)
(0.0113458 -0.000762847 0)
(0.0111033 -8.59299e-05 0)
(0.0106219 0.000545881 0)
(0.00990212 0.00113847 0)
(0.0089402 0.00170666 0)
(0.00772624 0.00227206 0)
(0.00624308 0.00286036 0)
(0.00446607 0.00349861 0)
(0.00236355 0.0042127 0)
(-0.000101994 0.00502522 0)
(-0.00297235 0.00595414 0)
(-0.00629173 0.00701213 0)
(-0.0101048 0.00820657 0)
(-0.0144547 0.00953991 0)
(-0.0193813 0.0110102 0)
(-0.024919 0.0126114 0)
(-0.0310945 0.0143334 0)
(-0.0379253 0.0161621 0)
(-0.0454168 0.0180784 0)
(-0.053561 0.020059 0)
(-0.0623343 0.0220751 0)
(-0.0716969 0.0240937 0)
(-0.0815925 0.0260776 0)
(-0.0919488 0.0279869 0)
(-0.102679 0.0297798 0)
(-0.113685 0.0314151 0)
(-0.12486 0.0328529 0)
(-0.136093 0.034057 0)
(-0.147271 0.034996 0)
(-0.158285 0.0356443 0)
(-0.169031 0.0359829 0)
(-0.179416 0.0359998 0)
(-0.189355 0.0356892 0)
(-0.198777 0.0350518 0)
(-0.20762 0.0340933 0)
(-0.215834 0.0328238 0)
(-0.223381 0.0312571 0)
(-0.230229 0.0294092 0)
(-0.236356 0.0272979 0)
(-0.241746 0.024942 0)
(-0.246386 0.0223608 0)
(-0.250269 0.0195735 0)
(-0.253389 0.0165993 0)
(-0.255741 0.0134571 0)
(-0.257324 0.0101656 0)
(-0.258134 0.00674359 0)
(-0.25817 0.0032098 0)
(-0.257429 -0.000416376 0)
(-0.255908 -0.0041145 0)
(-0.253607 -0.00786286 0)
(-0.250524 -0.0116385 0)
(-0.246657 -0.015416 0)
(-0.242008 -0.0191678 0)
(-0.236581 -0.0228634 0)
(-0.23038 -0.0264696 0)
(-0.223416 -0.0299505 0)
(-0.215703 -0.0332673 0)
(-0.207261 -0.0363788 0)
(-0.198117 -0.0392421 0)
(-0.188306 -0.0418132 0)
(-0.177871 -0.044048 0)
(-0.166866 -0.045904 0)
(-0.155353 -0.0473412 0)
(-0.143405 -0.0483243 0)
(-0.131105 -0.0488241 0)
(-0.118544 -0.0488192 0)
(-0.105824 -0.0482977 0)
(-0.0930512 -0.0472584 0)
(-0.0803363 -0.0457115 0)
(-0.0677927 -0.043679 0)
(-0.0555332 -0.0411947 0)
(-0.0436673 -0.0383033 0)
(-0.0322985 -0.0350591 0)
(-0.0215228 -0.0315246 0)
(-0.011426 -0.0277681 0)
(-0.00208298 -0.023862 0)
(0.0064437 -0.0198803 0)
(0.0141038 -0.0158968 0)
(0.0208601 -0.0119834 0)
(0.026688 -0.00820767 0)
(0.0315762 -0.00463169 0)
(0.0355265 -0.00131104 0)
(0.0385542 0.00170717 0)
(0.0406882 0.00438549 0)
(0.0419708 0.00669706 0)
(0.0424576 0.00862637 0)
(0.0422167 0.0101697 0)
(0.0413265 0.011335 0)
(0.0398738 0.0121409 0)
(0.0379507 0.0126159 0)
(0.0356513 0.0127958 0)
(0.0330681 0.0127218 0)
(0.0302891 0.0124383 0)
(0.0273944 0.0119898 0)
(0.024455 0.0114191 0)
(0.0215311 0.0107648 0)
(0.0186719 0.0100589 0)
(0.0159164 0.00932526 0)
(0.0132948 0.00857723 0)
(0.0108311 0.00781655 0)
(0.0085451 0.00703288 0)
(0.00645652 0.00620497 0)
(0.00458791 0.0053043 0)
(0.00296853 0.00430172 0)
(0.00162887 0.00317804 0)
(0.000657328 0.00193724 0)
(7.41736e-05 0.000638619 0)
(7.37919e-05 -0.00108479 0)
(0.000649894 -0.00293579 0)
(0.0015769 -0.00442195 0)
(0.00278867 -0.00550074 0)
(0.00413704 -0.00616227 0)
(0.0055285 -0.00642277 0)
(0.00687398 -0.00632083 0)
(0.00809914 -0.00591125 0)
(0.00914521 -0.00525837 0)
(0.00996869 -0.0044295 0)
(0.0105398 -0.0034891 0)
(0.0108403 -0.00249403 0)
(0.0108606 -0.00148997 0)
(0.0105968 -0.000509139 0)
(0.0100472 0.000430792 0)
(0.00920926 0.00132653 0)
(0.00807666 0.00218798 0)
(0.00663731 0.00303598 0)
(0.00487174 0.00389944 0)
(0.00275251 0.00481177 0)
(0.000244548 0.00580738 0)
(-0.00269373 0.00691837 0)
(-0.00610864 0.00817185 0)
(-0.010049 0.00958827 0)
(-0.0145636 0.0111806 0)
(-0.0196989 0.0129544 0)
(-0.0254962 0.0149078 0)
(-0.0319895 0.0170326 0)
(-0.0392025 0.0193139 0)
(-0.0471463 0.0217306 0)
(-0.0558166 0.0242551 0)
(-0.0651923 0.0268529 0)
(-0.0752331 0.0294836 0)
(-0.0858797 0.0321005 0)
(-0.0970539 0.0346528 0)
(-0.108661 0.0370868 0)
(-0.120592 0.0393482 0)
(-0.13273 0.0413845 0)
(-0.14495 0.0431472 0)
(-0.15713 0.0445941 0)
(-0.169151 0.0456907 0)
(-0.180903 0.0464115 0)
(-0.192289 0.0467398 0)
(-0.203222 0.0466679 0)
(-0.213632 0.0461963 0)
(-0.223462 0.0453325 0)
(-0.232669 0.0440893 0)
(-0.241219 0.0424843 0)
(-0.249091 0.0405377 0)
(-0.256269 0.0382717 0)
(-0.262744 0.0357091 0)
(-0.268511 0.0328731 0)
(-0.273569 0.0297862 0)
(-0.277916 0.0264701 0)
(-0.281553 0.0229457 0)
(-0.28448 0.0192327 0)
(-0.286696 0.0153502 0)
(-0.2882 0.0113164 0)
(-0.28899 0.00714952 0)
(-0.28906 0.00286765 0)
(-0.288407 -0.00151046 0)
(-0.287025 -0.00596503 0)
(-0.284905 -0.0104747 0)
(-0.282041 -0.0150161 0)
(-0.278425 -0.0195633 0)
(-0.27405 -0.0240873 0)
(-0.26891 -0.0285557 0)
(-0.263 -0.0329325 0)
(-0.25632 -0.0371779 0)
(-0.24887 -0.0412482 0)
(-0.240659 -0.0450964 0)
(-0.231699 -0.0486723 0)
(-0.222012 -0.0519236 0)
(-0.211627 -0.0547971 0)
(-0.200584 -0.0572399 0)
(-0.188933 -0.0592014 0)
(-0.176736 -0.0606352 0)
(-0.164068 -0.0615014 0)
(-0.151015 -0.0617683 0)
(-0.137675 -0.0614154 0)
(-0.124154 -0.0604342 0)
(-0.110569 -0.0588304 0)
(-0.0970377 -0.056624 0)
(-0.0836839 -0.0538496 0)
(-0.0706276 -0.050556 0)
(-0.057985 -0.046804 0)
(-0.0458644 -0.0426651 0)
(-0.0343638 -0.0382185 0)
(-0.0235691 -0.0335486 0)
(-0.0135529 -0.0287422 0)
(-0.00437403 -0.0238859 0)
(0.00392202 -0.0190641 0)
(0.0113026 -0.0143572 0)
(0.0177474 -0.00983959 0)
(0.0232476 -0.00557893 0)
(0.0278058 -0.00163464 0)
(0.0314361 0.00194302 0)
(0.0341639 0.00511433 0)
(0.0360268 0.00785103 0)
(0.0370745 0.0101373 0)
(0.0373685 0.0119702 0)
(0.036981 0.0133598 0)
(0.0359932 0.0143284 0)
(0.0344928 0.0149091 0)
(0.0325711 0.0151438 0)
(0.0303191 0.0150807 0)
(0.027825 0.0147712 0)
(0.0251706 0.014267 0)
(0.0224297 0.0136168 0)
(0.0196661 0.0128633 0)
(0.016934 0.0120399 0)
(0.0142781 0.0111686 0)
(0.0117354 0.0102569 0)
(0.00933766 0.00929755 0)
(0.00711471 0.00826889 0)
(0.00509835 0.00713794 0)
(0.00332727 0.0058665 0)
(0.00184175 0.00442047 0)
(0.00075051 0.00278138 0)
(8.55933e-05 0.000970828 0)
(7.83952e-05 -0.00140082 0)
(0.00068671 -0.00372293 0)
(0.00165485 -0.00553452 0)
(0.00290414 -0.00680928 0)
(0.00426971 -0.0075514 0)
(0.00564779 -0.00779204 0)
(0.00694231 -0.00758581 0)
(0.00807519 -0.00700423 0)
(0.00898647 -0.00612806 0)
(0.00963297 -0.00503969 0)
(0.00998572 -0.0038164 0)
(0.0100269 -0.00252491 0)
(0.00974642 -0.0012174 0)
(0.00913791 7.08708e-05 0)
(0.00819538 0.00132254 0)
(0.00690987 0.00253765 0)
(0.0052668 0.0037318 0)
(0.00324412 0.00493328 0)
(0.000811427 0.00617912 0)
(-0.00206992 0.00751067 0)
(-0.00544562 0.00896913 0)
(-0.00936637 0.0105915 0)
(-0.0138853 0.0124073 0)
(-0.0190547 0.0144367 0)
(-0.0249234 0.0166897 0)
(-0.031533 0.0191657 0)
(-0.0389151 0.0218545 0)
(-0.0470883 0.024736 0)
(-0.0560551 0.0277811 0)
(-0.0657992 0.0309519 0)
(-0.0762838 0.0342015 0)
(-0.0874504 0.0374754 0)
(-0.0992187 0.0407125 0)
(-0.111489 0.0438468 0)
(-0.124145 0.0468107 0)
(-0.137059 0.0495375 0)
(-0.150098 0.0519649 0)
(-0.163126 0.0540377 0)
(-0.176016 0.0557103 0)
(-0.18865 0.0569478 0)
(-0.200923 0.0577273 0)
(-0.212748 0.0580371 0)
(-0.224052 0.0578761 0)
(-0.234782 0.0572519 0)
(-0.244895 0.0561796 0)
(-0.254366 0.0546797 0)
(-0.263175 0.0527762 0)
(-0.271315 0.0504955 0)
(-0.278781 0.0478646 0)
(-0.285575 0.0449106 0)
(-0.291699 0.0416598 0)
(-0.297159 0.0381369 0)
(-0.301957 0.0343654 0)
(-0.306098 0.0303668 0)
(-0.309586 0.0261615 0)
(-0.312422 0.021768 0)
(-0.314606 0.017204 0)
(-0.316136 0.0124864 0)
(-0.317011 0.00763162 0)
(-0.317223 0.00265639 0)
(-0.316768 -0.00242204 0)
(-0.315636 -0.00758522 0)
(-0.313817 -0.0128129 0)
(-0.311301 -0.0180825 0)
(-0.308073 -0.0233684 0)
(-0.304121 -0.0286416 0)
(-0.299431 -0.0338689 0)
(-0.29399 -0.0390127 0)
(-0.287785 -0.0440307 0)
(-0.280805 -0.0488756 0)
(-0.273045 -0.0534953 0)
(-0.264502 -0.0578335 0)
(-0.25518 -0.0618302 0)
(-0.245092 -0.0654227 0)
(-0.23426 -0.0685475 0)
(-0.222718 -0.0711422 0)
(-0.210512 -0.0731474 0)
(-0.197703 -0.0745098 0)
(-0.184366 -0.0751847 0)
(-0.170593 -0.0751388 0)
(-0.156487 -0.074353 0)
(-0.142166 -0.0728242 0)
(-0.127757 -0.0705668 0)
(-0.113392 -0.0676134 0)
(-0.0992068 -0.0640143 0)
(-0.0853354 -0.0598361 0)
(-0.0719048 -0.0551589 0)
(-0.0590317 -0.0500739 0)
(-0.0468195 -0.0446791 0)
(-0.035356 -0.0390761 0)
(-0.0247123 -0.0333664 0)
(-0.014943 -0.0276488 0)
(-0.00608747 -0.0220167 0)
(0.00182905 -0.0165568 0)
(0.00879338 -0.0113477 0)
(0.014803 -0.00645933 0)
(0.0198651 -0.00195224 0)
(0.0239961 0.00212325 0)
(0.0272219 0.0057279 0)
(0.0295782 0.00883451 0)
(0.0311115 0.0114289 0)
(0.0318784 0.0135105 0)
(0.0319463 0.0150925 0)
(0.0313913 0.0162013 0)
(0.0302963 0.0168748 0)
(0.0287489 0.0171605 0)
(0.0268376 0.0171123 0)
(0.0246489 0.0167874 0)
(0.0222647 0.0162421 0)
(0.0197598 0.0155281 0)
(0.0172006 0.0146882 0)
(0.014645 0.0137529 0)
(0.0121431 0.0127367 0)
(0.00973908 0.0116367 0)
(0.00747422 0.0104318 0)
(0.00539115 0.00908499 0)
(0.00353926 0.00754852 0)
(0.00196935 0.00577128 0)
(0.000806429 0.00370863 0)
(9.23632e-05 0.00133941 0)
(8.20439e-05 -0.00173278 0)
(0.000712746 -0.00454098 0)
(0.0017023 -0.00667608 0)
(0.00295927 -0.00812935 0)
(0.00430351 -0.00892231 0)
(0.00562182 -0.00910487 0)
(0.0068121 -0.00875133 0)
(0.00779365 -0.00795289 0)
(0.00850632 -0.00680872 0)
(0.00890813 -0.00541723 0)
(0.00897152 -0.00386841 0)
(0.0086794 -0.00223788 0)
(0.0080207 -0.000582697 0)
(0.00698613 0.00106093 0)
(0.00556432 0.00267818 0)
(0.00373861 0.00427457 0)
(0.0014847 0.00587325 0)
(-0.00123053 0.00751109 0)
(-0.00444908 0.00923364 0)
(-0.00822062 0.0110896 0)
(-0.0126002 0.0131254 0)
(-0.0176449 0.0153801 0)
(-0.0234106 0.0178825 0)
(-0.0299475 0.020648 0)
(-0.0372967 0.0236786 0)
(-0.0454866 0.0269623 0)
(-0.0545288 0.0304741 0)
(-0.0644156 0.0341762 0)
(-0.0751172 0.0380192 0)
(-0.0865798 0.0419426 0)
(-0.0987255 0.0458768 0)
(-0.111454 0.0497447 0)
(-0.124644 0.0534653 0)
(-0.138161 0.0569572 0)
(-0.151861 0.0601424 0)
(-0.1656 0.0629504 0)
(-0.179237 0.0653215 0)
(-0.192646 0.0672088 0)
(-0.205712 0.0685799 0)
(-0.21834 0.0694162 0)
(-0.230457 0.0697127 0)
(-0.242003 0.0694755 0)
(-0.25294 0.0687199 0)
(-0.263241 0.0674685 0)
(-0.27289 0.0657485 0)
(-0.281883 0.0635897 0)
(-0.29022 0.0610235 0)
(-0.297904 0.0580811 0)
(-0.304944 0.0547927 0)
(-0.311346 0.0511872 0)
(-0.317121 0.0472914 0)
(-0.322277 0.04313 0)
(-0.326821 0.0387256 0)
(-0.330759 0.0340989 0)
(-0.334098 0.0292686 0)
(-0.336841 0.024252 0)
(-0.338991 0.0190649 0)
(-0.340548 0.0137225 0)
(-0.34151 0.00823936 0)
(-0.341875 0.0026302 0)
(-0.341637 -0.0030897 0)
(-0.340787 -0.00890392 0)
(-0.339316 -0.0147942 0)
(-0.33721 -0.0207398 0)
(-0.334453 -0.0267169 0)
(-0.331028 -0.0326978 0)
(-0.326916 -0.0386502 0)
(-0.322094 -0.0445368 0)
(-0.31654 -0.0503146 0)
(-0.310231 -0.0559347 0)
(-0.303148 -0.061342 0)
(-0.295269 -0.0664755 0)
(-0.286582 -0.0712689 0)
(-0.277077 -0.0756512 0)
(-0.266756 -0.0795487 0)
(-0.25563 -0.0828863 0)
(-0.243722 -0.0855907 0)
(-0.231074 -0.0875929 0)
(-0.217742 -0.0888317 0)
(-0.203803 -0.089257 0)
(-0.189351 -0.0888338 0)
(-0.174499 -0.0875449 0)
(-0.159376 -0.0853935 0)
(-0.144125 -0.0824048 0)
(-0.128895 -0.0786262 0)
(-0.113842 -0.0741266 0)
(-0.099118 -0.0689935 0)
(-0.0848657 -0.0633296 0)
(-0.0712161 -0.0572485 0)
(-0.058282 -0.0508695 0)
(-0.046156 -0.0443129 0)
(-0.0349094 -0.0376957 0)
(-0.0245932 -0.0311282 0)
(-0.0152394 -0.0247118 0)
(-0.00686424 -0.0185377 0)
(0.00052889 -0.0126861 0)
(0.00694697 -0.00722653 0)
(0.0124053 -0.00221755 0)
(0.0169264 0.00229327 0)
(0.0205399 0.00626992 0)
(0.0232833 0.00968873 0)
(0.0252022 0.0125393 0)
(0.0263515 0.0148249 0)
(0.0267952 0.0165633 0)
(0.0266053 0.0177855 0)
(0.0258612 0.0185343 0)
(0.0246466 0.0188623 0)
(0.0230469 0.018828 0)
(0.0211467 0.0184919 0)
(0.0190268 0.0179119 0)
(0.0167624 0.0171387 0)
(0.0144218 0.0162103 0)
(0.0120668 0.0151482 0)
(0.00975319 0.013954 0)
(0.0075342 0.0126077 0)
(0.00546371 0.0110691 0)
(0.00360205 0.00928065 0)
(0.00201027 0.00717382 0)
(0.000824686 0.00467705 0)
(9.44801e-05 0.00172592 0)
(8.48857e-05 -0.00207646 0)
(0.00072888 -0.0053757 0)
(0.00172046 -0.00782201 0)
(0.00295501 -0.00942666 0)
(0.00423853 -0.0102321 0)
(0.00544959 -0.0103109 0)
(0.00648153 -0.00976093 0)
(0.00725241 -0.0086958 0)
(0.0077031 -0.00723496 0)
(0.00779361 -0.00549343 0)
(0.00749821 -0.00357345 0)
(0.00680035 -0.00155809 0)
(0.00568748 0.000492818 0)
(0.00414632 0.00254454 0)
(0.00215888 0.00458735 0)
(-0.000300504 0.00663438 0)
(-0.00326686 0.00871791 0)
(-0.00678488 0.0108841 0)
(-0.0109077 0.0131864 0)
(-0.0156942 0.0156792 0)
(-0.0212056 0.0184109 0)
(-0.0275006 0.021419 0)
(-0.0346312 0.0247258 0)
(-0.0426376 0.0283364 0)
(-0.0515437 0.0322383 0)
(-0.0613541 0.0364016 0)
(-0.0720498 0.0407797 0)
(-0.0835865 0.0453111 0)
(-0.0958931 0.0499211 0)
(-0.108873 0.054524 0)
(-0.122405 0.0590268 0)
(-0.13635 0.0633333 0)
(-0.150558 0.0673489 0)
(-0.164873 0.0709858 0)
(-0.179143 0.0741669 0)
(-0.193226 0.0768299 0)
(-0.206999 0.0789288 0)
(-0.220354 0.0804349 0)
(-0.23321 0.0813354 0)
(-0.245501 0.0816322 0)
(-0.257185 0.0813388 0)
(-0.268232 0.0804778 0)
(-0.278627 0.0790784 0)
(-0.288366 0.0771736 0)
(-0.297448 0.0747984 0)
(-0.305882 0.0719883 0)
(-0.313677 0.0687781 0)
(-0.320843 0.0652011 0)
(-0.327394 0.0612885 0)
(-0.333341 0.0570694 0)
(-0.338699 0.0525703 0)
(-0.343479 0.0478155 0)
(-0.347693 0.0428266 0)
(-0.351351 0.0376232 0)
(-0.354463 0.032223 0)
(-0.357039 0.0266414 0)