/*--------------------------------*- C++ -*----------------------------------*\
| =========                 |                                                 |
| \\      /  F ield         | OpenFOAM: The Open Source CFD Toolbox           |
|  \\    /   O peration     | Version:  2406                                  |
|   \\  /    A nd           | Website:  www.openfoam.com                      |
|    \\/     M anipulation  |                                                 |
\*---------------------------------------------------------------------------*/
FoamFile
{
    version     2.0;
    format      ascii;
    arch        "LSB;label=32;scalar=64";
    class       volVectorField;
    location    "34.3";
    object      Uold;
}
// * * * * * * * * * * * * * * * * * * * * * * * * * * * * * * * * * * * * * //

dimensions      [0 1 -1 0 0 0 0];

internalField   nonuniform List<vector> 
3600
(
(-4.67823e-06 -2.92248e-06 0)
(0.000371902 -0.000185302 0)
(0.00113719 -0.000283408 0)
(0.00199831 -0.000301197 0)
(0.00282137 -0.000247512 0)
(0.00342072 -0.00017272 0)
(0.00382094 -0.000102705 0)
(0.00401317 -5.95606e-05 0)
(0.00409631 -4.25776e-05 0)
(0.00409369 -4.30456e-05 0)
(0.00404354 -4.45155e-05 0)
(0.00390311 -3.35999e-05 0)
(0.00362745 -1.85511e-06 0)
(0.00313217 5.30424e-05 0)
(0.00234551 0.000131077 0)
(0.00118195 0.000232795 0)
(-0.000434673 0.000360516 0)
(-0.00258652 0.000515675 0)
(-0.00534432 0.000693653 0)
(-0.00877055 0.000883747 0)
(-0.0129027 0.00107758 0)
(-0.0177433 0.00127717 0)
(-0.0232382 0.00149048 0)
(-0.0292645 0.00171622 0)
(-0.0356208 0.00193066 0)
(-0.0420293 0.00208839 0)
(-0.0481476 0.00213553 0)
(-0.0535936 0.00202609 0)
(-0.0579767 0.00173285 0)
(-0.0609297 0.00125127 0)
(-0.0621373 0.000598183 0)
(-0.0613604 -0.000191049 0)
(-0.0584571 -0.00106602 0)
(-0.053399 -0.0019641 0)
(-0.0462874 -0.0028139 0)
(-0.0373623 -0.0035392 0)
(-0.0270076 -0.00406528 0)
(-0.0157401 -0.00432683 0)
(-0.00419016 -0.00427829 0)
(0.00694803 -0.00390459 0)
(0.0169699 -0.00322995 0)
(0.0252499 -0.00232236 0)
(0.0313069 -0.00128833 0)
(0.0348939 -0.000259429 0)
(0.0360143 0.000634498 0)
(0.0349472 0.00129199 0)
(0.0321615 0.00166823 0)
(0.0282608 0.00177888 0)
(0.0238272 0.00169069 0)
(0.0193786 0.00148529 0)
(0.0152485 0.00123683 0)
(0.011656 0.000990383 0)
(0.00863825 0.00077358 0)
(0.00620945 0.000592408 0)
(0.00425606 0.000454334 0)
(0.00274023 0.000346648 0)
(0.00152618 0.000266407 0)
(0.000643476 0.000167712 0)
(6.71072e-05 5.10699e-05 0)
(-8.86415e-05 -9.51579e-05 0)
(0.000159927 -0.000359101 0)
(0.00114373 -0.0011716 0)
(0.002765 -0.00157743 0)
(0.00447594 -0.00160775 0)
(0.00604918 -0.0013221 0)
(0.00715302 -0.000904045 0)
(0.0077876 -0.000481036 0)
(0.007911 -0.000142967 0)
(0.00764301 0.00010118 0)
(0.00699075 0.000295966 0)
(0.00596513 0.000515524 0)
(0.00444363 0.000831053 0)
(0.00228097 0.00128771 0)
(-0.000734215 0.00190549 0)
(-0.00479973 0.00268625 0)
(-0.0101233 0.00362592 0)
(-0.0168764 0.0047118 0)
(-0.0251971 0.00592144 0)
(-0.0351394 0.00722002 0)
(-0.0466392 0.00855874 0)
(-0.059464 0.00986031 0)
(-0.0732112 0.01101 0)
(-0.0873324 0.0118656 0)
(-0.101197 0.0122867 0)
(-0.114156 0.0121605 0)
(-0.125612 0.0114186 0)
(-0.135051 0.0100395 0)
(-0.142067 0.00804674 0)
(-0.146357 0.00550114 0)
(-0.147715 0.00249398 0)
(-0.146021 -0.000859324 0)
(-0.141237 -0.00442227 0)
(-0.133407 -0.00803923 0)
(-0.122656 -0.0115356 0)
(-0.10921 -0.0147207 0)
(-0.0933975 -0.017392 0)
(-0.0756673 -0.0193478 0)
(-0.056587 -0.0204035 0)
(-0.0368428 -0.0204182 0)
(-0.0172091 -0.0193206 0)
(0.00148075 -0.0171382 0)
(0.0184086 -0.0140129 0)
(0.0328213 -0.0102025 0)
(0.044131 -0.00605858 0)
(0.0519455 -0.00197914 0)
(0.0561574 0.0016479 0)
(0.0569138 0.00451762 0)
(0.0546686 0.00645207 0)
(0.0500604 0.00743737 0)
(0.0439092 0.00759663 0)
(0.0369904 0.00715383 0)
(0.0300392 0.00634813 0)
(0.0235165 0.00539876 0)
(0.0177712 0.00444974 0)
(0.012844 0.00360495 0)
(0.00880045 0.00287584 0)
(0.00547207 0.0022629 0)
(0.00292557 0.00162519 0)
(0.00105496 0.000935138 0)
(0.000106279 9.70613e-05 0)
(0.000265833 -0.00110295 0)
(0.00162335 -0.00281732 0)
(0.00372938 -0.00361165 0)
(0.00580353 -0.00355416 0)
(0.00756951 -0.00283578 0)
(0.00861691 -0.00179792 0)
(0.00893498 -0.000720423 0)
(0.00844798 0.000230749 0)
(0.00724276 0.00103644 0)
(0.00525876 0.00180682 0)
(0.00241528 0.00270501 0)
(-0.00152439 0.00389198 0)
(-0.00682278 0.00546541 0)
(-0.0137969 0.00746614 0)
(-0.0227216 0.00988283 0)
(-0.0338296 0.0126739 0)
(-0.0472245 0.0157569 0)
(-0.0628265 0.0189967 0)
(-0.0802935 0.0221773 0)
(-0.0990348 0.0250096 0)
(-0.118278 0.0271786 0)
(-0.137198 0.028419 0)
(-0.155026 0.0285597 0)
(-0.171128 0.0275357 0)
(-0.185029 0.0253672 0)
(-0.196401 0.022134 0)
(-0.205034 0.0179501 0)
(-0.210804 0.0129493 0)
(-0.213642 0.00727597 0)
(-0.213515 0.00108485 0)
(-0.210411 -0.00545785 0)
(-0.204336 -0.0121678 0)
(-0.19532 -0.018837 0)
(-0.183429 -0.0252263 0)
(-0.168783 -0.0310644 0)
(-0.15158 -0.0360496 0)
(-0.132119 -0.0398653 0)
(-0.110818 -0.0422034 0)
(-0.0882318 -0.0428042 0)
(-0.0650401 -0.0414997 0)
(-0.0420298 -0.0382643 0)
(-0.0200357 -0.0332457 0)
(0.000109115 -0.0267792 0)
(0.0176709 -0.0193615 0)
(0.0320482 -0.0115951 0)
(0.0428593 -0.0041121 0)
(0.0499133 0.00251399 0)
(0.0532896 0.00783057 0)
(0.0532642 0.0115734 0)
(0.0503994 0.0136833 0)
(0.0453795 0.0143203 0)
(0.0390598 0.0137981 0)
(0.032164 0.0125215 0)
(0.0253893 0.0108672 0)
(0.0190781 0.00914985 0)
(0.0135608 0.00752377 0)
(0.00879306 0.00604579 0)
(0.00497916 0.00453697 0)
(0.00199266 0.0028781 0)
(0.000307302 0.000848372 0)
(0.000333211 -0.0020214 0)
(0.0018937 -0.00470808 0)
(0.00416292 -0.00579126 0)
(0.00617299 -0.00543845 0)
(0.00762292 -0.00405793 0)
(0.00807475 -0.00215784 0)
(0.00752191 -0.000170143 0)
(0.00584926 0.00169788 0)
(0.00306609 0.00345013 0)
(-0.00101104 0.00529553 0)
(-0.00660824 0.00749931 0)
(-0.014097 0.0103039 0)
(-0.0238334 0.013828 0)
(-0.0361537 0.0180823 0)
(-0.0512408 0.0229671 0)
(-0.0690671 0.0282862 0)
(-0.0892773 0.0337079 0)
(-0.111194 0.0387784 0)
(-0.133899 0.0429942 0)
(-0.156431 0.0459306 0)
(-0.177935 0.0473192 0)
(-0.197767 0.0470645 0)
(-0.215491 0.0452029 0)
(-0.230854 0.0418553 0)
(-0.243721 0.0371804 0)
(-0.254038 0.0313491 0)
(-0.261787 0.0245262 0)
(-0.266963 0.0168687 0)
(-0.269558 0.00852506 0)
(-0.269554 -0.000355146 0)
(-0.266914 -0.00961295 0)
(-0.261591 -0.0190656 0)
(-0.253529 -0.028495 0)
(-0.242682 -0.0376333 0)
(-0.22903 -0.0461569 0)
(-0.212606 -0.0536841 0)
(-0.193527 -0.0597894 0)
(-0.172033 -0.0640307 0)
(-0.148514 -0.0660004 0)
(-0.12353 -0.065387 0)
(-0.0978148 -0.0620515 0)
(-0.0722298 -0.0560846 0)
(-0.0477064 -0.0478425 0)
(-0.0251289 -0.0379206 0)
(-0.00526003 -0.0270841 0)
(0.0113651 -0.0161569 0)
(0.024411 -0.00591172 0)
(0.0337822 0.00300269 0)
(0.0395144 0.0101184 0)
(0.0418705 0.0151653 0)
(0.0412275 0.0181117 0)
(0.0382248 0.0191512 0)
(0.033515 0.0186795 0)
(0.0279029 0.0171837 0)
(0.0219342 0.0151543 0)
(0.0162118 0.0129388 0)
(0.0108959 0.0107133 0)
(0.00640671 0.00834857 0)
(0.00268856 0.00560221 0)
(0.000462284 0.00206557 0)
(0.000369089 -0.00309052 0)
(0.0019779 -0.00675011 0)
(0.00412683 -0.00794343 0)
(0.00570532 -0.00700895 0)
(0.00639391 -0.00466109 0)
(0.00576176 -0.00158718 0)
(0.00380316 0.00163803 0)
(0.000353617 0.00481927 0)
(-0.00469515 0.00803177 0)
(-0.0116794 0.0116184 0)
(-0.0209762 0.015938 0)
(-0.0330335 0.0212642 0)
(-0.048166 0.0276443 0)
(-0.0664922 0.0349236 0)
(-0.0877727 0.0427199 0)
(-0.11138 0.0504629 0)
(-0.136346 0.0574567 0)
(-0.161577 0.0630543 0)
(-0.18608 0.066792 0)
(-0.209108 0.0684496 0)
(-0.230176 0.068008 0)
(-0.249019 0.0655881 0)
(-0.265522 0.0613809 0)
(-0.279659 0.0556056 0)
(-0.291454 0.0484757 0)
(-0.300948 0.0401875 0)
(-0.30819 0.0309121 0)
(-0.313215 0.0207998 0)
(-0.316045 0.00998521 0)
(-0.316676 -0.00140032 0)
(-0.315073 -0.0132175 0)
(-0.311171 -0.0253008 0)
(-0.304869 -0.0374432 0)
(-0.296037 -0.049375 0)
(-0.28453 -0.0607514 0)
(-0.270206 -0.0711396 0)
(-0.252965 -0.0800258 0)
(-0.23279 -0.0868357 0)
(-0.209813 -0.0909876 0)
(-0.184364 -0.0919669 0)
(-0.157024 -0.0894316 0)
(-0.12863 -0.0833123 0)
(-0.100231 -0.0738964 0)
(-0.0729717 -0.0618363 0)
(-0.0479406 -0.048081 0)
(-0.0259799 -0.0337144 0)
(-0.00762009 -0.0197761 0)
(0.00696444 -0.00712574 0)
(0.0177885 0.00361237 0)
(0.0250511 0.0120327 0)
(0.0289791 0.0179514 0)
(0.0300008 0.0214094 0)
(0.0285714 0.0226844 0)
(0.0253928 0.0222427 0)
(0.0210223 0.0206361 0)
(0.0161939 0.0183613 0)
(0.0112331 0.0157073 0)
(0.0067682 0.012642 0)
(0.00288449 0.00879509 0)
(0.000502587 0.00356198 0)
(0.000387914 -0.00416443 0)
(0.00189043 -0.00861051 0)
(0.00360242 -0.00959468 0)
(0.0043509 -0.00770734 0)
(0.00381631 -0.00404598 0)
(0.00161358 0.000529746 0)
(-0.00228593 0.00534813 0)
(-0.00812035 0.0103018 0)
(-0.0161561 0.0155882 0)
(-0.0268727 0.021681 0)
(-0.0407203 0.0289525 0)
(-0.0580379 0.0375608 0)
(-0.0788191 0.0472811 0)
(-0.102637 0.0575684 0)
(-0.128609 0.0676009 0)
(-0.155575 0.0764906 0)
(-0.182351 0.0834764 0)
(-0.207977 0.0880909 0)
(-0.231795 0.090157 0)
(-0.253427 0.0897313 0)
(-0.272698 0.0870037 0)
(-0.289569 0.0822348 0)
(-0.30408 0.0756982 0)
(-0.316319 0.0676581 0)
(-0.326401 0.058348 0)
(-0.334453 0.0479696 0)
(-0.340601 0.0366869 0)
(-0.344957 0.0246347 0)
(-0.347611 0.0119217 0)
(-0.34862 -0.0013551 0)
(-0.347995 -0.0150997 0)
(-0.345694 -0.0291961 0)
(-0.341612 -0.0434899 0)
(-0.335576 -0.0577618 0)
(-0.327344 -0.0717052 0)
(-0.316616 -0.0849009 0)
(-0.303059 -0.0968079 0)
(-0.286351 -0.106765 0)
(-0.266254 -0.114031 0)
(-0.2427 -0.117851 0)
(-0.215902 -0.117579 0)
(-0.186436 -0.112822 0)
(-0.155286 -0.103593 0)
(-0.123787 -0.0904121 0)
(-0.0934642 -0.0743082 0)
(-0.0657487 -0.0566585 0)
(-0.041718 -0.0389213 0)
(-0.0218849 -0.0223442 0)
(-0.00629831 -0.00780299 0)
(0.00533281 0.00418594 0)
(0.0133297 0.0133769 0)
(0.0181072 0.0197305 0)
(0.0200181 0.0234072 0)
(0.01963 0.0247819 0)
(0.0174182 0.0243595 0)
(0.014116 0.0226893 0)
(0.0101384 0.0201125 0)
(0.0062459 0.0166794 0)
(0.002682 0.0119049 0)
(0.000461418 0.00502928 0)
(0.000378664 -0.00521269 0)
(0.00158431 -0.0101235 0)
(0.00251713 -0.0104799 0)
(0.00204428 -0.00721543 0)
(-0.000140524 -0.00185902 0)
(-0.00435235 0.00459334 0)
(-0.0106858 0.0114426 0)
(-0.0194702 0.0187413 0)
(-0.0311267 0.0268193 0)
(-0.0461713 0.0361982 0)
(-0.0649253 0.0470822 0)
(-0.0873302 0.0592753 0)
(-0.112798 0.0720617 0)
(-0.140271 0.0844335 0)
(-0.168446 0.0953035 0)
(-0.196086 0.103821 0)
(-0.222238 0.109486 0)
(-0.246284 0.112156 0)
(-0.26789 0.11193 0)
(-0.286921 0.109064 0)
(-0.303379 0.103874 0)
(-0.317354 0.0967004 0)
(-0.329006 0.0878701 0)
(-0.33853 0.0776812 0)
(-0.346147 0.0663856 0)
(-0.35208 0.0541901 0)
(-0.356542 0.0412497 0)
(-0.359723 0.0276788 0)
(-0.361779 0.0135533 0)
(-0.362823 -0.0010723 0)
(-0.362919 -0.0161555 0)
(-0.362067 -0.0316436 0)
(-0.3602 -0.0474574 0)
(-0.357159 -0.0634608 0)
(-0.352687 -0.0794352 0)
(-0.346414 -0.0950429 0)
(-0.337864 -0.1098 0)
(-0.326468 -0.123054 0)
(-0.311625 -0.133986 0)
(-0.29279 -0.141654 0)
(-0.269616 -0.145095 0)
(-0.242114 -0.143473 0)
(-0.210819 -0.136303 0)
(-0.176877 -0.123656 0)
(-0.142014 -0.10632 0)
(-0.108281 -0.0857713 0)
(-0.0776601 -0.0639358 0)
(-0.0515539 -0.0427334 0)
(-0.0305506 -0.0236433 0)
(-0.0144448 -0.00751064 0)
(-0.00269654 0.00534427 0)
(0.00534864 0.0149114 0)
(0.010177 0.0213486 0)
(0.0123506 0.0249867 0)
(0.0123003 0.026259 0)
(0.0107066 0.0256972 0)
(0.00801936 0.0236277 0)
(0.0050442 0.0201357 0)
(0.00215616 0.0146468 0)
(0.000351534 0.00631122 0)
(0.000325686 -0.00606322 0)
(0.000992135 -0.0109165 0)
(0.000761806 -0.0101284 0)
(-0.00132513 -0.00503668 0)
(-0.00556209 0.00240066 0)
(-0.0121809 0.0111227 0)
(-0.0213909 0.0204869 0)
(-0.033596 0.0307375 0)
(-0.0492909 0.0422604 0)
(-0.0688173 0.0554271 0)
(-0.0921031 0.0700177 0)
(-0.118477 0.0852834 0)
(-0.14677 0.10001 0)
(-0.175565 0.112962 0)
(-0.203563 0.123141 0)
(-0.229772 0.130009 0)
(-0.253569 0.133411 0)
(-0.274611 0.133488 0)
(-0.29278 0.130544 0)
(-0.308109 0.124976 0)
(-0.320755 0.117205 0)
(-0.330954 0.107651 0)
(-0.339001 0.0966887 0)
(-0.345211 0.0846424 0)
(-0.349901 0.0717667 0)
(-0.353362 0.058254 0)
(-0.355858 0.0442311 0)
(-0.357607 0.0297764 0)
(-0.358792 0.0149234 0)
(-0.359551 -0.000320132 0)
(-0.359979 -0.0159661 0)
(-0.360122 -0.0320254 0)
(-0.359971 -0.0484969 0)
(-0.359437 -0.0653403 0)
(-0.358338 -0.0824544 0)
(-0.356361 -0.099636 0)
(-0.353042 -0.116543 0)
(-0.347742 -0.132647 0)
(-0.339659 -0.147198 0)
(-0.327878 -0.159215 0)
(-0.311487 -0.167532 0)
(-0.289759 -0.170909 0)
(-0.26241 -0.168246 0)
(-0.229845 -0.158869 0)
(-0.193358 -0.142848 0)
(-0.155113 -0.121227 0)
(-0.117856 -0.0960198 0)
(-0.0842626 -0.0698288 0)
(-0.0562295 -0.0451592 0)
(-0.0343679 -0.0237482 0)
(-0.0182383 -0.00634596 0)
(-0.00686261 0.00701533 0)
(0.000637021 0.0166137 0)
(0.00505234 0.0228653 0)
(0.00692553 0.0262018 0)
(0.00693387 0.0271288 0)
(0.00556338 0.025926 0)
(0.00360704 0.0226663 0)
(0.00153215 0.0167245 0)
(0.00022896 0.00724294 0)
(0.000208257 -0.00658988 0)
(5.51078e-05 -0.0107135 0)
(-0.00171753 -0.00822498 0)
(-0.00575659 -0.000875713 0)
(-0.0123669 0.00901762 0)
(-0.021693 0.0204214 0)
(-0.0340869 0.0328105 0)
(-0.0499421 0.046566 0)
(-0.0696597 0.0619424 0)
(-0.0931585 0.0788987 0)
(-0.119809 0.0966037 0)
(-0.148358 0.113774 0)
(-0.177334 0.128951 0)
(-0.205327 0.141008 0)
(-0.231293 0.149277 0)
(-0.254541 0.153587 0)
(-0.274719 0.154081 0)
(-0.291701 0.15113 0)
(-0.305572 0.145209 0)
(-0.316554 0.13685 0)
(-0.324987 0.126571 0)
(-0.331256 0.114848 0)
(-0.335773 0.102076 0)
(-0.338921 0.0885698 0)
(-0.341047 0.0745535 0)
(-0.342442 0.0601787 0)
(-0.343348 0.045527 0)
(-0.343953 0.0306341 0)
(-0.344411 0.015494 0)
(-0.344837 7.92961e-05 0)
(-0.345327 -0.0156566 0)
(-0.345945 -0.0317625 0)
(-0.346735 -0.0482872 0)
(-0.347691 -0.0652593 0)
(-0.348752 -0.0826762 0)
(-0.349755 -0.10047 0)
(-0.3504 -0.118475 0)
(-0.350189 -0.136368 0)
(-0.348392 -0.153612 0)
(-0.344016 -0.169391 0)
(-0.33585 -0.18258 0)
(-0.322583 -0.191768 0)
(-0.303044 -0.195388 0)
(-0.276536 -0.191976 0)
(-0.24324 -0.180564 0)
(-0.204529 -0.161131 0)
(-0.163057 -0.134981 0)
(-0.122362 -0.104765 0)
(-0.0860095 -0.0739542 0)
(-0.056422 -0.0457859 0)
(-0.0342473 -0.0222608 0)
(-0.0186045 -0.00392554 0)
(-0.00813527 0.00956692 0)
(-0.00155483 0.0188685 0)
(0.00202928 0.0245719 0)
(0.00343653 0.02724 0)
(0.00325025 0.0271405 0)
(0.00224674 0.0243241 0)
(0.000952077 0.0181667 0)
(0.000120826 0.00786313 0)
(5.93288e-06 -0.00654841 0)
(-0.00127065 -0.00911294 0)
(-0.00493645 -0.0043655 0)
(-0.0111966 0.00562518 0)
(-0.0204118 0.01832 0)
(-0.0326254 0.0327938 0)
(-0.0483124 0.0486363 0)
(-0.067702 0.066202 0)
(-0.0909108 0.0853677 0)
(-0.117277 0.105482 0)
(-0.145659 0.125119 0)
(-0.174461 0.142701 0)
(-0.202234 0.156849 0)
(-0.227785 0.166773 0)
(-0.250382 0.172193 0)
(-0.269596 0.17327 0)
(-0.285334 0.170415 0)
(-0.297701 0.164216 0)
(-0.307023 0.155315 0)
(-0.31372 0.144362 0)
(-0.318292 0.131932 0)
(-0.32122 0.11851 0)
(-0.322957 0.10446 0)
(-0.323871 0.0900431 0)
(-0.324271 0.0754182 0)
(-0.324378 0.0606744 0)
(-0.324366 0.0458379 0)
(-0.32435 0.0309016 0)
(-0.324427 0.0158276 0)
(-0.324664 0.000567344 0)
(-0.32513 -0.0149408 0)
(-0.325884 -0.0307584 0)
(-0.326991 -0.046952 0)
(-0.328503 -0.0635806 0)
(-0.330458 -0.080697 0)
(-0.332844 -0.0983262 0)
(-0.335567 -0.116448 0)
(-0.338388 -0.134947 0)
(-0.340852 -0.153559 0)
(-0.342205 -0.171776 0)
(-0.341344 -0.188759 0)
(-0.336807 -0.20326 0)
(-0.326898 -0.213617 0)
(-0.309945 -0.217874 0)
(-0.284757 -0.214094 0)
(-0.251167 -0.20088 0)
(-0.210567 -0.178021 0)
(-0.166102 -0.147084 0)
(-0.122251 -0.11152 0)
(-0.0835727 -0.0759195 0)
(-0.0530779 -0.0443968 0)
(-0.0312279 -0.0191478 0)
(-0.016642 -0.000351592 0)
(-0.00742296 0.0128504 0)
(-0.00206288 0.0214061 0)
(0.000626069 0.0261095 0)
(0.00145235 0.0273339 0)
(0.00123447 0.0251553 0)
(0.000553554 0.019015 0)
(5.82005e-05 0.008206 0)
(-0.000290471 -0.00574044 0)
(-0.00296742 -0.00584303 0)
(-0.00878755 0.00166089 0)
(-0.0174192 0.0145952 0)
(-0.0293302 0.0303779 0)
(-0.0444261 0.0482244 0)
(-0.0632328 0.067751 0)
(-0.0856385 0.0890547 0)
(-0.111352 0.111434 0)
(-0.139139 0.1336 0)
(-0.16756 0.15374 0)
(-0.19495 0.170291 0)
(-0.220094 0.182188 0)
(-0.242074 0.189052 0)
(-0.260472 0.190978 0)
(-0.275125 0.188443 0)
(-0.286232 0.18212 0)
(-0.294154 0.172803 0)
(-0.299444 0.161266 0)
(-0.302665 0.148213 0)
(-0.304398 0.13421 0)
(-0.305119 0.119683 0)
(-0.305236 0.104914 0)
(-0.30503 0.0900742 0)
(-0.304716 0.0752402 0)
(-0.304413 0.0604346 0)
(-0.304206 0.0456341 0)
(-0.304133 0.0308005 0)
(-0.30423 0.0158789 0)
(-0.304513 0.000817116 0)
(-0.30502 -0.0144429 0)
(-0.305787 -0.0299532 0)
(-0.306879 -0.0457712 0)
(-0.308363 -0.0619515 0)
(-0.310329 -0.0785558 0)
(-0.312854 -0.0956432 0)
(-0.315999 -0.113269 0)
(-0.319749 -0.131459 0)
(-0.323963 -0.150169 0)
(-0.328272 -0.169213 0)
(-0.331977 -0.188157 0)
(-0.333936 -0.206182 0)
(-0.332521 -0.221953 0)
(-0.325685 -0.23356 0)
(-0.311263 -0.238609 0)
(-0.287495 -0.234589 0)
(-0.25379 -0.219533 0)
(-0.211491 -0.19296 0)
(-0.164285 -0.156749 0)
(-0.11771 -0.115415 0)
(-0.0774561 -0.0749742 0)
(-0.0469594 -0.0405186 0)
(-0.0262591 -0.0142093 0)
(-0.0132264 0.00440892 0)
(-0.00557481 0.0166979 0)
(-0.00148868 0.0239154 0)
(0.000257462 0.0267442 0)
(0.000652998 0.0254114 0)
(0.000372159 0.0195033 0)
(4.43253e-05 0.00842715 0)
(-0.000682922 -0.00391455 0)
(-0.00498619 -0.00061423 0)
(-0.0131162 0.0100568 0)
(-0.0241495 0.0261487 0)
(-0.0386985 0.0452207 0)
(-0.0564636 0.0665849 0)
(-0.0779233 0.0897284 0)
(-0.102493 0.114269 0)
(-0.129474 0.138861 0)
(-0.157211 0.161721 0)
(-0.184214 0.180948 0)
(-0.208951 0.195236 0)
(-0.230528 0.203946 0)
(-0.248314 0.207115 0)
(-0.262224 0.205212 0)
(-0.272389 0.199028 0)
(-0.279307 0.18948 0)
(-0.283554 0.177512 0)
(-0.28583 0.163952 0)
(-0.286736 0.149476 0)
(-0.286829 0.134564 0)
(-0.286494 0.119532 0)
(-0.286034 0.104547 0)
(-0.285605 0.0896814 0)
(-0.285316 0.0749337 0)
(-0.285189 0.0602715 0)
(-0.28524 0.0456378 0)
(-0.285443 0.0309781 0)
(-0.285795 0.0162343 0)
(-0.286277 0.00136073 0)
(-0.286904 -0.013688 0)
(-0.287692 -0.0289464 0)
(-0.28869 -0.0444526 0)
(-0.28996 -0.0602415 0)
(-0.291597 -0.0763597 0)
(-0.293706 -0.0928608 0)
(-0.296415 -0.109817 0)
(-0.299834 -0.12731 0)
(-0.304034 -0.145417 0)
(-0.308968 -0.164172 0)
(-0.314378 -0.183486 0)
(-0.319648 -0.203015 0)
(-0.323661 -0.221986 0)
(-0.324676 -0.238996 0)
(-0.320366 -0.251875 0)
(-0.308081 -0.257741 0)
(-0.28549 -0.253391 0)
(-0.251533 -0.236181 0)
(-0.207512 -0.205298 0)
(-0.157755 -0.163121 0)
(-0.109055 -0.115609 0)
(-0.0682597 -0.0706097 0)
(-0.038934 -0.0340821 0)
(-0.0201931 -0.00769127 0)
(-0.00916548 0.0098673 0)
(-0.00320494 0.0204842 0)
(-0.000443833 0.0254112 0)
(0.000471346 0.025235 0)
(0.000400785 0.0197931 0)
(7.82524e-05 0.0086265 0)
(-0.00114897 -0.0009153 0)
(-0.00719765 0.0066731 0)
(-0.0176453 0.0207935 0)
(-0.0309615 0.0401366 0)
(-0.0479161 0.0625559 0)
(-0.0679242 0.0873478 0)
(-0.0913305 0.113704 0)
(-0.117033 0.140628 0)
(-0.144039 0.166216 0)
(-0.170467 0.18843 0)
(-0.194989 0.205541 0)
(-0.216299 0.216642 0)
(-0.233865 0.221564 0)
(-0.247357 0.220761 0)
(-0.257044 0.215074 0)
(-0.263338 0.205578 0)
(-0.266984 0.193369 0)
(-0.268667 0.179445 0)
(-0.269126 0.164591 0)
(-0.268891 0.14937 0)
(-0.268417 0.134126 0)
(-0.267947 0.119038 0)
(-0.267658 0.104157 0)
(-0.267588 0.0894701 0)
(-0.267759 0.0749172 0)
(-0.268123 0.0604331 0)
(-0.268651 0.0459462 0)
(-0.269285 0.0314012 0)
(-0.27 0.0167477 0)
(-0.270762 0.00195324 0)
(-0.271571 -0.0130103 0)
(-0.272426 -0.0281577 0)
(-0.273363 -0.0435046 0)
(-0.274423 -0.0590613 0)
(-0.275685 -0.0748486 0)
(-0.277243 -0.0908952 0)
(-0.27923 -0.107255 0)
(-0.281793 -0.124007 0)
(-0.2851 -0.141265 0)
(-0.289288 -0.159163 0)
(-0.294412 -0.177821 0)
(-0.300316 -0.197256 0)
(-0.306491 -0.217228 0)
(-0.311852 -0.23702 0)
(-0.31459 -0.255147 0)
(-0.312118 -0.269155 0)
(-0.301344 -0.275582 0)
(-0.279375 -0.270444 0)
(-0.244717 -0.250299 0)
(-0.198731 -0.214084 0)
(-0.146608 -0.164992 0)
(-0.0966346 -0.111088 0)
(-0.0567297 -0.0623668 0)
(-0.0298957 -0.0251849 0)
(-0.0138702 -3.51893e-05 0)
(-0.00513558 0.0154368 0)
(-0.000988983 0.0232974 0)
(0.00051326 0.0247634 0)
(0.000562296 0.0200716 0)
(0.000142831 0.00893142 0)
(-0.00166038 0.00338683 0)
(-0.0094682 0.0160661 0)
(-0.0221127 0.033799 0)
(-0.0374691 0.0563795 0)
(-0.0564475 0.0820557 0)
(-0.0781079 0.109954 0)
(-0.102621 0.138843 0)
(-0.128416 0.167093 0)
(-0.154371 0.192431 0)
(-0.178561 0.212814 0)
(-0.199947 0.226879 0)
(-0.217497 0.234186 0)
(-0.231057 0.235051 0)
(-0.240604 0.230342 0)
(-0.246743 0.221245 0)
(-0.250096 0.209041 0)
(-0.251547 0.194901 0)
(-0.251775 0.179765 0)
(-0.251454 0.164292 0)
(-0.25097 0.148882 0)
(-0.25064 0.13372 0)
(-0.25056 0.118857 0)
(-0.250802 0.104251 0)
(-0.251312 0.0898278 0)
(-0.252063 0.0754958 0)
(-0.252965 0.0611776 0)
(-0.253978 0.0468029 0)
(-0.25503 0.0323244 0)
(-0.256096 0.0177037 0)
(-0.257136 0.00292236 0)
(-0.258148 -0.0120333 0)
(-0.259121 -0.0271623 0)
(-0.260079 -0.0424634 0)
(-0.261043 -0.0579277 0)
(-0.262068 -0.0735525 0)
(-0.263217 -0.0893392 0)
(-0.264595 -0.10531 0)
(-0.266328 -0.121512 0)
(-0.268592 -0.138039 0)
(-0.271582 -0.155033 0)
(-0.275508 -0.17269 0)
(-0.280506 -0.19122 0)
(-0.286538 -0.210754 0)
(-0.293177 -0.231164 0)
(-0.299383 -0.251759 0)
(-0.303249 -0.270947 0)
(-0.301932 -0.285874 0)
(-0.2919 -0.292411 0)
(-0.269743 -0.285619 0)
(-0.233652 -0.261263 0)
(-0.185283 -0.218202 0)
(-0.131083 -0.161163 0)
(-0.0810986 -0.101147 0)
(-0.0439049 -0.0503932 0)
(-0.0208407 -0.0145299 0)
(-0.00804788 0.00794284 0)
(-0.00183218 0.0200466 0)
(0.000533617 0.0239145 0)
(0.000756359 0.0203693 0)
(0.000219696 0.00937802 0)
(-0.00216512 0.00897849 0)
(-0.0116063 0.0274043 0)
(-0.0261854 0.0487741 0)
(-0.0432168 0.0744366 0)
(-0.0637138 0.103089 0)
(-0.0863439 0.133543 0)
(-0.111116 0.164094 0)
(-0.136097 0.19256 0)
(-0.160198 0.216535 0)
(-0.181587 0.234169 0)
(-0.19958 0.244584 0)
(-0.213431 0.247832 0)
(-0.223368 0.244718 0)
(-0.229645 0.236491 0)
(-0.233135 0.224608 0)
(-0.234559 0.210439 0)
(-0.234828 0.195115 0)
(-0.234514 0.179428 0)
(-0.234162 0.163858 0)
(-0.23399 0.148624 0)
(-0.234183 0.133771 0)
(-0.234716 0.119242 0)
(-0.23559 0.104937 0)
(-0.236697 0.0907488 0)
(-0.237989 0.076579 0)
(-0.239367 0.0623533 0)
(-0.240791 0.0480124 0)
(-0.242193 0.0335218 0)
(-0.243556 0.0188569 0)
(-0.244839 0.00401168 0)
(-0.246044 -0.011015 0)
(-0.247156 -0.0262109 0)
(-0.248191 -0.0415623 0)
(-0.249154 -0.0570469 0)
(-0.250081 -0.0726455 0)
(-0.251005 -0.0883381 0)
(-0.251996 -0.104118 0)
(-0.253135 -0.119997 0)
(-0.254559 -0.136022 0)
(-0.256439 -0.152297 0)
(-0.25901 -0.168998 0)
(-0.262529 -0.186385 0)
(-0.267229 -0.204766 0)
(-0.273165 -0.224402 0)
(-0.280003 -0.245263 0)
(-0.286702 -0.266683 0)
(-0.291224 -0.286838 0)
(-0.290406 -0.302374 0)
(-0.280248 -0.308236 0)
(-0.256895 -0.298444 0)
(-0.218423 -0.267948 0)
(-0.167245 -0.216124 0)
(-0.111595 -0.150297 0)
(-0.0635246 -0.085521 0)
(-0.031095 -0.0354563 0)
(-0.0127049 -0.00308335 0)
(-0.00345645 0.0150978 0)
(0.000262375 0.0224724 0)
(0.000868265 0.0206406 0)
(0.000287085 0.00997758 0)
(-0.00262099 0.0157785 0)
(-0.0134701 0.040475 0)
(-0.0296296 0.065413 0)
(-0.0478988 0.0939104 0)
(-0.0693475 0.125134 0)
(-0.0922582 0.157466 0)
(-0.116529 0.188756 0)
(-0.139994 0.216415 0)
(-0.161734 0.238123 0)
(-0.180085 0.252369 0)
(-0.194747 0.258828 0)
(-0.205252 0.258045 0)
(-0.212182 0.251296 0)
(-0.216002 0.240134 0)
(-0.21775 0.226177 0)
(-0.218133 0.210763 0)
(-0.217995 0.194887 0)
(-0.217745 0.179137 0)
(-0.217781 0.1638 0)
(-0.218163 0.148929 0)
(-0.218978 0.13446 0)
(-0.220116 0.120269 0)
(-0.221546 0.106226 0)
(-0.223136 0.0922156 0)
(-0.224844 0.0781481 0)
(-0.226571 0.0639605 0)
(-0.228295 0.0496082 0)
(-0.229952 0.0350692 0)
(-0.231537 0.0203306 0)
(-0.233012 0.00539556 0)
(-0.234386 -0.00972895 0)
(-0.235638 -0.0250237 0)
(-0.236783 -0.0404684 0)
(-0.237815 -0.0560334 0)
(-0.23876 -0.0716901 0)
(-0.239626 -0.0874062 0)
(-0.240455 -0.103156 0)
(-0.241288 -0.118922 0)
(-0.242211 -0.134711 0)
(-0.243337 -0.150573 0)
(-0.244853 -0.16662 0)
(-0.247005 -0.183067 0)
(-0.250107 -0.200232 0)
(-0.254465 -0.218544 0)
(-0.260236 -0.238376 0)
(-0.267145 -0.259824 0)
(-0.274116 -0.282142 0)
(-0.278894 -0.303202 0)
(-0.2779 -0.318834 0)
(-0.266633 -0.322876 0)
(-0.240869 -0.308047 0)
(-0.198982 -0.268834 0)
(-0.14476 -0.206065 0)
(-0.0890359 -0.131525 0)
(-0.0455384 -0.0650323 0)
(-0.0196519 -0.0190236 0)
(-0.00625397 0.00762006 0)
(-0.000507833 0.0200077 0)
(0.000813865 0.020687 0)
(0.000331233 0.01066 0)
(-0.00297441 0.0235676 0)
(-0.0148977 0.0548947 0)
(-0.0322 0.0832268 0)
(-0.0512194 0.114194 0)
(-0.073038 0.147452 0)
(-0.0955986 0.180899 0)
(-0.118757 0.212034 0)
(-0.140245 0.238024 0)
(-0.159391 0.256818 0)
(-0.174747 0.267334 0)
(-0.186384 0.269823 0)
(-0.19409 0.265302 0)
(-0.198736 0.255459 0)
(-0.200906 0.242046 0)
(-0.201699 0.22672 0)
(-0.201718 0.210681 0)
(-0.201689 0.194727 0)
(-0.201837 0.179224 0)
(-0.202434 0.164283 0)
(-0.203413 0.149828 0)
(-0.204802 0.135722 0)
(-0.206444 0.121806 0)
(-0.208305 0.107948 0)
(-0.210251 0.0940388 0)
(-0.212255 0.0800048 0)
(-0.214228 0.0657971 0)
(-0.216163 0.0513861 0)
(-0.218004 0.03676 0)
(-0.219756 0.0219154 0)
(-0.221383 0.00686197 0)
(-0.222896 -0.00838702 0)
(-0.224274 -0.023808 0)
(-0.22553 -0.0393756 0)
(-0.226653 -0.0550565 0)
(-0.227661 -0.0708169 0)
(-0.228552 -0.0866186 0)
(-0.22935 -0.102425 0)
(-0.230068 -0.118203 0)
(-0.230754 -0.133931 0)
(-0.231464 -0.149615 0)
(-0.232319 -0.165302 0)
(-0.233494 -0.181129 0)
(-0.235268 -0.197339 0)
(-0.237992 -0.214349 0)
(-0.242057 -0.232679 0)
(-0.247691 -0.252881 0)
(-0.254651 -0.275076 0)
(-0.261746 -0.29843 0)
(-0.266383 -0.320186 0)
(-0.264465 -0.335144 0)
(-0.250912 -0.335545 0)
(-0.221399 -0.312855 0)
(-0.175099 -0.261641 0)
(-0.118285 -0.186136 0)
(-0.0649782 -0.10505 0)
(-0.0292267 -0.0416123 0)
(-0.0104955 -0.00328708 0)
(-0.00190113 0.0159836 0)
(0.000550418 0.0202647 0)
(0.000345139 0.0113446 0)
(-0.00319805 0.0320784 0)
(-0.0158144 0.0702853 0)
(-0.0337956 0.101806 0)
(-0.0530833 0.134849 0)
(-0.0747325 0.169582 0)
(-0.0964218 0.203425 0)
(-0.118032 0.233641 0)
(-0.137297 0.257315 0)
(-0.153836 0.272801 0)
(-0.16643 0.279488 0)
(-0.175488 0.278207 0)
(-0.181005 0.270395 0)
(-0.184062 0.258069 0)
(-0.185266 0.243056 0)
(-0.185688 0.226948 0)
(-0.185778 0.210731 0)
(-0.186123 0.19499 0)
(-0.186787 0.179877 0)
(-0.18794 0.165368 0)
(-0.189435 0.151292 0)
(-0.191272 0.13748 0)
(-0.19328 0.123761 0)
(-0.195435 0.110016 0)
(-0.197614 0.0961511 0)
(-0.19981 0.0821096 0)
(-0.201943 0.0678553 0)
(-0.204022 0.0533707 0)
(-0.205995 0.0386502 0)
(-0.207873 0.0236973 0)
(-0.209621 0.00852503 0)
(-0.211251 -0.0068492 0)
(-0.21274 -0.0223994 0)
(-0.214102 -0.038097 0)
(-0.215322 -0.0539068 0)
(-0.216415 -0.0697922 0)
(-0.217374 -0.0857133 0)
(-0.218216 -0.101629 0)
(-0.218939 -0.1175 0)
(-0.219566 -0.133289 0)
(-0.220116 -0.148976 0)
(-0.220652 -0.164556 0)
(-0.221269 -0.180095 0)
(-0.222163 -0.195729 0)
(-0.22362 -0.211782 0)
(-0.226059 -0.228729 0)
(-0.229933 -0.247283 0)
(-0.235535 -0.268077 0)
(-0.242588 -0.291329 0)
(-0.249661 -0.315793 0)
(-0.25369 -0.337906 0)
(-0.249869 -0.350787 0)
(-0.232661 -0.344876 0)
(-0.197906 -0.310402 0)
(-0.146722 -0.243598 0)
(-0.0888678 -0.155274 0)
(-0.042102 -0.0729983 0)
(-0.0162213 -0.0186972 0)
(-0.00403468 0.00975244 0)
(8.78151e-05 0.0190592 0)
(0.000324732 0.0119275 0)
(-0.00326284 0.040957 0)
(-0.0161454 0.086155 0)
(-0.0343276 0.120607 0)
(-0.0534226 0.155278 0)
(-0.0744277 0.1909 0)
(-0.0948464 0.224468 0)
(-0.114639 0.253145 0)
(-0.131618 0.274068 0)
(-0.145704 0.286083 0)
(-0.155892 0.289062 0)
(-0.162882 0.284381 0)
(-0.166809 0.273827 0)
(-0.168877 0.259637 0)
(-0.169637 0.243603 0)
(-0.170076 0.227171 0)
(-0.170475 0.211081 0)
(-0.171291 0.19571 0)
(-0.172459 0.18103 0)
(-0.174086 0.16692 0)
(-0.175979 0.153154 0)
(-0.178138 0.139557 0)
(-0.180392 0.125963 0)
(-0.18274 0.112274 0)
(-0.185069 0.0984089 0)
(-0.187393 0.0843301 0)
(-0.189639 0.0700092 0)
(-0.191826 0.0554373 0)
(-0.193904 0.0406125 0)
(-0.195886 0.0255427 0)
(-0.197737 0.010243 0)
(-0.199468 -0.00526535 0)
(-0.201054 -0.0209544 0)
(-0.202507 -0.0367917 0)
(-0.20381 -0.0527404 0)
(-0.204979 -0.0687605 0)
(-0.206005 -0.0848121 0)
(-0.206902 -0.100851 0)
(-0.207666 -0.11684 0)
(-0.20831 -0.132733 0)
(-0.208834 -0.148504 0)
(-0.209264 -0.164116 0)
(-0.209637 -0.179589 0)
(-0.21006 -0.194966 0)
(-0.210717 -0.210454 0)
(-0.211945 -0.226389 0)
(-0.214209 -0.243444 0)
(-0.218042 -0.26242 0)
(-0.223765 -0.284197 0)
(-0.230961 -0.308783 0)
(-0.237821 -0.334436 0)
(-0.240538 -0.356024 0)
(-0.233591 -0.364609 0)
(-0.211018 -0.348323 0)
(-0.169809 -0.297161 0)
(-0.114147 -0.211916 0)
(-0.059038 -0.114583 0)
(-0.0234418 -0.0402253 0)
(-0.00703179 0.000754401 0)
(-0.000573069 0.0166924 0)
(0.000277988 0.0123362 0)
(-0.00317088 0.0498587 0)
(-0.0159056 0.102093 0)
(-0.0338423 0.139255 0)
(-0.0523452 0.175154 0)
(-0.072326 0.21116 0)
(-0.0912053 0.243929 0)
(-0.109053 0.270642 0)
(-0.12382 0.288596 0)
(-0.1357 0.297169 0)
(-0.143885 0.296702 0)
(-0.149293 0.289069 0)
(-0.152145 0.276315 0)
(-0.153678 0.260798 0)
(-0.154342 0.244183 0)
(-0.155009 0.227725 0)
(-0.155799 0.211916 0)
(-0.157065 0.196951 0)
(-0.158652 0.182666 0)
(-0.160635 0.16888 0)
(-0.162802 0.15534 0)
(-0.165166 0.141884 0)
(-0.167568 0.128358 0)
(-0.17003 0.114685 0)
(-0.17245 0.100799 0)
(-0.174858 0.0866737 0)
(-0.177185 0.0722852 0)
(-0.179456 0.0576299 0)
(-0.181621 0.0427065 0)
(-0.183694 0.0275257 0)
(-0.185637 0.0121028 0)
(-0.18746 -0.00353781 0)
(-0.189134 -0.0193666 0)
(-0.190671 -0.0353472 0)
(-0.192051 -0.0514409 0)
(-0.193291 -0.0676039 0)
(-0.194379 -0.0837959 0)
(-0.195334 -0.0999704 0)
(-0.196149 -0.116093 0)
(-0.19684 -0.132115 0)
(-0.197397 -0.148012 0)
(-0.197833 -0.163733 0)
(-0.198149 -0.179279 0)
(-0.198393 -0.194627 0)
(-0.198652 -0.209892 0)
(-0.199143 -0.225248 0)
(-0.20023 -0.241221 0)