/*--------------------------------*- C++ -*----------------------------------*\
| =========                 |                                                 |
| \\      /  F ield         | OpenFOAM: The Open Source CFD Toolbox           |
|  \\    /   O peration     | Version:  2406                                  |
|   \\  /    A nd           | Website:  www.openfoam.com                      |
|    \\/     M anipulation  |                                                 |
\*---------------------------------------------------------------------------*/
FoamFile
{
    version     2.0;
    format      ascii;
    arch        "LSB;label=32;scalar=64";
    class       volVectorField;
    location    "49.3";
    object      U_0;
}
// * * * * * * * * * * * * * * * * * * * * * * * * * * * * * * * * * * * * * //

dimensions      [0 1 -1 0 0 0 0];

internalField   nonuniform List<vector> 
14400
(
(-7.45455e-06 7.34907e-06 0)
(1.28966e-05 -1.09838e-05 0)
(0.000120766 -3.49295e-05 0)
(0.000312186 -5.45088e-05 0)
(0.000567287 -6.80996e-05 0)
(0.00086304 -7.54261e-05 0)
(0.00117626 -7.7061e-05 0)
(0.00148633 -7.39216e-05 0)
(0.00177649 -6.71538e-05 0)
(0.00203454 -5.79922e-05 0)
(0.00225302 -4.76499e-05 0)
(0.00242898 -3.72159e-05 0)
(0.00256342 -2.75762e-05 0)
(0.00266038 -1.9366e-05 0)
(0.00272594 -1.29487e-05 0)
(0.0027672 -8.41961e-06 0)
(0.00279139 -5.69376e-06 0)
(0.0028048 -4.581e-06 0)
(0.00281215 -4.62004e-06 0)
(0.00281643 -5.27296e-06 0)
(0.00281831 -5.94424e-06 0)
(0.00281675 -5.80689e-06 0)
(0.00280899 -4.67238e-06 0)
(0.00279047 -2.36997e-06 0)
(0.00275569 1.27954e-06 0)
(0.00269859 6.36435e-06 0)
(0.00261282 1.29095e-05 0)
(0.00249195 2.09137e-05 0)
(0.00232951 3.03765e-05 0)
(0.00211903 4.13142e-05 0)
(0.00185394 5.37653e-05 0)
(0.00152752 6.77827e-05 0)
(0.00113293 8.34204e-05 0)
(0.000663214 0.000100718 0)
(0.000111456 0.000119685 0)
(-0.00052909 0.000140293 0)
(-0.00126478 0.000162462 0)
(-0.00210134 0.000186061 0)
(-0.00304363 0.000210902 0)
(-0.00409538 0.000236738 0)
(-0.00525892 0.000263265 0)
(-0.00653492 0.000290123 0)
(-0.0079222 0.0003169 0)
(-0.00941749 0.000343136 0)
(-0.0110153 0.000368332 0)
(-0.0127076 0.000391957 0)
(-0.0144843 0.000413454 0)
(-0.0163324 0.000432255 0)
(-0.0182368 0.000447786 0)
(-0.0201799 0.000459473 0)
(-0.022142 0.000466759 0)
(-0.0241013 0.000469101 0)
(-0.0260345 0.000465987 0)
(-0.0279163 0.000456936 0)
(-0.0297207 0.000441513 0)
(-0.0314205 0.000419335 0)
(-0.0329879 0.000390076 0)
(-0.0343952 0.000353498 0)
(-0.0356147 0.000309443 0)
(-0.0366197 0.000257745 0)
(-0.0373854 0.000198833 0)
(-0.0378881 0.000134873 0)
(-0.0381031 6.58342e-05 0)
(-0.038011 -1.18179e-05 0)
(-0.0376007 -9.5396e-05 0)
(-0.0368597 -0.000182439 0)
(-0.0357811 -0.000271687 0)
(-0.0343641 -0.000361646 0)
(-0.0326139 -0.000450541 0)
(-0.0305422 -0.0005364 0)
(-0.0281675 -0.000617105 0)
(-0.0255153 -0.000690464 0)
(-0.0226181 -0.000754297 0)
(-0.0195153 -0.000806536 0)
(-0.0162521 -0.00084533 0)
(-0.0128794 -0.000869156 0)
(-0.00945179 -0.000876915 0)
(-0.00602679 -0.000868031 0)
(-0.00266284 -0.000842508 0)
(0.000582413 -0.000800973 0)
(0.00365406 -0.000744672 0)
(0.00650178 -0.00067543 0)
(0.00908162 -0.000595567 0)
(0.0113575 -0.000507783 0)
(0.0133023 -0.000415011 0)
(0.0148989 -0.000320253 0)
(0.0161401 -0.000226417 0)
(0.0170289 -0.000136141 0)
(0.0175774 -5.15047e-05 0)
(0.0178081 2.49869e-05 0)
(0.0177459 8.94152e-05 0)
(0.0174222 0.00014398 0)
(0.0168764 0.000189986 0)
(0.0161479 0.000226177 0)
(0.015275 0.000252225 0)
(0.014295 0.000268949 0)
(0.0132438 0.000277414 0)
(0.0121535 0.000278761 0)
(0.0110525 0.000274184 0)
(0.00996463 0.000264871 0)
(0.00890939 0.000251953 0)
(0.00790179 0.00023647 0)
(0.00695275 0.000219345 0)
(0.00606945 0.000201375 0)
(0.00525583 0.000183226 0)
(0.00451307 0.00016544 0)
(0.0038401 0.000148443 0)
(0.00323411 0.000132555 0)
(0.00269093 0.000117995 0)
(0.00220558 0.000104874 0)
(0.0017727 9.31789e-05 0)
(0.0013872 8.27376e-05 0)
(0.00104496 7.31832e-05 0)
(0.000743639 6.39205e-05 0)
(0.00048356 5.41184e-05 0)
(0.000268349 4.28052e-05 0)
(0.000105036 2.91313e-05 0)
(2.55343e-06 1.28628e-05 0)
(-3.4645e-05 -3.89839e-06 0)
(-1.34206e-05 -1.34388e-05 0)
(9.77757e-06 -1.19708e-05 0)
(0.000151338 -0.00015601 0)
(0.00047853 -0.000333657 0)
(0.000985757 -0.000483102 0)
(0.00162751 -0.000588803 0)
(0.00235678 -0.000647033 0)
(0.00312331 -0.00066042 0)
(0.00388098 -0.000635239 0)
(0.0045912 -0.000579926 0)
(0.0052249 -0.000503919 0)
(0.00576319 -0.000416692 0)
(0.00619713 -0.000326915 0)
(0.00652654 -0.000241788 0)
(0.00675829 -0.000166614 0)
(0.00690404 -0.00010459 0)
(0.00697799 -5.68219e-05 0)
(0.00699463 -2.25593e-05 0)
(0.00696675 4.22725e-07 0)
(0.00690386 1.56817e-05 0)
(0.00681113 2.74405e-05 0)
(0.00668894 4.00964e-05 0)
(0.0065326 5.79769e-05 0)
(0.00633292 8.43849e-05 0)
(0.00607742 0.000121858 0)
(0.00575091 0.000172122 0)
(0.00533651 0.000236148 0)
(0.00481642 0.000314362 0)
(0.00417244 0.000406883 0)
(0.00338633 0.000513733 0)
(0.00243988 0.00063496 0)
(0.00131504 0.000770672 0)
(-6.04153e-06 0.000920977 0)
(-0.00154076 0.00108588 0)
(-0.00330576 0.00126514 0)
(-0.00531642 0.00145819 0)
(-0.00758632 0.001664 0)
(-0.0101265 0.00188105 0)
(-0.012945 0.00210728 0)
(-0.0160457 0.00234007 0)
(-0.0194282 0.00257626 0)
(-0.0230869 0.00281218 0)
(-0.0270106 0.00304369 0)
(-0.0311823 0.00326628 0)
(-0.0355789 0.00347512 0)
(-0.0401709 0.00366524 0)
(-0.0449233 0.00383156 0)
(-0.0497952 0.00396907 0)
(-0.0547407 0.00407296 0)
(-0.0597098 0.00413869 0)
(-0.0646485 0.00416211 0)
(-0.0695002 0.00413959 0)
(-0.0742066 0.00406801 0)
(-0.0787082 0.00394492 0)
(-0.0829456 0.0037685 0)
(-0.0868604 0.00353764 0)
(-0.0903956 0.00325197 0)
(-0.093497 0.00291184 0)
(-0.0961131 0.00251843 0)
(-0.098197 0.00207372 0)
(-0.0997057 0.00158055 0)
(-0.100601 0.00104284 0)
(-0.100852 0.000466685 0)
(-0.100436 -0.000141717 0)
(-0.0993299 -0.000779597 0)
(-0.0975238 -0.00143798 0)
(-0.0950157 -0.00210761 0)
(-0.0918119 -0.00277849 0)
(-0.0879277 -0.00343987 0)
(-0.0833878 -0.00408021 0)
(-0.0782273 -0.00468738 0)
(-0.0724911 -0.00524891 0)
(-0.0662344 -0.00575229 0)
(-0.0595223 -0.00618539 0)
(-0.0524297 -0.00653683 0)
(-0.0450396 -0.00679652 0)
(-0.0374431 -0.0069561 0)
(-0.029737 -0.00700942 0)
(-0.0220227 -0.00695298 0)
(-0.0144038 -0.00678628 0)
(-0.00698386 -0.00651202 0)
(0.000136217 -0.00613624 0)
(0.00686064 -0.00566822 0)
(0.0131014 -0.00512021 0)
(0.0187809 -0.00450706 0)
(0.023834 -0.0038456 0)
(0.0282099 -0.003154 0)
(0.031874 -0.00245095 0)
(0.0348083 -0.00175487 0)
(0.0370119 -0.00108317 0)
(0.0384996 -0.000451784 0)
(0.0393033 0.000124086 0)
(0.0394714 0.000636974 0)
(0.0390608 0.00108092 0)
(0.0381378 0.00145049 0)
(0.0367769 0.00174382 0)
(0.0350562 0.00196259 0)
(0.033054 0.00211101 0)
(0.0308469 0.00219519 0)
(0.0285066 0.00222268 0)
(0.0260982 0.00220185 0)
(0.0236791 0.00214147 0)
(0.0212975 0.00205017 0)
(0.0189927 0.00193616 0)
(0.0167948 0.0018069 0)
(0.0147251 0.00166898 0)
(0.0127976 0.00152801 0)
(0.0110192 0.00138864 0)
(0.00939114 0.0012545 0)
(0.00791026 0.00112824 0)
(0.00657003 0.00101149 0)
(0.00536203 0.000904647 0)
(0.00427749 0.000806758 0)
(0.00330896 0.000715254 0)
(0.00245219 0.000625853 0)
(0.00170781 0.000532711 0)
(0.00108247 0.000429283 0)
(0.000588558 0.000310379 0)
(0.000240139 0.000176597 0)
(4.77968e-05 4.23452e-05 0)
(-2.79578e-06 -3.36676e-05 0)
(3.18674e-05 -0.000113598 0)
(0.000318306 -0.000478739 0)
(0.000851591 -0.000870472 0)
(0.00162054 -0.00119799 0)
(0.00255719 -0.00143012 0)
(0.00360177 -0.00155735 0)
(0.00468856 -0.00158373 0)
(0.00575644 -0.00152194 0)
(0.00675355 -0.00139002 0)
(0.00764001 -0.00120868 0)
(0.00838896 -0.000998997 0)
(0.00898636 -0.000780484 0)
(0.00942962 -0.000569531 0)
(0.00972534 -0.000378369 0)
(0.00988652 -0.000214525 0)
(0.00992949 -8.07697e-05 0)
(0.00987093 2.45523e-05 0)
(0.00972528 0.000106758 0)
(0.00950245 0.000173935 0)
(0.00920628 0.000235814 0)
(0.00883391 0.000302601 0)
(0.00837564 0.000383823 0)
(0.00781558 0.000487837 0)
(0.0071329 0.000621063 0)
(0.00630301 0.000787874 0)
(0.00529884 0.000990843 0)
(0.00409206 0.00123117 0)
(0.00265382 0.0015092 0)
(0.000955427 0.00182483 0)
(-0.00103126 0.00217774 0)
(-0.0033334 0.00256747 0)
(-0.0059767 0.00299319 0)
(-0.00898478 0.00345354 0)
(-0.0123783 0.00394626 0)
(-0.0161741 0.00446801 0)
(-0.0203839 0.00501412 0)
(-0.0250134 0.00557857 0)
(-0.0300612 0.00615392 0)
(-0.0355179 0.00673138 0)
(-0.0413652 0.00730097 0)
(-0.0475755 0.00785167 0)
(-0.0541121 0.00837173 0)
(-0.0609287 0.00884896 0)
(-0.0679707 0.00927107 0)
(-0.0751755 0.00962608 0)
(-0.0824742 0.0099026 0)
(-0.0897923 0.0100902 0)
(-0.0970521 0.0101799 0)
(-0.104174 0.0101639 0)
(-0.111076 0.0100362 0)
(-0.117682 0.00979253 0)
(-0.123912 0.00943047 0)
(-0.129695 0.00894923 0)
(-0.134962 0.00834972 0)
(-0.13965 0.00763444 0)
(-0.1437 0.00680736 0)
(-0.147062 0.00587384 0)
(-0.149691 0.00484058 0)
(-0.151549 0.00371554 0)
(-0.152605 0.00250795 0)
(-0.152833 0.00122792 0)
(-0.152214 -0.000113528 0)
(-0.150742 -0.00150197 0)
(-0.148411 -0.00292243 0)
(-0.145225 -0.00436053 0)
(-0.141195 -0.00579963 0)
(-0.13634 -0.00722129 0)
(-0.130689 -0.00860584 0)
(-0.124278 -0.00993262 0)
(-0.11715 -0.0111802 0)
(-0.10936 -0.0123268 0)
(-0.100971 -0.0133507 0)
(-0.0920551 -0.0142308 0)
(-0.0826923 -0.0149471 0)
(-0.0729719 -0.015482 0)
(-0.0629906 -0.0158204 0)
(-0.0528515 -0.0159507 0)
(-0.0426631 -0.0158657 0)
(-0.0325372 -0.0155631 0)
(-0.0225875 -0.0150459 0)
(-0.0129271 -0.0143226 0)
(-0.00366602 -0.0134077 0)
(0.00509085 -0.0123209 0)
(0.0132465 -0.0110868 0)
(0.0207141 -0.0097345 0)
(0.0274192 -0.00829615 0)
(0.0333018 -0.00680617 0)
(0.0383178 -0.00529985 0)
(0.0424403 -0.00381214 0)
(0.04566 -0.00237607 0)
(0.0479875 -0.00102079 0)
(0.049451 0.000227082 0)
(0.0500936 0.0013449 0)
(0.0499745 0.00231708 0)
(0.0491675 0.00313409 0)
(0.0477568 0.00379185 0)
(0.0458336 0.00429197 0)
(0.0434932 0.00464124 0)
(0.0408313 0.00485087 0)
(0.037941 0.00493551 0)
(0.0349092 0.00491213 0)
(0.0318147 0.00479898 0)
(0.028726 0.00461457 0)
(0.0257004 0.00437679 0)
(0.0227836 0.00410228 0)
(0.02001 0.00380591 0)
(0.0174031 0.00350048 0)
(0.0149772 0.00319656 0)
(0.0127386 0.00290228 0)
(0.0106871 0.00262311 0)
(0.00881839 0.00236158 0)
(0.00712585 0.00211684 0)
(0.00560326 0.00188435 0)
(0.00424703 0.00165579 0)
(0.00305851 0.00141966 0)
(0.00204529 0.00116326 0)
(0.00122101 0.000876884 0)
(0.000599628 0.000561726 0)
(0.0002029 0.000242711 0)
(1.68923e-05 1.16657e-05 0)
(4.95889e-05 -0.000292609 0)
(0.00045945 -0.000974065 0)
(0.00116868 -0.00163731 0)
(0.00215307 -0.00218058 0)
(0.00331947 -0.00256084 0)
(0.00459684 -0.00276381 0)
(0.00590829 -0.0027958 0)
(0.00718297 -0.00267735 0)
(0.00836085 -0.00243814 0)
(0.00939552 -0.00211256 0)
(0.0102552 -0.00173579 0)
(0.0109226 -0.00134053 0)
(0.0113927 -0.00095434 0)
(0.011671 -0.000597827 0)
(0.0117696 -0.000283709 0)
(0.0117041 -1.66164e-05 0)
(0.0114899 0.000206383 0)
(0.0111395 0.000394632 0)
(0.0106595 0.000562206 0)
(0.0100494 0.000726084 0)
(0.0093004 0.000904136 0)
(0.00839562 0.00111325 0)
(0.00731098 0.00136797 0)
(0.00601657 0.00167952 0)
(0.00447826 0.00205562 0)
(0.00265932 0.00250078 0)
(0.000521896 0.00301699 0)
(-0.00197182 0.00360452 0)
(-0.00485862 0.00426246 0)
(-0.00817338 0.00498909 0)
(-0.0119481 0.00578182 0)
(-0.016211 0.00663691 0)
(-0.0209847 0.00754898 0)
(-0.0262855 0.00851061 0)
(-0.0321213 0.00951195 0)
(-0.0384906 0.0105406 0)
(-0.0453806 0.0115816 0)
(-0.0527671 0.0126175 0)
(-0.0606129 0.0136288 0)
(-0.0688687 0.0145946 0)
(-0.0774731 0.015493 0)
(-0.0863535 0.0163017 0)
(-0.0954284 0.0169994 0)
(-0.104609 0.0175655 0)
(-0.113801 0.017982 0)
(-0.122907 0.0182332 0)
(-0.131833 0.0183062 0)
(-0.140483 0.0181919 0)
(-0.148768 0.0178841 0)
(-0.156603 0.0173802 0)
(-0.16391 0.0166805 0)
(-0.170621 0.0157883 0)
(-0.176674 0.0147093 0)
(-0.182014 0.0134513 0)
(-0.186597 0.012024 0)
(-0.190383 0.0104384 0)
(-0.193341 0.00870709 0)
(-0.195447 0.00684358 0)
(-0.196681 0.00486251 0)
(-0.19703 0.00277955 0)
(-0.196486 0.000611434 0)
(-0.195045 -0.00162434 0)
(-0.192707 -0.00390952 0)
(-0.189481 -0.00622209 0)
(-0.185376 -0.00853997 0)
(-0.180409 -0.0108397 0)
(-0.174601 -0.0130962 0)
(-0.167979 -0.0152825 0)
(-0.160579 -0.0173703 0)
(-0.15244 -0.0193301 0)
(-0.143612 -0.0211317 0)
(-0.134151 -0.0227448 0)
(-0.124121 -0.0241396 0)
(-0.113596 -0.0252876 0)
(-0.102658 -0.0261628 0)
(-0.0913963 -0.0267429 0)
(-0.0799079 -0.0270097 0)
(-0.0682967 -0.026951 0)
(-0.0566715 -0.026561 0)
(-0.0451446 -0.025841 0)
(-0.0338298 -0.0248003 0)
(-0.0228404 -0.0234563 0)
(-0.0122869 -0.0218339 0)
(-0.00227456 -0.0199656 0)
(0.00709869 -0.0178905 0)
(0.0157445 -0.0156527 0)
(0.0235859 -0.0133006 0)
(0.0305591 -0.0108851 0)
(0.036615 -0.00845773 0)
(0.0417205 -0.00606909 0)
(0.0458591 -0.00376727 0)
(0.049031 -0.0015974 0)
(0.0512539 0.000401236 0)
(0.0525639 0.002197 0)
(0.0530129 0.00376567 0)
(0.0526679 0.00509101 0)
(0.0516092 0.00616545 0)
(0.0499279 0.00699009 0)
(0.0477222 0.00757407 0)
(0.0450943 0.00793363 0)
(0.0421462 0.00809075 0)
(0.0389764 0.00807161 0)
(0.0356765 0.00790485 0)
(0.0323283 0.00762002 0)
(0.0290025 0.00724605 0)
(0.025757 0.00681011 0)
(0.0226373 0.00633662 0)
(0.0196767 0.00584656 0)
(0.0168972 0.00535689 0)
(0.0143119 0.00487995 0)
(0.0119264 0.00442282 0)
(0.00974175 0.0039867 0)
(0.00775699 0.00356637 0)
(0.00597212 0.00315026 0)
(0.00439073 0.00272153 0)
(0.00302198 0.00226118 0)
(0.0018813 0.00175404 0)
(0.000984381 0.00119936 0)
(0.000372031 0.000625981 0)
(3.83739e-05 0.00013735 0)
(6.29311e-05 -0.000532515 0)
(0.000570008 -0.00160549 0)
(0.00142147 -0.00257974 0)
(0.00257752 -0.00335547 0)
(0.00391937 -0.00388529 0)
(0.00536364 -0.00415426 0)
(0.00682327 -0.00417346 0)
(0.00821993 -0.00397311 0)
(0.00948827 -0.00359611 0)
(0.0105783 -0.00309185 0)
(0.0114558 -0.00251074 0)
(0.0121018 -0.0018994 0)
(0.0125101 -0.001297 0)
(0.0126845 -0.000732638 0)
(0.0126355 -0.000223945 0)
(0.0123757 0.000223168 0)
(0.011917 0.000613754 0)
(0.0112668 0.000962213 0)
(0.0104255 0.00128987 0)
(0.00938504 0.00162216 0)
(0.00812809 0.00198569 0)
(0.00662849 0.00240545 0)
(0.00485246 0.00290276 0)
(0.00276039 0.00349388 0)
(0.000308852 0.00418977 0)
(-0.00254742 0.00499645 0)
(-0.00585371 0.00591592 0)
(-0.00965373 0.00694716 0)
(-0.0139881 0.00808683 0)
(-0.0188929 0.00932952 0)
(-0.0243979 0.0106676 0)
(-0.0305248 0.0120908 0)
(-0.0372852 0.0135854 0)
(-0.0446788 0.0151341 0)
(-0.0526917 0.0167153 0)
(-0.0612948 0.0183039 0)
(-0.0704437 0.0198709 0)
(-0.0800781 0.0213848 0)
(-0.0901231 0.0228124 0)
(-0.100491 0.0241198 0)
(-0.111082 0.025274 0)
(-0.121791 0.0262439 0)
(-0.132508 0.0270019 0)
(-0.143121 0.0275245 0)
(-0.153523 0.0277933 0)
(-0.163609 0.0277952 0)
(-0.173286 0.0275225 0)
(-0.182466 0.0269727 0)
(-0.191075 0.0261479 0)
(-0.199048 0.0250546 0)
(-0.206329 0.0237023 0)
(-0.212873 0.0221035 0)
(-0.218645 0.0202725 0)
(-0.223614 0.0182254 0)
(-0.227759 0.015979 0)
(-0.231064 0.0135508 0)
(-0.233516 0.010959 0)
(-0.235106 0.0082221 0)
(-0.235829 0.0053589 0)
(-0.235682 0.00238883 0)
(-0.234663 -0.000667753 0)
(-0.232774 -0.00378946 0)
(-0.230019 -0.00695458 0)
(-0.226402 -0.010139 0)
(-0.22193 -0.0133166 0)
(-0.216616 -0.0164595 0)
(-0.210473 -0.0195378 0)
(-0.20352 -0.0225193 0)
(-0.195781 -0.0253697 0)
(-0.187286 -0.0280527 0)
(-0.178072 -0.0305308 0)
(-0.168185 -0.0327656 0)
(-0.157676 -0.0347189 0)
(-0.146608 -0.0363535 0)
(-0.135053 -0.0376348 0)
(-0.12309 -0.0385319 0)
(-0.11081 -0.0390191 0)
(-0.0983099 -0.0390773 0)
(-0.0856948 -0.0386954 0)
(-0.0730748 -0.0378713 0)
(-0.0605638 -0.0366127 0)
(-0.0482768 -0.0349375 0)
(-0.0363279 -0.0328738 0)
(-0.0248278 -0.0304593 0)
(-0.0138814 -0.0277404 0)
(-0.00358573 -0.0247707 0)
(0.00597207 -0.0216099 0)
(0.014716 -0.0183214 0)
(0.0225826 -0.0149706 0)
(0.0295219 -0.0116234 0)
(0.0354979 -0.00834394 0)
(0.0404894 -0.00519313 0)
(0.0444905 -0.00222598 0)
(0.0475113 0.000508426 0)
(0.0495778 0.00296891 0)
(0.0507316 0.00512373 0)
(0.0510301 0.00695141 0)
(0.0505451 0.00844132 0)
(0.0493606 0.00959378 0)
(0.0475708 0.0104197 0)
(0.0452763 0.0109396 0)
(0.0425807 0.0111819 0)
(0.0395866 0.0111811 0)
(0.0363919 0.0109757 0)
(0.0330863 0.0106056 0)
(0.0297493 0.0101104 0)
(0.0264479 0.00952756 0)
(0.0232366 0.00889045 0)
(0.020157 0.00822747 0)
(0.0172394 0.00756061 0)
(0.0145041 0.00690436 0)
(0.011964 0.00626459 0)
(0.00962754 0.00563784 0)
(0.00750156 0.00501132 0)
(0.00559458 0.00436432 0)
(0.00391958 0.00367202 0)
(0.00249626 0.00291247 0)
(0.00134532 0.00207814 0)
(0.000530638 0.00119123 0)
(5.81705e-05 0.000344664 0)
(7.28385e-05 -0.000819114 0)
(0.000654849 -0.00234579 0)
(0.00161765 -0.00366464 0)
(0.00290564 -0.00468329 0)
(0.00437532 -0.00535611 0)
(0.00592983 -0.00567234 0)
(0.00747184 -0.00565152 0)
(0.00891647 -0.00533646 0)
(0.0101947 -0.00478542 0)
(0.0112548 -0.00406435 0)
(0.0120623 -0.00323972 0)
(0.012598 -0.00237239 0)
(0.0128554 -0.00151283 0)
(0.0128372 -0.000697915 0)
(0.012551 5.08625e-05 0)
(0.0120055 0.000727617 0)
(0.0112066 0.001341 0)
(0.0101542 0.0019119 0)
(0.00883965 0.00247019 0)
(0.00724463 0.00305083 0)
(0.00534094 0.00368982 0)
(0.00309144 0.00442048 0)
(0.000451858 0.00527064 0)
(-0.00262686 0.00626095 0)
(-0.00619606 0.00740444 0)
(-0.0103069 0.00870713 0)
(-0.0150083 0.0101691 0)
(-0.0203443 0.0117855 0)
(-0.0263524 0.0135474 0)
(-0.0330612 0.0154419 0)
(-0.0404876 0.0174517 0)
(-0.048635 0.0195546 0)
(-0.0574906 0.0217229 0)
(-0.0670237 0.0239235 0)
(-0.0771849 0.0261182 0)
(-0.087906 0.0282641 0)
(-0.0991012 0.0303157 0)
(-0.110669 0.0322261 0)
(-0.122497 0.0339489 0)
(-0.134463 0.0354409 0)
(-0.146444 0.036663 0)
(-0.158315 0.0375827 0)
(-0.169958 0.0381744 0)
(-0.181265 0.0384203 0)
(-0.192138 0.0383106 0)
(-0.202491 0.0378426 0)
(-0.212253 0.0370204 0)
(-0.221365 0.0358533 0)
(-0.229781 0.0343552 0)
(-0.237465 0.0325434 0)
(-0.24439 0.0304371 0)
(-0.250538 0.0280572 0)
(-0.255895 0.0254248 0)
(-0.260452 0.0225615 0)
(-0.264204 0.0194885 0)
(-0.267147 0.0162267 0)
(-0.26928 0.0127963 0)
(-0.270599 0.00921764 0)
(-0.271103 0.00551066 0)
(-0.27079 0.00169572 0)
(-0.269659 -0.00220626 0)
(-0.267706 -0.00617341 0)
(-0.264931 -0.010182 0)
(-0.261331 -0.0142067 0)
(-0.256907 -0.0182197 0)
(-0.25166 -0.0221906 0)
(-0.245594 -0.0260858 0)
(-0.238717 -0.0298688 0)
(-0.231039 -0.0335001 0)
(-0.222579 -0.0369372 0)
(-0.21336 -0.0401353 0)
(-0.203413 -0.0430477 0)
(-0.192779 -0.0456274 0)
(-0.181506 -0.0478275 0)
(-0.169656 -0.0496034 0)
(-0.157299 -0.0509143 0)
(-0.144516 -0.0517248 0)
(-0.1314 -0.0520072 0)
(-0.118052 -0.0517429 0)
(-0.104581 -0.050924 0)
(-0.0911032 -0.0495548 0)
(-0.0777371 -0.047652 0)
(-0.0646029 -0.0452453 0)
(-0.0518182 -0.0423763 0)
(-0.0394963 -0.0390979 0)
(-0.0277428 -0.0354724 0)
(-0.0166538 -0.0315696 0)
(-0.00631445 -0.0274645 0)
(0.00320251 -0.0232352 0)
(0.011837 -0.0189604 0)
(0.019542 -0.0147177 0)
(0.0262833 -0.0105816 0)
(0.0320398 -0.00662184 0)
(0.0368035 -0.00290193 0)
(0.0405799 0.000522062 0)
(0.0433881 0.00360319 0)
(0.0452618 0.00630486 0)
(0.046249 0.008602 0)
(0.0464118 0.0104819 0)
(0.0458257 0.0119448 0)
(0.0445774 0.0130033 0)
(0.0427623 0.0136817 0)
(0.040481 0.0140143 0)
(0.0378356 0.014043 0)
(0.0349254 0.013815 0)
(0.0318439 0.0133796 0)
(0.0286754 0.0127859 0)
(0.025493 0.01208 0)
(0.0223576 0.0113027 0)
(0.0193179 0.0104877 0)
(0.0164112 0.00965921 0)
(0.0136655 0.00883031 0)
(0.0111014 0.00800195 0)
(0.00873576 0.00716243 0)
(0.00658514 0.00628889 0)
(0.00466924 0.00535116 0)
(0.00301495 0.00431892 0)
(0.0016509 0.00317293 0)
(0.000664529 0.00191934 0)
(7.47324e-05 0.000624084 0)
(8.05415e-05 -0.00114152 0)
(0.000720918 -0.0031705 0)
(0.00176905 -0.00485864 0)
(0.00315366 -0.00612272 0)
(0.0047078 -0.00692353 0)
(0.00632053 -0.00725942 0)
(0.00788425 -0.00716281 0)
(0.00930816 -0.0066927 0)
(0.0105208 -0.00592547 0)
(0.0114704 -0.00494533 0)
(0.0121235 -0.00383555 0)
(0.0124622 -0.00267101 0)
(0.0124804 -0.0015126 0)
(0.0121797 -0.000403448 0)
(0.0115643 0.000632943 0)
(0.0106374 0.00159274 0)
(0.00939704 0.00249016 0)
(0.00783304 0.00335436 0)
(0.00592531 0.00422507 0)
(0.00364312 0.00514752 0)
(0.000945817 0.00616716 0)
(-0.00221536 0.00732495 0)
(-0.00589465 0.0086539 0)
(-0.0101487 0.010177 0)
(-0.0150333 0.011907 0)
(-0.0206008 0.0138469 0)
(-0.0268967 0.0159912 0)
(-0.0339575 0.0183272 0)
(-0.0418074 0.0208355 0)
(-0.0504554 0.0234899 0)
(-0.0598928 0.0262574 0)
(-0.0700909 0.0290977 0)
(-0.0809991 0.0319633 0)
(-0.0925449 0.0348005 0)
(-0.104635 0.0375512 0)
(-0.117158 0.0401543 0)
(-0.129988 0.0425492 0)
(-0.142991 0.0446782 0)
(-0.15603 0.0464893 0)
(-0.168969 0.0479385 0)
(-0.181682 0.0489912 0)
(-0.194052 0.0496235 0)
(-0.205979 0.0498218 0)
(-0.217379 0.0495823 0)
(-0.228182 0.0489099 0)
(-0.238337 0.0478167 0)
(-0.247802 0.0463204 0)
(-0.256552 0.0444428 0)
(-0.264567 0.0422079 0)
(-0.271838 0.0396414 0)
(-0.278358 0.036769 0)
(-0.284126 0.033616 0)
(-0.289143 0.0302072 0)
(-0.29341 0.0265657 0)
(-0.296927 0.0227136 0)
(-0.299696 0.0186721 0)
(-0.301716 0.014461 0)
(-0.302986 0.0100998 0)
(-0.303502 0.00560765 0)
(-0.303261 0.00100401 0)
(-0.302257 -0.00369097 0)
(-0.300482 -0.00845593 0)
(-0.29793 -0.0132675 0)
(-0.294592 -0.0180998 0)
(-0.29046 -0.0229244 0)
(-0.285528 -0.027709 0)
(-0.279788 -0.0324179 0)
(-0.273237 -0.0370111 0)
(-0.265874 -0.0414446 0)
(-0.257704 -0.0456704 0)
(-0.248735 -0.0496368 0)
(-0.238985 -0.0532892 0)
(-0.228479 -0.0565711 0)
(-0.21725 -0.0594255 0)
(-0.205346 -0.0617966 0)
(-0.192824 -0.0636318 0)
(-0.179755 -0.064884 0)
(-0.166224 -0.0655141 0)
(-0.152326 -0.0654932 0)
(-0.138169 -0.0648047 0)
(-0.123871 -0.0634465 0)
(-0.109557 -0.0614317 0)
(-0.0953546 -0.058789 0)
(-0.0813932 -0.055563 0)
(-0.0677987 -0.0518121 0)
(-0.0546899 -0.0476071 0)
(-0.0421761 -0.0430286 0)
(-0.0303542 -0.0381638 0)
(-0.0193074 -0.0331039 0)
(-0.00910454 -0.027941 0)
(0.000199721 -0.0227657 0)
(0.00856434 -0.0176652 0)
(0.0159608 -0.0127215 0)
(0.0223724 -0.00801029 0)
(0.0277935 -0.00359967 0)
(0.0322294 0.000450754 0)
(0.0356966 0.00409118 0)
(0.0382239 0.00728286 0)
(0.0398526 0.00999938 0)
(0.040637 0.0122277 0)
(0.0406444 0.0139688 0)
(0.0399539 0.0152378 0)
(0.0386543 0.0160627 0)
(0.0368409 0.0164831 0)
(0.0346126 0.0165478 0)
(0.0320673 0.0163111 0)
(0.0292989 0.0158305 0)
(0.0263936 0.0151626 0)
(0.0234278 0.01436 0)
(0.0204668 0.013468 0)
(0.0175647 0.0125219 0)
(0.014765 0.0115441 0)
(0.0121026 0.0105419 0)
(0.00960665 0.00950691 0)
(0.00730423 0.00841574 0)
(0.00522451 0.00723342 0)
(0.003404 0.00591998 0)
(0.00188133 0.00444061 0)
(0.000765325 0.00277832 0)
(8.70978e-05 0.000961043 0)
(8.69309e-05 -0.00149248 0)
(0.000773847 -0.00406057 0)
(0.00188553 -0.00613286 0)
(0.00333473 -0.00763598 0)
(0.00493209 -0.00854096 0)
(0.00655263 -0.0088601 0)
(0.00807899 -0.00864358 0)
(0.00941536 -0.00797078 0)
(0.0104891 -0.00693929 0)
(0.0112499 -0.00565339 0)
(0.0116667 -0.00421369 0)
(0.0117238 -0.0027085 0)
(0.0114159 -0.00120754 0)
(0.0107428 0.000242007 0)
(0.00970481 0.00161719 0)
(0.00829772 0.00291887 0)
(0.00650964 0.0041692 0)
(0.00431837 0.00540748 0)
(0.00169035 0.00668439 0)
(-0.00141883 0.00805554 0)
(-0.00506253 0.00957492 0)
(-0.0093001 0.0112892 0)
(-0.0141931 0.0132337 0)
(-0.0198015 0.0154305 0)
(-0.0261798 0.0178875 0)
(-0.0333733 0.0206001 0)
(-0.0414152 0.0235522 0)
(-0.0503226 0.0267171 0)
(-0.0600939 0.0300583 0)
(-0.0707056 0.03353 0)
(-0.0821102 0.037077 0)
(-0.0942351 0.0406354 0)
(-0.106984 0.0441346 0)
(-0.120238 0.0474997 0)
(-0.133863 0.0506545 0)
(-0.147713 0.0535253 0)
(-0.161638 0.0560449 0)
(-0.175491 0.0581552 0)
(-0.189134 0.0598102 0)
(-0.202444 0.0609769 0)
(-0.215314 0.0616357 0)
(-0.227659 0.0617798 0)
(-0.239409 0.0614135 0)
(-0.250514 0.0605502 0)
(-0.26094 0.0592105 0)
(-0.270665 0.05742 0)
(-0.279677 0.0552075 0)
(-0.287971 0.052603 0)
(-0.295547 0.049637 0)
(-0.302411 0.0463391 0)
(-0.308567 0.0427376 0)
(-0.314021 0.038859 0)
(-0.318779 0.0347281 0)
(-0.322845 0.0303676 0)
(-0.326224 0.0257984 0)
(-0.328917 0.0210402 0)
(-0.330923 0.0161114 0)
(-0.332242 0.0110297 0)
(-0.33287 0.00581248 0)
(-0.332801 0.000477602 0)
(-0.332027 -0.00495626 0)
(-0.33054 -0.0104691 0)
(-0.328329 -0.0160387 0)
(-0.325381 -0.02164 0)
(-0.321683 -0.0272447 0)
(-0.317221 -0.0328203 0)
(-0.311978 -0.0383301 0)
(-0.305943 -0.0437322 0)
(-0.299101 -0.0489796 0)
(-0.291444 -0.0540199 0)
(-0.282964 -0.0587959 0)
(-0.273661 -0.0632458 0)
(-0.263542 -0.0673041 0)
(-0.252624 -0.0709034 0)
(-0.240933 -0.0739761 0)
(-0.228509 -0.0764562 0)
(-0.215407 -0.0782826 0)
(-0.201696 -0.0794019 0)
(-0.187464 -0.079771 0)
(-0.172811 -0.0793607 0)
(-0.157855 -0.0781579 0)
(-0.142724 -0.0761679 0)
(-0.127557 -0.073415 0)
(-0.112495 -0.0699433 0)
(-0.0976826 -0.0658153 0)
(-0.0832586 -0.0611095 0)
(-0.0693529 -0.0559179 0)
(-0.0560823 -0.0503417 0)
(-0.0435475 -0.0444874 0)
(-0.0318318 -0.0384632 0)
(-0.0210006 -0.0323751 0)
(-0.0111021 -0.0263246 0)
(-0.00216928 -0.0204063 0)
(0.00577802 -0.0147073 0)
(0.0127311 -0.00930591 0)
(0.0186907 -0.00427158 0)
(0.0236665 0.000335874 0)
(0.0276768 0.00446698 0)
(0.0307491 0.00808373 0)
(0.0329216 0.0111608 0)
(0.0342436 0.0136868 0)
(0.0347763 0.0156651 0)
(0.0345923 0.0171139 0)
(0.0337738 0.0180655 0)
(0.0324109 0.0185648 0)
(0.0305978 0.0186661 0)
(0.0284295 0.0184304 0)
(0.0259982 0.0179208 0)
(0.0233899 0.0171993 0)
(0.0206824 0.0163215 0)
(0.0179438 0.0153335 0)
(0.0152321 0.0142674 0)
(0.0125966 0.0131382 0)
(0.0100797 0.0119425 0)
(0.00772054 0.0106574 0)
(0.00555976 0.00924388 0)
(0.003645 0.00765166 0)
(0.00202585 0.00582805 0)
(0.000828605 0.00372884 0)
(9.4781e-05 0.00133807 0)
(9.25303e-05 -0.00186722 0)
(0.000816949 -0.00500075 0)
(0.0019727 -0.00746146 0)
(0.00345573 -0.00918698 0)
(0.00505512 -0.0101625 0)
(0.00663243 -0.0104193 0)
(0.0080617 -0.0100306 0)
(0.00924358 -0.00910069 0)
(0.0101059 -0.00775149 0)
(0.010601 -0.00610914 0)
(0.0107016 -0.00429175 0)
(0.0103945 -0.00239986 0)
(0.00967491 -0.000509841 0)
(0.00854049 0.00132997 0)
(0.00698563 0.00310037 0)
(0.00499721 0.00480991 0)
(0.0025514 0.00649124 0)
(-0.000387766 0.00819535 0)
(-0.00386825 0.00998433 0)
(-0.00794797 0.0119232 0)
(-0.0126914 0.0140722 0)
(-0.018165 0.0164801 0)
(-0.0244325 0.0191802 0)
(-0.0315501 0.0221878 0)
(-0.0395621 0.0255006 0)
(-0.0484964 0.0290999 0)
(-0.0583616 0.0329516 0)
(-0.0691431 0.0370084 0)
(-0.0808005 0.0412098 0)
(-0.093266 0.0454842 0)
(-0.106445 0.04975 0)
(-0.120216 0.0539188 0)
(-0.134439 0.0578985 0)
(-0.148958 0.0615983 0)
(-0.163612 0.0649333 0)
(-0.178242 0.0678286 0)
(-0.192696 0.0702232 0)
(-0.206841 0.0720716 0)
(-0.22056 0.073345 0)
(-0.233762 0.0740303 0)
(-0.246375 0.0741287 0)
(-0.258346 0.073653 0)
(-0.269643 0.0726253 0)
(-0.280245 0.071074 0)
(-0.290144 0.0690317 0)
(-0.299338 0.0665328 0)
(-0.307833 0.0636125 0)
(-0.315636 0.060305 0)
(-0.322757 0.056643 0)
(-0.329207 0.0526572 0)
(-0.334995 0.048376 0)
(-0.340132 0.0438253 0)
(-0.344626 0.0390287 0)
(-0.348484 0.0340076 0)
(-0.351712 0.0287814 0)
(-0.354316 0.0233681 0)
(-0.356297 0.0177842 0)
(-0.357656 0.0120455 0)
(-0.358391 0.00616745 0)
(-0.3585 0.000165649 0)
(-0.357975 -0.00594333 0)
(-0.356809 -0.0121417 0)
(-0.354989 -0.0184094 0)
(-0.352501 -0.0247234 0)
(-0.349329 -0.0310571 0)
(-0.345452 -0.0373797 0)
(-0.340849 -0.0436551 0)
(-0.335497 -0.0498417 0)
(-0.329372 -0.0558914 0)
(-0.322449 -0.06175 0)
(-0.314707 -0.0673564 0)
(-0.306125 -0.0726435 0)
(-0.29669 -0.0775385 0)
(-0.286395 -0.0819644 0)
(-0.275242 -0.0858416 0)
(-0.263249 -0.0890904 0)
(-0.250444 -0.0916338 0)
(-0.236877 -0.0934009 0)
(-0.222614 -0.094331 0)
(-0.207744 -0.0943767 0)
(-0.192374 -0.0935085 0)
(-0.17663 -0.0917174 0)
(-0.160657 -0.0890174 0)
(-0.14461 -0.0854465 0)
(-0.128651 -0.0810666 0)
(-0.112944 -0.0759612 0)
(-0.0976481 -0.0702326 0)
(-0.0829093 -0.0639969 0)
(-0.0688577 -0.0573789 0)
(-0.0556022 -0.0505067 0)
(-0.0432291 -0.0435066 0)
(-0.0318016 -0.0364989 0)
(-0.0213618 -0.029595 0)
(-0.0119335 -0.0228957 0)
(-0.00352548 -0.0164904 0)
(0.00386462 -0.0104576 0)
(0.0102478 -0.00486481 0)
(0.0156417 0.000231065 0)
(0.0200703 0.00478394 0)
(0.0235643 0.00875937 0)
(0.0261621 0.0121357 0)
(0.0279113 0.0149052 0)
(0.0288695 0.0170754 0)
(0.0291047 0.0186687 0)
(0.0286943 0.0197223 0)
(0.0277232 0.020286 0)
(0.0262812 0.0204195 0)
(0.0244595 0.0201882 0)
(0.0223478 0.0196594 0)
(0.020031 0.0188963 0)
(0.017587 0.017954 0)
(0.0150858 0.0168736 0)
(0.0125893 0.015678 0)
(0.0101529 0.0143689 0)
(0.00782857 0.0129253 0)
(0.00566882 0.0113043 0)
(0.00373299 0.00944544 0)
(0.00208153 0.00727762 0)
(0.000853274 0.00472827 0)
(9.76878e-05 0.00173642 0)
(9.75115e-05 -0.00226214 0)
(0.000851132 -0.00597738 0)
(0.0020315 -0.00881937 0)
(0.00351663 -0.0107393 0)
(0.00507492 -0.0117411 0)
(0.00655571 -0.0118807 0)
(0.00782623 -0.0112598 0)
(0.0087856 -0.0100123 0)
(0.0093639 -0.00828757 0)
(0.00951783 -0.00623493 0)
(0.00922415 -0.00398952 0)
(0.00847247 -0.00166226 0)
(0.00725788 0.000666804 0)
(0.00557415 0.00295165 0)
(0.00340817 0.00518038 0)
(0.000735842 0.00737238 0)
(-0.00248009 0.00957298 0)
(-0.00629018 0.0118458 0)
(-0.0107563 0.0142634 0)
(-0.0159476 0.0168978 0)
(-0.0219356 0.0198114 0)
(-0.0287878 0.0230495 0)
(-0.036562 0.0266367 0)
(-0.0453008 0.0305749 0)
(-0.0550267 0.0348438 0)
(-0.0657384 0.0394027 0)
(-0.0774073 0.0441928 0)
(-0.0899752 0.0491386 0)
(-0.103354 0.054151 0)
(-0.117425 0.0591299 0)
(-0.132047 0.0639686 0)
(-0.147058 0.0685586 0)
(-0.162287 0.0727954 0)
(-0.17756 0.0765845 0)
(-0.192713 0.0798457 0)
(-0.207596 0.082517 0)
(-0.222082 0.0845558 0)
(-0.236066 0.0859387 0)
(-0.249468 0.0866603 0)
(-0.26223 0.0867299 0)
(-0.274316 0.0861687 0)
(-0.285704 0.0850064 0)
(-0.296385 0.0832783 0)
(-0.306359 0.0810228 0)
(-0.315633 0.0782795 0)
(-0.324216 0.0750874 0)
(-0.332121 0.0714844 0)
(-0.339364 0.0675062 0)
(-0.345957 0.0631859 0)
(-0.351916 0.0585542 0)
(-0.357256 0.0536389 0)
(-0.36199 0.0484652 0)
(-0.366132 0.0430557 0)
(-0.369694 0.0374305 0)
(-0.372686 0.0316077 0)
(-0.375119 0.0256035 0)
(-0.376999 0.0194327 0)
(-0.378333 0.0131088 0)