/*--------------------------------*- C++ -*----------------------------------*\
| =========                 |                                                 |
| \\      /  F ield         | OpenFOAM: The Open Source CFD Toolbox           |
|  \\    /   O peration     | Version:  2406                                  |
|   \\  /    A nd           | Website:  www.openfoam.com                      |
|    \\/     M anipulation  |                                                 |
\*---------------------------------------------------------------------------*/
FoamFile
{
    version     2.0;
    format      ascii;
    arch        "LSB;label=32;scalar=64";
    class       surfaceScalarField;
    location    "15.4";
    object      phi;
}
// * * * * * * * * * * * * * * * * * * * * * * * * * * * * * * * * * * * * * //

dimensions      [0 3 -1 0 0 0 0];

oriented        oriented;

internalField   nonuniform List<scalar> 
28560
(
8.36617e-09
-8.36339e-09
2.14682e-08
-1.31022e-08
3.23175e-08
-1.08491e-08
3.67997e-08
-4.48192e-09
3.34873e-08
3.31245e-09
2.25357e-08
1.09516e-08
4.73653e-09
1.77992e-08
-1.87903e-08
2.35268e-08
-4.69067e-08
2.81164e-08
-7.86093e-08
3.17027e-08
-1.13101e-07
3.44918e-08
-1.4981e-07
3.67093e-08
-1.88379e-07
3.85684e-08
-2.28632e-07
4.02527e-08
-2.7054e-07
4.19086e-08
-3.14185e-07
4.36444e-08
-3.59718e-07
4.55333e-08
-4.07337e-07
4.76187e-08
-4.57257e-07
4.992e-08
-5.09696e-07
5.24394e-08
-5.64863e-07
5.5167e-08
-6.22949e-07
5.80856e-08
-6.84123e-07
6.11743e-08
-7.48534e-07
6.44111e-08
-8.16309e-07
6.77745e-08
-8.87553e-07
7.12448e-08
-9.62357e-07
7.48039e-08
-1.04079e-06
7.84356e-08
-1.12292e-06
8.21247e-08
-1.20877e-06
8.58567e-08
-1.29839e-06
8.96166e-08
-1.39178e-06
9.3388e-08
-1.48893e-06
9.71526e-08
-1.58982e-06
1.00889e-07
-1.69439e-06
1.0457e-07
-1.80256e-06
1.08166e-07
-1.9142e-06
1.1164e-07
-2.02915e-06
1.1495e-07
-2.14719e-06
1.18043e-07
-2.26805e-06
1.20865e-07
-2.3914e-06
1.23347e-07
-2.51682e-06
1.25419e-07
-2.64382e-06
1.26997e-07
-2.77181e-06
1.27995e-07
-2.90013e-06
1.28315e-07
-3.02799e-06
1.27858e-07
-3.1545e-06
1.26518e-07
-3.27869e-06
1.24185e-07
-3.39944e-06
1.20751e-07
-3.51555e-06
1.16107e-07
-3.6257e-06
1.1015e-07
-3.72848e-06
1.02786e-07
-3.82241e-06
9.39292e-08
-3.90593e-06
8.35134e-08
-3.97742e-06
7.14902e-08
-4.03525e-06
5.78361e-08
-4.07781e-06
4.25555e-08
-4.10352e-06
2.57077e-08
-4.11086e-06
7.34271e-09
-4.09833e-06
-1.25263e-08
-4.0648e-06
-3.353e-08
-4.00918e-06
-5.56248e-08
-3.93063e-06
-7.85441e-08
-3.82862e-06
-1.02011e-07
-3.70291e-06
-1.25712e-07
-3.55361e-06
-1.49304e-07
-3.38119e-06
-1.72418e-07
-3.18652e-06
-1.94668e-07
-2.97086e-06
-2.15662e-07
-2.73585e-06
-2.35007e-07
-2.48352e-06
-2.52329e-07
-2.21624e-06
-2.67276e-07
-1.93671e-06
-2.79535e-07
-1.64787e-06
-2.88841e-07
-1.35288e-06
-2.94987e-07
-1.05505e-06
-2.97833e-07
-7.57738e-07
-2.9731e-07
-4.64312e-07
-2.93426e-07
-1.78047e-07
-2.86265e-07
9.79403e-08
-2.75987e-07
3.60761e-07
-2.62821e-07
6.07818e-07
-2.47057e-07
8.36859e-07
-2.29041e-07
1.04602e-06
-2.09156e-07
1.23383e-06
-1.87815e-07
1.39927e-06
-1.65443e-07
1.54174e-06
-1.42467e-07
1.66104e-06
-1.19301e-07
1.75737e-06
-9.63316e-08
1.83129e-06
-7.39147e-08
1.88365e-06
-5.23632e-08
1.91559e-06
-3.19424e-08
1.92849e-06
-1.28976e-08
1.92381e-06
4.6792e-09
1.90297e-06
2.08387e-08
1.86789e-06
3.50809e-08
1.82016e-06
4.77297e-08
1.7614e-06
5.87585e-08
1.69319e-06
6.82161e-08
1.61699e-06
7.61942e-08
1.53419e-06
8.28059e-08
1.44601e-06
8.81805e-08
1.35355e-06
9.24554e-08
1.25778e-06
9.57695e-08
1.15953e-06
9.82562e-08
1.05949e-06
1.00036e-07
9.58283e-07
1.01207e-07
8.56445e-07
1.01839e-07
7.5449e-07
1.01954e-07
6.5297e-07
1.01521e-07
5.52542e-07
1.00428e-07
4.54078e-07
9.84642e-08
3.58785e-07
9.5293e-08
2.68365e-07
9.04199e-08
1.85195e-07
8.31703e-08
1.1248e-07
7.27149e-08
5.42936e-08
5.81862e-08
1.51669e-08
3.91267e-08
-1.24482e-09
1.64117e-08
-1.24482e-09
1.32988e-08
-2.16623e-08
3.23189e-08
-3.21218e-08
4.22963e-08
-2.08262e-08
3.61003e-08
1.71425e-09
1.08244e-08
2.85885e-08
-3.34944e-08
5.52705e-08
-9.51411e-08
7.94459e-08
-1.71695e-07
1.00081e-07
-2.60595e-07
1.17016e-07
-3.59496e-07
1.30604e-07
-4.6647e-07
1.41466e-07
-5.80073e-07
1.50312e-07
-6.99341e-07
1.57837e-07
-8.23744e-07
1.64655e-07
-9.53105e-07
1.71269e-07
-1.08752e-06
1.78058e-07
-1.22727e-06
1.85286e-07
-1.37277e-06
1.93116e-07
-1.52448e-06
2.0163e-07
-1.68289e-06
2.10846e-07
-1.84846e-06
2.20739e-07
-2.02163e-06
2.31256e-07
-2.20278e-06
2.42329e-07
-2.39225e-06
2.53882e-07
-2.59032e-06
2.65841e-07
-2.79721e-06
2.78133e-07
-3.0131e-06
2.90691e-07
-3.23811e-06
3.03455e-07
-3.47236e-06
3.16365e-07
-3.71586e-06
3.29365e-07
-3.96864e-06
3.42394e-07
-4.23064e-06
3.55389e-07
-4.50177e-06
3.68278e-07
-4.78185e-06
3.80975e-07
-5.07067e-06
3.93382e-07
-5.36788e-06
4.0538e-07
-5.67307e-06
4.16832e-07
-5.9857e-06
4.27576e-07
-6.30508e-06
4.37424e-07
-6.63038e-06
4.46166e-07
-6.96059e-06
4.53561e-07
-7.29452e-06
4.59344e-07
-7.63074e-06
4.63223e-07
-7.96763e-06
4.64883e-07
-8.30331e-06
4.63989e-07
-8.63564e-06
4.60189e-07
-8.96224e-06
4.53119e-07
-9.28047e-06
4.42413e-07
-9.58742e-06
4.27705e-07
-9.87996e-06
4.08646e-07
-1.01547e-05
3.84907e-07
-1.04081e-05
3.56195e-07
-1.06365e-05
3.22265e-07
-1.08359e-05
2.82933e-07
-1.10025e-05
2.38088e-07
-1.11323e-05
1.87708e-07
-1.12217e-05
1.3187e-07
-1.12667e-05
7.07569e-08
-1.12641e-05
4.76213e-09
-1.12107e-05
-6.59301e-08
-1.11038e-05
-1.40464e-07
-1.09412e-05
-2.18266e-07
-1.07212e-05
-2.98503e-07
-1.0443e-05
-3.8022e-07
-1.01063e-05
-4.6236e-07
-9.71187e-06
-5.43775e-07
-9.26104e-06
-6.23246e-07
-8.7562e-06
-6.99513e-07
-8.20056e-06
-7.713e-07
-7.59821e-06
-8.37353e-07
-6.95408e-06
-8.96466e-07
-6.27383e-06
-9.47523e-07
-5.56384e-06
-9.89528e-07
-4.83104e-06
-1.02164e-06
-4.08283e-06
-1.0432e-06
-3.32691e-06
-1.05375e-06
-2.57116e-06
-1.05307e-06
-1.82342e-06
-1.04116e-06
-1.09141e-06
-1.01828e-06
-3.82496e-07
-9.84897e-07
2.96406e-07
-9.41723e-07
9.39007e-07
-8.89658e-07
1.53974e-06
-8.29776e-07
2.09388e-06
-7.63291e-07
2.59757e-06
-6.91513e-07
3.04794e-06
-6.15813e-07
3.44305e-06
-5.37577e-07
3.78192e-06
-4.58167e-07
4.06447e-06
-3.78882e-07
4.29148e-06
-3.00927e-07
4.4645e-06
-2.25379e-07
4.58573e-06
-1.53174e-07
4.65792e-06
-8.50879e-08
4.68426e-06
-2.16583e-08
4.66851e-06
3.65881e-08
4.6142e-06
8.93883e-08
4.52526e-06
1.36669e-07
4.40557e-06
1.78447e-07
4.25892e-06
2.14866e-07
4.08895e-06
2.46172e-07
3.89906e-06
2.72694e-07
3.69242e-06
2.94819e-07
3.47191e-06
3.12969e-07
3.2401e-06
3.27577e-07
2.9993e-06
3.3906e-07
2.75154e-06
3.47792e-07
2.49867e-06
3.54077e-07
2.2424e-06
3.58113e-07
1.9844e-06
3.59948e-07
1.72648e-06
3.5944e-07
1.47072e-06
3.56195e-07
1.21967e-06
3.49508e-07
9.76669e-07
3.38295e-07
7.46048e-07
3.21041e-07
5.33432e-07
2.95786e-07
3.45883e-07
2.60264e-07
1.9173e-07
2.12338e-07
7.97115e-08
1.51146e-07
1.66664e-08
7.94568e-08
1.54216e-08
1.09547e-08
-3.26168e-08
2.02525e-08
-4.14192e-08
1.23673e-08
-1.29409e-08
-2.04388e-08
3.45204e-08
-8.11182e-08
8.9268e-08
-1.69433e-07
1.43586e-07
-2.83114e-07
1.93127e-07
-4.18947e-07
2.35914e-07
-5.73489e-07
2.71557e-07
-7.43533e-07
3.00649e-07
-9.26382e-07
3.24314e-07
-1.11996e-06
3.43893e-07
-1.32285e-06
3.6072e-07
-1.53419e-06
3.75995e-07
-1.75363e-06
3.90711e-07
-1.9812e-06
4.05632e-07
-2.21722e-06
4.21299e-07
-2.46215e-06
4.38053e-07
-2.7166e-06
4.56074e-07
-2.98116e-06
4.75413e-07
-3.25646e-06
4.96032e-07
-3.54303e-06
5.17834e-07
-3.84139e-06
5.40684e-07
-4.15194e-06
5.64436e-07
-4.47504e-06
5.88937e-07
-4.81095e-06
6.14042e-07
-5.15987e-06
6.39612e-07
-5.52193e-06
6.65517e-07
-5.8972e-06
6.91635e-07
-6.28568e-06
7.17841e-07
-6.68729e-06
7.44009e-07
-7.1019e-06
7.7e-07
-7.52928e-06
7.95656e-07
-7.9691e-06
8.20794e-07
-8.42092e-06
8.452e-07
-8.88416e-06
8.6862e-07
-9.35808e-06
8.90758e-07
-9.84177e-06
9.11269e-07
-1.03341e-05
9.29755e-07
-1.08337e-05
9.45766e-07
-1.13389e-05
9.58799e-07
-1.18479e-05
9.68298e-07
-1.23583e-05
9.73656e-07
-1.28677e-05
9.74223e-07
-1.3373e-05
9.69314e-07
-1.3871e-05
9.58215e-07
-1.43581e-05
9.40198e-07
-1.48302e-05
9.14537e-07
-1.5283e-05
8.8052e-07
-1.57119e-05
8.37476e-07
-1.61118e-05
7.84789e-07
-1.64775e-05
7.21926e-07
-1.68037e-05
6.48463e-07
-1.70849e-05
5.64103e-07
-1.73155e-05
4.68709e-07
-1.74901e-05
3.62323e-07
-1.76034e-05
2.4519e-07
-1.76504e-05
1.17776e-07
-1.76265e-05
-1.92066e-08
-1.75275e-05
-1.64853e-07
-1.73501e-05
-3.17929e-07
-1.70913e-05
-4.76994e-07
-1.67495e-05
-6.40377e-07
-1.63235e-05
-8.06182e-07
-1.58135e-05
-9.7232e-07
-1.52208e-05
-1.13655e-06
-1.45475e-05
-1.2965e-06
-1.37973e-05
-1.44975e-06
-1.29747e-05
-1.59385e-06
-1.20857e-05
-1.72641e-06
-1.1137e-05
-1.84514e-06
-1.01366e-05
-1.94791e-06
-9.09332e-06
-2.03284e-06
-8.01663e-06
-2.09832e-06
-6.91673e-06
-2.1431e-06
-5.80419e-06
-2.16628e-06
-4.68985e-06
-2.16741e-06
-3.58455e-06
-2.14646e-06
-2.49898e-06
-2.10384e-06
-1.44346e-06
-2.04042e-06
-4.2773e-07
-1.95746e-06
5.39233e-07
-1.85662e-06
1.44936e-06
-1.7399e-06
2.29562e-06
-1.60956e-06
3.07219e-06
-1.46808e-06
3.77444e-06
-1.31806e-06
4.39904e-06
-1.16218e-06
4.94395e-06
-1.00308e-06
5.40838e-06
-8.43307e-07
5.79272e-06
-6.85267e-07
6.09848e-06
-5.31138e-07
6.32814e-06
-3.82841e-07
6.48505e-06
-2.41995e-07
6.57327e-06
-1.09883e-07
6.59751e-06
1.23496e-08
6.56258e-06
1.24323e-07
6.47382e-06
2.25432e-07
6.33657e-06
3.15693e-07
6.15617e-06
3.95266e-07
5.9378e-06
4.64536e-07
5.68644e-06
5.24059e-07
5.40674e-06
5.74518e-07
5.10303e-06
6.16677e-07
4.77928e-06
6.51332e-07
4.43908e-06
6.79255e-07
4.08573e-06
7.01141e-07
3.72226e-06
7.17546e-07
3.35156e-06
7.28817e-07
2.97649e-06
7.35013e-07
2.60011e-06
7.35822e-07
2.22585e-06
7.3046e-07
1.85779e-06
7.1757e-07
1.50095e-06
6.9513e-07
1.16159e-06
6.60401e-07
8.4741e-07
6.09968e-07
5.67625e-07
5.40049e-07
3.32716e-07
4.47248e-07
1.536e-07
3.30262e-07
4.01471e-08
1.9291e-07
5.55687e-08
3.51154e-09
-3.61281e-08
-6.54494e-09
-3.13626e-08
-4.39113e-08
2.44256e-08
-1.15148e-07
1.05758e-07
-2.22242e-07
1.96362e-07
-3.64121e-07
2.85464e-07
-5.37805e-07
3.66811e-07
-7.39388e-07
4.37497e-07
-9.64769e-07
4.96938e-07
-1.21014e-06
5.46022e-07
-1.47229e-06
5.8646e-07
-1.7487e-06
6.2031e-07
-2.03763e-06
6.49646e-07
-2.33798e-06
6.76345e-07
-2.64924e-06
7.01975e-07
-2.97136e-06
7.27753e-07
-3.30461e-06
7.54548e-07
-3.64948e-06
7.82918e-07
-4.00657e-06
8.13161e-07
-4.37653e-06
8.45373e-07
-4.76e-06
8.79504e-07
-5.15757e-06
9.15406e-07
-5.56976e-06
9.52874e-07
-5.997e-06
9.91674e-07
-6.43963e-06
1.03157e-06
-6.8979e-06
1.07232e-06
-7.372e-06
1.1137e-06
-7.862e-06
1.15552e-06
-8.36793e-06
1.19756e-06
-8.88972e-06
1.23963e-06
-9.42722e-06
1.28151e-06
-9.9802e-06
1.32298e-06
-1.05483e-05
1.36377e-06
-1.11311e-05
1.40356e-06
-1.17279e-05
1.44201e-06
-1.23379e-05
1.47867e-06
-1.29602e-05
1.51305e-06
-1.35935e-05
1.54456e-06
-1.42363e-05
1.57254e-06
-1.48868e-05
1.59621e-06
-1.55427e-05
1.61475e-06
-1.62016e-05
1.62721e-06
-1.68606e-05
1.6326e-06
-1.75162e-05
1.62985e-06
-1.81647e-05
1.61782e-06
-1.88019e-05
1.59537e-06
-1.9423e-05
1.56132e-06
-2.0023e-05
1.51452e-06
-2.05963e-05
1.45384e-06
-2.11371e-05
1.37826e-06
-2.16391e-05
1.28685e-06
-2.2096e-05
1.17881e-06
-2.25011e-05
1.05355e-06
-2.28477e-05
9.10695e-07
-2.31291e-05
7.50127e-07
-2.33388e-05
5.72023e-07
-2.34705e-05
3.76886e-07
-2.35183e-05
1.65566e-07
-2.34768e-05
-6.07205e-08
-2.33413e-05
-3.00377e-07
-2.31078e-05
-5.51425e-07
-2.27732e-05
-8.11516e-07
-2.23357e-05
-1.07795e-06
-2.17941e-05
-1.34771e-06
-2.11489e-05
-1.6175e-06
-2.04017e-05
-1.8838e-06
-1.95553e-05
-2.14292e-06
-1.86139e-05
-2.39109e-06
-1.75833e-05
-2.62452e-06
-1.64702e-05
-2.8395e-06
-1.52828e-05
-3.0325e-06
-1.40305e-05
-3.20023e-06
-1.27236e-05
-3.33976e-06
-1.13733e-05
-3.44858e-06
-9.99171e-06
-3.52469e-06
-8.59132e-06
-3.56668e-06
-7.185e-06
-3.57374e-06
-5.78573e-06
-3.54573e-06
-4.40637e-06
-3.4832e-06
-3.05944e-06
-3.38735e-06
-1.75688e-06
-3.26002e-06
-5.09826e-07
-3.10367e-06
6.71551e-07
-2.92128e-06
1.77826e-06
-2.71627e-06
2.80259e-06
-2.49241e-06
3.73827e-06
-2.25374e-06
4.58048e-06
-2.00439e-06
5.32592e-06
-1.74852e-06
5.9728e-06
-1.49018e-06
6.52076e-06
-1.23322e-06
6.97081e-06
-9.81194e-07
7.32523e-06
-7.37262e-07
7.5874e-06
-5.04161e-07
7.76167e-06
-2.84154e-07
7.85304e-06
-7.90174e-08
7.86732e-06
1.10042e-07
7.81054e-06
2.82207e-07
7.68907e-06
4.37171e-07
7.5093e-06
5.75031e-07
7.2776e-06
6.96236e-07
7.00013e-06
8.01529e-07
6.68278e-06
8.91872e-07
6.33107e-06
9.68378e-07
5.95019e-06
1.03222e-06
5.54488e-06
1.08456e-06
5.1196e-06
1.12643e-06
4.67849e-06
1.15866e-06
4.22555e-06
1.18176e-06
3.76476e-06
1.19579e-06
3.30033e-06
1.20025e-06
2.83687e-06
1.19392e-06
2.3797e-06
1.17474e-06
1.93514e-06
1.13969e-06
1.51076e-06
1.08478e-06
1.11561e-06
1.00512e-06
7.60304e-07
8.95352e-07
4.56939e-07
7.50612e-07
2.18853e-07
5.68348e-07
6.05664e-08
3.51196e-07
1.16135e-07
-6.76663e-09
-2.93614e-08
-4.27778e-08
4.64872e-09
-1.18041e-07
9.96887e-08
-2.367e-07
2.24417e-07
-3.98968e-07
3.5863e-07
-6.02415e-07
4.88912e-07
-8.43058e-07
6.07453e-07
-1.11622e-06
7.10662e-07
-1.41721e-06
7.97928e-07
-1.74175e-06
8.70557e-07
-2.08624e-06
9.3095e-07
-2.44789e-06
9.81965e-07
-2.82473e-06
1.02648e-06
-3.21549e-06
1.06711e-06
-3.61956e-06
1.10604e-06
-4.03679e-06
1.14498e-06
-4.46738e-06
1.18514e-06
-4.91179e-06
1.22732e-06
-5.37057e-06
1.27194e-06
-5.84433e-06
1.31914e-06
-6.33369e-06
1.36886e-06
-6.83919e-06
1.42091e-06
-7.36131e-06
1.47499e-06
-7.90042e-06
1.53079e-06
-8.45683e-06
1.58797e-06
-9.03074e-06
1.64623e-06
-9.62228e-06
1.70524e-06
-1.02315e-05
1.76474e-06
-1.08584e-05
1.82443e-06
-1.15028e-05
1.88403e-06
-1.21645e-05
1.94327e-06
-1.28433e-05
2.00179e-06
-1.35388e-05
2.05923e-06
-1.42504e-05
2.11513e-06
-1.49773e-05
2.16896e-06
-1.57187e-05
2.22008e-06
-1.64734e-05
2.26775e-06
-1.72399e-05
2.31109e-06
-1.80165e-05
2.34911e-06
-1.8801e-05
2.38068e-06
-1.95908e-05
2.40456e-06
-2.03829e-05
2.41936e-06
-2.11739e-05
2.42361e-06
-2.19598e-05
2.41575e-06
-2.27362e-05
2.39414e-06
-2.34979e-05
2.35712e-06
-2.42396e-05
2.30301e-06
-2.49552e-05
2.23017e-06
-2.56384e-05
2.13704e-06
-2.62824e-05
2.02218e-06
-2.68799e-05
1.88433e-06
-2.74235e-05
1.72245e-06
-2.79057e-05
1.53577e-06
-2.83189e-05
1.32386e-06
-2.86554e-05
1.08665e-06
-2.89079e-05
8.24503e-07
-2.90692e-05
5.38237e-07
-2.91328e-05
2.29156e-07
-2.90926e-05
-1.00931e-07
-2.89433e-05
-4.49695e-07
-2.86804e-05
-8.14289e-07
-2.83006e-05
-1.19137e-06
-2.78014e-05
-1.57712e-06
-2.71818e-05
-1.96729e-06
-2.6442e-05
-2.35728e-06
-2.55837e-05
-2.74218e-06
-2.46097e-05
-3.11685e-06
-2.35248e-05
-3.47605e-06
-2.23348e-05
-3.81452e-06
-2.10472e-05
-4.12712e-06
-1.96708e-05
-4.40889e-06
-1.82158e-05
-4.65523e-06
-1.66935e-05
-4.86203e-06
-1.51164e-05
-5.02569e-06
-1.34977e-05
-5.14334e-06
-1.18516e-05
-5.21286e-06
-1.01923e-05
-5.23297e-06
-8.53476e-06
-5.20329e-06
-6.8936e-06
-5.12436e-06
-5.2833e-06
-4.99765e-06
-3.71779e-06
-4.82553e-06
-2.21026e-06
-4.6112e-06
-7.72888e-07
-4.35865e-06
5.83345e-07
-4.0725e-06
1.84884e-06
-3.75791e-06
3.01553e-06
-3.42043e-06
4.07696e-06
-3.06582e-06
5.02838e-06
-2.69994e-06
5.86675e-06
-2.32855e-06
6.59068e-06
-1.95716e-06
7.20042e-06
-1.59093e-06
7.69768e-06
-1.23453e-06
8.08556e-06
-8.9204e-07
8.36832e-06
-5.66911e-07
8.55119e-06
-2.61895e-07
8.64028e-06
2.09543e-08
8.64222e-06
2.80273e-07
8.56404e-06
5.15348e-07
8.413e-06
7.26069e-07
8.19638e-06
9.12853e-07
7.92136e-06
1.07656e-06
7.59485e-06
1.21838e-06
7.22348e-06
1.33975e-06
6.81349e-06
1.44221e-06
6.37073e-06
1.52732e-06
5.90069e-06
1.59646e-06
5.40858e-06
1.65076e-06
4.89944e-06
1.6909e-06
4.3783e-06
1.71694e-06
3.85034e-06
1.72821e-06
3.32122e-06
1.72304e-06
2.79726e-06
1.6987e-06
2.28576e-06
1.65119e-06
1.79528e-06
1.57526e-06
1.33587e-06
1.46452e-06
9.19329e-07
1.3119e-06
5.59358e-07
1.11058e-06
2.7204e-07
8.55666e-07
7.68177e-08
5.46418e-07
1.92953e-07
-1.87307e-08
-1.06307e-08
-8.49994e-08
7.09175e-08
-2.04134e-07
2.18823e-07
-3.76946e-07
3.97229e-07
-6.01183e-07
5.82866e-07
-8.72605e-07
7.60335e-07
-1.18593e-06
9.20779e-07
-1.53558e-06
1.06031e-06
-1.91622e-06
1.17857e-06
-2.32314e-06
1.27748e-06
-2.75247e-06
1.36027e-06
-3.2012e-06
1.4307e-06
-3.66722e-06
1.4925e-06
-4.14916e-06
1.54906e-06
-4.64633e-06
1.60321e-06
-5.15849e-06
1.65714e-06
-5.68578e-06
1.71243e-06
-6.22856e-06
1.77011e-06
-6.78732e-06
1.8307e-06
-7.36259e-06
1.89441e-06
-7.95488e-06
1.96115e-06
-8.56465e-06
2.03067e-06
-9.19229e-06
2.10263e-06
-9.8381e-06
2.1766e-06
-1.05023e-05
2.2522e-06
-1.11851e-05
2.32902e-06
-1.18866e-05
2.4067e-06
-1.26067e-05
2.48488e-06
-1.33455e-05
2.56324e-06
-1.41029e-05
2.64143e-06
-1.48787e-05
2.71909e-06
-1.56727e-05
2.79579e-06
-1.64846e-05
2.87104e-06
-1.73137e-05
2.94426e-06
-1.81594e-05
3.01471e-06
-1.90209e-05
3.08153e-06
-1.98968e-05
3.1437e-06
-2.07858e-05
3.20004e-06
-2.16858e-05
3.24915e-06
-2.25947e-05
3.28951e-06
-2.35095e-05
3.31938e-06
-2.4427e-05
3.3369e-06
-2.53434e-05
3.34003e-06
-2.62544e-05
3.32666e-06
-2.71548e-05
3.29459e-06
-2.80392e-05
3.24155e-06
-2.89015e-05
3.16532e-06
-2.97351e-05
3.06373e-06
-3.05328e-05
2.9347e-06
-3.1287e-05
2.77638e-06
-3.19897e-05
2.58711e-06
-3.26329e-05
2.36559e-06
-3.3208e-05
2.11086e-06
-3.37065e-05
1.82242e-06
-3.41201e-05
1.50025e-06
-3.44405e-05
1.1449e-06
-3.46598e-05
7.57495e-07
-3.47704e-05
3.39812e-07
-3.47656e-05
-1.05737e-07
-3.46393e-05
-5.76065e-07
-3.43861e-05
-1.06744e-06
-3.4002e-05
-1.57548e-06
-3.34839e-05
-2.09522e-06
-3.28301e-05
-2.62114e-06
-3.20401e-05
-3.14723e-06
-3.11152e-05
-3.66712e-06
-3.00579e-05
-4.17414e-06
-2.88725e-05
-4.66145e-06
-2.75648e-05
-5.12219e-06
-2.61424e-05
-5.54957e-06
-2.46141e-05
-5.93709e-06
-2.29908e-05
-6.27862e-06
-2.12842e-05
-6.56862e-06
-1.95076e-05
-6.80223e-06
-1.76755e-05
-6.97543e-06
-1.58032e-05
-7.0852e-06
-1.39066e-05
-7.12954e-06
-1.20023e-05
-7.10764e-06
-1.01068e-05
-7.01986e-06
-8.23665e-06
-6.86779e-06
-6.40799e-06
-6.65419e-06
-4.63624e-06
-6.38296e-06
-2.93584e-06
-6.05904e-06
-1.32004e-06
-5.6883e-06
1.99367e-07
-5.27732e-06
1.61224e-06
-4.8333e-06
2.91019e-06
-4.36378e-06
4.08673e-06
-3.87648e-06
5.13728e-06
-3.3791e-06
6.05918e-06
-2.87906e-06
6.85164e-06
-2.38338e-06
7.51561e-06
-1.8985e-06
8.05368e-06
-1.43011e-06
8.46987e-06
-9.83102e-07
8.76944e-06
-5.61469e-07
8.95868e-06
-1.68285e-07
9.04467e-06
1.9429e-07
9.03503e-06
5.24981e-07
8.93778e-06
8.23327e-07
8.76103e-06
1.0896e-06
8.51292e-06
1.32467e-06
8.20136e-06
1.52993e-06
7.83402e-06
1.70709e-06
7.4182e-06
1.85804e-06
6.96078e-06
1.98473e-06
6.46833e-06
2.08892e-06
5.94705e-06
2.17204e-06
5.40298e-06
2.23496e-06
4.8421e-06
2.27782e-06
4.27055e-06
2.29976e-06
3.69484e-06
2.29875e-06
3.12216e-06
2.27138e-06
2.56064e-06
2.21272e-06
2.01964e-06
2.11626e-06
1.51013e-06
1.97402e-06
1.04504e-06
1.77699e-06
6.39771e-07
1.51585e-06
3.13172e-07
1.18227e-06
8.90624e-08
7.70527e-07
2.82015e-07
-3.17883e-08
2.11576e-08
-1.31157e-07
1.70287e-07
-2.98324e-07
3.8599e-07
-5.30174e-07
6.29078e-07
-8.21466e-07
8.74159e-07
-1.16577e-06
1.10463e-06
-1.55622e-06
1.31124e-06
-1.98619e-06
1.49028e-06
-2.44964e-06
1.64202e-06
-2.94142e-06
1.76927e-06
-3.4574e-06
1.87625e-06
-3.99442e-06
1.96772e-06
-4.55027e-06
2.04835e-06
-5.12354e-06
2.12232e-06
-5.71344e-06
2.19311e-06
-6.31971e-06
2.2634e-06
-6.94237e-06
2.3351e-06
-7.58172e-06
2.40945e-06
-8.2381e-06
2.48709e-06
-8.91195e-06
2.56825e-06
-9.60364e-06
2.65285e-06
-1.03135e-05
2.74057e-06
-1.10419e-05
2.83101e-06
-1.1789e-05
2.92371e-06
-1.2555e-05
3.01821e-06
-1.33401e-05
3.11407e-06
-1.41443e-05
3.21091e-06
-1.49678e-05
3.30834e-06
-1.58105e-05
3.40603e-06
-1.66727e-05
3.50359e-06
-1.75542e-05
3.60062e-06
-1.84551e-05
3.69664e-06
-1.93751e-05
3.79106e-06
-2.0314e-05
3.88314e-06
-2.12713e-05
3.97198e-06
-2.22462e-05
4.05647e-06
-2.32378e-05
4.13529e-06
-2.42446e-05
4.20688e-06
-2.52649e-05
4.26946e-06
-2.62964e-05
4.32099e-06
-2.73363e-05
4.35924e-06
-2.83811e-05
4.38176e-06
-2.9427e-05
4.38592e-06
-3.04693e-05
4.36895e-06
-3.15027e-05
4.328e-06
-3.25213e-05
4.26018e-06
-3.35186e-05
4.16261e-06
-3.44874e-05
4.03251e-06
-3.542e-05
3.86725e-06
-3.6308e-05
3.66445e-06
-3.7143e-05
3.42204e-06
-3.79157e-05
3.13835e-06
-3.86171e-05
2.81218e-06
-3.92375e-05
2.4429e-06
-3.97678e-05
2.03047e-06
-4.01984e-05
1.57555e-06
-4.05205e-05
1.07956e-06
-4.07253e-05
5.4465e-07
-4.08048e-05
-2.6198e-08
-4.07517e-05
-6.29179e-07
-4.05595e-05
-1.2597e-06
-4.02226e-05
-1.91238e-06
-3.97367e-05
-2.58106e-06
-3.9099e-05
-3.25892e-06
-3.83076e-05
-3.93854e-06
-3.73628e-05
-4.61197e-06
-3.62661e-05
-5.27088e-06
-3.50208e-05
-5.90669e-06
-3.36323e-05
-6.51074e-06
-3.21074e-05
-7.07443e-06
-3.04551e-05
-7.58939e-06
-2.8686e-05
-8.04773e-06
-2.68125e-05
-8.44216e-06
-2.48485e-05
-8.76624e-06
-2.28094e-05
-9.01449e-06
-2.07119e-05
-9.18264e-06
-1.85738e-05
-9.26769e-06
-1.64133e-05
-9.26808e-06
-1.42495e-05
-9.18374e-06
-1.21011e-05
-9.01613e-06
-9.98705e-06
-8.76826e-06
-7.92541e-06
-8.4446e-06
-5.93345e-06
-8.051e-06
-4.02721e-06
-7.59453e-06
-2.22121e-06
-7.08332e-06
-5.28197e-07
-6.52631e-06
1.04104e-06
-5.93301e-06
2.47781e-06
-5.31325e-06
3.77562e-06
-4.67691e-06
4.93019e-06
-4.03363e-06
5.93942e-06
-3.39261e-06
6.80328e-06
-2.76236e-06
7.5237e-06
-2.15052e-06
8.10433e-06
-1.56374e-06
8.55038e-06
-1.00752e-06
8.86833e-06
-4.86237e-07
9.06569e-06
-3.06868e-09
9.15073e-06
4.39942e-07
9.13224e-06
8.41821e-07
9.01927e-06
1.20256e-06
8.82097e-06
1.52298e-06
8.54635e-06
1.80455e-06
8.20417e-06
2.04926e-06
7.80287e-06
2.25935e-06
7.35045e-06
2.43714e-06
6.85456e-06
2.58482e-06
6.32246e-06
2.70414e-06
5.7612e-06
2.79623e-06
5.17769e-06
2.86133e-06
4.57896e-06
2.89849e-06
3.97236e-06
2.90534e-06
3.36587e-06
2.87788e-06
2.76836e-06
2.81023e-06
2.18999e-06
2.69463e-06
1.64261e-06
2.52141e-06
1.1403e-06
2.2793e-06
7.00184e-07
1.95596e-06
3.4359e-07
1.53886e-06
9.78929e-08
1.01622e-06
3.79908e-07
-4.55436e-08
6.67012e-08
-1.79945e-07
3.04688e-07
-3.98029e-07
6.04074e-07
-6.92367e-07
9.23416e-07
-1.05437e-06
1.23616e-06
-1.47509e-06
1.52536e-06
-1.94591e-06
1.78206e-06
-2.45897e-06
2.00334e-06
-3.00746e-06
2.19051e-06
-3.58577e-06
2.34757e-06
-4.18949e-06
2.47997e-06
-4.81535e-06
2.59358e-06
-5.46107e-06
2.69407e-06
-6.12519e-06
2.78645e-06
-6.8069e-06
2.87482e-06
-7.50585e-06
2.96235e-06
-8.222e-06
3.05126e-06
-8.95551e-06
3.14296e-06
-9.70662e-06
3.23821e-06
-1.04756e-05
3.33725e-06
-1.12628e-05
3.44e-06
-1.20683e-05
3.54611e-06
-1.28925e-05
3.65514e-06
-1.37354e-05
3.76663e-06
-1.45973e-05
3.88011e-06
-1.54784e-05
3.99515e-06
-1.63789e-05
4.1114e-06
-1.7299e-05
4.22852e-06
-1.82392e-05
4.34621e-06
-1.91997e-05
4.46411e-06
-2.0181e-05
4.58184e-06
-2.11832e-05
4.6989e-06
-2.22068e-05
4.81461e-06
-2.32517e-05
4.92812e-06
-2.43181e-05
5.03835e-06
-2.54056e-05
5.14393e-06
-2.65135e-05
5.24323e-06
-2.76409e-05
5.33428e-06
-2.87863e-05
5.41484e-06
-2.99477e-05
5.48235e-06
-3.11224e-05
5.53397e-06
-3.23072e-05
5.56659e-06
-3.34982e-05
5.57692e-06
-3.46907e-05
5.56144e-06
-3.58793e-05
5.51658e-06
-3.70578e-05
5.43869e-06
-3.82194e-05
5.32415e-06
-3.93563e-05
5.16947e-06
-4.04604e-05
4.97133e-06
-4.15227e-05
4.72673e-06
-4.25337e-05
4.43305e-06
-4.34835e-05
4.08814e-06
-4.43617e-05
3.69042e-06
-4.51578e-05
3.239e-06
-4.5861e-05
2.73369e-06
-4.64606e-05
2.17516e-06
-4.6946e-05
1.56493e-06
-4.73068e-05
9.0548e-07
-4.75333e-05
2.00225e-07
-4.7616e-05
-5.46405e-07
-4.75467e-05
-1.32902e-06
-4.73179e-05
-2.14124e-06
-4.69232e-05
-2.97577e-06
-4.63576e-05
-3.82446e-06
-4.56178e-05
-4.67836e-06
-4.47019e-05
-5.52787e-06
-4.36099e-05
-6.36285e-06
-4.23438e-05
-7.17276e-06
-4.09077e-05
-7.9469e-06
-3.93076e-05
-8.67453e-06
-3.75518e-05
-9.34514e-06
-3.56509e-05
-9.94866e-06
-3.36174e-05
-1.04757e-05
-3.14658e-05
-1.09178e-05
-2.92128e-05
-1.12675e-05
-2.68764e-05
-1.1519e-05
-2.44764e-05
-1.16678e-05
-2.20334e-05
-1.17111e-05
-1.95689e-05
-1.16482e-05
-1.71051e-05
-1.148e-05
-1.46638e-05
-1.12095e-05
-1.22667e-05
-1.08417e-05
-9.9346e-06
-1.03831e-05
-7.68704e-06
-9.84209e-06
-5.54207e-06
-9.2283e-06
-3.51577e-06
-8.55261e-06
-1.62206e-06
-7.82672e-06
1.27539e-07
-7.06285e-06
1.72405e-06
-6.27342e-06
3.16108e-06
-5.47066e-06
4.43483e-06
-4.66636e-06
5.54399e-06
-3.87153e-06
6.48962e-06
-3.09616e-06
7.27492e-06
-2.34904e-06
7.90498e-06
-1.63758e-06
8.38651e-06
-9.67768e-07
8.72755e-06
-3.44101e-07
8.93712e-06
2.3037e-07
9.02498e-06
7.53961e-07
9.0013e-06
1.22624e-06
8.87643e-06
1.64784e-06
8.66068e-06
2.0203e-06
8.36413e-06
2.34582e-06
7.99649e-06
2.62698e-06
7.56709e-06
2.86655e-06
7.08477e-06
3.06714e-06
6.55797e-06
3.23093e-06
5.99483e-06
3.35938e-06
5.40327e-06
3.45289e-06
4.79125e-06
3.51051e-06
4.16698e-06
3.52961e-06
3.53922e-06
3.50564e-06
2.91761e-06
3.43184e-06
2.31311e-06
3.29913e-06
1.73848e-06
3.09603e-06
1.209e-06
2.80878e-06
7.43348e-07
2.42162e-06
3.64974e-07
1.91723e-06
1.03939e-07
1.27726e-06
4.83847e-07
-5.97788e-08
1.2648e-07
-2.30529e-07
4.75438e-07
-5.01489e-07
8.75035e-07
-8.60656e-07
1.28258e-06
-1.29583e-06
1.67133e-06
-1.79537e-06
2.0249e-06
-2.34869e-06
2.33538e-06
-2.94661e-06
2.60126e-06
-3.58147e-06
2.82537e-06
-4.24717e-06
3.01327e-06
-4.93902e-06
3.17182e-06
-5.65362e-06
3.30818e-06
-6.38865e-06
3.4291e-06
-7.14262e-06
3.54041e-06
-7.91466e-06
3.64686e-06
-8.70436e-06
3.75206e-06
-9.51161e-06
3.8585e-06
-1.03364e-05
3.96778e-06
-1.1179e-05
4.08073e-06
-1.20393e-05
4.19763e-06
-1.29177e-05
4.31838e-06
-1.38143e-05
4.44266e-06
-1.47292e-05
4.57005e-06
-1.56627e-05
4.70011e-06
-1.6615e-05
4.83245e-06
-1.75866e-05
4.96675e-06
-1.8578e-05
5.10275e-06
-1.95897e-05
5.24027e-06
-2.06226e-05
5.3791e-06
-2.16775e-05
5.51901e-06
-2.27553e-05
5.6597e-06
-2.38571e-05
5.80067e-06
-2.49838e-05
5.94124e-06
-2.61361e-05
6.08046e-06
-2.73148e-05
6.21706e-06
-2.85203e-05
6.34941e-06
-2.97526e-05
6.47553e-06
-3.10113e-05
6.59302e-06
-3.22956e-05
6.69911e-06
-3.36039e-05
6.79064e-06
-3.4934e-05
6.86408e-06
-3.6283e-05
6.9156e-06
-3.76472e-05
6.94108e-06
-3.90219e-05
6.9362e-06
-4.04018e-05
6.89649e-06
-4.17806e-05
6.81741e-06
-4.31509e-05
6.69446e-06
-4.45047e-05
6.52327e-06
-4.5833e-05
6.29968e-06
-4.71262e-05
6.01988e-06
-4.83736e-05
5.68049e-06
-4.95642e-05
5.27869e-06
-5.06861e-05
4.81235e-06
-5.17272e-05
4.28008e-06
-5.26748e-05
3.68137e-06
-5.35164e-05
3.01667e-06
-5.42389e-05
2.28748e-06
-5.48298e-05
1.49638e-06
-5.52767e-05
6.47118e-07
-5.55677e-05
-2.55368e-07
-5.56918e-05
-1.20495e-06
-5.56387e-05
-2.19433e-06
-5.53994e-05
-3.21503e-06
-5.49664e-05
-4.25752e-06
-5.43335e-05
-5.31124e-06
-5.34966e-05
-6.36477e-06
-5.24535e-05
-7.40595e-06
-5.12042e-05
-8.42204e-06
-4.97512e-05
-9.39997e-06
-4.80992e-05
-1.03265e-05
-4.62557e-05
-1.11886e-05
-4.42307e-05
-1.19736e-05
-4.20369e-05
-1.26695e-05
-3.96895e-05
-1.32651e-05
-3.72062e-05
-1.37509e-05
-3.46066e-05
-1.41186e-05
-3.19127e-05
-1.43617e-05
-2.91478e-05
-1.44759e-05
-2.63368e-05
-1.44591e-05
-2.35053e-05
-1.43115e-05
-2.06792e-05
-1.40356e-05
-1.78844e-05
-1.36365e-05
-1.51461e-05
-1.31214e-05
-1.24885e-05
-1.24997e-05
-9.9339e-06
-1.17829e-05
-7.50283e-06
-1.09837e-05
-5.21322e-06
-1.01163e-05
-3.08032e-06
-9.19575e-06
-1.11639e-06
-8.23734e-06
6.69367e-07
-7.25642e-06
2.27088e-06
-6.26788e-06
3.68512e-06
-5.28576e-06
4.91193e-06
-4.32297e-06
5.95384e-06
-3.39095e-06
6.81576e-06
-2.49951e-06
7.50467e-06
-1.65668e-06
8.02923e-06
-8.68656e-07
8.39942e-06
-1.39824e-07
8.62621e-06
5.27174e-07
8.72116e-06
1.13128e-06
8.69615e-06
1.67285e-06
8.56308e-06
2.15338e-06
8.33365e-06
2.57525e-06
8.01919e-06
2.94144e-06
7.63057e-06
3.25518e-06
7.17811e-06
3.5196e-06
6.67164e-06
3.7374e-06
6.12055e-06
3.91047e-06
5.53394e-06
4.0395e-06
4.92081e-06
4.12364e-06
4.29031e-06
4.16011e-06
3.65209e-06
4.14387e-06
3.01661e-06
4.06731e-06
2.39571e-06
3.92003e-06
1.8031e-06
3.68864e-06
1.25519e-06
3.35669e-06
7.72088e-07
2.90472e-06
3.78952e-07
2.31037e-06
1.07768e-07
1.54844e-06
5.91615e-07
-7.43578e-08
2.00838e-07
-2.82344e-07
6.83424e-07
-6.07457e-07
1.20015e-06
-1.03293e-06
1.70806e-06
-1.5428e-06
2.1812e-06
-2.12255e-06
2.60465e-06
-2.75955e-06
2.97238e-06
-3.44321e-06
3.28491e-06
-4.16496e-06
3.54712e-06
-4.91816e-06
3.76647e-06
-5.69786e-06
3.95152e-06
-6.50053e-06
4.11085e-06
-7.32376e-06
4.25233e-06
-8.16605e-06
4.3827e-06
-9.02649e-06
4.5073e-06
-9.9046e-06
4.63017e-06
-1.08002e-05
4.75407e-06
-1.17131e-05
4.88074e-06
-1.26435e-05
5.01108e-06
-1.35913e-05
5.14543e-06
-1.45566e-05
5.28372e-06
-1.55396e-05
5.42568e-06
-1.65406e-05
5.571e-06
-1.75598e-05
5.71936e-06
-1.85979e-05
5.87055e-06
-1.96556e-05
6.02445e-06
-2.07339e-05
6.18105e-06
-2.1834e-05
6.34038e-06
-2.29574e-05
6.50248e-06
-2.41057e-05
6.66733e-06
-2.52808e-05
6.83475e-06
-2.64845e-05
7.00438e-06
-2.77188e-05
7.17553e-06
-2.89855e-05
7.34717e-06
-3.02863e-05
7.51787e-06
-3.16226e-05
7.68572e-06
-3.29954e-05
7.84834e-06
-3.44052e-05
8.00284e-06
-3.5852e-05
8.14585e-06
-3.73348e-05
8.27351e-06
-3.88523e-05
8.3815e-06
-4.04018e-05
8.46512e-06
-4.198e-05
8.51931e-06
-4.35825e-05
8.53873e-06
-4.52039e-05
8.51787e-06
-4.68376e-05
8.45112e-06
-4.8476e-05
8.33285e-06
-5.01103e-05
8.15759e-06
-5.17307e-05
7.92008e-06
-5.33263e-05
7.61545e-06
-5.48851e-05
7.23931e-06
-5.63943e-05
6.7879e-06
-5.78402e-05
6.25822e-06
-5.92083e-05
5.64817e-06
-6.04836e-05
4.95663e-06
-6.16505e-05
4.18363e-06
-6.26934e-05
3.33039e-06
-6.35965e-05
2.39948e-06
-6.43442e-05
1.39481e-06
-6.49213e-05
3.21734e-07
-6.53134e-05
-8.12941e-07
-6.55067e-05
-2.00097e-06
-6.54891e-05
-3.23267e-06
-6.52496e-05
-4.49703e-06
-6.47791e-05
-5.78172e-06
-6.40705e-05
-7.07331e-06
-6.31191e-05
-8.35737e-06
-6.19225e-05
-9.61867e-06
-6.0481e-05
-1.08414e-05
-5.8798e-05
-1.20096e-05
-5.68797e-05
-1.3107e-05
-5.47354e-05
-1.41179e-05
-5.23777e-05
-1.50272e-05
-4.98222e-05
-1.58207e-05
-4.70875e-05
-1.64856e-05
-4.41952e-05
-1.70109e-05
-4.11694e-05
-1.73875e-05
-3.80365e-05
-1.76088e-05
-3.48248e-05
-1.76708e-05
-3.15641e-05
-1.75722e-05
-2.82851e-05
-1.73147e-05
-2.50185e-05
-1.69031e-05
-2.17951e-05
-1.63448e-05
-1.86444e-05
-1.56505e-05
-1.55944e-05
-1.48328e-05
-1.26711e-05
-1.3907e-05
-9.89771e-06
-1.28898e-05
-7.29418e-06
-1.17993e-05
-4.87721e-06
-1.06543e-05
-2.65975e-06
-9.47389e-06
-6.50992e-07
-8.27663e-06
1.14359e-06
-7.08034e-06
2.72213e-06
-5.90151e-06
4.08612e-06
-4.75494e-06
5.24008e-06
-3.65347e-06
6.19118e-06