/*--------------------------------*- C++ -*----------------------------------*\
| =========                 |                                                 |
| \\      /  F ield         | OpenFOAM: The Open Source CFD Toolbox           |
|  \\    /   O peration     | Version:  2406                                  |
|   \\  /    A nd           | Website:  www.openfoam.com                      |
|    \\/     M anipulation  |                                                 |
\*---------------------------------------------------------------------------*/
FoamFile
{
    version     2.0;
    format      ascii;
    arch        "LSB;label=32;scalar=64";
    class       surfaceScalarField;
    location    "15.4";
    object      phi_0;
}
// * * * * * * * * * * * * * * * * * * * * * * * * * * * * * * * * * * * * * //

dimensions      [0 3 -1 0 0 0 0];

oriented        oriented;

internalField   nonuniform List<scalar> 
28560
(
8.36683e-09
-8.36418e-09
2.14669e-08
-1.31002e-08
3.23104e-08
-1.08433e-08
3.67832e-08
-4.47262e-09
3.34595e-08
3.32379e-09
2.24951e-08
1.09645e-08
4.68242e-09
1.78127e-08
-1.88579e-08
2.35403e-08
-4.69874e-08
2.81295e-08
-7.87025e-08
3.17151e-08
-1.13206e-07
3.45035e-08
-1.49926e-07
3.67201e-08
-1.88504e-07
3.85782e-08
-2.28766e-07
4.02615e-08
-2.70682e-07
4.19164e-08
-3.14334e-07
4.36513e-08
-3.59873e-07
4.55392e-08
-4.07496e-07
4.76235e-08
-4.5742e-07
4.99238e-08
-5.09862e-07
5.24421e-08
-5.65031e-07
5.51686e-08
-6.23117e-07
5.8086e-08
-6.8429e-07
6.11733e-08
-7.48699e-07
6.44086e-08
-8.16469e-07
6.77705e-08
-8.87708e-07
7.1239e-08
-9.62504e-07
7.47962e-08
-1.04093e-06
7.84258e-08
-1.12304e-06
8.21125e-08
-1.20888e-06
8.58419e-08
-1.29848e-06
8.95988e-08
-1.39185e-06
9.33671e-08
-1.48898e-06
9.71281e-08
-1.58984e-06
1.0086e-07
-1.69438e-06
1.04538e-07
-1.80251e-06
1.08129e-07
-1.9141e-06
1.11599e-07
-2.02901e-06
1.14903e-07
-2.147e-06
1.17992e-07
-2.26781e-06
1.20808e-07
-2.39109e-06
1.23285e-07
-2.51644e-06
1.25351e-07
-2.64337e-06
1.26924e-07
-2.77128e-06
1.27916e-07
-2.89951e-06
1.28232e-07
-3.02728e-06
1.2777e-07
-3.15371e-06
1.26426e-07
-3.2778e-06
1.2409e-07
-3.39845e-06
1.20653e-07
-3.51446e-06
1.16007e-07
-3.62451e-06
1.1005e-07
-3.7272e-06
1.02686e-07
-3.82103e-06
9.38323e-08
-3.90445e-06
8.34203e-08
-3.97585e-06
7.14026e-08
-4.03361e-06
5.7756e-08
-4.07609e-06
4.24846e-08
-4.10174e-06
2.56483e-08
-4.10904e-06
7.29555e-09
-4.09648e-06
-1.25579e-08
-4.06293e-06
-3.35453e-08
-4.00731e-06
-5.56219e-08
-3.92879e-06
-7.85218e-08
-3.82682e-06
-1.01968e-07
-3.70117e-06
-1.25648e-07
-3.55195e-06
-1.49219e-07
-3.37964e-06
-1.72311e-07
-3.1851e-06
-1.9454e-07
-2.96959e-06
-2.15514e-07
-2.73475e-06
-2.34841e-07
-2.4826e-06
-2.52146e-07
-2.21552e-06
-2.67079e-07
-1.9362e-06
-2.79326e-07
-1.64757e-06
-2.88624e-07
-1.35281e-06
-2.94765e-07
-1.0552e-06
-2.97609e-07
-7.58112e-07
-2.97088e-07
-4.64903e-07
-2.93209e-07
-1.78846e-07
-2.86057e-07
9.69448e-08
-2.75791e-07
3.59584e-07
-2.6264e-07
6.06478e-07
-2.46894e-07
8.35375e-07
-2.28897e-07
1.04441e-06
-2.09033e-07
1.23212e-06
-1.87714e-07
1.39749e-06
-1.65365e-07
1.5399e-06
-1.42412e-07
1.65917e-06
-1.19268e-07
1.75549e-06
-9.63198e-08
1.82941e-06
-7.39229e-08
1.8818e-06
-5.23895e-08
1.91379e-06
-3.19851e-08
1.92674e-06
-1.29539e-08
1.92213e-06
4.60836e-09
1.90137e-06
2.07598e-08
1.86638e-06
3.49942e-08
1.81874e-06
4.76371e-08
1.76008e-06
5.86621e-08
1.69196e-06
6.81177e-08
1.61586e-06
7.60954e-08
1.53316e-06
8.27081e-08
1.44507e-06
8.80847e-08
1.35271e-06
9.23627e-08
1.25703e-06
9.56805e-08
1.15886e-06
9.81715e-08
1.0589e-06
9.99557e-08
9.57769e-07
1.01132e-07
8.56001e-07
1.01768e-07
7.54113e-07
1.01888e-07
6.52653e-07
1.01459e-07
5.52283e-07
1.0037e-07
4.53872e-07
9.84113e-08
3.58627e-07
9.52445e-08
2.68251e-07
9.0376e-08
1.8512e-07
8.31316e-08
1.12437e-07
7.26825e-08
5.42756e-08
5.81615e-08
1.51641e-08
3.91115e-08
-1.2426e-09
1.64067e-08
-1.2426e-09
1.32967e-08
-2.1661e-08
3.23073e-08
-3.21103e-08
4.22669e-08
-2.08026e-08
3.60458e-08
1.74873e-09
1.07396e-08
2.86301e-08
-3.36127e-08
5.53168e-08
-9.52945e-08
7.94945e-08
-1.71884e-07
1.0013e-07
-2.60818e-07
1.17063e-07
-3.59753e-07
1.3065e-07
-4.66757e-07
1.41508e-07
-5.80388e-07
1.50351e-07
-6.99682e-07
1.57872e-07
-8.24108e-07
1.64687e-07
-9.53489e-07
1.71298e-07
-1.08792e-06
1.78083e-07
-1.22769e-06
1.85307e-07
-1.3732e-06
1.93133e-07
-1.52492e-06
2.01642e-07
-1.68333e-06
2.10854e-07
-1.8489e-06
2.20742e-07
-2.02207e-06
2.31254e-07
-2.20322e-06
2.42322e-07
-2.39268e-06
2.53869e-07
-2.59073e-06
2.65821e-07
-2.7976e-06
2.78106e-07
-3.01346e-06
2.90657e-07
-3.23844e-06
3.03412e-07
-3.47264e-06
3.16313e-07
-3.7161e-06
3.29302e-07
-3.96883e-06
3.4232e-07
-4.23076e-06
3.55303e-07
-4.50181e-06
3.68178e-07
-4.78181e-06
3.8086e-07
-5.07052e-06
3.93251e-07
-5.36763e-06
4.05232e-07
-5.67269e-06
4.16666e-07
-5.98518e-06
4.27391e-07
-6.30441e-06
4.3722e-07
-6.62955e-06
4.45942e-07
-6.95958e-06
4.53317e-07
-7.29331e-06
4.59081e-07
-7.62932e-06
4.6294e-07
-7.96599e-06
4.64582e-07
-8.30143e-06
4.63671e-07
-8.63351e-06
4.59856e-07
-8.95986e-06
4.52773e-07
-9.27783e-06
4.42056e-07
-9.58452e-06
4.27341e-07
-9.87679e-06
4.08278e-07
-1.01513e-05
3.8454e-07
-1.04044e-05
3.55833e-07
-1.06325e-05
3.21915e-07
-1.08317e-05
2.82599e-07
-1.09981e-05
2.37777e-07
-1.11277e-05
1.87425e-07
-1.12169e-05
1.31622e-07
-1.12618e-05
7.05505e-08
-1.12591e-05
4.60481e-09
-1.12056e-05
-6.6035e-08
-1.10986e-05
-1.40509e-07
-1.0936e-05
-2.18248e-07
-1.07161e-05
-2.98416e-07
-1.0438e-05
-3.80062e-07
-1.01015e-05
-4.62129e-07
-9.70729e-06
-5.4347e-07
-9.25673e-06
-6.22868e-07
-8.75221e-06
-6.99064e-07
-8.19694e-06
-7.70785e-07
-7.595e-06
-8.36775e-07
-6.95132e-06
-8.95832e-07
-6.27155e-06
-9.4684e-07
-5.56207e-06
-9.88806e-07
-4.82981e-06
-1.02089e-06
-4.08215e-06
-1.04243e-06
-3.32679e-06
-1.05297e-06
-2.57158e-06
-1.0523e-06
-1.82438e-06
-1.04041e-06
-1.09289e-06
-1.01755e-06
-3.84476e-07
-9.84205e-07
2.93963e-07
-9.41078e-07
9.36138e-07
-8.89069e-07
1.53649e-06
-8.29251e-07
2.09029e-06
-7.62834e-07
2.59371e-06
-6.91129e-07
3.04385e-06
-6.15504e-07
3.43878e-06
-5.37344e-07
3.77752e-06
-4.5801e-07
4.06e-06
-3.78798e-07
4.28699e-06
-3.00911e-07
4.46002e-06
-2.25428e-07
4.58132e-06
-1.53281e-07
4.65361e-06
-8.52475e-08
4.68009e-06
-2.18641e-08
4.6645e-06
3.63447e-08
4.61038e-06
8.91141e-08
4.52165e-06
1.36371e-07
4.40218e-06
1.78131e-07
4.25576e-06
2.14539e-07
4.08601e-06
2.45839e-07
3.89636e-06
2.72361e-07
3.68996e-06
2.9449e-07
3.46967e-06
3.12648e-07
3.23809e-06
3.27266e-07
2.9975e-06
3.38761e-07
2.74994e-06
3.47507e-07
2.49727e-06
3.53807e-07
2.24118e-06
3.57858e-07
1.98336e-06
3.59709e-07
1.7256e-06
3.59216e-07
1.46999e-06
3.55986e-07
1.21908e-06
3.49314e-07
9.76211e-07
3.38117e-07
7.45707e-07
3.2088e-07
5.33196e-07
2.95643e-07
3.45734e-07
2.60144e-07
1.91652e-07
2.12244e-07
7.96813e-08
1.51082e-07
1.66611e-08
7.9427e-08
1.54185e-08
1.09486e-08
-3.26094e-08
2.0228e-08
-4.13893e-08
1.2313e-08
-1.28874e-08
-2.05317e-08
3.45935e-08
-8.1257e-08
8.93554e-08
-1.69622e-07
1.43682e-07
-2.83355e-07
1.93228e-07
-4.19241e-07
2.36016e-07
-5.73834e-07
2.71656e-07
-7.43927e-07
3.00743e-07
-9.26822e-07
3.24403e-07
-1.12045e-06
3.43975e-07
-1.32337e-06
3.60794e-07
-1.53474e-06
3.76061e-07
-1.75421e-06
3.90769e-07
-1.98181e-06
4.05682e-07
-2.21785e-06
4.2134e-07
-2.4628e-06
4.38085e-07
-2.71725e-06
4.56096e-07
-2.98182e-06
4.75425e-07
-3.25712e-06
4.96034e-07
-3.54369e-06
5.17824e-07
-3.84203e-06
5.40663e-07
-4.15256e-06
5.64401e-07
-4.47563e-06
5.88888e-07
-4.8115e-06
6.13977e-07
-5.16037e-06
6.39529e-07
-5.52237e-06
6.65416e-07
-5.89757e-06
6.91512e-07
-6.28596e-06
7.17695e-07
-6.68748e-06
7.43837e-07
-7.10198e-06
7.69799e-07
-7.52922e-06
7.95424e-07
-7.96889e-06
8.2053e-07
-8.42054e-06
8.449e-07
-8.88359e-06
8.68283e-07
-9.35731e-06
8.90382e-07
-9.84077e-06
9.10852e-07
-1.03328e-05
9.29296e-07
-1.08322e-05
9.45265e-07
-1.13371e-05
9.58256e-07
-1.18457e-05
9.67713e-07
-1.23558e-05
9.73031e-07
-1.28648e-05
9.73561e-07
-1.33698e-05
9.68617e-07
-1.38674e-05
9.57487e-07
-1.43541e-05
9.39445e-07
-1.48258e-05
9.13764e-07
-1.52782e-05
8.79735e-07
-1.57066e-05
8.36687e-07
-1.6106e-05
7.84005e-07
-1.64714e-05
7.21158e-07
-1.67972e-05
6.47721e-07
-1.7078e-05
5.63399e-07
-1.73082e-05
4.68056e-07
-1.74826e-05
3.61733e-07
-1.75956e-05
2.44676e-07
-1.76424e-05
1.17351e-07
-1.76183e-05
-1.95307e-08
-1.75192e-05
-1.65066e-07
-1.73417e-05
-3.18019e-07
-1.7083e-05
-4.76952e-07
-1.67412e-05
-6.40197e-07
-1.63155e-05
-8.05858e-07
-1.58057e-05
-9.71849e-07
-1.52133e-05
-1.13593e-06
-1.45404e-05
-1.29573e-06
-1.37906e-05
-1.44884e-06
-1.29686e-05
-1.59281e-06
-1.20802e-05
-1.72524e-06
-1.11321e-05
-1.84386e-06
-1.01324e-05
-1.94653e-06
-9.08985e-06
-2.03138e-06
-8.01393e-06
-2.09681e-06
-6.91482e-06
-2.14154e-06
-5.80308e-06
-2.16471e-06
-4.68953e-06
-2.16584e-06
-3.58502e-06
-2.14492e-06
-2.50022e-06
-2.10235e-06
-1.44544e-06
-2.03899e-06
-4.30402e-07
-1.95612e-06
5.35912e-07
-1.85538e-06
1.44544e-06
-1.73878e-06
2.29118e-06
-1.60857e-06
3.06729e-06
-1.46723e-06
3.76915e-06
-1.31736e-06
4.39343e-06
-1.16163e-06
4.9381e-06
-1.00268e-06
5.40235e-06
-8.43053e-07
5.78659e-06
-6.85153e-07
6.09232e-06
-5.31156e-07
6.32202e-06
-3.8298e-07
6.47902e-06
-2.42244e-07
6.56738e-06
-1.10228e-07
6.59181e-06
1.19182e-08
6.5571e-06
1.23824e-07
6.46859e-06
2.24877e-07
6.33163e-06
3.15095e-07
6.15153e-06
3.94638e-07
5.93348e-06
4.6389e-07
5.68243e-06
5.23405e-07
5.40306e-06
5.73865e-07
5.09967e-06
6.16033e-07
4.77624e-06
6.50704e-07
4.43635e-06
6.78647e-07
4.0833e-06
7.00558e-07
3.72011e-06
7.1699e-07
3.34968e-06
7.28289e-07
2.97488e-06
7.34515e-07
2.59874e-06
7.35354e-07
2.2247e-06
7.30022e-07
1.85685e-06
7.17163e-07
1.50022e-06
6.94755e-07
1.16104e-06
6.6006e-07
8.47013e-07
6.09666e-07
5.67366e-07
5.39791e-07
3.32568e-07
4.47042e-07
1.53534e-07
3.30116e-07
4.01306e-08
1.9283e-07
5.55491e-08
3.50142e-09
-3.61106e-08
-6.58152e-09
-3.13062e-08
-4.39879e-08
2.45191e-08
-1.15276e-07
1.05882e-07
-2.22428e-07
1.96508e-07
-3.6437e-07
2.85624e-07
-5.3812e-07
3.66977e-07
-7.39768e-07
4.37664e-07
-9.65213e-07
4.97101e-07
-1.21065e-06
5.46177e-07
-1.47285e-06
5.86605e-07
-1.74932e-06
6.20444e-07
-2.03829e-06
6.49768e-07
-2.33868e-06
6.76453e-07
-2.64998e-06
7.02069e-07
-2.97214e-06
7.27833e-07
-3.30541e-06
7.54613e-07
-3.65029e-06
7.82967e-07
-4.00739e-06
8.13193e-07
-4.37735e-06
8.45387e-07
-4.76081e-06
8.795e-07
-5.15837e-06
9.15382e-07
-5.57054e-06
9.52828e-07
-5.99774e-06
9.91604e-07
-6.44032e-06
1.03147e-06
-6.89854e-06
1.07219e-06
-7.37256e-06
1.11355e-06
-7.86247e-06
1.15533e-06
-8.3683e-06
1.19734e-06
-8.88996e-06
1.23936e-06
-9.42733e-06
1.2812e-06
-9.98014e-06
1.32261e-06
-1.05481e-05
1.36334e-06
-1.11306e-05
1.40308e-06
-1.17272e-05
1.44146e-06
-1.2337e-05
1.47806e-06
-1.29589e-05
1.51237e-06
-1.35919e-05
1.54381e-06
-1.42343e-05
1.57171e-06
-1.48844e-05
1.59532e-06
-1.55399e-05
1.61378e-06
-1.61984e-05
1.62618e-06
-1.68568e-05
1.6315e-06
-1.7512e-05
1.62868e-06
-1.81599e-05
1.6166e-06
-1.87965e-05
1.59409e-06
-1.94171e-05
1.56e-06
-2.00165e-05
1.51317e-06
-2.05893e-05
1.45248e-06
-2.11295e-05
1.3769e-06
-2.1631e-05
1.2855e-06
-2.20873e-05
1.17749e-06
-2.24918e-05
1.05228e-06
-2.28379e-05
9.09494e-07
-2.31189e-05
7.49015e-07
-2.33282e-05
5.71021e-07
-2.34595e-05
3.76013e-07
-2.3507e-05
1.64843e-07
-2.34653e-05
-6.12745e-08
-2.33296e-05
-3.00744e-07
-2.3096e-05
-5.51591e-07
-2.27615e-05
-8.11465e-07
-2.2324e-05
-1.07767e-06
-2.17827e-05
-1.3472e-06
-2.11378e-05
-1.61675e-06
-2.03909e-05
-1.88281e-06
-1.95449e-05
-2.14169e-06
-1.86042e-05
-2.38963e-06
-1.75741e-05
-2.62284e-06
-1.64617e-05
-2.83762e-06
-1.52752e-05
-3.03044e-06
-1.40237e-05
-3.19801e-06
-1.27177e-05
-3.3374e-06
-1.13684e-05
-3.44612e-06
-9.98774e-06
-3.52216e-06
-8.58834e-06
-3.56411e-06
-7.18302e-06
-3.57116e-06
-5.78475e-06
-3.54319e-06
-4.40637e-06
-3.48072e-06
-3.06039e-06
-3.38497e-06
-1.75874e-06
-3.25777e-06
-5.12544e-07
-3.10158e-06
6.68036e-07
-2.91936e-06
1.77402e-06
-2.71455e-06
2.7977e-06
-2.49092e-06
3.73281e-06
-2.25247e-06
4.57454e-06
-2.00336e-06
5.31959e-06
-1.74773e-06
5.96616e-06
-1.48962e-06
6.5139e-06
-1.23289e-06
6.96382e-06
-9.81079e-07
7.31819e-06
-7.37349e-07
7.58038e-06
-5.04434e-07
7.75474e-06
-2.84593e-07
7.84626e-06
-7.96022e-08
7.86076e-06
1.09334e-07
7.80424e-06
2.81396e-07
7.68305e-06
4.36279e-07
7.50361e-06
5.74078e-07
7.27226e-06
6.95242e-07
6.99515e-06
8.00511e-07
6.67817e-06
8.90846e-07
6.32685e-06
9.67356e-07
5.94634e-06
1.03122e-06
5.54141e-06
1.08358e-06
5.11649e-06
1.12548e-06
4.67573e-06
1.15775e-06
4.22312e-06
1.18089e-06
3.76266e-06
1.19497e-06
3.29854e-06
1.19948e-06
2.83537e-06
1.19319e-06
2.37847e-06
1.17406e-06
1.93416e-06
1.13907e-06
1.51001e-06
1.08421e-06
1.11506e-06
1.00461e-06
7.59939e-07
8.94915e-07
4.56724e-07
7.50257e-07
2.18751e-07
5.68089e-07
6.0539e-08
3.51042e-07
1.16088e-07
-6.77951e-09
-2.9331e-08
-4.28241e-08
4.73847e-09
-1.18136e-07
9.98312e-08
-2.36856e-07
2.24601e-07
-3.99192e-07
3.58844e-07
-6.02713e-07
4.89145e-07
-8.4343e-07
6.07695e-07
-1.11667e-06
7.10904e-07
-1.41773e-06
7.98163e-07
-1.74234e-06
8.70782e-07
-2.08689e-06
9.3116e-07
-2.44861e-06
9.82158e-07
-2.82549e-06
1.02666e-06
-3.21631e-06
1.06727e-06
-3.62041e-06
1.10618e-06
-4.03767e-06
1.14509e-06
-4.46829e-06
1.18523e-06
-4.91271e-06
1.22739e-06
-5.3715e-06
1.27198e-06
-5.84526e-06
1.31915e-06
-6.33461e-06
1.36885e-06
-6.84008e-06
1.42086e-06
-7.36216e-06
1.47491e-06
-7.90122e-06
1.53067e-06
-8.45757e-06
1.58781e-06
-9.03139e-06
1.64602e-06
-9.62283e-06
1.70499e-06
-1.02319e-05
1.76442e-06
-1.08586e-05
1.82405e-06
-1.15029e-05
1.88359e-06
-1.21644e-05
1.94275e-06
-1.2843e-05
2.0012e-06
-1.35382e-05
2.05855e-06
-1.42495e-05
2.11436e-06
-1.49761e-05
2.16809e-06
-1.57172e-05
2.21911e-06
-1.64715e-05
2.26666e-06
-1.72375e-05
2.3099e-06
-1.80136e-05
2.34781e-06
-1.87976e-05
2.37927e-06
-1.95868e-05
2.40303e-06
-2.03784e-05
2.41772e-06
-2.11687e-05
2.42187e-06
-2.1954e-05
2.41392e-06
-2.27296e-05
2.39223e-06
-2.34906e-05
2.35513e-06
-2.42316e-05
2.30096e-06
-2.49465e-05
2.22808e-06
-2.5629e-05
2.13493e-06
-2.62722e-05
2.02008e-06
-2.68689e-05
1.88226e-06
-2.74118e-05
1.72042e-06
-2.78934e-05
1.53382e-06
-2.83059e-05
1.32201e-06
-2.86418e-05
1.08494e-06
-2.88938e-05
8.22962e-07
-2.90547e-05
5.36892e-07
-2.91178e-05
2.28033e-07
-2.90773e-05
-1.01804e-07
-2.89278e-05
-4.50293e-07
-2.86648e-05
-8.1459e-07
-2.82849e-05
-1.19135e-06
-2.77858e-05
-1.57677e-06
-2.71664e-05
-1.96661e-06
-2.64269e-05
-2.35625e-06
-2.55689e-05
-2.7408e-06
-2.45955e-05
-3.11512e-06
-2.35111e-05
-3.47399e-06
-2.23218e-05
-3.81215e-06
-2.1035e-05
-4.12444e-06
-1.96595e-05
-4.40594e-06
-1.82054e-05
-4.65205e-06
-1.66842e-05
-4.85864e-06
-1.51082e-05
-5.02214e-06
-1.34907e-05
-5.13968e-06
-1.18456e-05
-5.20912e-06
-1.01876e-05
-5.22921e-06
-8.53123e-06
-5.19955e-06
-6.89126e-06
-5.1207e-06
-5.28212e-06
-4.99411e-06
-3.71774e-06
-4.82215e-06
-2.21128e-06
-4.60803e-06
-7.74928e-07
-4.35572e-06
5.80359e-07
-4.06984e-06
1.84499e-06
-3.75555e-06
3.0109e-06
-3.41838e-06
4.07165e-06
-3.06411e-06
5.02249e-06
-2.69857e-06
5.86037e-06
-2.32751e-06
6.58393e-06
-1.95645e-06
7.19338e-06
-1.59053e-06
7.69046e-06
-1.23443e-06
8.07825e-06
-8.92219e-07
8.361e-06
-5.67343e-07
8.54395e-06
-2.62551e-07
8.63318e-06
2.01031e-08
8.63532e-06
2.79257e-07
8.5574e-06
5.14197e-07
8.40666e-06
7.24813e-07
8.19039e-06
9.1152e-07
7.91572e-06
1.07517e-06
7.58961e-06
1.21696e-06
7.21864e-06
1.33833e-06
6.80905e-06
1.4408e-06
6.36669e-06
1.52594e-06
5.89705e-06
1.59512e-06
5.40534e-06
1.64946e-06
4.89659e-06
1.68965e-06
4.37581e-06
1.71575e-06
3.84821e-06
1.72708e-06
3.31942e-06
1.72198e-06
2.79577e-06
1.69771e-06
2.28456e-06
1.65027e-06
1.79436e-06
1.57442e-06
1.3352e-06
1.46376e-06
9.18872e-07
1.31124e-06
5.59083e-07
1.11005e-06
2.71908e-07
8.55264e-07
7.6781e-08
5.46169e-07
1.92869e-07
-1.87459e-08
-1.05851e-08
-8.50531e-08
7.10457e-08
-2.04243e-07
2.19021e-07
-3.77122e-07
3.9748e-07
-6.01434e-07
5.83156e-07
-8.72937e-07
7.60648e-07
-1.18634e-06
9.21102e-07
-1.53607e-06
1.06063e-06
-1.91679e-06
1.17888e-06
-2.32379e-06
1.27778e-06
-2.75318e-06
1.36055e-06
-3.20198e-06
1.43095e-06
-3.66805e-06
1.49273e-06
-4.15004e-06
1.54926e-06
-4.64725e-06
1.60338e-06
-5.15944e-06
1.65728e-06
-5.68675e-06
1.71254e-06
-6.22955e-06
1.77018e-06
-6.78831e-06
1.83074e-06
-7.36357e-06
1.89441e-06
-7.95583e-06
1.96111e-06
-8.56556e-06
2.03059e-06
-9.19315e-06
2.10249e-06
-9.83889e-06
2.17641e-06
-1.0503e-05
2.25195e-06
-1.11857e-05
2.3287e-06
-1.1887e-05
2.40631e-06
-1.2607e-05
2.48441e-06
-1.33456e-05
2.56268e-06
-1.41028e-05
2.64077e-06
-1.48784e-05
2.71832e-06
-1.56721e-05
2.7949e-06
-1.64836e-05
2.87003e-06
-1.73123e-05
2.9431e-06
-1.81576e-05
3.01341e-06
-1.90186e-05
3.08008e-06
-1.9894e-05
3.1421e-06
-2.07824e-05
3.19827e-06
-2.16818e-05
3.24723e-06
-2.259e-05
3.28742e-06
-2.35041e-05
3.31714e-06
-2.44209e-05
3.3345e-06
-2.53365e-05
3.33749e-06
-2.62466e-05
3.32399e-06
-2.71461e-05
3.2918e-06
-2.80297e-05
3.23866e-06
-2.88911e-05
3.16236e-06
-2.97237e-05
3.06071e-06
-3.05204e-05
2.93166e-06
-3.12737e-05
2.77334e-06
-3.19755e-05
2.58412e-06
-3.26178e-05
2.36267e-06
-3.3192e-05
2.10805e-06
-3.36898e-05
1.81976e-06
-3.41026e-05
1.49778e-06
-3.44223e-05
1.14266e-06
-3.46409e-05
7.55527e-07
-3.4751e-05
3.38151e-07
-3.47458e-05
-1.07055e-07
-3.46191e-05
-5.77008e-07
-3.43657e-05
-1.06798e-06
-3.39814e-05
-1.57559e-06
-3.34633e-05
-2.09488e-06
-3.28096e-05
-2.62033e-06
-3.20199e-05
-3.14595e-06
-3.10953e-05
-3.66537e-06
-3.00385e-05
-4.17192e-06
-2.88538e-05
-4.65878e-06
-2.75468e-05
-5.11907e-06
-2.61252e-05
-5.54604e-06
-2.4598e-05
-5.93318e-06
-2.29756e-05
-6.27438e-06
-2.12702e-05
-6.56409e-06
-1.94949e-05
-6.79745e-06
-1.76641e-05
-6.97048e-06
-1.57931e-05
-7.08012e-06
-1.38979e-05
-7.1244e-06
-1.1995e-05
-7.1025e-06
-1.01009e-05
-7.01479e-06
-8.23211e-06
-6.86285e-06
-6.40482e-06
-6.64944e-06
-4.6344e-06
-6.37846e-06
-2.93527e-06
-6.05484e-06
-1.32068e-06
-5.68444e-06
1.97612e-07
-5.27384e-06
1.60945e-06
-4.83022e-06
2.90648e-06
-4.36113e-06
4.0822e-06
-3.87428e-06
5.13204e-06
-3.37735e-06
6.05335e-06
-2.87775e-06
6.84532e-06
-2.38251e-06
7.50892e-06
-1.89803e-06
8.04673e-06
-1.43003e-06
8.46277e-06
-9.83377e-07
8.76228e-06
-5.62066e-07
8.95155e-06
-1.69165e-07
9.03764e-06
1.93166e-07
9.02819e-06
5.23651e-07
8.93117e-06
8.21831e-07
8.75472e-06
1.08797e-06
8.50693e-06
1.32296e-06
8.19574e-06
1.52815e-06
7.82879e-06
1.70528e-06
7.41337e-06
1.85623e-06
6.95637e-06
1.98293e-06
6.46433e-06
2.08716e-06
5.94346e-06
2.17033e-06
5.3998e-06
2.23331e-06
4.83932e-06
2.27623e-06
4.26815e-06
2.29825e-06
3.69281e-06
2.29732e-06
3.12048e-06
2.27004e-06
2.55928e-06
2.21147e-06
2.01858e-06
2.11511e-06
1.50935e-06
1.97299e-06
1.0445e-06
1.77609e-06
6.39448e-07
1.5151e-06
3.13015e-07
1.1817e-06
8.90182e-08
7.70166e-07
2.81887e-07
-3.18051e-08
2.122e-08
-1.31216e-07
1.70456e-07
-2.98442e-07
3.86247e-07
-5.30363e-07
6.29402e-07
-8.21735e-07
8.74528e-07
-1.16612e-06
1.10503e-06
-1.55666e-06
1.31164e-06
-1.98671e-06
1.49068e-06
-2.45024e-06
1.64241e-06
-2.9421e-06
1.76964e-06
-3.45814e-06
1.8766e-06
-3.99523e-06
1.96804e-06
-4.55113e-06
2.04863e-06
-5.12444e-06
2.12257e-06
-5.71439e-06
2.19332e-06
-6.32068e-06
2.26357e-06
-6.94336e-06
2.33523e-06
-7.58271e-06
2.40953e-06
-8.23909e-06
2.48712e-06
-8.91291e-06
2.56823e-06
-9.60457e-06
2.65277e-06
-1.03144e-05
2.74043e-06
-1.10427e-05
2.8308e-06
-1.17897e-05
2.92343e-06
-1.25556e-05
3.01784e-06
-1.33405e-05
3.11362e-06
-1.41446e-05
3.21035e-06
-1.49678e-05
3.30767e-06
-1.58104e-05
3.40522e-06
-1.66723e-05
3.50264e-06
-1.75535e-05
3.59952e-06
-1.84539e-05
3.69538e-06
-1.93735e-05
3.78962e-06
-2.03119e-05
3.88151e-06
-2.12687e-05
3.97014e-06
-2.2243e-05
4.05442e-06
-2.32339e-05
4.13302e-06
-2.424e-05
4.20439e-06
-2.52596e-05
4.26675e-06
-2.62902e-05
4.31806e-06
-2.73292e-05
4.3561e-06
-2.83731e-05
4.37841e-06
-2.9418e-05
4.38237e-06
-3.04592e-05
4.36522e-06
-3.14915e-05
4.32412e-06
-3.2509e-05
4.25617e-06
-3.35052e-05
4.1585e-06
-3.44728e-05
4.02833e-06
-3.54042e-05
3.86304e-06
-3.62911e-05
3.66025e-06
-3.71248e-05
3.4179e-06
-3.78965e-05
3.13431e-06
-3.85967e-05
2.80829e-06
-3.92162e-05
2.4392e-06
-3.97454e-05
2.02702e-06
-4.01752e-05
1.57241e-06
-4.04964e-05
1.07677e-06
-4.07005e-05
5.42264e-07
-4.07794e-05
-2.81364e-08
-4.07258e-05
-6.30628e-07
-4.05332e-05
-1.26063e-06
-4.0196e-05
-1.91274e-06
-3.97101e-05
-2.58084e-06
-3.90723e-05
-3.2581e-06
-3.82812e-05
-3.9371e-06
-3.73366e-05
-4.6099e-06
-3.62403e-05
-5.2682e-06
-3.49957e-05
-5.90341e-06
-3.36079e-05
-6.50688e-06
-3.20839e-05
-7.07001e-06
-3.04326e-05
-7.58447e-06
-2.86647e-05
-8.04234e-06
-2.67924e-05
-8.43637e-06
-2.48297e-05
-8.7601e-06
-2.27921e-05
-9.00809e-06
-2.06962e-05
-9.17604e-06
-1.85596e-05
-9.26097e-06
-1.64008e-05
-9.26132e-06
-1.42386e-05
-9.17702e-06
-1.20919e-05
-9.00954e-06
-9.97949e-06
-8.76187e-06
-7.91946e-06
-8.43848e-06
-5.92908e-06
-8.04523e-06
-4.02435e-06
-7.58917e-06
-2.21977e-06
-7.07841e-06
-5.2809e-07
-6.5219e-06
1.03992e-06
-5.92914e-06
2.47557e-06
-5.30994e-06
3.77239e-06
-4.67417e-06
4.9261e-06
-4.03146e-06
5.93459e-06
-3.391e-06
6.79784e-06
-2.76129e-06
7.51777e-06
-2.14996e-06
8.09805e-06
-1.56365e-06
8.54386e-06
-1.00787e-06
8.86168e-06
-4.86983e-07
9.059e-06
-4.15832e-09
9.14409e-06
4.38557e-07
9.12573e-06
8.40191e-07
9.01297e-06
1.20073e-06
8.81493e-06
1.521e-06
8.54062e-06
1.80247e-06
8.19879e-06
2.04711e-06
7.79785e-06
2.25716e-06
7.34584e-06
2.43495e-06
6.85035e-06
2.58265e-06
6.31866e-06
2.70201e-06
5.75781e-06
2.79417e-06
5.1747e-06
2.85934e-06
4.57637e-06
2.89658e-06
3.97016e-06
2.90353e-06
3.36404e-06
2.87617e-06
2.76688e-06
2.80864e-06
2.18883e-06
2.69316e-06
1.64175e-06
2.52008e-06
1.13971e-06
2.27813e-06
6.99824e-07
1.95499e-06
3.43414e-07
1.53811e-06
9.78429e-08
1.01574e-06
3.7973e-07
-4.55611e-08
6.67811e-08
-1.80006e-07
3.04901e-07
-3.98151e-07
6.04392e-07
-6.92561e-07
9.23812e-07
-1.05464e-06
1.23661e-06
-1.47545e-06
1.52584e-06
-1.94636e-06
1.78255e-06
-2.4595e-06
2.00382e-06
-3.00806e-06
2.19098e-06
-3.58644e-06
2.34802e-06
-4.19023e-06
2.48038e-06
-4.81615e-06
2.59396e-06
-5.46192e-06
2.69441e-06
-6.12608e-06
2.78674e-06
-6.80783e-06
2.87507e-06
-7.5068e-06
2.96254e-06
-8.22296e-06
3.05139e-06
-8.95646e-06
3.14303e-06
-9.70756e-06
3.23822e-06
-1.04765e-05
3.3372e-06
-1.12636e-05
3.43987e-06
-1.20691e-05
3.5459e-06
-1.28931e-05
3.65485e-06
-1.37359e-05
3.76623e-06
-1.45977e-05
3.8796e-06
-1.54786e-05
3.99452e-06
-1.63789e-05
4.11062e-06
-1.72988e-05
4.22759e-06
-1.82387e-05
4.3451e-06
-1.91988e-05
4.46281e-06
-2.01797e-05
4.58033e-06
-2.11814e-05
4.69716e-06
-2.22044e-05
4.81263e-06
-2.32488e-05
4.92588e-06
-2.43145e-05
5.03583e-06
-2.54012e-05
5.14113e-06
-2.65083e-05
5.24014e-06
-2.76348e-05
5.33089e-06
-2.87792e-05
5.41116e-06
-2.99396e-05
5.47837e-06
-3.11132e-05
5.5297e-06
-3.22968e-05
5.56206e-06
-3.34866e-05
5.57212e-06
-3.46778e-05
5.55642e-06
-3.5865e-05
5.51136e-06
-3.70421e-05
5.43329e-06
-3.82023e-05
5.31862e-06
-3.93378e-05
5.16385e-06
-4.04404e-05
4.96567e-06
-4.15013e-05
4.72109e-06
-4.25108e-05
4.42748e-06
-4.34592e-05
4.08269e-06
-4.43361e-05
3.68517e-06
-4.51309e-05
3.23399e-06
-4.58329e-05
2.72901e-06
-4.64313e-05
2.17086e-06
-4.69156e-05
1.56108e-06
-4.72755e-05
9.02136e-07
-4.75011e-05
1.97445e-07
-4.75831e-05
-5.48568e-07
-4.75133e-05
-1.33052e-06
-4.7284e-05
-2.14203e-06
-4.6889e-05
-2.97583e-06
-4.63233e-05
-3.82375e-06
-4.55836e-05
-4.67687e-06
-4.46679e-05
-5.52559e-06
-4.35763e-05
-6.35977e-06
-4.23108e-05
-7.16891e-06
-4.08754e-05
-7.9423e-06
-3.92762e-05
-8.66921e-06
-3.75215e-05
-9.33915e-06
-3.56218e-05
-9.94206e-06
-3.35896e-05
-1.04685e-05
-3.14396e-05
-1.09101e-05
-2.91882e-05
-1.12595e-05
-2.68536e-05
-1.15107e-05
-2.44553e-05
-1.16592e-05
-2.20142e-05
-1.17024e-05
-1.95517e-05
-1.16395e-05
-1.70898e-05
-1.14714e-05
-1.46505e-05
-1.12012e-05
-1.22554e-05
-1.08336e-05
-9.92517e-06
-1.03754e-05
-7.67948e-06
-9.83485e-06
-5.53629e-06
-9.2216e-06
-3.51169e-06
-8.5465e-06
-1.61958e-06
-7.82126e-06
1.28555e-07
-7.05807e-06
1.72373e-06
-6.26934e-06
3.15956e-06
-5.46729e-06
4.43225e-06
-4.66369e-06
5.54051e-06
-3.86955e-06
6.48538e-06
-3.09484e-06
7.27007e-06
-2.34833e-06
7.89965e-06
-1.63745e-06
8.38083e-06
-9.68166e-07
8.72164e-06
-3.44965e-07
8.93109e-06
2.29099e-07
9.01894e-06
7.52344e-07
8.99534e-06
1.22433e-06
8.87063e-06
1.64571e-06
8.6551e-06
2.018e-06
8.35882e-06
2.34339e-06
7.9915e-06
2.62448e-06
7.56244e-06
2.86401e-06
7.08049e-06
3.06459e-06
6.55409e-06
3.22841e-06
5.99134e-06
3.35692e-06
5.40018e-06
3.4505e-06
4.78856e-06
3.5082e-06
4.16468e-06
3.52741e-06
3.53729e-06
3.50355e-06
2.91604e-06
3.42989e-06
2.31188e-06
3.29732e-06
1.73757e-06
3.09439e-06
1.20837e-06
2.80733e-06
7.42961e-07
2.42039e-06
3.64784e-07
1.91628e-06
1.03886e-07
1.27664e-06
4.83616e-07
-5.97963e-08
1.26577e-07
-2.30589e-07
4.75694e-07
-5.0161e-07
8.75413e-07
-8.60847e-07
1.28305e-06
-1.2961e-06
1.67186e-06
-1.79572e-06
2.02546e-06
-2.34912e-06
2.33595e-06
-2.94712e-06
2.60182e-06
-3.58205e-06
2.82591e-06
-4.24782e-06
3.01378e-06
-4.93973e-06
3.17229e-06
-5.65438e-06
3.30862e-06
-6.38946e-06
3.42948e-06
-7.14346e-06
3.54074e-06
-7.91552e-06
3.64713e-06
-8.70524e-06
3.75226e-06
-9.51249e-06
3.85864e-06
-1.03373e-05
3.96785e-06
-1.11798e-05
4.08072e-06
-1.20401e-05
4.19753e-06
-1.29185e-05
4.31819e-06
-1.38149e-05
4.44236e-06
-1.47297e-05
4.56963e-06
-1.5663e-05
4.69956e-06
-1.66152e-05
4.83175e-06
-1.75866e-05
4.96588e-06
-1.85776e-05
5.1017e-06
-1.9589e-05
5.23901e-06
-2.06216e-05
5.3776e-06
-2.1676e-05
5.51727e-06
-2.27533e-05
5.65767e-06
-2.38545e-05
5.79834e-06
-2.49805e-05
5.93859e-06
-2.61321e-05
6.07746e-06
-2.73099e-05
6.2137e-06
-2.85145e-05
6.34568e-06
-2.97458e-05
6.47142e-06
-3.10034e-05
6.58852e-06
-3.22865e-05
6.69423e-06
-3.35935e-05
6.78537e-06
-3.49222e-05
6.85844e-06
-3.62698e-05
6.90961e-06
-3.76324e-05
6.93476e-06
-3.90056e-05
6.92958e-06
-4.03838e-05
6.88961e-06
-4.17608e-05
6.81031e-06
-4.31294e-05
6.6872e-06
-4.44814e-05
6.51589e-06
-4.5808e-05
6.29225e-06
-4.70994e-05
6.01246e-06
-4.83451e-05
5.67315e-06
-4.95339e-05
5.27152e-06
-5.06541e-05
4.80541e-06
-5.16936e-05
4.27346e-06
-5.26397e-05
3.67514e-06
-5.34798e-05
3.01092e-06
-5.4201e-05
2.28228e-06
-5.47906e-05
1.4918e-06
-5.52364e-05
6.43239e-07
-5.55265e-05
-2.58485e-07
-5.56498e-05
-1.20725e-06
-5.55961e-05
-2.19575e-06
-5.53564e-05
-3.21554e-06
-5.4923e-05
-4.25708e-06
-5.42901e-05
-5.30982e-06
-5.34533e-05
-6.36237e-06
-5.24105e-05
-7.40255e-06
-5.11618e-05
-8.41766e-06
-4.97094e-05
-9.39464e-06
-4.80583e-05
-1.03203e-05
-4.6216e-05
-1.11815e-05
-4.41923e-05
-1.19657e-05
-4.2e-05
-1.26608e-05
-3.96543e-05
-1.32559e-05
-3.71727e-05
-1.37411e-05
-3.45751e-05
-1.41083e-05
-3.18832e-05
-1.43511e-05
-2.91206e-05
-1.44651e-05
-2.63118e-05
-1.44482e-05
-2.34826e-05
-1.43007e-05
-2.06588e-05
-1.40249e-05
-1.78664e-05
-1.36261e-05
-1.51304e-05
-1.31114e-05
-1.2475e-05
-1.24902e-05
-9.92265e-06
-1.1774e-05
-7.4937e-06
-1.09755e-05
-5.20611e-06
-1.01089e-05
-3.07509e-06
-9.18909e-06
-1.11291e-06
-8.23152e-06
6.71262e-07
-7.25146e-06
2.27135e-06
-6.26378e-06
3.68431e-06
-5.28251e-06
4.91002e-06
-4.32055e-06
5.95101e-06
-3.38932e-06
6.81216e-06
-2.49861e-06
7.50046e-06
-1.65646e-06
8.02455e-06
-8.69056e-07
8.39442e-06
-1.40768e-07
8.621e-06
5.25758e-07
8.71587e-06
1.12947e-06
8.69087e-06
1.67071e-06
8.5579e-06
2.15097e-06
8.32864e-06
2.57265e-06
8.01441e-06
2.9387e-06
7.62607e-06
3.25235e-06
7.17393e-06
3.51674e-06
6.6678e-06
3.73454e-06
6.11708e-06
3.90764e-06
5.53084e-06
4.03673e-06
4.91809e-06
4.12096e-06
4.28797e-06
4.15753e-06
3.65012e-06
4.14141e-06
3.01501e-06
4.065e-06
2.39445e-06
3.91788e-06
1.80216e-06
3.68668e-06
1.25454e-06
3.35495e-06
7.71687e-07
2.90325e-06
3.78755e-07
2.30922e-06
1.07712e-07
1.54768e-06
5.91328e-07
-7.43747e-08
2.00952e-07
-2.82401e-07
6.8372e-07
-6.07571e-07
1.20058e-06
-1.03311e-06
1.70859e-06
-1.54305e-06
2.1818e-06
-2.12288e-06
2.60528e-06
-2.75995e-06
2.97303e-06
-3.44368e-06
3.28554e-06
-4.16549e-06
3.54773e-06
-4.91876e-06
3.76704e-06
-5.69851e-06
3.95205e-06
-6.50122e-06
4.11132e-06
-7.32449e-06
4.25275e-06
-8.1668e-06
4.38305e-06
-9.02725e-06
4.50758e-06
-9.90537e-06
4.63037e-06
-1.08009e-05
4.7542e-06
-1.17139e-05
4.88077e-06
-1.26442e-05
5.01102e-06
-1.35919e-05
5.14526e-06
-1.45571e-05
5.28343e-06
-1.554e-05
5.42526e-06
-1.65408e-05
5.57043e-06
-1.75599e-05
5.71862e-06
-1.85978e-05
5.86962e-06
-1.96552e-05
6.02331e-06
-2.07331e-05
6.17966e-06
-2.18328e-05
6.33871e-06
-2.29557e-05
6.50051e-06
-2.41035e-05
6.66502e-06
-2.52779e-05
6.83208e-06
-2.64809e-05
7.00131e-06
-2.77143e-05
7.17204e-06
-2.89801e-05
7.34324e-06
-3.02799e-05
7.51347e-06
-3.1615e-05
7.68084e-06
-3.29866e-05
7.84297e-06
-3.4395e-05
7.99697e-06
-3.58403e-05
8.13949e-06
-3.73216e-05
8.26666e-06
-3.88373e-05
8.37418e-06
-4.03851e-05
8.45735e-06
-4.19614e-05
8.51112e-06
-4.3562e-05
8.53017e-06
-4.51814e-05
8.50899e-06
-4.68131e-05
8.44195e-06
-4.84493e-05
8.32348e-06
-5.00815e-05
8.14807e-06
-5.16998e-05
7.9105e-06
-5.32932e-05
7.60588e-06
-5.48499e-05
7.22985e-06
-5.6357e-05
6.77863e-06
-5.78008e-05
6.24924e-06
-5.91669e-05
5.63958e-06
-6.04403e-05
4.94852e-06
-6.16055e-05
4.17609e-06
-6.26468e-05
3.32353e-06
-6.35483e-05
2.39338e-06
-6.42947e-05
1.38956e-06
-6.48706e-05
3.17412e-07
-6.52615e-05
-8.16261e-07
-6.54541e-05
-2.00322e-06
-6.54358e-05
-3.23381e-06
-6.51959e-05
-4.497e-06
-6.47252e-05
-5.78051e-06
-6.40167e-05
-7.07088e-06
-6.30655e-05
-8.35372e-06
-6.18693e-05
-9.61381e-06
-6.04286e-05
-1.08354e-05
-5.87465e-05
-1.20024e-05
-5.68293e-05
-1.30987e-05
-5.46864e-05
-1.41086e-05
-5.23303e-05
-1.50169e-05
-4.97766e-05
-1.58096e-05
-4.70439e-05
-1.64738e-05
-4.41538e-05
-1.69984e-05
-4.11303e-05
-1.73746e-05
-3.79998e-05
-1.75956e-05
-3.47908e-05
-1.76573e-05
-3.15327e-05
-1.75587e-05
-2.82564e-05
-1.73013e-05
-2.49926e-05
-1.68899e-05
-2.17719e-05
-1.63321e-05
-1.86239e-05
-1.56382e-05
-1.55766e-05
-1.48212e-05
-1.26559e-05
-1.38962e-05
-9.88496e-06
-1.28798e-05
-7.28379e-06
-1.17903e-05
-4.86903e-06
-1.06463e-05
-2.65361e-06
-9.46688e-06
-6.4672e-07
-8.27066e-06
1.14618e-06
-7.07541e-06
2.72323e-06
-5.8976e-06
4.08592e-06
-4.752e-06
5.23877e-06
-3.65146e-06