/*--------------------------------*- C++ -*----------------------------------*\
| =========                 |                                                 |
| \\      /  F ield         | OpenFOAM: The Open Source CFD Toolbox           |
|  \\    /   O peration     | Version:  2406                                  |
|   \\  /    A nd           | Website:  www.openfoam.com                      |
|    \\/     M anipulation  |                                                 |
\*---------------------------------------------------------------------------*/
FoamFile
{
    version     2.0;
    format      ascii;
    arch        "LSB;label=32;scalar=64";
    class       surfaceScalarField;
    location    "11.9";
    object      phi;
}
// * * * * * * * * * * * * * * * * * * * * * * * * * * * * * * * * * * * * * //

dimensions      [0 3 -1 0 0 0 0];

oriented        oriented;

internalField   nonuniform List<scalar> 
28560
(
9.15006e-09
-9.15645e-09
1.63075e-08
-7.13055e-09
1.4442e-08
1.95709e-09
6.09326e-10
1.41031e-08
-2.40703e-08
2.4953e-08
-5.79617e-08
3.43786e-08
-9.89478e-08
4.14564e-08
-1.4515e-07
4.68284e-08
-1.95014e-07
5.04681e-08
-2.47281e-07
5.29668e-08
-3.01085e-07
5.44823e-08
-3.55776e-07
5.54226e-08
-4.10993e-07
5.59316e-08
-4.66502e-07
5.62528e-08
-5.22242e-07
5.64731e-08
-5.78211e-07
5.67186e-08
-6.34491e-07
5.70261e-08
-6.9118e-07
5.74483e-08
-7.4841e-07
5.79892e-08
-8.06299e-07
5.86612e-08
-8.64973e-07
5.94511e-08
-9.24534e-07
6.03511e-08
-9.85075e-07
6.1341e-08
-1.04667e-06
6.24045e-08
-1.10936e-06
6.35194e-08
-1.17319e-06
6.46663e-08
-1.23817e-06
6.58229e-08
-1.30428e-06
6.69687e-08
-1.37148e-06
6.80818e-08
-1.43974e-06
6.9141e-08
-1.50897e-06
7.01247e-08
-1.57908e-06
7.10112e-08
-1.64995e-06
7.17784e-08
-1.72144e-06
7.24045e-08
-1.79339e-06
7.28671e-08
-1.86562e-06
7.3144e-08
-1.93792e-06
7.32129e-08
-2.01006e-06
7.30515e-08
-2.08179e-06
7.2638e-08
-2.15286e-06
7.19508e-08
-2.22295e-06
7.09687e-08
-2.29177e-06
6.96715e-08
-2.35897e-06
6.80398e-08
-2.42422e-06
6.60551e-08
-2.48715e-06
6.37007e-08
-2.54738e-06
6.0961e-08
-2.60451e-06
5.78225e-08
-2.65814e-06
5.4274e-08
-2.70785e-06
5.03067e-08
-2.75322e-06
4.59145e-08
-2.79384e-06
4.10947e-08
-2.82928e-06
3.58482e-08
-2.85912e-06
3.018e-08
-2.88296e-06
2.40995e-08
-2.9004e-06
1.7621e-08
-2.91107e-06
1.07642e-08
-2.91461e-06
3.5542e-09
-2.91072e-06
-3.97771e-09
-2.8991e-06
-1.17941e-08
-2.87953e-06
-1.98514e-08
-2.85181e-06
-2.80996e-08
-2.8158e-06
-3.64824e-08
-2.77144e-06
-4.49378e-08
-2.71872e-06
-5.33985e-08
-2.65771e-06
-6.17922e-08
-2.58854e-06
-7.00429e-08
-2.51144e-06
-7.80718e-08
-2.42671e-06
-8.57982e-08
-2.33471e-06
-9.31413e-08
-2.23592e-06
-1.00022e-07
-2.13086e-06
-1.06362e-07
-2.02014e-06
-1.1209e-07
-1.90443e-06
-1.1714e-07
-1.78446e-06
-1.21451e-07
-1.66101e-06
-1.24974e-07
-1.53489e-06
-1.27669e-07
-1.40696e-06
-1.29506e-07
-1.27808e-06
-1.30468e-07
-1.14912e-06
-1.30551e-07
-1.02093e-06
-1.29761e-07
-8.94377e-07
-1.2812e-07
-7.70254e-07
-1.25658e-07
-6.49334e-07
-1.22418e-07
-5.32334e-07
-1.18452e-07
-4.19912e-07
-1.13822e-07
-3.12658e-07
-1.08594e-07
-2.11088e-07
-1.02843e-07
-1.15646e-07
-9.66436e-08
-2.66963e-08
-9.0075e-08
5.54734e-08
-8.32151e-08
1.30651e-07
-7.61401e-08
1.98697e-07
-6.89234e-08
2.59539e-07
-6.16335e-08
3.13168e-07
-5.43339e-08
3.59631e-07
-4.70811e-08
3.99023e-07
-3.99252e-08
4.31484e-07
-3.29082e-08
4.57184e-07
-2.6066e-08
4.76326e-07
-1.94254e-08
4.89129e-07
-1.30091e-08
4.95831e-07
-6.83006e-09
4.96674e-07
-9.01089e-10
4.91915e-07
4.77596e-09
4.81802e-07
1.01919e-08
4.66602e-07
1.53518e-08
4.46563e-07
2.02397e-08
4.21978e-07
2.48615e-08
3.93108e-07
2.91758e-08
3.60316e-07
3.31803e-08
3.2393e-07
3.6773e-08
2.84487e-07
3.99289e-08
2.42499e-07
4.24181e-08
1.9889e-07
4.41701e-08
1.54608e-07
4.46941e-08
1.11355e-07
4.38527e-08
7.10048e-08
4.06446e-08
3.65971e-08
3.49818e-08
1.14801e-08
2.51853e-08
-9.40324e-10
1.29139e-08
-9.41527e-10
7.38153e-09
-1.65611e-08
2.98864e-09
-2.71737e-09
-2.34629e-08
2.81266e-08
-7.62804e-08
6.66107e-08
-1.54253e-07
1.02233e-07
-2.54308e-07
1.33712e-07
-3.72422e-07
1.58552e-07
-5.04509e-07
1.77886e-07
-6.4704e-07
1.91783e-07
-7.96967e-07
2.01681e-07
-9.52041e-07
2.08241e-07
-1.11051e-06
2.12591e-07
-1.27127e-06
2.15331e-07
-1.43355e-06
2.17188e-07
-1.59701e-06
2.18548e-07
-1.76147e-06
2.19807e-07
-1.92699e-06
2.21154e-07
-2.0937e-06
2.22765e-07
-2.26182e-06
2.24696e-07
-2.43157e-06
2.26988e-07
-2.60319e-06
2.29625e-07
-2.77687e-06
2.32579e-07
-2.95281e-06
2.35795e-07
-3.13113e-06
2.39217e-07
-3.31191e-06
2.42773e-07
-3.49519e-06
2.46395e-07
-3.68094e-06
2.50006e-07
-3.8691e-06
2.53533e-07
-4.05954e-06
2.56896e-07
-4.25205e-06
2.60022e-07
-4.44642e-06
2.62829e-07
-4.64232e-06
2.65242e-07
-4.83941e-06
2.6718e-07
-5.03727e-06
2.68566e-07
-5.23542e-06
2.69319e-07
-5.43334e-06
2.69361e-07
-5.63044e-06
2.68614e-07
-5.82608e-06
2.67001e-07
-6.01957e-06
2.64447e-07
-6.21015e-06
2.6088e-07
-6.39704e-06
2.5623e-07
-6.57939e-06
2.50429e-07
-6.75631e-06
2.43417e-07
-6.92689e-06
2.35136e-07
-7.09016e-06
2.25535e-07
-7.24514e-06
2.1457e-07
-7.39081e-06
2.02203e-07
-7.52615e-06
1.88407e-07
-7.65011e-06
1.73162e-07
-7.76166e-06
1.56459e-07
-7.85976e-06
1.38303e-07
-7.94339e-06
1.1871e-07
-8.01155e-06
9.77085e-08
-8.06329e-06
7.53456e-08
-8.09769e-06
5.16828e-08
-8.11391e-06
2.67994e-08
-8.11117e-06
7.93243e-10
-8.08877e-06
-2.62188e-08
-8.04614e-06
-5.41002e-08
-7.98278e-06
-8.26945e-08
-7.89836e-06
-1.11826e-07
-7.79265e-06
-1.413e-07
-7.66561e-06
-1.70904e-07
-7.51734e-06
-2.00409e-07
-7.34811e-06
-2.29573e-07
-7.15838e-06
-2.58144e-07
-6.94879e-06
-2.8586e-07
-6.72015e-06
-3.12458e-07
-6.47348e-06
-3.37674e-07
-6.20997e-06
-3.61248e-07
-5.93097e-06
-3.82934e-07
-5.63801e-06
-4.02498e-07
-5.33276e-06
-4.19726e-07
-5.01703e-06
-4.3443e-07
-4.69272e-06
-4.46449e-07
-4.36184e-06
-4.55658e-07
-4.02645e-06
-4.61963e-07
-3.68866e-06
-4.65311e-07
-3.35056e-06
-4.65688e-07
-3.01426e-06
-4.6312e-07
-2.6818e-06
-4.5767e-07
-2.35517e-06
-4.4944e-07
-2.03623e-06
-4.38568e-07
-1.72676e-06
-4.25221e-07
-1.42838e-06
-4.09597e-07
-1.14257e-06
-3.91914e-07
-8.70638e-07
-3.72407e-07
-6.13724e-07
-3.51325e-07
-3.72786e-07
-3.28922e-07
-1.48606e-07
-3.05454e-07
5.8211e-08
-2.81171e-07
2.47231e-07
-2.56316e-07
4.1818e-07
-2.31116e-07
5.70935e-07
-2.05783e-07
7.05508e-07
-1.8051e-07
8.22031e-07
-1.55465e-07
9.20746e-07
-1.30797e-07
1.00198e-06
-1.06629e-07
1.06614e-06
-8.30607e-08
1.11368e-06
-6.0175e-08
1.14511e-06
-3.80298e-08
1.16098e-06
-1.66745e-08
1.16186e-06
3.86241e-09
1.14834e-06
2.35449e-08
1.12106e-06
4.23543e-08
1.08066e-06
6.02358e-08
1.02788e-06
7.71504e-08
9.63472e-07
9.29697e-08
8.88395e-07
1.07586e-07
8.03661e-07
1.20702e-07
7.10721e-07
1.32067e-07
6.1114e-07
1.41047e-07
5.07314e-07
1.47146e-07
4.01852e-07
1.49119e-07
2.98779e-07
1.46165e-07
2.02331e-07
1.36073e-07
1.18662e-07
1.18185e-07
5.33658e-08
8.95974e-08
1.28845e-08
5.3397e-08
1.14494e-08
-2.16353e-09
-1.45266e-08
-2.9808e-08
2.52283e-08
-9.23886e-08
9.06652e-08
-1.92587e-07
1.67301e-07
-3.28798e-07
2.38772e-07
-4.96536e-07
3.02179e-07
-6.90697e-07
3.53362e-07
-9.05681e-07
3.93775e-07
-1.13672e-06
4.23683e-07
-1.3795e-06
4.45468e-07
-1.6308e-06
4.60509e-07
-1.88799e-06
4.70841e-07
-2.14936e-06
4.77735e-07
-2.41367e-06
4.82568e-07
-2.68024e-06
4.86182e-07
-2.94871e-06
4.89359e-07
-3.21901e-06
4.92536e-07
-3.49122e-06
4.96071e-07
-3.76554e-06
5.00116e-07
-4.0422e-06
5.04769e-07
-4.32146e-06
5.10014e-07
-4.60354e-06
5.15806e-07
-4.88863e-06
5.22046e-07
-5.17685e-06
5.28618e-07
-5.46826e-06
5.35383e-07
-5.76285e-06
5.42197e-07
-6.06052e-06
5.48905e-07
-6.36108e-06
5.55351e-07
-6.66429e-06
5.61373e-07
-6.96979e-06
5.66808e-07
-7.27716e-06
5.71493e-07
-7.58586e-06
5.75262e-07
-7.89531e-06
5.77949e-07
-8.2048e-06
5.79389e-07
-8.51357e-06
5.79419e-07
-8.82074e-06
5.77874e-07
-9.12539e-06
5.74595e-07
-9.42649e-06
5.69427e-07
-9.72294e-06
5.62219e-07
-1.00136e-05
5.52827e-07
-1.02972e-05
5.41113e-07
-1.05725e-05
5.26952e-07
-1.08381e-05
5.10227e-07
-1.10926e-05
4.90834e-07
-1.13346e-05
4.68682e-07
-1.15627e-05
4.43697e-07
-1.17753e-05
4.1582e-07
-1.19709e-05
3.85012e-07
-1.21481e-05
3.51254e-07
-1.23054e-05
3.14551e-07
-1.24414e-05
2.74929e-07
-1.25545e-05
2.32444e-07
-1.26435e-05
1.87179e-07
-1.2707e-05
1.39247e-07
-1.27438e-05
8.87927e-08
-1.27529e-05
3.5997e-08
-1.27331e-05
-1.89251e-08
-1.26838e-05
-7.57218e-08
-1.2604e-05
-1.34104e-07
-1.24934e-05
-1.93745e-07
-1.23515e-05
-2.54282e-07
-1.21781e-05
-3.15318e-07
-1.19735e-05
-3.76423e-07
-1.17377e-05
-4.37139e-07
-1.14714e-05
-4.96982e-07
-1.11754e-05
-5.55451e-07
-1.08507e-05
-6.12033e-07
-1.04985e-05
-6.66209e-07
-1.01203e-05
-7.17464e-07
-9.7181e-06
-7.65296e-07
-9.29371e-06
-8.09223e-07
-8.84942e-06
-8.48794e-07
-8.38763e-06
-8.836e-07
-7.91095e-06
-9.13276e-07
-7.4221e-06
-9.37517e-07
-6.92395e-06
-9.5608e-07
-6.41942e-06
-9.68791e-07
-5.9115e-06
-9.75549e-07
-5.40318e-06
-9.7633e-07
-4.89743e-06
-9.71183e-07
-4.39714e-06
-9.60238e-07
-3.90513e-06
-9.43691e-07
-3.42407e-06
-9.21811e-07
-2.95649e-06
-8.94926e-07
-2.50471e-06
-8.63416e-07
-2.07087e-06
-8.27708e-07
-1.65687e-06
-7.88262e-07
-1.26438e-06
-7.45564e-07
-8.94836e-07
-7.00111e-07
-5.49407e-07
-6.52405e-07
-2.29039e-07
-6.02941e-07
6.55634e-08
-5.52196e-07
3.3392e-07
-5.00623e-07
5.75758e-07
-4.48646e-07
7.90999e-07
-3.96647e-07
9.79733e-07
-3.44971e-07
1.14221e-06
-2.93917e-07
1.27879e-06
-2.4374e-07
1.38998e-06
-1.94652e-07
1.47633e-06
-1.46826e-07
1.53852e-06
-1.00395e-07
1.57724e-06
-5.54712e-08
1.59327e-06
-1.21363e-08
1.58742e-06
2.9522e-08
1.56057e-06
6.94289e-08
1.51365e-06
1.07457e-07
1.44774e-06
1.4347e-07
1.36397e-06
1.77198e-07
1.26379e-06
2.08336e-07
1.14876e-06
2.363e-07
1.02108e-06
2.6046e-07
8.83112e-07
2.79648e-07
7.38362e-07
2.92705e-07
5.90584e-07
2.97501e-07
4.45352e-07
2.92263e-07
3.08249e-07
2.7359e-07
1.87453e-07
2.39856e-07
8.97785e-08
1.87266e-07
2.51935e-08
1.18867e-07
3.6569e-08
-1.58613e-08
1.0365e-09
-7.39899e-08
8.37785e-08
-1.80304e-07
1.96446e-07
-3.33748e-07
3.20812e-07
-5.31778e-07
4.36243e-07
-7.68304e-07
5.38444e-07
-1.03755e-06
6.21967e-07
-1.33282e-06
6.88553e-07
-1.64862e-06
7.38776e-07
-1.97976e-06
7.7598e-07
-2.32236e-06
8.02367e-07
-2.67318e-06
8.2096e-07
-3.03002e-06
8.33809e-07
-3.39122e-06
8.43034e-07
-3.75584e-06
8.50025e-07
-4.12326e-06
8.5602e-07
-4.49327e-06
8.61768e-07
-4.86582e-06
8.67852e-07
-5.24105e-06
8.74555e-07
-5.61912e-06
8.82048e-07
-6.00025e-06
8.90331e-07
-6.38459e-06
8.99341e-07
-6.7723e-06
9.08927e-07
-7.16343e-06
9.18908e-07
-7.55796e-06
9.29062e-07
-7.95578e-06
9.39154e-07
-8.35668e-06
9.48929e-07
-8.76034e-06
9.58127e-07
-9.16635e-06
9.66481e-07
-9.57417e-06
9.7372e-07
-9.98317e-06
9.7957e-07
-1.03926e-05
9.83757e-07
-1.08016e-05
9.86006e-07
-1.12092e-05
9.86045e-07
-1.16143e-05
9.83604e-07
-1.20158e-05
9.78419e-07
-1.24124e-05
9.70232e-07
-1.28027e-05
9.58795e-07
-1.31853e-05
9.43869e-07
-1.35586e-05
9.25233e-07
-1.39211e-05
9.02676e-07
-1.4271e-05
8.76009e-07
-1.46067e-05
8.45063e-07
-1.49264e-05
8.09689e-07
-1.52283e-05
7.69766e-07
-1.55105e-05
7.25199e-07
-1.57713e-05
6.75923e-07
-1.60089e-05
6.21903e-07
-1.62214e-05
5.63142e-07
-1.64071e-05
4.99676e-07
-1.65642e-05
4.31583e-07
-1.66912e-05
3.58983e-07
-1.67864e-05
2.82042e-07
-1.68484e-05
2.0097e-07
-1.68758e-05
1.16032e-07
-1.68674e-05
2.75408e-08
-1.68222e-05
-6.41335e-08
-1.67393e-05
-1.58567e-07
-1.66179e-05
-2.55279e-07
-1.64577e-05
-3.53734e-07
-1.62582e-05
-4.53342e-07
-1.60196e-05
-5.53462e-07
-1.5742e-05
-6.53406e-07
-1.5426e-05
-7.52444e-07
-1.50724e-05
-8.49813e-07
-1.46822e-05
-9.44723e-07
-1.42568e-05
-1.03637e-06
-1.3798e-05
-1.12394e-06
-1.33077e-05
-1.20663e-06
-1.2788e-05
-1.28367e-06
-1.22416e-05
-1.35431e-06
-1.16711e-05
-1.41785e-06
-1.10796e-05
-1.47366e-06
-1.04702e-05
-1.52118e-06
-9.84619e-06
-1.55994e-06
-9.21111e-06
-1.58957e-06
-8.56847e-06
-1.60981e-06
-7.92189e-06
-1.6205e-06
-7.27498e-06
-1.62161e-06
-6.63131e-06
-1.61323e-06
-5.9944e-06
-1.59555e-06
-5.36762e-06
-1.56889e-06
-4.75424e-06
-1.53366e-06
-4.15729e-06
-1.49038e-06
-3.57962e-06
-1.43964e-06
-3.02384e-06
-1.38211e-06
-2.49229e-06
-1.31851e-06
-1.98702e-06
-1.24959e-06
-1.50983e-06
-1.17615e-06
-1.0622e-06
-1.09896e-06
-6.4535e-07
-1.0188e-06
-2.60203e-07
-9.36439e-07
9.2571e-08
-8.52582e-07
4.12554e-07
-7.67903e-07
6.99559e-07
-6.83015e-07
9.53604e-07
-5.98468e-07
1.17489e-06
-5.14744e-07
1.36379e-06
-4.3226e-07
1.52079e-06
-3.51363e-07
1.64652e-06
-2.72342e-07
1.74168e-06
-1.95429e-07
1.80708e-06
-1.20819e-07
1.84361e-06
-4.86713e-08
1.85219e-06
2.08496e-08
1.83389e-06
8.75831e-08
1.78982e-06
1.51294e-07
1.72132e-06
2.11706e-07
1.62982e-06
2.68352e-07
1.51714e-06
3.20665e-07
1.38528e-06
3.677e-07
1.23698e-06
4.08353e-07
1.07522e-06
4.4084e-07
9.04297e-07
4.63233e-07
7.28682e-07
4.72472e-07
5.54956e-07
4.65707e-07
3.89406e-07
4.38412e-07
2.41545e-07
3.87727e-07
1.19056e-07
3.08872e-07
3.51382e-08
2.03264e-07
7.11287e-08
-2.99732e-08
3.06347e-08
-1.20749e-07
1.75388e-07
-2.7388e-07
3.49076e-07
-4.8353e-07
5.31076e-07
-7.45565e-07
6.98194e-07
-1.05182e-06
8.45241e-07
-1.39578e-06
9.6612e-07
-1.76969e-06
1.063e-06
-2.16755e-06
1.137e-06
-2.5835e-06
1.19248e-06
-3.01325e-06
1.23257e-06
-3.45308e-06
1.26135e-06
-3.90049e-06
1.28172e-06
-4.3535e-06
1.2966e-06
-4.81094e-06
1.30799e-06
-5.27198e-06
1.31762e-06
-5.73625e-06
1.3266e-06
-6.20359e-06
1.33575e-06
-6.67401e-06
1.34553e-06
-7.14757e-06
1.35618e-06
-7.62439e-06
1.36773e-06
-8.10455e-06
1.38009e-06
-8.5881e-06
1.39306e-06
-9.07497e-06
1.40639e-06
-9.56505e-06
1.41975e-06
-1.00581e-05
1.43281e-06
-1.05537e-05
1.44519e-06
-1.10515e-05
1.45651e-06
-1.15507e-05
1.46639e-06
-1.20508e-05
1.47441e-06
-1.25507e-05
1.48019e-06
-1.30496e-05
1.48332e-06
-1.35463e-05
1.48339e-06
-1.40396e-05
1.48002e-06
-1.45281e-05
1.47281e-06
-1.50104e-05
1.46139e-06
-1.54849e-05
1.44539e-06
-1.59499e-05
1.42447e-06
-1.64037e-05
1.3983e-06
-1.68444e-05
1.36657e-06
-1.727e-05
1.32901e-06
-1.76788e-05
1.28536e-06
-1.80685e-05
1.23543e-06
-1.84373e-05
1.17903e-06
-1.8783e-05
1.11602e-06
-1.91035e-05
1.0463e-06
-1.93969e-05
9.69825e-07
-1.96611e-05
8.86587e-07
-1.98942e-05
7.96632e-07
-2.00942e-05
7.00057e-07
-2.02592e-05
5.97015e-07
-2.03877e-05
4.8772e-07
-2.04778e-05
3.72446e-07
-2.05282e-05
2.51532e-07
-2.05374e-05
1.25387e-07
-2.05043e-05
-5.51079e-09
-2.04278e-05
-1.40611e-07
-2.03072e-05
-2.7929e-07
-2.01418e-05
-4.20847e-07
-1.99312e-05
-5.64509e-07
-1.96754e-05
-7.09434e-07
-1.93745e-05
-8.5471e-07
-1.9029e-05
-9.99364e-07
-1.86396e-05
-1.14237e-06
-1.82073e-05
-1.28266e-06
-1.77335e-05
-1.41912e-06
-1.722e-05
-1.55065e-06
-1.66686e-05
-1.6761e-06
-1.60817e-05
-1.79437e-06
-1.54619e-05
-1.90439e-06
-1.48121e-05
-2.00511e-06
-1.41353e-05
-2.09559e-06
-1.34351e-05
-2.17494e-06
-1.2715e-05
-2.24241e-06
-1.19787e-05
-2.29734e-06
-1.12301e-05
-2.33923e-06
-1.04734e-05
-2.36771e-06
-9.71247e-06
-2.38259e-06
-8.95143e-06
-2.38382e-06
-8.19431e-06
-2.37151e-06
-7.44505e-06
-2.34596e-06
-6.70746e-06
-2.3076e-06
-5.98521e-06
-2.25701e-06
-5.28174e-06
-2.19492e-06
-4.60027e-06
-2.12214e-06
-3.94374e-06
-2.03962e-06
-3.31482e-06
-1.94837e-06
-2.71587e-06
-1.84943e-06
-2.14892e-06
-1.74392e-06
-1.61572e-06
-1.63294e-06
-1.11766e-06
-1.51757e-06
-6.55856e-07
-1.39889e-06
-2.31116e-07
-1.27791e-06
1.56026e-07
-1.15557e-06
5.05292e-07
-1.03274e-06
8.16634e-07
-9.10206e-07
1.09021e-06
-7.88657e-07
1.32637e-06
-6.68687e-07
1.52559e-06
-5.50802e-07
1.68852e-06
-4.35423e-07
1.81589e-06
-3.22898e-07
1.90855e-06
-2.13522e-07
1.96744e-06
-1.0755e-07
1.99358e-06
-5.243e-09
1.98815e-06
9.31274e-08
1.9524e-06
1.87191e-07
1.88782e-06
2.76492e-07
1.79605e-06
3.60331e-07
1.6792e-06
4.37821e-07
1.53954e-06
5.0761e-07
1.38023e-06
5.6805e-07
1.20464e-06
6.16692e-07
1.01757e-06
6.50761e-07
8.23982e-07
6.66252e-07
6.31136e-07
6.59122e-07
4.4583e-07
6.23703e-07
2.78721e-07
5.5557e-07
1.38497e-07
4.48654e-07
4.11708e-08
3.01629e-07
1.11989e-07
-4.42551e-08
7.42758e-08
-1.68592e-07
3.00734e-07
-3.69833e-07
5.49395e-07
-6.36891e-07
7.98605e-07
-9.63599e-07
1.0243e-06
-1.33941e-06
1.22115e-06
-1.75699e-06
1.38321e-06
-2.20749e-06
1.51338e-06
-2.68454e-06
1.61361e-06
-3.18172e-06
1.6894e-06
-3.6945e-06
1.74493e-06
-4.21881e-06
1.78533e-06
-4.75193e-06
1.81444e-06
-5.29167e-06
1.83597e-06
-5.83666e-06
1.85257e-06
-6.38591e-06
1.86649e-06
-6.93891e-06
1.87919e-06
-7.49534e-06
1.89179e-06
-8.05509e-06
1.90487e-06
-8.6181e-06
1.91878e-06
-9.18437e-06
1.93357e-06
-9.75383e-06
1.94914e-06
-1.03264e-05
1.96522e-06
-1.09019e-05
1.98147e-06
-1.14801e-05
1.99747e-06
-1.20605e-05
2.01276e-06
-1.26426e-05
2.02683e-06
-1.32257e-05
2.03919e-06
-1.38091e-05
2.04929e-06
-1.43917e-05
2.05659e-06
-1.49726e-05
2.06056e-06
-1.55504e-05
2.06064e-06
-1.61238e-05
2.05631e-06
-1.66913e-05
2.04704e-06
-1.72513e-05
2.03231e-06
-1.7802e-05
2.01164e-06
-1.83416e-05
1.98454e-06
-1.88682e-05
1.95058e-06
-1.93797e-05
1.90934e-06
-1.98741e-05
1.86046e-06
-2.03491e-05
1.8036e-06
-2.08027e-05
1.73847e-06
-2.12325e-05
1.66483e-06
-2.16364e-05
1.5825e-06
-2.20121e-05
1.49134e-06
-2.23575e-05
1.39128e-06
-2.26704e-05
1.28231e-06
-2.29486e-05
1.16447e-06
-2.31901e-05
1.03789e-06
-2.33931e-05
9.02745e-07
-2.35556e-05
7.59289e-07
-2.3676e-05
6.07853e-07
-2.37525e-05
4.48845e-07
-2.37839e-05
2.82753e-07
-2.37687e-05
1.10149e-07
-2.3706e-05
-6.83077e-08
-2.35947e-05
-2.51868e-07
-2.34343e-05
-4.39694e-07
-2.32242e-05
-6.30853e-07
-2.29642e-05
-8.24325e-07
-2.26544e-05
-1.019e-06
-2.22952e-05
-1.21369e-06
-2.18871e-05
-1.40713e-06
-2.14311e-05
-1.59798e-06
-2.09285e-05
-1.78485e-06
-2.03809e-05
-1.96633e-06
-1.979e-05
-2.14096e-06
-1.91583e-05
-2.30729e-06
-1.84881e-05
-2.4639e-06
-1.77825e-05
-2.60938e-06
-1.70445e-05
-2.74241e-06
-1.62776e-05
-2.86176e-06
-1.54855e-05
-2.9663e-06
-1.46721e-05
-3.05504e-06
-1.38415e-05
-3.12716e-06
-1.29979e-05
-3.182e-06
-1.21457e-05
-3.21909e-06
-1.12893e-05
-3.23818e-06
-1.04331e-05
-3.2392e-06
-9.58146e-06
-3.22233e-06
-8.73868e-06
-3.18793e-06
-7.90891e-06
-3.13657e-06
-7.09613e-06
-3.06901e-06
-6.30411e-06
-2.98618e-06
-5.53633e-06
-2.88918e-06
-4.79603e-06
-2.77922e-06
-4.08611e-06
-2.65762e-06
-3.40915e-06
-2.52576e-06
-2.76739e-06
-2.38509e-06
-2.16273e-06
-2.23705e-06
-1.59673e-06
-2.08307e-06
-1.07061e-06
-1.92455e-06
-5.85277e-07
-1.76282e-06
-1.41347e-07
-1.59913e-06
2.60853e-07
-1.43461e-06
6.21236e-07
-1.27031e-06
9.39943e-07
-1.10712e-06
1.2173e-06
-9.45853e-07
1.45382e-06
-7.87166e-07
1.65014e-06
-6.31629e-07
1.80702e-06
-4.79712e-07
1.92535e-06
-3.31823e-07
2.00613e-06
-1.88323e-07
2.05042e-06
-4.9582e-08
2.05948e-06
8.40023e-08
2.03464e-06
2.11905e-07
1.97755e-06
3.33469e-07
1.88996e-06
4.47732e-07
1.77416e-06
5.5346e-07
1.63266e-06
6.48858e-07
1.46885e-06
7.31697e-07
1.28636e-06
7.98843e-07
1.09037e-06
8.46632e-07
8.86103e-07
8.70095e-07
6.81312e-07
8.6393e-07
4.83193e-07
8.21242e-07
3.03293e-07
7.35787e-07
1.51231e-07
5.99817e-07
4.50203e-08
4.08645e-07
1.5639e-07
-5.77979e-08
1.31376e-07
-2.14961e-07
4.59303e-07
-4.63761e-07
7.97195e-07
-7.87816e-07
1.12351e-06
-1.17865e-06
1.41471e-06
-1.62312e-06
1.66617e-06
-2.11286e-06
1.87285e-06
-2.63788e-06
2.03881e-06
-3.19141e-06
2.16722e-06
-3.76652e-06
2.26485e-06
-4.35848e-06
2.33708e-06
-4.96299e-06
2.39016e-06
-5.57721e-06
2.42889e-06
-6.19874e-06
2.45781e-06
-6.82614e-06
2.48022e-06
-7.45824e-06
2.4989e-06
-8.09444e-06
2.51566e-06
-8.73425e-06
2.5319e-06
-9.37745e-06
2.54835e-06
-1.00238e-05
2.56546e-06
-1.06732e-05
2.58329e-06
-1.13255e-05
2.60171e-06
-1.19804e-05
2.62038e-06
-1.26375e-05
2.63889e-06
-1.32964e-05
2.65668e-06
-1.39565e-05
2.67318e-06
-1.46171e-05
2.68774e-06
-1.52773e-05
2.69971e-06
-1.5936e-05
2.7084e-06
-1.65922e-05
2.71312e-06
-1.72445e-05
2.71318e-06
-1.78914e-05
2.70789e-06
-1.85313e-05
2.69657e-06
-1.91625e-05
2.67858e-06
-1.97831e-05
2.65325e-06
-2.03911e-05
2.62e-06
-2.09845e-05
2.57825e-06
-2.1561e-05
2.52747e-06
-2.21185e-05
2.46717e-06
-2.26547e-05
2.39694e-06
-2.31671e-05
2.31641e-06
-2.36536e-05
2.22526e-06
-2.41117e-05
2.12326e-06
-2.45392e-05
2.01024e-06
-2.49337e-05
1.8861e-06
-2.52929e-05
1.75082e-06
-2.56148e-05
1.60445e-06
-2.58972e-05
1.44713e-06
-2.61382e-05
1.27905e-06
-2.63358e-05
1.10052e-06
-2.64882e-05
9.11915e-07
-2.65939e-05
7.13697e-07
-2.66514e-05
5.06421e-07
-2.66593e-05
2.90737e-07
-2.66164e-05
6.73899e-08
-2.65219e-05
-1.62774e-07
-2.6375e-05
-3.98804e-07
-2.61751e-05
-6.39645e-07
-2.59219e-05
-8.84134e-07
-2.56153e-05
-1.131e-06
-2.52556e-05
-1.37888e-06
-2.48432e-05
-1.6263e-06
-2.43788e-05
-1.8717e-06
-2.38636e-05
-2.11344e-06
-2.3299e-05
-2.34981e-06
-2.26866e-05
-2.57907e-06
-2.20285e-05
-2.79942e-06
-2.13271e-05
-3.0091e-06
-2.05851e-05
-3.20632e-06
-1.98055e-05
-3.38937e-06
-1.89918e-05
-3.55662e-06
-1.81476e-05
-3.70654e-06
-1.72767e-05
-3.83772e-06
-1.63833e-05
-3.94896e-06
-1.54718e-05
-4.03921e-06
-1.45467e-05
-4.10766e-06
-1.36127e-05
-4.15372e-06
-1.26744e-05
-4.17706e-06
-1.17366e-05
-4.17762e-06
-1.08039e-05
-4.15559e-06
-9.88099e-06
-4.11142e-06
-8.97229e-06
-4.04583e-06
-8.08208e-06
-3.95977e-06
-7.21441e-06
-3.8544e-06
-6.37303e-06
-3.73109e-06
-5.5614e-06
-3.59135e-06
-4.78265e-06
-3.43685e-06
-4.03954e-06
-3.26932e-06
-3.33448e-06
-3.09057e-06
-2.66949e-06
-2.90243e-06
-2.04624e-06
-2.70668e-06
-1.46602e-06
-2.5051e-06
-9.29789e-07
-2.29935e-06
-4.38186e-07
-2.091e-06
8.45027e-09
-1.88148e-06
4.10043e-07
-1.6721e-06
7.66755e-07
-1.46401e-06
1.07895e-06
-1.25819e-06
1.34717e-06
-1.0555e-06
1.5721e-06
-8.56641e-07
1.75456e-06
-6.62226e-07
1.89548e-06
-4.72773e-07
1.99592e-06
-2.88752e-07
2.057e-06
-1.10645e-07
2.08005e-06
6.10152e-08
2.06647e-06
2.25543e-07
2.01799e-06
3.82064e-07
1.93647e-06
5.29345e-07
1.82431e-06
6.6578e-07
1.68415e-06
7.89116e-07
1.51956e-06
8.96521e-07
1.33432e-06
9.84152e-07
1.13384e-06
1.04742e-06
9.23548e-07
1.08036e-06
7.1158e-07
1.07633e-06
5.05497e-07
1.02709e-06
3.17579e-07
9.24387e-07
1.58255e-07
7.58474e-07
4.68781e-08
5.21123e-07
2.02817e-07
-7.08621e-08
2.01322e-07
-2.59937e-07
6.49987e-07
-5.55158e-07
1.09107e-06
-9.34981e-07
1.50417e-06
-1.38851e-06
1.8675e-06
-1.89992e-06
2.17793e-06
-2.45972e-06
2.43218e-06
-3.05671e-06
2.63589e-06
-3.68369e-06
2.79388e-06
-4.33326e-06
2.91436e-06
-5.00054e-06
3.00409e-06
-5.68101e-06
3.07051e-06
-6.37178e-06
3.11941e-06
-7.07031e-06
3.15618e-06
-7.77507e-06
3.18476e-06
-8.4848e-06
3.20844e-06
-9.19877e-06
3.22942e-06
-9.91638e-06
3.24931e-06
-1.06373e-05
3.26902e-06
-1.13611e-05
3.28907e-06
-1.20875e-05
3.30952e-06
-1.28162e-05
3.33021e-06
-1.35468e-05
3.35074e-06
-1.42787e-05
3.37057e-06
-1.50113e-05
3.38905e-06
-1.57438e-05
3.40544e-06
-1.64753e-05
3.41898e-06
-1.72046e-05
3.42883e-06
-1.79306e-05
3.43416e-06
-1.86519e-05
3.43413e-06
-1.93668e-05
3.42788e-06
-2.00738e-05
3.41459e-06
-2.07709e-05
3.39343e-06
-2.14562e-05
3.36362e-06
-2.21276e-05
3.3244e-06
-2.27829e-05
3.27507e-06
-2.34198e-05
3.21496e-06
-2.40361e-05
3.14348e-06
-2.46293e-05
3.0601e-06
-2.51969e-05
2.96437e-06
-2.57367e-05
2.85591e-06
-2.6246e-05
2.73441e-06
-2.67227e-05
2.59968e-06
-2.71642e-05
2.45159e-06
-2.75684e-05
2.2901e-06
-2.79331e-05
2.11528e-06
-2.82561e-05
1.92727e-06
-2.85354e-05
1.72631e-06
-2.87693e-05
1.51272e-06
-2.89558e-05
1.28693e-06
-2.90935e-05
1.04946e-06
-2.91808e-05
8.00898e-07
-2.92164e-05
5.41964e-07
-2.91992e-05
2.73465e-07
-2.91282e-05
-3.68371e-09
-2.90025e-05
-2.88458e-07
-2.88216e-05
-5.79718e-07
-2.8585e-05
-8.76206e-07
-2.82925e-05
-1.17654e-06
-2.79442e-05
-1.47923e-06
-2.75403e-05
-1.78265e-06
-2.70814e-05
-2.08507e-06
-2.65683e-05
-2.38465e-06
-2.60021e-05
-2.67945e-06
-2.53843e-05
-2.96746e-06
-2.47165e-05
-3.24659e-06
-2.40009e-05
-3.51473e-06
-2.324e-05
-3.76974e-06
-2.24365e-05
-4.00953e-06
-2.15935e-05
-4.23203e-06
-2.07145e-05
-4.43526e-06
-1.98033e-05
-4.61738e-06
-1.88639e-05
-4.7767e-06
-1.79008e-05
-4.91172e-06
-1.69184e-05
-5.02118e-06
-1.59216e-05
-5.10407e-06
-1.49152e-05
-5.15966e-06
-1.39043e-05
-5.18754e-06
-1.28939e-05
-5.18759e-06
-1.18891e-05
-5.16003e-06
-1.08947e-05
-5.10541e-06
-9.91554e-06
-5.02457e-06
-8.95624e-06
-4.91867e-06
-8.02115e-06
-4.78911e-06
-7.11431e-06
-4.63756e-06
-6.23944e-06
-4.46586e-06
-5.3999e-06
-4.27605e-06
-4.59863e-06
-4.07026e-06
-3.83821e-06
-3.8507e-06
-3.12077e-06
-3.61959e-06
-2.44804e-06
-3.37915e-06
-1.82139e-06
-3.13152e-06
-1.24176e-06
-2.87876e-06
-7.09786e-07
-2.62278e-06
-2.25759e-07
-2.36534e-06
2.10306e-07
-2.10802e-06
5.98649e-07
-1.85223e-06
9.39719e-07
-1.59916e-06
1.23415e-06
-1.34985e-06
1.48273e-06
-1.10516e-06
1.68638e-06
-8.6583e-07
1.8461e-06
-6.32481e-07
1.96304e-06
-4.05691e-07
2.03843e-06
-1.86054e-07
2.07364e-06
2.57712e-08
2.07018e-06
2.28938e-07
2.02984e-06
4.22359e-07
1.95455e-06
6.04523e-07
1.84682e-06
7.73452e-07
1.70935e-06
9.26429e-07
1.54583e-06
1.06001e-06
1.36014e-06
1.16962e-06
1.15785e-06
1.24974e-06
9.44546e-07
1.29334e-06
7.28632e-07
1.29242e-06
5.17986e-07
1.23723e-06
3.25424e-07
1.11742e-06
1.61991e-07
9.21011e-07
4.78018e-08
6.36271e-07
2.50002e-07
-8.31903e-08
2.83501e-07
-3.0278e-07
8.71529e-07
-6.42651e-07
1.42948e-06
-1.07632e-06
1.93896e-06
-1.59048e-06
2.38097e-06
-2.1666e-06
2.75467e-06
-2.79397e-06
3.05925e-06
-3.46016e-06
3.30247e-06
-4.1575e-06
3.49114e-06
-4.87808e-06
3.6352e-06
-5.6169e-06
3.74294e-06
-6.36926e-06
3.82307e-06
-7.13219e-06
3.88243e-06
-7.90309e-06
3.92726e-06
-8.68037e-06
3.96216e-06
-9.46267e-06
3.99091e-06
-1.02492e-05
4.01605e-06
-1.10392e-05
4.03945e-06
-1.18321e-05
4.06214e-06
-1.26276e-05
4.0847e-06
-1.34251e-05
4.10719e-06
-1.42242e-05
4.12941e-06
-1.50241e-05
4.15086e-06
-1.58243e-05
4.17091e-06
-1.66239e-05
4.18876e-06
-1.74218e-05
4.20355e-06
-1.8217e-05
4.21433e-06
-1.90081e-05
4.22012e-06
-1.97937e-05
4.21994e-06
-2.05722e-05
4.21278e-06
-2.13418e-05
4.19763e-06
-2.21006e-05
4.17352e-06
-2.28464e-05
4.13949e-06
-2.35773e-05
4.09464e-06
-2.42908e-05
4.03811e-06
-2.49847e-05
3.96911e-06
-2.56565e-05
3.88692e-06
-2.63037e-05
3.79088e-06
-2.69239e-05
3.68047e-06
-2.75145e-05
3.55521e-06
-2.80732e-05
3.41476e-06
-2.85975e-05
3.25886e-06
-2.9085e-05
3.08737e-06
-2.95335e-05
2.90025e-06
-2.99409e-05
2.69756e-06
-3.03049e-05
2.47946e-06
-3.06237e-05
2.24624e-06
-3.08955e-05
1.99824e-06
-3.11187e-05
1.73594e-06
-3.12915e-05
1.45988e-06
-3.14127e-05
1.17074e-06
-3.1481e-05
8.69241e-07
-3.14952e-05
5.56251e-07
-3.14544e-05
2.32721e-07
-3.13578e-05
-1.00286e-07
-3.12046e-05
-4.4159e-07
-3.09945e-05
-7.89891e-07
-3.07269e-05
-1.14376e-06
-3.04019e-05
-1.50163e-06
-3.00194e-05
-1.86181e-06
-2.95797e-05
-2.22246e-06
-2.90832e-05
-2.58161e-06
-2.85308e-05
-2.93716e-06
-2.79235e-05
-3.2869e-06
-2.72626e-05
-3.6285e-06
-2.65498e-05
-3.95957e-06
-2.57871e-05
-4.27764e-06
-2.49768e-05
-4.58023e-06
-2.41217e-05
-4.86486e-06
-2.32249e-05
-5.12909e-06
-2.22898e-05
-5.37059e-06
-2.13203e-05
-5.58715e-06
-2.03205e-05
-5.77672e-06
-1.9295e-05
-5.9375e-06
-1.82486e-05
-6.06793e-06
-1.71862e-05
-6.16677e-06
-1.61131e-05
-6.23309e-06
-1.50345e-05
-6.26635e-06
-1.39561e-05
-6.26637e-06
-1.2883e-05
-6.23336e-06
-1.18208e-05
-6.16794e-06
-1.07746e-05
-6.07108e-06
-9.7494e-06
-5.94413e-06
-8.75e-06
-5.78879e-06
-7.7808e-06
-5.60702e-06
-6.84585e-06
-5.40106e-06
-5.94881e-06
-5.17334e-06
-5.09288e-06
-4.92643e-06
-4.2808e-06
-4.663e-06
-3.51485e-06
-4.38574e-06
-2.79686e-06
-4.09732e-06
-2.1282e-06
-3.80035e-06
-1.50983e-06
-3.49729e-06
-9.42307e-07
-3.19044e-06
-4.25831e-07
-2.88194e-06
3.97027e-08
-2.57366e-06
4.54678e-07
-2.26729e-06
8.19701e-07
-1.96426e-06
1.13557e-06
-1.66578e-06
1.40324e-06
-1.37288e-06
1.62378e-06
-1.0864e-06
1.79837e-06
-8.07083e-07
1.92827e-06
-5.35596e-07
2.01485e-06
-2.72627e-07
2.05961e-06
-1.89504e-08
2.06413e-06
2.24441e-07
2.03029e-06
4.56257e-07
1.96013e-06
6.7472e-07
1.8562e-06
8.77487e-07
1.72127e-06
1.06138e-06
1.5591e-06
1.22232e-06
1.37367e-06
1.35503e-06
1.17064e-06
1.453e-06
9.55723e-07
1.50813e-06
7.37554e-07
1.51096e-06
5.24274e-07
1.45017e-06
3.29096e-07
1.31325e-06
1.63502e-07
1.08584e-06
4.80146e-08
7.52864e-07
2.975e-07
-9.49795e-08
3.77284e-07
-3.43749e-07
1.12246e-06
-7.26377e-07
1.81036e-06
-1.21169e-06
2.42545e-06
-1.78403e-06
2.95239e-06
-2.4222e-06
3.3934e-06
-3.11429e-06
3.75083e-06
-3.84661e-06
4.03503e-06
-4.611e-06
4.25522e-06
-5.39903e-06
4.42331e-06
-6.20559e-06
4.5493e-06
-7.02577e-06
4.64324e-06
-7.85661e-06
4.71311e-06
-8.6954e-06
4.76599e-06
-9.54053e-06
4.80716e-06
-1.03906e-05
4.84085e-06
-1.12446e-05
4.86995e-06
-1.21018e-05
4.89654e-06
-1.29615e-05
4.92176e-06
-1.38231e-05
4.94624e-06
-1.46861e-05
4.97003e-06
-1.55497e-05
4.99286e-06
-1.64131e-05
5.01414e-06
-1.72754e-05
5.03312e-06
-1.81356e-05
5.04886e-06
-1.89925e-05
5.06034e-06
-1.98448e-05
5.06646e-06
-2.06908e-05
5.0661e-06
-2.15291e-05
5.05808e-06
-2.23577e-05
5.04125e-06
-2.31747e-05
5.01446e-06
-2.39779e-05
4.97659e-06
-2.47651e-05
4.92658e-06
-2.5534e-05
4.86341e-06
-2.62821e-05
4.78614e-06
-2.70071e-05
4.69392e-06
-2.77062e-05
4.58598e-06
-2.83772e-05
4.46168e-06
-2.90173e-05
4.32047e-06
-2.96241e-05
4.16195e-06
-3.01953e-05
3.98581e-06
-3.07285e-05
3.79189e-06
-3.12214e-05
3.58015e-06
-3.16719e-05
3.35066e-06
-3.2078e-05
3.10361e-06
-3.2438e-05
2.83931e-06
-3.275e-05
2.55818e-06
-3.30126e-05
2.26072e-06
-3.32242e-05
1.94753e-06
-3.33838e-05
1.61932e-06
-3.34899e-05
1.27686e-06
-3.35418e-05
9.21038e-07
-3.35384e-05
5.52818e-07
-3.3479e-05
1.73269e-07
-3.33628e-05
-2.16435e-07
-3.31894e-05
-6.15005e-07
-3.29583e-05
-1.02103e-06
-3.26691e-05
-1.43295e-06
-3.23216e-05
-1.84909e-06
-3.19158e-05
-2.26759e-06
-3.14517e-05
-2.68644e-06
-3.09298e-05
-3.10349e-06
-3.03504e-05
-3.51642e-06
-2.97145e-05
-3.92274e-06
-2.9023e-05
-4.31986e-06
-2.82774e-05
-4.70506e-06
-2.74794e-05
-5.07552e-06
-2.66311e-05
-5.42838e-06
-2.5735e-05
-5.76077e-06
-2.47941e-05
-6.06984e-06
-2.38117e-05
-6.3528e-06
-2.27916e-05
-6.60703e-06
-2.17381e-05
-6.83006e-06
-2.06557e-05
-7.01969e-06
-1.95494e-05
-7.174e-06
-1.84246e-05
-7.29143e-06
-1.72867e-05
-7.37077e-06
-1.61415e-05
-7.41129e-06
-1.4995e-05
-7.41267e-06
-1.38531e-05
-7.37509e-06
-1.27216e-05
-7.29917e-06
-1.16065e-05
-7.18603e-06
-1.05132e-05
-7.03722e-06
-9.44707e-06
-6.8547e-06
-8.41309e-06
-6.64081e-06
-7.41578e-06
-6.39819e-06
-6.45921e-06
-6.12974e-06
-5.54694e-06
-5.83854e-06