/*--------------------------------*- C++ -*----------------------------------*\
| =========                 |                                                 |
| \\      /  F ield         | OpenFOAM: The Open Source CFD Toolbox           |
|  \\    /   O peration     | Version:  2406                                  |
|   \\  /    A nd           | Website:  www.openfoam.com                      |
|    \\/     M anipulation  |                                                 |
\*---------------------------------------------------------------------------*/
FoamFile
{
    version     2.0;
    format      ascii;
    arch        "LSB;label=32;scalar=64";
    class       volVectorField;
    location    "40.75";
    object      U;
}
// * * * * * * * * * * * * * * * * * * * * * * * * * * * * * * * * * * * * * //

dimensions      [0 1 -1 0 0 0 0];

internalField   nonuniform List<vector> 
14400
(
(-1.88298e-05 1.87856e-05 0)
(-3.31669e-06 -1.08119e-05 0)
(0.000107566 -4.35618e-05 0)
(0.000300395 -7.28209e-05 0)
(0.000563459 -9.03476e-05 0)
(0.000862353 -0.000100141 0)
(0.00118121 -0.000101171 0)
(0.00149283 -9.6584e-05 0)
(0.0017858 -8.69275e-05 0)
(0.00204428 -7.46375e-05 0)
(0.0022641 -6.07755e-05 0)
(0.00244033 -4.7115e-05 0)
(0.00257573 -3.45235e-05 0)
(0.00267315 -2.39768e-05 0)
(0.00273951 -1.57963e-05 0)
(0.00278117 -1.01867e-05 0)
(0.0028056 -6.911e-06 0)
(0.00281865 -5.60398e-06 0)
(0.00282536 -5.66251e-06 0)
(0.00282849 -6.44669e-06 0)
(0.00282907 -7.26754e-06 0)
(0.00282595 -7.51783e-06 0)
(0.00281637 -6.68148e-06 0)
(0.00279602 -4.39403e-06 0)
(0.0027597 -4.23764e-07 0)
(0.00270152 5.33512e-06 0)
(0.00261533 1.29126e-05 0)
(0.00249484 2.22996e-05 0)
(0.00233373 3.3492e-05 0)
(0.00212564 4.651e-05 0)
(0.00186411 6.14074e-05 0)
(0.00154255 7.82608e-05 0)
(0.00115421 9.71534e-05 0)
(0.000692276 0.000118154 0)
(0.000149922 0.000141296 0)
(-0.000479487 0.000166569 0)
(-0.00120221 0.000193899 0)
(-0.00202392 0.000223148 0)
(-0.00294943 0.000254107 0)
(-0.00398247 0.000286492 0)
(-0.00512542 0.000319943 0)
(-0.00637906 0.000354024 0)
(-0.00774239 0.000388231 0)
(-0.00921235 0.00042199 0)
(-0.0107837 0.000454674 0)
(-0.0124491 0.000485606 0)
(-0.0141984 0.000514075 0)
(-0.0160195 0.00053935 0)
(-0.0178979 0.000560688 0)
(-0.0198165 0.000577349 0)
(-0.0217564 0.000588612 0)
(-0.0236967 0.000593777 0)
(-0.0256147 0.000592182 0)
(-0.0274861 0.000583208 0)
(-0.0292856 0.000566294 0)
(-0.0309867 0.000540942 0)
(-0.0325626 0.000506733 0)
(-0.033986 0.000463348 0)
(-0.0352299 0.000410583 0)
(-0.0362679 0.000348373 0)
(-0.0370745 0.000276824 0)
(-0.0376258 0.000196237 0)
(-0.0379001 0.00010714 0)
(-0.0378781 1.03183e-05 0)
(-0.0375439 -9.31634e-05 0)
(-0.0368857 -0.000201938 0)
(-0.035896 -0.000314329 0)
(-0.0345726 -0.000428354 0)
(-0.0329192 -0.000541741 0)
(-0.0309457 -0.000651972 0)
(-0.0286687 -0.000756342 0)
(-0.0261117 -0.000852038 0)
(-0.0233053 -0.000936244 0)
(-0.0202865 -0.00100626 0)
(-0.0170989 -0.00105964 0)
(-0.0137913 -0.00109432 0)
(-0.0104169 -0.00110877 0)
(-0.007032 -0.00110209 0)
(-0.00369412 -0.00107412 0)
(-0.000460522 -0.00102549 0)
(0.00261383 -0.00095763 0)
(0.00547811 -0.000872724 0)
(0.00808743 -0.000773627 0)
(0.0104044 -0.000663721 0)
(0.0124003 -0.000546733 0)
(0.014056 -0.000426535 0)
(0.0153625 -0.000306936 0)
(0.0163207 -0.000191483 0)
(0.0169408 -8.32887e-05 0)
(0.0172414 1.50998e-05 0)
(0.0172487 0.000101781 0)
(0.016994 0.000175529 0)
(0.0165131 0.000235779 0)
(0.0158435 0.000282566 0)
(0.0150239 0.000316442 0)
(0.0140918 0.000338368 0)
(0.0130825 0.000349609 0)
(0.0120286 0.00035161 0)
(0.0109584 0.000345922 0)
(0.00989637 0.000334082 0)
(0.00886223 0.000317582 0)
(0.00787162 0.000297769 0)
(0.00693584 0.000275873 0)
(0.00606277 0.000252905 0)
(0.00525659 0.000229768 0)
(0.00451928 0.000207112 0)
(0.00384975 0.000185558 0)
(0.00324609 0.00016543 0)
(0.00270365 0.000147152 0)
(0.00221866 0.000130709 0)
(0.00178453 0.000116358 0)
(0.00139797 0.00010355 0)
(0.00105252 9.23007e-05 0)
(0.000748711 8.10851e-05 0)
(0.000483269 6.96637e-05 0)
(0.000264471 5.49936e-05 0)
(9.52644e-05 3.75181e-05 0)
(-9.25613e-06 1.35482e-05 0)
(-4.5241e-05 -8.76331e-06 0)
(-2.25008e-05 -2.20436e-05 0)
(9.52884e-06 4.03447e-06 0)
(0.000153841 -0.000157313 0)
(0.000495955 -0.00032349 0)
(0.000996794 -0.000471291 0)
(0.00164032 -0.000569057 0)
(0.00236085 -0.000624616 0)
(0.00312332 -0.000634697 0)
(0.00387203 -0.000610211 0)
(0.00457781 -0.000556371 0)
(0.00520627 -0.00048412 0)
(0.00574375 -0.000400963 0)
(0.00617805 -0.000315858 0)
(0.00651129 -0.00023482 0)
(0.00674791 -0.000163151 0)
(0.00690016 -0.000103494 0)
(0.00698037 -5.7074e-05 0)
(0.00700287 -2.30395e-05 0)
(0.00697923 6.63265e-07 0)
(0.00691885 1.72986e-05 0)
(0.00682643 3.06352e-05 0)
(0.00670252 4.46899e-05 0)
(0.00654279 6.31931e-05 0)
(0.00633894 8.93628e-05 0)
(0.00607906 0.000125653 0)
(0.00574876 0.000173753 0)
(0.00533186 0.00023465 0)
(0.00481122 0.000308827 0)
(0.00416918 0.000396464 0)
(0.00338795 0.000497633 0)
(0.00244971 0.000612406 0)
(0.00133676 0.000740886 0)
(3.16074e-05 0.000883158 0)
(-0.00148279 0.0010392 0)
(-0.00322273 0.00120876 0)
(-0.00520324 0.00139127 0)
(-0.00743762 0.00158575 0)
(-0.00993671 0.00179073 0)
(-0.0127083 0.00200428 0)
(-0.0157565 0.00222392 0)
(-0.0190809 0.00244669 0)
(-0.0226764 0.00266914 0)
(-0.0265323 0.00288743 0)
(-0.0306323 0.00309733 0)
(-0.0349542 0.00329437 0)
(-0.0394699 0.00347391 0)
(-0.0441455 0.00363125 0)
(-0.0489417 0.00376177 0)
(-0.0538144 0.003861 0)
(-0.0587149 0.00392478 0)
(-0.0635913 0.00394927 0)
(-0.0683886 0.00393112 0)
(-0.0730503 0.00386746 0)
(-0.0775186 0.003756 0)
(-0.0817355 0.00359503 0)
(-0.0856442 0.0033835 0)
(-0.0891888 0.00312099 0)
(-0.092316 0.00280776 0)
(-0.0949755 0.00244481 0)
(-0.0971205 0.00203385 0)
(-0.0987085 0.00157737 0)
(-0.0997019 0.00107868 0)
(-0.100069 0.000541944 0)
(-0.0997829 -2.77712e-05 0)
(-0.098825 -0.00062445 0)
(-0.097183 -0.00124111 0)
(-0.0948525 -0.00186978 0)
(-0.0918379 -0.00250153 0)
(-0.088152 -0.00312655 0)
(-0.0838173 -0.00373422 0)
(-0.0788659 -0.00431329 0)
(-0.0733399 -0.00485212 0)
(-0.0672913 -0.00533894 0)
(-0.0607819 -0.00576223 0)
(-0.053883 -0.00611108 0)
(-0.0466746 -0.00637568 0)
(-0.0392441 -0.00654774 0)
(-0.0316856 -0.00662094 0)
(-0.0240974 -0.00659141 0)
(-0.0165809 -0.00645799 0)
(-0.00923757 -0.00622257 0)
(-0.00216709 -0.00589012 0)
(0.00453552 -0.00546873 0)
(0.0107823 -0.00496936 0)
(0.0164951 -0.0044055 0)
(0.0216073 -0.00379265 0)
(0.0260664 -0.0031477 0)
(0.029835 -0.00248816 0)
(0.0328921 -0.00183146 0)
(0.0352334 -0.00119415 0)
(0.0368711 -0.000591261 0)
(0.0378329 -3.56605e-05 0)
(0.0381609 0.000462333 0)
(0.0379095 0.00089526 0)
(0.0371426 0.00125862 0)
(0.0359314 0.0015508 0)
(0.0343512 0.00177289 0)
(0.0324784 0.0019283 0)
(0.0303879 0.00202235 0)
(0.0281508 0.0020618 0)
(0.0258319 0.00205427 0)
(0.0234887 0.00200787 0)
(0.0211703 0.00193067 0)
(0.0189166 0.00183045 0)
(0.016759 0.00171427 0)
(0.0147201 0.00158856 0)
(0.0128153 0.00145867 0)
(0.0110523 0.00132931 0)
(0.00943451 0.00120389 0)
(0.00795859 0.00108543 0)
(0.00662067 0.000975195 0)
(0.00541105 0.000874385 0)
(0.00432454 0.000781303 0)
(0.00335059 0.000694962 0)
(0.00249032 0.000609334 0)
(0.00173846 0.000521663 0)
(0.00110968 0.000421048 0)
(0.000606631 0.000308448 0)
(0.000254831 0.000173912 0)
(5.04098e-05 4.77378e-05 0)
(-8.93366e-06 -4.51881e-05 0)
(3.91887e-05 -0.000101291 0)
(0.000309461 -0.000496183 0)
(0.000863642 -0.000882373 0)
(0.00161941 -0.00121602 0)
(0.00255914 -0.00144383 0)
(0.00359259 -0.001571 0)
(0.00467478 -0.00159392 0)
(0.00573149 -0.00153186 0)
(0.00672291 -0.00139925 0)
(0.0076025 -0.0012192 0)
(0.00834986 -0.00101072 0)
(0.00894718 -0.000793959 0)
(0.00939466 -0.000584043 0)
(0.00969618 -0.00039331 0)
(0.00986539 -0.000228705 0)
(0.00991654 -9.31631e-05 0)
(0.00986612 1.49769e-05 0)
(0.00972716 0.000100667 0)
(0.00950939 0.00017167 0)
(0.00921623 0.000237224 0)
(0.00884518 0.000307156 0)
(0.008387 0.000390755 0)
(0.00782682 0.000496086 0)
(0.00714469 0.000629439 0)
(0.00631715 0.000795245 0)
(0.00531815 0.000996214 0)
(0.00412032 0.00123374 0)
(0.00269568 0.00150834 0)
(0.00101626 0.00182006 0)
(-0.000945398 0.00216868 0)
(-0.00321586 0.00255376 0)
(-0.00582026 0.00297451 0)
(-0.00878172 0.00342957 0)
(-0.0121205 0.00391672 0)
(-0.015853 0.00443267 0)
(-0.019991 0.00497289 0)
(-0.0245401 0.00553149 0)
(-0.0294993 0.00610124 0)
(-0.0348597 0.00667359 0)
(-0.0406039 0.00723882 0)
(-0.0467057 0.00778624 0)
(-0.0531298 0.00830439 0)
(-0.0598318 0.00878139 0)
(-0.0667593 0.00920527 0)
(-0.0738519 0.00956426 0)
(-0.0810431 0.00984722 0)
(-0.0882611 0.0100439 0)
(-0.0954305 0.0101452 0)
(-0.102474 0.0101434 0)
(-0.109313 0.0100325 0)
(-0.11587 0.00980805 0)
(-0.122071 0.00946722 0)
(-0.127843 0.00900897 0)
(-0.133119 0.00843383 0)
(-0.137837 0.00774388 0)
(-0.141939 0.00694267 0)
(-0.145374 0.00603508 0)
(-0.148097 0.00502732 0)
(-0.15007 0.00392684 0)
(-0.151259 0.00274234 0)
(-0.151641 0.00148375 0)
(-0.151195 0.00016225 0)
(-0.149909 -0.00120965 0)
(-0.14778 -0.0026181 0)
(-0.144807 -0.00404788 0)
(-0.141002 -0.00548235 0)
(-0.136381 -0.00690355 0)
(-0.13097 -0.00829223 0)
(-0.124802 -0.00962802 0)
(-0.117918 -0.0108897 0)
(-0.110371 -0.0120556 0)
(-0.10222 -0.0131039 0)
(-0.0935343 -0.0140133 0)
(-0.0843909 -0.0147637 0)
(-0.0748763 -0.0153367 0)
(-0.0650841 -0.0157166 0)
(-0.0551148 -0.0158913 0)
(-0.0450744 -0.0158524 0)
(-0.0350726 -0.0155966 0)
(-0.0252212 -0.0151258 0)
(-0.0156319 -0.0144475 0)
(-0.00641396 -0.0135749 0)
(0.00232814 -0.0125266 0)
(0.0104972 -0.0113266 0)
(0.0180055 -0.010003 0)
(0.0247775 -0.00858732 0)
(0.0307512 -0.00711371 0)
(0.0358803 -0.0056172 0)
(0.0401354 -0.00413269 0)
(0.0435047 -0.00269359 0)
(0.0459943 -0.00133054 0)
(0.0476281 -7.03779e-05 0)
(0.048447 0.00106483 0)
(0.0485071 0.00205841 0)
(0.0478782 0.00289952 0)
(0.0466407 0.00358322 0)
(0.0448829 0.0041103 0)
(0.0426975 0.00448671 0)
(0.0401782 0.00472291 0)
(0.0374165 0.00483283 0)
(0.0344984 0.00483292 0)
(0.0315026 0.00474098 0)
(0.0284975 0.00457528 0)
(0.0255414 0.00435353 0)
(0.0226807 0.00409246 0)
(0.0199515 0.00380694 0)
(0.0173782 0.00351016 0)
(0.0149775 0.00321269 0)
(0.0127555 0.00292335 0)
(0.0107156 0.00264735 0)
(0.00885192 0.00238834 0)
(0.00716256 0.00214451 0)
(0.00563727 0.00191327 0)
(0.0042799 0.00168363 0)
(0.00308355 0.00144805 0)
(0.00206805 0.00118734 0)
(0.00123193 0.000900747 0)
(0.000612538 0.000574857 0)
(0.000197302 0.000259269 0)
(1.77356e-05 -3.22107e-06 0)
(6.52263e-05 -0.00028105 0)
(0.000448708 -0.000985745 0)
(0.00118627 -0.0016352 0)
(0.00214837 -0.00217563 0)
(0.00331477 -0.00254349 0)
(0.00457343 -0.00274162 0)
(0.00587496 -0.00276822 0)
(0.00713215 -0.00265106 0)
(0.00830003 -0.00241519 0)
(0.00932415 -0.00209704 0)
(0.0101805 -0.00172861 0)
(0.010847 -0.00134248 0)
(0.0113221 -0.000964048 0)
(0.011608 -0.000613513 0)
(0.0117173 -0.000302583 0)
(0.0116631 -3.59652e-05 0)
(0.0114607 0.000189169 0)
(0.0111208 0.000381392 0)
(0.0106501 0.000553989 0)
(0.0100474 0.000722863 0)
(0.00930464 0.000904907 0)
(0.00840556 0.00111615 0)
(0.00732734 0.00137051 0)
(0.0060413 0.0016789 0)
(0.00451476 0.002049 0)
(0.00271232 0.00248549 0)
(0.000597414 0.00299065 0)
(-0.00186669 0.00356501 0)
(-0.00471581 0.00420794 0)
(-0.00798397 0.00491788 0)
(-0.0117025 0.00569237 0)
(-0.0158988 0.00652775 0)
(-0.0205953 0.00741878 0)
(-0.025808 0.00835821 0)
(-0.0315449 0.00933652 0)
(-0.0378048 0.0103417 0)
(-0.0445757 0.0113593 0)
(-0.0518346 0.0123725 0)
(-0.0595459 0.0133626 0)
(-0.0676622 0.0143093 0)
(-0.0761245 0.0151916 0)
(-0.0848628 0.0159882 0)
(-0.0937984 0.0166781 0)
(-0.102845 0.0172418 0)
(-0.111911 0.0176615 0)
(-0.120904 0.0179219 0)
(-0.129729 0.0180106 0)
(-0.138294 0.017918 0)
(-0.14651 0.0176382 0)
(-0.154296 0.0171681 0)
(-0.161574 0.0165078 0)
(-0.168275 0.0156599 0)
(-0.174339 0.0146296 0)
(-0.179711 0.0134242 0)
(-0.184345 0.0120526 0)
(-0.188203 0.0105254 0)
(-0.191252 0.00885436 0)
(-0.193468 0.00705223 0)
(-0.194829 0.00513294 0)
(-0.195323 0.00311138 0)
(-0.194939 0.00100348 0)
(-0.193674 -0.00117373 0)
(-0.191527 -0.00340195 0)
(-0.188504 -0.00566152 0)
(-0.184614 -0.00793131 0)
(-0.179872 -0.0101886 0)
(-0.174299 -0.012409 0)
(-0.167919 -0.0145665 0)
(-0.160766 -0.0166338 0)
(-0.152877 -0.0185821 0)
(-0.144301 -0.0203821 0)
(-0.135089 -0.0220039 0)
(-0.125305 -0.0234182 0)
(-0.115018 -0.0245967 0)
(-0.104309 -0.0255133 0)
(-0.0932624 -0.0261453 0)
(-0.0819737 -0.0264738 0)
(-0.0705435 -0.0264856 0)
(-0.059078 -0.0261735 0)
(-0.0476873 -0.0255372 0)
(-0.0364833 -0.0245844 0)
(-0.0255778 -0.0233302 0)
(-0.0150804 -0.0217976 0)
(-0.00509599 -0.020017 0)
(0.00427742 -0.0180255 0)
(0.0129508 -0.0158654 0)
(0.0208462 -0.0135837 0)
(0.0278982 -0.0112297 0)
(0.0340559 -0.00885407 0)
(0.0392835 -0.00650686 0)
(0.0435619 -0.00423603 0)
(0.0468887 -0.00208581 0)
(0.0492789 -9.52835e-05 0)
(0.0507647 0.00170281 0)
(0.0513942 0.00328314 0)
(0.0512313 0.00462847 0)
(0.0503527 0.00573004 0)
(0.048846 0.00658749 0)
(0.0468063 0.00720843 0)
(0.0443332 0.0076075 0)
(0.0415266 0.00780517 0)
(0.0384837 0.00782617 0)
(0.0352948 0.00769801 0)
(0.0320421 0.0074492 0)
(0.028796 0.00710811 0)
(0.0256162 0.00670132 0)
(0.0225483 0.00625331 0)
(0.0196283 0.00578479 0)
(0.0168783 0.00531334 0)
(0.0143151 0.00485097 0)
(0.0119426 0.00440615 0)
(0.00976799 0.00397906 0)
(0.00778515 0.00356707 0)
(0.00600389 0.00315584 0)
(0.00441669 0.00273353 0)
(0.00304963 0.00227402 0)
(0.00189583 0.00177271 0)
(0.00100751 0.00121169 0)
(0.000365413 0.000646145 0)
(4.91068e-05 0.000123411 0)
(8.16858e-05 -0.000527655 0)
(0.000550669 -0.00162071 0)
(0.00143445 -0.0025807 0)
(0.00255956 -0.00335088 0)
(0.00389945 -0.00386631 0)
(0.00531977 -0.00412905 0)
(0.00676693 -0.00414271 0)
(0.0081426 -0.00394473 0)
(0.00939923 -0.00357327 0)
(0.0104771 -0.00307945 0)
(0.0113508 -0.00251 0)
(0.011996 -0.001911 0)
(0.0124102 -0.00131905 0)
(0.0125936 -0.000762489 0)
(0.0125572 -0.00025781 0)
(0.0123114 0.000189 0)
(0.0118676 0.000582747 0)
(0.0112317 0.000936761 0)
(0.0104043 0.00127114 0)
(0.00937704 0.00160982 0)
(0.00813348 0.00197801 0)
(0.00664838 0.0023995 0)
(0.00488953 0.00289479 0)
(0.00281882 0.00347979 0)
(0.000394534 0.00416543 0)
(-0.00242708 0.00495803 0)
(-0.00568985 0.00586001 0)
(-0.00943624 0.00687082 0)
(-0.0137058 0.00798749 0)
(-0.0185337 0.00920498 0)
(-0.023949 0.0105159 0)
(-0.0299731 0.0119104 0)
(-0.0366175 0.013375 0)
(-0.0438822 0.014893 0)
(-0.0517542 0.0164435 0)
(-0.060206 0.0180023 0)
(-0.0691947 0.0195413 0)
(-0.0786627 0.0210302 0)
(-0.0885379 0.0224368 0)
(-0.0987354 0.0237283 0)
(-0.10916 0.0248726 0)
(-0.119709 0.0258396 0)
(-0.130274 0.0266021 0)
(-0.140749 0.0271371 0)
(-0.151027 0.0274263 0)
(-0.161008 0.0274563 0)
(-0.170596 0.0272191 0)
(-0.179709 0.0267117 0)
(-0.18827 0.0259355 0)
(-0.196214 0.0248961 0)
(-0.203487 0.0236025 0)
(-0.210043 0.022066 0)
(-0.215846 0.0203005 0)
(-0.220864 0.0183209 0)
(-0.225077 0.0161436 0)
(-0.228466 0.0137852 0)
(-0.231018 0.0112632 0)
(-0.232724 0.0085955 0)
(-0.233578 0.00580016 0)
(-0.233577 0.00289599 0)
(-0.232718 -9.75403e-05 0)
(-0.231003 -0.00316 0)
(-0.228433 -0.00626973 0)
(-0.225014 -0.00940356 0)
(-0.220752 -0.0125365 0)
(-0.215657 -0.0156417 0)
(-0.209742 -0.0186901 0)
(-0.203026 -0.0216501 0)
(-0.19553 -0.0244886 0)
(-0.187283 -0.0271699 0)
(-0.17832 -0.0296573 0)
(-0.168683 -0.0319129 0)
(-0.158423 -0.0338988 0)
(-0.1476 -0.0355781 0)
(-0.136281 -0.0369159 0)
(-0.124545 -0.0378807 0)
(-0.112478 -0.038446 0)
(-0.100174 -0.0385915 0)
(-0.0877373 -0.0383046 0)
(-0.0752743 -0.0375812 0)
(-0.0628971 -0.036427 0)
(-0.0507195 -0.0348576 0)
(-0.0388544 -0.0328988 0)
(-0.0274121 -0.030586 0)
(-0.0164975 -0.0279634 0)
(-0.00620822 -0.025083 0)
(0.00336768 -0.0220025 0)
(0.012153 -0.0187842 0)
(0.0200826 -0.0154925 0)
(0.027105 -0.0121926 0)
(0.0331822 -0.00894809 0)
(0.0382913 -0.00581958 0)
(0.0424244 -0.00286283 0)
(0.045589 -0.000127254 0)
(0.0478087 0.00234551 0)
(0.0491226 0.00452282 0)
(0.0495851 0.00638204 0)
(0.0492649 0.00791109 0)
(0.048243 0.00910873 0)
(0.0466104 0.00998408 0)
(0.0444649 0.0105558 0)
(0.0419079 0.0108505 0)
(0.0390398 0.0109012 0)
(0.0359574 0.0107446 0)
(0.0327495 0.0104199 0)
(0.029496 0.00996554 0)
(0.0262635 0.00941872 0)
(0.0231088 0.00881242 0)
(0.0200728 0.00817555 0)
(0.0171899 0.00752975 0)
(0.0144781 0.00689089 0)
(0.0119574 0.00626398 0)
(0.0096297 0.00564817 0)
(0.00751414 0.00502809 0)
(0.00560503 0.00438808 0)
(0.00393746 0.00369649 0)
(0.00250166 0.00294182 0)
(0.00136852 0.00209993 0)
(0.00051635 0.00121803 0)
(7.56908e-05 0.000335965 0)
(9.42078e-05 -0.000815196 0)
(0.000630659 -0.00235351 0)
(0.00162863 -0.00365289 0)
(0.00287746 -0.00465863 0)
(0.00434155 -0.005312 0)
(0.00586543 -0.00561876 0)
(0.00739082 -0.00559229 0)
(0.00880993 -0.00528197 0)
(0.0100741 -0.0047412 0)
(0.0111204 -0.00403672 0)
(0.0119241 -0.00323067 0)
(0.0124599 -0.00238248 0)
(0.0127251 -0.00153948 0)
(0.0127182 -0.000737277 0)
(0.0124479 3.96769e-06 0)
(0.0119199 0.000678285 0)
(0.0111402 0.0012938 0)
(0.0101072 0.0018699 0)
(0.00881268 0.00243468 0)
(0.00723839 0.00302096 0)
(0.00535741 0.00366281 0)
(0.00313388 0.00439191 0)
(0.000525412 0.005235 0)
(-0.00251528 0.00621224 0)
(-0.00603765 0.00733669 0)
(-0.0100913 0.00861476 0)
(-0.0147234 0.0100471 0)
(-0.0199771 0.0116297 0)
(-0.0258888 0.0133541 0)
(-0.0324865 0.015208 0)
(-0.039787 0.0171747 0)
(-0.0477938 0.0192327 0)
(-0.056495 0.0213554 0)
(-0.0658614 0.0235107 0)
(-0.0758457 0.0256616 0)
(-0.0863824 0.0277668 0)
(-0.0973888 0.0297822 0)
(-0.108767 0.0316624 0)
(-0.120408 0.0333626 0)
(-0.132194 0.0348406 0)
(-0.144003 0.0360584 0)
(-0.155716 0.0369839 0)
(-0.167217 0.0375916 0)
(-0.178398 0.0378638 0)
(-0.189162 0.03779 0)
(-0.199425 0.037367 0)
(-0.209116 0.036598 0)
(-0.218175 0.0354915 0)
(-0.226555 0.0340604 0)
(-0.23422 0.0323211 0)
(-0.241143 0.0302919 0)
(-0.247303 0.0279929 0)
(-0.252688 0.0254445 0)
(-0.257287 0.0226676 0)
(-0.261096 0.0196827 0)
(-0.264109 0.0165099 0)
(-0.266325 0.0131691 0)
(-0.267741 0.00967979 0)
(-0.268355 0.0060613 0)
(-0.268167 0.00233326 0)
(-0.267173 -0.00148418 0)
(-0.265372 -0.00536985 0)
(-0.262762 -0.0093012 0)
(-0.259341 -0.0132538 0)
(-0.255109 -0.017201 0)
(-0.250067 -0.0211135 0)
(-0.244217 -0.0249591 0)
(-0.237567 -0.0287026 0)
(-0.230128 -0.0323057 0)
(-0.221914 -0.0357272 0)
(-0.212948 -0.0389233 0)
(-0.203259 -0.0418486 0)
(-0.192884 -0.0444566 0)
(-0.181872 -0.046701 0)
(-0.170278 -0.0485374 0)
(-0.15817 -0.0499245 0)
(-0.145627 -0.0508262 0)
(-0.132737 -0.0512135 0)
(-0.119598 -0.0510659 0)
(-0.106318 -0.0503734 0)
(-0.093008 -0.0491376 0)
(-0.079786 -0.0473723 0)
(-0.0667701 -0.0451041 0)
(-0.0540776 -0.0423715 0)
(-0.0418213 -0.0392246 0)
(-0.0301074 -0.0357231 0)
(-0.0190332 -0.0319344 0)
(-0.00868504 -0.0279318 0)
(0.000862492 -0.0237917 0)
(0.00954751 -0.0195922 0)
(0.0173211 -0.01541 0)
(0.0241473 -0.0113194 0)
(0.0300034 -0.00739021 0)
(0.0348796 -0.00368623 0)
(0.0387796 -0.000263898 0)
(0.0417209 0.00282912 0)
(0.0437349 0.00555527 0)
(0.0448673 0.00788819 0)
(0.0451779 0.00981365 0)
(0.0447392 0.0113299 0)
(0.0436352 0.0124475 0)
(0.0419587 0.0131886 0)
(0.0398074 0.0135852 0)
(0.0372818 0.0136772 0)
(0.0344791 0.0135098 0)
(0.0314927 0.0131309 0)
(0.0284052 0.0125886 0)
(0.0252917 0.011928 0)
(0.0222115 0.0111902 0)
(0.0192177 0.0104081 0)
(0.0163442 0.0096072 0)
(0.0136269 0.00879996 0)
(0.0110787 0.00798973 0)
(0.00873081 0.00716284 0)
(0.00658259 0.00630109 0)
(0.00468041 0.0053687 0)
(0.00301495 0.00434435 0)
(0.00167686 0.00319462 0)
(0.000645694 0.00194595 0)
(9.82499e-05 0.000619732 0)
(0.000102801 -0.00114042 0)
(0.000689888 -0.00317409 0)
(0.00177377 -0.00483831 0)
(0.00311154 -0.00608359 0)
(0.00465665 -0.00686185 0)
(0.00623345 -0.00718676 0)
(0.0077779 -0.00708592 0)
(0.00917374 -0.00662388 0)
(0.0103719 -0.00587208 0)
(0.0113079 -0.0049145 0)
(0.0119589 -0.00382958 0)
(0.0122999 -0.00268998 0)
(0.0123289 -0.00155306 0)
(0.0120427 -0.000460358 0)
(0.0114468 0.000565966 0)
(0.0105416 0.00152184 0)
(0.00932528 0.00242057 0)
(0.00778665 0.00328929 0)
(0.0059065 0.00416536 0)
(0.00365463 0.00509132 0)
(0.000992183 0.0061102 0)
(-0.00212794 0.00726103 0)
(-0.00575776 0.00857561 0)
(-0.00995196 0.0100765 0)
(-0.0147645 0.0117766 0)
(-0.020246 0.0136796 0)
(-0.0264409 0.0157809 0)
(-0.0333846 0.0180689 0)
(-0.0411008 0.020525 0)
(-0.0495987 0.0231242 0)
(-0.0588702 0.0258346 0)
(-0.0688879 0.0286173 0)
(-0.0796034 0.0314264 0)
(-0.090947 0.0342101 0)
(-0.102829 0.036912 0)
(-0.115141 0.0394731 0)
(-0.127763 0.0418345 0)
(-0.140564 0.0439401 0)
(-0.153409 0.045739 0)
(-0.166168 0.0471879 0)
(-0.178715 0.0482526 0)
(-0.190936 0.0489088 0)
(-0.202733 0.0491424 0)
(-0.214019 0.0489487 0)
(-0.224727 0.0483317 0)
(-0.234802 0.0473023 0)
(-0.244205 0.0458772 0)
(-0.252908 0.0440769 0)
(-0.260891 0.0419247 0)
(-0.268143 0.0394451 0)
(-0.274658 0.0366632 0)
(-0.280435 0.0336037 0)
(-0.285472 0.0302904 0)
(-0.289772 0.0267461 0)
(-0.293335 0.0229925 0)
(-0.296162 0.0190498 0)
(-0.298254 0.0149377 0)
(-0.299609 0.0106748 0)
(-0.300224 0.00627986 0)
(-0.300095 0.00177147 0)
(-0.299216 -0.00283093 0)
(-0.297582 -0.00750673 0)
(-0.295184 -0.0122336 0)
(-0.292014 -0.0169868 0)
(-0.288065 -0.0217389 0)
(-0.283329 -0.0264591 0)
(-0.277798 -0.0311129 0)
(-0.271469 -0.0356618 0)
(-0.264341 -0.0400631 0)
(-0.256416 -0.0442704 0)
(-0.247701 -0.0482333 0)
(-0.238213 -0.0518984 0)
(-0.227973 -0.0552102 0)
(-0.217014 -0.0581125 0)
(-0.205379 -0.0605496 0)
(-0.193123 -0.0624689 0)
(-0.180313 -0.0638225 0)
(-0.16703 -0.06457 0)
(-0.153366 -0.0646806 0)
(-0.139426 -0.0641354 0)
(-0.125324 -0.062929 0)
(-0.111182 -0.0610712 0)
(-0.0971265 -0.0585873 0)
(-0.0832851 -0.0555179 0)
(-0.0697832 -0.0519182 0)
(-0.0567403 -0.0478559 0)
(-0.0442665 -0.0434087 0)
(-0.0324607 -0.0386618 0)
(-0.0214082 -0.033705 0)
(-0.0111801 -0.0286295 0)
(-0.0018333 -0.0235254 0)
(0.00658898 -0.0184799 0)
(0.0140565 -0.0135753 0)
(0.0205509 -0.00888771 0)
(0.0260652 -0.00448574 0)
(0.0306037 -0.000429623 0)
(0.0341818 0.00323009 0)
(0.0368269 0.00645368 0)
(0.0385787 0.00921351 0)
(0.0394898 0.011495 0)
(0.0396252 0.0132973 0)
(0.0390616 0.0146331 0)
(0.037885 0.0155285 0)
(0.036189 0.0160205 0)
(0.0340694 0.0161555 0)
(0.0316238 0.0159861 0)
(0.0289431 0.0155681 0)
(0.0261152 0.0149566 0)
(0.0232137 0.0142038 0)
(0.0203081 0.0133545 0)
(0.017448 0.0124445 0)
(0.0146855 0.0114956 0)
(0.0120464 0.0105173 0)
(0.00957575 0.00949979 0)
(0.00728098 0.0084235 0)
(0.00522166 0.00724969 0)
(0.00339276 0.00594513 0)
(0.00190425 0.0044648 0)
(0.000739923 0.00280578 0)
(0.000113978 0.000963117 0)
(0.000110428 -0.00148942 0)
(0.000737982 -0.00405211 0)
(0.00188504 -0.00609308 0)
(0.00328008 -0.0075695 0)
(0.00486425 -0.00844779 0)
(0.00644344 -0.00875444 0)
(0.00794765 -0.0085361 0)
(0.00925375 -0.0078763 0)
(0.0103132 -0.00686749 0)
(0.0110616 -0.00561232 0)
(0.011479 -0.00420592 0)
(0.0115418 -0.00273342 0)
(0.0112487 -0.00126064 0)
(0.0105947 0.000167155 0)
(0.00958112 0.00152825 0)
(0.00820111 0.002823 0)
(0.00644348 0.00407208 0)
(0.00428531 0.00531214 0)
(0.00169457 0.00659078 0)
(-0.00137207 0.00796033 0)
(-0.00496565 0.00947189 0)
(-0.00914348 0.01117 0)
(-0.0139648 0.0130887 0)
(-0.0194874 0.0152498 0)
(-0.0257643 0.0176617 0)
(-0.0328395 0.0203209 0)
(-0.0407452 0.0232125 0)
(-0.0494987 0.0263114 0)
(-0.0590986 0.0295826 0)
(-0.0695226 0.0329821 0)
(-0.0807251 0.0364565 0)
(-0.0926364 0.0399443 0)
(-0.105164 0.0433771 0)
(-0.118193 0.0466825 0)
(-0.131593 0.0497864 0)
(-0.145222 0.0526173 0)
(-0.158936 0.0551094 0)
(-0.172589 0.0572058 0)
(-0.186047 0.0588609 0)
(-0.199188 0.0600416 0)
(-0.211906 0.0607277 0)
(-0.224115 0.0609116 0)
(-0.235746 0.0605963 0)
(-0.246748 0.0597942 0)
(-0.257086 0.0585246 0)
(-0.266736 0.056812 0)
(-0.275686 0.054684 0)
(-0.28393 0.0521698 0)
(-0.291469 0.0492991 0)
(-0.298306 0.0461008 0)
(-0.304447 0.0426026 0)
(-0.309897 0.0388306 0)
(-0.314662 0.0348087 0)
(-0.318748 0.0305595 0)
(-0.322157 0.0261034 0)
(-0.324893 0.0214594 0)
(-0.326955 0.0166455 0)
(-0.328342 0.0116788 0)
(-0.329051 0.00657614 0)
(-0.329077 0.00135448 0)
(-0.328412 -0.00396836 0)
(-0.327048 -0.00937319 0)
(-0.324974 -0.0148389 0)
(-0.322178 -0.0203416 0)
(-0.318647 -0.0258544 0)
(-0.314365 -0.0313464 0)
(-0.309319 -0.0367822 0)
(-0.303495 -0.0421218 0)
(-0.296878 -0.0473199 0)
(-0.289459 -0.052326 0)
(-0.281231 -0.0570846 0)
(-0.272191 -0.0615356 0)
(-0.262345 -0.065615 0)
(-0.251706 -0.0692567 0)
(-0.240299 -0.0723936 0)
(-0.228162 -0.0749602 0)
(-0.215344 -0.0768949 0)
(-0.201911 -0.0781431 0)
(-0.187947 -0.07866 0)
(-0.173547 -0.0784136 0)
(-0.158826 -0.0773875 0)
(-0.143906 -0.0755828 0)
(-0.128925 -0.0730196 0)
(-0.11402 -0.0697374 0)
(-0.0993361 -0.065794 0)
(-0.0850102 -0.0612638 0)
(-0.0711733 -0.056235 0)
(-0.0579439 -0.0508062 0)
(-0.0454255 -0.0450817 0)
(-0.0337042 -0.0391686 0)
(-0.0228485 -0.0331725 0)
(-0.0129099 -0.0271949 0)
(-0.0039239 -0.0213312 0)
(0.00408737 -0.0156692 0)
(0.0111135 -0.0102882 0)
(0.0171543 -0.00525839 0)
(0.0222183 -0.000640483 0)
(0.0263234 0.00351517 0)
(0.0294961 0.00716953 0)
(0.031774 0.010296 0)
(0.0332048 0.0128817 0)
(0.0338483 0.0149279 0)
(0.0337746 0.0164506 0)
(0.0330646 0.0174797 0)
(0.0318052 0.0180574 0)
(0.0300898 0.0182358 0)
(0.0280103 0.0180735 0)
(0.0256596 0.017632 0)
(0.0231205 0.0169719 0)
(0.0204745 0.0161481 0)
(0.0177844 0.0152065 0)
(0.0151169 0.0141788 0)
(0.0125109 0.0130815 0)
(0.0100258 0.0119105 0)
(0.00767942 0.0106457 0)
(0.00554501 0.00924645 0)
(0.00362504 0.00766632 0)
(0.00204634 0.00584716 0)
(0.000799215 0.00375155 0)
(0.000123798 0.00134421 0)
(0.000116868 -0.00186268 0)
(0.000775553 -0.00498032 0)
(0.00196518 -0.00740186 0)
(0.00338708 -0.00909342 0)
(0.0049693 -0.0100395 0)
(0.006501 -0.0102841 0)
(0.00790652 -0.00989788 0)
(0.00905772 -0.00898753 0)
(0.00990753 -0.00766954 0)
(0.0103934 -0.00606678 0)
(0.0104989 -0.00429132 0)
(0.0102022 -0.00243962 0)
(0.00950289 -0.000583992 0)
(0.00839303 0.00122929 0)
(0.00686858 0.00298186 0)
(0.00491381 0.0046813 0)
(0.00250628 0.00635803 0)
(-0.000390129 0.00805971 0)
(-0.00382112 0.0098446 0)
(-0.00784293 0.011774 0)
(-0.0125172 0.0139049 0)
(-0.0179082 0.016284 0)
(-0.0240772 0.0189435 0)
(-0.0310787 0.021899 0)
(-0.0389556 0.0251491 0)
(-0.0477356 0.0286766 0)
(-0.0574271 0.0324497 0)
(-0.0680166 0.0364229 0)
(-0.0794654 0.0405383 0)
(-0.0917084 0.0447269 0)
(-0.104654 0.0489099 0)
(-0.118186 0.0530017 0)
(-0.132167 0.0569131 0)
(-0.146449 0.0605558 0)
(-0.160872 0.063847 0)
(-0.175281 0.0667134 0)
(-0.189529 0.0690945 0)
(-0.203482 0.0709451 0)
(-0.217027 0.0722358 0)
(-0.230071 0.0729527 0)
(-0.242542 0.0730957 0)
(-0.254386 0.0726764 0)
(-0.265571 0.0717153 0)
(-0.276074 0.0702397 0)
(-0.285886 0.068281 0)
(-0.295005 0.0658727 0)
(-0.303437 0.0630489 0)
(-0.311187 0.0598431 0)
(-0.318266 0.0562875 0)
(-0.324685 0.0524122 0)
(-0.330453 0.0482449 0)
(-0.335581 0.0438111 0)
(-0.340077 0.0391341 0)
(-0.343948 0.0342347 0)
(-0.347201 0.0291319 0)
(-0.349841 0.0238431 0)
(-0.35187 0.0183844 0)
(-0.353289 0.012771 0)
(-0.354097 0.00701764 0)
(-0.354291 0.00113933 0)
(-0.353863 -0.00484828 0)
(-0.352807 -0.0109282 0)
(-0.351111 -0.0170814 0)
(-0.34876 -0.023286 0)
(-0.345739 -0.0295169 0)
(-0.342027 -0.0357446 0)
(-0.337605 -0.0419347 0)
(-0.332449 -0.0480473 0)
(-0.326534 -0.0540365 0)
(-0.319838 -0.0598497 0)
(-0.312336 -0.0654282 0)
(-0.304009 -0.0707066 0)
(-0.294843 -0.0756141 0)
(-0.284827 -0.0800754 0)
(-0.273965 -0.0840122 0)
(-0.262268 -0.0873454 0)
(-0.249763 -0.0899981 0)
(-0.236496 -0.091899 0)
(-0.222529 -0.0929855 0)
(-0.207945 -0.0932079 0)
(-0.192846 -0.0925333 0)
(-0.177354 -0.0909481 0)
(-0.161608 -0.0884616 0)
(-0.14576 -0.0851062 0)
(-0.129969 -0.0809382 0)
(-0.114397 -0.0760359 0)
(-0.0992029 -0.0704968 0)
(-0.0845341 -0.064433 0)
(-0.0705228 -0.0579668 0)
(-0.0572813 -0.0512244 0)
(-0.0448997 -0.0443316 0)
(-0.0334455 -0.0374091 0)
(-0.0229647 -0.0305693 0)
(-0.0134844 -0.0239145 0)
(-0.00501606 -0.0175358 0)
(0.00244078 -0.0115129 0)
(0.00889595 -0.00591472 0)
(0.0143667 -0.000799192 0)
(0.0188766 0.00378662 0)
(0.0224563 0.00780723 0)
(0.0251435 0.0112398 0)
(0.0269855 0.0140751 0)
(0.0280382 0.0163186 0)
(0.0283687 0.0179907 0)
(0.0280518 0.0191261 0)
(0.0271716 0.019772 0)
(0.0258145 0.0199856 0)
(0.0240726 0.0198303 0)
(0.0220313 0.0193713 0)
(0.019779 0.018671 0)
(0.0173876 0.0177834 0)
(0.0149355 0.0167494 0)
(0.0124737 0.0155923 0)
(0.0100747 0.0143144 0)
(0.00776796 0.0128956 0)
(0.00563983 0.0112938 0)
(0.00370265 0.00944963 0)
(0.00209666 0.00729137 0)
(0.000820021 0.004746 0)
(0.000126789 0.00174686 0)
(0.00012304 -0.00225282 0)
(0.00080517 -0.0059385 0)
(0.00201726 -0.00873164 0)
(0.00343477 -0.0106096 0)
(0.00497188 -0.0115795 0)
(0.00640349 -0.0117083 0)
(0.00764935 -0.0110961 0)
(0.00857878 -0.00987681 0)
(0.00914761 -0.00819387 0)
(0.00929652 -0.00619137 0)
(0.00901332 -0.00399792 0)
(0.00827817 -0.00171941 0)
(0.00709021 0.000568146 0)
(0.00543774 0.00282078 0)
(0.00330943 0.00502681 0)
(0.000678977 0.00720399 0)
(-0.00248882 0.00939453 0)
(-0.00624394 0.0116579 0)
(-0.0106453 0.0140622 0)
(-0.0157598 0.0166754 0)
(-0.0216559 0.0195563 0)
(-0.0283987 0.0227488 0)
(-0.0360441 0.0262768 0)
(-0.0446335 0.0301429 0)
(-0.0541892 0.0343287 0)
(-0.0647102 0.0387958 0)
(-0.0761694 0.0434881 0)
(-0.0885111 0.0483334 0)
(-0.10165 0.0532458 0)
(-0.115473 0.0581287 0)
(-0.129842 0.0628787 0)
(-0.1446 0.0673907 0)
(-0.159581 0.0715628 0)
(-0.174616 0.0753026 0)
(-0.189543 0.0785313 0)
(-0.204216 0.0811873 0)
(-0.218506 0.0832278 0)
(-0.232312 0.0846286 0)
(-0.245551 0.0853831 0)
(-0.258166 0.0854991 0)
(-0.270119 0.0849964 0)
(-0.281387 0.0839034 0)
(-0.29196 0.0822542 0)
(-0.301838 0.0800859 0)
(-0.311026 0.0774373 0)
(-0.319535 0.0743466 0)
(-0.327377 0.0708508 0)
(-0.334566 0.0669851 0)
(-0.341117 0.0627821 0)
(-0.347044 0.0582718 0)
(-0.352361 0.0534817 0)
(-0.357083 0.0484364 0)
(-0.361223 0.043158 0)
(-0.364792 0.0376663 0)
(-0.367803 0.031979 0)
(-0.370263 0.0261116 0)
(-0.372181 0.0200786 0)
(-0.373563 0.013893 0)