/*--------------------------------*- C++ -*----------------------------------*\
| =========                 |                                                 |
| \\      /  F ield         | OpenFOAM: The Open Source CFD Toolbox           |
|  \\    /   O peration     | Version:  2406                                  |
|   \\  /    A nd           | Website:  www.openfoam.com                      |
|    \\/     M anipulation  |                                                 |
\*---------------------------------------------------------------------------*/
FoamFile
{
    version     2.0;
    format      ascii;
    arch        "LSB;label=32;scalar=64";
    class       surfaceScalarField;
    location    "24.4";
    object      phi;
}
// * * * * * * * * * * * * * * * * * * * * * * * * * * * * * * * * * * * * * //

dimensions      [0 3 -1 0 0 0 0];

oriented        oriented;

internalField   nonuniform List<scalar> 
7080
(
1.25097e-07
-1.25097e-07
3.57434e-07
-2.32336e-07
6.19769e-07
-2.62335e-07
8.55754e-07
-2.35985e-07
1.0373e-06
-1.81546e-07
1.15241e-06
-1.15107e-07
1.19804e-06
-4.56364e-08
1.17489e-06
2.31548e-08
1.08275e-06
9.2143e-08
9.1002e-07
1.72726e-07
6.33742e-07
2.76277e-07
2.1729e-07
4.16452e-07
-3.88567e-07
6.05858e-07
-1.24242e-06
8.53851e-07
-2.40808e-06
1.16567e-06
-3.95105e-06
1.54297e-06
-5.9359e-06
1.98485e-06
-8.4237e-06
2.4878e-06
-1.14676e-05
3.04392e-06
-1.51056e-05
3.63794e-06
-1.93498e-05
4.24423e-06
-2.41747e-05
4.82495e-06
-2.95045e-05
5.32979e-06
-3.52023e-05
5.6978e-06
-4.10639e-05
5.8616e-06
-4.68183e-05
5.75436e-06
-5.21363e-05
5.31802e-06
-5.66483e-05
4.51203e-06
-5.99738e-05
3.3255e-06
-6.17379e-05
1.76405e-06
-6.15804e-05
-1.57446e-07
-5.93324e-05
-2.24808e-06
-5.48517e-05
-4.48066e-06
-4.81644e-05
-6.6873e-06
-3.9458e-05
-8.70638e-06
-2.90857e-05
-1.03723e-05
-1.75578e-05
-1.15279e-05
-5.51395e-06
-1.20438e-05
6.32455e-06
-1.18385e-05
1.72218e-05
-1.08973e-05
2.65068e-05
-9.28499e-06
3.36562e-05
-7.1494e-06
3.83616e-05
-4.70541e-06
4.05691e-05
-2.20748e-06
4.05141e-05
5.50159e-08
3.84942e-05
2.01991e-06
3.50962e-05
3.39796e-06
3.08683e-05
4.22793e-06
2.63024e-05
4.56589e-06
2.17851e-05
4.51729e-06
1.75793e-05
4.20579e-06
1.38303e-05
3.74902e-06
1.0589e-05
3.24132e-06
7.84001e-06
2.74897e-06
5.53055e-06
2.30945e-06
3.6003e-06
1.93025e-06
2.01861e-06
1.58169e-06
8.21051e-07
1.19756e-06
1.39633e-07
6.81418e-07
1.39633e-07
2.29907e-07
-3.55004e-07
6.43705e-07
-6.46135e-07
1.06119e-06
-6.79816e-07
1.37761e-06
-5.52412e-07
1.52658e-06
-3.30515e-07
1.47079e-06
-5.93101e-08
1.18611e-06
2.39035e-07
6.53935e-07
5.55334e-07
-1.55798e-07
9.01876e-07
-1.29111e-06
1.30804e-06
-2.82956e-06
1.81473e-06
-4.88086e-06
2.46775e-06
-7.5839e-06
3.3089e-06
-1.10978e-05
4.36777e-06
-1.55894e-05
5.65722e-06
-2.12191e-05
7.17265e-06
-2.81266e-05
8.89236e-06
-3.6414e-05
1.07752e-05
-4.61245e-05
1.27544e-05
-5.72166e-05
1.473e-05
-6.95377e-05
1.65653e-05
-8.28041e-05
1.80914e-05
-9.65953e-05
1.91209e-05
-0.000110368
1.94709e-05
-0.000123494
1.89869e-05
-0.000135303
1.75641e-05
-0.000145145
1.51595e-05
-0.000152428
1.17953e-05
-0.000156657
7.5548e-06
-0.00015747
2.57685e-06
-0.00015465
-2.97743e-06
-0.000148041
-8.85749e-06
-0.000137731
-1.47905e-05
-0.000123923
-2.0495e-05
-0.000106978
-2.56517e-05
-8.74178e-05
-2.99323e-05
-6.59244e-05
-3.30213e-05
-4.33227e-05
-3.46456e-05
-2.05515e-05
-3.46097e-05
1.38514e-06
-3.28339e-05
2.14871e-05
-2.93869e-05
3.88379e-05
-2.45002e-05
5.26959e-05
-1.85634e-05
6.25791e-05
-1.20906e-05
6.82808e-05
-5.64674e-06
7.00409e-05
2.59783e-07
6.83126e-05
5.12625e-06
6.37941e-05
8.74652e-06
5.73392e-05
1.10208e-05
4.97958e-05
1.20607e-05
4.18975e-05
1.21041e-05
3.42004e-05
1.14461e-05
2.70627e-05
1.0379e-05
2.06653e-05
9.1464e-06
1.50581e-05
7.91661e-06
1.02241e-05
6.76424e-06
6.15591e-06
5.64991e-06
2.93763e-06
4.41585e-06
7.94206e-07
2.82484e-06
9.33839e-07
2.46603e-07
-6.01607e-07
6.33483e-07
-1.03301e-06
9.44352e-07
-9.90685e-07
1.05212e-06
-6.60178e-07
8.66757e-07
-1.45155e-07
3.21511e-07
4.85936e-07
-6.38135e-07
1.19868e-06
-2.07148e-06
1.98868e-06
-4.05558e-06
2.88598e-06
-6.69923e-06
3.95168e-06
-1.01533e-05
5.26882e-06
-1.46126e-05
6.92701e-06
-2.03067e-05
9.00302e-06
-2.74816e-05
1.15427e-05
-3.63736e-05
1.45492e-05
-4.71792e-05
1.79783e-05
-6.00215e-05
2.17346e-05
-7.49121e-05
2.56659e-05
-9.17131e-05
2.95555e-05
-0.000110108
3.31245e-05
-0.000129593
3.60512e-05
-0.000149511
3.8009e-05
-0.000169103
3.87126e-05
-0.000187587
3.79556e-05
-0.00020423
3.56297e-05
-0.00021839
3.17235e-05
-0.00022954
2.63096e-05
-0.000237272
1.95276e-05
-0.000241286
1.15689e-05
-0.000241383
2.67391e-06
-0.000237459
-6.90204e-06
-0.000229473
-1.68434e-05
-0.000217476
-2.67878e-05
-0.000201627
-3.63435e-05
-0.000182199
-4.50801e-05
-0.000159595
-5.25356e-05
-0.000134373
-5.82435e-05
-0.000107248
-6.17711e-05
-7.9087e-05
-6.27703e-05
-5.08844e-05
-6.10365e-05
-2.3707e-05
-5.65643e-05
1.37925e-06
-4.95865e-05
2.33983e-05
-4.05825e-05
4.15483e-05
-3.02406e-05
5.5285e-05
-1.93834e-05
6.44057e-05
-8.86092e-06
6.90247e-05
5.07267e-07
6.94972e-05
8.27402e-06
6.65375e-05
1.39804e-05
6.09871e-05
1.76111e-05
5.37437e-05
1.93475e-05
4.56397e-05
1.95501e-05
3.73537e-05
1.8665e-05
2.9369e-05
1.71312e-05
2.19817e-05
1.53039e-05
1.53526e-05
1.33934e-05
9.5905e-06
1.1412e-05
4.8549e-06
9.15145e-06
1.45586e-06
6.22388e-06
2.3897e-06
1.81455e-07
-7.83062e-07
3.77886e-07
-1.22944e-06
3.72077e-07
-9.84876e-07
3.00977e-08
-3.18198e-07
-7.55315e-07
6.40258e-07
-2.08066e-06
1.81129e-06
-4.04295e-06
3.16097e-06
-6.75579e-06
4.70152e-06
-1.03643e-05
6.49452e-06
-1.50592e-05
8.6466e-06
-2.10835e-05
1.1293e-05
-2.87256e-05
1.45691e-05
-3.8297e-05
1.85744e-05
-5.00949e-05
2.33406e-05
-6.43557e-05
2.881e-05
-8.1203e-05
3.48256e-05
-0.000100595
4.1127e-05
-0.000122282
4.73522e-05
-0.000145783
5.30571e-05
-0.00017042
5.77607e-05
-0.000195379
6.1011e-05
-0.000219818
6.24481e-05
-0.000242948
6.18417e-05
-0.000264088
5.90964e-05
-0.000282692
5.42333e-05
-0.000298331
4.73624e-05
-0.000310677
3.86561e-05
-0.000319478
2.83282e-05
-0.000324531
1.66223e-05
-0.000325686
3.82803e-06
-0.0003228
-9.78713e-06
-0.000315795
-2.38486e-05
-0.000304621
-3.79622e-05
-0.000289289
-5.16755e-05
-0.000269902
-6.44673e-05
-0.000246679
-7.57581e-05
-0.000219993
-8.49299e-05
-0.000190396
-9.13677e-05
-0.000158643
-9.4523e-05
-0.000125686
-9.39943e-05
-9.26354e-05
-8.96147e-05
-6.0695e-05
-8.15268e-05
-3.10572e-05
-7.02203e-05
-4.78697e-06
-5.65108e-05
1.72828e-05
-4.14531e-05
3.46243e-05
-2.62025e-05
4.69906e-05
-1.1859e-05
5.45596e-05
7.04953e-07
5.76985e-05
1.08416e-05
5.70509e-05
1.82587e-05
5.34189e-05
2.29795e-05
4.76729e-05
2.52961e-05
4.06487e-05
2.56892e-05
3.30608e-05
2.4719e-05
2.54571e-05
2.29076e-05
1.82268e-05
2.06237e-05
1.16604e-05
1.79784e-05
6.05766e-06
1.47542e-05
1.87509e-06
1.04064e-05
4.26479e-06
4.57243e-08
-8.28786e-07
-9.81697e-08
-1.08555e-06
-6.18126e-07
-4.6492e-07
-1.63917e-06
7.02849e-07
-3.28186e-06
2.28294e-06
-5.67729e-06
4.20672e-06
-8.97688e-06
6.46056e-06
-1.33655e-05
9.09008e-06
-1.90756e-05
1.22047e-05
-2.63972e-05
1.59682e-05
-3.56734e-05
2.05692e-05
-4.7275e-05
2.61708e-05
-6.15536e-05
3.2853e-05
-7.87771e-05
4.05641e-05
-9.90612e-05
4.90941e-05
-0.000122305
5.80698e-05
-0.000148152
6.69731e-05
-0.000175986
7.51868e-05
-0.000205002
8.20725e-05
-0.000234302
8.70613e-05
-0.000263018
8.97264e-05
-0.000290383
8.98138e-05
-0.000315775
8.72331e-05
-0.000338705
8.20261e-05
-0.000358801
7.43301e-05
-0.000375784
6.43452e-05
-0.000389438
5.23095e-05
-0.000399592
3.84821e-05
-0.000406105
2.31362e-05
-0.000408843
6.56577e-06
-0.000407695
-1.09355e-05
-0.000402529
-2.90144e-05
-0.000393221
-4.72702e-05
-0.000379657
-6.52392e-05
-0.000361757
-8.23674e-05
-0.000339512
-9.80034e-05
-0.000313032
-0.00011141
-0.000282605
-0.000121795
-0.000248753
-0.000128375
-0.000212272
-0.000130475
-0.000174244
-0.000127643
-0.000135989
-0.000119781
-9.89628e-05
-0.000107247
-6.45959e-05
-9.08778e-05
-3.41192e-05
-7.19298e-05
-8.42277e-06
-5.18989e-05
1.20059e-05
-3.22877e-05
2.70954e-05
-1.43845e-05
3.70689e-05
8.68084e-07
4.24022e-05
1.29253e-05
4.37583e-05
2.16234e-05
4.19252e-05
2.71292e-05
3.7744e-05
2.98704e-05
3.20278e-05
3.04352e-05
2.54928e-05
2.94426e-05
1.87276e-05
2.73888e-05
1.22186e-05
2.44874e-05
6.44131e-06
2.05315e-05
2.0162e-06
1.48316e-05
6.28099e-06
-1.56927e-07
-6.71859e-07
-7.90258e-07
-4.52219e-07
-2.01807e-06
7.62893e-07
-3.94231e-06
2.62709e-06
-6.69768e-06
5.03832e-06
-1.04586e-05
7.96766e-06
-1.54445e-05
1.14464e-05
-2.19278e-05
1.55734e-05
-3.0243e-05
2.05199e-05
-4.07843e-05
2.65095e-05
-5.39794e-05
3.37643e-05
-7.02338e-05
4.24252e-05
-8.98507e-05
5.24699e-05
-0.000112944
6.3657e-05
-0.000139363
7.55134e-05
-0.000168661
8.73676e-05
-0.000200114
9.84268e-05
-0.000232816
0.000107888
-0.000265799
0.000115055
-0.000298154
0.000119416
-0.000329101
0.000120674
-0.000358013
0.000118726
-0.000384411
0.000113631
-0.000407948
0.000105563
-0.000428391
9.47731e-05
-0.000445599
8.1553e-05
-0.000459499
6.62104e-05
-0.000470067
4.90494e-05
-0.000477292
3.0361e-05
-0.000481146
1.04201e-05
-0.000481589
-1.04922e-05
-0.00047853
-3.20735e-05
-0.000471802
-5.39979e-05
-0.000461185
-7.58567e-05
-0.000446411
-9.71414e-05
-0.0004272
-0.000117214
-0.000403315
-0.000135295
-0.000374636
-0.000150474
-0.000341262
-0.00016175
-0.000303609
-0.000168128
-0.0002625
-0.000168752
-0.000219196
-0.000163086
-0.000175342
-0.0001511
-0.000132813
-0.000133407
-9.3453e-05
-0.00011129
-5.87861e-05
-8.65658e-05
-2.97966e-05
-6.12772e-05
-6.86281e-06
-3.73182e-05
1.01402e-05
-1.61349e-05
2.16699e-05
1.39571e-06
2.8374e-05
1.49192e-05
3.10097e-05
2.44936e-05
3.03966e-05
3.04835e-05
2.73707e-05
3.34611e-05
2.2732e-05
3.40813e-05
1.7206e-05
3.29148e-05
1.1445e-05
3.02484e-05
6.09175e-06
2.58847e-05
1.90743e-06
1.90159e-05
8.18841e-06
-4.31055e-07
-2.40804e-07
-1.70349e-06
8.20216e-07
-3.83097e-06
2.89037e-06
-6.87928e-06
5.6754e-06
-1.10008e-05
9.15982e-06
-1.64255e-05
1.33924e-05
-2.3455e-05
1.84759e-05
-3.24614e-05
2.45798e-05
-4.38836e-05
3.19421e-05
-5.82018e-05
4.08277e-05
-7.58775e-05
5.14399e-05
-9.72589e-05
6.38067e-05
-0.000122475
7.76861e-05
-0.000151349
9.25311e-05
-0.000183365
0.000107529
-0.000217705
0.000121708
-0.000253361
0.000134083
-0.000289269
0.000143796
-0.000324432
0.000150219
-0.000357994
0.000152978
-0.000389267
0.000151947
-0.000417744
0.000147204
-0.000443096
0.000138983
-0.000465155
0.000127622
-0.000483893
0.000113511
-0.000499391
9.70512e-05
-0.000511799
7.8618e-05
-0.000521296
5.85464e-05
-0.000528056
3.71215e-05
-0.000532209
1.45726e-05
-0.000533808
-8.89298e-06
-0.000532849
-3.30322e-05
-0.000529172
-5.76752e-05
-0.000522502
-8.25268e-05
-0.000512439
-0.000107204
-0.000498468
-0.000131185
-0.00048
-0.000153764
-0.000456442
-0.000174031
-0.000427319
-0.000190873
-0.000392414
-0.000203033
-0.000351943
-0.000209222
-0.000306713
-0.000208317
-0.000258199
-0.000199614
-0.000208506
-0.0001831
-0.000160127
-0.000159668
-0.000115542
-0.000131151
-7.67325e-05
-0.000100087
-4.48334e-05
-6.92173e-05
-2.00698e-05
-4.08986e-05
-1.98976e-06
-1.66843e-05
1.02027e-05
2.72682e-06
1.74114e-05
1.72848e-05
2.05482e-05
2.73467e-05
2.05072e-05
3.35022e-05
1.81518e-05
3.64366e-05
1.43016e-05
3.6765e-05
9.73355e-06
3.48165e-05
5.22281e-06
3.03954e-05
1.62506e-06
2.26136e-05
9.81347e-06
-7.83192e-07
5.42388e-07
-2.8475e-06
2.88452e-06
-6.06257e-06
6.10544e-06
-1.04485e-05
1.00614e-05
-1.61827e-05
1.4894e-05
-2.35637e-05
2.07734e-05
-3.29862e-05
2.78985e-05
-4.49236e-05
3.65172e-05
-5.99007e-05
4.69192e-05
-7.84337e-05
5.93607e-05
-0.000100927
7.39334e-05
-0.000127549
9.04286e-05
-0.000158125
0.000108262
-0.000192095
0.000126501
-0.000228558
0.000143992
-0.000266391
0.000159541
-0.000304398
0.00017209
-0.000341443
0.000180841
-0.000376538
0.000185314
-0.000408899
0.000185338
-0.000437973
0.000181021
-0.00046345
0.00017268
-0.000485246
0.000160779
-0.000503471
0.000145847
-0.000518379
0.000128419
-0.000530311
0.000108983
-0.000539647
8.79536e-05
-0.000546758
6.56577e-05
-0.000551976
4.23394e-05
-0.000555566
1.81626e-05
-0.000557687
-6.77161e-06
-0.000558408
-3.2311e-05
-0.000557645
-5.84386e-05
-0.00055516
-8.50117e-05
-0.000550538
-0.000111826
-0.000543169
-0.000138555
-0.000532249
-0.000164683
-0.000516821
-0.000189459
-0.000495855
-0.000211839
-0.000468397
-0.000230491
-0.000433784
-0.000243835
-0.000391904
-0.000250197
-0.000343462
-0.000248056
-0.000290155
-0.000236407
-0.000234655
-0.000215168
-0.000180292
-0.000185514
-0.000130429
-0.00014995
-8.76928e-05
-0.000111954
-5.34102e-05
-7.51812e-05
-2.75642e-05
-4.25303e-05
-9.24601e-06
-1.55914e-05
2.78002e-06
5.25879e-06
9.73479e-06
2.03919e-05
1.27239e-05
3.05131e-05
1.27477e-05
3.64128e-05
1.07329e-05
3.87798e-05
7.56101e-06
3.79884e-05
4.10411e-06
3.38523e-05
1.26581e-06
2.54519e-05
1.10793e-05
-1.21874e-06
1.76113e-06
-4.22826e-06
5.89404e-06
-8.71068e-06
1.05879e-05
-1.46342e-05
1.59849e-05
-2.2211e-05
2.24707e-05
-3.18194e-05
3.03818e-05
-4.39497e-05
4.00288e-05
-5.91601e-05
5.17276e-05
-7.80157e-05
6.57748e-05
-0.000100984
8.23291e-05
-0.000128295
0.000101245
-0.000159812
0.000121945
-0.000194963
0.000143413
-0.000232782
0.00016432
-0.000272025
0.000183236
-0.000311338
0.000198854
-0.000349406
0.000210158
-0.000385079
0.000216514
-0.000417452
0.000217687
-0.000445925
0.000213811
-0.000470216
0.000205312
-0.000490343
0.000192807
-0.000506566
0.000177002
-0.000519315
0.000158595
-0.000529111
0.000138215
-0.000536506
0.000116378
-0.000542029
9.34764e-05
-0.000546153
6.97823e-05
-0.000549279
4.5465e-05
-0.000551725
2.06088e-05
-0.000553731
-4.76551e-06
-0.000555392
-3.06508e-05
-0.000556737
-5.70935e-05
-0.000557643
-8.41058e-05
-0.00055781
-0.000111658
-0.000556728
-0.000139637
-0.000553628
-0.000167784
-0.000547462
-0.000195625
-0.000536912
-0.000222389
-0.000520475
-0.000246928
-0.000496632
-0.000267678
-0.000464137
-0.000282692
-0.000422395
-0.000289798
-0.000371878
-0.000286923
-0.000314454
-0.000272592
-0.000253443
-0.000246525
-0.000193221
-0.000210171
-0.000138298
-0.000166877
-9.21172e-05
-0.000121362
-5.61904e-05
-7.84572e-05
-3.01128e-05
-4.1669e-05
-1.23752e-05
-1.24788e-05
-1.22781e-06
9.24451e-06
4.8943e-06
2.4391e-05
7.30399e-06
3.40031e-05
7.12499e-06
3.89588e-05
5.36924e-06
3.97441e-05
2.99288e-06
3.62287e-05
9.21708e-07
2.75231e-05
1.2001e-05
-1.74044e-06
3.50157e-06
-5.84249e-06
9.99608e-06
-1.17557e-05
1.65011e-05
-1.93933e-05
2.36225e-05
-2.90124e-05
3.20897e-05
-4.1076e-05
4.24455e-05
-5.6158e-05
5.51107e-05
-7.48624e-05
7.04321e-05
-9.772e-05
8.86324e-05
-0.000125041
0.00010965
-0.000156761
0.000132964
-0.000192341
0.000157525
-0.00023078
0.000181853
-0.00027073
0.00020427
-0.00031067
0.000223176
-0.000349095
0.000237278
-0.000384671
0.000245735
-0.000416367
0.00024821
-0.000443534
0.000244853
-0.000465929
0.000236207
-0.000483685
0.000223068
-0.000497222
0.000206344
-0.000507146
0.000186926
-0.000514147
0.000165596
-0.000518913
0.000142981
-0.000522078
0.000119543
-0.000524187
9.55861e-05
-0.000525691
7.12863e-05
-0.000526944
4.6718e-05
-0.000528223
2.18874e-05
-0.000529754
-3.23472e-06
-0.000531644
-2.8761e-05
-0.000533992
-5.4745e-05
-0.000536805
-8.12932e-05
-0.000539972
-0.000108491
-0.000543225
-0.000136384
-0.00054606
-0.000164949
-0.000547667
-0.000194018
-0.000546854
-0.000223201
-0.000542023
-0.00025176
-0.000531215
-0.000278486
-0.000512302
-0.000301605
-0.000483334
-0.000318766
-0.000443061
-0.000327197
-0.000391552
-0.000324101
-0.00033075
-0.000307327
-0.000264675
-0.000276246
-0.000198954
-0.000232598
-0.0001395
-0.000180816
-9.06973e-05
-0.00012726
-5.41248e-05
-7.82415e-05
-2.87662e-05
-3.78374e-05
-1.23745e-05
-7.14718e-06
-2.66224e-06
1.46787e-05
2.26229e-06
2.90786e-05
3.9e-06
3.73211e-05
3.48382e-06
4.01603e-05
2.08479e-06
3.76277e-05
6.61923e-07
2.8946e-05
1.26629e-05
-2.3457e-06
5.84728e-06
-7.67207e-06
1.53224e-05
-1.51526e-05
2.39816e-05
-2.4645e-05
3.31149e-05
-3.64583e-05
4.39031e-05
-5.11346e-05
5.71217e-05
-6.93006e-05
7.32767e-05
-9.15437e-05
9.26752e-05
-0.000118264
0.000115353
-0.000149503
0.000140889
-0.000184803
0.000168265
-0.000223182
0.000195904
-0.000263223
0.000221893
-0.000303262
0.000244309
-0.000341604
0.000261519
-0.000376732
0.000272406
-0.000407477
0.000276479
-0.000433136
0.000273868
-0.000453507
0.000265225
-0.00046884
0.00025154
-0.000479721
0.000233948
-0.000486929
0.000213553
-0.000491311
0.000191308
-0.000493672
0.000167957
-0.000494714
0.000144023
-0.000495004
0.000119833
-0.000494976
9.55585e-05
-0.000494948
7.12586e-05
-0.000495146
4.6916e-05
-0.000495734
2.24751e-05
-0.000496854
-2.11498e-06
-0.000498592
-2.70225e-05
-0.000501061
-5.22765e-05
-0.000504348
-7.80059e-05
-0.000508509
-0.00010433
-0.000513527
-0.000131366
-0.000519249
-0.000159226
-0.000525292
-0.000187975
-0.000530925
-0.000217569
-0.000534944
-0.000247741
-0.000535581
-0.000277849
-0.000530501
-0.000306686
-0.000516964
-0.000332302
-0.000492236
-0.000351925
-0.000454256
-0.000362081
-0.000402513
-0.00035907
-0.000338913
-0.000339845
-0.000268227
-0.000303285
-0.000197551
-0.000251492
-0.000134442
-0.000190368
-8.42315e-05
-0.000128452
-4.82718e-05
-7.37971e-05
-2.46323e-05
-3.07866e-05
-1.02481e-05
2.9446e-07
-2.34777e-06
2.11783e-05
1.21549e-06
3.37579e-05
2.06785e-06
3.93079e-05
1.48715e-06
3.82084e-05
5.24254e-07
2.99088e-05
1.31872e-05
-3.02456e-06
8.87184e-06
-9.67999e-06
2.19779e-05
-1.88253e-05
3.3127e-05
-3.02636e-05
4.45532e-05
-4.4356e-05
5.79955e-05
-6.17034e-05
7.44691e-05
-8.29361e-05
9.45095e-05
-0.000108545
0.000118284
-0.000138697
0.000145506
-0.000173071
0.000175262
-0.000210766
0.00020596
-0.000250362
0.0002355
-0.000290097
0.000261628
-0.000328112
0.000282324
-0.000362706
0.000296113
-0.00039256
0.000302261
-0.000416899
0.000300818
-0.000435542
0.000292511
-0.00044884
0.000278523
-0.000457534
0.000260234
-0.000462575
0.000238989
-0.000464954
0.000215932
-0.000465581
0.000191934
-0.000465204
0.000167581
-0.000464392
0.000143211
-0.000463535
0.000118975
-0.000462877
9.49e-05
-0.000462555
7.0937e-05
-0.000462644
4.70046e-05
-0.000463182
2.30134e-05
-0.000464199
-1.09782e-06
-0.000465756
-2.54662e-05
-0.000467927
-5.01049e-05
-0.000470826
-7.51067e-05
-0.000474594
-0.000100562
-0.000479377
-0.000126583
-0.000485291
-0.000153312
-0.000492347
-0.000180919
-0.000500344
-0.000209571
-0.00050872
-0.000239364
-0.00051637
-0.000270199
-0.000521474
-0.000301581
-0.000521419
-0.000332358
-0.000512906
-0.000360438
-0.000492383
-0.000382605
-0.000456869
-0.000394584
-0.000405135
-0.000391579
-0.000338983
-0.000369437
-0.000264032
-0.000326443
-0.00018912
-0.00026528
-0.000123645
-0.000193928
-7.36654e-05
-0.000123776
-3.97725e-05
-6.46796e-05
-1.88082e-05
-2.06698e-05
-6.94311e-06
9.31325e-06
-1.0656e-06
2.78803e-05
1.10143e-06
3.71409e-05
1.20942e-06
3.81004e-05
5.13784e-07
3.06045e-05
1.3701e-05
-3.75836e-06
1.26302e-05
-1.18085e-05
3.0028e-05
-2.26654e-05
4.39839e-05
-3.60771e-05
5.79648e-05
-5.24477e-05
7.43661e-05
-7.24015e-05
9.44228e-05
-9.65083e-05
0.000118616
-0.000125075
0.00014685
-0.000157951
0.000178382
-0.000194392
0.000211703
-0.000233057
0.000244625
-0.000272157
0.0002746
-0.000309712
0.000299183
-0.000343849
0.000316461
-0.000373083
0.000325347
-0.000396526
0.000325704
-0.000413974
0.000318266
-0.000425844
0.000304381
-0.000433007
0.000285686
-0.000436566
0.000263793
-0.00043765
0.000240074
-0.000437266
0.000215548
-0.000436208
0.000190876
-0.000435034
0.000166407
-0.000434086
0.000142263
-0.000433534
0.000118423
-0.000433424
9.47903e-05
-0.000433731
7.12441e-05
-0.000434399
4.76727e-05
-0.000435373
2.39874e-05
-0.000436602
1.30817e-07
-0.000438109
-2.39591e-05
-0.000439927
-4.8287e-05
-0.000442155
-7.28793e-05
-0.000444947
-9.77694e-05
-0.000448511
-0.000123019
-0.00045309
-0.000148733
-0.000458931
-0.000175079
-0.000466215
-0.000202287
-0.000474945
-0.000230635
-0.000484763
-0.000260381
-0.000494725
-0.000291619
-0.000503047
-0.000324036
-0.000506919
-0.000356566
-0.000502546
-0.000386977
-0.000485572
-0.000411558
-0.000452052
-0.000425098
-0.000399985
-0.000421505
-0.000331101
-0.000395327
-0.000252104
-0.000344277
-0.000173931
-0.0002721
-0.000107896
-0.000189812
-6.01912e-05
-0.000112384
-2.98619e-05
-5.09991e-05
-1.23758e-05
-8.1728e-06
-3.37609e-06
1.88806e-05
3.81613e-07
3.33832e-05
1.16638e-06
3.73156e-05
6.06189e-07
3.11647e-05
1.43071e-05
-4.51936e-06
1.71496e-05
-1.39796e-05
3.94882e-05
-2.65341e-05
5.65384e-05
-4.18722e-05
7.33029e-05
-6.04202e-05
9.29142e-05
-8.27783e-05
0.000116781
-0.000109386
0.000145224
-0.000140288
0.000177753
-0.000174959
0.000213053
-0.000212228
0.000248972
-0.00025037
0.000282767
-0.000287353
0.000311583
-0.00032116
0.00033299
-0.000350123
0.000345424
-0.000373193
0.000348416
-0.000390075
0.000342586
-0.000401192
0.000329383
-0.000407498
0.000310687
-0.000410225
0.000288413
-0.000410632
0.0002642
-0.00040982
0.000239262
-0.000408633
0.000214361
-0.000407629
0.000189871
-0.000407108
0.000165886
-0.000407174
0.000142329
-0.000407797
0.000119046
-0.00040887
9.58639e-05
-0.00041026
7.26338e-05
-0.000411834
4.92465e-05
-0.000413481
2.56346e-05
-0.000415118
1.7678e-06
-0.000416725
-2.23524e-05
-0.000418311
-4.6701e-05
-0.000419942
-7.12483e-05
-0.000421744
-9.59666e-05
-0.000423911
-0.000120852
-0.000426702
-0.000145942
-0.000430442
-0.000171338
-0.000435495
-0.000197235
-0.000442199
-0.00022393
-0.000450755
-0.000251825
-0.00046102
-0.000281354
-0.000472227
-0.00031283
-0.000482651
-0.000346142
-0.000489323
-0.000380304
-0.00048798
-0.000412901
-0.000473478
-0.0004396
-0.000440926
-0.000454057
-0.000387613
-0.000448641
-0.000315419
-0.000416471
-0.000232576
-0.000354943
-0.000152579
-0.000269809
-8.84335e-05
-0.00017653
-4.52935e-05
-9.41391e-05
-1.98346e-05
-3.36318e-05
-6.39535e-06
5.44143e-06
-4.46936e-07
2.74348e-05
1.19416e-06
3.56745e-05
7.51316e-07
3.16075e-05
1.50585e-05
-5.27164e-06
2.24212e-05
-1.60988e-05
5.03153e-05
-3.02693e-05
7.0709e-05
-4.74054e-05
9.0439e-05
-6.79243e-05
0.000113433
-9.2348e-05
0.000141205
-0.00012092
0.000173796
-0.000153373
0.000210205
-0.000188787
0.000248468
-0.000225613
0.000285798
-0.000261856
0.00031901
-0.000295408
0.000345134
-0.000324418
0.000362
-0.000347627
0.000368633
-0.000364572
0.000365361
-0.000375595
0.00035361
-0.000381671
0.000335459
-0.000384122
0.000313138
-0.000384323
0.000288614
-0.000383478
0.000263355
-0.000382492
0.000238276
-0.000381939
0.000213808
-0.000382097
0.000190029
-0.000383018
0.000166808
-0.000384613
0.000143924
-0.000386711
0.000121145
-0.000389121
9.8274e-05
-0.000391658
7.51706e-05
-0.000394163
5.17514e-05
-0.000396512
2.79837e-05
-0.000398619
3.87513e-06
-0.000400439
-2.05328e-05
-0.000401963
-4.51771e-05
-0.000403227
-6.99846e-05
-0.000404313
-9.48803e-05
-0.000405363
-0.000119802
-0.000406588
-0.000144717
-0.000408281
-0.000169645
-0.000410825
-0.000194691
-0.000414679
-0.000220076
-0.00042033
-0.000246175
-0.000428164
-0.00027352
-0.000438249
-0.000302744
-0.000449988
-0.000334403
-0.000461696
-0.000368597
-0.000470207
-0.000404389
-0.000470751
-0.000439056
-0.000457386
-0.000467422
-0.000424331
-0.000481696
-0.000368379
-0.000472423
-0.00029204
-0.000431282
-0.000205816
-0.000356033
-0.00012622
-0.000256125
-6.70671e-05
-0.000153292
-3.06427e-05
-7.00562e-05
-1.09415e-05
-1.42597e-05
-1.83419e-06
1.83275e-05
1.08241e-06
3.27579e-05
8.87275e-07
3.18027e-05
1.59457e-05
-5.97318e-06
2.83944e-05
-1.80609e-05
6.2403e-05
-3.36963e-05
8.63444e-05
-5.24199e-05
0.000109163
-7.46018e-05
0.000135615
-0.000100634
0.000167237
-0.000130516
0.000203678
-0.000163644
0.000243333
-0.000198741
0.000283565
-0.000233968
0.000321024
-0.000267209
0.000352251
-0.000296463
0.000374388
-0.000320233
0.000385769
-0.000337805
0.000386206
-0.000349344
0.0003769
-0.000355755
0.000360021
-0.000358396
0.000338099
-0.000358738
0.000313481
-0.000358097
0.000287972
-0.000357458
0.000262717
-0.000357437
0.000238256
-0.000358312
0.000214683
-0.000360105
0.000191822
-0.000362681
0.000169384
-0.000365825
0.000147067
-0.0003693
0.00012462
-0.000372888
0.000101862
-0.0003764
7.86834e-05
-0.000379689
5.50397e-05
-0.000382641
3.09355e-05
-0.000385179
6.41376e-06
-0.000387258
-1.8454e-05
-0.000388858
-4.35769e-05
-0.000389991
-6.88518e-05
-0.000390701
-9.41709e-05
-0.000391072
-0.000119431
-0.000391243
-0.000144545
-0.000391427
-0.000169462
-0.000391929
-0.000194189
-0.000393171
-0.000218835
-0.00039569
-0.000243656
-0.000400103
-0.000269107
-0.000406979
-0.000295868
-0.000416586
-0.000324796
-0.000428472
-0.000356711
-0.000440934
-0.000391927
-0.000450515
-0.000429475
-0.000451823
-0.000466114
-0.000438058
-0.000495461
-0.000402658
-0.000507823
-0.000342332
-0.000491609
-0.000261053
-0.000437312
-0.00017266
-0.000344518
-9.68381e-05
-0.000229114
-4.60726e-05
-0.000120822
-1.78197e-05
-4.25125e-05
-4.23455e-06
4.7423e-06
6.23327e-07
2.79001e-05
9.54283e-07
3.14717e-05
1.69e-05
-6.57912e-06
3.49735e-05
-1.97578e-05
7.55817e-05
-3.66404e-05
0.000103227
-5.66661e-05
0.000129188
-8.01176e-05
0.000159067
-0.000107214
0.000194333
-0.000137688
0.000234152
-0.000170617
0.000276262
-0.000204433
0.000317382
-0.000237134
0.000353725
-0.000266641
0.000381758
-0.000291226
0.000398974
-0.000309873
0.000404416
-0.000322462
0.000398795
-0.000329722
0.00038416
-0.000332966
0.000363265
-0.000333727
0.00033886
-0.000333427
0.000313181
-0.000333164
0.000287708
-0.000333624
0.000263177
-0.000335116
0.000239747
-0.000337656
0.000217223
-0.000341081
0.000195247
-0.000345142
0.000173445
-0.000349572
0.000151497
-0.000354126
0.000129174
-0.000358598
0.000106334
-0.000362826
8.29119e-05
-0.000366689
5.89023e-05
-0.000370096
3.43428e-05
-0.000372986
9.30341e-06
-0.000375318
-1.61222e-05
-0.00037707
-4.18243e-05
-0.00037824
-6.76817e-05
-0.000378845
-9.35668e-05
-0.000378924
-0.000119351
-0.000378555
-0.000144914
-0.000377864
-0.000170153
-0.000377052
-0.000195001
-0.000376426
-0.000219461
-0.000376432
-0.00024365
-0.000377675
-0.000267864
-0.000380892
-0.000292651
-0.000386823
-0.000318864
-0.000395919
-0.000347616
-0.000407828
-0.000380018
-0.000420734
-0.000416569
-0.000430729
-0.000456119
-0.000431625
-0.000494565
-0.000415684
-0.000523764
-0.000375767
-0.000531526
-0.000309204
-0.000503874
-0.000222743
-0.000430979
-0.000134827
-0.00031703
-6.73508e-05
-0.000188298
-2.7698e-05
-8.21654e-05
-8.03211e-06
-1.49235e-05
-3.47778e-07
2.02157e-05
9.07587e-07
3.02163e-05
1.78076e-05
-7.04565e-06
4.20191e-05
-2.10873e-05
8.96233e-05
-3.89409e-05
0.000121081
-5.99221e-05
0.000150169
-8.4189e-05
0.000183333
-0.000111762
0.000221907
-0.000142111
0.000264501
-0.000174041
0.000308192
-0.000205794
0.000349134
-0.000235334
0.000383265
-0.000260769
0.000407192
-0.000280761
0.000418966
-0.000294828
0.000418483
-0.000303402
0.000407369
-0.000307644
0.000388402
-0.000309081
0.000364702
-0.000309232
0.000339011
-0.00030932
0.00031327
-0.000310144
0.000288532
-0.000312079
0.000265112
-0.000315166
0.000242835
-0.000319236
0.000221293
-0.000324017
0.000200028
-0.000329218
0.000178645
-0.000334573
0.000156852
-0.000339865
0.000134466
-0.000344924
0.000111393
-0.000349624
8.7612e-05
-0.000353871
6.31497e-05
-0.000357598
3.80696e-05
-0.000360756
1.24609e-05
-0.00036331
-1.35678e-05
-0.00036524
-3.98941e-05
-0.000366536
-6.63855e-05
-0.0003672
-9.29029e-05
-0.000367247
-0.000119305
-0.000366711
-0.000145451
-0.000365654
-0.00017121
-0.000364185
-0.000196469
-0.000362491
-0.000221155
-0.000360873
-0.000245268
-0.0003598
-0.000268937
-0.00035994
-0.00029251
-0.000362151
-0.000316654
-0.000367335
-0.000342432
-0.000376093
-0.00037126
-0.000388095
-0.000404567
-0.000401255
-0.00044296
-0.000410989
-0.000484831
-0.000410093
-0.000524659
-0.000389854
-0.000551765
-0.000342975
-0.000550754
-0.000268587
-0.000505367
-0.000178075
-0.000407542
-9.54261e-05
-0.000270947
-4.11822e-05
-0.000136409
-1.35286e-05
-4.25772e-05
-1.97148e-06
8.65864e-06
7.23978e-07
2.75209e-05
1.85316e-05
-7.33404e-06
4.93532e-05
-2.19613e-05
0.000104251
-4.04639e-05
0.000139583
-6.20115e-05
0.000171717
-8.66088e-05
0.000207931
-0.000114071
0.000249369
-0.000143632
0.000294062
-0.0001739
0.00033846
-0.000203031
0.000378265
-0.000229085
0.000409319
-0.00025046
0.000428567
-0.000266273
0.000434779
-0.000276554
0.000428764
-0.000282181
0.000412996
-0.000284579
0.000390799
-0.000285312
0.000365435
-0.000285737
0.000339435
-0.000286796
0.000314329
-0.000288977
0.000290713
-0.000292384
0.000268518
-0.000296864
0.000247315
-0.00030214
0.000226568
-0.000307902
0.00020579
-0.000313869
0.000184612
-0.000319812
0.000162795
-0.000325555
0.000140209
-0.000330971
0.000116809
-0.000335963
9.26042e-05
-0.000340462
6.76482e-05
-0.000344413
4.20206e-05
-0.000347775
1.58235e-05
-0.000350519
-1.08244e-05
-0.000352622
-3.7791e-05
-0.000354072
-6.49348e-05
-0.000354867
-9.21082e-05
-0.00035501
-0.000119161
-0.000354515
-0.000145945
-0.000353409
-0.000172316
-0.000351741
-0.000198137
-0.000349603
-0.000223294
-0.000347163
-0.000247708
-0.000344718
-0.000271381
-0.000342761
-0.000294467
-0.000342032
-0.000317383
-0.000343516
-0.000340948
-0.000348275
-0.000366501
-0.000357013
-0.000395829
-0.000369289
-0.000430683
-0.000382509
-0.000471611
-0.000391109
-0.00051606
-0.000386643
-0.000556231
-0.00035954
-0.000577857
-0.000303189
-0.000561718
-0.000220408
-0.000490323
-0.000129511
-0.000361844
-5.9054e-05
-0.000206867
-2.09206e-05
-8.07106e-05
-4.31371e-06
-7.9482e-06
3.95257e-07
2.28119e-05
1.89268e-05
-7.41426e-06
5.67674e-05
-2.23126e-05
0.000119149
-4.11116e-05
0.000158382
-6.2816e-05
0.000193421
-8.72588e-05
0.000232374
-0.000114061
0.000276171
-0.000142271
0.000322272
-0.00017038
0.000366569
-0.000196564
0.00040445
-0.000219078
0.000431833
-0.000236675
0.000446164
-0.000248926
0.00044703
-0.000256301
0.000436139
-0.000259983
0.000416678
-0.000261496
0.000392312
-0.0002623
0.000366239
-0.000263503
0.000340639
-0.000265748
0.000316574
-0.000269245
0.000294211
-0.000273897
0.00027317
-0.000279437
0.000252855
-0.000285548
0.000232679
-0.000291934
0.000212176
-0.000298354
0.000191032
-0.000304628
0.000169069
-0.000310624
0.000146206
-0.000316248
0.000122432
-0.000321426
9.77829e-05
-0.000326102
7.23237e-05
-0.000330226
4.61445e-05
-0.000333758
1.93554e-05
-0.000336666
-7.91649e-06