/*--------------------------------*- C++ -*----------------------------------*\
| =========                 |                                                 |
| \\      /  F ield         | OpenFOAM: The Open Source CFD Toolbox           |
|  \\    /   O peration     | Version:  2406                                  |
|   \\  /    A nd           | Website:  www.openfoam.com                      |
|    \\/     M anipulation  |                                                 |
\*---------------------------------------------------------------------------*/
FoamFile
{
    version     2.0;
    format      ascii;
    arch        "LSB;label=32;scalar=64";
    class       volScalarField;
    location    "44.5";
    object      p;
}
// * * * * * * * * * * * * * * * * * * * * * * * * * * * * * * * * * * * * * //

dimensions      [0 2 -2 0 0 0 0];

internalField   nonuniform List<scalar> 
3600
(
0.0409823
0.0410151
0.0410001
0.0409745
0.0408956
0.0408056
0.0406858
0.0405643
0.0404259
0.0402804
0.0401118
0.0399199
0.0396917
0.0394251
0.0391118
0.0387507
0.0383384
0.0378773
0.0373716
0.0368327
0.0362793
0.0357403
0.0352524
0.0348581
0.0346003
0.0345179
0.0346412
0.0349883
0.0355624
0.036349
0.0373131
0.0383982
0.0395262
0.0406011
0.0415155
0.0421618
0.0424464
0.0423053
0.0417172
0.0407123
0.0393689
0.0378047
0.0361526
0.0345433
0.033079
0.0318309
0.0308272
0.0300708
0.0295329
0.0291811
0.0289653
0.0288532
0.0288003
0.028794
0.028801
0.0288302
0.0288521
0.0288924
0.0289152
0.0289486
0.0409509
0.0409847
0.0409617
0.040936
0.0408605
0.0407802
0.0406718
0.0405635
0.0404379
0.0403058
0.0401516
0.0399766
0.0397686
0.0395264
0.0392415
0.0389118
0.0385319
0.0381019
0.0376243
0.0371095
0.0365727
0.0360367
0.0355316
0.0350959
0.0347733
0.0346077
0.0346363
0.0348842
0.0353606
0.0360552
0.0369367
0.0379505
0.0390203
0.0400507
0.0409342
0.0415627
0.0418407
0.0417024
0.0411248
0.0401377
0.0388207
0.0372945
0.0356954
0.0341565
0.0327792
0.0316296
0.0307265
0.0300621
0.0295972
0.0292945
0.0291035
0.028997
0.0289359
0.0289148
0.0289029
0.028914
0.0289166
0.0289416
0.0289483
0.028982
0.0409589
0.041003
0.040977
0.0409486
0.040867
0.0407841
0.0406766
0.0405738
0.0404573
0.0403362
0.0401938
0.0400302
0.0398329
0.0395991
0.0393187
0.0389864
0.0385942
0.0381381
0.0376146
0.0370279
0.0363923
0.0357372
0.0351045
0.0345443
0.0341084
0.033845
0.0337932
0.0339788
0.0344112
0.0350799
0.0359532
0.0369764
0.0380731
0.0391472
0.04009
0.0407899
0.0411463
0.0410861
0.0405775
0.0396428
0.0383566
0.0368402
0.0352359
0.033687
0.0323064
0.03117
0.0303011
0.029691
0.0292947
0.0290662
0.0289449
0.0288972
0.0288796
0.0288882
0.0288934
0.0289146
0.0289194
0.0289482
0.0289529
0.0290004
0.0409733
0.0410209
0.0409869
0.0409509
0.0408623
0.040779
0.0406782
0.0405884
0.0404894
0.0403876
0.0402648
0.0401186
0.0399344
0.0397048
0.0394141
0.039049
0.0385923
0.0380326
0.0373672
0.0366088
0.0357847
0.0349349
0.0341089
0.0333618
0.0327493
0.0323217
0.03212
0.0321711
0.0324858
0.0330559
0.0338531
0.0348279
0.0359093
0.0370071
0.0380168
0.0388279
0.0393359
0.0394581
0.0391488
0.038413
0.0373098
0.0359489
0.0344688
0.033016
0.0317118
0.0306419
0.0298377
0.0292961
0.0289724
0.0288189
0.0287697
0.0287864
0.0288202
0.0288665
0.0288944
0.0289284
0.0289355
0.0289655
0.028965
0.0290213
0.0410362
0.0410824
0.0410376
0.0409872
0.0408861
0.0407956
0.0406959
0.0406124
0.0405239
0.0404311
0.0403127
0.0401593
0.0399496
0.0396651
0.0392789
0.0387671
0.0381103
0.0373041
0.0363594
0.0353048
0.0341834
0.0330492
0.0319621
0.0309821
0.0301651
0.029559
0.0292014
0.029117
0.0293157
0.0297914
0.0305202
0.0314596
0.0325481
0.0337057
0.0348372
0.0358375
0.0366014
0.0370364
0.0370777
0.0367039
0.0359447
0.0348839
0.0336433
0.0323645
0.0311757
0.0301764
0.0294143
0.0289013
0.0286047
0.0284846
0.0284776
0.028544
0.0286291
0.0287232
0.0287904
0.0288549
0.0288815
0.0289252
0.0289297
0.0289932
0.0411287
0.0411646
0.0411052
0.0410352
0.0409224
0.0408252
0.0407289
0.040651
0.040569
0.0404741
0.0403391
0.0401413
0.0398466
0.0394206
0.0388281
0.038045
0.0370636
0.0358966
0.0345762
0.0331499
0.0316752
0.0302143
0.0288297
0.0275808
0.0265211
0.025695
0.0251369
0.0248687
0.0249002
0.0252271
0.0258314
0.02668
0.0277246
0.0289009
0.0301306
0.0313231
0.0323813
0.033211
0.0337322
0.0338939
0.0336865
0.03315
0.0323691
0.0314617
0.0305493
0.0297395
0.0290973
0.0286538
0.028394
0.0282936
0.0283003
0.0283822
0.0284872
0.0286048
0.0286954
0.02878
0.0288217
0.0288739
0.0288822
0.0289441
0.0412805
0.0412976
0.041221
0.0411257
0.040999
0.0408889
0.0407876
0.040699
0.0405987
0.0404624
0.0402521
0.0399246
0.0394315
0.0387278
0.0377831
0.0365882
0.0351596
0.0335349
0.0317688
0.0299248
0.0280718
0.0262772
0.0246045
0.023109
0.0218378
0.0208268
0.0201025
0.0196803
0.0195661
0.0197551
0.0202331
0.0209751
0.0219461
0.0230996
0.0243784
0.0257141
0.0270297
0.0282424
0.029271
0.0300453
0.030518
0.0306765
0.0305487
0.0302029
0.0297312
0.029235
0.0287933
0.0284621
0.0282537
0.0281675
0.0281702
0.0282435
0.0283438
0.0284639
0.0285641
0.0286609
0.0287162
0.0287764
0.0287912
0.0288477
0.0414878
0.0414762
0.0413827
0.0412591
0.04112
0.0409923
0.0408767
0.0407557
0.040601
0.0403646
0.0399942
0.0394249
0.0386034
0.0374886
0.036072
0.034371
0.0324321
0.0303173
0.0281014
0.0258597
0.0236667
0.0215881
0.0196818
0.0179933
0.0165593
0.0154049
0.0145472
0.0139938
0.013746
0.0137972
0.0141354
0.0147415
0.0155915
0.0166547
0.0178945
0.0192672
0.0207227
0.0222029
0.0236444
0.0249802
0.026146
0.0270889
0.0277762
0.028206
0.028407
0.0284386
0.0283693
0.0282705
0.0281861
0.0281497
0.0281579
0.0282142
0.0282911
0.0283898
0.0284765
0.0285654
0.0286197
0.0286769
0.0286931
0.0287386
0.0417673
0.0417174
0.0416086
0.0414522
0.041297
0.0411368
0.0409817
0.0407843
0.0405096
0.0400796
0.0394303
0.0384839
0.0371995
0.0355575
0.0335845
0.0313302
0.0288723
0.0262939
0.0236842
0.0211227
0.0186817
0.0164177
0.0143766
0.0125899
0.0110807
0.00986148
0.00893954
0.00831468
0.00798328
0.00793625
0.00816205
0.00864497
0.00936769
0.0103098
0.0114499
0.0127641
0.0142267
0.0158081
0.0174738
0.0191811
0.0208785
0.0225051
0.0239946
0.0252835
0.0263217
0.0270889
0.0275967
0.0278961
0.0280486
0.0281264
0.0281706
0.0282197
0.0282707
0.0283383
0.0283991
0.0284673
0.0285107
0.0285579
0.0285722
0.0286062
0.0421156
0.0420194
0.0418999
0.0417079
0.041531
0.0413173
0.0410866
0.0407524
0.0402715
0.0395361
0.0384824
0.0370369
0.0351913
0.03296
0.0304118
0.0276276
0.0247113
0.0217583
0.0188616
0.0160934
0.0135143
0.0111643
0.00907374
0.00725866
0.00572999
0.00449002
0.003539
0.00287157
0.0024815
0.0023584
0.00249152
0.00286708
0.00347174
0.00429076
0.00531121
0.00652056
0.00790904
0.00946755
0.0111874
0.0130558
0.0150514
0.0171376
0.0192555
0.0213226
0.0232357
0.0248894
0.0261984
0.0271324
0.027718
0.0280417
0.028194
0.028268
0.0283031
0.0283373
0.028363
0.0283987
0.0284192
0.0284475
0.0284537
0.0284763
0.0425238
0.0423756
0.0422484
0.0420128
0.0417978
0.0414948
0.0411322
0.0405783
0.0397858
0.0386258
0.037054
0.0350206
0.0325647
0.0297414
0.0266604
0.023427
0.0201606
0.0169549
0.0138947
0.0110346
0.00841753
0.0060645
0.0039908
0.0021993
0.000692143
-0.000535343
-0.00148669
-0.00217
-0.00259223
-0.00276401
-0.00269505
-0.00239781
-0.00188333
-0.00116365
-0.000247915
0.000856226
0.00214604
0.00362247
0.00529166
0.00716187
0.00924004
0.0115237
0.0139898
0.0165824
0.0192005
0.0217007
0.0239133
0.0256902
0.0269501
0.0277233
0.0281161
0.0282817
0.0283291
0.0283399
0.0283313
0.028331
0.0283231
0.0283288
0.0283237
0.0283377
0.0429695
0.0427672
0.0426351
0.0423456
0.0420688
0.0416304
0.0410666
0.0402003
0.0389903
0.0373037
0.0351371
0.0324794
0.0294249
0.0260665
0.0225469
0.0189817
0.0154905
0.0121516
0.00903118
0.00616108
0.00356562
0.00124887
-0.00078487
-0.0025415
-0.00402322
-0.00523796
-0.00618996
-0.00688783
-0.00733756
-0.00754904
-0.00753034
-0.00729256
-0.00684487
-0.00619785
-0.00535888
-0.00433419
-0.00312473
-0.00172718
-0.000131048
0.00168008
0.00372781
0.00603408
0.0086114
0.0114491
0.0144917
0.0176222
0.0206524
0.0233504
0.025497
0.026979
0.027829
0.0282168
0.0283348
0.0283435
0.0283066
0.0282702
0.0282309
0.0282114
0.0281923
0.0282001
0.0434051
0.0431481
0.0430077
0.0426456
0.0422707
0.0416386
0.0407946
0.0395233
0.0378063
0.0355262
0.0327375
0.0294752
0.025887
0.022094
0.0182569
0.0144849
0.0108839
0.00750677
0.00439788
0.00156644
-0.000977886
-0.00324334
-0.00523153
-0.006953
-0.00841088
-0.00961412
-0.010566
-0.0112746
-0.0117445
-0.0119847
-0.0120015
-0.011805
-0.0114027
-0.0108043
-0.0100163
-0.00904486
-0.00789118
-0.00655296
-0.0050208
-0.00327836
-0.0013013
0.000941774
0.00348349
0.0063496
0.00953747
0.0129935
0.0165796
0.0200651
0.0231476
0.0255476
0.0271215
0.0279485
0.0282531
0.028305
0.0282561
0.0281891
0.0281204
0.0280769
0.0280434
0.0280473
0.0437782
0.0434691
0.0433129
0.0428563
0.0423415
0.0414549
0.0402555
0.0385035
0.0362218
0.0333265
0.029939
0.026139
0.022118
0.0180091
0.0139744
0.0101015
0.00647378
0.00311568
5.15689e-05
-0.0027275
-0.00522083
-0.00744395
-0.00939998
-0.0111011
-0.0125491
-0.0137526
-0.014713
-0.0154377
-0.0159293
-0.0161958
-0.016242
-0.0160767
-0.015706
-0.0151388
-0.0143808
-0.0134382
-0.012313
-0.0110052
-0.00950847
-0.00781062
-0.00589142
-0.00372089
-0.00126214
0.00152779
0.00468193
0.00820761
0.0120456
0.0160378
0.0198995
0.0232599
0.0257782
0.0273178
0.0280174
0.0282022
0.0281726
0.0280847
0.0279896
0.0279236
0.0278761
0.027876
0.0440061
0.0436467
0.0434598
0.0428815
0.0421809
0.0409827
0.039367
0.0370879
0.0342258
0.0307411
0.0268223
0.0225846
0.0182484
0.0139409
0.00981116
0.00591588
0.00231417
-0.000995892
-0.00400427
-0.00673231
-0.00918282
-0.0113747
-0.0133098
-0.0150001
-0.0164454
-0.0176535
-0.0186239
-0.0193634
-0.0198732
-0.0201605
-0.0202287
-0.0200859
-0.0197369
-0.0191898
-0.0184495
-0.0175221
-0.0164104
-0.0151156
-0.0136349
-0.0119602
-0.0100779
-0.00796429
-0.00558783
-0.00290371
0.000134959
0.00357369
0.00742042
0.0116129
0.015958
0.0201108
0.0236227
0.0261107
0.0274806
0.0279782
0.0280271
0.0279389
0.0278226
0.0277346
0.0276741
0.0276681
0.0440215
0.0436149
0.0433805
0.0426556
0.041729
0.0401769
0.0381089
0.0352921
0.0318743
0.0278645
0.0235099
0.0189473
0.0144085
0.01
0.00584852
0.00197754
-0.00157519
-0.00483231
-0.00779175
-0.010482
-0.0129054
-0.0150816
-0.0170096
-0.0187009
-0.0201524
-0.0213717
-0.0223564
-0.0231128
-0.0236407
-0.023947
-0.0240337
-0.0239082
-0.0235745
-0.0230399
-0.0223087
-0.0213867
-0.0202769
-0.0189815
-0.0175001
-0.0158281
-0.013958
-0.0118731
-0.0095515
-0.00695535
-0.00404019
-0.000746028
0.0029742
0.00713714
0.0116605
0.0163081
0.0206554
0.0241723
0.0264657
0.027548
0.0277995
0.0277454
0.0276188
0.0275057
0.0274319
0.0274155
0.0437384
0.0432866
0.0429859
0.0420928
0.0409098
0.0389816
0.0364554
0.0331267
0.0292135
0.0247697
0.0200883
0.0153117
0.010668
0.00623296
0.00210831
-0.00171316
-0.00520916
-0.00841679
-0.0113364
-0.0139999
-0.0164064
-0.0185754
-0.0205024
-0.0221984
-0.0236579
-0.0248883
-0.0258856
-0.0266562
-0.0271986
-0.0275195
-0.02762
-0.0275073
-0.0271842
-0.0266577
-0.0259317
-0.0250115
-0.0239004
-0.0226009
-0.0211142
-0.0194376
-0.0175682
-0.0154946
-0.0132044
-0.0106688
-0.00785438
-0.00470331
-0.00115635
0.00285017
0.00732321
0.0121576
0.0170486
0.021465
0.0248145
0.0267443
0.0274482
0.0274786
0.02737
0.0272257
0.0271364
0.0271036
0.043113
0.04262
0.0422374
0.0411646
0.0397113
0.0374092
0.0344482
0.0306635
0.0263388
0.0215644
0.0166633
0.0117691
0.00709507
0.00268241
-0.00139016
-0.00515494
-0.00859869
-0.0117673
-0.0146596
-0.0173082
-0.0197082
-0.0218783
-0.0238106
-0.0255158
-0.0269865
-0.0282298
-0.0292405
-0.030025
-0.0305808
-0.0309145
-0.0310263
-0.030923
-0.0306071
-0.030085
-0.0293604
-0.0284384
-0.0273226
-0.0260155
-0.0245196
-0.0228332
-0.0209566
-0.0188817
-0.0166037
-0.0141018
-0.0113556
-0.00831707
-0.0049332
-0.00112288
0.0031735
0.00796085
0.013083
0.0181279
0.0224623
0.0254191
0.0268604
0.0271299
0.0270564
0.0268947
0.0267791
0.0267247
0.042099
0.041569
0.0410931
0.0398389
0.0381177
0.0354662
0.0321185
0.0279541
0.0233129
0.0183109
0.0132856
0.00835135
0.00370067
-0.000658749
-0.00466665
-0.00837385
-0.0117707
-0.0149076
-0.0177795
-0.0204187
-0.0228157
-0.0249885
-0.0269265
-0.0286401
-0.0301203
-0.0313743
-0.0323959
-0.0331914
-0.0337576
-0.0341008
-0.0342207
-0.0341239
-0.0338123
-0.0332924
-0.0325677
-0.0316432
-0.030523
-0.0292092
-0.0277059
-0.0260111
-0.024128
-0.0220494
-0.0197762
-0.0172925
-0.0145899
-0.011631
-0.00837787
-0.00475168
-0.00067425
0.00392939
0.00903356
0.0143955
0.0194762
0.0234878
0.0258606
0.0266722
0.0266436
0.0265025
0.0263469
0.0262657
0.0407081
0.0401482
0.0395746
0.0381493
0.0361794
0.0332222
0.029553
0.0250961
0.0202347
0.0150992
0.0100286
0.00511167
0.000518407
-0.00377255
-0.00771386
-0.0113687
-0.0147269
-0.0178403
-0.020699
-0.0233341
-0.025732
-0.0279103
-0.0298558
-0.031579
-0.0330694
-0.0343345
-0.0353669
-0.0361729
-0.0367486
-0.0371
-0.0372264
-0.037134
-0.0368247
-0.0363046
-0.0355776
-0.0346484
-0.0335221
-0.0322006
-0.0306895
-0.0289864
-0.0270969
-0.0250137
-0.0227419
-0.0202677
-0.0175919
-0.0146857
-0.0115282
-0.00805183
-0.00418348
0.000183713
0.00511345
0.0105205
0.0160501
0.020944
0.0243607
0.0259625
0.026145
0.0260051
0.025841
0.0257092
0.0389539
0.0383723
0.0377021
0.0361246
0.0339369
0.0307289
0.0268105
0.0221476
0.017153
0.0119622
0.00690588
0.00204561
-0.00246983
-0.00668488
-0.0105602
-0.0141663
-0.0174899
-0.0205827
-0.0234295
-0.0260603
-0.0284581
-0.0306401
-0.0325909
-0.0343215
-0.0358198
-0.0370935
-0.0381344
-0.0389486
-0.0395315
-0.0398889
-0.0400197
-0.0399298
-0.0396212
-0.0390996
-0.0383696
-0.0374354
-0.0363035
-0.0349753
-0.0334582
-0.0317493
-0.0298565
-0.0277716
-0.0255033
-0.0230374
-0.0203819
-0.0175124
-0.0144236
-0.0110609
-0.00736906
-0.003236
0.0014457
0.00671113
0.0124032
0.017897
0.0223357
0.0248284
0.0255644
0.0253581
0.0252537
0.0250341
0.0369044
0.0363119
0.0355522
0.0338492
0.0314832
0.0280857
0.0239918
0.0192046
0.0141524
0.008969
0.0039701
-0.000808495
-0.00523641
-0.00937485
-0.0131886
-0.0167511
-0.0200454
-0.0231211
-0.0259587
-0.0285867
-0.0309854
-0.0331715
-0.0351282
-0.0368663
-0.0383728
-0.0396553
-0.0407046
-0.0415268
-0.0421165
-0.0424792
-0.0426136
-0.0425251
-0.042216
-0.0416916
-0.0409573
-0.0400168
-0.0388785
-0.0375427
-0.0360196
-0.034305
-0.0324102
-0.030325
-0.028062
-0.025605
-0.0229679
-0.0201269
-0.0170896
-0.0138115
-0.0102599
-0.00633219
-0.0019134
0.00310887
0.00873298
0.014543
0.0197967
0.0232366
0.0247712
0.0245856
0.0245337
0.0242337
0.0346191
0.0340268
0.0331878
0.0313884
0.0288853
0.0253573
0.021154
0.0163102
0.0112583
0.00612631
0.00121159
-0.00347192
-0.00780903
-0.0118719
-0.0156269
-0.019148
-0.0224135
-0.0254714
-0.0282979
-0.0309206
-0.0333173
-0.0355046
-0.0374644
-0.0392074
-0.0407197
-0.0420087
-0.0430644
-0.0438925
-0.0444873
-0.0448536
-0.0449902
-0.0449019
-0.0445916
-0.0440637
-0.0433251
-0.0423784
-0.0412341
-0.0398916
-0.0383639
-0.0366452
-0.0347506
-0.0326675
-0.0304132
-0.0279678
-0.025351
-0.0225368
-0.019543
-0.0163308
-0.0128891
-0.00913131
-0.00495614
-0.000215781
0.00519082
0.0110712
0.0168372
0.0212172
0.0235816
0.0237311
0.0236136
0.023305
0.0321967
0.0316174
0.030712
0.028847
0.0262481
0.0226452
0.018391
0.0135471
0.00854048
0.00349136
-0.00132276
-0.00590512
-0.0101527
-0.0141437
-0.0178446
-0.0213275
-0.0245669
-0.0276081
-0.0304243
-0.0330419
-0.0354369
-0.0376256
-0.0395887
-0.0413368
-0.0428551
-0.0441505
-0.0452127
-0.0460466
-0.0466463
-0.047016
-0.0471546
-0.047066
-0.0467542
-0.0462223
-0.045479
-0.0445258
-0.0433755
-0.0420259
-0.0404938
-0.038771
-0.0368775
-0.0347973
-0.0325535
-0.0301216
-0.0275276
-0.0247407
-0.021788
-0.0186315
-0.015279
-0.0116596
-0.00769557
-0.00323712
0.00187856
0.00763156
0.0136302
0.0187975
0.0219516
0.0227552
0.0224822
0.0222298
0.0297122
0.0291575
0.0281984
0.0262952
0.0236358
0.0200029
0.0157417
0.0109373
0.0060032
0.00105329
-0.00365507
-0.00813687
-0.0122989
-0.0162216
-0.0198709
-0.023316
-0.0265284
-0.0295506
-0.0323538
-0.034963
-0.0373532
-0.03954
-0.0415036
-0.0432538
-0.0447756
-0.0460751
-0.0471417
-0.0479794
-0.0485824
-0.048954
-0.0490936
-0.049004
-0.0486903
-0.0481544
-0.0474069
-0.0464474
-0.0452921
-0.0439362
-0.042401
-0.0406752
-0.0387844
-0.0367086
-0.0344774
-0.032061
-0.0294929
-0.0267356
-0.0238252
-0.0207203
-0.0174452
-0.0139405
-0.0101552
-0.00595738
-0.00115383
0.00433406
0.0103497
0.0160273
0.019945
0.0215129
0.0211782
0.0209637
0.0272649
0.0267468
0.0257477
0.0238317
0.0211429
0.017518
0.013285
0.00854995
0.00370713
-0.00113411
-0.00573599
-0.0101205
-0.0142024
-0.0180616
-0.0216634
-0.0250733
-0.0282604
-0.0312645
-0.0340554
-0.0366565
-0.0390424
-0.0412275
-0.043192
-0.0449446
-0.0464701
-0.0477737
-0.0488447
-0.0496862
-0.0502927
-0.0506662
-0.050807
-0.0507164
-0.0504012
-0.0498612
-0.04911
-0.0481444
-0.0469847
-0.0456228
-0.0440852
-0.0423566
-0.0404692
-0.038398
-0.0361805
-0.0337805
-0.0312403
-0.0285142
-0.0256486
-0.0225945
-0.019392
-0.0159859
-0.0123539
-0.00838691
-0.00388908
0.00125865
0.00713001
0.0130184
0.0176417
0.0199019
0.0197617
0.0194834
0.0249182
0.0244467
0.0234191
0.0215094
0.0188135
0.0152222
0.0110379
0.00638678
0.00164012
-0.00309397
-0.00759621
-0.0118909
-0.0158999
-0.0197001
-0.0232568
-0.0266316
-0.0297923
-0.032776
-0.0355519
-0.0381418
-0.0405202
-0.0427006
-0.0446629
-0.0464149
-0.0479415
-0.0492466
-0.0503201
-0.0511633
-0.0517718
-0.0521457
-0.052287
-0.0521946
-0.0518779
-0.0513339
-0.0505795
-0.0496085
-0.0484454
-0.0470783
-0.0455396
-0.0438089
-0.0419263
-0.0398602
-0.0376578
-0.0352746
-0.0327642
-0.0300705
-0.0272524
-0.0242498
-0.0211192
-0.017802
-0.0143057
-0.0105395
-0.00632899
-0.00154548
0.00406168
0.00991695
0.0151029
0.0179304
0.0182417
0.0177901
0.0227521
0.0223375
0.0212934
0.0194071
0.0167225
0.0131849
0.00906472
0.00450731
-0.000141359
-0.00477149
-0.00918117
-0.0133934
-0.0173367
-0.0210831
-0.0245991
-0.0279415
-0.031078
-0.0340428
-0.036805
-0.0393847
-0.0417567
-0.043933
-0.0458939
-0.0476458
-0.049174
-0.0504809
-0.0515571
-0.0524023
-0.0530132
-0.0533878
-0.0535301
-0.0534365
-0.0531189
-0.0525714
-0.0518148
-0.0508387
-0.0496732
-0.0483013
-0.0467623
-0.0450297
-0.0431525
-0.0410913
-0.0389045
-0.0365377
-0.0340578
-0.0313967
-0.0286279
-0.0256772
-0.0226196
-0.0193859
-0.0160146
-0.0124236
-0.00847861
-0.00405168
0.00120768
0.00685815
0.0123838
0.0156599
0.0165445
0.0158804
0.0208042
0.0204541
0.0194032
0.0175513
0.0148881
0.0114137
0.00736101
0.00289569
-0.00166339
-0.00620073
-0.0105306
-0.0146713
-0.0185574
-0.0222555
-0.0257337
-0.0290443
-0.0321561
-0.0351001
-0.0378464
-0.0404133
-0.0427761
-0.0449453
-0.046902
-0.0486508
-0.0501781
-0.0514842
-0.0525612
-0.0534063
-0.0540182
-0.0543922
-0.0545349
-0.0544392
-0.0541209
-0.0535697
-0.0528114
-0.0518306
-0.0506637
-0.0492872
-0.0477491
-0.0460147
-0.0441437
-0.042087
-0.0399161
-0.037565
-0.0351159
-0.0324863
-0.0297679
-0.0268688
-0.0238855
-0.0207319
-0.0174793
-0.0140433
-0.0103422
-0.00624857
-0.00138529
0.0039479
0.00956254
0.0131679
0.0145914
0.0137644
0.0191283
0.018851
0.0178046
0.0159979
0.0133652
0.00996195
0.00597999
0.00160541
-0.00287058
-0.007324
-0.0115842
-0.0156623
-0.019499
-0.0231547
-0.0265998
-0.0298822
-0.0329723
-0.0358979
-0.0386307
-0.0411866
-0.0435421
-0.0457056
-0.0476595
-0.0494063
-0.0509337
-0.0522399
-0.0533185
-0.0541643
-0.0547782
-0.0551522
-0.0552962
-0.0551991
-0.0548812
-0.0543269
-0.0535682
-0.0525829
-0.0514156
-0.0500347
-0.0484981
-0.0467616
-0.044897
-0.0428439
-0.0406885
-0.0383512
-0.0359321
-0.0333319
-0.0306634
-0.0278142
-0.0249056
-0.0218292
-0.0186915
-0.0153949
-0.011918
-0.00812884
-0.00367925
0.00126716
0.00674748
0.0105495
0.0123896
0.0114966
0.0177326
0.0175332
0.0165006
0.0147454
0.012146
0.0088142
0.00489766
0.000604345
-0.0038026
-0.0081872
-0.0123926
-0.0164203
-0.0202173
-0.0238365
-0.0272523
-0.0305079
-0.0335762
-0.0364824
-0.0392001
-0.0417427
-0.0440886
-0.0462439
-0.0481926
-0.0499349
-0.0514603
-0.0527643
-0.0538429
-0.0546875
-0.0553022
-0.0556749
-0.0558198
-0.0557205
-0.0554029
-0.054845
-0.0540861
-0.0530962
-0.0519289
-0.0505432
-0.0490085
-0.0472689
-0.0454106
-0.0433594
-0.0412188
-0.0388926
-0.036502
-0.0339279
-0.0313076
-0.0285047
-0.0256698
-0.0226667
-0.0196403
-0.0164705
-0.0131997
-0.00968497
-0.00564288
-0.00111842
0.00406285
0.00792209
0.0100426
0.00917634
0.0166467
0.0165309
0.0155244
0.0138296
0.0112693
0.00801185
0.00415973
-5.70384e-05
-0.00440309
-0.00872859
-0.0128893
-0.0168757
-0.0206406
-0.0242297
-0.0276213
-0.0308544
-0.0339051
-0.0367954
-0.0395012
-0.0420336
-0.0443727
-0.0465224
-0.0484682
-0.0502081
-0.0517335
-0.0530369
-0.0541173
-0.054962
-0.0555793
-0.0559519
-0.0560992
-0.0559986
-0.0556828
-0.055122
-0.0543642
-0.0533697
-0.0522033
-0.0508123
-0.0492796
-0.0475356
-0.0456832
-0.0436313
-0.041504
-0.0391854
-0.0368208
-0.0342678
-0.0316926
-0.0289307
-0.0261665
-0.023231
-0.0203119
-0.0172569
-0.014176
-0.0109056
-0.00724944
-0.00315377
0.00162564
0.00541361
0.00769815
0.00691961
0.0158518
0.0158209
0.0148509
0.0132223
0.0107027
0.00751743
0.00372315
-0.000427311
-0.00472639
-0.00900759
-0.0131383
-0.0170955
-0.020838
-0.0244034
-0.0277751
-0.0309876
-0.0340212
-0.036895
-0.039588
-0.0421085
-0.0444393
-0.0465813
-0.0485228
-0.0502582
-0.0517824
-0.0530835
-0.0541646
-0.0550082
-0.0556273
-0.0559986
-0.0561481
-0.0560452
-0.0557312
-0.0551665
-0.0544098
-0.0534096
-0.052244
-0.050846
-0.0493149
-0.0475642
-0.0457162
-0.0436603
-0.041544
-0.039228
-0.0368859
-0.0343477
-0.031813
-0.0290846
-0.0263863
-0.0235101
-0.0206924
-0.0177399
-0.0148331
-0.0117772
-0.00847653
-0.00479388
-0.000468534
0.00314448
0.00549716
0.00483388
0.0153592
0.0154143
0.0144951
0.0129436
0.0104729
0.00736418
0.00362945
-0.000456573
-0.00471322
-0.00895694
-0.013065
-0.0170008
-0.0207277
-0.0242759
-0.0276333
-0.0308304
-0.0338518
-0.0367136
-0.0393984
-0.0419112
-0.044238
-0.0463761
-0.048317
-0.0500513
-0.0515774
-0.0528791
-0.053964
-0.0548085
-0.0554323
-0.0558041
-0.0559581
-0.0558542
-0.0555438
-0.0549759
-0.0542216
-0.0532156
-0.0520512
-0.0506451
-0.0491151
-0.0473551
-0.04551
-0.043446
-0.0413376
-0.0390185
-0.0366943
-0.0341632
-0.031663
-0.0289586
-0.0263192
-0.0234918
-0.0207676
-0.0179034
-0.0151551
-0.012284
-0.00930467
-0.00600349
-0.00214854
0.00121569
0.00355334
0.00300838
0.0151258
0.0152616
0.014405
0.0129388
0.0105235
0.00749241
0.00381551
-0.000211438
-0.00443458
-0.00865171
-0.012749
-0.0166738
-0.0203943
-0.0239315
-0.0272788
-0.0304627
-0.033473
-0.0363228
-0.0389988
-0.041503
-0.043825
-0.0459581
-0.047898
-0.0496301
-0.0511581
-0.0524594
-0.053548
-0.0543928
-0.0550213
-0.0553928
-0.0555515
-0.0554456
-0.055139
-0.0545664
-0.0538142
-0.0528003
-0.0516365
-0.0502193
-0.0486888
-0.0469154
-0.0450705
-0.0429929
-0.0408884
-0.0385586
-0.0362467
-0.033713
-0.0312398
-0.0285476
-0.0259581
-0.0231659
-0.0205252
-0.0177327
-0.0151265
-0.0124103
-0.00971729
-0.00675609
-0.00336407
-0.000293555
0.00195454
0.0015164
0.0151517
0.0153612
0.0145838
0.0132176
0.010874
0.00793115
0.00432206
0.000360055
-0.00382599
-0.00801689
-0.0121058
-0.0160242
-0.0197432
-0.0232753
-0.0266184
-0.029795
-0.0328
-0.0356435
-0.0383167
-0.0408179
-0.0431409
-0.0452743
-0.0472186
-0.0489533
-0.0504882
-0.0517933
-0.0528902
-0.0537387
-0.0543759
-0.0547497
-0.0549164
-0.0548101
-0.0545098
-0.0539332
-0.0531849
-0.0521625
-0.0509997
-0.0495693
-0.0480374
-0.0462468
-0.0443996
-0.0423023
-0.0401974
-0.0378486
-0.0355425
-0.0329952
-0.0305403
-0.0278465
-0.0252964
-0.0225232
-0.0199537
-0.0172137
-0.0147328
-0.012141
-0.00969996
-0.00703184
-0.00408006
-0.00132283
0.000770601
0.00042083
0.0153701
0.0156386
0.0149535
0.0136982
0.0114427
0.00859663
0.00506339
0.00117029
-0.00297811
-0.0071459
-0.0112323
-0.0151512
-0.0188757
-0.0224079
-0.0257508
-0.0289222
-0.0319234
-0.0347608
-0.0374316
-0.0399296
-0.042254
-0.0443877
-0.0463373
-0.0480749
-0.049618
-0.0509271
-0.0520338
-0.052886
-0.0535332
-0.0539089
-0.0540846
-0.0539771
-0.0536835
-0.0531011
-0.0523562
-0.0513225
-0.0501594
-0.0487116
-0.0471759
-0.0453621
-0.0435087
-0.0413839
-0.0392727
-0.0368946
-0.0345864
-0.0320123
-0.0295656
-0.0268541
-0.0243307
-0.0215576
-0.019045
-0.0163354
-0.0139618
-0.0114631
-0.00924087
-0.00681618
-0.00427211
-0.00182601
6.02549e-05
-0.000221077
0.015779
0.0160907
0.0155143
0.0143874
0.0122484
0.00951916
0.00608398
0.00227685
-0.00181819
-0.00595319
-0.0100311
-0.0139495
-0.0176811
-0.0212179
-0.0245663
-0.0277392
-0.0307436
-0.0335822
-0.0362582
-0.0387602
-0.0410938
-0.0432348
-0.0451973
-0.0469443
-0.0485027
-0.0498214
-0.0509444
-0.0518049
-0.0524678
-0.0528489
-0.0530383
-0.0529317
-0.0526484
-0.0520609
-0.0513218
-0.0502758
-0.0491131
-0.0476451
-0.0461046
-0.0442626
-0.0423998
-0.0402397
-0.038117
-0.0356988
-0.0333804
-0.0307653
-0.0283157
-0.0255685
-0.0230583
-0.0202638
-0.0177925
-0.0150888
-0.0128035
-0.0103655
-0.00833078
-0.00609862
-0.00392352
-0.00176786
-0.000125231
-0.000355536
0.0162898
0.016623
0.0161646
0.0151774
0.0131819
0.0105879
0.00727146
0.00356669
-0.000461087
-0.00455441
-0.00862001
-0.0125377
-0.016279
-0.0198231
-0.0231801
-0.0263564
-0.0293659
-0.0322065
-0.0348893
-0.037396
-0.039741
-0.0418905
-0.0438689
-0.0456268
-0.0472039
-0.048534
-0.0496765
-0.0505466
-0.0512281
-0.051615
-0.0518201
-0.0517136
-0.0514418
-0.0508471
-0.0501138
-0.0490519
-0.0478884
-0.0463947
-0.0448462
-0.0429684
-0.0410915
-0.0388859
-0.0367444
-0.0342729
-0.0319346
-0.0292618
-0.0267969
-0.0239933
-0.0214812
-0.0186411
-0.0161938
-0.0134684
-0.0112522
-0.00884092
-0.00696408
-0.00487275
-0.00302432
-0.00112253
0.000258688
6.75634e-05
0.0169148
0.0172523
0.0169189
0.0160874
0.0142719
0.0118438
0.00868115
0.00510864
0.00117859
-0.0028499
-0.00688493
-0.010792
-0.0145387
-0.0180918
-0.0214622
-0.0246491
-0.0276727
-0.0305245
-0.0332241
-0.0357451
-0.0381117
-0.0402789
-0.0422833
-0.0440606
-0.045666
-0.0470147
-0.0481855
-0.0490711
-0.0497787
-0.0501759
-0.0504032
-0.0502997
-0.0500443
-0.0494435
-0.0487192
-0.0476404
-0.0464775
-0.0449548
-0.0433979
-0.0414782
-0.0395841
-0.0373238
-0.0351577
-0.0326199
-0.0302527
-0.0275048
-0.0250121
-0.0221304
-0.0196008
-0.0166889
-0.0142482
-0.0114714
-0.00930512
-0.0068851
-0.00513915
-0.00313635
-0.00157122
0.000126751
0.00124824
0.00109237
0.0175464
0.0178705
0.017655
0.0169863
0.0153786
0.0131446
0.0101679
0.00675791
0.00295495
-0.000983503
-0.00496964
-0.00885379
-0.0126003
-0.0161595
-0.0195443
-0.0227429
-0.0257835
-0.0286484
-0.0313686
-0.0339063
-0.0362994
-0.0384874
-0.0405234
-0.0423236
-0.0439633
-0.0453339
-0.0465388
-0.0474424
-0.0481812
-0.0485898
-0.0488431
-0.0487422
-0.0485056
-0.0478964
-0.0471822
-0.046082
-0.0449189
-0.0433606
-0.0417925
-0.0398216
-0.0379051
-0.0355778
-0.0333793
-0.0307591
-0.028352
-0.0255088
-0.0229743
-0.0199897
-0.0174258
-0.0144132
-0.0119608
-0.00910006
-0.00696523
-0.0044989
-0.00285985
-0.0008924
0.000431305
0.0019868
0.00286841
0.0027536
0.018236
0.01854
0.018428
0.0179299
0.0165585
0.0145561
0.011809
0.00860373
0.0049729
0.00116344
-0.0027397
-0.00657798
-0.0103101
-0.0138712
-0.0172727
-0.0204904
-0.0235587
-0.0264486
-0.0292031
-0.0317702
-0.0342038
-0.0364246
-0.0385057
-0.0403396
-0.0420261
-0.0434279
-0.0446783
-0.0456073
-0.0463872
-0.0468128
-0.0471005
-0.0470056
-0.0467946
-0.0461784
-0.0454791
-0.0443568
-0.0431964
-0.0415988
-0.0400201
-0.0379914
-0.0360505
-0.0336456
-0.0314094
-0.0286918
-0.0262361
-0.0232775
-0.0206885
-0.0175757
-0.0149619
-0.0118183
-0.00933731
-0.00635858
-0.00423876
-0.00168706
-0.000135453
0.00185078
0.00297028
0.00445376
0.00512955
0.00507256
0.0188501
0.0191272
0.0190927
0.0187595
0.017636
0.0158968
0.013417
0.0104599
0.00704564
0.00341004
-0.000372605
-0.00413394
-0.00783219
-0.0113821
-0.0147963
-0.0180315
-0.0211317
-0.0240502
-0.0268467
-0.0294485
-0.0319318
-0.0341914
-0.0363276
-0.0382009
-0.0399443
-0.0413823
-0.0426873
-0.0436454
-0.0444744
-0.0449188
-0.0452472
-0.0451582
-0.0449772
-0.0443515
-0.0436696
-0.0425203
-0.041363
-0.0397186
-0.0381273
-0.03603
-0.0340601
-0.0315633
-0.0292817
-0.0264481
-0.0239326
-0.0208351
-0.0181773
-0.0149075
-0.0122271
-0.00891937
-0.00639288
-0.00325919
-0.00114001
0.00153869
0.00301715
0.00507824
0.00602325
0.0075128
0.00802483
0.00805424
0.0195072
0.0197602
0.0197784
0.0195974
0.018726
0.0172795
0.01511
0.0124509
0.00930949
0.00590221
0.00229183
-0.0013524
-0.00498805
-0.00851189
-0.0119355
-0.0151934
-0.018338
-0.0212999
-0.0241569
-0.0268105
-0.0293629
-0.0316771
-0.0338867
-0.0358133
-0.03763
-0.0391156
-0.0404899
-0.0414861
-0.0423769
-0.0428467
-0.0432266
-0.0431478
-0.0430058
-0.0423724
-0.041715
-0.0405378
-0.0393887
-0.0376938
-0.0360928
-0.0339197
-0.0319208
-0.0293207
-0.0269904
-0.0240245
-0.021442
-0.0181835
-0.0154459
-0.0119913
-0.00923075
-0.00572557
-0.00314021
0.000186134
0.00231448
0.00516343
0.00657565
0.00876985
0.00955898
0.0111391
0.0115293
0.0116861
0.0200206
0.0202446
0.0202932
0.0202363
0.0196048
0.0184675
0.0166434
0.0143344
0.0115231
0.00840973
0.00503113
0.00156
-0.00197326
-0.00544026
-0.00885935
-0.0121319
-0.0153253
-0.0183352
-0.0212661
-0.0239809
-0.0266189
-0.028998
-0.0312975
-0.0332865
-0.0351922
-0.0367326
-0.0381901
-0.0392293
-0.0401938
-0.0406913
-0.0411324
-0.0410633
-0.0409676
-0.0403235
-0.0396957
-0.0384847
-0.0373466
-0.0355922
-0.0339817
-0.0317206
-0.0296901
-0.0269704
-0.0245855
-0.0214661
-0.0188072
-0.0153615
-0.0125316
-0.00886038
-0.00600561
-0.00226613
0.000390382
0.00395069
0.00609469
0.00916142
0.0105075
0.0128982
0.0135375
0.0153005
0.0156023
0.0159409
0.0206108
0.0208102
0.020875
0.020908
0.0204907
0.0196605
0.0182089
0.016296
0.0138758
0.0111215
0.00804177
0.00480196
0.00141747
-0.00196256
-0.00536343
-0.00864979
-0.0119035
-0.0149778
-0.0180063
-0.0208044
-0.0235542
-0.0260193
-0.0284336
-0.0305028
-0.0325192
-0.0341286
-0.0356881
-0.0367811
-0.0378353
-0.0383683
-0.0388843
-0.0388297
-0.0387921
-0.0381394
-0.0375509
-0.0363057
-0.0351864
-0.033369
-0.0317547
-0.0293986
-0.0273396
-0.024489
-0.0220496
-0.0187604
-0.0160219
-0.0123663
-0.00943788
-0.0055212