/*--------------------------------*- C++ -*----------------------------------*\
| =========                 |                                                 |
| \\      /  F ield         | OpenFOAM: The Open Source CFD Toolbox           |
|  \\    /   O peration     | Version:  2406                                  |
|   \\  /    A nd           | Website:  www.openfoam.com                      |
|    \\/     M anipulation  |                                                 |
\*---------------------------------------------------------------------------*/
FoamFile
{
    version     2.0;
    format      ascii;
    arch        "LSB;label=32;scalar=64";
    class       surfaceScalarField;
    location    "1";
    object      phi;
}
// * * * * * * * * * * * * * * * * * * * * * * * * * * * * * * * * * * * * * //

dimensions      [0 3 -1 0 0 0 0];

oriented        oriented;

internalField   nonuniform List<scalar> 
32512
(
1.34435e-09
-1.34058e-09
-2.98188e-09
4.32624e-09
-1.38783e-08
1.08964e-08
-3.00125e-08
1.61343e-08
-4.9634e-08
1.96217e-08
-7.12932e-08
2.16592e-08
-9.39928e-08
2.26995e-08
-1.1713e-07
2.31371e-08
-1.4038e-07
2.32503e-08
-1.63589e-07
2.32092e-08
-1.86693e-07
2.31041e-08
-2.0967e-07
2.29767e-08
-2.32512e-07
2.28425e-08
-2.55218e-07
2.27052e-08
-2.77781e-07
2.25638e-08
-3.00198e-07
2.24164e-08
-3.22459e-07
2.22613e-08
-3.44556e-07
2.20974e-08
-3.6648e-07
2.19238e-08
-3.8822e-07
2.17399e-08
-4.09765e-07
2.15453e-08
-4.31105e-07
2.13399e-08
-4.52229e-07
2.11235e-08
-4.73125e-07
2.08961e-08
-4.93782e-07
2.06576e-08
-5.1419e-07
2.04079e-08
-5.34337e-07
2.01471e-08
-5.54212e-07
1.98751e-08
-5.73804e-07
1.95919e-08
-5.93102e-07
1.92976e-08
-6.12094e-07
1.89922e-08
-6.3077e-07
1.86756e-08
-6.49118e-07
1.8348e-08
-6.67127e-07
1.80093e-08
-6.84787e-07
1.76596e-08
-7.02086e-07
1.72989e-08
-7.19013e-07
1.69273e-08
-7.35558e-07
1.65448e-08
-7.51709e-07
1.61514e-08
-7.67457e-07
1.57473e-08
-7.82789e-07
1.53324e-08
-7.97696e-07
1.49069e-08
-8.12167e-07
1.44708e-08
-8.26191e-07
1.40241e-08
-8.39758e-07
1.3567e-08
-8.52857e-07
1.30996e-08
-8.65479e-07
1.26219e-08
-8.77613e-07
1.2134e-08
-8.89249e-07
1.16361e-08
-9.00378e-07
1.11282e-08
-9.10988e-07
1.06105e-08
-9.21071e-07
1.00831e-08
-9.30617e-07
9.54622e-09
-9.39617e-07
8.9999e-09
-9.48062e-07
8.44434e-09
-9.55941e-07
7.8797e-09
-9.63248e-07
7.30618e-09
-9.69971e-07
6.72395e-09
-9.76105e-07
6.13322e-09
-9.81639e-07
5.53421e-09
-9.86566e-07
4.92714e-09
-9.90878e-07
4.31225e-09
-9.94568e-07
3.68981e-09
-9.97628e-07
3.06007e-09
-1.00005e-06
2.42332e-09
-1.00183e-06
1.77986e-09
-1.00296e-06
1.13004e-09
-1.00344e-06
4.74586e-10
-1.00325e-06
-1.8787e-10
-1.00239e-06
-8.54483e-10
-1.00087e-06
-1.52641e-09
-9.98664e-07
-2.20292e-09
-9.95781e-07
-2.88358e-09
-9.92213e-07
-3.56796e-09
-9.87957e-07
-4.25561e-09
-9.83011e-07
-4.94604e-09
-9.77372e-07
-5.63878e-09
-9.71039e-07
-6.3333e-09
-9.6401e-07
-7.02908e-09
-9.56284e-07
-7.72557e-09
-9.47862e-07
-8.42222e-09
-9.38744e-07
-9.11842e-09
-9.2893e-07
-9.8136e-09
-9.18423e-07
-1.05071e-08
-9.07225e-07
-1.11984e-08
-8.95338e-07
-1.18866e-08
-8.82766e-07
-1.25713e-08
-8.69515e-07
-1.32517e-08
-8.55588e-07
-1.39272e-08
-8.40991e-07
-1.45969e-08
-8.2573e-07
-1.52602e-08
-8.09814e-07
-1.59164e-08
-7.93249e-07
-1.65647e-08
-7.76045e-07
-1.72044e-08
-7.5821e-07
-1.78347e-08
-7.39755e-07
-1.84549e-08
-7.20691e-07
-1.90642e-08
-7.01029e-07
-1.96618e-08
-6.80783e-07
-2.0247e-08
-6.59964e-07
-2.0819e-08
-6.38587e-07
-2.13771e-08
-6.16666e-07
-2.19205e-08
-5.94218e-07
-2.24485e-08
-5.71258e-07
-2.29603e-08
-5.47802e-07
-2.34554e-08
-5.23869e-07
-2.3933e-08
-4.99477e-07
-2.43924e-08
-4.74644e-07
-2.48332e-08
-4.49389e-07
-2.52547e-08
-4.23733e-07
-2.56566e-08
-3.97694e-07
-2.60386e-08
-3.71293e-07
-2.64007e-08
-3.4455e-07
-2.6743e-08
-3.17484e-07
-2.70664e-08
-2.90112e-07
-2.73718e-08
-2.62452e-07
-2.76602e-08
-2.34521e-07
-2.79311e-08
-2.06342e-07
-2.81786e-08
-1.77959e-07
-2.83831e-08
-1.49462e-07
-2.84967e-08
-1.21044e-07
-2.84184e-08
-9.30818e-08
-2.79621e-08
-6.62586e-08
-2.68232e-08
-4.16945e-08
-2.45641e-08
-2.10373e-08
-2.06572e-08
-6.37558e-09
-1.46617e-08
4.15896e-10
-6.79148e-09
4.15889e-10
-4.34126e-09
3.0007e-09
-2.22654e-08
2.22506e-08
-5.4102e-08
4.27328e-08
-9.70512e-08
5.90834e-08
-1.47754e-07
7.0325e-08
-2.03296e-07
7.7201e-08
-2.61535e-07
8.09388e-08
-3.21081e-07
8.26827e-08
-3.81117e-07
8.32864e-08
-4.41205e-07
8.32978e-08
-5.01128e-07
8.30272e-08
-5.60782e-07
8.26304e-08
-6.20115e-07
8.21753e-08
-6.79095e-07
8.1686e-08
-7.377e-07
8.11679e-08
-7.95903e-07
8.06195e-08
-8.53679e-07
8.00379e-08
-9.11002e-07
7.94206e-08
-9.67844e-07
7.87655e-08
-1.02418e-06
7.80715e-08
-1.07997e-06
7.73377e-08
-1.13519e-06
7.65636e-08
-1.18982e-06
7.57489e-08
-1.24381e-06
7.48935e-08
-1.29715e-06
7.39972e-08
-1.34981e-06
7.30602e-08
-1.40174e-06
7.20824e-08
-1.45293e-06
7.1064e-08
-1.50334e-06
7.00051e-08
-1.55295e-06
6.89059e-08
-1.60173e-06
6.77664e-08
-1.64964e-06
6.6587e-08
-1.69666e-06
6.53678e-08
-1.74276e-06
6.4109e-08
-1.78791e-06
6.28109e-08
-1.83208e-06
6.14737e-08
-1.87525e-06
6.00977e-08
-1.91739e-06
5.86831e-08
-1.95847e-06
5.72304e-08
-1.99846e-06
5.57396e-08
-2.03734e-06
5.42113e-08
-2.07508e-06
5.26458e-08
-2.11165e-06
5.10433e-08
-2.14703e-06
4.94044e-08
-2.1812e-06
4.77293e-08
-2.21412e-06
4.60186e-08
-2.24577e-06
4.42726e-08
-2.27612e-06
4.24919e-08
-2.30516e-06
4.06769e-08
-2.33286e-06
3.88281e-08
-2.3592e-06
3.69461e-08
-2.38415e-06
3.50314e-08
-2.40769e-06
3.30847e-08
-2.42979e-06
3.11066e-08
-2.45045e-06
2.90977e-08
-2.46963e-06
2.70587e-08
-2.48731e-06
2.49904e-08
-2.50348e-06
2.28935e-08
-2.51812e-06
2.07688e-08
-2.5312e-06
1.86172e-08
-2.54271e-06
1.64395e-08
-2.55264e-06
1.42367e-08
-2.56096e-06
1.20097e-08
-2.56765e-06
9.75954e-09
-2.57272e-06
7.48725e-09
-2.57613e-06
5.19392e-09
-2.57788e-06
2.88056e-09
-2.57796e-06
5.52277e-10
-2.57635e-06
-1.80075e-09
-2.57304e-06
-4.16523e-09
-2.56802e-06
-6.54475e-09
-2.56128e-06
-8.93773e-09
-2.55283e-06
-1.13426e-08
-2.54264e-06
-1.37577e-08
-2.53071e-06
-1.61815e-08
-2.51704e-06
-1.86123e-08
-2.50163e-06
-2.10485e-08
-2.48448e-06
-2.34882e-08
-2.46558e-06
-2.59296e-08
-2.44493e-06
-2.83709e-08
-2.42254e-06
-3.08102e-08
-2.39842e-06
-3.32453e-08
-2.37256e-06
-3.56744e-08
-2.34497e-06
-3.80952e-08
-2.31566e-06
-4.05057e-08
-2.28464e-06
-4.29037e-08
-2.25193e-06
-4.52869e-08
-2.21753e-06
-4.7653e-08
-2.18145e-06
-4.99997e-08
-2.14373e-06
-5.23246e-08
-2.10436e-06
-5.46254e-08
-2.06338e-06
-5.68995e-08
-2.0208e-06
-5.91446e-08
-1.97665e-06
-6.13582e-08
-1.93094e-06
-6.35378e-08
-1.88372e-06
-6.56808e-08
-1.835e-06
-6.77848e-08
-1.78481e-06
-6.98471e-08
-1.73319e-06
-7.18655e-08
-1.68017e-06
-7.38372e-08
-1.62579e-06
-7.57599e-08
-1.57008e-06
-7.76311e-08
-1.51308e-06
-7.94484e-08
-1.45483e-06
-8.12094e-08
-1.39538e-06
-8.29119e-08
-1.33476e-06
-8.45536e-08
-1.27302e-06
-8.61325e-08
-1.2102e-06
-8.76467e-08
-1.14636e-06
-8.90943e-08
-1.08155e-06
-9.04738e-08
-1.0158e-06
-9.17843e-08
-9.49175e-07
-9.30251e-08
-8.81722e-07
-9.41963e-08
-8.1349e-07
-9.52985e-08
-7.44529e-07
-9.63325e-08
-6.74893e-07
-9.72965e-08
-6.04644e-07
-9.81805e-08
-5.33869e-07
-9.89527e-08
-4.6272e-07
-9.95321e-08
-3.91475e-07
-9.97419e-08
-3.20655e-07
-9.92389e-08
-2.51192e-07
-9.74245e-08
-1.84648e-07
-9.3367e-08
-1.23414e-07
-8.57981e-08
-7.07862e-08
-7.32855e-08
-3.06954e-08
-5.47525e-08
-6.75346e-09
-3.07335e-08
-6.33758e-09
-1.09755e-08
1.39762e-08
-4.29356e-08
5.42109e-08
-9.31739e-08
9.29713e-08
-1.57715e-07
1.23624e-07
-2.32351e-07
1.44961e-07
-3.13457e-07
1.58308e-07
-3.98318e-07
1.65799e-07
-4.85107e-07
1.69473e-07
-5.72709e-07
1.70888e-07
-6.60486e-07
1.71075e-07
-7.48097e-07
1.70638e-07
-8.3536e-07
1.69894e-07
-9.22178e-07
1.68993e-07
-1.00849e-06
1.67994e-07
-1.09423e-06
1.66917e-07
-1.17938e-06
1.65767e-07
-1.26388e-06
1.64541e-07
-1.3477e-06
1.63236e-07
-1.43079e-06
1.6185e-07
-1.5131e-06
1.60382e-07
-1.59459e-06
1.58829e-07
-1.67521e-06
1.57192e-07
-1.75494e-06
1.55469e-07
-1.8337e-06
1.53662e-07
-1.91148e-06
1.5177e-07
-1.98821e-06
1.49793e-07
-2.06386e-06
1.47732e-07
-2.13838e-06
1.45586e-07
-2.21173e-06
1.43357e-07
-2.28387e-06
1.41044e-07
-2.35475e-06
1.38649e-07
-2.42434e-06
1.36171e-07
-2.49258e-06
1.33612e-07
-2.55944e-06
1.30972e-07
-2.62488e-06
1.28251e-07
-2.68886e-06
1.25451e-07
-2.75134e-06
1.22571e-07
-2.81227e-06
1.19613e-07
-2.87161e-06
1.16578e-07
-2.92934e-06
1.13466e-07
-2.9854e-06
1.10277e-07
-3.03977e-06
1.07014e-07
-3.09241e-06
1.03676e-07
-3.14327e-06
1.00265e-07
-3.19232e-06
9.6782e-08
-3.23953e-06
9.32274e-08
-3.28486e-06
8.96026e-08
-3.32827e-06
8.59085e-08
-3.36974e-06
8.21464e-08
-3.40923e-06
7.83175e-08
-3.44671e-06
7.4423e-08
-3.48214e-06
7.04641e-08
-3.5155e-06
6.64423e-08
-3.54675e-06
6.2359e-08
-3.57587e-06
5.82155e-08
-3.60283e-06
5.40135e-08
-3.62759e-06
4.97545e-08
-3.65014e-06
4.54402e-08
-3.67044e-06
4.10723e-08
-3.68848e-06
3.66526e-08
-3.70422e-06
3.21831e-08
-3.71765e-06
2.76656e-08
-3.72874e-06
2.31023e-08
-3.73748e-06
1.84952e-08
-3.74384e-06
1.38466e-08
-3.7478e-06
9.15875e-09
-3.74935e-06
4.43427e-09
-3.74848e-06
-3.2397e-10
-3.74516e-06
-5.11554e-09
-3.73939e-06
-9.93537e-09
-3.73116e-06
-1.47812e-08
-3.72044e-06
-1.96505e-08
-3.70725e-06
-2.45401e-08
-3.69156e-06
-2.9447e-08
-3.67337e-06
-3.43679e-08
-3.65268e-06
-3.92995e-08
-3.62949e-06
-4.42385e-08
-3.6038e-06
-4.91811e-08
-3.57561e-06
-5.41239e-08
-3.54491e-06
-5.9063e-08
-3.51173e-06
-6.39947e-08
-3.47606e-06
-6.89149e-08
-3.43791e-06
-7.38197e-08
-3.39731e-06
-7.87048e-08
-3.35424e-06
-8.3566e-08
-3.30875e-06
-8.83991e-08
-3.26084e-06
-9.31995e-08
-3.21053e-06
-9.79628e-08
-3.15784e-06
-1.02684e-07
-3.10281e-06
-1.0736e-07
-3.04545e-06
-1.11984e-07
-2.9858e-06
-1.16553e-07
-2.92388e-06
-1.21061e-07
-2.85973e-06
-1.25503e-07
-2.7934e-06
-1.29875e-07
-2.72491e-06
-1.34172e-07
-2.6543e-06
-1.38389e-07
-2.58163e-06
-1.42521e-07
-2.50693e-06
-1.46564e-07
-2.43025e-06
-1.50511e-07
-2.35165e-06
-1.54359e-07
-2.27118e-06
-1.58103e-07
-2.18889e-06
-1.61738e-07
-2.10484e-06
-1.65259e-07
-2.01909e-06
-1.68662e-07
-1.9317e-06
-1.71944e-07
-1.84274e-06
-1.75098e-07
-1.75226e-06
-1.78123e-07
-1.66034e-06
-1.81014e-07
-1.56705e-06
-1.83769e-07
-1.47245e-06
-1.86384e-07
-1.37662e-06
-1.88858e-07
-1.27962e-06
-1.9119e-07
-1.18154e-06
-1.93379e-07
-1.08245e-06
-1.95422e-07
-9.82437e-07
-1.97311e-07
-8.81602e-07
-1.99016e-07
-7.80093e-07
-2.00461e-07
-6.78153e-07
-2.01473e-07
-5.76201e-07
-2.01694e-07
-4.74982e-07
-2.00458e-07
-3.75762e-07
-1.96644e-07
-2.80579e-07
-1.8855e-07
-1.92455e-07
-1.73922e-07
-1.15466e-07
-1.50275e-07
-5.44905e-08
-1.15728e-07
-1.45364e-08
-7.06876e-08
-2.0874e-08
-1.63274e-08
3.03035e-08
-5.96336e-08
9.75172e-08
-1.24456e-07
1.57794e-07
-2.0548e-07
2.04648e-07
-2.97814e-07
2.37295e-07
-3.97423e-07
2.57916e-07
-5.01313e-07
2.6969e-07
-6.07463e-07
2.75622e-07
-7.14606e-07
2.78031e-07
-8.22003e-07
2.78472e-07
-9.29238e-07
2.77873e-07
-1.03608e-06
2.76735e-07
-1.14239e-06
2.75303e-07
-1.24808e-06
2.73685e-07
-1.35308e-06
2.7192e-07
-1.45734e-06
2.70021e-07
-1.56078e-06
2.67989e-07
-1.66337e-06
2.65822e-07
-1.76504e-06
2.63519e-07
-1.86573e-06
2.61078e-07
-1.9654e-06
2.58497e-07
-2.06399e-06
2.55775e-07
-2.16143e-06
2.52914e-07
-2.25768e-06
2.49913e-07
-2.35268e-06
2.46772e-07
-2.44638e-06
2.43493e-07
-2.53873e-06
2.40074e-07
-2.62966e-06
2.36518e-07
-2.71913e-06
2.32825e-07
-2.80708e-06
2.28997e-07
-2.89346e-06
2.25033e-07
-2.97823e-06
2.20935e-07
-3.06132e-06
2.16705e-07
-3.14269e-06
2.12343e-07
-3.22229e-06
2.07851e-07
-3.30007e-06
2.03229e-07
-3.37598e-06
1.9848e-07
-3.44997e-06
1.93604e-07
-3.52199e-06
1.88602e-07
-3.59201e-06
1.83478e-07
-3.65996e-06
1.78231e-07
-3.72581e-06
1.72863e-07
-3.78951e-06
1.67377e-07
-3.85102e-06
1.61773e-07
-3.91029e-06
1.56054e-07
-3.96728e-06
1.50221e-07
-4.02196e-06
1.44276e-07
-4.07427e-06
1.38221e-07
-4.12418e-06
1.32059e-07
-4.17165e-06
1.2579e-07
-4.21665e-06
1.19418e-07
-4.25913e-06
1.12944e-07
-4.29906e-06
1.06372e-07
-4.3364e-06
9.97025e-08
-4.37113e-06
9.29391e-08
-4.4032e-06
8.60841e-08
-4.43258e-06
7.91403e-08
-4.45925e-06
7.21105e-08
-4.48318e-06
6.49976e-08
-4.50433e-06
5.78046e-08
-4.52268e-06
5.05346e-08
-4.53821e-06
4.3191e-08
-4.55088e-06
3.57771e-08
-4.56068e-06
2.82965e-08
-4.56759e-06
2.07528e-08
-4.57158e-06
1.31498e-08
-4.57264e-06
5.49153e-09
-4.57074e-06
-2.21805e-09
-4.56588e-06
-9.97493e-09
-4.55804e-06
-1.77745e-08
-4.54721e-06
-2.56121e-08
-4.53338e-06
-3.34832e-08
-4.51654e-06
-4.13829e-08
-4.49668e-06
-4.93063e-08
-4.4738e-06
-5.72481e-08
-4.44789e-06
-6.52032e-08
-4.41897e-06
-7.31659e-08
-4.38702e-06
-8.11306e-08
-4.35205e-06
-8.90916e-08
-4.31407e-06
-9.70429e-08
-4.27309e-06
-1.04978e-07
-4.22911e-06
-1.12892e-07
-4.18215e-06
-1.20776e-07
-4.13223e-06
-1.28626e-07
-4.07936e-06
-1.36434e-07
-4.02357e-06
-1.44193e-07
-3.96487e-06
-1.51897e-07
-3.9033e-06
-1.59538e-07
-3.83887e-06
-1.67109e-07
-3.77163e-06
-1.74603e-07
-3.7016e-06
-1.82012e-07
-3.62882e-06
-1.8933e-07
-3.55334e-06
-1.96547e-07
-3.47518e-06
-2.03658e-07
-3.3944e-06
-2.10654e-07
-3.31105e-06
-2.17527e-07
-3.22517e-06
-2.2427e-07
-3.13681e-06
-2.30876e-07
-3.04604e-06
-2.37336e-07
-2.95291e-06
-2.43643e-07
-2.85748e-06
-2.4979e-07
-2.75981e-06
-2.55769e-07
-2.65998e-06
-2.61572e-07
-2.55804e-06
-2.67193e-07
-2.45408e-06
-2.72625e-07
-2.34816e-06
-2.77861e-07
-2.24037e-06
-2.82895e-07
-2.13077e-06
-2.8772e-07
-2.01946e-06
-2.9233e-07
-1.9065e-06
-2.96722e-07
-1.792e-06
-3.00889e-07
-1.67603e-06
-3.04829e-07
-1.55868e-06
-3.08539e-07
-1.44004e-06
-3.12013e-07
-1.32022e-06
-3.15246e-07
-1.19932e-06
-3.18214e-07
-1.07747e-06
-3.20863e-07
-9.54868e-07
-3.23062e-07
-8.31811e-07
-3.2453e-07
-7.08802e-07
-3.24703e-07
-5.86698e-07
-3.22562e-07
-4.66927e-07
-3.16415e-07
-3.5174e-07
-3.03737e-07
-2.44456e-07
-2.81206e-07
-1.49588e-07
-2.45143e-07
-7.2755e-08
-1.92561e-07
-2.04237e-08
-1.23019e-07
-4.12977e-08
-1.99609e-08
5.02644e-08
-7.13342e-08
1.4889e-07
-1.46654e-07
2.33114e-07
-2.39426e-07
2.97421e-07
-3.4415e-07
3.42019e-07
-4.56494e-07
3.7026e-07
-5.73317e-07
3.86514e-07
-6.92516e-07
3.94821e-07
-8.12772e-07
3.98287e-07
-9.33304e-07
3.99005e-07
-1.05367e-06
3.98234e-07
-1.1736e-06
3.96667e-07
-1.29294e-06
3.94649e-07
-1.41159e-06
3.92336e-07
-1.52947e-06
3.89795e-07
-1.6465e-06
3.87047e-07
-1.76261e-06
3.84098e-07
-1.87773e-06
3.80949e-07
-1.99181e-06
3.776e-07
-2.10478e-06
3.74047e-07
-2.21658e-06
3.70292e-07
-2.32714e-06
3.66334e-07
-2.43639e-06
3.62172e-07
-2.54429e-06
3.57809e-07
-2.65076e-06
3.53244e-07
-2.75575e-06
3.48478e-07
-2.85919e-06
3.43514e-07
-2.96102e-06
3.38351e-07
-3.06119e-06
3.32991e-07
-3.15963e-06
3.27437e-07
-3.25628e-06
3.21689e-07
-3.3511e-06
3.15749e-07
-3.44401e-06
3.09619e-07
-3.53497e-06
3.03301e-07
-3.62391e-06
2.96797e-07
-3.71079e-06
2.90108e-07
-3.79555e-06
2.83237e-07
-3.87813e-06
2.76186e-07
-3.95849e-06
2.68958e-07
-4.03656e-06
2.61553e-07
-4.11231e-06
2.53975e-07
-4.18567e-06
2.46227e-07
-4.2566e-06
2.3831e-07
-4.32506e-06
2.30227e-07
-4.39099e-06
2.21981e-07
-4.45434e-06
2.13575e-07
-4.51508e-06
2.05011e-07
-4.57315e-06
1.96293e-07
-4.62851e-06
1.87423e-07
-4.68113e-06
1.78405e-07
-4.73095e-06
1.69242e-07
-4.77795e-06
1.59938e-07
-4.82207e-06
1.50494e-07
-4.86328e-06
1.40917e-07
-4.90155e-06
1.31208e-07
-4.93684e-06
1.21372e-07
-4.96911e-06
1.11414e-07
-4.99834e-06
1.01336e-07
-5.02448e-06
9.11433e-08
-5.04752e-06
8.08405e-08
-5.06742e-06
7.04322e-08
-5.08415e-06
5.99229e-08
-5.09769e-06
4.93176e-08
-5.10801e-06
3.86214e-08
-5.1151e-06
2.78396e-08
-5.11893e-06
1.69777e-08
-5.11948e-06
6.04126e-09
-5.11673e-06
-4.96381e-09
-5.11068e-06
-1.60316e-08
-5.10129e-06
-2.71557e-08
-5.08858e-06
-3.83297e-08
-5.07251e-06
-4.95469e-08
-5.0531e-06
-6.08005e-08
-5.03032e-06
-7.20833e-08
-5.00418e-06
-8.33881e-08
-4.97467e-06
-9.47073e-08
-4.94181e-06
-1.06033e-07
-4.90558e-06
-1.17358e-07
-4.866e-06
-1.28673e-07
-4.82307e-06
-1.3997e-07
-4.77681e-06
-1.51241e-07
-4.72722e-06
-1.62476e-07
-4.67433e-06
-1.73667e-07
-4.61816e-06
-1.84805e-07
-4.55871e-06
-1.9588e-07
-4.49602e-06
-2.06882e-07
-4.43012e-06
-2.17802e-07
-4.36102e-06
-2.2863e-07
-4.28878e-06
-2.39356e-07
-4.21341e-06
-2.49969e-07
-4.13496e-06
-2.6046e-07
-4.05348e-06
-2.70817e-07
-3.96899e-06
-2.81031e-07
-3.88156e-06
-2.91091e-07
-3.79123e-06
-3.00986e-07
-3.69805e-06
-3.10706e-07
-3.60208e-06
-3.2024e-07
-3.50338e-06
-3.29577e-07
-3.40201e-06
-3.38706e-07
-3.29803e-06
-3.47618e-07
-3.19152e-06
-3.56302e-07
-3.08254e-06
-3.64747e-07
-2.97117e-06
-3.72943e-07
-2.85748e-06
-3.8088e-07
-2.74156e-06
-3.88549e-07
-2.62348e-06
-3.9594e-07
-2.50333e-06
-4.03045e-07
-2.3812e-06
-4.09854e-07
-2.25717e-06
-4.16359e-07
-2.13134e-06
-4.22554e-07
-2.00379e-06
-4.2843e-07
-1.87464e-06
-4.33983e-07
-1.74398e-06
-4.39205e-07
-1.6119e-06
-4.44089e-07
-1.47853e-06
-4.48619e-07
-1.34398e-06
-4.5276e-07
-1.20842e-06
-4.56427e-07
-1.07205e-06
-4.59432e-07
-9.35198e-07
-4.61378e-07
-7.98409e-07
-4.61492e-07
-6.62582e-07
-4.5839e-07
-5.29201e-07
-4.49796e-07
-4.00603e-07
-4.32335e-07
-2.80262e-07
-4.01547e-07
-1.73004e-07
-3.52401e-07
-8.50907e-08
-2.80474e-07
-2.42475e-08
-1.83862e-07
-6.55452e-08
-2.21573e-08
7.24219e-08
-7.87284e-08
2.05461e-07
-1.61e-07
3.15385e-07
-2.61596e-07
3.98018e-07
-3.74519e-07
4.54942e-07
-4.95196e-07
4.90937e-07
-6.20389e-07
5.11706e-07
-7.47958e-07
5.2239e-07
-8.76575e-07
5.26904e-07
-1.00545e-06
5.27883e-07
-1.13414e-06
5.26919e-07
-1.26236e-06
5.24893e-07
-1.38996e-06
5.22249e-07
-1.51682e-06
5.19195e-07
-1.64285e-06
5.1582e-07
-1.76796e-06
5.12158e-07
-1.89208e-06
5.08221e-07
-2.01514e-06
5.04012e-07
-2.13708e-06
4.99532e-07
-2.25781e-06
4.94779e-07
-2.37727e-06
4.89755e-07
-2.49539e-06
4.84459e-07
-2.61211e-06
4.78893e-07
-2.72736e-06
4.73057e-07
-2.84107e-06
4.66953e-07
-2.95318e-06
4.60583e-07
-3.06361e-06
4.53949e-07
-3.17231e-06
4.47051e-07
-3.27921e-06
4.39893e-07
-3.38425e-06
4.32477e-07
-3.48737e-06
4.24805e-07
-3.5885e-06
4.16879e-07
-3.68758e-06
4.08702e-07
-3.78456e-06
4.00276e-07
-3.87936e-06
3.91605e-07
-3.97195e-06
3.8269e-07
-4.06224e-06
3.73536e-07
-4.1502e-06
3.64144e-07
-4.23576e-06
3.54519e-07
-4.31887e-06
3.44663e-07
-4.39948e-06
3.3458e-07
-4.47752e-06
3.24272e-07
-4.55296e-06
3.13744e-07
-4.62573e-06
3.02999e-07
-4.69579e-06
2.92041e-07
-4.76309e-06
2.80873e-07
-4.82758e-06
2.695e-07
-4.88921e-06
2.57926e-07
-4.94794e-06
2.46154e-07
-5.00373e-06
2.34189e-07
-5.05652e-06
2.22036e-07
-5.10628e-06
2.09699e-07
-5.15297e-06
1.97183e-07
-5.19655e-06
1.84493e-07
-5.23697e-06
1.71633e-07
-5.27421e-06
1.58609e-07
-5.30822e-06
1.45427e-07
-5.33898e-06
1.32091e-07
-5.36644e-06
1.18608e-07
-5.39059e-06
1.04984e-07
-5.41138e-06
9.12247e-08
-5.42879e-06
7.73364e-08
-5.4428e-06
6.33257e-08
-5.45338e-06
4.91994e-08
-5.4605e-06
3.49646e-08
-5.46415e-06
2.06285e-08
-5.46431e-06
6.19855e-09
-5.46096e-06
-8.31744e-09
-5.45408e-06
-2.29116e-08
-5.44366e-06
-3.75756e-08
-5.42969e-06
-5.23009e-08
-5.41215e-06
-6.70788e-08
-5.39106e-06
-8.19003e-08
-5.36638e-06
-9.67559e-08
-5.33813e-06
-1.11636e-07
-5.30631e-06
-1.26531e-07
-5.27091e-06
-1.41431e-07
-5.23195e-06
-1.56325e-07
-5.18942e-06
-1.71202e-07
-5.14333e-06
-1.86052e-07
-5.09371e-06
-2.00864e-07
-5.04056e-06
-2.15625e-07
-4.98391e-06
-2.30324e-07
-4.92376e-06
-2.4495e-07
-4.86015e-06
-2.59489e-07
-4.7931e-06
-2.7393e-07
-4.72264e-06
-2.8826e-07
-4.64881e-06
-3.02466e-07
-4.57163e-06
-3.16535e-07
-4.49114e-06
-3.30453e-07
-4.4074e-06
-3.44208e-07
-4.32043e-06
-3.57786e-07
-4.23029e-06
-3.71173e-07
-4.13702e-06
-3.84356e-07
-4.04069e-06
-3.9732e-07
-3.94134e-06
-4.10052e-07
-3.83904e-06
-4.22539e-07
-3.73385e-06
-4.34767e-07
-3.62584e-06
-4.46721e-07
-3.51507e-06
-4.58388e-07
-3.40162e-06
-4.69755e-07
-3.28555e-06
-4.80808e-07
-3.16696e-06
-4.91535e-07
-3.04592e-06
-5.01921e-07
-2.92251e-06
-5.11956e-07
-2.79683e-06
-5.21626e-07
-2.66895e-06
-5.3092e-07
-2.53898e-06
-5.39826e-07
-2.40701e-06
-5.48333e-07
-2.27313e-06
-5.56432e-07
-2.13745e-06
-5.64113e-07
-2.00006e-06
-5.71367e-07
-1.86108e-06
-5.78184e-07
-1.72062e-06
-5.84551e-07
-1.57879e-06
-5.90446e-07
-1.43574e-06
-5.95816e-07
-1.29161e-06
-6.0055e-07
-1.14665e-06
-6.04398e-07
-1.00118e-06
-6.06851e-07
-8.55741e-07
-6.06927e-07
-7.11252e-07
-6.02878e-07
-5.69206e-07
-5.91842e-07
-4.31977e-07
-5.69563e-07
-3.03144e-07
-5.30381e-07
-1.87782e-07
-4.67763e-07
-9.268e-08
-3.75576e-07
-2.6485e-08
-2.50057e-07
-9.20302e-08
-2.3358e-08
9.57801e-08
-8.30106e-08
2.65114e-07
-1.69571e-07
4.01945e-07
-2.75081e-07
5.03527e-07
-3.93168e-07
5.73029e-07
-5.19067e-07
6.16837e-07
-6.49462e-07
6.42101e-07
-7.8219e-07
6.55118e-07
-9.15927e-07
6.60641e-07
-1.04989e-06
6.61847e-07
-1.18363e-06
6.60662e-07
-1.31689e-06
6.58149e-07
-1.44949e-06
6.54851e-07
-1.58132e-06
6.51024e-07
-1.71228e-06
6.46781e-07
-1.84229e-06
6.42166e-07
-1.97127e-06
6.37197e-07
-2.09913e-06
6.3188e-07
-2.22582e-06
6.26217e-07
-2.35125e-06
6.20209e-07
-2.47535e-06
6.13858e-07
-2.59806e-06
6.07163e-07
-2.71929e-06
6.00127e-07
-2.83899e-06
5.92752e-07
-2.95707e-06
5.85039e-07
-3.07348e-06
5.76991e-07
-3.18814e-06
5.68611e-07
-3.30099e-06
5.59901e-07
-3.41196e-06
5.50863e-07
-3.52099e-06
5.41502e-07
-3.628e-06
5.31819e-07
-3.73294e-06
5.21819e-07
-3.83574e-06
5.11504e-07
-3.93635e-06
5.00878e-07
-4.03469e-06
4.89944e-07
-4.1307e-06
4.78707e-07
-4.22434e-06
4.67171e-07
-4.31553e-06
4.55338e-07
-4.40423e-06
4.43213e-07
-4.49036e-06
4.30801e-07
-4.57389e-06
4.18106e-07
-4.65475e-06
4.05131e-07
-4.73289e-06
3.91883e-07
-4.80825e-06
3.78364e-07
-4.88079e-06
3.64581e-07
-4.95046e-06
3.50538e-07
-5.0172e-06
3.3624e-07
-5.08096e-06
3.21692e-07
-5.14171e-06
3.069e-07
-5.19939e-06
2.9187e-07
-5.25396e-06
2.76606e-07
-5.30538e-06
2.61116e-07
-5.3536e-06
2.45404e-07
-5.39858e-06
2.29478e-07
-5.44029e-06
2.13343e-07
-5.47869e-06
1.97006e-07
-5.51374e-06
1.80475e-07
-5.5454e-06
1.63756e-07
-5.57365e-06
1.46856e-07
-5.59845e-06
1.29783e-07
-5.61977e-06
1.12545e-07
-5.63758e-06
9.5149e-08
-5.65186e-06
7.76044e-08
-5.66258e-06
5.99193e-08
-5.66972e-06
4.21025e-08
-5.67325e-06
2.41632e-08
-5.67316e-06
6.11065e-09
-5.66944e-06
-1.20455e-08
-5.66205e-06
-3.02951e-08
-5.651e-06
-4.8628e-08
-5.63627e-06
-6.70335e-08
-5.61785e-06
-8.55007e-08
-5.59573e-06
-1.04018e-07
-5.56991e-06
-1.22575e-07
-5.54039e-06
-1.41158e-07
-5.50716e-06
-1.59756e-07
-5.47024e-06
-1.78356e-07
-5.42962e-06
-1.96944e-07
-5.38531e-06
-2.15509e-07
-5.33733e-06
-2.34036e-07
-5.28568e-06
-2.52512e-07
-5.23038e-06
-2.70921e-07
-5.17146e-06
-2.8925e-07
-5.10892e-06
-3.07484e-07
-5.04281e-06
-3.25607e-07
-4.97313e-06
-3.43605e-07
-4.89993e-06
-3.61461e-07
-4.82324e-06
-3.7916e-07
-4.74309e-06
-3.96685e-07
-4.65952e-06
-4.14021e-07
-4.57258e-06
-4.3115e-07
-4.48231e-06
-4.48056e-07
-4.38876e-06
-4.64723e-07
-4.29198e-06
-4.81134e-07
-4.19203e-06
-4.9727e-07
-4.08897e-06
-5.13116e-07
-3.98285e-06
-5.28655e-07
-3.87375e-06
-5.43869e-07
-3.76173e-06
-5.58742e-07
-3.64686e-06
-5.73257e-07
-3.52922e-06
-5.87396e-07
-3.40888e-06
-6.01144e-07
-3.28593e-06
-6.14485e-07
-3.16045e-06
-6.27402e-07
-3.03252e-06
-6.3988e-07
-2.90225e-06
-6.51904e-07
-2.76971e-06
-6.63459e-07
-2.635e-06
-6.74531e-07
-2.49823e-06
-6.85106e-07
-2.35949e-06
-6.95172e-07
-2.21889e-06
-7.04715e-07
-2.07653e-06
-7.13724e-07
-1.93253e-06
-7.22186e-07
-1.78699e-06
-7.30082e-07
-1.64006e-06
-7.37382e-07
-1.49186e-06
-7.44018e-07
-1.34256e-06
-7.49851e-07
-1.19238e-06
-7.54575e-07
-1.04166e-06
-7.57568e-07
-8.90944e-07
-7.57645e-07
-7.41129e-07
-7.52694e-07
-5.93712e-07
-7.3926e-07
-4.51092e-07
-7.12183e-07
-3.16931e-07
-6.64541e-07
-1.96511e-07
-5.88183e-07
-9.70114e-08
-4.75076e-07
-2.76827e-08
-3.19386e-07
-1.19713e-07
-2.39542e-08
1.19734e-07
-8.53154e-08
3.26476e-07
-1.74385e-07
4.91015e-07
-2.82853e-07
6.11996e-07
-4.0409e-07
6.94266e-07
-5.33182e-07
7.45929e-07
-6.66743e-07
7.75662e-07
-8.02592e-07
7.90967e-07
-9.39404e-07
7.97453e-07
-1.07641e-06
7.98851e-07
-1.21316e-06
7.97416e-07
-1.34941e-06
7.94393e-07
-1.48498e-06
7.9042e-07
-1.61975e-06
7.85799e-07
-1.75363e-06
7.80665e-07
-1.88654e-06
7.75073e-07
-2.01839e-06
7.69047e-07
-2.14911e-06
7.62594e-07
-2.27861e-06
7.55719e-07
-2.40682e-06
7.48424e-07
-2.53368e-06
7.4071e-07
-2.65909e-06
7.32581e-07
-2.783e-06
7.24037e-07
-2.90533e-06
7.15083e-07
-3.02601e-06
7.05719e-07
-3.14497e-06
6.95951e-07
-3.26214e-06
6.8578e-07
-3.37745e-06
6.75211e-07
-3.49083e-06
6.64246e-07
-3.60222e-06
6.5289e-07
-3.71155e-06
6.41146e-07
-3.81875e-06
6.29019e-07
-3.92376e-06
6.16513e-07
-4.02652e-06
6.03633e-07
-4.12695e-06
5.90382e-07
-4.22501e-06
5.76765e-07
-4.32063e-06
5.62788e-07
-4.41374e-06
5.48455e-07
-4.5043e-06
5.33771e-07
-4.59224e-06
5.18741e-07
-4.67751e-06
5.03371e-07
-4.76004e-06
4.87667e-07
-4.83979e-06
4.71633e-07
-4.91671e-06
4.55277e-07
-4.99073e-06
4.38602e-07
-5.06181e-06
4.21617e-07
-5.12989e-06
4.04326e-07
-5.19494e-06
3.86738e-07
-5.25689e-06
3.68857e-07
-5.31572e-06
3.50691e-07
-5.37136e-06
3.32247e-07
-5.42377e-06
3.13532e-07
-5.47292e-06
2.94554e-07
-5.51876e-06
2.75319e-07
-5.56126e-06
2.55837e-07
-5.60037e-06
2.36115e-07
-5.63605e-06
2.16161e-07
-5.66828e-06
1.95984e-07
-5.69702e-06
1.75593e-07
-5.72223e-06
1.54997e-07
-5.74389e-06
1.34205e-07
-5.76197e-06
1.13228e-07
-5.77644e-06
9.2074e-08
-5.78728e-06
7.07547e-08
-5.79445e-06
4.92804e-08
-5.79795e-06
2.7662e-08
-5.79775e-06
5.91094e-09
-5.79384e-06
-1.59613e-08
-5.78619e-06
-3.79425e-08
-5.7748e-06
-6.00204e-08
-5.75965e-06
-8.21821e-08
-5.74074e-06
-1.04415e-07
-5.71805e-06
-1.26704e-07
-5.69159e-06
-1.49037e-07
-5.66135e-06
-1.71399e-07
-5.62733e-06
-1.93775e-07
-5.58953e-06
-2.16151e-07
-5.54797e-06
-2.3851e-07
-5.50264e-06
-2.60837e-07
-5.45356e-06
-2.83115e-07
-5.40074e-06
-3.05328e-07
-5.3442e-06
-3.2746e-07
-5.28396e-06
-3.49492e-07
-5.22004e-06
-3.71406e-07
-5.15246e-06
-3.93186e-07
-5.08125e-06
-4.14811e-07
-5.00645e-06
-4.36265e-07
-4.92808e-06
-4.57527e-07
-4.84619e-06
-4.78578e-07
-4.76081e-06
-4.994e-07
-4.67199e-06
-5.19972e-07
-4.57977e-06
-5.40274e-07
-4.48421e-06
-5.60287e-07
-4.38535e-06
-5.7999e-07
-4.28326e-06
-5.99363e-07
-4.17799e-06
-6.18385e-07
-4.06961e-06
-6.37037e-07
-3.95818e-06
-6.55299e-07
-3.84377e-06
-6.73149e-07
-3.72646e-06
-6.90569e-07
-3.60632e-06
-7.07537e-07
-3.48343e-06
-7.24035e-07
-3.35787e-06
-7.40043e-07
-3.22973e-06
-7.55542e-07
-3.0991e-06
-7.70513e-07
-2.96606e-06
-7.84939e-07
-2.83072e-06
-7.98801e-07
-2.69317e-06
-8.12082e-07
-2.55351e-06
-8.24766e-07
-2.41184e-06
-8.36838e-07
-2.26828e-06
-8.48281e-07
-2.12292e-06
-8.5908e-07
-1.97589e-06
-8.69219e-07
-1.8273e-06
-8.78673e-07
-1.67728e-06
-8.87405e-07
-1.52596e-06
-8.95335e-07
-1.37352e-06
-9.02293e-07
-1.22017e-06
-9.0792e-07
-1.06625e-06
-9.11488e-07
-9.12292e-07
-9.11605e-07
-7.59187e-07
-9.05799e-07
-6.08433e-07
-8.90014e-07
-4.62454e-07
-8.58162e-07
-3.24988e-07
-8.02007e-07
-2.01476e-07
-7.11695e-07
-9.93681e-08
-5.77184e-07
-2.82818e-08
-3.90472e-07
-1.47995e-07
-2.42277e-08
1.43962e-07
-8.65037e-08
3.88752e-07
-1.77012e-07
5.81523e-07
-2.87246e-07
7.2223e-07
-4.10405e-07
8.17425e-07
-5.41466e-07
8.7699e-07
-6.76985e-07
9.11181e-07
-8.1476e-07
9.28742e-07
-9.53461e-07
9.36154e-07
-1.09232e-06
9.37713e-07
-1.23091e-06
9.36003e-07
-1.36896e-06
9.3245e-07
-1.50633e-06
9.27786e-07
-1.64289e-06
9.22356e-07
-1.77854e-06
9.16317e-07
-1.9132e-06
9.09734e-07
-2.04679e-06
9.02635e-07
-2.17922e-06
8.9503e-07
-2.31043e-06
8.86925e-07
-2.44033e-06
8.78324e-07
-2.56885e-06
8.69229e-07
-2.69591e-06
8.59643e-07
-2.82144e-06
8.4957e-07
-2.94537e-06
8.39013e-07
-3.06763e-06
8.27975e-07
-3.18814e-06
8.16461e-07
-3.30683e-06
8.04474e-07
-3.42364e-06
7.92018e-07
-3.53849e-06
7.79099e-07
-3.65132e-06
7.6572e-07
-3.76206e-06
7.51886e-07
-3.87065e-06
7.37602e-07
-3.97701e-06
7.22875e-07
-4.08108e-06
7.07707e-07
-4.18281e-06
6.92106e-07
-4.28212e-06
6.76077e-07
-4.37896e-06
6.59626e-07
-4.47326e-06
6.42758e-07
-4.56497e-06
6.25479e-07
-4.65402e-06
6.07797e-07
-4.74037e-06
5.89717e-07
-4.82395e-06
5.71245e-07
-4.9047e-06
5.5239e-07
-4.98258e-06
5.33157e-07
-5.05754e-06
5.13553e-07
-5.12951e-06
4.93587e-07
-5.19844e-06
4.73265e-07
-5.2643e-06
4.52595e-07
-5.32703e-06
4.31585e-07
-5.38658e-06
4.10244e-07
-5.44292e-06
3.88578e-07
-5.49598e-06
3.66598e-07
-5.54574e-06
3.44311e-07
-5.59215e-06
3.21727e-07
-5.63516e-06
2.98855e-07
-5.67475e-06
2.75704e-07
-5.71088e-06
2.52285e-07
-5.7435e-06
2.28607e-07
-5.77259e-06
2.04682e-07
-5.79811e-06
1.80518e-07
-5.82003e-06
1.56129e-07
-5.83833e-06
1.31525e-07
-5.85297e-06
1.06717e-07
-5.86394e-06
8.17185e-08
-5.8712e-06
5.65414e-08
-5.87473e-06
3.11986e-08
-5.87453e-06
5.70336e-09
-5.87056e-06
-1.99309e-08
-5.86281e-06
-4.56898e-08
-5.85127e-06
-7.15589e-08
-5.83593e-06
-9.75233e-08
-5.81678e-06
-1.23568e-07
-5.79381e-06
-1.49676e-07
-5.76701e-06
-1.75833e-07
-5.73639e-06
-2.0202e-07
-5.70194e-06
-2.28222e-07
-5.66367e-06
-2.5442e-07
-5.62159e-06
-2.80596e-07
-5.57569e-06
-3.06732e-07
-5.526e-06
-3.3281e-07
-5.47252e-06
-3.58808e-07
-5.41527e-06
-3.84709e-07
-5.35427e-06
-4.1049e-07
-5.28954e-06
-4.36133e-07
-5.22111e-06
-4.61615e-07
-5.14901e-06
-4.86916e-07
-5.07326e-06
-5.12013e-07
-4.9939e-06
-5.36885e-07
-4.91097e-06
-5.61508e-07
-4.82451e-06
-5.85862e-07
-4.73456e-06
-6.09921e-07
-4.64117e-06
-6.33664e-07
-4.54439e-06
-6.57067e-07
-4.44427e-06
-6.80107e-07
-4.34088e-06
-7.0276e-07
-4.23426e-06
-7.25002e-07
-4.12449e-06
-7.4681e-07
-4.01163e-06
-7.6816e-07
-3.89575e-06
-7.89029e-07
-3.77692e-06
-8.09393e-07
-3.65523e-06
-8.29229e-07
-3.53075e-06
-8.48515e-07
-3.40357e-06
-8.67228e-07
-3.27376e-06
-8.85345e-07
-3.14143e-06
-9.02844e-07
-3.00667e-06
-9.19705e-07
-2.86956e-06
-9.35907e-07
-2.73021e-06
-9.51429e-07
-2.58873e-06
-9.66252e-07
-2.44521e-06
-9.80358e-07
-2.29976e-06
-9.93727e-07
-2.1525e-06
-1.00634e-06
-2.00354e-06
-1.01818e-06
-1.85299e-06
-1.02922e-06
-1.70099e-06
-1.0394e-06
-1.54768e-06
-1.04865e-06
-1.39322e-06
-1.05675e-06
-1.23783e-06
-1.06331e-06
-1.08183e-06
-1.06748e-06
-9.25762e-07
-1.06768e-06
-7.70507e-07
-1.06105e-06
-6.1757e-07
-1.04295e-06
-4.69405e-07
-1.00633e-06
-3.29813e-07
-9.41599e-07
-2.04357e-07
-8.37151e-07
-1.00671e-07
-6.8087e-07
-2.85823e-08
-4.62561e-07
-1.76577e-07
-2.43537e-08
1.68316e-07
-8.71388e-08
4.51537e-07