/*--------------------------------*- C++ -*----------------------------------*\
| =========                 |                                                 |
| \\      /  F ield         | OpenFOAM: The Open Source CFD Toolbox           |
|  \\    /   O peration     | Version:  2406                                  |
|   \\  /    A nd           | Website:  www.openfoam.com                      |
|    \\/     M anipulation  |                                                 |
\*---------------------------------------------------------------------------*/
FoamFile
{
    version     2.0;
    format      ascii;
    arch        "LSB;label=32;scalar=64";
    class       surfaceScalarField;
    location    "19.3";
    object      phi;
}
// * * * * * * * * * * * * * * * * * * * * * * * * * * * * * * * * * * * * * //

dimensions      [0 3 -1 0 0 0 0];

oriented        oriented;

internalField   nonuniform List<scalar> 
28560
(
7.32889e-09
-7.33117e-09
2.80948e-08
-2.13214e-08
5.49165e-08
-2.68124e-08
8.10259e-08
-2.65105e-08
1.03533e-07
-2.25846e-08
1.20528e-07
-1.7225e-08
1.32034e-07
-1.15406e-08
1.38173e-07
-6.20627e-09
1.39723e-07
-1.49945e-09
1.37248e-07
2.53617e-09
1.3142e-07
5.96079e-09
1.22643e-07
8.93427e-09
1.11236e-07
1.16135e-08
9.72888e-08
1.41838e-08
8.07723e-08
1.67945e-08
6.14962e-08
1.95918e-08
3.9172e-08
2.2684e-08
1.34109e-08
2.61684e-08
-1.62421e-08
3.01138e-08
-5.03022e-08
3.4581e-08
-8.93289e-08
3.96145e-08
-1.33922e-07
4.52563e-08
-1.84718e-07
5.15418e-08
-2.42389e-07
5.85083e-08
-3.07643e-07
6.61926e-08
-3.81228e-07
7.4635e-08
-4.63933e-07
8.38771e-08
-5.56593e-07
9.39629e-08
-6.60083e-07
1.04936e-07
-7.75322e-07
1.1684e-07
-9.03266e-07
1.29712e-07
-1.0449e-06
1.43583e-07
-1.20124e-06
1.58472e-07
-1.37328e-06
1.74384e-07
-1.56203e-06
1.91303e-07
-1.76844e-06
2.09188e-07
-1.9934e-06
2.2797e-07
-2.23769e-06
2.47543e-07
-2.50196e-06
2.67765e-07
-2.78666e-06
2.88446e-07
-3.09202e-06
3.09351e-07
-3.41798e-06
3.30193e-07
-3.76415e-06
3.50632e-07
-4.12974e-06
3.70275e-07
-4.51353e-06
3.88676e-07
-4.91381e-06
4.0534e-07
-5.32834e-06
4.19726e-07
-5.75431e-06
4.3126e-07
-6.1883e-06
4.39336e-07
-6.62629e-06
4.43336e-07
-7.06364e-06
4.42642e-07
-7.49513e-06
4.36652e-07
-7.91497e-06
4.24798e-07
-8.31685e-06
4.06567e-07
-8.69404e-06
3.81525e-07
-9.03947e-06
3.49333e-07
-9.34586e-06
3.09772e-07
-9.60585e-06
2.62763e-07
-9.81213e-06
2.08387e-07
-9.95769e-06
1.469e-07
-1.00359e-05
7.8745e-08
-1.00408e-05
4.56618e-09
-9.96732e-06
-7.47924e-08
-9.81127e-06
-1.58286e-07
-9.56982e-06
-2.44677e-07
-9.24148e-06
-3.32554e-07
-8.82632e-06
-4.20351e-07
-8.32607e-06
-5.06383e-07
-7.74422e-06
-5.88883e-07
-7.08604e-06
-6.6605e-07
-6.35856e-06
-7.36103e-07
-5.5705e-06
-7.97339e-07
-4.73212e-06
-8.48193e-07
-3.85505e-06
-8.87301e-07
-2.95201e-06
-9.13559e-07
-2.03649e-06
-9.26174e-07
-1.12243e-06
-9.24708e-07
-2.23812e-07
-9.0911e-07
6.45726e-07
-8.79732e-07
1.47329e-06
-8.37322e-07
2.24711e-06
-7.83012e-07
2.95686e-06
-7.18272e-07
3.59397e-06
-6.44858e-07
4.15183e-06
-5.64744e-07
4.62588e-06
-4.80036e-07
5.01374e-06
-3.9289e-07
5.3151e-06
-3.05427e-07
5.53164e-06
-2.19647e-07
5.66683e-06
-1.37358e-07
5.72567e-06
-6.01213e-08
5.71443e-06
1.07947e-08
5.64031e-06
7.44364e-08
5.51113e-06
1.30173e-07
5.33504e-06
1.77683e-07
5.12022e-06
2.16933e-07
4.8746e-06
2.4814e-07
4.60573e-06
2.71733e-07
4.32055e-06
2.88298e-07
4.0253e-06
2.9855e-07
3.72544e-06
3.03262e-07
3.42564e-06
3.03261e-07
3.12974e-06
2.99356e-07
2.84081e-06
2.92361e-07
2.56113e-06
2.83007e-07
2.29238e-06
2.72022e-07
2.03551e-06
2.59983e-07
1.79106e-06
2.47488e-07
1.55901e-06
2.34882e-07
1.33921e-06
2.22594e-07
1.13113e-06
2.10596e-07
9.34618e-07
1.99079e-07
7.49391e-07
1.87383e-07
5.76355e-07
1.75374e-07
4.16742e-07
1.61311e-07
2.74009e-07
1.44795e-07
1.52618e-07
1.22443e-07
5.95937e-08
9.46754e-08
2.73912e-09
5.71223e-08
-1.46118e-08
1.84856e-08
-1.46294e-08
2.16179e-08
-2.83918e-08
6.40311e-08
-6.3727e-08
1.14267e-07
-7.63043e-08
1.60747e-07
-7.2756e-08
1.98192e-07
-5.95144e-08
2.22692e-07
-4.15309e-08
2.33729e-07
-2.23403e-08
2.31317e-07
-3.76694e-09
2.16735e-07
1.30704e-08
1.91112e-07
2.80107e-08
1.55754e-07
4.11128e-08
1.1153e-07
5.28595e-08
5.9064e-08
6.37194e-08
-1.48101e-09
7.42939e-08
-7.02701e-08
8.50824e-08
-1.47842e-07
9.65867e-08
-2.3501e-07
1.09197e-07
-3.32855e-07
1.23268e-07
-4.42654e-07
1.39069e-07
-5.65865e-07
1.56837e-07
-7.04089e-07
1.76759e-07
-8.59057e-07
1.99007e-07
-1.03262e-06
2.2373e-07
-1.22673e-06
2.51076e-07
-1.44345e-06
2.81189e-07
-1.68496e-06
3.14214e-07
-1.95354e-06
3.50297e-07
-2.25156e-06
3.89578e-07
-2.58149e-06
4.3219e-07
-2.94585e-06
4.78247e-07
-3.34724e-06
5.27835e-07
-3.78825e-06
5.81001e-07
-4.27147e-06
6.37735e-07
-4.79937e-06
6.97959e-07
-5.3743e-06
7.61508e-07
-5.99837e-06
8.28115e-07
-6.67336e-06
8.97391e-07
-7.40066e-06
9.68815e-07
-8.18109e-06
1.04171e-06
-9.01483e-06
1.11525e-06
-9.9013e-06
1.18842e-06
-1.0839e-05
1.26004e-06
-1.18254e-05
1.32876e-06
-1.28569e-05
1.39304e-06
-1.39285e-05
1.45123e-06
-1.5034e-05
1.50149e-06
-1.61659e-05
1.54193e-06
-1.7315e-05
1.57055e-06
-1.8471e-05
1.58534e-06
-1.96219e-05
1.58433e-06
-2.07547e-05
1.56561e-06
-2.18551e-05
1.52743e-06
-2.29078e-05
1.46821e-06
-2.38966e-05
1.38668e-06
-2.4805e-05
1.28185e-06
-2.56161e-05
1.15316e-06
-2.63131e-05
1.00045e-06
-2.68796e-05
8.24063e-07
-2.73e-05
6.24846e-07
-2.75598e-05
4.042e-07
-2.76461e-05
1.64082e-07
-2.75479e-05
-9.29915e-08
-2.72564e-05
-3.63957e-07
-2.67652e-05
-6.45232e-07
-2.60711e-05
-9.32761e-07
-2.51737e-05
-1.22207e-06
-2.4076e-05
-1.50836e-06
-2.27843e-05
-1.78658e-06
-2.13085e-05
-2.05154e-06
-1.96618e-05
-2.29804e-06
-1.78607e-05
-2.52103e-06
-1.5925e-05
-2.71571e-06
-1.38771e-05
-2.8777e-06
-1.1742e-05
-3.0032e-06
-9.5468e-06
-3.08912e-06
-7.31981e-06
-3.13321e-06
-5.09039e-06
-3.13419e-06
-2.88807e-06
-3.09179e-06
-7.41879e-07
-3.00685e-06
1.32033e-06
-2.88128e-06
3.27257e-06
-2.71806e-06
5.09135e-06
-2.52115e-06
6.75629e-06
-2.29534e-06
8.25055e-06
-2.04615e-06
9.56124e-06
-1.77959e-06
1.06796e-05
-1.50193e-06
1.16013e-05
-1.21952e-06
1.23259e-05
-9.38513e-07
1.28572e-05
-6.64696e-07
1.32027e-05
-4.03257e-07
1.3373e-05
-1.58654e-07
1.33813e-05
6.54981e-08
1.3243e-05
2.66502e-07
1.29751e-05
4.42586e-07
1.25952e-05
5.92883e-07
1.21212e-05
7.17361e-07
1.15709e-05
8.16733e-07
1.0961e-05
8.92326e-07
1.03074e-05
9.45972e-07
9.62446e-06
9.79848e-07
8.92488e-06
9.96388e-07
8.21965e-06
9.98115e-07
7.51802e-06
9.87612e-07
6.82743e-06
9.67338e-07
6.15372e-06
9.39688e-07
5.50109e-06
9.06739e-07
4.87256e-06
8.70451e-07
4.26982e-06
8.32214e-07
3.69408e-06
7.93303e-07
3.14575e-06
7.53998e-07
2.62583e-06
7.14559e-07
2.13526e-06
6.73491e-07
1.67718e-06
6.29708e-07
1.25548e-06
5.79059e-07
8.78096e-07
5.19375e-07
5.53896e-07
4.43387e-07
2.95984e-07
3.51127e-07
1.15254e-07
2.35501e-07
1.90172e-08
1.14776e-07
3.25997e-09
2.73242e-08
-5.57425e-08
7.65329e-08
-1.13674e-07
1.31127e-07
-1.3092e-07
1.76885e-07
-1.19061e-07
2.07685e-07
-9.04761e-08
2.1889e-07
-5.30487e-08
2.09859e-07
-1.33998e-08
1.80669e-07
2.53268e-08
1.32879e-07
6.0901e-08
6.7942e-08
9.30267e-08
-1.25345e-08
1.21756e-07
-1.07472e-07
1.48012e-07
-2.16178e-07
1.72704e-07
-3.38575e-07
1.9702e-07
-4.75083e-07
2.21976e-07
-6.26651e-07
2.48599e-07
-7.9466e-07
2.77714e-07
-9.8089e-07
3.10076e-07
-1.18745e-06
3.46281e-07
-1.41672e-06
3.86858e-07
-1.67136e-06
4.32238e-07
-1.95422e-06
4.82816e-07
-2.26836e-06
5.3894e-07
-2.61703e-06
6.00946e-07
-3.00363e-06
6.69149e-07
-3.43177e-06
7.43861e-07
-3.90516e-06
8.25373e-07
-4.42765e-06
9.13957e-07
-5.00321e-06
1.00984e-06
-5.63585e-06
1.1132e-06
-6.32957e-06
1.22412e-06
-7.08833e-06
1.34258e-06
-7.91592e-06
1.46842e-06
-8.81585e-06
1.60129e-06
-9.79129e-06
1.74066e-06
-1.08449e-05
1.88572e-06
-1.19785e-05
2.03541e-06
-1.31933e-05
2.18835e-06
-1.44894e-05
2.34285e-06
-1.58655e-05
2.49686e-06
-1.73193e-05
2.64797e-06
-1.88465e-05
2.79344e-06
-2.04414e-05
2.93018e-06
-2.20964e-05
3.05484e-06
-2.38018e-05
3.16376e-06
-2.55461e-05
3.25314e-06
-2.73156e-05
3.31905e-06
-2.90949e-05
3.35754e-06
-3.08665e-05
3.36473e-06
-3.26113e-05
3.33695e-06
-3.43088e-05
3.27083e-06
-3.59373e-05
3.16341e-06
-3.74741e-05
3.01227e-06
-3.88962e-05
2.81563e-06
-4.01805e-05
2.57244e-06
-4.13041e-05
2.28246e-06
-4.22451e-05
1.94634e-06
-4.29827e-05
1.56565e-06
-4.34977e-05
1.14291e-06
-4.37732e-05
6.81608e-07
-4.37946e-05
1.86198e-07
-4.35503e-05
-3.37961e-07
-4.30315e-05
-8.84636e-07
-4.22333e-05
-1.4468e-06
-4.11541e-05
-2.01671e-06
-3.97964e-05
-2.58605e-06
-3.81664e-05
-3.14603e-06
-3.62745e-05
-3.68759e-06
-3.41349e-05
-4.2015e-06
-3.17659e-05
-4.67864e-06
-2.91895e-05
-5.11014e-06
-2.64312e-05
-5.48767e-06
-2.35198e-05
-5.80359e-06
-2.04868e-05
-6.05126e-06
-1.73662e-05
-6.22521e-06
-1.41936e-05
-6.32139e-06
-1.10061e-05
-6.33732e-06
-7.8411e-06
-6.27225e-06
-4.73567e-06
-6.12724e-06
-1.72605e-06
-5.90522e-06
1.15335e-06
-5.61094e-06
3.87063e-06
-5.2509e-06
6.39712e-06
-4.83316e-06
8.70802e-06
-4.36712e-06
1.07829e-05
-3.86324e-06
1.26063e-05
-3.33265e-06
1.41677e-05
-2.78685e-06
1.5462e-05
-2.23727e-06
1.6489e-05
-1.69491e-06
1.72539e-05
-1.16997e-06
1.77662e-05
-6.71546e-07
1.80396e-05
-2.07383e-07
1.80912e-05
2.16324e-07
1.79411e-05
5.95021e-07
1.76113e-05
9.25826e-07
1.71249e-05
1.20747e-06
1.65057e-05
1.44018e-06
1.57771e-05
1.62552e-06
1.49617e-05
1.76617e-06
1.40809e-05
1.86567e-06
1.31541e-05
1.92825e-06
1.21988e-05
1.95852e-06
1.12302e-05
1.96132e-06
1.02609e-05
1.94147e-06
9.30173e-06
1.90369e-06
8.36082e-06
1.85223e-06
7.44468e-06
1.79105e-06
6.55787e-06
1.72319e-06
5.70407e-06
1.6512e-06
4.88573e-06
1.57604e-06
4.10589e-06
1.49814e-06
3.36728e-06
1.41526e-06
2.67534e-06
1.32505e-06
2.03597e-06
1.22089e-06
1.46022e-06
1.09816e-06
9.59004e-07
9.46024e-07
5.4975e-07
7.63021e-07
2.44857e-07
5.40311e-07
6.09847e-08
3.01054e-07
6.38918e-08
2.6699e-08
-8.20529e-08
7.06775e-08
-1.57829e-07
1.13843e-07
-1.73561e-07
1.41584e-07
-1.4676e-07
1.47884e-07
-9.64652e-08
1.28401e-07
-3.34858e-08
8.27323e-08
3.24103e-08
1.12289e-08
9.68452e-08
-8.43629e-08
1.56494e-07
-2.02409e-07
2.10999e-07
-3.41236e-07
2.60474e-07
-4.99766e-07
3.06384e-07
-6.77446e-07
3.50186e-07
-8.74449e-07
3.93785e-07
-1.09159e-06
4.38836e-07
-1.33033e-06
4.87019e-07
-1.5927e-06
5.39719e-07
-1.88125e-06
5.98209e-07
-2.19897e-06
6.63526e-07
-2.54924e-06
7.36595e-07
-2.9358e-06
8.1819e-07
-3.36268e-06
9.09018e-07
-3.83422e-06
1.00971e-06
-4.35499e-06
1.12085e-06
-4.9298e-06
1.24299e-06
-5.56367e-06
1.37665e-06
-6.26179e-06
1.52228e-06
-7.02947e-06
1.68029e-06
-7.87209e-06
1.85097e-06
-8.79502e-06
2.03447e-06
-9.80353e-06
2.23079e-06
-1.09026e-05
2.43967e-06
-1.2097e-05
2.66058e-06
-1.33908e-05
2.89265e-06
-1.47874e-05
3.13461e-06
-1.62893e-05
3.38474e-06
-1.78979e-05
3.64083e-06
-1.9613e-05
3.90013e-06
-2.14332e-05
4.15933e-06
-2.33547e-05
4.41456e-06
-2.53723e-05
4.66137e-06
-2.74781e-05
4.89482e-06
-2.9662e-05
5.10948e-06
-3.19116e-05
5.29954e-06
-3.42118e-05
5.45892e-06
-3.65452e-05
5.58139e-06
-3.88923e-05
5.66072e-06
-4.12311e-05
5.69086e-06
-4.35379e-05
5.66608e-06
-4.57877e-05
5.5812e-06
-4.79539e-05
5.43169e-06
-5.00097e-05
5.21389e-06
-5.19276e-05
4.92512e-06
-5.36805e-05
4.5638e-06
-5.5242e-05
4.1296e-06
-5.65869e-05
3.62341e-06
-5.76914e-05
3.04748e-06
-5.85338e-05
2.40539e-06
-5.9095e-05
1.70204e-06
-5.93582e-05
9.43635e-07
-5.931e-05
1.37625e-07
-5.89401e-05
-7.07375e-07
-5.82416e-05
-1.58167e-06
-5.72113e-05
-2.4746e-06
-5.58499e-05
-3.37466e-06
-5.41618e-05
-4.26966e-06
-5.21555e-05
-5.1469e-06
-4.98434e-05
-5.99336e-06
-4.72417e-05
-6.7959e-06
-4.43706e-05
-7.54154e-06
-4.12542e-05
-8.21767e-06
-3.792e-05
-8.8124e-06
-3.43987e-05
-9.31478e-06
-3.07244e-05
-9.71518e-06
-2.69333e-05
-1.00055e-05
-2.30642e-05
-1.01797e-05
-1.91571e-05
-1.02335e-05
-1.52533e-05
-1.01654e-05
-1.13941e-05
-9.97606e-06
-7.6205e-06
-9.66894e-06
-3.97207e-06
-9.25002e-06
-4.86489e-07
-8.72781e-06
2.80141e-06
-8.11317e-06
5.86032e-06
-7.41901e-06
8.66316e-06
-6.65996e-06
1.11876e-05
-5.85192e-06
1.34165e-05
-5.01158e-06
1.53383e-05
-4.15587e-06
1.69471e-05
-3.30147e-06
1.82427e-05
-2.46423e-06
1.92304e-05
-1.65873e-06
1.99206e-05
-8.97834e-07
2.03283e-05
-1.9235e-07
2.04726e-05
4.49181e-07
2.03756e-05
1.02063e-06
2.00622e-05
1.51831e-06
1.95587e-05
1.94085e-06
1.88919e-05
2.28907e-06
1.8089e-05
2.5657e-06
1.71761e-05
2.77505e-06
1.61781e-05
2.92274e-06
1.51177e-05
3.01527e-06
1.40158e-05
3.05976e-06
1.28902e-05
3.06352e-06
1.17567e-05
3.03385e-06
1.06281e-05
2.97759e-06
9.51495e-06
2.90108e-06
8.42563e-06
2.80945e-06
7.36715e-06
2.70692e-06
6.34482e-06
2.59553e-06
5.36445e-06
2.47615e-06
4.43095e-06
2.34612e-06
3.5522e-06
2.20195e-06
2.73569e-06
2.03492e-06
1.99487e-06
1.83789e-06
1.34156e-06
1.59691e-06
7.96785e-07
1.30788e-06
3.74722e-07
9.59658e-07
1.03844e-07
5.73605e-07
1.66021e-07
2.11605e-08
-1.03197e-07
5.06299e-08
-1.8773e-07
7.03654e-08
-1.93246e-07
6.68122e-08
-1.43479e-07
3.45528e-08
-6.42698e-08
-2.97561e-08
3.06804e-08
-1.25961e-07
1.28567e-07
-2.53124e-07
2.2397e-07
-4.09248e-07
3.1263e-07
-5.92504e-07
3.94303e-07
-8.01262e-07
4.69309e-07
-1.03457e-06
5.39807e-07
-1.29218e-06
6.07936e-07
-1.57467e-06
6.76448e-07
-1.8834e-06
7.47765e-07
-2.22049e-06
8.24345e-07
-2.58876e-06
9.08249e-07
-2.99163e-06
1.00138e-06
-3.4331e-06
1.10534e-06
-3.91764e-06
1.22153e-06
-4.45019e-06
1.35118e-06
-5.03608e-06
1.4954e-06
-5.68098e-06
1.65517e-06
-6.3909e-06
1.8314e-06
-7.17212e-06
2.02491e-06
-8.03115e-06
2.23646e-06
-8.97465e-06
2.46666e-06
-1.00094e-05
2.71601e-06
-1.11421e-05
2.98477e-06
-1.23794e-05
3.27297e-06
-1.37276e-05
3.58031e-06
-1.51925e-05
3.90607e-06
-1.67794e-05
4.24903e-06
-1.84924e-05
4.60742e-06
-2.03346e-05
4.9788e-06
-2.23078e-05
5.36004e-06
-2.44119e-05
5.7472e-06
-2.66449e-05
6.13556e-06
-2.90025e-05
6.51956e-06
-3.1478e-05
6.89287e-06
-3.40621e-05
7.24839e-06
-3.67425e-05
7.57839e-06
-3.95043e-05
7.87461e-06
-4.23296e-05
8.12841e-06
-4.51981e-05
8.33101e-06
-4.80866e-05
8.47367e-06
-5.097e-05
8.54791e-06
-5.3821e-05
8.54581e-06
-5.66112e-05
8.46018e-06
-5.93109e-05
8.28484e-06
-6.18901e-05
8.01477e-06
-6.43188e-05
7.64632e-06
-6.65674e-05
7.17729e-06
-6.86074e-05
6.60712e-06
-7.04116e-05
5.93684e-06
-7.19547e-05
5.16917e-06
-7.32134e-05
4.30851e-06
-7.4167e-05
3.36085e-06
-7.47974e-05
2.33377e-06
-7.50893e-05
1.23635e-06
-7.50306e-05
7.9094e-08
-7.46123e-05
-1.12621e-06
-7.38285e-05
-2.36656e-06
-7.26771e-05
-3.62789e-06
-7.11591e-05
-4.89517e-06
-6.92794e-05
-6.15264e-06
-6.70463e-05
-7.38391e-06
-6.44721e-05
-8.57223e-06
-6.15725e-05
-9.70069e-06
-5.83674e-05
-1.07525e-05
-5.488e-05
-1.17113e-05
-5.11376e-05
-1.25616e-05
-4.71707e-05
-1.32888e-05
-4.30134e-05
-1.388e-05
-3.87025e-05
-1.43241e-05
-3.42776e-05
-1.46122e-05
-2.97806e-05
-1.47382e-05
-2.52548e-05
-1.46988e-05
-2.07443e-05
-1.44938e-05
-1.62938e-05
-1.41265e-05
-1.19471e-05
-1.36034e-05
-7.74668e-06
-1.29344e-05
-3.73291e-06
-1.21325e-05
5.69734e-08
-1.12139e-05
3.5895e-06
-1.01968e-05
6.83567e-06
-9.10179e-06
9.77156e-06
-7.95049e-06
1.23788e-05
-6.76544e-06
1.46449e-05
-5.56918e-06
1.65632e-05
-4.3836e-06
1.81333e-05
-3.22928e-06
1.93605e-05
-2.12492e-06
2.02556e-05
-1.08682e-06
2.08344e-05
-1.28505e-07
2.11169e-05
7.39585e-07
2.11268e-05
1.51017e-06
2.08905e-05
2.17919e-06
2.04362e-05
2.74558e-06
1.97932e-05
3.21114e-06
1.89906e-05
3.58008e-06
1.80572e-05
3.85871e-06
1.70201e-05
4.05491e-06
1.59047e-05
4.17772e-06
1.47339e-05
4.23679e-06
1.35281e-05
4.24205e-06
1.2305e-05
4.20303e-06
1.10796e-05
4.12871e-06
9.86451e-06
4.02664e-06
8.67054e-06
3.90304e-06
7.5064e-06
3.76147e-06
6.38104e-06
3.60354e-06
5.3019e-06
3.42667e-06
4.2794e-06
3.22643e-06
3.32266e-06
2.99251e-06
2.44754e-06
2.71507e-06
1.66703e-06
2.37735e-06
1.00639e-06
1.97101e-06
4.83013e-07
1.48138e-06
1.37809e-07
9.22283e-07
3.02621e-07
1.25643e-08
-1.15618e-07
2.0236e-08
-1.95398e-07
6.47611e-09
-1.79314e-07
-3.97317e-08
-9.7191e-08
-1.22632e-07
1.87219e-08
-2.439e-07
1.52029e-07
-4.02569e-07
2.87267e-07
-5.96849e-07
4.18285e-07
-8.24453e-07
5.40211e-07
-1.08335e-06
6.53176e-07
-1.37204e-06
7.57933e-07
-1.68982e-06
8.57517e-07
-2.03691e-06
9.54912e-07
-2.41443e-06
1.05386e-06
-2.82448e-06
1.15766e-06
-3.26998e-06
1.26968e-06
-3.75469e-06
1.39276e-06
-4.28307e-06
1.52955e-06
-4.86027e-06
1.68229e-06
-5.49203e-06
1.853e-06
-6.1846e-06
2.04343e-06
-6.94473e-06
2.25517e-06
-7.7796e-06
2.48963e-06
-8.69674e-06
2.74809e-06
-9.70401e-06
3.03167e-06
-1.08095e-05
3.34133e-06
-1.20213e-05
3.67783e-06
-1.33476e-05
4.04164e-06
-1.47965e-05
4.43288e-06
-1.63756e-05
4.85124e-06
-1.80921e-05
5.29584e-06
-1.99523e-05
5.76516e-06
-2.19613e-05
6.25692e-06
-2.41231e-05
6.76795e-06
-2.64398e-05
7.29412e-06
-2.89116e-05
7.83027e-06
-3.15361e-05
8.37013e-06
-3.43087e-05
8.90638e-06
-3.72217e-05
9.43061e-06
-4.02643e-05
9.93342e-06
-4.34226e-05
1.04046e-05
-4.66797e-05
1.08332e-05
-5.00155e-05
1.1208e-05
-5.34069e-05
1.15173e-05
-5.68284e-05
1.17499e-05
-6.0252e-05
1.18946e-05
-6.36481e-05
1.19413e-05
-6.69857e-05
1.18806e-05
-7.02331e-05
1.17048e-05
-7.33582e-05
1.14072e-05
-7.63294e-05
1.09833e-05
-7.91158e-05
1.043e-05
-8.16875e-05
9.74652e-06
-8.40164e-05
8.93368e-06
-8.60761e-05
7.99444e-06
-8.78424e-05
6.93361e-06
-8.92933e-05
5.75785e-06
-9.04093e-05
4.47559e-06
-9.11733e-05
3.09694e-06
-9.1571e-05
1.63359e-06
-9.15906e-05
9.87207e-08
-9.12233e-05
-1.4931e-06
-9.04629e-05
-3.12602e-06
-8.93064e-05
-4.783e-06
-8.77537e-05
-6.44596e-06
-8.5808e-05
-8.09591e-06
-8.34759e-05
-9.71313e-06
-8.07674e-05
-1.12774e-05
-7.76963e-05
-1.2768e-05
-7.428e-05
-1.41646e-05
-7.05399e-05
-1.54469e-05
-6.65013e-05
-1.65954e-05
-6.21933e-05
-1.75917e-05
-5.76488e-05
-1.84192e-05
-5.29044e-05
-1.90631e-05
-4.79999e-05
-1.95113e-05
-4.2978e-05
-1.97547e-05
-3.78839e-05
-1.97876e-05
-3.27644e-05
-1.96082e-05
-2.76673e-05
-1.92186e-05
-2.26408e-05
-1.86252e-05
-1.77322e-05
-1.78386e-05
-1.29873e-05
-1.68735e-05
-8.44941e-06
-1.57482e-05
-4.15852e-06
-1.44846e-05
-1.50431e-07
-1.31073e-05
3.54396e-06
-1.16427e-05
6.89921e-06
-1.0119e-05
9.89582e-06
-8.56459e-06
1.25205e-05
-7.00754e-06
1.47664e-05
-5.47482e-06
1.66329e-05
-3.99144e-06
1.81254e-05
-2.57982e-06
1.92554e-05
-1.25921e-06
2.00393e-05
-4.5274e-08
2.0498e-05
1.05017e-06
2.06565e-05
2.01927e-06
2.05425e-05
2.85806e-06
2.01857e-05
3.56631e-06
1.96168e-05
4.14713e-06
1.88671e-05
4.60663e-06
1.7967e-05
4.95327e-06
1.69455e-05
5.19741e-06
1.58299e-05
5.35063e-06
1.46451e-05
5.42515e-06
1.34133e-05
5.43313e-06
1.21543e-05
5.38619e-06
1.08848e-05
5.29446e-06
9.62006e-06
5.16644e-06
8.37245e-06
5.00753e-06
7.15445e-06
4.82048e-06
5.97635e-06
4.60322e-06
4.85137e-06
4.35076e-06
3.79056e-06
4.05164e-06
2.81234e-06
3.69333e-06
1.93135e-06
3.25623e-06
1.17719e-06
2.72645e-06
5.71178e-07
2.08416e-06
1.65233e-07
1.33136e-06
4.6565e-07
1.60814e-09
-1.17366e-07
-1.8152e-08
-1.75575e-07
-7.33508e-08
-1.24304e-07
-1.71417e-07
9.08414e-10
-3.1491e-07
1.62066e-07
-5.033e-07
3.40444e-07
-7.3456e-07
5.18436e-07
-1.00581e-06
6.89566e-07
-1.3144e-06
8.48769e-07
-1.65805e-06
9.96881e-07
-2.03548e-06
1.13539e-06
-2.44632e-06
1.26843e-06
-2.89139e-06
1.40004e-06
-3.37254e-06
1.5351e-06
-3.89274e-06
1.67796e-06
-4.45592e-06
1.83299e-06
-5.06696e-06
2.00394e-06
-5.73156e-06
2.19432e-06
-6.4562e-06
2.40711e-06
-7.24803e-06
2.64504e-06
-8.11484e-06
2.91047e-06
-9.06495e-06
3.20555e-06
-1.01072e-05
3.53215e-06
-1.12507e-05
3.89197e-06
-1.25051e-05
4.28641e-06
-1.388e-05
4.7166e-06
-1.5385e-05
5.18332e-06
-1.70297e-05
5.68689e-06
-1.88233e-05
6.22705e-06
-2.07743e-05
6.80285e-06
-2.28903e-05
7.41252e-06
-2.51776e-05
8.05328e-06
-2.76411e-05
8.72127e-06
-3.02836e-05
9.41136e-06
-3.31057e-05
1.01171e-05
-3.6105e-05
1.08307e-05
-3.92767e-05
1.1543e-05
-4.26124e-05
1.22433e-05
-4.61003e-05
1.29199e-05
-4.97254e-05
1.35599e-05
-5.34689e-05
1.41497e-05
-5.73091e-05
1.4675e-05
-6.12209e-05
1.51215e-05
-6.51768e-05
1.5475e-05
-6.9147e-05
1.57219e-05
-7.30999e-05
1.58494e-05
-7.70029e-05
1.58462e-05
-8.08229e-05
1.57026e-05
-8.45266e-05
1.54104e-05
-8.80813e-05
1.49639e-05
-9.14553e-05
1.43591e-05
-9.4618e-05
1.35946e-05
-9.75405e-05
1.26708e-05
-0.000100196
1.15905e-05
-0.000102558
1.03585e-05
-0.000104605
8.98174e-06
-0.000106315
7.46887e-06
-0.000107669
5.83043e-06
-0.00010865
4.07867e-06
-0.000109244
2.22744e-06
-0.000109437
2.92145e-07
-0.00010922
-1.71035e-06
-0.000108585
-3.76179e-06
-0.000107527
-5.84259e-06
-0.000106042
-7.93194e-06
-0.000104132
-1.00079e-05
-0.000101799
-1.20477e-05
-9.90516e-05
-1.40276e-05
-9.58989e-05
-1.59235e-05
-9.23556e-05
-1.77109e-05
-8.84402e-05
-1.93655e-05
-8.41752e-05
-2.08638e-05
-7.95877e-05
-2.21829e-05
-7.47089e-05
-2.33017e-05
-6.95746e-05
-2.42013e-05
-6.42242e-05
-2.48654e-05
-5.87015e-05
-2.52813e-05
-5.3053e-05
-2.54398e-05
-4.73284e-05
-2.53364e-05
-4.15791e-05
-2.49714e-05
-3.58576e-05
-2.435e-05
-3.02167e-05
-2.34826e-05
-2.47083e-05
-2.23847e-05
-1.93822e-05
-2.10768e-05
-1.42856e-05
-1.95835e-05
-9.46153e-06
-1.79332e-05
-4.94842e-06
-1.61574e-05
-7.79138e-07
-1.42895e-05
3.01952e-06
-1.23641e-05
6.42728e-06
-1.04159e-05
9.43061e-06
-8.4784e-06
1.20228e-05
-6.58359e-06
1.42037e-05
-4.76052e-06
1.59798e-05
-3.03484e-06
1.73635e-05
-1.42819e-06
1.83722e-05
4.22252e-08
1.90286e-05
1.36388e-06
1.93588e-05
2.52896e-06
1.93921e-05
3.53422e-06
1.91597e-05
4.38074e-06
1.86941e-05
5.07347e-06
1.8028e-05
5.62066e-06
1.71934e-05
6.03326e-06
1.62211e-05
6.32414e-06
1.51401e-05
6.50744e-06
1.39768e-05
6.59761e-06
1.27553e-05
6.60882e-06
1.1497e-05
6.55383e-06
1.02211e-05
6.44349e-06
8.94408e-06
6.28535e-06
7.68216e-06
6.08359e-06
6.44877e-06
5.83711e-06
5.26024e-06
5.5406e-06
4.12998e-06
5.18188e-06
3.07935e-06
4.74565e-06
2.12528e-06
4.20936e-06
1.30181e-06
3.55249e-06
6.34457e-07
2.74881e-06
1.84121e-07
1.78592e-06
6.47898e-07
-1.10777e-08
-1.06471e-07
-6.29093e-08
-1.23277e-07
-1.66301e-07
-2.11979e-08
-3.24162e-07
1.59073e-07
-5.36868e-07
3.74617e-07
-8.01177e-07
6.04934e-07
-1.11378e-06
8.30948e-07
-1.4705e-06
1.04638e-06
-1.86831e-06
1.24651e-06
-2.30467e-06
1.43327e-06
-2.7786e-06
1.60925e-06
-3.29016e-06
1.77997e-06
-3.84094e-06
1.95075e-06
-4.43367e-06
2.12778e-06
-5.07241e-06
2.31662e-06
-5.76229e-06
2.52279e-06
-6.50953e-06
2.75106e-06
-7.32124e-06
3.00592e-06
-8.20546e-06
3.29119e-06
-9.17096e-06
3.6104e-06
-1.02272e-05
3.96659e-06
-1.13844e-05
4.36252e-06
-1.2653e-05
4.80057e-06
-1.40441e-05
5.28282e-06
-1.55689e-05
5.81092e-06
-1.72387e-05
6.38606e-06
-1.90646e-05
7.00889e-06
-2.10574e-05
7.67932e-06
-2.32272e-05
8.39642e-06
-2.5583e-05
9.15825e-06
-2.81326e-05
9.96162e-06
-3.08819e-05
1.0802e-05
-3.38346e-05
1.16734e-05
-3.69919e-05
1.2568e-05
-4.0352e-05
1.34765e-05
-4.39099e-05
1.43878e-05
-4.76567e-05
1.5289e-05
-5.15804e-05
1.6166e-05
-5.56646e-05
1.70031e-05
-5.98896e-05
1.77839e-05
-6.42321e-05
1.84911e-05
-6.86657e-05
1.91075e-05
-7.31613e-05
1.96159e-05
-7.76876e-05
2e-05
-8.22116e-05
2.02446e-05
-8.66996e-05
2.0336e-05
-9.11173e-05
2.02625e-05
-9.54306e-05
2.00145e-05
-9.9606e-05
1.95845e-05
-0.000103611
1.89676e-05
-0.000107415
1.81614e-05
-0.000110987
1.71658e-05
-0.0001143
1.59829e-05
-0.000117328
1.46172e-05
-0.000120046
1.30754e-05
-0.000122431
1.1366e-05
-0.000124462
9.49937e-06
-0.00012612
7.48785e-06
-0.000127387
5.34538e-06
-0.000128248
3.08758e-06
-0.000128687
7.3166e-07
-0.000128693
-1.7036e-06
-0.000128257
-4.19791e-06
-0.000127369
-6.7295e-06
-0.000126025
-9.27515e-06
-0.000124221
-1.18103e-05
-0.000121958
-1.43093e-05
-0.000119238
-1.67451e-05
-0.00011607
-1.90902e-05
-0.000112462
-2.13163e-05
-0.00010843
-2.33949e-05
-0.000103994
-2.5298e-05
-9.91759e-05
-2.69979e-05
-9.4006e-05
-2.84689e-05
-8.85177e-05
-2.96868e-05
-8.27497e-05
-3.06307e-05
-7.67455e-05
-3.12827e-05
-7.05529e-05
-3.16297e-05
-6.42238e-05
-3.1663e-05
-5.78129e-05
-3.13798e-05
-5.13775e-05
-3.0783e-05
-4.49759e-05
-2.9882e-05
-3.86668e-05
-2.8692e-05
-3.25073e-05
-2.72345e-05
-2.65525e-05
-2.55367e-05
-2.08539e-05
-2.36304e-05
-1.54583e-05
-2.15519e-05
-1.04069e-05
-1.93401e-05
-5.73451e-06
-1.70359e-05
-1.46912e-06
-1.46808e-05
2.36867e-06
-1.2316e-05
5.76562e-06
-9.98054e-06
8.71591e-06
-7.71097e-06
1.12208e-05
-5.54005e-06
1.32882e-05
-3.49611e-06
1.49324e-05
-1.60253e-06
1.61729e-05
1.22686e-07
1.70341e-05
1.66701e-06
1.75442e-05
3.02335e-06
1.77342e-05
4.18985e-06
1.76373e-05
5.16946e-06
1.72877e-05
5.96935e-06
1.67198e-05
6.60032e-06
1.59671e-05
7.07588e-06
1.50622e-05
7.4115e-06
1.40354e-05
7.62355e-06
1.2915e-05
7.72846e-06
1.17265e-05
7.74149e-06
1.04934e-05
7.67589e-06
9.23638e-06
7.54151e-06
7.97541e-06
7.34418e-06
6.72743e-06
7.08408e-06
5.51212e-06
6.7559e-06
4.3457e-06
6.34699e-06
3.25268e-06
5.83933e-06
2.25276e-06
5.20729e-06
1.38411e-06
4.42308e-06
6.76197e-07
3.45318e-06
1.96492e-07
2.26962e-06
8.41939e-07
-2.52993e-08
-8.16008e-08
-1.13082e-07
-3.47945e-08
-2.70307e-07
1.35409e-07
-4.94644e-07
3.83808e-07
-7.83857e-07
6.63482e-07
-1.13157e-06
9.52864e-07
-1.53302e-06
1.2322e-06
-1.98256e-06
1.49605e-06
-2.47675e-06
1.74061e-06
-3.01282e-06
1.96942e-06
-3.59018e-06
2.18657e-06
-4.20943e-06
2.3993e-06
-4.87311e-06
2.61443e-06
-5.58501e-06
2.83974e-06
-6.35048e-06
3.08213e-06
-7.17606e-06
3.34844e-06
-8.06952e-06
3.64459e-06
-9.03966e-06
3.97614e-06
-1.00963e-05
4.34788e-06
-1.125e-05
4.7642e-06
-1.25121e-05
5.2289e-06
-1.38949e-05
5.74537e-06
-1.54106e-05
6.31649e-06
-1.70723e-05
6.94467e-06
-1.88929e-05
7.63169e-06
-2.08852e-05
8.37865e-06
-2.30619e-05
9.1858e-06
-2.54347e-05
1.00524e-05
-2.80142e-05
1.09763e-05
-3.08098e-05
1.19542e-05
-3.38287e-05
1.29809e-05
-3.70758e-05
1.40495e-05
-4.05532e-05
1.51512e-05
-4.42596e-05
1.62749e-05
-4.81903e-05
1.74077e-05
-5.23367e-05
1.85347e-05
-5.66859e-05
1.96389e-05
-6.12213e-05
2.07021e-05
-6.59222e-05
2.17047e-05
-7.07642e-05
2.26267e-05
-7.57198e-05
2.34475e-05
-8.07585e-05
2.41471e-05
-8.58479e-05
2.47062e-05
-9.09538e-05
2.51069e-05
-9.60415e-05
2.53332e-05
-0.000101076
2.53711e-05
-0.000106021
2.52091e-05
-0.000110844
2.48381e-05
-0.00011551
2.42519e-05
-0.000119988
2.34468e-05
-0.000124248
2.24217e-05
-0.000128259
2.1178e-05
-0.000131995
1.97196e-05
-0.000135429
1.80524e-05
-0.000138538
1.61846e-05
-0.000141297
1.41262e-05
-0.000143687
1.18893e-05
-0.000145686
9.4875e-06
-0.000147277
6.93638e-06
-0.000148442
4.25303e-06
-0.000149167
1.45623e-06
-0.000149437
-1.43363e-06
-0.000149241
-4.39453e-06
-0.000148568
-7.40284e-06
-0.000147411
-1.04333e-05
-0.000145763
-1.34592e-05
-0.000143621
-1.64523e-05
-0.000140985
-1.93828e-05
-0.000137856
-2.22199e-05
-0.000134242
-2.49318e-05
-0.000130153
-2.7486e-05
-0.000125603
-2.98499e-05
-0.000120611
-3.19912e-05
-0.000115204
-3.38785e-05
-0.00010941
-3.54825e-05
-0.000103266
-3.67761e-05
-9.68151e-05
-3.77359e-05
-9.01037e-05
-3.8343e-05
-8.3185e-05
-3.85835e-05
-7.61165e-05
-3.845e-05
-6.89597e-05
-3.79415e-05
-6.17785e-05
-3.70647e-05
-5.46385e-05
-3.58333e-05
-4.76053e-05
-3.4269e-05
-4.07428e-05
-3.24002e-05
-3.41123e-05
-3.02619e-05
-2.77705e-05
-2.78945e-05
-2.17684e-05
-2.53428e-05
-1.61503e-05
-2.26543e-05
-1.09533e-05
-1.98782e-05
-6.20586e-06
-1.70635e-05
-1.92864e-06
-1.42578e-05
1.86626e-06
-1.15058e-05
5.17472e-06
-8.84828e-06
8.00028e-06
-6.32135e-06
1.03535e-05
-3.95534e-06
1.22513e-05
-1.77461e-06
1.3716e-05
2.02805e-07
1.47747e-05
1.96518e-06
1.54583e-05
3.50692e-06
1.58001e-05
4.82823e-06
1.58356e-05
5.9345e-06
1.5601e-05
6.83562e-06
1.51323e-05
7.54513e-06
1.44652e-05
8.07927e-06
1.36334e-05
8.45589e-06
1.26692e-05
8.69332e-06
1.1602e-05
8.80913e-06
1.04597e-05
8.8189e-06
9.26666e-06
8.73481e-06
8.0471e-06
8.5645e-06
6.82157e-06
8.30964e-06
5.61331e-06
7.96515e-06
4.44174e-06
7.5181e-06
3.33472e-06
6.94785e-06
2.31503e-06
6.22559e-06
1.42458e-06
5.31613e-06
6.963e-07
4.17825e-06
2.02008e-07
2.76844e-06
1.04174e-06
-4.08668e-08
-4.12999e-08
-1.68065e-07
9.35138e-08
-3.84135e-07
3.50643e-07
-6.80838e-07
6.81157e-07
-1.05295e-06
1.03515e-06
-1.4906e-06
1.39086e-06
-1.98739e-06
1.72876e-06
-2.53613e-06
2.04497e-06
-3.13298e-06
2.33732e-06
-3.77496e-06
2.6115e-06
-4.46201e-06
2.87354e-06
-5.19544e-06
3.13275e-06
-5.97888e-06
3.39781e-06
-6.8174e-06
3.67825e-06
-7.71788e-06
3.98256e-06
-8.68848e-06
4.319e-06
-9.73878e-06
4.69483e-06
-1.08795e-05
5.11678e-06
-1.21224e-05
5.59069e-06
-1.34801e-05
6.12188e-06
-1.49662e-05
6.71493e-06
-1.65948e-05
7.37388e-06
-1.83805e-05
8.10204e-06
-2.0338e-05
8.90203e-06
-2.24821e-05
9.7756e-06
-2.48271e-05
1.07235e-05
-2.73867e-05
1.17452e-05
-3.01734e-05
1.28389e-05
-3.31982e-05
1.40009e-05
-3.64698e-05
1.52256e-05
-3.99947e-05
1.65055e-05
-4.37759e-05
1.78304e-05
-4.78132e-05
1.91881e-05
-5.21022e-05
2.05636e-05
-5.66347e-05
2.19398e-05
-6.13977e-05
2.32973e-05
-6.63742e-05
2.46149e-05
-7.15428e-05
2.58702e-05
-7.68782e-05
2.70397e-05
-8.23519e-05
2.80998e-05
-8.79322e-05
2.90272e-05
-9.35855e-05
2.97997e-05
-9.92763e-05
3.03964e-05
-0.000104969
3.07985e-05
-0.000110626
3.09897e-05
-0.000116212
3.09563e-05
-0.000121691
3.06873e-05
-0.000127028
3.01748e-05
-0.00013219
2.94137e-05
-0.000137146
2.84016e-05
-0.000141864
2.71391e-05
-0.000146316
2.56292e-05
-0.000150474
2.38771e-05
-0.000154313
2.18905e-05
-0.000157808
1.96791e-05
-0.000160936
1.72546e-05
-0.000163678
1.46305e-05
-0.000166013
1.1822e-05
-0.000167922
8.8461e-06
-0.000169391
5.72127e-06
-0.000170402
2.46766e-06
-0.000170942
-8.93019e-07
-0.000170999
-4.33742e-06
-0.000170561
-7.84059e-06
-0.000169618
-1.13758e-05
-0.000168161
-1.49149e-05
-0.000166185
-1.84275e-05
-0.000163685
-2.18821e-05
-0.000160659
-2.52452e-05
-0.000157107
-2.8482e-05
-0.000153035
-3.15566e-05
-0.000148452
-3.44323e-05
-0.00014337
-3.70719e-05
-0.000137808
-3.94389e-05
-0.000131791
-4.14978e-05
-0.000125351
-4.32152e-05
-0.000118524
-4.45609e-05
-0.000111357
-4.55088e-05
-0.000103901
-4.60384e-05
-9.62139e-05
-4.61356e-05
-8.83605e-05
-4.57937e-05
-8.04094e-05
-4.50146e-05
-7.2433e-05
-4.38088e-05
-6.45053e-05
-4.21958e-05
-5.67005e-05
-4.02042e-05
-4.9091e-05
-3.78708e-05
-4.17452e-05
-3.52397e-05
-3.47264e-05
-3.23611e-05
-2.80907e-05
-2.92897e-05
-2.18859e-05
-2.60828e-05
-1.61511e-05
-2.27983e-05
-1.09154e-05
-1.94934e-05
-6.19877e-06
-1.62225e-05
-2.01145e-06
-1.30358e-05
1.64514e-06
-9.97816e-06
4.7778e-06
-7.08829e-06
7.40076e-06
-4.39788e-06