/*--------------------------------*- C++ -*----------------------------------*\
| =========                 |                                                 |
| \\      /  F ield         | OpenFOAM: The Open Source CFD Toolbox           |
|  \\    /   O peration     | Version:  2406                                  |
|   \\  /    A nd           | Website:  www.openfoam.com                      |
|    \\/     M anipulation  |                                                 |
\*---------------------------------------------------------------------------*/
FoamFile
{
    version     2.0;
    format      ascii;
    arch        "LSB;label=32;scalar=64";
    class       volVectorField;
    location    "14.2";
    object      U;
}
// * * * * * * * * * * * * * * * * * * * * * * * * * * * * * * * * * * * * * //

dimensions      [0 1 -1 0 0 0 0];

internalField   nonuniform List<vector> 
3600
(
(2.15269e-05 -1.9486e-05 0)
(-1.18781e-05 1.04665e-05 0)
(-0.000121987 3.62514e-05 0)
(-0.000303366 5.7489e-05 0)
(-0.000531661 6.60951e-05 0)
(-0.000782936 7.18774e-05 0)
(-0.0010539 7.27444e-05 0)
(-0.00132894 7.45936e-05 0)
(-0.00161715 7.53421e-05 0)
(-0.0019085 7.79486e-05 0)
(-0.00221461 8.03261e-05 0)
(-0.002527 8.39844e-05 0)
(-0.00285509 8.72003e-05 0)
(-0.00319038 9.0874e-05 0)
(-0.00353896 9.37265e-05 0)
(-0.00389205 9.63563e-05 0)
(-0.00425253 9.7807e-05 0)
(-0.00461128 9.84414e-05 0)
(-0.00496819 9.74663e-05 0)
(-0.00531338 9.50066e-05 0)
(-0.00564367 9.03123e-05 0)
(-0.00594783 8.32811e-05 0)
(-0.00621939 7.31662e-05 0)
(-0.00644527 5.97209e-05 0)
(-0.0066159 4.22866e-05 0)
(-0.0067166 2.06762e-05 0)
(-0.00673598 -5.44715e-06 0)
(-0.00665947 -3.58817e-05 0)
(-0.00647678 -7.03045e-05 0)
(-0.00617698 -0.000107768 0)
(-0.00575541 -0.000147013 0)
(-0.00520954 -0.000186185 0)
(-0.00454529 -0.000223136 0)
(-0.00377258 -0.00025541 0)
(-0.00291094 -0.000280558 0)
(-0.00198355 -0.000296383 0)
(-0.0010221 -0.000301174 0)
(-5.85269e-05 -0.000294093 0)
(0.000870144 -0.000275132 0)
(0.0017325 -0.000245474 0)
(0.00249624 -0.000206981 0)
(0.00314082 -0.000162514 0)
(0.00364716 -0.000114909 0)
(0.00401196 -6.74638e-05 0)
(0.00423178 -2.25565e-05 0)
(0.00431998 1.73649e-05 0)
(0.0042842 5.14126e-05 0)
(0.00414847 7.85019e-05 0)
(0.00392324 9.93695e-05 0)
(0.00363605 0.000113911 0)
(0.00329267 0.000124005 0)
(0.00291964 0.000129696 0)
(0.00251413 0.000133465 0)
(0.00210124 0.00013451 0)
(0.00167032 0.00013542 0)
(0.00124948 0.000132497 0)
(0.000829869 0.000126612 0)
(0.000457157 0.000104943 0)
(0.000154212 6.55941e-05 0)
(-3.38068e-06 -3.04818e-06 0)
(-7.50661e-06 1.0737e-05 0)
(-0.000184532 0.000179605 0)
(-0.000533263 0.000319788 0)
(-0.00102182 0.000437104 0)
(-0.00161956 0.000503141 0)
(-0.0022789 0.000550455 0)
(-0.00299215 0.000574298 0)
(-0.00372877 0.000596444 0)
(-0.00449969 0.000612681 0)
(-0.00528708 0.000633633 0)
(-0.00610682 0.000653577 0)
(-0.00694504 0.000676815 0)
(-0.00781405 0.000697744 0)
(-0.00869939 0.000718 0)
(-0.00960716 0.000733023 0)
(-0.0105211 0.000743372 0)
(-0.0114411 0.000745426 0)
(-0.0123489 0.000739053 0)
(-0.0132385 0.0007211 0)
(-0.0140895 0.000690735 0)
(-0.0148901 0.000644885 0)
(-0.0156168 0.000582096 0)
(-0.0162523 0.000499381 0)
(-0.0167696 0.000395162 0)
(-0.0171472 0.000267177 0)
(-0.0173561 0.000114826 0)
(-0.0173732 -6.2156e-05 0)
(-0.0171719 -0.000261832 0)
(-0.0167335 -0.000480955 0)
(-0.0160404 -0.000713648 0)
(-0.0150864 -0.000952234 0)
(-0.0138706 -0.00118664 0)
(-0.0124071 -0.00140546 0)
(-0.0107179 -0.00159623 0)
(-0.00884122 -0.00174676 0)
(-0.00682265 -0.00184611 0)
(-0.00472167 -0.0018859 0)
(-0.00259986 -0.00186144 0)
(-0.000527068 -0.00177231 0)
(0.00143394 -0.00162307 0)
(0.00321934 -0.00142232 0)
(0.00478264 -0.00118283 0)
(0.00608145 -0.000918902 0)
(0.00709825 -0.000646426 0)
(0.0078191 -0.00037922 0)
(0.00825769 -0.00013017 0)
(0.00842392 9.27267e-05 0)
(0.00835453 0.000283081 0)
(0.00807039 0.000440385 0)
(0.00761868 0.000564114 0)
(0.00701738 0.000659443 0)
(0.00631449 0.000728161 0)
(0.00551661 0.000777865 0)
(0.00467074 0.000807644 0)
(0.00377266 0.000823778 0)
(0.00287699 0.000814263 0)
(0.00198261 0.000776982 0)
(0.0011754 0.00067067 0)
(0.000489374 0.000481966 0)
(6.72124e-05 0.000155154 0)
(-4.15203e-05 0.000133104 0)
(-0.000373394 0.000547184 0)
(-0.000971914 0.000883835 0)
(-0.00175482 0.0011568 0)
(-0.00269275 0.00132633 0)
(-0.0037151 0.00144724 0)
(-0.0048166 0.00151819 0)
(-0.00595465 0.00157845 0)
(-0.00714265 0.00162553 0)
(-0.00835596 0.00167806 0)
(-0.00961213 0.00172801 0)
(-0.0108922 0.00178144 0)
(-0.0122084 0.00182878 0)
(-0.013541 0.00187093 0)
(-0.0148942 0.00189952 0)
(-0.0162457 0.00191371 0)
(-0.017592 0.00190666 0)
(-0.0189085 0.00187663 0)
(-0.0201847 0.0018176 0)
(-0.0213935 0.00172682 0)
(-0.0225181 0.00159839 0)
(-0.0235282 0.00142871 0)
(-0.0244009 0.0012122 0)
(-0.0251028 0.000945523 0)
(-0.0256064 0.000624953 0)
(-0.0258769 0.000249813 0)
(-0.0258862 -0.00017904 0)
(-0.0256031 -0.000656489 0)
(-0.0250056 -0.00117419 0)
(-0.0240735 -0.00171874 0)
(-0.0227998 -0.00227287 0)
(-0.0211842 -0.00281481 0)
(-0.0192431 -0.00332012 0)
(-0.0170029 -0.00376246 0)
(-0.0145084 -0.00411609 0)
(-0.0118145 -0.00435772 0)
(-0.0089926 -0.00446916 0)
(-0.00611883 -0.00443938 0)
(-0.0032803 -0.00426612 0)
(-0.000558431 -0.00395698 0)
(0.00196298 -0.0035286 0)
(0.00421835 -0.00300614 0)
(0.00614728 -0.00241962 0)
(0.00771794 -0.00180242 0)
(0.00890506 -0.00118583 0)
(0.00971654 -0.000598689 0)
(0.0101597 -6.17923e-05 0)
(0.0102742 0.000409245 0)
(0.0100854 0.000809025 0)
(0.00964936 0.00113541 0)
(0.00899176 0.00139541 0)
(0.00817231 0.00159359 0)
(0.00720512 0.0017418 0)
(0.00615043 0.00184069 0)
(0.00501001 0.0018972 0)
(0.0038554 0.00189193 0)
(0.00268944 0.00181146 0)
(0.00162477 0.00158812 0)
(0.000697362 0.0011766 0)
(0.000110706 0.000469287 0)
(-7.77413e-05 0.00036257 0)
(-0.000576609 0.0011254 0)
(-0.00143451 0.00171496 0)
(-0.00250798 0.00217308 0)
(-0.00376999 0.00246769 0)
(-0.00512638 0.00267746 0)
(-0.00657927 0.0028089 0)
(-0.00807453 0.00291765 0)
(-0.00963027 0.00300412 0)
(-0.011214 0.00309407 0)
(-0.0128449 0.00317733 0)
(-0.0144974 0.00326109 0)
(-0.0161832 0.00333168 0)
(-0.0178767 0.00338887 0)
(-0.0195803 0.00342041 0)
(-0.0212668 0.00342394 0)
(-0.0229309 0.00338957 0)
(-0.0245444 0.00331409 0)
(-0.0260955 0.00318892 0)
(-0.0275551 0.00300969 0)
(-0.0289057 0.00276801 0)
(-0.030116 0.00245838 0)
(-0.031163 0.00207293 0)
(-0.0320122 0.00160675 0)
(-0.0326358 0.00105488 0)
(-0.0329976 0.000416683 0)
(-0.0330678 -0.000305811 0)
(-0.0328124 -0.00110438 0)
(-0.0322058 -0.00196576 0)
(-0.0312227 -0.00286929 0)
(-0.0298501 -0.00378834 0)
(-0.028081 -0.0046895 0)
(-0.0259247 -0.00553502 0)
(-0.0234015 -0.00628376 0)
(-0.0205522 -0.00689489 0)
(-0.0174304 -0.0073304 0)
(-0.0141108 -0.00755941 0)
(-0.0106775 -0.00756125 0)
(-0.00723088 -0.00732862 0)
(-0.00386999 -0.00686949 0)
(-0.000699638 -0.00620689 0)
(0.00219245 -0.0053781 0)
(0.00472413 -0.00442995 0)
(0.00684507 -0.00341582 0)
(0.00851536 -0.00238781 0)
(0.00973414 -0.00139456 0)
(0.0105045 -0.000473435 0)
(0.0108675 0.000347413 0)
(0.0108523 0.00105508 0)
(0.0105229 0.00164408 0)
(0.00991178 0.00212202 0)
(0.00908876 0.00249595 0)
(0.00807427 0.00278134 0)
(0.00693925 0.00298094 0)
(0.00568935 0.00310141 0)
(0.00440831 0.00311781 0)
(0.00309921 0.003003 0)
(0.00189214 0.00266524 0)
(0.000822226 0.00201122 0)
(0.000135247 0.000863021 0)
(-0.000109154 0.000695105 0)
(-0.000768976 0.00192224 0)
(-0.00188274 0.00283046 0)
(-0.00324168 0.00350735 0)
(-0.00481799 0.00394785 0)
(-0.00649079 0.00425819 0)
(-0.00827066 0.00445924 0)
(-0.0100912 0.00462218 0)
(-0.0119768 0.00475226 0)
(-0.0138865 0.00488078 0)
(-0.0158418 0.00499602 0)
(-0.0178101 0.00510523 0)
(-0.0198029 0.00519107 0)
(-0.0217891 0.00525182 0)
(-0.0237711 0.00527206 0)
(-0.0257188 0.00524828 0)
(-0.0276281 0.00516854 0)
(-0.0294714 0.00502887 0)
(-0.0312407 0.00481909 0)
(-0.0329097 0.00453374 0)
(-0.0344669 0.00416246 0)
(-0.035885 0.00369788 0)
(-0.0371466 0.00312962 0)
(-0.0382208 0.00245055 0)
(-0.039083 0.00165345 0)
(-0.0396969 0.000736232 0)
(-0.0400309 -0.000299708 0)
(-0.0400446 -0.00144526 0)
(-0.0397026 -0.00268457 0)
(-0.0389653 -0.00399194 0)
(-0.037802 -0.00533314 0)
(-0.0361844 -0.00666398 0)
(-0.0341001 -0.00793289 0)
(-0.0315479 -0.00908187 0)
(-0.0285508 -0.0100511 0)
(-0.0251502 -0.0107821 0)
(-0.0214172 -0.0112247 0)
(-0.0174417 -0.0113408 0)
(-0.0133405 -0.0111112 0)
(-0.00923821 -0.0105383 0)
(-0.00527302 -0.00964809 0)
(-0.0015699 -0.00848941 0)
(0.00175144 -0.00712851 0)
(0.00460751 -0.00564387 0)
(0.0069323 -0.00411559 0)
(0.00870887 -0.00261966 0)
(0.00993337 -0.00121731 0)
(0.0106494 4.52461e-05 0)
(0.0108939 0.00114346 0)
(0.0107438 0.00206686 0)
(0.0102442 0.00282274 0)
(0.00947925 0.00342182 0)
(0.00847937 0.00388347 0)
(0.00732739 0.00421478 0)
(0.00603372 0.00442161 0)
(0.00469252 0.00447548 0)
(0.00330758 0.0043325 0)
(0.00202302 0.00387671 0)
(0.000876654 0.00295655 0)
(0.000142334 0.00131263 0)
(-0.000140758 0.00112697 0)
(-0.000961432 0.00292925 0)
(-0.0023265 0.004212 0)
(-0.0039629 0.00512987 0)
(-0.00584021 0.00572463 0)
(-0.00781076 0.00613666 0)
(-0.00989379 0.00640717 0)
(-0.0120106 0.00662229 0)
(-0.0141924 0.0067929 0)
(-0.0163895 0.00695417 0)
(-0.0186262 0.00709295 0)
(-0.0208625 0.00721584 0)
(-0.0231113 0.00730266 0)
(-0.0253373 0.00735083 0)
(-0.0275456 0.00734345 0)
(-0.0297065 0.00727744 0)
(-0.0318229 0.00714088 0)
(-0.0338726 0.00693087 0)
(-0.0358585 0.00663736 0)
(-0.0377642 0.00625495 0)
(-0.0395907 0.00577199 0)
(-0.0413219 0.00517913 0)
(-0.0429516 0.00446269 0)
(-0.0444571 0.00361146 0)
(-0.0458191 0.00261324 0)
(-0.0470014 0.0014606 0)
(-0.0479665 0.000149399 0)
(-0.0486604 -0.00131613 0)
(-0.0490266 -0.0029237 0)
(-0.0489957 -0.00464866 0)
(-0.0485003 -0.00645418 0)
(-0.0474707 -0.00828863 0)
(-0.0458508 -0.0100873 0)
(-0.0435975 -0.011773 0)
(-0.0406976 -0.0132612 0)
(-0.0371662 -0.0144642 0)
(-0.0330609 -0.0153007 0)
(-0.0284744 -0.0157023 0)
(-0.0235427 -0.0156242 0)
(-0.0184273 -0.0150513 0)
(-0.0133171 -0.0140035 0)
(-0.00839832 -0.0125366 0)
(-0.00385543 -0.0107374 0)
(0.000166811 -0.00871587 0)
(0.00355131 -0.00659053 0)
(0.00624596 -0.00447745 0)
(0.00822898 -0.00247431 0)
(0.00954333 -0.000655873 0)
(0.0102377 0.000934419 0)
(0.0104099 0.00227744 0)
(0.0101284 0.00337935 0)
(0.00950186 0.00425612 0)
(0.0085801 0.00493346 0)
(0.00746435 0.00542603 0)
(0.00617537 0.00574123 0)
(0.0048192 0.00584944 0)
(0.00340348 0.00569003 0)
(0.00208306 0.00512129 0)
(0.000900429 0.00392912 0)
(0.000144287 0.00176853 0)
(-0.000169575 0.00165615 0)
(-0.00114253 0.00414441 0)
(-0.00274655 0.00585957 0)
(-0.00464657 0.00704323 0)
(-0.00680849 0.0078016 0)
(-0.00905772 0.00831599 0)
(-0.0114215 0.00865412 0)
(-0.0138086 0.00891696 0)
(-0.0162571 0.00912233 0)
(-0.0187085 0.00930781 0)
(-0.0211909 0.00945954 0)
(-0.0236578 0.00958323 0)
(-0.0261259 0.00965758 0)
(-0.0285583 0.00968061 0)
(-0.0309674 0.00963682 0)
(-0.0333298 0.00952613 0)
(-0.0356617 0.00933985 0)
(-0.0379548 0.0090785 0)
(-0.040231 0.00873437 0)
(-0.0424926 0.00830313 0)
(-0.0447616 0.00777206 0)
(-0.0470404 0.00712859 0)
(-0.0493402 0.0063533 0)
(-0.0516501 0.00542674 0)
(-0.0539567 0.00432592 0)
(-0.0562198 0.00303035 0)
(-0.0583876 0.00152119 0)
(-0.060378 -0.000212472 0)
(-0.0620939 -0.00217217 0)
(-0.0634127 -0.00434352 0)
(-0.064205 -0.00669393 0)
(-0.0643331 -0.0091677 0)
(-0.0636728 -0.0116862 0)
(-0.0621178 -0.0141475 0)
(-0.0596006 -0.0164325 0)
(-0.056096 -0.0184107 0)
(-0.051638 -0.0199519 0)
(-0.0463161 -0.0209383 0)
(-0.0402858 -0.0212786 0)
(-0.0337517 -0.0209202 0)
(-0.0269694 -0.0198603 0)
(-0.020211 -0.0181509 0)
(-0.0137603 -0.0158965 0)
(-0.0078635 -0.0132447 0)
(-0.00273024 -0.0103681 0)
(0.00151531 -0.00744379 0)
(0.00480671 -0.00462928 0)
(0.0071721 -0.00204885 0)
(0.00867069 0.000219198 0)
(0.0094298 0.00213812 0)
(0.00955593 0.00370976 0)
(0.00919903 0.00495744 0)
(0.00844478 0.00591733 0)
(0.00742594 0.00661771 0)
(0.00618493 0.00707226 0)
(0.00484625 0.00725452 0)
(0.00342773 0.00708897 0)
(0.0020963 0.00640805 0)
(0.000901673 0.00493534 0)
(0.000141738 0.00223837 0)
(-0.000198252 0.00227744 0)
(-0.00131802 0.00555477 0)
(-0.00314837 0.00775276 0)
(-0.00529624 0.00922058 0)
(-0.00772344 0.0101456 0)
(-0.0102301 0.0107578 0)
(-0.0128511 0.0111567 0)
(-0.0154829 0.0114585 0)
(-0.0181706 0.0116888 0)
(-0.0208475 0.0118868 0)
(-0.0235462 0.0120389 0)
(-0.0262161 0.0121506 0)
(-0.0288805 0.0122022 0)
(-0.0315057 0.0121954 0)
(-0.0341179 0.0121203 0)
(-0.0367075 0.0119841 0)
(-0.0393135 0.0117854 0)
(-0.0419513 0.0115318 0)
(-0.0446727 0.0112202 0)
(-0.0475089 0.0108485 0)
(-0.0505124 0.0104024 0)
(-0.0537121 0.00986349 0)
(-0.0571418 0.00920179 0)
(-0.0608031 0.008382 0)
(-0.0646841 0.00735978 0)
(-0.0687293 0.00608819 0)
(-0.0728539 0.00451835 0)
(-0.076923 0.00260812 0)
(-0.0807697 0.000327392 0)
(-0.0841885 -0.00233126 0)
(-0.0869602 -0.00534615 0)
(-0.0888578 -0.00865861 0)
(-0.0896742 -0.0121717 0)
(-0.0892297 -0.01575 0)
(-0.087397 -0.0192271 0)
(-0.0841038 -0.0224138 0)
(-0.0793528 -0.0251132 0)
(-0.0732192 -0.0271356 0)
(-0.0658656 -0.0283187 0)
(-0.0575298 -0.0285457 0)
(-0.0485304 -0.0277641 0)
(-0.0392353 -0.0259983 0)
(-0.0300517 -0.0233552 0)
(-0.0213693 -0.0200177 0)
(-0.013544 -0.0162243 0)
(-0.00683086 -0.0122394 0)
(-0.00139319 -0.00831511 0)
(0.00274457 -0.0046618 0)
(0.00563429 -0.00142343 0)
(0.00743277 0.00132485 0)
(0.00829909 0.00357075 0)
(0.00844534 0.00534467 0)
(0.00801705 0.00669884 0)
(0.00719932 0.00768398 0)
(0.00607451 0.00832898 0)
(0.00479784 0.00861804 0)
(0.00340741 0.00846614 0)
(0.00208618 0.00768204 0)
(0.000895051 0.00593002 0)
(0.000138991 0.00269523 0)
(-0.000224296 0.00298612 0)
(-0.00147993 0.0071495 0)
(-0.00351956 0.0098781 0)
(-0.00589587 0.0116483 0)
(-0.0085669 0.0127438 0)
(-0.0113091 0.0134499 0)
(-0.0141643 0.013903 0)
(-0.0170175 0.0142351 0)
(-0.0199207 0.0144808 0)
(-0.0228001 0.0146808 0)
(-0.0256947 0.0148234 0)
(-0.028553 0.0149164 0)
(-0.0314096 0.0149458 0)
(-0.0342408 0.0149217 0)
(-0.0370949 0.014846 0)
(-0.0399866 0.0147384 0)
(-0.0429892 0.0146106 0)
(-0.0461542 0.0144807 0)
(-0.0495751 0.0143528 0)
(-0.0533228 0.0142268 0)
(-0.0574896 0.0140842 0)
(-0.0621359 0.013895 0)
(-0.0673176 0.0136089 0)
(-0.0730408 0.0131604 0)
(-0.0792775 0.0124655 0)
(-0.0859294 0.0114289 0)
(-0.092843 0.00994933 0)
(-0.0997915 0.00793364 0)
(-0.106502 0.00530932 0)
(-0.11266 0.00204151 0)
(-0.117945 -0.00185614 0)
(-0.122045 -0.00631259 0)
(-0.124685 -0.0111997 0)
(-0.125632 -0.0163354 0)
(-0.124716 -0.021494 0)
(-0.121827 -0.0264172 0)
(-0.11693 -0.0308301 0)
(-0.110068 -0.0344575 0)
(-0.101378 -0.0370461 0)
(-0.0910943 -0.0383871 0)
(-0.0795588 -0.0383432 0)
(-0.0672074 -0.0368728 0)
(-0.0545632 -0.0340493 0)
(-0.0421802 -0.030066 0)
(-0.0306112 -0.0252227 0)
(-0.0203169 -0.0198911 0)
(-0.0116408 -0.0144604 0)
(-0.00473538 -0.00928197 0)
(0.000392887 -0.00462013 0)
(0.00390771 -0.000631276 0)
(0.00602493 0.00263273 0)
(0.0070394 0.00520121 0)
(0.00718601 0.0071465 0)
(0.00673146 0.00855341 0)
(0.00582464 0.00947945 0)
(0.00467155 0.00993224 0)
(0.00334593 0.00982709 0)
(0.00205633 0.00895558 0)
(0.000881001 0.00692855 0)
(0.000135201 0.00315354 0)
(-0.000249476 0.00377769 0)
(-0.00163208 0.0089164 0)
(-0.0038644 0.0122175 0)
(-0.00644988 0.0143045 0)
(-0.00934303 0.0155712 0)
(-0.012299 0.0163654 0)
(-0.0153663 0.0168647 0)
(-0.0184198 0.0172177 0)
(-0.0215186 0.0174695 0)
(-0.0245836 0.0176631 0)
(-0.027663 0.0177918 0)
(-0.0307087 0.0178693 0)
(-0.0337732 0.0178939 0)
(-0.0368514 0.0178906 0)
(-0.0400252 0.017881 0)
(-0.0433455 0.0179047 0)
(-0.0469339 0.0179923 0)
(-0.0508907 0.0181761 0)
(-0.0553632 0.0184688 0)
(-0.0604711 0.0188696 0)
(-0.0663499 0.0193494 0)
(-0.0730877 0.019854 0)
(-0.0807477 0.0202944 0)
(-0.0893122 0.0205494 0)
(-0.098695 0.0204653 0)
(-0.108702 0.0198679 0)
(-0.119057 0.0185784 0)
(-0.129397 0.0164382 0)
(-0.139321 0.0133332 0)
(-0.148412 0.00921595 0)
(-0.156285 0.00411556 0)
(-0.162595 -0.00185998 0)
(-0.167059 -0.00853253 0)
(-0.169443 -0.0156642 0)
(-0.169575 -0.0229706 0)
(-0.167322 -0.0301314 0)
(-0.162609 -0.0368026 0)
(-0.155418 -0.0426288 0)
(-0.145811 -0.0472611 0)
(-0.133945 -0.0503804 0)
(-0.120106 -0.0517291 0)
(-0.104718 -0.0511475 0)
(-0.088352 -0.0486125 0)
(-0.071695 -0.0442662 0)
(-0.0555111 -0.0384253 0)
(-0.0405346 -0.0315572 0)
(-0.0273974 -0.0242185 0)
(-0.016504 -0.0169678 0)
(-0.00802596 -0.0102741 0)
(-0.00186188 -0.004453 0)
(0.00223686 0.000348384 0)
(0.00465712 0.00413121 0)
(0.00575357 0.00698405 0)
(0.00591063 0.00903779 0)
(0.00537922 0.0103967 0)
(0.00444471 0.011111 0)
(0.00323865 0.0111122 0)
(0.00200977 0.0101866 0)
(0.000863733 0.00790089 0)
(0.000132031 0.00359602 0)
(-0.000271662 0.00464258 0)
(-0.00176863 0.0108365 0)
(-0.00417488 0.0147478 0)
(-0.00694882 0.0171648 0)
(-0.0100422 0.0186041 0)
(-0.0131911 0.019482 0)
(-0.0164505 0.0200212 0)
(-0.0196864 0.0203882 0)
(-0.0229659 0.0206405 0)
(-0.0262075 0.0208253 0)
(-0.029472 0.0209458 0)
(-0.0327212 0.0210276 0)
(-0.0360336 0.0210896 0)
(-0.0394345 0.0211814 0)
(-0.0430515 0.0213537 0)
(-0.0469868 0.0216742 0)
(-0.0514234 0.0221982 0)
(-0.0565224 0.0229742 0)
(-0.0624922 0.0240211 0)
(-0.069502 0.0253288 0)
(-0.0777211 0.026842 0)
(-0.0872402 0.0284569 0)
(-0.0980865 0.0300109 0)
(-0.110156 0.0312858 0)
(-0.123229 0.0320165 0)
(-0.13694 0.0319187 0)
(-0.150839 0.0307247 0)
(-0.164413 0.0282265 0)
(-0.177169 0.0243069 0)
(-0.188661 0.0189556 0)
(-0.198533 0.0122629 0)
(-0.206503 0.00440402 0)
(-0.212364 -0.0043822 0)
(-0.215951 -0.0138096 0)
(-0.217131 -0.023557 0)
(-0.215777 -0.0332729 0)
(-0.211775 -0.0425784 0)
(-0.205017 -0.0510693 0)
(-0.195438 -0.0583229 0)
(-0.183037 -0.063914 0)
(-0.167932 -0.067444 0)
(-0.150397 -0.0685845 0)
(-0.130919 -0.067135 0)
(-0.110196 -0.0630843 0)
(-0.0891337 -0.0566609 0)
(-0.0687484 -0.0483503 0)
(-0.0500539 -0.0388545 0)
(-0.033871 -0.0289886 0)
(-0.0207206 -0.0195325 0)
(-0.0107157 -0.0110889 0)
(-0.00365932 -0.0040083 0)
(0.000905942 0.00161609 0)
(0.00347729 0.00586439 0)
(0.00459766 0.00892022 0)
(0.00466509 0.0109556 0)
(0.0040833 0.0120903 0)
(0.00307223 0.012296 0)
(0.00194274 0.0113727 0)
(0.000842205 0.00885711 0)
(0.000128946 0.00403529 0)
(-0.000292505 0.00557885 0)
(-0.00189328 0.012902 0)
(-0.00445574 0.0174573 0)
(-0.00739881 0.0202158 0)
(-0.010672 0.0218286 0)
(-0.0139947 0.0227864 0)
(-0.0174286 0.0233607 0)
(-0.0208329 0.0237376 0)
(-0.0242836 0.0239897 0)
(-0.0277008 0.0241722 0)
(-0.0311625 0.0243049 0)
(-0.0346484 0.0244337 0)
(-0.0382734 0.0246093 0)
(-0.0421059 0.0249172 0)
(-0.0463337 0.0254485 0)
(-0.0511236 0.0263059 0)
(-0.0567311 0.0275733 0)
(-0.063384 0.0293125 0)
(-0.0713486 0.0315381 0)
(-0.080827 0.034211 0)
(-0.0919856 0.0372163 0)
(-0.104858 0.0403545 0)
(-0.119349 0.0433334 0)
(-0.135169 0.045782 0)
(-0.151869 0.0472855 0)
(-0.168861 0.0474455 0)
(-0.185522 0.0459447 0)
(-0.201262 0.0425982 0)
(-0.215608 0.0373682 0)
(-0.228212 0.0303498 0)
(-0.23886 0.0217366 0)
(-0.247431 0.0117851 0)
(-0.253873 0.000785863 0)
(-0.258145 -0.0109539 0)
(-0.2602 -0.0231163 0)
(-0.259949 -0.0353688 0)
(-0.257255 -0.0473533 0)
(-0.251925 -0.058674 0)
(-0.243739 -0.0688871 0)
(-0.232478 -0.0775013 0)
(-0.217986 -0.0839921 0)
(-0.200241 -0.0878416 0)
(-0.179449 -0.0886016 0)
(-0.156105 -0.0859859 0)
(-0.131056 -0.0799706 0)
(-0.105466 -0.0708851 0)
(-0.0807166 -0.0594431 0)
(-0.0581795 -0.0466786 0)
(-0.0389731 -0.0337665 0)
(-0.0237038 -0.02177 0)
(-0.012434 -0.0114352 0)
(-0.00473394 -0.00309149 0)
(3.0976e-05 0.00326149 0)
(0.00260228 0.00784899 0)
(0.00358069 0.0109307 0)
(0.00353971 0.0127314 0)
(0.00282916 0.0132956 0)
(0.00185226 0.0124666 0)
(0.000818367 0.00977149 0)
(0.000127222 0.00445982 0)
(-0.000309985 0.00657162 0)
(-0.00200114 0.0150863 0)
(-0.00470103 0.0203149 0)
(-0.00779354 0.0234254 0)
(-0.0112266 0.0252135 0)
(-0.0147057 0.0262495 0)
(-0.018299 0.0268574 0)
(-0.0218611 0.0272448 0)
(-0.0254792 0.0275036 0)
(-0.0290794 0.0277024 0)
(-0.0327629 0.0278864 0)
(-0.0365374 0.0281336 0)
(-0.0405657 0.0285401 0)
(-0.0449734 0.0292406 0)
(-0.0500216 0.0303765 0)
(-0.055952 0.0320909 0)
(-0.0630959 0.0344932 0)
(-0.0717404 0.0376462 0)
(-0.0821858 0.0415351 0)
(-0.0946195 0.0460495 0)
(-0.109129 0.0509552 0)
(-0.125582 0.0558834 0)
(-0.143643 0.0603395 0)
(-0.162725 0.0637542 0)
(-0.182104 0.0655703 0)
(-0.201 0.0653447 0)
(-0.21873 0.0628226 0)
(-0.234772 0.0579565 0)
(-0.248816 0.0508765 0)
(-0.260732 0.0418334 0)
(-0.270538 0.0311412 0)
(-0.278337 0.0191296 0)
(-0.28427 0.00611504 0)
(-0.288457 -0.00761188 0)
(-0.290969 -0.0217832 0)
(-0.291788 -0.0361397 0)
(-0.290795 -0.0504071 0)
(-0.287753 -0.0642699 0)
(-0.282319 -0.077341 0)
(-0.274064 -0.0891423 0)
(-0.262527 -0.0990914 0)
(-0.247293 -0.106522 0)
(-0.228106 -0.110726 0)
(-0.205003 -0.11106 0)
(-0.178449 -0.107075 0)
(-0.14943 -0.0986908 0)
(-0.11945 -0.0863503 0)
(-0.0903686 -0.0710821 0)
(-0.0640819 -0.0543943 0)
(-0.0420673 -0.037958 0)
(-0.0250571 -0.0231996 0)
(-0.0129273 -0.0109645 0)
(-0.0049995 -0.00150794 0)
(-0.000313072 0.00537861 0)
(0.00200187 0.0100514 0)
(0.0027569 0.0128835 0)
(0.00248835 0.0140378 0)
(0.00173402 0.0134428 0)
(0.00079285 0.0106457 0)
(0.000127274 0.00488075 0)
(-0.000325886 0.00762296 0)
(-0.00209612 0.0173885 0)
(-0.00491583 0.023318 0)
(-0.00813965 0.0267914 0)
(-0.0117145 0.028758 0)
(-0.0153345 0.0298732 0)
(-0.0190748 0.0305169 0)
(-0.0227884 0.0309218 0)
(-0.0265754 0.031204 0)
(-0.0303741 0.0314537 0)
(-0.0343161 0.0317532 0)
(-0.0384477 0.0322267 0)
(-0.042992 0.0330315 0)
(-0.0481443 0.0343636 0)
(-0.0542478 0.0364222 0)
(-0.0616211 0.0393879 0)
(-0.0706606 0.0433815 0)
(-0.0816838 0.0484362 0)
(-0.0949694 0.0544581 0)
(-0.110602 0.0611918 0)
(-0.128469 0.068193 0)
(-0.148138 0.0748339 0)
(-0.168917 0.0803656 0)
(-0.189892 0.0840403 0)
(-0.21013 0.0852608 0)
(-0.228809 0.0836902 0)
(-0.245368 0.0792809 0)
(-0.259513 0.0722262 0)
(-0.271215 0.0628767 0)
(-0.28063 0.0516515 0)
(-0.28804 0.0389691 0)
(-0.293767 0.0252014 0)
(-0.298134 0.0106542 0)
(-0.301405 -0.00443655 0)
(-0.303765 -0.0198898 0)
(-0.305285 -0.0355597 0)
(-0.305912 -0.0513026 0)
(-0.305436 -0.0669442 0)
(-0.303493 -0.082234 0)
(-0.299548 -0.0968072 0)
(-0.292924 -0.110139 0)
(-0.28285 -0.121531 0)
(-0.268566 -0.130107 0)
(-0.249471 -0.134891 0)
(-0.225334 -0.134926 0)
(-0.19651 -0.1295 0)
(-0.164116 -0.118408 0)
(-0.13007 -0.102227 0)
(-0.0968816 -0.082425 0)
(-0.0671299 -0.0611867 0)
(-0.0427757 -0.040877 0)
(-0.0245938 -0.0233147 0)
(-0.0122001 -0.00940133 0)
(-0.00448558 0.000868459 0)
(-0.00024697 0.00791575 0)
(0.00165461 0.0123099 0)
(0.00202064 0.0143925 0)
(0.00158275 0.0142379 0)
(0.000768014 0.0114548 0)
(0.000130764 0.00529301 0)
(-0.000337977 0.00871203 0)
(-0.00217306 0.0197737 0)
(-0.00509396 0.0264271 0)
(-0.00843052 0.0302732 0)
(-0.0121295 0.032423 0)
(-0.015876 0.0336212 0)
(-0.0197526 0.0343075 0)
(-0.0236135 0.034744 0)
(-0.0275752 0.0350778 0)
(-0.0315942 0.0354308 0)
(-0.0358411 0.035937 0)
(-0.0404118 0.0367835 0)
(-0.0456011 0.038204 0)
(-0.0516828 0.0404659 0)
(-0.0590825 0.0438255 0)
(-0.0681837 0.0484858 0)
(-0.0794153 0.054546 0)
(-0.0930654 0.0619527 0)
(-0.109297 0.0704481 0)
(-0.127966 0.0795256 0)
(-0.148617 0.0884248 0)
(-0.170413 0.0961984 0)
(-0.192292 0.101874 0)
(-0.213116 0.104658 0)
(-0.231939 0.104104 0)
(-0.248115 0.100155 0)
(-0.261385 0.0930883 0)
(-0.271798 0.0833877 0)
(-0.279659 0.0716206 0)
(-0.285399 0.0583373 0)
(-0.28951 0.0440095 0)
(-0.292462 0.0290006 0)
(-0.294673 0.0135646 0)
(-0.296474 -0.00214319 0)
(-0.298113 -0.0180424 0)
(-0.299728 -0.0341061 0)
(-0.301352 -0.0503277 0)
(-0.30288 -0.0666937 0)
(-0.304049 -0.0831338 0)
(-0.304397 -0.0994787 0)
(-0.303241 -0.115386 0)
(-0.299669 -0.130292 0)
(-0.292581 -0.143345 0)
(-0.280804 -0.153414 0)
(-0.263292 -0.159141 0)
(-0.239418 -0.159135 0)
(-0.209321 -0.152275 0)
(-0.174223 -0.138154 0)
(-0.136537 -0.11751 0)
(-0.0996076 -0.092443 0)
(-0.066909 -0.0661198 0)
(-0.0409315 -0.0417861 0)
(-0.0223905 -0.0216971 0)
(-0.0103964 -0.00654357 0)
(-0.00341694 0.00399352 0)
(0.000117523 0.0107122 0)
(0.00138267 0.0142099 0)
(0.00138838 0.0147931 0)
(0.000744537 0.0121913 0)
(0.000138851 0.00570913 0)
(-0.000348288 0.00984585 0)
(-0.00223609 0.0222492 0)
(-0.00524021 0.02965 0)
(-0.00867195 0.0338809 0)
(-0.0124783 0.0362215 0)
(-0.0163382 0.0375105 0)
(-0.0203421 0.0382521 0)
(-0.024349 0.0387431 0)
(-0.0284949 0.0391708 0)
(-0.032762 0.0397017 0)
(-0.0373674 0.0405383 0)
(-0.0424673 0.0419477 0)
(-0.0484349 0.0442534 0)
(-0.0556232 0.0477958 0)
(-0.0645278 0.0528744 0)
(-0.075565 0.0596796 0)
(-0.0891372 0.0682272 0)
(-0.105412 0.0782861 0)
(-0.124313 0.0893175 0)
(-0.145331 0.100445 0)
(-0.167575 0.110525 0)
(-0.189807 0.118326 0)
(-0.210733 0.122811 0)
(-0.229228 0.12337 0)
(-0.244585 0.119914 0)
(-0.256538 0.1128 0)
(-0.265242 0.102669 0)
(-0.271123 0.0902699 0)
(-0.274772 0.0763158 0)
(-0.2768 0.0614024 0)
(-0.277785 0.0459747 0)
(-0.278207 0.030326 0)
(-0.278453 0.0146241 0)
(-0.278811 -0.00106507 0)
(-0.279499 -0.0167456 0)
(-0.280668 -0.0324765 0)
(-0.282415 -0.0483462 0)
(-0.284763 -0.0644631 0)
(-0.287637 -0.0809168 0)
(-0.290803 -0.0977499 0)
(-0.293811 -0.114877 0)
(-0.295917 -0.132015 0)
(-0.296044 -0.148564 0)
(-0.292784 -0.163531 0)
(-0.284515 -0.175464 0)
(-0.26965 -0.182536 0)
(-0.247029 -0.182753 0)
(-0.216461 -0.174436 0)
(-0.179215 -0.156871 0)
(-0.138308 -0.131034 0)
(-0.0981301 -0.0999662 0)
(-0.0632595 -0.0681842 0)
(-0.0366824 -0.0400832 0)
(-0.0187464 -0.0180721 0)
(-0.00788907 -0.00248019 0)
(-0.00203652 0.00765136 0)
(0.000500934 0.0132602 0)
(0.00112934 0.0150058 0)
(0.000720514 0.0128237 0)
(0.00015293 0.00613037 0)
(-0.000354086 0.0109963 0)
(-0.00227874 0.0247696 0)
(-0.00534646 0.0329358 0)
(-0.00885455 0.0375627 0)
(-0.012751 0.0401032 0)
(-0.0167107 0.0414941 0)
(-0.0208327 0.0423091 0)
(-0.0249842 0.0428862 0)
(-0.0293244 0.0434639 0)
(-0.033868 0.0442683 0)
(-0.0388862 0.0455881 0)
(-0.0446028 0.0477863 0)
(-0.0514702 0.0512825 0)
(-0.0599107 0.0564802 0)
(-0.0704599 0.0636891 0)
(-0.0835126 0.0730262 0)
(-0.0993593 0.0843318 0)
(-0.117933 0.0970751 0)
(-0.138796 0.11031 0)
(-0.160993 0.122711 0)
(-0.183216 0.132783 0)
(-0.203985 0.139187 0)
(-0.222039 0.141081 0)
(-0.236544 0.138281 0)
(-0.24725 0.131207 0)
(-0.254375 0.120662 0)
(-0.258498 0.107603 0)
(-0.260338 0.0929308 0)
(-0.26064 0.0773829 0)
(-0.260037 0.061486 0)
(-0.259035 0.045572 0)
(-0.257983 0.0298138 0)
(-0.257123 0.0142763 0)
(-0.256605 -0.00104986 0)
(-0.256551 -0.0162157 0)
(-0.25706 -0.03131 0)
(-0.258248 -0.0464456 0)
(-0.260227 -0.0617737 0)
(-0.263104 -0.0774644 0)
(-0.266915 -0.0937091 0)
(-0.271567 -0.110653 0)
(-0.276719 -0.128346 0)
(-0.281675 -0.146584 0)
(-0.285275 -0.164794 0)
(-0.285856 -0.181829 0)
(-0.281344 -0.195904 0)
(-0.269529 -0.204588 0)
(-0.248618 -0.20514 0)
(-0.217952 -0.195123 0)
(-0.178854 -0.173443 0)
(-0.135051 -0.141492 0)
(-0.0922762 -0.103684 0)
(-0.0563384 -0.0664786 0)
(-0.0304799 -0.0353323 0)
(-0.0142097 -0.0125579 0)
(-0.00508419 0.00252441 0)
(-0.000743819 0.011235 0)
(0.000764475 0.0147467 0)
(0.000687041 0.0133216 0)
(0.000173215 0.0065686 0)
(-0.000357792 0.0121759 0)
(-0.00230554 0.027351 0)
(-0.00541704 0.0363036 0)
(-0.0089827 0.041341 0)
(-0.0129514 0.0440947 0)
(-0.0169974 0.0456034 0)
(-0.0212283 0.0465165 0)
(-0.0255232 0.0472216 0)
(-0.0300679 0.0480211 0)
(-0.0349162 0.0492174 0)
(-0.0403977 0.0512032 0)
(-0.0468059 0.0544481 0)
(-0.0546633 0.0594636 0)
(-0.0644368 0.0666879 0)
(-0.0766544 0.0763834 0)
(-0.0916161 0.0885029 0)
(-0.109402 0.102591 0)
(-0.129608 0.117688 0)
(-0.151363 0.132352 0)
(-0.173292 0.144832 0)
(-0.193833 0.153456 0)
(-0.211533 0.157055 0)
(-0.225454 0.155262 0)
(-0.235275 0.148494 0)
(-0.241294 0.137712 0)
(-0.244194 0.124094 0)
(-0.244859 0.108764 0)
(-0.244135 0.0926168 0)
(-0.242734 0.0762681 0)
(-0.241146 0.0600706 0)
(-0.239673 0.0441842 0)
(-0.238449 0.0286431 0)
(-0.237517 0.0134234 0)
(-0.236867 -0.00152612 0)
(-0.236502 -0.0162568 0)
(-0.236452 -0.0308324 0)
(-0.23681 -0.0453258 0)
(-0.237724 -0.059855 0)
(-0.239406 -0.0745784 0)
(-0.242089 -0.089732 0)
(-0.245987 -0.105587 0)
(-0.25119 -0.122442 0)
(-0.257539 -0.140486 0)
(-0.264453 -0.15968 0)
(-0.270757 -0.179476 0)
(-0.274587 -0.198628 0)
(-0.273417 -0.214928 0)
(-0.264406 -0.225263 0)
(-0.245021 -0.225918 0)
(-0.214127 -0.213543 0)
(-0.173096 -0.186653 0)
(-0.126669 -0.147381 0)
(-0.0821791 -0.102333 0)
(-0.046729 -0.0603016 0)
(-0.02311 -0.0276871 0)
(-0.00942501 -0.00552766 0)
(-0.00253618 0.00767708 0)
(0.000223132 0.0138102 0)
(0.000625375 0.0136172 0)
(0.000198504 0.00702214 0)
(-0.000355949 0.0133473 0)
(-0.00230809 0.0299338 0)
(-0.005441 0.0396867 0)
(-0.0090431 0.045148 0)
(-0.0130647 0.0481291 0)
(-0.0171812 0.0497746 0)
(-0.0215092 0.0508156 0)
(-0.0259428 0.0516989 0)
(-0.0306972 0.0528047 0)
(-0.0358694 0.0545282 0)
(-0.0418493 0.0573802 0)
(-0.0489948 0.061939 0)
(-0.0578796 0.0687884 0)
(-0.0689771 0.0783528 0)
(-0.0827461 0.090766 0)
(-0.0993101 0.105706 0)
(-0.118452 0.122295 0)
(-0.139368 0.139048 0)
(-0.160783 0.154031 0)
(-0.181046 0.165218 0)
(-0.198597 0.171038 0)
(-0.212297 0.170802 0)
(-0.221746 0.164819 0)
(-0.22722 0.154154 0)
(-0.22952 0.140222 0)
(-0.229645 0.124398 0)
(-0.228585 0.10778 0)
(-0.227108 0.0910834 0)
(-0.225722 0.0746852 0)
(-0.224661 0.0587048 0)
(-0.223968 0.0431228 0)
(-0.223554 0.0278611 0)
(-0.223292 0.0128496 0)
(-0.223049 -0.00195966 0)
(-0.222743 -0.0165767 0)
(-0.222349 -0.0310036 0)
(-0.221927 -0.0452353 0)
(-0.221617 -0.059312 0)
(-0.221656 -0.0733169 0)
(-0.222361 -0.0874425 0)
(-0.224116 -0.101965 0)
(-0.227307 -0.117295 0)
(-0.232227 -0.13387 0)
(-0.238913 -0.152109 0)
(-0.246913 -0.172112 0)
(-0.255074 -0.193443 0)
(-0.261321 -0.214665 0)
(-0.262718 -0.233123 0)
(-0.25573 -0.244799 0)
(-0.237148 -0.24484 0)
(-0.205333 -0.228824 0)
(-0.162019 -0.195016 0)
(-0.113251 -0.147084 0)
(-0.0684422 -0.0947512 0)
(-0.0354705 -0.0497149 0)
(-0.0155679 -0.017659 0)
(-0.00513327 0.00195639 0)
(-0.000598917 0.0119072 0)