/*--------------------------------*- C++ -*----------------------------------*\
| =========                 |                                                 |
| \\      /  F ield         | OpenFOAM: The Open Source CFD Toolbox           |
|  \\    /   O peration     | Version:  2406                                  |
|   \\  /    A nd           | Website:  www.openfoam.com                      |
|    \\/     M anipulation  |                                                 |
\*---------------------------------------------------------------------------*/
FoamFile
{
    version     2.0;
    format      ascii;
    arch        "LSB;label=32;scalar=64";
    class       volVectorField;
    location    "36.3";
    object      U_0;
}
// * * * * * * * * * * * * * * * * * * * * * * * * * * * * * * * * * * * * * //

dimensions      [0 1 -1 0 0 0 0];

internalField   nonuniform List<vector> 
14400
(
(-6.63075e-06 6.53802e-06 0)
(1.36777e-05 -1.06059e-05 0)
(0.000115372 -3.28274e-05 0)
(0.00029423 -5.08426e-05 0)
(0.000531503 -6.32736e-05 0)
(0.000805893 -6.99394e-05 0)
(0.00109615 -7.14171e-05 0)
(0.00138353 -6.85692e-05 0)
(0.00165283 -6.24454e-05 0)
(0.00189302 -5.416e-05 0)
(0.00209732 -4.48005e-05 0)
(0.00226302 -3.53397e-05 0)
(0.00239093 -2.65685e-05 0)
(0.00248455 -1.9055e-05 0)
(0.00254927 -1.31249e-05 0)
(0.00259136 -8.86445e-06 0)
(0.00261722 -6.20255e-06 0)
(0.00263243 -4.98333e-06 0)
(0.00264117 -4.79983e-06 0)
(0.00264602 -5.16639e-06 0)
(0.00264751 -5.50508e-06 0)
(0.00264467 -5.07411e-06 0)
(0.00263492 -3.74799e-06 0)
(0.00261397 -1.34582e-06 0)
(0.00257671 2.31115e-06 0)
(0.00251749 7.31091e-06 0)
(0.00243035 1.36836e-05 0)
(0.00230923 2.14337e-05 0)
(0.00214801 3.05645e-05 0)
(0.00194055 4.10941e-05 0)
(0.00168061 5.30601e-05 0)
(0.00136182 6.65141e-05 0)
(0.000977666 8.15095e-05 0)
(0.000521515 9.8087e-05 0)
(-1.32528e-05 0.000116261 0)
(-0.000633112 0.000136009 0)
(-0.0013442 0.000157262 0)
(-0.00215208 0.000179903 0)
(-0.00306154 0.000203761 0)
(-0.00407632 0.000228608 0)
(-0.00519888 0.000254166 0)
(-0.00643014 0.000280101 0)
(-0.0077693 0.000306028 0)
(-0.00921359 0.000331519 0)
(-0.0107582 0.000356105 0)
(-0.0123959 0.000379286 0)
(-0.0141174 0.000400539 0)
(-0.015911 0.000419323 0)
(-0.0177625 0.000435092 0)
(-0.0196558 0.000447301 0)
(-0.0215723 0.000455412 0)
(-0.0234916 0.000458905 0)
(-0.0253918 0.000457281 0)
(-0.0272489 0.000450072 0)
(-0.0290383 0.000436846 0)
(-0.0307338 0.000417218 0)
(-0.032309 0.000390856 0)
(-0.0337369 0.000357496 0)
(-0.0349908 0.00031696 0)
(-0.0360444 0.00026909 0)
(-0.0368727 0.000213945 0)
(-0.0374526 0.00015286 0)
(-0.0377607 8.71813e-05 0)
(-0.0377756 1.49012e-05 0)
(-0.0374828 -6.47139e-05 0)
(-0.0368716 -0.000148571 0)
(-0.0359324 -0.000235005 0)
(-0.0346622 -0.000322756 0)
(-0.0330636 -0.000410173 0)
(-0.0311455 -0.000495404 0)
(-0.0289232 -0.000576429 0)
(-0.026419 -0.000651125 0)
(-0.0236621 -0.000717344 0)
(-0.0206883 -0.000773007 0)
(-0.0175398 -0.000816205 0)
(-0.0142642 -0.000845309 0)
(-0.010914 -0.000859066 0)
(-0.00754435 -0.000856704 0)
(-0.00421252 -0.000837997 0)
(-0.000975463 -0.000803322 0)
(0.00211176 -0.000753665 0)
(0.00499792 -0.000690601 0)
(0.00763737 -0.000616228 0)
(0.00999169 -0.00053306 0)
(0.0120309 -0.0004439 0)
(0.0137345 -0.000351679 0)
(0.0150917 -0.000259298 0)
(0.0161019 -0.000169461 0)
(0.0167736 -8.44846e-05 0)
(0.0171248 -6.49262e-06 0)
(0.0171803 6.15872e-05 0)
(0.016968 0.000118372 0)
(0.016523 0.000166385 0)
(0.0158853 0.00020561 0)
(0.0150923 0.000234858 0)
(0.014181 0.000254623 0)
(0.0131871 0.000265932 0)
(0.0121434 0.000269873 0)
(0.011079 0.000267598 0)
(0.0100187 0.000260277 0)
(0.00898321 0.00024904 0)
(0.00798859 0.000234937 0)
(0.00704692 0.000218914 0)
(0.00616646 0.000201795 0)
(0.00535214 0.000184277 0)
(0.00460601 0.000166935 0)
(0.00392775 0.00015023 0)
(0.00331514 0.000134513 0)
(0.00276451 0.000120035 0)
(0.00227122 0.000106934 0)
(0.00183018 9.5224e-05 0)
(0.00143644 8.4752e-05 0)
(0.00108597 7.51632e-05 0)
(0.000776487 6.58615e-05 0)
(0.000508397 5.59981e-05 0)
(0.000285518 4.45628e-05 0)
(0.000115248 3.06457e-05 0)
(7.0734e-06 1.39621e-05 0)
(-3.37132e-05 -3.4281e-06 0)
(-1.35404e-05 -1.35633e-05 0)
(9.5654e-06 -1.28824e-05 0)
(0.000143792 -0.000147788 0)
(0.000450291 -0.000312383 0)
(0.000923042 -0.000449908 0)
(0.00151918 -0.000546667 0)
(0.00219527 -0.000599724 0)
(0.0029052 -0.000611818 0)
(0.00360689 -0.000588858 0)
(0.00426523 -0.000538582 0)
(0.00485378 -0.000469534 0)
(0.0053553 -0.000390232 0)
(0.0057615 -0.000308448 0)
(0.00607197 -0.000230628 0)
(0.00629259 -0.000161524 0)
(0.00643358 -0.000104008 0)
(0.00650742 -5.90891e-05 0)
(0.00652686 -2.6113e-05 0)
(0.00650315 -3.10007e-06 0)
(0.00644461 1.31184e-05 0)
(0.00635564 2.63498e-05 0)
(0.00623633 4.06003e-05 0)
(0.00608209 5.97994e-05 0)
(0.0058843 8.69441e-05 0)
(0.00563129 0.000124405 0)
(0.00530882 0.000173821 0)
(0.00490104 0.00023615 0)
(0.00439116 0.000311843 0)
(0.00376199 0.000401061 0)
(0.00299623 0.000503862 0)
(0.00207656 0.00062032 0)
(0.000985794 0.000750557 0)
(-0.000293112 0.000894698 0)
(-0.00177682 0.00105278 0)
(-0.00348133 0.00122462 0)
(-0.00542153 0.00140972 0)
(-0.00761066 0.00160718 0)
(-0.0100597 0.00181562 0)
(-0.0127768 0.00203317 0)
(-0.0157663 0.00225741 0)
(-0.0190287 0.00248543 0)
(-0.0225595 0.00271382 0)
(-0.026349 0.00293872 0)
(-0.0303821 0.00315591 0)
(-0.0346376 0.00336084 0)
(-0.0390888 0.00354881 0)
(-0.0437032 0.00371501 0)
(-0.0484429 0.00385465 0)
(-0.053265 0.0039631 0)
(-0.0581223 0.00403595 0)
(-0.0629639 0.00406915 0)
(-0.0677362 0.00405909 0)
(-0.0723833 0.00400264 0)
(-0.0768482 0.00389725 0)
(-0.0810737 0.00374097 0)
(-0.0850028 0.00353247 0)
(-0.0885802 0.00327113 0)
(-0.0917521 0.00295698 0)
(-0.094468 0.00259082 0)
(-0.0966805 0.0021742 0)
(-0.0983465 0.00170947 0)
(-0.0994267 0.00119981 0)
(-0.099888 0.000650204 0)
(-0.0997048 6.72563e-05 0)
(-0.098856 -0.000545283 0)
(-0.097325 -0.00118203 0)
(-0.0951072 -0.00183336 0)
(-0.092205 -0.00248997 0)
(-0.0886299 -0.00314163 0)
(-0.084402 -0.00377736 0)
(-0.0795517 -0.00438547 0)
(-0.0741188 -0.00495382 0)
(-0.0681536 -0.00547009 0)
(-0.0617162 -0.00592216 0)
(-0.0548763 -0.00629848 0)
(-0.0477124 -0.00658857 0)
(-0.0403111 -0.00678346 0)
(-0.0327657 -0.0068762 0)
(-0.0251743 -0.00686227 0)
(-0.0176382 -0.00674001 0)
(-0.0102595 -0.00651083 0)
(-0.0031387 -0.00617943 0)
(0.00362776 -0.00575373 0)
(0.00995028 -0.00524472 0)
(0.0157485 -0.0046661 0)
(0.0209537 -0.00403375 0)
(0.0255108 -0.00336514 0)
(0.0293798 -0.00267852 0)
(0.0325373 -0.00199219 0)
(0.0349764 -0.00132369 0)
(0.0367066 -0.000689217 0)
(0.0377533 -0.000103611 0)
(0.038158 0.000421711 0)
(0.037975 0.00088158 0)
(0.0372663 0.00127059 0)
(0.036102 0.00158515 0)
(0.0345579 0.00182585 0)
(0.0327112 0.00199608 0)
(0.0306376 0.00210123 0)
(0.0284089 0.00214827 0)
(0.0260913 0.0021452 0)
(0.0237434 0.00210049 0)
(0.0214155 0.00202267 0)
(0.0191489 0.00191995 0)
(0.0169757 0.0017999 0)
(0.0149197 0.00166925 0)
(0.0129968 0.00153385 0)
(0.0112159 0.00139856 0)
(0.00957991 0.0012673 0)
(0.00808702 0.00114296 0)
(0.00673187 0.0010274 0)
(0.00550694 0.000921256 0)
(0.00440409 0.000823737 0)
(0.00341638 0.000732383 0)
(0.00253995 0.000642918 0)
(0.00177589 0.000549378 0)
(0.00113144 0.000444956 0)
(0.000619921 0.000324086 0)
(0.000256547 0.000186998 0)
(5.36638e-05 4.80069e-05 0)
(-2.28261e-06 -3.26897e-05 0)
(3.02198e-05 -0.00010926 0)
(0.000299473 -0.000450543 0)
(0.000797431 -0.000813163 0)
(0.00151288 -0.00111446 0)
(0.00238201 -0.00132695 0)
(0.00334965 -0.00144285 0)
(0.00435547 -0.00146652 0)
(0.0053436 -0.00140989 0)
(0.0062667 -0.00128951 0)
(0.00708837 -0.00112413 0)
(0.00778396 -0.00093275 0)
(0.00834041 -0.000732897 0)
(0.00875493 -0.00053927 0)
(0.00903299 -0.000362844 0)
(0.00918583 -0.000210389 0)
(0.00922769 -8.44156e-05 0)
(0.00917312 1.65353e-05 0)
(0.00903464 9.7229e-05 0)
(0.00882074 0.000164918 0)
(0.00853441 0.000228382 0)
(0.00817255 0.000296856 0)
(0.00772582 0.000379022 0)
(0.00717923 0.00048258 0)
(0.00651319 0.000613494 0)
(0.00570456 0.000775907 0)
(0.00472786 0.000972332 0)
(0.00355629 0.00120403 0)
(0.00216252 0.00147142 0)
(0.000519267 0.00177453 0)
(-0.00140031 0.00211313 0)
(-0.0036222 0.00248685 0)
(-0.00617112 0.00289502 0)
(-0.00906987 0.00333644 0)
(-0.0123386 0.00380912 0)
(-0.0159941 0.00431005 0)
(-0.0200482 0.00483501 0)
(-0.0245075 0.00537847 0)
(-0.0293718 0.00593359 0)
(-0.0346335 0.00649223 0)
(-0.0402767 0.00704508 0)
(-0.0462769 0.00758184 0)
(-0.0526005 0.00809146 0)
(-0.0592053 0.00856241 0)
(-0.0660405 0.00898299 0)
(-0.0730479 0.00934171 0)
(-0.0801626 0.00962758 0)
(-0.0873145 0.00983045 0)
(-0.0944296 0.00994128 0)
(-0.101431 0.00995237 0)
(-0.108243 0.00985751 0)
(-0.114787 0.00965212 0)
(-0.120989 0.00933324 0)
(-0.126777 0.00889955 0)
(-0.132084 0.00835134 0)
(-0.136846 0.00769037 0)
(-0.141006 0.00691986 0)
(-0.144512 0.00604434 0)
(-0.147317 0.00506965 0)
(-0.149383 0.00400283 0)
(-0.150675 0.00285221 0)
(-0.151168 0.00162729 0)
(-0.150839 0.000338206 0)
(-0.149676 -0.00100331 0)
(-0.147676 -0.00238193 0)
(-0.144835 -0.00378371 0)
(-0.141163 -0.00519338 0)
(-0.136675 -0.00659362 0)
(-0.131394 -0.00796556 0)
(-0.125353 -0.0092893 0)
(-0.118591 -0.010544 0)
(-0.111159 -0.0117083 0)
(-0.103114 -0.0127607 0)
(-0.0945239 -0.0136801 0)
(-0.0854643 -0.0144461 0)
(-0.07602 -0.0150405 0)
(-0.0662834 -0.0154472 0)
(-0.0563539 -0.0156533 0)
(-0.0463365 -0.01565 0)
(-0.0363404 -0.015433 0)
(-0.0264774 -0.0150034 0)
(-0.0168592 -0.0143674 0)
(-0.00759566 -0.0135371 0)
(0.00120773 -0.0125301 0)
(0.00945239 -0.0113689 0)
(0.017049 -0.0100807 0)
(0.0239199 -0.00869618 0)
(0.0300007 -0.00724863 0)
(0.0352428 -0.00577264 0)
(0.0396137 -0.00430289 0)
(0.0430989 -0.00287276 0)
(0.0457018 -0.00151265 0)
(0.0474449 -0.000249338 0)
(0.0483669 0.000893902 0)
(0.0485202 0.00189848 0)
(0.0479731 0.00275348 0)
(0.0468057 0.00345317 0)
(0.0451057 0.00399733 0)
(0.0429654 0.00439106 0)
(0.0404791 0.00464406 0)
(0.0377389 0.00476973 0)
(0.034832 0.00478408 0)
(0.0318382 0.0047047 0)
(0.0288277 0.00454971 0)
(0.02586 0.00433691 0)
(0.0229831 0.00408304 0)
(0.020234 0.00380324 0)
(0.0176389 0.00351076 0)
(0.0152145 0.00321663 0)
(0.012969 0.00292953 0)
(0.0109042 0.00265547 0)
(0.0090174 0.00239747 0)
(0.00730317 0.00215509 0)
(0.00575634 0.00192406 0)
(0.00437421 0.00169612 0)
(0.00315902 0.00145955 0)
(0.00211939 0.00120118 0)
(0.00127026 0.000910591 0)
(0.000627065 0.000588326 0)
(0.000213986 0.000259099 0)
(1.81266e-05 1.65184e-05 0)
(4.67249e-05 -0.000277733 0)
(0.00043056 -0.000913665 0)
(0.0010913 -0.00152716 0)
(0.00200562 -0.00202666 0)
(0.00308643 -0.00237457 0)
(0.00426824 -0.00255925 0)
(0.00548049 -0.00258746 0)
(0.00665834 -0.00247847 0)
(0.00774689 -0.00225945 0)
(0.00870363 -0.00196157 0)
(0.00949928 -0.00161657 0)
(0.0101174 -0.00125384 0)
(0.0105532 -0.000898125 0)
(0.0108105 -0.00056795 0)
(0.0108998 -0.00027475 0)
(0.0108343 -2.27162e-05 0)
(0.0106274 0.000190757 0)
(0.0102895 0.00037405 0)
(0.00982606 0.000539844 0)
(0.00923576 0.000703479 0)
(0.00850989 0.000881175 0)
(0.00763236 0.00108836 0)
(0.00658041 0.00133842 0)
(0.00532585 0.00164183 0)
(0.00383648 0.00200593 0)
(0.00207761 0.00243513 0)
(1.3357e-05 0.00293154 0)
(-0.00239224 0.00349561 0)
(-0.00517432 0.0041267 0)
(-0.00836633 0.00482337 0)
(-0.0119992 0.00558337 0)
(-0.0161001 0.00640335 0)
(-0.0206918 0.00727852 0)
(-0.0257907 0.00820214 0)
(-0.0314057 0.00916528 0)
(-0.0375368 0.0101565 0)
(-0.044174 0.0111621 0)
(-0.0512959 0.0121658 0)
(-0.0588696 0.0131494 0)
(-0.0668502 0.0140934 0)
(-0.075181 0.0149768 0)
(-0.0837951 0.0157788 0)
(-0.092616 0.0164786 0)
(-0.10156 0.0170564 0)
(-0.110537 0.0174946 0)
(-0.119457 0.0177773 0)
(-0.128225 0.0178918 0)
(-0.13675 0.0178282 0)
(-0.144945 0.0175798 0)
(-0.152726 0.017143 0)
(-0.160017 0.0165171 0)
(-0.166747 0.0157044 0)
(-0.172855 0.0147094 0)
(-0.178286 0.0135387 0)
(-0.182992 0.0122009 0)
(-0.186935 0.0107058 0)
(-0.190079 0.00906488 0)
(-0.1924 0.00729052 0)
(-0.193875 0.00539624 0)
(-0.19449 0.00339665 0)
(-0.194234 0.00130749 0)
(-0.193101 -0.000854968 0)
(-0.191091 -0.0030738 0)
(-0.188206 -0.00532848 0)
(-0.184457 -0.00759747 0)
(-0.179857 -0.00985852 0)
(-0.174423 -0.0120877 0)
(-0.168181 -0.0142591 0)
(-0.161162 -0.0163455 0)
(-0.153403 -0.0183182 0)
(-0.144948 -0.0201476 0)
(-0.135851 -0.0218036 0)
(-0.126171 -0.0232565 0)
(-0.115979 -0.0244775 0)
(-0.10535 -0.0254398 0)
(-0.0943718 -0.0261198 0)
(-0.0831362 -0.0264978 0)
(-0.0717436 -0.0265594 0)
(-0.0602997 -0.0262963 0)
(-0.0489141 -0.0257071 0)
(-0.0376989 -0.024798 0)
(-0.0267662 -0.0235831 0)
(-0.0162262 -0.0220845 0)
(-0.00618469 -0.0203316 0)
(0.0032589 -0.0183606 0)
(0.0120141 -0.0162136 0)
(0.020001 -0.013937 0)
(0.0271523 -0.0115805 0)
(0.0334149 -0.0091947 0)
(0.038751 -0.00683031 0)
(0.0431392 -0.00453577 0)
(0.046575 -0.0023564 0)
(0.0490705 -0.000333254 0)
(0.0506555 0.0014997 0)
(0.0513775 0.00311654 0)
(0.0512979 0.00449877 0)
(0.0504923 0.00563628 0)
(0.0490473 0.00652759 0)
(0.0470577 0.00717939 0)
(0.0446229 0.00760564 0)
(0.0418433 0.00782639 0)
(0.0388167 0.00786623 0)
(0.0356347 0.00775269 0)
(0.0323805 0.0075146 0)
(0.0291263 0.00718065 0)
(0.0259323 0.00677808 0)
(0.0228464 0.0063317 0)
(0.0199044 0.0058631 0)
(0.0171311 0.00539 0)
(0.0145416 0.00492554 0)
(0.0121437 0.00447762 0)
(0.00994027 0.00404811 0)
(0.00793196 0.00363228 0)
(0.00612014 0.0032187 0)
(0.00450976 0.00279028 0)
(0.00311138 0.00232736 0)
(0.00194207 0.0018138 0)
(0.00101924 0.00124784 0)
(0.000386731 0.000657826 0)
(4.01034e-05 0.000148441 0)
(5.90909e-05 -0.000502684 0)
(0.000532636 -0.00150252 0)
(0.00132403 -0.00240285 0)
(0.00239553 -0.00311548 0)
(0.00363647 -0.00359972 0)
(0.00497016 -0.00384392 0)
(0.00631679 -0.00385948 0)
(0.0076047 -0.00367461 0)
(0.00877401 -0.0033285 0)
(0.00977871 -0.00286588 0)
(0.0105871 -0.0023322 0)
(0.011181 -0.00176941 0)
(0.0115539 -0.00121271 0)
(0.0117084 -0.000688273 0)
(0.0116529 -0.000211989 0)
(0.0113979 0.000210797 0)
(0.0109532 0.000584599 0)
(0.0103246 0.000922368 0)
(0.00951148 0.00124335 0)
(0.00850564 0.00157058 0)
(0.00729032 0.00192826 0)
(0.00584069 0.00233927 0)
(0.00412484 0.0028233 0)
(0.0021054 0.00339557 0)
(-0.000258703 0.00406654 0)
(-0.00301038 0.00484218 0)
(-0.00619274 0.00572473 0)
(-0.00984757 0.0067136 0)
(-0.014014 0.00780599 0)
(-0.0187269 0.00899716 0)
(-0.0240157 0.0102803 0)
(-0.0299021 0.0116461 0)
(-0.0363989 0.0130821 0)
(-0.0435078 0.0145725 0)
(-0.0512176 0.0160976 0)
(-0.0595035 0.0176339 0)
(-0.0683256 0.0191547 0)
(-0.0776292 0.0206303 0)
(-0.0873456 0.0220294 0)
(-0.0973929 0.0233198 0)
(-0.107679 0.0244698 0)
(-0.118103 0.0254493 0)
(-0.12856 0.0262312 0)
(-0.138943 0.0267919 0)
(-0.149148 0.0271127 0)
(-0.159073 0.0271796 0)
(-0.168625 0.0269837 0)
(-0.177718 0.0265212 0)
(-0.186276 0.0257928 0)
(-0.194233 0.0248033 0)
(-0.201533 0.0235607 0)
(-0.208128 0.022076 0)
(-0.213981 0.0203621 0)
(-0.21906 0.0184337 0)
(-0.223343 0.0163064 0)
(-0.226811 0.0139967 0)
(-0.22945 0.0115215 0)
(-0.231251 0.00889816 0)
(-0.232206 0.00614462 0)
(-0.232312 0.00327921 0)
(-0.231566 0.000320976 0)
(-0.22997 -0.00270987 0)
(-0.227524 -0.00579195 0)
(-0.224232 -0.00890345 0)
(-0.220102 -0.0120193 0)
(-0.215142 -0.0151131 0)
(-0.209365 -0.018156 0)
(-0.202787 -0.0211174 0)
(-0.19543 -0.023964 0)
(-0.187321 -0.0266609 0)
(-0.178494 -0.0291714 0)
(-0.168989 -0.0314577 0)
(-0.158856 -0.0334817 0)
(-0.148152 -0.0352064 0)
(-0.136944 -0.0365961 0)
(-0.125308 -0.0376187 0)
(-0.113329 -0.0382467 0)
(-0.101102 -0.0384586 0)
(-0.0887255 -0.0382402 0)
(-0.0763079 -0.0375861 0)
(-0.0639601 -0.0365001 0)
(-0.0517954 -0.0349962 0)
(-0.0399268 -0.0330986 0)
(-0.0284651 -0.0308411 0)
(-0.0175159 -0.0282666 0)
(-0.00717775 -0.0254259 0)
(0.00245982 -0.022376 0)
(0.011318 -0.0191784 0)
(0.0193302 -0.0158976 0)
(0.0264426 -0.0125987 0)
(0.0326157 -0.00934588 0)
(0.0378242 -0.00620065 0)
(0.0420578 -0.00321976 0)
(0.045322 -0.000453182 0)
(0.0476386 0.00205565 0)
(0.0490444 0.00427249 0)
(0.0495919 0.00617317 0)
(0.0493482 0.00774409 0)
(0.0483931 0.00898253 0)
(0.0468167 0.00989636 0)
(0.0447164 0.0105032 0)
(0.0421932 0.0108289 0)
(0.0393484 0.0109061 0)
(0.036279 0.0107714 0)
(0.0330754 0.0104639 0)
(0.0298179 0.0100227 0)
(0.0265754 0.0094852 0)
(0.0234044 0.00888535 0)
(0.0203489 0.00825226 0)
(0.0174415 0.00760887 0)
(0.014705 0.00697066 0)
(0.0121544 0.00634443 0)
(0.00980016 0.00572738 0)
(0.00765092 0.00510701 0)
(0.005717 0.00446238 0)
(0.00401312 0.0037679 0)
(0.00256094 0.00300042 0)
(0.00138308 0.00215104 0)
(0.000546896 0.00124098 0)
(6.01301e-05 0.000363324 0)
(6.81727e-05 -0.000770613 0)
(0.000610039 -0.00219106 0)
(0.00150233 -0.00340842 0)
(0.00269279 -0.00434312 0)
(0.00404825 -0.00495714 0)
(0.00547987 -0.0052433 0)
(0.00689861 -0.00522097 0)
(0.00822682 -0.00492981 0)
(0.00940116 -0.00442291 0)
(0.0103739 -0.00375987 0)
(0.0111125 -0.00300058 0)
(0.0115986 -0.00219981 0)
(0.0118249 -0.00140298 0)
(0.0117925 -0.000643272 0)
(0.0115072 5.98971e-05 0)
(0.0109756 0.000701182 0)
(0.0102019 0.00128833 0)
(0.0091848 0.00184016 0)
(0.00791531 0.00238369 0)
(0.00637568 0.00295062 0)
(0.00453903 0.00357379 0)
(0.00237026 0.00428379 0)
(-0.000172443 0.00510643 0)
(-0.00313546 0.00606111 0)
(-0.0065675 0.00716041 0)
(-0.0105174 0.00841047 0)
(-0.0150318 0.00981192 0)
(-0.0201534 0.0113608 0)
(-0.0259189 0.0130494 0)
(-0.0323568 0.014866 0)
(-0.0394851 0.0167949 0)
(-0.0473091 0.018816 0)
(-0.0558192 0.020904 0)
(-0.0649892 0.0230283 0)
(-0.0747753 0.0251533 0)
(-0.0851159 0.0272392 0)
(-0.0959319 0.0292431 0)
(-0.10713 0.0311204 0)
(-0.118603 0.0328268 0)
(-0.130237 0.0343203 0)
(-0.141912 0.0355627 0)
(-0.15351 0.0365211 0)
(-0.164916 0.0371695 0)
(-0.176022 0.037489 0)
(-0.18673 0.0374679 0)
(-0.196955 0.0371018 0)
(-0.206623 0.0363927 0)
(-0.215675 0.0353481 0)
(-0.224061 0.0339799 0)
(-0.231744 0.0323034 0)
(-0.238696 0.0303365 0)
(-0.244895 0.0280984 0)
(-0.250327 0.0256093 0)
(-0.254982 0.0228894 0)
(-0.258854 0.019959 0)
(-0.261938 0.016838 0)
(-0.264233 0.0135459 0)
(-0.265734 0.0101019 0)
(-0.266442 0.00652515 0)
(-0.266354 0.00283487 0)
(-0.265467 -0.00094914 0)
(-0.26378 -0.004806 0)
(-0.26129 -0.00871346 0)
(-0.257996 -0.0126477 0)
(-0.253897 -0.0165826 0)
(-0.248992 -0.0204893 0)
(-0.243285 -0.0243359 0)
(-0.236782 -0.0280877 0)
(-0.229491 -0.0317069 0)
(-0.221428 -0.0351524 0)
(-0.212612 -0.0383809 0)
(-0.203073 -0.0413467 0)
(-0.192845 -0.0440034 0)
(-0.181974 -0.0463042 0)
(-0.170515 -0.048204 0)
(-0.158535 -0.0496606 0)
(-0.146109 -0.050637 0)
(-0.133325 -0.0511024 0)
(-0.120279 -0.051035 0)
(-0.107076 -0.0504229 0)
(-0.0938288 -0.0492657 0)
(-0.0806532 -0.0475755 0)
(-0.0676674 -0.0453769 0)
(-0.0549887 -0.0427068 0)
(-0.0427304 -0.0396137 0)
(-0.0309996 -0.0361561 0)
(-0.0198945 -0.0324007 0)
(-0.00950302 -0.0284203 0)
(9.89117e-05 -0.0242912 0)
(0.00884781 -0.0200916 0)
(0.0166931 -0.0158988 0)
(0.0235972 -0.0117881 0)
(0.0295355 -0.00783012 0)
(0.0344965 -0.00408986 0)
(0.0384823 -0.000625272 0)
(0.0415085 0.00251442 0)
(0.0436047 0.00529003 0)
(0.044815 0.00767359 0)
(0.0451973 0.00964923 0)
(0.0448231 0.0112137 0)
(0.043775 0.0123763 0)
(0.042145 0.0131581 0)
(0.0400307 0.0135903 0)
(0.037532 0.0137125 0)
(0.0347472 0.0135698 0)
(0.0317693 0.0132103 0)
(0.0286831 0.0126825 0)
(0.0255629 0.0120324 0)
(0.0224713 0.0113015 0)
(0.0194591 0.010524 0)
(0.0165659 0.0097253 0)
(0.0138216 0.00891952 0)
(0.0112494 0.00810837 0)
(0.00886808 0.00728054 0)
(0.00669633 0.00641299 0)
(0.0047559 0.00547473 0)
(0.00307585 0.00443406 0)
(0.00168695 0.00327007 0)
(0.000680251 0.0019873 0)
(7.66489e-05 0.000650616 0)
(7.50876e-05 -0.00107097 0)
(0.000669018 -0.00295556 0)
(0.00163677 -0.00451152 0)
(0.00291184 -0.00566971 0)
(0.00433999 -0.00639918 0)
(0.00581981 -0.00670165 0)
(0.0072531 -0.00660842 0)
(0.00855683 -0.00617378 0)
(0.00966526 -0.00546701 0)
(0.0105303 -0.00456407 0)
(0.0111201 -0.00353989 0)
(0.0114169 -0.00246185 0)
(0.0114135 -0.00138479 0)
(0.0111095 -0.00034761 0)
(0.0105074 0.000628415 0)
(0.00960842 0.00153972 0)
(0.00840947 0.00239906 0)
(0.00690001 0.00323272 0)
(0.00506044 0.00407667 0)
(0.00286149 0.00497204 0)
(0.000264724 0.00596038 0)
(-0.00277588 0.00707943 0)
(-0.00631157 0.00835995 0)
(-0.0103961 0.00982378 0)
(-0.0150827 0.0114834 0)
(-0.0204216 0.0133424 0)
(-0.0264572 0.0153966 0)
(-0.0332254 0.0176348 0)
(-0.0407511 0.0200397 0)
(-0.0490454 0.0225877 0)
(-0.0581029 0.0252484 0)
(-0.0678994 0.0279849 0)
(-0.0783906 0.0307534 0)
(-0.0895111 0.033504 0)
(-0.101175 0.0361819 0)
(-0.113281 0.0387296 0)
(-0.125709 0.041089 0)
(-0.138333 0.0432044 0)
(-0.151021 0.0450249 0)
(-0.163643 0.0465063 0)
(-0.176074 0.0476135 0)
(-0.1882 0.0483209 0)
(-0.199919 0.0486128 0)
(-0.211146 0.0484831 0)
(-0.221809 0.0479342 0)
(-0.231854 0.0469758 0)
(-0.241238 0.0456233 0)
(-0.249932 0.0438963 0)
(-0.257915 0.0418173 0)
(-0.265175 0.0394104 0)
(-0.271706 0.0367 0)
(-0.277505 0.0337107 0)
(-0.282573 0.0304659 0)
(-0.286909 0.0269883 0)
(-0.290517 0.0232993 0)
(-0.293396 0.0194192 0)
(-0.295548 0.015367 0)
(-0.29697 0.0111616 0)
(-0.297662 0.00682097 0)
(-0.297617 0.00236362 0)
(-0.296832 -0.00219154 0)
(-0.2953 -0.00682443 0)
(-0.293013 -0.0115132 0)
(-0.289963 -0.016234 0)
(-0.286142 -0.0209597 0)
(-0.281542 -0.0256605 0)
(-0.276156 -0.0303024 0)
(-0.269979 -0.0348479 0)
(-0.263008 -0.0392548 0)
(-0.255245 -0.0434774 0)
(-0.246698 -0.0474656 0)
(-0.237379 -0.0511666 0)
(-0.22731 -0.0545248 0)
(-0.216521 -0.057484 0)
(-0.205054 -0.059988 0)
(-0.19296 -0.0619833 0)
(-0.180306 -0.0634211 0)
(-0.16717 -0.0642595 0)
(-0.153642 -0.0644656 0)
(-0.139824 -0.0640187 0)
(-0.12583 -0.062911 0)
(-0.111779 -0.06115 0)
(-0.0977972 -0.0587585 0)
(-0.084012 -0.0557749 0)
(-0.0705485 -0.0522523 0)
(-0.0575266 -0.0482566 0)
(-0.0450574 -0.0438644 0)
(-0.0332407 -0.03916 0)
(-0.0221635 -0.0342325 0)
(-0.0118984 -0.0291733 0)
(-0.00250417 -0.0240729 0)
(0.00597443 -0.0190192 0)
(0.0135054 -0.0140955 0)
(0.0200687 -0.00937908 0)
(0.0256559 -0.00493993 0)
(0.0302695 -0.000839801 0)
(0.0339235 0.00286909 0)
(0.0366434 0.00614531 0)
(0.0384675 0.00895947 0)
(0.0394465 0.0112953 0)
(0.0396443 0.0131503 0)
(0.0391359 0.0145359 0)
(0.0380069 0.0154767 0)
(0.0363495 0.0160093 0)
(0.03426 0.0161793 0)
(0.031835 0.0160392 0)
(0.0291672 0.015645 0)
(0.026343 0.0150524 0)
(0.0234395 0.014314 0)
(0.0205234 0.0134757 0)
(0.0176505 0.0125735 0)
(0.0148662 0.0116305 0)
(0.0122077 0.0106551 0)
(0.00970641 0.00963923 0)
(0.00739154 0.00855926 0)
(0.00529455 0.00737944 0)
(0.00345426 0.00605829 0)
(0.00191152 0.00455905 0)
(0.000778631 0.00286262 0)
(8.87301e-05 0.000994748 0)
(8.06434e-05 -0.00139651 0)
(0.000714663 -0.00377715 0)
(0.00173625 -0.00568382 0)
(0.00306455 -0.00705856 0)
(0.00452555 -0.00788103 0)
(0.00600543 -0.00816623 0)
(0.0073973 -0.0079616 0)
(0.00861363 -0.00733967 0)
(0.00958741 -0.00638858 0)
(0.0102714 -0.00520214 0)
(0.0106356 -0.00387078 0)
(0.0106636 -0.00247394 0)
(0.0103484 -0.00107448 0)
(0.00968806 0.000284927 0)
(0.00868069 0.00158339 0)
(0.00732091 0.00282149 0)
(0.00559629 0.00401908 0)
(0.00348518 0.00521161 0)
(0.000955619 0.00644504 0)
(-0.00203433 0.00777005 0)
(-0.00553496 0.00923615 0)
(-0.00960227 0.0108866 0)
(-0.0142946 0.0127545 0)
(-0.0196693 0.0148611 0)
(-0.0257787 0.017215 0)
(-0.0326675 0.0198128 0)
(-0.0403688 0.0226407 0)
(-0.0489015 0.0256749 0)
(-0.058267 0.0288823 0)
(-0.0684467 0.0322211 0)
(-0.0793992 0.0356403 0)
(-0.0910598 0.039081 0)
(-0.103341 0.0424771 0)
(-0.116132 0.045758 0)
(-0.12931 0.0488512 0)
(-0.142734 0.0516858 0)
(-0.156262 0.054196 0)
(-0.169752 0.0563243 0)
(-0.183069 0.0580237 0)
(-0.196089 0.0592595 0)
(-0.208707 0.0600097 0)
(-0.220832 0.0602646 0)
(-0.232395 0.0600254 0)
(-0.243343 0.0593028 0)
(-0.253637 0.0581147 0)
(-0.263253 0.0564845 0)
(-0.272177 0.0544389 0)
(-0.280403 0.0520065 0)
(-0.287931 0.0492165 0)
(-0.294765 0.0460975 0)
(-0.300908 0.0426771 0)
(-0.306369 0.0389811 0)
(-0.311153 0.0350336 0)
(-0.315264 0.0308566 0)
(-0.318708 0.0264708 0)
(-0.321487 0.0218948 0)
(-0.323601 0.0171465 0)
(-0.325049 0.0122426 0)
(-0.325828 0.00719958 0)
(-0.325934 0.00203413 0)
(-0.325359 -0.00323644 0)
(-0.324094 -0.0085935 0)
(-0.322129 -0.0140165 0)
(-0.319451 -0.0194824 0)
(-0.316048 -0.0249647 0)
(-0.311904 -0.0304335 0)
(-0.307005 -0.0358541 0)
(-0.301336 -0.0411872 0)
(-0.294883 -0.0463885 0)
(-0.287635 -0.051408 0)
(-0.279584 -0.0561908 0)
(-0.270728 -0.0606773 0)
(-0.261069 -0.0648039 0)
(-0.250621 -0.0685044 0)
(-0.239406 -0.0717113 0)
(-0.227458 -0.0743586 0)
(-0.214826 -0.0763837 0)
(-0.201575 -0.0777304 0)
(-0.187782 -0.0783522 0)
(-0.173545 -0.0782149 0)
(-0.158971 -0.0772995 0)
(-0.144185 -0.0756045 0)
(-0.129318 -0.0731473 0)
(-0.114512 -0.0699646 0)
(-0.0999057 -0.0661117 0)
(-0.0856388 -0.0616611 0)
(-0.0718422 -0.0566993 0)
(-0.0586352 -0.0513236 0)
(-0.0461226 -0.0456378 0)
(-0.0343924 -0.0397489 0)
(-0.0235148 -0.0337629 0)
(-0.0135431 -0.0277823 0)
(-0.00451472 -0.0219034 0)
(0.00354655 -0.0162155 0)
(0.0106288 -0.0107991 0)
(0.0167301 -0.00572613 0)
(0.0218579 -0.00105889 0)
(0.0260284 0.0031506 0)
(0.029267 0.00686165 0)
(0.0316093 0.010046 0)
(0.0331021 0.012689 0)
(0.0338033 0.0147906 0)
(0.0337822 0.0163654 0)
(0.033118 0.0174423 0)
(0.0318975 0.0180625 0)
(0.0302125 0.0182778 0)
(0.0281562 0.0181468 0)
(0.0258196 0.0177312 0)
(0.0232886 0.0170919 0)
(0.0206412 0.0162846 0)
(0.0179467 0.0153556 0)
(0.0152646 0.0143376 0)
(0.012646 0.0132464 0)
(0.0101354 0.0120785 0)
(0.00777435 0.0108113 0)
(0.00560561 0.00940458 0)
(0.00367919 0.00780662 0)
(0.00204687 0.00596257 0)
(0.000838001 0.00382579 0)
(9.59383e-05 0.0013774 0)
(8.53173e-05 -0.00174222 0)
(0.000750004 -0.0046404 0)
(0.00180593 -0.00689975 0)
(0.00315737 -0.0084746 0)
(0.00461157 -0.00935873 0)
(0.00604299 -0.00958481 0)
(0.00733715 -0.00922094 0)
(0.00840324 -0.00836174 0)
(0.00917434 -0.00711694 0)
(0.00960531 -0.00559964 0)
(0.00966876 -0.00391586 0)
(0.00935022 -0.00215607 0)
(0.00864281 -0.000389213 0)
(0.00754192 0.00134082 0)
(0.00604032 0.00301632 0)
(0.00412416 0.00464467 0)
(0.00177012 0.00625512 0)
(-0.00105614 0.00789372 0)
(-0.00439985 0.00961685 0)
(-0.00831546 0.0114839 0)
(-0.0128637 0.0135505 0)
(-0.0181075 0.015862 0)
(-0.0241077 0.0184502 0)
(-0.0309187 0.0213304 0)
(-0.0385841 0.0245021 0)
(-0.047133 0.0279491 0)
(-0.0565765 0.0316414 0)
(-0.0669045 0.0355359 0)
(-0.0780829 0.0395775 0)
(-0.0900519 0.0437001 0)
(-0.102725 0.0478279 0)
(-0.115993 0.0518778 0)
(-0.129724 0.0557629 0)
(-0.143773 0.0593961 0)
(-0.157984 0.062695 0)
(-0.172204 0.0655856 0)
(-0.186285 0.0680064 0)
(-0.200095 0.06991 0)
(-0.213517 0.071265 0)
(-0.226455 0.0720551 0)
(-0.238835 0.0722778 0)
(-0.250603 0.0719428 0)
(-0.261722 0.071069 0)
(-0.272167 0.0696823 0)
(-0.28193 0.0678131 0)
(-0.291008 0.0654943 0)
(-0.299404 0.0627596 0)
(-0.307125 0.0596422 0)
(-0.314183 0.0561741 0)
(-0.320586 0.0523853 0)
(-0.326347 0.0483035 0)
(-0.331475 0.0439541 0)
(-0.335979 0.0393603 0)
(-0.339867 0.0345428 0)
(-0.343145 0.0295204 0)
(-0.345819 0.0243104 0)
(-0.34789 0.0189285 0)
(-0.349361 0.0133896 0)
(-0.35023 0.00770819 0)
(-0.350494 0.00189867 0)
(-0.350146 -0.00402377 0)
(-0.34918 -0.0100427 0)
(-0.347583 -0.0161398 0)
(-0.345342 -0.0222939 0)
(-0.342441 -0.0284807 0)
(-0.33886 -0.0346716 0)
(-0.334579 -0.040833 0)
(-0.329574 -0.0469261 0)
(-0.323821 -0.0529058 0)
(-0.317297 -0.0587207 0)
(-0.309977 -0.0643127 0)
(-0.301841 -0.0696174 0)
(-0.292874 -0.0745645 0)
(-0.283065 -0.079079 0)
(-0.272415 -0.0830827 0)
(-0.260933 -0.0864962 0)
(-0.248646 -0.0892419 0)
(-0.235594 -0.0912472 0)
(-0.221839 -0.0924477 0)
(-0.207459 -0.0927917 0)
(-0.192555 -0.0922434 0)
(-0.177244 -0.0907865 0)
(-0.161664 -0.0884269 0)
(-0.145962 -0.0851939 0)
(-0.130298 -0.0811404 0)
(-0.114831 -0.0763421 0)
(-0.0997204 -0.0708938 0)
(-0.0851135 -0.0649061 0)
(-0.0711435 -0.0584997 0)
(-0.0579243 -0.0518007 0)
(-0.0455481 -0.044935 0)
(-0.0340844 -0.0380239 0)
(-0.0235816 -0.0311812 0)
(-0.0140688 -0.0245104 0)
(-0.00555963 -0.0181043 0)
(0.00194467 -0.0120443 0)
(0.0084524 -0.00640116 0)
(0.0139793 -0.00123447 0)
(0.0185477 0.00340696 0)
(0.0221866 0.00748599 0)
(0.0249329 0.0109781 0)
(0.0268319 0.0138725 0)
(0.0279388 0.0161733 0)
(0.0283188 0.0178995 0)
(0.0280463 0.0190847 0)
(0.0272035 0.0197755 0)
(0.0258777 0.0200286 0)
(0.0241584 0.0199074 0)
(0.0221341 0.0194773 0)
(0.0198891 0.0188009 0)
(0.0175017 0.0179328 0)
(0.0150429 0.0169143 0)
(0.0125759 0.0157685 0)
(0.0101579 0.0144972 0)
(0.00784287 0.013079 0)
(0.00568559 0.0114702 0)
(0.00374752 0.00960873 0)
(0.00209118 0.0074213 0)
(0.000857765 0.00483285 0)
(9.8244e-05 0.00177921 0)
(8.92698e-05 -0.00210417 0)
(0.000775922 -0.00553139 0)
(0.00184683 -0.00813458 0)
(0.00319061 -0.00988265 0)
(0.00459691 -0.0107874 0)
(0.00592961 -0.0109042 0)
(0.00706828 -0.0103263 0)
(0.00792056 -0.00917436 0)
(0.00842118 -0.00758236 0)
(0.00852828 -0.00568373 0)
(0.00821773 -0.00359971 0)
(0.00747695 -0.00143013 0)
(0.00629846 0.000752543 0)
(0.00467391 0.00290625 0)
(0.00258902 0.00501963 0)
(1.98509e-05 0.00710965 0)
(-0.00306927 0.00921694 0)
(-0.00672602 0.011399 0)
(-0.0110085 0.0137219 0)
(-0.0159817 0.0162517 0)
(-0.0217132 0.0190462 0)
(-0.0282674 0.0221484 0)
(-0.0357002 0.0255823 0)
(-0.0440542 0.0293514 0)
(-0.0533537 0.0334387 0)
(-0.0636011 0.0378084 0)
(-0.0747737 0.042407 0)
(-0.0868211 0.0471657 0)
(-0.0996643 0.052002 0)
(-0.113197 0.0568229 0)
(-0.127286 0.0615277 0)
(-0.141782 0.0660133 0)
(-0.156521 0.070179 0)
(-0.171338 0.0739321 0)
(-0.186072 0.0771927 0)
(-0.200575 0.0798972 0)
(-0.214718 0.0820001 0)
(-0.228394 0.0834748 0)
(-0.241522 0.0843115 0)
(-0.254039 0.084516 0)
(-0.265905 0.0841058 0)
(-0.277096 0.0831078 0)
(-0.2876 0.0815548 0)
(-0.297417 0.0794834 0)
(-0.306551 0.0769316 0)
(-0.315013 0.0739373 0)
(-0.322815 0.0705374 0)
(-0.329971 0.066767 0)
(-0.336497 0.0626585 0)
(-0.342406 0.058242 0)
(-0.347715 0.0535447 0)
(-0.352436 0.0485912 0)
(-0.356583 0.0434035 0)
(-0.360168 0.0380012 0)
(-0.363202 0.0324016 0)
(-0.365694 0.0266203 0)
(-0.367652 0.0206712 0)