/*--------------------------------*- C++ -*----------------------------------*\
| =========                 |                                                 |
| \\      /  F ield         | OpenFOAM: The Open Source CFD Toolbox           |
|  \\    /   O peration     | Version:  2406                                  |
|   \\  /    A nd           | Website:  www.openfoam.com                      |
|    \\/     M anipulation  |                                                 |
\*---------------------------------------------------------------------------*/
FoamFile
{
    version     2.0;
    format      ascii;
    arch        "LSB;label=32;scalar=64";
    class       volVectorField;
    location    "11.5";
    object      Uold;
}
// * * * * * * * * * * * * * * * * * * * * * * * * * * * * * * * * * * * * * //

dimensions      [0 1 -1 0 0 0 0];

internalField   nonuniform List<vector> 
14400
(
(5.12041e-06 -5.03003e-06 0)
(1.52768e-05 -4.42849e-06 0)
(1.74122e-05 -4.92634e-07 0)
(5.15028e-06 4.70094e-06 0)
(-2.12174e-05 9.00619e-06 0)
(-5.95807e-05 1.25968e-05 0)
(-0.000107845 1.50897e-05 0)
(-0.000163084 1.69086e-05 0)
(-0.00022368 1.80265e-05 0)
(-0.000287549 1.87502e-05 0)
(-0.000353787 1.91135e-05 0)
(-0.000421217 1.93031e-05 0)
(-0.000489475 1.93496e-05 0)
(-0.000558027 1.9356e-05 0)
(-0.000626835 1.9338e-05 0)
(-0.000695742 1.93464e-05 0)
(-0.000764866 1.93842e-05 0)
(-0.000834236 1.94722e-05 0)
(-0.00090402 1.96058e-05 0)
(-0.000974314 1.97904e-05 0)
(-0.00104527 2.0018e-05 0)
(-0.001117 2.02865e-05 0)
(-0.00118962 2.05874e-05 0)
(-0.0012632 2.09156e-05 0)
(-0.00133782 2.12628e-05 0)
(-0.00141351 2.1623e-05 0)
(-0.0014903 2.19884e-05 0)
(-0.00156819 2.23525e-05 0)
(-0.00164714 2.27081e-05 0)
(-0.00172711 2.30484e-05 0)
(-0.00180802 2.33662e-05 0)
(-0.00188979 2.36547e-05 0)
(-0.00197229 2.39065e-05 0)
(-0.00205536 2.41145e-05 0)
(-0.00213886 2.42712e-05 0)
(-0.00222258 2.43693e-05 0)
(-0.0023063 2.44013e-05 0)
(-0.00238978 2.43597e-05 0)
(-0.00247275 2.42371e-05 0)
(-0.00255492 2.4026e-05 0)
(-0.00263598 2.37194e-05 0)
(-0.00271558 2.33101e-05 0)
(-0.00279338 2.27915e-05 0)
(-0.00286898 2.21572e-05 0)
(-0.00294199 2.14014e-05 0)
(-0.003012 2.05187e-05 0)
(-0.00307857 1.95043e-05 0)
(-0.00314126 1.83544e-05 0)
(-0.00319962 1.70658e-05 0)
(-0.00325319 1.56363e-05 0)
(-0.00330152 1.4065e-05 0)
(-0.00334414 1.23519e-05 0)
(-0.0033806 1.04987e-05 0)
(-0.00341046 8.50824e-06 0)
(-0.00343329 6.38517e-06 0)
(-0.00344868 4.13578e-06 0)
(-0.00345625 1.7682e-06 0)
(-0.00345565 -7.0753e-07 0)
(-0.00344658 -3.27939e-06 0)
(-0.00342876 -5.93335e-06 0)
(-0.00340197 -8.65336e-06 0)
(-0.00336607 -1.14214e-05 0)
(-0.00332095 -1.42175e-05 0)
(-0.00326657 -1.70202e-05 0)
(-0.00320299 -1.98061e-05 0)
(-0.00313032 -2.25508e-05 0)
(-0.00304876 -2.5229e-05 0)
(-0.00295858 -2.78145e-05 0)
(-0.00286014 -3.02812e-05 0)
(-0.0027539 -3.26031e-05 0)
(-0.00264036 -3.47551e-05 0)
(-0.00252014 -3.67132e-05 0)
(-0.00239389 -3.84555e-05 0)
(-0.00226235 -3.99619e-05 0)
(-0.00212631 -4.12155e-05 0)
(-0.00198662 -4.22021e-05 0)
(-0.00184414 -4.29114e-05 0)
(-0.00169978 -4.33364e-05 0)
(-0.00155446 -4.34745e-05 0)
(-0.00140909 -4.33266e-05 0)
(-0.00126459 -4.28979e-05 0)
(-0.00112185 -4.21974e-05 0)
(-0.00098172 -4.12374e-05 0)
(-0.000845013 -4.00338e-05 0)
(-0.000712489 -3.86052e-05 0)
(-0.000584846 -3.69725e-05 0)
(-0.000462714 -3.51587e-05 0)
(-0.000346652 -3.3188e-05 0)
(-0.000237141 -3.10851e-05 0)
(-0.000134583 -2.88751e-05 0)
(-3.93073e-05 -2.65828e-05 0)
(4.84383e-05 -2.4232e-05 0)
(0.000128476 -2.18452e-05 0)
(0.000200698 -1.94435e-05 0)
(0.000265058 -1.70455e-05 0)
(0.00032157 -1.46683e-05 0)
(0.000370296 -1.2326e-05 0)
(0.000411344 -1.00312e-05 0)
(0.000444852 -7.79294e-06 0)
(0.000471 -5.61968e-06 0)
(0.000489973 -3.51548e-06 0)
(0.000501998 -1.48584e-06 0)
(0.000507278 4.69788e-07 0)
(0.000506078 2.34669e-06 0)
(0.000498598 4.14965e-06 0)
(0.000485144 5.8708e-06 0)
(0.000465897 7.51882e-06 0)
(0.000441246 9.0754e-06 0)
(0.000411349 1.05528e-05 0)
(0.000376771 1.19078e-05 0)
(0.000337669 1.31553e-05 0)
(0.000294992 1.41963e-05 0)
(0.000248964 1.50446e-05 0)
(0.000201316 1.54754e-05 0)
(0.000152541 1.5487e-05 0)
(0.000105866 1.45667e-05 0)
(6.24981e-05 1.26933e-05 0)
(2.80775e-05 8.84739e-06 0)
(4.6881e-06 3.76145e-06 0)
(-2.14346e-06 -2.13431e-06 0)
(4.72975e-06 -1.54201e-05 0)
(5.76987e-06 -5.51979e-06 0)
(-1.65405e-05 1.76145e-05 0)
(-6.99134e-05 4.63339e-05 0)
(-0.000155561 7.20056e-05 0)
(-0.000269335 9.42892e-05 0)
(-0.000407592 0.000111331 0)
(-0.000564279 0.000124371 0)
(-0.000735626 0.000133441 0)
(-0.000916945 0.000139755 0)
(-0.00110569 0.000143736 0)
(-0.001299 0.000146251 0)
(-0.00149557 0.000147674 0)
(-0.00169398 0.000148537 0)
(-0.00189378 0.000149073 0)
(-0.00209446 0.000149562 0)
(-0.00229607 0.000150116 0)
(-0.00249858 0.000150856 0)
(-0.00270222 0.000151809 0)
(-0.00290717 0.000153008 0)
(-0.0031137 0.000154434 0)
(-0.00332201 0.000156073 0)
(-0.00353232 0.000157887 0)
(-0.00374478 0.000159841 0)
(-0.00395951 0.000161888 0)
(-0.00417656 0.000163986 0)
(-0.00439593 0.000166085 0)
(-0.00461756 0.000168139 0)
(-0.00484134 0.0001701 0)
(-0.00506708 0.000171919 0)
(-0.00529455 0.000173546 0)
(-0.00552344 0.000174933 0)
(-0.00575338 0.000176028 0)
(-0.00598394 0.000176782 0)
(-0.00621463 0.000177143 0)
(-0.00644488 0.00017706 0)
(-0.00667408 0.000176483 0)
(-0.00690153 0.000175362 0)
(-0.0071265 0.000173646 0)
(-0.00734816 0.000171288 0)
(-0.00756567 0.000168241 0)
(-0.00777811 0.000164462 0)
(-0.00798451 0.000159909 0)
(-0.00818385 0.000154544 0)
(-0.0083751 0.000148334 0)
(-0.00855715 0.000141248 0)
(-0.00872891 0.000133262 0)
(-0.00888924 0.000124359 0)
(-0.009037 0.000114525 0)
(-0.00917103 0.000103756 0)
(-0.0092902 9.20537e-05 0)
(-0.00939339 7.94304e-05 0)
(-0.0094795 6.5906e-05 0)
(-0.00954746 5.15108e-05 0)
(-0.00959629 3.62853e-05 0)
(-0.00962503 2.0281e-05 0)
(-0.00963283 3.56067e-06 0)
(-0.00961891 -1.3801e-05 0)
(-0.0095826 -3.17175e-05 0)
(-0.00952336 -5.00903e-05 0)
(-0.00944076 -6.88094e-05 0)
(-0.00933454 -8.77532e-05 0)
(-0.00920457 -0.00010679 0)
(-0.0090509 -0.000125778 0)
(-0.00887377 -0.000144568 0)
(-0.00867356 -0.000163004 0)
(-0.00845089 -0.000180924 0)
(-0.00820654 -0.000198168 0)
(-0.00794149 -0.000214571 0)
(-0.0076569 -0.000229974 0)
(-0.00735414 -0.000244223 0)
(-0.00703472 -0.000257172 0)
(-0.00670033 -0.000268689 0)
(-0.0063528 -0.000278653 0)
(-0.0059941 -0.000286961 0)
(-0.00562629 -0.000293531 0)
(-0.00525152 -0.0002983 0)
(-0.00487199 -0.000301227 0)
(-0.00448996 -0.000302296 0)
(-0.00410766 -0.000301515 0)
(-0.00372732 -0.000298914 0)
(-0.0033511 -0.000294548 0)
(-0.0029811 -0.000288492 0)
(-0.00261931 -0.000280841 0)
(-0.00226763 -0.000271708 0)
(-0.00192777 -0.000261219 0)
(-0.00160132 -0.000249514 0)
(-0.00128971 -0.00023674 0)
(-0.000994164 -0.000223049 0)
(-0.000715751 -0.000208595 0)
(-0.000455351 -0.000193531 0)
(-0.000213667 -0.000178005 0)
(8.76617e-06 -0.00016216 0)
(0.000211582 -0.000146128 0)
(0.000394559 -0.000130029 0)
(0.000557622 -0.000113973 0)
(0.00070081 -9.8055e-05 0)
(0.000824282 -8.23575e-05 0)
(0.000928275 -6.69471e-05 0)
(0.00101312 -5.18811e-05 0)
(0.0010792 -3.72001e-05 0)
(0.00112697 -2.29416e-05 0)
(0.00115688 -9.12586e-06 0)
(0.00116949 4.2175e-06 0)
(0.00116531 1.70782e-05 0)
(0.00114502 2.94143e-05 0)
(0.00110915 4.12092e-05 0)
(0.00105859 5.23716e-05 0)
(0.000993972 6.28525e-05 0)
(0.000916619 7.24428e-05 0)
(0.000827361 8.10164e-05 0)
(0.000728396 8.81174e-05 0)
(0.00062102 9.3474e-05 0)
(0.000509088 9.61409e-05 0)
(0.000394751 9.56345e-05 0)
(0.000284713 9.01177e-05 0)
(0.000182253 7.91268e-05 0)
(9.78945e-05 5.98034e-05 0)
(3.45612e-05 3.46084e-05 0)
(3.7217e-06 4.66763e-06 0)
(7.1805e-07 -1.76744e-05 0)
(-1.87193e-05 1.73807e-05 0)
(-7.95186e-05 7.6884e-05 0)
(-0.000184404 0.000146619 0)
(-0.000335929 0.000210506 0)
(-0.000527059 0.000266506 0)
(-0.000753755 0.000310882 0)
(-0.00100757 0.000345448 0)
(-0.0012836 0.000370516 0)
(-0.00157526 0.000388444 0)
(-0.00187892 0.000400452 0)
(-0.00219043 0.000408414 0)
(-0.00250774 0.00041341 0)
(-0.00282866 0.000416661 0)
(-0.00315235 0.000418865 0)
(-0.00347791 0.000420699 0)
(-0.00380522 0.00042252 0)
(-0.00413411 0.000424633 0)
(-0.00446477 0.000427162 0)
(-0.00479736 0.000430192 0)
(-0.00513215 0.000433707 0)
(-0.00546935 0.000437677 0)
(-0.00580919 0.000442019 0)
(-0.00615182 0.000446645 0)
(-0.00649732 0.000451442 0)
(-0.00684571 0.0004563 0)
(-0.00719691 0.000461093 0)
(-0.00755077 0.0004657 0)
(-0.00790704 0.000469992 0)
(-0.00826538 0.000473842 0)
(-0.00862536 0.000477117 0)
(-0.00898644 0.000479687 0)
(-0.00934801 0.000481418 0)
(-0.00970934 0.000482178 0)
(-0.0100696 0.000481833 0)
(-0.010428 0.000480249 0)
(-0.0107833 0.000477296 0)
(-0.0111347 0.000472844 0)
(-0.0114807 0.000466767 0)
(-0.0118203 0.000458946 0)
(-0.0121521 0.000449265 0)
(-0.0124746 0.000437617 0)
(-0.0127865 0.000423903 0)
(-0.013086 0.000408035 0)
(-0.0133718 0.000389936 0)
(-0.013642 0.000369542 0)
(-0.0138952 0.000346804 0)
(-0.0141297 0.000321689 0)
(-0.0143437 0.000294181 0)
(-0.0145357 0.000264286 0)
(-0.0147041 0.000232027 0)
(-0.0148471 0.00019745 0)
(-0.0149634 0.000160626 0)
(-0.0150515 0.00012165 0)
(-0.0151099 8.06417e-05 0)
(-0.0151376 3.775e-05 0)
(-0.0151332 -6.84994e-06 0)
(-0.015096 -5.29543e-05 0)
(-0.0150249 -0.000100331 0)
(-0.0149194 -0.00014872 0)
(-0.0147791 -0.000197834 0)
(-0.0146037 -0.000247359 0)
(-0.0143931 -0.000296958 0)
(-0.0141477 -0.000346275 0)
(-0.0138678 -0.000394932 0)
(-0.0135542 -0.00044254 0)
(-0.0132079 -0.000488703 0)
(-0.0128302 -0.000533018 0)
(-0.0124225 -0.000575086 0)
(-0.0119867 -0.000614519 0)
(-0.0115247 -0.000650941 0)
(-0.0110387 -0.000684002 0)
(-0.0105313 -0.000713378 0)
(-0.0100052 -0.000738782 0)
(-0.00946305 -0.000759969 0)
(-0.00890791 -0.00077674 0)
(-0.00834285 -0.000788946 0)
(-0.00777102 -0.000796493 0)
(-0.00719559 -0.000799344 0)
(-0.00661976 -0.00079752 0)
(-0.00604669 -0.000791096 0)
(-0.00547947 -0.000780204 0)
(-0.00492107 -0.00076503 0)
(-0.00437436 -0.000745802 0)
(-0.003842 -0.000722796 0)
(-0.00332651 -0.00069632 0)
(-0.00283016 -0.000666713 0)
(-0.00235502 -0.000634332 0)
(-0.0019029 -0.00059955 0)
(-0.00147539 -0.000562745 0)
(-0.00107381 -0.000524292 0)
(-0.000699246 -0.000484557 0)
(-0.000352552 -0.000443891 0)
(-3.43475e-05 -0.000402623 0)
(0.000254951 -0.000361057 0)
(0.000515129 -0.000319466 0)
(0.000746138 -0.000278093 0)
(0.000948096 -0.000237147 0)
(0.00112124 -0.000196807 0)
(0.00126594 -0.00015722 0)
(0.00138265 -0.000118504 0)
(0.00147192 -8.07608e-05 0)
(0.00153434 -4.40663e-05 0)
(0.00157064 -8.50273e-06 0)
(0.00158149 2.58635e-05 0)
(0.00156783 5.89202e-05 0)
(0.00153045 9.05585e-05 0)
(0.00147061 0.000120552 0)
(0.00138932 0.000148665 0)
(0.00128848 0.000174408 0)
(0.00116951 0.000197282 0)
(0.00103554 0.000216282 0)
(0.000888727 0.000230448 0)
(0.00073442 0.000237853 0)
(0.000575894 0.000236928 0)
(0.000422116 0.00022437 0)
(0.000277362 0.000198578 0)
(0.000155581 0.00015545 0)
(5.98046e-05 9.7984e-05 0)
(8.78321e-06 2.80042e-05 0)
(-4.96335e-06 -4.41559e-06 0)
(-5.13722e-05 7.4612e-05 0)
(-0.00015935 0.000184399 0)
(-0.000322593 0.000305873 0)
(-0.000544529 0.00041734 0)
(-0.000814279 0.000515188 0)
(-0.00112806 0.000594102 0)
(-0.00147532 0.000656352 0)
(-0.00185077 0.000702603 0)
(-0.00224638 0.000736366 0)
(-0.00265795 0.000759775 0)
(-0.00308031 0.000775818 0)
(-0.0035109 0.000786419 0)
(-0.00394691 0.000793608 0)
(-0.00438711 0.000798665 0)
(-0.00483026 0.00080276 0)
(-0.00527603 0.000806572 0)
(-0.00572403 0.000810651 0)
(-0.00617438 0.000815256 0)
(-0.0066271 0.000820553 0)
(-0.00708241 0.000826547 0)
(-0.00754047 0.000833192 0)
(-0.00800143 0.000840361 0)
(-0.00846536 0.000847902 0)
(-0.00893229 0.000855624 0)
(-0.00940211 0.000863328 0)
(-0.00987466 0.000870795 0)
(-0.0103496 0.000877804 0)
(-0.0108266 0.000884123 0)
(-0.011305 0.00088952 0)
(-0.0117843 0.000893758 0)
(-0.0122637 0.000896597 0)
(-0.0127422 0.000897797 0)
(-0.0132189 0.000897118 0)
(-0.0136927 0.000894321 0)
(-0.0141623 0.000889168 0)
(-0.0146263 0.000881427 0)
(-0.0150833 0.000870871 0)
(-0.0155318 0.000857285 0)
(-0.0159699 0.000840459 0)
(-0.0163961 0.000820201 0)
(-0.0168085 0.000796332 0)
(-0.0172051 0.000768692 0)
(-0.0175841 0.000737143 0)
(-0.0179434 0.000701566 0)
(-0.018281 0.000661871 0)
(-0.0185948 0.000617996 0)
(-0.0188829 0.000569906 0)
(-0.0191432 0.000517603 0)
(-0.0193737 0.000461121 0)
(-0.0195724 0.000400531 0)
(-0.0197376 0.000335944 0)
(-0.0198675 0.000267513 0)
(-0.0199604 0.000195431 0)
(-0.0200147 0.000119937 0)
(-0.0200291 4.13162e-05 0)
(-0.0200024 -4.01018e-05 0)
(-0.0199335 -0.00012394 0)
(-0.0198216 -0.000209774 0)
(-0.0196661 -0.000297135 0)
(-0.0194667 -0.000385511 0)
(-0.0192232 -0.000474349 0)
(-0.0189359 -0.000563057 0)
(-0.0186051 -0.000651013 0)
(-0.0182317 -0.000737567 0)
(-0.0178166 -0.000822049 0)
(-0.0173613 -0.000903779 0)
(-0.0168674 -0.000982074 0)
(-0.0163368 -0.00105626 0)
(-0.0157719 -0.00112567 0)
(-0.0151752 -0.00118968 0)
(-0.0145494 -0.00124771 0)
(-0.0138977 -0.0012992 0)
(-0.0132233 -0.00134368 0)
(-0.0125297 -0.00138075 0)
(-0.0118204 -0.00141007 0)
(-0.0110993 -0.00143141 0)
(-0.0103701 -0.0014446 0)
(-0.00963675 -0.00144958 0)
(-0.00890304 -0.00144641 0)
(-0.00817281 -0.00143521 0)
(-0.00744979 -0.00141621 0)
(-0.00673759 -0.00138971 0)
(-0.00603966 -0.00135612 0)
(-0.00535927 -0.0013159 0)
(-0.00469945 -0.00126957 0)
(-0.00406299 -0.0012177 0)
(-0.00345243 -0.0011609 0)
(-0.00287001 -0.00109982 0)
(-0.00231769 -0.00103508 0)
(-0.00179716 -0.000967327 0)
(-0.0013098 -0.000897194 0)
(-0.00085672 -0.000825277 0)
(-0.000438761 -0.000752143 0)
(-5.65203e-05 -0.000678316 0)
(0.000289643 -0.000604271 0)
(0.000599572 -0.00053043 0)
(0.000873305 -0.000457164 0)
(0.00111103 -0.000384786 0)
(0.0013131 -0.000313565 0)
(0.00147996 -0.00024372 0)
(0.0016122 -0.000175442 0)
(0.00171046 -0.000108888 0)
(0.00177555 -4.4222e-05 0)
(0.00180825 1.84005e-05 0)
(0.00180964 7.87562e-05 0)
(0.00178071 0.000136594 0)
(0.00172299 0.000191488 0)
(0.00163776 0.000242937 0)
(0.00152739 0.00029008 0)
(0.00139373 0.000331928 0)
(0.00124062 0.000366813 0)
(0.00107083 0.00039295 0)
(0.000890769 0.000407355 0)
(0.000704315 0.000407251 0)
(0.000521983 0.000387958 0)
(0.000348298 0.000346495 0)
(0.000199784 0.000277536 0)
(7.94482e-05 0.000182685 0)
(1.26261e-05 6.24021e-05 0)
(-1.04328e-05 2.575e-05 0)
(-8.4774e-05 0.00017116 0)
(-0.000242562 0.000347953 0)
(-0.000466865 0.000533781 0)
(-0.000761438 0.000703266 0)
(-0.00111056 0.000851543 0)
(-0.00151069 0.000972302 0)
(-0.00194898 0.0010683 0)
(-0.00242011 0.00114079 0)
(-0.00291477 0.00119448 0)
(-0.0034285 0.00123258 0)
(-0.00395535 0.0012593 0)
(-0.00449247 0.00127754 0)
(-0.00503653 0.00129025 0)
(-0.00558607 0.00129938 0)
(-0.00613951 0.00130669 0)
(-0.00669633 0.00131324 0)
(-0.00725595 0.00131988 0)
(-0.00781834 0.00132704 0)
(-0.0083834 0.00133498 0)
(-0.00895124 0.00134376 0)
(-0.00952188 0.00135331 0)
(-0.0100954 0.00136345 0)
(-0.0106717 0.00137395 0)
(-0.0112507 0.00138455 0)
(-0.0118322 0.00139492 0)
(-0.0124159 0.00140473 0)
(-0.0130012 0.00141365 0)
(-0.0135877 0.00142131 0)
(-0.0141744 0.00142736 0)
(-0.0147606 0.00143141 0)
(-0.0153453 0.00143311 0)
(-0.0159273 0.00143208 0)
(-0.0165053 0.00142794 0)
(-0.0170778 0.00142034 0)
(-0.0176434 0.00140891 0)
(-0.0182003 0.0013933 0)
(-0.0187467 0.00137316 0)
(-0.0192808 0.00134819 0)
(-0.0198005 0.00131808 0)
(-0.0203036 0.00128254 0)
(-0.0207881 0.00124133 0)
(-0.0212517 0.00119423 0)
(-0.021692 0.00114106 0)
(-0.0221069 0.00108166 0)
(-0.0224939 0.00101593 0)
(-0.0228508 0.000943819 0)
(-0.0231753 0.000865307 0)
(-0.0234651 0.000780434 0)
(-0.023718 0.000689296 0)
(-0.0239319 0.00059204 0)
(-0.0241049 0.000488875 0)
(-0.0242351 0.000380069 0)
(-0.0243207 0.000265956 0)
(-0.0243601 0.000146929 0)
(-0.0243521 2.34513e-05 0)
(-0.0242953 -0.00010395 0)
(-0.0241889 -0.000234683 0)
(-0.0240321 -0.000368087 0)
(-0.0238244 -0.000503443 0)
(-0.0235657 -0.000639967 0)
(-0.023256 -0.000776821 0)
(-0.0228958 -0.000913117 0)
(-0.0224857 -0.00104792 0)
(-0.0220268 -0.00118027 0)
(-0.0215205 -0.00130918 0)
(-0.0209684 -0.00143363 0)
(-0.0203725 -0.00155262 0)
(-0.0197352 -0.00166516 0)
(-0.0190591 -0.0017703 0)
(-0.0183473 -0.0018671 0)
(-0.0176029 -0.00195472 0)
(-0.0168294 -0.00203238 0)
(-0.0160307 -0.00209937 0)
(-0.0152106 -0.00215511 0)
(-0.0143731 -0.00219912 0)
(-0.0135227 -0.00223107 0)
(-0.0126635 -0.00225072 0)
(-0.0117999 -0.00225802 0)
(-0.0109362 -0.00225301 0)
(-0.0100767 -0.00223591 0)
(-0.00922575 -0.00220704 0)
(-0.00838724 -0.00216688 0)
(-0.00756511 -0.002116 0)
(-0.00676304 -0.00205508 0)
(-0.00598445 -0.00198491 0)
(-0.0052325 -0.00190632 0)
(-0.00451007 -0.00182022 0)
(-0.0038197 -0.00172753 0)
(-0.00316365 -0.00162922 0)
(-0.00254384 -0.00152622 0)
(-0.00196189 -0.00141947 0)
(-0.0014191 -0.00130985 0)
(-0.00091647 -0.00119822 0)
(-0.000454746 -0.00108534 0)
(-3.44003e-05 -0.00097193 0)
(0.000344315 -0.000858627 0)
(0.00068137 -0.000745987 0)
(0.000976895 -0.000634488 0)
(0.00123121 -0.000524542 0)
(0.00144474 -0.000416492 0)
(0.00161808 -0.000310641 0)
(0.00175187 -0.000207253 0)
(0.00184697 -0.0001066 0)
(0.00190422 -8.95791e-06 0)
(0.00192479 8.53009e-05 0)
(0.00190979 0.000175732 0)
(0.00186092 0.000261657 0)
(0.00177968 0.000342229 0)
(0.00166874 0.000416137 0)
(0.00153023 0.00048179 0)
(0.00136853 0.000536768 0)
(0.00118672 0.000578315 0)
(0.000991995 0.000602331 0)
(0.000788515 0.000604645 0)
(0.000587946 0.000579201 0)
(0.000394962 0.000521243 0)
(0.000228309 0.000424042 0)
(9.13373e-05 0.000286399 0)
(1.45688e-05 0.000105973 0)
(-1.57798e-05 7.26788e-05 0)
(-0.000118328 0.000307335 0)
(-0.000326658 0.000566992 0)
(-0.000612773 0.000827829 0)
(-0.000980314 0.00106302 0)
(-0.0014082 0.00126734 0)
(-0.00189302 0.00143441 0)
(-0.00241951 0.00156777 0)
(-0.00298245 0.00166954 0)
(-0.00357135 0.00174573 0)
(-0.00418175 0.00180072 0)
(-0.00480702 0.00183994 0)
(-0.00544419 0.00186734 0)
(-0.00608951 0.00188679 0)
(-0.00674139 0.00190099 0)
(-0.00739794 0.00191227 0)
(-0.00805851 0.00192214 0)
(-0.00872231 0.00193174 0)
(-0.00938917 0.0019417 0)
(-0.0100588 0.0019524 0)
(-0.0107312 0.00196392 0)
(-0.0114062 0.0019762 0)
(-0.0120838 0.00198901 0)
(-0.0127638 0.00200203 0)
(-0.0134459 0.0020149 0)
(-0.0141296 0.00202718 0)
(-0.0148145 0.0020384 0)
(-0.0155 0.0020481 0)
(-0.0161851 0.00205578 0)
(-0.016869 0.00206091 0)
(-0.0175506 0.002063 0)
(-0.0182284 0.00206151 0)
(-0.0189013 0.00205594 0)
(-0.0195675 0.00204576 0)
(-0.0202254 0.00203048 0)
(-0.020873 0.0020096 0)
(-0.0215085 0.00198265 0)
(-0.0221296 0.00194917 0)
(-0.0227343 0.00190874 0)
(-0.0233201 0.00186096 0)
(-0.0238847 0.00180548 0)
(-0.0244257 0.00174199 0)
(-0.0249405 0.00167021 0)
(-0.0254266 0.00158995 0)
(-0.0258815 0.00150105 0)
(-0.0263026 0.0014034 0)
(-0.0266876 0.00129699 0)
(-0.0270338 0.00118184 0)
(-0.0273391 0.00105807 0)
(-0.0276011 0.000925853 0)
(-0.0278177 0.000785455 0)
(-0.0279869 0.000637209 0)
(-0.0281067 0.000481533 0)
(-0.0281756 0.000318926 0)
(-0.028192 0.00014997 0)
(-0.0281546 -2.46678e-05 0)
(-0.0280624 -0.000204237 0)
(-0.0279145 -0.000387904 0)
(-0.0277104 -0.000574751 0)
(-0.0274498 -0.000763783 0)
(-0.0271327 -0.000953929 0)
(-0.0267594 -0.00114405 0)
(-0.0263305 -0.00133294 0)
(-0.025847 -0.00151934 0)
(-0.0253102 -0.00170196 0)
(-0.0247216 -0.00187948 0)
(-0.0240833 -0.00205054 0)
(-0.0233976 -0.00221382 0)
(-0.0226671 -0.002368 0)
(-0.0218947 -0.0025118 0)
(-0.0210838 -0.00264401 0)
(-0.020238 -0.0027635 0)
(-0.019361 -0.00286924 0)
(-0.018457 -0.0029603 0)
(-0.0175302 -0.00303593 0)
(-0.0165852 -0.0030955 0)
(-0.0156264 -0.00313856 0)
(-0.0146587 -0.00316482 0)
(-0.0136866 -0.00317421 0)
(-0.0127149 -0.00316681 0)
(-0.0117484 -0.00314289 0)
(-0.0107914 -0.00310293 0)
(-0.00984841 -0.00304753 0)
(-0.00892368 -0.00297749 0)
(-0.00802115 -0.00289372 0)
(-0.00714455 -0.00279726 0)
(-0.00629731 -0.00268926 0)
(-0.00548255 -0.00257091 0)
(-0.00470305 -0.00244347 0)
(-0.00396125 -0.00230823 0)
(-0.00325926 -0.00216646 0)
(-0.00259884 -0.0020194 0)
(-0.00198143 -0.00186826 0)
(-0.00140813 -0.00171418 0)
(-0.00087979 -0.00155821 0)
(-0.000396939 -0.00140132 0)
(4.01101e-05 -0.00124435 0)
(0.000431283 -0.00108808 0)
(0.000776682 -0.000933155 0)
(0.00107661 -0.000780144 0)
(0.00133147 -0.000629527 0)
(0.00154187 -0.000481731 0)
(0.00170846 -0.000337139 0)
(0.00183212 -0.000196148 0)
(0.00191373 -5.91787e-05 0)
(0.00195453 7.32247e-05 0)
(0.00195568 0.000200392 0)
(0.00191903 0.000321356 0)
(0.0018462 0.000434881 0)
(0.00174008 0.000539163 0)
(0.001603 0.00063196 0)
(0.00143966 0.000710069 0)
(0.00125335 0.00076972 0)
(0.00105177 0.000805691 0)
(0.000839253 0.000812355 0)
(0.000628277 0.000782229 0)
(0.000423658 0.000708498 0)
(0.000245786 0.000582577 0)
(9.85175e-05 0.000399534 0)
(1.5653e-05 0.000153384 0)
(-2.06299e-05 0.000136008 0)
(-0.000150129 0.000483454 0)
(-0.000407642 0.000842921 0)
(-0.000754401 0.00119062 0)
(-0.00119368 0.00150005 0)
(-0.00169876 0.00176654 0)
(-0.00226616 0.00198455 0)
(-0.00287799 0.00215879 0)
(-0.00352916 0.00229268 0)
(-0.00420798 0.00239363 0)
(-0.00491006 0.00246737 0)
(-0.00562819 0.00252064 0)
(-0.00635942 0.00255846 0)
(-0.00709964 0.00258568 0)
(-0.0078472 0.00260576 0)
(-0.00859998 0.00262164 0)
(-0.00935721 0.00263527 0)
(-0.0101179 0.00264812 0)
(-0.0108818 0.00266102 0)
(-0.0116484 0.00267447 0)
(-0.0124175 0.00268858 0)
(-0.0131889 0.00270328 0)
(-0.0139624 0.00271828 0)
(-0.0147374 0.0027332 0)
(-0.0155137 0.00274753 0)
(-0.0162906 0.00276073 0)
(-0.0170673 0.00277218 0)
(-0.0178431 0.00278127 0)
(-0.0186169 0.00278733 0)
(-0.0193875 0.00278969 0)
(-0.0201535 0.00278768 0)
(-0.0209134 0.00278063 0)
(-0.0216656 0.00276785 0)
(-0.0224081 0.00274869 0)
(-0.023139 0.00272249 0)
(-0.0238562 0.00268862 0)
(-0.0245574 0.00264649 0)
(-0.0252403 0.00259552 0)
(-0.0259023 0.0025352 0)
(-0.0265409 0.00246506 0)
(-0.0271535 0.00238466 0)
(-0.0277375 0.00229366 0)
(-0.0282902 0.00219177 0)
(-0.0288088 0.00207876 0)
(-0.0292907 0.00195451 0)
(-0.0297334 0.00181894 0)
(-0.0301341 0.0016721 0)
(-0.0304906 0.00151409 0)
(-0.0308003 0.00134513 0)
(-0.031061 0.00116551 0)
(-0.0312708 0.000975629 0)
(-0.0314275 0.000775987 0)
(-0.0315294 0.000567174 0)
(-0.0315751 0.000349882 0)
(-0.031563 0.000124903 0)
(-0.0314921 -0.000106871 0)
(-0.0313615 -0.000344444 0)
(-0.0311705 -0.000586725 0)
(-0.0309188 -0.000832523 0)
(-0.0306063 -0.00108056 0)
(-0.0302331 -0.00132945 0)
(-0.0297998 -0.00157775 0)
(-0.0293071 -0.00182392 0)
(-0.0287564 -0.00206639 0)
(-0.0281489 -0.0023035 0)
(-0.0274866 -0.0025336 0)
(-0.0267717 -0.00275498 0)
(-0.0260067 -0.00296598 0)
(-0.0251944 -0.00316494 0)
(-0.024338 -0.00335025 0)
(-0.023441 -0.0035204 0)
(-0.0225074 -0.00367397 0)
(-0.0215411 -0.00380966 0)
(-0.0205466 -0.00392633 0)
(-0.0195283 -0.00402301 0)
(-0.0184911 -0.00409893 0)
(-0.0174399 -0.00415352 0)
(-0.0163796 -0.00418644 0)
(-0.0153152 -0.00419758 0)
(-0.0142518 -0.00418707 0)
(-0.0131944 -0.00415527 0)
(-0.0121477 -0.00410276 0)
(-0.0111166 -0.00403035 0)
(-0.0101053 -0.00393903 0)
(-0.00911836 -0.00382999 0)
(-0.00815956 -0.00370455 0)
(-0.00723259 -0.00356417 0)
(-0.00634076 -0.00341038 0)
(-0.00548703 -0.0032448 0)
(-0.00467398 -0.00306905 0)
(-0.00390385 -0.00288478 0)
(-0.00317849 -0.00269357 0)
(-0.0024994 -0.00249697 0)
(-0.00186775 -0.00229642 0)
(-0.0012844 -0.00209329 0)
(-0.000749913 -0.00188879 0)
(-0.000264602 -0.00168403 0)
(0.000171469 -0.00147998 0)
(0.000558415 -0.00127748 0)
(0.000896558 -0.00107727 0)
(0.00118633 -0.000879963 0)
(0.00142837 -0.000686126 0)
(0.00162334 -0.000496267 0)
(0.00177217 -0.000310918 0)
(0.00187577 -0.000130657 0)
(0.00193544 4.37814e-05 0)
(0.00195239 0.00021148 0)
(0.00192858 0.000371155 0)
(0.00186566 0.000521149 0)
(0.00176671 0.000659132 0)
(0.00163413 0.000782168 0)
(0.00147286 0.000886234 0)
(0.00128629 0.000966491 0)
(0.00108248 0.00101655 0)
(0.000865868 0.00102924 0)
(0.000649549 0.000995517 0)
(0.000438556 0.000906295 0)
(0.000254493 0.000750778 0)
(0.000101726 0.000520003 0)
(1.59476e-05 0.00020384 0)
(-2.52293e-05 0.000214477 0)
(-0.000180606 0.000697292 0)
(-0.000485544 0.00117273 0)
(-0.000891058 0.00161832 0)
(-0.0013999 0.00200946 0)
(-0.00197973 0.00234305 0)
(-0.00262682 0.00261536 0)
(-0.00332063 0.0028328 0)
(-0.00405612 0.00300052 0)
(-0.00482039 0.00312756 0)
(-0.00560921 0.00322115 0)
(-0.00641482 0.00328936 0)
(-0.00723433 0.00333837 0)
(-0.00806336 0.003374 0)
(-0.00890024 0.00340047 0)
(-0.00974265 0.00342133 0)
(-0.0105897 0.00343895 0)
(-0.0114404 0.00345512 0)
(-0.0122941 0.00347088 0)
(-0.0131503 0.00348682 0)
(-0.0140087 0.00350311 0)
(-0.0148688 0.00351964 0)
(-0.0157301 0.00353608 0)
(-0.0165921 0.00355193 0)
(-0.0174543 0.00356659 0)
(-0.0183156 0.00357935 0)
(-0.0191754 0.00358946 0)
(-0.0200324 0.00359615 0)
(-0.0208853 0.00359857 0)
(-0.0217329 0.00359591 0)
(-0.0225733 0.00358731 0)
(-0.023405 0.00357194 0)
(-0.0242259 0.00354895 0)
(-0.025034 0.00351754 0)
(-0.0258269 0.0034769 0)
(-0.0266025 0.00342629 0)
(-0.027358 0.00336497 0)
(-0.0280911 0.0032923 0)
(-0.0287989 0.00320765 0)
(-0.0294787 0.0031105 0)
(-0.0301278 0.00300039 0)
(-0.0307434 0.00287693 0)
(-0.0313226 0.00273984 0)
(-0.0318628 0.00258892 0)
(-0.0323611 0.00242409 0)
(-0.032815 0.00224535 0)
(-0.0332219 0.00205282 0)
(-0.0335793 0.00184673 0)
(-0.033885 0.00162741 0)
(-0.0341369 0.00139532 0)
(-0.0343329 0.00115101 0)
(-0.0344712 0.000895165 0)
(-0.0345503 0.000628559 0)
(-0.0345688 0.000352097 0)
(-0.0345254 6.67941e-05 0)
(-0.0344192 -0.000226223 0)
(-0.0342496 -0.000525712 0)
(-0.034016 -0.000830323 0)
(-0.0337183 -0.00113859 0)
(-0.0333565 -0.00144895 0)
(-0.0329311 -0.00175973 0)
(-0.0324426 -0.00206916 0)
(-0.0318921 -0.00237541 0)
(-0.0312808 -0.00267654 0)
(-0.0306103 -0.00297059 0)
(-0.0298827 -0.00325555 0)
(-0.0291002 -0.00352937 0)
(-0.0282654 -0.00379004 0)
(-0.0273815 -0.00403556 0)
(-0.0264516 -0.004264 0)
(-0.0254796 -0.00447353 0)
(-0.0244693 -0.00466241 0)
(-0.0234251 -0.00482909 0)
(-0.0223515 -0.00497217 0)
(-0.0212534 -0.00509049 0)
(-0.0201357 -0.0051831 0)
(-0.0190036 -0.00524931 0)
(-0.0178624 -0.00528872 0)
(-0.0167173 -0.00530118 0)
(-0.0155738 -0.00528686 0)
(-0.014437 -0.00524619 0)
(-0.0133121 -0.00517991 0)
(-0.0122042 -0.005089 0)
(-0.0111179 -0.00497469 0)
(-0.0100578 -0.00483843 0)
(-0.00902813 -0.00468186 0)
(-0.0080327 -0.00450678 0)
(-0.00707502 -0.00431508 0)
(-0.0061582 -0.00410876 0)
(-0.00528495 -0.00388981 0)
(-0.00445758 -0.00366027 0)
(-0.003678 -0.00342209 0)
(-0.00294774 -0.00317717 0)
(-0.00226798 -0.0029273 0)
(-0.00163954 -0.00267414 0)
(-0.00106294 -0.00241921 0)
(-0.000538447 -0.00216384 0)
(-6.6055e-05 -0.00190925 0)
(0.000354424 -0.00165645 0)
(0.000723387 -0.00140635 0)
(0.00104134 -0.00115972 0)
(0.001309 -0.000917237 0)
(0.00152709 -0.000679549 0)
(0.00169662 -0.000447319 0)
(0.00181854 -0.000221285 0)
(0.00189423 -2.37428e-06 0)
(0.00192496 0.000208241 0)
(0.00191274 0.000408953 0)
(0.0018593 0.000597672 0)
(0.00176779 0.00077153 0)
(0.00164069 0.000926884 0)
(0.00148308 0.00105888 0)
(0.0012984 0.00116158 0)
(0.00109497 0.00122741 0)
(0.000877294 0.00124759 0)
(0.000658909 0.00121139 0)
(0.000445071 0.00110732 0)
(0.000258152 0.000922056 0)
(0.000102961 0.0006426 0)
(1.59869e-05 0.000254652 0)
(-2.94693e-05 0.000307579 0)
(-0.000209237 0.000947787 0)
(-0.000559257 0.00155531 0)
(-0.00102094 0.0021101 0)
(-0.00159648 0.00259076 0)
(-0.00224805 0.00299667 0)
(-0.00297154 0.00332677 0)
(-0.00374375 0.00358971 0)
(-0.00455958 0.00379285 0)
(-0.00540498 0.0039471 0)
(-0.0062758 0.00406138 0)
(-0.00716377 0.00414519 0)
(-0.00806612 0.00420592 0)
(-0.0089782 0.00425036 0)
(-0.00989837 0.00428352 0)
(-0.0108242 0.00430953 0)
(-0.0117547 0.0043312 0)
(-0.0126886 0.00435062 0)
(-0.0136253 0.004369 0)
(-0.0145642 0.00438706 0)
(-0.0155046 0.00440497 0)
(-0.016446 0.00442261 0)
(-0.0173877 0.00443956 0)
(-0.018329 0.00445524 0)
(-0.0192691 0.0044689 0)
(-0.0202069 0.0044797 0)
(-0.0211413 0.00448674 0)
(-0.022071 0.00448904 0)
(-0.0229944 0.00448563 0)
(-0.02391 0.00447549 0)
(-0.0248158 0.00445761 0)
(-0.0257099 0.00443098 0)
(-0.0265901 0.00439459 0)
(-0.0274541 0.0043475 0)
(-0.0282994 0.00428876 0)
(-0.0291234 0.0042175 0)
(-0.0299234 0.00413289 0)
(-0.0306968 0.00403419 0)
(-0.0314405 0.00392073 0)
(-0.0321519 0.00379193 0)
(-0.0328279 0.00364732 0)
(-0.0334657 0.00348652 0)
(-0.0340625 0.00330928 0)
(-0.0346154 0.00311546 0)
(-0.0351219 0.00290505 0)
(-0.0355793 0.00267817 0)
(-0.0359852 0.00243504 0)
(-0.0363372 0.00217603 0)
(-0.0366332 0.00190165 0)
(-0.0368712 0.00161249 0)
(-0.0370495 0.00130932 0)
(-0.0371664 0.000992994 0)
(-0.0372205 0.000664506 0)
(-0.0372106 0.000324971 0)
(-0.0371358 -2.43736e-05 0)
(-0.0369953 -0.000382169 0)
(-0.0367887 -0.000746934 0)
(-0.0365155 -0.00111707 0)
(-0.0361758 -0.00149084 0)
(-0.0357697 -0.00186642 0)
(-0.0352978 -0.00224186 0)
(-0.0347607 -0.00261509 0)
(-0.0341596 -0.00298396 0)
(-0.0334957 -0.00334623 0)
(-0.0327707 -0.0036996 0)
(-0.0319866 -0.00404171 0)
(-0.0311457 -0.00437019 0)
(-0.0302507 -0.00468265 0)
(-0.0293046 -0.00497676 0)
(-0.0283108 -0.00525023 0)
(-0.0272731 -0.00550089 0)
(-0.0261955 -0.00572669 0)
(-0.0250824 -0.00592578 0)
(-0.0239386 -0.00609648 0)
(-0.0227691 -0.00623739 0)
(-0.0215791 -0.00634738 0)
(-0.0203739 -0.00642561 0)
(-0.0191593 -0.00647157 0)
(-0.0179408 -0.0064851 0)
(-0.016724 -0.00646636 0)
(-0.0155146 -0.0064159 0)
(-0.0143181 -0.00633455 0)
(-0.0131399 -0.00622352 0)
(-0.011985 -0.00608428 0)
(-0.0108583 -0.00591858 0)
(-0.00976429 -0.0057284 0)
(-0.00870705 -0.0055159 0)
(-0.00769032 -0.0052834 0)
(-0.00671737 -0.00503327 0)
(-0.00579105 -0.00476797 0)
(-0.00491373 -0.00448992 0)
(-0.00408738 -0.0042015 0)
(-0.00331352 -0.00390501 0)
(-0.00259327 -0.00360259 0)
(-0.0019274 -0.00329624 0)
(-0.00131633 -0.00298777 0)
(-0.000760195 -0.00267882 0)
(-0.000258855 -0.00237079 0)
(0.000188017 -0.00206492 0)
(0.000580966 -0.00176227 0)
(0.000920641 -0.00146375 0)
(0.00120788 -0.00117017 0)
(0.00144356 -0.000882301 0)
(0.00162879 -0.000600928 0)