/*--------------------------------*- C++ -*----------------------------------*\
| =========                 |                                                 |
| \\      /  F ield         | OpenFOAM: The Open Source CFD Toolbox           |
|  \\    /   O peration     | Version:  2406                                  |
|   \\  /    A nd           | Website:  www.openfoam.com                      |
|    \\/     M anipulation  |                                                 |
\*---------------------------------------------------------------------------*/
FoamFile
{
    version     2.0;
    format      ascii;
    arch        "LSB;label=32;scalar=64";
    class       volVectorField;
    location    "38.7";
    object      U;
}
// * * * * * * * * * * * * * * * * * * * * * * * * * * * * * * * * * * * * * //

dimensions      [0 1 -1 0 0 0 0];

internalField   nonuniform List<vector> 
14400
(
(-6.34863e-06 6.24727e-06 0)
(1.77076e-05 -1.19068e-05 0)
(0.000127035 -3.51216e-05 0)
(0.00031618 -5.36818e-05 0)
(0.00056506 -6.63444e-05 0)
(0.000851485 -7.30265e-05 0)
(0.00115358 -7.43888e-05 0)
(0.00145222 -7.13514e-05 0)
(0.00173202 -6.50049e-05 0)
(0.00198187 -5.64914e-05 0)
(0.00219503 -4.69151e-05 0)
(0.00236883 -3.72565e-05 0)
(0.00250414 -2.83083e-05 0)
(0.00260455 -2.06349e-05 0)
(0.00267547 -1.45567e-05 0)
(0.00272319 -1.01493e-05 0)
(0.00275409 -7.31466e-06 0)
(0.00277371 -5.89984e-06 0)
(0.0027862 -5.50489e-06 0)
(0.00279405 -5.67321e-06 0)
(0.00279774 -5.8706e-06 0)
(0.00279619 -5.3478e-06 0)
(0.00278684 -3.86392e-06 0)
(0.00276551 -1.30033e-06 0)
(0.00272713 2.49291e-06 0)
(0.00266608 7.61054e-06 0)
(0.00257644 1.40926e-05 0)
(0.00245215 2.19568e-05 0)
(0.00228706 3.1221e-05 0)
(0.0020749 4.19168e-05 0)
(0.0018093 5.40914e-05 0)
(0.0014837 6.78012e-05 0)
(0.0010914 8.30993e-05 0)
(0.000625615 0.000100022 0)
(7.95727e-05 0.000118576 0)
(-0.000553303 0.000138729 0)
(-0.0012792 0.000160403 0)
(-0.0021037 0.000183468 0)
(-0.00303152 0.00020774 0)
(-0.00406629 0.00023298 0)
(-0.00521028 0.000258893 0)
(-0.00646418 0.000285131 0)
(-0.00782686 0.000311297 0)
(-0.00929518 0.000336946 0)
(-0.0108638 0.000361596 0)
(-0.0125252 0.000384736 0)
(-0.0142695 0.000405829 0)
(-0.0160842 0.000424329 0)
(-0.0179548 0.000439681 0)
(-0.0198643 0.000451334 0)
(-0.0217938 0.000458751 0)
(-0.0237224 0.00046141 0)
(-0.0256273 0.000458815 0)
(-0.0274844 0.000450504 0)
(-0.0292684 0.000436055 0)
(-0.0309531 0.000415096 0)
(-0.0325115 0.000387309 0)
(-0.0339169 0.000352454 0)
(-0.0351422 0.000310372 0)
(-0.0361615 0.000260898 0)
(-0.0369502 0.000204281 0)
(-0.0374854 0.000142286 0)
(-0.0377435 7.55385e-05 0)
(-0.0377046 1.47027e-06 0)
(-0.0373559 -7.91217e-05 0)
(-0.0366864 -0.000163512 0)
(-0.0356881 -0.000250225 0)
(-0.0343593 -0.000337894 0)
(-0.032704 -0.000424834 0)
(-0.0307324 -0.000509165 0)
(-0.0284614 -0.00058886 0)
(-0.0259145 -0.000661803 0)
(-0.0231222 -0.000725878 0)
(-0.0201216 -0.000779055 0)
(-0.0169557 -0.0008195 0)
(-0.0136731 -0.000845672 0)
(-0.0103261 -0.000856426 0)
(-0.00697044 -0.000851105 0)
(-0.00366275 -0.000829604 0)
(-0.00045938 -0.000792413 0)
(0.00258567 -0.000740622 0)
(0.00542249 -0.000675891 0)
(0.00800705 -0.000600374 0)
(0.0103026 -0.000516615 0)
(0.0122812 -0.000427412 0)
(0.0139239 -0.00033566 0)
(0.0152218 -0.000244199 0)
(0.0161757 -0.000155648 0)
(0.0167956 -7.22004e-05 0)
(0.0171007 3.91136e-06 0)
(0.0171155 6.95867e-05 0)
(0.0168687 0.000124812 0)
(0.0163965 0.000171505 0)
(0.0157378 0.000209164 0)
(0.0149296 0.000236944 0)
(0.0140085 0.00025546 0)
(0.0130095 0.000265732 0)
(0.0119648 0.000268836 0)
(0.0109026 0.000265913 0)
(0.00984737 0.000258114 0)
(0.00881885 0.000246545 0)
(0.00783273 0.000232233 0)
(0.00690058 0.000216101 0)
(0.00603027 0.000198951 0)
(0.0052264 0.000181461 0)
(0.00449079 0.00016419 0)
(0.00382295 0.000147582 0)
(0.00322054 0.000131977 0)
(0.00267983 0.000117611 0)
(0.00219616 0.000104615 0)
(0.00176448 9.29891e-05 0)
(0.0013799 8.2576e-05 0)
(0.00103846 7.30192e-05 0)
(0.000737943 6.37317e-05 0)
(0.000478762 5.38912e-05 0)
(0.000264584 4.25376e-05 0)
(0.000102423 2.88415e-05 0)
(1.11762e-06 1.25909e-05 0)
(-3.51427e-05 -4.07593e-06 0)
(-1.34537e-05 -1.34723e-05 0)
(1.08044e-05 -1.68685e-05 0)
(0.000155741 -0.000159955 0)
(0.000480148 -0.000331115 0)
(0.000976174 -0.000472448 0)
(0.00159805 -0.000570862 0)
(0.00230071 -0.000624071 0)
(0.00303683 -0.000635359 0)
(0.00376357 -0.000611054 0)
(0.00444545 -0.000559196 0)
(0.00505589 -0.000488527 0)
(0.00557769 -0.000407683 0)
(0.00600267 -0.000324484 0)
(0.00633054 -0.000245376 0)
(0.00656725 -0.000175074 0)
(0.00672305 -0.000116392 0)
(0.00681037 -7.02657e-05 0)
(0.00684178 -3.59568e-05 0)
(0.00682834 -1.14306e-05 0)
(0.00677811 6.45196e-06 0)
(0.00669517 2.14934e-05 0)
(0.00657938 3.764e-05 0)
(0.00642603 5.87675e-05 0)
(0.00622634 8.78932e-05 0)
(0.00596856 0.000127292 0)
(0.00563849 0.000178558 0)
(0.0052203 0.000242659 0)
(0.00469724 0.000320101 0)
(0.00405204 0.000411135 0)
(0.00326723 0.000515919 0)
(0.00232528 0.00063462 0)
(0.00120865 0.000767424 0)
(-0.000100014 0.000914481 0)
(-0.0016177 0.0010758 0)
(-0.00336064 0.00125116 0)
(-0.00534386 0.00143997 0)
(-0.00758059 0.00164123 0)
(-0.0100817 0.00185343 0)
(-0.0128548 0.00207457 0)
(-0.0159039 0.00230211 0)
(-0.0192287 0.00253299 0)
(-0.0228237 0.00276365 0)
(-0.0266783 0.00299009 0)
(-0.030776 0.00320796 0)
(-0.0350946 0.00341262 0)
(-0.0396056 0.00359923 0)
(-0.0442753 0.00376292 0)
(-0.0490642 0.00389886 0)
(-0.0539281 0.00400238 0)
(-0.0588184 0.0040691 0)
(-0.0636831 0.00409501 0)
(-0.0684673 0.00407657 0)
(-0.0731146 0.00401076 0)
(-0.0775672 0.00389515 0)
(-0.0817675 0.00372794 0)
(-0.0856584 0.00350799 0)
(-0.0891846 0.00323487 0)
(-0.0922928 0.00290883 0)
(-0.0949328 0.00253089 0)
(-0.0970581 0.00210286 0)
(-0.0986265 0.00162732 0)
(-0.0996001 0.00110788 0)
(-0.0999474 0.000550077 0)
(-0.0996446 -3.99804e-05 0)
(-0.0986707 -0.000658786 0)
(-0.0970126 -0.00129934 0)
(-0.0946674 -0.00195232 0)
(-0.0916396 -0.00260822 0)
(-0.0879428 -0.00325669 0)
(-0.0835993 -0.00388667 0)
(-0.0786417 -0.00448644 0)
(-0.073112 -0.0050439 0)
(-0.0670624 -0.00554689 0)
(-0.0605549 -0.00598351 0)
(-0.0536608 -0.00634253 0)
(-0.04646 -0.00661389 0)
(-0.0390399 -0.00678911 0)
(-0.0314943 -0.00686181 0)
(-0.0239215 -0.00682808 0)
(-0.0164224 -0.0066869 0)
(-0.00909824 -0.00644031 0)
(-0.00204815 -0.00609356 0)
(0.00463329 -0.0056551 0)
(0.0108587 -0.0051363 0)
(0.0165502 -0.00455111 0)
(0.0216419 -0.00391556 0)
(0.0260815 -0.00324705 0)
(0.0298322 -0.00256364 0)
(0.0328732 -0.00188331 0)
(0.0352003 -0.00122317 0)
(0.0368251 -0.00059896 0)
(0.0377754 -2.52112e-05 0)
(0.0380942 0.000488328 0)
(0.0378362 0.000936208 0)
(0.037064 0.00131318 0)
(0.035848 0.00161636 0)
(0.0342639 0.00184668 0)
(0.0323878 0.00200769 0)
(0.0302947 0.00210492 0)
(0.0280553 0.00214534 0)
(0.0257346 0.00213691 0)
(0.02339 0.00208801 0)
(0.0210706 0.00200707 0)
(0.0188166 0.00190212 0)
(0.0166593 0.00178059 0)
(0.0146215 0.0016491 0)
(0.0127185 0.00151332 0)
(0.0109584 0.001378 0)
(0.00934401 0.00124694 0)
(0.00787303 0.00112293 0)
(0.00653996 0.00100773 0)
(0.00533717 0.000901887 0)
(0.00425654 0.000804569 0)
(0.00329113 0.000713305 0)
(0.0024371 0.000623896 0)
(0.00169536 0.000530584 0)
(0.00107275 0.000426929 0)
(0.000581698 0.000307895 0)
(0.000236121 0.000174286 0)
(4.61363e-05 4.07236e-05 0)
(-2.97429e-06 -3.41756e-05 0)
(3.23726e-05 -0.000120589 0)
(0.000317553 -0.000480427 0)
(0.000839919 -0.000856444 0)
(0.00158633 -0.00116556 0)
(0.00248924 -0.00138148 0)
(0.00349155 -0.00149767 0)
(0.00453149 -0.00151961 0)
(0.00555228 -0.00146012 0)
(0.00650615 -0.00133638 0)
(0.00735654 -0.00116756 0)
(0.00807886 -0.000972906 0)
(0.00866015 -0.000770024 0)
(0.00909773 -0.000573592 0)
(0.00939713 -0.000394475 0)
(0.00956951 -0.00023929 0)
(0.00962894 -0.000110375 0)
(0.00958964 -6.11248e-06 0)
(0.00946368 7.84194e-05 0)
(0.00925905 0.00015049 0)
(0.00897824 0.000218889 0)
(0.00861764 0.000292782 0)
(0.00816752 0.000380709 0)
(0.00761258 0.000490159 0)
(0.006933 0.000626977 0)
(0.00610555 0.000795236 0)
(0.00510466 0.000997458 0)
(0.00390342 0.001235 0)
(0.00247435 0.00150847 0)
(0.000789888 0.00181806 0)
(-0.0011771 0.00216372 0)
(-0.00345294 0.00254517 0)
(-0.00606264 0.00296172 0)
(-0.00902919 0.00341206 0)
(-0.0123727 0.00389401 0)
(-0.0161097 0.00440429 0)
(-0.0202516 0.00493834 0)
(-0.024804 0.0054903 0)
(-0.0297657 0.00605295 0)
(-0.0351277 0.00661777 0)
(-0.0408723 0.0071751 0)
(-0.046973 0.00771428 0)
(-0.0533943 0.00822397 0)
(-0.0600917 0.00869237 0)
(-0.0670122 0.00910762 0)
(-0.0740956 0.00945812 0)
(-0.0812749 0.00973285 0)
(-0.0884782 0.00992175 0)
(-0.09563 0.0100159 0)
(-0.102653 0.0100079 0)
(-0.109468 0.00989175 0)
(-0.116 0.00966328 0)
(-0.122172 0.00931992 0)
(-0.127913 0.00886079 0)
(-0.133157 0.0082866 0)
(-0.13784 0.00759958 0)
(-0.141906 0.00680339 0)
(-0.145305 0.00590302 0)
(-0.147991 0.00490473 0)
(-0.149927 0.00381604 0)
(-0.151081 0.00264565 0)
(-0.151427 0.00140328 0)
(-0.150947 9.95379e-05 0)
(-0.14963 -0.00125262 0)
(-0.147472 -0.00263845 0)
(-0.144475 -0.00404377 0)
(-0.140649 -0.00545286 0)
(-0.13601 -0.00684806 0)
(-0.130585 -0.0082104 0)
(-0.124408 -0.00951991 0)
(-0.11752 -0.0107558 0)
(-0.109974 -0.0118969 0)
(-0.101829 -0.0129219 0)
(-0.0931533 -0.01381 0)
(-0.0840254 -0.0145418 0)
(-0.0745309 -0.0150993 0)
(-0.0647631 -0.0154675 0)
(-0.0548221 -0.0156344 0)
(-0.0448131 -0.0155922 0)
(-0.0348454 -0.0153377 0)
(-0.0250298 -0.0148729 0)
(-0.0154772 -0.0142052 0)
(-0.0062961 -0.0133476 0)
(0.00240999 -0.0123183 0)
(0.0105447 -0.0111406 0)
(0.0180212 -0.00984197 0)
(0.0247645 -0.00845314 0)
(0.0307132 -0.00700727 0)
(0.0358214 -0.00553856 0)
(0.0400597 -0.0040811 0)
(0.0434159 -0.00266744 0)
(0.0458964 -0.00132692 0)
(0.0475255 -8.57296e-05 0)
(0.0483432 0.00103366 0)
(0.0484036 0.00201418 0)
(0.0477762 0.00284554 0)
(0.0465411 0.00352268 0)
(0.044786 0.00404593 0)
(0.0426032 0.00442082 0)
(0.0400859 0.0046573 0)
(0.0373254 0.00476886 0)
(0.034408 0.00477149 0)
(0.031412 0.00468265 0)
(0.0284065 0.00452027 0)
(0.0254498 0.0043019 0)
(0.0225888 0.00404401 0)
(0.0198595 0.00376147 0)
(0.0172873 0.00346723 0)
(0.014888 0.0031721 0)
(0.0126693 0.00288448 0)
(0.0106328 0.00261019 0)
(0.0087751 0.00235203 0)
(0.00709088 0.00210948 0)
(0.00557473 0.00187822 0)
(0.00422377 0.00165017 0)
(0.00303988 0.00141405 0)
(0.00203102 0.00115742 0)
(0.00121099 0.00087092 0)
(0.000593678 0.000556206 0)
(0.000200318 0.000238655 0)
(1.65849e-05 1.01438e-05 0)
(4.93599e-05 -0.00029883 0)
(0.000452173 -0.000966348 0)
(0.00114121 -0.00160131 0)
(0.00209094 -0.00211317 0)
(0.00320987 -0.00246636 0)
(0.00443049 -0.00265131 0)
(0.00568067 -0.00267657 0)
(0.00689467 -0.00256281 0)
(0.00801713 -0.00233825 0)
(0.00900543 -0.00203473 0)
(0.00983035 -0.00168435 0)
(0.0104756 -0.00131661 0)
(0.0109364 -0.000956165 0)
(0.0112166 -0.000621333 0)
(0.0113265 -0.00032324 0)
(0.0112791 -6.57441e-05 0)
(0.011087 0.000154051 0)
(0.01076 0.000344765 0)
(0.0103029 0.000519217 0)
(0.00971345 0.000692714 0)
(0.00898225 0.000881321 0)
(0.00809253 0.00110022 0)
(0.007021 0.0013625 0)
(0.00573907 0.00167839 0)
(0.00421427 0.00205507 0)
(0.00241167 0.00249696 0)
(0.000295161 0.00300631 0)
(-0.00217148 0.00358378 0)
(-0.00502364 0.00422899 0)
(-0.00829501 0.00494064 0)
(-0.0120166 0.00571652 0)
(-0.0162158 0.00655313 0)
(-0.0209147 0.00744532 0)
(-0.0261291 0.00838588 0)
(-0.0318669 0.00936525 0)
(-0.0381266 0.0103714 0)
(-0.0448962 0.0113897 0)
(-0.052152 0.0124033 0)
(-0.0598586 0.0133934 0)
(-0.0679681 0.0143398 0)
(-0.0764212 0.0152211 0)
(-0.0851478 0.0160159 0)
(-0.0940689 0.0167034 0)
(-0.103098 0.0172639 0)
(-0.112145 0.0176797 0)
(-0.121115 0.0179354 0)
(-0.129914 0.0180187 0)
(-0.138451 0.0179202 0)
(-0.146638 0.017634 0)
(-0.154391 0.0171571 0)
(-0.161636 0.0164897 0)
(-0.168303 0.0156347 0)
(-0.174331 0.0145973 0)
(-0.179667 0.0133849 0)
(-0.184265 0.0120065 0)
(-0.188088 0.0104728 0)
(-0.191103 0.00879557 0)
(-0.193285 0.00698775 0)
(-0.194614 0.00506333 0)
(-0.195077 0.00303734 0)
(-0.194665 0.000925839 0)
(-0.193373 -0.0012545 0)
(-0.191201 -0.00348598 0)
(-0.188156 -0.00574782 0)
(-0.184247 -0.00801844 0)
(-0.179489 -0.0102753 0)
(-0.173902 -0.0124941 0)
(-0.167512 -0.0146488 0)
(-0.160352 -0.0167122 0)
(-0.15246 -0.0186554 0)
(-0.143884 -0.0204492 0)
(-0.134676 -0.0220638 0)
(-0.124899 -0.02347 0)
(-0.114625 -0.0246397 0)
(-0.103931 -0.0255472 0)
(-0.0929034 -0.0261697 0)
(-0.0816375 -0.026489 0)
(-0.0702334 -0.0264919 0)
(-0.0587971 -0.0261716 0)
(-0.0474379 -0.0255282 0)
(-0.0362674 -0.0245695 0)
(-0.0253966 -0.0233108 0)
(-0.0149344 -0.0217753 0)
(-0.00498496 -0.0199934 0)
(0.00435461 -0.0180019 0)
(0.012996 -0.0158431 0)
(0.0208619 -0.0135636 0)
(0.0278875 -0.0112124 0)
(0.0340223 -0.0088397 0)
(0.0392309 -0.00649514 0)
(0.0434944 -0.00422609 0)
(0.0468103 -0.00207683 0)
(0.0491926 -8.688e-05 0)
(0.0506732 0.00171124 0)
(0.0513004 0.00329265 0)
(0.0511369 0.00463995 0)
(0.0502587 0.005744 0)
(0.0487529 0.00660413 0)
(0.0467143 0.00722757 0)
(0.0442419 0.00762867 0)
(0.0414356 0.00782762 0)
(0.0383922 0.00784904 0)
(0.0352027 0.00772031 0)
(0.031949 0.00747002 0)
(0.0287022 0.00712651 0)
(0.0255217 0.00671666 0)
(0.0224544 0.00626489 0)
(0.0195351 0.00579241 0)
(0.0167878 0.00531652 0)
(0.0142272 0.00485002 0)
(0.0118605 0.00440049 0)
(0.00969007 0.00396962 0)
(0.00771626 0.00355263 0)
(0.00594006 0.00313836 0)
(0.00436588 0.00271039 0)
(0.00300345 0.00225019 0)
(0.00186853 0.00174323 0)
(0.000976867 0.00118949 0)
(0.000368761 0.000618622 0)
(3.79787e-05 0.000134397 0)
(6.19704e-05 -0.000534809 0)
(0.000556122 -0.00158049 0)
(0.00137795 -0.0025108 0)
(0.00248717 -0.00324025 0)
(0.00376826 -0.00373135 0)
(0.00514238 -0.00397543 0)
(0.0065281 -0.00398642 0)
(0.00785284 -0.00379452 0)
(0.00905633 -0.00344036 0)
(0.0100925 -0.0029696 0)
(0.0109297 -0.00242816 0)
(0.0115499 -0.00185808 0)
(0.0119467 -0.00129439 0)
(0.0121225 -0.000762881 0)
(0.0120853 -0.000278929 0)
(0.0118452 0.000152655 0)
(0.0114112 0.00053687 0)
(0.0107879 0.000887026 0)
(0.00997395 0.00122257 0)
(0.00895978 0.0015665 0)
(0.0077277 0.00194277 0)
(0.00625194 0.00237389 0)
(0.00449988 0.00287909 0)
(0.00243357 0.00347323 0)
(1.14971e-05 0.00416649 0)
(-0.00280958 0.0049648 0)
(-0.00607304 0.00587053 0)
(-0.0098209 0.00688329 0)
(-0.0140923 0.00800045 0)
(-0.0189222 0.00921729 0)
(-0.0243394 0.0105268 0)
(-0.0303649 0.0119191 0)
(-0.0370101 0.0133811 0)
(-0.0442749 0.0148959 0)
(-0.0521457 0.0164428 0)
(-0.0605949 0.0179972 0)
(-0.0695792 0.0195312 0)
(-0.0790406 0.0210141 0)
(-0.0889065 0.0224138 0)
(-0.0990919 0.0236975 0)
(-0.109501 0.0248332 0)
(-0.120031 0.0257907 0)
(-0.130575 0.026543 0)
(-0.141024 0.0270674 0)
(-0.151272 0.0273455 0)
(-0.16122 0.0273645 0)
(-0.170773 0.0271166 0)
(-0.179847 0.0265989 0)
(-0.188367 0.0258133 0)
(-0.196269 0.0247655 0)
(-0.203499 0.0234647 0)
(-0.21001 0.0219225 0)
(-0.215767 0.0201528 0)
(-0.220741 0.0181707 0)
(-0.224908 0.0159926 0)
(-0.228253 0.0136352 0)
(-0.230762 0.0111161 0)
(-0.232427 0.00845299 0)
(-0.233242 0.00566414 0)
(-0.233203 0.00276829 0)
(-0.232309 -0.000215062 0)
(-0.230561 -0.00326543 0)
(-0.227962 -0.00636145 0)
(-0.224517 -0.00948026 0)
(-0.220232 -0.0125967 0)
(-0.215118 -0.0156838 0)
(-0.209189 -0.0187127 0)
(-0.202462 -0.0216524 0)
(-0.19496 -0.0244695 0)
(-0.186712 -0.027129 0)
(-0.177752 -0.0295943 0)
(-0.168124 -0.0318281 0)
(-0.157878 -0.0337928 0)
(-0.147073 -0.035452 0)
(-0.135778 -0.0367712 0)
(-0.12407 -0.0377196 0)
(-0.112036 -0.0382711 0)
(-0.0997709 -0.038406 0)
(-0.0873752 -0.0381118 0)
(-0.0749565 -0.0373851 0)
(-0.0626259 -0.0362316 0)
(-0.0504962 -0.0346671 0)
(-0.0386792 -0.0327171 0)
(-0.0272844 -0.0304169 0)
(-0.0164154 -0.0278102 0)
(-0.00616875 -0.0249484 0)
(0.00336824 -0.0218884 0)
(0.0121192 -0.0186916 0)
(0.0200197 -0.0154216 0)
(0.0270185 -0.0121427 0)
(0.033078 -0.0089177 0)
(0.0381749 -0.00580672 0)
(0.0423007 -0.00286482 0)
(0.0454626 -0.000140679 0)
(0.0476836 0.00232386 0)
(0.0490016 0.00449599 0)
(0.0494702 0.00635275 0)
(0.049157 0.0078816 0)
(0.0481423 0.00908068 0)
(0.0465164 0.0099585 0)
(0.0443767 0.0105331 0)
(0.0418241 0.0108306 0)
(0.0389592 0.0108834 0)
(0.0358787 0.0107283 0)
(0.032672 0.010404 0)
(0.0294188 0.00994919 0)
(0.0261871 0.0094009 0)
(0.0230326 0.00879257 0)
(0.0199985 0.00815285 0)
(0.0171168 0.00750421 0)
(0.0144093 0.00686173 0)
(0.0118908 0.00623194 0)
(0.00957112 0.005612 0)
(0.00745828 0.00498974 0)
(0.00556193 0.00434509 0)
(0.00389584 0.00365398 0)
(0.00248025 0.00289537 0)
(0.00133605 0.00206285 0)
(0.000526651 0.00117983 0)
(5.76869e-05 0.000339964 0)
(7.11811e-05 -0.000814449 0)
(0.000634532 -0.00229574 0)
(0.00155835 -0.00355181 0)
(0.00278753 -0.0045076 0)
(0.00418369 -0.00512962 0)
(0.00565569 -0.00541471 0)
(0.00711285 -0.00538564 0)
(0.00847662 -0.00508468 0)
(0.00968331 -0.00456677 0)
(0.0106852 -0.00389268 0)
(0.0114498 -0.00312286 0)
(0.0119589 -0.0023121 0)
(0.0122053 -0.00150551 0)
(0.0121897 -0.000735658 0)
(0.0119174 -2.12e-05 0)
(0.0113941 0.000633312 0)
(0.0106231 0.00123634 0)
(0.00960171 0.00180723 0)
(0.00831957 0.00237322 0)
(0.00675751 0.00296598 0)
(0.00488739 0.00361798 0)
(0.00267297 0.00435925 0)
(7.15593e-05 0.00521494 0)
(-0.00296389 0.00620391 0)
(-0.00648256 0.00733834 0)
(-0.0105335 0.0086242 0)
(-0.0151637 0.0100621 0)
(-0.0204156 0.0116482 0)
(-0.0263255 0.0133746 0)
(-0.032921 0.0152292 0)
(-0.0402186 0.0171958 0)
(-0.0482215 0.0192531 0)
(-0.0569175 0.0213743 0)
(-0.0662769 0.0235275 0)
(-0.0762521 0.0256754 0)
(-0.0867771 0.0277768 0)
(-0.0977689 0.0297873 0)
(-0.109129 0.0316614 0)
(-0.120749 0.0333544 0)
(-0.132509 0.034824 0)
(-0.14429 0.0360322 0)
(-0.15597 0.0369471 0)
(-0.167435 0.0375436 0)
(-0.178576 0.037804 0)
(-0.189298 0.0377184 0)
(-0.199518 0.0372836 0)
(-0.209162 0.0365031 0)
(-0.218174 0.0353858 0)
(-0.226507 0.0339447 0)
(-0.234124 0.0321963 0)
(-0.241 0.0301592 0)
(-0.247114 0.0278534 0)
(-0.252454 0.0252994 0)
(-0.25701 0.0225181 0)
(-0.260776 0.0195301 0)
(-0.26375 0.0163555 0)
(-0.265928 0.0130141 0)
(-0.267309 0.00952553 0)
(-0.267891 0.00590909 0)
(-0.267672 0.00218441 0)
(-0.266651 -0.00162831 0)
(-0.264825 -0.00550786 0)
(-0.262192 -0.0094316 0)
(-0.258752 -0.0133752 0)
(-0.254503 -0.0173118 0)
(-0.249447 -0.0212122 0)
(-0.243588 -0.0250441 0)
(-0.236931 -0.0287724 0)
(-0.229488 -0.0323589 0)
(-0.221275 -0.0357623 0)
(-0.212313 -0.0389393 0)
(-0.202633 -0.0418446 0)
(-0.192272 -0.0444321 0)
(-0.181277 -0.0466558 0)
(-0.169705 -0.0484717 0)
(-0.157625 -0.0498391 0)
(-0.145114 -0.0507226 0)
(-0.132261 -0.0510935 0)
(-0.119164 -0.0509321 0)
(-0.105929 -0.0502289 0)
(-0.0926681 -0.0489859 0)
(-0.0794975 -0.0472173 0)
(-0.0665346 -0.0449497 0)
(-0.0538956 -0.0422218 0)
(-0.0416922 -0.0390834 0)
(-0.0300294 -0.0355937 0)
(-0.0190032 -0.0318196 0)
(-0.00869897 -0.0278335 0)
(0.000809639 -0.0237113 0)
(0.00946151 -0.0195297 0)
(0.0172082 -0.0153649 0)
(0.0240141 -0.0112903 0)
(0.0298561 -0.00737491 0)
(0.0347243 -0.00368195 0)
(0.0386217 -0.000267656 0)
(0.041565 0.00282032 0)
(0.0435847 0.00554421 0)
(0.0447254 0.00787726 0)
(0.0450457 0.00980464 0)
(0.0446175 0.0113239 0)
(0.0435236 0.012445 0)
(0.0418563 0.0131893 0)
(0.0397132 0.0135883 0)
(0.037194 0.0136815 0)
(0.0343968 0.013514 0)
(0.031414 0.0131337 0)
(0.0283301 0.0125885 0)
(0.0252188 0.0119241 0)
(0.0221419 0.0111814 0)
(0.0191497 0.0103943 0)
(0.0162809 0.00958752 0)
(0.0135651 0.008775 0)
(0.0110246 0.00795837 0)
(0.00867759 0.00712677 0)
(0.00654195 0.00625816 0)
(0.00463839 0.00532343 0)
(0.00299449 0.00429352 0)
(0.00163924 0.00315075 0)
(0.000659569 0.00190294 0)
(7.4133e-05 0.000617247 0)
(7.81904e-05 -0.00112692 0)
(0.000694156 -0.00308772 0)
(0.00169394 -0.00469106 0)
(0.0030079 -0.00587419 0)
(0.00447628 -0.00661217 0)
(0.00599524 -0.00691195 0)
(0.00746491 -0.00680911 0)
(0.0088014 -0.00636123 0)
(0.00993869 -0.00563989 0)
(0.0108287 -0.00472243 0)
(0.0114398 -0.00368438 0)
(0.0117542 -0.00259305 0)
(0.0117646 -0.00150273 0)
(0.0114702 -0.000451421 0)
(0.0108726 0.000540684 0)
(0.00997208 0.00147112 0)
(0.00876403 0.00235361 0)
(0.00723627 0.0032151 0)
(0.00536752 0.00409188 0)
(0.00312683 0.0050249 0)
(0.000474289 0.00605518 0)
(-0.00263733 0.00721967 0)
(-0.00626017 0.0085482 0)
(-0.0104486 0.0100618 0)
(-0.0152561 0.0117724 0)
(-0.020733 0.013683 0)
(-0.0269233 0.0157893 0)
(-0.033862 0.0180798 0)
(-0.0415727 0.0205364 0)
(-0.0500642 0.0231345 0)
(-0.0593281 0.0258425 0)
(-0.0693366 0.0286215 0)
(-0.0800409 0.0314257 0)
(-0.0913707 0.0342032 0)
(-0.103236 0.0368975 0)
(-0.115528 0.0394494 0)
(-0.128126 0.0418002 0)
(-0.140898 0.0438935 0)
(-0.153712 0.0456789 0)
(-0.166434 0.047113 0)
(-0.178941 0.048162 0)
(-0.191118 0.048802 0)
(-0.202868 0.0490193 0)
(-0.214105 0.0488097 0)
(-0.224761 0.0481774 0)
(-0.234784 0.0471337 0)
(-0.244134 0.0456956 0)
(-0.252783 0.0438839 0)
(-0.260712 0.0417218 0)
(-0.267912 0.0392343 0)
(-0.274376 0.0364463 0)
(-0.280103 0.0333827 0)
(-0.285092 0.0300673 0)
(-0.289346 0.0265228 0)
(-0.292866 0.022771 0)
(-0.295652 0.018832 0)
(-0.297705 0.0147255 0)
(-0.299023 0.0104702 0)
(-0.299604 0.00608474 0)
(-0.299444 0.00158774 0)
(-0.298537 -0.00300139 0)
(-0.296877 -0.00766208 0)
(-0.294456 -0.012372 0)
(-0.291266 -0.0171064 0)
(-0.2873 -0.0218379 0)
(-0.28255 -0.0265357 0)
(-0.27701 -0.0311654 0)
(-0.270675 -0.0356886 0)
(-0.263544 -0.040063 0)
(-0.25562 -0.0442422 0)
(-0.246912 -0.0481761 0)
(-0.237435 -0.0518117 0)
(-0.227211 -0.0550941 0)
(-0.216273 -0.0579674 0)
(-0.204664 -0.0603768 0)
(-0.192441 -0.06227 0)
(-0.179669 -0.0636002 0)
(-0.16643 -0.0643275 0)
(-0.152815 -0.0644219 0)
(-0.138929 -0.063865 0)
(-0.124885 -0.0626523 0)
(-0.110805 -0.0607937 0)
(-0.0968145 -0.0583148 0)
(-0.0830391 -0.0552563 0)
(-0.0696032 -0.051673 0)
(-0.0566247 -0.0476319 0)
(-0.0442125 -0.0432101 0)
(-0.0324638 -0.0384918 0)
(-0.0214629 -0.0335655 0)
(-0.0112796 -0.028521 0)
(-0.00197027 -0.0234473 0)
(0.00642254 -0.0184303 0)
(0.0138686 -0.0135514 0)
(0.0203495 -0.00888555 0)
(0.0258576 -0.00450101 0)
(0.0303966 -0.000457705 0)
(0.0339807 0.00319371 0)
(0.0366361 0.00641316 0)
(0.0384014 0.00917234 0)
(0.0393278 0.0114559 0)
(0.0394791 0.0132619 0)
(0.0389311 0.0146024 0)
(0.0377691 0.0155023 0)
(0.0360858 0.0159982 0)
(0.0339776 0.0161359 0)
(0.0315407 0.0159677 0)
(0.0288681 0.0155492 0)
(0.0260455 0.0149359 0)
(0.0231498 0.01418 0)
(0.0202473 0.0133267 0)
(0.017393 0.0124118 0)
(0.0146319 0.0114582 0)
(0.0120005 0.010474 0)
(0.00952953 0.0094518 0)
(0.0072473 0.0083692 0)
(0.00518418 0.00719256 0)
(0.00337752 0.00588358 0)
(0.00186638 0.00440949 0)
(0.000759012 0.00275556 0)
(8.63377e-05 0.000951521 0)
(8.38402e-05 -0.0014649 0)
(0.000740328 -0.00393721 0)
(0.00179408 -0.00589963 0)
(0.00316084 -0.00730254 0)
(0.00466076 -0.00813323 0)
(0.00617751 -0.00841322 0)
(0.00760254 -0.00819524 0)
(0.00884749 -0.00755583 0)
(0.00984515 -0.00658586 0)
(0.0105484 -0.00538073 0)
(0.0109273 -0.00403143 0)
(0.0109654 -0.00261716 0)
(0.0106556 -0.00119993 0)
(0.00999496 0.000178856 0)
(0.00898073 0.00149978 0)
(0.00760594 0.00276484 0)
(0.0058564 0.00399514 0)
(0.00370845 0.00522692 0)
(0.00112816 0.00650641 0)
(-0.00192823 0.00788395 0)
(-0.00551253 0.00940826 0)
(-0.00968187 0.0111214 0)
(-0.0144953 0.0130553 0)
(-0.0200104 0.0152299 0)
(-0.0262794 0.0176528 0)
(-0.0333461 0.0203199 0)
(-0.0412424 0.0232165 0)
(-0.0499852 0.0263177 0)
(-0.059573 0.0295891 0)
(-0.069983 0.0329869 0)
(-0.0811693 0.0364579 0)
(-0.0930618 0.0399407 0)
(-0.105567 0.043367 0)
(-0.11857 0.046664 0)
(-0.131941 0.0497577 0)
(-0.145536 0.0525767 0)
(-0.159211 0.0550551 0)
(-0.172822 0.0571364 0)
(-0.186233 0.0587751 0)
(-0.199323 0.0599387 0)
(-0.211988 0.0606074 0)
(-0.224141 0.0607738 0)
(-0.235715 0.0604416 0)
(-0.246658 0.0596234 0)
(-0.256937 0.0583389 0)
(-0.266529 0.0566128 0)
(-0.275422 0.0544729 0)
(-0.283611 0.0519485 0)
(-0.291096 0.0490694 0)
(-0.297882 0.0458645 0)
(-0.303974 0.0423615 0)
(-0.309378 0.0385864 0)
(-0.314101 0.0345633 0)
(-0.318146 0.0303144 0)
(-0.321519 0.0258604 0)
(-0.32422 0.0212201 0)
(-0.326251 0.0164114 0)
(-0.327609 0.0114515 0)
(-0.328293 0.00635723 0)
(-0.328295 0.00114554 0)
(-0.32761 -0.0041657 0)
(-0.326228 -0.00955729 0)
(-0.324138 -0.015008 0)
(-0.321329 -0.0204941 0)
(-0.317787 -0.0259884 0)
(-0.313497 -0.0314599 0)
(-0.308446 -0.0368735 0)
(-0.302618 -0.0421888 0)
(-0.296001 -0.0473609 0)
(-0.288585 -0.0523391 0)
(-0.280363 -0.0570683 0)
(-0.271333 -0.0614886 0)
(-0.2615 -0.0655363 0)
(-0.25088 -0.0691459 0)
(-0.239497 -0.0722507 0)
(-0.227388 -0.0747861 0)
(-0.214604 -0.0766912 0)
(-0.201212 -0.0779123 0)
(-0.187294 -0.0784054 0)
(-0.172948 -0.0781396 0)
(-0.158284 -0.0770992 0)
(-0.143429 -0.0752861 0)
(-0.128515 -0.0727209 0)
(-0.113682 -0.0694433 0)
(-0.0990709 -0.0655112 0)
(-0.0848186 -0.0609986 0)
(-0.0710541 -0.0559931 0)
(-0.0578941 -0.0505922 0)
(-0.0454405 -0.0448991 0)
(-0.0337778 -0.0390194 0)
(-0.0229734 -0.0330573 0)
(-0.0130776 -0.0271128 0)
(-0.00412553 -0.02128 0)
(0.00386104 -0.0156453 0)
(0.0108716 -0.0102872 0)
(0.0169051 -0.00527541 0)
(0.0219697 -0.000670434 0)
(0.0260817 0.00347722 0)
(0.0292667 0.007128 0)
(0.0315606 0.0102546 0)
(0.0330099 0.0128429 0)
(0.0336728 0.0148935 0)
(0.0336188 0.0164213 0)
(0.0329271 0.0174551 0)
(0.0316849 0.0180366 0)
(0.0299841 0.0182172 0)
(0.027918 0.0180555 0)
(0.0255775 0.017613 0)
(0.0230484 0.0169502 0)
(0.0204086 0.0161225 0)
(0.0177268 0.0151759 0)
(0.0150622 0.0141427 0)
(0.0124654 0.013039 0)
(0.00998002 0.0118619 0)
(0.00764689 0.01059 0)
(0.00550767 0.00918566 0)
(0.00361091 0.00760082 0)
(0.00200667 0.00578533 0)
(0.000820546 0.00369791 0)
(9.38144e-05 0.00132512 0)
(8.86162e-05 -0.00182335 0)
(0.00077613 -0.00482861 0)
(0.00186404 -0.00715152 0)
(0.00325291 -0.00875689 0)
(0.0047439 -0.00964789 0)
(0.00620889 -0.00986517 0)
(0.00753177 -0.00948321 0)
(0.00862102 -0.00860137 0)
(0.0094096 -0.00733252 0)
(0.00985247 -0.00579149 0)
(0.00992232 -0.00408477 0)
(0.00960451 -0.00230232 0)
(0.00889163 -0.00051183 0)
(0.00777801 0.00124451 0)
(0.00625493 0.0029509 0)
(0.00430666 0.00461651 0)
(0.00190766 0.00627204 0)
(-0.000978655 0.0079644 0)
(-0.00439966 0.00975008 0)
(-0.00841165 0.0116879 0)
(-0.0130766 0.013832 0)
(-0.0184584 0.0162264 0)
(-0.0246179 0.0189008 0)
(-0.031609 0.0218691 0)
(-0.0394742 0.025129 0)
(-0.0482409 0.0286629 0)
(-0.0579172 0.032439 0)
(-0.0684893 0.0364123 0)
(-0.0799184 0.0405253 0)
(-0.0921388 0.0447091 0)
(-0.105059 0.0488851 0)
(-0.118561 0.0529677 0)
(-0.13251 0.0568677 0)
(-0.146753 0.0604969 0)
(-0.161134 0.0637724 0)
(-0.175497 0.0666213 0)
(-0.189693 0.0689833 0)
(-0.203592 0.0708138 0)
(-0.217079 0.0720838 0)
(-0.230062 0.0727799 0)
(-0.24247 0.0729026 0)
(-0.254252 0.0724637 0)
(-0.265372 0.0714845 0)
(-0.275812 0.0699924 0)
(-0.285563 0.0680191 0)
(-0.294622 0.0655982 0)
(-0.302996 0.062764 0)
(-0.310691 0.0595502 0)
(-0.317719 0.0559887 0)
(-0.324088 0.0521098 0)
(-0.329811 0.047941 0)
(-0.334896 0.043508 0)
(-0.339352 0.0388337 0)
(-0.343187 0.0339389 0)
(-0.346408 0.0288428 0)
(-0.349017 0.0235624 0)
(-0.351019 0.0181139 0)
(-0.352414 0.0125125 0)
(-0.3532 0.00677282 0)
(-0.353374 0.000909934 0)
(-0.35293 -0.00506051 0)
(-0.351859 -0.0111215 0)
(-0.35015 -0.0172539 0)
(-0.347789 -0.023436 0)
(-0.344759 -0.0296425 0)
(-0.341042 -0.0358438 0)
(-0.336615 -0.0420056 0)
(-0.331457 -0.0480879 0)
(-0.325543 -0.0540449 0)
(-0.31885 -0.0598242 0)
(-0.311354 -0.0653671 0)
(-0.303037 -0.0706087 0)
(-0.293883 -0.0754785 0)
(-0.283885 -0.0799015 0)
(-0.273045 -0.0838001 0)
(-0.261375 -0.0870961 0)
(-0.248903 -0.0897135 0)
(-0.235675 -0.0915817 0)
(-0.221754 -0.0926394 0)
(-0.207222 -0.0928379 0)
(-0.192182 -0.0921452 0)
(-0.176756 -0.090549 0)
(-0.161082 -0.0880589 0)
(-0.14531 -0.0847082 0)
(-0.1296 -0.0805532 0)
(-0.114111 -0.0756719 0)
(-0.0990001 -0.0701613 0)
(-0.0844132 -0.0641326 0)
(-0.0704803 -0.0577063 0)
(-0.0573118 -0.0510074 0)
(-0.0449962 -0.0441596 0)
(-0.0335993 -0.037282 0)
(-0.0231662 -0.030485 0)
(-0.0137233 -0.0238694 0)
(-0.00528192 -0.0175249 0)
(0.00215823 -0.0115304 0)
(0.00860636 -0.00595416 0)
(0.0140786 -0.000854217 0)
(0.0185975 0.00372206 0)
(0.0221919 0.00773848 0)
(0.0248983 0.0111712 0)
(0.026762 0.0140098 0)
(0.027838 0.0162587 0)
(0.0281916 0.0179369 0)
(0.0278972 0.0190782 0)
(0.0270372 0.019729 0)
(0.0256991 0.019946 0)
(0.0239724 0.0197923 0)
(0.0219458 0.0193333 0)
(0.0197036 0.0186313 0)
(0.0173238 0.0177406 0)
(0.0148772 0.0167025 0)
(0.0124265 0.0155402 0)
(0.0100284 0.0142565 0)
(0.0077361 0.0128314 0)
(0.00560327 0.0112239 0)
(0.00369007 0.00937612 0)
(0.00205741 0.00722007 0)
(0.000843169 0.00468694 0)
(9.64813e-05 0.00171914 0)
(9.26713e-05 -0.00219835 0)
(0.000802385 -0.00574777 0)
(0.0019047 -0.00842148 0)
(0.00328418 -0.0102013 0)
(0.00472418 -0.0111103 0)
(0.00608599 -0.0112134 0)
(0.00724766 -0.0106115 0)
(0.00811625 -0.0094308 0)
(0.00862646 -0.0078086 0)
(0.00873651 -0.00588021 0)
(0.00842227 -0.00376711 0)
(0.00767076 -0.00156825 0)
(0.0064736 0.000645639 0)
(0.00482099 0.00283472 0)
(0.00269669 0.00498999 0)
(7.44358e-05 0.00713054 0)
(-0.00308396 0.00929857 0)
(-0.00682863 0.0115523 0)
(-0.0112197 0.0139577 0)
(-0.0163239 0.0165796 0)
(-0.0222094 0.0194738 0)
(-0.0289407 0.0226811 0)
(-0.0365731 0.0262229 0)
(-0.0451473 0.0301003 0)
(-0.0546851 0.034294 0)
(-0.0651856 0.0387654 0)
(-0.0766213 0.0434586 0)
(-0.0889362 0.0483015 0)
(-0.102045 0.0532088 0)
(-0.115834 0.0580838 0)
(-0.130164 0.0628234 0)
(-0.14488 0.0673223 0)
(-0.159814 0.0714789 0)
(-0.174797 0.0752011 0)
(-0.189668 0.0784102 0)
(-0.20428 0.0810451 0)
(-0.218507 0.0830635 0)
(-0.232246 0.084442 0)
(-0.245417 0.0851743 0)
(-0.257964 0.085269 0)
(-0.269847 0.0847462 0)
(-0.281047 0.0836347 0)
(-0.291554 0.0819689 0)
(-0.301368 0.0797863 0)
(-0.310496 0.0771257 0)
(-0.318947 0.0740254 0)
(-0.326735 0.0705224 0)
(-0.333874 0.0666519 0)
(-0.340379 0.0624463 0)
(-0.346263 0.0579356 0)
(-0.351543 0.0531471 0)
(-0.356231 0.0481054 0)
(-0.360341 0.0428323 0)
(-0.363884 0.0373477 0)
(-0.366871 0.0316689 0)
(-0.369311 0.0258116 0)
(-0.371212 0.01979 0)
(-0.37258 0.0136172 0)