/*--------------------------------*- C++ -*----------------------------------*\
| =========                 |                                                 |
| \\      /  F ield         | OpenFOAM: The Open Source CFD Toolbox           |
|  \\    /   O peration     | Version:  2406                                  |
|   \\  /    A nd           | Website:  www.openfoam.com                      |
|    \\/     M anipulation  |                                                 |
\*---------------------------------------------------------------------------*/
FoamFile
{
    version     2.0;
    format      ascii;
    arch        "LSB;label=32;scalar=64";
    class       volScalarField;
    location    "26.95";
    object      p;
}
// * * * * * * * * * * * * * * * * * * * * * * * * * * * * * * * * * * * * * //

dimensions      [0 2 -2 0 0 0 0];

internalField   nonuniform List<scalar> 
14400
(
-9.92609e-09
6.03156e-06
1.3245e-05
1.77397e-05
1.73173e-05
1.06799e-05
-2.69295e-06
-2.27717e-05
-4.91557e-05
-8.12154e-05
-0.00011821
-0.000159388
-0.000204065
-0.000251684
-0.000301857
-0.000354381
-0.000409253
-0.000466689
-0.000527045
-0.000590738
-0.000658441
-0.00073085
-0.000808705
-0.000892768
-0.000983797
-0.00108252
-0.00118964
-0.00130579
-0.00143158
-0.00156754
-0.00171414
-0.00187176
-0.00204069
-0.00222108
-0.00241295
-0.0026161
-0.00283009
-0.00305423
-0.00328749
-0.0035285
-0.0037755
-0.00402631
-0.00427833
-0.00452848
-0.00477329
-0.00500884
-0.00523083
-0.00543465
-0.00561542
-0.00576811
-0.00588759
-0.00596884
-0.006007
-0.00599755
-0.00593648
-0.00582039
-0.0056467
-0.00541377
-0.00512105
-0.00476919
-0.00436022
-0.00389756
-0.00338573
-0.00283086
-0.00224228
-0.00162807
-0.000998852
-0.000366329
0.000256985
0.00085799
0.00142335
0.00193989
0.00239502
0.00277719
0.00307635
0.00328436
0.00339537
0.00340613
0.00331616
0.00312786
0.00284643
0.00247965
0.00203761
0.00153222
0.00097671
0.000385042
-0.000228673
-0.000850751
-0.00146844
-0.00207033
-0.0026467
-0.00319008
-0.00369417
-0.00415476
-0.00456993
-0.00493918
-0.00526329
-0.00554416
-0.00578451
-0.00598765
-0.00615721
-0.00629695
-0.00641063
-0.00650181
-0.00657386
-0.0066298
-0.00667236
-0.00670388
-0.00672639
-0.00674153
-0.00675061
-0.00675464
-0.00675433
-0.00675016
-0.0067425
-0.00673179
-0.00671875
-0.00670479
-0.00669234
-0.00668479
-6.01766e-06
4.18536e-08
6.69201e-06
9.89023e-06
8.36476e-06
1.0544e-06
-1.25277e-05
-3.23776e-05
-5.81554e-05
-8.93093e-05
-0.000125178
-0.000165081
-0.0002084
-0.000254627
-0.000303411
-0.000354574
-0.00040812
-0.000464204
-0.00052317
-0.000585544
-0.00065186
-0.000722773
-0.00079899
-0.000881232
-0.000970221
-0.00106666
-0.00117121
-0.0012845
-0.00140712
-0.00153961
-0.00168243
-0.00183599
-0.0020006
-0.00217646
-0.00236361
-0.00256193
-0.00277104
-0.00299034
-0.0032189
-0.00345543
-0.0036983
-0.00394544
-0.00419435
-0.00444209
-0.00468528
-0.0049201
-0.00514235
-0.00534748
-0.00553066
-0.00568688
-0.00581103
-0.00589807
-0.00594309
-0.00594152
-0.00588926
-0.00578282
-0.00561948
-0.00539748
-0.00511613
-0.00477593
-0.00437868
-0.0039276
-0.00342778
-0.00288526
-0.00230692
-0.00170258
-0.0010827
-0.000458756
0.000156838
0.000751046
0.00131057
0.00182223
0.00227343
0.00265259
0.00294962
0.00315633
0.00326682
0.00327783
0.00318887
0.00300233
0.00272344
0.00236004
0.00192226
0.00142207
0.000872743
0.000288254
-0.000317314
-0.000930352
-0.00153824
-0.0021298
-0.0026955
-0.0032275
-0.00372032
-0.00417049
-0.00457597
-0.00493633
-0.00525255
-0.00552665
-0.00576144
-0.00596021
-0.00612655
-0.00626415
-0.00637662
-0.00646744
-0.00653979
-0.00659658
-0.0066404
-0.00667348
-0.00669774
-0.00671476
-0.00672581
-0.00673187
-0.00673366
-0.00673171
-0.00672642
-0.0067182
-0.00670772
-0.00669607
-0.00668479
-0.00667719
-1.33544e-05
-6.64174e-06
8.40544e-08
2.19923e-06
-4.13968e-07
-8.48534e-06
-2.24078e-05
-4.21594e-05
-6.74295e-05
-9.77214e-05
-0.000132436
-0.000170957
-0.000212721
-0.00025727
-0.000304292
-0.000353635
-0.000405318
-0.000459507
-0.000516531
-0.000576851
-0.000641008
-0.000709621
-0.000783352
-0.000862885
-0.000948902
-0.00104207
-0.00114304
-0.00125241
-0.00137079
-0.0014987
-0.00163666
-0.00178512
-0.00194444
-0.00211491
-0.00229667
-0.00248971
-0.00269379
-0.00290843
-0.00313287
-0.003366
-0.00360631
-0.00385191
-0.00410043
-0.00434906
-0.00459451
-0.00483304
-0.00506046
-0.00527224
-0.0054635
-0.00562917
-0.00576403
-0.00586291
-0.00592077
-0.00593285
-0.00589489
-0.00580321
-0.00565492
-0.00544808
-0.0051818
-0.00485645
-0.00447367
-0.00403638
-0.00354917
-0.00301883
-0.00245229
-0.00185844
-0.0012477
-0.000631567
-2.2439e-05
0.000566662
0.00112241
0.0016316
0.00208154
0.00246055
0.00275841
0.0029668
0.00307969
0.00309368
0.00300818
0.00282554
0.00255094
0.00219226
0.00175968
0.00126528
0.000722443
0.000145261
-0.000452085
-0.00105592
-0.0016536
-0.00223396
-0.0027876
-0.00330703
-0.00378702
-0.00422423
-0.00461687
-0.00496485
-0.00526947
-0.00553299
-0.00575838
-0.00594908
-0.00610873
-0.006241
-0.00634946
-0.00643747
-0.00650808
-0.00656406
-0.00660783
-0.00664148
-0.00666679
-0.00668523
-0.006698
-0.00670604
-0.00671004
-0.00671052
-0.00670785
-0.00670237
-0.00669454
-0.00668498
-0.0066737
-0.00666482
-1.84084e-05
-1.02294e-05
-2.23122e-06
-8.25431e-08
-3.06649e-06
-1.1616e-05
-2.59681e-05
-4.59928e-05
-7.13133e-05
-0.000101397
-0.000135626
-0.00017338
-0.0002141
-0.000257344
-0.000302814
-0.000350375
-0.000400085
-0.000452126
-0.000506834
-0.000564671
-0.000626189
-0.000692007
-0.000762781
-0.000839184
-0.00092189
-0.00101156
-0.00110885
-0.00121437
-0.00132876
-0.00145261
-0.0015865
-0.00173098
-0.00188656
-0.00205366
-0.00223259
-0.00242353
-0.00262644
-0.00284105
-0.00306677
-0.00330267
-0.00354741
-0.0037992
-0.00405574
-0.00431424
-0.00457136
-0.00482326
-0.00506563
-0.00529369
-0.00550236
-0.00568628
-0.00583996
-0.00595794
-0.0060349
-0.00606583
-0.00604623
-0.00597222
-0.00584073
-0.00564965
-0.00539796
-0.00508591
-0.00471508
-0.00428843
-0.00381024
-0.00328679
-0.00272564
-0.0021356
-0.0015269
-0.000911001
-0.000300331
0.000292021
0.000852626
0.00136811
0.00182557
0.00221306
0.00252008
0.00273797
0.00286038
0.00288359
0.00280674
0.00263195
0.00236429
0.00201157
0.00158406
0.00109397
0.000554916
-1.871e-05
-0.000612396
-0.00121213
-0.00180497
-0.00237949
-0.00292612
-0.00343741
-0.00390802
-0.00433449
-0.00471544
-0.00505115
-0.0053432
-0.00559417
-0.0058074
-0.0059866
-0.00613567
-0.00625849
-0.00635873
-0.00643979
-0.00650472
-0.00655622
-0.00659661
-0.00662787
-0.00665165
-0.00666931
-0.00668194
-0.00669038
-0.00669524
-0.00669694
-0.00669571
-0.00669168
-0.00668503
-0.00667585
-0.00666279
-0.00665159
-1.93121e-05
-9.78834e-06
-5.27629e-07
1.83822e-06
-1.42489e-06
-1.05225e-05
-2.55257e-05
-4.61602e-05
-7.19349e-05
-0.000102231
-0.00013637
-0.000173687
-0.000213603
-0.00025567
-0.000299605
-0.000345303
-0.000392815
-0.000442392
-0.000494404
-0.000549342
-0.000607791
-0.000670392
-0.000737825
-0.000810781
-0.000889958
-0.000976047
-0.00106974
-0.00117173
-0.00128272
-0.00140343
-0.00153461
-0.00167698
-0.00183126
-0.00199812
-0.00217812
-0.00237171
-0.00257909
-0.00280024
-0.00303475
-0.00328184
-0.00354024
-0.00380816
-0.00408321
-0.00436243
-0.00464222
-0.00491844
-0.00518638
-0.00544089
-0.00567645
-0.00588732
-0.00606764
-0.0062116
-0.00631359
-0.00636838
-0.00637126
-0.00631823
-0.0062061
-0.00603269
-0.00579694
-0.005499
-0.00514039
-0.00472403
-0.00425432
-0.00373714
-0.00317992
-0.00259151
-0.00198207
-0.00136297
-0.000746582
-0.00014601
0.000425235
0.000953618
0.001426
0.00183012
0.00215505
0.00239168
0.00253314
0.0025752
0.0025165
0.00235872
0.00210655
0.00176759
0.00135197
0.000871937
0.000341259
-0.000225395
-0.000813145
-0.00140756
-0.00199523
-0.00256431
-0.00310486
-0.00360907
-0.00407134
-0.00448825
-0.00485842
-0.00518221
-0.00546141
-0.00569895
-0.00589847
-0.00606409
-0.00620003
-0.00631049
-0.00639939
-0.0064703
-0.00652638
-0.00657037
-0.00660455
-0.00663085
-0.00665081
-0.00666569
-0.00667645
-0.00668381
-0.00668826
-0.00669007
-0.00668929
-0.00668583
-0.00667953
-0.00667003
-0.00665479
-0.00664119
-1.49203e-05
-4.40984e-06
5.75407e-06
8.17977e-06
4.47364e-06
-5.40258e-06
-2.13592e-05
-4.29603e-05
-6.9571e-05
-0.000100454
-0.000134835
-0.000171985
-0.000211285
-0.000252273
-0.000294673
-0.000338407
-0.000383581
-0.000430483
-0.000479546
-0.000531322
-0.000586453
-0.000645638
-0.000709614
-0.000779135
-0.000854964
-0.00093788
-0.00102868
-0.0011282
-0.00123733
-0.001357
-0.00148821
-0.00163198
-0.00178935
-0.00196132
-0.00214879
-0.00235249
-0.00257291
-0.00281019
-0.00306404
-0.00333368
-0.00361772
-0.00391413
-0.0042202
-0.00453252
-0.00484701
-0.00515897
-0.00546316
-0.00575389
-0.00602517
-0.00627082
-0.00648462
-0.00666051
-0.00679267
-0.00687574
-0.00690495
-0.00687624
-0.00678642
-0.00663331
-0.00641582
-0.00613409
-0.00578956
-0.00538503
-0.00492481
-0.00441462
-0.00386163
-0.00327446
-0.00266308
-0.00203865
-0.00141339
-0.000800307
-0.000212907
0.000335171
0.000830565
0.00126065
0.001614
0.00188092
0.00205384
0.00212775
0.00210054
0.00197313
0.00174957
0.0014369
0.00104488
0.000585527
7.26027e-05
-0.000479078
-0.00105433
-0.00163831
-0.0022171
-0.00277831
-0.00331146
-0.00380823
-0.00426261
-0.00467087
-0.00503138
-0.00534441
-0.00561178
-0.00583655
-0.00602261
-0.00617435
-0.00629637
-0.00639318
-0.00646904
-0.00652779
-0.00657282
-0.00660698
-0.00663265
-0.00665176
-0.00666582
-0.006676
-0.00668317
-0.00668791
-0.0066906
-0.00669134
-0.00669
-0.00668626
-0.00667968
-0.00666948
-0.00665219
-0.00663648
-4.56469e-06
6.53083e-06
1.71308e-05
1.9294e-05
1.48354e-05
3.84988e-06
-1.34157e-05
-3.63537e-05
-6.41661e-05
-9.59747e-05
-0.000130893
-0.000168111
-0.000206961
-0.000246966
-0.000287863
-0.000329611
-0.000372377
-0.000416517
-0.000462548
-0.000511111
-0.00056294
-0.000618835
-0.000679636
-0.000746216
-0.000819478
-0.000900368
-0.000989893
-0.00108914
-0.00119929
-0.00132162
-0.00145751
-0.0016084
-0.00177572
-0.00196087
-0.00216508
-0.00238937
-0.00263437
-0.00290025
-0.00318662
-0.00349244
-0.0038159
-0.00415445
-0.00450477
-0.00486277
-0.00522369
-0.00558216
-0.00593232
-0.00626796
-0.00658265
-0.00686986
-0.00712316
-0.00733633
-0.00750349
-0.00761928
-0.00767894
-0.00767848
-0.00761476
-0.00748561
-0.00728996
-0.00702788
-0.0067007
-0.00631108
-0.00586303
-0.00536202
-0.00481489
-0.00422987
-0.00361654
-0.00298572
-0.00234928
-0.00171999
-0.00111122
-0.000536599
-9.65565e-06
0.000456633
0.000850314
0.00116095
0.00138011
0.00150178
0.00152274
0.00144286
0.00126511
0.000995632
0.000643407
0.000219929
-0.000261359
-0.000785711
-0.00133779
-0.00190241
-0.00246516
-0.00301307
-0.003535
-0.00402199
-0.00446742
-0.004867
-0.00521864
-0.00552227
-0.00577949
-0.00599324
-0.00616746
-0.00630667
-0.00641568
-0.00649929
-0.00656206
-0.00660816
-0.00664122
-0.00666436
-0.0066801
-0.00669047
-0.00669703
-0.00670094
-0.00670302
-0.00670376
-0.00670341
-0.00670197
-0.00669913
-0.00669435
-0.00668697
-0.00667588
-0.00665689
-0.00663957
1.22235e-05
2.35013e-05
3.40336e-05
3.55216e-05
2.9916e-05
1.74335e-05
-1.51978e-06
-2.61572e-05
-5.55068e-05
-8.85381e-05
-0.000124244
-0.000161729
-0.000200279
-0.000239409
-0.00027888
-0.000318702
-0.000359121
-0.00040059
-0.000443737
-0.000489329
-0.000538238
-0.000591416
-0.000649876
-0.000714692
-0.000787006
-0.000868047
-0.000959157
-0.00106181
-0.00117764
-0.00130839
-0.00145594
-0.0016222
-0.00180906
-0.00201829
-0.00225136
-0.00250937
-0.00279291
-0.00310188
-0.00343548
-0.00379204
-0.00416909
-0.00456326
-0.00497041
-0.00538566
-0.00580347
-0.00621784
-0.00662234
-0.00701035
-0.00737512
-0.00770995
-0.00800829
-0.00826392
-0.00847102
-0.0086243
-0.00871911
-0.00875156
-0.00871857
-0.00861802
-0.00844879
-0.00821089
-0.00790546
-0.00753491
-0.00710295
-0.00661459
-0.00607621
-0.00549552
-0.00488153
-0.00424451
-0.00359581
-0.00294775
-0.00231338
-0.00170616
-0.00113965
-0.000627092
-0.000180957
0.000187544
0.000468952
0.000656034
0.000744197
0.000731813
0.000620414
0.000414723
0.000122515
-0.000245707
-0.000677205
-0.00115763
-0.00167175
-0.00220417
-0.00274009
-0.00326594
-0.00376987
-0.00424217
-0.00467542
-0.00506459
-0.00540693
-0.00570178
-0.00595025
-0.00615494
-0.00631955
-0.00644851
-0.00654665
-0.0066189
-0.00667002
-0.00670443
-0.00672605
-0.00673823
-0.00674374
-0.00674478
-0.00674304
-0.00673973
-0.00673569
-0.0067314
-0.00672704
-0.0067225
-0.00671738
-0.00671098
-0.00670242
-0.00669039
-0.00667018
-0.00665184
3.58726e-05
4.69436e-05
5.6903e-05
5.72659e-05
5.00832e-05
3.56978e-05
1.46822e-05
-1.19925e-05
-4.3176e-05
-7.76836e-05
-0.000114389
-0.000152318
-0.000190723
-0.000229122
-0.000267318
-0.0003054
-0.000343716
-0.000382848
-0.000423574
-0.000466836
-0.000513704
-0.000565355
-0.000623069
-0.000688231
-0.000762351
-0.000847087
-0.000944271
-0.00105592
-0.00118424
-0.00133157
-0.00150033
-0.00169293
-0.00191163
-0.00215838
-0.0024347
-0.00274148
-0.0030789
-0.00344626
-0.00384197
-0.00426351
-0.00470744
-0.00516946
-0.00564453
-0.00612696
-0.00661054
-0.0070887
-0.00755462
-0.00800136
-0.00842204
-0.00880988
-0.00915838
-0.00946139
-0.00971321
-0.00990871
-0.0100434
-0.0101135
-0.010116
-0.0100488
-0.00991087
-0.00970199
-0.00942313
-0.00907641
-0.00866512
-0.00819375
-0.00766809
-0.00709518
-0.0064833
-0.00584195
-0.00518177
-0.00451438
-0.00385225
-0.00320844
-0.00259634
-0.00202926
-0.00152005
-0.00108064
-0.000721535
-0.000451339
-0.000276268
-0.00019977
-0.000222227
-0.00034082
-0.000549554
-0.000839474
-0.00119908
-0.00161489
-0.00207214
-0.00255553
-0.00305002
-0.0035415
-0.0040174
-0.00446715
-0.00488242
-0.00525727
-0.00558804
-0.00587326
-0.00611335
-0.00631028
-0.00646727
-0.00658841
-0.00667831
-0.00674181
-0.0067837
-0.00680853
-0.00682039
-0.00682287
-0.00681896
-0.00681109
-0.00680111
-0.00679039
-0.00677984
-0.00676999
-0.00676103
-0.00675283
-0.00674491
-0.00673648
-0.00672655
-0.00671362
-0.00669276
-0.00667401
6.68454e-05
7.73339e-05
8.62255e-05
8.50105e-05
7.58213e-05
5.91396e-05
3.57136e-05
6.7017e-06
-2.65695e-05
-6.27675e-05
-0.000100658
-0.000139206
-0.000177647
-0.000215529
-0.000252726
-0.000289431
-0.000326134
-0.000363589
-0.000402778
-0.000444879
-0.000491243
-0.000543374
-0.000602939
-0.000671775
-0.000751916
-0.00084561
-0.000955336
-0.00108379
-0.00123384
-0.00140846
-0.00161056
-0.00184293
-0.00210796
-0.00240754
-0.00274283
-0.00311418
-0.00352095
-0.00396154
-0.00443329
-0.00493262
-0.00545503
-0.00599529
-0.00654748
-0.00710522
-0.00766173
-0.00821002
-0.00874301
-0.0092536
-0.00973485
-0.01018
-0.0105828
-0.0109371
-0.0112374
-0.0114789
-0.0116571
-0.0117686
-0.0118105
-0.0117808
-0.0116783
-0.0115027
-0.0112549
-0.0109367
-0.0105508
-0.0101012
-0.00959306
-0.00903256
-0.00842711
-0.00778529
-0.00711676
-0.00643221
-0.00574325
-0.00506223
-0.00440203
-0.00377574
-0.00319631
-0.00267619
-0.0022268
-0.00185806
-0.00157794
-0.00139193
-0.00130272
-0.00130988
-0.00140981
-0.00159577
-0.00185815
-0.00218499
-0.00256255
-0.00297607
-0.00341058
-0.00385162
-0.00428597
-0.00470214
-0.00509076
-0.00544479
-0.0057595
-0.00603236
-0.00626283
-0.00645206
-0.00660252
-0.0067177
-0.00680176
-0.00685922
-0.00689468
-0.00691261
-0.00691717
-0.00691205
-0.00690044
-0.00688496
-0.00686766
-0.00685009
-0.00683331
-0.00681796
-0.0068043
-0.00679225
-0.00678131
-0.00677069
-0.00675934
-0.00674566
-0.00672471
-0.00670614
0.00010566
0.000115192
0.000122529
0.000119297
0.000107694
8.83564e-05
6.22148e-05
3.06127e-05
-4.95587e-06
-4.3026e-05
-8.22771e-05
-0.000121638
-0.000160359
-0.00019805
-0.000234693
-0.000270629
-0.000306537
-0.0003434
-0.000382477
-0.000425271
-0.000473518
-0.000529182
-0.00059446
-0.000671806
-0.000763942
-0.000873865
-0.00100482
-0.00116026
-0.00134372
-0.0015587
-0.00180846
-0.00209585
-0.00242309
-0.00279157
-0.00320173
-0.00365296
-0.00414354
-0.00467067
-0.00523051
-0.00581836
-0.00642869
-0.00705535
-0.00769172
-0.0083308
-0.00896539
-0.0095882
-0.010192
-0.0107696
-0.0113141
-0.011819
-0.0122781
-0.0126855
-0.0130361
-0.0133253
-0.0135489
-0.0137038
-0.0137872
-0.0137972
-0.0137328
-0.0135937
-0.0133804
-0.0130945
-0.0127384
-0.0123155
-0.01183
-0.0112874
-0.0106942
-0.0100577
-0.00938647
-0.00869007
-0.00797892
-0.00726432
-0.00655825
-0.00587317
-0.00522175
-0.00461653
-0.0040695
-0.0035917
-0.00319268
-0.00288003
-0.00265893
-0.00253175
-0.00249782
-0.00255328
-0.00269124
-0.00290201
-0.00317367
-0.00349268
-0.00384468
-0.00421525
-0.00459071
-0.00495872
-0.00530881
-0.00563267
-0.00592427
-0.00617981
-0.00639753
-0.00657747
-0.00672113
-0.00683116
-0.00691102
-0.00696465
-0.00699626
-0.00701005
-0.00701003
-0.00699989
-0.00698287
-0.00696173
-0.0069387
-0.00691551
-0.00689339
-0.00687316
-0.00685519
-0.0068395
-0.00682568
-0.00681296
-0.00680029
-0.0067861
-0.00676559
-0.00674772
0.000152876
0.000161071
0.000166366
0.000160701
0.000146318
0.000124012
9.4903e-05
6.05087e-05
2.24729e-05
-1.76321e-05
-5.84302e-05
-9.885e-05
-0.000138196
-0.000176186
-0.000212955
-0.000249051
-0.000285405
-0.000323309
-0.000364389
-0.00041059
-0.000464167
-0.000527694
-0.000604069
-0.000696524
-0.000808622
-0.000944214
-0.00110737
-0.00130225
-0.00153293
-0.0018032
-0.00211636
-0.00247492
-0.00288049
-0.00333357
-0.00383351
-0.00437842
-0.00496529
-0.00559002
-0.00624756
-0.00693211
-0.00763718
-0.00835584
-0.00908081
-0.00980465
-0.0105198
-0.0112188
-0.0118944
-0.0125393
-0.013147
-0.0137111
-0.0142256
-0.0146852
-0.0150851
-0.0154209
-0.0156891
-0.0158867
-0.0160113
-0.0160614
-0.0160358
-0.0159344
-0.0157577
-0.0155069
-0.015184
-0.0147919
-0.0143342
-0.0138154
-0.0132409
-0.0126171
-0.011951
-0.011251
-0.0105259
-0.00978576
-0.00904125
-0.00830373
-0.00758506
-0.00689735
-0.00625265
-0.00566257
-0.00513788
-0.00468797
-0.00432044
-0.00404056
-0.00385095
-0.00375121
-0.00373788
-0.00380452
-0.00394193
-0.00413874
-0.00438202
-0.00465808
-0.00495323
-0.00525456
-0.00555058
-0.00583164
-0.00609019
-0.00632089
-0.00652051
-0.00668768
-0.00682265
-0.00692696
-0.00700312
-0.00705428
-0.007084
-0.00709602
-0.00709401
-0.00708146
-0.00706155
-0.00703706
-0.00701033
-0.00698322
-0.00695717
-0.00693315
-0.0069117
-0.00689298
-0.00687672
-0.00686223
-0.00684854
-0.00683414
-0.00681455
-0.00679782
0.000209067
0.000215526
0.000218291
0.000209808
0.000192324
0.000166798
0.000134527
9.7187e-05
5.65426e-05
1.42385e-05
-2.83344e-05
-7.01506e-05
-0.00011062
-0.000149622
-0.000187511
-0.00022511
-0.000263689
-0.000304948
-0.000351001
-0.000404372
-0.000467995
-0.000545216
-0.000639798
-0.000755894
-0.000897996
-0.00107083
-0.00127923
-0.00152787
-0.00182111
-0.00216266
-0.00255539
-0.00300107
-0.00350026
-0.00405221
-0.00465485
-0.00530489
-0.0059979
-0.00672847
-0.00749037
-0.00827676
-0.0090803
-0.00989336
-0.0107081
-0.0115168
-0.0123116
-0.013085
-0.0138298
-0.014539
-0.0152062
-0.0158255
-0.0163914
-0.016899
-0.0173439
-0.0177226
-0.0180318
-0.0182689
-0.0184321
-0.0185201
-0.0185319
-0.0184677
-0.0183277
-0.0181131
-0.0178256
-0.0174675
-0.0170418
-0.0165523
-0.0160033
-0.0153999
-0.0147481
-0.0140544
-0.0133265
-0.0125725
-0.0118015
-0.0110235
-0.0102489
-0.00948884
-0.00875468
-0.00805797
-0.00740996
-0.00682129
-0.00630146
-0.00585841
-0.005498
-0.0052236
-0.00503573
-0.00493196
-0.00490687
-0.00495237
-0.00505809
-0.00521206
-0.00540146
-0.0056134
-0.0058357
-0.00605747
-0.00626961
-0.006465
-0.00663861
-0.00678734
-0.00690986
-0.0070063
-0.00707792
-0.00712684
-0.00715576
-0.00716769
-0.00716579
-0.00715318
-0.0071328
-0.00710733
-0.00707912
-0.0070501
-0.00702184
-0.00699548
-0.00697173
-0.00695093
-0.00693295
-0.00691725
-0.00690296
-0.00688871
-0.00687046
-0.00685521
0.000274765
0.000279071
0.000278813
0.000267166
0.000246319
0.000217382
0.000181813
0.000141412
9.80277e-05
5.3331e-05
8.67571e-06
-3.50151e-05
-7.73188e-05
-0.000118346
-0.000158749
-0.000199717
-0.000242965
-0.000290725
-0.000345744
-0.000411282
-0.000491116
-0.000589528
-0.000711269
-0.000861489
-0.00104561
-0.00126913
-0.00153741
-0.00185535
-0.00222716
-0.00265602
-0.0031439
-0.0036914
-0.00429765
-0.00496038
-0.00567597
-0.0064396
-0.0072454
-0.0080867
-0.00895616
-0.00984595
-0.010748
-0.0116541
-0.012556
-0.0134456
-0.0143153
-0.0151574
-0.0159651
-0.0167318
-0.0174514
-0.0181187
-0.0187287
-0.0192772
-0.0197606
-0.0201756
-0.0205198
-0.0207912
-0.0209883
-0.0211101
-0.0211562
-0.0211265
-0.0210218
-0.0208428
-0.0205911
-0.0202687
-0.0198781
-0.0194221
-0.0189044
-0.0183288
-0.0177001
-0.0170235
-0.0163049
-0.0155507
-0.0147684
-0.0139659
-0.013152
-0.0123361
-0.0115285
-0.0107396
-0.00998043
-0.00926193
-0.00859471
-0.00798862
-0.0074523
-0.00699262
-0.00661425
-0.00631925
-0.00610684
-0.00597327
-0.00591203
-0.00591422
-0.00596911
-0.0060649
-0.00618949
-0.00633122
-0.00647956
-0.00662557
-0.00676217
-0.0068842
-0.00698835
-0.00707294
-0.00713768
-0.00718333
-0.00721145
-0.00722412
-0.00722376
-0.00721293
-0.00719418
-0.00716994
-0.00714242
-0.00711356
-0.00708498
-0.00705794
-0.00703332
-0.0070116
-0.00699284
-0.00697665
-0.00696231
-0.00694862
-0.00693205
-0.00691851
0.000350408
0.000352126
0.000348353
0.000333238
0.000308829
0.000276353
0.000237398
0.000193845
0.000147573
0.000100224
5.3052e-05
6.81006e-06
-3.83222e-05
-8.27715e-05
-0.000127584
-0.000174426
-0.000225587
-0.000283976
-0.000353133
-0.00043722
-0.000541008
-0.000669832
-0.000829495
-0.00102612
-0.00126591
-0.00155489
-0.0018986
-0.00230173
-0.00276781
-0.00329904
-0.00389604
-0.00455787
-0.00528198
-0.00606441
-0.00689988
-0.00778202
-0.00870359
-0.00965666
-0.0106329
-0.0116236
-0.01262
-0.0136136
-0.0145958
-0.0155587
-0.0164944
-0.0173961
-0.0182569
-0.0190711
-0.0198333
-0.0205388
-0.0211835
-0.0217639
-0.022277
-0.0227204
-0.0230922
-0.0233911
-0.0236159
-0.0237662
-0.0238419
-0.0238431
-0.0237705
-0.0236252
-0.0234083
-0.0231217
-0.0227673
-0.0223475
-0.0218651
-0.0213232
-0.0207252
-0.0200752
-0.0193774
-0.0186368
-0.0178588
-0.0170496
-0.0162158
-0.015365
-0.0145054
-0.0136459
-0.0127964
-0.0119669
-0.0111683
-0.0104111
-0.00970579
-0.00906196
-0.00848796
-0.00799026
-0.00757304
-0.00723773
-0.00698287
-0.00680404
-0.00669418
-0.00664406
-0.00664293
-0.00667937
-0.00674204
-0.0068204
-0.00690526
-0.00698913
-0.00706634
-0.00713298
-0.00718673
-0.00722663
-0.00725277
-0.00726602
-0.00726783
-0.00725999
-0.00724447
-0.00722331
-0.00719846
-0.00717173
-0.00714473
-0.00711876
-0.0070948
-0.00707348
-0.00705502
-0.00703918
-0.00702541
-0.00701269
-0.00699804
-0.00698631
0.000436265
0.000434961
0.000427197
0.000408335
0.000380236
0.000344154
0.00030176
0.000254962
0.000205604
0.000155232
0.000104928
5.51946e-05
5.87845e-06
-4.38639e-05
-9.55871e-05
-0.000151568
-0.000214815
-0.000289079
-0.000378851
-0.000489342
-0.00062643
-0.000796549
-0.0010065
-0.00126322
-0.00157343
-0.00194329
-0.00237803
-0.0028816
-0.00345641
-0.00410317
-0.00482081
-0.00560656
-0.00645605
-0.00736351
-0.00832199
-0.0093236
-0.0103598
-0.0114214
-0.0124993
-0.0135842
-0.0146667
-0.0157382
-0.0167902
-0.0178149
-0.018805
-0.019754
-0.020656
-0.0215059
-0.022299
-0.0230316
-0.0237004
-0.0243027
-0.0248363
-0.0252995
-0.0256911
-0.0260101
-0.0262562
-0.0264291
-0.0265291
-0.0265566
-0.0265124
-0.0263974
-0.026213
-0.0259606
-0.025642
-0.0252592
-0.0248142
-0.0243094
-0.0237475
-0.0231312
-0.0224637
-0.0217484
-0.0209891
-0.0201899
-0.0193556
-0.0184917
-0.017604
-0.0166995
-0.015786
-0.014872
-0.0139672
-0.0130817
-0.0122264
-0.0114125
-0.0106508
-0.00995132
-0.00932296
-0.00877248
-0.00830412
-0.00791919
-0.00761588
-0.00738929
-0.00723182
-0.00713384
-0.00708438
-0.00707211
-0.00708609
-0.00711645
-0.00715487
-0.00719476
-0.0072313
-0.00726129
-0.00728292
-0.00729551
-0.00729923
-0.00729485
-0.0072836
-0.00726692
-0.00724639
-0.00722355
-0.00719989
-0.00717667
-0.00715493
-0.00713538
-0.00711834
-0.00710376
-0.0070912
-0.00707985
-0.00706727
-0.00705736
0.000532385
0.000527603
0.000515431
0.000492542
0.000460708
0.000421005
0.000375132
0.00032496
0.000272226
0.0002183
0.000164008
0.000109507
5.42081e-05
-3.26732e-06
-6.51155e-05
-0.000134371
-0.000214923
-0.000311519
-0.000429746
-0.00057597
-0.000757207
-0.000980929
-0.00125477
-0.00158615
-0.00198192
-0.00244786
-0.00298836
-0.00360613
-0.00430197
-0.00507474
-0.00592141
-0.0068372
-0.0078158
-0.00884963
-0.00993009
-0.0110478
-0.0121931
-0.0133559
-0.0145263
-0.0156945
-0.0168512
-0.0179878
-0.0190962
-0.0201689
-0.0211996
-0.0221824
-0.0231124
-0.0239853
-0.0247975
-0.0255461
-0.0262286
-0.0268433
-0.0273886
-0.0278635
-0.0282674
-0.0285999
-0.0288609
-0.0290508
-0.0291699
-0.029219
-0.0291988
-0.0291106
-0.0289554
-0.0287347
-0.02845
-0.0281029
-0.0276952
-0.0272287
-0.0267054
-0.0261271
-0.0254961
-0.0248145
-0.0240847
-0.0233094
-0.0224914
-0.0216341
-0.0207412
-0.0198175
-0.0188682
-0.0178997
-0.0169195
-0.0159364
-0.0149601
-0.0140018
-0.0130733
-0.0121868
-0.0113547
-0.0105882
-0.00989743
-0.0092898
-0.00876994
-0.00833901
-0.00799457
-0.00773078
-0.00753898
-0.00740849
-0.00732759
-0.0072845
-0.00726824
-0.00726923
-0.00727964
-0.00729348
-0.00730648
-0.00731592
-0.0073203
-0.00731909
-0.00731249
-0.0073012
-0.00728621
-0.00726872
-0.00724994
-0.00723103
-0.00721297
-0.0071965
-0.00718202
-0.00716958
-0.00715888
-0.00714926
-0.00713879
-0.00713062
0.000638593
0.000629712
0.000612642
0.000585835
0.000550154
0.000506812
0.000457406
0.000403662
0.000347123
0.000288896
0.000229453
0.000168499
0.000104891
3.65827e-05
-3.94123e-05
-0.000127043
-0.000231234
-0.000357871
-0.000513734
-0.000706368
-0.000943862
-0.00123453
-0.00158651
-0.00200732
-0.00250336
-0.00307952
-0.00373883
-0.00448224
-0.00530856
-0.00621454
-0.00719498
-0.00824301
-0.00935036
-0.0105077
-0.0117048
-0.0129311
-0.0141759
-0.0154284
-0.0166785
-0.0179162
-0.0191325
-0.0203192
-0.0214688
-0.0225749
-0.0236319
-0.024635
-0.0255802
-0.0264643
-0.0272846
-0.0280392
-0.0287264
-0.0293452
-0.0298947
-0.0303745
-0.0307846
-0.0311249
-0.0313958
-0.0315977
-0.0317314
-0.0317977
-0.0317976
-0.0317321
-0.0316025
-0.0314102
-0.0311564
-0.0308426
-0.0304704
-0.030041
-0.0295561
-0.0290171
-0.0284252
-0.027782
-0.0270886
-0.0263465
-0.025557
-0.0247219
-0.0238429
-0.0229224
-0.0219634
-0.0209698
-0.0199464
-0.0188996
-0.0178372
-0.0167685
-0.0157048
-0.0146586
-0.0136439
-0.0126751
-0.0117668
-0.0109322
-0.0101827
-0.0095266
-0.00896835
-0.00850819
-0.00814206
-0.00786215
-0.00765771
-0.00751624
-0.00742468
-0.00737047
-0.00734242
-0.00733118
-0.00732939
-0.00733168
-0.00733434
-0.00733514
-0.00733291
-0.00732735
-0.00731871
-0.00730765
-0.00729502
-0.00728174
-0.00726867
-0.0072565
-0.00724563
-0.00723617
-0.00722791
-0.00722035
-0.00721195
-0.00720535
0.000754097
0.000740785
0.0007184
0.000687509
0.000648049
0.000601083
0.000548039
0.000490409
0.000429448
0.000365898
0.000299769
0.000230198
0.000155351
7.23696e-05
-2.26747e-05
-0.000134799
-0.0002701
-0.000435693
-0.000639576
-0.0008904
-0.00119712
-0.00156859
-0.00201299
-0.00253739
-0.00314722
-0.0038459
-0.00463459
-0.00551211
-0.006475
-0.00751766
-0.00863265
-0.00981098
-0.0110425
-0.0123162
-0.0136206
-0.014944
-0.0162752
-0.0176031
-0.0189175
-0.020209
-0.021469
-0.0226901
-0.023866
-0.0249911
-0.026061
-0.027072
-0.0280212
-0.0289064
-0.0297259
-0.0304784
-0.0311633
-0.0317799
-0.0323281
-0.0328079
-0.0332196
-0.0335635
-0.0338403
-0.0340506
-0.0341953
-0.0342752
-0.0342915
-0.0342452
-0.0341377
-0.03397
-0.0337436
-0.0334598
-0.0331198
-0.0327248
-0.0322762
-0.0317749
-0.0312218
-0.0306178
-0.0299635
-0.0292593
-0.0285056
-0.0277028
-0.0268511
-0.025951
-0.0250035
-0.0240099
-0.0229725
-0.0218948
-0.0207818
-0.0196402
-0.0184791
-0.0173096
-0.0161451
-0.0150012
-0.0138949
-0.0128438
-0.0118652
-0.0109744
-0.0101839
-0.00950174
-0.00893087
-0.008469
-0.00810893
-0.00783947
-0.00764687
-0.00751631
-0.00743325
-0.0073846
-0.00735925
-0.00734844
-0.00734562
-0.00734622
-0.00734732
-0.00734725
-0.00734529
-0.00734136
-0.00733583
-0.00732926
-0.00732229
-0.00731546
-0.00730913
-0.00730339
-0.00729809
-0.00729285
-0.00728643
-0.00728118
0.000877765
0.000859708
0.000831659
0.000796618
0.000753433
0.000702828
0.000645954
0.000583965
0.000517723
0.000447497
0.000372716
0.000291815
0.000202132
9.98435e-05
-2.00707e-05
-0.000163827
-0.000338786
-0.000553317
-0.000816562
-0.00113808
-0.00152737
-0.00199335
-0.00254376
-0.00318461
-0.0039198
-0.00475076
-0.00567639
-0.00669306
-0.00779483
-0.00897368
-0.0102199
-0.0115225
-0.0128696
-0.0142488
-0.0156476
-0.0170538
-0.0184558
-0.0198429
-0.0212052
-0.022534
-0.0238219
-0.0250626
-0.0262508
-0.0273823
-0.0284537
-0.0294625
-0.0304069
-0.0312856
-0.0320977
-0.0328426
-0.0335203
-0.0341307
-0.0346741
-0.0351508
-0.0355613
-0.0359063
-0.0361865
-0.0364026
-0.0365557
-0.0366466
-0.0366764
-0.0366462
-0.0365574
-0.0364109
-0.0362082
-0.0359504
-0.0356388
-0.0352744
-0.0348584
-0.0343915
-0.0338744
-0.0333077
-0.0326916
-0.0320259
-0.0313105
-0.0305447
-0.0297279
-0.0288591
-0.0279376
-0.0269627
-0.0259345
-0.0248537
-0.0237222
-0.0225437
-0.021324
-0.0200714
-0.0187971
-0.0175155
-0.0162435
-0.0150009
-0.0138088
-0.0126884
-0.0116598
-0.0107394
-0.00993935
-0.00926531
-0.00871659
-0.00828625
-0.0079622
-0.00772894
-0.0075694
-0.00746675
-0.00740568
-0.00737329
-0.00735937
-0.00735631
-0.00735878
-0.00736332
-0.00736786
-0.00737139
-0.00737357
-0.0073745
-0.00737449
-0.00737385
-0.00737283
-0.00737144
-0.00736954
-0.00736681
-0.00736223
-0.0073581
0.00100799
0.000984827
0.000950837
0.000911663
0.000864795
0.000810475
0.000749448
0.000682421
0.000609751
0.000531113
0.000445228
0.000349691
0.000240865
0.000113817
-3.76935e-05
-0.000221175
-0.000445276
-0.000719551
-0.00105409
-0.00145905
-0.00194403
-0.00251748
-0.00318608
-0.00395424
-0.00482379
-0.00579376
-0.00686046
-0.00801762
-0.00925669
-0.0105673
-0.0119375
-0.0133546
-0.0148052
-0.0162759
-0.0177538
-0.0192264
-0.0206825
-0.022112
-0.0235059
-0.0248568
-0.0261583
-0.0274055
-0.0285943
-0.029722
-0.0307862
-0.0317855
-0.032719
-0.0335862
-0.0343868
-0.035121
-0.035789
-0.0363913
-0.0369282
-0.0374005
-0.0378087
-0.0381535
-0.0384358
-0.0386564
-0.0388162
-0.0389162
-0.0389574
-0.0389409
-0.0388678
-0.0387394
-0.0385568
-0.0383213