/*--------------------------------*- C++ -*----------------------------------*\
| =========                 |                                                 |
| \\      /  F ield         | OpenFOAM: The Open Source CFD Toolbox           |
|  \\    /   O peration     | Version:  2406                                  |
|   \\  /    A nd           | Website:  www.openfoam.com                      |
|    \\/     M anipulation  |                                                 |
\*---------------------------------------------------------------------------*/
FoamFile
{
    version     2.0;
    format      ascii;
    arch        "LSB;label=32;scalar=64";
    class       volVectorField;
    location    "34";
    object      U_0;
}
// * * * * * * * * * * * * * * * * * * * * * * * * * * * * * * * * * * * * * //

dimensions      [0 1 -1 0 0 0 0];

internalField   nonuniform List<vector> 
3600
(
(5.02075e-05 -5.22323e-05 0)
(0.000460783 -0.000149626 0)
(0.00118725 -0.000217619 0)
(0.00205322 -0.000222936 0)
(0.00284777 -0.000188388 0)
(0.00346497 -0.000135456 0)
(0.00387384 -8.5338e-05 0)
(0.00410277 -5.0271e-05 0)
(0.00420379 -3.24943e-05 0)
(0.00421931 -2.46285e-05 0)
(0.00416416 -1.48216e-05 0)
(0.00401643 4.40446e-06 0)
(0.00372301 3.78888e-05 0)
(0.00321513 8.7645e-05 0)
(0.00241698 0.00015413 0)
(0.0012486 0.000237849 0)
(-0.000373517 0.000339355 0)
(-0.00253394 0.000457912 0)
(-0.00531225 0.000590301 0)
(-0.00877357 0.000731229 0)
(-0.0129559 0.00087736 0)
(-0.017856 0.00103109 0)
(-0.0234163 0.00119761 0)
(-0.0295133 0.00137496 0)
(-0.0359508 0.00154563 0)
(-0.04246 0.00167637 0)
(-0.04871 0.0017255 0)
(-0.0543306 0.00165707 0)
(-0.0589397 0.00145802 0)
(-0.0621598 0.00112823 0)
(-0.0636528 0.000658749 0)
(-0.0631621 4.46752e-05 0)
(-0.060558 -0.000652306 0)
(-0.0557759 -0.00137571 0)
(-0.0488916 -0.00207221 0)
(-0.040124 -0.00268272 0)
(-0.0298378 -0.0031461 0)
(-0.0185393 -0.0034067 0)
(-0.00685238 -0.00342251 0)
(0.00452264 -0.00317492 0)
(0.0148729 -0.00267692 0)
(0.0235499 -0.00197804 0)
(0.0300527 -0.00116187 0)
(0.0340972 -0.000331973 0)
(0.0356835 0.000399875 0)
(0.035018 0.000916897 0)
(0.0325287 0.00121394 0)
(0.0288159 0.00132587 0)
(0.0244852 0.00129524 0)
(0.0200446 0.00116877 0)
(0.0158641 0.000998714 0)
(0.0121683 0.000822554 0)
(0.00905066 0.000659919 0)
(0.00650874 0.000519645 0)
(0.00448306 0.000404635 0)
(0.00288995 0.000313227 0)
(0.00165282 0.000236802 0)
(0.000729463 0.000160946 0)
(0.000158374 6.23839e-05 0)
(-1.96485e-05 -2.46114e-05 0)
(0.000139765 -0.000454916 0)
(0.00119912 -0.00121402 0)
(0.00278266 -0.00164824 0)
(0.00457767 -0.00166966 0)
(0.00616187 -0.00139326 0)
(0.00732324 -0.000974149 0)
(0.00797902 -0.000549881 0)
(0.00815184 -0.000202158 0)
(0.00790768 5.50636e-05 0)
(0.00729163 0.00026572 0)
(0.00628193 0.000502324 0)
(0.0047793 0.000831973 0)
(0.00262395 0.00130009 0)
(-0.000379855 0.00192867 0)
(-0.00444061 0.00272599 0)
(-0.00976402 0.0036946 0)
(-0.0165373 0.00483053 0)
(-0.0249055 0.00611737 0)
(-0.0349365 0.00752047 0)
(-0.0465793 0.00898088 0)
(-0.0596224 0.0104055 0)
(-0.0736766 0.0116656 0)
(-0.0881947 0.0126134 0)
(-0.102528 0.013106 0)
(-0.116005 0.0130276 0)
(-0.128001 0.0123039 0)
(-0.137982 0.0109075 0)
(-0.145518 0.00885918 0)
(-0.150293 0.00622392 0)
(-0.152104 0.00309848 0)
(-0.150832 -0.000400294 0)
(-0.146388 -0.00414584 0)
(-0.138811 -0.00797546 0)
(-0.128234 -0.0117085 0)
(-0.114868 -0.0151424 0)
(-0.0990301 -0.0180649 0)
(-0.0811529 -0.0202619 0)
(-0.0617971 -0.0215352 0)
(-0.041642 -0.0217267 0)
(-0.0214692 -0.020748 0)
(-0.00212246 -0.0186096 0)
(0.0155472 -0.0154417 0)
(0.0307533 -0.0114975 0)
(0.0428475 -0.00713486 0)
(0.0513812 -0.00277068 0)
(0.0561953 0.00115688 0)
(0.0574363 0.00432025 0)
(0.0555076 0.00653139 0)
(0.051057 0.00774057 0)
(0.0449019 0.00804324 0)
(0.037895 0.00765506 0)
(0.0307785 0.00683672 0)
(0.0240975 0.00582614 0)
(0.0181729 0.00480137 0)
(0.0131284 0.00387073 0)
(0.00895132 0.00307529 0)
(0.00557078 0.00238758 0)
(0.00291897 0.00171629 0)
(0.00108847 0.000940881 0)
(0.000105318 0.00018908 0)
(0.000215194 -0.00117252 0)
(0.00170853 -0.00281529 0)
(0.00373183 -0.0036109 0)
(0.00589092 -0.00354055 0)
(0.00765023 -0.0028448 0)
(0.00875797 -0.00183538 0)
(0.00910289 -0.000783046 0)
(0.00867843 0.000158255 0)
(0.00750673 0.000973986 0)
(0.00556346 0.00176443 0)
(0.00273066 0.00268537 0)
(-0.00120588 0.00388468 0)
(-0.00652739 0.00545939 0)
(-0.0135415 0.00745078 0)
(-0.0225414 0.00985974 0)
(-0.0337619 0.0126563 0)
(-0.0473215 0.0157707 0)
(-0.063149 0.0190681 0)
(-0.080916 0.0223243 0)
(-0.100025 0.0252373 0)
(-0.119682 0.0274831 0)
(-0.139034 0.0287903 0)
(-0.157295 0.02899 0)
(-0.173823 0.0280228 0)
(-0.18814 0.0259168 0)
(-0.199916 0.0227567 0)
(-0.20894 0.0186576 0)
(-0.215081 0.0137469 0)
(-0.218267 0.00815736 0)
(-0.21846 0.0020359 0)
(-0.215664 -0.004451 0)
(-0.209882 -0.0111259 0)
(-0.201128 -0.0178089 0)
(-0.189458 -0.0242717 0)
(-0.174977 -0.0302468 0)
(-0.157873 -0.0354317 0)
(-0.138422 -0.0395041 0)
(-0.11703 -0.042145 0)
(-0.0942306 -0.0430761 0)
(-0.0706974 -0.0421069 0)
(-0.0472141 -0.0391838 0)
(-0.0246326 -0.0344285 0)
(-0.00380523 -0.0281522 0)
(0.014489 -0.0208342 0)
(0.0296158 -0.0130642 0)
(0.0411512 -0.00545936 0)
(0.0488966 0.00137634 0)
(0.0528786 0.00695894 0)
(0.0533532 0.0109895 0)
(0.0508352 0.0133803 0)
(0.0460398 0.0142481 0)
(0.0397862 0.0138867 0)
(0.032878 0.0126911 0)
(0.0259847 0.0110614 0)
(0.0195699 0.00932077 0)
(0.013888 0.00766589 0)
(0.00904417 0.00613674 0)
(0.00505151 0.00461644 0)
(0.00210982 0.00288604 0)
(0.000253454 0.000949516 0)
(0.000256839 -0.00211308 0)
(0.00197855 -0.0047856 0)
(0.00413934 -0.00587239 0)
(0.0062511 -0.0055219 0)
(0.00769958 -0.00416085 0)
(0.00822428 -0.00228965 0)
(0.00770505 -0.000315599 0)
(0.006099 0.00155365 0)
(0.00334807 0.00333552 0)
(-0.000693719 0.00522119 0)
(-0.0062878 0.00747391 0)
(-0.0137842 0.0103217 0)
(-0.0235617 0.0138925 0)
(-0.0359557 0.0182043 0)
(-0.0511761 0.0231758 0)
(-0.0692075 0.0286148 0)
(-0.0897111 0.0341874 0)
(-0.111997 0.0394232 0)
(-0.135124 0.0438046 0)
(-0.158097 0.0468936 0)
(-0.180042 0.0484154 0)
(-0.200298 0.0482675 0)
(-0.218423 0.0464829 0)
(-0.234158 0.0431802 0)
(-0.247374 0.0385212 0)
(-0.25802 0.0326815 0)
(-0.266084 0.0258321 0)
(-0.271567 0.01813 0)
(-0.274462 0.00972123 0)
(-0.274747 0.000754133 0)
(-0.272392 -0.00861276 0)
(-0.267354 -0.018208 0)
(-0.259574 -0.0278121 0)
(-0.248991 -0.0371712 0)
(-0.235572 -0.0459659 0)
(-0.219335 -0.0538193 0)
(-0.200376 -0.0602992 0)
(-0.178911 -0.0649514 0)
(-0.155305 -0.0673436 0)
(-0.130099 -0.0671327 0)
(-0.104016 -0.0641392 0)
(-0.0779228 -0.0584166 0)
(-0.0527699 -0.0502892 0)
(-0.0294848 -0.040339 0)
(-0.00886555 -0.0293335 0)
(0.00850208 -0.018116 0)
(0.0222559 -0.00749814 0)
(0.0322644 0.00183102 0)
(0.0385779 0.00936751 0)
(0.0414112 0.0148127 0)
(0.0411589 0.0180951 0)
(0.0384 0.0193842 0)
(0.0338484 0.0190588 0)
(0.0282524 0.0176196 0)
(0.0222822 0.0155711 0)
(0.016449 0.0133035 0)
(0.0110994 0.0109965 0)
(0.00642083 0.00857044 0)
(0.00279578 0.00571894 0)
(0.000353627 0.00217017 0)
(0.000281261 -0.0031545 0)
(0.00206513 -0.00682826 0)
(0.00408374 -0.00800386 0)
(0.00576076 -0.00709002 0)
(0.00644237 -0.00476738 0)
(0.00588085 -0.0017431 0)
(0.00395203 0.00146434 0)
(0.000557707 0.00464492 0)
(-0.00447817 0.00790039 0)
(-0.0114604 0.0115435 0)
(-0.0208007 0.0159352 0)
(-0.0329322 0.0213309 0)
(-0.0481955 0.0277959 0)
(-0.0667129 0.0351823 0)
(-0.0882644 0.0431218 0)
(-0.112212 0.0510325 0)
(-0.137566 0.0582048 0)
(-0.163197 0.0639709 0)
(-0.188083 0.0678568 0)
(-0.211453 0.0696335 0)
(-0.232814 0.0692826 0)
(-0.2519 0.0669276 0)
(-0.268607 0.0627669 0)
(-0.282922 0.0570248 0)
(-0.294878 0.0499207 0)
(-0.30453 0.0416541 0)
(-0.311934 0.0323988 0)
(-0.317135 0.0223042 0)
(-0.320153 0.0115032 0)
(-0.320981 0.00012345 0)
(-0.319606 -0.0117036 0)
(-0.31597 -0.0238353 0)
(-0.309963 -0.0360689 0)
(-0.301459 -0.0481523 0)
(-0.290301 -0.0597532 0)
(-0.276336 -0.0704536 0)
(-0.259439 -0.0797446 0)
(-0.239566 -0.087048 0)
(-0.216807 -0.0917619 0)
(-0.19145 -0.0933361 0)
(-0.164035 -0.091375 0)
(-0.135373 -0.0857474 0)
(-0.10651 -0.076678 0)
(-0.0786208 -0.0647769 0)
(-0.0528423 -0.0509797 0)
(-0.0300943 -0.0363952 0)
(-0.0109579 -0.022112 0)
(0.00434161 -0.00903231 0)
(0.015831 0.00217019 0)
(0.0236744 0.0110551 0)
(0.0281259 0.0174035 0)
(0.0295485 0.0212259 0)
(0.0284439 0.0227732 0)
(0.0254336 0.0225013 0)
(0.0211888 0.0209713 0)
(0.0163357 0.018703 0)
(0.0114027 0.0160137 0)
(0.00676663 0.0128916 0)
(0.00300462 0.00896268 0)
(0.000384661 0.0036286 0)
(0.000287449 -0.00422465 0)
(0.00196724 -0.00873586 0)
(0.00354886 -0.0096878 0)
(0.00439598 -0.00784814 0)
(0.00386383 -0.00421352 0)
(0.00173174 0.000301849 0)
(-0.00214055 0.00511709 0)
(-0.00793889 0.0100888 0)
(-0.0159873 0.0154537 0)
(-0.0267405 0.0216427 0)
(-0.0406763 0.0290397 0)
(-0.0581284 0.0377832 0)
(-0.0791142 0.0476699 0)
(-0.103206 0.0581482 0)
(-0.129511 0.0683944 0)
(-0.156832 0.0774931 0)
(-0.183954 0.0846682 0)
(-0.209885 0.0894354 0)
(-0.233955 0.0916174 0)
(-0.255785 0.0912699 0)
(-0.275211 0.0885901 0)
(-0.292205 0.0838422 0)
(-0.306819 0.0773079 0)
(-0.319151 0.0692568 0)
(-0.329322 0.0599298 0)
(-0.337465 0.0495314 0)
(-0.343709 0.0382292 0)
(-0.348174 0.0261594 0)
(-0.350948 0.0134308 0)
(-0.35209 0.000127219 0)
(-0.35163 -0.0136708 0)
(-0.349539 -0.0278387 0)
(-0.345706 -0.0422409 0)
(-0.339974 -0.0566678 0)
(-0.332101 -0.0708329 0)
(-0.321791 -0.0843311 0)
(-0.308699 -0.0966369 0)
(-0.29248 -0.107094 0)
(-0.272855 -0.114955 0)
(-0.249704 -0.119439 0)
(-0.22317 -0.119852 0)
(-0.193764 -0.115731 0)
(-0.162417 -0.107007 0)
(-0.130453 -0.0941216 0)
(-0.0994292 -0.0780535 0)
(-0.0708695 -0.0601844 0)
(-0.0459501 -0.0420276 0)
(-0.0252895 -0.0249151 0)
(-0.00896198 -0.00980278 0)
(0.00329458 0.00274392 0)
(0.0118499 0.0124494 0)
(0.0170804 0.0192509 0)
(0.0193911 0.023291 0)
(0.0192657 0.0249219 0)
(0.0172774 0.024658 0)
(0.0140412 0.0230469 0)
(0.0101646 0.0204778 0)
(0.0061642 0.0169862 0)
(0.00275967 0.0121438 0)
(0.000349369 0.00507791 0)
(0.000269485 -0.00523243 0)
(0.00163886 -0.0102551 0)
(0.00245512 -0.0105581 0)
(0.00206512 -0.00737035 0)
(-0.000113249 -0.00204119 0)
(-0.00427148 0.00434096 0)
(-0.0105945 0.0112067 0)
(-0.0193848 0.0185468 0)
(-0.0311016 0.026743 0)
(-0.0462491 0.0362595 0)
(-0.0651626 0.0473209 0)
(-0.0877837 0.0597041 0)
(-0.113525 0.072709 0)
(-0.141307 0.0853003 0)
(-0.169792 0.0963793 0)
(-0.197705 0.105068 0)
(-0.224071 0.110861 0)
(-0.248268 0.113614 0)
(-0.269967 0.113436 0)
(-0.289046 0.110589 0)
(-0.305518 0.105401 0)
(-0.319488 0.0982221 0)
(-0.331121 0.0893877 0)
(-0.34062 0.0792 0)
(-0.348211 0.0679161 0)
(-0.354123 0.055742 0)
(-0.35857 0.0428345 0)
(-0.361744 0.0293071 0)
(-0.363811 0.0152341 0)
(-0.364895 0.000653953 0)
(-0.365055 -0.0144029 0)
(-0.364305 -0.0298778 0)
(-0.362594 -0.0457103 0)
(-0.359779 -0.0617775 0)
(-0.35562 -0.0778848 0)
(-0.349761 -0.0937155 0)
(-0.341735 -0.10881 0)
(-0.33097 -0.122533 0)
(-0.316842 -0.134076 0)
(-0.29876 -0.142491 0)
(-0.276298 -0.146776 0)
(-0.249368 -0.146036 0)
(-0.218392 -0.139687 0)
(-0.184425 -0.127686 0)
(-0.149148 -0.110711 0)
(-0.114659 -0.0901756 0)
(-0.083053 -0.068016 0)
(-0.0559123 -0.0462482 0)
(-0.0339521 -0.0264841 0)
(-0.0170557 -0.00967701 0)
(-0.00464881 0.00379769 0)
(0.00391527 0.0139071 0)
(0.00919581 0.0208047 0)
(0.0116939 0.024796 0)
(0.0119295 0.026328 0)
(0.0104728 0.0259064 0)
(0.0079402 0.0239171 0)
(0.00492402 0.0203966 0)
(0.00220614 0.0148731 0)
(0.000271057 0.00631506 0)
(0.000216261 -0.0060541 0)
(0.00101248 -0.0110847 0)
(0.000705175 -0.0102243 0)
(-0.00132196 -0.00524675 0)
(-0.00554134 0.00217115 0)
(-0.0121308 0.0108291 0)
(-0.0213493 0.0202497 0)
(-0.0336093 0.0305872 0)
(-0.0494096 0.0422882 0)
(-0.0690976 0.0556516 0)
(-0.0925913 0.0704814 0)
(-0.119219 0.0859871 0)
(-0.147781 0.10096 0)
(-0.176833 0.114122 0)
(-0.205036 0.124474 0)
(-0.231389 0.131458 0)
(-0.255263 0.134931 0)
(-0.276335 0.135039 0)
(-0.294496 0.132104 0)
(-0.309795 0.126528 0)
(-0.322397 0.118746 0)
(-0.332548 0.10918 0)
(-0.340545 0.0982094 0)
(-0.346707 0.0861596 0)
(-0.35135 0.0732878 0)
(-0.354768 0.0597843 0)
(-0.357219 0.0457783 0)
(-0.358924 0.031346 0)
(-0.360071 0.0165206 0)
(-0.360808 0.00130655 0)
(-0.361218 -0.0143068 0)
(-0.361354 -0.0303439 0)
(-0.361227 -0.0468067 0)
(-0.360767 -0.06367 0)
(-0.359814 -0.0808469 0)
(-0.358082 -0.0981594 0)
(-0.355138 -0.115291 0)
(-0.350368 -0.131744 0)
(-0.342984 -0.146795 0)
(-0.332059 -0.159483 0)
(-0.316635 -0.168637 0)
(-0.295897 -0.172982 0)
(-0.269421 -0.171341 0)
(-0.237455 -0.162919 0)
(-0.201137 -0.147637 0)
(-0.162554 -0.126392 0)
(-0.124476 -0.101107 0)
(-0.0897516 -0.0744137 0)
(-0.0605084 -0.0489637 0)
(-0.0375831 -0.0266909 0)
(-0.020601 -0.00848892 0)
(-0.00859567 0.00555149 0)
(-0.000592973 0.0157133 0)
(0.0041844 0.022402 0)
(0.00637119 0.0260782 0)
(0.00656189 0.0272118 0)
(0.00537798 0.0261467 0)
(0.00344587 0.0228873 0)
(0.00154123 0.0169342 0)
(0.000180588 0.00723228 0)
(0.000116145 -0.00652043 0)
(2.85942e-05 -0.0108876 0)
(-0.00177047 -0.00830588 0)
(-0.00579535 -0.0011016 0)
(-0.0123767 0.00878893 0)
(-0.0217196 0.0201477 0)
(-0.0341514 0.0326431 0)
(-0.0501213 0.0465355 0)
(-0.0699864 0.0621444 0)
(-0.0936937 0.0793391 0)
(-0.120567 0.0973103 0)
(-0.149356 0.11472 0)
(-0.178535 0.130109 0)
(-0.206682 0.142317 0)
(-0.232728 0.150688 0)
(-0.256 0.155045 0)
(-0.27615 0.155556 0)
(-0.293079 0.1526 0)
(-0.306877 0.14667 0)
(-0.317782 0.138301 0)
(-0.326134 0.12802 0)
(-0.332329 0.1163 0)
(-0.336773 0.103542 0)
(-0.339855 0.0900561 0)
(-0.341919 0.0760696 0)
(-0.343255 0.0617308 0)
(-0.344098 0.047123 0)
(-0.344638 0.0322776 0)
(-0.345026 0.0171893 0)
(-0.345383 0.0018329 0)
(-0.345794 -0.0138331 0)
(-0.346331 -0.0298712 0)
(-0.347042 -0.0463311 0)
(-0.347943 -0.0632534 0)
(-0.348989 -0.0806446 0)
(-0.350049 -0.0984593 0)
(-0.350857 -0.116556 0)
(-0.35096 -0.134649 0)
(-0.34967 -0.15224 0)
(-0.346029 -0.168555 0)
(-0.338833 -0.182498 0)
(-0.326735 -0.192662 0)
(-0.308465 -0.197446 0)
(-0.283163 -0.195293 0)
(-0.250788 -0.185078 0)
(-0.212496 -0.166582 0)
(-0.170786 -0.140901 0)
(-0.129217 -0.110562 0)
(-0.0915538 -0.0790777 0)
(-0.060571 -0.0499049 0)
(-0.0371902 -0.025327 0)
(-0.020662 -0.0060758 0)
(-0.00955172 0.00815446 0)
(-0.00253591 0.0180164 0)
(0.00139143 0.0241558 0)
(0.00301299 0.0271082 0)
(0.00302506 0.0272091 0)
(0.00208961 0.0244378 0)
(0.000946096 0.0182978 0)
(0.000104943 0.00782587 0)
(-4.84805e-05 -0.00642484 0)
(-0.00135523 -0.00931338 0)
(-0.00496541 -0.00445941 0)
(-0.0112731 0.00536865 0)
(-0.0204445 0.0180849 0)
(-0.0327285 0.0325476 0)
(-0.0484771 0.0485556 0)
(-0.0680339 0.0663128 0)
(-0.0914083 0.0857572 0)
(-0.117997 0.106133 0)
(-0.14657 0.126033 0)
(-0.175551 0.14382 0)
(-0.203427 0.158127 0)
(-0.229028 0.16814 0)
(-0.251606 0.173607 0)
(-0.270774 0.174696 0)
(-0.286436 0.171841 0)
(-0.29873 0.165635 0)
(-0.307976 0.156734 0)
(-0.314612 0.145783 0)
(-0.319133 0.133362 0)
(-0.322028 0.119952 0)
(-0.323741 0.105919 0)
(-0.324646 0.091518 0)
(-0.32504 0.0769108 0)
(-0.325143 0.0621829 0)
(-0.325117 0.0473632 0)
(-0.325078 0.032441 0)
(-0.325111 0.0173821 0)
(-0.325283 0.00214126 0)
(-0.325655 -0.0133364 0)
(-0.326289 -0.0291165 0)
(-0.32725 -0.0452617 0)
(-0.328601 -0.0618352 0)
(-0.330391 -0.0788911 0)
(-0.332635 -0.0964664 0)
(-0.335269 -0.114557 0)
(-0.338099 -0.133079 0)
(-0.340725 -0.151809 0)
(-0.342458 -0.170293 0)
(-0.34225 -0.187753 0)
(-0.338679 -0.202996 0)
(-0.33003 -0.214386 0)
(-0.314545 -0.219942 0)
(-0.290841 -0.217626 0)
(-0.258484 -0.205846 0)
(-0.218557 -0.184125 0)
(-0.173975 -0.153742 0)
(-0.129189 -0.117974 0)
(-0.0890278 -0.0814707 0)
(-0.0569482 -0.0486765 0)
(-0.0338095 -0.0221753 0)
(-0.0183145 -0.00235558 0)
(-0.00851116 0.0116013 0)
(-0.00274633 0.0207169 0)
(0.000191819 0.0257889 0)
(0.00122084 0.02727 0)
(0.00109576 0.0251829 0)
(0.000542533 0.0190833 0)
(6.06947e-05 0.00817324 0)
(-0.000286874 -0.00554629 0)
(-0.00313005 -0.00603456 0)
(-0.00879157 0.00158718 0)
(-0.0175574 0.0143559 0)
(-0.0294132 0.0301957 0)
(-0.0446418 0.0480788 0)
(-0.0635233 0.0678276 0)
(-0.0861334 0.0893634 0)
(-0.112 0.112036 0)
(-0.13999 0.134448 0)
(-0.168531 0.154806 0)
(-0.19602 0.171499 0)
(-0.221168 0.183488 0)
(-0.243124 0.190386 0)
(-0.261443 0.192325 0)
(-0.276023 0.189788 0)
(-0.287044 0.183468 0)
(-0.294905 0.174157 0)
(-0.300142 0.162637 0)
(-0.30334 0.149606 0)
(-0.305064 0.135632 0)
(-0.305803 0.121135 0)
(-0.305949 0.106397 0)
(-0.305789 0.091585 0)
(-0.305518 0.0767763 0)
(-0.305258 0.0619887 0)
(-0.305079 0.0472022 0)
(-0.305017 0.0323754 0)
(-0.305094 0.0174589 0)
(-0.305327 0.00240116 0)
(-0.305745 -0.0128498 0)
(-0.306388 -0.0283447 0)
(-0.307313 -0.0441347 0)
(-0.308597 -0.0602735 0)
(-0.310331 -0.076819 0)
(-0.312611 -0.0938333 0)
(-0.315513 -0.111377 0)
(-0.319057 -0.129492 0)
(-0.323148 -0.148163 0)
(-0.32748 -0.167251 0)
(-0.33143 -0.186387 0)
(-0.333937 -0.204832 0)
(-0.333436 -0.221336 0)
(-0.327898 -0.234043 0)
(-0.315081 -0.240555 0)
(-0.293033 -0.238251 0)
(-0.260841 -0.224928 0)
(-0.219456 -0.199743 0)
(-0.17223 -0.164192 0)
(-0.124636 -0.122537 0)
(-0.0826909 -0.0809109 0)
(-0.0504504 -0.0448872 0)
(-0.0284034 -0.0171375 0)
(-0.014505 0.002567 0)
(-0.00630841 0.0156279 0)
(-0.0019059 0.0233456 0)
(5.75496e-05 0.0265098 0)
(0.000553974 0.0253309 0)
(0.000377568 0.019494 0)
(5.28202e-05 0.00839523 0)
(-0.000595333 -0.00366949 0)
(-0.00522854 -0.000799505 0)
(-0.0130736 0.00998961 0)
(-0.0243382 0.0259229 0)
(-0.0388108 0.0450874 0)
(-0.0567676 0.0665371 0)
(-0.0782958 0.089943 0)
(-0.103087 0.114735 0)
(-0.130181 0.139606 0)
(-0.158079 0.162675 0)
(-0.185122 0.182064 0)
(-0.209889 0.196437 0)
(-0.231402 0.205193 0)
(-0.249134 0.208375 0)
(-0.262952 0.206485 0)
(-0.27306 0.200312 0)
(-0.279922 0.19079 0)
(-0.284158 0.178853 0)
(-0.286439 0.165335 0)
(-0.287394 0.150902 0)
(-0.287553 0.136037 0)
(-0.287318 0.121046 0)
(-0.286964 0.106096 0)
(-0.286658 0.0912533 0)
(-0.286483 0.0765162 0)
(-0.286464 0.0618475 0)
(-0.286596 0.047194 0)
(-0.286858 0.0324997 0)
(-0.287227 0.0177136 0)
(-0.287688 0.00279084 0)
(-0.288245 -0.0123063 0)
(-0.288917 -0.0276078 0)
(-0.289746 -0.0431429 0)
(-0.2908 -0.0589419 0)
(-0.29217 -0.075043 0)
(-0.293972 -0.0914966 0)
(-0.296341 -0.108371 0)
(-0.299408 -0.12575 0)
(-0.303274 -0.143724 0)
(-0.307939 -0.162354 0)
(-0.313212 -0.1816 0)
(-0.318566 -0.201196 0)
(-0.322981 -0.220473 0)
(-0.324813 -0.238142 0)
(-0.321777 -0.252132 0)
(-0.311178 -0.259585 0)
(-0.290486 -0.257192 0)
(-0.258278 -0.242013 0)
(-0.215372 -0.212772 0)
(-0.165652 -0.17131 0)
(-0.115796 -0.123277 0)
(-0.0730978 -0.0767203 0)
(-0.0419136 -0.0383238 0)
(-0.0218702 -0.0103651 0)
(-0.0100484 0.00830875 0)
(-0.00364417 0.0196346 0)
(-0.000619016 0.0250163 0)
(0.000404089 0.0250746 0)
(0.000427066 0.0197436 0)
(7.65476e-05 0.0086179 0)
(-0.00095964 -0.000618415 0)
(-0.00753181 0.00653294 0)
(-0.0175629 0.0207682 0)
(-0.0312204 0.0399801 0)
(-0.0480705 0.0625306 0)
(-0.0683219 0.0874591 0)
(-0.0917685 0.114098 0)
(-0.117691 0.141268 0)
(-0.144747 0.167092 0)
(-0.171288 0.189458 0)
(-0.195772 0.206668 0)
(-0.217069 0.217809 0)
(-0.234534 0.222752 0)
(-0.247975 0.221961 0)
(-0.257583 0.2163 0)
(-0.26386 0.20684 0)
(-0.267493 0.194684 0)
(-0.269226 0.180821 0)
(-0.269751 0.166038 0)
(-0.269634 0.150889 0)
(-0.26929 0.135715 0)
(-0.268984 0.120687 0)
(-0.268857 0.105854 0)
(-0.268961 0.0911939 0)
(-0.269287 0.0766476 0)
(-0.269794 0.0621452 0)
(-0.27043 0.0476197 0)
(-0.271145 0.0330152 0)
(-0.271895 0.018289 0)
(-0.272652 0.0034104 0)
(-0.273405 -0.0116401 0)
(-0.274159 -0.0268727 0)
(-0.274941 -0.0422935 0)
(-0.275798 -0.057908 0)
(-0.276804 -0.0737271 0)
(-0.278058 -0.0897742 0)
(-0.279691 -0.106094 0)
(-0.281863 -0.122762 0)
(-0.284752 -0.13989 0)
(-0.288524 -0.157621 0)
(-0.293275 -0.176096 0)
(-0.298922 -0.195384 0)
(-0.305047 -0.215331 0)
(-0.310688 -0.23534 0)
(-0.314149 -0.254081 0)
(-0.312919 -0.26923 0)
(-0.30388 -0.277397 0)
(-0.283944 -0.27448 0)
(-0.251216 -0.256691 0)
(-0.206479 -0.222343 0)
(-0.154362 -0.173945 0)
(-0.103014 -0.119168 0)
(-0.0609817 -0.0684374 0)
(-0.0322794 -0.0291328 0)
(-0.0150748 -0.00234819 0)
(-0.00568434 0.0141692 0)
(-0.00117451 0.0226853 0)
(0.000459064 0.0245049 0)
(0.000610722 0.019988 0)
(0.000120577 0.00893994 0)
(-0.00135392 0.00370864 0)
(-0.00988165 0.0159722 0)
(-0.0219679 0.0338021 0)
(-0.0377697 0.0562827 0)
(-0.0566013 0.0821103 0)
(-0.0785441 0.110179 0)
(-0.103053 0.13934 0)
(-0.129056 0.167809 0)
(-0.154995 0.193328 0)
(-0.179259 0.213814 0)
(-0.200554 0.227935 0)
(-0.218081 0.235267 0)
(-0.231538 0.236157 0)
(-0.241066 0.231487 0)
(-0.247163 0.222447 0)
(-0.250558 0.210318 0)
(-0.252055 0.196267 0)
(-0.252406 0.18123 0)
(-0.252218 0.165861 0)
(-0.251924 0.150551 0)
(-0.251789 0.13548 0)
(-0.251936 0.120686 0)
(-0.252391 0.106126 0)
(-0.253121 0.0917158 0)
(-0.254061 0.0773662 0)
(-0.255138 0.0629963 0)
(-0.256281 0.0485417 0)
(-0.257433 0.0339562 0)
(-0.258547 0.0192103 0)
(-0.259595 0.00428913 0)
(-0.260559 -0.0108104 0)
(-0.26144 -0.0260822 0)
(-0.26225 -0.0415142 0)
(-0.263019 -0.0570914 0)
(-0.263795 -0.0728011 0)
(-0.264648 -0.0886381 0)
(-0.265678 -0.104614 0)
(-0.267017 -0.120771 0)
(-0.26884 -0.137192 0)
(-0.271355 -0.154017 0)
(-0.27479 -0.171446 0)
(-0.279326 -0.189711 0)
(-0.284991 -0.208996 0)
(-0.291468 -0.229266 0)
(-0.297846 -0.249983 0)
(-0.302362 -0.269731 0)
(-0.302267 -0.285851 0)
(-0.294017 -0.294295 0)
(-0.274004 -0.290023 0)
(-0.239971 -0.268333 0)
(-0.192901 -0.227308 0)
(-0.138552 -0.170762 0)
(-0.0868849 -0.109334 0)
(-0.0473868 -0.0560877 0)
(-0.0225952 -0.0179405 0)
(-0.00884308 0.00607731 0)
(-0.0021024 0.0191491 0)
(0.000452694 0.0235452 0)
(0.000813921 0.0202735 0)
(0.000169836 0.0094094 0)
(-0.00174321 0.00931675 0)
(-0.0121018 0.0273903 0)
(-0.0259911 0.048838 0)
(-0.0435665 0.0744497 0)
(-0.0638661 0.10327 0)
(-0.0868068 0.133922 0)
(-0.111518 0.164716 0)
(-0.13669 0.193368 0)
(-0.160712 0.217463 0)
(-0.182152 0.23516 0)
(-0.200021 0.245601 0)
(-0.213862 0.248878 0)
(-0.22371 0.245806 0)
(-0.230012 0.23765 0)
(-0.233502 0.225857 0)
(-0.235028 0.211802 0)
(-0.235397 0.196605 0)
(-0.235267 0.181055 0)
(-0.235102 0.165621 0)
(-0.235173 0.150514 0)
(-0.235602 0.135766 0)
(-0.236398 0.121314 0)
(-0.23751 0.107051 0)
(-0.238856 0.0928639 0)
(-0.240349 0.0786563 0)
(-0.241909 0.0643524 0)
(-0.243467 0.0498998 0)
(-0.244972 0.0352664 0)
(-0.246383 0.0204374 0)
(-0.247676 0.0054112 0)
(-0.248837 -0.00980238 0)
(-0.249861 -0.0251852 0)
(-0.250755 -0.0407129 0)
(-0.251535 -0.0563571 0)
(-0.252229 -0.0720885 0)
(-0.25288 -0.0878811 0)
(-0.253548 -0.103719 0)
(-0.254325 -0.119606 0)
(-0.255337 -0.135582 0)
(-0.256763 -0.151738 0)
(-0.258835 -0.168246 0)
(-0.261828 -0.185362 0)
(-0.266008 -0.203417 0)
(-0.271505 -0.22272 0)
(-0.278096 -0.243359 0)
(-0.284897 -0.264829 0)
(-0.29003 -0.28555 0)
(-0.290446 -0.302377 0)
(-0.282133 -0.310395 0)
(-0.261014 -0.303449 0)
(-0.224672 -0.275927 0)
(-0.174712 -0.226146 0)
(-0.118608 -0.160359 0)
(-0.0684461 -0.0934052 0)
(-0.0336881 -0.0404418 0)
(-0.0138839 -0.00584405 0)
(-0.00389878 0.0137684 0)
(0.000111975 0.0219224 0)
(0.000919135 0.0205129 0)
(0.000209574 0.0100149 0)
(-0.00208906 0.0161049 0)
(-0.0140222 0.0405335 0)
(-0.0293653 0.0655132 0)
(-0.0482562 0.0940002 0)
(-0.0694482 0.125377 0)
(-0.0926868 0.157913 0)
(-0.116838 0.189395 0)
(-0.140483 0.217202 0)
(-0.162093 0.238978 0)
(-0.180494 0.253274 0)
(-0.195023 0.259757 0)
(-0.205553 0.259034 0)
(-0.212422 0.25236 0)
(-0.216322 0.241315 0)
(-0.218117 0.227493 0)
(-0.218663 0.212241 0)
(-0.218677 0.196534 0)
(-0.218668 0.180962 0)
(-0.218935 0.16579 0)
(-0.219605 0.151066 0)
(-0.220685 0.136711 0)
(-0.222113 0.122593 0)
(-0.223798 0.108575 0)
(-0.225642 0.0945419 0)
(-0.227558 0.0804032 0)
(-0.229474 0.0660979 0)
(-0.231335 0.051589 0)
(-0.233098 0.0368587 0)
(-0.234733 0.0219044 0)
(-0.23622 0.00673539 0)
(-0.237548 -0.00862946 0)
(-0.238712 -0.0241638 0)
(-0.239715 -0.0398352 0)
(-0.240565 -0.0556072 0)
(-0.241276 -0.0714408 0)
(-0.241873 -0.0872975 0)
(-0.24239 -0.103143 0)
(-0.242877 -0.118955 0)
(-0.243414 -0.134732 0)
(-0.244117 -0.150515 0)
(-0.245164 -0.166408 0)
(-0.246804 -0.182612 0)
(-0.249355 -0.199448 0)
(-0.253157 -0.217349 0)
(-0.258438 -0.236763 0)
(-0.26505 -0.257893 0)
(-0.272088 -0.280225 0)
(-0.277485 -0.301884 0)
(-0.277784 -0.319004 0)
(-0.268449 -0.325513 0)
(-0.245008 -0.313928 0)
(-0.205236 -0.277901 0)
(-0.152012 -0.216953 0)
(-0.0953139 -0.141616 0)
(-0.0493376 -0.0720416 0)
(-0.0213544 -0.0230716 0)
(-0.00695334 0.00568467 0)
(-0.000771552 0.0191866 0)
(0.000840806 0.0205013 0)
(0.000230466 0.0106942 0)
(-0.00235592 0.023872 0)
(-0.0154998 0.0550472 0)
(-0.0318824 0.0833894 0)
(-0.0515849 0.114401 0)
(-0.073089 0.147795 0)
(-0.0959891 0.181455 0)
(-0.118974 0.212729 0)
(-0.140635 0.23884 0)
(-0.159614 0.257663 0)
(-0.175032 0.268231 0)
(-0.186539 0.270751 0)
(-0.194308 0.266326 0)
(-0.198923 0.256591 0)
(-0.201225 0.24334 0)
(-0.202103 0.228187 0)
(-0.202336 0.212352 0)
(-0.202494 0.196604 0)
(-0.202924 0.18131 0)
(-0.203776 0.166556 0)
(-0.205066 0.152259 0)
(-0.20673 0.138267 0)
(-0.208671 0.124416 0)
(-0.210787 0.110565 0)
(-0.212986 0.0966093 0)
(-0.215194 0.0824746 0)
(-0.217353 0.0681164 0)
(-0.219422 0.0535119 0)
(-0.221367 0.0386551 0)
(-0.223168 0.0235528 0)
(-0.224807 0.00822186 0)
(-0.226275 -0.00731244 0)
(-0.227566 -0.0230181 0)
(-0.228681 -0.0388575 0)
(-0.229624 -0.0547891 0)
(-0.230402 -0.0707683 0)
(-0.231029 -0.08675 0)
(-0.231524 -0.10269 0)
(-0.231912 -0.118551 0)
(-0.232235 -0.134307 0)
(-0.232557 -0.149955 0)
(-0.232989 -0.165539 0)
(-0.233703 -0.181178 0)
(-0.234964 -0.19711 0)
(-0.237135 -0.213731 0)
(-0.240625 -0.231592 0)
(-0.245745 -0.251286 0)
(-0.252387 -0.273115 0)
(-0.259558 -0.296467 0)
(-0.264875 -0.318966 0)
(-0.264346 -0.335684 0)
(-0.252847 -0.339002 0)
(-0.225698 -0.319943 0)
(-0.181423 -0.271976 0)
(-0.125132 -0.197659 0)
(-0.0701784 -0.114434 0)
(-0.0317272 -0.0473964 0)
(-0.011484 -0.00610489 0)
(-0.00231675 0.0147597 0)
(0.000544744 0.0199574 0)
(0.000230037 0.0113568 0)
(-0.00251644 0.0323355 0)
(-0.0164338 0.0705084 0)
(-0.0334102 0.10199 0)
(-0.0534159 0.135113 0)
(-0.0746946 0.169939 0)
(-0.096728 0.203985 0)
(-0.118119 0.234279 0)
(-0.137558 0.258057 0)
(-0.15391 0.273549 0)
(-0.166591 0.280313 0)
(-0.175534 0.279089 0)
(-0.181159 0.271425 0)
(-0.184217 0.259249 0)
(-0.1856 0.244451 0)
(-0.186142 0.228561 0)
(-0.186488 0.212598 0)
(-0.187049 0.197098 0)
(-0.188022 0.182227 0)
(-0.189446 0.16792 0)
(-0.191265 0.15401 0)
(-0.193382 0.140305 0)
(-0.19569 0.126638 0)
(-0.198098 0.112878 0)
(-0.200529 0.0989378 0)
(-0.202927 0.0847614 0)
(-0.205247 0.0703185 0)
(-0.20746 0.0555976 0)
(-0.209539 0.0406008 0)
(-0.211468 0.0253411 0)
(-0.213231 0.00984048 0)
(-0.214818 -0.00587123 0)
(-0.216222 -0.0217577 0)
(-0.217442 -0.0377771 0)
(-0.218479 -0.0538839 0)
(-0.219338 -0.07003 0)
(-0.220028 -0.0861665 0)
(-0.220561 -0.102246 0)
(-0.220952 -0.118222 0)
(-0.22122 -0.134058 0)
(-0.221396 -0.149727 0)
(-0.221535 -0.165229 0)
(-0.221737 -0.180612 0)
(-0.222174 -0.196015 0)
(-0.223132 -0.211724 0)
(-0.225018 -0.228227 0)
(-0.228317 -0.246218 0)
(-0.233401 -0.266448 0)
(-0.240151 -0.289274 0)
(-0.247366 -0.313825 0)
(-0.252183 -0.336889 0)
(-0.249913 -0.35199 0)
(-0.234858 -0.34951 0)
(-0.202509 -0.319028 0)
(-0.153027 -0.255181 0)
(-0.0950357 -0.16676 0)
(-0.0457736 -0.0808964 0)
(-0.0175692 -0.0227998 0)
(-0.00460418 0.00798702 0)
(3.52926e-05 0.0185514 0)
(0.000210643 0.0119084 0)
(-0.00255458 0.0411591 0)
(-0.0167707 0.0864597 0)
(-0.0338955 0.120836 0)
(-0.0537256 0.155636 0)
(-0.074317 0.191315 0)
(-0.0950826 0.22509 0)
(-0.114621 0.253799 0)
(-0.131781 0.274828 0)
(-0.145669 0.286841 0)
(-0.155972 0.28993 0)
(-0.16286 0.285333 0)
(-0.166934 0.274972 0)
(-0.169026 0.260967 0)
(-0.170003 0.245194 0)
(-0.170585 0.229014 0)
(-0.171266 0.213215 0)
(-0.17231 0.198108 0)
(-0.173799 0.183688 0)
(-0.175697 0.169786 0)
(-0.177913 0.156185 0)
(-0.180342 0.142683 0)
(-0.182889 0.129124 0)
(-0.185478 0.115397 0)
(-0.188053 0.101432 0)
(-0.190571 0.0871882 0)
(-0.193001 0.0726467 0)
(-0.195319 0.0578026 0)
(-0.197505 0.042663 0)
(-0.199541 0.0272443 0)
(-0.201411 0.0115719 0)
(-0.203104 -0.00432098 0)
(-0.204611 -0.0203941 0)
(-0.205927 -0.0366015 0)
(-0.207051 -0.0528935 0)
(-0.207988 -0.0692183 0)
(-0.208746 -0.0855242 0)
(-0.209334 -0.101761 0)
(-0.209765 -0.117882 0)
(-0.21005 -0.133845 0)
(-0.210206 -0.149615 0)
(-0.210254 -0.165168 0)
(-0.210241 -0.180509 0)
(-0.210257 -0.195694 0)
(-0.210481 -0.21089 0)
(-0.211223 -0.226445 0)
(-0.212945 -0.242969 0)
(-0.216209 -0.261332 0)
(-0.221428 -0.282453 0)
(-0.228381 -0.306654 0)
(-0.23549 -0.332521 0)
(-0.239184 -0.355483 0)
(-0.233939 -0.366856 0)
(-0.21366 -0.354615 0)
(-0.174729 -0.307558 0)
(-0.120284 -0.224363 0)
(-0.0639353 -0.124939 0)
(-0.0254784 -0.0459697 0)
(-0.00766793 -0.00183819 0)
(-0.000701387 0.015923 0)
(0.000183477 0.0122628 0)
(-0.00246642 0.0499834 0)
(-0.0165035 0.102441 0)
(-0.0333568 0.139476 0)
(-0.0525864 0.175529 0)
(-0.0721196 0.211536 0)
(-0.0913418 0.244503 0)
(-0.108913 0.271203 0)
(-0.12387 0.289273 0)
(-0.135552 0.297848 0)
(-0.14388 0.297537 0)
(-0.149206 0.290023 0)
(-0.152239 0.277517 0)
(-0.153819 0.262226 0)
(-0.154729 0.245924 0)
(-0.155553 0.229757 0)
(-0.156642 0.214279 0)
(-0.158141 0.199604 0)
(-0.160051 0.185598 0)
(-0.162297 0.172025 0)
(-0.164779 0.158649 0)
(-0.167402 0.145276 0)
(-0.170087 0.131769 0)
(-0.17278 0.118038 0)
(-0.175439 0.104028 0)
(-0.178034 0.0897084 0)
(-0.180544 0.0750671 0)
(-0.182946 0.0601026 0)
(-0.185221 0.0448236 0)
(-0.187351 0.0292485 0)
(-0.189319 0.0134048 0)
(-0.191109 -0.00267123 0)
(-0.19271 -0.0189356 0)
(-0.194115 -0.0353379 0)
(-0.195321 -0.0518237 0)
(-0.196331 -0.0683369 0)
(-0.197153 -0.0848219 0)
(-0.197797 -0.101227 0)
(-0.198275 -0.117503 0)
(-0.198602 -0.13361 0)
(-0.198787 -0.149509 0)
(-0.198843 -0.165174 0)
(-0.198784 -0.180585 0)
(-0.198648 -0.195752 0)
(-0.198524 -0.210749 0)
(-0.1986 -0.225779 0)
(-0.199223 -0.24128 0)