/*--------------------------------*- C++ -*----------------------------------*\
| =========                 |                                                 |
| \\      /  F ield         | OpenFOAM: The Open Source CFD Toolbox           |
|  \\    /   O peration     | Version:  2406                                  |
|   \\  /    A nd           | Website:  www.openfoam.com                      |
|    \\/     M anipulation  |                                                 |
\*---------------------------------------------------------------------------*/
FoamFile
{
    version     2.0;
    format      ascii;
    arch        "LSB;label=32;scalar=64";
    class       volVectorField;
    location    "38.7";
    object      U;
}
// * * * * * * * * * * * * * * * * * * * * * * * * * * * * * * * * * * * * * //

dimensions      [0 1 -1 0 0 0 0];

internalField   nonuniform List<vector> 
14400
(
(-1.78543e-05 1.78024e-05 0)
(-5.9368e-07 -1.15401e-05 0)
(0.000110086 -4.33725e-05 0)
(0.000299721 -7.15409e-05 0)
(0.000556872 -8.82445e-05 0)
(0.000847942 -9.75089e-05 0)
(0.00115794 -9.83897e-05 0)
(0.00146076 -9.39582e-05 0)
(0.00174574 -8.47302e-05 0)
(0.00199778 -7.30376e-05 0)
(0.00221307 -5.98706e-05 0)
(0.00238691 -4.69102e-05 0)
(0.00252198 -3.49634e-05 0)
(0.00262093 -2.49493e-05 0)
(0.00269031 -1.71604e-05 0)
(0.00273603 -1.17833e-05 0)
(0.0027651 -8.58272e-06 0)
(0.00278291 -7.20498e-06 0)
(0.00279409 -7.0712e-06 0)
(0.00280105 -7.57198e-06 0)
(0.00280462 -8.05473e-06 0)
(0.00280349 -7.94895e-06 0)
(0.00279488 -6.77284e-06 0)
(0.00277458 -4.18912e-06 0)
(0.0027375 1.61251e-08 0)
(0.00267796 5.94185e-06 0)
(0.00259 1.36209e-05 0)
(0.00246749 2.30546e-05 0)
(0.00230427 3.42527e-05 0)
(0.00209408 4.72496e-05 0)
(0.00183055 6.21105e-05 0)
(0.00150711 7.89196e-05 0)
(0.00111706 9.77637e-05 0)
(0.000653596 0.000118711 0)
(0.000109921 0.000141795 0)
(-0.000520571 0.000167001 0)
(-0.00124411 0.000194252 0)
(-0.00206631 0.000223409 0)
(-0.00299195 0.00025426 0)
(-0.00402469 0.000286517 0)
(-0.00516685 0.00031982 0)
(-0.00641917 0.000353733 0)
(-0.00778054 0.000387749 0)
(-0.00924786 0.000421295 0)
(-0.0108159 0.000453743 0)
(-0.012477 0.000484418 0)
(-0.0142212 0.000512612 0)
(-0.0160364 0.000537593 0)
(-0.0179077 0.000558624 0)
(-0.0198185 0.000574968 0)
(-0.0217496 0.000585909 0)
(-0.0236801 0.000590752 0)
(-0.0255873 0.000588843 0)
(-0.0274472 0.00057957 0)
(-0.0292343 0.000562378 0)
(-0.0309225 0.000536777 0)
(-0.0324848 0.000502361 0)
(-0.0338944 0.000458818 0)
(-0.0351243 0.000405954 0)
(-0.0361484 0.000343718 0)
(-0.0369413 0.000272224 0)
(-0.0374795 0.000191785 0)
(-0.0377413 0.000102939 0)
(-0.0377081 6.47829e-06 0)
(-0.0373641 -9.65248e-05 0)
(-0.0366976 -0.000204701 0)
(-0.0357017 -0.000316373 0)
(-0.0343744 -0.000429564 0)
(-0.0327196 -0.000542014 0)
(-0.0307474 -0.000651221 0)
(-0.0284746 -0.000754502 0)
(-0.0259247 -0.000849072 0)
(-0.0231284 -0.000932152 0)
(-0.0201227 -0.00100108 0)
(-0.016951 -0.00105345 0)
(-0.0136617 -0.00108725 0)
(-0.0103077 -0.00110098 0)
(-0.00694489 -0.00109377 0)
(-0.00363026 -0.00106551 0)
(-0.000420469 -0.00101682 0)
(0.00263015 -0.000949159 0)
(0.00547139 -0.000864692 0)
(0.00805896 -0.000766253 0)
(0.010356 -0.000657189 0)
(0.0123342 -0.00054118 0)
(0.0139749 -0.000422048 0)
(0.0152692 -0.000303547 0)
(0.0162181 -0.000189169 0)
(0.0168316 -8.19813e-05 0)
(0.0171285 1.55073e-05 0)
(0.0171343 0.000101422 0)
(0.0168802 0.00017455 0)
(0.0164015 0.00023433 0)
(0.0157355 0.000280789 0)
(0.0149203 0.000314463 0)
(0.0139931 0.000336292 0)
(0.0129892 0.000347519 0)
(0.0119406 0.000349566 0)
(0.0108758 0.000343962 0)
(0.00981881 0.000332228 0)
(0.00878951 0.000315839 0)
(0.00780349 0.000296134 0)
(0.00687205 0.000274335 0)
(0.00600309 0.000251451 0)
(0.00520087 0.00022838 0)
(0.00446739 0.000205776 0)
(0.00380161 0.000184257 0)
(0.00320165 0.000164153 0)
(0.00266291 0.000145887 0)
(0.00218163 0.000129451 0)
(0.00175125 0.000115097 0)
(0.00136847 0.000102281 0)
(0.00102691 9.10093e-05 0)
(0.00072704 7.97608e-05 0)
(0.00046573 6.82841e-05 0)
(0.000251111 5.35739e-05 0)
(8.62452e-05 3.60951e-05 0)
(-1.43074e-05 1.23089e-05 0)
(-4.68891e-05 -9.57164e-06 0)
(-2.25241e-05 -2.20634e-05 0)
(1.03081e-05 1.28016e-06 0)
(0.000154378 -0.000157648 0)
(0.000491386 -0.000318892 0)
(0.000981192 -0.000461118 0)
(0.00160809 -0.000554494 0)
(0.00230809 -0.000607201 0)
(0.00304787 -0.000616382 0)
(0.00377395 -0.000592718 0)
(0.00445886 -0.000541223 0)
(0.0050698 -0.00047236 0)
(0.00559401 -0.000393217 0)
(0.00601984 -0.000312269 0)
(0.00634938 -0.000235161 0)
(0.00658672 -0.000166866 0)
(0.00674335 -0.000109825 0)
(0.00683072 -6.51345e-05 0)
(0.00686213 -3.19215e-05 0)
(0.00684814 -8.17963e-06 0)
(0.00679718 9.23506e-06 0)
(0.0067132 2.39243e-05 0)
(0.00659616 3.97036e-05 0)
(0.00644139 6.0094e-05 0)
(0.00624048 8.81168e-05 0)
(0.00598162 0.000126065 0)
(0.00565068 0.000175517 0)
(0.00523184 0.000237407 0)
(0.00470835 0.000312219 0)
(0.00406293 0.000400174 0)
(0.00327812 0.00050141 0)
(0.00233636 0.000616065 0)
(0.00122013 0.000744303 0)
(-8.79119e-05 0.000886251 0)
(-0.00160471 0.00104191 0)
(-0.00334647 0.00121103 0)
(-0.00532814 0.00139304 0)
(-0.00756292 0.00158694 0)
(-0.0100615 0.00179127 0)
(-0.0128317 0.00200406 0)
(-0.0158773 0.00222283 0)
(-0.0191978 0.0024446 0)
(-0.022788 0.00266594 0)
(-0.0266371 0.00288298 0)
(-0.0307285 0.00309151 0)
(-0.03504 0.00328705 0)
(-0.0395434 0.00346498 0)
(-0.0442046 0.00362062 0)
(-0.0489844 0.00374936 0)
(-0.0538385 0.00384677 0)
(-0.0587185 0.0039087 0)
(-0.0635723 0.00393137 0)
(-0.0683452 0.00391145 0)
(-0.0729807 0.00384612 0)
(-0.0774214 0.00373312 0)
(-0.0816095 0.0035708 0)
(-0.0854884 0.00335813 0)
(-0.0890027 0.00309475 0)
(-0.0920994 0.00278097 0)
(-0.0947285 0.00241781 0)
(-0.0968437 0.00200702 0)
(-0.0984031 0.00155114 0)
(-0.0993693 0.00105349 0)
(-0.0997109 0.000518283 0)
(-0.0994021 -4.9409e-05 0)
(-0.0984242 -0.000643556 0)
(-0.0967655 -0.00125717 0)
(-0.0944221 -0.0018823 0)
(-0.0913985 -0.00251004 0)
(-0.0877081 -0.00313062 0)
(-0.0833737 -0.00373348 0)
(-0.0784276 -0.00430746 0)
(-0.0729119 -0.004841 0)
(-0.0668788 -0.00532248 0)
(-0.0603901 -0.00574049 0)
(-0.0535167 -0.00608429 0)
(-0.0463384 -0.00634422 0)
(-0.0389423 -0.00651215 0)
(-0.0314218 -0.00658194 0)
(-0.0238746 -0.00654983 0)
(-0.0164013 -0.0064148 0)
(-0.00910244 -0.0061788 0)
(-0.00207678 -0.00584686 0)
(0.00458163 -0.00542705 0)
(0.0107859 -0.00493026 0)
(0.0164585 -0.00436987 0)
(0.021534 -0.00376124 0)
(0.0259604 -0.00312103 0)
(0.0297009 -0.00246656 0)
(0.0327347 -0.00181502 0)
(0.0350578 -0.00118273 0)
(0.0366822 -0.000584525 0)
(0.0376355 -3.31182e-05 0)
(0.0379593 0.000461291 0)
(0.0377072 0.000891307 0)
(0.0369428 0.00125244 0)
(0.0357365 0.00154305 0)
(0.0341629 0.00176415 0)
(0.0322978 0.00191907 0)
(0.0302157 0.002013 0)
(0.0279872 0.0020526 0)
(0.0256769 0.00204539 0)
(0.0233421 0.0019994 0)
(0.0210317 0.00192262 0)
(0.0187856 0.00182278 0)
(0.0166355 0.00170692 0)
(0.0146037 0.00158145 0)
(0.012706 0.0014517 0)
(0.01095 0.00132241 0)
(0.00933933 0.00119699 0)
(0.00787065 0.00107848 0)
(0.00654014 0.000968149 0)
(0.00533817 0.000867211 0)
(0.00425953 0.000773974 0)
(0.00329377 0.000687429 0)
(0.00244193 0.000601565 0)
(0.00169891 0.000513622 0)
(0.00107911 0.00041284 0)
(0.000585273 0.000300342 0)
(0.000241988 0.000166684 0)
(4.51025e-05 4.24896e-05 0)
(-9.76975e-06 -4.68512e-05 0)
(3.92773e-05 -0.000104202 0)
(0.000305946 -0.000491693 0)
(0.000848804 -0.000865961 0)
(0.00158544 -0.00118681 0)
(0.00249863 -0.00140442 0)
(0.00350061 -0.00152504 0)
(0.00454863 -0.00154587 0)
(0.00557146 -0.00148582 0)
(0.00653145 -0.0013588 0)
(0.0073842 -0.0011869 0)
(0.00811053 -0.00098813 0)
(0.0086934 -0.00078154 0)
(0.00913302 -0.000581362 0)
(0.00943286 -0.00039915 0)
(0.00960565 -0.000241321 0)
(0.00966448 -0.000110482 0)
(0.00962449 -4.87552e-06 0)
(0.00949734 8.03612e-05 0)
(0.00929151 0.000152728 0)
(0.00900933 0.000221073 0)
(0.00864753 0.000294753 0)
(0.00819635 0.000382556 0)
(0.00764075 0.000492075 0)
(0.00696089 0.000629212 0)
(0.00613361 0.000798124 0)
(0.00513333 0.00100138 0)
(0.00393318 0.00124037 0)
(0.00250564 0.00151568 0)
(0.000823197 0.00182749 0)
(-0.00114127 0.00217574 0)
(-0.00341406 0.00256012 0)
(-0.00602011 0.00297994 0)
(-0.00898233 0.00343386 0)
(-0.0123208 0.0039197 0)
(-0.0160519 0.00443416 0)
(-0.0201871 0.00497266 0)
(-0.0247318 0.00552931 0)
(-0.029685 0.00609682 0)
(-0.0350373 0.00666666 0)
(-0.0407713 0.00722907 0)
(-0.0468606 0.00777336 0)
(-0.0532696 0.00828808 0)
(-0.0599539 0.00876139 0)
(-0.0668609 0.00918133 0)
(-0.0739302 0.0095362 0)
(-0.0810954 0.0098149 0)
(-0.0882846 0.0100072 0)
(-0.0954226 0.0101043 0)
(-0.102432 0.0100983 0)
(-0.109235 0.00998349 0)
(-0.115755 0.00975535 0)
(-0.121917 0.00941126 0)
(-0.127649 0.00895023 0)
(-0.132885 0.00837287 0)
(-0.137562 0.00768135 0)
(-0.141624 0.00687927 0)
(-0.145019 0.00597159 0)
(-0.147704 0.00496457 0)
(-0.14964 0.0038657 0)
(-0.150796 0.00268372 0)
(-0.151146 0.00142858 0)
(-0.150671 0.000111488 0)
(-0.149361 -0.00125504 0)
(-0.14721 -0.00265716 0)
(-0.144221 -0.00407968 0)
(-0.140403 -0.00550601 0)
(-0.135775 -0.00691825 0)
(-0.130361 -0.00829723 0)
(-0.124196 -0.00962273 0)
(-0.117322 -0.0108737 0)
(-0.109789 -0.0120286 0)
(-0.101658 -0.0130658 0)
(-0.0929974 -0.0139644 0)
(-0.0838851 -0.0147044 0)
(-0.0744067 -0.0152678 0)
(-0.0646554 -0.0156392 0)
(-0.0547314 -0.0158067 0)
(-0.0447396 -0.0157622 0)
(-0.0347893 -0.0155027 0)
(-0.0249912 -0.0150302 0)
(-0.0154561 -0.0143523 0)
(-0.00629231 -0.0134822 0)
(0.00239685 -0.0124386 0)
(0.0105151 -0.011245 0)
(0.017976 -0.00992945 0)
(0.0247044 -0.0085232 0)
(0.0306395 -0.00705985 0)
(0.0357354 -0.00557406 0)
(0.0399629 -0.00410028 0)
(0.0433104 -0.00267148 0)
(0.045784 -0.00131794 0)
(0.0474072 -6.61845e-05 0)
(0.0482204 0.00106191 0)
(0.0482793 0.00204979 0)
(0.0476526 0.00288662 0)
(0.0464202 0.00356736 0)
(0.0446695 0.00409264 0)
(0.0424925 0.00446822 0)
(0.0399823 0.00470431 0)
(0.03723 0.00481461 0)
(0.0343213 0.00481535 0)
(0.0313346 0.00472416 0)
(0.0283382 0.00455918 0)
(0.0253906 0.00433801 0)
(0.022538 0.00407735 0)
(0.0198169 0.00379201 0)
(0.0172516 0.00349524 0)
(0.0148591 0.0031976 0)
(0.0126457 0.00290796 0)
(0.0106145 0.00263157 0)
(0.00875997 0.0023721 0)
(0.00708014 0.00212775 0)
(0.00556489 0.00189591 0)
(0.00421794 0.00166561 0)
(0.00303261 0.00142936 0)
(0.00202836 0.00116824 0)
(0.00120386 0.000881902 0)
(0.000595317 0.00055782 0)
(0.000189911 0.000246452 0)
(1.64318e-05 -8.37161e-06 0)
(6.4521e-05 -0.000281789 0)
(0.000440655 -0.000971403 0)
(0.00116043 -0.00160012 0)
(0.00209565 -0.00211937 0)
(0.00322664 -0.00247054 0)
(0.00444465 -0.00265816 0)
(0.00570277 -0.0026816 0)
(0.00691725 -0.00256806 0)
(0.00804556 -0.00234175 0)
(0.00903565 -0.00203745 0)
(0.00986479 -0.0016855 0)
(0.0105119 -0.00131672 0)
(0.0109754 -0.000955011 0)
(0.0112568 -0.000619259 0)
(0.011368 -0.000320271 0)
(0.0113207 -6.21804e-05 0)
(0.0111286 0.000158038 0)
(0.010801 0.000348834 0)
(0.010343 0.000523073 0)
(0.00975236 0.000696023 0)
(0.00901998 0.000883788 0)
(0.0081291 0.00110157 0)
(0.0070567 0.00136248 0)
(0.00577423 0.0016768 0)
(0.00424935 0.00205174 0)
(0.00244717 0.00249175 0)
(0.000331654 0.00299908 0)
(-0.0021334 0.00357439 0)
(-0.00498333 0.00421724 0)
(-0.00825179 0.00492632 0)
(-0.0119697 0.00569935 0)
(-0.0161644 0.00653281 0)
(-0.020858 0.00742152 0)
(-0.0260661 0.00835827 0)
(-0.0317966 0.0093335 0)
(-0.0380479 0.0103352 0)
(-0.0448081 0.0113488 0)
(-0.0520535 0.0123575 0)
(-0.0597486 0.0133426 0)
(-0.0678457 0.0142839 0)
(-0.0762854 0.0151602 0)
(-0.084998 0.0159504 0)
(-0.0939045 0.0166336 0)
(-0.102919 0.0171903 0)
(-0.11195 0.0176029 0)
(-0.120904 0.0178563 0)
(-0.129688 0.017938 0)
(-0.13821 0.0178389 0)
(-0.146381 0.0175529 0)
(-0.15412 0.0170773 0)
(-0.161351 0.0164122 0)
(-0.168005 0.0155603 0)
(-0.174021 0.0145271 0)
(-0.179346 0.0133197 0)
(-0.183935 0.0119473 0)
(-0.187748 0.0104205 0)
(-0.190755 0.00875093 0)
(-0.19293 0.00695159 0)
(-0.194255 0.00503637 0)
(-0.194714 0.00302017 0)
(-0.194299 0.000918922 0)
(-0.193006 -0.00125033 0)
(-0.190835 -0.0034693 0)
(-0.187792 -0.00571837 0)
(-0.183887 -0.00797643 0)
(-0.179135 -0.0102208 0)
(-0.173556 -0.0124272 0)
(-0.167176 -0.0145699 0)
(-0.160028 -0.0166215 0)
(-0.15215 -0.0185536 0)
(-0.14359 -0.020337 0)
(-0.1344 -0.0219422 0)
(-0.124644 -0.0233402 0)
(-0.114391 -0.024503 0)
(-0.10372 -0.0254051 0)
(-0.0927176 -0.026024 0)
(-0.0814775 -0.0263413 0)
(-0.0701 -0.0263442 0)
(-0.0586905 -0.0260258 0)
(-0.0473583 -0.0253861 0)
(-0.0362143 -0.024433 0)
(-0.0253695 -0.0231816 0)
(-0.0149321 -0.0216549 0)
(-0.00500605 -0.0198832 0)
(0.00431175 -0.0179031 0)
(0.0129333 -0.0157567 0)
(0.0207814 -0.0134902 0)
(0.0277917 -0.0111524 0)
(0.0339134 -0.0087933 0)
(0.0391113 -0.00646236 0)
(0.0433664 -0.00420689 0)
(0.046676 -0.00207063 0)
(0.049055 -9.2271e-05 0)
(0.0505348 0.00169571 0)
(0.0511631 0.0032681 0)
(0.0510027 0.00460761 0)
(0.0501295 0.00570531 0)
(0.0486304 0.00656057 0)
(0.0465998 0.00718066 0)
(0.0441365 0.00757985 0)
(0.0413398 0.00777826 0)
(0.0383067 0.00780028 0)
(0.0351274 0.00767318 0)
(0.0318838 0.00742528 0)
(0.0286465 0.00708482 0)
(0.0254752 0.00667833 0)
(0.0224157 0.00623028 0)
(0.0195042 0.00576141 0)
(0.0167628 0.00528938 0)
(0.0142085 0.00482625 0)
(0.0118455 0.00438053 0)
(0.0096806 0.00395246 0)
(0.00770812 0.00353936 0)
(0.0059377 0.00312694 0)
(0.00436201 0.00270347 0)
(0.00300676 0.00224319 0)
(0.00186526 0.0017422 0)
(0.000988523 0.00118381 0)
(0.000357123 0.00062475 0)
(4.75978e-05 0.000114145 0)
(8.03822e-05 -0.000524062 0)
(0.000538709 -0.0015914 0)
(0.00139871 -0.00251971 0)
(0.0024898 -0.00325903 0)
(0.00378625 -0.00375057 0)
(0.00515792 -0.00399869 0)
(0.00655391 -0.00400842 0)
(0.00787986 -0.00381638 0)
(0.00909069 -0.00345938 0)
(0.0101292 -0.00298619 0)
(0.0109714 -0.00244118 0)
(0.0115938 -0.00186789 0)
(0.0119936 -0.00130073 0)
(0.0121706 -0.000766223 0)
(0.0121347 -0.000279515 0)
(0.0118947 0.000154244 0)
(0.0114607 0.000540162 0)
(0.0108367 0.000891403 0)
(0.010022 0.00122747 0)
(0.00900692 0.00157136 0)
(0.0077741 0.00194714 0)
(0.00629782 0.0023774 0)
(0.00454572 0.00288149 0)
(0.0024799 0.00347438 0)
(5.90223e-05 0.00416638 0)
(-0.00276012 0.00496345 0)
(-0.0060208 0.00586801 0)
(-0.00976496 0.00687965 0)
(-0.0140317 0.00799571 0)
(-0.0188557 0.00921142 0)
(-0.0242658 0.0105197 0)
(-0.030283 0.0119107 0)
(-0.0369185 0.0133712 0)
(-0.0441721 0.0148844 0)
(-0.0520304 0.0164296 0)
(-0.0604655 0.0179822 0)
(-0.0694344 0.0195143 0)
(-0.0788791 0.0209956 0)
(-0.0887274 0.0223939 0)
(-0.0988943 0.0236764 0)
(-0.109285 0.0248111 0)
(-0.119795 0.0257682 0)
(-0.13032 0.0265206 0)
(-0.14075 0.0270455 0)
(-0.150981 0.0273247 0)
(-0.160912 0.0273451 0)
(-0.17045 0.027099 0)
(-0.17951 0.0265834 0)
(-0.188018 0.0258 0)
(-0.195909 0.0247546 0)
(-0.20313 0.023456 0)
(-0.209634 0.0219161 0)
(-0.215385 0.0201485 0)
(-0.220355 0.0181684 0)
(-0.22452 0.0159919 0)
(-0.227864 0.013636 0)
(-0.230374 0.011118 0)
(-0.232041 0.00845579 0)
(-0.232858 0.00566755 0)
(-0.232824 0.00277204 0)
(-0.231936 -0.00021126 0)
(-0.230194 -0.00326194 0)
(-0.227602 -0.00635834 0)
(-0.224165 -0.00947733 0)
(-0.219889 -0.012594 0)
(-0.214785 -0.0156815 0)
(-0.208865 -0.0187108 0)
(-0.20215 -0.0216507 0)
(-0.194659 -0.0244679 0)
(-0.186424 -0.0271273 0)
(-0.177477 -0.0295923 0)
(-0.167863 -0.0318254 0)
(-0.157632 -0.0337891 0)
(-0.146843 -0.035447 0)
(-0.135564 -0.0367646 0)
(-0.123874 -0.0377111 0)
(-0.111858 -0.0382605 0)
(-0.0996109 -0.038393 0)
(-0.0872339 -0.0380964 0)
(-0.0748344 -0.0373672 0)
(-0.0625231 -0.0362112 0)
(-0.0504127 -0.0346443 0)
(-0.038615 -0.0326923 0)
(-0.0272391 -0.0303904 0)
(-0.0163887 -0.0277824 0)
(-0.0061602 -0.0249197 0)
(0.00335939 -0.0218595 0)
(0.0120937 -0.0186632 0)
(0.0199786 -0.0153944 0)
(0.0269628 -0.0121174 0)
(0.0330088 -0.00889499 0)
(0.0380937 -0.00578699 0)
(0.0422093 -0.00284854 0)
(0.0453628 -0.000128623 0)
(0.0475771 0.00233139 0)
(0.0488906 0.00449892 0)
(0.0493567 0.0063512 0)
(0.0490432 0.00787587 0)
(0.0480302 0.00907127 0)
(0.0464079 0.00994603 0)
(0.0442735 0.0105183 0)
(0.0417277 0.0108142 0)
(0.0388704 0.0108663 0)
(0.0357985 0.0107111 0)
(0.0326005 0.0103874 0)
(0.0293564 0.0099337 0)
(0.026133 0.00938698 0)
(0.0229872 0.00878032 0)
(0.0199599 0.00814269 0)
(0.017086 0.00749583 0)
(0.0143834 0.00685568 0)
(0.0118721 0.00622729 0)
(0.00955446 0.00560985 0)
(0.00744934 0.004988 0)
(0.00555136 0.00434629 0)
(0.00389523 0.00365352 0)
(0.00247142 0.00289914 0)
(0.00134967 0.00206063 0)
(0.0005081 0.00118748 0)
(7.42024e-05 0.000322229 0)
(9.23845e-05 -0.000805498 0)
(0.000615101 -0.00230477 0)
(0.00158369 -0.00355984 0)
(0.00279188 -0.00452421 0)
(0.00420526 -0.00514636 0)
(0.00567357 -0.00543479 0)
(0.00714146 -0.00540433 0)
(0.00850553 -0.00510314 0)
(0.00971959 -0.00458264 0)
(0.0107233 -0.00390643 0)
(0.0114931 -0.00313347 0)
(0.0120042 -0.0023199 0)
(0.0122538 -0.00151021 0)
(0.0122396 -0.000737643 0)
(0.011969 -2.06211e-05 0)
(0.0114463 0.000635957 0)
(0.0106758 0.00124059 0)
(0.00965411 0.00181244 0)
(0.00837172 0.00237876 0)
(0.00680921 0.00297115 0)
(0.00493888 0.00362212 0)
(0.0027245 0.00436177 0)
(0.000123685 0.00521537 0)
(-0.00291056 0.00620185 0)
(-0.00642722 0.0073335 0)
(-0.0104753 0.00861636 0)
(-0.0151016 0.0100511 0)
(-0.0203485 0.0116337 0)
(-0.0262522 0.0133564 0)
(-0.0328402 0.015207 0)
(-0.0401289 0.0171692 0)
(-0.0481216 0.0192216 0)
(-0.0568058 0.0213377 0)
(-0.0661521 0.0234854 0)
(-0.0761129 0.0256276 0)
(-0.0866223 0.0277232 0)
(-0.0975975 0.029728 0)
(-0.108941 0.0315968 0)
(-0.120542 0.0332848 0)
(-0.132285 0.0347501 0)
(-0.144048 0.0359547 0)
(-0.155711 0.0368669 0)
(-0.167158 0.0374615 0)
(-0.178284 0.037721 0)
(-0.188992 0.0376353 0)
(-0.199197 0.0372013 0)
(-0.20883 0.0364225 0)
(-0.217831 0.0353076 0)
(-0.226153 0.0338696 0)
(-0.233762 0.032125 0)
(-0.24063 0.0300922 0)
(-0.246737 0.0277913 0)
(-0.252071 0.0252428 0)
(-0.256622 0.0224674 0)
(-0.260385 0.0194858 0)
(-0.263355 0.0163182 0)
(-0.26553 0.0129842 0)
(-0.266909 0.00950343 0)
(-0.267489 0.0058952 0)
(-0.26727 0.00217913 0)
(-0.266249 -0.00162461 0)
(-0.264424 -0.00549487 0)
(-0.261793 -0.00940908 0)
(-0.258355 -0.0133428 0)
(-0.25411 -0.0172695 0)
(-0.249059 -0.0211599 0)
(-0.243205 -0.0249818 0)
(-0.236556 -0.0287001 0)
(-0.229122 -0.0322768 0)
(-0.220919 -0.0356709 0)
(-0.211969 -0.038839 0)
(-0.202302 -0.041736 0)
(-0.191956 -0.0443158 0)
(-0.180977 -0.0465328 0)
(-0.169424 -0.0483431 0)
(-0.157363 -0.0497062 0)
(-0.144872 -0.0505865 0)
(-0.132041 -0.0509558 0)
(-0.118966 -0.0507944 0)
(-0.105753 -0.0500926 0)
(-0.0925145 -0.0488526 0)
(-0.0793663 -0.0470886 0)
(-0.0664256 -0.044827 0)
(-0.0538082 -0.0421066 0)
(-0.0416255 -0.0389767 0)
(-0.0299825 -0.0354966 0)
(-0.0189749 -0.031733 0)
(-0.00868823 -0.0277581 0)
(0.000804115 -0.0236475 0)
(0.00944098 -0.0194778 0)
(0.0171739 -0.015325 0)
(0.0239674 -0.0112622 0)
(0.0297984 -0.00735841 0)
(0.034657 -0.00367668 0)
(0.0385463 -0.000273027 0)
(0.0414832 0.00280511 0)
(0.043498 0.00552014 0)
(0.0446357 0.00784547 0)
(0.0449548 0.00976642 0)
(0.044527 0.0112807 0)
(0.0434353 0.0123982 0)
(0.0417717 0.0131404 0)
(0.0396334 0.0135388 0)
(0.0371204 0.0136327 0)
(0.0343297 0.013467 0)
(0.0313545 0.0130892 0)
(0.0282775 0.0125475 0)
(0.025174 0.0118868 0)
(0.0221033 0.0111484 0)
(0.0191188 0.0103652 0)
(0.0162545 0.00956285 0)
(0.0135465 0.00875382 0)
(0.0110079 0.00794155 0)
(0.00866988 0.00711242 0)
(0.00653211 0.00624845 0)
(0.00464064 0.00531444 0)
(0.00298642 0.0042903 0)
(0.00165903 0.00314457 0)
(0.000637885 0.00190672 0)
(9.68542e-05 0.000601799 0)
(0.000100519 -0.0011229 0)
(0.000670964 -0.00310151 0)
(0.00172012 -0.00470699 0)
(0.00301097 -0.00589953 0)
(0.00449865 -0.00663918 0)
(0.00601378 -0.00694262 0)
(0.00749556 -0.00683871 0)
(0.0088325 -0.00639015 0)
(0.00997793 -0.0056656 0)
(0.01087 -0.00474497 0)
(0.0114864 -0.00370264 0)
(0.0118028 -0.00260718 0)
(0.0118165 -0.00151246 0)
(0.0115234 -0.000457136 0)
(0.0109275 0.000538693 0)
(0.0100275 0.00147221 0)
(0.00882007 0.0023571 0)
(0.00729232 0.00322013 0)
(0.00542375 0.00409756 0)
(0.00318324 0.00503031 0)
(0.000531355 0.00605948 0)
(-0.00257912 0.00722211 0)
(-0.00620002 0.00854819 0)
(-0.0103856 0.0100589 0)
(-0.0151892 0.0117662 0)
(-0.0206611 0.0136734 0)
(-0.026845 0.015776 0)
(-0.0337759 0.0180626 0)
(-0.0414771 0.0205151 0)
(-0.0499575 0.0231087 0)
(-0.0592087 0.025812 0)
(-0.0692028 0.028586 0)
(-0.0798911 0.0313851 0)
(-0.0912035 0.0341575 0)
(-0.10305 0.0368468 0)
(-0.115323 0.0393942 0)
(-0.127901 0.0417409 0)
(-0.140653 0.0438309 0)
(-0.153447 0.0456137 0)
(-0.166151 0.0470463 0)
(-0.178639 0.0480947 0)
(-0.190801 0.0487351 0)
(-0.202535 0.0489536 0)
(-0.213758 0.0487459 0)
(-0.224403 0.0481163 0)
(-0.234416 0.0470759 0)
(-0.243757 0.0456415 0)
(-0.252399 0.0438338 0)
(-0.260324 0.0416761 0)
(-0.26752 0.0391931 0)
(-0.273981 0.0364097 0)
(-0.279706 0.0333506 0)
(-0.284695 0.0300397 0)
(-0.288948 0.0264997 0)
(-0.292469 0.0227522 0)
(-0.295256 0.0188176 0)
(-0.297311 0.0147152 0)
(-0.298632 0.0104639 0)
(-0.299216 0.00608234 0)
(-0.299059 0.00158912 0)
(-0.298156 -0.00299629 0)
(-0.2965 -0.00765327 0)
(-0.294083 -0.0123594 0)
(-0.290899 -0.0170901 0)
(-0.286938 -0.0218178 0)
(-0.282193 -0.0265117 0)
(-0.276659 -0.0311374 0)
(-0.27033 -0.0356564 0)
(-0.263207 -0.0400265 0)
(-0.255291 -0.0442011 0)
(-0.246591 -0.0481304 0)
(-0.237123 -0.0517613 0)
(-0.226909 -0.0550388 0)
(-0.215982 -0.0579072 0)
(-0.204386 -0.0603118 0)
(-0.192175 -0.0622006 0)
(-0.179417 -0.0635266 0)
(-0.166192 -0.0642503 0)
(-0.152593 -0.0643416 0)
(-0.138723 -0.0637824 0)
(-0.124697 -0.0625682 0)
(-0.110634 -0.060709 0)
(-0.0966603 -0.0582306 0)
(-0.0829024 -0.0551734 0)
(-0.0694838 -0.0515924 0)
(-0.0565223 -0.0475546 0)
(-0.0441268 -0.043137 0)
(-0.0323944 -0.0384237 0)
(-0.0214091 -0.0335031 0)
(-0.0112411 -0.028465 0)
(-0.00194628 -0.0233984 0)
(0.00643257 -0.018389 0)
(0.0138654 -0.013518 0)
(0.0203338 -0.00886051 0)
(0.0258303 -0.00448451 0)
(0.0303587 -0.000449774 0)
(0.0339335 0.00319327 0)
(0.036581 0.00640476 0)
(0.0383399 0.00915664 0)
(0.0392617 0.0114337 0)
(0.0394101 0.0132345 0)
(0.0388611 0.0145708 0)
(0.0376997 0.015468 0)
(0.0360188 0.0159623 0)
(0.0339139 0.0160998 0)
(0.031482 0.0159324 0)
(0.0288142 0.0155157 0)
(0.0259982 0.0149049 0)
(0.0231077 0.014152 0)
(0.0202125 0.013302 0)
(0.0173623 0.0123906 0)
(0.0146094 0.01144 0)
(0.0119798 0.0104594 0)
(0.00951871 0.0094394 0)
(0.00723389 0.00836051 0)
(0.00518463 0.00718474 0)
(0.00336625 0.00588031 0)
(0.00188771 0.00440458 0)
(0.000732708 0.00275832 0)
(0.000112711 0.000941207 0)
(0.000107643 -0.00146249 0)
(0.000715537 -0.00395153 0)
(0.00182249 -0.00591778 0)
(0.00316451 -0.00732954 0)
(0.004685 -0.00816218 0)
(0.00619726 -0.00844521 0)
(0.00763479 -0.00822606 0)
(0.00887962 -0.00758554 0)
(0.00988541 -0.00661225 0)
(0.0105902 -0.00540372 0)
(0.0109744 -0.00405007 0)
(0.0110143 -0.00263153 0)
(0.0107077 -0.00120983 0)
(0.0100484 0.000173098 0)
(0.00903594 0.00149782 0)
(0.00766185 0.00276602 0)
(0.00591323 0.00399868 0)
(0.00376575 0.00523185 0)
(0.00118628 0.00651166 0)
(-0.00186915 0.00788841 0)
(-0.00545183 0.00941086 0)
(-0.0096189 0.0111212 0)
(-0.0144291 0.0130514 0)
(-0.0199399 0.0152217 0)
(-0.0262033 0.0176398 0)
(-0.0332632 0.0203016 0)
(-0.0411512 0.0231924 0)
(-0.0498841 0.0262874 0)
(-0.0594603 0.0295522 0)
(-0.0698571 0.0329429 0)
(-0.0810287 0.0364066 0)
(-0.092905 0.0398819 0)
(-0.105393 0.0433006 0)
(-0.118378 0.0465903 0)
(-0.13173 0.0496773 0)
(-0.145307 0.0524902 0)
(-0.158964 0.0549634 0)
(-0.172557 0.0570406 0)
(-0.185951 0.0586763 0)
(-0.199027 0.059838 0)
(-0.211678 0.060506 0)
(-0.223819 0.0606729 0)
(-0.235382 0.0603421 0)
(-0.246318 0.0595263 0)
(-0.25659 0.0582449 0)
(-0.266176 0.0565226 0)
(-0.275064 0.0543872 0)
(-0.283249 0.0518678 0)
(-0.290731 0.0489941 0)
(-0.297514 0.045795 0)
(-0.303605 0.0422981 0)
(-0.309007 0.0385294 0)
(-0.313729 0.034513 0)
(-0.317773 0.030271 0)
(-0.321145 0.0258241 0)
(-0.323845 0.0211911 0)
(-0.325876 0.01639 0)
(-0.327234 0.0114378 0)
(-0.327917 0.00635143 0)
(-0.327919 0.00114786 0)
(-0.327234 -0.00415505 0)
(-0.325852 -0.0095381 0)
(-0.323762 -0.0149801 0)
(-0.320954 -0.0204572 0)
(-0.317413 -0.0259423 0)
(-0.313125 -0.0314045 0)
(-0.308076 -0.0368086 0)
(-0.302251 -0.0421145 0)
(-0.295638 -0.047277 0)
(-0.288226 -0.0522459 0)
(-0.28001 -0.0569659 0)
(-0.270986 -0.0613772 0)
(-0.261162 -0.0654166 0)
(-0.250551 -0.0690183 0)
(-0.239179 -0.0721161 0)
(-0.227081 -0.0746454 0)
(-0.214311 -0.0765456 0)
(-0.200934 -0.0777631 0)
(-0.187031 -0.0782541 0)
(-0.172701 -0.0779877 0)
(-0.158055 -0.0769484 0)
(-0.143217 -0.0751381 0)
(-0.128322 -0.0725773 0)
(-0.113507 -0.0693058 0)
(-0.0989142 -0.0653811 0)
(-0.0846796 -0.0608772 0)
(-0.0709322 -0.0558816 0)
(-0.0577886 -0.0504913 0)
(-0.0453506 -0.0448095 0)
(-0.0337028 -0.0389416 0)
(-0.0229125 -0.0329914 0)
(-0.01303 -0.027059 0)
(-0.00409066 -0.0212382 0)
(0.0038838 -0.0156155 0)
(0.0108828 -0.0102691 0)
(0.0169055 -0.00526862 0)
(0.0219598 -0.000674455 0)
(0.0260624 0.00346309 0)
(0.0292391 0.00710465 0)
(0.0315259 0.0102231 0)
(0.0329694 0.0128047 0)
(0.0336282 0.0148499 0)
(0.0335714 0.0163738 0)
(0.0328788 0.0174053 0)
(0.0316367 0.0179861 0)
(0.0299379 0.0181674 0)
(0.027874 0.0180075 0)
(0.0255378 0.0175678 0)
(0.0230119 0.0169086 0)
(0.0203781 0.0160848 0)
(0.0176992 0.0151425 0)
(0.0150422 0.0141134 0)
(0.0124463 0.013014 0)
(0.00997102 0.0118405 0)
(0.00763453 0.0105729 0)
(0.00550993 0.00917148 0)
(0.00360005 0.00759148 0)
(0.00203082 0.00577752 0)
(0.000792485 0.0036965 0)
(0.000122634 0.00131869 0)
(0.000113519 -0.00182451 0)
(0.000749332 -0.00484726 0)
(0.00189332 -0.00717662 0)
(0.00325621 -0.00879124 0)
(0.00476893 -0.00968522 0)
(0.00622924 -0.00990535 0)
(0.00756527 -0.00952228 0)
(0.00865431 -0.00863869 0)
(0.00945124 -0.00736599 0)
(0.00989552 -0.00582067 0)
(0.00997061 -0.00410879 0)
(0.00965435 -0.0023211 0)
(0.00894461 -0.000525279 0)
(0.0078321 0.00123605 0)
(0.00631079 0.00294693 0)
(0.00436326 0.00461622 0)
(0.00196543 0.00627443 0)
(-0.000919965 0.00796825 0)
(-0.00433944 0.00975407 0)
(-0.00834948 0.0116907 0)
(-0.0130116 0.0138323 0)
(-0.0183895 0.0162231 0)
(-0.0245439 0.0188929 0)
(-0.0315287 0.0218558 0)
(-0.0393861 0.0251097 0)
(-0.0481433 0.028637 0)
(-0.0578085 0.0324061 0)
(-0.0683678 0.036372 0)
(-0.0797823 0.0404772 0)
(-0.0919867 0.044653 0)
(-0.104889 0.048821 0)
(-0.118373 0.0528958 0)
(-0.132303 0.0567885 0)
(-0.146527 0.0604111 0)
(-0.160889 0.0636811 0)
(-0.175233 0.0665255 0)
(-0.189413 0.0688844 0)
(-0.203297 0.070713 0)
(-0.21677 0.0719825 0)
(-0.229742 0.0726794 0)
(-0.24214 0.0728039 0)
(-0.253913 0.0723679 0)
(-0.265028 0.0713925 0)
(-0.275463 0.0699048 0)
(-0.28521 0.0679365 0)
(-0.294267 0.0655211 0)
(-0.30264 0.0626927 0)
(-0.310335 0.0594849 0)
(-0.317363 0.0559295 0)
(-0.323733 0.0520567 0)
(-0.329457 0.0478941 0)
(-0.334544 0.0434671 0)
(-0.339002 0.0387987 0)
(-0.342839 0.0339098 0)
(-0.346062 0.0288193 0)
(-0.348674 0.0235446 0)
(-0.350678 0.0181015 0)
(-0.352075 0.0125054 0)
(-0.352863 0.00677104 0)
(-0.353039 0.000913398 0)
(-0.352597 -0.00505181 0)
(-0.351528 -0.0111075 0)
(-0.34982 -0.0172345 0)
(-0.347461 -0.0234111 0)
(-0.344433 -0.0296118 0)
(-0.340717 -0.0358072 0)
(-0.336292 -0.0419628 0)
(-0.331135 -0.0480388 0)
(-0.325222 -0.053989 0)
(-0.318531 -0.0597614 0)
(-0.311037 -0.0652971 0)
(-0.302723 -0.0705313 0)
(-0.293572 -0.0753936 0)
(-0.283578 -0.0798092 0)
(-0.272742 -0.0837006 0)
(-0.261078 -0.0869897 0)
(-0.248614 -0.0896007 0)
(-0.235394 -0.0914633 0)
(-0.221482 -0.0925162 0)
(-0.206961 -0.0927112 0)
(-0.191933 -0.0920163 0)
(-0.17652 -0.0904192 0)
(-0.16086 -0.0879299 0)
(-0.145103 -0.0845814 0)
(-0.129408 -0.0804301 0)
(-0.113935 -0.075554 0)
(-0.0988397 -0.0700498 0)
(-0.0842681 -0.0640285 0)
(-0.07035 -0.0576106 0)
(-0.0571959 -0.0509207 0)
(-0.0448941 -0.0440825 0)
(-0.0335106 -0.0372148 0)
(-0.0230904 -0.030428 0)
(-0.01366 -0.0238228 0)
(-0.00523077 -0.0174889 0)
(0.00219755 -0.0115049 0)
(0.00863416 -0.00593913 0)
(0.0140954 -0.000849386 0)
(0.0186038 0.00371715 0)
(0.0221887 0.00772451 0)
(0.0248864 0.0111491 0)
(0.0267429 0.0139807 0)
(0.0278129 0.0162239 0)
(0.0281622 0.0178979 0)
(0.0278647 0.0190365 0)
(0.0270037 0.019686 0)
(0.025665 0.0199032 0)
(0.0239403 0.0197508 0)
(0.0219148 0.0192941 0)
(0.0196769 0.018595 0)
(0.0172987 0.0177077 0)
(0.0148587 0.0166731 0)
(0.0124081 0.0155145 0)
(0.0100197 0.0142343 0)
(0.00772335 0.0128128 0)
(0.00560529 0.0112089 0)
(0.00367826 0.00936495 0)
(0.00208165 0.0072126 0)
(0.000813579 0.00468368 0)
(0.000125696 0.00171792 0)
(0.000119029 -0.00220146 0)
(0.000774797 -0.00576837 0)
(0.00193553 -0.00845061 0)
(0.00328816 -0.0102394 0)
(0.00475052 -0.0111519 0)
(0.0061073 -0.0112572 0)
(0.00728219 -0.010654 0)
(0.00815013 -0.0094708 0)
(0.00866848 -0.00784442 0)
(0.00877952 -0.0059112 0)
(0.00847024 -0.00379261 0)
(0.00771993 -0.00158813 0)
(0.00652571 0.000631321 0)
(0.00487407 0.0028256 0)
(0.00275156 0.00498541 0)
(0.000130218 0.00712959 0)
(-0.00302661 0.00930002 0)
(-0.00676974 0.0115547 0)
(-0.0111584 0.0139595 0)
(-0.0162596 0.0165793 0)
(-0.0221408 0.0194699 0)
(-0.0288668 0.0226721 0)
(-0.0364923 0.0262079 0)
(-0.0450582 0.0300782 0)
(-0.0545862 0.034264 0)
(-0.0650753 0.0387269 0)
(-0.0764978 0.0434111 0)
(-0.088798 0.0482446 0)
(-0.101891 0.0531422 0)
(-0.115662 0.0580077 0)
(-0.129975 0.062738 0)
(-0.144673 0.0672283 0)
(-0.159589 0.0713772 0)
(-0.174555 0.0750928 0)
(-0.18941 0.0782968 0)
(-0.204008 0.0809281 0)
(-0.218222 0.0829443 0)
(-0.231951 0.0843221 0)
(-0.245113 0.0850551 0)
(-0.257653 0.0851516 0)
(-0.269532 0.0846318 0)
(-0.280729 0.0835243 0)
(-0.291234 0.0818632 0)
(-0.301047 0.079686 0)
(-0.310174 0.0770312 0)
(-0.318626 0.0739371 0)
(-0.326416 0.0704406 0)
(-0.333556 0.0665767 0)
(-0.340063 0.0623778 0)
(-0.34595 0.057874 0)
(-0.351231 0.0530924 0)
(-0.355921 0.0480574 0)
(-0.360033 0.0427912 0)
(-0.363577 0.0373134 0)
(-0.366566 0.0316414 0)
(-0.369007 0.025791 0)
(-0.370909 0.0197763 0)
(-0.372277 0.0136104 0)