/*--------------------------------*- C++ -*----------------------------------*\
| =========                 |                                                 |
| \\      /  F ield         | OpenFOAM: The Open Source CFD Toolbox           |
|  \\    /   O peration     | Version:  2406                                  |
|   \\  /    A nd           | Website:  www.openfoam.com                      |
|    \\/     M anipulation  |                                                 |
\*---------------------------------------------------------------------------*/
FoamFile
{
    version     2.0;
    format      ascii;
    arch        "LSB;label=32;scalar=64";
    class       surfaceScalarField;
    location    "24.8";
    object      phi;
}
// * * * * * * * * * * * * * * * * * * * * * * * * * * * * * * * * * * * * * //

dimensions      [0 3 -1 0 0 0 0];

oriented        oriented;

internalField   nonuniform List<scalar> 
1740
(
4.93422e-06
-4.93422e-06
1.19741e-05
-7.03992e-06
1.71999e-05
-5.22576e-06
1.93343e-05
-2.13436e-06
1.8734e-05
6.00251e-07
1.5725e-05
3.00904e-06
9.52014e-06
6.20483e-06
-1.74542e-06
1.12656e-05
-2.22222e-05
2.04768e-05
-5.64735e-05
3.42513e-05
-0.000105417
4.89433e-05
-0.000164977
5.95603e-05
-0.000226437
6.14603e-05
-0.000278513
5.20761e-05
-0.000312284
3.37705e-05
-0.00032171
9.42597e-06
-0.000303678
-1.80319e-05
-0.00025705
-4.6628e-05
-0.000184816
-7.22336e-05
-9.42267e-05
-9.05898e-05
1.63628e-06
-9.5863e-05
8.61182e-05
-8.4482e-05
0.000141733
-5.56146e-05
0.000157666
-1.59335e-05
0.000136824
2.08422e-05
9.68978e-05
3.99262e-05
5.69556e-05
3.99423e-05
2.70311e-05
2.99244e-05
8.29488e-06
1.87363e-05
8.29488e-06
7.61606e-06
-1.25503e-05
1.75517e-05
-1.69755e-05
2.21373e-05
-9.81142e-06
1.89839e-05
1.01905e-06
6.93888e-06
1.26453e-05
-1.65294e-05
2.64773e-05
-5.7184e-05
4.68595e-05
-0.000122648
7.67291e-05
-0.000213331
0.00011116
-0.000318549
0.00013947
-0.000421715
0.000152109
-0.000509323
0.000147168
-0.000574356
0.000126493
-0.000615039
9.27596e-05
-0.000630621
4.93526e-05
-0.0006215
3.04997e-07
-0.000585466
-5.40661e-05
-0.000523817
-0.000108277
-0.00043721
-0.000158841
-0.000328502
-0.000199298
-0.000204727
-0.000219637
-7.91207e-05
-0.000210089
3.08514e-05
-0.000165587
0.000106493
-9.15754e-05
0.000137248
-9.91289e-06
0.000128289
4.88861e-05
9.48802e-05
7.33507e-05
5.41001e-05
7.07045e-05
1.87153e-05
5.4121e-05
2.70102e-05
6.83491e-06
-1.93852e-05
1.17967e-05
-2.19374e-05
6.71997e-06
-4.73465e-06
-1.21997e-05
1.99387e-05
-4.9671e-05
5.01166e-05
-0.000113361
9.01677e-05
-0.00020855
0.000142048
-0.000328076
0.000196255
-0.00045314
0.000236225
-0.000566479
0.000252809
-0.000660294
0.000245924
-0.000732135
0.000219009
-0.000782472
0.000176829
-0.000813203
0.000123491
-0.000825862
6.20116e-05
-0.000819256
-6.30024e-06
-0.000795321
-7.80014e-05
-0.000750616
-0.000152982
-0.000682567
-0.00022689
-0.000589279
-0.000292586
-0.000471086
-0.000337831
-0.000333648
-0.000347526
-0.000191044
-0.000308191
-6.54309e-05
-0.000217189
2.06446e-05
-9.59884e-05
5.92709e-05
1.02598e-05
6.24741e-05
7.01475e-05
4.36872e-05
8.94914e-05
1.69208e-05
8.08874e-05
4.3931e-05
2.36254e-06
-2.17477e-05
-4.04429e-06
-1.55305e-05
-2.69484e-05
1.81695e-05
-7.22939e-05
6.52842e-05
-0.000147576
0.000125398
-0.000255791
0.000198383
-0.000386051
0.000272308
-0.000517051
0.000327255
-0.00063227
0.000351444
-0.000724967
0.000345505
-0.000794659
0.000315617
-0.00084409
0.000268439
-0.000876886
0.000209625
-0.000896518
0.000143123
-0.000905583
7.10771e-05
-0.000905101
-6.78185e-06
-0.000895685
-8.74175e-05
-0.000875327
-0.00017334
-0.00083973
-0.000262487
-0.000782702
-0.000349614
-0.000696322
-0.00042421
-0.000574832
-0.000469017
-0.000420746
-0.000462276
-0.000253026
-0.000384908
-0.000107618
-0.000241397
-1.94272e-05
-7.79313e-05
1.4369e-05
3.63513e-05
1.86326e-05
8.52278e-05
8.20536e-06
9.13147e-05
5.21363e-05
-6.50594e-06
-1.52418e-05
-3.0542e-05
8.50549e-06
-7.80124e-05
6.56399e-05
-0.000155256
0.000142528
-0.000264448
0.00023459
-0.000394856
0.000328791
-0.000524911
0.000402363
-0.000636208
0.000438552
-0.000721665
0.000436901
-0.00078175
0.00040559
-0.00082011
0.000353977
-0.000842227
0.000290557
-0.000853568
0.000220965
-0.000858594
0.000148149
-0.000860555
7.30376e-05
-0.000863523
-3.81382e-06
-0.000865631
-8.53093e-05
-0.000867646
-0.000171326
-0.000866996
-0.000263137
-0.000856656
-0.000359954
-0.000824452
-0.000456413
-0.000754436
-0.000539034
-0.000632607
-0.000584105
-0.000457116
-0.000560398
-0.000256642
-0.000441871
-9.40936e-05
-0.000240479
-1.84098e-05
-3.93326e-05
1.28428e-06
6.55337e-05
2.66265e-06
8.99363e-05
5.4799e-05
-1.97673e-05
4.52548e-06
-6.51413e-05
5.38796e-05
-0.000138029
0.000138527
-0.000240473
0.000244973
-0.00036433
0.000358447
-0.000489601
0.000454062
-0.000595781
0.000508543
-0.000673314
0.000516085
-0.000722523
0.00048611
-0.000748298
0.000431365
-0.000757804
0.000363483
-0.000758097
0.00029085
-0.000754541
0.00021741
-0.000750629
0.000144237
-0.000748441
7.08493e-05
-0.000749467
-2.78808e-06
-0.00075443
-8.03455e-05
-0.000764827
-0.000160929
-0.000781343
-0.000246621
-0.000801829
-0.000339468
-0.000818224
-0.000440019
-0.000813994
-0.000543264
-0.000763705
-0.000634394
-0.000641924
-0.000682179
-0.000442761
-0.000641035
-0.000210834
-0.000472406
-4.95698e-05
-0.000200597
-2.42608e-06
1.839e-05
2.32925e-06
8.5181e-05
5.71282e-05
-3.50811e-05
3.96065e-05
-0.00010061
0.000119408
-0.000192306
0.000230223
-0.000305371
0.000358037
-0.000423811
0.000476887
-0.000526548
0.000556799
-0.000600261
0.000582256
-0.000643596
0.000559421
-0.000662253
0.000504767
-0.000664858
0.000433969
-0.000660331
0.000358956
-0.000654716
0.000285235
-0.000651002
0.000213695
-0.000649772
0.000143008
-0.000650553
7.163e-05
-0.000651777
-1.56425e-06
-0.000655145
-7.69774e-05
-0.00066143
-0.000154644
-0.000673353
-0.000234698
-0.000694098
-0.000318723
-0.000724267
-0.00040985
-0.000756529
-0.000511002
-0.00077089
-0.000620033
-0.000733542
-0.000719527
-0.000606858
-0.000767718
-0.000382456
-0.000696808
-0.000129044
-0.000454009
-3.20264e-06
-0.000107451
4.22511e-06
7.77532e-05
6.13533e-05
-4.85243e-05
8.81308e-05
-0.000128061
0.000198945
-0.000227786
0.000329949
-0.000337268
0.000467519
-0.000437821
0.000577441
-0.000512872
0.00063185
-0.000556915
0.000626299
-0.000574873
0.000577379
-0.000576246
0.00050614
-0.000571339
0.000429062
-0.000567661
0.000355278
-0.000568214
0.000285788
-0.000572773
0.000218254
-0.000579345
0.00014958
-0.000585684
7.7969e-05
-0.000590216
2.96755e-06
-0.000592788
-7.44058e-05
-0.000594485
-0.000152947
-0.000597576
-0.000231607
-0.000605938
-0.000310361
-0.000624232
-0.000391555
-0.000654931
-0.000480304
-0.000692248
-0.000582715
-0.000713546
-0.00069823
-0.000676398
-0.000804867
-0.000530856
-0.00084235
-0.000275271
-0.000709594
-4.08274e-05
-0.000341895
7.71081e-06
2.9215e-05
6.90642e-05
-5.64979e-05
0.000144629
-0.000141842
0.000284289
-0.000239539
0.000427646
-0.000336306
0.000564286
-0.000415092
0.000656227
-0.000465333
0.000682091
-0.000488019
0.000648984
-0.00049212
0.00058148
-0.000488724
0.000502744
-0.000487067
0.000427405
-0.000491285
0.000359496
-0.000501111
0.000295614
-0.000514036
0.000231179
-0.000527063
0.000162607
-0.000537822
8.8728e-05
-0.000544895
1.00406e-05
-0.000547739
-7.1561e-05
-0.000546928
-0.000153758
-0.000544225
-0.00023431
-0.000542679
-0.000311907
-0.000547019
-0.000387215
-0.000562973
-0.000464351
-0.000593855
-0.000551833
-0.00063245
-0.000659634
-0.000651088
-0.000786228
-0.00059825
-0.000895188
-0.000421126
-0.000886718
-0.000131532
-0.000631488
1.04486e-05
-0.000112766
7.95128e-05
-5.73942e-05
0.000202023
-0.000140643
0.000367538
-0.00022905
0.000516053
-0.000309176
0.000644412
-0.000367614
0.000714664
-0.00039939
0.000713867
-0.000409824
0.000659418
-0.000409559
0.000581216
-0.000409065
0.000502249
-0.000414702
0.000433042
-0.000427329
0.000372123
-0.000444662
0.000312946
-0.000463435
0.000249952
-0.000480806
0.000179978
-0.00049478
0.000102702
-0.000504017
1.9278e-05
-0.000508019
-6.75589e-05
-0.000506864
-0.000154914
-0.000501517
-0.000239657
-0.000494
-0.000319424
-0.0004878
-0.000393414
-0.0004886
-0.000463551
-0.000503847
-0.000536586
-0.000537366
-0.000626115
-0.00057832
-0.000745274
-0.000585446
-0.000888063
-0.00048961
-0.000982554
-0.000255853
-0.000865246
-1.14561e-05
-0.000357162
6.80567e-05
-5.1506e-05
0.000253529
-0.00012653
0.000442561
-0.000201703
0.000591226
-0.000265027
0.000707737
-0.000307101
0.000756738
-0.000327061
0.000733828
-0.000332269
0.000664627
-0.000333073
0.000582019
-0.000337816
0.000506993
-0.000349857
0.000445083
-0.000368012
0.000390278
-0.000389336
0.000334271
-0.000410811
0.000271427
-0.00043018
0.000199347
-0.000445823
0.000118345
-0.000456697
3.01524e-05
-0.000462114
-6.2142e-05
-0.000462084
-0.000154944
-0.00045724
-0.0002445
-0.000448862
-0.000327802
-0.000438929
-0.000403348
-0.000430763
-0.000471717
-0.000431152
-0.000536197
-0.000448622
-0.000608645
-0.000486794
-0.000707102
-0.000522939
-0.000851917
-0.000502689
-0.0010028
-0.000353883
-0.00101405
-6.56061e-05
-0.000645439
2.45056e-06
-4.02477e-05
0.000293777
-0.000103055
0.000505369
-0.000163356
0.000651527
-0.000211286
0.000755666
-0.00024107
0.000786522
-0.000254237
0.000746994
-0.000258294
0.000668684
-0.000261941
0.000585666
-0.000270992
0.000516044
-0.000286616
0.000460707
-0.000306852
0.000410514
-0.000328987
0.000356405
-0.000350685
0.000293125
-0.00037032
0.000218982
-0.000386618
0.000134643
-0.000398559
4.20934e-05
-0.000405386
-5.53149e-05
-0.000406888
-0.000153442
-0.000403452
-0.000247936
-0.000396138
-0.000335116
-0.000386729
-0.000412757
-0.000377075
-0.00048137
-0.000371268
-0.000542004
-0.000375595
-0.000604318
-0.000400062
-0.000682635
-0.000443004
-0.000808975
-0.000466847
-0.000978962
-0.000379983
-0.00110092
-0.000137071
-0.000888351
-0.00013462
-2.56973e-05
0.000319474
-7.38078e-05
0.000553479
-0.000119058
0.000696777
-0.000153694
0.000790302
-0.000174726
0.000807554
-0.000184482
0.00075675
-0.000189168
0.000673369
-0.000195178
0.000591676
-0.000206097
0.000526963
-0.000222018
0.000476628
-0.000241162
0.000429657
-0.000261522
0.000376765
-0.000281536
0.00031314
-0.000300085
0.000237531
-0.000316141
0.000150699
-0.000328731
5.46838e-05
-0.000337069
-4.69764e-05
-0.000340822
-0.00014969
-0.000340104
-0.000248654
-0.000335362
-0.000339858
-0.000328351
-0.000419768
-0.00032011
-0.000489612
-0.000313301
-0.000548813
-0.000311203
-0.000606416
-0.000324426
-0.000669413
-0.000361318
-0.000772082
-0.000404864
-0.000935416
-0.000375967
-0.00112981
-0.000205506
-0.00105881
-0.000340126
-9.72806e-06
0.000329202
-4.16949e-05
0.000585446
-7.23784e-05
0.000727461
-9.55183e-05
0.000813442
-0.000109897
0.000821933
-0.000117638
0.000764491
-0.000122997
0.000678728
-0.000129859
0.000598538
-0.000140199
0.000537303
-0.000153856
0.000490285
-0.000169677
0.000445478
-0.000186461
0.000393549
-0.000203275
0.000329954
-0.000219376
0.000253631
-0.000233997
0.000165319
-0.00024638
6.70669e-05
-0.000255856
-3.75003e-05
-0.000261998
-0.000143548
-0.000264897
-0.000245755
-0.000264477
-0.000340278
-0.000262021
-0.000422225
-0.000258229
-0.000493403
-0.00025477
-0.000552272
-0.000252412
-0.000608774
-0.000259416
-0.000662408
-0.000284173
-0.000747325
-0.000328688
-0.000890901
-0.000336083
-0.00112242
-0.000223016
-0.00117188
-0.000563142
6.44277e-06
0.000322759
-8.52332e-06
0.000600412
-2.5799e-05
0.000744736
-3.89564e-05
0.0008266
-4.79531e-05
0.00083093
-5.43861e-05
0.000770924
-6.01178e-05
0.00068446
-6.64654e-05
0.000604886
-7.43249e-05
0.000545163
-8.37043e-05
0.000499664
-9.43538e-05
0.000456128
-0.000105908
0.000405103
-0.000118014
0.00034206
-0.000130323
0.00026594
-0.000142414
0.00017741
-0.000153852
7.8505e-05
-0.000164211
-2.71415e-05
-0.000172898
-0.000134861
-0.00017984
-0.000238813
-0.000184827
-0.00033529
-0.000187927
-0.000419125
-0.00019003
-0.0004913
-0.000191884
-0.000550418
-0.000193985
-0.000606673
-0.000200363
-0.000656031
-0.00021735
-0.000730337
-0.000257203
-0.000851049
-0.000282594
-0.00109703
-0.000205188
-0.00124929
-0.00076833
2.17078e-05
0.000301052
2.30691e-05
0.000599051
1.89096e-05
0.000748896
1.52751e-05
0.000830234
1.14505e-05
0.000834754
6.84737e-06
0.000775527
1.88448e-06
0.000689423
-3.03239e-06
0.000609803
-7.39225e-06
0.000549523
-1.15408e-05
0.000503813
-1.61079e-05
0.000460695
-2.15589e-05
0.000410554
-2.81147e-05
0.000348616
-3.58261e-05
0.000273652
-4.46638e-05
0.000186248
-5.44579e-05
8.8299e-05
-6.52538e-05
-1.63456e-05
-7.63252e-05
-0.000123789
-8.76746e-05
-0.000227464
-9.83121e-05
-0.000324653
-0.000108736
-0.000408701
-0.000118032
-0.000482004
-0.000127025
-0.000541425
-0.000135152
-0.000598546
-0.000144021
-0.000647161
-0.000157719
-0.00071664
-0.000191439
-0.000817328
-0.00022416
-0.00106431
-0.000177161
-0.00129629
-0.000945491
3.43974e-05
0.000266654
5.22884e-05
0.00058116
6.09847e-05
0.0007402
6.67286e-05
0.00082449
6.79895e-05
0.000833493
6.49852e-05
0.000778532
6.0473e-05
0.000693935
5.74676e-05
0.000612808
5.70723e-05
0.000549918
5.87003e-05
0.000502185
6.08469e-05
0.000458548
6.21929e-05
0.000409208
6.19084e-05
0.000348901
5.95152e-05
0.000276045
5.45566e-05
0.000191207
4.6901e-05
9.59546e-05
3.63815e-05
-5.82611e-06
2.28758e-05
-0.000110284
8.24318e-06
-0.000212831
-9.50063e-06
-0.000306909
-2.58174e-05
-0.000392384
-4.37435e-05
-0.000464078
-6.07694e-05
-0.0005244
-7.61589e-05
-0.000583157
-9.15256e-05
-0.000631794
-0.000107117
-0.000701049
-0.000137591
-0.000786854
-0.000172913
-0.00102898
-0.000148224
-0.00132097
-0.00109371
4.35137e-05
0.00022314
7.74431e-05
0.00054723
9.8981e-05
0.000718662
0.000114225
0.000809246
0.00012171
0.000826008
0.000121967
0.000778275
0.000119117
0.000696785
0.000117853
0.000614072
0.00012074
0.000547031
0.000127405
0.00049552
0.000135776
0.000450178
0.000143679
0.000401305
0.000149517
0.000343062
0.000152366
0.000273196
0.000151284
0.000192288
0.000145797
0.000101442
0.000135644
4.32627e-06
0.000120921
-9.55603e-05
0.000101679
-0.00019359
7.97243e-05
-0.000284954
5.54326e-05
-0.000368093
2.93075e-05
-0.000437953
6.34081e-06
-0.000501433
-1.96807e-05
-0.000557135
-4.07272e-05
-0.000610748
-6.07524e-05
-0.000681024
-9.09206e-05
-0.000756686
-0.000129111
-0.000990793
-0.000123503
-0.00132658
-0.00121722
4.791e-05
0.00017523
9.70509e-05
0.000498089
0.000131659
0.000684054
0.000156818
0.000784087
0.000171406
0.00081142
0.000175679
0.000774001
0.000174596
0.000697869
0.000174518
0.000614151
0.000179529
0.000542019
0.000190032
0.000485017
0.00020376
0.000436449
0.000217798
0.000387267
0.000229601
0.00033126
0.000237688
0.00026511
0.000240701
0.000189275
0.000237773
0.00010437
0.000228379
1.37199e-05
0.000212581
-7.97616e-05
0.000190553
-0.000171562
0.000163995
-0.000258395
0.000132983
-0.000337082
0.000100908
-0.000405878
6.77682e-05
-0.000468293
3.53668e-05
-0.000524734
8.01792e-06
-0.000583399
-2.167e-05
-0.000651336
-5.42458e-05
-0.00072411
-9.50623e-05
-0.000949977
-0.000103335
-0.00131831
-0.00132055
4.68557e-05
0.000128375
0.000109279
0.000435666
0.000157385
0.000635948
0.000193461
0.000748011
0.000216985
0.000787897
0.000227845
0.000763141
0.000230486
0.000695227
0.000232016
0.000612621
0.000238006
0.000536029
0.000250291
0.000472732
0.000267175
0.000419565
0.000285565
0.000368877
0.000302081
0.000314744
0.000314459
0.000252732
0.000320968
0.000182765
0.000320337
0.000105
0.000311837
2.22204e-05
0.000295378
-6.33028e-05
0.000271252
-0.000147436
0.000240672
-0.000227815
0.000204758
-0.000301167
0.000166464
-0.000367584
0.000126284
-0.000428112
8.80653e-05
-0.000486516
5.10541e-05
-0.000546388
1.46079e-05
-0.00061489
-2.1827e-05
-0.000687675
-6.78979e-05
-0.000903906
-8.89487e-05
-0.00129726
-0.0014095
4.1021e-05
8.73536e-05
0.00011334
0.000363347
0.000174325
0.000574962
0.000221714
0.000700622
0.000255224
0.000754387
0.00027394
0.000744425
0.000281605
0.000687563
0.000285321
0.000608905
0.000291694
0.000529655
0.000304187
0.00046024
0.000322191
0.000401561
0.000343028
0.000348041
0.000362982
0.00029479
0.000378923
0.000236791
0.000388576
0.000173113
0.000390356
0.00010322
0.000383188
2.93887e-05
0.000366854
-4.69694e-05
0.000341627
-0.000122209
0.000308607
-0.000194795
0.000269407
-0.000261967
0.00022642
-0.000324597
0.000181346
-0.000383037
0.000136811
-0.000441981
9.22352e-05
-0.000501812
4.93093e-05
-0.000571964
6.46615e-06
-0.000644832
-4.73399e-05
-0.0008501
-7.97309e-05
-0.00126487
-0.00148923
3.25735e-05
5.47801e-05
0.000108337
0.000287584
0.000180484
0.000502815
0.000239815
0.000641291
0.000285382
0.00070882
0.000315789
0.000714018
0.000332534
0.000670818
0.000341435
0.000600004
0.00034932
0.00052177
0.000361068
0.000448492
0.000377762
0.000384867
0.000397872
0.000327931
0.000418251
0.000274411
0.000435462
0.00021958
0.000446664
0.000161911
0.00044986
0.000100024
0.000443773
3.54756e-05
0.000427833
-3.10293e-05
0.000402375
-9.67508e-05
0.000368286
-0.000160706
0.00032743
-0.000221111
0.00028167
-0.000278837
0.000233243
-0.00033461
0.000183493
-0.000392231
0.000132849
-0.000451168
8.19252e-05
-0.00052104
3.00378e-05
-0.000592945
-2.88043e-05
-0.000791258
-7.20803e-05
-0.00122159
-0.00156131
2.3279e-05
3.15011e-05
9.48724e-05
0.00021599
0.000173787
0.000423901
0.000243656
0.000571421
0.000301138
0.000651338
0.000344025
0.000671131
0.000372291
0.000642552
0.000389785
0.00058251
0.000402146
0.000509409
0.000414754
0.000435884
0.000430232
0.000369389
0.000448468
0.000309695
0.000467427
0.000255452
0.000484132
0.000202874
0.000495685
0.000150358
0.000499714
9.59949e-05
0.000494844
4.0346e-05
0.000480106
-1.62913e-05
0.00045581
-7.24549e-05
0.000422434
-0.00012733
0.000381907
-0.000180584
0.000335183
-0.000232114
0.000284671
-0.000284098
0.000229953
-0.000337513
0.000173088
-0.000394303
0.000112754
-0.000460706
5.37136e-05
-0.000533904
-1.1225e-05
-0.000726319
-6.07522e-05
-0.00117206
-0.00162206
1.43745e-05
1.71266e-05
7.35114e-05
0.000156853
0.000152953
0.000344459
0.000231758
0.000492617
0.00030299
0.000580106
0.000362293
0.000611829
0.000406839
0.000598006
0.000438448
0.000550901
0.000460557
0.000487299
0.000477872
0.000418569
0.000493992
0.000353269
0.000510263
0.000293425
0.000526198
0.000239517
0.000539991
0.00018908
0.000549493
0.000140856
0.00055239
9.30974e-05
0.000547323
4.54129e-05
0.000533258
-2.22568e-06
0.000510134
-4.93316e-05
0.000477983
-9.51784e-05
0.000438448
-0.000141049
0.00039133
-0.000184996
0.000338939
-0.000231707
0.000279057
-0.000277631
0.000215688
-0.000330934
0.000144784
-0.000389802
7.904e-05
-0.00046816
7.03513e-06
-0.000654314
-4.88959e-05
-0.00111613
-0.00167096
4.83495e-06
1.22916e-05
4.71292e-05
0.000114559
0.0001163
0.000275288
0.000198199
0.000410718
0.000279829
0.000498476
0.000353418
0.000538239
0.000416144
0.00053528
0.000465571
0.000501474
0.000502733
0.000450137
0.000530984
0.000390319
0.000553443
0.000330809
0.00057229
0.000274578
0.000588242
0.000223565
0.000600831
0.000176492
0.000608944
0.000132743
0.000611007
9.10343e-05
0.000605994
5.04259e-05
0.000592464
1.13041e-05
0.000570812
-2.76786e-05
0.000540101
-6.44679e-05
0.000501604
-0.000102552
0.000454038
-0.00013743
0.000399298
-0.000176967
0.00033403
-0.000212363
0.000263273
-0.000260177
0.000180263
-0.000306792
0.000106941
-0.000394838
2.25802e-05
-0.000569954
-4.72503e-05
-0.0010463
-0.00171821
-1.10825e-05
2.33741e-05
9.61194e-06
9.38647e-05
6.4047e-05
0.000220853
0.000148838
0.000325927
0.000239455
0.000407859
0.000331277
0.000446417
0.000414718
0.00045184
0.000485295
0.000430896
0.000542347
0.000393086
0.000587073
0.000345592
0.000621386
0.000296497
0.000647649
0.000248314
0.000667221
0.000203993
0.000680884
0.000162828
0.000688396
0.000125231
0.000689403
9.00272e-05
0.000683133
5.66958e-05
0.000668956
2.54814e-05
0.000646583
-5.30532e-06
0.000615504
-3.33889e-05
0.000575701
-6.275e-05
0.000526401
-8.81299e-05
0.000468128
-0.000118694
0.000398407
-0.000142642
0.000321703
-0.000183472
0.000230464
-0.000215554
0.000148502
-0.000312876
4.57708e-05
-0.000467223
-3.73635e-05
-0.000963169
-0.00175557
-4.22326e-05
6.56067e-05
-4.21057e-05
9.37379e-05
-8.44645e-06
0.000187194
6.855e-05
0.00024893
0.000161588
0.000314821
0.000267578
0.000340427
0.000368403
0.000351015
0.000460017
0.000339282
0.000538377
0.000314726
0.000603253
0.000280716
0.000654199
0.000245551
0.000694422
0.000208091
0.000723673
0.000174743
0.000744865
0.000141636
0.000756716
0.00011338
0.000761329
8.54147e-05
0.000756687
6.13376e-05
0.000744706
3.74621e-05
0.000723046
1.63553e-05
0.000693493
-3.83611e-06
0.000653995
-2.32525e-05
0.000605644
-3.97784e-05
0.000547312
-6.03616e-05
0.000478305
-7.36352e-05
0.000401178
-0.000106346
0.000313092
-0.000127467
0.000224919
-0.000224702
0.000129905
-0.000372209
3.81289e-05
-0.000871393
-0.00171745
-0.000141526
0.000207133
-0.000128548
8.07596e-05
-9.60767e-05
0.000154723
-8.43637e-06
0.00016129
9.5294e-05
0.000211091
0.000216487
0.000219235
0.000331464
0.000236037
0.000444698
0.000226048
0.000541051
0.000218373
0.000625561
0.000196206
0.00069267
0.000178442
0.000747711
0.00015305
0.000787996
0.000134457
0.000818311
0.000111322
0.000836456
9.52353e-05
0.000846216
7.56543e-05
0.000845255
6.22983e-05
0.000836426
4.62913e-05
0.000818129
3.46528e-05
0.000791899
2.23939e-05
0.000757419
1.12274e-05
0.000714863
2.77744e-06
0.000664375
-9.87353e-06
0.000606117
-1.53772e-05
0.000537615
-3.78438e-05
0.000466376
-5.6228e-05
0.000377482
-0.000135809
0.000309346
-0.000304073
0.000188852
-0.000750899
-0.00152859
-7.8412e-05
0.000285545
-0.000145263
0.000147611
-0.000123751
0.000133211
-7.40502e-05
0.000111589
3.18033e-05
0.000105237
0.00014804
0.000102998
0.000276837
0.00010724
0.000397601
0.000105285
0.000511218
0.000104756
0.000610021
9.74025e-05
0.000696273
9.21902e-05
0.000767288
8.20352e-05
0.000826408
7.53371e-05
0.000872921
6.4809e-05
0.000909422
5.87344e-05
0.000936087
4.89891e-05
0.000954163
4.42223e-05
0.000965052
3.54019e-05
0.000967676
3.20287e-05
0.000966057
2.40131e-05
0.000955288
2.19963e-05
0.000943915
1.41508e-05
0.000921009
1.30328e-05
0.000902344
3.28791e-06
0.000862419
2.08096e-06
0.000827267
-2.10762e-05
0.000740543
-4.90847e-05
0.000640739
-0.000204269
0.000402867
-0.000513027
-0.00112573
0.000285545
0.000433156
0.000566366
0.000677955
0.000783192
0.00088619
0.00099343
0.00109871
0.00120347
0.00130087
0.00139306
0.0014751
0.00155044
0.00161524
0.00167398
0.00172297
0.00176719
0.00180259
0.00183462
0.00185863
0.00188063
0.00189478
0.00190781
0.0019111
0.00191318
0.00189211
0.00184302
0.00163875
0.00112573
)
;

boundaryField
{
    movingWall
    {
        type            calculated;
        value           uniform 0;
    }
    fixedWalls
    {
        type            calculated;
        value           uniform 0;
    }
    frontAndBack
    {
        type            empty;
    }
}


// ************************************************************************* //
