/*--------------------------------*- C++ -*----------------------------------*\
| =========                 |                                                 |
| \\      /  F ield         | OpenFOAM: The Open Source CFD Toolbox           |
|  \\    /   O peration     | Version:  2406                                  |
|   \\  /    A nd           | Website:  www.openfoam.com                      |
|    \\/     M anipulation  |                                                 |
\*---------------------------------------------------------------------------*/
FoamFile
{
    version     2.0;
    format      ascii;
    arch        "LSB;label=32;scalar=64";
    class       surfaceScalarField;
    location    "37.9";
    object      phi;
}
// * * * * * * * * * * * * * * * * * * * * * * * * * * * * * * * * * * * * * //

dimensions      [0 3 -1 0 0 0 0];

oriented        oriented;

internalField   nonuniform List<scalar> 
28560
(
-2.4055e-09
2.40742e-09
5.00444e-08
-5.24499e-08
1.72763e-07
-1.22719e-07
3.5332e-07
-1.80557e-07
5.74047e-07
-2.20726e-07
8.16508e-07
-2.42462e-07
1.06379e-06
-2.47285e-07
1.30166e-06
-2.37868e-07
1.51919e-06
-2.17531e-07
1.70904e-06
-1.89848e-07
1.86737e-06
-1.58326e-07
1.99349e-06
-1.26128e-07
2.08934e-06
-9.58476e-08
2.15871e-06
-6.93677e-08
2.20651e-06
-4.78004e-08
2.23802e-06
-3.15097e-08
2.25829e-06
-2.02684e-08
2.27127e-06
-1.29776e-08
2.2797e-06
-8.43417e-09
2.28486e-06
-5.16507e-09
2.28626e-06
-1.39889e-09
2.28244e-06
3.82031e-09
2.2705e-06
1.19425e-08
2.24649e-06
2.40071e-08
2.20594e-06
4.05551e-08
2.14402e-06
6.19224e-08
2.05575e-06
8.82706e-08
1.93607e-06
1.19675e-07
1.77987e-06
1.56197e-07
1.58194e-06
1.97929e-07
1.33694e-06
2.45001e-07
1.03939e-06
2.97556e-07
6.83678e-07
3.5571e-07
2.64172e-07
4.19506e-07
-2.24696e-07
4.88868e-07
-7.88266e-07
5.6357e-07
-1.43147e-06
6.43208e-07
-2.15866e-06
7.27184e-07
-2.97335e-06
8.14694e-07
-3.87808e-06
9.04728e-07
-4.87415e-06
9.9607e-07
-5.96146e-06
1.08731e-06
-7.13833e-06
1.17687e-06
-8.40132e-06
1.263e-06
-9.74518e-06
1.34385e-06
-1.11627e-05
1.4175e-06
-1.26447e-05
1.48197e-06
-1.418e-05
1.5353e-06
-1.57555e-05
1.57557e-06
-1.73565e-05
1.60095e-06
-1.89662e-05
1.60973e-06
-2.05666e-05
1.60038e-06
-2.21381e-05
1.57155e-06
-2.36602e-05
1.5221e-06
-2.51114e-05
1.45113e-06
-2.64694e-05
1.35802e-06
-2.77118e-05
1.24242e-06
-2.88161e-05
1.10431e-06
-2.97602e-05
9.44041e-07
-3.05225e-05
7.6231e-07
-3.10834e-05
5.60921e-07
-3.1424e-05
3.40641e-07
-3.15243e-05
1.00227e-07
-3.13712e-05
-1.53105e-07
-3.09551e-05
-4.16046e-07
-3.02671e-05
-6.8802e-07
-2.93031e-05
-9.64028e-07
-2.80636e-05
-1.23942e-06
-2.65545e-05
-1.50916e-06
-2.47866e-05
-1.76785e-06
-2.27768e-05
-2.00988e-06
-2.05473e-05
-2.2295e-06
-1.81262e-05
-2.42107e-06
-1.5547e-05
-2.57922e-06
-1.28478e-05
-2.69913e-06
-1.00711e-05
-2.77674e-06
-7.26207e-06
-2.80902e-06
-4.46793e-06
-2.79415e-06
-1.73623e-06
-2.7317e-06
8.86526e-07
-2.62276e-06
3.35649e-06
-2.46996e-06
5.63396e-06
-2.27747e-06
7.68476e-06
-2.0508e-06
9.4814e-06
-1.79663e-06
1.10039e-05
-1.52253e-06
1.22405e-05
-1.23656e-06
1.31875e-05
-9.46975e-07
1.38492e-05
-6.61779e-07
1.42377e-05
-3.88445e-07
1.43721e-05
-1.34453e-07
1.42742e-05
9.79813e-08
1.39704e-05
3.03736e-07
1.34939e-05
4.76486e-07
1.28762e-05
6.1777e-07
1.2148e-05
7.28211e-07
1.13397e-05
8.0828e-07
1.04796e-05
8.60057e-07
9.59327e-06
8.8635e-07
8.7028e-06
8.90474e-07
7.82678e-06
8.76016e-07
6.98017e-06
8.46615e-07
6.17437e-06
8.05795e-07
5.41754e-06
7.56834e-07
4.71487e-06
7.02668e-07
4.06902e-06
6.45848e-07
3.4805e-06
5.8852e-07
2.94807e-06
5.32431e-07
2.46913e-06
4.78942e-07
2.0401e-06
4.29033e-07
1.65682e-06
3.83279e-07
1.31503e-06
3.41792e-07
1.0109e-06
3.04125e-07
7.41734e-07
2.69168e-07
5.06658e-07
2.35075e-07
3.07355e-07
1.99303e-07
1.48398e-07
1.58957e-07
3.67066e-08
1.11691e-07
-2.09607e-08
5.76673e-08
-2.4897e-08
3.93624e-09
-2.4897e-08
5.00099e-08
-4.76025e-08
2.40482e-07
-2.42922e-07
5.7825e-07
-4.60486e-07
1.03821e-06
-6.40519e-07
1.58415e-06
-7.66667e-07
2.17689e-06
-8.35204e-07
2.77915e-06
-8.49539e-07
3.35855e-06
-8.17268e-07
3.88946e-06
-7.48443e-07
4.35384e-06
-6.54222e-07
4.74127e-06
-5.45764e-07
5.04841e-06
-4.33262e-07
5.27776e-06
-3.25197e-07
5.43621e-06
-2.27825e-07
5.53335e-06
-1.44934e-07
5.57968e-06
-7.78454e-08
5.58507e-06
-2.56539e-08
5.55758e-06
1.45122e-08
5.50214e-06
4.70003e-08
5.42029e-06
7.66844e-08
5.31002e-06
1.08878e-07
5.16541e-06
1.48427e-07
4.97779e-06
1.99566e-07
4.73622e-06
2.65575e-07
4.4281e-06
3.48676e-07
4.03981e-06
4.50214e-07
3.55719e-06
5.70891e-07
2.96583e-06
7.1103e-07
2.25124e-06
8.70787e-07
1.3989e-06
1.05027e-06
3.94334e-07
1.24956e-06
-7.76713e-07
1.4686e-06
-2.12808e-06
1.70708e-06
-3.67285e-06
1.96427e-06
-5.42285e-06
2.23888e-06
-7.38825e-06
2.52897e-06
-9.57691e-06
2.83187e-06
-1.19939e-05
3.14418e-06
-1.46409e-05
3.46172e-06
-1.75158e-05
3.77962e-06
-2.06121e-05
4.09238e-06
-2.39188e-05
4.39397e-06
-2.74199e-05
4.67796e-06
-3.10946e-05
4.93769e-06
-3.49172e-05
5.16645e-06
-3.88573e-05
5.35763e-06
-4.28803e-05
5.50494e-06
-4.69475e-05
5.60256e-06
-5.10172e-05
5.64528e-06
-5.50449e-05
5.62861e-06
-5.89841e-05
5.54891e-06
-6.27871e-05
5.40341e-06
-6.64058e-05
5.19026e-06
-6.97922e-05
4.90855e-06
-7.28994e-05
4.55827e-06
-7.56817e-05
4.14035e-06
-7.80959e-05
3.65661e-06
-8.01013e-05
3.10974e-06
-8.16606e-05
2.50336e-06
-8.27404e-05
1.84206e-06
-8.33107e-05
1.13125e-06
-8.33482e-05
3.78091e-07
-8.28349e-05
-4.13042e-07
-8.1755e-05
-1.233e-06
-8.01014e-05
-2.06966e-06
-7.78749e-05
-2.91455e-06
-7.50823e-05
-3.75656e-06
-7.17384e-05
-4.58339e-06
-6.78655e-05
-5.38203e-06
-6.34945e-05
-6.13888e-06
-5.86644e-05
-6.83997e-06
-5.34226e-05
-7.47125e-06
-4.78247e-05
-8.01902e-06
-4.19336e-05
-8.47033e-06
-3.58192e-05
-8.81349e-06
-2.95574e-05
-9.03855e-06
-2.32285e-05
-9.13786e-06
-1.69162e-05
-9.10651e-06
-1.07052e-05
-8.94273e-06
-4.67969e-06
-8.64823e-06
1.0787e-06
-8.22835e-06
6.49335e-06
-7.69211e-06
1.14945e-05
-7.05198e-06
1.60215e-05
-6.32361e-06
2.00242e-05
-5.52525e-06
2.34648e-05
-4.67716e-06
2.63186e-05
-3.80079e-06
2.85748e-05
-2.91795e-06
3.02364e-05
-2.05001e-06
3.13188e-05
-1.21692e-06
3.18522e-05
-4.35435e-07
3.18779e-05
2.78044e-07
3.14447e-05
9.09735e-07
3.06081e-05
1.45434e-06
2.94302e-05
1.9061e-06
2.79747e-05
2.26376e-06
2.63053e-05
2.52946e-06
2.44834e-05
2.70828e-06
2.25662e-05
2.80771e-06
2.06052e-05
2.83699e-06
1.86453e-05
2.80648e-06
1.67241e-05
2.72702e-06
1.48716e-05
2.60937e-06
1.31105e-05
2.46377e-06
1.14567e-05
2.2996e-06
9.92009e-06
2.12515e-06
8.50504e-06
1.94748e-06
7.21162e-06
1.77236e-06
6.03646e-06
1.6042e-06
4.97384e-06
1.4459e-06
4.01695e-06
1.29869e-06
3.15921e-06
1.16186e-06
2.39588e-06
1.0325e-06
1.72553e-06
9.05423e-07
1.15139e-06
7.73439e-07
6.8176e-07
6.28589e-07
3.28679e-07
4.64772e-07
1.03354e-07
2.82992e-07
7.04884e-09
1.00241e-07
-1.78481e-08
1.1602e-07
-1.63622e-07
4.47836e-07
-5.74738e-07
9.71537e-07
-9.84187e-07
1.64978e-06
-1.31876e-06
2.43511e-06
-1.552e-06
3.27656e-06
-1.67666e-06
4.12509e-06
-1.69807e-06
4.93747e-06
-1.62965e-06
5.67882e-06
-1.48979e-06
6.3239e-06
-1.2993e-06
6.85729e-06
-1.07915e-06
7.27271e-06
-8.48688e-07
7.57159e-06
-6.24071e-07
7.76108e-06
-4.17319e-07
7.85191e-06
-2.35762e-07
7.85603e-06
-8.19637e-08
7.7845e-06
4.58752e-08
7.64573e-06
1.53281e-07
7.4441e-06
2.48631e-07
7.17901e-06
3.41774e-07
6.84479e-06
4.43099e-07
6.4308e-06
5.62416e-07
5.92222e-06
7.08145e-07
5.30095e-06
8.86846e-07
4.54653e-06
1.1031e-06
3.63704e-06
1.3597e-06
2.54983e-06
1.6581e-06
1.26201e-06
1.99885e-06
-2.49128e-07
2.38193e-06
-2.00581e-06
2.80696e-06
-4.0294e-06
3.27315e-06
-6.33994e-06
3.77913e-06
-8.95549e-06
4.32263e-06
-1.18915e-05
4.90024e-06
-1.51597e-05
5.50712e-06
-1.87677e-05
6.13693e-06
-2.27175e-05
6.78171e-06
-2.70053e-05
7.43194e-06
-3.16202e-05
8.07668e-06
-3.65444e-05
8.7038e-06
-4.17523e-05
9.30029e-06
-4.72109e-05
9.85258e-06
-5.288e-05
1.0347e-05
-5.87125e-05
1.07702e-05
-6.46555e-05
1.11095e-05
-7.06515e-05
1.13536e-05
-7.66389e-05
1.14924e-05
-8.2554e-05
1.15176e-05
-8.83317e-05
1.1423e-05
-9.39072e-05
1.12041e-05
-9.9217e-05
1.08587e-05
-0.0001042
1.03862e-05
-0.000108797
9.78785e-06
-0.000112956
9.0667e-06
-0.000116624
8.22709e-06
-0.000119759
7.27473e-06
-0.000122319
6.2165e-06
-0.000124269
5.06034e-06
-0.000125581
3.81521e-06
-0.00012623
2.49108e-06
-0.000126198
1.09881e-06
-0.00012547
-3.49827e-07
-0.000124042
-1.84084e-06
-0.000121912
-3.36249e-06
-0.000119085
-4.89735e-06
-0.00011557
-6.42905e-06
-0.000111387
-7.94005e-06
-0.000106559
-9.41143e-06
-0.000101118
-1.08232e-05
-9.51021e-05
-1.21544e-05
-8.85583e-05
-1.33837e-05
-8.15398e-05
-1.44897e-05
-7.41076e-05
-1.54513e-05
-6.63297e-05
-1.62482e-05
-5.82808e-05
-1.68623e-05
-5.00419e-05
-1.72775e-05
-4.16987e-05
-1.74811e-05
-3.3341e-05
-1.74642e-05
-2.5061e-05
-1.72227e-05
-1.69519e-05
-1.67574e-05
-9.1055e-06
-1.60747e-05
-1.61108e-06
-1.51865e-05
5.44729e-06
-1.41104e-05
1.19924e-05
-1.28688e-05
1.79561e-05
-1.14889e-05
2.32807e-05
-1.00017e-05
2.79206e-05
-8.44076e-06
3.1844e-05
-6.84127e-06
3.50328e-05
-5.23882e-06
3.74839e-05
-3.66804e-06
3.92101e-05
-2.16167e-06
4.02384e-05
-7.50258e-07
4.06075e-05
5.40699e-07
4.0369e-05
1.69284e-06
3.95861e-05
2.68901e-06
3.83291e-05
3.52076e-06
3.66736e-05
4.18492e-06
3.46978e-05
4.68409e-06
3.24794e-05
5.02612e-06
3.00931e-05
5.22327e-06
2.76083e-05
5.29128e-06
2.50871e-05
5.24822e-06
2.25831e-05
5.11342e-06
2.01404e-05
4.90641e-06
1.7794e-05
4.64601e-06
1.55695e-05
4.34967e-06
1.34841e-05
4.0329e-06
1.15476e-05
3.70889e-06
9.76354e-06
3.38821e-06
8.13105e-06
3.07838e-06
6.64618e-06
2.78356e-06
5.30407e-06
2.50397e-06
4.10098e-06
2.2356e-06
3.03627e-06
1.97013e-06
2.11401e-06
1.69569e-06
1.34355e-06
1.39905e-06
7.38265e-07
1.07005e-06
3.11636e-07
7.09622e-07
6.99712e-08
3.41906e-07
5.21231e-08
1.70384e-07
-3.34007e-07
6.21867e-07
-1.02622e-06
1.30031e-06
-1.66263e-06
2.15142e-06
-2.16987e-06
3.11624e-06
-2.51681e-06
4.13458e-06
-2.695e-06
5.14947e-06
-2.71296e-06
6.11086e-06
-2.59103e-06
6.97821e-06
-2.35714e-06
7.72184e-06
-2.04293e-06
8.3231e-06
-1.68041e-06
8.77343e-06
-1.29902e-06
9.07279e-06
-9.23429e-07
9.22736e-06
-5.71889e-07
9.24702e-06
-2.5543e-07
9.14277e-06
2.229e-08
8.92415e-06
2.64496e-07
8.59725e-06
4.80185e-07
8.16317e-06
6.8271e-07
7.61702e-06
8.87925e-07
6.94772e-06
1.1124e-06
6.13839e-06
1.37174e-06
5.16722e-06
1.67932e-06
4.00857e-06
2.0455e-06
2.63423e-06
2.47744e-06
1.01453e-06
2.9794e-06
-8.8069e-07
3.55332e-06
-3.08126e-06
4.19942e-06
-5.61598e-06
4.91665e-06
-8.51186e-06
5.70284e-06
-1.17933e-05
6.55461e-06
-1.54812e-05
7.46699e-06
-1.95916e-05
8.43302e-06
-2.41347e-05
9.44337e-06
-2.91137e-05
1.04861e-05
-3.45233e-05
1.15466e-05
-4.03494e-05
1.26077e-05
-4.65676e-05
1.36502e-05
-5.31438e-05
1.46529e-05
-6.00338e-05
1.55938e-05
-6.7184e-05
1.64505e-05
-7.45325e-05
1.72011e-05
-8.20105e-05
1.7825e-05
-8.95443e-05
1.83039e-05
-9.70566e-05
1.86219e-05
-0.000104469
1.87662e-05
-0.000111704
1.87276e-05
-0.000118687
1.85002e-05
-0.000125346
1.80816e-05
-0.000131614
1.74722e-05
-0.000137431
1.66757e-05
-0.000142742
1.56976e-05
-0.0001475
1.45459e-05
-0.000151663
1.32298e-05
-0.000155196
1.17599e-05
-0.000158069
1.01478e-05
-0.000160259
8.40593e-06
-0.000161746
6.54723e-06
-0.000162516
4.58539e-06
-0.000162559
2.53469e-06
-0.000161871
4.10182e-07
-0.000160448
-1.77255e-06
-0.000158293
-3.99613e-06
-0.000155412
-6.24298e-06
-0.000151816
-8.49348e-06
-0.000147518
-1.07266e-05
-0.000142538
-1.29201e-05
-0.0001369
-1.50498e-05
-0.000130633
-1.70904e-05
-0.000123772
-1.90151e-05
-0.00011636
-2.07964e-05
-0.000108443
-2.2406e-05
-0.000100079
-2.3816e-05
-9.13273e-05
-2.49995e-05
-8.22586e-05
-2.5931e-05
-7.29478e-05
-2.65883e-05
-6.34761e-05
-2.69527e-05
-5.39299e-05
-2.70104e-05
-4.43993e-05
-2.67533e-05
-3.49768e-05
-2.61799e-05
-2.57557e-05
-2.52958e-05
-1.68283e-05
-2.41139e-05
-8.28398e-06
-2.26547e-05
-2.07324e-07
-2.09454e-05
7.32365e-06
-1.90199e-05
1.42392e-05
-1.69173e-05
2.04795e-05
-1.4681e-05
2.59957e-05
-1.23575e-05
3.07514e-05
-9.99451e-06
3.47234e-05
-7.64006e-06
3.79025e-05
-5.34077e-06
4.02929e-05
-3.1407e-06
4.19131e-05
-1.07951e-06
4.27973e-05
8.08727e-07
4.29909e-05
2.49535e-06
4.25524e-05
3.95932e-06
4.155e-05
5.18731e-06
4.006e-05
6.17403e-06
3.8164e-05
6.92213e-06
3.59456e-05
7.44168e-06
3.34876e-05
7.74927e-06
3.08691e-05
7.86676e-06
2.81628e-05
7.81977e-06
2.54331e-05
7.6361e-06
2.27348e-05
7.34422e-06
2.01127e-05
6.97182e-06
1.76009e-05
6.54472e-06
1.5224e-05
6.08579e-06
1.2998e-05
5.6142e-06
1.09318e-05
5.14456e-06
9.02921e-06
4.68616e-06
7.29097e-06
4.2422e-06
5.71734e-06
3.80923e-06
4.31032e-06
3.37715e-06
3.0757e-06
2.93032e-06
2.0242e-06
2.45054e-06
1.1715e-06
1.92276e-06
5.36616e-07
1.34451e-06
1.39485e-07
7.39037e-07
1.91608e-07
2.11912e-07
-5.45919e-07
7.58096e-07
-1.57241e-06
1.55956e-06
-2.4641e-06
2.54396e-06
-3.15427e-06
3.63972e-06
-3.61257e-06
4.7777e-06
-3.83298e-06
5.89433e-06
-3.8296e-06
6.93477e-06
-3.63147e-06
7.85502e-06
-3.2774e-06
8.62301e-06
-2.81092e-06
9.21835e-06
-2.27575e-06
9.6312e-06
-1.71187e-06
9.86023e-06
-1.15246e-06
9.91011e-06
-6.21768e-07
9.78871e-06
-1.34033e-07
9.50426e-06
3.06745e-07
9.06269e-06
7.06057e-07
8.4655e-06
1.07738e-06
7.70814e-06
1.44007e-06
6.77924e-06
1.81682e-06
5.66054e-06
2.23111e-06
4.3275e-06
2.70478e-06
2.75051e-06
3.25631e-06
8.96262e-07
3.89974e-06
-1.27069e-06
4.64439e-06
-3.78656e-06
5.49527e-06
-6.68701e-06
6.45377e-06
-1.0006e-05
7.51838e-06
-1.37744e-05
8.68512e-06
-1.80192e-05
9.94762e-06
-2.27615e-05
1.12968e-05
-2.80151e-05
1.27207e-05
-3.37854e-05
1.42033e-05
-4.00672e-05
1.57252e-05
-4.6844e-05
1.72629e-05
-5.40869e-05
1.87895e-05
-6.17543e-05
2.02751e-05
-6.97922e-05
2.16881e-05
-7.81353e-05
2.2996e-05
-8.67086e-05
2.41671e-05
-9.54294e-05
2.51713e-05
-0.00010421
2.59817e-05
-0.000112961
2.65756e-05
-0.000121592
2.69349e-05
-0.000130017
2.70469e-05
-0.000138154
2.69039e-05
-0.00014593
2.65035e-05
-0.000153278
2.58476e-05
-0.000160138
2.4942e-05
-0.000166462
2.37958e-05
-0.000172206
2.24205e-05
-0.000177338
2.08295e-05
-0.00018183
1.90373e-05
-0.000185659
1.70592e-05
-0.00018881
1.49107e-05
-0.00019127
1.26076e-05
-0.000193029
1.01657e-05
-0.000194083
7.60076e-06
-0.000194426
4.92878e-06
-0.000194058
2.16592e-06
-0.000192976
-6.71079e-07
-0.000191184
-3.56486e-06
-0.000188683
-6.49681e-06
-0.000185479
-9.44697e-06
-0.000181579
-1.23937e-05
-0.000176992
-1.53135e-05
-0.000171732
-1.81807e-05
-0.000165814
-2.09677e-05
-0.00015926
-2.36445e-05
-0.000152096
-2.61792e-05
-0.000144354
-2.85383e-05
-0.000136072
-3.06872e-05
-0.000127298
-3.25909e-05
-0.000118082
-3.42149e-05
-0.000108487
-3.55263e-05
-9.858e-05
-3.64953e-05
-8.84368e-05
-3.70959e-05
-7.81393e-05
-3.7308e-05
-6.77746e-05
-3.7118e-05
-5.74341e-05
-3.65204e-05
-4.72115e-05
-3.55184e-05
-3.7201e-05
-3.41245e-05
-2.74952e-05
-3.23604e-05
-1.81837e-05
-3.0257e-05
-9.35048e-06
-2.78531e-05
-1.07275e-06
-2.5195e-05
6.58071e-06
-2.23345e-05
1.35507e-05
-1.93274e-05
1.97883e-05
-1.62322e-05
2.52563e-05
-1.3108e-05
2.99286e-05
-1.00131e-05
3.37916e-05
-7.00371e-06
3.68443e-05
-4.13221e-06
3.9099e-05
-1.44599e-06
4.05808e-05
1.01357e-06
4.13277e-05
3.2124e-06
4.13903e-05
5.12474e-06
4.08303e-05
6.73396e-06
3.97193e-05
8.03311e-06
3.81361e-05
9.02493e-06
3.61639e-05
9.72149e-06
3.38874e-05
1.01432e-05
3.13897e-05
1.03175e-05
2.87491e-05
1.02767e-05
2.60366e-05
1.00567e-05
2.33144e-05
9.69409e-06
2.06342e-05
9.22484e-06
1.80377e-05
8.68234e-06
1.55561e-05
8.0958e-06
1.32118e-05
7.48882e-06
1.102e-05
6.87802e-06
8.99039e-06
6.27177e-06
7.13032e-06
5.66931e-06
5.44686e-06
5.06061e-06
3.94955e-06
4.42763e-06
2.65243e-06
3.74766e-06
1.57576e-06
2.99943e-06
7.47345e-07
2.17292e-06
2.04377e-07
1.28201e-06
3.95985e-07
2.42991e-07
-7.8891e-07
8.61739e-07
-2.19115e-06
1.75715e-06
-3.35951e-06
2.83949e-06
-4.2366e-06
4.02409e-06
-4.79717e-06
5.23251e-06
-5.0414e-06
6.39499e-06
-4.99208e-06
7.45286e-06
-4.68934e-06
8.36007e-06
-4.18461e-06
9.08362e-06
-3.53446e-06
9.6027e-06
-2.79484e-06
9.90705e-06
-2.01622e-06
9.99441e-06
-1.23982e-06
9.8677e-06
-4.9506e-07
9.5319e-06
2.01769e-07
8.99107e-06
8.47582e-07
8.24567e-06
1.45145e-06
7.29051e-06
2.03254e-06
6.11332e-06
2.61725e-06
4.69433e-06
3.23581e-06
3.00656e-06
3.91888e-06
1.0169e-06
4.69444e-06
-1.31226e-06
5.58547e-06
-4.02123e-06
6.60871e-06
-7.15115e-06
7.77431e-06
-1.07422e-05
9.08631e-06
-1.48318e-05
1.05434e-05
-1.94532e-05
1.21398e-05
-2.46333e-05
1.38652e-05
-3.0391e-05
1.57053e-05
-3.67353e-05
1.76411e-05
-4.3663e-05
1.96483e-05
-5.11574e-05
2.16977e-05
-5.91872e-05
2.3755e-05
-6.77056e-05
2.57813e-05
-7.66512e-05
2.77351e-05
-8.59489e-05
2.95728e-05
-9.55124e-05
3.12516e-05
-0.000105247
3.27305e-05
-0.000115052
3.39728e-05
-0.000124828
3.49472e-05
-0.000134476
3.56293e-05
-0.000143902
3.60016e-05
-0.000153021
3.6054e-05
-0.000161758
3.57834e-05
-0.000170047
3.51928e-05
-0.000177833
3.42904e-05
-0.000185074
3.30884e-05
-0.000191735
3.16023e-05
-0.000197788
2.98492e-05
-0.000203215
2.78479e-05
-0.000208003
2.56171e-05
-0.000212141
2.31759e-05
-0.000215625
2.05425e-05
-0.000218449
1.7735e-05
-0.000220612
1.47704e-05
-0.000222111
1.16652e-05
-0.000222946
8.4356e-06
-0.000223115
5.09749e-06
-0.000222616
1.66696e-06
-0.000221448
-1.83947e-06
-0.000219608
-5.40434e-06
-0.000217096
-9.00886e-06
-0.000213911
-1.26325e-05
-0.000210052
-1.62527e-05
-0.000205521
-1.98443e-05
-0.000200322
-2.33793e-05
-0.000194463
-2.68272e-05
-0.000187953
-3.01541e-05
-0.000180809
-3.33233e-05
-0.000173051
-3.62959e-05
-0.000164708
-3.90305e-05
-0.000155814
-4.14849e-05
-0.000146412
-4.36164e-05
-0.000136555
-4.53836e-05
-0.000126303
-4.67476e-05
-0.000115725
-4.7674e-05
-0.000104899
-4.8134e-05
-9.39098e-05
-4.81068e-05
-8.28494e-05
-4.75808e-05
-7.18129e-05
-4.65549e-05
-6.08982e-05
-4.50392e-05
-5.02031e-05
-4.30555e-05
-3.98232e-05
-4.06368e-05
-2.98494e-05
-3.78269e-05
-2.0366e-05
-3.46784e-05
-1.14491e-05
-3.12514e-05
-3.16544e-06
-2.76111e-05
4.4284e-06
-2.3826e-05
1.12864e-05
-1.9966e-05
1.73731e-05
-1.60998e-05
2.26638e-05
-1.22944e-05
2.71444e-05
-8.61277e-06
3.08116e-05
-5.11318e-06
3.36733e-05
-1.84812e-06
3.57488e-05
1.13687e-06
3.70692e-05
3.80429e-06
3.76775e-05
6.12568e-06
3.7628e-05
8.08265e-06
3.69853e-05
9.66758e-06
3.5823e-05
1.08839e-05
3.42204e-05
1.17457e-05
3.22607e-05
1.22772e-05
3.00269e-05
1.25105e-05
2.75991e-05
1.24845e-05
2.50517e-05
1.22415e-05
2.2451e-05
1.18256e-05
1.98539e-05
1.12794e-05
1.73073e-05
1.06423e-05
1.48485e-05
9.94766e-06
1.25057e-05
9.22077e-06
1.03005e-05
8.47702e-06
8.24947e-06
7.72034e-06
6.36738e-06
6.94269e-06
4.66998e-06
6.12504e-06
3.17706e-06
5.24058e-06
1.91583e-06
4.26066e-06
9.24781e-07
3.16398e-06
2.5875e-07
1.94804e-06
6.54735e-07
2.66684e-07
-1.05559e-06
9.40168e-07
-2.86464e-06
1.90407e-06
-4.32341e-06
3.05231e-06
-5.38484e-06
4.28714e-06
-6.032e-06
5.52074e-06
-6.27501e-06
6.67742e-06
-6.14876e-06
7.69541e-06
-5.70733e-06
8.52765e-06
-5.01685e-06
9.14133e-06
-4.14814e-06
9.51628e-06
-3.16979e-06
9.6425e-06
-2.14243e-06
9.51706e-06
-1.11438e-06
9.14078e-06
-1.1878e-07
8.51488e-06
8.27671e-07
7.63789e-06
1.72457e-06
6.5031e-06
2.58624e-06
5.09675e-06
3.43889e-06
3.39711e-06
4.31689e-06
1.37456e-06
5.25837e-06
-1.00741e-06
6.30085e-06
-3.79045e-06
7.47748e-06
-7.0192e-06
8.81422e-06
-1.07389e-05
1.03284e-05
-1.49931e-05
1.20285e-05
-1.98214e-05
1.39146e-05
-2.52572e-05
1.59792e-05
-3.13255e-05
1.8208e-05
-3.80403e-05
2.05801e-05
-4.54029e-05
2.30679e-05
-5.3399e-05
2.56371e-05
-6.19975e-05
2.82468e-05
-7.11497e-05
3.08499e-05
-8.07894e-05
3.33947e-05
-9.08345e-05
3.58264e-05
-0.000101189
3.809e-05
-0.000111749
4.01325e-05
-0.000122403
4.19054e-05
-0.00013304
4.33673e-05
-0.000143552
4.44852e-05
-0.00015384
4.52354e-05
-0.000163815
4.56039e-05
-0.000173399
4.55856e-05
-0.000182529
4.51837e-05
-0.000191153
4.44078e-05
-0.000199233
4.32731e-05
-0.000206741
4.17984e-05
-0.000213658
4.00049e-05
-0.000219971
3.7915e-05
-0.000225673
3.55515e-05
-0.000230762
3.29366e-05
-0.000235236
3.00919e-05
-0.000239098
2.70374e-05
-0.000242348
2.37923e-05
-0.000244987
2.0374e-05
-0.000247016
1.67992e-05
-0.000248434
1.30833e-05
-0.00024924
9.24147e-06
-0.00024943
5.28833e-06
-0.000249002
1.23881e-06
-0.00024795
-2.89163e-06
-0.000246268
-7.08638e-06
-0.00024395
-1.13273e-05
-0.000240988
-1.55941e-05
-0.000237377
-1.98641e-05
-0.00023311
-2.41114e-05
-0.000228182
-2.83069e-05
-0.000222591
-3.24177e-05
-0.000216338
-3.64072e-05
-0.000209427
-4.02348e-05
-0.000201866
-4.38563e-05
-0.000193672
-4.72244e-05
-0.000184868
-5.02895e-05
-0.000175484
-5.30006e-05
-0.00016556
-5.53067e-05
-0.000155149
-5.7159e-05
-0.000144311
-5.85123e-05
-0.000133117
-5.93274e-05
-0.000121651
-5.95735e-05
-0.000110002
-5.92299e-05
-9.82683e-05
-5.82882e-05
-8.65539e-05
-5.67535e-05
-7.4964e-05
-5.46454e-05
-6.36035e-05
-5.19973e-05
-5.25739e-05
-4.88566e-05
-4.19702e-05
-4.52821e-05
-3.18789e-05
-4.13426e-05
-2.23762e-05
-3.71139e-05
-1.35265e-05
-3.26757e-05
-5.38278e-06
-2.81097e-05
2.01351e-06
-2.34961e-05
8.63184e-06
-1.89127e-05
1.44517e-05
-1.44327e-05
1.94621e-05
-1.01236e-05
2.36611e-05
-6.04711e-06
2.70558e-05
-2.2578e-06
2.96628e-05
1.19732e-06
3.15087e-05
4.2798e-06
3.26306e-05
6.96068e-06
3.30766e-05
9.22162e-06
3.29047e-05
1.10557e-05
3.21824e-05
1.2468e-05
3.09842e-05
1.34753e-05
2.93895e-05
1.41053e-05
2.74791e-05
1.43949e-05
2.53325e-05
1.43882e-05
2.30247e-05
1.41334e-05
2.0624e-05
1.36801e-05
1.81903e-05
1.3076e-05
1.57746e-05
1.23635e-05
1.34184e-05
1.15769e-05
1.11557e-05
1.07397e-05
9.01436e-06
9.8617e-06
7.01867e-06
8.93838e-06
5.19276e-06
7.95095e-06
3.56433e-06
6.869e-06
2.16928e-06
5.65571e-06
1.05733e-06
4.27592e-06
2.99213e-07
2.70616e-06
9.53948e-07
2.85358e-07
-1.34095e-06
9.99361e-07
-3.57864e-06
2.00929e-06
-5.33334e-06
3.19344e-06
-6.56899e-06
4.44137e-06
-7.27993e-06
5.65624e-06
-7.48987e-06
6.75696e-06
-7.24949e-06
7.67952e-06
-6.62988e-06
8.37681e-06
-5.71415e-06
8.81723e-06
-4.58856e-06
8.982e-06
-3.33456e-06
8.86179e-06
-2.02223e-06
8.45295e-06
-7.05537e-07
7.75363e-06
5.80544e-07
6.76022e-06
1.82108e-06
5.4643e-06
3.02049e-06
3.85038e-06
4.20016e-06
1.89457e-06
5.3947e-06
-4.3552e-07
6.64699e-06
-3.17989e-06
8.00274e-06
-6.3842e-06
9.50517e-06
-1.00972e-05
1.11905e-05
-1.43679e-05
1.30849e-05
-1.92423e-05
1.52029e-05
-2.47611e-05
1.75473e-05
-3.09563e-05
2.01098e-05
-3.78489e-05
2.28719e-05
-4.54463e-05
2.58054e-05
-5.37394e-05
2.88731e-05
-6.27005e-05
3.20291e-05
-7.22824e-05
3.52191e-05
-8.24178e-05
3.83822e-05
-9.30205e-05
4.14527e-05
-0.000103989
4.43629e-05
-0.000115209
4.70464e-05
-0.00012656
4.94415e-05
-0.000137922
5.14942e-05
-0.000149177
5.31606e-05
-0.000160218
5.44084e-05
-0.00017095
5.52172e-05
-0.000181293
5.55781e-05
-0.000191181
5.54926e-05
-0.000200567
5.49707e-05
-0.000209412
5.40294e-05
-0.000217695
5.26902e-05
-0.0002254
5.09779e-05
-0.00023252
4.89185e-05
-0.000239053
4.65387e-05
-0.000245003
4.38646e-05
-0.000250372
4.09209e-05
-0.000255167
3.7731e-05
-0.000259391
3.43164e-05
-0.000263051
3.06969e-05
-0.000266149
2.68904e-05
-0.000268688
2.29133e-05
-0.00027067
1.87807e-05
-0.000272093
1.45068e-05
-0.000272957
1.01049e-05
-0.000273256
5.58817e-06
-0.000272987
9.69883e-07
-0.000272143
-3.73603e-06
-0.000270715
-8.51447e-06
-0.000268694
-1.33487e-05
-0.000266068
-1.82195e-05
-0.000262827
-2.31052e-05
-0.000258958
-2.79805e-05
-0.000254449
-3.28161e-05
-0.000249288
-3.75785e-05
-0.000243465
-4.22297e-05
-0.000236974
-4.67264e-05
-0.000229809
-5.1021e-05
-0.000221973
-5.5061e-05
-0.000213472
-5.87902e-05
-0.000204323
-6.21496e-05
-0.000194551
-6.50787e-05
-0.000184192
-6.75176e-05
-0.000173296
-6.94089e-05
-0.000161923
-7.07006e-05
-0.000150148
-7.13485e-05
-0.000138058
-7.13196e-05
-0.000125752
-7.05939e-05
-0.000113338
-6.91674e-05
-0.000100931
-6.70529e-05
-8.86469e-05
-6.42813e-05
-7.66029e-05
-6.09006e-05
-6.49105e-05
-5.69746e-05
-5.36726e-05
-5.25805e-05
-4.29811e-05
-4.78054e-05
-3.2914e-05
-4.27429e-05
-2.35349e-05
-3.74887e-05
-1.4893e-05
-3.2138e-05
-7.02416e-06
-2.67816e-05
4.79632e-08
-2.15048e-05
6.30982e-06
-1.63855e-05
1.17566e-05
-1.14938e-05
1.63909e-05
-6.89214e-06
2.02227e-05
-2.63451e-06
2.32693e-05
1.23324e-06
2.55558e-05
4.67418e-06
2.71162e-05
7.66115e-06
2.79942e-05
1.01778e-05
2.82427e-05
1.22195e-05
2.79238e-05
1.37942e-05
2.71073e-05
1.49218e-05
2.58681e-05
1.56341e-05
2.42838e-05
1.59724e-05
2.24319e-05
1.59853e-05
2.03864e-05
1.57256e-05
1.8216e-05
1.52464e-05
1.59821e-05
1.45974e-05
1.37382e-05
1.38208e-05
1.153e-05
1.29479e-05
9.3968e-06
1.19949e-05
7.37359e-06
1.09616e-05
5.4943e-06
9.83025e-06
3.79597e-06
8.56733e-06
2.32404e-06
7.12765e-06
1.13891e-06
5.46104e-06
3.24053e-07
3.52102e-06
1.278e-06
3.00397e-07
-1.64135e-06
1.04276e-06
-4.32101e-06
2.0777e-06
-6.36828e-06
3.26832e-06
-7.7596e-06
4.49208e-06
-8.5037e-06
5.64391e-06
-8.6417e-06
6.63836e-06
-8.24393e-06
7.41023e-06
-7.40175e-06
7.91349e-06
-6.21741e-06
8.11859e-06
-4.79366e-06
8.00865e-06
-3.22463e-06
7.5751e-06
-1.58868e-06
6.81308e-06
5.64898e-08
5.71714e-06
1.67648e-06
4.27759e-06
3.26063e-06
2.47759e-06
4.82049e-06
2.91464e-07
6.38629e-06
-2.31574e-06
8.0019e-06
-5.38737e-06
9.71862e-06
-8.97303e-06
1.15884e-05
-1.31255e-05
1.36577e-05
-1.78973e-05
1.59623e-05
-2.33368e-05
1.85244e-05
-2.94848e-05
2.13508e-05
-3.6371e-05
2.44335e-05
-4.40112e-05
2.775e-05
-5.2404e-05
3.12647e-05
-6.15286e-05
3.49301e-05
-7.13428e-05
3.86873e-05
-8.17818e-05
4.24681e-05
-9.27597e-05
4.61969e-05
-0.000104171
4.97937e-05
-0.000115897
5.31782e-05
-0.000127807
5.62736e-05
-0.000139772
5.90111e-05
-0.000151664
6.13331e-05
-0.000163365
6.31953e-05
-0.000174772
6.45679e-05
-0.000185799
6.54353e-05
-0.000196377
6.5795e-05
-0.000206454
6.56553e-05
-0.000215995
6.50332e-05
-0.000224976
6.39522e-05
-0.000233387
6.24396e-05
-0.000241221
6.05251e-05
-0.000248483
5.82392e-05
-0.000255176
5.56117e-05
-0.000261309
5.26714e-05
-0.00026689
4.94455e-05
-0.000271928
4.5959e-05
-0.000276432
4.22349e-05
-0.000280409
3.8294e-05
-0.000283867
3.41551e-05
-0.000286812
2.98349e-05
-0.000289247
2.53486e-05
-0.000291176
2.07099e-05
-0.000292601
1.59313e-05
-0.000293521
1.10245e-05
-0.000293933
6.00082e-06
-0.000293835
8.71598e-07
-0.00029322
-4.3513e-06
-0.000292079
-9.655e-06
-0.000290403
-1.5025e-05
-0.000288178
-2.04444e-05
-0.00028539
-2.58935e-05
-0.000282021
-3.13491e-05
-0.000278054
-3.67836e-05
-0.000273467
-4.21646e-05
-0.000268243
-4.74544e-05
-0.00026236
-5.26095e-05
-0.000255801
-5.75802e-05
-0.00024855
-6.23112e-05
-0.000240599
-6.67413e-05
-0.000231944
-7.08048e-05
-0.00022259
-7.44324e-05
-0.000212555
-7.75531e-05
-0.000201867
-8.00966e-05
-0.000190571
-8.19961e-05
-0.000178729
-8.31914e-05
-0.000166415
-8.36328e-05
-0.000153725
-8.32841e-05
-0.000140766
-8.21263e-05
-0.000127659
-8.016e-05
-0.000114533
-7.7407e-05
-0.000101523
-7.39113e-05
-8.87596e-05
-6.97375e-05
-7.63711e-05
-6.49689e-05
-6.4473e-05
-5.97036e-05
-5.31661e-05
-5.40498e-05
-4.25336e-05
-4.81212e-05
-3.26403e-05
-4.20313e-05
-2.35324e-05
-3.58895e-05
-1.52397e-05
-2.97975e-05
-7.77776e-06
-2.38473e-05
-1.15123e-06
-1.81204e-05
4.64393e-06
-1.26873e-05
9.61819e-06
-7.60877e-06
1.37874e-05
-2.93598e-06
1.71727e-05
1.28889e-06
1.9801e-05
5.03289e-06
2.17059e-05
8.27283e-06
2.29291e-05
1.09963e-05
2.35205e-05
1.32028e-05
2.35383e-05
1.4904e-05
2.3048e-05
1.61244e-05
2.21208e-05
1.68997e-05
2.08308e-05
1.72753e-05
1.92527e-05
1.73037e-05
1.74591e-05
1.704e-05
1.55179e-05
1.65385e-05
1.34915e-05
1.58473e-05
1.14355e-05
1.50038e-05
9.39985e-06
1.40305e-05
7.43012e-06
1.29313e-05
5.5705e-06
1.16899e-05
3.86789e-06
1.02699e-05
2.37721e-06
8.61833e-06
1.16812e-06
6.67013e-06
3.32944e-07
4.35619e-06
1.61095e-06
3.12214e-07
-1.95356e-06
1.07114e-06
-5.07994e-06
2.10982e-06
-7.40695e-06
3.27644e-06
-8.92622e-06
4.43728e-06
-9.66454e-06
5.48031e-06
-9.68474e-06
6.31714e-06
-9.08076e-06
6.88282e-06
-7.96743e-06
7.1335e-06
-6.46809e-06
7.04242e-06
-4.70258e-06
6.59483e-06
-2.77703e-06
5.78252e-06
-7.76373e-07
4.59858e-06
1.24043e-06
3.03275e-06
3.24232e-06
1.06777e-06
5.22561e-06
-1.32291e-06
7.21117e-06
-4.176e-06
9.23937e-06
-7.53758e-06
1.13635e-05
-1.14608e-05
1.36419e-05
-1.60025e-05
1.613e-05
-2.12184e-05
1.88736e-05
-2.71592e-05
2.19031e-05
-3.38656e-05
2.52308e-05
-4.13646e-05
2.88498e-05
-4.96659e-05
3.27348e-05
-5.87588e-05
3.68429e-05
-6.86098e-05
4.11157e-05
-7.91612e-05
4.54815e-05
-9.03312e-05
4.98572e-05
-0.000102015
5.41524e-05
-0.000114091
5.82729e-05
-0.000126424
6.21264e-05
-0.000138873
6.56271e-05
-0.0001513
6.87003e-05
-0.000163575
7.12864e-05
-0.000175584
7.33423e-05
-0.000187231
7.48418e-05
-0.000198438
7.57748e-05
-0.000209148
7.61454e-05
-0.000219321
7.59684e-05
-0.000228933
7.52673e-05
-0.000237971
7.40711e-05
-0.000246431
7.24124e-05
-0.000254316
7.0325e-05
-0.000261634
6.7843e-05
-0.000268394
6.49994e-05
-0.000274609
6.18257e-05
-0.000280289
5.83515e-05
-0.000285447
5.46041e-05
-0.000290097
5.06083e-05
-0.000294248
4.63868e-05
-0.000297914
4.19597e-05
-0.000301104
3.7345e-05
-0.000303828
3.25585e-05
-0.000306093
2.76144e-05
-0.000307908
2.25247e-05
-0.000309277
1.73006e-05
-0.000310205
1.19517e-05
-0.000310691
6.4873e-06
-0.000310736
9.16243e-07
-0.000310335
-4.75213e-06
-0.000309482
-1.0508e-05
-0.000308167
-1.63398e-05
-0.000306378
-2.2234e-05
-0.000304097
-2.81745e-05
-0.000301305
-3.41412e-05
-0.000297978
-4.011e-05
-0.000294091
-4.60515e-05
-0.000289615
-5.19306e-05
-0.000284519
-5.77056e-05
-0.000278771
-6.33278e-05
-0.000272341
-6.87413e-05
-0.0002652
-7.38826e-05
-0.000257323
-7.86816e-05
-0.000248693
-8.30622e-05
-0.000239302
-8.6944e-05
-0.000229155
-9.02441e-05
-0.000218271
-9.28805e-05
-0.000206687
-9.47751e-05
-0.000194462
-9.58583e-05
-0.000181673
-9.60729e-05
-0.00016842
-9.53788e-05
-0.000154823
-9.37569e-05
-0.000141018
-9.12124e-05
-0.000127152
-8.77768e-05
-0.000113382
-8.35084e-05
-9.98599e-05
-7.84906e-05
-8.67348e-05
-7.28287e-05
-7.414e-05
-6.66445e-05
-6.21905e-05
-6.00707e-05
-5.09784e-05
-5.32434e-05
-4.0572e-05
-4.6296e-05
-3.10159e-05
-3.93535e-05
-2.23343e-05
-3.2529e-05
-1.45337e-05
-2.59209e-05
-7.60816e-06
-1.96128e-05
-1.54255e-06
-1.36744e-05
3.68399e-06
-8.16252e-06
8.09614e-06
-3.12326e-06
1.17218e-05
1.40723e-06