/*--------------------------------*- C++ -*----------------------------------*\
| =========                 |                                                 |
| \\      /  F ield         | OpenFOAM: The Open Source CFD Toolbox           |
|  \\    /   O peration     | Version:  2406                                  |
|   \\  /    A nd           | Website:  www.openfoam.com                      |
|    \\/     M anipulation  |                                                 |
\*---------------------------------------------------------------------------*/
FoamFile
{
    version     2.0;
    format      ascii;
    arch        "LSB;label=32;scalar=64";
    class       volScalarField;
    location    "49.5";
    object      p;
}
// * * * * * * * * * * * * * * * * * * * * * * * * * * * * * * * * * * * * * //

dimensions      [0 2 -2 0 0 0 0];

internalField   nonuniform List<scalar> 
14400
(
-3.55081e-09
8.58739e-06
2.00392e-05
2.90216e-05
3.19779e-05
2.66381e-05
1.19286e-05
-1.22728e-05
-4.53682e-05
-8.62705e-05
-0.000133632
-0.000186057
-0.000242281
-0.000301309
-0.0003625
-0.000425608
-0.000490784
-0.000558575
-0.000629783
-0.000705446
-0.000786759
-0.000874915
-0.000971205
-0.00107686
-0.00119301
-0.00132071
-0.00146092
-0.00161454
-0.00178242
-0.00196535
-0.00216405
-0.00237916
-0.00261116
-0.00286037
-0.00312687
-0.00341043
-0.00371046
-0.00402594
-0.00435536
-0.00469667
-0.00504725
-0.00540384
-0.00576254
-0.00611884
-0.00646759
-0.00680308
-0.00711912
-0.0074091
-0.00766615
-0.00788327
-0.00805349
-0.00817007
-0.00822667
-0.00821757
-0.00813788
-0.00798375
-0.00775253
-0.00744301
-0.00705556
-0.00659232
-0.00605725
-0.0054559
-0.0047959
-0.00408818
-0.00334388
-0.00257629
-0.0018004
-0.00103241
-0.000289394
0.000411154
0.00105182
0.00161586
0.00208776
0.00245388
0.00270304
0.00282701
0.002821
0.00268389
0.00241843
0.00203114
0.00153212
0.000934587
0.000254346
-0.000490957
-0.0012826
-0.00210159
-0.00292947
-0.00374902
-0.00454479
-0.00530368
-0.00601584
-0.00667252
-0.00726843
-0.00780122
-0.00827054
-0.0086778
-0.00902601
-0.00931931
-0.00956261
-0.00976126
-0.00992075
-0.0100465
-0.0101435
-0.0102167
-0.0102702
-0.0103077
-0.0103326
-0.0103475
-0.0103546
-0.0103559
-0.0103526
-0.0103457
-0.010336
-0.0103239
-0.0103097
-0.0102938
-0.0102769
-0.0102605
-0.0102471
-0.0102396
-8.65545e-06
5.32203e-10
1.0516e-05
1.75292e-05
1.87569e-05
1.2309e-05
-2.78997e-06
-2.66709e-05
-5.88182e-05
-9.82715e-05
-0.000143827
-0.000194233
-0.000248358
-0.000305315
-0.000364542
-0.000425837
-0.000489356
-0.000555577
-0.000625264
-0.000699388
-0.000779058
-0.000865498
-0.000959862
-0.00106328
-0.00117682
-0.0013015
-0.00143827
-0.001588
-0.00175155
-0.00192973
-0.00212327
-0.00233284
-0.00255899
-0.00280208
-0.00306229
-0.00333946
-0.00363312
-0.00394239
-0.00426588
-0.00460172
-0.00494742
-0.00529989
-0.00565541
-0.00600959
-0.00635741
-0.0066933
-0.00701112
-0.00730433
-0.0075661
-0.00778941
-0.00796726
-0.00809283
-0.00815968
-0.00816199
-0.0080947
-0.0079538
-0.00773645
-0.00744127
-0.00706842
-0.00661976
-0.00609899
-0.00551216
-0.00486683
-0.00417202
-0.0034396
-0.00268304
-0.00191719
-0.00115813
-0.00042288
0.000271092
0.000906362
0.00146613
0.00193482
0.00229872
0.00254655
0.00267002
0.00266427
0.00252818
0.00226448
0.00187974
0.00138415
0.000791029
0.000116289
-0.000622314
-0.00140598
-0.00221568
-0.00303302
-0.00384087
-0.00462408
-0.00536977
-0.00606725
-0.00670941
-0.00729173
-0.00781167
-0.00826902
-0.00866557
-0.00900453
-0.00929015
-0.00952739
-0.00972157
-0.00987808
-0.0100022
-0.0100988
-0.0101725
-0.0102272
-0.0102667
-0.0102938
-0.0103113
-0.0103212
-0.0103252
-0.0103247
-0.0103206
-0.0103136
-0.0103043
-0.0102929
-0.0102798
-0.0102657
-0.0102518
-0.0102396
-0.010232
-2.04307e-05
-1.06458e-05
4.89093e-08
5.51419e-06
5.10277e-06
-2.55678e-06
-1.8255e-05
-4.20569e-05
-7.34662e-05
-0.000111598
-0.000155351
-0.000203594
-0.000255313
-0.000309733
-0.000366381
-0.000425119
-0.000486132
-0.000549892
-0.000617142
-0.000688796
-0.000765887
-0.000849511
-0.000940766
-0.00104072
-0.00115038
-0.00127072
-0.00140264
-0.00154704
-0.00170478
-0.0018767
-0.00206362
-0.00226628
-0.00248535
-0.00272134
-0.00297456
-0.00324508
-0.0035326
-0.00383647
-0.00415555
-0.00448818
-0.00483209
-0.00518439
-0.0055415
-0.00589918
-0.00625249
-0.00659585
-0.00692311
-0.00722766
-0.0075025
-0.00774047
-0.00793434
-0.00807708
-0.008162
-0.00818304
-0.0081349
-0.00801333
-0.00781528
-0.00753914
-0.00718489
-0.00675423
-0.00625056
-0.00567939
-0.00504895
-0.00436829
-0.00364857
-0.00290303
-0.00214648
-0.00139501
-0.000665615
2.42049e-05
0.000656958
0.00121574
0.00168483
0.00205033
0.00230079
0.0024277
0.00242601
0.00229446
0.00203567
0.00165619
0.00116622
0.000579166
-8.89013e-05
-0.000820047
-0.00159527
-0.00239539
-0.00320181
-0.00399736
-0.00476683
-0.0054974
-0.00617896
-0.00680461
-0.00736994
-0.00787276
-0.00831338
-0.00869401
-0.00901823
-0.00929063
-0.00951639
-0.00970095
-0.00984975
-0.009968
-0.0100605
-0.0101317
-0.0101853
-0.0102247
-0.0102527
-0.0102718
-0.0102837
-0.0102901
-0.0102923
-0.010291
-0.0102871
-0.0102808
-0.0102726
-0.0102628
-0.0102516
-0.0102399
-0.0102277
-0.0102186
-3.06723e-05
-1.85295e-05
-5.73924e-06
-3.46247e-08
-8.95743e-07
-9.27187e-06
-2.5708e-05
-5.00714e-05
-8.17205e-05
-0.000119672
-0.000162767
-0.000209852
-0.000259929
-0.000312265
-0.000366449
-0.00042241
-0.00048041
-0.000540982
-0.000604899
-0.000673097
-0.000746609
-0.000826507
-0.000913857
-0.00100969
-0.00111497
-0.00123065
-0.00135763
-0.00149684
-0.0016492
-0.00181567
-0.00199722
-0.00219479
-0.00240926
-0.0026414
-0.00289181
-0.00316085
-0.00344853
-0.00375447
-0.0040778
-0.00441708
-0.0047702
-0.00513434
-0.00550592
-0.00588059
-0.00625321
-0.00661795
-0.00696831
-0.00729728
-0.00759745
-0.00786123
-0.00808099
-0.00824931
-0.00835919
-0.00840425
-0.00837898
-0.00827893
-0.00810091
-0.00784319
-0.00750564
-0.00708996
-0.00659964
-0.00603973
-0.00541805
-0.00474418
-0.0040293
-0.00328644
-0.00253031
-0.00177699
-0.00104352
-0.000347504
0.000293406
0.000862055
0.00134242
0.00172022
0.00198357
0.00212354
0.00213464
0.00201521
0.00176755
0.00139797
0.00091658
0.000336828
-0.00032507
-0.00105089
-0.00182127
-0.00261657
-0.00341777
-0.00420724
-0.00496938
-0.00569117
-0.00636246
-0.00697603
-0.00752724
-0.00801449
-0.00843852
-0.00880188
-0.00910861
-0.00936378
-0.00957306
-0.00974232
-0.00987731
-0.00998347
-0.0100657
-0.0101285
-0.0101755
-0.01021
-0.0102346
-0.0102514
-0.0102622
-0.0102684
-0.010271
-0.0102708
-0.0102683
-0.0102638
-0.0102576
-0.0102496
-0.0102399
-0.0102286
-0.0102145
-0.0102029
-3.67415e-05
-2.22655e-05
-7.2069e-06
-9.01347e-07
-2.05036e-06
-1.12841e-05
-2.88796e-05
-5.44322e-05
-8.70558e-05
-0.000125566
-0.00016865
-0.000215061
-0.000263766
-0.000314049
-0.000365562
-0.000418328
-0.000472708
-0.000529351
-0.000589119
-0.000653023
-0.000722146
-0.000797586
-0.000880411
-0.000971644
-0.00107226
-0.00118322
-0.0013055
-0.00144013
-0.0015882
-0.00175091
-0.00192949
-0.00212522
-0.00233937
-0.0025731
-0.00282741
-0.00310305
-0.00340039
-0.00371933
-0.00405921
-0.00441863
-0.00479546
-0.00518667
-0.00558836
-0.00599571
-0.00640305
-0.00680392
-0.00719121
-0.00755727
-0.00789413
-0.00819367
-0.00844784
-0.00864889
-0.00878956
-0.00886334
-0.00886459
-0.00878885
-0.00863291
-0.00839505
-0.00807515
-0.00767482
-0.00719743
-0.00664855
-0.00603533
-0.00536709
-0.00465502
-0.00391206
-0.00315275
-0.00239302
-0.00164985
-0.000940869
-0.000283856
0.000303793
0.000805685
0.00120707
0.00149546
0.00166126
0.0016983
0.0016042
0.00138063
0.00103336
0.000572091
1.00365e-05
-0.000636632
-0.00134956
-0.00210909
-0.00289515
-0.0036882
-0.00447004
-0.00522452
-0.00593805
-0.00659998
-0.00720267
-0.00774149
-0.00821469
-0.00862301
-0.00896922
-0.00925772
-0.00949403
-0.00968431
-0.00983495
-0.0099522
-0.0100419
-0.0101094
-0.0101591
-0.0101951
-0.0102204
-0.0102377
-0.010249
-0.0102557
-0.0102591
-0.0102601
-0.0102592
-0.0102567
-0.0102528
-0.0102474
-0.0102402
-0.0102311
-0.0102196
-0.010203
-0.0101888
-3.7019e-05
-2.05774e-05
-3.61802e-06
3.1056e-06
1.39684e-06
-9.13124e-06
-2.84736e-05
-5.58973e-05
-9.01954e-05
-0.000129904
-0.000173495
-0.000219577
-0.000267058
-0.000315235
-0.000363837
-0.000413007
-0.000463253
-0.000515374
-0.00057038
-0.000629403
-0.000693624
-0.000764213
-0.000842296
-0.000928949
-0.00102523
-0.00113221
-0.00125104
-0.00138301
-0.00152953
-0.00169219
-0.00187268
-0.00207279
-0.0022943
-0.00253888
-0.00280802
-0.00310283
-0.00342396
-0.00377143
-0.00414448
-0.00454147
-0.00495979
-0.00539581
-0.00584486
-0.0063013
-0.00675859
-0.00720946
-0.00764599
-0.00805991
-0.00844268
-0.00878579
-0.00908093
-0.00932021
-0.00949631
-0.00960275
-0.009634
-0.00958568
-0.00945468
-0.00923937
-0.00893966
-0.00855711
-0.00809503
-0.00755874
-0.0069553
-0.00629364
-0.00558461
-0.00484078
-0.00407638
-0.00330702
-0.00254946
-0.00182119
-0.00114001
-0.000523498
1.15811e-05
0.000449913
0.000778284
0.000986211
0.00106651
0.00101575
0.000834579
0.000527798
0.000104284
-0.000423361
-0.00103936
-0.00172552
-0.00246207
-0.00322867
-0.00400531
-0.00477318
-0.00551548
-0.00621795
-0.00686924
-0.00746115
-0.00798856
-0.0084493
-0.00884382
-0.00917482
-0.00944675
-0.00966533
-0.00983704
-0.00996871
-0.0100671
-0.0101385
-0.0101886
-0.0102225
-0.0102443
-0.0102572
-0.010264
-0.0102667
-0.0102666
-0.0102647
-0.0102618
-0.0102583
-0.0102542
-0.0102494
-0.0102437
-0.0102366
-0.0102273
-0.010215
-0.0101962
-0.0101795
-3.05007e-05
-1.25493e-05
5.74656e-06
1.24176e-05
9.61363e-06
-2.83819e-06
-2.4625e-05
-5.46334e-05
-9.12738e-05
-0.000132746
-0.000177263
-0.000223272
-0.000269613
-0.000315614
-0.000361104
-0.000406382
-0.000452142
-0.000499382
-0.000549303
-0.00060321
-0.000662438
-0.000728293
-0.000802039
-0.00088491
-0.000978166
-0.00108315
-0.00120138
-0.00133457
-0.00148467
-0.00165387
-0.00184449
-0.00205897
-0.00229968
-0.00256883
-0.00286826
-0.00319929
-0.0035625
-0.00395762
-0.00438337
-0.00483732
-0.00531595
-0.00581457
-0.00632742
-0.00684781
-0.00736823
-0.00788055
-0.00837619
-0.00884636
-0.00928221
-0.00967505
-0.0100165
-0.0102988
-0.0105148
-0.0106581
-0.0107235
-0.0107066
-0.0106047
-0.0104161
-0.0101407
-0.00977999
-0.00933718
-0.00881716
-0.00822664
-0.00757412
-0.00686989
-0.00612596
-0.00535595
-0.00457496
-0.00379927
-0.00304604
-0.00233291
-0.00167752
-0.00109692
-0.00060702
-0.000221859
4.69919e-05
0.000191058
0.000205482
8.94092e-05
-0.00015381
-0.000516641
-0.000987617
-0.00155183
-0.00219165
-0.00288755
-0.00361912
-0.00436604
-0.00510898
-0.00583045
-0.00651542
-0.00715177
-0.00773048
-0.00824571
-0.00869461
-0.00907707
-0.00939534
-0.00965359
-0.00985738
-0.0100132
-0.0101282
-0.0102092
-0.0102631
-0.010296
-0.0103133
-0.0103196
-0.0103185
-0.0103129
-0.0103047
-0.0102956
-0.0102864
-0.0102777
-0.0102697
-0.0102624
-0.0102555
-0.0102483
-0.0102402
-0.0102302
-0.0102171
-0.0101962
-0.0101776
-1.63801e-05
2.6004e-06
2.15746e-05
2.75415e-05
2.29333e-05
7.80547e-06
-1.71795e-05
-5.04761e-05
-9.00627e-05
-0.000133768
-0.00017953
-0.000225636
-0.000270884
-0.000314658
-0.000356928
-0.000398188
-0.000439364
-0.000481697
-0.000526626
-0.000575691
-0.000630449
-0.000692439
-0.000763183
-0.000844229
-0.000937227
-0.00104401
-0.00116668
-0.00130763
-0.00146957
-0.00165544
-0.00186834
-0.00211136
-0.00238741
-0.00269899
-0.00304799
-0.00343545
-0.00386142
-0.00432476
-0.00482311
-0.00535284
-0.0059091
-0.00648593
-0.00707638
-0.0076727
-0.00826655
-0.00884913
-0.00941144
-0.00994441
-0.0104391
-0.0108869
-0.0112797
-0.0116097
-0.0118702
-0.0120551
-0.0121593
-0.0121789
-0.012111
-0.0119542
-0.0117083
-0.0113747
-0.0109562
-0.0104573
-0.00988422
-0.00924483
-0.00854867
-0.00780696
-0.00703251
-0.0062396
-0.00544378
-0.0046616
-0.00391028
-0.00320729
-0.00256984
-0.00201428
-0.00155551
-0.00120628
-0.000976596
-0.000873083
-0.000898548
-0.00105165
-0.0013268
-0.0017143
-0.00220073
-0.00276957
-0.00340202
-0.00407797
-0.00477702
-0.00547947
-0.00616717
-0.0068243
-0.00743782
-0.00799778
-0.0084974
-0.00893295
-0.0093035
-0.00961057
-0.0098577
-0.01005
-0.0101937
-0.0102955
-0.0103627
-0.010402
-0.0104199
-0.0104223
-0.0104139
-0.0103989
-0.0103804
-0.0103607
-0.0103414
-0.0103236
-0.0103077
-0.0102939
-0.0102821
-0.0102718
-0.0102622
-0.0102525
-0.0102413
-0.0102271
-0.0102048
-0.0101848
6.2006e-06
2.57233e-05
4.46729e-05
4.91809e-05
4.19614e-05
2.33462e-05
-5.59615e-06
-4.2838e-05
-8.58905e-05
-0.000132198
-0.000179434
-0.000225755
-0.000269959
-0.000311536
-0.000350645
-0.000388024
-0.000424876
-0.000462735
-0.000503342
-0.000548543
-0.000600223
-0.000660289
-0.000730696
-0.000813518
-0.000911041
-0.00102585
-0.00116089
-0.00131945
-0.00150516
-0.0017218
-0.00197318
-0.00226287
-0.00259397
-0.00296882
-0.0033888
-0.00385409
-0.00436358
-0.00491476
-0.00550379
-0.00612554
-0.00677373
-0.00744114
-0.00811976
-0.00880101
-0.00947591
-0.0101353
-0.0107699
-0.0113708
-0.011929
-0.0124361
-0.0128843
-0.0132663
-0.0135755
-0.0138063
-0.0139539
-0.0140145
-0.0139855
-0.0138656
-0.0136543
-0.013353
-0.0129641
-0.0124918
-0.0119415
-0.0113204
-0.010637
-0.00990167
-0.00912608
-0.00832346
-0.0075083
-0.00669622
-0.00590369
-0.00514766
-0.00444517
-0.00381281
-0.00326613
-0.00281903
-0.0024831
-0.00226698
-0.00217579
-0.00221074
-0.00236882
-0.00264284
-0.0030216
-0.00349045
-0.00403196
-0.0046269
-0.00525519
-0.00589699
-0.00653366
-0.00714855
-0.00772765
-0.00825992
-0.00873746
-0.00915545
-0.00951191
-0.00980739
-0.0100446
-0.0102277
-0.0103625
-0.0104551
-0.0105125
-0.0105413
-0.0105479
-0.0105385
-0.010518
-0.010491
-0.0104608
-0.0104301
-0.0104008
-0.010374
-0.0103504
-0.0103301
-0.010313
-0.0102985
-0.0102859
-0.010274
-0.0102613
-0.0102462
-0.010223
-0.0102024
3.8277e-05
5.7843e-05
7.60345e-05
7.82774e-05
6.76007e-05
4.46824e-05
1.1062e-05
-3.07058e-05
-7.76469e-05
-0.000126832
-0.000175708
-0.000222356
-0.000265633
-0.0003052
-0.000341463
-0.000375463
-0.000408735
-0.000443171
-0.000480893
-0.000524163
-0.000575338
-0.00063688
-0.000711411
-0.000801796
-0.000911234
-0.00104332
-0.00120206
-0.00139179
-0.00161704
-0.00188232
-0.00219183
-0.00254919
-0.00295711
-0.00341716
-0.00392953
-0.00449296
-0.00510471
-0.00576057
-0.00645506
-0.00718152
-0.00793239
-0.00869935
-0.00947358
-0.0102459
-0.011007
-0.0117474
-0.0124581
-0.01313
-0.0137546
-0.0143237
-0.0148299
-0.0152663
-0.0156269
-0.0159062
-0.0161
-0.0162047
-0.0162181
-0.0161387
-0.0159662
-0.0157016
-0.0153474
-0.0149069
-0.014385
-0.0137879
-0.0131232
-0.0124001
-0.0116291
-0.0108219
-0.00999167
-0.00915283
-0.00832064
-0.00751112
-0.0067407
-0.00602575
-0.00538214
-0.00482461
-0.00436618
-0.00401748
-0.00378617
-0.00367634
-0.00368817
-0.00381767
-0.00405676
-0.00439351
-0.00481278
-0.00529698
-0.00582702
-0.00638344
-0.00694735
-0.00750143
-0.00803066
-0.00852276
-0.00896854
-0.00936183
-0.00969939
-0.00998054
-0.0102068
-0.0103815
-0.0105093
-0.0105958
-0.010647
-0.0106693
-0.0106689
-0.0106517
-0.0106228
-0.0105867
-0.0105474
-0.0105075
-0.0104694
-0.0104344
-0.0104034
-0.0103766
-0.010354
-0.0103352
-0.0103191
-0.0103047
-0.0102905
-0.0102746
-0.0102511
-0.0102306
8.11059e-05
0.000100183
0.000116844
0.000115993
0.000101016
7.30182e-05
3.40747e-05
-1.27007e-05
-6.38529e-05
-0.000116117
-0.000166775
-0.00021391
-0.00025652
-0.000294511
-0.000328608
-0.00036022
-0.000391291
-0.000424156
-0.000461432
-0.000505951
-0.000560738
-0.000629054
-0.000714458
-0.00082089
-0.000952722
-0.00111476
-0.00131214
-0.00155019
-0.00183412
-0.00216876
-0.00255818
-0.00300537
-0.00351196
-0.00407808
-0.0047022
-0.0053812
-0.00611047
-0.00688403
-0.00769482
-0.00853485
-0.00939544
-0.0102675
-0.0111415
-0.0120079
-0.0128573
-0.0136803
-0.0144678
-0.0152111
-0.0159021
-0.016533
-0.0170969
-0.0175875
-0.0179992
-0.0183271
-0.0185674
-0.0187171
-0.0187739
-0.0187368
-0.0186055
-0.018381
-0.018065
-0.0176608
-0.0171724
-0.0166053
-0.015966
-0.0152624
-0.0145034
-0.0136995
-0.0128622
-0.0120041
-0.0111391
-0.0102816
-0.00944706
-0.00865103
-0.00790909
-0.00723631
-0.00664667
-0.00615248
-0.00576376
-0.00548762
-0.00532771
-0.00528385
-0.00535184
-0.0055235
-0.00578699
-0.00612744
-0.00652773
-0.00696953
-0.00743436
-0.00790456
-0.00836422
-0.00879981
-0.00920065
-0.00955899
-0.00987002
-0.0101316
-0.0103438
-0.0105086
-0.0106297
-0.0107114
-0.010759
-0.0107782
-0.0107745
-0.0107534
-0.0107199
-0.0106786
-0.0106333
-0.0105871
-0.0105423
-0.0105008
-0.0104635
-0.010431
-0.0104034
-0.0103803
-0.010361
-0.0103442
-0.0103285
-0.010312
-0.010289
-0.0102691
0.000136156
0.000154157
0.000168469
0.000163692
0.000143611
0.000109833
6.5026e-05
1.28725e-05
-4.27221e-05
-9.82234e-05
-0.000150837
-0.000198746
-0.000241181
-0.000278384
-0.000311483
-0.000342339
-0.000373401
-0.00040757
-0.000448119
-0.00049865
-0.000563104
-0.000645815
-0.000751558
-0.000885589
-0.00105362
-0.00126168
-0.00151593
-0.00182236
-0.00218638
-0.00261249
-0.00310389
-0.00366225
-0.00428748
-0.00497772
-0.00572942
-0.00653742
-0.00739524
-0.00829526
-0.00922901
-0.0101874
-0.0111608
-0.0121395
-0.0131137
-0.0140737
-0.0150098
-0.015913
-0.0167744
-0.0175858
-0.0183396
-0.0190285
-0.0196464
-0.0201875
-0.0206468
-0.0210204
-0.0213047
-0.0214972
-0.0215963
-0.0216009
-0.021511
-0.0213276
-0.0210521
-0.0206873
-0.0202367
-0.019705
-0.0190975
-0.018421
-0.017683
-0.0168921
-0.0160583
-0.0151922
-0.0143058
-0.0134118
-0.0125239
-0.0116562
-0.0108234
-0.0100401
-0.0093205
-0.00867794
-0.00812425
-0.00766919
-0.00731982
-0.00707999
-0.00694992
-0.00692598
-0.00700074
-0.00716324
-0.00739962
-0.00769387
-0.00802888
-0.00838742
-0.00875315
-0.00911149
-0.00945021
-0.00975979
-0.0100335
-0.0102674
-0.0104599
-0.0106113
-0.0107238
-0.0108006
-0.0108457
-0.0108637
-0.0108596
-0.010838
-0.0108036
-0.0107606
-0.0107128
-0.0106633
-0.0106147
-0.0105689
-0.0105272
-0.0104904
-0.0104588
-0.0104323
-0.0104101
-0.0103913
-0.0103745
-0.0103576
-0.0103356
-0.010317
0.000205057
0.000221331
0.000232421
0.00022291
0.000196989
0.00015684
0.000105751
4.79589e-05
-1.22446e-05
-7.11501e-05
-0.000125999
-0.000175183
-0.000218281
-0.000255965
-0.000289866
-0.000322409
-0.000356677
-0.000396306
-0.000445427
-0.000508662
-0.00059114
-0.000698534
-0.000837057
-0.00101341
-0.0012346
-0.0015077
-0.00183949
-0.00223602
-0.00270221
-0.00324145
-0.00385538
-0.00454366
-0.00530406
-0.00613247
-0.00702316
-0.00796903
-0.00896184
-0.00999252
-0.0110514
-0.0121284
-0.0132134
-0.0142961
-0.0153665
-0.0164149
-0.0174319
-0.0184088
-0.0193371
-0.0202093
-0.0210183
-0.0217579
-0.0224226
-0.0230074
-0.0235081
-0.0239215
-0.0242447
-0.0244757
-0.0246134
-0.024657
-0.0246067
-0.0244635
-0.0242287
-0.0239048
-0.0234947
-0.0230024
-0.0224323
-0.0217898
-0.0210813
-0.0203138
-0.0194953
-0.0186346
-0.0177416
-0.0168268
-0.0159018
-0.0149789
-0.014071
-0.0131915
-0.0123539
-0.0115717
-0.0108575
-0.010223
-0.00967794
-0.00922995
-0.00888367
-0.00864047
-0.00849812
-0.00845077
-0.00848913
-0.00860104
-0.00877216
-0.00898693
-0.00922956
-0.009485
-0.00973978
-0.00998259
-0.0102046
-0.0103997
-0.010564
-0.0106961
-0.0107961
-0.0108658
-0.0109077
-0.0109252
-0.0109222
-0.0109025
-0.01087
-0.0108286
-0.0107816
-0.010732
-0.0106825
-0.0106351
-0.0105912
-0.0105519
-0.0105178
-0.0104889
-0.0104648
-0.0104446
-0.0104271
-0.0104104
-0.0103899
-0.010373
0.000289531
0.000303352
0.000310304
0.000295293
0.000262902
0.000215919
0.00015826
9.46601e-05
2.97015e-05
-3.28525e-05
-9.04087e-05
-0.000141698
-0.000186759
-0.000226816
-0.00026412
-0.000301801
-0.000343748
-0.00039454
-0.000459416
-0.000544282
-0.000655709
-0.000800906
-0.000987609
-0.00122387
-0.00151775
-0.00187687
-0.00230796
-0.00281639
-0.00340576
-0.00407766
-0.0048315
-0.00566461
-0.0065723
-0.00754819
-0.00858446
-0.00967216
-0.0108015
-0.0119621
-0.0131434
-0.0143346
-0.015525
-0.0167042
-0.0178622
-0.0189896
-0.0200773
-0.0211172
-0.0221017
-0.0230239
-0.0238778
-0.0246579
-0.0253597
-0.0259791
-0.0265129
-0.0269583
-0.0273135
-0.0275769
-0.0277478
-0.027826
-0.0278118
-0.0277062
-0.0275107
-0.0272272
-0.0268585
-0.0264077
-0.0258787
-0.0252758
-0.024604
-0.023869
-0.023077
-0.0222351
-0.0213509
-0.0204329
-0.0194902
-0.018533
-0.0175718
-0.0166182
-0.0156841
-0.0147819
-0.013924
-0.0131227
-0.0123896
-0.0117348
-0.011167
-0.0106922
-0.0103137
-0.0100313
-0.0098417
-0.00973793
-0.00971018
-0.00974626
-0.00983245
-0.00995444
-0.0100983
-0.0102514
-0.0104028
-0.0105439
-0.0106685
-0.0107725
-0.010854
-0.0109124
-0.0109487
-0.0109648
-0.0109631
-0.0109465
-0.0109179
-0.0108804
-0.0108369
-0.0107902
-0.0107426
-0.0106962
-0.0106526
-0.0106129
-0.0105781
-0.0105483
-0.0105233
-0.0105026
-0.010485
-0.010469
-0.0104504
-0.0104354
0.000391284
0.000401866
0.000403733
0.000382533
0.000343166
0.000289031
0.000224632
0.000155109
8.52075e-05
1.85976e-05
-4.24376e-05
-9.71048e-05
-0.000146034
-0.000191132
-0.000235422
-0.000282911
-0.000338506
-0.000407974
-0.000497922
-0.000615779
-0.000769731
-0.00096857
-0.00122143
-0.00153739
-0.00192499
-0.00239171
-0.0029434
-0.00358394
-0.00431488
-0.00513541
-0.00604236
-0.00703048
-0.00809264
-0.00922022
-0.0104035
-0.0116318
-0.012894
-0.0141788
-0.0154747
-0.0167706
-0.0180555
-0.0193193
-0.0205521
-0.0217451
-0.02289
-0.0239794
-0.0250068
-0.0259662
-0.0268526
-0.0276616
-0.0283896
-0.0290336
-0.029591
-0.0300601
-0.0304395
-0.0307283
-0.0309264
-0.0310338
-0.0310511
-0.0309794
-0.0308201
-0.0305752
-0.0302469
-0.029838
-0.0293516
-0.0287913
-0.0281611
-0.0274654
-0.0267089
-0.0258972
-0.0250358
-0.0241312
-0.0231904
-0.0222209
-0.0212309
-0.0202294
-0.0192262
-0.0182317
-0.017257
-0.0163137
-0.0154135
-0.0145681
-0.0137885
-0.0130845
-0.0124642
-0.0119333
-0.0114947
-0.011148
-0.0108894
-0.010712
-0.0106062
-0.0105603
-0.0105614
-0.0105964
-0.010653
-0.0107204
-0.0107895
-0.0108534
-0.0109072
-0.0109481
-0.0109747
-0.0109868
-0.0109853
-0.0109716
-0.0109477
-0.0109157
-0.0108778
-0.0108362
-0.010793
-0.0107501
-0.0107091
-0.0106713
-0.0106376
-0.0106085
-0.0105841
-0.0105638
-0.0105469
-0.010532
-0.0105156
-0.0105027
0.000511895
0.000518401
0.000514234
0.000486257
0.000439556
0.000378092
0.000306875
0.000231313
0.000156158
8.48231e-05
1.9125e-05
-4.07654e-05
-9.62148e-05
-0.000149966
-0.000205992
-0.000269389
-0.000346321
-0.000443993
-0.000570604
-0.000735262
-0.000947785
-0.00121838
-0.0015572
-0.00197374
-0.00247628
-0.00307128
-0.0037629
-0.00455276
-0.00543981
-0.00642047
-0.00748882
-0.00863699
-0.0098555
-0.0111337
-0.01246
-0.0138224
-0.0152087
-0.0166068
-0.0180049
-0.0193916
-0.0207562
-0.022089
-0.0233808
-0.0246237
-0.0258103
-0.0269343
-0.0279902
-0.0289733
-0.0298797
-0.0307059
-0.0314495
-0.0321081
-0.0326803
-0.0331648
-0.033561
-0.0338686
-0.0340877
-0.0342188
-0.0342627
-0.0342205
-0.0340937
-0.0338841
-0.0335938
-0.0332252
-0.032781
-0.032264
-0.0316774
-0.0310248
-0.0303097
-0.0295362
-0.0287083
-0.0278308
-0.0269084
-0.0259464
-0.0249508
-0.0239279
-0.0228849
-0.0218297
-0.020771
-0.0197187
-0.0186833
-0.0176761
-0.0167089
-0.0157938
-0.0149421
-0.0141643
-0.0134694
-0.0128636
-0.0123502
-0.0119294
-0.0115975
-0.0113476
-0.0111704
-0.0110541
-0.0109863
-0.0109546
-0.0109475
-0.0109548
-0.0109687
-0.0109828
-0.0109931
-0.0109969
-0.010993
-0.0109811
-0.0109617
-0.0109357
-0.0109046
-0.0108699
-0.0108331
-0.0107959
-0.0107596
-0.0107257
-0.0106951
-0.0106683
-0.0106457
-0.0106269
-0.0106115
-0.0105981
-0.0105841
-0.0105734
0.000652668
0.000654241
0.000643118
0.000607902
0.000553664
0.000484818
0.000406745
0.000324958
0.000244023
0.000166926
9.48489e-05
2.71843e-05
-3.83315e-05
-0.000105457
-0.000179319
-0.000266336
-0.000374172
-0.00051168
-0.000688792
-0.000916286
-0.00120542
-0.00156739
-0.00201273
-0.00255057
-0.00318803
-0.00392969
-0.00477727
-0.00572959
-0.00678265
-0.0079299
-0.00916267
-0.0104706
-0.011842
-0.0132643
-0.0147246
-0.0162096
-0.0177066
-0.0192029
-0.0206867
-0.022147
-0.0235739
-0.0249582
-0.0262919
-0.0275681
-0.0287806
-0.0299244
-0.0309953
-0.0319895
-0.0329044
-0.0337375
-0.0344871
-0.035152
-0.0357312
-0.0362242
-0.0366309
-0.0369514
-0.0371862
-0.0373359
-0.0374016
-0.0373845
-0.0372861
-0.0371082
-0.0368525
-0.0365214
-0.036117
-0.0356418
-0.0350985
-0.0344897
-0.0338183
-0.0330872
-0.0322994
-0.0314579
-0.0305661
-0.0296272
-0.0286451
-0.0276238
-0.0265677
-0.0254823
-0.0243734
-0.0232483
-0.0221153
-0.0209838
-0.0198647
-0.0187701
-0.0177129
-0.0167066
-0.0157644
-0.0148986
-0.0141196
-0.013435
-0.0128491
-0.0123622
-0.0119704
-0.0116664
-0.0114396
-0.0112778
-0.011168
-0.0110973
-0.0110541
-0.0110288
-0.0110136
-0.0110027
-0.0109921
-0.0109793
-0.0109631
-0.0109429
-0.010919
-0.0108921
-0.0108631
-0.0108332
-0.0108036
-0.0107754
-0.0107495
-0.0107267
-0.0107072
-0.0106911
-0.0106777
-0.0106664
-0.0106548
-0.0106461
0.000814463
0.00081028
0.000791348
0.000748554
0.000686728
0.000610535
0.00052555
0.000437187
0.000349633
0.000265254
0.00018443
0.000105604
2.54394e-05
-6.10391e-05
-0.000160336
-0.000280421
-0.000430659
-0.000621677
-0.000865116
-0.00117321
-0.00155822
-0.00203167
-0.00260364
-0.00328199
-0.0040718
-0.00497502
-0.0059904
-0.00711357
-0.00833741
-0.00965243
-0.0110473
-0.0125093
-0.0140249
-0.01558
-0.0171604
-0.0187524
-0.0203427
-0.021919
-0.02347
-0.0249853
-0.0264559
-0.027874
-0.0292327
-0.0305265
-0.0317506
-0.0329011
-0.0339751
-0.03497
-0.0358839
-0.0367156
-0.037464
-0.0381286
-0.038709
-0.0392052
-0.0396175
-0.0399464
-0.0401925
-0.0403568
-0.0404402
-0.0404443
-0.0403703
-0.0402201
-0.0399953
-0.0396979
-0.0393299
-0.0388936
-0.038391
-0.0378244
-0.0371961
-0.0365081
-0.0357626
-0.0349617
-0.0341074
-0.0332016
-0.0322464
-0.0312438
-0.0301962
-0.0291063
-0.0279774
-0.0268139
-0.025621
-0.0244056
-0.0231761
-0.0219429
-0.0207184
-0.0195164
-0.0183525
-0.0172429
-0.0162038
-0.01525
-0.0143939
-0.0136445
-0.013006
-0.0124779
-0.0120549
-0.0117273
-0.0114825
-0.0113061
-0.0111837
-0.0111016
-0.0110479
-0.011013
-0.0109894
-0.0109716
-0.0109561
-0.0109404
-0.0109234
-0.0109046
-0.0108843
-0.010863
-0.0108414
-0.0108204
-0.0108008
-0.0107833
-0.0107682
-0.0107556
-0.0107451
-0.0107361
-0.0107269
-0.01072
0.000997577
0.000986805
0.000959343
0.00090878
0.000839428
0.000755958
0.000663906
0.000568366
0.000472933
0.000379164
0.000286456
0.000192129
9.15724e-05
-2.16134e-05
-0.000155529
-0.000319887
-0.000525863
-0.000785834
-0.00111293
-0.00152038
-0.00202077
-0.00262512
-0.00334214
-0.00417751
-0.00513352
-0.00620894
-0.00739914
-0.00869644
-0.0100906
-0.0115693
-0.0131188
-0.0147243
-0.0163708
-0.0180429
-0.0197261
-0.0214063
-0.0230707
-0.0247073
-0.026306
-0.0278576
-0.0293543
-0.0307897
-0.0321585
-0.0334565
-0.0346801
-0.0358269
-0.0368948
-0.0378824
-0.0387887
-0.0396131
-0.0403553
-0.0410152
-0.041593
-0.0420889
-0.0425036
-0.0428377
-0.0430921
-0.0432677
-0.0433658
-0.0433876
-0.0433345
-0.0432083
-0.0430105
-0.0427429
-0.0424074
-0.0420059
-0.0415403
-0.0410124
-0.0404242
-0.0397772
-0.0390731
-0.0383133
-0.0374988
-0.0366307
-0.0357098
-0.0347368
-0.0337122
-0.0326368
-0.0315115
-0.030338
-0.0291187
-0.0278572
-0.0265588
-0.025231
-0.0238836
-0.0225289
-0.0211822
-0.0198609
-0.0185846
-0.0173733
-0.0162468
-0.0152227
-0.0143147
-0.0135316
-0.0128761
-0.0123445
-0.0119278
-0.0116124
-0.0113823
-0.0112205
-0.0111108
-0.0110391
-0.0109934
-0.0109645
-0.0109457
-0.0109322
-0.0109209
-0.0109101
-0.0108987
-0.0108866
-0.010874
-0.0108613
-0.0108493
-0.0108382
-0.0108286
-0.0108203
-0.0108132
-0.0108068
-0.0107999
-0.0107945
0.00120167
0.00118327
0.00114666
0.00108848
0.0010117
0.000920963
0.000821505
0.000717835
0.000612745
0.000506788
0.000398197
0.000282972
0.000155037
6.35731e-06
-0.000172941
-0.000394418
-0.000671035
-0.00101669
-0.00144555
-0.00197119
-0.00260564
-0.0033585
-0.0042362
-0.00524147
-0.00637323
-0.00762668
-0.00899368
-0.0104632
-0.0120221
-0.0136555
-0.0153474
-0.0170816
-0.0188419
-0.0206125
-0.0223788
-0.0241271
-0.0258454
-0.027523
-0.029151
-0.0307217
-0.032229
-0.0336679
-0.0350346
-0.0363261
-0.0375404
-0.0386758
-0.0397314
-0.0407067
-0.0416012
-0.0424149
-0.0431481
-0.043801
-0.044374
-0.0448678
-0.0452831
-0.0456206
-0.0458812
-0.0460661
-0.0461764
-0.0462133
-0.0461782
-0.0460727
-0.0458983
-0.0456566
-0.0453495
-0.0449785
-0.0445455
-0.044052
-0.0434997
-0.0428899
-0.0422238
-0.0415025
-0.0407266
-0.0398965
-0.0390123
-0.0380736
-0.03708
-0.0360308
-0.034925
-0.0337623
-0.0325424
-0.031266
-0.0299353
-0.028554
-0.0271284
-0.0256678
-0.0241847
-0.0226953
-0.0212193
-0.0197794
-0.0184001
-0.0171061
-0.0159204
-0.014862
-0.0139441
-0.0131724
-0.012545
-0.0120527
-0.0116805
-0.0114098
-0.0112209
-0.0110947
-0.0110143
-0.0109656
-0.0109378
-0.010923
-0.0109154
-0.0109113
-0.0109086
-0.0109059
-0.0109029
-0.0108994
-0.0108958
-0.0108921
-0.0108887
-0.0108855
-0.0108823
-0.0108787
-0.0108737
-0.0108696
0.00142504
0.00139851
0.00135218
0.00128644
0.00120244
0.00110436
0.000996876
0.000883685
0.000766553
0.000644841
0.000515422
0.000372793
0.000209215
1.48523e-05
-0.000222045
-0.000514858
-0.000878121
-0.00132682
-0.0018755
-0.00253721
-0.00332252
-0.0042387
-0.00528907
-0.00647284
-0.00778518
-0.00921756
-0.0107583
-0.0123934
-0.0141067
-0.0158813
-0.0176998
-0.0195446
-0.0213992
-0.0232481
-0.025077
-0.0268734
-0.0286266
-0.0303275
-0.0319686
-0.0335441
-0.0350494
-0.036481
-0.0378366
-0.0391144
-0.0403133
-0.0414329
-0.0424727
-0.0434329
-0.0443138
-0.0451155
-0.0458387
-0.0464839
-0.0470516
-0.0475427
-0.0479578
-0.0482978
-0.0485638
-0.0487566
-0.0488773
-0.0489274
-0.0489079
-0.0488203
-0.0486662
-0.048447
-0.0481643
-0.0478196
-0.0474147
-0.0469509
-0.0464297
-0.0458522
-0.0452196
-0.0445326
-0.0437917
-0.0429969
-0.0421478
-0.0412439
-0.0402837
-0.0392658
-0.0381882
-0.0370489
-0.0358458
-0.0345773
-0.0332425
-0.0318418
-0.0303778
-0.0288556
-0.0272838
-0.025675
-0.0240466
-0.0224203
-0.0208222
-0.0192811
-0.017827
-0.0164887
-0.0152904
-0.0142498
-0.0133755
-0.0126668
-0.0121137
-0.0116991
-0.0114014
-0.0111975
-0.011065
-0.0109843
-0.0109394
-0.0109179
-0.0109108
-0.0109118
-0.0109169
-0.0109235
-0.0109302
-0.0109363
-0.0109416
-0.010946
-0.0109494
-0.0109517
-0.0109526
-0.0109519
-0.0109488
-0.0109455
0.001665
0.00163004
0.00157361