/*--------------------------------*- C++ -*----------------------------------*\
| =========                 |                                                 |
| \\      /  F ield         | OpenFOAM: The Open Source CFD Toolbox           |
|  \\    /   O peration     | Version:  2406                                  |
|   \\  /    A nd           | Website:  www.openfoam.com                      |
|    \\/     M anipulation  |                                                 |
\*---------------------------------------------------------------------------*/
FoamFile
{
    version     2.0;
    format      ascii;
    arch        "LSB;label=32;scalar=64";
    class       volScalarField;
    location    "46.45";
    object      p;
}
// * * * * * * * * * * * * * * * * * * * * * * * * * * * * * * * * * * * * * //

dimensions      [0 2 -2 0 0 0 0];

internalField   nonuniform List<scalar> 
14400
(
3.61867e-08
8.73428e-06
1.99506e-05
2.83218e-05
3.03439e-05
2.38002e-05
7.66899e-06
-1.81356e-05
-5.29989e-05
-9.5834e-05
-0.000145305
-0.000200034
-0.000258774
-0.000320538
-0.000384688
-0.000450968
-0.000519507
-0.000590817
-0.000665671
-0.000745063
-0.000830143
-0.00092208
-0.0010221
-0.00113142
-0.00125117
-0.00138238
-0.00152604
-0.00168306
-0.0018543
-0.00204056
-0.00224259
-0.00246103
-0.00269637
-0.00294893
-0.00321879
-0.0035057
-0.00380906
-0.00412785
-0.00446055
-0.00480509
-0.00515883
-0.00551851
-0.00588023
-0.00623946
-0.00659106
-0.00692934
-0.0072481
-0.00754079
-0.00780055
-0.00802043
-0.00819352
-0.00831311
-0.00837294
-0.00836734
-0.00829149
-0.00814157
-0.00791501
-0.00761062
-0.00722879
-0.00677165
-0.00624317
-0.00564882
-0.00499616
-0.00429603
-0.00355942
-0.00279944
-0.00203088
-0.00126973
-0.000532788
0.000162699
0.000799594
0.00136141
0.00183288
0.00220058
0.0024535
0.00258353
0.0025859
0.0024595
0.00220693
0.00183455
0.00135217
0.000772719
0.000111605
-0.000613921
-0.00138555
-0.00218469
-0.00299327
-0.00379438
-0.00457287
-0.00531584
-0.00601349
-0.00665729
-0.00724189
-0.0077649
-0.00822588
-0.00862615
-0.00896856
-0.00925712
-0.00949659
-0.00969218
-0.00984926
-0.00997309
-0.0100687
-0.0101407
-0.0101934
-0.0102303
-0.0102546
-0.0102692
-0.0102761
-0.0102772
-0.0102737
-0.0102668
-0.0102571
-0.0102449
-0.0102307
-0.0102149
-0.0101981
-0.0101819
-0.0101687
-0.0101613
-8.49592e-06
1.99937e-07
1.04973e-05
1.69159e-05
1.72334e-05
9.60379e-06
-6.9067e-06
-3.23977e-05
-6.63371e-05
-0.000107762
-0.000155476
-0.000208241
-0.000264935
-0.000324677
-0.000386902
-0.000451396
-0.000518295
-0.000588037
-0.00066136
-0.000739187
-0.000822587
-0.000912734
-0.00101078
-0.00111782
-0.00123491
-0.00136308
-0.00150326
-0.00165637
-0.00182326
-0.00200476
-0.00220162
-0.00241452
-0.00264401
-0.00289047
-0.00315404
-0.00343458
-0.00373161
-0.00404422
-0.00437103
-0.00471014
-0.00505905
-0.00541468
-0.00577327
-0.00613044
-0.00648119
-0.00681991
-0.00714052
-0.00743649
-0.00770101
-0.00792711
-0.00810782
-0.0082364
-0.00830647
-0.00831224
-0.00824874
-0.00811199
-0.00789922
-0.00760908
-0.00724175
-0.00679909
-0.0062848
-0.00570487
-0.00506679
-0.00437947
-0.00365463
-0.0029056
-0.002147
-0.00139471
-0.000665482
2.34766e-05
0.000655012
0.00121259
0.00168088
0.00204639
0.00229802
0.00242758
0.00243027
0.00230492
0.00205417
0.0016844
0.0012055
0.000630502
-2.50833e-05
-0.000743902
-0.00150757
-0.00229748
-0.00309559
-0.00388512
-0.00465117
-0.00538107
-0.0060643
-0.00669378
-0.00726496
-0.00777529
-0.00822447
-0.00861415
-0.00894741
-0.00922836
-0.00946183
-0.00965297
-0.00980708
-0.00992927
-0.0100244
-0.0100969
-0.0101508
-0.0101896
-0.0102163
-0.0102334
-0.010243
-0.0102468
-0.0102461
-0.0102419
-0.0102349
-0.0102255
-0.0102141
-0.0102011
-0.0101871
-0.0101733
-0.0101614
-0.0101539
-1.99007e-05
-1.01394e-05
3.17342e-07
5.18475e-06
3.87151e-06
-4.95978e-06
-2.20685e-05
-4.74942e-05
-8.07262e-05
-0.000120876
-0.000166848
-0.000217518
-0.000271878
-0.000329151
-0.000388857
-0.000450839
-0.000515259
-0.00058256
-0.000653436
-0.00072877
-0.000809557
-0.000896858
-0.000991745
-0.00109527
-0.00120843
-0.0013322
-0.00146751
-0.00161524
-0.0017763
-0.00195153
-0.00214176
-0.00234775
-0.00257017
-0.00280953
-0.00306615
-0.00334007
-0.003631
-0.00393826
-0.00426072
-0.00459667
-0.00494387
-0.00529938
-0.00565964
-0.00602037
-0.00637664
-0.00672287
-0.00705294
-0.00736023
-0.00763781
-0.00787851
-0.00807519
-0.00822086
-0.00830889
-0.00833328
-0.00828879
-0.00817124
-0.00797763
-0.00770638
-0.00735751
-0.00693271
-0.00643536
-0.00587094
-0.00524762
-0.00457434
-0.00386209
-0.00312397
-0.0023746
-0.00162983
-0.000906396
-0.000221544
0.000407509
0.000964124
0.00143284
0.00179998
0.00205425
0.00218728
0.00219407
0.00207332
0.00182755
0.00146311
0.000989921
0.000421076
-0.000227757
-0.000939055
-0.00169425
-0.00247456
-0.0032618
-0.00403911
-0.00479156
-0.00550654
-0.00617406
-0.00678725
-0.00734168
-0.00783517
-0.00826788
-0.0086419
-0.00896066
-0.0092286
-0.00945074
-0.0096324
-0.0097789
-0.00989533
-0.00998642
-0.0100565
-0.0101092
-0.010148
-0.0101755
-0.0101941
-0.0102058
-0.010212
-0.010214
-0.0102127
-0.0102086
-0.0102023
-0.0101941
-0.0101843
-0.0101733
-0.0101616
-0.0101496
-0.0101408
-2.94331e-05
-1.73571e-05
-4.84579e-06
2.30519e-07
-1.55538e-06
-1.11221e-05
-2.89866e-05
-5.49947e-05
-8.84938e-05
-0.000128501
-0.000173863
-0.000223434
-0.000276221
-0.000331487
-0.000388808
-0.00044809
-0.000509565
-0.000573734
-0.000641323
-0.000713228
-0.000790446
-0.000874014
-0.000964973
-0.00106434
-0.00117308
-0.00129214
-0.00142246
-0.00156497
-0.00172061
-0.00189038
-0.00207523
-0.00227613
-0.00249397
-0.00272952
-0.00298336
-0.00325584
-0.00354697
-0.00385637
-0.00418313
-0.00452579
-0.00488223
-0.00524961
-0.00562433
-0.00600202
-0.00637756
-0.00674509
-0.00709814
-0.00742971
-0.00773244
-0.00799877
-0.00822113
-0.00839216
-0.00850492
-0.00855311
-0.00853127
-0.00843502
-0.00826123
-0.00800821
-0.00767586
-0.00726587
-0.0067817
-0.00622842
-0.00561375
-0.00494716
-0.00423968
-0.00350418
-0.0027552
-0.00200855
-0.00128105
-0.000590027
4.7141e-05
0.000613572
0.0010935
0.00147287
0.00173998
0.00188603
0.0019056
0.00179697
0.00156237
0.00120791
0.000743423
0.000182014
-0.000460489
-0.0011663
-0.00191648
-0.00269184
-0.00347374
-0.00424492
-0.00499004
-0.00569629
-0.00635364
-0.00695493
-0.00749555
-0.00797377
-0.00839022
-0.00874732
-0.00904895
-0.00930001
-0.00950601
-0.00967267
-0.00980561
-0.00991017
-0.0099912
-0.010053
-0.0100993
-0.0101332
-0.0101573
-0.0101738
-0.0101844
-0.0101904
-0.0101928
-0.0101925
-0.01019
-0.0101855
-0.0101793
-0.0101713
-0.0101616
-0.0101505
-0.0101366
-0.0101252
-3.44618e-05
-2.01072e-05
-5.38979e-06
2.39987e-07
-1.87181e-06
-1.23255e-05
-3.1372e-05
-5.85895e-05
-9.30866e-05
-0.000133684
-0.000179082
-0.000228041
-0.000279535
-0.000332841
-0.000387595
-0.000443791
-0.000501753
-0.000562087
-0.00062561
-0.000693285
-0.000766153
-0.00084528
-0.00093171
-0.00102645
-0.00113049
-0.0012448
-0.00137037
-0.00150826
-0.0016596
-0.00182558
-0.00200748
-0.00220657
-0.00242412
-0.00266129
-0.00291908
-0.00319822
-0.00349907
-0.00382151
-0.00416484
-0.00452766
-0.00490778
-0.00530217
-0.00570689
-0.00611711
-0.00652717
-0.0069306
-0.00732031
-0.00768868
-0.00802777
-0.00832952
-0.00858595
-0.00878937
-0.00893259
-0.00900917
-0.00901355
-0.00894132
-0.00878934
-0.00855592
-0.00824098
-0.00784612
-0.00737475
-0.0068323
-0.0062259
-0.00556478
-0.00486
-0.00412431
-0.00337208
-0.00261899
-0.0018818
-0.00117785
-0.00052465
6.06758e-05
0.000561999
0.000964799
0.00125679
0.00142853
0.00147388
0.00139048
0.00117988
0.000847692
0.000403326
-0.000140332
-0.000767515
-0.00146031
-0.0021995
-0.00296547
-0.0037391
-0.00450254
-0.00523994
-0.00593793
-0.00658599
-0.00717656
-0.00770498
-0.00816942
-0.0085705
-0.00891084
-0.00919465
-0.00942727
-0.00961469
-0.00976314
-0.00987871
-0.00996716
-0.0100337
-0.0100827
-0.0101181
-0.0101431
-0.0101601
-0.0101711
-0.0101777
-0.010181
-0.0101819
-0.0101809
-0.0101784
-0.0101745
-0.0101691
-0.010162
-0.0101529
-0.0101414
-0.0101252
-0.0101111
-3.33764e-05
-1.71217e-05
-5.81038e-07
5.40808e-06
2.69164e-06
-9.08725e-06
-2.99e-05
-5.90024e-05
-9.51905e-05
-0.000137014
-0.000182963
-0.000231661
-0.000282021
-0.000333334
-0.000385306
-0.000438044
-0.000492012
-0.000547957
-0.000606834
-0.000669722
-0.000737757
-0.000812072
-0.000893774
-0.000983933
-0.00108361
-0.00119391
-0.00131602
-0.00145124
-0.00160102
-0.00176696
-0.0019508
-0.00215431
-0.00237927
-0.00262736
-0.00290004
-0.0031984
-0.00352308
-0.00387405
-0.00425052
-0.00465081
-0.00507228
-0.00551127
-0.00596309
-0.00642209
-0.00688174
-0.00733475
-0.00777327
-0.00818903
-0.00857357
-0.00891844
-0.00921538
-0.00945658
-0.00963482
-0.00974366
-0.00977766
-0.00973248
-0.00960511
-0.00939392
-0.00909885
-0.00872149
-0.00826513
-0.00773502
-0.00713817
-0.00648342
-0.00578147
-0.00504477
-0.00428733
-0.00352456
-0.00277296
-0.00204976
-0.0013725
-0.000758476
-0.000224183
0.000215306
0.000546982
0.000760514
0.000848803
0.00080843
0.000639951
0.000348006
-5.87864e-05
-0.00056816
-0.00116474
-0.00183077
-0.00254695
-0.0032934
-0.00405052
-0.00479991
-0.00552507
-0.00621197
-0.00684942
-0.00742927
-0.00794643
-0.00839863
-0.0087862
-0.00911167
-0.0093793
-0.00959461
-0.0097639
-0.00989382
-0.00999094
-0.0100615
-0.0101111
-0.0101445
-0.010166
-0.0101789
-0.0101856
-0.0101882
-0.010188
-0.0101862
-0.0101833
-0.0101798
-0.0101757
-0.010171
-0.0101653
-0.0101581
-0.010149
-0.0101368
-0.0101182
-0.0101017
-2.51815e-05
-7.4886e-06
1.0302e-05
1.61745e-05
1.23177e-05
-1.41068e-06
-2.46782e-05
-5.63685e-05
-9.49056e-05
-0.000138515
-0.000185434
-0.000234132
-0.000283457
-0.000332724
-0.000381736
-0.000430748
-0.000480398
-0.000531623
-0.000585559
-0.000643452
-0.000706586
-0.000776232
-0.000853635
-0.000940031
-0.0010367
-0.00114501
-0.00126652
-0.00140298
-0.00155637
-0.00172891
-0.00192293
-0.00214088
-0.00238513
-0.00265785
-0.00296087
-0.00329547
-0.00366219
-0.00406073
-0.00448973
-0.00494676
-0.00542823
-0.00592944
-0.00644462
-0.00696707
-0.0074893
-0.00800319
-0.00850024
-0.00897167
-0.0094087
-0.00980273
-0.0101455
-0.0104292
-0.0106468
-0.010792
-0.0108597
-0.0108456
-0.0107468
-0.0105619
-0.0102908
-0.00993489
-0.00949742
-0.00898323
-0.00839897
-0.00775305
-0.00705564
-0.00631859
-0.00555537
-0.00478085
-0.00401108
-0.00326296
-0.00255388
-0.00190119
-0.00132169
-0.000831015
-0.000443004
-0.000169057
-1.75422e-05
6.71252e-06
-9.7203e-05
-0.000326087
-0.000672641
-0.00112572
-0.00167081
-0.00229071
-0.00296637
-0.00367786
-0.00440529
-0.00512973
-0.00583404
-0.00650342
-0.00712593
-0.00769263
-0.00819769
-0.00863819
-0.0090139
-0.0093269
-0.00958116
-0.00978206
-0.00993591
-0.0100495
-0.0101297
-0.0101832
-0.0102159
-0.0102332
-0.0102396
-0.0102386
-0.0102331
-0.0102252
-0.0102162
-0.0102072
-0.0101986
-0.0101907
-0.0101835
-0.0101766
-0.0101696
-0.0101615
-0.0101516
-0.0101386
-0.010118
-0.0100996
-9.07534e-06
9.56974e-06
2.79478e-05
3.30532e-05
2.73533e-05
1.09342e-05
-1.55277e-05
-5.04959e-05
-9.19757e-05
-0.000137833
-0.000186044
-0.00023492
-0.000283266
-0.000330455
-0.000376418
-0.000421598
-0.000466854
-0.000513353
-0.000562462
-0.000615653
-0.000674431
-0.0007403
-0.000814768
-0.000899392
-0.000995847
-0.00110601
-0.00123201
-0.00137631
-0.00154163
-0.00173094
-0.00194734
-0.00219393
-0.00247359
-0.00278879
-0.00314137
-0.00353234
-0.00396167
-0.00442819
-0.00492948
-0.00546186
-0.00602047
-0.00659932
-0.00719147
-0.00778919
-0.00838415
-0.00896762
-0.00953062
-0.0100642
-0.0105594
-0.0110078
-0.0114011
-0.011732
-0.0119936
-0.0121798
-0.0122858
-0.0123076
-0.0122425
-0.0120889
-0.0118468
-0.0115175
-0.0111038
-0.0106104
-0.0100431
-0.00940994
-0.00872023
-0.0079851
-0.00721718
-0.00643056
-0.00564056
-0.00486351
-0.00411637
-0.00341634
-0.00278035
-0.00222451
-0.00176349
-0.00140986
-0.00117349
-0.00106095
-0.00107507
-0.00121463
-0.00147425
-0.00184453
-0.0023124
-0.00286179
-0.00347437
-0.0041305
-0.00481025
-0.0054943
-0.00616489
-0.00680646
-0.00740615
-0.00795413
-0.00844362
-0.00887085
-0.00923477
-0.00953675
-0.00978014
-0.00996982
-0.0101118
-0.0102127
-0.0102794
-0.0103187
-0.0103368
-0.0103395
-0.0103316
-0.0103171
-0.010299
-0.0102797
-0.0102608
-0.0102433
-0.0102277
-0.0102142
-0.0102025
-0.0101924
-0.010183
-0.0101733
-0.0101623
-0.0101483
-0.0101262
-0.0101064
1.57943e-05
3.49004e-05
5.31612e-05
5.67508e-05
4.8413e-05
2.85083e-05
-1.88992e-06
-4.07773e-05
-8.57085e-05
-0.00013418
-0.000183911
-0.000233091
-0.000280521
-0.000325672
-0.000368659
-0.000410157
-0.00045129
-0.000493509
-0.000538473
-0.000587956
-0.00064379
-0.00070785
-0.000782084
-0.000868583
-0.000969667
-0.00108797
-0.00122647
-0.00138851
-0.00157774
-0.00179797
-0.00205298
-0.00234633
-0.00268108
-0.00305953
-0.00348299
-0.00395158
-0.00446412
-0.00501806
-0.00560951
-0.0062333
-0.00688316
-0.00755186
-0.00823141
-0.00891326
-0.00958848
-0.010248
-0.0108825
-0.0114832
-0.0120412
-0.0125482
-0.0129964
-0.0133786
-0.0136883
-0.0139199
-0.0140686
-0.0141309
-0.0141041
-0.0139868
-0.0137788
-0.0134813
-0.0130968
-0.0126293
-0.0120844
-0.0114689
-0.0107916
-0.0100624
-0.009293
-0.00849641
-0.00768693
-0.00687995
-0.00609169
-0.00533887
-0.00463824
-0.00400615
-0.00345793
-0.00300727
-0.00266561
-0.00244149
-0.00234005
-0.00236254
-0.00250615
-0.00276392
-0.00312502
-0.00357519
-0.00409746
-0.00467307
-0.00528242
-0.00590609
-0.00652581
-0.00712524
-0.00769057
-0.00821089
-0.00867833
-0.00908804
-0.00943794
-0.00972843
-0.00996198
-0.0101427
-0.010276
-0.010368
-0.0104252
-0.0104543
-0.0104615
-0.0104528
-0.0104331
-0.0104069
-0.0103774
-0.0103474
-0.0103187
-0.0102924
-0.0102693
-0.0102494
-0.0102326
-0.0102184
-0.0102059
-0.0101942
-0.0101817
-0.0101667
-0.0101438
-0.0101234
5.04529e-05
6.95178e-05
8.6929e-05
8.82073e-05
7.64028e-05
5.22174e-05
1.71828e-05
-2.6188e-05
-7.49833e-05
-0.000126341
-0.000177762
-0.000227362
-0.000274001
-0.000317311
-0.000357644
-0.000395966
-0.000433723
-0.000472716
-0.000514978
-0.000562699
-0.000618185
-0.000683871
-0.00076238
-0.0008566
-0.000969772
-0.00110554
-0.00126794
-0.00146135
-0.00169032
-0.00195935
-0.00227261
-0.00263368
-0.00304522
-0.00350872
-0.00402431
-0.00459066
-0.00520495
-0.00586297
-0.00655917
-0.0072869
-0.00803861
-0.008806
-0.00958028
-0.0103523
-0.0111128
-0.0118526
-0.0125623
-0.0132333
-0.0138569
-0.0144252
-0.0149308
-0.0153667
-0.0157271
-0.0160066
-0.016201
-0.0163069
-0.0163218
-0.0162445
-0.0160747
-0.0158134
-0.0154629
-0.0150267
-0.0145096
-0.0139176
-0.0132585
-0.0125411
-0.0117758
-0.0109743
-0.0101495
-0.0093157
-0.00848781
-0.00768169
-0.0069135
-0.00619939
-0.00555498
-0.00499481
-0.00453173
-0.00417625
-0.00393598
-0.00381505
-0.00381375
-0.0039283
-0.00415092
-0.00447007
-0.00487102
-0.00533664
-0.00584833
-0.00638705
-0.00693433
-0.00747315
-0.00798872
-0.00846893
-0.00890464
-0.00928967
-0.00962068
-0.00989688
-0.0101196
-0.010292
-0.0104185
-0.0105044
-0.0105558
-0.0105786
-0.0105791
-0.0105628
-0.010535
-0.0105001
-0.0104617
-0.0104228
-0.0103856
-0.0103513
-0.0103209
-0.0102947
-0.0102725
-0.010254
-0.0102383
-0.0102241
-0.0102101
-0.0101944
-0.0101712
-0.0101509
9.61394e-05
0.000114629
0.000130423
0.000128575
0.000112483
8.32644e-05
4.29705e-05
-5.34897e-06
-5.83215e-05
-0.000112763
-0.00016602
-0.000216206
-0.000262316
-0.000304221
-0.000342579
-0.000378714
-0.000414471
-0.000452088
-0.000494094
-0.000543248
-0.000602532
-0.000675186
-0.000764777
-0.000875275
-0.00101109
-0.00117707
-0.00137838
-0.00162036
-0.00190822
-0.00224676
-0.00264
-0.00309085
-0.00360089
-0.00417015
-0.00479704
-0.00547839
-0.00620952
-0.00698445
-0.0077961
-0.00863649
-0.00949699
-0.0103685
-0.0112416
-0.0121069
-0.0129548
-0.0137762
-0.014562
-0.0153036
-0.015993
-0.0166224
-0.017185
-0.0176745
-0.0180854
-0.018413
-0.0186533
-0.0188035
-0.0188614
-0.0188258
-0.0186967
-0.0184746
-0.0181619
-0.0177614
-0.0172773
-0.0167147
-0.0160804
-0.0153819
-0.0146283
-0.0138296
-0.0129975
-0.0121442
-0.0112834
-0.0104294
-0.00959742
-0.00880273
-0.00806071
-0.00738621
-0.00679304
-0.00629337
-0.00589713
-0.00561141
-0.00543995
-0.0053827
-0.00543572
-0.00559114
-0.00583753
-0.00616042
-0.00654319
-0.00696795
-0.0074166
-0.00787185
-0.00831805
-0.00874186
-0.00913267
-0.00948275
-0.00978722
-0.0100438
-0.0102524
-0.010415
-0.0105348
-0.0106161
-0.010664
-0.0106839
-0.0106812
-0.0106614
-0.0106292
-0.0105893
-0.0105452
-0.0105002
-0.0104565
-0.0104159
-0.0103795
-0.0103477
-0.0103207
-0.0102981
-0.0102791
-0.0102627
-0.0102473
-0.0102309
-0.0102082
-0.0101886
0.000154293
0.000171622
0.000184985
0.0001792
0.000158041
0.000123116
7.70452e-05
2.34224e-05
-3.39505e-05
-9.16336e-05
-0.0001469
-0.00019796
-0.000244035
-0.000285319
-0.000322862
-0.000358432
-0.000394373
-0.00043349
-0.000478966
-0.000534339
-0.000603514
-0.000690811
-0.00080102
-0.000939423
-0.00111176
-0.00132409
-0.00158258
-0.0018932
-0.00226134
-0.00269143
-0.0031866
-0.00374843
-0.00437676
-0.00506966
-0.00582349
-0.00663308
-0.00749192
-0.0083924
-0.00932604
-0.0102838
-0.0112561
-0.0122334
-0.0132057
-0.0141636
-0.0150975
-0.0159982
-0.0168572
-0.0176662
-0.0184176
-0.0191044
-0.0197203
-0.0202598
-0.0207179
-0.0210905
-0.0213744
-0.021567
-0.0216666
-0.0216722
-0.0215839
-0.0214026
-0.0211297
-0.020768
-0.0203211
-0.0197933
-0.0191902
-0.0185183
-0.017785
-0.016999
-0.0161699
-0.0153084
-0.0144261
-0.0135356
-0.0126504
-0.0117845
-0.0109522
-0.010168
-0.00944598
-0.00879923
-0.00823951
-0.00777651
-0.00741731
-0.00716585
-0.00702252
-0.00698398
-0.00704311
-0.00718936
-0.0074093
-0.00768736
-0.00800684
-0.00835087
-0.00870343
-0.00905014
-0.0093789
-0.00968022
-0.00994737
-0.0101763
-0.0103651
-0.0105142
-0.0106254
-0.0107018
-0.0107472
-0.010766
-0.0107631
-0.0107429
-0.01071
-0.0106686
-0.0106223
-0.0105742
-0.0105269
-0.0104822
-0.0104415
-0.0104056
-0.0103747
-0.0103488
-0.0103271
-0.0103087
-0.0102922
-0.0102756
-0.0102539
-0.0102355
0.000226504
0.000242022
0.000252095
0.000241586
0.000214655
0.000173459
0.000121215
6.20431e-05
1.10281e-07
-6.09789e-05
-0.000118533
-0.000170968
-0.000217839
-0.000259761
-0.000298277
-0.000335714
-0.000375048
-0.00041982
-0.000474083
-0.000542401
-0.000629874
-0.000742168
-0.000885508
-0.0010666
-0.00129249
-0.00157022
-0.00190656
-0.00230751
-0.00277791
-0.00332109
-0.00393858
-0.00462997
-0.00539293
-0.00622332
-0.00711536
-0.00806193
-0.0090548
-0.0100849
-0.0111427
-0.0122181
-0.0133009
-0.0143812
-0.0154489
-0.0164943
-0.0175083
-0.0184819
-0.0194071
-0.0202763
-0.0210824
-0.0218194
-0.0224816
-0.0230643
-0.0235634
-0.0239754
-0.0242977
-0.0245284
-0.0246661
-0.0247103
-0.0246611
-0.0245195
-0.0242868
-0.0239654
-0.0235583
-0.0230694
-0.022503
-0.0218647
-0.0211604
-0.0203972
-0.019583
-0.0187265
-0.0178373
-0.016926
-0.0160038
-0.0150829
-0.014176
-0.0132964
-0.0124574
-0.0116722
-0.0109534
-0.0103126
-0.0097595
-0.00930174
-0.0089441
-0.00868813
-0.00853187
-0.00846981
-0.00849305
-0.00858984
-0.00874626
-0.00894713
-0.00917698
-0.00942102
-0.00966593
-0.00990047
-0.0101159
-0.0103058
-0.0104665
-0.0105961
-0.0106948
-0.010764
-0.0108062
-0.0108246
-0.0108227
-0.0108045
-0.0107737
-0.0107339
-0.0106886
-0.0106406
-0.0105926
-0.0105465
-0.0105038
-0.0104655
-0.0104323
-0.0104041
-0.0103806
-0.0103609
-0.0103437
-0.0103274
-0.0103071
-0.0102904
0.000314435
0.000327426
0.000333308
0.000317337
0.000284032
0.000236131
0.000177447
0.000112569
4.5936e-05
-1.88006e-05
-7.91124e-05
-0.000133744
-0.0001827
-0.000227137
-0.000269214
-0.000311957
-0.000359156
-0.000415299
-0.000485559
-0.000575793
-0.000692548
-0.000843024
-0.00103496
-0.00127639
-0.00157537
-0.00193947
-0.00237536
-0.00288832
-0.00348188
-0.0041575
-0.00491453
-0.00575018
-0.00665973
-0.00763677
-0.00867346
-0.00976086
-0.0108892
-0.0120483
-0.0132274
-0.0144159
-0.0156033
-0.0167792
-0.0179336
-0.0190573
-0.0201412
-0.0211773
-0.0221581
-0.0230768
-0.0239273
-0.0247044
-0.0254034
-0.0260203
-0.026552
-0.0269958
-0.0273497
-0.0276124
-0.027783
-0.0278613
-0.0278478
-0.0277433
-0.0275494
-0.0272679
-0.0269017
-0.0264538
-0.0259279
-0.0253285
-0.0246604
-0.0239292
-0.0231411
-0.0223029
-0.0214223
-0.0205076
-0.0195678
-0.0186127
-0.017653
-0.0166998
-0.0157651
-0.014861
-0.0139999
-0.0131938
-0.0124543
-0.0117917
-0.0112145
-0.0107289
-0.0103384
-0.0100431
-0.00983985
-0.00972227
-0.00968086
-0.0097038
-0.00977773
-0.00988861
-0.0100228
-0.0101676
-0.0103123
-0.0104482
-0.0105689
-0.0106703
-0.0107503
-0.0108082
-0.0108447
-0.0108616
-0.0108611
-0.010846
-0.010819
-0.0107833
-0.0107416
-0.0106966
-0.0106506
-0.0106057
-0.0105634
-0.010525
-0.0104911
-0.0104621
-0.0104379
-0.0104177
-0.0104005
-0.0103848
-0.0103665
-0.0103517
0.000419725
0.000429411
0.000430175
0.000408082
0.000367928
0.000313031
0.000247755
0.000177067
0.000105552
3.67656e-05
-2.70673e-05
-8.51564e-05
-0.000138088
-0.000187693
-0.000236898
-0.000289614
-0.000350654
-0.000425706
-0.000521319
-0.000644881
-0.000804552
-0.0010091
-0.00126764
-0.00158921
-0.00198228
-0.00245425
-0.00301089
-0.00365594
-0.00439085
-0.00521471
-0.00612427
-0.00711421
-0.00817738
-0.00930517
-0.0104878
-0.0117148
-0.012975
-0.0142572
-0.01555
-0.0168422
-0.0181233
-0.0193829
-0.0206115
-0.0218001
-0.0229407
-0.0240258
-0.0250491
-0.0260045
-0.0268873
-0.0276929
-0.0284178
-0.0290591
-0.0296142
-0.0300813
-0.0304592
-0.030747
-0.0309444
-0.0310516
-0.0310691
-0.0309981
-0.0308399
-0.0305965
-0.0302702
-0.0298635
-0.0293798
-0.0288224
-0.0281954
-0.0275029
-0.0267499
-0.0259415
-0.0250835
-0.024182
-0.0232439
-0.0222766
-0.0212883
-0.0202878
-0.0192847
-0.0182893
-0.0173125
-0.0163659
-0.015461
-0.0146095
-0.0138224
-0.0131096
-0.0124793
-0.0119374
-0.011487
-0.011128
-0.010857
-0.0106675
-0.0105501
-0.0104934
-0.010485
-0.0105118
-0.0105616
-0.0106236
-0.0106886
-0.0107497
-0.0108019
-0.0108421
-0.0108687
-0.0108814
-0.0108811
-0.0108689
-0.0108467
-0.0108165
-0.0107804
-0.0107406
-0.0106992
-0.0106579
-0.0106183
-0.0105818
-0.0105492
-0.010521
-0.0104973
-0.0104777
-0.0104612
-0.0104467
-0.0104306
-0.0104179
0.000543863
0.000549422
0.000544143
0.00051537
0.00046804
0.000405992
0.000334061
0.000257456
0.000180755
0.000107258
3.87321e-05
-2.46446e-05
-8.41861e-05
-0.000142556
-0.000203634
-0.000272425
-0.000355014
-0.000458536
-0.00059114
-0.000761892
-0.000980572
-0.00125734
-0.00160229
-0.00202483
-0.00253314
-0.00313354
-0.00383008
-0.00462423
-0.00551486
-0.00649826
-0.00756848
-0.00871761
-0.00993617
-0.0112135
-0.0125382
-0.0138983
-0.0152816
-0.0166761
-0.0180701
-0.0194524
-0.0208124
-0.0221404
-0.0234274
-0.0246654
-0.0258472
-0.0269666
-0.0280181
-0.028997
-0.0298995
-0.0307222
-0.0314624
-0.0321182
-0.0326878
-0.0331702
-0.0335646
-0.0338709
-0.0340891
-0.0342196
-0.0342633
-0.0342214
-0.0340953
-0.0338867
-0.0335979
-0.0332311
-0.0327889
-0.0322743
-0.0316904
-0.0310405
-0.0303284
-0.0295578
-0.0287329
-0.0278582
-0.0269384
-0.0259788
-0.0249851
-0.0239635
-0.0229211
-0.0218657
-0.0208061
-0.0197517
-0.0187131
-0.0177016
-0.0167288
-0.0158069
-0.0149472
-0.0141605
-0.0134557
-0.0128393
-0.012315
-0.0118831
-0.0115405
-0.0112805
-0.011094
-0.0109696
-0.0108949
-0.0108576
-0.0108462
-0.0108505
-0.0108624
-0.0108756
-0.0108857
-0.0108901
-0.0108872
-0.0108766
-0.0108588
-0.0108347
-0.0108054
-0.0107725
-0.0107375
-0.010702
-0.0106673
-0.0106347
-0.0106052
-0.0105795
-0.0105577
-0.0105397
-0.0105247
-0.0105117
-0.010498
-0.0104875
0.000688049
0.000688645
0.000676428
0.000640541
0.00058586
0.000516628
0.000438016
0.000355314
0.000272909
0.000193674
0.000118754
4.75558e-05
-2.21256e-05
-9.39705e-05
-0.000173021
-0.000265615
-0.000379348
-0.000523014
-0.000706492
-0.000940508
-0.00123625
-0.00160485
-0.00205672
-0.00260085
-0.00324423
-0.00399126
-0.00484355
-0.00579976
-0.00685578
-0.00800503
-0.0092388
-0.0105467
-0.0119171
-0.0133376
-0.0147952
-0.0162769
-0.0177699
-0.0192617
-0.0207407
-0.022196
-0.0236176
-0.0249966
-0.0263251
-0.0275961
-0.0288036
-0.0299426
-0.0310088
-0.0319988
-0.0329096
-0.033739
-0.0344853
-0.0351471
-0.0357237
-0.0362144
-0.0366191
-0.036938
-0.0371715
-0.0373204
-0.0373856
-0.0373684
-0.0372703
-0.0370929
-0.0368382
-0.0365082
-0.0361054
-0.0356321
-0.0350909
-0.0344844
-0.0338155
-0.033087
-0.0323017
-0.0314628
-0.0305734
-0.0296369
-0.0286567
-0.027637
-0.0265821
-0.0254971
-0.0243881
-0.0232621
-0.0221272
-0.020993
-0.0198701
-0.0187707
-0.0177076
-0.0166944
-0.0157443
-0.0148698
-0.0140815
-0.0133874
-0.0127919
-0.0122956
-0.011895
-0.0115829
-0.0113492
-0.0111816
-0.0110672
-0.0109931
-0.0109477
-0.0109211
-0.0109055
-0.0108948
-0.010885
-0.0108735
-0.0108588
-0.0108404
-0.0108183
-0.0107932
-0.010766
-0.0107379
-0.0107098
-0.010683
-0.0106584
-0.0106367
-0.0106181
-0.0106026
-0.0105899
-0.0105789
-0.0105677
-0.0105591
0.000853022
0.000847857
0.000827876
0.000784562
0.000722509
0.000646137
0.000560796
0.000471654
0.000382713
0.000296235
0.000212568
0.000130179
4.57882e-05
-4.55076e-05
-0.000150139
-0.000276007
-0.000432417
-0.000629938
-0.000880148
-0.00119521
-0.00158726
-0.00206772
-0.00264651
-0.00333129
-0.00412699
-0.00503537
-0.00605502
-0.00718147
-0.00840752
-0.00972366
-0.0111186
-0.0125796
-0.0140931
-0.0156453
-0.0172221
-0.0188098
-0.0203954
-0.0219665
-0.023512
-0.0250217
-0.0264867
-0.0278992
-0.0292524
-0.0305408
-0.0317598
-0.0329054
-0.0339747
-0.0349652
-0.0358752
-0.0367031
-0.0374481
-0.0381096
-0.0386872
-0.039181
-0.0395912
-0.0399182
-0.0401628
-0.0403259
-0.0404085
-0.040412
-0.0403379
-0.0401877
-0.0399633
-0.0396667
-0.0392998
-0.0388647
-0.0383637
-0.0377989
-0.0371725
-0.0364866
-0.0357434
-0.0349448
-0.0340927
-0.0331891
-0.0322359
-0.0312351
-0.030189
-0.0291001
-0.0279719
-0.0268084
-0.0256149
-0.0243981
-0.0231665
-0.0219303
-0.0207018
-0.019495
-0.0183254
-0.0172092
-0.0161627
-0.015201
-0.0143366
-0.0135788
-0.0129322
-0.0123965
-0.0119665
-0.0116329
-0.0113831
-0.011203
-0.0110779
-0.0109941
-0.0109397
-0.0109048
-0.0108817
-0.010865
-0.0108508
-0.0108368
-0.0108215
-0.0108046
-0.010786
-0.0107664
-0.0107464
-0.0107268
-0.0107086
-0.0106922
-0.010678
-0.0106661
-0.0106562
-0.0106476
-0.0106387
-0.0106319
0.00103898
0.00102718
0.000998755
0.000947903
0.000878515
0.000795088
0.00070287
0.000606692
0.000509964
0.000414149
0.000318616
0.00022071
0.000115873
-2.23192e-06
-0.000141645
-0.000312019
-0.000524474
-0.000791318
-0.00112559
-0.00154042
-0.00204822
-0.00265985
-0.00338381
-0.00422557
-0.00518722
-0.00626736
-0.00746121
-0.00876102
-0.0101565
-0.0116353
-0.0131838
-0.0147873
-0.0164307
-0.0180991
-0.0197778
-0.0214529
-0.0231118
-0.0247428
-0.0263355
-0.0278812
-0.029372
-0.0308016
-0.0321648
-0.0334574
-0.0346759
-0.0358178
-0.0368811
-0.0378644
-0.0387667
-0.0395875
-0.0403262
-0.040983
-0.0415579
-0.0420513
-0.0424637
-0.0427958
-0.0430484
-0.0432225
-0.0433194
-0.0433402
-0.0432865
-0.0431599
-0.042962
-0.0426946
-0.0423595
-0.0419588
-0.0414941
-0.0409676
-0.0403808
-0.0397355
-0.0390332
-0.0382752
-0.0374628
-0.0365967
-0.0356778
-0.0347066
-0.0336838
-0.0326099
-0.0314859
-0.0303132
-0.0290943
-0.0278327
-0.0265337
-0.0252046
-0.0238551
-0.0224976
-0.0211472
-0.0198214
-0.0185398
-0.0173225
-0.0161894
-0.0151582
-0.0142431
-0.0134529
-0.0127906
-0.012253
-0.011831
-0.0115114
-0.0112781
-0.0111141
-0.0110032
-0.010931
-0.0108856
-0.0108576
-0.0108399
-0.0108279
-0.0108182
-0.0108091
-0.0107994
-0.010789
-0.010778
-0.0107668
-0.0107561
-0.0107462
-0.0107375
-0.01073
-0.0107234
-0.0107175
-0.0107108
-0.0107055
0.00124544
0.00122597
0.00118852
0.00113023
0.00105366
0.000963199
0.000863764
0.000759602
0.000653321
0.000545384
0.000433998
0.000315189
0.00018292
2.92086e-05
-0.00015577
-0.000383521
-0.00066694
-0.00101984
-0.00145625
-0.00198959
-0.0026317
-0.00339195
-0.00427651
-0.00528791
-0.00642484
-0.00768237
-0.00905223
-0.0105234
-0.0120826
-0.013715
-0.015405
-0.0171361
-0.0188925
-0.0206584
-0.0224194
-0.0241621
-0.0258744
-0.027546
-0.0291678
-0.0307324
-0.0322337
-0.0336669
-0.035028
-0.0363142
-0.0375234
-0.0386541
-0.0397053
-0.0406764
-0.041567
-0.0423772
-0.043107
-0.0437567
-0.0443269
-0.0448181
-0.0452308
-0.0455661
-0.0458248
-0.0460078
-0.0461165
-0.046152
-0.0461158
-0.0460094
-0.0458344
-0.0455923
-0.0452851
-0.0449142
-0.0444816
-0.0439887
-0.0434373
-0.0428286
-0.0421639
-0.0414441
-0.0406698
-0.0398415
-0.0389592
-0.0380224
-0.0370307
-0.0359833
-0.0348792
-0.033718
-0.0324994
-0.0312241
-0.0298939
-0.0285128
-0.0270869
-0.0256253
-0.0241406
-0.0226489
-0.0211698
-0.019726
-0.018342
-0.0170426
-0.015851
-0.0147864
-0.0138622
-0.0130846
-0.0124518
-0.0119548
-0.0115788
-0.0113054
-0.0111147
-0.0109876
-0.010907
-0.0108588
-0.010832
-0.0108184
-0.0108122
-0.0108098
-0.0108087
-0.0108077
-0.0108062
-0.0108042
-0.0108018
-0.0107993
-0.0107968
-0.0107943
-0.0107917
-0.0107885
-0.0107838
-0.0107797
0.00147038
0.00144296
0.00139588
0.00133023
0.00124668
0.0011491
0.00104183
0.0009283
0.000810089
0.000686473
0.000554303
0.000408088
0.000240118
4.05983e-05
-0.000202178
-0.000501532
-0.00087191
-0.00132818
-0.0018847
-0.00255432
-0.00334737
-0.00427082
-0.00532776
-0.00651717
-0.00783401
-0.00926964
-0.0108123
-0.0124479
-0.0141606
-0.0159333
-0.0177487
-0.0195896
-0.0214395
-0.023283
-0.0251061
-0.0268964
-0.0286434
-0.0303379
-0.0319728
-0.0335422
-0.0350416
-0.0364676
-0.0378178
-0.0390904
-0.0402846
-0.0413996
-0.0424353
-0.0433915
-0.0442686
-0.0450669
-0.0457868
-0.0464289
-0.0469938
-0.0474821
-0.0478947
-0.0482323
-0.0484959
-0.0486866
-0.0488055
-0.0488537
-0.0488326
-0.0487436
-0.0485882
-0.048368
-0.0480845
-0.0477394
-0.0473342
-0.0468704
-0.0463494
-0.0457725
-0.0451406
-0.0444547
-0.043715
-0.0429216
-0.0420742
-0.041172
-0.0402138
-0.0391979
-0.0381224
-0.0369851
-0.035784
-0.0345174
-0.0331843
-0.0317851
-0.0303223
-0.0288009
-0.0272294
-0.0256204
-0.023991
-0.0223629
-0.0207622
-0.0192177
-0.0177594
-0.0164162
-0.0152126
-0.0141664
-0.0132868
-0.0125731
-0.0120157
-0.0115977
-0.0112975
-0.0110921
-0.0109589
-0.0108783
-0.010834
-0.0108135
-0.0108077
-0.0108101
-0.0108167
-0.0108248
-0.010833
-0.0108405
-0.0108471
-0.0108525
-0.0108569
-0.0108599
-0.0108614
-0.010861
-0.0108581
-0.0108548
0.00171116
0.0016754