/*--------------------------------*- C++ -*----------------------------------*\
| =========                 |                                                 |
| \\      /  F ield         | OpenFOAM: The Open Source CFD Toolbox           |
|  \\    /   O peration     | Version:  2406                                  |
|   \\  /    A nd           | Website:  www.openfoam.com                      |
|    \\/     M anipulation  |                                                 |
\*---------------------------------------------------------------------------*/
FoamFile
{
    version     2.0;
    format      ascii;
    arch        "LSB;label=32;scalar=64";
    class       volScalarField;
    location    "30.75";
    object      p;
}
// * * * * * * * * * * * * * * * * * * * * * * * * * * * * * * * * * * * * * //

dimensions      [0 2 -2 0 0 0 0];

internalField   nonuniform List<scalar> 
14400
(
0.0408208
0.040832
0.0408402
0.0408497
0.0408493
0.0408436
0.0408269
0.0408031
0.04077
0.0407305
0.0406844
0.0406337
0.0405787
0.0405208
0.0404601
0.0403971
0.0403315
0.0402631
0.0401914
0.0401155
0.0400346
0.0399478
0.0398539
0.0397521
0.0396414
0.0395208
0.0393896
0.0392469
0.039092
0.0389242
0.0387429
0.0385475
0.0383376
0.0381131
0.0378738
0.03762
0.0373522
0.0370714
0.0367787
0.0364761
0.0361658
0.0358505
0.0355336
0.0352189
0.034911
0.0346146
0.0343352
0.0340783
0.0338501
0.0336566
0.0335039
0.0333981
0.0333448
0.0333492
0.0334159
0.0335486
0.03375
0.0340217
0.0343638
0.0347751
0.0352528
0.0357924
0.0363874
0.0370301
0.0377107
0.038418
0.0391391
0.0398602
0.0405665
0.0412424
0.0418724
0.0424413
0.0429347
0.0433395
0.0436447
0.0438416
0.0439243
0.04389
0.0437394
0.0434763
0.043108
0.0426446
0.042099
0.0414857
0.0408207
0.0401208
0.0394025
0.0386816
0.0379728
0.0372886
0.0366399
0.0360349
0.0354798
0.0349781
0.0345316
0.0341401
0.0338017
0.0335136
0.0332719
0.0330722
0.0329099
0.0327802
0.0326785
0.0326006
0.0325423
0.0325004
0.0324713
0.0324529
0.0324424
0.0324386
0.0324394
0.0324448
0.0324527
0.0324645
0.0324776
0.0324947
0.0325112
0.0325302
0.0325435
0.0325531
0.0408096
0.0408208
0.0408239
0.0408294
0.0408252
0.0408176
0.0408001
0.0407771
0.0407457
0.0407089
0.0406657
0.0406184
0.0405668
0.0405122
0.0404544
0.0403941
0.0403309
0.0402648
0.040195
0.0401212
0.0400424
0.0399578
0.0398666
0.0397679
0.0396608
0.0395445
0.0394182
0.0392811
0.0391325
0.0389717
0.038798
0.038611
0.0384101
0.0381952
0.037966
0.0377227
0.0374658
0.0371959
0.0369142
0.0366223
0.0363223
0.0360166
0.0357084
0.0354014
0.0350996
0.0348079
0.0345313
0.0342753
0.0340458
0.0338488
0.0336903
0.0335762
0.0335122
0.0335036
0.033555
0.0336701
0.0338519
0.0341019
0.0344207
0.0348072
0.0352587
0.0357711
0.0363383
0.0369528
0.0376052
0.0382845
0.0389784
0.0396733
0.0403548
0.0410077
0.0416168
0.0421672
0.0426448
0.0430368
0.0433323
0.0435229
0.0436027
0.0435692
0.0434229
0.0431677
0.0428109
0.0423623
0.0418346
0.0412422
0.0406006
0.0399262
0.0392349
0.0385422
0.0378618
0.037206
0.0365848
0.036006
0.035475
0.0349952
0.0345679
0.0341926
0.0338675
0.0335896
0.0333553
0.0331603
0.0330002
0.0328708
0.0327675
0.0326867
0.0326244
0.0325778
0.0325436
0.0325198
0.0325038
0.0324948
0.0324904
0.0324908
0.0324937
0.0325006
0.0325083
0.0325201
0.0325304
0.0325443
0.0325526
0.0325624
0.0408012
0.0408175
0.0408208
0.0408277
0.0408229
0.0408155
0.0407976
0.0407745
0.040743
0.0407063
0.0406635
0.0406167
0.0405658
0.0405121
0.0404555
0.0403965
0.0403348
0.0402703
0.0402023
0.0401304
0.0400535
0.0399711
0.0398822
0.0397859
0.0396815
0.039568
0.0394447
0.0393108
0.0391655
0.0390082
0.0388381
0.0386547
0.0384573
0.0382457
0.0380196
0.0377789
0.037524
0.0372554
0.0369741
0.0366816
0.0363798
0.0360711
0.0357585
0.0354457
0.0351369
0.0348366
0.0345503
0.0342835
0.0340422
0.0338325
0.0336609
0.0335333
0.0334557
0.0334337
0.033472
0.0335746
0.0337447
0.033984
0.0342932
0.0346713
0.0351158
0.0356225
0.0361856
0.0367974
0.0374485
0.0381281
0.0388237
0.0395216
0.0402072
0.0408653
0.0414803
0.0420372
0.0425215
0.0429202
0.0432221
0.0434184
0.0435031
0.0434732
0.0433294
0.0430754
0.0427184
0.0422688
0.0417391
0.0411441
0.0405
0.0398232
0.0391303
0.0384369
0.0377573
0.0371037
0.0364864
0.0359131
0.0353891
0.0349176
0.0344994
0.0341339
0.0338188
0.0335509
0.033326
0.0331398
0.0329875
0.0328649
0.0327674
0.0326912
0.0326326
0.0325886
0.0325562
0.0325336
0.0325181
0.0325092
0.0325043
0.0325041
0.0325059
0.0325118
0.032518
0.0325291
0.0325379
0.0325528
0.0325608
0.0325762
0.0407909
0.0408114
0.0408137
0.0408207
0.0408142
0.0408061
0.0407872
0.040764
0.0407325
0.0406966
0.0406548
0.0406097
0.0405607
0.0405092
0.0404551
0.0403988
0.0403399
0.0402784
0.0402135
0.0401448
0.0400714
0.0399926
0.0399076
0.0398155
0.0397156
0.039607
0.039489
0.0393607
0.0392213
0.0390701
0.0389063
0.0387291
0.0385377
0.0383316
0.0381104
0.0378737
0.0376216
0.0373543
0.0370727
0.0367779
0.0364716
0.0361562
0.0358346
0.0355104
0.0351879
0.0348718
0.0345676
0.0342812
0.0340188
0.033787
0.0335923
0.0334412
0.0333399
0.0332942
0.033309
0.0333887
0.0335365
0.0337543
0.0340429
0.0344015
0.0348277
0.0353176
0.0358653
0.0364633
0.0371026
0.0377722
0.0384599
0.0391521
0.0398343
0.0404913
0.0411075
0.0416677
0.0421574
0.0425632
0.0428737
0.0430798
0.0431751
0.0431564
0.0430239
0.0427812
0.0424354
0.0419965
0.0414774
0.0408928
0.040259
0.0395928
0.038911
0.0382293
0.0375623
0.0369223
0.0363197
0.0357621
0.0352547
0.0348004
0.0343999
0.0340521
0.0337543
0.0335029
0.0332934
0.0331211
0.0329813
0.0328691
0.0327803
0.032711
0.0326575
0.0326172
0.032587
0.0325654
0.0325501
0.0325405
0.0325342
0.0325322
0.0325315
0.0325351
0.0325381
0.0325468
0.0325523
0.0325669
0.0325734
0.0325947
0.0407891
0.0408141
0.040817
0.0408257
0.0408188
0.0408106
0.0407906
0.0407667
0.0407341
0.0406976
0.0406555
0.0406104
0.040562
0.0405116
0.0404591
0.0404049
0.0403485
0.0402897
0.0402279
0.0401625
0.0400926
0.0400174
0.039936
0.0398477
0.0397515
0.0396467
0.0395323
0.0394074
0.0392712
0.0391226
0.0389607
0.0387844
0.0385926
0.0383846
0.0381594
0.0379165
0.0376557
0.037377
0.037081
0.0367687
0.036442
0.0361033
0.0357558
0.0354034
0.0350508
0.0347034
0.0343671
0.0340483
0.0337539
0.0334908
0.033266
0.0330863
0.0329583
0.0328878
0.03288
0.0329393
0.0330689
0.0332708
0.0335458
0.033893
0.0343101
0.034793
0.0353362
0.0359321
0.0365717
0.0372442
0.0379375
0.038638
0.0393312
0.0400018
0.0406342
0.0412128
0.0417228
0.0421505
0.0424838
0.0427131
0.0428314
0.0428349
0.0427231
0.0424992
0.0421698
0.0417449
0.0412371
0.0406613
0.0400341
0.0393727
0.0386943
0.0380154
0.037351
0.0367141
0.0361155
0.0355632
0.0350629
0.0346175
0.0342277
0.0338923
0.0336084
0.0333719
0.033178
0.0330215
0.0328971
0.0327998
0.0327246
0.0326677
0.0326251
0.032594
0.0325716
0.0325563
0.0325458
0.0325399
0.0325362
0.032536
0.0325361
0.0325402
0.0325429
0.0325522
0.0325572
0.0325741
0.0325809
0.032609
0.0407909
0.0408189
0.0408216
0.0408309
0.0408227
0.0408136
0.040792
0.0407668
0.0407331
0.040696
0.0406536
0.0406091
0.0405617
0.0405132
0.0404629
0.0404115
0.0403584
0.0403033
0.0402454
0.040184
0.0401183
0.0400474
0.0399704
0.0398863
0.0397944
0.0396935
0.0395828
0.0394611
0.0393272
0.0391799
0.0390177
0.0388393
0.0386432
0.038428
0.0381927
0.0379362
0.0376579
0.0373579
0.0370366
0.0366953
0.036336
0.0359616
0.0355757
0.0351829
0.0347886
0.0343987
0.03402
0.0336594
0.0333242
0.0330218
0.0327594
0.0325442
0.0323826
0.0322806
0.0322434
0.0322753
0.0323795
0.032558
0.0328114
0.033139
0.0335386
0.0340063
0.0345366
0.0351224
0.0357549
0.0364237
0.0371169
0.0378214
0.0385228
0.039206
0.0398554
0.0404556
0.0409913
0.0414485
0.0418145
0.0420791
0.0422344
0.0422757
0.0422017
0.0420147
0.0417205
0.0413284
0.0408506
0.0403019
0.0396986
0.0390582
0.038398
0.0377351
0.0370848
0.0364609
0.0358745
0.0353343
0.0348461
0.0344134
0.0340371
0.0337161
0.0334474
0.0332268
0.0330494
0.0329096
0.0328016
0.0327201
0.0326599
0.0326167
0.0325863
0.032566
0.0325526
0.0325447
0.0325401
0.0325387
0.0325381
0.0325401
0.0325412
0.032546
0.0325482
0.0325576
0.0325615
0.0325798
0.0325864
0.0326199
0.0408019
0.0408324
0.0408351
0.0408449
0.0408356
0.0408254
0.0408018
0.0407749
0.0407393
0.0407008
0.0406575
0.0406127
0.0405658
0.0405185
0.0404702
0.0404213
0.0403712
0.0403196
0.0402654
0.0402079
0.0401461
0.040079
0.0400055
0.0399246
0.0398352
0.0397361
0.0396259
0.0395034
0.0393667
0.0392142
0.039044
0.0388541
0.0386426
0.0384077
0.0381478
0.0378619
0.0375492
0.0372099
0.0368449
0.0364559
0.0360457
0.0356178
0.035177
0.0347287
0.0342791
0.033835
0.0334037
0.0329927
0.0326097
0.0322623
0.031958
0.0317037
0.031506
0.0313708
0.031303
0.0313068
0.0313852
0.0315403
0.0317726
0.0320814
0.0324646
0.0329185
0.033438
0.0340163
0.0346449
0.035314
0.0360121
0.0367265
0.0374432
0.0381475
0.0388239
0.0394569
0.0400311
0.040532
0.0409463
0.0412628
0.0414726
0.0415698
0.0415519
0.0414199
0.0411784
0.0408357
0.0404031
0.0398948
0.0393269
0.0387168
0.0380822
0.0374405
0.0368076
0.036198
0.0356236
0.0350936
0.0346149
0.0341914
0.0338245
0.0335135
0.0332558
0.0330474
0.0328832
0.0327576
0.0326645
0.0325983
0.0325534
0.032525
0.0325087
0.0325014
0.0324997
0.0325022
0.0325063
0.0325123
0.0325176
0.0325244
0.0325289
0.0325365
0.0325403
0.0325514
0.0325559
0.0325763
0.0325834
0.0326214
0.0408191
0.0408509
0.040853
0.0408624
0.0408512
0.040839
0.040813
0.0407837
0.040746
0.0407059
0.0406617
0.0406168
0.0405707
0.0405248
0.0404787
0.0404327
0.0403859
0.0403379
0.0402876
0.0402339
0.0401757
0.0401119
0.0400411
0.0399621
0.0398734
0.0397734
0.0396605
0.0395325
0.0393873
0.0392225
0.0390355
0.0388239
0.0385852
0.0383173
0.0380185
0.0376877
0.0373247
0.03693
0.0365054
0.0360535
0.035578
0.0350837
0.0345762
0.0340619
0.0335478
0.0330414
0.0325503
0.0320825
0.0316458
0.0312478
0.030896
0.0305971
0.0303575
0.0301829
0.0300781
0.030047
0.0300926
0.0302167
0.0304201
0.0307022
0.031061
0.0314932
0.0319941
0.0325574
0.0331754
0.0338388
0.0345369
0.0352577
0.0359879
0.0367133
0.0374189
0.0380893
0.0387093
0.0392639
0.0397393
0.0401233
0.0404059
0.0405797
0.0406406
0.0405877
0.0404241
0.0401563
0.0397944
0.0393514
0.0388426
0.038285
0.0376962
0.0370936
0.0364939
0.0359119
0.0353604
0.0348495
0.0343866
0.0339767
0.0336217
0.0333218
0.0330748
0.0328771
0.032724
0.0326101
0.0325292
0.0324758
0.0324438
0.0324285
0.0324249
0.0324296
0.0324392
0.0324519
0.0324649
0.0324786
0.0324903
0.0325023
0.0325108
0.0325215
0.0325271
0.0325399
0.0325449
0.0325666
0.0325739
0.0326145
0.0408458
0.0408783
0.0408797
0.040888
0.0408747
0.0408601
0.0408311
0.0407991
0.0407587
0.0407166
0.0406711
0.0406257
0.0405798
0.0405352
0.0404909
0.0404474
0.0404034
0.0403585
0.0403112
0.0402603
0.0402044
0.0401421
0.0400716
0.0399912
0.0398991
0.039793
0.0396704
0.0395287
0.0393649
0.0391759
0.0389585
0.0387097
0.0384268
0.0381078
0.037751
0.0373562
0.0369237
0.0364552
0.0359536
0.0354228
0.0348677
0.0342942
0.033709
0.0331191
0.0325324
0.0319566
0.0313999
0.0308701
0.0303752
0.0299227
0.0295197
0.029173
0.0288885
0.0286716
0.0285269
0.0284582
0.0284682
0.0285588
0.0287306
0.0289833
0.029315
0.029723
0.0302028
0.0307489
0.0313543
0.0320105
0.0327078
0.0334349
0.0341796
0.0349284
0.035667
0.0363806
0.037054
0.0376723
0.0382211
0.0386876
0.0390602
0.0393301
0.0394912
0.0395405
0.0394789
0.0393108
0.0390441
0.0386901
0.0382629
0.0377784
0.0372539
0.0367067
0.0361538
0.0356107
0.0350909
0.0346056
0.0341632
0.0337694
0.0334275
0.0331383
0.0329004
0.0327111
0.0325661
0.0324604
0.0323883
0.0323442
0.0323223
0.0323174
0.0323247
0.0323403
0.0323604
0.0323831
0.0324055
0.0324276
0.0324465
0.0324648
0.0324784
0.0324933
0.032502
0.0325171
0.0325235
0.0325466
0.0325543
0.032596
0.0408806
0.040913
0.0409131
0.0409195
0.0409034
0.0408856
0.0408532
0.040818
0.0407748
0.0407305
0.0406836
0.0406377
0.0405922
0.0405486
0.0405061
0.0404647
0.0404232
0.0403806
0.0403353
0.0402858
0.0402302
0.0401667
0.0400931
0.040007
0.0399057
0.0397863
0.0396454
0.0394796
0.039285
0.0390578
0.0387945
0.0384918
0.0381472
0.0377589
0.0373264
0.0368502
0.036332
0.0357748
0.035183
0.0345616
0.0339169
0.0332556
0.0325854
0.0319139
0.0312493
0.0305997
0.0299732
0.0293778
0.0288213
0.0283108
0.0278533
0.0274551
0.027122
0.026859
0.0266703
0.0265595
0.0265292
0.026581
0.0267157
0.0269329
0.0272313
0.0276082
0.0280601
0.028582
0.0291676
0.0298095
0.0304991
0.0312263
0.03198
0.0327479
0.0335167
0.0342725
0.0350007
0.0356867
0.036316
0.0368751
0.0373515
0.0377346
0.0380164
0.0381916
0.0382582
0.0382179
0.0380759
0.0378409
0.0375249
0.0371421
0.0367087
0.0362415
0.0357574
0.0352724
0.0348008
0.0343546
0.0339435
0.0335743
0.0332514
0.0329768
0.0327502
0.0325696
0.0324317
0.0323323
0.0322661
0.0322281
0.0322126
0.0322147
0.0322294
0.0322528
0.032281
0.0323117
0.0323418
0.0323712
0.0323967
0.0324208
0.0324392
0.0324581
0.0324699
0.0324871
0.0324949
0.0325185
0.0325265
0.0325676
0.0409259
0.0409575
0.040956
0.0409598
0.0409405
0.0409191
0.040883
0.0408441
0.0407978
0.0407511
0.0407025
0.0406559
0.0406103
0.0405673
0.0405259
0.0404857
0.0404453
0.0404035
0.0403581
0.0403074
0.0402487
0.0401797
0.0400975
0.0399987
0.0398798
0.0397368
0.0395655
0.0393614
0.0391201
0.0388375
0.0385097
0.0381339
0.0377083
0.037232
0.0367058
0.0361316
0.0355128
0.0348538
0.0341604
0.0334389
0.0326966
0.0319412
0.0311807
0.0304235
0.0296778
0.028952
0.0282541
0.0275919
0.0269729
0.0264041
0.025892
0.0254424
0.0250608
0.0247517
0.024519
0.0243658
0.0242946
0.0243068
0.0244031
0.0245832
0.0248459
0.025189
0.0256094
0.0261029
0.0266641
0.0272867
0.027963
0.0286844
0.0294412
0.0302224
0.0310162
0.0318099
0.0325899
0.0333424
0.0340533
0.0347089
0.0352961
0.0358031
0.0362198
0.0365385
0.0367544
0.036866
0.036875
0.036787
0.0366108
0.0363582
0.0360433
0.0356816
0.0352896
0.0348832
0.0344773
0.0340849
0.0337168
0.0333815
0.0330846
0.0328294
0.0326169
0.0324465
0.0323158
0.0322215
0.0321593
0.0321246
0.0321124
0.0321183
0.0321372
0.0321655
0.032199
0.0322356
0.0322717
0.0323069
0.0323382
0.0323675
0.0323906
0.0324133
0.0324283
0.0324477
0.0324571
0.0324809
0.0324892
0.0325283
0.0409815
0.0410114
0.0410079
0.0410083
0.0409854
0.0409597
0.0409195
0.0408767
0.0408272
0.0407779
0.0407277
0.0406799
0.040634
0.0405911
0.0405498
0.0405097
0.0404689
0.0404256
0.0403774
0.0403216
0.0402552
0.0401748
0.0400764
0.0399559
0.0398085
0.0396293
0.039413
0.0391545
0.0388491
0.0384926
0.0380818
0.0376145
0.0370902
0.0365096
0.035875
0.0351901
0.0344598
0.0336901
0.0328879
0.0320609
0.031217
0.0303647
0.0295125
0.0286689
0.0278423
0.0270411
0.0262732
0.025546
0.0248666
0.0242416
0.0236771
0.0231783
0.0227501
0.0223965
0.022121
0.0219262
0.0218143
0.0217863
0.0218429
0.0219838
0.0222079
0.0225135
0.0228977
0.0233571
0.0238873
0.0244828
0.0251374
0.0258437
0.0265936
0.0273777
0.0281859
0.0290071
0.0298292
0.0306398
0.0314256
0.0321735
0.0328703
0.0335035
0.0340617
0.0345351
0.034916
0.0351996
0.0353838
0.0354703
0.0354639
0.0353727
0.0352079
0.0349827
0.0347119
0.0344108
0.0340943
0.0337762
0.0334686
0.0331811
0.0329213
0.032694
0.0325018
0.0323456
0.0322244
0.0321359
0.0320771
0.0320443
0.0320332
0.0320399
0.0320599
0.0320897
0.0321255
0.0321648
0.0322042
0.0322431
0.0322782
0.0323112
0.0323379
0.0323636
0.0323812
0.032402
0.0324128
0.032436
0.0324443
0.0324803
0.0410494
0.0410766
0.0410707
0.0410671
0.0410403
0.0410098
0.0409655
0.0409185
0.0408656
0.0408135
0.0407612
0.040712
0.040665
0.0406211
0.0405786
0.0405366
0.0404928
0.0404448
0.0403894
0.0403234
0.0402425
0.0401424
0.0400181
0.0398641
0.0396745
0.0394435
0.0391651
0.0388341
0.0384457
0.0379964
0.037484
0.036908
0.0362692
0.0355705
0.0348157
0.0340103
0.033161
0.0322749
0.0313602
0.0304255
0.0294794
0.0285308
0.0275887
0.0266616
0.0257581
0.024886
0.0240532
0.0232665
0.0225327
0.0218576
0.0212466
0.0207045
0.0202353
0.0198426
0.0195291
0.019297
0.019148
0.0190829
0.019102
0.0192051
0.0193912
0.0196586
0.020005
0.0204275
0.0209225
0.0214854
0.0221113
0.0227942
0.0235273
0.0243031
0.0251132
0.0259484
0.0267986
0.027653
0.0284999
0.0293273
0.030123
0.0308744
0.0315695
0.0321973
0.0327477
0.033213
0.0335873
0.033868
0.0340554
0.0341532
0.0341682
0.0341102
0.033991
0.0338241
0.0336237
0.0334036
0.0331768
0.0329543
0.0327453
0.0325566
0.032393
0.0322569
0.032149
0.0320688
0.0320143
0.0319831
0.0319719
0.0319775
0.0319962
0.032025
0.0320602
0.0320996
0.0321399
0.0321802
0.0322172
0.0322522
0.0322812
0.0323087
0.0323283
0.03235
0.0323618
0.0323839
0.0323922
0.0324243
0.0411298
0.0411533
0.0411448
0.0411363
0.0411053
0.0410698
0.041021
0.0409697
0.0409134
0.0408583
0.0408036
0.0407523
0.0407033
0.0406569
0.0406113
0.0405648
0.0405146
0.0404575
0.0403895
0.0403062
0.0402023
0.0400723
0.0399098
0.0397082
0.0394607
0.0391607
0.0388022
0.03838
0.0378903
0.0373307
0.0367008
0.0360017
0.0352365
0.0344097
0.0335272
0.0325961
0.0316245
0.0306209
0.0295943
0.028554
0.0275094
0.0264697
0.0254438
0.0244404
0.0234676
0.0225331
0.021644
0.0208067
0.0200271
0.0193105
0.0186613
0.0180837
0.0175808
0.0171556
0.0168101
0.0165461
0.0163645
0.016266
0.0162507
0.016318
0.016467
0.0166962
0.0170037
0.0173869
0.017843
0.0183682
0.0189586
0.0196095
0.0203156
0.021071
0.0218692
0.0227028
0.0235638
0.0244435
0.0253323
0.0262199
0.0270956
0.0279479
0.0287653
0.0295361
0.0302494
0.0308949
0.0314638
0.0319495
0.0323475
0.0326565
0.0328782
0.0330173
0.0330816
0.0330812
0.033028
0.0329348
0.0328145
0.0326792
0.0325396
0.0324047
0.0322813
0.0321741
0.0320861
0.0320183
0.0319708
0.0319424
0.0319311
0.0319349
0.0319507
0.0319763
0.0320085
0.0320454
0.0320838
0.032123
0.0321596
0.0321947
0.0322242
0.0322521
0.0322724
0.032294
0.0323063
0.0323268
0.0323347
0.0323624
0.0412243
0.0412429
0.0412314
0.0412174
0.0411822
0.0411412
0.0410881
0.0410323
0.0409725
0.0409139
0.0408563
0.0408018
0.0407493
0.0406985
0.040647
0.0405925
0.0405312
0.0404592
0.0403712
0.0402617
0.0401241
0.0399515
0.0397364
0.0394711
0.0391482
0.0387611
0.038304
0.0377727
0.0371648
0.0364798
0.0357191
0.0348862
0.0339862
0.0330255
0.0320118
0.0309539
0.029861
0.0287428
0.0276092
0.0264699
0.0253347
0.0242129
0.0231133
0.0220443
0.0210135
0.0200281
0.0190942
0.0182178
0.0174036
0.0166561
0.015979
0.0153754
0.0148478
0.0143984
0.0140286
0.0137394
0.0135316
0.0134053
0.0133603
0.0133959
0.0135111
0.0137045
0.0139745
0.0143188
0.014735
0.0152201
0.0157711
0.0163843
0.0170556
0.0177806
0.0185545
0.0193717
0.0202263
0.0211118
0.0220207
0.0229451
0.0238762
0.0248045
0.0257198
0.0266113
0.027468
0.0282786
0.0290325
0.0297198
0.0303322
0.0308632
0.0313091
0.0316687
0.0319444
0.0321413
0.0322672
0.0323324
0.0323481
0.0323266
0.0322794
0.0322173
0.0321494
0.0320831
0.0320238
0.0319751
0.0319389
0.031916
0.0319061
0.0319081
0.0319206
0.0319417
0.0319692
0.0320016
0.0320361
0.0320719
0.032106
0.0321392
0.0321675
0.0321944
0.0322144
0.0322349
0.0322469
0.0322654
0.0322727
0.0322959
0.0413332
0.0413456
0.0413309
0.0413108
0.0412712
0.0412246
0.0411673
0.0411068
0.0410432
0.0409806
0.0409192
0.0408602
0.0408024
0.0407445
0.0406836
0.0406163
0.0405381
0.0404437
0.0403268
0.0401802
0.0399963
0.0397666
0.0394828
0.0391366
0.0387205
0.0382283
0.0376553
0.0369991
0.036259
0.0354368
0.0345363
0.033563
0.0325243
0.0314284
0.0302849
0.0291036
0.0278952
0.02667
0.0254386
0.0242111
0.0229973
0.0218061
0.0206462
0.0195252
0.0184501
0.017427
0.0164615
0.0155583
0.0147213
0.0139539
0.0132591
0.012639
0.0120954
0.0116297
0.0112428
0.0109351
0.010707
0.0105581
0.0104881
0.010496
0.010581
0.0107415
0.0109761
0.0112827
0.0116593
0.0121037
0.0126131
0.0131849
0.013816
0.0145032
0.015243
0.0160316
0.0168648
0.017738
0.0186463
0.0195838
0.0205443
0.0215205
0.0225044
0.023487
0.0244585
0.0254082
0.026325
0.0271973
0.0280141
0.0287648
0.0294405
0.0300344
0.0305423
0.030963
0.0312988
0.0315549
0.0317395
0.0318628
0.0319361
0.0319711
0.031979
0.0319698
0.0319517
0.0319311
0.0319129
0.0319
0.0318941
0.031896
0.0319053
0.0319216
0.0319434
0.0319697
0.0319985
0.032029
0.0320586
0.0320879
0.0321133
0.0321375
0.0321558
0.0321743
0.0321853
0.0322013
0.0322077
0.0322266
0.0414572
0.041462
0.0414441
0.0414173
0.0413735
0.0413211
0.0412595
0.0411942
0.0411264
0.0410591
0.0409927
0.0409273
0.0408614
0.0407928
0.0407178
0.0406319
0.0405294
0.0404036
0.0402469
0.0400506
0.0398058
0.0395032
0.0391336
0.0386889
0.0381621
0.0375483
0.0368445
0.0360503
0.0351675
0.0342004
0.033155
0.0320393
0.0308625
0.0296348
0.028367
0.0270705
0.0257565
0.0244361
0.02312
0.0218184
0.0205407
0.0192954
0.0180904
0.0169324
0.0158274
0.0147807
0.0137967
0.0128789
0.0120304
0.0112537
0.0105506
0.00992279
0.00937117
0.00889649
0.00849912
0.00817913
0.00793633
0.00777025
0.00768017
0.00766519
0.00772414
0.00785568
0.0080583
0.0083303
0.00866983
0.00907494
0.00954352
0.0100734
0.0106623
0.011308
0.0120079
0.0127595
0.0135603
0.0144073
0.0152974
0.0162272
0.0171926
0.0181889
0.0192107
0.0202515
0.0213036
0.0223582
0.023405
0.0244329
0.0254296
0.0263823
0.0272783
0.0281056
0.028854
0.0295154
0.0300849
0.0305613
0.0309472
0.0312485
0.0314743
0.0316357
0.0317446
0.0318134
0.031853
0.0318734
0.0318824
0.0318861
0.0318887
0.0318931
0.0319009
0.0319128
0.0319286
0.031948
0.0319698
0.0319935
0.032017
0.0320408
0.0320616
0.0320818
0.0320971
0.0321127
0.0321219
0.0321352
0.0321405
0.0321555
0.0415963
0.041592
0.0415708
0.0415367
0.041489
0.0414307
0.0413649
0.0412943
0.0412219
0.0411487
0.0410755
0.0410013
0.040924
0.0408402
0.0407454
0.0406336
0.0404979
0.0403301
0.0401211
0.039861
0.0395397
0.0391474
0.0386751
0.0381151
0.037462
0.0367124
0.0358659
0.0349245
0.0338927
0.0327772
0.0315866
0.0303309
0.0290213
0.0276696
0.0262878
0.0248881
0.0234823
0.0220817
0.0206968
0.0193375
0.0180124
0.0167292
0.0154947
0.0143146
0.0131938
0.0121364
0.0111455
0.0102239
0.00937351
0.008596
0.00789248
0.00726372
0.0067102
0.00623209
0.00582935
0.00550168
0.0052486
0.00506943
0.00496331
0.00492921
0.00496595
0.00507218
0.00524646
0.0054872
0.00579276
0.0061614
0.00659137
0.00708089
0.00762822
0.00823163
0.00888947
0.00960013
0.0103621
0.0111737
0.0120336
0.0129399
0.0138908
0.0148839
0.0159163
0.0169841
0.0180825
0.0192052
0.0203443
0.0214905
0.0226321
0.0237561
0.0248482
0.025893
0.0268753
0.0277809
0.0285974
0.029316
0.0299314
0.0304434
0.0308557
0.0311766
0.031417
0.03159
0.0317092
0.0317876
0.0318368
0.0318663
0.0318839
0.0318952
0.0319039
0.0319128
0.031923
0.0319354
0.0319494
0.0319653
0.0319813
0.0319981
0.032013
0.0320278
0.032039
0.0320507
0.0320575
0.0320678
0.0320718
0.0320836
0.04175
0.0417353
0.0417108
0.0416691
0.0416176
0.0415533
0.0414833
0.041407
0.041329
0.0412483
0.0411662
0.0410798
0.0409869
0.0408824
0.0407607
0.0406145
0.0404353
0.0402133
0.0399382
0.039599
0.0391852
0.0386868
0.0380955
0.0374053
0.0366125
0.0357163
0.0347189
0.0336252
0.0324423
0.0311795
0.0298478
0.0284592
0.0270264
0.0255625
0.0240805
0.0225929
0.0211118
0.0196481
0.0182117
0.0168117
0.0154557
0.0141503
0.0129009
0.0117122
0.0105877
0.00953037
0.00854236
0.00762532
0.00678046
0.00600856
0.00531012
0.00468536
0.00413427
0.00365665
0.00325214
0.00292021
0.00266018
0.00247123
0.00235242
0.00230267
0.00232077
0.00240542
0.00255521
0.00276865
0.00304421
0.00338033
0.00377545
0.00422805
0.0047367
0.00530007
0.00591697
0.0065864
0.00730754
0.00807976
0.00890258
0.00977565
0.0106986
0.0116711
0.0126923
0.013761
0.014875
0.016031
0.0172244
0.0184482
0.0196936
0.0209492
0.0222009
0.0234326
0.0246265
0.0257636
0.0268254
0.0277952
0.0286593
0.0294088
0.03004
0.0305549
0.0309609
0.0312696
0.0314955
0.0316542
0.0317608
0.0318292
0.0318709
0.0318953
0.031909
0.0319174
0.0319232
0.0319289
0.031935
0.0319424
0.0319501
0.0319589
0.0319667
0.0319751
0.0319811
0.0319884
0.0319921
0.0319994
0.0320019
0.0320113
0.0419173
0.0418906
0.0418629
0.0418133
0.0417584
0.0416879
0.0416136
0.0415307
0.0414459
0.0413557
0.0412617
0.0411592
0.0410455
0.0409136
0.0407569
0.0405662
0.0403319
0.0400425
0.0396867
0.039253
0.0387307
0.0381108
0.0373865
0.0365536
0.0356112
0.0345612
0.033409
0.0321621
0.0308305
0.0294261
0.0279617
0.0264512
0.0249085
0.0233476
0.0217818
0.0202239
0.0186851
0.0171759
0.0157053
0.014281
0.0129093
0.0115955
0.0103437
0.00915736
0.00803874
0.00698967
0.0060114
0.00510472
0.00427011
0.00350775
0.00281763
0.00219957
0.00165322
0.00117814
0.000773764
0.000439428
0.00017436
-2.23144e-05
-0.000151575
-0.000214502
-0.000212273
-0.000146159
-1.75053e-05
0.000172281
0.000421755
0.000729463
0.00109398
0.00151393
0.00198806
0.00251526
0.00309461
0.00372543
0.00440732
0.00514016
0.00592417
0.00675984
0.00764793
0.00858934
0.00958502
0.0106357
0.0117418
0.0129027
0.0141168
0.0153806
0.0166886
0.0180325
0.0194008
0.0207788
0.0221486
0.0234894
0.0247786
0.0259932
0.0271116
0.0281152
0.028991
0.0297321
0.0303388
0.0308183
0.0311832
0.03145
0.0316367
0.0317613
0.0318398
0.0318861
0.0319108
0.0319222
0.0319259
0.031926
0.0319245
0.0319232
0.0319221
0.0319222
0.031922
0.0319233
0.0319233
0.0319255
0.0319256
0.0319298
0.0319309
0.0319386
0.0420963
0.0420561
0.0420256
0.0419678
0.0419097
0.0418329
0.0417538
0.0416632
0.04157
0.0414676
0.0413582
0.0412348
0.041094
0.040927
0.040726
0.0404798
0.0401777
0.0398069
0.0393557
0.0388123
0.038167
0.0374121
0.036543
0.0355583
0.03446
0.0332533
0.0319464
0.0305498
0.0290763
0.0275397
0.0259548
0.0243367
0.0227002
0.0210596
0.0194281
0.0178177
0.016239
0.0147013
0.0132122
0.0117778
0.0104033
0.00909242
0.00784797
0.00667201
0.00556588
0.00453042
0.00356607
0.00267296
0.00185099
0.00109993
0.000419407
-0.000191026
-0.000731893
-0.00120378
-0.00160734
-0.00194328
-0.0022124
-0.00241557
-0.00255373
-0.00262794
-0.00263931
-0.00258905
-0.00247845
-0.00230883
-0.00208157
-0.00179804
-0.0014596
-0.00106752
-0.000622978
-0.000126996
0.000419626
0.00101634
0.00166293
0.00235951
0.00310662
0.00390519
0.00475658
0.00566254
0.00662508
0.0076464
0.00872863
0.00987359
0.0110823
0.0123547
0.0136886
0.0150797
0.0165204
0.0179993
0.0195008
0.0210053
0.0224891
0.0239256
0.0252872
0.026547
0.0276816
0.0286735
0.0295129
0.0301988
0.0307385
0.0311464
0.0314415
0.031645
0.0317775
0.031858
0.031902
0.0319219
0.0319267
0.0319231
0.0319149
0.0319053
0.0318951
0.0318862
0.0318776
0.0318711
0.0318646
0.0318613
0.0318574
0.0318587
0.0318581
0.031865
0.0422841
0.0422293
0.0421963
0.0421299
0.0420691
0.0419854
0.0419009
0.0418013
0.0416974
0.0415797
0.0414504
0.0413004
0.0411254
0.0409145
0.0406588
0.0403453
0.0399623
0.0394961
0.0389351
0.0382681
0.037487
0.0365863
0.0355641
0.0344221
0.0331656
0.0318032
0.030346
0.0288074
0.0272024
0.0255467
0.0238564
0.0221474
0.0204347
0.0187325
0.0170532
0.0154078
0.0138056
0.0122544
0.0107601
0.00932751
0.0079601
0.0066603
0.00542972
0.00426928
0.00317944
0.00216025
0.00121152
0.000332894
-0.000476087
-0.00121596
-0.00188727
-0.00249062
-0.0030266
-0.00349584
-0.00389899
-0.00423674
-0.00450984
-0.0047191
-0.00486541
-0.00494974
-0.00497314
-0.00493672
-0.00484171
-0.00468934
-0.00448093
-0.00421778
-0.00390119
-0.00353238
-0.00311251
-0.00264255
-0.0021233
-0.00155529
-0.000938718
-0.000273431
0.000441168
0.00120615
0.00202309
0.00289408
0.00382171
0.00480898
0.0058592
0.00697575
0.00816178
0.00941979
0.0107511
0.012155
0.0136282
0.0151639
0.0167507
0.0183724
0.0200074
0.021629
0.0232068
0.0247078
0.0261001
0.0273549
0.0284508
0.029375
0.0301258
0.0307113
0.0311482
0.031459
0.031668
0.0317993
0.0318743
0.0319104
0.0319212
0.0319167
0.0319034
0.0318862
0.0318672
0.0318492
0.0318318
0.0318174
0.0318039
0.031795
0.0317868
0.0317853
0.031783
0.0317897
0.0424771
0.0424065
0.0423713
0.0422964
0.0422328
0.0421418
0.0420509
0.0419404
0.0418231
0.0416862
0.041532
0.0413488
0.0411317
0.0408674
0.0405459
0.0401528
0.0396756
0.0391006
0.0384167
0.0376141
0.036687
0.0356326
0.0344524
0.0331515
0.0317387
0.0302256
0.0286264
0.0269568
0.0252338
0.0234745
0.0216959
0.0199138
0.0181431
0.016397
0.0146869
0.0130221
0.0114105
0.00985805
0.00836913
0.00694692
0.00559347
0.00430998
0.00309697
0.00195449
0.000882254
-0.000120246
-0.00105363
-0.00191857
-0.00271574
-0.00344582
-0.00410945
-0.00470722
-0.00523973
-0.00570757
-0.00611132
-0.00645161
-0.00672909
-0.00694449
-0.0070986
-0.00719229
-0.00722652
-0.00720232
-0.00712081
-0.00698316
-0.00679061
-0.00654439
-0.00624577
-0.00589594
-0.00549603
-0.00504704
-0.0045498
-0.00400488
-0.00341257
-0.00277281
-0.00208509
-0.00134843
-0.000561311
0.000278376
0.00117334
0.00212691
0.00314291
0.00422563
0.00537956
0.00660909
0.00791803
0.00930905
0.0107828
0.0123372
0.0139659
0.0156579
0.017396
0.0191567
0.0209102
0.0226218
0.0242535
0.0257676
0.0271304
0.0283161
0.02931
0.0301098
0.0307257
0.0311774
0.0314911
0.0316952
0.0318169
0.0318802
0.0319038
0.0319027
0.0318866
0.0318631
0.031836
0.0318092
0.0317831
0.0317606
0.0317401
0.0317254
0.0317127
0.0317085
0.0317044
0.0317114
0.0426705
0.0425834
0.0425464
0.0424627
0.0423964
0.0422972
0.0421987
0.0420748
0.041941
0.0417803
0.0415955
0.0413719
0.0411039
0.0407761
0.0403775
0.0398925
0.0393086
0.0386123
0.0377942
0.0368464
0.0357662
0.0345538
0.0332146
0.031757
0.0301933
0.0285382
0.0268084
0.0250218
0.0231967
0.021351
0.0195017
0.0176645
0.0158532
0.0140795
0.0123534
0.0106825
0.00907273
0.00752836
0.00605221
0.00464597
0.00331044
0.00204574
0.000851549
-0.000272779
-0.00132805
-0.00231513
-0.00323492
-0.00408823
-0.00487583
-0.00559842
-0.00625661
-0.00685095
-0.00738195
-0.00785011
-0.00825591
-0.00859985
-0.0088825
-0.00910445
-0.0092664
-0.00936909
-0.00941339
-0.00940024
-0.00933064
-0.0092057
-0.00902656
-0.00879442
-0.00851047
-0.0081759
-0.00779182
-0.00735925
-0.00687908
-0.00635196
-0.00577831
-0.00515821
-0.00449135
-0.00377696
-0.00301375
-0.00219982
-0.00133263
-0.000408965
0.000575099
0.00162413
0.00274324
0.0039379
0.00521362
0.00657545
0.00802734
0.00957124
0.011206
0.0129262
0.0147206
0.0165712
0.0184526
0.0203318
0.0221692
0.0239216
0.0255455
0.0270022
0.0282621
0.0293088
0.0301408
0.0307709
0.0312228
0.0315274
0.0317169
0.031822
0.0318683
0.0318766
0.0318613
0.0318335
0.0317993
0.0317642
0.0317296
0.0316991
0.0316715
0.0316512
0.0316339
0.0316269
0.031621
0.0316288
0.0428589
0.0427544
0.042716
0.0426234
0.0425541
0.0424457
0.0423378
0.0421979
0.0420437
0.0418541
0.0416324
0.0413606
0.0410326
0.0406308
0.0401439
0.0395553