/*--------------------------------*- C++ -*----------------------------------*\
| =========                 |                                                 |
| \\      /  F ield         | OpenFOAM: The Open Source CFD Toolbox           |
|  \\    /   O peration     | Version:  2406                                  |
|   \\  /    A nd           | Website:  www.openfoam.com                      |
|    \\/     M anipulation  |                                                 |
\*---------------------------------------------------------------------------*/
FoamFile
{
    version     2.0;
    format      ascii;
    arch        "LSB;label=32;scalar=64";
    class       surfaceScalarField;
    location    "30.8";
    object      phi;
}
// * * * * * * * * * * * * * * * * * * * * * * * * * * * * * * * * * * * * * //

dimensions      [0 3 -1 0 0 0 0];

oriented        oriented;

internalField   nonuniform List<scalar> 
7080
(
2.98758e-07
-2.98342e-07
1.50002e-06
-1.21146e-06
3.15309e-06
-1.65102e-06
4.83022e-06
-1.68674e-06
6.23383e-06
-1.40249e-06
7.2217e-06
-9.94293e-07
7.80144e-06
-5.7798e-07
8.03526e-06
-2.36707e-07
8.03055e-06
7.45494e-09
7.85435e-06
1.76234e-07
7.54546e-06
3.12773e-07
7.07185e-06
4.76314e-07
6.3656e-06
7.11974e-07
5.31391e-06
1.05764e-06
3.79504e-06
1.5277e-06
1.67424e-06
2.13107e-06
-1.17489e-06
2.86237e-06
-4.87387e-06
3.71447e-06
-9.5229e-06
4.66748e-06
-1.51969e-05
5.69525e-06
-2.19245e-05
6.75222e-06
-2.96709e-05
7.77433e-06
-3.83119e-05
8.67177e-06
-4.76208e-05
9.34119e-06
-5.72606e-05
9.67156e-06
-6.67936e-05
9.56232e-06
-7.57026e-05
8.93378e-06
-8.34278e-05
7.74411e-06
-8.94088e-05
5.9926e-06
-9.31291e-05
3.72435e-06
-9.41563e-05
1.02314e-06
-9.21783e-05
-1.98983e-06
-8.70331e-05
-5.16441e-06
-7.87368e-05
-8.32224e-06
-6.75024e-05
-1.12662e-05
-5.37541e-05
-1.37849e-05
-3.81238e-05
-1.56703e-05
-2.14328e-05
-1.67332e-05
-4.64184e-06
-1.68333e-05
1.12201e-05
-1.59037e-05
2.51627e-05
-1.39807e-05
3.63459e-05
-1.12175e-05
4.42003e-05
-7.88111e-06
4.85043e-05
-4.32435e-06
4.94221e-05
-9.2817e-07
4.74548e-05
1.96339e-06
4.3344e-05
4.11657e-06
3.79137e-05
5.43937e-06
3.1939e-05
5.9906e-06
2.60257e-05
5.92749e-06
2.05853e-05
5.45887e-06
1.58246e-05
4.77325e-06
1.18125e-05
4.02884e-06
8.50545e-06
3.31509e-06
5.81853e-06
2.70107e-06
3.64729e-06
2.17457e-06
1.92289e-06
1.73629e-06
6.76345e-07
1.24597e-06
-1.05083e-08
6.96411e-07
-1.04147e-08
1.15643e-06
-1.44496e-06
3.80689e-06
-3.86294e-06
7.13404e-06
-4.96288e-06
1.03878e-05
-4.9386e-06
1.30738e-05
-4.0767e-06
1.48958e-05
-2.81548e-06
1.58049e-05
-1.48102e-06
1.58367e-05
-2.7061e-07
1.51027e-05
7.42037e-07
1.36484e-05
1.62543e-06
1.14611e-05
2.49597e-06
8.40298e-06
3.52595e-06
4.26214e-06
4.84346e-06
-1.24929e-06
6.55533e-06
-8.43055e-06
8.69248e-06
-1.7576e-05
1.12551e-05
-2.89227e-05
1.41834e-05
-4.26254e-05
1.73864e-05
-5.8696e-05
2.07028e-05
-7.69548e-05
2.39138e-05
-9.69846e-05
2.67361e-05
-0.000118139
2.88768e-05
-0.000139588
3.00637e-05
-0.000160404
3.00971e-05
-0.00017965
2.8857e-05
-0.000196458
2.63151e-05
-0.000210084
2.25125e-05
-0.00021993
1.75551e-05
-0.00022555
1.15909e-05
-0.000226642
4.80932e-06
-0.000223037
-2.57249e-06
-0.0002147
-1.03017e-05
-0.000201728
-1.80963e-05
-0.000184362
-2.56345e-05
-0.000162999
-3.25638e-05
-0.000138209
-3.84994e-05
-0.000110746
-4.30514e-05
-8.15478e-05
-4.58457e-05
-5.17156e-05
-4.65794e-05
-2.2473e-05
-4.5064e-05
4.9133e-06
-4.12907e-05
2.92227e-05
-3.54618e-05
4.94056e-05
-2.80113e-05
6.46845e-05
-1.95675e-05
7.46597e-05
-1.08828e-05
7.93503e-05
-2.72469e-06
7.9211e-05
4.24648e-06
7.50562e-05
9.57135e-06
6.79594e-05
1.30609e-05
5.90664e-05
1.47871e-05
4.94535e-05
1.50429e-05
3.9964e-05
1.42307e-05
3.11839e-05
1.27862e-05
2.34085e-05
1.10638e-05
1.67476e-05
9.34736e-06
1.11643e-05
7.73645e-06
6.61873e-06
6.27497e-06
3.12568e-06
4.72186e-06
8.28418e-07
2.99346e-06
8.08228e-07
1.65732e-06
-3.10241e-06
5.10436e-06
-7.32557e-06
9.22294e-06
-9.0798e-06
1.30271e-05
-8.75577e-06
1.5942e-05
-6.99175e-06
1.7593e-05
-4.47447e-06
1.78919e-05
-1.77854e-06
1.68117e-05
8.07091e-07
1.43901e-05
3.1675e-06
1.05621e-05
5.45561e-06
5.1761e-06
7.88866e-06
-2.06908e-06
1.07778e-05
-1.15489e-05
1.43338e-05
-2.36888e-05
1.87075e-05
-3.88666e-05
2.38866e-05
-5.73553e-05
2.97636e-05
-7.9214e-05
3.60668e-05
-0.000104206
4.24068e-05
-0.000131731
4.82606e-05
-0.000160866
5.30852e-05
-0.000190473
5.63837e-05
-0.000219364
5.78125e-05
-0.000246438
5.71869e-05
-0.00027078
5.449e-05
-0.000291684
4.98125e-05
-0.000308651
4.33285e-05
-0.000321342
3.52436e-05
-0.000329545
2.57893e-05
-0.000333135
1.51993e-05
-0.000332043
3.72356e-06
-0.000326246
-8.37769e-06
-0.000315761
-2.08088e-05
-0.000300655
-3.3238e-05
-0.000281067
-4.52711e-05
-0.000257233
-5.64571e-05
-0.000229524
-6.62761e-05
-0.000198478
-7.41722e-05
-0.000164826
-7.95755e-05
-0.000129504
-8.19801e-05
-9.36368e-05
-8.10066e-05
-5.84877e-05
-7.65082e-05
-2.53809e-05
-6.86282e-05
4.41881e-06
-5.78571e-05
2.98116e-05
-4.49938e-05
4.99836e-05
-3.10721e-05
6.44647e-05
-1.72114e-05
7.31853e-05
-4.46559e-06
7.64607e-05
6.31064e-06
7.49865e-05
1.4559e-05
6.97374e-05
2.00591e-05
6.18751e-05
2.29333e-05
5.25465e-05
2.35809e-05
4.27738e-05
2.25849e-05
3.32969e-05
2.05564e-05
2.46141e-05
1.80524e-05
1.6952e-05
1.54071e-05
1.04628e-05
1.27835e-05
5.23652e-06
9.949e-06
1.58418e-06
6.66328e-06
2.39376e-06
1.93513e-06
-5.02812e-06
5.69656e-06
-1.10931e-05
9.89548e-06
-1.32653e-05
1.33945e-05
-1.22572e-05
1.56037e-05
-9.19215e-06
1.61276e-05
-5.00017e-06
1.48507e-05
-4.97782e-07
1.16581e-05
3.99651e-06
6.45216e-06
8.37274e-06
-1.01665e-06
1.2919e-05
-1.1102e-05
1.79693e-05
-2.42874e-05
2.39549e-05
-4.10582e-05
3.10957e-05
-6.18208e-05
3.9458e-05
-8.67409e-05
4.87928e-05
-0.00011563
5.86351e-05
-0.00014784
6.82562e-05
-0.000182304
7.6846e-05
-0.000217684
8.36127e-05
-0.000252612
8.79819e-05
-0.000285881
8.96189e-05
-0.00031656
8.84541e-05
-0.000343998
8.45846e-05
-0.000367782
7.82338e-05
-0.000387672
6.9663e-05
-0.000403537
5.91584e-05
-0.000415307
4.69845e-05
-0.000422939
3.34001e-05
-0.000426391
1.86396e-05
-0.000425613
2.94387e-06
-0.000420539
-1.3443e-05
-0.000411094
-3.02344e-05
-0.000397204
-4.70977e-05
-0.000378822
-6.36128e-05
-0.000355957
-7.92731e-05
-0.000328719
-9.34582e-05
-0.000297366
-0.000105464
-0.000262361
-0.000114517
-0.00022441
-0.000119866
-0.000184493
-0.000120862
-0.000143841
-0.000117104
-0.000103872
-0.000108548
-6.60662e-05
-9.56217e-05
-3.18167e-05
-7.92143e-05
-2.25904e-06
-6.06103e-05
2.18186e-05
-4.12822e-05
4.0032e-05
-2.26795e-05
5.23537e-05
-6.02225e-06
5.90983e-05
7.80084e-06
6.08571e-05
1.82795e-05
5.84966e-05
2.52761e-05
5.30384e-05
2.90163e-05
4.5591e-05
3.00172e-05
3.71431e-05
2.89831e-05
2.85386e-05
2.66475e-05
2.03317e-05
2.35949e-05
1.29679e-05
2.01449e-05
6.72411e-06
1.61738e-05
2.14497e-06
1.12469e-05
4.52645e-06
2.04702e-06
-7.07259e-06
5.7415e-06
-1.48012e-05
9.46621e-06
-1.69845e-05
1.19823e-05
-1.47825e-05
1.27103e-05
-9.91735e-06
1.12563e-05
-3.55075e-06
7.47202e-06
3.28939e-06
1.13185e-06
1.03364e-05
-8.03663e-06
1.75456e-05
-2.04937e-05
2.53795e-05
-3.67767e-05
3.42588e-05
-5.74433e-05
4.46286e-05
-8.28592e-05
5.65213e-05
-0.000113041
6.96508e-05
-0.00014748
8.32453e-05
-0.000185131
9.63023e-05
-0.000224549
0.000107692
-0.000264178
0.000116496
-0.000302624
0.000122083
-0.000338819
0.000124203
-0.000372038
0.000122867
-0.000401847
0.000118294
-0.000428016
0.000110786
-0.000450451
0.0001007
-0.000469133
8.83751e-05
-0.000484088
7.41386e-05
-0.000495351
5.82677e-05
-0.000502956
4.10176e-05
-0.000506912
2.26003e-05
-0.000507196
3.22503e-06
-0.000503744
-1.69083e-05
-0.000496439
-3.75595e-05
-0.000485121
-5.84444e-05
-0.000469591
-7.91782e-05
-0.000449637
-9.92688e-05
-0.000425074
-0.000118068
-0.000395801
-0.000134786
-0.000361884
-0.000148485
-0.000323641
-0.00015816
-0.00028173
-0.00016282
-0.000237206
-0.000161672
-0.000191514
-0.000154279
-0.000146393
-0.000140774
-0.000103688
-0.000121944
-6.50764e-05
-9.9236e-05
-3.18397e-05
-7.45269e-05
-4.69945e-06
-4.98177e-05
1.61355e-05
-2.68513e-05
3.08665e-05
-6.91625e-06
3.99359e-05
9.22305e-06
4.40012e-05
2.12296e-05
4.38629e-05
2.91678e-05
4.04924e-05
3.34068e-05
3.48736e-05
3.46113e-05
2.79932e-05
3.35457e-05
2.06311e-05
3.09608e-05
1.35036e-05
2.729e-05
7.12906e-06
2.25451e-05
2.29922e-06
1.60959e-05
6.8253e-06
2.03296e-06
-9.09878e-06
5.2662e-06
-1.80418e-05
7.92379e-06
-1.96328e-05
8.75149e-06
-1.56141e-05
7.21826e-06
-8.3795e-06
2.94472e-06
7.20093e-07
-4.2784e-06
1.05131e-05
-1.48213e-05
2.08758e-05
-2.91545e-05
3.1876e-05
-4.79076e-05
4.41274e-05
-7.16525e-05
5.7998e-05
-0.000100725
7.36941e-05
-0.000134952
9.07397e-05
-0.000173535
0.000108224
-0.000215085
0.000124783
-0.000257903
0.000139106
-0.000300323
0.000150096
-0.000340986
0.000157141
-0.000378929
0.000160005
-0.000413552
0.000158804
-0.000444532
0.000153822
-0.00047174
0.000145477
-0.00049518
0.000134199
-0.000514943
0.000120437
-0.000531175
0.000104582
-0.000544051
8.69941e-05
-0.000553752
6.79527e-05
-0.000560444
4.76996e-05
-0.000564255
2.64079e-05
-0.00056526
4.23333e-06
-0.000563459
-1.86998e-05
-0.000558763
-4.22392e-05
-0.000550982
-6.62039e-05
-0.000539817
-9.0315e-05
-0.000524871
-0.000114184
-0.000505665
-0.000137239
-0.000481694
-0.000158719
-0.000452509
-0.000177631
-0.000417834
-0.000192796
-0.000377719
-0.000202898
-0.00033269
-0.000206665
-0.000283873
-0.000203064
-0.000233018
-0.000191601
-0.000182379
-0.000172564
-0.000134397
-0.000147202
-9.1288e-05
-0.00011763
-5.45964e-05
-8.65078e-05
-2.50154e-05
-5.64386e-05
-2.45935e-06
-2.94794e-05
1.35984e-05
-6.84794e-06
2.38938e-05
1.09243e-05
2.92018e-05
2.38443e-05
3.03967e-05
3.22033e-05
2.83766e-05
3.66157e-05
2.41251e-05
3.77924e-05
1.85222e-05
3.65481e-05
1.2462e-05
3.33506e-05
6.68085e-06
2.83089e-05
2.15841e-06
2.06243e-05
8.97208e-06
1.85193e-06
-1.0948e-05
4.18865e-06
-2.03865e-05
5.18722e-06
-2.06268e-05
3.66976e-06
-1.41003e-05
-8.26456e-07
-3.88092e-06
-8.67743e-06
8.57108e-06
-2.01902e-05
2.20284e-05
-3.58867e-05
3.65752e-05
-5.6379e-05
5.23721e-05
-8.2283e-05
7.00369e-05
-0.000113887
8.96073e-05
-0.000150901
0.000110716
-0.000192297
0.000132144
-0.000236447
0.000152384
-0.000281463
0.000169809
-0.000325596
0.000183251
-0.000367475
0.000191989
-0.000406166
0.000195847
-0.0004411
0.000194955
-0.000471996
0.000189719
-0.000498786
0.00018063
-0.000521561
0.000168271
-0.000540533
0.000153189
-0.000555993
0.000135915
-0.000568281
0.000116886
-0.000577751
9.64767e-05
-0.000584743
7.49534e-05
-0.000589562
5.25224e-05
-0.000592456
2.92994e-05
-0.000593598
5.36928e-06
-0.000593076
-1.92343e-05
-0.000590868
-4.44643e-05
-0.000586827
-7.02679e-05
-0.000580655
-9.65135e-05
-0.000571888
-0.00012298
-0.000559889
-0.000149271
-0.000543857
-0.000174786
-0.000522882
-0.000198642
-0.000496049
-0.000219664
-0.000462608
-0.000236373
-0.000422195
-0.000247109
-0.000375099
-0.000250187
-0.000322476
-0.000244245
-0.000266454
-0.000228602
-0.000209982
-0.000203685
-0.000156387
-0.000171231
-0.000108669
-0.000134226
-6.88185e-05
-9.62871e-05
-3.74711e-05
-6.0819e-05
-1.41666e-05
-3.01461e-05
2.12798e-06
-5.35845e-06
1.25029e-05
1.34768e-05
1.80013e-05
2.67181e-05
1.95615e-05
3.50609e-05
1.81613e-05
3.92061e-05
1.47174e-05
3.99936e-05
1.02126e-05
3.78696e-05
5.53594e-06
3.29821e-05
1.76292e-06
2.44133e-05
1.07347e-05
1.42695e-06
-1.23732e-05
2.33931e-06
-2.1302e-05
1.03561e-06
-1.93217e-05
-3.48368e-06
-9.58194e-06
-1.16099e-05
4.24357e-06
-2.37344e-05
2.06947e-05
-4.02829e-05
3.85727e-05
-6.18732e-05
5.81635e-05
-8.90888e-05
7.95819e-05
-0.00012222
0.000103164
-0.000160906
0.000128286
-0.000203996
0.0001538
-0.000249689
0.000177828
-0.000295945
0.000198632
-0.000340903
0.000214755
-0.000383118
0.000225456
-0.000421605
0.000230463
-0.000455772
0.000230002
-0.000485351
0.000224519
-0.000510333
0.000214686
-0.000530921
0.000201202
-0.000547474
0.000184809
-0.000560453
0.000166153
-0.000570368
0.000145818
-0.000577734
0.000124241
-0.000583035
0.000101771
-0.000586705
7.86205e-05
-0.000589115
5.49341e-05
-0.000590566
3.07563e-05
-0.000591286
6.10023e-06
-0.000591425
-1.90811e-05
-0.00059104
-4.48297e-05
-0.000590082
-7.12042e-05
-0.000588359
-9.82111e-05
-0.000585504
-0.000125808
-0.00058093
-0.000153816
-0.000573794
-0.000181894
-0.000562986
-0.000209422
-0.000547166
-0.000235457
-0.000524877
-0.000258638
-0.000494766
-0.000277199
-0.000455898
-0.000289037
-0.00040816
-0.000291967
-0.000352641
-0.000284109
-0.000291849
-0.000264466
-0.000229588
-0.000233487
-0.00017032
-0.00019349
-0.000118117
-0.000148493
-7.55312e-05
-0.000103408
-4.31294e-05
-6.25561e-05
-1.99048e-05
-2.85887e-05
-4.25695e-06
-2.18159e-06
5.38568e-06
1.70704e-05
1.03002e-05
3.01353e-05
1.16223e-05
3.78813e-05
1.03547e-05
4.12497e-05
7.53855e-06
4.06863e-05
4.15841e-06
3.63494e-05
1.30182e-06
2.72738e-05
1.20278e-05
6.93042e-07
-1.30667e-05
-3.75286e-07
-2.02302e-05
-4.57613e-06
-1.51229e-05
-1.26457e-05
-1.50677e-06
-2.49263e-05
1.65224e-05
-4.18357e-05
3.76109e-05
-6.38865e-05
6.06233e-05
-9.16381e-05
8.59227e-05
-0.000125374
0.00011332
-0.000164741
0.00014254
-0.000208554
0.000172103
-0.000254919
0.000200173
-0.000301665
0.000224579
-0.000346784
0.00024376
-0.000388708
0.000256687
-0.000426351
0.00026311
-0.000459076
0.000263196
-0.000486624
0.000257561
-0.00050907
0.000246976
-0.000526754
0.000232383
-0.000540204
0.000214663
-0.000550051
0.00019467
-0.000556964
0.000173076
-0.000561579
0.000150443
-0.000564471
0.000127141
-0.000566133
0.000103439
-0.000566973
7.94626e-05
-0.000567322
5.52816e-05
-0.000567442
3.08718e-05
-0.000567543
6.193e-06
-0.000567784
-1.88518e-05
-0.000568275
-4.43524e-05
-0.000569068
-7.04285e-05
-0.000570127
-9.71712e-05
-0.00057129
-0.000124665
-0.00057221
-0.000152917
-0.000572282
-0.000181842
-0.000570568
-0.000211158
-0.000565737
-0.000240308
-0.000556073
-0.000268321
-0.000539571
-0.00029372
-0.00051419
-0.000314436
-0.000478278
-0.000327895
-0.000431142
-0.000331259
-0.000373648
-0.00032197
-0.000308647
-0.000298493
-0.000240906
-0.000261232
-0.000176279
-0.000213118
-0.000120126
-0.000159556
-7.56399e-05
-0.000107039
-4.3138e-05
-6.10832e-05
-2.09273e-05
-2.43881e-05
-6.69418e-06
2.84595e-06
1.55835e-06
2.1886e-05
5.42886e-06
3.40201e-05
6.17697e-06
4.05027e-05
4.95876e-06
4.19145e-05
2.83705e-06
3.84695e-05
8.72009e-07
2.92496e-05
1.29004e-05
-4.22561e-07
-1.26507e-05
-4.04299e-06
-1.66017e-05
-1.16748e-05
-7.50288e-06
-2.37336e-05
1.05588e-05
-4.05414e-05
3.3319e-05
-6.25168e-05
5.95902e-05
-9.01522e-05
8.82482e-05
-0.000123721
0.000119492
-0.000162944
0.000152533
-0.000206675
0.000186269
-0.000253019
0.000218438
-0.000299687
0.000246838
-0.000344523
0.000269406
-0.000385786
0.000285017
-0.000422272
0.000293163
-0.000453273
0.000294104
-0.000478555
0.000288469
-0.000498289
0.000277287
-0.00051297
0.000261647
-0.000523304
0.000242709
-0.000530098
0.000221448
-0.000534156
0.000198721
-0.000536214
0.000175127
-0.000536895
0.00015112
-0.000536702
0.000126943
-0.000536019
0.000102756
-0.000535137
7.85823e-05
-0.000534274
5.44228e-05
-0.000533598
3.02023e-05
-0.000533247
5.85306e-06
-0.000533349
-1.87378e-05
-0.00053402
-4.36663e-05
-0.00053537
-6.90623e-05
-0.000537483
-9.50387e-05
-0.000540396
-0.000121732
-0.000544042
-0.00014925
-0.000548178
-0.000177685
-0.000552287
-0.000207027
-0.000555456
-0.000237119
-0.000556262
-0.000267496
-0.000552714
-0.00029725
-0.000542311
-0.000324825
-0.000522298
-0.000347896
-0.000490188
-0.000363361
-0.000444531
-0.000367622
-0.000385805
-0.000357218
-0.000317134
-0.000329902
-0.00024436
-0.000285894
-0.000174959
-0.000228956
-0.000115779
-0.000166223
-7.05373e-05
-0.000106328
-3.90461e-05
-5.58858e-05
-1.86739e-05
-1.75296e-05
-6.44175e-06
9.64654e-06
9.82757e-08
2.7478e-05
2.74874e-06
3.78445e-05
2.94113e-06
4.17219e-05
1.86899e-06
3.95332e-05
5.91681e-07
3.05283e-05
1.34863e-05
-1.91737e-06
-1.07405e-05
-8.56153e-06
-9.93624e-06
-1.99846e-05
3.90538e-06
-3.62598e-05
2.68528e-05
-5.77071e-05
5.47568e-05
-8.46703e-05
8.65691e-05
-0.000117458
0.00012103
-0.000155833
0.000157881
-0.000198824
0.000195522
-0.000244569
0.000232026
-0.000290763
0.000264632
-0.000335069
0.000291153
-0.000375584
0.000309924
-0.000410934
0.000320378
-0.000440352
0.000322585
-0.000463604
0.000317365
-0.000480968
0.000305838
-0.000493085
0.000289414
-0.000500846
0.000269415
-0.000505214
0.000247086
-0.00050712
0.00022336
-0.000507366
0.000198974
-0.000506598
0.000174363
-0.000505291
0.000149817
-0.000503779
0.000125432
-0.000502276
0.000101253
-0.00050092
7.72235e-05
-0.000499799
5.32962e-05
-0.000498977
2.93728e-05
-0.000498518
5.38464e-06
-0.000498499
-1.87695e-05
-0.000499015
-4.31641e-05
-0.000500189
-6.79052e-05
-0.000502159
-9.30853e-05
-0.000505075
-0.000118833
-0.000509066
-0.000145278
-0.00051419
-0.000172579
-0.000520355
-0.000200879
-0.000527201
-0.000230288
-0.000533938
-0.000260771
-0.000539178
-0.000292022
-0.000540782
-0.00032323
-0.000535853
-0.000352833
-0.000520961
-0.00037826
-0.000492729
-0.000395858
-0.000448822
-0.00040113
-0.000389191
-0.000389536
-0.000317199
-0.000357888
-0.000239901
-0.000306252
-0.000166659
-0.000239463
-0.000105859
-0.000167122
-6.14327e-05
-0.000100309
-3.21826e-05
-4.67745e-05
-1.4436e-05
-8.09765e-06
-4.57148e-06
1.76192e-05
1.13799e-07
3.31604e-05
1.59289e-06
4.02492e-05
1.32849e-06
3.97972e-05
4.80512e-07
3.13832e-05
1.39678e-05
-3.77861e-06
-6.97932e-06
-1.38013e-05
1.12025e-07
-2.92031e-05
1.92771e-05
-4.97153e-05
4.73837e-05
-7.56399e-05
8.06583e-05
-0.000107129
0.000118069
-0.000144142
0.000158025
-0.000185808
0.000199553
-0.000230507
0.000240206
-0.000275899
0.00027742
-0.000319585
0.000308306
-0.000359425
0.000330993
-0.000393908
0.000344396
-0.000422128
0.000348595
-0.000443859
0.000344307
-0.000459429
0.000332932
-0.000469635
0.000316034
-0.000475509
0.000295285
-0.000478176
0.000272075
-0.000478662
0.000247568
-0.000477834
0.000222525
-0.000476334
0.000197471
-0.000474608
0.000172632
-0.000472921
0.000148129
-0.000471418
0.000123928
-0.000470151
9.9988e-05
-0.000469132
7.62065e-05
-0.000468349
5.25183e-05
-0.000467797
2.8828e-05
-0.000467488
5.08417e-06
-0.000467459
-1.8788e-05
-0.00046778
-4.28306e-05
-0.000468559
-6.71134e-05
-0.000469938
-9.16918e-05
-0.000472099
-0.000116659
-0.000475246
-0.000142116
-0.000479593
-0.000168218
-0.000485312
-0.000195146
-0.000492464
-0.000223124
-0.000500859
-0.000252364
-0.000509879
-0.000282991
-0.000518237
-0.000314862
-0.000523753
-0.000347308
-0.000523233
-0.000378772
-0.00051264
-0.000406445
-0.000487719
-0.000426047
-0.000445198
-0.000432057
-0.000384455
-0.000418632
-0.000309161
-0.000381549
-0.000227845
-0.000320782
-0.000152023
-0.000242946
-9.15014e-05
-0.000160833
-4.96999e-05
-8.8578e-05
-2.38939e-05
-3.39078e-05
-9.3194e-06
3.04244e-06
-2.03256e-06
2.58689e-05
8.18909e-07
3.7397e-05
1.19848e-06
3.9412e-05
5.39784e-07
3.20426e-05
1.45035e-05
-5.88232e-06
-1.11305e-06
-1.94149e-05
1.36877e-05
-3.87307e-05
3.8561e-05
-6.32326e-05
7.19201e-05
-9.31572e-05
0.000110563
-0.000128341
0.000153279
-0.000168284
0.000197957
-0.000211483
0.000242772
-0.000255848
0.000284565
-0.000298839
0.000320427
-0.000338218
0.000347682
-0.000372207
0.000364994
-0.0003998
0.00037199
-0.000420662
0.000369467
-0.000435174
0.000358821
-0.000444199
0.000341967
-0.000448932
0.00032077
-0.000450602
0.000296964
-0.000450354
0.00027183
-0.000449087
0.000246307
-0.000447456
0.000220897
-0.000445862
0.000195881
-0.000444519
0.00017129
-0.000443492
0.000147105
-0.000442773
0.000123207
-0.0004423
9.95132e-05
-0.000442007
7.59094e-05
-0.000441832
5.23384e-05
-0.000441737
2.87251e-05
-0.000441705
5.04461e-06
-0.000441756
-1.87474e-05
-0.000441937
-4.26612e-05
-0.000442332
-6.67311e-05
-0.00044306
-9.09754e-05
-0.000444288
-0.000115445
-0.000446217
-0.000140199
-0.0004491
-0.000165348
-0.000453213
-0.000191045
-0.000458833
-0.000217516
-0.000466154
-0.000245054
-0.000475161
-0.000273993
-0.000485411
-0.00030462
-0.000495747
-0.000336978
-0.000503981
-0.000370542
-0.000506681
-0.000403748
-0.00049925
-0.000433479
-0.000476593
-0.000454714
-0.000434533
-0.000460693
-0.000371966
-0.000444117
-0.000293123
-0.000399626
-0.000208435
-0.000327633
-0.000131855
-0.00023741
-7.40438e-05
-0.000146384
-3.68117e-05
-7.11369e-05
-1.54061e-05
-1.83606e-05
-4.414e-06
1.48783e-05
2.32676e-07
3.2754e-05
1.29161e-06
3.83528e-05
7.02965e-07
3.26364e-05
1.52071e-05
-8.11664e-06
6.97478e-06
-2.51023e-05
3.07185e-05
-4.80656e-05
6.14741e-05
-7.60872e-05
9.9974e-05
-0.000109271
0.000143712
-0.000147051
0.000191078
-0.000188447
0.000239326
-0.000231443
0.000285778
-0.000273708
0.00032681
-0.000312756
0.000359479
-0.000346688
0.000381599
-0.000374213
0.000392521
-0.00039492
0.000392685
-0.000409086
0.000383633
-0.000417655
0.000367381
-0.000421877
0.000346189
-0.000423132
0.000322015
-0.000422627
0.000296457
-0.00042134
0.000270535
-0.000419917
0.000244883
-0.00041875
0.000219724
-0.00041799
0.00019512
-0.000417661
0.000170958
-0.000417685
0.00014713
-0.000417963
0.000123484
-0.000418378
9.99318e-05
-0.00041884
7.63737e-05
-0.000419272
5.27756e-05
-0.000419632
2.90909e-05
-0.0004199
5.32108e-06
-0.000420089
-1.855e-05
-0.000420233
-4.25077e-05
-0.000420396
-6.65583e-05
-0.000420667
-9.06934e-05
-0.000421172
-0.000114929
-0.000422073
-0.000139287
-0.000423586
-0.000163825
-0.000425975
-0.000188645
-0.000429568
-0.000213914
-0.000434719
-0.000239895
-0.000441751
-0.000266954
-0.000450808
-0.000295557
-0.00046162
-0.000326161
-0.000473145
-0.000359013
-0.000483176
-0.000393714
-0.00048801
-0.000428641
-0.000482495
-0.000460226
-0.000460717
-0.000482469
-0.000417709
-0.000487125
-0.000352154
-0.000465184
-0.000269363
-0.000410429
-0.000182335
-0.00032444
-0.000107559
-0.000221162
-5.52888e-05
-0.000123406
-2.42634e-05
-4.93889e-05
-7.93584e-06
-1.45152e-06
-6.70604e-07
2.54873e-05
1.36804e-06
3.63104e-05
8.96185e-07
3.3109e-05
1.61001e-05
-1.02685e-05
1.72187e-05
-3.0398e-05
5.09121e-05
-5.65117e-05
8.75387e-05
-8.73694e-05
0.000130881
-0.000122878
0.000179191
-0.000162034
0.000230269
-0.000203438
0.000280713
-0.000244738
0.000327104
-0.000283591
0.000365653
-0.00031775
0.000393658
-0.000345792
0.000409635
-0.000366987
0.000413732
-0.000381553
0.00040725
-0.000390321
0.000392414
-0.000394644
0.000371704
-0.000395944
0.000347499
-0.000395567
0.000321639
-0.000394526
0.000295424
-0.000393525
0.000269535
-0.000392923
0.000244287
-0.000392864
0.000219665
-0.000393309
0.000195569
-0.000394156
0.000171803
-0.000395251
0.000148227
-0.000396461
0.000124692
-0.00039766
0.00010113
-0.000398761
7.74702e-05
-0.000399696
5.37068e-05
-0.000400435
2.98226e-05
-0.000400961
5.84187e-06
-0.000401292
-1.82275e-05
-0.000401454
-4.23534e-05
-0.000401501
-6.65214e-05
-0.000401496
-9.0707e-05
-0.000401533
-0.000114902
-0.000401724
-0.000139105
-0.000402226
-0.000163333
-0.000403241
-0.000187639
-0.000405043
-0.00021212
-0.000407981
-0.000236964
-0.000412482
-0.00026246
-0.000418977
-0.000289068
-0.000427773
-0.00031737
-0.000438754
-0.000348036
-0.000450973
-0.000381498
-0.000462129
-0.000417485
-0.000468174
-0.000454183
-0.000463296
-0.000487344
-0.000440779
-0.000509641
-0.00039505
-0.00051091
-0.000325091
-0.000480391
-0.000238159
-0.000411373
-0.000150683
-0.00030864
-8.12122e-05
-0.00019287
-3.7226e-05
-9.33726e-05
-1.35138e-05
-2.51617e-05
-2.43456e-06
1.44088e-05
1.15804e-06
3.27184e-05
1.03007e-06
3.32402e-05
1.71307e-05
-1.21988e-05
2.93793e-05
-3.50062e-05
7.37811e-05
-6.36353e-05
0.0001161
-9.65211e-05
0.000163811
-0.000133331
0.000215955
-0.000172659
0.000269623
-0.000212802
0.000320823
-0.000251266
0.000365583
-0.000285882
0.000400245
-0.000314782
0.000422566
-0.000337088
0.000431923
-0.00035266
0.000429307
-0.000362283
0.000416859
-0.000367199
0.000397332
-0.00036896
0.000373452
-0.000368949
0.000347488
-0.000368319
0.000320999
-0.000367788
0.000294893
-0.000367773
0.000269513
-0.000368376
0.00024489
-0.000369561
0.000220845
-0.000371172
0.00019718
-0.000373049
0.000173677
-0.000375018
0.000150198
-0.000376952
0.000126626
-0.000378738
0.000102918
-0.000380307
7.90416e-05
-0.000381609
5.50138e-05
-0.000382627
3.08451e-05
-0.000383356
6.57733e-06
-0.000383816
-1.77617e-05
-0.000384033
-4.21283e-05
-0.000384055
-6.64925e-05
-0.000383931
-9.0822e-05
-0.000383732
-0.000115093
-0.000383535
-0.000139294
-0.000383444
-0.000163416
-0.00038359
-0.000187486
-0.000384164
-0.000211539
-0.000385429
-0.000235694
-0.000387753
-0.00026013
-0.000391611
-0.000285206
-0.000397544
-0.000311433
-0.000405994
-0.000339583
-0.000416995
-0.000370496
-0.00042963
-0.000404849
-0.000441423
-0.000442391
-0.000447805
-0.000480959
-0.000442191
-0.000515255
-0.000417042
-0.000536055
-0.000366525
-0.000530911
-0.000290746
-0.000487155
-0.000200197
-0.000399194
-0.000115577
-0.000277494
-5.55133e-05
-0.000153432
-2.18063e-05
-5.88676e-05
-5.48895e-06
-1.91296e-06
4.71732e-07
2.67574e-05
1.0484e-06
3.26621e-05
1.81777e-05
-1.37041e-05
4.30529e-05
-3.85411e-05
9.8697e-05
-6.89237e-05
0.000146421
-0.000102957
0.000197905
-0.000140056
0.000253017
-0.000178488
0.000308096
-0.000216386
0.000358699
-0.000251289
0.000400515
-0.000281333
0.000430277
-0.000305111
0.000446366
-0.000322308
0.000449115
-0.000333324
0.000440341
-0.000339386
0.000422917
-0.000341951
0.000399911
-0.000342571
0.000374071
-0.000342437
0.000347365
-0.000342419
0.000320981
-0.000342936
0.000295419
-0.000344153
0.000270729
-0.000345989
0.000246733
-0.000348304
0.000223159
-0.00035089
0.00019977
-0.00035358
0.000176366
-0.000356212
0.000152832
-0.00035868
0.000129091
-0.000360892
0.00010513
-0.0003628
8.09465e-05
-0.000364369
5.65796e-05
-0.000365592
3.20632e-05
-0.000366471
7.45185e-06
-0.00036703
-1.72085e-05
-0.000367298
-4.18665e-05
-0.000367319
-6.64784e-05
-0.000367138
-9.10088e-05
-0.000366815
-0.000115423
-0.000366407
-0.000139709
-0.000365986
-0.000163844
-0.000365634
-0.000187844
-0.000365469
-0.000211709
-0.000365654
-0.000235514
-0.000366451
-0.000259337
-0.000368235
-0.000283426
-0.00037154
-0.000308132
-0.000376995
-0.00033413
-0.000385184
-0.000362309
-0.000396227
-0.000393807
-0.000409174
-0.000429446
-0.000421188
-0.000468944
-0.000427005
-0.00050944
-0.00041906
-0.000543994
-0.000389096
-0.000560874
-0.000331576
-0.000544672
-0.000249059
-0.00048172
-0.000156973
-0.000369578
-8.02481e-05
-0.000230161
-3.32997e-05
-0.0001058
-1.01218e-05
-2.50994e-05
-8.08569e-07
1.74499e-05
9.23494e-07
3.09279e-05
1.91033e-05
-1.47083e-05
5.77174e-05
-4.08658e-05
0.000124926
-7.22153e-05
0.000177693
-0.000106535
0.000232277
-0.000143008
0.000289437
-0.00017968
0.000344798
-0.000214656
0.000393637
-0.000245644
0.00043152
-0.000271171
0.000455777
-0.000290314
0.000465519
-0.000303286
0.000462066
-0.00031092
0.00044798
-0.000314711
0.000426691
-0.000316151
0.000401355
-0.00031664
0.000374546
-0.000317094
0.00034782
-0.00031809
0.000321966
-0.000319789
0.000297118
-0.000322177
0.000273109
-0.000325067
0.000249623
-0.000328276
0.000226363
-0.000331593
0.000203088
-0.000334872
0.000179641
-0.000337974
0.000155936
-0.000340819
0.000131935
-0.000343335
0.000107648
-0.00034549
8.31025e-05
-0.000347256
5.83502e-05
-0.000348637
3.34467e-05
-0.000349636
8.45585e-06
-0.000350281
-1.65592e-05
-0.0003506
-4.15416e-05
-0.00035064
-6.64335e-05
-0.000350444
-9.1199e-05
-0.000350068
-0.000115793
-0.000349562
-0.000140209
-0.000348985
-0.000164415
-0.000348389
-0.000188435
-0.000347845
-0.000212248
-0.000347441
-0.000235914
-0.000347332
-0.000259443
-0.000347756
-0.000282998
-0.000349122
-0.000306764
-0.000352007
-0.000331243
-0.000357161
-0.000357155
-0.000365265
-0.000385701
-0.000376499
-0.000418213
-0.000389703
-0.000455738
-0.000401487
-0.000497659
-0.000405577
-0.0005399
-0.000393337
-0.000573116
-0.000356009
-0.000581991
-0.000289449
-0.000548291
-0.000200541
-0.000458482
-0.000111578
-0.000319144
-4.87754e-05
-0.00016858
-1.64164e-05
-5.74679e-05
-2.79942e-06
3.83639e-06
6.69183e-07
2.74537e-05
1.97736e-05
-1.50951e-05
7.27798e-05
-4.17923e-05
0.000151708
-7.33121e-05
0.000209147
-0.000107115
0.000266146
-0.000142188
0.00032447
-0.000176471
0.000379126
-0.000208151
0.000425293
-0.000235201
0.000458603
-0.000256569
0.000477131
-0.000271795
0.000480771
-0.00028153
0.000471794
-0.000286898
0.000453369
-0.000289497
0.000429286
-0.000290706
0.00040258
-0.000291689
0.000375526
-0.00029307
0.000349214
-0.000295175
0.00032407
-0.000297974
0.000299927
-0.000301348
0.000276483
-0.000305066
0.000253348
-0.000308946
0.000230243
-0.000312799
0.000206946
-0.000316507
0.000183348
-0.000319955
0.000159387
-0.000323085
0.000135063
-0.000325838
0.000110401
-0.000328191
8.5453e-05
-0.000330122
6.02796e-05
-0.000331635
3.49562e-05
-0.000332736
9.55381e-06
-0.000333453
-1.58469e-05
-0.000333814
-4.11845e-05
-0.000333866
-6.63858e-05
-0.000333655
-9.14153e-05
-0.000333237
-0.000116216
-0.000332663
-0.000140789
-0.000331988
-0.000165094
-0.000331258
-0.00018917
-0.000330522
-0.000212987
-0.000329825
-0.000236615
-0.000329245
-0.000260026
-0.000328906
-0.000283341
-0.000329058
-0.000306613
-0.00033012
-0.000330183
-0.000332763
-0.000354514
-0.000337828
-0.000380635
-0.000346123
-0.000409921
-0.000357742
-0.000444117
-0.000371151
-0.000484254
-0.000382024
-0.000529022
-0.000382827
-0.000572315
-0.000363781
-0.000601027
-0.000316358
-0.000595717
-0.00023954
-0.000535302
-0.000147222
-0.000411472
-6.9091e-05
-0.00024671
-2.45397e-05
-0.000102005
-5.61821e-06
-1.509e-05
2.83542e-07
2.15494e-05
2.00602e-05
-1.48885e-05
8.76232e-05
-4.13828e-05
0.000178275
-7.23484e-05
0.000240033
-0.00010495
0.0002988
-0.000138027
0.000357492
-0.000169517
0.000410647
-0.000197773
0.00045351
-0.000221086
0.000481934
-0.000238814
0.000494829
-0.000250899
0.000492867
-0.000258315
0.000479187
-0.000262336
0.000457395
-0.000264518
0.000431449
-0.000266041
0.000404107
-0.000267805
0.000377273
-0.000270174
0.000351585
-0.000273284
0.000327167
-0.000276984
0.000303628
-0.000281112
0.000280601
-0.000285433
0.000257669
-0.00028979
0.000234593
-0.00029402
0.000211177
-0.000298035
0.000187358
-0.00030174
0.000163093
-0.000305091
0.000138412
-0.000308036
0.000113348
-0.000310558
8.79749e-05
-0.000312634
6.23589e-05
-0.000314271
3.65948e-05
-0.000315473
1.07587e-05
-0.000316267
-1.50501e-05