/*--------------------------------*- C++ -*----------------------------------*\
| =========                 |                                                 |
| \\      /  F ield         | OpenFOAM: The Open Source CFD Toolbox           |
|  \\    /   O peration     | Version:  2406                                  |
|   \\  /    A nd           | Website:  www.openfoam.com                      |
|    \\/     M anipulation  |                                                 |
\*---------------------------------------------------------------------------*/
FoamFile
{
    version     2.0;
    format      ascii;
    arch        "LSB;label=32;scalar=64";
    class       volScalarField;
    location    "17.8";
    object      p;
}
// * * * * * * * * * * * * * * * * * * * * * * * * * * * * * * * * * * * * * //

dimensions      [0 2 -2 0 0 0 0];

internalField   nonuniform List<scalar> 
3600
(
0.0255368
0.0255312
0.0255196
0.0255009
0.0254809
0.0254552
0.0254289
0.0253971
0.025364
0.0253259
0.0252865
0.0252434
0.0251999
0.0251546
0.0251105
0.0250671
0.0250268
0.0249899
0.0249583
0.0249325
0.0249139
0.0249029
0.0249001
0.0249052
0.0249177
0.0249359
0.0249573
0.024978
0.0249927
0.0249951
0.0249774
0.0249316
0.0248495
0.0247243
0.0245508
0.0243271
0.0240548
0.0237395
0.02339
0.0230189
0.0226393
0.0222656
0.02191
0.0215836
0.0212925
0.0210421
0.0208316
0.0206614
0.0205255
0.0204227
0.0203442
0.02029
0.0202496
0.0202269
0.0202099
0.0202077
0.0202057
0.0202187
0.0202263
0.0202437
0.0255418
0.0255357
0.0255263
0.0255094
0.0254917
0.0254673
0.0254422
0.025411
0.0253787
0.0253411
0.0253026
0.0252604
0.025218
0.0251739
0.0251312
0.0250892
0.0250504
0.0250147
0.024984
0.0249585
0.0249395
0.0249269
0.0249213
0.0249221
0.0249289
0.0249397
0.0249524
0.024963
0.024967
0.024958
0.024929
0.0248724
0.0247806
0.0246471
0.0244673
0.0242396
0.023966
0.0236522
0.0233075
0.0229442
0.0225752
0.0222147
0.0218738
0.0215629
0.0212869
0.0210503
0.0208515
0.0206905
0.0205613
0.0204626
0.020386
0.0203321
0.0202906
0.0202662
0.0202463
0.0202409
0.0202339
0.0202423
0.0202433
0.0202609
0.0255551
0.025545
0.0255359
0.0255177
0.0255009
0.0254761
0.0254516
0.0254201
0.0253879
0.0253498
0.0253108
0.0252677
0.0252245
0.0251794
0.0251356
0.0250924
0.0250524
0.0250154
0.0249834
0.0249564
0.0249359
0.0249216
0.0249144
0.0249136
0.024919
0.0249288
0.0249411
0.0249521
0.0249571
0.0249497
0.0249229
0.0248682
0.0247779
0.0246445
0.0244632
0.0242318
0.023952
0.02363
0.0232755
0.0229018
0.022523
0.0221545
0.0218083
0.0214954
0.0212209
0.0209889
0.020797
0.0206443
0.0205237
0.0204336
0.0203644
0.020317
0.0202806
0.0202603
0.0202428
0.0202396
0.0202328
0.0202431
0.0202437
0.0202678
0.0255745
0.0255594
0.0255513
0.0255321
0.0255172
0.0254926
0.0254694
0.0254378
0.0254059
0.0253673
0.025328
0.0252841
0.02524
0.0251935
0.0251483
0.0251033
0.0250613
0.0250219
0.0249869
0.0249563
0.0249314
0.0249119
0.0248986
0.0248909
0.0248888
0.0248908
0.0248953
0.0248988
0.0248971
0.0248841
0.0248526
0.0247945
0.0247016
0.0245664
0.0243832
0.0241496
0.0238669
0.023541
0.0231819
0.0228033
0.0224203
0.0220492
0.0217031
0.0213935
0.0211258
0.0209038
0.020724
0.020585
0.020478
0.0204008
0.0203429
0.0203052
0.020276
0.0202612
0.0202468
0.0202458
0.0202385
0.0202494
0.020248
0.0202765
0.0255963
0.0255747
0.025567
0.0255454
0.0255315
0.025506
0.0254833
0.0254508
0.0254185
0.0253783
0.0253375
0.0252911
0.0252444
0.0251945
0.0251455
0.0250958
0.0250486
0.025003
0.0249611
0.0249224
0.0248882
0.0248582
0.0248333
0.0248131
0.0247979
0.024787
0.0247791
0.0247719
0.0247616
0.024743
0.0247093
0.0246527
0.0245646
0.024437
0.024263
0.0240388
0.0237641
0.0234437
0.0230863
0.0227057
0.0223175
0.0219392
0.0215856
0.0212703
0.0209999
0.0207793
0.020605
0.020475
0.0203797
0.0203156
0.020271
0.0202459
0.0202277
0.0202226
0.0202155
0.0202207
0.020217
0.0202318
0.0202316
0.0202641
0.025619
0.0255908
0.0255841
0.0255604
0.0255482
0.0255219
0.0255002
0.0254667
0.0254341
0.0253921
0.0253496
0.0253001
0.02525
0.0251953
0.0251407
0.0250838
0.0250277
0.024971
0.0249153
0.0248596
0.0248049
0.0247503
0.0246969
0.0246445
0.0245942
0.0245461
0.0245011
0.0244585
0.0244171
0.0243737
0.0243239
0.0242611
0.0241777
0.0240652
0.0239158
0.0237232
0.0234842
0.0232001
0.0228765
0.0225244
0.0221581
0.0217948
0.0214505
0.0211405
0.0208738
0.0206572
0.0204887
0.020367
0.0202819
0.0202297
0.0201974
0.0201845
0.0201773
0.0201818
0.0201822
0.0201933
0.0201932
0.0202105
0.0202109
0.0202446
0.0256375
0.0256023
0.0255964
0.02557
0.0255591
0.0255314
0.0255099
0.0254747
0.0254409
0.0253961
0.0253506
0.0252964
0.0252406
0.0251783
0.0251139
0.0250444
0.024972
0.0248943
0.024812
0.0247227
0.0246266
0.0245223
0.0244105
0.024292
0.0241695
0.024046
0.0239255
0.0238117
0.0237079
0.0236152
0.0235329
0.0234575
0.0233829
0.0233009
0.0232022
0.0230771
0.0229176
0.0227189
0.0224801
0.0222061
0.0219062
0.0215947
0.021287
0.0210001
0.0207462
0.0205358
0.0203707
0.0202523
0.020172
0.0201266
0.0201028
0.0200995
0.0201021
0.020116
0.0201246
0.0201425
0.0201476
0.0201684
0.0201708
0.0202045
0.0256501
0.025608
0.0256035
0.0255748
0.0255656
0.0255365
0.0255155
0.0254784
0.0254433
0.0253953
0.0253458
0.0252855
0.0252216
0.0251477
0.0250677
0.0249767
0.0248756
0.0247594
0.0246268
0.0244731
0.024297
0.024096
0.0238718
0.023627
0.0233686
0.0231046
0.0228459
0.0226029
0.0223858
0.0222021
0.0220568
0.0219507
0.0218808
0.02184
0.0218182
0.0218025
0.0217794
0.0217359
0.0216615
0.02155
0.0214005
0.0212188
0.021015
0.0208045
0.0206017
0.020422
0.0202731
0.0201624
0.020086
0.0200437
0.0200237
0.0200252
0.0200335
0.0200533
0.0200675
0.02009
0.020099
0.0201213
0.020125
0.0201567
0.0256508
0.0256016
0.0255985
0.0255672
0.0255594
0.0255285
0.0255073
0.0254676
0.0254302
0.0253774
0.0253221
0.0252524
0.0251757
0.0250831
0.024977
0.0248491
0.0246974
0.0245128
0.0242905
0.0240225
0.0237059
0.0233387
0.0229257
0.0224752
0.0220016
0.021522
0.0210563
0.0206235
0.0202419
0.019926
0.0196866
0.0195291
0.0194545
0.0194579
0.01953
0.0196566
0.01982
0.0199998
0.0201748
0.020325
0.0204338
0.0204914
0.0204946
0.0204499
0.0203689
0.0202699
0.0201684
0.0200811
0.0200136
0.0199731
0.0199525
0.0199537
0.0199628
0.0199842
0.0200011
0.0200259
0.0200374
0.0200604
0.0200651
0.0200942
0.0256371
0.0255811
0.0255798
0.0255462
0.02554
0.0255073
0.025486
0.0254433
0.0254029
0.0253439
0.02528
0.0251966
0.0250998
0.024977
0.0248274
0.0246371
0.0243992
0.0240983
0.0237255
0.0232698
0.0227292
0.022106
0.0214132
0.0206694
0.0199007
0.0191355
0.0184037
0.0177329
0.0171478
0.0166677
0.0163075
0.0160762
0.015978
0.0160114
0.0161701
0.0164419
0.0168095
0.01725
0.0177354
0.018234
0.0187125
0.0191398
0.0194901
0.0197489
0.0199129
0.0199942
0.0200118
0.0199933
0.0199588
0.0199293
0.0199088
0.0199058
0.0199103
0.0199278
0.0199425
0.0199652
0.019976
0.0199971
0.0200015
0.020027
0.0256018
0.025539
0.0255395
0.0255034
0.0254983
0.0254633
0.0254409
0.0253941
0.0253487
0.0252806
0.0252033
0.0250983
0.0249692
0.0247976
0.024577
0.0242854
0.0239086
0.0234247
0.0228214
0.0220891
0.0212324
0.0202649
0.0192141
0.0181135
0.0170034
0.0159229
0.0149095
0.013995
0.0132061
0.0125623
0.0120785
0.011764
0.0116243
0.0116607
0.0118713
0.0122494
0.0127837
0.0134565
0.0142424
0.0151074
0.0160092
0.0168988
0.0177245
0.0184403
0.0190111
0.0194237
0.019685
0.0198251
0.0198792
0.0198894
0.0198798
0.0198736
0.0198701
0.0198787
0.0198861
0.0199025
0.0199093
0.0199263
0.0199289
0.0199508
0.0255421
0.0254727
0.0254752
0.0254367
0.0254327
0.0253951
0.025371
0.0253188
0.0252661
0.0251846
0.0250868
0.0249487
0.0247688
0.0245203
0.024188
0.0237399
0.0231541
0.0224043
0.0214808
0.0203832
0.0191321
0.0177602
0.0163146
0.0148454
0.0134044
0.0120367
0.0107812
0.00966717
0.0087168
0.00794471
0.00736122
0.0069724
0.00678268
0.00679448
0.00700956
0.00742782
0.00804708
0.00886066
0.00985534
0.0110079
0.0122823
0.0136274
0.0149772
0.0162566
0.0173895
0.0183159
0.0190016
0.0194534
0.0197068
0.0198237
0.0198579
0.0198603
0.0198498
0.0198459
0.0198409
0.019846
0.0198445
0.0198543
0.0198534
0.0198714
0.0254495
0.0253736
0.0253778
0.0253366
0.0253328
0.0252914
0.0252637
0.0252034
0.025139
0.0250371
0.0249076
0.0247185
0.024461
0.0240964
0.0235988
0.0229261
0.0220517
0.0209524
0.0196313
0.0181083
0.016429
0.0146505
0.0128391
0.0110564
0.00935835
0.00778727
0.0063752
0.00514215
0.00410104
0.00325799
0.00261662
0.00217816
0.00194437
0.00191708
0.00209985
0.00249698
0.00311386
0.00395499
0.00502221
0.00631086
0.00780493
0.00947144
0.0112545
0.0130735
0.0148256
0.0164005
0.0176994
0.0186659
0.0192962
0.019647
0.0197993
0.0198442
0.0198376
0.0198214
0.0198006
0.01979
0.0197763
0.0197762
0.0197697
0.0197842
0.025321
0.0252391
0.0252449
0.0252007
0.0251964
0.0251501
0.0251168
0.025045
0.0249632
0.0248315
0.0246547
0.0243904
0.0240189
0.0234881
0.0227609
0.021789
0.0205498
0.0190351
0.0172732
0.0153144
0.0132335
0.0111089
0.00901833
0.00702452
0.00517642
0.00350478
0.00202861
0.000755398
-0.000312274
-0.00117639
-0.00183893
-0.00230247
-0.00256739
-0.00263296
-0.00249549
-0.00214942
-0.00158618
-0.000795321
0.000235048
0.00151586
0.00305305
0.00484174
0.00685664
0.0090435
0.0113095
0.0135256
0.0155385
0.0172061
0.0184347
0.0192189
0.01963
0.019794
0.0198229
0.0198031
0.0197658
0.0197357
0.0197061
0.0196931
0.0196791
0.0196898
0.0251475
0.0250598
0.0250665
0.0250183
0.0250116
0.024958
0.0249153
0.0248265
0.0247185
0.0245432
0.0242978
0.0239269
0.0233974
0.0226436
0.0216212
0.0202845
0.0186276
0.0166705
0.0144774
0.0121316
0.00973196
0.00736738
0.00511373
0.00302225
0.00112602
-0.00056094
-0.00203405
-0.00329716
-0.00435531
-0.00521529
-0.00588148
-0.0063576
-0.00664437
-0.00674129
-0.00664507
-0.00635073
-0.0058503
-0.0051331
-0.00418507
-0.00298899
-0.00152636
0.000219864
0.00225669
0.00457188
0.00711605
0.00979108
0.01244
0.0148654
0.0168688
0.0183204
0.0192056
0.0196351
0.0197722
0.0197745
0.0197266
0.0196754
0.0196269
0.0195982
0.0195749
0.0195814
0.0249267
0.0248339
0.0248408
0.0247879
0.0247769
0.0247135
0.0246572
0.0245448
0.0243998
0.0241641
0.0238244
0.0233098
0.0225736
0.0215396
0.020165
0.0184193
0.0163273
0.013948
0.0113831
0.00874222
0.00613518
0.00364596
0.0013352
-0.000766076
-0.0026443
-0.00430175
-0.00574516
-0.00698534
-0.00803042
-0.00888781
-0.00956086
-0.0100517
-0.0103595
-0.0104828
-0.0104182
-0.0101618
-0.00970775
-0.00904847
-0.00817321
-0.00706681
-0.00570988
-0.00407741
-0.00214421
0.000111316
0.00268909
0.00555174
0.00859517
0.0116386
0.0144317
0.0167172
0.0183216
0.0192413
0.0196294
0.0197145
0.0196747
0.0196047
0.0195354
0.019488
0.0194537
0.0194548
0.0246494
0.0245517
0.0245575
0.0244982
0.0244798
0.0244024
0.0243261
0.0241809
0.0239849
0.0236681
0.0232042
0.0225063
0.0215164
0.0201552
0.0183931
0.0162286
0.0137274
0.0109897
0.00814745
0.00532215
0.0026177
9.94405e-05
-0.00219534
-0.00425829
-0.0060933
-0.0077145
-0.0091346
-0.0103663
-0.0114164
-0.0122895
-0.0129854
-0.0135027
-0.0138376
-0.0139868
-0.013946
-0.0137123
-0.0132821
-0.0126517
-0.0118159
-0.0107654
-0.00948751
-0.00796046
-0.00615729
-0.00404199
-0.00158325
0.00123738
0.00439015
0.00777072
0.011166
0.0142694
0.0167564
0.0184198
0.0192855
0.0195784
0.0195911
0.0195129
0.0194233
0.019354
0.019307
0.0193004
0.0243156
0.0242139
0.0242173
0.02415
0.024121
0.0240255
0.0239227
0.0237349
0.0234728
0.0230527
0.0224339
0.0215153
0.0202327
0.0185143
0.0163563
0.0137971
0.0109469
0.00793982
0.00492361
0.00201441
-0.000703808
-0.0031923
-0.00543869
-0.00745417
-0.00925477
-0.0108605
-0.0122848
-0.013538
-0.0146225
-0.0155377
-0.0162782
-0.0168382
-0.0172102
-0.0173881
-0.0173669
-0.0171435
-0.0167165
-0.0160857
-0.0152514
-0.0142119
-0.0129632
-0.0114927
-0.00978212
-0.0077972
-0.00549829
-0.0028359
0.000218581
0.00365065
0.0073444
0.0110495
0.01439
0.0169696
0.0185739
0.0192905
0.0194488
0.0193893
0.019285
0.0191897
0.0191282
0.0191102
0.0239171
0.0238118
0.0238107
0.023733
0.023689
0.0235698
0.0234319
0.0231899
0.0228447
0.0222983
0.0214962
0.0203266
0.0187272
0.0166451
0.0141128
0.0112133
0.00809583
0.0049154
0.00181826
-0.00109926
-0.00378108
-0.00621631
-0.00841387
-0.0103986
-0.0121926
-0.0138164
-0.0152801
-0.0165888
-0.0177385
-0.0187224
-0.0195294
-0.0201485
-0.0205684
-0.0207805
-0.020778
-0.0205577
-0.0201197
-0.0194661
-0.0186025
-0.0175332
-0.0162637
-0.0147919
-0.0131125
-0.0112019
-0.00902839
-0.00653573
-0.00366766
-0.000372616
0.00333602
0.00732723
0.0112951
0.0147717
0.0173088
0.0187126
0.0192018
0.0192129
0.019111
0.018986
0.0189074
0.0188731
0.0234578
0.0233499
0.0233427
0.0232526
0.0231896
0.0230415
0.0228608
0.0225536
0.0221098
0.0214173
0.0204092
0.0189693
0.0170464
0.0146163
0.011754
0.00858435
0.00528482
0.00201498
-0.00109492
-0.00397702
-0.00660478
-0.00899157
-0.0111616
-0.0131472
-0.0149709
-0.0166502
-0.018189
-0.0195854
-0.0208283
-0.0219042
-0.0227962
-0.0234885
-0.0239662
-0.0242178
-0.0242353
-0.0240148
-0.0235574
-0.022867
-0.0219529
-0.0208242
-0.0194947
-0.017971
-0.0162617
-0.0143568
-0.0122413
-0.00986763
-0.00717852
-0.00409053
-0.000545508
0.00344805
0.00772323
0.0118806
0.0153695
0.0176761
0.0187614
0.0189578
0.0188861
0.0187359
0.0186351
0.0185788
0.0229316
0.0228219
0.022806
0.0227008
0.0226138
0.022431
0.0221988
0.0218155
0.0212589
0.0204043
0.0191761
0.0174606
0.0152258
0.0124833
0.0093504
0.00598614
0.00258177
-0.000712943
-0.00379332
-0.00662263
-0.00920086
-0.0115597
-0.0137326
-0.0157537
-0.0176425
-0.0194105
-0.0210542
-0.0225639
-0.0239211
-0.025106
-0.0260963
-0.0268718
-0.0274143
-0.0277099
-0.0277494
-0.0275281
-0.0270479
-0.0263137
-0.0253378
-0.0241324
-0.0227178
-0.0211072
-0.0193214
-0.0173626
-0.0152349
-0.0129068
-0.010337
-0.00743832
-0.00412043
-0.000303394
0.00398837
0.00851165
0.0127673
0.0160593
0.017972
0.018592
0.0185812
0.0184299
0.0182992
0.0182145
0.0223482
0.022238
0.0222116
0.0220897
0.0219748
0.0217527
0.0214625
0.0209951
0.0203158
0.0192903
0.0178381
0.015855
0.0133349
0.0103272
0.00698706
0.00349649
4.7012e-05
-0.00323177
-0.00626484
-0.00904462
-0.0115923
-0.0139519
-0.0161603
-0.0182501
-0.020235
-0.0221189
-0.0238903
-0.0255317
-0.0270179
-0.028323
-0.02942
-0.030285
-0.0308969
-0.0312397
-0.031303
-0.0310814
-0.0305776
-0.0297968
-0.0287545
-0.0274643
-0.025952
-0.0242347
-0.0223429
-0.0202882
-0.0180921
-0.0157401
-0.0132146
-0.0104419
-0.00733174
-0.00375937
0.000357753
0.00494531
0.00966979
0.0138299
0.0167059
0.0180158
0.0181844
0.0180404
0.0178941
0.0177652
0.0217043
0.0215947
0.0215555
0.0214145
0.0212675
0.0210017
0.0206476
0.0200898
0.0192823
0.0180838
0.0164137
0.0141833
0.011415
0.008195
0.00470833
0.00114817
-0.00230435
-0.00554543
-0.00852947
-0.0112735
-0.0138142
-0.0162023
-0.0184746
-0.0206591
-0.0227626
-0.0247805
-0.0266936
-0.028477
-0.0300995
-0.0315303
-0.0327381
-0.0336956
-0.0343794
-0.034771
-0.0348595
-0.0346383
-0.0341112
-0.0332836
-0.032174
-0.0307968
-0.0291829
-0.0273509
-0.0253395
-0.0231652
-0.0208643
-0.018436
-0.0158878
-0.0131665
-0.0102026
-0.00686173
-0.003004
0.00143239
0.00631896
0.0110775
0.0149183
0.0170673
0.0176949
0.0175268
0.0174136
0.0172122
0.0210162
0.020909
0.0208558
0.020695
0.0205135
0.0202019
0.019781
0.0191312
0.0181956
0.0168302
0.0149578
0.0125087
0.00953464
0.00615392
0.00257208
-0.00101642
-0.00444786
-0.00764561
-0.0105904
-0.0133184
-0.0158766
-0.0183183
-0.0206776
-0.0229762
-0.0252132
-0.0273761
-0.0294383
-0.0313686
-0.0331306
-0.0346891
-0.0360096
-0.0370613
-0.0378186
-0.0382606
-0.0383754
-0.0381552
-0.0376053
-0.0367309
-0.0355543
-0.0340904
-0.0323751
-0.0304278
-0.0282937
-0.0259909
-0.0235675
-0.021031
-0.0184114
-0.0156768
-0.0127873
-0.00962226
-0.00602771
-0.00185413
0.00294534
0.00800085
0.0126243
0.0156742
0.0170216
0.0168928
0.0168217
0.0165464
0.0202832
0.0201795
0.0201109
0.0199293
0.0197111
0.0193521
0.0188633
0.0181226
0.0170639
0.0155437
0.0134912
0.0108574
0.00772097
0.00422603
0.000590005
-0.00299879
-0.00639741
-0.00955482
-0.0124737
-0.0152044
-0.0177998
-0.020313
-0.0227737
-0.0251967
-0.0275735
-0.0298843
-0.032096
-0.0341723
-0.0360727
-0.037758
-0.0391908
-0.040337
-0.0411686
-0.0416618
-0.0418039
-0.0415852
-0.041013
-0.0400919
-0.0388488
-0.0372989
-0.0354843
-0.0334239
-0.03117
-0.0287396
-0.02619
-0.0235318
-0.0208132
-0.0180189
-0.0151414
-0.0120846
-0.00871008
-0.00482839
-0.000273328
0.00481469
0.00992305
0.0138549
0.0160007
0.0161707
0.0160598
0.0157642
0.0195278
0.0194301
0.0193459
0.0191445
0.0188895
0.0184847
0.0179301
0.017104
0.0159325
0.0142757
0.0120703
0.009288
0.00603009
0.00245988
-0.00120074
-0.0047741
-0.00813837
-0.0112647
-0.0141731
-0.0169235
-0.0195717
-0.0221687
-0.024739
-0.0272905
-0.0298078
-0.0322646
-0.0346228
-0.0368416
-0.0388773
-0.0406875
-0.0422319
-0.0434726
-0.0443794
-0.0449246
-0.0450951
-0.0448788
-0.044285
-0.0433177
-0.042009
-0.0403739
-0.0384624
-0.0362921
-0.0339238
-0.0313713
-0.0287006
-0.0259203
-0.0230931
-0.0202134
-0.0173032
-0.0142943
-0.0110789
-0.00746724
-0.00322428
0.00169411
0.00699409
0.0116505
0.0145701
0.015331
0.0151129
0.0148513
0.0187499
0.0186596
0.0185595
0.018339
0.0180475
0.0175988
0.0169824
0.016079
0.0148084
0.0130364
0.0107074
0.00781195
0.00446885
0.000854412
-0.00281044
-0.00636049
-0.0096934
-0.0127985
-0.0157086
-0.0184899
-0.0211992
-0.0238842
-0.0265642
-0.0292407
-0.0318923
-0.0344874
-0.0369841
-0.039338
-0.0415031
-0.0434335
-0.0450864
-0.0464197
-0.047401
-0.0479981
-0.0481978
-0.0479843
-0.0473701
-0.0463573
-0.0449847
-0.043266
-0.0412607
-0.0389844
-0.036508
-0.033841
-0.0310587
-0.0281642
-0.0252317
-0.0222583
-0.0192905
-0.0162848
-0.0131704
-0.00978209
-0.00585573
-0.00123665
0.00402604
0.00913255
0.0127823
0.0142548
0.014015
0.0137721
0.0179776
0.0178972
0.0177826
0.0175459
0.0172207
0.0167328
0.0160613
0.015092
0.0137393
0.0118762
0.00945407
0.00647908
0.0030822
-0.000552689
-0.00420922
-0.00773453
-0.0110428
-0.0141371
-0.0170595
-0.0198796
-0.0226538
-0.0254263
-0.0282117
-0.0310056
-0.0337821
-0.0365054
-0.0391306
-0.0416108
-0.0438978
-0.0459423
-0.0476995
-0.0491225
-0.0501767
-0.0508252
-0.0510544
-0.0508447
-0.0502122
-0.0491561
-0.0477228
-0.0459238
-0.0438294
-0.0414522
-0.038875
-0.0361023
-0.0332199
-0.030223
-0.0271965
-0.0241334
-0.0211006
-0.0180711
-0.0150126
-0.0117951
-0.00815663
-0.00389647
0.00116619
0.00642603
0.0107191
0.0128506
0.0128148
0.0125058
0.0172081
0.0171387
0.0170107
0.0167599
0.0164036
0.0158815
0.0151627
0.0141402
0.0127237
0.0107944
0.00830842
0.00528423
0.00185964
-0.00177801
-0.0054188
-0.00892051
-0.0122105
-0.0153013
-0.0182412
-0.0211015
-0.0239377
-0.0267904
-0.0296703
-0.0325685
-0.0354556
-0.0382922
-0.041032
-0.0436252
-0.0460228
-0.0481716
-0.0500251
-0.0515312
-0.052654
-0.0533506
-0.0536085
-0.0534029
-0.0527545
-0.0516582
-0.0501692
-0.0482954
-0.0461187
-0.0436478
-0.0409789
-0.0381101
-0.0351403
-0.0320547
-0.0289497
-0.0258086
-0.0227161
-0.0196517
-0.0166206
-0.0135269
-0.0101358
-0.00624038
-0.00148627
0.00368513
0.00845719
0.0111308
0.01152
0.011059
0.0164731
0.0164175
0.016279
0.0160186
0.0156362
0.015087
0.0143307
0.0132692
0.0118085
0.00983803
0.00731657
0.00427091
0.000840851
-0.00278618
-0.00640741
-0.00988899
-0.0131675
-0.0162613
-0.0192223
-0.0221217
-0.0250141
-0.0279373
-0.0308987
-0.033886
-0.0368675
-0.0398012
-0.0426399
-0.0453316
-0.0478264
-0.0500675
-0.0520072
-0.0535879
-0.0547732
-0.0555138
-0.0557992
-0.0555981
-0.0549372
-0.0538056
-0.0522684
-0.0503276
-0.0480787
-0.0455238
-0.0427747
-0.0398213
-0.0367779
-0.0336181
-0.0304519
-0.0272485
-0.0241095
-0.0210111
-0.0179946
-0.0149889
-0.0118057
-0.00824922
-0.00386779
0.00104856
0.00607151
0.00916273
0.0100737
0.00944064
0.0157637
0.0157224
0.0155752
0.0153084
0.0149043
0.0143348
0.0135508
0.0124647
0.0109792
0.00899185
0.0064612
0.00341876
1.93148e-06
-0.00360403
-0.00720343
-0.0106678
-0.0139393
-0.0170386
-0.0200192
-0.0229515
-0.0258893
-0.0288678
-0.0318931
-0.03495
-0.0380058
-0.0410164
-0.0439345
-0.0467056
-0.0492799
-0.0515965
-0.053608
-0.0552504
-0.0564886
-0.0572658
-0.0575753
-0.057378
-0.0567079
-0.0555464
-0.0539697
-0.051972
-0.0496632
-0.0470367
-0.0442214
-0.0411967
-0.038095
-0.034876
-0.0316664
-0.0284176
-0.0252496
-0.022126
-0.0191231
-0.0161824
-0.0131739
-0.00991759
-0.00593584
-0.00137703
0.00365555
0.00703288
0.00842462
0.00767338
0.0151147
0.0150898
0.0149381
0.0146704
0.0142513
0.0136699
0.0128691
0.011773
0.0102818
0.00830054
0.00578542
0.00276898
-0.000617613
-0.00419343
-0.0077694
-0.0112197
-0.0144886
-0.0175958
-0.0205943
-0.0235528
-0.0265247
-0.0295434
-0.0326146
-0.0357214
-0.038831
-0.0418976
-0.0448747
-0.0477048
-0.0503394
-0.0527133
-0.0547802
-0.05647
-0.0577502
-0.0585559
-0.0588859
-0.0586918
-0.0580167
-0.0568319
-0.0552266
-0.0531841
-0.0508303
-0.0481472
-0.0452821
-0.0422016
-0.0390581
-0.0357954
-0.0325601
-0.0292829
-0.0261047
-0.0229688
-0.0199865
-0.0170987
-0.0142403
-0.0112439
-0.00766077
-0.0035148
0.00132161
0.00484143
0.00659789
0.00581493
0.0145065
0.0144975
0.0143436
0.0140785
0.0136498
0.0130637
0.0122563
0.0111643
0.00968562
0.00773238
0.00525601
0.00228696
-0.00105344
-0.00459008
-0.00814012
-0.0115775
-0.0148455
-0.0179595
-0.0209707
-0.0239451
-0.0269362
-0.0299765
-0.0330725
-0.0362062
-0.0393464
-0.042445
-0.0454574
-0.0483228
-0.0509952
-0.053404
-0.0555067
-0.0572258
-0.058534
-0.0593572
-0.0597019
-0.0595088
-0.0588318
-0.05763
-0.0560068
-0.0539321
-0.0515493
-0.0488256
-0.0459285
-0.0428086
-0.0396409
-0.03635
-0.0331066
-0.0298166
-0.0266463
-0.023512
-0.0205617
-0.0177225
-0.0149977
-0.0122245
-0.00902044
-0.00530749
-0.000814417
0.00270174
0.0046939
0.00395315
0.0139779
0.0139865
0.0138351
0.0135787
0.013148
0.012566
0.0117626
0.0106879
0.00923829
0.00733278
0.00491655
0.002015
-0.00126329
-0.00475112
-0.00827165
-0.0116968
-0.0149656
-0.0180866
-0.0211069
-0.0240891
-0.0270869
-0.0301321
-0.0332337
-0.0363731
-0.0395216
-0.0426292
-0.045654
-0.0485314
-0.0512191
-0.0536408
-0.0557596
-0.0574899
-0.0588123
-0.0596422
-0.0599963
-0.0598022
-0.0591272
-0.0579153
-0.056286
-0.0541928
-0.0517979
-0.0490505
-0.0461403
-0.042998
-0.0398242
-0.0365205
-0.0332855
-0.0299968
-0.026851
-0.023731
-0.0208253
-0.0180348
-0.0154337
-0.0128522
-0.00999815
-0.00671222
-0.00265209
0.000728357
0.00283932
0.00218188
0.0134951
0.0135191
0.0133725
0.0131276
0.0127005
0.0121295
0.0113399
0.0102949
0.00889038
0.00705178
0.00471671
0.00190331
-0.0012957
-0.00472265
-0.00820739
-0.0116178
-0.0148865
-0.018012
-0.0210359
-0.0240158
-0.027006
-0.0300377
-0.0331239
-0.0362458
-0.039379
-0.0424708
-0.0454837
-0.0483481
-0.0510273
-0.0534381
-0.0555518
-0.0572734
-0.0585944
-0.0594181
-0.0597742
-0.0595754
-0.0589045
-0.0576876
-0.0560626
-0.0539627
-0.0515715
-0.0488161
-0.0459109
-0.0427622
-0.0395995
-0.0362969
-0.0330855
-0.0298095
-0.0267023
-0.0236066
-0.0207571
-0.0180167
-0.0155337
-0.0131168
-0.0105808
-0.00769734
-0.00411483
-0.00097635
0.00114803
0.000583779
0.013104
0.0131445
0.0130072
0.0127799
0.0123646
0.011813
0.0110467
0.0100423
0.00869611
0.00694017
0.0047045
0.00199816
-0.00110405
-0.0044567
-0.00789727
-0.0112894
-0.0145573
-0.0176872
-0.0207126
-0.0236846
-0.0266575
-0.0296619
-0.0327161
-0.035801
-0.0388984
-0.0419526
-0.0449321
-0.0477611
-0.0504108
-0.0527894
-0.0548792
-0.0565744
-0.0578805
-0.0586865
-0.0590388
-0.0588323
-0.0581683
-0.0569517
-0.0553413
-0.0532463
-0.0508742
-0.0481254
-0.0452425
-0.0421022
-0.0389669
-0.0356772
-0.0325029
-0.0292482
-0.0261907
-0.0231258
-0.0203421
-0.0176521
-0.0152841
-0.0130081
-0.0107586
-0.00824125
-0.00514975
-0.00232928
-0.000290415
-0.000773121
0.0127517
0.0128048
0.0126781
0.0124702
0.0120719
0.011546
0.0108118
0.00985857
0.00858399
0.00692703
0.00480993
0.00223182
-0.000752972
-0.00401328
-0.00739674
-0.0107625
-0.0140257
-0.0171572
-0.0201809
-0.0231383
-0.0260844
-0.0290475
-0.032053
-0.0350812
-0.0381223
-0.0411167
-0.0440415
-0.0468129
-0.0494125
-0.0517382
-0.0537859
-0.0554371
-0.0567145
-0.0574909
-0.0578324
-0.0576133
-0.0569567
-0.0557428
-0.0541545
-0.0520724
-0.0497317
-0.0470008
-0.0441543
-0.0410338
-0.0379393
-0.0346715
-0.0315446
-0.0283161
-0.0253161
-0.022284
-0.0195722
-0.0169304
-0.0146747
-0.0125175
-0.0105253
-0.00833055
-0.00572252
-0.00326602
-0.00140544
-0.00182999
0.0124978
0.0125643
0.0124524
0.0122694
0.0118959
0.0114036
0.0107098
0.00981584
0.0086222
0.00707517
0.00509085
0.00265816
-0.000189841
-0.00333927
-0.00665036
-0.00997992
-0.0132341
-0.0163665
-0.0193893
-0.0223321
-0.0252485
-0.0281636
-0.0311104
-0.0340683
-0.0370382
-0.0399557
-0.0428091
-0.0455053
-0.048039
-0.0502953
-0.0522872
-0.0538807
-0.0551195
-0.0558569
-0.0561829
-0.0559479
-0.0553003
-0.0540917
-0.0525326
-0.0504706
-0.0481721
-0.0454685
-0.0426709
-0.0395789
-0.0365366
-0.0332962
-0.0302247
-0.0270234
-0.0240855
-0.0210836
-0.0184468
-0.0158471
-0.0137007
-0.0116407
-0.00987915
-0.00795938
-0.00581271
-0.00373757
-0.00213718
-0.00253087
0.0122639
0.0123385
0.012241
0.0120829
0.0117386
0.0112852
0.0106398
0.00981413
0.00871234
0.00728861
0.00545373
0.00318744
0.000500014
-0.00251355
-0.00573055
-0.00900711
-0.0122425
-0.0153711
-0.0183924
-0.0213194
-0.0242043
-0.0270656
-0.0299458
-0.0328209
-0.0357061
-0.0385305
-0.0412975
-0.0439019
-0.0463555
-0.0485274
-0.0504518
-0.0519751
-0.0531664
-0.0538558
-0.0541615
-0.0539055
-0.0532666
-0.0520624
-0.0505364
-0.0484971
-0.046248
-0.0435759
-0.0408356
-0.037776
-0.0347929
-0.0315807
-0.0285686
-0.0253906
-0.0225155
-0.0195365
-0.0169742
-0.0144065
-0.0123651
-0.0103795
-0.00882431
-0.007129
-0.0054108
-0.00370708
-0.00243062
-0.00281826
0.0121342
0.0122181
0.0121381
0.0120097
0.0117015
0.0112939
0.0107036
0.00995169
0.00894681
0.00765166
0.00597445
0.00388722
0.0013788
-0.00147683
-0.0045772
-0.00778236
-0.0109875
-0.0141082
-0.0171297
-0.020046
-0.0229053
-0.0257162
-0.0285306
-0.0313195
-0.0341146
-0.0368369
-0.0395086
-0.0420105
-0.0443755
-0.0464533
-0.0483032
-0.0497486
-0.050888
-0.051524
-0.0518076
-0.0515277
-0.0508987
-0.0496989
-0.0482103
-0.0461956
-0.044002
-0.0413641
-0.0386876
-0.0356616
-0.0327427
-0.0295558
-0.0266046
-0.0234421
-0.0206281
-0.0176603
-0.0151696
-0.0126196
-0.0106785
-0.0087428
-0.0073723
-0.0058486
-0.0045179
-0.00314932
-0.00223432
-0.00263254
0.0119943
0.0120806
0.0120162
0.0119151
0.0116459
0.0112888
0.0107611
0.0100914
0.0091927
0.00803695
0.00653053
0.00464089
0.00233524
-0.000332733
-0.0032862
-0.00639178
-0.00954684
-0.0126476
-0.0156672
-0.0185745
-0.0214143
-0.024179
-0.0269317
-0.0296333
-0.0323361
-0.0349494
-0.0375198
-0.03991
-0.04218
-0.0441553
-0.045926
-0.0472866
-0.0483711
-0.0489483
-0.0492084
-0.0489005
-0.0482814
-0.0470828
-0.0456329
-0.0436403
-0.0415047
-0.0388983
-0.0362879
-0.0332907
-0.0304364
-0.0272664
-0.0243733
-0.0212132
-0.0184551
-0.0154823
-0.0130584
-0.0105077
-0.00866161
-0.00674889
-0.00554432
-0.00413679
-0.00314727
-0.0020523
-0.00150348
-0.00191546
0.0119695
0.0120608
0.0120141
0.0119442
0.0117188
0.0114175
0.0109573
0.0103723
0.00958062
0.00856326
0.00722777
0.00553986
0.00344877
0.000988461
-0.00179199
-0.00477093
-0.00785374
-0.0109209
-0.0139353
-0.0168387
-0.0196704
-0.0224018
-0.0251063
-0.0277304
-0.0303488
-0.0328561
-0.0353273
-0.0376043
-0.0397791
-0.041649
-0.0433408
-0.0446144
-0.0456451
-0.0461617
-0.0464001
-0.0460625
-0.0454557
-0.0442564
-0.042848
-0.0408753
-0.0388005
-0.0362219
-0.0336794
-0.0307044
-0.0279136
-0.0247491
-0.0219099
-0.0187362
-0.0160282
-0.0130313
-0.0106695
-0.00809708
-0.00634279
-0.00442382
-0.00337127
-0.00202217
-0.00132666
-0.000420697
-0.000207344
-0.000618159
0.0118918
0.0119796
0.011947
0.0119038
0.0117238
0.0114824
0.0110973
0.0106064
0.00993093
0.00906177
0.00790671
0.00643453
0.00457678
0.00235276
-0.000220982
-0.00303503
-0.00601302
-0.00902055
-0.0120175
-0.0149133
-0.0177449
-0.0204534
-0.0231251
-0.0256831
-0.0282297
-0.0306366
-0.0330156
-0.0351797
-0.0372627
-0.0390256
-0.0406408
-0.0418253
-0.0428049
-0.0432585
-0.0434775
-0.0431069
-0.0425139
-0.0413092
-0.0399431
-0.0379838
-0.0359693
-0.0334095
-0.0309324
-0.0279667
-0.0252343
-0.0220581
-0.0192652
-0.0160571
-0.0133918
-0.0103482
-0.00804449
-0.00542608
-0.00376304
-0.00180567
-0.000897407
0.000454303
0.00089878
0.00172048
0.00166095
0.00128793
0.0119533
0.0120427
0.0120258
0.0120123
0.0118799
0.0117009
0.0113925
0.0109947
0.0104314
0.00970292
0.00871914
0.0074551
0.00582931
0.00385071
0.00150392
-0.00111596
-0.00395807
-0.00687859
-0.00984156
-0.0127242
-0.0155628
-0.0182628
-0.0209231
-0.0234358
-0.025933
-0.0282567
-0.0305598
-0.0326217
-0.0346237
-0.0362851
-0.0378317
-0.0389302
-0.0398651
-0.0402569
-0.040462
-0.0400577
-0.0394828
-0.0382697
-0.0369485
-0.034997
-0.0330437
-0.0304935
-0.0280801
-0.0251101
-0.0224313
-0.0192252
-0.0164723
-0.0132084
-0.0105809
-0.00746768
-0.00522209
-0.00253263
-0.000966137
0.00106375
0.0018257
0.00324343
0.00346745
0.00432464
0.00407466
0.00379975
0.0119028
0.0119827
0.011977
0.0119872
0.0119033
0.0117916
0.011569
0.0112766
0.0108366
0.0102605
0.00945558
0.00840956
0.00702584
0.00531326
0.00322041
0.000834517
-0.00183156
-0.00462289
-0.00752296
-0.0103713
-0.0132144
-0.0159097
-0.0185766
-0.0210614
-0.0235339
-0.0257924
-0.0280418
-0.0300137
-0.0319513
-0.033518
-0.0350081
-0.0360231
-0.0369226
-0.0372523
-0.0374503
-0.0370088
-0.0364564
-0.035228
-0.0339534
-0.0319989
-0.0301053
-0.0275497
-0.025195
-0.0222012
-0.0195687
-0.0163096
-0.0135895
-0.0102451
-0.00765222
-0.00444435
-0.00226075
0.000527271
0.00198576
0.00412657
0.00472985
0.00628281
0.00629979
0.00732472
0.00696866
0.00687627
0.0120391
0.0121184
0.0121258
0.0121627
0.0121258
0.0120796
0.0119386
0.0117447
0.0114176
0.010979
0.0103341
0.00948597
0.00832588
0.00686983
0.0050327
0.00289863
0.000436293
-0.00219039
-0.00499653
-0.00778553
-0.0106233
-0.0133144
-0.016003
-0.0184799
-0.0209563
-0.0231756
-0.0254008
-0.0273055
-0.0292029
-0.0306909
-0.0321426
-0.0330841
-0.0339616
-0.034234
-0.0344346
-0.0339563
-0.0334326
-0.0321849
-0.03096
-0.0289939
-0.02716
-0.0245857
-0.0222872
-0.0192519
-0.0166621
-0.0133296
-0.0106406
-0.00719422
-0.0046396
-0.00131424
0.000795839
0.00371054
0.00504076
0.00733452
0.0077527
0.00951453
0.00931138
0.0106428
0.0102433
0.0104411
0.0119784
0.0120418