/*--------------------------------*- C++ -*----------------------------------*\
| =========                 |                                                 |
| \\      /  F ield         | OpenFOAM: The Open Source CFD Toolbox           |
|  \\    /   O peration     | Version:  2406                                  |
|   \\  /    A nd           | Website:  www.openfoam.com                      |
|    \\/     M anipulation  |                                                 |
\*---------------------------------------------------------------------------*/
FoamFile
{
    version     2.0;
    format      ascii;
    arch        "LSB;label=32;scalar=64";
    class       volVectorField;
    location    "30.2";
    object      Uold;
}
// * * * * * * * * * * * * * * * * * * * * * * * * * * * * * * * * * * * * * //

dimensions      [0 1 -1 0 0 0 0];

internalField   nonuniform List<vector> 
3600
(
(1.94299e-05 -2.58257e-05 0)
(0.000500475 -0.000231025 0)
(0.00139366 -0.000325859 0)
(0.00235194 -0.000334585 0)
(0.00326613 -0.00027831 0)
(0.00395427 -0.00020359 0)
(0.0044464 -0.000129797 0)
(0.00471016 -7.36866e-05 0)
(0.00482393 -3.67704e-05 0)
(0.00479761 -1.64315e-05 0)
(0.0046785 -4.103e-06 0)
(0.00444931 9.64801e-06 0)
(0.00409671 3.39329e-05 0)
(0.00356203 7.55882e-05 0)
(0.00278777 0.000138659 0)
(0.00169601 0.000225184 0)
(0.00021655 0.000335873 0)
(-0.00172345 0.000470428 0)
(-0.00418281 0.000625446 0)
(-0.00720916 0.000793927 0)
(-0.0108254 0.000968084 0)
(-0.0150236 0.00114383 0)
(-0.0197488 0.00131983 0)
(-0.0248913 0.00149087 0)
(-0.0302797 0.00164015 0)
(-0.0356836 0.00173818 0)
(-0.0408234 0.00174891 0)
(-0.0453883 0.00163977 0)
(-0.0490602 0.00138984 0)
(-0.0515385 0.000994332 0)
(-0.0525648 0.000465156 0)
(-0.0519437 -0.000170339 0)
(-0.0495613 -0.000871865 0)
(-0.0454005 -0.00158871 0)
(-0.0395532 -0.00226308 0)
(-0.0322265 -0.00283396 0)
(-0.0237454 -0.00324266 0)
(-0.0145401 -0.00343951 0)
(-0.00512755 -0.00339204 0)
(0.00393135 -0.0030929 0)
(0.0120768 -0.00256584 0)
(0.0188211 -0.0018676 0)
(0.0237994 -0.00108202 0)
(0.0268355 -0.000307862 0)
(0.0279482 0.000362164 0)
(0.0273636 0.000860049 0)
(0.0254415 0.00115948 0)
(0.022634 0.00127369 0)
(0.0193674 0.0012471 0)
(0.0160241 0.00113122 0)
(0.0128518 0.000974353 0)
(0.0100275 0.000807498 0)
(0.00759223 0.000653391 0)
(0.00557785 0.000519084 0)
(0.00390991 0.000413403 0)
(0.00257785 0.000326945 0)
(0.00148472 0.000258666 0)
(0.000671126 0.000171667 0)
(0.0001217 6.8313e-05 0)
(-5.98326e-05 -6.46343e-05 0)
(0.000210207 -0.000489742 0)
(0.00135855 -0.00138257 0)
(0.00316078 -0.00177123 0)
(0.00501148 -0.00176945 0)
(0.00673053 -0.00148362 0)
(0.00800062 -0.00107648 0)
(0.00882656 -0.000646362 0)
(0.00912744 -0.000258763 0)
(0.0089843 6.77694e-05 0)
(0.00838256 0.000349117 0)
(0.00735058 0.000621496 0)
(0.00581676 0.000934181 0)
(0.00370015 0.00133113 0)
(0.000848608 0.00184823 0)
(-0.00289223 0.00250327 0)
(-0.00769621 0.0033004 0)
(-0.0137059 0.0042271 0)
(-0.0210306 0.00525892 0)
(-0.0297054 0.00635836 0)
(-0.0396717 0.00747661 0)
(-0.0507415 0.00854617 0)
(-0.0625958 0.00947724 0)
(-0.0747974 0.0101613 0)
(-0.0868337 0.010489 0)
(-0.0981659 0.0103684 0)
(-0.108278 0.00973949 0)
(-0.116712 0.00857967 0)
(-0.123093 0.00690353 0)
(-0.127128 0.00475855 0)
(-0.128616 0.00222047 0)
(-0.127432 -0.000611979 0)
(-0.123533 -0.00361991 0)
(-0.116955 -0.00666723 0)
(-0.107815 -0.00960212 0)
(-0.0963198 -0.012261 0)
(-0.0827701 -0.0144736 0)
(-0.067571 -0.0160745 0)
(-0.051228 -0.0169173 0)
(-0.0343432 -0.0168953 0)
(-0.0175876 -0.0159625 0)
(-0.00167405 -0.0141551 0)
(0.0127055 -0.0116013 0)
(0.0249242 -0.00851986 0)
(0.0345039 -0.00519916 0)
(0.041143 -0.00195605 0)
(0.0447876 0.00091134 0)
(0.0455999 0.00317976 0)
(0.0439875 0.00472982 0)
(0.0404878 0.00556545 0)
(0.0357572 0.00578406 0)
(0.0303908 0.00554853 0)
(0.0249456 0.00502629 0)
(0.0197646 0.00437373 0)
(0.0151237 0.0036946 0)
(0.0110641 0.00306995 0)
(0.00766557 0.00250759 0)
(0.0048175 0.00201216 0)
(0.00260718 0.00147348 0)
(0.000964194 0.000879936 0)
(0.000107603 0.000143008 0)
(0.000315711 -0.00136551 0)
(0.0018124 -0.00320244 0)
(0.0040484 -0.00395396 0)
(0.0062211 -0.00385056 0)
(0.00812194 -0.00316455 0)
(0.00936718 -0.0021836 0)
(0.00994168 -0.00112159 0)
(0.00972224 -9.42772e-05 0)
(0.00875022 0.000856829 0)
(0.00695235 0.00177615 0)
(0.00428462 0.00274294 0)
(0.000588054 0.00386838 0)
(-0.0043121 0.00524521 0)
(-0.0106536 0.00694379 0)
(-0.0186511 0.00898388 0)
(-0.0284907 0.0113425 0)
(-0.0402537 0.0139442 0)
(-0.0538818 0.0166679 0)
(-0.0691192 0.0193361 0)
(-0.085517 0.0217239 0)
(-0.102471 0.0235837 0)
(-0.119309 0.0246944 0)
(-0.135371 0.0248971 0)
(-0.150081 0.024113 0)
(-0.162976 0.0223356 0)
(-0.17371 0.0196153 0)
(-0.18204 0.0160407 0)
(-0.187807 0.0117253 0)
(-0.190908 0.00679851 0)
(-0.191288 0.00140325 0)
(-0.18892 -0.00430479 0)
(-0.183806 -0.0101531 0)
(-0.175982 -0.0159495 0)
(-0.16552 -0.021478 0)
(-0.15255 -0.0264991 0)
(-0.13727 -0.0307538 0)
(-0.11997 -0.0339775 0)
(-0.101044 -0.0359195 0)
(-0.0809997 -0.0363758 0)
(-0.0604479 -0.0352229 0)
(-0.0400903 -0.0324574 0)
(-0.0206664 -0.0282187 0)
(-0.00291245 -0.0227992 0)
(0.0125233 -0.0166217 0)
(0.0251155 -0.0101923 0)
(0.034544 -0.00403456 0)
(0.0406775 0.00138664 0)
(0.0436384 0.00572086 0)
(0.043726 0.00878336 0)
(0.041467 0.0105575 0)
(0.0374562 0.0111906 0)
(0.0323924 0.0109304 0)
(0.0268397 0.0100804 0)
(0.0213397 0.00891257 0)
(0.016154 0.00765624 0)
(0.0115595 0.00641732 0)
(0.00753726 0.00523945 0)
(0.00428779 0.00398284 0)
(0.00172833 0.00257235 0)
(0.000269777 0.000814924 0)
(0.00037238 -0.00238064 0)
(0.00200959 -0.00518922 0)
(0.0043153 -0.00619969 0)
(0.0063619 -0.0058203 0)
(0.00793048 -0.00454981 0)
(0.00861398 -0.00279254 0)
(0.00838149 -0.000871932 0)
(0.00706702 0.00107084 0)
(0.00464397 0.00298991 0)
(0.000949086 0.00497861 0)
(-0.00417146 0.00717038 0)
(-0.0109832 0.00973793 0)
(-0.0197463 0.0128025 0)
(-0.0307247 0.0164255 0)
(-0.0440696 0.0205605 0)
(-0.059774 0.0250624 0)
(-0.077584 0.0296679 0)
(-0.0969976 0.034023 0)
(-0.11731 0.037726 0)
(-0.137739 0.0404167 0)
(-0.157542 0.0418368 0)
(-0.176108 0.0418592 0)
(-0.192981 0.0404689 0)
(-0.20785 0.0377342 0)
(-0.220517 0.0337703 0)
(-0.230863 0.0287168 0)
(-0.238818 0.0227197 0)
(-0.244334 0.0159266 0)
(-0.247379 0.00848363 0)
(-0.247916 0.000541492 0)
(-0.245908 -0.00773951 0)
(-0.241316 -0.0161785 0)
(-0.234101 -0.0245663 0)
(-0.22424 -0.0326545 0)
(-0.21174 -0.0401532 0)
(-0.196659 -0.0467299 0)
(-0.179136 -0.0520239 0)
(-0.159411 -0.0556688 0)
(-0.137861 -0.0573346 0)
(-0.115007 -0.056776 0)
(-0.0915167 -0.0538926 0)
(-0.0681687 -0.0487733 0)
(-0.0458044 -0.0417252 0)
(-0.0252311 -0.0332547 0)
(-0.00715605 -0.0240151 0)
(0.00791341 -0.014715 0)
(0.0196638 -0.00602301 0)
(0.0280261 0.0015076 0)
(0.0330879 0.00749714 0)
(0.035158 0.0117546 0)
(0.034643 0.0142957 0)
(0.0321427 0.0153087 0)
(0.0282275 0.0151218 0)
(0.0235637 0.0141098 0)
(0.0185853 0.0126393 0)
(0.0137828 0.0109568 0)
(0.00928875 0.00918848 0)
(0.00547113 0.00722673 0)
(0.00230068 0.0049006 0)
(0.000395258 0.00186054 0)
(0.000394554 -0.00350978 0)
(0.00200803 -0.00724585 0)
(0.00409934 -0.00834378 0)
(0.0056715 -0.00745151 0)
(0.00649206 -0.00534534 0)
(0.00615443 -0.002539 0)
(0.00460132 0.000543695 0)
(0.00162227 0.00376783 0)
(-0.00289965 0.00710767 0)
(-0.00922947 0.010728 0)
(-0.0176344 0.0148171 0)
(-0.0284481 0.0195823 0)
(-0.0419234 0.0251073 0)
(-0.0581801 0.0313378 0)
(-0.0770703 0.0380153 0)
(-0.0981459 0.0447151 0)
(-0.120678 0.0508893 0)
(-0.143796 0.0559995 0)
(-0.16665 0.0596169 0)
(-0.188535 0.0614912 0)
(-0.208932 0.0615358 0)
(-0.227501 0.0597942 0)
(-0.244036 0.0563876 0)
(-0.258426 0.051481 0)
(-0.270618 0.0452516 0)
(-0.280594 0.0378762 0)
(-0.288355 0.0295195 0)
(-0.293904 0.020336 0)
(-0.297243 0.0104697 0)
(-0.298357 6.4483e-05 0)
(-0.297213 -0.0107289 0)
(-0.293753 -0.0217375 0)
(-0.287897 -0.032755 0)
(-0.279543 -0.0435248 0)
(-0.268584 -0.0537312 0)
(-0.254921 -0.0629912 0)
(-0.238501 -0.0708619 0)
(-0.219348 -0.0768588 0)
(-0.197622 -0.0805005 0)
(-0.173657 -0.0813674 0)
(-0.148003 -0.0791865 0)
(-0.121426 -0.0739081 0)
(-0.094881 -0.0657756 0)
(-0.0694049 -0.0553345 0)
(-0.0460025 -0.0433868 0)
(-0.0254776 -0.0308673 0)
(-0.00836582 -0.018698 0)
(0.00513089 -0.00765873 0)
(0.0150268 0.00168589 0)
(0.0215542 0.00899432 0)
(0.0250096 0.014149 0)
(0.0258663 0.0172335 0)
(0.0245949 0.018515 0)
(0.0218373 0.0183842 0)
(0.0180771 0.017276 0)
(0.0139321 0.0155596 0)
(0.00967115 0.013446 0)
(0.00582988 0.010897 0)
(0.00248749 0.00763545 0)
(0.000432574 0.00314353 0)
(0.000398788 -0.00459344 0)
(0.00183685 -0.00902976 0)
(0.00341996 -0.00992305 0)
(0.00416083 -0.00821189 0)
(0.00381497 -0.00497809 0)
(0.00200218 -0.000824026 0)
(-0.00138333 0.00375624 0)
(-0.00660285 0.00867399 0)
(-0.0138843 0.0139501 0)
(-0.023582 0.0198231 0)
(-0.0360279 0.026494 0)
(-0.0514983 0.0341096 0)
(-0.0700404 0.0425677 0)
(-0.0913848 0.0515248 0)
(-0.114898 0.0603779 0)
(-0.139686 0.0684259 0)
(-0.164774 0.0750105 0)
(-0.189291 0.0796693 0)
(-0.212567 0.0821571 0)
(-0.234145 0.0824302 0)
(-0.25374 0.0805763 0)
(-0.271199 0.0767699 0)
(-0.286461 0.0712215 0)
(-0.299528 0.0641556 0)
(-0.310449 0.055786 0)
(-0.319299 0.0463106 0)
(-0.326169 0.0359015 0)
(-0.331148 0.0247088 0)
(-0.334311 0.0128611 0)
(-0.335708 0.000477126 0)
(-0.335353 -0.0123268 0)
(-0.333208 -0.0254178 0)
(-0.329187 -0.0386326 0)
(-0.323138 -0.0517535 0)
(-0.314859 -0.0644926 0)
(-0.304095 -0.0764703 0)
(-0.290577 -0.0872112 0)
(-0.274052 -0.0961465 0)
(-0.254354 -0.102648 0)
(-0.231475 -0.106086 0)
(-0.205655 -0.105923 0)
(-0.177451 -0.101832 0)
(-0.147773 -0.0938214 0)
(-0.117829 -0.082314 0)
(-0.0890056 -0.068165 0)
(-0.0626243 -0.0525456 0)
(-0.0397229 -0.0367379 0)
(-0.0208531 -0.0218885 0)
(-0.00612916 -0.00884084 0)
(0.00470196 0.0019005 0)
(0.0119947 0.0101215 0)
(0.0162293 0.0158316 0)
(0.0178339 0.0192244 0)
(0.0173941 0.0206516 0)
(0.0153744 0.0205428 0)
(0.0124295 0.0193305 0)
(0.00891857 0.0172749 0)
(0.00549539 0.0144028 0)
(0.00236575 0.0103381 0)
(0.000407945 0.004421 0)
(0.000373809 -0.00560889 0)
(0.00145756 -0.010404 0)
(0.00222845 -0.0107226 0)
(0.00179479 -0.00783848 0)
(-0.000105438 -0.00313855 0)
(-0.00380918 0.00272151 0)
(-0.00949959 0.00921449 0)
(-0.0174858 0.0163298 0)
(-0.028099 0.0241385 0)
(-0.0417101 0.0329078 0)
(-0.0585835 0.0427404 0)
(-0.0787305 0.0535535 0)
(-0.101785 0.0648827 0)
(-0.126981 0.0760062 0)
(-0.153305 0.0860579 0)
(-0.179701 0.0942891 0)
(-0.205272 0.100177 0)
(-0.229344 0.103478 0)
(-0.251466 0.104162 0)
(-0.271364 0.102359 0)
(-0.288906 0.0982833 0)
(-0.304069 0.0922068 0)
(-0.316917 0.0844115 0)
(-0.327575 0.0751762 0)
(-0.336217 0.0647512 0)
(-0.343033 0.053355 0)
(-0.348222 0.0411628 0)
(-0.351964 0.028314 0)
(-0.354417 0.0149116 0)
(-0.355696 0.00103698 0)
(-0.355872 -0.0132429 0)
(-0.35495 -0.0278544 0)
(-0.352871 -0.0427033 0)
(-0.349486 -0.0576471 0)
(-0.344561 -0.0724736 0)
(-0.337756 -0.0868696 0)
(-0.328646 -0.100401 0)
(-0.316734 -0.112491 0)
(-0.301509 -0.122434 0)
(-0.282527 -0.129421 0)
(-0.259535 -0.13263 0)
(-0.2326 -0.131351 0)
(-0.202253 -0.125156 0)
(-0.169555 -0.114083 0)
(-0.136072 -0.0987657 0)
(-0.103668 -0.080438 0)
(-0.0741732 -0.0607598 0)
(-0.0489483 -0.0414579 0)
(-0.028649 -0.0239446 0)
(-0.0131839 -0.00909302 0)
(-0.00207198 0.00273563 0)
(0.00535987 0.0115323 0)
(0.00967793 0.0174885 0)
(0.0115099 0.0209488 0)
(0.0113306 0.022321 0)
(0.0097949 0.0220561 0)
(0.00731653 0.0204222 0)
(0.00460664 0.0174838 0)
(0.00198316 0.0127868 0)
(0.000328339 0.00557513 0)
(0.000305597 -0.00638351 0)
(0.000813389 -0.0110194 0)
(0.00043375 -0.0103121 0)
(-0.00152439 -0.00586979 0)
(-0.00535621 0.000656414 0)
(-0.0113394 0.00860685 0)
(-0.0197605 0.0174599 0)
(-0.030949 0.0272897 0)
(-0.0452855 0.0381723 0)
(-0.0630173 0.0502849 0)
(-0.0841556 0.0634579 0)
(-0.108264 0.0772113 0)
(-0.134511 0.0906672 0)
(-0.161775 0.102849 0)
(-0.188936 0.112867 0)
(-0.215024 0.120143 0)
(-0.23933 0.124388 0)
(-0.261359 0.125585 0)
(-0.280831 0.123885 0)
(-0.297621 0.119572 0)
(-0.311758 0.112985 0)
(-0.323376 0.104498 0)
(-0.332703 0.0944688 0)
(-0.340011 0.0832274 0)
(-0.3456 0.0710469 0)
(-0.349756 0.058147 0)
(-0.352755 0.0446861 0)
(-0.35483 0.0307742 0)
(-0.356183 0.0164745 0)
(-0.356966 0.0018213 0)
(-0.357289 -0.0131746 0)
(-0.357204 -0.0285051 0)
(-0.356704 -0.0441552 0)
(-0.355699 -0.0600759 0)
(-0.354005 -0.0761651 0)
(-0.351314 -0.09223 0)
(-0.347179 -0.107957 0)
(-0.341003 -0.122867 0)
(-0.332057 -0.136298 0)
(-0.319524 -0.147387 0)
(-0.302621 -0.155116 0)
(-0.280745 -0.158403 0)
(-0.253701 -0.156281 0)
(-0.221905 -0.148133 0)
(-0.18656 -0.133967 0)
(-0.149632 -0.114621 0)
(-0.113621 -0.091796 0)
(-0.0810102 -0.0677741 0)
(-0.0536487 -0.0448626 0)
(-0.0322596 -0.0247832 0)
(-0.01656 -0.00838767 0)
(-0.00565684 0.00420084 0)
(0.00135372 0.0132405 0)
(0.00533559 0.0191643 0)
(0.00690546 0.0224172 0)
(0.0067637 0.0234711 0)
(0.00538554 0.0225875 0)
(0.00349904 0.0198404 0)
(0.00150945 0.0147303 0)
(0.000235989 0.00646708 0)
(0.000175278 -0.00680563 0)
(-0.000145389 -0.0106425 0)
(-0.00200936 -0.00842528 0)
(-0.00580147 -0.00204072 0)
(-0.011879 0.00668076 0)
(-0.0204441 0.0171257 0)
(-0.0318944 0.0287981 0)
(-0.0465111 0.0418128 0)
(-0.0646166 0.0561407 0)
(-0.0861593 0.0716951 0)
(-0.110756 0.0878779 0)
(-0.137491 0.103773 0)
(-0.165218 0.118224 0)
(-0.192696 0.130231 0)
(-0.218899 0.139075 0)
(-0.243016 0.144425 0)
(-0.264519 0.146231 0)
(-0.283086 0.144688 0)
(-0.298631 0.140137 0)
(-0.311231 0.133021 0)
(-0.321125 0.123812 0)
(-0.328634 0.112975 0)
(-0.334142 0.100921 0)
(-0.338027 0.0879932 0)
(-0.340656 0.0744537 0)
(-0.342342 0.0604931 0)
(-0.343365 0.0462301 0)
(-0.343943 0.0317333 0)
(-0.344262 0.0170241 0)
(-0.34446 0.00209656 0)
(-0.344654 -0.0130798 0)
(-0.344917 -0.0285429 0)
(-0.345295 -0.0443347 0)
(-0.345778 -0.060481 0)
(-0.346293 -0.0769804 0)
(-0.346661 -0.0937712 0)
(-0.346569 -0.110702 0)
(-0.345521 -0.127477 0)
(-0.342809 -0.14361 0)
(-0.3375 -0.158365 0)
(-0.328488 -0.170737 0)
(-0.314597 -0.179467 0)
(-0.294807 -0.183157 0)
(-0.268538 -0.180482 0)
(-0.235999 -0.170531 0)
(-0.198463 -0.153199 0)
(-0.158345 -0.129531 0)
(-0.118882 -0.101796 0)
(-0.0834015 -0.0730927 0)
(-0.0542925 -0.0464681 0)
(-0.0323683 -0.0239819 0)
(-0.0169581 -0.00636126 0)
(-0.00679551 0.00660742 0)
(-0.000570518 0.0155425 0)
(0.00268299 0.0210582 0)
(0.00384192 0.0237272 0)
(0.00350338 0.0238439 0)
(0.00241655 0.0214944 0)
(0.00105443 0.016179 0)
(0.000151588 0.00712128 0)
(-3.40822e-05 -0.00664568 0)
(-0.00145442 -0.00890817 0)
(-0.0051162 -0.00468797 0)
(-0.0110004 0.00399991 0)
(-0.0195632 0.0152697 0)
(-0.0309025 0.0285851 0)
(-0.0455039 0.0434573 0)
(-0.0634907 0.059936 0)
(-0.0849987 0.0777322 0)
(-0.109545 0.0963401 0)
(-0.136339 0.114696 0)
(-0.164105 0.131567 0)
(-0.191597 0.145737 0)
(-0.217621 0.156367 0)
(-0.241323 0.162995 0)
(-0.262063 0.165553 0)
(-0.279536 0.164245 0)
(-0.293652 0.159505 0)
(-0.304589 0.151877 0)
(-0.312666 0.141968 0)
(-0.318332 0.13035 0)
(-0.32205 0.117534 0)
(-0.324291 0.103927 0)
(-0.325455 0.089838 0)
(-0.325891 0.075474 0)
(-0.325862 0.060967 0)
(-0.325585 0.0463799 0)
(-0.325211 0.0317346 0)
(-0.324866 0.0170154 0)
(-0.324643 0.00218916 0)
(-0.32463 -0.0127967 0)
(-0.324898 -0.028 0)
(-0.32552 -0.0434882 0)
(-0.326546 -0.0593255 0)
(-0.328008 -0.0755731 0)
(-0.329878 -0.0922665 0)
(-0.332044 -0.109399 0)
(-0.334242 -0.126873 0)
(-0.336006 -0.14445 0)
(-0.33659 -0.161666 0)
(-0.334935 -0.177756 0)
(-0.32967 -0.191581 0)
(-0.319237 -0.20163 0)
(-0.302126 -0.206118 0)
(-0.27728 -0.20326 0)
(-0.244574 -0.191713 0)
(-0.205289 -0.171166 0)
(-0.162289 -0.142873 0)
(-0.119692 -0.109833 0)
(-0.081788 -0.0762099 0)
(-0.0515832 -0.0459607 0)
(-0.0297839 -0.0214338 0)
(-0.0152605 -0.00307513 0)
(-0.00620602 0.00982128 0)
(-0.0010836 0.0181796 0)
(0.00136237 0.0228273 0)
(0.00197348 0.0242027 0)
(0.00158054 0.0224567 0)
(0.000731001 0.017148 0)
(0.000101054 0.00755486 0)
(-0.000329529 -0.00572896 0)
(-0.00309593 -0.00558131 0)
(-0.00879378 0.00109236 0)
(-0.0169271 0.0123888 0)
(-0.0280863 0.0265107 0)
(-0.0422198 0.0429906 0)
(-0.0598476 0.0612808 0)
(-0.0808108 0.0812171 0)
(-0.104963 0.10211 0)
(-0.131358 0.122973 0)
(-0.158903 0.142371 0)
(-0.186142 0.158953 0)
(-0.211892 0.171631 0)
(-0.235092 0.179823 0)
(-0.255109 0.183366 0)
(-0.27154 0.182494 0)
(-0.284384 0.177702 0)
(-0.293842 0.169673 0)
(-0.300378 0.159142 0)
(-0.304513 0.14682 0)
(-0.306831 0.133309 0)
(-0.307837 0.119094 0)
(-0.307987 0.104512 0)
(-0.307609 0.0897905 0)
(-0.306964 0.0750544 0)
(-0.306212 0.0603646 0)
(-0.305475 0.0457289 0)
(-0.304814 0.031132 0)
(-0.304289 0.0165358 0)
(-0.303937 0.00189827 0)
(-0.30381 -0.0128337 0)
(-0.303958 -0.0277129 0)
(-0.304456 -0.0428028 0)
(-0.30538 -0.0581687 0)
(-0.306821 -0.0738875 0)
(-0.308855 -0.0900362 0)
(-0.31153 -0.10669 0)
(-0.314817 -0.123895 0)
(-0.318554 -0.14163 0)
(-0.322354 -0.159733 0)
(-0.325516 -0.17781 0)
(-0.326925 -0.195102 0)
(-0.325029 -0.210373 0)
(-0.317911 -0.221856 0)
(-0.303563 -0.227328 0)
(-0.280367 -0.224433 0)
(-0.247777 -0.211266 0)
(-0.207004 -0.187217 0)
(-0.161412 -0.153803 0)
(-0.116116 -0.114995 0)
(-0.0765174 -0.0763457 0)
(-0.0461187 -0.0428459 0)
(-0.025298 -0.0169472 0)
(-0.0121995 0.00148263 0)
(-0.00461171 0.0136569 0)
(-0.000677502 0.0208469 0)
(0.000868654 0.0238184 0)
(0.00106308 0.022909 0)
(0.000572134 0.0178131 0)
(8.8477e-05 0.00788788 0)
(-0.000711071 -0.00382654 0)
(-0.00502489 -0.000395792 0)
(-0.0129074 0.00911822 0)
(-0.0233408 0.02326 0)
(-0.0370692 0.0404589 0)
(-0.0538287 0.0602574 0)
(-0.0741041 0.0819452 0)
(-0.0973565 0.104994 0)
(-0.123136 0.128243 0)
(-0.150095 0.150276 0)
(-0.177004 0.169466 0)
(-0.202374 0.184529 0)
(-0.225199 0.194632 0)
(-0.244614 0.199519 0)
(-0.26029 0.199379 0)
(-0.272136 0.194791 0)
(-0.280501 0.186552 0)
(-0.285868 0.175561 0)
(-0.288915 0.162663 0)
(-0.290258 0.148582 0)
(-0.290499 0.133866 0)
(-0.290074 0.118898 0)
(-0.28934 0.103903 0)
(-0.288497 0.0890057 0)
(-0.287689 0.0742431 0)
(-0.286962 0.0596139 0)
(-0.286352 0.0450859 0)
(-0.285851 0.0306228 0)
(-0.285466 0.0161808 0)
(-0.285194 0.00172266 0)
(-0.285063 -0.0127927 0)
(-0.285102 -0.0274015 0)
(-0.285376 -0.0421491 0)
(-0.285959 -0.0570834 0)
(-0.286959 -0.0722693 0)
(-0.28849 -0.0877836 0)
(-0.290684 -0.103725 0)
(-0.293646 -0.120201 0)
(-0.297442 -0.137317 0)
(-0.302007 -0.155133 0)
(-0.307069 -0.173585 0)
(-0.312005 -0.192366 0)
(-0.315717 -0.210754 0)
(-0.316529 -0.227437 0)
(-0.312226 -0.240378 0)
(-0.300312 -0.246869 0)
(-0.27859 -0.243867 0)
(-0.246034 -0.228786 0)
(-0.203787 -0.20066 0)
(-0.155794 -0.161422 0)
(-0.108365 -0.116396 0)
(-0.0680684 -0.0729231 0)
(-0.0386524 -0.037004 0)
(-0.0196707 -0.0107246 0)
(-0.00850892 0.00685499 0)
(-0.00255244 0.0175486 0)
(8.97467e-05 0.02267 0)
(0.000839425 0.0229384 0)
(0.00057498 0.0182905 0)
(0.000114346 0.00819667 0)
(-0.00115763 -0.000803654 0)
(-0.00712537 0.00673764 0)
(-0.0172098 0.0193771 0)
(-0.0298555 0.0364986 0)
(-0.0459601 0.0568689 0)
(-0.064981 0.0799389 0)
(-0.0873064 0.104729 0)
(-0.111973 0.13024 0)
(-0.138277 0.154867 0)
(-0.164593 0.176889 0)
(-0.189705 0.19468 0)
(-0.212209 0.207165 0)
(-0.231362 0.213864 0)
(-0.24657 0.214909 0)
(-0.257882 0.210893 0)
(-0.265546 0.202745 0)
(-0.270228 0.191513 0)
(-0.272595 0.178213 0)
(-0.273417 0.16369 0)
(-0.273275 0.148585 0)
(-0.272685 0.133313 0)
(-0.271938 0.118117 0)
(-0.271253 0.103098 0)
(-0.270691 0.0882805 0)
(-0.270292 0.0736353 0)
(-0.270016 0.0591215 0)
(-0.269842 0.0446889 0)
(-0.269716 0.0302995 0)
(-0.269626 0.0159175 0)
(-0.269543 0.00152095 0)
(-0.269484 -0.0129127 0)
(-0.269464 -0.0273984 0)
(-0.269536 -0.0419583 0)
(-0.269759 -0.0566161 0)
(-0.270235 -0.0714127 0)
(-0.271071 -0.0864029 0)
(-0.272418 -0.101671 0)
(-0.274433 -0.117331 0)
(-0.277287 -0.133529 0)
(-0.281112 -0.150431 0)
(-0.285955 -0.168186 0)
(-0.291645 -0.186835 0)
(-0.297665 -0.206171 0)
(-0.302949 -0.225524 0)
(-0.305741 -0.243495 0)
(-0.303562 -0.257759 0)
(-0.293463 -0.265034 0)
(-0.272677 -0.261498 0)
(-0.239723 -0.243764 0)
(-0.195758 -0.210565 0)
(-0.145513 -0.164547 0)
(-0.0967325 -0.113002 0)
(-0.0571145 -0.0654579 0)
(-0.0300259 -0.0284975 0)
(-0.0137077 -0.0032057 0)
(-0.00481361 0.0124953 0)
(-0.000661537 0.0206558 0)
(0.000758705 0.0226209 0)
(0.000675962 0.0187173 0)
(0.000164952 0.00858229 0)
(-0.00164302 0.00345601 0)
(-0.00927687 0.0158689 0)
(-0.0214634 0.0318205 0)
(-0.0361161 0.0519587 0)
(-0.0542613 0.0754595 0)
(-0.0750238 0.101557 0)
(-0.0986625 0.128916 0)
(-0.123807 0.156032 0)
(-0.149601 0.180951 0)
(-0.174269 0.201813 0)
(-0.196741 0.217164 0)
(-0.215786 0.226253 0)
(-0.230999 0.229037 0)
(-0.242119 0.226086 0)
(-0.249588 0.218409 0)
(-0.253939 0.207219 0)
(-0.256051 0.193708 0)
(-0.256636 0.178883 0)
(-0.256432 0.163487 0)
(-0.255883 0.147996 0)
(-0.255357 0.132662 0)
(-0.25498 0.11758 0)
(-0.254842 0.102746 0)
(-0.254893 0.0881123 0)
(-0.255106 0.0736123 0)
(-0.255388 0.0591905 0)
(-0.255699 0.0447989 0)
(-0.255968 0.0304099 0)
(-0.25618 0.0160033 0)
(-0.256301 0.00157453 0)
(-0.256346 -0.0128809 0)
(-0.256322 -0.0273594 0)
(-0.256275 -0.041864 0)
(-0.256246 -0.0563976 0)
(-0.256317 -0.0709776 0)
(-0.256572 -0.0856324 0)
(-0.257142 -0.100418 0)
(-0.258172 -0.11542 0)
(-0.259853 -0.130773 0)
(-0.262388 -0.146659 0)
(-0.265988 -0.163309 0)
(-0.27078 -0.180964 0)
(-0.276711 -0.199778 0)
(-0.283349 -0.21965 0)
(-0.289665 -0.239935 0)
(-0.293809 -0.259123 0)
(-0.293041 -0.274502 0)
(-0.283967 -0.282124 0)
(-0.263295 -0.277228 0)
(-0.229199 -0.255609 0)
(-0.183065 -0.215852 0)
(-0.130785 -0.161965 0)
(-0.0818142 -0.104063 0)
(-0.0446497 -0.0540082 0)
(-0.0212291 -0.0180058 0)
(-0.008143 0.00484908 0)
(-0.00178515 0.0173892 0)
(0.000609154 0.0218398 0)
(0.000790108 0.0190969 0)
(0.000225043 0.00906997 0)
(-0.00212014 0.00893553 0)
(-0.0113054 0.0268546 0)
(-0.0253613 0.0461863 0)
(-0.0416945 0.0692489 0)
(-0.0614213 0.0956664 0)
(-0.0833062 0.124343 0)
(-0.10748 0.153551 0)
(-0.132231 0.181309 0)
(-0.156661 0.205465 0)
(-0.178969 0.224176 0)
(-0.198329 0.236305 0)
(-0.21375 0.241512 0)
(-0.225219 0.240256 0)
(-0.23281 0.233554 0)
(-0.237307 0.22277 0)
(-0.239415 0.209284 0)
(-0.240089 0.194298 0)
(-0.239963 0.178694 0)
(-0.23965 0.163035 0)
(-0.239409 0.147603 0)
(-0.239455 0.132487 0)
(-0.239768 0.117662 0)
(-0.240346 0.103052 0)
(-0.24107 0.0885708 0)
(-0.241884 0.0741444 0)
(-0.242678 0.0597221 0)
(-0.243411 0.0452709 0)
(-0.244015 0.0307806 0)
(-0.24448 0.0162496 0)
(-0.244778 0.00169022 0)
(-0.244927 -0.0128857 0)
(-0.24493 -0.0274599 0)
(-0.244829 -0.0420206 0)
(-0.244654 -0.0565556 0)
(-0.244468 -0.0710647 0)
(-0.244331 -0.0855554 0)
(-0.244341 -0.100056 0)
(-0.244605 -0.114619 0)
(-0.245283 -0.129337 0)
(-0.246564 -0.144362 0)
(-0.248696 -0.159913 0)
(-0.251936 -0.17629 0)
(-0.256508 -0.19383 0)
(-0.262454 -0.212817 0)
(-0.269429 -0.233243 0)
(-0.276403 -0.254483 0)
(-0.281392 -0.274804 0)
(-0.281344 -0.290997 0)
(-0.272399 -0.298217 0)
(-0.250809 -0.290659 0)
(-0.214594 -0.263282 0)
(-0.165803 -0.215041 0)
(-0.112 -0.152346 0)
(-0.0646344 -0.0892139 0)
(-0.0319758 -0.039315 0)
(-0.0132081 -0.00645883 0)
(-0.00370129 0.0122967 0)
(0.000160069 0.0203576 0)
(0.000820871 0.0193663 0)
(0.00027664 0.00966384 0)
(-0.00255036 0.015559 0)
(-0.0130794 0.0395036 0)
(-0.0286824 0.0621987 0)
(-0.0462944 0.0880036 0)
(-0.0670758 0.117007 0)
(-0.0894382 0.147691 0)
(-0.113414 0.177951 0)
(-0.137042 0.205409 0)
(-0.159493 0.22787 0)
(-0.179036 0.243657 0)
(-0.195158 0.252066 0)
(-0.207152 0.253235 0)
(-0.215402 0.248148 0)
(-0.220265 0.238217 0)
(-0.222758 0.225049 0)
(-0.223625 0.210048 0)
(-0.223781 0.194308 0)
(-0.223696 0.178502 0)
(-0.223819 0.162984 0)
(-0.224227 0.147845 0)
(-0.225012 0.133048 0)
(-0.226049 0.118487 0)
(-0.22729 0.10405 0)
(-0.228585 0.0896443 0)
(-0.22988 0.075206 0)
(-0.231063 0.0607009 0)
(-0.232109 0.0461165 0)
(-0.232957 0.0314602 0)
(-0.23361 0.0167479 0)
(-0.234042 0.00200565 0)
(-0.234279 -0.0127418 0)
(-0.234323 -0.0274657 0)
(-0.234215 -0.0421444 0)
(-0.233976 -0.0567565 0)
(-0.233662 -0.0712912 0)
(-0.23331 -0.0857433 0)
(-0.232995 -0.100122 0)
(-0.232784 -0.114455 0)
(-0.232793 -0.128795 0)
(-0.233158 -0.143245 0)
(-0.234086 -0.157968 0)
(-0.235831 -0.173228 0)
(-0.238715 -0.189385 0)
(-0.24303 -0.206896 0)
(-0.248918 -0.226155 0)
(-0.256091 -0.247274 0)
(-0.26348 -0.269553 0)
(-0.268891 -0.290951 0)
(-0.268861 -0.30748 0)
(-0.25904 -0.313192 0)
(-0.235293 -0.301006 0)
(-0.19588 -0.265323 0)
(-0.144104 -0.206381 0)
(-0.0899935 -0.134708 0)
(-0.0467704 -0.0691898 0)
(-0.020485 -0.0227747 0)
(-0.00675212 0.00456977 0)
(-0.000763885 0.0177513 0)
(0.000699 0.019333 0)
(0.000308722 0.0103006 0)
(-0.00288446 0.0231213 0)
(-0.0144468 0.0534625 0)
(-0.0311898 0.0794078 0)
(-0.049622 0.10766 0)
(-0.0709028 0.138788 0)
(-0.0931298 0.170815 0)
(-0.116284 0.201314 0)
(-0.138254 0.227619 0)
(-0.158366 0.247651 0)
(-0.175034 0.260014 0)
(-0.188094 0.264521 0)
(-0.197126 0.261817 0)
(-0.202869 0.253381 0)
(-0.205863 0.240912 0)
(-0.207239 0.226126 0)
(-0.207665 0.210316 0)
(-0.207937 0.194383 0)
(-0.208327 0.178754 0)
(-0.209127 0.163584 0)
(-0.210269 0.148811 0)
(-0.211763 0.134313 0)
(-0.213426 0.119941 0)
(-0.215202 0.105582 0)
(-0.216935 0.0911531 0)
(-0.218584 0.0766116 0)
(-0.220049 0.0619433 0)
(-0.221322 0.0471565 0)
(-0.222346 0.0322747 0)
(-0.223137 0.0173289 0)
(-0.223672 0.00235676 0)
(-0.223981 -0.012606 0)
(-0.224066 -0.0275224 0)
(-0.223968 -0.0423629 0)
(-0.223706 -0.0571003 0)
(-0.223329 -0.0717172 0)
(-0.222866 -0.0862023 0)
(-0.222375 -0.100555 0)
(-0.221899 -0.114787 0)
(-0.221515 -0.128926 0)
(-0.221308 -0.143035 0)
(-0.221422 -0.157217 0)
(-0.222049 -0.171665 0)
(-0.223478 -0.186673 0)
(-0.226063 -0.202697 0)
(-0.230179 -0.220288 0)
(-0.236038 -0.24001 0)
(-0.243377 -0.262004 0)
(-0.251018 -0.285474 0)
(-0.256432 -0.307778 0)
(-0.255654 -0.323904 0)
(-0.243762 -0.326365 0)
(-0.216499 -0.306781 0)
(-0.172831 -0.259543 0)
(-0.118383 -0.187928 0)
(-0.0662474 -0.109126 0)
(-0.0303124 -0.0457842 0)
(-0.0111749 -0.00666939 0)
(-0.00227526 0.0134993 0)
(0.000389932 0.0187655 0)
(0.000315429 0.0109094 0)
(-0.00309634 0.031372 0)
(-0.0153329 0.068376 0)
(-0.0327772 0.0974228 0)
(-0.051566 0.127789 0)
(-0.072818 0.160551 0)
(-0.0943811 0.193269 0)
(-0.116233 0.22328 0)
(-0.136211 0.247748 0)
(-0.153853 0.264843 0)
(-0.167767 0.273541 0)
(-0.178137 0.274226 0)
(-0.184802 0.268032 0)
(-0.18877 0.256858 0)
(-0.190661 0.242556 0)
(-0.191604 0.226818 0)
(-0.192121 0.210732 0)
(-0.192851 0.194961 0)
(-0.193882 0.179696 0)
(-0.195382 0.164926 0)
(-0.197181 0.150481 0)
(-0.199253 0.136199 0)
(-0.201394 0.121919 0)
(-0.203559 0.107546 0)
(-0.205599 0.0930144 0)
(-0.207497 0.0783069 0)
(-0.20916 0.0634268 0)
(-0.210594 0.0484004 0)
(-0.211749 0.0332639 0)
(-0.212646 0.0180608 0)
(-0.213263 0.00283797 0)
(-0.213636 -0.0123598 0)
(-0.213763 -0.027489 0)
(-0.213688 -0.0425134 0)
(-0.213427 -0.0574021 0)
(-0.21303 -0.0721335 0)
(-0.21252 -0.0866945 0)
(-0.211949 -0.10108 0)
(-0.211346 -0.115297 0)
(-0.210766 -0.12936 0)
(-0.210256 -0.143308 0)
(-0.209904 -0.157195 0)
(-0.209829 -0.171151 0)
(-0.210241 -0.18537 0)
(-0.211437 -0.200225 0)
(-0.21383 -0.216235 0)
(-0.217858 -0.234134 0)
(-0.223791 -0.254571 0)
(-0.23133 -0.277768 0)
(-0.239059 -0.30254 0)
(-0.243996 -0.325438 0)
(-0.241483 -0.339838 0)
(-0.226145 -0.336439 0)
(-0.193849 -0.305624 0)
(-0.145364 -0.243158 0)
(-0.0896006 -0.158501 0)
(-0.0433468 -0.0774504 0)
(-0.0170119 -0.0224954 0)
(-0.0044966 0.00698682 0)
(-0.000101258 0.0173643 0)
(0.000292437 0.0114004 0)
(-0.00315809 0.0399767 0)
(-0.0156627 0.0837793 0)
(-0.0333483 0.115728 0)
(-0.0520412 0.147816 0)
(-0.0727862 0.181679 0)
(-0.0932597 0.214461 0)
(-0.11348 0.24336 0)
(-0.131316 0.265487 0)
(-0.146547 0.279368 0)
(-0.157994 0.284407 0)
(-0.166156 0.281567 0)
(-0.171077 0.272419 0)
(-0.17393 0.259165 0)
(-0.175318 0.243681 0)
(-0.176294 0.227526 0)
(-0.177198 0.211532 0)
(-0.178518 0.196121 0)
(-0.18019 0.181278 0)
(-0.182301 0.166875 0)
(-0.184626 0.152679 0)
(-0.187132 0.138519 0)
(-0.189617 0.124244 0)
(-0.192057 0.109782 0)
(-0.194316 0.0950881 0)
(-0.196393 0.0801682 0)
(-0.198205 0.0650395 0)
(-0.199766 0.0497433 0)
(-0.201028 0.0343257 0)
(-0.202016 0.0188415 0)
(-0.202708 0.0033453 0)
(-0.20314 -0.012109 0)
(-0.20331 -0.0274718 0)
(-0.203264 -0.0427 0)
(-0.203015 -0.0577592 0)
(-0.202613 -0.0726236 0)
(-0.202082 -0.0872801 0)
(-0.201472 -0.101722 0)
(-0.200807 -0.115958 0)
(-0.200135 -0.129997 0)
(-0.19948 -0.143873 0)
(-0.198897 -0.157612 0)
(-0.198446 -0.171301 0)
(-0.198252 -0.185045 0)
(-0.198518 -0.199112 0)
(-0.199581 -0.21389 0)
(-0.201904 -0.230088 0)
(-0.205998 -0.248535 0)
(-0.212154 -0.270103 0)
(-0.21993 -0.294825 0)
(-0.227545 -0.320999 0)
(-0.231289 -0.343683 0)
(-0.225819 -0.354192 0)
(-0.205327 -0.340995 0)
(-0.166745 -0.29404 0)
(-0.113713 -0.213351 0)
(-0.0601284 -0.118825 0)
(-0.0243457 -0.044482 0)
(-0.0075424 -0.0023329 0)
(-0.000793461 0.0147621 0)
(0.000249547 0.011707 0)
(-0.00307015 0.0486068 0)
(-0.0154429 0.0992737 0)
(-0.0329332 0.133947 0)
(-0.0511284 0.167398 0)
(-0.07097 0.201891 0)
(-0.0900471 0.234227 0)
(-0.108448 0.261561 0)
(-0.12414 0.28105 0)
(-0.137142 0.291649 0)
(-0.146491 0.293218 0)
(-0.152942 0.287276 0)
(-0.156673 0.275739 0)
(-0.158926 0.261001 0)
(-0.16022 0.244845 0)
(-0.161484 0.228635 0)
(-0.162883 0.212926 0)
(-0.164776 0.197933 0)
(-0.166993 0.183474 0)
(-0.169578 0.169356 0)
(-0.172283 0.155311 0)
(-0.17509 0.141185 0)
(-0.177808 0.126843 0)
(-0.180434 0.112239 0)
(-0.182845 0.0973478 0)
(-0.185053 0.0821909 0)
(-0.186979 0.0667964 0)
(-0.188644 0.0512179 0)
(-0.189998 0.0355091 0)
(-0.19107 0.0197345 0)
(-0.191836 0.00395553 0)
(-0.192331 -0.0117654 0)
(-0.192554 -0.0273729 0)
(-0.192548 -0.0428173 0)
(-0.192328 -0.0580607 0)
(-0.191942 -0.073073 0)
(-0.191415 -0.0878412 0)
(-0.190797 -0.102357 0)
(-0.190112 -0.116634 0)
(-0.189405 -0.13068 0)
(-0.188695 -0.144534 0)
(-0.188019 -0.158209 0)
(-0.187401 -0.171775 0)
(-0.18691 -0.185276 0)
(-0.186651 -0.198891 0)
(-0.186852 -0.212859 0)