/*--------------------------------*- C++ -*----------------------------------*\
| =========                 |                                                 |
| \\      /  F ield         | OpenFOAM: The Open Source CFD Toolbox           |
|  \\    /   O peration     | Version:  2406                                  |
|   \\  /    A nd           | Website:  www.openfoam.com                      |
|    \\/     M anipulation  |                                                 |
\*---------------------------------------------------------------------------*/
FoamFile
{
    version     2.0;
    format      ascii;
    arch        "LSB;label=32;scalar=64";
    class       volVectorField;
    location    "7.55";
    object      U;
}
// * * * * * * * * * * * * * * * * * * * * * * * * * * * * * * * * * * * * * //

dimensions      [0 1 -1 0 0 0 0];

internalField   nonuniform List<vector> 
3600
(
(1.59183e-05 -1.51327e-05 0)
(-3.3405e-05 1.83467e-05 0)
(-0.000165265 4.3788e-05 0)
(-0.000357189 6.17138e-05 0)
(-0.000588639 6.78829e-05 0)
(-0.000832359 7.08983e-05 0)
(-0.0010877 6.99476e-05 0)
(-0.00133817 6.91971e-05 0)
(-0.00159149 6.73517e-05 0)
(-0.00183683 6.63027e-05 0)
(-0.00208281 6.48227e-05 0)
(-0.00232117 6.39028e-05 0)
(-0.00255893 6.26069e-05 0)
(-0.0027893 6.15487e-05 0)
(-0.00301732 6.00602e-05 0)
(-0.00323721 5.85535e-05 0)
(-0.00345227 5.6548e-05 0)
(-0.00365747 5.43215e-05 0)
(-0.00385463 5.1517e-05 0)
(-0.00403924 4.83179e-05 0)
(-0.00421193 4.44544e-05 0)
(-0.0043685 4.00495e-05 0)
(-0.00450864 3.49062e-05 0)
(-0.00462845 2.9119e-05 0)
(-0.00472698 2.25636e-05 0)
(-0.00480065 1.5337e-05 0)
(-0.00484827 7.3952e-06 0)
(-0.00486682 -1.1348e-06 0)
(-0.00485531 -1.0208e-05 0)
(-0.00481157 -1.96494e-05 0)
(-0.00473533 -2.93238e-05 0)
(-0.00462564 -3.90069e-05 0)
(-0.00448339 -4.84884e-05 0)
(-0.00430912 -5.75156e-05 0)
(-0.00410517 -6.5839e-05 0)
(-0.00387366 -7.32207e-05 0)
(-0.00361841 -7.94234e-05 0)
(-0.00334292 -8.42803e-05 0)
(-0.00305216 -8.76199e-05 0)
(-0.00275049 -8.93968e-05 0)
(-0.00244349 -8.95429e-05 0)
(-0.00213562 -8.81589e-05 0)
(-0.00183237 -8.52829e-05 0)
(-0.00153754 -8.11497e-05 0)
(-0.00125593 -7.58669e-05 0)
(-0.000990073 -6.9753e-05 0)
(-0.000743792 -6.29148e-05 0)
(-0.00051815 -5.56779e-05 0)
(-0.000316203 -4.80602e-05 0)
(-0.000137757 -4.0306e-05 0)
(1.40948e-05 -3.22595e-05 0)
(0.000140207 -2.40065e-05 0)
(0.0002362 -1.51736e-05 0)
(0.000303022 -5.67539e-06 0)
(0.000333893 4.96044e-06 0)
(0.000330661 1.66369e-05 0)
(0.000285472 2.88435e-05 0)
(0.000208401 3.86205e-05 0)
(0.000103871 3.91879e-05 0)
(1.76677e-05 1.89043e-05 0)
(-1.82812e-05 3.36337e-05 0)
(-0.00021604 0.000210814 0)
(-0.000583589 0.000343171 0)
(-0.00106573 0.000439852 0)
(-0.00163589 0.000487778 0)
(-0.00224251 0.000514907 0)
(-0.00288022 0.000521484 0)
(-0.00351758 0.00052282 0)
(-0.00416225 0.000517365 0)
(-0.00479518 0.000511981 0)
(-0.00542706 0.0005041 0)
(-0.00604453 0.000496752 0)
(-0.00665667 0.000487562 0)
(-0.00725273 0.000477998 0)
(-0.00783893 0.000466219 0)
(-0.00840592 0.000453003 0)
(-0.00895715 0.000436963 0)
(-0.00948407 0.000418499 0)
(-0.00998773 0.000396543 0)
(-0.01046 0.000371277 0)
(-0.0109001 0.00034188 0)
(-0.0112999 0.00030844 0)
(-0.0116573 0.00027039 0)
(-0.0119645 0.000227859 0)
(-0.0122184 0.000180582 0)
(-0.0124118 0.000128864 0)
(-0.0125415 7.28226e-05 0)
(-0.0126016 1.30529e-05 0)
(-0.0125895 -4.98878e-05 0)
(-0.0125012 -0.000115049 0)
(-0.0123358 -0.00018143 0)
(-0.0120921 -0.000247755 0)
(-0.0117717 -0.000312676 0)
(-0.0113764 -0.00037473 0)
(-0.010911 -0.000432426 0)
(-0.0103806 -0.000484365 0)
(-0.00979285 -0.000529187 0)
(-0.00915567 -0.000565856 0)
(-0.00847921 -0.00059343 0)
(-0.00777305 -0.00061149 0)
(-0.00704857 -0.000619704 0)
(-0.00631572 -0.000618393 0)
(-0.00558576 -0.000607855 0)
(-0.00486754 -0.000589077 0)
(-0.00417099 -0.000562797 0)
(-0.00350281 -0.000530394 0)
(-0.00287105 -0.000492677 0)
(-0.00227987 -0.000450977 0)
(-0.00173584 -0.000405709 0)
(-0.00124114 -0.000357662 0)
(-0.00080234 -0.000306442 0)
(-0.000421012 -0.000251957 0)
(-0.000105837 -0.000193002 0)
(0.000141199 -0.000128894 0)
(0.000308152 -5.88696e-05 0)
(0.000395069 1.59778e-05 0)
(0.000391259 9.05445e-05 0)
(0.000312714 0.000151993 0)
(0.000171023 0.000171319 0)
(3.63979e-05 0.000102424 0)
(-4.97467e-05 0.000175641 0)
(-0.000378673 0.000589425 0)
(-0.000951734 0.000896623 0)
(-0.00166991 0.00111678 0)
(-0.00250812 0.00123877 0)
(-0.00339585 0.00130852 0)
(-0.00432836 0.00133327 0)
(-0.00526397 0.00134038 0)
(-0.00621065 0.00133162 0)
(-0.0071437 0.00131922 0)
(-0.00807425 0.00130095 0)
(-0.00898561 0.00128161 0)
(-0.00988708 0.00125805 0)
(-0.0107655 0.0012321 0)
(-0.0116268 0.00120099 0)
(-0.0124597 0.00116537 0)
(-0.0132666 0.001123 0)
(-0.0140371 0.001074 0)
(-0.014771 0.00101657 0)
(-0.015458 0.000950561 0)
(-0.0160956 0.000874595 0)
(-0.0166738 0.000788491 0)
(-0.0171884 0.000691358 0)
(-0.0176298 0.000583269 0)
(-0.0179929 0.000463973 0)
(-0.0182689 0.000334067 0)
(-0.0184531 0.00019413 0)
(-0.0185381 4.55118e-05 0)
(-0.0185206 -0.000110251 0)
(-0.0183959 -0.000270959 0)
(-0.0181632 -0.000434131 0)
(-0.0178213 -0.000596822 0)
(-0.0173728 -0.000755847 0)
(-0.0168208 -0.000907861 0)
(-0.0161718 -0.00104944 0)
(-0.0154332 -0.00117741 0)
(-0.0146153 -0.00128871 0)
(-0.0137287 -0.00138099 0)
(-0.0127869 -0.00145217 0)
(-0.0118027 -0.00150123 0)
(-0.0107908 -0.00152751 0)
(-0.00976447 -0.00153158 0)
(-0.00873822 -0.00151419 0)
(-0.00772386 -0.00147732 0)
(-0.0067342 -0.00142273 0)
(-0.0057784 -0.00135321 0)
(-0.00486688 -0.00127068 0)
(-0.00400583 -0.00117775 0)
(-0.00320382 -0.00107546 0)
(-0.00246489 -0.000965129 0)
(-0.00179764 -0.000846 0)
(-0.0012058 -0.000717389 0)
(-0.000700477 -0.000576884 0)
(-0.000286438 -0.000422763 0)
(2.18002e-05 -0.000254219 0)
(0.000221622 -7.42258e-05 0)
(0.000301439 0.000104526 0)
(0.000276999 0.000255311 0)
(0.000163761 0.00031932 0)
(3.68073e-05 0.000208266 0)
(-7.64826e-05 0.00039972 0)
(-0.000520715 0.00112185 0)
(-0.00126842 0.00164006 0)
(-0.00217815 0.00200034 0)
(-0.00322808 0.00220893 0)
(-0.00433245 0.00232909 0)
(-0.00549094 0.00237809 0)
(-0.00665388 0.00239401 0)
(-0.00783128 0.00238319 0)
(-0.00899346 0.00236289 0)
(-0.0101524 0.00233188 0)
(-0.011288 0.00229671 0)
(-0.0124099 0.00225376 0)
(-0.0135025 0.00220518 0)
(-0.0145717 0.00214735 0)
(-0.015604 0.00208072 0)
(-0.0166015 0.0020022 0)
(-0.0175518 0.00191152 0)
(-0.0184538 0.00180614 0)
(-0.0192957 0.00168552 0)
(-0.0200737 0.0015477 0)
(-0.0207763 0.00139227 0)
(-0.0213981 0.00121804 0)
(-0.021928 0.00102513 0)
(-0.0223601 0.000813409 0)
(-0.0226843 0.000583955 0)
(-0.0228951 0.000338015 0)
(-0.0229846 7.79474e-05 0)
(-0.0229491 -0.000193448 0)
(-0.022784 -0.000472409 0)
(-0.0224886 -0.000754654 0)
(-0.0220626 -0.00103524 0)
(-0.0215094 -0.00130883 0)
(-0.0208334 -0.00156989 0)
(-0.0200429 -0.00181282 0)
(-0.0191467 -0.00203242 0)
(-0.0181575 -0.0022238 0)
(-0.017088 -0.00238313 0)
(-0.015954 -0.00250716 0)
(-0.0147706 -0.00259431 0)
(-0.0135549 -0.00264357 0)
(-0.0123222 -0.00265592 0)
(-0.0110892 -0.00263265 0)
(-0.00986934 -0.00257696 0)
(-0.00867721 -0.00249171 0)
(-0.00752329 -0.00238134 0)
(-0.00641928 -0.00224894 0)
(-0.00537234 -0.00209856 0)
(-0.00439203 -0.00193181 0)
(-0.00348327 -0.00175061 0)
(-0.00265554 -0.00155362 0)
(-0.00191366 -0.00133964 0)
(-0.00126966 -0.00110475 0)
(-0.000729708 -0.000846491 0)
(-0.00030895 -0.000563787 0)
(-1.16915e-05 -0.000262328 0)
(0.00015096 3.8147e-05 0)
(0.000192146 0.000296031 0)
(0.00012915 0.000425064 0)
(3.02735e-05 0.000293881 0)
(-9.36106e-05 0.000690746 0)
(-0.000625675 0.00179236 0)
(-0.00151312 0.00256118 0)
(-0.00257767 0.00308127 0)
(-0.00379817 0.00338898 0)
(-0.00507417 0.00356592 0)
(-0.00640995 0.00364351 0)
(-0.00774895 0.00366965 0)
(-0.0091043 0.00365698 0)
(-0.0104421 0.0036271 0)
(-0.0117757 0.0035807 0)
(-0.0130823 0.00352565 0)
(-0.014372 0.00345833 0)
(-0.015627 0.00338091 0)
(-0.0168532 0.00328914 0)
(-0.0180353 0.00318302 0)
(-0.0191751 0.00305873 0)
(-0.0202587 0.00291541 0)
(-0.0212844 0.00274984 0)
(-0.0222387 0.00256097 0)
(-0.0231174 0.00234634 0)
(-0.0239075 0.0021052 0)
(-0.0246029 0.00183622 0)
(-0.0251914 0.00153955 0)
(-0.0256662 0.0012154 0)
(-0.0260165 0.000865411 0)
(-0.0262364 0.000491755 0)
(-0.0263175 9.80179e-05 0)
(-0.026256 -0.000311434 0)
(-0.0260473 -0.000730979 0)
(-0.0256912 -0.00115418 0)
(-0.0251878 -0.00157376 0)
(-0.0245416 -0.00198187 0)
(-0.0237581 -0.00237046 0)
(-0.022847 -0.00273139 0)
(-0.0218188 -0.00305723 0)
(-0.0206882 -0.00334095 0)
(-0.0194698 -0.00357715 0)
(-0.0181816 -0.00376131 0)
(-0.0168409 -0.00389125 0)
(-0.0154668 -0.00396573 0)
(-0.0140765 -0.00398628 0)
(-0.0126885 -0.00395494 0)
(-0.0113179 -0.00387639 0)
(-0.00998027 -0.00375491 0)
(-0.00868709 -0.00359685 0)
(-0.00745071 -0.00340673 0)
(-0.00627856 -0.00319029 0)
(-0.00518045 -0.00294979 0)
(-0.00416125 -0.00268789 0)
(-0.00323041 -0.00240257 0)
(-0.00239274 -0.00209211 0)
(-0.00166013 -0.00175082 0)
(-0.00103909 -0.00137567 0)
(-0.000544496 -0.000964954 0)
(-0.00018174 -0.000527694 0)
(3.86909e-05 -9.01364e-05 0)
(0.000127169 0.00029 0)
(0.000102162 0.00050115 0)
(2.50894e-05 0.000367283 0)
(-0.000107163 0.00102745 0)
(-0.000710035 0.00256151 0)
(-0.00170859 0.00360683 0)
(-0.00289633 0.00429651 0)
(-0.00425132 0.00470706 0)
(-0.00566112 0.00494138 0)
(-0.00713413 0.00504788 0)
(-0.00860822 0.00508381 0)
(-0.0100998 0.0050687 0)
(-0.0115715 0.00502782 0)
(-0.0130384 0.00496405 0)
(-0.0144751 0.00488621 0)
(-0.0158925 0.00479086 0)
(-0.0172709 0.00468005 0)
(-0.0186163 0.00454898 0)
(-0.0199119 0.00439717 0)
(-0.0211593 0.00422007 0)
(-0.0223431 0.00401626 0)
(-0.0234614 0.00378182 0)
(-0.0244994 0.00351519 0)
(-0.0254524 0.00321344 0)
(-0.0263062 0.00287556 0)
(-0.0270543 0.00250007 0)
(-0.0276832 0.00208729 0)
(-0.0281859 0.00163778 0)
(-0.0285507 0.00115394 0)
(-0.0287711 0.000638965 0)
(-0.0288384 9.7827e-05 0)
(-0.0287485 -0.000463362 0)
(-0.0284968 -0.00103693 0)
(-0.0280831 -0.00161406 0)
(-0.0275081 -0.00218493 0)
(-0.026777 -0.00273891 0)
(-0.025896 -0.00326524 0)
(-0.0248765 -0.00375303 0)
(-0.0237304 -0.00419235 0)
(-0.0224742 -0.00457395 0)
(-0.0211248 -0.00489073 0)
(-0.0197024 -0.00513683 0)
(-0.0182264 -0.00530953 0)
(-0.0167184 -0.00540746 0)
(-0.0151976 -0.00543288 0)
(-0.0136846 -0.0053888 0)
(-0.0121957 -0.00528174 0)
(-0.010748 -0.00511763 0)
(-0.00935363 -0.00490514 0)
(-0.00802536 -0.00465044 0)
(-0.00677051 -0.00436129 0)
(-0.00559866 -0.00404075 0)
(-0.00451396 -0.00369247 0)
(-0.00352519 -0.0033137 0)
(-0.00263618 -0.00290245 0)
(-0.00185794 -0.00245099 0)
(-0.00119623 -0.00195592 0)
(-0.000664996 -0.00141431 0)
(-0.000269632 -0.000838654 0)
(-1.98558e-05 -0.000260268 0)
(9.30252e-05 0.000246967 0)
(8.81284e-05 0.000548984 0)
(2.24497e-05 0.000425802 0)
(-0.000115997 0.00140366 0)
(-0.000771484 0.00341683 0)
(-0.00185527 0.00476421 0)
(-0.00313952 0.00563614 0)
(-0.00460071 0.00615548 0)
(-0.00611613 0.00644925 0)
(-0.00769714 0.00658543 0)
(-0.00927678 0.00663073 0)
(-0.0108745 0.0066125 0)
(-0.01245 0.0065592 0)
(-0.0140204 0.00647628 0)
(-0.0155581 0.00637313 0)
(-0.0170749 0.0062467 0)
(-0.0185496 0.00609866 0)
(-0.0199885 0.00592384 0)
(-0.0213735 0.00572106 0)
(-0.0227062 0.00548515 0)
(-0.0239701 0.00521395 0)
(-0.025163 0.00490294 0)
(-0.0262692 0.00454994 0)
(-0.0272833 0.00415156 0)
(-0.0281903 0.00370648 0)
(-0.0289829 0.00321311 0)
(-0.0296469 0.00267192 0)
(-0.0301744 0.00208391 0)
(-0.0305528 0.00145223 0)
(-0.0307751 0.000781234 0)
(-0.0308316 7.7395e-05 0)
(-0.0307178 -0.000651252 0)
(-0.0304283 -0.00139476 0)
(-0.0299632 -0.0021417 0)
(-0.0293227 -0.00287934 0)
(-0.0285126 -0.00359396 0)
(-0.0275398 -0.00427166 0)
(-0.0264169 -0.0048984 0)
(-0.0251573 -0.00546142 0)
(-0.0237797 -0.00594882 0)
(-0.0223031 -0.00635156 0)
(-0.0207505 -0.00666223 0)
(-0.019144 -0.00687754 0)
(-0.0175083 -0.00699601 0)
(-0.015865 -0.00702088 0)
(-0.0142372 -0.00695642 0)
(-0.0126432 -0.00681142 0)
(-0.0111017 -0.00659392 0)
(-0.00962541 -0.00631548 0)
(-0.00822783 -0.00598437 0)
(-0.00691575 -0.00561091 0)
(-0.00569827 -0.00519925 0)
(-0.00457822 -0.00475439 0)
(-0.00356323 -0.00427295 0)
(-0.0026554 -0.00375284 0)
(-0.00186446 -0.00318408 0)
(-0.00119457 -0.00256298 0)
(-0.000658706 -0.00188492 0)
(-0.00026128 -0.00116598 0)
(-1.15113e-05 -0.00044192 0)
(9.96079e-05 0.000196787 0)
(9.18775e-05 0.000594084 0)
(2.3133e-05 0.000484681 0)
(-0.000123383 0.00180516 0)
(-0.000820625 0.0043307 0)
(-0.00197058 0.00599757 0)
(-0.00333021 0.00705944 0)
(-0.00487418 0.00768976 0)
(-0.00647202 0.00804272 0)
(-0.00813719 0.00820759 0)
(-0.00979906 0.00826112 0)
(-0.0114797 0.00823877 0)
(-0.0131364 0.00817199 0)
(-0.0147882 0.00806882 0)
(-0.0164059 0.00793896 0)
(-0.0180023 0.0077798 0)
(-0.0195547 0.00759245 0)
(-0.0210702 0.00737141 0)
(-0.0225294 0.00711473 0)
(-0.0239342 0.00681661 0)
(-0.0252671 0.00647413 0)
(-0.0265256 0.00608211 0)
(-0.0276931 0.00563772 0)
(-0.028764 0.00513709 0)
(-0.0297221 0.00457851 0)
(-0.0305596 0.00396025 0)
(-0.0312611 0.00328286 0)
(-0.0318178 0.00254775 0)
(-0.0322159 0.00175881 0)
(-0.0324473 0.000921524 0)
(-0.0325011 4.39277e-05 0)
(-0.0323718 -0.000863936 0)
(-0.032053 -0.00178971 0)
(-0.0315439 -0.00271908 0)
(-0.0308443 -0.00363617 0)
(-0.0299601 -0.00452375 0)
(-0.0288985 -0.00536438 0)
(-0.0276731 -0.00614038 0)
(-0.026299 -0.00683566 0)
(-0.0247971 -0.00743525 0)
(-0.0231891 -0.00792776 0)
(-0.0215015 -0.00830399 0)
(-0.0197596 -0.00855994 0)
(-0.0179919 -0.00869406 0)
(-0.0162233 -0.0087108 0)
(-0.0144802 -0.00861607 0)
(-0.0127832 -0.00842146 0)
(-0.0111534 -0.00813772 0)
(-0.00960427 -0.00778 0)
(-0.0081499 -0.00735925 0)
(-0.00679645 -0.00688904 0)
(-0.00555231 -0.00637502 0)
(-0.00441837 -0.00582405 0)
(-0.00340073 -0.00523218 0)
(-0.00249895 -0.00459746 0)
(-0.00172115 -0.00390746 0)
(-0.00106898 -0.00315812 0)
(-0.000554346 -0.00234264 0)
(-0.000179585 -0.00148046 0)
(4.65019e-05 -0.000611358 0)
(0.000135241 0.000157468 0)
(0.000107325 0.000647375 0)
(2.55885e-05 0.000546911 0)
(-0.000128332 0.00222958 0)
(-0.00085679 0.00529535 0)
(-0.00205734 0.00729747 0)
(-0.00347558 0.00855789 0)
(-0.00508468 0.00930314 0)
(-0.00674796 0.00971685 0)
(-0.00848042 0.00991087 0)
(-0.0102083 0.00997257 0)
(-0.011956 0.00994603 0)
(-0.0136788 0.00986557 0)
(-0.0153977 0.00974197 0)
(-0.017082 0.00958503 0)
(-0.0187458 0.00939266 0)
(-0.0203653 0.00916523 0)
(-0.0219482 0.00889694 0)
(-0.0234744 0.00858491 0)
(-0.024946 0.00822275 0)
(-0.0263446 0.00780659 0)
(-0.0276678 0.0073306 0)
(-0.028898 0.00679113 0)
(-0.0300293 0.00618374 0)
(-0.0310444 0.00550618 0)
(-0.0319346 0.00475648 0)
(-0.0326832 0.00393511 0)
(-0.0332803 0.00304379 0)
(-0.0337103 0.00208701 0)
(-0.0339636 0.00107137 0)
(-0.0340275 6.42239e-06 0)
(-0.0338947 -0.00109568 0)
(-0.0335572 -0.00222 0)
(-0.0330127 -0.00334904 0)
(-0.0322599 -0.00446335 0)
(-0.0313043 -0.00554167 0)
(-0.0301531 -0.00656232 0)
(-0.0288208 -0.00750328 0)
(-0.0273243 -0.00834438 0)
(-0.0256871 -0.00906685 0)
(-0.0239342 -0.00965632 0)
(-0.0220964 -0.0101013 0)
(-0.0202031 -0.0103969 0)
(-0.0182878 -0.0105414 0)
(-0.0163798 -0.0105407 0)
(-0.0145098 -0.0104029 0)
(-0.0127015 -0.0101432 0)
(-0.0109788 -0.00977574 0)
(-0.00935639 -0.00932027 0)
(-0.00784918 -0.0087913 0)
(-0.00646232 -0.00820653 0)
(-0.00520324 -0.00757374 0)
(-0.00407017 -0.00690221 0)
(-0.00306727 -0.00618769 0)
(-0.00219068 -0.0054285 0)
(-0.00144659 -0.00460959 0)
(-0.000833318 -0.00372634 0)
(-0.000361693 -0.00276948 0)
(-3.09471e-05 -0.0017617 0)
(0.000150432 -0.000747001 0)
(0.000198056 0.000149972 0)
(0.000133962 0.000726066 0)
(2.97281e-05 0.000621479 0)
(-0.000132807 0.00266946 0)
(-0.000886514 0.00629576 0)
(-0.00212683 0.00864431 0)
(-0.00359136 0.0101091 0)
(-0.00525196 0.0109714 0)
(-0.00696749 0.0114465 0)
(-0.00875407 0.0116695 0)
(-0.0105358 0.0117393 0)
(-0.0123387 0.0117087 0)
(-0.0141171 0.0116149 0)
(-0.0158932 0.0114715 0)
(-0.0176356 0.0112883 0)
(-0.0193596 0.0110636 0)
(-0.0210405 0.010797 0)
(-0.0226869 0.0104823 0)
(-0.0242779 0.0101156 0)
(-0.025816 0.00968993 0)
(-0.0272822 0.00920034 0)
(-0.0286741 0.00864022 0)
(-0.0299733 0.00800496 0)
(-0.0311733 0.00728941 0)
(-0.0322557 0.00649056 0)
(-0.0332108 0.00560601 0)
(-0.0340203 0.00463589 0)
(-0.0346727 0.00358201 0)
(-0.0351502 0.00244926 0)
(-0.0354411 0.00124516 0)
(-0.0355301 -1.92824e-05 0)
(-0.0354075 -0.00132982 0)
(-0.0350628 -0.00266879 0)
(-0.0344917 -0.00401523 0)
(-0.0336909 -0.00534562 0)
(-0.0326647 -0.006634 0)
(-0.0314203 -0.0078537 0)
(-0.0299729 -0.00897738 0)
(-0.0283411 -0.00997981 0)
(-0.0265518 -0.0108374 0)
(-0.024634 -0.0115321 0)
(-0.0226236 -0.0120493 0)
(-0.0205559 -0.012383 0)
(-0.0184702 -0.0125311 0)
(-0.0164015 -0.0125016 0)
(-0.0143862 -0.0123051 0)
(-0.0124521 -0.0119613 0)
(-0.0106267 -0.011489 0)
(-0.00892612 -0.0109137 0)
(-0.00736633 -0.0102546 0)
(-0.00595106 -0.00953482 0)
(-0.00468635 -0.00876492 0)
(-0.00356693 -0.00795737 0)
(-0.00259432 -0.00710783 0)
(-0.00176021 -0.00621505 0)
(-0.00106831 -0.00526105 0)
(-0.000512655 -0.00424039 0)
(-0.000102766 -0.00314086 0)
(0.000166212 -0.00198818 0)
(0.00028616 -0.000830936 0)
(0.000278524 0.000187955 0)
(0.000167067 0.000838432 0)
(3.45081e-05 0.000710372 0)
(-0.000135886 0.00312241 0)
(-0.00090911 0.00732562 0)
(-0.0021809 0.0100302 0)
(-0.00368248 0.0117053 0)
(-0.00538492 0.0126879 0)
(-0.00714359 0.0132263 0)
(-0.00897561 0.0134797 0)
(-0.0108033 0.0135589 0)
(-0.0126544 0.0135257 0)
(-0.0144821 0.0134203 0)
(-0.0163102 0.0132591 0)
(-0.0181068 0.0130518 0)
(-0.0198881 0.0127972 0)
(-0.0216293 0.0124938 0)
(-0.0233394 0.0121353 0)
(-0.0249974 0.0117165 0)
(-0.0266062 0.0112297 0)
(-0.0281462 0.0106687 0)
(-0.029615 0.010026 0)
(-0.0309936 0.00929585 0)
(-0.0322747 0.00847207 0)
(-0.0334389 0.00755065 0)
(-0.0344751 0.00652842 0)
(-0.0353632 0.00540485 0)
(-0.0360894 0.00418152 0)
(-0.0366335 0.00286339 0)
(-0.0369809 0.00145866 0)
(-0.0371127 -2.04151e-05 0)
(-0.0370163 -0.0015575 0)
(-0.0366774 -0.00313205 0)
(-0.0360887 -0.00471928 0)
(-0.0352443 -0.00629098 0)
(-0.0341468 -0.00781562 0)
(-0.0328025 -0.00926041 0)
(-0.0312274 -0.0105914 0)
(-0.0294423 -0.011777 0)
(-0.0274778 -0.0127876 0)
(-0.0253679 -0.0135999 0)
(-0.0231549 -0.0141957 0)
(-0.0208811 -0.0145669 0)
(-0.0185936 -0.0147114 0)
(-0.0163345 -0.0146393 0)
(-0.0141475 -0.0143645 0)
(-0.0120655 -0.0139126 0)
(-0.0101208 -0.0133083 0)
(-0.00833162 -0.0125846 0)
(-0.00671507 -0.011767 0)
(-0.00527311 -0.0108853 0)
(-0.00400988 -0.00995417 0)
(-0.00291547 -0.00899009 0)
(-0.00198783 -0.00798897 0)
(-0.00121292 -0.00695005 0)
(-0.000591192 -0.00585212 0)
(-0.000111256 -0.00468841 0)
(0.000218963 -0.00344342 0)
(0.000409331 -0.00214565 0)
(0.000452172 -0.000848961 0)
(0.000376037 0.000284255 0)
(0.00020677 0.000994209 0)
(4.01016e-05 0.000817969 0)
(-0.000138982 0.00358689 0)
(-0.000928756 0.00838047 0)
(-0.00222636 0.0114487 0)
(-0.0037585 0.0133385 0)
(-0.00549557 0.0144438 0)
(-0.00729056 0.0150472 0)
(-0.00916142 0.0153323 0)
(-0.0110294 0.0154223 0)
(-0.0129235 0.0153882 0)
(-0.0147966 0.0152736 0)
(-0.0166739 0.0150973 0)
(-0.0185229 0.014869 0)
(-0.0203611 0.014588 0)
(-0.0221636 0.0142519 0)
(-0.0239403 0.0138537 0)
(-0.0256698 0.0133871 0)
(-0.0273556 0.0128435 0)
(-0.0289778 0.0122154 0)
(-0.0305341 0.0114941 0)
(-0.0320046 0.0106723 0)
(-0.0333816 0.00974277 0)
(-0.0346443 0.00870001 0)
(-0.0357801 0.00753968 0)
(-0.0367667 0.00626014 0)
(-0.0375879 0.00486225 0)
(-0.03822 0.00335058 0)
(-0.0386448 0.00173361 0)
(-0.0388395 2.45507e-05 0)
(-0.038787 -0.00175832 0)
(-0.0384685 -0.00359149 0)
(-0.0378726 -0.00544593 0)
(-0.0369898 -0.00728801 0)
(-0.0358204 -0.00907957 0)
(-0.0343692 -0.0107803 0)
(-0.0326533 -0.012348 0)
(-0.0306956 -0.0137431 0)
(-0.0285313 -0.0149281 0)
(-0.0262002 -0.0158734 0)
(-0.0237522 -0.0165558 0)
(-0.0212373 -0.0169647 0)
(-0.0187122 -0.0170976 0)
(-0.0162273 -0.0169668 0)
(-0.0138353 -0.0165907 0)
(-0.0115761 -0.016002 0)
(-0.00948853 -0.0152329 0)
(-0.00759374 -0.0143264 0)
(-0.00591103 -0.0133158 0)
(-0.0044404 -0.0122401 0)
(-0.00318357 -0.0111193 0)
(-0.00212468 -0.00997529 0)
(-0.0012568 -0.00880452 0)
(-0.000558388 -0.00760684 0)
(-2.53548e-05 -0.0063572 0)
(0.000360495 -0.00504683 0)
(0.000593529 -0.00365621 0)
(0.000689527 -0.00221621 0)
(0.000641413 -0.00078656 0)
(0.000485748 0.000449577 0)
(0.000250632 0.00119975 0)
(4.59917e-05 0.000945869 0)
(-0.000141123 0.00405824 0)
(-0.000944245 0.00945204 0)
(-0.00226345 0.0128902 0)
(-0.00382136 0.014999 0)
(-0.00558824 0.01623 0)
(-0.00741509 0.016901 0)
(-0.00932082 0.0172202 0)
(-0.0112259 0.0173239 0)
(-0.0131605 0.0172921 0)
(-0.0150774 0.0171719 0)
(-0.017003 0.0169848 0)
(-0.0189049 0.0167405 0)
(-0.0208018 0.0164385 0)
(-0.0226687 0.0160753 0)
(-0.0245165 0.0156436 0)
(-0.026324 0.0151355 0)
(-0.028095 0.0145415 0)
(-0.0298098 0.0138526 0)
(-0.0314659 0.0130586 0)
(-0.033043 0.0121506 0)
(-0.0345328 0.0111196 0)
(-0.035913 0.0099582 0)
(-0.0371694 0.00866052 0)
(-0.0382773 0.00722313 0)
(-0.0392174 0.00564561 0)
(-0.0399622 0.0039315 0)
(-0.0404893 0.00208903 0)
(-0.0407705 0.000131901 0)
(-0.0407834 -0.00191984 0)
(-0.0405036 -0.00403962 0)
(-0.0399146 -0.00619366 0)
(-0.0390024 -0.00834193 0)
(-0.0377645 -0.0104382 0)
(-0.0362045 -0.0124328 0)
(-0.0343407 -0.0142736 0)
(-0.0321986 -0.0159107 0)
(-0.0298185 -0.0172973 0)
(-0.0272456 -0.0183959 0)
(-0.0245371 -0.0191774 0)
(-0.0217506 -0.0196276 0)
(-0.0189517 -0.019743 0)
(-0.0162001 -0.0195383 0)
(-0.0135591 -0.0190364 0)
(-0.0110784 -0.0182781 0)
(-0.00880656 -0.0173054 0)
(-0.00677088 -0.0161732 0)
(-0.0049955 -0.0149261 0)
(-0.00347968 -0.0136148 0)
(-0.00222303 -0.0122672 0)
(-0.00120247 -0.0109124 0)
(-0.000404399 -0.00954829 0)
(0.000202646 -0.00817537 0)
(0.000629428 -0.006764 0)
(0.000903008 -0.00530243 0)
(0.0010213 -0.003766 0)
(0.00100711 -0.00218733 0)
(0.000854298 -0.00063253 0)
(0.000608159 0.000693055 0)
(0.000299183 0.00146125 0)
(5.24223e-05 0.00109642 0)
(-0.000143503 0.00454022 0)
(-0.000958415 0.0105446 0)
(-0.00229603 0.0143586 0)
(-0.00387615 0.0166904 0)
(-0.00566889 0.0180498 0)
(-0.00752402 0.0187908 0)
(-0.00946131 0.0191466 0)
(-0.0114008 0.019267 0)
(-0.0133741 0.019241 0)
(-0.0153337 0.0191193 0)
(-0.0173076 0.0189261 0)
(-0.0192635 0.0186711 0)
(-0.0212212 0.0183542 0)
(-0.0231562 0.0179707 0)
(-0.0250804 0.0175127 0)
(-0.0269727 0.016971 0)
(-0.0288379 0.0163348 0)
(-0.0306562 0.0155933 0)
(-0.0324254 0.0147348 0)
(-0.0341247 0.0137481 0)
(-0.0357453 0.0126224 0)
(-0.0372635 0.0113477 0)
(-0.0386635 0.00991583 0)
(-0.0399177 0.00832099 0)
(-0.0410037 0.00656062 0)
(-0.0418895 0.00463644 0)
(-0.0425475 0.00255566 0)
(-0.0429436 0.000331913 0)
(-0.043049 -0.00201329 0)
(-0.0428329 -0.0044501 0)
(-0.0422733 -0.00693918 0)
(-0.0413521 -0.00943268 0)
(-0.0400648 -0.0118744 0)
(-0.0384155 -0.0142032 0)
(-0.0364246 -0.016355 0)
(-0.034121 -0.0182684 0)
(-0.0315481 -0.0198865 0)
(-0.0287534 -0.0211634 0)
(-0.0257963 -0.0220633 0)
(-0.022736 -0.0225679 0)
(-0.0196429 -0.0226708 0)
(-0.0165833 -0.0223871 0)
(-0.0136331 -0.0217427 0)
(-0.0108558 -0.0207861 0)
(-0.00831757 -0.0195694 0)
(-0.00605995 -0.0181625 0)
(-0.00411996 -0.0166251 0)
(-0.00250155 -0.0150246 0)
(-0.00120515 -0.013401 0)
(-0.000200162 -0.0117943 0)
(0.000535914 -0.0102052 0)
(0.00104824 -0.00863584 0)
(0.00135818 -0.00705083 0)
(0.00150531 -0.00543394 0)
(0.00149383 -0.00375353 0)
(0.00135544 -0.00204267 0)
(0.00108592 -0.000373876 0)
(0.000740029 0.0010241 0)
(0.00035081 0.00178427 0)
(5.90596e-05 0.00127124 0)
(-0.000144992 0.00502428 0)
(-0.000969386 0.011645 0)
(-0.00232283 0.0158392 0)
(-0.00392231 0.0183975 0)
(-0.00573822 0.0198885 0)
(-0.00761923 0.0207027 0)
(-0.00958607 0.0210986 0)
(-0.0115586 0.0212397 0)
(-0.0135696 0.0212243 0)
(-0.015572 0.0211068 0)
(-0.0175949 0.0209139 0)
(-0.0196064 0.0206555 0)
(-0.0216279 0.0203317 0)
(-0.0236351 0.0199368 0)
(-0.0256412 0.0194621 0)
(-0.0276258 0.0188968 0)
(-0.0295944 0.018229 0)
(-0.0315275 0.0174457 0)
(-0.0334235 0.0165335 0)
(-0.0352615 0.0154786 0)
(-0.0370321 0.0142675 0)
(-0.0387105 0.0128874 0)
(-0.0402793 0.011327 0)
(-0.0417081 0.00957719 0)
(-0.0429708 0.00763233 0)
(-0.0440307 0.00549137 0)
(-0.0448546 0.00315963 0)
(-0.0454018 0.000650084 0)
(-0.045637 -0.00201428 0)
(-0.0455237 -0.00479957 0)
(-0.0450364 -0.00765914 0)
(-0.0441563 -0.0105349 0)
(-0.042882 -0.013358 0)
(-0.0412226 -0.016054 0)
(-0.0392036 -0.0185464 0)
(-0.0368555 -0.020764 0)
(-0.034218 -0.0226422 0)
(-0.0313278 -0.0241296 0)
(-0.0282298 -0.0251852 0)
(-0.0249676 -0.0257845 0)
(-0.021602 -0.0259139 0)
(-0.0181982 -0.0255821 0)
(-0.0148445 -0.0248107 0)
(-0.0116274 -0.0236499 0)
(-0.0086464 -0.0221595 0)
(-0.00597706 -0.0204266 0)
(-0.00368911 -0.0185311 0)
(-0.00180698 -0.0165659 0)
(-0.000342216 -0.0145916 0)
(0.000740178 -0.012667 0)
(0.00147376 -0.0108003 0)
(0.00192348 -0.0089975 0)
(0.00212885 -0.00721641 0)
(0.00214918 -0.00543426 0)
(0.00200101 -0.00360926 0)
(0.00172902 -0.00177252 0)
(0.00133355 -2.06941e-06 0)
(0.000880238 0.00144927 0)
(0.000405368 0.00217278 0)
(6.60144e-05 0.00147156 0)
(-0.000146789 0.00551936 0)
(-0.000979395 0.0127655 0)
(-0.00234603 0.0173451 0)
(-0.00396208 0.0201337 0)
(-0.00579816 0.0217594 0)
(-0.00770239 0.0226501 0)
(-0.00969636 0.0230897 0)
(-0.0117001 0.0232556 0)
(-0.0137475 0.0232555 0)
(-0.015792 0.0231477 0)
(-0.017864 0.0229616 0)
(-0.0199325 0.0227072 0)
(-0.0220199 0.0223849 0)
(-0.024103 0.0219879 0)
(-0.0261961 0.0215068 0)
(-0.0282796 0.0209293 0)
(-0.0303605 0.0202419 0)
(-0.0324196 0.0194296 0)
(-0.0344564 0.0184767 0)
(-0.0364497 0.0173664 0)
(-0.0383904 0.0160825 0)
(-0.0402527 0.0146081 0)
(-0.0420177 0.0129282 0)
(-0.0436524 0.0110293 0)
(-0.0451271 0.00890169 0)
(-0.0464004 0.0065404 0)
(-0.0474334 0.00394811 0)
(-0.04818 0.001137 0)
(-0.0486008 -0.00186731 0)
(-0.0486585 -0.00502426 0)
(-0.0483324 -0.00827587 0)
(-0.0476147 -0.0115494 0)
(-0.0465196 -0.0147604 0)
(-0.0450709 -0.0178219 0)
(-0.0433018 -0.0206504 0)
(-0.0412348 -0.0231743 0)
(-0.0388835 -0.0253329 0)
(-0.0362414 -0.0270789 0)
(-0.0333006 -0.0283695 0)
(-0.0300522 -0.0291702 0)
(-0.0265183 -0.0294488 0)
(-0.0227462 -0.0291897 0)
(-0.0188357 -0.028391 0)
(-0.014911 -0.0270873 0)
(-0.011134 -0.0253357 0)
(-0.00765215 -0.0232382 0)
(-0.0046095 -0.0209022 0)
(-0.00208751 -0.0184615 0)
(-0.00013562 -0.0160143 0)
(0.00127271 -0.013656 0)
(0.00218163 -0.0114139 0)
(0.00268486 -0.00930478 0)
(0.00285404 -0.00727982 0)
(0.00278254 -0.0053069 0)
(0.00251223 -0.00332865 0)
(0.0021099 -0.00136941 0)
(0.00158702 0.000490299 0)
(0.0010234 0.00197438 0)
(0.000460669 0.00263023 0)
(7.29188e-05 0.00169839 0)
(-0.000147504 0.00601145 0)
(-0.000985846 0.0138852 0)
(-0.00236315 0.0188534 0)
(-0.00399314 0.0218753 0)
(-0.005847 0.0236391 0)
(-0.00777229 0.0246099 0)
(-0.00979158 0.0250975 0)
(-0.0118251 0.0252934 0)
(-0.0139079 0.0253148 0)
(-0.0159941 0.0252239 0)
(-0.0181154 0.0250529 0)
(-0.0202417 0.024812 0)
(-0.0223969 0.0245017 0)
(-0.0245588 0.0241144 0)
(-0.0267433 0.0236399 0)
(-0.028932 0.0230642 0)
(-0.0311331 0.0223724 0)
(-0.0333289 0.021547 0)
(-0.0355196 0.0205699 0)
(-0.0376851 0.0194212 0)
(-0.0398164 0.0180808 0)
(-0.0418875 0.0165277 0)
(-0.0438784 0.0147419 0)
(-0.0457541 0.0127046 0)
(-0.0474817 0.0104009 0)
(-0.0490161 0.0078211 0)
(-0.050315 0.00496551 0)
(-0.0513312 0.00184749 0)
(-0.05203 -0.00150028 0)
(-0.0523884 -0.00502329 0)
(-0.0524121 -0.00864371 0)
(-0.0521296 -0.0122675 0)
(-0.0515934 -0.0157948 0)
(-0.0508539 -0.0191358 0)
(-0.0499428 -0.0222208 0)
(-0.0488434 -0.0250049 0)
(-0.0474915 -0.0274578 0)
(-0.0457737 -0.0295535 0)
(-0.043564 -0.031252 0)
(-0.040745 -0.0324971 0)
(-0.0372572 -0.0332125 0)
(-0.0331076 -0.0333235 0)
(-0.0284045 -0.032766 0)
(-0.0233285 -0.0315231 0)
(-0.0181432 -0.0296223 0)
(-0.0131253 -0.0271688 0)
(-0.0085613 -0.0243035 0)
(-0.00465855 -0.0212231 0)
(-0.00156195 -0.0180962 0)
(0.000710496 -0.0150905 0)
(0.00220146 -0.0122801 0)
(0.00304228 -0.00971137 0)
(0.00335885 -0.00733348 0)
(0.00330453 -0.00510241 0)
(0.00297188 -0.0029363 0)
(0.00246868 -0.000843609 0)
(0.00183188 0.00109982 0)
(0.00116319 0.0025987 0)
(0.000514878 0.00315622 0)
(7.96453e-05 0.00195135 0)
(-0.000148538 0.00651528 0)
(-0.000990974 0.0150248 0)
(-0.00237568 0.0203864 0)
(-0.00401628 0.0236457 0)
(-0.00588431 0.0255511 0)
(-0.00782744 0.026606 0)
(-0.00986892 0.0271458 0)
(-0.0119295 0.0273765 0)
(-0.0140454 0.027425 0)
(-0.0161716 0.0273577 0)
(-0.018341 0.0272095 0)
(-0.0205247 0.026991 0)
(-0.0227482 0.0267031 0)
(-0.0249907 0.0263372 0)
(-0.0272696 0.0258825 0)
(-0.0295683 0.0253234 0)
(-0.0318967 0.0246434 0)
(-0.0342386 0.0238227 0)
(-0.0365961 0.0228405 0)
(-0.0389501 0.0216733 0)
(-0.0412929 0.0202969 0)
(-0.0435987 0.0186851 0)
(-0.0458476 0.0168125 0)
(-0.0480032 0.0146538 0)
(-0.0500316 0.0121885 0)
(-0.0518869 0.0094028 0)
(-0.05353 0.00629749 0)
(-0.0549253 0.00289427 0)
(-0.0560653 -0.000754832 0)
(-0.0569746 -0.00456562 0)
(-0.057727 -0.00842596 0)
(-0.0584284 -0.0122161 0)
(-0.0591944 -0.015834 0)
(-0.0600959 -0.0192219 0)
(-0.0611208 -0.0223733 0)
(-0.0621383 -0.0253224 0)
(-0.0629136 -0.0281103 0)
(-0.0631352 -0.0307524 0)
(-0.0624829 -0.0332055 0)
(-0.0606756 -0.0353637 0)
(-0.0575381 -0.037062 0)
(-0.053019 -0.0381126 0)
(-0.0472297 -0.0383305 0)
(-0.0404178 -0.0375903 0)
(-0.0329769 -0.0358411 0)
(-0.0253684 -0.0331585 0)
(-0.0181015 -0.0297096 0)
(-0.0116099 -0.0257764 0)
(-0.00623528 -0.0216461 0)
(-0.00212177 -0.017622 0)
(0.000726549 -0.0138833 0)
(0.00247284 -0.0105506 0)
(0.00332246 -0.00758958 0)
(0.00352809 -0.00494594 0)
(0.00327628 -0.00250046 0)
(0.00275056 -0.000229665 0)
(0.00204116 0.00181019 0)
(0.00128767 0.00331487 0)
(0.000564101 0.00374748 0)
(8.57029e-05 0.00222939 0)
(-0.000148126 0.00700962 0)
(-0.000991397 0.0161528 0)
(-0.0023802 0.0219097 0)
(-0.00402801 0.0254091 0)
(-0.00590707 0.0274598 0)
(-0.00786508 0.0286028 0)
(-0.00992601 0.0291998 0)
(-0.0120112 0.0294713 0)
(-0.0141578 0.0295542 0)
(-0.0163219 0.0295187 0)
(-0.0185377 0.0294032 0)
(-0.0207777 0.0292183 0)
(-0.0230689 0.0289656 0)