/*--------------------------------*- C++ -*----------------------------------*\
| =========                 |                                                 |
| \\      /  F ield         | OpenFOAM: The Open Source CFD Toolbox           |
|  \\    /   O peration     | Version:  2406                                  |
|   \\  /    A nd           | Website:  www.openfoam.com                      |
|    \\/     M anipulation  |                                                 |
\*---------------------------------------------------------------------------*/
FoamFile
{
    version     2.0;
    format      ascii;
    arch        "LSB;label=32;scalar=64";
    class       surfaceScalarField;
    location    "13.1";
    object      phi;
}
// * * * * * * * * * * * * * * * * * * * * * * * * * * * * * * * * * * * * * //

dimensions      [0 3 -1 0 0 0 0];

oriented        oriented;

internalField   nonuniform List<scalar> 
7080
(
2.90845e-08
-2.92376e-08
-4.62549e-08
7.77226e-08
-2.28252e-07
1.81715e-07
-5.00774e-07
2.75828e-07
-8.3037e-07
3.30242e-07
-1.19504e-06
3.68313e-07
-1.58046e-06
3.86836e-07
-1.97976e-06
4.02939e-07
-2.39268e-06
4.14908e-07
-2.81982e-06
4.30721e-07
-3.26442e-06
4.47037e-07
-3.72738e-06
4.66556e-07
-4.21025e-06
4.857e-07
-4.71166e-06
5.05054e-07
-5.23019e-06
5.21655e-07
-5.76185e-06
5.35329e-07
-6.3023e-06
5.43747e-07
-6.84508e-06
5.46386e-07
-7.38315e-06
5.41336e-07
-7.90762e-06
5.27843e-07
-8.40886e-06
5.04244e-07
-8.87561e-06
4.69651e-07
-9.29577e-06
4.22627e-07
-9.65597e-06
3.6236e-07
-9.94221e-06
2.87855e-07
-1.01399e-05
1.98814e-07
-1.02346e-05
9.5183e-08
-1.02127e-05
-2.21643e-08
-1.0062e-05
-1.51669e-07
-9.77313e-06
-2.90614e-07
-9.34036e-06
-4.35325e-07
-8.76273e-06
-5.80979e-07
-8.04492e-06
-7.21916e-07
-7.19793e-06
-8.51811e-07
-6.23918e-06
-9.64155e-07
-5.19234e-06
-1.05276e-06
-4.08626e-06
-1.11229e-06
-2.95377e-06
-1.13894e-06
-1.82947e-06
-1.13068e-06
-7.47959e-07
-1.08783e-06
2.58916e-07
-1.01274e-06
1.16342e-06
-9.10059e-07
1.94431e-06
-7.85634e-07
2.58676e-06
-6.46771e-07
3.08388e-06
-5.00368e-07
3.43474e-06
-3.53728e-07
3.64525e-06
-2.12099e-07
3.72448e-06
-8.06991e-08
3.68605e-06
3.84584e-08
3.54305e-06
1.42691e-07
3.31133e-06
2.33213e-07
3.0032e-06
3.08597e-07
2.63391e-06
3.72084e-07
2.21392e-06
4.20761e-07
1.75978e-06
4.58038e-07
1.28566e-06
4.74582e-07
8.19866e-07
4.70488e-07
4.01254e-07
4.17993e-07
9.71717e-08
3.09002e-07
9.71048e-08
-7.82522e-08
4.6753e-08
-3.98419e-07
3.98364e-07
-9.45597e-07
7.24242e-07
-1.68187e-06
1.01071e-06
-2.55356e-06
1.1962e-06
-3.51565e-06
1.32738e-06
-4.53839e-06
1.40341e-06
-5.60293e-06
1.46342e-06
-6.70404e-06
1.50972e-06
-7.83883e-06
1.5607e-06
-9.01009e-06
1.61188e-06
-1.02171e-05
1.66811e-06
-1.14601e-05
1.72203e-06
-1.2734e-05
1.77297e-06
-1.4033e-05
1.81385e-06
-1.53464e-05
1.84234e-06
-1.6662e-05
1.85251e-06
-1.79636e-05
1.84157e-06
-1.92335e-05
1.80462e-06
-2.04506e-05
1.73884e-06
-2.15924e-05
1.64007e-06
-2.26337e-05
1.50565e-06
-2.35482e-05
1.33228e-06
-2.43077e-05
1.11796e-06
-2.48839e-05
8.60894e-07
-2.5248e-05
5.60944e-07
-2.53728e-05
2.1916e-07
-2.52334e-05
-1.60998e-07
-2.48091e-05
-5.7389e-07
-2.40854e-05
-1.01086e-06
-2.30551e-05
-1.46057e-06
-2.17207e-05
-1.90876e-06
-2.00954e-05
-2.33907e-06
-1.82043e-05
-2.73356e-06
-1.60838e-05
-3.07401e-06
-1.37818e-05
-3.34323e-06
-1.13554e-05
-3.5265e-06
-8.86878e-06
-3.61313e-06
-6.38949e-06
-3.59744e-06
-3.98542e-06
-3.47982e-06
-1.72013e-06
-3.26647e-06
3.49827e-07
-2.96957e-06
2.17893e-06
-2.60525e-06
3.7333e-06
-2.1933e-06
4.99327e-06
-1.7536e-06
5.95082e-06
-1.30651e-06
6.61096e-06
-8.68445e-07
6.98621e-06
-4.54297e-07
7.09827e-06
-7.24632e-08
6.9703e-06
2.69491e-07
6.6313e-06
5.71256e-07
6.10675e-06
8.2957e-07
5.42819e-06
1.04832e-06
4.62199e-06
1.22143e-06
3.72652e-06
1.35075e-06
2.77806e-06
1.41611e-06
1.83808e-06
1.40853e-06
9.76287e-07
1.27222e-06
3.11053e-07
9.74417e-07
4.03284e-07
-2.14468e-07
2.60691e-07
-8.2014e-07
1.00902e-06
-1.758e-06
1.66125e-06
-2.95134e-06
2.20947e-06
-4.33227e-06
2.57835e-06
-5.83766e-06
2.83842e-06
-7.42996e-06
2.99835e-06
-9.08119e-06
3.1203e-06
-1.07823e-05
3.21443e-06
-1.25259e-05
3.3099e-06
-1.43121e-05
3.40242e-06
-1.61366e-05
3.49837e-06
-1.79962e-05
3.58644e-06
-1.9881e-05
3.66363e-06
-2.178e-05
3.71817e-06
-2.36762e-05
3.7445e-06
-2.55508e-05
3.7326e-06
-2.73802e-05
3.67685e-06
-2.91393e-05
3.56919e-06
-3.07996e-05
3.40455e-06
-3.23311e-05
3.17651e-06
-3.37015e-05
2.88079e-06
-3.48779e-05
2.51259e-06
-3.58256e-05
2.06915e-06
-3.65105e-05
1.54833e-06
-3.68986e-05
9.508e-07
-3.69584e-05
2.79504e-07
-3.66613e-05
-4.58529e-07
-3.59847e-05
-1.25232e-06
-3.49128e-05
-2.08577e-06
-3.34397e-05
-2.93805e-06
-3.15706e-05
-3.78345e-06
-2.93241e-05
-4.59254e-06
-2.67324e-05
-5.33327e-06
-2.38423e-05
-5.97312e-06
-2.07142e-05
-6.48124e-06
-1.74199e-05
-6.83108e-06
-1.40408e-05
-7.00294e-06
-1.06628e-05
-6.98595e-06
-7.37322e-06
-6.7798e-06
-4.25462e-06
-6.39474e-06
-1.38161e-06
-5.85164e-06
1.18446e-06
-5.17916e-06
3.39668e-06
-4.41249e-06
5.22586e-06
-3.58815e-06
6.65797e-06
-2.74316e-06
7.69569e-06
-1.90886e-06
8.35205e-06
-1.11283e-06
8.65211e-06
-3.72652e-07
8.62389e-06
2.97527e-07
8.30321e-06
8.94088e-07
7.72272e-06
1.41128e-06
6.92327e-06
1.85186e-06
5.94041e-06
2.20616e-06
4.82561e-06
2.47124e-06
3.62725e-06
2.61596e-06
2.42658e-06
2.61614e-06
1.30891e-06
2.38948e-06
4.31319e-07
1.85964e-06
8.34863e-07
-3.69512e-07
6.26561e-07
-1.29117e-06
1.93413e-06
-2.64069e-06
3.00471e-06
-4.29212e-06
3.8621e-06
-6.16353e-06
4.44431e-06
-8.17664e-06
4.85084e-06
-1.02909e-05
5.10746e-06
-1.24713e-05
5.29886e-06
-1.47067e-05
5.44495e-06
-1.69841e-05
5.58455e-06
-1.93004e-05
5.71397e-06
-2.16457e-05
5.84027e-06
-2.40122e-05
5.94822e-06
-2.63844e-05
6.03201e-06
-2.87462e-05
6.07519e-06
-3.10749e-05
6.06906e-06
-3.33469e-05
5.99992e-06
-3.55341e-05
5.85987e-06
-3.76079e-05
5.63854e-06
-3.95369e-05
5.32957e-06
-4.12895e-05
4.9252e-06
-4.28325e-05
4.42033e-06
-4.41322e-05
3.80927e-06
-4.51543e-05
3.08878e-06
-4.58644e-05
2.25646e-06
-4.62282e-05
1.3135e-06
-4.62135e-05
2.6434e-07
-4.57905e-05
-8.8099e-07
-4.49347e-05
-2.10674e-06
-4.36282e-05
-3.38982e-06
-4.18628e-05
-4.70015e-06
-3.96415e-05
-6.00037e-06
-3.69815e-05
-7.2473e-06
-3.39152e-05
-8.39345e-06
-3.04916e-05
-9.38992e-06
-2.67759e-05
-1.01895e-05
-2.28483e-05
-1.07509e-05
-1.88014e-05
-1.10419e-05
-1.47357e-05
-1.10436e-05
-1.07551e-05
-1.07527e-05
-6.95994e-06
-1.01825e-05
-3.44219e-06
-9.3627e-06
-2.78886e-07
-8.33626e-06
2.47032e-06
-7.15665e-06
4.76736e-06
-5.88066e-06
6.5932e-06
-4.56594e-06
7.94946e-06
-3.26238e-06
8.85098e-06
-2.01333e-06
9.32718e-06
-8.47741e-07
9.41145e-06
2.12347e-07
9.14614e-06
1.15928e-06
8.57e-06
1.98477e-06
7.73095e-06
2.69014e-06
6.67048e-06
3.26242e-06
5.44816e-06
3.69292e-06
4.11846e-06
3.94001e-06
2.7734e-06
3.96177e-06
1.50707e-06
3.6486e-06
5.01316e-07
2.86819e-06
1.3314e-06
-5.16568e-07
1.14085e-06
-1.75327e-06
3.17851e-06
-3.5147e-06
4.76206e-06
-5.61917e-06
5.97277e-06
-7.96622e-06
6.78995e-06
-1.04609e-05
7.35067e-06
-1.30602e-05
7.70717e-06
-1.57236e-05
7.96677e-06
-1.84382e-05
8.16106e-06
-2.11863e-05
8.33679e-06
-2.39611e-05
8.491e-06
-2.67471e-05
8.6303e-06
-2.95318e-05
8.73577e-06
-3.22944e-05
8.79856e-06
-3.50145e-05
8.79837e-06
-3.76656e-05
8.72402e-06
-4.0222e-05
8.55963e-06
-4.26549e-05
8.29647e-06
-4.49368e-05
7.9237e-06
-4.7039e-05
7.4352e-06
-4.89341e-05
6.82322e-06
-5.05935e-05
6.08261e-06
-5.19889e-05
5.20695e-06
-5.309e-05
4.19186e-06
-5.38655e-05
3.03343e-06
-5.42826e-05
1.73146e-06
-5.43075e-05
2.89479e-07
-5.39068e-05
-1.28215e-06
-5.30491e-05
-2.9656e-06
-5.17075e-05
-4.73336e-06
-4.98623e-05
-6.54802e-06
-4.75045e-05
-8.36166e-06
-4.46388e-05
-1.01172e-05
-4.12872e-05
-1.17499e-05
-3.74914e-05
-1.31911e-05
-3.33144e-05
-1.43724e-05
-2.88402e-05
-1.52311e-05
-2.41723e-05
-1.5716e-05
-1.94289e-05
-1.57932e-05
-1.47368e-05
-1.54509e-05
-1.0223e-05
-1.47019e-05
-6.00717e-06
-1.3584e-05
-2.19153e-06
-1.21565e-05
1.14351e-06
-1.0496e-05
3.94575e-06
-8.68606e-06
6.1891e-06
-6.81224e-06
7.87503e-06
-4.94987e-06
9.02351e-06
-3.16347e-06
9.67293e-06
-1.49711e-06
9.86706e-06
1.75953e-08
9.65924e-06
1.36867e-06
9.0976e-06
2.54641e-06
8.23882e-06
3.55193e-06
7.13048e-06
4.37081e-06
5.83866e-06
4.98917e-06
4.42213e-06
5.35576e-06
2.98098e-06
5.40891e-06
1.61787e-06
5.00884e-06
5.34217e-07
3.95951e-06
1.86441e-06
-6.62179e-07
1.79796e-06
-2.20865e-06
4.73198e-06
-4.37106e-06
6.91633e-06
-6.91155e-06
8.51717e-06
-9.70943e-06
9.58189e-06
-1.26533e-05
1.0296e-05
-1.56984e-05
1.07476e-05
-1.87988e-05
1.1067e-05
-2.19408e-05
1.1299e-05
-2.51016e-05
1.14965e-05
-2.82712e-05
1.1657e-05
-3.14284e-05
1.17858e-05
-3.45566e-05
1.18607e-05
-3.76306e-05
1.18703e-05
-4.06276e-05
1.17921e-05
-4.35203e-05
1.16143e-05
-4.62851e-05
1.13213e-05
-4.88974e-05
1.09063e-05
-5.13372e-05
1.03607e-05
-5.35851e-05
9.68069e-06
-5.56245e-05
8.86015e-06
-5.7438e-05
7.89415e-06
-5.90077e-05
6.77469e-06
-6.03114e-05
5.49416e-06
-6.13229e-05
4.04384e-06
-6.20099e-05
2.41784e-06
-6.23343e-05
6.13706e-07
-6.22526e-05
-1.36349e-06
-6.17177e-05
-3.49963e-06
-6.06813e-05
-5.7682e-06
-5.90983e-05
-8.12906e-06
-5.69307e-05
-1.05267e-05
-5.41539e-05
-1.28909e-05
-5.07625e-05
-1.51377e-05
-4.67761e-05
-1.71736e-05
-4.22437e-05
-1.89005e-05
-3.7247e-05
-2.02233e-05
-3.18996e-05
-2.10589e-05
-2.63431e-05
-2.13451e-05
-2.07398e-05
-2.10498e-05
-1.52612e-05
-2.01761e-05
-1.00753e-05
-1.8766e-05
-5.33145e-06
-1.68966e-05
-1.1506e-06
-1.46739e-05
2.3856e-06
-1.22194e-05
5.2346e-06
-9.65945e-06
7.39464e-06
-7.10797e-06
8.89326e-06
-4.66157e-06
9.78426e-06
-2.38702e-06
1.01304e-05
-3.29327e-07
1.0005e-05
1.49465e-06
9.47358e-06
3.07576e-06
8.60784e-06
4.41808e-06
7.46581e-06
5.50948e-06
6.122e-06
6.33392e-06
4.64046e-06
6.83246e-06
3.12798e-06
6.9238e-06
1.69498e-06
6.43498e-06
5.56476e-07
5.10263e-06
2.4164e-06
-7.96539e-07
2.59038e-06
-2.63384e-06
6.57979e-06
-5.17329e-06
9.44861e-06
-8.12276e-06
1.14742e-05
-1.13406e-05
1.27961e-05
-1.46988e-05
1.36597e-05
-1.81501e-05
1.41975e-05
-2.16434e-05
1.45645e-05
-2.51641e-05
1.48198e-05
-2.86849e-05
1.50208e-05
-3.21929e-05
1.51658e-05
-3.56621e-05
1.52581e-05
-3.90733e-05
1.52733e-05
-4.23989e-05
1.51988e-05
-4.56174e-05
1.50124e-05
-4.8705e-05
1.47046e-05
-5.16461e-05
1.42644e-05
-5.44279e-05
1.36905e-05
-5.70457e-05
1.29804e-05
-5.94981e-05
1.21353e-05
-6.17877e-05
1.11516e-05
-6.39159e-05
1.00241e-05
-6.58807e-05
8.7408e-06
-6.76718e-05
7.28645e-06
-6.92687e-05
5.64147e-06
-7.0637e-05
3.78665e-06
-7.17281e-05
1.7048e-06
-7.2478e-05
-6.1398e-07
-7.28093e-05
-3.16922e-06
-7.2634e-05
-5.94488e-06
-7.18587e-05
-8.90615e-06
-7.03922e-05
-1.19955e-05
-6.81545e-05
-1.51313e-05
-6.50872e-05
-1.82081e-05
-6.11649e-05
-2.10993e-05
-5.64048e-05
-2.36644e-05
-5.08737e-05
-2.57582e-05
-4.46924e-05
-2.72442e-05
-3.80322e-05
-2.80093e-05
-3.11075e-05
-2.79783e-05
-2.41603e-05
-2.71268e-05
-1.7441e-05
-2.54888e-05
-1.11843e-05
-2.31562e-05
-5.58915e-06
-2.02718e-05
-7.99284e-07
-1.70111e-05
3.10296e-06
-1.35637e-05
6.10032e-06
-1.01061e-05
8.2265e-06
-6.78908e-06
9.55808e-06
-3.71833e-06
1.01897e-05
-9.61802e-07
1.02298e-05
1.45595e-06
9.77625e-06
3.52858e-06
8.92835e-06
5.26848e-06
7.76447e-06
6.67232e-06
6.37437e-06
7.72787e-06
4.83196e-06
8.37274e-06
3.25324e-06
8.50809e-06
1.75754e-06
7.92635e-06
5.72601e-07
6.2952e-06
2.9868e-06
-9.23875e-07
3.50786e-06
-3.03283e-06
8.699e-06
-5.92174e-06
1.23272e-05
-9.24803e-06
1.48068e-05
-1.285e-05
1.63912e-05
-1.65841e-05
1.73971e-05
-2.04008e-05
1.80093e-05
-2.42437e-05
1.84088e-05
-2.80978e-05
1.86701e-05
-3.19313e-05
1.88544e-05
-3.57293e-05
1.89608e-05
-3.94624e-05
1.89906e-05
-4.3111e-05
1.89193e-05
-4.66486e-05
1.87353e-05
-5.00597e-05
1.8421e-05
-5.33311e-05
1.79745e-05
-5.64636e-05
1.73948e-05
-5.94664e-05
1.66918e-05
-6.23615e-05
1.58735e-05
-6.51767e-05
1.49491e-05
-6.7945e-05
1.39182e-05
-7.06949e-05
1.27729e-05
-7.34475e-05
1.14922e-05
-7.62076e-05
1.00457e-05
-7.89598e-05
8.39297e-06
-8.16629e-05
6.48941e-06
-8.42473e-05
4.28905e-06
-8.66128e-05
1.75173e-06
-8.86302e-05
-1.15138e-06
-9.01447e-05
-4.42952e-06
-9.09843e-05
-8.06543e-06
-9.09705e-05
-1.20077e-05
-8.99338e-05
-1.61663e-05
-8.77302e-05
-2.04097e-05
-8.42592e-05
-2.45681e-05
-7.9481e-05
-2.84402e-05
-7.34298e-05
-3.18069e-05
-6.62228e-05
-3.44487e-05
-5.80617e-05
-3.61679e-05
-4.92259e-05
-3.68118e-05
-4.0055e-05
-3.62954e-05
-3.09232e-05
-3.46187e-05
-2.22033e-05
-3.1874e-05
-1.42317e-05
-2.82419e-05
-7.2717e-06
-2.39694e-05
-1.49348e-06
-1.93411e-05
3.03811e-06
-1.46364e-05
6.34934e-06
-1.01002e-05
8.54285e-06
-5.91079e-06
9.76094e-06
-2.18068e-06
1.01695e-05
1.04836e-06
9.92281e-06
3.77344e-06
9.16971e-06
6.02272e-06
8.02691e-06
7.81216e-06
6.61268e-06
9.14402e-06
5.02e-06
9.96095e-06
3.37956e-06
1.01521e-05
1.82266e-06
9.47651e-06
5.9103e-07
7.53266e-06
3.57355e-06
-1.03925e-06
4.54137e-06
-3.39561e-06
1.10684e-05
-6.60213e-06
1.55239e-05
-1.027e-05
1.84837e-05
-1.42189e-05
2.03347e-05
-1.82911e-05
2.14754e-05
-2.24344e-05
2.21497e-05
-2.65877e-05
2.25664e-05
-3.07354e-05
2.28166e-05
-3.48421e-05
2.29644e-05
-3.88923e-05
2.30109e-05
-4.28553e-05
2.29562e-05
-4.67144e-05
2.2779e-05
-5.04497e-05
2.24729e-05
-5.40591e-05
2.20314e-05
-5.75498e-05
2.14673e-05
-6.09518e-05
2.07979e-05
-6.43099e-05
2.00517e-05
-6.76879e-05
1.92527e-05
-7.11573e-05
1.84201e-05
-7.47938e-05
1.75557e-05
-7.86635e-05
1.66438e-05
-8.28163e-05
1.56458e-05
-8.72736e-05
1.45036e-05
-9.2021e-05
1.31407e-05
-9.69995e-05
1.14682e-05
-0.000102101
9.39015e-06
-0.000107163
6.81365e-06
-0.000111973
3.65836e-06
-0.000116274
-1.29682e-07
-0.000119775
-4.56516e-06
-0.000122174
-9.61023e-06
-0.000123176
-1.51656e-05
-0.000122521
-2.10661e-05
-0.000120008
-2.7083e-05
-0.000115516
-3.29338e-05
-0.000109026
-3.82986e-05
-0.000100634
-4.28424e-05
-9.05592e-05
-4.62448e-05
-7.91418e-05
-4.82314e-05
-6.683e-05
-4.86093e-05
-5.41528e-05
-4.72982e-05
-4.1675e-05
-4.43538e-05
-2.99444e-05
-3.99745e-05
-1.94301e-05
-3.4485e-05
-1.04746e-05
-2.82982e-05
-3.25889e-06
-2.18526e-05
2.19362e-06
-1.5554e-05
5.9986e-06
-9.71537e-06
8.35792e-06
-4.54101e-06
9.52306e-06
-1.15497e-07
9.74e-06
3.55536e-06
9.24173e-06
6.52329e-06
8.21324e-06
8.83892e-06
6.82475e-06
1.05361e-05
5.20493e-06
1.15778e-05
3.51072e-06
1.18517e-05
1.89238e-06
1.10895e-05
6.11194e-07
8.82159e-06
4.18182e-06
-1.1456e-06
5.67942e-06
-3.7269e-06
1.36627e-05
-7.22034e-06
1.90051e-05
-1.11955e-05
2.24671e-05
-1.54555e-05
2.45868e-05
-1.98298e-05
2.58543e-05
-2.42641e-05
2.65787e-05
-2.86934e-05
2.69981e-05
-3.31016e-05
2.72211e-05
-3.74513e-05
2.73151e-05
-4.17276e-05
2.72843e-05
-4.59021e-05
2.71308e-05
-4.99661e-05
2.68406e-05
-5.39138e-05
2.64202e-05
-5.77676e-05
2.58832e-05
-6.15691e-05
2.5268e-05
-6.53941e-05
2.46211e-05
-6.93416e-05
2.39983e-05
-7.35355e-05
2.34451e-05
-7.81076e-05
2.29912e-05
-8.3189e-05
2.26359e-05
-8.88916e-05
2.23456e-05
-9.52962e-05
2.20495e-05
-0.000102436
2.16424e-05
-0.000110283
2.09874e-05
-0.000118738
1.99232e-05
-0.000127621
1.82734e-05
-0.000136669
1.58616e-05
-0.000145539
1.25299e-05
-0.000153829
8.16112e-06
-0.000161094
2.70101e-06
-0.000166879
-3.82279e-06
-0.000170753
-1.12898e-05
-0.000172332
-1.94839e-05
-0.000171313
-2.80993e-05
-0.00016749
-3.67543e-05
-0.000160775
-4.50103e-05
-0.000151218
-5.23965e-05
-0.000139018
-5.84412e-05
-0.000124539
-6.27084e-05
-0.000108302
-6.48433e-05
-9.09795e-05
-6.46192e-05
-7.33468e-05
-6.19848e-05
-5.62245e-05
-5.70961e-05
-4.03865e-05
-5.0322e-05
-2.64721e-05
-4.22125e-05
-1.49026e-05
-3.34212e-05
-5.8497e-06
-2.46073e-05
7.59575e-07
-1.63237e-05
5.17581e-06
-8.9582e-06
7.76034e-06
-2.6989e-06
8.89461e-06
2.41935e-06
8.94546e-06
6.47403e-06
8.21186e-06
9.5697e-06
6.95313e-06
1.17974e-05
5.36111e-06
1.31654e-05
3.63811e-06
1.35791e-05
1.96592e-06
1.27548e-05
6.34412e-07
1.01599e-05
4.81197e-06
-1.2404e-06
6.91279e-06
-4.02307e-06
1.64607e-05
-7.773e-06
2.2743e-05
-1.20226e-05
2.67271e-05
-1.65602e-05
2.91175e-05
-2.12044e-05
3.05053e-05
-2.58991e-05
3.12697e-05
-3.05762e-05
3.16798e-05
-3.52201e-05
3.18631e-05
-3.97927e-05
3.1891e-05
-4.42829e-05
3.17738e-05
-4.86689e-05
3.15194e-05
-5.29579e-05
3.11296e-05
-5.71691e-05
3.06336e-05
-6.13647e-05
3.00792e-05
-6.56395e-05
2.95447e-05
-7.01368e-05
2.91192e-05
-7.50318e-05
2.88947e-05
-8.05276e-05
2.89417e-05
-8.68311e-05
2.9296e-05
-9.41376e-05
2.99431e-05
-0.000102605
3.08138e-05
-0.000112335
3.17804e-05
-0.000123352
3.26597e-05
-0.000135581
3.32169e-05
-0.000148835
3.31773e-05
-0.000162805
3.22431e-05
-0.000177064
3.01214e-05
-0.00019109
2.65571e-05
-0.000204299
2.137e-05
-0.000216082
1.44848e-05
-0.000225853
5.94932e-06
-0.00023308
-4.06163e-06
-0.000237308
-1.52545e-05
-0.000238174
-2.72327e-05
-0.000235413
-3.95144e-05
-0.00022887
-5.15514e-05
-0.000218518
-6.27473e-05
-0.000204475
-7.24828e-05
-0.000187037
-8.01458e-05
-0.0001667
-8.51787e-05
-0.000144182
-8.71365e-05
-0.000120407
-8.57596e-05
-9.64586e-05
-8.10448e-05
-7.34822e-05
-7.32985e-05
-5.25513e-05
-6.31445e-05
-3.45119e-05
-5.14609e-05
-1.987e-05
-3.92504e-05
-8.73765e-06
-2.74557e-05
-8.88003e-07
-1.68091e-05
4.14511e-06
-7.73078e-06
6.9201e-06
-3.57098e-07
8.00025e-06
5.39608e-06
7.863e-06
9.70476e-06
6.91252e-06
1.27514e-05
5.44645e-06
1.46279e-05
3.74306e-06
1.5288e-05
2.03604e-06
1.44557e-05
6.5832e-07
1.15457e-05
5.46678e-06
-1.32612e-06
8.23036e-06
-4.28912e-06
1.94389e-05
-8.26801e-06
2.67079e-05
-1.27624e-05
3.12312e-05
-1.75481e-05
3.38944e-05
-2.24345e-05
3.53973e-05
-2.73646e-05
3.6194e-05
-3.22681e-05
3.65863e-05
-3.71312e-05
3.67223e-05
-4.19178e-05
3.6679e-05
-4.66241e-05
3.64773e-05
-5.12423e-05
3.61381e-05
-5.58051e-05
3.56902e-05
-6.03729e-05
3.52012e-05
-6.50672e-05
3.47716e-05
-7.00604e-05
3.45374e-05
-7.55873e-05
3.46445e-05
-8.19213e-05
3.5228e-05
-8.93607e-05
3.63797e-05
-9.81946e-05
3.81292e-05
-0.000108678
4.04256e-05
-0.000120998
4.31329e-05
-0.000135244
4.60259e-05
-0.000151378
4.87934e-05
-0.000169208
5.10469e-05
-0.000188373
5.2343e-05
-0.000208349
5.22202e-05
-0.000228479
5.0252e-05
-0.000248024
4.61038e-05
-0.000266233
3.95811e-05
-0.000282401
3.06546e-05
-0.000295909
1.9459e-05
-0.000306241
6.27272e-06
-0.000312982
-8.51126e-06
-0.000315801
-2.44121e-05
-0.000314433
-4.08795e-05
-0.000308678
-5.73045e-05
-0.0002984
-7.30226e-05
-0.000283561
-8.7319e-05
-0.000264262
-9.94409e-05
-0.000240809
-0.000108629
-0.000213769
-0.000114173
-0.000184025
-0.0001155
-0.000152781
-0.000112287
-0.000121497
-0.00010458
-9.17522e-05
-9.28884e-05
-6.50156e-05
-7.81963e-05
-4.24079e-05
-6.18586e-05
-2.45064e-05
-4.53564e-05
-1.13096e-05
-3.0007e-05
-2.33485e-06
-1.67044e-05
3.16209e-06
-5.85586e-06
6.00577e-06
2.55422e-06
6.93515e-06
8.77257e-06
6.57741e-06
1.31121e-05
5.39858e-06
1.58023e-05
3.7986e-06
1.68929e-05
2.09411e-06
1.61531e-05
6.81966e-07
1.29654e-05
6.1444e-06
-1.40126e-06
9.62361e-06
-4.52379e-06
2.25786e-05
-8.7058e-06
3.08762e-05
-1.34181e-05
3.59551e-05
-1.84259e-05
3.88942e-05
-2.35311e-05
4.051e-05
-2.86768e-05
4.13352e-05
-3.3792e-05
4.17065e-05
-3.88663e-05
4.17942e-05
-4.38689e-05
4.16851e-05
-4.88091e-05
4.14165e-05
-5.37022e-05
4.10338e-05
-5.86216e-05
4.06093e-05
-6.36883e-05
4.02701e-05
-6.91084e-05
4.0192e-05
-7.51579e-05
4.05887e-05
-8.2187e-05
4.16742e-05
-9.05827e-05
4.36253e-05
-0.000100743
4.65406e-05
-0.000113028
5.04152e-05
-0.000127724
5.51223e-05
-0.000144996
6.04058e-05
-0.000164846
6.58766e-05
-0.000187071
7.10194e-05
-0.00021124
7.52168e-05
-0.000236698
7.7802e-05
-0.000262615
7.81378e-05
-0.00028807
7.57085e-05
-0.000312161
7.01947e-05
-0.000334088
6.15076e-05
-0.000353211
4.97766e-05
-0.000369058
3.53048e-05
-0.000381301
1.85131e-05
-0.000389707
-1.08259e-07
-0.00039409
-2.00321e-05
-0.000394267
-4.0706e-05
-0.000390027
-6.15472e-05
-0.00038113
-8.19231e-05
-0.000367323
-0.000101129
-0.000348399
-0.000118366
-0.000324282
-0.000132746
-0.000295138
-0.000143316
-0.000261499
-0.000149137
-0.000224365
-0.000149418
-0.000185246
-0.000143697
-0.00014609
-0.000132043
-0.00010906
-0.000115225
-7.61812e-05
-9.47375e-05
-4.89254e-05
-7.26114e-05
-2.79335e-05
-5.10002e-05
-1.29798e-05
-3.1657e-05
-3.22795e-06
-1.56094e-05
2.44433e-06
-3.11595e-06
5.13252e-06
6.08192e-06
5.7907e-06
1.24573e-05
5.14155e-06
1.64475e-05
3.77298e-06
1.8267e-05
2.12996e-06
1.77894e-05
7.03585e-07
1.44001e-05
6.84409e-06
-1.46796e-06
1.10822e-05
-4.73147e-06
2.58589e-05
-9.09352e-06
3.52228e-05
-1.40002e-05
4.08726e-05
-1.92079e-05
4.40923e-05
-2.45131e-05
4.58215e-05
-2.98599e-05
4.66757e-05
-3.51783e-05
4.70285e-05
-4.04641e-05
4.70758e-05
-4.56959e-05
4.69187e-05
-5.09042e-05
4.66217e-05
-5.61397e-05
4.62699e-05
-6.15349e-05
4.60021e-05
-6.72962e-05
4.60314e-05
-7.3741e-05
4.66347e-05
-8.12736e-05
4.81209e-05
-9.0375e-05
5.07739e-05
-0.000101547
5.47963e-05
-0.000115268
6.026e-05
-0.000131928
6.70747e-05
-0.000151776
7.49698e-05
-0.000174853
8.34825e-05
-0.000200936
9.19587e-05
-0.000229494
9.95782e-05
-0.000259702
0.000105425
-0.000290502
0.000108602
-0.000320743
0.000108379
-0.00034934
0.000104304
-0.000375403
9.62564e-05
-0.000398311
8.44133e-05
-0.00041771
6.91733e-05
-0.000433468
5.10592e-05
-0.000445595
3.06357e-05
-0.000454162
8.45331e-06
-0.000459221
-1.4978e-05
-0.000460746
-3.91867e-05
-0.000458583
-6.37164e-05
-0.000452428
-8.80838e-05
-0.000441835
-0.000111728
-0.000426253
-0.000133954
-0.000405115
-0.000153889
-0.00037797
-0.000170464
-0.000344667
-0.000182442
-0.000305559
-0.000188526
-0.0002617
-0.000187553
-0.000214948
-0.000178794
-0.000167884
-0.000162285
-0.000123489
-0.000139131
-8.45473e-05
-0.000111551
-5.29928e-05
-8.25555e-05
-2.94606e-05
-5.5188e-05
-1.33686e-05
-3.17033e-05
-3.37159e-06
-1.31112e-05
2.06372e-06
6.43842e-07
4.34734e-06
1.01768e-05
4.57898e-06
1.62115e-05
3.6283e-06
1.92228e-05
2.13361e-06
1.92769e-05
7.23054e-07
1.58186e-05
7.56279e-06
-1.52465e-06
1.25981e-05
-4.91059e-06
2.92635e-05
-9.43075e-06
3.97281e-05
-1.45101e-05
4.59645e-05
-1.98983e-05
4.94719e-05
-2.53877e-05
5.13191e-05
-3.0925e-05
5.22081e-05
-3.64433e-05
5.25522e-05
-4.19474e-05
5.25773e-05
-4.74319e-05
5.24069e-05
-5.2958e-05
5.21466e-05
-5.86285e-05
5.19433e-05
-6.46573e-05
5.20307e-05
-7.13625e-05
5.27389e-05
-7.91978e-05
5.44704e-05
-8.87113e-05
5.76364e-05
-0.000100513
6.2576e-05
-0.000115193
6.9478e-05
-0.000133257
7.83254e-05
-0.00015504
8.8859e-05
-0.000180625
0.000100556
-0.000209761
0.000112619
-0.000241802
0.000124
-0.000275709
0.000133486
-0.000310148
0.000139864
-0.000343683
0.000142136
-0.000375004
0.000139698
-0.000403117
0.000132414
-0.000427428
0.000120565
-0.000447739
0.00010472
-0.000464161
8.55908e-05
-0.00047701
6.39045e-05
-0.000486697
4.03185e-05
-0.000493625
1.53777e-05
-0.000498114
-1.04938e-05
-0.000500331
-3.69737e-05
-0.000500247
-6.38045e-05
-0.000497597
-9.07395e-05
-0.000491855
-0.000117475
-0.000482242
-0.000143573
-0.00046777
-0.000168368
-0.000447345
-0.000190897
-0.000419952
-0.000209841
-0.000384925
-0.00022356
-0.00034227
-0.000230211
-0.000293006
-0.000228059
-0.000239379
-0.000215911
-0.000184803
-0.000193706
-0.000133366
-0.000162985
-8.88899e-05
-0.000127031
-5.38373e-05
-9.02388e-05
-2.87164e-05
-5.68258e-05
-1.23506e-05
-2.94751e-05
-2.78642e-06
-8.92282e-06
1.98213e-06
5.41132e-06
3.59002e-06
1.45997e-05
3.31957e-06
1.94986e-05
2.09445e-06
2.04953e-05
7.40632e-07
1.71807e-05
8.29944e-06
-1.57309e-06
1.41611e-05
-5.06418e-06
3.27726e-05
-9.72205e-06
4.43694e-05
-1.49544e-05
5.12084e-05
-2.05059e-05
5.5013e-05
-2.61668e-05
5.69867e-05
-3.18873e-05
5.79219e-05
-3.76066e-05
5.82752e-05
-4.33427e-05
5.83087e-05
-4.91134e-05
5.81795e-05
-5.50235e-05
5.80534e-05
-6.12469e-05
5.81673e-05
-6.81028e-05
5.88839e-05
-7.60454e-05
6.06812e-05
-8.56802e-05
6.41029e-05
-9.7696e-05
6.96515e-05
-0.000112801
7.76792e-05
-0.000131613
8.82892e-05
-0.000154566
0.000101277
-0.000181794
0.000116085
-0.000213025
0.000131787
-0.000247497
0.000147091
-0.000283948
0.00016045
-0.000320734
0.000170271
-0.000356095
0.000175223
-0.000388465
0.000174504
-0.000416726
0.000167957
-0.000440317
0.000156003
-0.0004592
0.000139446
-0.000473741
0.00011926
-0.000484557
9.64063e-05
-0.000492371
7.17201e-05
-0.000497904
4.5854e-05
-0.000501793
1.92693e-05
-0.000504538
-7.74475e-06
-0.00050647
-3.50375e-05
-0.000507715
-6.2556e-05
-0.000508152
-9.02979e-05
-0.000507374
-0.000118251
-0.000504632
-0.000146314
-0.000498808
-0.000174192
-0.000488436
-0.000201272
-0.000471799
-0.000226483
-0.000447157
-0.000248208
-0.000413119
-0.000264255
-0.000369144
-0.00027204
-0.000316085
-0.000268973
-0.00025661
-0.000253182
-0.000195196
-0.000224396
-0.000137411
-0.000184815
-8.83942e-05
-0.000139253
-5.11392e-05
-9.40815e-05
-2.5719e-05
-5.48935e-05
-1.01242e-05
-2.45201e-05
-1.66982e-06
-3.04054e-06
2.00896e-06
1.09172e-05
2.78564e-06
1.87266e-05
1.99846e-06
2.12759e-05
7.57229e-07
1.84296e-05
9.05261e-06
-1.61084e-06
1.57629e-05
-5.18853e-06
3.63701e-05
-9.96333e-06
4.91286e-05
-1.53292e-05
5.65877e-05
-2.10275e-05
6.07023e-05
-2.68478e-05
6.28157e-05
-3.27459e-05
6.38149e-05
-3.86693e-05
6.42045e-05
-4.46545e-05
6.42912e-05
-5.07519e-05
6.42811e-05
-5.7125e-05
6.44253e-05
-6.40387e-05
6.50843e-05
-7.19407e-05
6.67857e-05
-8.1437e-05
7.01803e-05
-9.32834e-05
7.595e-05
-0.000108278
8.46487e-05
-0.000127162
9.6564e-05
-0.000150472
0.000111602
-0.000178419
0.000129225
-0.000210737
0.000148406
-0.00024658
0.00016763
-0.000284483
0.000184995
-0.000322508
0.000198475
-0.00035856
0.000206322
-0.000390801
0.000207463
-0.000417982
0.000201684
-0.000439578
0.000189552
-0.000455724
0.00017215
-0.000467041
0.000150765
-0.00047442
0.000126641
-0.000478835
0.000100825
-0.000481213
7.41015e-05
-0.000482355
4.70009e-05
-0.000482916
1.98356e-05
-0.000483404
-7.25097e-06
-0.000484192
-3.42436e-05
-0.000485518
-6.12234e-05
-0.000487465
-8.83447e-05
-0.000489903
-0.000115805
-0.000492409
-0.000143801
-0.000494154
-0.00017244
-0.000493809
-0.000201612
-0.000489495
-0.000230794
-0.000478851
-0.000258852
-0.000459291
-0.000283817
-0.000428491
-0.000302845
-0.00038512
-0.000312349
-0.000329704
-0.000308604
-0.000265357
-0.000288745
-0.000197903
-0.00025227
-0.000134808
-0.000202345
-8.27778e-05
-0.000146111
-4.50869e-05
-9.2582e-05
-2.09152e-05
-4.86934e-05
-7.11715e-06
-1.68366e-05
-3.98698e-07
4.19565e-06
1.93777e-06
1.63942e-05
1.82325e-06
2.13845e-05
7.72354e-07
1.94877e-05
9.82141e-06
-1.63935e-06
1.73915e-05
-5.28511e-06
4.00345e-05
-1.01558e-05
5.39818e-05
-1.56358e-05
6.20796e-05
-2.14646e-05
6.65201e-05
-2.74329e-05
6.87909e-05
-3.35035e-05
6.98782e-05
-3.9636e-05
7.03407e-05
-4.58912e-05
7.05413e-05
-5.23628e-05
7.07544e-05
-5.92881e-05
7.13468e-05
-6.70431e-05
7.28396e-05
-7.62186e-05
7.59581e-05
-8.75734e-05
8.15345e-05
-0.000101985
9.03585e-05
-0.000120295
0.000102958
-0.000143172
0.000119438
-0.000170923
0.000139351
-0.000203342
0.000161642
-0.000239555
0.000184618
-0.000277969
0.000206043
-0.000316403
0.000223427
-0.000352456
0.000234526
-0.000384018
0.000237883
-0.000409698
0.000233142
-0.000429003
0.000220989
-0.000442252
0.000202803
-0.00045033
0.00018023
-0.000454394
0.000154832
-0.000455626
0.000127876
-0.000455068
0.000100271
-0.000453551
7.25876e-05
-0.00045169
4.51424e-05
-0.000449928
1.80756e-05
-0.000448595
-8.58167e-06
-0.000447966
-3.48706e-05
-0.000448294
-6.08928e-05
-0.000449816
-8.68197e-05
-0.000452716
-0.000112902
-0.000457037
-0.000139476
-0.000462542
-0.000166928
-0.000468536
-0.000195612
-0.00047366
-0.000225663
-0.000475754
-0.000256751
-0.000471854
-0.000287712
-0.000458447
-0.000316251
-0.000432093
-0.000338704
-0.000390435
-0.000350267
-0.000333511
-0.000345675
-0.000264941
-0.000320844
-0.00019226
-0.000275025
-0.000125309
-0.000213062
-7.23924e-05
-0.000145495
-3.6449e-05
-8.46365e-05
-1.50654e-05
-3.82191e-05
-3.97169e-06
-6.90041e-06
6.41494e-07
1.17838e-05
1.53012e-06
2.0491e-05
7.82202e-07
2.02416e-05
1.06005e-05
-1.65483e-06
1.90372e-05
-5.34712e-06
4.37474e-05
-1.02905e-05
5.89093e-05
-1.58632e-05
6.76664e-05
-2.18045e-05
7.24523e-05
-2.79076e-05
7.49031e-05
-3.41437e-05
7.61093e-05
-4.04884e-05
7.66917e-05
-4.7033e-05
7.70834e-05
-5.39257e-05
7.76517e-05
-6.14925e-05
7.89128e-05
-7.02343e-05
8.15851e-05
-8.08888e-05
8.66129e-05
-9.43456e-05
9.49944e-05
-0.000111545
0.000107559
-0.000133276
0.000124692
-0.000159989
0.000146153
-0.000191588
0.000170953
-0.000227265
0.00019732
-0.000265395
0.000222749
-0.000303655
0.000244303
-0.000339399
0.000259171
-0.00037025
0.000265378
-0.000394645
0.000262278
-0.000412089
0.000250588
-0.000423072
0.000231973
-0.000428741
0.000208475
-0.000430525
0.000182016
-0.000429803
0.000154111
-0.000427698
0.000125772
-0.000425
9.75737e-05
-0.000422188
6.97749e-05
-0.000419504
4.24578e-05
-0.000417059
1.56298e-05
-0.000414926
-1.07165e-05
-0.00041321
-3.65882e-05
-0.000412101
-6.20039e-05
-0.000411891
-8.70315e-05
-0.000412967
-0.000111828
-0.000415755
-0.00013669
-0.000420611
-0.000162072
-0.000427638
-0.000188585
-0.000436427
-0.000216872
-0.000445749
-0.000247426
-0.000453292
-0.000280164
-0.000455544
-0.000313993
-0.000448041
-0.000346202
-0.000426096
-0.00037221
-0.000386172
-0.000385601
-0.000327736
-0.000379285
-0.000255128
-0.00034764
-0.000178108
-0.000290082
-0.000109352
-0.00021425
-5.8342e-05
-0.000135642
-2.64461e-05
-7.01141e-05
-9.17822e-06
-2.41692e-05
-1.29928e-06
3.90576e-06
1.05731e-06
1.81313e-05
7.76989e-07
2.0526e-05
1.13754e-05
-1.6588e-06
2.06849e-05
-5.37503e-06
4.74823e-05
-1.03659e-05
6.38821e-05
-1.60081e-05
7.33203e-05
-2.20417e-05
7.84745e-05
-2.82642e-05
8.11322e-05
-3.46568e-05
8.24943e-05
-4.12149e-05
8.32532e-05
-4.80669e-05
8.393e-05
-5.54256e-05
8.50117e-05
-6.37166e-05
8.71995e-05
-7.35702e-05
9.14387e-05
-8.58557e-05
9.88948e-05
-0.000101545
0.000110683
-0.000121556
0.000127567
-0.000146496
0.00014963
-0.00017645
0.000176104
-0.000210759
0.00020526
-0.000247899
0.000234458
-0.00028553
0.000260378
-0.000320856
0.000279627
-0.00035125
0.000289563
-0.000374922
0.000289049
-0.000391296
0.000278652
-0.000400965
0.000260257
-0.000405313
0.000236322
-0.000406036
0.000209198
-0.000404715
0.000180695
-0.000402556
0.000151951
-0.000400297
0.000123513
-0.000398256
9.55318e-05
-0.00039645
6.79682e-05
-0.000394738
4.0744e-05
-0.000392936
1.38264e-05
-0.000390909
-1.27439e-05