/*--------------------------------*- C++ -*----------------------------------*\
| =========                 |                                                 |
| \\      /  F ield         | OpenFOAM: The Open Source CFD Toolbox           |
|  \\    /   O peration     | Version:  2406                                  |
|   \\  /    A nd           | Website:  www.openfoam.com                      |
|    \\/     M anipulation  |                                                 |
\*---------------------------------------------------------------------------*/
FoamFile
{
    version     2.0;
    format      ascii;
    arch        "LSB;label=32;scalar=64";
    class       volVectorField;
    location    "37.8";
    object      Uold;
}
// * * * * * * * * * * * * * * * * * * * * * * * * * * * * * * * * * * * * * //

dimensions      [0 1 -1 0 0 0 0];

internalField   nonuniform List<vector> 
3600
(
(1.54104e-05 -2.36195e-05 0)
(0.000502678 -0.000254568 0)
(0.00148032 -0.000368919 0)
(0.0025457 -0.000382517 0)
(0.0035555 -0.000312486 0)
(0.00429883 -0.000219068 0)
(0.00479976 -0.000130894 0)
(0.00505672 -7.19571e-05 0)
(0.0051658 -4.16963e-05 0)
(0.00516458 -3.21124e-05 0)
(0.00509121 -2.70348e-05 0)
(0.00491959 -1.27994e-05 0)
(0.00460543 2.08031e-05 0)
(0.00407187 7.83546e-05 0)
(0.00323922 0.000161713 0)
(0.00201965 0.000271832 0)
(0.000330105 0.000410258 0)
(-0.00190939 0.000576157 0)
(-0.00476748 0.000762589 0)
(-0.00829843 0.000958911 0)
(-0.0125299 0.00115987 0)
(-0.0174484 0.0013696 0)
(-0.0229814 0.00159274 0)
(-0.0289861 0.00181905 0)
(-0.0352427 0.00201564 0)
(-0.0414593 0.00213349 0)
(-0.047289 0.00212263 0)
(-0.0523571 0.00194609 0)
(-0.0562927 0.00158739 0)
(-0.0587587 0.00105157 0)
(-0.0594775 0.000362925 0)
(-0.0582522 -0.000438428 0)
(-0.0549837 -0.00129974 0)
(-0.0496855 -0.0021586 0)
(-0.0424953 -0.00294628 0)
(-0.0336814 -0.00359198 0)
(-0.0236425 -0.00402891 0)
(-0.0128947 -0.00420206 0)
(-0.00204496 -0.00407751 0)
(0.00825477 -0.0036516 0)
(0.0173667 -0.00295781 0)
(0.0247413 -0.00206847 0)
(0.0299851 -0.00108812 0)
(0.0329221 -0.000138281 0)
(0.0336141 0.000666794 0)
(0.0323549 0.00124465 0)
(0.0296033 0.00156514 0)
(0.025907 0.0016513 0)
(0.0217908 0.00156579 0)
(0.0176965 0.0013808 0)
(0.0139167 0.00115869 0)
(0.0106264 0.000937785 0)
(0.00786548 0.000741099 0)
(0.00563262 0.00057496 0)
(0.00384072 0.000445343 0)
(0.00244609 0.000342033 0)
(0.0013406 0.000260779 0)
(0.000549813 0.000163724 0)
(4.27394e-05 5.31541e-05 0)
(-7.24932e-05 -7.6674e-05 0)
(0.00022388 -0.000487065 0)
(0.00145032 -0.00148974 0)
(0.00346372 -0.00195849 0)
(0.00555073 -0.00197089 0)
(0.00746993 -0.00162384 0)
(0.00885052 -0.00113302 0)
(0.00968729 -0.000636606 0)
(0.00994257 -0.000230479 0)
(0.00972634 7.53928e-05 0)
(0.00906059 0.000320445 0)
(0.00795399 0.000576423 0)
(0.0063062 0.000913437 0)
(0.00397371 0.00138385 0)
(0.000756048 0.00201596 0)
(-0.00355267 0.00281884 0)
(-0.00915778 0.00378664 0)
(-0.0162301 0.00489991 0)
(-0.0248887 0.00612751 0)
(-0.0351581 0.00742898 0)
(-0.0469263 0.00874797 0)
(-0.0599107 0.00999703 0)
(-0.0736641 0.0110532 0)
(-0.0876129 0.0117764 0)
(-0.101123 0.0120381 0)
(-0.113567 0.0117435 0)
(-0.124383 0.0108425 0)
(-0.133102 0.00933125 0)
(-0.139363 0.00724675 0)
(-0.142903 0.00465999 0)
(-0.143552 0.00166848 0)
(-0.141224 -0.00160919 0)
(-0.135909 -0.00503644 0)
(-0.127677 -0.00846005 0)
(-0.116683 -0.0117113 0)
(-0.103174 -0.014609 0)
(-0.0875 -0.0169655 0)
(-0.0701227 -0.0185991 0)
(-0.051614 -0.0193514 0)
(-0.0326474 -0.019111 0)
(-0.0139719 -0.0178377 0)
(0.00362828 -0.0155855 0)
(0.0193934 -0.0125131 0)
(0.0326494 -0.00887972 0)
(0.0428804 -0.00501919 0)
(0.0497753 -0.00129473 0)
(0.0532783 0.00195528 0)
(0.0535852 0.00447663 0)
(0.0511486 0.00613665 0)
(0.0465991 0.00694497 0)
(0.0406924 0.00702732 0)
(0.0341537 0.00658673 0)
(0.0276305 0.00583469 0)
(0.0215499 0.00495977 0)
(0.0162026 0.00408775 0)
(0.0116408 0.00330587 0)
(0.00790589 0.00262511 0)
(0.00486211 0.00204056 0)
(0.00256389 0.00143705 0)
(0.000900763 0.000798953 0)
(9.73367e-05 6.64967e-05 0)
(0.00034899 -0.0014319 0)
(0.00200636 -0.00352718 0)
(0.00457273 -0.00443925 0)
(0.007074 -0.00433573 0)
(0.00922218 -0.00348902 0)
(0.010569 -0.00229693 0)
(0.0110957 -0.00105759 0)
(0.0107265 5.36985e-05 0)
(0.00953008 0.00101628 0)
(0.00745472 0.00192739 0)
(0.00441343 0.00294319 0)
(0.000189998 0.00421954 0)
(-0.00547609 0.00586651 0)
(-0.0128876 0.00793715 0)
(-0.0223158 0.0104285 0)
(-0.0339683 0.0132893 0)
(-0.0479086 0.0164187 0)
(-0.0639879 0.0196531 0)
(-0.0817924 0.0227492 0)
(-0.100673 0.0254035 0)
(-0.119835 0.0273128 0)
(-0.138469 0.0282416 0)
(-0.155849 0.0280564 0)
(-0.171394 0.0267237 0)
(-0.184676 0.0242871 0)
(-0.195406 0.0208403 0)
(-0.203399 0.0165057 0)
(-0.208546 0.0114219 0)
(-0.210789 0.00573707 0)
(-0.210102 -0.00039172 0)
(-0.206478 -0.0067955 0)
(-0.199935 -0.0132884 0)
(-0.190516 -0.019662 0)
(-0.178308 -0.0256805 0)
(-0.163452 -0.0310803 0)
(-0.146172 -0.035576 0)
(-0.126791 -0.0388755 0)
(-0.105749 -0.0407063 0)
(-0.0836084 -0.0408512 0)
(-0.0610473 -0.0391906 0)
(-0.0388296 -0.0357426 0)
(-0.0177553 -0.0306886 0)
(0.00139953 -0.0243761 0)
(0.0179563 -0.0172897 0)
(0.031383 -0.00999414 0)
(0.0413459 -0.00306356 0)
(0.0477126 0.00299384 0)
(0.0505868 0.00779225 0)
(0.0502792 0.0111182 0)
(0.047336 0.0129453 0)
(0.0424356 0.0134361 0)
(0.0363678 0.0128854 0)
(0.0298255 0.0116595 0)
(0.0234299 0.0100974 0)
(0.0175163 0.00847552 0)
(0.0123665 0.00693219 0)
(0.00795827 0.00551256 0)
(0.00446767 0.00407336 0)
(0.00176287 0.00252969 0)
(0.000282399 0.000724707 0)
(0.000427029 -0.00256716 0)
(0.00231164 -0.00582595 0)
(0.00504983 -0.00706293 0)
(0.0074709 -0.00661908 0)
(0.00926554 -0.00503089 0)
(0.00996354 -0.00288728 0)
(0.00954794 -0.000637854 0)
(0.0078986 0.00149877 0)
(0.0050001 0.00352662 0)
(0.000672397 0.00563148 0)
(-0.00531904 0.00806649 0)
(-0.0133274 0.0110633 0)
(-0.0237026 0.0147544 0)
(-0.0367517 0.019157 0)
(-0.0526148 0.0241655 0)
(-0.07118 0.0295462 0)
(-0.091995 0.0349201 0)
(-0.114297 0.0397997 0)
(-0.137138 0.0436916 0)
(-0.159579 0.0462144 0)
(-0.180827 0.0471566 0)
(-0.200299 0.0464686 0)
(-0.217615 0.0442175 0)
(-0.232549 0.0405385 0)
(-0.244984 0.0355963 0)
(-0.254867 0.0295619 0)
(-0.262177 0.0226009 0)
(-0.266905 0.0148706 0)
(-0.269038 0.00652318 0)
(-0.268554 -0.00228716 0)
(-0.265417 -0.0113944 0)
(-0.259586 -0.020609 0)
(-0.251017 -0.0297064 0)
(-0.239679 -0.0384165 0)
(-0.225575 -0.0464189 0)
(-0.208768 -0.0533453 0)
(-0.189407 -0.0587954 0)
(-0.167765 -0.0623673 0)
(-0.14426 -0.0637057 0)
(-0.119475 -0.062562 0)
(-0.0941454 -0.0588581 0)
(-0.0691195 -0.052736 0)
(-0.0452883 -0.0445767 0)
(-0.0234886 -0.03497 0)
(-0.00441785 -0.0246408 0)
(0.0114355 -0.0143486 0)
(0.0237898 -0.0047921 0)
(0.0325696 0.00345416 0)
(0.0378491 0.00998192 0)
(0.0398923 0.014567 0)
(0.0391029 0.0171987 0)
(0.0360919 0.0180698 0)
(0.0315147 0.0175501 0)
(0.0261159 0.0160887 0)
(0.0204375 0.0141313 0)
(0.0150219 0.0119945 0)
(0.0100398 0.00983774 0)
(0.00586761 0.00756475 0)
(0.00243812 0.00499492 0)
(0.000432981 0.00181094 0)
(0.000470273 -0.00387568 0)
(0.00241132 -0.00828986 0)
(0.0050004 -0.00964255 0)
(0.00692632 -0.00854306 0)
(0.00786626 -0.00588341 0)
(0.0073646 -0.00245423 0)
(0.00540137 0.00116071 0)
(0.00180075 0.00475299 0)
(-0.00357347 0.00839929 0)
(-0.0110552 0.0124045 0)
(-0.0210228 0.0171075 0)
(-0.0338962 0.0227596 0)
(-0.0499551 0.0294099 0)
(-0.0692383 0.0368796 0)
(-0.0913972 0.0447428 0)
(-0.115685 0.052372 0)
(-0.141066 0.0590597 0)
(-0.166458 0.064198 0)
(-0.190934 0.0673965 0)
(-0.213822 0.0685001 0)
(-0.234702 0.0675366 0)
(-0.253342 0.0646495 0)
(-0.269641 0.0600395 0)
(-0.283573 0.0539251 0)
(-0.295151 0.0465177 0)
(-0.30441 0.0380102 0)
(-0.311384 0.0285735 0)
(-0.316104 0.0183597 0)
(-0.318582 0.0075091 0)
(-0.318809 -0.0038399 0)
(-0.316748 -0.0155377 0)
(-0.312331 -0.0274083 0)
(-0.30546 -0.0392333 0)
(-0.296013 -0.0507354 0)
(-0.283856 -0.0615658 0)
(-0.268871 -0.0712987 0)
(-0.250988 -0.0794391 0)
(-0.230234 -0.0854503 0)
(-0.206784 -0.0888052 0)
(-0.181021 -0.0890616 0)
(-0.153563 -0.085956 0)
(-0.125269 -0.0794943 0)
(-0.0971839 -0.0700132 0)
(-0.0704178 -0.0581787 0)
(-0.0459947 -0.0449058 0)
(-0.0246929 -0.0312072 0)
(-0.00697071 -0.0180319 0)
(0.0070306 -0.00615074 0)
(0.0173645 0.00388156 0)
(0.0242291 0.0117102 0)
(0.0278801 0.0171799 0)
(0.0287305 0.0203394 0)
(0.0272582 0.021454 0)
(0.0241262 0.0209576 0)
(0.0199027 0.0193638 0)
(0.0152665 0.0171304 0)
(0.0105513 0.0145333 0)
(0.00633521 0.0115668 0)
(0.00268356 0.00794986 0)
(0.000485161 0.00318632 0)
(0.000496062 -0.00520219 0)
(0.00232553 -0.0105507 0)
(0.00441156 -0.0116546 0)
(0.00540221 -0.00949377 0)
(0.00497862 -0.0053898 0)
(0.00273725 -0.000320953 0)
(-0.00137159 0.00504791 0)
(-0.00760409 0.0105915 0)
(-0.0162493 0.0165043 0)
(-0.0277739 0.0232 0)
(-0.0426021 0.0310164 0)
(-0.0610077 0.0400628 0)
(-0.0828883 0.0500805 0)
(-0.107684 0.0604599 0)
(-0.134398 0.0703404 0)
(-0.161824 0.0788422 0)
(-0.188825 0.0852804 0)
(-0.214523 0.0892747 0)
(-0.238337 0.0907218 0)
(-0.259939 0.0897173 0)
(-0.279175 0.0864699 0)
(-0.296007 0.0812405 0)
(-0.310468 0.0743003 0)
(-0.322638 0.0659075 0)
(-0.332625 0.0562936 0)
(-0.340548 0.0456581 0)
(-0.346528 0.0341673 0)
(-0.350674 0.0219588 0)
(-0.35307 0.00914768 0)
(-0.353765 -0.00416178 0)
(-0.352762 -0.0178626 0)
(-0.350011 -0.0318269 0)
(-0.345396 -0.0458862 0)
(-0.338737 -0.0598081 0)
(-0.329791 -0.0732744 0)
(-0.318263 -0.0858624 0)
(-0.303835 -0.097037 0)
(-0.286218 -0.106162 0)
(-0.265221 -0.112539 0)
(-0.240842 -0.115483 0)
(-0.213363 -0.114433 0)
(-0.183429 -0.10909 0)
(-0.152071 -0.0995478 0)
(-0.120637 -0.086378 0)
(-0.0906223 -0.0706052 0)
(-0.0633927 -0.0535506 0)
(-0.0399309 -0.0365731 0)
(-0.0206788 -0.0208106 0)
(-0.00561902 -0.00704692 0)
(0.00555309 0.00426297 0)
(0.0131876 0.0129073 0)
(0.0176869 0.0188561 0)
(0.0194295 0.022267 0)
(0.0189556 0.0234877 0)
(0.0167606 0.022997 0)
(0.013533 0.0213044 0)
(0.00969606 0.0187484 0)
(0.0059636 0.0154018 0)
(0.00255196 0.0108919 0)
(0.00045854 0.004573 0)
(0.000487593 -0.00650251 0)
(0.00198842 -0.0124064 0)
(0.00318084 -0.0127864 0)
(0.00279713 -0.00910013 0)
(0.000532157 -0.00313718 0)
(-0.0039434 0.00398268 0)
(-0.010753 0.0115866 0)
(-0.0202458 0.0196949 0)
(-0.0328435 0.0286178 0)
(-0.0490192 0.0387793 0)
(-0.0690112 0.0503177 0)
(-0.0926396 0.0629444 0)
(-0.119173 0.0758847 0)
(-0.147447 0.0880891 0)
(-0.176134 0.0985172 0)
(-0.20406 0.106412 0)
(-0.230362 0.111384 0)
(-0.254494 0.113363 0)
(-0.276157 0.112489 0)
(-0.295228 0.109027 0)
(-0.311709 0.103299 0)
(-0.325687 0.095643 0)
(-0.337318 0.0863829 0)
(-0.346798 0.075814 0)
(-0.354348 0.0641876 0)
(-0.360189 0.051708 0)
(-0.364535 0.0385317 0)
(-0.367571 0.0247731 0)
(-0.369448 0.0105128 0)
(-0.370273 -0.00419021 0)
(-0.3701 -0.0192846 0)
(-0.368919 -0.0347087 0)
(-0.366645 -0.0503696 0)
(-0.363102 -0.0661179 0)
(-0.358015 -0.0817198 0)
(-0.351002 -0.0968259 0)
(-0.341576 -0.110946 0)
(-0.329177 -0.123432 0)
(-0.313229 -0.133492 0)
(-0.29324 -0.140232 0)
(-0.268938 -0.142759 0)
(-0.24043 -0.140336 0)
(-0.208344 -0.132578 0)
(-0.173905 -0.119645 0)
(-0.138874 -0.102372 0)
(-0.105286 -0.0822243 0)
(-0.0750417 -0.0610512 0)
(-0.0494471 -0.0406552 0)
(-0.0289796 -0.0223929 0)
(-0.0133771 -0.0070175 0)
(-0.002052 0.00520401 0)
(0.00564632 0.0142756 0)
(0.0102266 0.0203586 0)
(0.0122272 0.023756 0)
(0.0120983 0.0248851 0)
(0.0104839 0.0242379 0)
(0.00784061 0.0221505 0)
(0.00493504 0.0187301 0)
(0.00211115 0.0135308 0)
(0.000365381 0.00581226 0)
(0.000425447 -0.00759375 0)
(0.00132024 -0.0134513 0)
(0.00118209 -0.0125304 0)
(-0.00101249 -0.00683195 0)
(-0.00556446 0.00140904 0)
(-0.0127166 0.0110125 0)
(-0.0227101 0.0213766 0)
(-0.0359545 0.0326798 0)
(-0.0528978 0.0452505 0)
(-0.073785 0.059308 0)
(-0.0983957 0.0745296 0)
(-0.125912 0.0900566 0)
(-0.155056 0.104661 0)
(-0.184404 0.117155 0)
(-0.212722 0.126673 0)
(-0.239114 0.13279 0)
(-0.263016 0.135437 0)
(-0.28412 0.134793 0)
(-0.302314 0.131179 0)
(-0.317638 0.124995 0)
(-0.330252 0.116668 0)
(-0.340399 0.106611 0)
(-0.348379 0.0952008 0)
(-0.35451 0.0827561 0)
(-0.359109 0.0695302 0)
(-0.362468 0.0557112 0)
(-0.364848 0.0414269 0)
(-0.366468 0.0267549 0)
(-0.367506 0.0117323 0)
(-0.368097 -0.00363064 0)
(-0.368333 -0.0193394 0)
(-0.368251 -0.0353992 0)
(-0.367828 -0.0517993 0)
(-0.366959 -0.06849 0)
(-0.365438 -0.0853562 0)
(-0.362926 -0.102182 0)
(-0.358929 -0.118611 0)
(-0.352788 -0.134104 0)
(-0.343692 -0.147916 0)
(-0.33074 -0.159084 0)
(-0.313068 -0.166485 0)
(-0.29003 -0.168952 0)
(-0.261448 -0.165481 0)
(-0.227851 -0.155502 0)
(-0.190636 -0.139181 0)
(-0.152034 -0.117611 0)
(-0.114782 -0.0927949 0)
(-0.0814854 -0.0672532 0)
(-0.0539158 -0.0433654 0)
(-0.0325742 -0.0227429 0)
(-0.0169285 -0.00604412 0)
(-0.00597185 0.00673509 0)
(0.00120306 0.0158918 0)
(0.00537165 0.0218155 0)
(0.00708959 0.0249321 0)
(0.00700259 0.0257076 0)
(0.00559742 0.0244427 0)
(0.00363611 0.0212343 0)
(0.0015525 0.0155927 0)
(0.000252846 0.00675335 0)
(0.000280888 -0.00830536 0)
(0.000241818 -0.0133411 0)
(-0.00166206 -0.0105053 0)
(-0.00604648 -0.00233235 0)
(-0.0132452 0.00859441 0)
(-0.0234066 0.0211285 0)
(-0.0369038 0.0347823 0)
(-0.054098 0.04981 0)
(-0.0752744 0.0663512 0)
(-0.100202 0.0841594 0)
(-0.128074 0.102298 0)
(-0.157538 0.119426 0)
(-0.187101 0.134168 0)
(-0.215432 0.145526 0)
(-0.241571 0.152982 0)
(-0.264895 0.15645 0)
(-0.285074 0.156127 0)
(-0.302007 0.152404 0)
(-0.315787 0.145773 0)
(-0.326657 0.136769 0)
(-0.334963 0.125913 0)
(-0.341106 0.113675 0)
(-0.345494 0.100449 0)
(-0.348515 0.0865409 0)
(-0.350509 0.0721712 0)
(-0.351765 0.0574863 0)
(-0.352521 0.042569 0)
(-0.352965 0.0274541 0)
(-0.353251 0.01214 0)
(-0.353498 -0.00339928 0)
(-0.353801 -0.0192056 0)
(-0.354226 -0.035326 0)
(-0.354811 -0.0518048 0)
(-0.355543 -0.0686681 0)
(-0.356343 -0.0859067 0)
(-0.357024 -0.103447 0)
(-0.357251 -0.12111 0)
(-0.356493 -0.138563 0)
(-0.35398 -0.155256 0)
(-0.348696 -0.170369 0)
(-0.339428 -0.182787 0)
(-0.324897 -0.191131 0)
(-0.304007 -0.193896 0)
(-0.276176 -0.189706 0)
(-0.241717 -0.177695 0)
(-0.202136 -0.157942 0)
(-0.160171 -0.131806 0)
(-0.119381 -0.101937 0)
(-0.0832536 -0.0717289 0)
(-0.054091 -0.0442934 0)
(-0.0324021 -0.0215008 0)
(-0.0172237 -0.00382004 0)
(-0.00714421 0.00914703 0)
(-0.000874967 0.0180346 0)
(0.00248865 0.023445 0)
(0.00373924 0.0259006 0)
(0.00345441 0.0256991 0)
(0.0023849 0.0229167 0)
(0.00102336 0.0170628 0)
(0.000151312 0.00740412 0)
(3.06186e-05 -0.00836541 0)
(-0.00129036 -0.0116403 0)
(-0.00535313 -0.00628618 0)
(-0.0122192 0.00476606 0)
(-0.0223122 0.0187487 0)
(-0.0356597 0.034618 0)
(-0.0527263 0.0519685 0)
(-0.0736509 0.0709415 0)
(-0.0983664 0.0912439 0)
(-0.126046 0.112005 0)
(-0.155402 0.131756 0)
(-0.184833 0.148959 0)
(-0.212939 0.162406 0)
(-0.238632 0.171455 0)
(-0.261232 0.175949 0)
(-0.280363 0.176105 0)
(-0.295946 0.172376 0)
(-0.308127 0.165368 0)
(-0.317247 0.155741 0)
(-0.323754 0.144142 0)
(-0.328152 0.131143 0)
(-0.330926 0.117217 0)
(-0.332516 0.102718 0)
(-0.333288 0.0878956 0)
(-0.333533 0.0729063 0)
(-0.333469 0.0578351 0)
(-0.333262 0.042713 0)
(-0.333032 0.027535 0)
(-0.332876 0.0122704 0)
(-0.332871 -0.00312647 0)
(-0.333093 -0.0187121 0)
(-0.333611 -0.0345482 0)
(-0.334491 -0.0507003 0)
(-0.33579 -0.0672309 0)
(-0.33754 -0.0841937 0)
(-0.339717 -0.101617 0)
(-0.342202 -0.119477 0)
(-0.344724 -0.137656 0)
(-0.346786 -0.155877 0)
(-0.347589 -0.17362 0)
(-0.34599 -0.190034 0)
(-0.34051 -0.203868 0)
(-0.329463 -0.213478 0)
(-0.311241 -0.216952 0)
(-0.284754 -0.212429 0)
(-0.249979 -0.198606 0)
(-0.208453 -0.175376 0)
(-0.163432 -0.144377 0)
(-0.119429 -0.109077 0)
(-0.0809429 -0.0740045 0)
(-0.0508444 -0.0431461 0)
(-0.0294577 -0.018577 0)
(-0.0153067 -0.000374534 0)
(-0.00645682 0.0123259 0)
(-0.00137923 0.0205094 0)
(0.00109642 0.0249327 0)
(0.00177071 0.0260093 0)
(0.00143927 0.0238413 0)
(0.000651843 0.0179947 0)
(8.92303e-05 0.00780659 0)
(-0.0003384 -0.00751645 0)
(-0.00325852 -0.00801481 0)
(-0.00976818 0.000383761 0)
(-0.0192719 0.0146267 0)
(-0.0323415 0.0319595 0)
(-0.0488283 0.0514451 0)
(-0.0691991 0.072643 0)
(-0.0931927 0.095347 0)
(-0.120299 0.118668 0)
(-0.149158 0.141144 0)
(-0.178252 0.161029 0)
(-0.205996 0.176889 0)
(-0.23124 0.187866 0)
(-0.253166 0.193704 0)
(-0.271383 0.194597 0)
(-0.285794 0.191069 0)
(-0.296623 0.183837 0)
(-0.304284 0.173707 0)
(-0.309342 0.161462 0)
(-0.31238 0.147793 0)
(-0.313963 0.133248 0)
(-0.314561 0.118234 0)
(-0.314554 0.103018 0)
(-0.31421 0.0877614 0)
(-0.313721 0.0725414 0)
(-0.313206 0.0573814 0)
(-0.312742 0.0422687 0)
(-0.312377 0.0271715 0)
(-0.31215 0.0120464 0)
(-0.312096 -0.00315424 0)
(-0.312262 -0.0184824 0)
(-0.312701 -0.0339917 0)
(-0.313487 -0.0497411 0)
(-0.3147 -0.0657934 0)
(-0.31643 -0.0822179 0)
(-0.318757 -0.0990848 0)
(-0.321727 -0.116458 0)
(-0.325307 -0.134368 0)
(-0.329324 -0.152772 0)
(-0.333368 -0.171477 0)
(-0.336691 -0.190034 0)
(-0.338103 -0.207605 0)
(-0.33594 -0.222839 0)
(-0.328153 -0.233824 0)
(-0.312615 -0.238191 0)
(-0.287658 -0.233483 0)
(-0.252825 -0.217821 0)
(-0.209616 -0.190827 0)
(-0.161845 -0.154476 0)
(-0.115111 -0.113327 0)
(-0.075042 -0.0733473 0)
(-0.0449299 -0.0395125 0)
(-0.0246648 -0.0138229 0)
(-0.0120334 0.00422204 0)
(-0.0047136 0.0160658 0)
(-0.000891451 0.0229334 0)
(0.000657423 0.025566 0)
(0.000899861 0.0242153 0)
(0.000485329 0.0185805 0)
(7.4052e-05 0.00808647 0)
(-0.000822824 -0.00548219 0)
(-0.00558669 -0.00217237 0)
(-0.0146975 0.0096856 0)
(-0.0268474 0.0273238 0)
(-0.0427942 0.0481882 0)
(-0.0621263 0.0713695 0)
(-0.0852107 0.0962227 0)
(-0.111276 0.121998 0)
(-0.139418 0.147204 0)
(-0.167926 0.169979 0)
(-0.195305 0.188597 0)
(-0.220141 0.201928 0)
(-0.241601 0.209534 0)
(-0.259148 0.211553 0)
(-0.27273 0.208546 0)
(-0.282563 0.201347 0)
(-0.289174 0.190914 0)
(-0.293188 0.178186 0)
(-0.295299 0.163979 0)
(-0.296107 0.148937 0)
(-0.29613 0.133512 0)
(-0.295734 0.117994 0)
(-0.295179 0.10254 0)
(-0.294611 0.0872148 0)
(-0.294115 0.0720267 0)
(-0.293716 0.0569521 0)
(-0.293427 0.0419517 0)
(-0.293241 0.0269835 0)
(-0.29316 0.0120047 0)
(-0.293192 -0.00302355 0)
(-0.293363 -0.0181397 0)
(-0.293711 -0.0333809 0)
(-0.2943 -0.0487885 0)
(-0.295208 -0.0644092 0)
(-0.296538 -0.0803016 0)
(-0.298402 -0.0965369 0)
(-0.300924 -0.113203 0)
(-0.304207 -0.130397 0)
(-0.308302 -0.148208 0)
(-0.313134 -0.166672 0)
(-0.318402 -0.185694 0)
(-0.323442 -0.204915 0)
(-0.327083 -0.223534 0)
(-0.327543 -0.240121 0)
(-0.322476 -0.252488 0)
(-0.309256 -0.257756 0)
(-0.285624 -0.25276 0)
(-0.250645 -0.234929 0)
(-0.205779 -0.203566 0)
(-0.155503 -0.161168 0)
(-0.106683 -0.113774 0)
(-0.0661077 -0.0692084 0)
(-0.0371746 -0.0332606 0)
(-0.0188426 -0.00748811 0)
(-0.00817877 0.00956512 0)
(-0.00252344 0.0197576 0)
(4.96453e-06 0.0244328 0)
(0.000735345 0.0241982 0)
(0.00051562 0.0189947 0)
(0.000103773 0.00835369 0)
(-0.00139471 -0.00206747 0)
(-0.00812288 0.00600709 0)
(-0.019819 0.0215924 0)
(-0.0344537 0.0426927 0)
(-0.0529766 0.0670957 0)
(-0.074623 0.0937773 0)
(-0.0995896 0.121734 0)
(-0.126587 0.149589 0)
(-0.154463 0.175383 0)
(-0.181364 0.19711 0)
(-0.205994 0.213294 0)
(-0.227189 0.223215 0)
(-0.24446 0.226885 0)
(-0.257593 0.224852 0)
(-0.266897 0.218049 0)
(-0.27288 0.207584 0)
(-0.276298 0.194571 0)
(-0.27787 0.179975 0)
(-0.278292 0.164546 0)
(-0.278075 0.148798 0)
(-0.277613 0.133044 0)
(-0.277124 0.117437 0)
(-0.276741 0.102029 0)
(-0.276495 0.0868078 0)
(-0.276391 0.0717352 0)
(-0.276394 0.0567634 0)
(-0.276477 0.041846 0)
(-0.276607 0.0269445 0)
(-0.27677 0.0120269 0)
(-0.27696 -0.00293114 0)
(-0.277193 -0.0179509 0)
(-0.277494 -0.0330508 0)
(-0.277914 -0.048252 0)
(-0.278515 -0.0635798 0)
(-0.279386 -0.0790711 0)
(-0.280633 -0.0947776 0)
(-0.282393 -0.110775 0)
(-0.284812 -0.127168 0)
(-0.288047 -0.144089 0)
(-0.292216 -0.161686 0)
(-0.297342 -0.180085 0)
(-0.303232 -0.199292 0)
(-0.309319 -0.219048 0)
(-0.31447 -0.238596 0)
(-0.316824 -0.256417 0)
(-0.313771 -0.270013 0)
(-0.30223 -0.275919 0)
(-0.279369 -0.270163 0)
(-0.243809 -0.249379 0)
(-0.197072 -0.212624 0)
(-0.14451 -0.163247 0)
(-0.0944996 -0.109448 0)
(-0.054883 -0.0611554 0)
(-0.02845 -0.0245962 0)
(-0.0128065 8.13932e-06 0)
(-0.00440477 0.0149838 0)
(-0.000513381 0.0225367 0)
(0.000779408 0.0238946 0)
(0.000673061 0.0193949 0)
(0.000163335 0.00871489 0)
(-0.00201116 0.00284671 0)
(-0.01069 0.0165223 0)
(-0.0248006 0.0359603 0)
(-0.0416141 0.0604579 0)
(-0.0622467 0.0882277 0)
(-0.0855134 0.117963 0)
(-0.111427 0.148211 0)
(-0.138259 0.176996 0)
(-0.16479 0.202111 0)
(-0.189188 0.221639 0)
(-0.210465 0.234509 0)
(-0.227739 0.240461 0)
(-0.240902 0.239986 0)
(-0.250066 0.234042 0)
(-0.255877 0.223897 0)
(-0.259041 0.210836 0)
(-0.260422 0.196011 0)
(-0.260702 0.1803 0)
(-0.260481 0.164306 0)
(-0.260112 0.148372 0)
(-0.259842 0.132659 0)
(-0.259746 0.1172 0)
(-0.259854 0.101966 0)
(-0.260121 0.0869009 0)
(-0.260505 0.0719439 0)
(-0.260944 0.0570436 0)
(-0.2614 0.0421603 0)
(-0.261834 0.027267 0)
(-0.262233 0.0123455 0)
(-0.262587 -0.00261402 0)
(-0.26291 -0.0176184 0)
(-0.263221 -0.0326714 0)
(-0.263557 -0.0477788 0)
(-0.263964 -0.0629487 0)
(-0.26451 -0.078198 0)
(-0.265274 -0.0935547 0)
(-0.266368 -0.109069 0)
(-0.267923 -0.124818 0)
(-0.270111 -0.140923 0)
(-0.273116 -0.157552 0)
(-0.277126 -0.174916 0)
(-0.282248 -0.193227 0)
(-0.288393 -0.212605 0)
(-0.295086 -0.232886 0)
(-0.301224 -0.253338 0)
(-0.304852 -0.272307 0)
(-0.303097 -0.286898 0)
(-0.292435 -0.292947 0)
(-0.269515 -0.285536 0)
(-0.23264 -0.260499 0)
(-0.18363 -0.216834 0)
(-0.129108 -0.159494 0)
(-0.0792152 -0.0996007 0)
(-0.0423921 -0.0493951 0)
(-0.0197385 -0.0141036 0)
(-0.00729997 0.00779333 0)
(-0.00135275 0.0195346 0)
(0.000785384 0.0232335 0)
(0.000855835 0.0198226 0)
(0.00023289 0.00921573 0)
(-0.00261073 0.00924173 0)
(-0.0130743 0.0291877 0)
(-0.0292756 0.0524563 0)
(-0.047832 0.0801342 0)
(-0.0699821 0.110896 0)
(-0.0940988 0.143013 0)
(-0.120051 0.174579 0)
(-0.145796 0.20314 0)
(-0.170211 0.22648 0)
(-0.191596 0.242938 0)
(-0.209328 0.251948 0)
(-0.22282 0.25373 0)
(-0.232353 0.249265 0)
(-0.238327 0.239879 0)
(-0.241635 0.227081 0)
(-0.243053 0.2122 0)
(-0.243432 0.196312 0)
(-0.243321 0.180118 0)
(-0.243171 0.164035 0)
(-0.243164 0.148228 0)
(-0.243414 0.132731 0)
(-0.243888 0.117488 0)
(-0.244557 0.102428 0)
(-0.245332 0.087473 0)
(-0.246161 0.072565 0)
(-0.246974 0.0576612 0)
(-0.247741 0.0427363 0)
(-0.248424 0.0277776 0)
(-0.24902 0.0127813 0)
(-0.249519 -0.0022496 0)
(-0.249937 -0.0173101 0)
(-0.250288 -0.032393 0)
(-0.250605 -0.0474932 0)
(-0.250918 -0.062607 0)
(-0.25128 -0.0777377 0)
(-0.251742 -0.0928955 0)
(-0.252384 -0.108106 0)
(-0.2533 -0.123417 0)
(-0.254625 -0.138913 0)
(-0.256527 -0.154726 0)
(-0.259226 -0.171061 0)
(-0.262954 -0.18819 0)
(-0.267908 -0.206423 0)
(-0.274095 -0.225997 0)
(-0.28112 -0.246841 0)
(-0.287878 -0.268219 0)
(-0.292278 -0.288243 0)
(-0.291126 -0.303487 0)
(-0.280436 -0.308866 0)
(-0.256415 -0.298419 0)
(-0.217265 -0.267172 0)
(-0.165566 -0.214712 0)
(-0.109748 -0.148588 0)
(-0.0619272 -0.0841209 0)
(-0.0299476 -0.0346192 0)
(-0.0119484 -0.00292268 0)
(-0.00298373 0.0148425 0)
(0.000488775 0.0219759 0)
(0.000953004 0.0202107 0)
(0.000291235 0.00985297 0)
(-0.00313616 0.016982 0)
(-0.0150984 0.043705 0)
(-0.0329621 0.070674 0)
(-0.0527517 0.101207 0)
(-0.075778 0.134455 0)
(-0.0999991 0.168175 0)
(-0.125211 0.200078 0)
(-0.149193 0.227394 0)
(-0.171037 0.248102 0)
(-0.189241 0.260917 0)
(-0.203564 0.265832 0)
(-0.213715 0.263554 0)
(-0.220328 0.255527 0)
(-0.224002 0.243351 0)
(-0.22576 0.228648 0)
(-0.22633 0.212669 0)
(-0.226462 0.196317 0)
(-0.226523 0.180079 0)
(-0.226811 0.16418 0)
(-0.227358 0.148638 0)
(-0.228188 0.133393 0)
(-0.229203 0.118343 0)
(-0.230349 0.103401 0)
(-0.231526 0.0884908 0)
(-0.232689 0.0735681 0)
(-0.233774 0.0586045 0)
(-0.234765 0.0435907 0)
(-0.235629 0.028527 0)
(-0.236371 0.0134218 0)
(-0.236984 -0.00171257 0)
(-0.237489 -0.0168623 0)
(-0.237895 -0.0320129 0)
(-0.238234 -0.0471528 0)
(-0.238527 -0.0622718 0)
(-0.238816 -0.0773655 0)
(-0.239135 -0.0924339 0)
(-0.239538 -0.107488 0)
(-0.240084 -0.122552 0)
(-0.240861 -0.137675 0)
(-0.241988 -0.152944 0)
(-0.24364 -0.16851 0)
(-0.246047 -0.184609 0)
(-0.249492 -0.201577 0)
(-0.254241 -0.219825 0)
(-0.260396 -0.239706 0)
(-0.267614 -0.261244 0)
(-0.274749 -0.28362 0)
(-0.279487 -0.304604 0)
(-0.278227 -0.319954 0)
(-0.266483 -0.323472 0)
(-0.240123 -0.307896 0)
(-0.197652 -0.267877 0)
(-0.143051 -0.204421 0)
(-0.0873517 -0.129792 0)
(-0.0442842 -0.0637143 0)
(-0.0188627 -0.0185083 0)
(-0.00578458 0.00765235 0)
(-0.000312406 0.019705 0)
(0.000881606 0.0203688 0)
(0.000324137 0.0105635 0)
(-0.00353081 0.025806 0)
(-0.0166004 0.059646 0)
(-0.0356202 0.090088 0)
(-0.0560939 0.123044 0)
(-0.079358 0.15816 0)
(-0.103023 0.192656 0)
(-0.126893 0.223981 0)
(-0.148689 0.249219 0)
(-0.167792 0.266708 0)
(-0.182924 0.275606 0)
(-0.194223 0.276489 0)
(-0.201656 0.270523 0)
(-0.206136 0.259545 0)
(-0.208355 0.245301 0)
(-0.209351 0.229399 0)
(-0.209724 0.212906 0)
(-0.210073 0.196512 0)
(-0.210588 0.18048 0)
(-0.211436 0.164877 0)
(-0.212544 0.149612 0)
(-0.213889 0.134575 0)
(-0.215342 0.119646 0)
(-0.216852 0.104743 0)
(-0.218323 0.0898058 0)
(-0.219727 0.0748061 0)
(-0.221008 0.059731 0)
(-0.222162 0.0445855 0)
(-0.223162 0.0293807 0)
(-0.22402 0.0141348 0)
(-0.224728 -0.00113196 0)
(-0.22531 -0.0163989 0)
(-0.225773 -0.0316459 0)
(-0.226147 -0.0468565 0)
(-0.226452 -0.0620163 0)
(-0.226721 -0.0771173 0)
(-0.226981 -0.092155 0)
(-0.227271 -0.107133 0)
(-0.227626 -0.122064 0)
(-0.2281 -0.136974 0)
(-0.228764 -0.151914 0)
(-0.229732 -0.166979 0)
(-0.231172 -0.182339 0)
(-0.233337 -0.198264 0)
(-0.236546 -0.215168 0)
(-0.241136 -0.233564 0)
(-0.247275 -0.25394 0)
(-0.254645 -0.276352 0)
(-0.261976 -0.299848 0)
(-0.266621 -0.321559 0)
(-0.264453 -0.336202 0)
(-0.250452 -0.335966 0)
(-0.220383 -0.312443 0)
(-0.173607 -0.260295 0)
(-0.116584 -0.184271 0)
(-0.0635484 -0.103236 0)
(-0.0283414 -0.0406658 0)
(-0.0100083 -0.0029284 0)
(-0.0017281 0.0158786 0)
(0.000605674 0.0200423 0)
(0.000326806 0.0112592 0)
(-0.00375951 0.0353714 0)
(-0.0174909 0.0765395 0)
(-0.0371362 0.11019 0)
(-0.0577616 0.145104 0)
(-0.0806895 0.181461 0)
(-0.103275 0.215977 0)
(-0.125398 0.245977 0)
(-0.144818 0.268547 0)
(-0.161231 0.282496 0)
(-0.173592 0.287459 0)
(-0.182381 0.28459 0)
(-0.187763 0.275457 0)
(-0.190837 0.262181 0)
(-0.192282 0.246527 0)
(-0.193073 0.229982 0)
(-0.193632 0.213374 0)
(-0.194414 0.197171 0)
(-0.195452 0.181439 0)
(-0.196826 0.16613 0)
(-0.198401 0.151085 0)
(-0.20014 0.136181 0)
(-0.201908 0.121296 0)
(-0.203671 0.106369 0)
(-0.205344 0.0913539 0)
(-0.206914 0.0762408 0)
(-0.208334 0.0610284 0)
(-0.209609 0.0457332 0)
(-0.210714 0.0303739 0)
(-0.211666 0.0149766 0)
(-0.212456 -0.000432969 0)
(-0.213108 -0.0158283 0)
(-0.21363 -0.0311848 0)
(-0.214049 -0.0464822 0)
(-0.214383 -0.0617034 0)
(-0.214664 -0.0768384 0)
(-0.214914 -0.0918815 0)
(-0.215167 -0.106835 0)
(-0.215445 -0.121706 0)
(-0.215783 -0.136512 0)
(-0.216218 -0.151283 0)
(-0.216812 -0.166071 0)
(-0.217665 -0.180983 0)
(-0.218951 -0.1962 0)
(-0.220937 -0.212051 0)
(-0.223995 -0.229024 0)
(-0.228519 -0.247782 0)
(-0.234731 -0.268903 0)
(-0.242263 -0.292485 0)
(-0.249612 -0.31715 0)
(-0.253642 -0.339208 0)
(-0.249565 -0.351652 0)
(-0.231888 -0.344989 0)
(-0.196639 -0.309478 0)
(-0.145093 -0.24182 0)
(-0.0872763 -0.15307 0)
(-0.0410299 -0.0714998 0)
(-0.0156778 -0.0179339 0)
(-0.00385543 0.00986892 0)
(0.000143674 0.0189318 0)
(0.000297731 0.0118467 0)
(-0.00379929 0.0452747 0)
(-0.0177171 0.0938603 0)
(-0.037459 0.130428 0)
(-0.0577434 0.166811 0)
(-0.079845 0.20379 0)
(-0.100965 0.237656 0)
(-0.121109 0.26575 0)
(-0.138142 0.28528 0)
(-0.152073 0.295597 0)
(-0.162073 0.296815 0)
(-0.168904 0.290631 0)
(-0.172861 0.278923 0)
(-0.175125 0.263982 0)
(-0.17629 0.247473 0)
(-0.177215 0.230697 0)
(-0.178148 0.21422 0)
(-0.179414 0.198313 0)
(-0.180932 0.182885 0)
(-0.182739 0.167819 0)
(-0.184666 0.152921 0)
(-0.186687 0.138075 0)
(-0.188673 0.123173 0)
(-0.190612 0.108174 0)
(-0.192426 0.0930457 0)
(-0.19412 0.0777939 0)
(-0.195649 0.0624253 0)
(-0.197024 0.0469651 0)
(-0.198222 0.0314379 0)
(-0.199259 0.0158761 0)
(-0.200127 0.000310769 0)
(-0.200849 -0.0152263 0)
(-0.201429 -0.0307062 0)
(-0.201896 -0.0461044 0)
(-0.202265 -0.0614013 0)
(-0.202569 -0.0765849 0)
(-0.202827 -0.0916492 0)
(-0.203071 -0.106597 0)
(-0.203321 -0.121437 0)
(-0.203604 -0.136184 0)
(-0.20394 -0.150863 0)
(-0.204361 -0.165505 0)
(-0.204913 -0.180173 0)
(-0.205693 -0.194972 0)
(-0.206876 -0.210126 0)
(-0.20876 -0.226003 0)
(-0.211765 -0.243238 0)
(-0.216354 -0.2626 0)
(-0.222757 -0.284855 0)
(-0.230472 -0.309871 0)
(-0.237585 -0.335755 0)
(-0.240271 -0.357172 0)
(-0.232996 -0.365192 0)
(-0.209957 -0.347873 0)
(-0.168307 -0.295667 0)
(-0.112481 -0.209522 0)
(-0.0577144 -0.112504 0)
(-0.0227796 -0.0389326 0)
(-0.0067969 0.0011137 0)
(-0.00049274 0.0166759 0)
(0.000246595 0.0122587 0)
(-0.00365128 0.0551043 0)
(-0.0172945 0.111118 0)
(-0.0366438 0.150347 0)
(-0.0561672 0.187758 0)
(-0.0770608 0.224834 0)
(-0.0964722 0.257547 0)
(-0.114553 0.283364 0)
(-0.129321 0.299709 0)
(-0.141066 0.306499 0)
(-0.149148 0.304307 0)
(-0.154535 0.295309 0)
(-0.15758 0.281595 0)
(-0.159466 0.265515 0)
(-0.160655 0.248551 0)
(-0.161878 0.23179 0)
(-0.163223 0.21555 0)
(-0.164924 0.19994 0)
(-0.166826 0.184759 0)
(-0.168948 0.169858 0)
(-0.171117 0.15503 0)
(-0.173323 0.140181 0)
(-0.175451 0.125217 0)
(-0.177506 0.110117 0)
(-0.17942 0.0948583 0)
(-0.181207 0.0794583 0)
(-0.182822 0.0639286 0)
(-0.184282 0.0483008 0)
(-0.185562 0.0326037 0)
(-0.186678 0.0168752 0)
(-0.187622 0.00115055 0)
(-0.188415 -0.0145334 0)
(-0.189059 -0.0301438 0)
(-0.189584 -0.0456522 0)
(-0.190001 -0.0610363 0)
(-0.190342 -0.0762818 0)
(-0.190626 -0.0913826 0)
(-0.190885 -0.106342 0)
(-0.191138 -0.12117 0)
(-0.191411 -0.135886 0)
(-0.191717 -0.150514 0)
(-0.192076 -0.16508 0)
(-0.192504 -0.17963 0)
(-0.193045 -0.194216 0)
(-0.193787 -0.208978 0)
(-0.194924 -0.224144 0)
(-0.196785 -0.240219 0)