/*--------------------------------*- C++ -*----------------------------------*\
| =========                 |                                                 |
| \\      /  F ield         | OpenFOAM: The Open Source CFD Toolbox           |
|  \\    /   O peration     | Version:  2406                                  |
|   \\  /    A nd           | Website:  www.openfoam.com                      |
|    \\/     M anipulation  |                                                 |
\*---------------------------------------------------------------------------*/
FoamFile
{
    version     2.0;
    format      ascii;
    arch        "LSB;label=32;scalar=64";
    class       surfaceScalarField;
    location    "3.4";
    object      phi;
}
// * * * * * * * * * * * * * * * * * * * * * * * * * * * * * * * * * * * * * //

dimensions      [0 3 -1 0 0 0 0];

oriented        oriented;

internalField   nonuniform List<scalar> 
1740
(
-9.14671e-07
9.14682e-07
-2.57209e-06
1.65742e-06
-4.54301e-06
1.97093e-06
-6.5871e-06
2.04409e-06
-8.63874e-06
2.05164e-06
-1.06746e-05
2.03582e-06
-1.26837e-05
2.00909e-06
-1.46545e-05
1.97086e-06
-1.65734e-05
1.91885e-06
-1.84231e-05
1.8497e-06
-2.01826e-05
1.75958e-06
-2.18268e-05
1.64418e-06
-2.33258e-05
1.49893e-06
-2.46449e-05
1.31911e-06
-2.57451e-05
1.10023e-06
-2.65835e-05
8.3837e-07
-2.71142e-05
5.30768e-07
-2.72891e-05
1.74872e-07
-2.70667e-05
-2.22365e-07
-2.64077e-05
-6.59057e-07
-2.52788e-05
-1.12887e-06
-2.36596e-05
-1.61925e-06
-2.15476e-05
-2.11199e-06
-1.89599e-05
-2.58772e-06
-1.59352e-05
-3.02463e-06
-1.25398e-05
-3.39546e-06
-8.8856e-06
-3.65417e-06
-5.17883e-06
-3.70678e-06
-1.92623e-06
-3.2526e-06
-1.92623e-06
-1.73736e-06
2.65204e-06
-4.92508e-06
4.84514e-06
-8.57512e-06
5.62096e-06
-1.23238e-05
5.79282e-06
-1.60504e-05
5.77819e-06
-1.97149e-05
5.70031e-06
-2.32925e-05
5.5867e-06
-2.67591e-05
5.43751e-06
-3.00875e-05
5.24717e-06
-3.32458e-05
5.00802e-06
-3.61974e-05
4.71125e-06
-3.89003e-05
4.34708e-06
-4.13065e-05
3.90512e-06
-4.33623e-05
3.37483e-06
-4.50084e-05
2.74634e-06
-4.61815e-05
2.01147e-06
-4.68156e-05
1.1649e-06
-4.68481e-05
2.07336e-07
-4.62109e-05
-8.59526e-07
-4.48539e-05
-2.0161e-06
-4.27378e-05
-3.24494e-06
-3.98433e-05
-4.51375e-06
-3.61736e-05
-5.78168e-06
-3.17603e-05
-7.00103e-06
-2.6667e-05
-8.11792e-06
-2.09955e-05
-9.06689e-06
-1.49087e-05
-9.74105e-06
-8.72786e-06
-9.88757e-06
-3.15792e-06
-8.82254e-06
-5.08415e-06
-2.12853e-06
4.78057e-06
-5.89707e-06
8.61369e-06
-1.01667e-05
9.89059e-06
-1.45362e-05
1.01624e-05
-1.88721e-05
1.0114e-05
-2.31247e-05
9.95291e-06
-2.72629e-05
9.72487e-06
-3.12571e-05
9.43174e-06
-3.50753e-05
9.06533e-06
-3.86813e-05
8.61402e-06
-4.20342e-05
8.06418e-06
-4.50877e-05
7.40057e-06
-4.77894e-05
6.60687e-06
-5.00811e-05
5.66649e-06
-5.18986e-05
4.56382e-06
-5.3173e-05
3.28595e-06
-5.3833e-05
1.8249e-06
-5.38043e-05
1.78627e-07
-5.30238e-05
-1.64007e-06
-5.14277e-05
-3.61224e-06
-4.89727e-05
-5.69985e-06
-4.56359e-05
-7.85056e-06
-4.14209e-05
-9.99677e-06
-3.63634e-05
-1.20585e-05
-3.05363e-05
-1.3945e-05
-2.40566e-05
-1.55466e-05
-1.71131e-05
-1.66845e-05
-1.00625e-05
-1.69381e-05
-3.69768e-06
-1.51874e-05
-8.78183e-06
-2.25864e-06
7.03921e-06
-6.23757e-06
1.25926e-05
-1.07365e-05
1.43895e-05
-1.53338e-05
1.47597e-05
-1.98933e-05
1.46736e-05
-2.43649e-05
1.44245e-05
-2.87171e-05
1.40771e-05
-3.29203e-05
1.36349e-05
-3.69423e-05
1.30874e-05
-4.07474e-05
1.24191e-05
-4.42948e-05
1.16116e-05
-4.75382e-05
1.0644e-05
-5.04248e-05
9.49347e-06
-5.28948e-05
8.13646e-06
-5.48813e-05
6.55032e-06
-5.6311e-05
4.71563e-06
-5.71053e-05
2.61924e-06
-5.71846e-05
2.57877e-07
-5.6468e-05
-2.35669e-06
-5.48844e-05
-5.19583e-06
-5.23758e-05
-8.20844e-06
-4.89065e-05
-1.13198e-05
-4.4471e-05
-1.44323e-05
-3.91013e-05
-1.74282e-05
-3.2873e-05
-2.01733e-05
-2.59147e-05
-2.25049e-05
-1.84367e-05
-2.41625e-05
-1.08333e-05
-2.45416e-05
-3.97705e-06
-2.20436e-05
-1.27589e-05
-2.31085e-06
9.35006e-06
-6.38198e-06
1.66637e-05
-1.0992e-05
1.89995e-05
-1.57044e-05
1.94721e-05
-2.03819e-05
1.9351e-05
-2.49757e-05
1.90184e-05
-2.94564e-05
1.85578e-05
-3.37966e-05
1.7975e-05
-3.79663e-05
1.72571e-05
-4.19323e-05
1.6385e-05
-4.56558e-05
1.53352e-05
-4.90924e-05
1.40806e-05
-5.21899e-05
1.25909e-05
-5.48875e-05
1.08341e-05
-5.71156e-05
8.77834e-06
-5.87946e-05
6.39469e-06
-5.98368e-05
3.66146e-06
-6.01481e-05
5.69114e-07
-5.96312e-05
-2.87359e-06
-5.81933e-05
-6.63371e-06
-5.57538e-05
-1.0648e-05
-5.22547e-05
-1.48189e-05
-4.76726e-05
-1.90144e-05
-4.20293e-05
-2.30715e-05
-3.5402e-05
-2.68007e-05
-2.79345e-05
-2.99723e-05
-1.98694e-05
-3.22276e-05
-1.16559e-05
-3.27551e-05
-4.26881e-06
-2.94307e-05
-1.70277e-05
-2.34342e-06
1.16935e-05
-6.48866e-06
2.0809e-05
-1.11919e-05
2.37027e-05
-1.60046e-05
2.42848e-05
-2.07887e-05
2.41351e-05
-2.54976e-05
2.37272e-05
-3.01046e-05
2.31649e-05
-3.45858e-05
2.24562e-05
-3.8915e-05
2.15863e-05
-4.30625e-05
2.05325e-05
-4.69935e-05
1.92662e-05
-5.06664e-05
1.77535e-05
-5.40309e-05
1.59554e-05
-5.70263e-05
1.38295e-05
-5.95797e-05
1.13317e-05
-6.16049e-05
8.41983e-06
-6.30018e-05
5.0584e-06
-6.36582e-05
1.22554e-06
-6.34531e-05
-3.07875e-06
-6.22633e-05
-7.82352e-06
-5.99742e-05
-1.2937e-05
-5.64937e-05
-1.82993e-05
-5.17691e-05
-2.3739e-05
-4.58042e-05
-2.90364e-05
-3.86758e-05
-3.39292e-05
-3.05496e-05
-3.80985e-05
-2.1716e-05
-4.10611e-05
-1.27057e-05
-4.17655e-05
-4.62792e-06
-3.75084e-05
-2.16556e-05
-2.37578e-06
1.40693e-05
-6.60273e-06
2.50359e-05
-1.14091e-05
2.85091e-05
-1.63338e-05
2.92095e-05
-2.12375e-05
2.90388e-05
-2.60761e-05
2.85658e-05
-3.08266e-05
2.79155e-05
-3.54694e-05
2.7099e-05
-3.99834e-05
2.61002e-05
-4.4344e-05
2.48932e-05
-4.85219e-05
2.34441e-05
-5.24802e-05
2.17118e-05
-5.61724e-05
1.96476e-05
-5.95393e-05
1.71965e-05
-6.25062e-05
1.42987e-05
-6.49801e-05
1.08937e-05
-6.68476e-05
6.92584e-06
-6.79745e-05
2.3525e-06
-6.82088e-05
-2.84452e-06
-6.73866e-05
-8.64568e-06
-6.53452e-05
-1.49784e-05
-6.19415e-05
-2.17031e-05
-5.70762e-05
-2.86043e-05
-5.07223e-05
-3.53903e-05
-4.29514e-05
-4.17001e-05
-3.39596e-05
-4.70902e-05
-2.41091e-05
-5.09117e-05
-1.40495e-05
-5.18251e-05
-5.0757e-06
-4.64823e-05
-2.67313e-05
-2.41174e-06
1.6481e-05
-6.73303e-06
2.93572e-05
-1.16577e-05
3.34337e-05
-1.67102e-05
3.4262e-05
-2.17497e-05
3.40783e-05
-2.67346e-05
3.35507e-05
-3.16466e-05
3.28274e-05
-3.64711e-05
3.19235e-05
-4.11935e-05
3.08226e-05
-4.57962e-05
2.94959e-05
-5.02574e-05
2.79052e-05
-5.45475e-05
2.60019e-05
-5.86267e-05
2.37268e-05
-6.24403e-05
2.101e-05
-6.59143e-05
1.77728e-05
-6.8951e-05
1.39304e-05
-7.14238e-05
9.39863e-06
-7.31744e-05
4.10311e-06
-7.40127e-05
-2.00626e-06
-7.3722e-05
-8.9364e-06
-7.20725e-05
-1.66279e-05
-6.88456e-05
-2.49301e-05
-6.38687e-05
-3.35811e-05
-5.70603e-05
-4.21988e-05
-4.84761e-05
-5.02843e-05
-3.83533e-05
-5.7213e-05
-2.7162e-05
-6.2103e-05
-1.57305e-05
-6.32565e-05
-5.61331e-06
-5.65995e-05
-3.23446e-05
-2.45142e-06
1.89324e-05
-6.8794e-06
3.37852e-05
-1.19372e-05
3.84915e-05
-1.71321e-05
3.94569e-05
-2.23211e-05
3.92674e-05
-2.74658e-05
3.86954e-05
-3.25525e-05
3.79142e-05
-3.75734e-05
3.69444e-05
-4.25214e-05
3.57706e-05
-4.73883e-05
3.43627e-05
-5.2162e-05
3.2679e-05
-5.68241e-05
3.0664e-05
-6.1345e-05
2.82477e-05
-6.56791e-05
2.53442e-05
-6.97584e-05
2.1852e-05
-7.34846e-05
1.76566e-05
-7.67212e-05
1.26353e-05
-7.92858e-05
6.66773e-06
-8.0945e-05
-3.47091e-07
-8.14157e-05
-8.46574e-06
-8.03771e-05
-1.76665e-05
-7.74996e-05
-2.78076e-05
-7.24942e-05
-3.85865e-05
-6.51827e-05
-4.95103e-05
-5.55806e-05
-5.98863e-05
-4.39779e-05
-6.88157e-05
-3.10111e-05
-7.50698e-05
-1.77861e-05
-7.64815e-05
-6.22996e-06
-6.81556e-05
-3.85746e-05
-2.49428e-06
2.14267e-05
-7.04036e-06
3.83313e-05
-1.22445e-05
4.36957e-05
-1.7594e-05
4.48064e-05
-2.29429e-05
4.46163e-05
-2.82557e-05
4.40082e-05
-3.35244e-05
4.31829e-05
-3.87486e-05
4.21686e-05
-4.39305e-05
4.09525e-05
-4.90734e-05
3.95056e-05
-5.41785e-05
3.77841e-05
-5.9242e-05
3.57275e-05
-6.42502e-05
3.32559e-05
-6.91731e-05
3.0267e-05
-7.39558e-05
2.66348e-05
-7.85081e-05
2.22089e-05
-8.26912e-05
1.68183e-05
-8.63033e-05
1.02798e-05
-8.90666e-05
2.41625e-06
-9.06195e-05
-6.91289e-06
-9.05214e-05
-1.77645e-05
-8.82826e-05
-3.00464e-05
-8.34286e-05
-4.34405e-05
-7.5609e-05
-5.73299e-05
-6.47443e-05
-7.0751e-05
-5.11838e-05
-8.23762e-05
-3.5829e-05
-9.04246e-05
-2.02365e-05
-9.2074e-05
-6.89205e-06
-8.15e-05
-4.54666e-05
-2.54017e-06
2.39669e-05
-7.21537e-06
4.30065e-05
-1.2578e-05
4.90583e-05
-1.80919e-05
5.03202e-05
-2.3607e-05
5.01314e-05
-2.90908e-05
4.9492e-05
-3.45412e-05
4.86333e-05
-3.99661e-05
4.75935e-05
-4.53789e-05
4.63653e-05
-5.07965e-05
4.49232e-05
-5.62369e-05
4.32244e-05
-6.17156e-05
4.12063e-05
-6.72413e-05
3.87816e-05
-7.28078e-05
3.58335e-05
-7.83844e-05
3.22114e-05
-8.39018e-05
2.77263e-05
-8.92331e-05
2.21495e-05
-9.41707e-05
1.52174e-05
-9.84002e-05
6.64576e-06
-0.000101476
-3.83734e-06
-0.000102808
-1.64321e-05
-0.000101683
-3.11718e-05
-9.73333e-05
-4.77899e-05
-8.91007e-05
-6.55626e-05
-7.66903e-05
-8.31614e-05
-6.04913e-05
-9.85753e-05
-4.18341e-05
-0.000109082
-2.30514e-05
-0.000110857
-7.52553e-06
-9.70259e-05
-5.29922e-05
-2.58987e-06
2.65567e-05
-7.40595e-06
4.78226e-05
-1.2939e-05
5.45913e-05
-1.8625e-05
5.60062e-05
-2.43089e-05
5.58153e-05
-2.99605e-05
5.51436e-05
-3.55839e-05
5.42567e-05
-4.11961e-05
5.32057e-05
-4.6823e-05
5.19922e-05
-5.24974e-05
5.05976e-05
-5.82573e-05
4.89844e-05
-6.4143e-05
4.7092e-05
-7.01922e-05
4.48308e-05
-7.64332e-05
4.20745e-05
-8.28734e-05
3.86516e-05
-8.94829e-05
3.43358e-05
-9.61702e-05
2.88368e-05
-0.000102748
2.17953e-05
-0.00010889
1.27875e-05
-0.000114078
1.35043e-06
-0.000117555
-1.29542e-05
-0.00011831
-3.04172e-05
-0.000115129
-5.09713e-05
-0.000106804
-7.38875e-05
-9.25626e-05
-9.74024e-05
-7.27232e-05
-0.000118415
-4.93091e-05
-0.000132496
-2.60716e-05
-0.000134094
-7.99266e-06
-0.000115105
-6.09848e-05
-2.64557e-06
2.92023e-05
-7.61679e-06
5.27938e-05
-1.3333e-05
6.03075e-05
-1.9198e-05
6.18712e-05
-2.50496e-05
6.1667e-05
-3.08597e-05
6.09537e-05
-3.66381e-05
6.00352e-05
-4.24118e-05
5.89794e-05
-4.82199e-05
5.78003e-05
-5.41132e-05
5.64909e-05
-6.01526e-05
5.50238e-05
-6.64075e-05
5.33469e-05
-7.29522e-05
5.13755e-05
-7.98604e-05
4.89826e-05
-8.71943e-05
4.59855e-05
-9.49879e-05
4.21295e-05
-0.000103219
3.70677e-05
-0.000111764
3.03408e-05
-0.000120337
2.13597e-05
-0.000128394
9.4074e-06
-0.00013503
-6.31731e-06
-0.000138878
-2.65692e-05
-0.00013808
-5.17697e-05
-0.000130482
-8.14861e-05
-0.000114276
-0.000113608
-8.93096e-05
-0.000143381
-5.86553e-05
-0.00016315
-2.8885e-05
-0.000163865
-8.11219e-06
-0.000135878
-6.9097e-05
-2.71147e-06
3.19138e-05
-7.85705e-06
5.79394e-05
-1.37723e-05
6.62227e-05
-1.98231e-05
6.79221e-05
-2.58387e-05
6.76825e-05
-3.17916e-05
6.69066e-05
-3.76977e-05
6.59413e-05
-4.35935e-05
6.48751e-05
-4.95322e-05
6.37391e-05
-5.55835e-05
6.25422e-05
-6.18331e-05
6.12734e-05
-6.8383e-05
5.98967e-05
-7.535e-05
5.83425e-05
-8.28631e-05
5.64958e-05
-9.10571e-05
5.41795e-05
-0.000100058
5.11302e-05
-0.000109956
4.69657e-05
-0.000120758
4.11427e-05
-0.000132304
3.29058e-05
-0.000144136
2.12394e-05
-0.000155302
4.84885e-06
-0.000164103
-1.77682e-05
-0.000167855
-4.80174e-05
-0.000162885
-8.64562e-05
-0.000145283
-0.00013121
-0.00011324
-0.000175424
-7.09871e-05
-0.000205403
-3.10258e-05
-0.000203826
-7.91515e-06
-0.000158988
-7.70122e-05
-2.79487e-06
3.47086e-05
-8.14235e-06
6.32868e-05
-1.42779e-05
7.23583e-05
-2.05235e-05
7.41677e-05
-2.66972e-05
7.38562e-05
-3.27717e-05
7.29811e-05
-3.87682e-05
7.19377e-05
-4.47327e-05
7.08396e-05
-5.07325e-05
6.97389e-05
-5.6856e-05
6.86657e-05
-6.32142e-05
6.76316e-05
-6.99423e-05
6.66248e-05
-7.72027e-05
6.56028e-05
-8.51867e-05
6.44799e-05
-9.41153e-05
6.3108e-05
-0.000104233
6.12481e-05
-0.000115793
5.85252e-05
-0.000129012
5.43624e-05
-0.000143993
4.78865e-05
-0.000160556
3.7802e-05
-0.000177952
2.22457e-05
-0.000194397
-1.32378e-06
-0.000206411
-3.60033e-05
-0.000208268
-8.45996e-05
-0.000192361
-0.000147116
-0.000152508
-0.000215277
-9.22409e-05
-0.00026567
-3.47544e-05
-0.000261312
-8.77129e-06
-0.000184971
-8.57835e-05
-2.90682e-06
3.76155e-05
-8.49711e-06
6.88771e-05
-1.48837e-05
7.87449e-05
-2.13369e-05
8.06208e-05
-2.7662e-05
8.01814e-05
-3.38313e-05
7.91504e-05
-3.98711e-05
7.79775e-05
-4.5837e-05
7.68054e-05
-5.18095e-05
7.57114e-05
-5.78947e-05
7.47509e-05
-6.42263e-05
7.39632e-05
-7.09706e-05
7.33691e-05
-7.83331e-05
7.29654e-05
-8.65676e-05
7.27144e-05
-9.59865e-05
7.25269e-05
-0.000106971
7.22323e-05
-0.000119974
7.15288e-05
-0.000135513
6.99013e-05
-0.000154111
6.64847e-05
-0.000176159
5.98495e-05
-0.000201587
4.76739e-05
-0.000229169
2.62581e-05
-0.000255368
-9.80436e-06
-0.000272974
-6.69938e-05
-0.000269639
-0.000150451
-0.000229022
-0.000255894
-0.000145936
-0.000348757
-5.82733e-05
-0.000348975
-1.88208e-05
-0.000224424
-0.000104604
-3.06576e-06
4.06812e-05
-8.9586e-06
7.477e-05
-1.56392e-05
8.54255e-05
-2.23186e-05
8.73003e-05
-2.87889e-05
8.66516e-05
-3.50215e-05
8.53831e-05
-4.10485e-05
8.40046e-05
-4.69352e-05
8.26921e-05
-5.27745e-05
8.15507e-05
-5.86875e-05
8.06639e-05
-6.48264e-05
8.01021e-05
-7.13816e-05
7.99243e-05
-7.8593e-05
8.01768e-05
-8.67662e-05
8.08876e-05
-9.62953e-05
8.2056e-05
-0.000107693
8.36297e-05
-0.000121627
8.54632e-05
-0.000138965
8.7239e-05
-0.000160796
8.83163e-05
-0.00018841
8.74632e-05
-0.00022312
8.23837e-05
-0.000265544
6.86821e-05
-0.000314334
3.89857e-05
-0.000364652
-1.66754e-05
-0.000401514
-0.00011359
-0.000385911
-0.000271496
-0.000287943
-0.000446725
-0.000154717
-0.000482201
-5.91103e-05
-0.000320031
-0.000163715
-3.29546e-06
4.39767e-05
-9.58117e-06
8.10557e-05
-1.66201e-05
9.24645e-05
-2.35539e-05
9.4234e-05
-3.01618e-05
9.32596e-05
-3.64193e-05
9.16406e-05
-4.2367e-05
8.99523e-05
-4.80811e-05
8.84062e-05
-5.36664e-05
8.7136e-05
-5.92552e-05
8.62527e-05
-6.50111e-05
8.5858e-05
-7.11376e-05
8.60508e-05
-7.78926e-05
8.69318e-05
-8.56111e-05
8.86061e-05
-9.47389e-05
9.11838e-05
-0.000105883
9.47736e-05
-0.000119885
9.94654e-05
-0.000137935
0.000105289
-0.000161722
0.000112104
-0.000193636
0.000119377
-0.000237049
0.000125797
-0.000296374
0.000128007
-0.000376719
0.000119331
-0.000481682
8.82879e-05
-0.000594414
-8.57922e-07
-0.000636363
-0.000229547
-0.000549744
-0.000533344
-0.000365251
-0.000666694
-0.000142046
-0.000543236
-0.000305761
-3.64313e-06
4.76198e-05
-1.04464e-05
8.78589e-05
-1.79236e-05
9.99417e-05
-2.51455e-05
0.000101456
-3.18866e-05
0.000100001
-3.81263e-05
9.78803e-05
-4.39192e-05
9.57451e-05
-4.93564e-05
9.38434e-05
-5.45553e-05
9.2335e-05
-5.96563e-05
9.13537e-05
-6.48259e-05
9.10276e-05
-7.0266e-05
9.14909e-05
-7.623e-05
9.28958e-05
-8.30485e-05
9.54246e-05
-9.11693e-05
9.93045e-05
-0.000101219
0.000104824
-0.000114105
0.000112351
-0.00013118
0.000122364
-0.000154531
0.000135455
-0.000187456
0.000152302
-0.000235514
0.000173855
-0.000308486
0.000200979
-0.000421895
0.00023274
-0.000584414
0.000250807
-0.000748499
0.000163227
-0.000819817
-0.000158229
-0.000767555
-0.000585606
-0.000586321
-0.000847928
-0.000257307
-0.00087225
-0.000563067
-4.15555e-06
5.17754e-05
-1.16755e-05
9.53788e-05
-1.97241e-05
0.00010799
-2.72827e-05
0.000109014
-3.41311e-05
0.000106849
-4.0286e-05
0.000104035
-4.58281e-05
0.000101287
-5.08698e-05
9.88851e-05
-5.55419e-05
9.70071e-05
-5.99887e-05
9.58005e-05
-6.43704e-05
9.54092e-05
-6.88708e-05
9.59914e-05
-7.37136e-05
9.77386e-05
-7.91853e-05
0.000100896
-8.56734e-05
0.000105793
-9.37255e-05
0.000112876
-0.000104148
0.000122773
-0.000118175
0.000136391
-0.000137814
0.000155094
-0.00016646
0.000180949
-0.000210367
0.000217762
-0.000281872
0.000272484
-0.000398687
0.000349555
-0.000553177
0.000405297
-0.000676601
0.000286652
-0.000701377
-0.000133454
-0.000684003
-0.00060298
-0.000603989
-0.000927942
-0.000352813
-0.00112343
-0.000915881
-4.96363e-06
5.6739e-05
-1.34335e-05
0.000103849
-2.2162e-05
0.000116719
-3.0088e-05
0.00011694
-3.7042e-05
0.000113803
-4.30487e-05
0.000110042
-4.82364e-05
0.000106475
-5.27544e-05
0.000103403
-5.67556e-05
0.000101008
-6.03879e-05
9.94328e-05
-6.3797e-05
9.88183e-05
-6.71343e-05
9.93287e-05
-7.0569e-05
0.000101173
-7.43068e-05
0.000104634
-7.86149e-05
0.000110101
-8.3863e-05
0.000118124
-9.05887e-05
0.000129499
-9.95875e-05
0.00014539
-0.000112121
0.000167627
-0.000130442
0.000199269
-0.000158293
0.000245613
-0.000202029
0.00031622
-0.000268552
0.000416078
-0.000337186
0.00047393
-0.000379504
0.00032897
-0.000375563
-0.000137395
-0.000370698
-0.000607844
-0.000388748
-0.000909893
-0.000318904
-0.00119327
-0.00123478
-6.21127e-06
6.29503e-05
-1.6088e-05
0.000113725
-2.57627e-05
0.000126394
-3.40835e-05
0.000125261
-4.0974e-05
0.000120694
-4.66518e-05
0.00011572
-5.13141e-05
0.000111137
-5.51501e-05
0.000107239
-5.8332e-05
0.00010419
-6.10045e-05
0.000102105
-6.32911e-05
0.000101105
-6.52965e-05
0.000101334
-6.71187e-05
0.000102995
-6.8855e-05
0.00010637
-7.06163e-05
0.000111862
-7.25273e-05
0.000120035
-7.47464e-05
0.000131718
-7.75015e-05
0.000148145
-8.09016e-05
0.000171028
-8.45447e-05
0.000202912
-9.08343e-05
0.000251903
-8.89603e-05
0.000314346
-8.68359e-05
0.000413954
-6.61368e-05
0.000453231
-6.8593e-05
0.000331426
-0.000103201
-0.000102787
-0.000142861
-0.000568184
-0.000198854
-0.0008539
-0.000200742
-0.00119138
-0.00143553
-8.11244e-06
7.10627e-05
-1.96675e-05
0.00012528
-3.03558e-05
0.000137082
-3.9054e-05
0.000133959
-4.59696e-05
0.000127609
-5.12345e-05
0.000120985
-5.52195e-05
0.000115122
-5.82119e-05
0.000110232
-6.04267e-05
0.000106405
-6.20139e-05
0.000103692
-6.30675e-05
0.000102159
-6.3641e-05
0.000101908
-6.37494e-05
0.000103104
-6.33725e-05
0.000105994
-6.24561e-05
0.000110946
-6.08828e-05
0.000118461
-5.83921e-05
0.000129227
-5.45548e-05
0.000144308
-4.96303e-05
0.000166103
-3.81678e-05
0.000191449
-2.32465e-05
0.000236981
9.73617e-06
0.000281363
6.83139e-05
0.000355376
0.000145846
0.000375699
0.000184992
0.00029228
0.000118775
-3.65698e-05
1.99532e-05
-0.000469362
-8.84296e-05
-0.000745518
-0.00013466
-0.00114515
-0.00157019
-1.19483e-05
8.3011e-05
-2.64311e-05
0.000139763
-3.83029e-05
0.000148954
-4.68497e-05
0.000142506
-5.2852e-05
0.000133611
-5.71082e-05
0.000125241
-6.00628e-05
0.000118077
-6.19721e-05
0.000112141
-6.30778e-05
0.000107511
-6.34829e-05
0.000104098
-6.32622e-05
0.000101938
-6.23831e-05
0.000101029
-6.08079e-05
0.000101529
-5.83663e-05
0.000103552
-5.48932e-05
0.000107473
-5.00503e-05
0.000113619
-4.34382e-05
0.000122615
-3.34933e-05
0.000134363
-2.11326e-05
0.000153742
-1.12628e-06
0.000171443
2.99902e-05
0.000205865
8.06794e-05
0.000230674
0.000154462
0.000281593
0.000258944
0.000271218
0.000332888
0.000218336
0.000292106
4.21153e-06
0.000171862
-0.000349118
3.73237e-05
-0.000610979
-5.85748e-05
-0.00104925
-0.00162876
-1.57858e-05
9.87968e-05
-3.21152e-05
0.000156093
-4.60522e-05
0.000162891
-5.49741e-05
0.000151428
-6.09967e-05
0.000139634
-6.42733e-05
0.000128518
-6.59584e-05
0.000119762
-6.65664e-05
0.000112749
-6.6374e-05
0.000107318
-6.54959e-05
0.00010322
-6.39449e-05
0.000100387
-6.16422e-05
9.87259e-05
-5.84631e-05
9.83494e-05
-5.41514e-05
9.92402e-05
-4.84058e-05
0.000101727
-4.06908e-05
0.000105904
-3.07406e-05
0.000112665
-1.66094e-05
0.000120232
2.83024e-06
0.000134303
2.77602e-05
0.000146513
6.4085e-05
0.00016954
0.000116851
0.000177908
0.000187085
0.000211359
0.000276341
0.000181961
0.000353288
0.00014139
0.000340703
1.67958e-05
0.000222059
-0.000230473
7.24515e-05
-0.000461372
-3.57027e-05
-0.000941099
-0.00166446
-3.34723e-05
0.000132269
-5.36416e-05
0.000176262
-6.58706e-05
0.000175119
-6.95934e-05
0.000155151
-7.17595e-05
0.0001418
-7.18742e-05
0.000128632
-7.16297e-05
0.000119517
-7.04784e-05
0.000111598
-6.88951e-05
0.000105735
-6.66207e-05
0.000100945
-6.38266e-05
9.75926e-05
-6.01042e-05
9.50035e-05
-5.55738e-05
9.38191e-05
-4.95226e-05
9.3189e-05
-4.21082e-05
9.43126e-05
-3.20133e-05
9.58087e-05
-1.96297e-05
0.000100282
-3.4581e-06
0.00010406
1.90565e-05
0.000111788
4.64341e-05
0.000119135
8.4496e-05
0.000131478
0.000130467
0.000131937
0.000191397
0.000150429
0.000250599
0.000122759
0.000308777
8.32121e-05
0.000305571
2.00018e-05
0.000207292
-0.000132194
4.88485e-05
-0.000302928
-5.24839e-05
-0.000839767
-0.00171695
-3.17381e-05
0.000164007
-5.34962e-05
0.00019802
-7.18897e-05
0.000193513
-7.75493e-05
0.000160811
-8.02405e-05
0.000144491
-7.8531e-05
0.000126923
-7.56608e-05
0.000116647
-7.19268e-05
0.000107864
-6.79731e-05
0.000101781
-6.33226e-05
9.62946e-05
-5.8533e-05
9.28031e-05
-5.24434e-05
8.89139e-05
-4.63076e-05
8.76833e-05
-3.78454e-05
8.47268e-05
-2.89059e-05
8.53731e-05
-1.6855e-05
8.37577e-05
-2.05206e-06
8.54786e-05
1.48742e-05
8.71338e-05
3.87705e-05
8.78918e-05
6.48034e-05
9.31025e-05
0.000101873
9.4409e-05
0.000138739
9.50707e-05
0.000191049
9.81189e-05
0.000226338
8.74694e-05
0.000259849
4.97013e-05
0.000257118
2.27325e-05
0.000200035
-7.5111e-05
8.79851e-05
-0.000190878
1.79642e-05
-0.000769746
-0.00169898
-0.000126184
0.000290192
-0.000108938
0.000180774
-0.000108885
0.000193459
-8.63268e-05
0.000138253
-7.32747e-05
0.000131439
-5.95466e-05
0.000113195
-4.95701e-05
0.000106671
-3.96105e-05
9.7904e-05
-3.14028e-05
9.35734e-05
-2.1887e-05
8.67788e-05
-1.34914e-05
8.44075e-05
-3.29301e-06
7.87155e-05
6.65948e-06
7.77308e-05
1.87907e-05
7.25956e-05
3.09801e-05
7.31837e-05
4.62096e-05
6.85282e-05
6.24481e-05
6.92401e-05
8.17937e-05
6.77883e-05
0.000104929
6.47568e-05
0.000128766
6.92656e-05
0.00016183
6.1345e-05
0.000188468
6.84324e-05
0.000230434
5.61532e-05
0.00025188
6.60234e-05
0.0002712
3.03813e-05
0.000261951
3.19809e-05
0.000237431
-5.05908e-05
0.000216994
-0.000170442
0.000159008
-0.00071176
-0.00153997
4.01619e-06
0.000286176
-8.34655e-07
0.000185625
3.23818e-05
0.000160243
3.417e-05
0.000136465
5.5986e-05
0.000109623
7.52454e-05
9.39352e-05
9.73587e-05
8.45573e-05
0.000120447
7.48156e-05
0.000145173
6.88479e-05
0.000169801
6.21507e-05
0.000195732
5.84765e-05
0.000221348
5.30992e-05
0.000248017
5.10617e-05
0.000274009
4.66034e-05
0.000301797
4.53957e-05
0.000328214
4.21114e-05
0.000356994
4.04602e-05
0.000384562
4.02198e-05
0.000414624
3.46947e-05
0.000442575
4.13152e-05
0.000475827
2.80929e-05
0.000502145
4.21145e-05
0.000536147
2.21507e-05
0.000565753
3.64181e-05
0.000582055
1.40785e-05
0.000598518
1.55182e-05
0.000573975
-2.60472e-05
0.000571883
-0.00016835
0.000388188
-0.000528065
-0.00115179
0.000286176
0.0004718
0.000632043
0.000768508
0.000878131
0.000972066
0.00105662
0.00113144
0.00120029
0.00126244
0.00132091
0.00137401
0.00142508
0.00147168
0.00151707
0.00155919
0.00159965
0.00163987
0.00167456
0.00171588
0.00174397
0.00178608
0.00180823
0.00184465
0.00185873
0.00187425
0.0018482
0.00167985
0.00115179
)
;

boundaryField
{
    movingWall
    {
        type            calculated;
        value           uniform 0;
    }
    fixedWalls
    {
        type            calculated;
        value           uniform 0;
    }
    frontAndBack
    {
        type            empty;
    }
}


// ************************************************************************* //
