/*--------------------------------*- C++ -*----------------------------------*\
| =========                 |                                                 |
| \\      /  F ield         | OpenFOAM: The Open Source CFD Toolbox           |
|  \\    /   O peration     | Version:  2406                                  |
|   \\  /    A nd           | Website:  www.openfoam.com                      |
|    \\/     M anipulation  |                                                 |
\*---------------------------------------------------------------------------*/
FoamFile
{
    version     2.0;
    format      ascii;
    arch        "LSB;label=32;scalar=64";
    class       volScalarField;
    location    "1.05";
    object      p;
}
// * * * * * * * * * * * * * * * * * * * * * * * * * * * * * * * * * * * * * //

dimensions      [0 2 -2 0 0 0 0];

internalField   nonuniform List<scalar> 
14400
(
0.000708812
0.000707113
0.000705727
0.000703933
0.000703043
0.000702449
0.000702852
0.000703772
0.000705545
0.000707873
0.000710939
0.000714582
0.000718903
0.000723817
0.00072938
0.000735547
0.000742347
0.000749755
0.000757786
0.000766427
0.000775684
0.000785549
0.000796024
0.000807103
0.000818785
0.000831066
0.000843944
0.000857413
0.000871471
0.000886112
0.000901333
0.000917127
0.00093349
0.000950417
0.000967899
0.000985932
0.00100451
0.00102362
0.00104326
0.00106342
0.00108409
0.00110526
0.00112692
0.00114907
0.00117168
0.00119476
0.00121828
0.00124223
0.00126661
0.0012914
0.00131658
0.00134214
0.00136807
0.00139434
0.00142094
0.00144786
0.00147508
0.00150257
0.00153033
0.00155832
0.00158654
0.00161495
0.00164354
0.00167229
0.00170116
0.00173015
0.00175923
0.00178836
0.00181753
0.00184672
0.00187589
0.00190502
0.00193408
0.00196304
0.00199189
0.00202058
0.0020491
0.0020774
0.00210548
0.00213328
0.0021608
0.00218798
0.00221482
0.00224127
0.00226731
0.00229291
0.00231803
0.00234266
0.00236675
0.00239029
0.00241324
0.00243557
0.00245726
0.00247828
0.0024986
0.0025182
0.00253705
0.00255513
0.00257241
0.00258886
0.00260448
0.00261923
0.00263309
0.00264605
0.00265809
0.00266917
0.00267932
0.00268846
0.00269666
0.00270379
0.00270997
0.00271499
0.00271909
0.00272189
0.00272381
0.00272427
0.00272409
0.00272247
0.00272112
0.00271925
0.000710509
0.000708808
0.000707981
0.000706654
0.000706278
0.000705978
0.000706592
0.000707593
0.000709414
0.000711742
0.000714803
0.000718425
0.000722725
0.000727611
0.000733147
0.000739282
0.000746049
0.000753422
0.000761416
0.000770018
0.000779233
0.000789054
0.000799483
0.000810513
0.000822145
0.000834372
0.000847195
0.000860607
0.000874605
0.000889184
0.000904341
0.00092007
0.000936365
0.000953221
0.000970632
0.000988591
0.00100709
0.00102613
0.00104568
0.00106576
0.00108635
0.00110743
0.00112901
0.00115106
0.00117359
0.00119657
0.00122
0.00124386
0.00126814
0.00129283
0.00131791
0.00134337
0.00136919
0.00139536
0.00142186
0.00144867
0.00147578
0.00150316
0.00153081
0.00155869
0.00158679
0.00161509
0.00164357
0.0016722
0.00170096
0.00172983
0.00175879
0.00178781
0.00181687
0.00184593
0.00187499
0.001904
0.00193294
0.00196179
0.00199052
0.00201909
0.00204749
0.00207568
0.00210364
0.00213133
0.00215873
0.00218581
0.00221253
0.00223887
0.0022648
0.00229029
0.00231531
0.00233983
0.00236383
0.00238726
0.00241011
0.00243235
0.00245395
0.00247487
0.00249511
0.00251462
0.00253339
0.00255138
0.00256859
0.00258497
0.00260051
0.00261519
0.002629
0.00264189
0.00265387
0.0026649
0.002675
0.0026841
0.00269225
0.00269934
0.00270551
0.00271052
0.00271466
0.00271755
0.0027197
0.00272046
0.00272086
0.00271982
0.00271924
0.00271737
0.000711908
0.000709639
0.000708814
0.000707302
0.000706986
0.000706671
0.00070734
0.000708345
0.000710188
0.000712514
0.00071558
0.000719195
0.000723491
0.000728368
0.000733895
0.000740019
0.000746775
0.000754135
0.000762116
0.000770703
0.000779904
0.000789709
0.000800122
0.000811135
0.00082275
0.00083496
0.000847763
0.000861156
0.000875135
0.000889694
0.000904831
0.000920539
0.000936813
0.000953648
0.000971037
0.000988973
0.00100745
0.00102646
0.001046
0.00106605
0.00108662
0.00110768
0.00112923
0.00115126
0.00117376
0.00119672
0.00122013
0.00124396
0.00126822
0.00129289
0.00131794
0.00134338
0.00136918
0.00139533
0.0014218
0.00144859
0.00147568
0.00150305
0.00153067
0.00155853
0.00158662
0.0016149
0.00164335
0.00167197
0.00170071
0.00172957
0.00175851
0.00178751
0.00181655
0.0018456
0.00187464
0.00190364
0.00193257
0.0019614
0.00199012
0.00201868
0.00204707
0.00207525
0.0021032
0.00213088
0.00215827
0.00218534
0.00221206
0.00223839
0.00226432
0.0022898
0.00231481
0.00233933
0.00236332
0.00238675
0.00240959
0.00243183
0.00245342
0.00247435
0.00249458
0.00251409
0.00253285
0.00255085
0.00256805
0.00258443
0.00259997
0.00261465
0.00262845
0.00264134
0.00265333
0.00266436
0.00267446
0.00268355
0.00269171
0.0026988
0.00270498
0.00270999
0.00271416
0.00271704
0.00271925
0.00271998
0.00272046
0.00271923
0.00271865
0.002716
0.000713709
0.000710958
0.000710318
0.000708802
0.000708696
0.000708461
0.00070926
0.000710307
0.0007122
0.000714532
0.000717606
0.000721209
0.000725495
0.000730352
0.000735861
0.000741961
0.000748693
0.000756025
0.000763978
0.000772535
0.000781704
0.000791476
0.000801854
0.000812831
0.000824408
0.000836579
0.000849343
0.000862695
0.000876631
0.000891146
0.000906238
0.0009219
0.000938127
0.000954913
0.000972253
0.00099014
0.00100857
0.00102753
0.00104701
0.00106701
0.00108752
0.00110853
0.00113003
0.00115201
0.00117445
0.00119735
0.0012207
0.00124448
0.00126868
0.00129329
0.00131829
0.00134367
0.00136941
0.0013955
0.00142192
0.00144866
0.00147569
0.001503
0.00153056
0.00155837
0.0015864
0.00161462
0.00164303
0.00167159
0.00170028
0.00172908
0.00175797
0.00178692
0.00181591
0.00184491
0.0018739
0.00190285
0.00193174
0.00196053
0.0019892
0.00201772
0.00204606
0.0020742
0.00210211
0.00212975
0.0021571
0.00218413
0.00221081
0.0022371
0.00226299
0.00228844
0.00231342
0.00233791
0.00236186
0.00238527
0.00240808
0.00243029
0.00245186
0.00247276
0.00249296
0.00251245
0.00253119
0.00254916
0.00256634
0.0025827
0.00259823
0.00261289
0.00262668
0.00263955
0.00265152
0.00266254
0.00267263
0.00268171
0.00268987
0.00269695
0.00270314
0.00270817
0.0027124
0.00271532
0.00271767
0.00271849
0.00271921
0.00271798
0.00271757
0.00271435
0.000714602
0.000711318
0.00071062
0.000708887
0.000708782
0.000708474
0.000709292
0.00071032
0.000712229
0.000714553
0.000717631
0.000721226
0.000725508
0.000730356
0.000735855
0.000741943
0.000748663
0.000755982
0.000763922
0.000772463
0.000781618
0.000791373
0.000801735
0.000812696
0.000824255
0.000836409
0.000849155
0.000862488
0.000876407
0.000890904
0.000905978
0.000921621
0.00093783
0.000954599
0.000971921
0.00098979
0.0010082
0.00102714
0.00104661
0.0010666
0.00108709
0.00110808
0.00112957
0.00115153
0.00117396
0.00119685
0.00122019
0.00124396
0.00126815
0.00129275
0.00131774
0.00134312
0.00136885
0.00139494
0.00142136
0.00144809
0.00147512
0.00150243
0.00153
0.00155781
0.00158584
0.00161407
0.00164249
0.00167105
0.00169976
0.00172857
0.00175748
0.00178644
0.00181545
0.00184447
0.00187347
0.00190244
0.00193135
0.00196016
0.00198886
0.0020174
0.00204577
0.00207394
0.00210187
0.00212955
0.00215693
0.00218399
0.0022107
0.00223703
0.00226295
0.00228843
0.00231345
0.00233797
0.00236196
0.00238539
0.00240825
0.00243049
0.00245209
0.00247302
0.00249326
0.00251278
0.00253155
0.00254956
0.00256677
0.00258316
0.00259871
0.0026134
0.00262721
0.00264011
0.0026521
0.00266314
0.00267325
0.00268235
0.00269053
0.00269763
0.00270385
0.00270888
0.00271314
0.00271605
0.00271842
0.00271917
0.00271988
0.00271839
0.00271789
0.00271409
0.000715168
0.000711567
0.000710882
0.000709056
0.000709018
0.000708702
0.000709573
0.000710606
0.000712541
0.000714863
0.000717947
0.000721532
0.000725808
0.000730641
0.000736128
0.000742198
0.000748901
0.0007562
0.000764119
0.000772639
0.000781771
0.000791504
0.000801842
0.000812777
0.000824312
0.00083644
0.00084916
0.000862466
0.000876357
0.000890828
0.000905874
0.00092149
0.000937671
0.000954412
0.000971706
0.000989548
0.00100793
0.00102685
0.00104629
0.00106625
0.00108671
0.00110768
0.00112914
0.00115108
0.00117349
0.00119636
0.00121967
0.00124342
0.00126759
0.00129217
0.00131715
0.00134251
0.00136823
0.0013943
0.00142071
0.00144743
0.00147445
0.00150175
0.00152932
0.00155712
0.00158515
0.00161338
0.0016418
0.00167037
0.00169907
0.00172789
0.0017568
0.00178578
0.0018148
0.00184383
0.00187285
0.00190184
0.00193076
0.00195959
0.00198831
0.00201687
0.00204527
0.00207346
0.00210142
0.00212912
0.00215653
0.00218362
0.00221036
0.00223672
0.00226268
0.00228819
0.00231324
0.00233779
0.00236182
0.00238529
0.00240817
0.00243045
0.00245208
0.00247305
0.00249333
0.00251288
0.00253168
0.00254972
0.00256696
0.00258338
0.00259896
0.00261368
0.00262752
0.00264044
0.00265246
0.00266352
0.00267365
0.00268278
0.00269098
0.0026981
0.00270434
0.0027094
0.0027137
0.00271663
0.00271907
0.00271981
0.0027206
0.002719
0.00271852
0.0027144
0.000714705
0.000710867
0.000710124
0.000708155
0.00070809
0.000707708
0.000708574
0.000709579
0.000711514
0.000713823
0.000716905
0.000720481
0.000724752
0.000729575
0.000735053
0.000741113
0.000747805
0.000755093
0.000763001
0.000771508
0.000780628
0.000790348
0.000800673
0.000811596
0.000823118
0.000835234
0.000847941
0.000861236
0.000875116
0.000889575
0.00090461
0.000920216
0.000936388
0.000953121
0.000970407
0.000988242
0.00100662
0.00102553
0.00104497
0.00106492
0.00108539
0.00110636
0.00112782
0.00114976
0.00117218
0.00119505
0.00121837
0.00124213
0.00126632
0.00129091
0.00131591
0.00134128
0.00136702
0.00139312
0.00141955
0.0014463
0.00147335
0.00150068
0.00152828
0.00155612
0.00158419
0.00161246
0.00164091
0.00166953
0.00169828
0.00172715
0.00175612
0.00178515
0.00181422
0.00184331
0.0018724
0.00190144
0.00193043
0.00195933
0.00198811
0.00201675
0.00204522
0.00207349
0.00210152
0.0021293
0.00215678
0.00218395
0.00221077
0.00223721
0.00226325
0.00228885
0.00231397
0.00233861
0.00236271
0.00238626
0.00240923
0.00243158
0.0024533
0.00247434
0.00249469
0.00251431
0.00253319
0.0025513
0.0025686
0.00258509
0.00260073
0.00261551
0.0026294
0.00264238
0.00265445
0.00266556
0.00267574
0.0026849
0.00269314
0.00270029
0.00270657
0.00271164
0.00271596
0.00271889
0.00272133
0.00272201
0.00272277
0.00272102
0.00272047
0.0027161
0.000713677
0.00070973
0.000708975
0.000706943
0.000706887
0.00070648
0.000707358
0.000708353
0.000710294
0.000712595
0.000715677
0.000719243
0.000723507
0.000728319
0.000733787
0.000739834
0.000746515
0.000753788
0.000761683
0.000770176
0.000779281
0.000788987
0.000799297
0.000810206
0.000821713
0.000833814
0.000846508
0.000859789
0.000873655
0.000888102
0.000903125
0.000918719
0.000934881
0.000951603
0.000968881
0.000986708
0.00100508
0.00102398
0.00104342
0.00106337
0.00108384
0.00110481
0.00112627
0.00114821
0.00117063
0.00119352
0.00121685
0.00124062
0.00126482
0.00128943
0.00131444
0.00133984
0.0013656
0.00139172
0.00141818
0.00144496
0.00147204
0.00149941
0.00152705
0.00155493
0.00158304
0.00161136
0.00163987
0.00166854
0.00169735
0.00172628
0.0017553
0.00178439
0.00181353
0.00184269
0.00187185
0.00190097
0.00193003
0.00195901
0.00198787
0.00201659
0.00204514
0.0020735
0.00210162
0.00212948
0.00215706
0.00218432
0.00221123
0.00223777
0.00226389
0.00228958
0.00231481
0.00233953
0.00236373
0.00238738
0.00241044
0.00243288
0.00245468
0.00247581
0.00249625
0.00251596
0.00253492
0.0025531
0.00257049
0.00258705
0.00260277
0.00261761
0.00263157
0.00264461
0.00265674
0.0026679
0.00267813
0.00268734
0.00269563
0.00270281
0.00270913
0.00271423
0.00271859
0.00272153
0.00272401
0.00272468
0.00272545
0.00272364
0.00272308
0.0027186
0.000711748
0.000707721
0.000706935
0.00070483
0.000704747
0.000704294
0.000705157
0.000706126
0.00070806
0.000710346
0.000713421
0.000716977
0.000721235
0.000726038
0.000731499
0.000737537
0.000744209
0.000751475
0.000759361
0.000767846
0.000776944
0.000786642
0.000796945
0.000807847
0.000819349
0.000831445
0.000844134
0.000857412
0.000871275
0.000885721
0.000900743
0.000916339
0.000932503
0.000949229
0.000966512
0.000984346
0.00100272
0.00102164
0.00104109
0.00106106
0.00108154
0.00110253
0.00112401
0.00114598
0.00116842
0.00119134
0.0012147
0.00123851
0.00126274
0.00128739
0.00131245
0.00133789
0.0013637
0.00138988
0.00141639
0.00144323
0.00147037
0.00149781
0.00152551
0.00155347
0.00158166
0.00161005
0.00163864
0.0016674
0.0016963
0.00172532
0.00175443
0.00178363
0.00181287
0.00184213
0.00187139
0.00190063
0.0019298
0.0019589
0.00198788
0.00201672
0.00204539
0.00207387
0.00210211
0.00213011
0.00215781
0.0021852
0.00221224
0.00223891
0.00226517
0.00229099
0.00231635
0.0023412
0.00236553
0.0023893
0.00241249
0.00243506
0.00245699
0.00247824
0.0024988
0.00251862
0.0025377
0.00255599
0.00257349
0.00259015
0.00260596
0.0026209
0.00263495
0.00264807
0.00266028
0.00267151
0.00268182
0.00269108
0.00269943
0.00270666
0.00271303
0.00271815
0.00272255
0.00272549
0.00272797
0.0027286
0.00272936
0.00272747
0.00272688
0.00272231
0.000709208
0.000705146
0.00070435
0.000702211
0.000702121
0.000701646
0.000702505
0.000703461
0.00070539
0.000707665
0.000710735
0.000714281
0.000718533
0.000723327
0.00072878
0.000734809
0.000741474
0.000748731
0.000756609
0.000765086
0.000774177
0.000783868
0.000794165
0.000805061
0.000816558
0.00082865
0.000841336
0.000854612
0.000868475
0.000882921
0.000897945
0.000913544
0.000929713
0.000946446
0.000963738
0.000981582
0.000999973
0.0010189
0.00103837
0.00105835
0.00107886
0.00109987
0.00112138
0.00114338
0.00116586
0.00118881
0.00121221
0.00123606
0.00126034
0.00128504
0.00131014
0.00133564
0.00136151
0.00138775
0.00141433
0.00144124
0.00146845
0.00149597
0.00152375
0.00155179
0.00158007
0.00160856
0.00163724
0.0016661
0.0016951
0.00172423
0.00175346
0.00178277
0.00181213
0.00184151
0.0018709
0.00190026
0.00192957
0.00195879
0.00198791
0.00201689
0.00204571
0.00207433
0.00210272
0.00213086
0.00215871
0.00218625
0.00221345
0.00224026
0.00226667
0.00229265
0.00231815
0.00234316
0.00236764
0.00239156
0.0024149
0.00243761
0.00245968
0.00248108
0.00250177
0.00252173
0.00254094
0.00255936
0.00257697
0.00259375
0.00260968
0.00262472
0.00263888
0.0026521
0.0026644
0.00267571
0.0026861
0.00269543
0.00270385
0.00271114
0.00271755
0.00272272
0.00272715
0.00273011
0.00273263
0.00273325
0.00273401
0.00273209
0.00273149
0.00272688
0.000705875
0.000701778
0.000700965
0.000698788
0.000698677
0.000698172
0.000699015
0.000699949
0.000701867
0.000704129
0.000707191
0.000710727
0.000714972
0.000719758
0.000725205
0.000731228
0.000737888
0.00074514
0.000753014
0.000761488
0.000770576
0.000780265
0.000790562
0.000801459
0.000812957
0.000825052
0.000837742
0.000851024
0.000864894
0.000879349
0.000894385
0.000909997
0.00092618
0.000942931
0.000960242
0.000978108
0.000996524
0.00101548
0.00103497
0.001055
0.00107554
0.00109659
0.00111814
0.00114018
0.00116271
0.00118571
0.00120917
0.00123308
0.00125742
0.00128219
0.00130737
0.00133294
0.00135889
0.00138521
0.00141188
0.00143888
0.0014662
0.00149381
0.0015217
0.00154986
0.00157825
0.00160686
0.00163566
0.00166465
0.00169378
0.00172305
0.00175242
0.00178187
0.00181138
0.00184092
0.00187046
0.00189998
0.00192945
0.00195884
0.00198813
0.00201728
0.00204627
0.00207507
0.00210364
0.00213196
0.00216
0.00218772
0.0022151
0.0022421
0.0022687
0.00229485
0.00232054
0.00234574
0.0023704
0.0023945
0.00241801
0.0024409
0.00246315
0.00248471
0.00250557
0.0025257
0.00254506
0.00256363
0.0025814
0.00259832
0.00261438
0.00262956
0.00264384
0.00265717
0.00266958
0.002681
0.00269148
0.0027009
0.00270939
0.00271674
0.00272322
0.00272843
0.0027329
0.00273588
0.00273841
0.00273902
0.00273978
0.00273782
0.00273721
0.00273254
0.000701906
0.000697788
0.000696965
0.000694765
0.000694644
0.000694121
0.000694954
0.000695875
0.000697785
0.000700035
0.00070309
0.000706617
0.000710856
0.000715635
0.000721077
0.000727094
0.000733749
0.000740997
0.000748869
0.00075734
0.000766427
0.000776117
0.000786415
0.000797314
0.000808817
0.000820917
0.000833615
0.000846905
0.000860787
0.000875254
0.000890305
0.000905934
0.000922138
0.00093891
0.000956246
0.00097414
0.000992586
0.00101158
0.00103111
0.00105117
0.00107175
0.00109285
0.00111445
0.00113655
0.00115914
0.0011822
0.00120572
0.0012297
0.00125412
0.00127897
0.00130423
0.00132989
0.00135594
0.00138235
0.00140912
0.00143623
0.00146366
0.00149139
0.00151941
0.00154768
0.00157621
0.00160495
0.0016339
0.00166303
0.00169232
0.00172174
0.00175127
0.00178089
0.00181056
0.00184028
0.00187
0.0018997
0.00192935
0.00195894
0.00198842
0.00201776
0.00204695
0.00207595
0.00210472
0.00213325
0.00216149
0.00218942
0.00221701
0.00224422
0.00227103
0.0022974
0.0023233
0.00234869
0.00237356
0.00239787
0.00242158
0.00244468
0.00246711
0.00248887
0.00250992
0.00253023
0.00254977
0.00256852
0.00258645
0.00260353
0.00261975
0.00263507
0.00264949
0.00266296
0.00267549
0.00268702
0.0026976
0.00270712
0.0027157
0.00272313
0.00272968
0.00273494
0.00273946
0.00274247
0.00274503
0.00274565
0.00274641
0.00274443
0.00274381
0.00273911
0.0006972
0.000693055
0.000692218
0.000689992
0.000689855
0.000689309
0.000690128
0.000691031
0.000692929
0.000695167
0.000698214
0.000701732
0.000705964
0.000710737
0.000716175
0.000722189
0.000728842
0.000736088
0.00074396
0.000752433
0.000761523
0.000771216
0.00078152
0.000792427
0.000803939
0.00081605
0.000828761
0.000842067
0.000855966
0.000870454
0.000885527
0.000901181
0.000917413
0.000934216
0.000951586
0.000969517
0.000988004
0.00100704
0.00102662
0.00104673
0.00106737
0.00108852
0.00111019
0.00113236
0.00115502
0.00117816
0.00120176
0.00122583
0.00125034
0.00127528
0.00130064
0.00132641
0.00135257
0.0013791
0.001406
0.00143323
0.00146079
0.00148866
0.00151682
0.00154525
0.00157393
0.00160283
0.00163195
0.00166125
0.00169071
0.00172032
0.00175003
0.00177984
0.00180972
0.00183963
0.00186956
0.00189947
0.00192934
0.00195915
0.00198885
0.00201842
0.00204784
0.00207707
0.00210608
0.00213484
0.00216332
0.00219149
0.00221932
0.00224677
0.00227382
0.00230043
0.00232657
0.0023522
0.00237731
0.00240185
0.0024258
0.00244912
0.00247178
0.00249376
0.00251502
0.00253554
0.00255529
0.00257423
0.00259236
0.00260962
0.00262602
0.00264151
0.00265609
0.0026697
0.00268238
0.00269404
0.00270475
0.00271437
0.00272305
0.00273057
0.00273719
0.00274252
0.00274708
0.00275013
0.00275271
0.00275333
0.0027541
0.0027521
0.00275147
0.00274672
0.000691838
0.000687668
0.000686822
0.000684574
0.000684426
0.000683862
0.00068467
0.00068556
0.000687449
0.000689676
0.000692715
0.000696225
0.000700452
0.00070522
0.000710654
0.000716665
0.000723317
0.000730564
0.000738437
0.000746913
0.000756008
0.000765707
0.00077602
0.000786937
0.000798461
0.000810586
0.000823314
0.000836639
0.00085056
0.000865072
0.000880173
0.000895857
0.000912122
0.000928962
0.000946372
0.000964347
0.000982882
0.00100197
0.0010216
0.00104177
0.00106248
0.0010837
0.00110544
0.00112769
0.00115043
0.00117365
0.00119735
0.00122152
0.00124613
0.00127118
0.00129666
0.00132255
0.00134883
0.0013755
0.00140253
0.00142991
0.00145762
0.00148564
0.00151397
0.00154256
0.00157141
0.0016005
0.0016298
0.00165929
0.00168896
0.00171876
0.00174869
0.00177871
0.00180881
0.00183895
0.00186911
0.00189925
0.00192937
0.00195941
0.00198936
0.00201919
0.00204886
0.00207835
0.00210762
0.00213664
0.00216539
0.00219383
0.00222192
0.00224964
0.00227696
0.00230383
0.00233024
0.00235614
0.00238151
0.00240632
0.00243052
0.00245409
0.00247701
0.00249923
0.00252073
0.00254149
0.00256146
0.00258063
0.00259896
0.00261644
0.00263303
0.00264871
0.00266346
0.00267725
0.00269008
0.00270189
0.00271273
0.00272247
0.00273126
0.00273888
0.00274558
0.00275098
0.00275561
0.00275869
0.00276131
0.00276194
0.00276272
0.00276071
0.00276007
0.00275528
0.000685764
0.000681564
0.000680706
0.000678432
0.00067827
0.000677686
0.000678482
0.000679355
0.000681233
0.000683449
0.00068648
0.000689983
0.000694204
0.000698968
0.0007044
0.00071041
0.000717062
0.000724311
0.000732189
0.000740671
0.000749773
0.000759483
0.000769807
0.000780738
0.000792278
0.000804423
0.000817173
0.000830522
0.000844471
0.000859013
0.000874148
0.00088987
0.000906175
0.00092306
0.000940518
0.000958546
0.000977136
0.000996284
0.00101598
0.00103622
0.001057
0.00107831
0.00110013
0.00112247
0.0011453
0.00116863
0.00119244
0.00121671
0.00124145
0.00126662
0.00129223
0.00131826
0.00134468
0.0013715
0.00139869
0.00142623
0.00145411
0.00148231
0.00151082
0.0015396
0.00156865
0.00159794
0.00162745
0.00165716
0.00168704
0.00171708
0.00174724
0.00177751
0.00180785
0.00183824
0.00186866
0.00189907
0.00192945
0.00195977
0.00198999
0.0020201
0.00205006
0.00207983
0.0021094
0.00213872
0.00216776
0.00219649
0.00222489
0.00225291
0.00228052
0.0023077
0.0023344
0.0023606
0.00238626
0.00241136
0.00243585
0.00245971
0.0024829
0.0025054
0.00252717
0.00254818
0.00256841
0.00258782
0.0026064
0.0026241
0.00264091
0.00265679
0.00267175
0.00268572
0.00269873
0.0027107
0.00272168
0.00273157
0.00274048
0.0027482
0.002755
0.00276048
0.00276517
0.0027683
0.00277095
0.0027716
0.00277239
0.00277035
0.00276971
0.00276487
0.000679018
0.000674787
0.000673918
0.000671621
0.000671447
0.000670844
0.000671628
0.000672488
0.000674357
0.000676562
0.000679585
0.000683081
0.000687298
0.000692058
0.000697489
0.000703499
0.000710153
0.000717406
0.000725289
0.000733779
0.000742891
0.000752613
0.000762952
0.0007739
0.00078546
0.000797628
0.000810403
0.000823781
0.000837761
0.000852339
0.000867512
0.000883276
0.000899628
0.000916563
0.000934077
0.000952163
0.000970818
0.000990034
0.00100981
0.00103013
0.00105099
0.00107238
0.0010943
0.00111674
0.00113968
0.00116312
0.00118705
0.00121145
0.00123631
0.00126163
0.00128738
0.00131355
0.00134014
0.00136712
0.00139448
0.00142221
0.00145027
0.00147867
0.00150738
0.00153637
0.00156563
0.00159515
0.00162489
0.00165484
0.00168496
0.00171525
0.00174567
0.0017762
0.00180682
0.00183749
0.00186818
0.00189889
0.00192956
0.00196018
0.00199071
0.00202113
0.0020514
0.00208149
0.00211137
0.00214101
0.00217038
0.00219944
0.00222816
0.00225651
0.00228446
0.00231196
0.00233899
0.00236552
0.0023915
0.00241691
0.00244172
0.00246589
0.00248939
0.00251219
0.00253425
0.00255555
0.00257606
0.00259574
0.00261457
0.00263252
0.00264958
0.00266569
0.00268086
0.00269504
0.00270824
0.00272038
0.00273154
0.00274157
0.00275062
0.00275846
0.00276537
0.00277092
0.00277569
0.00277887
0.00278157
0.00278223
0.00278304
0.00278098
0.00278034
0.00277544
0.000671569
0.000667303
0.000666422
0.000664098
0.00066391
0.000663287
0.000664059
0.000664903
0.000666761
0.000668956
0.000671972
0.000675461
0.000679674
0.000684431
0.000689861
0.000695872
0.000702531
0.000709789
0.00071768
0.000726179
0.000735304
0.000745041
0.000755398
0.000766366
0.00077795
0.000790144
0.000802949
0.000816361
0.000830378
0.000844996
0.000860214
0.000876027
0.000892432
0.000909425
0.000927
0.000945154
0.000963881
0.000983174
0.00100303
0.00102344
0.00104439
0.00106589
0.00108791
0.00111046
0.00113352
0.00115709
0.00118114
0.00120568
0.00123069
0.00125616
0.00128207
0.00130842
0.00133518
0.00136234
0.00138989
0.00141782
0.00144609
0.0014747
0.00150363
0.00153285
0.00156235
0.00159211
0.00162211
0.00165232
0.00168271
0.00171328
0.00174398
0.0017748
0.00180571
0.00183669
0.0018677
0.00189871
0.00192971
0.00196066
0.00199152
0.00202228
0.00205289
0.00208333
0.00211357
0.00214356
0.00217328
0.0022027
0.00223178
0.00226049
0.0022888
0.00231666
0.00234405
0.00237093
0.00239727
0.00242303
0.00244818
0.00247269
0.00249653
0.00251965
0.00254204
0.00256365
0.00258447
0.00260444
0.00262356
0.00264179
0.00265911
0.00267547
0.00269088
0.00270528
0.00271869
0.00273103
0.00274237
0.00275256
0.00276176
0.00276973
0.00277675
0.0027824
0.00278725
0.00279049
0.00279323
0.00279391
0.00279474
0.00279266
0.00279201
0.00278705
0.000663437
0.000659134
0.00065824
0.000655889
0.000655688
0.000655045
0.000655805
0.000656634
0.000658483
0.000660667
0.000663676
0.000667159
0.000671369
0.000676124
0.000681554
0.000687568
0.000694231
0.000701495
0.000709396
0.000717907
0.000727047
0.000736801
0.000747178
0.00075817
0.000769781
0.000782005
0.000794843
0.000808292
0.00082235
0.000837014
0.000852282
0.000868149
0.000884613
0.000901669
0.000919313
0.00093754
0.000956346
0.000975724
0.000995669
0.00101617
0.00103723
0.00105884
0.00108098
0.00110365
0.00112684
0.00115054
0.00117474
0.00119943
0.0012246
0.00125023
0.00127632
0.00130285
0.0013298
0.00135716
0.00138492
0.00141306
0.00144156
0.0014704
0.00149957
0.00152904
0.0015588
0.00158883
0.0016191
0.00164959
0.00168028
0.00171114
0.00174215
0.00177329
0.00180452
0.00183583
0.00186717
0.00189854
0.00192988
0.00196119
0.00199242
0.00202354
0.00205452
0.00208534
0.00211595
0.00214633
0.00217644
0.00220625
0.00223572
0.00226482
0.00229351
0.00232177
0.00234955
0.00237681
0.00240354
0.00242968
0.00245521
0.00248009
0.00250429
0.00252777
0.00255051
0.00257246
0.0025936
0.0026139
0.00263333
0.00265186
0.00266946
0.0026861
0.00270176
0.00271641
0.00273005
0.0027426
0.00275413
0.00276451
0.00277386
0.00278197
0.00278912
0.00279488
0.00279982
0.00280312
0.00280591
0.00280662
0.00280746
0.00280536
0.00280471
0.00279969
0.000654603
0.00065026
0.000649352
0.000646971
0.000646756
0.000646091
0.000646838
0.000647652
0.000649491
0.000651664
0.000654667
0.000658143
0.00066235
0.000667103
0.000672535
0.000678551
0.00068522
0.000692493
0.000700405
0.000708931
0.000718087
0.000727861
0.000738261
0.000749279
0.00076092
0.000773178
0.000786054
0.000799544
0.000813648
0.000828362
0.000843685
0.000859611
0.00087614
0.000893266
0.000910985
0.000929293
0.000948186
0.000967657
0.0009877
0.00100831
0.00102948
0.0010512
0.00107347
0.00109628
0.00111961
0.00114346
0.00116781
0.00119267
0.00121801
0.00124383
0.0012701
0.00129683
0.00132399
0.00135156
0.00137955
0.00140792
0.00143666
0.00146575
0.00149518
0.00152493
0.00155497
0.00158528
0.00161585
0.00164664
0.00167765
0.00170884
0.00174018
0.00177166
0.00180324
0.0018349
0.00186662
0.00189835
0.00193008
0.00196177
0.00199339
0.00202491
0.0020563
0.00208752
0.00211855
0.00214934
0.00217987
0.0022101
0.00223999
0.00226951
0.00229863
0.0023273
0.0023555
0.00238319
0.00241033
0.00243688
0.00246282
0.0024881
0.00251269
0.00253656
0.00255968
0.002582
0.00260351
0.00262415
0.00264392
0.00266277
0.00268068
0.00269761
0.00271356
0.00272847
0.00274236
0.00275514
0.00276688
0.00277745
0.00278699
0.00279525
0.00280253
0.0028084
0.00281344
0.0028168
0.00281966
0.00282038
0.00282125
0.00281913
0.00281847
0.00281338
0.000645076
0.000640689
0.000639768
0.000637356
0.000637126
0.000636439
0.000637174
0.000637972
0.0006398
0.000641963
0.000644959
0.00064843
0.000652634
0.000657386
0.00066282
0.00066884
0.000675516
0.000682799
0.000690723
0.000699264
0.000708439
0.000718235
0.00072866
0.000739708
0.000751381
0.000763676
0.000776593
0.000790129
0.000804282
0.000819051
0.000834433
0.000850425
0.000867023
0.000884224
0.000902025
0.000920421
0.000939407
0.000958978
0.000979129
0.000999853
0.00102114
0.001043
0.0010654
0.00108835
0.00111183
0.00113584
0.00116036
0.0011854
0.00121092
0.00123693
0.00126341
0.00129035
0.00131773
0.00134554
0.00137376
0.00140239
0.00143139
0.00146075
0.00149046
0.0015205
0.00155084
0.00158146
0.00161235
0.00164347
0.00167482
0.00170635
0.00173805
0.0017699
0.00180186
0.0018339
0.00186601
0.00189814
0.00193028
0.00196238
0.00199442
0.00202637
0.00205819
0.00208985
0.00212132
0.00215256
0.00218354
0.00221422
0.00224457
0.00227455
0.00230412
0.00233325
0.0023619
0.00239004
0.00241763
0.00244463
0.002471
0.00249671
0.00252173
0.00254602
0.00256954
0.00259227
0.00261416
0.00263518
0.00265531
0.00267451
0.00269275
0.00271001
0.00272626
0.00274145
0.00275561
0.00276864
0.00278061
0.00279139
0.00280111
0.00280954
0.00281697
0.00282296
0.0028281
0.00283154
0.00283446
0.00283522
0.00283611
0.00283396
0.00283329
0.00282813
0.000634843
0.000630411
0.000629474
0.000627029
0.000626784
0.000626073
0.000626795
0.000627576
0.000629394
0.000631546
0.000634535
0.000638
0.000642201
0.000646953
0.000652389
0.000658415
0.000665099
0.000672392
0.00068033
0.000688888
0.000698084
0.000707904
0.000718357
0.000729436
0.000741145
0.00075348
0.000766441
0.000780026
0.000794234
0.000809062
0.000824508
0.000840569
0.000857243
0.000874526
0.000892415
0.000910904
0.000929991
0.00094967
0.000969935
0.000990782
0.0010122
0.00103419
0.00105674
0.00107984
0.00110349
0.00112767
0.00115237
0.00117759
0.00120332
0.00122954
0.00125624
0.0012834
0.00131102
0.00133908
0.00136756
0.00139645
0.00142573
0.00145538
0.00148539
0.00151574
0.0015464
0.00157735
0.00160858
0.00164006
0.00167177
0.00170368
0.00173576
0.001768
0.00180036
0.00183282
0.00186534
0.0018979
0.00193048
0.00196302
0.00199552
0.00202793
0.00206021
0.00209234
0.00212429
0.00215601
0.00218747
0.00221864
0.00224947
0.00227994
0.00231
0.00233962
0.00236876
0.00239738
0.00242545
0.00245292
0.00247977
0.00250595
0.00253142
0.00255616
0.00258012
0.00260327
0.00262558
0.00264701
0.00266753
0.0026871
0.00270571
0.00272331
0.00273988
0.00275538
0.00276983
0.00278313
0.00279535
0.00280635
0.00281628
0.00282489
0.00283248
0.0028386
0.00284385
0.00284737
0.00285036
0.00285114
0.00285206
0.00284989
0.00284921
0.00284396
0.000623908
0.000619426
0.000618475
0.000615994
0.000615733
0.000614998
0.000615706
0.00061647
0.000618277
0.000620418
0.0006234
0.000626859
0.000631059
0.00063581
0.000641249
0.00064728
0.000653973
0.000661278
0.000669232
0.000677808
0.000687026
0.000696872
0.000707355
0.000718468
0.000730215
0.000742593
0.000755602
0.000769239
0.000783504
0.000798395
0.00081391
0.000830046
0.0008468
0.00086417
0.000882152
0.000900742
0.000919936
0.00093973
0.000960117
0.000981094
0.00100265
0.00102479
0.00104749
0.00107076
0.00109458
0.00111894
0.00114384
0.00116926
0.00119519
0.00122163
0.00124856
0.00127597
0.00130384
0.00133216
0.00136092
0.00139009
0.00141967
0.00144963
0.00147996
0.00151064
0.00154164
0.00157295
0.00160454
0.0016364
0.00166849
0.0017008
0.00173329
0.00176595
0.00179873
0.00183163
0.0018646
0.00189763
0.00193066
0.00196369
0.00199666
0.00202956
0.00206234
0.00209498
0.00212743