/*--------------------------------*- C++ -*----------------------------------*\
| =========                 |                                                 |
| \\      /  F ield         | OpenFOAM: The Open Source CFD Toolbox           |
|  \\    /   O peration     | Version:  2406                                  |
|   \\  /    A nd           | Website:  www.openfoam.com                      |
|    \\/     M anipulation  |                                                 |
\*---------------------------------------------------------------------------*/
FoamFile
{
    version     2.0;
    format      ascii;
    arch        "LSB;label=32;scalar=64";
    class       surfaceScalarField;
    location    "1.05";
    object      phi;
}
// * * * * * * * * * * * * * * * * * * * * * * * * * * * * * * * * * * * * * //

dimensions      [0 3 -1 0 0 0 0];

oriented        oriented;

internalField   nonuniform List<scalar> 
28560
(
2.43421e-09
-2.43496e-09
-2.98968e-09
5.61947e-09
-1.68052e-08
1.38591e-08
-3.70877e-08
2.06489e-08
-6.14851e-08
2.46008e-08
-8.80129e-08
2.69117e-08
-1.15588e-07
2.78507e-08
-1.43442e-07
2.82328e-08
-1.71346e-07
2.82171e-08
-1.991e-07
2.81195e-08
-2.26715e-07
2.79409e-08
-2.54137e-07
2.77757e-08
-2.81397e-07
2.759e-08
-3.08467e-07
2.74127e-08
-3.35357e-07
2.72197e-08
-3.62044e-07
2.70229e-08
-3.88527e-07
2.68098e-08
-4.14786e-07
2.65865e-08
-4.40811e-07
2.63469e-08
-4.66585e-07
2.60944e-08
-4.92095e-07
2.58257e-08
-5.17325e-07
2.55429e-08
-5.42261e-07
2.52442e-08
-5.66886e-07
2.49306e-08
-5.91187e-07
2.46014e-08
-6.15148e-07
2.4257e-08
-6.38754e-07
2.38971e-08
-6.61989e-07
2.3522e-08
-6.84839e-07
2.31314e-08
-7.07288e-07
2.27255e-08
-7.29322e-07
2.23042e-08
-7.50924e-07
2.18677e-08
-7.7208e-07
2.14159e-08
-7.92775e-07
2.09489e-08
-8.12994e-07
2.04667e-08
-8.32722e-07
1.99695e-08
-8.51945e-07
1.94572e-08
-8.70647e-07
1.893e-08
-8.88813e-07
1.83879e-08
-9.0643e-07
1.7831e-08
-9.23482e-07
1.72594e-08
-9.39956e-07
1.66732e-08
-9.55836e-07
1.60725e-08
-9.71109e-07
1.54575e-08
-9.85761e-07
1.48283e-08
-9.99777e-07
1.41849e-08
-1.01314e-06
1.35277e-08
-1.02585e-06
1.28567e-08
-1.03788e-06
1.21722e-08
-1.04922e-06
1.14743e-08
-1.05985e-06
1.07633e-08
-1.06978e-06
1.00393e-08
-1.07897e-06
9.30268e-09
-1.08743e-06
8.55366e-09
-1.09513e-06
7.79252e-09
-1.10207e-06
7.01957e-09
-1.10823e-06
6.23513e-09
-1.11361e-06
5.43955e-09
-1.1182e-06
4.63321e-09
-1.12197e-06
3.81648e-09
-1.12493e-06
2.98979e-09
-1.12706e-06
2.15358e-09
-1.12836e-06
1.30832e-09
-1.12882e-06
4.54497e-10
-1.12842e-06
-4.07363e-10
-1.12716e-06
-1.27671e-09
-1.12504e-06
-2.15297e-09
-1.12205e-06
-3.03554e-09
-1.11818e-06
-3.92378e-09
-1.11343e-06
-4.81701e-09
-1.10779e-06
-5.71456e-09
-1.10126e-06
-6.61569e-09
-1.09383e-06
-7.51964e-09
-1.08551e-06
-8.42563e-09
-1.0763e-06
-9.33284e-09
-1.06619e-06
-1.02404e-08
-1.05518e-06
-1.11475e-08
-1.04327e-06
-1.20532e-08
-1.03048e-06
-1.29565e-08
-1.01679e-06
-1.38566e-08
-1.00222e-06
-1.47524e-08
-9.86774e-07
-1.56428e-08
-9.7045e-07
-1.6527e-08
-9.53259e-07
-1.74038e-08
-9.35211e-07
-1.82722e-08
-9.16314e-07
-1.9131e-08
-8.96578e-07
-1.99792e-08
-8.76016e-07
-2.08156e-08
-8.5464e-07
-2.16391e-08
-8.32464e-07
-2.24486e-08
-8.09503e-07
-2.3243e-08
-7.85773e-07
-2.40211e-08
-7.61292e-07
-2.47817e-08
-7.36077e-07
-2.55238e-08
-7.10148e-07
-2.62462e-08
-6.83525e-07
-2.69477e-08
-6.56231e-07
-2.76276e-08
-6.28288e-07
-2.82842e-08
-5.99719e-07
-2.89173e-08
-5.70549e-07
-2.95249e-08
-5.40804e-07
-3.01076e-08
-5.10509e-07
-3.06625e-08
-4.79694e-07
-3.11919e-08
-4.4838e-07
-3.16913e-08
-4.16604e-07
-3.21664e-08
-3.84381e-07
-3.26093e-08
-3.51751e-07
-3.30332e-08
-3.18718e-07
-3.34229e-08
-2.85333e-07
-3.38041e-08
-2.5158e-07
-3.41411e-08
-2.17547e-07
-3.447e-08
-1.83242e-07
-3.46794e-08
-1.48928e-07
-3.47702e-08
-1.14875e-07
-3.43855e-08
-8.19758e-08
-3.33652e-08
-5.14184e-08
-3.07914e-08
-2.5484e-08
-2.63722e-08
-6.92103e-09
-1.86243e-08
1.60232e-09
-8.88845e-09
1.60199e-09
-5.63235e-09
3.00075e-09
-2.84825e-08
2.84705e-08
-6.81373e-08
5.29736e-08
-1.20745e-07
7.29532e-08
-1.82468e-07
8.5684e-08
-2.49456e-07
9.34035e-08
-3.19418e-07
9.71323e-08
-3.90572e-07
9.88006e-08
-4.6218e-07
9.91496e-08
-5.33671e-07
9.8995e-08
-6.04918e-07
9.85284e-08
-6.75753e-07
9.79871e-08
-7.46173e-07
9.73654e-08
-8.16104e-07
9.67213e-08
-8.8554e-07
9.60253e-08
-9.54429e-07
9.52943e-08
-1.02275e-06
9.45098e-08
-1.09045e-06
9.36792e-08
-1.1575e-06
9.27933e-08
-1.22386e-06
9.18559e-08
-1.28949e-06
9.08627e-08
-1.35435e-06
8.98159e-08
-1.41839e-06
8.87133e-08
-1.48159e-06
8.75562e-08
-1.5439e-06
8.63438e-08
-1.60527e-06
8.50766e-08
-1.66567e-06
8.37544e-08
-1.72506e-06
8.23777e-08
-1.78341e-06
8.09464e-08
-1.84066e-06
7.9461e-08
-1.89678e-06
7.79215e-08
-1.95174e-06
7.63284e-08
-2.0055e-06
7.4682e-08
-2.058e-06
7.29825e-08
-2.10923e-06
7.12303e-08
-2.15914e-06
6.94258e-08
-2.20769e-06
6.75693e-08
-2.25485e-06
6.56615e-08
-2.30058e-06
6.37025e-08
-2.34485e-06
6.16931e-08
-2.38761e-06
5.96336e-08
-2.42883e-06
5.75246e-08
-2.46849e-06
5.53666e-08
-2.50654e-06
5.31603e-08
-2.54295e-06
5.09064e-08
-2.57768e-06
4.86054e-08
-2.61072e-06
4.62581e-08
-2.64201e-06
4.38653e-08
-2.67154e-06
4.14277e-08
-2.69926e-06
3.89462e-08
-2.72516e-06
3.64218e-08
-2.74919e-06
3.38552e-08
-2.77134e-06
3.12476e-08
-2.79157e-06
2.86e-08
-2.80986e-06
2.59136e-08
-2.82618e-06
2.31894e-08
-2.84051e-06
2.04288e-08
-2.85282e-06
1.7633e-08
-2.86308e-06
1.48034e-08
-2.87129e-06
1.19415e-08
-2.8774e-06
9.04886e-09
-2.88142e-06
6.12698e-09
-2.88331e-06
3.17758e-09
-2.88306e-06
2.0244e-10
-2.88065e-06
-2.79661e-09
-2.87607e-06
-5.81762e-09
-2.86931e-06
-8.85859e-09
-2.86035e-06
-1.19174e-08
-2.84918e-06
-1.49918e-08
-2.8358e-06
-1.80797e-08
-2.8202e-06
-2.11784e-08
-2.80237e-06
-2.42857e-08
-2.78231e-06
-2.73989e-08
-2.76002e-06
-3.05154e-08
-2.7355e-06
-3.36324e-08
-2.70876e-06
-3.67471e-08
-2.67979e-06
-3.98566e-08
-2.6486e-06
-4.29579e-08
-2.61521e-06
-4.60478e-08
-2.57963e-06
-4.91232e-08
-2.54186e-06
-5.21809e-08
-2.50193e-06
-5.52175e-08
-2.45984e-06
-5.82297e-08
-2.41563e-06
-6.1214e-08
-2.36932e-06
-6.41669e-08
-2.32093e-06
-6.70848e-08
-2.27049e-06
-6.99641e-08
-2.21803e-06
-7.28013e-08
-2.16359e-06
-7.55926e-08
-2.10719e-06
-7.83344e-08
-2.04889e-06
-8.10229e-08
-1.98871e-06
-8.36546e-08
-1.9267e-06
-8.62257e-08
-1.86292e-06
-8.87325e-08
-1.7974e-06
-9.11716e-08
-1.7302e-06
-9.35391e-08
-1.66137e-06
-9.5832e-08
-1.59097e-06
-9.80463e-08
-1.51906e-06
-1.0018e-07
-1.44569e-06
-1.02227e-07
-1.37094e-06
-1.04189e-07
-1.29485e-06
-1.06059e-07
-1.2175e-06
-1.07838e-07
-1.13896e-06
-1.09521e-07
-1.05929e-06
-1.11114e-07
-9.78561e-07
-1.12605e-07
-8.9685e-07
-1.14012e-07
-8.14199e-07
-1.15313e-07
-7.30729e-07
-1.16534e-07
-6.4648e-07
-1.17604e-07
-5.61692e-07
-1.18523e-07
-4.76546e-07
-1.19016e-07
-3.91745e-07
-1.18869e-07
-3.08133e-07
-1.17175e-07
-2.27759e-07
-1.13138e-07
-1.53156e-07
-1.04608e-07
-8.87525e-08
-9.04104e-08
-3.89686e-08
-6.77403e-08
-8.84666e-09
-3.90086e-08
-6.87889e-09
-1.39706e-08
1.69233e-08
-5.32637e-08
6.83036e-08
-1.15223e-07
1.14929e-07
-1.93667e-07
1.51932e-07
-2.8404e-07
1.76322e-07
-3.81372e-07
1.91291e-07
-4.82837e-07
1.99001e-07
-5.86069e-07
2.02582e-07
-6.90057e-07
2.03599e-07
-7.93983e-07
2.03452e-07
-8.97614e-07
2.02641e-07
-1.00069e-06
2.01578e-07
-1.10317e-06
2.0033e-07
-1.20493e-06
1.98989e-07
-1.30596e-06
1.97535e-07
-1.40616e-06
1.95989e-07
-1.5055e-06
1.94332e-07
-1.60391e-06
1.9257e-07
-1.70134e-06
1.90694e-07
-1.79772e-06
1.88707e-07
-1.89299e-06
1.86604e-07
-1.9871e-06
1.84388e-07
-2.07999e-06
1.82056e-07
-2.1716e-06
1.7961e-07
-2.26186e-06
1.7705e-07
-2.35073e-06
1.74375e-07
-2.43813e-06
1.71587e-07
-2.52402e-06
1.68687e-07
-2.60833e-06
1.65674e-07
-2.69101e-06
1.62549e-07
-2.77201e-06
1.59314e-07
-2.85125e-06
1.55968e-07
-2.9287e-06
1.52514e-07
-3.0043e-06
1.48951e-07
-3.07798e-06
1.45281e-07
-3.14971e-06
1.41504e-07
-3.21942e-06
1.37622e-07
-3.28705e-06
1.33637e-07
-3.35257e-06
1.29548e-07
-3.41592e-06
1.25357e-07
-3.47705e-06
1.21066e-07
-3.5359e-06
1.16675e-07
-3.59244e-06
1.12187e-07
-3.64661e-06
1.07602e-07
-3.69837e-06
1.02923e-07
-3.74766e-06
9.81498e-08
-3.79445e-06
9.32853e-08
-3.83869e-06
8.83309e-08
-3.88034e-06
8.32885e-08
-3.91936e-06
7.81599e-08
-3.9557e-06
7.29473e-08
-3.98932e-06
6.76526e-08
-4.02019e-06
6.22781e-08
-4.04827e-06
5.68262e-08
-4.07352e-06
5.12992e-08
-4.09592e-06
4.56998e-08
-4.11541e-06
4.00305e-08
-4.13198e-06
3.42941e-08
-4.1456e-06
2.84937e-08
-4.15623e-06
2.26322e-08
-4.16385e-06
1.67128e-08
-4.16843e-06
1.0739e-08
-4.16995e-06
4.71413e-09
-4.16839e-06
-1.35809e-09
-4.16372e-06
-7.47388e-09
-4.15594e-06
-1.36293e-08
-4.14503e-06
-1.98201e-08
-4.13096e-06
-2.60422e-08
-4.11374e-06
-3.22909e-08
-4.09335e-06
-3.85618e-08
-4.06979e-06
-4.48499e-08
-4.04305e-06
-5.11504e-08
-4.01313e-06
-5.7458e-08
-3.98004e-06
-6.37676e-08
-3.94377e-06
-7.00736e-08
-3.90433e-06
-7.63703e-08
-3.86174e-06
-8.2652e-08
-3.81601e-06
-8.89127e-08
-3.76715e-06
-9.51463e-08
-3.71517e-06
-1.01347e-07
-3.66012e-06
-1.07507e-07
-3.602e-06
-1.13621e-07
-3.54084e-06
-1.19683e-07
-3.47669e-06
-1.25684e-07
-3.40956e-06
-1.31619e-07
-3.33951e-06
-1.37481e-07
-3.26657e-06
-1.43262e-07
-3.19079e-06
-1.48955e-07
-3.11222e-06
-1.54554e-07
-3.0309e-06
-1.6005e-07
-2.9469e-06
-1.65438e-07
-2.86028e-06
-1.70709e-07
-2.77109e-06
-1.75857e-07
-2.6794e-06
-1.80875e-07
-2.58529e-06
-1.85755e-07
-2.48882e-06
-1.9049e-07
-2.39006e-06
-1.95075e-07
-2.28911e-06
-1.99501e-07
-2.18604e-06
-2.03764e-07
-2.08093e-06
-2.07856e-07
-1.97389e-06
-2.11774e-07
-1.86498e-06
-2.15508e-07
-1.75431e-06
-2.1906e-07
-1.64197e-06
-2.22419e-07
-1.52807e-06
-2.25591e-07
-1.41268e-06
-2.28563e-07
-1.29593e-06
-2.31351e-07
-1.1779e-06
-2.33923e-07
-1.05876e-06
-2.36293e-07
-9.3859e-07
-2.38347e-07
-8.17752e-07
-2.39998e-07
-6.96549e-07
-2.40774e-07
-5.75963e-07
-2.40116e-07
-4.57144e-07
-2.36483e-07
-3.42791e-07
-2.28169e-07
-2.36015e-07
-2.11712e-07
-1.42486e-07
-1.84608e-07
-6.73882e-08
-1.4284e-07
-1.84521e-08
-8.86104e-08
-2.52715e-08
-2.09209e-08
3.74744e-08
-7.37193e-08
1.21411e-07
-1.5309e-07
1.9376e-07
-2.50705e-07
2.4955e-07
-3.61614e-07
2.86769e-07
-4.80224e-07
3.0971e-07
-6.03583e-07
3.21934e-07
-7.2903e-07
3.27746e-07
-8.55451e-07
3.29619e-07
-9.81869e-07
3.29547e-07
-1.10799e-06
3.28379e-07
-1.23347e-06
3.26721e-07
-1.35824e-06
3.24732e-07
-1.48214e-06
3.22547e-07
-1.60513e-06
3.20166e-07
-1.7271e-06
3.17615e-07
-1.84799e-06
3.14878e-07
-1.96772e-06
3.11962e-07
-2.08623e-06
3.08857e-07
-2.20342e-06
3.05568e-07
-2.31924e-06
3.0209e-07
-2.4336e-06
2.98424e-07
-2.54644e-06
2.9457e-07
-2.65768e-06
2.90528e-07
-2.76724e-06
2.863e-07
-2.87507e-06
2.81886e-07
-2.98107e-06
2.77288e-07
-3.08519e-06
2.72506e-07
-3.18735e-06
2.67542e-07
-3.28749e-06
2.62397e-07
-3.38553e-06
2.57072e-07
-3.48141e-06
2.5157e-07
-3.57506e-06
2.45892e-07
-3.66642e-06
2.40039e-07
-3.75541e-06
2.34014e-07
-3.84198e-06
2.27818e-07
-3.92606e-06
2.21454e-07
-4.00758e-06
2.14923e-07
-4.08649e-06
2.08227e-07
-4.16273e-06
2.01368e-07
-4.23623e-06
1.9435e-07
-4.30694e-06
1.87174e-07
-4.3748e-06
1.79843e-07
-4.43975e-06
1.72359e-07
-4.50173e-06
1.64725e-07
-4.5607e-06
1.56944e-07
-4.61661e-06
1.49019e-07
-4.66939e-06
1.40952e-07
-4.719e-06
1.32748e-07
-4.76539e-06
1.24409e-07
-4.80851e-06
1.15939e-07
-4.84832e-06
1.07341e-07
-4.88478e-06
9.86189e-08
-4.91783e-06
8.97772e-08
-4.94745e-06
8.08196e-08
-4.97358e-06
7.17503e-08
-4.9962e-06
6.25739e-08
-5.01526e-06
5.3295e-08
-5.03074e-06
4.39184e-08
-5.0426e-06
3.44491e-08
-5.05081e-06
2.48924e-08
-5.05535e-06
1.52537e-08
-5.05618e-06
5.53879e-09
-5.0533e-06
-4.24644e-09
-5.04666e-06
-1.40958e-08
-5.03627e-06
-2.4003e-08
-5.02209e-06
-3.39613e-08
-5.00413e-06
-4.39639e-08
-4.98236e-06
-5.40035e-08
-4.95678e-06
-6.40728e-08
-4.92739e-06
-7.41641e-08
-4.89418e-06
-8.42696e-08
-4.85716e-06
-9.43811e-08
-4.81633e-06
-1.0449e-07
-4.77169e-06
-1.14588e-07
-4.72326e-06
-1.24666e-07
-4.67105e-06
-1.34715e-07
-4.61508e-06
-1.44725e-07
-4.55538e-06
-1.54687e-07
-4.49195e-06
-1.6459e-07
-4.42484e-06
-1.74426e-07
-4.35408e-06
-1.84184e-07
-4.2797e-06
-1.93853e-07
-4.20174e-06
-2.03422e-07
-4.12024e-06
-2.12882e-07
-4.03526e-06
-2.2222e-07
-3.94684e-06
-2.31427e-07
-3.85504e-06
-2.40491e-07
-3.75991e-06
-2.49401e-07
-3.66153e-06
-2.58146e-07
-3.55996e-06
-2.66715e-07
-3.45527e-06
-2.75096e-07
-3.34754e-06
-2.83278e-07
-3.23684e-06
-2.91251e-07
-3.12326e-06
-2.99004e-07
-3.00688e-06
-3.06525e-07
-2.88781e-06
-3.13805e-07
-2.76612e-06
-3.20833e-07
-2.64192e-06
-3.27599e-07
-2.51531e-06
-3.34093e-07
-2.3864e-06
-3.40308e-07
-2.25529e-06
-3.46233e-07
-2.1221e-06
-3.51864e-07
-1.98692e-06
-3.5719e-07
-1.8499e-06
-3.62212e-07
-1.71114e-06
-3.66915e-07
-1.57078e-06
-3.71307e-07
-1.42892e-06
-3.75349e-07
-1.28578e-06
-3.79029e-07
-1.1415e-06
-3.82181e-07
-9.965e-07
-3.84609e-07
-8.5117e-07
-3.85625e-07
-7.06664e-07
-3.84282e-07
-5.64246e-07
-3.78388e-07
-4.26934e-07
-3.65249e-07
-2.97972e-07
-3.40113e-07
-1.83698e-07
-2.98881e-07
-8.97021e-08
-2.36167e-07
-2.60469e-08
-1.52625e-07
-5.08816e-08
-2.50805e-08
6.23439e-08
-8.70821e-08
1.8406e-07
-1.78662e-07
2.85062e-07
-2.89699e-07
3.6105e-07
-4.14771e-07
4.11836e-07
-5.47783e-07
4.4309e-07
-6.85751e-07
4.60036e-07
-8.25864e-07
4.68178e-07
-9.67012e-07
4.70966e-07
-1.10815e-06
4.70973e-07
-1.24896e-06
4.69423e-07
-1.38908e-06
4.6711e-07
-1.5284e-06
4.64296e-07
-1.66676e-06
4.61163e-07
-1.80408e-06
4.57733e-07
-1.94025e-06
4.5404e-07
-2.07521e-06
4.50074e-07
-2.20884e-06
4.45843e-07
-2.34108e-06
4.41338e-07
-2.47184e-06
4.36563e-07
-2.60103e-06
4.31516e-07
-2.72857e-06
4.26197e-07
-2.85437e-06
4.20607e-07
-2.97836e-06
4.14748e-07
-3.10046e-06
4.0862e-07
-3.22058e-06
4.02226e-07
-3.33864e-06
3.95567e-07
-3.45456e-06
3.88645e-07
-3.56827e-06
3.81463e-07
-3.67969e-06
3.74022e-07
-3.78874e-06
3.66325e-07
-3.89535e-06
3.58375e-07
-3.99944e-06
3.50174e-07
-4.10093e-06
3.41725e-07
-4.19976e-06
3.3303e-07
-4.29586e-06
3.24094e-07
-4.38915e-06
3.14918e-07
-4.47956e-06
3.05506e-07
-4.56703e-06
2.95861e-07
-4.65149e-06
2.85987e-07
-4.73287e-06
2.75888e-07
-4.81111e-06
2.65566e-07
-4.88615e-06
2.55026e-07
-4.95793e-06
2.44271e-07
-5.02638e-06
2.33307e-07
-5.09144e-06
2.22136e-07
-5.15307e-06
2.10764e-07
-5.2112e-06
1.99195e-07
-5.26578e-06
1.87433e-07
-5.31675e-06
1.75484e-07
-5.36407e-06
1.63353e-07
-5.40769e-06
1.51045e-07
-5.44756e-06
1.38566e-07
-5.48363e-06
1.25921e-07
-5.51586e-06
1.13116e-07
-5.54421e-06
1.00158e-07
-5.56863e-06
8.70534e-08
-5.5891e-06
7.38083e-08
-5.60557e-06
6.043e-08
-5.61802e-06
4.69258e-08
-5.62641e-06
3.33032e-08
-5.63071e-06
1.95701e-08
-5.6309e-06
5.73471e-09
-5.62695e-06
-8.19459e-09
-5.61885e-06
-2.2209e-08
-5.60657e-06
-3.62993e-08
-5.5901e-06
-5.04562e-08
-5.56942e-06
-6.46699e-08
-5.54454e-06
-7.89301e-08
-5.51543e-06
-9.32266e-08
-5.4821e-06
-1.07548e-07
-5.44455e-06
-1.21884e-07
-5.40278e-06
-1.36223e-07
-5.3568e-06
-1.50553e-07
-5.30662e-06
-1.64861e-07
-5.25224e-06
-1.79136e-07
-5.1937e-06
-1.93364e-07
-5.131e-06
-2.07532e-07
-5.06418e-06
-2.21627e-07
-4.99327e-06
-2.35635e-07
-4.91829e-06
-2.49543e-07
-4.83928e-06
-2.63335e-07
-4.75629e-06
-2.76997e-07
-4.66936e-06
-2.90515e-07
-4.57853e-06
-3.03873e-07
-4.48387e-06
-3.17057e-07
-4.38543e-06
-3.30052e-07
-4.28327e-06
-3.42841e-07
-4.17746e-06
-3.5541e-07
-4.06807e-06
-3.67743e-07
-3.95517e-06
-3.79824e-07
-3.83884e-06
-3.91638e-07
-3.71918e-06
-4.03171e-07
-3.59625e-06
-4.14405e-07
-3.47017e-06
-4.25328e-07
-3.34101e-06
-4.35922e-07
-3.20889e-06
-4.46175e-07
-3.07391e-06
-4.56071e-07
-2.93617e-06
-4.65597e-07
-2.79579e-06
-4.7474e-07
-2.65289e-06
-4.83487e-07
-2.50757e-06
-4.91825e-07
-2.35997e-06
-4.99746e-07
-2.2102e-06
-5.07236e-07
-2.05842e-06
-5.14292e-07
-1.90472e-06
-5.20894e-07
-1.74929e-06
-5.27044e-07
-1.59224e-06
-5.32688e-07
-1.4338e-06
-5.37788e-07
-1.27414e-06
-5.4212e-07
-1.11372e-06
-5.45371e-07
-9.52945e-07
-5.4664e-07
-7.93046e-07
-5.44564e-07
-6.35279e-07
-5.36319e-07
-4.82825e-07
-5.18145e-07
-3.38958e-07
-4.83981e-07
-2.10547e-07
-4.27851e-07
-1.03688e-07
-3.42702e-07
-3.0355e-08
-2.2674e-07
-8.1005e-08
-2.76075e-08
8.95594e-08
-9.54931e-08
2.52456e-07
-1.94969e-07
3.8397e-07
-3.14707e-07
4.80988e-07
-4.48864e-07
5.45622e-07
-5.90994e-07
5.85223e-07
-7.38106e-07
6.06865e-07
-8.87324e-07
6.17301e-07
-1.03757e-06
6.20979e-07
-1.18778e-06
6.21038e-07
-1.33765e-06
6.1908e-07
-1.48678e-06
6.16074e-07
-1.63507e-06
6.12388e-07
-1.78232e-06
6.08249e-07
-1.92848e-06
6.037e-07
-2.0734e-06
5.98788e-07
-2.21701e-06
5.93505e-07
-2.35921e-06
5.87864e-07
-2.49991e-06
5.81857e-07
-2.639e-06
5.7549e-07
-2.77642e-06
5.68759e-07
-2.91206e-06
5.61668e-07
-3.04583e-06
5.54216e-07
-3.17766e-06
5.46408e-07
-3.30745e-06
5.38244e-07
-3.43511e-06
5.29728e-07
-3.56056e-06
5.20861e-07
-3.68372e-06
5.11648e-07
-3.8045e-06
5.02091e-07
-3.92282e-06
4.92193e-07
-4.0386e-06
4.81958e-07
-4.15176e-06
4.7139e-07
-4.26221e-06
4.60492e-07
-4.36989e-06
4.49268e-07
-4.47472e-06
4.37722e-07
-4.57661e-06
4.25858e-07
-4.6755e-06
4.13681e-07
-4.77132e-06
4.01195e-07
-4.86398e-06
3.88405e-07
-4.95342e-06
3.75315e-07
-5.03958e-06
3.61931e-07
-5.12238e-06
3.48257e-07
-5.20175e-06
3.34299e-07
-5.27764e-06
3.20062e-07
-5.34998e-06
3.05552e-07
-5.41871e-06
2.90775e-07
-5.48377e-06
2.75736e-07
-5.5451e-06
2.60442e-07
-5.60265e-06
2.449e-07
-5.65635e-06
2.29116e-07
-5.70616e-06
2.13097e-07
-5.75203e-06
1.9685e-07
-5.7939e-06
1.80382e-07
-5.83174e-06
1.63702e-07
-5.86549e-06
1.46818e-07
-5.89511e-06
1.29737e-07
-5.92056e-06
1.12469e-07
-5.94181e-06
9.50219e-08
-5.95881e-06
7.74056e-08
-5.97154e-06
5.96296e-08
-5.97995e-06
4.1704e-08
-5.98403e-06
2.3639e-08
-5.98375e-06
5.44553e-09
-5.97908e-06
-1.28653e-08
-5.97e-06
-3.12819e-08
-5.9565e-06
-4.97924e-08
-5.93855e-06
-6.83842e-08
-5.91615e-06
-8.70447e-08
-5.88929e-06
-1.05761e-07
-5.85797e-06
-1.24518e-07
-5.82217e-06
-1.43303e-07
-5.78191e-06
-1.62102e-07
-5.73718e-06
-1.80898e-07
-5.688e-06
-1.99677e-07
-5.63438e-06
-2.18423e-07
-5.57632e-06
-2.37119e-07
-5.51386e-06
-2.5575e-07
-5.44702e-06
-2.74297e-07
-5.37581e-06
-2.92744e-07
-5.30028e-06
-3.11072e-07
-5.22046e-06
-3.29264e-07
-5.13639e-06
-3.47301e-07
-5.04812e-06
-3.65164e-07
-4.95568e-06
-3.82835e-07
-4.85914e-06
-4.00293e-07
-4.75855e-06
-4.1752e-07
-4.65398e-06
-4.34496e-07
-4.54548e-06
-4.51201e-07
-4.43313e-06
-4.67614e-07
-4.31701e-06
-4.83717e-07
-4.1972e-06
-4.99489e-07
-4.07377e-06
-5.1491e-07
-3.94682e-06
-5.2996e-07
-3.81644e-06
-5.4462e-07
-3.68272e-06
-5.58871e-07
-3.54578e-06
-5.72692e-07
-3.40571e-06
-5.86065e-07
-3.26263e-06
-5.98972e-07
-3.11664e-06
-6.11396e-07
-2.96787e-06
-6.23317e-07
-2.81645e-06
-6.34721e-07
-2.66248e-06
-6.4559e-07
-2.50612e-06
-6.55913e-07
-2.34747e-06
-6.65671e-07
-2.18671e-06
-6.74857e-07
-2.02394e-06
-6.83445e-07
-1.85935e-06
-6.91429e-07
-1.69307e-06
-6.98743e-07
-1.52535e-06
-7.05315e-07
-1.35635e-06
-7.10873e-07
-1.18657e-06
-7.14979e-07
-1.01639e-06
-7.16533e-07
-8.47087e-07
-7.13757e-07
-6.79865e-07
-7.03204e-07
-5.17981e-07
-6.8003e-07
-3.64714e-07
-6.36804e-07
-2.27303e-07
-5.65492e-07
-1.12295e-07
-4.57034e-07
-3.29124e-08
-3.0672e-07
-1.13452e-07
-2.87632e-08
1.18035e-07
-9.99459e-08
3.24335e-07
-2.0412e-07
4.87721e-07
-3.29206e-07
6.06508e-07
-4.68993e-07
6.85263e-07
-6.16752e-07
7.33265e-07
-7.69456e-07
7.59564e-07
-9.24178e-07
7.72233e-07
-1.07988e-06
7.76748e-07
-1.23549e-06
7.76818e-07
-1.39073e-06
7.74416e-07
-1.54518e-06
7.70681e-07
-1.69877e-06
7.66089e-07
-1.85128e-06
7.60901e-07
-2.00265e-06
7.55189e-07
-2.15274e-06
7.49005e-07
-2.30146e-06
7.42351e-07
-2.44871e-06
7.35239e-07
-2.59439e-06
7.27665e-07
-2.73841e-06
7.19634e-07
-2.88068e-06
7.11146e-07
-3.0211e-06
7.02204e-07
-3.15958e-06
6.9281e-07
-3.29602e-06
6.82967e-07
-3.43034e-06
6.72679e-07
-3.56245e-06
6.61948e-07
-3.69225e-06
6.50779e-07
-3.81967e-06
6.39176e-07
-3.94461e-06
6.27142e-07
-4.067e-06
6.14683e-07
-4.18674e-06
6.01802e-07
-4.30375e-06
5.88505e-07
-4.41796e-06
5.74797e-07
-4.52928e-06
5.60682e-07
-4.63763e-06
5.46166e-07
-4.74293e-06
5.31254e-07
-4.84511e-06
5.15953e-07
-4.9441e-06
5.00267e-07
-5.03981e-06
4.84203e-07
-5.13218e-06
4.67768e-07
-5.22114e-06
4.50967e-07
-5.30661e-06
4.33807e-07
-5.38853e-06
4.16295e-07
-5.46684e-06
3.98438e-07
-5.54146e-06
3.80243e-07
-5.61234e-06
3.61718e-07
-5.67942e-06
3.4287e-07
-5.74262e-06
3.23708e-07
-5.80191e-06
3.04239e-07
-5.85721e-06
2.84473e-07
-5.90849e-06
2.64418e-07
-5.95568e-06
2.44083e-07
-5.99873e-06
2.23477e-07
-6.0376e-06
2.02611e-07
-6.07225e-06
1.81495e-07
-6.10262e-06
1.60139e-07
-6.12868e-06
1.38553e-07
-6.15038e-06
1.1675e-07
-6.1677e-06
9.47413e-08
-6.18059e-06
7.25384e-08
-6.18903e-06
5.01542e-08
-6.19299e-06
2.76015e-08
-6.19243e-06
4.89399e-09
-6.18734e-06
-1.79545e-08
-6.1777e-06
-4.09296e-08
-6.16349e-06
-6.40162e-08
-6.14468e-06
-8.71991e-08
-6.12128e-06
-1.10462e-07
-6.09328e-06
-1.33789e-07
-6.06066e-06
-1.57163e-07
-6.02342e-06
-1.80566e-07
-5.98158e-06
-2.0398e-07
-5.93512e-06
-2.27387e-07
-5.88408e-06
-2.50768e-07
-5.82844e-06
-2.74103e-07
-5.76824e-06
-2.97372e-07
-5.70349e-06
-3.20554e-07
-5.63421e-06
-3.43629e-07
-5.56044e-06
-3.66574e-07
-5.48221e-06
-3.89369e-07
-5.39956e-06
-4.11989e-07
-5.31252e-06
-4.34413e-07
-5.22115e-06
-4.56618e-07
-5.12548e-06
-4.7858e-07
-5.02559e-06
-5.00275e-07
-4.92152e-06
-5.2168e-07
-4.81334e-06
-5.42769e-07
-4.70112e-06
-5.63519e-07
-4.58493e-06
-5.83905e-07
-4.46485e-06
-6.03902e-07
-4.34096e-06
-6.23486e-07
-4.21335e-06
-6.42633e-07
-4.08211e-06
-6.61317e-07
-3.94733e-06
-6.79516e-07
-3.80912e-06
-6.97204e-07
-3.66758e-06
-7.14358e-07
-3.52282e-06
-7.30955e-07
-3.37495e-06
-7.46971e-07
-3.22409e-06
-7.62386e-07
-3.07036e-06
-7.77177e-07
-2.9139e-06
-7.91325e-07
-2.75482e-06
-8.04807e-07
-2.59327e-06
-8.17609e-07
-2.42938e-06
-8.29706e-07
-2.2633e-06
-8.41089e-07
-2.09516e-06
-8.51726e-07
-1.92516e-06
-8.61599e-07
-1.7534e-06
-8.70632e-07
-1.58017e-06
-8.78721e-07
-1.40562e-06
-8.85547e-07
-1.23025e-06
-8.90553e-07
-1.05442e-06
-8.92442e-07
-8.79398e-07
-8.89026e-07
-7.06371e-07
-8.76229e-07
-5.38645e-07
-8.48094e-07
-3.79543e-07
-7.95739e-07
-2.36603e-07
-7.08946e-07
-1.16768e-07
-5.76379e-07
-3.40339e-08
-3.90276e-07
-1.47153e-07
-2.93556e-08
1.46999e-07
-1.02352e-07
3.9794e-07
-2.0921e-07
5.9401e-07
-3.37451e-07
7.35046e-07
-4.80594e-07
8.28076e-07
-6.31719e-07
8.84493e-07
-7.87753e-07
9.15383e-07
-9.45731e-07
9.30215e-07
-1.10464e-06
9.35505e-07
-1.26341e-06
9.3554e-07
-1.42178e-06
9.3266e-07
-1.57935e-06
9.28172e-07
-1.73602e-06
9.22649e-07
-1.89159e-06
9.16391e-07
-2.04599e-06
9.09491e-07
-2.19908e-06
9.02011e-07
-2.35078e-06
8.93956e-07
-2.50098e-06
8.85342e-07
-2.64957e-06
8.76167e-07
-2.79646e-06
8.66437e-07
-2.94156e-06
8.56154e-07
-3.08476e-06
8.45321e-07
-3.22598e-06
8.33942e-07
-3.36512e-06
8.22021e-07
-3.50209e-06
8.09562e-07
-3.63679e-06
7.9657e-07
-3.76914e-06
7.83049e-07
-3.89905e-06
7.69005e-07
-4.02643e-06
7.54443e-07
-4.15119e-06
7.39368e-07
-4.27325e-06
7.23786e-07
-4.39252e-06
7.07704e-07
-4.50893e-06
6.91127e-07
-4.62238e-06
6.74062e-07
-4.7328e-06
6.56516e-07
-4.8401e-06
6.38495e-07
-4.94422e-06
6.20006e-07
-5.04508e-06
6.01057e-07
-5.14259e-06
5.81655e-07
-5.23669e-06
5.61808e-07
-5.3273e-06
5.41524e-07
-5.41436e-06
5.2081e-07
-5.4978e-06
4.99676e-07
-5.57754e-06
4.78129e-07
-5.65353e-06
4.56179e-07
-5.72569e-06
4.33836e-07
-5.79397e-06
4.11108e-07
-5.85831e-06
3.88005e-07
-5.91865e-06
3.64537e-07
-5.97493e-06
3.40715e-07
-6.0271e-06
3.1655e-07
-6.0751e-06
2.92053e-07
-6.11889e-06
2.67234e-07
-6.15841e-06
2.42107e-07
-6.19362e-06
2.16683e-07
-6.22448e-06
1.90975e-07
-6.25094e-06
1.64996e-07
-6.27297e-06
1.3876e-07
-6.29052e-06
1.12281e-07
-6.30357e-06
8.55742e-08
-6.31208e-06
5.86537e-08
-6.31601e-06
3.15355e-08
-6.31536e-06
4.23591e-09
-6.31008e-06
-2.32284e-08
-6.30017e-06
-5.08401e-08
-6.2856e-06
-7.85814e-08
-6.26636e-06
-1.06434e-07
-6.24243e-06
-1.34378e-07
-6.21381e-06
-1.62394e-07
-6.18049e-06
-1.90462e-07
-6.14247e-06
-2.18562e-07
-6.09976e-06
-2.4667e-07
-6.05236e-06
-2.74766e-07
-6.00027e-06
-3.02826e-07
-5.94351e-06
-3.30827e-07
-5.8821e-06
-3.58746e-07
-5.81606e-06
-3.86557e-07
-5.74541e-06
-4.14235e-07
-5.67019e-06
-4.41755e-07
-5.59042e-06
-4.6909e-07
-5.50614e-06
-4.96214e-07
-5.4174e-06
-5.231e-07
-5.32424e-06
-5.4972e-07
-5.22672e-06
-5.76046e-07
-5.12488e-06
-6.02049e-07
-5.0188e-06
-6.27702e-07
-4.90852e-06
-6.52975e-07
-4.79413e-06
-6.77839e-07
-4.6757e-06
-7.02265e-07
-4.5533e-06
-7.26223e-07
-4.42703e-06
-7.49686e-07
-4.29696e-06
-7.72622e-07
-4.16319e-06
-7.95003e-07
-4.02582e-06
-8.16801e-07
-3.88495e-06
-8.37986e-07
-3.74069e-06
-8.5853e-07
-3.59315e-06
-8.78407e-07
-3.44244e-06
-8.97587e-07
-3.28868e-06
-9.16046e-07
-3.132e-06
-9.33756e-07
-2.97254e-06
-9.50695e-07
-2.8104e-06
-9.66835e-07
-2.64576e-06
-9.82157e-07
-2.47872e-06
-9.96635e-07
-2.30946e-06
-1.01025e-06
-2.1381e-06
-1.02297e-06
-1.96484e-06
-1.03476e-06
-1.7898e-06
-1.04554e-06
-1.61325e-06
-1.05518e-06
-1.43534e-06
-1.06331e-06
-1.25659e-06
-1.06925e-06
-1.07732e-06
-1.07153e-06
-8.98806e-07
-1.06754e-06
-7.22212e-07
-1.05257e-06
-5.50886e-07
-1.01954e-06
-3.88209e-07
-9.58029e-07
-2.41924e-07
-8.55574e-07
-1.19265e-07
-6.98372e-07
-3.46384e-08
-4.75609e-07
-1.81332e-07
-2.95547e-08
1.76223e-07
-1.03477e-07
4.72565e-07
-2.11843e-07
7.01889e-07
-3.41963e-07
8.6558e-07
-4.87169e-07
9.73068e-07
-6.40399e-07
1.03797e-06
-7.98522e-07
1.07343e-06
-9.5854e-07
1.09039e-06
-1.11945e-06
1.09641e-06
-1.28017e-06
1.09637e-06
-1.44047e-06
1.09299e-06
-1.59993e-06
1.08772e-06
-1.75848e-06
1.08125e-06
-1.91592e-06
1.0739e-06
-2.07217e-06
1.0658e-06
-2.22709e-06
1.057e-06
-2.38061e-06
1.04753e-06
-2.53259e-06
1.03739e-06
-2.68296e-06
1.0266e-06
-2.8316e-06
1.01514e-06
-2.97843e-06
1.00304e-06
-3.12334e-06
9.90292e-07
-3.26624e-06
9.76901e-07
-3.40703e-06
9.62873e-07
-3.54562e-06
9.48213e-07
-3.68192e-06
9.32929e-07
-3.81584e-06
9.17024e-07
-3.94729e-06
9.00506e-07
-4.07617e-06
8.83381e-07
-4.2024e-06
8.65655e-07
-4.3259e-06
8.47337e-07
-4.44658e-06
8.28432e-07
-4.56435e-06
8.08949e-07
-4.67913e-06
7.88895e-07
-4.79085e-06
7.68279e-07
-4.89942e-06
7.47108e-07
-5.00475e-06
7.25391e-07
-5.10679e-06
7.03136e-07
-5.20544e-06
6.80353e-07
-5.30064e-06
6.5705e-07
-5.39232e-06
6.33238e-07
-5.4804e-06
6.08926e-07
-5.56481e-06
5.84123e-07
-5.64548e-06
5.58841e-07
-5.72236e-06
5.33089e-07
-5.79537e-06
5.06879e-07
-5.86445e-06
4.80222e-07
-5.92955e-06
4.5313e-07
-5.9906e-06
4.25614e-07
-6.04754e-06
3.97686e-07
-6.10033e-06
3.69361e-07
-6.1489e-06
3.40649e-07
-6.19322e-06
3.11566e-07
-6.23322e-06
2.82125e-07
-6.26886e-06
2.52341e-07
-6.30009e-06
2.22228e-07
-6.32689e-06
1.91802e-07
-6.3492e-06
1.61079e-07
-6.36698e-06
1.30076e-07
-6.38021e-06
9.88094e-08
-6.38885e-06
6.7297e-08
-6.39287e-06
3.55573e-08
-6.39224e-06
3.6092e-09
-6.38694e-06
-2.85278e-08
-6.37695e-06
-6.08335e-08
-6.36225e-06
-9.32869e-08
-6.34282e-06
-1.25866e-07
-6.31866e-06
-1.5855e-07
-6.28975e-06
-1.91314e-07
-6.25609e-06
-2.24136e-07
-6.21767e-06
-2.56991e-07
-6.17451e-06
-2.89853e-07
-6.1266e-06
-3.22697e-07
-6.07395e-06
-3.55497e-07
-6.01657e-06
-3.88225e-07
-5.95449e-06
-4.20853e-07
-5.88772e-06
-4.53353e-07
-5.81629e-06
-4.85695e-07
-5.74023e-06
-5.1785e-07
-5.65957e-06
-5.49787e-07
-5.57434e-06
-5.81475e-07
-5.4846e-06
-6.12882e-07
-5.39038e-06
-6.43977e-07
-5.29174e-06
-6.74727e-07
-5.18874e-06
-7.05098e-07
-5.08143e-06
-7.35058e-07
-4.96988e-06
-7.64573e-07
-4.85416e-06
-7.93609e-07
-4.73434e-06
-8.22132e-07
-4.61051e-06
-8.50109e-07
-4.48275e-06
-8.77504e-07
-4.35114e-06
-9.04285e-07
-4.21579e-06
-9.30417e-07
-4.07678e-06
-9.55866e-07
-3.93423e-06
-9.806e-07
-3.78824e-06
-1.00459e-06
-3.63892e-06
-1.02779e-06
-3.48639e-06
-1.05018e-06
-3.33078e-06
-1.07173e-06
-3.1722e-06
-1.0924e-06
-3.01079e-06
-1.11217e-06
-2.84668e-06
-1.13101e-06
-2.68002e-06
-1.14889e-06
-2.51094e-06
-1.16579e-06
-2.3396e-06
-1.18167e-06
-2.16613e-06
-1.1965e-06
-1.99074e-06
-1.21025e-06
-1.81353e-06
-1.22281e-06
-1.63479e-06
-1.23402e-06
-1.45465e-06
-1.24349e-06
-1.27363e-06
-1.25041e-06
-1.09204e-06
-1.25311e-06
-9.11165e-07
-1.2486e-06
-7.32155e-07
-1.2315e-06
-5.58406e-07
-1.19357e-06
-3.93367e-07
-1.12282e-06
-2.4494e-07
-1.00449e-06
-1.20562e-07
-8.22184e-07
-3.48766e-08
-5.62116e-07
-2.15827e-07
-2.96824e-08
2.05521e-07
-1.04155e-07
5.47687e-07
-2.13452e-07
8.10625e-07
-3.44781e-07
9.97251e-07
-4.9135e-07
1.11933e-06
-6.46e-07
1.19277e-06
-8.05551e-07
1.2328e-06
-9.66972e-07
1.25186e-06
-1.12926e-06
1.25858e-06
-1.29133e-06
1.25844e-06
-1.45295e-06
1.25453e-06
-1.61372e-06
1.24847e-06
-1.77356e-06
1.24103e-06
-1.93228e-06
1.23258e-06
-2.0898e-06
1.22327e-06
-2.24598e-06
1.21314e-06
-2.40075e-06
1.20224e-06
-2.55397e-06
1.19057e-06
-2.70556e-06
1.17814e-06
-2.85542e-06
1.16495e-06
-3.00344e-06
1.15102e-06
-3.14953e-06
1.13634e-06
-3.2936e-06
1.12092e-06
-3.43554e-06
1.10477e-06
-3.57527e-06
1.0879e-06
-3.71268e-06
1.0703e-06
-3.8477e-06
1.052e-06
-3.98023e-06
1.03299e-06
-4.11017e-06
1.01328e-06
-4.23744e-06
9.9289e-07
-4.36196e-06
9.71815e-07
-4.48364e-06
9.50069e-07
-4.60238e-06
9.2766e-07
-4.71812e-06
9.04598e-07
-4.83077e-06
8.80891e-07
-4.94025e-06
8.56549e-07
-5.04647e-06
8.31582e-07
-5.14937e-06
8.06e-07
-5.24886e-06
7.79813e-07
-5.34487e-06
7.53033e-07
-5.43733e-06
7.2567e-07
-5.52617e-06
6.97735e-07
-5.61132e-06
6.69241e-07
-5.6927e-06
6.40199e-07
-5.77026e-06
6.10621e-07
-5.84393e-06
5.8052e-07
-5.91363e-06
5.49909e-07
-5.97933e-06
5.18802e-07
-6.04095e-06
4.87211e-07
-6.09843e-06
4.55152e-07
-6.15173e-06
4.22639e-07
-6.20078e-06
3.89687e-07
-6.24554e-06
3.56312e-07
-6.28596e-06
3.22529e-07
-6.32199e-06
2.88356e-07
-6.35358e-06
2.5381e-07
-6.3807e-06
2.18907e-07
-6.40329e-06
1.83668e-07
-6.42133e-06
1.4811e-07
-6.43478e-06
1.12253e-07
-6.44361e-06
7.61177e-08
-6.44778e-06
3.97248e-08
-6.44727e-06
3.096e-09
-6.44205e-06
-3.37464e-08
-6.4321e-06
-7.07792e-08
-6.41741e-06
-1.07978e-07
-6.39795e-06
-1.4532e-07
-6.37371e-06
-1.82777e-07
-6.3447e-06
-2.20325e-07
-6.31089e-06
-2.57936e-07
-6.27228e-06
-2.95583e-07
-6.22889e-06
-3.33236e-07
-6.18071e-06
-3.70866e-07
-6.12774e-06
-4.08443e-07
-6.07002e-06
-4.45936e-07
-6.00754e-06
-4.83313e-07
-5.94033e-06
-5.20541e-07
-5.86842e-06