/*--------------------------------*- C++ -*----------------------------------*\
| =========                 |                                                 |
| \\      /  F ield         | OpenFOAM: The Open Source CFD Toolbox           |
|  \\    /   O peration     | Version:  2406                                  |
|   \\  /    A nd           | Website:  www.openfoam.com                      |
|    \\/     M anipulation  |                                                 |
\*---------------------------------------------------------------------------*/
FoamFile
{
    version     2.0;
    format      ascii;
    arch        "LSB;label=32;scalar=64";
    class       volScalarField;
    location    "43.95";
    object      p;
}
// * * * * * * * * * * * * * * * * * * * * * * * * * * * * * * * * * * * * * //

dimensions      [0 2 -2 0 0 0 0];

internalField   nonuniform List<scalar> 
14400
(
0.0444323
0.0444447
0.0444552
0.0444677
0.04447
0.0444665
0.0444508
0.044427
0.0443926
0.0443512
0.0443024
0.044249
0.0441914
0.0441312
0.0440687
0.0440044
0.0439379
0.0438689
0.0437963
0.0437193
0.0436364
0.0435466
0.0434485
0.043341
0.0432229
0.0430931
0.0429508
0.0427951
0.0426251
0.04244
0.0422391
0.0420218
0.0417875
0.0415361
0.0412673
0.0409814
0.0406791
0.0403613
0.0400297
0.0396862
0.0393336
0.0389751
0.0386146
0.0382568
0.0379068
0.0375702
0.0372535
0.0369631
0.0367059
0.036489
0.0363194
0.0362039
0.0361486
0.0361595
0.0362415
0.0363983
0.0366327
0.036946
0.0373378
0.0378061
0.038347
0.0389546
0.0396211
0.0403369
0.0410901
0.0418674
0.0426539
0.0434333
0.0441885
0.0449019
0.045556
0.0461338
0.0466197
0.0469997
0.0472625
0.0473995
0.0474057
0.0472798
0.0470241
0.046645
0.0461525
0.0455596
0.0448822
0.044138
0.0433456
0.0425245
0.0416931
0.040869
0.040068
0.0393035
0.0385862
0.0379245
0.0373236
0.0367865
0.0363137
0.0359039
0.0355541
0.0352601
0.0350169
0.0348192
0.0346613
0.0345377
0.0344431
0.0343728
0.0343223
0.0342878
0.0342659
0.0342541
0.0342496
0.0342511
0.0342566
0.034266
0.0342773
0.034292
0.0343074
0.0343264
0.0343442
0.034364
0.0343779
0.0343872
0.0444198
0.0444322
0.0444369
0.0444447
0.0444422
0.0444363
0.0444195
0.0443966
0.0443643
0.0443262
0.0442812
0.0442321
0.0441786
0.0441223
0.0440633
0.0440019
0.043938
0.043871
0.0438003
0.0437251
0.0436441
0.0435565
0.0434611
0.0433568
0.0432426
0.0431176
0.0429807
0.0428313
0.0426684
0.0424912
0.042299
0.0420911
0.0418671
0.0416264
0.041369
0.041095
0.0408048
0.0404993
0.0401798
0.0398482
0.0395069
0.0391588
0.0388078
0.0384579
0.0381142
0.0377822
0.0374677
0.0371774
0.0369179
0.0366961
0.036519
0.0363932
0.0363251
0.0363205
0.0363845
0.0365209
0.0367328
0.0370214
0.0373868
0.0378272
0.0383389
0.0389164
0.0395523
0.0402372
0.0409598
0.041707
0.0424643
0.0432159
0.043945
0.0446345
0.045267
0.0458261
0.0462962
0.0466639
0.0469178
0.0470497
0.0470545
0.0469311
0.0466818
0.046313
0.0458345
0.0452593
0.0446028
0.0438825
0.0431168
0.0423244
0.0415233
0.0407305
0.0399609
0.0392274
0.03854
0.0379064
0.0373313
0.0368172
0.0363643
0.0359711
0.0356345
0.0353503
0.0351139
0.0349199
0.0347632
0.0346387
0.0345414
0.034467
0.0344113
0.034371
0.0343429
0.0343248
0.034314
0.0343096
0.0343092
0.0343132
0.0343191
0.0343285
0.0343383
0.0343517
0.0343632
0.0343779
0.0343867
0.0343963
0.0444092
0.0444274
0.0444323
0.0444418
0.0444388
0.044433
0.0444158
0.0443928
0.0443603
0.0443224
0.0442778
0.0442293
0.0441767
0.0441216
0.044064
0.0440043
0.0439421
0.0438771
0.0438084
0.0437353
0.0436567
0.0435714
0.0434785
0.0433769
0.0432656
0.0431437
0.0430102
0.0428644
0.0427052
0.042532
0.0423439
0.0421401
0.04192
0.0416831
0.041429
0.0411577
0.0408696
0.0405652
0.0402458
0.039913
0.039569
0.0392169
0.0388601
0.038503
0.0381504
0.0378079
0.0374817
0.0371784
0.0369049
0.0366683
0.0364758
0.0363345
0.036251
0.0362313
0.0362807
0.0364035
0.0366027
0.0368799
0.0372352
0.037667
0.0381717
0.0387438
0.039376
0.0400588
0.0407809
0.0415294
0.0422894
0.0430451
0.0437796
0.0444754
0.0451151
0.0456817
0.0461596
0.0465347
0.0467955
0.0469334
0.0469431
0.0468232
0.0465759
0.0462076
0.0457283
0.045151
0.0444918
0.0437682
0.0429993
0.0422041
0.0414013
0.0406082
0.03984
0.0391096
0.0384275
0.0378008
0.0372344
0.0367304
0.0362885
0.0359069
0.035582
0.0353093
0.0350836
0.0348995
0.0347515
0.0346344
0.0345433
0.0344737
0.0344218
0.0343842
0.0343578
0.0343407
0.0343302
0.0343256
0.0343246
0.0343277
0.0343323
0.0343406
0.0343487
0.0343613
0.0343713
0.0343869
0.0343954
0.0344106
0.0443955
0.0444188
0.0444226
0.0444323
0.0444273
0.0444208
0.0444023
0.0443791
0.0443467
0.0443096
0.0442664
0.0442199
0.0441697
0.0441174
0.0440628
0.0440064
0.0439475
0.043886
0.0438208
0.0437513
0.0436764
0.0435952
0.0435065
0.0434095
0.0433032
0.0431867
0.0430591
0.0429195
0.042767
0.0426007
0.0424195
0.0422227
0.0420091
0.0417782
0.0415292
0.0412619
0.0409763
0.0406726
0.0403517
0.0400151
0.0396648
0.0393036
0.038935
0.0385633
0.0381936
0.0378316
0.0374838
0.0371571
0.0368588
0.0365964
0.0363774
0.0362093
0.036099
0.0360528
0.0360762
0.0361737
0.0363486
0.0366025
0.0369356
0.0373466
0.0378318
0.0383862
0.0390023
0.039671
0.0403811
0.0411197
0.0418723
0.0426231
0.0433551
0.0440511
0.0446934
0.0452651
0.0457501
0.0461343
0.0464057
0.0465553
0.0465774
0.0464703
0.0462358
0.0458802
0.0454131
0.0448477
0.0441999
0.0434877
0.0427301
0.0419467
0.0411562
0.0403763
0.0396224
0.0389076
0.0382423
0.0376336
0.0370863
0.036602
0.0361803
0.0358188
0.0355134
0.0352593
0.0350508
0.0348822
0.0347477
0.034642
0.0345601
0.0344977
0.034451
0.0344169
0.0343925
0.0343761
0.0343653
0.0343596
0.0343568
0.0343578
0.0343595
0.0343651
0.0343698
0.0343798
0.0343864
0.0344017
0.0344087
0.03443
0.0443901
0.044419
0.0444236
0.0444356
0.0444302
0.0444237
0.0444038
0.0443797
0.044346
0.0443081
0.0442644
0.0442181
0.0441687
0.044118
0.0440655
0.0440118
0.0439561
0.0438982
0.0438368
0.0437713
0.0437005
0.0436233
0.0435388
0.043446
0.0433438
0.0432314
0.0431079
0.0429721
0.042823
0.0426594
0.0424801
0.0422838
0.0420692
0.0418352
0.0415809
0.0413054
0.0410084
0.04069
0.0403509
0.0399925
0.0396169
0.0392272
0.0388272
0.0384217
0.0380164
0.0376176
0.0372325
0.0368686
0.0365338
0.0362362
0.0359838
0.0357843
0.0356449
0.035572
0.0355714
0.0356473
0.0358032
0.0360406
0.0363598
0.0367592
0.0372355
0.0377833
0.0383954
0.0390628
0.0397743
0.0405173
0.0412772
0.0420383
0.0427838
0.043496
0.0441575
0.0447507
0.0452594
0.0456688
0.0459664
0.0461423
0.0461903
0.0461079
0.0458963
0.0455612
0.0451118
0.0445613
0.0439254
0.0432224
0.0424716
0.0416931
0.0409063
0.0401294
0.0393787
0.0386678
0.0380076
0.0374058
0.0368673
0.0363941
0.0359855
0.035639
0.0353502
0.0351139
0.0349237
0.0347735
0.0346569
0.0345681
0.0345016
0.0344531
0.0344184
0.0343944
0.0343784
0.0343686
0.0343628
0.034361
0.0343606
0.0343632
0.0343656
0.0343717
0.0343759
0.0343864
0.0343923
0.03441
0.0344173
0.0344457
0.044388
0.0444209
0.0444254
0.0444384
0.0444314
0.0444238
0.044402
0.0443763
0.044341
0.0443024
0.0442584
0.0442129
0.044165
0.0441167
0.0440674
0.0440175
0.043966
0.0439126
0.043856
0.0437954
0.0437294
0.0436572
0.0435775
0.0434894
0.0433919
0.0432839
0.0431642
0.0430316
0.0428848
0.042722
0.0425417
0.042342
0.0421212
0.0418776
0.0416098
0.0413165
0.0409973
0.040652
0.0402814
0.0398871
0.0394717
0.0390388
0.038593
0.0381398
0.0376858
0.0372381
0.0368045
0.0363933
0.036013
0.0356718
0.0353782
0.0351398
0.0349641
0.0348574
0.0348252
0.0348719
0.0350007
0.0352132
0.0355096
0.0358884
0.0363463
0.0368782
0.0374772
0.0381346
0.0388396
0.0395798
0.0403413
0.0411086
0.0418651
0.0425936
0.0432763
0.0438958
0.0444354
0.0448799
0.045216
0.0454331
0.0455239
0.0454848
0.0453163
0.0450227
0.0446128
0.0440988
0.0434961
0.0428226
0.042098
0.0413422
0.0405753
0.0398158
0.0390806
0.038384
0.0377375
0.0371492
0.0366246
0.0361659
0.0357728
0.0354428
0.0351716
0.0349537
0.0347824
0.0346513
0.0345534
0.0344826
0.0344331
0.0343999
0.0343787
0.0343666
0.0343603
0.0343585
0.0343589
0.0343617
0.0343644
0.0343692
0.0343725
0.0343791
0.0343827
0.0343932
0.0343979
0.034417
0.0344241
0.0344583
0.0443952
0.0444316
0.0444364
0.0444503
0.0444421
0.0444331
0.0444087
0.0443808
0.0443431
0.0443027
0.0442576
0.044212
0.044165
0.0441186
0.044072
0.0440257
0.0439784
0.0439295
0.0438777
0.0438219
0.0437607
0.0436929
0.0436173
0.0435326
0.0434378
0.0433314
0.0432119
0.0430777
0.0429268
0.042757
0.042566
0.0423514
0.0421108
0.041842
0.0415433
0.0412132
0.0408514
0.0404579
0.0400342
0.0395825
0.0391065
0.0386108
0.038101
0.0375839
0.0370668
0.0365579
0.0360656
0.0355987
0.035166
0.034776
0.0344371
0.0341569
0.0339427
0.0338006
0.033736
0.033753
0.0338547
0.0340425
0.0343166
0.0346757
0.0351165
0.0356342
0.0362224
0.0368727
0.0375748
0.0383169
0.0390856
0.039866
0.0406419
0.0413963
0.0421117
0.0427706
0.0433559
0.0438519
0.0442444
0.0445219
0.0446757
0.0447008
0.0445961
0.0443647
0.0440139
0.0435548
0.043002
0.042373
0.041687
0.0409642
0.0402248
0.0394882
0.0387718
0.0380907
0.0374572
0.0368803
0.0363662
0.0359179
0.0355355
0.0352172
0.0349588
0.0347549
0.034599
0.0344843
0.0344037
0.0343504
0.0343183
0.034302
0.0342967
0.0342991
0.0343058
0.0343153
0.0343252
0.0343359
0.034345
0.0343547
0.0343615
0.034371
0.0343761
0.0343883
0.0343936
0.0344149
0.0344225
0.0344615
0.0444086
0.0444473
0.0444516
0.0444652
0.0444547
0.0444434
0.0444157
0.0443848
0.0443443
0.044302
0.0442559
0.0442104
0.0441647
0.0441206
0.0440773
0.044035
0.0439922
0.0439482
0.0439013
0.0438502
0.0437934
0.0437294
0.0436568
0.0435741
0.0434796
0.0433716
0.043248
0.0431064
0.0429441
0.0427582
0.0425456
0.0423032
0.0420282
0.041718
0.0413708
0.0409856
0.0405622
0.0401019
0.0396069
0.0390809
0.0385286
0.037956
0.0373699
0.0367781
0.0361887
0.0356106
0.0350525
0.0345235
0.0340325
0.0335879
0.0331979
0.03287
0.0326111
0.0324271
0.032323
0.0323029
0.0323696
0.0325245
0.0327678
0.0330984
0.0335134
0.0340083
0.0345772
0.0352124
0.0359044
0.0366423
0.0374133
0.0382034
0.0389972
0.0397784
0.0405299
0.0412343
0.0418746
0.0424345
0.0428991
0.0432556
0.043494
0.0436074
0.0435929
0.0434515
0.0431886
0.0428135
0.0423395
0.0417826
0.0411614
0.0404958
0.0398061
0.0391118
0.038431
0.0377795
0.0371705
0.036614
0.0361169
0.0356831
0.0353137
0.0350073
0.0347606
0.0345685
0.0344251
0.0343234
0.0342566
0.0342178
0.0342003
0.0341987
0.0342077
0.0342236
0.0342428
0.0342636
0.0342833
0.0343023
0.0343182
0.0343335
0.0343444
0.0343571
0.0343641
0.034378
0.0343837
0.0344065
0.0344143
0.0344563
0.0444319
0.0444724
0.0444759
0.0444887
0.0444754
0.0444611
0.0444295
0.044395
0.0443511
0.0443063
0.0442587
0.044213
0.0441681
0.0441261
0.0440858
0.044047
0.0440083
0.0439685
0.0439257
0.0438782
0.0438242
0.043762
0.0436895
0.0436048
0.0435056
0.0433895
0.0432533
0.043094
0.0429078
0.0426911
0.04244
0.042151
0.0418211
0.0414478
0.0410299
0.0405671
0.0400606
0.0395129
0.0389278
0.0383103
0.0376668
0.0370043
0.0363308
0.0356549
0.0349854
0.0343313
0.0337019
0.0331061
0.0325527
0.0320499
0.0316056
0.031227
0.0309206
0.0306919
0.0305458
0.0304859
0.030515
0.0306343
0.0308443
0.0311437
0.0315301
0.0319996
0.0325467
0.0331644
0.0338443
0.0345763
0.0353487
0.0361487
0.0369617
0.0377724
0.0385645
0.0393211
0.0400254
0.0406608
0.0412119
0.0416647
0.0420075
0.0422318
0.0423321
0.042307
0.0421594
0.0418961
0.0415281
0.0410697
0.0405381
0.0399523
0.0393322
0.0386975
0.0380668
0.0374568
0.0368815
0.036352
0.0358765
0.0354597
0.035104
0.0348089
0.0345718
0.0343886
0.0342538
0.0341612
0.0341041
0.0340757
0.0340695
0.0340798
0.0341009
0.034129
0.03416
0.034192
0.034222
0.0342502
0.034274
0.0342961
0.0343125
0.0343296
0.0343398
0.0343562
0.0343634
0.0343876
0.0343958
0.0344392
0.0444638
0.0445051
0.0445072
0.044518
0.0445012
0.0444829
0.0444468
0.044408
0.0443604
0.0443131
0.044264
0.0442181
0.0441742
0.0441342
0.0440967
0.0440613
0.0440261
0.0439896
0.0439495
0.0439039
0.0438503
0.0437866
0.04371
0.0436178
0.0435069
0.0433737
0.0432141
0.0430241
0.0427989
0.0425342
0.0422258
0.0418701
0.0414643
0.0410071
0.040498
0.0399385
0.0393311
0.0386802
0.0379912
0.0372705
0.0365259
0.0357654
0.0349978
0.0342322
0.0334778
0.032744
0.0320397
0.0313739
0.030755
0.0301909
0.0296893
0.0292567
0.0288993
0.0286223
0.02843
0.0283259
0.0283124
0.0283908
0.0285615
0.0288234
0.0291745
0.0296113
0.030129
0.0307216
0.0313815
0.0320998
0.0328663
0.0336692
0.0344955
0.0353312
0.036161
0.0369692
0.0377394
0.0384553
0.0391012
0.0396624
0.0401259
0.0404809
0.0407198
0.0408382
0.0408357
0.0407162
0.0404873
0.0401609
0.0397516
0.0392769
0.0387557
0.0382072
0.0376501
0.0371019
0.0365774
0.0360891
0.0356462
0.0352551
0.034919
0.0346388
0.034413
0.0342387
0.0341111
0.0340248
0.0339737
0.0339517
0.0339524
0.0339703
0.0339997
0.0340365
0.0340764
0.0341173
0.0341558
0.0341921
0.0342231
0.0342515
0.0342732
0.0342945
0.034308
0.0343268
0.0343353
0.0343602
0.0343687
0.0344117
0.0445072
0.0445486
0.0445488
0.0445569
0.0445359
0.0445128
0.0444717
0.0444282
0.0443766
0.0443263
0.0442756
0.0442292
0.0441859
0.0441474
0.0441119
0.0440787
0.0440455
0.0440104
0.0439706
0.0439236
0.0438663
0.0437957
0.0437082
0.0436
0.0434667
0.0433036
0.0431057
0.0428676
0.0425842
0.0422506
0.0418629
0.0414181
0.0409145
0.0403521
0.0397323
0.0390583
0.0383347
0.0375674
0.0367633
0.0359305
0.0350775
0.0342134
0.0333474
0.0324891
0.0316478
0.0308328
0.030053
0.0293171
0.028633
0.0280084
0.0274502
0.0269646
0.0265571
0.0262326
0.0259947
0.0258467
0.0257906
0.0258276
0.0259579
0.0261806
0.026494
0.026895
0.0273796
0.0279425
0.0285772
0.0292761
0.0300302
0.0308293
0.0316621
0.0325161
0.0333776
0.0342322
0.0350648
0.0358599
0.036602
0.0372761
0.0378682
0.0383662
0.0387598
0.0390419
0.0392086
0.0392601
0.0392002
0.0390369
0.0387817
0.0384494
0.0380568
0.037622
0.0371634
0.0366986
0.0362435
0.0358115
0.0354135
0.0350573
0.0347478
0.0344873
0.0342757
0.0341113
0.0339905
0.033909
0.0338615
0.0338427
0.0338467
0.0338683
0.0339022
0.0339444
0.0339902
0.0340375
0.0340827
0.0341255
0.0341628
0.034197
0.0342238
0.0342494
0.0342663
0.0342874
0.0342978
0.0343229
0.0343317
0.0343729
0.0445623
0.0446028
0.0446006
0.0446048
0.044579
0.0445503
0.0445037
0.044455
0.0443993
0.044346
0.0442935
0.0442464
0.0442034
0.0441656
0.0441311
0.0440986
0.0440653
0.0440289
0.0439858
0.0439328
0.0438659
0.043781
0.0436733
0.0435377
0.0433686
0.04316
0.0429058
0.0426001
0.0422374
0.0418135
0.041325
0.0407703
0.0401496
0.0394646
0.038719
0.0379178
0.0370674
0.0361755
0.0352504
0.0343011
0.0333371
0.0323681
0.0314036
0.0304535
0.0295269
0.0286331
0.0277807
0.0269778
0.026232
0.0255503
0.0249388
0.0244034
0.0239487
0.0235789
0.0232973
0.0231065
0.0230082
0.0230034
0.0230921
0.0232736
0.0235461
0.0239073
0.0243535
0.0248803
0.0254824
0.0261533
0.0268854
0.0276703
0.0284983
0.0293587
0.0302399
0.0311293
0.0320133
0.0328779
0.0337085
0.0344908
0.0352104
0.0358542
0.0364103
0.0368689
0.0372228
0.0374682
0.0376045
0.0376353
0.0375676
0.0374124
0.0371831
0.0368956
0.0365669
0.036214
0.0358532
0.0354991
0.0351638
0.0348569
0.0345853
0.034353
0.0341617
0.034011
0.0338991
0.0338228
0.033778
0.0337603
0.0337647
0.0337867
0.0338215
0.0338651
0.0339132
0.0339635
0.0340124
0.0340593
0.0341009
0.0341392
0.0341699
0.0341988
0.0342186
0.0342413
0.0342531
0.0342778
0.0342867
0.0343248
0.0446315
0.0446701
0.044665
0.0446644
0.0446332
0.0445984
0.0445459
0.0444919
0.0444319
0.0443753
0.0443207
0.0442723
0.0442287
0.0441904
0.044155
0.0441207
0.0440842
0.0440423
0.0439906
0.0439249
0.0438401
0.0437307
0.0435905
0.043413
0.0431911
0.0429181
0.042587
0.0421921
0.0417283
0.0411924
0.0405826
0.0398995
0.0391452
0.0383237
0.0374408
0.0365036
0.0355201
0.0344994
0.0334511
0.032385
0.0313113
0.03024
0.029181
0.028144
0.0271381
0.026172
0.025254
0.0243915
0.0235915
0.0228601
0.0222028
0.0216245
0.0211292
0.0207204
0.0204006
0.020172
0.0200357
0.0199924
0.020042
0.0201837
0.020416
0.0207365
0.0211425
0.0216301
0.0221948
0.0228313
0.0235336
0.0242947
0.0251067
0.0259608
0.0268475
0.0277562
0.0286756
0.0295934
0.0304969
0.0313728
0.0322077
0.0329882
0.0337017
0.0343366
0.034883
0.0353334
0.0356829
0.0359301
0.0360771
0.0361295
0.0360965
0.0359899
0.035824
0.0356142
0.035376
0.0351246
0.0348732
0.0346333
0.0344136
0.0342204
0.0340575
0.0339266
0.0338274
0.0337584
0.0337169
0.0336998
0.0337032
0.0337234
0.0337562
0.0337982
0.0338455
0.0338958
0.0339455
0.0339939
0.0340377
0.0340783
0.0341117
0.0341427
0.0341647
0.0341885
0.0342015
0.0342252
0.034234
0.0342681
0.0447159
0.0447513
0.0447427
0.0447364
0.0446994
0.0446578
0.0445993
0.0445397
0.0444753
0.0444152
0.0443581
0.0443077
0.0442621
0.0442215
0.0441827
0.0441434
0.0440993
0.0440463
0.043979
0.0438919
0.0437785
0.0436316
0.0434438
0.0432069
0.0429132
0.0425551
0.0421259
0.0416203
0.0410348
0.0403679
0.03962
0.0387939
0.0378943
0.0369275
0.0359012
0.0348243
0.0337065
0.032558
0.0313894
0.0302112
0.0290339
0.0278679
0.026723
0.0256085
0.0245333
0.0235054
0.0225323
0.0216207
0.0207766
0.0200054
0.0193115
0.0186991
0.0181712
0.0177305
0.017379
0.0171181
0.0169486
0.0168708
0.0168843
0.0169882
0.0171811
0.0174609
0.0178252
0.0182708
0.018794
0.0193905
0.0200554
0.0207832
0.0215677
0.0224021
0.0232787
0.0241892
0.0251246
0.026075
0.0270297
0.0279776
0.0289066
0.0298045
0.0306589
0.0314577
0.0321893
0.0328435
0.0334118
0.0338879
0.0342686
0.0345538
0.0347469
0.0348545
0.0348864
0.0348545
0.0347725
0.0346544
0.0345141
0.0343642
0.0342155
0.0340767
0.033954
0.0338516
0.0337714
0.0337139
0.0336783
0.0336628
0.0336649
0.0336821
0.033711
0.0337489
0.0337926
0.0338399
0.0338876
0.0339348
0.0339782
0.0340189
0.034053
0.0340846
0.0341076
0.0341314
0.034145
0.0341671
0.0341756
0.0342052
0.0448177
0.0448483
0.044836
0.0448229
0.0447798
0.0447311
0.0446666
0.0446011
0.0445322
0.0444681
0.0444077
0.044354
0.0443047
0.044259
0.0442134
0.0441643
0.0441067
0.0440352
0.0439432
0.0438235
0.0436679
0.043468
0.0432147
0.0428991
0.0425127
0.0420482
0.0414997
0.0408636
0.0401383
0.0393246
0.0384256
0.0374466
0.0363947
0.0352784
0.0341074
0.0328921
0.0316436
0.0303731
0.0290918
0.0278108
0.0265408
0.0252919
0.0240736
0.0228949
0.0217636
0.0206873
0.0196722
0.0187243
0.0178484
0.0170489
0.0163295
0.015693
0.0151419
0.014678
0.0143027
0.0140167
0.0138204
0.0137137
0.0136959
0.0137662
0.013923
0.0141646
0.0144886
0.0148924
0.0153729
0.0159267
0.0165498
0.017238
0.0179864
0.0187899
0.0196428
0.0205388
0.0214711
0.0224322
0.023414
0.0244076
0.0254033
0.0263909
0.0273593
0.028297
0.0291924
0.0300339
0.0308105
0.0315125
0.0321317
0.0326624
0.0331017
0.0334498
0.0337105
0.0338904
0.0339992
0.0340482
0.0340503
0.0340184
0.0339645
0.0338997
0.0338329
0.0337709
0.0337186
0.0336791
0.0336536
0.0336423
0.0336444
0.0336586
0.0336829
0.0337154
0.0337535
0.0337955
0.0338387
0.0338823
0.033923
0.0339618
0.0339947
0.0340253
0.0340481
0.034071
0.0340844
0.0341045
0.0341124
0.0341372
0.0449379
0.0449621
0.0449456
0.0449249
0.0448757
0.0448194
0.0447489
0.0446774
0.0446038
0.044535
0.0444703
0.0444113
0.0443557
0.0443015
0.0442444
0.0441796
0.044101
0.0440017
0.0438735
0.0437075
0.0434942
0.0432234
0.0428852
0.0424702
0.0419703
0.0413791
0.0406925
0.039909
0.0390297
0.038058
0.037
0.0358633
0.0346575
0.0333931
0.0320814
0.0307343
0.0293639
0.0279821
0.0266007
0.0252307
0.0238825
0.022566
0.02129
0.0200625
0.0188905
0.0177804
0.0167374
0.0157664
0.014871
0.0140547
0.01332
0.0126691
0.0121034
0.0116242
0.0112321
0.0109275
0.0107102
0.0105797
0.0105354
0.0105761
0.0107003
0.0109064
0.0111922
0.0115554
0.0119936
0.0125037
0.0130828
0.0137273
0.0144339
0.0151985
0.016017
0.0168851
0.0177979
0.0187501
0.0197361
0.0207494
0.0217831
0.0228294
0.0238794
0.0249236
0.0259515
0.0269518
0.0279129
0.0288229
0.0296703
0.0304447
0.0311374
0.031742
0.0322551
0.0326766
0.0330099
0.0332618
0.0334415
0.0335605
0.033631
0.0336655
0.0336752
0.0336701
0.0336582
0.0336458
0.0336369
0.0336342
0.0336389
0.0336515
0.0336714
0.0336978
0.033729
0.0337642
0.0338009
0.0338386
0.0338745
0.0339091
0.033939
0.033967
0.0339881
0.034009
0.0340215
0.034039
0.034046
0.0340663
0.045078
0.0450941
0.0450732
0.0450441
0.0449887
0.0449248
0.0448483
0.0447705
0.0446917
0.0446172
0.0445464
0.0444798
0.0444143
0.044347
0.0442723
0.0441843
0.0440752
0.0439366
0.0437586
0.0435307
0.0432417
0.0428808
0.0424374
0.0419027
0.0412696
0.0405336
0.0396932
0.0387495
0.0377065
0.0365707
0.0353507
0.0340568
0.0327006
0.0312944
0.0298511
0.0283836
0.0269047
0.0254266
0.0239611
0.0225189
0.0211099
0.019743
0.0184262
0.0171662
0.015969
0.0148397
0.0137824
0.0128006
0.0118972
0.0110743
0.0103338
0.00967686
0.00910438
0.00861688
0.00821451
0.00789713
0.00766433
0.0075154
0.00744938
0.00746506
0.00756099
0.00773551
0.00798673
0.00831258
0.00871081
0.00917902
0.00971467
0.0103151
0.0109776
0.0116993
0.0124773
0.0133085
0.0141898
0.0151179
0.0160891
0.0170995
0.0181445
0.019219
0.0203171
0.0214316
0.0225545
0.0236763
0.0247862
0.0258724
0.0269219
0.0279215
0.0288581
0.0297194
0.0304952
0.0311777
0.0317626
0.0322498
0.0326426
0.0329485
0.0331775
0.0333418
0.0334543
0.0335275
0.033573
0.0336004
0.0336173
0.0336297
0.0336414
0.0336551
0.0336719
0.0336926
0.0337167
0.033744
0.0337728
0.0338031
0.0338323
0.0338611
0.0338862
0.03391
0.033928
0.0339459
0.0339567
0.0339714
0.0339773
0.0339935
0.0452386
0.0452448
0.0452193
0.0451811
0.0451198
0.045048
0.0449657
0.0448811
0.0447963
0.0447145
0.0446354
0.0445578
0.0444781
0.0443917
0.0442921
0.0441715
0.0440208
0.0438295
0.0435861
0.0432787
0.0428952
0.0424243
0.0418561
0.0411828
0.0403994
0.0395042
0.0384984
0.0373864
0.0361752
0.0348743
0.0334948
0.0320494
0.0305515
0.029015
0.0274537
0.0258813
0.0243108
0.0227544
0.0212232
0.0197273
0.0182757
0.016876
0.0155348
0.0142579
0.0130497
0.0119141
0.010854
0.00987188
0.00896953
0.00814828
0.00740909
0.00675254
0.00617891
0.00568821
0.00528023
0.00495448
0.00471031
0.00454682
0.00446295
0.00445743
0.00452883
0.00467553
0.00489578
0.0051877
0.00554929
0.00597847
0.00647311
0.00703104
0.00765012
0.00832823
0.0090633
0.00985333
0.0106964
0.0115905
0.0125339
0.0135243
0.0145597
0.0156372
0.0167536
0.0179048
0.0190854
0.0202888
0.0215065
0.0227284
0.0239424
0.0251345
0.0262895
0.0273914
0.0284241
0.0293728
0.0302253
0.0309725
0.0316102
0.0321386
0.0325629
0.0328925
0.0331398
0.0333188
0.0334438
0.0335283
0.0335841
0.0336208
0.0336458
0.0336647
0.033681
0.0336974
0.0337146
0.0337336
0.0337538
0.0337754
0.0337966
0.0338179
0.0338367
0.0338549
0.0338687
0.0338827
0.033891
0.0339026
0.0339073
0.0339199
0.0454201
0.0454143
0.0453843
0.0453364
0.0452696
0.0451897
0.0451015
0.0450096
0.0449176
0.0448264
0.0447359
0.044643
0.0445435
0.0444308
0.0442973
0.0441332
0.0439276
0.0436684
0.0433427
0.0429374
0.0424403
0.0418403
0.0411291
0.0403011
0.039354
0.0382892
0.0371112
0.0358277
0.034449
0.0329871
0.0314557
0.0298693
0.0282429
0.0265914
0.0249294
0.0232705
0.0216276
0.0200122
0.0184345
0.0169033
0.0154264
0.0140101
0.0126595
0.0113789
0.0101715
0.00903999
0.00798622
0.00701158
0.00611703
0.00530317
0.00457031
0.0039185
0.00334759
0.00285724
0.00244693
0.002116
0.00186361
0.00168877
0.00159037
0.00156712
0.00161762
0.00174032
0.00193358
0.00219566
0.00252475
0.00291898
0.00337651
0.00389549
0.00447417
0.0051109
0.00580416
0.00655264
0.00735519
0.0082109
0.00911902
0.0100789
0.0110901
0.0121518
0.0132631
0.0144226
0.0156278
0.0168752
0.0181595
0.0194735
0.0208076
0.0221495
0.0234842
0.0247943
0.0260609
0.0272637
0.0283834
0.0294024
0.030307
0.0310883
0.0317435
0.032276
0.0326945
0.0330123
0.0332451
0.0334095
0.0335216
0.0335956
0.033643
0.0336733
0.0336931
0.0337074
0.033719
0.0337302
0.0337415
0.0337538
0.0337659
0.0337787
0.03379
0.0338015
0.0338099
0.0338192
0.0338244
0.0338329
0.0338361
0.0338461
0.0456217
0.045602
0.0455677
0.0455096
0.0454377
0.0453496
0.0452553
0.0451549
0.0450541
0.0449507
0.044845
0.0447315
0.0446054
0.0444578
0.0442798
0.0440595
0.0437846
0.0434411
0.0430153
0.0424936
0.0418645
0.0411183
0.0402489
0.0392535
0.0381334
0.0368934
0.0355415
0.0340886
0.0325479
0.030934
0.0292627
0.0275501
0.025812
0.024064
0.0223207
0.0205953
0.0188997
0.0172444
0.0156383
0.0140888
0.012602
0.0111827
0.00983466
0.00856079
0.00736313
0.00624315
0.0052018
0.00423966
0.00335699
0.00255382
0.00182999
0.00118517
0.000618928
0.00013068
-0.00028025
-0.000614653
-0.000873432
-0.0010576
-0.00116829
-0.00120674
-0.00117432
-0.00107246
-0.000902729
-0.000666732
-0.000366137
-2.62941e-06
0.000422121
0.000906499
0.00144899
0.00204823
0.00270304
0.00341249
0.00417593
0.00499303
0.00586378
0.00678849
0.00776773
0.00880229
0.00989296
0.0110404
0.0122447
0.0135054
0.0148203
0.0161858
0.0175958
0.0190411
0.0205094
0.0219847
0.0234477
0.0248759
0.026245
0.0275307
0.02871
0.029764
0.0306794
0.0314503
0.0320783
0.0325724
0.032947
0.0332203
0.0334119
0.0335406
0.0336232
0.0336736
0.0337026
0.0337184
0.0337265
0.033731
0.0337336
0.0337364
0.0337389
0.0337424
0.0337453
0.0337492
0.0337514
0.0337555
0.0337569
0.0337623
0.0337639
0.0337721
0.0458419
0.0458065
0.0457682
0.0456996
0.045623
0.0455263
0.0454255
0.0453151
0.0452032
0.0450842
0.0449584
0.044818
0.0446571
0.0444647
0.0442302
0.0439399
0.0435799
0.0431351
0.0425914
0.0419359
0.0411583
0.0402514
0.0392121
0.0380411
0.0367434
0.0353274
0.0338047
0.0321892
0.0304968
0.0287442
0.0269488
0.0251277
0.0232972
0.0214727
0.0196681
0.0178958
0.0161664
0.0144888
0.0128702
0.0113166
0.00983229
0.00842067
0.00708413
0.00582427
0.00464211
0.0035382
0.00251273
0.00156565
0.000696718
-9.44426e-05
-0.000808307
-0.00144543
-0.00200643
-0.002492
-0.00290289
-0.00323993
-0.00350403
-0.00369618
-0.00381748
-0.00386909
-0.00385231
-0.00376848
-0.00361906
-0.00340554
-0.00312947
-0.0027924
-0.00239586
-0.00194132
-0.00143014
-0.000863534
-0.000242492
0.000432253
0.00116029
0.00194158
0.00277648
0.00366579
0.00461076
0.00561301
0.00667448
0.0077973
0.00898355
0.0102349
0.0115524
0.0129355
0.0143819
0.0158867
0.0174413
0.0190333
0.0206459
0.0222573
0.023842
0.0253713
0.0268156
0.0281464
0.0293393
0.0303769
0.03125
0.0319592
0.032514
0.032931
0.0332314
0.0334381
0.033573
0.0336557
0.0337022
0.0337249
0.0337327
0.0337322
0.0337271
0.0337206
0.0337134
0.0337073
0.0337011
0.0336969
0.0336923
0.0336907
0.033688
0.0336904
0.0336903
0.0336976
0.046078
0.0460251
0.0459832
0.0459039
0.045823
0.0457173
0.0456091
0.0454868
0.0453608
0.0452218
0.0450703
0.0448954
0.0446905
0.044442
0.0441381
0.0437628
0.0433016
0.0427386
0.0420605
0.0412554
0.0403158
0.0392373
0.0380205
0.0366701
0.0351949
0.033607
0.0319212
0.0301542
0.0283242
0.0264496
0.0245485
0.0226385
0.0207357
0.0188547
0.0170083
0.0152073
0.0134607
0.0117757
0.0101578
0.00861104
0.0071384
0.00574181
0.00442244
0.00318087
0.00201724
0.000931398
-7.70307e-05
-0.00100854
-0.00186371
-0.00264316
-0.00334755
-0.00397754
-0.00453384
-0.00501716
-0.00542826
-0.00576794
-0.00603708
-0.0062366
-0.00636752
-0.00643095
-0.00642805
-0.00636008
-0.00622839
-0.00603435
-0.0057794
-0.00546496
-0.00509246
-0.00466326
-0.00417862
-0.00363965
-0.00304728
-0.00240215
-0.00170459
-0.000954553
-0.000151563
0.000705354
0.00161769
0.00258746
0.00361719
0.00470986
0.00586873
0.00709715
0.00839819
0.00977425
0.0112264
0.0127536
0.0143519
0.0160137
0.0177262
0.0194716
0.0212263
0.0229611
0.024643
0.0262368
0.0277083
0.0290278
0.0301733
0.0311334
0.0319079
0.0325077
0.0329522
0.0332662
0.0334764
0.0336082
0.0336836
0.0337208
0.033733
0.0337303
0.033719
0.033704
0.0336873
0.0336714
0.033656
0.0336434
0.0336316
0.0336241
0.033617
0.0336164
0.0336146
0.0336217
0.046326
0.0462542
0.0462093
0.046119
0.046034
0.0459186
0.0458017
0.045665
0.0455214
0.0453571
0.0451731
0.0449553
0.0446961
0.0443793
0.043992
0.0435167
0.0429383
0.0422414
0.041414
0.0404465
0.0393345
0.0380776
0.0366802
0.0351512
0.0335032
0.0317518
0.0299147
0.028011
0.0260605
0.0240824
0.0220955
0.0201167
0.0181613
0.0162427
0.014372
0.0125581
0.0108081
0.00912746
0.00751981
0.00598771
0.00453268
0.00315546
0.0018562
0.000634673
-0.000509633
-0.00157738
-0.0025693
-0.00348618
-0.00432877
-0.00509784
-0.00579409
-0.00641823
-0.00697095
-0.00745294
-0.00786492
-0.00820762
-0.00848184
-0.00868843
-0.00882833
-0.00890251
-0.00891206
-0.00885814
-0.00874195
-0.00856477
-0.00832792
-0.00803272
-0.00768049
-0.00727251
-0.00680997
-0.00629391
-0.00572522
-0.00510455
-0.00443223
-0.00370825
-0.00293216
-0.00210305
-0.00121943
-0.00027924
0.000720196
0.00178216
0.00291049
0.00410943
0.00538343
0.00673682
0.0081733
0.00969527
0.011303
0.0129937
0.01476
0.0165895
0.0184631
0.020355
0.0222327
0.0240582
0.0257909
0.0273908
0.0288226
0.0300604
0.0310906
0.0319132
0.0325414
0.0329983
0.0333129
0.033516
0.0336363
0.0336985
0.0337219
0.0337211
0.0337059
0.0336837
0.0336581
0.0336328
0.0336082
0.0335871
0.0335679
0.0335545
0.0335427
0.0335394
0.0335358
0.0335433
0.0465805
0.0464887
0.0464412
0.0463399
0.0462508
0.0461246
0.0459973
0.0458431
0.0456775
0.0454821
0.045258
0.0449879
0.0446632
0.0442655
0.0437807
0.0431904
0.0424801
0.0416352
0.0406463
0.0395069
0.0382162
0.0367782
0.0352015
0.0334991
0.0316872
0.0297844
0.027811
0.0257879
0.0237357
0.0216741
0.0196211
0.0175929
0.0156032
0.0136637
0.0117833
0.00996922
0.00822649
0.00655862
0.00496777
0.00345504
0.00202076
0.0006647
-0.000613754
-0.00181543
-0.00294129
-0.0039923
-0.00496942
-0.00587355
-0.00670555
-0.00746618
-0.00815615
-0.00877614
-0.00932677
-0.00980867
-0.0102225
-0.0105689
-0.0108485
-0.0110622
-0.0112107
-0.011295
-0.011316
-0.0112747
-0.0111723
-0.0110099
-0.0107887
-0.01051
-0.0101749
-0.00978468
-0.00934042
-0.00884314
-0.0082937
-0.00769275
-0.0070407
-0.00633761
-0.00558317
-0.00477661
-0.00391663
-0.00300135
-0.00202824
-0.000994091
0.000104997
0.00127357
0.00251672
0.00383986
0.00524841
0.00674726
0.00834006
0.0100283
0.0118101
0.0136788
0.0156217
0.0176187
0.0196416
0.0216543
0.023614
0.025474
0.0271884
0.0287167
0.0300293
0.0311113
0.0319639
0.0326035
0.0330578
0.0333607
0.0335471
0.0336491
0.0336932
0.0337002
0.0336845
0.033657
0.0336234
0.0335893
0.0335557
0.0335263
0.0334997
0.0334804
0.0334639
0.0334579
0.0334525
0.0334608
0.0468351
0.0467223
0.0466728
0.0465602
0.0464668
0.0463285
0.0461885
0.0460131
0.0458204
0.0455872
0.0453149
0.0449824
0.0445807
0.0440889
0.0434929
0.0427738
0.0419185
0.0409142
0.0397548
0.0384375