/*--------------------------------*- C++ -*----------------------------------*\
| =========                 |                                                 |
| \\      /  F ield         | OpenFOAM: The Open Source CFD Toolbox           |
|  \\    /   O peration     | Version:  2406                                  |
|   \\  /    A nd           | Website:  www.openfoam.com                      |
|    \\/     M anipulation  |                                                 |
\*---------------------------------------------------------------------------*/
FoamFile
{
    version     2.0;
    format      ascii;
    arch        "LSB;label=32;scalar=64";
    class       surfaceScalarField;
    location    "18.45";
    object      phi;
}
// * * * * * * * * * * * * * * * * * * * * * * * * * * * * * * * * * * * * * //

dimensions      [0 3 -1 0 0 0 0];

oriented        oriented;

internalField   nonuniform List<scalar> 
28560
(
7.45424e-09
-7.45701e-09
2.53561e-08
-1.83432e-08
4.65019e-08
-2.1122e-08
6.48473e-08
-1.86169e-08
7.81854e-08
-1.33482e-08
8.52091e-08
-7.11472e-09
8.62806e-08
-1.00687e-09
8.18229e-08
4.52895e-09
7.27426e-08
9.24394e-09
5.97339e-08
1.32026e-08
4.35086e-08
1.64749e-08
2.45275e-08
1.92639e-08
3.12772e-09
2.17205e-08
-2.05581e-08
2.40394e-08
-4.65265e-08
2.6355e-08
-7.49116e-08
2.88071e-08
-1.0594e-07
3.14861e-08
-1.39917e-07
3.44771e-08
-1.77205e-07
3.78323e-08
-2.18211e-07
4.15998e-08
-2.63371e-07
4.58099e-08
-3.13153e-07
5.04926e-08
-3.68046e-07
5.56708e-08
-4.28564e-07
6.13701e-08
-4.95245e-07
6.76139e-08
-5.68653e-07
7.44289e-08
-6.49378e-07
8.18415e-08
-7.38037e-07
8.98793e-08
-8.35274e-07
9.85684e-08
-9.41756e-07
1.07933e-07
-1.05817e-06
1.17992e-07
-1.18521e-06
1.28759e-07
-1.32359e-06
1.40238e-07
-1.474e-06
1.52419e-07
-1.6371e-06
1.6528e-07
-1.81354e-06
1.78777e-07
-2.00387e-06
1.92847e-07
-2.20858e-06
2.074e-07
-2.42803e-06
2.22318e-07
-2.66243e-06
2.37452e-07
-2.91182e-06
2.52616e-07
-3.17602e-06
2.6759e-07
-3.45457e-06
2.82114e-07
-3.74674e-06
2.95888e-07
-4.05147e-06
3.08577e-07
-4.36731e-06
3.19806e-07
-4.69243e-06
3.2917e-07
-5.02455e-06
3.36235e-07
-5.36097e-06
3.40546e-07
-5.6985e-06
3.41638e-07
-6.0335e-06
3.39043e-07
-6.36189e-06
3.32309e-07
-6.67915e-06
3.21006e-07
-6.98039e-06
3.04749e-07
-7.26038e-06
2.8321e-07
-7.51366e-06
2.56138e-07
-7.73459e-06
2.23375e-07
-7.91751e-06
1.84871e-07
-8.05681e-06
1.40704e-07
-8.1471e-06
9.10861e-08
-8.18334e-06
3.63819e-08
-8.161e-06
-2.289e-08
-8.07625e-06
-8.60515e-08
-7.92604e-06
-1.52268e-07
-7.70832e-06
-2.20556e-07
-7.42214e-06
-2.89796e-07
-7.06778e-06
-3.58754e-07
-6.64681e-06
-4.26105e-07
-6.16219e-06
-4.90469e-07
-5.61824e-06
-5.50444e-07
-5.02068e-06
-6.04655e-07
-4.37649e-06
-6.51793e-07
-3.69385e-06
-6.90666e-07
-2.98194e-06
-7.20246e-07
-2.25079e-06
-7.3971e-07
-1.51096e-06
-7.48481e-07
-7.73345e-07
-7.46259e-07
-4.88151e-08
-7.33037e-07
6.52043e-07
-7.0912e-07
1.31924e-06
-6.75108e-07
1.94368e-06
-6.31891e-07
2.51737e-06
-5.80607e-07
3.03369e-06
-5.22608e-07
3.48747e-06
-4.594e-07
3.87517e-06
-3.92588e-07
4.19485e-06
-3.2381e-07
4.44616e-06
-2.54672e-07
4.63025e-06
-1.86694e-07
4.74964e-06
-1.21253e-07
4.80804e-06
-5.9541e-08
4.81011e-06
-2.53822e-09
4.76124e-06
4.90082e-08
4.66735e-06
9.45886e-08
4.53462e-06
1.33922e-07
4.36929e-06
1.66943e-07
4.17749e-06
1.93772e-07
3.96505e-06
2.14695e-07
3.73742e-06
2.30118e-07
3.49952e-06
2.4055e-07
3.25572e-06
2.46555e-07
3.00981e-06
2.48744e-07
2.76494e-06
2.47723e-07
2.52368e-06
2.44112e-07
2.28801e-06
2.38471e-07
2.05941e-06
2.31369e-07
1.83882e-06
2.23252e-07
1.62685e-06
2.14597e-07
1.42365e-06
2.0566e-07
1.22932e-06
1.96785e-07
1.04363e-06
1.87913e-07
8.66737e-07
1.79193e-07
6.98658e-07
1.70018e-07
5.40508e-07
1.60274e-07
3.93655e-07
1.48398e-07
2.61488e-07
1.34065e-07
1.4824e-07
1.14215e-07
6.05598e-08
8.92249e-08
5.8055e-09
5.4998e-08
-1.23483e-08
1.92437e-08
-1.23627e-08
1.86482e-08
-2.5662e-08
5.19123e-08
-5.15982e-08
8.74459e-08
-5.61106e-08
1.14995e-07
-4.60367e-08
1.30361e-07
-2.84315e-08
1.30804e-07
-7.5422e-09
1.16539e-07
1.32483e-08
8.82656e-08
3.26167e-08
4.76423e-08
4.961e-08
-3.85487e-09
6.43284e-08
-6.47341e-08
7.69113e-08
-1.33935e-07
8.79443e-08
-2.10703e-07
9.79037e-08
-2.94712e-07
1.07402e-07
-3.85969e-07
1.16903e-07
-4.84806e-07
1.26871e-07
-5.91807e-07
1.37644e-07
-7.07768e-07
1.49521e-07
-8.33652e-07
1.62715e-07
-9.70555e-07
1.7741e-07
-1.11968e-06
1.93737e-07
-1.28232e-06
2.11821e-07
-1.45984e-06
2.3176e-07
-1.6537e-06
2.53656e-07
-1.86541e-06
2.77601e-07
-2.09655e-06
3.03693e-07
-2.3488e-06
3.32021e-07
-2.62385e-06
3.62675e-07
-2.92347e-06
3.9573e-07
-3.24947e-06
4.31249e-07
-3.60367e-06
4.69269e-07
-3.98788e-06
5.09794e-07
-4.40387e-06
5.52788e-07
-4.85334e-06
5.9816e-07
-5.33784e-06
6.45756e-07
-5.85875e-06
6.95348e-07
-6.41718e-06
7.4662e-07
-7.01392e-06
7.99158e-07
-7.64936e-06
8.5244e-07
-8.3234e-06
9.05829e-07
-9.03533e-06
9.58564e-07
-9.78381e-06
1.00976e-06
-1.05667e-05
1.05839e-06
-1.1381e-05
1.10332e-06
-1.22229e-05
1.14331e-06
-1.30874e-05
1.17698e-06
-1.39687e-05
1.20291e-06
-1.48597e-05
1.2196e-06
-1.57524e-05
1.22552e-06
-1.66375e-05
1.21917e-06
-1.75051e-05
1.19909e-06
-1.8344e-05
1.16393e-06
-1.91425e-05
1.11245e-06
-1.98879e-05
1.04366e-06
-2.05675e-05
9.56766e-07
-2.1168e-05
8.51303e-07
-2.16763e-05
7.2713e-07
-2.20795e-05
5.84486e-07
-2.23655e-05
4.24026e-07
-2.25227e-05
2.46838e-07
-2.25411e-05
5.44617e-08
-2.24118e-05
-1.51108e-07
-2.2128e-05
-3.67433e-07
-2.16848e-05
-5.91653e-07
-2.10795e-05
-8.20521e-07
-2.03121e-05
-1.05046e-06
-1.93851e-05
-1.27761e-06
-1.83036e-05
-1.49795e-06
-1.70758e-05
-1.70733e-06
-1.57125e-05
-1.90161e-06
-1.42271e-05
-2.0768e-06
-1.26356e-05
-2.22911e-06
-1.09561e-05
-2.35511e-06
-9.20889e-06
-2.45186e-06
-7.4156e-06
-2.517e-06
-5.59906e-06
-2.54883e-06
-3.78272e-06
-2.54644e-06
-1.99011e-06
-2.50974e-06
-2.44323e-07
-2.43947e-06
1.43257e-06
-2.33722e-06
3.02002e-06
-2.20542e-06
4.49953e-06
-2.04722e-06
5.85507e-06
-1.86641e-06
7.07343e-06
-1.66731e-06
8.14454e-06
-1.45459e-06
9.06155e-06
-1.23314e-06
9.82097e-06
-1.00784e-06
1.04225e-05
-7.83434e-07
1.08691e-05
-5.64373e-07
1.11663e-05
-3.54646e-07
1.13223e-05
-1.57688e-07
1.13473e-05
2.37064e-08
1.12531e-05
1.87426e-07
1.10527e-05
3.32056e-07
1.07597e-05
4.5686e-07
1.03881e-05
5.61729e-07
9.95141e-06
6.47117e-07
9.46293e-06
7.13946e-07
8.93499e-06
7.63531e-07
8.37891e-06
7.97459e-07
7.80484e-06
8.17533e-07
7.22158e-06
8.25637e-07
6.63666e-06
8.23725e-07
6.05621e-06
8.13663e-07
5.48517e-06
7.97294e-07
4.92719e-06
7.76204e-07
4.38507e-06
7.51909e-07
3.86058e-06
7.25444e-07
3.35518e-06
6.97772e-07
2.86971e-06
6.68999e-07
2.40569e-06
6.39253e-07
1.96457e-06
6.07117e-07
1.54984e-06
5.71604e-07
1.16565e-06
5.28983e-07
8.19793e-07
4.77352e-07
5.20827e-07
4.10164e-07
2.81289e-07
3.27406e-07
1.11654e-07
2.22416e-07
1.96703e-08
1.11271e-07
6.22332e-09
2.15858e-08
-4.72913e-08
5.61713e-08
-8.67215e-08
8.86497e-08
-8.86135e-08
1.06862e-07
-6.45962e-08
1.05954e-07
-2.75902e-08
8.28165e-08
1.54851e-08
3.77325e-08
5.83891e-08
-2.82894e-08
9.87425e-08
-1.13144e-07
1.34673e-07
-2.14852e-07
1.66309e-07
-3.3148e-07
1.9388e-07
-4.61611e-07
2.18473e-07
-6.04279e-07
2.41021e-07
-7.59091e-07
2.62715e-07
-9.26139e-07
2.84497e-07
-1.10597e-06
3.07309e-07
-1.29953e-06
3.31857e-07
-1.50808e-06
3.5878e-07
-1.73313e-06
3.88544e-07
-1.97642e-06
4.21559e-07
-2.23989e-06
4.58135e-07
-2.5256e-06
4.98556e-07
-2.83578e-06
5.43058e-07
-3.17276e-06
5.91871e-07
-3.53902e-06
6.45205e-07
-3.93712e-06
7.03265e-07
-4.36972e-06
7.66238e-07
-4.83957e-06
8.34292e-07
-5.34947e-06
9.0756e-07
-5.90225e-06
9.86128e-07
-6.50071e-06
1.07002e-06
-7.14759e-06
1.15917e-06
-7.8455e-06
1.2534e-06
-8.59686e-06
1.35244e-06
-9.40375e-06
1.45581e-06
-1.02679e-05
1.56291e-06
-1.11905e-05
1.67291e-06
-1.21722e-05
1.78477e-06
-1.32128e-05
1.89722e-06
-1.43113e-05
2.00873e-06
-1.54656e-05
2.11752e-06
-1.66724e-05
2.22157e-06
-1.79274e-05
2.31859e-06
-1.92248e-05
2.40608e-06
-2.05572e-05
2.48133e-06
-2.19159e-05
2.54148e-06
-2.32907e-05
2.58357e-06
-2.46696e-05
2.60457e-06
-2.60396e-05
2.60153e-06
-2.7386e-05
2.57156e-06
-2.86931e-05
2.512e-06
-2.99439e-05
2.42048e-06
-3.1121e-05
2.29499e-06
-3.22062e-05
2.134e-06
-3.31813e-05
1.93655e-06
-3.40282e-05
1.7023e-06
-3.47291e-05
1.4316e-06
-3.52673e-05
1.12554e-06
-3.56273e-05
7.86e-07
-3.5795e-05
4.1566e-07
-3.57584e-05
1.79937e-08
-3.55076e-05
-4.02748e-07
-3.50354e-05
-8.41572e-07
-3.43373e-05
-1.29281e-06
-3.34119e-05
-1.75017e-06
-3.22608e-05
-2.2069e-06
-3.0889e-05
-2.65583e-06
-2.9305e-05
-3.08955e-06
-2.75204e-05
-3.50055e-06
-2.55502e-05
-3.88141e-06
-2.34125e-05
-4.22495e-06
-2.11283e-05
-4.52444e-06
-1.87214e-05
-4.77379e-06
-1.62178e-05
-4.96772e-06
-1.36454e-05
-5.10195e-06
-1.10336e-05
-5.17338e-06
-8.41252e-06
-5.1802e-06
-5.81274e-06
-5.12199e-06
-3.26449e-06
-4.99982e-06
-7.97068e-07
-4.81623e-06
1.56177e-06
-4.57517e-06
3.78643e-06
-4.28198e-06
5.85402e-06
-3.9432e-06
7.74487e-06
-3.56635e-06
9.4429e-06
-3.15975e-06
1.0936e-05
-2.73222e-06
1.2216e-05
-2.29278e-06
1.32792e-05
-1.85038e-06
1.41257e-05
-1.41356e-06
1.47597e-05
-9.90254e-07
1.51888e-05
-5.87502e-07
1.5424e-05
-2.1129e-07
1.54789e-05
1.33584e-07
1.53692e-05
4.43577e-07
1.5112e-05
7.16417e-07
1.47256e-05
9.51052e-07
1.42285e-05
1.14757e-06
1.3639e-05
1.30706e-06
1.2975e-05
1.43148e-06
1.22531e-05
1.52343e-06
1.14887e-05
1.58607e-06
1.06957e-05
1.62285e-06
9.88615e-06
1.63744e-06
9.07046e-06
1.63348e-06
8.25727e-06
1.61456e-06
7.45347e-06
1.58391e-06
6.66467e-06
1.54456e-06
5.89501e-06
1.49872e-06
5.1481e-06
1.44829e-06
4.42661e-06
1.39376e-06
3.73395e-06
1.33526e-06
3.07334e-06
1.27058e-06
2.45052e-06
1.19751e-06
1.87165e-06
1.11009e-06
1.34758e-06
1.00421e-06
8.88936e-07
8.70116e-07
5.12394e-07
7.06406e-07
2.29966e-07
5.04775e-07
5.81047e-08
2.85394e-07
6.40148e-08
1.86209e-08
-6.56552e-08
4.33857e-08
-1.11551e-07
5.84839e-08
-1.0339e-07
5.20832e-08
-5.81496e-08
1.95753e-08
5.06067e-09
-4.16206e-08
7.66936e-08
-1.30904e-07
1.47659e-07
-2.46833e-07
2.14584e-07
-3.87006e-07
2.74704e-07
-5.49116e-07
3.28228e-07
-7.31022e-07
3.75542e-07
-9.31147e-07
4.1832e-07
-1.1485e-06
4.58049e-07
-1.38274e-06
4.96601e-07
-1.63414e-06
5.35503e-07
-1.90353e-06
5.76275e-07
-2.19224e-06
6.20098e-07
-2.50201e-06
6.68034e-07
-2.83492e-06
7.20898e-07
-3.19338e-06
7.794e-07
-3.58002e-06
8.44107e-07
-3.99772e-06
9.15528e-07
-4.44957e-06
9.94099e-07
-4.93881e-06
1.08023e-06
-5.46887e-06
1.1743e-06
-6.0433e-06
1.27664e-06
-6.66578e-06
1.38757e-06
-7.34008e-06
1.50733e-06
-8.06999e-06
1.63609e-06
-8.85929e-06
1.77392e-06
-9.71168e-06
1.92077e-06
-1.06307e-05
2.07639e-06
-1.16196e-05
2.24035e-06
-1.26812e-05
2.41197e-06
-1.38179e-05
2.59029e-06
-1.50315e-05
2.77402e-06
-1.63227e-05
2.96154e-06
-1.76915e-05
3.15083e-06
-1.91368e-05
3.33948e-06
-2.06559e-05
3.52464e-06
-2.22448e-05
3.7031e-06
-2.38979e-05
3.8712e-06
-2.5608e-05
4.02497e-06
-2.73658e-05
4.16007e-06
-2.91604e-05
4.27196e-06
-3.0979e-05
4.35592e-06
-3.28068e-05
4.40718e-06
-3.46274e-05
4.421e-06
-3.6423e-05
4.39286e-06
-3.81742e-05
4.31854e-06
-3.98606e-05
4.19427e-06
-4.1461e-05
4.01688e-06
-4.29537e-05
3.7839e-06
-4.4317e-05
3.49371e-06
-4.55293e-05
3.14563e-06
-4.65698e-05
2.73996e-06
-4.74188e-05
2.27812e-06
-4.80577e-05
1.76262e-06
-4.84702e-05
1.19712e-06
-4.86417e-05
5.86397e-07
-4.856e-05
-6.36795e-08
-4.82159e-05
-7.4619e-07
-4.76028e-05
-1.45325e-06
-4.67172e-05
-2.17611e-06
-4.55592e-05
-2.90524e-06
-4.41317e-05
-3.63054e-06
-4.24415e-05
-4.34142e-06
-4.04987e-05
-5.02702e-06
-3.83168e-05
-5.67642e-06
-3.59127e-05
-6.27882e-06
-3.33065e-05
-6.82382e-06
-3.05216e-05
-7.30162e-06
-2.75838e-05
-7.70332e-06
-2.45219e-05
-8.02112e-06
-2.13665e-05
-8.2486e-06
-1.81501e-05
-8.38096e-06
-1.49064e-05
-8.41516e-06
-1.16696e-05
-8.35013e-06
-8.47414e-06
-8.18686e-06
-5.35389e-06
-7.92843e-06
-2.34145e-06
-7.58003e-06
5.32434e-07
-7.14883e-06
3.23948e-06
-6.64384e-06
5.75449e-06
-6.07563e-06
8.05583e-06
-5.4561e-06
1.01259e-05
-4.79805e-06
1.19514e-05
-4.11484e-06
1.35236e-05
-3.41992e-06
1.48385e-05
-2.72646e-06
1.58963e-05
-2.04692e-06
1.67021e-05
-1.39269e-06
1.72644e-05
-7.73787e-07
1.75959e-05
-1.98586e-07
1.7712e-05
3.26308e-07
1.76306e-05
7.96165e-07
1.73716e-05
1.20812e-06
1.69557e-05
1.56112e-06
1.64045e-05
1.85572e-06
1.57393e-05
2.09398e-06
1.49807e-05
2.27916e-06
1.41484e-05
2.41549e-06
1.32604e-05
2.5079e-06
1.23331e-05
2.56179e-06
1.13809e-05
2.58272e-06
1.04164e-05
2.57624e-06
9.44999e-06
2.54751e-06
8.49058e-06
2.50132e-06
7.54522e-06
2.44141e-06
6.62026e-06
2.37084e-06
5.72072e-06
2.29079e-06
4.85235e-06
2.20152e-06
4.02031e-06
2.10025e-06
3.23252e-06
1.98362e-06
2.49665e-06
1.8437e-06
1.8258e-06
1.67406e-06
1.23154e-06
1.46215e-06
7.33875e-07
1.20414e-06
3.46519e-07
8.89611e-07
9.66083e-08
5.36835e-07
1.59026e-07
1.15139e-08
-7.72257e-08
1.83424e-08
-1.18571e-07
5.48391e-09
-9.05853e-08
-3.71655e-08
-1.56026e-08
-1.1342e-07
8.12479e-08
-2.24643e-07
1.87907e-07
-3.69617e-07
2.92634e-07
-5.46197e-07
3.91241e-07
-7.51648e-07
4.80239e-07
-9.83337e-07
5.60068e-07
-1.23903e-06
6.31398e-07
-1.51711e-06
6.96608e-07
-1.81669e-06
7.57846e-07
-2.13759e-06
8.17771e-07
-2.48041e-06
8.78594e-07
-2.84632e-06
9.42504e-07
-3.23713e-06
1.01124e-06
-3.65512e-06
1.08639e-06
-4.10301e-06
1.16919e-06
-4.5839e-06
1.26074e-06
-5.10123e-06
1.36192e-06
-5.65873e-06
1.47356e-06
-6.26041e-06
1.59635e-06
-6.91047e-06
1.73094e-06
-7.61338e-06
1.8779e-06
-8.37372e-06
2.03775e-06
-9.19623e-06
2.21092e-06
-1.00857e-05
2.39772e-06
-1.10469e-05
2.59832e-06
-1.20846e-05
2.81271e-06
-1.32033e-05
3.04063e-06
-1.44072e-05
3.28153e-06
-1.56999e-05
3.53453e-06
-1.70848e-05
3.79832e-06
-1.8564e-05
4.07116e-06
-2.0139e-05
4.35078e-06
-2.181e-05
4.63438e-06
-2.35757e-05
4.91857e-06
-2.54334e-05
5.19936e-06
-2.73787e-05
5.47219e-06
-2.94051e-05
5.7319e-06
-3.15042e-05
5.97284e-06
-3.36655e-05
6.18889e-06
-3.58762e-05
6.3736e-06
-3.81217e-05
6.52027e-06
-4.0385e-05
6.62214e-06
-4.26473e-05
6.67253e-06
-4.48883e-05
6.66501e-06
-4.7086e-05
6.59361e-06
-4.92175e-05
6.45297e-06
-5.12588e-05
6.23854e-06
-5.31858e-05
5.94674e-06
-5.49744e-05
5.57509e-06
-5.66005e-05
5.12233e-06
-5.80411e-05
4.58854e-06
-5.92743e-05
3.97516e-06
-6.02796e-05
3.2851e-06
-6.10384e-05
2.52264e-06
-6.15339e-05
1.69354e-06
-6.1752e-05
8.04888e-07
-6.16808e-05
-1.34878e-07
-6.13115e-05
-1.1161e-06
-6.06378e-05
-2.12798e-06
-5.96569e-05
-3.15871e-06
-5.83687e-05
-4.19561e-06
-5.67768e-05
-5.22527e-06
-5.48878e-05
-6.23377e-06
-5.27118e-05
-7.20686e-06
-5.02623e-05
-8.13019e-06
-4.75564e-05
-8.98956e-06
-4.46142e-05
-9.77122e-06
-4.14592e-05
-1.04622e-05
-3.8118e-05
-1.10504e-05
-3.46199e-05
-1.15253e-05
-3.09967e-05
-1.18779e-05
-2.72826e-05
-1.21013e-05
-2.35132e-05
-1.21908e-05
-1.97255e-05
-1.2144e-05
-1.59569e-05
-1.19614e-05
-1.22449e-05
-1.16461e-05
-8.62632e-06
-1.1204e-05
-5.13641e-06
-1.06437e-05
-1.80845e-06
-9.97635e-06
1.32704e-06
-9.21521e-06
4.24293e-06
-8.37556e-06
6.91601e-06
-7.47416e-06
9.32738e-06
-6.52871e-06
1.14629e-05
-5.55737e-06
1.33132e-05
-4.57823e-06
1.48741e-05
-3.60872e-06
1.61462e-05
-2.66514e-06
1.71346e-05
-1.76221e-06
1.78491e-05
-9.12663e-07
1.83032e-05
-1.26998e-07
1.85138e-05
5.86725e-07
1.85004e-05
1.22295e-06
1.82845e-05
1.77861e-06
1.7889e-05
2.25298e-06
1.73374e-05
2.64749e-06
1.66531e-05
2.96546e-06
1.58589e-05
3.21176e-06
1.49764e-05
3.39247e-06
1.40258e-05
3.51454e-06
1.30252e-05
3.58536e-06
1.1991e-05
3.61249e-06
1.09374e-05
3.60315e-06
9.87656e-06
3.56409e-06
8.81894e-06
3.50083e-06
7.77386e-06
3.41782e-06
6.74901e-06
3.31722e-06
5.75269e-06
3.19965e-06
4.79208e-06
3.06212e-06
3.87729e-06
2.90022e-06
3.01734e-06
2.70442e-06
2.22749e-06
2.4658e-06
1.52038e-06
2.16919e-06
9.19843e-07
1.80697e-06
4.42518e-07
1.36543e-06
1.26642e-07
8.55909e-07
2.84572e-07
1.77124e-09
-7.89993e-08
-1.5689e-08
-1.00914e-07
-6.52831e-08
-4.10298e-08
-1.54043e-07
7.33129e-08
-2.84411e-07
2.11572e-07
-4.55898e-07
3.59478e-07
-6.66418e-07
5.03083e-07
-9.12876e-07
6.37701e-07
-1.19217e-06
7.59428e-07
-1.50134e-06
8.69161e-07
-1.83813e-06
9.68046e-07
-2.20096e-06
1.05931e-06
-2.58919e-06
1.1459e-06
-3.00294e-06
1.23134e-06
-3.44319e-06
1.31863e-06
-3.91161e-06
1.4107e-06
-4.41056e-06
1.50995e-06
-4.94297e-06
1.61854e-06
-5.5123e-06
1.73822e-06
-6.12245e-06
1.87057e-06
-6.77775e-06
2.01687e-06
-7.48288e-06
2.17831e-06
-8.24288e-06
2.35592e-06
-9.06304e-06
2.55064e-06
-9.94891e-06
2.76327e-06
-1.09062e-05
2.99453e-06
-1.19409e-05
3.24494e-06
-1.30587e-05
3.51487e-06
-1.42655e-05
3.80441e-06
-1.55669e-05
4.11335e-06
-1.69682e-05
4.44108e-06
-1.84742e-05
4.78657e-06
-2.00889e-05
5.14821e-06
-2.18155e-05
5.52382e-06
-2.3656e-05
5.91052e-06
-2.56112e-05
6.30471e-06
-2.76802e-05
6.70201e-06
-2.98603e-05
7.09723e-06
-3.21469e-05
7.48441e-06
-3.45331e-05
7.85679e-06
-3.70099e-05
8.20694e-06
-3.95657e-05
8.52683e-06
-4.21867e-05
8.80795e-06
-4.48566e-05
9.0415e-06
-4.75569e-05
9.21858e-06
-5.02673e-05
9.33038e-06
-5.29653e-05
9.36843e-06
-5.56272e-05
9.32482e-06
-5.82282e-05
9.19244e-06
-6.07426e-05
8.96519e-06
-6.31442e-05
8.63815e-06
-6.54073e-05
8.20777e-06
-6.75061e-05
7.67201e-06
-6.94159e-05
7.03038e-06
-7.1113e-05
6.28407e-06
-7.25751e-05
5.43596e-06
-7.37817e-05
4.49058e-06
-7.47141e-05
3.45414e-06
-7.53556e-05
2.33445e-06
-7.56918e-05
1.1409e-06
-7.57109e-05
-1.15699e-07
-7.54034e-05
-1.42312e-06
-7.47626e-05
-2.76789e-06
-7.37847e-05
-4.13539e-06
-7.24687e-05
-5.50998e-06
-7.08167e-05
-6.8752e-06
-6.88341e-05
-8.21394e-06
-6.65296e-05
-9.50862e-06
-6.39152e-05
-1.07415e-05
-6.10063e-05
-1.1895e-05
-5.78221e-05
-1.29517e-05
-5.43851e-05
-1.38953e-05
-5.07211e-05
-1.47102e-05
-4.68595e-05
-1.53827e-05
-4.28323e-05
-1.59007e-05
-3.86747e-05
-1.62545e-05
-3.44239e-05
-1.64372e-05
-3.01191e-05
-1.64445e-05
-2.58006e-05
-1.62757e-05
-2.15095e-05
-1.59332e-05
-1.72868e-05
-1.5423e-05
-1.31724e-05
-1.47546e-05
-9.20483e-06
-1.39407e-05
-5.42016e-06
-1.2997e-05
-1.85136e-06
-1.19418e-05
1.47235e-06
-1.07957e-05
4.5261e-06
-9.58067e-06
7.28975e-06
-8.31963e-06
9.74833e-06
-7.03578e-06
1.18921e-05
-5.75186e-06
1.37168e-05
-4.48951e-06
1.52233e-05
-3.26868e-06
1.64175e-05
-2.10712e-06
1.73099e-05
-1.01994e-06
1.79151e-05
-1.93117e-08
1.82514e-05
8.8568e-07
1.83398e-05
1.68912e-06
1.82034e-05
2.38815e-06
1.78667e-05
2.98283e-06
1.73549e-05
3.4758e-06
1.66933e-05
3.87197e-06
1.59062e-05
4.17804e-06
1.50171e-05
4.40215e-06
1.40477e-05
4.55326e-06
1.3018e-05
4.6408e-06
1.19457e-05
4.67401e-06
1.08468e-05
4.66167e-06
9.73495e-06
4.61123e-06
8.62287e-06
4.52873e-06
7.52112e-06
4.41759e-06
6.44076e-06
4.27906e-06
5.3912e-06
4.11029e-06
4.38478e-06
3.90605e-06
3.43209e-06
3.65558e-06
2.55056e-06
3.34737e-06
1.75421e-06
2.96361e-06
1.07073e-06
2.4916e-06
5.20247e-07
1.91295e-06
1.50725e-07
1.22827e-06
4.33279e-07
-9.88336e-09
-6.93648e-08
-5.63651e-08
-5.41075e-08
-1.49442e-07
5.16984e-08
-2.92151e-07
2.16216e-07
-4.85068e-07
4.04285e-07
-7.25335e-07
5.99872e-07
-1.00974e-06
7.87394e-07
-1.334e-06
9.62068e-07
-1.69456e-06
1.11998e-06
-2.08807e-06
1.26279e-06
-2.51233e-06
1.39236e-06
-2.96585e-06
1.51296e-06
-3.44832e-06
1.62847e-06
-3.96025e-06
1.74342e-06
-4.50316e-06
1.86168e-06
-5.07932e-06
1.98703e-06
-5.6918e-06
2.1226e-06
-6.34428e-06
2.27122e-06
-7.0411e-06
2.43525e-06
-7.78709e-06
2.61679e-06
-8.58762e-06
2.81765e-06
-9.44847e-06
3.03945e-06
-1.03758e-05
3.2836e-06
-1.13762e-05
3.55138e-06
-1.24565e-05
3.84387e-06
-1.36235e-05
4.16196e-06
-1.48844e-05
4.50628e-06
-1.62462e-05
4.87714e-06
-1.77157e-05
5.27446e-06
-1.92995e-05
5.6977e-06
-2.10035e-05
6.1457e-06
-2.2833e-05
6.61668e-06
-2.47921e-05
7.10806e-06
-2.68839e-05
7.6164e-06
-2.91098e-05
8.13733e-06
-3.14697e-05
8.66551e-06
-3.39613e-05
9.19455e-06
-3.658e-05
9.71704e-06
-3.93191e-05
1.02246e-05
-4.21692e-05
1.0708e-05
-4.51181e-05
1.11571e-05
-4.81514e-05
1.15614e-05
-5.12518e-05
1.19097e-05
-5.43998e-05
1.21909e-05
-5.75738e-05
1.2394e-05
-6.075e-05
1.25082e-05
-6.39036e-05
1.25235e-05
-6.70081e-05
1.24309e-05
-7.00366e-05
1.22224e-05
-7.29617e-05
1.18918e-05
-7.5756e-05
1.14339e-05
-7.83926e-05
1.08458e-05
-8.08453e-05
1.0126e-05
-8.30888e-05
9.27509e-06
-8.50991e-05
8.29546e-06
-8.68536e-05
7.19142e-06
-8.83314e-05
5.96914e-06
-8.95133e-05
4.63658e-06
-9.03819e-05
3.20344e-06
-9.0922e-05
1.68112e-06
-9.11204e-05
8.25705e-08
-9.09662e-05
-1.57771e-06
-9.04509e-05
-3.28383e-06
-8.95686e-05
-5.01861e-06
-8.83161e-05
-6.76366e-06
-8.66931e-05
-8.49961e-06
-8.47026e-05
-1.02062e-05
-8.23505e-05
-1.18627e-05
-7.96466e-05
-1.34477e-05
-7.6604e-05
-1.494e-05
-7.32397e-05
-1.63186e-05
-6.95746e-05
-1.75631e-05
-6.56334e-05
-1.86543e-05
-6.14447e-05
-1.95744e-05
-5.70406e-05
-2.03078e-05
-5.24569e-05
-2.08414e-05
-4.77324e-05
-2.11649e-05
-4.29083e-05
-2.12716e-05
-3.80284e-05
-2.11586e-05
-3.31373e-05
-2.0827e-05
-2.82808e-05
-2.02823e-05
-2.35039e-05
-1.95339e-05
-1.88512e-05
-1.85958e-05
-1.43647e-05
-1.74855e-05
-1.00841e-05
-1.62243e-05
-6.04509e-06
-1.48362e-05
-2.27938e-06
-1.33477e-05
1.18645e-06
-1.17865e-05
4.33113e-06
-1.01812e-05
7.13908e-06
-8.56029e-06
9.60053e-06
-6.95121e-06
1.17115e-05
-5.37972e-06
1.34738e-05
-3.86921e-06
1.48944e-05
-2.44011e-06
1.59851e-05
-1.10948e-06
1.67621e-05
1.09299e-07
1.72453e-05
1.20667e-06
1.74575e-05
2.17685e-06
1.74235e-05
3.01773e-06
1.71698e-05
3.73057e-06
1.67231e-05
4.31965e-06
1.61104e-05
4.79176e-06
1.5358e-05
5.15571e-06
1.44905e-05
5.4217e-06
1.35316e-05
5.60079e-06
1.25025e-05
5.70413e-06
1.14227e-05
5.74251e-06
1.03094e-05
5.72535e-06
9.1787e-06
5.66047e-06
8.04419e-06
5.55279e-06
6.91988e-06
5.40444e-06
5.81759e-06
5.21302e-06
4.75212e-06
4.97271e-06
3.73591e-06
4.67178e-06
2.78878e-06
4.29603e-06
1.9267e-06
3.82483e-06
1.1812e-06
3.23945e-06
5.76117e-07
2.51559e-06
1.67282e-07
1.64097e-06
5.98864e-07
-2.2986e-08
-4.67084e-08
-1.02379e-07
2.5983e-08
-2.44606e-07
1.93427e-07
-4.47913e-07
4.19938e-07
-7.1055e-07
6.66647e-07
-1.02682e-06
9.16366e-07
-1.39218e-06
1.15258e-06
-1.80093e-06
1.37092e-06
-2.24905e-06
1.56797e-06
-2.73273e-06
1.74649e-06
-3.24988e-06
1.90939e-06
-3.79916e-06
2.0622e-06
-4.38071e-06
2.20991e-06
-4.99555e-06
2.35818e-06
-5.64586e-06
2.51187e-06
-6.33463e-06
2.6757e-06
-7.0658e-06
2.85362e-06
-7.84397e-06
3.04925e-06
-8.6745e-06
3.26562e-06
-9.56336e-06
3.50548e-06
-1.05171e-05
3.77121e-06
-1.15428e-05
4.06494e-06
-1.2648e-05
4.38854e-06
-1.38405e-05
4.74367e-06
-1.51286e-05
5.13169e-06
-1.65205e-05
5.55364e-06
-1.80248e-05
6.01019e-06
-1.96495e-05
6.50151e-06
-2.14026e-05
7.02721e-06
-2.32915e-05
7.58618e-06
-2.53228e-05
8.17651e-06
-2.75019e-05
8.79534e-06
-2.98331e-05
9.43877e-06
-3.23191e-05
1.01017e-05
-3.49603e-05
1.0778e-05
-3.77555e-05
1.146e-05
-4.07005e-05
1.21389e-05
-4.37889e-05
1.28047e-05
-4.70114e-05
1.34463e-05
-5.03559e-05
1.40516e-05
-5.38073e-05
1.46077e-05
-5.7348e-05
1.51012e-05
-6.09578e-05
1.55185e-05
-6.46141e-05
1.58463e-05
-6.82926e-05
1.60714e-05
-7.1967e-05
1.61815e-05
-7.56101e-05
1.61655e-05
-7.91939e-05
1.60135e-05
-8.26897e-05
1.57172e-05
-8.60691e-05
1.52701e-05
-8.93037e-05
1.46676e-05
-9.23659e-05
1.39071e-05
-9.52289e-05
1.29881e-05
-9.78668e-05
1.19122e-05
-0.000100255
1.06829e-05
-0.00010237
9.30588e-06
-0.00010419
7.78875e-06
-0.000105695
6.14098e-06
-0.000106866
4.37393e-06
-0.000107685
2.50073e-06
-0.000108139
5.36223e-07
-0.000108213
-1.50308e-06
-0.000107897
-3.59912e-06
-0.000107183
-5.73233e-06
-0.000106064
-7.8818e-06
-0.000104537
-1.00254e-05
-0.000102602
-1.21397e-05
-0.000100262
-1.42009e-05
-9.75245e-05
-1.6184e-05
-9.43987e-05
-1.8064e-05
-9.08995e-05
-1.98159e-05
-8.70453e-05
-2.14153e-05
-8.2859e-05
-2.28384e-05
-7.8368e-05
-2.40633e-05
-7.36037e-05
-2.50699e-05
-6.86021e-05
-2.58407e-05
-6.3403e-05
-2.63618e-05
-5.80497e-05
-2.66227e-05
-5.25888e-05
-2.66174e-05
-4.7069e-05
-2.63448e-05
-4.15409e-05
-2.58085e-05
-3.60553e-05
-2.50177e-05
-3.0663e-05
-2.39864e-05
-2.54133e-05
-2.27337e-05
-2.03532e-05
-2.12831e-05
-1.55262e-05
-1.96622e-05
-1.09714e-05
-1.79016e-05
-6.72287e-06
-1.60342e-05
-2.80914e-06
-1.40944e-05
7.47594e-07
-1.21167e-05
3.93151e-06
-1.01349e-05
6.73325e-06
-8.18143e-06
9.14984e-06
-6.28591e-06
1.11844e-05
-4.4749e-06
1.28457e-05
-2.77112e-06
1.41475e-05
-1.19304e-06
1.51083e-05
2.4532e-07
1.57501e-05
1.53447e-06
1.60978e-05
2.66938e-06
1.61784e-05
3.64921e-06
1.60205e-05
4.47693e-06
1.56527e-05
5.15879e-06
1.51038e-05
5.70381e-06
1.44018e-05
6.12298e-06
1.35732e-05
6.42868e-06
1.26428e-05
6.63376e-06
1.16338e-05
6.75091e-06
1.05668e-05
6.79157e-06
9.46131e-06
6.76541e-06
8.33428e-06
6.67903e-06
7.20273e-06
6.53566e-06
6.0812e-06
6.33364e-06
4.98711e-06
6.0668e-06
3.93509e-06
5.72261e-06
2.94756e-06
5.28418e-06
2.04272e-06
4.72785e-06
1.25567e-06
4.02826e-06
6.1366e-07
3.15437e-06
1.78319e-07
2.07993e-06
7.7495e-07
-3.73164e-08
-9.94478e-09
-1.52773e-07
1.42403e-07
-3.48752e-07
3.88606e-07
-6.18104e-07
6.89839e-07
-9.56371e-07
1.00449e-06
-1.35465e-06
1.31495e-06
-1.80685e-06
1.60456e-06
-2.30572e-06
1.86997e-06
-2.84668e-06
2.10884e-06
-3.42549e-06
2.32543e-06
-4.04018e-06
2.52406e-06
-4.68964e-06
2.71176e-06
-5.37456e-06
2.89485e-06
-6.09656e-06
3.08028e-06
-6.85867e-06
3.27403e-06
-7.66476e-06
3.48188e-06
-8.51976e-06
3.70871e-06
-9.42942e-06
3.95902e-06
-1.04003e-05
4.23662e-06
-1.14397e-05
4.54501e-06
-1.25556e-05
4.88721e-06
-1.37565e-05
5.26598e-06
-1.50514e-05
5.68366e-06
-1.64499e-05
6.14233e-06
-1.79616e-05
6.64359e-06
-1.95964e-05
7.18863e-06
-2.1364e-05
7.77802e-06
-2.32739e-05
8.41168e-06
-2.53351e-05
9.08867e-06
-2.75557e-05
9.8071e-06
-2.99429e-05
1.0564e-05
-3.25022e-05
1.1355e-05
-3.52377e-05
1.21747e-05
-3.81513e-05
1.30157e-05
-4.12425e-05
1.38696e-05
-4.45083e-05
1.47262e-05
-4.79427e-05
1.55739e-05
-5.1537e-05
1.63996e-05
-5.52793e-05
1.71891e-05
-5.91544e-05
1.79273e-05
-6.31447e-05
1.85985e-05
-6.72293e-05
1.91865e-05
-7.13854e-05
1.96753e-05
-7.55877e-05
2.00493e-05
-7.98093e-05
2.02937e-05
-8.40219e-05
2.03949e-05
-8.81964e-05
2.03408e-05
-9.23032e-05
2.01211e-05
-9.63123e-05
1.97271e-05
-0.000100194
1.91527e-05
-0.000103919
1.83935e-05
-0.000107459
1.74478e-05
-0.000110786
1.63157e-05
-0.000113873
1.49998e-05
-0.000116695
1.35047e-05
-0.000119226
1.18374e-05
-0.000121443
1.00066e-05
-0.000123325
8.02326e-06
-0.000124852
5.90027e-06
-0.000126003
3.65236e-06
-0.000126763
1.29608e-06
-0.000127116
-1.15019e-06
-0.000127049
-3.66637e-06
-0.000126552
-6.23074e-06
-0.000125614
-8.82001e-06
-0.000124231
-1.14094e-05
-0.000122399
-1.39728e-05
-0.000120117
-1.64831e-05
-0.000117391
-1.8912e-05
-0.000114225
-2.12307e-05
-0.000110632
-2.34103e-05
-0.000106627
-2.54219e-05
-0.00010223
-2.72371e-05
-9.74654e-05
-2.88292e-05
-9.23638e-05
-3.0173e-05
-8.696e-05
-3.12461e-05
-8.12938e-05
-3.20295e-05
-7.54098e-05
-3.25082e-05
-6.93566e-05
-3.2672e-05
-6.31867e-05
-3.25161e-05
-5.69552e-05
-3.20414e-05
-5.07191e-05
-3.12551e-05
-4.4536e-05
-3.01706e-05
-3.84631e-05
-2.88076e-05
-3.25557e-05
-2.71914e-05
-2.68662e-05
-2.53524e-05
-2.14429e-05
-2.33256e-05
-1.63285e-05
-2.11491e-05
-1.156e-05
-1.88633e-05
-7.16743e-06
-1.65095e-05
-3.17377e-06
-1.41287e-05
4.05379e-07
-1.17606e-05
3.5617e-06
-9.44216e-06
6.29391e-06
-7.20695e-06
8.60733e-06
-5.08429e-06
1.05133e-05
-3.09868e-06
1.20284e-05
-1.26946e-06
1.3174e-05
3.89352e-07
1.39748e-05
1.86903e-06
1.44586e-05
3.16591e-06
1.4655e-05
4.28099e-06
1.45949e-05
5.21944e-06
1.43093e-05
5.98993e-06
1.3829e-05
6.60384e-06
1.31837e-05
7.07452e-06
1.24016e-05
7.41631e-06
1.15094e-05
7.64363e-06
1.05314e-05
7.76994e-06
9.49067e-06
7.80678e-06
8.40734e-06
7.7626e-06
7.30178e-06
7.64191e-06
6.19144e-06
7.444e-06
5.09659e-06
7.16254e-06
4.0344e-06
6.78437e-06
3.02999e-06
6.28996e-06
2.10412e-06
5.65247e-06
1.29505e-06
4.83969e-06
6.33053e-07
3.81345e-06
1.83608e-07
2.53351e-06
9.56553e-07
-5.27391e-08
4.20889e-08
-2.07044e-07
2.98055e-07
-4.6078e-07
6.41303e-07
-8.00854e-07
1.03068e-06
-1.21977e-06
1.42286e-06
-1.70511e-06
1.80068e-06
-2.24906e-06
2.14822e-06
-2.84273e-06
2.46384e-06
-3.48094e-06
2.74688e-06
-4.15903e-06
3.0036e-06
-4.8752e-06
3.24012e-06
-5.62868e-06
3.46526e-06
-6.42082e-06
3.6869e-06
-7.254e-06
3.91345e-06
-8.13221e-06
4.15216e-06
-9.06039e-06
4.41002e-06
-1.00447e-05
4.69296e-06
-1.10922e-05
5.00645e-06
-1.22109e-05
5.35525e-06
-1.34097e-05
5.74367e-06
-1.4698e-05
6.17548e-06
-1.60863e-05
6.6541e-06
-1.75851e-05
7.18242e-06
-1.92058e-05
7.76289e-06
-2.09597e-05
8.39736e-06
-2.28583e-05
9.08703e-06
-2.49127e-05
9.83227e-06
-2.71337e-05
1.06325e-05
-2.95313e-05
1.14861e-05
-3.21143e-05
1.23899e-05
-3.48902e-05
1.33396e-05
-3.78645e-05
1.43291e-05
-4.10406e-05
1.53505e-05
-4.44196e-05
1.63944e-05
-4.79995e-05
1.74492e-05
-5.17754e-05
1.85018e-05
-5.57391e-05
1.95372e-05
-5.98793e-05
2.05393e-05
-6.41811e-05
2.14906e-05
-6.86268e-05
2.23726e-05
-7.31954e-05
2.31667e-05
-7.78635e-05
2.38541e-05
-8.2605e-05
2.44164e-05
-8.73923e-05
2.48361e-05
-9.21961e-05
2.50969e-05
-9.69859e-05
2.51842e-05
-0.000101731
2.5085e-05
-0.000106399
2.47887e-05
-0.000110959
2.42868e-05
-0.00011538
2.35731e-05
-0.000119631
2.26441e-05
-0.000123682
2.14984e-05
-0.000127504
2.01371e-05
-0.000131068
1.85639e-05
-0.000134348
1.67845e-05
-0.000137319
1.48071e-05
-0.000139954
1.26419e-05
-0.000142232
1.03013e-05
-0.000144132
7.79965e-06
-0.000145633
5.15326e-06
-0.000146717
2.3804e-06
-0.000147368
-4.98831e-07
-0.000147571
-3.46255e-06
-0.000147315
-6.48713e-06
-0.000146587
-9.54722e-06
-0.00014538
-1.26159e-05
-0.000143687
-1.56646e-05
-0.000141506
-1.86634e-05
-0.000138836
-2.15811e-05
-0.00013568
-2.43857e-05
-0.000132045
-2.70441e-05
-0.000127943
-2.95234e-05
-0.000123388
-3.17906e-05
-0.000118403
-3.38137e-05
-0.000113012
-3.55621e-05
-0.00010725
-3.70077e-05
-0.000101152
-3.81255e-05
-9.47649e-05
-3.88947e-05
-8.81363e-05
-3.92995e-05
-8.13215e-05
-3.93299e-05
-7.43794e-05
-3.89825e-05
-6.73726e-05
-3.82611e-05
-6.03656e-05
-3.71768e-05
-5.3424e-05
-3.57485e-05
-4.66125e-05
-3.40021e-05
-3.99939e-05
-3.19705e-05
-3.36268e-05
-2.96923e-05
-2.75648e-05
-2.72107e-05
-2.18551e-05
-2.45727e-05
-1.65375e-05
-2.18269e-05
-1.16439e-05
-1.90223e-05
-7.1974e-06
-1.6207e-05
-3.21301e-06
-1.34266e-05
3.02742e-07
-1.07228e-05
3.35107e-06
-8.13279e-06
5.94039e-06
-5.68822e-06
8.08549e-06
-3.41482e-06