/*--------------------------------*- C++ -*----------------------------------*\
| =========                 |                                                 |
| \\      /  F ield         | OpenFOAM: The Open Source CFD Toolbox           |
|  \\    /   O peration     | Version:  2406                                  |
|   \\  /    A nd           | Website:  www.openfoam.com                      |
|    \\/     M anipulation  |                                                 |
\*---------------------------------------------------------------------------*/
FoamFile
{
    version     2.0;
    format      ascii;
    arch        "LSB;label=32;scalar=64";
    class       volScalarField;
    location    "14.4";
    object      p;
}
// * * * * * * * * * * * * * * * * * * * * * * * * * * * * * * * * * * * * * //

dimensions      [0 2 -2 0 0 0 0];

internalField   nonuniform List<scalar> 
900
(
2.42292e-06
-2.44138e-05
-7.64347e-05
-0.000171931
-0.000280976
-0.000433791
-0.000595135
-0.000787048
-0.000988794
-0.00122636
-0.00149519
-0.00178689
-0.00202061
-0.00208748
-0.00192999
-0.00153438
-0.000883169
0.000131439
0.00152498
0.00333501
0.0052941
0.00722176
0.00851386
0.00902351
0.0083681
0.00729548
0.00611974
0.00567794
0.00536367
0.00544364
2.10851e-05
-8.15086e-06
-5.32367e-05
-0.000144472
-0.000244693
-0.000385752
-0.000526522
-0.000687951
-0.000845382
-0.00102325
-0.00121669
-0.00143756
-0.00167546
-0.0018898
-0.00197104
-0.00180247
-0.00133321
-0.0004607
0.000816352
0.00253174
0.00442113
0.00631918
0.00763675
0.00821715
0.00766354
0.00672458
0.00571079
0.00547552
0.00532193
0.00545559
7.72772e-05
2.87699e-05
-1.26316e-05
-0.000112481
-0.000217263
-0.000369982
-0.000520244
-0.000693926
-0.000872116
-0.00110747
-0.00144127
-0.00192744
-0.00252025
-0.00309732
-0.00351825
-0.00364256
-0.00338701
-0.00263921
-0.0014321
0.000270661
0.0022106
0.00427122
0.00590232
0.00689395
0.00678736
0.00609068
0.00518112
0.00495682
0.00486813
0.00501632
0.000181643
0.000114399
8.64132e-05
-1.3882e-05
-0.000112242
-0.000267909
-0.000427441
-0.000639006
-0.000916428
-0.00136531
-0.00205727
-0.00301426
-0.00413
-0.0052198
-0.00608251
-0.0065483
-0.00656142
-0.00602637
-0.00502665
-0.00349233
-0.00166984
0.000459709
0.00243499
0.00411144
0.0049709
0.00512361
0.00478555
0.00464671
0.00450478
0.00460642
0.000244989
0.000156441
0.00013715
2.42636e-05
-8.5677e-05
-0.000275783
-0.000499685
-0.000852331
-0.00140738
-0.00232611
-0.00365324
-0.00529072
-0.00699399
-0.00851085
-0.00966241
-0.0103096
-0.0104535
-0.0100214
-0.00917347
-0.00780453
-0.00618937
-0.00413797
-0.00201672
0.000245024
0.00214001
0.00357732
0.00412488
0.0045745
0.00411523
0.00414802
0.000326828
0.000224197
0.000216861
9.52588e-05
-2.88147e-05
-0.000270206
-0.000612911
-0.00122063
-0.00222777
-0.00379021
-0.0058272
-0.00806072
-0.0101657
-0.0119057
-0.013163
-0.0138323
-0.0139827
-0.013551
-0.0127842
-0.0115449
-0.010192
-0.0083941
-0.00649276
-0.00412738
-0.00162934
0.000862251
0.00284485
0.00403722
0.0037819
0.00354076
0.0002692
0.000152093
0.000144032
-3.3835e-06
-0.000170554
-0.000511242
-0.00105277
-0.00203102
-0.00360863
-0.00585754
-0.00850076
-0.0111154
-0.0133912
-0.0151681
-0.0163982
-0.0169851
-0.0170398
-0.0164822
-0.0156456
-0.0143669
-0.0131324
-0.0115197
-0.00995741
-0.00783483
-0.00538446
-0.00248272
0.00071874
0.00242285
0.00373557
0.00240394
0.000174531
5.02089e-05
3.25618e-05
-0.000147382
-0.000377943
-0.00085023
-0.00164831
-0.00306033
-0.00522901
-0.00807604
-0.0111492
-0.0139786
-0.0163597
-0.0182094
-0.0195088
-0.02011
-0.0201267
-0.0194216
-0.0184148
-0.0169186
-0.0155818
-0.0139355
-0.0125683
-0.0107038
-0.0086285
-0.00576028
-0.00226799
0.000495363
0.0027481
0.00113656
-0.000134672
-0.000267701
-0.000311391
-0.000540551
-0.000858103
-0.00149021
-0.00257044
-0.00441497
-0.00710678
-0.0104161
-0.0137811
-0.0167738
-0.0193225
-0.0213816
-0.0229046
-0.0236267
-0.0236445
-0.0227402
-0.0214456
-0.0195504
-0.0178932
-0.0159885
-0.0145935
-0.012844
-0.0111459
-0.00859525
-0.00533553
-0.00175829
0.000770045
0.000772598
-0.000493193
-0.000627262
-0.000708502
-0.00099119
-0.00140817
-0.0022011
-0.00355117
-0.00576942
-0.00888072
-0.0125332
-0.0161409
-0.0193513
-0.022217
-0.0246651
-0.026578
-0.0275211
-0.0275864
-0.0264596
-0.0248094
-0.0223909
-0.0202491
-0.0179072
-0.0162858
-0.0144763
-0.0130158
-0.0107921
-0.00786577
-0.00397169
-0.000193924
0.00134241
-0.00106799
-0.00120396
-0.00133047
-0.00167034
-0.00218261
-0.00311676
-0.00468294
-0.00718395
-0.0106003
-0.0145124
-0.0183534
-0.021836
-0.0251062
-0.028014
-0.0303626
-0.0315256
-0.0316306
-0.0302598
-0.0282357
-0.0252546
-0.0225639
-0.0196979
-0.0177343
-0.01574
-0.0143876
-0.0124243
-0.00995822
-0.00610866
-0.00138679
0.00104961
-0.00162512
-0.00175235
-0.00192674
-0.00231354
-0.00291192
-0.00394673
-0.00566013
-0.00832729
-0.0119315
-0.016018
-0.0200746
-0.0238345
-0.0275113
-0.0308444
-0.0335918
-0.0349368
-0.0350848
-0.0335096
-0.0311848
-0.0277235
-0.024549
-0.0211949
-0.0188902
-0.0166661
-0.0153393
-0.013564
-0.0116387
-0.00821453
-0.00359938
-0.000807882
-0.00234253
-0.00246131
-0.00267669
-0.0031007
-0.00375527
-0.00484117
-0.00660848
-0.00932038
-0.012987
-0.017158
-0.0213747
-0.0253405
-0.0293088
-0.0329051
-0.0359094
-0.0373372
-0.037504
-0.0357718
-0.0332505
-0.0294509
-0.0259384
-0.0222195
-0.0196695
-0.0172481
-0.0159404
-0.0142785
-0.0128682
-0.00995058
-0.00598418
-0.00325801
-0.00293017
-0.00302638
-0.00327515
-0.00371163
-0.00440217
-0.00548256
-0.00722642
-0.00985285
-0.0134503
-0.0175767
-0.0218526
-0.025892
-0.0299725
-0.0336115
-0.0366985
-0.0381228
-0.0383235
-0.0365405
-0.0339867
-0.03006
-0.0264311
-0.0225435
-0.0199128
-0.0173789
-0.0161355
-0.0145387
-0.0136176
-0.0111959
-0.00815355
-0.00565941
-0.00363044
-0.00370772
-0.00397138
-0.00440781
-0.0050933
-0.0061219
-0.00775148
-0.0101735
-0.0135547
-0.0174947
-0.0216994
-0.0256596
-0.0296593
-0.0331131
-0.0360929
-0.0374152
-0.0376471
-0.0358941
-0.0334409
-0.0295699
-0.0260385
-0.0221799
-0.019651
-0.0171051
-0.0160047
-0.0144291
-0.0139399
-0.0118764
-0.00977822
-0.00758258
-0.00409273
-0.00413449
-0.00440296
-0.00480475
-0.0054714
-0.00640038
-0.00787703
-0.00999704
-0.0130453
-0.0166429
-0.0206397
-0.0243834
-0.0281684
-0.0312912
-0.0340346
-0.0351871
-0.035447
-0.0337929
-0.0315586
-0.027917
-0.0246945
-0.0210579
-0.0188113
-0.0163528
-0.0154858
-0.0139101
-0.0138315
-0.0119915
-0.0107966
-0.00884994
-0.00467963
-0.00469992
-0.00494925
-0.00531631
-0.00592243
-0.00673447
-0.00800221
-0.00976105
-0.0123586
-0.0154677
-0.0191082
-0.0225198
-0.0260154
-0.0287505
-0.0312016
-0.0321353
-0.0323889
-0.0308374
-0.0288761
-0.025564
-0.0227998
-0.0195084
-0.0176739
-0.0153549
-0.014789
-0.0131729
-0.0134811
-0.0116918
-0.0113107
-0.0095086
-0.0049349
-0.00491398
-0.00514422
-0.00543323
-0.00598645
-0.00664762
-0.00772972
-0.00911395
-0.0112464
-0.0137654
-0.0169203
-0.019874
-0.0230131
-0.0253482
-0.0275052
-0.0282263
-0.0284737
-0.0270579
-0.025446
-0.022566
-0.0203881
-0.0175272
-0.0161952
-0.0140433
-0.0138342
-0.0121485
-0.0128526
-0.0109782
-0.0113775
-0.0095889
-0.00540043
-0.0053716
-0.00555297
-0.00579402
-0.00624705
-0.00678163
-0.00765004
-0.00869038
-0.0103431
-0.0122306
-0.0147856
-0.0171517
-0.0198391
-0.0217345
-0.0235997
-0.024128
-0.0244146
-0.023182
-0.0220085
-0.0196098
-0.0180842
-0.0156476
-0.0148441
-0.0128232
-0.0129932
-0.0111728
-0.0122824
-0.0101484
-0.0112817
-0.00931529
-0.00543231
-0.00536216
-0.00552009
-0.0056477
-0.00604447
-0.0064124
-0.00714398
-0.00788554
-0.00919142
-0.0105366
-0.012549
-0.0143186
-0.0165281
-0.0179858
-0.0195805
-0.0199602
-0.0203371
-0.0193288
-0.018628
-0.0166938
-0.0157878
-0.0137115
-0.0133985
-0.0114602
-0.012011
-0.0100112
-0.0115539
-0.00904617
-0.0109722
-0.00865961
-0.00582957
-0.0057846
-0.00586564
-0.00596653
-0.00622684
-0.00649927
-0.00704691
-0.007563
-0.0085537
-0.009456
-0.0109893
-0.0122087
-0.013967
-0.0149982
-0.0163603
-0.0165947
-0.0170974
-0.0162758
-0.0160344
-0.0144581
-0.0141106
-0.0122769
-0.0124227
-0.010484
-0.0114303
-0.00917177
-0.0111903
-0.00813756
-0.0108688
-0.00792117
-0.00565927
-0.00555755
-0.00563846
-0.00557592
-0.00581047
-0.0059005
-0.00638902
-0.00670402
-0.0075514
-0.00816122
-0.00942245
-0.010268
-0.0117279
-0.0124501
-0.0136619
-0.0137946
-0.0144147
-0.0137299
-0.0138364
-0.0124973
-0.0125541
-0.0108572
-0.0113537
-0.009358
-0.0106579
-0.00810794
-0.0106238
-0.00695247
-0.0106311
-0.00682272
-0.00605229
-0.00604531
-0.00599602
-0.00598593
-0.00602374
-0.00607895
-0.00638446
-0.0065728
-0.00723248
-0.00761104
-0.00864021
-0.00917752
-0.0104143
-0.0108624
-0.0119832
-0.0119857
-0.0127356
-0.0120849
-0.0125141
-0.0112711
-0.0117234
-0.010042
-0.0109328
-0.00879369
-0.0105224
-0.0076051
-0.0106962
-0.00627086
-0.0109097
-0.00573509
-0.0057551
-0.00559819
-0.00561518
-0.00530432
-0.0053941
-0.00521614
-0.00555997
-0.00560171
-0.00627458
-0.00652548
-0.00752012
-0.0079046
-0.00908419
-0.00938799
-0.0105046
-0.0104384
-0.011294
-0.0106683
-0.0112937
-0.0101073
-0.0107765
-0.00909032
-0.0101953
-0.00791747
-0.00993484
-0.00666524
-0.010277
-0.00511236
-0.010809
-0.00381394
-0.00609668
-0.00625637
-0.00599793
-0.00597023
-0.00573723
-0.00563429
-0.00574171
-0.00571652
-0.00624088
-0.0063523
-0.00724553
-0.00745201
-0.00857187
-0.00869921
-0.00984054
-0.00964079
-0.0106494
-0.00993501
-0.010844
-0.0095609
-0.0106118
-0.00875042
-0.0103132
-0.00773814
-0.0102921
-0.00656975
-0.0108206
-0.00492701
-0.0113792
-0.00123999
-0.0060562
-0.0056057
-0.00557627
-0.00482009
-0.00479801
-0.00434984
-0.00464903
-0.00451158
-0.00519559
-0.005264
-0.00627829
-0.00643394
-0.00764948
-0.00771281
-0.00895383
-0.00870501
-0.00983657
-0.00910617
-0.0101438
-0.00886332
-0.0100051
-0.00812541
-0.00972673
-0.00704492
-0.00966436
-0.00562339
-0.0101373
-0.00362211
-0.010129
0.00444544
-0.00568333
-0.00650688
-0.00587381
-0.00608095
-0.00546231
-0.00524544
-0.00516906
-0.00497909
-0.00548627
-0.00542566
-0.00637917
-0.0063881
-0.00761655
-0.00752925
-0.00886342
-0.00845838
-0.00979464
-0.00887604
-0.0102641
-0.00870609
-0.0103776
-0.00806772
-0.0104009
-0.00712292
-0.0106046
-0.00590724
-0.0110592
-0.00395775
-0.0089829
0.0155983
-0.00790472
-0.00570669
-0.00567017
-0.00392353
-0.00383189
-0.00318784
-0.0035824
-0.00336576
-0.00421517
-0.0041832
-0.005389
-0.00539391
-0.00683054
-0.00670292
-0.00822958
-0.00777295
-0.00928334
-0.00833596
-0.00983122
-0.0083039
-0.00991877
-0.007736
-0.00973702
-0.00665253
-0.0094858
-0.00470546
-0.00859915
0.000326549
0.00407084
0.0439076
-0.00381044
-0.00762108
-0.00626382
-0.00675688
-0.00539948
-0.004957
-0.00473079
-0.00436649
-0.00496664
-0.00474568
-0.00588852
-0.00572897
-0.00719764
-0.00692459
-0.00855568
-0.00793251
-0.00964496
-0.00844034
-0.0103095
-0.00833283
-0.0106284
-0.00768445
-0.0108596
-0.00663921
-0.0111766
-0.00489553
-0.0094489
0.00489456
0.0190857
0.0883871
-0.0217047
-0.00429789
-0.00374907
-0.0024505
-0.00234513
-0.00185134
-0.00251244
-0.00234067
-0.00339854
-0.00333059
-0.00473643
-0.00465654
-0.00630378
-0.00605293
-0.00782104
-0.00720077
-0.00899904
-0.00784318
-0.00967817
-0.0078946
-0.00987805
-0.00739101
-0.00960632
-0.00602404
-0.00759294
-3.89718e-05
0.00745681
0.0391817
0.100196
0.219441
)
;

boundaryField
{
    movingWall
    {
        type            zeroGradient;
    }
    fixedWalls
    {
        type            zeroGradient;
    }
    frontAndBack
    {
        type            empty;
    }
}


// ************************************************************************* //
