/*--------------------------------*- C++ -*----------------------------------*\
| =========                 |                                                 |
| \\      /  F ield         | OpenFOAM: The Open Source CFD Toolbox           |
|  \\    /   O peration     | Version:  2406                                  |
|   \\  /    A nd           | Website:  www.openfoam.com                      |
|    \\/     M anipulation  |                                                 |
\*---------------------------------------------------------------------------*/
FoamFile
{
    version     2.0;
    format      ascii;
    arch        "LSB;label=32;scalar=64";
    class       surfaceScalarField;
    location    "30.25";
    object      phi_0;
}
// * * * * * * * * * * * * * * * * * * * * * * * * * * * * * * * * * * * * * //

dimensions      [0 3 -1 0 0 0 0];

oriented        oriented;

internalField   nonuniform List<scalar> 
32512
(
-6.19971e-09
6.17044e-09
2.79345e-08
-3.41344e-08
1.10268e-07
-8.23336e-08
2.33721e-07
-1.23453e-07
3.86856e-07
-1.53135e-07
5.57771e-07
-1.70915e-07
7.35505e-07
-1.77733e-07
9.10653e-07
-1.75148e-07
1.07569e-06
-1.65034e-07
1.22509e-06
-1.49399e-07
1.35533e-06
-1.30242e-07
1.46476e-06
-1.09432e-07
1.55336e-06
-8.85977e-08
1.62241e-06
-6.90484e-08
1.67414e-06
-5.17302e-08
1.71134e-06
-3.72078e-08
1.73702e-06
-2.56758e-08
1.75402e-06
-1.69955e-08
1.76477e-06
-1.07536e-08
1.77108e-06
-6.31328e-09
1.77406e-06
-2.97492e-09
1.77364e-06
4.18708e-10
1.76944e-06
4.20416e-09
1.75999e-06
9.4452e-09
1.74328e-06
1.67079e-08
1.7168e-06
2.6478e-08
1.6777e-06
3.91032e-08
1.62289e-06
5.48092e-08
1.54916e-06
7.37323e-08
1.4532e-06
9.59576e-08
1.33165e-06
1.21551e-07
1.18107e-06
1.50579e-07
9.97942e-07
1.8313e-07
7.78654e-07
2.19288e-07
5.19519e-07
2.59135e-07
2.16799e-07
3.0272e-07
-1.33241e-07
3.5004e-07
-5.34259e-07
4.01018e-07
-9.89752e-07
4.55493e-07
-1.50295e-06
5.13197e-07
-2.0767e-06
5.73751e-07
-2.71336e-06
6.36661e-07
-3.41467e-06
7.01314e-07
-4.18166e-06
7.66983e-07
-5.01448e-06
8.32827e-07
-5.91239e-06
8.97905e-07
-6.87358e-06
9.6119e-07
-7.89516e-06
1.02158e-06
-8.97308e-06
1.07792e-06
-1.01021e-05
1.12903e-06
-1.12758e-05
1.1737e-06
-1.24866e-05
1.21075e-06
-1.37256e-05
1.23904e-06
-1.49831e-05
1.25745e-06
-1.6248e-05
1.26496e-06
-1.75086e-05
1.26063e-06
-1.87523e-05
1.24361e-06
-1.99654e-05
1.21317e-06
-2.11341e-05
1.16871e-06
-2.22439e-05
1.10975e-06
-2.32799e-05
1.03597e-06
-2.42271e-05
9.47205e-07
-2.50705e-05
8.43477e-07
-2.57956e-05
7.25039e-07
-2.6388e-05
5.92451e-07
-2.68346e-05
4.46611e-07
-2.71229e-05
2.88306e-07
-2.72411e-05
1.1815e-07
-2.71762e-05
-6.48615e-08
-2.69174e-05
-2.58821e-07
-2.64641e-05
-4.53307e-07
-2.58096e-05
-6.54457e-07
-2.49522e-05
-8.57444e-07
-2.3893e-05
-1.05915e-06
-2.26367e-05
-1.25633e-06
-2.11912e-05
-1.4455e-06
-1.95682e-05
-1.62302e-06
-1.7783e-05
-1.78516e-06
-1.58548e-05
-1.92821e-06
-1.38062e-05
-2.0486e-06
-1.16632e-05
-2.14303e-06
-9.45457e-06
-2.20863e-06
-7.21151e-06
-2.24306e-06
-4.9668e-06
-2.24471e-06
-2.75407e-06
-2.21273e-06
-6.06732e-07
-2.14734e-06
1.44332e-06
-2.05005e-06
3.36555e-06
-1.92223e-06
5.13266e-06
-1.76711e-06
6.72139e-06
-1.58873e-06
8.1132e-06
-1.39181e-06
9.29476e-06
-1.18156e-06
1.02583e-05
-9.63494e-07
1.10016e-05
-7.43311e-07
1.15281e-05
-5.2652e-07
1.18464e-05
-3.18271e-07
1.19695e-05
-1.23185e-07
1.19144e-05
5.5185e-08
1.17009e-05
2.13454e-07
1.1351e-05
3.49914e-07
1.08874e-05
4.63592e-07
1.03332e-05
5.542e-07
9.7109e-06
6.22299e-07
9.04171e-06
6.6919e-07
8.34498e-06
6.96727e-07
7.63784e-06
7.07144e-07
6.93494e-06
7.02905e-07
6.24838e-06
6.86559e-07
5.58775e-06
6.60624e-07
4.96026e-06
6.27489e-07
4.37092e-06
5.89345e-07
3.82278e-06
5.48137e-07
3.31723e-06
5.05549e-07
2.85424e-06
4.62993e-07
2.43262e-06
4.21619e-07
2.05031e-06
3.82314e-07
1.70462e-06
3.45688e-07
1.39257e-06
3.12049e-07
1.11123e-06
2.81342e-07
8.58155e-07
2.53073e-07
6.31915e-07
2.26239e-07
4.3264e-07
1.99276e-07
2.62535e-07
1.70104e-07
1.26156e-07
1.36379e-07
2.99136e-08
9.62423e-08
-2.02071e-08
5.01207e-08
-2.41856e-08
3.97852e-09
-2.41856e-08
3.27979e-08
-2.66276e-08
1.62175e-07
-1.63511e-07
3.93158e-07
-3.13316e-07
7.1067e-07
-4.40966e-07
1.09207e-06
-5.34532e-07
1.51255e-06
-5.91398e-07
1.94815e-06
-6.13334e-07
2.37752e-06
-6.04515e-07
2.78297e-06
-5.70485e-07
3.15103e-06
-5.17462e-07
3.47259e-06
-4.51797e-07
3.74267e-06
-3.79516e-07
3.96002e-06
-3.05944e-07
4.12639e-06
-2.35426e-07
4.24581e-06
-1.71148e-07
4.32367e-06
-1.15064e-07
4.3659e-06
-6.79077e-08
4.3782e-06
-2.92916e-08
4.36538e-06
2.06106e-09
4.33072e-06
2.83433e-08
4.27572e-06
5.20336e-08
4.2001e-06
7.60388e-08
4.10122e-06
1.03076e-07
3.97488e-06
1.35792e-07
3.81517e-06
1.76411e-07
3.61496e-06
2.26694e-07
3.36613e-06
2.87937e-07
3.05992e-06
3.61018e-07
2.68716e-06
4.46488e-07
2.23844e-06
5.44683e-07
1.70417e-06
6.55817e-07
1.07473e-06
7.80015e-07
3.40444e-07
9.17421e-07
-5.08317e-07
1.06805e-06
-1.481e-06
1.23182e-06
-2.58672e-06
1.40845e-06
-3.83409e-06
1.5974e-06
-5.23089e-06
1.79782e-06
-6.78384e-06
2.00844e-06
-8.49826e-06
2.22762e-06
-1.03778e-05
2.45327e-06
-1.2424e-05
2.68289e-06
-1.46362e-05
2.91355e-06
-1.70113e-05
3.14198e-06
-1.9543e-05
3.36459e-06
-2.22226e-05
3.57752e-06
-2.50382e-05
3.77675e-06
-2.79748e-05
3.95817e-06
-3.10146e-05
4.11769e-06
-3.41368e-05
4.25131e-06
-3.73183e-05
4.35521e-06
-4.05334e-05
4.42585e-06
-4.37544e-05
4.46003e-06
-4.69519e-05
4.45494e-06
-5.00952e-05
4.40823e-06
-5.31526e-05
4.318e-06
-5.60918e-05
4.18284e-06
-5.88805e-05
4.00185e-06
-6.14864e-05
3.77461e-06
-6.38778e-05
3.50122e-06
-6.60241e-05
3.18224e-06
-6.78957e-05
2.81877e-06
-6.94646e-05
2.41244e-06
-7.07051e-05
1.9655e-06
-7.15935e-05
1.48081e-06
-7.2109e-05
9.62194e-07
-7.22359e-05
4.15124e-07
-7.19584e-05
-1.59303e-07
-7.12546e-05
-7.68704e-07
-7.01255e-05
-1.38789e-06
-6.85632e-05
-2.0156e-06
-6.6571e-05
-2.64666e-06
-6.41545e-05
-3.27391e-06
-6.13245e-05
-3.88917e-06
-5.80971e-05
-4.48373e-06
-5.44942e-05
-5.04842e-06
-5.05434e-05
-5.57382e-06
-4.62781e-05
-6.05041e-06
-4.17376e-05
-6.46877e-06
-3.69663e-05
-6.81988e-06
-3.20139e-05
-7.09542e-06
-2.69345e-05
-7.28804e-06
-2.17858e-05
-7.39173e-06
-1.66284e-05
-7.40212e-06
-1.15244e-05
-7.31677e-06
-6.53621e-06
-7.1355e-06
-1.72572e-06
-6.86055e-06
2.84887e-06
-6.49681e-06
7.13243e-06
-6.05068e-06
1.10748e-05
-5.53114e-06
1.46336e-05
-4.95061e-06
1.77741e-05
-4.32202e-06
2.04704e-05
-3.65979e-06
2.27064e-05
-2.97934e-06
2.44761e-05
-2.29616e-06
2.57833e-05
-1.62545e-06
2.66416e-05
-9.81483e-07
2.70736e-05
-3.76876e-07
2.71095e-05
1.77571e-07
2.67873e-05
6.72163e-07
2.61482e-05
1.10266e-06
2.52379e-05
1.46444e-06
2.41039e-05
1.75634e-06
2.27935e-05
1.97956e-06
2.13529e-05
2.1374e-06
1.98251e-05
2.23489e-06
1.82497e-05
2.27831e-06
1.66614e-05
2.27484e-06
1.509e-05
2.23208e-06
1.35597e-05
2.15772e-06
1.20899e-05
2.05917e-06
1.06947e-05
1.94338e-06
9.38363e-06
1.8166e-06
8.16229e-06
1.68433e-06
7.03272e-06
1.55119e-06
5.99413e-06
1.4209e-06
5.04363e-06
1.29619e-06
4.177e-06
1.17868e-06
3.38965e-06
1.06869e-06
2.67764e-06
9.6508e-07
2.03882e-06
8.65056e-07
1.47393e-06
7.6417e-07
9.87422e-07
6.56611e-07
5.87643e-07
5.36158e-07
2.85612e-07
3.98274e-07
9.14975e-08
2.44235e-07
5.99545e-09
8.94806e-08
-1.81902e-08
7.84669e-08
-1.05094e-07
3.05966e-07
-3.91011e-07
6.68409e-07
-6.75759e-07
1.14226e-06
-9.14814e-07
1.69746e-06
-1.08973e-06
2.30151e-06
-1.19545e-06
2.92265e-06
-1.23448e-06
3.53213e-06
-1.214e-06
4.10572e-06
-1.14407e-06
4.62454e-06
-1.03628e-06
5.07534e-06
-9.02599e-07
5.45034e-06
-7.54516e-07
5.74665e-06
-6.02251e-07
5.96542e-06
-4.54199e-07
6.11084e-06
-3.16563e-07
6.18895e-06
-1.93176e-07
6.20656e-06
-8.55107e-08
6.17005e-06
7.21127e-09
6.08466e-06
8.74507e-08
5.95352e-06
1.59488e-07
5.77719e-06
2.28364e-07
5.55352e-06
2.99712e-07
5.27743e-06
3.79164e-07
4.94126e-06
4.7196e-07
4.53505e-06
5.8262e-07
4.04698e-06
7.14768e-07
3.46382e-06
8.7109e-07
2.77142e-06
1.05342e-06
1.955e-06
1.2629e-06
9.99528e-07
1.50016e-06
-1.10122e-07
1.76547e-06
-1.38896e-06
2.05886e-06
-2.85159e-06
2.38005e-06
-4.51205e-06
2.72851e-06
-6.38351e-06
3.10328e-06
-8.47788e-06
3.50281e-06
-1.08054e-05
3.92488e-06
-1.3374e-05
4.36644e-06
-1.61891e-05
4.82358e-06
-1.9253e-05
5.29147e-06
-2.25641e-05
5.76441e-06
-2.61171e-05
6.23586e-06
-2.99021e-05
6.69856e-06
-3.39048e-05
7.1447e-06
-3.81062e-05
7.56604e-06
-4.24829e-05
7.95417e-06
-4.70068e-05
8.30071e-06
-5.16462e-05
8.59752e-06
-5.63654e-05
8.83694e-06
-6.11261e-05
9.01196e-06
-6.58873e-05
9.11639e-06
-7.06064e-05
9.145e-06
-7.524e-05
9.09357e-06
-7.9744e-05
8.95897e-06
-8.40749e-05
8.73916e-06
-8.81901e-05
8.43312e-06
-9.20481e-05
8.04087e-06
-9.56096e-05
7.56334e-06
-9.88373e-05
7.00235e-06
-0.000101697
6.36051e-06
-0.000104155
5.64113e-06
-0.000106185
4.84828e-06
-0.000107759
3.98674e-06
-0.000108856
3.06217e-06
-0.000109456
2.08063e-06
-0.000109542
1.04809e-06
-0.000109117
-9.32117e-09
-0.000108138
-1.13849e-06
-0.000106629
-2.27822e-06
-0.000104582
-3.43456e-06
-0.000102
-4.59712e-06
-9.88923e-05
-5.75466e-06
-9.52711e-05
-6.89514e-06
-9.11547e-05
-8.00556e-06
-8.65663e-05
-9.07209e-06
-8.15345e-05
-1.00803e-05
-7.6093e-05
-1.10153e-05
-7.02813e-05
-1.18621e-05
-6.41442e-05
-1.26058e-05
-5.77319e-05
-1.32322e-05
-5.10996e-05
-1.37277e-05
-4.4307e-05
-1.40806e-05
-3.7418e-05
-1.42807e-05
-3.04996e-05
-1.43205e-05
-2.36211e-05
-1.41953e-05
-1.6853e-05
-1.39035e-05
-1.0266e-05
-1.34476e-05
-3.92947e-06
-1.28334e-05
2.09065e-06
-1.20708e-05
7.73339e-06
-1.11739e-05
1.2941e-05
-1.01583e-05
1.7665e-05
-9.04601e-06
2.18647e-05
-7.85941e-06
2.55088e-05
-6.62347e-06
2.85765e-05
-5.36392e-06
3.10579e-05
-4.1068e-06
3.2954e-05
-2.87755e-06
3.4277e-05
-1.69994e-06
3.50507e-05
-5.9615e-07
3.5307e-05
4.15924e-07
3.50862e-05
1.32347e-06
3.4437e-05
2.11358e-06
3.34135e-05
2.77989e-06
3.2073e-05
3.32007e-06
3.04745e-05
3.73584e-06
2.86768e-05
4.03259e-06
2.67363e-05
4.21881e-06
2.47057e-05
4.30545e-06
2.26326e-05
4.30518e-06
2.05587e-05
4.23165e-06
1.8519e-05
4.09884e-06
1.6542e-05
3.92039e-06
1.46494e-05
3.7092e-06
1.28568e-05
3.47694e-06
1.11741e-05
3.23386e-06
9.60656e-06
2.98846e-06
8.15544e-06
2.74732e-06
6.81939e-06
2.51473e-06
5.59567e-06
2.29242e-06
4.48153e-06
2.07921e-06
3.47581e-06
1.87078e-06
2.58023e-06
1.65975e-06
1.80047e-06
1.43636e-06
1.14639e-06
1.19024e-06
6.30806e-07
9.13855e-07
2.66354e-07
6.08687e-07
5.93297e-08
2.96505e-07
4.11395e-08
1.17296e-07
-2.2239e-07
4.294e-07
-7.03116e-07
9.0261e-07
-1.14897e-06
1.50224e-06
-1.51445e-06
2.19076e-06
-1.77825e-06
2.92959e-06
-1.93427e-06
3.68156e-06
-1.98645e-06
4.41312e-06
-1.94556e-06
5.09582e-06
-1.82677e-06
5.70724e-06
-1.6477e-06
6.23135e-06
-1.4267e-06
6.65822e-06
-1.18139e-06
6.98346e-06
-9.27491e-07
7.2072e-06
-6.77944e-07
7.33293e-06
-4.42295e-07
7.36617e-06
-2.26411e-07
7.31311e-06
-3.24529e-08
7.17948e-06
1.40848e-07
6.96917e-06
2.97756e-07
6.68372e-06
4.44937e-07
6.32144e-06
5.9064e-07
5.87724e-06
7.43916e-07
5.34256e-06
9.13842e-07
4.70568e-06
1.10885e-06
3.95209e-06
1.33621e-06
3.06512e-06
1.60174e-06
2.02647e-06
1.90974e-06
8.16818e-07
2.26307e-06
-5.83686e-07
2.66341e-06
-2.19496e-06
3.11144e-06
-4.03659e-06
3.60709e-06
-6.12738e-06
4.14964e-06
-8.485e-06
4.73767e-06
-1.11254e-05
5.36895e-06
-1.40624e-05
6.04025e-06
-1.73067e-05
6.74715e-06
-2.08657e-05
7.48384e-06
-2.47423e-05
8.24303e-06
-2.89346e-05
9.0159e-06
-3.34353e-05
9.79217e-06
-3.82312e-05
1.05603e-05
-4.33028e-05
1.13075e-05
-4.86247e-05
1.20205e-05
-5.41654e-05
1.26853e-05
-5.98877e-05
1.32883e-05
-6.57495e-05
1.3816e-05
-7.17048e-05
1.4256e-05
-7.7704e-05
1.45968e-05
-8.36957e-05
1.48286e-05
-8.9627e-05
1.49433e-05
-9.54452e-05
1.49346e-05
-0.000101099
1.47983e-05
-0.000106537
1.45317e-05
-0.000111712
1.41342e-05
-0.000116579
1.36067e-05
-0.000121098
1.29515e-05
-0.000125229
1.21723e-05
-0.00012894
1.12736e-05
-0.000132198
1.02612e-05
-0.000134979
9.14121e-06
-0.000137259
7.92068e-06
-0.000139017
6.60713e-06
-0.000140239
5.20866e-06
-0.000140911
3.73393e-06
-0.000141023
2.19268e-06
-0.000140574
5.9931e-07
-0.000139536
-1.04736e-06
-0.000137938
-2.73664e-06
-0.000135768
-4.44838e-06
-0.000133032
-6.17081e-06
-0.000129738
-7.89132e-06
-0.000125897
-9.59542e-06
-0.000121525
-1.12673e-05
-0.00011664
-1.28901e-05
-0.000111266
-1.44458e-05
-0.000105431
-1.59155e-05
-9.91668e-05
-1.72798e-05
-9.25102e-05
-1.85187e-05
-8.55035e-05
-1.96125e-05
-7.81939e-05
-2.05417e-05
-7.06336e-05
-2.12881e-05
-6.28792e-05
-2.1835e-05
-5.4992e-05
-2.21679e-05
-4.7037e-05
-2.22755e-05
-3.90822e-05
-2.215e-05
-3.11981e-05
-2.17877e-05
-2.34559e-05
-2.11897e-05
-1.59271e-05
-2.03621e-05
-8.68192e-06
-1.9316e-05
-1.78791e-06
-1.80679e-05
4.6936e-06
-1.66398e-05
1.0704e-05
-1.50564e-05
1.61914e-05
-1.33468e-05
2.11138e-05
-1.15458e-05
2.54371e-05
-9.68726e-06
2.91373e-05
-7.807e-06
3.22007e-05
-5.94091e-06
3.46244e-05
-4.12365e-06
3.6416e-05
-2.38781e-06
3.75956e-05
-7.63648e-07
3.81927e-05
7.26358e-07
3.82441e-05
2.06215e-06
3.77979e-05
3.22613e-06
3.69082e-05
4.20976e-06
3.56344e-05
5.00965e-06
3.4039e-05
5.62795e-06
3.21858e-05
6.07205e-06
3.01374e-05
6.35382e-06
2.79538e-05
6.48878e-06
2.56904e-05
6.49514e-06
2.33965e-05
6.39271e-06
2.11149e-05
6.20194e-06
1.88811e-05
5.94299e-06
1.67232e-05
5.6349e-06
1.46621e-05
5.29498e-06
1.27124e-05
4.93816e-06
1.08832e-05
4.57646e-06
9.1795e-06
4.21844e-06
7.60328e-06
3.86864e-06
6.15548e-06
3.52701e-06
4.83759e-06
3.18868e-06
3.65328e-06
2.84406e-06
2.60973e-06
2.47991e-06
1.71826e-06
2.08171e-06
9.94036e-07
1.63808e-06
4.54628e-07
1.1481e-06
1.17765e-07
6.33368e-07
1.58905e-07
1.47082e-07
-3.69472e-07
5.26878e-07
-1.08291e-06
1.08895e-06
-1.71104e-06
1.78695e-06
-2.21244e-06
2.57528e-06
-2.56658e-06
3.40951e-06
-2.7685e-06
4.248e-06
-2.82495e-06
5.05364e-06
-2.7512e-06
5.79515e-06
-2.56828e-06
6.44789e-06
-2.30045e-06
6.99404e-06
-1.97285e-06
7.42228e-06
-1.60963e-06
7.72702e-06
-1.23223e-06
7.9073e-06
-8.58223e-07
7.96547e-06
-5.00471e-07
7.90576e-06
-1.66703e-07
7.7328e-06
1.40509e-07
7.45026e-06
4.23389e-07
7.05966e-06
6.88358e-07
6.55948e-06
9.45115e-07
5.94453e-06
1.2056e-06
5.20566e-06
1.48278e-06
4.32989e-06
1.78961e-06
3.30071e-06
2.13803e-06
2.09869e-06
2.53822e-06
7.02177e-07
2.99826e-06
-9.12003e-07
3.52392e-06
-2.76775e-06
4.11882e-06
-4.88903e-06
4.78468e-06
-7.2992e-06
5.52161e-06
-1.00204e-05
6.32829e-06
-1.30728e-05
7.20205e-06
-1.64739e-05
8.13879e-06
-2.02378e-05
9.13279e-06
-2.4374e-05
1.01764e-05
-2.88869e-05
1.12601e-05
-3.37748e-05
1.23718e-05
-3.90291e-05
1.34974e-05
-4.4634e-05
1.46207e-05
-5.05656e-05
1.57238e-05
-5.67928e-05
1.67874e-05
-6.32767e-05
1.77914e-05
-6.99721e-05
1.87158e-05
-7.68276e-05
1.95409e-05
-8.37878e-05
2.02485e-05
-9.07937e-05
2.0822e-05
-9.7785e-05
2.12473e-05
-0.000104701
2.15129e-05
-0.000111483
2.16101e-05
-0.000118073
2.15333e-05
-0.000124418
2.12796e-05
-0.000130468
2.08486e-05
-0.000136179
2.02426e-05
-0.00014151
1.94656e-05
-0.000146427
1.85233e-05
-0.000150898
1.74229e-05
-0.000154898
1.61725e-05
-0.000158406
1.47807e-05
-0.000161401
1.3257e-05
-0.000163871
1.1611e-05
-0.000165803
9.85261e-06
-0.000167188
7.99184e-06
-0.000168018
6.03906e-06
-0.000168289
4.00491e-06
-0.000167998
1.90112e-06
-0.000167145
-2.5321e-07
-0.00016572
-2.47284e-06
-0.000163735
-4.72128e-06
-0.000161192
-6.99099e-06
-0.000158095
-9.26781e-06
-0.000154451
-1.15358e-05
-0.000150268
-1.37781e-05
-0.000145559
-1.59761e-05
-0.00014034
-1.811e-05
-0.000134627
-2.01585e-05
-0.000128444
-2.20987e-05
-0.000121816
-2.39071e-05
-0.000114776
-2.55592e-05
-0.000107358
-2.70304e-05
-9.96037e-05
-2.8296e-05
-9.15592e-05
-2.93326e-05
-8.32759e-05
-3.01183e-05
-7.48101e-05
-3.06337e-05
-6.62228e-05
-3.08628e-05
-5.75791e-05
-3.07938e-05
-4.89471e-05
-3.04197e-05
-4.03975e-05
-2.97393e-05
-3.2002e-05
-2.87576e-05
-2.3832e-05
-2.74859e-05
-1.59577e-05
-2.59422e-05
-8.44685e-06
-2.41506e-05
-1.36223e-06
-2.2141e-05
5.24057e-06
-1.99496e-05
1.13088e-05
-1.76141e-05
1.6799e-05
-1.51774e-05
2.16766e-05
-1.26846e-05
2.5916e-05
-1.01803e-05
2.95011e-05
-7.70876e-06
3.24258e-05
-5.31249e-06
3.46932e-05
-3.03105e-06
3.63202e-05
-9.00635e-07
3.7331e-05
1.0513e-06
3.7758e-05
2.79915e-06
3.76449e-05
4.32288e-06
3.70425e-05
5.61202e-06
3.6008e-05
6.66249e-06
3.46029e-05
7.47712e-06
3.28915e-05
8.06524e-06
3.09383e-05
8.44196e-06
2.88063e-05
8.62711e-06
2.6555e-05
8.6441e-06
2.42383e-05
8.51857e-06
2.19042e-05
8.2771e-06
1.95932e-05
7.94593e-06
1.73383e-05
7.54982e-06
1.51655e-05
7.111e-06
1.30938e-05
6.64814e-06
1.11368e-05
6.17542e-06
9.30387e-06
5.7016e-06
7.60166e-06
5.22922e-06
6.03618e-06
4.75416e-06
4.61451e-06
4.26573e-06
3.34652e-06
3.74791e-06
2.2462e-06
3.18203e-06
1.33264e-06
2.55164e-06
6.307e-07
1.85003e-06
1.72277e-07
1.09179e-06
3.31182e-07
1.6917e-07
-5.38642e-07
6.0085e-07
-1.51459e-06
1.23106e-06
-2.34125e-06
2.00241e-06
-2.98379e-06
2.86108e-06
-3.42526e-06
3.75674e-06
-3.66416e-06
4.64352e-06
-3.71173e-06
5.48137e-06
-3.58904e-06
6.23699e-06
-3.32391e-06
6.88438e-06
-2.94783e-06
7.40473e-06
-2.49321e-06
7.78593e-06
-1.99082e-06
8.02156e-06
-1.46785e-06
8.10964e-06
-9.46296e-07
8.05113e-06
-4.41963e-07
7.84842e-06
3.60038e-08
7.50373e-06
4.852e-07
7.01774e-06
9.09381e-07
6.38837e-06
1.31773e-06
5.60991e-06
1.72357e-06
4.67247e-06
2.14303e-06
3.56189e-06
2.59337e-06
2.2599e-06
3.0916e-06
7.44749e-07
3.65318e-06
-1.00811e-06
4.29108e-06
-3.02505e-06
5.0152e-06
-5.33335e-06
5.83223e-06
-7.96029e-06
6.74576e-06
-1.09321e-05
7.75654e-06
-1.42733e-05
8.86278e-06
-1.80053e-05
1.00603e-05
-2.21458e-05
1.13426e-05
-2.67075e-05
1.27005e-05
-3.16969e-05
1.41222e-05
-3.71136e-05
1.55931e-05
-4.29488e-05
1.70953e-05
-4.91851e-05
1.8608e-05
-5.57957e-05
2.0108e-05
-6.27447e-05
2.15697e-05
-6.99873e-05
2.29665e-05
-7.74711e-05
2.42712e-05
-8.51368e-05
2.54571e-05
-9.29205e-05
2.64995e-05
-0.000100755
2.73756e-05
-0.000108573
2.80663e-05
-0.000116307
2.85559e-05
-0.000123892
2.88328e-05
-0.000131269
2.88897e-05
-0.000138382
2.8723e-05
-0.000145182
2.83328e-05
-0.000151624
2.77223e-05
-0.000157673
2.68975e-05
-0.000163297
2.58664e-05
-0.00016847
2.46387e-05
-0.000173172
2.3225e-05
-0.000177386
2.16367e-05
-0.000181099
1.98856e-05
-0.000184301
1.79836e-05
-0.000186987
1.59423e-05
-0.000189149
1.37734e-05
-0.000190785
1.14882e-05
-0.00019189
9.09768e-06
-0.000192464
6.61288e-06
-0.000192505
4.04522e-06
-0.000192012
1.40866e-06
-0.000190978
-1.28787e-06
-0.000189412
-4.03832e-06
-0.000187311
-6.82233e-06
-0.000184675
-9.62664e-06
-0.000181507
-1.24365e-05
-0.000177808
-1.5235e-05
-0.000173582
-1.80035e-05
-0.000168837
-2.07215e-05
-0.00016358
-2.33667e-05
-0.000157824
-2.59149e-05
-0.000151583
-2.83398e-05
-0.000144876
-3.06139e-05
-0.000137727
-3.27081e-05
-0.000130164
-3.45927e-05
-0.000122223
-3.62379e-05
-0.000113941
-3.76144e-05
-0.000105364
-3.86945e-05
-9.65453e-05
-3.94529e-05
-8.75402e-05
-3.9868e-05
-7.84113e-05
-3.99227e-05
-6.92252e-05
-3.96058e-05
-6.0052e-05
-3.89125e-05
-5.09643e-05
-3.78454e-05
-4.20354e-05
-3.64148e-05
-3.33384e-05
-3.46392e-05
-2.49445e-05
-3.25446e-05
-1.6921e-05
-3.01645e-05
-9.33165e-06
-2.75389e-05
-2.23284e-06
-2.47129e-05
4.32617e-06
-2.17364e-05
1.03023e-05
-1.86607e-05
1.56613e-05
-1.55393e-05
2.03779e-05
-1.24253e-05
2.44356e-05
-9.37024e-06
2.78271e-05
-6.42249e-06
3.05532e-05
-3.62673e-06
3.26277e-05
-1.02326e-06
3.40705e-05
1.35634e-06
3.49099e-05
3.48355e-06
3.51846e-05
5.33728e-06
3.49411e-05
6.90602e-06
3.42324e-05
8.18575e-06
3.31173e-05
9.18038e-06
3.16578e-05
9.90142e-06
2.99179e-05
1.03671e-05
2.79607e-05
1.06013e-05
2.5847e-05
1.06322e-05
2.36335e-05
1.04907e-05
2.13706e-05
1.02088e-05
1.91025e-05
9.81791e-06
1.68661e-05
9.34744e-06
1.46911e-05
8.82309e-06
1.26011e-05
8.26547e-06
1.0614e-05
7.68869e-06
8.74409e-06
7.09913e-06
7.0035e-06
6.49474e-06
5.40435e-06
5.86488e-06
3.96075e-06
5.19151e-06
2.69093e-06
4.45185e-06
1.61945e-06
3.62312e-06
7.79762e-07
2.68972e-06
2.18045e-07
1.65351e-06
5.49227e-07
1.85487e-07
-7.24129e-07
6.55711e-07
-1.98481e-06
1.33552e-06
-3.02106e-06
2.15743e-06
-3.8057e-06
3.0596e-06
-4.32743e-06
3.98578e-06
-4.59033e-06
4.88604e-06
-4.612e-06
5.71776e-06
-4.42076e-06
6.44616e-06
-4.05231e-06
7.04448e-06
-3.54615e-06
7.49354e-06
-2.94227e-06
7.78092e-06
-2.2782e-06
7.89966e-06
-1.5866e-06
7.84681e-06
-8.93445e-07
7.62175e-06
-2.16904e-07
7.22449e-06
4.33257e-07
6.65418e-06
1.05552e-06
5.90753e-06
1.65603e-06
4.97783e-06
2.24743e-06
3.85415e-06
2.84725e-06
2.52095e-06
3.47623e-06
9.58225e-07
4.15609e-06
-8.57996e-07
4.90782e-06
-2.95482e-06
5.75001e-06
-5.36146e-06
6.69771e-06
-8.10806e-06
7.76179e-06
-1.12245e-05
8.94866e-06
-1.47391e-05
1.02604e-05
-1.86776e-05
1.1695e-05
-2.30616e-05
1.32468e-05
-2.79076e-05
1.49062e-05
-3.32251e-05
1.66601e-05
-3.90162e-05
1.84915e-05
-4.52735e-05
2.03795e-05
-5.19794e-05
2.2299e-05
-5.91059e-05
2.42218e-05
-6.66141e-05
2.61162e-05
-7.44548e-05
2.79487e-05
-8.25696e-05
2.96845e-05
-9.08927e-05
3.12896e-05
-9.93528e-05
3.27313e-05
-0.000107876
3.39801e-05
-0.000116387
3.50105e-05
-0.000124813
3.58019e-05
-0.000133086
3.63389e-05
-0.000141141
3.66115e-05
-0.000148923
3.6615e-05
-0.000156383
3.63493e-05
-0.000163478
3.58185e-05
-0.000170176
3.50301e-05
-0.000176448
3.39942e-05
-0.000182273
3.2723e-05
-0.000187637
3.12299e-05
-0.000192527
2.95287e-05
-0.000196936
2.76339e-05
-0.000200859
2.55596e-05
-0.000204292
2.33195e-05
-0.000207236
2.09268e-05
-0.000209687
1.8394e-05
-0.000211647
1.57331e-05
-0.000213115
1.29555e-05
-0.000214089
1.0072e-05
-0.000214569
7.09286e-06
-0.000214553
4.02917e-06
-0.000214038
8.94428e-07
-0.000213022
-2.30469e-06
-0.000211504
-5.55614e-06
-0.000209481
-8.84541e-06
-0.000206948
-1.2159e-05
-0.000203904
-1.5481e-05
-0.000200345
-1.8794e-05
-0.00019627
-2.20785e-05
-0.000191679
-2.53126e-05
-0.000186574
-2.84719e-05
-0.000180959
-3.15297e-05
-0.000174842
-3.44568e-05
-0.000168234
-3.72218e-05
-0.000161151
-3.97913e-05
-0.000153613
-4.21306e-05
-0.000145647
-4.42042e-05
-0.000137284
-4.59766e-05
-0.000128565
-4.74136e-05
-0.000119535
-4.84831e-05
-0.000110246
-4.91568e-05
-0.000100758
-4.9411e-05
-9.11352e-05
-4.92286e-05
-8.14478e-05
-4.85998e-05
-7.177e-05
-4.75232e-05
-6.2178e-05
-4.60068e-05
-5.27492e-05
-4.4068e-05
-4.35598e-05
-4.1734e-05
-3.46834e-05
-3.90409e-05
-2.61894e-05
-3.6033e-05
-1.81409e-05
-3.27614e-05
-1.05947e-05
-2.92826e-05
-3.59928e-06
-2.56562e-05
2.8054e-06
-2.1944e-05
8.58742e-06
-1.82074e-05
1.37233e-05
-1.45061e-05
1.81983e-05
-1.08974e-05
2.20057e-05
-7.43421e-06
2.51468e-05
-4.1643e-06
2.76332e-05
-1.13007e-06
2.94824e-05
1.63435e-06
3.07198e-05
4.09985e-06
3.13802e-05
6.24563e-06
3.15056e-05
8.06031e-06
3.11452e-05
9.54086e-06
3.03536e-05
1.0693e-05
2.91901e-05
1.15306e-05
2.77163e-05
1.20751e-05
2.59941e-05
1.23544e-05
2.4084e-05
1.24008e-05
2.20431e-05
1.22497e-05
1.99234e-05
1.19376e-05
1.77709e-05
1.14999e-05
1.56253e-05
1.09687e-05
1.35197e-05
1.03711e-05
1.14814e-05
9.72703e-06
9.53288e-06
9.04765e-06
7.69373e-06
8.33389e-06
5.98244e-06
7.57617e-06
4.41884e-06
6.75511e-06
3.02682e-06
5.84388e-06
1.83747e-06
4.81248e-06
8.93072e-07
3.63411e-06
2.52567e-07
2.29401e-06
8.01794e-07
1.97651e-07
-9.21781e-07
6.95485e-07
-2.48265e-06
1.40852e-06
-3.73409e-06
2.25998e-06
-4.65716e-06
3.1804e-06
-5.24785e-06
4.10781e-06
-5.51774e-06
4.98849e-06
-5.49268e-06
5.77757e-06
-5.20984e-06
6.43926e-06
-4.714e-06
6.94655e-06
-4.05344e-06
7.28037e-06
-3.27609e-06
7.42834e-06
-2.42617e-06
7.38315e-06
-1.54141e-06
7.14084e-06
-6.51133e-07
6.69888e-06
2.25055e-07
6.05445e-06
1.07769e-06
5.2028e-06
1.90717e-06
4.13587e-06
2.72295e-06
2.84134e-06
3.54196e-06
1.30237e-06
4.38623e-06
-5.0309e-07
5.28169e-06
-2.60115e-06
6.25415e-06
-5.02137e-06
7.32804e-06
-7.79556e-06
8.5242e-06
-1.09564e-05
9.85855e-06
-1.45358e-05
1.13412e-05
-1.85636e-05
1.29764e-05
-2.30658e-05
1.47625e-05
-2.8063e-05
1.66922e-05
-3.35691e-05
1.87529e-05
-3.95895e-05
2.09266e-05
-4.61197e-05
2.31904e-05
-5.31442e-05
2.5516e-05
-6.06353e-05
2.78706e-05
-6.85532e-05
3.02169e-05
-7.68462e-05
3.25148e-05
-8.54519e-05
3.4722e-05
-9.42993e-05
3.6796e-05
-0.000103311
3.8696e-05
-0.000112405
4.03843e-05
-0.000121502
4.1828e-05
-0.000130522
4.30001e-05
-0.000139392
4.38801e-05
-0.000148044
4.44544e-05
-0.000156421
4.47158e-05
-0.000164473
4.46634e-05
-0.000172159
4.43012e-05
-0.000179448
4.3638e-05
-0.000186315
4.26855e-05
-0.000192743
4.14581e-05
-0.00019872
3.99716e-05
-0.00020424
3.82426e-05
-0.000209298
3.62882e-05
-0.000213894
3.41247e-05
-0.000218029
3.17684e-05
-0.000221703
2.92342e-05
-0.00022492
2.65364e-05
-0.000227682
2.36881e-05
-0.000229989
2.07016e-05
-0.000231844
1.75881e-05
-0.000233247
1.43583e-05
-0.000234197
1.10219e-05
-0.000234692
7.58837e-06
-0.00023473
4.06708e-06
-0.000234305
4.69263e-07
-0.000233416
-3.19332e-06
-0.000232059
-6.9138e-06
-0.000230226
-1.06784e-05
-0.000227911
-1.44742e-05
-0.000225106
-1.82853e-05
-0.000221806
-2.20944e-05
-0.000218003
-2.58814e-05
-0.000213692
-2.96237e-05
-0.000208868
-3.32958e-05
-0.000203528
-3.68692e-05
-0.000197673
-4.03122e-05
-0.000191305
-4.35902e-05
-0.00018443
-4.66659e-05
-0.000177061
-4.94997e-05
-0.000169215
-5.20507e-05
-0.000160914
-5.4277e-05
-0.000152191
-5.61372e-05
-0.000143082
-5.75916e-05
-0.000133635
-5.8604e-05
-0.000123903
-5.91426e-05
-0.000113949
-5.91825e-05
-0.000103843
-5.87067e-05
-9.36578e-05
-5.7708e-05
-8.34751e-05
-5.61895e-05
-7.3377e-05
-5.41661e-05
-6.34469e-05
-5.16641e-05
-5.37666e-05
-4.87212e-05
-4.44143e-05
-4.53853e-05
-3.54624e-05
-4.17133e-05
-2.69761e-05
-3.77689e-05
-1.90117e-05
-3.36205e-05
-1.16167e-05
-2.93391e-05
-4.82854e-06
-2.49955e-05
1.32433e-06
-2.0659e-05
6.82244e-06
-1.63955e-05
1.16543e-05
-1.22661e-05
1.58163e-05
-8.32628e-06
1.93116e-05
-4.62538e-06
2.2152e-05
-1.20602e-06
2.43545e-05
1.89732e-06
2.59434e-05
4.65674e-06
2.69506e-05
7.0531e-06
2.7415e-05
9.07645e-06
2.73821e-05
1.07259e-05
2.69032e-05
1.20095e-05
2.60342e-05
1.29442e-05
2.48338e-05
1.35547e-05
2.33621e-05
1.38725e-05
2.1678e-05
1.39338e-05
1.98382e-05
1.37775e-05
1.78949e-05
1.34432e-05
1.58952e-05
1.29683e-05
1.38808e-05
1.23855e-05
1.18874e-05
1.17204e-05
9.94607e-06
1.0989e-05
8.08415e-06
1.01958e-05
6.32745e-06
9.33287e-06
4.70253e-06
8.38002e-06
3.23986e-06
7.30654e-06
1.97755e-06
6.07479e-06
9.66104e-07
4.64556e-06
2.74654e-07
2.98546e-06
1.07645e-06
2.06742e-07
-1.12852e-06
7.22965e-07
-2.99887e-06
1.45436e-06
-4.46548e-06
2.31546e-06
-5.51826e-06
3.2296e-06
-6.16199e-06
4.12953e-06
-6.41768e-06
4.95815e-06
-6.32129e-06
5.66881e-06
-5.9205e-06
6.22521e-06
-5.27039e-06
6.60054e-06
-4.42877e-06
6.77622e-06
-3.45177e-06
6.74013e-06
-2.39008e-06
6.48467e-06
-1.28595e-06
6.00464e-06
-1.7111e-07
5.2952e-06
9.34503e-07
4.35008e-06
2.02281e-06
3.15992e-06
3.09733e-06
1.71114e-06
4.17173e-06
-1.47392e-08
5.26784e-06
-2.04189e-06
6.41337e-06
-4.3981e-06
7.63791e-06
-7.11548e-06
8.97153e-06
-1.02284e-05
1.04409e-05
-1.37717e-05
1.20676e-05
-1.77793e-05
1.38661e-05
-2.22817e-05
1.58436e-05
-2.73045e-05
1.79993e-05
-3.28668e-05
2.03248e-05
-3.89786e-05
2.28041e-05
-4.56399e-05
2.54142e-05
-5.28388e-05
2.81255e-05
-6.05503e-05
3.09019e-05
-6.8736e-05
3.37017e-05
-7.73439e-05
3.64785e-05
-8.63097e-05
3.91828e-05
-9.55587e-05
4.17638e-05
-0.000105008
4.41716e-05
-0.000114572
4.63595e-05
-0.000124162
4.82857e-05
-0.000133692
4.99152e-05
-0.000143085
5.12207e-05
-0.000152268
5.21833e-05
-0.00016118
5.27919e-05
-0.000169769
5.30433e-05
-0.000177994
5.29407e-05
-0.000185823
5.24928e-05
-0.000193235
5.17125e-05
-0.000200213
5.0616e-05
-0.000206749
4.92213e-05
-0.000212838
4.75475e-05
-0.000218481
4.56141e-05
-0.000223678
4.34405e-05
-0.000228435
4.10449e-05
-0.000232756
3.84451e-05
-0.000236644
3.56573e-05
-0.000240107
3.26966e-05
-0.000243147
2.95766e-05
-0.000245769
2.63099e-05
-0.000247975
2.29078e-05
-0.000249767
1.93806e-05
-0.000251147
1.57379e-05
-0.000252113
1.19884e-05
-0.000252665
8.14028e-06
-0.000252799
4.2011e-06
-0.000252505
1.74614e-07
-0.00025179
-3.90829e-06
-0.000250643
-8.06072e-06
-0.000249056
-1.22655e-05
-0.00024702
-1.651e-05
-0.000244526
-2.07795e-05
-0.000241563
-2.50572e-05
-0.000238121
-2.93236e-05
-0.000234188
-3.35562e-05
-0.000229755
-3.77292e-05
-0.000224811
-4.18134e-05
-0.000219347
-4.57755e-05
-0.000213359
-4.95789e-05
-0.000206841
-5.3183e-05
-0.000199797
-5.65444e-05
-0.000192231
-5.96167e-05
-0.000184156
-6.23521e-05
-0.000175591
-6.47018e-05
-0.000166565
-6.66181e-05
-0.000157113
-6.80553e-05
-0.000147284
-6.89724e-05
-0.000137132
-6.93345e-05
-0.000126723
-6.91151e-05
-0.000116133
-6.8298e-05
-0.000105444
-6.68789e-05
-9.47429e-05
-6.4867e-05
-8.41219e-05
-6.22851e-05
-7.3673e-05
-5.917e-05
-6.34864e-05
-5.55719e-05
-5.36474e-05
-5.15523e-05
-4.42339e-05
-4.71824e-05
-3.53144e-05
-4.254e-05
-2.69468e-05
-3.77067e-05
-1.91772e-05
-3.2765e-05
-1.20407e-05
-2.77956e-05
-5.56141e-06
-2.28748e-05
2.46021e-07
-1.80735e-05
5.37539e-06
-1.34556e-05
9.82768e-06
-9.07767e-06
1.36103e-05
-4.98866e-06
1.6737e-05
-1.22933e-06
1.92265e-05
2.16724e-06
2.11034e-05
5.17618e-06
2.23987e-05
7.78115e-06
2.31493e-05
9.97524e-06
2.33983e-05
1.17605e-05
2.3194e-05
1.31484e-05
2.25896e-05
1.41592e-05
2.1641e-05
1.48211e-05
2.0406e-05
1.51688e-05
1.89418e-05
1.52417e-05
1.73038e-05
1.50812e-05
1.5544e-05
1.4728e-05
1.37103e-05
1.42192e-05
1.18456e-05
1.35851e-05
9.98861e-06
1.2846e-05
8.17437e-06
1.201e-05
6.43614e-06
1.10711e-05
4.80769e-06
1.00085e-05
3.32641e-06
8.78782e-06
2.03728e-06
7.36392e-06
9.97755e-07
5.68509e-06
2.84095e-07
3.69912e-06
1.36054e-06
2.13294e-07
-1.34182e-06
7.39516e-07
-3.52509e-06
1.47503e-06
-5.20099e-06
2.32607e-06
-6.36931e-06
3.20934e-06
-7.04526e-06
4.0529e-06
-7.26124e-06
4.79686e-06
-7.06525e-06
5.39343e-06
-6.51708e-06
5.80632e-06
-5.68329e-06
6.00941e-06
-4.63186e-06
5.98486e-06
-3.42722e-06
5.72093e-06
-2.12614e-06
5.20956e-06
-7.74582e-07
4.44391e-06
5.94539e-07
3.41639e-06
1.96202e-06
2.11655e-06
3.32265e-06
5.29695e-07
4.68418e-06
-1.36404e-06
6.06546e-06
-3.58994e-06
7.49374e-06
-6.17809e-06
9.00152e-06
-9.16297e-06
1.06228e-05
-1.25812e-05
1.23898e-05
-1.64699e-05
1.43296e-05
-2.08644e-05
1.64621e-05
-2.5796e-05
1.87976e-05
-3.12894e-05
2.13371e-05
-3.73612e-05
2.40711e-05
-4.40173e-05
2.69809e-05
-5.12514e-05
3.00382e-05
-5.90434e-05