/*--------------------------------*- C++ -*----------------------------------*\
| =========                 |                                                 |
| \\      /  F ield         | OpenFOAM: The Open Source CFD Toolbox           |
|  \\    /   O peration     | Version:  2406                                  |
|   \\  /    A nd           | Website:  www.openfoam.com                      |
|    \\/     M anipulation  |                                                 |
\*---------------------------------------------------------------------------*/
FoamFile
{
    version     2.0;
    format      ascii;
    arch        "LSB;label=32;scalar=64";
    class       surfaceScalarField;
    location    "9.75";
    object      phi_0;
}
// * * * * * * * * * * * * * * * * * * * * * * * * * * * * * * * * * * * * * //

dimensions      [0 3 -1 0 0 0 0];

oriented        oriented;

internalField   nonuniform List<scalar> 
28560
(
5.65029e-09
-5.64733e-09
5.81824e-09
-1.68094e-10
-5.13364e-09
1.09521e-08
-2.78551e-08
2.27217e-08
-6.09531e-08
3.30981e-08
-1.02438e-07
4.14846e-08
-1.50318e-07
4.788e-08
-2.02852e-07
5.25343e-08
-2.58625e-07
5.57727e-08
-3.1654e-07
5.79156e-08
-3.75787e-07
5.92466e-08
-4.35789e-07
6.00023e-08
-4.9616e-07
6.03712e-08
-5.56658e-07
6.04979e-08
-6.17148e-07
6.04896e-08
-6.7757e-07
6.04226e-08
-7.37919e-07
6.03484e-08
-7.98218e-07
6.02997e-08
-8.58513e-07
6.02947e-08
-9.18855e-07
6.03415e-08
-9.79296e-07
6.04409e-08
-1.03988e-06
6.05886e-08
-1.10066e-06
6.07772e-08
-1.16166e-06
6.0997e-08
-1.2229e-06
6.12375e-08
-1.28438e-06
6.14872e-08
-1.34612e-06
6.17343e-08
-1.40808e-06
6.19669e-08
-1.47026e-06
6.2173e-08
-1.5326e-06
6.23402e-08
-1.59505e-06
6.24562e-08
-1.65756e-06
6.25086e-08
-1.72005e-06
6.24844e-08
-1.78242e-06
6.23709e-08
-1.84457e-06
6.21548e-08
-1.9064e-06
6.18227e-08
-1.96776e-06
6.13612e-08
-2.02851e-06
6.07567e-08
-2.08851e-06
5.99957e-08
-2.14757e-06
5.90648e-08
-2.20552e-06
5.79507e-08
-2.26217e-06
5.66408e-08
-2.31729e-06
5.51229e-08
-2.37067e-06
5.33856e-08
-2.42209e-06
5.14183e-08
-2.4713e-06
4.92116e-08
-2.51806e-06
4.67575e-08
-2.56211e-06
4.40494e-08
-2.60319e-06
4.10825e-08
-2.64105e-06
3.78539e-08
-2.67541e-06
3.4363e-08
-2.70602e-06
3.06112e-08
-2.73262e-06
2.66026e-08
-2.75497e-06
2.2344e-08
-2.77281e-06
1.78449e-08
-2.78593e-06
1.31176e-08
-2.79411e-06
8.17733e-09
-2.79715e-06
3.04679e-09
-2.79489e-06
-2.26877e-09
-2.78716e-06
-7.72246e-09
-2.77386e-06
-1.33016e-08
-2.75489e-06
-1.89731e-08
-2.73018e-06
-2.47048e-08
-2.69972e-06
-3.04622e-08
-2.66351e-06
-3.6209e-08
-2.62161e-06
-4.19073e-08
-2.57409e-06
-4.75179e-08
-2.52109e-06
-5.3001e-08
-2.46277e-06
-5.83167e-08
-2.39934e-06
-6.34251e-08
-2.33106e-06
-6.82873e-08
-2.25819e-06
-7.28659e-08
-2.18107e-06
-7.71252e-08
-2.10003e-06
-8.10322e-08
-2.01548e-06
-8.45567e-08
-1.92781e-06
-8.76722e-08
-1.83745e-06
-9.03559e-08
-1.74486e-06
-9.25896e-08
-1.6505e-06
-9.43593e-08
-1.55484e-06
-9.5656e-08
-1.45837e-06
-9.64755e-08
-1.36155e-06
-9.68186e-08
-1.26486e-06
-9.66908e-08
-1.16876e-06
-9.61023e-08
-1.07369e-06
-9.50674e-08
-9.80085e-07
-9.36047e-08
-8.88349e-07
-9.1736e-08
-7.98863e-07
-8.94862e-08
-7.1198e-07
-8.68823e-08
-6.28027e-07
-8.39534e-08
-5.47298e-07
-8.07295e-08
-4.70057e-07
-7.72409e-08
-3.96539e-07
-7.35181e-08
-3.26948e-07
-6.95904e-08
-2.61462e-07
-6.5486e-08
-2.00231e-07
-6.12312e-08
-1.43381e-07
-5.68503e-08
-9.10156e-08
-5.23651e-08
-4.32211e-08
-4.77945e-08
-6.5928e-11
-4.31552e-08
3.8395e-08
-3.84609e-08
7.21185e-08
-3.37235e-08
1.01071e-07
-2.89526e-08
1.25228e-07
-2.41568e-08
1.44572e-07
-1.93442e-08
1.59096e-07
-1.45242e-08
1.68805e-07
-9.709e-09
1.73719e-07
-4.91411e-09
1.73959e-07
-2.39835e-10
1.69424e-07
4.53544e-09
1.60369e-07
9.05436e-09
1.47034e-07
1.33358e-08
1.29746e-07
1.72871e-08
1.09058e-07
2.06879e-08
8.58253e-08
2.32331e-08
6.13507e-08
2.44746e-08
3.75852e-08
2.37655e-08
1.72661e-08
2.03191e-08
4.06362e-09
1.32025e-08
4.06361e-09
1.3125e-10
-5.77873e-09
-1.66265e-08
1.65903e-08
-6.01372e-08
5.44633e-08
-1.30925e-07
9.35092e-08
-2.26338e-07
1.28511e-07
-3.42365e-07
1.57511e-07
-4.74758e-07
1.80274e-07
-6.196e-07
1.97377e-07
-7.73549e-07
2.09721e-07
-9.33899e-07
2.18266e-07
-1.09856e-06
2.23904e-07
-1.26596e-06
2.2741e-07
-1.43501e-06
2.29418e-07
-1.60495e-06
2.30433e-07
-1.77529e-06
2.30837e-07
-1.94578e-06
2.30911e-07
-2.11629e-06
2.30852e-07
-2.28678e-06
2.3079e-07
-2.45729e-06
2.30804e-07
-2.62788e-06
2.30935e-07
-2.79863e-06
2.31196e-07
-2.96963e-06
2.31581e-07
-3.14092e-06
2.32069e-07
-3.31255e-06
2.32633e-07
-3.48455e-06
2.33238e-07
-3.65691e-06
2.33846e-07
-3.8296e-06
2.34417e-07
-4.00254e-06
2.34909e-07
-4.17564e-06
2.35279e-07
-4.34879e-06
2.35485e-07
-4.52181e-06
2.35482e-07
-4.69453e-06
2.35226e-07
-4.86672e-06
2.3467e-07
-5.03811e-06
2.33769e-07
-5.20844e-06
2.32476e-07
-5.37736e-06
2.30743e-07
-5.54452e-06
2.28523e-07
-5.70953e-06
2.25768e-07
-5.87196e-06
2.22432e-07
-6.03137e-06
2.18467e-07
-6.18724e-06
2.13828e-07
-6.33908e-06
2.08473e-07
-6.48631e-06
2.0236e-07
-6.62838e-06
1.95452e-07
-6.76468e-06
1.87714e-07
-6.89458e-06
1.79116e-07
-7.01746e-06
1.69633e-07
-7.13265e-06
1.59247e-07
-7.23951e-06
1.47944e-07
-7.33738e-06
1.35719e-07
-7.42559e-06
1.22575e-07
-7.5035e-06
1.08521e-07
-7.57048e-06
9.35776e-08
-7.62591e-06
7.77726e-08
-7.6692e-06
6.11445e-08
-7.69983e-06
4.37415e-08
-7.71727e-06
2.56222e-08
-7.72108e-06
6.85655e-09
-7.71087e-06
-1.24846e-08
-7.68629e-06
-3.23043e-08
-7.64708e-06
-5.25085e-08
-7.59306e-06
-7.29923e-08
-7.52412e-06
-9.36414e-08
-7.44025e-06
-1.14335e-07
-7.34151e-06
-1.34947e-07
-7.22807e-06
-1.55345e-07
-7.1002e-06
-1.75395e-07
-6.95824e-06
-1.94962e-07
-6.80265e-06
-2.13907e-07
-6.63397e-06
-2.32098e-07
-6.45286e-06
-2.49402e-07
-6.26003e-06
-2.65693e-07
-6.0563e-06
-2.80853e-07
-5.84257e-06
-2.94769e-07
-5.61978e-06
-3.07343e-07
-5.38897e-06
-3.18486e-07
-5.1512e-06
-3.28122e-07
-4.9076e-06
-3.36191e-07
-4.65931e-06
-3.42648e-07
-4.4075e-06
-3.47462e-07
-4.15336e-06
-3.50619e-07
-3.89805e-06
-3.52124e-07
-3.64275e-06
-3.51992e-07
-3.3886e-06
-3.50259e-07
-3.13669e-06
-3.46972e-07
-2.88811e-06
-3.42191e-07
-2.64385e-06
-3.35988e-07
-2.4049e-06
-3.28445e-07
-2.17213e-06
-3.19652e-07
-1.94637e-06
-3.09704e-07
-1.7284e-06
-2.987e-07
-1.51891e-06
-2.86739e-07
-1.3185e-06
-2.73922e-07
-1.12775e-06
-2.60347e-07
-9.47127e-07
-2.46105e-07
-7.77075e-07
-2.31283e-07
-6.17962e-07
-2.15963e-07
-4.70112e-07
-2.00216e-07
-3.33802e-07
-1.84104e-07
-2.09272e-07
-1.67684e-07
-9.67305e-08
-1.51003e-07
3.64588e-09
-1.341e-07
9.17041e-08
-1.17011e-07
1.67315e-07
-9.97681e-08
2.30377e-07
-8.24057e-08
2.80816e-07
-6.49631e-08
3.18599e-07
-4.74917e-08
3.43752e-07
-3.00675e-08
3.56307e-07
-1.27946e-08
3.56601e-07
4.241e-09
3.4497e-07
2.06856e-08
3.21996e-07
3.63092e-08
2.88665e-07
5.06187e-08
2.46424e-07
6.29292e-08
1.974e-07
7.22562e-08
1.44645e-07
7.72301e-08
9.23857e-08
7.60248e-08
4.62608e-08
6.6444e-08
1.31323e-08
4.6331e-08
1.71959e-08
-1.1511e-08
5.73258e-09
-5.63004e-08
6.13801e-08
-1.39518e-07
1.37681e-07
-2.60709e-07
2.147e-07
-4.16297e-07
2.84099e-07
-6.01192e-07
3.42407e-07
-8.0992e-07
3.89001e-07
-1.03728e-06
4.24739e-07
-1.27871e-06
4.51145e-07
-1.53038e-06
4.69939e-07
-1.78926e-06
4.82782e-07
-2.053e-06
4.91154e-07
-2.31988e-06
4.96301e-07
-2.58868e-06
4.99229e-07
-2.85856e-06
5.00718e-07
-3.129e-06
5.01354e-07
-3.39971e-06
5.01555e-07
-3.67052e-06
5.01606e-07
-3.94141e-06
5.01688e-07
-4.21237e-06
5.01902e-07
-4.48347e-06
5.02291e-07
-4.75474e-06
5.02854e-07
-5.02623e-06
5.0356e-07
-5.29796e-06
5.04357e-07
-5.5699e-06
5.05181e-07
-5.84201e-06
5.05958e-07
-6.1142e-06
5.06608e-07
-6.38634e-06
5.07047e-07
-6.65825e-06
5.07187e-07
-6.9297e-06
5.06941e-07
-7.20044e-06
5.06216e-07
-7.47014e-06
5.04922e-07
-7.73843e-06
5.02963e-07
-8.0049e-06
5.00245e-07
-8.2691e-06
4.9667e-07
-8.5305e-06
4.92143e-07
-8.78854e-06
4.86565e-07
-9.04261e-06
4.79842e-07
-9.29206e-06
4.71876e-07
-9.53617e-06
4.62576e-07
-9.77419e-06
4.51851e-07
-1.00053e-05
4.39616e-07
-1.02288e-05
4.25792e-07
-1.04436e-05
4.10305e-07
-1.0649e-05
3.9309e-07
-1.0844e-05
3.74094e-07
-1.10276e-05
3.53271e-07
-1.1199e-05
3.3059e-07
-1.1357e-05
3.06034e-07
-1.15009e-05
2.79598e-07
-1.16296e-05
2.51296e-07
-1.17423e-05
2.21158e-07
-1.18379e-05
1.89233e-07
-1.19157e-05
1.55587e-07
-1.19749e-05
1.20309e-07
-1.20147e-05
8.35042e-08
-1.20344e-05
4.52995e-08
-1.20333e-05
5.83952e-09
-1.20111e-05
-3.47063e-08
-1.19673e-05
-7.61584e-08
-1.19015e-05
-1.18311e-07
-1.18135e-05
-1.60948e-07
-1.17033e-05
-2.03837e-07
-1.15709e-05
-2.4673e-07
-1.14165e-05
-2.89373e-07
-1.12403e-05
-3.31501e-07
-1.10429e-05
-3.72845e-07
-1.08247e-05
-4.13134e-07
-1.05865e-05
-4.52097e-07
-1.03291e-05
-4.89467e-07
-1.00536e-05
-5.24987e-07
-9.76085e-06
-5.58407e-07
-9.45221e-06
-5.89496e-07
-9.12894e-06
-6.18037e-07
-8.79244e-06
-6.43837e-07
-8.44421e-06
-6.66723e-07
-8.08578e-06
-6.86551e-07
-7.71877e-06
-7.03203e-07
-7.34482e-06
-7.16594e-07
-6.96562e-06
-7.26665e-07
-6.58284e-06
-7.33393e-07
-6.19818e-06
-7.36783e-07
-5.8133e-06
-7.36873e-07
-5.42984e-06
-7.33728e-07
-5.04937e-06
-7.27441e-07
-4.67343e-06
-7.18131e-07
-4.30347e-06
-7.05939e-07
-3.9409e-06
-6.91024e-07
-3.58699e-06
-6.73559e-07
-3.24296e-06
-6.53729e-07
-2.90994e-06
-6.31727e-07
-2.58893e-06
-6.07748e-07
-2.28087e-06
-5.81984e-07
-1.98659e-06
-5.54624e-07
-1.70685e-06
-5.25848e-07
-1.4423e-06
-4.95826e-07
-1.19355e-06
-4.64711e-07
-9.61127e-07
-4.32644e-07
-7.45484e-07
-3.99747e-07
-5.47039e-07
-3.66129e-07
-3.66161e-07
-3.31881e-07
-2.03177e-07
-2.97084e-07
-5.83763e-08
-2.61811e-07
6.79867e-08
-2.26131e-07
1.757e-07
-1.90119e-07
2.64604e-07
-1.53866e-07
3.34604e-07
-1.17492e-07
3.85698e-07
-8.11616e-08
4.18008e-07
-4.5105e-08
4.31914e-07
-9.66463e-09
4.27936e-07
2.4663e-08
4.07035e-07
5.72102e-08
3.70657e-07
8.69974e-08
3.20914e-07
1.12672e-07
2.60799e-07
1.32371e-07
1.94426e-07
1.43603e-07
1.27265e-07
1.43185e-07
6.63246e-08
1.27384e-07
2.0187e-08
9.24686e-08
3.73829e-08
-2.47623e-08
3.04952e-08
-1.00352e-07
1.3697e-07
-2.2611e-07
2.63439e-07
-3.98823e-07
3.87413e-07
-6.13366e-07
4.98643e-07
-8.63597e-07
5.92638e-07
-1.14315e-06
6.68556e-07
-1.446e-06
7.2759e-07
-1.76679e-06
7.71933e-07
-2.10097e-06
8.04119e-07
-2.44484e-06
8.26653e-07
-2.7955e-06
8.41809e-07
-3.15073e-06
8.51533e-07
-3.50892e-06
8.57422e-07
-3.86894e-06
8.60732e-07
-4.23e-06
8.62421e-07
-4.59163e-06
8.63185e-07
-4.95354e-06
8.63508e-07
-5.31556e-06
8.63708e-07
-5.67762e-06
8.63968e-07
-6.03971e-06
8.64376e-07
-6.4018e-06
8.64947e-07
-6.76388e-06
8.65642e-07
-7.12591e-06
8.66389e-07
-7.48782e-06
8.67087e-07
-7.84948e-06
8.67622e-07
-8.21074e-06
8.67866e-07
-8.57138e-06
8.67682e-07
-8.93112e-06
8.66931e-07
-9.28965e-06
8.65466e-07
-9.64657e-06
8.63138e-07
-1.00014e-05
8.59795e-07
-1.03538e-05
8.55284e-07
-1.0703e-05
8.49447e-07
-1.10484e-05
8.42127e-07
-1.13894e-05
8.33166e-07
-1.17253e-05
8.22406e-07
-1.20551e-05
8.09691e-07
-1.23781e-05
7.94868e-07
-1.26933e-05
7.7779e-07
-1.29998e-05
7.58313e-07
-1.32965e-05
7.36304e-07
-1.35823e-05
7.11641e-07
-1.38562e-05
6.84211e-07
-1.41171e-05
6.53918e-07
-1.43637e-05
6.20683e-07
-1.45948e-05
5.84445e-07
-1.48094e-05
5.45164e-07
-1.50062e-05
5.02823e-07
-1.5184e-05
4.57431e-07
-1.53418e-05
4.09023e-07
-1.54783e-05
3.57663e-07
-1.55925e-05
3.03444e-07
-1.56834e-05
2.46489e-07
-1.575e-05
1.86954e-07
-1.57915e-05
1.25024e-07
-1.58072e-05
6.09172e-08
-1.57962e-05
-5.11544e-09
-1.57581e-05
-7.28005e-08
-1.56924e-05
-1.41825e-07
-1.55989e-05
-2.11859e-07
-1.54773e-05
-2.82541e-07
-1.53276e-05
-3.53493e-07
-1.51501e-05
-4.24315e-07
-1.49448e-05
-4.94595e-07
-1.47124e-05
-5.63907e-07
-1.44535e-05
-6.31822e-07
-1.41687e-05
-6.97906e-07
-1.38591e-05
-7.61731e-07
-1.35256e-05
-8.22875e-07
-1.31697e-05
-8.80932e-07
-1.27926e-05
-9.35513e-07
-1.23958e-05
-9.86252e-07
-1.19811e-05
-1.03281e-06
-1.155e-05
-1.0749e-06
-1.11045e-05
-1.11223e-06
-1.06464e-05
-1.1446e-06
-1.01778e-05
-1.17183e-06
-9.70064e-06
-1.19377e-06
-9.21696e-06
-1.21035e-06
-8.72882e-06
-1.22152e-06
-8.23829e-06
-1.22732e-06
-7.74738e-06
-1.22778e-06
-7.25808e-06
-1.22303e-06
-6.77233e-06
-1.2132e-06
-6.29197e-06
-1.19849e-06
-5.81879e-06
-1.17912e-06
-5.35449e-06
-1.15533e-06
-4.90064e-06
-1.1274e-06
-4.45874e-06
-1.09563e-06
-4.03017e-06
-1.0603e-06
-3.61619e-06
-1.02173e-06
-3.21796e-06
-9.80214e-07
-2.83653e-06
-9.3605e-07
-2.47286e-06
-8.89517e-07
-2.12781e-06
-8.40879e-07
-1.80215e-06
-7.90376e-07
-1.49656e-06
-7.38225e-07
-1.21169e-06
-6.84618e-07
-9.48099e-07
-6.29723e-07
-7.06296e-07
-5.73684e-07
-4.8675e-07
-5.1663e-07
-2.89882e-07
-4.58679e-07
-1.16066e-07
-3.99947e-07
3.43782e-08
-3.40564e-07
1.61201e-07
-2.8069e-07
2.64246e-07
-2.20536e-07
3.43481e-07
-1.60397e-07
3.99061e-07
-1.00685e-07
4.3138e-07
-4.19837e-08
4.41152e-07
1.48912e-08
4.29564e-07
6.87982e-08
3.9838e-07
1.18181e-07
3.50141e-07
1.60911e-07
2.88363e-07
1.9415e-07
2.17764e-07
2.14202e-07
1.44512e-07
2.16437e-07
7.64943e-08
1.95402e-07
2.37183e-08
1.45245e-07
6.11012e-08
-3.77428e-08
6.82381e-08
-1.441e-07
2.43327e-07
-3.12502e-07
4.31842e-07
-5.36227e-07
6.11137e-07
-8.08052e-07
7.70469e-07
-1.12055e-06
9.0514e-07
-1.46651e-06
1.01451e-06
-1.83923e-06
1.10031e-06
-2.2328e-06
1.16551e-06
-2.64219e-06
1.21351e-06
-3.06326e-06
1.24772e-06
-3.49269e-06
1.27124e-06
-3.92793e-06
1.28678e-06
-4.36708e-06
1.29657e-06
-4.80872e-06
1.30238e-06
-5.25189e-06
1.30559e-06
-5.69592e-06
1.30721e-06
-6.14036e-06
1.30795e-06
-6.58494e-06
1.30829e-06
-7.02949e-06
1.30851e-06
-7.47387e-06
1.30876e-06
-7.91801e-06
1.30908e-06
-8.3618e-06
1.30943e-06
-8.80512e-06
1.30971e-06
-9.24782e-06
1.30979e-06
-9.68969e-06
1.3095e-06
-1.01305e-05
1.30867e-06
-1.05699e-05
1.3071e-06
-1.10076e-05
1.30459e-06
-1.14431e-05
1.30094e-06
-1.18758e-05
1.29591e-06
-1.23053e-05
1.2893e-06
-1.27309e-05
1.28088e-06
-1.31519e-05
1.27042e-06
-1.35675e-05
1.2577e-06
-1.39768e-05
1.24249e-06
-1.4379e-05
1.22456e-06
-1.4773e-05
1.20369e-06
-1.51578e-05
1.17967e-06
-1.55323e-05
1.15228e-06
-1.58953e-05
1.12134e-06
-1.62456e-05
1.08664e-06
-1.6582e-05
1.04804e-06
-1.69032e-05
1.00537e-06
-1.72078e-05
9.58518e-07
-1.74945e-05
9.07377e-07
-1.77619e-05
8.51879e-07
-1.80087e-05
7.91983e-07
-1.82336e-05
7.27684e-07
-1.84352e-05
6.59014e-07
-1.86122e-05
5.86043e-07
-1.87634e-05
5.08884e-07
-1.88877e-05
4.27689e-07
-1.89838e-05
3.42656e-07
-1.90509e-05
2.54028e-07
-1.9088e-05
1.6209e-07
-1.90942e-05
6.71714e-08
-1.9069e-05
-3.03547e-08
-1.90117e-05
-1.30077e-07
-1.8922e-05
-2.31542e-07
-1.87996e-05
-3.34262e-07
-1.86444e-05
-4.37718e-07
-1.84565e-05
-5.41362e-07
-1.82362e-05
-6.44621e-07
-1.79839e-05
-7.46905e-07
-1.77002e-05
-8.47612e-07
-1.73859e-05
-9.46132e-07
-1.7042e-05
-1.04186e-06
-1.66695e-05
-1.13418e-06
-1.62699e-05
-1.22251e-06
-1.58445e-05
-1.30629e-06
-1.53951e-05
-1.38497e-06
-1.49233e-05
-1.45805e-06
-1.4431e-05
-1.52507e-06
-1.39203e-05
-1.58559e-06
-1.33933e-05
-1.63928e-06
-1.28521e-05
-1.68581e-06
-1.22989e-05
-1.72494e-06
-1.17362e-05
-1.7565e-06
-1.11662e-05
-1.78038e-06
-1.05912e-05
-1.79654e-06
-1.00135e-05
-1.80499e-06
-9.43545e-06
-1.80583e-06
-8.85927e-06
-1.79921e-06
-8.28713e-06
-1.78534e-06
-7.72113e-06
-1.76449e-06
-7.16327e-06
-1.73697e-06
-6.61547e-06
-1.70313e-06
-6.07952e-06
-1.66336e-06
-5.5571e-06
-1.61805e-06
-5.04977e-06
-1.56763e-06
-4.55898e-06
-1.51252e-06
-4.08606e-06
-1.45314e-06
-3.6322e-06
-1.3899e-06
-3.19852e-06
-1.3232e-06
-2.78601e-06
-1.25339e-06
-2.39559e-06
-1.1808e-06
-2.02807e-06
-1.10575e-06
-1.6842e-06
-1.02848e-06
-1.36468e-06
-9.49242e-07
-1.07014e-06
-8.68228e-07
-8.01152e-07
-7.85619e-07
-5.58247e-07
-7.01584e-07
-3.41901e-07
-6.16293e-07
-1.52523e-07
-5.29942e-07
9.55954e-09
-4.42772e-07
1.44133e-07
-3.55109e-07
2.51136e-07
-2.67401e-07
3.30723e-07
-1.80271e-07
3.83329e-07
-9.45891e-08
4.09774e-07
-1.15547e-08
4.1138e-07
6.71927e-08
3.90119e-07
1.39442e-07
3.48784e-07
2.02246e-07
2.9119e-07
2.51743e-07
2.22404e-07
2.82988e-07
1.49013e-07
2.89828e-07
7.94982e-08
2.64917e-07
2.48282e-08
1.99915e-07
8.59294e-08
-4.9837e-08
1.18075e-07
-1.85517e-07
3.79007e-07
-3.95054e-07
6.41379e-07
-6.68025e-07
8.84109e-07
-9.9481e-07
1.09725e-06
-1.36648e-06
1.27681e-06
-1.77485e-06
1.42288e-06
-2.2126e-06
1.53806e-06
-2.67336e-06
1.62627e-06
-3.15173e-06
1.69188e-06
-3.64325e-06
1.73925e-06
-4.14437e-06
1.77236e-06
-4.65227e-06
1.79468e-06
-5.16483e-06
1.80912e-06
-5.68044e-06
1.818e-06
-6.19797e-06
1.82312e-06
-6.71659e-06
1.82583e-06
-7.23572e-06
1.82708e-06
-7.75496e-06
1.82753e-06
-8.27403e-06
1.82758e-06
-8.79271e-06
1.82744e-06
-9.31079e-06
1.82717e-06
-9.82811e-06
1.82674e-06
-1.03444e-05
1.82604e-06
-1.08595e-05
1.82488e-06
-1.13731e-05
1.82307e-06
-1.18848e-05
1.82036e-06
-1.23942e-05
1.81651e-06
-1.29008e-05
1.81123e-06
-1.34042e-05
1.80426e-06
-1.39035e-05
1.79529e-06
-1.43983e-05
1.78404e-06
-1.48876e-05
1.77021e-06
-1.53707e-05
1.75349e-06
-1.58466e-05
1.73359e-06
-1.63143e-05
1.71019e-06
-1.67727e-05
1.68301e-06
-1.72208e-05
1.65174e-06
-1.76572e-05
1.61612e-06
-1.80808e-05
1.57586e-06
-1.84902e-05
1.53072e-06
-1.8884e-05
1.48046e-06
-1.92608e-05
1.42487e-06
-1.96192e-05
1.36378e-06
-1.99577e-05
1.29702e-06
-2.02749e-05
1.2245e-06
-2.05691e-05
1.14614e-06
-2.0839e-05
1.0619e-06
-2.10831e-05
9.71806e-07
-2.13001e-05
8.75926e-07
-2.14884e-05
7.7438e-07
-2.16469e-05
6.67342e-07
-2.17742e-05
5.55043e-07
-2.18693e-05
4.37771e-07
-2.19312e-05
3.15873e-07
-2.19588e-05
1.89751e-07
-2.19515e-05
5.98641e-08
-2.19086e-05
-7.32742e-08
-2.18296e-05
-2.09099e-07
-2.17141e-05
-3.46997e-07
-2.15621e-05
-4.86311e-07
-2.13735e-05
-6.26343e-07
-2.11485e-05
-7.66362e-07
-2.08875e-05
-9.0561e-07
-2.05911e-05
-1.04331e-06
-2.026e-05
-1.17866e-06
-1.98953e-05
-1.31086e-06
-1.9498e-05
-1.43913e-06
-1.90695e-05
-1.56267e-06
-1.86113e-05
-1.68071e-06
-1.81251e-05
-1.79253e-06
-1.76126e-05
-1.89743e-06
-1.70759e-05
-1.99475e-06
-1.65171e-05
-2.08391e-06
-1.59383e-05
-2.16436e-06
-1.5342e-05
-2.23564e-06
-1.47304e-05
-2.29737e-06
-1.41061e-05
-2.34925e-06
-1.34716e-05
-2.39104e-06
-1.28293e-05
-2.42263e-06
-1.21819e-05
-2.44395e-06
-1.15318e-05
-2.45506e-06
-1.08816e-05
-2.45608e-06
-1.02335e-05
-2.44721e-06
-9.59014e-06
-2.42875e-06
-8.95361e-06
-2.40103e-06
-8.32611e-06
-2.36446e-06
-7.70972e-06
-2.31952e-06
-7.10637e-06
-2.2667e-06
-6.51789e-06
-2.20653e-06
-5.94596e-06
-2.13956e-06
-5.39214e-06
-2.06633e-06
-4.85788e-06
-1.9874e-06
-4.34449e-06
-1.9033e-06
-3.85316e-06
-1.81453e-06
-3.38499e-06
-1.72155e-06
-2.94098e-06
-1.62481e-06
-2.52205e-06
-1.52468e-06
-2.12902e-06
-1.42151e-06
-1.76266e-06
-1.3156e-06
-1.42369e-06
-1.2072e-06
-1.11277e-06
-1.09654e-06
-8.30501e-07
-9.83854e-07
-5.77427e-07
-8.69367e-07
-3.54026e-07
-7.53342e-07
-1.6068e-07
-6.36118e-07
2.35468e-09
-5.18144e-07
1.34994e-07
-4.0004e-07
2.37387e-07
-2.82664e-07
3.09996e-07
-1.67198e-07
3.53695e-07
-5.52542e-08
3.69892e-07
5.09963e-08
3.60672e-07
1.48662e-07
3.28969e-07
2.33949e-07
2.78763e-07
3.0195e-07
2.15312e-07
3.46439e-07
1.45453e-07
3.59687e-07
7.80177e-08
3.32353e-07
2.4449e-08
2.53483e-07
1.10378e-07
-6.089e-08
1.78965e-07
-2.23889e-07
5.42007e-07
-4.72217e-07
8.89706e-07
-7.91873e-07
1.20376e-06
-1.17075e-06
1.47613e-06
-1.59827e-06
1.70433e-06
-2.06519e-06
1.8898e-06
-2.56353e-06
2.0364e-06
-3.08648e-06
2.14921e-06
-3.62832e-06
2.23372e-06
-4.18438e-06
2.29531e-06
-4.7509e-06
2.33887e-06
-5.32491e-06
2.36869e-06
-5.90412e-06
2.38833e-06
-6.4868e-06
2.40068e-06
-7.07166e-06
2.40798e-06
-7.65776e-06
2.41192e-06
-8.2444e-06
2.41372e-06
-8.83107e-06
2.4142e-06
-9.41737e-06
2.41388e-06
-1.0003e-05
2.41304e-06
-1.05876e-05
2.41179e-06
-1.11709e-05
2.41009e-06
-1.17527e-05
2.4078e-06
-1.23325e-05
2.40472e-06
-1.29101e-05
2.40059e-06
-1.34848e-05
2.39511e-06
-1.40563e-05
2.38796e-06
-1.46238e-05
2.3788e-06
-1.51869e-05
2.36729e-06
-1.57446e-05
2.35304e-06
-1.62962e-05
2.33568e-06
-1.68409e-05
2.31485e-06
-1.73775e-05
2.29014e-06
-1.79051e-05
2.2612e-06
-1.84226e-05
2.22762e-06
-1.89286e-05
2.18905e-06
-1.9422e-05
2.14512e-06
-1.99013e-05
2.09549e-06
-2.03653e-05
2.03981e-06
-2.08124e-05
1.9778e-06
-2.12411e-05
1.90916e-06
-2.16499e-05
1.83365e-06
-2.20372e-05
1.75108e-06
-2.24014e-05
1.66126e-06
-2.2741e-05
1.56408e-06
-2.30543e-05
1.45949e-06
-2.33399e-05
1.34747e-06
-2.35962e-05
1.22808e-06
-2.38217e-05
1.10143e-06
-2.4015e-05
9.67702e-07
-2.41748e-05
8.27157e-07
-2.42999e-05
6.80116e-07
-2.43891e-05
5.26971e-07
-2.44414e-05
3.68189e-07
-2.4456e-05
2.04305e-07
-2.4432e-05
3.59206e-08
-2.4369e-05
-1.36294e-07
-2.42665e-05
-3.11609e-07
-2.41242e-05
-4.89236e-07
-2.39422e-05
-6.68336e-07
-2.37205e-05
-8.48023e-07
-2.34595e-05
-1.02737e-06
-2.31597e-05
-1.20543e-06
-2.28218e-05
-1.38121e-06
-2.24467e-05
-1.55373e-06
-2.20356e-05
-1.72199e-06
-2.15897e-05
-1.88501e-06
-2.11106e-05
-2.0418e-06
-2.05999e-05
-2.19142e-06
-2.00594e-05
-2.33298e-06
-1.94913e-05
-2.4656e-06
-1.88975e-05
-2.5885e-06
-1.82805e-05
-2.70094e-06
-1.76426e-05
-2.80228e-06
-1.69863e-05
-2.89195e-06
-1.63141e-05
-2.96949e-06
-1.56288e-05
-3.03454e-06
-1.49331e-05
-3.08683e-06
-1.42295e-05
-3.1262e-06
-1.35208e-05
-3.15262e-06
-1.28097e-05
-3.16615e-06
-1.20989e-05
-3.16695e-06
-1.13908e-05
-3.1553e-06
-1.0688e-05
-3.13155e-06
-9.99287e-06
-3.09615e-06
-9.30772e-06
-3.04961e-06
-8.63471e-06
-2.99253e-06
-7.9759e-06
-2.92552e-06
-7.33318e-06
-2.84925e-06
-6.70835e-06
-2.7644e-06
-6.10302e-06
-2.67165e-06
-5.51872e-06
-2.5717e-06
-4.95682e-06
-2.4652e-06
-4.41858e-06
-2.35277e-06
-3.90513e-06
-2.235e-06
-3.41753e-06
-2.11241e-06
-2.95673e-06
-1.98548e-06
-2.52362e-06
-1.85463e-06
-2.119e-06
-1.72022e-06
-1.74363e-06
-1.58257e-06
-1.3982e-06
-1.44197e-06
-1.08337e-06
-1.29869e-06
-7.99708e-07
-1.15302e-06
-5.47737e-07
-1.00531e-06
-3.27866e-07
-8.55989e-07
-1.40374e-07
-7.05636e-07
1.46429e-08
-5.55057e-07
1.37334e-07
-4.05355e-07
2.28176e-07
-2.5804e-07
2.88074e-07
-1.15152e-07
3.18479e-07
2.05909e-08
3.21536e-07
1.45605e-07
3.00249e-07
2.55236e-07
2.58675e-07
3.43523e-07
2.02172e-07
4.02942e-07
1.37699e-07
4.2416e-07
7.42329e-08
3.95819e-07
2.33353e-08
3.04381e-07
1.33714e-07
-7.09315e-08
2.49897e-07
-2.59097e-07
7.30172e-07
-5.43513e-07
1.17412e-06
-9.0686e-07
1.56711e-06
-1.3346e-06
1.90386e-06
-1.81446e-06
2.18419e-06
-2.33609e-06
2.41144e-06
-2.8908e-06
2.59111e-06
-3.4713e-06
2.72972e-06
-4.07162e-06
2.83404e-06
-4.68686e-06
2.91056e-06
-5.31314e-06
2.96515e-06
-5.94737e-06
3.00292e-06
-6.58715e-06
3.02811e-06
-7.23066e-06
3.04419e-06
-7.8765e-06
3.05382e-06
-8.52362e-06
3.05905e-06
-9.17124e-06
3.06133e-06
-9.81873e-06
3.06169e-06
-1.04656e-05
3.06075e-06
-1.11114e-05
3.05887e-06
-1.17558e-05
3.05618e-06
-1.23984e-05
3.05265e-06
-1.30387e-05
3.04812e-06
-1.36763e-05
3.04236e-06
-1.43108e-05
3.03505e-06
-1.49415e-05
3.02584e-06
-1.55679e-05
3.01434e-06
-1.61892e-05
3.00013e-06
-1.68047e-05
2.98278e-06
-1.74135e-05
2.96184e-06
-1.80147e-05
2.93687e-06
-1.86073e-05
2.90739e-06
-1.91901e-05
2.87295e-06
-1.97619e-05
2.83308e-06
-2.03216e-05
2.78732e-06
-2.08678e-05
2.73524e-06
-2.13991e-05
2.6764e-06
-2.1914e-05
2.61039e-06
-2.2411e-05
2.53682e-06
-2.28886e-05
2.45533e-06
-2.3345e-05
2.36562e-06
-2.37788e-05
2.2674e-06
-2.41881e-05
2.16045e-06
-2.45715e-05
2.04459e-06
-2.49271e-05
1.91973e-06
-2.52534e-05
1.7858e-06
-2.55488e-05
1.64285e-06
-2.58117e-05
1.49096e-06
-2.60406e-05
1.33033e-06
-2.62341e-05
1.1612e-06
-2.63908e-05
9.83928e-07
-2.65097e-05
7.9894e-07
-2.65894e-05
6.06748e-07
-2.66292e-05
4.07949e-07
-2.66281e-05
2.03224e-07
-2.65855e-05
-6.66806e-09
-2.65009e-05
-2.20892e-07
-2.6374e-05
-4.38542e-07
-2.62046e-05
-6.58646e-07
-2.59927e-05
-8.80173e-07
-2.57387e-05
-1.10204e-06
-2.5443e-05
-1.32312e-06
-2.51061e-05
-1.54226e-06
-2.47291e-05
-1.75828e-06
-2.43128e-05
-1.96997e-06
-2.38587e-05
-2.17615e-06
-2.33681e-05
-2.37562e-06
-2.28426e-05
-2.56723e-06
-2.22842e-05
-2.74984e-06
-2.16948e-05
-2.92238e-06
-2.10766e-05
-3.08383e-06
-2.04318e-05
-3.23324e-06
-1.9763e-05
-3.36975e-06
-1.90727e-05
-3.4926e-06
-1.83635e-05
-3.60112e-06
-1.76382e-05
-3.69477e-06
-1.68996e-05
-3.77313e-06
-1.61506e-05
-3.8359e-06
-1.53939e-05
-3.8829e-06
-1.46324e-05
-3.9141e-06
-1.38689e-05
-3.9296e-06
-1.31063e-05
-3.92961e-06
-1.23471e-05
-3.91446e-06
-1.15941e-05
-3.88461e-06
-1.08496e-05
-3.8406e-06
-1.01162e-05
-3.78306e-06
-9.39597e-06
-3.71272e-06
-8.69116e-06
-3.63033e-06
-8.00371e-06
-3.53669e-06
-7.33546e-06
-3.43265e-06
-6.68807e-06
-3.31904e-06
-6.0631e-06
-3.19667e-06
-5.46196e-06
-3.06635e-06
-4.88591e-06
-2.92882e-06
-4.33612e-06
-2.78479e-06
-3.81365e-06
-2.63488e-06
-3.31945e-06
-2.47968e-06
-2.85442e-06
-2.31966e-06
-2.41936e-06
-2.15528e-06
-2.01504e-06
-1.98689e-06
-1.64214e-06
-1.81486e-06
-1.30134e-06
-1.6395e-06
-9.93202e-07
-1.46116e-06
-7.18254e-07
-1.28026e-06
-4.76908e-07
-1.09734e-06
-2.69443e-07
-9.13102e-07
-9.59521e-08
-7.28548e-07
4.37209e-08
-5.45028e-07
1.50066e-07
-3.64386e-07
2.24006e-07
-1.89092e-07
2.67016e-07
-2.24189e-08
2.81264e-07
1.31356e-07
2.69782e-07
2.66719e-07
2.36658e-07
3.76647e-07
1.87281e-07
4.52318e-07
1.28643e-07
4.82798e-07
6.97275e-08
4.54735e-07
2.20012e-08
3.52107e-07
1.55715e-07
-8.0047e-08
3.29944e-07
-2.91267e-07
9.41392e-07
-6.0898e-07
1.49183e-06
-1.01285e-06
1.97098e-06
-1.48603e-06
2.37705e-06
-2.01462e-06
2.71277e-06
-2.58713e-06
2.98394e-06
-3.1941e-06
3.19808e-06
-3.8278e-06
3.36342e-06
-4.48195e-06
3.48819e-06
-5.1515e-06
3.5801e-06
-5.83241e-06
3.64606e-06
-6.52153e-06
3.69203e-06
-7.21638e-06
3.72297e-06
-7.91506e-06
3.74287e-06
-8.61611e-06
3.75487e-06
-9.3184e-06
3.76134e-06
-1.0021e-05
3.76398e-06
-1.07234e-05
3.764e-06
-1.14247e-05
3.76213e-06
-1.21247e-05
3.7588e-06
-1.28227e-05
3.75418e-06
-1.35183e-05
3.74824e-06
-1.42109e-05
3.74079e-06
-1.49001e-05
3.73156e-06
-1.55853e-05
3.72019e-06
-1.62657e-05
3.70625e-06
-1.69406e-05
3.6893e-06
-1.76094e-05
3.66883e-06
-1.82709e-05
3.64435e-06
-1.89244e-05
3.61531e-06
-1.95687e-05
3.58119e-06
-2.02028e-05
3.54143e-06
-2.08253e-05
3.4955e-06
-2.14351e-05
3.44285e-06
-2.20307e-05
3.38295e-06
-2.26107e-05
3.31528e-06
-2.31737e-05
3.23935e-06
-2.3718e-05
3.15468e-06
-2.4242e-05
3.06083e-06
-2.47441e-05
2.95741e-06
-2.52225e-05
2.84406e-06
-2.56756e-05
2.7205e-06
-2.61016e-05
2.58648e-06
-2.64989e-05
2.44183e-06
-2.68656e-05
2.28647e-06
-2.72002e-05
2.12037e-06
-2.7501e-05
1.94361e-06
-2.77664e-05
1.75636e-06
-2.79949e-05
1.55885e-06
-2.81851e-05
1.35145e-06
-2.83358e-05
1.1346e-06
-2.84457e-05
9.08839e-07
-2.85138e-05
6.7482e-07
-2.85391e-05
4.33279e-07
-2.85209e-05
1.8505e-07
-2.84587e-05
-6.89417e-08
-2.83519e-05
-3.27686e-07
-2.82003e-05
-5.90094e-07
-2.8004e-05
-8.55001e-07
-2.7763e-05
-1.12118e-06
-2.74776e-05
-1.38735e-06
-2.71486e-05
-1.65217e-06
-2.67766e-05
-1.91429e-06
-2.63625e-05
-2.17231e-06
-2.59077e-05
-2.42482e-06
-2.54134e-05
-2.67044e-06
-2.48813e-05
-2.90776e-06
-2.43131e-05
-3.13544e-06
-2.37107e-05
-3.35217e-06
-2.30764e-05
-3.55668e-06
-2.24125e-05
-3.74779e-06
-2.17213e-05
-3.92441e-06
-2.10055e-05
-4.08553e-06
-2.02679e-05
-4.23029e-06
-1.95111e-05
-4.35791e-06
-1.87381e-05
-4.46777e-06
-1.79518e-05
-4.55939e-06
-1.71553e-05
-4.63244e-06
-1.63514e-05
-4.68673e-06
-1.55433e-05
-4.72223e-06
-1.47338e-05
-4.73908e-06
-1.39259e-05
-4.73754e-06
-1.31223e-05
-4.71803e-06
-1.23258e-05
-4.6811e-06
-1.1539e-05
-4.6274e-06
-1.07644e-05
-4.5577e-06
-1.00043e-05
-4.47285e-06
-9.26082e-06
-4.37377e-06
-8.53608e-06
-4.26143e-06
-7.83193e-06
-4.13681e-06
-7.15007e-06
-4.0009e-06
-6.49205e-06
-3.85469e-06
-5.85928e-06
-3.69912e-06
-5.25303e-06
-3.53507e-06
-4.67444e-06
-3.36337e-06
-4.12455e-06
-3.18478e-06
-3.60429e-06
-2.99994e-06
-3.1145e-06
-2.80945e-06
-2.65598e-06
-2.6138e-06
-2.22945e-06
-2.41343e-06
-1.83556e-06
-2.20874e-06
-1.47495e-06
-2.00011e-06
-1.14817e-06
-1.78794e-06
-8.55701e-07
-1.57273e-06
-5.9794e-07
-1.3551e-06
-3.75141e-07
-1.1359e-06
-1.87377e-07
-9.16311e-07
-3.44716e-08
-6.97934e-07
8.40821e-08
-4.8294e-07
1.69222e-07
-2.74231e-07
2.22435e-07
-7.56321e-08
2.459e-07
1.07892e-07
2.42651e-07
2.69967e-07
2.1678e-07
4.02518e-07
1.73672e-07
4.95427e-07
1.20296e-07
5.36173e-07
6.55686e-08
5.09462e-07
2.0778e-08
3.96898e-07
1.76493e-07
-8.83281e-08
4.18272e-07
-3.20605e-07
1.17367e-06
-6.68879e-07
1.84011e-06
-1.11009e-06
2.41219e-06
-1.62528e-06
2.89224e-06
-2.19896e-06
3.28645e-06
-2.81853e-06
3.60352e-06
-3.4738e-06
3.85335e-06
-4.15655e-06
4.04617e-06
-4.86021e-06
4.19184e-06
-5.57952e-06
4.29942e-06
-6.31037e-06
4.37691e-06
-7.04951e-06
4.43118e-06
-7.79443e-06
4.46788e-06
-8.54317e-06
4.4916e-06
-9.2942e-06
4.5059e-06
-1.00463e-05
4.51348e-06
-1.07987e-05
4.5163e-06
-1.15504e-05
4.5157e-06
-1.23008e-05
4.51255e-06
-1.30493e-05
4.50735e-06
-1.37954e-05
4.50028e-06
-1.45385e-05
4.4913e-06
-1.52779e-05
4.48023e-06
-1.60131e-05
4.46673e-06
-1.67433e-05
4.45039e-06
-1.74678e-05
4.43074e-06
-1.81857e-05
4.40724e-06
-1.88962e-05
4.37933e-06
-1.95983e-05
4.34641e-06
-2.02909e-05
4.30788e-06
-2.09728e-05
4.26311e-06
-2.16428e-05
4.21148e-06
-2.22997e-05
4.15236e-06
-2.2942e-05
4.08514e-06
-2.35682e-05
4.0092e-06
-2.41769e-05
3.92396e-06
-2.47664e-05
3.82885e-06
-2.53351e-05
3.72336e-06
-2.58812e-05
3.607e-06
-2.64032e-05
3.47933e-06
-2.68991e-05
3.33997e-06
-2.73672e-05
3.18863e-06
-2.78058e-05
3.02505e-06
-2.8213e-05
2.84909e-06
-2.85872e-05
2.66067e-06
-2.89267e-05
2.45982e-06
-2.92297e-05
2.24668e-06
-2.94948e-05
2.02146e-06
-2.97205e-05
1.78451e-06
-2.99053e-05
1.53627e-06
-3.0048e-05
1.2773e-06
-3.01475e-05
1.00829e-06
-3.02026e-05
7.29995e-07
-3.02127e-05
4.43322e-07
-3.01769e-05
1.49263e-07
-3.00948e-05
-1.51086e-07
-2.99659e-05
-4.56534e-07
-2.97902e-05
-7.65802e-07
-2.95677e-05
-1.07753e-06
-2.92986e-05
-1.39029e-06
-2.89833e-05
-1.7026e-06
-2.86226e-05
-2.0129e-06
-2.82172e-05
-2.31964e-06
-2.77683e-05
-2.62119e-06
-2.72772e-05
-2.91596e-06
-2.67453e-05
-3.20233e-06
-2.61744e-05
-3.47872e-06
-2.55662e-05
-3.74356e-06
-2.4923e-05
-3.99537e-06
-2.4247e-05
-4.23269e-06
-2.35406e-05
-4.45417e-06
-2.28065e-05
-4.65858e-06
-2.20472e-05
-4.84476e-06
-2.12658e-05
-5.01171e-06
-2.04651e-05
-5.15858e-06
-1.96483e-05
-5.28464e-06
-1.88183e-05
-5.38937e-06
-1.79783e-05
-5.47239e-06
-1.71316e-05
-5.5335e-06
-1.62811e-05
-5.5727e-06
-1.543e-05
-5.59015e-06
-1.45814e-05
-5.58619e-06