/*--------------------------------*- C++ -*----------------------------------*\
| =========                 |                                                 |
| \\      /  F ield         | OpenFOAM: The Open Source CFD Toolbox           |
|  \\    /   O peration     | Version:  2406                                  |
|   \\  /    A nd           | Website:  www.openfoam.com                      |
|    \\/     M anipulation  |                                                 |
\*---------------------------------------------------------------------------*/
FoamFile
{
    version     2.0;
    format      ascii;
    arch        "LSB;label=32;scalar=64";
    class       volVectorField;
    location    "47.35";
    object      U;
}
// * * * * * * * * * * * * * * * * * * * * * * * * * * * * * * * * * * * * * //

dimensions      [0 1 -1 0 0 0 0];

internalField   nonuniform List<vector> 
14400
(
(-1.90472e-05 1.9004e-05 0)
(-3.44171e-06 -1.08947e-05 0)
(0.000108595 -4.40407e-05 0)
(0.00030368 -7.37099e-05 0)
(0.000570038 -9.1533e-05 0)
(0.000872897 -0.000101523 0)
(0.00119612 -0.000102611 0)
(0.00151211 -9.79717e-05 0)
(0.00180916 -8.81629e-05 0)
(0.00207119 -7.56641e-05 0)
(0.00229391 -6.15685e-05 0)
(0.00247235 -4.7691e-05 0)
(0.00260937 -3.49259e-05 0)
(0.00270796 -2.4271e-05 0)
(0.00277525 -1.60542e-05 0)
(0.00281779 -1.04781e-05 0)
(0.00284323 -7.29192e-06 0)
(0.00285758 -6.1107e-06 0)
(0.00286591 -6.30664e-06 0)
(0.002871 -7.21555e-06 0)
(0.00287381 -8.12702e-06 0)
(0.00287305 -8.41911e-06 0)
(0.00286578 -7.56877e-06 0)
(0.00284754 -5.21262e-06 0)
(0.00281295 -1.12593e-06 0)
(0.00275596 4.78722e-06 0)
(0.00267031 1.25475e-05 0)
(0.0025496 2.21397e-05 0)
(0.00238744 3.35582e-05 0)
(0.00217735 4.68257e-05 0)
(0.0019128 6.20013e-05 0)
(0.00158707 7.91678e-05 0)
(0.00119331 9.84135e-05 0)
(0.000724558 0.00011981 0)
(0.000173871 0.000143392 0)
(-0.000465503 0.000169144 0)
(-0.00119992 0.00019699 0)
(-0.00203511 0.000226783 0)
(-0.00297591 0.000258304 0)
(-0.00402604 0.000291254 0)
(-0.0051878 0.00032526 0)
(-0.00646185 0.000359868 0)
(-0.00784696 0.000394554 0)
(-0.00933981 0.000428724 0)
(-0.0109349 0.000461729 0)
(-0.0126242 0.000492871 0)
(-0.0143974 0.000521417 0)
(-0.0162418 0.000546613 0)
(-0.0181421 0.000567698 0)
(-0.0200809 0.000583915 0)
(-0.0220384 0.000594526 0)
(-0.023993 0.000598821 0)
(-0.0259214 0.000596127 0)
(-0.0277987 0.000585821 0)
(-0.0295987 0.000567339 0)
(-0.0312946 0.000540188 0)
(-0.0328589 0.00050396 0)
(-0.0342638 0.000458353 0)
(-0.0354821 0.000403188 0)
(-0.0364871 0.000338438 0)
(-0.0372531 0.000264252 0)
(-0.0377564 0.00018099 0)
(-0.0379754 8.92455e-05 0)
(-0.0378913 -1.01194e-05 0)
(-0.0374889 -0.000115954 0)
(-0.0367571 -0.0002268 0)
(-0.0356896 -0.000340887 0)
(-0.0342853 -0.000456139 0)
(-0.0325494 -0.000570199 0)
(-0.0304933 -0.000680472 0)
(-0.0281355 -0.000784195 0)
(-0.0255012 -0.000878517 0)
(-0.0226228 -0.000960615 0)
(-0.0195392 -0.00102781 0)
(-0.0162955 -0.00107771 0)
(-0.0129422 -0.00110835 0)
(-0.00953358 -0.00111831 0)
(-0.00612691 -0.00110685 0)
(-0.00278031 -0.00107397 0)
(0.000448842 -0.00102049 0)
(0.00350587 -0.000948022 0)
(0.00634064 -0.000858917 0)
(0.00890938 -0.00075618 0)
(0.0111761 -0.00064331 0)
(0.0131138 -0.000524112 0)
(0.0147054 -0.000402494 0)
(0.0159436 -0.000282255 0)
(0.0168315 -0.000166896 0)
(0.017381 -5.94468e-05 0)
(0.0176128 3.76492e-05 0)
(0.0175542 0.00012261 0)
(0.0172379 0.000194335 0)
(0.0167006 0.000252377 0)
(0.0159806 0.000296881 0)
(0.0151167 0.000328493 0)
(0.0141466 0.000348247 0)
(0.0131056 0.000357465 0)
(0.0120257 0.000357634 0)
(0.0109352 0.000350325 0)
(0.0098576 0.000337085 0)
(0.00881229 0.000319406 0)
(0.00781425 0.000298624 0)
(0.00687417 0.000275952 0)
(0.00599936 0.000252383 0)
(0.00519351 0.000228796 0)
(0.0044581 0.000205819 0)
(0.00379166 0.000184048 0)
(0.00319193 0.000163789 0)
(0.00265402 0.000145442 0)
(0.00217392 0.000128976 0)
(0.0017449 0.000114628 0)
(0.00136354 0.000101837 0)
(0.00102338 9.06005e-05 0)
(0.000724834 7.93979e-05 0)
(0.000464709 6.79824e-05 0)
(0.000251053 5.33629e-05 0)
(8.6834e-05 3.60085e-05 0)
(-1.34792e-05 1.23807e-05 0)
(-4.62737e-05 -9.37684e-06 0)
(-2.2343e-05 -2.18801e-05 0)
(9.58224e-06 4.17664e-06 0)
(0.000155329 -0.000158893 0)
(0.00050116 -0.000327122 0)
(0.00100789 -0.000477006 0)
(0.00165942 -0.000576366 0)
(0.00238932 -0.000632977 0)
(0.00316198 -0.000643405 0)
(0.00392085 -0.000618646 0)
(0.00463617 -0.000563986 0)
(0.00527298 -0.00049057 0)
(0.00581737 -0.000406087 0)
(0.00625702 -0.000319709 0)
(0.00659421 -0.00023761 0)
(0.00683367 -0.000165212 0)
(0.006988 -0.000105208 0)
(0.00706999 -5.88124e-05 0)
(0.00709433 -2.51054e-05 0)
(0.00707286 -1.92152e-06 0)
(0.00701509 1.4142e-05 0)
(0.00692568 2.69951e-05 0)
(0.00680499 4.07806e-05 0)
(0.00664836 5.93211e-05 0)
(0.00644707 8.58846e-05 0)
(0.00618875 0.000122932 0)
(0.00585857 0.000172128 0)
(0.00543991 0.000234412 0)
(0.00491527 0.000310226 0)
(0.00426667 0.000399714 0)
(0.00347601 0.000502936 0)
(0.00252519 0.000619966 0)
(0.00139624 0.00075092 0)
(7.13728e-05 0.000895901 0)
(-0.00146672 0.00105489 0)
(-0.00323456 0.00122763 0)
(-0.00524741 0.00141352 0)
(-0.00751864 0.00161153 0)
(-0.0100591 0.00182014 0)
(-0.0128766 0.00203732 0)
(-0.0159748 0.00226049 0)
(-0.019353 0.00248658 0)
(-0.0230055 0.00271203 0)
(-0.0269208 0.00293283 0)
(-0.0310817 0.00314464 0)
(-0.0354649 0.00334284 0)
(-0.0400411 0.00352267 0)
(-0.044775 0.00367931 0)
(-0.0496259 0.00380802 0)
(-0.0545481 0.00390427 0)
(-0.0594916 0.00396382 0)
(-0.0644028 0.00398282 0)
(-0.0692256 0.00395788 0)
(-0.0739019 0.00388618 0)
(-0.0783728 0.00376547 0)
(-0.0825795 0.00359412 0)
(-0.0864642 0.00337119 0)
(-0.0899705 0.00309639 0)
(-0.0930448 0.00277017 0)
(-0.0956366 0.00239371 0)
(-0.0976993 0.00196894 0)
(-0.0991908 0.00149861 0)
(-0.100074 0.000986296 0)
(-0.100318 0.000436462 0)
(-0.099898 -0.000145511 0)
(-0.0987957 -0.000753282 0)
(-0.0970008 -0.00137953 0)
(-0.0945109 -0.00201597 0)
(-0.0913323 -0.00265333 0)
(-0.0874803 -0.00328152 0)
(-0.0829798 -0.00388965 0)
(-0.0778654 -0.00446628 0)
(-0.072182 -0.00499961 0)
(-0.0659842 -0.00547783 0)
(-0.0593364 -0.00588944 0)
(-0.0523126 -0.00622368 0)
(-0.0449951 -0.00647097 0)
(-0.0374734 -0.00662339 0)
(-0.0298435 -0.00667511 0)
(-0.0222051 -0.00662279 0)
(-0.0146605 -0.00646593 0)
(-0.00731173 -0.00620707 0)
(-0.000258345 -0.0058519 0)
(0.00640528 -0.00540918 0)
(0.0125924 -0.00489051 0)
(0.0182264 -0.00430991 0)
(0.0232431 -0.00368332 0)
(0.0275923 -0.00302791 0)
(0.0312395 -0.00236134 0)
(0.0341668 -0.00170102 0)
(0.036373 -0.00106339 0)
(0.0378734 -0.000463167 0)
(0.0386988 8.712e-05 0)
(0.0388939 0.000577601 0)
(0.0385155 0.0010013 0)
(0.0376298 0.00135421 0)
(0.0363093 0.00163522 0)
(0.0346307 0.00184585 0)
(0.0326711 0.00198991 0)
(0.0305057 0.00207306 0)
(0.0282054 0.00210231 0)
(0.0258348 0.00208549 0)
(0.0234504 0.00203082 0)
(0.0211005 0.00194643 0)
(0.0188239 0.0018401 0)
(0.0166509 0.00171885 0)
(0.0146029 0.00158905 0)
(0.0126944 0.00145593 0)
(0.0109319 0.00132411 0)
(0.00931795 0.00119688 0)
(0.00784847 0.00107714 0)
(0.00651889 0.000966033 0)
(0.00531903 0.000864657 0)
(0.00424323 0.000771226 0)
(0.0032807 0.000684667 0)
(0.0024322 0.000598945 0)
(0.00169241 0.000511305 0)
(0.00107544 0.000411021 0)
(0.000583815 0.000299213 0)
(0.000241897 0.000166393 0)
(4.54788e-05 4.29027e-05 0)
(-9.59345e-06 -4.62453e-05 0)
(3.95455e-05 -0.000102146 0)
(0.00031266 -0.000501374 0)
(0.000873071 -0.000892404 0)
(0.00163792 -0.00123081 0)
(0.00258947 -0.00146229 0)
(0.00363643 -0.00159184 0)
(0.00473308 -0.00161552 0)
(0.00580405 -0.00155273 0)
(0.00680874 -0.00141811 0)
(0.00769987 -0.0012352 0)
(0.0084567 -0.00102346 0)
(0.00906123 -0.000803518 0)
(0.00951387 -0.000590886 0)
(0.00981883 -0.000398185 0)
(0.00999028 -0.000232482 0)
(0.0100429 -9.66917e-05 0)
(0.00999381 1.10121e-05 0)
(0.00985617 9.58504e-05 0)
(0.0096399 0.000165921 0)
(0.00934826 0.000230808 0)
(0.00897843 0.000300649 0)
(0.00852062 0.000384965 0)
(0.00795931 0.000491952 0)
(0.00727385 0.000627931 0)
(0.00644007 0.000797283 0)
(0.00543124 0.00100262 0)
(0.00421941 0.00124524 0)
(0.00277603 0.00152557 0)
(0.00107266 0.00184361 0)
(-0.000918608 0.00219913 0)
(-0.00322474 0.00259167 0)
(-0.00587126 0.00302046 0)
(-0.00888153 0.00348406 0)
(-0.012276 0.0039802 0)
(-0.0160711 0.00450542 0)
(-0.0202783 0.00505502 0)
(-0.0249031 0.00562287 0)
(-0.0299436 0.00620144 0)
(-0.0353901 0.00678188 0)
(-0.041224 0.00735413 0)
(-0.0474176 0.00790714 0)
(-0.0539339 0.00842911 0)
(-0.0607269 0.00890783 0)
(-0.0677418 0.00933102 0)
(-0.0749165 0.00968668 0)
(-0.0821823 0.00996346 0)
(-0.0894653 0.010151 0)
(-0.0966883 0.0102402 0)
(-0.103772 0.0102233 0)
(-0.110637 0.0100944 0)
(-0.117204 0.00984929 0)
(-0.123399 0.00948535 0)
(-0.129148 0.00900182 0)
(-0.134383 0.0083996 0)
(-0.139042 0.00768114 0)
(-0.143067 0.00685039 0)
(-0.146409 0.0059127 0)
(-0.149023 0.00487473 0)
(-0.15087 0.00374442 0)
(-0.151921 0.00253097 0)
(-0.15215 0.00124482 0)
(-0.15154 -0.0001023 0)
(-0.150081 -0.00149736 0)
(-0.147768 -0.00292598 0)
(-0.144607 -0.00437239 0)
(-0.140608 -0.00581946 0)
(-0.13579 -0.00724872 0)
(-0.130182 -0.00864049 0)
(-0.123818 -0.00997404 0)
(-0.116744 -0.0112279 0)
(-0.109013 -0.0123801 0)
(-0.100687 -0.0134089 0)
(-0.0918378 -0.014293 0)
(-0.0825452 -0.0150127 0)
(-0.0728977 -0.0155499 0)
(-0.062991 -0.0158897 0)
(-0.0529276 -0.0160205 0)
(-0.0428148 -0.0159352 0)
(-0.0327637 -0.0156315 0)
(-0.0228867 -0.0151124 0)
(-0.0132959 -0.0143867 0)
(-0.0041003 -0.0134688 0)
(0.0045962 -0.0123786 0)
(0.0126976 -0.0111409 0)
(0.0201179 -0.00978488 0)
(0.0267834 -0.00834278 0)
(0.0326348 -0.00684908 0)
(0.0376283 -0.00533911 0)
(0.0417375 -0.00384773 0)
(0.0449534 -0.0024081 0)
(0.0472855 -0.00105041 0)
(0.0487607 0.000199126 0)
(0.0494228 0.00131919 0)
(0.0493309 0.00229398 0)
(0.048557 0.00311354 0)
(0.0471839 0.00377387 0)
(0.0453017 0.00427663 0)
(0.0430043 0.00462862 0)
(0.0403864 0.00484101 0)
(0.0375397 0.00492836 0)
(0.0345503 0.00490759 0)
(0.0314963 0.00479683 0)
(0.0284453 0.00461455 0)
(0.0254547 0.00437854 0)
(0.0225694 0.0041055 0)
(0.0198244 0.00381015 0)
(0.0172426 0.00350552 0)
(0.0148396 0.00320194 0)
(0.0126204 0.00290796 0)
(0.0105871 0.00262856 0)
(0.00873299 0.0023671 0)
(0.0070555 0.00212156 0)
(0.00554382 0.00188916 0)
(0.00420112 0.00165884 0)
(0.00302026 0.00142309 0)
(0.00202023 0.001163 0)
(0.00119934 0.000878207 0)
(0.000593407 0.000556024 0)
(0.000189513 0.000246384 0)
(1.64549e-05 -7.60634e-06 0)
(6.58821e-05 -0.000283755 0)
(0.000453642 -0.000996418 0)
(0.00119991 -0.00165418 0)
(0.00217402 -0.00220242 0)
(0.00335556 -0.00257624 0)
(0.00463105 -0.00277808 0)
(0.00595025 -0.00280568 0)
(0.00722454 -0.00268702 0)
(0.00840809 -0.00244751 0)
(0.00944559 -0.00212432 0)
(0.0103126 -0.00175015 0)
(0.010987 -0.0013584 0)
(0.0114673 -0.000975095 0)
(0.0117561 -0.000620882 0)
(0.0118667 -0.000307669 0)
(0.0118126 -4.01152e-05 0)
(0.0116095 0.000184897 0)
(0.0112685 0.000376406 0)
(0.0107961 0.000548273 0)
(0.010191 0.000716999 0)
(0.00944457 0.000900007 0)
(0.00853973 0.00111373 0)
(0.0074528 0.0013723 0)
(0.00615415 0.0016867 0)
(0.00461018 0.00206453 0)
(0.0027846 0.0025103 0)
(0.000640039 0.00302613 0)
(-0.00186093 0.00361239 0)
(-0.00475473 0.00426833 0)
(-0.00807591 0.00499232 0)
(-0.0118562 0.00578181 0)
(-0.0161232 0.00663302 0)
(-0.0208996 0.0075405 0)
(-0.0262009 0.00849675 0)
(-0.0320347 0.00949184 0)
(-0.038399 0.0105133 0)
(-0.0452808 0.0115461 0)
(-0.0526551 0.012573 0)
(-0.0604847 0.0135744 0)
(-0.06872 0.0145297 0)
(-0.0772994 0.015417 0)
(-0.0861506 0.0162146 0)
(-0.095192 0.0169011 0)
(-0.104335 0.0174567 0)
(-0.113486 0.0178635 0)
(-0.12255 0.018106 0)
(-0.131431 0.018172 0)
(-0.140035 0.0180522 0)
(-0.148273 0.017741 0)
(-0.156062 0.0172357 0)
(-0.163325 0.016537 0)
(-0.169993 0.015648 0)
(-0.176005 0.0145746 0)
(-0.181309 0.0133245 0)
(-0.185858 0.0119075 0)
(-0.189616 0.0103346 0)
(-0.19255 0.00861804 0)
(-0.194636 0.00677143 0)
(-0.195857 0.00480917 0)
(-0.196197 0.00274676 0)
(-0.19565 0.000600699 0)
(-0.194212 -0.00161135 0)
(-0.191884 -0.00387048 0)
(-0.188674 -0.00615643 0)
(-0.184591 -0.00844742 0)
(-0.179652 -0.0107201 0)
(-0.173879 -0.0129496 0)
(-0.1673 -0.0151093 0)
(-0.159947 -0.0171715 0)
(-0.151863 -0.019107 0)
(-0.143096 -0.0208862 0)
(-0.133701 -0.0224791 0)
(-0.123743 -0.0238566 0)
(-0.113295 -0.0249906 0)
(-0.102437 -0.0258557 0)
(-0.091258 -0.0264298 0)
(-0.0798551 -0.0266951 0)
(-0.0683305 -0.0266397 0)
(-0.0567917 -0.0262576 0)
(-0.0453498 -0.0255505 0)
(-0.0341175 -0.0245273 0)
(-0.0232069 -0.023205 0)
(-0.0127272 -0.0216082 0)
(-0.00278255 -0.0197689 0)
(0.00653002 -0.0177253 0)
(0.0151231 -0.0155209 0)
(0.0229203 -0.0132033 0)
(0.0298587 -0.0108225 0)
(0.0358893 -0.00842923 0)
(0.040979 -0.00607345 0)
(0.045111 -0.00380275 0)
(0.0482859 -0.00166077 0)
(0.0505212 0.000314175 0)
(0.0518517 0.00209031 0)
(0.0523283 0.00364339 0)
(0.0520172 0.00495733 0)
(0.0509976 0.00602459 0)
(0.0493591 0.00684603 0)
(0.0471987 0.00743043 0)
(0.0446172 0.00779352 0)
(0.0417154 0.00795671 0)
(0.0385909 0.0079455 0)
(0.035334 0.00778802 0)
(0.0320265 0.00751313 0)
(0.0287379 0.00714939 0)
(0.0255268 0.00672339 0)
(0.0224375 0.00625947 0)
(0.0195049 0.00577808 0)
(0.0167495 0.00529649 0)
(0.0141869 0.00482629 0)
(0.01182 0.00437557 0)
(0.00965469 0.00394414 0)
(0.00768416 0.00352905 0)
(0.00591727 0.0031158 0)
(0.00434601 0.00269259 0)
(0.00299539 0.00223363 0)
(0.00185821 0.0017349 0)
(0.000984915 0.00117945 0)
(0.000355918 0.000623312 0)
(4.74404e-05 0.000114569 0)
(8.25684e-05 -0.000533071 0)
(0.000557133 -0.00163891 0)
(0.00145199 -0.00261146 0)
(0.0025919 -0.00339299 0)
(0.00395 -0.00391685 0)
(0.00539006 -0.00418452 0)
(0.00685745 -0.00419908 0)
(0.00825223 -0.00399832 0)
(0.00952591 -0.00362098 0)
(0.0106178 -0.00311924 0)
(0.0115022 -0.00254091 0)
(0.0121547 -0.00193321 0)
(0.0125729 -0.00133362 0)
(0.0127575 -0.000771126 0)
(0.0127202 -0.000262453 0)
(0.0124716 0.000186519 0)
(0.0120237 0.000581053 0)
(0.0113824 0.000935199 0)
(0.0105482 0.00126993 0)
(0.00951213 0.00161006 0)
(0.00825701 0.00198159 0)
(0.00675659 0.0024089 0)
(0.0049775 0.00291281 0)
(0.00288049 0.00350927 0)
(0.000422685 0.00420912 0)
(-0.00244067 0.00501839 0)
(-0.0057543 0.00593925 0)
(-0.00956145 0.00697085 0)
(-0.0139022 0.00811 0)
(-0.0188122 0.0093514 0)
(-0.0243206 0.0106874 0)
(-0.0304485 0.0121077 0)
(-0.0372071 0.0135985 0)
(-0.0445954 0.0151422 0)
(-0.0525988 0.0167175 0)
(-0.061188 0.0182989 0)
(-0.0703179 0.0198576 0)
(-0.0799281 0.0213623 0)
(-0.0899436 0.0227798 0)
(-0.100277 0.0240766 0)
(-0.110829 0.02522 0)
(-0.121495 0.0261793 0)
(-0.132165 0.0269272 0)
(-0.142729 0.0274407 0)
(-0.153079 0.0277015 0)
(-0.163115 0.0276968 0)
(-0.17274 0.0274191 0)
(-0.181871 0.0268661 0)
(-0.190433 0.0260401 0)
(-0.198361 0.0249472 0)
(-0.205601 0.0235973 0)
(-0.212109 0.0220026 0)
(-0.217847 0.0201775 0)
(-0.222789 0.0181378 0)
(-0.226911 0.0159003 0)
(-0.230197 0.0134825 0)
(-0.232634 0.0109023 0)
(-0.234216 0.00817816 0)
(-0.234934 0.00532881 0)
(-0.234788 0.0023736 0)
(-0.233775 -0.000667383 0)
(-0.231897 -0.00377307 0)
(-0.229157 -0.00692113 0)
(-0.22556 -0.0100877 0)
(-0.221113 -0.0132471 0)
(-0.215829 -0.0163717 0)
(-0.20972 -0.0194316 0)
(-0.202807 -0.0223948 0)
(-0.195113 -0.0252273 0)
(-0.186667 -0.027893 0)
(-0.177508 -0.0303548 0)
(-0.167679 -0.0325745 0)
(-0.157233 -0.0345143 0)
(-0.146232 -0.0361375 0)
(-0.134747 -0.0374098 0)
(-0.122858 -0.0383007 0)
(-0.110653 -0.0387846 0)
(-0.0982298 -0.038843 0)
(-0.0856924 -0.0384649 0)
(-0.0731499 -0.0376482 0)
(-0.0607151 -0.0364007 0)
(-0.0485023 -0.0347401 0)
(-0.0366245 -0.0326945 0)
(-0.0251916 -0.030301 0)
(-0.0143075 -0.0276057 0)
(-0.00406845 -0.0246618 0)
(0.00543894 -0.0215283 0)
(0.0141393 -0.0182679 0)
(0.0219697 -0.0149456 0)
(0.0288803 -0.0116264 0)
(0.0348356 -0.0083737 0)
(0.0398146 -0.00524752 0)
(0.0438114 -0.00230287 0)
(0.0468359 0.000411779 0)
(0.0489136 0.00285586 0)
(0.0500859 0.00499795 0)
(0.0504093 0.00681672 0)
(0.0499548 0.0083015 0)
(0.0488054 0.0094525 0)
(0.0470541 0.0102802 0)
(0.0448003 0.0108048 0)
(0.0421466 0.011054 0)
(0.0391942 0.0110619 0)
(0.0360404 0.0108661 0)
(0.0327737 0.0105062 0)
(0.0294737 0.0100212 0)
(0.0262061 0.00944811 0)
(0.0230266 0.00881994 0)
(0.019975 0.00816524 0)
(0.0170843 0.00750523 0)
(0.0143712 0.0068553 0)
(0.0118545 0.00621994 0)
(0.00953518 0.0055979 0)
(0.00743114 0.00497352 0)
(0.00553601 0.00433117 0)
(0.00388363 0.00363951 0)
(0.00246377 0.00288782 0)
(0.00134546 0.00205313 0)
(0.000506545 0.0011841 0)
(7.39496e-05 0.000321961 0)
(9.53117e-05 -0.000824017 0)
(0.000638649 -0.00238101 0)
(0.00165005 -0.00369791 0)
(0.00291642 -0.00471878 0)
(0.00440159 -0.00538296 0)
(0.00594773 -0.00569549 0)
(0.00749533 -0.00566924 0)
(0.00893473 -0.00535416 0)
(0.0102163 -0.00480453 0)
(0.0112762 -0.00408855 0)
(0.0120894 -0.00326984 0)
(0.0126305 -0.00240929 0)
(0.0128973 -0.00155537 0)
(0.0128886 -0.000744459 0)
(0.0126137 3.04323e-06 0)
(0.0120788 0.0006814 0)
(0.0112899 0.00129943 0)
(0.0102454 0.00187755 0)
(0.00893662 0.00244504 0)
(0.00734444 0.00303595 0)
(0.00544087 0.00368537 0)
(0.00318874 0.00442573 0)
(0.000544303 0.00528414 0)
(-0.00254107 0.00628078 0)
(-0.00611805 0.0074285 0)
(-0.0102373 0.00873329 0)
(-0.0149468 0.0101954 0)
(-0.0202904 0.0118102 0)
(-0.0263047 0.0135688 0)
(-0.0330177 0.0154585 0)
(-0.0404458 0.0174618 0)
(-0.0485913 0.0195565 0)
(-0.057441 0.0217149 0)
(-0.0669634 0.0239038 0)
(-0.0771087 0.0260849 0)
(-0.0878082 0.0282156 0)
(-0.0989761 0.0302505 0)
(-0.110511 0.0321432 0)
(-0.122301 0.0338479 0)
(-0.134224 0.0353216 0)
(-0.146157 0.0365262 0)
(-0.157977 0.0374294 0)
(-0.169569 0.0380062 0)
(-0.180823 0.0382393 0)
(-0.191642 0.0381192 0)
(-0.201943 0.0376435 0)
(-0.211655 0.0368163 0)
(-0.220719 0.0356473 0)
(-0.22909 0.0341503 0)
(-0.236732 0.0323424 0)
(-0.243619 0.0302429 0)
(-0.249731 0.0278724 0)
(-0.255057 0.0252523 0)
(-0.259587 0.0224037 0)
(-0.263315 0.0193477 0)
(-0.266238 0.0161051 0)
(-0.268354 0.0126961 0)
(-0.269661 0.00914073 0)
(-0.270156 0.00545886 0)
(-0.269839 0.00167067 0)
(-0.268707 -0.00220303 0)
(-0.266758 -0.00614043 0)
(-0.263991 -0.0101182 0)
(-0.260404 -0.0141111 0)
(-0.255997 -0.0180917 0)
(-0.250772 -0.0220296 0)
(-0.244733 -0.025892 0)
(-0.237887 -0.0296424 0)
(-0.230247 -0.0332419 0)
(-0.22183 -0.0366485 0)
(-0.212659 -0.0398178 0)
(-0.202765 -0.042704 0)
(-0.19219 -0.0452603 0)
(-0.180981 -0.0474407 0)
(-0.169199 -0.0492011 0)
(-0.156914 -0.0505013 0)
(-0.144206 -0.0513064 0)
(-0.131168 -0.0515891 0)
(-0.117899 -0.051331 0)
(-0.104508 -0.0505244 0)
(-0.0911098 -0.0491735 0)
(-0.0778217 -0.0472949 0)
(-0.0647627 -0.0449176 0)
(-0.0520497 -0.0420828 0)
(-0.0397949 -0.0388426 0)
(-0.0281031 -0.0352584 0)
(-0.0170699 -0.0313992 0)
(-0.00677984 -0.027339 0)
(0.0026947 -0.0231547 0)
(0.0112939 -0.0189242 0)
(0.0189709 -0.0147241 0)
(0.0256916 -0.0106279 0)
(0.0314349 -0.00670476 0)
(0.0361929 -0.00301745 0)
(0.0399706 0.000378608 0)
(0.0427872 0.00343691 0)
(0.0446757 0.00612112 0)
(0.0456836 0.00840626 0)
(0.0458723 0.0102795 0)
(0.0453166 0.0117408 0)
(0.044102 0.0128021 0)
(0.0423232 0.0134871 0)
(0.0400792 0.0138294 0)
(0.0374717 0.01387 0)
(0.0345985 0.0136553 0)
(0.0315532 0.0132338 0)
(0.0284184 0.0126541 0)
(0.0252685 0.0119614 0)
(0.0221619 0.0111966 0)
(0.0191508 0.0103925 0)
(0.0162678 0.00957388 0)
(0.0135475 0.00875275 0)
(0.0110019 0.00793199 0)
(0.00866082 0.00709752 0)
(0.00652274 0.00623113 0)
(0.0046327 0.00529732 0)
(0.0029808 0.00427576 0)
(0.00165577 0.00313427 0)
(0.000636616 0.00190148 0)
(9.66221e-05 0.000600776 0)
(0.00010412 -0.00115342 0)
(0.000699408 -0.00321284 0)
(0.00179909 -0.00490026 0)
(0.00315708 -0.00616473 0)
(0.00472598 -0.00695601 0)
(0.0063272 -0.00728699 0)
(0.00789526 -0.00718491 0)
(0.00931178 -0.00671519 0)
(0.0105267 -0.00595063 0)
(0.0114747 -0.0049771 0)
(0.0121328 -0.00387495 0)
(0.0124759 -0.00271866 0)
(0.0125027 -0.00156694 0)
(0.0122103 -0.000462161 0)
(0.0116048 0.000573345 0)
(0.0106868 0.00153596 0)
(0.00945438 0.00243997 0)
(0.007896 0.00331394 0)
(0.00599158 0.00419678 0)
(0.00370974 0.00513257 0)
(0.00101017 0.00616559 0)
(-0.00215578 0.00733571 0)
(-0.00584166 0.00867508 0)
(-0.0101036 0.0102062 0)
(-0.0149966 0.0119415 0)
(-0.0205724 0.0138839 0)
(-0.0268757 0.0160284 0)
(-0.0339422 0.0183621 0)
(-0.0417952 0.020866 0)
(-0.050443 0.0235137 0)
(-0.0598762 0.0262723 0)
(-0.0700649 0.0291012 0)
(-0.0809581 0.0319533 0)
(-0.0924826 0.0347748 0)
(-0.104545 0.0375078 0)
(-0.117034 0.0400917 0)
(-0.129824 0.0424663 0)
(-0.142782 0.0445747 0)
(-0.155771 0.0463654 0)
(-0.168657 0.0477951 0)
(-0.181314 0.0488299 0)
(-0.193628 0.0494463 0)
(-0.2055 0.0496312 0)
(-0.216845 0.0493812 0)
(-0.227597 0.0487012 0)
(-0.237701 0.0476035 0)
(-0.247121 0.0461059 0)
(-0.255828 0.0442298 0)
(-0.263805 0.0419993 0)
(-0.27104 0.0394398 0)
(-0.277529 0.0365769 0)
(-0.283271 0.0334358 0)
(-0.288264 0.0300409 0)
(-0.29251 0.0264153 0)
(-0.29601 0.022581 0)
(-0.298765 0.0185587 0)
(-0.300775 0.0143685 0)
(-0.302038 0.0100296 0)
(-0.30255 0.005561 0)
(-0.302308 0.000982147 0)
(-0.301306 -0.00368691 0)
(-0.299537 -0.00842479 0)
(-0.296994 -0.0132083 0)
(-0.293668 -0.0180117 0)
(-0.289552 -0.0228067 0)
(-0.284638 -0.0275612 0)
(-0.278921 -0.0322396 0)
(-0.272397 -0.0368024 0)
(-0.265066 -0.0412057 0)
(-0.256931 -0.0454021 0)
(-0.248002 -0.0493402 0)
(-0.238296 -0.0529661 0)
(-0.227838 -0.0562237 0)
(-0.216663 -0.0590567 0)
(-0.204816 -0.06141 0)
(-0.192356 -0.0632316 0)
(-0.179352 -0.0644749 0)
(-0.165888 -0.0651015 0)
(-0.15206 -0.0650828 0)
(-0.137976 -0.0644025 0)
(-0.12375 -0.0630586 0)
(-0.109508 -0.061064 0)
(-0.0953766 -0.0584472 0)
(-0.0814838 -0.0552522 0)
(-0.0679546 -0.0515368 0)
(-0.0549071 -0.047371 0)
(-0.0424499 -0.0428345 0)
(-0.0306794 -0.0380135 0)
(-0.0196784 -0.0329981 0)
(-0.00951558 -0.0278797 0)
(-0.000245311 -0.0227478 0)
(0.00809145 -0.0176888 0)
(0.0154663 -0.0127839 0)
(0.0218625 -0.008108 0)
(0.0272743 -0.00372872 0)
(0.0317071 0.000294973 0)
(0.0351773 0.0039137 0)
(0.0377134 0.00708897 0)
(0.0393564 0.00979446 0)
(0.0401602 0.012017 0)
(0.0401912 0.0137574 0)
(0.0395282 0.0150299 0)
(0.0382584 0.0158622 0)
(0.036477 0.0162929 0)
(0.0342811 0.0163699 0)
(0.031769 0.0161468 0)
(0.0290322 0.0156804 0)
(0.0261586 0.0150262 0)
(0.0232213 0.0142367 0)
(0.0202894 0.0133565 0)
(0.0174115 0.0124211 0)
(0.0146386 0.0114518 0)
(0.0119954 0.0104576 0)
(0.00952568 0.00942838 0)
(0.00723602 0.00834437 0)
(0.00518455 0.00716711 0)
(0.00336553 0.00586448 0)
(0.00188712 0.00439286 0)
(0.000732466 0.00275207 0)
(0.000112637 0.000939737 0)
(0.000111992 -0.00150734 0)
(0.000749144 -0.00410399 0)
(0.00191443 -0.00617447 0)
(0.0033323 -0.00767423 0)
(0.00494271 -0.00856734 0)
(0.00654799 -0.00887957 0)
(0.00807649 -0.00865749 0)
(0.00940272 -0.00798601 0)
(0.0104772 -0.00695944 0)
(0.0112348 -0.0056829 0)
(0.0116555 -0.00425391 0)
(0.0117159 -0.00275972 0)
(0.0114155 -0.00126765 0)
(0.0107494 0.000176225 0)
(0.00971967 0.0015502 0)
(0.00831923 0.0028554 0)
(0.00653661 0.00411391 0)
(0.00434801 0.0053642 0)
(0.00172014 0.00665582 0)
(-0.00139191 0.00804292 0)
(-0.00504094 0.00957799 0)
(-0.00928598 0.0113064 0)
(-0.0141878 0.0132624 0)
(-0.0198056 0.0154673 0)
(-0.026193 0.017929 0)
(-0.0333946 0.0206428 0)
(-0.0414426 0.0235926 0)
(-0.0503533 0.0267518 0)
(-0.0601241 0.0300842 0)
(-0.0707305 0.0335438 0)
(-0.0821242 0.0370755 0)
(-0.0942319 0.0406156 0)
(-0.106957 0.0440937 0)
(-0.12018 0.0474352 0)
(-0.133768 0.0505645 0)
(-0.147575 0.0534089 0)
(-0.161451 0.0559016 0)
(-0.175252 0.0579857 0)
(-0.188841 0.0596159 0)
(-0.202095 0.06076 0)
(-0.214909 0.061399 0)
(-0.227199 0.0615264 0)
(-0.238896 0.0611469 0)
(-0.249951 0.0602742 0)
(-0.26033 0.0589288 0)
(-0.270011 0.0571363 0)
(-0.278982 0.0549252 0)
(-0.287239 0.0523256 0)
(-0.294783 0.0493677 0)
(-0.301616 0.0460808 0)
(-0.307744 0.0424931 0)
(-0.313174 0.0386309 0)
(-0.317911 0.0345187 0)
(-0.321958 0.0301791 0)
(-0.32532 0.025633 0)
(-0.327999 0.0208998 0)
(-0.329994 0.0159977 0)
(-0.331304 0.0109446 0)
(-0.331924 0.00575759 0)
(-0.331851 0.000454502 0)
(-0.331075 -0.00494615 0)
(-0.329589 -0.0104244 0)
(-0.327381 -0.015958 0)
(-0.32444 -0.0215223 0)
(-0.320751 -0.027089 0)
(-0.3163 -0.0326261 0)
(-0.311074 -0.0380968 0)
(-0.305057 -0.0434599 0)
(-0.298239 -0.0486686 0)
(-0.290608 -0.0536711 0)
(-0.28216 -0.0584108 0)
(-0.272894 -0.0628264 0)
(-0.262816 -0.0668534 0)
(-0.251943 -0.070425 0)
(-0.240302 -0.0734743 0)
(-0.227933 -0.0759363 0)
(-0.214891 -0.0777507 0)
(-0.201244 -0.0788644 0)
(-0.187078 -0.0792353 0)
(-0.172495 -0.0788343 0)
(-0.15761 -0.0776485 0)
(-0.142551 -0.0756829 0)
(-0.127454 -0.0729617 0)
(-0.112462 -0.0695283 0)
(-0.0977164 -0.0654442 0)
(-0.0833559 -0.060787 0)
(-0.0695091 -0.0556474 0)
(-0.0562923 -0.0501253 0)
(-0.043806 -0.0443262 0)
(-0.0321331 -0.0383569 0)
(-0.0213388 -0.0323224 0)
(-0.0114715 -0.0263231 0)
(-0.00256429 -0.0204528 0)
(0.00536299 -0.0147979 0)
(0.0123014 -0.00943594 0)
(0.0182519 -0.00443587 0)
(0.0232236 0.000142935 0)
(0.0272351 0.00425133 0)
(0.0303136 0.00785146 0)
(0.0324971 0.010918 0)
(0.0338346 0.0134392 0)
(0.0343868 0.0154181 0)
(0.0342253 0.0168723 0)
(0.0334323 0.0178331 0)
(0.0320962 0.0183446 0)
(0.0303117 0.0184602 0)
(0.0281713 0.0182399 0)
(0.0257689 0.017746 0)
(0.0231871 0.0170397 0)
(0.0205075 0.0161761 0)
(0.0177921 0.015201 0)
(0.015107 0.0141458 0)
(0.0124901 0.0130266 0)
(0.00999988 0.011839 0)
(0.00765298 0.0105627 0)
(0.00552141 0.00915725 0)
(0.00360683 0.00757754 0)
(0.00203448 0.00576685 0)
(0.000793934 0.00369091 0)
(0.000122836 0.00131746 0)
(0.000118703 -0.00188639 0)
(0.000788454 -0.00504738 0)
(0.00199874 -0.0075053 0)
(0.00344596 -0.0092243 0)
(0.0050565 -0.0101864 0)
(0.00661534 -0.010435 0)
(0.00804496 -0.0100414 0)
(0.00921468 -0.00911402 0)
(0.0100767 -0.00777207 0)
(0.0105675 -0.00614149 0)
(0.0106713 -0.0043372 0)
(0.0103665 -0.00245808 0)
(0.00965318 -0.00057798 0)
(0.00852401 0.00125615 0)
(0.00697509 0.00302628 0)
(0.00499036 0.0047412 0)
(0.00254658 0.00643323 0)
(-0.000393687 0.0081523 0)
(-0.00387786 0.009959 0)
(-0.00796413 0.0119166 0)
(-0.012716 0.0140835 0)
(-0.0181996 0.0165071 0)
(-0.0244775 0.0192193 0)
(-0.031605 0.0222349 0)
(-0.0396253 0.0255515 0)
(-0.0485656 0.0291499 0)
(-0.0584333 0.0329966 0)
(-0.0692127 0.037044 0)
(-0.0808625 0.041232 0)
(-0.0933141 0.0454889 0)
(-0.106472 0.0497336 0)
(-0.120215 0.0538778 0)
(-0.134402 0.0578303 0)
(-0.148879 0.0615009 0)
(-0.163486 0.0648057 0)
(-0.178063 0.0676708 0)
(-0.192462 0.0700361 0)
(-0.206549 0.0718572 0)
(-0.220211 0.073106 0)
(-0.233357 0.0737701 0)
(-0.245915 0.073851 0)
(-0.257835 0.0733618 0)
(-0.269083 0.0723246 0)
(-0.279641 0.0707678 0)
(-0.289499 0.0687239 0)
(-0.298656 0.0662271 0)
(-0.307118 0.0633121 0)
(-0.314891 0.0600131 0)
(-0.321986 0.0563625 0)
(-0.328412 0.0523906 0)
(-0.33418 0.0481256 0)
(-0.339299 0.0435932 0)
(-0.343777 0.0388169 0)
(-0.347623 0.0338179 0)
(-0.350841 0.0286155 0)
(-0.353435 0.0232275 0)
(-0.35541 0.0176703 0)
(-0.356764 0.0119598 0)
(-0.357497 0.00611127 0)
(-0.357604 0.000140336 0)
(-0.35708 -0.00593657 0)
(-0.355915 -0.0121016 0)
(-0.354099 -0.0183346 0)
(-0.351617 -0.0246129 0)
(-0.348451 -0.03091 0)
(-0.344584 -0.037195 0)
(-0.339992 -0.0434321 0)
(-0.334654 -0.04958 0)
(-0.328545 -0.055591 0)
(-0.321641 -0.0614112 0)
(-0.313921 -0.0669801 0)
(-0.305365 -0.0722311 0)
(-0.29596 -0.0770923 0)
(-0.285698 -0.0814872 0)
(-0.274584 -0.0853374 0)
(-0.262632 -0.0885638 0)
(-0.249875 -0.0910903 0)
(-0.236359 -0.0928471 0)
(-0.222153 -0.0937739 0)
(-0.207342 -0.0938241 0)
(-0.192034 -0.0929684 0)
(-0.176356 -0.091198 0)
(-0.160448 -0.0885266 0)
(-0.144466 -0.0849918 0)
(-0.128572 -0.0806544 0)
(-0.112927 -0.0755971 0)
(-0.0976898 -0.0699209 0)
(-0.0830056 -0.0637405 0)
(-0.0690037 -0.0571793 0)
(-0.0557929 -0.0503642 0)
(-0.0434592 -0.0434201 0)
(-0.0320658 -0.0364664 0)
(-0.021655 -0.0296135 0)
(-0.0122506 -0.0229615 0)
(-0.00386187 -0.0165991 0)
(0.00351364 -0.0106043 0)
(0.00988669 -0.00504414 0)
(0.015275 2.48124e-05 0)
(0.0197025 0.0045567 0)
(0.0231999 0.00851716 0)
(0.0258052 0.0118844 0)
(0.027566 0.0146506 0)
(0.0285394 0.0168225 0)
(0.0287932 0.018422 0)
(0.0284034 0.0194855 0)
(0.0274555 0.0200618 0)
(0.0260369 0.0202096 0)
(0.0242406 0.0199936 0)
(0.0221525 0.0194799 0)
(0.0198614 0.0187313 0)
(0.017439 0.0178023 0)
(0.0149634 0.0167336 0)
(0.0124846 0.0155484 0)
(0.0100745 0.0142485 0)
(0.00776164 0.0128139 0)
(0.00563115 0.0112028 0)
(0.00369455 0.009357 0)
(0.00209079 0.0072063 0)
(0.000817233 0.00468106 0)
(0.000126266 0.00171792 0)
(0.000125179 -0.00228322 0)
(0.000819909 -0.00602275 0)
(0.00205507 -0.00885957 0)
(0.00350009 -0.0107688 0)
(0.00506706 -0.011755 0)
(0.00652604 -0.0118851 0)
(0.00779476 -0.0112602 0)
(0.00873989 -0.0100171 0)
(0.00931666 -0.00830273 0)
(0.0094652 -0.00626489 0)
(0.00917389 -0.00403552 0)
(0.00842338 -0.00172311 0)
(0.00721352 0.000594851 0)
(0.00553287 0.00287403 0)
(0.00337002 0.00510354 0)
(0.000697923 0.00730291 0)
(-0.00251994 0.00951678 0)
(-0.00633535 0.0118073 0)
(-0.0108093 0.0142453 0)
(-0.016011 0.0169005 0)
(-0.0220106 0.0198332 0)
(-0.0288749 0.0230872 0)
(-0.0366604 0.0266858 0)
(-0.0454087 0.0306302 0)
(-0.0551411 0.0348998 0)
(-0.0658553 0.039454 0)
(-0.0775215 0.0442337 0)
(-0.0900805 0.049164 0)
(-0.103443 0.0541559 0)
(-0.117491 0.0591098 0)
(-0.132082 0.0639194 0)
(-0.147055 0.0684772 0)
(-0.162239 0.0726796 0)
(-0.177462 0.0764334 0)
(-0.19256 0.0796596 0)
(-0.207387 0.0822972 0)
(-0.221815 0.0843048 0)
(-0.235743 0.08566 0)
(-0.24909 0.0863577 0)
(-0.2618 0.0864077 0)
(-0.273837 0.0858314 0)
(-0.28518 0.0846585 0)
(-0.29582 0.0829242 0)
(-0.305757 0.0806668 0)
(-0.314996 0.0779253 0)
(-0.32355 0.0747388 0)
(-0.331428 0.0711446 0)
(-0.338647 0.0671782 0)
(-0.34522 0.0628726 0)
(-0.351161 0.058258 0)
(-0.356485 0.053362 0)
(-0.361205 0.0482097 0)
(-0.365335 0.0428235 0)
(-0.368887 0.0372235 0)
(-0.371871 0.0314275 0)
(-0.374296 0.0254518 0)
(-0.376171 0.0193109 0)
(-0.3775 0.0130185 0)
(-0.378286 0.00658754 0)
(-0.37853 3.09415e-05 0)