/*--------------------------------*- C++ -*----------------------------------*\
| =========                 |                                                 |
| \\      /  F ield         | OpenFOAM: The Open Source CFD Toolbox           |
|  \\    /   O peration     | Version:  2406                                  |
|   \\  /    A nd           | Website:  www.openfoam.com                      |
|    \\/     M anipulation  |                                                 |
\*---------------------------------------------------------------------------*/
FoamFile
{
    version     2.0;
    format      ascii;
    arch        "LSB;label=32;scalar=64";
    class       surfaceScalarField;
    location    "7.6";
    object      phi;
}
// * * * * * * * * * * * * * * * * * * * * * * * * * * * * * * * * * * * * * //

dimensions      [0 3 -1 0 0 0 0];

oriented        oriented;

internalField   nonuniform List<scalar> 
28560
(
4.01097e-09
-4.00618e-09
2.10687e-09
1.90398e-09
-1.02494e-08
1.23562e-08
-3.30509e-08
2.28016e-08
-6.48231e-08
3.17721e-08
-1.03729e-07
3.89058e-08
-1.48026e-07
4.42973e-08
-1.96234e-07
4.82081e-08
-2.47169e-07
5.09343e-08
-2.99918e-07
5.27494e-08
-3.53804e-07
5.38863e-08
-4.08338e-07
5.45335e-08
-4.63177e-07
5.48387e-08
-5.1809e-07
5.49139e-08
-5.72932e-07
5.48418e-08
-6.27614e-07
5.46815e-08
-6.82088e-07
5.44738e-08
-7.36333e-07
5.42456e-08
-7.90347e-07
5.40134e-08
-8.44133e-07
5.37862e-08
-8.977e-07
5.35676e-08
-9.51058e-07
5.33578e-08
-1.00421e-06
5.31542e-08
-1.05717e-06
5.29529e-08
-1.10991e-06
5.27489e-08
-1.16245e-06
5.2537e-08
-1.21476e-06
5.23114e-08
-1.26683e-06
5.20665e-08
-1.31863e-06
5.17966e-08
-1.37012e-06
5.14961e-08
-1.42128e-06
5.11592e-08
-1.47206e-06
5.07805e-08
-1.52242e-06
5.03542e-08
-1.57229e-06
4.98749e-08
-1.62163e-06
4.93369e-08
-1.67036e-06
4.87345e-08
-1.71842e-06
4.8062e-08
-1.76574e-06
4.73138e-08
-1.81222e-06
4.64841e-08
-1.85779e-06
4.55672e-08
-1.90235e-06
4.45577e-08
-1.9458e-06
4.34499e-08
-1.98804e-06
4.22387e-08
-2.02895e-06
4.09189e-08
-2.06844e-06
3.94858e-08
-2.10637e-06
3.79349e-08
-2.14264e-06
3.62623e-08
-2.1771e-06
3.44645e-08
-2.20964e-06
3.25389e-08
-2.24012e-06
3.04831e-08
-2.26842e-06
2.82959e-08
-2.2944e-06
2.59768e-08
-2.31792e-06
2.35263e-08
-2.33887e-06
2.09458e-08
-2.35711e-06
1.82379e-08
-2.37251e-06
1.54063e-08
-2.38497e-06
1.24559e-08
-2.39436e-06
9.39297e-09
-2.40059e-06
6.22494e-09
-2.40355e-06
2.96195e-09
-2.40315e-06
-3.94064e-10
-2.39934e-06
-3.81683e-09
-2.39203e-06
-7.3065e-09
-2.38119e-06
-1.08451e-08
-2.36677e-06
-1.44184e-08
-2.34876e-06
-1.80108e-08
-2.32715e-06
-2.16059e-08
-2.30196e-06
-2.51866e-08
-2.27323e-06
-2.87355e-08
-2.24099e-06
-3.22346e-08
-2.20533e-06
-3.56659e-08
-2.16632e-06
-3.90113e-08
-2.12406e-06
-4.22531e-08
-2.07869e-06
-4.53739e-08
-2.03033e-06
-4.83573e-08
-1.97914e-06
-5.11875e-08
-1.9253e-06
-5.38498e-08
-1.86896e-06
-5.63309e-08
-1.81035e-06
-5.86187e-08
-1.74964e-06
-6.07028e-08
-1.68707e-06
-6.25746e-08
-1.62284e-06
-6.42269e-08
-1.55719e-06
-6.56547e-08
-1.49033e-06
-6.68544e-08
-1.42251e-06
-6.78244e-08
-1.35394e-06
-6.85648e-08
-1.28487e-06
-6.90773e-08
-1.2155e-06
-6.93649e-08
-1.14607e-06
-6.94321e-08
-1.07678e-06
-6.92841e-08
-1.00786e-06
-6.8927e-08
-9.3949e-07
-6.83675e-08
-8.71878e-07
-6.76121e-08
-8.05211e-07
-6.66673e-08
-7.39672e-07
-6.55389e-08
-6.7544e-07
-6.42316e-08
-6.12691e-07
-6.27491e-08
-5.51598e-07
-6.1093e-08
-4.92335e-07
-5.92632e-08
-4.35078e-07
-5.72572e-08
-3.80008e-07
-5.50701e-08
-3.27313e-07
-5.26942e-08
-2.77194e-07
-5.01196e-08
-2.2986e-07
-4.73336e-08
-1.85538e-07
-4.4322e-08
-1.44469e-07
-4.1069e-08
-1.0691e-07
-3.75588e-08
-7.31336e-08
-3.37768e-08
-4.34213e-08
-2.97123e-08
-1.80596e-08
-2.53618e-08
2.67382e-09
-2.07334e-08
1.8529e-08
-1.58552e-08
2.9315e-08
-1.0786e-08
3.49471e-08
-5.63217e-09
3.55719e-08
-6.2471e-10
3.14695e-08
4.10232e-09
2.36314e-08
7.83807e-09
1.37243e-08
9.90716e-09
4.64663e-09
9.0778e-09
4.64673e-09
-1.95221e-09
-2.0541e-09
-2.12146e-08
2.11665e-08
-6.48224e-08
5.5964e-08
-1.32408e-07
9.03872e-08
-2.21171e-07
1.20536e-07
-3.27417e-07
1.45152e-07
-4.47426e-07
1.64306e-07
-5.77857e-07
1.78639e-07
-7.15904e-07
1.88982e-07
-8.59311e-07
1.96156e-07
-1.00632e-06
2.00898e-07
-1.15562e-06
2.03827e-07
-1.30622e-06
2.05443e-07
-1.45745e-06
2.06139e-07
-1.60881e-06
2.0621e-07
-1.76001e-06
2.05876e-07
-1.91083e-06
2.05292e-07
-2.06115e-06
2.04565e-07
-2.2109e-06
2.03765e-07
-2.36004e-06
2.02933e-07
-2.50857e-06
2.02089e-07
-2.65645e-06
2.01242e-07
-2.80368e-06
2.00387e-07
-2.95024e-06
1.99515e-07
-3.09611e-06
1.98611e-07
-3.24123e-06
1.97659e-07
-3.38556e-06
1.9664e-07
-3.52903e-06
1.95536e-07
-3.67156e-06
1.94327e-07
-3.81305e-06
1.92993e-07
-3.95341e-06
1.91516e-07
-4.09251e-06
1.89875e-07
-4.2302e-06
1.88051e-07
-4.36635e-06
1.86023e-07
-4.50079e-06
1.83774e-07
-4.63333e-06
1.81282e-07
-4.7638e-06
1.78527e-07
-4.89198e-06
1.75491e-07
-5.01765e-06
1.72153e-07
-5.14057e-06
1.68495e-07
-5.26051e-06
1.64496e-07
-5.3772e-06
1.60138e-07
-5.49037e-06
1.55405e-07
-5.59973e-06
1.50278e-07
-5.70498e-06
1.44742e-07
-5.80583e-06
1.38783e-07
-5.90196e-06
1.32389e-07
-5.99304e-06
1.25548e-07
-6.07875e-06
1.18253e-07
-6.15877e-06
1.10498e-07
-6.23275e-06
1.02279e-07
-6.30037e-06
9.35973e-08
-6.3613e-06
8.44559e-08
-6.41522e-06
7.48619e-08
-6.46181e-06
6.48262e-08
-6.50076e-06
5.43637e-08
-6.5318e-06
4.34933e-08
-6.55465e-06
3.22385e-08
-6.56905e-06
2.0627e-08
-6.57478e-06
8.6908e-09
-6.57164e-06
-3.53486e-09
-6.55944e-06
-1.60087e-08
-6.53807e-06
-2.86853e-08
-6.50739e-06
-4.15181e-08
-6.46736e-06
-5.44551e-08
-6.41793e-06
-6.74414e-08
-6.35911e-06
-8.042e-08
-6.29097e-06
-9.33315e-08
-6.21359e-06
-1.06115e-07
-6.12711e-06
-1.18709e-07
-6.03173e-06
-1.3105e-07
-5.92766e-06
-1.43078e-07
-5.81518e-06
-1.54732e-07
-5.69461e-06
-1.65952e-07
-5.56628e-06
-1.76682e-07
-5.4306e-06
-1.86869e-07
-5.28799e-06
-1.96463e-07
-5.1389e-06
-2.05419e-07
-4.98382e-06
-2.13696e-07
-4.82326e-06
-2.2126e-07
-4.65776e-06
-2.28081e-07
-4.48785e-06
-2.34134e-07
-4.3141e-06
-2.39403e-07
-4.13708e-06
-2.43876e-07
-3.95736e-06
-2.47548e-07
-3.7755e-06
-2.50417e-07
-3.59209e-06
-2.5249e-07
-3.40768e-06
-2.53775e-07
-3.22283e-06
-2.54288e-07
-3.03807e-06
-2.54044e-07
-2.85393e-06
-2.53064e-07
-2.67093e-06
-2.51367e-07
-2.48957e-06
-2.48975e-07
-2.31033e-06
-2.45906e-07
-2.13369e-06
-2.42177e-07
-1.96012e-06
-2.37803e-07
-1.79008e-06
-2.3279e-07
-1.62403e-06
-2.27142e-07
-1.46244e-06
-2.20854e-07
-1.30578e-06
-2.13911e-07
-1.15456e-06
-2.06292e-07
-1.00929e-06
-1.97967e-07
-8.70512e-07
-1.88896e-07
-7.38813e-07
-1.79032e-07
-6.14814e-07
-1.68322e-07
-4.99173e-07
-1.56709e-07
-3.92592e-07
-1.4414e-07
-2.958e-07
-1.30569e-07
-2.09546e-07
-1.15966e-07
-1.34574e-07
-1.00334e-07
-7.15848e-08
-8.37228e-08
-2.11806e-08
-6.62593e-08
1.62148e-08
-4.81814e-08
4.04794e-08
-2.98968e-08
5.19088e-08
-1.20541e-08
5.16414e-08
4.36963e-09
4.17133e-08
1.77661e-08
2.56784e-08
2.5942e-08
9.01403e-09
2.57419e-08
1.36608e-08
-1.28045e-08
1.07504e-08
-5.73199e-08
6.5682e-08
-1.36229e-07
1.34873e-07
-2.48152e-07
2.02311e-07
-3.89446e-07
2.6183e-07
-5.55475e-07
3.11181e-07
-7.41467e-07
3.50298e-07
-9.43001e-07
3.80173e-07
-1.15624e-06
4.02218e-07
-1.37799e-06
4.17909e-07
-1.60571e-06
4.28617e-07
-1.83741e-06
4.35527e-07
-2.07159e-06
4.39624e-07
-2.30714e-06
4.4169e-07
-2.54326e-06
4.42333e-07
-2.7794e-06
4.4201e-07
-3.01516e-06
4.41054e-07
-3.25029e-06
4.39697e-07
-3.48462e-06
4.38097e-07
-3.71804e-06
4.36352e-07
-3.95047e-06
4.34517e-07
-4.18185e-06
4.32617e-07
-4.41211e-06
4.30651e-07
-4.6412e-06
4.28608e-07
-4.86905e-06
4.26461e-07
-5.09558e-06
4.24181e-07
-5.32067e-06
4.21734e-07
-5.54421e-06
4.19081e-07
-5.76607e-06
4.16185e-07
-5.98609e-06
4.13006e-07
-6.20408e-06
4.09506e-07
-6.41984e-06
4.05644e-07
-6.63317e-06
4.0138e-07
-6.84382e-06
3.96674e-07
-7.05154e-06
3.91486e-07
-7.25603e-06
3.85777e-07
-7.45701e-06
3.79505e-07
-7.65415e-06
3.72632e-07
-7.84711e-06
3.65117e-07
-8.03554e-06
3.56923e-07
-8.21906e-06
3.4801e-07
-8.39726e-06
3.38343e-07
-8.56974e-06
3.27887e-07
-8.73608e-06
3.16609e-07
-8.89581e-06
3.0448e-07
-9.0485e-06
2.91472e-07
-9.19368e-06
2.77561e-07
-9.33086e-06
2.62731e-07
-9.45957e-06
2.46965e-07
-9.57933e-06
2.30255e-07
-9.68965e-06
2.12598e-07
-9.79005e-06
1.93998e-07
-9.88006e-06
1.74465e-07
-9.95921e-06
1.54017e-07
-1.00271e-05
1.32679e-07
-1.00832e-05
1.10484e-07
-1.01272e-05
8.74757e-08
-1.01586e-05
6.37034e-08
-1.01772e-05
3.92267e-08
-1.01827e-05
1.41129e-08
-1.01746e-05
-1.15607e-08
-1.01529e-05
-3.77117e-08
-1.01174e-05
-6.42463e-08
-1.00678e-05
-9.10659e-08
-1.00042e-05
-1.18065e-07
-9.92652e-06
-1.45131e-07
-9.83479e-06
-1.72149e-07
-9.72912e-06
-1.98997e-07
-9.60968e-06
-2.25554e-07
-9.4767e-06
-2.51694e-07
-9.33045e-06
-2.77293e-07
-9.1713e-06
-3.02228e-07
-8.99966e-06
-3.26376e-07
-8.81599e-06
-3.49622e-07
-8.62082e-06
-3.71853e-07
-8.41472e-06
-3.92963e-07
-8.19833e-06
-4.12854e-07
-7.97231e-06
-4.31438e-07
-7.73738e-06
-4.48634e-07
-7.49426e-06
-4.64374e-07
-7.24374e-06
-4.786e-07
-6.98661e-06
-4.91265e-07
-6.72368e-06
-5.02336e-07
-6.45577e-06
-5.11789e-07
-6.1837e-06
-5.19614e-07
-5.90831e-06
-5.25811e-07
-5.63041e-06
-5.30389e-07
-5.35082e-06
-5.33367e-07
-5.07033e-06
-5.34772e-07
-4.78974e-06
-5.34636e-07
-4.50981e-06
-5.32996e-07
-4.23129e-06
-5.2989e-07
-3.95491e-06
-5.25355e-07
-3.68138e-06
-5.19428e-07
-3.41142e-06
-5.12137e-07
-3.14572e-06
-5.03505e-07
-2.88497e-06
-4.93543e-07
-2.62986e-06
-4.82249e-07
-2.38111e-06
-4.69607e-07
-2.13944e-06
-4.55584e-07
-1.9056e-06
-4.40129e-07
-1.68039e-06
-4.23174e-07
-1.46465e-06
-4.04634e-07
-1.25928e-06
-3.84408e-07
-1.06521e-06
-3.62386e-07
-8.83469e-07
-3.38455e-07
-7.151e-07
-3.12509e-07
-5.61207e-07
-2.84462e-07
-4.22902e-07
-2.54271e-07
-3.01272e-07
-2.21963e-07
-1.97322e-07
-1.87673e-07
-1.11887e-07
-1.51694e-07
-4.55157e-08
-1.14553e-07
1.68729e-09
-7.70997e-08
3.02746e-08
-4.06414e-08
4.17739e-08
-7.12962e-09
3.89077e-08
2.06324e-08
2.61033e-08
3.87464e-08
9.86505e-09
4.19801e-08
2.35259e-08
-2.42699e-08
3.50203e-08
-9.51168e-08
1.36529e-07
-2.10038e-07
2.49794e-07
-3.65272e-07
3.57544e-07
-5.55897e-07
4.52455e-07
-7.76429e-07
5.31713e-07
-1.02139e-06
5.95256e-07
-1.28568e-06
6.44465e-07
-1.56482e-06
6.81361e-07
-1.85503e-06
7.08114e-07
-2.15319e-06
7.26785e-07
-2.45686e-06
7.39196e-07
-2.76412e-06
7.46882e-07
-3.07352e-06
7.51089e-07
-3.38398e-06
7.52797e-07
-3.69473e-06
7.52755e-07
-4.00519e-06
7.51516e-07
-4.31497e-06
7.49479e-07
-4.62379e-06
7.46916e-07
-4.93145e-06
7.44005e-07
-5.23778e-06
7.40849e-07
-5.54266e-06
7.375e-07
-5.84598e-06
7.33972e-07
-6.14762e-06
7.30249e-07
-6.44746e-06
7.263e-07
-6.74536e-06
7.2208e-07
-7.04116e-06
7.17535e-07
-7.33469e-06
7.12609e-07
-7.62574e-06
7.07239e-07
-7.9141e-06
7.01365e-07
-8.19952e-06
6.94921e-07
-8.48172e-06
6.87844e-07
-8.76041e-06
6.80069e-07
-9.03526e-06
6.71531e-07
-9.30594e-06
6.62166e-07
-9.57207e-06
6.51907e-07
-9.83326e-06
6.40691e-07
-1.00891e-05
6.28453e-07
-1.03391e-05
6.1513e-07
-1.05828e-05
6.0066e-07
-1.08198e-05
5.84984e-07
-1.10495e-05
5.68044e-07
-1.12714e-05
5.49785e-07
-1.14849e-05
5.30157e-07
-1.16896e-05
5.09114e-07
-1.18847e-05
4.86617e-07
-1.20698e-05
4.6263e-07
-1.22442e-05
4.37127e-07
-1.24073e-05
4.10089e-07
-1.25586e-05
3.81507e-07
-1.26974e-05
3.51381e-07
-1.28231e-05
3.1972e-07
-1.29352e-05
2.86548e-07
-1.3033e-05
2.51897e-07
-1.31162e-05
2.15816e-07
-1.31841e-05
1.78363e-07
-1.32362e-05
1.39613e-07
-1.32721e-05
9.96522e-08
-1.32915e-05
5.85814e-08
-1.32939e-05
1.6515e-08
-1.3279e-05
-2.64192e-08
-1.32467e-05
-7.00808e-08
-1.31966e-05
-1.14317e-07
-1.31287e-05
-1.58965e-07
-1.30429e-05
-2.03851e-07
-1.29392e-05
-2.48793e-07
-1.28178e-05
-2.936e-07
-1.26787e-05
-3.38079e-07
-1.25222e-05
-3.82031e-07
-1.23487e-05
-4.25255e-07
-1.21584e-05
-4.67551e-07
-1.19519e-05
-5.08722e-07
-1.17297e-05
-5.48574e-07
-1.14924e-05
-5.86921e-07
-1.12407e-05
-6.23584e-07
-1.09753e-05
-6.58396e-07
-1.06969e-05
-6.91203e-07
-1.04065e-05
-7.21863e-07
-1.01049e-05
-7.50253e-07
-9.79298e-06
-7.76263e-07
-9.47178e-06
-7.99804e-07
-9.14224e-06
-8.20804e-07
-8.80537e-06
-8.39209e-07
-8.46217e-06
-8.54986e-07
-8.11367e-06
-8.68118e-07
-7.76087e-06
-8.78605e-07
-7.4048e-06
-8.86464e-07
-7.04644e-06
-8.91723e-07
-6.68679e-06
-8.94425e-07
-6.3268e-06
-8.94621e-07
-5.96743e-06
-8.92365e-07
-5.60961e-06
-8.87716e-07
-5.25423e-06
-8.80732e-07
-4.90219e-06
-8.71464e-07
-4.55438e-06
-8.59954e-07
-4.21165e-06
-8.46232e-07
-3.87488e-06
-8.30309e-07
-3.54496e-06
-8.12174e-07
-3.22277e-06
-7.91794e-07
-2.90925e-06
-7.69107e-07
-2.60535e-06
-7.44024e-07
-2.3121e-06
-7.16426e-07
-2.03057e-06
-6.86169e-07
-1.76189e-06
-6.53086e-07
-1.50728e-06
-6.16998e-07
-1.26801e-06
-5.77721e-07
-1.04543e-06
-5.35092e-07
-8.40908e-07
-4.88983e-07
-6.55832e-07
-4.39348e-07
-4.91537e-07
-3.86258e-07
-3.49243e-07
-3.29968e-07
-2.29941e-07
-2.70997e-07
-1.3426e-07
-2.10233e-07
-6.22906e-08
-1.49069e-07
-1.33553e-08
-8.95767e-08
1.42454e-08
-3.47304e-08
2.35418e-08
1.1336e-08
1.92285e-08
4.30597e-08
8.09936e-09
5.31092e-08
3.16252e-08
-3.49528e-08
6.99731e-08
-1.30923e-07
2.32499e-07
-2.80437e-07
3.99309e-07
-4.76834e-07
5.53941e-07
-7.1352e-07
6.8914e-07
-9.84023e-07
8.02216e-07
-1.28221e-06
8.93442e-07
-1.60249e-06
9.64742e-07
-1.93994e-06
1.01881e-06
-2.29039e-06
1.05856e-06
-2.65037e-06
1.08677e-06
-3.01709e-06
1.10592e-06
-3.38835e-06
1.11814e-06
-3.76243e-06
1.12517e-06
-4.13805e-06
1.12841e-06
-4.51422e-06
1.12893e-06
-4.89024e-06
1.12753e-06
-5.26555e-06
1.1248e-06
-5.63978e-06
1.12115e-06
-6.01263e-06
1.11685e-06
-6.38385e-06
1.11207e-06
-6.75325e-06
1.1069e-06
-7.12064e-06
1.10137e-06
-7.48586e-06
1.09547e-06
-7.84872e-06
1.08916e-06
-8.20901e-06
1.08238e-06
-8.56654e-06
1.07506e-06
-8.92105e-06
1.06712e-06
-9.2723e-06
1.05849e-06
-9.61999e-06
1.04905e-06
-9.96381e-06
1.03874e-06
-1.03034e-05
1.02745e-06
-1.06384e-05
1.01509e-06
-1.09685e-05
1.00158e-06
-1.12931e-05
9.86807e-07
-1.16119e-05
9.7069e-07
-1.19244e-05
9.53135e-07
-1.22299e-05
9.3405e-07
-1.25282e-05
9.13346e-07
-1.28184e-05
8.90936e-07
-1.31002e-05
8.66735e-07
-1.33728e-05
8.40664e-07
-1.36357e-05
8.12648e-07
-1.38881e-05
7.82618e-07
-1.41295e-05
7.50513e-07
-1.43592e-05
7.16278e-07
-1.45764e-05
6.79871e-07
-1.47806e-05
6.41258e-07
-1.49709e-05
6.00419e-07
-1.51467e-05
5.57346e-07
-1.53074e-05
5.12046e-07
-1.54522e-05
4.64541e-07
-1.55805e-05
4.1487e-07
-1.56917e-05
3.6309e-07
-1.57852e-05
3.09275e-07
-1.58604e-05
2.53519e-07
-1.59167e-05
1.95935e-07
-1.59537e-05
1.36655e-07
-1.59709e-05
7.583e-08
-1.5968e-05
1.3631e-08
-1.59447e-05
-4.97529e-08
-1.59007e-05
-1.14115e-07
-1.58358e-05
-1.79232e-07
-1.57499e-05
-2.44865e-07
-1.5643e-05
-3.10763e-07
-1.55151e-05
-3.76662e-07
-1.53664e-05
-4.42289e-07
-1.51971e-05
-5.07365e-07
-1.50075e-05
-5.71604e-07
-1.47981e-05
-6.34722e-07
-1.45692e-05
-6.96434e-07
-1.43214e-05
-7.56458e-07
-1.40555e-05
-8.14522e-07
-1.37721e-05
-8.70362e-07
-1.34719e-05
-9.23729e-07
-1.31559e-05
-9.74386e-07
-1.2825e-05
-1.02212e-06
-1.24801e-05
-1.06673e-06
-1.21224e-05
-1.10804e-06
-1.17527e-05
-1.14591e-06
-1.13723e-05
-1.18021e-06
-1.09822e-05
-1.21085e-06
-1.05837e-05
-1.23774e-06
-1.01779e-05
-1.26085e-06
-9.76583e-06
-1.28015e-06
-9.3488e-06
-1.29564e-06
-8.9279e-06
-1.30736e-06
-8.50429e-06
-1.31533e-06
-8.07909e-06
-1.31963e-06
-7.65339e-06
-1.32032e-06
-7.22827e-06
-1.31748e-06
-6.8048e-06
-1.31119e-06
-6.38401e-06
-1.30152e-06
-5.96693e-06
-1.28855e-06
-5.55456e-06
-1.27232e-06
-5.14791e-06
-1.25289e-06
-4.74798e-06
-1.23024e-06
-4.35579e-06
-1.20436e-06
-3.97239e-06
-1.1752e-06
-3.59885e-06
-1.14265e-06
-3.2363e-06
-1.10658e-06
-2.88592e-06
-1.06681e-06
-2.54896e-06
-1.02313e-06
-2.22675e-06
-9.75296e-07
-1.92069e-06
-9.23052e-07
-1.63228e-06
-8.66139e-07
-1.36304e-06
-8.0433e-07
-1.11456e-06
-7.37463e-07
-8.88413e-07
-6.65493e-07
-6.86115e-07
-5.88555e-07
-5.09029e-07
-5.07054e-07
-3.58254e-07
-4.21772e-07
-2.34485e-07
-3.34003e-07
-1.37826e-07
-2.45727e-07
-6.75858e-08
-1.59817e-07
-2.2036e-08
-8.02802e-08
1.85077e-09
-1.25508e-08
8.74889e-09
3.61616e-08
5.13957e-09
5.67185e-08
3.67648e-08
-4.44405e-08
1.14414e-07
-1.63323e-07
3.51381e-07
-3.44858e-07
5.80844e-07
-5.79452e-07
7.88535e-07
-8.58655e-07
9.68344e-07
-1.17486e-06
1.11842e-06
-1.52123e-06
1.23981e-06
-1.89172e-06
1.33523e-06
-2.28106e-06
1.40816e-06
-2.6848e-06
1.4623e-06
-3.09924e-06
1.5012e-06
-3.52136e-06
1.52804e-06
-3.94875e-06
1.54553e-06
-4.37952e-06
1.55595e-06
-4.8122e-06
1.5611e-06
-5.24569e-06
1.56241e-06
-5.67911e-06
1.56095e-06
-6.11183e-06
1.55752e-06
-6.54335e-06
1.55267e-06
-6.97329e-06
1.54678e-06
-7.40132e-06
1.5401e-06
-7.82717e-06
1.53275e-06
-8.2506e-06
1.5248e-06
-8.67136e-06
1.51623e-06
-9.08922e-06
1.50701e-06
-9.50391e-06
1.49707e-06
-9.91516e-06
1.48631e-06
-1.03227e-05
1.47464e-06
-1.07261e-05
1.46194e-06
-1.11252e-05
1.44811e-06
-1.15195e-05
1.43301e-06
-1.19085e-05
1.41653e-06
-1.2292e-05
1.39854e-06
-1.26693e-05
1.37893e-06
-1.30401e-05
1.35757e-06
-1.34037e-05
1.33433e-06
-1.37597e-05
1.3091e-06
-1.41074e-05
1.28175e-06
-1.44462e-05
1.25216e-06
-1.47755e-05
1.22023e-06
-1.50946e-05
1.18585e-06
-1.54029e-05
1.14891e-06
-1.56995e-05
1.10931e-06
-1.59839e-05
1.06698e-06
-1.62552e-05
1.02183e-06
-1.65127e-05
9.73796e-07
-1.67557e-05
9.22832e-07
-1.69833e-05
8.68898e-07
-1.71949e-05
8.11976e-07
-1.73896e-05
7.52063e-07
-1.75667e-05
6.89178e-07
-1.77256e-05
6.2336e-07
-1.78654e-05
5.5467e-07
-1.79855e-05
4.83193e-07
-1.80852e-05
4.09039e-07
-1.81641e-05
3.32341e-07
-1.82214e-05
2.53259e-07
-1.82567e-05
1.71978e-07
-1.82696e-05
8.87086e-08
-1.82596e-05
3.6856e-09
-1.82266e-05
-8.28319e-08
-1.81701e-05
-1.70562e-07
-1.80901e-05
-2.59202e-07
-1.79866e-05
-3.48431e-07
-1.78594e-05
-4.37908e-07
-1.77088e-05
-5.27281e-07
-1.75349e-05
-6.16187e-07
-1.7338e-05
-7.04251e-07
-1.71185e-05
-7.91097e-07
-1.68769e-05
-8.76347e-07
-1.66137e-05
-9.59625e-07
-1.63296e-05
-1.04056e-06
-1.60253e-05
-1.1188e-06
-1.57017e-05
-1.19399e-06
-1.53596e-05
-1.26581e-06
-1.50001e-05
-1.33395e-06
-1.46241e-05
-1.39813e-06
-1.42327e-05
-1.4581e-06
-1.38271e-05
-1.51364e-06
-1.34085e-05
-1.56454e-06
-1.2978e-05
-1.61066e-06
-1.2537e-05
-1.65187e-06
-1.20867e-05
-1.68807e-06
-1.16283e-05
-1.71922e-06
-1.11632e-05
-1.74528e-06
-1.06925e-05
-1.76626e-06
-1.02177e-05
-1.78221e-06
-9.73984e-06
-1.79317e-06
-9.26025e-06
-1.79922e-06
-8.78011e-06
-1.80047e-06
-8.30059e-06
-1.797e-06
-7.82286e-06
-1.78892e-06
-7.34805e-06
-1.77633e-06
-6.87728e-06
-1.75932e-06
-6.41165e-06
-1.73795e-06
-5.95227e-06
-1.71227e-06
-5.50024e-06
-1.68227e-06
-5.05668e-06
-1.64792e-06
-4.62275e-06
-1.60913e-06
-4.19963e-06
-1.56577e-06
-3.78855e-06
-1.51765e-06
-3.39084e-06
-1.46452e-06
-3.00786e-06
-1.40611e-06
-2.64107e-06
-1.34208e-06
-2.29202e-06
-1.2721e-06
-1.96234e-06
-1.19582e-06
-1.6537e-06
-1.11297e-06
-1.36782e-06
-1.02334e-06
-1.10641e-06
-9.26903e-07
-8.71099e-07
-8.23869e-07
-6.63343e-07
-7.14811e-07
-4.84325e-07
-6.0079e-07
-3.34799e-07
-4.83528e-07
-2.14922e-07
-3.65605e-07
-1.24055e-07
-2.50684e-07
-6.05536e-08
-1.43781e-07
-2.15469e-08
-5.15575e-08
-2.75145e-09
1.73662e-08
1.81041e-09
5.21566e-08
3.85752e-08
-5.27026e-08
1.67116e-07
-1.92002e-07
4.90681e-07
-4.02498e-07
7.9134e-07
-6.71891e-07
1.05793e-06
-9.89868e-07
1.28632e-06
-1.34761e-06
1.47617e-06
-1.73753e-06
1.62973e-06
-2.15309e-06
1.75078e-06
-2.58872e-06
1.84379e-06
-3.03974e-06
1.91332e-06
-3.50228e-06
1.96374e-06
-3.97316e-06
1.99892e-06
-4.44984e-06
2.02221e-06
-4.9303e-06
2.03641e-06
-5.41297e-06
2.04376e-06
-5.89659e-06
2.04604e-06
-6.38024e-06
2.04459e-06
-6.86315e-06
2.04043e-06
-7.34474e-06
2.03427e-06
-7.82456e-06
2.0266e-06
-8.3022e-06
2.01774e-06
-8.77732e-06
2.00788e-06
-9.24962e-06
1.99709e-06
-9.71879e-06
1.9854e-06
-1.01845e-05
1.97274e-06
-1.06465e-05
1.95905e-06
-1.11044e-05
1.94421e-06
-1.15579e-05
1.9281e-06
-1.20065e-05
1.91059e-06
-1.24499e-05
1.89153e-06
-1.28877e-05
1.87076e-06
-1.33193e-05
1.84815e-06
-1.37443e-05
1.82353e-06
-1.41621e-05
1.79675e-06
-1.45722e-05
1.76766e-06
-1.4974e-05
1.7361e-06
-1.53668e-05
1.70192e-06
-1.575e-05
1.66496e-06
-1.61229e-05
1.62509e-06
-1.64849e-05
1.58217e-06
-1.68351e-05
1.53606e-06
-1.71728e-05
1.48663e-06
-1.74973e-05
1.43377e-06
-1.78077e-05
1.37738e-06
-1.81032e-05
1.31737e-06
-1.83831e-05
1.25366e-06
-1.86464e-05
1.1862e-06
-1.88925e-05
1.11494e-06
-1.91204e-05
1.03988e-06
-1.93293e-05
9.61029e-07
-1.95186e-05
8.78411e-07
-1.96873e-05
7.92091e-07
-1.98348e-05
7.02158e-07
-1.99603e-05
6.08731e-07
-2.00633e-05
5.1196e-07
-2.01429e-05
4.12026e-07
-2.01988e-05
3.09142e-07
-2.02304e-05
2.03553e-07
-2.02372e-05
9.55348e-08
-2.02189e-05
-1.46048e-08
-2.01752e-05
-1.2653e-07
-2.01059e-05
-2.39876e-07
-2.00109e-05
-3.54255e-07
-1.989e-05
-4.69253e-07
-1.97435e-05
-5.84437e-07
-1.95714e-05
-6.99359e-07
-1.93741e-05
-8.13556e-07
-1.91518e-05
-9.26556e-07
-1.8905e-05
-1.03788e-06
-1.86343e-05
-1.14706e-06
-1.83403e-05
-1.25362e-06
-1.80237e-05
-1.3571e-06
-1.76855e-05
-1.45705e-06
-1.73264e-05
-1.55303e-06
-1.69476e-05
-1.64465e-06
-1.655e-05
-1.73153e-06
-1.61348e-05
-1.81332e-06
-1.57032e-05
-1.8897e-06
-1.52565e-05
-1.9604e-06
-1.47958e-05
-2.02519e-06
-1.43226e-05
-2.08387e-06
-1.38382e-05
-2.13629e-06
-1.33439e-05
-2.18236e-06
-1.28411e-05
-2.22199e-06
-1.23312e-05
-2.25518e-06
-1.18156e-05
-2.28192e-06
-1.12955e-05
-2.30227e-06
-1.07724e-05
-2.31631e-06
-1.02475e-05
-2.32413e-06
-9.72206e-06
-2.32586e-06
-9.19744e-06
-2.32162e-06
-8.67482e-06
-2.31154e-06
-8.15542e-06
-2.29573e-06
-7.64041e-06
-2.27432e-06
-7.13099e-06
-2.24737e-06
-6.62832e-06
-2.21494e-06
-6.13358e-06
-2.17701e-06
-5.64796e-06
-2.13354e-06
-5.17269e-06
-2.08441e-06
-4.70902e-06
-2.02944e-06
-4.25827e-06
-1.96839e-06
-3.82184e-06
-1.90096e-06
-3.40118e-06
-1.82677e-06
-2.99785e-06
-1.74541e-06
-2.61347e-06
-1.65647e-06
-2.24976e-06
-1.55953e-06
-1.90849e-06
-1.45424e-06
-1.59146e-06
-1.34037e-06
-1.30045e-06
-1.21791e-06
-1.03717e-06
-1.08715e-06
-8.03146e-07
-9.48835e-07
-5.99618e-07
-8.04317e-07
-4.27404e-07
-6.55743e-07
-2.86733e-07
-5.06276e-07
-1.77074e-07
-3.60343e-07
-9.69524e-08
-2.23903e-07
-4.37734e-08
-1.04737e-07
-1.36657e-08
-1.27416e-08
-1.32342e-09
3.98144e-08
3.72518e-08
-5.98458e-08
2.26962e-07
-2.17114e-07
6.47949e-07
-4.53428e-07
1.02765e-06
-7.54095e-07
1.3586e-06
-1.10705e-06
1.63928e-06
-1.50228e-06
1.8714e-06
-1.93139e-06
2.05885e-06
-2.38735e-06
2.20675e-06
-2.86428e-06
2.32072e-06
-3.35729e-06
2.40633e-06
-3.86236e-06
2.4688e-06
-4.37621e-06
2.51277e-06
-4.89621e-06
2.54221e-06
-5.42025e-06
2.56045e-06
-5.94667e-06
2.57018e-06
-6.47415e-06
2.57352e-06
-7.00167e-06
2.57211e-06
-7.5284e-06
2.56716e-06
-8.05369e-06
2.55956e-06
-8.577e-06
2.54991e-06
-9.09788e-06
2.53862e-06
-9.61592e-06
2.52592e-06
-1.01308e-05
2.51192e-06
-1.0642e-05
2.49665e-06
-1.11493e-05
2.48006e-06
-1.16523e-05
2.46206e-06
-1.21507e-05
2.44253e-06
-1.26439e-05
2.42132e-06
-1.31316e-05
2.39827e-06
-1.36132e-05
2.3732e-06
-1.40884e-05
2.34594e-06
-1.45566e-05
2.3163e-06
-1.50171e-05
2.2841e-06
-1.54695e-05
2.24915e-06
-1.59131e-05
2.21126e-06
-1.63473e-05
2.17025e-06
-1.67713e-05
2.12593e-06
-1.71845e-05
2.07813e-06
-1.7586e-05
2.02667e-06
-1.79753e-05
1.97138e-06
-1.83513e-05
1.91211e-06
-1.87134e-05
1.84871e-06
-1.90607e-05
1.78105e-06
-1.93923e-05
1.70901e-06
-1.97074e-05
1.63248e-06
-2.00051e-05
1.55139e-06
-2.02846e-05
1.46567e-06
-2.0545e-05
1.3753e-06
-2.07854e-05
1.28027e-06
-2.10049e-05
1.18059e-06
-2.12029e-05
1.07633e-06
-2.13783e-05
9.67569e-07
-2.15306e-05
8.54429e-07
-2.16589e-05
7.37068e-07
-2.17627e-05
6.15685e-07
-2.18412e-05
4.90512e-07
-2.18938e-05
3.61822e-07
-2.19202e-05
2.29927e-07
-2.19198e-05
9.51737e-08
-2.18924e-05
-4.20516e-08
-2.18376e-05
-1.81329e-07
-2.17553e-05
-3.22207e-07
-2.16453e-05
-4.64202e-07
-2.15078e-05
-6.06805e-07
-2.13427e-05
-7.49484e-07
-2.11504e-05
-8.91688e-07
-2.09311e-05
-1.03285e-06
-2.06853e-05
-1.1724e-06
-2.04134e-05
-1.30974e-06
-2.01161e-05
-1.44432e-06
-1.97942e-05
-1.57555e-06
-1.94484e-05
-1.70288e-06
-1.90797e-05
-1.82576e-06
-1.86891e-05
-1.94368e-06
-1.82776e-05
-2.05615e-06
-1.78464e-05
-2.16272e-06
-1.73967e-05
-2.26298e-06
-1.69299e-05
-2.35654e-06
-1.64472e-05
-2.44309e-06
-1.595e-05
-2.52236e-06
-1.54398e-05
-2.5941e-06
-1.49179e-05
-2.65816e-06
-1.43858e-05
-2.71441e-06
-1.38451e-05
-2.76278e-06
-1.3297e-05
-2.80325e-06
-1.27431e-05
-2.83583e-06
-1.21847e-05
-2.8606e-06
-1.16234e-05
-2.87765e-06
-1.10604e-05
-2.8871e-06
-1.04972e-05
-2.88911e-06
-9.93497e-06
-2.88383e-06
-9.37509e-06
-2.87142e-06
-8.81879e-06
-2.85203e-06
-8.26733e-06
-2.82578e-06
-7.72193e-06
-2.79277e-06
-7.18382e-06
-2.75305e-06
-6.65421e-06
-2.70662e-06
-6.13435e-06
-2.6534e-06
-5.62551e-06
-2.59325e-06
-5.12899e-06
-2.52596e-06
-4.64617e-06
-2.45122e-06
-4.17847e-06
-2.36865e-06
-3.72741e-06
-2.27783e-06
-3.29458e-06
-2.17824e-06
-2.88167e-06
-2.06938e-06
-2.49044e-06
-1.95077e-06
-2.1227e-06
-1.82198e-06
-1.7803e-06
-1.68277e-06
-1.46506e-06
-1.53314e-06
-1.17874e-06
-1.37347e-06
-9.22903e-07
-1.20467e-06
-6.98835e-07
-1.02838e-06
-5.07418e-07
-8.4716e-07
-3.48972e-07
-6.64722e-07
-2.23102e-07
-4.86213e-07
-1.28535e-07
-3.18469e-07
-6.29799e-08
-1.70292e-07
-2.3002e-08
-5.27195e-08
-3.93106e-09
2.07434e-08
3.33207e-08
-6.60117e-08
2.92974e-07
-2.3899e-07
8.20927e-07
-4.98107e-07
1.28677e-06
-8.26608e-07
1.6871e-06
-1.21084e-06
2.02351e-06
-1.63965e-06
2.30021e-06
-2.10387e-06
2.52306e-06
-2.59594e-06
2.69882e-06
-3.10966e-06
2.83444e-06
-3.63994e-06
2.93662e-06
-4.18263e-06
3.0115e-06
-4.73438e-06
3.06451e-06
-5.29246e-06
3.1003e-06
-5.85473e-06
3.12272e-06
-6.41945e-06
3.13491e-06
-6.98527e-06
3.13934e-06
-7.5511e-06
3.13793e-06
-8.11605e-06
3.13212e-06
-8.67943e-06
3.12293e-06
-9.24063e-06
3.11111e-06
-9.79915e-06
3.09714e-06
-1.03545e-05
3.08129e-06
-1.09063e-05
3.06372e-06
-1.14541e-05
3.04446e-06
-1.19975e-05
3.02347e-06
-1.25361e-05
3.00064e-06
-1.30694e-05
2.97585e-06
-1.3597e-05
2.94891e-06
-1.41184e-05
2.91965e-06
-1.46331e-05
2.88785e-06
-1.51404e-05
2.85332e-06
-1.564e-05
2.81583e-06
-1.6131e-05
2.77516e-06
-1.6613e-05
2.73111e-06
-1.70851e-05
2.68344e-06
-1.75468e-05
2.63194e-06
-1.79973e-05
2.57639e-06
-1.84358e-05
2.5166e-06
-1.88614e-05
2.45235e-06
-1.92735e-05
2.38345e-06
-1.96711e-05
2.30972e-06
-2.00534e-05
2.231e-06
-2.04195e-05
2.14713e-06
-2.07685e-05
2.05799e-06
-2.10994e-05
1.96345e-06
-2.14115e-05
1.86345e-06
-2.17037e-05
1.75791e-06
-2.19752e-05
1.64681e-06
-2.22251e-05
1.53016e-06
-2.24525e-05
1.40799e-06
-2.26566e-05
1.28038e-06
-2.28364e-05
1.14746e-06
-2.29914e-05
1.00937e-06
-2.31206e-05
8.6633e-07
-2.32235e-05
7.18578e-07
-2.32994e-05
5.66409e-07
-2.33478e-05
4.1016e-07
-2.33681e-05
2.50212e-07
-2.33599e-05
8.69929e-08
-2.33229e-05
-7.90295e-08
-2.32569e-05
-2.47346e-07
-2.31617e-05
-4.17411e-07
-2.30372e-05
-5.88642e-07
-2.28836e-05
-7.60429e-07
-2.2701e-05
-9.32134e-07
-2.24896e-05
-1.1031e-06
-2.22498e-05
-1.27265e-06
-2.1982e-05
-1.4401e-06
-2.1687e-05
-1.60477e-06
-2.13654e-05
-1.76597e-06
-2.10179e-05
-1.92303e-06
-2.06455e-05
-2.07529e-06
-2.02491e-05
-2.22211e-06
-1.98299e-05
-2.36288e-06
-1.9389e-05
-2.49704e-06
-1.89277e-05
-2.62405e-06
-1.84472e-05
-2.74344e-06
-1.7949e-05
-2.85477e-06
-1.74344e-05
-2.95766e-06
-1.6905e-05
-3.05181e-06
-1.63622e-05
-3.13694e-06
-1.58075e-05
-3.21287e-06
-1.52424e-05
-3.27945e-06
-1.46686e-05
-3.33663e-06
-1.40874e-05
-3.38437e-06
-1.35006e-05
-3.42272e-06
-1.29094e-05
-3.45175e-06
-1.23155e-05
-3.4716e-06
-1.17202e-05
-3.48241e-06
-1.11249e-05
-3.48437e-06
-1.05311e-05
-3.47767e-06
-9.94e-06
-3.46249e-06
-9.353e-06
-3.43903e-06
-8.77135e-06
-3.40743e-06
-8.19633e-06
-3.3678e-06
-7.62918e-06
-3.3202e-06
-7.07116e-06
-3.26464e-06
-6.52353e-06
-3.20102e-06
-5.9876e-06
-3.12918e-06
-5.46469e-06
-3.04887e-06
-4.95619e-06
-2.95971e-06
-4.46356e-06
-2.86128e-06
-3.98833e-06
-2.75306e-06
-3.53211e-06
-2.63446e-06
-3.09661e-06
-2.50489e-06
-2.68358e-06
-2.36379e-06
-2.29488e-06
-2.21068e-06
-1.93236e-06
-2.0453e-06
-1.59786e-06
-1.86764e-06
-1.29315e-06
-1.67818e-06
-1.01983e-06
-1.478e-06
-7.79208e-07
-1.269e-06
-5.72241e-07
-1.05413e-06
-3.99338e-07
-8.37625e-07
-2.60241e-07
-6.2531e-07
-1.53884e-07
-4.24826e-07
-7.8262e-08
-2.45914e-07
-3.03331e-08
-1.00648e-07
-5.94911e-09
-3.64057e-09
2.73716e-08
-7.13357e-08
3.64309e-07
-2.58002e-07
1.00759e-06
-5.37139e-07
1.56591e-06
-8.90237e-07
2.04019e-06
-1.30225e-06
2.43552e-06
-1.76096e-06
2.75892e-06
-2.25645e-06
3.01856e-06
-2.78069e-06
3.22305e-06
-3.32712e-06
3.38087e-06
-3.89045e-06
3.49995e-06
-4.46641e-06
3.58746e-06
-5.05156e-06
3.64966e-06
-5.64314e-06
3.69187e-06
-6.23895e-06
3.71852e-06
-6.83722e-06
3.73318e-06
-7.43655e-06
3.73867e-06
-8.03582e-06
3.7372e-06
-8.63411e-06
3.73041e-06
-9.23068e-06
3.7195e-06
-9.82487e-06
3.70531e-06
-1.04161e-05
3.6884e-06
-1.1004e-05
3.66912e-06
-1.15879e-05
3.64764e-06
-1.21674e-05
3.62401e-06
-1.27421e-05
3.59818e-06
-1.33116e-05
3.57006e-06
-1.38752e-05
3.53948e-06
-1.44325e-05
3.50625e-06
-1.4983e-05
3.47015e-06
-1.55261e-05
3.43097e-06
-1.60613e-05
3.38845e-06
-1.65878e-05
3.34235e-06
-1.71051e-05
3.29242e-06
-1.76124e-05
3.23841e-06
-1.8109e-05
3.18007e-06
-1.85942e-05
3.11714e-06
-1.90672e-05
3.04938e-06
-1.95271e-05
2.97655e-06
-1.99732e-05
2.89843e-06
-2.04046e-05
2.81479e-06
-2.08203e-05
2.72543e-06
-2.12194e-05
2.63017e-06
-2.16012e-05
2.52885e-06
-2.19645e-05
2.4213e-06
-2.23084e-05
2.30743e-06
-2.26321e-05
2.18714e-06
-2.29346e-05
2.06037e-06
-2.32149e-05
1.92711e-06
-2.34721e-05
1.78737e-06
-2.37053e-05
1.64122e-06
-2.39137e-05
1.48877e-06
-2.40964e-05
1.33015e-06
-2.42526e-05
1.16559e-06
-2.43816e-05
9.95315e-07
-2.44827e-05
8.19642e-07
-2.45552e-05
6.38923e-07
-2.45986e-05
4.53563e-07
-2.46124e-05
2.64022e-07
-2.45962e-05
7.08075e-08
-2.45497e-05
-1.25523e-07
-2.44727e-05
-3.24367e-07
-2.43651e-05
-5.25078e-07
-2.42267e-05
-7.26974e-07
-2.40578e-05
-9.29335e-07
-2.38585e-05
-1.13142e-06
-2.36292e-05
-1.33244e-06
-2.33702e-05
-1.53164e-06
-2.30821e-05
-1.72819e-06
-2.27656e-05
-1.92132e-06
-2.24213e-05
-2.11021e-06
-2.20503e-05
-2.2941e-06
-2.16533e-05
-2.47221e-06
-2.12316e-05
-2.64382e-06
-2.07863e-05
-2.80822e-06
-2.03186e-05
-2.96477e-06
-1.98298e-05
-3.11284e-06