/*--------------------------------*- C++ -*----------------------------------*\
| =========                 |                                                 |
| \\      /  F ield         | OpenFOAM: The Open Source CFD Toolbox           |
|  \\    /   O peration     | Version:  2406                                  |
|   \\  /    A nd           | Website:  www.openfoam.com                      |
|    \\/     M anipulation  |                                                 |
\*---------------------------------------------------------------------------*/
FoamFile
{
    version     2.0;
    format      ascii;
    arch        "LSB;label=32;scalar=64";
    class       volVectorField;
    location    "7.6";
    object      U_0;
}
// * * * * * * * * * * * * * * * * * * * * * * * * * * * * * * * * * * * * * //

dimensions      [0 1 -1 0 0 0 0];

internalField   nonuniform List<vector> 
14400
(
(2.29325e-06 -2.28352e-06 0)
(5.23979e-06 -3.26619e-07 0)
(-3.24153e-06 2.96008e-06 0)
(-2.44843e-05 6.17371e-06 0)
(-5.75063e-05 8.85985e-06 0)
(-0.000100196 1.09493e-05 0)
(-0.00015036 1.24932e-05 0)
(-0.000206057 1.35864e-05 0)
(-0.00026569 1.43284e-05 0)
(-0.000328009 1.48063e-05 0)
(-0.000392067 1.50919e-05 0)
(-0.00045717 1.52419e-05 0)
(-0.000522825 1.52997e-05 0)
(-0.000588693 1.52977e-05 0)
(-0.000654554 1.52591e-05 0)
(-0.000720267 1.52003e-05 0)
(-0.000785754 1.51324e-05 0)
(-0.000850977 1.50624e-05 0)
(-0.000915922 1.49944e-05 0)
(-0.00098059 1.49304e-05 0)
(-0.00104499 1.48711e-05 0)
(-0.00110913 1.4816e-05 0)
(-0.00117303 1.47642e-05 0)
(-0.00123668 1.47143e-05 0)
(-0.00130009 1.46648e-05 0)
(-0.00136325 1.46138e-05 0)
(-0.00142615 1.45598e-05 0)
(-0.00148876 1.45009e-05 0)
(-0.00155107 1.44356e-05 0)
(-0.00161304 1.43622e-05 0)
(-0.00167462 1.4279e-05 0)
(-0.00173578 1.41844e-05 0)
(-0.00179645 1.40768e-05 0)
(-0.00185658 1.39544e-05 0)
(-0.0019161 1.38158e-05 0)
(-0.00197493 1.36592e-05 0)
(-0.00203301 1.3483e-05 0)
(-0.00209023 1.32855e-05 0)
(-0.0021465 1.30651e-05 0)
(-0.00220173 1.28199e-05 0)
(-0.0022558 1.25485e-05 0)
(-0.0023086 1.22491e-05 0)
(-0.00236001 1.19203e-05 0)
(-0.0024099 1.15603e-05 0)
(-0.00245815 1.11679e-05 0)
(-0.0025046 1.07417e-05 0)
(-0.00254912 1.02804e-05 0)
(-0.00259156 9.78296e-06 0)
(-0.00263177 9.24854e-06 0)
(-0.00266959 8.6764e-06 0)
(-0.00270487 8.06608e-06 0)
(-0.00273744 7.41733e-06 0)
(-0.00276715 6.73022e-06 0)
(-0.00279385 6.00508e-06 0)
(-0.00281737 5.24257e-06 0)
(-0.00283757 4.44369e-06 0)
(-0.0028543 3.6098e-06 0)
(-0.00286743 2.74258e-06 0)
(-0.00287682 1.8441e-06 0)
(-0.00288235 9.17781e-07 0)
(-0.00288391 -3.27579e-08 0)
(-0.0028814 -1.00965e-06 0)
(-0.00287475 -2.00526e-06 0)
(-0.00286388 -3.01525e-06 0)
(-0.00284874 -4.03602e-06 0)
(-0.0028293 -5.06309e-06 0)
(-0.00280555 -6.09168e-06 0)
(-0.0027775 -7.11679e-06 0)
(-0.00274517 -8.13327e-06 0)
(-0.00270861 -9.13585e-06 0)
(-0.00266788 -1.01192e-05 0)
(-0.0026231 -1.1078e-05 0)
(-0.00257436 -1.20069e-05 0)
(-0.0025218 -1.2901e-05 0)
(-0.00246557 -1.37551e-05 0)
(-0.00240586 -1.45648e-05 0)
(-0.00234285 -1.53255e-05 0)
(-0.00227676 -1.60333e-05 0)
(-0.0022078 -1.66848e-05 0)
(-0.00213621 -1.72766e-05 0)
(-0.00206226 -1.78063e-05 0)
(-0.00198618 -1.82718e-05 0)
(-0.00190826 -1.86716e-05 0)
(-0.00182876 -1.90045e-05 0)
(-0.00174795 -1.92703e-05 0)
(-0.00166612 -1.94689e-05 0)
(-0.00158354 -1.96008e-05 0)
(-0.00150047 -1.96672e-05 0)
(-0.00141719 -1.96692e-05 0)
(-0.00133396 -1.96086e-05 0)
(-0.00125103 -1.94874e-05 0)
(-0.00116864 -1.93074e-05 0)
(-0.00108704 -1.9071e-05 0)
(-0.00100647 -1.878e-05 0)
(-0.00092713 -1.84365e-05 0)
(-0.000849252 -1.8042e-05 0)
(-0.000773046 -1.75977e-05 0)
(-0.000698719 -1.71045e-05 0)
(-0.00062648 -1.65625e-05 0)
(-0.000556539 -1.59713e-05 0)
(-0.00048911 -1.53297e-05 0)
(-0.000424414 -1.46358e-05 0)
(-0.000362683 -1.38868e-05 0)
(-0.000304163 -1.30795e-05 0)
(-0.000249117 -1.22097e-05 0)
(-0.000197824 -1.12732e-05 0)
(-0.000150584 -1.02651e-05 0)
(-0.000107715 -9.1812e-06 0)
(-6.95502e-05 -8.01785e-06 0)
(-3.6433e-05 -6.77313e-06 0)
(-8.70425e-06 -5.44808e-06 0)
(1.33155e-05 -4.04883e-06 0)
(2.93538e-05 -2.58913e-06 0)
(3.92361e-05 -1.09198e-06 0)
(4.29914e-05 3.79725e-07 0)
(4.08484e-05 1.68538e-06 0)
(3.35236e-05 2.73758e-06 0)
(2.24316e-05 3.34537e-06 0)
(1.07494e-05 2.98519e-06 0)
(1.72666e-06 1.73187e-06 0)
(3.3431e-07 -5.22131e-06 0)
(-1.02226e-05 1.01305e-05 0)
(-4.77295e-05 3.60566e-05 0)
(-0.000114882 6.18333e-05 0)
(-0.000209214 8.42099e-05 0)
(-0.000326793 0.000102246 0)
(-0.000463071 0.000116082 0)
(-0.000613779 0.000126281 0)
(-0.00077522 0.000133519 0)
(-0.000944363 0.000138444 0)
(-0.00111881 0.00014162 0)
(-0.00129673 0.000143512 0)
(-0.00147676 0.00014449 0)
(-0.00165791 0.00014484 0)
(-0.00183949 0.000144775 0)
(-0.00202104 0.000144449 0)
(-0.00220224 0.000143972 0)
(-0.0023829 0.000143417 0)
(-0.00256292 0.000142829 0)
(-0.00274223 0.000142236 0)
(-0.0029208 0.00014165 0)
(-0.00309861 0.000141074 0)
(-0.00327565 0.000140502 0)
(-0.00345189 0.000139927 0)
(-0.00362731 0.000139337 0)
(-0.00380187 0.00013872 0)
(-0.00397551 0.000138061 0)
(-0.00414816 0.000137346 0)
(-0.00431974 0.000136561 0)
(-0.00449013 0.000135692 0)
(-0.00465921 0.000134724 0)
(-0.00482686 0.000133644 0)
(-0.00499291 0.000132437 0)
(-0.0051572 0.000131088 0)
(-0.00531953 0.000129584 0)
(-0.0054797 0.00012791 0)
(-0.00563749 0.000126052 0)
(-0.00579266 0.000123995 0)
(-0.00594496 0.000121725 0)
(-0.0060941 0.000119227 0)
(-0.00623981 0.000116488 0)
(-0.00638178 0.000113494 0)
(-0.00651969 0.000110232 0)
(-0.00665321 0.000106688 0)
(-0.00678198 0.000102853 0)
(-0.00690565 9.87137e-05 0)
(-0.00702384 9.42618e-05 0)
(-0.00713618 8.94888e-05 0)
(-0.00724227 8.43881e-05 0)
(-0.00734173 7.89549e-05 0)
(-0.00743415 7.31865e-05 0)
(-0.00751914 6.70822e-05 0)
(-0.00759629 6.06438e-05 0)
(-0.00766523 5.38759e-05 0)
(-0.00772557 4.67856e-05 0)
(-0.00777694 3.9383e-05 0)
(-0.00781898 3.16814e-05 0)
(-0.00785135 2.3697e-05 0)
(-0.00787374 1.54492e-05 0)
(-0.00788587 6.9613e-06 0)
(-0.00788748 -1.7399e-06 0)
(-0.00787833 -1.06295e-05 0)
(-0.00785824 -1.96731e-05 0)
(-0.00782706 -2.88359e-05 0)
(-0.00778469 -3.80805e-05 0)
(-0.00773107 -4.73676e-05 0)
(-0.00766618 -5.66554e-05 0)
(-0.00759006 -6.59009e-05 0)
(-0.00750279 -7.50596e-05 0)
(-0.00740454 -8.40863e-05 0)
(-0.00729547 -9.29355e-05 0)
(-0.00717585 -0.000101562 0)
(-0.00704597 -0.000109921 0)
(-0.00690618 -0.000117969 0)
(-0.00675689 -0.000125665 0)
(-0.00659852 -0.000132969 0)
(-0.00643158 -0.000139845 0)
(-0.0062566 -0.000146259 0)
(-0.00607413 -0.000152181 0)
(-0.00588477 -0.000157586 0)
(-0.00568916 -0.000162451 0)
(-0.00548793 -0.000166758 0)
(-0.00528176 -0.000170495 0)
(-0.00507131 -0.000173654 0)
(-0.00485728 -0.000176229 0)
(-0.00464034 -0.000178222 0)
(-0.00442118 -0.000179635 0)
(-0.00420049 -0.000180477 0)
(-0.00397893 -0.000180758 0)
(-0.00375715 -0.00018049 0)
(-0.0035358 -0.000179689 0)
(-0.00331551 -0.00017837 0)
(-0.00309687 -0.000176549 0)
(-0.00288048 -0.000174242 0)
(-0.00266693 -0.000171461 0)
(-0.00245676 -0.000168218 0)
(-0.00225055 -0.000164519 0)
(-0.00204884 -0.000160369 0)
(-0.00185219 -0.000155765 0)
(-0.00166117 -0.000150698 0)
(-0.00147636 -0.000145155 0)
(-0.00129836 -0.000139114 0)
(-0.00112782 -0.000132548 0)
(-0.000965411 -0.000125425 0)
(-0.000811853 -0.000117705 0)
(-0.000667916 -0.00010935 0)
(-0.000534418 -0.000100318 0)
(-0.000412218 -9.05739e-05 0)
(-0.000302209 -8.00936e-05 0)
(-0.00020529 -6.88727e-05 0)
(-0.000122336 -5.69398e-05 0)
(-5.41398e-05 -4.4376e-05 0)
(-1.33273e-06 -3.13419e-05 0)
(3.57316e-05 -1.81206e-05 0)
(5.71265e-05 -5.19072e-06 0)
(6.3676e-05 6.65614e-06 0)
(5.72282e-05 1.62982e-05 0)
(4.07722e-05 2.19188e-05 0)
(2.07594e-05 2.08585e-05 0)
(2.94767e-06 1.07262e-05 0)
(-3.06364e-06 3.47505e-06 0)
(-3.71414e-05 4.79923e-05 0)
(-0.00011054 0.000108658 0)
(-0.000225894 0.000168329 0)
(-0.000378445 0.000220867 0)
(-0.000563541 0.000264146 0)
(-0.000775429 0.00029817 0)
(-0.00100853 0.000323917 0)
(-0.00125788 0.000342724 0)
(-0.00151926 0.000355954 0)
(-0.00178923 0.000364853 0)
(-0.00206508 0.000370486 0)
(-0.00234475 0.000373725 0)
(-0.00262668 0.000375258 0)
(-0.00290973 0.000375613 0)
(-0.00319309 0.000375184 0)
(-0.00347622 0.000374254 0)
(-0.00375873 0.000373021 0)
(-0.00404038 0.000371615 0)
(-0.00432098 0.000370115 0)
(-0.00460045 0.000368565 0)
(-0.00487868 0.000366982 0)
(-0.00515561 0.000365363 0)
(-0.00543118 0.000363694 0)
(-0.00570529 0.000361952 0)
(-0.00597787 0.000360108 0)
(-0.00624879 0.000358133 0)
(-0.00651793 0.000355991 0)
(-0.00678513 0.000353651 0)
(-0.00705021 0.000351077 0)
(-0.00731297 0.000348235 0)
(-0.00757319 0.00034509 0)
(-0.00783061 0.000341608 0)
(-0.00808497 0.000337754 0)
(-0.00833595 0.000333493 0)
(-0.00858325 0.00032879 0)
(-0.00882651 0.000323609 0)
(-0.00906536 0.000317917 0)
(-0.0092994 0.000311678 0)
(-0.00952822 0.000304859 0)
(-0.00975137 0.000297427 0)
(-0.0099684 0.000289348 0)
(-0.0101788 0.000280593 0)
(-0.0103821 0.000271131 0)
(-0.0105777 0.000260937 0)
(-0.0107652 0.000249986 0)
(-0.0109439 0.000238257 0)
(-0.0111134 0.000225732 0)
(-0.0112729 0.000212398 0)
(-0.011422 0.000198246 0)
(-0.0115601 0.000183271 0)
(-0.0116866 0.000167476 0)
(-0.0118009 0.000150868 0)
(-0.0119024 0.000133461 0)
(-0.0119907 0.000115276 0)
(-0.0120651 9.63411e-05 0)
(-0.0121253 7.66907e-05 0)
(-0.0121706 5.63676e-05 0)
(-0.0122007 3.54221e-05 0)
(-0.0122152 1.39118e-05 0)
(-0.0122137 -8.09856e-06 0)
(-0.012196 -3.0534e-05 0)
(-0.0121617 -5.33176e-05 0)
(-0.0121107 -7.63634e-05 0)
(-0.0120429 -9.95795e-05 0)
(-0.0119582 -0.000122869 0)
(-0.0118566 -0.00014613 0)
(-0.0117383 -0.000169259 0)
(-0.0116033 -0.000192148 0)
(-0.0114519 -0.000214688 0)
(-0.0112845 -0.000236769 0)
(-0.0111013 -0.000258285 0)
(-0.0109029 -0.000279127 0)
(-0.0106898 -0.000299194 0)
(-0.0104625 -0.000318385 0)
(-0.0102218 -0.000336609 0)
(-0.0099684 -0.000353779 0)
(-0.00970301 -0.000369815 0)
(-0.00942648 -0.000384648 0)
(-0.0091397 -0.000398216 0)
(-0.00884356 -0.000410467 0)
(-0.008539 -0.000421362 0)
(-0.00822699 -0.000430868 0)
(-0.00790851 -0.000438967 0)
(-0.00758455 -0.000445648 0)
(-0.00725609 -0.00045091 0)
(-0.00692412 -0.000454763 0)
(-0.00658963 -0.000457224 0)
(-0.00625359 -0.000458315 0)
(-0.00591694 -0.000458067 0)
(-0.00558061 -0.000456511 0)
(-0.00524552 -0.000453682 0)
(-0.00491255 -0.000449616 0)
(-0.00458257 -0.000444343 0)
(-0.00425644 -0.000437892 0)
(-0.00393499 -0.000430284 0)
(-0.00361905 -0.000421532 0)
(-0.00330945 -0.000411635 0)
(-0.00300704 -0.000400582 0)
(-0.00271268 -0.000388347 0)
(-0.00242724 -0.000374887 0)
(-0.00215167 -0.000360147 0)
(-0.00188694 -0.000344052 0)
(-0.00163408 -0.000326518 0)
(-0.00139421 -0.000307448 0)
(-0.0011685 -0.000286744 0)
(-0.000958187 -0.000264311 0)
(-0.000764572 -0.00024007 0)
(-0.000588987 -0.000213978 0)
(-0.000432761 -0.000186048 0)
(-0.000297161 -0.000156383 0)
(-0.000183306 -0.000125225 0)
(-9.2052e-05 -9.3017e-05 0)
(-2.3821e-05 -6.04921e-05 0)
(2.16162e-05 -2.87992e-05 0)
(4.54661e-05 3.44262e-07 0)
(5.02328e-05 2.43385e-05 0)
(3.98073e-05 3.95236e-05 0)
(2.19375e-05 4.09025e-05 0)
(3.30014e-06 2.23148e-05 0)
(-6.58024e-06 2.57617e-05 0)
(-6.54442e-05 0.000117397 0)
(-0.000175981 0.000225446 0)
(-0.000339495 0.000329557 0)
(-0.000547732 0.000421443 0)
(-0.000795213 0.000497967 0)
(-0.00107527 0.000559012 0)
(-0.00138149 0.000605988 0)
(-0.00170811 0.000640951 0)
(-0.00205016 0.000666083 0)
(-0.00240353 0.000683441 0)
(-0.00276488 0.000694823 0)
(-0.00313161 0.000701734 0)
(-0.00350172 0.000705383 0)
(-0.00387369 0.000706717 0)
(-0.00424644 0.000706452 0)
(-0.00461915 0.000705115 0)
(-0.00499127 0.000703079 0)
(-0.00536239 0.000700599 0)
(-0.00573222 0.000697837 0)
(-0.00610055 0.000694887 0)
(-0.00646721 0.000691791 0)
(-0.00683207 0.000688559 0)
(-0.00719498 0.000685172 0)
(-0.0075558 0.000681595 0)
(-0.00791438 0.000677785 0)
(-0.00827054 0.000673687 0)
(-0.00862407 0.000669246 0)
(-0.00897476 0.000664403 0)
(-0.00932236 0.000659097 0)
(-0.00966657 0.000653266 0)
(-0.0100071 0.00064685 0)
(-0.0103436 0.000639785 0)
(-0.0106757 0.000632009 0)
(-0.0110029 0.00062346 0)
(-0.011325 0.000614076 0)
(-0.0116413 0.000603793 0)
(-0.0119515 0.000592551 0)
(-0.012255 0.000580289 0)
(-0.0125512 0.000566945 0)
(-0.0128396 0.000552463 0)
(-0.0131196 0.000536786 0)
(-0.0133906 0.00051986 0)
(-0.0136519 0.000501637 0)
(-0.0139028 0.000482071 0)
(-0.0141427 0.000461122 0)
(-0.0143708 0.000438755 0)
(-0.0145865 0.000414942 0)
(-0.0147891 0.000389664 0)
(-0.0149777 0.000362909 0)
(-0.0151518 0.000334674 0)
(-0.0153106 0.000304968 0)
(-0.0154533 0.000273809 0)
(-0.0155793 0.000241226 0)
(-0.015688 0.000207263 0)
(-0.0157787 0.000171975 0)
(-0.0158508 0.000135428 0)
(-0.0159037 9.77052e-05 0)
(-0.015937 5.89e-05 0)
(-0.0159502 1.91202e-05 0)
(-0.0159428 -2.1514e-05 0)
(-0.0159146 -6.28688e-05 0)
(-0.0158652 -0.000104799 0)
(-0.0157945 -0.00014715 0)
(-0.0157024 -0.000189756 0)
(-0.0155889 -0.000232441 0)
(-0.0154539 -0.000275026 0)
(-0.0152977 -0.000317321 0)
(-0.0151205 -0.000359137 0)
(-0.0149225 -0.00040028 0)
(-0.0147043 -0.000440558 0)
(-0.0144664 -0.000479778 0)
(-0.0142093 -0.000517753 0)
(-0.0139337 -0.000554304 0)
(-0.0136403 -0.000589257 0)
(-0.0133301 -0.000622449 0)
(-0.0130039 -0.00065373 0)
(-0.0126627 -0.000682962 0)
(-0.0123076 -0.000710024 0)
(-0.0119395 -0.000734811 0)
(-0.0115597 -0.000757232 0)
(-0.0111693 -0.000777219 0)
(-0.0107695 -0.000794719 0)
(-0.0103615 -0.000809697 0)
(-0.00994653 -0.000822136 0)
(-0.00952578 -0.000832037 0)
(-0.00910047 -0.000839416 0)
(-0.00867183 -0.0008443 0)
(-0.00824103 -0.00084673 0)
(-0.00780924 -0.000846755 0)
(-0.00737762 -0.00084443 0)
(-0.00694728 -0.000839814 0)
(-0.00651933 -0.000832962 0)
(-0.00609484 -0.000823928 0)
(-0.00567487 -0.000812753 0)
(-0.00526048 -0.000799468 0)
(-0.0048527 -0.000784088 0)
(-0.00445259 -0.000766606 0)
(-0.00406121 -0.000746993 0)
(-0.00367964 -0.000725193 0)
(-0.00330903 -0.000701123 0)
(-0.00295056 -0.000674672 0)
(-0.00260548 -0.000645703 0)
(-0.00227512 -0.000614059 0)
(-0.00196089 -0.000579566 0)
(-0.00166428 -0.000542048 0)
(-0.00138687 -0.00050134 0)
(-0.00113029 -0.000457318 0)
(-0.000896203 -0.000409922 0)
(-0.000686257 -0.000359209 0)
(-0.000501998 -0.000305406 0)
(-0.000344773 -0.000248993 0)
(-0.000215582 -0.000190809 0)
(-0.00011489 -0.00013219 0)
(-4.23837e-05 -7.51539e-05 0)
(3.31862e-06 -2.26432e-05 0)
(2.50226e-05 2.1163e-05 0)
(2.70037e-05 5.05821e-05 0)
(1.7193e-05 5.80505e-05 0)
(2.76339e-06 3.34791e-05 0)
(-9.7823e-06 6.14675e-05 0)
(-9.20526e-05 0.000217765 0)
(-0.000238259 0.000384393 0)
(-0.000447863 0.000540852 0)
(-0.000708572 0.000678223 0)
(-0.00101376 0.000793091 0)
(-0.00135579 0.000885522 0)
(-0.00172759 0.000957467 0)
(-0.00212283 0.00101174 0)
(-0.00253605 0.00105139 0)
(-0.00296268 0.00107931 0)
(-0.00339898 0.00109808 0)
(-0.00384196 0.00110989 0)
(-0.00428929 0.00111654 0)
(-0.00473917 0.00111944 0)
(-0.00519027 0.00111968 0)
(-0.00564157 0.00111807 0)
(-0.00609233 0.00111521 0)
(-0.00654201 0.0011115 0)
(-0.00699019 0.0011072 0)
(-0.00743655 0.00110248 0)
(-0.00788084 0.00109742 0)
(-0.00832284 0.00109204 0)
(-0.00876233 0.00108634 0)
(-0.00919909 0.00108026 0)
(-0.0096329 0.00107375 0)
(-0.0100635 0.00106673 0)
(-0.0104907 0.00105912 0)
(-0.0109141 0.00105083 0)
(-0.0113333 0.00104177 0)
(-0.0117482 0.00103185 0)
(-0.0121582 0.00102098 0)
(-0.0125629 0.00100906 0)
(-0.0129619 0.000995991 0)
(-0.0133547 0.00098169 0)
(-0.0137407 0.000966058 0)
(-0.0141194 0.000949001 0)
(-0.0144902 0.000930427 0)
(-0.0148524 0.000910243 0)
(-0.0152055 0.000888362 0)
(-0.0155487 0.000864698 0)
(-0.0158813 0.000839167 0)
(-0.0162026 0.000811693 0)
(-0.0165118 0.000782203 0)
(-0.0168081 0.000750635 0)
(-0.0170908 0.00071693 0)
(-0.0173589 0.000681043 0)
(-0.0176118 0.000642937 0)
(-0.0178485 0.000602589 0)
(-0.0180683 0.000559986 0)
(-0.0182702 0.000515132 0)
(-0.0184536 0.000468047 0)
(-0.0186176 0.000418767 0)
(-0.0187613 0.000367344 0)
(-0.0188842 0.00031385 0)
(-0.0189855 0.000258377 0)
(-0.0190645 0.000201034 0)
(-0.0191206 0.000141952 0)
(-0.0191532 8.1281e-05 0)
(-0.019162 1.91899e-05 0)
(-0.0191464 -4.41324e-05 0)
(-0.0191061 -0.00010848 0)
(-0.0190408 -0.000173628 0)
(-0.0189505 -0.000239337 0)
(-0.0188349 -0.000305354 0)
(-0.0186942 -0.000371413 0)
(-0.0185284 -0.000437238 0)
(-0.0183377 -0.000502547 0)
(-0.0181225 -0.00056705 0)
(-0.0178832 -0.000630458 0)
(-0.0176203 -0.000692481 0)
(-0.0173345 -0.000752833 0)
(-0.0170264 -0.000811235 0)
(-0.0166968 -0.000867419 0)
(-0.0163468 -0.000921129 0)
(-0.0159772 -0.000972123 0)
(-0.0155892 -0.00102018 0)
(-0.0151838 -0.0010651 0)
(-0.0147623 -0.0011067 0)
(-0.0143259 -0.00114483 0)
(-0.0138759 -0.00117936 0)
(-0.0134137 -0.00121018 0)
(-0.0129406 -0.00123723 0)
(-0.012458 -0.00126045 0)
(-0.0119673 -0.00127982 0)
(-0.0114699 -0.00129534 0)
(-0.0109672 -0.00130704 0)
(-0.0104605 -0.00131496 0)
(-0.00995124 -0.00131916 0)
(-0.0094407 -0.0013197 0)
(-0.0089302 -0.00131668 0)
(-0.00842103 -0.00131017 0)
(-0.00791444 -0.00130025 0)
(-0.00741167 -0.001287 0)
(-0.00691394 -0.00127047 0)
(-0.00642246 -0.0012507 0)
(-0.00593841 -0.0012277 0)
(-0.00546303 -0.00120145 0)
(-0.00499755 -0.00117191 0)
(-0.00454322 -0.00113897 0)
(-0.00410139 -0.0011025 0)
(-0.00367342 -0.00106232 0)
(-0.00326078 -0.00101822 0)
(-0.00286501 -0.000969959 0)
(-0.00248776 -0.000917269 0)
(-0.00213075 -0.000859887 0)
(-0.00179581 -0.000797578 0)
(-0.00148482 -0.000730166 0)
(-0.00119967 -0.000657594 0)
(-0.000942244 -0.000579983 0)
(-0.000714271 -0.000497723 0)
(-0.000517256 -0.00041159 0)
(-0.000352303 -0.000322887 0)
(-0.000219926 -0.000233633 0)
(-0.000119811 -0.000146792 0)
(-5.05447e-05 -6.65578e-05 0)
(-9.27214e-06 1.3182e-06 0)
(8.30027e-06 4.91546e-05 0)
(9.59135e-06 6.70256e-05 0)
(1.90068e-06 4.15003e-05 0)
(-1.25834e-05 0.000109294 0)
(-0.000115907 0.000347035 0)
(-0.000294975 0.000583426 0)
(-0.000547344 0.000799874 0)
(-0.00085665 0.000988221 0)
(-0.00121487 0.00114564 0)
(-0.00161329 0.00127285 0)
(-0.00204417 0.0013726 0)
(-0.00250068 0.00144857 0)
(-0.00297703 0.00150472 0)
(-0.00346832 0.00154482 0)
(-0.00397054 0.00157229 0)
(-0.00448044 0.00159002 0)
(-0.00499546 0.00160041 0)
(-0.00551361 0.00160539 0)
(-0.00603333 0.00160645 0)
(-0.00655345 0.00160472 0)
(-0.0070731 0.00160102 0)
(-0.00759158 0.00159594 0)
(-0.00810838 0.00158985 0)
(-0.00862307 0.00158301 0)
(-0.00913531 0.00157555 0)
(-0.00964479 0.00156751 0)
(-0.0101512 0.0015589 0)
(-0.0106543 0.00154966 0)
(-0.0111537 0.00153971 0)
(-0.0116492 0.00152896 0)
(-0.0121404 0.0015173 0)
(-0.0126269 0.00150461 0)
(-0.0131083 0.00149077 0)
(-0.0135842 0.00147565 0)
(-0.0140541 0.00145913 0)
(-0.0145176 0.00144108 0)
(-0.014974 0.00142136 0)
(-0.0154228 0.00139986 0)
(-0.0158634 0.00137643 0)
(-0.0162951 0.00135096 0)
(-0.0167173 0.00132331 0)
(-0.0171292 0.00129336 0)
(-0.01753 0.00126099 0)
(-0.017919 0.00122609 0)
(-0.0182955 0.00118855 0)
(-0.0186584 0.00114826 0)
(-0.019007 0.00110513 0)
(-0.0193404 0.00105908 0)
(-0.0196578 0.00101003 0)
(-0.0199581 0.000957937 0)
(-0.0202405 0.000902749 0)
(-0.0205041 0.000844444 0)
(-0.0207479 0.000783016 0)
(-0.0209711 0.000718478 0)
(-0.0211727 0.000650867 0)
(-0.021352 0.000580243 0)
(-0.021508 0.000506688 0)
(-0.02164 0.000430313 0)
(-0.0217473 0.000351252 0)
(-0.0218291 0.000269667 0)
(-0.0218848 0.000185749 0)
(-0.0219139 9.97112e-05 0)
(-0.0219158 1.17973e-05 0)
(-0.0218901 -7.7726e-05 0)
(-0.0218365 -0.000168567 0)
(-0.0217548 -0.000260411 0)
(-0.0216448 -0.000352925 0)
(-0.0215065 -0.000445754 0)
(-0.02134 -0.000538531 0)
(-0.0211455 -0.000630875 0)
(-0.0209232 -0.000722395 0)
(-0.0206735 -0.000812696 0)
(-0.0203969 -0.00090138 0)
(-0.0200942 -0.000988054 0)
(-0.0197659 -0.00107233 0)
(-0.019413 -0.00115382 0)
(-0.0190364 -0.00123217 0)
(-0.0186371 -0.00130704 0)
(-0.0182163 -0.00137809 0)
(-0.017775 -0.00144503 0)
(-0.0173147 -0.0015076 0)
(-0.0168366 -0.00156554 0)
(-0.0163421 -0.00161866 0)
(-0.0158328 -0.00166679 0)
(-0.01531 -0.00170979 0)
(-0.0147752 -0.00174757 0)
(-0.0142301 -0.00178005 0)
(-0.013676 -0.00180723 0)
(-0.0131146 -0.00182909 0)
(-0.0125474 -0.00184569 0)
(-0.0119758 -0.00185706 0)
(-0.0114013 -0.0018633 0)
(-0.0108255 -0.00186451 0)
(-0.0102497 -0.00186079 0)
(-0.00967532 -0.00185224 0)
(-0.00910377 -0.00183899 0)
(-0.00853637 -0.0018211 0)
(-0.00797447 -0.00179867 0)
(-0.00741939 -0.00177173 0)
(-0.00687244 -0.0017403 0)
(-0.00633497 -0.00170432 0)
(-0.00580834 -0.00166373 0)
(-0.00529393 -0.00161838 0)
(-0.00479322 -0.00156807 0)
(-0.00430772 -0.00151256 0)
(-0.00383904 -0.00145154 0)
(-0.00338889 -0.00138467 0)
(-0.00295907 -0.0013116 0)
(-0.00255148 -0.00123196 0)
(-0.00216811 -0.00114545 0)
(-0.00181101 -0.00105186 0)
(-0.00148224 -0.000951119 0)
(-0.00118381 -0.000843448 0)
(-0.000917601 -0.000729425 0)
(-0.000685214 -0.000610153 0)
(-0.000487841 -0.00048744 0)
(-0.000326057 -0.000364019 0)
(-0.00019961 -0.000243815 0)
(-0.000107169 -0.00013225 0)
(-4.60538e-05 -3.65958e-05 0)
(-1.21096e-05 3.36209e-05 0)
(1.21832e-06 6.63807e-05 0)
(9.52868e-07 4.5641e-05 0)
(-1.49939e-05 0.000167751 0)
(-0.000136849 0.000502298 0)
(-0.000345475 0.000819078 0)
(-0.000636689 0.00110273 0)
(-0.000990319 0.00134702 0)
(-0.00139684 0.00155054 0)
(-0.00184638 0.0017152 0)
(-0.00233046 0.00184484 0)
(-0.00284181 0.00194422 0)
(-0.00337431 0.00201829 0)
(-0.00392283 0.00207177 0)
(-0.00448316 0.00210888 0)
(-0.00505189 0.00213328 0)
(-0.0056263 0.002148 0)
(-0.00620423 0.00215546 0)
(-0.00678402 0.00215759 0)
(-0.00736435 0.00215584 0)
(-0.00794423 0.00215128 0)
(-0.00852286 0.00214469 0)
(-0.00909962 0.00213658 0)
(-0.009674 0.00212729 0)
(-0.0102456 0.00211701 0)
(-0.0108139 0.00210582 0)
(-0.0113787 0.00209372 0)
(-0.0119395 0.00208067 0)
(-0.012496 0.00206657 0)
(-0.0130478 0.0020513 0)
(-0.0135946 0.00203473 0)
(-0.0141357 0.00201671 0)
(-0.0146709 0.00199709 0)
(-0.0151995 0.00197569 0)
(-0.015721 0.00195237 0)
(-0.0162349 0.00192696 0)
(-0.0167405 0.00189928 0)
(-0.0172372 0.00186917 0)
(-0.0177243 0.00183647 0)
(-0.018201 0.00180101 0)
(-0.0186666 0.00176263 0)
(-0.0191202 0.00172117 0)
(-0.0195611 0.00167648 0)
(-0.0199884 0.00162842 0)
(-0.0204011 0.00157685 0)
(-0.0207984 0.00152164 0)
(-0.0211794 0.00146268 0)
(-0.0215429 0.00139987 0)
(-0.0218882 0.00133312 0)
(-0.0222142 0.00126237 0)
(-0.0225199 0.00118758 0)
(-0.0228043 0.00110872 0)
(-0.0230665 0.0010258 0)
(-0.0233055 0.000938843 0)
(-0.0235204 0.000847916 0)
(-0.0237102 0.000753106 0)
(-0.0238741 0.000654534 0)
(-0.0240113 0.000552353 0)
(-0.024121 0.000446752 0)
(-0.0242025 0.000337954 0)
(-0.0242551 0.000226215 0)
(-0.0242783 0.000111826 0)
(-0.0242716 -4.89054e-06 0)
(-0.0242345 -0.000123577 0)
(-0.0241669 -0.000243849 0)
(-0.0240684 -0.000365292 0)
(-0.0239391 -0.000487466 0)
(-0.0237788 -0.00060991 0)
(-0.0235878 -0.000732144 0)
(-0.0233663 -0.000853674 0)
(-0.0231147 -0.000973994 0)
(-0.0228334 -0.00109259 0)
(-0.022523 -0.00120896 0)
(-0.0221843 -0.00132259 0)
(-0.0218182 -0.00143298 0)
(-0.0214254 -0.00153965 0)
(-0.0210072 -0.00164214 0)
(-0.0205646 -0.00174 0)
(-0.0200989 -0.00183283 0)
(-0.0196113 -0.00192025 0)
(-0.0191034 -0.00200192 0)
(-0.0185765 -0.00207755 0)
(-0.0180321 -0.00214686 0)
(-0.0174719 -0.00220966 0)
(-0.0168974 -0.00226579 0)
(-0.0163103 -0.00231511 0)
(-0.0157121 -0.00235756 0)
(-0.0151046 -0.0023931 0)
(-0.0144893 -0.00242176 0)
(-0.0138679 -0.00244357 0)
(-0.013242 -0.00245862 0)
(-0.0126132 -0.00246702 0)
(-0.011983 -0.00246888 0)
(-0.011353 -0.00246435 0)
(-0.0107246 -0.00245356 0)
(-0.0100994 -0.00243665 0)
(-0.00947871 -0.00241373 0)
(-0.00886399 -0.00238489 0)
(-0.00825666 -0.00235017 0)
(-0.00765811 -0.00230958 0)
(-0.00706977 -0.00226307 0)
(-0.00649308 -0.0022105 0)
(-0.00592953 -0.0021517 0)
(-0.00538068 -0.00208641 0)
(-0.00484813 -0.00201429 0)
(-0.0043336 -0.00193495 0)
(-0.0038389 -0.00184795 0)
(-0.00336594 -0.00175283 0)
(-0.00291672 -0.00164915 0)
(-0.00249333 -0.00153651 0)
(-0.00209794 -0.00141465 0)
(-0.0017327 -0.00128356 0)
(-0.00139972 -0.00114353 0)
(-0.00110095 -0.000995341 0)
(-0.000838076 -0.000840447 0)
(-0.000612363 -0.000681166 0)
(-0.000424468 -0.000520945 0)
(-0.000274239 -0.000364643 0)
(-0.000160513 -0.000218855 0)
(-8.08732e-05 -9.22601e-05 0)
(-3.14419e-05 4.00274e-06 0)
(-6.67928e-06 5.60419e-05 0)
(6.70586e-08 4.58453e-05 0)
(-1.70603e-05 0.000235424 0)
(-0.000155069 0.000680557 0)
(-0.000389907 0.00108757 0)
(-0.000715902 0.00144522 0)
(-0.00110947 0.00175006 0)
(-0.00155958 0.00200282 0)
(-0.0020552 0.00220713 0)
(-0.00258707 0.0023683 0)
(-0.00314746 0.00249233 0)
(-0.00372992 0.00258532 0)
(-0.00432915 0.00265296 0)
(-0.00494078 0.00270038 0)
(-0.00556127 0.00273198 0)
(-0.00618781 0.0027514 0)
(-0.00681813 0.00276163 0)
(-0.00745047 0.00276499 0)
(-0.00808344 0.00276327 0)
(-0.00871592 0.0027578 0)
(-0.00934704 0.00274956 0)
(-0.0099761 0.00273919 0)
(-0.0106025 0.00272714 0)
(-0.0112257 0.00271364 0)
(-0.0118453 0.00269883 0)
(-0.0124609 0.0026827 0)
(-0.0130719 0.00266522 0)
(-0.013678 0.00264628 0)
(-0.0142787 0.00262574 0)
(-0.0148735 0.00260344 0)
(-0.0154619 0.0025792 0)
(-0.0160434 0.00255283 0)
(-0.0166174 0.00252414 0)
(-0.0171833 0.00249291 0)
(-0.0177405 0.00245896 0)
(-0.0182882 0.00242207 0)
(-0.0188257 0.00238204 0)
(-0.0193523 0.00233867 0)
(-0.0198671 0.00229174 0)
(-0.0203694 0.00224108 0)
(-0.0208582 0.00218649 0)
(-0.0213327 0.00212777 0)
(-0.0217918 0.00206477 0)
(-0.0222347 0.00199731 0)
(-0.0226603 0.00192524 0)
(-0.0230677 0.00184844 0)
(-0.0234557 0.00176679 0)
(-0.0238235 0.00168019 0)
(-0.0241699 0.00158857 0)
(-0.0244938 0.0014919 0)
(-0.0247943 0.00139015 0)
(-0.0250704 0.00128336 0)
(-0.025321 0.00117156 0)
(-0.0255451 0.00105484 0)
(-0.0257419 0.000933338 0)
(-0.0259104 0.000807213 0)
(-0.0260497 0.000676672 0)
(-0.0261592 0.000541962 0)
(-0.026238 0.000403375 0)
(-0.0262856 0.000261241 0)
(-0.0263014 0.000115936 0)
(-0.0262849 -3.21282e-05 0)
(-0.0262357 -0.000182498 0)
(-0.0261536 -0.000334686 0)
(-0.0260384 -0.00048817 0)
(-0.0258901 -0.000642397 0)
(-0.0257087 -0.000796791 0)
(-0.0254944 -0.000950753 0)
(-0.0252477 -0.00110367 0)
(-0.0249687 -0.0012549 0)
(-0.0246583 -0.00140384 0)
(-0.024317 -0.00154983 0)
(-0.0239457 -0.00169226 0)
(-0.0235452 -0.00183052 0)
(-0.0231167 -0.00196401 0)
(-0.0226612 -0.00209217 0)
(-0.0221801 -0.00221446 0)
(-0.0216746 -0.00233038 0)
(-0.0211462 -0.00243947 0)
(-0.0205964 -0.00254134 0)
(-0.0200268 -0.00263561 0)
(-0.019439 -0.00272197 0)
(-0.0188347 -0.00280019 0)
(-0.0182155 -0.00287006 0)
(-0.0175832 -0.00293144 0)
(-0.0169396 -0.00298426 0)
(-0.0162863 -0.00302849 0)
(-0.0156252 -0.00306414 0)
(-0.0149579 -0.00309129 0)
(-0.0142861 -0.00311003 0)
(-0.0136116 -0.0031205 0)
(-0.0129359 -0.00312286 0)
(-0.0122606 -0.00311728 0)
(-0.0115873 -0.00310393 0)
(-0.0109176 -0.00308296 0)
(-0.0102529 -0.00305453 0)
(-0.0095947 -0.00301873 0)
(-0.00894451 -0.00297562 0)
(-0.00830377 -0.0029252 0)
(-0.00767397 -0.00286738 0)
(-0.00705659 -0.00280202 0)
(-0.00645319 -0.00272888 0)
(-0.00586537 -0.00264762 0)
(-0.00529481 -0.00255784 0)
(-0.00474328 -0.00245905 0)
(-0.00421263 -0.00235072 0)
(-0.00370484 -0.00223226 0)
(-0.00322198 -0.00210315 0)
(-0.00276619 -0.00196293 0)
(-0.00233968 -0.0018113 0)
(-0.00194467 -0.00164825 0)
(-0.00158332 -0.00147419 0)
(-0.00125762 -0.00129011 0)
(-0.000969317 -0.0010978 0)
(-0.00071974 -0.000900077 0)
(-0.000509634 -0.000701084 0)
(-0.000338983 -0.000506562 0)
(-0.000206821 -0.0003242 0)
(-0.000111034 -0.00016396 0)
(-4.80827e-05 -3.84218e-05 0)
(-1.34212e-05 3.69254e-05 0)
(-6.94704e-07 4.25753e-05 0)
(-1.88338e-05 0.000311057 0)
(-0.000170866 0.000878978 0)
(-0.000428755 0.00138519 0)
(-0.000785591 0.00182313 0)
(-0.00121479 0.0021928 0)
(-0.00170394 0.00249768 0)
(-0.00224084 0.00274358 0)
(-0.00281548 0.00293758 0)
(-0.00341962 0.0030872 0)
(-0.00404653 0.00319979 0)
(-0.00469069 0.00328213 0)
(-0.00534761 0.00334027 0)
(-0.00601368 0.00337938 0)
(-0.00668598 0.00340375 0)
(-0.00736221 0.00341689 0)
(-0.00804053 0.00342155 0)
(-0.00871946 0.00341986 0)
(-0.00939785 0.00341341 0)
(-0.0100748 0.00340336 0)
(-0.0107494 0.0033905 0)
(-0.0114211 0.00337537 0)
(-0.0120893 0.00335828 0)
(-0.0127535 0.00333939 0)
(-0.0134131 0.00331872 0)
(-0.0140677 0.00329624 0)
(-0.0147167 0.00327181 0)
(-0.0153598 0.00324529 0)
(-0.0159962 0.00321649 0)
(-0.0166254 0.00318519 0)
(-0.0172469 0.00315117 0)
(-0.01786 0.00311421 0)
(-0.0184641 0.00307405 0)
(-0.0190583 0.00303046 0)
(-0.0196421 0.00298319 0)
(-0.0202145 0.00293201 0)
(-0.0207747 0.00287666 0)
(-0.021322 0.00281691 0)
(-0.0218553 0.00275253 0)
(-0.0223737 0.0026833 0)
(-0.0228763 0.00260899 0)
(-0.0233621 0.0025294 0)
(-0.0238301 0.00244435 0)
(-0.0242791 0.00235367 0)
(-0.0247081 0.0022572 0)
(-0.0251161 0.00215482 0)
(-0.025502 0.00204643 0)
(-0.0258646 0.00193196 0)
(-0.0262029 0.00181136 0)
(-0.0265158 0.00168465 0)
(-0.0268023 0.00155185 0)
(-0.0270613 0.00141304 0)
(-0.0272917 0.00126834 0)
(-0.0274928 0.00111794 0)
(-0.0276634 0.000962026 0)
(-0.0278029 0.000800881 0)
(-0.0279103 0.000634815 0)
(-0.027985 0.000464193 0)
(-0.0280263 0.000289429 0)
(-0.0280338 0.000110987 0)
(-0.0280068 -7.06226e-05 0)
(-0.0279452 -0.000254843 0)
(-0.0278487 -0.000441078 0)
(-0.0277171 -0.000628688 0)
(-0.0275505 -0.000817005 0)
(-0.0273489 -0.00100533 0)
(-0.0271126 -0.00119293 0)
(-0.0268421 -0.00137907 0)
(-0.0265378 -0.001563 0)
(-0.0262003 -0.00174396 0)
(-0.0258305 -0.00192118 0)
(-0.0254292 -0.00209393 0)
(-0.0249974 -0.00226147 0)
(-0.0245364 -0.0024231 0)
(-0.0240472 -0.00257815 0)
(-0.0235313 -0.00272599 0)
(-0.0229901 -0.00286601 0)
(-0.0224252 -0.00299769 0)
(-0.0218381 -0.00312055 0)
(-0.0212305 -0.00323416 0)
(-0.0206043 -0.00333817 0)
(-0.019961 -0.00343228 0)
(-0.0193026 -0.00351628 0)
(-0.0186308 -0.00359001 0)
(-0.0179476 -0.00365339 0)
(-0.0172547 -0.00370638 0)
(-0.0165539 -0.00374903 0)
(-0.0158471 -0.00378142 0)
(-0.0151361 -0.00380368 0)
(-0.0144226 -0.00381598 0)
(-0.0137083 -0.00381852 0)
(-0.0129948 -0.0038115 0)
(-0.0122839 -0.00379513 0)
(-0.011577 -0.0037696 0)
(-0.0108758 -0.00373509 0)