/*--------------------------------*- C++ -*----------------------------------*\
| =========                 |                                                 |
| \\      /  F ield         | OpenFOAM: The Open Source CFD Toolbox           |
|  \\    /   O peration     | Version:  2406                                  |
|   \\  /    A nd           | Website:  www.openfoam.com                      |
|    \\/     M anipulation  |                                                 |
\*---------------------------------------------------------------------------*/
FoamFile
{
    version     2.0;
    format      ascii;
    arch        "LSB;label=32;scalar=64";
    class       volVectorField;
    location    "29.9";
    object      Uold;
}
// * * * * * * * * * * * * * * * * * * * * * * * * * * * * * * * * * * * * * //

dimensions      [0 1 -1 0 0 0 0];

internalField   nonuniform List<vector> 
14400
(
(-1.39061e-05 1.38438e-05 0)
(5.63977e-06 -1.21032e-05 0)
(0.000104953 -3.85607e-05 0)
(0.000267974 -6.11344e-05 0)
(0.000484648 -7.39227e-05 0)
(0.000726522 -8.07478e-05 0)
(0.000982483 -8.10662e-05 0)
(0.00123196 -7.74984e-05 0)
(0.00146768 -7.0415e-05 0)
(0.00167809 -6.15947e-05 0)
(0.00186072 -5.1671e-05 0)
(0.0020117 -4.18418e-05 0)
(0.00213283 -3.26185e-05 0)
(0.00222545 -2.46513e-05 0)
(0.0022939 -1.81327e-05 0)
(0.0023419 -1.32214e-05 0)
(0.00237415 -9.77652e-06 0)
(0.00239422 -7.59274e-06 0)
(0.0024053 -6.29843e-06 0)
(0.0024091 -5.49829e-06 0)
(0.00240627 -4.74749e-06 0)
(0.002396 -3.64083e-06 0)
(0.00237637 -1.81046e-06 0)
(0.00234432 1.02941e-06 0)
(0.00229604 5.09327e-06 0)
(0.00222706 1.05194e-05 0)
(0.00213253 1.73956e-05 0)
(0.0020073 2.57758e-05 0)
(0.00184607 3.57049e-05 0)
(0.00164333 4.7231e-05 0)
(0.00139345 6.0414e-05 0)
(0.00109064 7.53211e-05 0)
(0.000728992 9.20198e-05 0)
(0.000302493 0.000110564 0)
(-0.000194842 0.000130983 0)
(-0.000768865 0.000153267 0)
(-0.00142513 0.000177362 0)
(-0.00216872 0.000203157 0)
(-0.003004 0.000230484 0)
(-0.00393448 0.00025911 0)
(-0.00496253 0.000288736 0)
(-0.00608919 0.000319 0)
(-0.00731396 0.000349473 0)
(-0.00863464 0.000379668 0)
(-0.0100471 0.000409043 0)
(-0.0115454 0.00043701 0)
(-0.0131211 0.000462946 0)
(-0.0147642 0.000486201 0)
(-0.016462 0.00050611 0)
(-0.0182002 0.000522004 0)
(-0.0199623 0.000533222 0)
(-0.0217299 0.000539121 0)
(-0.0234831 0.000539084 0)
(-0.0252003 0.000532533 0)
(-0.0268589 0.000518935 0)
(-0.0284352 0.000497816 0)
(-0.0299048 0.000468773 0)
(-0.031243 0.000431485 0)
(-0.0324251 0.000385736 0)
(-0.0334265 0.000331434 0)
(-0.0342237 0.00026863 0)
(-0.0347944 0.00019755 0)
(-0.0351179 0.000118618 0)
(-0.0351758 3.24805e-05 0)
(-0.0349526 -5.99663e-05 0)
(-0.0344362 -0.00015756 0)
(-0.0336183 -0.000258863 0)
(-0.0324956 -0.000362158 0)
(-0.0310696 -0.000465466 0)
(-0.0293477 -0.000566578 0)
(-0.027343 -0.000663097 0)
(-0.0250751 -0.000752515 0)
(-0.02257 -0.000832291 0)
(-0.0198596 -0.000899962 0)
(-0.0169819 -0.000953255 0)
(-0.01398 -0.00099021 0)
(-0.0109011 -0.0010093 0)
(-0.00779566 -0.00100954 0)
(-0.00471582 -0.000990589 0)
(-0.00171383 -0.00095278 0)
(0.00115956 -0.000897174 0)
(0.00385687 -0.000825514 0)
(0.00633546 -0.00074017 0)
(0.00855904 -0.000644018 0)
(0.0104989 -0.0005403 0)
(0.0121347 -0.000432447 0)
(0.0134552 -0.000323896 0)
(0.014458 -0.000217914 0)
(0.0151495 -0.00011743 0)
(0.015544 -2.49153e-05 0)
(0.0156627 5.77121e-05 0)
(0.0155325 0.000129126 0)
(0.0151842 0.000188596 0)
(0.0146513 0.000235947 0)
(0.0139684 0.000271497 0)
(0.0131697 0.000295963 0)
(0.012288 0.000310375 0)
(0.0113534 0.000315962 0)
(0.0103931 0.000314078 0)
(0.0094302 0.000306098 0)
(0.00848426 0.000293377 0)
(0.00757081 0.000277162 0)
(0.0067015 0.000258605 0)
(0.00588478 0.000238673 0)
(0.00512564 0.00021824 0)
(0.00442691 0.000197953 0)
(0.00378845 0.000178439 0)
(0.00320929 0.000160047 0)
(0.00268567 0.000143225 0)
(0.00221467 0.000127994 0)
(0.00179042 0.000114643 0)
(0.00141031 0.000102665 0)
(0.0010684 9.21044e-05 0)
(0.000765755 8.14704e-05 0)
(0.000499431 7.05319e-05 0)
(0.000278222 5.62445e-05 0)
(0.000105362 3.89953e-05 0)
(-3.16116e-06 1.49923e-05 0)
(-4.30044e-05 -7.74161e-06 0)
(-2.23096e-05 -2.18858e-05 0)
(1.1216e-05 -5.1529e-06 0)
(0.000140959 -0.000143148 0)
(0.000433261 -0.000276504 0)
(0.000848286 -0.000390339 0)
(0.00137221 -0.000462583 0)
(0.00195119 -0.000502028 0)
(0.00255997 -0.000507589 0)
(0.00315641 -0.000488483 0)
(0.00372067 -0.000448671 0)
(0.00422757 -0.000396066 0)
(0.00466787 -0.000335602 0)
(0.00503203 -0.00027327 0)
(0.00532089 -0.000212877 0)
(0.00553605 -0.000157895 0)
(0.00568468 -0.000110016 0)
(0.00577368 -7.01147e-05 0)
(0.00581156 -3.77192e-05 0)
(0.00580497 -1.16218e-05 0)
(0.00575934 1.01997e-05 0)
(0.00567706 3.01236e-05 0)
(0.00555791 5.07707e-05 0)
(0.00539832 7.46661e-05 0)
(0.005192 0.000104114 0)
(0.00492996 0.000141019 0)
(0.0046012 0.000186864 0)
(0.00419304 0.00024271 0)
(0.00369173 0.000309279 0)
(0.0030827 0.000387047 0)
(0.00235094 0.00047635 0)
(0.00148115 0.000577443 0)
(0.000457919 0.000690531 0)
(-0.0007341 0.000815745 0)
(-0.00210997 0.000953095 0)
(-0.00368417 0.00110239 0)
(-0.00547021 0.00126319 0)
(-0.00748017 0.00143469 0)
(-0.00972419 0.00161573 0)
(-0.0122099 0.00180471 0)
(-0.0149418 0.00199961 0)
(-0.0179209 0.00219795 0)
(-0.0211438 0.00239686 0)
(-0.0246029 0.00259306 0)
(-0.0282854 0.00278294 0)
(-0.0321734 0.00296261 0)
(-0.0362438 0.003128 0)
(-0.0404684 0.00327496 0)
(-0.0448138 0.0033993 0)
(-0.0492422 0.00349695 0)
(-0.0537114 0.00356402 0)
(-0.0581759 0.00359691 0)
(-0.0625871 0.00359234 0)
(-0.0668941 0.00354749 0)
(-0.0710449 0.00345997 0)
(-0.0749866 0.00332794 0)
(-0.0786665 0.0031501 0)
(-0.0820328 0.00292577 0)
(-0.0850353 0.00265485 0)
(-0.0876262 0.00233793 0)
(-0.0897606 0.00197626 0)
(-0.0913971 0.00157182 0)
(-0.0924987 0.00112734 0)
(-0.0930332 0.000646357 0)
(-0.0929737 0.000133252 0)
(-0.0922995 -0.000406719 0)
(-0.0909964 -0.000967394 0)
(-0.0890573 -0.0015417 0)
(-0.0864831 -0.00212166 0)
(-0.0832825 -0.00269845 0)
(-0.0794733 -0.00326249 0)
(-0.075082 -0.00380359 0)
(-0.0701446 -0.00431112 0)
(-0.0647062 -0.00477427 0)
(-0.0588214 -0.00518239 0)
(-0.0525535 -0.00552529 0)
(-0.0459741 -0.00579366 0)
(-0.0391623 -0.00597949 0)
(-0.0322033 -0.00607647 0)
(-0.0251872 -0.00608037 0)
(-0.018207 -0.00598942 0)
(-0.0113566 -0.00580448 0)
(-0.00472876 -0.00552927 0)
(0.00158737 -0.0051703 0)
(0.00750859 -0.00473678 0)
(0.0129599 -0.00424031 0)
(0.0178768 -0.00369447 0)
(0.0222069 -0.00311426 0)
(0.0259117 -0.00251547 0)
(0.0289673 -0.00191402 0)
(0.0313653 -0.00132523 0)
(0.0331124 -0.000763238 0)
(0.0342299 -0.000240383 0)
(0.0347527 0.000233203 0)
(0.0347272 0.000649912 0)
(0.0342093 0.00100479 0)
(0.0332624 0.00129555 0)
(0.0319538 0.00152238 0)
(0.0303532 0.00168771 0)
(0.0285291 0.00179577 0)
(0.0265472 0.00185227 0)
(0.0244682 0.00186381 0)
(0.0223464 0.00183758 0)
(0.0202288 0.00178081 0)
(0.0181541 0.00170063 0)
(0.0161536 0.00160357 0)
(0.0142501 0.00149567 0)
(0.0124603 0.00138205 0)
(0.0107932 0.00126728 0)
(0.00925387 0.00115475 0)
(0.00784072 0.00104752 0)
(0.00655172 0.00094695 0)
(0.00537892 0.000854386 0)
(0.0043188 0.000768301 0)
(0.00336231 0.000687837 0)
(0.00251201 0.000607128 0)
(0.00176386 0.00052344 0)
(0.00113398 0.000425895 0)
(0.000626132 0.000315207 0)
(0.000267776 0.000181168 0)
(5.62317e-05 5.35571e-05 0)
(-7.83237e-06 -4.29178e-05 0)
(3.58843e-05 -0.000101086 0)
(0.000268557 -0.000433713 0)
(0.00073177 -0.000741963 0)
(0.00134952 -0.000998059 0)
(0.00210686 -0.00116668 0)
(0.00293067 -0.00125703 0)
(0.00378857 -0.0012697 0)
(0.00462452 -0.00122109 0)
(0.00541095 -0.00112231 0)
(0.0061136 -0.000989979 0)
(0.00671814 -0.000836873 0)
(0.00721047 -0.000676395 0)
(0.00758949 -0.000518302 0)
(0.00785562 -0.000370604 0)
(0.00801622 -0.000237787 0)
(0.00807858 -0.000121873 0)
(0.00805184 -2.19466e-05 0)
(0.00794271 6.49786e-05 0)
(0.00775605 0.000143756 0)
(0.00749249 0.000220286 0)
(0.00714889 0.000301033 0)
(0.00671748 0.000392342 0)
(0.00618651 0.000500014 0)
(0.00554043 0.000628934 0)
(0.00476081 0.000782943 0)
(0.00382685 0.000964831 0)
(0.00271623 0.00117649 0)
(0.00140565 0.00141912 0)
(-0.000128615 0.00169342 0)
(-0.00191029 0.00199969 0)
(-0.00396259 0.0023379 0)
(-0.00630783 0.00270759 0)
(-0.00896673 0.00310777 0)
(-0.0119578 0.0035367 0)
(-0.0152966 0.00399176 0)
(-0.0189947 0.00446928 0)
(-0.023059 0.00496447 0)
(-0.0274906 0.0054714 0)
(-0.0322842 0.00598297 0)
(-0.0374274 0.00649102 0)
(-0.0429 0.00698646 0)
(-0.0486742 0.00745946 0)
(-0.0547139 0.00789966 0)
(-0.0609756 0.00829646 0)
(-0.0674086 0.00863931 0)
(-0.073956 0.00891796 0)
(-0.0805556 0.00912282 0)
(-0.0871409 0.00924513 0)
(-0.0936429 0.00927728 0)
(-0.099991 0.00921289 0)
(-0.106114 0.009047 0)
(-0.111943 0.00877612 0)
(-0.117409 0.00839827 0)
(-0.122449 0.00791293 0)
(-0.127001 0.00732105 0)
(-0.131009 0.00662497 0)
(-0.134423 0.0058284 0)
(-0.137197 0.0049363 0)
(-0.13929 0.00395491 0)
(-0.140669 0.00289171 0)
(-0.141307 0.0017554 0)
(-0.141181 0.000555942 0)
(-0.140277 -0.000695447 0)
(-0.138586 -0.00198623 0)
(-0.136107 -0.00330255 0)
(-0.132846 -0.00462922 0)
(-0.128815 -0.00594978 0)
(-0.124035 -0.00724652 0)
(-0.118535 -0.00850071 0)
(-0.112351 -0.00969273 0)
(-0.10553 -0.0108024 0)
(-0.0981238 -0.0118096 0)
(-0.0901954 -0.0126942 0)
(-0.0818153 -0.0134372 0)
(-0.073062 -0.0140212 0)
(-0.0640214 -0.014431 0)
(-0.0547859 -0.0146542 0)
(-0.0454535 -0.0146823 0)
(-0.0361258 -0.0145109 0)
(-0.0269069 -0.0141403 0)
(-0.0179014 -0.013576 0)
(-0.00921186 -0.0128286 0)
(-0.000937137 -0.0119139 0)
(0.00683025 -0.0108526 0)
(0.0140062 -0.00966934 0)
(0.0205174 -0.00839244 0)
(0.0263028 -0.00705258 0)
(0.0313156 -0.00568179 0)
(0.0355246 -0.00431226 0)
(0.0389148 -0.00297513 0)
(0.0414879 -0.00169931 0)
(0.0432621 -0.000510448 0)
(0.0442716 0.000569975 0)
(0.044565 0.00152531 0)
(0.0442038 0.00234418 0)
(0.0432598 0.00302061 0)
(0.0418125 0.00355391 0)
(0.039946 0.00394823 0)
(0.037746 0.00421198 0)
(0.0352966 0.00435693 0)
(0.0326776 0.00439736 0)
(0.0299624 0.00434901 0)
(0.0272159 0.0042283 0)
(0.0244936 0.00405135 0)
(0.0218406 0.00383358 0)
(0.0192926 0.00358889 0)
(0.0168746 0.00332981 0)
(0.0146045 0.00306651 0)
(0.01249 0.00280765 0)
(0.0105366 0.00255847 0)
(0.00874039 0.00232276 0)
(0.00710186 0.00209898 0)
(0.00561289 0.00188476 0)
(0.00427945 0.00166941 0)
(0.0030967 0.0014454 0)
(0.00208661 0.00119364 0)
(0.0012496 0.000912889 0)
(0.00062557 0.000589464 0)
(0.000203707 0.000271899 0)
(1.91267e-05 2.79513e-06 0)
(5.68048e-05 -0.000256752 0)
(0.000378834 -0.00084338 0)
(0.000984789 -0.0013588 0)
(0.00176098 -0.00177169 0)
(0.00269085 -0.00204315 0)
(0.00368479 -0.00218303 0)
(0.00470764 -0.00219526 0)
(0.00569364 -0.00210333 0)
(0.00661146 -0.00192653 0)
(0.00742065 -0.00169079 0)
(0.00810377 -0.00141777 0)
(0.00864306 -0.00112909 0)
(0.00903541 -0.000841222 0)
(0.00927912 -0.000567229 0)
(0.00938012 -0.000314678 0)
(0.009344 -8.67507e-05 0)
(0.0091781 0.000118176 0)
(0.00888669 0.000305381 0)
(0.00847152 0.000483266 0)
(0.00792921 0.000662103 0)
(0.0072517 0.000853108 0)
(0.00642533 0.00106733 0)
(0.00543171 0.00131486 0)
(0.00424796 0.00160422 0)
(0.00284787 0.00194208 0)
(0.00120262 0.00233324 0)
(-0.000718043 0.00278081 0)
(-0.00294511 0.00328653 0)
(-0.00550932 0.00385096 0)
(-0.00844042 0.00447371 0)
(-0.0117663 0.00515332 0)
(-0.0155119 0.00588721 0)
(-0.0196983 0.00667135 0)
(-0.0243415 0.00750003 0)
(-0.0294511 0.00836561 0)
(-0.0350293 0.00925834 0)
(-0.0410693 0.0101664 0)
(-0.0475551 0.0110758 0)
(-0.05446 0.0119708 0)
(-0.0617471 0.0128344 0)
(-0.0693689 0.0136481 0)
(-0.0772681 0.0143932 0)
(-0.0853788 0.0150511 0)
(-0.0936274 0.0156037 0)
(-0.101935 0.0160343 0)
(-0.110218 0.0163279 0)
(-0.118393 0.0164717 0)
(-0.126375 0.0164556 0)
(-0.134081 0.0162721 0)
(-0.141433 0.0159163 0)
(-0.148356 0.0153864 0)
(-0.154784 0.0146828 0)
(-0.160653 0.0138086 0)
(-0.165908 0.0127688 0)
(-0.170502 0.0115703 0)
(-0.174393 0.0102217 0)
(-0.177546 0.00873282 0)
(-0.179931 0.00711501 0)
(-0.181527 0.00538059 0)
(-0.182315 0.00354304 0)
(-0.182282 0.00161694 0)
(-0.181423 -0.000381978 0)
(-0.179732 -0.00243675 0)
(-0.177214 -0.00452908 0)
(-0.173874 -0.00663928 0)
(-0.169725 -0.00874616 0)
(-0.164784 -0.010827 0)
(-0.159073 -0.0128577 0)
(-0.152621 -0.0148127 0)
(-0.145464 -0.0166653 0)
(-0.137643 -0.018388 0)
(-0.129208 -0.019953 0)
(-0.120215 -0.0213326 0)
(-0.11073 -0.0225003 0)
(-0.100825 -0.0234311 0)
(-0.0905793 -0.0241032 0)
(-0.0800809 -0.0244979 0)
(-0.0694229 -0.0246017 0)
(-0.0587042 -0.0244062 0)
(-0.0480272 -0.0239097 0)
(-0.0374968 -0.0231171 0)
(-0.0272181 -0.0220405 0)
(-0.0172945 -0.0206994 0)
(-0.00782561 -0.0191199 0)
(0.00109494 -0.0173346 0)
(0.00938152 -0.0153817 0)
(0.0169584 -0.0133033 0)
(0.0237616 -0.0111448 0)
(0.0297402 -0.00895287 0)
(0.0348576 -0.00677411 0)
(0.0390928 -0.00465357 0)
(0.0424405 -0.00263316 0)
(0.0449118 -0.000750325 0)
(0.0465336 0.000963234 0)
(0.0473485 0.0024825 0)
(0.0474131 0.00378986 0)
(0.0467965 0.00487549 0)
(0.045578 0.00573733 0)
(0.0438442 0.00638073 0)
(0.0416861 0.00681759 0)
(0.0391952 0.00706537 0)
(0.0364611 0.00714564 0)
(0.0335677 0.00708281 0)
(0.0305917 0.00690249 0)
(0.0275996 0.00663047 0)
(0.0246483 0.00629122 0)
(0.0217819 0.00590753 0)
(0.0190362 0.00549893 0)
(0.0164337 0.00508224 0)
(0.0139927 0.00466908 0)
(0.0117188 0.00426777 0)
(0.00962132 0.00387868 0)
(0.00769663 0.00349928 0)
(0.00595702 0.00311559 0)
(0.00439757 0.00271575 0)
(0.00304692 0.00227381 0)
(0.00190074 0.00178454 0)
(0.00101392 0.00122991 0)
(0.000369452 0.000663534 0)
(5.01877e-05 0.00013261 0)
(6.95014e-05 -0.0004652 0)
(0.000456255 -0.00136576 0)
(0.00117122 -0.0021229 0)
(0.00206676 -0.00270814 0)
(0.00312188 -0.00308659 0)
(0.00423073 -0.00327003 0)
(0.00535553 -0.00326855 0)
(0.00642253 -0.00311336 0)
(0.00739842 -0.00283351 0)
(0.00823842 -0.00246506 0)
(0.00892351 -0.00203963 0)
(0.00943331 -0.00158768 0)
(0.00976314 -0.00113299 0)
(0.00990904 -0.000693863 0)
(0.00987475 -0.000280941 0)
(0.00966295 0.000101782 0)
(0.00927752 0.000457186 0)
(0.00871842 0.000793635 0)
(0.00798226 0.00112399 0)
(0.00705963 0.00146386 0)
(0.0059357 0.00183016 0)
(0.00458937 0.00223946 0)
(0.00299444 0.00270678 0)
(0.00112003 0.00324468 0)
(-0.00106792 0.00386279 0)
(-0.00360565 0.00456775 0)
(-0.00653009 0.00536343 0)
(-0.00987773 0.00625124 0)
(-0.0136833 0.00723042 0)
(-0.0179783 0.00829809 0)
(-0.02279 0.0094492 0)
(-0.0281395 0.0106762 0)
(-0.0340401 0.0119689 0)
(-0.0404961 0.0133137 0)
(-0.047501 0.014694 0)
(-0.0550363 0.0160897 0)
(-0.0630709 0.0174777 0)
(-0.0715604 0.0188324 0)
(-0.0804478 0.0201261 0)
(-0.0896639 0.0213305 0)
(-0.0991296 0.0224167 0)
(-0.108757 0.0233572 0)
(-0.118454 0.0241264 0)
(-0.128123 0.0247015 0)
(-0.137669 0.0250634 0)
(-0.146997 0.0251972 0)
(-0.156018 0.0250923 0)
(-0.16465 0.0247427 0)
(-0.172818 0.0241464 0)
(-0.180454 0.0233055 0)
(-0.1875 0.0222253 0)
(-0.193908 0.0209142 0)
(-0.199636 0.0193826 0)
(-0.204649 0.017643 0)
(-0.208921 0.0157092 0)
(-0.212429 0.0135962 0)
(-0.215158 0.0113195 0)
(-0.217093 0.00889563 0)
(-0.218227 0.00634146 0)
(-0.218553 0.00367466 0)
(-0.218067 0.000913663 0)
(-0.216769 -0.00192216 0)
(-0.214658 -0.00481228 0)
(-0.211739 -0.00773477 0)
(-0.208017 -0.0106661 0)
(-0.203501 -0.0135809 0)
(-0.198203 -0.016452 0)
(-0.192139 -0.0192499 0)
(-0.18533 -0.0219437 0)
(-0.177802 -0.0245001 0)
(-0.169586 -0.0268849 0)
(-0.160723 -0.0290628 0)
(-0.151258 -0.0309983 0)
(-0.141246 -0.0326566 0)
(-0.13075 -0.0340048 0)
(-0.119842 -0.0350127 0)
(-0.108601 -0.0356546 0)
(-0.0971157 -0.03591 0)
(-0.0854797 -0.0357654 0)
(-0.0737934 -0.0352149 0)
(-0.0621613 -0.0342614 0)
(-0.0506897 -0.0329167 0)
(-0.0394853 -0.0312024 0)
(-0.0286524 -0.0291489 0)
(-0.0182912 -0.026795 0)
(-0.00849545 -0.024187 0)
(0.000649501 -0.0213774 0)
(0.00906815 -0.018423 0)
(0.0166964 -0.0153836 0)
(0.0234824 -0.0123199 0)
(0.0293879 -0.0092919 0)
(0.0343885 -0.0063569 0)
(0.0384744 -0.00356816 0)
(0.0416505 -0.000973177 0)
(0.0439371 0.00138767 0)
(0.0453691 0.00348233 0)
(0.0459956 0.00528798 0)
(0.0458794 0.00679163 0)
(0.0450943 0.00799028 0)
(0.0437237 0.00889055 0)
(0.0418571 0.00950795 0)
(0.0395876 0.00986545 0)
(0.0370075 0.009992 0)
(0.0342063 0.00992044 0)
(0.0312663 0.00968592 0)
(0.0282623 0.00932358 0)
(0.0252572 0.00886748 0)
(0.0223051 0.00834828 0)
(0.0194457 0.00779308 0)
(0.0167134 0.00722233 0)
(0.0141268 0.00665112 0)
(0.0117075 0.00608415 0)
(0.00945956 0.00552043 0)
(0.00740446 0.00494474 0)
(0.00553934 0.00434129 0)
(0.00390188 0.00367866 0)
(0.00248529 0.00294464 0)
(0.00136288 0.00211528 0)
(0.000515537 0.00123596 0)
(7.59457e-05 0.000346682 0)
(7.86741e-05 -0.000703621 0)
(0.000513525 -0.00195858 0)
(0.00130801 -0.00297628 0)
(0.00228715 -0.00373554 0)
(0.00342361 -0.00421185 0)
(0.00459689 -0.00442227 0)
(0.00576633 -0.0043861 0)
(0.0068516 -0.00414355 0)
(0.00781832 -0.00373461 0)
(0.00861888 -0.00320581 0)
(0.0092337 -0.00259901 0)
(0.00964063 -0.00195331 0)
(0.00983376 -0.00129942 0)
(0.00980676 -0.000660308 0)
(0.00956055 -4.89709e-05 0)
(0.00909377 0.000530634 0)
(0.00840542 0.00108355 0)
(0.00748933 0.00162212 0)
(0.00633513 0.00216449 0)
(0.00492557 0.00273235 0)
(0.00323741 0.00334878 0)
(0.00124093 0.0040361 0)
(-0.00109858 0.00481421 0)
(-0.00382 0.0056993 0)
(-0.00696442 0.00670324 0)
(-0.0105738 0.00783344 0)
(-0.014689 0.00909304 0)
(-0.0193482 0.0104812 0)
(-0.0245848 0.0119934 0)
(-0.0304261 0.0136213 0)
(-0.0368904 0.0153527 0)
(-0.043986 0.0171709 0)
(-0.0517084 0.019055 0)
(-0.0600392 0.0209791 0)
(-0.0689448 0.0229129 0)
(-0.0783761 0.0248221 0)
(-0.0882684 0.0266694 0)
(-0.0985433 0.0284155 0)
(-0.10911 0.0300208 0)
(-0.119869 0.0314466 0)
(-0.130715 0.0326572 0)
(-0.14154 0.0336209 0)
(-0.152239 0.034311 0)
(-0.16271 0.034707 0)
(-0.172858 0.0347948 0)
(-0.1826 0.0345667 0)
(-0.19186 0.0340206 0)
(-0.200577 0.0331601 0)
(-0.208696 0.0319934 0)
(-0.216176 0.0305319 0)
(-0.222983 0.0287904 0)
(-0.229092 0.0267851 0)
(-0.234483 0.0245339 0)
(-0.239142 0.0220552 0)
(-0.243059 0.0193677 0)
(-0.246226 0.0164903 0)
(-0.24864 0.0134417 0)
(-0.250294 0.0102406 0)
(-0.251188 0.00690561 0)
(-0.251316 0.00345579 0)
(-0.250678 -8.93372e-05 0)
(-0.24927 -0.00370937 0)
(-0.247091 -0.00738264 0)
(-0.244139 -0.0110859 0)
(-0.240413 -0.0147937 0)
(-0.235916 -0.0184787 0)
(-0.230649 -0.0221105 0)
(-0.22462 -0.0256563 0)
(-0.217837 -0.0290804 0)
(-0.210317 -0.0323445 0)
(-0.202078 -0.035408 0)
(-0.193148 -0.0382287 0)
(-0.183561 -0.0407633 0)
(-0.173361 -0.0429684 0)
(-0.162599 -0.0448023 0)
(-0.151337 -0.0462259 0)
(-0.139648 -0.0472043 0)
(-0.127612 -0.047709 0)
(-0.115321 -0.0477191 0)
(-0.102871 -0.0472226 0)
(-0.0903687 -0.0462181 0)
(-0.077922 -0.0447156 0)
(-0.0656421 -0.0427363 0)
(-0.0536393 -0.0403131 0)
(-0.0420211 -0.0374895 0)
(-0.0308894 -0.0343185 0)
(-0.0203382 -0.030861 0)
(-0.0104524 -0.0271841 0)
(-0.00130562 -0.0233586 0)
(0.00703997 -0.0194574 0)
(0.0145347 -0.015553 0)
(0.0211415 -0.0117162 0)
(0.026836 -0.00801375 0)
(0.0316072 -0.00450711 0)
(0.0354568 -0.0012509 0)
(0.0384002 0.00170853 0)
(0.0404661 0.00433436 0)
(0.041697 0.00660029 0)
(0.0421478 0.00849138 0)
(0.0418861 0.0100043 0)
(0.0409891 0.0111472 0)
(0.0395423 0.0119387 0)
(0.0376357 0.0124069 0)
(0.0353618 0.0125872 0)
(0.0328103 0.01252 0)
(0.0300675 0.0122487 0)
(0.0272104 0.011817 0)
(0.0243093 0.0112664 0)
(0.0214204 0.0106348 0)
(0.0185947 0.00995278 0)
(0.0158655 0.00924399 0)
(0.0132688 0.00851979 0)
(0.0108192 0.00778275 0)
(0.0085495 0.00701893 0)
(0.0064617 0.0062097 0)
(0.00460446 0.00531951 0)
(0.00297159 0.00432639 0)
(0.00165546 0.00319743 0)
(0.000638381 0.00195752 0)
(9.73703e-05 0.000628871 0)
(8.42887e-05 -0.000968623 0)
(0.00055158 -0.00261142 0)
(0.00139924 -0.00390476 0)
(0.00243006 -0.00483785 0)
(0.00360914 -0.00540018 0)
(0.00480274 -0.00561715 0)
(0.00596653 -0.0055203 0)
(0.00701449 -0.00516062 0)
(0.00791151 -0.0045907 0)
(0.00860813 -0.0038682 0)
(0.00908486 -0.00304565 0)
(0.00931848 -0.00217055 0)
(0.00930211 -0.00128009 0)
(0.00902695 -0.00040099 0)
(0.00849058 0.000452423 0)
(0.00768667 0.00127744 0)
(0.00660801 0.00208248 0)
(0.00524087 0.002885 0)
(0.00356633 0.00370941 0)
(0.00155787 0.00458406 0)
(-0.000817189 0.00553849 0)
(-0.00359771 0.0066006 0)
(-0.00682666 0.00779449 0)
(-0.0105497 0.00913885 0)
(-0.0148128 0.0106462 0)
(-0.0196601 0.0123225 0)
(-0.0251318 0.0141676 0)
(-0.0312615 0.0161752 0)
(-0.0380741 0.0183333 0)
(-0.0455832 0.0206235 0)
(-0.0537888 0.0230217 0)
(-0.0626752 0.0254973 0)
(-0.0722095 0.0280135 0)
(-0.0823406 0.0305279 0)
(-0.0929996 0.0329932 0)
(-0.104101 0.0353591 0)
(-0.115546 0.0375741 0)
(-0.127224 0.0395873 0)
(-0.13902 0.0413511 0)
(-0.150815 0.042823 0)
(-0.162495 0.0439673 0)
(-0.17395 0.0447561 0)
(-0.185083 0.0451702 0)
(-0.195807 0.0451989 0)
(-0.206048 0.0448394 0)
(-0.215745 0.044096 0)
(-0.224852 0.0429788 0)
(-0.233332 0.0415027 0)
(-0.241159 0.0396857 0)
(-0.248313 0.0375483 0)
(-0.254784 0.0351121 0)
(-0.260564 0.032399 0)
(-0.265648 0.0294311 0)
(-0.270034 0.0262295 0)
(-0.273722 0.022815 0)
(-0.276709 0.0192072 0)
(-0.278996 0.0154253 0)
(-0.280579 0.0114877 0)
(-0.281456 0.00741286 0)
(-0.281622 0.00321913 0)
(-0.281072 -0.00107443 0)
(-0.279801 -0.00544776 0)
(-0.2778 -0.00987927 0)
(-0.275063 -0.0143454 0)
(-0.271583 -0.01882 0)
(-0.267352 -0.0232741 0)
(-0.262364 -0.0276754 0)
(-0.256616 -0.0319879 0)
(-0.250107 -0.0361722 0)
(-0.242839 -0.040185 0)
(-0.23482 -0.0439796 0)
(-0.226064 -0.0475067 0)
(-0.216591 -0.0507146 0)
(-0.206431 -0.0535511 0)
(-0.195625 -0.0559643 0)
(-0.184221 -0.0579043 0)
(-0.172281 -0.0593259 0)
(-0.159879 -0.0601898 0)
(-0.1471 -0.0604652 0)
(-0.134039 -0.0601318 0)
(-0.120802 -0.0591815 0)
(-0.1075 -0.0576197 0)
(-0.0942522 -0.0554658 0)
(-0.081177 -0.0527537 0)
(-0.0683927 -0.0495307 0)
(-0.0560129 -0.0458565 0)
(-0.0441438 -0.0418008 0)
(-0.0328818 -0.0374412 0)
(-0.0223113 -0.0328604 0)
(-0.0125042 -0.0281437 0)
(-0.00351893 -0.0233765 0)
(0.00459925 -0.0186421 0)
(0.0118177 -0.0140197 0)
(0.0181159 -0.00958326 0)
(0.0234851 -0.00539954 0)
(0.0279278 -0.00152737 0)
(0.0314581 0.00198378 0)
(0.0341016 0.00509492 0)
(0.035896 0.00777856 0)
(0.0368909 0.0100196 0)
(0.0371474 0.0118157 0)
(0.0367371 0.0131775 0)
(0.0357399 0.0141273 0)
(0.0342425 0.0146981 0)
(0.0323332 0.0149315 0)
(0.0301023 0.0148746 0)
(0.0276338 0.0145782 0)
(0.0250095 0.0140926 0)
(0.022298 0.0134654 0)
(0.0195652 0.0127376 0)
(0.0168584 0.0119421 0)
(0.0142285 0.0110985 0)
(0.0117015 0.0102144 0)
(0.00932332 0.00927917 0)
(0.00710354 0.00827228 0)
(0.00510322 0.00715507 0)
(0.00332036 0.00589377 0)
(0.00186557 0.00444441 0)
(0.000725395 0.0028032 0)
(0.000111826 0.000967161 0)
(8.86952e-05 -0.00124742 0)
(0.000578014 -0.00329644 0)
(0.00145691 -0.00486885 0)
(0.00251017 -0.00596563 0)
(0.0036946 -0.00659324 0)
(0.00486523 -0.00678877 0)
(0.00597382 -0.00659894 0)
(0.00692995 -0.0060877 0)
(0.00769809 -0.00532166 0)
(0.00822796 -0.00437025 0)
(0.00850053 -0.00329667 0)
(0.00849201 -0.00215618 0)
(0.00819443 -0.000991405 0)
(0.00759627 0.00016856 0)
(0.00669096 0.00130961 0)
(0.00546616 0.00243187 0)
(0.00390714 0.00354855 0)
(0.00199126 0.00468345 0)
(-0.000310183 0.00586791 0)
(-0.00303381 0.00713722 0)
(-0.00622196 0.00852693 0)
(-0.00992204 0.0100695 0)
(-0.0141836 0.0117914 0)
(-0.0190563 0.0137116 0)
(-0.0245867 0.0158401 0)
(-0.0308158 0.0181783 0)
(-0.0377759 0.0207184 0)
(-0.0454879 0.023444 0)
(-0.0539586 0.0263304 0)
(-0.0631777 0.0293441 0)
(-0.0731161 0.0324436 0)
(-0.0837247 0.0355794 0)
(-0.0949337 0.0386957 0)
(-0.106654 0.0417311 0)
(-0.118781 0.0446219 0)
(-0.131196 0.0473042 0)
(-0.143774 0.0497171 0)
(-0.156387 0.0518055 0)
(-0.168909 0.0535224 0)
(-0.181226 0.0548306 0)
(-0.193231 0.0557037 0)
(-0.204835 0.0561264 0)
(-0.215961 0.0560932 0)
(-0.226552 0.0556081 0)
(-0.236561 0.0546824 0)
(-0.245957 0.0533334 0)
(-0.254718 0.0515824 0)
(-0.26283 0.0494536 0)
(-0.270288 0.0469723 0)
(-0.277089 0.0441644 0)
(-0.283234 0.0410553 0)
(-0.288726 0.0376692 0)
(-0.293567 0.0340292 0)
(-0.29776 0.0301569 0)
(-0.301308 0.0260726 0)
(-0.304211 0.021795 0)
(-0.306469 0.0173422 0)
(-0.308081 0.0127312 0)
(-0.309042 0.00797894 0)
(-0.309347 0.00310244 0)
(-0.30899 -0.00188067 0)
(-0.307962 -0.00695159 0)
(-0.306254 -0.0120898 0)
(-0.303853 -0.0172724 0)
(-0.300748 -0.0224736 0)
(-0.296925 -0.0276644 0)
(-0.292372 -0.0328116 0)
(-0.287075 -0.0378777 0)
(-0.281023 -0.0428207 0)
(-0.274206 -0.0475938 0)
(-0.266619 -0.0521456 0)
(-0.258261 -0.0564203 0)
(-0.249136 -0.0603591 0)
(-0.239258 -0.0639004 0)
(-0.228649 -0.0669819 0)
(-0.217343 -0.0695424 0)
(-0.205387 -0.0715239 0)
(-0.192842 -0.0728744 0)
(-0.179781 -0.0735502 0)
(-0.166293 -0.0735189 0)
(-0.152483 -0.072762 0)
(-0.138462 -0.0712763 0)
(-0.124357 -0.0690761 0)
(-0.110295 -0.066193 0)
(-0.0964098 -0.062676 0)
(-0.0828311 -0.0585897 0)
(-0.0696828 -0.0540125 0)
(-0.0570792 -0.049033 0)
(-0.0451213 -0.0437472 0)
(-0.0338956 -0.0382544 0)
(-0.0234724 -0.0326543 0)
(-0.0139061 -0.027044 0)
(-0.00523629 -0.0215159 0)
(0.00251123 -0.0161556 0)
(0.00932256 -0.0110412 0)
(0.0151946 -0.00624209 0)
(0.0201342 -0.00181812 0)
(0.0241574 0.00218093 0)
(0.0272902 0.00571653 0)
(0.0295684 0.00876229 0)
(0.0310384 0.0113048 0)
(0.031757 0.0133443 0)
(0.0317907 0.0148944 0)
(0.0312152 0.0159817 0)
(0.0301116 0.0166442 0)
(0.0285666 0.0169287 0)
(0.0266653 0.0168884 0)
(0.0244942 0.0165792 0)
(0.02213 0.0160561 0)
(0.0196493 0.015369 0)
(0.0171111 0.0145595 0)
(0.0145797 0.0136558 0)
(0.0120931 0.0126715 0)
(0.00971011 0.0116006 0)
(0.00745004 0.0104215 0)
(0.00538657 0.00909321 0)
(0.00352481 0.00756909 0)
(0.00199091 0.00579254 0)
(0.000777661 0.00372653 0)
(0.000120415 0.00133935 0)
(9.16709e-05 -0.00153919 0)
(0.000593274 -0.00400506 0)
(0.00148339 -0.00585279 0)
(0.00253136 -0.00709715 0)
(0.00368532 -0.00776395 0)
(0.00479103 -0.00790493 0)
(0.00579641 -0.0075848 0)
(0.00660793 -0.00688261 0)
(0.00719001 -0.00588055 0)
(0.00749236 -0.00466041 0)
(0.00749668 -0.00329597 0)
(0.00717877 -0.00184946 0)
(0.00652932 -0.000367701 0)
(0.00553352 0.00111954 0)
(0.00417974 0.00260016 0)
(0.00244857 0.00407889 0)
(0.000316643 0.00557523 0)
(-0.00224861 0.00712032 0)
(-0.00528622 0.0087529 0)
(-0.0088428 0.0105148 0)
(-0.0129693 0.0124463 0)
(-0.0177196 0.0145823 0)
(-0.0231462 0.0169489 0)
(-0.0292978 0.0195615 0)
(-0.0362155 0.0224236 0)
(-0.0439292 0.0255266 0)
(-0.0524546 0.02885 0)
(-0.0617898 0.0323617 0)
(-0.0719132 0.0360183 0)
(-0.082781 0.0397662 0)
(-0.0943268 0.0435421 0)
(-0.106462 0.0472755 0)
(-0.119079 0.0508908 0)
(-0.132055 0.0543105 0)
(-0.145254 0.0574594 0)
(-0.158541 0.0602676 0)
(-0.171781 0.0626744 0)
(-0.184846 0.0646305 0)
(-0.197623 0.0660993 0)
(-0.210015 0.0670581 0)
(-0.221942 0.0674965 0)
(-0.233343 0.0674159 0)
(-0.244171 0.0668271 0)
(-0.254395 0.0657486 0)
(-0.263996 0.0642041 0)
(-0.272963 0.0622209 0)
(-0.281293 0.0598281 0)
(-0.288988 0.0570552 0)
(-0.296053 0.0539314 0)
(-0.302493 0.0504846 0)
(-0.308315 0.0467413 0)
(-0.313527 0.0427258 0)
(-0.318136 0.0384607 0)
(-0.322146 0.0339667 0)
(-0.325562 0.0292629 0)
(-0.328387 0.0243667 0)
(-0.330623 0.0192944 0)
(-0.332271 0.0140616 0)
(-0.333327 0.00868329 0)
(-0.333789 0.00317471 0)
(-0.33365 -0.00244836 0)
(-0.332903 -0.00816901 0)
(-0.331536 -0.0139685 0)
(-0.329537 -0.0198258 0)
(-0.326891 -0.0257165 0)
(-0.323581 -0.0316127 0)
(-0.319587 -0.0374821 0)
(-0.314888 -0.0432872 0)
(-0.309463 -0.0489851 0)
(-0.303292 -0.0545273 0)
(-0.296353 -0.0598591 0)
(-0.288629 -0.0649202 0)
(-0.280108 -0.0696452 0)
(-0.270782 -0.0739644 0)
(-0.260654 -0.0778053 0)
(-0.249736 -0.0810944 0)
(-0.238053 -0.0837601 0)
(-0.225646 -0.0857351 0)
(-0.212573 -0.0869597 0)
(-0.198908 -0.0873856 0)
(-0.184745 -0.0869787 0)
(-0.170195 -0.0857228 0)
(-0.155384 -0.0836212 0)
(-0.140451 -0.0806988 0)
(-0.125542 -0.077002 0)
(-0.110808 -0.0725978 0)
(-0.0963957 -0.0675715 0)
(-0.0824452 -0.0620233 0)
(-0.0690832 -0.0560639 0)
(-0.0564197 -0.0498096 0)
(-0.0445453 -0.0433781 0)
(-0.0335306 -0.0368843 0)
(-0.0234263 -0.0304367 0)
(-0.014265 -0.0241354 0)
(-0.00606409 -0.0180708 0)
(0.00117191 -0.0123227 0)
(0.00744871 -0.00696015 0)
(0.0127807 -0.00204141 0)
(0.0171897 0.00238644 0)
(0.0207054 0.00628804 0)
(0.0233648 0.00964054 0)
(0.0252139 0.0124344 0)
(0.0263073 0.0146738 0)
(0.0267091 0.0163771 0)
(0.02649 0.0175757 0)
(0.0257294 0.0183123 0)
(0.0245079 0.0186389 0)
(0.0229114 0.0186132 0)
(0.0210194 0.0182943 0)
(0.0189147 0.0177386 0)
(0.0166649 0.0169946 0)
(0.0143445 0.0160985 0)
(0.0120025 0.0150695 0)
(0.00970997 0.0139069 0)
(0.00749659 0.0125883 0)
(0.00544811 0.0110711 0)
(0.00357885 0.00929576 0)
(0.00202689 0.00719276 0)
(0.000792442 0.00469113 0)
(0.00012236 0.00172971 0)
(9.39573e-05 -0.00183646 0)
(0.000599537 -0.00471799 0)
(0.00148166 -0.00682667 0)
(0.00249658 -0.00819277 0)
(0.00358351 -0.00886427 0)
(0.00458121 -0.00891061 0)
(0.0054343 -0.00841731 0)
(0.00604782 -0.00748053 0)
(0.00638659 -0.00619936 0)
(0.00640121 -0.00466821 0)
(0.0060741 -0.00297102 0)
(0.00538068 -0.00117572 0)
(0.00430964 0.00066841 0)
(0.00284212 0.00253293 0)
(0.00096033 0.00440976 0)
(-0.00136324 0.00631009 0)
(-0.00416156 0.00826103 0)
(-0.00747749 0.0103017 0)
(-0.0113601 0.0124778 0)
(-0.0158645 0.0148363 0)
(-0.0210478 0.0174199 0)
(-0.026966 0.0202623 0)
(-0.0336693 0.0233848 0)
(-0.0411986 0.0267942 0)
(-0.0495808 0.0304816 0)
(-0.0588258 0.0344226 0)
(-0.0689226 0.0385778 0)
(-0.079837 0.0428934 0)
(-0.0915104 0.0473028 0)
(-0.103859 0.0517283 0)
(-0.116777 0.0560844 0)
(-0.130139 0.0602809 0)
(-0.143804 0.0642275 0)
(-0.157628 0.0678381 0)
(-0.171464 0.0710356 0)
(-0.185175 0.0737555 0)
(-0.198634 0.0759476 0)
(-0.211734 0.0775781 0)
(-0.224388 0.0786285 0)
(-0.236525 0.0790947 0)
(-0.248096 0.0789848 0)
(-0.259066 0.0783164 0)
(-0.269416 0.0771145 0)
(-0.279134 0.0754087 0)
(-0.288218 0.0732311 0)
(-0.296672 0.0706153 0)
(-0.304501 0.0675944 0)
(-0.311716 0.0642005 0)
(-0.318326 0.0604642 0)
(-0.324343 0.0564141 0)
(-0.329778 0.0520764 0)
(-0.33464 0.0474752 0)
(-0.338942 0.0426323 0)