/*--------------------------------*- C++ -*----------------------------------*\
| =========                 |                                                 |
| \\      /  F ield         | OpenFOAM: The Open Source CFD Toolbox           |
|  \\    /   O peration     | Version:  2406                                  |
|   \\  /    A nd           | Website:  www.openfoam.com                      |
|    \\/     M anipulation  |                                                 |
\*---------------------------------------------------------------------------*/
FoamFile
{
    version     2.0;
    format      ascii;
    arch        "LSB;label=32;scalar=64";
    class       surfaceScalarField;
    location    "6";
    object      phi;
}
// * * * * * * * * * * * * * * * * * * * * * * * * * * * * * * * * * * * * * //

dimensions      [0 3 -1 0 0 0 0];

oriented        oriented;

internalField   nonuniform List<scalar> 
28560
(
4.32237e-09
-4.32495e-09
1.5654e-09
3.01019e-09
-1.09961e-08
1.26347e-08
-3.31662e-08
2.25575e-08
-6.31389e-08
3.02384e-08
-9.90724e-08
3.64416e-08
-1.39466e-07
4.08204e-08
-1.82971e-07
4.40823e-08
-2.28691e-07
4.62457e-08
-2.75823e-07
4.77426e-08
-3.23882e-07
4.8637e-08
-3.72433e-07
4.91734e-08
-4.21234e-07
4.94028e-08
-4.70068e-07
4.94585e-08
-5.1883e-07
4.93714e-08
-5.67421e-07
4.92107e-08
-6.15802e-07
4.89913e-08
-6.63935e-07
4.87464e-08
-7.11809e-07
4.84807e-08
-7.59411e-07
4.82078e-08
-8.06738e-07
4.79268e-08
-8.53781e-07
4.76415e-08
-9.00536e-07
4.73485e-08
-9.46992e-07
4.70471e-08
-9.93139e-07
4.67331e-08
-1.03896e-06
4.64041e-08
-1.08444e-06
4.60561e-08
-1.12955e-06
4.56861e-08
-1.17428e-06
4.52905e-08
-1.21858e-06
4.48663e-08
-1.26244e-06
4.44102e-08
-1.30581e-06
4.39193e-08
-1.34866e-06
4.33904e-08
-1.39094e-06
4.28207e-08
-1.43262e-06
4.22073e-08
-1.47365e-06
4.15474e-08
-1.51398e-06
4.0838e-08
-1.55356e-06
4.00765e-08
-1.59233e-06
3.92601e-08
-1.63024e-06
3.8386e-08
-1.66722e-06
3.74517e-08
-1.70322e-06
3.64546e-08
-1.73818e-06
3.53923e-08
-1.77201e-06
3.42623e-08
-1.80467e-06
3.30626e-08
-1.83606e-06
3.17911e-08
-1.86613e-06
3.04461e-08
-1.8948e-06
2.9026e-08
-1.92199e-06
2.75296e-08
-1.94762e-06
2.59558e-08
-1.97162e-06
2.4304e-08
-1.99392e-06
2.2574e-08
-2.01443e-06
2.07659e-08
-2.03308e-06
1.88803e-08
-2.04979e-06
1.69183e-08
-2.06448e-06
1.48815e-08
-2.0771e-06
1.2772e-08
-2.08756e-06
1.05925e-08
-2.0958e-06
8.34615e-09
-2.10177e-06
6.03684e-09
-2.10539e-06
3.66899e-09
-2.10662e-06
1.24763e-09
-2.10542e-06
-1.22161e-09
-2.10173e-06
-3.73254e-09
-2.09553e-06
-6.27839e-09
-2.08678e-06
-8.85184e-09
-2.07548e-06
-1.14451e-08
-2.0616e-06
-1.40499e-08
-2.04515e-06
-1.66577e-08
-2.02612e-06
-1.92594e-08
-2.00454e-06
-2.18457e-08
-1.98043e-06
-2.44074e-08
-1.95383e-06
-2.69347e-08
-1.92477e-06
-2.94182e-08
-1.89331e-06
-3.18483e-08
-1.85951e-06
-3.42158e-08
-1.82345e-06
-3.65116e-08
-1.7852e-06
-3.8727e-08
-1.74484e-06
-4.08538e-08
-1.70248e-06
-4.28842e-08
-1.65822e-06
-4.48112e-08
-1.61217e-06
-4.66284e-08
-1.56443e-06
-4.83302e-08
-1.51513e-06
-4.99116e-08
-1.46439e-06
-5.13688e-08
-1.41234e-06
-5.26986e-08
-1.35911e-06
-5.38988e-08
-1.30482e-06
-5.49677e-08
-1.2496e-06
-5.59048e-08
-1.19359e-06
-5.67101e-08
-1.13692e-06
-5.7384e-08
-1.0797e-06
-5.79276e-08
-1.02209e-06
-5.83418e-08
-9.64185e-07
-5.86279e-08
-9.06129e-07
-5.87865e-08
-8.48043e-07
-5.88175e-08
-7.90054e-07
-5.87199e-08
-7.32293e-07
-5.84907e-08
-6.74893e-07
-5.81255e-08
-6.17996e-07
-5.76163e-08
-5.61756e-07
-5.69531e-08
-5.06338e-07
-5.61202e-08
-4.51929e-07
-5.51003e-08
-3.98737e-07
-5.38673e-08
-3.47001e-07
-5.23951e-08
-2.96992e-07
-5.06443e-08
-2.49025e-07
-4.85802e-08
-2.03456e-07
-4.6148e-08
-1.60697e-07
-4.3308e-08
-1.21209e-07
-3.99888e-08
-8.55134e-08
-3.61579e-08
-5.41824e-08
-3.17308e-08
-2.78155e-08
-2.67148e-08
-7.05639e-09
-2.10337e-08
7.56866e-09
-1.48311e-08
1.55672e-08
-8.1407e-09
1.70864e-08
-1.56511e-09
1.27208e-08
4.30748e-09
5.4387e-09
7.38046e-09
5.43618e-09
-2.98036e-09
-1.59786e-09
-2.39515e-08
2.39883e-08
-6.61638e-08
5.43084e-08
-1.28849e-07
8.48807e-08
-2.09488e-07
1.10081e-07
-3.04584e-07
1.30833e-07
-4.11147e-07
1.46402e-07
-5.26199e-07
1.58205e-07
-6.47571e-07
1.66531e-07
-7.73296e-07
1.72414e-07
-9.02037e-07
1.76241e-07
-1.03264e-06
1.7866e-07
-1.16435e-06
1.79959e-07
-1.29654e-06
1.80519e-07
-1.42884e-06
1.80517e-07
-1.56093e-06
1.8016e-07
-1.69263e-06
1.79545e-07
-1.8238e-06
1.78775e-07
-1.95434e-06
1.77893e-07
-2.0842e-06
1.76943e-07
-2.21333e-06
1.75938e-07
-2.34169e-06
1.74891e-07
-2.46925e-06
1.73798e-07
-2.59596e-06
1.72658e-07
-2.72178e-06
1.71461e-07
-2.84666e-06
1.702e-07
-2.97054e-06
1.68861e-07
-3.09335e-06
1.67437e-07
-3.21503e-06
1.65914e-07
-3.33549e-06
1.64283e-07
-3.45465e-06
1.62532e-07
-3.5724e-06
1.60652e-07
-3.68865e-06
1.58631e-07
-3.80329e-06
1.5646e-07
-3.91619e-06
1.5413e-07
-4.02724e-06
1.51629e-07
-4.1363e-06
1.48948e-07
-4.24323e-06
1.46078e-07
-4.34789e-06
1.43009e-07
-4.45012e-06
1.39733e-07
-4.54978e-06
1.36239e-07
-4.64669e-06
1.32521e-07
-4.74068e-06
1.28568e-07
-4.83159e-06
1.24375e-07
-4.91922e-06
1.19932e-07
-5.0034e-06
1.15235e-07
-5.08393e-06
1.10278e-07
-5.16063e-06
1.05055e-07
-5.2333e-06
9.95621e-08
-5.30174e-06
9.37975e-08
-5.36575e-06
8.77591e-08
-5.42515e-06
8.14469e-08
-5.47972e-06
7.48619e-08
-5.52928e-06
6.80069e-08
-5.57364e-06
6.08864e-08
-5.6126e-06
5.35064e-08
-5.646e-06
4.58749e-08
-5.67365e-06
3.80019e-08
-5.6954e-06
2.98991e-08
-5.71108e-06
2.15803e-08
-5.72056e-06
1.30614e-08
-5.7237e-06
4.3603e-09
-5.72039e-06
-4.50324e-09
-5.71053e-06
-1.35074e-08
-5.69404e-06
-2.26286e-08
-5.67085e-06
-3.18413e-08
-5.64091e-06
-4.11186e-08
-5.60421e-06
-5.04319e-08
-5.56074e-06
-5.97514e-08
-5.51051e-06
-6.90464e-08
-5.45358e-06
-7.82851e-08
-5.38999e-06
-8.74351e-08
-5.31985e-06
-9.64641e-08
-5.24326e-06
-1.05339e-07
-5.16035e-06
-1.14028e-07
-5.07129e-06
-1.225e-07
-4.97625e-06
-1.30723e-07
-4.87542e-06
-1.38668e-07
-4.76904e-06
-1.46307e-07
-4.65733e-06
-1.53615e-07
-4.54056e-06
-1.60566e-07
-4.41898e-06
-1.67139e-07
-4.2929e-06
-1.73315e-07
-4.16259e-06
-1.79077e-07
-4.02837e-06
-1.84411e-07
-3.89056e-06
-1.89307e-07
-3.74947e-06
-1.93756e-07
-3.60543e-06
-1.97753e-07
-3.45875e-06
-2.01294e-07
-3.30978e-06
-2.04378e-07
-3.15884e-06
-2.07007e-07
-3.00626e-06
-2.09181e-07
-2.85235e-06
-2.10904e-07
-2.69745e-06
-2.12176e-07
-2.54188e-06
-2.12998e-07
-2.38597e-06
-2.13368e-07
-2.23006e-06
-2.13277e-07
-2.07448e-06
-2.12713e-07
-1.91961e-06
-2.11656e-07
-1.76581e-06
-2.10075e-07
-1.61351e-06
-2.0793e-07
-1.46316e-06
-2.05163e-07
-1.31528e-06
-2.01707e-07
-1.17042e-06
-1.97471e-07
-1.02924e-06
-1.92354e-07
-8.92482e-07
-1.86224e-07
-7.60984e-07
-1.7895e-07
-6.35698e-07
-1.70356e-07
-5.17707e-07
-1.60293e-07
-4.08205e-07
-1.48553e-07
-3.08507e-07
-1.35016e-07
-2.2001e-07
-1.19477e-07
-1.44134e-07
-1.01965e-07
-8.22563e-08
-8.23954e-08
-3.54511e-08
-6.12619e-08
-4.40869e-09
-3.89404e-08
1.13948e-08
-1.72372e-08
1.36258e-08
2.05547e-09
7.29224e-09
1.37199e-08
1.26305e-08
-1.29024e-08
1.12159e-08
-5.52438e-08
6.68742e-08
-1.28396e-07
1.27445e-07
-2.29488e-07
1.86602e-07
-3.55592e-07
2.36539e-07
-5.02017e-07
2.78006e-07
-6.6504e-07
3.10036e-07
-8.40642e-07
3.34643e-07
-1.02588e-06
3.5253e-07
-1.21797e-06
3.65391e-07
-1.41497e-06
3.74083e-07
-1.61517e-06
3.79758e-07
-1.81739e-06
3.83064e-07
-2.02067e-06
3.84709e-07
-2.22437e-06
3.85107e-07
-2.42797e-06
3.8466e-07
-2.63113e-06
3.836e-07
-2.8336e-06
3.82137e-07
-3.0352e-06
3.80381e-07
-3.2358e-06
3.78427e-07
-3.4353e-06
3.76315e-07
-3.63361e-06
3.74076e-07
-3.83066e-06
3.71713e-07
-4.02636e-06
3.69224e-07
-4.22064e-06
3.66596e-07
-4.41341e-06
3.63813e-07
-4.60456e-06
3.60855e-07
-4.79399e-06
3.57702e-07
-4.98157e-06
3.54332e-07
-5.1672e-06
3.50723e-07
-5.35071e-06
3.46855e-07
-5.53196e-06
3.42706e-07
-5.71079e-06
3.38254e-07
-5.88703e-06
3.3348e-07
-6.06049e-06
3.28363e-07
-6.23099e-06
3.22884e-07
-6.39832e-06
3.17021e-07
-6.56227e-06
3.10756e-07
-6.72261e-06
3.0407e-07
-6.87913e-06
2.96944e-07
-7.03157e-06
2.8936e-07
-7.17969e-06
2.81301e-07
-7.32323e-06
2.72752e-07
-7.46193e-06
2.63695e-07
-7.59551e-06
2.54119e-07
-7.72371e-06
2.44009e-07
-7.84624e-06
2.33356e-07
-7.96281e-06
2.22149e-07
-8.07313e-06
2.10383e-07
-8.17692e-06
1.98052e-07
-8.27388e-06
1.85155e-07
-8.36371e-06
1.71691e-07
-8.44614e-06
1.57665e-07
-8.52088e-06
1.43084e-07
-8.58765e-06
1.27957e-07
-8.64617e-06
1.12298e-07
-8.69619e-06
9.61248e-08
-8.73746e-06
7.94591e-08
-8.76974e-06
6.23259e-08
-8.7928e-06
4.47547e-08
-8.80646e-06
2.67788e-08
-8.81051e-06
8.43576e-09
-8.8048e-06
-1.02331e-08
-8.7892e-06
-2.91824e-08
-8.76358e-06
-4.83631e-08
-8.72785e-06
-6.7723e-08
-8.68197e-06
-8.72063e-08
-8.6259e-06
-1.06754e-07
-8.55965e-06
-1.26307e-07
-8.48324e-06
-1.458e-07
-8.39675e-06
-1.65169e-07
-8.30027e-06
-1.84349e-07
-8.19395e-06
-2.03274e-07
-8.07794e-06
-2.21878e-07
-7.95244e-06
-2.40094e-07
-7.81769e-06
-2.5786e-07
-7.67396e-06
-2.75114e-07
-7.52153e-06
-2.91795e-07
-7.36072e-06
-3.07847e-07
-7.19189e-06
-3.23217e-07
-7.0154e-06
-3.37858e-07
-6.83165e-06
-3.51725e-07
-6.64106e-06
-3.6478e-07
-6.44404e-06
-3.76988e-07
-6.24106e-06
-3.88322e-07
-6.03255e-06
-3.98759e-07
-5.819e-06
-4.08283e-07
-5.60086e-06
-4.16881e-07
-5.37861e-06
-4.24546e-07
-5.15274e-06
-4.31275e-07
-4.92372e-06
-4.37069e-07
-4.69202e-06
-4.41928e-07
-4.45812e-06
-4.45855e-07
-4.22251e-06
-4.48851e-07
-3.98566e-06
-4.50913e-07
-3.74807e-06
-4.52032e-07
-3.51022e-06
-4.52189e-07
-3.27265e-06
-4.51352e-07
-3.03589e-06
-4.49477e-07
-2.80052e-06
-4.46493e-07
-2.56717e-06
-4.42313e-07
-2.33655e-06
-4.36814e-07
-2.10941e-06
-4.29849e-07
-1.88663e-06
-4.21231e-07
-1.6692e-06
-4.10743e-07
-1.45823e-06
-3.9812e-07
-1.25499e-06
-3.83083e-07
-1.06089e-06
-3.65291e-07
-8.77542e-07
-3.44434e-07
-7.06686e-07
-3.20132e-07
-5.50228e-07
-2.92142e-07
-4.10131e-07
-2.60145e-07
-2.8839e-07
-2.24212e-07
-1.86822e-07
-1.84347e-07
-1.06877e-07
-1.4152e-07
-4.92995e-08
-9.66946e-08
-1.35399e-08
-5.3111e-08
2.58762e-09
-1.40867e-08
4.35987e-09
1.19734e-08
1.70354e-08
-2.34986e-08
3.43158e-08
-8.80046e-08
1.3178e-07
-1.91676e-07
2.3047e-07
-3.2876e-07
3.23708e-07
-4.95821e-07
4.03006e-07
-6.87167e-07
4.6908e-07
-8.98755e-07
5.21013e-07
-1.1259e-06
5.61336e-07
-1.36524e-06
5.91239e-07
-1.61346e-06
6.13058e-07
-1.86821e-06
6.28181e-07
-2.12735e-06
6.38297e-07
-2.38941e-06
6.44474e-07
-2.65312e-06
6.47799e-07
-2.91763e-06
6.4897e-07
-3.18222e-06
6.48625e-07
-3.44643e-06
6.47169e-07
-3.70987e-06
6.44945e-07
-3.97228e-06
6.42156e-07
-4.23344e-06
6.38963e-07
-4.4932e-06
6.35447e-07
-4.75141e-06
6.31666e-07
-5.00795e-06
6.27635e-07
-5.26269e-06
6.23357e-07
-5.51552e-06
6.18816e-07
-5.7663e-06
6.13991e-07
-6.0149e-06
6.08852e-07
-6.26116e-06
6.03368e-07
-6.50492e-06
5.97505e-07
-6.74601e-06
5.9123e-07
-6.98424e-06
5.84508e-07
-7.21941e-06
5.77306e-07
-7.45131e-06
5.69589e-07
-7.6797e-06
5.61325e-07
-7.90437e-06
5.5248e-07
-8.12504e-06
5.43022e-07
-8.34147e-06
5.32919e-07
-8.55337e-06
5.2214e-07
-8.76046e-06
5.10654e-07
-8.96244e-06
4.98431e-07
-9.15901e-06
4.85444e-07
-9.34984e-06
4.71663e-07
-9.53461e-06
4.57065e-07
-9.71298e-06
4.41625e-07
-9.88461e-06
4.2532e-07
-1.00491e-05
4.08133e-07
-1.02062e-05
3.90046e-07
-1.03555e-05
3.71046e-07
-1.04966e-05
3.51123e-07
-1.06291e-05
3.30272e-07
-1.07528e-05
3.0849e-07
-1.08672e-05
2.8578e-07
-1.09719e-05
2.62149e-07
-1.10667e-05
2.37612e-07
-1.11511e-05
2.12186e-07
-1.12249e-05
1.85896e-07
-1.12877e-05
1.58772e-07
-1.13392e-05
1.3085e-07
-1.13792e-05
1.02174e-07
-1.14073e-05
7.27937e-08
-1.14233e-05
4.27646e-08
-1.14271e-05
1.21493e-08
-1.14183e-05
-1.89834e-08
-1.13969e-05
-5.05587e-08
-1.13627e-05
-8.24957e-08
-1.13156e-05
-1.14708e-07
-1.12555e-05
-1.47106e-07
-1.11825e-05
-1.79592e-07
-1.10965e-05
-2.12068e-07
-1.09977e-05
-2.44431e-07
-1.0886e-05
-2.76577e-07
-1.07616e-05
-3.08399e-07
-1.06248e-05
-3.39791e-07
-1.04756e-05
-3.70645e-07
-1.03144e-05
-4.00857e-07
-1.01416e-05
-4.30324e-07
-9.95726e-06
-4.58946e-07
-9.76193e-06
-4.86628e-07
-9.55598e-06
-5.13279e-07
-9.33984e-06
-5.38816e-07
-9.11397e-06
-5.6316e-07
-8.87887e-06
-5.86241e-07
-8.63504e-06
-6.07997e-07
-8.38302e-06
-6.28376e-07
-8.12335e-06
-6.47331e-07
-7.85662e-06
-6.64827e-07
-7.58338e-06
-6.80836e-07
-7.30422e-06
-6.95338e-07
-7.01974e-06
-7.08322e-07
-6.73051e-06
-7.1978e-07
-6.43713e-06
-7.29712e-07
-6.1402e-06
-7.38119e-07
-5.84031e-06
-7.45e-07
-5.53806e-06
-7.50355e-07
-5.23404e-06
-7.54175e-07
-4.92888e-06
-7.56439e-07
-4.6232e-06
-7.57113e-07
-4.31766e-06
-7.56141e-07
-4.01295e-06
-7.53439e-07
-3.70981e-06
-7.48892e-07
-3.40905e-06
-7.42345e-07
-3.11154e-06
-7.33597e-07
-2.81828e-06
-7.22399e-07
-2.53038e-06
-7.08442e-07
-2.24908e-06
-6.91371e-07
-1.97579e-06
-6.70756e-07
-1.71211e-06
-6.46143e-07
-1.4598e-06
-6.16998e-07
-1.22086e-06
-5.82827e-07
-9.97407e-07
-5.43065e-07
-7.91758e-07
-4.9734e-07
-6.06239e-07
-4.45242e-07
-4.43216e-07
-3.86908e-07
-3.04738e-07
-3.22517e-07
-1.92521e-07
-2.53561e-07
-1.07316e-07
-1.81713e-07
-4.88371e-08
-1.11569e-07
-1.48315e-08
-4.79929e-08
-1.00936e-09
-1.9447e-09
1.60619e-08
-3.2334e-08
6.63486e-08
-1.16872e-07
2.1716e-07
-2.48611e-07
3.61796e-07
-4.18678e-07
4.94384e-07
-6.22772e-07
6.07073e-07
-8.5407e-07
7.00891e-07
-1.10824e-06
7.75384e-07
-1.38005e-06
8.33634e-07
-1.66591e-06
8.77431e-07
-1.96212e-06
9.09745e-07
-2.26609e-06
9.32548e-07
-2.5754e-06
9.48076e-07
-2.88835e-06
9.57859e-07
-3.20347e-06
9.63386e-07
-3.51973e-06
9.65673e-07
-3.83626e-06
9.65622e-07
-4.15248e-06
9.63836e-07
-4.46788e-06
9.6081e-07
-4.78214e-06
9.5686e-07
-5.09495e-06
9.52226e-07
-5.4061e-06
9.47042e-07
-5.71539e-06
9.41399e-07
-6.02264e-06
9.35332e-07
-6.3277e-06
9.28853e-07
-6.63039e-06
9.21944e-07
-6.93055e-06
9.1458e-07
-7.22799e-06
9.06723e-07
-7.52253e-06
8.9833e-07
-7.81396e-06
8.89356e-07
-8.10207e-06
8.79753e-07
-8.38662e-06
8.69472e-07
-8.66737e-06
8.58466e-07
-8.94406e-06
8.46687e-07
-9.21643e-06
8.34086e-07
-9.48418e-06
8.20617e-07
-9.747e-06
8.06234e-07
-1.00046e-05
7.9089e-07
-1.02566e-05
7.74541e-07
-1.05028e-05
7.57143e-07
-1.07426e-05
7.38655e-07
-1.09759e-05
7.19035e-07
-1.12021e-05
6.98246e-07
-1.1421e-05
6.76251e-07
-1.16321e-05
6.53017e-07
-1.18349e-05
6.28515e-07
-1.20292e-05
6.02717e-07
-1.22145e-05
5.75603e-07
-1.23904e-05
5.47154e-07
-1.25563e-05
5.17359e-07
-1.2712e-05
4.8621e-07
-1.2857e-05
4.53709e-07
-1.29909e-05
4.1986e-07
-1.31133e-05
3.84679e-07
-1.32237e-05
3.48186e-07
-1.33217e-05
3.1041e-07
-1.34071e-05
2.7139e-07
-1.34794e-05
2.31172e-07
-1.35382e-05
1.89812e-07
-1.35834e-05
1.47374e-07
-1.36145e-05
1.03932e-07
-1.36312e-05
5.95699e-08
-1.36334e-05
1.43796e-08
-1.36209e-05
-3.15376e-08
-1.35934e-05
-7.80717e-08
-1.35509e-05
-1.25105e-07
-1.34932e-05
-1.72511e-07
-1.34202e-05
-2.20159e-07
-1.3332e-05
-2.67908e-07
-1.32286e-05
-3.15617e-07
-1.31101e-05
-3.63136e-07
-1.29766e-05
-4.10315e-07
-1.28282e-05
-4.57001e-07
-1.26652e-05
-5.03041e-07
-1.24878e-05
-5.48282e-07
-1.22964e-05
-5.92574e-07
-1.20912e-05
-6.3577e-07
-1.18728e-05
-6.77728e-07
-1.16415e-05
-7.18311e-07
-1.13977e-05
-7.57392e-07
-1.11421e-05
-7.94851e-07
-1.08751e-05
-8.30578e-07
-1.05973e-05
-8.64473e-07
-1.03093e-05
-8.96449e-07
-1.00117e-05
-9.2643e-07
-9.7051e-06
-9.54353e-07
-9.39024e-06
-9.80166e-07
-9.06774e-06
-1.00383e-06
-8.73826e-06
-1.02532e-06
-8.40249e-06
-1.04461e-06
-8.06109e-06
-1.0617e-06
-7.71475e-06
-1.07658e-06
-7.36416e-06
-1.08925e-06
-7.00999e-06
-1.09971e-06
-6.65293e-06
-1.10795e-06
-6.29369e-06
-1.11396e-06
-5.93297e-06
-1.1177e-06
-5.5715e-06
-1.11912e-06
-5.21005e-06
-1.11813e-06
-4.84943e-06
-1.1146e-06
-4.49049e-06
-1.10836e-06
-4.13418e-06
-1.09918e-06
-3.78152e-06
-1.08677e-06
-3.43369e-06
-1.07075e-06
-3.09194e-06
-1.05068e-06
-2.75775e-06
-1.02605e-06
-2.43273e-06
-9.9624e-07
-2.11872e-06
-9.60606e-07
-1.81773e-06
-9.18405e-07
-1.53203e-06
-8.68942e-07
-1.26398e-06
-8.11464e-07
-1.0162e-06
-7.45466e-07
-7.91245e-07
-6.70471e-07
-5.91745e-07
-5.86688e-07
-4.19904e-07
-4.94518e-07
-2.77722e-07
-3.95955e-07
-1.66038e-07
-2.93426e-07
-8.50782e-08
-1.92699e-07
-3.28446e-08
-1.00108e-07
-6.50978e-09
-2.84773e-08
9.6597e-09
-4.00531e-08
1.05852e-07
-1.42469e-07
3.2037e-07
-2.99415e-07
5.17933e-07
-4.99116e-07
6.94417e-07
-7.36243e-07
8.43669e-07
-1.00283e-06
9.67502e-07
-1.29423e-06
1.06636e-06
-1.60474e-06
1.144e-06
-1.93062e-06
1.20294e-06
-2.2679e-06
1.24678e-06
-2.61385e-06
1.27814e-06
-2.96583e-06
1.29978e-06
-3.32204e-06
1.31372e-06
-3.68082e-06
1.32186e-06
-4.04103e-06
1.32554e-06
-4.40168e-06
1.32595e-06
-4.76208e-06
1.3239e-06
-5.12165e-06
1.32006e-06
-5.47996e-06
1.31485e-06
-5.83667e-06
1.30861e-06
-6.1915e-06
1.30154e-06
-6.54418e-06
1.29377e-06
-6.89452e-06
1.28535e-06
-7.24228e-06
1.2763e-06
-7.58728e-06
1.26663e-06
-7.92929e-06
1.25628e-06
-8.26811e-06
1.24523e-06
-8.60349e-06
1.23341e-06
-8.93521e-06
1.22077e-06
-9.26301e-06
1.20725e-06
-9.58661e-06
1.19278e-06
-9.90574e-06
1.1773e-06
-1.02201e-05
1.16075e-06
-1.05293e-05
1.14306e-06
-1.08332e-05
1.12417e-06
-1.11313e-05
1.10403e-06
-1.14232e-05
1.08256e-06
-1.17086e-05
1.05972e-06
-1.19872e-05
1.03544e-06
-1.22584e-05
1.00966e-06
-1.2522e-05
9.82346e-07
-1.27774e-05
9.53435e-07
-1.30243e-05
9.22882e-07
-1.32622e-05
8.90646e-07
-1.34905e-05
8.56688e-07
-1.3709e-05
8.20976e-07
-1.39171e-05
7.83482e-07
-1.41143e-05
7.44185e-07
-1.43002e-05
7.03073e-07
-1.44743e-05
6.60138e-07
-1.46361e-05
6.15385e-07
-1.47853e-05
5.68825e-07
-1.49212e-05
5.20479e-07
-1.50435e-05
4.7038e-07
-1.51518e-05
4.18569e-07
-1.52456e-05
3.65102e-07
-1.53245e-05
3.10043e-07
-1.53883e-05
2.53471e-07
-1.54364e-05
1.95476e-07
-1.54687e-05
1.36159e-07
-1.54848e-05
7.56349e-08
-1.54844e-05
1.40298e-08
-1.54674e-05
-4.85181e-08
-1.54336e-05
-1.1186e-07
-1.53829e-05
-1.75835e-07
-1.5315e-05
-2.40275e-07
-1.52301e-05
-3.05001e-07
-1.51281e-05
-3.69827e-07
-1.50091e-05
-4.3456e-07
-1.48731e-05
-4.99002e-07
-1.47203e-05
-5.62953e-07
-1.45509e-05
-6.26207e-07
-1.43652e-05
-6.88562e-07
-1.41635e-05
-7.49815e-07
-1.39461e-05
-8.09766e-07
-1.37134e-05
-8.68221e-07
-1.34659e-05
-9.24992e-07
-1.32041e-05
-9.799e-07
-1.29284e-05
-1.03278e-06
-1.26395e-05
-1.08346e-06
-1.2338e-05
-1.13182e-06
-1.20245e-05
-1.17771e-06
-1.16996e-05
-1.22102e-06
-1.13641e-05
-1.26165e-06
-1.10186e-05
-1.29952e-06
-1.06638e-05
-1.33457e-06
-1.03006e-05
-1.36674e-06
-9.92952e-06
-1.39599e-06
-9.55147e-06
-1.4223e-06
-9.16713e-06
-1.44567e-06
-8.77726e-06
-1.46607e-06
-8.38261e-06
-1.48351e-06
-7.98395e-06
-1.49799e-06
-7.58202e-06
-1.5095e-06
-7.17759e-06
-1.518e-06
-6.77146e-06
-1.52344e-06
-6.36444e-06
-1.52576e-06
-5.95736e-06
-1.52482e-06
-5.55114e-06
-1.52045e-06
-5.14671e-06
-1.51241e-06
-4.74513e-06
-1.50039e-06
-4.34754e-06
-1.48399e-06
-3.95522e-06
-1.46271e-06
-3.56957e-06
-1.43597e-06
-3.1922e-06
-1.40307e-06
-2.82489e-06
-1.36322e-06
-2.46963e-06
-1.31556e-06
-2.1286e-06
-1.25912e-06
-1.80424e-06
-1.19303e-06
-1.4991e-06
-1.11633e-06
-1.21598e-06
-1.02838e-06
-9.57549e-07
-9.28662e-07
-7.2666e-07
-8.17442e-07
-5.25618e-07
-6.95359e-07
-3.56705e-07
-5.64838e-07
-2.20916e-07
-4.29025e-07
-1.19111e-07
-2.94611e-07
-4.97447e-08
-1.69227e-07
-1.15942e-08
-6.69081e-08
-1.7713e-09
-4.62563e-08
1.51612e-07
-1.63875e-07
4.39084e-07
-3.42744e-07
6.96085e-07
-5.68535e-07
9.20879e-07
-8.34848e-07
1.10971e-06
-1.13255e-06
1.26564e-06
-1.45661e-06
1.39039e-06
-1.80085e-06
1.48857e-06
-2.16138e-06
1.56357e-06
-2.53401e-06
1.6197e-06
-2.91593e-06
1.66022e-06
-3.30437e-06
1.68848e-06
-3.69741e-06
1.70697e-06
-4.09331e-06
1.718e-06
-4.49084e-06
1.72329e-06
-4.88892e-06
1.72427e-06
-5.28679e-06
1.722e-06
-5.68381e-06
1.7173e-06
-6.07948e-06
1.71075e-06
-6.47339e-06
1.70276e-06
-6.86522e-06
1.6936e-06
-7.25466e-06
1.68344e-06
-7.64146e-06
1.67237e-06
-8.02537e-06
1.66044e-06
-8.40614e-06
1.64762e-06
-8.78352e-06
1.63389e-06
-9.15727e-06
1.61919e-06
-9.52711e-06
1.60347e-06
-9.89278e-06
1.58665e-06
-1.0254e-05
1.56866e-06
-1.06104e-05
1.54942e-06
-1.09617e-05
1.52884e-06
-1.13076e-05
1.50686e-06
-1.16478e-05
1.48339e-06
-1.19818e-05
1.45835e-06
-1.23092e-05
1.43168e-06
-1.26297e-05
1.40328e-06
-1.29429e-05
1.37309e-06
-1.32483e-05
1.34103e-06
-1.35455e-05
1.30704e-06
-1.38341e-05
1.27106e-06
-1.41135e-05
1.23301e-06
-1.43833e-05
1.19284e-06
-1.4643e-05
1.15051e-06
-1.48921e-05
1.10596e-06
-1.51301e-05
1.05915e-06
-1.53565e-05
1.01006e-06
-1.55709e-05
9.58655e-07
-1.57726e-05
9.04928e-07
-1.59612e-05
8.48875e-07
-1.61362e-05
7.905e-07
-1.62971e-05
7.29825e-07
-1.64434e-05
6.66879e-07
-1.65747e-05
6.01707e-07
-1.66904e-05
5.34369e-07
-1.67901e-05
4.64936e-07
-1.68735e-05
3.93497e-07
-1.69402e-05
3.20154e-07
-1.69897e-05
2.45025e-07
-1.70217e-05
1.68245e-07
-1.70361e-05
8.99612e-08
-1.70324e-05
1.03384e-08
-1.70104e-05
-7.04451e-08
-1.69701e-05
-1.52197e-07
-1.69113e-05
-2.34711e-07
-1.68338e-05
-3.17771e-07
-1.67377e-05
-4.01147e-07
-1.6623e-05
-4.84603e-07
-1.64898e-05
-5.67892e-07
-1.63381e-05
-6.50762e-07
-1.61682e-05
-7.32958e-07
-1.59803e-05
-8.14222e-07
-1.57747e-05
-8.94296e-07
-1.55517e-05
-9.72923e-07
-1.53118e-05
-1.04985e-06
-1.50553e-05
-1.12484e-06
-1.47828e-05
-1.19765e-06
-1.44949e-05
-1.26805e-06
-1.4192e-05
-1.33584e-06
-1.38748e-05
-1.40082e-06
-1.35441e-05
-1.4628e-06
-1.32004e-05
-1.52163e-06
-1.28444e-05
-1.57716e-06
-1.2477e-05
-1.62928e-06
-1.20989e-05
-1.67787e-06
-1.17109e-05
-1.72285e-06
-1.13137e-05
-1.76417e-06
-1.09082e-05
-1.80178e-06
-1.04951e-05
-1.83564e-06
-1.00753e-05
-1.86575e-06
-9.64955e-06
-1.89209e-06
-9.21867e-06
-1.91466e-06
-8.78348e-06
-1.93346e-06
-8.3448e-06
-1.94846e-06
-7.90345e-06
-1.95962e-06
-7.46027e-06
-1.9669e-06
-7.01615e-06
-1.97016e-06
-6.57198e-06
-1.96926e-06
-6.12873e-06
-1.96397e-06
-5.68743e-06
-1.95399e-06
-5.24919e-06
-1.9389e-06
-4.81523e-06
-1.9182e-06
-4.38693e-06
-1.89128e-06
-3.96578e-06
-1.85737e-06
-3.55349e-06
-1.81562e-06
-3.15191e-06
-1.76503e-06
-2.76317e-06
-1.70453e-06
-2.38955e-06
-1.63295e-06
-2.03361e-06
-1.54919e-06
-1.69799e-06
-1.45211e-06
-1.38561e-06
-1.34095e-06
-1.09926e-06
-1.21513e-06
-8.41934e-07
-1.07494e-06
-6.16065e-07
-9.21261e-07
-4.24229e-07
-7.56856e-07
-2.67643e-07
-5.85527e-07
-1.47831e-07
-4.14664e-07
-6.37698e-08
-2.53023e-07
-1.56611e-08
-1.15406e-07
-1.7234e-08
-5.15087e-08
2.02461e-07
-1.82112e-07
5.7078e-07
-3.79887e-07
8.929e-07
-6.28379e-07
1.16992e-06
-9.2017e-07
1.40096e-06
-1.24505e-06
1.59072e-06
-1.59755e-06
1.74255e-06
-1.97105e-06
1.86209e-06
-2.3615e-06
1.95377e-06
-2.76453e-06
2.02265e-06
-3.17724e-06
2.07273e-06
-3.59678e-06
2.10789e-06
-4.02118e-06
2.13117e-06
-4.4486e-06
2.14529e-06
-4.87779e-06
2.15229e-06
-5.30759e-06
2.15392e-06
-5.73719e-06
2.15143e-06
-6.16589e-06
2.14584e-06
-6.59316e-06
2.13785e-06
-7.01853e-06
2.12797e-06
-7.44163e-06
2.11654e-06
-7.86214e-06
2.10378e-06
-8.27974e-06
2.08982e-06
-8.69416e-06
2.07469e-06
-9.10511e-06
2.05841e-06
-9.51231e-06
2.04093e-06
-9.91548e-06
2.02221e-06
-1.03143e-05
2.00216e-06
-1.07085e-05
1.98071e-06
-1.10978e-05
1.95776e-06
-1.14817e-05
1.93323e-06
-1.18601e-05
1.90701e-06
-1.22324e-05
1.87902e-06
-1.25983e-05
1.84916e-06
-1.29574e-05
1.81733e-06
-1.33093e-05
1.78345e-06
-1.36536e-05
1.74741e-06
-1.39898e-05
1.70913e-06
-1.43174e-05
1.66853e-06
-1.4636e-05
1.62552e-06
-1.49451e-05
1.58002e-06
-1.52442e-05
1.53196e-06
-1.55327e-05
1.48127e-06
-1.58102e-05
1.42789e-06
-1.60761e-05
1.37177e-06
-1.633e-05
1.31287e-06
-1.65711e-05
1.25114e-06
-1.67991e-05
1.18656e-06
-1.70134e-05
1.11912e-06
-1.72134e-05
1.04881e-06
-1.73987e-05
9.75663e-07
-1.75686e-05
8.99691e-07
-1.77228e-05
8.2094e-07
-1.78606e-05
7.39469e-07
-1.79816e-05
6.55356e-07
-1.80854e-05
5.68693e-07
-1.81716e-05
4.79593e-07
-1.82396e-05
3.88186e-07
-1.82893e-05
2.94623e-07
-1.83201e-05
1.99069e-07
-1.83319e-05
1.01714e-07
-1.83243e-05
2.75976e-09
-1.82972e-05
-9.75699e-08
-1.82503e-05
-1.99036e-07
-1.81836e-05
-3.01385e-07
-1.8097e-05
-4.04347e-07
-1.79905e-05
-5.0764e-07
-1.78641e-05
-6.10972e-07
-1.77179e-05
-7.14041e-07
-1.7552e-05
-8.16537e-07
-1.73668e-05
-9.18148e-07
-1.71623e-05
-1.01856e-06
-1.69391e-05
-1.11745e-06
-1.66974e-05
-1.21452e-06
-1.64377e-05
-1.30945e-06
-1.61605e-05
-1.40194e-06
-1.58663e-05
-1.49172e-06
-1.55557e-05
-1.57851e-06
-1.52294e-05
-1.66205e-06
-1.48879e-05
-1.74211e-06
-1.45321e-05
-1.81846e-06
-1.41627e-05
-1.89092e-06
-1.37804e-05
-1.95931e-06
-1.3386e-05
-2.02349e-06
-1.29804e-05
-2.08333e-06
-1.25643e-05
-2.13873e-06
-1.21387e-05
-2.18963e-06
-1.17043e-05
-2.23597e-06
-1.1262e-05
-2.27772e-06
-1.08127e-05
-2.31485e-06
-1.03572e-05
-2.34737e-06
-9.89646e-06
-2.37526e-06
-9.43121e-06
-2.39851e-06
-8.96237e-06
-2.4171e-06
-8.49081e-06
-2.43099e-06
-8.01743e-06
-2.44009e-06
-7.54313e-06
-2.44426e-06
-7.06888e-06
-2.44332e-06
-6.59568e-06
-2.43697e-06
-6.12462e-06
-2.42485e-06
-5.65687e-06
-2.40646e-06
-5.19371e-06
-2.38118e-06
-4.73655e-06
-2.34825e-06
-4.28697e-06
-2.30677e-06
-3.84671e-06
-2.25571e-06
-3.41771e-06
-2.19385e-06
-3.00216e-06
-2.11993e-06
-2.6024e-06
-2.03255e-06
-2.22105e-06
-1.93041e-06
-1.86082e-06
-1.81219e-06
-1.52473e-06
-1.67696e-06
-1.21561e-06
-1.5241e-06
-9.3662e-07
-1.3539e-06
-6.90289e-07
-1.16743e-06
-4.79487e-07
-9.67721e-07
-3.05678e-07
-7.59125e-07
-1.70998e-07
-5.49555e-07
-7.49278e-08
-3.48732e-07
-1.88131e-08
-1.71957e-07
-3.57958e-08
-5.57543e-08
2.57578e-07
-1.97212e-07
7.13522e-07
-4.11044e-07
1.1058e-06
-6.79039e-07
1.43865e-06
-9.92873e-07
1.71438e-06
-1.34135e-06
1.93962e-06
-1.71856e-06
2.11961e-06
-2.11743e-06
2.26122e-06
-2.53375e-06
2.37007e-06
-2.96295e-06
2.45204e-06
-3.40209e-06
2.51191e-06
-3.84821e-06
2.55417e-06
-4.29933e-06
2.58237e-06
-4.75356e-06
2.59966e-06
-5.2096e-06
2.60844e-06
-5.66627e-06
2.61072e-06
-6.12272e-06
2.60799e-06
-6.57821e-06
2.60145e-06
-7.03217e-06
2.59192e-06
-7.4841e-06
2.58002e-06
-7.93361e-06
2.56616e-06
-8.38032e-06
2.55061e-06
-8.8239e-06
2.53351e-06
-9.26403e-06
2.51494e-06
-9.7004e-06
2.49489e-06
-1.01327e-05
2.47335e-06
-1.05606e-05
2.45025e-06
-1.09839e-05
2.4255e-06
-1.14021e-05
2.39901e-06
-1.18149e-05
2.37068e-06
-1.22219e-05
2.3404e-06
-1.26229e-05
2.30805e-06
-1.30173e-05
2.27354e-06
-1.34048e-05
2.23674e-06
-1.37849e-05
2.19755e-06
-1.41572e-05
2.15585e-06
-1.45212e-05
2.11154e-06
-1.48765e-05
2.06452e-06
-1.52226e-05
2.01468e-06
-1.55589e-05
1.96192e-06
-1.58849e-05
1.90617e-06
-1.62002e-05
1.84732e-06
-1.65042e-05
1.7853e-06
-1.67962e-05
1.72005e-06
-1.70759e-05
1.6515e-06
-1.73425e-05
1.5796e-06
-1.75956e-05
1.50431e-06
-1.78346e-05
1.42561e-06
-1.80589e-05
1.34348e-06
-1.8268e-05
1.25794e-06
-1.84613e-05
1.16899e-06
-1.86382e-05
1.07668e-06
-1.87983e-05
9.81058e-07
-1.8941e-05
8.82206e-07
-1.90658e-05
7.80218e-07
-1.91723e-05
6.75211e-07
-1.926e-05
5.67324e-07
-1.93285e-05
4.56717e-07
-1.93774e-05
3.43572e-07
-1.94064e-05
2.28096e-07
-1.94152e-05
1.10515e-07
-1.94035e-05
-8.9234e-09
-1.93712e-05
-1.29949e-07
-1.93179e-05
-2.52274e-07
-1.92437e-05
-3.75592e-07
-1.91485e-05
-4.99578e-07
-1.90323e-05
-6.23895e-07
-1.88951e-05
-7.48191e-07
-1.87371e-05
-8.72105e-07
-1.85584e-05
-9.95268e-07
-1.83593e-05
-1.11731e-06
-1.81401e-05
-1.23784e-06
-1.79011e-05
-1.3565e-06
-1.76428e-05
-1.47291e-06
-1.73656e-05
-1.58672e-06
-1.707e-05
-1.69755e-06
-1.67568e-05
-1.80509e-06
-1.64264e-05
-1.909e-06
-1.60795e-05
-2.00899e-06
-1.5717e-05
-2.10477e-06
-1.53394e-05
-2.19609e-06
-1.49478e-05
-2.28272e-06
-1.45427e-05
-2.36446e-06
-1.41252e-05
-2.44115e-06
-1.3696e-05
-2.51263e-06
-1.3256e-05
-2.57881e-06
-1.28062e-05
-2.63958e-06
-1.23474e-05
-2.6949e-06
-1.18805e-05
-2.74473e-06
-1.14065e-05
-2.78905e-06
-1.09261e-05
-2.82784e-06
-1.04404e-05
-2.86111e-06
-9.95023e-06
-2.88884e-06
-9.45646e-06
-2.91101e-06
-8.96003e-06
-2.92756e-06
-8.46186e-06
-2.9384e-06
-7.96292e-06
-2.94335e-06
-7.46419e-06
-2.94219e-06
-6.96673e-06
-2.93458e-06
-6.47165e-06
-2.92007e-06
-5.98016e-06
-2.89809e-06
-5.49357e-06
-2.8679e-06
-5.01334e-06
-2.82862e-06
-4.54107e-06
-2.77917e-06
-4.07855e-06
-2.71835e-06
-3.62776e-06
-2.64476e-06
-3.19091e-06
-2.5569e-06
-2.77037e-06
-2.45319e-06
-2.36883e-06
-2.33207e-06
-1.98902e-06
-2.19207e-06
-1.63402e-06
-2.03208e-06
-1.30673e-06
-1.85141e-06
-1.01043e-06
-1.65033e-06
-7.47773e-07
-1.43005e-06
-5.21892e-07
-1.19378e-06
-3.34498e-07
-9.46361e-07
-1.88242e-07
-6.96103e-07
-8.30222e-08
-4.53583e-07
-2.09918e-08
-2.34499e-07
-5.65227e-08
-5.93237e-08
3.16161e-07
-2.0991e-07
8.65408e-07
-4.37341e-07
1.33216e-06
-7.21987e-07
1.72399e-06
-1.05474e-06
2.04656e-06
-1.42355e-06
2.30874e-06
-1.82208e-06
2.51781e-06
-2.24283e-06
2.68209e-06
-2.68142e-06
2.80845e-06
-3.1331e-06
2.90374e-06
-3.59486e-06
2.97353e-06
-4.06369e-06
3.02296e-06
-4.53757e-06
3.05613e-06
-5.01458e-06
3.07661e-06
-5.4934e-06
3.08716e-06
-5.97282e-06
3.09007e-06
-6.45198e-06
3.08706e-06
-6.93011e-06
3.07949e-06
-7.40661e-06
3.06833e-06
-7.88096e-06
3.0543e-06
-8.35275e-06
3.03786e-06
-8.82155e-06
3.01933e-06
-9.28703e-06
2.9989e-06
-9.74884e-06
2.97666e-06
-1.02066e-05
2.95261e-06
-1.06601e-05
2.92673e-06
-1.11089e-05
2.89895e-06
-1.15526e-05
2.86918e-06
-1.1991e-05
2.83731e-06
-1.24236e-05
2.80322e-06
-1.28501e-05
2.76679e-06
-1.327e-05
2.72791e-06
-1.3683e-05
2.68643e-06
-1.40886e-05
2.64223e-06
-1.44863e-05
2.59518e-06
-1.48757e-05
2.54516e-06
-1.52562e-05
2.49205e-06
-1.56275e-05
2.43572e-06
-1.59889e-05
2.37605e-06
-1.634e-05
2.31295e-06
-1.66802e-05
2.24629e-06
-1.7009e-05
2.176e-06
-1.73257e-05
2.10197e-06
-1.76298e-05
2.02413e-06
-1.79208e-05
1.94241e-06
-1.8198e-05
1.85676e-06
-1.84609e-05
1.76714e-06
-1.87089e-05
1.67351e-06
-1.89413e-05
1.57588e-06
-1.91577e-05
1.47424e-06
-1.93573e-05
1.36863e-06
-1.95398e-05
1.2591e-06
-1.97045e-05
1.14571e-06
-1.98509e-05
1.02856e-06
-1.99784e-05
9.07765e-07
-2.00867e-05
7.8347e-07
-2.01753e-05
6.55839e-07
-2.02436e-05
5.25066e-07
-2.02914e-05
3.91369e-07
-2.03183e-05
2.54993e-07
-2.0324e-05
1.16207e-07
-2.03083e-05
-2.46938e-08
-2.02708e-05
-1.67392e-07
-2.02116e-05
-3.11546e-07
-2.01303e-05
-4.56794e-07
-2.00271e-05
-6.02756e-07
-1.9902e-05
-7.49033e-07
-1.97549e-05
-8.95213e-07
-1.95861e-05
-1.04087e-06
-1.93958e-05
-1.18558e-06
-1.91842e-05
-1.32889e-06
-1.89516e-05
-1.47038e-06
-1.86985e-05
-1.60959e-06
-1.84252e-05
-1.74611e-06
-1.81324e-05
-1.8795e-06
-1.78205e-05
-2.00936e-06
-1.74903e-05