/*--------------------------------*- C++ -*----------------------------------*\
| =========                 |                                                 |
| \\      /  F ield         | OpenFOAM: The Open Source CFD Toolbox           |
|  \\    /   O peration     | Version:  2406                                  |
|   \\  /    A nd           | Website:  www.openfoam.com                      |
|    \\/     M anipulation  |                                                 |
\*---------------------------------------------------------------------------*/
FoamFile
{
    version     2.0;
    format      ascii;
    arch        "LSB;label=32;scalar=64";
    class       surfaceScalarField;
    location    "64.5";
    object      phi_0;
}
// * * * * * * * * * * * * * * * * * * * * * * * * * * * * * * * * * * * * * //

dimensions      [0 3 -1 0 0 0 0];

oriented        oriented;

internalField   nonuniform List<scalar> 
8064
(
2.60059e-07
-2.60087e-07
1.24374e-06
-9.83678e-07
2.70385e-06
-1.46011e-06
4.27308e-06
-1.56924e-06
5.65273e-06
-1.37965e-06
6.68221e-06
-1.02948e-06
7.33483e-06
-6.52624e-07
7.67731e-06
-3.42482e-07
7.81609e-06
-1.38778e-07
7.84678e-06
-3.06841e-08
7.81785e-06
2.89226e-08
7.7253e-06
9.25551e-08
7.51214e-06
2.13153e-07
7.0893e-06
4.22846e-07
6.34978e-06
7.39514e-07
5.18059e-06
1.16919e-06
3.46407e-06
1.71652e-06
1.07962e-06
2.38445e-06
-2.09226e-06
3.17188e-06
-6.16183e-06
4.06957e-06
-1.12208e-05
5.05895e-06
-1.73259e-05
6.10511e-06
-2.44817e-05
7.15583e-06
-3.26247e-05
8.14295e-06
-4.16126e-05
8.9879e-06
-5.12208e-05
9.60824e-06
-6.11446e-05
9.92379e-06
-7.10082e-05
9.86361e-06
-8.03824e-05
9.37419e-06
-8.88099e-05
8.42752e-06
-9.58365e-05
7.02659e-06
-0.00010104
5.20381e-06
-0.000104054
3.01361e-06
-0.000104623
5.6872e-07
-0.000102364
-2.25869e-06
-9.71839e-05
-5.18006e-06
-8.91088e-05
-8.07508e-06
-7.828e-05
-1.08288e-05
-6.49876e-05
-1.32924e-05
-4.96842e-05
-1.53034e-05
-3.29875e-05
-1.66967e-05
-1.56687e-05
-1.73189e-05
1.38263e-06
-1.70513e-05
1.73399e-05
-1.59573e-05
3.12051e-05
-1.38652e-05
4.22376e-05
-1.10325e-05
4.98665e-05
-7.6289e-06
5.389e-05
-4.02353e-06
5.44524e-05
-5.62389e-07
5.19886e-05
2.46376e-06
4.7252e-05
4.73665e-06
4.10797e-05
6.17233e-06
3.43061e-05
6.77354e-06
2.76264e-05
6.67973e-06
2.15182e-05
6.1082e-06
1.62364e-05
5.28178e-06
1.18548e-05
4.3816e-06
8.32512e-06
3.52969e-06
5.5346e-06
2.79052e-06
3.35667e-06
2.17793e-06
1.69973e-06
1.65694e-06
5.54103e-07
1.14563e-06
-3.0408e-09
5.57141e-07
-3.04304e-09
9.22658e-07
-1.18274e-06
3.2867e-06
-3.34772e-06
6.46463e-06
-4.63804e-06
9.75973e-06
-4.86434e-06
1.26138e-05
-4.23374e-06
1.47035e-05
-3.1191e-06
1.59382e-05
-1.88735e-06
1.63935e-05
-7.97792e-07
1.62154e-05
3.9295e-08
1.55295e-05
6.55256e-07
1.43756e-05
1.18282e-06
1.26762e-05
1.79194e-06
1.02507e-05
2.63863e-06
6.84739e-06
3.82617e-06
2.17328e-06
5.41362e-06
-4.07594e-06
7.41841e-06
-1.21938e-05
9.83437e-06
-2.24432e-05
1.26338e-05
-3.50233e-05
1.5752e-05
-5.00225e-05
1.90688e-05
-6.73635e-05
2.23999e-05
-8.67627e-05
2.55043e-05
-0.000107723
2.81157e-05
-0.000129564
2.99844e-05
-0.00015149
3.09139e-05
-0.000172663
3.07813e-05
-0.000192279
2.95394e-05
-0.00020962
2.72051e-05
-0.000224087
2.38408e-05
-0.000235199
1.95398e-05
-0.000242593
1.442e-05
-0.000246021
8.63224e-06
-0.000245405
2.39743e-06
-0.000240433
-4.40316e-06
-0.00023119
-1.15013e-05
-0.000217765
-1.86054e-05
-0.000200316
-2.55246e-05
-0.000179126
-3.20179e-05
-0.000154615
-3.78034e-05
-0.000127348
-4.25704e-05
-9.805e-05
-4.5995e-05
-6.76026e-05
-4.77663e-05
-3.70221e-05
-4.76318e-05
-7.51745e-06
-4.54619e-05
1.98883e-05
-4.12709e-05
4.39912e-05
-3.51354e-05
6.36669e-05
-2.73045e-05
7.8258e-05
-1.86147e-05
8.73676e-05
-9.67196e-06
9.11329e-05
-1.30149e-06
8.97993e-05
6.07017e-06
8.42348e-05
1.17369e-05
7.55606e-05
1.54477e-05
6.50285e-05
1.72118e-05
5.38305e-05
1.73062e-05
4.2936e-05
1.61763e-05
3.30024e-05
1.43152e-05
2.43653e-05
1.21668e-05
1.71107e-05
1.00451e-05
1.11754e-05
8.11327e-06
6.46172e-06
6.3706e-06
2.94629e-06
4.66106e-06
7.38753e-07
2.76468e-06
7.35709e-07
1.42626e-06
-2.60901e-06
4.70382e-06
-6.62528e-06
8.8408e-06
-8.77503e-06
1.29306e-05
-8.95418e-06
1.62939e-05
-7.59703e-06
1.85436e-05
-5.36876e-06
1.95558e-05
-2.8995e-06
1.93779e-05
-6.19962e-07
1.81129e-05
1.30427e-06
1.5815e-05
2.95325e-06
1.24127e-05
4.58513e-06
7.68818e-06
6.51641e-06
1.29413e-06
9.03268e-06
-7.19843e-06
1.23187e-05
-1.82335e-05
1.64487e-05
-3.22271e-05
2.14119e-05
-4.9499e-05
2.71063e-05
-7.01862e-05
3.3321e-05
-9.41456e-05
3.97114e-05
-0.00012089
4.58127e-05
-0.000149599
5.1109e-05
-0.000179226
5.51316e-05
-0.000208651
5.75412e-05
-0.000236829
5.81617e-05
-0.00026288
5.69651e-05
-0.000286128
5.40299e-05
-0.000306086
4.94971e-05
-0.000322417
4.35364e-05
-0.000334901
3.63248e-05
-0.000343397
2.80353e-05
-0.000347821
1.88435e-05
-0.000348144
8.956e-06
-0.000344373
-1.37399e-06
-0.000336421
-1.23545e-05
-0.000324451
-2.34722e-05
-0.000308496
-3.456e-05
-0.000288653
-4.53673e-05
-0.0002651
-5.55714e-05
-0.000238105
-6.47985e-05
-0.000208057
-7.26183e-05
-0.000175487
-7.85648e-05
-0.000141087
-8.21666e-05
-0.000105714
-8.30048e-05
-7.03911e-05
-8.07845e-05
-3.62932e-05
-7.53689e-05
-4.59155e-06
-6.6837e-05
2.38164e-05
-5.57125e-05
4.76872e-05
-4.24856e-05
6.62539e-05
-2.82386e-05
7.90647e-05
-1.41123e-05
8.63658e-05
-1.23087e-06
8.81255e-05
9.97717e-06
8.50933e-05
1.84799e-05
7.82522e-05
2.40529e-05
6.8775e-05
2.67835e-05
5.78787e-05
2.70726e-05
4.66544e-05
2.55394e-05
3.59402e-05
2.2881e-05
2.62632e-05
1.97222e-05
1.78806e-05
1.64958e-05
1.08904e-05
1.33608e-05
5.38092e-06
1.01706e-05
1.57922e-06
6.56638e-06
2.31493e-06
1.76068e-06
-4.36968e-06
5.58419e-06
-1.04488e-05
1.01403e-05
-1.33311e-05
1.43336e-05
-1.31475e-05
1.74185e-05
-1.0682e-05
1.90034e-05
-6.95362e-06
1.89637e-05
-2.8598e-06
1.7307e-05
1.03669e-06
1.4044e-05
4.56732e-06
9.08171e-06
7.9155e-06
2.15773e-06
1.15091e-05
-7.15734e-06
1.58315e-05
-1.93858e-05
2.12611e-05
-3.50689e-05
2.80019e-05
-5.46627e-05
3.60425e-05
-7.84049e-05
4.51541e-05
-0.000106177
5.48781e-05
-0.000137399
6.45436e-05
-0.000171051
7.33627e-05
-0.000205828
8.05906e-05
-0.000240393
8.56734e-05
-0.000273573
8.83118e-05
-0.000304472
8.84401e-05
-0.000332471
8.61606e-05
-0.000357182
8.16762e-05
-0.000378389
7.52374e-05
-0.000395994
6.7102e-05
-0.000409969
5.75109e-05
-0.00042032
4.66758e-05
-0.000427064
3.47797e-05
-0.000430213
2.19923e-05
-0.000429753
8.49601e-06
-0.000425591
-5.536e-06
-0.00041791
-2.00356e-05
-0.000406598
-3.47839e-05
-0.000391604
-4.95545e-05
-0.0003729
-6.40706e-05
-0.000350499
-7.7973e-05
-0.000324476
-9.08214e-05
-0.000295005
-0.000102089
-0.00026239
-0.00011118
-0.000227103
-0.000117453
-0.000189815
-0.000120293
-0.000151411
-0.000119189
-0.00011296
-0.00011382
-7.56305e-05
-0.000104166
-4.07451e-05
-9.05979e-05
-9.3971e-06
-7.38336e-05
1.746e-05
-5.50958e-05
3.89995e-05
-3.56518e-05
5.47408e-05
-1.69721e-05
6.5051e-05
-3.33031e-07
6.99045e-05
1.36263e-05
6.99454e-05
2.4012e-05
6.59852e-05
3.07436e-05
5.90353e-05
3.40226e-05
5.01949e-05
3.43798e-05
4.05047e-05
3.25712e-05
3.08195e-05
2.94074e-05
2.17519e-05
2.55634e-05
1.37119e-05
2.14008e-05
7.03165e-06
1.68508e-05
2.16732e-06
1.14307e-05
4.48225e-06
1.98901e-06
-6.35869e-06
6.06118e-06
-1.4521e-05
1.05609e-05
-1.78308e-05
1.42347e-05
-1.68213e-05
1.63178e-05
-1.2765e-05
1.64533e-05
-7.08917e-06
1.45333e-05
-9.3978e-07
1.04946e-05
5.07537e-06
4.22306e-06
1.08389e-05
-4.60579e-06
1.67444e-05
-1.64891e-05
2.33924e-05
-3.20327e-05
3.13751e-05
-5.1833e-05
4.10615e-05
-7.62967e-05
5.24655e-05
-0.000105458
6.52036e-05
-0.000138823
7.85195e-05
-0.00017534
9.1395e-05
-0.000213557
0.000102761
-0.000251928
0.000111734
-0.0002891
0.000117763
-0.000324065
0.000120637
-0.000356166
0.000120413
-0.000385042
0.000117316
-0.000410536
0.000111654
-0.000432618
0.000103759
-0.000451336
9.39551e-05
-0.000466767
8.25331e-05
-0.000478997
6.97411e-05
-0.000488105
5.57833e-05
-0.00049415
4.08252e-05
-0.000497158
2.49996e-05
-0.000497051
8.38928e-06
-0.000493854
-8.73294e-06
-0.000487639
-2.62501e-05
-0.000478263
-4.41604e-05
-0.000465586
-6.22319e-05
-0.000449472
-8.01839e-05
-0.000429787
-9.76583e-05
-0.000406419
-0.000114189
-0.000379315
-0.000129194
-0.000348513
-0.000141981
-0.00031421
-0.000151757
-0.000276808
-0.000157694
-0.000236972
-0.000159026
-0.000195639
-0.000155153
-0.000154009
-0.000145796
-0.00011349
-0.000131117
-7.55013e-05
-0.000111822
-4.1417e-05
-8.918e-05
-1.2237e-05
-6.48318e-05
1.13977e-05
-4.06069e-05
2.92155e-05
-1.81508e-05
4.15273e-05
1.31456e-06
4.86064e-05
1.69329e-05
5.10145e-05
2.83355e-05
4.94778e-05
3.55593e-05
4.48811e-05
3.89765e-05
3.81926e-05
3.92597e-05
3.0356e-05
3.7244e-05
2.21952e-05
3.37242e-05
1.43882e-05
2.92078e-05
7.54034e-06
2.36987e-05
2.36471e-06
1.66063e-05
6.84696e-06
2.13234e-06
-8.49103e-06
6.15384e-06
-1.85425e-05
1.01037e-05
-2.17807e-05
1.26311e-05
-1.93487e-05
1.30072e-05
-1.31412e-05
1.09415e-05
-5.02342e-06
6.30704e-06
3.69465e-06
-1.02518e-06
1.24076e-05
-1.14078e-05
2.12215e-05
-2.53747e-05
3.07113e-05
-4.36026e-05
4.16203e-05
-6.67106e-05
5.44831e-05
-9.50155e-05
6.93664e-05
-0.000128305
8.5755e-05
-0.000165714
0.000102612
-0.000205802
0.000118608
-0.000246852
0.000132445
-0.000287244
0.000143153
-0.000325715
0.000150205
-0.000361434
0.000153482
-0.000393941
0.000153144
-0.000423042
0.000149514
-0.000448716
0.000142991
-0.000471046
0.000133984
-0.000490165
0.000122878
-0.000506228
0.000110018
-0.000519389
9.56941e-05
-0.000529795
8.01475e-05
-0.000537579
6.35675e-05
-0.00054285
4.60964e-05
-0.00054567
2.78191e-05
-0.000545994
8.71379e-06
-0.000543926
-1.08008e-05
-0.000539481
-3.06955e-05
-0.000532517
-5.11247e-05
-0.000522869
-7.18799e-05
-0.000510326
-9.2727e-05
-0.000494633
-0.000113351
-0.000475504
-0.000133318
-0.000452645
-0.000152053
-0.000425801
-0.000168825
-0.000394809
-0.000182749
-0.000359676
-0.000192826
-0.000320673
-0.000198029
-0.000278437
-0.000197389
-0.00023401
-0.000190224
-0.000188833
-0.000176294
-0.000144646
-0.000156009
-0.0001033
-0.000130526
-6.64327e-05
-0.000101699
-3.52092e-05
-7.18304e-05
-1.01448e-05
-4.32152e-05
8.83396e-06
-1.76642e-05
2.21232e-05
3.64365e-06
3.03201e-05
2.01386e-05
3.40446e-05
3.18348e-05
3.40087e-05
3.90123e-05
3.10216e-05
4.22468e-05
2.59626e-05
4.2303e-05
1.97118e-05
3.9975e-05
1.31053e-05
3.58142e-05
6.95941e-06
2.98446e-05
2.18268e-06
2.13831e-05
9.02964e-06
2.16065e-06
-1.06517e-05
5.76493e-06
-2.21467e-05
8.61132e-06
-2.46271e-05
9.34197e-06
-2.00793e-05
7.31824e-06
-1.11174e-05
2.32809e-06
-3.32719e-08
-5.81364e-06
1.18364e-05
-1.73786e-05
2.39726e-05
-3.29092e-05
3.6752e-05
-5.31099e-05
5.0912e-05
-7.86027e-05
6.71131e-05
-0.000109623
8.55036e-05
-0.000145753
0.000105497
-0.000185837
0.000125838
-0.00022816
0.000144935
-0.000270844
0.000161293
-0.000312251
0.000173852
-0.000351199
0.000182101
-0.000386974
0.00018598
-0.000419227
0.000185735
-0.000447862
0.00018178
-0.000472941
0.000174593
-0.000494613
0.000164663
-0.000513081
0.000152452
-0.000528576
0.000138372
-0.000541334
0.000122776
-0.000551592
0.000105952
-0.000559572
8.8127e-05
-0.000565475
6.94703e-05
-0.000569472
5.00937e-05
-0.000571691
3.00383e-05
-0.000572205
9.22765e-06
-0.000571096
-1.19097e-05
-0.000568369
-3.3423e-05
-0.000563939
-5.5554e-05
-0.000557658
-7.81613e-05
-0.000549292
-0.000101093
-0.000538523
-0.00012412
-0.000524942
-0.000146899
-0.000508062
-0.000168933
-0.000487349
-0.000189539
-0.000462266
-0.000207832
-0.000432363
-0.000222729
-0.000397393
-0.000232999
-0.000357429
-0.000237353
-0.000313027
-0.000234625
-0.000265359
-0.000223962
-0.000216204
-0.000205164
-0.000167832
-0.000178898
-0.000122683
-0.000146848
-8.29049e-05
-0.000111608
-4.98777e-05
-7.62424e-05
-2.39588e-05
-4.35832e-05
-4.7194e-06
-1.55957e-05
8.6046e-06
6.81459e-06
1.68951e-05
2.35443e-05
2.09517e-05
3.49557e-05
2.151e-05
4.16885e-05
1.93792e-05
4.44339e-05
1.54192e-05
4.3935e-05
1.05272e-05
4.07062e-05
5.63531e-06
3.47365e-05
1.74437e-06
2.5274e-05
1.0774e-05
2.00969e-06
-1.26614e-05
4.73302e-06
-2.48701e-05
5.86241e-06
-2.57564e-05
4.14144e-06
-1.83584e-05
-9.22712e-07
-6.05329e-06
-9.5327e-06
8.57672e-06
-2.18914e-05
2.41951e-05
-3.84826e-05
4.05638e-05
-5.99615e-05
5.82309e-05
-8.69373e-05
7.78878e-05
-0.000119601
9.97768e-05
-0.000157415
0.000123317
-0.000199041
0.000147123
-0.000242588
0.000169385
-0.000286064
0.000188411
-0.000327799
0.000203027
-0.000366637
0.00021269
-0.000401913
0.000217377
-0.000433334
0.000217401
-0.000460856
0.000213256
-0.000484587
0.000205511
-0.000504741
0.000194747
-0.000521596
0.000181518
-0.000535465
0.000166321
-0.000546677
0.000149584
-0.000555558
0.000131658
-0.000562421
0.000112815
-0.000567549
9.32559e-05
-0.000571196
7.31173e-05
-0.000573576
5.2473e-05
-0.000574868
3.13308e-05
-0.000575238
9.59754e-06
-0.000574743
-1.24044e-05
-0.000573388
-3.47787e-05
-0.000571164
-5.77781e-05
-0.000567981
-8.13434e-05
-0.000563657
-0.000105418
-0.000557893
-0.000129884
-0.000550265
-0.000154527
-0.00054021
-0.000178988
-0.000527026
-0.000202724
-0.000509896
-0.000224961
-0.000487956
-0.000244669
-0.000460395
-0.00026056
-0.000426609
-0.000271138
-0.000386416
-0.000274818
-0.000340238
-0.00027014
-0.000289358
-0.000256045
-0.000235974
-0.000232282
-0.000183045
-0.000199777
-0.000133832
-0.000160822
-9.11653e-05
-0.000118909
-5.67006e-05
-7.80479e-05
-3.06027e-05
-4.16936e-05
-1.19453e-05
-1.18428e-05
5.92864e-07
1.10062e-05
8.15749e-06
2.73911e-05
1.17693e-05
3.80767e-05
1.22757e-05
4.39275e-05
1.05354e-05
4.56753e-05
7.46209e-06
4.37795e-05
4.02332e-06
3.81753e-05
1.21447e-06
2.80829e-05
1.19885e-05
1.6004e-06
-1.42618e-05
2.89133e-06
-2.6161e-05
1.65039e-06
-2.45155e-05
-3.10953e-06
-1.35985e-05
-1.17741e-05
2.61125e-06
-2.45397e-05
2.13423e-05
-4.17102e-05
4.13656e-05
-6.38433e-05
6.26968e-05
-9.15028e-05
8.58904e-05
-0.000124871
0.000111256
-0.000163384
0.000138291
-0.000205638
0.000165571
-0.000249639
0.000191124
-0.0002933
0.000213046
-0.000334885
0.000229996
-0.000373206
0.000241348
-0.000407598
0.000247082
-0.00043778
0.000247559
-0.000463732
0.000243354
-0.000485614
0.000235138
-0.000503706
0.000223602
-0.000518369
0.00020941
-0.000530009
0.000193158
-0.000539047
0.000175359
-0.000545895
0.000156432
-0.000550937
0.0001367
-0.000554518
0.000116396
-0.000556941
9.56781e-05
-0.000558458
7.46348e-05
-0.000559283
5.32978e-05
-0.000559602
3.16502e-05
-0.000559621
9.61613e-06
-0.000559369
-1.26566e-05
-0.00055885
-3.52979e-05
-0.000558137
-5.84903e-05
-0.000557223
-8.22582e-05
-0.000556013
-0.000106627
-0.000554315
-0.000131582
-0.000551804
-0.000157038
-0.000547991
-0.0001828
-0.000542194
-0.000208521
-0.000533517
-0.000233638
-0.00052087
-0.000257316
-0.000503028
-0.000278402
-0.000478764
-0.000295403
-0.000447045
-0.000306537
-0.000407325
-0.00030986
-0.000359843
-0.000303527
-0.000305948
-0.000286177
-0.00024831
-0.000257414
-0.000190728
-0.000218404
-0.00013749
-0.000172147
-9.22724e-05
-0.000123265
-5.70135e-05
-7.69526e-05
-3.15149e-05
-3.73414e-05
-1.4217e-05
-6.29173e-06
-3.17723e-06
1.63513e-05
3.12741e-06
3.17721e-05
5.87067e-06
4.11842e-05
6.04959e-06
4.54964e-05
4.61659e-06
4.52125e-05
2.53586e-06
4.0256e-05
7.40951e-07
2.98778e-05
1.27294e-05
8.61514e-07
-1.51233e-05
1.0863e-07
-2.54081e-05
-4.0451e-06
-2.03618e-05
-1.23675e-05
-5.27605e-06
-2.50857e-05
1.53294e-05
-4.23804e-05
3.86371e-05
-6.46331e-05
6.36183e-05
-9.23148e-05
9.03785e-05
-0.000125612
0.000119188
-0.000164017
0.000149661
-0.00020616
0.000180433
-0.000250024
0.000209434
-0.00029344
0.00023454
-0.000334573
0.000254179
-0.000372157
0.00026758
-0.000405482
0.000274673
-0.000434254
0.000275853
-0.000458471
0.000271776
-0.000478343
0.000263225
-0.000494225
0.00025102
-0.00050657
0.000235948
-0.000515883
0.000218722
-0.000522672
0.000199947
-0.000527425
0.000180112
-0.000530581
0.000159588
-0.000532522
0.00013864
-0.000533567
0.000117441
-0.000533976
9.60877e-05
-0.000533959
7.46174e-05
-0.000533683
5.30218e-05
-0.000533297
3.1264e-05
-0.000532976
9.295e-06
-0.000532729
-1.29033e-05
-0.000532587
-3.54396e-05
-0.000532657
-5.84201e-05
-0.00053299
-8.1926e-05
-0.000533588
-0.000106028
-0.000534394
-0.000130777
-0.000535249
-0.000156183
-0.000535853
-0.000182196
-0.000535713
-0.000208661
-0.000534088
-0.000235263
-0.000529946
-0.000261459
-0.000521959
-0.000286389
-0.000508554
-0.000308808
-0.000488059
-0.000327032
-0.000458952
-0.000338968
-0.000420227
-0.000342252
-0.000371855
-0.000334549
-0.000315214
-0.000314055
-0.000253469
-0.000280148
-0.000191407
-0.000234209
-0.000134542
-0.00018013
-8.75037e-05
-0.000123991
-5.23888e-05
-7.24563e-05
-2.8371e-05
-3.03094e-05
-1.30876e-05
1.06788e-06
-3.97198e-06
2.26564e-05
7.95437e-07
3.64168e-05
2.57149e-06
4.37203e-05
2.46366e-06
4.53203e-05
1.45623e-06
4.12634e-05
4.22701e-07
3.09113e-05
1.31521e-05
-2.53607e-07
-1.48697e-05
-3.57288e-06
-2.20889e-05
-1.117e-05
-1.27647e-05
-2.34114e-05
6.96532e-06
-4.03998e-05
3.23178e-05
-6.23272e-05
6.05645e-05
-8.95156e-05
9.08067e-05
-0.000122139
0.000123002
-0.000159792
0.000156841
-0.000201232
0.000191101
-0.000244498
0.000223699
-0.000287373
0.000252309
-0.000327904
0.000275071
-0.000364705
0.000290981
-0.000396985
0.00029986
-0.000424415
0.000302103
-0.000447004
0.000298442
-0.000465009
0.000289781
-0.000478863
0.00027708
-0.000489116
0.000261272
-0.000496364
0.000243196
-0.000501203
0.000223561
-0.000504184
0.000202929
-0.000505789
0.000181717
-0.000506418
0.000160217
-0.000506388
0.00013861
-0.000505943
0.000116996
-0.000505265
9.541e-05
-0.000504489
7.38411e-05
-0.000503718
5.22513e-05
-0.000503045
3.05907e-05
-0.000502567
8.8167e-06
-0.000502304
-1.31662e-05
-0.000502304
-3.54394e-05
-0.000502656
-5.80682e-05
-0.000503441
-8.11414e-05
-0.000504728
-0.000104741
-0.000506564
-0.000128941
-0.000508944
-0.000153804
-0.000511774
-0.000179366
-0.000514819
-0.000205615
-0.000517633
-0.000232449
-0.000519479
-0.000259613
-0.000519258
-0.00028661
-0.000515468
-0.000312597
-0.000506235
-0.000336265
-0.000489449
-0.000355754
-0.000463061
-0.00036864
-0.000425544
-0.000372066
-0.000376507
-0.000363093
-0.000317328
-0.000339328
-0.000251698
-0.000299839
-0.000185559
-0.000246269
-0.000125847
-0.000183703
-7.81412e-05
-0.000120162
-4.43846e-05
-6.4066e-05
-2.27441e-05
-2.05726e-05
-9.93228e-06
9.84459e-06
-2.94549e-06
2.943e-05
2.80771e-07
4.04941e-05
1.1961e-06
4.4405e-05
9.08747e-07
4.15508e-05
3.00912e-07
3.15191e-05
1.3453e-05
-1.74273e-06
-1.31269e-05
-8.11919e-06
-1.57124e-05
-1.9478e-05
-1.40583e-06
-3.57481e-05
2.32354e-05
-5.69829e-05
5.35526e-05
-8.33015e-05
8.68831e-05
-0.000114816
0.000122321
-0.00015123
0.000159416
-0.000191497
0.000197107
-0.000233798
0.000233402
-0.000275926
0.000265827
-0.000315813
0.000292197
-0.000351923
0.000311181
-0.000383343
0.000322401
-0.000409686
0.000326203
-0.000430954
0.000323372
-0.000447443
0.000314931
-0.000459657
0.000301995
-0.000468232
0.000285655
-0.000473856
0.000266897
-0.000477202
0.000246542
-0.000478877
0.000225236
-0.000479395
0.000203446
-0.000479162
0.000181484
-0.000478485
0.00015954
-0.000477583
0.000137708
-0.000476602
0.000116015
-0.000475638
9.44452e-05
-0.00047475
7.29534e-05
-0.000473983
5.14839e-05
-0.000473372
2.99804e-05
-0.000472962
8.4066e-06
-0.000472766
-1.3362e-05
-0.000472834
-3.53718e-05
-0.000473237
-5.76656e-05
-0.000474057
-8.03213e-05
-0.000475388
-0.000103409
-0.000477329
-0.000127
-0.000479967
-0.000151166
-0.000483352
-0.000175981
-0.00048746
-0.000201507
-0.000492135
-0.000227775
-0.000497004
-0.000254744
-0.000501381
-0.000282232
-0.000504161
-0.000309818
-0.000503735
-0.000336691
-0.000497986
-0.000361503
-0.000484409
-0.000382217
-0.00046043
-0.000396044
-0.000423964
-0.000399559
-0.000374201
-0.00038909
-0.000312512
-0.000361528
-0.000243213
-0.000315568
-0.000173618
-0.000253299
-0.000112257
-0.000181522
-6.54698e-05
-0.000110854
-3.44378e-05
-5.16046e-05
-1.5995e-05
-8.59823e-06
-5.93756e-06
1.93725e-05
-1.0674e-06
3.56239e-05
7.26612e-07
4.2611e-05
8.62565e-07
4.14148e-05
3.63417e-07
3.20183e-05
1.38165e-05
-3.56408e-06
-9.56286e-06
-1.33291e-05
-5.94735e-06
-2.84692e-05
1.37343e-05
-4.86985e-05
4.34646e-05
-7.38812e-05
7.87353e-05
-0.000104006
0.000117008
-0.000138846
0.000157161
-0.000177577
0.000198147
-0.00021861
0.00023814
-0.000259827
0.00027462
-0.000299084
0.000305084
-0.000334674
0.000327787
-0.000365526
0.000342032
-0.000391155
0.00034803
-0.000411531
0.000346579
-0.000426966
0.000338807
-0.000438019
0.000325984
-0.000445402
0.000309377
-0.000449883
0.000290136
-0.000452204
0.000269218
-0.000453024
0.000247362
-0.00045288
0.000225093
-0.000452185
0.000202751
-0.00045123
0.000180529
-0.000450205
0.000158516
-0.000449224
0.000136727
-0.000448344
0.000115135
-0.000447589
9.36901e-05
-0.000446966
7.23304e-05
-0.000446476
5.09947e-05
-0.000446124
2.96282e-05
-0.000445912
8.19453e-06
-0.000445861
-1.34134e-05
-0.000446009
-3.52239e-05
-0.000446407
-5.72674e-05
-0.000447127
-7.96012e-05
-0.00044826
-0.000102276
-0.000449914
-0.000125346
-0.000452208
-0.000148872
-0.000455263
-0.000172926
-0.000459176
-0.000197594
-0.000463986
-0.000222965
-0.00046961
-0.00024912
-0.000475755
-0.000276088
-0.000481803
-0.000303769
-0.000486674
-0.000331821
-0.000488698
-0.000359479
-0.000485569
-0.000385345
-0.000474433
-0.000407181
-0.000452217
-0.000421774
-0.000416282
-0.000425026
-0.000365404
-0.000412406
-0.000301002
-0.00037997
-0.000228224
-0.000326077
-0.00015607
-0.000253675
-9.47836e-05
-0.000172141
-5.09052e-05
-9.5483e-05
-2.39921e-05
-3.55113e-05
-9.27665e-06
4.6571e-06
-2.08416e-06
2.84314e-05
7.29285e-07
3.97976e-05
1.159e-06
4.09851e-05
5.57271e-07
3.262e-05
1.43737e-05
-5.59555e-06
-3.9673e-06
-1.87907e-05
7.2478e-06
-3.76466e-05
3.25902e-05
-6.14826e-05
6.73006e-05
-9.00543e-05
0.000107307
-0.000123123
0.000150077
-0.000160062
0.0001941
-0.000199569
0.000237654
-0.000239716
0.000278287
-0.000278351
0.000313255
-0.000313611
0.000340344
-0.000344227
0.000358402
-0.00036957
0.000367376
-0.00038954
0.000368
-0.00040443
0.00036147
-0.000414828
0.000349205
-0.000421503
0.000332659
-0.000425292
0.000313167
-0.000427002
0.000291846
-0.000427338
0.000269554
-0.000426864
0.000246888
-0.000425995
0.000224224
-0.000425011
0.000201766
-0.000424078
0.000179596
-0.00042328
0.000157717
-0.000422644
0.000136091
-0.000422167
0.000114658
-0.000421829
9.3352e-05
-0.000421608
7.2109e-05
-0.000421485
5.08719e-05
-0.000421449
2.95923e-05
-0.000421489
8.23412e-06
-0.000421625
-1.32766e-05
-0.000421887
-3.49618e-05
-0.000422309
-5.68453e-05
-0.000422947
-7.89637e-05
-0.000423873
-0.00010135
-0.000425182
-0.000124038
-0.000426985
-0.000147069
-0.000429414
-0.000170497
-0.000432613
-0.000194395
-0.000436717
-0.000218861
-0.000441818
-0.000244018
-0.000447905
-0.000270001
-0.000454761
-0.000296913
-0.000461832
-0.000324749
-0.000468067
-0.000353244
-0.000471745
-0.000381668
-0.000470385
-0.00040854
-0.000460809
-0.00043135
-0.000439479
-0.000446356
-0.000403239
-0.000448646
-0.000350531
-0.000432679
-0.000282993
-0.000393615
-0.000206988
-0.00032968
-0.000133637
-0.000245492
-7.47888e-05
-0.000154331
-3.60391e-05
-7.4261e-05
-1.43357e-05
-1.70463e-05
-3.61806e-06
1.77138e-05
7.16472e-07
3.5463e-05
1.55505e-06
4.01465e-05
8.04383e-07
3.33707e-05
1.51781e-05
-7.67116e-06
3.70386e-06
-2.41605e-05
2.37372e-05
-4.639e-05
5.48196e-05
-7.33067e-05
9.42173e-05
-0.000104516
0.000138517
-0.000139511
0.000185071
-0.000177279
0.000231868
-0.000216173
0.000276548
-0.000254143
0.000316257
-0.000289214
0.000348327
-0.000319907
0.000371036
-0.000345395
0.00038389
-0.000365451
0.000387432
-0.000380312
0.00038286
-0.000390556
0.000371714
-0.000396983
0.000355632
-0.000400486
0.000336162
-0.000401931
0.000314611
-0.00040207
0.000291985
-0.000401498
0.000268982
-0.000400642
0.000246032
-0.000399774
0.000223356
-0.000399042
0.000201035
-0.000398508
0.000179063
-0.000398179
0.000157388
-0.000398028
0.000135941
-0.000398019
0.000114649
-0.000398114
9.34473e-05
-0.000398283
7.2278e-05
-0.000398504
5.10933e-05
-0.000398765
2.9853e-05
-0.000399055
8.52415e-06
-0.000399393
-1.29384e-05
-0.0003998
-3.45549e-05
-0.000400301
-5.63449e-05
-0.000400934
-7.83307e-05
-0.000401751
-0.000100532
-0.000402821
-0.000122968
-0.000404229
-0.000145661
-0.000406084
-0.000168642
-0.00040852
-0.000191959
-0.000411693
-0.000215687
-0.000415772
-0.00023994
-0.000420898
-0.000264875
-0.000427127
-0.000290685
-0.000434317
-0.000317559
-0.000441972
-0.000345589
-0.000449051
-0.000374588
-0.000453759
-0.000403833
-0.000453413
-0.000431696
-0.000444493
-0.000455276
-0.000423011
-0.000470128
-0.000385368
-0.000470322
-0.000329836
-0.000449146
-0.000258625
-0.000400891
-0.000179941
-0.000324177
-0.00010752
-0.000226752
-5.41264e-05
-0.000127655
-2.25058e-05
-4.86669e-05
-6.56115e-06
1.76911e-06
1.48095e-07
2.87538e-05
1.78357e-06
3.85111e-05
1.02101e-06
3.41332e-05
1.61991e-05
-9.62441e-06
1.33283e-05
-2.9098e-05
4.32108e-05
-5.41654e-05
7.9887e-05
-8.34797e-05
0.000123532
-0.000116464
0.000171501
-0.000152336
0.000220944
-0.000189775
0.000269307
-0.000226948
0.000313721
-0.00026187
0.000351179
-0.000292872
0.000379328
-0.000318884
0.000397048
-0.000339491
0.000404498
-0.000354819
0.000402759
-0.000365392
0.000393434
-0.000372008
0.000378329
-0.000375592
0.000359217
-0.000377065
0.000337634
-0.000377231
0.000314777
-0.000376726
0.00029148
-0.000375994
0.000268251
-0.000375313
0.00024535
-0.000374823
0.000222866
-0.000374572
0.000200783
-0.000374547
0.000179038
-0.000374711
0.000157551
-0.000375014
0.000136243
-0.00037541
0.000115045
-0.000375863
9.38999e-05
-0.000376346
7.27606e-05
-0.000376842
5.15901e-05
-0.000377346
3.03568e-05
-0.000377855
9.03281e-06
-0.000378383
-1.24097e-05
-0.000378949
-3.39895e-05
-0.00037957
-5.57233e-05
-0.000380275
-7.76263e-05
-0.000381096
-9.9711e-05
-0.000382076
-0.000121987
-0.000383272
-0.000144466
-0.000384755
-0.000167159
-0.000386624
-0.00019009
-0.000389009
-0.000213303
-0.000392073
-0.000236876
-0.000396008
-0.000260939
-0.000401005
-0.000285687
-0.000407186
-0.000311379
-0.00041448
-0.000338295
-0.00042244
-0.000366627
-0.00043001
-0.000396264
-0.000435265
-0.000426441
-0.000435258
-0.000455283
-0.000426072
-0.000479314
-0.000403261
-0.000493133
-0.00036289
-0.000489518
-0.000303358
-0.000460422
-0.000228045
-0.00039949
-0.000147931
-0.000306866
-7.96846e-05
-0.000195901
-3.50087e-05
-9.33427e-05
-1.1651e-05
-2.15886e-05
-1.3902e-06
1.8493e-05
1.63144e-06
3.54894e-05
1.14251e-06
3.46222e-05
1.73416e-05
-1.13422e-05
2.46704e-05
-3.3272e-05
6.51406e-05
-6.05297e-05
0.000107145
-9.14777e-05
0.00015448
-0.000125352
0.000205375
-0.000161131
0.000256723
-0.000197288
0.000305464
-0.000231958
0.000348391
-0.000263359
0.00038258
-0.000290172
0.000406141
-0.000311731
0.000418607
-0.000327981
0.000420748
-0.000339342
0.000414121
-0.000346563
0.000400655
-0.000350577
0.000382343
-0.000352345
0.000360985
-0.000352728
0.000338017
-0.000352411
0.00031446
-0.000351874
0.000290943
-0.000351412
0.000267789
-0.000351168
0.000245107
-0.000351183
0.000222881
-0.000351436
0.000201036
-0.000351878
0.00017948
-0.000352453
0.000158126
-0.000353109
0.0001369
-0.000353807
0.000115743
-0.000354518
9.46113e-05
-0.000355227
7.34695e-05
-0.000355927
5.22893e-05
-0.000356616
3.10465e-05
-0.000357302
9.71863e-06
-0.000357997
-1.17145e-05
-0.000358717
-3.32697e-05
-0.000359478
-5.49624e-05
-0.000360299
-7.68054e-05
-0.000361201
-9.88087e-05
-0.000362209
-0.000120979
-0.000363354
-0.000143321
-0.000364676
-0.000165837
-0.000366232
-0.000188533
-0.000368107
-0.000211428
-0.000370422
-0.000234561
-0.000373346
-0.000258016
-0.000377092
-0.000281941
-0.000381896
-0.000306575
-0.000387944
-0.000332247
-0.000395231
-0.000359341
-0.00040334
-0.000388155
-0.000411154
-0.000418626
-0.000416552
-0.000449885
-0.000416222
-0.000479644
-0.000405766
-0.000503589
-0.00038028
-0.000515003
-0.000335664
-0.000505039
-0.000270931
-0.000464223
-0.000191608
-0.000386189
-0.000112625
-0.000274884
-5.29455e-05
-0.000153022
-1.94378e-05
-5.50963e-05
-4.20213e-06
3.25728e-06
9.73108e-07
3.03142e-05
1.13688e-06
3.44584e-05
1.84785e-05
-1.26741e-05
3.73445e-05
-3.64324e-05
8.88989e-05
-6.51706e-05
0.000135883
-9.69765e-05
0.000186286
-0.000130911
0.000239309
-0.000165773
0.000291584
-0.00019994
0.000339632
-0.000231646
0.000380097
-0.000259374
0.000410308
-0.00028217
0.000428937
-0.000299729
0.000436166
-0.000312299
0.000433318
-0.000320529
0.000422351
-0.000325316
0.000405442
-0.000327642
0.000384669
-0.000328422
0.000361765
-0.000328402
0.000337997
-0.000328115
0.000314172
-0.000327887
0.000290715
-0.000327879
0.000267781
-0.000328135
0.000245363
-0.000328631
0.000223377
-0.000329313
0.000201718
-0.000330118
0.000180286
-0.000330993
0.000159001
-0.000331896
0.000137803
-0.000332799
0.000116646
-0.000333687
9.54987e-05
-0.000334552
7.43353e-05
-0.000335398
5.31346e-05
-0.000336229
3.18774e-05
-0.000337055
1.05455e-05
-0.000337892
-1.08782e-05
-0.000338752
-3.24097e-05
-0.00033965
-5.40637e-05
-0.000340603
-7.58534e-05
-0.000341622
-9.77891e-05
-0.000342723
-0.000119878
-0.00034392
-0.000142124
-0.000345229
-0.000164527
-0.000346676
-0.000187086
-0.000348303
-0.000209801
-0.000350179
-0.000232684
-0.00035242
-0.000255775
-0.000355198
-0.000279163
-0.000358752
-0.000303021
-0.000363362
-0.000327637
-0.000369274
-0.000353429
-0.000376535
-0.000380894
-0.000384724
-0.000410437
-0.000392599
-0.000442009
-0.000397736
-0.000474508
-0.000396338
-0.000504987
-0.000383436
-0.000527905
-0.000353709
-0.000534765
-0.0003032
-0.000514732
-0.000232319
-0.00045707
-0.000150281
-0.000356922
-7.70098e-05
-0.000226294
-3.04369e-05
-0.000101669
-8.4422e-06
-1.87375e-05
-2.44338e-07
2.21163e-05
1.00491e-06
3.32092e-05
1.94834e-05
-1.35287e-05
5.08732e-05
-3.8426e-05
0.000113796
-6.79248e-05
0.000165382
-9.98535e-05
0.000218214
-0.000133123
0.000272579
-0.000166423
0.000324885
-0.000198141
0.00037135
-0.000226683
0.000408639
-0.00025083
0.000434455
-0.000269971
0.000448078
-0.000284107
0.000450302
-0.000293724
0.000442935
-0.00029963
0.000428257
-0.000302791
0.000408603
-0.000304162
0.000386041
-0.000304557
0.00036216
-0.000304576
0.000338015
-0.000304597
0.000314194
-0.000304814
0.000290933
-0.000305288
0.000268255