/*--------------------------------*- C++ -*----------------------------------*\
| =========                 |                                                 |
| \\      /  F ield         | OpenFOAM: The Open Source CFD Toolbox           |
|  \\    /   O peration     | Version:  2406                                  |
|   \\  /    A nd           | Website:  www.openfoam.com                      |
|    \\/     M anipulation  |                                                 |
\*---------------------------------------------------------------------------*/
FoamFile
{
    version     2.0;
    format      ascii;
    arch        "LSB;label=32;scalar=64";
    class       volVectorField;
    location    "47.35";
    object      U_0;
}
// * * * * * * * * * * * * * * * * * * * * * * * * * * * * * * * * * * * * * //

dimensions      [0 1 -1 0 0 0 0];

internalField   nonuniform List<vector> 
14400
(
(-7.07926e-06 6.97741e-06 0)
(1.58103e-05 -1.17959e-05 0)
(0.000127547 -3.60444e-05 0)
(0.000323285 -5.56546e-05 0)
(0.000582459 -6.91506e-05 0)
(0.000881802 -7.63427e-05 0)
(0.00119812 -7.78628e-05 0)
(0.00151095 -7.46565e-05 0)
(0.00180376 -6.78767e-05 0)
(0.00206453 -5.87495e-05 0)
(0.00228598 -4.84703e-05 0)
(0.00246524 -3.81064e-05 0)
(0.00260328 -2.85229e-05 0)
(0.00270405 -2.03378e-05 0)
(0.0027735 -1.39031e-05 0)
(0.00281854 -9.30659e-06 0)
(0.00284619 -6.4493e-06 0)
(0.00286256 -5.15867e-06 0)
(0.00287228 -4.99613e-06 0)
(0.00287819 -5.44506e-06 0)
(0.00288096 -5.93096e-06 0)
(0.00287955 -5.67737e-06 0)
(0.00287127 -4.42681e-06 0)
(0.00285174 -2.02961e-06 0)
(0.00281559 1.67565e-06 0)
(0.0027569 6.78248e-06 0)
(0.00266945 1.33244e-05 0)
(0.00254688 2.13092e-05 0)
(0.0023828 3.07448e-05 0)
(0.00217075 4.16546e-05 0)
(0.00190417 5.40803e-05 0)
(0.00157635 6.80758e-05 0)
(0.00118043 8.36936e-05 0)
(0.000709486 0.00010097 0)
(0.000156608 0.000119912 0)
(-0.000484911 0.000140486 0)
(-0.00122137 0.000162609 0)
(-0.00205845 0.000186149 0)
(-0.00300092 0.000210913 0)
(-0.00405243 0.000236654 0)
(-0.00521522 0.000263066 0)
(-0.00648988 0.000289789 0)
(-0.00787514 0.000316412 0)
(-0.00936765 0.000342476 0)
(-0.0109618 0.000367484 0)
(-0.0126497 0.000390908 0)
(-0.0144209 0.000412196 0)
(-0.0162627 0.000430785 0)
(-0.0181599 0.000446106 0)
(-0.0200949 0.000457594 0)
(-0.0220482 0.000464697 0)
(-0.0239982 0.000466881 0)
(-0.0259214 0.000463643 0)
(-0.0277931 0.000454509 0)
(-0.0295873 0.000439055 0)
(-0.031277 0.000416905 0)
(-0.0328349 0.000387743 0)
(-0.0342334 0.000351338 0)
(-0.0354453 0.000307539 0)
(-0.0364441 0.000256189 0)
(-0.0372052 0.000197723 0)
(-0.0377056 0.000134297 0)
(-0.0379207 6.58776e-05 0)
(-0.0378314 -1.10137e-05 0)
(-0.0374268 -9.377e-05 0)
(-0.0366947 -0.000179929 0)
(-0.0356285 -0.000268238 0)
(-0.0342273 -0.000357224 0)
(-0.0324963 -0.00044514 0)
(-0.0304472 -0.000530042 0)
(-0.0280983 -0.000609849 0)
(-0.0254748 -0.000682402 0)
(-0.0226088 -0.000745559 0)
(-0.0195392 -0.000797287 0)
(-0.0163107 -0.000835769 0)
(-0.0129733 -0.000859505 0)
(-0.009581 -0.000867416 0)
(-0.00619042 -0.000858934 0)
(-0.00285923 -0.00083406 0)
(0.000355732 -0.000793406 0)
(0.00340029 -0.000738191 0)
(0.00622477 -0.000670201 0)
(0.00878575 -0.00059171 0)
(0.0110475 -0.000505365 0)
(0.0129833 -0.000414042 0)
(0.0145759 -0.000320689 0)
(0.015818 -0.000228165 0)
(0.0167123 -0.000139069 0)
(0.0172706 -5.54839e-05 0)
(0.0175145 2.01686e-05 0)
(0.0174687 8.42427e-05 0)
(0.0171638 0.000138474 0)
(0.0166383 0.000184233 0)
(0.015931 0.000220407 0)
(0.0150794 0.000246595 0)
(0.0141206 0.000263574 0)
(0.0130897 0.000272383 0)
(0.0120186 0.000274136 0)
(0.0109353 0.00027 0)
(0.0098636 0.000261143 0)
(0.00882284 0.000248676 0)
(0.00782806 0.000233624 0)
(0.00689021 0.000216901 0)
(0.00601659 0.000199297 0)
(0.00521125 0.000181473 0)
(0.00447554 0.000163972 0)
(0.00380855 0.000147218 0)
(0.0032076 0.000131534 0)
(0.00266869 0.00011714 0)
(0.00218699 0.00010415 0)
(0.00175728 9.25513e-05 0)
(0.0013746 8.21766e-05 0)
(0.00103493 7.2664e-05 0)
(0.000736018 6.34273e-05 0)
(0.00047822 5.36508e-05 0)
(0.000265124 4.23846e-05 0)
(0.000103628 2.88051e-05 0)
(2.44755e-06 1.26983e-05 0)
(-3.41875e-05 -3.84906e-06 0)
(-1.3223e-05 -1.32407e-05 0)
(1.05853e-05 -1.487e-05 0)
(0.000157875 -0.000162548 0)
(0.000492829 -0.000341866 0)
(0.00100851 -0.00049133 0)
(0.00165799 -0.000596211 0)
(0.0023939 -0.000653408 0)
(0.00316606 -0.000665956 0)
(0.00392872 -0.000640342 0)
(0.00464382 -0.000585055 0)
(0.00528277 -0.000509464 0)
(0.00582705 -0.000422901 0)
(0.00626791 -0.000333859 0)
(0.00660517 -0.000249365 0)
(0.00684548 -0.000174572 0)
(0.00700017 -0.000112574 0)
(0.007083 -6.44238e-05 0)
(0.00710795 -2.93596e-05 0)
(0.00708736 -5.19582e-06 0)
(0.00703039 1.14903e-05 0)
(0.0069419 2.48042e-05 0)
(0.00682218 3.90159e-05 0)
(0.00666656 5.83012e-05 0)
(0.00646605 8.59224e-05 0)
(0.00620836 0.000124344 0)
(0.00587865 0.000175261 0)
(0.00546035 0.000239668 0)
(0.00493592 0.000318039 0)
(0.00428742 0.000410558 0)
(0.00349675 0.000517309 0)
(0.00254581 0.000638391 0)
(0.00141662 0.000773937 0)
(9.13942e-05 0.000924062 0)
(-0.0014472 0.00108875 0)
(-0.00321572 0.00126776 0)
(-0.00522941 0.00146046 0)
(-0.0075017 0.00166582 0)
(-0.0100435 0.00188228 0)
(-0.0128624 0.00210776 0)
(-0.0159624 0.00233962 0)
(-0.0193427 0.0025747 0)
(-0.0229974 0.00280932 0)
(-0.0269152 0.00303935 0)
(-0.0310789 0.00326029 0)
(-0.0354652 0.00346736 0)
(-0.0400447 0.0036556 0)
(-0.0447821 0.00381999 0)
(-0.0496369 0.00395559 0)
(-0.0545633 0.00405762 0)
(-0.0595112 0.00412162 0)
(-0.0644273 0.00414353 0)
(-0.0692553 0.00411975 0)
(-0.0739372 0.00404726 0)
(-0.0784142 0.00392366 0)
(-0.0826274 0.00374719 0)
(-0.0865188 0.00351679 0)
(-0.0900323 0.00323213 0)
(-0.093114 0.00289362 0)
(-0.0957134 0.00250242 0)
(-0.0977838 0.00206056 0)
(-0.0992829 0.00157085 0)
(-0.100173 0.00103723 0)
(-0.100424 0.000465728 0)
(-0.100013 -0.000137506 0)
(-0.0989178 -0.000769705 0)
(-0.0971285 -0.00142204 0)
(-0.0946432 -0.00208532 0)
(-0.0914685 -0.00274969 0)
(-0.0876194 -0.00340452 0)
(-0.0831207 -0.00403843 0)
(-0.0780071 -0.00463947 0)
(-0.072323 -0.00519533 0)
(-0.0661233 -0.0056937 0)
(-0.0594724 -0.00612261 0)
(-0.0524441 -0.00647089 0)
(-0.0451208 -0.00672858 0)
(-0.0375923 -0.00688747 0)
(-0.0299546 -0.00694149 0)
(-0.0223076 -0.00688721 0)
(-0.0147539 -0.00672413 0)
(-0.0073956 -0.0064549 0)
(-0.000332565 -0.00608546 0)
(0.00634059 -0.00562491 0)
(0.0125369 -0.00508529 0)
(0.0181796 -0.0044812 0)
(0.0232041 -0.0038292 0)
(0.0275603 -0.00314712 0)
(0.0312136 -0.00245335 0)
(0.0341461 -0.00176602 0)
(0.0363565 -0.00110229 0)
(0.0378591 -0.000477828 0)
(0.0386852 9.25361e-05 0)
(0.0388816 0.000600978 0)
(0.0385047 0.00104171 0)
(0.0376193 0.00140945 0)
(0.0362987 0.00170219 0)
(0.0346196 0.00192146 0)
(0.0326595 0.00207129 0)
(0.0304936 0.00215762 0)
(0.0281929 0.00218778 0)
(0.0258218 0.00216998 0)
(0.0234372 0.00211279 0)
(0.0210871 0.00202472 0)
(0.0188106 0.00191383 0)
(0.0166377 0.0017875 0)
(0.0145901 0.00165227 0)
(0.0126818 0.00151371 0)
(0.0109201 0.00137643 0)
(0.00930652 0.00124407 0)
(0.00783819 0.00111929 0)
(0.00650893 0.00100372 0)
(0.00531064 0.000897785 0)
(0.00423483 0.000800554 0)
(0.00327431 0.00070951 0)
(0.00242501 0.000620445 0)
(0.00168764 0.000527639 0)
(0.00106876 0.00042471 0)
(0.00058051 0.000306653 0)
(0.000236547 0.000174188 0)
(4.69552e-05 4.16151e-05 0)
(-2.76971e-06 -3.3231e-05 0)
(3.29817e-05 -0.000120365 0)
(0.000326578 -0.000493057 0)
(0.000868892 -0.000887666 0)
(0.00164742 -0.00121484 0)
(0.00259251 -0.00144504 0)
(0.00364411 -0.00156999 0)
(0.00473669 -0.00159461 0)
(0.00580968 -0.00153203 0)
(0.00681192 -0.00140038 0)
(0.00770419 -0.00122022 0)
(0.00846015 -0.00101231 0)
(0.00906601 -0.000795739 0)
(0.00951916 -0.000586504 0)
(0.00982593 -0.000396477 0)
(0.00999882 -0.000232936 0)
(0.0100536 -9.85148e-05 0)
(0.0100062 8.44274e-06 0)
(0.00987043 9.31753e-05 0)
(0.00965565 0.000163536 0)
(0.00936532 0.000228987 0)
(0.00899636 0.000299436 0)
(0.00853908 0.000384131 0)
(0.00797778 0.000491163 0)
(0.00729193 0.000626805 0)
(0.00645733 0.000795375 0)
(0.00544735 0.000999476 0)
(0.00423401 0.00124041 0)
(0.0027888 0.00151864 0)
(0.00108328 0.0018342 0)
(-0.000910479 0.00218686 0)
(-0.00321948 0.00257619 0)
(-0.00586924 0.0030014 0)
(-0.00888319 0.00346107 0)
(-0.0122818 0.00395288 0)
(-0.0160815 0.00447341 0)
(-0.0202937 0.00501796 0)
(-0.024924 0.00558043 0)
(-0.0299704 0.00615334 0)
(-0.0354231 0.0067279 0)
(-0.0412636 0.00729411 0)
(-0.0474641 0.00784101 0)
(-0.0539874 0.00835689 0)
(-0.0607874 0.00882964 0)
(-0.0678094 0.00924711 0)
(-0.0749909 0.00959741 0)
(-0.0822631 0.00986933 0)
(-0.0895521 0.0100526 0)
(-0.0967805 0.0101383 0)
(-0.103869 0.0101189 0)
(-0.110738 0.00998859 0)
(-0.117309 0.00974318 0)
(-0.123506 0.0093803 0)
(-0.129256 0.00889931 0)
(-0.134492 0.00830119 0)
(-0.139151 0.00758847 0)
(-0.143176 0.00676517 0)
(-0.146517 0.00583665 0)
(-0.149129 0.00480958 0)
(-0.150975 0.00369189 0)
(-0.152024 0.00249275 0)
(-0.152251 0.0012222 0)
(-0.151638 -0.000108843 0)
(-0.150177 -0.00148608 0)
(-0.147864 -0.00289468 0)
(-0.144702 -0.0043204 0)
(-0.140703 -0.0057468 0)
(-0.135886 -0.00715565 0)
(-0.130278 -0.00852752 0)
(-0.123916 -0.009842 0)
(-0.116845 -0.011078 0)
(-0.109116 -0.0122139 0)
(-0.100793 -0.0132283 0)
(-0.091947 -0.0141005 0)
(-0.082658 -0.0148108 0)
(-0.073014 -0.0153417 0)
(-0.0631109 -0.0156784 0)
(-0.0530506 -0.0158095 0)
(-0.0429406 -0.0157279 0)
(-0.0328916 -0.0154314 0)
(-0.023016 -0.0149228 0)
(-0.0134257 -0.0142107 0)
(-0.0042296 -0.0133091 0)
(0.00446851 -0.0122376 0)
(0.0125726 -0.0110204 0)
(0.0199969 -0.00968596 0)
(0.0266674 -0.00826612 0)
(0.0325249 -0.0067947 0)
(0.0375254 -0.00530646 0)
(0.0416422 -0.00383581 0)
(0.044866 -0.00241534 0)
(0.0472066 -0.00107388 0)
(0.0486918 0.000162339 0)
(0.0493639 0.00127108 0)
(0.0492808 0.0022367 0)
(0.0485153 0.00304967 0)
(0.0471499 0.00370583 0)
(0.0452747 0.00420655 0)
(0.0429834 0.00455832 0)
(0.0403706 0.00477201 0)
(0.0375282 0.00486186 0)
(0.0345422 0.00484448 0)
(0.0314906 0.00473775 0)
(0.0284415 0.00455987 0)
(0.0254519 0.00432846 0)
(0.0225675 0.00405995 0)
(0.0198227 0.00376907 0)
(0.0172413 0.00346855 0)
(0.0148379 0.00316888 0)
(0.0126191 0.00287818 0)
(0.0105852 0.00260194 0)
(0.00873216 0.0023427 0)
(0.00705382 0.0020997 0)
(0.00554428 0.00186849 0)
(0.00420019 0.00164093 0)
(0.00302299 0.00140578 0)
(0.0020202 0.00115072 0)
(0.00120517 0.000866382 0)
(0.000591421 0.000554244 0)
(0.00019998 0.000239075 0)
(1.66471e-05 1.13752e-05 0)
(5.07614e-05 -0.00030376 0)
(0.000467916 -0.000996971 0)
(0.00118593 -0.00166413 0)
(0.00217926 -0.00220635 0)
(0.0033531 -0.00258319 0)
(0.00463626 -0.00278239 0)
(0.00595217 -0.00281161 0)
(0.00723072 -0.00269209 0)
(0.00841272 -0.00245367 0)
(0.00945256 -0.00213043 0)
(0.010319 -0.00175701 0)
(0.010995 -0.0013654 0)
(0.0114757 -0.000982458 0)
(0.0117659 -0.000628183 0)
(0.0118774 -0.00031484 0)
(0.0118249 -4.68116e-05 0)
(0.0116231 0.000178856 0)
(0.0112835 0.000371323 0)
(0.0108123 0.000544331 0)
(0.0102084 0.000714377 0)
(0.00946276 0.000898801 0)
(0.00855846 0.00111399 0)
(0.00747164 0.00137406 0)
(0.00617274 0.00168997 0)
(0.00462808 0.00206933 0)
(0.00280141 0.00251668 0)
(0.000655339 0.00303417 0)
(-0.00184756 0.00362223 0)
(-0.00474373 0.00428015 0)
(-0.00806774 0.00500633 0)
(-0.0118513 0.00579825 0)
(-0.0161221 0.00665212 0)
(-0.0209026 0.0075625 0)
(-0.0262086 0.00852186 0)
(-0.0320476 0.00952024 0)
(-0.0384173 0.0105452 0)
(-0.0453049 0.0115815 0)
(-0.0526852 0.012612 0)
(-0.0605211 0.013617 0)
(-0.0687628 0.0145758 0)
(-0.0773486 0.0154665 0)
(-0.0862062 0.0162671 0)
(-0.095254 0.0169564 0)
(-0.104403 0.0175142 0)
(-0.113561 0.0179227 0)
(-0.122631 0.0181664 0)
(-0.131517 0.0182329 0)
(-0.140127 0.0181131 0)
(-0.148371 0.0178012 0)
(-0.156166 0.0172946 0)
(-0.163434 0.016594 0)
(-0.170108 0.0157025 0)
(-0.176126 0.0146261 0)
(-0.181435 0.0133724 0)
(-0.18599 0.0119513 0)
(-0.189753 0.0103736 0)
(-0.192693 0.00865198 0)
(-0.194786 0.00679974 0)
(-0.196012 0.00483145 0)
(-0.196358 0.00276267 0)
(-0.195817 0.000609992 0)
(-0.194384 -0.00160923 0)
(-0.192061 -0.00387691 0)
(-0.188854 -0.00617124 0)
(-0.184776 -0.00847036 0)
(-0.179841 -0.0107511 0)
(-0.174071 -0.0129885 0)
(-0.167494 -0.015156 0)
(-0.160143 -0.0172256 0)
(-0.152059 -0.0191683 0)
(-0.143291 -0.0209542 0)
(-0.133895 -0.0225533 0)
(-0.123934 -0.0239361 0)
(-0.113482 -0.0250748 0)
(-0.102619 -0.0259437 0)
(-0.0914352 -0.0265205 0)
(-0.080026 -0.0267877 0)
(-0.0684944 -0.0267331 0)
(-0.0569481 -0.0263508 0)
(-0.0454983 -0.0256423 0)
(-0.0342579 -0.0246169 0)
(-0.0233389 -0.0232913 0)
(-0.0128509 -0.0216905 0)
(-0.00289808 -0.0198462 0)
(0.00642249 -0.017797 0)
(0.0150232 -0.0155865 0)
(0.0228279 -0.0132623 0)
(0.0297732 -0.0108745 0)
(0.0358104 -0.00847398 0)
(0.0409064 -0.00611067 0)
(0.0450449 -0.00383202 0)
(0.0482258 -0.00168246 0)
(0.0504664 0.000299163 0)
(0.0518018 0.00208143 0)
(0.0522834 0.00364031 0)
(0.0519769 0.0049596 0)
(0.0509615 0.00603161 0)
(0.0493268 0.00685711 0)
(0.0471698 0.00744484 0)
(0.0445913 0.00781051 0)
(0.0416922 0.00797553 0)
(0.0385699 0.00796548 0)
(0.035315 0.00780847 0)
(0.0320089 0.00753355 0)
(0.0287218 0.00716924 0)
(0.0255116 0.00674239 0)
(0.0224238 0.00627718 0)
(0.0194916 0.00579446 0)
(0.0167377 0.00531109 0)
(0.0141752 0.00483938 0)
(0.0118104 0.00438644 0)
(0.00964446 0.00395357 0)
(0.00767696 0.00353573 0)
(0.00590811 0.00312163 0)
(0.00434166 0.00269486 0)
(0.00298669 0.00223698 0)
(0.00185836 0.00173345 0)
(0.000971886 0.00118395 0)
(0.000367152 0.000617237 0)
(3.78704e-05 0.000135313 0)
(6.40502e-05 -0.000547922 0)
(0.00057784 -0.00163638 0)
(0.00143694 -0.00261509 0)
(0.00260026 -0.00338862 0)
(0.00394752 -0.00391326 0)
(0.00539536 -0.00417686 0)
(0.00685728 -0.00419235 0)
(0.00825583 -0.00399088 0)
(0.00952663 -0.00361549 0)
(0.0106205 -0.00311512 0)
(0.0115039 -0.00253932 0)
(0.0121579 -0.0019337 0)
(0.0125763 -0.00133638 0)
(0.0127627 -0.000775568 0)
(0.0127264 -0.00026823 0)
(0.0124797 0.000180088 0)
(0.0120331 0.000574483 0)
(0.0113934 0.000929084 0)
(0.0105603 0.0012647 0)
(0.00952507 0.00160607 0)
(0.00827022 0.00197901 0)
(0.00676959 0.00240777 0)
(0.00498965 0.00291304 0)
(0.0028912 0.00351072 0)
(0.000431296 0.00421156 0)
(-0.00243479 0.00502163 0)
(-0.00575184 0.00594311 0)
(-0.00956309 0.00697521 0)
(-0.0139087 0.00811478 0)
(-0.0188243 0.00935657 0)
(-0.024339 0.010693 0)
(-0.0304741 0.0121136 0)
(-0.0372406 0.0136046 0)
(-0.0446376 0.0151486 0)
(-0.0526503 0.0167239 0)
(-0.0612493 0.0183052 0)
(-0.0703896 0.0198636 0)
(-0.0800104 0.0213677 0)
(-0.0900366 0.0227843 0)
(-0.10038 0.0240798 0)
(-0.110943 0.0252216 0)
(-0.121619 0.0261789 0)
(-0.132298 0.0269246 0)
(-0.142871 0.0274355 0)
(-0.153229 0.0276937 0)
(-0.163271 0.0276864 0)
(-0.172903 0.0274062 0)
(-0.182039 0.0268509 0)
(-0.190604 0.0260229 0)
(-0.198536 0.0249285 0)
(-0.205778 0.0235775 0)
(-0.212287 0.0219824 0)
(-0.218026 0.0201575 0)
(-0.222967 0.0181187 0)
(-0.227089 0.0158827 0)
(-0.230373 0.013467 0)
(-0.23281 0.0108897 0)
(-0.234389 0.00816897 0)
(-0.235106 0.00532365 0)
(-0.234958 0.00237299 0)
(-0.233943 -0.000662837 0)
(-0.232064 -0.0037626 0)
(-0.229322 -0.00690478 0)
(-0.225723 -0.0100654 0)
(-0.221276 -0.0132188 0)
(-0.215991 -0.0163371 0)
(-0.209882 -0.0193909 0)
(-0.202968 -0.0223482 0)
(-0.195274 -0.0251752 0)
(-0.186829 -0.0278359 0)
(-0.177671 -0.0302934 0)
(-0.167842 -0.0325097 0)
(-0.157397 -0.0344471 0)
(-0.146397 -0.0360689 0)
(-0.134913 -0.037341 0)
(-0.123024 -0.0382329 0)
(-0.11082 -0.0387191 0)
(-0.0983968 -0.0387811 0)
(-0.0858588 -0.0384077 0)
(-0.0733153 -0.0375969 0)
(-0.0608788 -0.0363562 0)
(-0.0486636 -0.0347034 0)
(-0.0367827 -0.032666 0)
(-0.0253458 -0.0302813 0)
(-0.014457 -0.0275948 0)
(-0.00421244 -0.0246598 0)
(0.00530122 -0.0215347 0)
(0.0140086 -0.0182823 0)
(0.0218466 -0.0149671 0)
(0.0287655 -0.0116541 0)
(0.0347297 -0.00840659 0)
(0.0397178 -0.00528478 0)
(0.0437237 -0.00234312 0)
(0.0467574 0.000369966 0)
(0.0488443 0.00281364 0)
(0.0500254 0.00495637 0)
(0.0503573 0.0067767 0)
(0.0499105 0.00826379 0)
(0.0487681 0.00941763 0)
(0.047023 0.0102486 0)
(0.0447745 0.0107765 0)
(0.0421252 0.011029 0)
(0.0391765 0.0110401 0)
(0.0360254 0.0108472 0)
(0.0327611 0.0104899 0)
(0.0294625 0.0100071 0)
(0.0261965 0.00943584 0)
(0.0230175 0.0088092 0)
(0.0199673 0.0081554 0)
(0.0170763 0.00749631 0)
(0.0143651 0.00684642 0)
(0.0118472 0.0062117 0)
(0.00953122 0.00558892 0)
(0.00742423 0.00496567 0)
(0.00553494 0.00432183 0)
(0.00387628 0.00363337 0)
(0.00246771 0.0028792 0)
(0.00132943 0.00205246 0)
(0.000524213 0.00117551 0)
(5.74651e-05 0.000339993 0)
(7.38546e-05 -0.000838394 0)
(0.000661653 -0.00238353 0)
(0.00163043 -0.00370677 0)
(0.00292341 -0.00472162 0)
(0.00439588 -0.00538724 0)
(0.00595122 -0.00569646 0)
(0.0074929 -0.00567116 0)
(0.00893708 -0.00535522 0)
(0.0102158 -0.00480699 0)
(0.0112782 -0.00409173 0)
(0.0120904 -0.00327473 0)
(0.0126331 -0.00241544 0)
(0.0128999 -0.00156296 0)
(0.0128928 -0.000752953 0)
(0.0126185 -6.0542e-06 0)
(0.0120849 0.000672327 0)
(0.0112969 0.00129088 0)
(0.0102534 0.00187011 0)
(0.00894498 0.00243917 0)
(0.00735299 0.00303206 0)
(0.00544897 0.00368372 0)
(0.00319591 0.00442647 0)
(0.000549847 0.00528732 0)
(-0.00253779 0.0062864 0)
(-0.00611779 0.00743653 0)
(-0.0102407 0.00874373 0)
(-0.0149549 0.0102083 0)
(-0.0203037 0.0118256 0)
(-0.0263242 0.013587 0)
(-0.0330442 0.0154795 0)
(-0.0404799 0.0174858 0)
(-0.0486338 0.0195837 0)
(-0.0574924 0.0217454 0)
(-0.0670243 0.0239375 0)
(-0.0771793 0.0261217 0)
(-0.0878887 0.0282553 0)
(-0.0990665 0.0302929 0)
(-0.110611 0.0321878 0)
(-0.12241 0.0338942 0)
(-0.134342 0.0353691 0)
(-0.146283 0.0365743 0)
(-0.158111 0.0374775 0)
(-0.169709 0.0380539 0)
(-0.180969 0.0382861 0)
(-0.191795 0.0381647 0)
(-0.2021 0.0376875 0)
(-0.211816 0.0368585 0)
(-0.220884 0.0356875 0)
(-0.229259 0.0341885 0)
(-0.236904 0.0323784 0)
(-0.243793 0.0302767 0)
(-0.249909 0.027904 0)
(-0.255237 0.0252815 0)
(-0.25977 0.0224305 0)
(-0.263502 0.019372 0)
(-0.266428 0.0161268 0)
(-0.268547 0.0127151 0)
(-0.269857 0.00915696 0)
(-0.270356 0.0054722 0)
(-0.270042 0.00168104 0)
(-0.268913 -0.00219572 0)
(-0.266967 -0.00613638 0)
(-0.264203 -0.0101174 0)
(-0.260619 -0.0141137 0)
(-0.256214 -0.0180976 0)
(-0.250992 -0.022039 0)
(-0.244955 -0.0259047 0)
(-0.238111 -0.0296586 0)
(-0.230472 -0.0332614 0)
(-0.222055 -0.0366714 0)
(-0.212884 -0.039844 0)
(-0.20299 -0.0427334 0)
(-0.192413 -0.0452928 0)
(-0.181202 -0.0474763 0)
(-0.169417 -0.0492397 0)
(-0.157128 -0.0505427 0)
(-0.144416 -0.0513504 0)
(-0.131373 -0.0516355 0)
(-0.118099 -0.0513795 0)
(-0.104702 -0.0505748 0)
(-0.091297 -0.0492254 0)
(-0.0780021 -0.0473479 0)
(-0.0649359 -0.0449713 0)
(-0.0522156 -0.0421367 0)
(-0.0399532 -0.0388964 0)
(-0.0282539 -0.0353116 0)
(-0.017213 -0.0314514 0)
(-0.00691525 -0.0273896 0)
(0.00256702 -0.0232034 0)
(0.011174 -0.0189706 0)
(0.0188588 -0.0147678 0)
(0.0255873 -0.0106687 0)
(0.0313385 -0.00674222 0)
(0.0361042 -0.00305122 0)
(0.0398897 0.000348775 0)
(0.042714 0.00341119 0)
(0.0446099 0.00609963 0)
(0.045625 0.00838902 0)
(0.0458206 0.0102664 0)
(0.0452712 0.0117316 0)
(0.0440624 0.0127965 0)
(0.0422886 0.0134847 0)
(0.0400493 0.0138296 0)
(0.0374455 0.0138724 0)
(0.0345758 0.0136592 0)
(0.0315329 0.0132387 0)
(0.0284008 0.0126594 0)
(0.0252522 0.0119668 0)
(0.0221481 0.0112015 0)
(0.0191372 0.0103968 0)
(0.016257 0.00957685 0)
(0.0135355 0.00875494 0)
(0.010994 0.00793218 0)
(0.00864938 0.00709737 0)
(0.00651831 0.00622836 0)
(0.0046205 0.00529597 0)
(0.00298258 0.00427101 0)
(0.00163272 0.00313525 0)
(0.000657063 0.00189528 0)
(7.38908e-05 0.000616133 0)
(8.14371e-05 -0.00116416 0)
(0.000726505 -0.00321365 0)
(0.00177866 -0.00490537 0)
(0.00316562 -0.00616355 0)
(0.00471955 -0.00695492 0)
(0.00633008 -0.00728223 0)
(0.00789065 -0.00718061 0)
(0.00931169 -0.00671025 0)
(0.0105228 -0.00594746 0)
(0.0114731 -0.00497543 0)
(0.0121296 -0.00387586 0)
(0.0124744 -0.00272184 0)
(0.0125009 -0.0015725 0)
(0.01221 -0.00046948 0)
(0.011605 0.000564761 0)
(0.0106881 0.00152693 0)
(0.00945615 0.00243125 0)
(0.00789821 0.00330632 0)
(0.00599351 0.00419092 0)
(0.00371094 0.005129 0)
(0.0010098 0.00616466 0)
(-0.00215842 0.00733762 0)
(-0.00584749 0.00867987 0)
(-0.0101134 0.0102138 0)
(-0.0150115 0.0119518 0)
(-0.0205933 0.013897 0)
(-0.0269036 0.016044 0)
(-0.0339781 0.0183804 0)
(-0.0418402 0.0208868 0)
(-0.0504981 0.0235371 0)
(-0.0599421 0.0262982 0)
(-0.0701425 0.0291296 0)
(-0.0810479 0.0319838 0)
(-0.0925849 0.0348071 0)
(-0.10466 0.0375414 0)
(-0.117161 0.040126 0)
(-0.129963 0.0425006 0)
(-0.142933 0.0446083 0)
(-0.155932 0.0463977 0)
(-0.168828 0.0478253 0)
(-0.181493 0.0488576 0)
(-0.193815 0.0494711 0)
(-0.205693 0.0496528 0)
(-0.217044 0.0493994 0)
(-0.227799 0.0487161 0)
(-0.237907 0.0476152 0)
(-0.247329 0.0461145 0)
(-0.256037 0.0442356 0)
(-0.264015 0.0420028 0)
(-0.271251 0.0394414 0)
(-0.27774 0.0365769 0)
(-0.283481 0.0334348 0)
(-0.288473 0.0300393 0)
(-0.292718 0.0264135 0)
(-0.296218 0.0225796 0)
(-0.298972 0.0185582 0)
(-0.30098 0.0143692 0)
(-0.302242 0.010032 0)
(-0.302753 0.00556565 0)
(-0.30251 0.000989404 0)
(-0.301507 -0.00367668 0)
(-0.299737 -0.00841138 0)
(-0.297192 -0.0131915 0)
(-0.293866 -0.0179913 0)
(-0.28975 -0.0227826 0)
(-0.284836 -0.0275335 0)
(-0.27912 -0.0322084 0)
(-0.272596 -0.0367679 0)
(-0.265265 -0.0411684 0)
(-0.257132 -0.0453623 0)
(-0.248204 -0.0492987 0)
(-0.238499 -0.0529234 0)
(-0.228042 -0.0561808 0)
(-0.216868 -0.0590144 0)
(-0.205022 -0.0613693 0)
(-0.192562 -0.0631934 0)
(-0.179559 -0.0644402 0)
(-0.166095 -0.0650712 0)
(-0.152266 -0.0650577 0)
(-0.138179 -0.0643834 0)
(-0.123952 -0.0630461 0)
(-0.109707 -0.0610584 0)
(-0.0955713 -0.058449 0)
(-0.0816739 -0.0552613 0)
(-0.0681393 -0.0515531 0)
(-0.0550858 -0.0473943 0)
(-0.042622 -0.0428642 0)
(-0.0308442 -0.0380491 0)
(-0.0198354 -0.0330389 0)
(-0.00966426 -0.0279247 0)
(-0.000385253 -0.0227962 0)
(0.00796059 -0.0177396 0)
(0.0153448 -0.0128361 0)
(0.0217505 -0.00816065 0)
(0.027172 -0.00378069 0)
(0.0316145 0.000244635 0)
(0.0350943 0.00386586 0)
(0.0376399 0.00704436 0)
(0.0392918 0.00975366 0)
(0.0401041 0.0119804 0)
(0.0401431 0.0137251 0)
(0.039487 0.015002 0)
(0.0382236 0.0158385 0)
(0.0364475 0.0162731 0)
(0.0342565 0.0163534 0)
(0.0317478 0.0161332 0)
(0.0290147 0.015669 0)
(0.0261429 0.0150167 0)
(0.0232087 0.0142283 0)
(0.0202771 0.0133489 0)
(0.0174023 0.0124136 0)
(0.014628 0.0114446 0)
(0.0119893 0.0104497 0)
(0.00951537 0.00942096 0)
(0.00723352 0.00833578 0)
(0.00517285 0.00716039 0)
(0.0033696 0.00585623 0)
(0.00186195 0.00438984 0)
(0.000757315 0.00274507 0)
(8.61844e-05 0.000949421 0)
(8.76952e-05 -0.00151791 0)
(0.000778087 -0.0041075 0)
(0.00189164 -0.00618173 0)
(0.00334027 -0.00767631 0)
(0.00493421 -0.00856945 0)
(0.00654938 -0.00887858 0)
(0.00806974 -0.0086569 0)
(0.00940087 -0.00798496 0)
(0.0104713 -0.00695999 0)
(0.0112314 -0.00568487 0)
(0.0116504 -0.00425817 0)
(0.0117124 -0.00276598 0)
(0.0114115 -0.0012759 0)
(0.0107466 0.000166627 0)
(0.00971681 0.00153985 0)
(0.00831689 0.00284517 0)
(0.00653391 0.00410463 0)
(0.00434482 0.00535675 0)
(0.00171558 0.00665095 0)
(-0.0013984 0.00804125 0)
(-0.00505032 0.00957996 0)
(-0.00929907 0.0113123 0)
(-0.0142056 0.0132724 0)
(-0.0198291 0.0154815 0)
(-0.0262232 0.0179473 0)
(-0.0334327 0.0206653 0)
(-0.0414895 0.0236194 0)
(-0.05041 0.0267829 0)
(-0.0601915 0.0301197 0)
(-0.0708094 0.0335837 0)
(-0.0822151 0.0371195 0)
(-0.0943351 0.0406635 0)
(-0.107072 0.0441451 0)
(-0.120308 0.0474895 0)
(-0.133907 0.050621 0)
(-0.147725 0.0534667 0)
(-0.161611 0.05596 0)
(-0.175421 0.0580439 0)
(-0.189017 0.0596731 0)
(-0.202277 0.0608155 0)
(-0.215097 0.0614523 0)
(-0.227391 0.0615773 0)
(-0.239091 0.061195 0)
(-0.250149 0.0603193 0)
(-0.26053 0.0589709 0)
(-0.270213 0.0571754 0)
(-0.279185 0.0549614 0)
(-0.287443 0.0523589 0)
(-0.294987 0.0493982 0)
(-0.301821 0.0461086 0)
(-0.30795 0.0425183 0)
(-0.313381 0.0386537 0)
(-0.318118 0.0345392 0)
(-0.322167 0.0301974 0)
(-0.32553 0.0256492 0)
(-0.32821 0.020914 0)
(-0.330207 0.0160102 0)
(-0.331519 0.0109553 0)
(-0.332141 0.00576673 0)
(-0.33207 0.000462147 0)
(-0.331296 -0.00493984 0)
(-0.329812 -0.0104193 0)
(-0.327607 -0.0159543 0)
(-0.324668 -0.0215198 0)
(-0.320981 -0.0270878 0)
(-0.316533 -0.0326261 0)
(-0.311309 -0.0380982 0)
(-0.305295 -0.0434626 0)
(-0.298478 -0.0486728 0)
(-0.290849 -0.053677 0)
(-0.282402 -0.0584186 0)
(-0.273137 -0.0628364 0)
(-0.26306 -0.0668658 0)
(-0.252187 -0.0704401 0)
(-0.240546 -0.0734925 0)
(-0.228176 -0.0759578 0)
(-0.215131 -0.0777757 0)
(-0.201482 -0.0788933 0)
(-0.187313 -0.0792681 0)
(-0.172726 -0.0788711 0)
(-0.157836 -0.0776893 0)
(-0.142772 -0.0757276 0)
(-0.127669 -0.07301 0)
(-0.11267 -0.0695799 0)
(-0.0979171 -0.0654986 0)
(-0.0835486 -0.0608437 0)
(-0.0696936 -0.0557058 0)
(-0.0564683 -0.0501849 0)
(-0.0439733 -0.0443864 0)
(-0.0322915 -0.038417 0)
(-0.0214884 -0.0323818 0)
(-0.0116121 -0.0263813 0)
(-0.00269585 -0.0205092 0)
(0.00524046 -0.0148519 0)
(0.012188 -0.00948699 0)
(0.0181475 -0.00448347 0)
(0.0231285 9.92499e-05 0)
(0.0271489 0.00421194 0)
(0.0302364 0.00781664 0)
(0.0324285 0.0108879 0)
(0.0337742 0.0134139 0)
(0.0343341 0.0153973 0)
(0.0341798 0.0168557 0)
(0.0333931 0.0178205 0)
(0.032063 0.0183353 0)
(0.0302829 0.0184536 0)
(0.0281473 0.0182353 0)
(0.0257477 0.0177429 0)
(0.0231699 0.0170374 0)
(0.0204912 0.0161741 0)
(0.0177798 0.0151987 0)
(0.0150935 0.0141432 0)
(0.0124818 0.013023 0)
(0.00998717 0.011835 0)
(0.0076489 0.0105574 0)
(0.00550744 0.00915243 0)
(0.00361017 0.00757155 0)
(0.00200622 0.00576374 0)
(0.000820493 0.00368606 0)
(9.38536e-05 0.00132262 0)
(9.31493e-05 -0.00189481 0)
(0.000819702 -0.00504965 0)
(0.00197496 -0.00750977 0)
(0.0034543 -0.00922362 0)
(0.0050469 -0.0101848 0)
(0.00661563 -0.0104304 0)
(0.00803611 -0.0100369 0)
(0.00921054 -0.00910946 0)
(0.0100678 -0.00776938 0)
(0.0105611 -0.00614081 0)
(0.0106628 -0.00433931 0)
(0.0103594 -0.00246275 0)
(0.00964528 -0.000585045 0)
(0.0085169 0.00124742 0)
(0.00696743 0.0030167 0)
(0.00498259 0.00473183 0)
(0.00253759 0.00642512 0)
(-0.000404217 0.0081465 0)
(-0.00389106 0.00995641 0)
(-0.00798075 0.0119179 0)
(-0.0127373 0.0140893 0)
(-0.0182265 0.0165177 0)
(-0.0245112 0.0192349 0)
(-0.0316466 0.0222556 0)
(-0.0396761 0.0255772 0)
(-0.0486266 0.0291806 0)
(-0.0585056 0.0330323 0)
(-0.0692974 0.0370845 0)
(-0.0809603 0.0412771 0)
(-0.0934255 0.0455383 0)
(-0.106597 0.0497866 0)
(-0.120354 0.0539339 0)
(-0.134554 0.0578885 0)
(-0.149044 0.0615603 0)
(-0.163662 0.0648653 0)
(-0.178249 0.0677296 0)
(-0.192656 0.0700932 0)
(-0.206751 0.0719117 0)
(-0.22042 0.0731573 0)
(-0.23357 0.0738177 0)
(-0.246131 0.0738946 0)
(-0.258054 0.0734012 0)
(-0.269304 0.0723598 0)
(-0.279863 0.0707988 0)
(-0.289722 0.0687507 0)
(-0.298879 0.0662501 0)
(-0.30734 0.0633315 0)
(-0.315113 0.0600292 0)
(-0.322206 0.0563756 0)
(-0.328632 0.0524012 0)
(-0.334398 0.048134 0)
(-0.339516 0.0436 0)
(-0.343993 0.0388224 0)
(-0.347837 0.0338225 0)
(-0.351054 0.0286198 0)
(-0.353647 0.0232318 0)
(-0.35562 0.0176752 0)
(-0.356974 0.0119656 0)
(-0.357706 0.00611839 0)
(-0.357812 0.000149124 0)
(-0.357288 -0.00592571 0)
(-0.356123 -0.0120885 0)
(-0.354307 -0.0183191 0)
(-0.351825 -0.0245948 0)
(-0.34866 -0.0308892 0)
(-0.344794 -0.0371717 0)
(-0.340204 -0.0434064 0)
(-0.334868 -0.049552 0)
(-0.328761 -0.0555612 0)
(-0.321859 -0.0613801 0)
(-0.314142 -0.0669482 0)
(-0.305589 -0.0721992 0)
(-0.296186 -0.0770611 0)
(-0.285927 -0.0814577 0)
(-0.274816 -0.0853104 0)
(-0.262867 -0.0885403 0)
(-0.250111 -0.0910714 0)
(-0.236597 -0.0928336 0)
(-0.222391 -0.0937666 0)
(-0.20758 -0.0938238 0)
(-0.192271 -0.0929756 0)
(-0.17659 -0.091213 0)
(-0.160679 -0.0885495 0)
(-0.144693 -0.0850224 0)
(-0.128792 -0.0806925 0)
(-0.113141 -0.0756422 0)
(-0.0978956 -0.0699722 0)
(-0.0832028 -0.0637971 0)
(-0.0691918 -0.0572404 0)
(-0.0559714 -0.0504288 0)
(-0.0436278 -0.0434872 0)
(-0.0322244 -0.036535 0)
(-0.0218035 -0.0296826 0)
(-0.012389 -0.0230301 0)
(-0.00399007 -0.0166664 0)
(0.00339552 -0.0106694 0)
(0.00977865 -0.00510612 0)
(0.0151769 -3.33665e-05 0)
(0.0196143 0.00450294 0)
(0.0231212 0.00846831 0)
(0.0257357 0.0118408 0)
(0.0275053 0.0146123 0)
(0.028487 0.0167895 0)
(0.0287481 0.018394 0)
(0.0283654 0.0194621 0)
(0.027423 0.0200424 0)
(0.0260101 0.0201936 0)
(0.0242174 0.0199803 0)
(0.0221341 0.0194686 0)
(0.0198445 0.0187215 0)
(0.0174265 0.0177933 0)
(0.01495 0.0167251 0)
(0.0124768 0.0155399 0)
(0.0100623 0.01424 0)
(0.00775848 0.0128053 0)
(0.00561773 0.0111945 0)
(0.00369906 0.00934903 0)
(0.00206246 0.00719986 0)
(0.00084543 0.00467606 0)
(9.6795e-05 0.00171718 0)
(9.79651e-05 -0.00229118 0)
(0.000852225 -0.00602628 0)
(0.00202952 -0.0088642 0)
(0.00350765 -0.0107689 0)
(0.00505569 -0.0117538 0)
(0.00652469 -0.0118814 0)
(0.00778378 -0.0112566 0)
(0.0087337 -0.0100138 0)
(0.00930558 -0.00830132 0)
(0.00945648 -0.0062657 0)
(0.00916289 -0.00403904 0)
(0.00841361 -0.00172911 0)
(0.00720256 0.000586778 0)
(0.00552219 0.0028647 0)
(0.00335805 0.00509398 0)
(0.000684892 0.0072943 0)
(-0.00253536 0.00951032 0)
(-0.00635368 0.0118042 0)
(-0.0108319 0.0142465 0)
(-0.0160387 0.0169068 0)
(-0.0220448 0.0198453 0)
(-0.0289166 0.0231054 0)
(-0.036711 0.0267104 0)
(-0.0454692 0.0306611 0)
(-0.0552127 0.0349372 0)
(-0.065939 0.0394977 0)
(-0.0776181 0.0442836 0)
(-0.0901906 0.0492198 0)
(-0.103567 0.0542171 0)
(-0.117629 0.0591757 0)
(-0.132233 0.0639891 0)
(-0.147219 0.0685497 0)
(-0.162414 0.0727538 0)
(-0.177647 0.0765081 0)
(-0.192754 0.0797337 0)
(-0.207588 0.0823697 0)
(-0.222022 0.0843749 0)
(-0.235953 0.0857269 0)
(-0.249303 0.0864209 0)
(-0.262016 0.0864668 0)
(-0.274054 0.0858862 0)
(-0.285397 0.0847089 0)
(-0.296037 0.0829702 0)
(-0.305973 0.0807084 0)
(-0.315212 0.0779628 0)
(-0.323764 0.0747722 0)
(-0.331641 0.0711742 0)
(-0.338859 0.0672043 0)
(-0.34543 0.0628953 0)
(-0.351371 0.0582777 0)
(-0.356694 0.053379 0)
(-0.361414 0.0482244 0)
(-0.365543 0.0428361 0)
(-0.369095 0.0372343 0)
(-0.372079 0.0314368 0)
(-0.374504 0.0254599 0)
(-0.37638 0.0193181 0)
(-0.377709 0.0130249 0)