/*--------------------------------*- C++ -*----------------------------------*\
| =========                 |                                                 |
| \\      /  F ield         | OpenFOAM: The Open Source CFD Toolbox           |
|  \\    /   O peration     | Version:  2406                                  |
|   \\  /    A nd           | Website:  www.openfoam.com                      |
|    \\/     M anipulation  |                                                 |
\*---------------------------------------------------------------------------*/
FoamFile
{
    version     2.0;
    format      ascii;
    arch        "LSB;label=32;scalar=64";
    class       volVectorField;
    location    "16.95";
    object      Uold;
}
// * * * * * * * * * * * * * * * * * * * * * * * * * * * * * * * * * * * * * //

dimensions      [0 1 -1 0 0 0 0];

internalField   nonuniform List<vector> 
3600
(
(4.16903e-05 -3.80417e-05 0)
(8.80827e-05 -2.45608e-05 0)
(7.99293e-05 -7.41808e-07 0)
(-9.27153e-06 2.26452e-05 0)
(-0.000144266 3.1726e-05 0)
(-0.000305785 3.72331e-05 0)
(-0.000482219 3.68097e-05 0)
(-0.000661595 3.80095e-05 0)
(-0.00085133 3.82526e-05 0)
(-0.00104458 4.13781e-05 0)
(-0.00125425 4.47903e-05 0)
(-0.00147461 5.0696e-05 0)
(-0.00171842 5.71204e-05 0)
(-0.00198046 6.55674e-05 0)
(-0.00227182 7.45813e-05 0)
(-0.00258762 8.50815e-05 0)
(-0.00293606 9.57415e-05 0)
(-0.00331094 0.000106793 0)
(-0.00371533 0.00011673 0)
(-0.0041389 0.000125073 0)
(-0.00457682 0.000130025 0)
(-0.00501167 0.000130515 0)
(-0.00542861 0.000124546 0)
(-0.00580139 0.000110739 0)
(-0.00610499 8.72193e-05 0)
(-0.00630536 5.28709e-05 0)
(-0.00637076 6.65789e-06 0)
(-0.00626489 -5.12918e-05 0)
(-0.00595795 -0.000120078 0)
(-0.0054224 -0.000197184 0)
(-0.00464387 -0.000278858 0)
(-0.00361789 -0.000359733 0)
(-0.00235973 -0.000433492 0)
(-0.000899323 -0.000493143 0)
(0.000711414 -0.000532038 0)
(0.00240812 -0.000544671 0)
(0.00410991 -0.000527671 0)
(0.00573467 -0.000480595 0)
(0.00719648 -0.000406117 0)
(0.00842525 -0.000310192 0)
(0.00936113 -0.000200877 0)
(0.00997482 -8.78199e-05 0)
(0.0102533 1.9991e-05 0)
(0.0102183 0.000114455 0)
(0.00990055 0.000190625 0)
(0.00935843 0.0002455 0)
(0.00864192 0.000279765 0)
(0.00781923 0.000294957 0)
(0.00693211 0.000295382 0)
(0.00603747 0.000284169 0)
(0.00515314 0.000266571 0)
(0.00431817 0.000244834 0)
(0.00352449 0.000223879 0)
(0.00279799 0.000203491 0)
(0.00211281 0.000187608 0)
(0.00149498 0.00017014 0)
(0.000924084 0.00015143 0)
(0.000452843 0.000111697 0)
(0.000111053 5.33056e-05 0)
(-2.93089e-05 -2.97096e-05 0)
(3.12645e-05 -9.10823e-05 0)
(-2.14115e-05 1.71975e-05 0)
(-0.000223631 0.000152894 0)
(-0.000583734 0.00028074 0)
(-0.0010544 0.000349237 0)
(-0.00159162 0.000395469 0)
(-0.00217615 0.000413474 0)
(-0.00278093 0.000432065 0)
(-0.0034154 0.000445554 0)
(-0.00406587 0.000468376 0)
(-0.00475157 0.000493388 0)
(-0.00546339 0.000527905 0)
(-0.00622087 0.000566009 0)
(-0.0070167 0.000611964 0)
(-0.0078678 0.000661033 0)
(-0.00876711 0.000714916 0)
(-0.0097261 0.000768408 0)
(-0.0107339 0.000819915 0)
(-0.0117913 0.000862335 0)
(-0.012877 0.000890538 0)
(-0.0139752 0.000895304 0)
(-0.0150483 0.000868898 0)
(-0.0160595 0.000801211 0)
(-0.0169529 0.000684174 0)
(-0.0176728 0.000509525 0)
(-0.0181503 0.000272559 0)
(-0.0183205 -2.89842e-05 0)
(-0.0181151 -0.000391744 0)
(-0.0174784 -0.000807479 0)
(-0.0163632 -0.00126089 0)
(-0.014746 -0.00173097 0)
(-0.0126223 -0.0021905 0)
(-0.0100207 -0.00260873 0)
(-0.00699452 -0.00295284 0)
(-0.00363259 -0.00319195 0)
(-4.55833e-05 -0.00329988 0)
(0.00362762 -0.0032593 0)
(0.00724066 -0.00306429 0)
(0.0106358 -0.00272242 0)
(0.0136716 -0.00225506 0)
(0.0162173 -0.00169521 0)
(0.0181838 -0.00108476 0)
(0.0195086 -0.000468053 0)
(0.0201867 0.00011194 0)
(0.0202383 0.00062114 0)
(0.019739 0.00103502 0)
(0.0187679 0.00134367 0)
(0.0174444 0.00154669 0)
(0.01586 0.00165609 0)
(0.0141332 0.00168657 0)
(0.0123267 0.00166025 0)
(0.0105308 0.00159355 0)
(0.00876281 0.00150813 0)
(0.00708449 0.00141073 0)
(0.00547702 0.00131478 0)
(0.00399868 0.00120229 0)
(0.00263135 0.00106856 0)
(0.00147648 0.000850002 0)
(0.000568375 0.000546225 0)
(6.15134e-05 0.000115731 0)
(-3.03805e-06 -6.88148e-05 0)
(-0.000225745 0.000247053 0)
(-0.000709085 0.000585531 0)
(-0.00140276 0.000884131 0)
(-0.0022578 0.00106034 0)
(-0.00320247 0.00117934 0)
(-0.00422075 0.00123847 0)
(-0.0052718 0.00129084 0)
(-0.00636927 0.00133199 0)
(-0.00749209 0.001388 0)
(-0.00866344 0.0014491 0)
(-0.00987026 0.00152767 0)
(-0.011136 0.00161488 0)
(-0.0124522 0.00171746 0)
(-0.01384 0.00182785 0)
(-0.0152927 0.00194756 0)
(-0.0168255 0.00206669 0)
(-0.0184272 0.00217938 0)
(-0.020099 0.00227024 0)
(-0.0218153 0.00232533 0)
(-0.0235543 0.00232381 0)
(-0.0252677 0.00224637 0)
(-0.0269059 0.00207059 0)
(-0.0283958 0.00177794 0)
(-0.0296635 0.00135161 0)
(-0.0306192 0.000782508 0)
(-0.0311779 6.84426e-05 0)
(-0.0312504 -0.000781115 0)
(-0.030762 -0.00174593 0)
(-0.029647 -0.00279219 0)
(-0.0278661 -0.00387489 0)
(-0.0254008 -0.00493769 0)
(-0.022269 -0.00591769 0)
(-0.0185175 -0.00674807 0)
(-0.0142346 -0.00736509 0)
(-0.00953759 -0.00771278 0)
(-0.0045817 -0.00775073 0)
(0.000460136 -0.00745856 0)
(0.00539199 -0.00684135 0)
(0.0100244 -0.00593067 0)
(0.0141692 -0.00478363 0)
(0.0176766 -0.00347799 0)
(0.0204222 -0.00210336 0)
(0.0223469 -0.000752041 0)
(0.0234262 0.000493603 0)
(0.0237087 0.00156773 0)
(0.0232626 0.00243031 0)
(0.0222162 0.00306462 0)
(0.020682 0.00348021 0)
(0.0188133 0.00370105 0)
(0.0167091 0.00376711 0)
(0.014502 0.00371637 0)
(0.0122415 0.00359285 0)
(0.0100264 0.00341978 0)
(0.00785708 0.00322118 0)
(0.00582434 0.00297309 0)
(0.00391569 0.0026556 0)
(0.00227425 0.002167 0)
(0.000930262 0.00147401 0)
(0.00013601 0.000491292 0)
(-4.74793e-05 8.4506e-05 0)
(-0.000481152 0.000739232 0)
(-0.00129369 0.00135168 0)
(-0.00235432 0.00185612 0)
(-0.00361517 0.00216367 0)
(-0.0049747 0.00237175 0)
(-0.00642786 0.00248682 0)
(-0.00792017 0.00258522 0)
(-0.00947311 0.00266506 0)
(-0.011057 0.00276342 0)
(-0.0127003 0.002869 0)
(-0.0143855 0.0029998 0)
(-0.0161425 0.00314555 0)
(-0.0179632 0.00331651 0)
(-0.0198778 0.00350348 0)
(-0.0218845 0.00370834 0)
(-0.0240085 0.00391648 0)
(-0.0262444 0.00411689 0)
(-0.0286012 0.00428435 0)
(-0.0310561 0.00439388 0)
(-0.0335892 0.00441044 0)
(-0.0361486 0.00430041 0)
(-0.0386788 0.00402645 0)
(-0.0410956 0.00355715 0)
(-0.0433109 0.00286505 0)
(-0.0452153 0.0019347 0)
(-0.046701 0.000762034 0)
(-0.0476505 -0.000639448 0)
(-0.0479579 -0.00223972 0)
(-0.0475219 -0.0039886 0)
(-0.046266 -0.00581876 0)
(-0.044134 -0.0076454 0)
(-0.0411083 -0.00937239 0)
(-0.037205 -0.0108956 0)
(-0.0324895 -0.0121123 0)
(-0.0270669 -0.012928 0)
(-0.021094 -0.0132676 0)
(-0.0147605 -0.013083 0)
(-0.0082961 -0.0123626 0)
(-0.00193961 -0.0111347 0)
(0.00405748 -0.00946969 0)
(0.00947274 -0.00747416 0)
(0.0141052 -0.00528139 0)
(0.0178219 -0.00303723 0)
(0.0205334 -0.000882169 0)
(0.0222379 0.0010624 0)
(0.0229698 0.00270939 0)
(0.0228438 0.00400854 0)
(0.0219749 0.00495138 0)
(0.0205361 0.00555948 0)
(0.0186535 0.00588288 0)
(0.0164974 0.00597865 0)
(0.0141511 0.00591284 0)
(0.0117536 0.00572984 0)
(0.00933068 0.00546667 0)
(0.00700838 0.00510243 0)
(0.00478302 0.00460099 0)
(0.00283451 0.00383098 0)
(0.00119133 0.00269565 0)
(0.000189046 0.00103384 0)
(-9.07312e-05 0.000368779 0)
(-0.000744538 0.00151199 0)
(-0.00190265 0.00248066 0)
(-0.00334426 0.0032298 0)
(-0.0050204 0.00369084 0)
(-0.00679521 0.00400012 0)
(-0.00867751 0.00418161 0)
(-0.0105981 0.00433403 0)
(-0.0125896 0.00446066 0)
(-0.014614 0.00460877 0)
(-0.0167087 0.00476809 0)
(-0.0188546 0.00496342 0)
(-0.0210935 0.00518635 0)
(-0.0234246 0.00545282 0)
(-0.0258954 0.00575477 0)
(-0.0285184 0.00609551 0)
(-0.0313392 0.00645632 0)
(-0.0343682 0.00681971 0)
(-0.0376318 0.00714837 0)
(-0.0411178 0.00740245 0)
(-0.0448146 0.0075282 0)
(-0.0486698 0.00747214 0)
(-0.0526222 0.00717608 0)
(-0.0565714 0.00658914 0)
(-0.0604054 0.00566643 0)
(-0.06398 0.00437904 0)
(-0.0671441 0.00271435 0)
(-0.0697282 0.000683932 0)
(-0.0715694 -0.00167668 0)
(-0.0725059 -0.00430317 0)
(-0.0724017 -0.00710541 0)
(-0.0711441 -0.00996678 0)
(-0.0686654 -0.0127514 0)
(-0.0649397 -0.0153085 0)
(-0.0600016 -0.017484 0)
(-0.0539384 -0.0191296 0)
(-0.046905 -0.0201186 0)
(-0.0391084 -0.0203562 0)
(-0.0308159 -0.0197957 0)
(-0.0223258 -0.0184451 0)
(-0.0139683 -0.0163752 0)
(-0.00605991 -0.0137144 0)
(0.00109685 -0.01064 0)
(0.00726927 -0.00735928 0)
(0.0122787 -0.00408551 0)
(0.0160533 -0.00101449 0)
(0.0185793 0.00169841 0)
(0.0199481 0.00394941 0)
(0.0202714 0.00569393 0)
(0.0197391 0.00693814 0)
(0.0185045 0.00773248 0)
(0.0167763 0.00814995 0)
(0.0146753 0.00827704 0)
(0.0123831 0.00818406 0)
(0.00995665 0.00792287 0)
(0.00755965 0.00748415 0)
(0.00520532 0.00681406 0)
(0.00311003 0.00575701 0)
(0.00131275 0.00413332 0)
(0.000209177 0.00168866 0)
(-0.000136337 0.000797292 0)
(-0.00102082 0.00258382 0)
(-0.00253363 0.0039827 0)
(-0.00436048 0.00500322 0)
(-0.00645043 0.00562682 0)
(-0.0086324 0.00603899 0)
(-0.0109312 0.00628924 0)
(-0.0132629 0.00649814 0)
(-0.0156746 0.00667611 0)
(-0.0181212 0.00688056 0)
(-0.0206551 0.00710559 0)
(-0.0232607 0.00738582 0)
(-0.0260017 0.00771971 0)
(-0.0288942 0.00813291 0)
(-0.0320162 0.00862245 0)
(-0.0354064 0.00919499 0)
(-0.0391432 0.00982819 0)
(-0.0432632 0.0104961 0)
(-0.0478178 0.0111455 0)
(-0.0528089 0.0117158 0)
(-0.0582321 0.0121271 0)
(-0.0640273 0.0122967 0)
(-0.0701134 0.012135 0)
(-0.076353 0.0115599 0)
(-0.0825838 0.0104971 0)
(-0.0885966 0.00889289 0)
(-0.0941683 0.00671726 0)
(-0.0990525 0.00397396 0)
(-0.103013 0.000701913 0)
(-0.10582 -0.00301903 0)
(-0.10728 -0.00707161 0)
(-0.107229 -0.0113014 0)
(-0.105557 -0.0155255 0)
(-0.102201 -0.0195382 0)
(-0.0971626 -0.0231246 0)
(-0.0905051 -0.0260701 0)
(-0.0823685 -0.0281803 0)
(-0.0729609 -0.0292938 0)
(-0.0625724 -0.0293051 0)
(-0.0515516 -0.0281768 0)
(-0.0403086 -0.0259562 0)
(-0.0292683 -0.0227757 0)
(-0.0188614 -0.0188483 0)
(-0.00945718 -0.0144458 0)
(-0.00136299 -0.00986929 0)
(0.00524234 -0.00541222 0)
(0.01027 -0.00132593 0)
(0.0137709 0.00220503 0)
(0.0158484 0.00507626 0)
(0.0167086 0.00726054 0)
(0.0165388 0.00879609 0)
(0.0155924 0.00976554 0)
(0.0140371 0.0102732 0)
(0.012104 0.0104179 0)
(0.00989104 0.0102698 0)
(0.00760325 0.00983808 0)
(0.00528144 0.00905424 0)
(0.00317489 0.00774137 0)
(0.00134263 0.00563038 0)
(0.000212546 0.00236875 0)
(-0.00018154 0.00136669 0)
(-0.00129776 0.00395329 0)
(-0.00316431 0.00585783 0)
(-0.00537261 0.00717775 0)
(-0.00786966 0.00797273 0)
(-0.0104486 0.00848833 0)
(-0.0131515 0.00880818 0)
(-0.0158803 0.00907536 0)
(-0.0186998 0.00931126 0)
(-0.0215625 0.00958541 0)
(-0.0245432 0.00990244 0)
(-0.0276399 0.0103123 0)
(-0.0309511 0.0108278 0)
(-0.0345239 0.0114897 0)
(-0.0384818 0.0123047 0)
(-0.0429032 0.0132837 0)
(-0.0479106 0.0143987 0)
(-0.0535718 0.015609 0)
(-0.0599637 0.0168365 0)
(-0.0670936 0.0179867 0)
(-0.074947 0.0189379 0)
(-0.0834286 0.0195601 0)
(-0.0924019 0.0197134 0)
(-0.101651 0.0192664 0)
(-0.110922 0.0181014 0)
(-0.119909 0.0161323 0)
(-0.1283 0.0133116 0)
(-0.135774 0.0096428 0)
(-0.14204 0.00518095 0)
(-0.146834 3.54426e-05 0)
(-0.149939 -0.0056375 0)
(-0.151174 -0.0116379 0)
(-0.150412 -0.0177329 0)
(-0.147563 -0.0236614 0)
(-0.142596 -0.0291477 0)
(-0.135529 -0.033909 0)
(-0.126458 -0.0376747 0)
(-0.115552 -0.0402011 0)
(-0.103078 -0.0412987 0)
(-0.089394 -0.0408527 0)
(-0.0749608 -0.0388503 0)
(-0.0603015 -0.0353937 0)
(-0.0459901 -0.0307072 0)
(-0.0325732 -0.0251194 0)
(-0.0205442 -0.0190311 0)
(-0.0102526 -0.0128638 0)
(-0.00191642 -0.00700555 0)
(0.00443744 -0.00176408 0)
(0.00888724 0.00265974 0)
(0.011655 0.00617909 0)
(0.0129712 0.00880339 0)
(0.0131472 0.0106179 0)
(0.0124133 0.0117431 0)
(0.0110618 0.0123104 0)
(0.00924559 0.0124133 0)
(0.00721817 0.012087 0)
(0.00506037 0.0112539 0)
(0.00305438 0.00972056 0)
(0.00128737 0.00713465 0)
(0.000199023 0.00305059 0)
(-0.000229275 0.00208608 0)
(-0.00158176 0.00562848 0)
(-0.00380105 0.00810707 0)
(-0.00638515 0.00974733 0)
(-0.00927991 0.0107162 0)
(-0.0122445 0.0113315 0)
(-0.01534 0.0117196 0)
(-0.0184567 0.0120482 0)
(-0.0216821 0.0123546 0)
(-0.0249728 0.0127253 0)
(-0.028437 0.0131841 0)
(-0.0320991 0.0138045 0)
(-0.0361084 0.0146229 0)
(-0.0405586 0.0157012 0)
(-0.0456332 0.0170586 0)
(-0.0514597 0.0187074 0)
(-0.0582074 0.0206067 0)
(-0.0659688 0.0226874 0)
(-0.0748278 0.024828 0)
(-0.0847661 0.026877 0)
(-0.0957152 0.028645 0)
(-0.107491 0.0299278 0)
(-0.119844 0.0305123 0)
(-0.132434 0.0302037 0)
(-0.144888 0.0288401 0)
(-0.156806 0.0263168 0)
(-0.16782 0.0225939 0)
(-0.177586 0.0177033 0)
(-0.185828 0.0117413 0)
(-0.192306 0.00486236 0)
(-0.19684 -0.00273362 0)
(-0.199274 -0.010807 0)
(-0.19949 -0.0190881 0)
(-0.197384 -0.0272793 0)
(-0.192881 -0.0350622 0)
(-0.185933 -0.0421011 0)
(-0.176545 -0.0480563 0)
(-0.164784 -0.0525969 0)
(-0.15082 -0.0554286 0)
(-0.134937 -0.0563208 0)
(-0.117564 -0.0551478 0)
(-0.099265 -0.0519194 0)
(-0.0807286 -0.0468119 0)
(-0.0626969 -0.0401679 0)
(-0.0459127 -0.0324758 0)
(-0.030993 -0.0243073 0)
(-0.0183895 -0.0162397 0)
(-0.00829386 -0.00876992 0)
(-0.000704352 -0.00225787 0)
(0.00459842 0.0031031 0)
(0.00789658 0.0072654 0)
(0.00957722 0.0103045 0)
(0.00995711 0.0123553 0)
(0.0094092 0.0135866 0)
(0.0081615 0.0141237 0)
(0.00652722 0.0140362 0)
(0.00464136 0.0132482 0)
(0.0028205 0.0115556 0)
(0.00118717 0.00853829 0)
(0.000179376 0.00367574 0)
(-0.000277091 0.00295129 0)
(-0.00186438 0.00760031 0)
(-0.0044303 0.0107178 0)
(-0.00738057 0.012698 0)
(-0.0106619 0.0138435 0)
(-0.0140016 0.0145568 0)
(-0.0174824 0.0150155 0)
(-0.0209866 0.015416 0)
(-0.024631 0.0158198 0)
(-0.0283861 0.0163383 0)
(-0.0324069 0.0170268 0)
(-0.0367602 0.0179931 0)
(-0.0416625 0.0193071 0)
(-0.0472682 0.0210552 0)
(-0.0538292 0.0232676 0)
(-0.0615204 0.0259466 0)
(-0.0705441 0.0290196 0)
(-0.080988 0.0323618 0)
(-0.0928963 0.0357749 0)
(-0.106163 0.039012 0)
(-0.120593 0.0417794 0)
(-0.135845 0.0437706 0)
(-0.151508 0.044689 0)
(-0.167101 0.04429 0)
(-0.182164 0.0424036 0)
(-0.196263 0.0389547 0)
(-0.209053 0.0339585 0)
(-0.220256 0.0275123 0)
(-0.22968 0.0197745 0)
(-0.237184 0.0109505 0)
(-0.242672 0.00127576 0)
(-0.246055 -0.00898938 0)
(-0.247254 -0.019566 0)
(-0.246167 -0.0301521 0)
(-0.242682 -0.0404223 0)
(-0.236669 -0.0500217 0)
(-0.228008 -0.0585701 0)
(-0.216607 -0.0656658 0)
(-0.202452 -0.0709082 0)
(-0.185638 -0.0739253 0)
(-0.166437 -0.0744232 0)
(-0.145316 -0.0722379 0)
(-0.12297 -0.0673969 0)
(-0.100274 -0.0601582 0)
(-0.0782338 -0.0510253 0)
(-0.0578302 -0.040701 0)
(-0.0399032 -0.029995 0)
(-0.0249798 -0.0196852 0)
(-0.0132675 -0.0103983 0)
(-0.00462026 -0.00252456 0)
(0.00128437 0.00377415 0)
(0.00493003 0.00853873 0)
(0.0067551 0.0119152 0)
(0.00724525 0.0141179 0)
(0.00673262 0.0153173 0)
(0.00560982 0.0156313 0)
(0.00408295 0.0150006 0)
(0.00251025 0.0132226 0)
(0.0010565 0.00983072 0)
(0.000155002 0.00424881 0)
(-0.000326882 0.00397128 0)
(-0.00214936 0.0098758 0)
(-0.00505596 0.0136917 0)
(-0.00836305 0.0160279 0)
(-0.0120204 0.0173517 0)
(-0.0157272 0.0181633 0)
(-0.0195913 0.0187013 0)
(-0.0234928 0.0191971 0)
(-0.0275864 0.0197472 0)
(-0.0318687 0.0204999 0)
(-0.0365568 0.0215566 0)
(-0.0417755 0.0230706 0)
(-0.0478226 0.0251525 0)
(-0.0549194 0.0279108 0)
(-0.0633808 0.0313732 0)
(-0.0734081 0.0355071 0)
(-0.0851953 0.0401719 0)
(-0.0987633 0.0451415 0)
(-0.114038 0.0500907 0)
(-0.130738 0.0546307 0)
(-0.148467 0.0583327 0)
(-0.166681 0.0607863 0)
(-0.184816 0.0616453 0)
(-0.202305 0.0606758 0)
(-0.218683 0.0577698 0)
(-0.233581 0.0529443 0)
(-0.246769 0.0463152 0)
(-0.258109 0.0380703 0)
(-0.267564 0.0284379 0)
(-0.275134 0.0176668 0)
(-0.280852 0.00600898 0)
(-0.284731 -0.00628264 0)
(-0.286761 -0.0189553 0)
(-0.286869 -0.0317446 0)
(-0.284931 -0.0443652 0)
(-0.280751 -0.0564941 0)
(-0.274088 -0.0677613 0)
(-0.264664 -0.0777406 0)
(-0.252226 -0.0859577 0)
(-0.236581 -0.0919078 0)
(-0.217692 -0.0951012 0)
(-0.195742 -0.0951262 0)
(-0.171216 -0.0917386 0)
(-0.14493 -0.0849516 0)
(-0.118021 -0.0751165 0)
(-0.0918227 -0.0629409 0)
(-0.0676921 -0.0494302 0)
(-0.0467352 -0.0357182 0)
(-0.0296376 -0.0228549 0)
(-0.016531 -0.0116001 0)
(-0.00714346 -0.00235797 0)
(-0.000897233 0.00481315 0)
(0.00281126 0.0100548 0)
(0.00463078 0.0136383 0)
(0.00504307 0.0158006 0)
(0.00455249 0.0167294 0)
(0.00345991 0.0164051 0)
(0.00217866 0.0146439 0)
(0.000925166 0.0109581 0)
(0.000133291 0.00474242 0)
(-0.000375871 0.00513696 0)
(-0.00242806 0.0124368 0)
(-0.00566491 0.0170059 0)
(-0.00931646 0.0197129 0)
(-0.0133386 0.0212189 0)
(-0.0174065 0.0221349 0)
(-0.0216573 0.0227714 0)
(-0.0259768 0.0234043 0)
(-0.0305676 0.0241792 0)
(-0.0354663 0.0252966 0)
(-0.0409671 0.0269197 0)
(-0.047266 0.0292568 0)
(-0.0547473 0.032459 0)
(-0.0636907 0.0366412 0)
(-0.0744469 0.0417986 0)
(-0.0871926 0.0478166 0)
(-0.10204 0.0544286 0)
(-0.118852 0.0612423 0)
(-0.137339 0.0677488 0)
(-0.156967 0.0733847 0)
(-0.177107 0.0775952 0)
(-0.197039 0.079919 0)
(-0.21612 0.0800436 0)
(-0.233802 0.0778352 0)
(-0.249723 0.0733239 0)
(-0.263672 0.0666722 0)
(-0.275607 0.0581259 0)
(-0.285588 0.0479726 0)
(-0.293763 0.0365038 0)
(-0.300298 0.0239946 0)
(-0.305368 0.0106894 0)
(-0.309099 -0.00319528 0)
(-0.311568 -0.0174656 0)
(-0.31276 -0.0319325 0)
(-0.312578 -0.0463955 0)
(-0.310808 -0.0606166 0)
(-0.307142 -0.0742996 0)
(-0.301166 -0.087065 0)
(-0.292407 -0.0984379 0)
(-0.280364 -0.107844 0)
(-0.264605 -0.114634 0)
(-0.244857 -0.118137 0)
(-0.221145 -0.117752 0)
(-0.193906 -0.11308 0)
(-0.164085 -0.104079 0)
(-0.133112 -0.0911885 0)
(-0.102786 -0.075391 0)
(-0.074946 -0.0581061 0)
(-0.0511119 -0.04093 0)
(-0.0321051 -0.0252521 0)
(-0.0179973 -0.0119853 0)
(-0.00822891 -0.00145904 0)
(-0.00201027 0.00639969 0)
(0.00153812 0.0119244 0)
(0.00311767 0.0154504 0)
(0.00339897 0.0172719 0)
(0.00281401 0.0174436 0)
(0.0018562 0.0158274 0)
(0.00080667 0.0119445 0)
(0.000115977 0.00518198 0)
(-0.000425603 0.00645731 0)
(-0.00270276 0.0152909 0)
(-0.00625879 0.0206654 0)
(-0.0102428 0.0237584 0)
(-0.0146198 0.0254546 0)
(-0.0190462 0.02649 0)
(-0.0236936 0.0272598 0)
(-0.0284621 0.0280966 0)
(-0.0336134 0.0292131 0)
(-0.0392377 0.0308782 0)
(-0.0457179 0.033331 0)
(-0.0533259 0.036836 0)
(-0.0625222 0.0415702 0)
(-0.0736148 0.0476195 0)
(-0.0869343 0.0548916 0)
(-0.102552 0.0631187 0)
(-0.1204 0.0718316 0)
(-0.140082 0.0804057 0)
(-0.161021 0.0881147 0)
(-0.182411 0.0942385 0)
(-0.203435 0.0981677 0)
(-0.223296 0.099495 0)
(-0.241398 0.0980504 0)
(-0.257331 0.0938896 0)
(-0.270943 0.0872414 0)
(-0.282252 0.0784431 0)
(-0.291451 0.0678744 0)
(-0.298805 0.0559076 0)
(-0.304638 0.0428722 0)
(-0.309254 0.0290402 0)
(-0.312938 0.0146212 0)
(-0.3159 -0.000228564 0)
(-0.318289 -0.0153943 0)
(-0.320153 -0.0307823 0)
(-0.321455 -0.0463003 0)
(-0.322028 -0.0618302 0)
(-0.321589 -0.0771999 0)
(-0.319706 -0.0921494 0)
(-0.315808 -0.106298 0)
(-0.309195 -0.119113 0)
(-0.299096 -0.1299 0)
(-0.284754 -0.137817 0)
(-0.265578 -0.141935 0)
(-0.241325 -0.141372 0)
(-0.21231 -0.135478 0)
(-0.179556 -0.124081 0)
(-0.144856 -0.107711 0)
(-0.110571 -0.0877063 0)
(-0.0792174 -0.066077 0)
(-0.0528096 -0.0450402 0)
(-0.0323624 -0.0264349 0)
(-0.0177333 -0.0112541 0)
(-0.00805993 0.000294101 0)
(-0.00218136 0.00856104 0)
(0.000919924 0.0140137 0)
(0.00216605 0.0171113 0)
(0.00217937 0.0180354 0)
(0.00157466 0.0167363 0)
(0.000719822 0.0127782 0)
(0.000108018 0.00556603 0)
(-0.000472711 0.00791519 0)
(-0.0029632 0.0184077 0)
(-0.00682207 0.0246349 0)
(-0.0111229 0.0281296 0)
(-0.015843 0.030029 0)
(-0.0206255 0.0312085 0)
(-0.0256822 0.0321633 0)
(-0.0309369 0.0332979 0)
(-0.0367211 0.0349114 0)
(-0.0431896 0.0373571 0)
(-0.0508181 0.0409571 0)
(-0.0599457 0.0460197 0)
(-0.0710782 0.0527125 0)
(-0.0844949 0.061031 0)
(-0.100423 0.070715 0)
(-0.118728 0.0812547 0)
(-0.139064 0.0919023 0)
(-0.16071 0.101763 0)
(-0.182794 0.109916 0)
(-0.204304 0.115571 0)
(-0.224357 0.118189 0)
(-0.242227 0.117547 0)
(-0.257508 0.113724 0)
(-0.270049 0.107031 0)
(-0.279977 0.0979225 0)
(-0.287573 0.0869011 0)
(-0.293251 0.0744478 0)
(-0.297434 0.0609756 0)
(-0.300557 0.0468074 0)
(-0.302982 0.0321752 0)
(-0.305024 0.017228 0)
(-0.306911 0.00205058 0)
(-0.30881 -0.0133212 0)
(-0.310807 -0.02888 0)
(-0.312924 -0.0446311 0)
(-0.315084 -0.0605706 0)
(-0.317117 -0.0766615 0)
(-0.318704 -0.0928015 0)
(-0.319368 -0.10878 0)
(-0.318425 -0.124228 0)
(-0.314994 -0.138566 0)
(-0.308019 -0.15097 0)
(-0.296382 -0.160363 0)
(-0.279074 -0.165489 0)
(-0.25547 -0.165069 0)
(-0.225637 -0.158081 0)
(-0.190632 -0.144133 0)
(-0.152618 -0.123837 0)
(-0.114682 -0.0990196 0)
(-0.0801712 -0.0724994 0)
(-0.0517377 -0.0473601 0)
(-0.0304918 -0.0259064 0)
(-0.0159862 -0.00916763 0)
(-0.00686515 0.00300198 0)
(-0.00169979 0.011194 0)
(0.000803404 0.0161105 0)
(0.00154931 0.018139 0)
(0.00134147 0.0173856 0)
(0.000670158 0.0135016 0)
(0.000110389 0.0059326 0)
(-0.000518665 0.00951908 0)
(-0.00321071 0.0217952 0)
(-0.00735417 0.028923 0)
(-0.0119554 0.0328393 0)
(-0.0170067 0.0349631 0)
(-0.0221445 0.0363256 0)
(-0.0276254 0.0375392 0)
(-0.0334068 0.0390975 0)
(-0.0398969 0.0414057 0)
(-0.0473204 0.0449117 0)
(-0.0562375 0.0500151 0)
(-0.0670271 0.0570337 0)
(-0.0801867 0.0660636 0)
(-0.0958882 0.0769214 0)
(-0.114159 0.0890821 0)
(-0.134569 0.101708 0)
(-0.156434 0.113731 0)
(-0.178713 0.124011 0)
(-0.200322 0.13153 0)
(-0.220186 0.135574 0)
(-0.237526 0.135828 0)
(-0.251852 0.132377 0)
(-0.263077 0.125621 0)
(-0.271376 0.11615 0)
(-0.277173 0.104615 0)
(-0.280975 0.0916279 0)
(-0.283337 0.0777014 0)
(-0.284749 0.0632218 0)
(-0.285647 0.0484503 0)
(-0.286354 0.0335414 0)
(-0.287123 0.018567 0)
(-0.288118 0.0035413 0)
(-0.289466 -0.0115601 0)
(-0.291235 -0.0267851 0)
(-0.293475 -0.0421949 0)
(-0.296192 -0.0578559 0)
(-0.29935 -0.0738266 0)
(-0.302821 -0.0901407 0)
(-0.306361 -0.106769 0)
(-0.309523 -0.123572 0)
(-0.311615 -0.140223 0)
(-0.311638 -0.156128 0)
(-0.308299 -0.170341 0)
(-0.300091 -0.181534 0)
(-0.285519 -0.188045 0)
(-0.263447 -0.188081 0)
(-0.233567 -0.1801 0)
(-0.196877 -0.163381 0)
(-0.155953 -0.138632 0)
(-0.114746 -0.108346 0)
(-0.0776441 -0.0764989 0)
(-0.0479724 -0.0472389 0)
(-0.0268012 -0.0233829 0)
(-0.0130999 -0.00565761 0)
(-0.00503879 0.00646294 0)
(-0.000819203 0.0139908 0)
(0.000878433 0.017627 0)
(0.00114784 0.0177362 0)
(0.000659972 0.0141192 0)
(0.000125165 0.00629528 0)
(-0.000559164 0.0112408 0)
(-0.00343218 0.0254063 0)
(-0.00783486 0.0334779 0)
(-0.0127141 0.0378374 0)
(-0.0180798 0.0402136 0)
(-0.0235674 0.0418096 0)
(-0.0294826 0.0433738 0)
(-0.0358238 0.0455069 0)
(-0.0430791 0.0487358 0)
(-0.0515392 0.0536036 0)
(-0.0618255 0.0605624 0)
(-0.0743114 0.0698815 0)
(-0.0894133 0.0814982 0)
(-0.107108 0.0949474 0)
(-0.127139 0.109346 0)
(-0.14873 0.123477 0)
(-0.170872 0.135971 0)
(-0.192296 0.145543 0)
(-0.21186 0.151243 0)
(-0.228613 0.152605 0)
(-0.242058 0.149684 0)
(-0.252069 0.142954 0)
(-0.258936 0.133152 0)
(-0.263157 0.121098 0)
(-0.265386 0.107559 0)
(-0.266251 0.0931625 0)
(-0.266338 0.0783644 0)
(-0.266083 0.0634533 0)
(-0.265824 0.0485818 0)
(-0.26576 0.0338041 0)
(-0.266023 0.0191127 0)
(-0.266665 0.00446597 0)
(-0.267726 -0.010193 0)
(-0.269223 -0.0249286 0)
(-0.271195 -0.0398093 0)
(-0.273682 -0.0549135 0)
(-0.276743 -0.0703281 0)
(-0.280418 -0.0861532 0)
(-0.284705 -0.10248 0)
(-0.289481 -0.119371 0)
(-0.294433 -0.136777 0)
(-0.298938 -0.154465 0)
(-0.301976 -0.171863 0)
(-0.302075 -0.187944 0)
(-0.297364 -0.201112 0)
(-0.285814 -0.209241 0)
(-0.265675 -0.209887 0)
(-0.236146 -0.200837 0)
(-0.198088 -0.180923 0)
(-0.154546 -0.150997 0)
(-0.110524 -0.114548 0)
(-0.0716415 -0.0770999 0)
(-0.0418342 -0.0441621 0)
(-0.0217523 -0.018689 0)
(-0.00958529 -0.000933557 0)
(-0.00294738 0.0103629 0)
(5.62849e-05 0.016334 0)
(0.000950777 0.0177518 0)
(0.000676342 0.0146576 0)
(0.000150721 0.00669063 0)
(-0.000595782 0.013087 0)
(-0.00362831 0.0292481 0)
(-0.00826135 0.0383099 0)
(-0.0133936 0.0431414 0)
(-0.0190538 0.0458082 0)
(-0.0248824 0.0477033 0)
(-0.031236 0.0497305 0)
(-0.0381582 0.0526139 0)
(-0.0462121 0.0570113 0)
(-0.0557385 0.0635452 0)
(-0.0673817 0.0726727 0)
(-0.0814493 0.0845307 0)
(-0.0982001 0.0987931 0)
(-0.117343 0.114612 0)
(-0.138295 0.130686 0)
(-0.159948 0.14543 0)
(-0.18106 0.157271 0)
(-0.20029 0.164951 0)
(-0.216631 0.167776 0)
(-0.22943 0.165697 0)
(-0.238596 0.159228 0)
(-0.244414 0.149243 0)
(-0.24752 0.136755 0)
(-0.248642 0.122709 0)
(-0.248543 0.107874 0)
(-0.24784 0.0927846 0)
(-0.247028 0.0777585 0)
(-0.2464 0.0629365 0)
(-0.246133 0.0483409 0)
(-0.246267 0.0339258 0)
(-0.246796 0.0196197 0)
(-0.247658 0.00534886 0)
(-0.248809 -0.00894692 0)
(-0.250203 -0.0233168 0)
(-0.251849 -0.0377999 0)
(-0.253782 -0.052443 0)
(-0.256099 -0.067305 0)
(-0.258924 -0.0824803 0)
(-0.262413 -0.0980925 0)
(-0.266693 -0.114303 0)
(-0.271812 -0.131262 0)
(-0.277617 -0.149059 0)
(-0.283626 -0.16757 0)
(-0.288864 -0.186309 0)
(-0.291746 -0.204183 0)
(-0.290081 -0.219339 0)
(-0.281289 -0.229099 0)
(-0.262962 -0.230248 0)
(-0.233711 -0.21972 0)
(-0.194268 -0.195824 0)
(-0.148247 -0.15974 0)
(-0.10199 -0.116398 0)
(-0.0624733 -0.0735308 0)
(-0.0339321 -0.0378586 0)
(-0.0160205 -0.0121379 0)
(-0.00595354 0.00458486 0)
(-0.0010963 0.0139431 0)
(0.000674606 0.0173066 0)
(0.000695678 0.0150886 0)
(0.000184779 0.00712705 0)
(-0.000623099 0.0150153 0)
(-0.00378259 0.0332519 0)
(-0.00860773 0.0433447 0)
(-0.0139592 0.0486785 0)
(-0.0198848 0.0516797 0)
(-0.0260342 0.0539473 0)
(-0.0328142 0.0565592 0)
(-0.0403127 0.0603741 0)
(-0.0491556 0.0661778 0)
(-0.0597072 0.0746382 0)
(-0.0725858 0.0861484 0)
(-0.08797 0.100615 0)
(-0.105896 0.117348 0)
(-0.125767 0.135046 0)
(-0.146685 0.151983 0)
(-0.167296 0.166287 0)
(-0.186271 0.176347 0)
(-0.202381 0.18113 0)
(-0.214921 0.180383 0)
(-0.223655 0.174575 0)
(-0.228928 0.164696 0)
(-0.231385 0.15195 0)
(-0.231902 0.137502 0)
(-0.231297 0.12229 0)
(-0.230299 0.10696 0)
(-0.229399 0.091867 0)
(-0.228918 0.0771427 0)
(-0.228962 0.0627635 0)
(-0.229537 0.0486304 0)
(-0.230537 0.0346204 0)
(-0.231843 0.0206264 0)
(-0.23331 0.00657059 0)
(-0.234831 -0.00758654 0)
(-0.236318 -0.0218583 0)
(-0.237748 -0.0362352 0)
(-0.239135 -0.0507106 0)
(-0.240571 -0.0652857 0)
(-0.242195 -0.0800048 0)
(-0.244221 -0.0949549 0)
(-0.246898 -0.110303 0)
(-0.250498 -0.12627 0)
(-0.255222 -0.143134 0)
(-0.261098 -0.161114 0)
(-0.267797 -0.180259 0)
(-0.274417 -0.200163 0)
(-0.279305 -0.219703 0)
(-0.279959 -0.236707 0)
(-0.273284 -0.247875 0)
(-0.256167 -0.249041 0)
(-0.226681 -0.236145 0)
(-0.18547 -0.206988 0)
(-0.137048 -0.163417 0)
(-0.0893781 -0.112708 0)
(-0.0508505 -0.0652163 0)
(-0.0251705 -0.0286679 0)
(-0.0103275 -0.00423126 0)
(-0.00283034 0.00999651 0)
(0.000206943 0.0162116 0)
(0.000679325 0.0153649 0)
(0.00022158 0.00761613 0)
(-0.000643166 0.0170297 0)
(-0.00389612 0.0374225 0)
(-0.00887038 0.0485927 0)
(-0.0144027 0.0544674 0)
(-0.0205581 0.0578556 0)
(-0.026999 0.0605787 0)
(-0.0341769 0.0639048 0)
(-0.0422185 0.068832 0)
(-0.0517899 0.0762574 0)
(-0.0632446 0.0868421 0)
(-0.077122 0.10083 0)
(-0.0934199 0.117795 0)
(-0.111917 0.136604 0)
(-0.131721 0.155476 0)
(-0.15169 0.172323 0)
(-0.170351 0.185132 0)
(-0.186456 0.192454 0)
(-0.199045 0.193672 0)
(-0.207822 0.189101 0)
(-0.212992 0.179753 0)
(-0.215277 0.167025 0)
(-0.215569 0.152319 0)
(-0.214829 0.136801 0)
(-0.213825 0.121268 0)
(-0.21314 0.106151 0)
(-0.213068 0.0915772 0)
(-0.213728 0.0774819 0)
(-0.215047 0.0636963 0)
(-0.216889 0.050033 0)
(-0.219046 0.036327 0)
(-0.22133 0.0224673 0)
(-0.223553 0.00839532 0)
(-0.225579 -0.00589212 0)
(-0.227299 -0.0203643 0)
(-0.22867 -0.0349587 0)
(-0.229681 -0.0496122 0)
(-0.230399 -0.0642606 0)
(-0.230936 -0.0788813 0)
(-0.231493 -0.0934891 0)
(-0.232337 -0.108195 0)
(-0.233816 -0.123188 0)
(-0.236314 -0.138796 0)
(-0.240191 -0.155405 0)
(-0.245644 -0.173433 0)
(-0.252487 -0.193076 0)
(-0.259896 -0.214059 0)
(-0.266104 -0.23515 0)
(-0.268321 -0.253799 0)
(-0.26287 -0.26589 0)
(-0.246028 -0.26613 0)
(-0.215354 -0.24935 0)
(-0.171782 -0.213004 0)
(-0.121083 -0.160489 0)
(-0.0733813 -0.102444 0)
(-0.0379428 -0.0524647 0)
(-0.01662 -0.0173042 0)
(-0.00544819 0.00381328 0)
(-0.000587912 0.0141415 0)
(0.000580564 0.0153621 0)
(0.000254945 0.00813453 0)
(-0.000649579 0.0190704 0)
(-0.0039497 0.0416647 0)
(-0.00901917 0.0539504 0)
(-0.014683 0.0604038 0)
(-0.02102 0.0642321 0)
(-0.0277064 0.0674914 0)
(-0.0352287 0.071651 0)
(-0.0437415 0.0778425 0)
(-0.0539236 0.0870434 0)
(-0.0660807 0.0998415 0)
(-0.0806293 0.116243 0)
(-0.0973557 0.135411 0)
(-0.115784 0.155724 0)
(-0.13478 0.174959 0)
(-0.153063 0.190779 0)
(-0.169189 0.201214 0)
(-0.18213 0.205164 0)
(-0.191297 0.202579 0)
(-0.196827 0.194381 0)
(-0.19931 0.182074 0)
(-0.199727 0.167327 0)
(-0.199065 0.15158 0)
(-0.198236 0.135859 0)
(-0.197846 0.120716 0)
(-0.19827 0.106319 0)
(-0.199589 0.0925629 0)
(-0.201738 0.0792135 0)
(-0.204507 0.0659981 0)
(-0.207668 0.0526843 0)
(-0.21096 0.0391022 0)
(-0.214174 0.0251638 0)
(-0.217111 0.0108451 0)
(-0.219639 -0.0038136 0)
(-0.221647 -0.0187387 0)
(-0.223085 -0.0338198 0)
(-0.223926 -0.0489465 0)
(-0.224204 -0.0639969 0)
(-0.223993 -0.0788867 0)
(-0.223442 -0.0935513 0)
(-0.222766 -0.108019 0)
(-0.222287 -0.122389 0)
(-0.222416 -0.136932 0)
(-0.223649 -0.152038 0)
(-0.226493 -0.168288 0)
(-0.2313 -0.186261 0)
(-0.238034 -0.206394 0)
(-0.24587 -0.228455 0)
(-0.252919 -0.251072 0)
(-0.255941 -0.271077 0)
(-0.250731 -0.283307 0)
(-0.23289 -0.281083 0)
(-0.199851 -0.258074 0)
(-0.153189 -0.21206 0)
(-0.100851 -0.149227 0)
(-0.0552578 -0.0855189 0)
(-0.0253602 -0.0361905 0)
(-0.00927358 -0.00547291 0)
(-0.0018577 0.010656 0)
(0.000350671 0.0149068 0)
(0.00027652 0.00864801 0)
(-0.000645535 0.0211399 0)
(-0.00394697 0.0459822 0)
(-0.00905287 0.0594286 0)
(-0.0147933 0.0665067 0)
(-0.0212551 0.0708321 0)
(-0.0281275 0.0747069 0)
(-0.0359186 0.0798065 0)
(-0.0447952 0.0873827 0)
(-0.055418 0.09845 0)
(-0.0680126 0.113452 0)
(-0.0828428 0.132078 0)
(-0.0994834 0.15302 0)
(-0.117241 0.174178 0)
(-0.134826 0.192964 0)
(-0.15094 0.206948 0)