/*--------------------------------*- C++ -*----------------------------------*\
| =========                 |                                                 |
| \\      /  F ield         | OpenFOAM: The Open Source CFD Toolbox           |
|  \\    /   O peration     | Version:  2406                                  |
|   \\  /    A nd           | Website:  www.openfoam.com                      |
|    \\/     M anipulation  |                                                 |
\*---------------------------------------------------------------------------*/
FoamFile
{
    version     2.0;
    format      ascii;
    arch        "LSB;label=32;scalar=64";
    class       volVectorField;
    location    "48.8";
    object      U;
}
// * * * * * * * * * * * * * * * * * * * * * * * * * * * * * * * * * * * * * //

dimensions      [0 1 -1 0 0 0 0];

internalField   nonuniform List<vector> 
14400
(
(-7.41933e-06 7.31389e-06 0)
(1.3508e-05 -1.11885e-05 0)
(0.000122604 -3.52974e-05 0)
(0.000315693 -5.49635e-05 0)
(0.000572666 -6.85871e-05 0)
(0.000870337 -7.591e-05 0)
(0.00118542 -7.75205e-05 0)
(0.00149724 -7.43468e-05 0)
(0.00178903 -6.75414e-05 0)
(0.00204856 -5.8342e-05 0)
(0.00226839 -4.79626e-05 0)
(0.00244557 -3.74912e-05 0)
(0.00258109 -2.78124e-05 0)
(0.00267898 -1.95603e-05 0)
(0.0027453 -1.30977e-05 0)
(0.00278714 -8.51996e-06 0)
(0.00281172 -5.74055e-06 0)
(0.00282531 -4.57659e-06 0)
(0.00283265 -4.57333e-06 0)
(0.00283673 -5.19579e-06 0)
(0.00283822 -5.8357e-06 0)
(0.00283616 -5.64586e-06 0)
(0.00282786 -4.49731e-06 0)
(0.00280874 -2.20128e-06 0)
(0.00277337 1.43363e-06 0)
(0.00271573 6.49756e-06 0)
(0.0026295 1.3018e-05 0)
(0.00250825 2.09963e-05 0)
(0.00234553 3.04334e-05 0)
(0.00213487 4.13469e-05 0)
(0.00186969 5.37752e-05 0)
(0.00154328 6.77708e-05 0)
(0.00114879 8.33867e-05 0)
(0.000679287 0.000100661 0)
(0.000127847 0.000119604 0)
(-0.000512257 0.000140184 0)
(-0.00124737 0.000162322 0)
(-0.00208319 0.000185886 0)
(-0.00302458 0.000210688 0)
(-0.00407523 0.000236481 0)
(-0.00523747 0.000262962 0)
(-0.00651197 0.000289773 0)
(-0.00789754 0.000316501 0)
(-0.00939089 0.000342688 0)
(-0.0109865 0.000367837 0)
(-0.0126766 0.000391418 0)
(-0.0144507 0.000412876 0)
(-0.0162962 0.000431646 0)
(-0.0181979 0.000447153 0)
(-0.0201382 0.00045883 0)
(-0.0220976 0.000466118 0)
(-0.0240544 0.000468479 0)
(-0.0259851 0.000465401 0)
(-0.0278648 0.000456406 0)
(-0.0296673 0.00044106 0)
(-0.0313657 0.000418982 0)
(-0.0329322 0.000389847 0)
(-0.0343393 0.000353418 0)
(-0.0355592 0.000309536 0)
(-0.0365655 0.000258037 0)
(-0.0373331 0.000199335 0)
(-0.0378388 0.000135558 0)
(-0.0380578 6.67349e-05 0)
(-0.0379707 -1.05598e-05 0)
(-0.0375662 -9.38364e-05 0)
(-0.036832 -0.000180607 0)
(-0.0357612 -0.000269589 0)
(-0.034353 -0.000359299 0)
(-0.0326123 -0.000447971 0)
(-0.0305507 -0.000533643 0)
(-0.0281866 -0.000614206 0)
(-0.0255454 -0.000687478 0)
(-0.0226594 -0.000751284 0)
(-0.0195677 -0.000803565 0)
(-0.0163154 -0.000842472 0)
(-0.0129529 -0.000866481 0)
(-0.00953485 -0.000874494 0)
(-0.00611842 -0.000865926 0)
(-0.0027619 -0.000840774 0)
(0.000477261 -0.000799653 0)
(0.00354426 -0.000743796 0)
(0.00638888 -0.00067501 0)
(0.00896718 -0.000595601 0)
(0.0112431 -0.000508254 0)
(0.0131895 -0.000415887 0)
(0.014789 -0.000321489 0)
(0.0160345 -0.000227961 0)
(0.0169287 -0.000137936 0)
(0.0174835 -5.35085e-05 0)
(0.0177211 2.28445e-05 0)
(0.0176664 8.73189e-05 0)
(0.0173505 0.000141896 0)
(0.0168126 0.000187917 0)
(0.0160919 0.000224198 0)
(0.0152265 0.000250374 0)
(0.0142537 0.000267247 0)
(0.0132091 0.000275874 0)
(0.0121248 0.000277391 0)
(0.0110292 0.000272986 0)
(0.0099462 0.000263841 0)
(0.00889513 0.000251083 0)
(0.00789109 0.000235749 0)
(0.00694502 0.00021876 0)
(0.00606416 0.000200911 0)
(0.0052525 0.000182868 0)
(0.00451128 0.000165174 0)
(0.00383949 0.000148254 0)
(0.00323436 0.00013243 0)
(0.00269179 0.000117922 0)
(0.00220683 0.000104842 0)
(0.00177419 9.31769e-05 0)
(0.00138881 8.2757e-05 0)
(0.0010466 7.32175e-05 0)
(0.000745242 6.39658e-05 0)
(0.00048507 5.41749e-05 0)
(0.000269707 4.28764e-05 0)
(0.000106164 2.92219e-05 0)
(3.35803e-06 1.29759e-05 0)
(-3.42086e-05 -3.77998e-06 0)
(-1.33343e-05 -1.33529e-05 0)
(9.97308e-06 -1.25735e-05 0)
(0.000153264 -0.00015797 0)
(0.000483394 -0.00033671 0)
(0.00099444 -0.000486767 0)
(0.00164038 -0.0005927 0)
(0.00237394 -0.000650909 0)
(0.00314465 -0.000664126 0)
(0.0039063 -0.000638707 0)
(0.00462026 -0.000583136 0)
(0.00525744 -0.000506872 0)
(0.00579898 -0.000419392 0)
(0.00623591 -0.000329356 0)
(0.00656807 -0.000243953 0)
(0.00680227 -0.000168471 0)
(0.00695013 -0.0001061 0)
(0.0070258 -5.79488e-05 0)
(0.00704372 -2.32731e-05 0)
(0.00701664 1.33974e-07 0)
(0.00695408 1.57985e-05 0)
(0.00686122 2.79192e-05 0)
(0.00673853 4.08791e-05 0)
(0.00658134 5.90034e-05 0)
(0.00638057 8.55434e-05 0)
(0.00612387 0.000123049 0)
(0.00579616 0.000173261 0)
(0.00538062 0.000237168 0)
(0.00485953 0.000315217 0)
(0.00421476 0.000407545 0)
(0.00342808 0.000514189 0)
(0.0024813 0.000635206 0)
(0.0013564 0.000770706 0)
(3.55381e-05 0.000920793 0)
(-0.00149866 0.00108546 0)
(-0.0032628 0.00126448 0)
(-0.00527224 0.00145725 0)
(-0.00754051 0.00166275 0)
(-0.0100787 0.00187946 0)
(-0.0128945 0.00210532 0)
(-0.0159922 0.0023377 0)
(-0.019371 0.00257346 0)
(-0.0230256 0.00280893 0)
(-0.0269446 0.00303999 0)
(-0.0311111 0.00326213 0)
(-0.0355019 0.00347055 0)
(-0.0400878 0.00366027 0)
(-0.0448337 0.00382626 0)
(-0.0496989 0.00396353 0)
(-0.0546377 0.00406726 0)
(-0.0596001 0.00413294 0)
(-0.0645324 0.00415646 0)
(-0.0693781 0.00413416 0)
(-0.074079 0.00406297 0)
(-0.078576 0.00394044 0)
(-0.0828097 0.00376474 0)
(-0.0867219 0.00353478 0)
(-0.0902558 0.00325018 0)
(-0.0933572 0.00291128 0)
(-0.0959751 0.00251926 0)
(-0.0980623 0.00207608 0)
(-0.0995761 0.00158456 0)
(-0.100478 0.0010486 0)
(-0.100738 0.000474247 0)
(-0.100332 -0.000132327 0)
(-0.0992385 -0.000768258 0)
(-0.0974465 -0.00142478 0)
(-0.094954 -0.00209261 0)
(-0.0917675 -0.00276181 0)
(-0.0879018 -0.00342168 0)
(-0.0833817 -0.00406071 0)
(-0.0782418 -0.00466684 0)
(-0.072527 -0.00522761 0)
(-0.066292 -0.00573059 0)
(-0.0596019 -0.00616364 0)
(-0.0525309 -0.00651544 0)
(-0.045162 -0.0067759 0)
(-0.0375857 -0.00693665 0)
(-0.0298987 -0.00699154 0)
(-0.0222019 -0.00693704 0)
(-0.0145987 -0.00677261 0)
(-0.00719228 -0.00650091 0)
(-8.34337e-05 -0.00612789 0)
(0.00663228 -0.00566277 0)
(0.012867 -0.00511771 0)
(0.0185431 -0.0045075 0)
(0.0235956 -0.00384887 0)
(0.0279736 -0.00315992 0)
(0.0316423 -0.00245928 0)
(0.0345836 -0.0017653 0)
(0.0367963 -0.00109537 0)
(0.0382951 -0.000465356 0)
(0.0391116 0.000109631 0)
(0.0392936 0.000621913 0)
(0.0388978 0.00106559 0)
(0.0379902 0.00143528 0)
(0.0366449 0.00172905 0)
(0.0349395 0.00194853 0)
(0.0329523 0.00209787 0)
(0.0307594 0.00218313 0)
(0.0284323 0.00221179 0)
(0.0260361 0.00219219 0)
(0.0236279 0.00213305 0)
(0.021256 0.00204296 0)
(0.0189597 0.00193008 0)
(0.0167689 0.00180188 0)
(0.0147054 0.00166491 0)
(0.0127829 0.00152479 0)
(0.0110085 0.00138615 0)
(0.0093837 0.00125263 0)
(0.00790535 0.00112689 0)
(0.00656706 0.00101054 0)
(0.00536053 0.000904025 0)
(0.00427708 0.000806377 0)
(0.00330935 0.000715055 0)
(0.00245314 0.000625797 0)
(0.00170913 0.000532792 0)
(0.00108395 0.00042952 0)
(0.000589993 0.000310803 0)
(0.000241276 0.000177207 0)
(4.84615e-05 4.30318e-05 0)
(-2.68323e-06 -3.32336e-05 0)
(3.22125e-05 -0.000115382 0)
(0.000321251 -0.000483605 0)
(0.000858545 -0.000877564 0)
(0.00163257 -0.00120633 0)
(0.00257471 -0.00143894 0)
(0.00362487 -0.00156612 0)
(0.00471713 -0.00159216 0)
(0.00579026 -0.00152989 0)
(0.00679235 -0.00139746 0)
(0.00768352 -0.00121561 0)
(0.00843692 -0.00100542 0)
(0.00903851 -0.000786394 0)
(0.00948568 -0.000574871 0)
(0.00978496 -0.000383053 0)
(0.00994927 -0.00021845 0)
(0.00999488 -8.3831e-05 0)
(0.00993838 2.24327e-05 0)
(0.00979415 0.000105623 0)
(0.0095721 0.00017377 0)
(0.00927609 0.000236539 0)
(0.00890331 0.000304074 0)
(0.00844417 0.000385844 0)
(0.00788291 0.000490203 0)
(0.00719885 0.000623559 0)
(0.00636753 0.000790301 0)
(0.00536204 0.000993034 0)
(0.00415411 0.001233 0)
(0.002715 0.00151059 0)
(0.00101607 0.00182571 0)
(-0.000970748 0.00217809 0)
(-0.00327259 0.00256724 0)
(-0.0059151 0.00299235 0)
(-0.00892185 0.00345204 0)
(-0.0123135 0.00394403 0)
(-0.0161066 0.00446497 0)
(-0.0203131 0.0050102 0)
(-0.0249386 0.00557369 0)
(-0.0299815 0.006148 0)
(-0.0354325 0.00672438 0)
(-0.0412732 0.00729284 0)
(-0.0474762 0.00784242 0)
(-0.0540047 0.0083614 0)
(-0.0608126 0.00883762 0)
(-0.0678455 0.00925885 0)
(-0.0750409 0.00961313 0)
(-0.0823299 0.00988915 0)
(-0.0896385 0.0100765 0)
(-0.0968891 0.0101662 0)
(-0.104002 0.0101505 0)
(-0.110897 0.0100235 0)
(-0.117496 0.00978094 0)
(-0.123721 0.00942028 0)
(-0.1295 0.0089408 0)
(-0.134764 0.00834339 0)
(-0.139451 0.00763053 0)
(-0.143502 0.00680618 0)
(-0.146867 0.00587567 0)
(-0.149501 0.00484564 0)
(-0.151366 0.00372402 0)
(-0.15243 0.00252 0)
(-0.152669 0.00124364 0)
(-0.152063 -9.40148e-05 0)
(-0.150605 -0.00147875 0)
(-0.148291 -0.0028956 0)
(-0.145123 -0.00433019 0)
(-0.141113 -0.00576598 0)
(-0.13628 -0.0071846 0)
(-0.130651 -0.00856646 0)
(-0.124262 -0.00989097 0)
(-0.117159 -0.0111368 0)
(-0.109394 -0.0122822 0)
(-0.10103 -0.0133054 0)
(-0.0921394 -0.0141855 0)
(-0.0828015 -0.0149027 0)
(-0.0731056 -0.015439 0)
(-0.0631478 -0.0157796 0)
(-0.0530311 -0.0159128 0)
(-0.0428636 -0.0158314 0)
(-0.0327569 -0.015533 0)
(-0.0228244 -0.0150204 0)
(-0.0131789 -0.0143023 0)
(-0.00393033 -0.0133928 0)
(0.00481668 -0.0123116 0)
(0.0129652 -0.0110832 0)
(0.0204285 -0.0097365 0)
(0.0271322 -0.00830355 0)
(0.0330162 -0.00681863 0)
(0.0380363 -0.00531694 0)
(0.0421656 -0.00383331 0)
(0.0453946 -0.00240072 0)
(0.0477335 -0.00104829 0)
(0.0492104 0.000197433 0)
(0.0498681 0.00131389 0)
(0.0497655 0.00228542 0)
(0.0489759 0.00310246 0)
(0.0475832 0.0037609 0)
(0.0456782 0.00426226 0)
(0.0433557 0.00461324 0)
(0.0407112 0.00482496 0)
(0.0378374 0.00491194 0)
(0.034821 0.00489106 0)
(0.0317406 0.00478047 0)
(0.0286645 0.00459858 0)
(0.0256501 0.00436322 0)
(0.022743 0.00409096 0)
(0.0199776 0.00379662 0)
(0.0173777 0.00349301 0)
(0.0149577 0.00319067 0)
(0.0127237 0.00289771 0)
(0.0106761 0.00261964 0)
(0.00881039 0.00235898 0)
(0.00712029 0.00211492 0)
(0.00559964 0.00188296 0)
(0.00424496 0.00165484 0)
(0.00305764 0.00141911 0)
(0.00204528 0.00116314 0)
(0.00122152 0.000877239 0)
(0.000600284 0.000562561 0)
(0.000203391 0.000243828 0)
(1.69891e-05 1.24373e-05 0)
(5.00094e-05 -0.000295975 0)
(0.000462945 -0.000982658 0)
(0.00117677 -0.00164944 0)
(0.00216688 -0.00219466 0)
(0.0033394 -0.00257566 0)
(0.00462299 -0.00277856 0)
(0.00594051 -0.00281002 0)
(0.00722104 -0.00269083 0)
(0.00840451 -0.00245085 0)
(0.00944454 -0.0021245 0)
(0.0103094 -0.00174699 0)
(0.0109816 -0.00135094 0)
(0.0114564 -0.000963857 0)
(0.011739 -0.000606292 0)
(0.0118414 -0.000290924 0)
(0.0117792 -2.23823e-05 0)
(0.0115676 0.000202224 0)
(0.0112191 0.000392162 0)
(0.0107402 0.00056141 0)
(0.0101306 0.000726835 0)
(0.00938133 0.000906199 0)
(0.0084758 0.00111631 0)
(0.00739004 0.00137165 0)
(0.0060943 0.00168345 0)
(0.00455463 0.00205944 0)
(0.00273446 0.0025042 0)
(0.000596077 0.00301978 0)
(-0.00189823 0.0036065 0)
(-0.00478515 0.00426349 0)
(-0.00809948 0.00498908 0)
(-0.0118732 0.00578067 0)
(-0.0161342 0.00663451 0)
(-0.0209053 0.00754521 0)
(-0.0262026 0.00850532 0)
(-0.0320339 0.00950501 0)
(-0.0383977 0.0105319 0)
(-0.0452812 0.0115709 0)
(-0.05266 0.0126048 0)
(-0.0604972 0.0136141 0)
(-0.0687434 0.014578 0)
(-0.0773374 0.0154744 0)
(-0.0862069 0.0162815 0)
(-0.0952704 0.0169776 0)
(-0.104439 0.0175426 0)
(-0.11362 0.0179584 0)
(-0.122716 0.0182092 0)
(-0.131631 0.0182826 0)
(-0.140272 0.018169 0)
(-0.148548 0.0178625 0)
(-0.156376 0.0173605 0)
(-0.163678 0.0166633 0)
(-0.170385 0.0157741 0)
(-0.176436 0.0146985 0)
(-0.181776 0.0134445 0)
(-0.18636 0.0120215 0)
(-0.19015 0.0104406 0)
(-0.193114 0.00871426 0)
(-0.195227 0.00685597 0)
(-0.19647 0.00488029 0)
(-0.196831 0.00280286 0)
(-0.196299 0.000640329 0)
(-0.194872 -0.00158995 0)
(-0.19255 -0.00386967 0)
(-0.189341 -0.00617698 0)
(-0.185255 -0.00848984 0)
(-0.180308 -0.0107849 0)
(-0.174521 -0.0130371 0)
(-0.167923 -0.0152196 0)
(-0.160546 -0.0173043 0)
(-0.152431 -0.0192617 0)
(-0.143627 -0.0210616 0)
(-0.134191 -0.0226739 0)
(-0.124186 -0.0240688 0)
(-0.113687 -0.0252178 0)
(-0.102773 -0.0260952 0)
(-0.0915348 -0.0266784 0)
(-0.0800694 -0.0269493 0)
(-0.06848 -0.0268957 0)
(-0.0568751 -0.0265116 0)
(-0.0453667 -0.0257983 0)
(-0.0340685 -0.024765 0)
(-0.0230937 -0.0234288 0)
(-0.0125524 -0.0218146 0)
(-0.00254982 -0.0199547 0)
(0.00681613 -0.0178879 0)
(0.0154571 -0.0156583 0)
(0.0232963 -0.0133141 0)
(0.0302699 -0.0109059 0)
(0.0363288 -0.00848516 0)
(0.0414395 -0.00610248 0)
(0.0455858 -0.00380579 0)
(0.0487676 -0.00164007 0)
(0.0510024 0.00035544 0)
(0.052326 0.00214909 0)
(0.0527902 0.00371668 0)
(0.0524616 0.00504195 0)
(0.0514203 0.00611729 0)
(0.0497568 0.0069437 0)
(0.0475691 0.0075302 0)
(0.0449588 0.00789287 0)
(0.0420279 0.00805355 0)
(0.0388743 0.00803823 0)
(0.0355894 0.00787541 0)
(0.0322549 0.00759449 0)
(0.0289413 0.00722428 0)
(0.0257066 0.00679184 0)
(0.0225963 0.00632153 0)
(0.0196436 0.0058343 0)
(0.0168709 0.00534707 0)
(0.0142913 0.00487217 0)
(0.0119105 0.00441671 0)
(0.00972966 0.00398192 0)
(0.00774812 0.00356265 0)
(0.0059659 0.00314742 0)
(0.0043867 0.0027195 0)
(0.00301968 0.00225997 0)
(0.00188028 0.00175373 0)
(0.000984154 0.00119995 0)
(0.000372144 0.000627214 0)
(3.84227e-05 0.000138339 0)
(6.33836e-05 -0.000537645 0)
(0.000573736 -0.00161816 0)
(0.00143003 -0.00259729 0)
(0.00259205 -0.00337566 0)
(0.00394022 -0.00390645 0)
(0.00539086 -0.00417529 0)
(0.00685671 -0.00419376 0)
(0.00825939 -0.00399244 0)
(0.00953353 -0.00361443 0)
(0.0106291 -0.00310921 0)
(0.0115121 -0.00252715 0)
(0.0121633 -0.0019148 0)
(0.0125766 -0.00131121 0)
(0.0127557 -0.000745396 0)
(0.0127109 -0.000234942 0)
(0.0124547 0.000214244 0)
(0.011999 0.000607155 0)
(0.0113509 0.000958076 0)
(0.0105109 0.00128818 0)
(0.00947108 0.00162274 0)
(0.00821404 0.00198818 0)
(0.00671383 0.0024094 0)
(0.00493683 0.0029076 0)
(0.00284365 0.00349907 0)
(0.000391023 0.00419478 0)
(-0.00246612 0.00500082 0)
(-0.00577291 0.00591927 0)
(-0.00957292 0.00694921 0)
(-0.0139067 0.00808733 0)
(-0.0188101 0.00932827 0)
(-0.0243128 0.0106644 0)
(-0.0304363 0.0120854 0)
(-0.0371924 0.0135777 0)
(-0.0445804 0.0151237 0)
(-0.0525864 0.0167022 0)
(-0.0611815 0.0182878 0)
(-0.0703211 0.0198518 0)
(-0.0799451 0.0213627 0)
(-0.0899788 0.0227873 0)
(-0.100334 0.0240919 0)
(-0.110913 0.0252435 0)
(-0.12161 0.0262114 0)
(-0.132314 0.0269679 0)
(-0.142915 0.0274896 0)
(-0.153304 0.0277583 0)
(-0.16338 0.0277607 0)
(-0.173047 0.0274893 0)
(-0.18222 0.0269416 0)
(-0.190822 0.0261196 0)
(-0.19879 0.0250298 0)
(-0.206068 0.0236816 0)
(-0.212611 0.0220875 0)
(-0.218382 0.0202619 0)
(-0.223354 0.0182205 0)
(-0.227503 0.0159802 0)
(-0.230812 0.0135585 0)
(-0.233271 0.0109734 0)
(-0.234869 0.00824333 0)
(-0.235602 0.00538715 0)
(-0.235466 0.00242418 0)
(-0.23446 -0.000625315 0)
(-0.232585 -0.00374009 0)
(-0.229845 -0.00689837 0)
(-0.226244 -0.0100762 0)
(-0.22179 -0.0132475 0)
(-0.216494 -0.0163846 0)
(-0.210371 -0.0194576 0)
(-0.203439 -0.0224344 0)
(-0.195722 -0.0252808 0)
(-0.187249 -0.0279607 0)
(-0.178059 -0.0304366 0)
(-0.168195 -0.0326703 0)
(-0.15771 -0.0346236 0)
(-0.146666 -0.0362595 0)
(-0.135135 -0.0375433 0)
(-0.123195 -0.0384442 0)
(-0.110938 -0.0389365 0)
(-0.0984591 -0.039001 0)
(-0.0858644 -0.0386265 0)
(-0.0732633 -0.0378108 0)
(-0.0607694 -0.0365614 0)
(-0.0484977 -0.0348961 0)
(-0.0365622 -0.0328428 0)
(-0.0250733 -0.0304389 0)
(-0.0141359 -0.0277306 0)
(-0.00384703 -0.0247715 0)
(0.00570618 -0.0216209 0)
(0.0144477 -0.018342 0)
(0.022314 -0.0150003 0)
(0.0292551 -0.0116613 0)
(0.035235 -0.0083891 0)
(0.0402324 -0.00524451 0)
(0.0442413 -0.00228248 0)
(0.0472717 0.00044802 0)
(0.0493494 0.00290586 0)
(0.050516 0.00505932 0)
(0.0508287 0.00688691 0)
(0.0503589 0.00837793 0)
(0.0491903 0.00953263 0)
(0.0474168 0.0103618 0)
(0.0451387 0.0108856 0)
(0.0424592 0.0111325 0)
(0.0394806 0.0111367 0)
(0.0363004 0.0109364 0)
(0.0330083 0.0105714 0)
(0.0296834 0.0100812 0)
(0.026393 0.00950292 0)
(0.0231912 0.00886996 0)
(0.02012 0.00821064 0)
(0.0172095 0.00754691 0)
(0.0144802 0.00689327 0)
(0.0119453 0.00625563 0)
(0.00961325 0.00563061 0)
(0.007491 0.00500554 0)
(0.00558718 0.00435986 0)
(0.00391478 0.00366888 0)
(0.00249354 0.00291075 0)
(0.00134409 0.00207785 0)
(0.000530308 0.0011921 0)
(5.81641e-05 0.000345657 0)
(7.33e-05 -0.000826076 0)
(0.000658632 -0.00236265 0)
(0.00162629 -0.00368774 0)
(0.00292023 -0.00470967 0)
(0.00439615 -0.00538362 0)
(0.00595691 -0.00569964 0)
(0.00750502 -0.00567791 0)
(0.00895555 -0.00536167 0)
(0.0102395 -0.00480944 0)
(0.0113052 -0.00408726 0)
(0.0121182 -0.00326153 0)
(0.0126592 -0.00239298 0)
(0.0129217 -0.00153196 0)
(0.0129082 -0.0007152 0)
(0.0126263 3.58662e-05 0)
(0.0120845 0.00071535 0)
(0.0112886 0.00133181 0)
(0.0102383 0.00190598 0)
(0.00892515 0.00246751 0)
(0.00733072 0.00305113 0)
(0.00542699 0.00369263 0)
(0.00317698 0.00442516 0)
(0.000536634 0.00527644 0)
(-0.0025429 0.0062671 0)
(-0.00611276 0.00741022 0)
(-0.0102239 0.0087119 0)
(-0.014925 0.0101723 0)
(-0.0202601 0.0117867 0)
(-0.0262665 0.0135463 0)
(-0.0329724 0.0154381 0)
(-0.0403949 0.0174449 0)
(-0.0485371 0.0195444 0)
(-0.0573861 0.0217091 0)
(-0.0669112 0.0239058 0)
(-0.0770631 0.0260963 0)
(-0.0877736 0.0282381 0)
(-0.0989571 0.0302855 0)
(-0.110513 0.0321918 0)
(-0.122327 0.033911 0)
(-0.13428 0.0353998 0)
(-0.146247 0.0366194 0)
(-0.158104 0.0375372 0)
(-0.169735 0.038128 0)
(-0.181031 0.0383739 0)
(-0.191893 0.0382651 0)
(-0.202238 0.0377989 0)
(-0.211992 0.0369794 0)
(-0.221099 0.035816 0)
(-0.22951 0.0343223 0)
(-0.237191 0.0325156 0)
(-0.244115 0.0304151 0)
(-0.250263 0.0280415 0)
(-0.255621 0.0254159 0)
(-0.260181 0.0225599 0)
(-0.263938 0.0194945 0)
(-0.266886 0.0162404 0)
(-0.269025 0.0128181 0)
(-0.270352 0.00924764 0)
(-0.270865 0.00554895 0)
(-0.270563 0.00174232 0)
(-0.269442 -0.00215137 0)
(-0.267502 -0.00611028 0)
(-0.26474 -0.0101108 0)
(-0.261156 -0.0141278 0)
(-0.256748 -0.0181334 0)
(-0.251518 -0.0220973 0)
(-0.24547 -0.0259861 0)
(-0.238611 -0.0297635 0)
(-0.230953 -0.03339 0)
(-0.222514 -0.0368232 0)
(-0.213316 -0.0400184 0)
(-0.203392 -0.0429294 0)
(-0.19278 -0.0455088 0)
(-0.18153 -0.0477101 0)
(-0.169703 -0.0494888 0)
(-0.157368 -0.050804 0)
(-0.144607 -0.0516203 0)
(-0.131513 -0.05191 0)
(-0.118184 -0.0516543 0)
(-0.104733 -0.0508454 0)
(-0.0912719 -0.0494871 0)
(-0.0779213 -0.0475961 0)
(-0.0648007 -0.0452018 0)
(-0.0520277 -0.0423454 0)
(-0.0397153 -0.0390798 0)
(-0.0279694 -0.0354669 0)
(-0.016886 -0.0315763 0)
(-0.00655035 -0.0274829 0)
(0.00296469 -0.0232645 0)
(0.011599 -0.0189998 0)
(0.0193054 -0.0147662 0)
(0.0260496 -0.0106381 0)
(0.0318106 -0.00668515 0)
(0.0365803 -0.0029708 0)
(0.0403642 0.000448967 0)
(0.0431813 0.00352727 0)
(0.0450653 0.00622754 0)
(0.046064 0.00852472 0)
(0.0462394 0.0104061 0)
(0.0456667 0.0118717 0)
(0.0444325 0.012934 0)
(0.0426317 0.0136171 0)
(0.0403647 0.0139552 0)
(0.0377331 0.0139898 0)
(0.0348363 0.0137678 0)
(0.0317672 0.0133385 0)
(0.0286101 0.0127506 0)
(0.025438 0.01205 0)
(0.0223118 0.0112776 0)
(0.0192802 0.0104669 0)
(0.0163807 0.00964195 0)
(0.0136411 0.00881606 0)
(0.0110823 0.00799018 0)
(0.00872133 0.00715277 0)
(0.00657469 0.00628113 0)
(0.00466217 0.00534529 0)
(0.00301065 0.00431506 0)
(0.00164875 0.00317115 0)
(0.000663787 0.00191937 0)
(7.46733e-05 0.000624868 0)
(8.10039e-05 -0.00115032 0)
(0.000724676 -0.00319153 0)
(0.00177757 -0.0048872 0)
(0.00316795 -0.00615513 0)
(0.00472809 -0.00695721 0)
(0.00634677 -0.00729278 0)
(0.00791628 -0.00719506 0)
(0.00934581 -0.0067236 0)
(0.0105639 -0.00595506 0)
(0.0115189 -0.0049737 0)
(0.0121773 -0.0038627 0)
(0.0125212 -0.00269679 0)
(0.0125445 -0.00153664 0)
(0.0122484 -0.000425238 0)
(0.0116371 0.000613996 0)
(0.0107137 0.00157721 0)
(0.0094761 0.00247848 0)
(0.00791403 0.00334676 0)
(0.00600744 0.0042215 0)
(0.0037257 0.0051476 0)
(0.00102829 0.00617026 0)
(-0.00213334 0.00733023 0)
(-0.00581318 0.00866037 0)
(-0.0100676 0.0101837 0)
(-0.0149523 0.011913 0)
(-0.0205193 0.0138513 0)
(-0.0268141 0.0159933 0)
(-0.0338727 0.0183265 0)
(-0.0417193 0.0208313 0)
(-0.0503628 0.0234819 0)
(-0.0597943 0.026245 0)
(-0.069985 0.0290805 0)
(-0.0808842 0.031941 0)
(-0.0924196 0.0347729 0)
(-0.104498 0.0375182 0)
(-0.117008 0.040116 0)
(-0.129825 0.0425058 0)
(-0.142814 0.0446303 0)
(-0.155839 0.0464375 0)
(-0.168764 0.0478837 0)
(-0.181464 0.0489344 0)
(-0.193822 0.0495657 0)
(-0.205738 0.0497641 0)
(-0.217128 0.0495258 0)
(-0.227923 0.0488557 0)
(-0.238071 0.0477659 0)
(-0.247531 0.0462739 0)
(-0.256276 0.0444013 0)
(-0.264289 0.0421723 0)
(-0.271558 0.0396123 0)
(-0.278079 0.036747 0)
(-0.283848 0.0336016 0)
(-0.288867 0.0302008 0)
(-0.293136 0.0265676 0)
(-0.296658 0.0227243 0)
(-0.299431 0.0186916 0)
(-0.301458 0.0144897 0)
(-0.302734 0.0101377 0)
(-0.303259 0.0056549 0)
(-0.303027 0.00106064 0)
(-0.302032 -0.00362498 0)
(-0.300268 -0.00838065 0)
(-0.297728 -0.0131831 0)
(-0.294403 -0.0180066 0)
(-0.290285 -0.0228226 0)
(-0.285367 -0.0275992 0)
(-0.279643 -0.0323007 0)
(-0.273109 -0.0368872 0)
(-0.265765 -0.041315 0)
(-0.257614 -0.045536 0)
(-0.248665 -0.0494989 0)
(-0.238936 -0.0531492 0)
(-0.22845 -0.0564305 0)
(-0.217244 -0.0592859 0)
(-0.205361 -0.0616598 0)
(-0.192861 -0.0634995 0)
(-0.179814 -0.0647581 0)
(-0.166303 -0.0653963 0)
(-0.152425 -0.0653852 0)
(-0.138287 -0.0647081 0)
(-0.124007 -0.0633625 0)
(-0.109708 -0.0613612 0)
(-0.0955191 -0.0587329 0)
(-0.0815694 -0.0555215 0)
(-0.0679845 -0.0517854 0)
(-0.0548833 -0.047595 0)
(-0.0423751 -0.0430306 0)
(-0.0305571 -0.0381792 0)
(-0.0195125 -0.0331319 0)
(-0.00931053 -0.0279805 0)
(-5.79119e-06 -0.0228156 0)
(0.00836046 -0.0177245 0)
(0.0157597 -0.0127889 0)
(0.022175 -0.00808447 0)
(0.0276009 -0.00367935 0)
(0.0320426 0.00036698 0)
(0.0355167 0.00400477 0)
(0.0380521 0.00719532 0)
(0.0396898 0.00991221 0)
(0.0404843 0.0121424 0)
(0.0405027 0.0138867 0)
(0.0398239 0.0151601 0)
(0.0385362 0.0159904 0)
(0.036735 0.016417 0)
(0.0345187 0.0164881 0)
(0.0319851 0.0162583 0)
(0.0292277 0.0157843 0)
(0.0263326 0.0151228 0)
(0.0233763 0.014326 0)
(0.0204238 0.0134392 0)
(0.0175293 0.0124977 0)
(0.0147364 0.0115237 0)
(0.0120799 0.0105248 0)
(0.00958924 0.00949261 0)
(0.00729142 0.00840397 0)
(0.00521566 0.00722416 0)
(0.00339847 0.00591337 0)
(0.00187845 0.00443679 0)
(0.000764256 0.0027771 0)
(8.69963e-05 0.000961433 0)
(8.73931e-05 -0.00150311 0)
(0.000777552 -0.00408569 0)
(0.00189384 -0.00616671 0)
(0.00334854 -0.00767415 0)
(0.00495154 -0.00858045 0)
(0.00657762 -0.00889915 0)
(0.00810936 -0.00868135 0)
(0.00945097 -0.00800706 0)
(0.0105299 -0.00697416 0)
(0.0112958 -0.00568699 0)
(0.0117176 -0.00424599 0)
(0.0117797 -0.00273926 0)
(0.0114764 -0.00123628 0)
(0.0108077 0.000215961 0)
(0.00977341 0.00159459 0)
(0.00836939 0.0029004 0)
(0.00658361 0.00415539 0)
(0.00439381 0.00539855 0)
(0.00176653 0.00668021 0)
(-0.0013425 0.00805559 0)
(-0.00498647 0.00957835 0)
(-0.00922444 0.0112949 0)
(-0.0141178 0.0132406 0)
(-0.0197261 0.0154371 0)
(-0.0261037 0.0178929 0)
(-0.0332958 0.0206032 0)
(-0.0413352 0.023552 0)
(-0.0502389 0.0267128 0)
(-0.0600052 0.0300494 0)
(-0.0706104 0.0335157 0)
(-0.0820068 0.0370568 0)
(-0.094122 0.0406089 0)
(-0.106859 0.0441016 0)
(-0.120101 0.0474601 0)
(-0.133713 0.0506084 0)
(-0.147549 0.0534732 0)
(-0.16146 0.0559874 0)
(-0.175298 0.0580932 0)
(-0.188928 0.0597447 0)
(-0.202225 0.0609092 0)
(-0.215084 0.061567 0)
(-0.227418 0.0617113 0)
(-0.239159 0.0613465 0)
(-0.250257 0.0604858 0)
(-0.260677 0.0591498 0)
(-0.270397 0.0573641 0)
(-0.279405 0.0551571 0)
(-0.287696 0.0525589 0)
(-0.295271 0.0495999 0)
(-0.302134 0.0463096 0)
(-0.308291 0.0427163 0)
(-0.313746 0.0388463 0)
(-0.318506 0.0347243 0)
(-0.322576 0.030373 0)
(-0.325958 0.0258134 0)
(-0.328655 0.0210649 0)
(-0.330667 0.0161461 0)
(-0.331992 0.0110745 0)
(-0.332626 0.00586751 0)
(-0.332565 0.000542934 0)
(-0.3318 -0.00488065 0)
(-0.330322 -0.0103833 0)
(-0.328121 -0.0159427 0)
(-0.325184 -0.0215342 0)
(-0.321498 -0.0271294 0)
(-0.317049 -0.032696 0)
(-0.311821 -0.0381973 0)
(-0.3058 -0.0435917 0)
(-0.298975 -0.0488323 0)
(-0.291334 -0.053867 0)
(-0.282872 -0.0586386 0)
(-0.273588 -0.0630856 0)
(-0.263489 -0.0671427 0)
(-0.252591 -0.0707426 0)
(-0.240921 -0.0738178 0)
(-0.228518 -0.0763026 0)
(-0.215436 -0.0781357 0)
(-0.201746 -0.0792637 0)
(-0.187534 -0.0796436 0)
(-0.172901 -0.0792459 0)
(-0.157962 -0.0780573 0)
(-0.142847 -0.0760826 0)
(-0.127693 -0.073346 0)
(-0.112644 -0.0698912 0)
(-0.0978411 -0.06578 0)
(-0.0834247 -0.0610909 0)
(-0.0695245 -0.0559153 0)
(-0.0562574 -0.0503542 0)
(-0.0437244 -0.044514 0)
(-0.0320092 -0.0385026 0)
(-0.0211772 -0.0324261 0)
(-0.0112771 -0.0263858 0)
(-0.00234188 -0.0204764 0)
(0.00560838 -0.014785 0)
(0.012565 -0.00938995 0)
(0.0185287 -0.00436056 0)
(0.0235092 0.000243345 0)
(0.0275249 0.00437236 0)
(0.0306034 0.00798851 0)
(0.032783 0.0110665 0)
(0.034113 0.0135949 0)
(0.0346544 0.0155769 0)
(0.0344797 0.0170307 0)
(0.0336711 0.0179882 0)
(0.0323183 0.0184941 0)
(0.0305154 0.0186025 0)
(0.028357 0.0183739 0)
(0.0259352 0.0178714 0)
(0.0233359 0.0171564 0)
(0.0206368 0.0162847 0)
(0.0179058 0.015302 0)
(0.0152011 0.0142405 0)
(0.0125718 0.0131153 0)
(0.0100604 0.011923 0)
(0.00770623 0.0106411 0)
(0.00554977 0.00923076 0)
(0.00363868 0.00764188 0)
(0.00202249 0.00582182 0)
(0.000827322 0.00372609 0)
(9.46515e-05 0.00133793 0)
(9.29937e-05 -0.00187966 0)
(0.000820593 -0.00502984 0)
(0.00198076 -0.00750035 0)
(0.00346895 -0.00923056 0)
(0.00507354 -0.0102074 0)
(0.00665591 -0.0104636 0)
(0.00809007 -0.0100735 0)
(0.00927673 -0.00914193 0)
(0.0101437 -0.00779129 0)
(0.0106436 -0.00614764 0)
(0.0107489 -0.00432888 0)
(0.0104463 -0.00243527 0)
(0.009731 -0.000542889 0)
(0.00860038 0.00130012 0)
(0.00704869 0.00307462 0)
(0.00506268 0.00478907 0)
(0.0026185 0.00647585 0)
(-0.000319832 0.0081856 0)
(-0.00380012 0.00997995 0)
(-0.0078801 0.0119235 0)
(-0.0126239 0.014076 0)
(-0.0180979 0.0164862 0)
(-0.0243654 0.019187 0)
(-0.0314824 0.0221938 0)
(-0.0394927 0.0255045 0)
(-0.0484244 0.0291003 0)
(-0.0582856 0.0329476 0)
(-0.0690617 0.0369989 0)
(-0.080712 0.041194 0)
(-0.0931689 0.0454614 0)
(-0.106337 0.0497198 0)
(-0.120097 0.0538808 0)
(-0.134307 0.0578527 0)
(-0.148812 0.061545 0)
(-0.163452 0.064873 0)
(-0.178067 0.0677622 0)
(-0.192508 0.0701517 0)
(-0.206639 0.0719962 0)
(-0.220347 0.0732671 0)
(-0.233537 0.0739513 0)
(-0.24614 0.07405 0)
(-0.258103 0.0735759 0)
(-0.269393 0.072551 0)
(-0.27999 0.0710037 0)
(-0.289884 0.0689663 0)
(-0.299075 0.0664733 0)
(-0.307567 0.0635597 0)
(-0.315369 0.0602595 0)
(-0.32249 0.0566054 0)
(-0.328939 0.0526281 0)
(-0.334728 0.0483558 0)
(-0.339867 0.0438143 0)
(-0.344363 0.0390273 0)
(-0.348223 0.0340162 0)
(-0.351455 0.0288003 0)
(-0.354063 0.0233974 0)
(-0.356048 0.0178242 0)
(-0.357412 0.0120963 0)
(-0.358154 0.00622914 0)
(-0.358269 0.000238361 0)
(-0.357751 -0.0058596 0)
(-0.356593 -0.012047 0)
(-0.354781 -0.0183037 0)
(-0.352302 -0.024607 0)
(-0.34914 -0.0309304 0)
(-0.345274 -0.037243 0)
(-0.340683 -0.043509 0)
(-0.335344 -0.0496868 0)
(-0.329232 -0.0557288 0)
(-0.322324 -0.0615807 0)
(-0.314598 -0.0671818 0)
(-0.306033 -0.072465 0)
(-0.296615 -0.077358 0)
(-0.286339 -0.0817838 0)
(-0.275206 -0.0856631 0)
(-0.263232 -0.0889162 0)
(-0.250447 -0.0914663 0)
(-0.236901 -0.0932425 0)
(-0.222658 -0.094184 0)
(-0.207807 -0.0942433 0)
(-0.192456 -0.0933907 0)
(-0.176729 -0.0916168 0)
(-0.160771 -0.088935 0)
(-0.144737 -0.0853832 0)
(-0.128788 -0.0810224 0)
(-0.11309 -0.075936 0)
(-0.0977991 -0.0702255 0)
(-0.0830638 -0.0640069 0)
(-0.0690135 -0.0574046 0)
(-0.0557577 -0.0505467 0)
(-0.043383 -0.0435592 0)
(-0.031953 -0.0365625 0)
(-0.0215101 -0.029668 0)
(-0.0120783 -0.0229767 0)
(-0.00366664 -0.016578 0)
(0.00372718 -0.0105505 0)
(0.0101142 -0.00496167 0)
(0.0155121 0.00013158 0)
(0.0199452 0.00468322 0)
(0.023444 0.00865883 0)
(0.0260473 0.0120368 0)
(0.0278027 0.0148093 0)
(0.0287678 0.0169838 0)
(0.0290105 0.0185825 0)
(0.028608 0.0196425 0)
(0.0276451 0.0202132 0)
(0.0262114 0.0203539 0)
(0.0243981 0.02013 0)
(0.0222945 0.0196081 0)
(0.0199854 0.0188517 0)
(0.0175486 0.0179153 0)
(0.0150541 0.0168401 0)
(0.0125638 0.0156492 0)
(0.010133 0.0143442 0)
(0.00781371 0.0129043 0)
(0.00565839 0.0112871 0)
(0.00372635 0.00943225 0)
(0.00207797 0.00726877 0)
(0.000851901 0.00472382 0)
(9.7546e-05 0.00173567 0)
(9.79772e-05 -0.00227638 0)
(0.000854707 -0.0060103 0)
(0.00203925 -0.00886301 0)
(0.00352915 -0.0107879 0)
(0.00509215 -0.0117908 0)
(0.00657746 -0.0119297 0)
(0.00785232 -0.0113072 0)
(0.00881596 -0.010058 0)
(0.00939852 -0.00833188 0)
(0.00955672 -0.00627793 0)
(0.00926725 -0.00403106 0)
(0.00851961 -0.00170183 0)
(0.00730868 0.000630006 0)
(0.00562805 0.00291865 0)
(0.00346445 0.00515221 0)
(0.000793701 0.00734992 0)
(-0.00242147 0.00955677 0)
(-0.0062315 0.0118359 0)
(-0.010698 0.0142593 0)
(-0.0158901 0.0168987 0)
(-0.0218787 0.0198156 0)
(-0.0287311 0.0230556 0)
(-0.0365047 0.0266428 0)
(-0.045242 0.0305793 0)
(-0.0549652 0.0348449 0)
(-0.0656728 0.0393991 0)
(-0.077336 0.0441831 0)
(-0.0898965 0.0491219 0)
(-0.103266 0.0541263 0)
(-0.117326 0.0590967 0)
(-0.131936 0.0639264 0)
(-0.146934 0.0685075 0)
(-0.162149 0.0727357 0)
(-0.177408 0.0765169 0)
(-0.192546 0.0797712 0)
(-0.207416 0.0824368 0)
(-0.221889 0.0844712 0)
(-0.235861 0.0858514 0)
(-0.249253 0.0865717 0)
(-0.262006 0.0866416 0)
(-0.274085 0.086082 0)
(-0.285466 0.0849226 0)
(-0.296142 0.0831985 0)
(-0.306112 0.0809482 0)
(-0.315383 0.0782109 0)
(-0.323964 0.0750257 0)
(-0.331868 0.0714302 0)
(-0.339109 0.06746 0)
(-0.345703 0.0631484 0)
(-0.351663 0.0585258 0)
(-0.357004 0.05362 0)
(-0.36174 0.0484562 0)
(-0.365884 0.0430568 0)
(-0.369448 0.037442 0)
(-0.372443 0.03163 0)
(-0.374879 0.0256367 0)
(-0.376763 0.019477 0)
(-0.378101 0.0131644 0)
(-0.378895 0.00671195 0)
(-0.379146 0.000132522 0)