/*--------------------------------*- C++ -*----------------------------------*\
| =========                 |                                                 |
| \\      /  F ield         | OpenFOAM: The Open Source CFD Toolbox           |
|  \\    /   O peration     | Version:  2406                                  |
|   \\  /    A nd           | Website:  www.openfoam.com                      |
|    \\/     M anipulation  |                                                 |
\*---------------------------------------------------------------------------*/
FoamFile
{
    version     2.0;
    format      ascii;
    arch        "LSB;label=32;scalar=64";
    class       volVectorField;
    location    "37.5";
    object      Uold;
}
// * * * * * * * * * * * * * * * * * * * * * * * * * * * * * * * * * * * * * //

dimensions      [0 1 -1 0 0 0 0];

internalField   nonuniform List<vector> 
3600
(
(4.38718e-06 -1.42242e-05 0)
(0.00050403 -0.00024439 0)
(0.00148093 -0.000360483 0)
(0.00255764 -0.000375985 0)
(0.00358033 -0.000307101 0)
(0.00432837 -0.00021499 0)
(0.00483784 -0.000128528 0)
(0.00509266 -7.24109e-05 0)
(0.00520765 -4.59136e-05 0)
(0.00520763 -4.09146e-05 0)
(0.00514547 -4.08235e-05 0)
(0.00498365 -3.16679e-05 0)
(0.00468639 -3.13462e-06 0)
(0.00416778 4.94591e-05 0)
(0.00335256 0.00012797 0)
(0.00214594 0.000233689 0)
(0.000465496 0.000368631 0)
(-0.00177558 0.000532405 0)
(-0.00464845 0.000717252 0)
(-0.00821443 0.000910817 0)
(-0.0125059 0.00110681 0)
(-0.0175158 0.00131108 0)
(-0.0231748 0.00153256 0)
(-0.029342 0.00176578 0)
(-0.035797 0.00198035 0)
(-0.0422456 0.0021264 0)
(-0.0483355 0.00215052 0)
(-0.0536841 0.00201146 0)
(-0.0579104 0.00168862 0)
(-0.0606652 0.00118371 0)
(-0.0616576 0.000518353 0)
(-0.060676 -0.000269264 0)
(-0.0576063 -0.00112781 0)
(-0.0524467 -0.00199551 0)
(-0.0453205 -0.00280348 0)
(-0.0364834 -0.00347964 0)
(-0.026326 -0.00395478 0)
(-0.0153611 -0.00417024 0)
(-0.00420229 -0.00408752 0)
(0.00648519 -0.003698 0)
(0.0160371 -0.00303051 0)
(0.023874 -0.00215429 0)
(0.0295623 -0.00117277 0)
(0.0328935 -0.000209586 0)
(0.0338956 0.000616753 0)
(0.0328497 0.0012172 0)
(0.0302064 0.00155619 0)
(0.0265324 0.00165271 0)
(0.0223679 0.00156985 0)
(0.0181906 0.00138172 0)
(0.0143078 0.00115459 0)
(0.0109233 0.000928403 0)
(0.00807469 0.000728216 0)
(0.00577751 0.000559532 0)
(0.00393091 0.000429574 0)
(0.00250113 0.000326195 0)
(0.00136809 0.000246901 0)
(0.000557287 0.000150182 0)
(4.60863e-05 4.10362e-05 0)
(-8.27354e-05 -8.80742e-05 0)
(0.000210569 -0.000486786 0)
(0.00146082 -0.00150088 0)
(0.00348383 -0.00197941 0)
(0.00559577 -0.00199664 0)
(0.00754255 -0.0016461 0)
(0.00893783 -0.00114785 0)
(0.00979346 -0.000644115 0)
(0.0100515 -0.00023355 0)
(0.00984754 7.19792e-05 0)
(0.00918649 0.000314291 0)
(0.00809614 0.000566041 0)
(0.0064598 0.000900819 0)
(0.00414291 0.00137104 0)
(0.000930072 0.00200684 0)
(-0.00338281 0.00281708 0)
(-0.00901464 0.00379809 0)
(-0.0161404 0.00493134 0)
(-0.0248944 0.0061877 0)
(-0.0353105 0.00752768 0)
(-0.0472886 0.00889703 0)
(-0.0605474 0.010208 0)
(-0.0746365 0.0113342 0)
(-0.0889711 0.0121278 0)
(-0.102903 0.0124528 0)
(-0.115789 0.0122082 0)
(-0.127049 0.0113406 0)
(-0.136202 0.00984415 0)
(-0.142874 0.00775544 0)
(-0.146794 0.00514517 0)
(-0.147785 0.00211094 0)
(-0.145752 -0.0012289 0)
(-0.140679 -0.00473776 0)
(-0.132627 -0.0082625 0)
(-0.121741 -0.0116335 0)
(-0.108259 -0.0146676 0)
(-0.0925196 -0.0171729 0)
(-0.0749761 -0.0189613 0)
(-0.056194 -0.0198644 0)
(-0.0368485 -0.0197586 0)
(-0.0176937 -0.01859 0)
(0.000467708 -0.0163993 0)
(0.016855 -0.0133353 0)
(0.0307579 -0.00965301 0)
(0.0416304 -0.00569026 0)
(0.0491183 -0.00182165 0)
(0.05314 0.00159499 0)
(0.053856 0.00428446 0)
(0.0517122 0.0060918 0)
(0.0473252 0.00701246 0)
(0.0414745 0.00716436 0)
(0.0348957 0.00675509 0)
(0.0282829 0.006004 0)
(0.0220766 0.00511327 0)
(0.0166097 0.00421577 0)
(0.0119307 0.00340915 0)
(0.00810497 0.0027033 0)
(0.00498475 0.00210159 0)
(0.00262714 0.00147811 0)
(0.000931378 0.000826487 0)
(8.88008e-05 7.20396e-05 0)
(0.000336106 -0.00143052 0)
(0.00202679 -0.00355057 0)
(0.00461727 -0.00448486 0)
(0.00715762 -0.00439076 0)
(0.00934787 -0.00353878 0)
(0.0107184 -0.00233241 0)
(0.0112714 -0.00108099 0)
(0.0109087 3.75257e-05 0)
(0.00972663 0.000996907 0)
(0.00765474 0.00190168 0)
(0.004623 0.00290957 0)
(0.000394851 0.00418574 0)
(-0.00528679 0.00584113 0)
(-0.012746 0.00793442 0)
(-0.0222602 0.0104626 0)
(-0.034059 0.0133787 0)
(-0.0482151 0.0165827 0)
(-0.0645906 0.0199136 0)
(-0.0827634 0.0231235 0)
(-0.102069 0.0258993 0)
(-0.121689 0.0279241 0)
(-0.140787 0.0289522 0)
(-0.158616 0.0288434 0)
(-0.17458 0.0275632 0)
(-0.188246 0.0251561 0)
(-0.199321 0.0217184 0)
(-0.207624 0.0173745 0)
(-0.213052 0.012264 0)
(-0.21555 0.00653487 0)
(-0.215095 0.000343023 0)
(-0.211682 -0.0061453 0)
(-0.205327 -0.0127472 0)
(-0.196067 -0.0192576 0)
(-0.18398 -0.025443 0)
(-0.169196 -0.0310406 0)
(-0.151925 -0.0357617 0)
(-0.132474 -0.0393076 0)
(-0.111269 -0.0413924 0)
(-0.0888629 -0.0417822 0)
(-0.0659281 -0.0403349 0)
(-0.0432357 -0.0370469 0)
(-0.0215972 -0.0320792 0)
(-0.00181636 -0.0257681 0)
(0.0154034 -0.0185959 0)
(0.0294909 -0.0111371 0)
(0.0400885 -0.00398559 0)
(0.0470254 0.00232608 0)
(0.05039 0.00738276 0)
(0.0504596 0.0109456 0)
(0.0477812 0.0129643 0)
(0.0430178 0.0135896 0)
(0.0369911 0.0131124 0)
(0.0304019 0.01191 0)
(0.0239228 0.0103337 0)
(0.0178959 0.00868056 0)
(0.0126432 0.00709591 0)
(0.00813719 0.00564164 0)
(0.00456653 0.00416306 0)
(0.00181083 0.00258757 0)
(0.000275228 0.000738113 0)
(0.000415777 -0.00257383 0)
(0.00234346 -0.00587635 0)
(0.00511989 -0.00714974 0)
(0.0075883 -0.00671394 0)
(0.0094309 -0.0051143 0)
(0.0101532 -0.00294323 0)
(0.00976296 -0.000672854 0)
(0.00811744 0.00147949 0)
(0.00522738 0.00350817 0)
(0.00089103 0.0056139 0)
(-0.00511523 0.00805223 0)
(-0.0131699 0.0110708 0)
(-0.0236267 0.0148034 0)
(-0.0368183 0.0192765 0)
(-0.0528939 0.0243846 0)
(-0.0717554 0.0298973 0)
(-0.0929405 0.0354264 0)
(-0.115668 0.0404705 0)
(-0.138955 0.0445151 0)
(-0.161833 0.0471647 0)
(-0.183483 0.0481995 0)
(-0.203312 0.0475711 0)
(-0.220936 0.0453503 0)
(-0.236138 0.0416793 0)
(-0.248808 0.036728 0)
(-0.258903 0.0306722 0)
(-0.266412 0.023679 0)
(-0.271332 0.0159062 0)
(-0.273657 0.00750358 0)
(-0.273369 -0.00137827 0)
(-0.270434 -0.0105791 0)
(-0.264808 -0.0199154 0)
(-0.256443 -0.0291697 0)
(-0.2453 -0.0380772 0)
(-0.23137 -0.0463216 0)
(-0.214698 -0.0535336 0)
(-0.195415 -0.059307 0)
(-0.173771 -0.0632254 0)
(-0.150166 -0.0649125 0)
(-0.125164 -0.0640897 0)
(-0.0994945 -0.0606478 0)
(-0.0740087 -0.0546977 0)
(-0.0496206 -0.0466002 0)
(-0.0271935 -0.0369375 0)
(-0.00746746 -0.0264445 0)
(0.00904118 -0.0159032 0)
(0.0220141 -0.00604065 0)
(0.0313666 0.00253722 0)
(0.0371435 0.00939524 0)
(0.0396066 0.0142809 0)
(0.0391293 0.0171618 0)
(0.0363334 0.0182132 0)
(0.0318597 0.0178022 0)
(0.0264924 0.0163839 0)
(0.0207756 0.0144242 0)
(0.0152996 0.0122546 0)
(0.0102364 0.0100575 0)
(0.0059866 0.0077336 0)
(0.00249971 0.00511219 0)
(0.000427453 0.00185465 0)
(0.000462343 -0.00390149 0)
(0.00245636 -0.00838553 0)
(0.00509958 -0.00979094 0)
(0.00708124 -0.00869339 0)
(0.00807341 -0.00601298 0)
(0.00759427 -0.00253923 0)
(0.0056512 0.00110663 0)
(0.0020464 0.00472579 0)
(-0.00333495 0.0083816 0)
(-0.010852 0.0124054 0)
(-0.0208818 0.0171401 0)
(-0.0338738 0.022861 0)
(-0.0501174 0.0296177 0)
(-0.0696709 0.0372406 0)
(-0.0921787 0.0452916 0)
(-0.116876 0.0531291 0)
(-0.142688 0.060016 0)
(-0.168494 0.065324 0)
(-0.193333 0.0686479 0)
(-0.216522 0.0698331 0)
(-0.237638 0.0689116 0)
(-0.256459 0.0660372 0)
(-0.272893 0.0614186 0)
(-0.286928 0.0552831 0)
(-0.298591 0.047847 0)
(-0.307928 0.0393074 0)
(-0.314984 0.0298355 0)
(-0.319797 0.0195829 0)
(-0.322387 0.0086853 0)
(-0.322752 -0.00272349 0)
(-0.320858 -0.014502 0)
(-0.31664 -0.0264825 0)
(-0.309999 -0.0384571 0)
(-0.300809 -0.0501578 0)
(-0.28893 -0.0612447 0)
(-0.274226 -0.0712961 0)
(-0.256607 -0.0798162 0)
(-0.23607 -0.0862566 0)
(-0.21276 -0.090069 0)
(-0.18702 -0.0907765 0)
(-0.159442 -0.0880732 0)
(-0.130865 -0.0819174 0)
(-0.102339 -0.0726078 0)
(-0.0749976 -0.0607872 0)
(-0.0499183 -0.0473748 0)
(-0.02793 -0.0334106 0)
(-0.00954885 -0.0198852 0)
(0.00506306 -0.00761235 0)
(0.0159354 0.00282029 0)
(0.0232756 0.0110301 0)
(0.0273181 0.0168397 0)
(0.0284854 0.0202765 0)
(0.0272291 0.0215919 0)
(0.0242367 0.021217 0)
(0.0200655 0.0196757 0)
(0.0154373 0.0174435 0)
(0.0106867 0.0148178 0)
(0.00642226 0.0118012 0)
(0.00273193 0.00811743 0)
(0.00047591 0.00325619 0)
(0.000493156 -0.00524709 0)
(0.00238289 -0.0106934 0)
(0.00453554 -0.0118621 0)
(0.00558223 -0.00968775 0)
(0.00520488 -0.00554757 0)
(0.00297524 -0.000412367 0)
(-0.00112921 0.00500013 0)
(-0.00738536 0.010588 0)
(-0.0160713 0.016531 0)
(-0.0276823 0.0232828 0)
(-0.0426515 0.0311844 0)
(-0.0612774 0.0403721 0)
(-0.083458 0.0505769 0)
(-0.108624 0.0611829 0)
(-0.135738 0.0712933 0)
(-0.163554 0.0800013 0)
(-0.19089 0.0865943 0)
(-0.216848 0.0906877 0)
(-0.240841 0.0921798 0)
(-0.262549 0.0911805 0)
(-0.281831 0.08791 0)
(-0.298666 0.0826446 0)
(-0.313104 0.0756638 0)
(-0.325237 0.0672347 0)
(-0.335186 0.0575911 0)
(-0.34308 0.046935 0)
(-0.349048 0.0354305 0)
(-0.353204 0.0232131 0)
(-0.35564 0.0103922 0)
(-0.356412 -0.00293376 0)
(-0.355529 -0.0166672 0)
(-0.352947 -0.0306901 0)
(-0.348557 -0.0448471 0)
(-0.342181 -0.0589188 0)
(-0.333577 -0.0726019 0)
(-0.322443 -0.0854847 0)
(-0.308447 -0.0970407 0)
(-0.291275 -0.106631 0)
(-0.270698 -0.113545 0)
(-0.246663 -0.117064 0)
(-0.219399 -0.116582 0)
(-0.189495 -0.111737 0)
(-0.157948 -0.102558 0)
(-0.126097 -0.0895636 0)
(-0.0954755 -0.0737542 0)
(-0.0675168 -0.0564663 0)
(-0.0433 -0.0391119 0)
(-0.0233345 -0.0228964 0)
(-0.00765376 -0.00866119 0)
(0.00405373 0.00310184 0)
(0.0121328 0.0121598 0)
(0.0170085 0.0184677 0)
(0.0190397 0.0221655 0)
(0.0187856 0.0235939 0)
(0.0167216 0.0232287 0)
(0.0135698 0.0215953 0)
(0.00975066 0.0190449 0)
(0.00600743 0.0156678 0)
(0.00258287 0.0110891 0)
(0.000446583 0.0046595 0)
(0.000492784 -0.00658544 0)
(0.00205921 -0.0126206 0)
(0.00332931 -0.0130728 0)
(0.00299824 -0.00934917 0)
(0.000769677 -0.0033291 0)
(-0.00370715 0.00388385 0)
(-0.0105331 0.01155 0)
(-0.020076 0.0197319 0)
(-0.0327606 0.0287249 0)
(-0.0490861 0.0390053 0)
(-0.0693029 0.0507069 0)
(-0.0932335 0.0635584 0)
(-0.120123 0.07675 0)
(-0.148763 0.0892063 0)
(-0.177778 0.0998412 0)
(-0.205956 0.107882 0)
(-0.232418 0.112929 0)
(-0.256619 0.114927 0)
(-0.278276 0.114029 0)
(-0.297284 0.11052 0)
(-0.313662 0.104734 0)
(-0.327514 0.0970213 0)
(-0.33901 0.087711 0)
(-0.348354 0.0771041 0)
(-0.355776 0.0654523 0)
(-0.361504 0.052962 0)
(-0.365756 0.0397866 0)
(-0.368723 0.0260394 0)
(-0.370563 0.0117954 0)
(-0.371387 -0.00289078 0)
(-0.371257 -0.0179767 0)
(-0.370171 -0.0334091 0)
(-0.368055 -0.0491089 0)
(-0.364744 -0.0649403 0)
(-0.359976 -0.0806879 0)
(-0.353373 -0.0960199 0)
(-0.344452 -0.110464 0)
(-0.33264 -0.123386 0)
(-0.317339 -0.133993 0)
(-0.298007 -0.141376 0)
(-0.274308 -0.144607 0)
(-0.246263 -0.142885 0)
(-0.214419 -0.135742 0)
(-0.17993 -0.123246 0)
(-0.144536 -0.106158 0)
(-0.110306 -0.0859103 0)
(-0.0792483 -0.0643838 0)
(-0.0527972 -0.0434669 0)
(-0.031555 -0.0246215 0)
(-0.0153042 -0.00868114 0)
(-0.0034669 0.00404688 0)
(0.00464745 0.0135572 0)
(0.00955145 0.0199996 0)
(0.0118118 0.0236781 0)
(0.0118618 0.0249993 0)
(0.0103721 0.0244699 0)
(0.00779369 0.0224279 0)
(0.00491701 0.0190027 0)
(0.002113 0.0137399 0)
(0.000348964 0.00590676 0)
(0.000440538 -0.00771292 0)
(0.00139795 -0.0137301 0)
(0.00134071 -0.0128781 0)
(-0.000814883 -0.00710804 0)
(-0.00535051 0.00121662 0)
(-0.0125258 0.0109442 0)
(-0.0225694 0.021396 0)
(-0.0359058 0.032815 0)
(-0.053 0.0455124 0)
(-0.0741084 0.0597634 0)
(-0.0990124 0.0752189 0)
(-0.126861 0.0910168 0)
(-0.156332 0.10587 0)
(-0.185948 0.118562 0)
(-0.214445 0.128197 0)
(-0.240911 0.134357 0)
(-0.264794 0.136981 0)
(-0.285801 0.136276 0)
(-0.303847 0.132577 0)
(-0.318986 0.126305 0)
(-0.331399 0.117894 0)
(-0.341339 0.10777 0)
(-0.349117 0.096311 0)
(-0.355057 0.0838395 0)
(-0.359483 0.0706067 0)
(-0.362687 0.0568015 0)
(-0.364934 0.0425473 0)
(-0.366442 0.0279201 0)
(-0.367394 0.0129517 0)
(-0.367924 -0.00235094 0)
(-0.368131 -0.0180005 0)
(-0.368059 -0.0340082 0)
(-0.367696 -0.0503747 0)
(-0.366951 -0.0670619 0)
(-0.365637 -0.0839729 0)
(-0.363432 -0.100911 0)
(-0.359866 -0.117545 0)
(-0.354289 -0.133362 0)
(-0.345894 -0.147635 0)
(-0.333759 -0.159411 0)
(-0.316972 -0.167559 0)
(-0.294804 -0.170869 0)
(-0.266968 -0.16826 0)
(-0.233865 -0.159055 0)
(-0.196784 -0.143292 0)
(-0.157896 -0.121957 0)
(-0.119975 -0.0969994 0)
(-0.0857571 -0.0709862 0)
(-0.0572132 -0.0464262 0)
(-0.0350043 -0.0250857 0)
(-0.0186815 -0.00773314 0)
(-0.00721329 0.00560159 0)
(0.000337904 0.015206 0)
(0.00479794 0.0214881 0)
(0.00672439 0.0248643 0)
(0.00679148 0.0258195 0)
(0.00548254 0.0246469 0)
(0.00357785 0.0214673 0)
(0.00153684 0.015779 0)
(0.000236073 0.00683607 0)
(0.00030886 -0.00847851 0)
(0.000322422 -0.0137003 0)
(-0.0015017 -0.0109205 0)
(-0.00586536 -0.00263435 0)
(-0.013071 0.00840734 0)
(-0.0232792 0.0211034 0)
(-0.0368648 0.0348833 0)
(-0.0541947 0.0500857 0)
(-0.0755791 0.0668225 0)
(-0.100769 0.0848924 0)
(-0.128942 0.103303 0)
(-0.158684 0.120692 0)
(-0.188464 0.135621 0)
(-0.216906 0.147084 0)
(-0.243054 0.154556 0)
(-0.266288 0.157976 0)
(-0.286311 0.157561 0)
(-0.303035 0.153729 0)
(-0.316584 0.146985 0)
(-0.327211 0.137882 0)
(-0.335282 0.126944 0)
(-0.3412 0.114649 0)
(-0.345385 0.101388 0)
(-0.348222 0.0874686 0)
(-0.350056 0.0731076 0)
(-0.35117 0.0584512 0)
(-0.351803 0.0435767 0)
(-0.352138 0.0285186 0)
(-0.352329 0.0132702 0)
(-0.35249 -0.00219534 0)
(-0.35272 -0.0179248 0)
(-0.353088 -0.0339675 0)
(-0.353639 -0.0503748 0)
(-0.354373 -0.0671793 0)
(-0.355229 -0.0843851 0)
(-0.356043 -0.101933 0)
(-0.356511 -0.119671 0)
(-0.356131 -0.137291 0)
(-0.354167 -0.15428 0)
(-0.349619 -0.169849 0)
(-0.34127 -0.182906 0)
(-0.327797 -0.192072 0)
(-0.308017 -0.195806 0)
(-0.281206 -0.192643 0)
(-0.247513 -0.181583 0)
(-0.208275 -0.162531 0)
(-0.166129 -0.136692 0)
(-0.124649 -0.106634 0)
(-0.0874972 -0.0758106 0)
(-0.0572352 -0.0475219 0)
(-0.0346073 -0.0238633 0)
(-0.0187292 -0.00543468 0)
(-0.00816574 0.00811625 0)
(-0.00155434 0.0174595 0)
(0.00204465 0.0231984 0)
(0.00346707 0.0258907 0)
(0.0032965 0.0258246 0)
(0.00230086 0.0231024 0)
(0.00099573 0.0172222 0)
(0.000135191 0.00747559 0)
(7.18466e-05 -0.00858566 0)
(-0.00122011 -0.0120591 0)
(-0.00521318 -0.00673537 0)
(-0.0120852 0.00447827 0)
(-0.022215 0.0186112 0)
(-0.0356384 0.0346857 0)
(-0.0528368 0.0522086 0)
(-0.0739366 0.071418 0)
(-0.0988959 0.091971 0)
(-0.126833 0.113023 0)
(-0.156439 0.133024 0)
(-0.186038 0.150416 0)
(-0.21422 0.163947 0)
(-0.23987 0.17299 0)
(-0.262345 0.177403 0)
(-0.281275 0.177438 0)
(-0.296623 0.173569 0)
(-0.308545 0.166428 0)
(-0.317413 0.156682 0)
(-0.323676 0.144991 0)
(-0.327858 0.131927 0)
(-0.330439 0.117967 0)
(-0.331869 0.103458 0)
(-0.332503 0.0886519 0)
(-0.332635 0.073696 0)
(-0.332473 0.0586751 0)
(-0.332182 0.0436137 0)
(-0.331872 0.0285066 0)
(-0.33164 0.0133186 0)
(-0.331557 -0.00199512 0)
(-0.331698 -0.0174947 0)
(-0.332128 -0.0332409 0)
(-0.332923 -0.049303 0)
(-0.334141 -0.0657446 0)
(-0.335829 -0.0826269 0)
(-0.337977 -0.0999856 0)
(-0.340499 -0.117815 0)
(-0.343153 -0.136019 0)
(-0.34549 -0.154354 0)
(-0.346756 -0.172344 0)
(-0.345849 -0.189183 0)
(-0.341304 -0.203663 0)
(-0.331414 -0.214155 0)
(-0.314478 -0.218722 0)
(-0.289255 -0.215409 0)
(-0.255503 -0.202747 0)
(-0.214532 -0.180402 0)
(-0.169432 -0.14979 0)
(-0.124714 -0.114255 0)
(-0.0850833 -0.0784017 0)
(-0.0537685 -0.0464948 0)
(-0.0313819 -0.0209068 0)
(-0.0165347 -0.00189338 0)
(-0.00722778 0.0114226 0)
(-0.00185956 0.020035 0)
(0.000811821 0.0247663 0)
(0.00161119 0.0260279 0)
(0.00135964 0.0239562 0)
(0.000628165 0.0181102 0)
(7.75978e-05 0.00785782 0)
(-0.000282575 -0.00779178 0)
(-0.00320612 -0.0084925 0)
(-0.00965871 -9.1287e-05 0)
(-0.0191966 0.0143636 0)
(-0.0323331 0.031885 0)
(-0.048923 0.051624 0)
(-0.0694618 0.073045 0)
(-0.0936484 0.096038 0)
(-0.120995 0.119635 0)
(-0.150054 0.142384 0)
(-0.179301 0.162451 0)
(-0.207078 0.178401 0)
(-0.232265 0.189354 0)
(-0.254028 0.195097 0)
(-0.272034 0.195846 0)
(-0.286187 0.192162 0)
(-0.296758 0.184778 0)
(-0.304163 0.174522 0)
(-0.308996 0.162179 0)
(-0.311835 0.148447 0)
(-0.313261 0.133869 0)
(-0.313729 0.118852 0)
(-0.313627 0.103654 0)
(-0.313209 0.0884347 0)
(-0.312668 0.0732624 0)
(-0.312106 0.0581602 0)
(-0.311605 0.0431088 0)
(-0.311197 0.0280778 0)
(-0.310923 0.0130197 0)
(-0.310809 -0.00211059 0)
(-0.310904 -0.0173673 0)
(-0.311256 -0.0328011 0)
(-0.311941 -0.0484722 0)
(-0.313038 -0.064441 0)
(-0.314647 -0.0807791 0)
(-0.316851 -0.0975577 0)
(-0.319718 -0.114848 0)
(-0.323236 -0.132694 0)
(-0.327274 -0.151074 0)
(-0.331468 -0.169832 0)
(-0.335131 -0.188567 0)
(-0.337134 -0.206504 0)
(-0.335857 -0.222354 0)
(-0.329249 -0.234247 0)
(-0.31511 -0.239805 0)
(-0.291605 -0.236478 0)
(-0.258021 -0.222189 0)
(-0.215557 -0.19627 0)
(-0.167796 -0.160386 0)
(-0.120299 -0.118917 0)
(-0.0789635 -0.077948 0)
(-0.0475395 -0.042841 0)
(-0.0262618 -0.0160175 0)
(-0.0129678 0.00290004 0)
(-0.00524648 0.0153308 0)
(-0.00117824 0.0226077 0)
(0.000511733 0.0254861 0)
(0.000837885 0.0242727 0)
(0.000471311 0.0186682 0)
(6.73326e-05 0.00813108 0)
(-0.000754646 -0.00579523 0)
(-0.00556702 -0.00267369 0)
(-0.0146383 0.00922773 0)
(-0.0268537 0.0271303 0)
(-0.042896 0.0482233 0)
(-0.0623522 0.0717047 0)
(-0.0856247 0.0968213 0)
(-0.111872 0.12291 0)
(-0.140212 0.148373 0)
(-0.168831 0.171358 0)
(-0.196251 0.190057 0)
(-0.221001 0.20337 0)
(-0.242307 0.210861 0)
(-0.259621 0.212724 0)
(-0.272956 0.209538 0)
(-0.282523 0.202176 0)
(-0.288899 0.191603 0)
(-0.292697 0.178775 0)
(-0.29464 0.164504 0)
(-0.295311 0.149437 0)
(-0.295243 0.134016 0)
(-0.29478 0.118527 0)
(-0.294191 0.103117 0)
(-0.293599 0.0878489 0)
(-0.293096 0.0727216 0)
(-0.292689 0.0577119 0)
(-0.292394 0.0427745 0)
(-0.292191 0.0278695 0)
(-0.292088 0.0129506 0)
(-0.292079 -0.00201754 0)
(-0.292196 -0.0170752 0)
(-0.292469 -0.0322552 0)
(-0.292966 -0.0475998 0)
(-0.293759 -0.0631513 0)
(-0.294957 -0.0789684 0)
(-0.29667 -0.0951193 0)
(-0.299034 -0.111694 0)
(-0.302159 -0.128791 0)
(-0.306122 -0.146512 0)
(-0.31088 -0.164911 0)
(-0.316186 -0.18393 0)
(-0.321443 -0.203266 0)
(-0.325559 -0.222193 0)
(-0.32682 -0.239365 0)
(-0.322907 -0.252661 0)
(-0.311141 -0.259219 0)
(-0.289096 -0.255782 0)
(-0.255542 -0.239551 0)
(-0.21157 -0.209454 0)
(-0.161342 -0.167575 0)
(-0.111669 -0.119717 0)
(-0.0696902 -0.0738868 0)
(-0.039391 -0.0364695 0)
(-0.0200894 -0.00944971 0)
(-0.00883312 0.00844445 0)
(-0.00283176 0.0192133 0)
(-0.000125819 0.0242283 0)
(0.00069912 0.0241902 0)
(0.000516661 0.0190547 0)
(0.00010336 0.00839383 0)
(-0.0013145 -0.00241324 0)
(-0.00813906 0.00549512 0)
(-0.0198105 0.021164 0)
(-0.034538 0.0425768 0)
(-0.0531787 0.0672437 0)
(-0.074959 0.0942635 0)
(-0.100114 0.122505 0)
(-0.127253 0.150664 0)
(-0.155262 0.176663 0)
(-0.182172 0.198509 0)
(-0.206746 0.214673 0)
(-0.227765 0.224488 0)
(-0.244829 0.227985 0)
(-0.257699 0.225767 0)
(-0.266763 0.218785 0)
(-0.272507 0.208177 0)
(-0.275739 0.195059 0)
(-0.277151 0.180404 0)
(-0.277469 0.164953 0)
(-0.277176 0.14922 0)
(-0.276681 0.133501 0)
(-0.276176 0.117949 0)
(-0.275802 0.102601 0)
(-0.275568 0.0874453 0)
(-0.275487 0.0724352 0)
(-0.275504 0.057524 0)
(-0.275602 0.0426602 0)
(-0.275732 0.0278088 0)
(-0.275888 0.0129347 0)
(-0.276051 -0.00198204 0)
(-0.276245 -0.0169641 0)
(-0.276485 -0.0320251 0)
(-0.276827 -0.0471864 0)
(-0.277326 -0.0624683 0)
(-0.278076 -0.0779069 0)
(-0.279179 -0.0935488 0)
(-0.280774 -0.109469 0)
(-0.28301 -0.125767 0)
(-0.286054 -0.142579 0)
(-0.290039 -0.16006 0)
(-0.295024 -0.178352 0)
(-0.300861 -0.1975 0)
(-0.307061 -0.217303 0)
(-0.312579 -0.237096 0)
(-0.315646 -0.255461 0)
(-0.313704 -0.270005 0)
(-0.303643 -0.277295 0)
(-0.282461 -0.273278 0)
(-0.248454 -0.254311 0)
(-0.202699 -0.218984 0)
(-0.150157 -0.170107 0)
(-0.0991449 -0.11558 0)
(-0.0579922 -0.0657198 0)
(-0.0302211 -0.0274779 0)
(-0.0137128 -0.00166329 0)
(-0.00480395 0.0141476 0)
(-0.000663287 0.0221856 0)
(0.000755266 0.023828 0)
(0.000683147 0.0194448 0)
(0.000167996 0.00876668 0)
(-0.00192294 0.00249449 0)
(-0.0107512 0.0160404 0)
(-0.0248518 0.0356028 0)
(-0.041782 0.0604589 0)
(-0.0625444 0.0885219 0)
(-0.0859395 0.118619 0)
(-0.112019 0.149145 0)
(-0.138933 0.178191 0)
(-0.165521 0.20343 0)
(-0.189837 0.222978 0)
(-0.210986 0.23574 0)
(-0.228031 0.241524 0)
(-0.24097 0.240846 0)
(-0.249877 0.234715 0)
(-0.255481 0.224412 0)
(-0.25845 0.211243 0)
(-0.259701 0.196355 0)
(-0.259875 0.180629 0)
(-0.259605 0.164652 0)
(-0.259206 0.148765 0)
(-0.258943 0.133113 0)
(-0.258859 0.117726 0)
(-0.259001 0.102564 0)
(-0.259297 0.0875701 0)
(-0.259719 0.0726766 0)
(-0.260183 0.0578341 0)
(-0.260665 0.0429985 0)
(-0.261108 0.0281465 0)
(-0.261509 0.0132577 0)
(-0.261846 -0.00167339 0)
(-0.262142 -0.0166546 0)
(-0.262403 -0.0316846 0)
(-0.262676 -0.0467694 0)
(-0.262998 -0.0619121 0)
(-0.263443 -0.077129 0)
(-0.264083 -0.092443 0)
(-0.265033 -0.107902 0)
(-0.26642 -0.123579 0)
(-0.268419 -0.139591 0)
(-0.271216 -0.156105 0)
(-0.275015 -0.173333 0)
(-0.279946 -0.191508 0)
(-0.285976 -0.21078 0)
(-0.2927 -0.231059 0)
(-0.299122 -0.251709 0)
(-0.303392 -0.271211 0)
(-0.302714 -0.286791 0)
(-0.293548 -0.29435 0)
(-0.272371 -0.288874 0)
(-0.237123 -0.265867 0)
(-0.189102 -0.223739 0)
(-0.134473 -0.166735 0)
(-0.0833609 -0.105745 0)
(-0.0449195 -0.0535737 0)
(-0.021052 -0.0165932 0)
(-0.00788889 0.00651763 0)
(-0.00157574 0.0189606 0)
(0.00074933 0.0230793 0)
(0.000865727 0.0198545 0)
(0.00024194 0.00927976 0)
(-0.00251461 0.00889519 0)
(-0.013173 0.0287491 0)
(-0.0293716 0.0521727 0)
(-0.0480601 0.0802427 0)
(-0.0703411 0.111312 0)
(-0.0945683 0.143791 0)
(-0.12065 0.175605 0)
(-0.146414 0.204363 0)
(-0.170817 0.227738 0)
(-0.192052 0.24413 0)
(-0.209614 0.252968 0)
(-0.222857 0.254551 0)
(-0.232177 0.24988 0)
(-0.237921 0.24033 0)
(-0.241066 0.22741 0)
(-0.242337 0.212466 0)
(-0.242638 0.196559 0)
(-0.242466 0.18039 0)
(-0.242307 0.164358 0)
(-0.242298 0.148623 0)
(-0.24258 0.133204 0)
(-0.243084 0.118044 0)
(-0.243801 0.10306 0)
(-0.244614 0.0881756 0)
(-0.245489 0.0733264 0)
(-0.246334 0.0584722 0)
(-0.247133 0.043584 0)
(-0.247831 0.0286531 0)
(-0.248435 0.013674 0)
(-0.248922 -0.00134537 0)
(-0.249319 -0.0164005 0)
(-0.249628 -0.0314789 0)
(-0.249891 -0.0465751 0)
(-0.25013 -0.0616806 0)
(-0.250404 -0.0767977 0)
(-0.250758 -0.0919321 0)
(-0.251278 -0.107108 0)
(-0.252049 -0.122368 0)
(-0.253209 -0.137791 0)
(-0.254922 -0.153508 0)
(-0.257409 -0.169715 0)
(-0.260909 -0.18669 0)
(-0.265644 -0.204749 0)
(-0.271667 -0.224174 0)
(-0.278667 -0.244962 0)
(-0.28565 -0.266506 0)
(-0.29065 -0.287067 0)
(-0.290566 -0.303379 0)
(-0.2814 -0.310427 0)
(-0.259175 -0.302132 0)
(-0.221669 -0.273113 0)
(-0.170871 -0.222169 0)
(-0.114698 -0.156065 0)
(-0.0653987 -0.0898945 0)
(-0.0318322 -0.0382461 0)
(-0.0128385 -0.00481444 0)
(-0.00334775 0.0139462 0)
(0.000408538 0.0216956 0)
(0.000948386 0.020217 0)
(0.00030326 0.00993407 0)
(-0.00303617 0.0166669 0)
(-0.0152357 0.0433439 0)
(-0.0331012 0.0704949 0)
(-0.0530313 0.101449 0)
(-0.0761786 0.135006 0)
(-0.100481 0.169072 0)
(-0.125779 0.20117 0)
(-0.149716 0.228604 0)
(-0.171493 0.249261 0)
(-0.189501 0.26194 0)
(-0.20364 0.266642 0)
(-0.213544 0.264156 0)
(-0.219971 0.25594 0)
(-0.22345 0.243633 0)
(-0.22509 0.228851 0)
(-0.225554 0.212851 0)
(-0.225647 0.19652 0)
(-0.225676 0.180338 0)
(-0.225979 0.164515 0)
(-0.226539 0.149062 0)
(-0.227414 0.133908 0)
(-0.228465 0.118948 0)
(-0.229665 0.104085 0)
(-0.230883 0.0892454 0)
(-0.232097 0.0743787 0)
(-0.233218 0.0594594 0)
(-0.234244 0.0444748 0)
(-0.235126 0.0294294 0)
(-0.235882 0.0143302 0)
(-0.236489 -0.000805215 0)
(-0.236979 -0.0159631 0)
(-0.237349 -0.0311237 0)
(-0.23764 -0.0462743 0)
(-0.237867 -0.0613999 0)
(-0.238078 -0.0764949 0)
(-0.238302 -0.0915557 0)
(-0.238599 -0.106591 0)
(-0.23902 -0.121623 0)
(-0.23966 -0.136696 0)
(-0.240628 -0.151895 0)
(-0.242099 -0.167362 0)
(-0.244297 -0.18333 0)
(-0.247511 -0.200126 0)
(-0.252024 -0.21818 0)
(-0.257986 -0.237874 0)
(-0.26514 -0.259327 0)
(-0.272469 -0.281856 0)
(-0.277799 -0.303427 0)
(-0.277628 -0.319977 0)
(-0.26746 -0.325378 0)
(-0.242926 -0.312212 0)
(-0.202051 -0.274529 0)
(-0.148133 -0.212445 0)
(-0.0917029 -0.137137 0)
(-0.0469233 -0.0688548 0)
(-0.0201445 -0.0212651 0)
(-0.00634961 0.00628203 0)
(-0.000461489 0.0192208 0)
(0.000852471 0.0203163 0)
(0.000339246 0.0106519 0)
(-0.00342584 0.0255315 0)
(-0.0167603 0.0593644 0)
(-0.0357786 0.0899992 0)
(-0.0563917 0.123387 0)
(-0.0797585 0.158794 0)
(-0.103473 0.1936 0)
(-0.127385 0.225056 0)
(-0.149088 0.250335 0)
(-0.168087 0.267701 0)
(-0.183002 0.276416 0)
(-0.194122 0.277072 0)
(-0.201327 0.270909 0)
(-0.205657 0.259773 0)
(-0.207716 0.245438 0)
(-0.208635 0.2295 0)
(-0.208931 0.213024 0)
(-0.20927 0.196685 0)
(-0.20977 0.180735 0)
(-0.210648 0.165228 0)
(-0.211777 0.150064 0)
(-0.213173 0.135127 0)
(-0.214665 0.120292 0)
(-0.216234 0.105471 0)
(-0.217749 0.0906014 0)
(-0.219208 0.0756531 0)
(-0.220527 0.0606144 0)
(-0.221722 0.0454881 0)
(-0.222744 0.030289 0)
(-0.223619 0.0150351 0)
(-0.224325 -0.000248509 0)
(-0.224895 -0.0155401 0)
(-0.225326 -0.0308139 0)
(-0.225657 -0.0460515 0)
(-0.225899 -0.0612339 0)
(-0.226095 -0.0763504 0)
(-0.226264 -0.0913937 0)
(-0.226454 -0.106365 0)
(-0.226695 -0.121275 0)
(-0.227049 -0.136147 0)
(-0.227576 -0.151034 0)
(-0.228393 -0.166019 0)
(-0.229658 -0.181272 0)
(-0.231622 -0.197048 0)
(-0.234599 -0.213766 0)
(-0.238946 -0.231934 0)
(-0.244876 -0.252096 0)
(-0.252166 -0.274396 0)
(-0.259689 -0.298065 0)
(-0.264952 -0.320462 0)
(-0.263942 -0.336499 0)
(-0.251577 -0.338445 0)
(-0.22335 -0.317551 0)
(-0.178017 -0.267811 0)
(-0.121311 -0.192573 0)
(-0.0670503 -0.110086 0)
(-0.030114 -0.0446219 0)
(-0.0108135 -0.00493935 0)
(-0.00196555 0.0150998 0)
(0.000546248 0.0198986 0)
(0.000344945 0.0113486 0)
(-0.00365308 0.0351541 0)
(-0.0176697 0.0763592 0)
(-0.0373084 0.11021 0)
(-0.0580669 0.145562 0)
(-0.0810743 0.182186 0)
(-0.103676 0.216966 0)
(-0.125802 0.247027 0)
(-0.145091 0.269565 0)
(-0.161381 0.283333 0)
(-0.17352 0.288084 0)
(-0.182144 0.284988 0)
(-0.187323 0.275678 0)
(-0.190279 0.26228 0)
(-0.191595 0.246573 0)
(-0.192338 0.23003 0)
(-0.192841 0.21347 0)
(-0.193628 0.197347 0)
(-0.194659 0.181715 0)
(-0.19607 0.166516 0)
(-0.197668 0.151584 0)
(-0.199461 0.136786 0)
(-0.201268 0.121999 0)
(-0.203092 0.107156 0)
(-0.204809 0.0922081 0)
(-0.206437 0.0771437 0)
(-0.207897 0.0619624 0)
(-0.209216 0.046679 0)
(-0.210347 0.0313159 0)
(-0.211321 0.0158992 0)
(-0.212113 0.000459749 0)
(-0.212759 -0.0149741 0)
(-0.213252 -0.0303724 0)
(-0.213633 -0.0457116 0)
(-0.213909 -0.0609702 0)
(-0.214121 -0.0761344 0)
(-0.214285 -0.0911961 0)
(-0.214444 -0.106154 0)
(-0.214614 -0.121016 0)
(-0.214841 -0.135794 0)
(-0.215152 -0.150524 0)
(-0.215618 -0.165249 0)
(-0.216326 -0.180079 0)
(-0.217449 -0.195178 0)
(-0.219239 -0.210878 0)
(-0.222069 -0.22764 0)
(-0.226346 -0.246153 0)
(-0.232342 -0.26703 0)
(-0.239799 -0.290503 0)
(-0.247365 -0.315408 0)
(-0.252091 -0.33831 0)
(-0.24926 -0.352462 0)
(-0.233308 -0.34828 0)
(-0.199837 -0.315673 0)
(-0.149464 -0.250092 0)
(-0.0913978 -0.161352 0)
(-0.0434632 -0.0770351 0)
(-0.0167332 -0.0208202 0)
(-0.00421293 0.00868741 0)
(5.09623e-05 0.0186467 0)
(0.000317555 0.0119239 0)
(-0.00368992 0.0451139 0)
(-0.0178974 0.0937679 0)
(-0.0376223 0.130527 0)
(-0.0580265 0.167335 0)
(-0.0801818 0.20454 0)
(-0.101289 0.238616 0)
(-0.121405 0.266702 0)
(-0.138287 0.28614 0)
(-0.152089 0.296239 0)
(-0.161877 0.297236 0)
(-0.168567 0.290839 0)
(-0.172347 0.278985 0)
(-0.174524 0.263959 0)
(-0.175585 0.247432 0)
(-0.176483 0.230691 0)
(-0.177372 0.214288 0)
(-0.178652 0.198482 0)
(-0.180167 0.18317 0)
(-0.182013 0.168228 0)
(-0.183964 0.153451 0)
(-0.186039 0.13872 0)
(-0.188065 0.12392 0)
(-0.190065 0.109006 0)
(-0.191926 0.0939449 0)
(-0.193679 0.0787385 0)
(-0.19525 0.0633945 0)
(-0.196672 0.0479377 0)
(-0.197898 0.0323953 0)
(-0.198961 0.0168012 0)
(-0.199834 0.00119102 0)
(-0.200553 -0.0144003 0)
(-0.201109 -0.0299387 0)
(-0.201543 -0.0453951 0)
(-0.201856 -0.0607453 0)
(-0.202095 -0.0759722 0)
(-0.202268 -0.091068 0)
(-0.202421 -0.106029 0)
(-0.202565 -0.120868 0)
(-0.20274 -0.135592 0)
(-0.202958 -0.150235 0)
(-0.203261 -0.164817 0)
(-0.203686 -0.179416 0)
(-0.204332 -0.194114 0)
(-0.205358 -0.209146 0)
(-0.207055 -0.224845 0)
(-0.209834 -0.241855 0)
(-0.214174 -0.260938 0)
(-0.220369 -0.282935 0)
(-0.228029 -0.307875 0)
(-0.235438 -0.334108 0)
(-0.238921 -0.356669 0)
(-0.233039 -0.36673 0)
(-0.211763 -0.352346 0)
(-0.171752 -0.302981 0)
(-0.116623 -0.218432 0)
(-0.0608716 -0.119725 0)
(-0.0241526 -0.0430483 0)
(-0.00731247 -0.000557876 0)
(-0.000638349 0.0161791 0)
(0.00026961 0.0123131 0)
(-0.0035427 0.055006 0)
(-0.017473 0.111125 0)
(-0.036796 0.150538 0)
(-0.056425 0.188362 0)
(-0.077348 0.225623 0)
(-0.0967224 0.258493 0)
(-0.114753 0.284241 0)
(-0.12936 0.300445 0)
(-0.140979 0.306992 0)
(-0.148862 0.304576 0)
(-0.154131 0.295385 0)
(-0.157022 0.281552 0)
(-0.158843 0.265419 0)
(-0.159945 0.248467 0)
(-0.161152 0.231765 0)
(-0.162459 0.215618 0)
(-0.164177 0.200125 0)
(-0.166076 0.185074 0)
(-0.168237 0.170306 0)
(-0.170427 0.155608 0)
(-0.172686 0.140881 0)
(-0.174852 0.126022 0)
(-0.176968 0.11101 0)
(-0.178927 0.0958182 0)
(-0.180772 0.0804617 0)
(-0.18243 0.0649518 0)
(-0.183939 0.0493209 0)
(-0.185248 0.0335994 0)
(-0.186394 0.0178279 0)
(-0.187346 0.0020455 0)
(-0.188141 -0.0137065 0)
(-0.188766 -0.0293905 0)
(-0.189262 -0.0449722 0)
(-0.189629 -0.0604253 0)
(-0.189911 -0.0757286 0)
(-0.190116 -0.0908749 0)
(-0.190289 -0.105859 0)
(-0.19044 -0.120697 0)
(-0.190608 -0.135395 0)
(-0.1908 -0.149994 0)
(-0.191046 -0.164504 0)
(-0.191356 -0.178991 0)
(-0.191781 -0.193486 0)
(-0.192395 -0.208149 0)
(-0.193385 -0.223171 0)
(-0.195064 -0.239063 0)
(-0.197914 -0.256508 0)