/*--------------------------------*- C++ -*----------------------------------*\
| =========                 |                                                 |
| \\      /  F ield         | OpenFOAM: The Open Source CFD Toolbox           |
|  \\    /   O peration     | Version:  2406                                  |
|   \\  /    A nd           | Website:  www.openfoam.com                      |
|    \\/     M anipulation  |                                                 |
\*---------------------------------------------------------------------------*/
FoamFile
{
    version     2.0;
    format      ascii;
    arch        "LSB;label=32;scalar=64";
    class       volVectorField;
    location    "30.8";
    object      U;
}
// * * * * * * * * * * * * * * * * * * * * * * * * * * * * * * * * * * * * * //

dimensions      [0 1 -1 0 0 0 0];

internalField   nonuniform List<vector> 
14400
(
(-4.59131e-06 4.51242e-06 0)
(2.1569e-05 -1.19631e-05 0)
(0.000123379 -3.23627e-05 0)
(0.000293997 -4.8113e-05 0)
(0.000514492 -5.85527e-05 0)
(0.000765492 -6.38616e-05 0)
(0.00102861 -6.47828e-05 0)
(0.00128827 -6.21744e-05 0)
(0.00153221 -5.69599e-05 0)
(0.00175166 -5.00492e-05 0)
(0.00194129 -4.2289e-05 0)
(0.00209886 -3.44155e-05 0)
(0.00222477 -2.70175e-05 0)
(0.00232146 -2.05155e-05 0)
(0.0023927 -1.51537e-05 0)
(0.00244299 -1.09988e-05 0)
(0.00247693 -7.99545e-06 0)
(0.00249863 -6.08782e-06 0)
(0.00251114 -5.0305e-06 0)
(0.00251619 -4.43772e-06 0)
(0.00251447 -3.65518e-06 0)
(0.00250542 -2.44261e-06 0)
(0.00248693 -6.31281e-07 0)
(0.00245579 1.99986e-06 0)
(0.00240802 5.6255e-06 0)
(0.00233902 1.036e-05 0)
(0.00224377 1.62761e-05 0)
(0.00211696 2.34219e-05 0)
(0.00195311 3.18356e-05 0)
(0.00174657 4.15568e-05 0)
(0.00149154 5.26296e-05 0)
(0.00118206 6.51009e-05 0)
(0.000812049 7.90131e-05 0)
(0.000375366 9.43948e-05 0)
(-0.000134116 0.000111251 0)
(-0.00072236 0.000129557 0)
(-0.00139501 0.000149245 0)
(-0.00215717 0.000170209 0)
(-0.00301327 0.000192291 0)
(-0.00396674 0.000215286 0)
(-0.00501988 0.00023894 0)
(-0.00617361 0.000262948 0)
(-0.00742725 0.000286961 0)
(-0.00877836 0.000310586 0)
(-0.0102226 0.000333391 0)
(-0.0117534 0.000354917 0)
(-0.0133625 0.000374679 0)
(-0.0150389 0.000392176 0)
(-0.01677 0.0004069 0)
(-0.0185407 0.000418342 0)
(-0.0203341 0.000426001 0)
(-0.0221315 0.000429389 0)
(-0.0239123 0.000428039 0)
(-0.0256547 0.000421515 0)
(-0.0273356 0.000409413 0)
(-0.0289308 0.000391376 0)
(-0.0304156 0.000367097 0)
(-0.0317651 0.000336332 0)
(-0.0329541 0.000298922 0)
(-0.0339581 0.00025475 0)
(-0.0347538 0.000203801 0)
(-0.0353193 0.000147093 0)
(-0.0356334 8.63215e-05 0)
(-0.0356754 1.98059e-05 0)
(-0.0354313 -5.38298e-05 0)
(-0.0348916 -0.000131462 0)
(-0.0340469 -0.000211456 0)
(-0.0328941 -0.000292714 0)
(-0.0314351 -0.000373733 0)
(-0.0296779 -0.000452829 0)
(-0.0276363 -0.000528165 0)
(-0.0253304 -0.00059781 0)
(-0.0227867 -0.000659807 0)
(-0.0200379 -0.00071226 0)
(-0.0171225 -0.000753424 0)
(-0.0140841 -0.000781796 0)
(-0.0109705 -0.000796215 0)
(-0.00783257 -0.00079594 0)
(-0.00472285 -0.000780723 0)
(-0.00169385 -0.000750853 0)
(0.00120349 -0.000707167 0)
(0.0039216 -0.000651034 0)
(0.00641783 -0.0005843 0)
(0.00865598 -0.000509197 0)
(0.0106074 -0.000428231 0)
(0.0122521 -0.000344038 0)
(0.0135789 -0.000259245 0)
(0.0145856 -0.000176328 0)
(0.0152788 -9.74494e-05 0)
(0.0156729 -2.3987e-05 0)
(0.0157923 4.18099e-05 0)
(0.0156595 9.50187e-05 0)
(0.0153044 0.000140097 0)
(0.014765 0.000178125 0)
(0.0140753 0.000207208 0)
(0.013269 0.000227526 0)
(0.0123788 0.000239975 0)
(0.0114354 0.000245496 0)
(0.0104659 0.000245111 0)
(0.00949382 0.000239871 0)
(0.00853885 0.000230803 0)
(0.00761665 0.000218872 0)
(0.00673914 0.000204955 0)
(0.00591471 0.000189825 0)
(0.00514868 0.000174144 0)
(0.00444363 0.000158465 0)
(0.00379989 0.000143237 0)
(0.00321594 0.000128811 0)
(0.00268884 0.00011544 0)
(0.00221465 0.000103272 0)
(0.00178897 9.23322e-05 0)
(0.00140749 8.24843e-05 0)
(0.00106674 7.33952e-05 0)
(0.000764905 6.44984e-05 0)
(0.000502734 5.49837e-05 0)
(0.000284222 4.38861e-05 0)
(0.000116774 3.03353e-05 0)
(9.75519e-06 1.40693e-05 0)
(-3.145e-05 -2.94039e-06 0)
(-1.29415e-05 -1.29642e-05 0)
(1.11494e-05 -2.09567e-05 0)
(0.000148259 -0.000151293 0)
(0.000442947 -0.000300685 0)
(0.000885064 -0.000420423 0)
(0.00143194 -0.000501575 0)
(0.00204447 -0.000544042 0)
(0.00268293 -0.000551847 0)
(0.0033123 -0.000530941 0)
(0.00390408 -0.000488151 0)
(0.00443708 -0.000430471 0)
(0.00489749 -0.000364561 0)
(0.00527834 -0.000296315 0)
(0.00557864 -0.000230539 0)
(0.00580203 -0.000170747 0)
(0.00595535 -0.000119074 0)
(0.00604714 -7.63024e-05 0)
(0.00608613 -4.20104e-05 0)
(0.00608014 -1.48752e-05 0)
(0.00603485 7.25746e-06 0)
(0.00595322 2.71864e-05 0)
(0.0058349 4.80211e-05 0)
(0.00567612 7.24979e-05 0)
(0.00547017 0.000103035 0)
(0.00520768 0.000141672 0)
(0.00487705 0.000189975 0)
(0.00446508 0.00024905 0)
(0.00395741 0.000319638 0)
(0.00333898 0.000402223 0)
(0.00259427 0.000497145 0)
(0.0017075 0.000604667 0)
(0.000662805 0.000725005 0)
(-0.000555594 0.000858296 0)
(-0.00196317 0.00100455 0)
(-0.00357475 0.00116355 0)
(-0.00540416 0.00133481 0)
(-0.0074637 0.00151748 0)
(-0.0097636 0.00171029 0)
(-0.0123115 0.00191153 0)
(-0.0151118 0.00211902 0)
(-0.018165 0.00233011 0)
(-0.0214676 0.00254173 0)
(-0.025011 0.00275035 0)
(-0.0287817 0.00295214 0)
(-0.0327611 0.00314294 0)
(-0.0369249 0.00331843 0)
(-0.0412437 0.00347418 0)
(-0.0456831 0.00360574 0)
(-0.0502039 0.00370879 0)
(-0.0547629 0.00377921 0)
(-0.0593131 0.00381317 0)
(-0.0638049 0.00380722 0)
(-0.0681865 0.00375836 0)
(-0.0724047 0.00366411 0)
(-0.0764058 0.00352253 0)
(-0.0801364 0.00333228 0)
(-0.0835442 0.00309266 0)
(-0.0865783 0.00280363 0)
(-0.0891906 0.0024658 0)
(-0.0913359 0.00208058 0)
(-0.0929727 0.00165007 0)
(-0.0940637 0.00117713 0)
(-0.0945761 0.000666131 0)
(-0.0944853 0.000123686 0)
(-0.0937712 -0.000446409 0)
(-0.0924162 -0.00104 0)
(-0.0904155 -0.00164783 0)
(-0.0877705 -0.00226127 0)
(-0.0844909 -0.00287081 0)
(-0.0805951 -0.00346628 0)
(-0.0761104 -0.00403686 0)
(-0.0710736 -0.0045713 0)
(-0.0655311 -0.00505821 0)
(-0.0595384 -0.00548637 0)
(-0.0531601 -0.00584506 0)
(-0.0464693 -0.00612456 0)
(-0.0395463 -0.0063165 0)
(-0.0324778 -0.00641434 0)
(-0.0253553 -0.00641376 0)
(-0.0182731 -0.00631303 0)
(-0.0113267 -0.00611322 0)
(-0.00460987 -0.00581838 0)
(0.00178698 -0.00543553 0)
(0.00777976 -0.0049745 0)
(0.0132927 -0.00444762 0)
(0.0182608 -0.00386928 0)
(0.0226314 -0.00325533 0)
(0.0263659 -0.00262244 0)
(0.0294408 -0.00198738 0)
(0.0318481 -0.00136628 0)
(0.0335952 -0.000773994 0)
(0.0347028 -0.000223897 0)
(0.0352064 0.000270214 0)
(0.035158 0.000706246 0)
(0.0346128 0.00107886 0)
(0.0336332 0.0013835 0)
(0.032289 0.0016203 0)
(0.0306509 0.00179205 0)
(0.0287887 0.00190332 0)
(0.026769 0.00196021 0)
(0.0246535 0.00196978 0)
(0.022497 0.00193964 0)
(0.0203472 0.00187752 0)
(0.0182433 0.0017909 0)
(0.0162166 0.00168676 0)
(0.0142906 0.00157138 0)
(0.0124814 0.00145026 0)
(0.0107985 0.00132805 0)
(0.00924614 0.0012085 0)
(0.0078237 0.00109446 0)
(0.00652728 0.000987803 0)
(0.00535084 0.000889199 0)
(0.00428771 0.000797964 0)
(0.0033323 0.000711795 0)
(0.00248196 0.000626636 0)
(0.00173868 0.000536814 0)
(0.00111033 0.000435852 0)
(0.000610482 0.000318482 0)
(0.000254393 0.00018501 0)
(5.45789e-05 4.92801e-05 0)
(-1.86799e-06 -3.04873e-05 0)
(3.04037e-05 -0.000118769 0)
(0.000291333 -0.000443276 0)
(0.000758627 -0.000769786 0)
(0.00141747 -0.00103092 0)
(0.00220599 -0.00120875 0)
(0.00307505 -0.00130146 0)
(0.00397292 -0.00131621 0)
(0.00485315 -0.00126506 0)
(0.00567716 -0.00116259 0)
(0.00641555 -0.00102413 0)
(0.0070483 -0.000864548 0)
(0.00756426 -0.000697146 0)
(0.00796004 -0.000532889 0)
(0.00823833 -0.00037988 0)
(0.00840607 -0.000243124 0)
(0.00847242 -0.000124545 0)
(0.00844676 -2.32074e-05 0)
(0.00833703 6.42709e-05 0)
(0.00814839 0.000142956 0)
(0.00788202 0.000219214 0)
(0.0075345 0.000299758 0)
(0.00709776 0.000391298 0)
(0.00655944 0.000499887 0)
(0.00590332 0.000630544 0)
(0.0051101 0.000787144 0)
(0.00415816 0.000972461 0)
(0.0030243 0.00118834 0)
(0.00168443 0.00143591 0)
(0.000114043 0.00171581 0)
(-0.00171128 0.0020283 0)
(-0.00381541 0.00237329 0)
(-0.00622122 0.00275027 0)
(-0.00894988 0.00315814 0)
(-0.0120202 0.00359504 0)
(-0.0154479 0.0040582 0)
(-0.0192445 0.00454378 0)
(-0.0234165 0.00504676 0)
(-0.0279644 0.00556096 0)
(-0.0328822 0.00607903 0)
(-0.0381562 0.00659257 0)
(-0.043765 0.00709224 0)
(-0.0496789 0.00756795 0)
(-0.0558602 0.00800917 0)
(-0.0622633 0.00840514 0)
(-0.0688357 0.0087452 0)
(-0.0755181 0.0090191 0)
(-0.0822466 0.00921724 0)
(-0.0889528 0.00933101 0)
(-0.095566 0.00935294 0)
(-0.102014 0.0092769 0)
(-0.108225 0.00909819 0)
(-0.114128 0.00881364 0)
(-0.119655 0.00842159 0)
(-0.124741 0.00792188 0)
(-0.129325 0.00731578 0)
(-0.133351 0.00660595 0)
(-0.136768 0.00579637 0)
(-0.139531 0.00489229 0)
(-0.141601 0.00390013 0)
(-0.142944 0.00282762 0)
(-0.143534 0.0016837 0)
(-0.143348 0.000477883 0)
(-0.142372 -0.000779346 0)
(-0.140603 -0.00207289 0)
(-0.138037 -0.00338969 0)
(-0.13468 -0.00471548 0)
(-0.130546 -0.00603397 0)
(-0.125657 -0.00732743 0)
(-0.120042 -0.00857718 0)
(-0.11374 -0.00976371 0)
(-0.106796 -0.010867 0)
(-0.0992642 -0.011867 0)
(-0.0912089 -0.0127438 0)
(-0.0827011 -0.0134787 0)
(-0.0738204 -0.0140544 0)
(-0.0646537 -0.0144559 0)
(-0.0552946 -0.014671 0)
(-0.0458418 -0.0146914 0)
(-0.0363982 -0.0145129 0)
(-0.0270689 -0.0141359 0)
(-0.0179592 -0.013566 0)
(-0.00917266 -0.0128141 0)
(-0.000808829 -0.0118958 0)
(0.00703912 -0.0108319 0)
(0.0142866 -0.00964697 0)
(0.0208598 -0.00836927 0)
(0.0266974 -0.00702934 0)
(0.0317526 -0.00565911 0)
(0.0359941 -0.00429067 0)
(0.0394066 -0.00295521 0)
(0.0419916 -0.00168147 0)
(0.0437696 -0.000493269 0)
(0.0447764 0.000587887 0)
(0.0450577 0.00154244 0)
(0.0446761 0.00236037 0)
(0.0437056 0.00303605 0)
(0.0422267 0.00356855 0)
(0.0403245 0.00396193 0)
(0.0380858 0.0042245 0)
(0.0355959 0.004368 0)
(0.0329359 0.00440667 0)
(0.0301801 0.00435629 0)
(0.0273946 0.00423328 0)
(0.0246355 0.00405387 0)
(0.021949 0.00383347 0)
(0.0193706 0.00358616 0)
(0.0169265 0.00332433 0)
(0.0146337 0.00305846 0)
(0.0125015 0.00279683 0)
(0.0105332 0.00254526 0)
(0.00872751 0.00230674 0)
(0.00708102 0.00208096 0)
(0.00559028 0.0018639 0)
(0.00425424 0.00164774 0)
(0.00307653 0.00142137 0)
(0.0020668 0.0011723 0)
(0.00124059 0.000890777 0)
(0.00061365 0.000577581 0)
(0.000210178 0.000256738 0)
(1.79635e-05 1.86003e-05 0)
(4.51759e-05 -0.000281962 0)
(0.000407411 -0.00087905 0)
(0.00101655 -0.00142807 0)
(0.00184709 -0.00185917 0)
(0.00281681 -0.00214936 0)
(0.00386818 -0.00229642 0)
(0.00494115 -0.0023115 0)
(0.00598202 -0.00221392 0)
(0.00694599 -0.00202747 0)
(0.00779852 -0.00177755 0)
(0.00851548 -0.00148893 0)
(0.00908261 -0.00118391 0)
(0.00949416 -0.000880924 0)
(0.00975105 -0.000593621 0)
(0.00985873 -0.000330414 0)
(0.00982487 -9.44543e-05 0)
(0.00965713 0.000115982 0)
(0.00936103 0.00030684 0)
(0.00893847 0.000487208 0)
(0.00838654 0.000668185 0)
(0.0076967 0.000861758 0)
(0.00685487 0.00107971 0)
(0.00584168 0.00133267 0)
(0.00463333 0.0016295 0)
(0.0032024 0.00197704 0)
(0.00151901 0.00238011 0)
(-0.000448261 0.00284178 0)
(-0.00273138 0.00336367 0)
(-0.00536203 0.00394624 0)
(-0.00837074 0.00458893 0)
(-0.011786 0.00529016 0)
(-0.0156332 0.00604712 0)
(-0.0199336 0.00685552 0)
(-0.024703 0.00770928 0)
(-0.0299507 0.00860032 0)
(-0.0356779 0.00951838 0)
(-0.0418767 0.010451 0)
(-0.0485293 0.0113837 0)
(-0.0556071 0.0123 0)
(-0.063071 0.0131821 0)
(-0.070871 0.0140111 0)
(-0.0789471 0.0147676 0)
(-0.0872305 0.0154326 0)
(-0.0956453 0.0159877 0)
(-0.10411 0.0164158 0)
(-0.112539 0.0167021 0)
(-0.120847 0.0168338 0)
(-0.128947 0.0168009 0)
(-0.136757 0.0165963 0)
(-0.144196 0.0162157 0)
(-0.151191 0.0156575 0)
(-0.157673 0.0149229 0)
(-0.163581 0.0140152 0)
(-0.16886 0.01294 0)
(-0.173463 0.0117046 0)
(-0.177349 0.0103182 0)
(-0.180484 0.00879082 0)
(-0.182839 0.00713421 0)
(-0.184393 0.00536098 0)
(-0.185129 0.00348497 0)
(-0.185034 0.00152123 0)
(-0.184104 -0.000514675 0)
(-0.182333 -0.00260682 0)
(-0.179726 -0.00473556 0)
(-0.17629 -0.00688015 0)
(-0.172039 -0.00901939 0)
(-0.166988 -0.0111306 0)
(-0.161161 -0.0131892 0)
(-0.154588 -0.0151695 0)
(-0.147305 -0.0170444 0)
(-0.139353 -0.0187861 0)
(-0.130783 -0.0203663 0)
(-0.121652 -0.0217571 0)
(-0.112027 -0.0229317 0)
(-0.10198 -0.0238649 0)
(-0.0915924 -0.0245346 0)
(-0.0809528 -0.0249222 0)
(-0.0701557 -0.0250141 0)
(-0.0593008 -0.0248022 0)
(-0.048492 -0.0242848 0)
(-0.0378351 -0.0234673 0)
(-0.0274364 -0.0223623 0)
(-0.0174002 -0.0209898 0)
(-0.00782691 -0.0193767 0)
(0.001189 -0.0175562 0)
(0.00956137 -0.015567 0)
(0.017214 -0.0134521 0)
(0.0240827 -0.0112574 0)
(0.0301162 -0.00903019 0)
(0.0352781 -0.00681766 0)
(0.0395473 -0.00466501 0)
(0.0429197 -0.00261415 0)
(0.0454048 -0.000704718 0)
(0.0470301 0.00103125 0)
(0.0478402 0.0025698 0)
(0.0478916 0.00389314 0)
(0.047254 0.0049911 0)
(0.0460079 0.00586154 0)
(0.0442411 0.00650987 0)
(0.0420455 0.00694818 0)
(0.0395142 0.00719419 0)
(0.0367381 0.0072699 0)
(0.0338025 0.00720011 0)
(0.0307851 0.00701098 0)
(0.0277539 0.00672872 0)
(0.024766 0.0063784 0)
(0.0218673 0.00598304 0)
(0.0190925 0.00556283 0)
(0.0164664 0.00513444 0)
(0.0140048 0.00471036 0)
(0.0117168 0.00429812 0)
(0.00960672 0.00389956 0)
(0.00767706 0.00351021 0)
(0.005931 0.00311924 0)
(0.00437511 0.00271046 0)
(0.00302127 0.0022653 0)
(0.00188741 0.00176873 0)
(0.000991424 0.00121959 0)
(0.00037665 0.000645636 0)
(3.91419e-05 0.00014774 0)
(5.58494e-05 -0.000494395 0)
(0.00049441 -0.00142279 0)
(0.00121298 -0.00222351 0)
(0.00217359 -0.00283558 0)
(0.00327417 -0.00323761 0)
(0.0044483 -0.00343036 0)
(0.00562869 -0.00343087 0)
(0.00675628 -0.00326687 0)
(0.00778221 -0.0029723 0)
(0.00866885 -0.00258339 0)
(0.00938962 -0.00213546 0)
(0.0099282 -0.00166024 0)
(0.0102769 -0.0011839 0)
(0.0104347 -0.000725655 0)
(0.0104046 -0.000297136 0)
(0.0101914 9.76944e-05 0)
(0.00979909 0.000461979 0)
(0.00922879 0.000804937 0)
(0.00847698 0.00114049 0)
(0.00753441 0.00148545 0)
(0.00638548 0.00185785 0)
(0.00500837 0.00227522 0)
(0.00337561 0.00275331 0)
(0.00145509 0.0033051 0)
(-0.000788671 0.00394037 0)
(-0.00339318 0.00466576 0)
(-0.00639662 0.00548496 0)
(-0.00983654 0.00639914 0)
(-0.0137485 0.00740725 0)
(-0.0181648 0.00850607 0)
(-0.0231127 0.00969013 0)
(-0.0286133 0.0109514 0)
(-0.0346794 0.0122789 0)
(-0.0413144 0.0136585 0)
(-0.04851 0.0150725 0)
(-0.0562457 0.0164999 0)
(-0.0644878 0.0179167 0)
(-0.0731889 0.0192961 0)
(-0.0822886 0.0206097 0)
(-0.0917144 0.021828 0)
(-0.101384 0.0229217 0)
(-0.111205 0.0238629 0)
(-0.121083 0.0246256 0)
(-0.130919 0.0251872 0)
(-0.140615 0.025529 0)
(-0.150075 0.0256366 0)
(-0.159209 0.0255001 0)
(-0.167935 0.0251142 0)
(-0.176176 0.0244779 0)
(-0.183869 0.0235942 0)
(-0.190954 0.0224693 0)
(-0.197384 0.0211122 0)
(-0.203118 0.0195342 0)
(-0.208125 0.0177484 0)
(-0.212376 0.015769 0)
(-0.215853 0.0136115 0)
(-0.21854 0.0112916 0)
(-0.220424 0.00882617 0)
(-0.221498 0.0062322 0)
(-0.221755 0.00352748 0)
(-0.221194 0.000730443 0)
(-0.219814 -0.00213926 0)
(-0.217614 -0.0050606 0)
(-0.214601 -0.00801286 0)
(-0.210778 -0.0109718 0)
(-0.206157 -0.0139119 0)
(-0.200748 -0.0168058 0)
(-0.194568 -0.0196241 0)
(-0.187639 -0.0223355 0)
(-0.179986 -0.0249068 0)
(-0.171642 -0.0273035 0)
(-0.162647 -0.0294901 0)
(-0.153047 -0.031431 0)
(-0.142898 -0.0330912 0)
(-0.132263 -0.0344377 0)
(-0.121215 -0.0354402 0)
(-0.109835 -0.0360728 0)
(-0.0982104 -0.0363152 0)
(-0.0864374 -0.036154 0)
(-0.0746169 -0.0355836 0)
(-0.0628544 -0.034607 0)
(-0.0512573 -0.0332366 0)
(-0.0399327 -0.0314943 0)
(-0.0289861 -0.0294109 0)
(-0.0185181 -0.0270259 0)
(-0.00862299 -0.0243861 0)
(0.000613457 -0.0215443 0)
(0.00911545 -0.0185578 0)
(0.0168186 -0.0154869 0)
(0.0236711 -0.0123924 0)
(0.0296345 -0.00933461 0)
(0.0346843 -0.00637152 0)
(0.0388101 -0.00355699 0)
(0.0420168 -0.000937372 0)
(0.0443252 0.00144579 0)
(0.0457698 0.00355997 0)
(0.0464001 0.00538216 0)
(0.0462789 0.00689907 0)
(0.0454808 0.00810747 0)
(0.04409 0.00901387 0)
(0.0421972 0.00963375 0)
(0.0398964 0.00999026 0)
(0.0372816 0.0101126 0)
(0.0344436 0.010034 0)
(0.0314664 0.00979008 0)
(0.0284256 0.00941661 0)
(0.025386 0.00894799 0)
(0.0224016 0.00841569 0)
(0.0195146 0.00784682 0)
(0.0167571 0.00726285 0)
(0.014152 0.0066783 0)
(0.0117153 0.0060995 0)
(0.00945885 0.00552371 0)
(0.00739285 0.00493899 0)
(0.00552921 0.0043255 0)
(0.00388403 0.00365914 0)
(0.00247987 0.00291835 0)
(0.00133985 0.00209545 0)
(0.000530039 0.00121164 0)
(5.8314e-05 0.000356566 0)
(6.33223e-05 -0.000742849 0)
(0.000557181 -0.00204868 0)
(0.00135573 -0.00312436 0)
(0.00240884 -0.00392283 0)
(0.00359616 -0.00442962 0)
(0.00484185 -0.00465244 0)
(0.00607163 -0.00461683 0)
(0.00722184 -0.00436079 0)
(0.00824079 -0.00392965 0)
(0.00908905 -0.00337126 0)
(0.00973883 -0.00273187 0)
(0.0101727 -0.00205273 0)
(0.0103814 -0.00136747 0)
(0.0103619 -0.000700411 0)
(0.0101144 -6.56582e-05 0)
(0.00963941 0.000532878 0)
(0.00893594 0.00110075 0)
(0.00799874 0.00165153 0)
(0.00681697 0.00220484 0)
(0.00537316 0.00278401 0)
(0.00364294 0.00341367 0)
(0.0015955 0.00411744 0)
(-0.000805451 0.00491614 0)
(-0.00360022 0.00582648 0)
(-0.00683148 0.00686048 0)
(-0.0105425 0.00802542 0)
(-0.0147752 0.00932412 0)
(-0.0195687 0.0107553 0)
(-0.0249568 0.0123137 0)
(-0.0309667 0.0139904 0)
(-0.0376164 0.0157722 0)
(-0.0449126 0.0176415 0)
(-0.0528492 0.019576 0)
(-0.0614053 0.0215486 0)
(-0.0705442 0.0235274 0)
(-0.0802129 0.0254766 0)
(-0.090343 0.0273576 0)
(-0.100852 0.0291296 0)
(-0.111644 0.0307519 0)
(-0.122617 0.0321853 0)
(-0.133662 0.0333936 0)
(-0.144669 0.034345 0)
(-0.155528 0.0350135 0)
(-0.166139 0.0353791 0)
(-0.176407 0.0354288 0)
(-0.186246 0.0351558 0)
(-0.195585 0.0345596 0)
(-0.20436 0.0336447 0)
(-0.212521 0.0324205 0)
(-0.220027 0.0308997 0)
(-0.226846 0.0290976 0)
(-0.232954 0.0270316 0)
(-0.238333 0.0247198 0)
(-0.24297 0.0221813 0)
(-0.246857 0.0194352 0)
(-0.249986 0.0165004 0)
(-0.252354 0.013396 0)
(-0.253957 0.0101406 0)
(-0.254792 0.00675302 0)
(-0.254857 0.00325232 0)
(-0.25415 -0.000342052 0)
(-0.252667 -0.00400952 0)
(-0.250408 -0.00772821 0)
(-0.24737 -0.011475 0)
(-0.243554 -0.0152244 0)
(-0.23896 -0.0189486 0)
(-0.233591 -0.0226172 0)
(-0.227454 -0.0261969 0)
(-0.220559 -0.0296519 0)
(-0.21292 -0.0329434 0)
(-0.204557 -0.0360304 0)
(-0.195498 -0.0388703 0)
(-0.185777 -0.0414192 0)
(-0.175439 -0.0436336 0)
(-0.164535 -0.0454712 0)
(-0.15313 -0.0468926 0)
(-0.141294 -0.047863 0)
(-0.129112 -0.0483534 0)
(-0.116673 -0.0483432 0)
(-0.104079 -0.0478206 0)
(-0.0914338 -0.0467847 0)
(-0.0788484 -0.0452458 0)
(-0.0664348 -0.0432261 0)
(-0.0543043 -0.040759 0)
(-0.0425651 -0.0378889 0)
(-0.0313197 -0.0346698 0)
(-0.0206627 -0.0311634 0)
(-0.010679 -0.0274374 0)
(-0.00144254 -0.0235635 0)
(0.00698466 -0.0196149 0)
(0.0145529 -0.015665 0)
(0.0212253 -0.0117847 0)
(0.0269775 -0.00804119 0)
(0.0317981 -0.00449607 0)
(0.035689 -0.00120447 0)
(0.0386653 0.00178682 0)
(0.0407557 0.00444061 0)
(0.0420023 0.00673025 0)
(0.0424604 0.00864037 0)
(0.0421976 0.0101674 0)
(0.0412918 0.0113192 0)
(0.0398293 0.0121146 0)
(0.0379013 0.0125818 0)
(0.0356013 0.0127565 0)
(0.0330208 0.0126798 0)
(0.0302468 0.0123957 0)
(0.027359 0.0119485 0)
(0.0244272 0.0113808 0)
(0.021511 0.0107308 0)
(0.018659 0.0100303 0)
(0.0159096 0.00930273 0)
(0.0132929 0.00856115 0)
(0.0108323 0.0078068 0)
(0.008548 0.00702873 0)
(0.00645969 0.00620501 0)
(0.00459035 0.00530645 0)
(0.00296976 0.00430352 0)
(0.00162901 0.00317733 0)
(0.000656901 0.00193344 0)
(7.40122e-05 0.000634502 0)
(6.86535e-05 -0.00101696 0)
(0.000601685 -0.0027333 0)
(0.00145508 -0.00409876 0)
(0.00256713 -0.00508217 0)
(0.00380112 -0.00567998 0)
(0.00507174 -0.00591056 0)
(0.00629794 -0.00581101 0)
(0.00741201 -0.00543184 0)
(0.00836018 -0.00483124 0)
(0.00910221 -0.00406954 0)
(0.00960997 -0.00320416 0)
(0.0098655 -0.00228561 0)
(0.00985856 -0.0013543 0)
(0.00958379 -0.000438614 0)
(0.00903772 0.000446052 0)
(0.00821604 0.00129718 0)
(0.00711102 0.00212403 0)
(0.00570952 0.00294572 0)
(0.00399166 0.00378855 0)
(0.00193026 0.00468298 0)
(-0.000508943 0.0056604 0)
(-0.00336625 0.00675022 0)
(-0.00668644 0.00797752 0)
(-0.0105167 0.00936144 0)
(-0.0149045 0.0109144 0)
(-0.019895 0.0126422 0)
(-0.0255291 0.0145437 0)
(-0.0318407 0.0166119 0)
(-0.038854 0.0188334 0)
(-0.0465816 0.0211887 0)
(-0.0550215 0.0236519 0)
(-0.0641553 0.0261908 0)
(-0.0739463 0.0287665 0)
(-0.0843394 0.0313345 0)
(-0.095261 0.0338458 0)
(-0.106621 0.036248 0)
(-0.118314 0.0384881 0)
(-0.130228 0.0405143 0)
(-0.142241 0.0422783 0)
(-0.154233 0.0437376 0)
(-0.166086 0.044857 0)
(-0.177692 0.0456097 0)
(-0.188951 0.0459778 0)
(-0.199778 0.0459521 0)
(-0.2101 0.0455316 0)
(-0.219859 0.0447221 0)
(-0.229009 0.0435354 0)
(-0.237517 0.0419877 0)
(-0.245356 0.0400983 0)
(-0.252512 0.0378887 0)
(-0.258973 0.0353811 0)
(-0.264734 0.0325983 0)
(-0.269792 0.0295625 0)
(-0.274144 0.0262953 0)
(-0.277792 0.0228175 0)
(-0.280735 0.019149 0)
(-0.282971 0.0153088 0)
(-0.284499 0.0113154 0)
(-0.285316 0.00718709 0)
(-0.285417 0.00294223 0)
(-0.284799 -0.00140023 0)
(-0.283454 -0.0058203 0)
(-0.281376 -0.0102964 0)
(-0.278558 -0.014805 0)
(-0.274991 -0.01932 0)
(-0.270668 -0.0238121 0)
(-0.265585 -0.028249 0)
(-0.259736 -0.0325947 0)
(-0.253121 -0.0368091 0)
(-0.245743 -0.0408489 0)
(-0.237608 -0.044667 0)
(-0.22873 -0.0482137 0)
(-0.219131 -0.0514368 0)
(-0.208841 -0.0542837 0)
(-0.197898 -0.0567019 0)
(-0.186355 -0.0586415 0)
(-0.174273 -0.0600567 0)
(-0.161727 -0.060908 0)
(-0.148801 -0.0611648 0)
(-0.135594 -0.0608067 0)
(-0.122211 -0.059826 0)
(-0.108766 -0.0582284 0)
(-0.0953789 -0.0560343 0)
(-0.0821689 -0.0532781 0)
(-0.0692555 -0.0500082 0)
(-0.0567532 -0.046285 0)
(-0.0447688 -0.0421792 0)
(-0.0333989 -0.0377693 0)
(-0.0227282 -0.0331386 0)
(-0.0128283 -0.028373 0)
(-0.00375743 -0.0235583 0)
(0.00443927 -0.018778 0)
(0.0117294 -0.0141118 0)
(0.0180926 -0.00963347 0)
(0.02352 -0.0054102 0)
(0.0280141 -0.00150102 0)
(0.0315884 0.00204415 0)
(0.0342684 0.00518582 0)
(0.0360912 0.00789597 0)
(0.0371063 0.0101589 0)
(0.0373746 0.0119719 0)
(0.036968 0.0133451 0)
(0.0359671 0.0143007 0)
(0.0344589 0.0148718 0)
(0.0325338 0.0151003 0)
(0.0302822 0.015034 0)
(0.0277911 0.0147241 0)
(0.0251416 0.014222 0)
(0.0224064 0.0135759 0)
(0.0196489 0.0128282 0)
(0.0169225 0.012012 0)
(0.0142713 0.0111484 0)
(0.0117322 0.0102445 0)
(0.00933666 0.00929218 0)
(0.00711469 0.00826889 0)
(0.00509838 0.00714079 0)
(0.00332687 0.0058692 0)
(0.00184096 0.00442036 0)
(0.000749702 0.00277756 0)
(8.539e-05 0.00096628 0)
(7.25662e-05 -0.00130943 0)
(0.000632554 -0.00345781 0)
(0.00151929 -0.00511886 0)
(0.00265982 -0.00627827 0)
(0.00390279 -0.00694651 0)
(0.00515386 -0.0071561 0)
(0.00632574 -0.00695879 0)
(0.00734735 -0.00642004 0)
(0.0081636 -0.00561259 0)
(0.00873419 -0.00461004 0)
(0.0090313 -0.00348113 0)
(0.00903692 -0.00228501 0)
(0.00873974 -0.00106784 0)
(0.0081318 0.000139379 0)
(0.00720535 0.00132164 0)
(0.00594986 0.00247948 0)
(0.00434966 0.00362745 0)
(0.00238225 0.00479145 0)
(1.74556e-05 0.00600527 0)
(-0.00278249 0.00730668 0)
(-0.00606191 0.00873339 0)
(-0.00986987 0.0103194 0)
(-0.0142578 0.0120923 0)
(-0.0192766 0.014071 0)
(-0.0249741 0.0162654 0)
(-0.0313916 0.0186757 0)
(-0.0385611 0.021293 0)
(-0.0465026 0.0240994 0)
(-0.0552207 0.0270679 0)
(-0.0647023 0.030163 0)
(-0.0749147 0.0333407 0)
(-0.0858038 0.036549 0)
(-0.0972948 0.0397291 0)
(-0.109293 0.0428176 0)
(-0.121688 0.0457483 0)
(-0.134356 0.0484558 0)
(-0.147167 0.0508783 0)
(-0.159989 0.0529604 0)
(-0.172697 0.0546555 0)
(-0.185172 0.0559278 0)
(-0.19731 0.0567523 0)
(-0.209021 0.0571155 0)
(-0.220232 0.0570143 0)
(-0.230886 0.0564545 0)
(-0.24094 0.0554495 0)
(-0.250365 0.0540182 0)
(-0.25914 0.0521836 0)
(-0.267256 0.0499708 0)
(-0.274707 0.0474064 0)
(-0.281494 0.0445167 0)
(-0.287617 0.0413277 0)
(-0.29308 0.0378641 0)
(-0.297888 0.034149 0)
(-0.302044 0.0302041 0)
(-0.30555 0.0260497 0)
(-0.308408 0.0217046 0)
(-0.310617 0.0171867 0)
(-0.312176 0.0125129 0)
(-0.313082 0.00770001 0)
(-0.313329 0.00276496 0)
(-0.31291 -0.00227475 0)
(-0.311817 -0.00740037 0)
(-0.31004 -0.0125914 0)
(-0.307568 -0.0178251 0)
(-0.304387 -0.0230755 0)
(-0.300485 -0.0283133 0)
(-0.295847 -0.0335053 0)
(-0.290462 -0.0386138 0)
(-0.284316 -0.0435964 0)
(-0.277401 -0.0484057 0)
(-0.26971 -0.05299 0)
(-0.261241 -0.057293 0)
(-0.252 -0.061255 0)
(-0.241999 -0.0648141 0)
(-0.231262 -0.0679072 0)
(-0.219821 -0.0704725 0)
(-0.207726 -0.0724515 0)
(-0.195036 -0.0737917 0)
(-0.181826 -0.0744494 0)
(-0.168188 -0.0743921 0)
(-0.154225 -0.0736014 0)
(-0.140053 -0.0720748 0)
(-0.125797 -0.0698271 0)
(-0.111589 -0.066891 0)
(-0.0975621 -0.0633165 0)
(-0.0838481 -0.0591698 0)
(-0.0705719 -0.0545303 0)
(-0.0578484 -0.0494879 0)
(-0.0457792 -0.0441397 0)
(-0.0344506 -0.0385859 0)
(-0.0239326 -0.0329268 0)
(-0.0142792 -0.0272601 0)
(-0.00552936 -0.0216782 0)
(0.00229167 -0.0162669 0)
(0.00917046 -0.0111043 0)
(0.0151041 -0.0062599 0)
(0.0200994 -0.00179379 0)
(0.0241722 0.00224391 0)
(0.0273481 0.0058142 0)
(0.0296623 0.00889006 0)
(0.0311609 0.0114575 0)
(0.0319002 0.0135161 0)
(0.031947 0.0150792 0)
(0.0313767 0.016173 0)
(0.030272 0.0168357 0)
(0.0287193 0.0171145 0)
(0.0268064 0.0170632 0)
(0.024619 0.0167384 0)
(0.022238 0.0161962 0)
(0.0197373 0.0154878 0)
(0.0171827 0.0146553 0)
(0.0146315 0.0137285 0)
(0.0121334 0.0127212 0)
(0.00973208 0.0116294 0)
(0.00746908 0.0104308 0)
(0.00538715 0.00908755 0)
(0.00353601 0.00755115 0)
(0.00196687 0.00577088 0)
(0.000804897 0.00370414 0)
(9.20757e-05 0.00133416 0)
(7.54764e-05 -0.00161492 0)
(0.0006525 -0.00420656 0)
(0.00155316 -0.00615956 0)
(0.00269327 -0.00747774 0)
(0.00390834 -0.00818846 0)
(0.00509581 -0.00834169 0)
(0.00616312 -0.00800694 0)
(0.00703669 -0.00726711 0)
(0.00766102 -0.00621112 0)
(0.00799643 -0.0049266 0)
(0.0080159 -0.00349342 0)
(0.00770149 -0.00197852 0)
(0.00704055 -0.000432303 0)
(0.00602196 0.00111344 0)
(0.00463261 0.00264606 0)
(0.00285461 0.00417111 0)
(0.000663119 0.00571004 0)
(-0.00197481 0.0072966 0)
(-0.00510025 0.00897244 0)
(-0.00876138 0.0107821 0)
(-0.0130114 0.0127683 0)
(-0.0179058 0.0149672 0)
(-0.0234988 0.0174056 0)
(-0.0298398 0.0200985 0)
(-0.0369701 0.0230485 0)
(-0.0449188 0.0262451 0)
(-0.0536998 0.0296658 0)
(-0.0633086 0.0332758 0)
(-0.0737195 0.0370288 0)
(-0.0848839 0.0408679 0)
(-0.0967296 0.0447265 0)
(-0.109162 0.0485309 0)
(-0.122067 0.0522026 0)
(-0.135314 0.0556618 0)
(-0.148766 0.0588317 0)
(-0.16228 0.0616419 0)
(-0.175718 0.0640319 0)
(-0.188954 0.0659536 0)
(-0.201873 0.0673722 0)
(-0.214379 0.0682672 0)
(-0.226396 0.0686309 0)
(-0.237862 0.0684671 0)
(-0.248737 0.0677892 0)
(-0.25899 0.0666176 0)
(-0.268605 0.064978 0)
(-0.277574 0.0628992 0)
(-0.285896 0.0604115 0)
(-0.293575 0.0575455 0)
(-0.300616 0.0543308 0)
(-0.307026 0.0507959 0)
(-0.312814 0.0469675 0)
(-0.317987 0.0428702 0)
(-0.322552 0.0385266 0)
(-0.326516 0.0339574 0)
(-0.329883 0.0291816 0)
(-0.332657 0.0242164 0)
(-0.33484 0.0190781 0)
(-0.336432 0.0137819 0)
(-0.337432 0.00834289 0)
(-0.337835 0.00277591 0)
(-0.337637 -0.00290341 0)
(-0.336827 -0.0086783 0)
(-0.335398 -0.0145302 0)
(-0.333334 -0.020438 0)
(-0.330621 -0.0263776 0)
(-0.327241 -0.032321 0)
(-0.323175 -0.0382356 0)
(-0.318401 -0.044084 0)
(-0.312897 -0.0498229 0)
(-0.306643 -0.0554034 0)
(-0.299616 -0.0607706 0)
(-0.291799 -0.0658635 0)
(-0.283179 -0.070616 0)
(-0.273748 -0.0749579 0)
(-0.263508 -0.0788157 0)
(-0.25247 -0.0821155 0)
(-0.240661 -0.0847847 0)
(-0.22812 -0.0867554 0)
(-0.214907 -0.0879676 0)
(-0.201097 -0.0883724 0)
(-0.186785 -0.0879359 0)
(-0.172082 -0.0866419 0)
(-0.157117 -0.0844943 0)
(-0.14203 -0.0815189 0)
(-0.126971 -0.0777632 0)
(-0.11209 -0.0732957 0)
(-0.0975376 -0.0682031 0)
(-0.0834547 -0.0625871 0)
(-0.0699689 -0.0565598 0)
(-0.0571907 -0.0502388 0)
(-0.045211 -0.0437429 0)
(-0.0340998 -0.0371873 0)
(-0.0239071 -0.0306811 0)
(-0.0146647 -0.0243243 0)
(-0.00638919 -0.0182073 0)
(0.000915708 -0.0124097 0)
(0.00725621 -0.00700062 0)
(0.0126468 -0.00203829 0)
(0.0171093 0.00242983 0)
(0.0206727 0.00636789 0)
(0.0233738 0.00975235 0)
(0.0252578 0.0125729 0)
(0.026379 0.0148332 0)
(0.0268009 0.0165508 0)
(0.0265952 0.0177569 0)
(0.0258403 0.0184943 0)
(0.0246193 0.0188154 0)
(0.0230169 0.0187784 0)
(0.0211168 0.0184434 0)
(0.0189989 0.0178679 0)
(0.0167376 0.0171017 0)
(0.0144007 0.016182 0)
(0.0120493 0.0151294 0)
(0.00973899 0.013944 0)
(0.00752278 0.0126048 0)
(0.00545467 0.0110701 0)
(0.00359519 0.00928186 0)
(0.00200563 0.00717188 0)
(0.000822214 0.00467092 0)
(9.4082e-05 0.00171956 0)
(7.75208e-05 -0.00192907 0)
(0.000662358 -0.00496536 0)
(0.00155795 -0.00719687 0)
(0.00266862 -0.00864767 0)
(0.00381828 -0.00936506 0)
(0.00489732 -0.00941983 0)
(0.00580918 -0.00890236 0)
(0.00647903 -0.00791535 0)
(0.00685187 -0.00656536 0)
(0.00688937 -0.00495447 0)
(0.00656553 -0.0031732 0)
(0.00586235 -0.00129502 0)
(0.00476529 0.000627296 0)
(0.00325908 0.00256334 0)
(0.00132422 0.00450507 0)
(-0.00106575 0.00646501 0)
(-0.0039458 0.00847286 0)
(-0.00735971 0.0105709 0)
(-0.011359 0.0128081 0)
(-0.0160007 0.0152344 0)
(-0.0213441 0.0178945 0)
(-0.0274465 0.0208231 0)
(-0.0343589 0.0240416 0)
(-0.0421219 0.0275554 0)
(-0.0507613 0.0313539 0)
(-0.0602842 0.0354097 0)
(-0.070676 0.03968 0)
(-0.0818978 0.0441074 0)
(-0.0938846 0.0486211 0)
(-0.106546 0.0531397 0)
(-0.11977 0.0575736 0)
(-0.133422 0.0618295 0)
(-0.147358 0.0658147 0)
(-0.161426 0.0694419 0)
(-0.175477 0.0726339 0)
(-0.189371 0.0753268 0)
(-0.202982 0.0774725 0)
(-0.216205 0.0790397 0)
(-0.228952 0.0800127 0)
(-0.241159 0.0803905 0)
(-0.252777 0.0801841 0)
(-0.263775 0.0794138 0)
(-0.274137 0.0781067 0)
(-0.283854 0.0762944 0)
(-0.292926 0.0740105 0)
(-0.301358 0.0712897 0)
(-0.309159 0.0681661 0)
(-0.316339 0.0646724 0)
(-0.32291 0.0608395 0)
(-0.328883 0.0566964 0)
(-0.33427 0.0522694 0)
(-0.339084 0.0475826 0)
(-0.343334 0.0426579 0)
(-0.347031 0.0375149 0)
(-0.350184 0.0321714 0)
(-0.352802 0.0266432 0)