/*--------------------------------*- C++ -*----------------------------------*\
| =========                 |                                                 |
| \\      /  F ield         | OpenFOAM: The Open Source CFD Toolbox           |
|  \\    /   O peration     | Version:  2406                                  |
|   \\  /    A nd           | Website:  www.openfoam.com                      |
|    \\/     M anipulation  |                                                 |
\*---------------------------------------------------------------------------*/
FoamFile
{
    version     2.0;
    format      ascii;
    arch        "LSB;label=32;scalar=64";
    class       volVectorField;
    location    "36.35";
    object      U;
}
// * * * * * * * * * * * * * * * * * * * * * * * * * * * * * * * * * * * * * //

dimensions      [0 1 -1 0 0 0 0];

internalField   nonuniform List<vector> 
14400
(
(-6.61578e-06 6.52303e-06 0)
(1.37599e-05 -1.06259e-05 0)
(0.000115525 -3.28472e-05 0)
(0.000294438 -5.08576e-05 0)
(0.000531745 -6.32833e-05 0)
(0.00080615 -6.99454e-05 0)
(0.00109642 -7.14214e-05 0)
(0.00138379 -6.85741e-05 0)
(0.00165311 -6.24528e-05 0)
(0.00189332 -5.41714e-05 0)
(0.00209766 -4.48171e-05 0)
(0.00226343 -3.53621e-05 0)
(0.00239142 -2.65971e-05 0)
(0.00248516 -1.90896e-05 0)
(0.00255002 -1.31649e-05 0)
(0.00259227 -8.90875e-06 0)
(0.00261831 -6.2489e-06 0)
(0.00263371 -5.02917e-06 0)
(0.00264264 -4.84211e-06 0)
(0.00264768 -5.20883e-06 0)
(0.00264934 -5.5581e-06 0)
(0.00264663 -5.11557e-06 0)
(0.00263699 -3.77538e-06 0)
(0.00261611 -1.36185e-06 0)
(0.00257888 2.30563e-06 0)
(0.00251965 7.3151e-06 0)
(0.00243245 1.36965e-05 0)
(0.00231123 2.14544e-05 0)
(0.00214988 3.05925e-05 0)
(0.00194226 4.11292e-05 0)
(0.00168212 5.31027e-05 0)
(0.00136309 6.6565e-05 0)
(0.000978647 8.15698e-05 0)
(0.000522164 9.81579e-05 0)
(-1.29879e-05 0.000116344 0)
(-0.000633288 0.000136104 0)
(-0.00134487 0.000157372 0)
(-0.00215332 0.000180027 0)
(-0.00306341 0.0002039 0)
(-0.00407888 0.000228763 0)
(-0.00520219 0.000254335 0)
(-0.00643425 0.000280282 0)
(-0.00777426 0.000306221 0)
(-0.00921945 0.000331722 0)
(-0.0107649 0.000356316 0)
(-0.0124036 0.000379501 0)
(-0.0141261 0.000400755 0)
(-0.0159205 0.000419536 0)
(-0.0177729 0.000435299 0)
(-0.019667 0.000447496 0)
(-0.0215842 0.000455591 0)
(-0.0235042 0.000459063 0)
(-0.0254048 0.000457413 0)
(-0.0272624 0.000450172 0)
(-0.0290519 0.00043691 0)
(-0.0307475 0.00041724 0)
(-0.0323225 0.000390832 0)
(-0.03375 0.000357421 0)
(-0.0350033 0.00031683 0)
(-0.0360561 0.000268899 0)
(-0.0368834 0.000213694 0)
(-0.037462 0.000152562 0)
(-0.0377687 8.68269e-05 0)
(-0.0377818 1.44693e-05 0)
(-0.0374871 -6.52009e-05 0)
(-0.0368739 -0.000149104 0)
(-0.0359325 -0.000235579 0)
(-0.03466 -0.000323363 0)
(-0.033059 -0.000410802 0)
(-0.0311385 -0.000496042 0)
(-0.0289138 -0.000577062 0)
(-0.0264073 -0.000651738 0)
(-0.0236481 -0.000717921 0)
(-0.0206722 -0.000773533 0)
(-0.0175219 -0.000816667 0)
(-0.0142448 -0.000845691 0)
(-0.0108932 -0.00085936 0)
(-0.00752262 -0.000856901 0)
(-0.00419017 -0.000838094 0)
(-0.000952849 -0.000803317 0)
(0.00213429 -0.000753563 0)
(0.00502003 -0.000690408 0)
(0.00765875 -0.000615953 0)
(0.0100121 -0.000532716 0)
(0.01205 -0.000443502 0)
(0.0137522 -0.000351241 0)
(0.0151078 -0.000258836 0)
(0.0161163 -0.000168989 0)
(0.0167863 -8.40148e-05 0)
(0.0171358 -6.04466e-06 0)
(0.0171897 6.19836e-05 0)
(0.0169757 0.000118747 0)
(0.0165293 0.000166743 0)
(0.0158901 0.000205932 0)
(0.0150959 0.000235139 0)
(0.0141835 0.000254865 0)
(0.0131886 0.000266137 0)
(0.0121441 0.000270042 0)
(0.0110789 0.000267734 0)
(0.0100181 0.000260383 0)
(0.00898209 0.000249119 0)
(0.00798711 0.000234993 0)
(0.00704517 0.00021895 0)
(0.00616454 0.000201813 0)
(0.00535011 0.00018428 0)
(0.00460393 0.000166926 0)
(0.00392568 0.000150211 0)
(0.00331312 0.000134486 0)
(0.00276257 0.00012 0)
(0.00226941 0.000106895 0)
(0.00182851 9.51802e-05 0)
(0.00143494 8.47047e-05 0)
(0.00108465 7.51128e-05 0)
(0.000775363 6.58084e-05 0)
(0.000507481 5.59426e-05 0)
(0.000284822 4.45058e-05 0)
(0.000114772 3.05901e-05 0)
(6.80639e-06 1.39126e-05 0)
(-3.38165e-05 -3.46169e-06 0)
(-1.35522e-05 -1.35749e-05 0)
(9.58566e-06 -1.29649e-05 0)
(0.000143922 -0.000147916 0)
(0.000450518 -0.000312494 0)
(0.000923329 -0.000449977 0)
(0.00151947 -0.000546693 0)
(0.00219553 -0.000599721 0)
(0.00290541 -0.000611803 0)
(0.00360704 -0.000588849 0)
(0.00426534 -0.000538594 0)
(0.00485387 -0.00046958 0)
(0.00535542 -0.000390322 0)
(0.00576171 -0.000308587 0)
(0.00607232 -0.000230821 0)
(0.00629315 -0.000161769 0)
(0.00643441 -0.000104304 0)
(0.00650857 -5.94255e-05 0)
(0.00652837 -2.6478e-05 0)
(0.00650504 -3.47654e-06 0)
(0.0064469 1.27483e-05 0)
(0.0063583 2.6003e-05 0)
(0.00623932 4.02882e-05 0)
(0.00608535 5.95548e-05 0)
(0.00588773 8.67823e-05 0)
(0.00563478 0.000124334 0)
(0.00531226 0.000173845 0)
(0.0049043 0.000236269 0)
(0.00439412 0.000312053 0)
(0.00376453 0.00040136 0)
(0.00299822 0.000504247 0)
(0.00207788 0.000620792 0)
(0.000986316 0.00075112 0)
(-0.000293524 0.000895359 0)
(-0.00177831 0.00105354 0)
(-0.00348404 0.0012255 0)
(-0.00542562 0.00141072 0)
(-0.0076163 0.00160831 0)
(-0.0100671 0.00181689 0)
(-0.012786 0.00203457 0)
(-0.0157776 0.00225894 0)
(-0.0190421 0.00248708 0)
(-0.0225751 0.00271558 0)
(-0.026367 0.00294058 0)
(-0.0304024 0.00315783 0)
(-0.0346603 0.00336281 0)
(-0.0391139 0.00355079 0)
(-0.0437306 0.00371697 0)
(-0.0484725 0.00385655 0)
(-0.0532966 0.0039649 0)
(-0.0581557 0.00403761 0)
(-0.0629989 0.00407063 0)
(-0.0677723 0.00406035 0)
(-0.0724203 0.00400364 0)
(-0.0768857 0.00389795 0)
(-0.0811112 0.00374132 0)
(-0.08504 0.00353246 0)
(-0.0886165 0.00327072 0)
(-0.0917872 0.00295616 0)
(-0.0945014 0.00258956 0)
(-0.0967116 0.0021725 0)
(-0.0983749 0.00170732 0)
(-0.0994521 0.00119723 0)
(-0.0999099 0.000647225 0)
(-0.0997229 6.38774e-05 0)
(-0.0988699 -0.000549051 0)
(-0.0973344 -0.00118613 0)
(-0.0951119 -0.00183773 0)
(-0.0922049 -0.00249455 0)
(-0.0886248 -0.00314636 0)
(-0.084392 -0.00378216 0)
(-0.0795366 -0.00439025 0)
(-0.0740989 -0.0049585 0)
(-0.068129 -0.00547458 0)
(-0.0616872 -0.00592636 0)
(-0.0548432 -0.00630231 0)
(-0.0476756 -0.00659195 0)
(-0.0402712 -0.00678631 0)
(-0.032723 -0.00687847 0)
(-0.0251295 -0.00686391 0)
(-0.0175918 -0.00674099 0)
(-0.0102121 -0.00651116 0)
(-0.00309104 -0.00617911 0)
(0.00367515 -0.00575279 0)
(0.00999683 -0.00524321 0)
(0.0157937 -0.00466407 0)
(0.020997 -0.0040313 0)
(0.0255518 -0.00336234 0)
(0.0294182 -0.00267546 0)
(0.0325728 -0.00198895 0)
(0.0350088 -0.00132037 0)
(0.0367357 -0.000685905 0)
(0.0377792 -0.000100386 0)
(0.0381805 0.000424824 0)
(0.0379944 0.000884529 0)
(0.0372826 0.00127332 0)
(0.0361153 0.00158764 0)
(0.0345685 0.00182809 0)
(0.0327194 0.00199805 0)
(0.0306434 0.00210294 0)
(0.0284127 0.00214973 0)
(0.0260934 0.00214641 0)
(0.023744 0.00210147 0)
(0.0214149 0.00202344 0)
(0.0191472 0.00192053 0)
(0.0169733 0.0018003 0)
(0.0149167 0.00166951 0)
(0.0129934 0.00153397 0)
(0.0112122 0.00139858 0)
(0.00957613 0.00126721 0)
(0.00808325 0.0011428 0)
(0.00672821 0.00102717 0)
(0.00550348 0.000920972 0)
(0.0044009 0.000823407 0)
(0.00341353 0.000732015 0)
(0.00253749 0.000642517 0)
(0.00177385 0.000548951 0)
(0.00112986 0.000444513 0)
(0.000618814 0.00032365 0)
(0.000255895 0.000186608 0)
(5.33834e-05 4.7729e-05 0)
(-2.31657e-06 -3.27939e-05 0)
(3.02409e-05 -0.000109416 0)
(0.000299594 -0.000450771 0)
(0.000797617 -0.000813337 0)
(0.00151307 -0.00111453 0)
(0.00238215 -0.00132693 0)
(0.00334968 -0.00144276 0)
(0.00435536 -0.0014664 0)
(0.00534334 -0.00140979 0)
(0.00626631 -0.00128945 0)
(0.00708789 -0.00112415 0)
(0.00778345 -0.000932869 0)
(0.00833994 -0.000733133 0)
(0.00875457 -0.000539631 0)
(0.00903283 -0.000363331 0)
(0.00918595 -0.000210993 0)
(0.00922815 -8.51177e-05 0)
(0.00917398 1.57629e-05 0)
(0.00903594 9.64259e-05 0)
(0.00882247 0.00016413 0)
(0.00853654 0.000227662 0)
(0.00817501 0.000296261 0)
(0.0077285 0.000378591 0)
(0.00718198 0.000482354 0)
(0.00651583 0.000613502 0)
(0.00570691 0.000776166 0)
(0.00472971 0.000972849 0)
(0.00355743 0.0012048 0)
(0.00216274 0.00147246 0)
(0.000518335 0.00177582 0)
(-0.00140261 0.00211468 0)
(-0.00362611 0.00248868 0)
(-0.00617686 0.00289713 0)
(-0.0090777 0.00333885 0)
(-0.0123488 0.00381185 0)
(-0.0160068 0.0043131 0)
(-0.0200637 0.00483839 0)
(-0.0245261 0.00538217 0)
(-0.0293936 0.0059376 0)
(-0.0346588 0.00649652 0)
(-0.0403055 0.00704961 0)
(-0.0463093 0.00758656 0)
(-0.0526365 0.00809631 0)
(-0.0592448 0.00856731 0)
(-0.0660834 0.00898786 0)
(-0.073094 0.00934647 0)
(-0.0802117 0.00963212 0)
(-0.0873662 0.00983468 0)
(-0.0944835 0.0099451 0)
(-0.101487 0.00995569 0)
(-0.1083 0.00986025 0)
(-0.114844 0.00965418 0)
(-0.121047 0.00933456 0)
(-0.126835 0.00890007 0)
(-0.13214 0.00835101 0)
(-0.136901 0.00768915 0)
(-0.141059 0.00691771 0)
(-0.144562 0.00604127 0)
(-0.147364 0.00506564 0)
(-0.149426 0.00399791 0)
(-0.150714 0.00284641 0)
(-0.151202 0.00162063 0)
(-0.150869 0.000330744 0)
(-0.149701 -0.00101147 0)
(-0.147695 -0.00239072 0)
(-0.144849 -0.00379304 0)
(-0.141171 -0.00520315 0)
(-0.136676 -0.00660369 0)
(-0.131389 -0.00797581 0)
(-0.125342 -0.00929958 0)
(-0.118575 -0.0105542 0)
(-0.111137 -0.0117182 0)
(-0.103087 -0.0127702 0)
(-0.0944911 -0.0136889 0)
(-0.0854267 -0.0144542 0)
(-0.075978 -0.0150477 0)
(-0.0662375 -0.0154533 0)
(-0.0563046 -0.0156583 0)
(-0.0462844 -0.0156538 0)
(-0.0362861 -0.0154356 0)
(-0.0264215 -0.0150047 0)
(-0.0168024 -0.0143674 0)
(-0.00753854 -0.0135359 0)
(0.0012645 -0.0125277 0)
(0.00950823 -0.0113655 0)
(0.0171034 -0.0100763 0)
(0.0239722 -0.00869104 0)
(0.0300507 -0.00724286 0)
(0.0352899 -0.0057664 0)
(0.0396577 -0.00429634 0)
(0.0431395 -0.00286605 0)
(0.0457388 -0.0015059 0)
(0.0474783 -0.000242685 0)
(0.0483966 0.00090033 0)
(0.0485462 0.0019046 0)
(0.0479955 0.00275922 0)
(0.0468246 0.00345847 0)
(0.0451212 0.00400215 0)
(0.0429778 0.00439537 0)
(0.0404886 0.00464786 0)
(0.0377458 0.00477301 0)
(0.0348366 0.00478685 0)
(0.0318408 0.00470698 0)
(0.0288285 0.00455154 0)
(0.0258593 0.00433832 0)
(0.0229813 0.00408406 0)
(0.0202313 0.00380392 0)
(0.0176356 0.00351113 0)
(0.0152107 0.00321673 0)
(0.012965 0.0029294 0)
(0.0109002 0.00265515 0)
(0.0090134 0.00239698 0)
(0.00729939 0.00215447 0)
(0.00575288 0.00192332 0)
(0.00437117 0.00169528 0)
(0.00315647 0.00145863 0)
(0.00211738 0.00120021 0)
(0.00126882 0.000909632 0)
(0.000626193 0.000587456 0)
(0.000213593 0.000258448 0)
(1.80756e-05 1.6247e-05 0)
(4.67428e-05 -0.000277951 0)
(0.000430649 -0.000913964 0)
(0.00109141 -0.00152735 0)
(0.00200568 -0.00202668 0)
(0.00308635 -0.00237442 0)
(0.00426797 -0.00255899 0)
(0.00547998 -0.00258715 0)
(0.00665758 -0.00247817 0)
(0.00774591 -0.00225923 0)
(0.00870246 -0.00196148 0)
(0.00949797 -0.00161665 0)
(0.0101161 -0.00125411 0)
(0.0105518 -0.00089861 0)
(0.0108093 -0.000568649 0)
(0.0108988 -0.000275649 0)
(0.0108336 -2.37804e-05 0)
(0.010627 0.00018958 0)
(0.0102895 0.000372829 0)
(0.00982639 0.000538666 0)
(0.00923636 0.000702439 0)
(0.00851066 0.000880369 0)
(0.00763313 0.00108788 0)
(0.00658098 0.00133833 0)
(0.00532597 0.0016422 0)
(0.00383588 0.00200679 0)
(0.00207601 0.0024365 0)
(1.04433e-05 0.00293343 0)
(-0.00239678 0.00349803 0)
(-0.0051808 0.00412965 0)
(-0.00837508 0.00482686 0)
(-0.0120105 0.00558742 0)
(-0.0161144 0.00640798 0)
(-0.0207094 0.00728373 0)
(-0.0258118 0.00820796 0)
(-0.0314307 0.00917169 0)
(-0.037566 0.0101635 0)
(-0.0442075 0.0111696 0)
(-0.051334 0.0121738 0)
(-0.0589122 0.0131578 0)
(-0.0668974 0.014102 0)
(-0.0752327 0.0149857 0)
(-0.0838511 0.0157877 0)
(-0.092676 0.0164873 0)
(-0.101624 0.0170648 0)
(-0.110604 0.0175025 0)
(-0.119526 0.0177846 0)
(-0.128297 0.0178983 0)
(-0.136823 0.0178338 0)
(-0.145019 0.0175843 0)
(-0.152801 0.0171463 0)
(-0.160091 0.0165191 0)
(-0.16682 0.0157051 0)
(-0.172927 0.0147086 0)
(-0.178356 0.0135365 0)
(-0.183059 0.0121972 0)
(-0.186998 0.0107007 0)
(-0.19014 0.00905832 0)
(-0.192456 0.00728256 0)
(-0.193927 0.00538693 0)
(-0.194537 0.00338607 0)
(-0.194276 0.00129571 0)
(-0.193138 -0.000867848 0)
(-0.191121 -0.00308764 0)
(-0.188231 -0.00534315 0)
(-0.184476 -0.00761284 0)
(-0.17987 -0.00987442 0)
(-0.17443 -0.0121039 0)
(-0.168182 -0.0142756 0)
(-0.161157 -0.0163619 0)
(-0.153392 -0.0183344 0)
(-0.144931 -0.0201633 0)
(-0.135828 -0.0218186 0)
(-0.126143 -0.0232705 0)
(-0.115946 -0.0244904 0)
(-0.105313 -0.0254514 0)
(-0.0943296 -0.0261299 0)
(-0.0830902 -0.0265062 0)
(-0.0716944 -0.026566 0)
(-0.0602477 -0.026301 0)
(-0.04886 -0.0257099 0)
(-0.0376433 -0.0247989 0)
(-0.0267096 -0.0235822 0)
(-0.0161693 -0.0220818 0)
(-0.00612808 -0.0203273 0)
(0.0033147 -0.0183548 0)
(0.0120685 -0.0162065 0)
(0.0200536 -0.0139289 0)
(0.0272028 -0.0115715 0)
(0.0334629 -0.00918508 0)
(0.0387961 -0.00682028 0)
(0.0431812 -0.00452552 0)
(0.0466138 -0.00234613 0)
(0.0491058 -0.000323142 0)
(0.0506873 0.00150952 0)
(0.0514058 0.00312593 0)
(0.0513228 0.00450763 0)
(0.0505137 0.00564452 0)
(0.0490653 0.00653514 0)
(0.0470725 0.00718619 0)
(0.0446347 0.00761168 0)
(0.0418523 0.00783164 0)
(0.0388232 0.0078707 0)
(0.035639 0.0077564 0)
(0.0323828 0.00751759 0)
(0.0291269 0.00718296 0)
(0.0259316 0.00677976 0)
(0.0228446 0.00633281 0)
(0.0199018 0.00586371 0)
(0.0171279 0.00539016 0)
(0.0145381 0.00492531 0)
(0.0121401 0.00447706 0)
(0.0099367 0.00404727 0)
(0.0079286 0.0036312 0)
(0.00611711 0.00321742 0)
(0.00450716 0.00278884 0)
(0.0031093 0.00232582 0)
(0.00194056 0.00181225 0)
(0.0010183 0.00124641 0)
(0.000386301 0.000656726 0)
(4.00468e-05 0.000147959 0)
(5.91052e-05 -0.000502949 0)
(0.000532692 -0.00150284 0)
(0.00132405 -0.002403 0)
(0.00239544 -0.00311537 0)
(0.00363617 -0.00359936 0)
(0.00496959 -0.00384339 0)
(0.00631589 -0.00385888 0)
(0.00760346 -0.00367402 0)
(0.00877244 -0.00332801 0)
(0.00977684 -0.00286557 0)
(0.010585 -0.00233213 0)
(0.0111787 -0.00176961 0)
(0.0115515 -0.00121321 0)
(0.0117061 -0.000689082 0)
(0.0116506 -0.000213078 0)
(0.0113957 0.000209482 0)
(0.0109512 0.00058314 0)
(0.0103228 0.000920875 0)
(0.00950984 0.00124196 0)
(0.00850402 0.00156944 0)
(0.00728855 0.00192751 0)
(0.00583854 0.00233907 0)
(0.00412204 0.00282375 0)
(0.00210162 0.00339678 0)
(-0.000263817 0.00406857 0)
(-0.00301721 0.00484506 0)
(-0.00620168 0.00572849 0)
(-0.00985904 0.00671825 0)
(-0.0140284 0.00781154 0)
(-0.0187447 0.00900363 0)
(-0.0240372 0.0102877 0)
(-0.0299278 0.0116544 0)
(-0.0364291 0.0130914 0)
(-0.0435428 0.0145827 0)
(-0.0512578 0.0161087 0)
(-0.059549 0.0176458 0)
(-0.0683764 0.0191672 0)
(-0.0776855 0.0206433 0)
(-0.0874071 0.0220428 0)
(-0.0974594 0.0233333 0)
(-0.10775 0.0244832 0)
(-0.118178 0.0254624 0)
(-0.128639 0.0262436 0)
(-0.139026 0.0268036 0)
(-0.149233 0.0271233 0)
(-0.15916 0.0271889 0)
(-0.168713 0.0269916 0)
(-0.177807 0.0265275 0)
(-0.186365 0.0257974 0)
(-0.194321 0.024806 0)
(-0.201619 0.0235615 0)
(-0.208212 0.0220749 0)
(-0.214063 0.0203591 0)
(-0.21914 0.0184287 0)
(-0.223419 0.0162995 0)
(-0.226884 0.0139879 0)
(-0.229519 0.0115109 0)
(-0.231315 0.00888583 0)
(-0.232266 0.00613064 0)
(-0.232367 0.00326368 0)
(-0.231617 0.000304026 0)
(-0.230015 -0.00272812 0)
(-0.227563 -0.00581137 0)
(-0.224266 -0.00892387 0)
(-0.22013 -0.0120406 0)
(-0.215165 -0.015135 0)
(-0.209381 -0.0181783 0)
(-0.202798 -0.0211398 0)
(-0.195435 -0.0239864 0)
(-0.18732 -0.0266829 0)
(-0.178487 -0.0291928 0)
(-0.168976 -0.0314782 0)
(-0.158837 -0.0335011 0)
(-0.148128 -0.0352243 0)
(-0.136915 -0.0366123 0)
(-0.125275 -0.037633 0)
(-0.113292 -0.0382589 0)
(-0.10106 -0.0384685 0)
(-0.0886811 -0.0382477 0)
(-0.0762608 -0.037591 0)
(-0.0639109 -0.0365025 0)
(-0.0517447 -0.0349962 0)
(-0.0398752 -0.0330962 0)
(-0.0284131 -0.0308365 0)
(-0.0174641 -0.0282601 0)
(-0.00712666 -0.0254176 0)
(0.00250977 -0.0223662 0)
(0.0113664 -0.0191674 0)
(0.0193767 -0.0158856 0)
(0.026487 -0.012586 0)
(0.0326576 -0.00933278 0)
(0.0378635 -0.00618736 0)
(0.0420943 -0.00320648 0)
(0.0453557 -0.00044011 0)
(0.0476692 0.00206834 0)
(0.049072 0.00428466 0)
(0.0496164 0.00618469 0)
(0.0493697 0.00775485 0)
(0.0484116 0.00899243 0)
(0.0468322 0.00990533 0)
(0.0447291 0.0105112 0)
(0.0422033 0.0108359 0)
(0.039356 0.010912 0)
(0.0362844 0.0107763 0)
(0.0330788 0.0104679 0)
(0.0298196 0.0100258 0)
(0.0265757 0.00948743 0)
(0.0234036 0.00888681 0)
(0.0203472 0.00825301 0)
(0.0174393 0.007609 0)
(0.0147023 0.00697025 0)
(0.0121516 0.00634355 0)
(0.00979737 0.00572611 0)
(0.00764832 0.00510541 0)
(0.0057147 0.00446052 0)
(0.00401124 0.00376586 0)
(0.00255955 0.00299832 0)
(0.0013822 0.00214907 0)
(0.000546488 0.00123944 0)
(6.00754e-05 0.000362628 0)
(6.81842e-05 -0.000770911 0)
(0.000610067 -0.00219138 0)
(0.00150228 -0.00340848 0)
(0.00269257 -0.00434281 0)
(0.00404775 -0.0049565 0)
(0.00547902 -0.00524243 0)
(0.00689735 -0.00521998 0)
(0.00822512 -0.00492884 0)
(0.00939902 -0.00442205 0)
(0.0103713 -0.00375923 0)
(0.0111096 -0.00300024 0)
(0.0115954 -0.00219982 0)
(0.0118215 -0.00140337 0)
(0.0117889 -0.000644047 0)
(0.0115036 5.87768e-05 0)
(0.0109719 0.000699794 0)
(0.0101982 0.00128679 0)
(0.00918094 0.00183864 0)
(0.00791126 0.00238237 0)
(0.00637125 0.00294973 0)
(0.004534 0.00357353 0)
(0.0023643 0.00428437 0)
(-0.000179685 0.00510802 0)
(-0.0031444 0.00606384 0)
(-0.00657859 0.00716437 0)
(-0.0105311 0.00841571 0)
(-0.0150486 0.00981849 0)
(-0.0201738 0.0113687 0)
(-0.0259434 0.0130587 0)
(-0.0323858 0.0148766 0)
(-0.0395191 0.0168069 0)
(-0.0473484 0.0188293 0)
(-0.0558642 0.0209186 0)
(-0.0650402 0.023044 0)
(-0.0748324 0.0251701 0)
(-0.085179 0.0272569 0)
(-0.096001 0.0292613 0)
(-0.107204 0.031139 0)
(-0.118683 0.0328454 0)
(-0.130321 0.0343386 0)
(-0.142001 0.0355803 0)
(-0.153603 0.0365378 0)
(-0.165012 0.037185 0)
(-0.176119 0.0375029 0)
(-0.186829 0.0374801 0)
(-0.197054 0.0371121 0)
(-0.206723 0.0364009 0)
(-0.215774 0.035354 0)
(-0.22416 0.0339835 0)
(-0.231841 0.0323047 0)
(-0.238791 0.0303354 0)
(-0.244988 0.028095 0)
(-0.250417 0.0256035 0)
(-0.255069 0.0228813 0)
(-0.258938 0.0199487 0)
(-0.262019 0.0168255 0)
(-0.26431 0.0135314 0)
(-0.265807 0.0100854 0)
(-0.266511 0.00650673 0)
(-0.266418 0.00281469 0)
(-0.265527 -0.000970957 0)
(-0.263835 -0.00482931 0)
(-0.261341 -0.00873812 0)
(-0.258041 -0.0126736 0)
(-0.253937 -0.0166094 0)
(-0.249027 -0.0205168 0)
(-0.243314 -0.0243639 0)
(-0.236805 -0.028116 0)
(-0.229508 -0.0317351 0)
(-0.221439 -0.0351804 0)
(-0.212618 -0.0384082 0)
(-0.203072 -0.041373 0)
(-0.192839 -0.0440283 0)
(-0.181962 -0.0463275 0)
(-0.170498 -0.0482252 0)
(-0.158513 -0.0496796 0)
(-0.146082 -0.0506534 0)
(-0.133294 -0.051116 0)
(-0.120244 -0.0510457 0)
(-0.107038 -0.0504305 0)
(-0.0937878 -0.0492703 0)
(-0.0806101 -0.047577 0)
(-0.0676229 -0.0453754 0)
(-0.0549433 -0.0427025 0)
(-0.0426847 -0.0396069 0)
(-0.0309541 -0.0361472 0)
(-0.0198497 -0.0323899 0)
(-0.00945924 -0.0284078 0)
(0.000141284 -0.0242775 0)
(0.0088885 -0.0200769 0)
(0.0167319 -0.0158835 0)
(0.0236339 -0.0117724 0)
(0.02957 -0.00781432 0)
(0.0345288 -0.00407417 0)
(0.0385122 -0.000609879 0)
(0.0415359 0.00252934 0)
(0.0436297 0.00530434 0)
(0.0448374 0.00768715 0)
(0.0452173 0.00966192 0)
(0.0448405 0.0112254 0)
(0.0437899 0.012387 0)
(0.0421574 0.0131676 0)
(0.0400408 0.0135986 0)
(0.0375399 0.0137196 0)
(0.0347531 0.0135757 0)
(0.0317734 0.013215 0)
(0.0286855 0.0126861 0)
(0.025564 0.012035 0)
(0.0224714 0.0113031 0)
(0.0194583 0.0105248 0)
(0.0165645 0.00972527 0)
(0.0138199 0.00891882 0)
(0.0112474 0.00810709 0)
(0.00886615 0.00727878 0)
(0.00669455 0.00641083 0)
(0.00475439 0.00547229 0)
(0.0030747 0.00443151 0)
(0.00168622 0.00326764 0)
(0.000679902 0.00198536 0)
(7.66014e-05 0.000649726 0)
(7.50967e-05 -0.00107129 0)
(0.000669022 -0.00295584 0)
(0.00163667 -0.00451143 0)
(0.00291151 -0.00566914 0)
(0.00433931 -0.00639819 0)
(0.0058187 -0.00670035 0)
(0.00725149 -0.00660696 0)
(0.00855469 -0.00617231 0)
(0.00966258 -0.00546567 0)
(0.0105271 -0.00456298 0)
(0.0111164 -0.00353915 0)
(0.0114128 -0.00246152 0)
(0.011409 -0.00138491 0)
(0.0111046 -0.000348171 0)
(0.0105022 0.000627469 0)
(0.00960294 0.0015385 0)
(0.00840365 0.00239774 0)
(0.00689373 0.00323152 0)
(0.00505354 0.00407586 0)
(0.0028537 0.0049719 0)
(0.000255701 0.00596119 0)
(-0.00278654 0.00708147 0)
(-0.00632431 0.00836342 0)
(-0.0104114 0.00982887 0)
(-0.0151011 0.0114902 0)
(-0.0204437 0.013351 0)
(-0.0264835 0.015407 0)
(-0.0332565 0.0176471 0)
(-0.0407875 0.0200539 0)
(-0.0490875 0.0226037 0)
(-0.0581511 0.0252662 0)
(-0.0679541 0.0280043 0)
(-0.0784518 0.0307743 0)
(-0.0895789 0.0335261 0)
(-0.10125 0.036205 0)
(-0.113361 0.0387533 0)
(-0.125795 0.041113 0)
(-0.138425 0.0432283 0)
(-0.151118 0.0450482 0)
(-0.163743 0.0465287 0)
(-0.176178 0.0476346 0)
(-0.188306 0.0483403 0)
(-0.200027 0.0486302 0)
(-0.211254 0.0484983 0)
(-0.221918 0.047947 0)
(-0.231963 0.046986 0)
(-0.241346 0.0456309 0)
(-0.250039 0.0439012 0)
(-0.258021 0.0418195 0)
(-0.26528 0.0394098 0)
(-0.271809 0.0366968 0)
(-0.277606 0.0337048 0)
(-0.28267 0.0304574 0)
(-0.287004 0.0269773 0)
(-0.290609 0.0232859 0)
(-0.293486 0.0194033 0)
(-0.295634 0.0153489 0)
(-0.297053 0.0111412 0)
(-0.29774 0.00679856 0)
(-0.297692 0.00233924 0)
(-0.296903 -0.00221777 0)
(-0.295367 -0.00685237 0)
(-0.293075 -0.0115427 0)
(-0.290021 -0.0162648 0)
(-0.286195 -0.0209917 0)
(-0.281589 -0.0256934 0)
(-0.276198 -0.0303361 0)
(-0.270015 -0.0348819 0)
(-0.263038 -0.0392889 0)
(-0.25527 -0.0435112 0)
(-0.246716 -0.0474988 0)
(-0.237392 -0.0511988 0)
(-0.227316 -0.0545556 0)
(-0.216522 -0.0575129 0)
(-0.205049 -0.0600147 0)
(-0.19295 -0.0620075 0)
(-0.180291 -0.0634424 0)
(-0.167149 -0.0642774 0)
(-0.153617 -0.0644802 0)
(-0.139795 -0.0640296 0)
(-0.125797 -0.0629183 0)
(-0.111744 -0.0611535 0)
(-0.0977598 -0.0587585 0)
(-0.0839732 -0.0557715 0)
(-0.0705089 -0.0522459 0)
(-0.0574868 -0.0482474 0)
(-0.0450178 -0.0438528 0)
(-0.033202 -0.0391464 0)
(-0.0221258 -0.0342174 0)
(-0.0118622 -0.029157 0)
(-0.00246956 -0.0240558 0)
(0.00600729 -0.0190016 0)
(0.0135364 -0.0140777 0)
(0.0200978 -0.00936131 0)
(0.0256831 -0.00492241 0)
(0.0302948 -0.000822703 0)
(0.0339468 0.0028856 0)
(0.0366648 0.00616111 0)
(0.0384869 0.00897443 0)
(0.0394639 0.0113093 0)
(0.0396596 0.0131632 0)
(0.0391493 0.0145476 0)
(0.0380182 0.0154872 0)
(0.0363589 0.0160184 0)
(0.0342676 0.0161871 0)
(0.0318407 0.0160457 0)
(0.0291714 0.0156501 0)
(0.0263458 0.0150562 0)
(0.0234411 0.0143167 0)
(0.0205241 0.0134773 0)
(0.0176504 0.012574 0)
(0.0148655 0.0116302 0)
(0.0122067 0.010654 0)
(0.00970525 0.00963747 0)
(0.00739037 0.00855697 0)
(0.00529349 0.00737675 0)
(0.00345342 0.00605541 0)
(0.00191097 0.00455627 0)
(0.000778361 0.00286037 0)
(8.86924e-05 0.000993699 0)
(8.065e-05 -0.00139684 0)
(0.000714643 -0.00377736 0)
(0.00173608 -0.00568354 0)
(0.0030641 -0.00705767 0)
(0.00452469 -0.00787962 0)
(0.00600405 -0.00816442 0)
(0.00739534 -0.00795958 0)
(0.00861103 -0.00733761 0)
(0.00958415 -0.00638664 0)
(0.0102675 -0.00520047 0)
(0.010631 -0.00386949 0)
(0.0106584 -0.00247311 0)
(0.0103427 -0.00107414 0)
(0.0096818 0.000284795 0)
(0.00867387 0.00158288 0)
(0.00731347 0.00282075 0)
(0.00558813 0.00401835 0)
(0.00347611 0.00521118 0)
(0.000945359 0.00644527 0)
(-0.00204614 0.00777129 0)
(-0.00554876 0.00923877 0)
(-0.00961856 0.0108909 0)
(-0.014314 0.0127608 0)
(-0.0196923 0.0148696 0)
(-0.0258059 0.0172258 0)
(-0.0326995 0.019826 0)
(-0.0404062 0.0226563 0)
(-0.0489448 0.0256928 0)
(-0.0583168 0.0289026 0)
(-0.0685031 0.0322435 0)
(-0.0794626 0.0356648 0)
(-0.0911302 0.0391072 0)
(-0.103418 0.0425048 0)
(-0.116217 0.0457868 0)
(-0.1294 0.0488806 0)
(-0.14283 0.0517154 0)
(-0.156364 0.0542253 0)
(-0.169858 0.0563527 0)
(-0.183178 0.0580508 0)
(-0.196201 0.0592849 0)
(-0.208821 0.060033 0)
(-0.220948 0.0602855 0)
(-0.232512 0.0600437 0)
(-0.243459 0.0593183 0)
(-0.253753 0.0581273 0)
(-0.263369 0.0564941 0)
(-0.272292 0.0544455 0)
(-0.280517 0.0520101 0)
(-0.288043 0.0492171 0)
(-0.294875 0.0460952 0)
(-0.301017 0.0426718 0)
(-0.306476 0.038973 0)
(-0.311257 0.0350227 0)
(-0.315367 0.0308431 0)
(-0.318808 0.0264546 0)
(-0.321584 0.0218761 0)
(-0.323695 0.0171252 0)
(-0.32514 0.0122189 0)
(-0.325916 0.00717364 0)
(-0.326018 0.00200601 0)
(-0.32544 -0.00326663 0)
(-0.324171 -0.00862563 0)
(-0.322202 -0.0140504 0)
(-0.31952 -0.0195179 0)
(-0.316112 -0.0250016 0)
(-0.311963 -0.0304716 0)
(-0.307059 -0.0358931 0)
(-0.301385 -0.0412268 0)
(-0.294926 -0.0464283 0)
(-0.287673 -0.0514477 0)
(-0.279616 -0.05623 0)
(-0.270754 -0.0607156 0)
(-0.261089 -0.0648408 0)
(-0.250635 -0.0685394 0)
(-0.239413 -0.071744 0)
(-0.22746 -0.0743885 0)
(-0.214822 -0.0764103 0)
(-0.201565 -0.0777535 0)
(-0.187767 -0.0783713 0)
(-0.173525 -0.0782298 0)
(-0.158947 -0.0773101 0)
(-0.144157 -0.0756108 0)
(-0.129288 -0.0731494 0)
(-0.114479 -0.0699626 0)
(-0.0998717 -0.0661061 0)
(-0.085604 -0.0616521 0)
(-0.0718072 -0.0566874 0)
(-0.0586007 -0.0513092 0)
(-0.0460891 -0.0456215 0)
(-0.0343601 -0.0397311 0)
(-0.023484 -0.0337442 0)
(-0.013514 -0.0277629 0)
(-0.00448735 -0.0218838 0)
(0.00357216 -0.0161959 0)
(0.0106527 -0.0107798 0)
(0.0167524 -0.00570728 0)
(0.0218786 -0.00104064 0)
(0.0260474 0.00316813 0)
(0.0292845 0.00687834 0)
(0.0316253 0.0100617 0)
(0.0331166 0.0127037 0)
(0.0338163 0.0148042 0)
(0.0337936 0.0163777 0)
(0.0331278 0.0174532 0)
(0.0319057 0.018072 0)
(0.0302193 0.0182859 0)
(0.0281615 0.0181533 0)
(0.0258236 0.0177363 0)
(0.0232914 0.0170956 0)
(0.0206431 0.016287 0)
(0.0179477 0.0153568 0)
(0.0152649 0.0143378 0)
(0.0126459 0.0132456 0)
(0.010135 0.0120769 0)
(0.00777377 0.010809 0)
(0.00560501 0.00940179 0)
(0.00367866 0.00780355 0)
(0.00204651 0.00595955 0)
(0.000837814 0.00382333 0)
(9.59112e-05 0.00137623 0)
(8.5321e-05 -0.00174255 0)
(0.000749955 -0.00464051 0)
(0.00180568 -0.00689922 0)
(0.00315677 -0.00847334 0)
(0.00461049 -0.0093568 0)
(0.0060413 -0.0095824 0)
(0.00733478 -0.00921825 0)
(0.00840012 -0.00835898 0)
(0.00917045 -0.00711428 0)
(0.00960063 -0.00559726 0)
(0.00966329 -0.00391387 0)
(0.00934397 -0.00215456 0)
(0.00863578 -0.000388208 0)
(0.00753409 0.00134137 0)
(0.00603162 0.00301654 0)
(0.00411448 0.00464479 0)
(0.00175925 0.00625544 0)
(-0.00106849 0.00789463 0)
(-0.00441405 0.00961878 0)
(-0.00833201 0.0114874 0)
(-0.0128831 0.0135558 0)
(-0.0181304 0.0158696 0)
(-0.0241348 0.0184604 0)
(-0.0309505 0.0213434 0)
(-0.0386213 0.024518 0)
(-0.0471761 0.027968 0)
(-0.0566261 0.0316632 0)
(-0.0669611 0.0355605 0)
(-0.0781467 0.0396048 0)
(-0.0901231 0.0437297 0)
(-0.102804 0.0478596 0)
(-0.116079 0.0519111 0)
(-0.129817 0.0557974 0)
(-0.143871 0.0594312 0)
(-0.158088 0.0627301 0)
(-0.172313 0.0656202 0)
(-0.186399 0.0680398 0)
(-0.200211 0.0699418 0)
(-0.213636 0.0712948 0)
(-0.226576 0.0720824 0)
(-0.238957 0.0723023 0)
(-0.250726 0.0719644 0)
(-0.261844 0.0710874 0)
(-0.272289 0.0696975 0)
(-0.282052 0.0678251 0)
(-0.291128 0.065503 0)
(-0.299523 0.0627651 0)
(-0.307244 0.0596445 0)
(-0.3143 0.0561732 0)
(-0.320702 0.0523812 0)
(-0.326461 0.0482964 0)
(-0.331587 0.0439441 0)
(-0.336089 0.0393473 0)
(-0.339975 0.034527 0)
(-0.343251 0.0295018 0)
(-0.345922 0.0242891 0)
(-0.347992 0.0189046 0)
(-0.34946 0.0133631 0)
(-0.350326 0.00767918 0)
(-0.350587 0.00186727 0)
(-0.350236 -0.00405745 0)
(-0.349266 -0.0100785 0)
(-0.347666 -0.0161776 0)
(-0.345421 -0.0223336 0)
(-0.342516 -0.028522 0)
(-0.338931 -0.0347143 0)
(-0.334645 -0.0408769 0)
(-0.329635 -0.0469708 0)
(-0.323878 -0.0529511 0)
(-0.317348 -0.0587661 0)
(-0.310023 -0.0643578 0)
(-0.301881 -0.0696617 0)
(-0.292908 -0.0746076 0)
(-0.283093 -0.0791203 0)
(-0.272436 -0.0831216 0)
(-0.260948 -0.0865323 0)
(-0.248654 -0.0892746 0)
(-0.235597 -0.091276 0)
(-0.221835 -0.0924722 0)
(-0.20745 -0.0928116 0)
(-0.19254 -0.0922584 0)
(-0.177225 -0.0907966 0)
(-0.16164 -0.0884321 0)
(-0.145936 -0.0851942 0)
(-0.130269 -0.0811363 0)
(-0.114801 -0.0763338 0)
(-0.0996893 -0.0708819 0)
(-0.0850823 -0.0648912 0)
(-0.0711129 -0.0584824 0)
(-0.0578948 -0.0517816 0)
(-0.04552 -0.0449146 0)
(-0.034058 -0.0380028 0)
(-0.023557 -0.0311598 0)
(-0.014046 -0.0244891 0)
(-0.00553868 -0.0180833 0)
(0.00196395 -0.0120239 0)
(0.00847014 -0.00638142 0)
(0.0139956 -0.00121553 0)
(0.0185627 0.00342501 0)
(0.0222005 0.00750306 0)
(0.0249456 0.0109941 0)
(0.0268434 0.0138874 0)
(0.0279492 0.0161869 0)
(0.028328 0.0179117 0)
(0.0280543 0.0190955 0)
(0.0272103 0.0197848 0)
(0.0258834 0.0200364 0)
(0.024163 0.0199137 0)
(0.0221376 0.0194821 0)
(0.0198917 0.0188043 0)
(0.0175035 0.0179348 0)
(0.015044 0.016915 0)
(0.0125764 0.0157681 0)
(0.0101581 0.0144959 0)
(0.0078428 0.0130769 0)
(0.00568537 0.0114674 0)
(0.00374727 0.0096056 0)
(0.00209098 0.00741816 0)
(0.000857653 0.00483025 0)
(9.82266e-05 0.00177797 0)
(8.92696e-05 -0.00210448 0)
(0.000775837 -0.00553136 0)
(0.0018465 -0.00813374 0)
(0.00318985 -0.00988092 0)
(0.00459557 -0.0107849 0)
(0.00592756 -0.010901 0)
(0.00706543 -0.0103228 0)
(0.00791684 -0.00917077 0)
(0.00841655 -0.00757885 0)
(0.0085227 -0.00568049 0)
(0.00821119 -0.00359685 0)
(0.00746943 -0.00142774 0)
(0.00628993 0.00075446 0)
(0.00466429 0.00290778 0)
(0.00257817 0.00502096 0)
(7.56059e-06 0.00711109 0)
(-0.0030833 0.00921887 0)
(-0.0067422 0.0114019 0)
(-0.0110273 0.0137263 0)
(-0.0160038 0.0162582 0)
(-0.0217392 0.0190552 0)
(-0.0282979 0.0221603 0)
(-0.035736 0.0255975 0)
(-0.0440959 0.02937 0)
(-0.0534018 0.0334609 0)
(-0.0636562 0.037834 0)
(-0.0748362 0.0424359 0)
(-0.0868913 0.0471977 0)
(-0.0997422 0.0520368 0)
(-0.113282 0.05686 0)
(-0.127379 0.0615667 0)
(-0.141882 0.0660535 0)
(-0.156627 0.0702197 0)
(-0.171449 0.0739727 0)
(-0.186187 0.0772325 0)
(-0.200694 0.0799356 0)
(-0.214839 0.0820366 0)
(-0.228518 0.0835088 0)
(-0.241647 0.0843428 0)
(-0.254165 0.0845442 0)
(-0.266032 0.0841308 0)
(-0.277222 0.0831294 0)
(-0.287726 0.081573 0)
(-0.297542 0.079498 0)
(-0.306676 0.0769427 0)
(-0.315136 0.073945 0)
(-0.322937 0.0705418 0)
(-0.330092 0.066768 0)
(-0.336617 0.0626563 0)
(-0.342525 0.0582365 0)
(-0.347832 0.0535361 0)
(-0.352551 0.0485795 0)
(-0.356697 0.0433887 0)
(-0.36028 0.0379834 0)
(-0.363312 0.0323809 0)
(-0.365803 0.0265968 0)
(-0.367759 0.0206449 0)